# vtk DataFile Version 2.0
Comment goes here
ASCII

DATASET STRUCTURED_POINTS
DIMENSIONS    64   64   1

ORIGIN    0.000   0.000   0.000
SPACING   0.031250.03125   1.000

POINT_DATA   4096
SCALARS Omega double
LOOKUP_TABLE default

-8.747370e-02 1.073817e-01 -7.936190e-02 7.037221e-02 -4.231919e-02 -1.993754e-03 2.985852e-02 -8.036863e-02 1.274260e-01 -1.159447e-01 2.205029e-01 -8.230471e-02 2.618004e-01 -3.540038e-03 2.127046e-01 5.713253e-02 8.336080e-02 5.334027e-02 -5.510405e-02 3.521273e-03 -1.138452e-01 -2.338941e-02 -8.470271e-02 -1.210359e-02 -2.864820e-02 -2.160243e-03 1.109116e-02 -8.895433e-03 2.802526e-02 -2.005079e-02 3.392398e-02 -2.102896e-02 3.972347e-02 -8.799362e-03 4.861204e-02 1.040674e-02 5.817406e-02 2.848148e-02 6.466922e-02 4.016542e-02 6.573321e-02 4.404536e-02 6.109209e-02 4.147316e-02 5.203361e-02 3.499004e-02 4.034283e-02 2.719382e-02 2.730732e-02 2.045556e-02 1.340695e-02 1.710441e-02 -1.156042e-03 1.911809e-02 -1.613340e-02 2.776799e-02 -3.148229e-02 4.353845e-02 -4.741570e-02 6.563989e-02 -6.382459e-02 9.043921e-02 -7.894679e-02 1.091819e-01 
-5.849496e-02 -9.339950e-02 -4.461414e-02 -1.334422e-01 -1.311089e-02 -1.813934e-01 3.037141e-02 -2.097272e-01 7.326234e-02 -1.844971e-01 1.089785e-01 -9.862076e-02 1.334672e-01 3.219411e-02 1.201392e-01 1.574672e-01 4.576000e-02 1.796596e-01 -4.160117e-02 7.599641e-02 -6.727798e-02 -7.732687e-02 -1.320682e-02 -1.889305e-01 6.025219e-02 -2.330347e-01 9.758987e-02 -2.161872e-01 9.111247e-02 -1.572389e-01 6.184897e-02 -8.397219e-02 3.176248e-02 -2.071567e-02 1.146062e-02 2.079287e-02 1.681594e-03 4.047204e-02 -1.296157e-03 4.414756e-02 -1.496500e-03 3.871006e-02 -1.394144e-03 2.965491e-02 -1.795567e-03 2.032533e-02 -2.558488e-03 1.209097e-02 -3.555830e-03 5.042610e-03 -5.416930e-03 -1.299703e-03 -9.362518e-03 -7.862266e-03 -1.619369e-02 -1.573548e-02 -2.582884e-02 -2.551544e-02 -3.740421e-02 -3.706440e-02 -4.917640e-02 -5.036981e-02 -5.793754e-02 -6.741118e-02 
-5.325122e-02 -7.657061e-03 -3.044819e-02 -4.145240e-02 1.160049e-02 -9.437193e-02 6.405508e-02 -1.393599e-01 1.109892e-01 -1.373012e-01 1.490316e-01 -7.426060e-02 1.771101e-01 4.538750e-02 1.972441e-01 1.601644e-01 1.940197e-01 1.544818e-01 1.293921e-01 3.290385e-02 2.110893e-02 -9.478822e-02 -6.180001e-02 -1.491420e-01 -9.614270e-02 -1.576672e-01 -9.527871e-02 -1.419619e-01 -7.120832e-02 -1.074632e-01 -3.203054e-02 -6.093155e-02 1.371818e-02 -1.281136e-02 5.638573e-02 2.773825e-02 8.825608e-02 5.586832e-02 1.058080e-01 7.084212e-02 1.094659e-01 7.462807e-02 1.020621e-01 7.037559e-02 8.731615e-02 6.112353e-02 6.872182e-02 4.915793e-02 4.870575e-02 3.635752e-02 2.823571e-02 2.469626e-02 7.734068e-03 1.554957e-02 -1.186449e-02 9.300362e-03 -2.945203e-02 5.864983e-03 -4.413942e-02 5.175291e-03 -5.487220e-02 6.276780e-03 -5.939194e-02 4.981523e-03 
-6.134846e-02 -2.039201e-01 -2.625574e-02 -2.413151e-01 2.316922e-02 -2.791375e-01 5.856485e-02 -2.931142e-01 5.674318e-02 -2.501108e-01 4.978798e-02 -1.468411e-01 9.402410e-02 6.608966e-02 1.692922e-01 3.678837e-01 1.650988e-01 4.585316e-01 9.798359e-02 2.541393e-01 5.077710e-02 -7.570815e-02 9.283944e-02 -3.014578e-01 1.360792e-01 -3.856202e-01 1.159507e-01 -3.472994e-01 6.120062e-02 -2.215018e-01 1.792992e-02 -7.573384e-02 3.219398e-03 3.515998e-02 9.527367e-03 9.399646e-02 2.314455e-02 1.098801e-01 3.390978e-02 9.959562e-02 3.737686e-02 7.782350e-02 3.375205e-02 5.452459e-02 2.585933e-02 3.486898e-02 1.717701e-02 1.984952e-02 9.946277e-03 7.778520e-03 3.519235e-03 -3.582652e-03 -5.103720e-03 -1.703142e-02 -1.780490e-02 -3.594484e-02 -3.418338e-02 -6.245414e-02 -5.208724e-02 -9.584799e-02 -6.742868e-02 -1.326615e-01 -7.338982e-02 -1.689171e-01 
-9.048995e-03 -1.201193e-01 3.710731e-02 -1.661400e-01 8.992488e-02 -2.209470e-01 1.102712e-01 -2.461278e-01 7.469771e-02 -2.075580e-01 6.253032e-02 -1.324824e-01 1.047830e-01 8.239249e-02 2.463138e-01 3.997622e-01 4.417129e-01 3.788907e-01 4.179433e-01 4.069546e-02 1.318278e-01 -2.911794e-01 -1.259133e-01 -3.954592e-01 -2.596883e-01 -3.843581e-01 -2.882953e-01 -3.089610e-01 -2.305295e-01 -1.972126e-01 -1.269015e-01 -8.373256e-02 -1.611941e-02 6.062437e-03 7.550765e-02 6.517867e-02 1.363118e-01 9.798894e-02 1.660859e-01 1.115701e-01 1.704942e-01 1.122568e-01 1.568018e-01 1.047902e-01 1.320240e-01 9.196380e-02 1.024665e-01 7.499298e-02 7.273266e-02 5.521100e-02 4.403102e-02 3.508987e-02 1.628559e-02 1.561819e-02 -8.685230e-03 -4.169107e-03 -2.857525e-02 -2.540989e-02 -4.149697e-02 -4.751284e-02 -4.519314e-02 -6.886198e-02 -3.593995e-02 -9.061498e-02 
-7.105652e-02 -3.665885e-01 2.705490e-02 -4.112945e-01 1.442415e-01 -4.364087e-01 1.703038e-01 -4.175768e-01 2.828963e-02 -3.473655e-01 -9.179396e-02 -3.326275e-01 1.053945e-02 -6.244502e-02 3.407144e-01 7.646721e-01 4.378214e-01 1.006078e+00 3.225204e-01 5.232151e-01 1.634338e-01 -2.172296e-01 2.997341e-01 -5.543666e-01 3.561840e-01 -6.226180e-01 1.944714e-01 -5.170907e-01 4.232232e-03 -2.557358e-01 -8.056961e-02 1.106824e-02 -6.516900e-02 1.754062e-01 -6.560187e-03 2.309656e-01 5.045403e-02 2.168157e-01 8.448268e-02 1.706546e-01 9.201745e-02 1.177767e-01 7.977273e-02 7.303236e-02 5.815002e-02 4.245386e-02 3.682049e-02 2.380157e-02 2.123104e-02 9.816671e-03 9.714348e-03 -3.995715e-03 -4.977528e-03 -2.168627e-02 -2.653869e-02 -5.062493e-02 -5.427788e-02 -9.654061e-02 -8.483503e-02 -1.595608e-01 -1.100209e-01 -2.332382e-01 -1.130569e-01 -3.059882e-01 
5.876609e-02 -2.459644e-01 1.709658e-01 -3.400242e-01 2.859308e-01 -4.269030e-01 2.499424e-01 -4.071113e-01 -5.304381e-02 -2.753469e-01 -1.204633e-01 -3.887817e-01 -4.839395e-02 -1.048166e-01 2.577376e-01 1.019654e+00 9.897439e-01 9.509771e-01 1.055708e+00 6.814020e-03 1.841047e-01 -7.987772e-01 -3.740809e-01 -8.919393e-01 -6.427670e-01 -7.869353e-01 -7.015070e-01 -5.575427e-01 -5.281386e-01 -2.779782e-01 -2.767690e-01 -5.126412e-02 -4.777554e-02 8.108237e-02 1.180368e-01 1.406862e-01 2.156727e-01 1.604436e-01 2.574917e-01 1.609858e-01 2.591741e-01 1.530721e-01 2.335049e-01 1.415109e-01 1.907646e-01 1.263533e-01 1.419094e-01 1.052758e-01 9.735338e-02 7.862143e-02 5.835785e-02 5.134432e-02 2.134053e-02 2.363165e-02 -1.080592e-02 -7.879053e-03 -3.434945e-02 -4.616246e-02 -4.643380e-02 -9.000048e-02 -4.203194e-02 -1.351602e-01 -1.109308e-02 -1.823895e-01 
-1.299452e-01 -6.466390e-01 1.247980e-01 -7.318453e-01 4.812184e-01 -7.159564e-01 5.503002e-01 -5.311887e-01 -1.319428e-01 -2.897924e-01 -5.326785e-01 -8.688736e-01 -3.106713e-01 -1.009251e+00 9.138350e-01 1.852928e+00 1.174193e+00 2.385181e+00 8.765533e-01 1.104580e+00 1.480723e-01 -8.659017e-01 8.828543e-01 -1.096761e+00 9.817607e-01 -9.648866e-01 3.231219e-01 -7.462693e-01 -2.044926e-01 -1.773843e-01 -3.166602e-01 3.049467e-01 -1.924471e-01 4.951985e-01 -1.836275e-02 4.790280e-01 1.158920e-01 3.768025e-01 1.820200e-01 2.552625e-01 1.861587e-01 1.472813e-01 1.504897e-01 7.165165e-02 1.002454e-01 3.442883e-02 5.620738e-02 2.373614e-02 2.822362e-02 1.376077e-02 1.154925e-02 -5.868410e-04 -1.047132e-02 -1.682810e-02 -4.386978e-02 -5.076099e-02 -8.899048e-02 -1.171815e-01 -1.450655e-01 -2.214621e-01 -2.007770e-01 -3.587803e-01 -2.183676e-01 -5.109883e-01 
1.624674e-01 -3.694511e-01 4.594975e-01 -6.062685e-01 8.607447e-01 -8.191968e-01 8.227700e-01 -6.019363e-01 -7.621442e-01 9.468701e-02 -5.549484e-01 -1.220183e+00 -2.902362e-01 -1.734669e+00 -3.343040e-01 3.109024e+00 2.267802e+00 2.480051e+00 2.881116e+00 -1.507429e-01 -3.191987e-01 -2.163870e+00 -9.750638e-01 -1.957792e+00 -1.505511e+00 -1.629581e+00 -1.672584e+00 -9.904097e-01 -1.088492e+00 -2.858981e-01 -4.993487e-01 1.399470e-01 -6.963730e-02 2.732900e-01 1.996488e-01 2.746732e-01 3.395891e-01 2.437992e-01 3.917878e-01 2.110445e-01 3.883543e-01 1.866167e-01 3.456422e-01 1.729155e-01 2.718676e-01 1.618379e-01 1.848407e-01 1.409814e-01 1.149027e-01 1.081493e-01 6.635078e-02 7.738497e-02 1.904140e-02 4.502217e-02 -2.346913e-02 4.173724e-03 -5.496167e-02 -5.031022e-02 -7.153953e-02 -1.157573e-01 -6.230730e-02 -1.823988e-01 1.484076e-03 -2.511863e-01 
-3.886407e-01 -1.187188e+00 1.818268e-01 -1.469260e+00 1.357753e+00 -1.368580e+00 2.095804e+00 -4.053097e-01 -1.442098e+00 1.031033e+00 -1.787500e+00 -2.165603e+00 -1.663627e+00 -5.962152e+00 2.812050e+00 6.394018e+00 3.051723e+00 6.091380e+00 2.832543e+00 2.846559e+00 -1.144250e+00 -3.702124e+00 3.348482e+00 -2.112346e+00 2.922611e+00 -1.258542e+00 2.378391e-01 -1.124521e+00 -9.792316e-01 3.026353e-01 -8.307538e-01 1.146799e+00 -3.672817e-01 1.168340e+00 3.367273e-02 8.932296e-01 2.870371e-01 5.981693e-01 3.829907e-01 3.413457e-01 3.582039e-01 1.399538e-01 2.659603e-01 1.899962e-02 1.576348e-01 -7.126517e-03 7.381056e-02 2.991883e-02 2.665917e-02 3.181009e-02 5.047581e-03 4.104316e-03 -2.527460e-02 1.368376e-03 -7.021737e-02 -2.032697e-02 -1.366583e-01 -9.911372e-02 -2.401060e-01 -2.540183e-01 -3.791067e-01 -4.979248e-01 -4.871889e-01 -8.265029e-01 
3.031996e-01 -3.284385e-01 1.049630e+00 -9.218752e-01 2.570914e+00 -1.677223e+00 3.947413e+00 -7.455753e-01 -6.436145e+00 3.584405e+00 -1.281426e+00 -3.390764e+00 2.581104e-01 -1.159859e+01 -7.607640e+00 1.354628e+01 5.110369e+00 6.033894e+00 1.010268e+01 -2.271046e-02 -5.249217e+00 -6.108136e+00 -1.310143e+00 -4.598882e+00 -3.557355e+00 -3.934506e+00 -4.228931e+00 -1.888581e+00 -1.975005e+00 9.838248e-02 -7.695316e-01 7.844315e-01 -7.562137e-02 6.730157e-01 3.260814e-01 4.728616e-01 5.117633e-01 3.380628e-01 5.729081e-01 2.431806e-01 5.718464e-01 1.884317e-01 5.208338e-01 1.798744e-01 3.988001e-01 1.913258e-01 2.234925e-01 1.842788e-01 9.781082e-02 1.450302e-01 5.895411e-02 1.206588e-01 9.379146e-03 8.777047e-02 -5.023190e-02 4.013081e-02 -1.021463e-01 -2.811150e-02 -1.396374e-01 -1.127480e-01 -1.437625e-01 -1.861498e-01 -3.964121e-02 -2.178703e-01 
-1.303004e+00 -2.307470e+00 -4.422484e-01 -3.484082e+00 3.142539e+00 -3.606278e+00 9.552979e+00 1.085969e+00 -1.675483e+01 1.066233e+01 -3.886593e+00 -4.274666e+00 -8.288092e+00 -2.849992e+01 -5.425421e+00 3.444377e+01 5.013384e+00 1.415486e+01 1.300767e+01 1.078678e+01 -1.268763e+01 -1.618188e+01 1.770870e+01 -2.590319e+00 9.757875e+00 -4.793284e-01 -2.370431e+00 -2.261717e+00 -3.569264e+00 2.419229e+00 -1.605881e+00 3.443336e+00 -4.370423e-01 2.412372e+00 2.959438e-01 1.481178e+00 6.927394e-01 8.731182e-01 7.795664e-01 4.115096e-01 6.658326e-01 4.572949e-02 4.538365e-01 -1.624167e-01 2.343154e-01 -1.334966e-01 8.916839e-02 9.590482e-02 1.127704e-02 1.176902e-01 -2.099614e-02 -2.409959e-02 -6.231393e-02 2.384875e-02 -1.038627e-01 6.717701e-02 -1.827176e-01 9.087189e-03 -3.600779e-01 -1.838096e-01 -6.893563e-01 -5.747804e-01 -1.114074e+00 -1.267663e+00 
5.276919e-01 6.887936e-01 2.295802e+00 -1.344409e-01 7.102121e+00 -4.142298e+00 1.433583e+01 -6.615376e+00 -4.785222e+01 3.053211e+01 9.333708e-01 -6.778028e+00 4.821969e+00 -7.019498e+01 -1.059946e+02 9.230808e+01 1.209191e+01 7.086050e+00 5.370745e+01 1.068885e+01 -4.288143e+01 -2.323932e+01 8.818861e+00 -1.405677e+01 -1.149761e+01 -1.420263e+01 -1.061338e+01 -3.420235e+00 -2.192207e+00 2.554672e+00 -1.234125e+00 2.619134e+00 -2.017331e-01 1.253323e+00 4.750068e-01 6.819018e-01 7.225368e-01 4.391160e-01 7.768063e-01 2.363645e-01 8.080398e-01 1.075054e-01 8.202389e-01 1.164374e-01 6.543355e-01 1.882249e-01 2.311159e-01 2.292009e-01 -5.858796e-02 1.984795e-01 3.551984e-02 2.053346e-01 1.765161e-02 1.635769e-01 -8.474425e-02 1.127032e-01 -1.929034e-01 4.311823e-02 -2.879112e-01 -5.548117e-02 -3.616931e-01 -1.199611e-01 -2.316734e-01 1.073956e-01 
-4.045823e+00 -4.706041e+00 -5.004306e+00 -1.027328e+01 1.083666e+00 -2.433373e+01 -2.277343e+01 -5.482669e+01 1.268785e+01 1.065248e+02 9.933346e-01 -1.207644e+01 -5.333067e+01 -1.910164e+02 -7.812430e+01 2.680177e+02 -2.437036e+00 1.089079e+01 9.981670e+01 5.700205e+01 -8.423974e+01 -7.648546e+01 1.233017e+02 1.807671e+01 4.844261e+01 8.553971e+00 -2.692734e+01 -6.533736e+00 -8.856102e+00 1.261636e+01 -1.051966e+00 9.036090e+00 -1.739522e-01 3.949592e+00 1.022954e+00 2.071388e+00 1.551805e+00 1.216727e+00 1.494404e+00 4.977109e-01 1.184577e+00 -2.004687e-01 7.529319e-01 -6.687786e-01 3.307301e-01 -5.424512e-01 5.196632e-02 3.238559e-01 -1.611331e-02 6.087198e-01 -4.632553e-02 -2.944100e-01 -1.782047e-01 -1.235896e-03 -1.382653e-01 2.637916e-01 -1.929501e-01 2.953200e-01 -4.535599e-01 1.307917e-01 -1.126501e+00 -3.423185e-01 -2.372628e+00 -1.566999e+00 
1.574883e+00 6.317153e+00 8.455371e+00 1.191489e+01 3.767159e+00 -8.487389e+01 -2.425633e+02 -2.067417e+02 5.460996e+02 3.049829e+02 5.826862e+01 -4.796842e+01 -1.480582e+02 -9.720675e+02 -4.265732e+01 8.357434e+02 1.351524e+02 -5.440213e+01 4.075945e+02 1.466204e+02 -3.679818e+02 -1.834145e+02 8.527941e+01 -3.393528e+01 -5.084333e+01 -1.058538e+02 -1.416238e+01 4.382674e+00 -2.935625e+00 1.460761e+01 -4.989160e+00 5.981811e+00 -9.738760e-01 1.122862e+00 8.050297e-01 8.772580e-01 1.024568e+00 6.693940e-01 8.928418e-01 2.060519e-01 9.892642e-01 -1.571109e-01 1.377997e+00 -6.240290e-02 1.396982e+00 -3.679186e-02 -4.282365e-01 -4.096580e-01 -7.058051e-01 9.065212e-01 5.648386e-01 5.323008e-01 1.139294e-01 2.451822e-01 -1.102938e-01 2.519391e-01 -3.597911e-01 2.423734e-01 -5.572243e-01 1.566778e-01 -8.394507e-01 4.763013e-03 -8.393155e-01 8.552852e-01 
-1.062914e+01 -8.246871e+00 -3.324853e+01 -6.115076e+01 -1.146847e+02 -3.987334e+02 -6.376640e+02 4.489747e+01 1.809421e+03 8.493991e+02 4.831271e+01 -2.656167e+02 -7.148044e+02 -2.226620e+03 6.222984e+02 1.824701e+03 3.400929e+02 -1.531034e+02 5.213036e+02 5.390344e+02 6.971287e+01 -1.452113e+02 7.471184e+02 1.300787e+02 2.199510e+02 3.067560e+01 -9.913690e+01 7.543431e+00 2.628150e+01 6.367435e+01 7.023654e-01 1.445733e+01 -1.336941e+00 3.156228e+00 2.921631e+00 2.505760e+00 3.233952e+00 1.900186e+00 2.601657e+00 8.702588e-01 2.003189e+00 -5.264325e-01 1.338776e+00 -1.864689e+00 3.136479e-01 -2.771999e+00 -3.194768e+00 -2.978411e+00 -1.350583e-01 6.390090e+00 2.761448e+00 -1.092920e+00 -5.927558e-01 -2.612541e-01 -2.046209e-01 7.071027e-01 -1.511379e-01 8.750081e-01 -4.368986e-01 8.276755e-01 -1.509121e+00 6.302416e-01 -4.254928e+00 1.358347e-02 
3.374367e+00 1.615812e+01 2.503163e+01 -1.812495e+01 -2.821310e+02 -7.775190e+02 -4.780182e+02 1.189852e+03 2.586355e+03 1.584154e+03 7.817476e+02 1.759293e+03 2.304883e+02 -3.441459e+03 1.459495e+03 3.508152e+03 -9.960076e+01 3.272643e+02 5.576321e+02 2.411762e+03 -7.851063e+02 -1.424764e+02 1.590062e+02 4.904037e+02 7.775767e+02 -2.138072e+02 -6.636691e+02 2.348369e+01 -4.027174e+01 6.373122e+01 -2.300502e+01 -3.863451e+00 -2.025158e-01 -5.941377e-01 3.143901e+00 2.248100e+00 1.716718e+00 1.493085e+00 5.284588e-01 2.479856e-01 5.731496e-01 -7.714721e-01 2.452042e+00 -3.452310e-01 2.108141e+00 -6.787575e+00 -1.706577e+01 -1.650057e+01 -1.904361e+00 1.624518e+01 1.561565e+01 7.418582e+00 1.239351e+00 -4.220608e-02 -2.796163e-01 5.369874e-01 -7.072703e-01 8.121015e-01 -9.063584e-01 9.157829e-01 -1.607873e+00 3.544067e-01 -3.165219e+00 -7.663967e-02 
-7.692556e+00 7.159054e+01 5.942107e+01 1.093294e+01 -5.380899e+02 -9.379322e+02 -1.843524e+02 1.060911e+03 1.485868e+03 2.365933e+03 3.179078e+03 -1.032580e+03 -5.133285e+03 -1.542500e+03 3.901418e+03 5.209488e+03 3.359110e+03 -9.750732e+02 -1.149164e+03 3.127278e+03 1.894177e+03 3.918310e+03 2.107274e+03 4.523798e+02 1.411086e+03 -3.896517e+02 4.164945e+02 1.009453e+03 -7.833308e+00 1.124430e+02 -9.265068e+01 -2.147575e+01 2.979669e+00 1.918135e-01 9.764023e+00 4.661821e+00 5.946128e+00 3.750791e+00 3.740758e+00 2.349034e+00 3.204433e+00 1.640278e-01 2.959213e+00 -5.975449e+00 -1.054603e+01 -3.206644e+01 -5.118237e+01 -5.705338e+01 -2.021954e+00 6.255158e+01 4.907597e+01 1.861027e+01 8.476335e+00 2.228392e+00 -3.800197e-01 1.673163e+00 -3.454926e-01 1.806289e+00 -3.637160e-01 1.795456e+00 -1.362392e+00 1.959541e+00 -5.657069e+00 6.122863e+00 
-4.048645e+01 -1.039239e+02 -4.320455e+02 -8.103378e+02 -9.290366e+02 -9.722577e+02 -1.416332e+03 -1.188852e+03 2.468365e+03 6.247838e+03 -6.317224e+03 -8.206292e+03 -6.197885e+03 -4.946098e+02 1.721412e+03 2.227345e+03 1.007290e+03 -1.542279e+03 -6.216639e+03 -1.374974e+03 6.886776e+03 5.759890e+03 4.143872e+03 1.161931e+03 3.383451e+03 3.407414e+03 6.538807e+02 6.862958e+02 -6.494244e+02 -1.988185e+01 -1.445535e+01 -9.762297e+00 2.715591e+01 1.784015e+01 1.110131e+01 7.783479e+00 2.123972e+00 2.890099e+00 -1.381448e+00 5.716304e-01 -2.118517e+00 -2.426678e+00 -2.704910e-01 -1.424777e+01 -2.651420e+01 -6.390508e+01 -1.485950e+02 -1.817995e+02 -5.492089e-01 1.701233e+02 1.376099e+02 5.797311e+01 2.603866e+01 1.058436e+01 1.869431e+00 1.781054e+00 -1.818293e+00 2.044883e+00 -9.535799e-01 2.810321e+00 -1.459179e+00 3.448297e+00 -6.643304e+00 6.600286e-01 
2.702416e-01 1.809358e+01 1.195906e+02 1.137024e+02 -4.692053e+02 -1.028005e+03 -2.626326e+03 -2.848536e+03 -2.848859e+03 5.884934e+03 -1.653540e+03 -8.720613e+03 4.732569e+03 7.783475e+02 -2.730598e+03 1.938643e+03 -1.120968e+04 1.658033e+03 3.833011e+03 -7.166831e+03 -1.787905e+03 4.410681e+03 -9.961352e+03 1.910903e+03 2.806464e+03 -9.551356e+02 7.570481e+02 -6.149553e+02 5.094535e+02 -3.679707e+02 2.937351e+02 -3.851116e+01 7.262028e+01 2.269058e+01 1.783389e+01 1.179646e+01 6.404600e+00 6.505523e+00 3.362163e+00 6.143006e+00 4.250297e+00 3.457717e+00 5.579883e+00 -8.410908e+00 -6.020318e+01 -3.223083e+02 -7.400871e+02 -7.644917e+02 -6.007027e+01 6.351552e+02 7.714975e+02 3.822450e+02 6.256859e+01 1.751528e+01 4.322521e+00 5.277775e+00 -2.393429e+00 2.332560e+00 -7.473133e-01 2.402311e+00 -5.970309e-01 2.976371e+00 -4.424787e+00 -3.656837e-01 
3.142740e+01 1.659100e+02 3.458090e+02 5.216624e+02 -4.646831e+02 -1.435423e+03 -7.556549e+02 -2.227092e+03 -7.960919e+03 -5.303700e+03 6.228387e+03 -1.550845e+03 9.896084e+03 8.739034e+03 -2.602824e+03 -6.303324e+03 -4.338017e+02 5.865445e+03 4.585474e+03 -1.342275e+03 -9.143606e+03 -4.457219e+02 1.065046e+03 -9.431293e+03 -5.067570e+03 5.905877e+03 1.717290e+03 -5.606365e+03 3.752030e+03 -8.184573e+02 4.429104e+02 9.494407e+01 4.824584e+01 3.468916e+01 7.416649e+00 9.249853e+00 -2.345340e+00 2.334142e+00 -4.282405e+00 3.241858e+00 -6.267864e+00 -1.938759e+00 1.571908e+01 -4.205119e+01 -3.582301e+02 -8.621301e+02 -6.620358e+02 -1.770223e+02 -4.198110e+01 8.685913e+01 5.942120e+02 8.596088e+02 4.738469e+02 7.454580e+01 -2.899207e+01 2.877959e+00 -8.932697e+00 1.765395e+00 -1.177719e-02 3.780763e+00 1.113700e+00 6.382546e+00 -2.640227e+00 2.288410e+01 
-2.287087e+01 2.192942e+02 -4.544736e+01 -5.916467e+02 -7.028365e+02 -1.588777e+03 -9.422737e+02 2.698961e+03 3.075306e+03 -3.458758e+03 -8.908945e+03 -8.687121e+03 -2.294036e+03 1.461788e+03 -6.176526e+02 -1.790825e+02 -1.493856e+02 -6.879310e+03 5.738306e+03 1.293405e+04 9.209730e+02 -1.053508e+04 -2.849399e+03 -1.029050e+02 -9.509439e+03 -4.328875e+03 1.498502e+03 -2.972870e+02 1.290005e+03 1.732294e+02 1.566330e+02 2.584915e+02 -8.507853e+01 1.111731e+02 -1.231739e+00 1.151145e+01 -1.209274e+00 5.849812e+00 5.291481e+00 1.541806e+01 6.302209e+00 3.670465e+01 1.047308e+02 -1.022532e+02 -1.319602e+02 3.705928e+02 9.465541e+02 7.455361e+02 -1.074388e+01 -6.858364e+02 -1.017659e+03 -4.800482e+02 1.742161e+02 9.889144e+01 -8.282595e+01 -1.837086e+01 -7.322760e+00 -5.149151e+00 -3.079510e+00 -1.245912e+00 3.787376e+00 7.177724e+00 6.459751e+00 4.155667e+01 
3.610200e+01 7.426137e+01 -5.874889e+02 -1.189246e+02 -5.328857e+02 -1.801078e+03 -1.422464e+03 -3.497269e+02 -6.478859e+03 -3.977886e+03 4.402553e+03 3.669483e+03 -1.673678e+04 -9.979191e+03 9.526363e+03 -4.672141e+03 -6.099727e+03 -2.727923e+03 -6.152773e+02 5.963682e+03 -1.459668e+04 1.704107e+03 1.014344e+04 -2.290211e+03 -8.070069e+03 -1.301870e+03 6.381633e+02 -5.699930e+02 -3.312373e+03 1.097562e+03 4.611127e+02 2.707564e+02 -2.966768e+02 3.801490e+01 -3.586029e+01 -5.749444e+00 -1.088136e+01 3.445795e+00 1.341050e+01 1.715058e+01 1.667022e+01 1.884577e+02 3.484625e+02 5.004395e+02 8.788760e+02 1.089991e+03 5.995507e+02 1.742025e+02 -2.965037e+00 -1.257435e+02 -5.471240e+02 -1.045652e+03 -9.065959e+02 -4.779926e+02 -2.786986e+02 -1.688156e+02 -2.257212e+01 -1.775618e+01 -7.432595e+00 -8.953644e+00 -1.268730e+00 3.753403e+00 -2.070792e+01 2.787806e+01 
4.327609e+01 -6.319521e+01 3.634822e+01 1.123149e+03 -5.328917e+02 -9.153807e+02 -5.470620e+02 1.334779e+02 -6.198147e+03 1.069994e+02 9.116997e+03 2.654604e+03 6.293861e+03 8.358182e+03 6.433490e+03 7.783587e+03 7.767417e+01 -1.189675e+04 -1.959574e+04 -3.744749e+03 5.186170e+03 7.992907e+03 2.005961e+04 3.948580e+03 1.975466e+03 2.040712e+03 6.671374e+03 1.311729e+03 -2.846583e+03 -4.728145e+03 1.330051e+03 1.728120e+02 -5.328060e+02 -2.316456e+01 -7.676870e+01 -3.246048e+01 -1.834552e+01 5.058319e+00 2.306103e+01 1.160557e+01 1.155524e+02 5.586958e+02 6.317031e+02 7.355739e+02 7.124193e+02 2.285198e+02 -1.143901e+02 -3.970596e+01 2.730174e+01 5.555451e+01 1.323933e+02 -1.172409e+02 -6.823331e+02 -6.723418e+02 -5.220717e+02 -5.084392e+02 -1.450969e+02 -3.704749e+01 -2.642630e+01 -2.290385e+01 -3.170765e+00 -3.345196e+00 -2.855033e+01 3.440899e+01 
1.786472e+02 -2.711994e+01 3.497964e+02 -2.275448e+03 1.590157e+03 1.858749e+03 -9.999862e+02 3.945623e+03 7.978326e+03 1.213456e+04 9.361597e+03 2.069437e+04 9.750123e+03 -1.116012e+04 1.624294e+03 2.516314e+04 5.950573e+02 -1.857200e+04 -1.294785e+04 -4.452033e+03 1.114719e+04 -2.833350e+03 2.641355e+04 1.447787e+04 1.421853e+04 -9.064380e+03 -3.202710e+03 -4.751042e+03 -3.392628e+03 4.446569e+01 -6.324852e+02 -9.786956e+02 1.049456e+02 -1.455079e+01 -3.780793e+01 4.673025e-01 2.823822e+01 4.590709e+01 3.736554e+01 -5.832892e+00 3.445079e+02 7.314921e+02 5.719156e+02 5.447996e+02 4.527762e+02 7.047270e+01 2.204834e+02 2.554553e+02 1.658542e+01 -2.366472e+02 -2.471705e+02 -6.759352e+01 -3.992718e+02 -5.126088e+02 -4.386114e+02 -6.010891e+02 -4.146293e+02 -5.193431e+01 -9.466044e+00 -4.484449e+01 -2.087629e+01 -4.266666e+01 -1.228755e+02 -6.529251e+01 
4.529537e+02 -8.049340e+00 5.460085e+01 -1.010735e+03 1.722525e+03 -1.950036e+03 4.264479e+03 -1.671306e+03 2.450866e+03 1.098879e+04 1.153393e+04 1.683839e+04 2.328444e+03 -1.125718e+04 2.250011e+03 9.468311e+03 -9.629009e+03 2.040236e+03 1.442134e+04 -9.987971e+03 -2.075593e+03 -2.593816e+03 6.282292e+03 -6.426791e+03 -2.263791e+04 3.258420e+02 2.335423e+03 1.906180e+03 1.847213e+03 1.252382e+03 -1.200148e+03 -5.140156e+02 -6.917697e+01 -1.304221e+02 -1.061367e+02 -2.988528e+01 1.214589e+01 2.276629e+01 -1.280594e+01 2.364041e+01 5.708125e+02 5.443700e+02 5.479299e+02 6.269014e+02 3.011635e+02 2.020454e+02 4.184559e+02 3.548456e+02 2.165763e+01 -3.021856e+02 -4.246463e+02 -2.596795e+02 -2.282504e+02 -6.369367e+02 -4.983461e+02 -3.256334e+02 -5.317335e+02 -9.067939e+01 2.609217e+01 -2.770584e+01 -4.774949e+01 -5.479386e+01 -3.013544e+02 -2.333398e+02 
7.928982e+02 1.253646e+03 -1.686460e+02 2.424299e+03 2.897679e+03 -2.061470e+03 -2.758505e+02 -1.255454e+04 -3.873570e+03 1.331704e+04 1.449826e+04 -1.285851e+04 4.661767e+03 -1.980695e+03 -1.190127e+03 1.402213e+04 4.829482e+03 4.164235e+03 7.950232e+01 -4.851661e+03 1.499442e+04 1.653500e+04 -3.336702e+04 -6.609016e+03 -1.096261e+04 -2.789800e+03 -8.189694e+03 -2.201372e+03 2.550485e+03 6.846625e+02 6.780339e+02 -6.225517e+01 -3.707351e+02 -3.580555e+02 5.150173e+00 1.955503e+01 6.888752e+01 3.487533e+01 -4.036845e+01 2.207941e+01 4.384515e+02 5.261478e+02 8.613135e+02 6.306165e+02 -7.324515e+01 1.958602e+02 3.338826e+02 2.902104e+02 2.280959e+01 -2.400759e+02 -3.443682e+02 -2.721424e+02 5.938881e+01 -5.558397e+02 -8.539162e+02 -4.441794e+02 -3.457744e+02 -8.743156e+01 8.621373e+01 1.286667e+01 -7.395723e+00 4.311456e+01 -4.071823e+01 -9.775744e+02 
-6.446812e+02 8.932089e+02 3.317926e+03 4.593289e+03 4.881987e+03 6.747181e+03 1.681661e+04 -6.759821e+03 -1.613484e+04 -1.914552e+04 -1.750332e+04 -9.861767e+03 6.293939e+03 4.173366e+03 -8.731198e+02 -5.795878e+03 7.698948e+03 1.578890e+04 7.695367e+03 -1.707661e+04 1.478140e+03 1.783214e+04 -3.787224e+04 -1.333641e+04 3.859365e+03 7.703156e+03 -7.661256e+02 -5.001910e+03 -4.666577e+03 -6.507725e+03 -2.072271e+03 -1.335128e+03 -1.406656e+03 -4.184595e+02 1.079864e+02 9.690293e+01 3.609216e+01 -4.676857e+01 -1.428111e+02 2.747405e+01 3.835556e+02 7.930527e+02 8.073805e+02 1.159202e+02 -3.381038e+02 9.927001e+01 1.540781e+02 1.503386e+02 9.920329e+00 -1.324976e+02 -1.684872e+02 -1.421150e+02 2.504357e+02 -2.217141e+01 -8.092552e+02 -8.069535e+02 -3.183428e+02 -8.112549e+01 1.529963e+02 9.417103e+01 1.438633e+01 -3.146989e+01 -5.506259e+02 -6.825201e+02 
1.523928e+03 -1.002574e+03 1.725647e+03 -6.342767e+03 -4.617597e+03 8.240762e+03 1.443583e+04 5.278937e+03 -1.282124e+04 -1.593904e+04 -1.345534e+04 -2.543637e+04 -9.935018e+03 -1.044020e+04 1.649591e+03 -2.058396e+04 6.804939e+03 1.034226e+04 -4.071998e+03 -1.174356e+04 2.182202e+04 2.536473e+04 1.220450e+04 -9.363866e+01 3.161092e+03 5.420199e+03 -4.065630e+03 -9.002315e+02 1.874951e+03 7.888816e+02 -1.059932e+03 -1.064462e+03 -1.327731e+02 2.650600e+02 1.413004e+02 2.449328e+02 2.491371e+01 -1.263345e+02 -2.566289e+02 8.634404e+00 4.573489e+02 8.446567e+02 4.282319e+02 -2.996376e+02 -3.433387e+02 -4.366521e+01 2.755103e+01 4.565056e+01 9.601139e+00 -4.225860e+01 -3.607046e+01 -4.353010e+00 2.593165e+02 3.838424e+02 -2.873090e+02 -7.629828e+02 -5.830383e+02 -1.913081e+02 2.182449e+02 2.007098e+02 9.047969e+01 2.610099e+02 -1.370429e+03 4.923918e+02 
9.791970e+02 -2.941218e+03 -4.572333e+03 -8.351062e+02 -2.849296e+03 -1.635711e+04 -1.021963e+04 1.607474e+04 -2.052479e+03 -6.894698e+03 2.119376e+04 -3.841096e+03 3.286120e+03 -1.443279e+04 -6.732723e+03 4.128580e+03 1.174252e+04 -2.562396e+03 1.284067e+04 1.534414e+04 -1.233360e+04 -2.252734e+04 6.071843e+03 1.073019e+04 1.942910e+04 -5.562354e+03 -3.650597e+03 3.550114e+03 9.746218e+03 5.141345e+03 1.957486e+03 7.939621e+02 8.434907e+02 3.377721e+02 3.643581e+02 3.410788e+02 1.961800e+02 -6.368262e+01 -1.817122e+02 5.284504e+01 5.386052e+02 7.873848e+02 2.037147e+02 -4.905233e+02 -3.299249e+02 -1.361339e+02 -5.493311e+01 -1.564556e+01 -1.070255e+00 6.220987e-02 3.731578e+01 1.079915e+02 2.828838e+02 5.529240e+02 1.486677e+01 -6.582172e+02 -6.950929e+02 -2.375577e+02 1.360227e+02 1.351700e+02 5.809589e+00 4.955522e+01 -1.693101e+01 1.193333e+03 
-1.949674e+03 -7.087984e+02 -2.725779e+03 3.530166e+03 3.609789e+03 -6.192330e+03 -8.627905e+03 1.165828e+04 9.170057e+03 1.134116e+03 1.046744e+04 1.116134e+04 -5.575743e+03 1.687986e+03 -2.077789e+03 1.207234e+04 3.749053e+03 3.572114e+03 3.579401e+01 -3.007541e+03 -1.080730e+04 -9.809834e+03 -7.767166e+03 -9.881296e+03 -8.702115e+03 -2.336092e+03 6.241780e+03 -7.973326e+03 -4.114990e+03 8.420835e+02 -3.265998e+03 9.517868e+02 -3.687604e+02 -6.548382e+02 -5.512390e+01 3.452492e+02 3.328426e+02 1.101649e+02 -1.155274e+02 -3.377664e+01 3.737547e+02 5.561788e+02 5.100776e+01 -4.751228e+02 -3.178836e+02 -1.828761e+02 -8.804764e+01 -3.758862e+01 4.235658e+00 2.541732e+01 8.013640e+01 1.525686e+02 2.887702e+02 5.160338e+02 1.187229e+02 -4.392891e+02 -5.088165e+02 -1.456588e+02 1.208944e+02 6.476039e+01 -1.987476e+02 -1.691509e+02 -4.959842e+02 -4.991581e+02 
1.440108e+03 3.369409e+03 -1.223522e+03 -4.814166e+03 -2.913481e+03 2.560593e+03 2.482515e+03 1.078668e+04 -2.475075e+03 -1.124054e+04 1.829417e+04 3.257566e+04 -2.347054e+04 1.857746e+04 8.240903e+03 -5.940317e+03 -6.572742e+03 -1.759420e+04 -1.678252e+04 -7.452633e+03 9.986808e+03 2.430729e+04 5.304934e+03 9.001772e+03 -3.551301e+03 -3.058678e+03 5.927743e+03 8.777301e+01 -2.359189e+03 2.493770e+03 -9.315042e+01 1.617945e+03 5.344724e+02 -2.330746e+02 -1.781356e+02 3.671707e+02 3.091277e+02 1.419498e+02 -1.347243e+02 -7.674761e+01 2.300620e+02 2.994763e+02 -1.588574e+01 -2.987412e+02 -2.074727e+02 -1.325924e+02 -7.944657e+01 -4.292274e+01 -5.084067e+00 2.288646e+01 6.683950e+01 1.182769e+02 1.956338e+02 3.127076e+02 8.802850e+01 -2.473581e+02 -3.257829e+02 -1.362841e+02 1.508247e+02 7.578508e+01 -2.224069e+02 -2.524870e+02 6.164932e+01 -1.869250e+03 
2.145647e+03 2.075543e+03 2.309052e+03 1.578951e+03 2.819589e+03 4.878240e+03 -1.174281e+03 -9.220668e+03 -9.302816e+03 3.844301e+03 1.064724e+04 1.630950e+04 -9.501928e+03 -5.829985e+03 -1.170657e+04 -8.888977e+03 -8.450427e+03 4.804425e+03 5.704031e+03 -1.266176e+04 -3.381080e+04 7.234397e+03 1.862415e+04 1.650528e+04 1.233719e+04 -1.659468e+04 -5.883797e+03 1.904239e+04 -2.250337e+02 -4.962226e+03 1.806818e+03 2.197601e+03 1.710965e+03 9.026270e+02 -8.998441e+01 1.875686e+02 1.386729e+02 6.956935e+01 -1.007644e+02 -6.796226e+01 -8.653304e+00 -2.572266e+01 1.642088e+01 -2.708320e+01 -3.317532e+01 -1.048574e+01 -4.300515e+00 -3.143236e+00 -2.403969e-01 2.605197e+00 4.259477e-01 4.341842e+00 2.085653e+01 1.950912e+01 8.153549e+00 5.701569e+00 -7.752438e+01 -1.080284e+02 -1.755532e+01 5.656188e+01 -7.094897e+01 -1.249110e+02 3.149821e+02 -4.843177e+02 
-2.178963e+03 -1.965371e+03 -7.805604e+02 3.885400e+03 5.976367e+03 8.987136e+02 -8.390152e+03 -9.476415e+03 -1.159940e+04 -7.322673e+03 2.938607e+03 2.581394e+04 -7.661669e+03 -3.580826e+04 -7.713179e+03 4.510894e+03 -5.415740e+02 -1.744318e+03 9.725216e+03 4.393622e+03 -9.673489e+03 -4.249287e+03 -1.521777e+03 -1.111529e+04 -1.267750e+04 -5.035832e+03 -9.063069e+03 3.679184e+03 -5.973630e+03 -8.248605e+03 3.237637e+02 9.821206e+02 4.075402e+02 -3.307900e+02 3.942324e+02 -9.083883e+01 3.270027e+01 9.578335e+01 8.993204e+01 -5.485958e+01 -3.048896e+02 -3.145674e+02 8.195708e+01 2.745866e+02 1.606439e+02 1.215987e+02 7.435684e+01 3.840191e+01 3.364331e+00 -1.945249e+01 -6.977708e+01 -1.140121e+02 -1.679034e+02 -2.695641e+02 -6.972415e+01 2.122608e+02 2.114991e+02 -7.197170e+00 -1.500338e+02 -5.925123e+01 1.427995e+02 4.744563e+02 -3.360568e+01 -9.437224e+02 