# vtk DataFile Version 2.0
Comment goes here
ASCII

DATASET STRUCTURED_POINTS
DIMENSIONS    64   64   1

ORIGIN    0.000   0.000   0.000
SPACING   0.031250.03125   1.000

POINT_DATA   4096
SCALARS Omega double
LOOKUP_TABLE default

1.128047e-07 -2.126903e-08 -1.692735e-07 -3.032598e-07 -4.060368e-07 -4.963196e-07 -5.876520e-07 -5.851484e-07 -6.865578e-07 -5.797471e-07 -6.716853e-07 -4.937113e-07 -5.332951e-07 -3.352431e-07 -2.941498e-07 -1.196288e-07 -4.450686e-10 1.185353e-07 2.931282e-07 3.341167e-07 5.319633e-07 4.925317e-07 6.700570e-07 5.785140e-07 6.848371e-07 5.838921e-07 5.861208e-07 4.951239e-07 4.049252e-07 3.022764e-07 1.686780e-07 2.069540e-08 -1.129172e-07 -3.010274e-07 -4.372629e-07 -5.971399e-07 -7.830594e-07 -8.117269e-07 -1.092367e-06 -9.154561e-07 -1.279375e-06 -9.011620e-07 -1.265427e-06 -7.687351e-07 -1.017765e-06 -5.222685e-07 -5.670893e-07 -1.855801e-07 6.118790e-10 1.865087e-07 5.682690e-07 5.234461e-07 1.018832e-06 7.702654e-07 1.266352e-06 9.029286e-07 1.280164e-06 9.171698e-07 1.093030e-06 8.130562e-07 7.835656e-07 5.978492e-07 4.375224e-07 3.010490e-07 
1.547682e-06 -3.038083e-05 -6.285571e-05 -7.378820e-05 -1.004910e-04 -8.236555e-05 -9.031335e-05 -5.111940e-05 -3.250479e-05 3.235854e-06 3.994360e-05 4.718398e-05 7.748913e-05 5.290501e-05 5.704515e-05 2.194732e-05 9.306932e-08 -2.185170e-05 -5.701383e-05 -5.256737e-05 -7.778483e-05 -4.663466e-05 -4.045462e-05 -2.724933e-06 3.204976e-05 5.142744e-05 9.009283e-05 8.252902e-05 1.004956e-04 7.395225e-05 6.297978e-05 3.060587e-05 -1.400226e-06 -2.681396e-05 -6.515427e-05 -7.142274e-05 -1.016114e-04 -8.114843e-05 -9.145141e-05 -4.951357e-05 -3.587142e-05 6.976417e-06 3.323561e-05 5.309250e-05 6.918576e-05 5.862109e-05 5.117097e-05 2.432057e-05 4.731765e-08 -2.424010e-05 -5.122729e-05 -5.827991e-05 -6.956121e-05 -5.251059e-05 -3.382057e-05 -6.407271e-06 3.534578e-05 4.989011e-05 9.116661e-05 8.137235e-05 1.015659e-04 7.162651e-05 6.525090e-05 2.705261e-05 
4.696113e-06 2.800044e-05 4.882303e-05 7.308313e-05 5.844635e-05 7.255177e-05 2.367107e-05 1.540651e-05 -2.921653e-05 -6.486108e-05 -5.245144e-05 -1.045497e-04 -2.738512e-05 -7.756336e-05 3.422439e-06 -2.418571e-05 -1.620784e-07 2.365286e-05 -4.055854e-06 7.768099e-05 2.616566e-05 1.053620e-04 5.104563e-05 6.584241e-05 2.817367e-05 -1.480187e-05 -2.426173e-05 -7.248106e-05 -5.889141e-05 -7.337754e-05 -4.938514e-05 -2.843062e-05 -5.363326e-06 3.137059e-05 3.999756e-05 7.334730e-05 5.200880e-05 7.003358e-05 1.782939e-05 1.460618e-05 -3.795608e-05 -5.863491e-05 -6.571420e-05 -9.068544e-05 -4.218309e-05 -6.262116e-05 -6.545423e-06 -1.764574e-05 -1.376763e-07 1.730847e-05 5.936733e-06 6.291696e-05 4.092743e-05 9.165624e-05 6.420466e-05 5.976405e-05 3.676894e-05 -1.386169e-05 -1.856262e-05 -6.984265e-05 -5.256079e-05 -7.355973e-05 -4.061503e-05 -3.177169e-05 
5.501266e-06 -1.077962e-04 -2.239179e-04 -2.668895e-04 -3.692113e-04 -3.071444e-04 -3.508288e-04 -2.037473e-04 -1.506783e-04 -6.941494e-06 1.212909e-04 1.583977e-04 2.675840e-04 1.787706e-04 1.937807e-04 7.068186e-05 3.000432e-07 -7.038103e-05 -1.937778e-04 -1.774421e-04 -2.688175e-04 -1.562213e-04 -1.232729e-04 8.854081e-06 1.490262e-04 2.047702e-04 3.501260e-04 3.076212e-04 3.693219e-04 2.674412e-04 2.244077e-04 1.086306e-04 -4.953652e-06 -9.735261e-05 -2.317253e-04 -2.611709e-04 -3.719943e-04 -3.061697e-04 -3.529379e-04 -2.016542e-04 -1.608745e-04 3.453511e-06 9.797124e-05 1.779102e-04 2.372389e-04 1.986847e-04 1.718565e-04 7.905902e-05 1.462543e-07 -7.881879e-05 -1.721454e-04 -1.973480e-04 -2.387340e-04 -1.756186e-04 -1.001969e-04 -1.332585e-06 1.589841e-04 2.029190e-04 3.520137e-04 3.068548e-04 3.719314e-04 2.618558e-04 2.321200e-04 9.823182e-05 
9.724869e-06 7.484728e-05 1.352314e-04 1.974165e-04 1.606832e-04 1.963289e-04 5.154128e-05 2.716517e-05 -1.164130e-04 -2.130915e-04 -1.785675e-04 -3.055902e-04 -5.645822e-05 -1.747171e-04 6.661081e-05 -2.841511e-05 -3.642674e-07 2.712299e-05 -6.833202e-05 1.753300e-04 5.283919e-05 3.080897e-04 1.745201e-04 2.158160e-04 1.137269e-04 -2.571723e-05 -5.281234e-05 -1.963737e-04 -1.616562e-04 -1.983217e-04 -1.366807e-04 -7.599839e-05 -1.151479e-05 8.325374e-05 1.175892e-04 1.966088e-04 1.502129e-04 1.864042e-04 4.339589e-05 2.048663e-05 -1.326699e-04 -2.003023e-04 -2.087515e-04 -2.696212e-04 -9.304168e-05 -1.335670e-04 4.119996e-05 -1.006498e-05 -2.902507e-07 9.242584e-06 -4.283747e-05 1.345987e-04 8.934262e-05 2.724886e-04 2.044439e-04 2.033798e-04 1.296235e-04 -1.869064e-05 -4.501149e-05 -1.861436e-04 -1.514332e-04 -1.973053e-04 -1.191616e-04 -8.433104e-05 
1.171313e-05 -2.417243e-04 -5.017691e-04 -6.176217e-04 -8.782600e-04 -7.515620e-04 -9.229868e-04 -5.589749e-04 -5.052357e-04 -1.015857e-04 1.774114e-04 3.189677e-04 5.671298e-04 3.522550e-04 3.718124e-04 1.071403e-04 5.278365e-07 -1.066938e-04 -3.723418e-04 -3.486136e-04 -5.708033e-04 -3.129218e-04 -1.826821e-04 1.063425e-04 5.013825e-04 5.609149e-04 9.218210e-04 7.521769e-04 8.789499e-04 6.187548e-04 5.030782e-04 2.437694e-04 -1.039658e-05 -2.243132e-04 -5.164294e-04 -6.122506e-04 -8.777448e-04 -7.590537e-04 -9.171582e-04 -5.646158e-04 -5.178155e-04 -8.507060e-05 1.296480e-04 3.621123e-04 4.967858e-04 3.995203e-04 3.185427e-04 1.270980e-04 1.990574e-07 -1.268324e-04 -3.196837e-04 -3.958970e-04 -5.009910e-04 -3.558273e-04 -1.354230e-04 9.028725e-05 5.134429e-04 5.670800e-04 9.154937e-04 7.600970e-04 8.780419e-04 6.136410e-04 5.175245e-04 2.264412e-04 
1.519803e-05 1.608705e-04 3.148892e-04 4.415139e-04 3.763412e-04 4.604158e-04 8.842523e-05 3.648616e-05 -3.934488e-04 -6.357746e-04 -5.747630e-04 -8.437262e-04 -7.956307e-05 -2.739307e-04 4.254227e-04 1.210683e-04 -5.416313e-07 -1.235717e-04 -4.293895e-04 2.765598e-04 6.968335e-05 8.508065e-04 5.642640e-04 6.424255e-04 3.877461e-04 -3.383473e-05 -9.020352e-05 -4.613746e-04 -3.778796e-04 -4.439710e-04 -3.180747e-04 -1.634712e-04 -1.933619e-05 1.789452e-04 2.895312e-04 4.356084e-04 3.701993e-04 4.275308e-04 9.072857e-05 5.123725e-06 -4.104216e-04 -6.211914e-04 -6.299287e-04 -7.659212e-04 -1.566765e-04 -1.750783e-04 3.696794e-04 1.664917e-04 -3.414603e-07 -1.680365e-04 -3.733913e-04 1.785245e-04 1.466722e-04 7.736967e-04 6.188860e-04 6.285465e-04 4.039685e-04 -1.733500e-06 -9.318294e-05 -4.278306e-04 -3.721834e-04 -4.376201e-04 -2.929212e-04 -1.813903e-04 
2.325844e-05 -4.932760e-04 -1.006064e-03 -1.311468e-03 -1.928952e-03 -1.725809e-03 -2.333280e-03 -1.500227e-03 -1.648733e-03 -5.445005e-04 6.993001e-07 5.300325e-04 1.036104e-03 4.857329e-04 3.548118e-04 -1.229698e-04 4.838524e-07 1.227500e-04 -3.580862e-04 -4.758141e-04 -1.047030e-03 -5.132107e-04 -1.452956e-05 5.556178e-04 1.640531e-03 1.502706e-03 2.332467e-03 1.725616e-03 1.931776e-03 1.313573e-03 1.009292e-03 4.980138e-04 -2.040454e-05 -4.699024e-04 -1.030391e-03 -1.317310e-03 -1.910678e-03 -1.766492e-03 -2.291115e-03 -1.542432e-03 -1.643304e-03 -5.319709e-04 -8.422590e-05 6.180707e-04 8.821636e-04 5.919965e-04 2.301440e-04 -7.972792e-05 -1.865175e-07 7.899614e-05 -2.346162e-04 -5.822317e-04 -8.940644e-04 -6.008117e-04 6.944438e-05 5.440339e-04 1.634041e-03 1.545956e-03 2.289252e-03 1.767074e-03 1.912686e-03 1.319828e-03 1.033185e-03 4.747608e-04 
2.031914e-05 2.909831e-04 6.711710e-04 8.822363e-04 8.266912e-04 1.058102e-03 1.590622e-04 1.248815e-04 -1.179796e-03 -1.844038e-03 -1.903843e-03 -2.574519e-03 -9.745019e-05 -1.434894e-04 2.264700e-03 1.292977e-03 -1.710419e-07 -1.297007e-03 -2.272768e-03 1.540179e-04 6.909897e-05 2.595201e-03 1.876113e-03 1.860185e-03 1.169180e-03 -1.213565e-04 -1.594748e-04 -1.062800e-03 -8.284626e-04 -8.885753e-04 -6.780165e-04 -2.964631e-04 -2.956220e-05 3.309851e-04 6.438956e-04 8.632599e-04 8.505667e-04 9.625468e-04 2.144412e-04 1.156751e-05 -1.165030e-03 -1.855955e-03 -1.991869e-03 -2.414937e-03 -2.542432e-04 9.436132e-05 2.147861e-03 1.406997e-03 3.594961e-07 -1.409068e-03 -2.155174e-03 -8.229293e-05 2.257821e-04 2.436836e-03 1.963031e-03 1.873466e-03 1.152895e-03 -6.495005e-06 -2.160938e-04 -9.658765e-04 -8.530384e-04 -8.687110e-04 -6.510105e-04 -3.361647e-04 
4.610918e-05 -9.610045e-04 -1.851142e-03 -2.660760e-03 -4.032369e-03 -3.840100e-03 -5.838479e-03 -4.048083e-03 -5.365144e-03 -2.367484e-03 -1.419395e-03 6.727879e-04 1.686691e-03 -6.566970e-05 -1.884839e-03 -2.680542e-03 -1.415392e-06 2.674557e-03 1.868798e-03 9.382720e-05 -1.720406e-03 -6.233761e-04 1.381472e-03 2.392260e-03 5.349217e-03 4.047068e-03 5.842490e-03 3.835843e-03 4.041697e-03 2.664840e-03 1.858487e-03 9.717548e-04 -4.047222e-05 -9.357473e-04 -1.891214e-03 -2.703941e-03 -3.960059e-03 -3.978959e-03 -5.678178e-03 -4.217417e-03 -5.266033e-03 -2.411103e-03 -1.552306e-03 8.464584e-04 1.346855e-03 1.715255e-04 -2.185178e-03 -2.604537e-03 -2.839858e-06 2.597108e-03 2.166767e-03 -1.440454e-04 -1.382259e-03 -7.963242e-04 1.512623e-03 2.437855e-03 5.247897e-03 4.218462e-03 5.679981e-03 3.975992e-03 3.967760e-03 2.708551e-03 1.897743e-03 9.466163e-04 
2.308600e-05 3.713384e-04 1.268885e-03 1.454343e-03 1.640895e-03 2.357762e-03 3.560676e-04 8.657051e-04 -3.032477e-03 -4.946515e-03 -6.402823e-03 -9.027652e-03 -6.703511e-04 1.374432e-03 1.243351e-02 9.625602e-03 2.324265e-06 -9.628602e-03 -1.244133e-02 -1.332067e-03 5.805422e-04 9.091411e-03 6.327111e-03 4.986352e-03 3.018919e-03 -8.665215e-04 -3.470571e-04 -2.374873e-03 -1.642212e-03 -1.469427e-03 -1.283791e-03 -3.819233e-04 -4.304044e-05 4.626726e-04 1.254913e-03 1.411584e-03 1.759409e-03 2.108775e-03 5.904418e-04 5.064165e-04 -2.862927e-03 -5.104223e-03 -6.510406e-03 -8.717247e-03 -9.831995e-04 1.968495e-03 1.221455e-02 9.936603e-03 3.725884e-06 -9.935394e-03 -1.222011e-02 -1.923217e-03 8.936669e-04 8.782954e-03 6.432373e-03 5.146810e-03 2.846239e-03 -5.038553e-04 -5.836066e-04 -2.123084e-03 -1.761628e-03 -1.425011e-03 -1.270019e-03 -4.727298e-04 
9.130500e-05 -1.818197e-03 -3.039040e-03 -5.178403e-03 -7.844556e-03 -8.114470e-03 -1.414321e-02 -1.064469e-02 -1.726640e-02 -9.600474e-03 -8.979747e-03 7.932587e-05 3.183407e-03 -3.433479e-03 -2.117936e-02 -2.521345e-02 -9.411875e-06 2.517267e-02 2.109669e-02 3.516505e-03 -3.291515e-03 7.643185e-05 8.868422e-03 9.648267e-03 1.724382e-02 1.062090e-02 1.416953e-02 8.098752e-03 7.870032e-03 5.188367e-03 3.053474e-03 1.841739e-03 -8.171802e-05 -1.801367e-03 -3.112081e-03 -5.309056e-03 -7.643756e-03 -8.500679e-03 -1.364723e-02 -1.120642e-02 -1.681463e-02 -9.917332e-03 -9.134835e-03 4.078989e-04 2.410160e-03 -2.898365e-03 -2.195185e-02 -2.525352e-02 -1.266264e-05 2.520856e-02 2.186433e-02 2.978791e-03 -2.520950e-03 -2.511915e-04 9.020157e-03 9.969587e-03 1.678707e-02 1.118677e-02 1.366878e-02 8.486824e-03 7.666129e-03 5.319347e-03 3.125127e-03 1.824868e-03 
2.119507e-05 -3.087016e-05 1.925057e-03 1.301095e-03 2.528212e-03 4.543316e-03 5.844808e-04 4.758870e-03 -5.788813e-03 -9.856429e-03 -1.984390e-02 -3.509977e-02 -9.438910e-03 6.753372e-03 8.050822e-02 7.865621e-02 -1.185099e-06 -7.863742e-02 -8.041451e-02 -6.569628e-03 9.107081e-03 3.531389e-02 1.963737e-02 9.956015e-03 5.805636e-03 -4.793392e-03 -5.430347e-04 -4.594366e-03 -2.533037e-03 -1.331446e-03 -1.958380e-03 1.341070e-05 -6.157556e-05 1.758016e-04 1.946626e-03 1.240387e-03 2.866606e-03 3.968437e-03 1.333163e-03 3.706737e-03 -5.026040e-03 -1.061294e-02 -1.983705e-02 -3.457376e-02 -1.004661e-02 8.303937e-03 8.035831e-02 7.981524e-02 2.337158e-06 -7.978685e-02 -8.025730e-02 -8.114494e-03 9.717276e-03 3.479033e-02 1.962521e-02 1.071890e-02 5.036065e-03 -3.733307e-03 -1.295307e-03 -4.013892e-03 -2.872025e-03 -1.267953e-03 -1.979616e-03 -1.924629e-04 
1.765670e-04 -3.451840e-03 -4.292417e-03 -9.912866e-03 -1.362083e-02 -1.587825e-02 -3.173542e-02 -2.543959e-02 -5.288306e-02 -3.662682e-02 -4.839108e-02 -8.456917e-03 1.575967e-02 4.012525e-04 -1.874259e-01 -2.622063e-01 3.703936e-05 2.619556e-01 1.868421e-01 -1.725194e-04 -1.611732e-02 8.986549e-03 4.803672e-02 3.666907e-02 5.290650e-02 2.532429e-02 3.183531e-02 1.584907e-02 1.367269e-02 9.945125e-03 4.312986e-03 3.499867e-03 -1.644435e-04 -3.463087e-03 -4.456168e-03 -1.019217e-02 -1.319731e-02 -1.678507e-02 -3.038417e-02 -2.712040e-02 -5.118861e-02 -3.806573e-02 -4.835830e-02 -7.960011e-03 1.387538e-02 1.787314e-03 -1.899571e-01 -2.649682e-01 2.929814e-05 2.647051e-01 1.893623e-01 -1.568594e-03 -1.423639e-02 8.489822e-03 4.799667e-02 3.811971e-02 5.119912e-02 2.701354e-02 3.047345e-02 1.675755e-02 1.324377e-02 1.022345e-02 4.474767e-03 3.510512e-03 
1.606599e-05 -2.056273e-03 1.623693e-03 -3.012399e-03 1.280284e-03 4.480017e-03 -3.121109e-03 1.667849e-02 -6.593545e-03 2.232110e-03 -3.672485e-02 -1.218748e-01 -9.852271e-02 -4.904270e-02 7.451821e-01 9.268310e-01 -3.853973e-04 -9.269303e-01 -7.436747e-01 5.001589e-02 9.702445e-02 1.227782e-01 3.624747e-02 -2.017268e-03 6.823445e-03 -1.687598e-02 3.217050e-03 -4.591580e-03 -1.326734e-03 2.972014e-03 -1.698082e-03 2.035739e-03 -8.862465e-05 -1.612805e-03 1.670966e-03 -2.986016e-03 1.955292e-03 3.390834e-03 -1.102153e-03 1.378836e-02 -3.653842e-03 -8.296392e-04 -3.581805e-02 -1.213071e-01 -9.959355e-02 -4.598529e-02 7.473844e-01 9.366404e-01 -3.807802e-04 -9.367194e-01 -7.458524e-01 4.697063e-02 9.810830e-02 1.222105e-01 3.532612e-02 1.063812e-03 3.867415e-03 -1.396573e-02 1.193059e-03 -3.492149e-03 -2.000052e-03 2.949469e-03 -1.743389e-03 1.593204e-03 
3.219123e-04 -6.705840e-03 -5.455284e-03 -1.999103e-02 -1.984748e-02 -2.994235e-02 -6.278409e-02 -4.986894e-02 -1.417446e-01 -1.166964e-01 -2.523352e-01 -1.407418e-01 7.481704e-02 7.542678e-01 -6.736214e-01 -2.927770e+00 2.835005e-03 2.930159e+00 6.749435e-01 -7.520713e-01 -7.623334e-02 1.425551e-01 2.511961e-01 1.163322e-01 1.421780e-01 4.952394e-02 6.301924e-02 2.999038e-02 1.989133e-02 2.009911e-02 5.462949e-03 6.791469e-03 -3.165394e-04 -6.775435e-03 -5.882621e-03 -2.039861e-02 -1.930747e-02 -3.162209e-02 -5.964384e-02 -5.450341e-02 -1.356140e-01 -1.223926e-01 -2.507348e-01 -1.416459e-01 6.766578e-02 7.713463e-01 -6.462367e-01 -2.924047e+00 2.809608e-03 2.926443e+00 6.476157e-01 -7.691622e-01 -6.908343e-02 1.434530e-01 2.495738e-01 1.220667e-01 1.360063e-01 5.417407e-02 5.985582e-02 3.166713e-02 1.934383e-02 2.050180e-02 5.888370e-03 6.859288e-03 
1.364157e-05 -7.040087e-03 -2.495183e-03 -1.959593e-02 -6.743759e-03 -1.546899e-02 -3.471005e-02 2.270686e-02 -3.452901e-02 8.447468e-02 3.212062e-02 3.486134e-02 1.359365e-01 -5.462091e+00 -1.412148e+01 -7.206574e+00 -7.924738e-03 7.167270e+00 1.405615e+01 5.438852e+00 -1.404648e-01 -2.805637e-02 -3.247467e-02 -8.507534e-02 3.559511e-02 -2.336988e-02 3.461649e-02 1.540545e-02 6.501432e-03 1.960046e-02 2.347467e-03 7.034479e-03 -1.193875e-04 -6.182635e-03 -2.561010e-03 -1.909409e-02 -6.077429e-03 -1.667197e-02 -3.047176e-02 1.544912e-02 -2.340621e-02 7.189000e-02 3.825987e-02 3.320195e-02 1.478997e-01 -5.486122e+00 -1.434808e+01 -7.485516e+00 -7.941587e-03 7.446166e+00 1.428270e+01 5.462907e+00 -1.523441e-01 -2.642311e-02 -3.867221e-02 -7.240923e-02 2.442411e-02 -1.606193e-02 3.037669e-02 1.662276e-02 5.844674e-03 1.910226e-02 2.418309e-03 6.177792e-03 
5.257438e-04 -1.186185e-02 -9.906385e-03 -4.329937e-02 -1.892241e-02 -6.993575e-02 -1.057662e-01 -5.314706e-02 -2.451747e-01 -2.289632e-01 -1.104989e+00 -6.438180e-01 -5.259629e+00 9.023408e+00 7.028825e+01 7.039841e+01 7.381457e-03 -7.031209e+01 -7.006498e+01 -8.900148e+00 5.227514e+00 6.523542e-01 1.105572e+00 2.234944e-01 2.480345e-01 5.310672e-02 1.057078e-01 7.054271e-02 1.877824e-02 4.356966e-02 9.857419e-03 1.197872e-02 -5.483147e-04 -1.203795e-02 -1.092035e-02 -4.360520e-02 -1.918047e-02 -7.173503e-02 -1.008301e-01 -6.488932e-02 -2.221925e-01 -2.521758e-01 -1.090328e+00 -6.350184e-01 -5.296931e+00 8.861926e+00 7.028929e+01 7.082687e+01 7.143332e-03 -7.074085e+01 -7.006746e+01 -8.739983e+00 5.264819e+00 6.436328e-01 1.090769e+00 2.468649e-01 2.248891e-01 6.486367e-02 1.007333e-01 7.231970e-02 1.903113e-02 4.386436e-02 1.087032e-02 1.215209e-02 
-7.180169e-06 -1.171061e-02 -1.932892e-02 -5.388477e-02 -1.265065e-02 -1.209901e-01 -1.441046e-01 8.483089e-02 -1.481502e-01 -3.625730e-01 -1.384310e+00 -3.595232e+00 2.758184e+00 5.177285e+01 2.454532e+01 -9.162599e+01 3.997157e-02 9.166288e+01 -2.450323e+01 -5.179866e+01 -2.769297e+00 3.609266e+00 1.407371e+00 3.393335e-01 1.541856e-01 -8.539976e-02 1.423513e-01 1.215111e-01 1.200008e-02 5.401011e-02 1.912812e-02 1.174824e-02 -9.824043e-05 -1.032699e-02 -1.968028e-02 -5.239396e-02 -1.339227e-02 -1.197978e-01 -1.403501e-01 7.036687e-02 -9.851437e-02 -4.289841e-01 -1.323788e+00 -3.653478e+00 2.386940e+00 5.204258e+01 2.644704e+01 -8.971844e+01 4.089336e-02 8.975742e+01 -2.640194e+01 -5.206701e+01 -2.398562e+00 3.667327e+00 1.346439e+00 4.062344e-01 1.043305e-01 -7.082314e-02 1.386320e-01 1.203300e-01 1.276437e-02 5.252378e-02 1.948500e-02 1.036590e-02 
7.326912e-04 -1.224321e-02 -3.909621e-02 -7.738215e-02 7.165868e-03 -2.904667e-01 -1.398296e-01 7.800247e-01 -1.712629e-01 -1.966748e+00 -5.830046e+00 3.258822e+00 4.295109e+01 -1.217891e+01 -2.654276e+02 -3.410035e+02 -2.775904e-01 3.405091e+02 2.650195e+02 1.211962e+01 -4.290010e+01 -3.338107e+00 5.931982e+00 1.913278e+00 1.875865e-01 -7.775714e-01 1.381694e-01 2.919229e-01 -7.521031e-03 7.768444e-02 3.899059e-02 1.232779e-02 -8.089754e-04 -1.258688e-02 -4.066333e-02 -7.787566e-02 5.870647e-03 -2.914862e-01 -1.401332e-01 7.612749e-01 -6.863940e-02 -2.102579e+00 -5.734851e+00 3.006472e+00 4.263463e+01 -1.126230e+01 -2.643754e+02 -3.414552e+02 -2.744964e-01 3.409649e+02 2.639701e+02 1.120107e+01 -4.258471e+01 -3.083844e+00 5.834735e+00 2.050136e+00 8.424516e-02 -7.587806e-01 1.384371e-01 2.929013e-01 -6.235637e-03 7.817335e-02 4.055263e-02 1.267178e-02 
-1.059296e-04 -2.480065e-05 -8.322929e-02 -4.866453e-02 -3.081134e-02 -5.427380e-01 -1.006576e-01 3.502254e+00 -3.677904e+00 -6.682832e+00 6.792420e+00 4.599686e+01 7.016400e+01 -7.130302e+01 -2.443078e+02 -1.627568e+02 -1.431470e-01 1.625481e+02 2.444416e+02 7.177397e+01 -7.020061e+01 -4.615044e+01 -6.683927e+00 6.612399e+00 3.687194e+00 -3.503803e+00 9.920869e-02 5.424790e-01 3.059000e-02 4.869041e-02 8.316531e-02 1.093431e-04 6.475339e-05 1.676354e-03 -8.317817e-02 -4.777253e-02 -2.991655e-02 -5.429837e-01 -1.183649e-01 3.563494e+00 -3.549714e+00 -6.935853e+00 7.044009e+00 4.507657e+01 6.981429e+01 -7.066881e+01 -2.462209e+02 -1.662278e+02 -1.491162e-01 1.660148e+02 2.463468e+02 7.112904e+01 -6.984943e+01 -4.522673e+01 -6.937678e+00 6.867349e+00 3.558586e+00 -3.564612e+00 1.168910e-01 5.428182e-01 2.967335e-02 4.782637e-02 8.310357e-02 -1.586310e-03 
9.795540e-04 7.491559e-03 -1.470020e-01 4.121319e-03 -2.147606e-01 -7.113620e-01 1.549848e+00 6.747767e+00 -8.424583e+00 2.455058e+01 9.635930e+01 1.898176e+02 1.361857e+02 -2.934804e+01 -1.309960e+01 9.878689e+01 2.006982e-01 -9.872904e+01 1.315186e+01 2.950312e+01 -1.362588e+02 -1.897872e+02 -9.635977e+01 -2.452788e+01 8.402446e+00 -6.747834e+00 -1.543904e+00 7.085186e-01 2.157235e-01 -4.453591e-03 1.469776e-01 -7.530855e-03 -1.110751e-03 7.398812e-03 -1.479521e-01 5.400639e-04 -2.035068e-01 -7.303177e-01 1.503097e+00 7.051884e+00 -8.423651e+00 2.434756e+01 9.647269e+01 1.884980e+02 1.421204e+02 -2.475642e+01 -1.457572e+01 9.655451e+01 1.966582e-01 -9.649292e+01 1.462815e+01 2.492406e+01 -1.421861e+02 -1.884762e+02 -9.647422e+01 -2.432667e+01 8.403060e+00 -7.052144e+00 -1.497578e+00 7.277030e-01 2.043315e-01 -8.167667e-04 1.479019e-01 -7.427510e-03 
1.638516e-04 3.262646e-02 -2.196991e-01 2.079112e-01 -7.687330e-01 8.601951e-01 6.394234e+00 4.350022e+00 4.363509e+01 1.892931e+02 3.687880e+02 3.154850e+02 -1.201538e+01 -3.983015e+01 1.249044e+02 1.411073e+02 1.931402e-02 -1.410585e+02 -1.249650e+02 3.967951e+01 1.206889e+01 -3.156528e+02 -3.688805e+02 -1.891697e+02 -4.372887e+01 -4.337461e+00 -6.388005e+00 -8.657356e-01 7.709634e-01 -2.084877e-01 2.199526e-01 -3.255982e-02 -1.369846e-04 3.436458e-02 -2.184910e-01 2.045449e-01 -7.488480e-01 8.451135e-01 6.191556e+00 5.488876e+00 4.341346e+01 1.892070e+02 3.736687e+02 3.265000e+02 3.642924e+00 -3.446564e+01 1.250226e+02 1.411578e+02 3.163660e-02 -1.411139e+02 -1.250811e+02 3.432857e+01 -3.620001e+00 -3.266573e+02 -3.737454e+02 -1.890969e+02 -4.349751e+01 -5.479485e+00 -6.185362e+00 -8.500992e-01 7.507935e-01 -2.050209e-01 2.186994e-01 -3.428450e-02 
1.664234e-03 2.515757e-02 -2.536942e-01 3.089629e-01 -8.385021e-01 5.405763e+00 1.714050e+01 5.002347e+01 2.822702e+02 4.848482e+02 3.343362e+02 -1.370367e+02 -2.338152e+02 1.282947e+02 1.624034e+02 3.800106e+01 -3.304182e-01 -3.797374e+01 -1.621750e+02 -1.280002e+02 2.343347e+02 1.368955e+02 -3.343048e+02 -4.846945e+02 -2.823597e+02 -4.997763e+01 -1.716124e+01 -5.411097e+00 8.408169e-01 -3.101215e-01 2.538036e-01 -2.525819e-02 -1.784129e-03 2.849449e-02 -2.564080e-01 3.081108e-01 -8.117111e-01 5.472460e+00 1.650432e+01 5.248513e+01 2.824092e+02 4.957214e+02 3.501127e+02 -1.192181e+02 -2.302237e+02 1.200104e+02 1.676875e+02 3.715053e+01 -3.019040e-01 -3.715255e+01 -1.674604e+02 -1.197104e+02 2.306756e+02 1.191290e+02 -3.500585e+02 -4.955958e+02 -2.824814e+02 -5.244967e+01 -1.652176e+01 -5.477413e+00 8.136578e-01 -3.091253e-01 2.564718e-01 -2.857836e-02 
3.443200e-03 3.460717e-02 -1.596288e-01 5.218969e-01 2.060356e+00 1.613573e+01 7.255049e+01 2.803276e+02 5.031628e+02 2.813726e+02 -1.366697e+02 -1.906078e+02 3.106215e+02 4.534820e+02 1.949207e+02 2.334015e+01 -1.750273e-01 -2.349185e+01 -1.951054e+02 -4.531647e+02 -3.098981e+02 1.907297e+02 1.364774e+02 -2.813269e+02 -5.030036e+02 -2.802400e+02 -7.261444e+01 -1.613849e+01 -2.058493e+00 -5.230338e-01 1.597001e-01 -3.469564e-02 -3.544301e-03 3.571479e-02 -1.678009e-01 5.334799e-01 2.038657e+00 1.632821e+01 7.027245e+01 2.858641e+02 5.155191e+02 2.993533e+02 -1.366439e+02 -1.989637e+02 3.043346e+02 4.426714e+02 2.005313e+02 2.137498e+01 -1.489934e-01 -2.156022e+01 -2.007193e+02 -4.423388e+02 -3.036458e+02 1.991381e+02 1.364434e+02 -2.993332e+02 -5.153619e+02 -2.857845e+02 -7.032537e+01 -1.633190e+01 -2.037006e+00 -5.345040e-01 1.678522e-01 -3.578068e-02 
5.966358e-04 -3.415580e-03 7.275595e-02 1.597699e+00 1.049689e+01 6.212385e+01 2.569893e+02 5.303526e+02 3.695138e+02 7.897687e+01 3.572996e+02 9.645259e+02 9.071335e+02 4.760871e+02 3.915511e+02 2.069557e+02 9.593399e-02 -2.072304e+02 -3.919828e+02 -4.759960e+02 -9.069228e+02 -9.643684e+02 -3.575939e+02 -7.924694e+01 -3.694740e+02 -5.304627e+02 -2.570554e+02 -6.212086e+01 -1.049864e+01 -1.597734e+00 -7.268083e-02 3.631277e-03 -5.012063e-04 1.098655e-02 5.375174e-02 1.641310e+00 1.028870e+01 6.125100e+01 2.564192e+02 5.273532e+02 3.914987e+02 9.676165e+01 3.267117e+02 9.411391e+02 9.180851e+02 4.738702e+02 3.847064e+02 2.091399e+02 9.488646e-02 -2.094125e+02 -3.851412e+02 -4.737869e+02 -9.178380e+02 -9.410078e+02 -3.270759e+02 -9.698427e+01 -3.914674e+02 -5.274455e+02 -2.564599e+02 -6.125259e+01 -1.029008e+01 -1.641378e+00 -5.371845e-02 -1.078564e-02 
1.433274e-02 7.515705e-02 7.826953e-01 5.659271e+00 3.688653e+01 2.237278e+02 5.535221e+02 6.453727e+02 5.605566e+02 1.020237e+03 1.579983e+03 1.228185e+03 5.064501e+02 4.892217e+02 4.458343e+02 2.297816e+02 9.733824e-02 -2.299667e+02 -4.459830e+02 -4.892009e+02 -5.067010e+02 -1.228464e+03 -1.580280e+03 -1.020466e+03 -5.608425e+02 -6.456164e+02 -5.533856e+02 -2.236860e+02 -3.688920e+01 -5.659810e+00 -7.836451e-01 -7.559156e-02 -1.477627e-02 5.587249e-02 7.306952e-01 5.622051e+00 3.602482e+01 2.147547e+02 5.610843e+02 6.489794e+02 5.628209e+02 1.019767e+03 1.554097e+03 1.225506e+03 5.217389e+02 4.913298e+02 4.384452e+02 2.348761e+02 7.911260e-02 -2.350322e+02 -4.385898e+02 -4.913246e+02 -5.219431e+02 -1.225828e+03 -1.554397e+03 -1.019921e+03 -5.630760e+02 -6.491796e+02 -5.609614e+02 -2.147360e+02 -3.602594e+01 -5.622397e+00 -7.314945e-01 -5.622632e-02 
-1.448287e-02 8.842257e-02 2.244616e+00 1.591748e+01 1.233433e+02 5.233902e+02 7.822451e+02 8.331638e+02 1.324156e+03 1.533556e+03 9.725344e+02 2.345378e+02 3.168211e+02 4.516209e+02 1.590202e+02 8.624318e+01 5.985541e-02 -8.629591e+01 -1.590707e+02 -4.517685e+02 -3.169469e+02 -2.347229e+02 -9.730044e+02 -1.533428e+03 -1.323450e+03 -8.323769e+02 -7.816613e+02 -5.232736e+02 -1.233142e+02 -1.591289e+01 -2.243420e+00 -8.777656e-02 1.501232e-02 1.250375e-01 2.295351e+00 1.549083e+01 1.196258e+02 5.292656e+02 8.189928e+02 8.390134e+02 1.279653e+03 1.521504e+03 9.856311e+02 2.349487e+02 3.171347e+02 4.605986e+02 1.580869e+02 8.853956e+01 5.081306e-02 -8.857578e+01 -1.581377e+02 -4.607416e+02 -3.172610e+02 -2.351623e+02 -9.860195e+02 -1.521331e+03 -1.278945e+03 -8.383103e+02 -8.185640e+02 -5.292101e+02 -1.195929e+02 -1.548699e+01 -2.294576e+00 -1.245178e-01 
2.950449e-02 5.202544e-01 5.234926e+00 4.369504e+01 3.006688e+02 7.380818e+02 8.186241e+02 9.883649e+02 1.179717e+03 5.662267e+02 -3.220420e+02 -3.279367e+02 3.622413e+02 2.014633e+02 -1.013138e+01 2.460729e+01 1.290450e-02 -2.462774e+01 1.012466e+01 -2.015228e+02 -3.623743e+02 3.279994e+02 3.219823e+02 -5.661144e+02 -1.179024e+03 -9.873489e+02 -8.179890e+02 -7.378304e+02 -3.005285e+02 -4.367433e+01 -5.234263e+00 -5.211098e-01 -3.016634e-02 4.460191e-01 4.941666e+00 4.163107e+01 2.986918e+02 7.804815e+02 8.468573e+02 9.582965e+02 1.140608e+03 5.518423e+02 -3.078598e+02 -3.276062e+02 3.609787e+02 2.068535e+02 -1.091598e+01 2.493306e+01 1.081435e-02 -2.494812e+01 1.090730e+01 -2.069129e+02 -3.611091e+02 3.276678e+02 3.078143e+02 -5.517438e+02 -1.139959e+03 -9.573738e+02 -8.462937e+02 -7.802592e+02 -2.985470e+02 -4.161003e+01 -4.940700e+00 -4.466973e-01 
3.441908e-02 7.033477e-01 9.984163e+00 9.170930e+01 4.519790e+02 6.427938e+02 6.431710e+02 7.890669e+02 4.681224e+02 -3.956837e+02 -9.161423e+02 -2.949306e+02 2.547359e+02 3.613809e+01 -2.172128e+01 8.587225e+00 1.560175e-03 -8.596666e+00 2.172526e+01 -3.610793e+01 -2.548573e+02 2.949365e+02 9.163461e+02 3.957222e+02 -4.684546e+02 -7.897604e+02 -6.436995e+02 -6.425519e+02 -4.516594e+02 -9.162723e+01 -9.975784e+00 -7.023623e-01 -3.419215e-02 7.518558e-01 9.321212e+00 8.466250e+01 4.642317e+02 6.943548e+02 6.213466e+02 7.433071e+02 4.662290e+02 -4.006605e+02 -9.165517e+02 -2.984563e+02 2.563332e+02 3.804932e+01 -2.244292e+01 8.715805e+00 1.124705e-03 -8.724201e+00 2.244630e+01 -3.801957e+01 -2.564574e+02 2.984733e+02 9.167541e+02 4.006624e+02 -4.665615e+02 -7.438982e+02 -6.217466e+02 -6.940874e+02 -4.638899e+02 -8.458124e+01 -9.313443e+00 -7.510103e-01 
-6.782400e-03 8.353566e-01 1.493247e+01 1.180335e+02 3.285624e+02 3.060378e+02 5.087122e+02 5.790226e+02 7.003202e+01 -7.053122e+02 -9.333470e+02 -1.773102e+02 9.322067e+01 -6.206816e+00 -5.205757e+00 2.768401e+00 7.203741e-04 -2.771461e+00 5.206013e+00 6.232507e+00 -9.327477e+01 1.773129e+02 9.336121e+02 7.053612e+02 -7.042377e+01 -5.803899e+02 -5.099760e+02 -3.058469e+02 -3.281002e+02 -1.178792e+02 -1.491515e+01 -8.339507e-01 6.563012e-03 9.506531e-01 1.406381e+01 1.107792e+02 4.431329e+02 4.245162e+02 3.434596e+02 4.540228e+02 1.056901e+02 -7.006083e+02 -9.366600e+02 -1.819848e+02 9.440538e+01 -5.948008e+00 -5.493311e+00 2.843648e+00 6.532953e-04 -2.846541e+00 5.493534e+00 5.973671e+00 -9.445963e+01 1.819936e+02 9.369137e+02 7.006448e+02 -1.060544e+02 -4.552265e+02 -3.446461e+02 -4.244010e+02 -4.426572e+02 -1.106304e+02 -1.404734e+01 -9.496559e-01 
8.814501e-02 8.192560e-01 1.214452e+01 8.787287e+01 4.948920e+01 -1.076247e+01 4.333058e+02 4.745263e+02 -3.651687e+01 -5.252395e+02 -5.914856e+02 -1.030272e+02 1.677100e+01 -4.766847e+00 -7.517829e-03 5.266709e-01 4.308824e-04 -5.273628e-01 6.711733e-03 4.772689e+00 -1.677427e+01 1.030654e+02 5.916251e+02 5.253296e+02 3.655374e+01 -4.753573e+02 -4.341619e+02 1.097359e+01 -4.909936e+01 -8.773103e+01 -1.212828e+01 -8.185829e-01 -8.836114e-02 6.880718e-01 1.101393e+01 8.052109e+01 2.499510e+02 1.881159e+02 1.340706e+02 2.328819e+02 3.673496e+01 -5.045363e+02 -5.960562e+02 -1.064651e+02 1.730924e+01 -4.764641e+00 -7.603756e-02 5.631794e-01 4.243941e-04 -5.639075e-01 7.527308e-02 4.770695e+00 -1.731337e+01 1.065047e+02 5.962011e+02 5.046168e+02 -3.676991e+01 -2.335443e+02 -1.348326e+02 -1.880179e+02 -2.495661e+02 -8.038830e+01 -1.099768e+01 -6.873888e-01 
-1.916882e-03 -1.832923e-02 -1.893741e-01 -1.938393e+00 -1.216353e+01 -8.605032e+00 1.449669e+01 7.693468e+00 -4.994320e+00 -6.271297e-04 2.394178e-01 -2.562776e-02 1.426510e-05 3.861644e-03 -5.055038e-05 1.070353e-03 4.407512e-07 -1.069366e-03 5.203385e-05 -3.860765e-03 -1.674397e-06 2.563729e-02 -2.395979e-01 7.662795e-04 4.997023e+00 -7.697783e+00 -1.449925e+01 8.607935e+00 1.216111e+01 1.937673e+00 1.892126e-01 1.832044e-02 1.908965e-03 3.966963e-03 2.588795e-03 -2.220041e-02 -1.109897e-01 -8.236136e-02 1.539440e-01 8.555624e-04 -6.843205e-02 3.665617e-02 -6.112574e-03 -1.134970e-02 3.022180e-03 5.595844e-04 -3.752641e-04 4.009317e-04 -1.925737e-08 -4.007797e-04 3.756625e-04 -5.601545e-04 -3.018090e-03 1.134073e-02 6.111903e-03 -3.663960e-02 6.849001e-02 -8.591253e-04 -1.543014e-01 8.207686e-02 1.109252e-01 2.217733e-02 -2.597532e-03 -3.971942e-03 
-8.640092e-02 -8.267742e-01 -1.219469e+01 -8.851693e+01 -5.012359e+01 1.354081e+01 -4.314422e+02 -4.772584e+02 3.615120e+01 5.257047e+02 5.913827e+02 1.031026e+02 -1.677588e+01 4.760681e+00 5.986763e-03 -5.276061e-01 -4.321491e-04 5.282958e-01 -5.183035e-03 -4.766531e+00 1.677913e+01 -1.031409e+02 -5.915220e+02 -5.257947e+02 -3.618950e+01 4.780890e+02 4.323000e+02 -1.374954e+01 4.973370e+01 8.837523e+01 1.217847e+01 8.260981e-01 8.661872e-02 -6.907958e-01 -1.101365e+01 -8.049073e+01 -2.497915e+02 -1.881063e+02 -1.343783e+02 -2.329660e+02 -3.660245e+01 5.044465e+02 5.960387e+02 1.065166e+02 -1.730924e+01 4.761513e+00 7.595628e-02 -5.632509e-01 -4.248476e-04 5.639788e-01 -7.519172e-02 -4.767569e+00 1.731337e+01 -1.065563e+02 -5.961835e+02 -5.045268e+02 3.663732e+01 2.336286e+02 1.351406e+02 1.880082e+02 2.494066e+02 8.035796e+01 1.099742e+01 6.901188e-01 