# vtk DataFile Version 2.0
Comment goes here
ASCII

DATASET STRUCTURED_POINTS
DIMENSIONS    64   64   1

ORIGIN    0.000   0.000   0.000
SPACING   0.031250.03125   1.000

POINT_DATA   4096
SCALARS P double
LOOKUP_TABLE default

-1.695290e+03 -1.325256e+03 -1.463105e+03 -1.213966e+03 -1.229518e+03 -1.116194e+03 -1.006514e+03 -1.036273e+03 -8.053015e+02 -9.775700e+02 -6.348768e+02 -9.421488e+02 -5.010277e+02 -9.306838e+02 -4.062869e+02 -9.427130e+02 -3.508603e+02 -9.771292e+02 -3.339634e+02 -1.032587e+03 -3.548028e+02 -1.107550e+03 -4.127660e+02 -1.199991e+03 -5.069194e+02 -1.307009e+03 -6.352811e+02 -1.424687e+03 -7.942902e+02 -1.548254e+03 -9.786332e+02 -1.672432e+03 -1.181407e+03 -1.791854e+03 -1.394552e+03 -1.901430e+03 -1.609438e+03 -1.996664e+03 -1.817487e+03 -2.073879e+03 -2.010706e+03 -2.130379e+03 -2.182071e+03 -2.164507e+03 -2.325708e+03 -2.175608e+03 -2.436894e+03 -2.163859e+03 -2.511915e+03 -2.130051e+03 -2.547910e+03 -2.075422e+03 -2.542835e+03 -2.001622e+03 -2.495615e+03 -1.910832e+03 -2.406431e+03 -1.805896e+03 -2.277069e+03 -1.690390e+03 -2.111211e+03 -1.568559e+03 -1.914638e+03 -1.445162e+03 
-1.249904e+03 -8.170000e+02 -9.878569e+02 -7.231138e+02 -7.385478e+02 -6.593703e+02 -5.174089e+02 -6.305731e+02 -3.385020e+02 -6.393144e+02 -2.124047e+02 -6.855075e+02 -1.446687e+02 -7.664114e+02 -1.354371e+02 -8.771181e+02 -1.803121e+02 -1.011231e+03 -2.719732e+02 -1.161470e+03 -4.018587e+02 -1.320117e+03 -5.614371e+02 -1.479421e+03 -7.429157e+02 -1.632091e+03 -9.394496e+02 -1.771878e+03 -1.144985e+03 -1.894010e+03 -1.353898e+03 -1.995330e+03 -1.560679e+03 -2.074074e+03 -1.759785e+03 -2.129472e+03 -1.945681e+03 -2.161340e+03 -2.113001e+03 -2.169823e+03 -2.256751e+03 -2.155308e+03 -2.372484e+03 -2.118455e+03 -2.456411e+03 -2.060257e+03 -2.505414e+03 -1.982048e+03 -2.516993e+03 -1.885471e+03 -2.489221e+03 -1.772472e+03 -2.420808e+03 -1.645403e+03 -2.311352e+03 -1.507244e+03 -2.161738e+03 -1.361824e+03 -1.974612e+03 -1.213955e+03 -1.754834e+03 -1.069412e+03 -1.509855e+03 -9.347560e+02 
-1.907132e+03 -1.500171e+03 -1.702772e+03 -1.423410e+03 -1.501163e+03 -1.364550e+03 -1.313326e+03 -1.325826e+03 -1.148738e+03 -1.307576e+03 -1.013938e+03 -1.308183e+03 -9.117160e+02 -1.324442e+03 -8.414565e+02 -1.352447e+03 -8.006340e+02 -1.388837e+03 -7.867257e+02 -1.431847e+03 -7.985666e+02 -1.481598e+03 -8.366169e+02 -1.539473e+03 -9.022343e+02 -1.606924e+03 -9.964855e+02 -1.684328e+03 -1.119040e+03 -1.770298e+03 -1.267435e+03 -1.861601e+03 -1.436846e+03 -1.953612e+03 -1.620415e+03 -2.041049e+03 -1.809985e+03 -2.118719e+03 -1.996976e+03 -2.182108e+03 -2.173149e+03 -2.227764e+03 -2.331162e+03 -2.253477e+03 -2.464848e+03 -2.258259e+03 -2.569264e+03 -2.242169e+03 -2.640547e+03 -2.206046e+03 -2.675753e+03 -2.151291e+03 -2.672799e+03 -2.079838e+03 -2.630631e+03 -1.994282e+03 -2.549549e+03 -1.898034e+03 -2.431567e+03 -1.795360e+03 -2.280703e+03 -1.691240e+03 -2.103130e+03 -1.591058e+03 
-1.059831e+03 -4.882080e+02 -7.765613e+02 -3.808588e+02 -5.095870e+02 -3.128798e+02 -2.769208e+02 -2.898508e+02 -9.402540e+01 -3.129870e+02 2.906658e+01 -3.786987e+02 8.938777e+01 -4.795604e+02 9.070309e+01 -6.062683e+02 4.134732e+01 -7.495802e+02 -4.866025e+01 -9.015424e+02 -1.700669e+02 -1.055835e+03 -3.158092e+02 -1.207518e+03 -4.812840e+02 -1.352619e+03 -6.636481e+02 -1.487807e+03 -8.604938e+02 -1.610190e+03 -1.068455e+03 -1.717213e+03 -1.282505e+03 -1.806592e+03 -1.496071e+03 -1.876255e+03 -1.701672e+03 -1.924323e+03 -1.891684e+03 -1.949182e+03 -2.058976e+03 -1.949621e+03 -2.197324e+03 -1.924999e+03 -2.301591e+03 -1.875347e+03 -2.367708e+03 -1.801338e+03 -2.392509e+03 -1.704165e+03 -2.373554e+03 -1.585458e+03 -2.309111e+03 -1.447418e+03 -2.198422e+03 -1.293169e+03 -2.042196e+03 -1.127141e+03 -1.843199e+03 -9.553397e+02 -1.606845e+03 -7.853959e+02 -1.341708e+03 -6.263657e+02 
-2.127784e+03 -1.661275e+03 -1.940064e+03 -1.615138e+03 -1.759348e+03 -1.592878e+03 -1.597221e+03 -1.595046e+03 -1.462881e+03 -1.619043e+03 -1.361196e+03 -1.659149e+03 -1.291538e+03 -1.707296e+03 -1.248526e+03 -1.754785e+03 -1.224902e+03 -1.794887e+03 -1.215019e+03 -1.825135e+03 -1.217122e+03 -1.848012e+03 -1.233575e+03 -1.869599e+03 -1.269331e+03 -1.896945e+03 -1.329691e+03 -1.935435e+03 -1.418292e+03 -1.987119e+03 -1.535689e+03 -2.050288e+03 -1.678712e+03 -2.120259e+03 -1.840892e+03 -2.190767e+03 -2.013658e+03 -2.255330e+03 -2.187682e+03 -2.308246e+03 -2.353994e+03 -2.345179e+03 -2.504696e+03 -2.363408e+03 -2.633310e+03 -2.361799e+03 -2.734787e+03 -2.340537e+03 -2.805260e+03 -2.300693e+03 -2.841729e+03 -2.243878e+03 -2.841931e+03 -2.172204e+03 -2.804549e+03 -2.088546e+03 -2.729653e+03 -1.996836e+03 -2.619178e+03 -1.902135e+03 -2.477274e+03 -1.810413e+03 -2.310497e+03 -1.728072e+03 
-8.715487e+02 -1.287967e+02 -5.492650e+02 6.919223e-01 -2.465565e+02 7.848558e+01 1.300959e+01 9.680487e+01 2.096408e+02 5.540182e+01 3.322577e+02 -3.757877e+01 3.809416e+02 -1.679766e+02 3.656868e+02 -3.200740e+02 3.017681e+02 -4.805128e+02 2.043789e+02 -6.403230e+02 8.479857e+01 -7.948840e+02 -5.126054e+01 -9.425684e+02 -2.032377e+02 -1.083137e+03 -3.737044e+02 -1.216470e+03 -5.652831e+02 -1.341669e+03 -7.774774e+02 -1.456807e+03 -1.005513e+03 -1.559056e+03 -1.241076e+03 -1.644977e+03 -1.473945e+03 -1.710892e+03 -1.693625e+03 -1.753294e+03 -1.890493e+03 -1.769249e+03 -2.056419e+03 -1.756757e+03 -2.184977e+03 -1.714932e+03 -2.271312e+03 -1.643913e+03 -2.311757e+03 -1.544511e+03 -2.303357e+03 -1.417910e+03 -2.243681e+03 -1.265825e+03 -2.131133e+03 -1.091137e+03 -1.965650e+03 -8.985949e+02 -1.749499e+03 -6.952984e+02 -1.488086e+03 -4.908922e+02 -1.190767e+03 -2.974360e+02 
-2.354166e+03 -1.802293e+03 -2.171013e+03 -1.783446e+03 -1.999535e+03 -1.797150e+03 -1.853943e+03 -1.842837e+03 -1.745188e+03 -1.914975e+03 -1.677610e+03 -2.002944e+03 -1.646302e+03 -2.091963e+03 -1.638098e+03 -2.165821e+03 -1.637390e+03 -2.212048e+03 -1.633096e+03 -2.226809e+03 -1.622717e+03 -2.216401e+03 -1.612201e+03 -2.194368e+03 -1.612488e+03 -2.176068e+03 -1.635222e+03 -2.173575e+03 -1.689421e+03 -2.192750e+03 -1.779185e+03 -2.232557e+03 -1.902426e+03 -2.286807e+03 -2.051796e+03 -2.346859e+03 -2.216942e+03 -2.403947e+03 -2.386736e+03 -2.450627e+03 -2.550828e+03 -2.481469e+03 -2.700489e+03 -2.493291e+03 -2.828948e+03 -2.485090e+03 -2.931288e+03 -2.457582e+03 -3.003924e+03 -2.412407e+03 -3.043911e+03 -2.351425e+03 -3.048614e+03 -2.276698e+03 -3.016030e+03 -2.191109e+03 -2.945541e+03 -2.099024e+03 -2.838618e+03 -2.006474e+03 -2.699300e+03 -1.920844e+03 -2.534502e+03 -1.850192e+03 
-6.870741e+02 2.692336e+02 -3.030699e+02 4.334562e+02 5.895909e+01 5.287708e+02 3.650676e+02 5.424211e+02 5.861050e+02 4.743318e+02 7.075403e+02 3.396615e+02 7.339426e+02 1.638124e+02 6.863982e+02 -2.714166e+01 5.926591e+02 -2.136794e+02 4.769621e+02 -3.858412e+02 3.541101e+02 -5.420665e+02 2.278052e+02 -6.856755e+02 9.232728e+01 -8.214985e+02 -6.349836e+01 -9.536105e+02 -2.504319e+02 -1.083434e+03 -4.718385e+02 -1.209545e+03 -7.223088e+02 -1.328206e+03 -9.900720e+02 -1.434159e+03 -1.260546e+03 -1.521471e+03 -1.519258e+03 -1.584327e+03 -1.753535e+03 -1.617745e+03 -1.953203e+03 -1.618210e+03 -2.110708e+03 -1.584033e+03 -2.220816e+03 -1.515164e+03 -2.279821e+03 -1.412334e+03 -2.284438e+03 -1.276131e+03 -2.231203e+03 -1.107171e+03 -2.116989e+03 -9.073962e+02 -1.940149e+03 -6.813618e+02 -1.701615e+03 -4.370212e+02 -1.405927e+03 -1.861196e+02 -1.062485e+03 5.568408e+01 
-2.584669e+03 -1.915388e+03 -2.391566e+03 -1.920262e+03 -2.215041e+03 -1.970414e+03 -2.075068e+03 -2.065141e+03 -1.987851e+03 -2.196194e+03 -1.959814e+03 -2.347133e+03 -1.980612e+03 -2.493586e+03 -2.023254e+03 -2.606452e+03 -2.056632e+03 -2.662528e+03 -2.060097e+03 -2.655176e+03 -2.030692e+03 -2.597530e+03 -1.981654e+03 -2.516217e+03 -1.934410e+03 -2.440080e+03 -1.910424e+03 -2.390758e+03 -1.926361e+03 -2.378494e+03 -1.990904e+03 -2.401130e+03 -2.101889e+03 -2.448263e+03 -2.248731e+03 -2.506556e+03 -2.417099e+03 -2.563524e+03 -2.592614e+03 -2.609301e+03 -2.762794e+03 -2.637152e+03 -2.917829e+03 -2.643530e+03 -3.050802e+03 -2.628007e+03 -3.157458e+03 -2.592617e+03 -3.235165e+03 -2.540244e+03 -3.281338e+03 -2.473047e+03 -3.292647e+03 -2.392451e+03 -3.265659e+03 -2.300712e+03 -3.198346e+03 -2.202416e+03 -3.091215e+03 -2.104831e+03 -2.947830e+03 -2.017379e+03 -2.775263e+03 -1.950705e+03 
-5.126948e+02 7.153604e+02 -3.643387e+01 9.338239e+02 4.188129e+02 1.059183e+03 8.003939e+02 1.067914e+03 1.059774e+03 9.577285e+02 1.174490e+03 7.558645e+02 1.156511e+03 5.084719e+02 1.048227e+03 2.591223e+02 9.003359e+02 3.647805e+01 7.521539e+02 -1.496337e+02 6.233467e+02 -3.041465e+02 5.134956e+02 -4.386236e+02 4.062863e+02 -5.652141e+02 2.759145e+02 -6.941984e+02 9.670281e+01 -8.297045e+02 -1.396076e+02 -9.703792e+02 -4.243474e+02 -1.110730e+03 -7.387101e+02 -1.242731e+03 -1.060906e+03 -1.357325e+03 -1.370885e+03 -1.445634e+03 -1.652295e+03 -1.500019e+03 -1.892848e+03 -1.515108e+03 -2.084209e+03 -1.488611e+03 -2.221592e+03 -1.421134e+03 -2.302378e+03 -1.314250e+03 -2.323535e+03 -1.167806e+03 -2.280021e+03 -9.800755e+02 -2.165999e+03 -7.507759e+02 -1.977114e+03 -4.834514e+02 -1.711909e+03 -1.864618e+02 -1.372768e+03 1.265158e+02 -9.675867e+02 4.358162e+02 
-2.820200e+03 -1.990566e+03 -2.598158e+03 -2.014133e+03 -2.396544e+03 -2.101379e+03 -2.245992e+03 -2.253242e+03 -2.174297e+03 -2.459686e+03 -2.196981e+03 -2.698371e+03 -2.297774e+03 -2.931840e+03 -2.423068e+03 -3.107118e+03 -2.511348e+03 -3.179468e+03 -2.524906e+03 -3.136358e+03 -2.462208e+03 -3.004288e+03 -2.352239e+03 -2.834515e+03 -2.235373e+03 -2.678928e+03 -2.147983e+03 -2.572665e+03 -2.117533e+03 -2.531065e+03 -2.159625e+03 -2.546719e+03 -2.269124e+03 -2.599838e+03 -2.427486e+03 -2.668677e+03 -2.612886e+03 -2.735260e+03 -2.805921e+03 -2.786800e+03 -2.991336e+03 -2.815172e+03 -3.158088e+03 -2.816544e+03 -3.299405e+03 -2.791709e+03 -3.412762e+03 -2.745594e+03 -3.498065e+03 -2.683870e+03 -3.553863e+03 -2.609037e+03 -3.575446e+03 -2.520405e+03 -3.556392e+03 -2.418115e+03 -3.492117e+03 -2.306593e+03 -3.381600e+03 -2.194808e+03 -3.227455e+03 -2.095118e+03 -3.036313e+03 -2.022011e+03 
-3.628125e+02 1.219921e+03 2.477757e+02 1.524329e+03 8.486505e+02 1.702655e+03 1.353969e+03 1.708150e+03 1.673368e+03 1.528488e+03 1.767832e+03 1.213600e+03 1.661457e+03 8.514646e+02 1.440544e+03 5.152380e+02 1.198904e+03 2.465237e+02 9.997839e+02 5.104836e+01 8.672622e+02 -9.048889e+01 7.917942e+02 -2.036996e+02 7.395220e+02 -3.102710e+02 6.600484e+02 -4.310494e+02 4.961429e+02 -5.727255e+02 2.359108e+02 -7.329969e+02 -1.016948e+02 -9.029730e+02 -4.838430e+02 -1.070167e+03 -8.770817e+02 -1.221038e+03 -1.253980e+03 -1.342537e+03 -1.594177e+03 -1.423348e+03 -1.883378e+03 -1.455451e+03 -2.112893e+03 -1.436121e+03 -2.279831e+03 -1.368515e+03 -2.385304e+03 -1.257652e+03 -2.428145e+03 -1.102558e+03 -2.400436e+03 -8.963093e+02 -2.291262e+03 -6.340364e+02 -2.092113e+03 -3.172422e+02 -1.798194e+03 4.587384e+01 -1.408064e+03 4.404299e+02 -9.251744e+02 8.431930e+02 
-3.066694e+03 -2.015332e+03 -2.789886e+03 -2.049388e+03 -2.532583e+03 -2.172919e+03 -2.343437e+03 -2.391334e+03 -2.272222e+03 -2.695029e+03 -2.363225e+03 -3.059518e+03 -2.598876e+03 -3.433800e+03 -2.869598e+03 -3.716479e+03 -3.051096e+03 -3.817176e+03 -3.074919e+03 -3.710979e+03 -2.947967e+03 -3.452332e+03 -2.735112e+03 -3.141810e+03 -2.511303e+03 -2.872095e+03 -2.333169e+03 -2.694084e+03 -2.242162e+03 -2.630204e+03 -2.268101e+03 -2.657909e+03 -2.394643e+03 -2.738105e+03 -2.585482e+03 -2.835075e+03 -2.806160e+03 -2.923915e+03 -3.030874e+03 -2.989367e+03 -3.241618e+03 -3.022234e+03 -3.426058e+03 -3.018021e+03 -3.577608e+03 -2.979209e+03 -3.697364e+03 -2.916956e+03 -3.791624e+03 -2.843427e+03 -3.861988e+03 -2.761542e+03 -3.900665e+03 -2.664738e+03 -3.894583e+03 -2.547620e+03 -3.834814e+03 -2.414154e+03 -3.718764e+03 -2.276108e+03 -3.547754e+03 -2.150034e+03 -3.326658e+03 -2.055805e+03 
-2.676497e+02 1.791252e+03 5.340194e+02 2.234541e+03 1.365338e+03 2.511069e+03 2.084467e+03 2.524339e+03 2.502361e+03 2.225632e+03 2.549932e+03 1.711295e+03 2.266531e+03 1.162369e+03 1.837067e+03 6.981828e+02 1.437084e+03 3.773412e+02 1.165675e+03 1.908841e+02 1.042480e+03 8.700926e+01 1.037931e+03 1.606344e+01 1.092270e+03 -4.922919e+01 1.119533e+03 -1.531053e+02 9.812916e+02 -3.012932e+02 6.780667e+02 -4.890566e+02 2.559491e+02 -7.009217e+02 -2.257736e+02 -9.169938e+02 -7.160626e+02 -1.117406e+03 -1.179254e+03 -1.283657e+03 -1.591848e+03 -1.399269e+03 -1.937823e+03 -1.451620e+03 -2.207845e+03 -1.436872e+03 -2.402817e+03 -1.364612e+03 -2.533956e+03 -1.250608e+03 -2.606467e+03 -1.093171e+03 -2.605706e+03 -8.728658e+02 -2.510131e+03 -5.759742e+02 -2.305768e+03 -2.015945e+02 -1.984932e+03 2.422965e+02 -1.540877e+03 7.413572e+02 -9.677304e+02 1.271490e+03 
-3.340158e+03 -1.974871e+03 -2.974378e+03 -2.006200e+03 -2.613548e+03 -2.161822e+03 -2.334890e+03 -2.454385e+03 -2.219850e+03 -2.877086e+03 -2.398819e+03 -3.419732e+03 -2.879563e+03 -4.037850e+03 -3.422679e+03 -4.518493e+03 -3.768840e+03 -4.671419e+03 -3.792222e+03 -4.446434e+03 -3.531825e+03 -3.959001e+03 -3.138877e+03 -3.414350e+03 -2.750320e+03 -2.981438e+03 -2.440439e+03 -2.711198e+03 -2.263213e+03 -2.646064e+03 -2.291461e+03 -2.722699e+03 -2.470047e+03 -2.864152e+03 -2.725252e+03 -3.013425e+03 -3.004725e+03 -3.139706e+03 -3.277536e+03 -3.228656e+03 -3.524934e+03 -3.271201e+03 -3.732946e+03 -3.259847e+03 -3.893058e+03 -3.197014e+03 -4.012587e+03 -3.107704e+03 -4.114211e+03 -3.019679e+03 -4.207175e+03 -2.936470e+03 -4.276346e+03 -2.836297e+03 -4.292436e+03 -2.700068e+03 -4.239946e+03 -2.532801e+03 -4.117303e+03 -2.352119e+03 -3.925158e+03 -2.180280e+03 -3.664083e+03 -2.043874e+03 
-2.872400e+02 2.427444e+03 7.735612e+02 3.097925e+03 1.972612e+03 3.565130e+03 3.093329e+03 3.631382e+03 3.681864e+03 3.120158e+03 3.638943e+03 2.231053e+03 2.992621e+03 1.377746e+03 2.175113e+03 7.277443e+02 1.510314e+03 3.629191e+02 1.155026e+03 2.355380e+02 1.078230e+03 2.175853e+02 1.208200e+03 2.135785e+02 1.456950e+03 2.324477e+02 1.722778e+03 1.560715e+02 1.606984e+03 1.141502e+00 1.216497e+03 -2.277049e+02 6.550259e+02 -5.009724e+02 2.704335e+01 -7.860396e+02 -5.933489e+02 -1.054818e+03 -1.165370e+03 -1.282878e+03 -1.666359e+03 -1.447103e+03 -2.078776e+03 -1.525460e+03 -2.388686e+03 -1.508088e+03 -2.600883e+03 -1.418160e+03 -2.752737e+03 -1.302539e+03 -2.868765e+03 -1.159329e+03 -2.915762e+03 -9.366861e+02 -2.847050e+03 -6.047818e+02 -2.644588e+03 -1.642481e+02 -2.303486e+03 3.747049e+02 -1.811955e+03 1.001790e+03 -1.147814e+03 1.699785e+03 
-3.675312e+03 -1.852709e+03 -3.181782e+03 -1.862869e+03 -2.646363e+03 -2.044966e+03 -2.192125e+03 -2.413729e+03 -1.899180e+03 -2.952009e+03 -2.161826e+03 -3.722775e+03 -3.119674e+03 -4.800427e+03 -4.202183e+03 -5.668239e+03 -4.854396e+03 -5.921103e+03 -4.824128e+03 -5.461018e+03 -4.267533e+03 -4.535925e+03 -3.555933e+03 -3.586545e+03 -2.929187e+03 -2.945415e+03 -2.434014e+03 -2.547673e+03 -2.112277e+03 -2.537787e+03 -2.199720e+03 -2.734235e+03 -2.496517e+03 -2.990666e+03 -2.861237e+03 -3.221808e+03 -3.226103e+03 -3.400220e+03 -3.564065e+03 -3.523266e+03 -3.862210e+03 -3.585441e+03 -4.103351e+03 -3.567885e+03 -4.265902e+03 -3.460276e+03 -4.364320e+03 -3.322324e+03 -4.465842e+03 -3.217254e+03 -4.594969e+03 -3.149300e+03 -4.722069e+03 -3.061431e+03 -4.774158e+03 -2.898488e+03 -4.728831e+03 -2.678055e+03 -4.597911e+03 -2.431876e+03 -4.384288e+03 -2.188351e+03 -4.079280e+03 -1.979791e+03 
-5.326980e+02 3.095953e+03 8.374671e+02 4.134520e+03 2.601171e+03 4.978726e+03 4.561037e+03 5.261086e+03 5.449248e+03 4.353988e+03 5.277917e+03 2.698366e+03 3.855346e+03 1.370085e+03 2.313249e+03 4.516139e+02 1.189476e+03 8.864023e+01 8.108960e+02 1.461311e+02 8.750915e+02 3.119400e+02 1.227973e+03 3.588046e+02 1.773440e+03 5.654388e+02 2.643468e+03 5.159614e+02 2.448378e+03 3.594738e+02 1.877799e+03 6.349192e+01 1.087438e+03 -3.026695e+02 2.501481e+02 -6.849091e+02 -5.368691e+02 -1.046689e+03 -1.240793e+03 -1.361159e+03 -1.850783e+03 -1.600069e+03 -2.348350e+03 -1.721132e+03 -2.698496e+03 -1.687246e+03 -2.897760e+03 -1.547780e+03 -3.051811e+03 -1.432463e+03 -3.236433e+03 -1.340466e+03 -3.370329e+03 -1.136805e+03 -3.340909e+03 -7.632529e+02 -3.140786e+03 -2.428441e+02 -2.788951e+03 4.024984e+02 -2.272223e+03 1.173705e+03 -1.543589e+03 2.077838e+03 
-4.135887e+03 -1.630057e+03 -3.494792e+03 -1.600154e+03 -2.703619e+03 -1.827633e+03 -1.976941e+03 -2.298930e+03 -1.086929e+03 -2.812946e+03 -1.304024e+03 -3.772777e+03 -3.249460e+03 -5.815669e+03 -5.464475e+03 -7.474116e+03 -6.733578e+03 -7.917851e+03 -6.448814e+03 -6.975208e+03 -5.179919e+03 -5.163083e+03 -3.915432e+03 -3.477876e+03 -3.027073e+03 -2.706507e+03 -2.295923e+03 -2.062984e+03 -1.658853e+03 -2.257832e+03 -1.982501e+03 -2.705821e+03 -2.505460e+03 -3.156267e+03 -3.029378e+03 -3.494785e+03 -3.499544e+03 -3.729852e+03 -3.915587e+03 -3.897340e+03 -4.286888e+03 -4.006189e+03 -4.592132e+03 -4.004685e+03 -4.753667e+03 -3.809964e+03 -4.780484e+03 -3.591286e+03 -4.872891e+03 -3.468754e+03 -5.051710e+03 -3.443888e+03 -5.292661e+03 -3.406686e+03 -5.391596e+03 -3.187721e+03 -5.331870e+03 -2.874288e+03 -5.183954e+03 -2.530686e+03 -4.955972e+03 -2.183911e+03 -4.617992e+03 -1.861744e+03 
-1.185135e+03 3.688007e+03 4.265879e+02 5.288695e+03 2.880827e+03 6.850407e+03 6.749282e+03 7.890349e+03 8.165606e+03 6.245521e+03 7.999307e+03 2.840341e+03 4.823522e+03 9.230334e+02 1.950301e+03 -4.365179e+02 -2.670949e+01 -6.645291e+02 -1.086378e+02 -9.305619e+01 3.501055e+02 4.985536e+02 1.000138e+03 3.111423e+02 1.653271e+03 1.017315e+03 4.339749e+03 9.352796e+02 3.526213e+03 8.100829e+02 2.655302e+03 3.905022e+02 1.511356e+03 -1.158649e+02 3.939265e+02 -6.299214e+02 -5.876079e+02 -1.110539e+03 -1.439885e+03 -1.544191e+03 -2.190397e+03 -1.914108e+03 -2.830056e+03 -2.139387e+03 -3.248417e+03 -2.078727e+03 -3.371710e+03 -1.811512e+03 -3.471879e+03 -1.698926e+03 -3.779736e+03 -1.741801e+03 -4.071137e+03 -1.577662e+03 -4.063868e+03 -1.115547e+03 -3.827234e+03 -4.789220e+02 -3.467901e+03 2.771829e+02 -2.971007e+03 1.183403e+03 -2.253487e+03 2.303342e+03 
-4.810725e+03 -1.278132e+03 -4.091955e+03 -1.200233e+03 -3.121497e+03 -1.593296e+03 -2.320482e+03 -2.708496e+03 5.959921e+02 -2.253156e+03 9.852671e+02 -3.014367e+03 -3.089489e+03 -7.248991e+03 -7.765583e+03 -1.059506e+04 -1.031190e+04 -1.138852e+04 -9.225058e+03 -9.388740e+03 -6.112235e+03 -5.700521e+03 -3.923527e+03 -2.627128e+03 -3.232469e+03 -2.458576e+03 -2.176935e+03 -9.172493e+02 -7.507530e+02 -1.772168e+03 -1.756161e+03 -2.705697e+03 -2.587687e+03 -3.453393e+03 -3.290923e+03 -3.888064e+03 -3.858670e+03 -4.150414e+03 -4.350406e+03 -4.367240e+03 -4.837484e+03 -4.601853e+03 -5.324252e+03 -4.736833e+03 -5.512208e+03 -4.341470e+03 -5.326967e+03 -3.984375e+03 -5.413710e+03 -3.848608e+03 -5.639384e+03 -3.924404e+03 -6.137481e+03 -4.048775e+03 -6.262809e+03 -3.645778e+03 -6.079597e+03 -3.144669e+03 -5.886015e+03 -2.664387e+03 -5.666675e+03 -2.186375e+03 -5.334570e+03 -1.697630e+03 
-2.466946e+03 3.933949e+03 -1.031609e+03 6.192464e+03 1.417053e+03 8.984655e+03 8.515387e+03 1.207861e+04 1.196975e+04 9.586381e+03 1.266469e+04 1.528540e+03 5.582486e+03 -1.566309e+02 6.048366e+02 -2.550885e+03 -3.341223e+03 -2.317934e+03 -1.818156e+03 -4.344288e+02 -3.846139e+02 1.352138e+03 6.579637e+02 -5.747608e+02 -1.869569e+03 1.649507e+03 7.167350e+03 1.533559e+03 4.471831e+03 1.312908e+03 3.461744e+03 7.261077e+02 1.832176e+03 2.825045e+01 3.790272e+02 -6.497882e+02 -7.915185e+02 -1.258402e+03 -1.783079e+03 -1.843405e+03 -2.724985e+03 -2.477606e+03 -3.705627e+03 -3.036859e+03 -4.350679e+03 -2.987394e+03 -4.201852e+03 -2.220684e+03 -3.961809e+03 -2.111252e+03 -4.665771e+03 -2.664870e+03 -5.310143e+03 -2.518413e+03 -5.174285e+03 -1.753544e+03 -4.715188e+03 -8.903662e+02 -4.327459e+03 -3.486783e+01 -3.925171e+03 9.406920e+02 -3.360488e+03 2.201800e+03 
-5.766188e+03 -7.433213e+02 -5.129878e+03 -7.958611e+02 -5.484790e+03 -7.244515e+02 -8.441209e+03 -9.846037e+03 2.731733e+03 -6.481475e+02 5.589100e+03 -1.888325e+03 -2.655477e+03 -9.741618e+03 -1.246502e+04 -1.641401e+04 -1.771117e+04 -1.775081e+04 -1.458687e+04 -1.369192e+04 -6.258960e+03 -5.695106e+03 -2.349210e+03 -1.733123e+03 -6.382399e+03 -3.942284e+03 -2.779972e+03 2.772058e+03 -7.776687e+02 -1.189049e+03 -1.866799e+03 -3.032161e+03 -2.845999e+03 -4.090924e+03 -3.710297e+03 -4.473723e+03 -4.317157e+03 -4.653199e+03 -4.839910e+03 -4.894147e+03 -5.513411e+03 -5.493400e+03 -6.640697e+03 -6.261739e+03 -6.752458e+03 -4.025392e+03 -3.407239e+03 -7.098540e+02 -1.837951e+03 -5.603490e+02 -3.736566e+03 -3.569222e+03 -7.453015e+03 -5.506902e+03 -7.714846e+03 -4.409947e+03 -6.956887e+03 -3.465774e+03 -6.661890e+03 -2.830838e+03 -6.517515e+03 -2.228693e+03 -6.277053e+03 -1.522436e+03 
-4.384803e+03 3.422069e+03 -3.832650e+03 6.154281e+03 -6.096464e+03 7.985474e+03 -1.839180e+04 9.019271e+02 1.347564e+04 1.582288e+04 3.672660e+03 -1.313216e+04 3.905102e+03 3.868254e+02 -1.054954e+03 -3.817418e+03 -5.685598e+03 -3.041273e+03 -2.452507e+03 2.777949e+02 -1.793976e+03 3.845128e+03 2.676932e+03 -1.597242e+04 -3.341156e+04 -3.895912e+02 -4.805161e+03 2.863479e+03 3.979363e+03 1.789068e+03 4.101194e+03 1.246339e+03 1.913532e+03 9.197439e+01 9.215931e+01 -7.862456e+02 -1.188220e+03 -1.473789e+03 -2.233256e+03 -2.200209e+03 -3.435975e+03 -3.392024e+03 -4.998667e+03 -3.424066e+03 -2.152638e+03 2.681157e+03 3.137396e+03 5.833499e+03 4.128179e+03 5.936394e+03 2.650297e+03 3.001598e+03 -3.166084e+03 -2.929237e+03 -6.655336e+03 -2.765748e+03 -5.750023e+03 -1.402935e+03 -5.262432e+03 -5.046760e+02 -5.072998e+03 3.808960e+02 -4.850907e+03 1.571507e+03 
-7.315394e+03 -5.196822e+02 -7.562676e+03 -3.308417e+02 -8.458424e+03 -6.437947e+03 -4.965521e+04 -3.255461e+04 -1.078569e+04 1.296013e+04 8.394047e+03 -2.257556e+04 -2.357644e+03 -7.506549e+03 -1.705771e+04 -1.521660e+04 -1.215473e+04 -1.795684e+04 -1.405823e+04 -9.896310e+03 -4.338216e+03 -9.803519e+03 3.343539e+03 -1.648053e+04 -1.371912e+03 -1.844839e+03 -8.389653e+03 1.025221e+04 -3.906902e+03 -1.686900e+03 -2.320837e+03 -5.337392e+03 -3.534885e+03 -5.433706e+03 -4.366502e+03 -5.295793e+03 -4.857890e+03 -5.156369e+03 -5.256225e+03 -5.265714e+03 -5.973726e+03 -6.013934e+03 -6.231218e+03 -2.431628e+03 -1.540898e+02 2.896433e+03 2.239391e+03 3.997965e+03 2.435187e+03 4.144235e+03 1.867894e+03 3.345045e+03 -8.988422e+02 -1.606546e+03 -7.421573e+03 -4.847416e+03 -7.611664e+03 -3.640658e+03 -7.363266e+03 -2.995797e+03 -7.477999e+03 -2.383745e+03 -7.519639e+03 -1.505518e+03 
-6.985345e+03 1.397653e+03 -6.367848e+03 3.049955e+03 -4.974965e+03 1.240398e+04 -1.047750e+04 -2.383558e+04 7.112893e+04 9.075776e+04 3.945014e+04 -1.360821e+04 1.201193e+04 6.263799e+02 -8.432674e+03 -3.864415e+03 -1.539502e+03 -3.477822e+03 -4.407033e+03 1.519124e+04 1.158794e+04 2.993645e+04 5.633716e+04 1.064533e+05 6.054516e+04 5.105815e+04 5.677615e+04 6.412771e+03 1.273393e+04 5.233370e+03 6.777336e+03 1.176226e+03 1.885339e+03 -3.077357e+02 -7.222308e+02 -1.148455e+03 -1.840239e+03 -1.719677e+03 -2.667502e+03 -2.307108e+03 -3.617544e+03 -2.590434e+03 -1.177802e+03 3.248870e+03 2.724867e+03 4.653973e+03 3.170968e+03 5.320666e+03 3.297668e+03 5.416152e+03 2.629024e+03 4.932708e+03 1.637087e+03 3.728636e+03 -2.886839e+03 -2.018629e+03 -6.131696e+03 -1.645908e+03 -6.055445e+03 -1.026125e+03 -6.285197e+03 -5.026186e+02 -6.687588e+03 1.916881e+02 
-8.868610e+03 -2.164099e+02 -6.180857e+03 4.023205e+03 -4.563278e+03 -7.228910e+03 5.693536e+04 1.446715e+04 5.016600e+04 7.817230e+04 2.070145e+04 -5.923349e+03 -1.131273e+04 -1.676789e+04 -1.872282e+04 -1.628383e+04 -1.525230e+04 -1.832356e+04 -2.186424e+04 -1.621705e+04 -1.665852e+04 -2.080386e+04 2.762973e+04 6.097210e+04 3.458567e+04 8.777727e+03 5.281065e+04 -8.525929e+03 4.773788e+03 -1.947960e+04 -3.418846e+03 -9.971655e+03 -4.734720e+03 -7.382913e+03 -5.408407e+03 -6.257421e+03 -5.482529e+03 -5.507851e+03 -5.427298e+03 -5.000981e+03 -5.454880e+03 -3.051306e+03 1.236429e+02 2.745898e+03 1.426558e+03 2.873394e+03 1.652522e+03 3.438873e+03 1.751240e+03 3.593886e+03 1.242856e+03 3.335926e+03 6.035815e+02 3.513100e+03 -1.150158e+03 -1.882925e+03 -7.254287e+03 -3.304946e+03 -7.793069e+03 -3.128939e+03 -8.508306e+03 -2.831078e+03 -9.153498e+03 -1.993269e+03 
-1.139176e+04 -1.996405e+03 -1.090968e+04 2.634894e+03 -1.363045e+04 4.139073e+03 8.286615e+04 1.254935e+02 7.371774e+04 6.507416e+04 9.254934e+03 -1.039664e+04 -1.902620e+04 -7.247722e+03 -9.364228e+03 -1.817503e+03 -4.702115e+03 2.466152e+02 -6.995816e+03 1.919430e+03 -9.844246e+03 5.651226e+03 6.700101e+04 7.917291e+04 9.392114e+04 7.823929e+04 5.444264e+04 -5.729748e+03 5.734892e+03 -3.503696e+02 -5.050214e+03 -4.770262e+02 -4.680794e+03 -1.687559e+03 -3.176607e+03 -1.852419e+03 -2.894422e+03 -2.060579e+03 -3.041606e+03 -2.224648e+03 -2.430343e+03 1.906654e+03 3.286661e+03 4.841118e+03 3.057451e+03 4.716154e+03 2.928707e+03 4.955757e+03 2.782314e+03 5.057904e+03 2.372213e+03 5.015383e+03 1.919781e+03 5.293626e+03 1.534153e+03 2.470682e+03 -4.998539e+03 -1.652281e+03 -6.534715e+03 -1.563740e+03 -7.458559e+03 -1.672768e+03 -8.905547e+03 -2.188283e+03 
-1.443039e+04 -2.808429e+03 -1.437486e+04 1.719288e+04 1.742041e+03 -4.424124e+03 6.467709e+04 1.633073e+05 2.011954e+05 8.646331e+04 2.620960e+03 -5.806428e+04 -3.991129e+04 -2.905137e+04 -1.969422e+04 -1.777306e+04 -1.539403e+04 -1.799000e+04 -2.139740e+04 -2.936280e+04 -4.171160e+04 -5.113155e+04 5.040253e+04 1.640107e+05 1.900612e+05 1.539704e+05 2.844863e+04 -3.034783e+03 -8.333891e+03 -7.882562e+03 -9.031382e+03 -9.701210e+03 -8.353885e+03 -8.486631e+03 -7.178241e+03 -6.989109e+03 -6.258459e+03 -5.701188e+03 -5.667445e+03 -4.989097e+03 -4.150584e+03 1.093473e+03 1.958198e+03 2.941662e+03 1.807359e+03 3.161946e+03 1.760610e+03 3.430068e+03 1.644972e+03 3.579441e+03 1.339813e+03 3.611643e+03 9.598830e+02 3.704797e+03 6.674638e+02 2.194412e+03 -6.002908e+03 -3.449355e+03 -8.185215e+03 -3.514181e+03 -9.650625e+03 -3.779870e+03 -1.177528e+04 -3.808724e+03 
-1.430208e+04 -1.002195e+04 -1.910169e+04 -1.381839e+04 -7.371164e+04 1.052499e+03 4.576467e+04 7.868032e+04 1.978300e+05 1.185935e+05 2.038191e+03 -2.789247e+04 -2.050165e+04 -1.136094e+04 -7.967139e+03 -2.641738e+03 -4.861984e+03 -1.060121e+03 -6.899566e+03 -6.610967e+03 -1.747077e+04 -5.536870e+03 5.315414e+04 1.211072e+05 1.599784e+05 6.664703e+04 2.940636e+04 -5.466296e+04 -7.002592e+04 -1.780085e+04 -2.140565e+04 -6.350620e+03 -8.312510e+03 -4.212525e+03 -4.873697e+03 -3.298295e+03 -3.786531e+03 -2.707792e+03 -3.484340e+03 -2.305277e+03 -1.514166e+03 3.431124e+03 3.113599e+03 4.367771e+03 2.895149e+03 4.557250e+03 2.735220e+03 4.724627e+03 2.514745e+03 4.837142e+03 2.197980e+03 4.884579e+03 1.791009e+03 4.868711e+03 1.374754e+03 4.068751e+03 -4.001084e+03 -1.658461e+03 -6.953169e+03 -2.188443e+03 -8.407401e+03 -3.395053e+03 -1.088031e+04 -5.906202e+03 
-2.165496e+04 -1.874242e+04 -3.806595e+04 -6.330159e+04 -8.482153e+04 -1.690521e+03 -8.673988e+04 -4.955911e+04 1.427032e+05 8.834413e+04 9.296986e+03 -4.083826e+04 -5.421726e+03 -1.915559e+04 -5.255167e+03 -1.013089e+04 -5.382689e+03 -7.215128e+03 -4.908757e+03 -6.524208e+03 3.114200e+02 2.985519e+03 2.322978e+04 7.828286e+04 8.829538e+04 3.302937e+04 3.295878e+04 -8.082819e+04 -5.215792e+04 -2.468484e+04 -2.559257e+04 -1.738767e+04 -1.209222e+04 -1.034578e+04 -8.648417e+03 -7.213009e+03 -6.874764e+03 -5.436530e+03 -5.660829e+03 -4.573999e+03 -2.486282e+03 2.211988e+03 1.637783e+03 2.851448e+03 1.817330e+03 3.265312e+03 1.854285e+03 3.513106e+03 1.713533e+03 3.650259e+03 1.440403e+03 3.676181e+03 9.904737e+02 3.538754e+03 3.728192e+02 3.182931e+03 -4.313384e+03 -3.348477e+03 -8.124029e+03 -3.855066e+03 -1.036249e+04 -5.649893e+03 -1.406681e+04 -9.489901e+03 
-1.932133e+04 -1.977195e+04 -3.172591e+04 -2.895021e+04 -1.166385e+05 -6.187032e+03 6.377832e+04 -2.634479e+04 -4.667005e+03 2.431977e+04 -1.982199e+03 -2.049432e+04 -7.813821e+02 -3.804978e+03 -1.078586e+02 1.540978e+03 -1.661727e+02 3.746695e+03 6.743111e+02 4.671788e+03 4.669245e+03 5.021643e+03 3.464442e+04 6.461475e+04 -2.517421e+04 -4.498186e+02 1.221490e+05 1.074275e+04 -1.413110e+04 -1.937344e+04 -4.477022e+03 -1.038485e+04 -3.636478e+03 -5.932593e+03 -4.325798e+03 -4.218332e+03 -4.168369e+03 -3.027791e+03 -3.832897e+03 -2.738686e+03 -9.118726e+02 3.653103e+03 2.556739e+03 4.027788e+03 2.601317e+03 4.333544e+03 2.531919e+03 4.521104e+03 2.329809e+03 4.650347e+03 2.044061e+03 4.706078e+03 1.595007e+03 4.615649e+03 9.645474e+02 4.456518e+03 -3.196989e+03 -1.791629e+03 -6.986604e+03 -2.008554e+03 -8.730088e+03 -3.499230e+03 -1.152862e+04 -7.577659e+03 
-1.922412e+04 -9.444763e+03 -4.036685e+04 -1.651423e+04 -7.348206e+04 -7.129305e+04 9.627739e+04 1.342348e+05 1.034329e+05 4.412950e+04 4.531616e+03 -1.424164e+03 7.034805e+03 -8.990303e+01 4.740781e+03 2.179583e+03 2.421390e+03 3.951825e+03 2.459472e+03 8.628982e+03 4.872039e+03 2.498539e+04 1.098907e+04 3.680206e+04 -6.755619e+04 3.399762e+04 9.371788e+04 -3.220354e+04 -4.011556e+04 -3.501067e+04 -1.803327e+04 -1.154860e+04 -1.162414e+04 -8.696460e+03 -8.197052e+03 -6.290223e+03 -6.356983e+03 -4.460597e+03 -5.110758e+03 -3.494613e+03 -1.445106e+03 2.508224e+03 1.624862e+03 2.988986e+03 1.912899e+03 3.401626e+03 1.998701e+03 3.637668e+03 1.865072e+03 3.762294e+03 1.600884e+03 3.774695e+03 1.132047e+03 3.603995e+03 4.377673e+02 3.343508e+03 -3.086613e+03 -2.432864e+03 -7.094155e+03 -3.336606e+03 -8.862207e+03 -5.200295e+03 -1.119292e+04 -7.784422e+03 