# vtk DataFile Version 2.0
Comment goes here
ASCII

DATASET STRUCTURED_POINTS
DIMENSIONS    64   64   1

ORIGIN    0.000   0.000   0.000
SPACING   0.031250.03125   1.000

POINT_DATA   4096
SCALARS P double
LOOKUP_TABLE default

-3.504578e+03 -3.949932e+03 -3.722237e+03 -3.855757e+03 -3.973594e+03 -3.755714e+03 -4.249926e+03 -3.653430e+03 -4.536428e+03 -3.555204e+03 -4.812673e+03 -3.469939e+03 -5.055304e+03 -3.407808e+03 -5.242302e+03 -3.376876e+03 -5.356635e+03 -3.379580e+03 -5.388009e+03 -3.412787e+03 -5.334160e+03 -3.470521e+03 -5.201617e+03 -3.546577e+03 -5.004892e+03 -3.636026e+03 -4.763723e+03 -3.734486e+03 -4.499347e+03 -3.837361e+03 -4.231209e+03 -3.940019e+03 -3.974899e+03 -4.038302e+03 -3.741381e+03 -4.128842e+03 -3.537166e+03 -4.209080e+03 -3.364997e+03 -4.277122e+03 -3.224773e+03 -4.331566e+03 -3.114529e+03 -4.371413e+03 -3.031389e+03 -4.396066e+03 -2.972395e+03 -4.405395e+03 -2.935158e+03 -4.399778e+03 -2.918317e+03 -4.380073e+03 -2.921803e+03 -4.347512e+03 -2.946908e+03 -4.303523e+03 -2.996154e+03 -4.249512e+03 -3.072962e+03 -4.186629e+03 -3.181145e+03 -4.115593e+03 -3.324232e+03 -4.036675e+03 
-3.749586e+03 -4.648153e+03 -3.977693e+03 -4.718704e+03 -4.198224e+03 -4.782674e+03 -4.393556e+03 -4.831371e+03 -4.543846e+03 -4.857809e+03 -4.630511e+03 -4.859296e+03 -4.640574e+03 -4.838514e+03 -4.569910e+03 -4.801325e+03 -4.422488e+03 -4.752657e+03 -4.206656e+03 -4.695114e+03 -3.934982e+03 -4.631511e+03 -3.625977e+03 -4.567530e+03 -3.303539e+03 -4.508931e+03 -2.993717e+03 -4.460125e+03 -2.718873e+03 -4.423407e+03 -2.493845e+03 -4.398784e+03 -2.325239e+03 -4.384474e+03 -2.212784e+03 -4.377765e+03 -2.151523e+03 -4.375817e+03 -2.133971e+03 -4.376180e+03 -2.151868e+03 -4.377050e+03 -2.197432e+03 -4.377367e+03 -2.264150e+03 -4.376855e+03 -2.347222e+03 -4.376033e+03 -2.443692e+03 -4.376172e+03 -2.552371e+03 -4.379169e+03 -2.673590e+03 -4.387366e+03 -2.808844e+03 -4.403295e+03 -2.960297e+03 -4.429340e+03 -3.130085e+03 -4.467258e+03 -3.319388e+03 -4.517601e+03 -3.527295e+03 -4.579096e+03 
-3.636181e+03 -4.213386e+03 -3.921891e+03 -4.160614e+03 -4.244464e+03 -4.100998e+03 -4.591102e+03 -4.034518e+03 -4.941190e+03 -3.964398e+03 -5.267647e+03 -3.898970e+03 -5.541426e+03 -3.852070e+03 -5.737012e+03 -3.836790e+03 -5.834777e+03 -3.856533e+03 -5.819620e+03 -3.904157e+03 -5.684543e+03 -3.967060e+03 -5.437788e+03 -4.033504e+03 -5.104619e+03 -4.096733e+03 -4.721365e+03 -4.154515e+03 -4.326041e+03 -4.207288e+03 -3.950665e+03 -4.256414e+03 -3.617226e+03 -4.302972e+03 -3.337368e+03 -4.347194e+03 -3.114298e+03 -4.388419e+03 -2.945396e+03 -4.425313e+03 -2.824681e+03 -4.456177e+03 -2.744787e+03 -4.479290e+03 -2.698429e+03 -4.493228e+03 -2.679418e+03 -4.497135e+03 -2.683289e+03 -4.490881e+03 -2.707638e+03 -4.475082e+03 -2.752236e+03 -4.450995e+03 -2.818959e+03 -4.420305e+03 -2.911456e+03 -4.384798e+03 -3.034578e+03 -4.345978e+03 -3.193600e+03 -4.304687e+03 -3.393202e+03 -4.260842e+03 
-3.578296e+03 -4.415919e+03 -3.832867e+03 -4.454157e+03 -4.085420e+03 -4.490670e+03 -4.314744e+03 -4.519483e+03 -4.494661e+03 -4.537323e+03 -4.598048e+03 -4.546513e+03 -4.603798e+03 -4.555847e+03 -4.505471e+03 -4.575716e+03 -4.312262e+03 -4.608760e+03 -4.036795e+03 -4.646587e+03 -3.693531e+03 -4.678356e+03 -3.305450e+03 -4.701687e+03 -2.904149e+03 -4.714768e+03 -2.526570e+03 -4.718008e+03 -2.203272e+03 -4.713325e+03 -1.952429e+03 -4.702653e+03 -1.779804e+03 -4.687164e+03 -1.681582e+03 -4.667361e+03 -1.647985e+03 -4.643482e+03 -1.666517e+03 -4.615779e+03 -1.724399e+03 -4.584614e+03 -1.810164e+03 -4.550510e+03 -1.914580e+03 -4.514249e+03 -2.031055e+03 -4.477001e+03 -2.155678e+03 -4.440396e+03 -2.286997e+03 -4.406472e+03 -2.425655e+03 -4.377553e+03 -2.573992e+03 -4.356110e+03 -2.735569e+03 -4.344521e+03 -2.914449e+03 -4.344679e+03 -3.114138e+03 -4.357446e+03 -3.336154e+03 -4.382099e+03 
-3.725817e+03 -4.482863e+03 -4.085743e+03 -4.473401e+03 -4.492736e+03 -4.454812e+03 -4.930759e+03 -4.421574e+03 -5.371964e+03 -4.371846e+03 -5.778095e+03 -4.313034e+03 -6.108985e+03 -4.268678e+03 -6.333095e+03 -4.265438e+03 -6.429084e+03 -4.308563e+03 -6.373551e+03 -4.382139e+03 -6.148216e+03 -4.460989e+03 -5.761626e+03 -4.523869e+03 -5.255658e+03 -4.562727e+03 -4.692449e+03 -4.579283e+03 -4.134303e+03 -4.580654e+03 -3.629692e+03 -4.575326e+03 -3.207301e+03 -4.570085e+03 -2.877626e+03 -4.568771e+03 -2.638047e+03 -4.572400e+03 -2.478194e+03 -4.579897e+03 -2.384242e+03 -4.588950e+03 -2.341940e+03 -4.596799e+03 -2.338556e+03 -4.600925e+03 -2.364011e+03 -4.599586e+03 -2.411417e+03 -4.592120e+03 -2.477196e+03 -4.578996e+03 -2.561039e+03 -4.561710e+03 -2.665728e+03 -4.542522e+03 -2.796610e+03 -4.523988e+03 -2.960765e+03 -4.508343e+03 -3.165972e+03 -4.496849e+03 -3.419376e+03 -4.489161e+03 
-3.394723e+03 -4.180206e+03 -3.690178e+03 -4.192588e+03 -3.996160e+03 -4.208032e+03 -4.286144e+03 -4.220705e+03 -4.523527e+03 -4.228167e+03 -4.665568e+03 -4.236784e+03 -4.674162e+03 -4.265972e+03 -4.539110e+03 -4.339527e+03 -4.286669e+03 -4.461023e+03 -3.935698e+03 -4.603370e+03 -3.496650e+03 -4.732236e+03 -2.997286e+03 -4.845073e+03 -2.480377e+03 -4.930364e+03 -2.005009e+03 -4.984588e+03 -1.615519e+03 -5.010462e+03 -1.333327e+03 -5.012627e+03 -1.160549e+03 -4.995280e+03 -1.086296e+03 -4.961903e+03 -1.092805e+03 -4.915641e+03 -1.160174e+03 -4.859382e+03 -1.269510e+03 -4.795607e+03 -1.404737e+03 -4.726305e+03 -1.553474e+03 -4.653158e+03 -1.707293e+03 -4.577899e+03 -1.861556e+03 -4.502555e+03 -2.014902e+03 -4.429412e+03 -2.168673e+03 -4.360917e+03 -2.326525e+03 -4.299713e+03 -2.494128e+03 -4.248586e+03 -2.678527e+03 -4.210115e+03 -2.886978e+03 -4.186059e+03 -3.125167e+03 -4.176683e+03 
-3.763125e+03 -4.757006e+03 -4.204486e+03 -4.797191e+03 -4.712934e+03 -4.825753e+03 -5.271102e+03 -4.828259e+03 -5.842213e+03 -4.792142e+03 -6.368336e+03 -4.717570e+03 -6.788200e+03 -4.650443e+03 -7.062672e+03 -4.654043e+03 -7.179493e+03 -4.735158e+03 -7.100068e+03 -4.857999e+03 -6.774922e+03 -4.972540e+03 -6.207083e+03 -5.038843e+03 -5.466931e+03 -5.051036e+03 -4.661903e+03 -5.018898e+03 -3.892489e+03 -4.960337e+03 -3.229526e+03 -4.893932e+03 -2.706957e+03 -4.833272e+03 -2.329314e+03 -4.785574e+03 -2.082989e+03 -4.752780e+03 -1.945621e+03 -4.733254e+03 -1.892500e+03 -4.723306e+03 -1.900481e+03 -4.718468e+03 -1.950176e+03 -4.714593e+03 -2.027028e+03 -4.708747e+03 -2.121566e+03 -4.699684e+03 -2.229100e+03 -4.687833e+03 -2.349408e+03 -4.675182e+03 -2.486706e+03 -4.665040e+03 -2.648860e+03 -4.661338e+03 -2.846262e+03 -4.667699e+03 -3.090572e+03 -4.686426e+03 -3.393174e+03 -4.717410e+03 
-3.185335e+03 -3.937218e+03 -3.536759e+03 -3.929911e+03 -3.922849e+03 -3.930604e+03 -4.310874e+03 -3.930210e+03 -4.649644e+03 -3.921885e+03 -4.869846e+03 -3.911557e+03 -4.893027e+03 -3.937235e+03 -4.695451e+03 -4.059436e+03 -4.363093e+03 -4.292654e+03 -3.923231e+03 -4.570156e+03 -3.358713e+03 -4.798333e+03 -2.704313e+03 -5.013699e+03 -2.013970e+03 -5.177136e+03 -1.397930e+03 -5.281350e+03 -9.215456e+02 -5.333706e+03 -6.059766e+02 -5.344261e+03 -4.436909e+02 -5.321007e+03 -4.108846e+02 -5.270373e+03 -4.772185e+02 -5.198463e+03 -6.122650e+02 -5.110979e+03 -7.891668e+02 -5.012548e+03 -9.863128e+02 -4.906387e+03 -1.187865e+03 -4.794685e+03 -1.383722e+03 -4.679470e+03 -1.569045e+03 -4.563190e+03 -1.743157e+03 -4.448450e+03 -1.908452e+03 -4.337779e+03 -2.070187e+03 -4.234053e+03 -2.236780e+03 -4.140855e+03 -2.419410e+03 -4.062087e+03 -2.630816e+03 -4.001089e+03 -2.883280e+03 -3.959672e+03 
-3.730575e+03 -5.033765e+03 -4.259514e+03 -5.136389e+03 -4.889147e+03 -5.227308e+03 -5.606112e+03 -5.278654e+03 -6.365386e+03 -5.255790e+03 -7.071806e+03 -5.121752e+03 -7.620093e+03 -4.972771e+03 -7.959815e+03 -4.976880e+03 -8.134683e+03 -5.128899e+03 -8.075809e+03 -5.346984e+03 -7.645785e+03 -5.534595e+03 -6.829232e+03 -5.609072e+03 -5.749997e+03 -5.584291e+03 -4.603213e+03 -5.484611e+03 -3.551189e+03 -5.347247e+03 -2.694445e+03 -5.206432e+03 -2.065293e+03 -5.083480e+03 -1.651669e+03 -4.987675e+03 -1.419861e+03 -4.920185e+03 -1.329105e+03 -4.877357e+03 -1.339758e+03 -4.852914e+03 -1.417433e+03 -4.839601e+03 -1.534871e+03 -4.830751e+03 -1.672670e+03 -4.821754e+03 -1.819040e+03 -4.810797e+03 -1.968547e+03 -4.798402e+03 -2.121110e+03 -4.787287e+03 -2.283127e+03 -4.782506e+03 -2.466084e+03 -4.790296e+03 -2.684992e+03 -4.816688e+03 -2.957062e+03 -4.866114e+03 -3.300178e+03 -4.939811e+03 
-2.926855e+03 -3.682301e+03 -3.348122e+03 -3.662816e+03 -3.847129e+03 -3.658012e+03 -4.385953e+03 -3.651706e+03 -4.897434e+03 -3.623422e+03 -5.275917e+03 -3.558482e+03 -5.340864e+03 -3.522336e+03 -4.996704e+03 -3.676904e+03 -4.552689e+03 -4.079690e+03 -4.034160e+03 -4.576033e+03 -3.307456e+03 -4.869451e+03 -2.440619e+03 -5.229636e+03 -1.472022e+03 -5.484260e+03 -6.535461e+02 -5.634240e+03 -6.991269e+01 -5.703284e+03 2.720999e+02 -5.713139e+03 4.011518e+02 -5.676225e+03 3.629938e+02 -5.601243e+03 2.067909e+02 -5.497432e+03 -2.274861e+01 -5.373880e+03 -2.889663e+02 -5.237550e+03 -5.640431e+02 -5.092406e+03 -8.286229e+02 -4.940217e+03 -1.071414e+03 -4.782736e+03 -1.288564e+03 -4.623090e+03 -1.481199e+03 -4.464376e+03 -1.652893e+03 -4.308737e+03 -1.810199e+03 -4.158975e+03 -1.964718e+03 -4.019956e+03 -2.132954e+03 -3.897875e+03 -2.335013e+03 -3.798625e+03 -2.592866e+03 -3.726381e+03 
-3.601005e+03 -5.308724e+03 -4.219309e+03 -5.495758e+03 -4.989554e+03 -5.678558e+03 -5.915090e+03 -5.813548e+03 -6.956540e+03 -5.835410e+03 -7.942249e+03 -5.549952e+03 -8.669733e+03 -5.166335e+03 -9.044107e+03 -5.176194e+03 -9.344040e+03 -5.473075e+03 -9.426147e+03 -5.872952e+03 -8.901060e+03 -6.210673e+03 -7.724048e+03 -6.281641e+03 -6.117857e+03 -6.195850e+03 -4.465737e+03 -5.987919e+03 -3.028261e+03 -5.736687e+03 -1.941212e+03 -5.500703e+03 -1.213230e+03 -5.306753e+03 -7.942777e+02 -5.161893e+03 -6.160773e+02 -5.063356e+03 -6.108856e+02 -5.003442e+03 -7.196206e+02 -4.971743e+03 -8.944790e+02 -4.956688e+03 -1.099372e+03 -4.947602e+03 -1.310073e+03 -4.937406e+03 -1.513630e+03 -4.924192e+03 -1.705108e+03 -4.908801e+03 -1.883597e+03 -4.894543e+03 -2.058836e+03 -4.889309e+03 -2.247409e+03 -4.903077e+03 -2.470311e+03 -4.945778e+03 -2.752037e+03 -5.025664e+03 -3.119751e+03 -5.147370e+03 
-2.582424e+03 -3.410310e+03 -3.080854e+03 -3.389275e+03 -3.730370e+03 -3.393850e+03 -4.491223e+03 -3.399416e+03 -5.286482e+03 -3.370154e+03 -6.001435e+03 -3.189709e+03 -6.211113e+03 -2.938145e+03 -5.419988e+03 -3.068233e+03 -4.827200e+03 -3.775457e+03 -4.343893e+03 -4.751478e+03 -3.395891e+03 -4.864644e+03 -2.255968e+03 -5.540391e+03 -7.820411e+02 -5.901087e+03 3.167817e+02 -6.078040e+03 1.015135e+03 -6.140198e+03 1.357878e+03 -6.133882e+03 1.411085e+03 -6.072036e+03 1.254575e+03 -5.961926e+03 9.643469e+02 -5.816489e+03 6.035326e+02 -5.649781e+03 2.197789e+02 -5.471665e+03 -1.529696e+02 -5.285852e+03 -4.920267e+02 -5.091492e+03 -7.855671e+02 -4.888809e+03 -1.033519e+03 -4.683091e+03 -1.241399e+03 -4.478589e+03 -1.413144e+03 -4.275250e+03 -1.554577e+03 -4.074596e+03 -1.680834e+03 -3.883847e+03 -1.815084e+03 -3.713369e+03 -1.986284e+03 -3.573112e+03 -2.229030e+03 -3.470733e+03 
-3.334120e+03 -5.572819e+03 -4.034980e+03 -5.880042e+03 -4.959745e+03 -6.204800e+03 -6.150099e+03 -6.491737e+03 -7.639558e+03 -6.717219e+03 -9.073751e+03 -6.080863e+03 -1.007959e+04 -5.039197e+03 -1.026672e+04 -5.145566e+03 -1.083128e+04 -5.745362e+03 -1.137927e+04 -6.471101e+03 -1.078955e+04 -7.139339e+03 -9.076400e+03 -7.129620e+03 -6.580481e+03 -6.944712e+03 -4.147714e+03 -6.534876e+03 -2.182306e+03 -6.109987e+03 -8.446086e+02 -5.753428e+03 -5.826731e+01 -5.482067e+03 3.028462e+02 -5.290843e+03 3.617488e+02 -5.168647e+03 2.227858e+02 -5.101769e+03 -3.212564e+01 -5.074257e+03 -3.409589e+02 -5.068220e+03 -6.583204e+02 -5.066186e+03 -9.553022e+02 -5.056826e+03 -1.220478e+03 -5.040588e+03 -1.454437e+03 -5.019344e+03 -1.649520e+03 -4.994712e+03 -1.821579e+03 -4.979621e+03 -1.994423e+03 -4.990074e+03 -2.196020e+03 -5.042011e+03 -2.459225e+03 -5.149920e+03 -2.823513e+03 -5.325325e+03 
-2.098601e+03 -3.118280e+03 -2.662451e+03 -3.114949e+03 -3.499966e+03 -3.150418e+03 -4.572762e+03 -3.186835e+03 -5.804080e+03 -3.292583e+03 -7.238869e+03 -2.918017e+03 -8.099181e+03 -2.034606e+03 -5.703543e+03 -1.950219e+03 -5.016371e+03 -3.247293e+03 -5.068217e+03 -5.644845e+03 -3.741229e+03 -4.349388e+03 -2.310861e+03 -6.123430e+03 2.514400e+02 -6.524212e+03 1.658415e+03 -6.659508e+03 2.435236e+03 -6.658289e+03 2.723079e+03 -6.617005e+03 2.628814e+03 -6.518734e+03 2.280877e+03 -6.358500e+03 1.793791e+03 -6.156942e+03 1.253414e+03 -5.937431e+03 7.172271e+02 -5.714074e+03 2.232977e+02 -5.488392e+03 -2.022380e+02 -5.251334e+03 -5.461644e+02 -4.998291e+03 -8.195207e+02 -4.743376e+03 -1.039336e+03 -4.493949e+03 -1.205513e+03 -4.241101e+03 -1.316011e+03 -3.981861e+03 -1.391467e+03 -3.729324e+03 -1.464171e+03 -3.502166e+03 -1.571815e+03 -3.316750e+03 -1.761687e+03 -3.185694e+03 
-2.869879e+03 -5.809081e+03 -3.633359e+03 -6.301803e+03 -4.723945e+03 -6.859093e+03 -6.234053e+03 -7.401739e+03 -8.547858e+03 -8.422228e+03 -1.060251e+04 -7.007950e+03 -1.238341e+04 -4.150285e+03 -1.136980e+04 -4.770303e+03 -1.252671e+04 -5.928934e+03 -1.442787e+04 -7.198328e+03 -1.378747e+04 -8.655274e+03 -1.134766e+04 -8.349060e+03 -7.141061e+03 -7.968425e+03 -3.434899e+03 -7.098476e+03 -7.685102e+02 -6.418423e+03 7.791527e+02 -5.925627e+03 1.517908e+03 -5.580812e+03 1.704703e+03 -5.353087e+03 1.541295e+03 -5.219983e+03 1.176019e+03 -5.161398e+03 7.119812e+02 -5.155619e+03 2.222544e+02 -5.176207e+03 -2.384379e+02 -5.192967e+03 -6.346074e+02 -5.183960e+03 -9.586316e+02 -5.162432e+03 -1.240968e+03 -5.134786e+03 -1.438845e+03 -5.088192e+03 -1.584767e+03 -5.047574e+03 -1.713264e+03 -5.038952e+03 -1.858937e+03 -5.087022e+03 -2.061458e+03 -5.215578e+03 -2.374054e+03 -5.448659e+03 
-1.410908e+03 -2.813122e+03 -1.982763e+03 -2.893508e+03 -3.042200e+03 -3.038154e+03 -4.592627e+03 -3.097500e+03 -6.651322e+03 -4.031510e+03 -9.128032e+03 -3.324992e+03 -1.335856e+04 -9.014668e+02 -4.546209e+03 1.797868e+02 -4.561003e+03 -2.182559e+03 -6.949142e+03 -9.327107e+03 -4.928891e+03 -1.602495e+03 -3.110979e+03 -7.820379e+03 2.211519e+03 -7.538272e+03 3.527699e+03 -7.413263e+03 4.288808e+03 -7.228738e+03 4.454025e+03 -7.167956e+03 4.102573e+03 -7.030324e+03 3.450476e+03 -6.796519e+03 2.679430e+03 -6.515765e+03 1.900406e+03 -6.230402e+03 1.171825e+03 -5.961001e+03 5.287965e+02 -5.703869e+03 3.293132e+00 -5.426798e+03 -3.781436e+02 -5.108686e+03 -6.605711e+02 -4.801292e+03 -8.935747e+02 -4.518064e+03 -1.055989e+03 -4.216341e+03 -1.114314e+03 -3.883101e+03 -1.107737e+03 -3.550075e+03 -1.084189e+03 -3.252842e+03 -1.086292e+03 -3.017103e+03 -1.165843e+03 -2.862746e+03 
-2.113866e+03 -5.979927e+03 -2.887783e+03 -6.811799e+03 -4.215669e+03 -7.900881e+03 -6.500835e+03 -9.708346e+03 -1.114442e+04 -1.316856e+04 -1.247079e+04 -9.804195e+03 -1.940057e+04 -3.900176e+03 -1.229155e+04 -4.495683e+03 -1.398343e+04 -5.928501e+03 -2.026206e+04 -8.725101e+03 -1.974805e+04 -1.087341e+04 -1.679687e+04 -1.163079e+04 -7.758486e+03 -9.492317e+03 -1.880908e+03 -7.535516e+03 1.615758e+03 -6.571403e+03 3.187180e+03 -5.965212e+03 3.654258e+03 -5.570210e+03 3.466267e+03 -5.325194e+03 2.930329e+03 -5.199480e+03 2.234288e+03 -5.169655e+03 1.486739e+03 -5.211323e+03 7.589361e+02 -5.289028e+03 1.146427e+02 -5.347558e+03 -3.949907e+02 -5.324838e+03 -7.391688e+02 -5.289643e+03 -1.104482e+03 -5.271860e+03 -1.282505e+03 -5.181491e+03 -1.369873e+03 -5.087525e+03 -1.417665e+03 -5.033079e+03 -1.464463e+03 -5.054041e+03 -1.548220e+03 -5.185639e+03 -1.728181e+03 -5.472072e+03 
-4.892313e+02 -2.499193e+03 -9.289432e+02 -2.943918e+03 -2.220346e+03 -3.766729e+03 -4.708226e+03 -4.922639e+03 -1.036467e+04 -8.185697e+03 -1.001680e+04 -6.937312e+03 -3.197506e+04 -6.078702e+03 1.122856e+03 2.505757e+02 -2.300990e+03 -3.687973e+03 -1.384294e+04 -1.864607e+04 -1.102117e+04 3.494214e+03 -6.887340e+03 -1.396292e+04 6.793557e+03 -9.586055e+03 5.310915e+03 -8.025373e+03 6.552880e+03 -7.725911e+03 6.705827e+03 -7.834063e+03 5.893322e+03 -7.641956e+03 4.746533e+03 -7.281687e+03 3.576638e+03 -6.881540e+03 2.498087e+03 -6.512856e+03 1.538725e+03 -6.204068e+03 7.101409e+02 -5.946360e+03 5.623499e+01 -5.644206e+03 -3.119418e+02 -5.205591e+03 -5.609947e+02 -4.847606e+03 -8.265029e+02 -4.578767e+03 -1.015919e+03 -4.228236e+03 -9.791547e+02 -3.781267e+03 -8.440778e+02 -3.331714e+03 -6.864657e+02 -2.943413e+03 -5.422017e+02 -2.650507e+03 -4.482307e+02 -2.482148e+03 
-9.296000e+02 -5.978333e+03 -1.435105e+03 -7.299657e+03 -3.163848e+03 -9.658935e+03 -6.463560e+03 -1.313752e+04 -1.371235e+04 -1.807068e+04 -1.217920e+04 -1.182318e+04 -3.772746e+04 -2.184277e+04 -2.477563e+04 -1.168395e+04 -1.444625e+04 -2.158048e+04 -5.054560e+04 -3.281898e+04 -4.018712e+04 -2.930328e+03 -3.777448e+04 -2.596092e+04 -5.692329e+03 -1.094228e+04 5.410895e+02 -7.837267e+03 5.690777e+03 -6.416291e+03 6.744843e+03 -5.814912e+03 6.480351e+03 -5.423065e+03 5.591543e+03 -5.186334e+03 4.488651e+03 -5.089199e+03 3.351593e+03 -5.111166e+03 2.248926e+03 -5.235115e+03 1.217212e+03 -5.427130e+03 3.263249e+02 -5.590503e+03 -3.494296e+02 -5.477995e+03 -5.060590e+02 -5.396724e+03 -1.121272e+03 -5.487300e+03 -1.232679e+03 -5.295765e+03 -1.210350e+03 -5.093081e+03 -1.131541e+03 -4.949106e+03 -1.035908e+03 -4.905677e+03 -9.372401e+02 -5.002574e+03 -8.685094e+02 -5.310924e+03 
5.482723e+02 -2.116966e+03 4.094088e+02 -2.889817e+03 -8.116119e+01 -4.820547e+03 -2.005075e+03 -5.847438e+03 -1.168979e+04 -7.220479e+03 1.435737e+03 5.310599e+04 3.250877e+04 3.792183e+04 8.127037e+03 5.216815e+03 -9.889520e+03 -1.229487e+04 -4.640101e+04 -3.505854e+04 -3.046693e+04 -6.322973e+03 -3.796051e+04 -1.591613e+04 1.151297e+04 -1.752468e+04 2.489029e+03 -8.007976e+03 1.015728e+04 -8.559525e+03 9.962160e+03 -8.813097e+03 8.033349e+03 -8.415420e+03 6.068039e+03 -7.808415e+03 4.382455e+03 -7.223641e+03 2.974531e+03 -6.750945e+03 1.766507e+03 -6.428022e+03 6.916856e+02 -6.267233e+03 -2.064863e+02 -6.013970e+03 -3.792133e+02 -5.229933e+03 -4.928733e+02 -4.838595e+03 -8.542801e+02 -4.786006e+03 -1.223475e+03 -4.349528e+03 -9.532519e+02 -3.672109e+03 -6.102452e+02 -3.043261e+03 -2.860461e+02 -2.536418e+03 2.803604e+01 -2.172959e+03 3.341577e+02 -1.999976e+03 
4.440907e+02 -5.342838e+03 5.459681e+02 -7.353073e+03 -5.445311e+02 -1.106195e+04 -4.605359e+03 -2.060282e+04 -2.123400e+04 -4.021915e+04 1.470203e+04 6.135744e+04 4.750532e+04 2.140760e+04 -5.592144e+04 -2.841263e+04 -2.141011e+04 2.336722e+04 6.117734e+04 5.284187e+03 -1.894353e+04 -4.276169e+04 -3.873294e+04 -5.151334e+02 1.930183e+03 -3.135632e+04 5.582511e+03 -5.664075e+03 1.316472e+04 -5.803362e+03 1.182318e+04 -5.576168e+03 9.971398e+03 -5.139992e+03 7.938821e+03 -4.925188e+03 6.083428e+03 -4.874884e+03 4.435447e+03 -4.968068e+03 2.939460e+03 -5.219782e+03 1.530004e+03 -5.637732e+03 2.943486e+02 -6.114193e+03 -7.219218e+02 -5.480974e+03 4.103888e+01 -5.257998e+03 -1.354891e+03 -5.962182e+03 -1.396480e+03 -5.479471e+03 -1.159644e+03 -5.049592e+03 -8.854303e+02 -4.755973e+03 -6.216026e+02 -4.603457e+03 -3.101115e+02 -4.589939e+03 6.912181e+01 -4.766030e+03 
2.002809e+03 -1.322241e+03 2.731138e+03 -2.031168e+03 1.662738e+03 -4.776626e+03 -4.018667e+02 -1.303353e+04 -6.687025e+03 -2.134508e+04 7.017446e+04 8.850412e+04 2.051414e+04 -5.154391e+04 -6.480433e+04 2.054582e+04 1.613248e+04 8.872859e+04 1.946223e+05 6.871664e+04 -4.455939e+04 -6.347251e+04 -5.188268e+03 -9.491569e+03 -6.459546e+03 -1.601678e+04 3.266283e+04 -1.406798e+04 2.263908e+04 -1.171009e+04 1.480587e+04 -1.072796e+04 1.018282e+04 -9.415520e+03 7.085336e+03 -8.336047e+03 4.898323e+03 -7.474669e+03 3.238676e+03 -6.870858e+03 1.831925e+03 -6.600833e+03 3.706076e+02 -6.857371e+03 -9.629115e+02 -5.522532e+03 2.000805e+03 -1.200767e+03 4.484246e+03 -4.567832e+02 1.803160e+03 -4.010185e+03 -1.782155e+03 -4.776378e+03 -1.128312e+03 -3.523157e+03 -3.926686e+02 -2.634029e+03 1.035955e+02 -1.990858e+03 5.806184e+02 -1.500970e+03 1.173636e+03 -1.214242e+03 
2.222987e+03 -3.790895e+03 3.278225e+03 -4.554558e+03 4.932541e+03 -3.842118e+03 8.602634e+03 6.085882e+01 1.151293e+04 6.360404e+03 6.967162e+04 2.449474e+04 -8.744356e+04 -1.608545e+04 -3.419040e+04 -1.802042e+04 -3.473732e+04 5.325858e+04 1.215268e+05 -1.926526e+04 -4.472122e+04 -8.757129e+04 -1.769476e+05 1.279729e+04 1.941204e+04 -1.087263e+04 3.421903e+04 1.212591e+03 2.153112e+04 -8.514756e+03 1.719895e+04 -5.283423e+03 1.344980e+04 -4.732528e+03 1.008775e+04 -4.542873e+03 7.456514e+03 -4.545217e+03 5.342326e+03 -4.713530e+03 3.471688e+03 -5.200183e+03 1.458006e+03 -5.600862e+03 2.568595e+03 -1.749994e+01 9.062954e+03 5.158954e+03 1.057064e+04 5.288646e+03 8.332054e+03 4.685817e+02 1.036337e+03 -5.210060e+03 -1.339297e+03 -4.947948e+03 -7.000807e+02 -4.426851e+03 -2.795441e+02 -4.159961e+03 2.281812e+02 -3.974337e+03 1.019433e+03 -3.806117e+03 
2.682763e+03 3.606298e+02 4.334503e+03 4.424053e+02 6.558684e+03 4.252083e+03 1.650483e+04 1.800852e+04 3.977111e+04 8.772457e+04 9.247863e+04 5.941121e+03 -1.044291e+05 -4.041652e+04 -8.027217e+04 -1.950732e+04 -5.025645e+04 8.614950e+04 1.043199e+05 -1.086542e+04 -9.354955e+04 1.847219e+03 -1.051914e+05 2.593465e+04 7.119421e+04 1.283275e+04 3.710433e+04 -2.307890e+04 2.342368e+04 -1.531397e+04 1.525526e+04 -1.243169e+04 1.051668e+04 -1.031653e+04 7.144676e+03 -8.711220e+03 4.859837e+03 -7.498381e+03 3.216534e+03 -6.691706e+03 1.834737e+03 -6.403434e+03 3.833298e+02 -4.151253e+03 6.296911e+03 3.742881e+03 9.722939e+03 5.376580e+03 9.772601e+03 5.722329e+03 9.382258e+03 5.142588e+03 5.985133e+03 -1.278547e+03 -6.278077e+02 -3.151905e+03 -8.393452e+01 -2.078372e+03 4.647713e+02 -1.343709e+03 9.788865e+02 -6.737540e+02 1.671328e+03 -5.807616e+01 
2.941402e+03 -2.015552e+03 5.590060e+03 -1.326668e+03 6.629201e+03 -2.804735e+03 1.390611e+04 -6.764498e+02 4.786729e+04 2.414813e+04 -2.868391e+04 6.056644e+03 -9.174929e+04 -7.057476e+04 -3.794666e+04 3.420307e+04 6.490950e+03 1.335047e+05 2.726329e+05 1.129814e+05 5.941633e+04 5.470440e+04 -1.051433e+05 -1.612959e+05 5.329996e+04 -9.794732e+03 2.732714e+04 -8.820253e+03 3.700380e+04 -8.045766e+03 2.332634e+04 -4.137881e+03 1.604092e+04 -3.920689e+03 1.149698e+04 -3.967479e+03 8.288064e+03 -4.062055e+03 5.944705e+03 -4.232986e+03 4.009179e+03 -4.753123e+03 3.302264e+03 2.927031e+02 9.881439e+03 4.177797e+03 9.730742e+03 4.464779e+03 9.437905e+03 4.499039e+03 8.809339e+03 4.242795e+03 8.037973e+03 1.100551e+03 7.469136e+02 -4.494468e+03 -4.020541e+02 -3.942737e+03 -7.205818e+01 -3.680472e+03 4.100659e+02 -3.381715e+03 1.323578e+03 -2.760129e+03 
2.926638e+03 1.411420e+03 4.718748e+03 1.105102e+03 9.169532e+03 1.687502e+03 8.650915e+03 -2.503315e+04 3.177531e+03 -8.839004e+04 -2.073499e+04 -1.722737e+05 -1.141331e+05 2.662176e+04 5.469786e+03 1.416845e+04 -8.220764e+04 -2.587035e+04 2.967150e+03 1.168916e+05 -1.156203e+05 -2.191612e+04 -1.505426e+05 -1.043573e+05 5.316503e+04 -5.465687e+04 4.099213e+04 -2.650666e+04 2.454160e+04 -2.240960e+04 1.562996e+04 -1.517550e+04 9.336001e+03 -1.145412e+04 6.057753e+03 -8.835420e+03 4.146574e+03 -7.146768e+03 2.881395e+03 -6.031734e+03 1.960031e+03 -5.389144e+03 3.661798e+03 1.757743e+03 8.611110e+03 3.643651e+03 8.550760e+03 4.410318e+03 8.546082e+03 4.831157e+03 8.292826e+03 4.942194e+03 8.049028e+03 4.426865e+03 3.567369e+03 -1.906544e+03 4.584463e+02 -1.375374e+03 7.940286e+02 -7.037583e+02 1.171945e+03 1.470491e+02 1.736762e+03 1.193180e+03 
2.082121e+03 -1.312923e+03 4.979326e+03 1.356816e+03 8.503571e+03 3.655095e+02 2.705295e+04 7.911707e+03 4.803639e+04 -1.587026e+04 -1.607145e+05 -1.034456e+04 3.901640e+04 -7.891776e+04 -3.585864e+04 7.067085e+04 -1.656071e+04 1.977727e+04 7.104042e+04 1.669715e+05 8.370734e+04 2.317974e+05 2.874480e+05 2.938710e+05 8.623987e+04 -2.876992e+03 4.584937e+04 -8.626682e+03 3.689772e+04 -3.532574e+03 2.373660e+04 -2.461661e+03 1.648176e+04 -2.945392e+03 1.143945e+04 -3.338122e+03 8.233388e+03 -3.485814e+03 6.024889e+03 -3.512960e+03 4.377692e+03 -3.199504e+03 6.876446e+03 2.866166e+03 9.282905e+03 3.446266e+03 8.803399e+03 3.755761e+03 8.441951e+03 3.816392e+03 7.836018e+03 3.614099e+03 7.305153e+03 3.272243e+03 4.557521e+03 -2.714833e+03 -1.867567e+02 -3.348163e+03 -9.365820e+01 -3.312801e+03 9.359626e+01 -3.166029e+03 5.865312e+02 -2.532750e+03 
1.830992e+03 2.972867e+03 1.370363e+03 -6.096830e+01 5.032064e+03 4.797084e+03 2.137910e+04 1.895613e+03 2.870924e+04 3.420647e+04 1.736435e+05 5.199053e+04 -6.733163e+04 -1.417242e+04 -1.526577e+05 3.976263e+04 -7.697739e+04 4.403612e+04 -6.003843e+03 1.664375e+05 -1.951956e+05 -9.428683e+04 2.732462e+05 9.631515e+04 -3.898219e+04 -4.296250e+04 2.204155e+04 -4.633076e+04 1.478499e+04 -2.770028e+04 7.140201e+03 -1.633019e+04 5.015127e+03 -1.124795e+04 3.653209e+03 -8.141456e+03 2.730643e+03 -6.262025e+03 2.135545e+03 -4.993908e+03 1.658631e+03 -3.416648e+03 5.498985e+03 2.228262e+03 7.248980e+03 3.229175e+03 7.509039e+03 3.971676e+03 7.596716e+03 4.386399e+03 7.373212e+03 4.457998e+03 6.962413e+03 4.380712e+03 5.502822e+03 -1.026435e+02 6.897091e+02 -8.987327e+02 9.633401e+02 -3.067655e+02 1.184733e+03 7.378135e+02 8.263152e+02 3.036238e+03 
-2.219775e+03 2.762074e+02 -4.441963e+03 -2.910571e+03 -2.332291e+03 1.328907e+03 -1.311305e+04 -2.032541e+04 5.203640e+04 -2.755838e+04 1.951482e+05 3.498492e+05 1.101057e+05 -3.824128e+04 -7.471719e+04 -2.738357e+04 -6.973453e+04 2.438293e+04 -5.786336e+04 1.243761e+05 -1.881356e+05 -4.090946e+04 2.577428e+05 4.339588e+04 -1.071036e+05 -4.726341e+04 3.741738e+04 1.694886e+04 2.493899e+04 5.060677e+03 2.063337e+04 -5.010306e+02 1.368537e+04 -2.526591e+03 9.753836e+03 -3.021111e+03 7.116946e+03 -3.107037e+03 5.385321e+03 -3.027571e+03 4.185795e+03 -1.799910e+03 7.440224e+03 2.385914e+03 7.923349e+03 2.914247e+03 7.823198e+03 3.269582e+03 7.531212e+03 3.341157e+03 6.973216e+03 3.105123e+03 6.222779e+03 2.659565e+03 5.013029e+03 -1.182175e+03 -1.071481e+02 -3.012457e+03 -3.067783e+02 -3.169688e+03 -5.277112e+02 -3.501633e+03 -9.258081e+02 -4.572125e+03 
-4.504761e+02 4.039951e+03 9.453584e+02 2.311439e+03 -9.662789e+03 1.098484e+04 -4.076629e+04 -4.636776e+04 1.062763e+05 2.352870e+05 1.884690e+05 2.340297e+05 4.805593e+04 -2.563699e+04 -1.320273e+05 -1.820962e+04 -7.754579e+04 1.412977e+04 -4.633615e+04 4.192170e+04 2.510848e+04 1.578687e+05 5.065232e+03 -4.952731e+04 -1.354418e+05 -1.103457e+05 -5.010564e+04 -6.000024e+04 -1.577978e+04 -2.219802e+04 -2.042441e+03 -1.307483e+04 -1.898812e+02 -8.636728e+03 4.830166e+02 -6.424934e+03 8.382361e+02 -4.854486e+03 1.148978e+03 -3.705064e+03 1.435225e+03 -1.625765e+03 5.320739e+03 2.155263e+03 6.129694e+03 3.073759e+03 6.561201e+03 3.718313e+03 6.716511e+03 4.054398e+03 6.570653e+03 4.071715e+03 6.178049e+03 3.867335e+03 5.573997e+03 1.233459e+03 1.156842e+03 -6.533361e+02 1.111651e+03 -3.981160e+02 1.249221e+03 1.054683e+02 1.650238e+03 8.267460e+02 
-2.133986e+03 -4.777257e+03 -9.764404e+03 2.661102e+03 -1.148967e+04 1.546631e+03 -6.553253e+04 -5.333725e+04 -1.426097e+04 8.786633e+04 2.629976e+05 2.343917e+05 6.384069e+04 4.092437e+04 -3.699899e+04 1.438965e+03 -6.983562e+04 6.753732e+03 -8.963819e+04 2.052628e+04 4.885180e+04 2.655582e+04 2.796039e+04 -3.879259e+04 -6.522831e+04 -4.003251e+04 -3.859715e+03 -2.049508e+04 8.838098e+03 -6.323018e+03 1.259549e+04 -2.745622e+03 8.413449e+03 -3.471359e+03 6.370685e+03 -3.290225e+03 4.931240e+03 -2.985160e+03 4.177916e+03 -2.526588e+03 3.858211e+03 -6.877046e+02 6.888084e+03 2.008402e+03 6.911929e+03 2.579446e+03 6.900364e+03 2.928892e+03 6.694231e+03 3.003719e+03 6.244343e+03 2.785528e+03 5.593216e+03 2.338016e+03 4.775649e+03 1.508868e+02 4.673544e+02 -2.400655e+03 -3.645998e+02 -2.812159e+03 -1.018710e+03 -3.097672e+03 -1.389549e+03 -3.996817e+03 
-1.111682e+03 -8.377323e+03 -4.411328e+03 -6.097582e+02 -1.032460e+04 -1.079431e+04 -1.845814e+04 -7.179736e+04 -8.225907e+04 5.041969e+04 1.752257e+05 1.226561e+05 3.314299e+04 2.919898e+02 -3.324712e+04 -1.556845e+04 -5.444996e+04 -1.866028e+04 -7.613876e+04 -1.501241e+05 8.683359e+04 2.066450e+04 1.024859e+04 -8.486256e+04 -8.613540e+04 -2.365895e+04 -2.217062e+04 -3.071418e+04 -2.352011e+04 -7.117819e+03 -1.044567e+04 -6.419273e+03 -5.148886e+03 -4.759512e+03 -1.926002e+03 -3.843564e+03 -7.982052e+02 -3.113686e+03 1.336923e+02 -2.236533e+03 1.168279e+03 2.130387e+01 4.889038e+03 2.538592e+03 5.402464e+03 3.217154e+03 5.832239e+03 3.695380e+03 6.035117e+03 3.928552e+03 5.981589e+03 3.904849e+03 5.745335e+03 3.724403e+03 5.447562e+03 2.160389e+03 1.749650e+03 -4.135336e+02 1.262103e+03 -6.802361e+02 1.198407e+03 -1.057563e+03 1.196394e+03 -2.296066e+03 
-4.706325e+03 -4.915336e+03 -9.679122e+03 -9.820201e+03 -1.788819e+04 -3.384125e+04 -2.486762e+04 -6.936469e+04 4.092571e+03 -6.116339e+04 4.937934e+04 -2.741988e+04 -2.056719e+04 2.413285e+03 -2.953521e+04 -6.590986e+03 -7.997976e+04 -2.790200e+04 -1.345178e+05 -1.278821e+05 3.147695e+03 1.381751e+05 -3.433755e+04 -5.080734e+04 -3.152390e+03 -4.368407e+04 -1.758246e+04 -2.254958e+04 7.892306e+02 -9.260175e+03 4.141810e+02 -6.899834e+03 1.581248e+03 -3.652101e+03 2.414143e+03 -3.591769e+03 2.326396e+03 -3.076991e+03 2.424560e+03 -2.340327e+03 2.972024e+03 -1.674693e+02 5.994868e+03 1.964048e+03 6.104618e+03 2.501613e+03 6.176283e+03 2.827775e+03 6.069376e+03 2.904562e+03 5.722572e+03 2.722920e+03 5.188172e+03 2.375987e+03 4.469718e+03 7.463820e+02 6.119555e+02 -1.996474e+03 -6.565103e+02 -2.477808e+03 -1.716080e+03 -2.776346e+03 -2.929081e+03 -2.646855e+03 