# vtk DataFile Version 2.0
Comment goes here
ASCII

DATASET STRUCTURED_POINTS
DIMENSIONS    64   64   1

ORIGIN    0.000   0.000   0.000
SPACING   0.031250.03125   1.000

POINT_DATA   4096
SCALARS P double
LOOKUP_TABLE default

6.894164e+02 2.313723e+03 8.448754e+02 2.670280e+03 9.942378e+02 2.905223e+03 1.113191e+03 2.977734e+03 1.175624e+03 2.859435e+03 1.160762e+03 2.548555e+03 1.058995e+03 2.068341e+03 8.782638e+02 1.460852e+03 6.449894e+02 7.756462e+02 3.920444e+02 6.075017e+01 1.476061e+02 -6.414215e+02 -6.737129e+01 -1.295573e+03 -2.369317e+02 -1.873979e+03 -3.498980e+02 -2.356173e+03 -4.026257e+02 -2.729152e+03 -4.001154e+02 -2.987558e+03 -3.540195e+02 -3.133081e+03 -2.791805e+02 -3.173033e+03 -1.904591e+02 -3.118424e+03 -1.005736e+02 -2.981940e+03 -1.895793e+01 -2.776228e+03 4.861236e+01 -2.512663e+03 9.990685e+01 -2.200668e+03 1.358525e+02 -1.847505e+03 1.600062e+02 -1.458488e+03 1.779592e+02 -1.037506e+03 1.967017e+02 -5.878216e+02 2.239252e+02 -1.130911e+02 2.672148e+02 3.814067e+02 3.330833e+02 8.873673e+02 4.258099e+02 1.391938e+03 5.460693e+02 1.876177e+03 
-5.958021e+03 -3.548975e+03 -6.539322e+03 -4.012422e+03 -7.104122e+03 -4.535630e+03 -7.616626e+03 -5.100245e+03 -8.036086e+03 -5.671326e+03 -8.322763e+03 -6.188948e+03 -8.439954e+03 -6.587829e+03 -8.363847e+03 -6.817953e+03 -8.099922e+03 -6.867698e+03 -7.683980e+03 -6.761123e+03 -7.166228e+03 -6.540791e+03 -6.596218e+03 -6.248745e+03 -6.013444e+03 -5.916125e+03 -5.444788e+03 -5.563204e+03 -4.907039e+03 -5.203008e+03 -4.410786e+03 -4.844374e+03 -3.963850e+03 -4.493350e+03 -3.573075e+03 -4.154160e+03 -3.244629e+03 -3.830211e+03 -2.983663e+03 -3.524936e+03 -2.793992e+03 -3.242277e+03 -2.678028e+03 -2.986835e+03 -2.636902e+03 -2.763796e+03 -2.670671e+03 -2.578765e+03 -2.778511e+03 -2.437590e+03 -2.958884e+03 -2.346242e+03 -3.209657e+03 -2.310724e+03 -3.528091e+03 -2.336935e+03 -3.910698e+03 -2.430442e+03 -4.352879e+03 -2.596073e+03 -4.848291e+03 -2.837307e+03 -5.387808e+03 -3.155484e+03 
9.668774e+02 2.585736e+03 1.171585e+03 2.983888e+03 1.359838e+03 3.252321e+03 1.500579e+03 3.340081e+03 1.563843e+03 3.210378e+03 1.531767e+03 2.867466e+03 1.396514e+03 2.336773e+03 1.165044e+03 1.658183e+03 8.691004e+02 8.841488e+02 5.464844e+02 7.202151e+01 2.278416e+02 -7.216511e+02 -6.264396e+01 -1.447866e+03 -3.024340e+02 -2.069857e+03 -4.721394e+02 -2.565370e+03 -5.628966e+02 -2.926291e+03 -5.794465e+02 -3.155818e+03 -5.366623e+02 -3.264465e+03 -4.538180e+02 -3.266524e+03 -3.499355e+02 -3.177403e+03 -2.409782e+02 -3.011810e+03 -1.385679e+02 -2.782662e+03 -4.970525e+01 -2.500529e+03 2.293575e+01 -2.173482e+03 8.043003e+01 -1.807253e+03 1.269104e+02 -1.405633e+03 1.688478e+02 -9.710790e+02 2.143213e+02 -5.055238e+02 2.722104e+02 -1.141227e+01 3.512118e+02 5.070169e+02 4.585864e+02 1.042211e+03 5.985782e+02 1.581561e+03 7.705270e+02 2.105512e+03 
-6.272686e+03 -3.895775e+03 -6.871670e+03 -4.378247e+03 -7.443220e+03 -4.899626e+03 -7.948213e+03 -5.443490e+03 -8.343460e+03 -5.981689e+03 -8.592297e+03 -6.441535e+03 -8.654351e+03 -6.761707e+03 -8.497316e+03 -6.902775e+03 -8.137392e+03 -6.876077e+03 -7.635241e+03 -6.722179e+03 -7.057268e+03 -6.487633e+03 -6.457061e+03 -6.203215e+03 -5.868202e+03 -5.880420e+03 -5.306800e+03 -5.525699e+03 -4.780385e+03 -5.149738e+03 -4.294222e+03 -4.767460e+03 -3.855047e+03 -4.392854e+03 -3.471289e+03 -4.036060e+03 -3.151396e+03 -3.703547e+03 -2.902246e+03 -3.399532e+03 -2.728488e+03 -3.127345e+03 -2.632667e+03 -2.890347e+03 -2.615675e+03 -2.692377e+03 -2.677190e+03 -2.537857e+03 -2.815974e+03 -2.431727e+03 -3.030054e+03 -2.379322e+03 -3.316802e+03 -2.386208e+03 -3.672846e+03 -2.457894e+03 -4.093803e+03 -2.599372e+03 -4.573857e+03 -2.814396e+03 -5.105096e+03 -3.104405e+03 -5.676535e+03 -3.467197e+03 
1.234799e+03 2.938218e+03 1.513619e+03 3.423738e+03 1.772009e+03 3.774023e+03 1.965070e+03 3.912434e+03 2.048104e+03 3.769823e+03 2.005945e+03 3.371876e+03 1.829409e+03 2.752346e+03 1.515592e+03 1.950939e+03 1.118984e+03 1.031008e+03 6.951428e+02 6.514517e+01 2.771300e+02 -8.691841e+02 -1.112340e+02 -1.704211e+03 -4.391170e+02 -2.391910e+03 -6.727583e+02 -2.908798e+03 -7.959938e+02 -3.254568e+03 -8.168598e+02 -3.444875e+03 -7.586621e+02 -3.502504e+03 -6.493205e+02 -3.451365e+03 -5.146631e+02 -3.313084e+03 -3.751950e+02 -3.105508e+03 -2.450682e+02 -2.842385e+03 -1.322690e+02 -2.533627e+03 -3.937133e+01 -2.185798e+03 3.552243e+01 -1.802692e+03 9.783327e+01 -1.385969e+03 1.556388e+02 -9.358458e+02 2.189089e+02 -4.518923e+02 2.986916e+02 6.592147e+01 4.060470e+02 6.158951e+02 5.505694e+02 1.192927e+03 7.383642e+02 1.786457e+03 9.694500e+02 2.377993e+03 
-6.584671e+03 -4.189753e+03 -7.229859e+03 -4.708056e+03 -7.844911e+03 -5.247249e+03 -8.385240e+03 -5.800167e+03 -8.798378e+03 -6.373728e+03 -9.052958e+03 -6.834719e+03 -9.091322e+03 -7.113628e+03 -8.836333e+03 -7.156543e+03 -8.321624e+03 -7.017043e+03 -7.666881e+03 -6.772605e+03 -6.973910e+03 -6.493589e+03 -6.308681e+03 -6.202923e+03 -5.696700e+03 -5.879920e+03 -5.134416e+03 -5.509784e+03 -4.613604e+03 -5.101782e+03 -4.130389e+03 -4.681625e+03 -3.690265e+03 -4.273423e+03 -3.304973e+03 -3.892726e+03 -2.986803e+03 -3.547625e+03 -2.744975e+03 -3.241783e+03 -2.584814e+03 -2.977001e+03 -2.508511e+03 -2.754909e+03 -2.516233e+03 -2.577838e+03 -2.606940e+03 -2.449068e+03 -2.778784e+03 -2.372747e+03 -3.029296e+03 -2.353748e+03 -3.355458e+03 -2.397497e+03 -3.753536e+03 -2.509592e+03 -4.218712e+03 -2.695199e+03 -4.744625e+03 -2.958085e+03 -5.322745e+03 -3.299020e+03 -5.941449e+03 -3.713548e+03 
1.486890e+03 3.363738e+03 1.872804e+03 3.994254e+03 2.245072e+03 4.497379e+03 2.535603e+03 4.750858e+03 2.660762e+03 4.580490e+03 2.618275e+03 4.098179e+03 2.401099e+03 3.351485e+03 1.950687e+03 2.363861e+03 1.396295e+03 1.224025e+03 8.344538e+02 2.655280e+01 2.903297e+02 -1.116490e+03 -2.259037e+02 -2.107841e+03 -6.714266e+02 -2.883955e+03 -9.814191e+02 -3.422112e+03 -1.127896e+03 -3.737313e+03 -1.130675e+03 -3.866084e+03 -1.030546e+03 -3.849191e+03 -8.699205e+02 -3.723497e+03 -6.845433e+02 -3.518367e+03 -5.006395e+02 -3.255129e+03 -3.348647e+02 -2.948136e+03 -1.955438e+02 -2.606179e+03 -8.426775e+01 -2.233759e+03 2.603519e+00 -1.832101e+03 7.263884e+01 -1.400037e+03 1.362896e+02 -9.347308e+02 2.062325e+02 -4.323545e+02 2.967509e+02 1.109208e+02 4.227470e+02 6.975987e+02 5.981551e+02 1.327064e+03 8.334950e+02 1.993203e+03 1.132360e+03 2.681271e+03 
-6.896169e+03 -4.442228e+03 -7.617589e+03 -5.020751e+03 -8.316198e+03 -5.594595e+03 -8.941476e+03 -6.162177e+03 -9.419684e+03 -6.886035e+03 -9.741289e+03 -7.413912e+03 -9.825233e+03 -7.693755e+03 -9.433015e+03 -7.590963e+03 -8.651651e+03 -7.271565e+03 -7.743062e+03 -6.874600e+03 -6.867027e+03 -6.529361e+03 -6.109463e+03 -6.246966e+03 -5.476677e+03 -5.930471e+03 -4.921155e+03 -5.530110e+03 -4.409195e+03 -5.063250e+03 -3.922776e+03 -4.581858e+03 -3.469601e+03 -4.125179e+03 -3.070448e+03 -3.712774e+03 -2.744928e+03 -3.351583e+03 -2.505340e+03 -3.042341e+03 -2.356899e+03 -2.783667e+03 -2.300307e+03 -2.574523e+03 -2.334139e+03 -2.415392e+03 -2.456162e+03 -2.308440e+03 -2.663721e+03 -2.257172e+03 -2.953819e+03 -2.266195e+03 -3.323220e+03 -2.341191e+03 -3.768196e+03 -2.488454e+03 -4.284001e+03 -2.714311e+03 -4.864450e+03 -3.024132e+03 -5.501360e+03 -3.420247e+03 -6.183661e+03 -3.898289e+03 
1.703451e+03 3.839667e+03 2.238502e+03 4.685929e+03 2.787243e+03 5.450023e+03 3.252902e+03 5.963431e+03 3.452277e+03 5.700948e+03 3.417779e+03 5.091723e+03 3.205191e+03 4.195705e+03 2.493690e+03 2.935760e+03 1.684871e+03 1.473519e+03 9.491569e+02 -6.791624e+01 2.606315e+02 -1.517613e+03 -4.238102e+02 -2.727054e+03 -1.039944e+03 -3.611823e+03 -1.446073e+03 -4.155135e+03 -1.595327e+03 -4.404288e+03 -1.542801e+03 -4.431954e+03 -1.361485e+03 -4.304503e+03 -1.115543e+03 -4.075418e+03 -8.539095e+02 -3.782378e+03 -6.090802e+02 -3.449206e+03 -3.992771e+02 -3.089508e+03 -2.317167e+02 -2.709769e+03 -1.055832e+02 -2.311457e+03 -1.424205e+01 -1.892388e+03 5.305498e+01 -1.447813e+03 1.098097e+02 -9.711240e+02 1.720470e+02 -4.541218e+02 2.582842e+02 1.121521e+02 3.888599e+02 7.362265e+02 5.844512e+02 1.424367e+03 8.633646e+02 2.177960e+03 1.237054e+03 2.989898e+03 
-7.203564e+03 -4.659284e+03 -8.032170e+03 -5.340834e+03 -8.857557e+03 -5.974582e+03 -9.627476e+03 -6.485691e+03 -1.023534e+04 -7.613005e+03 -1.070206e+04 -8.270193e+03 -1.103782e+04 -8.617171e+03 -1.039748e+04 -8.233035e+03 -9.123790e+03 -7.620955e+03 -7.798487e+03 -6.963465e+03 -6.647375e+03 -6.542480e+03 -5.788097e+03 -6.347197e+03 -5.180425e+03 -6.068543e+03 -4.665733e+03 -5.609945e+03 -4.179434e+03 -5.034061e+03 -3.680627e+03 -4.455535e+03 -3.193187e+03 -3.932018e+03 -2.760780e+03 -3.480923e+03 -2.415947e+03 -3.102733e+03 -2.173699e+03 -2.791569e+03 -2.036656e+03 -2.540418e+03 -2.001680e+03 -2.344233e+03 -2.064339e+03 -2.201299e+03 -2.220677e+03 -2.112909e+03 -2.467135e+03 -2.082200e+03 -2.800229e+03 -2.113631e+03 -3.216730e+03 -2.213576e+03 -3.713355e+03 -2.389596e+03 -4.285956e+03 -2.650203e+03 -4.929327e+03 -3.004426e+03 -5.636786e+03 -3.459695e+03 -6.399150e+03 -4.016637e+03 
1.844655e+03 4.318038e+03 2.576538e+03 5.451847e+03 3.381938e+03 6.616489e+03 4.151762e+03 7.702486e+03 4.505632e+03 7.171101e+03 4.425912e+03 6.356760e+03 4.457697e+03 5.399629e+03 3.130627e+03 3.736764e+03 1.923016e+03 1.790277e+03 1.002030e+03 -2.580461e+02 1.919957e+02 -2.164834e+03 -7.196287e+02 -3.672375e+03 -1.612662e+03 -4.675035e+03 -2.145351e+03 -5.174208e+03 -2.248024e+03 -5.289193e+03 -2.078180e+03 -5.151709e+03 -1.757021e+03 -4.861505e+03 -1.378725e+03 -4.492228e+03 -1.008735e+03 -4.087864e+03 -6.846530e+02 -3.671196e+03 -4.233385e+02 -3.252132e+03 -2.280177e+02 -2.832880e+03 -9.332866e+01 -2.410639e+03 -8.046276e+00 -1.978840e+03 4.304037e+01 -1.528389e+03 7.676867e+01 -1.048503e+03 1.126595e+02 -5.258304e+02 1.741634e+02 5.493262e+01 2.885736e+02 7.102708e+02 4.859356e+02 1.456009e+03 7.965153e+02 2.304569e+03 1.245691e+03 3.261003e+03 
-7.498547e+03 -4.835019e+03 -8.469067e+03 -5.706474e+03 -9.473845e+03 -6.504250e+03 -1.046940e+04 -6.881560e+03 -1.139408e+04 -8.857326e+03 -1.191506e+04 -9.676955e+03 -1.322333e+04 -1.008592e+04 -1.188873e+04 -9.109012e+03 -9.726897e+03 -8.057292e+03 -7.705429e+03 -6.915951e+03 -6.142195e+03 -6.430927e+03 -5.216409e+03 -6.569379e+03 -4.790660e+03 -6.386648e+03 -4.388456e+03 -5.785702e+03 -3.963284e+03 -5.001532e+03 -3.424288e+03 -4.276239e+03 -2.858956e+03 -3.668466e+03 -2.361802e+03 -3.176428e+03 -1.983271e+03 -2.786046e+03 -1.736015e+03 -2.479808e+03 -1.613857e+03 -2.241673e+03 -1.605545e+03 -2.060897e+03 -1.701690e+03 -1.933503e+03 -1.896309e+03 -1.860798e+03 -2.185202e+03 -1.846194e+03 -2.564783e+03 -1.893785e+03 -3.031887e+03 -2.011153e+03 -3.584182e+03 -2.207318e+03 -4.218511e+03 -2.493501e+03 -4.931603e+03 -2.884518e+03 -5.720009e+03 -3.397887e+03 -6.578480e+03 -4.048635e+03 
1.842630e+03 4.718315e+03 2.813044e+03 6.171441e+03 3.942284e+03 7.788776e+03 5.121215e+03 9.540953e+03 5.867981e+03 8.847797e+03 5.298237e+03 7.423787e+03 6.517834e+03 7.249981e+03 3.581772e+03 4.908775e+03 1.998695e+03 2.137948e+03 8.880987e+02 -6.023336e+02 1.500244e+02 -3.225079e+03 -1.114166e+03 -5.128704e+03 -2.506686e+03 -6.221355e+03 -3.209920e+03 -6.559170e+03 -3.149467e+03 -6.424708e+03 -2.765841e+03 -6.023213e+03 -2.214856e+03 -5.498208e+03 -1.638662e+03 -4.946288e+03 -1.121975e+03 -4.408385e+03 -7.012263e+02 -3.898264e+03 -3.847154e+02 -3.417227e+03 -1.663880e+02 -2.960651e+03 -3.359032e+01 -2.520464e+03 3.108605e+01 -2.084818e+03 4.925028e+01 -1.639417e+03 4.008617e+01 -1.169718e+03 2.598101e+01 -6.567545e+02 3.540302e+01 -7.800659e+01 1.037723e+02 5.930477e+02 2.729093e+02 1.384683e+03 5.895612e+02 2.324126e+03 1.100974e+03 3.432726e+03 
-7.766896e+03 -4.927430e+03 -8.929194e+03 -6.154942e+03 -1.020512e+04 -7.527993e+03 -1.153924e+04 -9.222101e+03 -1.429635e+04 -1.129230e+04 -1.328551e+04 -1.398699e+04 -1.784265e+04 -1.243161e+04 -1.382368e+04 -1.045245e+04 -1.057072e+04 -8.624614e+03 -7.204446e+03 -6.536002e+03 -5.001166e+03 -6.005227e+03 -4.136387e+03 -7.144775e+03 -4.360237e+03 -7.115924e+03 -4.173405e+03 -6.088740e+03 -3.860113e+03 -4.918352e+03 -3.186782e+03 -3.996127e+03 -2.452365e+03 -3.296901e+03 -1.843248e+03 -2.771726e+03 -1.419161e+03 -2.384274e+03 -1.172821e+03 -2.098582e+03 -1.076831e+03 -1.884828e+03 -1.105363e+03 -1.724622e+03 -1.242123e+03 -1.612568e+03 -1.479678e+03 -1.552355e+03 -1.814070e+03 -1.549256e+03 -2.243876e+03 -1.605816e+03 -2.764437e+03 -1.731753e+03 -3.375055e+03 -1.936611e+03 -4.073449e+03 -2.233331e+03 -4.859379e+03 -2.643642e+03 -5.735555e+03 -3.200242e+03 -6.704502e+03 -3.946435e+03 
1.596777e+03 4.943444e+03 2.829155e+03 6.661222e+03 4.313765e+03 8.435395e+03 6.065110e+03 9.576904e+03 6.715237e+03 1.098773e+04 8.265201e+03 4.015339e+03 6.072209e+03 9.593392e+03 3.332328e+03 6.770640e+03 1.998980e+03 2.152832e+03 1.268215e+01 -1.154800e+03 4.943350e+02 -5.035983e+03 -1.637983e+03 -7.419553e+03 -3.902502e+03 -8.446447e+03 -4.848818e+03 -8.402028e+03 -4.398729e+03 -7.839411e+03 -3.650380e+03 -7.014243e+03 -2.712831e+03 -6.163391e+03 -1.848439e+03 -5.390988e+03 -1.145945e+03 -4.706259e+03 -6.195819e+02 -4.101256e+03 -2.537885e+02 -3.562288e+03 -2.438867e+01 -3.075312e+03 9.080471e+01 -2.627499e+03 1.153996e+02 -2.201391e+03 8.196867e+01 -1.776159e+03 5.929993e+00 -1.335981e+03 -8.702003e+01 -8.556056e+02 -1.649064e+02 -3.054607e+02 -1.835825e+02 3.536581e+02 -8.815971e+01 1.165527e+03 1.881509e+02 2.176616e+03 7.241723e+02 3.429814e+03 
-7.976706e+03 -4.799850e+03 -9.408645e+03 -6.555536e+03 -1.114229e+04 -8.848863e+03 -1.315197e+04 -1.296118e+04 -2.060160e+04 -1.546812e+04 -2.527900e+04 -1.358097e+04 -1.714372e+04 -1.440675e+04 -1.730688e+04 -1.349754e+04 -1.153705e+04 -8.954201e+03 -5.562298e+03 -5.975125e+03 -2.653276e+03 -5.069875e+03 -1.956780e+03 -8.502586e+03 -4.071821e+03 -8.830482e+03 -4.364152e+03 -6.442871e+03 -4.078103e+03 -4.673613e+03 -2.993648e+03 -3.546781e+03 -1.916227e+03 -2.764181e+03 -1.143007e+03 -2.230435e+03 -6.803002e+02 -1.879356e+03 -4.601878e+02 -1.643828e+03 -4.153345e+02 -1.473697e+03 -4.980855e+02 -1.341344e+03 -6.850590e+02 -1.243198e+03 -9.701091e+02 -1.190459e+03 -1.348994e+03 -1.193632e+03 -1.835378e+03 -1.251107e+03 -2.411365e+03 -1.376563e+03 -3.081027e+03 -1.576414e+03 -3.841371e+03 -1.861301e+03 -4.696130e+03 -2.258573e+03 -5.659036e+03 -2.817309e+03 -6.746455e+03 -3.619225e+03 
9.705146e+02 4.927804e+03 2.465505e+03 6.898061e+03 3.990258e+03 8.517699e+03 5.151599e+03 1.142986e+04 8.024217e+03 1.509981e+04 9.938367e+03 1.084007e+04 7.459425e+03 9.359639e+03 6.108205e+03 7.514153e+03 9.888680e+02 2.865876e+02 -2.520150e+03 -9.124187e+02 1.617073e+03 -8.546614e+03 -2.183996e+03 -1.095155e+04 -5.922448e+03 -1.163811e+04 -7.421775e+03 -1.098113e+04 -6.382623e+03 -9.524170e+03 -4.792810e+03 -8.004024e+03 -3.162773e+03 -6.758517e+03 -1.908603e+03 -5.757692e+03 -1.001697e+03 -4.933072e+03 -3.866124e+02 -4.247341e+03 2.353315e+00 -3.664594e+03 2.202880e+02 -3.158788e+03 2.973195e+02 -2.717241e+03 2.562074e+02 -2.317159e+03 1.578618e+02 -1.930010e+03 -1.763075e+01 -1.546811e+03 -2.214131e+02 -1.129533e+03 -4.294512e+02 -6.469401e+02 -5.877096e+02 -4.211562e+01 -6.297331e+02 7.462102e+02 -4.697971e+02 1.789525e+03 1.363962e+01 3.168758e+03 
-8.059387e+03 -4.219790e+03 -9.820815e+03 -6.662982e+03 -1.245506e+04 -1.083089e+04 -1.538337e+04 -1.477835e+04 -1.702243e+04 -1.521029e+04 -1.850900e+04 -1.858664e+04 -3.621739e+04 -1.921038e+04 -2.139090e+04 -1.814684e+04 -1.282097e+04 -9.184716e+03 -1.190712e+03 -5.413990e+03 1.750760e+03 -5.410666e+03 2.707596e+03 -1.081646e+04 -3.807244e+03 -1.207761e+04 -6.312147e+03 -6.626464e+03 -5.001373e+03 -4.243467e+03 -2.754297e+03 -2.846657e+03 -1.085201e+03 -1.983268e+03 -1.501256e+02 -1.504158e+03 2.904045e+02 -1.258217e+03 4.234839e+02 -1.124091e+03 3.716396e+02 -1.026223e+03 2.090860e+02 -9.283102e+02 -3.937194e+01 -8.388347e+02 -3.792613e+02 -7.860427e+02 -7.840485e+02 -7.856716e+02 -1.346812e+03 -8.365300e+02 -1.974922e+03 -9.548071e+02 -2.701615e+03 -1.136079e+03 -3.515120e+03 -1.379664e+03 -4.422469e+03 -1.715139e+03 -5.457102e+03 -2.200595e+03 -6.656592e+03 -2.948115e+03 
-2.205451e+02 4.573075e+03 1.807125e+03 7.190585e+03 4.798239e+03 1.067774e+04 8.059300e+03 1.975326e+04 1.269247e+04 2.217936e+04 1.859022e+04 2.588669e+04 1.667534e+04 1.703268e+04 1.102395e+04 1.254051e+04 -3.791935e+02 -8.126299e+03 -3.395857e+03 2.496521e+03 5.043137e+02 -1.792937e+04 -9.785113e+02 -1.580525e+04 -1.366894e+04 -1.653218e+04 -1.437708e+04 -1.417836e+04 -1.029585e+04 -1.111925e+04 -5.961081e+03 -8.696633e+03 -3.285309e+03 -7.161483e+03 -1.625184e+03 -5.961713e+03 -5.722114e+02 -5.033698e+03 5.661454e+01 -4.307724e+03 4.059337e+02 -3.711695e+03 5.753059e+02 -3.203049e+03 5.924448e+02 -2.786002e+03 4.404440e+02 -2.426135e+03 2.959955e+02 -2.091812e+03 -4.353614e+01 -1.810172e+03 -3.717293e+02 -1.486717e+03 -7.572163e+02 -1.124388e+03 -1.114990e+03 -6.312047e+02 -1.374540e+03 6.522761e+01 -1.449209e+03 1.058241e+03 -1.170261e+03 2.499479e+03 
-7.856429e+03 -2.613280e+03 -9.505657e+03 -4.582328e+03 -1.107308e+04 -9.568838e+03 -1.165247e+04 -1.431092e+04 -1.851979e+04 -2.495399e+04 -3.120132e+04 -1.779692e+04 -5.745928e+04 -2.681661e+04 -3.676893e+04 -3.165621e+04 -1.950638e+04 -1.901986e+04 -2.273345e+03 -2.511904e+03 5.752070e+03 -1.053483e+04 1.307955e+04 -2.107594e+04 -1.283762e+04 -1.265904e+04 -1.208032e+04 -9.357886e+03 -6.353663e+03 -3.574667e+03 -1.923613e+03 -1.604095e+03 3.783200e+02 -7.951922e+02 1.278451e+03 -5.408220e+02 1.544098e+03 -5.336528e+02 1.479606e+03 -5.806705e+02 1.256611e+03 -5.947317e+02 9.795465e+02 -5.324103e+02 6.591203e+02 -4.449842e+02 2.093561e+02 -4.028918e+02 -1.501106e+02 -3.626073e+02 -8.482147e+02 -4.008548e+02 -1.474792e+03 -4.997580e+02 -2.253418e+03 -6.499463e+02 -3.101089e+03 -8.151674e+02 -4.023410e+03 -1.028523e+03 -5.092612e+03 -1.336120e+03 -6.373247e+03 -1.797550e+03 
-2.622296e+03 3.144541e+03 -3.480611e+02 6.681466e+03 5.180768e+03 1.287004e+04 1.481792e+04 2.589562e+04 2.382861e+04 2.654691e+04 1.625485e+04 4.611898e+04 2.156123e+04 1.477140e+04 -4.291747e+03 -1.602296e+04 9.524379e+02 -1.880536e+04 -2.101803e+04 1.511716e+04 2.795475e+04 -2.995701e+04 -2.782558e+04 -1.621191e+04 -4.452516e+04 -2.491444e+04 -2.492845e+04 -1.925522e+04 -1.264966e+04 -1.219472e+04 -5.896179e+03 -9.251349e+03 -2.561744e+03 -7.213982e+03 -7.220206e+02 -5.896513e+03 2.599521e+02 -4.956826e+03 7.423013e+02 -4.276008e+03 9.355948e+02 -3.730505e+03 9.932949e+02 -3.243590e+03 9.305504e+02 -2.929769e+03 5.607299e+02 -2.562397e+03 5.543973e+02 -2.270731e+03 -1.619560e+02 -2.225216e+03 -5.530525e+02 -1.950860e+03 -1.157286e+03 -1.774151e+03 -1.764732e+03 -1.450528e+03 -2.316772e+03 -9.333043e+02 -2.793747e+03 -1.504313e+02 -3.049191e+03 1.081912e+03 
-7.613650e+03 -2.031886e+02 -9.772792e+03 7.715061e+02 -1.035020e+04 3.289616e+03 -2.926965e+02 -2.235889e+04 -1.296057e+04 -4.745882e+04 -4.838481e+03 -1.019269e+04 -1.219110e+05 -4.606863e+04 -5.056077e+04 -4.361723e+04 -2.022282e+04 -2.167258e+04 3.423705e+04 4.193923e+04 4.316044e+04 -3.671112e+04 -2.244111e+04 -3.224619e+04 -5.681996e+04 -3.100668e+04 -1.804076e+04 -9.006010e+03 -4.774668e+03 -1.125731e+03 1.302436e+03 1.355509e+03 2.828907e+03 1.158609e+03 3.268100e+03 6.442832e+02 3.092930e+03 2.011488e+02 2.658244e+03 -1.252823e+02 2.138114e+03 -3.225353e+02 1.685066e+03 -2.984643e+02 1.281371e+03 -1.470802e+02 9.500080e+02 2.307639e+02 9.565202e+02 4.002376e+02 -1.272948e+02 2.859953e+01 -1.002928e+03 -1.340218e+02 -1.826358e+03 -2.122025e+02 -2.653698e+03 -2.367570e+02 -3.504310e+03 -2.687735e+02 -4.538493e+03 -3.453163e+02 -5.893610e+03 -3.976468e+02 
-7.039459e+03 4.348780e+02 -7.391857e+03 3.074579e+03 -2.212713e+03 6.816776e+03 2.390774e+04 8.104367e+03 -2.092932e+04 5.446732e+04 1.848480e+05 5.074568e+04 3.805716e+04 1.705303e+04 -1.174079e+04 2.189925e+04 6.235268e+04 9.642402e+04 4.554516e+04 9.352641e+04 -4.002126e+02 3.512881e+04 9.663500e+04 -7.317315e+04 -9.869044e+04 -3.957272e+04 -2.957037e+04 -2.134719e+04 -9.741160e+03 -1.178482e+04 -2.239821e+03 -8.243266e+03 -7.085890e+01 -6.711262e+03 9.013759e+02 -5.518160e+03 1.500453e+03 -4.685502e+03 1.636308e+03 -4.190232e+03 1.482460e+03 -3.853222e+03 1.294003e+03 -3.371922e+03 1.274329e+03 -2.917079e+03 1.150599e+03 -2.244865e+03 1.144838e+03 -2.066579e+03 1.896927e+02 -2.510452e+03 -7.344879e+02 -2.568551e+03 -1.696745e+03 -2.687801e+03 -2.552521e+03 -2.532038e+03 -3.376553e+03 -2.244661e+03 -4.399176e+03 -1.855639e+03 -5.690677e+03 -1.195318e+03 
-7.105316e+03 1.154123e+03 -1.132957e+04 2.419339e+03 -1.992437e+04 -1.823163e+04 -5.992239e+04 -6.965084e+04 -5.549442e+04 -1.432485e+04 5.992980e+04 8.630494e+04 3.398383e+04 6.377862e+02 -6.052826e+04 -7.107289e+04 2.046239e+04 -5.063439e+04 1.156252e+05 4.520763e+04 1.011223e+05 -5.035313e+04 8.139510e+04 7.066304e+01 -1.090465e+05 -6.255663e+03 -1.747925e+04 2.489018e+03 5.381415e+03 9.985586e+03 7.855133e+03 5.335099e+03 6.983928e+03 3.123331e+03 5.842338e+03 1.667488e+03 4.839642e+03 7.260660e+02 3.843768e+03 4.190117e+01 2.781727e+03 -4.510662e+02 2.105735e+03 -4.833352e+02 1.622300e+03 1.022922e+02 1.763025e+03 8.750628e+02 1.892202e+03 1.075481e+03 6.716376e+02 4.444376e+02 -7.262062e+02 -1.033864e+02 -1.589174e+03 1.778576e+01 -2.327124e+03 2.471880e+02 -2.890239e+03 4.911472e+02 -3.741012e+03 5.951157e+02 -5.047926e+03 6.885242e+02 
-1.257222e+04 -3.400463e+03 -1.805287e+04 -4.320169e+03 -3.409372e+04 -1.250789e+04 -6.592390e+04 -2.587150e+04 -4.558855e+04 -5.982937e+04 3.868605e+04 8.407710e+04 3.003764e+04 -2.941770e+03 -8.984349e+04 2.836738e+04 -2.068943e+05 -4.310988e+04 -1.053598e+05 1.781226e+03 1.086556e+05 -6.123027e+04 1.437906e+05 7.005180e+04 -4.485076e+04 3.259756e+03 4.630591e+03 -8.891305e+03 -5.017392e+03 -8.893371e+03 5.227362e+03 -5.754408e+03 4.061043e+03 -5.777172e+03 2.959385e+03 -4.819566e+03 3.102810e+03 -4.163685e+03 2.722468e+03 -4.117366e+03 1.836839e+03 -4.316008e+03 1.294926e+03 -3.404037e+03 2.429020e+03 -1.165076e+03 4.056058e+03 6.017143e+02 4.604485e+03 8.905779e+02 3.117240e+03 -7.188788e+02 2.705349e+02 -2.927897e+03 -2.446979e+03 -4.052727e+03 -3.550172e+03 -3.898719e+03 -4.332016e+03 -3.737633e+03 -5.786581e+03 -3.918073e+03 -8.364399e+03 -4.477497e+03 
-4.754770e+03 1.020778e+03 -6.275829e+03 -1.021697e+03 -6.921268e+03 1.838939e+03 -8.033348e+03 3.217758e+04 -8.771654e+03 1.097033e+05 1.923833e+05 -6.017121e+03 -7.865342e+04 -5.494351e+04 -7.123404e+04 4.742842e+04 -1.067456e+05 -7.070788e+04 -1.633077e+05 -2.458983e+05 -1.356080e+05 -1.951045e+05 1.946364e+05 2.472516e+05 2.154188e+04 -3.315703e+03 4.770996e+04 3.944744e+04 2.904660e+04 1.426262e+04 1.544923e+04 7.257671e+03 1.150421e+04 4.114770e+03 8.254370e+03 2.040886e+03 6.521760e+03 8.862908e+02 4.944005e+03 -2.382077e+02 3.035755e+03 -5.827345e+02 4.211822e+03 3.278880e+03 7.372684e+03 5.863996e+03 8.080042e+03 6.586265e+03 7.798154e+03 6.894417e+03 7.010314e+03 6.590837e+03 5.353890e+03 4.625723e+03 1.174500e+03 8.287830e+02 -2.119916e+03 5.558279e+02 -2.218117e+03 1.305569e+03 -2.662564e+03 1.534277e+03 -3.445605e+03 1.393336e+03 
-1.636439e+04 -9.050381e+03 -2.417989e+04 -9.983159e+03 -4.287447e+04 -4.076110e+04 -4.591376e+04 1.691030e+04 -2.749774e+03 1.305035e+04 1.893283e+05 -6.767718e+04 -1.299148e+05 -5.938392e+04 -6.971615e+04 -3.827050e+04 -6.260655e+04 -4.822061e+04 8.968471e+04 3.251915e+04 -1.242405e+05 -4.787542e+04 2.391133e+05 4.046981e+05 6.748849e+04 -6.627062e+03 4.034379e+04 -6.542599e+03 1.057973e+04 -8.794116e+03 6.360354e+03 -5.617107e+03 5.425295e+03 -5.648265e+03 4.139005e+03 -3.844193e+03 5.052872e+03 -3.124728e+03 4.191763e+03 -3.814487e+03 2.634642e+03 -1.710314e+03 7.710717e+03 3.631556e+03 9.095393e+03 3.774168e+03 8.123274e+03 3.468004e+03 7.339183e+03 3.424970e+03 6.647422e+03 3.534229e+03 6.170910e+03 3.422360e+03 4.086084e+03 -1.065505e+03 -3.275001e+03 -5.255801e+03 -4.807492e+03 -5.048960e+03 -6.147347e+03 -5.880303e+03 -9.388396e+03 -9.343303e+03 
-4.653460e+03 -1.813542e+02 -8.721446e+03 -6.381661e+03 -8.061435e+03 -3.173103e+04 -5.266094e+04 3.761789e+04 1.630095e+04 1.208306e+05 1.990671e+05 1.977572e+05 7.458471e+04 -1.596166e+04 -1.798219e+05 -6.948801e+04 -4.001338e+04 6.898597e+02 -1.963195e+04 -1.320715e+05 6.761779e+04 3.144846e+04 3.906741e+05 4.454561e+05 1.678884e+05 -3.728235e+03 4.339193e+04 2.997170e+04 2.035398e+04 9.311191e+03 1.416006e+04 3.237860e+03 8.295395e+03 -1.130361e+03 7.594435e+03 1.085862e+03 8.024913e+03 9.224571e+02 6.273936e+03 2.454192e+01 6.206019e+03 5.516292e+03 1.136942e+04 7.720605e+03 1.035605e+04 7.242731e+03 9.350797e+03 7.338368e+03 8.777828e+03 7.623576e+03 8.210384e+03 7.983701e+03 7.948726e+03 8.827302e+03 7.979527e+03 8.166898e+03 2.291561e+03 1.811395e+03 -1.189460e+03 2.490949e+03 -1.380126e+03 2.877841e+03 -2.412345e+03 1.389368e+03 
-1.200558e+04 -1.228854e+04 -2.105921e+04 -2.774585e+04 -6.214816e+04 -5.076735e+04 -8.680819e+04 -4.967365e+04 -5.758031e+04 -3.057478e+04 6.842052e+04 9.470293e+04 5.176763e+03 -1.167158e+05 -9.900724e+04 -1.768705e+05 -2.764321e+04 -1.161929e+05 -1.190447e+05 -1.742680e+05 -2.599449e+04 -3.532683e+04 2.844660e+04 1.751773e+05 1.018531e+05 2.283123e+03 -3.694369e+03 -1.911809e+04 5.177462e+03 -6.696333e+03 8.657721e+03 -4.652578e+03 5.346896e+03 -7.921802e+03 4.715346e+03 -1.922565e+03 8.123526e+03 -8.026957e+02 6.634992e+03 -7.761936e+02 9.285637e+03 4.855050e+03 1.123954e+04 4.596099e+03 1.006954e+04 4.209318e+03 9.031217e+03 3.978007e+03 8.187386e+03 3.843793e+03 7.393109e+03 3.740117e+03 6.717405e+03 3.703045e+03 6.062213e+03 3.569904e+03 3.239093e+03 -3.058646e+03 -3.980426e+03 -5.526825e+03 -4.946691e+03 -6.767916e+03 -7.167055e+03 -1.101503e+04 
1.571110e+03 8.119440e+03 -8.574951e+01 2.111366e+02 -2.163216e+02 7.350924e+03 4.360433e+04 -2.377229e+04 -5.910637e+04 4.462389e+04 7.505029e+04 9.365621e+04 1.381140e+05 3.714578e+04 -7.943149e+04 1.114621e+05 2.375595e+04 5.615642e+04 -5.832834e+04 2.369313e+03 2.309358e+04 4.602394e+04 1.717146e+04 -3.369292e+04 1.643781e+04 -7.561959e+04 -7.082382e+03 -2.332109e+04 1.160380e+04 -6.425285e+03 1.330858e+04 8.240529e+02 1.500577e+04 1.791049e+03 1.163396e+04 1.975628e+03 9.658551e+03 1.739780e+03 7.835246e+03 4.132814e+03 1.292326e+04 8.147052e+03 1.222168e+04 7.669475e+03 1.108976e+04 7.608473e+03 1.022169e+04 7.823604e+03 9.624838e+03 8.198109e+03 9.144992e+03 8.693561e+03 8.879555e+03 9.418779e+03 8.822188e+03 1.039154e+04 8.692712e+03 7.488266e+03 1.089705e+03 4.161779e+03 1.152681e+03 5.345921e+03 1.621809e+03 5.911694e+03 
-2.180370e+03 -1.016819e+04 4.093606e+03 -2.238782e+04 -1.185164e+05 -2.090400e+04 -5.490482e+04 -3.204698e+04 -2.973065e+05 -1.783535e+05 -7.082558e+04 6.096916e+04 3.132406e+04 5.074775e+04 2.197262e+04 9.340876e+04 1.329647e+03 7.228121e+03 -3.482124e+04 -1.221143e+05 -1.603887e+05 -6.995153e+04 -1.086743e+05 -7.985713e+04 -5.648051e+04 -6.664635e+04 -3.425438e+04 -2.090289e+04 6.370206e+03 -2.377282e+03 1.078493e+04 2.895569e+02 9.951520e+03 -2.186850e+03 8.243769e+03 -1.235206e+03 8.479219e+03 -1.030330e+03 7.702533e+03 3.443031e+03 1.374125e+04 5.757836e+03 1.203415e+04 4.822707e+03 1.074516e+04 4.435550e+03 9.664647e+03 4.185913e+03 8.743107e+03 4.005841e+03 7.898959e+03 3.834130e+03 7.150118e+03 3.629360e+03 6.478235e+03 3.546779e+03 6.264479e+03 1.096959e+03 -1.974136e+03 -6.171683e+03 -3.804500e+03 -7.683986e+03 -4.192944e+03 -9.710878e+03 
4.331345e+03 1.143763e+04 7.218810e+03 1.134815e+04 -2.251843e+04 -4.796138e+04 -3.174915e+03 7.592994e+04 -6.424976e+04 -1.950164e+05 -3.914039e+04 5.591694e+04 6.322479e+04 5.704644e+04 2.180262e+03 9.929743e+04 4.249498e+04 9.820999e+04 6.262912e+03 7.575030e+03 -1.570001e+05 -1.083700e+04 8.516607e+04 -4.549351e+03 4.636134e+04 -9.339164e+04 -1.884477e+04 -8.381050e+04 -5.357839e+03 1.242656e+03 1.568638e+04 -2.566607e+03 1.420184e+04 -4.183741e+02 1.149197e+04 -6.620056e+01 9.447298e+03 -1.702181e+02 8.784382e+03 6.319692e+03 1.458657e+04 7.893916e+03 1.275665e+04 7.503982e+03 1.150721e+04 7.594713e+03 1.064912e+04 7.918384e+03 1.006953e+04 8.408151e+03 9.681812e+03 9.053644e+03 9.539123e+03 9.898889e+03 9.697635e+03 1.109708e+04 1.038290e+04 1.128844e+04 3.921518e+03 5.185314e+03 2.699068e+03 6.710002e+03 3.369520e+03 8.387152e+03 
-5.035717e+03 -1.797310e+04 -7.467945e+03 -3.382856e+04 -4.542755e+04 -9.823431e+04 -5.541976e+04 -1.201579e+05 1.268741e+03 -6.299925e+04 -3.407470e+04 -2.097077e+04 -1.747259e+04 1.756011e+04 7.033227e+03 3.990850e+04 5.578124e+04 2.592973e+04 1.912126e+04 -9.772224e+04 -2.893929e+05 -5.362589e+04 8.224403e+04 1.999858e+05 1.035236e+05 -1.058085e+05 1.816607e+04 -2.279888e+04 6.777817e+04 2.118180e+03 8.142096e+03 8.203415e+03 1.408859e+04 1.292822e+03 1.058149e+04 -7.079052e+02 8.773411e+03 -1.885978e+03 8.717873e+03 5.213922e+03 1.487753e+04 5.773765e+03 1.275005e+04 4.891397e+03 1.119084e+04 4.433923e+03 9.992722e+03 4.162433e+03 9.012675e+03 3.976795e+03 8.160868e+03 3.817825e+03 7.455373e+03 3.660927e+03 6.936074e+03 3.613801e+03 6.773222e+03 2.554415e+03 -4.919345e+02 -6.429780e+03 -3.608356e+03 -8.202859e+03 -4.537114e+03 -1.107189e+04 
5.975594e+03 1.482254e+04 1.276101e+04 1.601297e+04 2.500013e+04 1.500148e+04 -7.198629e+04 -1.171297e+04 -2.649711e+04 -3.735936e+04 -2.024479e+03 1.334026e+04 -1.606588e+04 3.570476e+04 1.124167e+04 4.532994e+04 3.362938e+04 -1.883963e+04 3.883607e+04 -8.916570e+04 -1.939960e+05 -5.589229e+04 1.621939e+05 2.822931e+05 2.448771e+05 -2.830479e+03 6.137149e+03 -7.439048e+04 1.374701e+04 -4.062214e+04 2.306952e+04 -5.243567e+03 1.494042e+04 -2.206791e+03 1.103969e+04 -2.087278e+03 8.501934e+03 -2.388087e+03 8.011056e+03 5.637508e+03 1.453144e+04 7.122978e+03 1.276299e+04 7.075187e+03 1.154851e+04 7.324711e+03 1.074126e+04 7.781315e+03 1.022984e+04 8.392238e+03 9.929137e+03 9.161140e+03 9.901449e+03 1.015506e+04 1.021705e+04 1.150920e+04 1.093490e+04 1.209904e+04 4.852392e+03 5.825198e+03 3.599046e+03 7.750342e+03 4.873378e+03 1.064140e+04 