# vtk DataFile Version 2.0
Comment goes here
ASCII

DATASET STRUCTURED_POINTS
DIMENSIONS    64   64   1

ORIGIN    0.000   0.000   0.000
SPACING   0.031250.03125   1.000

POINT_DATA   4096
SCALARS P double
LOOKUP_TABLE default

-8.912620e+02 -8.952165e+02 -8.901411e+02 -8.930293e+02 -8.870158e+02 -8.889436e+02 -8.821629e+02 -8.833576e+02 -8.761142e+02 -8.769521e+02 -8.696916e+02 -8.706835e+02 -8.639422e+02 -8.656505e+02 -8.599408e+02 -8.628400e+02 -8.585052e+02 -8.628401e+02 -8.599417e+02 -8.656506e+02 -8.639438e+02 -8.706835e+02 -8.696935e+02 -8.769520e+02 -8.761160e+02 -8.833573e+02 -8.821644e+02 -8.889433e+02 -8.870168e+02 -8.930292e+02 -8.901415e+02 -8.952168e+02 -8.912618e+02 -8.953315e+02 -8.902939e+02 -8.933705e+02 -8.873176e+02 -8.895018e+02 -8.826050e+02 -8.841166e+02 -8.766827e+02 -8.778872e+02 -8.703666e+02 -8.717610e+02 -8.646983e+02 -8.668284e+02 -8.607477e+02 -8.640698e+02 -8.593294e+02 -8.640698e+02 -8.607487e+02 -8.668282e+02 -8.647001e+02 -8.717606e+02 -8.703689e+02 -8.778865e+02 -8.766849e+02 -8.841156e+02 -8.826070e+02 -8.895008e+02 -8.873191e+02 -8.933696e+02 -8.902947e+02 -8.953309e+02 
-8.996376e+02 -9.029961e+02 -8.985602e+02 -9.009283e+02 -8.956149e+02 -8.970841e+02 -8.910428e+02 -8.918156e+02 -8.853247e+02 -8.857469e+02 -8.792258e+02 -8.797788e+02 -8.737432e+02 -8.749671e+02 -8.699153e+02 -8.722730e+02 -8.685400e+02 -8.722737e+02 -8.699175e+02 -8.749692e+02 -8.737471e+02 -8.797817e+02 -8.792307e+02 -8.857499e+02 -8.853295e+02 -8.918183e+02 -8.910469e+02 -8.970862e+02 -8.956177e+02 -9.009297e+02 -8.985614e+02 -9.029966e+02 -8.996370e+02 -9.031380e+02 -8.987730e+02 -9.013504e+02 -8.960362e+02 -8.977759e+02 -8.916623e+02 -8.927580e+02 -8.861245e+02 -8.869103e+02 -8.801798e+02 -8.811222e+02 -8.748158e+02 -8.764381e+02 -8.710630e+02 -8.738103e+02 -8.697135e+02 -8.738110e+02 -8.710655e+02 -8.764400e+02 -8.748202e+02 -8.811249e+02 -8.801854e+02 -8.869132e+02 -8.861303e+02 -8.927605e+02 -8.916674e+02 -8.977778e+02 -8.960402e+02 -9.013516e+02 -8.987753e+02 -9.031383e+02 
-8.924185e+02 -8.963613e+02 -8.912408e+02 -8.940593e+02 -8.879404e+02 -8.897338e+02 -8.827830e+02 -8.837768e+02 -8.763057e+02 -8.768916e+02 -8.693747e+02 -8.701036e+02 -8.631287e+02 -8.646222e+02 -8.587609e+02 -8.615505e+02 -8.571900e+02 -8.615505e+02 -8.587620e+02 -8.646223e+02 -8.631305e+02 -8.701037e+02 -8.693768e+02 -8.768915e+02 -8.763077e+02 -8.837765e+02 -8.827846e+02 -8.897335e+02 -8.879415e+02 -8.940591e+02 -8.912412e+02 -8.963615e+02 -8.924182e+02 -8.964774e+02 -8.913951e+02 -8.944042e+02 -8.882456e+02 -8.902990e+02 -8.832308e+02 -8.845467e+02 -8.768825e+02 -8.778419e+02 -8.700609e+02 -8.712005e+02 -8.638985e+02 -8.658229e+02 -8.595832e+02 -8.628050e+02 -8.580302e+02 -8.628049e+02 -8.595844e+02 -8.658227e+02 -8.639005e+02 -8.712002e+02 -8.700634e+02 -8.778412e+02 -8.768850e+02 -8.845457e+02 -8.832328e+02 -8.902979e+02 -8.882471e+02 -8.944032e+02 -8.913960e+02 -8.964768e+02 
-9.018111e+02 -9.051477e+02 -9.006318e+02 -9.028743e+02 -8.973703e+02 -8.985950e+02 -8.922393e+02 -8.926403e+02 -8.857197e+02 -8.856672e+02 -8.786546e+02 -8.787042e+02 -8.722155e+02 -8.730224e+02 -8.676754e+02 -8.698172e+02 -8.660360e+02 -8.698181e+02 -8.676781e+02 -8.730249e+02 -8.722202e+02 -8.787076e+02 -8.786603e+02 -8.856707e+02 -8.857254e+02 -8.926433e+02 -8.922440e+02 -8.985973e+02 -8.973735e+02 -9.028757e+02 -9.006331e+02 -9.051483e+02 -9.018104e+02 -9.052930e+02 -9.008495e+02 -9.033073e+02 -8.978027e+02 -8.993068e+02 -8.928774e+02 -8.936136e+02 -8.865474e+02 -8.868738e+02 -8.796463e+02 -8.801028e+02 -8.733349e+02 -8.745585e+02 -8.688763e+02 -8.714252e+02 -8.672650e+02 -8.714261e+02 -8.688793e+02 -8.745609e+02 -8.733402e+02 -8.801060e+02 -8.796528e+02 -8.868771e+02 -8.865540e+02 -8.936164e+02 -8.928832e+02 -8.993089e+02 -8.978070e+02 -9.033085e+02 -9.008521e+02 -9.052934e+02 
-8.960332e+02 -8.999424e+02 -8.946920e+02 -8.973075e+02 -8.908782e+02 -8.922704e+02 -8.848031e+02 -8.851793e+02 -8.769967e+02 -8.767868e+02 -8.684503e+02 -8.683316e+02 -8.605975e+02 -8.613897e+02 -8.550309e+02 -8.574611e+02 -8.530150e+02 -8.574612e+02 -8.550322e+02 -8.613901e+02 -8.605998e+02 -8.683319e+02 -8.684530e+02 -8.767866e+02 -8.769992e+02 -8.851788e+02 -8.848050e+02 -8.922698e+02 -8.908794e+02 -8.973071e+02 -8.946924e+02 -8.999425e+02 -8.960330e+02 -9.000623e+02 -8.948515e+02 -8.976645e+02 -8.911947e+02 -8.928580e+02 -8.852699e+02 -8.859842e+02 -8.776017e+02 -8.777864e+02 -8.691742e+02 -8.694919e+02 -8.614134e+02 -8.626651e+02 -8.559051e+02 -8.587965e+02 -8.539092e+02 -8.587966e+02 -8.559066e+02 -8.626651e+02 -8.614160e+02 -8.694916e+02 -8.691773e+02 -8.777856e+02 -8.776046e+02 -8.859830e+02 -8.852723e+02 -8.928566e+02 -8.911963e+02 -8.976632e+02 -8.948524e+02 -9.000615e+02 
-9.064284e+02 -9.097247e+02 -9.050617e+02 -9.070691e+02 -9.011994e+02 -9.019449e+02 -8.949532e+02 -8.945880e+02 -8.867563e+02 -8.856818e+02 -8.775872e+02 -8.765168e+02 -8.690044e+02 -8.688639e+02 -8.628390e+02 -8.644861e+02 -8.605913e+02 -8.644875e+02 -8.628427e+02 -8.688676e+02 -8.690110e+02 -8.765216e+02 -8.775949e+02 -8.856864e+02 -8.867637e+02 -8.945917e+02 -8.949590e+02 -9.019474e+02 -9.012033e+02 -9.070706e+02 -9.050633e+02 -9.097252e+02 -9.064277e+02 -9.098762e+02 -9.052881e+02 -9.075220e+02 -9.016516e+02 -9.026939e+02 -8.956261e+02 -8.956206e+02 -8.876379e+02 -8.869735e+02 -8.786539e+02 -8.780266e+02 -8.702185e+02 -8.705329e+02 -8.641487e+02 -8.662394e+02 -8.619343e+02 -8.662407e+02 -8.641528e+02 -8.705364e+02 -8.702256e+02 -8.780311e+02 -8.786624e+02 -8.869778e+02 -8.876462e+02 -8.956241e+02 -8.956331e+02 -9.026963e+02 -9.016567e+02 -9.075232e+02 -9.052910e+02 -9.098765e+02 
-9.025503e+02 -9.064104e+02 -9.009682e+02 -9.032777e+02 -8.963617e+02 -8.971064e+02 -8.887683e+02 -8.880741e+02 -8.786123e+02 -8.769383e+02 -8.670535e+02 -8.653063e+02 -8.560891e+02 -8.554993e+02 -8.481492e+02 -8.498666e+02 -8.452437e+02 -8.498670e+02 -8.481513e+02 -8.555001e+02 -8.560926e+02 -8.653069e+02 -8.670574e+02 -8.769381e+02 -8.786156e+02 -8.880731e+02 -8.887706e+02 -8.971051e+02 -8.963629e+02 -9.032768e+02 -9.009687e+02 -9.064104e+02 -9.025500e+02 -9.065361e+02 -9.011356e+02 -9.036534e+02 -8.966960e+02 -8.977297e+02 -8.892664e+02 -8.889372e+02 -8.792652e+02 -8.780223e+02 -8.678432e+02 -8.665774e+02 -8.569869e+02 -8.569070e+02 -8.491164e+02 -8.513465e+02 -8.462348e+02 -8.513468e+02 -8.491187e+02 -8.569074e+02 -8.569908e+02 -8.665774e+02 -8.678476e+02 -8.780214e+02 -8.792690e+02 -8.889354e+02 -8.892693e+02 -8.977276e+02 -8.966978e+02 -9.036516e+02 -9.011366e+02 -9.065351e+02 
-9.140417e+02 -9.172895e+02 -9.124526e+02 -9.141670e+02 -9.078127e+02 -9.078909e+02 -8.999514e+02 -8.983989e+02 -8.890753e+02 -8.862788e+02 -8.762871e+02 -8.732148e+02 -8.638250e+02 -8.619297e+02 -8.546288e+02 -8.553472e+02 -8.512310e+02 -8.553495e+02 -8.546347e+02 -8.619357e+02 -8.638349e+02 -8.732221e+02 -8.762982e+02 -8.862853e+02 -8.890854e+02 -8.984036e+02 -8.999590e+02 -9.078936e+02 -9.078174e+02 -9.141684e+02 -9.124546e+02 -9.172899e+02 -9.140410e+02 -9.174485e+02 -9.126892e+02 -9.146452e+02 -9.082898e+02 -9.086903e+02 -9.006719e+02 -8.995165e+02 -8.900354e+02 -8.876981e+02 -8.774683e+02 -8.748973e+02 -8.651883e+02 -8.638100e+02 -8.561133e+02 -8.573344e+02 -8.527583e+02 -8.573366e+02 -8.561196e+02 -8.638158e+02 -8.651989e+02 -8.749042e+02 -8.774803e+02 -8.877042e+02 -8.900466e+02 -8.995208e+02 -9.006808e+02 -9.086928e+02 -9.082959e+02 -9.146463e+02 -9.126925e+02 -9.174487e+02 
-9.127186e+02 -9.165329e+02 -9.109017e+02 -9.128911e+02 -9.054096e+02 -9.053487e+02 -8.958205e+02 -8.935822e+02 -8.821436e+02 -8.781167e+02 -8.656290e+02 -8.610684e+02 -8.492261e+02 -8.461535e+02 -8.370036e+02 -8.374319e+02 -8.324702e+02 -8.374328e+02 -8.370071e+02 -8.461555e+02 -8.492318e+02 -8.610697e+02 -8.656349e+02 -8.781163e+02 -8.821482e+02 -8.935803e+02 -8.958233e+02 -9.053463e+02 -9.054108e+02 -9.128892e+02 -9.109020e+02 -9.165325e+02 -9.127183e+02 -9.166648e+02 -9.110779e+02 -9.132882e+02 -9.057656e+02 -9.060168e+02 -8.963599e+02 -8.945235e+02 -8.828642e+02 -8.793212e+02 -8.665160e+02 -8.625042e+02 -8.502483e+02 -8.477628e+02 -8.381139e+02 -8.391343e+02 -8.336111e+02 -8.391350e+02 -8.381177e+02 -8.477643e+02 -8.502545e+02 -8.625049e+02 -8.665226e+02 -8.793200e+02 -8.828694e+02 -8.945207e+02 -8.963633e+02 -9.060134e+02 -9.057674e+02 -9.132854e+02 -9.110787e+02 -9.166634e+02 
-9.254826e+02 -9.286991e+02 -9.237646e+02 -9.252652e+02 -9.184728e+02 -9.178535e+02 -9.087514e+02 -9.056210e+02 -8.941017e+02 -8.886460e+02 -8.755321e+02 -8.690653e+02 -8.563752e+02 -8.513480e+02 -8.417280e+02 -8.407583e+02 -8.362201e+02 -8.407627e+02 -8.417379e+02 -8.513587e+02 -8.563912e+02 -8.690771e+02 -8.755491e+02 -8.886553e+02 -8.941159e+02 -9.056266e+02 -9.087612e+02 -9.178560e+02 -9.184783e+02 -9.252659e+02 -9.237666e+02 -9.286992e+02 -9.254818e+02 -9.288645e+02 -9.240085e+02 -9.257674e+02 -9.189729e+02 -9.187078e+02 -9.095252e+02 -9.068424e+02 -8.951616e+02 -8.902351e+02 -8.768711e+02 -8.709915e+02 -8.579544e+02 -8.535376e+02 -8.434722e+02 -8.430945e+02 -8.380236e+02 -8.430987e+02 -8.434826e+02 -8.535478e+02 -8.579711e+02 -8.710027e+02 -8.768892e+02 -8.902438e+02 -8.951770e+02 -9.068476e+02 -9.095364e+02 -9.187100e+02 -9.189799e+02 -9.257680e+02 -9.240121e+02 -9.288645e+02 
-9.275655e+02 -9.313807e+02 -9.257230e+02 -9.276026e+02 -9.197498e+02 -9.190012e+02 -9.081569e+02 -9.039986e+02 -8.897580e+02 -8.821700e+02 -8.654495e+02 -8.561221e+02 -8.396890e+02 -8.321772e+02 -8.198011e+02 -8.179193e+02 -8.123001e+02 -8.179214e+02 -8.198074e+02 -8.321820e+02 -8.396988e+02 -8.561251e+02 -8.654589e+02 -8.821692e+02 -8.897643e+02 -9.039948e+02 -9.081597e+02 -9.189963e+02 -9.197504e+02 -9.275989e+02 -9.257227e+02 -9.313796e+02 -9.275653e+02 -9.315165e+02 -9.259052e+02 -9.280170e+02 -9.201254e+02 -9.197139e+02 -9.087424e+02 -9.050320e+02 -8.905651e+02 -8.835321e+02 -8.664714e+02 -8.577884e+02 -8.408908e+02 -8.340784e+02 -8.211211e+02 -8.199489e+02 -8.136610e+02 -8.199508e+02 -8.211278e+02 -8.340825e+02 -8.409012e+02 -8.577905e+02 -8.664817e+02 -8.835304e+02 -8.905723e+02 -9.050271e+02 -9.087460e+02 -9.197080e+02 -9.201265e+02 -9.280122e+02 -9.259054e+02 -9.315144e+02 
-9.417978e+02 -9.450584e+02 -9.403386e+02 -9.420287e+02 -9.352668e+02 -9.343550e+02 -9.242361e+02 -9.193873e+02 -9.049180e+02 -8.955774e+02 -8.774196e+02 -8.652195e+02 -8.466823e+02 -8.359885e+02 -8.221031e+02 -8.180108e+02 -8.126387e+02 -8.180195e+02 -8.221210e+02 -8.360088e+02 -8.467092e+02 -8.652393e+02 -8.774461e+02 -8.955906e+02 -9.049378e+02 -9.193933e+02 -9.242479e+02 -9.343559e+02 -9.352723e+02 -9.420275e+02 -9.403401e+02 -9.450577e+02 -9.417969e+02 -9.452248e+02 -9.405795e+02 -9.425419e+02 -9.357750e+02 -9.352529e+02 -9.250549e+02 -9.207181e+02 -9.060916e+02 -8.973755e+02 -8.789654e+02 -8.674745e+02 -8.485647e+02 -8.386189e+02 -8.242262e+02 -8.208593e+02 -8.148502e+02 -8.208678e+02 -8.242446e+02 -8.386384e+02 -8.485926e+02 -8.674933e+02 -8.789932e+02 -8.973879e+02 -9.061129e+02 -9.207235e+02 -9.250684e+02 -9.352536e+02 -9.357822e+02 -9.425408e+02 -9.405828e+02 -9.452242e+02 
-9.482440e+02 -9.522007e+02 -9.470324e+02 -9.495218e+02 -9.421599e+02 -9.415664e+02 -9.299190e+02 -9.239682e+02 -9.061535e+02 -8.934615e+02 -8.699007e+02 -8.523969e+02 -8.277499e+02 -8.120560e+02 -7.938598e+02 -7.877522e+02 -7.807657e+02 -7.877570e+02 -7.938717e+02 -8.120676e+02 -8.277675e+02 -8.524031e+02 -8.699162e+02 -8.934595e+02 -9.061617e+02 -9.239605e+02 -9.299207e+02 -9.415569e+02 -9.421584e+02 -9.495145e+02 -9.470307e+02 -9.521983e+02 -9.482438e+02 -9.523339e+02 -9.472113e+02 -9.499365e+02 -9.425420e+02 -9.423072e+02 -9.305454e+02 -9.250940e+02 -9.070640e+02 -8.950184e+02 -8.711068e+02 -8.543797e+02 -8.292111e+02 -8.143773e+02 -7.954865e+02 -7.902624e+02 -7.824479e+02 -7.902668e+02 -7.954990e+02 -8.143879e+02 -8.292297e+02 -8.543847e+02 -8.711236e+02 -8.950151e+02 -9.070733e+02 -9.250850e+02 -9.305479e+02 -9.422965e+02 -9.425411e+02 -9.499281e+02 -9.472100e+02 -9.523304e+02 
-9.639891e+02 -9.674920e+02 -9.637911e+02 -9.667710e+02 -9.614832e+02 -9.617467e+02 -9.518068e+02 -9.460015e+02 -9.281803e+02 -9.136003e+02 -8.873658e+02 -8.653485e+02 -8.361382e+02 -8.148207e+02 -7.928585e+02 -7.827195e+02 -7.755536e+02 -7.827385e+02 -7.928931e+02 -8.148619e+02 -8.361855e+02 -8.653820e+02 -8.874078e+02 -9.136180e+02 -9.282067e+02 -9.460054e+02 -9.518187e+02 -9.617427e+02 -9.614863e+02 -9.667655e+02 -9.637906e+02 -9.674895e+02 -9.639882e+02 -9.676468e+02 -9.640060e+02 -9.672621e+02 -9.619614e+02 -9.626487e+02 -9.526362e+02 -9.474207e+02 -9.294659e+02 -9.156378e+02 -8.891777e+02 -8.680409e+02 -8.384491e+02 -8.180837e+02 -7.955431e+02 -7.863366e+02 -7.783788e+02 -7.863549e+02 -7.955783e+02 -8.181232e+02 -8.384976e+02 -8.680729e+02 -8.892214e+02 -9.156543e+02 -9.294943e+02 -9.474240e+02 -9.526501e+02 -9.626446e+02 -9.619664e+02 -9.672568e+02 -9.640075e+02 -9.676446e+02 
-9.755347e+02 -9.799622e+02 -9.765014e+02 -9.813677e+02 -9.768448e+02 -9.789618e+02 -9.688037e+02 -9.628620e+02 -9.415668e+02 -9.223481e+02 -8.877800e+02 -8.558949e+02 -8.158267e+02 -7.842576e+02 -7.556293e+02 -7.413674e+02 -7.310487e+02 -7.413776e+02 -7.556527e+02 -7.842863e+02 -8.158599e+02 -8.559060e+02 -8.878057e+02 -9.223419e+02 -9.415755e+02 -9.628457e+02 -9.688007e+02 -9.789434e+02 -9.768380e+02 -9.813540e+02 -9.764965e+02 -9.799575e+02 -9.755346e+02 -9.800783e+02 -9.766561e+02 -9.817447e+02 -9.772001e+02 -9.796842e+02 -9.694447e+02 -9.640542e+02 -9.425925e+02 -9.241345e+02 -8.892469e+02 -8.583226e+02 -8.176818e+02 -7.872019e+02 -7.577186e+02 -7.446042e+02 -7.332077e+02 -7.446138e+02 -7.577430e+02 -7.872290e+02 -8.177168e+02 -8.583320e+02 -8.892744e+02 -9.241268e+02 -9.426028e+02 -9.640365e+02 -9.694427e+02 -9.796645e+02 -9.771938e+02 -9.817298e+02 -9.766515e+02 -9.800726e+02 
-9.922424e+02 -9.964279e+02 -9.954697e+02 -1.002207e+03 -1.001905e+03 -1.007195e+03 -1.001384e+03 -9.980602e+02 -9.783424e+02 -9.581102e+02 -9.193041e+02 -8.802093e+02 -8.306768e+02 -7.884951e+02 -7.505416e+02 -7.276147e+02 -7.159326e+02 -7.276583e+02 -7.506136e+02 -7.885840e+02 -8.307623e+02 -8.802638e+02 -9.193705e+02 -9.581299e+02 -9.783737e+02 -9.980553e+02 -1.001390e+03 -1.007179e+03 -1.001900e+03 -1.002192e+03 -9.954642e+02 -9.964218e+02 -9.922414e+02 -9.965474e+02 -9.956162e+02 -1.002610e+03 -1.002276e+03 -1.008012e+03 -1.002139e+03 -9.994981e+02 -9.797064e+02 -9.603990e+02 -9.214687e+02 -8.834931e+02 -8.336200e+02 -7.926952e+02 -7.540958e+02 -7.324454e+02 -7.197183e+02 -7.324876e+02 -7.541682e+02 -7.927806e+02 -8.337072e+02 -8.835449e+02 -9.215376e+02 -9.604171e+02 -9.797404e+02 -9.994926e+02 -1.002148e+03 -1.007997e+03 -1.002273e+03 -1.002596e+03 -9.956126e+02 -9.965421e+02 
-1.008526e+03 -1.014099e+03 -1.014784e+03 -1.025719e+03 -1.029382e+03 -1.040455e+03 -1.038618e+03 -1.039341e+03 -1.018513e+03 -9.940141e+02 -9.424627e+02 -8.847046e+02 -8.131090e+02 -7.488411e+02 -7.029977e+02 -6.699193e+02 -6.488184e+02 -6.699375e+02 -7.030432e+02 -7.489120e+02 -8.131760e+02 -8.847176e+02 -9.425038e+02 -9.939949e+02 -1.018516e+03 -1.039307e+03 -1.038602e+03 -1.040420e+03 -1.029364e+03 -1.025694e+03 -1.014773e+03 -1.014090e+03 -1.008526e+03 -1.014172e+03 -1.014875e+03 -1.025985e+03 -1.029640e+03 -1.041059e+03 -1.039204e+03 -1.040522e+03 -1.019651e+03 -9.960589e+02 -9.443373e+02 -8.878113e+02 -8.156404e+02 -7.527805e+02 -7.058289e+02 -6.743090e+02 -6.516991e+02 -6.743263e+02 -7.058756e+02 -7.528483e+02 -8.157103e+02 -8.878221e+02 -9.443816e+02 -9.960378e+02 -1.019656e+03 -1.040486e+03 -1.039189e+03 -1.041023e+03 -1.029622e+03 -1.025959e+03 -1.014864e+03 -1.014162e+03 
-1.023983e+03 -1.029729e+03 -1.034698e+03 -1.050032e+03 -1.062186e+03 -1.081254e+03 -1.090299e+03 -1.100209e+03 -1.087071e+03 -1.066418e+03 -1.010302e+03 -9.414769e+02 -8.519461e+02 -7.670647e+02 -6.928460e+02 -6.377887e+02 -6.136729e+02 -6.378924e+02 -6.930073e+02 -7.672657e+02 -8.521022e+02 -9.415517e+02 -1.010405e+03 -1.066427e+03 -1.087097e+03 -1.100178e+03 -1.090284e+03 -1.081212e+03 -1.062162e+03 -1.049999e+03 -1.034681e+03 -1.029717e+03 -1.023982e+03 -1.029774e+03 -1.034707e+03 -1.050232e+03 -1.062310e+03 -1.081816e+03 -1.090795e+03 -1.101506e+03 -1.088404e+03 -1.068944e+03 -1.013005e+03 -9.456306e+02 -8.559342e+02 -7.727490e+02 -6.978463e+02 -6.446794e+02 -6.190166e+02 -6.447807e+02 -6.980073e+02 -7.729419e+02 -8.560926e+02 -9.457010e+02 -1.013112e+03 -1.068952e+03 -1.088433e+03 -1.101475e+03 -1.090783e+03 -1.081775e+03 -1.062289e+03 -1.050200e+03 -1.034693e+03 -1.029763e+03 
-1.041595e+03 -1.049539e+03 -1.058478e+03 -1.082124e+03 -1.104565e+03 -1.137878e+03 -1.161913e+03 -1.188893e+03 -1.186679e+03 -1.172270e+03 -1.100838e+03 -9.974988e+02 -8.497462e+02 -7.176169e+02 -6.638927e+02 -5.565554e+02 -4.967525e+02 -5.565596e+02 -6.639552e+02 -7.177654e+02 -8.499049e+02 -9.974903e+02 -1.100890e+03 -1.172212e+03 -1.186654e+03 -1.188820e+03 -1.161867e+03 -1.137812e+03 -1.104525e+03 -1.082081e+03 -1.058456e+03 -1.049524e+03 -1.041596e+03 -1.049526e+03 -1.058439e+03 -1.082154e+03 -1.104594e+03 -1.138173e+03 -1.162275e+03 -1.189884e+03 -1.187865e+03 -1.174592e+03 -1.103475e+03 -1.001864e+03 -8.537658e+02 -7.234105e+02 -6.680023e+02 -5.628877e+02 -5.007268e+02 -5.628913e+02 -6.680651e+02 -7.235518e+02 -8.539302e+02 -1.001854e+03 -1.103533e+03 -1.174532e+03 -1.187844e+03 -1.189808e+03 -1.162230e+03 -1.138106e+03 -1.104554e+03 -1.082109e+03 -1.058416e+03 -1.049510e+03 
-1.049671e+03 -1.058531e+03 -1.074213e+03 -1.106244e+03 -1.144607e+03 -1.194970e+03 -1.245049e+03 -1.297744e+03 -1.324199e+03 -1.334021e+03 -1.266720e+03 -1.146723e+03 -9.848694e+02 -8.368089e+02 -6.558078e+02 -4.757694e+02 -3.734111e+02 -4.758681e+02 -6.561040e+02 -8.371605e+02 -9.851945e+02 -1.146778e+03 -1.266888e+03 -1.333976e+03 -1.324185e+03 -1.297649e+03 -1.244980e+03 -1.194877e+03 -1.144545e+03 -1.106181e+03 -1.074179e+03 -1.058509e+03 -1.049670e+03 -1.058442e+03 -1.073992e+03 -1.106055e+03 -1.144261e+03 -1.194963e+03 -1.244902e+03 -1.298565e+03 -1.325149e+03 -1.336784e+03 -1.270556e+03 -1.152528e+03 -9.910782e+02 -8.457015e+02 -6.636990e+02 -4.864050e+02 -3.814549e+02 -4.865026e+02 -6.639905e+02 -8.460312e+02 -9.914075e+02 -1.152578e+03 -1.270731e+03 -1.336738e+03 -1.325140e+03 -1.298471e+03 -1.244836e+03 -1.194872e+03 -1.144201e+03 -1.105994e+03 -1.073960e+03 -1.058422e+03 
-1.058698e+03 -1.070892e+03 -1.093249e+03 -1.139202e+03 -1.197643e+03 -1.276980e+03 -1.366575e+03 -1.469866e+03 -1.552446e+03 -1.628245e+03 -1.576734e+03 -1.419470e+03 -1.103857e+03 -7.716273e+02 -5.434271e+02 -2.962526e+02 -2.019435e+02 -2.966269e+02 -5.440215e+02 -7.718275e+02 -1.103907e+03 -1.419390e+03 -1.576732e+03 -1.628070e+03 -1.552348e+03 -1.469717e+03 -1.366470e+03 -1.276865e+03 -1.197567e+03 -1.139131e+03 -1.093211e+03 -1.070868e+03 -1.058698e+03 -1.070732e+03 -1.092987e+03 -1.138792e+03 -1.197220e+03 -1.276606e+03 -1.366338e+03 -1.470254e+03 -1.553342e+03 -1.630843e+03 -1.581106e+03 -1.427309e+03 -1.113479e+03 -7.825372e+02 -5.496678e+02 -3.043363e+02 -2.051016e+02 -3.047190e+02 -5.502528e+02 -7.827122e+02 -1.113545e+03 -1.427231e+03 -1.581115e+03 -1.630666e+03 -1.553246e+03 -1.470101e+03 -1.366231e+03 -1.276489e+03 -1.197142e+03 -1.138720e+03 -1.092947e+03 -1.070708e+03 
-1.045781e+03 -1.059975e+03 -1.090866e+03 -1.149704e+03 -1.233491e+03 -1.343656e+03 -1.490296e+03 -1.656768e+03 -1.842836e+03 -2.034566e+03 -2.030987e+03 -1.820487e+03 -1.489322e+03 -1.176023e+03 -7.671426e+02 -3.241377e+02 -1.805853e+02 -3.250378e+02 -7.686101e+02 -1.176728e+03 -1.489630e+03 -1.820749e+03 -2.031070e+03 -2.034381e+03 -1.842635e+03 -1.656531e+03 -1.490101e+03 -1.343476e+03 -1.233365e+03 -1.149598e+03 -1.090806e+03 -1.059939e+03 -1.045780e+03 -1.059682e+03 -1.090333e+03 -1.148867e+03 -1.232400e+03 -1.342515e+03 -1.488764e+03 -1.656284e+03 -1.842041e+03 -2.037810e+03 -2.038500e+03 -1.831400e+03 -1.504519e+03 -1.190918e+03 -7.789459e+02 -3.415863e+02 -1.912253e+02 -3.425151e+02 -7.803736e+02 -1.191545e+03 -1.504850e+03 -1.831668e+03 -2.038596e+03 -2.037628e+03 -1.841847e+03 -1.656050e+03 -1.488573e+03 -1.342338e+03 -1.232275e+03 -1.148765e+03 -1.090274e+03 -1.059650e+03 
-1.026152e+03 -1.044634e+03 -1.082629e+03 -1.158982e+03 -1.270619e+03 -1.425699e+03 -1.651096e+03 -1.930023e+03 -2.327331e+03 -2.793874e+03 -2.913156e+03 -2.636836e+03 -1.390457e+03 6.089330e+02 2.319056e+03 3.350321e+03 3.650683e+03 3.349702e+03 2.316931e+03 6.080990e+02 -1.389996e+03 -2.636946e+03 -2.913073e+03 -2.793551e+03 -2.327019e+03 -1.929746e+03 -1.650871e+03 -1.425505e+03 -1.270487e+03 -1.158874e+03 -1.082571e+03 -1.044599e+03 -1.026153e+03 -1.044259e+03 -1.082048e+03 -1.157867e+03 -1.269439e+03 -1.424007e+03 -1.649509e+03 -1.928663e+03 -2.326531e+03 -2.795763e+03 -2.920284e+03 -2.654267e+03 -1.429092e+03 5.620681e+02 2.285188e+03 3.313653e+03 3.617705e+03 3.313003e+03 2.283141e+03 5.612682e+02 -1.428723e+03 -2.654409e+03 -2.920222e+03 -2.795426e+03 -2.326212e+03 -1.928379e+03 -1.649279e+03 -1.423812e+03 -1.269304e+03 -1.157759e+03 -1.081987e+03 -1.044225e+03 
-9.693072e+02 -9.906473e+02 -1.034196e+03 -1.123695e+03 -1.261038e+03 -1.457066e+03 -1.773594e+03 -2.179518e+03 -2.886746e+03 -3.566533e+03 -3.429555e+03 -1.105715e+03 3.209316e+03 6.577584e+03 8.018439e+03 8.564617e+03 8.636600e+03 8.564810e+03 8.017260e+03 6.577117e+03 3.208873e+03 -1.106931e+03 -3.429334e+03 -3.565734e+03 -2.885946e+03 -2.178976e+03 -1.773188e+03 -1.456763e+03 -1.260840e+03 -1.123544e+03 -1.034116e+03 -9.906009e+02 -9.693074e+02 -9.901127e+02 -1.033378e+03 -1.121982e+03 -1.259109e+03 -1.453913e+03 -1.769702e+03 -2.174994e+03 -2.878059e+03 -3.565781e+03 -3.447986e+03 -1.155546e+03 3.144064e+03 6.538959e+03 8.009406e+03 8.558443e+03 8.633369e+03 8.558629e+03 8.008265e+03 6.538392e+03 3.143575e+03 -1.156700e+03 -3.447805e+03 -3.564989e+03 -2.877268e+03 -2.174456e+03 -1.769298e+03 -1.453616e+03 -1.258912e+03 -1.121836e+03 -1.033298e+03 -9.900703e+02 
-8.939369e+02 -9.189800e+02 -9.626923e+02 -1.062529e+03 -1.213862e+03 -1.444666e+03 -1.833098e+03 -2.355862e+03 -3.303776e+03 -3.894780e+03 -1.750424e+03 3.291541e+03 7.360724e+03 8.613282e+03 8.707604e+03 8.614020e+03 8.548823e+03 8.614005e+03 8.707041e+03 8.612825e+03 7.359778e+03 3.290697e+03 -1.749946e+03 -3.894154e+03 -3.302935e+03 -2.355268e+03 -1.832670e+03 -1.444354e+03 -1.213673e+03 -1.062386e+03 -9.626229e+02 -9.189379e+02 -8.939381e+02 -9.183788e+02 -9.618023e+02 -1.060543e+03 -1.211722e+03 -1.440822e+03 -1.828850e+03 -2.350143e+03 -3.296168e+03 -3.915096e+03 -1.801620e+03 3.231387e+03 7.329430e+03 8.618292e+03 8.718011e+03 8.624391e+03 8.558695e+03 8.624382e+03 8.717452e+03 8.617776e+03 7.328535e+03 3.230606e+03 -1.801194e+03 -3.914402e+03 -3.295285e+03 -2.349542e+03 -1.828413e+03 -1.440512e+03 -1.211530e+03 -1.060403e+03 -9.617305e+02 -9.183397e+02 
-7.713523e+02 -7.983020e+02 -8.350882e+02 -9.342008e+02 -1.077090e+03 -1.313719e+03 -1.713585e+03 -2.265119e+03 -3.276920e+03 -2.642546e+03 1.955479e+03 6.006397e+03 7.459732e+03 7.730500e+03 7.949595e+03 8.048304e+03 8.096592e+03 8.048225e+03 7.949347e+03 7.730570e+03 7.460590e+03 6.007934e+03 1.957370e+03 -2.641266e+03 -3.275574e+03 -2.264199e+03 -1.713044e+03 -1.313325e+03 -1.076886e+03 -9.340398e+02 -8.350203e+02 -7.982571e+02 -7.713535e+02 -7.976290e+02 -8.342580e+02 -9.318281e+02 -1.075103e+03 -1.308336e+03 -1.709904e+03 -2.253750e+03 -3.273767e+03 -2.692585e+03 1.887360e+03 5.977360e+03 7.463521e+03 7.737291e+03 7.955676e+03 8.052447e+03 8.101149e+03 8.052366e+03 7.955431e+03 7.737350e+03 7.464389e+03 5.978876e+03 1.889191e+03 -2.691230e+03 -3.272381e+03 -2.252832e+03 -1.709359e+03 -1.307951e+03 -1.074897e+03 -9.316730e+02 -8.341879e+02 -7.975886e+02 
-6.285797e+02 -6.560657e+02 -6.784297e+02 -7.668146e+02 -8.743276e+02 -1.092299e+03 -1.412889e+03 -1.938249e+03 -2.617397e+03 -9.385214e+01 4.439226e+03 6.099834e+03 6.789081e+03 7.396563e+03 7.647867e+03 7.818065e+03 7.832234e+03 7.818017e+03 7.647809e+03 7.396697e+03 6.789976e+03 6.101181e+03 4.440720e+03 -9.275520e+01 -2.615665e+03 -1.937033e+03 -1.412349e+03 -1.091912e+03 -8.741763e+02 -7.666856e+02 -6.783922e+02 -6.560332e+02 -6.285809e+02 -6.554087e+02 -6.775641e+02 -7.643540e+02 -8.720296e+02 -1.086067e+03 -1.407805e+03 -1.923052e+03 -2.619753e+03 -1.557157e+02 4.400043e+03 6.093124e+03 6.791246e+03 7.397111e+03 7.653017e+03 7.822526e+03 7.838246e+03 7.822479e+03 7.652960e+03 7.397237e+03 6.792142e+03 6.094484e+03 4.401525e+03 -1.546221e+02 -2.618063e+03 -1.921880e+03 -1.407277e+03 -1.085693e+03 -8.718788e+02 -7.642316e+02 -6.775245e+02 -6.553810e+02 
-4.512920e+02 -4.778200e+02 -4.795125e+02 -5.482332e+02 -5.990284e+02 -7.791408e+02 -9.535424e+02 -1.436766e+03 -1.360521e+03 2.302454e+03 5.318426e+03 5.927892e+03 6.337515e+03 6.891035e+03 7.130460e+03 7.302723e+03 7.351276e+03 7.302672e+03 7.130359e+03 6.891007e+03 6.337593e+03 5.927897e+03 5.317628e+03 2.301112e+03 -1.359904e+03 -1.435789e+03 -9.532684e+02 -7.788713e+02 -5.989841e+02 -5.481583e+02 -4.795158e+02 -4.778036e+02 -4.512945e+02 -4.773482e+02 -4.789607e+02 -5.463894e+02 -5.973332e+02 -7.739761e+02 -9.484598e+02 -1.421887e+03 -1.375371e+03 2.243888e+03 5.307397e+03 5.929799e+03 6.338751e+03 6.893984e+03 7.133429e+03 7.305692e+03 7.354521e+03 7.305642e+03 7.133333e+03 6.893961e+03 6.338850e+03 5.929835e+03 5.306652e+03 2.242631e+03 -1.374760e+03 -1.420979e+03 -9.482014e+02 -7.737267e+02 -5.972887e+02 -5.463216e+02 -4.789597e+02 -4.773356e+02 
-2.775161e+02 -2.993206e+02 -2.814921e+02 -3.188419e+02 -3.157782e+02 -4.209708e+02 -4.710456e+02 -7.807141e+02 -3.481197e+01 3.720485e+03 5.546195e+03 5.770730e+03 6.203627e+03 6.655815e+03 6.927512e+03 7.082232e+03 7.141552e+03 7.082169e+03 6.927404e+03 6.655630e+03 6.203320e+03 5.770049e+03 5.544761e+03 3.718019e+03 -3.566784e+01 -7.806105e+02 -4.712418e+02 -4.209945e+02 -3.159028e+02 -3.188701e+02 -2.815528e+02 -2.993298e+02 -2.775179e+02 -2.990702e+02 -2.811415e+02 -3.176671e+02 -3.143006e+02 -4.168379e+02 -4.653684e+02 -7.670616e+02 -6.519670e+01 3.656998e+03 5.528114e+03 5.765694e+03 6.197876e+03 6.654525e+03 6.928264e+03 7.083300e+03 7.143895e+03 7.083239e+03 6.928156e+03 6.654344e+03 6.197569e+03 5.765030e+03 5.526661e+03 3.654576e+03 -6.600950e+01 -7.669562e+02 -4.655544e+02 -4.168642e+02 -3.144193e+02 -3.176999e+02 -2.811982e+02 -2.990845e+02 
-1.060357e+02 -1.221080e+02 -8.623505e+01 -8.856880e+01 -3.710783e+01 -4.907028e+01 -4.363549e-01 -5.162787e+01 9.745192e+02 4.230293e+03 5.473607e+03 5.620950e+03 6.073797e+03 6.351710e+03 6.625277e+03 6.730265e+03 6.813518e+03 6.730189e+03 6.625125e+03 6.351444e+03 6.073348e+03 5.620100e+03 5.472320e+03 4.228381e+03 9.733837e+02 -5.217030e+01 -9.186890e-01 -4.933477e+01 -3.736084e+01 -8.869361e+01 -8.634799e+01 -1.221454e+02 -1.060405e+02 -1.222224e+02 -8.644134e+01 -8.893862e+01 -3.751745e+01 -4.972428e+01 -9.166811e-01 -5.300856e+01 9.312288e+02 4.181176e+03 5.465130e+03 5.616612e+03 6.070418e+03 6.350940e+03 6.625732e+03 6.730898e+03 6.814871e+03 6.730823e+03 6.625582e+03 6.350678e+03 6.069971e+03 5.615772e+03 5.463844e+03 4.179294e+03 9.301041e+02 -5.354529e+01 -1.392821e+00 -4.998747e+01 -3.776079e+01 -8.906292e+01 -8.654455e+01 -1.222595e+02 
2.647434e+01 1.703583e+01 6.616069e+01 9.584152e+01 1.838764e+02 2.525806e+02 3.726702e+02 5.168172e+02 1.544821e+03 4.304288e+03 5.419800e+03 5.565496e+03 6.050282e+03 6.252815e+03 6.544104e+03 6.625474e+03 6.721727e+03 6.625409e+03 6.544003e+03 6.252611e+03 6.050044e+03 5.565037e+03 5.419409e+03 4.303850e+03 1.544043e+03 5.158143e+02 3.719539e+02 2.521497e+02 1.835357e+02 9.565683e+01 6.601829e+01 1.698530e+01 2.647249e+01 1.650883e+01 6.535859e+01 9.398948e+01 1.819400e+02 2.484563e+02 3.685832e+02 5.077555e+02 1.500067e+03 4.266687e+03 5.413938e+03 5.559463e+03 6.047357e+03 6.250123e+03 6.543924e+03 6.624584e+03 6.722501e+03 6.624519e+03 6.543821e+03 6.249920e+03 6.047117e+03 5.559004e+03 5.413543e+03 4.266248e+03 1.499275e+03 5.067604e+02 3.678781e+02 2.480210e+02 1.816046e+02 9.379870e+01 6.522013e+01 1.645217e+01 
1.183140e+02 1.128442e+02 1.698435e+02 2.194725e+02 3.282919e+02 4.464940e+02 6.047214e+02 8.534654e+02 1.786837e+03 4.211717e+03 5.303903e+03 5.474829e+03 5.946420e+03 6.100918e+03 6.388084e+03 6.442638e+03 6.549352e+03 6.442579e+03 6.388006e+03 6.100768e+03 5.946355e+03 5.474727e+03 5.304311e+03 4.212471e+03 1.786318e+03 8.520194e+02 6.037532e+02 4.458668e+02 3.278401e+02 2.192043e+02 1.696565e+02 1.127678e+02 1.183073e+02 1.122732e+02 1.691394e+02 2.174294e+02 3.266613e+02 4.417959e+02 6.016994e+02 8.431570e+02 1.737537e+03 4.174485e+03 5.300973e+03 5.468350e+03 5.944579e+03 6.098223e+03 6.387866e+03 6.441743e+03 6.549795e+03 6.441683e+03 6.387785e+03 6.098070e+03 5.944503e+03 5.468236e+03 5.301349e+03 4.175191e+03 1.736996e+03 8.417558e+02 6.007726e+02 4.411863e+02 3.262317e+02 2.171686e+02 1.689675e+02 1.122007e+02 
1.466146e+02 1.433552e+02 2.036013e+02 2.622189e+02 3.806759e+02 5.204762e+02 6.988502e+02 9.926439e+02 1.883012e+03 4.177483e+03 5.283302e+03 5.483299e+03 5.966870e+03 6.124059e+03 6.419761e+03 6.475105e+03 6.584255e+03 6.475055e+03 6.419709e+03 6.123953e+03 5.966888e+03 5.483365e+03 5.283951e+03 4.178639e+03 1.882844e+03 9.913508e+02 6.979850e+02 5.199101e+02 3.802651e+02 2.619769e+02 2.034308e+02 1.432890e+02 1.466129e+02 1.424349e+02 2.022655e+02 2.588134e+02 3.773020e+02 5.121615e+02 6.918443e+02 9.729827e+02 1.824774e+03 4.148096e+03 5.288666e+03 5.478883e+03 5.966889e+03 6.121293e+03 6.419872e+03 6.473674e+03 6.584788e+03 6.473624e+03 6.419819e+03 6.121187e+03 5.966906e+03 5.478946e+03 5.289322e+03 4.149253e+03 1.824547e+03 9.716668e+02 6.909806e+02 5.115838e+02 3.768938e+02 2.585631e+02 2.020982e+02 1.423618e+02 