# vtk DataFile Version 2.0
Comment goes here
ASCII

DATASET STRUCTURED_POINTS
DIMENSIONS    64   64   1

ORIGIN    0.000   0.000   0.000
SPACING   0.031250.03125   1.000

POINT_DATA   4096
SCALARS P double
LOOKUP_TABLE default

-6.810895e+02 -6.029569e+03 -6.193182e+02 -6.236270e+03 -6.919637e+02 -6.344016e+03 -9.060071e+02 -6.337175e+03 -1.258810e+03 -6.203584e+03 -1.736180e+03 -5.937472e+03 -2.312402e+03 -5.543086e+03 -2.952918e+03 -5.037719e+03 -3.618926e+03 -4.451886e+03 -4.271790e+03 -3.825063e+03 -4.876372e+03 -3.197692e+03 -5.403915e+03 -2.604065e+03 -5.833886e+03 -2.070385e+03 -6.154834e+03 -1.616051e+03 -6.363826e+03 -1.255014e+03 -6.464444e+03 -9.962289e+02 -6.464228e+03 -8.437178e+02 -6.372483e+03 -7.967978e+02 -6.198841e+03 -8.506151e+02 -5.952543e+03 -9.969387e+02 -5.642238e+03 -1.225102e+03 -5.276129e+03 -1.522978e+03 -4.862354e+03 -1.877879e+03 -4.409477e+03 -2.277293e+03 -3.927019e+03 -2.709350e+03 -3.425910e+03 -3.162996e+03 -2.918805e+03 -3.627847e+03 -2.420251e+03 -4.093771e+03 -1.946688e+03 -4.550289e+03 -1.516263e+03 -4.985928e+03 -1.148457e+03 -5.387725e+03 -8.634504e+02 -5.741007e+03 
-7.945494e+01 -4.602811e+03 1.694621e+02 -4.656759e+03 2.887528e+02 -4.659027e+03 2.610241e+02 -4.611311e+03 7.660802e+01 -4.514913e+03 -2.636903e+02 -4.369793e+03 -7.479413e+02 -4.174996e+03 -1.354465e+03 -3.930248e+03 -2.053948e+03 -3.637863e+03 -2.811040e+03 -3.304095e+03 -3.585438e+03 -2.939502e+03 -4.333928e+03 -2.559122e+03 -5.014614e+03 -2.183028e+03 -5.592318e+03 -1.834656e+03 -6.042736e+03 -1.537141e+03 -6.353762e+03 -1.309638e+03 -6.524290e+03 -1.165008e+03 -6.561488e+03 -1.109087e+03 -6.477602e+03 -1.141139e+03 -6.287121e+03 -1.254986e+03 -6.004762e+03 -1.440409e+03 -5.644335e+03 -1.684539e+03 -5.218406e+03 -1.973138e+03 -4.738507e+03 -2.291676e+03 -4.215676e+03 -2.626185e+03 -3.661101e+03 -2.963810e+03 -3.086719e+03 -3.293038e+03 -2.505687e+03 -3.603667e+03 -1.932704e+03 -3.886661e+03 -1.384240e+03 -4.134070e+03 -8.786944e+02 -4.339120e+03 -4.364253e+02 -4.496508e+03 
-9.859659e+02 -5.941927e+03 -9.321349e+02 -6.152804e+03 -1.002209e+03 -6.266855e+03 -1.199879e+03 -6.268954e+03 -1.520467e+03 -6.146878e+03 -1.949655e+03 -5.893790e+03 -2.463631e+03 -5.512166e+03 -3.032030e+03 -5.017765e+03 -3.623284e+03 -4.439878e+03 -4.208652e+03 -3.816899e+03 -4.762944e+03 -3.188472e+03 -5.264536e+03 -2.588571e+03 -5.695350e+03 -2.043841e+03 -6.040491e+03 -1.575478e+03 -6.289363e+03 -1.199958e+03 -6.436766e+03 -9.284151e+02 -6.482842e+03 -7.661558e+02 -6.432059e+03 -7.128616e+02 -6.291829e+03 -7.633586e+02 -6.071200e+03 -9.086999e+02 -5.779892e+03 -1.137356e+03 -5.427777e+03 -1.436366e+03 -5.024786e+03 -1.792360e+03 -4.581153e+03 -2.192353e+03 -4.107824e+03 -2.624241e+03 -3.616856e+03 -3.076961e+03 -3.121721e+03 -3.540324e+03 -2.637428e+03 -4.004552e+03 -2.180475e+03 -4.459593e+03 -1.768571e+03 -4.894388e+03 -1.420127e+03 -5.296283e+03 -1.153512e+03 -5.650806e+03 
-1.337459e+02 -4.296958e+03 1.823217e+02 -4.296855e+03 3.781085e+02 -4.250128e+03 4.302404e+02 -4.168828e+03 3.211140e+02 -4.065422e+03 4.312135e+01 -3.948417e+03 -3.998314e+02 -3.819666e+03 -9.930678e+02 -3.673505e+03 -1.712345e+03 -3.498142e+03 -2.523830e+03 -3.279812e+03 -3.382846e+03 -3.009021e+03 -4.235466e+03 -2.687161e+03 -5.025446e+03 -2.332022e+03 -5.703993e+03 -1.974191e+03 -6.237328e+03 -1.647990e+03 -6.608932e+03 -1.383278e+03 -6.817801e+03 -1.201006e+03 -6.874314e+03 -1.111999e+03 -6.795394e+03 -1.117798e+03 -6.600337e+03 -1.212519e+03 -6.307969e+03 -1.384972e+03 -5.935168e+03 -1.620645e+03 -5.496486e+03 -1.903393e+03 -5.004488e+03 -2.216795e+03 -4.470475e+03 -2.545175e+03 -3.905271e+03 -2.874235e+03 -3.319926e+03 -3.191249e+03 -2.726212e+03 -3.484905e+03 -2.136938e+03 -3.745078e+03 -1.566205e+03 -3.962751e+03 -1.029759e+03 -4.130317e+03 -5.454593e+02 -4.242372e+03 
-1.177388e+03 -5.934982e+03 -1.121196e+03 -6.166858e+03 -1.184985e+03 -6.302642e+03 -1.371148e+03 -6.326216e+03 -1.674280e+03 -6.222835e+03 -2.079681e+03 -5.980698e+03 -2.562295e+03 -5.596451e+03 -3.090441e+03 -5.083910e+03 -3.635621e+03 -4.475438e+03 -4.178163e+03 -3.816163e+03 -4.702868e+03 -3.151995e+03 -5.195576e+03 -2.518488e+03 -5.641448e+03 -1.941112e+03 -6.021324e+03 -1.442183e+03 -6.315717e+03 -1.041201e+03 -6.510368e+03 -7.518154e+02 -6.598762e+03 -5.803219e+02 -6.581814e+03 -5.259600e+02 -6.466038e+03 -5.821455e+02 -6.261323e+03 -7.380345e+02 -5.979046e+03 -9.800973e+02 -5.630875e+03 -1.293543e+03 -5.228327e+03 -1.663534e+03 -4.782915e+03 -2.076129e+03 -4.306609e+03 -2.518840e+03 -3.812309e+03 -2.980766e+03 -3.314151e+03 -3.452369e+03 -2.827653e+03 -3.924901e+03 -2.369635e+03 -4.389476e+03 -1.957854e+03 -4.836033e+03 -1.610393e+03 -5.252477e+03 -1.344867e+03 -5.624317e+03 
-9.378817e+01 -4.046309e+03 3.139495e+02 -3.984734e+03 6.096455e+02 -3.877770e+03 7.594187e+02 -3.751183e+03 7.333131e+02 -3.632784e+03 5.135630e+02 -3.542228e+03 9.681945e+01 -3.485143e+03 -5.077637e+02 -3.449202e+03 -1.280785e+03 -3.404398e+03 -2.191132e+03 -3.310567e+03 -3.188251e+03 -3.131478e+03 -4.200655e+03 -2.849608e+03 -5.148154e+03 -2.484402e+03 -5.960944e+03 -2.082741e+03 -6.593551e+03 -1.698183e+03 -7.026767e+03 -1.375568e+03 -7.263740e+03 -1.145020e+03 -7.322825e+03 -1.021449e+03 -7.229725e+03 -1.006830e+03 -7.011347e+03 -1.093489e+03 -6.692106e+03 -1.267327e+03 -6.292354e+03 -1.510528e+03 -5.828308e+03 -1.803698e+03 -5.312870e+03 -2.127518e+03 -4.756820e+03 -2.463964e+03 -4.169940e+03 -2.797100e+03 -3.561905e+03 -3.113120e+03 -2.942788e+03 -3.399832e+03 -2.323246e+03 -3.646096e+03 -1.714665e+03 -3.841556e+03 -1.129654e+03 -3.977026e+03 -5.831044e+02 -4.045846e+03 
-1.258315e+03 -6.007605e+03 -1.190847e+03 -6.278230e+03 -1.245722e+03 -6.452327e+03 -1.425839e+03 -6.512464e+03 -1.726773e+03 -6.439875e+03 -2.134262e+03 -6.212445e+03 -2.617793e+03 -5.812144e+03 -3.134452e+03 -5.249173e+03 -3.653191e+03 -4.564678e+03 -4.167630e+03 -3.822575e+03 -4.675841e+03 -3.086307e+03 -5.173030e+03 -2.392896e+03 -5.652032e+03 -1.760130e+03 -6.086062e+03 -1.211188e+03 -6.440974e+03 -7.713556e+02 -6.690290e+03 -4.580803e+02 -6.820737e+03 -2.782757e+02 -6.831417e+03 -2.295057e+02 -6.730258e+03 -3.022240e+02 -6.529988e+03 -4.821353e+02 -6.244916e+03 -7.523075e+02 -5.889007e+03 -1.094926e+03 -5.475242e+03 -1.492763e+03 -5.015971e+03 -1.930366e+03 -4.523737e+03 -2.394742e+03 -4.011978e+03 -2.875370e+03 -3.495335e+03 -3.363933e+03 -2.989891e+03 -3.853623e+03 -2.513156e+03 -4.337760e+03 -2.083533e+03 -4.808141e+03 -1.719547e+03 -5.253643e+03 -1.439049e+03 -5.659492e+03 
2.482018e+01 -3.858422e+03 5.541678e+02 -3.719883e+03 9.836266e+02 -3.528388e+03 1.261685e+03 -3.329991e+03 1.337278e+03 -3.177618e+03 1.179353e+03 -3.107748e+03 7.791698e+02 -3.134221e+03 1.432511e+02 -3.238116e+03 -7.148753e+02 -3.363992e+03 -1.774583e+03 -3.430668e+03 -2.981074e+03 -3.359829e+03 -4.232751e+03 -3.097237e+03 -5.406681e+03 -2.674445e+03 -6.398514e+03 -2.175418e+03 -7.149198e+03 -1.687936e+03 -7.640747e+03 -1.277578e+03 -7.887602e+03 -9.839752e+02 -7.923797e+03 -8.238019e+02 -7.789809e+03 -7.962396e+02 -7.523778e+03 -8.886820e+02 -7.157299e+03 -1.081463e+03 -6.714321e+03 -1.351349e+03 -6.211940e+03 -1.674065e+03 -5.662227e+03 -2.026175e+03 -5.074320e+03 -2.386528e+03 -4.456102e+03 -2.737465e+03 -3.815381e+03 -3.064593e+03 -3.160367e+03 -3.355385e+03 -2.499413e+03 -3.597964e+03 -1.840721e+03 -3.780274e+03 -1.192736e+03 -3.890273e+03 -5.657734e+02 -3.917770e+03 
-1.227941e+03 -6.159042e+03 -1.139775e+03 -6.488372e+03 -1.182069e+03 -6.719138e+03 -1.360116e+03 -6.834950e+03 -1.673894e+03 -6.815298e+03 -2.115531e+03 -6.621006e+03 -2.643536e+03 -6.195105e+03 -3.179776e+03 -5.540605e+03 -3.678525e+03 -4.715682e+03 -4.166638e+03 -3.826445e+03 -4.662002e+03 -2.979961e+03 -5.168275e+03 -2.207291e+03 -5.705029e+03 -1.495380e+03 -6.227439e+03 -8.715536e+02 -6.670868e+03 -3.759848e+02 -6.989603e+03 -3.219833e+01 -7.163812e+03 1.534009e+02 -7.194423e+03 1.870701e+02 -7.095056e+03 8.364441e+01 -6.884691e+03 -1.370518e+02 -6.582601e+03 -4.529701e+02 -6.205734e+03 -8.418306e+02 -5.768198e+03 -1.282838e+03 -5.282382e+03 -1.758346e+03 -4.760731e+03 -2.254854e+03 -4.216916e+03 -2.762496e+03 -3.665807e+03 -3.274844e+03 -3.124061e+03 -3.788381e+03 -2.610419e+03 -4.300273e+03 -2.144719e+03 -4.805597e+03 -1.746719e+03 -5.294982e+03 -1.435309e+03 -5.753160e+03 
1.990074e+02 -3.750659e+03 8.868714e+02 -3.511094e+03 1.500977e+03 -3.191993e+03 1.960298e+03 -2.871213e+03 2.171937e+03 -2.649223e+03 2.085568e+03 -2.584910e+03 1.694278e+03 -2.712552e+03 1.012297e+03 -3.010770e+03 4.803695e+01 -3.389368e+03 -1.215895e+03 -3.695767e+03 -2.733891e+03 -3.785836e+03 -4.346398e+03 -3.508210e+03 -5.849364e+03 -2.943006e+03 -7.078224e+03 -2.259261e+03 -7.964171e+03 -1.603553e+03 -8.499194e+03 -1.065981e+03 -8.722093e+03 -6.925283e+02 -8.695383e+03 -4.961907e+02 -8.482683e+03 -4.677999e+02 -8.137465e+03 -5.852204e+02 -7.699683e+03 -8.197815e+02 -7.196228e+03 -1.140293e+03 -6.643329e+03 -1.515709e+03 -6.050146e+03 -1.917062e+03 -5.422453e+03 -2.318901e+03 -4.765084e+03 -2.702002e+03 -4.083590e+03 -3.052701e+03 -3.384577e+03 -3.359332e+03 -2.674391e+03 -3.610108e+03 -1.957736e+03 -3.791115e+03 -1.237380e+03 -3.885721e+03 -5.160009e+02 -3.876469e+03 
-1.082880e+03 -6.389197e+03 -9.625655e+02 -6.801317e+03 -9.849359e+02 -7.107541e+03 -1.158588e+03 -7.299921e+03 -1.494104e+03 -7.371168e+03 -2.015730e+03 -7.266841e+03 -2.666577e+03 -6.814048e+03 -3.266944e+03 -6.009890e+03 -3.719224e+03 -4.937921e+03 -4.164130e+03 -3.793354e+03 -4.642626e+03 -2.804408e+03 -5.132912e+03 -1.960897e+03 -5.766931e+03 -1.141708e+03 -6.443405e+03 -4.046830e+02 -7.024810e+03 1.688922e+02 -7.435320e+03 5.494342e+02 -7.653134e+03 7.347475e+02 -7.689886e+03 7.387380e+02 -7.572875e+03 5.851272e+02 -7.332664e+03 3.019720e+02 -6.996199e+03 -8.165189e+01 -6.583930e+03 -5.373054e+02 -6.109963e+03 -1.038942e+03 -5.584970e+03 -1.565720e+03 -5.020211e+03 -2.104172e+03 -4.429587e+03 -2.645319e+03 -3.827529e+03 -3.185081e+03 -3.230966e+03 -3.725380e+03 -2.660917e+03 -4.269983e+03 -2.139943e+03 -4.819633e+03 -1.689882e+03 -5.368258e+03 -1.331169e+03 -5.900229e+03 
3.898646e+02 -3.757626e+03 1.277620e+03 -3.387059e+03 2.153615e+03 -2.869445e+03 2.891758e+03 -2.330519e+03 3.301836e+03 -1.980548e+03 3.295956e+03 -1.881882e+03 2.895138e+03 -2.129455e+03 2.155830e+03 -2.709379e+03 1.102533e+03 -3.497337e+03 -4.105587e+02 -4.192999e+03 -2.403525e+03 -4.591814e+03 -4.575994e+03 -4.211520e+03 -6.568956e+03 -3.334861e+03 -8.103205e+03 -2.321906e+03 -9.130935e+03 -1.407238e+03 -9.669277e+03 -6.958549e+02 -9.806233e+03 -2.287084e+02 -9.654037e+03 -4.319536e+00 -9.309618e+03 3.764458e+00 -8.845111e+03 -1.665385e+02 -8.308714e+03 -4.735455e+02 -7.728158e+03 -8.753243e+02 -7.115394e+03 -1.331996e+03 -6.472979e+03 -1.807690e+03 -5.800665e+03 -2.270209e+03 -5.098533e+03 -2.699272e+03 -4.369829e+03 -3.085216e+03 -3.620819e+03 -3.419371e+03 -2.857208e+03 -3.692057e+03 -2.080692e+03 -3.888099e+03 -1.286833e+03 -3.984466e+03 -4.662710e+02 -3.951256e+03 
-8.198784e+02 -6.699473e+03 -6.544679e+02 -7.228221e+03 -6.439520e+02 -7.625566e+03 -7.932029e+02 -7.903214e+03 -1.125099e+03 -8.114304e+03 -1.801146e+03 -8.267573e+03 -2.750905e+03 -7.796825e+03 -3.507203e+03 -6.758869e+03 -3.773804e+03 -5.245947e+03 -4.138069e+03 -3.616157e+03 -4.627323e+03 -2.499190e+03 -4.954768e+03 -1.685062e+03 -5.771766e+03 -7.012926e+02 -6.746021e+03 2.222494e+02 -7.551379e+03 9.012059e+02 -8.079343e+03 1.321820e+03 -8.328707e+03 1.493763e+03 -8.342929e+03 1.444973e+03 -8.176567e+03 1.213911e+03 -7.878752e+03 8.399733e+02 -7.486875e+03 3.607111e+02 -7.024640e+03 -1.874814e+02 -6.503193e+03 -7.703375e+02 -5.927503e+03 -1.361592e+03 -5.305891e+03 -1.950829e+03 -4.654341e+03 -2.529811e+03 -3.984612e+03 -3.095392e+03 -3.312448e+03 -3.658873e+03 -2.663878e+03 -4.235531e+03 -2.066703e+03 -4.835625e+03 -1.545821e+03 -5.459199e+03 -1.123375e+03 -6.091782e+03 
5.306370e+02 -3.941948e+03 1.646821e+03 -3.418678e+03 2.892033e+03 -2.596459e+03 4.106378e+03 -1.641719e+03 4.853727e+03 -1.096515e+03 4.907840e+03 -8.455905e+02 4.424167e+03 -1.226525e+03 3.595781e+03 -2.204451e+03 2.599562e+03 -3.714626e+03 8.646393e+02 -5.027044e+03 -1.922961e+03 -6.202965e+03 -4.989876e+03 -5.414486e+03 -7.748441e+03 -3.875187e+03 -9.644230e+03 -2.306425e+03 -1.079199e+04 -1.020546e+03 -1.123995e+04 -9.105647e+01 -1.118069e+04 4.708567e+02 -1.080834e+04 6.991093e+02 -1.026026e+04 6.507701e+02 -9.627274e+03 3.869941e+02 -8.963299e+03 -3.393117e+01 -8.292742e+03 -5.566294e+02 -7.617201e+03 -1.129884e+03 -6.926184e+03 -1.711129e+03 -6.209558e+03 -2.254682e+03 -5.459098e+03 -2.740054e+03 -4.677106e+03 -3.170033e+03 -3.872797e+03 -3.541311e+03 -3.054607e+03 -3.850887e+03 -2.223762e+03 -4.084616e+03 -1.368095e+03 -4.212081e+03 -4.618876e+02 -4.185385e+03 
-4.400650e+02 -7.093013e+03 -2.247497e+02 -7.801296e+03 -1.738319e+02 -8.305518e+03 -2.434409e+02 -8.627194e+03 -3.863551e+02 -8.962779e+03 -1.374995e+03 -9.888133e+03 -3.057067e+03 -9.369324e+03 -4.245377e+03 -7.999417e+03 -3.742219e+03 -5.704259e+03 -3.998814e+03 -2.953651e+03 -4.834137e+03 -1.995932e+03 -4.289927e+03 -1.542005e+03 -5.573220e+03 -1.826602e+02 -7.202382e+03 1.077074e+03 -8.368444e+03 1.877543e+03 -9.017042e+03 2.335567e+03 -9.248530e+03 2.467542e+03 -9.181613e+03 2.328636e+03 -8.914876e+03 1.982607e+03 -8.521048e+03 1.481840e+03 -8.049324e+03 8.711842e+02 -7.525348e+03 1.962636e+02 -6.950829e+03 -4.938739e+02 -6.315547e+03 -1.159357e+03 -5.622177e+03 -1.807022e+03 -4.898740e+03 -2.427787e+03 -4.145491e+03 -3.008722e+03 -3.371695e+03 -3.580389e+03 -2.617218e+03 -4.178972e+03 -1.920230e+03 -4.829581e+03 -1.309266e+03 -5.542677e+03 -8.081945e+02 -6.310120e+03 
5.176057e+02 -4.405657e+03 1.818738e+03 -3.761387e+03 3.506976e+03 -2.531299e+03 5.590600e+03 -7.031681e+02 7.126665e+03 -5.669732e+00 7.077633e+03 8.264461e+02 6.267006e+03 2.533247e+02 5.150360e+03 -1.200477e+03 4.786080e+03 -4.159935e+03 3.174169e+03 -6.135172e+03 -1.244696e+03 -9.812555e+03 -5.675237e+03 -7.359883e+03 -9.797923e+03 -4.486691e+03 -1.199612e+04 -2.075255e+03 -1.317786e+04 -3.030167e+02 -1.331693e+04 8.668818e+02 -1.287655e+04 1.494778e+03 -1.214946e+04 1.673790e+03 -1.130418e+04 1.510991e+03 -1.044522e+04 1.096842e+03 -9.626380e+03 5.064433e+02 -8.862083e+03 -1.893738e+02 -8.133271e+03 -9.217844e+02 -7.405489e+03 -1.650757e+03 -6.655565e+03 -2.295982e+03 -5.852736e+03 -2.837432e+03 -5.008106e+03 -3.314662e+03 -4.140202e+03 -3.725839e+03 -3.266475e+03 -4.086316e+03 -2.394639e+03 -4.387904e+03 -1.506115e+03 -4.593808e+03 -5.574934e+02 -4.635416e+03 
5.227811e+01 -7.565527e+03 2.777402e+02 -8.603061e+03 2.735027e+02 -9.292434e+03 2.981072e+02 -9.571122e+03 1.149784e+03 -9.673718e+03 -6.933614e+02 -1.285985e+04 -4.041424e+03 -1.183606e+04 -6.833835e+03 -1.021523e+04 -2.965544e+03 -6.738239e+03 -3.236339e+03 -7.407135e+02 -6.763704e+03 -2.258353e+03 -1.796117e+03 -2.110357e+03 -4.879552e+03 4.945068e+02 -8.108595e+03 2.297000e+03 -9.763883e+03 3.169370e+03 -1.040573e+04 3.667444e+03 -1.047730e+04 3.700208e+03 -1.022430e+04 3.410818e+03 -9.783613e+03 2.902748e+03 -9.243977e+03 2.233269e+03 -8.665869e+03 1.445952e+03 -8.077470e+03 5.938625e+02 -7.458989e+03 -2.439749e+02 -6.758920e+03 -9.752739e+02 -5.971461e+03 -1.687568e+03 -5.177793e+03 -2.365579e+03 -4.329219e+03 -2.933429e+03 -3.412906e+03 -3.476964e+03 -2.514527e+03 -4.072404e+03 -1.690834e+03 -4.763517e+03 -9.701737e+02 -5.574806e+03 -3.771819e+02 -6.516071e+03 
2.350623e+02 -5.294303e+03 1.484641e+03 -4.706474e+03 3.249486e+03 -3.226792e+03 6.278910e+03 1.177782e+02 9.944658e+03 8.438598e+02 9.487411e+03 3.818166e+03 8.183111e+03 2.473086e+03 5.492838e+03 1.936281e+01 8.069967e+03 -5.649829e+03 7.987552e+03 -6.516495e+03 -8.376985e+02 -1.956201e+04 -6.446381e+03 -1.008628e+04 -1.418542e+04 -4.724382e+03 -1.586405e+04 -1.433039e+03 -1.669254e+04 9.646896e+02 -1.598944e+04 2.352426e+03 -1.490612e+04 2.955134e+03 -1.364024e+04 2.985275e+03 -1.237820e+04 2.623658e+03 -1.123061e+04 1.985614e+03 -1.023766e+04 1.153089e+03 -9.394490e+03 2.098108e+02 -8.643262e+03 -7.276256e+02 -7.908514e+03 -1.673761e+03 -7.168481e+03 -2.440249e+03 -6.295213e+03 -3.005152e+03 -5.366089e+03 -3.528321e+03 -4.415071e+03 -3.962753e+03 -3.477644e+03 -4.382255e+03 -2.584711e+03 -4.789019e+03 -1.711162e+03 -5.142890e+03 -7.975148e+02 -5.361893e+03 
6.897553e+02 -8.048379e+03 7.830474e+02 -9.775600e+03 1.324420e+02 -1.111483e+04 -1.521540e+03 -1.280416e+04 1.002146e+03 -1.381527e+04 -4.306934e+02 -1.878994e+04 -9.650694e+03 -1.538545e+04 -1.982359e+04 -1.746937e+04 2.248403e+03 -1.030039e+04 1.142707e+03 2.323161e+03 -2.004553e+04 -2.247376e+04 7.156943e+03 -5.064083e+03 -3.463162e+03 2.121482e+03 -1.061612e+04 3.960337e+03 -1.237095e+04 4.915653e+03 -1.238259e+04 5.442766e+03 -1.201989e+04 5.215181e+03 -1.145546e+04 4.696905e+03 -1.075760e+04 3.983876e+03 -1.001078e+04 3.106618e+03 -9.296131e+03 2.088678e+03 -8.661199e+03 9.740850e+02 -8.053536e+03 -1.014032e+02 -7.273144e+03 -8.180006e+02 -6.333993e+03 -1.597211e+03 -5.523404e+03 -2.408248e+03 -4.585265e+03 -2.889232e+03 -3.435623e+03 -3.324866e+03 -2.336988e+03 -3.872964e+03 -1.360574e+03 -4.581778e+03 -5.110864e+02 -5.484610e+03 1.973990e+02 -6.623444e+03 
-3.393295e+02 -6.815605e+03 4.907352e+02 -6.728650e+03 5.106803e+02 -5.814986e+03 -1.259264e+03 -5.665747e+03 7.604662e+03 3.006058e+03 1.797276e+04 8.280245e+03 8.326894e+03 5.526060e+03 2.735545e+03 -1.143370e+04 1.184325e+04 -1.342917e+04 1.596814e+04 -1.301687e+04 -1.189348e+04 -5.463828e+04 4.817906e+03 -9.399268e+03 -2.781110e+04 -2.785966e+03 -2.312562e+04 -3.564212e+02 -2.166087e+04 3.080217e+03 -1.945223e+04 4.590909e+03 -1.730492e+04 4.955330e+03 -1.518470e+04 4.688524e+03 -1.335817e+04 4.023403e+03 -1.187004e+04 3.079652e+03 -1.070531e+04 1.918207e+03 -9.838915e+03 6.009943e+02 -9.127268e+03 -5.512470e+02 -8.418030e+03 -1.882476e+03 -7.825459e+03 -2.791810e+03 -6.803071e+03 -3.225271e+03 -5.757114e+03 -3.833355e+03 -4.676476e+03 -4.218014e+03 -3.643366e+03 -4.693657e+03 -2.756895e+03 -5.248299e+03 -1.964618e+03 -5.837199e+03 -1.183017e+03 -6.397046e+03 
1.718106e+03 -8.320454e+03 1.832986e+03 -1.134033e+04 2.706859e+02 -1.446067e+04 -3.582454e+03 -2.094444e+04 9.968752e+02 -1.985081e+04 2.270449e+04 -2.632469e+04 -1.309750e+04 1.390868e+04 1.073844e+04 -2.019606e+04 2.162665e+03 -1.217326e+04 4.230007e+04 5.824191e+04 -3.985614e+04 -9.266683e+04 -1.280353e+04 4.161439e+03 -1.288630e+04 7.198586e+03 -1.663556e+04 5.981045e+03 -1.686387e+04 7.913475e+03 -1.465715e+04 7.537053e+03 -1.377510e+04 6.931861e+03 -1.287081e+04 6.178965e+03 -1.180776e+04 5.242283e+03 -1.075896e+04 4.134015e+03 -9.856197e+03 2.840650e+03 -9.225638e+03 1.325030e+03 -8.915536e+03 -2.169383e+02 -7.497458e+03 1.160734e+02 -5.517694e+03 -6.832974e+02 -5.578810e+03 -2.670009e+03 -5.094736e+03 -2.904449e+03 -3.402057e+03 -3.064284e+03 -2.034974e+03 -3.516180e+03 -9.049019e+02 -4.214352e+03 8.003336e+01 -5.179340e+03 9.681024e+02 -6.496315e+03 
-1.053025e+03 -8.644216e+03 -3.659106e+02 -9.948271e+03 5.644564e+02 -8.752213e+03 5.602882e+03 -1.365776e+04 6.930393e+03 1.719680e+03 3.188499e+04 1.085392e+04 8.706331e+03 5.717469e+04 2.473601e+04 -1.566485e+03 2.531901e+04 2.025423e+04 8.834498e+04 1.674352e+05 1.689905e+05 -1.284192e+05 -7.969791e+03 4.588654e+03 -6.889513e+04 -1.219495e+04 -3.220720e+04 1.646913e+03 -2.820055e+04 6.684081e+03 -2.388534e+04 7.670267e+03 -1.971947e+04 7.596561e+03 -1.642556e+04 6.829326e+03 -1.400478e+04 5.728789e+03 -1.219158e+04 4.409227e+03 -1.089200e+04 2.858798e+03 -1.019575e+04 9.430420e+02 -9.204151e+03 2.422753e+03 -2.739653e+03 6.144250e+03 6.384413e+02 5.183421e+03 -7.823131e+02 -3.710177e+02 -5.641155e+03 -4.238987e+03 -4.903681e+03 -4.394891e+03 -3.661699e+03 -4.930192e+03 -2.838146e+03 -5.684675e+03 -2.219636e+03 -6.585609e+03 -1.667762e+03 -7.598289e+03 
2.867311e+03 -8.506967e+03 3.628497e+03 -1.238838e+04 3.314974e+03 -1.854599e+04 1.538076e+03 -2.843123e+04 -3.900049e+04 -5.116373e+04 7.286407e+04 5.757619e+04 -5.972136e+04 -2.810987e+04 9.709247e+03 -2.054955e+04 -9.122329e+03 -4.645763e+04 -1.271628e+04 4.712474e+04 1.760070e+05 1.103097e+05 3.339126e+03 -2.154009e+04 -4.265287e+04 -1.042870e+04 -2.544802e+04 1.244964e+04 -2.467194e+04 1.146766e+04 -1.714023e+04 9.799543e+03 -1.641438e+04 8.984763e+03 -1.462259e+04 7.918228e+03 -1.288822e+04 6.699375e+03 -1.137988e+04 5.357972e+03 -1.017895e+04 3.810251e+03 -9.540399e+03 2.687407e+03 -4.960844e+03 8.726425e+03 2.916733e+03 1.103547e+04 4.645446e+03 1.018465e+04 5.109873e+03 6.306612e+03 -4.173946e+02 -1.622225e+03 -3.123514e+03 -2.520881e+03 -1.512055e+03 -2.918318e+03 -3.103037e+02 -3.594205e+03 7.511081e+02 -4.560308e+03 1.805783e+03 -6.017973e+03 
-2.147317e+03 -1.151962e+04 -2.484339e+03 -1.494534e+04 -3.562496e+03 -2.400452e+04 -6.505221e+03 -1.700083e+04 -5.591298e+04 -6.211331e+04 1.625380e+05 1.809801e+05 1.813913e+04 -2.098431e+04 2.187027e+04 8.324792e+03 1.656748e+04 9.101775e+03 4.166051e+04 1.513495e+05 1.218667e+05 -4.086143e+04 -6.361194e+04 -2.697542e+04 -6.339545e+04 9.893414e+02 -7.185548e+04 9.723508e+03 -3.649966e+04 1.140376e+04 -2.971503e+04 1.260215e+04 -2.140123e+04 1.108090e+04 -1.697353e+04 9.372855e+03 -1.406455e+04 7.674205e+03 -1.199421e+04 5.962195e+03 -1.048595e+04 4.123695e+03 -9.500142e+03 5.172293e+03 -1.069945e+03 1.059473e+04 2.028177e+03 9.390727e+03 2.980704e+03 8.290333e+03 3.720665e+03 7.215556e+03 2.898453e+03 -1.883259e+02 -4.123682e+03 -4.200104e+03 -3.290279e+03 -4.954846e+03 -2.730551e+03 -5.996139e+03 -2.429624e+03 -7.285097e+03 -2.271600e+03 -8.989100e+03 
4.132002e+03 -7.287849e+03 5.674359e+03 -1.169863e+04 1.582578e+03 -2.379938e+04 1.372457e+03 -5.345389e+04 -2.431944e+03 -1.656619e+05 -6.510116e+03 8.625000e+04 -7.326344e+02 8.850564e+03 3.875332e+04 1.423342e+04 4.241290e+04 3.958089e+04 9.634492e+04 1.486398e+05 1.566862e+05 -4.971827e+04 -1.123737e+05 -1.040242e+05 -7.818252e+04 -2.404468e+04 -6.106752e+04 8.308380e+03 -3.606854e+04 9.108626e+03 -2.737427e+04 1.315781e+04 -2.038175e+04 1.153706e+04 -1.646185e+04 9.858114e+03 -1.377721e+04 8.280387e+03 -1.167407e+04 6.749435e+03 -9.955828e+03 5.066720e+03 -7.738622e+03 9.284067e+03 9.338429e+02 1.128698e+04 2.409600e+03 1.035379e+04 3.748043e+03 9.440510e+03 4.638061e+03 8.477622e+03 5.610225e+03 4.809044e+03 -6.592508e+02 -1.653655e+03 -5.971837e+02 -2.063581e+03 4.138527e+02 -2.713238e+03 1.408023e+03 -3.525595e+03 2.584657e+03 -4.753506e+03 
-3.008972e+03 -1.358422e+04 -3.388089e+03 -1.496963e+04 -6.374882e+03 -2.567522e+04 -8.563700e+03 -2.121398e+04 2.683843e+04 -3.320340e+04 -4.297598e+04 8.737551e+04 3.942807e+04 3.564655e+02 -1.357953e+04 1.074965e+04 3.395570e+04 3.512956e+04 5.806898e+04 1.431723e+05 1.954132e+05 7.072623e+04 -1.765917e+04 -5.317882e+04 -6.626652e+04 1.449764e+04 -3.527249e+04 -1.474444e+03 -3.144908e+04 1.874822e+04 -2.372189e+04 1.855350e+04 -1.948001e+04 1.447106e+04 -1.589579e+04 1.183964e+04 -1.320913e+04 9.588261e+03 -1.115410e+04 7.611356e+03 -9.453781e+03 5.758543e+03 -5.860428e+03 1.054745e+04 4.330658e+02 1.011375e+04 1.365413e+03 8.784818e+03 2.350787e+03 7.527712e+03 3.094070e+03 6.310880e+03 3.956593e+03 4.294357e+03 -2.691811e+02 -3.459714e+03 -2.531919e+03 -4.716533e+03 -2.388463e+03 -6.079313e+03 -2.510670e+03 -7.619130e+03 -2.871444e+03 -9.633682e+03 
5.318918e+03 -4.507108e+03 7.553149e+03 -7.904394e+03 1.215821e+04 -1.479126e+04 2.009296e+04 -3.880656e+03 5.034145e+04 2.741355e+04 4.917828e+04 -4.750093e+04 -4.567411e+04 -1.223137e+05 1.311583e+04 1.265071e+04 5.412391e+04 4.067304e+04 1.044669e+05 1.466348e+05 1.960393e+05 1.985905e+05 1.002217e+05 -3.615278e+04 -3.699832e+04 1.353006e+03 -4.897399e+04 1.569956e+04 -2.658818e+04 1.410605e+04 -2.433151e+04 1.600925e+04 -2.054564e+04 1.373556e+04 -1.692408e+04 1.161647e+04 -1.398272e+04 9.781533e+03 -1.153837e+04 8.271549e+03 -9.392264e+03 7.184330e+03 -4.198980e+03 1.183376e+04 3.260531e+02 1.087807e+04 1.667774e+03 9.920753e+03 3.012876e+03 8.920484e+03 4.039336e+03 7.894025e+03 5.079741e+03 6.933675e+03 3.272557e+03 2.078168e+02 3.780850e+02 -1.000487e+03 1.105427e+03 -1.710556e+03 1.893103e+03 -2.121921e+03 2.946028e+03 -2.557707e+03 
-5.345036e+03 -1.732741e+04 -3.799800e+03 -2.422649e+04 -1.128665e+04 -2.835301e+04 -2.636667e+04 -4.364131e+04 -1.725197e+04 -2.874851e+04 -1.453027e+04 -4.058886e+04 -9.310457e+04 1.339488e+04 8.861930e+04 -6.191438e+03 5.888422e+04 7.934525e+03 5.228197e+04 3.056966e+03 2.521392e+05 3.772958e+05 1.740094e+05 3.314374e+04 -9.144340e+04 1.252018e+04 -8.687620e+03 3.106488e+04 -2.658859e+04 2.666545e+04 -1.936180e+04 2.007869e+04 -1.595291e+04 1.692793e+04 -1.352323e+04 1.372462e+04 -1.165959e+04 1.113372e+04 -9.945191e+03 9.098075e+03 -8.223372e+03 7.932522e+03 -3.252302e+03 1.095591e+04 -3.579770e+02 9.655337e+03 9.058303e+02 8.377336e+03 1.926989e+03 6.998086e+03 2.635601e+03 5.510750e+03 3.067924e+03 3.949158e+03 2.036434e+03 -1.966964e+03 -1.600454e+03 -4.381095e+03 -1.849162e+03 -6.013148e+03 -2.326176e+03 -7.439229e+03 -3.570692e+03 -8.609023e+03 
-3.002781e+02 -9.981129e+02 1.113815e+04 -6.697489e+03 -1.402878e+03 -2.225857e+04 7.960674e+03 -2.161570e+04 -7.654535e+03 2.886879e+04 4.586752e+04 5.242178e+04 1.569051e+05 4.669887e+04 9.025179e+04 2.385555e+04 3.057660e+04 -2.435037e+04 -1.359444e+04 -2.943608e+04 2.986737e+05 3.757655e+05 2.558877e+05 6.358445e+04 -3.462524e+04 3.917453e+04 -1.129796e+04 3.719207e+04 -2.304471e+04 3.139140e+04 -2.488661e+04 2.096191e+04 -2.021911e+04 1.598509e+04 -1.666959e+04 1.292364e+04 -1.362554e+04 1.083331e+04 -1.110250e+04 9.296971e+03 -8.700654e+03 8.980319e+03 -3.147583e+03 1.130230e+04 -6.299889e+02 1.037684e+04 1.057988e+03 9.462586e+03 2.435606e+03 8.416180e+03 3.468040e+03 7.257306e+03 4.177426e+03 6.102262e+03 4.277934e+03 1.643740e+03 1.206519e+03 -3.973834e+02 1.647078e+03 -1.058317e+03 2.143961e+03 -1.090810e+03 2.093003e+03 6.602922e+02 
-9.010321e+03 -1.684657e+04 -1.877997e+04 -3.205352e+04 -2.657102e+04 -3.823190e+04 -1.472051e+04 -4.385638e+04 -6.051071e+04 8.849738e+03 -2.142913e+04 5.127975e+04 1.322107e+05 -8.709144e+04 3.356815e+04 -1.818836e+04 6.291749e+03 -2.622918e+04 -6.023861e+04 -3.881706e+04 2.771858e+05 2.553314e+05 2.540085e+05 6.368143e+04 1.070713e+04 9.041040e+04 -1.922779e+04 5.173425e+04 -1.788351e+04 2.635234e+04 -1.104751e+04 2.350402e+04 -1.194057e+04 1.874962e+04 -1.135430e+04 1.486406e+04 -1.013021e+04 1.199546e+04 -8.714575e+03 9.856642e+03 -7.153248e+03 8.920144e+03 -2.691688e+03 1.033657e+04 -6.882778e+02 9.152121e+03 6.536342e+02 7.890002e+03 1.671444e+03 6.444789e+03 2.342571e+03 4.796722e+03 2.626324e+03 2.949177e+03 2.323787e+03 -1.757602e+03 -8.376391e+02 -4.435126e+03 -1.107052e+03 -6.153495e+03 -1.656695e+03 -7.617854e+03 -3.416511e+03 -9.180138e+03 
6.462276e+03 4.888194e+03 1.096571e+03 3.324114e+03 -9.989852e+02 -2.976273e+04 1.204901e+04 -6.351978e+03 -1.716467e+04 8.415624e+04 -7.971523e+04 2.093607e+04 2.175806e+05 -9.751721e+04 -8.373448e+04 -4.164082e+04 -1.966327e+04 -2.649968e+04 -6.113132e+03 -7.050516e+04 4.501449e+04 2.612510e+04 9.948736e+03 -4.800102e+04 -1.068352e+05 -2.066851e+04 -4.895802e+04 3.654412e+04 -3.547481e+04 2.024113e+04 -2.512593e+04 1.850713e+04 -1.971092e+04 1.578458e+04 -1.607846e+04 1.321813e+04 -1.305790e+04 1.122316e+04 -1.039968e+04 9.716289e+03 -8.030006e+03 9.203546e+03 -3.556359e+03 1.051440e+04 -1.046708e+03 9.863636e+03 7.584369e+02 9.021611e+03 2.147219e+03 7.951281e+03 3.139674e+03 6.665811e+03 3.721853e+03 5.153652e+03 3.798502e+03 1.404254e+03 1.681157e+03 -3.222292e+02 2.268613e+03 -9.788449e+02 2.902269e+03 -9.282194e+02 4.155809e+03 -3.474337e+02 
-2.660398e+03 -1.262793e+04 -7.915657e+03 -1.822047e+04 -3.683257e+04 -5.979273e+04 -2.204255e+04 -6.084220e+04 -1.718129e+04 -1.423145e+04 2.775921e+04 2.154221e+05 2.893268e+05 -1.913499e+04 -4.995337e+04 -1.463357e+04 -1.215951e+04 -4.866963e+04 -7.350664e+03 -9.113520e+04 5.192345e+04 -5.359392e+04 -5.916318e+04 2.404908e+04 1.436753e+03 -9.773763e+03 1.062730e+04 2.907841e+04 -5.746968e+03 3.150784e+04 -7.296148e+03 2.405499e+04 -1.022900e+04 1.967475e+04 -9.444526e+03 1.538091e+04 -8.902720e+03 1.223418e+04 -7.633780e+03 9.989147e+03 -6.147690e+03 9.205038e+03 -2.351616e+03 9.852592e+03 -5.580149e+02 8.753823e+03 7.600941e+02 7.520110e+03 1.758638e+03 6.051561e+03 2.420149e+03 4.330964e+03 2.727202e+03 2.341414e+03 2.665801e+03 -1.829504e+03 1.173405e+02 -4.586516e+03 4.449797e+01 -6.596227e+03 -2.118048e+02 -8.576734e+03 -8.045586e+02 -1.017851e+04 
8.419910e+02 -4.910475e+03 -1.781247e+04 8.275650e+03 -1.555478e+04 -7.041503e+04 -4.644206e+04 -4.054278e+04 5.609138e+04 8.617162e+04 3.075573e+04 1.623107e+04 1.185389e+05 -7.426268e+04 4.363309e+04 -4.323771e+04 1.285452e+04 -1.751322e+04 7.850312e+03 -6.896624e+03 5.691501e+04 3.691193e+04 4.158798e+04 -1.529238e+03 -4.713997e+04 -2.669613e+04 -3.137389e+04 1.682055e+04 -3.476087e+04 1.914208e+04 -1.832371e+04 1.348068e+04 -1.930454e+04 1.562438e+04 -1.451880e+04 1.312563e+04 -1.197325e+04 1.124487e+04 -9.496693e+03 9.689468e+03 -7.292610e+03 9.246876e+03 -3.232387e+03 1.023368e+04 -8.690090e+02 9.597134e+03 9.045054e+02 8.761919e+03 2.267830e+03 7.671184e+03 3.235644e+03 6.338264e+03 3.814366e+03 4.744532e+03 3.974083e+03 1.225254e+03 2.160548e+03 -6.049901e+02 2.625670e+03 -1.512560e+03 3.174882e+03 -2.132842e+03 3.197183e+03 -3.133899e+03 