# vtk DataFile Version 2.0
Comment goes here
ASCII

DATASET STRUCTURED_POINTS
DIMENSIONS    64   64   1

ORIGIN    0.000   0.000   0.000
SPACING   0.031250.03125   1.000

POINT_DATA   4096
SCALARS P double
LOOKUP_TABLE default

-2.204594e+03 -3.334014e+03 -2.069662e+03 -3.254013e+03 -1.951073e+03 -3.164154e+03 -1.853926e+03 -3.070320e+03 -1.783907e+03 -2.978620e+03 -1.746914e+03 -2.894063e+03 -1.748256e+03 -2.819400e+03 -1.791467e+03 -2.754705e+03 -1.877027e+03 -2.697876e+03 -2.001480e+03 -2.645963e+03 -2.157450e+03 -2.597023e+03 -2.334695e+03 -2.551762e+03 -2.521912e+03 -2.513967e+03 -2.708587e+03 -2.489303e+03 -2.886094e+03 -2.483359e+03 -3.047911e+03 -2.500033e+03 -3.189286e+03 -2.540769e+03 -3.306789e+03 -2.604515e+03 -3.397952e+03 -2.688120e+03 -3.461032e+03 -2.786885e+03 -3.494908e+03 -2.895147e+03 -3.499076e+03 -3.006841e+03 -3.473722e+03 -3.116020e+03 -3.419848e+03 -3.217297e+03 -3.339366e+03 -3.306147e+03 -3.235124e+03 -3.379072e+03 -3.110830e+03 -3.433603e+03 -2.970882e+03 -3.468192e+03 -2.820108e+03 -3.482031e+03 -2.663455e+03 -3.474883e+03 -2.505707e+03 -3.447034e+03 -2.351346e+03 -3.399436e+03 
-3.250582e+03 -3.643013e+03 -3.191582e+03 -3.615131e+03 -3.123978e+03 -3.560651e+03 -3.047184e+03 -3.482444e+03 -2.963397e+03 -3.384581e+03 -2.878348e+03 -3.271617e+03 -2.801319e+03 -3.147842e+03 -2.743913e+03 -3.016728e+03 -2.717487e+03 -2.880722e+03 -2.730050e+03 -2.741590e+03 -2.783793e+03 -2.601453e+03 -2.874217e+03 -2.464128e+03 -2.991269e+03 -2.335915e+03 -3.121967e+03 -2.225125e+03 -3.253383e+03 -2.140530e+03 -3.374915e+03 -2.089530e+03 -3.479423e+03 -2.076729e+03 -3.563235e+03 -2.103315e+03 -3.625417e+03 -2.167199e+03 -3.666793e+03 -2.263644e+03 -3.689088e+03 -2.386115e+03 -3.694375e+03 -2.527151e+03 -3.684827e+03 -2.679145e+03 -3.662692e+03 -2.834952e+03 -3.630346e+03 -2.988270e+03 -3.590309e+03 -3.133807e+03 -3.545158e+03 -3.267237e+03 -3.497315e+03 -3.385010e+03 -3.448716e+03 -3.484095e+03 -3.400443e+03 -3.561753e+03 -3.352408e+03 -3.615454e+03 -3.303252e+03 -3.643027e+03 
-2.344734e+03 -3.493122e+03 -2.197038e+03 -3.406230e+03 -2.053169e+03 -3.295757e+03 -1.915670e+03 -3.165834e+03 -1.788352e+03 -3.021754e+03 -1.676976e+03 -2.869104e+03 -1.589545e+03 -2.713175e+03 -1.535658e+03 -2.558908e+03 -1.524706e+03 -2.411121e+03 -1.563502e+03 -2.274816e+03 -1.654113e+03 -2.155619e+03 -1.792766e+03 -2.060107e+03 -1.970374e+03 -1.995351e+03 -2.174407e+03 -1.967264e+03 -2.391126e+03 -1.978845e+03 -2.607335e+03 -2.029509e+03 -2.811490e+03 -2.115551e+03 -2.994324e+03 -2.231128e+03 -3.149058e+03 -2.369215e+03 -3.271255e+03 -2.522323e+03 -3.358469e+03 -2.682986e+03 -3.409859e+03 -2.844125e+03 -3.425896e+03 -2.999355e+03 -3.408189e+03 -3.143255e+03 -3.359372e+03 -3.271519e+03 -3.282980e+03 -3.380969e+03 -3.183252e+03 -3.469413e+03 -3.064870e+03 -3.535386e+03 -2.932615e+03 -3.577816e+03 -2.790982e+03 -3.595720e+03 -2.643850e+03 -3.588082e+03 -2.494313e+03 -3.554002e+03 
-3.106195e+03 -3.562009e+03 -3.027612e+03 -3.527989e+03 -2.949573e+03 -3.479159e+03 -2.873820e+03 -3.422061e+03 -2.804647e+03 -3.363034e+03 -2.749138e+03 -3.306037e+03 -2.717031e+03 -3.251199e+03 -2.719437e+03 -3.194892e+03 -2.766017e+03 -3.131130e+03 -2.861628e+03 -3.053733e+03 -3.003642e+03 -2.958972e+03 -3.181183e+03 -2.848050e+03 -3.376975e+03 -2.728072e+03 -3.571282e+03 -2.610487e+03 -3.746293e+03 -2.508154e+03 -3.889281e+03 -2.432421e+03 -3.993906e+03 -2.391085e+03 -4.059562e+03 -2.387621e+03 -4.089562e+03 -2.421430e+03 -4.089126e+03 -2.488645e+03 -4.063823e+03 -2.583122e+03 -4.018668e+03 -2.697434e+03 -3.957843e+03 -2.823758e+03 -3.884822e+03 -2.954611e+03 -3.802660e+03 -3.083357e+03 -3.714252e+03 -3.204456e+03 -3.622434e+03 -3.313466e+03 -3.529891e+03 -3.406875e+03 -3.438901e+03 -3.481849e+03 -3.350997e+03 -3.536070e+03 -3.266701e+03 -3.567793e+03 -3.185500e+03 -3.576205e+03 
-2.483426e+03 -3.678530e+03 -2.320885e+03 -3.582250e+03 -2.149124e+03 -3.447127e+03 -1.967566e+03 -3.276135e+03 -1.777536e+03 -3.074572e+03 -1.584304e+03 -2.849057e+03 -1.399072e+03 -2.607321e+03 -1.239092e+03 -2.358798e+03 -1.124889e+03 -2.114854e+03 -1.075678e+03 -1.888083e+03 -1.104157e+03 -1.691518e+03 -1.212688e+03 -1.538248e+03 -1.392753e+03 -1.440375e+03 -1.627703e+03 -1.405802e+03 -1.896906e+03 -1.435547e+03 -2.179245e+03 -1.523998e+03 -2.455616e+03 -1.661255e+03 -2.710625e+03 -1.835689e+03 -2.933317e+03 -2.035682e+03 -3.116943e+03 -2.250491e+03 -3.258171e+03 -2.470525e+03 -3.356169e+03 -2.687409e+03 -3.411895e+03 -2.894079e+03 -3.427679e+03 -3.084911e+03 -3.406996e+03 -3.255798e+03 -3.354249e+03 -3.404019e+03 -3.274474e+03 -3.527925e+03 -3.172980e+03 -3.626467e+03 -3.054875e+03 -3.698581e+03 -2.924503e+03 -3.742624e+03 -2.784961e+03 -3.756090e+03 -2.637862e+03 -3.735786e+03 
-2.961650e+03 -3.501212e+03 -2.863445e+03 -3.455838e+03 -2.773044e+03 -3.406065e+03 -2.694033e+03 -3.363930e+03 -2.632656e+03 -3.340228e+03 -2.597487e+03 -3.339654e+03 -2.599833e+03 -3.357949e+03 -2.652909e+03 -3.382790e+03 -2.767833e+03 -3.397472e+03 -2.948910e+03 -3.385196e+03 -3.189544e+03 -3.334004e+03 -3.470843e+03 -3.241717e+03 -3.764631e+03 -3.118018e+03 -4.040158e+03 -2.980562e+03 -4.271527e+03 -2.849216e+03 -4.442470e+03 -2.741177e+03 -4.547978e+03 -2.668055e+03 -4.592252e+03 -2.635262e+03 -4.584831e+03 -2.642860e+03 -4.536911e+03 -2.686881e+03 -4.458831e+03 -2.760641e+03 -4.358883e+03 -2.855904e+03 -4.243170e+03 -2.963934e+03 -4.116119e+03 -3.076417e+03 -3.981220e+03 -3.186138e+03 -3.841640e+03 -3.287302e+03 -3.700563e+03 -3.375530e+03 -3.561192e+03 -3.447575e+03 -3.426461e+03 -3.500934e+03 -3.298575e+03 -3.533585e+03 -3.178628e+03 -3.544155e+03 -3.066565e+03 -3.532585e+03 
-2.630984e+03 -3.903420e+03 -2.454665e+03 -3.797609e+03 -2.255573e+03 -3.635116e+03 -2.028745e+03 -3.418219e+03 -1.771053e+03 -3.153091e+03 -1.485297e+03 -2.847463e+03 -1.185600e+03 -2.510805e+03 -8.994269e+02 -2.156720e+03 -6.628625e+02 -1.803784e+03 -5.126680e+02 -1.473042e+03 -4.760675e+02 -1.185498e+03 -5.622951e+02 -9.619668e+02 -7.609385e+02 -8.228347e+02 -1.047279e+03 -7.806260e+02 -1.390216e+03 -8.340752e+02 -1.758003e+03 -9.701796e+02 -2.122097e+03 -1.170272e+03 -2.460205e+03 -1.415147e+03 -2.757447e+03 -1.687721e+03 -3.005620e+03 -1.973721e+03 -3.201470e+03 -2.261384e+03 -3.344934e+03 -2.540994e+03 -3.437903e+03 -2.804682e+03 -3.483662e+03 -3.046561e+03 -3.486727e+03 -3.262840e+03 -3.452650e+03 -3.451565e+03 -3.387611e+03 -3.612106e+03 -3.298024e+03 -3.744427e+03 -3.189876e+03 -3.848004e+03 -3.067816e+03 -3.920767e+03 -2.934361e+03 -3.958514e+03 -2.789527e+03 -3.955076e+03 
-2.811452e+03 -3.455142e+03 -2.692393e+03 -3.388649e+03 -2.585904e+03 -3.325946e+03 -2.497358e+03 -3.288286e+03 -2.435399e+03 -3.295695e+03 -2.409759e+03 -3.356341e+03 -2.434024e+03 -3.460594e+03 -2.527234e+03 -3.583631e+03 -2.706459e+03 -3.693622e+03 -2.979421e+03 -3.758167e+03 -3.337007e+03 -3.752171e+03 -3.749532e+03 -3.668102e+03 -4.171573e+03 -3.522341e+03 -4.554069e+03 -3.344757e+03 -4.858110e+03 -3.167188e+03 -5.062107e+03 -3.015454e+03 -5.164362e+03 -2.905377e+03 -5.177712e+03 -2.843335e+03 -5.121589e+03 -2.828679e+03 -5.015677e+03 -2.856061e+03 -4.876310e+03 -2.917138e+03 -4.715235e+03 -3.001873e+03 -4.540009e+03 -3.099745e+03 -4.355310e+03 -3.200975e+03 -4.164467e+03 -3.297464e+03 -3.970595e+03 -3.383193e+03 -3.777203e+03 -3.454105e+03 -3.588283e+03 -3.507568e+03 -3.407851e+03 -3.541587e+03 -3.239117e+03 -3.554217e+03 -3.083735e+03 -3.543718e+03 -2.941598e+03 -3.509706e+03 
-2.797802e+03 -4.183369e+03 -2.612883e+03 -4.070794e+03 -2.391567e+03 -3.879260e+03 -2.122713e+03 -3.611078e+03 -1.794789e+03 -3.275262e+03 -1.402876e+03 -2.880363e+03 -9.618879e+02 -2.435319e+03 -5.139376e+02 -1.957032e+03 -1.184343e+02 -1.473732e+03 1.601945e+02 -1.017497e+03 2.717352e+02 -6.176717e+02 1.982759e+02 -3.032373e+02 -4.296007e+01 -1.101548e+02 -4.116769e+02 -6.126498e+01 -8.603707e+02 -1.510290e+02 -1.342348e+03 -3.531542e+02 -1.816387e+03 -6.351268e+02 -2.252196e+03 -9.674523e+02 -2.631837e+03 -1.326811e+03 -2.947450e+03 -1.695659e+03 -3.197671e+03 -2.060544e+03 -3.384467e+03 -2.410625e+03 -3.511252e+03 -2.737140e+03 -3.582428e+03 -3.033849e+03 -3.603737e+03 -3.297550e+03 -3.582251e+03 -3.527563e+03 -3.525664e+03 -3.724992e+03 -3.442156e+03 -3.891851e+03 -3.339498e+03 -4.029161e+03 -3.223427e+03 -4.134959e+03 -3.096239e+03 -4.203139e+03 -2.956188e+03 -4.223511e+03 
-2.652221e+03 -3.422483e+03 -2.510921e+03 -3.319086e+03 -2.383008e+03 -3.222499e+03 -2.276237e+03 -3.169894e+03 -2.203929e+03 -3.200770e+03 -2.174609e+03 -3.332594e+03 -2.202534e+03 -3.547955e+03 -2.319538e+03 -3.801313e+03 -2.555764e+03 -4.039177e+03 -2.929660e+03 -4.205567e+03 -3.433258e+03 -4.251908e+03 -4.021494e+03 -4.158872e+03 -4.620333e+03 -3.960086e+03 -5.148733e+03 -3.709757e+03 -5.547029e+03 -3.459984e+03 -5.785630e+03 -3.248962e+03 -5.871603e+03 -3.095826e+03 -5.834400e+03 -3.005323e+03 -5.709680e+03 -2.973731e+03 -5.529192e+03 -2.992633e+03 -5.316499e+03 -3.050783e+03 -5.086436e+03 -3.135179e+03 -4.846739e+03 -3.232359e+03 -4.600870e+03 -3.330237e+03 -4.350911e+03 -3.419514e+03 -4.099337e+03 -3.494094e+03 -3.849872e+03 -3.550723e+03 -3.607688e+03 -3.588055e+03 -3.378667e+03 -3.605085e+03 -3.167738e+03 -3.599695e+03 -2.977294e+03 -3.568590e+03 -2.806544e+03 -3.509063e+03 
-2.994081e+03 -4.537585e+03 -2.811200e+03 -4.425412e+03 -2.579395e+03 -4.203945e+03 -2.280140e+03 -3.877042e+03 -1.886740e+03 -3.462561e+03 -1.374046e+03 -2.969101e+03 -7.503736e+02 -2.398507e+03 -8.182625e+01 -1.767544e+03 5.366710e+02 -1.121363e+03 9.939673e+02 -5.097103e+02 1.198860e+03 3.178684e+01 1.122095e+03 4.728396e+02 7.991760e+02 7.425718e+02 3.005085e+02 7.934032e+02 -3.012958e+02 6.422346e+02 -9.387272e+02 3.424411e+02 -1.552365e+03 -5.052266e+01 -2.102978e+03 -4.935159e+02 -2.572139e+03 -9.571720e+02 -2.955991e+03 -1.422238e+03 -3.258195e+03 -1.875034e+03 -3.484617e+03 -2.304159e+03 -3.640660e+03 -2.699586e+03 -3.731504e+03 -3.054289e+03 -3.764093e+03 -3.366215e+03 -3.747664e+03 -3.636700e+03 -3.691509e+03 -3.869389e+03 -3.606481e+03 -4.070172e+03 -3.503776e+03 -4.243506e+03 -3.391645e+03 -4.388626e+03 -3.272790e+03 -4.497432e+03 -3.143454e+03 -4.554228e+03 
-2.483960e+03 -3.409694e+03 -2.320781e+03 -3.245897e+03 -2.164371e+03 -3.079181e+03 -2.026159e+03 -2.973616e+03 -1.934118e+03 -3.010969e+03 -1.886755e+03 -3.230838e+03 -1.887495e+03 -3.602699e+03 -1.999036e+03 -4.040025e+03 -2.274611e+03 -4.462071e+03 -2.757724e+03 -4.779242e+03 -3.451887e+03 -4.897438e+03 -4.288399e+03 -4.761177e+03 -5.144573e+03 -4.453079e+03 -5.879271e+03 -4.076156e+03 -6.400991e+03 -3.715641e+03 -6.666165e+03 -3.426508e+03 -6.705555e+03 -3.225840e+03 -6.581545e+03 -3.110675e+03 -6.356065e+03 -3.070459e+03 -6.077098e+03 -3.091875e+03 -5.775910e+03 -3.159720e+03 -5.468778e+03 -3.256753e+03 -5.160817e+03 -3.364824e+03 -4.851449e+03 -3.468295e+03 -4.539835e+03 -3.556460e+03 -4.226980e+03 -3.623570e+03 -3.916574e+03 -3.667967e+03 -3.615603e+03 -3.690904e+03 -3.333447e+03 -3.693671e+03 -3.078333e+03 -3.673965e+03 -2.854045e+03 -3.625144e+03 -2.658450e+03 -3.538682e+03 
-3.229588e+03 -4.991036e+03 -3.066492e+03 -4.894426e+03 -2.844735e+03 -4.642606e+03 -2.541784e+03 -4.242963e+03 -2.106482e+03 -3.741149e+03 -1.464163e+03 -3.144377e+03 -5.924678e+02 -2.430379e+03 3.911162e+02 -1.601230e+03 1.342961e+03 -7.419154e+02 2.069558e+03 6.136756e+01 2.396552e+03 7.751004e+02 2.281837e+03 1.411760e+03 1.809841e+03 1.804415e+03 1.107838e+03 1.842749e+03 2.835750e+02 1.580195e+03 -5.678172e+02 1.129247e+03 -1.357904e+03 5.827556e+02 -2.039646e+03 -2.822320e-01 -2.600822e+03 -5.876075e+02 -3.048447e+03 -1.162589e+03 -3.396302e+03 -1.714554e+03 -3.656709e+03 -2.232495e+03 -3.836802e+03 -2.703602e+03 -3.940558e+03 -3.118285e+03 -3.975502e+03 -3.477342e+03 -3.955011e+03 -3.785154e+03 -3.888478e+03 -4.047874e+03 -3.790769e+03 -4.278741e+03 -3.679893e+03 -4.489354e+03 -3.569272e+03 -4.682194e+03 -3.462991e+03 -4.847392e+03 -3.354840e+03 -4.961931e+03 
-2.312123e+03 -3.438061e+03 -2.133941e+03 -3.182460e+03 -1.940512e+03 -2.884055e+03 -1.744507e+03 -2.648324e+03 -1.630146e+03 -2.652610e+03 -1.559380e+03 -2.986795e+03 -1.471473e+03 -3.600415e+03 -1.524772e+03 -4.302277e+03 -1.797929e+03 -4.998728e+03 -2.388254e+03 -5.561953e+03 -3.342543e+03 -5.809533e+03 -4.548157e+03 -5.548810e+03 -5.802236e+03 -5.023306e+03 -6.838382e+03 -4.430038e+03 -7.523822e+03 -3.903725e+03 -7.781126e+03 -3.519929e+03 -7.709132e+03 -3.274696e+03 -7.435044e+03 -3.145199e+03 -7.060122e+03 -3.109402e+03 -6.651035e+03 -3.148237e+03 -6.244832e+03 -3.242654e+03 -5.855340e+03 -3.369948e+03 -5.479601e+03 -3.503898e+03 -5.107579e+03 -3.623192e+03 -4.733415e+03 -3.716037e+03 -4.355613e+03 -3.778040e+03 -3.977388e+03 -3.810022e+03 -3.608400e+03 -3.818265e+03 -3.265144e+03 -3.809820e+03 -2.962499e+03 -3.783009e+03 -2.707188e+03 -3.725424e+03 -2.495385e+03 -3.617131e+03 
-3.513826e+03 -5.577698e+03 -3.397910e+03 -5.528816e+03 -3.215869e+03 -5.248090e+03 -2.960166e+03 -4.742153e+03 -2.551433e+03 -4.142259e+03 -1.798498e+03 -3.451665e+03 -5.611582e+02 -2.589681e+03 8.818091e+02 -1.477429e+03 2.358553e+03 -3.184585e+02 3.527283e+03 7.100804e+02 4.014116e+03 1.583030e+03 3.769822e+03 2.575394e+03 3.033917e+03 3.195708e+03 2.017588e+03 3.177432e+03 8.697720e+02 2.700445e+03 -2.777432e+02 2.009155e+03 -1.283540e+03 1.250506e+03 -2.103953e+03 4.946369e+02 -2.747948e+03 -2.335207e+02 -3.244680e+03 -9.294121e+02 -3.625644e+03 -1.591673e+03 -3.913155e+03 -2.211186e+03 -4.114075e+03 -2.767449e+03 -4.224451e+03 -3.241536e+03 -4.249544e+03 -3.643881e+03 -4.215268e+03 -3.983484e+03 -4.122559e+03 -4.263763e+03 -3.993385e+03 -4.513691e+03 -3.860606e+03 -4.759552e+03 -3.747543e+03 -5.010388e+03 -3.660691e+03 -5.255260e+03 -3.590572e+03 -5.462339e+03 
-2.150119e+03 -3.556488e+03 -1.983522e+03 -3.176593e+03 -1.750678e+03 -2.647097e+03 -1.425248e+03 -2.120995e+03 -1.308899e+03 -2.001700e+03 -1.268174e+03 -2.479789e+03 -9.317661e+02 -3.522786e+03 -8.450253e+02 -4.581951e+03 -1.023248e+03 -5.681820e+03 -1.678337e+03 -6.675741e+03 -3.011777e+03 -7.252889e+03 -4.800621e+03 -6.638607e+03 -6.712277e+03 -5.681143e+03 -8.198227e+03 -4.722740e+03 -9.102354e+03 -3.959606e+03 -9.241414e+03 -3.485064e+03 -8.925187e+03 -3.216294e+03 -8.397163e+03 -3.093301e+03 -7.805095e+03 -3.080392e+03 -7.228608e+03 -3.155617e+03 -6.703833e+03 -3.299562e+03 -6.235747e+03 -3.483540e+03 -5.803752e+03 -3.664694e+03 -5.376974e+03 -3.811979e+03 -4.943573e+03 -3.914242e+03 -4.495998e+03 -3.970671e+03 -4.038507e+03 -3.984731e+03 -3.583637e+03 -3.971702e+03 -3.163801e+03 -3.953995e+03 -2.807152e+03 -3.933012e+03 -2.525762e+03 -3.887594e+03 -2.314894e+03 -3.778800e+03 
-3.856918e+03 -6.344156e+03 -3.833330e+03 -6.414856e+03 -3.726928e+03 -6.122270e+03 -3.596330e+03 -5.427928e+03 -3.388155e+03 -4.707475e+03 -2.654814e+03 -3.955323e+03 -7.587433e+02 -3.015579e+03 1.319961e+03 -1.419368e+03 3.658079e+03 2.160832e+02 5.641613e+03 1.493811e+03 6.329480e+03 2.233675e+03 5.619400e+03 4.059283e+03 4.492467e+03 5.153771e+03 3.005127e+03 4.941103e+03 1.377274e+03 4.029977e+03 -1.709457e+02 2.955032e+03 -1.412962e+03 1.912231e+03 -2.354458e+03 9.567948e+02 -3.049526e+03 8.187731e+01 -3.563493e+03 -7.374708e+02 -3.956098e+03 -1.520523e+03 -4.266116e+03 -2.263941e+03 -4.496136e+03 -2.926314e+03 -4.614573e+03 -3.452741e+03 -4.609975e+03 -3.890867e+03 -4.556187e+03 -4.257137e+03 -4.408864e+03 -4.524927e+03 -4.211051e+03 -4.766161e+03 -4.031027e+03 -5.037455e+03 -3.908585e+03 -5.357407e+03 -3.851402e+03 -5.714707e+03 -3.845265e+03 -6.069292e+03 
-2.019110e+03 -3.862737e+03 -1.943949e+03 -3.355554e+03 -1.728729e+03 -2.453533e+03 -1.060939e+03 -1.305081e+03 -9.971636e+02 -8.887765e+02 -1.356351e+03 -1.447283e+03 -1.708234e+02 -3.446944e+03 8.641309e+01 -4.837588e+03 2.019369e+02 -6.490637e+03 -3.297782e+02 -8.226826e+03 -2.267612e+03 -9.947292e+03 -5.210252e+03 -8.217613e+03 -8.204880e+03 -6.390057e+03 -1.034156e+04 -4.815339e+03 -1.149553e+04 -3.765981e+03 -1.118382e+04 -3.269165e+03 -1.036920e+04 -3.027313e+03 -9.434946e+03 -2.943065e+03 -8.544658e+03 -2.974002e+03 -7.764857e+03 -3.106108e+03 -7.118353e+03 -3.331304e+03 -6.596647e+03 -3.619455e+03 -6.147905e+03 -3.884369e+03 -5.692144e+03 -4.079897e+03 -5.219676e+03 -4.194338e+03 -4.685708e+03 -4.234780e+03 -4.122963e+03 -4.210888e+03 -3.541399e+03 -4.149872e+03 -3.012908e+03 -4.118796e+03 -2.589592e+03 -4.124318e+03 -2.288888e+03 -4.132293e+03 -2.108212e+03 -4.077951e+03 
-4.267722e+03 -7.349850e+03 -4.432177e+03 -7.704145e+03 -4.469038e+03 -7.503179e+03 -4.512907e+03 -6.480048e+03 -4.949933e+03 -5.571261e+03 -4.877330e+03 -4.804484e+03 -1.174673e+03 -4.112021e+03 1.477790e+03 -1.428109e+03 5.288963e+03 1.072971e+03 9.014245e+03 2.794678e+03 1.006796e+04 1.475443e+03 6.853390e+03 6.059558e+03 6.071848e+03 8.179565e+03 3.984187e+03 7.373684e+03 1.517216e+03 5.540881e+03 -4.451021e+02 3.871572e+03 -1.862518e+03 2.480733e+03 -2.861665e+03 1.329154e+03 -3.541325e+03 3.297682e+02 -4.013995e+03 -5.970383e+02 -4.383232e+03 -1.510264e+03 -4.722050e+03 -2.431192e+03 -5.032947e+03 -3.268591e+03 -5.206060e+03 -3.824180e+03 -5.118206e+03 -4.285473e+03 -5.069852e+03 -4.684357e+03 -4.789843e+03 -4.854866e+03 -4.435393e+03 -5.017134e+03 -4.160631e+03 -5.288824e+03 -4.018998e+03 -5.687888e+03 -4.006814e+03 -6.200287e+03 -4.102186e+03 -6.785062e+03 
-1.936052e+03 -4.533110e+03 -2.151489e+03 -4.047866e+03 -2.301366e+03 -2.631725e+03 -9.194010e+02 -1.669870e+02 -6.526263e+02 4.161494e+02 -3.638785e+03 5.314001e+02 1.449677e+03 -3.998825e+03 1.166942e+03 -4.854843e+03 2.056017e+03 -7.246176e+03 2.343070e+03 -9.823374e+03 -4.539244e+02 -1.694633e+04 -8.738364e+03 -1.084464e+04 -1.195692e+04 -6.979856e+03 -1.444149e+04 -4.237696e+03 -1.533212e+04 -3.233238e+03 -1.367698e+04 -2.849229e+03 -1.195842e+04 -2.702831e+03 -1.044503e+04 -2.693494e+03 -9.187504e+03 -2.781295e+03 -8.182305e+03 -2.983129e+03 -7.428061e+03 -3.332345e+03 -6.920294e+03 -3.833541e+03 -6.572229e+03 -4.249657e+03 -6.148426e+03 -4.551082e+03 -5.715100e+03 -4.678708e+03 -5.029596e+03 -4.653369e+03 -4.300039e+03 -4.540072e+03 -3.482865e+03 -4.339055e+03 -2.778804e+03 -4.274581e+03 -2.268395e+03 -4.336506e+03 -1.955250e+03 -4.467304e+03 -1.844765e+03 -4.580815e+03 
-4.729716e+03 -8.656150e+03 -5.322681e+03 -9.704709e+03 -5.861430e+03 -9.952870e+03 -6.194313e+03 -9.085369e+03 -7.784110e+03 -7.659967e+03 -1.158842e+04 -8.206136e+03 -1.029490e+03 -7.196901e+03 4.960814e+02 -1.260156e+03 6.943114e+03 2.598115e+03 1.488142e+04 7.097779e+03 1.830531e+04 -1.107038e+04 -4.859797e+03 8.982278e+03 5.652345e+03 1.320799e+04 4.984357e+03 1.092738e+04 1.331840e+02 6.973471e+03 -1.332839e+03 4.503625e+03 -2.731792e+03 2.796565e+03 -3.696903e+03 1.534210e+03 -4.249536e+03 4.859662e+02 -4.580877e+03 -4.967643e+02 -4.863971e+03 -1.538401e+03 -5.256461e+03 -2.770560e+03 -5.827098e+03 -4.011990e+03 -6.252353e+03 -4.462791e+03 -5.781473e+03 -4.921057e+03 -6.005015e+03 -5.471937e+03 -5.360882e+03 -5.300148e+03 -4.630971e+03 -5.213635e+03 -4.183658e+03 -5.444626e+03 -4.019845e+03 -5.931102e+03 -4.077593e+03 -6.644794e+03 -4.323119e+03 -7.571078e+03 
-1.853017e+03 -5.799813e+03 -2.947508e+03 -6.306256e+03 -4.294769e+03 -4.865577e+03 -5.523767e+03 -8.724774e+02 2.717755e+03 -5.476518e+02 -1.411515e+04 1.643171e+03 5.957488e+03 -8.860048e+03 6.966119e+02 -3.466114e+03 4.156735e+03 -7.985021e+03 7.391759e+03 -7.755601e+03 6.111679e+03 -5.120372e+04 -3.555264e+04 -2.222366e+04 -2.886615e+04 -7.032847e+03 -2.401853e+04 -1.339123e+03 -2.065805e+04 -2.873849e+03 -1.652162e+04 -2.210785e+03 -1.338473e+04 -2.266263e+03 -1.122008e+04 -2.361933e+03 -9.594354e+03 -2.490156e+03 -8.365946e+03 -2.741897e+03 -7.521212e+03 -3.248202e+03 -7.163300e+03 -4.225227e+03 -7.136818e+03 -3.993240e+03 -4.173833e+03 -7.632213e+02 -1.113888e+03 -8.852320e+02 -2.887077e+03 -4.418251e+03 -4.638462e+03 -5.068149e+03 -3.388878e+03 -4.466895e+03 -2.381819e+03 -4.339411e+03 -1.772135e+03 -4.501685e+03 -1.449543e+03 -4.848543e+03 -1.434061e+03 -5.308642e+03 
-5.275918e+03 -1.022130e+04 -6.347091e+03 -1.339670e+04 -9.323105e+03 -1.433407e+04 -1.191431e+04 -1.824833e+04 -6.774079e+03 -9.489198e+03 -2.452619e+04 -2.010978e+04 -6.439543e+03 -1.426739e+04 -5.250745e+03 7.795023e+02 5.098163e+03 2.162062e+03 2.141623e+04 2.782655e+04 3.963369e+04 7.680447e+03 6.054960e+04 5.146170e+04 2.283796e+04 2.032846e+04 8.617136e+03 1.773161e+04 -7.010651e+03 6.306167e+03 -2.007401e+03 4.229838e+03 -4.152894e+03 2.646648e+03 -4.969809e+03 1.505334e+03 -5.187234e+03 5.510222e+02 -5.209675e+03 -3.790668e+02 -5.276009e+03 -1.469193e+03 -5.677827e+03 -2.675203e+03 -4.240110e+03 1.600182e+03 2.157751e+03 5.414031e+03 4.383960e+03 4.951083e+03 2.630090e+03 2.492770e+02 -3.377919e+03 -5.203301e+03 -4.609215e+03 -5.184876e+03 -3.964740e+03 -5.380231e+03 -3.819862e+03 -5.965727e+03 -3.990624e+03 -6.898487e+03 -4.461897e+03 -8.261254e+03 
-1.114739e+03 -7.487957e+03 -3.010835e+03 -8.791138e+03 -9.264283e+03 -1.323127e+04 -1.541163e+04 -3.067040e+03 3.276210e+04 7.429676e+04 8.959744e+04 5.025133e+04 6.797218e+03 -5.783173e+03 2.765015e+03 4.098998e+03 4.178138e+03 -7.421336e+03 1.743866e+04 1.934358e+04 6.106473e+04 7.988719e+04 1.410919e+05 3.792220e+04 -8.376982e+03 -5.392886e+03 -3.032174e+04 -6.789962e+03 -2.806251e+04 1.115761e+02 -1.782019e+04 -1.328230e+03 -1.379896e+04 -1.881134e+03 -1.147272e+04 -2.002094e+03 -9.619026e+03 -2.086983e+03 -8.185896e+03 -2.288044e+03 -7.176005e+03 -2.719556e+03 -6.732953e+03 -2.095832e+03 -1.044563e+03 4.532371e+03 3.675693e+03 5.560743e+03 4.666847e+03 5.365189e+03 5.003464e+03 4.024862e+03 1.733383e+03 -2.961050e+03 -2.684409e+03 -4.132114e+03 -1.631514e+03 -4.151261e+03 -1.009826e+03 -4.488206e+03 -6.676989e+02 -5.126457e+03 -6.596621e+02 -6.111373e+03 
-5.776603e+03 -1.160713e+04 -9.559974e+03 -1.904439e+04 -1.616272e+04 -2.258548e+04 -1.783674e+04 -2.122447e+04 4.671794e+03 9.362608e+04 9.362732e+04 1.129273e+04 1.379531e+04 1.227162e+04 1.232420e+04 9.671474e+03 1.064089e+04 6.575832e+03 2.151203e+04 2.404122e+04 6.338838e+04 9.250920e+04 1.361767e+05 7.275276e+04 3.119742e+04 8.824405e+03 -8.261965e+02 7.652893e+03 -1.759302e+04 2.222840e+03 -7.273434e+03 3.243226e+03 -7.368870e+03 2.079576e+03 -6.863470e+03 1.269369e+03 -6.323175e+03 5.607735e+02 -5.805512e+03 -1.696532e+02 -5.399756e+03 -9.323339e+02 -4.657670e+03 1.795464e+03 1.784896e+03 5.374772e+03 3.063491e+03 5.211540e+03 3.759977e+03 4.738446e+03 3.650660e+03 3.944015e+03 2.957580e+03 -5.236834e+02 -2.980573e+03 -4.522792e+03 -3.299553e+03 -4.976739e+03 -3.311807e+03 -5.655452e+03 -3.630657e+03 -6.705456e+03 -4.353242e+03 -8.417635e+03 
-9.656000e+02 -9.404464e+03 -4.884590e+03 -1.431121e+04 -7.846576e+03 -2.482930e+04 -5.484313e+04 -4.731350e+04 1.194702e+04 9.699174e+04 6.886443e+04 3.095122e+04 3.227806e+04 2.770132e+03 1.305504e+04 2.876740e+02 6.082984e+03 -1.062073e+04 1.292997e+03 -3.363215e+04 -1.442902e+04 -4.329639e+04 1.034527e+05 4.588759e+04 -1.466445e+04 -8.539055e+03 -5.523331e+04 1.187637e+04 -3.361201e+04 -6.709654e+03 -1.690111e+04 -2.174775e+03 -1.435107e+04 -1.868547e+03 -1.145412e+04 -1.669284e+03 -9.245393e+03 -1.605810e+03 -7.595328e+03 -1.651297e+03 -6.284501e+03 -1.438776e+03 -2.875456e+03 3.690430e+03 2.093715e+03 4.785440e+03 3.245386e+03 4.924788e+03 4.253140e+03 4.716404e+03 4.601733e+03 4.154148e+03 4.862098e+03 2.752962e+03 1.444123e+03 -2.977790e+03 -4.737013e+02 -3.669021e+03 4.509321e+01 -4.192076e+03 4.105199e+02 -5.010128e+03 3.278150e+02 -6.476823e+03 
-6.405991e+03 -1.134694e+04 -1.389160e+04 -2.884845e+04 -2.331189e+04 -5.695241e+04 -6.129591e+04 -1.071561e+05 -3.450378e+04 1.286910e+05 1.722969e+05 4.241092e+04 8.042989e+02 9.590293e+02 1.694983e+04 1.033656e+04 1.537998e+04 8.754005e+03 1.675516e+04 3.123111e+03 1.401290e+04 1.447928e+04 1.451108e+05 1.828709e+05 9.905459e+04 -4.152582e+04 -5.776420e+04 -4.881465e+03 -2.038987e+04 -4.425945e+03 -1.202015e+04 -1.557836e+03 -9.957143e+03 7.102510e+02 -8.735034e+03 8.370176e+02 -7.420312e+03 5.456923e+02 -6.325403e+03 1.227156e+02 -5.468740e+03 2.024073e+02 -8.808642e+02 5.446803e+03 2.175436e+03 5.126057e+03 2.761075e+03 4.844410e+03 3.351015e+03 4.404120e+03 3.501015e+03 3.786362e+03 3.684537e+03 3.211897e+03 1.439154e+03 -3.083426e+03 -2.497996e+03 -4.272099e+03 -2.534143e+03 -4.972736e+03 -2.879471e+03 -5.837276e+03 -3.858541e+03 -7.216379e+03 
7.849382e+02 -9.930576e+03 -5.553877e+03 -1.675523e+04 -3.853948e+04 -5.861392e+04 -9.930956e+04 -5.836309e+04 5.288118e+04 2.418599e+05 1.724319e+05 -2.566216e+03 -3.187517e+04 -1.463736e+04 1.352061e+04 7.440283e+03 1.113740e+04 -2.820116e+03 9.346118e+03 -1.557433e+04 1.411896e+04 -1.267956e+04 1.764327e+05 6.962967e+04 -7.884389e+03 -3.401963e+04 -1.194809e+05 -1.346830e+04 -4.617310e+04 -1.060200e+04 -2.259205e+04 -3.696590e+03 -1.369549e+04 -1.842398e+03 -1.050938e+04 -1.244444e+03 -8.300891e+03 -1.093196e+03 -6.725009e+03 -1.088982e+03 -5.573077e+03 1.296898e+02 1.329107e+02 4.949084e+03 2.527028e+03 5.008757e+03 3.551874e+03 4.976614e+03 4.359812e+03 4.758442e+03 4.894273e+03 4.339560e+03 5.256059e+03 3.804630e+03 4.423373e+03 -1.514943e+03 2.891986e+02 -3.190044e+03 1.188220e+03 -3.673365e+03 1.918786e+03 -4.383187e+03 2.094264e+03 -5.774522e+03 
-5.499334e+03 -7.841039e+02 -1.677487e+04 -6.745945e+03 -2.448183e+04 -6.697610e+04 1.998724e+04 -6.575443e+04 3.918965e+04 2.390500e+05 2.056499e+05 -1.766920e+04 -2.386710e+04 2.030198e+04 1.387014e+04 1.766146e+04 1.038443e+04 6.987850e+03 3.831852e+03 -2.382615e+03 -1.222277e+04 -1.625692e+04 1.744656e+05 2.757549e+05 1.731291e+05 8.680341e+04 -3.488381e+04 1.362199e+04 -2.908274e+04 -6.931421e+02 -2.136445e+04 1.500276e+03 -1.532290e+04 1.061269e+03 -1.091903e+04 8.381732e+02 -8.297311e+03 6.324787e+02 -6.674014e+03 2.044548e+02 -5.671563e+03 1.796557e+03 4.829011e+02 5.205572e+03 1.952429e+03 5.067217e+03 2.774061e+03 4.784977e+03 3.334669e+03 4.385641e+03 3.681739e+03 3.852437e+03 3.816794e+03 3.136553e+03 3.366185e+03 -1.100701e+03 -1.725558e+03 -3.657562e+03 -1.474081e+03 -4.140927e+03 -1.517224e+03 -4.700864e+03 -2.456084e+03 -4.210827e+03 
4.796167e+03 -2.433302e+03 -3.811526e+03 -9.376410e+03 -6.973685e+03 -2.901578e+04 1.004149e+05 2.922452e+04 6.209519e+04 2.152168e+05 2.164492e+05 -7.844102e+03 -6.318924e+04 -1.108138e+04 -5.671407e+03 3.262596e+03 1.564734e+03 -1.802696e+03 2.325929e+03 -5.858151e+03 1.140411e+04 -5.801667e+04 1.752497e+05 3.219769e+05 2.576678e+05 1.704035e+05 2.415053e+04 2.711014e+04 -2.755807e+04 9.254928e+00 -1.551166e+04 -7.783206e+02 -1.180741e+04 -1.265043e+03 -9.104466e+03 -9.685072e+02 -6.921651e+03 -5.284100e+02 -5.264818e+03 -1.698980e+02 -3.768635e+03 2.932381e+03 2.214101e+03 5.254129e+03 3.169606e+03 5.273279e+03 4.011598e+03 5.154028e+03 4.698225e+03 4.909758e+03 5.288716e+03 4.529418e+03 5.794243e+03 3.994296e+03 6.373048e+03 1.274266e+03 2.002231e+03 -2.339051e+03 2.712657e+03 -3.085226e+03 3.780369e+03 -3.813869e+03 4.861862e+03 -4.196369e+03 
8.184641e+02 -4.671561e+03 3.206379e+03 -1.860977e+04 -4.761041e+03 8.057242e+03 -3.595788e+04 4.129706e+04 1.825586e+05 1.560389e+05 8.889807e+04 -2.992066e+04 -3.769562e+04 -5.625196e+03 3.501122e+03 3.604989e+03 3.266061e+03 1.331625e+03 -1.785378e+03 -6.001348e+03 -1.788887e+04 -3.746532e+03 -4.993110e+04 2.890166e+04 1.790013e+05 1.568979e+05 -2.810931e+03 -3.499379e+04 -4.827857e+04 -4.598485e+03 -2.711438e+04 2.650657e+03 -1.728947e+04 1.263034e+03 -1.164113e+04 9.593381e+02 -8.535964e+03 7.537231e+02 -6.271120e+03 6.462725e+02 -4.274853e+03 4.081125e+03 1.438724e+03 5.202414e+03 2.199757e+03 5.038486e+03 2.941037e+03 4.774193e+03 3.519006e+03 4.423066e+03 4.004617e+03 3.974448e+03 4.399224e+03 3.405287e+03 4.862141e+03 1.531340e+03 5.463048e+02 -2.701493e+03 2.436990e+02 -3.425806e+03 2.503068e+02 -3.930866e+03 7.204184e+02 -3.925889e+03 
1.360672e+04 -2.482488e+03 4.266183e+03 -1.164574e+04 6.665477e+03 -3.538132e+04 -5.062660e+04 3.050646e+04 1.266089e+05 7.588141e+04 2.382604e+04 -4.685087e+04 -2.620437e+04 -3.474396e+04 -7.315846e+03 -9.504818e+03 -4.940754e+03 -1.982486e+03 -7.375209e+03 1.438505e+03 -1.750685e+04 -1.093370e+04 -5.656157e+04 -5.986827e+04 1.391614e+05 6.028493e+04 6.053994e+03 -4.686323e+04 -3.022416e+04 -1.708056e+04 -1.681396e+04 -3.249335e+03 -9.977958e+03 -1.604906e+03 -6.868948e+03 -5.211835e+02 -5.059888e+03 3.223471e+02 -3.409958e+03 7.055135e+02 -1.751048e+03 4.661530e+03 3.369812e+03 5.672601e+03 3.934448e+03 5.600797e+03 4.563106e+03 5.412089e+03 5.132278e+03 5.130982e+03 5.701670e+03 4.742745e+03 6.275003e+03 4.254099e+03 7.069760e+03 2.816461e+03 3.527825e+03 -1.583738e+03 4.021771e+03 -1.915806e+03 5.466192e+03 -2.562001e+03 8.512990e+03 -4.257551e+03 
3.226965e+03 -5.765552e+03 2.702852e+03 1.679569e+04 2.045885e+03 3.184092e+04 -1.713000e+04 4.588092e+04 3.280012e+04 7.027493e+04 4.467454e+04 -4.430686e+04 -5.166028e+04 -2.140863e+04 -1.006065e+04 -5.121746e+03 -1.064566e+03 -2.908072e+02 5.436263e+03 -4.670846e+03 2.586776e+04 -1.377898e+04 5.952987e+04 1.287643e+05 8.507515e+04 5.219609e+03 -5.838281e+03 1.907900e+04 -2.038387e+04 1.092846e+04 -1.787707e+04 2.004320e+03 -1.384072e+04 9.922454e+02 -9.707509e+03 9.286646e+02 -7.374453e+03 8.616310e+02 -5.344410e+03 7.175440e+02 -3.159752e+03 4.953248e+03 1.979261e+03 5.249624e+03 2.459587e+03 4.987923e+03 3.140044e+03 4.749611e+03 3.739585e+03 4.450875e+03 4.308971e+03 4.086954e+03 4.876247e+03 3.729964e+03 5.739311e+03 2.714070e+03 1.999347e+03 -2.157381e+03 1.694783e+03 -2.810727e+03 1.778232e+03 -3.640716e+03 3.299637e+03 -6.064809e+03 