# vtk DataFile Version 2.0
Comment goes here
ASCII

DATASET STRUCTURED_POINTS
DIMENSIONS    64   64   1

ORIGIN    0.000   0.000   0.000
SPACING   0.031250.03125   1.000

POINT_DATA   4096
VECTORS u double

-0.005394 -0.000013 1.000000 0.138640 -0.000012 1.000000 0.275087 -0.000016 1.000000 0.403247 -0.000016 1.000000 0.514454 -0.000020 1.000000 0.607858 -0.000021 1.000000 0.676900 -0.000026 1.000000 0.721331 -0.000026 1.000000 0.737145 -0.000032 1.000000 0.725317 -0.000032 1.000000 0.684680 -0.000038 1.000000 0.617767 -0.000038 1.000000 0.526235 -0.000043 1.000000 0.414159 -0.000042 1.000000 0.285542 -0.000046 1.000000 0.145661 -0.000045 1.000000 -0.000047 -0.000047 1.000000 -0.145742 -0.000045 1.000000 -0.285628 -0.000046 1.000000 -0.414228 -0.000042 1.000000 -0.526299 -0.000043 1.000000 -0.617814 -0.000038 1.000000 -0.684712 -0.000038 1.000000 -0.725334 -0.000032 1.000000 -0.737141 -0.000032 1.000000 -0.721318 -0.000026 1.000000 -0.676861 -0.000026 1.000000 -0.607816 -0.000021 1.000000 -0.514387 -0.000020 1.000000 -0.403184 -0.000016 1.000000 -0.275002 -0.000016 1.000000 -0.138565 -0.000012 1.000000 0.005484 -0.000013 1.000000 0.146889 -0.000010 1.000000 0.285843 -0.000011 1.000000 0.411307 -0.000010 1.000000 0.524823 -0.000012 1.000000 0.615505 -0.000011 1.000000 0.686557 -0.000013 1.000000 0.728288 -0.000013 1.000000 0.745693 -0.000016 1.000000 0.731258 -0.000016 1.000000 0.691665 -0.000020 1.000000 0.622344 -0.000019 1.000000 0.531207 -0.000023 1.000000 0.417056 -0.000022 1.000000 0.288131 -0.000025 1.000000 0.146656 -0.000024 1.000000 -0.000048 -0.000026 1.000000 -0.146729 -0.000024 1.000000 -0.288220 -0.000025 1.000000 -0.417117 -0.000022 1.000000 -0.531273 -0.000023 1.000000 -0.622383 -0.000019 1.000000 -0.691699 -0.000020 1.000000 -0.731269 -0.000016 1.000000 -0.745691 -0.000016 1.000000 -0.728271 -0.000013 1.000000 -0.686521 -0.000013 1.000000 -0.615460 -0.000011 1.000000 -0.524757 -0.000012 1.000000 -0.411242 -0.000010 1.000000 -0.285759 -0.000011 1.000000 -0.146813 -0.000010 1.000000 
-0.005289 -0.142696 1.000000 0.141753 -0.140207 1.000000 0.280817 -0.132270 1.000000 0.411872 -0.119648 1.000000 0.524991 -0.102271 1.000000 0.620810 -0.081186 1.000000 0.690679 -0.056702 1.000000 0.736738 -0.030086 1.000000 0.752050 -0.001959 1.000000 0.740841 0.026269 1.000000 0.698380 0.053807 1.000000 0.630979 0.079257 1.000000 0.536625 0.101834 1.000000 0.422988 0.120380 1.000000 0.291115 0.134278 1.000000 0.148763 0.142827 1.000000 -0.000036 0.145729 1.000000 -0.148821 0.142823 1.000000 -0.291181 0.134272 1.000000 -0.423038 0.120369 1.000000 -0.536673 0.101823 1.000000 -0.631013 0.079241 1.000000 -0.698404 0.053792 1.000000 -0.740854 0.026251 1.000000 -0.752046 -0.001975 1.000000 -0.736729 -0.030103 1.000000 -0.690649 -0.056716 1.000000 -0.620781 -0.081200 1.000000 -0.524940 -0.102282 1.000000 -0.411826 -0.119657 1.000000 -0.280753 -0.132277 1.000000 -0.141698 -0.140211 1.000000 0.005358 -0.142696 1.000000 0.149670 -0.140150 1.000000 0.291345 -0.132182 1.000000 0.419604 -0.119465 1.000000 0.535140 -0.102076 1.000000 0.628142 -0.080847 1.000000 0.700131 -0.056374 1.000000 0.743403 -0.029552 1.000000 0.760413 -0.001473 1.000000 0.746527 0.027025 1.000000 0.705212 0.054463 1.000000 0.635356 0.080235 1.000000 0.541486 0.102646 1.000000 0.425757 0.121540 1.000000 0.293646 0.135199 1.000000 0.149713 0.144090 1.000000 -0.000038 0.146690 1.000000 -0.149765 0.144086 1.000000 -0.293716 0.135193 1.000000 -0.425801 0.121529 1.000000 -0.541538 0.102635 1.000000 -0.635385 0.080219 1.000000 -0.705239 0.054450 1.000000 -0.746536 0.027006 1.000000 -0.760412 -0.001488 1.000000 -0.743390 -0.029569 1.000000 -0.700102 -0.056388 1.000000 -0.628109 -0.080861 1.000000 -0.535090 -0.102087 1.000000 -0.419556 -0.119474 1.000000 -0.291281 -0.132187 1.000000 -0.149614 -0.140153 1.000000 
-0.005448 -0.291380 1.000000 0.149068 -0.286119 1.000000 0.295651 -0.270135 1.000000 0.433253 -0.244189 1.000000 0.552924 -0.208958 1.000000 0.653433 -0.165709 1.000000 0.728008 -0.115954 1.000000 0.776077 -0.061397 1.000000 0.793502 -0.004135 1.000000 0.781082 0.053638 1.000000 0.737664 0.109824 1.000000 0.665791 0.161717 1.000000 0.567350 0.207948 1.000000 0.446598 0.245467 1.000000 0.307983 0.274180 1.000000 0.157111 0.291106 1.000000 -0.000051 0.297537 1.000000 -0.157198 0.291100 1.000000 -0.308077 0.274171 1.000000 -0.446672 0.245450 1.000000 -0.567420 0.207932 1.000000 -0.665840 0.161693 1.000000 -0.737699 0.109804 1.000000 -0.781101 0.053610 1.000000 -0.793497 -0.004157 1.000000 -0.776063 -0.061423 1.000000 -0.727966 -0.115974 1.000000 -0.653388 -0.165730 1.000000 -0.552853 -0.208975 1.000000 -0.433185 -0.244203 1.000000 -0.295561 -0.270144 1.000000 -0.148987 -0.286123 1.000000 0.005544 -0.291381 1.000000 0.157406 -0.285997 1.000000 0.306533 -0.269946 1.000000 0.441418 -0.243804 1.000000 0.563449 -0.208549 1.000000 0.661213 -0.165002 1.000000 0.737860 -0.115275 1.000000 0.783193 -0.060295 1.000000 0.802272 -0.003140 1.000000 0.787193 0.055185 1.000000 0.744872 0.111151 1.000000 0.670522 0.163707 1.000000 0.572505 0.209576 1.000000 0.449604 0.247818 1.000000 0.310676 0.276019 1.000000 0.158146 0.293661 1.000000 -0.000052 0.299453 1.000000 -0.158224 0.293654 1.000000 -0.310772 0.276011 1.000000 -0.449670 0.247800 1.000000 -0.572576 0.209561 1.000000 -0.670564 0.163682 1.000000 -0.744908 0.111132 1.000000 -0.787206 0.055156 1.000000 -0.802269 -0.003162 1.000000 -0.783174 -0.060322 1.000000 -0.737820 -0.115295 1.000000 -0.661165 -0.165024 1.000000 -0.563379 -0.208564 1.000000 -0.441348 -0.243818 1.000000 -0.306444 -0.269953 1.000000 -0.157324 -0.286002 1.000000 
-0.005406 -0.449088 1.000000 0.162995 -0.441307 1.000000 0.322741 -0.416455 1.000000 0.473039 -0.376921 1.000000 0.603463 -0.322451 1.000000 0.713805 -0.256270 1.000000 0.794987 -0.179346 1.000000 0.848553 -0.095579 1.000000 0.867085 -0.006964 1.000000 0.854805 0.082107 1.000000 0.806465 0.169098 1.000000 0.729115 0.249571 1.000000 0.620380 0.321027 1.000000 0.489231 0.379747 1.000000 0.336756 0.423765 1.000000 0.172124 0.450861 1.000000 -0.000042 0.460038 1.000000 -0.172191 0.450849 1.000000 -0.336833 0.423746 1.000000 -0.489288 0.379712 1.000000 -0.620436 0.320992 1.000000 -0.729154 0.249520 1.000000 -0.806491 0.169053 1.000000 -0.854821 0.082049 1.000000 -0.867080 -0.007013 1.000000 -0.848543 -0.095634 1.000000 -0.794952 -0.179390 1.000000 -0.713770 -0.256314 1.000000 -0.603404 -0.322486 1.000000 -0.472986 -0.376949 1.000000 -0.322667 -0.416474 1.000000 -0.162931 -0.441316 1.000000 0.005484 -0.449089 1.000000 0.171101 -0.441139 1.000000 0.333534 -0.416194 1.000000 0.480991 -0.376381 1.000000 0.613935 -0.321871 1.000000 0.721405 -0.255257 1.000000 0.804833 -0.178355 1.000000 0.855533 -0.093964 1.000000 0.875895 -0.005472 1.000000 0.860824 0.084425 1.000000 0.813740 0.171134 1.000000 0.733792 0.252602 1.000000 0.625603 0.323563 1.000000 0.492210 0.383368 1.000000 0.339492 0.426658 1.000000 0.173150 0.454818 1.000000 -0.000044 0.463059 1.000000 -0.173211 0.454806 1.000000 -0.339573 0.426639 1.000000 -0.492261 0.383332 1.000000 -0.625663 0.323530 1.000000 -0.733825 0.252551 1.000000 -0.813770 0.171091 1.000000 -0.860835 0.084367 1.000000 -0.875892 -0.005519 1.000000 -0.855519 -0.094019 1.000000 -0.804799 -0.178397 1.000000 -0.721368 -0.255301 1.000000 -0.613877 -0.321904 1.000000 -0.480936 -0.376410 1.000000 -0.333461 -0.416211 1.000000 -0.171037 -0.441149 1.000000 
-0.005605 -0.625412 1.000000 0.181710 -0.614265 1.000000 0.360056 -0.580178 1.000000 0.527277 -0.524911 1.000000 0.673606 -0.449724 1.000000 0.796562 -0.357233 1.000000 0.888727 -0.250702 1.000000 0.948473 -0.133495 1.000000 0.971199 -0.010387 1.000000 0.957143 0.114258 1.000000 0.905116 0.235514 1.000000 0.817705 0.347802 1.000000 0.697501 0.447833 1.000000 0.549321 0.529091 1.000000 0.379080 0.591286 1.000000 0.193377 0.627905 1.000000 -0.000064 0.641852 1.000000 -0.193484 0.627891 1.000000 -0.379197 0.591268 1.000000 -0.549410 0.529053 1.000000 -0.697586 0.447799 1.000000 -0.817765 0.347748 1.000000 -0.905157 0.235470 1.000000 -0.957166 0.114198 1.000000 -0.971191 -0.010435 1.000000 -0.948455 -0.133551 1.000000 -0.888675 -0.250747 1.000000 -0.796507 -0.357277 1.000000 -0.673519 -0.449759 1.000000 -0.527193 -0.524940 1.000000 -0.359948 -0.580198 1.000000 -0.181610 -0.614275 1.000000 0.005721 -0.625413 1.000000 0.190308 -0.614047 1.000000 0.371311 -0.579835 1.000000 0.535760 -0.524205 1.000000 0.684605 -0.448963 1.000000 0.804752 -0.355900 1.000000 0.899182 -0.249403 1.000000 0.956090 -0.131358 1.000000 0.980672 -0.008431 1.000000 0.963797 0.117339 1.000000 0.913038 0.238183 1.000000 0.822936 0.351844 1.000000 0.703247 0.451159 1.000000 0.552682 0.533929 1.000000 0.382111 0.595079 1.000000 0.194541 0.633197 1.000000 -0.000065 0.645814 1.000000 -0.194638 0.633183 1.000000 -0.382229 0.595060 1.000000 -0.552763 0.533891 1.000000 -0.703335 0.451126 1.000000 -0.822988 0.351789 1.000000 -0.913081 0.238141 1.000000 -0.963813 0.117278 1.000000 -0.980666 -0.008477 1.000000 -0.956067 -0.131415 1.000000 -0.899131 -0.249446 1.000000 -0.804693 -0.355946 1.000000 -0.684519 -0.448996 1.000000 -0.535674 -0.524235 1.000000 -0.371202 -0.579853 1.000000 -0.190208 -0.614057 1.000000 
-0.005615 -0.821006 1.000000 0.208219 -0.806968 1.000000 0.412080 -0.762022 1.000000 0.603468 -0.690470 1.000000 0.771120 -0.591736 1.000000 0.912800 -0.471392 1.000000 1.018711 -0.331257 1.000000 1.088858 -0.178051 1.000000 1.114841 -0.015634 1.000000 1.100724 0.148189 1.000000 1.040025 0.308536 1.000000 0.941468 0.457187 1.000000 0.801681 0.589411 1.000000 0.632711 0.698167 1.000000 0.435572 0.779709 1.000000 0.222698 0.830005 1.000000 -0.000056 0.846898 1.000000 -0.222784 0.829981 1.000000 -0.435673 0.779673 1.000000 -0.632783 0.698101 1.000000 -0.801753 0.589346 1.000000 -0.941517 0.457092 1.000000 -1.040057 0.308454 1.000000 -1.100743 0.148083 1.000000 -1.114832 -0.015723 1.000000 -1.088845 -0.178150 1.000000 -1.018664 -0.331339 1.000000 -0.912756 -0.471470 1.000000 -0.771046 -0.591799 1.000000 -0.603399 -0.690520 1.000000 -0.411987 -0.762057 1.000000 -0.208136 -0.806985 1.000000 0.005713 -0.821008 1.000000 0.216670 -0.806728 1.000000 0.423362 -0.761645 1.000000 0.611838 -0.689675 1.000000 0.782221 -0.590863 1.000000 0.920939 -0.469833 1.000000 1.029363 -0.329693 1.000000 1.096495 -0.175454 1.000000 1.124597 -0.013180 1.000000 1.107455 0.152059 1.000000 1.048263 0.311995 1.000000 0.946800 0.462393 1.000000 0.807702 0.593817 1.000000 0.636154 0.704504 1.000000 0.438761 0.784799 1.000000 0.223892 0.836994 1.000000 -0.000058 0.852238 1.000000 -0.223972 0.836970 1.000000 -0.438867 0.784764 1.000000 -0.636220 0.704438 1.000000 -0.807779 0.593755 1.000000 -0.946843 0.462297 1.000000 -1.048299 0.311916 1.000000 -1.107469 0.151952 1.000000 -1.124590 -0.013265 1.000000 -1.096477 -0.175554 1.000000 -1.029317 -0.329772 1.000000 -0.920891 -0.469913 1.000000 -0.782146 -0.590923 1.000000 -0.611767 -0.689727 1.000000 -0.423270 -0.761676 1.000000 -0.216586 -0.806746 1.000000 
-0.005827 -1.050217 1.000000 0.240712 -1.031960 1.000000 0.476598 -0.975428 1.000000 0.697610 -0.883952 1.000000 0.892758 -0.759056 1.000000 1.057098 -0.604823 1.000000 1.182142 -0.426760 1.000000 1.264136 -0.229625 1.000000 1.297475 -0.022253 1.000000 1.281316 0.189075 1.000000 1.214092 0.394770 1.000000 1.098548 0.586146 1.000000 0.938427 0.756590 1.000000 0.739587 0.895199 1.000000 0.510882 1.001299 1.000000 0.260557 1.063532 1.000000 -0.000088 1.087334 1.000000 -0.260700 1.063508 1.000000 -0.511041 1.001267 1.000000 -0.739705 0.895133 1.000000 -0.938540 0.756533 1.000000 -1.098626 0.586053 1.000000 -1.214143 0.394696 1.000000 -1.281345 0.188973 1.000000 -1.297460 -0.022333 1.000000 -1.264112 -0.229718 1.000000 -1.182070 -0.426836 1.000000 -1.057024 -0.604896 1.000000 -0.892642 -0.759116 1.000000 -0.697498 -0.883998 1.000000 -0.476456 -0.975461 1.000000 -0.240580 -1.031975 1.000000 0.005978 -1.050219 1.000000 0.249687 -1.031696 1.000000 0.488407 -0.975004 1.000000 0.706586 -0.883064 1.000000 0.904520 -0.758064 1.000000 1.065976 -0.603042 1.000000 1.193635 -0.424959 1.000000 1.272643 -0.226592 1.000000 1.308222 -0.019391 1.000000 1.288973 0.193673 1.000000 1.223353 0.398838 1.000000 1.104724 0.592406 1.000000 0.945309 0.761804 1.000000 0.743630 0.902870 1.000000 0.514567 1.007341 1.000000 0.261970 1.072016 1.000000 -0.000089 1.093678 1.000000 -0.262102 1.071992 1.000000 -0.514728 1.007309 1.000000 -0.743738 0.902802 1.000000 -0.945425 0.761748 1.000000 -1.104793 0.592309 1.000000 -1.223406 0.398767 1.000000 -1.288995 0.193568 1.000000 -1.308209 -0.019469 1.000000 -1.272613 -0.226687 1.000000 -1.193564 -0.425032 1.000000 -1.065899 -0.603117 1.000000 -0.904406 -0.758120 1.000000 -0.706472 -0.883111 1.000000 -0.488265 -0.975033 1.000000 -0.249555 -1.031712 1.000000 
-0.005864 -1.311273 1.000000 0.282987 -1.289393 1.000000 0.560053 -1.218920 1.000000 0.819784 -1.106630 1.000000 1.050201 -0.951224 1.000000 1.245033 -0.760776 1.000000 1.393877 -0.538295 1.000000 1.493341 -0.293384 1.000000 1.533554 -0.032814 1.000000 1.517793 0.231572 1.000000 1.437142 0.491305 1.000000 1.303376 0.732852 1.000000 1.110758 0.948371 1.000000 0.877474 1.125712 1.000000 0.603887 1.258739 1.000000 0.308738 1.340976 1.000000 -0.000079 1.368155 1.000000 -0.308856 1.340935 1.000000 -0.604030 1.258678 1.000000 -0.877572 1.125600 1.000000 -1.110857 0.948267 1.000000 -1.303443 0.732694 1.000000 -1.437182 0.491173 1.000000 -1.517820 0.231401 1.000000 -1.533535 -0.032956 1.000000 -1.493324 -0.293541 1.000000 -1.393811 -0.538427 1.000000 -1.244972 -0.760898 1.000000 -1.050099 -0.951325 1.000000 -0.819689 -1.106707 1.000000 -0.559930 -1.218975 1.000000 -0.282873 -1.289418 1.000000 0.005995 -1.311276 1.000000 0.291864 -1.289157 1.000000 0.571963 -1.218543 1.000000 0.828723 -1.105789 1.000000 1.062196 -0.950254 1.000000 1.253981 -0.758949 1.000000 1.405783 -0.536360 1.000000 1.502038 -0.290041 1.000000 1.544876 -0.029510 1.000000 1.525729 0.236928 1.000000 1.447045 0.496244 1.000000 1.309848 0.740437 1.000000 1.118194 0.954911 1.000000 0.881739 1.135246 1.000000 0.607892 1.266459 1.000000 0.310232 1.351651 1.000000 -0.000083 1.376310 1.000000 -0.310343 1.351610 1.000000 -0.608041 1.266400 1.000000 -0.881830 1.135134 1.000000 -1.118299 0.954810 1.000000 -1.309908 0.740279 1.000000 -1.447088 0.496118 1.000000 -1.525750 0.236756 1.000000 -1.544860 -0.029646 1.000000 -1.502015 -0.290199 1.000000 -1.405717 -0.536486 1.000000 -1.253917 -0.759072 1.000000 -1.062095 -0.950350 1.000000 -0.828626 -1.105867 1.000000 -0.571840 -1.218594 1.000000 -0.291749 -1.289184 1.000000 
-0.006036 -1.624953 1.000000 0.333103 -1.597877 1.000000 0.659447 -1.512225 1.000000 0.965403 -1.374100 1.000000 1.238771 -1.184304 1.000000 1.470156 -0.948500 1.000000 1.649718 -0.675069 1.000000 1.769725 -0.369302 1.000000 1.822549 -0.046704 1.000000 1.805460 0.285486 1.000000 1.715349 0.609186 1.000000 1.555550 0.912531 1.000000 1.331179 1.182493 1.000000 1.049901 1.402070 1.000000 0.726103 1.570035 1.000000 0.369981 1.667499 1.000000 -0.000129 1.704928 1.000000 -0.370184 1.667459 1.000000 -0.726331 1.569983 1.000000 -1.050063 1.401960 1.000000 -1.331338 1.182404 1.000000 -1.555657 0.912378 1.000000 -1.715413 0.609074 1.000000 -1.805499 0.285326 1.000000 -1.822519 -0.046829 1.000000 -1.769690 -0.369443 1.000000 -1.649610 -0.675188 1.000000 -1.470051 -0.948608 1.000000 -1.238610 -1.184398 1.000000 -0.965246 -1.374168 1.000000 -0.659254 -1.512278 1.000000 -0.332918 -1.597899 1.000000 0.006239 -1.624956 1.000000 0.342452 -1.597665 1.000000 0.671862 -1.511864 1.000000 0.974969 -1.373297 1.000000 1.251519 -1.183321 1.000000 1.479997 -0.946628 1.000000 1.662725 -0.673015 1.000000 1.779599 -0.365685 1.000000 1.835311 -0.043082 1.000000 1.814749 0.291504 1.000000 1.726845 0.614719 1.000000 1.563322 0.921256 1.000000 1.340019 1.189913 1.000000 1.055119 1.413172 1.000000 0.730936 1.578848 1.000000 0.371827 1.679991 1.000000 -0.000130 1.714253 1.000000 -0.372017 1.679951 1.000000 -0.731166 1.578797 1.000000 -1.055270 1.413059 1.000000 -1.340181 1.189825 1.000000 -1.563419 0.921099 1.000000 -1.726912 0.614609 1.000000 -1.814782 0.291340 1.000000 -1.835283 -0.043204 1.000000 -1.779559 -0.365830 1.000000 -1.662620 -0.673130 1.000000 -1.479889 -0.946739 1.000000 -1.251359 -1.183410 1.000000 -0.974811 -1.373366 1.000000 -0.671670 -1.511911 1.000000 -0.342267 -1.597688 1.000000 
-0.006055 -1.986644 1.000000 0.395676 -1.954876 1.000000 0.783760 -1.851220 1.000000 1.147595 -1.685955 1.000000 1.475696 -1.455977 1.000000 1.754129 -1.171723 1.000000 1.973000 -0.837864 1.000000 2.121641 -0.466215 1.000000 2.188374 -0.068548 1.000000 2.173806 0.338773 1.000000 2.064322 0.741214 1.000000 1.876927 1.117022 1.000000 1.600346 1.454021 1.000000 1.265107 1.730788 1.000000 0.869172 1.938659 1.000000 0.443565 2.067207 1.000000 -0.000119 2.108321 1.000000 -0.443734 2.067137 1.000000 -0.869386 1.938557 1.000000 -1.265243 1.730607 1.000000 -1.600486 1.453860 1.000000 -1.877019 1.116769 1.000000 -2.064366 0.741015 1.000000 -2.173847 0.338506 1.000000 -2.188336 -0.068765 1.000000 -2.121619 -0.466449 1.000000 -1.972900 -0.838066 1.000000 -1.754043 -1.171899 1.000000 -1.475554 -1.456130 1.000000 -1.147458 -1.686062 1.000000 -0.783591 -1.851302 1.000000 -0.395512 -1.954912 1.000000 0.006232 -1.986646 1.000000 0.404916 -1.954780 1.000000 0.796267 -1.851060 1.000000 1.157157 -1.685445 1.000000 1.488763 -1.455281 1.000000 1.764151 -1.170155 1.000000 1.986653 -0.835962 1.000000 2.131909 -0.462626 1.000000 2.202101 -0.064660 1.000000 2.183650 0.345393 1.000000 2.076937 0.747672 1.000000 1.885276 1.127262 1.000000 1.610166 1.463113 1.000000 1.270752 1.744329 1.000000 0.874572 1.949751 1.000000 0.445564 2.082716 1.000000 -0.000123 2.120155 1.000000 -0.445726 2.082646 1.000000 -0.874794 1.949652 1.000000 -1.270880 1.744148 1.000000 -1.610312 1.462959 1.000000 -1.885360 1.127010 1.000000 -2.076985 0.747481 1.000000 -2.183683 0.345127 1.000000 -2.202064 -0.064869 1.000000 -2.131880 -0.462861 1.000000 -1.986553 -0.836156 1.000000 -1.764060 -1.170333 1.000000 -1.488619 -1.455428 1.000000 -1.157017 -1.685556 1.000000 -0.796098 -1.851138 1.000000 -0.404751 -1.954818 1.000000 
-0.006095 -2.425380 1.000000 0.468597 -2.387692 1.000000 0.928529 -2.264144 1.000000 1.360839 -2.066037 1.000000 1.753332 -1.790839 1.000000 2.088553 -1.445803 1.000000 2.355677 -1.042581 1.000000 2.539333 -0.584676 1.000000 2.627923 -0.098869 1.000000 2.615354 0.409538 1.000000 2.493649 0.906066 1.000000 2.268226 1.376506 1.000000 1.944746 1.794313 1.000000 1.534487 2.133244 1.000000 1.062634 2.391577 1.000000 0.539854 2.536790 1.000000 -0.000198 2.592228 1.000000 -0.540158 2.536726 1.000000 -1.062972 2.391492 1.000000 -1.534710 2.133060 1.000000 -1.944973 1.794180 1.000000 -2.268375 1.376258 1.000000 -2.493724 0.905902 1.000000 -2.615414 0.409295 1.000000 -2.627859 -0.099057 1.000000 -2.539282 -0.584879 1.000000 -2.355512 -1.042764 1.000000 -2.088399 -1.445954 1.000000 -1.753102 -1.790983 1.000000 -1.360612 -2.066130 1.000000 -0.928263 -2.264224 1.000000 -0.468332 -2.387723 1.000000 0.006372 -2.425383 1.000000 0.478102 -2.387699 1.000000 0.941357 -2.264104 1.000000 1.370938 -2.065793 1.000000 1.767135 -1.790316 1.000000 2.099599 -1.444519 1.000000 2.370701 -1.040774 1.000000 2.551191 -0.581133 1.000000 2.643717 -0.094824 1.000000 2.627210 0.416669 1.000000 2.508775 0.913093 1.000000 2.278622 1.388026 1.000000 1.956905 1.804437 1.000000 1.541694 2.148766 1.000000 1.069450 2.404036 1.000000 0.542438 2.554686 1.000000 -0.000199 2.605544 1.000000 -0.542726 2.554621 1.000000 -1.069790 2.403951 1.000000 -1.541903 2.148577 1.000000 -1.957135 1.804305 1.000000 -2.278760 1.387772 1.000000 -2.508853 0.912932 1.000000 -2.627262 0.416419 1.000000 -2.643656 -0.095007 1.000000 -2.551136 -0.581341 1.000000 -2.370539 -1.040950 1.000000 -2.099444 -1.444673 1.000000 -1.766907 -1.790453 1.000000 -1.370710 -2.065887 1.000000 -0.941093 -2.264177 1.000000 -0.477837 -2.387731 1.000000 
-0.006019 -2.933078 1.000000 0.556852 -2.889500 1.000000 1.105287 -2.743462 1.000000 1.620708 -2.510758 1.000000 2.095717 -2.183691 1.000000 2.502088 -1.774067 1.000000 2.833940 -1.288644 1.000000 3.065149 -0.738462 1.000000 3.182636 -0.144570 1.000000 3.179033 0.473047 1.000000 3.031700 1.088342 1.000000 2.765951 1.665925 1.000000 2.357233 2.187760 1.000000 1.862480 2.612900 1.000000 1.271812 2.933292 1.000000 0.643529 3.130039 1.000000 -0.000183 3.188332 1.000000 -0.643785 3.129911 1.000000 -1.272147 2.933110 1.000000 -1.862668 2.612608 1.000000 -2.357428 2.187525 1.000000 -2.766079 1.665520 1.000000 -3.031735 1.088054 1.000000 -3.179100 0.472642 1.000000 -3.182557 -0.144897 1.000000 -3.065123 -0.738796 1.000000 -2.833789 -1.288949 1.000000 -2.501962 -1.774308 1.000000 -2.095517 -2.183918 1.000000 -1.620507 -2.510901 1.000000 -1.105056 -2.743582 1.000000 -0.556611 -2.889547 1.000000 0.006260 -2.933080 1.000000 0.566134 -2.889765 1.000000 1.118051 -2.743896 1.000000 1.630754 -2.511223 1.000000 2.109827 -2.183942 1.000000 2.513400 -1.773722 1.000000 2.849852 -1.287554 1.000000 3.077665 -0.735641 1.000000 3.199952 -0.140679 1.000000 3.191859 0.480335 1.000000 3.048714 1.096260 1.000000 2.777377 1.679132 1.000000 2.371069 2.200042 1.000000 1.870427 2.631784 1.000000 1.279595 2.949007 1.000000 0.646369 3.152364 1.000000 -0.000189 3.205319 1.000000 -0.646618 3.152237 1.000000 -1.279941 2.948829 1.000000 -1.870607 2.631494 1.000000 -2.371272 2.199816 1.000000 -2.777496 1.678728 1.000000 -3.048753 1.095983 1.000000 -3.191917 0.479930 1.000000 -3.199873 -0.140995 1.000000 -3.077630 -0.735978 1.000000 -2.849699 -1.287848 1.000000 -2.513269 -1.773966 1.000000 -2.109624 -2.184162 1.000000 -1.630550 -2.511370 1.000000 -1.117819 -2.744010 1.000000 -0.565892 -2.889815 1.000000 
-0.005783 -3.548124 1.000000 0.658337 -3.498997 1.000000 1.307534 -3.328001 1.000000 1.920974 -3.056467 1.000000 2.490651 -2.672218 1.000000 2.984195 -2.184026 1.000000 3.392358 -1.605643 1.000000 3.684188 -0.933371 1.000000 3.840695 -0.212753 1.000000 3.848876 0.560473 1.000000 3.687078 1.319148 1.000000 3.367365 2.050974 1.000000 2.891273 2.697783 1.000000 2.280032 3.218666 1.000000 1.581367 3.610528 1.000000 0.796915 3.808785 1.000000 -0.000324 3.879542 1.000000 -0.797397 3.808690 1.000000 -1.581860 3.610375 1.000000 -2.280314 3.218341 1.000000 -2.891604 2.697591 1.000000 -3.367581 2.050565 1.000000 -3.687144 1.318922 1.000000 -3.848977 0.560117 1.000000 -3.840559 -0.213034 1.000000 -3.684112 -0.933647 1.000000 -3.392101 -1.605925 1.000000 -2.983962 -2.184227 1.000000 -2.490325 -2.672438 1.000000 -1.920639 -3.056591 1.000000 -1.307173 -3.328121 1.000000 -0.657956 -3.499039 1.000000 0.006155 -3.548128 1.000000 0.667402 -3.499490 1.000000 1.320163 -3.328725 1.000000 1.931249 -3.057568 1.000000 2.505260 -2.672961 1.000000 2.996585 -2.184544 1.000000 3.409843 -1.605038 1.000000 3.698855 -0.931232 1.000000 3.860945 -0.209019 1.000000 3.864763 0.567906 1.000000 3.708137 1.327575 1.000000 3.382107 2.065672 1.000000 2.909152 2.711387 1.000000 2.290647 3.240240 1.000000 1.591665 3.628093 1.000000 0.800776 3.834471 1.000000 -0.000324 3.898531 1.000000 -0.801236 3.834373 1.000000 -1.592158 3.627940 1.000000 -2.290910 3.239909 1.000000 -2.909486 2.711194 1.000000 -3.382309 2.065252 1.000000 -3.708208 1.327352 1.000000 -3.864857 0.567539 1.000000 -3.860813 -0.209293 1.000000 -3.698777 -0.931515 1.000000 -3.409590 -1.605312 1.000000 -2.996352 -2.184748 1.000000 -2.504936 -2.673171 1.000000 -1.930916 -3.057693 1.000000 -1.319802 -3.328835 1.000000 -0.667022 -3.499531 1.000000 
-0.005487 -4.258436 1.000000 0.776921 -4.202817 1.000000 1.547622 -4.006099 1.000000 2.276242 -3.693874 1.000000 2.967792 -3.246912 1.000000 3.568082 -2.675775 1.000000 4.084153 -1.988637 1.000000 4.457350 -1.186799 1.000000 4.676359 -0.309258 1.000000 4.711359 0.626664 1.000000 4.523326 1.569853 1.000000 4.147369 2.461729 1.000000 3.525893 3.275092 1.000000 2.775451 3.922807 1.000000 1.855765 4.416409 1.000000 0.906464 4.711730 1.000000 -0.000281 4.782644 1.000000 -0.906878 4.711447 1.000000 -1.856338 4.416027 1.000000 -2.775699 3.922352 1.000000 -3.526145 3.274792 1.000000 -4.147548 2.461060 1.000000 -4.523293 1.569450 1.000000 -4.711488 0.626057 1.000000 -4.676202 -0.309763 1.000000 -4.457323 -1.187254 1.000000 -4.083930 -1.989099 1.000000 -3.567892 -2.676085 1.000000 -2.967516 -3.247240 1.000000 -2.275940 -3.694053 1.000000 -1.547308 -4.006266 1.000000 -0.776565 -4.202875 1.000000 0.005815 -4.258438 1.000000 0.785476 -4.203773 1.000000 1.559786 -4.007743 1.000000 2.286268 -3.696320 1.000000 2.982485 -3.249278 1.000000 3.580755 -2.678305 1.000000 4.102711 -1.989824 1.000000 4.473026 -1.186743 1.000000 4.698954 -0.306587 1.000000 4.728900 0.633142 1.000000 4.547613 1.578915 1.000000 4.163937 2.478118 1.000000 3.546631 3.291502 1.000000 2.787275 3.949272 1.000000 1.867660 4.438877 1.000000 0.910666 4.744353 1.000000 -0.000289 4.807332 1.000000 -0.911075 4.744072 1.000000 -1.868249 4.438503 1.000000 -2.787514 3.948821 1.000000 -3.546895 3.291216 1.000000 -4.164103 2.477451 1.000000 -4.547585 1.578530 1.000000 -4.729015 0.632534 1.000000 -4.698793 -0.307075 1.000000 -4.472989 -1.187202 1.000000 -4.102482 -1.990273 1.000000 -3.580559 -2.678619 1.000000 -2.982203 -3.249598 1.000000 -2.285963 -3.696504 1.000000 -1.559469 -4.007904 1.000000 -0.785119 -4.203834 1.000000 
-0.004770 -5.110164 1.000000 0.910890 -5.052106 1.000000 1.816847 -4.827322 1.000000 2.680803 -4.476636 1.000000 3.509812 -3.964058 1.000000 4.243602 -3.300388 1.000000 4.883686 -2.494910 1.000000 5.365482 -1.525578 1.000000 5.658084 -0.466762 1.000000 5.730589 0.713507 1.000000 5.525665 1.883138 1.000000 5.072433 3.048407 1.000000 4.350566 4.069701 1.000000 3.419784 4.888793 1.000000 2.384744 5.479515 1.000000 1.183725 5.664830 1.000000 -0.000606 5.692883 1.000000 -1.184568 5.664747 1.000000 -2.385356 5.479196 1.000000 -3.420007 4.888147 1.000000 -4.351078 4.069440 1.000000 -5.072793 3.047714 1.000000 -5.525645 1.882862 1.000000 -5.730793 0.713026 1.000000 -5.657797 -0.467199 1.000000 -5.365354 -1.525918 1.000000 -4.883289 -2.495355 1.000000 -4.243233 -3.300641 1.000000 -3.509357 -3.964391 1.000000 -2.680309 -4.476798 1.000000 -1.816364 -4.827496 1.000000 -0.910347 -5.052163 1.000000 0.005261 -5.110169 1.000000 0.918302 -5.053460 1.000000 1.827990 -4.829517 1.000000 2.690349 -4.480267 1.000000 3.524328 -3.967447 1.000000 4.257177 -3.304770 1.000000 4.903719 -2.497310 1.000000 5.384041 -1.527475 1.000000 5.684701 -0.464892 1.000000 5.752910 0.719247 1.000000 5.556646 1.892538 1.000000 5.094501 3.066654 1.000000 4.378627 4.088049 1.000000 3.436389 4.919211 1.000000 2.401327 5.504703 1.000000 1.189943 5.702420 1.000000 -0.000604 5.720272 1.000000 -1.190756 5.702332 1.000000 -2.401938 5.504379 1.000000 -3.436587 4.918555 1.000000 -4.379143 4.087783 1.000000 -5.094842 3.065942 1.000000 -5.556634 1.892265 1.000000 -5.753106 0.718748 1.000000 -5.684421 -0.465320 1.000000 -5.383915 -1.527826 1.000000 -4.903326 -2.497742 1.000000 -4.256814 -3.305027 1.000000 -3.523876 -3.967767 1.000000 -2.689860 -4.480427 1.000000 -1.827508 -4.829680 1.000000 -0.917761 -5.053513 1.000000 
-0.004083 -6.087087 1.000000 1.059818 -6.024434 1.000000 2.122901 -5.776013 1.000000 3.139452 -5.386839 1.000000 4.143622 -4.809711 1.000000 5.036448 -4.049649 1.000000 5.858233 -3.110517 1.000000 6.483521 -1.961196 1.000000 6.914280 -0.674365 1.000000 7.060060 0.759083 1.000000 6.859336 2.228010 1.000000 6.342894 3.636828 1.000000 5.374018 4.927742 1.000000 4.193453 5.888629 1.000000 2.576507 6.652468 1.000000 1.049524 7.097081 1.000000 -0.000338 7.150937 1.000000 -1.050252 7.096197 1.000000 -2.577750 6.651465 1.000000 -4.193739 5.888073 1.000000 -5.374190 4.927579 1.000000 -6.343158 3.635627 1.000000 -6.859062 2.227450 1.000000 -7.060364 0.758210 1.000000 -6.914001 -0.675202 1.000000 -6.483492 -1.961762 1.000000 -5.857931 -3.111219 1.000000 -5.036140 -4.050017 1.000000 -4.143252 -4.810164 1.000000 -3.138989 -5.387047 1.000000 -2.122477 -5.776228 1.000000 -1.059291 -6.024500 1.000000 0.004525 -6.087088 1.000000 1.066166 -6.026501 1.000000 2.132794 -5.779790 1.000000 3.148273 -5.392659 1.000000 4.157562 -4.816106 1.000000 5.050128 -4.057695 1.000000 5.879236 -3.116688 1.000000 6.503549 -1.967725 1.000000 6.944430 -0.675456 1.000000 7.085246 0.761197 1.000000 6.896109 2.237324 1.000000 6.368368 3.656137 1.000000 5.406964 4.949614 1.000000 4.211924 5.926572 1.000000 2.595444 6.685324 1.000000 1.055448 7.146284 1.000000 -0.000351 7.188031 1.000000 -1.056176 7.145406 1.000000 -2.596710 6.684334 1.000000 -4.212200 5.926026 1.000000 -5.407159 4.949471 1.000000 -6.368611 3.654941 1.000000 -6.895839 2.236794 1.000000 -7.085530 0.760322 1.000000 -6.944139 -0.676266 1.000000 -6.503508 -1.968296 1.000000 -5.878920 -3.117374 1.000000 -5.049815 -4.058069 1.000000 -4.157181 -4.816552 1.000000 -3.147809 -5.392873 1.000000 -2.132366 -5.780003 1.000000 -1.065639 -6.026572 1.000000 