# vtk DataFile Version 2.0
Comment goes here
ASCII

DATASET STRUCTURED_POINTS
DIMENSIONS    64   64   1

ORIGIN    0.000   0.000   0.000
SPACING   0.031250.03125   1.000

POINT_DATA   4096
VECTORS u double

-4.723515 2.118092 1.000000 -2.648810 -0.261845 1.000000 -4.607563 1.992000 1.000000 -2.675032 -0.220446 1.000000 -4.281698 1.801783 1.000000 -2.535664 -0.100356 1.000000 -3.733256 1.573298 1.000000 -2.228163 0.121765 1.000000 -2.967237 1.345809 1.000000 -1.770921 0.455065 1.000000 -2.004108 1.165432 1.000000 -1.199381 0.885955 1.000000 -0.875049 1.072867 1.000000 -0.558528 1.374897 1.000000 0.377727 1.085589 1.000000 0.104839 1.859314 1.000000 1.692945 1.184836 1.000000 0.747614 2.263051 1.000000 2.979122 1.318588 1.000000 1.328951 2.516632 1.000000 4.116623 1.425538 1.000000 1.805480 2.584052 1.000000 4.988693 1.464549 1.000000 2.134326 2.475378 1.000000 5.517570 1.427544 1.000000 2.293872 2.234966 1.000000 5.680226 1.333141 1.000000 2.297453 1.920305 1.000000 5.506318 1.208594 1.000000 2.184417 1.583512 1.000000 5.061767 1.078382 1.000000 2.001937 1.262196 1.000000 4.426591 0.961782 1.000000 1.790068 0.978322 1.000000 3.676281 0.872879 1.000000 1.574519 0.741074 1.000000 2.871585 0.820453 1.000000 1.366395 0.550922 1.000000 2.056041 0.808279 1.000000 1.165931 0.403316 1.000000 1.258051 0.836166 1.000000 0.967205 0.291348 1.000000 0.494436 0.901314 1.000000 0.761842 0.207365 1.000000 -0.226377 0.999480 1.000000 0.540946 0.143879 1.000000 -0.902180 1.125647 1.000000 0.295644 0.094078 1.000000 -1.535311 1.274197 1.000000 0.017604 0.052139 1.000000 -2.130325 1.438660 1.000000 -0.299069 0.013353 1.000000 -2.690387 1.611210 1.000000 -0.654731 -0.025929 1.000000 -3.213737 1.781997 1.000000 -1.041912 -0.068300 1.000000 -3.691733 1.938625 1.000000 -1.444781 -0.114994 1.000000 -4.108248 2.066201 1.000000 -1.839660 -0.165054 1.000000 -4.439784 2.148336 1.000000 -2.195999 -0.213950 1.000000 -4.656296 2.169394 1.000000 -2.478136 -0.251801 1.000000 
-4.615407 0.405764 1.000000 -2.206906 -1.641975 1.000000 -4.391860 -0.075943 1.000000 -2.347801 -2.017294 1.000000 -3.938733 -0.671159 1.000000 -2.369514 -2.390938 1.000000 -3.259365 -1.335229 1.000000 -2.274111 -2.721250 1.000000 -2.383361 -1.999839 1.000000 -2.074087 -2.966968 1.000000 -1.357551 -2.585334 1.000000 -1.779544 -3.101187 1.000000 -0.233164 -3.019849 1.000000 -1.391336 -3.121806 1.000000 0.935929 -3.255518 1.000000 -0.912162 -3.048352 1.000000 2.085352 -3.279520 1.000000 -0.362444 -2.909853 1.000000 3.135782 -3.113943 1.000000 0.214432 -2.725714 1.000000 4.002940 -2.807074 1.000000 0.762581 -2.496895 1.000000 4.623897 -2.418340 1.000000 1.232686 -2.217971 1.000000 4.975598 -2.003640 1.000000 1.592078 -1.895877 1.000000 5.064240 -1.606674 1.000000 1.827833 -1.555319 1.000000 4.913879 -1.254947 1.000000 1.947968 -1.228507 1.000000 4.560569 -0.959339 1.000000 1.975874 -0.940686 1.000000 4.047621 -0.716654 1.000000 1.938633 -0.703536 1.000000 3.420066 -0.514856 1.000000 1.857920 -0.517567 1.000000 2.719780 -0.339210 1.000000 1.747072 -0.377645 1.000000 1.982242 -0.176881 1.000000 1.612311 -0.277218 1.000000 1.235046 -0.018998 1.000000 1.455203 -0.210286 1.000000 0.497849 0.139356 1.000000 1.274666 -0.171852 1.000000 -0.216753 0.300085 1.000000 1.068045 -0.157821 1.000000 -0.901805 0.462915 1.000000 0.831564 -0.165127 1.000000 -1.554151 0.625310 1.000000 0.561004 -0.192454 1.000000 -2.172046 0.781432 1.000000 0.253360 -0.241169 1.000000 -2.752443 0.921100 1.000000 -0.090876 -0.315403 1.000000 -3.288470 1.029796 1.000000 -0.466134 -0.421240 1.000000 -3.767517 1.089289 1.000000 -0.861077 -0.565852 1.000000 -4.169981 1.078372 1.000000 -1.258288 -0.756613 1.000000 -4.468694 0.974197 1.000000 -1.634268 -0.999574 1.000000 -4.629672 0.755122 1.000000 -1.960522 -1.296711 1.000000 
-5.066162 2.364476 1.000000 -3.127136 -0.485392 1.000000 -4.980995 2.132895 1.000000 -3.264325 -0.673574 1.000000 -4.655040 1.823495 1.000000 -3.191032 -0.779724 1.000000 -4.065466 1.477895 1.000000 -2.881984 -0.754239 1.000000 -3.217319 1.145784 1.000000 -2.345448 -0.570745 1.000000 -2.144807 0.870890 1.000000 -1.625394 -0.238432 1.000000 -0.902531 0.684659 1.000000 -0.790398 0.205804 1.000000 0.447190 0.606414 1.000000 0.079120 0.709891 1.000000 1.832998 0.635118 1.000000 0.906895 1.212621 1.000000 3.169439 0.741712 1.000000 1.627557 1.649474 1.000000 4.351526 0.877389 1.000000 2.187609 1.963096 1.000000 5.268562 0.994444 1.000000 2.547048 2.123677 1.000000 5.833767 1.068152 1.000000 2.693776 2.146324 1.000000 6.010290 1.097385 1.000000 2.654710 2.070666 1.000000 5.822102 1.088459 1.000000 2.485429 1.936822 1.000000 5.341244 1.050477 1.000000 2.248510 1.775144 1.000000 4.659226 0.999023 1.000000 1.994207 1.605877 1.000000 3.860994 0.953591 1.000000 1.751547 1.441361 1.000000 3.012217 0.931301 1.000000 1.529751 1.288460 1.000000 2.157930 0.943041 1.000000 1.324869 1.150512 1.000000 1.326401 0.993273 1.000000 1.126759 1.028545 1.000000 0.533861 1.081851 1.000000 0.923835 0.921967 1.000000 -0.211905 1.206101 1.000000 0.704902 0.828931 1.000000 -0.909578 1.362128 1.000000 0.458798 0.746423 1.000000 -1.563170 1.544757 1.000000 0.173947 0.670034 1.000000 -2.179843 1.746305 1.000000 -0.159753 0.593750 1.000000 -2.765439 1.955446 1.000000 -0.546840 0.510098 1.000000 -3.320099 2.157255 1.000000 -0.983450 0.410747 1.000000 -3.836263 2.333568 1.000000 -1.456667 0.287470 1.000000 -4.298082 2.463412 1.000000 -1.944421 0.133660 1.000000 -4.680911 2.524316 1.000000 -2.414886 -0.052972 1.000000 -4.950919 2.495648 1.000000 -2.826029 -0.266066 1.000000 
-4.831825 0.706871 1.000000 -2.442411 -1.727142 1.000000 -4.578315 0.061245 1.000000 -2.662285 -2.343248 1.000000 -4.044673 -0.744452 1.000000 -2.720519 -2.980512 1.000000 -3.234837 -1.644277 1.000000 -2.610849 -3.569397 1.000000 -2.200963 -2.536374 1.000000 -2.352127 -4.039480 1.000000 -1.025349 -3.305389 1.000000 -1.967360 -4.343464 1.000000 0.212650 -3.854844 1.000000 -1.469476 -4.471527 1.000000 1.442935 -4.125036 1.000000 -0.880814 -4.434160 1.000000 2.590453 -4.107295 1.000000 -0.249690 -4.246294 1.000000 3.571850 -3.834605 1.000000 0.359609 -3.907800 1.000000 4.311443 -3.367126 1.000000 0.890572 -3.413932 1.000000 4.776354 -2.777779 1.000000 1.315900 -2.783175 1.000000 4.989953 -2.150368 1.000000 1.627397 -2.072401 1.000000 4.982946 -1.567607 1.000000 1.821847 -1.367131 1.000000 4.778662 -1.085666 1.000000 1.911454 -0.747648 1.000000 4.401443 -0.722420 1.000000 1.925701 -0.258668 1.000000 3.882994 -0.462351 1.000000 1.894455 0.094696 1.000000 3.260207 -0.272197 1.000000 1.836345 0.331210 1.000000 2.570168 -0.117414 1.000000 1.758515 0.476643 1.000000 1.845711 0.028001 1.000000 1.661147 0.554311 1.000000 1.112780 0.179113 1.000000 1.541542 0.582254 1.000000 0.389763 0.342279 1.000000 1.396240 0.573914 1.000000 -0.311854 0.519018 1.000000 1.221359 0.539852 1.000000 -0.986285 0.709019 1.000000 1.011778 0.488465 1.000000 -1.631871 0.910161 1.000000 0.760677 0.424219 1.000000 -2.248680 1.115132 1.000000 0.461269 0.344427 1.000000 -2.835370 1.308187 1.000000 0.110276 0.239256 1.000000 -3.386114 1.466406 1.000000 -0.290113 0.094924 1.000000 -3.888276 1.562506 1.000000 -0.731467 -0.104033 1.000000 -4.320664 1.566126 1.000000 -1.197942 -0.373784 1.000000 -4.651839 1.444661 1.000000 -1.664258 -0.729567 1.000000 -4.839293 1.166266 1.000000 -2.094208 -1.181468 1.000000 
-5.607577 2.712679 1.000000 -3.769101 -0.738902 1.000000 -5.593248 2.352769 1.000000 -4.063616 -1.207215 1.000000 -5.289391 1.881730 1.000000 -4.081199 -1.589560 1.000000 -4.652245 1.368225 1.000000 -3.761902 -1.788113 1.000000 -3.685948 0.887063 1.000000 -3.103071 -1.746359 1.000000 -2.448879 0.486123 1.000000 -2.169660 -1.476431 1.000000 -1.033337 0.186775 1.000000 -1.065434 -1.024480 1.000000 0.480037 0.017752 1.000000 0.082887 -0.437628 1.000000 2.017321 0.003994 1.000000 1.161273 0.231224 1.000000 3.506771 0.132414 1.000000 2.078332 0.909881 1.000000 4.844473 0.346425 1.000000 2.766972 1.498185 1.000000 5.894386 0.569116 1.000000 3.174298 1.910078 1.000000 6.533274 0.756655 1.000000 3.284604 2.153331 1.000000 6.700031 0.902936 1.000000 3.147037 2.274949 1.000000 6.426648 0.998852 1.000000 2.856239 2.314041 1.000000 5.819719 1.036230 1.000000 2.511839 2.293593 1.000000 5.007420 1.030269 1.000000 2.184441 2.228665 1.000000 4.096312 1.011701 1.000000 1.905018 2.131399 1.000000 3.158443 1.009132 1.000000 1.673863 2.012918 1.000000 2.236895 1.040408 1.000000 1.475432 1.883443 1.000000 1.355412 1.112879 1.000000 1.290300 1.751562 1.000000 0.526143 1.227152 1.000000 1.101630 1.623584 1.000000 -0.245811 1.380983 1.000000 0.896137 1.503362 1.000000 -0.961279 1.571709 1.000000 0.660757 1.392009 1.000000 -1.628191 1.795857 1.000000 0.378821 1.286844 1.000000 -2.260732 2.045713 1.000000 0.032123 1.180440 1.000000 -2.871722 2.306439 1.000000 -0.390645 1.060842 1.000000 -3.465135 2.557643 1.000000 -0.889713 0.912909 1.000000 -4.035069 2.774923 1.000000 -1.455156 0.719857 1.000000 -4.566473 2.929887 1.000000 -2.067198 0.464835 1.000000 -5.033990 2.990632 1.000000 -2.693353 0.134481 1.000000 -5.399011 2.925598 1.000000 -3.283863 -0.273534 1.000000 
-5.290500 1.192108 1.000000 -2.807504 -1.741470 1.000000 -5.040002 0.355761 1.000000 -3.142008 -2.647106 1.000000 -4.421235 -0.726869 1.000000 -3.245100 -3.617658 1.000000 -3.428353 -1.963574 1.000000 -3.102461 -4.535694 1.000000 -2.153895 -3.195205 1.000000 -2.760026 -5.276549 1.000000 -0.749625 -4.238800 1.000000 -2.269438 -5.759006 1.000000 0.670200 -4.959071 1.000000 -1.636432 -5.984901 1.000000 2.034200 -5.273357 1.000000 -0.885815 -5.971443 1.000000 3.260967 -5.185682 1.000000 -0.104994 -5.735743 1.000000 4.247095 -4.751663 1.000000 0.595242 -5.245502 1.000000 4.890765 -4.055766 1.000000 1.135492 -4.463845 1.000000 5.176397 -3.185105 1.000000 1.520259 -3.422063 1.000000 5.222356 -2.260674 1.000000 1.781658 -2.239158 1.000000 5.098241 -1.430040 1.000000 1.919937 -1.093748 1.000000 4.818004 -0.794869 1.000000 1.950924 -0.140719 1.000000 4.386867 -0.378019 1.000000 1.924501 0.553631 1.000000 3.826226 -0.134953 1.000000 1.882214 1.005803 1.000000 3.170143 0.007226 1.000000 1.839208 1.269079 1.000000 2.456134 0.113741 1.000000 1.792662 1.398191 1.000000 1.717533 0.226432 1.000000 1.733622 1.435794 1.000000 0.979495 0.364245 1.000000 1.653547 1.411522 1.000000 0.258512 0.530949 1.000000 1.546423 1.345869 1.000000 -0.436221 0.724511 1.000000 1.407878 1.255320 1.000000 -1.101595 0.944399 1.000000 1.231834 1.155376 1.000000 -1.739852 1.192096 1.000000 1.007101 1.056761 1.000000 -2.356229 1.461830 1.000000 0.719559 0.955416 1.000000 -2.954453 1.730956 1.000000 0.360057 0.832670 1.000000 -3.532171 1.965474 1.000000 -0.073445 0.664858 1.000000 -4.078379 2.127949 1.000000 -0.576605 0.427371 1.000000 -4.571762 2.178168 1.000000 -1.137208 0.093733 1.000000 -4.977238 2.070816 1.000000 -1.729907 -0.364546 1.000000 -5.241317 1.756776 1.000000 -2.309413 -0.972902 1.000000 
-6.369024 3.210769 1.000000 -4.602868 -0.989401 1.000000 -6.492312 2.687273 1.000000 -5.141521 -1.825982 1.000000 -6.254405 1.984821 1.000000 -5.308816 -2.582441 1.000000 -5.564221 1.225586 1.000000 -4.978457 -3.062571 1.000000 -4.418430 0.544628 1.000000 -4.129928 -3.150628 1.000000 -2.923353 -0.004466 1.000000 -2.883965 -2.896257 1.000000 -1.257776 -0.446230 1.000000 -1.393251 -2.388480 1.000000 0.485382 -0.732865 1.000000 0.141429 -1.664394 1.000000 2.240177 -0.776827 1.000000 1.561383 -0.754904 1.000000 3.986018 -0.567823 1.000000 2.745597 0.266210 1.000000 5.617573 -0.193825 1.000000 3.621369 1.212553 1.000000 6.923597 0.184350 1.000000 4.101143 1.864119 1.000000 7.694612 0.495256 1.000000 4.133114 2.277447 1.000000 7.818200 0.764657 1.000000 3.801762 2.555186 1.000000 7.355466 0.967864 1.000000 3.284398 2.745179 1.000000 6.498871 1.062653 1.000000 2.757166 2.854234 1.000000 5.453345 1.072556 1.000000 2.323433 2.884748 1.000000 4.358645 1.054707 1.000000 2.006612 2.845407 1.000000 3.288346 1.055677 1.000000 1.782333 2.751519 1.000000 2.275168 1.099448 1.000000 1.610884 2.621482 1.000000 1.331291 1.192954 1.000000 1.456691 2.472545 1.000000 0.460317 1.334276 1.000000 1.296416 2.318316 1.000000 -0.336700 1.519528 1.000000 1.117801 2.168737 1.000000 -1.061812 1.747753 1.000000 0.909560 2.030266 1.000000 -1.727803 2.020590 1.000000 0.647946 1.903220 1.000000 -2.363409 2.333254 1.000000 0.298650 1.778664 1.000000 -2.995760 2.665941 1.000000 -0.160120 1.638560 1.000000 -3.633631 2.991145 1.000000 -0.731581 1.459117 1.000000 -4.271987 3.278083 1.000000 -1.408583 1.213240 1.000000 -4.897720 3.490490 1.000000 -2.176744 0.870312 1.000000 -5.487774 3.583330 1.000000 -3.007838 0.398560 1.000000 -6.001055 3.505105 1.000000 -3.847374 -0.224351 1.000000 
-6.043446 1.947602 1.000000 -3.337050 -1.618182 1.000000 -5.862472 0.894414 1.000000 -3.858782 -2.885013 1.000000 -5.163776 -0.559574 1.000000 -4.026553 -4.307842 1.000000 -3.895644 -2.293933 1.000000 -3.805785 -5.681484 1.000000 -2.227615 -4.043735 1.000000 -3.322696 -6.771626 1.000000 -0.480143 -5.484762 1.000000 -2.716966 -7.424583 1.000000 1.189981 -6.449785 1.000000 -1.920943 -7.728059 1.000000 2.764523 -6.808037 1.000000 -0.912287 -7.726238 1.000000 4.170943 -6.605635 1.000000 0.139170 -7.481585 1.000000 5.260257 -5.935878 1.000000 1.015063 -6.877058 1.000000 5.820675 -4.931539 1.000000 1.560440 -5.769869 1.000000 5.808918 -3.664880 1.000000 1.865882 -4.193078 1.000000 5.619771 -2.292644 1.000000 2.063377 -2.362746 1.000000 5.367708 -1.098689 1.000000 2.122915 -0.631015 1.000000 5.010530 -0.277505 1.000000 2.049565 0.715876 1.000000 4.507067 0.149213 1.000000 1.947581 1.599157 1.000000 3.869903 0.298780 1.000000 1.881456 2.100503 1.000000 3.140851 0.324047 1.000000 1.854249 2.339378 1.000000 2.367229 0.338020 1.000000 1.844138 2.411369 1.000000 1.587607 0.397882 1.000000 1.828639 2.379671 1.000000 0.826834 0.518438 1.000000 1.792004 2.282497 1.000000 0.097968 0.691224 1.000000 1.726372 2.142886 1.000000 -0.593301 0.903126 1.000000 1.629757 1.980431 1.000000 -1.247014 1.152640 1.000000 1.498198 1.821367 1.000000 -1.871500 1.453710 1.000000 1.314011 1.692367 1.000000 -2.482265 1.811126 1.000000 1.047928 1.587767 1.000000 -3.093485 2.189726 1.000000 0.682487 1.470541 1.000000 -3.708934 2.536936 1.000000 0.212023 1.303214 1.000000 -4.320574 2.804951 1.000000 -0.364578 1.053103 1.000000 -4.909956 2.946329 1.000000 -1.043887 0.683787 1.000000 -5.442523 2.901910 1.000000 -1.807510 0.148736 1.000000 -5.855124 2.596313 1.000000 -2.604845 -0.604933 1.000000 
-7.369670 3.942974 1.000000 -5.656801 -1.170374 1.000000 -7.747981 3.209005 1.000000 -6.597803 -2.524678 1.000000 -7.669151 2.152592 1.000000 -7.040481 -3.850573 1.000000 -6.928297 1.004819 1.000000 -6.709069 -4.730600 1.000000 -5.489361 0.061539 1.000000 -5.536727 -4.898100 1.000000 -3.553526 -0.610196 1.000000 -3.834965 -4.566381 1.000000 -1.551228 -1.242253 1.000000 -1.780503 -3.963022 1.000000 0.469364 -1.741521 1.000000 0.288592 -3.070814 1.000000 2.450552 -1.828285 1.000000 2.173972 -1.844219 1.000000 4.561147 -1.443716 1.000000 3.704233 -0.294207 1.000000 6.706757 -0.739201 1.000000 4.858919 1.224310 1.000000 8.477046 -0.121092 1.000000 5.480360 2.053266 1.000000 9.482530 0.297761 1.000000 5.366610 2.529510 1.000000 9.496667 0.705118 1.000000 4.659582 2.912364 1.000000 8.658304 1.041214 1.000000 3.726341 3.248641 1.000000 7.358456 1.164637 1.000000 2.904863 3.491397 1.000000 5.947519 1.138681 1.000000 2.339132 3.613800 1.000000 4.597111 1.081914 1.000000 2.009894 3.619029 1.000000 3.360092 1.065789 1.000000 1.833878 3.531141 1.000000 2.241668 1.114947 1.000000 1.726910 3.382254 1.000000 1.231573 1.229589 1.000000 1.628791 3.201412 1.000000 0.318504 1.399909 1.000000 1.510536 3.009585 1.000000 -0.500641 1.616142 1.000000 1.370660 2.822450 1.000000 -1.221961 1.879313 1.000000 1.212702 2.654752 1.000000 -1.857928 2.204777 1.000000 1.003956 2.513985 1.000000 -2.469178 2.599337 1.000000 0.672092 2.389884 1.000000 -3.113905 3.031382 1.000000 0.179721 2.254008 1.000000 -3.801059 3.461609 1.000000 -0.471084 2.070757 1.000000 -4.520483 3.854684 1.000000 -1.273111 1.802622 1.000000 -5.262690 4.169799 1.000000 -2.224412 1.402879 1.000000 -6.015030 4.346952 1.000000 -3.314080 0.811162 1.000000 -6.743670 4.302440 1.000000 -4.495601 -0.036030 1.000000 
-7.157660 3.108802 1.000000 -4.075533 -1.239872 1.000000 -7.189518 1.835417 1.000000 -4.938120 -2.963843 1.000000 -6.461803 -0.116897 1.000000 -5.222364 -5.048696 1.000000 -4.753952 -2.625345 1.000000 -4.801437 -7.120420 1.000000 -2.368192 -5.216077 1.000000 -4.016000 -8.707461 1.000000 -0.114105 -7.186524 1.000000 -3.357459 -9.426881 1.000000 1.820208 -8.504247 1.000000 -2.424584 -9.748651 1.000000 3.665625 -8.877132 1.000000 -0.967163 -9.707426 1.000000 5.396478 -8.491015 1.000000 0.597925 -9.592180 1.000000 6.793816 -7.466139 1.000000 1.810838 -9.022668 1.000000 7.307465 -6.086224 1.000000 2.275180 -7.540157 1.000000 6.606943 -4.286321 1.000000 2.366664 -5.198562 1.000000 6.072909 -2.178894 1.000000 2.493661 -2.376882 1.000000 5.738706 -0.391661 1.000000 2.451313 0.207348 1.000000 5.352910 0.655736 1.000000 2.183633 2.015723 1.000000 4.769784 0.970691 1.000000 1.957587 3.010094 1.000000 4.012226 0.864510 1.000000 1.865867 3.450911 1.000000 3.158384 0.653285 1.000000 1.868081 3.576397 1.000000 2.283104 0.514036 1.000000 1.907866 3.529793 1.000000 1.435764 0.504850 1.000000 1.945731 3.389766 1.000000 0.638273 0.616557 1.000000 1.957745 3.195566 1.000000 -0.104938 0.809479 1.000000 1.934965 2.962032 1.000000 -0.793353 1.043002 1.000000 1.884174 2.701751 1.000000 -1.426610 1.310598 1.000000 1.814188 2.457335 1.000000 -2.019031 1.662456 1.000000 1.699201 2.303616 1.000000 -2.606823 2.142991 1.000000 1.472469 2.232494 1.000000 -3.226110 2.682097 1.000000 1.107435 2.157695 1.000000 -3.887674 3.187741 1.000000 0.601624 2.022638 1.000000 -4.584132 3.606978 1.000000 -0.051175 1.795311 1.000000 -5.304726 3.897630 1.000000 -0.866246 1.436127 1.000000 -6.026998 3.991578 1.000000 -1.849336 0.877375 1.000000 -6.689895 3.777834 1.000000 -2.961777 0.021067 1.000000 
-8.606361 5.056731 1.000000 -6.936626 -1.138517 1.000000 -9.450109 4.071592 1.000000 -8.571811 -3.252392 1.000000 -9.742313 2.436837 1.000000 -9.572853 -5.558425 1.000000 -8.989437 0.583891 1.000000 -9.281789 -7.116360 1.000000 -7.032623 -0.723898 1.000000 -7.416774 -7.152188 1.000000 -4.220887 -1.268737 1.000000 -5.113891 -6.500695 1.000000 -1.839239 -2.175128 1.000000 -2.230897 -5.808438 1.000000 0.464751 -3.198942 1.000000 0.566246 -4.801667 1.000000 2.474465 -3.393372 1.000000 3.111243 -3.241557 1.000000 5.061289 -2.656629 1.000000 5.022125 -0.807856 1.000000 8.164121 -1.203543 1.000000 6.595896 1.924831 1.000000 10.779017 -0.212577 1.000000 7.601869 2.587300 1.000000 12.213252 0.170764 1.000000 7.247310 2.863714 1.000000 11.965984 0.747467 1.000000 5.773557 3.298160 1.000000 10.379106 1.308894 1.000000 4.053636 3.831767 1.000000 8.316020 1.390684 1.000000 2.783046 4.248955 1.000000 6.383573 1.230401 1.000000 2.105335 4.467642 1.000000 4.723292 1.079701 1.000000 1.850353 4.494309 1.000000 3.308696 1.026003 1.000000 1.810357 4.378480 1.000000 2.092569 1.077082 1.000000 1.831301 4.179746 1.000000 1.028200 1.217575 1.000000 1.821099 3.944623 1.000000 0.078234 1.422689 1.000000 1.748721 3.698000 1.000000 -0.765024 1.666933 1.000000 1.645294 3.455707 1.000000 -1.468803 1.949300 1.000000 1.569198 3.247173 1.000000 -2.012887 2.319763 1.000000 1.481541 3.101777 1.000000 -2.540020 2.826069 1.000000 1.201057 3.009172 1.000000 -3.187613 3.396416 1.000000 0.672057 2.915572 1.000000 -3.934471 3.967420 1.000000 -0.064469 2.767215 1.000000 -4.744333 4.507483 1.000000 -0.991649 2.523216 1.000000 -5.614500 4.984870 1.000000 -2.134696 2.125151 1.000000 -6.560515 5.330042 1.000000 -3.527402 1.474059 1.000000 -7.580068 5.414881 1.000000 -5.163400 0.431735 1.000000 
-8.697082 4.882028 1.000000 -5.054905 -0.396124 1.000000 -9.250749 3.470602 1.000000 -6.604249 -2.671638 1.000000 -8.709257 0.884145 1.000000 -7.191353 -5.801572 1.000000 -6.290137 -2.916409 1.000000 -6.263501 -9.077233 1.000000 -2.374097 -7.081092 1.000000 -4.576603 -11.519198 1.000000 0.622837 -9.489407 1.000000 -4.255326 -11.808528 1.000000 2.587180 -11.387241 1.000000 -3.489910 -12.052642 1.000000 4.687897 -11.674276 1.000000 -1.096316 -11.717139 1.000000 6.955580 -11.036011 1.000000 1.505657 -12.179004 1.000000 9.191508 -9.377022 1.000000 3.426782 -12.125500 1.000000 9.969932 -7.659995 1.000000 3.447058 -10.155053 1.000000 7.225428 -5.292293 1.000000 2.983831 -6.632797 1.000000 6.322928 -1.824336 1.000000 3.125007 -2.129614 1.000000 6.154883 1.082092 1.000000 2.980248 1.794226 1.000000 5.898134 2.375657 1.000000 2.303907 4.078809 1.000000 5.222185 2.241281 1.000000 1.897605 4.942541 1.000000 4.258590 1.542221 1.000000 1.809063 5.111192 1.000000 3.196468 0.908267 1.000000 1.870428 4.990993 1.000000 2.165817 0.554033 1.000000 1.980294 4.745919 1.000000 1.228194 0.483906 1.000000 2.086532 4.454135 1.000000 0.389893 0.626759 1.000000 2.154225 4.145533 1.000000 -0.368956 0.881856 1.000000 2.169110 3.805289 1.000000 -1.057215 1.146429 1.000000 2.157208 3.405530 1.000000 -1.656605 1.386695 1.000000 2.172858 3.001419 1.000000 -2.173669 1.750113 1.000000 2.190097 2.830749 1.000000 -2.694611 2.423474 1.000000 2.029373 2.880087 1.000000 -3.310830 3.211096 1.000000 1.668486 2.904552 1.000000 -4.028207 3.924267 1.000000 1.134142 2.832500 1.000000 -4.823056 4.534158 1.000000 0.420981 2.665478 1.000000 -5.699596 5.040677 1.000000 -0.522277 2.382143 1.000000 -6.673009 5.384284 1.000000 -1.759193 1.896927 1.000000 -7.718486 5.413832 1.000000 -3.308770 1.047361 1.000000 
-9.999871 6.802865 1.000000 -8.356262 -0.584850 1.000000 -11.672188 5.620937 1.000000 -11.222429 -3.793884 1.000000 -12.845186 3.023941 1.000000 -13.487416 -7.977545 1.000000 -12.265771 -0.343961 1.000000 -13.481214 -11.032400 1.000000 -9.321188 -2.410796 1.000000 -9.529873 -10.149121 1.000000 -4.429389 -1.590014 1.000000 -6.908142 -8.465038 1.000000 -1.976488 -2.940545 1.000000 -2.810103 -7.909156 1.000000 0.664909 -5.592535 1.000000 0.995833 -7.069349 1.000000 1.751099 -5.995346 1.000000 4.668877 -5.477485 1.000000 4.953477 -4.577755 1.000000 6.718479 -1.586281 1.000000 10.141221 -1.223819 1.000000 8.789379 4.669335 1.000000 14.211122 0.250651 1.000000 11.098295 3.489800 1.000000 16.485074 0.029588 1.000000 10.397638 3.031759 1.000000 15.615642 0.892226 1.000000 7.168519 3.554910 1.000000 12.472637 1.985235 1.000000 3.893365 4.507716 1.000000 9.132571 1.796986 1.000000 2.031001 5.212550 1.000000 6.565668 1.318943 1.000000 1.424447 5.529763 1.000000 4.604482 1.018335 1.000000 1.460754 5.524961 1.000000 3.043656 0.916138 1.000000 1.717384 5.316103 1.000000 1.773613 0.970844 1.000000 1.962970 5.018047 1.000000 0.696652 1.149881 1.000000 2.075826 4.703472 1.000000 -0.277155 1.407804 1.000000 2.022484 4.386259 1.000000 -1.174462 1.678835 1.000000 1.900567 4.055096 1.000000 -1.879983 1.933649 1.000000 1.943940 3.764237 1.000000 -2.186059 2.302525 1.000000 2.147684 3.622720 1.000000 -2.484837 2.986793 1.000000 1.967927 3.625391 1.000000 -3.155223 3.757303 1.000000 1.361548 3.632948 1.000000 -4.000935 4.501764 1.000000 0.525070 3.562065 1.000000 -4.905506 5.220645 1.000000 -0.498761 3.399755 1.000000 -5.887023 5.928128 1.000000 -1.795723 3.098564 1.000000 -7.024761 6.566958 1.000000 -3.492716 2.519536 1.000000 -8.394189 6.964458 1.000000 -5.685987 1.410331 1.000000 
-10.655557 7.552302 1.000000 -6.197145 1.276193 1.000000 -12.362645 6.336768 1.000000 -9.211137 -1.498641 1.000000 -12.741530 3.149133 1.000000 -10.857099 -6.380987 1.000000 -9.370785 -2.922611 1.000000 -8.945367 -12.021817 1.000000 -1.617138 -11.032433 1.000000 -3.681519 -16.410997 1.000000 2.570255 -12.111138 1.000000 -5.429245 -14.261429 1.000000 3.412508 -15.485280 1.000000 -6.383684 -14.694039 1.000000 5.643166 -15.480211 1.000000 -1.275440 -12.803330 1.000000 8.551324 -14.709055 1.000000 3.388965 -15.381382 1.000000 12.967476 -11.426624 1.000000 6.974129 -17.313243 1.000000 16.008392 -9.730896 1.000000 5.169445 -14.224954 1.000000 6.024928 -7.601209 1.000000 3.669916 -8.906749 1.000000 5.854229 -1.123679 1.000000 4.152006 -1.260183 1.000000 6.647143 4.311211 1.000000 3.946394 4.937231 1.000000 6.878428 5.650812 1.000000 2.278126 7.418876 1.000000 5.989488 4.103645 1.000000 1.705609 7.509443 1.000000 4.608612 2.148775 1.000000 1.706222 7.072378 1.000000 3.192717 0.871960 1.000000 1.854035 6.551820 1.000000 1.941753 0.297402 1.000000 2.053197 6.015962 1.000000 0.912044 0.238320 1.000000 2.254548 5.531096 1.000000 0.057366 0.513903 1.000000 2.394558 5.119340 1.000000 -0.708458 0.935198 1.000000 2.428738 4.702596 1.000000 -1.422829 1.268346 1.000000 2.411344 4.111052 1.000000 -1.991450 1.343322 1.000000 2.535068 3.307496 1.000000 -2.326235 1.546369 1.000000 2.846309 3.129527 1.000000 -2.668488 2.603232 1.000000 2.772919 3.550474 1.000000 -3.282227 3.817475 1.000000 2.394060 3.750264 1.000000 -4.086809 4.760745 1.000000 1.838282 3.737070 1.000000 -4.981850 5.557989 1.000000 1.116011 3.646995 1.000000 -6.004391 6.337639 1.000000 0.109240 3.519880 1.000000 -7.256958 7.081276 1.000000 -1.355897 3.266355 1.000000 -8.821877 7.607104 1.000000 -3.443775 2.653043 1.000000 
-11.273435 9.556236 1.000000 -9.542772 1.122237 1.000000 -14.290694 8.634928 1.000000 -14.527577 -3.414999 1.000000 -17.591160 4.669903 1.000000 -19.935516 -11.348290 1.000000 -18.017321 -2.255693 1.000000 -21.973290 -18.786047 1.000000 -12.708860 -7.674644 1.000000 -9.509176 -14.336515 1.000000 -2.600824 0.157712 1.000000 -10.041873 -9.307291 1.000000 -2.055534 -1.986106 1.000000 -4.222154 -10.139813 1.000000 2.300843 -10.700779 1.000000 1.634254 -9.977507 1.000000 -1.657134 -10.659751 1.000000 7.864389 -9.893638 1.000000 2.567442 -8.162918 1.000000 8.861374 -4.627196 1.000000 13.516947 0.580865 1.000000 10.516104 14.652799 1.000000 18.815762 1.750180 1.000000 17.794938 3.660499 1.000000 23.373344 -0.452502 1.000000 16.504138 2.238845 1.000000 21.079668 1.097838 1.000000 8.519019 3.323624 1.000000 14.475724 3.653502 1.000000 2.139491 5.396656 1.000000 9.238565 2.369503 1.000000 -0.058475 6.593426 1.000000 6.216600 1.318330 1.000000 0.062472 6.945658 1.000000 4.072163 0.870522 1.000000 0.830937 6.775925 1.000000 2.442313 0.716976 1.000000 1.625177 6.345813 1.000000 1.222256 0.769493 1.000000 2.221268 5.872725 1.000000 0.238438 1.009870 1.000000 2.495246 5.469296 1.000000 -0.720014 1.373625 1.000000 2.370790 5.100630 1.000000 -1.786864 1.696229 1.000000 2.006001 4.623717 1.000000 -2.703561 1.809925 1.000000 2.183345 4.099022 1.000000 -2.374891 1.991284 1.000000 3.175537 3.964973 1.000000 -2.042323 3.060183 1.000000 3.138162 4.239129 1.000000 -2.925024 4.136162 1.000000 2.264595 4.437530 1.000000 -4.001441 5.057542 1.000000 1.292223 4.457106 1.000000 -4.988904 5.942916 1.000000 0.262517 4.422296 1.000000 -6.002259 6.934899 1.000000 -1.056097 4.351131 1.000000 -7.249716 8.032095 1.000000 -2.950373 4.084455 1.000000 -8.948924 9.052336 1.000000 -5.702317 3.244012 1.000000 
-12.777043 11.392757 1.000000 -7.015671 4.293452 1.000000 -16.799798 11.321573 1.000000 -13.007215 1.801826 1.000000 -20.232610 8.557072 1.000000 -18.425455 -5.954827 1.000000 -16.894766 -0.884838 1.000000 -17.236637 -17.330277 1.000000 1.407152 -23.496547 1.000000 4.367050 -26.519033 1.000000 8.767434 -11.578441 1.000000 -5.905249 -14.806719 1.000000 3.817745 -21.304999 1.000000 -16.249952 -19.050416 1.000000 8.490290 -21.336620 1.000000 0.134288 -8.845352 1.000000 8.582414 -20.939190 1.000000 7.224543 -19.605958 1.000000 17.420513 -12.423609 1.000000 14.994444 -28.262748 1.000000 34.046055 -11.385626 1.000000 6.531682 -19.523769 1.000000 -5.267805 -14.880043 1.000000 6.453439 -13.464331 1.000000 4.058544 0.167121 1.000000 6.115294 1.033492 1.000000 7.718976 12.296330 1.000000 5.924037 11.541175 1.000000 9.123388 12.030340 1.000000 1.815368 12.656035 1.000000 7.297432 6.301610 1.000000 1.464109 10.531408 1.000000 4.992020 2.027829 1.000000 1.593995 9.216815 1.000000 2.986010 0.103495 1.000000 1.770715 8.181670 1.000000 1.462960 -0.496838 1.000000 2.085224 7.236019 1.000000 0.409171 -0.357770 1.000000 2.454125 6.514914 1.000000 -0.359718 0.239925 1.000000 2.721632 6.077792 1.000000 -1.091393 1.059655 1.000000 2.733583 5.769446 1.000000 -1.953342 1.633134 1.000000 2.563570 5.027748 1.000000 -2.587984 1.165978 1.000000 2.792998 2.978826 1.000000 -2.463624 0.554177 1.000000 3.807583 2.796959 1.000000 -2.344595 2.640607 1.000000 3.783118 4.433174 1.000000 -3.036756 4.691042 1.000000 3.282480 4.826681 1.000000 -4.053114 5.733117 1.000000 2.699061 4.724533 1.000000 -5.021101 6.587695 1.000000 2.084144 4.660351 1.000000 -6.096293 7.656253 1.000000 1.184064 4.767338 1.000000 -7.554855 8.975552 1.000000 -0.340405 4.965563 1.000000 -9.690092 10.359048 1.000000 -2.900553 4.977555 1.000000 