# vtk DataFile Version 2.0
Comment goes here
ASCII

DATASET STRUCTURED_POINTS
DIMENSIONS    64   64   1

ORIGIN    0.000   0.000   0.000
SPACING   0.031250.03125   1.000

POINT_DATA   4096
VECTORS u double

3.116265 -4.085811 1.000000 2.763879 -1.066779 1.000000 3.272446 -4.735932 1.000000 2.942764 -1.948775 1.000000 3.378960 -5.294817 1.000000 3.061379 -2.820571 1.000000 3.429775 -5.641373 1.000000 3.062762 -3.460436 1.000000 3.289090 -5.583085 1.000000 2.795453 -3.658271 1.000000 2.629006 -4.916209 1.000000 2.217720 -3.632203 1.000000 1.560083 -3.870777 1.000000 1.426668 -3.607427 1.000000 0.341214 -2.785396 1.000000 0.538404 -3.657587 1.000000 -0.835665 -1.853859 1.000000 -0.374038 -3.671995 1.000000 -1.893222 -1.033666 1.000000 -1.220923 -3.545024 1.000000 -2.787995 -0.202956 1.000000 -1.918931 -3.236239 1.000000 -3.432833 0.703021 1.000000 -2.392128 -2.745329 1.000000 -3.752312 1.657559 1.000000 -2.621792 -2.134657 1.000000 -3.757989 2.548631 1.000000 -2.664381 -1.501564 1.000000 -3.548062 3.240250 1.000000 -2.603060 -0.922760 1.000000 -3.226883 3.646011 1.000000 -2.497132 -0.434714 1.000000 -2.860538 3.754772 1.000000 -2.368220 -0.044169 1.000000 -2.476600 3.613046 1.000000 -2.212910 0.257683 1.000000 -2.081856 3.292982 1.000000 -2.021102 0.486541 1.000000 -1.677689 2.865929 1.000000 -1.786981 0.660085 1.000000 -1.266673 2.388008 1.000000 -1.511220 0.794682 1.000000 -0.852834 1.895891 1.000000 -1.198654 0.903165 1.000000 -0.439919 1.408622 1.000000 -0.855542 0.993712 1.000000 -0.030412 0.931840 1.000000 -0.488230 1.069521 1.000000 0.374177 0.462205 1.000000 -0.102958 1.128746 1.000000 0.772720 -0.008938 1.000000 0.294339 1.164178 1.000000 1.164526 -0.492778 1.000000 0.698404 1.162521 1.000000 1.549128 -1.000922 1.000000 1.103815 1.103542 1.000000 1.924360 -1.543535 1.000000 1.502834 0.959810 1.000000 2.283432 -2.127279 1.000000 1.883557 0.698168 1.000000 2.613192 -2.752865 1.000000 2.230207 0.284729 1.000000 2.895899 -3.412324 1.000000 2.526809 -0.304580 1.000000 
-1.927804 -3.143330 1.000000 -1.885066 -0.739997 1.000000 -2.191388 -3.741658 1.000000 -1.671242 -1.547661 1.000000 -2.200832 -4.144465 1.000000 -1.272521 -2.248264 1.000000 -1.774312 -4.131649 1.000000 -0.647279 -2.486232 1.000000 -0.923203 -3.495041 1.000000 0.181058 -1.911065 1.000000 -0.249479 -2.379922 1.000000 0.784465 -1.107792 1.000000 0.117126 -1.050596 1.000000 1.105492 -0.418806 1.000000 0.265169 0.280365 1.000000 1.291177 0.096954 1.000000 0.350355 1.438268 1.000000 1.454909 0.472565 1.000000 0.455302 2.346707 1.000000 1.618580 0.721457 1.000000 0.626730 3.039098 1.000000 1.821430 0.870933 1.000000 0.881434 3.626220 1.000000 2.059420 0.992834 1.000000 1.175410 4.201727 1.000000 2.241598 1.159992 1.000000 1.416127 4.750756 1.000000 2.251296 1.386387 1.000000 1.531510 5.167383 1.000000 2.051678 1.610891 1.000000 1.507819 5.347804 1.000000 1.686768 1.766089 1.000000 1.374474 5.254777 1.000000 1.236340 1.821965 1.000000 1.177868 4.919844 1.000000 0.774875 1.788701 1.000000 0.961726 4.414404 1.000000 0.351491 1.698921 1.000000 0.756630 3.817440 1.000000 -0.011624 1.588598 1.000000 0.577744 3.194137 1.000000 -0.311716 1.485590 1.000000 0.427792 2.587661 1.000000 -0.556802 1.406124 1.000000 0.301541 2.020113 1.000000 -0.759529 1.356026 1.000000 0.189224 1.497565 1.000000 -0.933881 1.333357 1.000000 0.078392 1.015406 1.000000 -1.093253 1.330220 1.000000 -0.044629 0.562162 1.000000 -1.248231 1.333047 1.000000 -0.192687 0.121926 1.000000 -1.404202 1.322181 1.000000 -0.376216 -0.323628 1.000000 -1.560368 1.271590 1.000000 -0.603206 -0.793563 1.000000 -1.709922 1.148733 1.000000 -0.879281 -1.305772 1.000000 -1.840182 0.915769 1.000000 -1.205105 -1.873097 1.000000 -1.931936 0.534738 1.000000 -1.568318 -2.495048 1.000000 -1.958404 -0.020089 1.000000 
2.395428 -4.159149 1.000000 2.157240 -0.803195 1.000000 2.447297 -4.949755 1.000000 2.496202 -1.939331 1.000000 2.638789 -5.693539 1.000000 2.988515 -3.247091 1.000000 3.125064 -6.266615 1.000000 3.600406 -4.311544 1.000000 3.786290 -6.411422 1.000000 3.877789 -4.331995 1.000000 3.406290 -5.519617 1.000000 3.561373 -3.998808 1.000000 2.270394 -4.191803 1.000000 2.791137 -3.755469 1.000000 0.902358 -2.971082 1.000000 1.737004 -3.742773 1.000000 -0.419206 -2.017591 1.000000 0.566005 -3.776942 1.000000 -1.620592 -1.197336 1.000000 -0.511956 -3.716452 1.000000 -2.628868 -0.405806 1.000000 -1.328083 -3.490943 1.000000 -3.313401 0.465030 1.000000 -1.822301 -3.039304 1.000000 -3.599931 1.475381 1.000000 -2.082640 -2.375374 1.000000 -3.555638 2.538933 1.000000 -2.256813 -1.616947 1.000000 -3.349646 3.439867 1.000000 -2.427732 -0.899069 1.000000 -3.093101 4.010921 1.000000 -2.590937 -0.301369 1.000000 -2.818108 4.205200 1.000000 -2.700780 0.152437 1.000000 -2.515398 4.074511 1.000000 -2.714385 0.473825 1.000000 -2.171405 3.716366 1.000000 -2.613908 0.691637 1.000000 -1.784741 3.229044 1.000000 -2.406842 0.838971 1.000000 -1.365570 2.688099 1.000000 -2.115259 0.944634 1.000000 -0.928598 2.140977 1.000000 -1.764567 1.029416 1.000000 -0.487103 1.611349 1.000000 -1.376786 1.106030 1.000000 -0.050735 1.106193 1.000000 -0.968847 1.180353 1.000000 0.373377 0.621577 1.000000 -0.553775 1.251766 1.000000 0.778630 0.146040 1.000000 -0.141799 1.312237 1.000000 1.158349 -0.336806 1.000000 0.259568 1.346049 1.000000 1.505607 -0.844756 1.000000 0.644258 1.330533 1.000000 1.811364 -1.393981 1.000000 1.005434 1.235885 1.000000 2.062714 -1.997019 1.000000 1.335027 1.023992 1.000000 2.244864 -2.661111 1.000000 1.627720 0.647941 1.000000 2.350081 -3.385856 1.000000 1.890657 0.054906 1.000000 
-2.773555 -3.409913 1.000000 -2.698112 -0.791866 1.000000 -3.302695 -4.080620 1.000000 -2.428141 -1.739152 1.000000 -3.468031 -4.636778 1.000000 -1.816483 -2.734539 1.000000 -2.808008 -4.743540 1.000000 -0.693898 -3.147458 1.000000 -0.960750 -3.772424 1.000000 1.096635 -1.531065 1.000000 0.059227 -2.063507 1.000000 2.101864 0.028103 1.000000 0.349301 -0.280359 1.000000 2.320023 0.949230 1.000000 0.290550 1.334498 1.000000 2.259743 1.418518 1.000000 0.339448 2.609267 1.000000 2.287161 1.673950 1.000000 0.535687 3.424668 1.000000 2.411504 1.729734 1.000000 0.859463 3.855224 1.000000 2.681931 1.555466 1.000000 1.320330 4.120439 1.000000 3.053411 1.279364 1.000000 1.817507 4.462067 1.000000 3.294306 1.115698 1.000000 2.163246 4.924930 1.000000 3.151412 1.180395 1.000000 2.256032 5.338303 1.000000 2.628103 1.354346 1.000000 2.122976 5.511008 1.000000 1.887340 1.491096 1.000000 1.845857 5.364620 1.000000 1.109780 1.519255 1.000000 1.510758 4.933448 1.000000 0.417956 1.444708 1.000000 1.184017 4.313928 1.000000 -0.136807 1.312257 1.000000 0.903276 3.610374 1.000000 -0.554508 1.169427 1.000000 0.679988 2.902554 1.000000 -0.860629 1.048618 1.000000 0.508319 2.236969 1.000000 -1.087417 0.964629 1.000000 0.374194 1.632333 1.000000 -1.264649 0.919658 1.000000 0.260453 1.089625 1.000000 -1.417468 0.909245 1.000000 0.147840 0.600335 1.000000 -1.566933 0.924967 1.000000 0.015119 0.150185 1.000000 -1.728738 0.953328 1.000000 -0.158265 -0.279441 1.000000 -1.909853 0.974922 1.000000 -0.389717 -0.708318 1.000000 -2.108049 0.965833 1.000000 -0.694497 -1.154739 1.000000 -2.313283 0.897383 1.000000 -1.086742 -1.635365 1.000000 -2.508249 0.733619 1.000000 -1.575851 -2.165790 1.000000 -2.666657 0.429520 1.000000 -2.154338 -2.757985 1.000000 -2.749283 -0.065436 1.000000 
1.682534 -4.210321 1.000000 1.495809 -0.274056 1.000000 1.499715 -5.219726 1.000000 1.908810 -1.773994 1.000000 1.617022 -6.305198 1.000000 2.769518 -3.907115 1.000000 2.620549 -7.389199 1.000000 4.365759 -6.158802 1.000000 5.204043 -8.201955 1.000000 5.563786 -5.351973 1.000000 4.914534 -6.524846 1.000000 5.393253 -4.288881 1.000000 3.217396 -4.409962 1.000000 4.452054 -3.696718 1.000000 1.442946 -2.910801 1.000000 3.058703 -3.791671 1.000000 -0.095356 -2.045010 1.000000 1.413694 -3.973181 1.000000 -1.530753 -1.321679 1.000000 -0.070106 -4.040228 1.000000 -2.792796 -0.676233 1.000000 -1.071500 -3.951809 1.000000 -3.597153 0.093550 1.000000 -1.498620 -3.536482 1.000000 -3.787054 1.234487 1.000000 -1.627935 -2.721112 1.000000 -3.523254 2.681827 1.000000 -1.838025 -1.709733 1.000000 -3.206055 3.963177 1.000000 -2.242507 -0.766014 1.000000 -2.978968 4.751683 1.000000 -2.725251 -0.024250 1.000000 -2.803144 4.982760 1.000000 -3.122750 0.487536 1.000000 -2.594480 4.766336 1.000000 -3.327239 0.800566 1.000000 -2.302583 4.271128 1.000000 -3.312979 0.972378 1.000000 -1.923889 3.646745 1.000000 -3.112271 1.062258 1.000000 -1.482716 2.994220 1.000000 -2.780210 1.116303 1.000000 -1.009934 2.367765 1.000000 -2.369605 1.163540 1.000000 -0.530306 1.788581 1.000000 -1.920060 1.219771 1.000000 -0.059600 1.259012 1.000000 -1.458115 1.292967 1.000000 0.391222 0.771043 1.000000 -1.002674 1.384487 1.000000 0.810570 0.307844 1.000000 -0.568257 1.485621 1.000000 1.185970 -0.155691 1.000000 -0.163408 1.577501 1.000000 1.505859 -0.646560 1.000000 0.207441 1.635312 1.000000 1.756052 -1.188747 1.000000 0.539229 1.628131 1.000000 1.915808 -1.802054 1.000000 0.824628 1.513101 1.000000 1.960283 -2.502702 1.000000 1.060147 1.226428 1.000000 1.874418 -3.303229 1.000000 1.262475 0.674124 1.000000 
-3.702338 -3.643247 1.000000 -3.762058 -0.609047 1.000000 -4.759292 -4.493621 1.000000 -3.580350 -1.856459 1.000000 -5.504518 -5.497486 1.000000 -2.901345 -3.738067 1.000000 -4.925479 -6.339782 1.000000 -1.193638 -5.730952 1.000000 -0.202361 -4.970451 1.000000 2.796914 -1.241555 1.000000 1.088479 -1.892973 1.000000 4.182720 1.725241 1.000000 0.896337 0.660839 1.000000 3.791088 2.723680 1.000000 0.199797 2.727849 1.000000 3.159555 2.956820 1.000000 0.186368 4.254277 1.000000 3.013889 3.109347 1.000000 0.493770 4.908468 1.000000 3.033545 2.991778 1.000000 0.956607 4.856618 1.000000 3.410789 2.359822 1.000000 1.699389 4.547559 1.000000 4.148261 1.469265 1.000000 2.573819 4.591382 1.000000 4.718788 0.851898 1.000000 3.144726 5.135020 1.000000 4.437306 0.863196 1.000000 3.213043 5.742785 1.000000 3.432723 1.127259 1.000000 2.898889 5.993752 1.000000 2.133089 1.315272 1.000000 2.388618 5.762119 1.000000 0.901788 1.310591 1.000000 1.841506 5.137937 1.000000 -0.074784 1.152810 1.000000 1.360921 4.299667 1.000000 -0.762522 0.933564 1.000000 0.990244 3.409666 1.000000 -1.209758 0.728253 1.000000 0.727595 2.570494 1.000000 -1.489465 0.575837 1.000000 0.548480 1.826364 1.000000 -1.667907 0.485001 1.000000 0.424109 1.182788 1.000000 -1.794402 0.448952 1.000000 0.328627 0.627680 1.000000 -1.904556 0.458424 1.000000 0.235803 0.144893 1.000000 -2.028144 0.505619 1.000000 0.114229 -0.284232 1.000000 -2.189369 0.577928 1.000000 -0.066700 -0.684289 1.000000 -2.397282 0.655034 1.000000 -0.330214 -1.079166 1.000000 -2.646753 0.715640 1.000000 -0.697759 -1.486527 1.000000 -2.924259 0.737627 1.000000 -1.195675 -1.920765 1.000000 -3.210726 0.689144 1.000000 -1.854362 -2.401309 1.000000 -3.479018 0.515385 1.000000 -2.695451 -2.960313 1.000000 -3.686506 0.126447 1.000000 
0.990926 -4.134769 1.000000 0.696304 0.782898 1.000000 0.291745 -5.401434 1.000000 0.926341 -1.028767 1.000000 -0.231409 -6.984203 1.000000 1.812001 -4.486154 1.000000 0.667736 -9.096907 1.000000 5.030675 -10.881920 1.000000 8.970241 -12.192507 1.000000 8.624983 -6.642813 1.000000 7.854798 -7.910651 1.000000 8.083232 -4.096738 1.000000 4.269829 -4.018330 1.000000 6.599336 -3.000179 1.000000 1.821927 -2.279269 1.000000 4.645453 -3.778241 1.000000 0.196731 -1.899343 1.000000 2.099593 -4.280584 1.000000 -1.603922 -1.341335 1.000000 -0.117528 -4.503064 1.000000 -3.407424 -1.053478 1.000000 -1.405484 -4.694591 1.000000 -4.493122 -0.643922 1.000000 -1.496533 -4.410913 1.000000 -4.438739 0.663960 1.000000 -1.079329 -3.292019 1.000000 -3.561906 2.963308 1.000000 -1.187886 -1.778050 1.000000 -2.983101 4.967760 1.000000 -1.945136 -0.451860 1.000000 -2.819555 6.051318 1.000000 -2.928080 0.486022 1.000000 -2.823009 6.214060 1.000000 -3.732881 1.034647 1.000000 -2.754723 5.742908 1.000000 -4.158555 1.281151 1.000000 -2.516961 4.958867 1.000000 -4.199689 1.343055 1.000000 -2.122932 4.093981 1.000000 -3.951024 1.324908 1.000000 -1.630761 3.273927 1.000000 -3.526209 1.295418 1.000000 -1.098820 2.546207 1.000000 -3.016225 1.287911 1.000000 -0.565737 1.915076 1.000000 -2.478093 1.315253 1.000000 -0.049391 1.369167 1.000000 -1.942781 1.385791 1.000000 0.440368 0.894631 1.000000 -1.432081 1.506061 1.000000 0.887038 0.469068 1.000000 -0.966547 1.666549 1.000000 1.270762 0.052222 1.000000 -0.553850 1.841016 1.000000 1.578875 -0.397089 1.000000 -0.191833 2.002857 1.000000 1.796100 -0.911241 1.000000 0.118679 2.126047 1.000000 1.892040 -1.515586 1.000000 0.366589 2.171787 1.000000 1.818995 -2.234411 1.000000 0.535895 2.067518 1.000000 1.525601 -3.095741 1.000000 0.626919 1.681011 1.000000 
-4.577126 -3.712632 1.000000 -5.134658 0.090134 1.000000 -6.519921 -4.723658 1.000000 -5.362763 -1.333305 1.000000 -8.778412 -6.383145 1.000000 -5.244484 -4.637212 1.000000 -10.299965 -9.558456 1.000000 -3.286532 -14.033457 1.000000 3.630124 -8.564758 1.000000 6.807929 -0.126113 1.000000 3.639845 -1.351223 1.000000 7.928172 5.310211 1.000000 1.797114 2.144735 1.000000 5.367589 5.171582 1.000000 -0.590519 4.681732 1.000000 3.669007 4.582016 1.000000 -0.258529 6.800136 1.000000 3.545257 4.910000 1.000000 0.309077 7.125590 1.000000 3.246626 4.795279 1.000000 0.789170 6.144574 1.000000 3.726248 3.445520 1.000000 1.881307 4.638607 1.000000 5.346766 1.414882 1.000000 3.523635 4.174178 1.000000 6.985554 -0.024936 1.000000 4.591507 5.243576 1.000000 6.478267 0.284391 1.000000 4.584662 6.500035 1.000000 4.564985 0.963714 1.000000 3.914253 6.976696 1.000000 2.328233 1.318725 1.000000 2.994092 6.566920 1.000000 0.444703 1.242305 1.000000 2.113431 5.563611 1.000000 -0.857064 0.915048 1.000000 1.425271 4.340802 1.000000 -1.631902 0.539535 1.000000 0.962984 3.161000 1.000000 -2.035652 0.236082 1.000000 0.685654 2.145679 1.000000 -2.221501 0.043895 1.000000 0.529393 1.316380 1.000000 -2.301294 -0.048082 1.000000 0.442077 0.644656 1.000000 -2.341257 -0.067394 1.000000 0.391988 0.092368 1.000000 -2.379116 -0.031335 1.000000 0.350797 -0.365807 1.000000 -2.452312 0.058949 1.000000 0.271230 -0.749765 1.000000 -2.603404 0.194205 1.000000 0.106453 -1.096987 1.000000 -2.842612 0.346920 1.000000 -0.166823 -1.441184 1.000000 -3.155628 0.498415 1.000000 -0.569465 -1.797038 1.000000 -3.522614 0.641687 1.000000 -1.140922 -2.168675 1.000000 -3.926592 0.762189 1.000000 -1.945764 -2.570615 1.000000 -4.350520 0.808780 1.000000 -3.065294 -3.051337 1.000000 -4.768442 0.661122 1.000000 
0.530820 -3.768553 1.000000 -0.193154 2.725693 1.000000 -0.982524 -5.173329 1.000000 -0.559808 1.229724 1.000000 -3.254341 -7.102481 1.000000 -0.978279 -2.964602 1.000000 -5.839176 -11.054859 1.000000 3.468374 -24.812010 1.000000 18.905601 -22.286968 1.000000 15.360592 -6.652534 1.000000 13.702132 -9.030895 1.000000 11.843045 -2.254007 1.000000 4.181403 -1.457746 1.000000 9.343836 -0.612546 1.000000 1.573323 -0.580687 1.000000 6.754954 -4.110232 1.000000 0.826658 -1.775593 1.000000 2.427549 -4.848190 1.000000 -1.717373 -1.042704 1.000000 -1.113541 -4.983157 1.000000 -4.710133 -1.533100 1.000000 -2.950001 -5.786729 1.000000 -6.495764 -2.264440 1.000000 -2.075476 -6.053241 1.000000 -5.917885 -0.974827 1.000000 0.068247 -4.359891 1.000000 -3.339216 3.470595 1.000000 0.224447 -1.771204 1.000000 -2.366418 6.881043 1.000000 -1.354221 0.218548 1.000000 -2.514830 8.288069 1.000000 -3.299011 1.406183 1.000000 -2.924878 8.097590 1.000000 -4.730488 1.915309 1.000000 -3.080142 7.044675 1.000000 -5.381524 1.969311 1.000000 -2.878760 5.733705 1.000000 -5.380312 1.805342 1.000000 -2.413912 4.497732 1.000000 -4.969022 1.602238 1.000000 -1.816552 3.459775 1.000000 -4.360623 1.451680 1.000000 -1.189679 2.626000 1.000000 -3.694452 1.375226 1.000000 -0.586104 1.955039 1.000000 -3.036474 1.365342 1.000000 -0.013627 1.407026 1.000000 -2.405308 1.426982 1.000000 0.532494 0.967827 1.000000 -1.818096 1.585627 1.000000 1.027023 0.620160 1.000000 -1.313794 1.831327 1.000000 1.432923 0.291431 1.000000 -0.895980 2.114291 1.000000 1.746229 -0.084074 1.000000 -0.542831 2.405499 1.000000 1.963262 -0.544255 1.000000 -0.242488 2.697504 1.000000 2.047677 -1.111608 1.000000 -0.012737 2.976629 1.000000 1.918220 -1.810483 1.000000 0.100175 3.187049 1.000000 1.456459 -2.677820 1.000000 0.044403 3.192842 1.000000 
-5.007965 -3.475075 1.000000 -6.708517 1.603479 1.000000 -7.960570 -4.357004 1.000000 -7.759508 0.938512 1.000000 -12.688946 -5.964675 1.000000 -9.554204 -2.052377 1.000000 -20.996207 -14.005108 1.000000 -7.178153 -38.778233 1.000000 15.222812 -20.456976 1.000000 16.317048 5.077356 1.000000 7.999882 2.166324 1.000000 15.398480 14.830939 1.000000 2.769902 4.643944 1.000000 5.381624 7.779663 1.000000 -3.931062 7.270614 1.000000 3.281965 5.328680 1.000000 -0.837190 11.127542 1.000000 4.063035 7.454032 1.000000 0.225042 10.666679 1.000000 2.576407 7.788039 1.000000 0.095014 7.981034 1.000000 2.823678 5.231151 1.000000 1.307126 3.764083 1.000000 6.345559 0.837003 1.000000 4.655841 2.030455 1.000000 11.423316 -2.603604 1.000000 7.049681 5.087375 1.000000 10.050699 -0.688407 1.000000 6.743997 8.078703 1.000000 6.106594 1.112125 1.000000 5.283103 8.921486 1.000000 2.198903 1.728774 1.000000 3.604244 7.998398 1.000000 -0.592113 1.397569 1.000000 2.197286 6.214646 1.000000 -2.173645 0.713667 1.000000 1.252137 4.339590 1.000000 -2.882419 0.074687 1.000000 0.736627 2.749710 1.000000 -3.087553 -0.361277 1.000000 0.511533 1.537280 1.000000 -3.063786 -0.582978 1.000000 0.434551 0.650209 1.000000 -2.975880 -0.651657 1.000000 0.419418 -0.013322 1.000000 -2.891296 -0.639871 1.000000 0.444722 -0.538797 1.000000 -2.820519 -0.577456 1.000000 0.502537 -0.953019 1.000000 -2.800365 -0.435580 1.000000 0.511626 -1.254067 1.000000 -2.930349 -0.211695 1.000000 0.386896 -1.514802 1.000000 -3.214572 0.033614 1.000000 0.125880 -1.794333 1.000000 -3.609147 0.281382 1.000000 -0.270722 -2.097381 1.000000 -4.078926 0.557272 1.000000 -0.848697 -2.398426 1.000000 -4.613213 0.891646 1.000000 -1.714654 -2.683527 1.000000 -5.218236 1.270541 1.000000 -3.030534 -2.995565 1.000000 -5.906344 1.586761 1.000000 
0.786005 -2.966380 1.000000 -0.901306 5.678298 1.000000 -1.222631 -4.122338 1.000000 -1.766379 5.958100 1.000000 -4.540100 -5.307785 1.000000 -2.286228 5.342659 1.000000 -10.472950 -13.430910 1.000000 9.479951 -61.031029 1.000000 32.167398 -45.782169 1.000000 28.652944 0.570396 1.000000 25.586573 -8.112326 1.000000 14.602242 2.975973 1.000000 -3.425738 8.559109 1.000000 12.610256 6.088419 1.000000 0.228049 1.518972 1.000000 9.792928 -7.204104 1.000000 3.201800 -2.556662 1.000000 1.863446 -5.910422 1.000000 -1.732199 0.443924 1.000000 -3.895373 -4.853129 1.000000 -7.088675 -1.780372 1.000000 -7.114222 -6.998841 1.000000 -10.766509 -5.786321 1.000000 -4.239171 -9.401956 1.000000 -9.356726 -6.052585 1.000000 3.639807 -6.753731 1.000000 -1.610240 4.843212 1.000000 3.739206 -1.465520 1.000000 -0.689390 10.825148 1.000000 -0.300682 1.679441 1.000000 -2.040023 12.195761 1.000000 -4.242441 3.085042 1.000000 -3.313507 10.888606 1.000000 -6.559022 3.322267 1.000000 -3.745701 8.626207 1.000000 -7.277403 2.914460 1.000000 -3.481817 6.442479 1.000000 -6.978043 2.320851 1.000000 -2.824749 4.702866 1.000000 -6.187328 1.827332 1.000000 -2.028536 3.436009 1.000000 -5.256032 1.528661 1.000000 -1.259348 2.538094 1.000000 -4.368821 1.390359 1.000000 -0.578829 1.870454 1.000000 -3.572828 1.340038 1.000000 0.046738 1.336250 1.000000 -2.827690 1.369168 1.000000 0.676605 0.947672 1.000000 -2.122508 1.576538 1.000000 1.256222 0.750144 1.000000 -1.576127 1.956057 1.000000 1.689088 0.575654 1.000000 -1.176866 2.375308 1.000000 2.012482 0.310501 1.000000 -0.847350 2.802101 1.000000 2.267337 -0.074475 1.000000 -0.541989 3.275479 1.000000 2.426379 -0.577320 1.000000 -0.283307 3.842586 1.000000 2.373547 -1.205461 1.000000 -0.166059 4.502929 1.000000 1.909768 -1.989711 1.000000 -0.335443 5.170274 1.000000 
-4.420163 -2.909212 1.000000 -8.007632 3.612115 1.000000 -7.492470 -3.491931 1.000000 -9.034471 4.255980 1.000000 -10.678155 -5.444826 1.000000 -5.585892 3.880473 1.000000 -10.072594 -25.771288 1.000000 15.465366 -81.418581 1.000000 16.825101 -39.629969 1.000000 20.251044 11.658181 1.000000 6.495657 16.217027 1.000000 11.803510 43.843250 1.000000 -9.930206 6.635930 1.000000 -3.861234 4.125876 1.000000 -12.285863 10.087941 1.000000 3.290562 2.354929 1.000000 0.101038 19.057024 1.000000 5.451632 12.388031 1.000000 1.298323 16.425499 1.000000 0.173230 13.144514 1.000000 -1.539892 11.199883 1.000000 -1.314807 8.908985 1.000000 -2.175144 0.889031 1.000000 5.124672 -0.572780 1.000000 4.864960 -5.848523 1.000000 22.703462 -10.350090 1.000000 12.223650 4.987976 1.000000 16.667969 -1.609256 1.000000 10.498427 12.118592 1.000000 7.805648 2.462757 1.000000 7.101945 12.863245 1.000000 0.962878 3.002259 1.000000 4.004610 10.314978 1.000000 -2.856245 1.829762 1.000000 1.805076 6.933028 1.000000 -4.387099 0.449783 1.000000 0.617700 4.040230 1.000000 -4.662939 -0.582382 1.000000 0.191562 1.958995 1.000000 -4.387256 -1.157490 1.000000 0.169902 0.605983 1.000000 -3.978112 -1.352166 1.000000 0.267895 -0.237002 1.000000 -3.647499 -1.332176 1.000000 0.353886 -0.809316 1.000000 -3.427206 -1.265438 1.000000 0.465921 -1.283935 1.000000 -3.215826 -1.207323 1.000000 0.701809 -1.658201 1.000000 -3.002485 -1.015197 1.000000 0.882460 -1.800447 1.000000 -3.105253 -0.644561 1.000000 0.801939 -1.914063 1.000000 -3.477827 -0.289780 1.000000 0.554431 -2.123848 1.000000 -3.986676 0.026526 1.000000 0.211404 -2.402742 1.000000 -4.563966 0.398230 1.000000 -0.264292 -2.657107 1.000000 -5.213657 0.944478 1.000000 -1.024036 -2.800775 1.000000 -5.980090 1.734320 1.000000 -2.312092 -2.826182 1.000000 -6.907800 2.710525 1.000000 
2.074969 -1.866548 1.000000 -1.296933 8.750605 1.000000 0.101824 -3.095500 1.000000 -2.577376 9.143784 1.000000 0.245105 -8.756364 1.000000 4.319193 4.737098 1.000000 17.876676 -34.482168 1.000000 42.501587 -87.928724 1.000000 20.389926 -50.567848 1.000000 41.188465 10.899840 1.000000 20.697265 0.335209 1.000000 66.091654 19.401836 1.000000 26.714790 24.223852 1.000000 21.378836 8.444076 1.000000 7.520364 -5.632823 1.000000 14.961268 -19.591005 1.000000 9.198924 -4.717732 1.000000 -1.231264 -7.107708 1.000000 -2.492393 5.722326 1.000000 -9.899976 -2.014914 1.000000 -10.765781 -0.292335 1.000000 -16.694454 -6.363589 1.000000 -20.740191 -12.225800 1.000000 -12.854500 -16.442060 1.000000 -19.922538 -23.631376 1.000000 18.687920 -14.112421 1.000000 6.479908 10.878706 1.000000 12.500457 0.259702 1.000000 2.927917 19.687468 1.000000 0.487105 5.075923 1.000000 -2.019805 19.038531 1.000000 -7.167970 6.182377 1.000000 -4.577813 14.707728 1.000000 -10.113697 5.521801 1.000000 -5.031703 10.157061 1.000000 -10.220591 4.101836 1.000000 -4.427037 6.718319 1.000000 -9.072995 2.746990 1.000000 -3.353467 4.427182 1.000000 -7.546208 1.848992 1.000000 -2.210056 3.026865 1.000000 -6.107620 1.430669 1.000000 -1.246186 2.207482 1.000000 -4.956418 1.304368 1.000000 -0.525113 1.650161 1.000000 -4.067030 1.228003 1.000000 0.098643 1.124871 1.000000 -3.218835 1.133280 1.000000 0.874315 0.734330 1.000000 -2.265751 1.395886 1.000000 1.633428 0.852912 1.000000 -1.690430 2.036578 1.000000 2.055070 0.948228 1.000000 -1.392409 2.622816 1.000000 2.346511 0.819350 1.000000 -1.139217 3.145128 1.000000 2.664812 0.502814 1.000000 -0.813911 3.751174 1.000000 3.015536 0.072371 1.000000 -0.436775 4.602331 1.000000 3.251595 -0.439028 1.000000 -0.165479 5.790984 1.000000 3.080135 -1.062002 1.000000 -0.315333 7.278345 1.000000 
-2.861229 -1.927611 1.000000 -9.348599 5.585260 1.000000 -6.915305 -2.211488 1.000000 -11.723532 4.112699 1.000000 -10.947535 -12.341395 1.000000 -10.374332 -13.751098 1.000000 12.012072 -63.953682 1.000000 19.561065 -83.931832 1.000000 -0.763282 -38.316847 1.000000 -19.659114 11.350842 1.000000 -10.162341 -8.686162 1.000000 -20.642096 37.825725 1.000000 -48.534166 51.348748 1.000000 -9.759659 23.320303 1.000000 -13.410537 16.505509 1.000000 6.824438 0.676369 1.000000 6.389932 35.249555 1.000000 6.619239 24.079348 1.000000 6.521498 25.094211 1.000000 -4.221514 21.417903 1.000000 -3.562118 17.994361 1.000000 -12.416952 18.883395 1.000000 -17.326428 -2.950922 1.000000 -8.631255 -1.390433 1.000000 -16.858393 -37.390943 1.000000 66.162783 -36.752536 1.000000 28.178648 11.175439 1.000000 27.958559 1.942734 1.000000 17.442761 24.131945 1.000000 7.681406 7.410480 1.000000 9.180288 20.518320 1.000000 -3.472075 5.560266 1.000000 3.541109 13.260705 1.000000 -7.459246 2.283652 1.000000 0.326616 7.039921 1.000000 -7.916744 -0.154883 1.000000 -0.847141 2.892635 1.000000 -7.061206 -1.655952 1.000000 -0.808095 0.432207 1.000000 -5.862194 -2.300900 1.000000 -0.324162 -0.832604 1.000000 -4.827549 -2.316036 1.000000 0.097400 -1.388204 1.000000 -4.203798 -2.053249 1.000000 0.263556 -1.698704 1.000000 -3.944452 -1.889194 1.000000 0.376658 -2.132130 1.000000 -3.621107 -1.982996 1.000000 0.955937 -2.611284 1.000000 -2.901224 -1.774310 1.000000 1.502294 -2.375769 1.000000 -3.014055 -1.066203 1.000000 1.381657 -2.212083 1.000000 -3.606378 -0.581221 1.000000 1.081005 -2.377041 1.000000 -4.294559 -0.291775 1.000000 0.830017 -2.728049 1.000000 -4.967185 0.047507 1.000000 0.606887 -3.034243 1.000000 -5.674418 0.708419 1.000000 0.198777 -3.072071 1.000000 -6.547523 1.905780 1.000000 -0.761887 -2.676328 1.000000 -7.727168 3.715691 1.000000 
4.637336 -0.245117 1.000000 -0.822613 12.804681 1.000000 1.099397 -0.720567 1.000000 -6.380356 13.176015 1.000000 -5.667404 -10.105564 1.000000 -12.700175 -18.222509 1.000000 6.373699 -64.417565 1.000000 -5.945476 -75.153370 1.000000 -12.093133 -11.347668 1.000000 -17.965878 20.298898 1.000000 7.408770 1.318191 1.000000 -9.105887 57.773661 1.000000 -13.868930 13.341415 1.000000 3.564414 -26.679553 1.000000 -13.156070 -22.216921 1.000000 14.031849 -39.391474 1.000000 10.076683 -4.512533 1.000000 -14.178453 -7.239273 1.000000 -10.443438 16.563079 1.000000 -19.365850 8.068702 1.000000 -16.244351 7.903103 1.000000 -39.314621 7.400722 1.000000 -50.746492 -16.011496 1.000000 -53.743112 -16.910094 1.000000 -96.057119 -98.425414 1.000000 103.505775 -59.149462 1.000000 40.949090 49.082930 1.000000 26.990687 10.995589 1.000000 5.549914 39.964621 1.000000 -5.569942 13.338396 1.000000 -5.517994 30.192012 1.000000 -15.922188 11.821556 1.000000 -7.578897 18.694899 1.000000 -16.615277 8.736294 1.000000 -7.137902 10.614560 1.000000 -14.428305 5.275593 1.000000 -5.766385 5.862780 1.000000 -11.548676 2.707944 1.000000 -3.929693 3.228170 1.000000 -8.808204 1.365060 1.000000 -2.211892 1.992220 1.000000 -6.660331 1.009106 1.000000 -1.003465 1.583730 1.000000 -5.282411 1.138212 1.000000 -0.395864 1.390816 1.000000 -4.535631 1.114901 1.000000 -0.008657 0.801525 1.000000 -3.738185 0.554000 1.000000 1.106238 0.014447 1.000000 -2.017017 0.849530 1.000000 2.345583 0.965743 1.000000 -1.519412 2.157215 1.000000 2.548549 1.540550 1.000000 -1.569237 2.923469 1.000000 2.643942 1.507532 1.000000 -1.524613 3.396115 1.000000 3.012554 1.175440 1.000000 -1.173028 3.974304 1.000000 3.693615 0.779605 1.000000 -0.536685 5.010441 1.000000 4.508040 0.434077 1.000000 0.187568 6.751648 1.000000 5.093494 0.117644 1.000000 0.528207 9.377687 1.000000 
0.737978 -0.576791 1.000000 -10.474164 9.123199 1.000000 -3.962953 3.346255 1.000000 -13.933915 10.879500 1.000000 -15.182061 -6.021577 1.000000 -17.041979 -25.792201 1.000000 -29.949430 -70.708380 1.000000 -24.285212 -65.464999 1.000000 -45.676706 -26.296444 1.000000 -2.727409 -8.151062 1.000000 -34.309500 -17.546153 1.000000 62.752943 59.103425 1.000000 28.573203 38.678447 1.000000 3.551960 22.607443 1.000000 -26.384173 6.038073 1.000000 3.944629 -22.556384 1.000000 13.223422 63.459858 1.000000 16.117382 44.599469 1.000000 15.430568 30.281608 1.000000 -21.116792 27.218815 1.000000 13.879056 37.943132 1.000000 -21.367355 53.385536 1.000000 -49.964604 11.477569 1.000000 -41.968188 43.920195 1.000000 -67.180642 -194.639830 1.000000 91.897931 -173.758746 1.000000 81.549152 87.690527 1.000000 25.525783 37.341910 1.000000 28.948045 56.692573 1.000000 -3.200163 18.478388 1.000000 9.624409 30.870566 1.000000 -15.737953 7.621169 1.000000 0.338678 13.953794 1.000000 -15.576206 1.842657 1.000000 -3.418957 4.852950 1.000000 -12.950377 -1.526400 1.000000 -3.652183 0.013005 1.000000 -9.968622 -3.492644 1.000000 -2.329471 -2.308264 1.000000 -7.255411 -4.018702 1.000000 -0.811880 -2.980478 1.000000 -5.286986 -3.524463 1.000000 0.147709 -2.766123 1.000000 -4.379293 -2.660850 1.000000 0.233173 -2.445484 1.000000 -4.463958 -2.276401 1.000000 -0.079043 -2.929576 1.000000 -4.390707 -3.097890 1.000000 1.240931 -4.332453 1.000000 -2.053269 -3.013656 1.000000 2.700312 -2.873374 1.000000 -2.460083 -1.269169 1.000000 2.140820 -2.162258 1.000000 -3.631347 -0.676614 1.000000 1.570865 -2.421665 1.000000 -4.612192 -0.660387 1.000000 1.432020 -3.079633 1.000000 -5.322770 -0.633554 1.000000 1.665162 -3.670586 1.000000 -5.934512 -0.106006 1.000000 1.969733 -3.796324 1.000000 -6.744366 1.320325 1.000000 1.913423 -3.016967 1.000000 -8.136893 4.171849 1.000000 