# vtk DataFile Version 2.0
Comment goes here
ASCII

DATASET STRUCTURED_POINTS
DIMENSIONS    64   64   1

ORIGIN    0.000   0.000   0.000
SPACING   0.031250.03125   1.000

POINT_DATA   4096
SCALARS uMag double
LOOKUP_TABLE default

7.561567e-03 1.004393e-01 2.081228e-01 3.044219e-01 3.919265e-01 4.618855e-01 5.162007e-01 5.489106e-01 5.618069e-01 5.518219e-01 5.212351e-01 4.696275e-01 4.001658e-01 3.145935e-01 2.169621e-01 1.105851e-01 9.334771e-05 1.106658e-01 2.170349e-01 3.146624e-01 4.002196e-01 4.696749e-01 5.212616e-01 5.518422e-01 5.618025e-01 5.489022e-01 5.161669e-01 4.618507e-01 3.918691e-01 3.043668e-01 2.080503e-01 1.003725e-01 7.638835e-03 1.196451e-01 2.230852e-01 3.229502e-01 4.061690e-01 4.790643e-01 5.292224e-01 5.640877e-01 5.730910e-01 5.643861e-01 5.302705e-01 4.790409e-01 4.064907e-01 3.204303e-01 2.202207e-01 1.125696e-01 1.094342e-04 1.126293e-01 2.202986e-01 3.204791e-01 4.065495e-01 4.790702e-01 5.303015e-01 5.643907e-01 5.730906e-01 5.640666e-01 5.291918e-01 4.790204e-01 4.061138e-01 3.228896e-01 2.230139e-01 1.195764e-01 
1.102606e-01 1.488578e-01 2.363520e-01 3.244701e-01 4.092508e-01 4.762484e-01 5.307294e-01 5.615906e-01 5.755914e-01 5.644019e-01 5.354593e-01 4.837290e-01 4.170044e-01 3.342125e-01 2.443878e-01 1.566095e-01 1.105991e-01 1.566516e-01 2.444339e-01 3.342607e-01 4.170408e-01 4.837640e-01 5.354766e-01 5.644181e-01 5.755868e-01 5.615865e-01 5.307043e-01 4.762256e-01 4.092100e-01 3.244338e-01 2.363056e-01 1.488257e-01 1.102658e-01 1.629896e-01 2.502830e-01 3.426383e-01 4.236042e-01 4.936323e-01 5.440794e-01 5.770879e-01 5.872598e-01 5.772961e-01 5.448970e-01 4.934618e-01 4.237698e-01 3.403975e-01 2.482782e-01 1.592718e-01 1.126410e-01 1.592999e-01 2.483307e-01 3.404277e-01 4.238127e-01 4.934796e-01 5.449201e-01 5.772972e-01 5.872599e-01 5.770715e-01 5.440577e-01 4.936004e-01 4.235653e-01 3.425965e-01 2.502359e-01 1.629530e-01 
2.250957e-01 2.462564e-01 3.061023e-01 3.779717e-01 4.513681e-01 5.131465e-01 5.625990e-01 5.927975e-01 6.048932e-01 5.958317e-01 5.677457e-01 5.210575e-01 4.594555e-01 3.875680e-01 3.133264e-01 2.521549e-01 2.260963e-01 2.521913e-01 3.133795e-01 3.876254e-01 4.595045e-01 5.211016e-01 5.677706e-01 5.958512e-01 6.048881e-01 5.927896e-01 5.625660e-01 5.131142e-01 4.513159e-01 3.779256e-01 3.060517e-01 2.462277e-01 2.251002e-01 2.552724e-01 3.169777e-01 3.941129e-01 4.644972e-01 5.298476e-01 5.754331e-01 6.081155e-01 6.164404e-01 6.087973e-01 5.773793e-01 5.310462e-01 4.667716e-01 3.942567e-01 3.183353e-01 2.559407e-01 2.299464e-01 2.559669e-01 3.183925e-01 3.942960e-01 4.668257e-01 5.310720e-01 5.774090e-01 6.088007e-01 6.164392e-01 6.080947e-01 5.754027e-01 5.298064e-01 4.644455e-01 3.940615e-01 3.169238e-01 2.552395e-01 
3.464608e-01 3.598199e-01 4.045319e-01 4.610110e-01 5.250167e-01 5.784444e-01 6.249323e-01 6.511947e-01 6.639804e-01 6.541829e-01 6.297693e-01 5.862477e-01 5.326661e-01 4.705376e-01 4.116038e-01 3.663988e-01 3.490929e-01 3.664137e-01 4.116279e-01 4.705662e-01 5.326907e-01 5.862726e-01 6.297807e-01 6.541961e-01 6.639746e-01 6.511935e-01 6.249114e-01 5.784298e-01 5.249877e-01 4.609897e-01 4.045090e-01 3.598083e-01 3.464653e-01 3.667297e-01 4.136368e-01 4.758075e-01 5.375481e-01 5.950317e-01 6.379290e-01 6.669529e-01 6.761360e-01 6.678413e-01 6.403564e-01 5.971124e-01 5.413154e-01 4.783934e-01 4.184663e-01 3.719149e-01 3.551804e-01 3.719226e-01 4.184960e-01 4.784066e-01 5.413472e-01 5.971201e-01 6.403743e-01 6.678388e-01 6.761349e-01 6.669389e-01 6.379102e-01 5.950081e-01 5.375178e-01 4.757812e-01 4.136081e-01 3.667158e-01 
4.834272e-01 4.935208e-01 5.254496e-01 5.698580e-01 6.208937e-01 6.669102e-01 7.059294e-01 7.304854e-01 7.407776e-01 7.341079e-01 7.119067e-01 6.761464e-01 6.299973e-01 5.804920e-01 5.333482e-01 5.007028e-01 4.872479e-01 5.007229e-01 5.333849e-01 5.805336e-01 6.300386e-01 6.761832e-01 7.119279e-01 7.341254e-01 7.407700e-01 7.304785e-01 7.058968e-01 6.668823e-01 6.208496e-01 5.698230e-01 5.254174e-01 4.935038e-01 4.834325e-01 4.990389e-01 5.327945e-01 5.830292e-01 6.321380e-01 6.828528e-01 7.184351e-01 7.463006e-01 7.531053e-01 7.482452e-01 7.232295e-01 6.878051e-01 6.399074e-01 5.895061e-01 5.419596e-01 5.078141e-01 4.953184e-01 5.078271e-01 5.420002e-01 5.895313e-01 6.399544e-01 6.878230e-01 7.232562e-01 7.482455e-01 7.531017e-01 7.462803e-01 7.184035e-01 6.828164e-01 6.320910e-01 5.829902e-01 5.327546e-01 4.990204e-01 
6.341788e-01 6.405269e-01 6.677503e-01 7.026605e-01 7.480260e-01 7.861230e-01 8.228535e-01 8.429423e-01 8.543486e-01 8.467152e-01 8.288263e-01 7.960362e-01 7.577924e-01 7.153072e-01 6.781173e-01 6.518109e-01 6.420840e-01 6.518139e-01 6.781263e-01 7.153149e-01 7.578021e-01 7.960456e-01 8.288279e-01 8.467233e-01 8.543396e-01 8.429457e-01 8.228379e-01 7.861196e-01 7.480105e-01 7.026528e-01 6.677426e-01 6.405225e-01 6.341848e-01 6.455448e-01 6.744292e-01 7.153056e-01 7.589279e-01 8.022089e-01 8.356417e-01 8.594362e-01 8.675388e-01 8.618651e-01 8.415237e-01 8.089837e-01 7.695377e-01 7.259451e-01 6.889358e-01 6.608850e-01 6.525156e-01 6.608823e-01 6.889508e-01 7.259386e-01 7.695560e-01 8.089754e-01 8.415330e-01 8.618561e-01 8.675344e-01 8.594259e-01 8.356261e-01 8.021965e-01 7.589072e-01 7.152940e-01 6.744116e-01 6.455400e-01 
8.133050e-01 8.193760e-01 8.384742e-01 8.667015e-01 9.012550e-01 9.336129e-01 9.625853e-01 9.816635e-01 9.903173e-01 9.870433e-01 9.715501e-01 9.474562e-01 9.154708e-01 8.833426e-01 8.525152e-01 8.333711e-01 8.241690e-01 8.333849e-01 8.525461e-01 8.833729e-01 9.155075e-01 9.474851e-01 9.715666e-01 9.870579e-01 9.903038e-01 9.816564e-01 9.625494e-01 9.335867e-01 9.012145e-01 8.666706e-01 8.384500e-01 8.193618e-01 8.133120e-01 8.238746e-01 8.442132e-01 8.785375e-01 9.112368e-01 9.494340e-01 9.750879e-01 9.985437e-01 1.004004e+00 1.003075e+00 9.854575e-01 9.616777e-01 9.289837e-01 8.956362e-01 8.654633e-01 8.444086e-01 8.368570e-01 8.444159e-01 8.654984e-01 8.956498e-01 9.290273e-01 9.616859e-01 9.854808e-01 1.003071e+00 1.003995e+00 9.985226e-01 9.750514e-01 9.493998e-01 9.111899e-01 8.785039e-01 8.441773e-01 8.238606e-01 
1.015244e+00 1.017970e+00 1.037198e+00 1.059467e+00 1.093425e+00 1.120048e+00 1.149827e+00 1.164990e+00 1.176139e+00 1.171114e+00 1.159762e+00 1.136428e+00 1.110671e+00 1.081900e+00 1.058160e+00 1.041879e+00 1.035550e+00 1.041871e+00 1.058155e+00 1.081885e+00 1.110665e+00 1.136418e+00 1.159750e+00 1.171115e+00 1.176123e+00 1.164999e+00 1.149815e+00 1.120055e+00 1.093422e+00 1.059469e+00 1.037201e+00 1.017969e+00 1.015252e+00 1.022465e+00 1.042814e+00 1.071508e+00 1.103498e+00 1.136501e+00 1.162904e+00 1.182887e+00 1.190991e+00 1.188460e+00 1.175421e+00 1.152274e+00 1.126417e+00 1.096176e+00 1.073636e+00 1.055180e+00 1.050860e+00 1.055167e+00 1.073639e+00 1.096146e+00 1.126421e+00 1.152244e+00 1.175419e+00 1.188443e+00 1.190979e+00 1.182881e+00 1.162889e+00 1.136500e+00 1.103485e+00 1.071508e+00 1.042804e+00 1.022465e+00 
1.262246e+00 1.266561e+00 1.278692e+00 1.297798e+00 1.322168e+00 1.345559e+00 1.367693e+00 1.383731e+00 1.391988e+00 1.393458e+00 1.384474e+00 1.371211e+00 1.350381e+00 1.330263e+00 1.309117e+00 1.296987e+00 1.289078e+00 1.296998e+00 1.309147e+00 1.330282e+00 1.350417e+00 1.371229e+00 1.384484e+00 1.393468e+00 1.391962e+00 1.383721e+00 1.367646e+00 1.345529e+00 1.322125e+00 1.297764e+00 1.278671e+00 1.266545e+00 1.262255e+00 1.270850e+00 1.283697e+00 1.309560e+00 1.331606e+00 1.362185e+00 1.380741e+00 1.402425e+00 1.407720e+00 1.412133e+00 1.401861e+00 1.388821e+00 1.368422e+00 1.346709e+00 1.327169e+00 1.312754e+00 1.307042e+00 1.312757e+00 1.327204e+00 1.346710e+00 1.368466e+00 1.388816e+00 1.401879e+00 1.412122e+00 1.407699e+00 1.402400e+00 1.380692e+00 1.362148e+00 1.331554e+00 1.309525e+00 1.283659e+00 1.270836e+00 
1.543748e+00 1.544163e+00 1.560221e+00 1.575404e+00 1.604673e+00 1.624754e+00 1.652670e+00 1.666047e+00 1.679597e+00 1.678272e+00 1.673195e+00 1.657273e+00 1.640796e+00 1.620785e+00 1.606175e+00 1.596381e+00 1.591404e+00 1.596357e+00 1.606151e+00 1.620738e+00 1.640768e+00 1.657233e+00 1.673161e+00 1.678265e+00 1.679566e+00 1.666062e+00 1.652657e+00 1.624770e+00 1.604680e+00 1.575412e+00 1.560235e+00 1.544163e+00 1.543757e+00 1.548717e+00 1.565419e+00 1.587944e+00 1.614595e+00 1.642566e+00 1.666648e+00 1.686175e+00 1.696868e+00 1.698584e+00 1.692789e+00 1.676857e+00 1.661578e+00 1.639665e+00 1.627234e+00 1.614929e+00 1.612432e+00 1.614900e+00 1.627219e+00 1.639602e+00 1.661564e+00 1.676795e+00 1.692767e+00 1.698554e+00 1.696841e+00 1.686173e+00 1.666630e+00 1.642573e+00 1.614589e+00 1.587949e+00 1.565415e+00 1.548720e+00 
1.892745e+00 1.896820e+00 1.905422e+00 1.920631e+00 1.940587e+00 1.960467e+00 1.980582e+00 1.997889e+00 2.008324e+00 2.017582e+00 2.015508e+00 2.013689e+00 2.002257e+00 1.989890e+00 1.974002e+00 1.962480e+00 1.952253e+00 1.962489e+00 1.974031e+00 1.989889e+00 2.002293e+00 2.013689e+00 2.015503e+00 2.017587e+00 2.008270e+00 1.997872e+00 1.980515e+00 1.960424e+00 1.940537e+00 1.920585e+00 1.905401e+00 1.896800e+00 1.892756e+00 1.901315e+00 1.910109e+00 1.933232e+00 1.950008e+00 1.978883e+00 1.994765e+00 2.019322e+00 2.026950e+00 2.039780e+00 2.037520e+00 2.035625e+00 2.026053e+00 2.011606e+00 1.998265e+00 1.984259e+00 1.976504e+00 1.984259e+00 1.998298e+00 2.011584e+00 2.026098e+00 2.035597e+00 2.037527e+00 2.039761e+00 2.026902e+00 2.019291e+00 1.994693e+00 1.978833e+00 1.949944e+00 1.933186e+00 1.910069e+00 1.901297e+00 
2.291604e+00 2.290691e+00 2.307472e+00 2.320357e+00 2.352268e+00 2.371800e+00 2.405781e+00 2.422982e+00 2.444689e+00 2.450554e+00 2.452863e+00 2.442909e+00 2.432355e+00 2.415711e+00 2.407874e+00 2.402977e+00 2.396348e+00 2.402916e+00 2.407806e+00 2.415608e+00 2.432297e+00 2.442817e+00 2.452788e+00 2.450536e+00 2.444625e+00 2.423005e+00 2.405765e+00 2.371820e+00 2.352287e+00 2.320363e+00 2.307496e+00 2.290689e+00 2.291615e+00 2.295667e+00 2.312606e+00 2.334275e+00 2.362536e+00 2.392025e+00 2.421274e+00 2.446355e+00 2.465318e+00 2.474748e+00 2.477733e+00 2.467244e+00 2.459674e+00 2.440538e+00 2.435907e+00 2.428449e+00 2.424374e+00 2.428383e+00 2.435852e+00 2.440420e+00 2.459634e+00 2.467126e+00 2.477672e+00 2.474704e+00 2.465258e+00 2.446360e+00 2.421249e+00 2.392037e+00 2.362537e+00 2.334281e+00 2.312609e+00 2.295670e+00 
2.787840e+00 2.793504e+00 2.802018e+00 2.819393e+00 2.842390e+00 2.866517e+00 2.892812e+00 2.919104e+00 2.937201e+00 2.961227e+00 2.968238e+00 2.983029e+00 2.981814e+00 2.973467e+00 2.958488e+00 2.929131e+00 2.903975e+00 2.929143e+00 2.958493e+00 2.973406e+00 2.981844e+00 2.982985e+00 2.968199e+00 2.961230e+00 2.937088e+00 2.919073e+00 2.892709e+00 2.866443e+00 2.842330e+00 2.819323e+00 2.801998e+00 2.793476e+00 2.787853e+00 2.798484e+00 2.806600e+00 2.833586e+00 2.852118e+00 2.887789e+00 2.908657e+00 2.944461e+00 2.959775e+00 2.988071e+00 2.996541e+00 3.010479e+00 3.013246e+00 3.002074e+00 2.990681e+00 2.959072e+00 2.936040e+00 2.959074e+00 2.990692e+00 3.001987e+00 3.013288e+00 3.010400e+00 2.996516e+00 2.988045e+00 2.959669e+00 2.944415e+00 2.908547e+00 2.887712e+00 2.852040e+00 2.833518e+00 2.806556e+00 2.798458e+00 
3.353826e+00 3.353138e+00 3.375401e+00 3.392675e+00 3.437972e+00 3.466446e+00 3.520887e+00 3.552841e+00 3.596202e+00 3.619161e+00 3.635060e+00 3.631943e+00 3.620279e+00 3.594066e+00 3.588943e+00 3.587770e+00 3.571146e+00 3.587587e+00 3.588749e+00 3.593870e+00 3.620170e+00 3.631745e+00 3.634894e+00 3.619140e+00 3.596074e+00 3.552875e+00 3.520868e+00 3.466456e+00 3.438008e+00 3.392666e+00 3.375436e+00 3.353131e+00 3.353838e+00 3.358811e+00 3.380705e+00 3.408758e+00 3.448917e+00 3.490276e+00 3.538404e+00 3.580782e+00 3.621339e+00 3.648395e+00 3.667211e+00 3.662329e+00 3.656495e+00 3.626852e+00 3.626126e+00 3.623055e+00 3.608178e+00 3.622869e+00 3.625948e+00 3.626639e+00 3.656411e+00 3.662100e+00 3.667065e+00 3.648342e+00 3.621213e+00 3.580796e+00 3.538371e+00 3.490280e+00 3.448931e+00 3.408752e+00 3.380716e+00 3.358809e+00 
4.055223e+00 4.065465e+00 4.079391e+00 4.109274e+00 4.148587e+00 4.191500e+00 4.241384e+00 4.292717e+00 4.332004e+00 4.386161e+00 4.407370e+00 4.454701e+00 4.468946e+00 4.468938e+00 4.454590e+00 4.323883e+00 4.220426e+00 4.323945e+00 4.454463e+00 4.468657e+00 4.468961e+00 4.454567e+00 4.407238e+00 4.386189e+00 4.331771e+00 4.292647e+00 4.241234e+00 4.191363e+00 4.148521e+00 4.109166e+00 4.079374e+00 4.065427e+00 4.055238e+00 4.071101e+00 4.083966e+00 4.125668e+00 4.158729e+00 4.216837e+00 4.259183e+00 4.323650e+00 4.359746e+00 4.419204e+00 4.444494e+00 4.489168e+00 4.511086e+00 4.506885e+00 4.497605e+00 4.365827e+00 4.262585e+00 4.365878e+00 4.497481e+00 4.506573e+00 4.511115e+00 4.488990e+00 4.444383e+00 4.419198e+00 4.359521e+00 4.323568e+00 4.259022e+00 4.216702e+00 4.158640e+00 4.125564e+00 4.083921e+00 4.071064e+00 
4.850594e+00 4.853518e+00 4.888973e+00 4.923797e+00 5.001567e+00 5.057900e+00 5.161846e+00 5.231196e+00 5.328449e+00 5.393669e+00 5.448950e+00 5.467220e+00 5.436998e+00 5.349843e+00 5.309887e+00 5.326285e+00 5.285590e+00 5.325546e+00 5.309286e+00 5.349568e+00 5.436817e+00 5.466777e+00 5.448559e+00 5.393708e+00 5.328217e+00 5.231234e+00 5.161850e+00 5.057867e+00 5.001629e+00 4.923754e+00 4.889014e+00 4.853498e+00 4.850605e+00 4.860053e+00 4.894643e+00 4.942680e+00 5.013339e+00 5.086699e+00 5.181542e+00 5.265609e+00 5.359333e+00 5.429464e+00 5.491525e+00 5.505313e+00 5.485949e+00 5.393613e+00 5.359442e+00 5.376696e+00 5.335366e+00 5.375964e+00 5.358866e+00 5.393324e+00 5.485805e+00 5.504829e+00 5.491163e+00 5.429461e+00 5.359099e+00 5.265628e+00 5.181520e+00 5.086665e+00 5.013371e+00 4.942643e+00 4.894659e+00 4.860041e+00 
5.825407e+00 5.845445e+00 5.875675e+00 5.938894e+00 6.021146e+00 6.114101e+00 6.227925e+00 6.341422e+00 6.439222e+00 6.558046e+00 6.606668e+00 6.722374e+00 6.751275e+00 6.847786e+00 6.923537e+00 6.249824e+00 5.668830e+00 6.250448e+00 6.922882e+00 6.846585e+00 6.751343e+00 6.722181e+00 6.606247e+00 6.558202e+00 6.438771e+00 6.341233e+00 6.227751e+00 6.113852e+00 6.021088e+00 5.938740e+00 5.875661e+00 5.845397e+00 5.825421e+00 5.851700e+00 5.880281e+00 5.957696e+00 6.031527e+00 6.144735e+00 6.247314e+00 6.380512e+00 6.473139e+00 6.599797e+00 6.656505e+00 6.765557e+00 6.809224e+00 6.898252e+00 6.982399e+00 6.310929e+00 5.723504e+00 6.311539e+00 6.981740e+00 6.897023e+00 6.809308e+00 6.765300e+00 6.656120e+00 6.599914e+00 6.472695e+00 6.380321e+00 6.247119e+00 6.144496e+00 6.031439e+00 5.957547e+00 5.880238e+00 5.851652e+00 
6.919034e+00 6.932850e+00 6.996070e+00 7.077730e+00 7.224462e+00 7.351611e+00 7.566119e+00 7.721686e+00 7.944975e+00 8.103718e+00 8.290994e+00 8.409722e+00 8.398385e+00 8.225598e+00 7.927265e+00 7.944854e+00 7.993757e+00 7.941092e+00 7.923701e+00 8.224666e+00 8.398127e+00 8.408749e+00 8.290025e+00 8.104070e+00 7.944688e+00 7.721647e+00 7.566223e+00 7.351470e+00 7.224542e+00 7.077630e+00 6.996098e+00 6.932814e+00 6.919042e+00 6.940161e+00 7.002340e+00 7.099501e+00 7.236987e+00 7.386633e+00 7.587203e+00 7.765704e+00 7.982282e+00 8.148299e+00 8.349081e+00 8.457456e+00 8.466548e+00 8.287535e+00 7.999382e+00 8.020033e+00 8.063627e+00 8.016311e+00 7.995858e+00 8.286600e+00 8.466345e+00 8.456419e+00 8.348155e+00 8.148595e+00 7.981975e+00 7.765655e+00 7.587264e+00 7.386502e+00 7.237032e+00 7.099413e+00 7.002347e+00 6.940133e+00 
8.233723e+00 8.272173e+00 8.341757e+00 8.481522e+00 8.659741e+00 8.872219e+00 9.141659e+00 9.404823e+00 9.660495e+00 9.934684e+00 1.009806e+01 1.031580e+01 1.017130e+01 9.976629e+00 1.094116e+01 9.476189e+00 6.564562e+00 9.472858e+00 1.093944e+01 9.978459e+00 1.017231e+01 1.031659e+01 1.009662e+01 9.935014e+00 9.659890e+00 9.404265e+00 9.141564e+00 8.871821e+00 8.659699e+00 8.481338e+00 8.341736e+00 8.272124e+00 8.233732e+00 8.278549e+00 8.346418e+00 8.501756e+00 8.669866e+00 8.908517e+00 9.160842e+00 9.456524e+00 9.699714e+00 9.990819e+00 1.016635e+01 1.036904e+01 1.025364e+01 1.003472e+01 1.100051e+01 9.582147e+00 6.668328e+00 9.578879e+00 1.099882e+01 1.003653e+01 1.025466e+01 1.036971e+01 1.016497e+01 9.991109e+00 9.699099e+00 9.455988e+00 9.160707e+00 8.908142e+00 8.669788e+00 8.501580e+00 8.346372e+00 8.278497e+00 
9.679528e+00 9.718177e+00 9.839093e+00 1.003174e+01 1.031729e+01 1.061966e+01 1.107522e+01 1.142689e+01 1.191811e+01 1.227935e+01 1.290058e+01 1.320492e+01 1.369001e+01 1.533774e+01 1.446715e+01 7.802454e+00 3.286466e+00 7.798689e+00 1.445773e+01 1.532633e+01 1.368825e+01 1.320423e+01 1.289939e+01 1.227968e+01 1.191850e+01 1.142642e+01 1.107550e+01 1.061935e+01 1.031732e+01 1.003157e+01 9.839061e+00 9.718122e+00 9.679526e+00 9.725636e+00 9.846263e+00 1.005496e+01 1.033027e+01 1.066051e+01 1.109507e+01 1.148634e+01 1.195908e+01 1.233832e+01 1.298168e+01 1.326225e+01 1.378652e+01 1.541722e+01 1.456877e+01 7.905304e+00 3.346332e+00 7.901639e+00 1.455941e+01 1.540598e+01 1.378487e+01 1.326141e+01 1.298053e+01 1.233859e+01 1.195939e+01 1.148588e+01 1.109528e+01 1.066023e+01 1.033026e+01 1.005482e+01 9.846225e+00 9.725592e+00 
1.136480e+01 1.143484e+01 1.159382e+01 1.189618e+01 1.227316e+01 1.276252e+01 1.338086e+01 1.394339e+01 1.459973e+01 1.542147e+01 1.611580e+01 1.698298e+01 1.780633e+01 1.909055e+01 1.763526e+01 1.361428e+01 1.017503e+01 1.360325e+01 1.762245e+01 1.908655e+01 1.781029e+01 1.697889e+01 1.611612e+01 1.541854e+01 1.460055e+01 1.394203e+01 1.338096e+01 1.276208e+01 1.227308e+01 1.189601e+01 1.159375e+01 1.143481e+01 1.136480e+01 1.144000e+01 1.159847e+01 1.191410e+01 1.228218e+01 1.280045e+01 1.339635e+01 1.401431e+01 1.463428e+01 1.551383e+01 1.620694e+01 1.704551e+01 1.795934e+01 1.922343e+01 1.776111e+01 1.368484e+01 1.017578e+01 1.367394e+01 1.774825e+01 1.921932e+01 1.796319e+01 1.704127e+01 1.620729e+01 1.551094e+01 1.463500e+01 1.401302e+01 1.339638e+01 1.280004e+01 1.228206e+01 1.191395e+01 1.159840e+01 1.143995e+01 
1.314779e+01 1.323540e+01 1.347823e+01 1.390791e+01 1.446763e+01 1.520168e+01 1.614550e+01 1.679611e+01 1.815298e+01 1.911923e+01 2.028444e+01 2.015988e+01 1.988224e+01 2.091418e+01 2.019693e+01 1.867325e+01 1.907451e+01 1.867328e+01 2.019469e+01 2.091583e+01 1.988195e+01 2.015983e+01 2.028763e+01 1.911610e+01 1.815494e+01 1.679494e+01 1.614561e+01 1.520130e+01 1.446742e+01 1.390770e+01 1.347807e+01 1.323533e+01 1.314777e+01 1.324150e+01 1.348648e+01 1.392803e+01 1.448006e+01 1.524088e+01 1.615991e+01 1.687558e+01 1.818851e+01 1.921420e+01 2.038895e+01 2.026927e+01 2.009357e+01 2.109757e+01 2.036950e+01 1.881111e+01 1.909384e+01 1.881127e+01 2.036688e+01 2.109907e+01 2.009368e+01 2.026884e+01 2.039202e+01 1.921118e+01 1.819024e+01 1.687449e+01 1.615992e+01 1.524055e+01 1.447983e+01 1.392784e+01 1.348634e+01 1.324143e+01 
1.512083e+01 1.524498e+01 1.559957e+01 1.622060e+01 1.701224e+01 1.813703e+01 1.931270e+01 2.028854e+01 2.248400e+01 2.244244e+01 2.059135e+01 2.019585e+01 2.135440e+01 2.192913e+01 2.223566e+01 2.344269e+01 2.486801e+01 2.344045e+01 2.223361e+01 2.192308e+01 2.135084e+01 2.019800e+01 2.058933e+01 2.244045e+01 2.248429e+01 2.028797e+01 1.931241e+01 1.813692e+01 1.701192e+01 1.622049e+01 1.559938e+01 1.524494e+01 1.512080e+01 1.524655e+01 1.560377e+01 1.622771e+01 1.701742e+01 1.815819e+01 1.932371e+01 2.035975e+01 2.249861e+01 2.263596e+01 2.067879e+01 2.020816e+01 2.150562e+01 2.204972e+01 2.239471e+01 2.361431e+01 2.492703e+01 2.361277e+01 2.239218e+01 2.204423e+01 2.150243e+01 2.020929e+01 2.067694e+01 2.263403e+01 2.249871e+01 2.035925e+01 1.932333e+01 1.815812e+01 1.701708e+01 1.622761e+01 1.560361e+01 1.524650e+01 
1.704834e+01 1.722918e+01 1.772652e+01 1.861253e+01 1.974016e+01 2.143658e+01 2.273855e+01 2.462617e+01 2.461074e+01 1.916301e+01 1.876436e+01 2.159082e+01 2.265489e+01 2.371140e+01 2.667094e+01 2.796314e+01 2.806318e+01 2.795156e+01 2.666586e+01 2.370166e+01 2.265320e+01 2.159431e+01 1.876286e+01 1.916334e+01 2.460860e+01 2.462598e+01 2.273771e+01 2.143648e+01 1.973946e+01 1.861221e+01 1.772613e+01 1.722904e+01 1.704829e+01 1.723153e+01 1.773578e+01 1.862075e+01 1.974634e+01 2.144863e+01 2.273198e+01 2.467123e+01 2.467846e+01 1.924221e+01 1.866203e+01 2.146732e+01 2.268255e+01 2.359728e+01 2.665418e+01 2.814486e+01 2.804658e+01 2.813428e+01 2.664833e+01 2.358822e+01 2.268048e+01 2.146979e+01 1.866134e+01 1.924233e+01 2.467636e+01 2.467094e+01 2.273108e+01 2.144859e+01 1.974569e+01 1.862049e+01 1.773548e+01 1.723141e+01 
1.896385e+01 1.919589e+01 1.994504e+01 2.116227e+01 2.287262e+01 2.505663e+01 2.654643e+01 2.668039e+01 1.929813e+01 1.587270e+01 2.136673e+01 2.730708e+01 2.785289e+01 2.862433e+01 3.340236e+01 3.296932e+01 3.249401e+01 3.296580e+01 3.339717e+01 2.861447e+01 2.786100e+01 2.731049e+01 2.137123e+01 1.587416e+01 1.929587e+01 2.668103e+01 2.654499e+01 2.505687e+01 2.287182e+01 2.116199e+01 1.994462e+01 1.919575e+01 1.896378e+01 1.919197e+01 1.994870e+01 2.114648e+01 2.285799e+01 2.501611e+01 2.654282e+01 2.657331e+01 1.924252e+01 1.576833e+01 2.111954e+01 2.668587e+01 2.777917e+01 2.855160e+01 3.323567e+01 3.311635e+01 3.242162e+01 3.311358e+01 3.322953e+01 2.854242e+01 2.778584e+01 2.669005e+01 2.112503e+01 1.576870e+01 1.924070e+01 2.657372e+01 2.654131e+01 2.501640e+01 2.285725e+01 2.114624e+01 1.994839e+01 1.919184e+01 
2.049249e+01 2.085661e+01 2.186428e+01 2.356533e+01 2.596924e+01 2.862607e+01 2.900708e+01 2.303144e+01 1.536988e+01 2.050694e+01 2.640130e+01 2.465947e+01 2.735672e+01 3.218067e+01 3.459746e+01 3.834643e+01 3.861914e+01 3.835050e+01 3.458939e+01 3.217157e+01 2.735995e+01 2.466738e+01 2.640630e+01 2.050996e+01 1.537352e+01 2.303396e+01 2.900585e+01 2.862524e+01 2.596791e+01 2.356441e+01 2.186355e+01 2.085628e+01 2.049240e+01 2.085396e+01 2.187869e+01 2.355275e+01 2.594747e+01 2.858941e+01 2.882258e+01 2.273591e+01 1.493688e+01 2.006716e+01 2.595846e+01 2.432315e+01 2.719274e+01 3.238997e+01 3.446112e+01 3.833006e+01 3.864929e+01 3.833418e+01 3.445306e+01 3.238084e+01 2.719554e+01 2.433257e+01 2.596299e+01 2.006870e+01 1.494027e+01 2.273811e+01 2.882111e+01 2.858888e+01 2.594633e+01 2.355194e+01 2.187816e+01 2.085365e+01 
2.152640e+01 2.200014e+01 2.345768e+01 2.579229e+01 2.938777e+01 3.204184e+01 2.783432e+01 1.737202e+01 1.536366e+01 1.333632e+01 1.166076e+01 3.082434e+01 3.135130e+01 3.007390e+01 3.545349e+01 3.793259e+01 3.878366e+01 3.793616e+01 3.544901e+01 3.007186e+01 3.135090e+01 3.082233e+01 1.165785e+01 1.333319e+01 1.535906e+01 1.737343e+01 2.783489e+01 3.203995e+01 2.938638e+01 2.579095e+01 2.345677e+01 2.199967e+01 2.152627e+01 2.199735e+01 2.347578e+01 2.575488e+01 2.929648e+01 3.198714e+01 2.751817e+01 1.693024e+01 1.447562e+01 1.260905e+01 1.173334e+01 3.030024e+01 3.130169e+01 3.023210e+01 3.537446e+01 3.787582e+01 3.888803e+01 3.787894e+01 3.537056e+01 3.022959e+01 3.130145e+01 3.029865e+01 1.172889e+01 1.260609e+01 1.447055e+01 1.693172e+01 2.751830e+01 3.198579e+01 2.929538e+01 2.575365e+01 2.347513e+01 2.199691e+01 
2.155846e+01 2.232767e+01 2.421804e+01 2.757134e+01 3.233587e+01 3.222937e+01 2.260503e+01 1.622777e+01 9.972835e+00 2.902600e+01 4.942827e+01 4.341664e+01 2.819753e+01 3.368143e+01 3.406098e+01 3.169879e+01 3.214238e+01 3.170255e+01 3.406089e+01 3.368124e+01 2.819687e+01 4.342144e+01 4.942943e+01 2.902141e+01 9.989247e+00 1.623390e+01 2.260118e+01 3.222385e+01 3.233253e+01 2.756872e+01 2.421653e+01 2.232693e+01 2.155833e+01 2.232983e+01 2.427522e+01 2.751853e+01 3.244611e+01 3.223892e+01 2.187616e+01 1.559620e+01 1.043414e+01 2.919114e+01 4.910037e+01 4.347572e+01 2.812326e+01 3.369725e+01 3.406217e+01 3.168156e+01 3.222186e+01 3.168498e+01 3.406230e+01 3.369679e+01 2.812254e+01 4.348010e+01 4.910102e+01 2.918661e+01 1.044876e+01 1.560083e+01 2.187186e+01 3.223511e+01 3.244358e+01 2.751609e+01 2.427406e+01 2.232906e+01 
2.029724e+01 2.131291e+01 2.372689e+01 2.839101e+01 3.284463e+01 3.000627e+01 2.593117e+01 2.517939e+01 4.022711e+01 5.814448e+01 5.709525e+01 3.639536e+01 2.870104e+01 3.268646e+01 2.678893e+01 2.475378e+01 2.453575e+01 2.475611e+01 2.678909e+01 3.268936e+01 2.870139e+01 3.639582e+01 5.709898e+01 5.813299e+01 4.020686e+01 2.515695e+01 2.591273e+01 3.000221e+01 3.283991e+01 2.838704e+01 2.372444e+01 2.131175e+01 2.029706e+01 2.135501e+01 2.387020e+01 2.840634e+01 3.330045e+01 2.909901e+01 2.579136e+01 2.617304e+01 3.998922e+01 5.811705e+01 5.701202e+01 3.650495e+01 2.862857e+01 3.277354e+01 2.677094e+01 2.472901e+01 2.455336e+01 2.473108e+01 2.677131e+01 3.277624e+01 2.862881e+01 3.650584e+01 5.701517e+01 5.810571e+01 3.996995e+01 2.615316e+01 2.577533e+01 2.909658e+01 3.329666e+01 2.840254e+01 2.386823e+01 2.135385e+01 
1.726028e+01 1.881178e+01 2.168618e+01 2.805143e+01 3.124453e+01 3.364755e+01 3.390545e+01 3.798159e+01 5.185340e+01 5.622254e+01 4.356163e+01 2.863508e+01 2.859828e+01 2.578715e+01 2.009506e+01 1.809680e+01 1.723741e+01 1.809879e+01 2.009607e+01 2.578973e+01 2.860177e+01 2.863516e+01 4.356404e+01 5.621847e+01 5.183947e+01 3.794842e+01 3.388194e+01 3.364818e+01 3.124283e+01 2.804840e+01 2.168352e+01 1.881063e+01 1.726021e+01 1.890426e+01 2.179170e+01 2.819095e+01 3.133545e+01 3.212605e+01 3.527640e+01 3.899302e+01 5.111693e+01 5.601731e+01 4.348186e+01 2.869056e+01 2.852238e+01 2.583879e+01 2.003465e+01 1.807707e+01 1.722334e+01 1.807886e+01 2.003568e+01 2.584119e+01 2.852562e+01 2.869080e+01 4.348412e+01 5.601350e+01 5.110332e+01 3.896285e+01 3.525265e+01 3.212560e+01 3.133378e+01 2.818722e+01 2.178917e+01 1.890279e+01 
1.263616e+01 1.448755e+01 1.877537e+01 2.539183e+01 3.242762e+01 3.890674e+01 3.847555e+01 4.185330e+01 4.753514e+01 4.200297e+01 2.653073e+01 2.371422e+01 2.423257e+01 1.902499e+01 1.484669e+01 1.216389e+01 1.078631e+01 1.216557e+01 1.484843e+01 1.902679e+01 2.423652e+01 2.371683e+01 2.653260e+01 4.200734e+01 4.754348e+01 4.185189e+01 3.847430e+01 3.891009e+01 3.242587e+01 2.538805e+01 1.877159e+01 1.448571e+01 1.263602e+01 1.472917e+01 1.892070e+01 2.610506e+01 3.187916e+01 3.696341e+01 4.036098e+01 4.309552e+01 4.642727e+01 4.176982e+01 2.637008e+01 2.361123e+01 2.418179e+01 1.901485e+01 1.478822e+01 1.214656e+01 1.075787e+01 1.214806e+01 1.478997e+01 1.901645e+01 2.418557e+01 2.361364e+01 2.637149e+01 4.177397e+01 4.643374e+01 4.309374e+01 4.035661e+01 3.696319e+01 3.187749e+01 2.610086e+01 1.891716e+01 1.472719e+01 
6.671665e+00 9.335991e+00 1.549883e+01 2.285459e+01 3.246946e+01 3.869950e+01 4.423572e+01 4.518780e+01 3.933101e+01 2.591638e+01 1.279155e+01 1.869815e+01 1.900029e+01 1.491502e+01 1.138515e+01 7.376415e+00 5.162613e+00 7.378370e+00 1.138765e+01 1.491655e+01 1.900316e+01 1.869994e+01 1.279025e+01 2.592054e+01 3.934148e+01 4.520613e+01 4.425395e+01 3.869988e+01 3.246291e+01 2.284798e+01 1.549383e+01 9.332884e+00 6.671702e+00 9.764135e+00 1.611264e+01 2.397227e+01 3.419513e+01 3.957197e+01 4.158260e+01 4.294683e+01 3.815300e+01 2.545502e+01 1.261668e+01 1.839848e+01 1.895250e+01 1.482909e+01 1.134256e+01 7.357735e+00 5.138858e+00 7.359461e+00 1.134500e+01 1.483038e+01 1.895525e+01 1.840000e+01 1.261530e+01 2.545913e+01 3.816186e+01 4.296239e+01 4.159805e+01 3.957089e+01 3.418840e+01 2.396606e+01 1.610768e+01 9.760978e+00 
2.884995e-01 6.432842e+00 1.376601e+01 2.212503e+01 3.112250e+01 3.577654e+01 4.866562e+01 4.865791e+01 3.382217e+01 1.721800e+01 7.285032e+00 1.594475e+01 1.684709e+01 1.366173e+01 1.006432e+01 5.159391e+00 1.234864e-03 5.161900e+00 1.006703e+01 1.366337e+01 1.684947e+01 1.594555e+01 7.283369e+00 1.722125e+01 3.382726e+01 4.868184e+01 4.868867e+01 3.577172e+01 3.111280e+01 2.211669e+01 1.376035e+01 6.428156e+00 2.929259e-01 6.905810e+00 1.484453e+01 2.318007e+01 3.516586e+01 4.035361e+01 4.159116e+01 4.276230e+01 3.398481e+01 1.617656e+01 7.113949e+00 1.547556e+01 1.680712e+01 1.353575e+01 1.004251e+01 5.137098e+00 1.421256e-03 5.139320e+00 1.004516e+01 1.353710e+01 1.680938e+01 1.547588e+01 7.112085e+00 1.617880e+01 3.399077e+01 4.278131e+01 4.161086e+01 4.035059e+01 3.515510e+01 2.317241e+01 1.483853e+01 6.901259e+00 
6.668216e+00 9.311621e+00 1.542174e+01 2.273147e+01 3.210724e+01 3.840493e+01 4.466219e+01 4.540171e+01 3.925966e+01 2.595209e+01 1.278032e+01 1.870804e+01 1.899769e+01 1.491594e+01 1.138307e+01 7.375131e+00 5.158678e+00 7.377087e+00 1.138557e+01 1.491747e+01 1.900055e+01 1.870984e+01 1.277901e+01 2.595627e+01 3.927009e+01 4.542018e+01 4.468051e+01 3.840524e+01 3.210079e+01 2.272487e+01 1.541677e+01 9.308528e+00 6.668273e+00 9.766904e+00 1.611565e+01 2.397198e+01 3.419469e+01 3.957106e+01 4.158496e+01 4.294514e+01 3.815393e+01 2.545599e+01 1.261620e+01 1.839813e+01 1.895265e+01 1.482889e+01 1.134216e+01 7.357604e+00 5.137560e+00 7.359331e+00 1.134459e+01 1.483017e+01 1.895541e+01 1.839965e+01 1.261483e+01 2.546010e+01 3.816279e+01 4.296071e+01 4.160043e+01 3.957000e+01 3.418797e+01 2.396577e+01 1.611069e+01 9.763745e+00 
1.263952e+01 1.448277e+01 1.876739e+01 2.534418e+01 3.239270e+01 3.899818e+01 3.853034e+01 4.182772e+01 4.755862e+01 4.198891e+01 2.653884e+01 2.371488e+01 2.423468e+01 1.902677e+01 1.484793e+01 1.216594e+01 1.078663e+01 1.216762e+01 1.484967e+01 1.902856e+01 2.423863e+01 2.371749e+01 2.654071e+01 4.199327e+01 4.756701e+01 4.182630e+01 3.852913e+01 3.900159e+01 3.239093e+01 2.534037e+01 1.876359e+01 1.448092e+01 1.263937e+01 1.473114e+01 1.892363e+01 2.610696e+01 3.188257e+01 3.696051e+01 4.035123e+01 4.309313e+01 4.642446e+01 4.176661e+01 2.637152e+01 2.361102e+01 2.418189e+01 1.901446e+01 1.478734e+01 1.214606e+01 1.075616e+01 1.214756e+01 1.478909e+01 1.901606e+01 2.418567e+01 2.361344e+01 2.637294e+01 4.177075e+01 4.643093e+01 4.309134e+01 4.034684e+01 3.696029e+01 3.188091e+01 2.610276e+01 1.892010e+01 1.472917e+01 