# vtk DataFile Version 2.0
Comment goes here
ASCII

DATASET STRUCTURED_POINTS
DIMENSIONS    64   64   1

ORIGIN    0.000   0.000   0.000
SPACING   0.031250.03125   1.000

POINT_DATA   4096
SCALARS uMag double
LOOKUP_TABLE default

4.135864e+00 3.570715e+00 4.043039e+00 3.852563e+00 3.835855e+00 3.797426e+00 3.546509e+00 3.265169e+00 3.222530e+00 2.276598e+00 3.027881e+00 1.370444e+00 3.266027e+00 1.498690e+00 3.798201e+00 2.291185e+00 4.308291e+00 3.079446e+00 4.703956e+00 3.732504e+00 5.029857e+00 4.229368e+00 5.249172e+00 4.543016e+00 5.264335e+00 4.638601e+00 5.016764e+00 4.515683e+00 4.530057e+00 4.220625e+00 3.878541e+00 3.822149e+00 3.148831e+00 3.381040e+00 2.420867e+00 2.937245e+00 1.770685e+00 2.512326e+00 1.293200e+00 2.116036e+00 1.112818e+00 1.750839e+00 1.246791e+00 1.413741e+00 1.540955e+00 1.096904e+00 1.876822e+00 7.890621e-01 2.212643e+00 4.822874e-01 2.539330e+00 2.326443e-01 2.857468e+00 4.043436e-01 3.167930e+00 8.329238e-01 3.466265e+00 1.347242e+00 3.738815e+00 1.918313e+00 3.961642e+00 2.515399e+00 4.103785e+00 3.090336e+00 
3.298623e+00 6.264786e+00 4.091118e+00 6.814068e+00 4.625772e+00 7.065150e+00 4.710598e+00 6.750719e+00 4.324234e+00 5.702171e+00 3.818572e+00 4.318812e+00 3.338261e+00 2.912754e+00 2.911716e+00 1.643364e+00 2.505807e+00 7.735754e-01 2.080513e+00 9.339512e-01 1.602310e+00 1.459486e+00 1.041193e+00 1.837071e+00 3.988957e-01 2.040504e+00 3.150891e-01 2.117769e+00 1.018620e+00 2.122250e+00 1.682526e+00 2.084876e+00 2.258121e+00 2.010522e+00 2.714403e+00 1.891686e+00 3.036789e+00 1.723797e+00 3.223355e+00 1.516615e+00 3.280544e+00 1.304600e+00 3.220184e+00 1.157898e+00 3.057264e+00 1.168489e+00 2.807607e+00 1.372072e+00 2.485800e+00 1.718855e+00 2.105237e+00 2.148838e+00 1.683464e+00 2.628385e+00 1.261499e+00 3.144743e+00 9.724068e-01 3.697506e+00 1.096879e+00 4.292006e+00 1.657279e+00 4.931208e+00 2.439314e+00 5.603487e+00 
3.391617e+00 2.788646e+00 3.302133e+00 3.290642e+00 3.266080e+00 3.654687e+00 3.378707e+00 3.580846e+00 3.555659e+00 2.799733e+00 3.372690e+00 1.988460e+00 3.193905e+00 1.731004e+00 3.294302e+00 2.006987e+00 3.594773e+00 2.590445e+00 4.003457e+00 3.229854e+00 4.461086e+00 3.729893e+00 4.871463e+00 4.017023e+00 5.100677e+00 4.087724e+00 5.051695e+00 3.969063e+00 4.715854e+00 3.712765e+00 4.157607e+00 3.383968e+00 3.474930e+00 3.034598e+00 2.767764e+00 2.694268e+00 2.131753e+00 2.376434e+00 1.668181e+00 2.085272e+00 1.471288e+00 1.819069e+00 1.540532e+00 1.572079e+00 1.761554e+00 1.336535e+00 2.030614e+00 1.105231e+00 2.299948e+00 8.755790e-01 2.553674e+00 6.610543e-01 2.787617e+00 5.293666e-01 3.000141e+00 6.148663e-01 3.186417e+00 9.124629e-01 3.334695e+00 1.319013e+00 3.426853e+00 1.780356e+00 3.445883e+00 2.274184e+00 
3.827579e+00 6.265194e+00 4.589842e+00 6.858322e+00 4.965820e+00 7.193619e+00 4.610043e+00 6.804074e+00 3.434344e+00 5.048562e+00 2.478098e+00 3.181252e+00 1.999340e+00 1.659933e+00 1.989686e+00 6.074884e-01 2.033774e+00 9.214114e-01 1.883403e+00 1.600601e+00 1.507126e+00 1.991997e+00 9.572885e-01 2.071681e+00 3.327864e-01 1.965195e+00 3.217023e-01 1.851616e+00 9.714259e-01 1.838654e+00 1.586143e+00 1.904734e+00 2.122551e+00 1.975191e+00 2.548803e+00 1.997058e+00 2.850637e+00 1.949879e+00 3.026091e+00 1.840135e+00 3.079978e+00 1.699897e+00 3.021738e+00 1.586547e+00 2.864711e+00 1.570209e+00 2.624551e+00 1.696683e+00 2.317030e+00 1.960046e+00 1.959512e+00 2.325948e+00 1.583533e+00 2.763266e+00 1.268275e+00 3.252460e+00 1.191187e+00 3.783991e+00 1.508897e+00 4.355189e+00 2.142367e+00 4.965751e+00 2.954855e+00 5.610335e+00 
2.725372e+00 2.066215e+00 2.534497e+00 2.872360e+00 2.592109e+00 3.937293e+00 3.307604e+00 4.678213e+00 4.751792e+00 3.761809e+00 4.693853e+00 2.912537e+00 4.084875e+00 2.514965e+00 3.646221e+00 2.141139e+00 3.457600e+00 2.309271e+00 3.624390e+00 2.969568e+00 4.113130e+00 3.523086e+00 4.756857e+00 3.787994e+00 5.266906e+00 3.803087e+00 5.417201e+00 3.627570e+00 5.162956e+00 3.336025e+00 4.599426e+00 3.016076e+00 3.873599e+00 2.717113e+00 3.120672e+00 2.453337e+00 2.460343e+00 2.226600e+00 2.006225e+00 2.034665e+00 1.832972e+00 1.870236e+00 1.900914e+00 1.721587e+00 2.088678e+00 1.576957e+00 2.303295e+00 1.429242e+00 2.504794e+00 1.277187e+00 2.680305e+00 1.123659e+00 2.825511e+00 9.808174e-01 2.939796e+00 8.831786e-01 3.020760e+00 8.831458e-01 3.057793e+00 1.005081e+00 3.030584e+00 1.228894e+00 2.918290e+00 1.556585e+00 
4.452696e+00 6.387588e+00 5.428068e+00 7.224015e+00 5.961340e+00 8.067592e+00 5.304605e+00 8.240416e+00 2.944166e+00 4.853539e+00 1.284379e+00 2.470504e+00 5.825211e-01 1.291157e+00 1.856937e+00 1.500785e+00 2.528311e+00 2.281476e+00 2.435515e+00 2.920464e+00 1.869704e+00 3.057299e+00 1.061324e+00 2.674003e+00 3.183590e-01 2.067000e+00 4.374130e-01 1.725055e+00 1.075778e+00 1.862155e+00 1.667602e+00 2.167804e+00 2.168530e+00 2.407326e+00 2.553889e+00 2.522908e+00 2.818890e+00 2.513755e+00 2.966465e+00 2.400849e+00 3.000613e+00 2.225725e+00 2.927922e+00 2.051736e+00 2.761057e+00 1.953960e+00 2.518475e+00 1.988983e+00 2.219656e+00 2.167502e+00 1.885632e+00 2.468361e+00 1.562383e+00 2.863431e+00 1.358324e+00 3.326120e+00 1.434606e+00 3.837209e+00 1.852347e+00 4.389042e+00 2.541515e+00 4.986659e+00 3.433153e+00 5.645750e+00 
2.170011e+00 1.297655e+00 1.635923e+00 2.284883e+00 1.460081e+00 4.581766e+00 2.973708e+00 7.621983e+00 7.864448e+00 5.472767e+00 7.449462e+00 4.386477e+00 5.885286e+00 4.041487e+00 4.806590e+00 2.710254e+00 3.935889e+00 2.179575e+00 3.608714e+00 3.088994e+00 3.977350e+00 3.791704e+00 4.983948e+00 3.973119e+00 5.929908e+00 3.842570e+00 6.277055e+00 3.495834e+00 5.971586e+00 3.058447e+00 5.246027e+00 2.685847e+00 4.358654e+00 2.409843e+00 3.482169e+00 2.206000e+00 2.755188e+00 2.060242e+00 2.306505e+00 1.967049e+00 2.188157e+00 1.912200e+00 2.299912e+00 1.871675e+00 2.488061e+00 1.823902e+00 2.664092e+00 1.761143e+00 2.804661e+00 1.688567e+00 2.907983e+00 1.607887e+00 2.970093e+00 1.516195e+00 2.993703e+00 1.424014e+00 2.983847e+00 1.355055e+00 2.933685e+00 1.319135e+00 2.813955e+00 1.283610e+00 2.574977e+00 1.209914e+00 
5.119609e+00 6.533673e+00 6.657607e+00 7.770706e+00 8.013120e+00 9.747934e+00 7.859226e+00 1.313836e+01 5.185482e+00 5.396546e+00 2.965976e+00 4.497155e+00 1.285763e+00 3.198304e+00 3.220622e+00 3.290479e+00 4.383494e+00 4.063741e+00 3.848916e+00 4.891610e+00 2.689023e+00 4.832745e+00 1.241900e+00 3.787967e+00 3.830476e-01 2.362669e+00 7.558602e-01 1.804236e+00 1.401410e+00 2.371441e+00 1.959369e+00 2.939609e+00 2.402152e+00 3.266737e+00 2.721785e+00 3.384942e+00 2.929328e+00 3.325923e+00 3.033591e+00 3.122828e+00 3.034169e+00 2.828756e+00 2.930869e+00 2.523526e+00 2.735985e+00 2.301443e+00 2.476859e+00 2.230725e+00 2.181404e+00 2.320106e+00 1.866794e+00 2.554298e+00 1.588302e+00 2.913004e+00 1.476858e+00 3.358515e+00 1.654769e+00 3.854461e+00 2.119090e+00 4.385644e+00 2.833207e+00 4.968368e+00 3.820773e+00 5.654253e+00 
2.025256e+00 1.396936e+00 1.108849e+00 9.082836e-01 6.926990e-01 4.913831e+00 2.520513e+00 1.609811e+01 1.578887e+01 8.911799e+00 1.270527e+01 6.986437e+00 8.718780e+00 7.122328e+00 6.541691e+00 3.552408e+00 4.878211e+00 2.161283e+00 4.058389e+00 3.965060e+00 4.024141e+00 4.886815e+00 5.750762e+00 4.735174e+00 7.469779e+00 4.284659e+00 7.939076e+00 3.545578e+00 7.254699e+00 2.789116e+00 6.103606e+00 2.335866e+00 4.917934e+00 2.096533e+00 3.840117e+00 1.948715e+00 3.005817e+00 1.873540e+00 2.569604e+00 1.881995e+00 2.550364e+00 1.952158e+00 2.749808e+00 2.034496e+00 2.960623e+00 2.087124e+00 3.099876e+00 2.103143e+00 3.178978e+00 2.110359e+00 3.221033e+00 2.114812e+00 3.210412e+00 2.092772e+00 3.152003e+00 2.050166e+00 3.068929e+00 2.027355e+00 2.971599e+00 2.055876e+00 2.829725e+00 2.091908e+00 2.558419e+00 1.972612e+00 
5.584248e+00 6.552589e+00 8.061169e+00 8.180868e+00 1.139993e+01 1.140446e+01 1.500717e+01 2.806377e+01 1.553636e+01 8.467690e+00 8.019816e+00 1.298483e+01 2.936064e+00 6.025400e+00 6.503924e+00 4.985822e+00 8.047030e+00 6.124798e+00 6.065320e+00 7.841504e+00 3.899803e+00 7.770545e+00 1.267389e+00 5.672643e+00 7.976990e-01 2.816050e+00 1.478569e+00 2.441626e+00 2.093075e+00 3.641211e+00 2.498053e+00 4.253537e+00 2.811695e+00 4.504382e+00 3.026660e+00 4.530365e+00 3.158648e+00 4.348345e+00 3.213073e+00 3.979565e+00 3.174055e+00 3.484898e+00 3.024683e+00 2.973543e+00 2.775806e+00 2.583578e+00 2.479478e+00 2.402660e+00 2.189049e+00 2.399373e+00 1.888361e+00 2.560106e+00 1.629691e+00 2.898237e+00 1.591943e+00 3.351309e+00 1.853421e+00 3.843573e+00 2.323496e+00 4.340216e+00 2.978482e+00 4.870915e+00 3.973335e+00 5.545105e+00 
2.686071e+00 3.663483e+00 2.297868e+00 2.599216e+00 3.638669e+00 2.479680e+00 9.194626e+00 4.133341e+01 3.477028e+01 1.912414e+01 2.314653e+01 1.136449e+01 1.605226e+01 1.392103e+01 7.961411e+00 4.014161e+00 6.055968e+00 3.199242e+00 5.433895e+00 6.336670e+00 4.161626e+00 7.340710e+00 7.522322e+00 6.229992e+00 1.075511e+01 5.214996e+00 1.096497e+01 3.582315e+00 9.019192e+00 2.285883e+00 7.077632e+00 1.897371e+00 5.511971e+00 1.803192e+00 4.173228e+00 1.701090e+00 3.193170e+00 1.661130e+00 2.798970e+00 1.774093e+00 2.955552e+00 2.000328e+00 3.297979e+00 2.232637e+00 3.540700e+00 2.386257e+00 3.612557e+00 2.453946e+00 3.604446e+00 2.535236e+00 3.608523e+00 2.652161e+00 3.538596e+00 2.708857e+00 3.393927e+00 2.703684e+00 3.237926e+00 2.729296e+00 3.129296e+00 2.903045e+00 3.069952e+00 3.248600e+00 2.973188e+00 3.620251e+00 
5.315668e+00 6.301270e+00 8.752012e+00 8.431176e+00 1.465919e+01 1.086946e+01 2.440447e+01 6.706087e+01 3.813933e+01 1.640301e+01 1.987477e+01 3.413090e+01 1.023295e+00 1.077950e+01 1.344028e+01 4.546969e+00 1.481945e+01 8.477176e+00 8.852182e+00 1.246030e+01 5.545633e+00 1.295006e+01 1.437490e+00 8.979945e+00 1.932282e+00 3.245486e+00 3.141379e+00 4.734838e+00 3.394986e+00 6.075291e+00 3.251037e+00 6.101702e+00 3.323100e+00 6.069320e+00 3.405324e+00 5.940431e+00 3.470022e+00 5.585954e+00 3.493815e+00 4.978571e+00 3.428142e+00 4.181888e+00 3.220062e+00 3.357215e+00 2.869461e+00 2.745507e+00 2.490960e+00 2.490677e+00 2.238115e+00 2.393115e+00 1.955350e+00 2.446611e+00 1.652663e+00 2.803354e+00 1.679148e+00 3.322341e+00 2.069123e+00 3.837255e+00 2.546280e+00 4.270352e+00 3.002415e+00 4.652878e+00 3.692884e+00 5.184567e+00 
4.095228e+00 7.230429e+00 4.387464e+00 8.440874e+00 4.069725e+00 4.068360e+00 1.687185e+01 9.411038e+01 5.016661e+01 4.611343e+01 3.797882e+01 6.263958e+01 4.345864e+01 2.433876e+01 3.269751e+00 7.172964e+00 8.228701e+00 8.468756e+00 8.985691e+00 1.210188e+01 4.309909e+00 1.187118e+01 1.157524e+01 8.952030e+00 1.803708e+01 6.754801e+00 1.629465e+01 2.984054e+00 1.071719e+01 1.310175e+00 7.987310e+00 1.453124e+00 6.136725e+00 1.705914e+00 4.463049e+00 1.523785e+00 3.284332e+00 1.397184e+00 3.005303e+00 1.630134e+00 3.477551e+00 2.082789e+00 4.043602e+00 2.519885e+00 4.310370e+00 2.772863e+00 4.211486e+00 2.800026e+00 4.019226e+00 2.924958e+00 4.080087e+00 3.247722e+00 3.976498e+00 3.400791e+00 3.705227e+00 3.369611e+00 3.420921e+00 3.345756e+00 3.282506e+00 3.630644e+00 3.388458e+00 4.422055e+00 3.709023e+00 5.673603e+00 
3.610493e+00 5.485644e+00 7.254071e+00 9.483105e+00 1.392153e+01 1.538252e+01 3.641371e+01 1.102495e+02 4.782373e+01 1.716240e+01 1.182007e+01 7.615483e+01 5.864921e+01 2.061846e+01 2.477991e+01 2.304675e+00 2.557495e+01 1.276061e+01 1.240158e+01 1.982786e+01 7.815711e+00 2.291650e+01 4.649368e+00 1.541500e+01 4.346456e+00 4.181110e+00 7.572461e+00 1.147171e+01 5.514807e+00 9.903608e+00 4.050659e+00 8.160879e+00 3.764259e+00 7.852212e+00 3.753793e+00 7.615846e+00 3.829950e+00 7.087918e+00 3.889329e+00 6.169445e+00 3.847591e+00 4.923105e+00 3.582896e+00 3.592663e+00 3.031673e+00 2.664453e+00 2.422135e+00 2.527897e+00 2.349088e+00 2.320789e+00 2.140455e+00 2.120201e+00 1.603389e+00 2.617324e+00 1.680899e+00 3.328890e+00 2.366753e+00 3.918783e+00 2.993026e+00 4.261499e+00 3.222458e+00 4.339688e+00 3.057834e+00 4.377351e+00 
6.103536e+00 1.126137e+01 8.236924e+00 1.394264e+01 2.630730e+00 1.501238e+01 5.090987e+01 1.105679e+02 1.628003e+01 3.035812e+01 4.442045e+01 8.167427e+01 2.848232e+01 1.657827e+01 1.251971e+01 2.178618e+01 1.370364e+01 2.002074e+01 1.208182e+01 2.804237e+01 7.350635e+00 2.145247e+01 2.375669e+01 1.709002e+01 3.605592e+01 6.880803e+00 2.397173e+01 7.330295e+00 1.072202e+01 2.411095e+00 9.416043e+00 1.967070e+00 6.886923e+00 2.269477e+00 4.669036e+00 1.493639e+00 3.206589e+00 9.728710e-01 3.216856e+00 1.482571e+00 4.264075e+00 2.299681e+00 5.182596e+00 3.036966e+00 5.453331e+00 3.407623e+00 4.917075e+00 3.116702e+00 4.180646e+00 3.121163e+00 4.738129e+00 3.999073e+00 4.641069e+00 4.298796e+00 4.119009e+00 4.112835e+00 3.541137e+00 3.786439e+00 3.217780e+00 3.952059e+00 3.467083e+00 5.223785e+00 4.438903e+00 7.653738e+00 
9.260246e-01 2.652983e+00 4.856479e+00 8.078996e+00 1.247916e+01 3.669240e+01 6.424436e+01 1.044972e+02 5.430854e+01 3.980456e+01 5.086643e+01 8.571685e+01 6.633886e+01 3.829011e+01 6.317651e+01 1.454009e+01 3.039808e+01 1.276817e+01 1.848811e+01 4.204192e+01 1.239810e+01 4.161141e+01 1.639556e+01 2.921980e+01 1.612429e+01 2.300528e+01 1.772746e+01 2.751392e+01 8.950854e+00 1.276141e+01 5.939527e+00 9.692764e+00 3.973329e+00 9.769084e+00 4.048821e+00 9.611638e+00 4.308304e+00 9.002860e+00 4.498289e+00 7.696794e+00 4.588582e+00 5.775808e+00 4.337729e+00 3.555547e+00 3.438383e+00 2.020803e+00 2.051523e+00 2.845872e+00 2.674889e+00 2.405107e+00 2.740146e+00 1.322321e+00 1.436257e+00 2.458043e+00 1.448938e+00 3.549163e+00 2.821384e+00 4.261258e+00 3.960221e+00 4.541617e+00 4.405634e+00 4.302953e+00 3.684657e+00 3.286242e+00 
8.304796e+00 1.715278e+01 1.467772e+01 2.434821e+01 8.479731e+00 1.166742e+01 6.628178e+01 7.863479e+01 4.747508e+01 2.388844e+01 1.232188e+01 6.967641e+01 1.205812e+02 1.059894e+02 7.934887e+01 6.248891e+01 1.150346e+01 2.483381e+01 4.292725e+01 4.991196e+01 1.772860e+01 6.110350e+01 5.682430e+01 1.907524e+01 1.012876e+02 2.077884e+01 1.652733e+01 2.570554e+01 1.870751e+01 1.959291e+00 1.351983e+01 6.467844e+00 7.258116e+00 4.109707e+00 4.829175e+00 1.655133e+00 2.801958e+00 4.083128e-01 3.534797e+00 1.857471e+00 5.619084e+00 3.025551e+00 7.111497e+00 4.154025e+00 7.425144e+00 4.800196e+00 5.972232e+00 3.712651e+00 3.187831e+00 2.686918e+00 6.125385e+00 5.288686e+00 5.896604e+00 5.767836e+00 4.814142e+00 5.228213e+00 3.642502e+00 4.168351e+00 2.716966e+00 3.543273e+00 2.796962e+00 5.163849e+00 4.545599e+00 9.370169e+00 
8.129388e+00 5.280383e+00 1.059757e+01 1.204753e+01 1.433249e+01 3.985820e+01 4.080851e+01 7.203243e+01 8.391810e+01 6.582336e+01 9.808294e+00 1.704029e+02 1.336540e+02 1.381591e+01 6.069026e+01 7.538741e+01 8.075535e+01 5.354086e+01 5.120215e+01 9.198171e+01 2.856899e+01 1.072149e+02 1.062365e+02 9.896557e+01 1.345902e+02 1.233335e+02 5.273905e+01 3.256634e+01 2.156852e+01 1.424138e+01 1.030336e+01 1.187002e+01 4.645935e+00 1.159692e+01 5.226193e+00 1.223066e+01 5.494205e+00 1.177450e+01 5.668629e+00 9.923096e+00 6.028471e+00 7.057635e+00 6.088424e+00 3.455805e+00 5.019122e+00 3.950195e-01 2.206359e+00 4.916671e+00 4.808168e+00 4.120713e+00 4.467781e+00 1.363558e+00 1.934608e+00 3.273112e+00 1.054429e+00 4.499112e+00 3.623867e+00 5.193554e+00 5.706785e+00 5.478279e+00 7.128670e+00 5.489217e+00 7.759390e+00 5.391502e+00 
6.801303e+00 1.636526e+01 1.196761e+01 3.229154e+01 2.545367e+01 5.727579e+01 5.342165e+01 4.738496e+01 3.798934e+01 5.780933e+01 3.241659e+01 2.151430e+02 9.650436e+01 1.461519e+02 7.834301e+01 7.967866e+01 5.577724e+01 1.843186e+02 1.050515e+02 7.547413e+01 3.852713e+01 1.443600e+02 1.055653e+02 9.559332e+01 3.482496e+02 1.903329e+02 4.406549e+01 2.169408e+01 5.283145e+01 3.671805e+01 6.270344e+00 1.711097e+01 1.001882e+01 7.591745e+00 6.623918e+00 2.433104e+00 1.637817e+00 2.711299e+00 4.495671e+00 4.117743e+00 8.154749e+00 5.212292e+00 1.064645e+01 6.824763e+00 1.138732e+01 8.042581e+00 9.116029e+00 6.446403e+00 3.524985e+00 2.880074e+00 9.832054e+00 8.363242e+00 8.480568e+00 8.750507e+00 6.363037e+00 7.484967e+00 4.348978e+00 5.350849e+00 2.360036e+00 2.702151e+00 7.775399e-01 3.311774e+00 2.970249e+00 8.362543e+00 
1.686830e+01 1.114188e+01 2.840282e+01 1.678869e+01 6.299222e+01 3.987836e+01 9.239349e+01 1.106364e+02 5.336201e+01 9.895957e+01 2.156939e+02 9.782282e+01 2.394702e+02 4.546935e+01 1.730519e+02 1.105707e+02 1.321176e+02 6.837106e+01 7.085910e+01 1.687825e+02 6.476036e+01 2.504210e+02 8.341883e+01 2.486771e+02 2.510405e+02 3.807883e+02 6.847852e+01 1.985091e+01 4.919590e+01 3.688880e+01 2.199554e+01 1.667294e+01 1.824483e+01 1.540593e+01 1.154731e+01 1.764904e+01 8.948375e+00 1.649532e+01 8.218741e+00 1.352245e+01 8.873065e+00 9.826568e+00 1.010103e+01 6.130178e+00 1.010216e+01 5.995453e+00 7.802052e+00 7.641340e+00 1.358908e+01 8.002302e+00 9.050555e+00 7.414104e+00 5.157208e+00 7.017427e+00 3.270915e+00 7.179094e+00 5.530022e+00 7.291210e+00 8.484234e+00 7.417138e+00 1.110874e+01 7.864375e+00 1.315467e+01 9.419440e+00 
5.822899e+00 9.471820e+00 8.312518e+00 1.515072e+01 3.352309e+01 3.993537e+01 1.226077e+02 4.296876e+01 1.332014e+02 1.193017e+02 1.010774e+02 1.735549e+02 2.573035e+02 1.295909e+02 2.836149e+02 1.443937e+02 3.051199e+01 2.801202e+02 2.299509e+02 6.849705e+01 1.278106e+02 1.314113e+02 2.138877e+02 1.579899e+02 2.716417e+02 3.695093e+02 1.822224e+02 1.274569e+02 8.922768e+01 4.119414e+01 4.447511e+01 2.588663e+01 2.413046e+01 1.044138e+01 8.259892e+00 7.454266e+00 1.791265e+00 8.282281e+00 7.875928e+00 9.139834e+00 1.270542e+01 1.031840e+01 1.696881e+01 1.269008e+01 2.031313e+01 1.718084e+01 1.551945e+01 1.937270e+00 1.107619e+01 7.561473e+00 1.114242e+01 1.689774e+01 1.475889e+01 1.520186e+01 9.843767e+00 1.193863e+01 7.080028e+00 8.664513e+00 4.827241e+00 4.751234e+00 3.182259e+00 1.348091e+00 2.431445e+00 6.193069e+00 
1.851796e+01 1.302578e+01 1.457165e+01 3.224341e+01 4.995874e+01 5.830823e+01 2.725662e+01 1.737768e+02 9.038918e+01 2.621452e+02 2.971786e+02 4.493656e+02 4.579677e+02 2.550419e+02 2.041564e+02 2.085644e+02 3.713840e+01 1.483751e+02 1.790852e+02 1.243220e+02 3.220761e+02 2.952491e+02 1.667366e+02 2.479904e+02 4.751278e+02 2.102075e+02 1.259621e+02 8.627928e+01 5.943982e+01 4.167387e+01 4.268547e+01 2.761574e+01 2.755468e+01 2.904670e+01 1.851484e+01 2.676236e+01 1.448125e+01 2.341353e+01 1.273600e+01 1.880591e+01 1.395768e+01 1.580292e+01 1.706289e+01 1.357587e+01 1.952934e+01 1.733412e+01 1.962920e+01 1.280969e+01 8.857028e+00 1.573722e+01 1.186330e+01 1.832575e+01 1.280516e+01 1.405786e+01 9.207292e+00 1.237385e+01 9.899185e+00 1.106403e+01 1.277762e+01 1.072493e+01 1.617952e+01 1.099004e+01 1.815385e+01 1.378533e+01 
4.193526e+00 1.078266e+01 2.027622e+01 1.471067e+01 4.838564e+01 2.561722e+01 1.430303e+01 6.255704e+01 2.102550e+02 2.709759e+02 2.845085e+02 5.859873e+02 4.879209e+02 1.330743e+02 1.067144e+02 2.065369e+02 1.534831e+02 2.326785e+02 2.344422e+02 4.186340e+02 2.225383e+02 1.832815e+02 3.712149e+02 4.581176e+02 2.385783e+02 1.473170e+02 2.165503e+02 5.897245e+01 1.612834e+01 1.249019e+01 2.765072e+01 7.552646e+00 1.425795e+01 9.719046e+00 4.945104e+00 1.387726e+01 7.603690e+00 1.584759e+01 1.404323e+01 1.648794e+01 2.034473e+01 1.828778e+01 2.354654e+01 1.774672e+01 2.926659e+01 2.467045e+01 3.175701e+01 1.713867e+01 1.661145e+01 1.929891e+01 2.276537e+01 2.910339e+01 2.059402e+01 2.020466e+01 1.358590e+01 1.795891e+01 1.251224e+01 1.403564e+01 9.993323e+00 9.566334e+00 8.591369e+00 5.400482e+00 7.029105e+00 9.634091e+00 
2.187527e+01 2.706141e+01 1.204235e+01 3.989938e+01 1.111368e+02 1.344339e+02 2.027791e+01 1.152606e+02 1.248342e+02 3.742910e+02 2.603310e+02 2.081020e+02 3.560524e+02 5.434935e+02 3.236469e+02 3.414060e+02 3.520770e+02 2.976544e+02 3.854582e+02 2.766834e+02 2.943789e+02 4.927640e+02 1.265056e+02 3.290398e+02 2.539054e+02 4.428301e+02 1.736285e+02 1.899212e+02 1.081068e+02 1.339663e+02 3.776594e+01 3.948161e+01 2.814701e+01 3.902083e+01 2.313977e+01 3.537186e+01 1.985872e+01 3.094306e+01 1.832879e+01 2.617930e+01 2.224176e+01 1.881196e+01 1.928017e+01 1.522676e+01 2.451798e+01 1.807828e+01 2.320737e+01 1.962779e+01 2.361316e+01 2.073809e+01 1.604638e+01 1.930435e+01 1.366984e+01 1.808939e+01 1.022619e+01 1.470724e+01 1.566772e+01 1.696871e+01 1.899863e+01 1.603237e+01 2.328070e+01 1.588046e+01 2.694411e+01 2.242219e+01 
1.551326e+01 1.733144e+01 8.547777e+00 7.888958e+01 8.180203e+01 1.051285e+02 1.078097e+02 1.195582e+02 2.814946e+02 2.190658e+02 4.059103e+02 3.584655e+02 2.387069e+02 3.857204e+02 2.191153e+02 1.355265e+02 5.563579e+02 5.238444e+02 2.789310e+02 3.491101e+02 4.228429e+02 4.605683e+02 3.057463e+02 6.375679e+02 6.086104e+02 2.684051e+02 4.896212e+02 1.919372e+02 5.879819e+01 5.026653e+01 6.227806e+01 3.602796e+01 2.096442e+01 2.147613e+01 1.061658e+01 2.039464e+01 1.344151e+01 2.392124e+01 2.266188e+01 2.808760e+01 2.642925e+01 1.509630e+01 2.047654e+01 7.808754e+00 1.879261e+01 2.429782e+01 2.688305e+01 2.389255e+01 2.151791e+01 2.000110e+01 2.656813e+01 2.185008e+01 1.712749e+01 1.146172e+01 5.958691e+00 1.560606e+01 1.310908e+01 2.180561e+01 1.840360e+01 1.699351e+01 1.701249e+01 1.304963e+01 2.393745e+01 2.137988e+01 
4.923745e+01 2.240196e+01 4.714245e+01 6.558785e+01 8.709627e+01 3.723202e+01 1.970427e+02 2.624758e+02 1.331695e+02 3.339790e+02 2.973556e+02 1.719406e+02 2.353009e+02 4.421165e+02 4.501208e+02 2.933467e+02 3.198116e+02 4.078985e+02 4.036107e+02 4.146384e+02 6.478308e+02 6.526636e+01 7.374274e+02 4.179581e+02 1.634333e+02 6.146876e+02 3.077972e+02 3.044905e+02 1.191942e+02 1.503156e+02 7.177225e+01 1.055022e+02 6.675551e+01 5.756603e+01 9.320162e+00 3.698719e+01 2.230057e+01 3.964253e+01 2.895593e+01 3.228460e+01 1.342470e+01 5.337863e+00 1.674702e+01 3.031002e+01 3.172078e+01 2.577644e+01 1.752527e+01 1.247613e+01 1.187284e+01 1.069033e+01 1.431429e+01 1.597580e+01 2.660467e+01 2.633079e+01 2.227212e+01 5.320907e+00 9.635370e+00 1.795966e+01 2.907598e+01 2.694825e+01 3.497059e+01 2.945512e+01 4.889464e+01 3.040373e+01 
4.108479e+01 2.467529e+01 5.232337e+01 2.212951e+02 9.438756e+01 1.382434e+02 3.156256e+02 1.295725e+02 4.103993e+02 2.397079e+02 4.070631e+02 2.822723e+02 3.118716e+02 1.950553e+02 1.283192e+02 4.782035e+02 1.303320e+02 1.617932e+02 4.120939e+02 6.642036e+02 1.022344e+02 2.813049e+02 4.752986e+02 3.620680e+02 3.703639e+02 4.140129e+02 3.695084e+02 3.467237e+02 3.947307e+02 3.360910e+02 3.169953e+02 2.253390e+02 1.831005e+02 8.192120e+01 6.195766e+01 1.599688e+01 2.029819e+01 3.627086e+01 3.613667e+01 2.468267e+01 1.335896e+01 2.206872e+01 3.205792e+01 2.942517e+01 1.532646e+01 9.113723e+00 1.459778e+01 1.198582e+01 1.692247e+01 1.611182e+01 1.038021e+01 1.045052e+01 7.718367e+00 1.372593e+01 2.663746e+01 2.101460e+01 1.128777e+01 1.185116e+01 2.666210e+01 3.168878e+01 2.853582e+01 3.186786e+01 4.092757e+01 3.344746e+01 
1.494818e+01 8.904931e+01 1.924718e+02 2.099586e+01 7.264231e+01 9.591933e+01 5.237716e+02 3.821787e+02 1.958494e+02 3.220867e+02 4.085412e+01 5.191820e+02 1.955998e+02 1.031124e+02 3.774413e+02 2.166567e+02 4.927834e+02 2.897478e+02 2.462616e+02 1.156068e+02 6.772132e+02 3.084884e+02 8.323347e+02 6.154669e+02 4.742565e+02 3.521135e+02 5.480629e+02 5.142229e+02 2.129303e+02 1.070242e+02 9.548796e+01 1.001785e+02 1.231533e+02 9.451611e+01 5.536035e+01 1.281823e+01 2.854913e+01 5.153992e+01 3.568449e+01 2.067560e+01 3.263721e+01 4.140227e+01 3.029441e+01 2.273462e+01 7.507426e+00 1.135708e+01 1.299332e+01 1.466363e+01 1.775351e+01 1.516862e+01 1.145125e+01 6.425110e+00 9.184569e+00 8.525667e+00 2.142527e+01 2.580611e+01 2.724172e+01 1.502600e+01 2.626569e+01 3.755961e+01 4.947808e+01 4.495281e+01 5.869068e+01 4.013965e+01 
1.099534e+02 7.451438e+01 1.541137e+02 3.069707e+02 4.212182e+01 2.540007e+02 1.401033e+02 3.084109e+02 3.047700e+02 2.160445e+02 2.617005e+02 4.721721e+02 1.193376e+02 3.662587e+02 1.036166e+02 4.389005e+01 3.276528e+02 2.613747e+02 3.984997e+02 4.338286e+02 2.388214e+02 3.840228e+01 5.629125e+02 5.734860e+02 4.245773e+02 3.558193e+02 3.594003e+02 2.468581e+02 3.349976e+02 1.175142e+02 1.262603e+02 4.624193e+01 8.073522e+01 4.511184e+01 9.465582e+01 9.494767e+01 8.303183e+01 3.969272e+01 1.130491e+01 2.506557e+01 3.481945e+01 3.668435e+01 2.032321e+01 2.194676e+01 7.145487e+00 1.702298e+01 9.510956e+00 1.444798e+01 1.452551e+01 1.151052e+01 1.112809e+01 4.210872e+00 1.266101e+01 5.858730e+00 1.907859e+01 1.915384e+01 2.307860e+01 1.671236e+01 1.010806e+01 2.749819e+01 3.308873e+01 4.686596e+01 6.386480e+01 8.565237e+01 
2.803990e+01 1.214446e+02 1.394737e+02 1.813519e+02 2.938976e+02 1.649539e+01 2.182167e+02 2.385858e+02 3.240657e+02 3.140534e+02 3.352842e+02 3.145541e+02 4.486067e+02 2.292384e+02 3.922733e+02 2.009283e+02 3.183930e+02 1.244233e+02 2.071709e+02 2.917379e+02 3.808714e+02 4.352993e+02 3.910530e+01 1.078383e+02 7.643255e+01 3.801212e+02 5.331216e+02 3.686110e+02 1.356050e+02 1.867551e+02 7.020401e+01 8.845583e+01 6.557010e+01 2.273764e+01 4.040942e+01 2.048465e+00 3.546592e+01 4.505502e+01 3.702718e+01 4.516365e+01 3.806830e+01 3.632042e+01 1.927501e+01 2.378706e+01 1.019761e+01 1.876445e+01 8.464890e+00 1.366110e+01 1.084022e+01 8.635605e+00 1.108635e+01 6.419168e+00 1.512100e+01 9.260173e+00 1.964874e+01 2.170598e+01 2.556448e+01 2.368948e+01 2.607325e+01 1.605419e+01 2.558304e+01 1.728172e+01 4.364987e+01 3.685310e+01 
1.080185e+02 1.377456e+02 7.169065e+01 1.754408e+02 1.875601e+02 2.754366e+02 2.220903e+02 1.278200e+02 5.260037e+01 1.692597e+02 6.656054e+02 2.670246e+02 4.387375e+02 2.531780e+02 3.804529e+02 1.485799e+02 2.357445e+02 2.970921e+02 1.225086e+02 4.741827e+02 1.517217e+02 3.032048e+02 4.953741e+02 4.148691e+02 5.496373e+02 1.480775e+02 2.347194e+02 4.542846e+02 9.492483e+01 2.642695e+02 2.185658e+01 1.017238e+02 1.306166e+01 2.906957e+01 7.071796e+00 4.533877e+01 2.631121e+01 4.618513e+01 1.415229e+01 2.430397e+01 1.896270e+01 1.990195e+01 5.923545e+00 1.741493e+01 4.454311e+00 1.628608e+01 2.820805e+00 1.223927e+01 4.968468e+00 5.587673e+00 7.623358e+00 1.387806e+00 1.085158e+01 4.087123e+00 7.481042e+00 1.387170e+01 1.486595e+01 8.953013e+00 1.627361e+01 5.710832e+00 1.833665e+01 3.087994e+01 5.963426e+01 9.937063e+01 
6.620349e+01 7.325078e+01 8.368529e+01 5.476296e+01 1.412830e+02 4.233398e+02 5.879789e+01 2.526537e+02 3.149789e+02 5.519766e+02 1.297008e+02 7.790079e+02 2.471452e+02 1.239680e+02 1.674213e+02 2.552128e+02 1.046172e+02 3.631777e+02 2.920340e+02 3.979011e+02 4.729279e+02 1.225556e+02 4.906112e+02 4.862097e+02 4.326178e+02 1.629900e+02 4.177667e+02 2.045066e+02 2.491183e+02 4.299937e+01 6.037806e+01 2.679793e+01 3.311318e+01 1.919367e+01 2.621090e+01 3.821389e+01 4.493436e+01 4.485958e+01 1.306761e+01 2.638490e+01 2.672891e+01 2.083041e+01 1.052126e+01 1.082313e+01 1.182312e+00 1.176202e+01 2.471077e+00 9.814155e+00 4.373013e+00 5.236620e+00 6.202978e+00 2.491744e+00 6.518353e+00 4.861918e+00 3.354579e+00 1.501665e+01 1.697219e+01 1.354923e+01 2.390254e+01 2.159901e+01 1.947805e+01 1.949825e+01 1.822976e+01 5.320395e+01 
1.703195e+01 5.243312e+01 2.013428e+01 1.794772e+02 2.548894e+02 1.506634e+02 2.663348e+02 1.614670e+02 4.277848e+02 1.252965e+02 5.652434e+02 2.529734e+02 3.641934e+02 1.303781e+02 2.567243e+02 4.215982e+02 4.000570e+02 2.228837e+02 3.798996e+02 5.275257e+02 1.773402e+02 3.311603e+02 6.272131e+02 9.372455e+01 3.651861e+02 1.066060e+02 3.940780e+02 2.417207e+02 6.485325e+01 1.587376e+02 7.534213e+01 2.231664e+01 3.623667e+01 2.289324e+01 1.788571e+01 4.849228e+01 2.893430e+01 4.226465e+01 2.065189e+01 3.858319e+01 6.126322e+00 9.961119e+00 1.289301e+01 5.854454e+00 5.927265e+00 9.917913e+00 2.449417e+00 1.033254e+01 2.769034e+00 8.054650e+00 3.497552e+00 9.402383e+00 2.996763e+00 1.557581e+01 6.229231e+00 1.509487e+01 6.802331e+00 4.341617e+00 1.911031e+01 6.387396e+00 1.716954e+01 6.379537e+00 1.485316e+01 1.357220e+01 
4.245714e+01 4.850134e+01 2.302860e+01 8.317466e+01 1.893153e+02 1.464600e+02 2.380954e+02 3.240379e+02 2.252499e+02 2.621907e+02 2.124066e+02 4.693907e+01 2.270723e+02 2.173791e+02 3.207667e+02 5.928799e+02 3.595260e+02 5.129459e+02 4.004143e+02 2.828257e+02 1.539432e+02 5.778509e+02 6.496014e+01 2.718652e+02 2.083501e+02 1.094247e+02 2.961474e+02 1.495121e+02 1.531419e+02 4.109477e+01 7.445986e+01 7.036986e+01 5.894423e+01 5.992913e+01 3.315805e+01 5.579536e+01 2.987206e+01 3.457736e+01 1.204284e+01 3.811176e+01 6.278203e+00 1.321793e+01 9.378415e+00 1.036586e+01 5.994415e+00 1.125731e+01 3.172769e+00 9.545975e+00 3.521514e+00 5.760437e+00 5.854300e+00 6.412494e+00 4.858411e+00 1.073173e+01 5.544201e-01 7.162243e+00 1.435044e+01 9.415968e+00 2.114226e+01 1.584365e+01 2.407684e+01 2.795516e+01 2.443778e+01 4.453955e+01 
4.680158e+01 2.385895e+01 8.451299e+01 7.056547e+01 1.305456e+02 2.628711e+02 2.907950e+02 2.471080e+02 3.210950e+02 1.355073e+02 2.017875e+02 6.903212e+01 1.588566e+02 9.538508e+01 4.078948e+02 3.444989e+02 1.275356e+02 3.742534e+02 2.126334e+02 3.391181e+02 2.747923e+02 3.472941e+02 8.143522e+02 1.761415e+02 5.493460e+02 1.939267e+02 1.652362e+02 3.347924e+02 4.950763e+01 2.614636e+02 5.597319e+01 4.793402e+01 1.934515e+01 7.429244e+01 1.391081e+01 5.834988e+01 1.070288e+01 3.401562e+01 1.677528e+01 4.187114e+01 2.208965e+01 2.476924e+01 2.528505e+00 1.705460e+01 2.494807e+00 1.641335e+01 2.499725e+00 1.330051e+01 5.786085e+00 7.026411e+00 7.084367e+00 4.364369e+00 7.387014e+00 7.284780e+00 7.215047e+00 1.108664e+01 2.380530e+01 1.074873e+01 2.155914e+01 5.658311e+00 2.270325e+01 2.461937e+01 2.558657e+01 5.199478e+01 