# vtk DataFile Version 2.0
Comment goes here
ASCII

DATASET STRUCTURED_POINTS
DIMENSIONS    64   64   1

ORIGIN    0.000   0.000   0.000
SPACING   0.031250.03125   1.000

POINT_DATA   4096
SCALARS uMag double
LOOKUP_TABLE default

5.393527e-03 1.386402e-01 2.750867e-01 4.032475e-01 5.144536e-01 6.078579e-01 6.768997e-01 7.213307e-01 7.371449e-01 7.253166e-01 6.846796e-01 6.177673e-01 5.262347e-01 4.141591e-01 2.855416e-01 1.456609e-01 6.670115e-05 1.457418e-01 2.856284e-01 4.142277e-01 5.262994e-01 6.178137e-01 6.847123e-01 7.253344e-01 7.371413e-01 7.213177e-01 6.768615e-01 6.078164e-01 5.143874e-01 4.031841e-01 2.750025e-01 1.385647e-01 5.483825e-03 1.468894e-01 2.858425e-01 4.113072e-01 5.248227e-01 6.155049e-01 6.865574e-01 7.282883e-01 7.456927e-01 7.312577e-01 6.916648e-01 6.223440e-01 5.312065e-01 4.170562e-01 2.881313e-01 1.466562e-01 5.480603e-05 1.467286e-01 2.882201e-01 4.171169e-01 5.312732e-01 6.223833e-01 6.916994e-01 7.312694e-01 7.456908e-01 7.282705e-01 6.865206e-01 6.154600e-01 5.247575e-01 4.112418e-01 2.857588e-01 1.468132e-01 
1.427940e-01 1.993794e-01 3.104092e-01 4.288991e-01 5.348595e-01 6.260964e-01 6.930029e-01 7.373521e-01 7.520523e-01 7.413064e-01 7.004494e-01 6.359373e-01 5.462015e-01 4.397844e-01 3.205909e-01 2.062277e-01 1.457295e-01 2.062671e-01 3.206480e-01 4.398293e-01 5.462472e-01 6.359691e-01 7.004722e-01 7.413193e-01 7.520486e-01 7.373441e-01 6.929743e-01 6.260687e-01 5.348115e-01 4.288575e-01 3.103535e-01 1.993423e-01 1.427970e-01 2.050443e-01 3.199282e-01 4.362793e-01 5.447879e-01 6.333230e-01 7.023966e-01 7.439903e-01 7.604146e-01 7.470162e-01 7.073123e-01 6.404023e-01 5.511292e-01 4.427651e-01 3.232751e-01 2.077879e-01 1.466901e-01 2.078229e-01 3.233361e-01 4.428043e-01 5.511786e-01 6.404285e-01 7.073382e-01 7.470242e-01 7.604132e-01 7.439781e-01 7.023695e-01 6.332923e-01 5.447407e-01 4.362357e-01 3.198721e-01 2.050057e-01 
2.914311e-01 3.226225e-01 4.004778e-01 4.973293e-01 5.910910e-01 6.741176e-01 7.371843e-01 7.785019e-01 7.935126e-01 7.829215e-01 7.457947e-01 6.851494e-01 6.042587e-01 5.096116e-01 4.123447e-01 3.307970e-01 2.975369e-01 3.308330e-01 4.124092e-01 5.096680e-01 6.043188e-01 6.851918e-01 7.458261e-01 7.829384e-01 7.935083e-01 7.784897e-01 7.371467e-01 6.740794e-01 5.910301e-01 4.972764e-01 4.004173e-01 3.225889e-01 2.914335e-01 3.264524e-01 4.084522e-01 5.042720e-01 6.008061e-01 6.814896e-01 7.468101e-01 7.855109e-01 8.022779e-01 7.891249e-01 7.531192e-01 6.902173e-01 6.096587e-01 5.133789e-01 4.155796e-01 3.335365e-01 2.994526e-01 3.335681e-01 4.156458e-01 5.134278e-01 6.097208e-01 6.902524e-01 7.531525e-01 7.891356e-01 8.022752e-01 7.854941e-01 7.467736e-01 6.814481e-01 6.007455e-01 5.042173e-01 4.083901e-01 3.264173e-01 
4.491208e-01 4.704454e-01 5.268743e-01 6.048431e-01 6.842093e-01 7.584139e-01 8.149654e-01 8.539191e-01 8.671129e-01 8.587396e-01 8.240020e-01 7.706458e-01 6.985193e-01 6.193175e-01 5.412779e-01 4.825999e-01 4.600378e-01 4.826121e-01 5.413104e-01 6.193410e-01 6.985530e-01 7.706661e-01 8.240191e-01 8.587495e-01 8.671080e-01 8.539151e-01 8.149411e-01 7.583964e-01 6.841739e-01 6.048190e-01 5.268444e-01 4.704321e-01 4.491228e-01 4.731588e-01 5.333498e-01 6.107498e-01 6.931933e-01 7.652332e-01 8.243579e-01 8.606780e-01 8.759119e-01 8.649543e-01 8.315409e-01 7.760534e-01 7.043241e-01 6.238921e-01 5.452443e-01 4.866630e-01 4.630595e-01 4.866728e-01 5.452802e-01 6.239106e-01 7.043619e-01 7.760681e-01 8.315614e-01 8.649589e-01 8.759093e-01 8.606696e-01 8.243344e-01 7.652126e-01 6.931572e-01 6.107240e-01 5.333174e-01 4.731450e-01 
6.254372e-01 6.405782e-01 6.828233e-01 7.440115e-01 8.099361e-01 8.729985e-01 9.234109e-01 9.578217e-01 9.712543e-01 9.639388e-01 9.352553e-01 8.885987e-01 8.288917e-01 7.626863e-01 7.023682e-01 6.570076e-01 6.418520e-01 6.570261e-01 7.024154e-01 7.627247e-01 8.289452e-01 8.886327e-01 9.352838e-01 9.639539e-01 9.712473e-01 9.578118e-01 9.233729e-01 8.729665e-01 8.098833e-01 7.439722e-01 6.827828e-01 6.405591e-01 6.254395e-01 6.428615e-01 6.885351e-01 7.495527e-01 8.186891e-01 8.799373e-01 9.331288e-01 9.650715e-01 9.807081e-01 9.709139e-01 9.435940e-01 8.949961e-01 8.355244e-01 7.684649e-01 7.071967e-01 6.624078e-01 6.458138e-01 6.624231e-01 7.072454e-01 7.684960e-01 8.355800e-01 8.950222e-01 9.436248e-01 9.709223e-01 9.807028e-01 9.650568e-01 9.330915e-01 8.799024e-01 8.186352e-01 7.495122e-01 6.884912e-01 6.428419e-01 
8.210257e-01 8.333982e-01 8.663069e-01 9.170183e-01 9.719972e-01 1.027333e+00 1.071216e+00 1.103319e+00 1.114951e+00 1.110654e+00 1.084826e+00 1.046605e+00 9.950362e-01 9.422107e-01 8.931232e-01 8.593622e-01 8.468985e-01 8.593613e-01 8.931406e-01 9.422100e-01 9.950560e-01 1.046608e+00 1.084833e+00 1.110660e+00 1.114943e+00 1.103323e+00 1.071197e+00 1.027330e+00 9.719761e-01 9.170108e-01 8.662935e-01 8.333938e-01 8.210280e-01 8.353180e-01 8.714004e-01 9.219534e-01 9.803001e-01 1.033862e+00 1.080872e+00 1.110443e+00 1.124674e+00 1.117845e+00 1.093708e+00 1.053678e+00 1.002498e+00 9.492202e-01 8.991224e-01 8.664219e-01 8.522384e-01 8.664191e-01 8.991435e-01 9.492149e-01 1.002522e+00 1.053674e+00 1.093720e+00 1.117845e+00 1.124668e+00 1.110442e+00 1.080853e+00 1.033856e+00 9.802768e-01 9.219447e-01 8.713830e-01 8.353138e-01 
1.050233e+00 1.059662e+00 1.085636e+00 1.126069e+00 1.171829e+00 1.217895e+00 1.256815e+00 1.284822e+00 1.297666e+00 1.295191e+00 1.276660e+00 1.245140e+00 1.205435e+00 1.161194e+00 1.124100e+00 1.094984e+00 1.087334e+00 1.094995e+00 1.124144e+00 1.161218e+00 1.205487e+00 1.245165e+00 1.276686e+00 1.295205e+00 1.297652e+00 1.284815e+00 1.256773e+00 1.217867e+00 1.171779e+00 1.126036e+00 1.085603e+00 1.059647e+00 1.050236e+00 1.061480e+00 1.090492e+00 1.130957e+00 1.180177e+00 1.224730e+00 1.267026e+00 1.292657e+00 1.308366e+00 1.303442e+00 1.286726e+00 1.253539e+00 1.214065e+00 1.169684e+00 1.131156e+00 1.103561e+00 1.093678e+00 1.103569e+00 1.131202e+00 1.169700e+00 1.214120e+00 1.253554e+00 1.286755e+00 1.303448e+00 1.308354e+00 1.292645e+00 1.266984e+00 1.224700e+00 1.180125e+00 1.130923e+00 1.090456e+00 1.061465e+00 
1.311286e+00 1.320082e+00 1.341426e+00 1.377199e+00 1.416951e+00 1.459070e+00 1.494207e+00 1.521888e+00 1.533905e+00 1.535357e+00 1.518802e+00 1.495280e+00 1.460545e+00 1.427301e+00 1.396103e+00 1.376058e+00 1.368155e+00 1.376044e+00 1.396110e+00 1.427273e+00 1.460552e+00 1.495261e+00 1.518797e+00 1.535358e+00 1.533889e+00 1.521901e+00 1.494192e+00 1.459083e+00 1.416943e+00 1.377204e+00 1.341425e+00 1.320082e+00 1.311289e+00 1.321783e+00 1.346102e+00 1.381865e+00 1.425217e+00 1.465767e+00 1.504629e+00 1.529785e+00 1.545158e+00 1.544015e+00 1.529770e+00 1.504643e+00 1.470447e+00 1.437445e+00 1.404796e+00 1.386796e+00 1.376310e+00 1.386781e+00 1.404807e+00 1.437412e+00 1.470461e+00 1.504617e+00 1.529770e+00 1.544009e+00 1.545144e+00 1.529793e+00 1.504612e+00 1.465776e+00 1.425205e+00 1.381869e+00 1.346095e+00 1.321784e+00 
1.624964e+00 1.632228e+00 1.649756e+00 1.679332e+00 1.713806e+00 1.749574e+00 1.782494e+00 1.807847e+00 1.823147e+00 1.827891e+00 1.820310e+00 1.803455e+00 1.780541e+00 1.751597e+00 1.729807e+00 1.708051e+00 1.704928e+00 1.708056e+00 1.729857e+00 1.751607e+00 1.780601e+00 1.803469e+00 1.820333e+00 1.827906e+00 1.823120e+00 1.807842e+00 1.782440e+00 1.749545e+00 1.713754e+00 1.679296e+00 1.649727e+00 1.632212e+00 1.624968e+00 1.633954e+00 1.654428e+00 1.684194e+00 1.722367e+00 1.756843e+00 1.793768e+00 1.816782e+00 1.835816e+00 1.838012e+00 1.832996e+00 1.814576e+00 1.792078e+00 1.763614e+00 1.739835e+00 1.720647e+00 1.714253e+00 1.720648e+00 1.739886e+00 1.763613e+00 1.792141e+00 1.814580e+00 1.833022e+00 1.838018e+00 1.835791e+00 1.816772e+00 1.793714e+00 1.756812e+00 1.722312e+00 1.684158e+00 1.654393e+00 1.633939e+00 
1.986653e+00 1.994518e+00 2.010297e+00 2.039465e+00 2.073053e+00 2.109479e+00 2.143536e+00 2.172261e+00 2.189447e+00 2.200046e+00 2.193359e+00 2.184169e+00 2.162241e+00 2.143857e+00 2.124584e+00 2.114260e+00 2.108321e+00 2.114227e+00 2.124579e+00 2.143791e+00 2.162236e+00 2.184118e+00 2.193334e+00 2.200045e+00 2.189416e+00 2.172290e+00 2.143523e+00 2.109506e+00 2.073059e+00 2.039477e+00 2.010307e+00 1.994520e+00 1.986656e+00 1.996277e+00 2.015059e+00 2.044441e+00 2.081888e+00 2.116953e+00 2.155371e+00 2.181527e+00 2.203050e+00 2.210797e+00 2.207415e+00 2.196585e+00 2.175623e+00 2.158123e+00 2.136915e+00 2.129843e+00 2.120155e+00 2.129809e+00 2.136916e+00 2.158053e+00 2.175627e+00 2.196528e+00 2.207396e+00 2.210788e+00 2.203020e+00 2.181549e+00 2.155354e+00 2.116976e+00 2.081888e+00 2.044453e+00 2.015064e+00 1.996281e+00 
2.425387e+00 2.433239e+00 2.447144e+00 2.473943e+00 2.506247e+00 2.540158e+00 2.576080e+00 2.605774e+00 2.629783e+00 2.647225e+00 2.653157e+00 2.653228e+00 2.646052e+00 2.627810e+00 2.617027e+00 2.593597e+00 2.592228e+00 2.593598e+00 2.617087e+00 2.627790e+00 2.646129e+00 2.653227e+00 2.653171e+00 2.647246e+00 2.629726e+00 2.605770e+00 2.576003e+00 2.540117e+00 2.506190e+00 2.473895e+00 2.447118e+00 2.433219e+00 2.425392e+00 2.435095e+00 2.452003e+00 2.479308e+00 2.515551e+00 2.548520e+00 2.589099e+00 2.616542e+00 2.645417e+00 2.660046e+00 2.669774e+00 2.668096e+00 2.661855e+00 2.644621e+00 2.631180e+00 2.611640e+00 2.605544e+00 2.611636e+00 2.631241e+00 2.644589e+00 2.661934e+00 2.668082e+00 2.669792e+00 2.660059e+00 2.645363e+00 2.616535e+00 2.589022e+00 2.548479e+00 2.515489e+00 2.479261e+00 2.451969e+00 2.435075e+00 
2.933084e+00 2.942668e+00 2.957743e+00 2.988411e+00 3.026637e+00 3.067207e+00 3.113169e+00 3.152850e+00 3.185918e+00 3.214036e+00 3.221133e+00 3.228899e+00 3.216028e+00 3.208750e+00 3.197141e+00 3.195508e+00 3.188332e+00 3.195434e+00 3.197106e+00 3.208622e+00 3.216012e+00 3.228800e+00 3.221068e+00 3.214042e+00 3.185854e+00 3.152903e+00 3.113158e+00 3.067244e+00 3.026663e+00 2.988422e+00 2.957768e+00 2.942668e+00 2.933087e+00 2.944698e+00 2.962938e+00 2.994262e+00 3.036605e+00 3.076242e+00 3.127211e+00 3.164362e+00 3.203042e+00 3.227799e+00 3.239821e+00 3.245506e+00 3.234525e+00 3.228744e+00 3.214655e+00 3.217949e+00 3.205319e+00 3.217874e+00 3.214629e+00 3.228611e+00 3.234521e+00 3.245399e+00 3.239764e+00 3.227796e+00 3.202978e+00 3.164407e+00 3.127193e+00 3.076276e+00 3.036622e+00 2.994274e+00 2.962956e+00 2.944701e+00 
3.548128e+00 3.560391e+00 3.575645e+00 3.610004e+00 3.652956e+00 3.698025e+00 3.753156e+00 3.800582e+00 3.846583e+00 3.889470e+00 3.915954e+00 3.942796e+00 3.954428e+00 3.944408e+00 3.941653e+00 3.891261e+00 3.879542e+00 3.891267e+00 3.941711e+00 3.944306e+00 3.954538e+00 3.942768e+00 3.915940e+00 3.889519e+00 3.846463e+00 3.800576e+00 3.753045e+00 3.697955e+00 3.652895e+00 3.609931e+00 3.575624e+00 3.560363e+00 3.548134e+00 3.562563e+00 3.580955e+00 3.616414e+00 3.663475e+00 3.708336e+00 3.768710e+00 3.814278e+00 3.866598e+00 3.906265e+00 3.938621e+00 3.963035e+00 3.976781e+00 3.968151e+00 3.961876e+00 3.917194e+00 3.898531e+00 3.917192e+00 3.961933e+00 3.968032e+00 3.976893e+00 3.962989e+00 3.938613e+00 3.906305e+00 3.866482e+00 3.814272e+00 3.768598e+00 3.708268e+00 3.663407e+00 3.616341e+00 3.580925e+00 3.562532e+00 
4.258440e+00 4.274024e+00 4.294644e+00 4.338892e+00 4.398889e+00 4.459931e+00 4.542574e+00 4.612641e+00 4.686574e+00 4.752853e+00 4.787997e+00 4.822943e+00 4.812291e+00 4.805366e+00 4.790463e+00 4.798133e+00 4.782644e+00 4.797933e+00 4.790332e+00 4.805138e+00 4.812272e+00 4.822755e+00 4.787834e+00 4.752901e+00 4.686450e+00 4.612732e+00 4.542576e+00 4.459965e+00 4.398945e+00 4.338886e+00 4.294686e+00 4.274015e+00 4.258442e+00 4.276526e+00 4.300574e+00 4.346241e+00 4.410558e+00 4.471591e+00 4.559784e+00 4.627777e+00 4.708945e+00 4.771096e+00 4.813913e+00 4.845559e+00 4.838654e+00 4.833803e+00 4.815785e+00 4.830963e+00 4.807332e+00 4.830763e+00 4.815668e+00 4.833572e+00 4.838653e+00 4.845360e+00 4.813760e+00 4.771130e+00 4.708816e+00 4.627859e+00 4.559774e+00 4.471622e+00 4.410603e+00 4.346236e+00 4.300609e+00 4.276521e+00 
5.110166e+00 5.133566e+00 5.157903e+00 5.217948e+00 5.294576e+00 5.375939e+00 5.484065e+00 5.578153e+00 5.677304e+00 5.774837e+00 5.837738e+00 5.917969e+00 5.957340e+00 5.966173e+00 5.975959e+00 5.787185e+00 5.692883e+00 5.787276e+00 5.975912e+00 5.965772e+00 5.957534e+00 5.917921e+00 5.837630e+00 5.774980e+00 5.677054e+00 5.578122e+00 5.483913e+00 5.375803e+00 5.294524e+00 5.217833e+00 5.157896e+00 5.133525e+00 5.110172e+00 5.136218e+00 5.163892e+00 5.225971e+00 5.306744e+00 5.389347e+00 5.503001e+00 5.596524e+00 5.703678e+00 5.797697e+00 5.870095e+00 5.946285e+00 5.990369e+00 6.000618e+00 6.005674e+00 5.825251e+00 5.720272e+00 5.825332e+00 6.005622e+00 6.000193e+00 5.990565e+00 5.946210e+00 5.869995e+00 5.797830e+00 5.703434e+00 5.596498e+00 5.502847e+00 5.389218e+00 5.306683e+00 5.225856e+00 5.163873e+00 5.136173e+00 
6.087089e+00 6.116946e+00 6.153782e+00 6.234918e+00 6.348459e+00 6.462621e+00 6.632813e+00 6.773651e+00 6.947088e+00 7.100750e+00 7.212109e+00 7.311554e+00 7.291276e+00 7.229177e+00 7.133984e+00 7.174264e+00 7.150937e+00 7.173496e+00 7.133497e+00 7.228890e+00 7.291293e+00 7.311185e+00 7.211676e+00 7.100959e+00 6.946892e+00 6.773786e+00 6.632876e+00 6.462611e+00 6.348560e+00 6.234864e+00 6.153838e+00 6.116919e+00 6.087089e+00 6.120084e+00 6.160745e+00 6.244390e+00 6.362405e+00 6.478324e+00 6.654259e+00 6.794711e+00 6.977202e+00 7.126018e+00 7.249962e+00 7.343259e+00 7.330344e+00 7.270802e+00 7.171463e+00 7.223804e+00 7.188031e+00 7.223042e+00 7.170999e+00 7.270517e+00 7.330391e+00 7.342874e+00 7.249540e+00 7.126207e+00 6.976991e+00 6.794837e+00 6.654301e+00 6.478314e+00 6.362494e+00 6.244340e+00 6.160797e+00 6.120062e+00 
7.235621e+00 7.282407e+00 7.330242e+00 7.451538e+00 7.606547e+00 7.777542e+00 8.013150e+00 8.221264e+00 8.453412e+00 8.676068e+00 8.815440e+00 9.006300e+00 9.067153e+00 9.214018e+00 9.369671e+00 8.464920e+00 7.792660e+00 8.465835e+00 9.369081e+00 9.212347e+00 9.067683e+00 9.006492e+00 8.814972e+00 8.676463e+00 8.452943e+00 8.221107e+00 8.012996e+00 7.777280e+00 7.606532e+00 7.451370e+00 7.330257e+00 7.282356e+00 7.235627e+00 7.285617e+00 7.337123e+00 7.461617e+00 7.620738e+00 7.795473e+00 8.036153e+00 8.247265e+00 8.488598e+00 8.708791e+00 8.864095e+00 9.047416e+00 9.118841e+00 9.265851e+00 9.414884e+00 8.522394e+00 7.831896e+00 8.523292e+00 9.414280e+00 9.264151e+00 9.119370e+00 9.047562e+00 8.863641e+00 8.709180e+00 8.488135e+00 8.247125e+00 8.035992e+00 7.795221e+00 7.620711e+00 7.461447e+00 7.337126e+00 7.285558e+00 
8.534646e+00 8.594903e+00 8.668206e+00 8.835160e+00 9.063672e+00 9.303079e+00 9.667978e+00 9.967489e+00 1.037304e+01 1.071893e+01 1.105534e+01 1.135653e+01 1.142714e+01 1.125432e+01 1.056230e+01 1.077115e+01 1.101535e+01 1.076721e+01 1.055893e+01 1.125348e+01 1.142732e+01 1.135591e+01 1.105419e+01 1.071967e+01 1.037293e+01 9.967585e+00 9.668205e+00 9.302936e+00 9.063807e+00 8.835016e+00 8.668249e+00 8.594846e+00 8.534644e+00 8.598686e+00 8.676468e+00 8.847054e+00 9.080410e+00 9.324363e+00 9.694555e+00 9.998444e+00 1.041407e+01 1.075622e+01 1.111455e+01 1.140298e+01 1.148770e+01 1.132027e+01 1.062407e+01 1.084788e+01 1.107366e+01 1.084397e+01 1.062073e+01 1.131945e+01 1.148793e+01 1.140233e+01 1.111341e+01 1.075692e+01 1.041392e+01 9.998535e+00 9.694750e+00 9.324225e+00 9.080534e+00 8.846917e+00 8.676513e+00 8.598636e+00 
1.001421e+01 1.010561e+01 1.020497e+01 1.045778e+01 1.077604e+01 1.115081e+01 1.167473e+01 1.215460e+01 1.272481e+01 1.326587e+01 1.365982e+01 1.404406e+01 1.390498e+01 1.384112e+01 1.519298e+01 1.234725e+01 8.628852e+00 1.234646e+01 1.519118e+01 1.384162e+01 1.390659e+01 1.404657e+01 1.365802e+01 1.326650e+01 1.272424e+01 1.215401e+01 1.167471e+01 1.115037e+01 1.077608e+01 1.045757e+01 1.020500e+01 1.010555e+01 1.001421e+01 1.010919e+01 1.021288e+01 1.046966e+01 1.079250e+01 1.117430e+01 1.170190e+01 1.219327e+01 1.277046e+01 1.331683e+01 1.373720e+01 1.410707e+01 1.399415e+01 1.391294e+01 1.524278e+01 1.244815e+01 8.708788e+00 1.244737e+01 1.524097e+01 1.391341e+01 1.399575e+01 1.410948e+01 1.373542e+01 1.331748e+01 1.276988e+01 1.219272e+01 1.170186e+01 1.117388e+01 1.079253e+01 1.046945e+01 1.021290e+01 1.010912e+01 
1.164163e+01 1.176132e+01 1.190977e+01 1.226297e+01 1.272160e+01 1.325231e+01 1.404015e+01 1.470583e+01 1.563164e+01 1.641230e+01 1.739902e+01 1.804256e+01 1.901379e+01 2.133736e+01 1.936340e+01 1.223870e+01 6.913242e+00 1.223407e+01 1.935235e+01 2.132149e+01 1.901343e+01 1.804290e+01 1.739820e+01 1.641325e+01 1.563256e+01 1.470550e+01 1.404057e+01 1.325190e+01 1.272165e+01 1.226269e+01 1.190974e+01 1.176123e+01 1.164162e+01 1.176537e+01 1.191932e+01 1.227641e+01 1.274131e+01 1.327938e+01 1.407211e+01 1.475299e+01 1.568521e+01 1.647455e+01 1.750016e+01 1.811589e+01 1.911629e+01 2.145386e+01 1.946131e+01 1.230998e+01 6.946344e+00 1.230550e+01 1.945034e+01 2.143815e+01 1.911608e+01 1.811612e+01 1.749930e+01 1.647547e+01 1.568603e+01 1.475267e+01 1.407249e+01 1.327898e+01 1.274136e+01 1.227614e+01 1.191930e+01 1.176528e+01 
1.340532e+01 1.357479e+01 1.377993e+01 1.429661e+01 1.492966e+01 1.575068e+01 1.688956e+01 1.796627e+01 1.934375e+01 2.094740e+01 2.223981e+01 2.323871e+01 2.365615e+01 2.473399e+01 2.447612e+01 2.198068e+01 2.073203e+01 2.197062e+01 2.446230e+01 2.473386e+01 2.366708e+01 2.323438e+01 2.224172e+01 2.094402e+01 1.934457e+01 1.796489e+01 1.688978e+01 1.575016e+01 1.492970e+01 1.429640e+01 1.377992e+01 1.357474e+01 1.340532e+01 1.357797e+01 1.378853e+01 1.430810e+01 1.494824e+01 1.577764e+01 1.692049e+01 1.802428e+01 1.939424e+01 2.104486e+01 2.236464e+01 2.335348e+01 2.385592e+01 2.491264e+01 2.458442e+01 2.206218e+01 2.072762e+01 2.205220e+01 2.457055e+01 2.491219e+01 2.386666e+01 2.334907e+01 2.236648e+01 2.104163e+01 1.939500e+01 1.802296e+01 1.692068e+01 1.577712e+01 1.494827e+01 1.430787e+01 1.378852e+01 1.357790e+01 
1.523702e+01 1.546159e+01 1.575603e+01 1.648006e+01 1.736757e+01 1.856565e+01 2.023017e+01 2.167077e+01 2.415210e+01 2.628688e+01 2.697606e+01 2.607280e+01 2.641433e+01 2.797171e+01 2.765852e+01 2.837748e+01 3.046886e+01 2.838024e+01 2.766137e+01 2.798135e+01 2.641630e+01 2.607343e+01 2.698364e+01 2.628479e+01 2.415436e+01 2.166969e+01 2.023013e+01 1.856486e+01 1.736722e+01 1.647961e+01 1.575580e+01 1.546144e+01 1.523701e+01 1.546485e+01 1.576577e+01 1.649156e+01 1.738895e+01 1.859286e+01 2.026750e+01 2.173682e+01 2.421167e+01 2.641555e+01 2.716530e+01 2.624022e+01 2.658981e+01 2.817677e+01 2.780773e+01 2.852681e+01 3.055339e+01 2.852983e+01 2.781002e+01 2.818607e+01 2.659250e+01 2.624066e+01 2.717242e+01 2.641362e+01 2.421371e+01 2.173579e+01 2.026745e+01 1.859210e+01 1.738864e+01 1.649113e+01 1.576558e+01 1.546472e+01 
1.705874e+01 1.735278e+01 1.776312e+01 1.876495e+01 1.997338e+01 2.175172e+01 2.401972e+01 2.625235e+01 3.063659e+01 3.064463e+01 2.759057e+01 2.771284e+01 2.874454e+01 2.848149e+01 3.154570e+01 3.552332e+01 3.712294e+01 3.551840e+01 3.155195e+01 2.848260e+01 2.874656e+01 2.771726e+01 2.758865e+01 3.064296e+01 3.063700e+01 2.625187e+01 2.401959e+01 2.175136e+01 1.997309e+01 1.876469e+01 1.776293e+01 1.735269e+01 1.705874e+01 1.735391e+01 1.777041e+01 1.877007e+01 1.999165e+01 2.176972e+01 2.405644e+01 2.631499e+01 3.068758e+01 3.086323e+01 2.771221e+01 2.782008e+01 2.882306e+01 2.865896e+01 3.162003e+01 3.566497e+01 3.723640e+01 3.566061e+01 3.162537e+01 2.866068e+01 2.882561e+01 2.782330e+01 2.771027e+01 3.086183e+01 3.068791e+01 2.631453e+01 2.405632e+01 2.176932e+01 1.999137e+01 1.876978e+01 1.777022e+01 1.735380e+01 
1.871876e+01 1.910717e+01 1.966486e+01 2.103546e+01 2.267236e+01 2.527353e+01 2.814158e+01 3.228629e+01 3.521176e+01 2.679218e+01 2.539531e+01 2.957064e+01 3.170870e+01 3.194288e+01 3.668409e+01 3.859277e+01 4.028386e+01 3.858914e+01 3.669087e+01 3.194816e+01 3.172220e+01 2.956743e+01 2.538932e+01 2.679725e+01 3.521117e+01 3.228430e+01 2.813976e+01 2.527228e+01 2.267120e+01 2.103477e+01 1.966432e+01 1.910695e+01 1.871874e+01 1.910787e+01 1.967079e+01 2.103789e+01 2.268783e+01 2.528202e+01 2.817664e+01 3.232747e+01 3.531084e+01 2.688437e+01 2.536954e+01 2.950643e+01 3.164760e+01 3.205318e+01 3.675081e+01 3.876348e+01 4.043526e+01 3.875965e+01 3.675673e+01 3.205952e+01 3.166028e+01 2.950257e+01 2.536445e+01 2.688909e+01 3.531022e+01 3.232551e+01 2.817499e+01 2.528080e+01 2.268676e+01 2.103722e+01 1.967029e+01 1.910765e+01 
2.006823e+01 2.054318e+01 2.130782e+01 2.309278e+01 2.530651e+01 2.877446e+01 3.261681e+01 3.730749e+01 2.951523e+01 1.990887e+01 2.618343e+01 2.975854e+01 3.352784e+01 4.045012e+01 3.870831e+01 4.030149e+01 4.120628e+01 4.031342e+01 3.872222e+01 4.045934e+01 3.352504e+01 2.974175e+01 2.617629e+01 1.991544e+01 2.951940e+01 3.730736e+01 3.261492e+01 2.877374e+01 2.530522e+01 2.309211e+01 2.130718e+01 2.054293e+01 2.006822e+01 2.054011e+01 2.130769e+01 2.308149e+01 2.531138e+01 2.875275e+01 3.263715e+01 3.728992e+01 2.955768e+01 1.949808e+01 2.594708e+01 2.973588e+01 3.339037e+01 4.046831e+01 3.886526e+01 4.043789e+01 4.135853e+01 4.044919e+01 3.887921e+01 4.047772e+01 3.338679e+01 2.971987e+01 2.594028e+01 1.950366e+01 2.956226e+01 3.728962e+01 3.263535e+01 2.875193e+01 2.531011e+01 2.308080e+01 2.130707e+01 2.053987e+01 
2.083946e+01 2.144777e+01 2.242675e+01 2.472962e+01 2.763066e+01 3.193426e+01 3.689205e+01 3.531917e+01 1.908582e+01 1.561364e+01 1.768541e+01 3.012534e+01 4.368109e+01 3.942807e+01 4.013527e+01 4.152483e+01 4.134486e+01 4.153603e+01 4.014373e+01 3.942927e+01 4.366686e+01 3.010548e+01 1.767741e+01 1.560346e+01 1.908941e+01 3.531638e+01 3.688687e+01 3.193228e+01 2.762846e+01 2.472847e+01 2.242581e+01 2.144738e+01 2.083945e+01 2.144438e+01 2.242042e+01 2.471522e+01 2.761576e+01 3.188705e+01 3.682897e+01 3.528867e+01 1.894795e+01 1.507566e+01 1.737066e+01 3.009536e+01 4.361684e+01 3.947091e+01 4.030565e+01 4.164121e+01 4.148997e+01 4.165215e+01 4.031467e+01 3.947147e+01 4.360282e+01 3.007605e+01 1.736212e+01 1.506631e+01 1.895213e+01 3.528641e+01 3.682423e+01 3.188513e+01 2.761365e+01 2.471409e+01 2.241951e+01 2.144400e+01 
2.086352e+01 2.156536e+01 2.283883e+01 2.567471e+01 2.923713e+01 3.440956e+01 3.795621e+01 3.018415e+01 1.644350e+01 1.562917e+00 3.490603e+01 5.988116e+01 4.323726e+01 3.676242e+01 3.949635e+01 3.550537e+01 3.576389e+01 3.550874e+01 3.950087e+01 3.676281e+01 4.323428e+01 5.986614e+01 3.489963e+01 1.560697e+00 1.645506e+01 3.018156e+01 3.795004e+01 3.440551e+01 2.923405e+01 2.567276e+01 2.283751e+01 2.156475e+01 2.086349e+01 2.155849e+01 2.282146e+01 2.564224e+01 2.919118e+01 3.429610e+01 3.788395e+01 3.016441e+01 1.640647e+01 1.658752e+00 3.435700e+01 5.975371e+01 4.338034e+01 3.678700e+01 3.968180e+01 3.563333e+01 3.592727e+01 3.563653e+01 3.968657e+01 3.678708e+01 4.337756e+01 5.973910e+01 3.435072e+01 1.656582e+00 1.641844e+01 3.016273e+01 3.787768e+01 3.429212e+01 2.918813e+01 2.564037e+01 2.282019e+01 2.155794e+01 
1.984213e+01 2.070470e+01 2.222315e+01 2.570532e+01 2.960867e+01 3.573842e+01 3.629744e+01 3.138819e+01 1.810262e+01 3.480941e+01 6.864595e+01 6.022580e+01 3.253217e+01 3.481317e+01 3.226623e+01 2.867165e+01 2.898745e+01 2.867350e+01 3.226885e+01 3.481362e+01 3.252957e+01 6.022173e+01 6.863989e+01 3.478972e+01 1.809917e+01 3.139469e+01 3.629655e+01 3.573423e+01 2.960581e+01 2.570307e+01 2.222174e+01 2.070398e+01 1.984214e+01 2.069878e+01 2.219913e+01 2.568326e+01 2.955666e+01 3.569312e+01 3.631468e+01 3.130584e+01 1.818114e+01 3.413622e+01 6.830815e+01 6.051162e+01 3.262778e+01 3.486795e+01 3.243953e+01 2.874334e+01 2.911962e+01 2.874506e+01 3.244230e+01 3.486819e+01 3.262495e+01 6.050789e+01 6.830182e+01 3.411670e+01 1.818024e+01 3.131171e+01 3.631277e+01 3.568872e+01 2.955363e+01 2.568097e+01 2.219768e+01 2.069806e+01 
1.775469e+01 1.869533e+01 2.066871e+01 2.455611e+01 2.934900e+01 3.539287e+01 3.702733e+01 3.476937e+01 3.081416e+01 5.759418e+01 7.071719e+01 4.168419e+01 2.731153e+01 2.990224e+01 2.437425e+01 2.221156e+01 2.176876e+01 2.221262e+01 2.437577e+01 2.990498e+01 2.731052e+01 4.168537e+01 7.072864e+01 5.759549e+01 3.081221e+01 3.478658e+01 3.702915e+01 3.538766e+01 2.934524e+01 2.455301e+01 2.066675e+01 1.869428e+01 1.775464e+01 1.869398e+01 2.064203e+01 2.455107e+01 2.927162e+01 3.539190e+01 3.698759e+01 3.481374e+01 3.094694e+01 5.713888e+01 7.087936e+01 4.200886e+01 2.733359e+01 3.001979e+01 2.450363e+01 2.227880e+01 2.188609e+01 2.227977e+01 2.450525e+01 3.002246e+01 2.733248e+01 4.201026e+01 7.089044e+01 5.713956e+01 3.094525e+01 3.482888e+01 3.698868e+01 3.538677e+01 2.926792e+01 2.454811e+01 2.064017e+01 1.869304e+01 
1.453755e+01 1.561716e+01 1.822478e+01 2.256980e+01 2.857119e+01 3.465677e+01 3.970757e+01 4.023147e+01 4.384317e+01 6.260722e+01 5.649243e+01 2.667933e+01 2.422032e+01 2.266519e+01 1.782526e+01 1.617112e+01 1.521132e+01 1.617204e+01 1.782661e+01 2.266739e+01 2.422339e+01 2.668088e+01 5.650454e+01 6.261936e+01 4.385807e+01 4.024650e+01 3.970473e+01 3.465038e+01 2.856619e+01 2.256628e+01 1.822239e+01 1.561593e+01 1.453755e+01 1.560794e+01 1.818046e+01 2.253452e+01 2.843095e+01 3.458543e+01 3.939667e+01 3.992103e+01 4.386558e+01 6.229747e+01 5.673987e+01 2.685808e+01 2.425773e+01 2.277502e+01 1.789892e+01 1.621148e+01 1.528465e+01 1.621234e+01 1.790027e+01 2.277719e+01 2.426060e+01 2.685969e+01 5.675177e+01 6.230875e+01 4.387908e+01 3.993365e+01 3.939328e+01 3.457897e+01 2.842591e+01 2.253101e+01 1.817805e+01 1.560672e+01 
1.033391e+01 1.169655e+01 1.519478e+01 2.023724e+01 2.719998e+01 3.437027e+01 4.203714e+01 4.596644e+01 5.062239e+01 5.637388e+01 3.854424e+01 1.866841e+01 2.010372e+01 1.681845e+01 1.322627e+01 1.090804e+01 9.547298e+00 1.090874e+01 1.322754e+01 1.681946e+01 2.010618e+01 1.866845e+01 3.854646e+01 5.637574e+01 5.062609e+01 4.596078e+01 4.202399e+01 3.436019e+01 2.719274e+01 2.023240e+01 1.519135e+01 1.169467e+01 1.033386e+01 1.169320e+01 1.518220e+01 2.023928e+01 2.717746e+01 3.445371e+01 4.201768e+01 4.607349e+01 5.095660e+01 5.629894e+01 3.882618e+01 1.875081e+01 2.015103e+01 1.690503e+01 1.327286e+01 1.094603e+01 9.600424e+00 1.094670e+01 1.327414e+01 1.690603e+01 2.015343e+01 1.875082e+01 3.882850e+01 5.630109e+01 5.095998e+01 4.606803e+01 4.200543e+01 3.444426e+01 2.717056e+01 2.023466e+01 1.517890e+01 1.169145e+01 
5.375883e+00 7.625343e+00 1.239960e+01 1.843526e+01 2.598008e+01 3.491404e+01 4.409239e+01 5.114347e+01 5.541388e+01 4.590462e+01 2.345741e+01 1.565927e+01 1.710768e+01 1.337534e+01 1.026256e+01 6.611865e+00 4.574863e+00 6.612685e+00 1.026412e+01 1.337558e+01 1.710860e+01 1.565699e+01 2.345303e+01 4.590020e+01 5.540078e+01 5.112350e+01 4.407678e+01 3.490340e+01 2.597291e+01 1.843002e+01 1.239564e+01 7.622660e+00 5.375899e+00 7.606857e+00 1.241181e+01 1.839864e+01 2.602408e+01 3.487693e+01 4.433783e+01 5.111463e+01 5.510160e+01 4.584339e+01 2.360306e+01 1.571574e+01 1.716184e+01 1.344486e+01 1.029380e+01 6.636047e+00 4.595014e+00 6.636839e+00 1.029535e+01 1.344511e+01 1.716278e+01 1.571358e+01 2.359893e+01 4.583920e+01 5.508920e+01 5.109642e+01 4.432342e+01 3.486687e+01 2.601727e+01 1.839358e+01 1.240795e+01 7.604207e+00 
5.043737e-03 5.409451e+00 1.119553e+01 1.778344e+01 2.555886e+01 3.542802e+01 4.516619e+01 5.425585e+01 5.797247e+01 3.975838e+01 1.640241e+01 1.475130e+01 1.583842e+01 1.222024e+01 9.149067e+00 4.573928e+00 1.016862e-03 4.575002e+00 9.150669e+00 1.222030e+01 1.583856e+01 1.474792e+01 1.639638e+01 3.975199e+01 5.795668e+01 5.423833e+01 4.515459e+01 3.541978e+01 2.555287e+01 1.777859e+01 1.119146e+01 5.405814e+00 1.533061e-03 5.346536e+00 1.118455e+01 1.766111e+01 2.553355e+01 3.511290e+01 4.522167e+01 5.323316e+01 5.660844e+01 3.986060e+01 1.640178e+01 1.474683e+01 1.585423e+01 1.226700e+01 9.164050e+00 4.594224e+00 8.845044e-04 4.595243e+00 9.165621e+00 1.226702e+01 1.585431e+01 1.474338e+01 1.639554e+01 3.985423e+01 5.659225e+01 5.321507e+01 4.520967e+01 3.510426e+01 2.552743e+01 1.765615e+01 1.118045e+01 5.342878e+00 
5.376462e+00 7.625629e+00 1.239849e+01 1.843310e+01 2.597255e+01 3.490030e+01 4.406316e+01 5.115091e+01 5.543382e+01 4.589435e+01 2.345637e+01 1.565443e+01 1.710757e+01 1.337392e+01 1.026206e+01 6.611387e+00 4.574068e+00 6.612207e+00 1.026361e+01 1.337416e+01 1.710849e+01 1.565216e+01 2.345199e+01 4.588992e+01 5.542070e+01 5.113091e+01 4.404752e+01 3.488966e+01 2.596538e+01 1.842786e+01 1.239454e+01 7.622949e+00 5.376481e+00 7.607474e+00 1.241233e+01 1.839910e+01 2.602519e+01 3.487780e+01 4.434186e+01 5.111244e+01 5.509700e+01 4.584346e+01 2.360273e+01 1.571442e+01 1.716171e+01 1.344452e+01 1.029353e+01 6.635834e+00 4.594454e+00 6.636627e+00 1.029508e+01 1.344477e+01 1.716265e+01 1.571225e+01 2.359860e+01 4.583926e+01 5.508460e+01 5.109422e+01 4.432745e+01 3.486774e+01 2.601838e+01 1.839403e+01 1.240846e+01 7.604823e+00 
1.033311e+01 1.169554e+01 1.519276e+01 2.023406e+01 2.719385e+01 3.436074e+01 4.203073e+01 4.597472e+01 5.063904e+01 5.637918e+01 3.855051e+01 1.867271e+01 2.010444e+01 1.682023e+01 1.322699e+01 1.090887e+01 9.547831e+00 1.090957e+01 1.322826e+01 1.682123e+01 2.010689e+01 1.867275e+01 3.855273e+01 5.638103e+01 5.064276e+01 4.596906e+01 4.201757e+01 3.435064e+01 2.718659e+01 2.022921e+01 1.518932e+01 1.169365e+01 1.033305e+01 1.169278e+01 1.518159e+01 2.023874e+01 2.717657e+01 3.445308e+01 4.201655e+01 4.607238e+01 5.096169e+01 5.629752e+01 3.882820e+01 1.875253e+01 2.015122e+01 1.690584e+01 1.327308e+01 1.094649e+01 9.600580e+00 1.094716e+01 1.327436e+01 1.690683e+01 2.015363e+01 1.875254e+01 3.883052e+01 5.629966e+01 5.096508e+01 4.606692e+01 4.200430e+01 3.444362e+01 2.716968e+01 2.023412e+01 1.517829e+01 1.169104e+01 