# vtk DataFile Version 2.0
Comment goes here
ASCII

DATASET STRUCTURED_POINTS
DIMENSIONS    64   64   1

ORIGIN    0.000   0.000   0.000
SPACING   0.031250.03125   1.000

POINT_DATA   4096
SCALARS uMag double
LOOKUP_TABLE default

3.186405e-03 1.635620e-01 3.229987e-01 4.724154e-01 6.022766e-01 7.125284e-01 7.932777e-01 8.473721e-01 8.658564e-01 8.543806e-01 8.063317e-01 7.296301e-01 6.211741e-01 4.901759e-01 3.375909e-01 1.726005e-01 5.346268e-05 1.726731e-01 3.376825e-01 4.902373e-01 6.212421e-01 7.296712e-01 8.063656e-01 8.543954e-01 8.658524e-01 8.473584e-01 7.932383e-01 7.124886e-01 6.022089e-01 4.723557e-01 3.229130e-01 1.634914e-01 3.278205e-03 1.691684e-01 3.294020e-01 4.779021e-01 6.084796e-01 7.177503e-01 7.990966e-01 8.521428e-01 8.710495e-01 8.584726e-01 8.106105e-01 7.327952e-01 6.242407e-01 4.921851e-01 3.391959e-01 1.732908e-01 5.837438e-05 1.733608e-01 3.392868e-01 4.922440e-01 6.243081e-01 7.328341e-01 8.106440e-01 8.584854e-01 8.710453e-01 8.521277e-01 7.990571e-01 7.177095e-01 6.084120e-01 4.778417e-01 3.293164e-01 1.690976e-01 
1.663250e-01 2.340431e-01 3.647986e-01 5.044550e-01 6.277844e-01 7.374336e-01 8.143849e-01 8.705408e-01 8.857787e-01 8.776289e-01 8.270829e-01 7.548012e-01 6.463614e-01 5.228347e-01 3.798912e-01 2.447398e-01 1.726382e-01 2.447826e-01 3.799647e-01 5.228823e-01 6.464189e-01 7.548333e-01 8.271101e-01 8.776394e-01 8.857726e-01 8.705284e-01 8.143489e-01 7.374009e-01 6.277265e-01 5.044084e-01 3.647323e-01 2.340023e-01 1.663267e-01 2.379932e-01 3.704709e-01 5.095960e-01 6.337331e-01 7.424841e-01 8.200600e-01 8.752007e-01 8.908815e-01 8.816545e-01 8.313158e-01 7.579565e-01 6.494371e-01 5.249314e-01 3.816068e-01 2.457901e-01 1.733374e-01 2.458323e-01 3.816812e-01 5.249783e-01 6.494955e-01 7.579877e-01 8.313439e-01 8.816642e-01 8.908760e-01 8.751876e-01 8.200245e-01 7.424507e-01 6.336753e-01 5.095490e-01 3.704044e-01 2.379517e-01 
3.412499e-01 3.769838e-01 4.695116e-01 5.817732e-01 6.918204e-01 7.897206e-01 8.636799e-01 9.143029e-01 9.319330e-01 9.222747e-01 8.785142e-01 8.094742e-01 7.140327e-01 6.034956e-01 4.891192e-01 3.922789e-01 3.544277e-01 3.923087e-01 4.891864e-01 6.035425e-01 7.140949e-01 8.095096e-01 8.785462e-01 9.222881e-01 9.319280e-01 9.142906e-01 8.636409e-01 7.896849e-01 6.917581e-01 5.817245e-01 4.694499e-01 3.769528e-01 3.412510e-01 3.796038e-01 4.742321e-01 5.865305e-01 6.976171e-01 7.947825e-01 8.694754e-01 9.191244e-01 9.372672e-01 9.265417e-01 8.830276e-01 8.129406e-01 7.174171e-01 6.060167e-01 4.912241e-01 3.940037e-01 3.557671e-01 3.940322e-01 4.912906e-01 6.060613e-01 7.174787e-01 8.129737e-01 8.830592e-01 9.265532e-01 9.372620e-01 9.191106e-01 8.694363e-01 7.947458e-01 6.975546e-01 5.864811e-01 4.741697e-01 3.795720e-01 
5.228279e-01 5.475855e-01 6.157560e-01 7.080874e-01 8.014502e-01 8.916685e-01 9.569162e-01 1.007661e+00 1.021072e+00 1.016710e+00 9.731126e-01 9.145987e-01 8.268796e-01 7.353283e-01 6.416734e-01 5.717331e-01 5.456093e-01 5.717468e-01 6.417208e-01 7.353536e-01 8.269267e-01 9.146186e-01 9.731342e-01 1.016717e+00 1.021063e+00 1.007652e+00 9.568822e-01 8.916454e-01 8.014033e-01 7.080587e-01 6.157168e-01 5.475704e-01 5.228288e-01 5.495013e-01 6.195853e-01 7.122484e-01 8.067992e-01 8.964727e-01 9.625704e-01 1.012423e+00 1.026448e+00 1.021072e+00 9.778077e-01 9.183416e-01 8.305969e-01 7.383902e-01 6.443429e-01 5.743203e-01 5.477461e-01 5.743337e-01 6.443911e-01 7.384150e-01 8.306451e-01 9.183608e-01 9.778302e-01 1.021078e+00 1.026440e+00 1.012413e+00 9.625366e-01 8.964488e-01 8.067520e-01 7.122190e-01 6.195451e-01 5.494855e-01 
7.312774e-01 7.462237e-01 7.988460e-01 8.682225e-01 9.470115e-01 1.021206e+00 1.080972e+00 1.124163e+00 1.140295e+00 1.135697e+00 1.102412e+00 1.050821e+00 9.815423e-01 9.044810e-01 8.357106e-01 7.802236e-01 7.656889e-01 7.802338e-01 8.357580e-01 9.045035e-01 9.815957e-01 1.050843e+00 1.102439e+00 1.135708e+00 1.140286e+00 1.124155e+00 1.080933e+00 1.021178e+00 9.469571e-01 8.681882e-01 7.988040e-01 7.462069e-01 7.312782e-01 7.478110e-01 8.021943e-01 8.720755e-01 9.521953e-01 1.026026e+00 1.086805e+00 1.129181e+00 1.146066e+00 1.140480e+00 1.107619e+00 1.055122e+00 9.858247e-01 9.082389e-01 8.389952e-01 7.836122e-01 7.684946e-01 7.836215e-01 8.390421e-01 9.082592e-01 9.858773e-01 1.055142e+00 1.107646e+00 1.140488e+00 1.146057e+00 1.129171e+00 1.086765e+00 1.025998e+00 9.521404e-01 8.720406e-01 8.021511e-01 7.477938e-01 
9.537176e-01 9.668784e-01 1.008785e+00 1.069205e+00 1.135529e+00 1.204835e+00 1.256064e+00 1.300880e+00 1.312494e+00 1.315254e+00 1.281769e+00 1.242771e+00 1.179219e+00 1.119303e+00 1.060672e+00 1.019771e+00 1.006660e+00 1.019771e+00 1.060707e+00 1.119304e+00 1.179256e+00 1.242772e+00 1.281780e+00 1.315255e+00 1.312477e+00 1.300875e+00 1.256030e+00 1.204825e+00 1.135494e+00 1.069192e+00 1.008762e+00 9.668726e-01 9.537184e-01 9.682556e-01 1.011763e+00 1.072737e+00 1.140429e+00 1.209494e+00 1.261852e+00 1.305931e+00 1.318453e+00 1.320279e+00 1.287376e+00 1.247577e+00 1.184115e+00 1.123886e+00 1.064794e+00 1.024244e+00 1.010427e+00 1.024244e+00 1.064830e+00 1.123886e+00 1.184153e+00 1.247577e+00 1.287388e+00 1.320278e+00 1.318437e+00 1.305926e+00 1.261819e+00 1.209483e+00 1.140392e+00 1.072724e+00 1.011738e+00 9.682492e-01 
1.224510e+00 1.230649e+00 1.266453e+00 1.310277e+00 1.367378e+00 1.421694e+00 1.469255e+00 1.506507e+00 1.522915e+00 1.526531e+00 1.506450e+00 1.474853e+00 1.431122e+00 1.380378e+00 1.341635e+00 1.303645e+00 1.300621e+00 1.303642e+00 1.341677e+00 1.380374e+00 1.431171e+00 1.474858e+00 1.506471e+00 1.526539e+00 1.522897e+00 1.506502e+00 1.469210e+00 1.421672e+00 1.367326e+00 1.310249e+00 1.266418e+00 1.230636e+00 1.224511e+00 1.231938e+00 1.269272e+00 1.313736e+00 1.372283e+00 1.426508e+00 1.475366e+00 1.511968e+00 1.529478e+00 1.532177e+00 1.512830e+00 1.480445e+00 1.436831e+00 1.385861e+00 1.346539e+00 1.309069e+00 1.305151e+00 1.309065e+00 1.346580e+00 1.385855e+00 1.436879e+00 1.480447e+00 1.512851e+00 1.532183e+00 1.529460e+00 1.511962e+00 1.475320e+00 1.426485e+00 1.372230e+00 1.313707e+00 1.269236e+00 1.231924e+00 
1.517751e+00 1.525587e+00 1.555897e+00 1.599273e+00 1.649992e+00 1.706215e+00 1.748822e+00 1.792452e+00 1.805153e+00 1.819169e+00 1.796485e+00 1.778394e+00 1.734720e+00 1.699661e+00 1.663272e+00 1.638336e+00 1.632245e+00 1.638323e+00 1.663306e+00 1.699632e+00 1.734751e+00 1.778370e+00 1.796479e+00 1.819161e+00 1.805119e+00 1.792454e+00 1.748783e+00 1.706217e+00 1.649965e+00 1.599272e+00 1.555884e+00 1.525586e+00 1.517752e+00 1.526822e+00 1.558596e+00 1.602655e+00 1.654826e+00 1.711049e+00 1.755049e+00 1.798092e+00 1.812084e+00 1.825212e+00 1.803506e+00 1.784706e+00 1.741342e+00 1.706263e+00 1.669317e+00 1.645178e+00 1.638013e+00 1.645165e+00 1.669352e+00 1.706235e+00 1.741374e+00 1.784681e+00 1.803502e+00 1.825203e+00 1.812051e+00 1.798092e+00 1.755010e+00 1.711049e+00 1.654798e+00 1.602653e+00 1.558582e+00 1.526821e+00 
1.886210e+00 1.887286e+00 1.916337e+00 1.946357e+00 1.993271e+00 2.036505e+00 2.079597e+00 2.117053e+00 2.138812e+00 2.155819e+00 2.151554e+00 2.141723e+00 2.121306e+00 2.090143e+00 2.073338e+00 2.041674e+00 2.047973e+00 2.041655e+00 2.073381e+00 2.090102e+00 2.121356e+00 2.141705e+00 2.151565e+00 2.155827e+00 2.138775e+00 2.117052e+00 2.079536e+00 2.036481e+00 1.993214e+00 1.946324e+00 1.916304e+00 1.887271e+00 1.886211e+00 1.888527e+00 1.919030e+00 1.949843e+00 1.998275e+00 2.041677e+00 2.086335e+00 2.123319e+00 2.146628e+00 2.162752e+00 2.159710e+00 2.149121e+00 2.129085e+00 2.097941e+00 2.080411e+00 2.049742e+00 2.054690e+00 2.049722e+00 2.080453e+00 2.097896e+00 2.129134e+00 2.149100e+00 2.159720e+00 2.162757e+00 2.146592e+00 2.123318e+00 2.086274e+00 2.041653e+00 1.998216e+00 1.949811e+00 1.918995e+00 1.888512e+00 
2.286942e+00 2.292329e+00 2.319219e+00 2.356185e+00 2.403510e+00 2.457652e+00 2.502553e+00 2.554800e+00 2.576117e+00 2.609350e+00 2.599476e+00 2.605458e+00 2.577388e+00 2.564015e+00 2.543462e+00 2.530278e+00 2.529577e+00 2.530246e+00 2.543503e+00 2.563944e+00 2.577417e+00 2.605398e+00 2.599437e+00 2.609331e+00 2.576046e+00 2.554806e+00 2.502502e+00 2.457660e+00 2.403491e+00 2.356188e+00 2.319217e+00 2.292329e+00 2.286943e+00 2.293606e+00 2.321938e+00 2.359799e+00 2.408639e+00 2.463073e+00 2.509614e+00 2.561458e+00 2.584547e+00 2.616884e+00 2.608603e+00 2.613844e+00 2.586500e+00 2.573356e+00 2.552139e+00 2.540323e+00 2.537998e+00 2.540292e+00 2.552181e+00 2.573287e+00 2.586531e+00 2.613784e+00 2.608566e+00 2.616864e+00 2.584477e+00 2.561462e+00 2.509562e+00 2.463080e+00 2.408617e+00 2.359801e+00 2.321934e+00 2.293606e+00 
2.796730e+00 2.795431e+00 2.824869e+00 2.851186e+00 2.900724e+00 2.944804e+00 2.996749e+00 3.046080e+00 3.084028e+00 3.125539e+00 3.144148e+00 3.163538e+00 3.168644e+00 3.154076e+00 3.156146e+00 3.118474e+00 3.132934e+00 3.118430e+00 3.156191e+00 3.153958e+00 3.168698e+00 3.163487e+00 3.144134e+00 3.125556e+00 3.083950e+00 3.046081e+00 2.996658e+00 2.944762e+00 2.900654e+00 2.851134e+00 2.824833e+00 2.795408e+00 2.796732e+00 2.796771e+00 2.827665e+00 2.855048e+00 2.906153e+00 2.950776e+00 3.004536e+00 3.053663e+00 3.093733e+00 3.134362e+00 3.154982e+00 3.173490e+00 3.179498e+00 3.165123e+00 3.166275e+00 3.130243e+00 3.142631e+00 3.130197e+00 3.166318e+00 3.165002e+00 3.179551e+00 3.173434e+00 3.154969e+00 3.134375e+00 3.093657e+00 3.053663e+00 3.004445e+00 2.950734e+00 2.906082e+00 2.854996e+00 2.827627e+00 2.796748e+00 
3.349606e+00 3.355258e+00 3.386328e+00 3.427856e+00 3.487540e+00 3.555009e+00 3.621731e+00 3.700601e+00 3.748208e+00 3.818384e+00 3.830162e+00 3.870522e+00 3.854853e+00 3.863596e+00 3.854173e+00 3.853088e+00 3.857993e+00 3.853022e+00 3.854227e+00 3.863454e+00 3.854883e+00 3.870403e+00 3.830042e+00 3.818354e+00 3.748064e+00 3.700609e+00 3.621661e+00 3.555013e+00 3.487532e+00 3.427851e+00 3.386338e+00 3.355254e+00 3.349607e+00 3.356707e+00 3.389263e+00 3.432052e+00 3.493288e+00 3.561532e+00 3.630099e+00 3.708910e+00 3.758881e+00 3.828124e+00 3.842481e+00 3.881851e+00 3.867728e+00 3.876871e+00 3.866681e+00 3.867796e+00 3.870171e+00 3.867732e+00 3.866736e+00 3.876732e+00 3.867761e+00 3.881733e+00 3.842365e+00 3.828091e+00 3.758738e+00 3.708915e+00 3.630026e+00 3.561534e+00 3.493278e+00 3.432047e+00 3.389272e+00 3.356705e+00 
4.052185e+00 4.052469e+00 4.090449e+00 4.126778e+00 4.197866e+00 4.262242e+00 4.347699e+00 4.431654e+00 4.509258e+00 4.599917e+00 4.659497e+00 4.729910e+00 4.772248e+00 4.776527e+00 4.796314e+00 4.717695e+00 4.728484e+00 4.717618e+00 4.796342e+00 4.776218e+00 4.772313e+00 4.729815e+00 4.659418e+00 4.599969e+00 4.509095e+00 4.431641e+00 4.347555e+00 4.262149e+00 4.197775e+00 4.126682e+00 4.090407e+00 4.052431e+00 4.052186e+00 4.054023e+00 4.093518e+00 4.131347e+00 4.204018e+00 4.269556e+00 4.357013e+00 4.441302e+00 4.521743e+00 4.611570e+00 4.674497e+00 4.743643e+00 4.787954e+00 4.792457e+00 4.811026e+00 4.734997e+00 4.742482e+00 4.734919e+00 4.811049e+00 4.792145e+00 4.788016e+00 4.743542e+00 4.674420e+00 4.611618e+00 4.521583e+00 4.441288e+00 4.356870e+00 4.269464e+00 4.203926e+00 4.131252e+00 4.093473e+00 4.053984e+00 
4.807844e+00 4.818156e+00 4.863730e+00 4.926245e+00 5.023872e+00 5.130464e+00 5.256880e+00 5.397484e+00 5.513227e+00 5.661469e+00 5.724381e+00 5.826547e+00 5.818143e+00 5.845717e+00 5.829183e+00 5.845844e+00 5.861168e+00 5.845691e+00 5.829239e+00 5.845446e+00 5.818172e+00 5.826324e+00 5.724050e+00 5.661436e+00 5.512952e+00 5.397481e+00 5.256793e+00 5.130438e+00 5.023886e+00 4.926213e+00 4.863756e+00 4.818142e+00 4.807844e+00 4.819886e+00 4.867042e+00 4.931370e+00 5.030549e+00 5.138740e+00 5.267098e+00 5.408424e+00 5.527202e+00 5.674602e+00 5.741726e+00 5.842271e+00 5.837112e+00 5.865031e+00 5.847626e+00 5.867801e+00 5.878951e+00 5.867651e+00 5.847683e+00 5.864766e+00 5.837147e+00 5.842048e+00 5.741402e+00 5.674564e+00 5.526926e+00 5.408418e+00 5.267007e+00 5.138713e+00 5.030558e+00 4.931339e+00 4.867066e+00 4.819873e+00 
5.756181e+00 5.765652e+00 5.824574e+00 5.895288e+00 6.021586e+00 6.143785e+00 6.313355e+00 6.480488e+00 6.651612e+00 6.847223e+00 6.990686e+00 7.166091e+00 7.276322e+00 7.321837e+00 7.364528e+00 7.095122e+00 7.015481e+00 7.095100e+00 7.364422e+00 7.320939e+00 7.276422e+00 7.166007e+00 6.990416e+00 6.847375e+00 6.651279e+00 6.480397e+00 6.313135e+00 6.143572e+00 6.021468e+00 5.895114e+00 5.824526e+00 5.765590e+00 5.756183e+00 5.767509e+00 5.828065e+00 5.900880e+00 6.028742e+00 6.153105e+00 6.324693e+00 6.493326e+00 6.668057e+00 6.863273e+00 7.012433e+00 7.185764e+00 7.300327e+00 7.345727e+00 7.386543e+00 7.121142e+00 7.035896e+00 7.121120e+00 7.386427e+00 7.344830e+00 7.300422e+00 7.185669e+00 7.012168e+00 6.863420e+00 6.667730e+00 6.493239e+00 6.324474e+00 6.152896e+00 6.028622e+00 5.900708e+00 5.828013e+00 5.767445e+00 
6.761760e+00 6.785401e+00 6.862183e+00 6.975643e+00 7.157235e+00 7.351443e+00 7.613783e+00 7.887049e+00 8.168880e+00 8.492116e+00 8.701205e+00 8.944915e+00 8.939939e+00 8.936265e+00 8.781650e+00 8.859259e+00 8.932823e+00 8.858737e+00 8.781598e+00 8.935819e+00 8.939917e+00 8.944519e+00 8.700311e+00 8.492121e+00 8.168431e+00 7.886987e+00 7.613723e+00 7.351328e+00 7.157280e+00 6.975548e+00 6.862216e+00 6.785365e+00 6.761759e+00 6.787474e+00 6.866002e+00 6.981970e+00 7.165109e+00 7.362233e+00 7.626389e+00 7.902175e+00 8.187547e+00 8.510809e+00 8.726809e+00 8.967666e+00 8.969744e+00 8.965566e+00 8.809723e+00 8.893041e+00 8.959197e+00 8.892528e+00 8.809671e+00 8.965133e+00 8.969735e+00 8.967268e+00 8.725927e+00 8.510804e+00 8.187094e+00 7.902108e+00 7.626320e+00 7.362118e+00 7.165148e+00 6.981878e+00 6.866035e+00 6.787440e+00 
7.992322e+00 8.025563e+00 8.126070e+00 8.277269e+00 8.521051e+00 8.776980e+00 9.137803e+00 9.497282e+00 9.893209e+00 1.033073e+01 1.066747e+01 1.107116e+01 1.129436e+01 1.153481e+01 1.175003e+01 1.053856e+01 9.758740e+00 1.053957e+01 1.174933e+01 1.153169e+01 1.129463e+01 1.107164e+01 1.066659e+01 1.033105e+01 9.892592e+00 9.496900e+00 9.137494e+00 8.776531e+00 8.520899e+00 8.276986e+00 8.126007e+00 8.025472e+00 7.992324e+00 8.027747e+00 8.130107e+00 8.284056e+00 8.529456e+00 8.788976e+00 9.151553e+00 9.514993e+00 9.914874e+00 1.035398e+01 1.070058e+01 1.110097e+01 1.133423e+01 1.157305e+01 1.178423e+01 1.057842e+01 9.788176e+00 1.057943e+01 1.178350e+01 1.156994e+01 1.133450e+01 1.110142e+01 1.069971e+01 1.035429e+01 9.914266e+00 9.514622e+00 9.151244e+00 8.788535e+00 8.529300e+00 8.283773e+00 8.130040e+00 8.027653e+00 
9.266683e+00 9.320770e+00 9.456563e+00 9.678688e+00 1.002731e+01 1.040496e+01 1.095609e+01 1.150668e+01 1.217435e+01 1.289444e+01 1.354233e+01 1.418355e+01 1.436308e+01 1.417961e+01 1.290376e+01 1.352444e+01 1.417230e+01 1.352167e+01 1.290191e+01 1.417853e+01 1.436249e+01 1.418317e+01 1.354010e+01 1.289457e+01 1.217394e+01 1.150638e+01 1.095615e+01 1.040465e+01 1.002736e+01 9.678483e+00 9.456567e+00 9.320700e+00 9.266680e+00 9.323133e+00 9.460945e+00 9.686175e+00 1.003652e+01 1.041878e+01 1.097138e+01 1.152830e+01 1.219907e+01 1.292314e+01 1.358190e+01 1.421884e+01 1.441494e+01 1.422872e+01 1.295043e+01 1.357720e+01 1.421137e+01 1.357445e+01 1.294857e+01 1.422766e+01 1.441439e+01 1.421844e+01 1.357970e+01 1.292325e+01 1.219864e+01 1.152799e+01 1.097142e+01 1.041847e+01 1.003656e+01 9.685974e+00 9.460953e+00 9.323066e+00 
1.076153e+01 1.084420e+01 1.101975e+01 1.133553e+01 1.180563e+01 1.234346e+01 1.311454e+01 1.390734e+01 1.485163e+01 1.591605e+01 1.682299e+01 1.774170e+01 1.798272e+01 1.835387e+01 1.984723e+01 1.453690e+01 9.808300e+00 1.454178e+01 1.984583e+01 1.834824e+01 1.798224e+01 1.774602e+01 1.682030e+01 1.591593e+01 1.485078e+01 1.390615e+01 1.311415e+01 1.234267e+01 1.180541e+01 1.133513e+01 1.101965e+01 1.084408e+01 1.076153e+01 1.084657e+01 1.102434e+01 1.134320e+01 1.181541e+01 1.235823e+01 1.313083e+01 1.393204e+01 1.487881e+01 1.595182e+01 1.687523e+01 1.779185e+01 1.806038e+01 1.841281e+01 1.989010e+01 1.460485e+01 9.861220e+00 1.460971e+01 1.988862e+01 1.840723e+01 1.805992e+01 1.779608e+01 1.687259e+01 1.595171e+01 1.487797e+01 1.393088e+01 1.313043e+01 1.235745e+01 1.181519e+01 1.134281e+01 1.102424e+01 1.084645e+01 
1.224519e+01 1.236044e+01 1.259837e+01 1.303653e+01 1.369111e+01 1.444310e+01 1.558328e+01 1.671098e+01 1.824481e+01 1.991399e+01 2.187354e+01 2.316562e+01 2.462488e+01 2.771470e+01 2.529911e+01 1.927965e+01 1.469703e+01 1.927606e+01 2.528688e+01 2.769068e+01 2.462427e+01 2.316543e+01 2.187181e+01 1.991327e+01 1.824537e+01 1.671000e+01 1.558337e+01 1.444244e+01 1.369098e+01 1.303616e+01 1.259826e+01 1.236032e+01 1.224519e+01 1.236282e+01 1.260314e+01 1.304434e+01 1.370145e+01 1.445899e+01 1.560097e+01 1.674116e+01 1.827522e+01 1.996330e+01 2.193552e+01 2.323098e+01 2.473734e+01 2.782012e+01 2.536535e+01 1.931311e+01 1.468647e+01 1.930967e+01 2.535316e+01 2.779631e+01 2.473684e+01 2.323073e+01 2.193378e+01 1.996257e+01 1.827573e+01 1.674019e+01 1.560103e+01 1.445834e+01 1.370133e+01 1.304398e+01 1.260303e+01 1.236270e+01 
1.386865e+01 1.403977e+01 1.433956e+01 1.496050e+01 1.582226e+01 1.691209e+01 1.850357e+01 2.018791e+01 2.241766e+01 2.548042e+01 2.789332e+01 2.945960e+01 3.099002e+01 3.276342e+01 3.240326e+01 3.207661e+01 3.431475e+01 3.207750e+01 3.239164e+01 3.276665e+01 3.100686e+01 2.945275e+01 2.789522e+01 2.547481e+01 2.241721e+01 2.018546e+01 1.850296e+01 1.691103e+01 1.582187e+01 1.496005e+01 1.433937e+01 1.403965e+01 1.386865e+01 1.404192e+01 1.434424e+01 1.496773e+01 1.583303e+01 1.692756e+01 1.852250e+01 2.022000e+01 2.244686e+01 2.554101e+01 2.797158e+01 2.957567e+01 3.115314e+01 3.290751e+01 3.250681e+01 3.214969e+01 3.433438e+01 3.215074e+01 3.249506e+01 3.291042e+01 3.116982e+01 2.956886e+01 2.797340e+01 2.553554e+01 2.244638e+01 2.021760e+01 1.852188e+01 1.692651e+01 1.583263e+01 1.496727e+01 1.434405e+01 1.404178e+01 
1.534669e+01 1.556829e+01 1.596524e+01 1.679565e+01 1.794473e+01 1.943881e+01 2.169623e+01 2.393900e+01 2.769021e+01 3.233966e+01 3.360918e+01 3.240657e+01 3.263858e+01 3.334192e+01 3.611357e+01 3.868615e+01 3.945102e+01 3.869939e+01 3.612489e+01 3.335080e+01 3.263951e+01 3.240192e+01 3.361772e+01 3.233603e+01 2.769032e+01 2.393706e+01 2.169534e+01 1.943768e+01 1.794405e+01 1.679508e+01 1.596489e+01 1.556812e+01 1.534668e+01 1.557015e+01 1.596955e+01 1.680176e+01 1.795497e+01 1.945180e+01 2.171539e+01 2.397155e+01 2.771865e+01 3.243974e+01 3.370265e+01 3.252920e+01 3.274192e+01 3.352051e+01 3.620503e+01 3.881642e+01 3.956971e+01 3.883013e+01 3.621559e+01 3.352926e+01 3.274342e+01 3.252478e+01 3.371073e+01 3.243618e+01 2.771869e+01 2.396965e+01 2.171450e+01 1.945069e+01 1.795430e+01 1.680120e+01 1.596923e+01 1.556997e+01 
1.677031e+01 1.707480e+01 1.755996e+01 1.868345e+01 2.012327e+01 2.223464e+01 2.523235e+01 2.840341e+01 3.492145e+01 3.737824e+01 2.979458e+01 2.823838e+01 3.117781e+01 3.643136e+01 4.142223e+01 4.039013e+01 4.011882e+01 4.037719e+01 4.142331e+01 3.642737e+01 3.116713e+01 2.823633e+01 2.979424e+01 3.737309e+01 3.491796e+01 2.840130e+01 2.523080e+01 2.223362e+01 2.012247e+01 1.868297e+01 1.755961e+01 1.707466e+01 1.677030e+01 1.707597e+01 1.756307e+01 1.868752e+01 2.013228e+01 2.224391e+01 2.525458e+01 2.842700e+01 3.495302e+01 3.748516e+01 2.979985e+01 2.822633e+01 3.124983e+01 3.658950e+01 4.153341e+01 4.049383e+01 4.019147e+01 4.048161e+01 4.153390e+01 3.658625e+01 3.123975e+01 2.822358e+01 2.979944e+01 3.748016e+01 3.494953e+01 2.842489e+01 2.525301e+01 2.224286e+01 2.013147e+01 1.868703e+01 1.756273e+01 1.707582e+01 
1.780591e+01 1.817631e+01 1.879126e+01 2.022443e+01 2.202033e+01 2.489630e+01 2.857054e+01 3.345738e+01 3.999081e+01 2.693046e+01 1.636629e+01 2.493663e+01 3.438948e+01 3.905795e+01 3.950283e+01 4.161639e+01 4.172269e+01 4.159037e+01 3.947714e+01 3.904821e+01 3.440232e+01 2.494728e+01 1.636287e+01 2.692996e+01 3.998403e+01 3.345338e+01 2.856741e+01 2.489452e+01 2.201883e+01 2.022363e+01 1.879064e+01 1.817608e+01 1.780590e+01 1.817696e+01 1.879305e+01 2.022635e+01 2.202612e+01 2.489751e+01 2.858834e+01 3.344249e+01 4.003972e+01 2.702550e+01 1.625249e+01 2.500691e+01 3.449391e+01 3.914797e+01 3.963612e+01 4.168205e+01 4.177330e+01 4.165644e+01 3.961048e+01 3.913861e+01 3.450666e+01 2.501697e+01 1.624943e+01 2.702506e+01 4.003311e+01 3.343855e+01 2.858528e+01 2.489574e+01 2.202467e+01 2.022555e+01 1.879246e+01 1.817672e+01 
1.849084e+01 1.894865e+01 1.968087e+01 2.146668e+01 2.357123e+01 2.733248e+01 3.124052e+01 3.784572e+01 3.346643e+01 4.227438e+00 2.115249e+01 3.885794e+01 4.718805e+01 3.545144e+01 3.669135e+01 4.019216e+01 3.886438e+01 4.017750e+01 3.667415e+01 3.544329e+01 4.720416e+01 3.885705e+01 2.112552e+01 4.239524e+00 3.346458e+01 3.784267e+01 3.123747e+01 2.733108e+01 2.356986e+01 2.146608e+01 1.968033e+01 1.894848e+01 1.849083e+01 1.894804e+01 1.967909e+01 2.146475e+01 2.356821e+01 2.732819e+01 3.124220e+01 3.783420e+01 3.362629e+01 4.312200e+00 2.117190e+01 3.884212e+01 4.722302e+01 3.553587e+01 3.676053e+01 4.028540e+01 3.894232e+01 4.027087e+01 3.674333e+01 3.552773e+01 4.723902e+01 3.884104e+01 2.114525e+01 4.324199e+00 3.362431e+01 3.783104e+01 3.123917e+01 2.732675e+01 2.356685e+01 2.146412e+01 1.967857e+01 1.894786e+01 
1.848777e+01 1.899946e+01 1.989333e+01 2.195151e+01 2.448145e+01 2.874487e+01 3.320778e+01 3.751931e+01 2.210943e+01 1.379738e+01 3.890997e+01 6.025112e+01 4.757574e+01 2.912041e+01 3.349300e+01 3.070420e+01 3.037206e+01 3.069748e+01 3.348714e+01 2.910873e+01 4.758780e+01 6.025243e+01 3.888554e+01 1.378035e+01 2.210948e+01 3.751665e+01 3.320361e+01 2.874297e+01 2.447959e+01 2.195063e+01 1.989261e+01 1.899921e+01 1.848776e+01 1.899835e+01 1.988955e+01 2.194876e+01 2.447245e+01 2.874344e+01 3.318900e+01 3.755853e+01 2.235831e+01 1.378512e+01 3.881008e+01 6.017963e+01 4.775328e+01 2.919128e+01 3.357859e+01 3.080729e+01 3.045161e+01 3.080069e+01 3.357261e+01 2.917983e+01 4.776524e+01 6.018075e+01 3.878552e+01 1.376872e+01 2.235830e+01 3.755568e+01 3.318489e+01 2.874151e+01 2.447063e+01 2.194787e+01 1.988886e+01 1.899809e+01 
1.786637e+01 1.842840e+01 1.950453e+01 2.178833e+01 2.480608e+01 2.920630e+01 3.425983e+01 3.452328e+01 2.099067e+01 2.738514e+01 5.733145e+01 6.407278e+01 3.065341e+01 2.329771e+01 2.627430e+01 2.328462e+01 2.434078e+01 2.328194e+01 2.627556e+01 2.329503e+01 3.066568e+01 6.408704e+01 5.732041e+01 2.737222e+01 2.099782e+01 3.452071e+01 3.425654e+01 2.920464e+01 2.480462e+01 2.178758e+01 1.950395e+01 1.842819e+01 1.786636e+01 1.842562e+01 1.949684e+01 2.177893e+01 2.478497e+01 2.918681e+01 3.421335e+01 3.456918e+01 2.118575e+01 2.729697e+01 5.711750e+01 6.422134e+01 3.089820e+01 2.330592e+01 2.638139e+01 2.334566e+01 2.441929e+01 2.334305e+01 2.638262e+01 2.330329e+01 3.091047e+01 6.423540e+01 5.710606e+01 2.728427e+01 2.119179e+01 3.456626e+01 3.421004e+01 2.918512e+01 2.478354e+01 2.177819e+01 1.949630e+01 1.842541e+01 
1.638244e+01 1.699540e+01 1.827134e+01 2.080615e+01 2.418754e+01 2.882428e+01 3.363948e+01 3.338977e+01 2.566217e+01 3.785104e+01 6.511981e+01 5.020860e+01 1.801217e+01 2.042665e+01 1.922392e+01 1.728437e+01 1.785991e+01 1.728268e+01 1.922474e+01 2.042713e+01 1.801814e+01 5.022167e+01 6.511943e+01 3.785201e+01 2.566540e+01 3.338135e+01 3.363602e+01 2.882195e+01 2.418630e+01 2.080531e+01 1.827084e+01 1.699517e+01 1.638244e+01 1.699125e+01 1.826221e+01 2.079223e+01 2.416614e+01 2.879728e+01 3.361802e+01 3.343019e+01 2.581584e+01 3.768005e+01 6.497634e+01 5.049180e+01 1.811143e+01 2.045465e+01 1.931500e+01 1.732729e+01 1.793163e+01 1.732562e+01 1.931578e+01 2.045508e+01 1.811740e+01 5.050452e+01 6.497543e+01 3.768020e+01 2.581767e+01 3.342202e+01 3.361459e+01 2.879500e+01 2.416490e+01 2.079138e+01 1.826171e+01 1.699100e+01 
1.420526e+01 1.489627e+01 1.640892e+01 1.925739e+01 2.293640e+01 2.793912e+01 3.251608e+01 3.457858e+01 3.031834e+01 4.282863e+01 6.115376e+01 3.414802e+01 1.327075e+01 1.590088e+01 1.359313e+01 1.286066e+01 1.300009e+01 1.285999e+01 1.359381e+01 1.590186e+01 1.327313e+01 3.414936e+01 6.115117e+01 4.282727e+01 3.030485e+01 3.456624e+01 3.251208e+01 2.793637e+01 2.293517e+01 1.925638e+01 1.640842e+01 1.489598e+01 1.420524e+01 1.489162e+01 1.640038e+01 1.924165e+01 2.291821e+01 2.790647e+01 3.250544e+01 3.459207e+01 3.054538e+01 4.267060e+01 6.113496e+01 3.446484e+01 1.331200e+01 1.596907e+01 1.366030e+01 1.289359e+01 1.305788e+01 1.289296e+01 1.366100e+01 1.597013e+01 1.331446e+01 3.446649e+01 6.113316e+01 4.266975e+01 3.053326e+01 3.458072e+01 3.250184e+01 2.790397e+01 2.291711e+01 1.924072e+01 1.639992e+01 1.489136e+01 
1.128481e+01 1.209954e+01 1.399938e+01 1.723910e+01 2.136669e+01 2.669424e+01 3.192944e+01 3.615993e+01 3.555394e+01 4.449954e+01 5.099966e+01 2.235089e+01 1.127213e+01 1.211685e+01 9.841604e+00 9.209600e+00 8.771257e+00 9.208664e+00 9.841042e+00 1.211568e+01 1.127144e+01 2.234671e+01 5.099925e+01 4.449714e+01 3.554255e+01 3.615489e+01 3.192883e+01 2.669390e+01 2.136662e+01 1.723877e+01 1.399920e+01 1.209938e+01 1.128482e+01 1.209215e+01 1.398621e+01 1.721379e+01 2.133365e+01 2.663446e+01 3.185973e+01 3.605380e+01 3.553321e+01 4.427938e+01 5.099625e+01 2.255664e+01 1.128410e+01 1.216701e+01 9.874991e+00 9.230158e+00 8.807461e+00 9.229231e+00 9.874427e+00 1.216587e+01 1.128350e+01 2.255248e+01 5.099581e+01 4.427727e+01 3.552256e+01 3.604869e+01 3.185899e+01 2.663400e+01 2.133350e+01 1.721340e+01 1.398600e+01 1.209196e+01 
7.859177e+00 8.915093e+00 1.143474e+01 1.514719e+01 1.983028e+01 2.538846e+01 3.162094e+01 3.709369e+01 4.020097e+01 4.358018e+01 3.798731e+01 1.497785e+01 1.036627e+01 9.261339e+00 7.347335e+00 6.230639e+00 5.519792e+00 6.230096e+00 7.347093e+00 9.259664e+00 1.036436e+01 1.497249e+01 3.798664e+01 4.357875e+01 4.019818e+01 3.709415e+01 3.162159e+01 2.538860e+01 1.983007e+01 1.514666e+01 1.143428e+01 8.914721e+00 7.859164e+00 8.908223e+00 1.142309e+01 1.512717e+01 1.980377e+01 2.534742e+01 3.156905e+01 3.701639e+01 4.010917e+01 4.348779e+01 3.807883e+01 1.510604e+01 1.038303e+01 9.304069e+00 7.370776e+00 6.249458e+00 5.545687e+00 6.248912e+00 7.370523e+00 9.302371e+00 1.038109e+01 1.510062e+01 3.807807e+01 4.348615e+01 4.010591e+01 3.701659e+01 3.156959e+01 2.534752e+01 1.980354e+01 1.512665e+01 1.142264e+01 8.907870e+00 
4.020534e+00 5.731547e+00 9.263057e+00 1.351199e+01 1.875032e+01 2.449029e+01 3.156935e+01 3.766541e+01 4.309192e+01 4.124205e+01 2.578146e+01 1.104174e+01 9.836519e+00 7.611675e+00 5.838589e+00 3.816312e+00 2.622787e+00 3.815321e+00 5.837891e+00 7.609188e+00 9.833782e+00 1.103569e+01 2.577790e+01 4.124153e+01 4.309301e+01 3.766838e+01 3.157081e+01 2.449099e+01 1.875028e+01 1.351165e+01 9.262615e+00 5.731117e+00 4.020540e+00 5.721963e+00 9.249541e+00 1.349170e+01 1.872244e+01 2.445240e+01 3.151651e+01 3.761218e+01 4.301202e+01 4.122075e+01 2.586730e+01 1.108747e+01 9.859925e+00 7.644153e+00 5.852495e+00 3.827662e+00 2.631621e+00 3.826688e+00 5.851833e+00 7.641693e+00 9.857251e+00 1.108145e+01 2.586370e+01 4.122015e+01 4.301330e+01 3.761531e+01 3.151806e+01 2.445317e+01 1.872244e+01 1.349139e+01 9.249108e+00 5.721527e+00 
7.102606e-03 4.028024e+00 8.340451e+00 1.285258e+01 1.832205e+01 2.413055e+01 3.153754e+01 3.781601e+01 4.399854e+01 3.989429e+01 1.979944e+01 9.740524e+00 9.598445e+00 6.963008e+00 5.268260e+00 2.622575e+00 7.208634e-04 2.621968e+00 5.268114e+00 6.960943e+00 9.595931e+00 9.734893e+00 1.979277e+01 3.989501e+01 4.400427e+01 3.782193e+01 3.154045e+01 2.413194e+01 1.832226e+01 1.285226e+01 8.339852e+00 4.027238e+00 6.331085e-03 4.013053e+00 8.321071e+00 1.282653e+01 1.827974e+01 2.407482e+01 3.143758e+01 3.770079e+01 4.376812e+01 3.976127e+01 1.987182e+01 9.730537e+00 9.604287e+00 6.982000e+00 5.275557e+00 2.631893e+00 3.295001e-04 2.631238e+00 5.275384e+00 6.979848e+00 9.601722e+00 9.724685e+00 1.986503e+01 3.976157e+01 4.377318e+01 3.770624e+01 3.144014e+01 2.407604e+01 1.827982e+01 1.282615e+01 8.320430e+00 4.012252e+00 
4.019747e+00 5.730993e+00 9.262289e+00 1.351118e+01 1.874907e+01 2.448810e+01 3.156589e+01 3.765649e+01 4.307921e+01 4.123910e+01 2.578001e+01 1.103795e+01 9.835590e+00 7.610439e+00 5.837848e+00 3.815379e+00 2.621755e+00 3.814387e+00 5.837149e+00 7.607952e+00 9.832852e+00 1.103190e+01 2.577644e+01 4.123857e+01 4.308029e+01 3.765945e+01 3.156734e+01 2.448880e+01 1.874903e+01 1.351084e+01 9.261846e+00 5.730562e+00 4.019754e+00 5.721744e+00 9.249298e+00 1.349167e+01 1.872237e+01 2.445233e+01 3.151652e+01 3.761100e+01 4.301112e+01 4.122290e+01 2.586897e+01 1.108709e+01 9.859838e+00 7.644022e+00 5.852417e+00 3.827520e+00 2.631510e+00 3.826545e+00 5.851755e+00 7.641562e+00 9.857165e+00 1.108107e+01 2.586537e+01 4.122230e+01 4.301240e+01 3.761414e+01 3.151807e+01 2.445310e+01 1.872236e+01 1.349136e+01 9.248864e+00 5.721308e+00 
7.859320e+00 8.915693e+00 1.143524e+01 1.514820e+01 1.983141e+01 2.539015e+01 3.162349e+01 3.709732e+01 4.021784e+01 4.358524e+01 3.799120e+01 1.498371e+01 1.036788e+01 9.263411e+00 7.348524e+00 6.231795e+00 5.520821e+00 6.231252e+00 7.348282e+00 9.261736e+00 1.036597e+01 1.497835e+01 3.799052e+01 4.358382e+01 4.021506e+01 3.709779e+01 3.162415e+01 2.539029e+01 1.983119e+01 1.514767e+01 1.143479e+01 8.915321e+00 7.859306e+00 8.908520e+00 1.142307e+01 1.512744e+01 1.980392e+01 2.534794e+01 3.157013e+01 3.701826e+01 4.011727e+01 4.348826e+01 3.807967e+01 1.510856e+01 1.038322e+01 9.304751e+00 7.371072e+00 6.249731e+00 5.545985e+00 6.249185e+00 7.370819e+00 9.303053e+00 1.038128e+01 1.510314e+01 3.807892e+01 4.348662e+01 4.011401e+01 3.701846e+01 3.157067e+01 2.534804e+01 1.980369e+01 1.512691e+01 1.142262e+01 8.908168e+00 