# vtk DataFile Version 2.0
Comment goes here
ASCII

DATASET STRUCTURED_POINTS
DIMENSIONS    64   64   1

ORIGIN    0.000   0.000   0.000
SPACING   0.031250.03125   1.000

POINT_DATA   4096
SCALARS uMag double
LOOKUP_TABLE default

5.131388e-02 5.607548e-02 9.357085e-02 1.939315e-01 2.190346e-01 3.007643e-01 3.063230e-01 3.603550e-01 3.424233e-01 3.635650e-01 3.221727e-01 3.098991e-01 2.492341e-01 2.077353e-01 1.356552e-01 7.308034e-02 1.823147e-03 7.306372e-02 1.357132e-01 2.077172e-01 2.492836e-01 3.098791e-01 3.222099e-01 3.635436e-01 3.424466e-01 3.603336e-01 3.063326e-01 3.007445e-01 2.190318e-01 1.939150e-01 9.355756e-02 5.606371e-02 5.133539e-02 9.204017e-02 1.939486e-01 2.281201e-01 3.127878e-01 3.316097e-01 3.896222e-01 3.866406e-01 4.121906e-01 3.844769e-01 3.761544e-01 3.249858e-01 2.859390e-01 2.168036e-01 1.542121e-01 7.606645e-02 5.319160e-04 7.610563e-02 1.542001e-01 2.168394e-01 2.859225e-01 3.250158e-01 3.761323e-01 3.844998e-01 4.121634e-01 3.866559e-01 3.895921e-01 3.316175e-01 3.127577e-01 2.281208e-01 1.939213e-01 9.203422e-02 
9.123276e-02 9.212728e-02 1.178885e-01 2.069172e-01 2.299622e-01 3.092334e-01 3.142333e-01 3.673816e-01 3.496273e-01 3.703452e-01 3.298796e-01 3.175290e-01 2.591330e-01 2.186182e-01 1.531368e-01 9.959314e-02 7.116833e-02 9.957302e-02 1.531818e-01 2.185926e-01 2.591758e-01 3.175041e-01 3.299142e-01 3.703230e-01 3.496520e-01 3.673638e-01 3.142477e-01 3.092213e-01 2.299668e-01 2.069117e-01 1.178842e-01 9.212941e-02 9.123678e-02 1.187647e-01 2.099073e-01 2.409702e-01 3.240354e-01 3.411151e-01 3.992101e-01 3.950783e-01 4.211839e-01 3.929458e-01 3.853938e-01 3.347461e-01 2.970127e-01 2.308742e-01 1.726460e-01 1.096413e-01 7.664337e-02 1.096603e-01 1.726242e-01 2.308984e-01 2.969873e-01 3.347685e-01 3.853661e-01 3.929654e-01 4.211553e-01 3.950945e-01 3.991831e-01 3.411276e-01 3.240125e-01 2.409781e-01 2.098912e-01 1.187661e-01 
1.596305e-01 1.596857e-01 1.738831e-01 2.449804e-01 2.613477e-01 3.359151e-01 3.370491e-01 3.899301e-01 3.704181e-01 3.924185e-01 3.528660e-01 3.425675e-01 2.894572e-01 2.529739e-01 2.019966e-01 1.609218e-01 1.505715e-01 1.609120e-01 2.020408e-01 2.529552e-01 2.895054e-01 3.425457e-01 3.529040e-01 3.923959e-01 3.704413e-01 3.899088e-01 3.370570e-01 3.358977e-01 2.613419e-01 2.449703e-01 1.738700e-01 1.596885e-01 1.596330e-01 1.755716e-01 2.483016e-01 2.730647e-01 3.502145e-01 3.645671e-01 4.206487e-01 4.160071e-01 4.415902e-01 4.148345e-01 4.078108e-01 3.612254e-01 3.258554e-01 2.688636e-01 2.187427e-01 1.768505e-01 1.546681e-01 1.768687e-01 2.187335e-01 2.688947e-01 3.258395e-01 3.612546e-01 4.077882e-01 4.148576e-01 4.415620e-01 4.160223e-01 4.206179e-01 3.645738e-01 3.501855e-01 2.730625e-01 2.482804e-01 1.755621e-01 
2.399715e-01 2.382406e-01 2.463782e-01 3.027725e-01 3.125195e-01 3.804869e-01 3.774783e-01 4.285587e-01 4.075063e-01 4.295606e-01 3.918195e-01 3.825273e-01 3.361847e-01 3.026137e-01 2.651057e-01 2.296108e-01 2.286175e-01 2.295965e-01 2.651365e-01 3.025845e-01 3.362239e-01 3.824970e-01 3.918540e-01 4.295355e-01 4.075309e-01 4.285424e-01 3.774912e-01 3.804809e-01 3.125204e-01 3.027771e-01 2.463696e-01 2.382520e-01 2.399655e-01 2.490233e-01 3.091508e-01 3.259033e-01 3.976357e-01 4.067719e-01 4.618160e-01 4.545829e-01 4.809700e-01 4.544327e-01 4.493772e-01 4.067823e-01 3.753449e-01 3.281662e-01 2.861428e-01 2.587866e-01 2.402586e-01 2.587940e-01 2.861247e-01 3.281824e-01 3.753181e-01 4.068010e-01 4.493465e-01 4.544514e-01 4.809391e-01 4.545997e-01 4.617889e-01 4.067845e-01 3.976167e-01 3.259083e-01 3.091437e-01 2.490175e-01 
3.293581e-01 3.270014e-01 3.300913e-01 3.768676e-01 3.786329e-01 4.416013e-01 4.322089e-01 4.832461e-01 4.591962e-01 4.835869e-01 4.476560e-01 4.416118e-01 4.030231e-01 3.735739e-01 3.485598e-01 3.164909e-01 3.226029e-01 3.164820e-01 3.485958e-01 3.735520e-01 4.030711e-01 4.415848e-01 4.476960e-01 4.835606e-01 4.592187e-01 4.832247e-01 4.322119e-01 4.415886e-01 3.786201e-01 3.768671e-01 3.300732e-01 3.270139e-01 3.293519e-01 3.344637e-01 3.851127e-01 3.949280e-01 4.601050e-01 4.644620e-01 5.167719e-01 5.080960e-01 5.339944e-01 5.096862e-01 5.057880e-01 4.695194e-01 4.412180e-01 4.047340e-01 3.678584e-01 3.514989e-01 3.330667e-01 3.515100e-01 3.678518e-01 4.047590e-01 4.412028e-01 4.695467e-01 5.057635e-01 5.097094e-01 5.339627e-01 5.081109e-01 5.167383e-01 4.644658e-01 4.600773e-01 3.949199e-01 3.850992e-01 3.344475e-01 
4.319389e-01 4.279175e-01 4.288784e-01 4.687195e-01 4.650762e-01 5.233639e-01 5.088919e-01 5.586927e-01 5.320973e-01 5.568686e-01 5.225379e-01 5.172945e-01 4.853392e-01 4.570272e-01 4.418313e-01 4.097172e-01 4.220283e-01 4.097010e-01 4.418558e-01 4.569894e-01 4.853757e-01 5.172534e-01 5.225721e-01 5.568378e-01 5.321209e-01 5.586782e-01 5.089019e-01 5.233663e-01 4.650722e-01 4.687354e-01 4.288643e-01 4.279379e-01 4.319255e-01 4.329816e-01 4.794508e-01 4.821400e-01 5.442793e-01 5.425357e-01 5.944478e-01 5.825024e-01 6.096368e-01 5.856323e-01 5.841107e-01 5.522362e-01 5.277240e-01 4.993953e-01 4.670823e-01 4.582829e-01 4.399042e-01 4.582854e-01 4.670636e-01 4.994027e-01 5.276933e-01 5.522485e-01 5.840740e-01 5.856489e-01 6.096005e-01 5.825201e-01 5.944192e-01 5.425486e-01 5.442644e-01 4.821419e-01 4.794522e-01 4.329692e-01 
5.506052e-01 5.460530e-01 5.433457e-01 5.789749e-01 5.678232e-01 6.239040e-01 6.019798e-01 6.532931e-01 6.227030e-01 6.510647e-01 6.182926e-01 6.167503e-01 5.917128e-01 5.659183e-01 5.594769e-01 5.271433e-01 5.446447e-01 5.271325e-01 5.595127e-01 5.658897e-01 5.917642e-01 6.167141e-01 6.183356e-01 6.510319e-01 6.227229e-01 6.532701e-01 6.019748e-01 6.238947e-01 5.678006e-01 5.789819e-01 5.433195e-01 5.460739e-01 5.505920e-01 5.494527e-01 5.917851e-01 5.889172e-01 6.467756e-01 6.402789e-01 6.898765e-01 6.765493e-01 7.032372e-01 6.820644e-01 6.816424e-01 6.563920e-01 6.340527e-01 6.143053e-01 5.836428e-01 5.817429e-01 5.613127e-01 5.817512e-01 5.836371e-01 6.143254e-01 6.340374e-01 6.564163e-01 6.816138e-01 6.820870e-01 7.031980e-01 6.765634e-01 6.898362e-01 6.402786e-01 6.467462e-01 5.889016e-01 5.917761e-01 5.494281e-01 
6.891540e-01 6.824312e-01 6.794732e-01 7.119069e-01 6.971029e-01 7.515547e-01 7.250018e-01 7.766294e-01 7.430724e-01 7.720478e-01 7.400168e-01 7.381700e-01 7.183501e-01 6.914734e-01 6.928651e-01 6.581805e-01 6.815242e-01 6.581583e-01 6.928859e-01 6.914200e-01 7.183845e-01 7.381115e-01 7.400493e-01 7.720072e-01 7.430927e-01 7.766156e-01 7.250069e-01 7.515652e-01 6.970930e-01 7.119333e-01 6.794523e-01 6.824609e-01 6.891327e-01 6.840420e-01 7.268341e-01 7.176060e-01 7.760036e-01 7.636715e-01 8.146600e-01 7.980341e-01 8.266139e-01 8.053813e-01 8.071902e-01 7.851152e-01 7.656019e-01 7.515099e-01 7.235064e-01 7.267614e-01 7.055628e-01 7.267587e-01 7.234831e-01 7.515060e-01 7.655635e-01 7.851170e-01 8.071429e-01 8.053938e-01 8.265672e-01 7.980529e-01 8.146264e-01 7.636853e-01 7.759912e-01 7.176047e-01 7.268427e-01 6.840227e-01 
8.541511e-01 8.469790e-01 8.407043e-01 8.719026e-01 8.495278e-01 9.048603e-01 8.698425e-01 9.254204e-01 8.867443e-01 9.210999e-01 8.900039e-01 8.924239e-01 8.785071e-01 8.525971e-01 8.604385e-01 8.231195e-01 8.506972e-01 8.231052e-01 8.604773e-01 8.525562e-01 8.785644e-01 8.923721e-01 8.900488e-01 9.210563e-01 8.867571e-01 9.253925e-01 8.698246e-01 9.048510e-01 8.494919e-01 8.719143e-01 8.406675e-01 8.470082e-01 8.541305e-01 8.473129e-01 8.885876e-01 8.747036e-01 9.309058e-01 9.145707e-01 9.639246e-01 9.467700e-01 9.748210e-01 9.573798e-01 9.599548e-01 9.446156e-01 9.262378e-01 9.187611e-01 8.899943e-01 8.977871e-01 8.731467e-01 8.977932e-01 8.899881e-01 9.187741e-01 9.262204e-01 9.446329e-01 9.599182e-01 9.573999e-01 9.747675e-01 9.467820e-01 9.638711e-01 9.145643e-01 9.308706e-01 8.746781e-01 8.885806e-01 8.472781e-01 
1.048449e+00 1.038135e+00 1.033413e+00 1.063451e+00 1.039250e+00 1.095997e+00 1.057464e+00 1.115589e+00 1.074083e+00 1.109316e+00 1.078015e+00 1.078197e+00 1.068073e+00 1.038626e+00 1.053967e+00 1.013432e+00 1.047060e+00 1.013397e+00 1.053980e+00 1.038545e+00 1.068102e+00 1.078109e+00 1.078041e+00 1.109259e+00 1.074093e+00 1.115574e+00 1.057460e+00 1.096014e+00 1.039232e+00 1.063487e+00 1.033383e+00 1.038175e+00 1.048418e+00 1.036739e+00 1.082024e+00 1.061810e+00 1.122294e+00 1.100639e+00 1.153938e+00 1.133976e+00 1.164993e+00 1.147073e+00 1.151516e+00 1.137405e+00 1.120713e+00 1.116699e+00 1.090042e+00 1.102620e+00 1.076813e+00 1.102608e+00 1.090007e+00 1.116676e+00 1.120661e+00 1.137387e+00 1.151450e+00 1.147078e+00 1.164927e+00 1.133996e+00 1.153894e+00 1.100653e+00 1.122281e+00 1.061804e+00 1.082039e+00 1.036711e+00 
1.283464e+00 1.272786e+00 1.264942e+00 1.296123e+00 1.263735e+00 1.324834e+00 1.276200e+00 1.341733e+00 1.293436e+00 1.336910e+00 1.306089e+00 1.312105e+00 1.308029e+00 1.277783e+00 1.297546e+00 1.249933e+00 1.285616e+00 1.249913e+00 1.297585e+00 1.277717e+00 1.308091e+00 1.312023e+00 1.306130e+00 1.336849e+00 1.293430e+00 1.341695e+00 1.276160e+00 1.324818e+00 1.263681e+00 1.296135e+00 1.264892e+00 1.272823e+00 1.283435e+00 1.269935e+00 1.315462e+00 1.291117e+00 1.351147e+00 1.326635e+00 1.378850e+00 1.360070e+00 1.390144e+00 1.378018e+00 1.382926e+00 1.376825e+00 1.361019e+00 1.361724e+00 1.331863e+00 1.344745e+00 1.312832e+00 1.344748e+00 1.331850e+00 1.361720e+00 1.360995e+00 1.376824e+00 1.382873e+00 1.378031e+00 1.390063e+00 1.360077e+00 1.378773e+00 1.326618e+00 1.351101e+00 1.291077e+00 1.315456e+00 1.269887e+00 
1.560765e+00 1.545384e+00 1.541497e+00 1.572981e+00 1.541144e+00 1.607160e+00 1.557082e+00 1.628541e+00 1.578841e+00 1.623896e+00 1.592423e+00 1.592665e+00 1.590100e+00 1.552180e+00 1.580450e+00 1.531112e+00 1.573033e+00 1.531049e+00 1.580437e+00 1.552052e+00 1.590116e+00 1.592524e+00 1.592427e+00 1.623815e+00 1.578826e+00 1.628521e+00 1.557063e+00 1.607179e+00 1.541116e+00 1.573023e+00 1.541455e+00 1.545434e+00 1.560723e+00 1.540604e+00 1.593943e+00 1.562707e+00 1.631410e+00 1.602270e+00 1.662160e+00 1.641953e+00 1.677270e+00 1.664839e+00 1.671455e+00 1.663527e+00 1.647124e+00 1.648078e+00 1.620854e+00 1.640906e+00 1.607264e+00 1.640868e+00 1.620788e+00 1.648017e+00 1.647047e+00 1.663467e+00 1.671353e+00 1.664829e+00 1.677165e+00 1.641972e+00 1.662096e+00 1.602281e+00 1.631396e+00 1.562693e+00 1.593966e+00 1.540566e+00 
1.898242e+00 1.882572e+00 1.876227e+00 1.911750e+00 1.871027e+00 1.946418e+00 1.883921e+00 1.968280e+00 1.909058e+00 1.967101e+00 1.935750e+00 1.946107e+00 1.952864e+00 1.912308e+00 1.942102e+00 1.870101e+00 1.904362e+00 1.870074e+00 1.942121e+00 1.912183e+00 1.952921e+00 1.945966e+00 1.935770e+00 1.967014e+00 1.909008e+00 1.968220e+00 1.883846e+00 1.946383e+00 1.870949e+00 1.911758e+00 1.876159e+00 1.882618e+00 1.898202e+00 1.875607e+00 1.931079e+00 1.896285e+00 1.966663e+00 1.936771e+00 1.996312e+00 1.980590e+00 2.013897e+00 2.011196e+00 2.017816e+00 2.022308e+00 2.009084e+00 2.013008e+00 1.979114e+00 1.984007e+00 1.934165e+00 1.984005e+00 1.979072e+00 2.012954e+00 2.009039e+00 2.022259e+00 2.017727e+00 2.011198e+00 2.013759e+00 1.980586e+00 1.996195e+00 1.936733e+00 1.966601e+00 1.896225e+00 1.931074e+00 1.875543e+00 
2.295767e+00 2.273053e+00 2.274331e+00 2.311773e+00 2.275340e+00 2.360652e+00 2.300859e+00 2.396921e+00 2.341435e+00 2.403723e+00 2.374318e+00 2.372348e+00 2.373113e+00 2.312881e+00 2.352262e+00 2.288978e+00 2.330655e+00 2.288823e+00 2.352161e+00 2.312672e+00 2.373098e+00 2.372099e+00 2.374263e+00 2.403609e+00 2.341363e+00 2.396890e+00 2.300820e+00 2.360661e+00 2.275299e+00 2.311816e+00 2.274273e+00 2.273111e+00 2.295711e+00 2.263800e+00 2.331975e+00 2.289451e+00 2.374405e+00 2.341127e+00 2.414441e+00 2.400602e+00 2.444938e+00 2.444586e+00 2.455235e+00 2.452651e+00 2.431081e+00 2.424919e+00 2.394152e+00 2.418013e+00 2.366706e+00 2.417888e+00 2.393992e+00 2.424790e+00 2.430959e+00 2.452497e+00 2.455056e+00 2.444553e+00 2.444759e+00 2.400618e+00 2.414348e+00 2.341126e+00 2.374387e+00 2.289421e+00 2.332005e+00 2.263748e+00 
2.779259e+00 2.756144e+00 2.757261e+00 2.803324e+00 2.758373e+00 2.862112e+00 2.787871e+00 2.907292e+00 2.838165e+00 2.921232e+00 2.889193e+00 2.908023e+00 2.930601e+00 2.875254e+00 2.916439e+00 2.759675e+00 2.742702e+00 2.759653e+00 2.916345e+00 2.874956e+00 2.930632e+00 2.907762e+00 2.889146e+00 2.921121e+00 2.838016e+00 2.907184e+00 2.787748e+00 2.862034e+00 2.758268e+00 2.803323e+00 2.757171e+00 2.756201e+00 2.779205e+00 2.743181e+00 2.816518e+00 2.771750e+00 2.862415e+00 2.833095e+00 2.908731e+00 2.906638e+00 2.947182e+00 2.963601e+00 2.971071e+00 2.992570e+00 2.984876e+00 2.989540e+00 2.951883e+00 2.889406e+00 2.770780e+00 2.889411e+00 2.951714e+00 2.989324e+00 2.984787e+00 2.992414e+00 2.970899e+00 2.963596e+00 2.946929e+00 2.906604e+00 2.908557e+00 2.833014e+00 2.862336e+00 2.771661e+00 2.816514e+00 2.743099e+00 
3.346253e+00 3.312782e+00 3.327606e+00 3.378560e+00 3.344420e+00 3.466709e+00 3.403270e+00 3.544348e+00 3.492965e+00 3.588753e+00 3.577337e+00 3.577647e+00 3.569522e+00 3.441493e+00 3.470443e+00 3.389643e+00 3.405103e+00 3.389080e+00 3.470045e+00 3.441201e+00 3.569451e+00 3.577156e+00 3.577115e+00 3.588625e+00 3.492781e+00 3.544283e+00 3.403217e+00 3.466682e+00 3.344361e+00 3.378596e+00 3.327517e+00 3.312851e+00 3.346175e+00 3.297186e+00 3.390047e+00 3.337508e+00 3.451404e+00 3.421452e+00 3.521343e+00 3.527781e+00 3.593566e+00 3.622234e+00 3.650959e+00 3.661923e+00 3.620663e+00 3.564391e+00 3.508046e+00 3.534557e+00 3.438484e+00 3.534027e+00 3.507588e+00 3.564201e+00 3.620471e+00 3.661539e+00 3.650596e+00 3.622198e+00 3.593248e+00 3.527779e+00 3.521221e+00 3.421414e+00 3.451382e+00 3.337452e+00 3.390082e+00 3.297117e+00 
4.031666e+00 3.996737e+00 4.017954e+00 4.085128e+00 4.046277e+00 4.204897e+00 4.128669e+00 4.317073e+00 4.249804e+00 4.380643e+00 4.349814e+00 4.386466e+00 4.429691e+00 4.411623e+00 4.528201e+00 3.962747e+00 3.592676e+00 3.962994e+00 4.527657e+00 4.410685e+00 4.429708e+00 4.386032e+00 4.349552e+00 4.380551e+00 4.249454e+00 4.316834e+00 4.128508e+00 4.204736e+00 4.046145e+00 4.085122e+00 4.017833e+00 3.996813e+00 4.031594e+00 3.974741e+00 4.078470e+00 4.026825e+00 4.155076e+00 4.139550e+00 4.251742e+00 4.288419e+00 4.351530e+00 4.410460e+00 4.418468e+00 4.471594e+00 4.471371e+00 4.532287e+00 4.554423e+00 4.100699e+00 3.610046e+00 4.100974e+00 4.553788e+00 4.531452e+00 4.471247e+00 4.471273e+00 4.418069e+00 4.410498e+00 4.351052e+00 4.288288e+00 4.251513e+00 4.139391e+00 4.154986e+00 4.026709e+00 4.078470e+00 3.974645e+00 
4.828703e+00 4.778933e+00 4.824823e+00 4.904033e+00 4.888231e+00 5.083743e+00 5.033315e+00 5.259156e+00 5.236893e+00 5.394902e+00 5.468474e+00 5.520566e+00 5.527236e+00 5.308113e+00 5.210294e+00 5.043764e+00 5.031668e+00 5.040891e+00 5.207549e+00 5.307232e+00 5.527078e+00 5.519533e+00 5.467796e+00 5.394889e+00 5.236557e+00 5.258955e+00 5.033301e+00 5.083638e+00 4.888137e+00 4.904067e+00 4.824676e+00 4.779016e+00 4.828597e+00 4.754627e+00 4.887709e+00 4.832507e+00 4.997417e+00 4.988739e+00 5.143498e+00 5.199510e+00 5.314465e+00 5.405423e+00 5.514876e+00 5.597922e+00 5.555951e+00 5.424765e+00 5.236681e+00 5.195832e+00 5.055781e+00 5.193018e+00 5.233866e+00 5.424046e+00 5.555658e+00 5.596993e+00 5.514048e+00 5.405515e+00 5.313952e+00 5.199407e+00 5.143383e+00 4.988622e+00 4.997389e+00 4.832424e+00 4.887740e+00 4.754547e+00 
5.781638e+00 5.726100e+00 5.795604e+00 5.902219e+00 5.893188e+00 6.159517e+00 6.107539e+00 6.438145e+00 6.418417e+00 6.663381e+00 6.679698e+00 6.709388e+00 6.597437e+00 6.276015e+00 7.233500e+00 6.312745e+00 4.047476e+00 6.308893e+00 7.232056e+00 6.278033e+00 6.598464e+00 6.709316e+00 6.678652e+00 6.663259e+00 6.417845e+00 6.437521e+00 6.107423e+00 6.159253e+00 5.893021e+00 5.902256e+00 5.795435e+00 5.726213e+00 5.781540e+00 5.691509e+00 5.846599e+00 5.798852e+00 5.994920e+00 6.020378e+00 6.216417e+00 6.349350e+00 6.484444e+00 6.657490e+00 6.706032e+00 6.776061e+00 6.603729e+00 6.381390e+00 7.228869e+00 6.464717e+00 4.074062e+00 6.460887e+00 7.227414e+00 6.383492e+00 6.604581e+00 6.776078e+00 6.704862e+00 6.657542e+00 6.483690e+00 6.348896e+00 6.216193e+00 6.020120e+00 5.994832e+00 5.798746e+00 5.846605e+00 5.691420e+00 
6.872056e+00 6.795352e+00 6.911046e+00 7.045547e+00 7.084247e+00 7.435885e+00 7.439426e+00 7.827985e+00 7.878749e+00 8.150489e+00 8.541843e+00 8.721357e+00 9.103179e+00 1.011823e+01 9.769714e+00 4.299624e+00 5.733681e-01 4.295862e+00 9.763095e+00 1.011090e+01 9.101644e+00 8.720133e+00 8.540648e+00 8.150136e+00 7.878691e+00 7.827240e+00 7.439550e+00 7.435709e+00 7.084059e+00 7.045637e+00 6.910795e+00 6.795462e+00 6.871912e+00 6.761760e+00 6.960333e+00 6.925899e+00 7.180034e+00 7.236771e+00 7.511369e+00 7.675390e+00 7.884448e+00 8.104068e+00 8.519534e+00 8.769054e+00 9.079725e+00 1.022891e+01 9.784002e+00 4.454557e+00 5.546099e-01 4.450817e+00 9.777403e+00 1.022184e+01 9.078049e+00 8.767861e+00 8.518186e+00 8.103879e+00 7.884119e+00 7.674819e+00 7.511331e+00 7.236568e+00 7.179979e+00 6.925835e+00 6.960349e+00 6.761695e+00 
8.153962e+00 8.059055e+00 8.242894e+00 8.415954e+00 8.492692e+00 8.976406e+00 8.989987e+00 9.550120e+00 9.732103e+00 1.041698e+01 1.079257e+01 1.122115e+01 1.204270e+01 1.308988e+01 1.163941e+01 7.380831e+00 3.809401e+00 7.370437e+00 1.162961e+01 1.308605e+01 1.204428e+01 1.121726e+01 1.079152e+01 1.041408e+01 9.732381e+00 9.548533e+00 8.990079e+00 8.976205e+00 8.492450e+00 8.416179e+00 8.242659e+00 8.059236e+00 8.153835e+00 8.012460e+00 8.255485e+00 8.241813e+00 8.556613e+00 8.674411e+00 9.048939e+00 9.330673e+00 9.691325e+00 1.033027e+01 1.071486e+01 1.123076e+01 1.199820e+01 1.317725e+01 1.160466e+01 7.395281e+00 3.674920e+00 7.385173e+00 1.159470e+01 1.317356e+01 1.199951e+01 1.122696e+01 1.071369e+01 1.032768e+01 9.691282e+00 9.329358e+00 9.048832e+00 8.674186e+00 8.556552e+00 8.241840e+00 8.255516e+00 8.012433e+00 
9.577405e+00 9.451650e+00 9.726045e+00 9.949474e+00 1.013134e+01 1.083426e+01 1.093731e+01 1.151543e+01 1.193467e+01 1.248935e+01 1.353082e+01 1.391060e+01 1.417574e+01 1.474122e+01 1.333010e+01 1.078170e+01 9.693114e+00 1.077983e+01 1.332809e+01 1.474210e+01 1.417645e+01 1.390891e+01 1.353036e+01 1.248540e+01 1.193515e+01 1.151373e+01 1.093755e+01 1.083436e+01 1.013094e+01 9.949797e+00 9.725654e+00 9.451802e+00 9.577218e+00 9.419436e+00 9.724917e+00 9.768239e+00 1.017666e+01 1.039881e+01 1.090610e+01 1.115201e+01 1.174912e+01 1.231458e+01 1.335205e+01 1.391599e+01 1.412229e+01 1.481698e+01 1.330243e+01 1.081142e+01 9.513665e+00 1.080961e+01 1.329990e+01 1.481800e+01 1.412289e+01 1.391423e+01 1.335148e+01 1.231096e+01 1.174919e+01 1.115059e+01 1.090602e+01 1.039878e+01 1.017658e+01 9.768340e+00 9.724937e+00 9.419456e+00 
1.120213e+01 1.103216e+01 1.148563e+01 1.174765e+01 1.208504e+01 1.301661e+01 1.287219e+01 1.359121e+01 1.446490e+01 1.511394e+01 1.416282e+01 1.331732e+01 1.476664e+01 1.448134e+01 1.355234e+01 1.378762e+01 1.515822e+01 1.378893e+01 1.355252e+01 1.447891e+01 1.476487e+01 1.331456e+01 1.415748e+01 1.511008e+01 1.446372e+01 1.358964e+01 1.287238e+01 1.301730e+01 1.208462e+01 1.174837e+01 1.148535e+01 1.103243e+01 1.120198e+01 1.099737e+01 1.139252e+01 1.149593e+01 1.202912e+01 1.231949e+01 1.282234e+01 1.304858e+01 1.414515e+01 1.488004e+01 1.388211e+01 1.331726e+01 1.466495e+01 1.448916e+01 1.348369e+01 1.378218e+01 1.491206e+01 1.378376e+01 1.348338e+01 1.448729e+01 1.466309e+01 1.331416e+01 1.387697e+01 1.487658e+01 1.414356e+01 1.304738e+01 1.282208e+01 1.231996e+01 1.202920e+01 1.149636e+01 1.139265e+01 1.099752e+01 
1.291323e+01 1.270014e+01 1.333341e+01 1.364972e+01 1.424334e+01 1.560147e+01 1.516373e+01 1.640221e+01 1.491012e+01 1.069353e+01 1.133825e+01 1.534629e+01 1.532811e+01 1.398096e+01 1.388788e+01 1.522528e+01 1.645064e+01 1.522392e+01 1.389070e+01 1.397785e+01 1.532687e+01 1.534326e+01 1.133219e+01 1.068781e+01 1.490584e+01 1.640117e+01 1.516446e+01 1.560330e+01 1.424264e+01 1.365059e+01 1.333292e+01 1.270029e+01 1.291302e+01 1.272131e+01 1.320026e+01 1.346565e+01 1.414178e+01 1.458770e+01 1.490090e+01 1.550329e+01 1.431147e+01 1.030294e+01 1.093201e+01 1.547479e+01 1.526397e+01 1.366240e+01 1.368873e+01 1.518118e+01 1.604965e+01 1.518010e+01 1.369089e+01 1.366029e+01 1.526196e+01 1.547167e+01 1.092718e+01 1.029769e+01 1.430697e+01 1.550266e+01 1.490076e+01 1.458891e+01 1.414196e+01 1.346622e+01 1.320041e+01 1.272154e+01 
1.473366e+01 1.443579e+01 1.549493e+01 1.583494e+01 1.708131e+01 1.845947e+01 1.652569e+01 1.491347e+01 9.508984e+00 8.634762e+00 1.271618e+01 1.399999e+01 1.655218e+01 1.680983e+01 1.805358e+01 1.785039e+01 1.847674e+01 1.785743e+01 1.806142e+01 1.680711e+01 1.655312e+01 1.398989e+01 1.270813e+01 8.636540e+00 9.508868e+00 1.491167e+01 1.652711e+01 1.846318e+01 1.708093e+01 1.583651e+01 1.549481e+01 1.443603e+01 1.473356e+01 1.451895e+01 1.517497e+01 1.568280e+01 1.664486e+01 1.674396e+01 1.629695e+01 1.359022e+01 8.513218e+00 8.464016e+00 1.233347e+01 1.366777e+01 1.558836e+01 1.592399e+01 1.758786e+01 1.763204e+01 1.770572e+01 1.763890e+01 1.759489e+01 1.592220e+01 1.558773e+01 1.365853e+01 1.232730e+01 8.466222e+00 8.513038e+00 1.358942e+01 1.629693e+01 1.674669e+01 1.664591e+01 1.568402e+01 1.517541e+01 1.451944e+01 
1.647258e+01 1.612996e+01 1.755774e+01 1.788513e+01 1.972885e+01 2.052501e+01 1.659328e+01 1.225842e+01 8.343678e+00 1.010211e+01 1.354203e+01 1.330661e+01 1.526812e+01 2.113637e+01 2.050403e+01 2.083271e+01 2.191765e+01 2.083462e+01 2.050701e+01 2.113236e+01 1.525976e+01 1.330437e+01 1.354615e+01 1.010690e+01 8.354197e+00 1.225982e+01 1.660035e+01 2.053154e+01 1.972816e+01 1.788632e+01 1.755741e+01 1.612986e+01 1.647250e+01 1.636905e+01 1.718043e+01 1.816207e+01 1.915437e+01 1.806411e+01 1.563902e+01 1.071991e+01 6.745838e+00 8.766470e+00 1.124529e+01 1.191715e+01 1.481713e+01 1.993751e+01 1.978939e+01 2.044999e+01 2.072235e+01 2.045144e+01 1.979260e+01 1.993411e+01 1.480720e+01 1.191459e+01 1.124837e+01 8.773704e+00 6.755868e+00 1.072522e+01 1.564254e+01 1.806839e+01 1.915625e+01 1.816331e+01 1.718092e+01 1.636964e+01 
1.791804e+01 1.744715e+01 1.968506e+01 1.996460e+01 2.363173e+01 2.334427e+01 1.506678e+01 5.493232e+00 3.927390e+00 2.956650e+00 8.891030e+00 1.673153e+01 1.664852e+01 1.599725e+01 1.977972e+01 2.262496e+01 2.344645e+01 2.261071e+01 1.977221e+01 1.599989e+01 1.664524e+01 1.671914e+01 8.874357e+00 2.968460e+00 3.944726e+00 5.495309e+00 1.507753e+01 2.335686e+01 2.363234e+01 1.996606e+01 1.968544e+01 1.744679e+01 1.791818e+01 1.795426e+01 1.914250e+01 2.107910e+01 2.186673e+01 1.853290e+01 1.256535e+01 7.335251e-01 5.138458e+00 4.849746e+00 9.586804e+00 1.659751e+01 1.641321e+01 1.468990e+01 1.864046e+01 2.184353e+01 2.209447e+01 2.182910e+01 1.863314e+01 1.469218e+01 1.640998e+01 1.658377e+01 9.569085e+00 4.851930e+00 5.150140e+00 7.425076e-01 1.257164e+01 1.854113e+01 2.187151e+01 2.108112e+01 1.914328e+01 1.795513e+01 
1.888201e+01 1.847663e+01 2.137611e+01 2.162486e+01 2.582179e+01 2.163003e+01 3.246828e+00 1.008989e+01 1.397975e+01 1.980418e+01 2.555018e+01 1.666802e+01 1.029248e+01 1.606549e+01 2.107746e+01 2.210011e+01 2.283438e+01 2.208985e+01 2.106830e+01 1.606625e+01 1.029059e+01 1.667002e+01 2.553610e+01 1.979142e+01 1.397998e+01 1.009277e+01 3.254863e+00 2.165204e+01 2.582002e+01 2.162300e+01 2.137627e+01 1.847564e+01 1.888249e+01 1.926001e+01 2.112773e+01 2.447187e+01 2.185966e+01 1.196791e+01 9.332205e+00 2.019465e+01 2.055163e+01 2.219873e+01 2.610668e+01 1.668370e+01 9.251003e+00 1.501449e+01 1.993755e+01 2.115228e+01 2.176801e+01 2.114183e+01 1.992836e+01 1.501428e+01 9.249841e+00 1.668287e+01 2.609449e+01 2.218555e+01 2.055093e+01 2.019604e+01 9.334815e+00 1.197803e+01 2.186477e+01 2.447352e+01 2.112816e+01 1.926083e+01 
1.847576e+01 1.801167e+01 2.118908e+01 1.854690e+01 2.884486e+01 2.344665e+01 1.247118e+01 2.190890e+01 2.763383e+01 3.449521e+01 2.935519e+01 1.703245e+01 1.636055e+01 2.141887e+01 1.862679e+01 1.758301e+01 1.799139e+01 1.758023e+01 1.862187e+01 2.142102e+01 1.635855e+01 1.703170e+01 2.935867e+01 3.449421e+01 2.763498e+01 2.191367e+01 1.247758e+01 2.347655e+01 2.883061e+01 1.853988e+01 2.118944e+01 1.800944e+01 1.847666e+01 1.934392e+01 2.251383e+01 2.502259e+01 1.520965e+01 1.719993e+01 2.443284e+01 2.601294e+01 2.795445e+01 3.299558e+01 2.857480e+01 1.676291e+01 1.536491e+01 2.029964e+01 1.756362e+01 1.662632e+01 1.694856e+01 1.662324e+01 1.755908e+01 2.030079e+01 1.536325e+01 1.676194e+01 2.857786e+01 3.299416e+01 2.795522e+01 2.601497e+01 2.444189e+01 1.721692e+01 1.521150e+01 2.502330e+01 2.251257e+01 1.934441e+01 
1.651719e+01 1.650642e+01 1.818775e+01 1.808608e+01 2.795397e+01 2.379749e+01 2.025028e+01 3.041099e+01 3.362838e+01 3.526929e+01 2.600556e+01 2.052539e+01 1.981231e+01 1.796911e+01 1.399278e+01 1.293349e+01 1.273573e+01 1.293371e+01 1.399087e+01 1.797151e+01 1.981558e+01 2.052515e+01 2.601332e+01 3.527413e+01 3.363979e+01 3.041952e+01 2.026148e+01 2.380540e+01 2.792733e+01 1.808276e+01 1.819279e+01 1.650561e+01 1.651961e+01 1.781184e+01 2.283103e+01 2.132402e+01 2.002046e+01 2.336691e+01 2.183628e+01 2.590826e+01 2.918439e+01 3.214096e+01 2.492906e+01 2.019622e+01 1.879061e+01 1.682184e+01 1.305903e+01 1.209987e+01 1.192478e+01 1.209974e+01 1.305717e+01 1.682356e+01 1.879328e+01 2.019702e+01 2.493500e+01 3.214545e+01 2.919410e+01 2.591331e+01 2.184255e+01 2.338186e+01 2.002162e+01 2.132479e+01 2.282910e+01 1.781158e+01 
1.209358e+01 1.467316e+01 1.109451e+01 2.502265e+01 4.668898e+01 2.034436e+01 3.745193e+01 3.682572e+01 2.853482e+01 2.304232e+01 1.751037e+01 1.898034e+01 1.726522e+01 1.342733e+01 1.047606e+01 8.689011e+00 7.890211e+00 8.690490e+00 1.047650e+01 1.342869e+01 1.726890e+01 1.898297e+01 1.751796e+01 2.304248e+01 2.854194e+01 3.682818e+01 3.743819e+01 2.034086e+01 4.665854e+01 2.502375e+01 1.109939e+01 1.467258e+01 1.209548e+01 1.532676e+01 2.070594e+01 2.254541e+01 2.607067e+01 2.349855e+01 2.420621e+01 2.624919e+01 2.360251e+01 1.862867e+01 1.635503e+01 1.811603e+01 1.601760e+01 1.231258e+01 9.647056e+00 8.040635e+00 7.261285e+00 8.041858e+00 9.647287e+00 1.231363e+01 1.602025e+01 1.811935e+01 1.635931e+01 1.862958e+01 2.360725e+01 2.625107e+01 2.419991e+01 2.349969e+01 2.607384e+01 2.254352e+01 2.070512e+01 1.532641e+01 
5.602477e+00 8.586940e+00 1.285121e+01 1.384692e+01 4.401707e+01 5.774814e+01 4.778946e+01 2.931389e+01 1.855637e+01 9.389857e+00 8.838084e+00 1.460840e+01 1.332246e+01 1.045621e+01 7.945377e+00 5.286457e+00 3.709279e+00 5.288732e+00 7.947589e+00 1.045734e+01 1.332568e+01 1.460974e+01 8.840740e+00 9.386445e+00 1.855753e+01 2.931147e+01 4.777150e+01 5.772284e+01 4.398975e+01 1.385426e+01 1.284746e+01 8.585968e+00 5.604651e+00 1.232995e+01 1.789742e+01 2.725570e+01 2.745423e+01 2.578668e+01 2.632221e+01 1.904889e+01 1.440740e+01 5.607329e+00 6.973316e+00 1.276796e+01 1.180323e+01 9.283546e+00 7.227191e+00 4.819830e+00 3.393258e+00 4.821976e+00 7.228846e+00 9.284827e+00 1.180533e+01 1.277033e+01 6.974373e+00 5.606327e+00 1.440841e+01 1.905036e+01 2.631328e+01 2.577145e+01 2.745130e+01 2.725499e+01 1.789508e+01 1.232999e+01 
1.538731e+00 4.249668e-01 1.457625e+01 3.588422e+00 2.381777e+00 7.387892e+01 4.573460e+01 1.421362e+01 1.446371e+01 2.316491e+00 9.646787e-01 9.886081e+00 1.115680e+01 9.191928e+00 6.987288e+00 3.687281e+00 1.851121e-02 3.690332e+00 6.989848e+00 9.192945e+00 1.115941e+01 9.885887e+00 9.647645e-01 2.321149e+00 1.446141e+01 1.420800e+01 4.573190e+01 7.383469e+01 2.371552e+00 3.573213e+00 1.456976e+01 4.220241e-01 1.541587e+00 1.099780e+01 1.727082e+01 2.876316e+01 2.764212e+01 2.622778e+01 2.565197e+01 1.555284e+01 7.916392e+00 4.435696e+00 2.280249e+00 7.907153e+00 9.591479e+00 8.219556e+00 6.349642e+00 3.393387e+00 3.229317e-03 3.396246e+00 6.351419e+00 8.220610e+00 9.592713e+00 7.907515e+00 2.282351e+00 4.438149e+00 7.912888e+00 1.555510e+01 2.564802e+01 2.620850e+01 2.763460e+01 2.876400e+01 1.726737e+01 1.099888e+01 
5.544781e+00 8.235183e+00 1.199985e+01 1.243998e+01 4.159003e+01 5.801528e+01 4.715965e+01 2.806441e+01 1.842960e+01 9.092161e+00 8.895614e+00 1.457855e+01 1.330886e+01 1.042939e+01 7.924841e+00 5.262306e+00 3.668223e+00 5.264588e+00 7.927061e+00 1.043051e+01 1.331208e+01 1.457988e+01 8.898226e+00 9.088682e+00 1.843082e+01 2.806165e+01 4.714209e+01 5.798905e+01 4.156218e+01 1.244825e+01 1.199602e+01 8.234006e+00 5.546958e+00 1.237333e+01 1.791604e+01 2.726767e+01 2.746156e+01 2.580616e+01 2.633978e+01 1.906051e+01 1.441852e+01 5.614835e+00 6.965086e+00 1.276643e+01 1.180438e+01 9.284530e+00 7.228933e+00 4.822489e+00 3.396374e+00 4.824634e+00 7.230588e+00 9.285810e+00 1.180648e+01 1.276880e+01 6.966143e+00 5.613827e+00 1.441953e+01 1.906197e+01 2.633086e+01 2.579092e+01 2.745862e+01 2.726699e+01 1.791371e+01 1.237348e+01 
1.209616e+01 1.470801e+01 1.113986e+01 2.538750e+01 4.798918e+01 2.207885e+01 3.820085e+01 3.724793e+01 2.851717e+01 2.321667e+01 1.758371e+01 1.900732e+01 1.730480e+01 1.346450e+01 1.050452e+01 8.722721e+00 7.919211e+00 8.724195e+00 1.050495e+01 1.346585e+01 1.730849e+01 1.900991e+01 1.759133e+01 2.321671e+01 2.852439e+01 3.725014e+01 3.818685e+01 2.207639e+01 4.795901e+01 2.538881e+01 1.114505e+01 1.470744e+01 1.209809e+01 1.533536e+01 2.071163e+01 2.254782e+01 2.606647e+01 2.348920e+01 2.419249e+01 2.623308e+01 2.358658e+01 1.862043e+01 1.635721e+01 1.811730e+01 1.601629e+01 1.230878e+01 9.643435e+00 8.036898e+00 7.255804e+00 8.038123e+00 9.643668e+00 1.230984e+01 1.601893e+01 1.812062e+01 1.636150e+01 1.862135e+01 2.359132e+01 2.623496e+01 2.418619e+01 2.349035e+01 2.606963e+01 2.254594e+01 2.071082e+01 1.533503e+01 