# vtk DataFile Version 2.0
Comment goes here
ASCII

DATASET STRUCTURED_POINTS
DIMENSIONS    64   64   1

ORIGIN    0.000   0.000   0.000
SPACING   0.031250.03125   1.000

POINT_DATA   4096
SCALARS uMag double
LOOKUP_TABLE default

4.400571e-01 7.795282e-01 3.900195e-01 9.600370e-01 4.657726e-01 1.072942e+00 5.675391e-01 1.090450e+00 6.195632e-01 9.999082e-01 5.943415e-01 8.044489e-01 4.957386e-01 5.220453e-01 3.591053e-01 1.836022e-01 2.770713e-01 1.822338e-01 3.479958e-01 5.210417e-01 4.811096e-01 8.040792e-01 5.788548e-01 1.000182e+00 6.040761e-01 1.091055e+00 5.524042e-01 1.073205e+00 4.511784e-01 9.588998e-01 3.769180e-01 7.754678e-01 4.300650e-01 5.647573e-01 5.809767e-01 3.875988e-01 7.344224e-01 3.206219e-01 8.337160e-01 3.570759e-01 8.517147e-01 3.988262e-01 7.821673e-01 3.965626e-01 6.403312e-01 3.533369e-01 4.736358e-01 3.067515e-01 3.912922e-01 3.074594e-01 4.853681e-01 3.558232e-01 6.556563e-01 4.017802e-01 7.974140e-01 4.081368e-01 8.654754e-01 3.720259e-01 8.454481e-01 3.403540e-01 7.442131e-01 4.039356e-01 5.897559e-01 5.738931e-01 
3.849244e-01 1.042574e+00 4.590681e-01 1.198526e+00 5.694882e-01 1.275594e+00 6.480416e-01 1.254520e+00 6.601219e-01 1.130522e+00 5.947300e-01 9.148649e-01 4.587920e-01 6.383359e-01 2.780007e-01 3.812324e-01 1.453702e-01 3.822811e-01 2.636471e-01 6.403166e-01 4.428732e-01 9.172857e-01 5.787712e-01 1.133199e+00 6.445612e-01 1.257144e+00 6.331114e-01 1.277694e+00 5.552428e-01 1.199520e+00 4.453357e-01 1.041871e+00 3.718316e-01 8.355576e-01 4.022039e-01 6.188512e-01 4.988100e-01 4.330658e-01 5.815121e-01 3.134118e-01 6.040319e-01 2.603180e-01 5.482117e-01 2.279152e-01 4.154049e-01 1.806188e-01 2.231096e-01 1.278993e-01 4.639304e-02 1.246290e-01 2.413705e-01 1.753403e-01 4.329649e-01 2.247130e-01 5.643406e-01 2.613968e-01 6.183819e-01 3.187698e-01 5.941066e-01 4.396263e-01 5.102690e-01 6.239742e-01 4.139533e-01 8.384217e-01 
2.754676e-01 7.223503e-01 2.189108e-01 9.466931e-01 4.087157e-01 1.092553e+00 5.992969e-01 1.132685e+00 7.215375e-01 1.055676e+00 7.615094e-01 8.683999e-01 7.331934e-01 5.986364e-01 6.762196e-01 3.200367e-01 6.445248e-01 3.164512e-01 6.679006e-01 5.938133e-01 7.195390e-01 8.646586e-01 7.455231e-01 1.053678e+00 7.051973e-01 1.132604e+00 5.837235e-01 1.094166e+00 3.941076e-01 9.493824e-01 2.043742e-01 7.250207e-01 2.678046e-01 4.607867e-01 4.946610e-01 2.205388e-01 6.972517e-01 1.970843e-01 8.278695e-01 3.493708e-01 8.670822e-01 4.677016e-01 8.136670e-01 5.254871e-01 6.875425e-01 5.366250e-01 5.404934e-01 5.301355e-01 4.721218e-01 5.312362e-01 5.529306e-01 5.398994e-01 7.046661e-01 5.309654e-01 8.309762e-01 4.756514e-01 8.825384e-01 3.605869e-01 8.404710e-01 2.132161e-01 7.066670e-01 2.283496e-01 5.014801e-01 4.602492e-01 
6.525825e-01 1.230966e+00 6.600049e-01 1.376730e+00 6.849364e-01 1.427599e+00 6.959823e-01 1.368138e+00 6.673083e-01 1.198186e+00 5.874740e-01 9.316920e-01 4.613164e-01 5.929552e-01 3.160283e-01 2.194611e-01 2.329945e-01 2.251286e-01 3.088925e-01 5.989089e-01 4.515169e-01 9.371577e-01 5.760832e-01 1.202698e+00 6.545520e-01 1.371144e+00 6.821280e-01 1.428504e+00 6.705371e-01 1.375012e+00 6.459518e-01 1.226309e+00 6.398191e-01 1.010847e+00 6.669200e-01 7.648484e-01 7.104671e-01 5.270120e-01 7.358433e-01 3.351340e-01 7.121169e-01 2.230614e-01 6.223450e-01 1.928811e-01 4.662466e-01 1.933415e-01 2.626961e-01 1.912972e-01 1.116966e-01 1.863041e-01 2.763255e-01 1.811990e-01 4.799997e-01 1.811934e-01 6.351088e-01 2.211039e-01 7.236772e-01 3.424805e-01 7.464608e-01 5.374288e-01 7.208720e-01 7.746543e-01 6.781430e-01 1.018393e+00 
2.678723e-01 7.797517e-01 8.095501e-02 1.052623e+00 4.174887e-01 1.234249e+00 7.057056e-01 1.295737e+00 9.131112e-01 1.226494e+00 1.027344e+00 1.039572e+00 1.061705e+00 7.778066e-01 1.052034e+00 5.429637e-01 1.039685e+00 5.386521e-01 1.044243e+00 7.700887e-01 1.048065e+00 1.032820e+00 1.010482e+00 1.222438e+00 8.954487e-01 1.295097e+00 6.893025e-01 1.237132e+00 4.042322e-01 1.058677e+00 7.569267e-02 7.883244e-01 2.738158e-01 4.659267e-01 5.812606e-01 1.376090e-01 8.208975e-01 1.806312e-01 9.668618e-01 4.271877e-01 1.006849e+00 6.058668e-01 9.450044e-01 7.152802e-01 8.070936e-01 7.693379e-01 6.520485e-01 7.889558e-01 5.828197e-01 7.899586e-01 6.662139e-01 7.723123e-01 8.268622e-01 7.201200e-01 9.646607e-01 6.123515e-01 1.023495e+00 4.348366e-01 9.788748e-01 1.877675e-01 8.273421e-01 1.247435e-01 5.816767e-01 4.555225e-01 
9.844961e-01 1.531502e+00 9.412874e-01 1.681975e+00 8.890685e-01 1.707795e+00 8.334274e-01 1.599748e+00 7.814188e-01 1.370017e+00 7.378067e-01 1.047463e+00 7.035759e-01 6.688176e-01 6.804464e-01 2.941404e-01 6.722338e-01 3.026979e-01 6.804824e-01 6.793018e-01 7.021991e-01 1.056777e+00 7.330747e-01 1.377072e+00 7.721904e-01 1.603635e+00 8.202324e-01 1.707764e+00 8.738851e-01 1.677578e+00 9.264436e-01 1.522759e+00 9.716041e-01 1.271855e+00 1.003443e+00 9.659082e-01 1.013202e+00 6.539889e-01 9.881983e-01 4.012639e-01 9.153778e-01 3.147648e-01 7.878875e-01 3.972750e-01 6.127866e-01 4.986814e-01 4.249939e-01 5.543417e-01 3.293835e-01 5.502570e-01 4.335863e-01 4.872105e-01 6.232067e-01 3.814350e-01 7.977684e-01 3.045213e-01 9.242705e-01 4.076090e-01 9.965646e-01 6.678427e-01 1.022073e+00 9.805498e-01 1.013987e+00 1.284298e+00 
5.144037e-01 9.761813e-01 2.816965e-01 1.299177e+00 5.435374e-01 1.522750e+00 9.170554e-01 1.606315e+00 1.218820e+00 1.536242e+00 1.406965e+00 1.333443e+00 1.488751e+00 1.058599e+00 1.504470e+00 8.321064e-01 1.500149e+00 8.269562e-01 1.496250e+00 1.048157e+00 1.474034e+00 1.323644e+00 1.388350e+00 1.530095e+00 1.199160e+00 1.605165e+00 8.996448e-01 1.526883e+00 5.340622e-01 1.308101e+00 2.961056e-01 9.888702e-01 5.302709e-01 6.317032e-01 8.661466e-01 3.566453e-01 1.128171e+00 4.070438e-01 1.275798e+00 6.406907e-01 1.297920e+00 8.506244e-01 1.204149e+00 9.979725e-01 1.028419e+00 1.084653e+00 8.417167e-01 1.123329e+00 7.609619e-01 1.124122e+00 8.582827e-01 1.087085e+00 1.051511e+00 1.002103e+00 1.226464e+00 8.562199e-01 1.315531e+00 6.465796e-01 1.286468e+00 4.087223e-01 1.130599e+00 3.447324e-01 8.596093e-01 6.167853e-01 
1.430779e+00 1.978765e+00 1.341386e+00 2.151104e+00 1.212363e+00 2.152149e+00 1.088091e+00 1.979978e+00 1.027970e+00 1.671316e+00 1.054946e+00 1.292255e+00 1.128833e+00 9.183546e-01 1.195686e+00 6.522333e-01 1.222837e+00 6.593352e-01 1.199040e+00 9.323109e-01 1.133419e+00 1.306069e+00 1.056720e+00 1.681855e+00 1.022684e+00 1.985498e+00 1.075202e+00 2.151600e+00 1.195656e+00 2.144087e+00 1.325088e+00 1.965688e+00 1.417399e+00 1.651357e+00 1.453845e+00 1.257472e+00 1.433222e+00 8.597813e-01 1.359945e+00 5.809770e-01 1.238456e+00 5.807122e-01 1.075768e+00 7.641224e-01 8.903031e-01 9.409293e-01 7.254063e-01 1.037946e+00 6.565208e-01 1.033164e+00 7.313628e-01 9.273854e-01 8.983649e-01 7.447125e-01 1.083287e+00 5.639171e-01 1.244785e+00 5.829440e-01 1.365861e+00 8.760955e-01 1.440292e+00 1.277141e+00 1.463665e+00 1.669096e+00 
9.427271e-01 1.337693e+00 6.519257e-01 1.720492e+00 8.330377e-01 2.001520e+00 1.285571e+00 2.112551e+00 1.695704e+00 2.029418e+00 1.954346e+00 1.785422e+00 2.060589e+00 1.467516e+00 2.075811e+00 1.220394e+00 2.068630e+00 1.214043e+00 2.066648e+00 1.453848e+00 2.044047e+00 1.772071e+00 1.933227e+00 2.020925e+00 1.673427e+00 2.111015e+00 1.266974e+00 2.007239e+00 8.277415e-01 1.732343e+00 6.713242e-01 1.353266e+00 9.647004e-01 9.740668e-01 1.349093e+00 7.516519e-01 1.639993e+00 8.104489e-01 1.785119e+00 1.028688e+00 1.775844e+00 1.252595e+00 1.630122e+00 1.424974e+00 1.394252e+00 1.535022e+00 1.157382e+00 1.587769e+00 1.057960e+00 1.588254e+00 1.176807e+00 1.536713e+00 1.421366e+00 1.428374e+00 1.655709e+00 1.257884e+00 1.794766e+00 1.034773e+00 1.794551e+00 8.132479e-01 1.638542e+00 7.444163e-01 1.336538e+00 9.590265e-01 
2.059904e+00 2.632815e+00 1.926009e+00 2.851146e+00 1.711656e+00 2.826998e+00 1.507143e+00 2.563556e+00 1.444776e+00 2.142628e+00 1.560869e+00 1.707636e+00 1.744676e+00 1.382283e+00 1.890340e+00 1.220648e+00 1.947087e+00 1.227220e+00 1.896566e+00 1.398519e+00 1.754608e+00 1.726355e+00 1.569023e+00 2.157815e+00 1.443686e+00 2.571779e+00 1.494131e+00 2.826560e+00 1.692546e+00 2.841574e+00 1.907538e+00 2.614972e+00 2.045800e+00 2.201220e+00 2.080078e+00 1.688907e+00 2.022308e+00 1.202265e+00 1.897363e+00 9.358834e-01 1.728765e+00 1.033318e+00 1.538138e+00 1.312636e+00 1.352997e+00 1.567521e+00 1.212595e+00 1.709130e+00 1.161153e+00 1.703153e+00 1.217647e+00 1.550665e+00 1.359922e+00 1.288514e+00 1.543935e+00 1.010832e+00 1.732562e+00 9.322766e-01 1.900401e+00 1.219783e+00 2.027031e+00 1.713835e+00 2.088895e+00 2.224895e+00 
1.582176e+00 1.906762e+00 1.199051e+00 2.372932e+00 1.329075e+00 2.742835e+00 1.887884e+00 2.894556e+00 2.439647e+00 2.777680e+00 2.761749e+00 2.452367e+00 2.849340e+00 2.052358e+00 2.820706e+00 1.758711e+00 2.795374e+00 1.750696e+00 2.810359e+00 2.034531e+00 2.830579e+00 2.434516e+00 2.737630e+00 2.766393e+00 2.414188e+00 2.892978e+00 1.867689e+00 2.751090e+00 1.327286e+00 2.388675e+00 1.223872e+00 1.925251e+00 1.610742e+00 1.521501e+00 2.075804e+00 1.341544e+00 2.408585e+00 1.425526e+00 2.549571e+00 1.646504e+00 2.497021e+00 1.880480e+00 2.282238e+00 2.069692e+00 1.969311e+00 2.196504e+00 1.671270e+00 2.261131e+00 1.551120e+00 2.261130e+00 1.693944e+00 2.197050e+00 2.001268e+00 2.072081e+00 2.312024e+00 1.885722e+00 2.517980e+00 1.653935e+00 2.558165e+00 1.431209e+00 2.403364e+00 1.338490e+00 2.057172e+00 1.507487e+00 
2.968757e+00 3.584508e+00 2.795782e+00 3.890560e+00 2.478506e+00 3.844618e+00 2.165981e+00 3.441556e+00 2.096611e+00 2.842499e+00 2.320528e+00 2.350502e+00 2.617293e+00 2.120063e+00 2.836752e+00 2.066132e+00 2.924515e+00 2.072517e+00 2.846280e+00 2.137836e+00 2.633352e+00 2.374371e+00 2.336077e+00 2.863864e+00 2.100441e+00 3.454090e+00 2.152336e+00 3.845307e+00 2.455894e+00 3.878555e+00 2.774361e+00 3.561244e+00 2.953904e+00 2.994373e+00 2.967725e+00 2.325675e+00 2.855161e+00 1.752482e+00 2.671109e+00 1.529713e+00 2.459954e+00 1.735546e+00 2.254550e+00 2.123248e+00 2.085459e+00 2.471033e+00 1.978361e+00 2.669803e+00 1.947023e+00 2.662206e+00 1.983687e+00 2.449827e+00 2.092522e+00 2.093214e+00 2.259399e+00 1.706875e+00 2.461172e+00 1.520366e+00 2.670483e+00 1.770061e+00 2.856491e+00 2.356134e+00 2.974828e+00 3.024898e+00 
2.528307e+00 2.755653e+00 2.012586e+00 3.346104e+00 2.105522e+00 3.864836e+00 2.839671e+00 4.086298e+00 3.609060e+00 3.891432e+00 3.975385e+00 3.413776e+00 3.952955e+00 2.877808e+00 3.801893e+00 2.515213e+00 3.740898e+00 2.504972e+00 3.790454e+00 2.854575e+00 3.932058e+00 3.389980e+00 3.948116e+00 3.876671e+00 3.579887e+00 4.085464e+00 2.817231e+00 3.877517e+00 2.107235e+00 3.367882e+00 2.044980e+00 2.778208e+00 2.565426e+00 2.345525e+00 3.142200e+00 2.216834e+00 3.526457e+00 2.345269e+00 3.657795e+00 2.584976e+00 3.548707e+00 2.832486e+00 3.251503e+00 3.037933e+00 2.854129e+00 3.181522e+00 2.496962e+00 3.265680e+00 2.366056e+00 3.264887e+00 2.523354e+00 3.180183e+00 2.891880e+00 3.038619e+00 3.286628e+00 2.837510e+00 3.572600e+00 2.594345e+00 3.665937e+00 2.354812e+00 3.517211e+00 2.218218e+00 3.116495e+00 2.332628e+00 
4.296482e+00 4.963422e+00 4.105581e+00 5.439711e+00 3.659441e+00 5.396169e+00 3.188806e+00 4.770589e+00 3.096121e+00 3.851808e+00 3.458884e+00 3.304077e+00 3.853392e+00 3.232338e+00 4.126199e+00 3.305980e+00 4.258461e+00 3.312132e+00 4.139801e+00 3.250799e+00 3.877219e+00 3.333087e+00 3.484276e+00 3.881564e+00 3.106864e+00 4.790124e+00 3.174052e+00 5.399808e+00 3.631944e+00 5.425546e+00 4.080416e+00 4.933771e+00 4.281238e+00 4.126306e+00 4.232657e+00 3.251075e+00 4.032162e+00 2.601181e+00 3.780637e+00 2.458410e+00 3.539929e+00 2.799297e+00 3.342371e+00 3.321204e+00 3.216713e+00 3.790709e+00 3.171306e+00 4.080602e+00 3.185588e+00 4.070849e+00 3.177992e+00 3.764018e+00 3.225292e+00 3.283926e+00 3.347182e+00 2.763363e+00 3.538413e+00 2.442813e+00 3.775052e+00 2.617750e+00 4.028262e+00 3.287324e+00 4.236605e+00 4.164924e+00 
3.931527e+00 3.994977e+00 3.233401e+00 4.774240e+00 3.289941e+00 5.560615e+00 4.323901e+00 5.924967e+00 5.484762e+00 5.538009e+00 5.829832e+00 4.769240e+00 5.486015e+00 4.014064e+00 5.071110e+00 3.579515e+00 4.988006e+00 3.566252e+00 5.059143e+00 3.983972e+00 5.463808e+00 4.737368e+00 5.799834e+00 5.518677e+00 5.451529e+00 5.926623e+00 4.298554e+00 5.581159e+00 3.296650e+00 4.805852e+00 3.277351e+00 4.023743e+00 3.980459e+00 3.564569e+00 4.693769e+00 3.512560e+00 5.128474e+00 3.706823e+00 5.236979e+00 3.978048e+00 5.056596e+00 4.248615e+00 4.672585e+00 4.483200e+00 4.202233e+00 4.656622e+00 3.814808e+00 4.807126e+00 3.729718e+00 4.805065e+00 3.845675e+00 4.652210e+00 4.246841e+00 4.480938e+00 4.714310e+00 4.252753e+00 5.084386e+00 3.989609e+00 5.244966e+00 3.721177e+00 5.114615e+00 3.519266e+00 4.659239e+00 3.552854e+00 
6.241595e+00 6.943393e+00 6.099019e+00 7.763662e+00 5.493520e+00 7.820319e+00 4.798454e+00 6.847835e+00 4.648081e+00 5.276976e+00 5.207680e+00 4.707355e+00 5.591257e+00 4.858955e+00 5.837492e+00 5.091446e+00 6.098325e+00 5.097011e+00 5.855956e+00 4.876494e+00 5.624980e+00 4.740550e+00 5.247261e+00 5.318487e+00 4.670647e+00 6.879386e+00 4.782414e+00 7.830466e+00 5.459448e+00 7.747804e+00 6.069420e+00 6.905800e+00 6.227023e+00 5.708873e+00 6.023754e+00 4.562517e+00 5.679309e+00 3.866917e+00 5.360446e+00 3.866420e+00 5.123879e+00 4.392307e+00 4.969848e+00 5.085953e+00 4.932876e+00 5.726405e+00 5.021718e+00 6.218726e+00 5.199423e+00 6.206000e+00 5.031143e+00 5.692937e+00 4.944603e+00 5.039919e+00 4.975699e+00 4.347630e+00 5.119324e+00 3.843399e+00 5.347881e+00 3.881060e+00 5.667095e+00 4.604589e+00 6.021859e+00 5.757248e+00 
6.009742e+00 5.785713e+00 5.083764e+00 6.843260e+00 5.109149e+00 8.146343e+00 6.635578e+00 8.880017e+00 8.625526e+00 7.960885e+00 8.714921e+00 6.629409e+00 7.521861e+00 5.481763e+00 6.587111e+00 5.068177e+00 6.702748e+00 5.050264e+00 6.575874e+00 5.443622e+00 7.500483e+00 6.586379e+00 8.683671e+00 7.934834e+00 8.588822e+00 8.888458e+00 6.607437e+00 8.180842e+00 5.125446e+00 6.891053e+00 5.146444e+00 5.823818e+00 6.075405e+00 5.353001e+00 6.927050e+00 5.415066e+00 7.390844e+00 5.697035e+00 7.456108e+00 6.009904e+00 7.191923e+00 6.321786e+00 6.736530e+00 6.625695e+00 6.233724e+00 6.847041e+00 5.888484e+00 7.269624e+00 6.120122e+00 7.265644e+00 5.925425e+00 6.837848e+00 6.286362e+00 6.618496e+00 6.786181e+00 6.323710e+00 7.224581e+00 6.023562e+00 7.464152e+00 5.717255e+00 7.371582e+00 5.428712e+00 6.881356e+00 5.343098e+00 
9.077281e+00 9.729834e+00 9.171683e+00 1.126947e+01 8.367457e+00 1.174352e+01 7.461261e+00 1.032823e+01 7.187713e+00 7.246006e+00 8.043178e+00 6.889855e+00 7.978150e+00 7.177382e+00 7.968682e+00 7.618383e+00 8.740918e+00 7.622336e+00 7.991570e+00 7.190483e+00 8.023180e+00 6.923192e+00 8.103628e+00 7.304159e+00 7.234591e+00 1.038231e+01 7.444775e+00 1.176770e+01 8.324812e+00 1.125218e+01 9.137337e+00 9.681417e+00 9.065664e+00 7.837690e+00 8.507176e+00 6.350664e+00 7.934769e+00 5.699689e+00 7.585696e+00 5.962298e+00 7.436584e+00 6.758471e+00 7.369825e+00 7.664022e+00 7.497341e+00 8.608040e+00 7.970289e+00 9.667920e+00 8.723185e+00 9.649735e+00 7.984641e+00 8.565545e+00 7.514100e+00 7.607481e+00 7.377986e+00 6.703251e+00 7.428501e+00 5.930015e+00 7.563144e+00 5.709145e+00 7.909169e+00 6.397878e+00 8.494586e+00 7.898036e+00 
9.053118e+00 8.378549e+00 7.911383e+00 9.764037e+00 8.056776e+00 1.212147e+01 1.023987e+01 1.404397e+01 1.431887e+01 1.143573e+01 1.330559e+01 9.193004e+00 9.958469e+00 7.329621e+00 8.364171e+00 7.539914e+00 9.827137e+00 7.507738e+00 8.343576e+00 7.273203e+00 9.939868e+00 9.135052e+00 1.327629e+01 1.139784e+01 1.428311e+01 1.407161e+01 1.021309e+01 1.218026e+01 8.094535e+00 9.838396e+00 8.005622e+00 8.429735e+00 9.142298e+00 7.952995e+00 1.007209e+01 8.155525e+00 1.051557e+01 8.554218e+00 1.053062e+01 8.929563e+00 1.018009e+01 9.297689e+00 9.700308e+00 9.808692e+00 9.404990e+00 1.032027e+01 9.601369e+00 1.178539e+01 1.115522e+01 1.177691e+01 9.648908e+00 1.030180e+01 9.466397e+00 9.793383e+00 9.759173e+00 9.295239e+00 1.021853e+01 8.944714e+00 1.053882e+01 8.581371e+00 1.049011e+01 8.178757e+00 1.001282e+01 7.947078e+00 
1.314147e+01 1.347395e+01 1.401268e+01 1.658759e+01 1.282599e+01 1.833265e+01 1.236857e+01 1.692877e+01 1.201669e+01 9.945198e+00 1.304999e+01 1.079814e+01 1.041526e+01 9.234640e+00 9.922800e+00 1.171721e+01 1.389413e+01 1.171793e+01 9.947475e+00 9.238967e+00 1.047063e+01 1.082159e+01 1.313813e+01 1.002497e+01 1.212210e+01 1.703087e+01 1.235679e+01 1.838848e+01 1.277204e+01 1.656627e+01 1.397415e+01 1.340868e+01 1.313703e+01 1.048154e+01 1.179218e+01 8.638732e+00 1.090224e+01 8.279914e+00 1.068296e+01 9.064292e+00 1.082407e+01 1.025886e+01 1.085579e+01 1.123076e+01 1.089581e+01 1.202493e+01 1.207305e+01 1.591949e+01 1.616207e+01 1.590420e+01 1.209584e+01 1.197216e+01 1.092024e+01 1.116216e+01 1.086744e+01 1.019142e+01 1.081197e+01 9.020439e+00 1.064620e+01 8.281262e+00 1.085498e+01 8.688785e+00 1.176010e+01 1.055679e+01 
1.338424e+01 1.233165e+01 1.220414e+01 1.358376e+01 1.358751e+01 1.820958e+01 1.585427e+01 2.446719e+01 2.626063e+01 1.610198e+01 2.106633e+01 1.338688e+01 1.136239e+01 7.877875e+00 8.854900e+00 9.315289e+00 1.199565e+01 9.317987e+00 8.869806e+00 7.833824e+00 1.136260e+01 1.332059e+01 2.104251e+01 1.603991e+01 2.624465e+01 2.455473e+01 1.585275e+01 1.830714e+01 1.367486e+01 1.370129e+01 1.235113e+01 1.239842e+01 1.350433e+01 1.165148e+01 1.430782e+01 1.193466e+01 1.467869e+01 1.256557e+01 1.477971e+01 1.316708e+01 1.436824e+01 1.355854e+01 1.396679e+01 1.434653e+01 1.334687e+01 1.406331e+01 1.353323e+01 1.758137e+01 1.721733e+01 1.757593e+01 1.358182e+01 1.403784e+01 1.342067e+01 1.432025e+01 1.403665e+01 1.354881e+01 1.441366e+01 1.318236e+01 1.478795e+01 1.260045e+01 1.464638e+01 1.197159e+01 1.423386e+01 1.165547e+01 
1.871579e+01 1.784071e+01 2.202558e+01 2.505702e+01 1.920643e+01 2.931617e+01 2.282853e+01 3.196464e+01 2.568654e+01 1.566943e+01 2.449901e+01 2.161647e+01 1.470413e+01 1.384675e+01 1.299380e+01 1.269796e+01 1.353358e+01 1.269717e+01 1.301141e+01 1.383751e+01 1.475044e+01 2.160227e+01 2.459608e+01 1.576129e+01 2.592904e+01 3.219007e+01 2.285309e+01 2.944879e+01 1.913234e+01 2.501548e+01 2.198542e+01 1.774535e+01 1.872543e+01 1.317122e+01 1.570207e+01 1.126007e+01 1.454429e+01 1.184794e+01 1.504919e+01 1.392001e+01 1.627713e+01 1.653165e+01 1.734771e+01 1.816879e+01 1.730890e+01 1.874403e+01 1.871933e+01 2.193525e+01 2.105718e+01 2.192065e+01 1.874806e+01 1.868359e+01 1.734425e+01 1.808556e+01 1.736510e+01 1.645104e+01 1.626235e+01 1.386221e+01 1.499260e+01 1.183723e+01 1.446187e+01 1.130758e+01 1.563381e+01 1.326514e+01 
1.922196e+01 1.966095e+01 1.851560e+01 1.841325e+01 2.662553e+01 2.895691e+01 2.884113e+01 5.013778e+01 5.832486e+01 2.629427e+01 3.976629e+01 2.849875e+01 1.531061e+01 1.212323e+01 1.102382e+01 7.060373e+00 8.702761e+00 7.065219e+00 1.104749e+01 1.208260e+01 1.532370e+01 2.840087e+01 3.971229e+01 2.618117e+01 5.835341e+01 5.038868e+01 2.900635e+01 2.911081e+01 2.681774e+01 1.858089e+01 1.874088e+01 1.974663e+01 1.937678e+01 1.645541e+01 1.947477e+01 1.661789e+01 1.993032e+01 1.817981e+01 2.121772e+01 2.051139e+01 2.241492e+01 2.359524e+01 2.543915e+01 2.702598e+01 2.444379e+01 2.484544e+01 2.310045e+01 2.469706e+01 2.304337e+01 2.468166e+01 2.315209e+01 2.480281e+01 2.453040e+01 2.698315e+01 2.552208e+01 2.357570e+01 2.247108e+01 2.052584e+01 2.122591e+01 1.822313e+01 1.989007e+01 1.667461e+01 1.938870e+01 1.648442e+01 
2.607658e+01 1.995227e+01 3.588843e+01 4.374173e+01 2.695218e+01 4.151691e+01 4.194290e+01 6.961540e+01 6.490449e+01 3.776502e+01 5.095398e+01 5.267368e+01 2.447851e+01 2.070466e+01 1.675652e+01 9.936876e+00 1.170568e+01 9.920293e+00 1.674417e+01 2.067575e+01 2.445387e+01 5.255601e+01 5.099737e+01 3.778572e+01 6.535373e+01 7.019632e+01 4.207518e+01 4.175382e+01 2.682168e+01 4.361533e+01 3.583274e+01 1.978319e+01 2.611375e+01 1.448027e+01 1.924382e+01 1.375557e+01 1.859075e+01 1.707511e+01 2.244381e+01 2.469099e+01 3.186431e+01 3.551947e+01 3.417192e+01 3.031976e+01 2.679874e+01 2.955715e+01 3.025744e+01 3.242047e+01 3.155599e+01 3.240755e+01 3.029188e+01 2.950118e+01 2.685201e+01 3.022227e+01 3.419350e+01 3.542966e+01 3.184527e+01 2.462111e+01 2.235884e+01 1.705314e+01 1.845190e+01 1.379113e+01 1.910420e+01 1.459347e+01 
2.534575e+01 3.069539e+01 7.456285e+00 6.305992e+01 5.787948e+01 4.801870e+01 6.716198e+01 9.295065e+01 8.474374e+01 5.194989e+01 4.541622e+01 7.276537e+01 3.265909e+01 1.237190e+01 1.051376e+01 1.373216e+00 5.551103e+00 1.358396e+00 1.051491e+01 1.234775e+01 3.266888e+01 7.266142e+01 4.578447e+01 5.197522e+01 8.546644e+01 9.268696e+01 6.757317e+01 4.814265e+01 5.816835e+01 6.315642e+01 7.822433e+00 3.085640e+01 2.552511e+01 2.051461e+01 2.406846e+01 2.086399e+01 2.613994e+01 2.701681e+01 3.565289e+01 4.031789e+01 4.184379e+01 3.258259e+01 2.175914e+01 2.405173e+01 2.550708e+01 3.028628e+01 3.055803e+01 3.243346e+01 3.122689e+01 3.243175e+01 3.055961e+01 3.028323e+01 2.553523e+01 2.399205e+01 2.185583e+01 3.254221e+01 4.189680e+01 4.033689e+01 3.565949e+01 2.707401e+01 2.608797e+01 2.094908e+01 2.397664e+01 2.062531e+01 
4.127635e+01 3.585774e+01 9.980398e+01 6.887996e+01 5.572323e+01 6.386767e+01 8.727552e+01 7.566309e+01 1.011176e+02 6.177062e+01 7.476332e+01 1.014230e+02 3.798023e+01 1.773936e+01 2.308440e+01 9.090047e+00 1.110329e+01 8.996264e+00 2.307240e+01 1.764625e+01 3.772974e+01 1.014771e+02 7.532968e+01 6.134992e+01 1.015034e+02 7.401418e+01 8.650953e+01 6.386256e+01 5.553328e+01 6.893545e+01 9.947935e+01 3.556231e+01 4.149899e+01 1.388424e+01 1.893074e+01 1.571359e+01 2.379528e+01 2.946426e+01 4.031486e+01 3.320969e+01 1.612606e+01 1.583008e+01 3.089325e+01 4.032854e+01 3.866282e+01 3.690568e+01 3.094448e+01 2.856343e+01 2.584331e+01 2.858006e+01 3.094262e+01 3.696686e+01 3.869587e+01 4.038196e+01 3.094214e+01 1.580300e+01 1.610374e+01 3.315648e+01 4.018606e+01 2.944412e+01 2.357742e+01 1.573423e+01 1.863964e+01 1.393640e+01 
3.797634e+01 6.729179e+01 6.228143e+01 8.385879e+01 7.659683e+01 8.633349e+01 3.914389e+01 1.897970e+02 2.069817e+02 1.164227e+02 8.731002e+01 3.311508e+01 5.305408e+01 1.653413e+01 2.514603e+01 2.061475e+01 2.019315e+01 2.049150e+01 2.516179e+01 1.628932e+01 5.298317e+01 3.300907e+01 8.737641e+01 1.165337e+02 2.070493e+02 1.898165e+02 3.828597e+01 8.422326e+01 7.595431e+01 8.317428e+01 6.244572e+01 6.693236e+01 3.794231e+01 2.553327e+01 2.215388e+01 2.108376e+01 3.488683e+01 3.902798e+01 3.877688e+01 9.714711e+00 2.007735e+01 4.273797e+01 4.708574e+01 4.467389e+01 3.664474e+01 2.985428e+01 2.173359e+01 1.869123e+01 1.555426e+01 1.871579e+01 2.168216e+01 2.990697e+01 3.660092e+01 4.472379e+01 4.704312e+01 4.274858e+01 2.002027e+01 9.803594e+00 3.875894e+01 3.912361e+01 3.479923e+01 2.120282e+01 2.203104e+01 2.576861e+01 
4.380764e+01 1.544278e+01 1.517111e+02 1.269858e+02 3.914913e+01 1.010002e+02 8.311539e+01 1.246607e+02 3.112912e+01 6.725707e+01 4.663938e+01 3.309860e+01 2.787269e+01 2.648885e+01 2.083576e+01 2.203233e+01 2.020454e+01 2.198976e+01 2.076668e+01 2.632488e+01 2.812659e+01 3.287028e+01 4.651092e+01 6.704736e+01 3.053053e+01 1.250481e+02 8.285765e+01 1.022059e+02 3.959225e+01 1.267768e+02 1.529209e+02 1.452588e+01 4.472818e+01 1.344494e+01 8.555774e-01 1.723021e+01 2.628996e+01 3.335311e+01 2.281797e+01 2.893626e+01 4.868379e+01 5.108718e+01 3.990912e+01 3.194506e+01 2.467458e+01 1.907944e+01 1.451340e+01 1.377062e+01 1.203273e+01 1.379949e+01 1.450498e+01 1.914653e+01 2.468639e+01 3.202106e+01 3.995141e+01 5.117402e+01 4.874679e+01 2.902231e+01 2.267260e+01 3.343879e+01 2.604222e+01 1.736415e+01 1.223715e+00 1.335820e+01 
5.958768e+01 9.407989e+01 1.492225e+02 2.301759e+02 2.025812e+02 5.937462e+01 1.027153e+02 5.818991e+01 5.991300e+01 1.585434e+01 1.949665e+01 3.207044e+01 3.937468e+01 2.663339e+01 1.884353e+01 1.699942e+01 1.237641e+01 1.700531e+01 1.879332e+01 2.665852e+01 3.939632e+01 3.236811e+01 1.924047e+01 1.616266e+01 6.072506e+01 5.579204e+01 1.010002e+02 5.439091e+01 2.084495e+02 2.288512e+02 1.484884e+02 9.435194e+01 6.023938e+01 3.733645e+01 5.872112e+00 2.589121e+01 4.803305e+01 4.196011e+01 3.053966e+01 4.658858e+01 4.334914e+01 3.057084e+01 1.729182e+01 1.828941e+01 1.507193e+01 1.249760e+01 9.354817e+00 9.947513e+00 8.140818e+00 9.956649e+00 9.329157e+00 1.250520e+01 1.505939e+01 1.827878e+01 1.724885e+01 3.061974e+01 4.328898e+01 4.659345e+01 3.042023e+01 4.219633e+01 4.790019e+01 2.603996e+01 5.690735e+00 3.685814e+01 
6.378230e+01 8.089485e+01 9.244031e+01 1.095014e+02 2.775992e+02 1.940804e+02 9.731813e+01 1.757956e+02 1.583929e+02 1.021539e+02 4.900879e+01 4.661349e+01 2.814476e+01 1.856518e+01 1.537720e+01 1.225116e+01 1.196734e+01 1.225821e+01 1.524653e+01 1.864377e+01 2.787776e+01 4.693099e+01 4.893819e+01 1.033509e+02 1.576455e+02 1.783477e+02 9.906446e+01 2.019863e+02 2.724033e+02 1.073837e+02 9.057032e+01 8.096817e+01 6.317719e+01 7.668368e+01 2.379641e+01 2.666282e+01 3.656352e+01 3.367298e+01 4.331539e+01 4.444784e+01 3.109029e+01 1.906403e+01 1.471416e+01 1.979108e+01 1.707760e+01 1.406553e+01 1.085976e+01 1.035714e+01 8.839984e+00 1.037376e+01 1.085807e+01 1.409258e+01 1.710385e+01 1.982023e+01 1.471926e+01 1.917958e+01 3.110234e+01 4.454421e+01 4.325858e+01 3.389058e+01 3.623300e+01 2.674909e+01 2.430966e+01 7.626988e+01 
7.441902e+01 1.542897e+02 1.176135e+02 1.659584e+02 4.714639e+01 1.952041e+02 1.538711e+02 7.085787e+01 8.602548e+01 1.021237e+02 3.852348e+01 1.243644e+01 2.691595e+00 1.231790e+01 5.945484e+00 7.802136e+00 2.907844e+00 7.858174e+00 5.762843e+00 1.242994e+01 2.445819e+00 1.243575e+01 3.851803e+01 1.021597e+02 8.732711e+01 6.775618e+01 1.547874e+02 1.974451e+02 5.219813e+01 1.636786e+02 1.210982e+02 1.530783e+02 7.448816e+01 5.368354e+01 3.656745e+01 3.033550e+01 5.235971e+01 3.764355e+01 4.785575e+01 3.880221e+01 3.118258e+01 2.529201e+01 2.390752e+01 2.058391e+01 1.618073e+01 1.266962e+01 8.608954e+00 7.030916e+00 5.079261e+00 7.074736e+00 8.546523e+00 1.273926e+01 1.610977e+01 2.068281e+01 2.379762e+01 2.545817e+01 3.105893e+01 3.893640e+01 4.770326e+01 3.791143e+01 5.213610e+01 3.042020e+01 3.597659e+01 5.334763e+01 
5.854541e+01 6.782453e+01 1.589011e+02 2.162850e+02 1.127702e+02 1.409669e+02 1.451819e+02 1.370459e+02 2.728737e+01 4.797544e+01 4.432327e+01 3.693413e+01 2.499089e+01 1.840087e+01 1.112603e+01 7.636124e+00 4.787531e+00 7.699217e+00 1.101285e+01 1.852653e+01 2.508558e+01 3.727546e+01 4.490149e+01 4.890246e+01 2.484409e+01 1.401350e+02 1.484401e+02 1.440751e+02 1.146181e+02 2.202989e+02 1.554441e+02 6.983884e+01 5.786107e+01 4.625275e+01 3.457496e+01 5.300357e+00 4.548066e+01 4.232701e+01 4.348495e+01 3.123725e+01 3.331233e+01 2.752125e+01 2.958921e+01 2.350517e+01 1.877714e+01 1.273116e+01 8.632772e+00 5.651023e+00 3.803959e+00 5.720999e+00 8.559774e+00 1.284493e+01 1.869733e+01 2.365002e+01 2.948485e+01 2.769257e+01 3.321350e+01 3.143088e+01 4.337360e+01 4.255811e+01 4.504716e+01 5.668213e+00 3.489262e+01 4.611987e+01 
1.187918e+02 9.489094e+01 2.403487e+02 1.227053e+02 2.459338e+02 2.227465e+02 1.891983e+02 1.601362e+02 7.842920e+01 5.036622e+01 5.663843e+01 4.088446e+01 2.932521e+01 1.606201e+01 1.210983e+01 4.725069e+00 6.141267e+00 4.867482e+00 1.189256e+01 1.627449e+01 2.917173e+01 4.133299e+01 5.716051e+01 5.222814e+01 7.681672e+01 1.630990e+02 1.865755e+02 2.294526e+02 2.524995e+02 1.265395e+02 2.411622e+02 9.592518e+01 1.180115e+02 4.450733e+01 4.615341e+01 6.144124e+00 4.324168e+01 5.142746e+01 5.127940e+01 4.211906e+01 3.997379e+01 3.397945e+01 3.561669e+01 2.918173e+01 2.273083e+01 1.427393e+01 9.052512e+00 3.874317e+00 9.008861e-01 4.045765e+00 8.946987e+00 1.445758e+01 2.262447e+01 2.938838e+01 3.550032e+01 3.422388e+01 3.985878e+01 4.243815e+01 5.111593e+01 5.172411e+01 4.303863e+01 6.818149e+00 4.645625e+01 4.554163e+01 
7.780323e+01 1.372239e+02 2.490218e+02 3.325531e+02 4.646583e+01 1.756020e+02 2.383426e+02 9.461236e+01 4.435608e+01 5.849475e+01 1.384856e+01 7.400684e+00 1.836268e+01 6.713765e+00 8.140950e+00 2.378170e+00 3.106559e+00 2.524052e+00 7.935457e+00 6.939909e+00 1.830393e+01 7.939572e+00 1.440602e+01 5.670760e+01 4.413116e+01 9.553080e+01 2.426496e+02 1.655934e+02 4.365624e+01 3.359338e+02 2.476687e+02 1.354561e+02 7.818475e+01 2.786615e+01 3.955889e+01 1.922010e+00 4.137131e+01 4.665990e+01 4.718019e+01 3.094110e+01 3.425156e+01 2.721915e+01 2.997268e+01 2.320204e+01 1.915319e+01 1.223443e+01 8.882515e+00 5.017120e+00 4.081358e+00 5.098550e+00 8.775438e+00 1.235969e+01 1.902382e+01 2.335608e+01 2.982173e+01 2.739775e+01 3.407830e+01 3.114894e+01 4.694477e+01 4.681585e+01 4.113914e+01 1.923841e+00 3.911450e+01 2.813612e+01 
1.294407e+02 1.152843e+02 8.524354e+01 3.287043e+02 4.508695e+02 2.977315e+02 2.075781e+02 7.462684e+01 3.696592e+01 4.793658e+01 1.289611e+01 1.418596e+01 1.929586e+01 1.329854e+01 1.303291e+01 8.935758e+00 9.399050e+00 9.019371e+00 1.283930e+01 1.356587e+01 1.905051e+01 1.506284e+01 1.322315e+01 4.858208e+01 3.318797e+01 7.285228e+01 1.983262e+02 3.009426e+02 4.455600e+02 3.270346e+02 9.002325e+01 1.133384e+02 1.277036e+02 3.812790e+01 3.964773e+01 2.059113e+01 4.480634e+01 3.734490e+01 5.263741e+01 3.731589e+01 3.137470e+01 2.427445e+01 2.437184e+01 2.062260e+01 1.763215e+01 1.313962e+01 1.007620e+01 7.742283e+00 6.777872e+00 7.807766e+00 1.001905e+01 1.327386e+01 1.756328e+01 2.082338e+01 2.425329e+01 2.454290e+01 3.122654e+01 3.764981e+01 5.243931e+01 3.776991e+01 4.456280e+01 2.107658e+01 3.926942e+01 3.989454e+01 