# vtk DataFile Version 2.0
Comment goes here
ASCII

DATASET STRUCTURED_POINTS
DIMENSIONS    64   64   1

ORIGIN    0.000   0.000   0.000
SPACING   0.031250.03125   1.000

POINT_DATA   4096
SCALARS uMag double
LOOKUP_TABLE default

2.013709e+00 6.170933e+00 1.878121e+00 6.478092e+00 1.640842e+00 6.485973e+00 1.307300e+00 6.083413e+00 9.787992e-01 5.223035e+00 9.457508e-01 3.970254e+00 1.305590e+00 2.540309e+00 1.730224e+00 1.563857e+00 1.980079e+00 2.026205e+00 1.945004e+00 3.001196e+00 1.626574e+00 3.733127e+00 1.118667e+00 4.101689e+00 5.626097e-01 4.149662e+00 2.285964e-01 3.954773e+00 5.657388e-01 3.596867e+00 9.384573e-01 3.147213e+00 1.233098e+00 2.662123e+00 1.445812e+00 2.178847e+00 1.585265e+00 1.717492e+00 1.665932e+00 1.291914e+00 1.705532e+00 9.356574e-01 1.723031e+00 7.557102e-01 1.736472e+00 8.879648e-01 1.759901e+00 1.253902e+00 1.800172e+00 1.721593e+00 1.855867e+00 2.235599e+00 1.919272e+00 2.776263e+00 1.980431e+00 3.336938e+00 2.031293e+00 3.916039e+00 2.067228e+00 4.511054e+00 2.084226e+00 5.110494e+00 2.072927e+00 5.683729e+00 
2.036607e+00 2.614070e+00 2.080529e+00 2.472570e+00 2.268755e+00 2.259557e+00 2.706662e+00 2.110051e+00 3.385093e+00 2.250247e+00 4.165290e+00 2.689534e+00 4.874799e+00 3.211080e+00 5.388691e+00 3.699782e+00 5.628500e+00 4.082211e+00 5.515784e+00 4.245508e+00 5.060547e+00 4.134761e+00 4.355331e+00 3.798551e+00 3.528070e+00 3.336280e+00 2.686918e+00 2.847768e+00 1.912107e+00 2.407246e+00 1.259614e+00 2.050029e+00 7.658725e-01 1.772531e+00 4.564764e-01 1.545318e+00 3.303414e-01 1.331139e+00 2.915533e-01 1.097954e+00 2.301464e-01 8.245789e-01 1.250869e-01 5.020827e-01 1.601760e-01 1.348683e-01 3.895501e-01 2.771268e-01 6.696280e-01 7.017005e-01 9.660914e-01 1.127084e+00 1.255300e+00 1.531841e+00 1.516095e+00 1.895912e+00 1.731124e+00 2.202129e+00 1.888828e+00 2.437048e+00 1.984990e+00 2.590189e+00 2.025761e+00 2.652233e+00 
2.052190e+00 6.268237e+00 2.022250e+00 6.616372e+00 1.950630e+00 6.626037e+00 1.892238e+00 6.177681e+00 1.883197e+00 5.260754e+00 1.856440e+00 4.040776e+00 1.761661e+00 2.774145e+00 1.630358e+00 1.883306e+00 1.496122e+00 1.933707e+00 1.324592e+00 2.543843e+00 1.073323e+00 3.074407e+00 7.401369e-01 3.353064e+00 4.203008e-01 3.389733e+00 3.901124e-01 3.243188e+00 6.448031e-01 2.978707e+00 9.170450e-01 2.650193e+00 1.144541e+00 2.296324e+00 1.311638e+00 1.939113e+00 1.412452e+00 1.585811e+00 1.450942e+00 1.236945e+00 1.441952e+00 9.034239e-01 1.409131e+00 6.503324e-01 1.379881e+00 6.573158e-01 1.377372e+00 9.676214e-01 1.412675e+00 1.422956e+00 1.482970e+00 1.945324e+00 1.576598e+00 2.511056e+00 1.679915e+00 3.112267e+00 1.782667e+00 3.745354e+00 1.879173e+00 4.404634e+00 1.964413e+00 5.074425e+00 2.027962e+00 5.718432e+00 
2.518760e+00 2.645639e+00 2.296356e+00 2.356488e+00 2.125660e+00 1.908406e+00 2.328535e+00 1.509357e+00 3.002679e+00 1.789905e+00 3.783106e+00 2.611787e+00 4.370521e+00 3.357398e+00 4.752545e+00 3.964579e+00 5.015341e+00 4.422887e+00 5.017739e+00 4.587418e+00 4.723373e+00 4.384353e+00 4.192122e+00 3.900489e+00 3.527738e+00 3.274099e+00 2.815284e+00 2.643212e+00 2.125390e+00 2.119958e+00 1.513314e+00 1.758128e+00 1.014876e+00 1.540145e+00 6.483125e-01 1.400307e+00 4.115949e-01 1.268683e+00 2.771414e-01 1.096488e+00 2.258040e-01 8.582458e-01 3.039414e-01 5.476869e-01 5.083626e-01 1.805402e-01 7.896126e-01 2.767123e-01 1.115052e+00 7.273760e-01 1.459556e+00 1.188806e+00 1.798783e+00 1.631797e+00 2.108351e+00 2.030817e+00 2.366080e+00 2.363052e+00 2.553127e+00 2.608909e+00 2.652149e+00 2.750605e+00 2.645098e+00 2.769791e+00 
2.207133e+00 6.592315e+00 2.314820e+00 7.134190e+00 2.433540e+00 7.293251e+00 2.673922e+00 6.846639e+00 2.991295e+00 5.734963e+00 3.019824e+00 4.325492e+00 2.678326e+00 3.009688e+00 2.199073e+00 2.085645e+00 1.600331e+00 1.915195e+00 9.868035e-01 2.340242e+00 6.817681e-01 2.731117e+00 7.887199e-01 2.901319e+00 9.713001e-01 2.865211e+00 1.100853e+00 2.691380e+00 1.164353e+00 2.451999e+00 1.199819e+00 2.193322e+00 1.248353e+00 1.941427e+00 1.302313e+00 1.701766e+00 1.324646e+00 1.461496e+00 1.291314e+00 1.200460e+00 1.206572e+00 9.061061e-01 1.099225e+00 5.961101e-01 1.012595e+00 4.126314e-01 9.862800e-01 6.335831e-01 1.033233e+00 1.084444e+00 1.137732e+00 1.620613e+00 1.274917e+00 2.214427e+00 1.424952e+00 2.859575e+00 1.579008e+00 3.554253e+00 1.737732e+00 4.296292e+00 1.902627e+00 5.076096e+00 2.065675e+00 5.864050e+00 
3.191030e+00 2.913846e+00 2.688838e+00 2.566387e+00 1.979545e+00 1.950573e+00 1.838437e+00 1.005667e+00 2.964523e+00 1.362871e+00 4.066078e+00 2.885581e+00 4.532911e+00 3.851559e+00 4.672253e+00 4.555235e+00 4.963679e+00 5.150341e+00 4.984517e+00 5.342767e+00 4.683786e+00 4.963423e+00 4.182064e+00 4.219453e+00 3.585253e+00 3.313199e+00 2.934103e+00 2.430963e+00 2.284559e+00 1.755587e+00 1.693110e+00 1.387136e+00 1.198396e+00 1.277440e+00 8.293142e-01 1.274650e+00 6.011582e-01 1.256157e+00 5.075516e-01 1.160508e+00 5.323825e-01 9.636978e-01 6.680965e-01 6.675392e-01 9.038700e-01 3.163096e-01 1.217955e+00 3.173859e-01 1.585390e+00 7.718358e-01 1.982360e+00 1.280927e+00 2.381803e+00 1.781350e+00 2.753399e+00 2.236537e+00 3.069150e+00 2.616149e+00 3.305167e+00 2.895353e+00 3.435039e+00 3.052415e+00 3.417916e+00 3.065926e+00 
2.499972e+00 7.130023e+00 2.779177e+00 8.076262e+00 3.084525e+00 8.632258e+00 3.677882e+00 8.286605e+00 4.555195e+00 6.634664e+00 4.604652e+00 4.630686e+00 3.812665e+00 3.141555e+00 3.250915e+00 2.269786e+00 2.241467e+00 1.987306e+00 9.579008e-01 2.486861e+00 6.440131e-01 2.772518e+00 1.430847e+00 2.786861e+00 1.886653e+00 2.592658e+00 2.037956e+00 2.293685e+00 1.929404e+00 2.000450e+00 1.700953e+00 1.756993e+00 1.512552e+00 1.584702e+00 1.409963e+00 1.468846e+00 1.326306e+00 1.361346e+00 1.193576e+00 1.209931e+00 9.985073e-01 9.812408e-01 7.785791e-01 6.679954e-01 6.160422e-01 2.923199e-01 6.043450e-01 2.340023e-01 7.300826e-01 7.090057e-01 9.110624e-01 1.263025e+00 1.100942e+00 1.883136e+00 1.282725e+00 2.570328e+00 1.462534e+00 3.327602e+00 1.663507e+00 4.162511e+00 1.908012e+00 5.083983e+00 2.196719e+00 6.088172e+00 
4.200109e+00 3.484433e+00 3.528661e+00 3.288409e+00 2.180518e+00 2.952752e+00 1.118110e+00 1.881571e+00 3.748849e+00 9.737348e-01 5.474563e+00 3.807631e+00 5.471132e+00 4.853997e+00 5.036846e+00 5.486125e+00 5.511294e+00 6.355114e+00 5.492734e+00 6.690676e+00 4.928129e+00 5.930203e+00 4.319232e+00 4.752485e+00 3.738589e+00 3.416442e+00 3.091871e+00 2.127206e+00 2.432141e+00 1.212947e+00 1.827234e+00 9.106387e-01 1.307610e+00 1.043976e+00 9.174664e-01 1.233652e+00 6.980067e-01 1.344250e+00 6.567828e-01 1.332021e+00 7.611043e-01 1.178412e+00 9.730918e-01 8.929184e-01 1.270298e+00 5.419051e-01 1.636858e+00 4.404050e-01 2.058547e+00 8.512136e-01 2.523302e+00 1.414283e+00 3.002840e+00 1.994001e+00 3.456558e+00 2.530373e+00 3.849995e+00 2.981554e+00 4.161289e+00 3.319051e+00 4.367647e+00 3.522613e+00 4.417465e+00 3.576941e+00 
2.969113e+00 7.797938e+00 3.524696e+00 9.458001e+00 4.018933e+00 1.093251e+01 4.973300e+00 1.114062e+01 7.220269e+00 8.074293e+00 7.213819e+00 4.509300e+00 4.934223e+00 2.995897e+00 5.195807e+00 2.744127e+00 3.422812e+00 2.137291e+00 1.336913e+00 3.368939e+00 1.356385e+00 3.361121e+00 2.643737e+00 3.086822e+00 3.251440e+00 2.624052e+00 3.355877e+00 2.065756e+00 2.952433e+00 1.616998e+00 2.348345e+00 1.304970e+00 1.876513e+00 1.187536e+00 1.622475e+00 1.228662e+00 1.438692e+00 1.300277e+00 1.187783e+00 1.295726e+00 8.400154e-01 1.166847e+00 4.387386e-01 9.160728e-01 1.914288e-01 5.838776e-01 4.659927e-01 2.842033e-01 7.678125e-01 4.538739e-01 1.023919e+00 9.446568e-01 1.231589e+00 1.551770e+00 1.385894e+00 2.254787e+00 1.515903e+00 3.053140e+00 1.690415e+00 3.964459e+00 1.982662e+00 5.028849e+00 2.421062e+00 6.297704e+00 
5.685114e+00 4.366141e+00 5.153939e+00 4.579759e+00 3.569398e+00 5.362895e+00 4.082244e-01 5.503228e+00 6.256562e+00 1.875517e+00 8.808274e+00 6.464940e+00 7.040453e+00 7.042766e+00 5.515452e+00 6.756269e+00 6.700135e+00 8.133633e+00 6.849870e+00 9.177316e+00 5.398665e+00 7.374446e+00 4.589291e+00 5.513327e+00 4.082477e+00 3.575173e+00 3.359556e+00 1.604378e+00 2.618969e+00 3.476633e-01 1.964343e+00 7.151346e-01 1.359855e+00 1.121887e+00 8.855262e-01 1.405826e+00 6.347404e-01 1.607204e+00 6.620678e-01 1.674953e+00 8.993015e-01 1.563559e+00 1.238424e+00 1.276333e+00 1.629148e+00 8.935499e-01 2.058452e+00 6.847263e-01 2.533573e+00 9.964639e-01 3.082277e+00 1.609221e+00 3.670288e+00 2.292606e+00 4.229358e+00 2.937678e+00 4.714588e+00 3.482852e+00 5.120393e+00 3.899015e+00 5.455070e+00 4.177455e+00 5.687770e+00 4.318453e+00 
3.608644e+00 8.367817e+00 4.784032e+00 1.115008e+01 5.809998e+00 1.460700e+01 6.776110e+00 1.733192e+01 1.278329e+01 1.052329e+01 1.285927e+01 2.671468e+00 5.042943e+00 2.925520e+00 1.011872e+01 4.500999e+00 5.102380e+00 1.695265e+00 2.695587e+00 6.023852e+00 3.418262e+00 4.596157e+00 4.748794e+00 3.765094e+00 5.356640e+00 3.017003e+00 5.328521e+00 2.042620e+00 4.296076e+00 1.353691e+00 3.071902e+00 8.121629e-01 2.294759e+00 6.721295e-01 1.987804e+00 9.705105e-01 1.753968e+00 1.310549e+00 1.373986e+00 1.505596e+00 8.545292e-01 1.509209e+00 3.405638e-01 1.353897e+00 4.923559e-01 1.118725e+00 9.347508e-01 8.955819e-01 1.271298e+00 8.097271e-01 1.557552e+00 9.737627e-01 1.766555e+00 1.383359e+00 1.848489e+00 1.987428e+00 1.835461e+00 2.744285e+00 1.857364e+00 3.656865e+00 2.098062e+00 4.795803e+00 2.677334e+00 6.303381e+00 
7.722238e+00 5.553801e+00 7.905766e+00 6.303115e+00 7.153000e+00 9.455855e+00 4.349402e+00 1.520966e+01 1.295760e+01 7.172951e+00 1.609134e+01 1.449053e+01 8.938877e+00 1.222660e+01 8.018083e+00 8.363884e+00 9.039999e+00 1.007027e+01 1.047751e+01 1.466784e+01 6.063773e+00 9.265099e+00 5.022802e+00 6.564871e+00 4.910022e+00 3.949640e+00 3.801164e+00 7.209462e-01 2.898519e+00 1.238801e+00 2.207213e+00 1.783242e+00 1.412475e+00 1.807866e+00 7.615890e-01 1.895943e+00 3.537367e-01 2.130785e+00 4.793968e-01 2.288286e+00 9.818558e-01 2.220714e+00 1.535357e+00 1.905448e+00 2.054214e+00 1.428968e+00 2.526885e+00 1.065130e+00 3.004308e+00 1.239840e+00 3.659456e+00 1.902968e+00 4.409072e+00 2.721424e+00 5.099378e+00 3.501234e+00 5.666782e+00 4.149543e+00 6.149579e+00 4.643013e+00 6.639020e+00 5.009557e+00 7.192529e+00 5.293010e+00 
4.147805e+00 8.329610e+00 6.654110e+00 1.265979e+01 1.002772e+01 1.982879e+01 1.182789e+01 3.277127e+01 2.640927e+01 1.617495e+01 2.882570e+01 8.610274e+00 3.556499e+00 5.361405e+00 2.375818e+01 8.084617e+00 6.046507e+00 4.295946e+00 8.092642e+00 1.356620e+01 9.741118e+00 6.284125e+00 8.432193e+00 4.336434e+00 8.835847e+00 4.068718e+00 8.506244e+00 2.267840e+00 5.921692e+00 1.450151e+00 3.694002e+00 7.731840e-01 2.794596e+00 9.960918e-02 2.709494e+00 7.904685e-01 2.469025e+00 1.493366e+00 1.923474e+00 1.941934e+00 1.277058e+00 2.100363e+00 9.716407e-01 2.040294e+00 1.315613e+00 1.864874e+00 1.761686e+00 1.628142e+00 2.026997e+00 1.547926e+00 2.411125e+00 1.633640e+00 2.701442e+00 1.738933e+00 2.714552e+00 1.996248e+00 2.483183e+00 2.489560e+00 2.191195e+00 3.210817e+00 2.168221e+00 4.221749e+00 2.746196e+00 5.762892e+00 
1.022607e+01 7.255761e+00 1.207691e+01 8.641450e+00 1.399633e+01 1.483301e+01 1.441932e+01 4.388622e+01 2.970862e+01 2.679064e+01 2.753029e+01 4.323449e+01 1.724208e+01 1.807900e+01 1.864756e+01 1.008716e+01 1.549882e+01 8.588895e+00 2.054071e+01 2.909542e+01 8.295434e+00 1.119171e+01 6.044389e+00 8.198587e+00 7.298576e+00 4.962332e+00 4.134854e+00 2.028402e+00 3.389896e+00 3.894062e+00 2.782827e+00 3.800397e+00 1.591804e+00 2.983320e+00 9.749660e-01 2.708087e+00 5.518362e-01 3.033081e+00 4.123397e-01 3.340638e+00 1.205932e+00 3.326525e+00 2.064924e+00 2.940176e+00 2.736339e+00 2.241456e+00 3.150638e+00 1.530551e+00 3.394443e+00 1.564943e+00 4.245782e+00 2.381505e+00 5.296103e+00 3.385185e+00 6.144655e+00 4.308687e+00 6.725655e+00 5.030408e+00 7.175403e+00 5.537124e+00 7.748460e+00 5.941190e+00 8.720880e+00 6.459965e+00 
3.625899e+00 6.563558e+00 7.996782e+00 1.295483e+01 1.788787e+01 2.723824e+01 3.346644e+01 7.057300e+01 4.540747e+01 2.179398e+01 9.337517e+01 7.237317e+01 2.054209e+01 1.511595e+01 4.423018e+01 1.314427e+01 1.230471e+01 2.512176e+01 2.915371e+01 3.234796e+01 3.096083e+01 7.589668e+00 1.625285e+01 1.623312e+00 1.749392e+01 8.861595e+00 1.372140e+01 2.392791e+00 7.328063e+00 2.345697e+00 3.816853e+00 2.327100e+00 3.735204e+00 1.297244e+00 4.199492e+00 1.119377e+00 3.826615e+00 2.077946e+00 3.002079e+00 2.820282e+00 2.271363e+00 3.149140e+00 2.166581e+00 3.166810e+00 2.624197e+00 2.971975e+00 2.965566e+00 2.389318e+00 2.769063e+00 2.419551e+00 3.583194e+00 2.898194e+00 4.163165e+00 2.859318e+00 4.091593e+00 2.629692e+00 3.517940e+00 2.515276e+00 2.700676e+00 2.666466e+00 2.059812e+00 3.146791e+00 2.171741e+00 4.131022e+00 
1.270953e+01 1.008332e+01 1.815117e+01 1.463837e+01 2.243944e+01 2.615856e+01 3.732604e+01 9.305873e+01 1.880262e+01 8.251536e+01 3.781551e+01 1.632576e+02 9.064104e+01 2.706115e+01 3.414612e+01 4.627605e+01 2.999872e+01 6.180850e+00 4.473388e+01 5.165839e+01 1.851892e+01 1.519919e+01 1.045387e+01 1.129866e+01 1.764312e+01 5.863335e+00 4.536061e+00 8.414949e+00 5.095737e+00 8.550588e+00 3.882394e+00 6.852390e+00 2.096309e+00 4.350425e+00 2.325802e+00 3.825912e+00 1.933786e+00 4.541284e+00 1.418222e+00 5.130462e+00 2.045512e+00 5.204963e+00 3.260668e+00 4.723470e+00 4.132468e+00 3.596056e+00 4.233027e+00 1.817942e+00 3.281996e+00 1.852347e+00 4.873057e+00 3.356947e+00 6.593502e+00 4.570663e+00 7.581442e+00 5.564332e+00 7.980135e+00 6.246481e+00 8.115231e+00 6.578962e+00 8.463930e+00 6.760009e+00 9.705314e+00 7.499867e+00 
2.684064e-01 4.681178e-01 3.345552e+00 7.717950e+00 2.438501e+01 4.356782e+01 8.560991e+01 8.999328e+01 6.079532e+01 6.466328e+01 2.508228e+02 8.921189e+01 1.171055e+02 4.486380e+01 3.706381e+01 8.564516e+01 6.220383e+01 6.456903e+01 8.357727e+01 3.739443e+01 8.428788e+01 2.099123e+01 6.342500e+01 1.404500e+01 3.599875e+01 2.775649e+01 2.371687e+01 2.475993e+00 9.501903e+00 6.470267e+00 2.839147e+00 5.746987e+00 6.385813e+00 2.886430e+00 6.970757e+00 2.148280e+00 6.042795e+00 3.429334e+00 4.784641e+00 4.542886e+00 4.098331e+00 5.109610e+00 4.367177e+00 5.254336e+00 5.028873e+00 5.035123e+00 5.033319e+00 3.026324e+00 2.603755e+00 3.338980e+00 5.449996e+00 5.216640e+00 6.653833e+00 5.012730e+00 6.300222e+00 4.158051e+00 5.086435e+00 3.146923e+00 3.404075e+00 2.248083e+00 1.687282e+00 1.894651e+00 5.347404e-01 1.814644e+00 
1.266820e+01 1.244092e+01 2.485398e+01 2.790179e+01 3.260140e+01 2.950432e+01 4.145517e+01 1.233960e+02 7.643149e+01 1.484290e+02 2.213586e+02 3.756785e+02 1.160104e+02 6.990215e+01 1.483445e+02 5.084742e+01 5.451908e+01 4.282599e+01 8.569764e+01 8.091922e+01 5.158810e+01 7.017705e+01 1.931693e+01 4.371615e+01 1.682862e+01 2.440983e+01 1.542350e+01 2.391976e+01 1.364987e+01 1.956676e+01 2.590903e+00 1.065862e+01 4.342407e+00 5.101094e+00 5.341283e+00 5.412980e+00 4.402231e+00 7.118156e+00 3.461998e+00 8.172920e+00 4.097438e+00 8.489088e+00 5.921890e+00 8.095259e+00 7.348976e+00 6.686630e+00 6.700233e+00 1.884782e+00 1.803126e+00 2.694216e+00 6.309636e+00 6.074695e+00 9.214046e+00 7.061942e+00 9.950046e+00 7.742174e+00 9.717264e+00 8.121024e+00 9.057791e+00 7.985701e+00 8.501849e+00 7.325140e+00 8.938979e+00 7.205900e+00 
6.225911e+00 1.011114e+01 1.102687e+01 9.449291e+00 6.791745e+00 3.125269e+01 7.738037e+01 1.922676e+02 1.936451e+02 1.114497e+02 7.380320e+01 2.951371e+02 1.248599e+02 9.440111e+01 2.004029e+02 1.123714e+02 2.073839e+02 8.431172e+01 2.556641e+02 1.889667e+02 1.582370e+02 1.991279e+02 2.341537e+01 4.158440e+01 9.967331e+01 3.823594e+01 3.383452e+01 2.773958e+01 2.262802e+01 2.116903e+01 1.100693e+01 9.269101e+00 1.282535e+01 4.524437e+00 1.168066e+01 4.212371e+00 9.367921e+00 6.239344e+00 7.592117e+00 7.813499e+00 7.346641e+00 8.919720e+00 8.671878e+00 9.726147e+00 1.023326e+01 9.936827e+00 9.485479e+00 4.597947e+00 1.648316e+00 4.832989e+00 9.617691e+00 9.998148e+00 1.164781e+01 9.281185e+00 1.009748e+01 7.112563e+00 7.553647e+00 4.794024e+00 4.482333e+00 2.599028e+00 1.365683e+00 2.780346e+00 2.308508e+00 5.545914e+00 
5.930369e+00 6.528013e+00 1.831054e+01 2.603811e+01 2.555666e+01 2.459400e+01 6.395915e+01 1.172983e+02 4.187517e+01 2.028498e+02 1.764730e+02 1.869102e+02 2.472432e+02 2.015657e+02 1.368916e+02 1.629903e+02 1.685952e+02 1.102230e+02 1.474485e+02 2.921525e+02 1.274570e+02 2.551033e+02 1.659632e+02 1.098645e+02 6.549757e+01 8.188274e+01 6.883765e+01 5.364959e+01 2.508447e+01 4.664927e+01 9.657448e+00 1.642648e+01 1.392022e+01 4.822333e+00 1.168607e+01 8.903692e+00 8.515753e+00 1.169282e+01 7.158111e+00 1.324040e+01 8.285155e+00 1.451052e+01 1.167351e+01 1.532506e+01 1.498602e+01 1.481681e+01 1.307299e+01 8.231686e-01 8.283979e+00 3.349264e+00 1.116181e+01 1.358439e+01 1.553960e+01 1.279603e+01 1.454094e+01 1.182855e+01 1.264649e+01 1.130024e+01 1.071406e+01 1.053139e+01 8.791791e+00 8.774546e+00 6.122311e+00 4.623254e+00 
1.521477e+01 1.888555e+01 2.407502e+01 2.667006e+01 3.883001e+01 3.820672e+01 6.904311e+01 2.535086e+02 8.554850e+01 1.184430e+02 1.601342e+02 3.816455e+01 2.618968e+02 4.146832e+02 9.249058e+01 8.653495e+01 1.070054e+02 9.459314e+01 1.344974e+02 4.455546e+01 2.622928e+02 2.386192e+02 1.556092e+02 6.430498e+01 1.564770e+02 3.229790e+01 6.887798e+01 8.516209e+01 4.733724e+01 3.290055e+01 4.832424e+01 2.448330e+01 3.311602e+01 9.095879e+00 1.963764e+01 1.009697e+01 1.398567e+01 1.183391e+01 1.200167e+01 1.361193e+01 1.299935e+01 1.639555e+01 1.673085e+01 1.892637e+01 2.210766e+01 2.467290e+01 2.111696e+01 1.596164e+01 4.229348e+00 1.444096e+01 2.115241e+01 2.251710e+01 2.276480e+01 1.838109e+01 1.677197e+01 1.263316e+01 1.160911e+01 8.103647e+00 6.545465e+00 4.604575e+00 2.803275e+00 5.681141e+00 6.370303e+00 1.164852e+01 
2.531513e+00 3.892114e+00 1.344916e+01 1.062233e+01 2.761256e+01 3.495156e+01 7.524468e+01 1.716209e+02 3.684118e+00 3.613490e+01 3.239916e+01 3.317607e+02 1.217871e+02 3.477037e+02 6.678690e+01 3.817414e+02 1.672487e+02 9.143710e+01 2.484331e+02 2.703765e+02 3.073533e+02 2.874133e+02 4.752388e+02 1.504243e+02 4.888162e+01 5.918781e+01 9.713252e+01 5.690086e+01 9.300961e+01 2.254119e+01 4.403379e+01 4.270969e+00 3.226733e+01 1.537787e+01 1.946620e+01 1.780421e+01 1.450566e+01 1.901680e+01 1.331589e+01 2.058968e+01 1.577905e+01 2.501230e+01 2.097284e+01 2.852255e+01 3.138395e+01 4.057631e+01 3.818712e+01 2.813652e+01 2.234920e+01 2.432104e+01 3.626566e+01 3.709447e+01 3.335589e+01 2.349592e+01 2.233472e+01 1.897277e+01 1.781823e+01 1.631485e+01 1.431260e+01 1.508771e+01 1.215878e+01 1.429508e+01 9.510479e+00 1.323293e+01 
2.357584e+01 2.324410e+01 3.579367e+01 2.994783e+01 8.129652e+01 3.173520e+01 1.074980e+02 2.340210e+02 6.264819e+01 1.243774e+02 5.364232e+02 1.279361e+02 3.953954e+02 3.028423e+02 1.712680e+02 1.673045e+02 5.490956e+02 2.439558e+02 1.684917e+02 2.443530e+02 1.487334e+02 3.145956e+02 2.065940e+02 1.792896e+02 6.900574e+01 8.951870e+01 4.529139e+01 6.839934e+01 1.513525e+01 2.645069e+01 2.244790e+01 1.711549e+01 3.115515e+01 1.913749e+01 2.284609e+01 1.964184e+01 1.885312e+01 2.002782e+01 1.780672e+01 2.178076e+01 2.252030e+01 2.748967e+01 2.425239e+01 2.986938e+01 3.327216e+01 3.377058e+01 3.427538e+01 3.629451e+01 3.951844e+01 3.680723e+01 3.303024e+01 3.219256e+01 3.252860e+01 2.617477e+01 2.425165e+01 2.022971e+01 1.831800e+01 1.293475e+01 9.934385e+00 7.897206e+00 5.167946e+00 8.314203e+00 7.808826e+00 1.708074e+01 
1.461808e+01 1.573174e+01 2.414407e+01 3.918976e+01 6.865815e+01 3.376050e+01 5.517350e+01 1.061692e+02 9.782658e+01 2.040693e+02 4.366755e+02 3.885461e+02 4.391317e+02 1.952563e+02 1.825465e+02 1.923257e+02 2.659834e+02 9.334106e+02 3.741381e+02 1.576915e+02 2.282551e+02 3.581016e+02 2.869413e+02 2.450901e+02 1.133071e+02 8.542939e+01 1.929376e+02 2.693840e+00 7.293138e+01 2.886489e+01 5.797668e+01 1.258083e+01 3.844905e+01 2.266105e+01 2.615714e+01 2.638492e+01 2.156602e+01 2.635047e+01 2.050969e+01 2.877229e+01 2.775038e+01 2.910742e+01 1.889432e+01 2.194391e+01 1.967246e+01 2.632677e+01 3.528416e+01 3.111330e+01 3.027208e+01 3.033500e+01 3.459800e+01 2.755898e+01 1.628236e+01 1.778296e+01 1.877694e+01 2.156379e+01 2.568240e+01 2.288287e+01 1.911894e+01 2.014914e+01 1.747953e+01 2.113633e+01 1.758074e+01 3.000714e+01 
2.832242e+01 5.474545e+01 4.013104e+01 8.514860e+01 7.599798e+01 1.139732e+02 2.018361e+02 5.364110e+02 4.495799e+02 5.009370e+02 3.851677e+02 2.592307e+02 2.727330e+02 3.829718e+02 3.375102e+02 4.031753e+02 4.583998e+02 4.195126e+02 7.433488e+02 4.949352e+02 3.289126e+01 4.632909e+02 2.617851e+02 3.151422e+02 2.882500e+02 1.213577e+02 1.423275e+02 2.442148e+02 8.868808e+00 8.538232e+01 4.623610e+01 3.330869e+01 3.224240e+01 3.327247e+01 2.868344e+01 3.001374e+01 2.311338e+01 2.740922e+01 2.184423e+01 3.253239e+01 2.914096e+01 1.763025e+01 1.136247e+01 1.078162e+01 2.547074e+01 2.834949e+01 3.115333e+01 3.059034e+01 3.385667e+01 3.069843e+01 3.097650e+01 2.948122e+01 2.720245e+01 1.462403e+01 1.054898e+01 9.531036e+00 2.074075e+01 2.035710e+01 1.224297e+01 1.089035e+01 6.222144e+00 1.018233e+01 5.982046e+00 2.954671e+01 
4.789135e+01 3.623005e+01 2.753407e+01 7.902408e+01 5.095712e+01 2.798390e+02 5.212591e+02 2.318418e+02 1.212276e+02 1.285299e+02 3.266147e+02 1.811293e+02 2.685940e+02 2.972510e+02 2.104232e+02 2.390107e+02 2.104118e+02 2.855345e+02 2.059247e+02 6.731473e+02 3.740708e+02 4.267972e+02 2.335070e+02 3.774140e+02 4.568842e+02 1.614775e+02 1.754434e+02 1.678045e+02 5.557099e+01 7.576762e+01 6.984053e+01 2.046018e+01 2.125459e+01 3.747214e+01 3.376173e+01 3.463063e+01 2.653447e+01 2.941397e+01 2.603321e+01 3.734075e+01 2.290314e+01 7.838690e+00 6.160094e+00 1.358253e+01 2.550516e+01 2.319697e+01 2.822636e+01 3.234418e+01 3.661068e+01 3.251615e+01 2.766799e+01 2.197207e+01 2.326966e+01 1.657206e+01 4.131383e+00 2.136490e+00 1.737387e+01 3.007782e+01 2.443228e+01 2.329253e+01 2.180395e+01 2.567491e+01 2.827878e+01 5.193219e+01 
4.814149e+01 3.201292e+01 2.825808e+01 8.494479e+01 5.179858e+01 3.455073e+02 5.246352e+02 6.251028e+02 3.837748e+02 4.847175e+02 2.239014e+02 1.622512e+02 1.435269e+02 1.744171e+02 4.647876e+02 1.770678e+02 4.790823e+01 3.173138e+02 2.254003e+02 3.672744e+02 4.320831e+02 3.405350e+02 5.129656e+02 3.679609e+02 9.635452e+01 1.383905e+02 2.611320e+02 9.533777e+01 3.600029e+01 6.554501e+01 2.963604e+01 3.531127e+01 2.028470e+01 4.656278e+01 3.320551e+01 3.711012e+01 2.186850e+01 2.907863e+01 2.381266e+01 3.631094e+01 1.386696e+01 6.181957e+00 1.968570e+01 2.972201e+01 3.217224e+01 2.122169e+01 2.880473e+01 2.988241e+01 3.659191e+01 3.149407e+01 2.895561e+01 2.287250e+01 2.754799e+01 3.205230e+01 1.982321e+01 9.454522e+00 5.625502e+00 2.073310e+01 1.674259e+01 1.203303e+01 5.196968e+00 8.132582e+00 2.790323e+00 3.488828e+01 
7.691879e+01 9.717331e+01 6.735463e+01 1.020758e+02 2.580270e+02 3.084885e+02 3.241359e+02 5.094903e+02 1.384519e+02 3.757141e+02 6.347216e+01 1.140701e+02 2.966399e+02 2.551242e+02 2.497624e+02 2.084382e+02 4.164068e+02 2.997782e+02 3.528822e+02 4.765953e+02 4.884098e+02 2.052625e+02 4.600017e+02 1.605531e+02 2.489184e+02 3.983326e+02 2.846604e+02 1.147990e+02 7.372171e+01 9.239835e+01 4.083537e+01 6.187308e+01 4.176937e+01 6.865532e+01 4.986497e+01 4.056167e+01 2.357392e+01 2.375170e+01 2.718753e+01 3.040854e+01 1.344965e+01 1.593433e+01 3.506366e+01 3.532315e+01 2.513508e+01 1.903345e+01 2.375653e+01 2.343240e+01 2.882632e+01 2.549867e+01 2.412132e+01 2.292750e+01 2.333345e+01 3.599090e+01 3.428842e+01 2.249432e+01 1.488764e+01 2.676821e+01 2.920707e+01 2.541887e+01 2.224594e+01 2.540454e+01 4.461387e+01 7.350977e+01 
1.378670e+02 1.806191e+02 1.100341e+02 1.856403e+02 2.005817e+02 2.154253e+02 1.497403e+02 1.106455e+02 1.850331e+02 2.779068e+02 4.973948e+02 4.221778e+02 5.926630e+02 3.484094e+02 4.698316e+02 3.316808e+02 3.465402e+02 4.188125e+02 5.969457e+02 1.282057e+02 5.938465e+02 7.482109e+02 4.333645e+02 3.527058e+02 3.262528e+02 1.324895e+02 6.944183e+01 2.225908e+02 7.550821e+01 1.120268e+02 1.999469e+02 1.448898e+02 1.513353e+02 1.035493e+02 6.105122e+01 4.526623e+01 1.880661e+01 2.386407e+01 1.748733e+01 2.951839e+01 1.988948e+01 2.807273e+01 4.187415e+01 3.130312e+01 2.359345e+01 2.147978e+01 2.227447e+01 1.888733e+01 2.312240e+01 1.986634e+01 2.093163e+01 2.221135e+01 2.082929e+01 3.029320e+01 3.890178e+01 3.246157e+01 1.760496e+01 1.765472e+01 1.503199e+01 9.098702e+00 6.917867e+00 1.395338e+01 2.917413e+01 6.148502e+01 
5.819118e+01 5.622065e+01 7.824760e+01 1.887657e+02 2.158097e+02 3.856090e+02 4.391753e+01 4.396251e+02 1.866702e+02 3.631625e+02 2.626792e+02 5.182643e+02 3.065949e+02 2.421532e+02 1.533451e+02 6.990315e+01 2.731179e+02 1.208310e+02 5.564902e+02 3.394712e+02 6.730523e+02 4.412567e+02 3.342409e+02 2.974320e+02 6.269133e+02 2.155549e+02 1.812903e+02 7.737759e+01 9.801119e+01 7.311308e+01 5.007712e+00 3.794390e+01 2.686602e+01 3.886973e+01 1.793982e+01 8.641695e+00 8.627099e+00 4.806143e+00 1.144166e+01 2.126368e+01 2.354549e+01 3.151219e+01 3.593164e+01 2.285564e+01 1.663432e+01 1.540490e+01 1.341330e+01 1.090963e+01 1.309065e+01 1.371858e+01 1.512254e+01 2.006958e+01 1.944537e+01 2.588301e+01 3.469790e+01 3.680030e+01 2.673390e+01 2.773046e+01 2.313986e+01 2.163219e+01 9.230426e+00 1.455383e+01 6.734546e+00 3.891659e+01 
1.535602e+01 7.747173e+01 9.371599e+01 1.893021e+02 1.287618e+02 1.144160e+02 2.659281e+02 2.272065e+02 2.778211e+02 1.311574e+02 4.873406e+02 7.085930e+02 4.674378e+02 2.768177e+02 5.045819e+02 3.103257e+02 4.612954e+02 1.384957e+02 3.380537e+02 2.928500e+02 1.961524e+02 2.041677e+02 1.172408e+02 5.141988e+02 3.850365e+02 2.065952e+02 2.881701e+02 1.472594e+02 7.099660e+01 1.434933e+02 1.351025e+02 4.987729e+01 7.202493e+01 2.369360e+01 3.206320e+01 2.521632e+01 1.347285e+01 1.421861e+01 1.948675e+01 2.711197e+01 3.012867e+01 3.000929e+01 3.111409e+01 1.600109e+01 1.420859e+01 1.227257e+01 1.140041e+01 8.084568e+00 9.545004e+00 8.211387e+00 9.777803e+00 1.224227e+01 1.194307e+01 1.539437e+01 2.556487e+01 3.228937e+01 2.458609e+01 2.298451e+01 1.600194e+01 9.605488e+00 2.999652e+00 6.586571e+00 4.371611e+00 1.332744e+01 
3.707003e+01 8.902687e+01 9.225282e+01 4.510822e+01 1.459585e+02 3.240202e+02 1.906634e+02 2.023060e+02 4.483215e+02 5.232528e+02 5.325158e+02 4.442601e+02 7.554111e+02 3.028667e+02 4.642366e+02 1.401706e+02 1.694221e+02 3.087510e+02 4.737706e+02 5.183543e+02 4.112804e+02 5.975590e+02 8.052170e+02 4.472689e+02 2.019413e+02 2.606041e+02 2.825660e+02 8.314127e+01 2.110756e+02 5.224125e+01 1.079409e+02 1.268113e+02 6.206497e+01 5.316263e+01 3.686051e+01 9.595754e+00 1.343674e+01 1.082076e+01 1.471825e+01 2.525328e+01 2.484604e+01 2.474502e+01 1.741969e+01 6.617606e+00 4.555099e+00 4.072047e+00 3.219872e+00 2.064857e+00 3.869246e+00 6.130935e+00 7.294930e+00 9.605727e+00 9.084780e+00 1.055374e+01 1.664396e+01 2.850327e+01 2.849181e+01 3.083360e+01 2.467321e+01 2.331790e+01 1.924452e+01 2.102756e+01 2.193600e+01 2.951856e+01 
3.219701e+01 1.750666e+01 8.515189e+01 4.493011e+01 9.824400e+01 8.641024e+01 3.494347e+02 5.129106e+02 6.551570e+02 4.567712e+02 1.968626e+02 4.342841e+02 5.399960e+02 3.888750e+02 4.020074e+02 2.279794e+02 1.608894e+02 6.803556e+02 2.138596e+02 3.209242e+02 8.301400e+02 4.719268e+02 5.575924e+02 5.532993e+02 1.574227e+02 2.079258e+02 3.026631e+02 8.052712e+00 1.754770e+02 1.539432e+02 5.500560e+01 6.156173e+01 5.852377e+01 3.829567e+01 2.992429e+01 2.768236e+01 2.227755e+01 2.405484e+01 2.535563e+01 3.152966e+01 3.182998e+01 2.630446e+01 1.218330e+01 5.028119e+00 5.803586e+00 4.493301e+00 4.889471e+00 2.938640e+00 3.268192e+00 2.674769e+00 3.837658e+00 4.389218e+00 3.977822e+00 4.824028e+00 7.234417e+00 2.109030e+01 2.468387e+01 2.826723e+01 1.957850e+01 1.856718e+01 1.110071e+01 2.149271e+01 4.427580e+00 1.901690e+01 
2.855193e+01 1.813453e+01 5.516048e+01 7.237630e+01 6.454786e+01 1.054077e+02 2.096788e+02 4.624127e+02 2.585833e+02 5.152935e+01 3.826646e+02 2.174075e+02 2.230144e+02 6.114934e+02 1.680793e+02 2.775391e+02 3.713966e+02 1.912197e+02 2.296370e+02 3.171803e+02 4.845802e+02 7.340207e+02 5.519875e+02 4.508159e+02 2.599356e+02 1.819999e+02 1.689385e+02 2.589923e+02 8.128228e+01 1.143849e+02 1.111135e+02 8.136835e+01 8.399933e+00 3.253745e+01 1.289031e+01 2.203073e+01 9.130412e+00 2.050528e+01 1.950421e+01 2.835277e+01 2.381533e+01 2.474540e+01 1.028031e+01 4.500148e+00 2.971510e+00 3.582961e+00 1.291182e+00 1.023624e+00 3.106124e+00 5.659972e+00 7.255399e+00 9.084378e+00 8.605758e+00 9.179136e+00 1.312255e+01 2.521734e+01 2.852552e+01 3.076598e+01 2.747470e+01 2.327627e+01 2.076603e+01 2.278347e+01 1.910794e+01 3.687387e+01 
3.613374e+01 4.844611e+01 7.105323e+01 2.933727e+01 8.642643e+01 2.655325e+01 1.237029e+02 1.086416e+02 3.210910e+02 3.101120e+02 2.745060e+02 4.283233e+02 5.819890e+02 6.021009e+02 3.404923e+02 5.148362e+02 1.106903e+02 1.823310e+02 2.787435e+02 2.065015e+02 2.053385e+02 4.117415e+02 2.817053e+02 2.759002e+02 2.417957e+02 6.503177e+01 3.601773e+01 1.623783e+02 1.344942e+02 9.159278e+01 2.178549e+01 4.913003e+01 1.210926e+01 1.532426e+01 2.203531e+01 2.589434e+01 2.051217e+01 2.601543e+01 2.953548e+01 3.085549e+01 2.853243e+01 3.313657e+01 2.294736e+01 1.516499e+01 1.285786e+01 1.224101e+01 8.482350e+00 6.441261e+00 3.021234e+00 4.560660e+00 6.689377e+00 1.071988e+01 1.057234e+01 1.236138e+01 1.688092e+01 2.489053e+01 2.294263e+01 2.409022e+01 2.234382e+01 1.978540e+01 1.498413e+01 1.844358e+01 1.488759e+01 5.470537e+01 