# vtk DataFile Version 2.0
Comment goes here
ASCII

DATASET STRUCTURED_POINTS
DIMENSIONS    64   64   1

ORIGIN    0.000   0.000   0.000
SPACING   0.031250.03125   1.000

POINT_DATA   4096
SCALARS uX double
LOOKUP_TABLE default

-4.689964e-02 -1.634435e-01 1.703079e-02 -8.720540e-02 7.379078e-02 -1.795538e-02 1.150147e-01 3.481562e-02 1.346180e-01 6.468169e-02 1.298459e-01 6.953039e-02 1.018955e-01 5.204384e-02 5.586536e-02 1.920021e-02 -5.026158e-05 -1.910329e-02 -5.596303e-02 -5.195168e-02 -1.019850e-01 -6.944786e-02 -1.299229e-01 -6.461347e-02 -1.346796e-01 -3.476564e-02 -1.150592e-01 1.798450e-02 -7.381765e-02 8.721281e-02 -1.704031e-02 1.634303e-01 4.690684e-02 2.357064e-01 1.086072e-01 2.933064e-01 1.588615e-01 3.271376e-01 1.899219e-01 3.309256e-01 1.966109e-01 3.020704e-01 1.771769e-01 2.420836e-01 1.336913e-01 1.564818e-01 7.183119e-02 5.408810e-02 4.191295e-05 -5.414346e-02 -7.174868e-02 -1.565380e-01 -1.336127e-01 -2.421411e-01 -1.771050e-01 -3.021288e-01 -1.965482e-01 -3.309830e-01 -1.898707e-01 -3.271907e-01 -1.588237e-01 -2.933508e-01 -1.085842e-01 -2.357373e-01 
-1.761620e-02 -1.288823e-01 4.882701e-02 -5.129179e-02 1.062841e-01 1.720690e-02 1.461273e-01 6.703010e-02 1.622734e-01 9.191937e-02 1.522125e-01 9.013506e-02 1.175616e-01 6.484703e-02 6.391629e-02 2.353852e-02 -4.696344e-05 -2.343795e-02 -6.400739e-02 -6.475135e-02 -1.176446e-01 -9.004927e-02 -1.522833e-01 -9.184830e-02 -1.623293e-01 -6.697788e-02 -1.461671e-01 -1.717634e-02 -1.063078e-01 5.129964e-02 -4.883522e-02 1.288685e-01 1.762272e-02 2.042497e-01 8.316675e-02 2.661703e-01 1.379932e-01 3.049277e-01 1.737567e-01 3.136944e-01 1.848075e-01 2.894766e-01 1.691276e-01 2.336039e-01 1.287480e-01 1.516164e-01 6.948967e-02 5.250316e-02 3.918616e-05 -5.255977e-02 -6.941264e-02 -1.516741e-01 -1.286750e-01 -2.336633e-01 -1.690613e-01 -2.895373e-01 -1.847503e-01 -3.137545e-01 -1.737104e-01 -3.049835e-01 -1.379594e-01 -2.662170e-01 -8.314621e-02 -2.042822e-01 
-4.881150e-02 -1.674977e-01 1.972470e-02 -8.608856e-02 8.062087e-02 -1.222880e-02 1.249063e-01 4.382183e-02 1.459734e-01 7.502375e-02 1.407506e-01 7.900235e-02 1.104493e-01 5.864461e-02 6.055603e-02 2.156097e-02 -5.144480e-05 -2.146097e-02 -6.065591e-02 -5.854941e-02 -1.105407e-01 -7.891704e-02 -1.408290e-01 -7.495333e-02 -1.460359e-01 -4.377054e-02 -1.249512e-01 1.225816e-02 -8.064804e-02 8.609508e-02 -1.973438e-02 1.674826e-01 4.881865e-02 2.447351e-01 1.149783e-01 3.064625e-01 1.689500e-01 3.430405e-01 2.024480e-01 3.478041e-01 2.098836e-01 3.179513e-01 1.893168e-01 2.550461e-01 1.429300e-01 1.649408e-01 7.681358e-02 5.702291e-02 4.277029e-05 -5.707774e-02 -7.672935e-02 -1.649967e-01 -1.428498e-01 -2.551039e-01 -1.892434e-01 -3.180107e-01 -2.098196e-01 -3.478634e-01 -2.023959e-01 -3.430962e-01 -1.689117e-01 -3.065097e-01 -1.149551e-01 -2.447685e-01 
-1.677017e-02 -1.300689e-01 5.982894e-02 -4.116218e-02 1.260482e-01 3.688418e-02 1.719525e-01 9.286616e-02 1.904185e-01 1.193432e-01 1.783964e-01 1.141982e-01 1.376839e-01 8.121088e-02 7.481672e-02 2.932179e-02 -5.005713e-05 -2.921669e-02 -7.491359e-02 -8.111057e-02 -1.377715e-01 -1.141079e-01 -1.784703e-01 -1.192684e-01 -1.904760e-01 -9.281142e-02 -1.719928e-01 -3.685280e-02 -1.260716e-01 4.116890e-02 -5.983656e-02 1.300520e-01 1.677737e-02 2.168052e-01 9.245388e-02 2.885760e-01 1.559740e-01 3.343326e-01 1.977095e-01 3.462627e-01 2.110459e-01 3.208611e-01 1.935343e-01 2.595599e-01 1.474699e-01 1.686613e-01 7.961508e-02 5.842843e-02 4.088939e-05 -5.848358e-02 -7.953466e-02 -1.687180e-01 -1.473936e-01 -2.596194e-01 -1.934650e-01 -3.209235e-01 -2.109862e-01 -3.463262e-01 -1.976615e-01 -3.343930e-01 -1.559390e-01 -2.886277e-01 -9.243252e-02 -2.168421e-01 
-5.311078e-02 -1.756870e-01 3.007461e-02 -7.741723e-02 1.040845e-01 1.131133e-02 1.580377e-01 7.767817e-02 1.836311e-01 1.125861e-01 1.767331e-01 1.128038e-01 1.385862e-01 8.196434e-02 7.595318e-02 2.985719e-02 -5.564138e-05 -2.974934e-02 -7.606081e-02 -8.186107e-02 -1.386838e-01 -1.127108e-01 -1.768156e-01 -1.125093e-01 -1.836958e-01 -7.762281e-02 -1.580835e-01 -1.128085e-02 -1.041116e-01 7.742160e-02 -3.008382e-02 1.756667e-01 5.311867e-02 2.692904e-01 1.335424e-01 3.447761e-01 1.995229e-01 3.907712e-01 2.410456e-01 3.993139e-01 2.511601e-01 3.668960e-01 2.272683e-01 2.952140e-01 1.718853e-01 1.912133e-01 9.244106e-02 6.614017e-02 4.491869e-05 -6.619340e-02 -9.235240e-02 -1.912682e-01 -1.718006e-01 -2.952723e-01 -2.271907e-01 -3.669584e-01 -2.510925e-01 -3.993786e-01 -2.409908e-01 -3.908341e-01 -1.994828e-01 -3.448312e-01 -1.335181e-01 -2.693311e-01 
-1.686198e-02 -1.333972e-01 8.121283e-02 -2.018470e-02 1.661344e-01 7.861364e-02 2.252280e-01 1.482011e-01 2.490652e-01 1.783912e-01 2.332795e-01 1.661079e-01 1.799606e-01 1.164774e-01 9.771251e-02 4.175359e-02 -5.637211e-05 -4.163911e-02 -9.782102e-02 -1.163673e-01 -1.800574e-01 -1.660079e-01 -2.333591e-01 -1.783080e-01 -2.491250e-01 -1.481406e-01 -2.252681e-01 -7.858015e-02 -1.661564e-01 2.018921e-02 -8.121881e-02 1.333739e-01 1.687057e-02 2.443471e-01 1.138998e-01 3.369995e-01 1.957423e-01 3.975718e-01 2.500645e-01 4.161783e-01 2.681344e-01 3.881661e-01 2.464917e-01 3.151314e-01 1.879743e-01 2.050489e-01 1.014517e-01 7.103431e-02 4.395692e-05 -7.108640e-02 -1.013650e-01 -2.051033e-01 -1.878918e-01 -3.151909e-01 -2.464167e-01 -3.882323e-01 -2.680700e-01 -4.162492e-01 -2.500133e-01 -3.976423e-01 -1.957054e-01 -3.370621e-01 -1.138772e-01 -2.443937e-01 
-6.018018e-02 -1.884950e-01 4.962739e-02 -5.919421e-02 1.476464e-01 5.722378e-02 2.195722e-01 1.430012e-01 2.538085e-01 1.848395e-01 2.439674e-01 1.776546e-01 1.911944e-01 1.265416e-01 1.047135e-01 4.564886e-02 -6.350068e-05 -4.552861e-02 -1.048353e-01 -1.264247e-01 -1.913029e-01 -1.775481e-01 -2.440570e-01 -1.847514e-01 -2.538764e-01 -1.429384e-01 -2.196185e-01 -5.719101e-02 -1.476727e-01 5.919486e-02 -4.963533e-02 1.884654e-01 6.018941e-02 3.119849e-01 1.665595e-01 4.125932e-01 2.545745e-01 4.759789e-01 3.110724e-01 4.918143e-01 3.264517e-01 4.551298e-01 2.967006e-01 3.677120e-01 2.248799e-01 2.385597e-01 1.210053e-01 8.251758e-02 4.822697e-05 -8.256761e-02 -1.209094e-01 -2.386117e-01 -2.247875e-01 -3.677701e-01 -2.966155e-01 -4.551968e-01 -3.263778e-01 -4.918887e-01 -3.110130e-01 -4.760551e-01 -2.545315e-01 -4.126629e-01 -1.665335e-01 -3.120389e-01 
-1.801689e-02 -1.389563e-01 1.157516e-01 1.518314e-02 2.320605e-01 1.495304e-01 3.137849e-01 2.429257e-01 3.473685e-01 2.799264e-01 3.257214e-01 2.553824e-01 2.511659e-01 1.768371e-01 1.361131e-01 6.284769e-02 -6.687025e-05 -6.271945e-02 -1.362406e-01 -1.767113e-01 -2.512769e-01 -2.552663e-01 -3.258089e-01 -2.798293e-01 -3.474305e-01 -2.428553e-01 -3.138232e-01 -1.494928e-01 -2.320790e-01 -1.518196e-02 -1.157543e-01 1.389220e-01 1.802746e-02 2.902155e-01 1.505375e-01 4.175069e-01 2.630366e-01 5.027900e-01 3.386809e-01 5.327450e-01 3.649477e-01 5.005427e-01 3.363296e-01 4.077914e-01 2.564697e-01 2.653799e-01 1.381507e-01 9.174276e-02 4.831551e-05 -9.178933e-02 -1.380549e-01 -2.654294e-01 -2.563776e-01 -4.078497e-01 -3.362454e-01 -5.006145e-01 -3.648761e-01 -5.328287e-01 -3.386254e-01 -5.028782e-01 -2.629978e-01 -4.175886e-01 -1.505137e-01 -2.902788e-01 
-7.069141e-02 -2.070455e-01 8.101903e-02 -2.806703e-02 2.173851e-01 1.338021e-01 3.188933e-01 2.522920e-01 3.681393e-01 3.061372e-01 3.541546e-01 2.864325e-01 2.774857e-01 2.008884e-01 1.517534e-01 7.172532e-02 -7.657043e-05 -7.158934e-02 -1.518974e-01 -2.007512e-01 -2.776105e-01 -2.863046e-01 -3.542534e-01 -3.060313e-01 -3.682102e-01 -2.522171e-01 -3.189387e-01 -1.337651e-01 -2.174088e-01 2.806202e-02 -8.102458e-02 2.070005e-01 7.070225e-02 3.775913e-01 2.179528e-01 5.176578e-01 3.411881e-01 6.087900e-01 4.222718e-01 6.369073e-01 4.469106e-01 5.941630e-01 4.081967e-01 4.819765e-01 3.098910e-01 3.128031e-01 1.666327e-01 1.079428e-01 5.211606e-05 -1.079876e-01 -1.665267e-01 -3.128484e-01 -3.097870e-01 -4.820320e-01 -4.081000e-01 -5.942364e-01 -4.468268e-01 -6.369969e-01 -4.222059e-01 -6.088876e-01 -3.411419e-01 -5.177515e-01 -2.179251e-01 -3.776673e-01 
-2.045141e-02 -1.473569e-01 1.677514e-01 7.029754e-02 3.325943e-01 2.613504e-01 4.505391e-01 3.940353e-01 5.009913e-01 4.430646e-01 4.711538e-01 3.987292e-01 3.628687e-01 2.726319e-01 1.955749e-01 9.548094e-02 -8.346959e-05 -9.533634e-02 -1.957316e-01 -2.724834e-01 -3.629999e-01 -3.985880e-01 -4.712507e-01 -4.429463e-01 -5.010532e-01 -3.939492e-01 -4.505717e-01 -2.613050e-01 -3.326052e-01 -7.030051e-02 -1.677482e-01 1.473054e-01 2.046423e-02 3.600939e-01 2.071954e-01 5.400274e-01 3.671971e-01 6.633603e-01 4.766982e-01 7.115407e-01 5.166913e-01 6.735947e-01 4.774533e-01 5.502239e-01 3.634008e-01 3.569439e-01 1.945574e-01 1.223098e-01 5.350844e-05 -1.223477e-01 -1.944492e-01 -3.569826e-01 -3.632942e-01 -5.502766e-01 -4.773545e-01 -6.736740e-01 -5.166088e-01 -7.116445e-01 -4.766379e-01 -6.634767e-01 -3.671581e-01 -5.401401e-01 -2.071720e-01 -3.601843e-01 
-8.566057e-02 -2.339222e-01 1.278476e-01 2.021183e-02 3.221508e-01 2.538165e-01 4.707013e-01 4.263171e-01 5.459141e-01 5.010896e-01 5.271233e-01 4.610965e-01 4.128075e-01 3.188726e-01 2.249154e-01 1.120064e-01 -9.873431e-05 -1.118559e-01 -2.250915e-01 -3.187053e-01 -4.129543e-01 -4.609359e-01 -5.272323e-01 -5.009579e-01 -5.459850e-01 -4.262231e-01 -4.707418e-01 -2.537710e-01 -3.221686e-01 -2.022477e-02 -1.278490e-01 2.338525e-01 8.567248e-02 4.737213e-01 2.934039e-01 6.717068e-01 4.700486e-01 8.047320e-01 5.900517e-01 8.530431e-01 6.308544e-01 8.028315e-01 5.793290e-01 6.533322e-01 4.398016e-01 4.227753e-01 2.356088e-01 1.444941e-01 5.426230e-05 -1.445330e-01 -2.354886e-01 -4.228045e-01 -4.396803e-01 -6.533785e-01 -5.792140e-01 -8.029135e-01 -6.307554e-01 -8.531562e-01 -5.899776e-01 -8.048628e-01 -4.700005e-01 -6.718384e-01 -2.933767e-01 -4.738326e-01 
-2.438441e-02 -1.606208e-01 2.431150e-01 1.519340e-01 4.800753e-01 4.314345e-01 6.549104e-01 6.287782e-01 7.351282e-01 6.997621e-01 6.953113e-01 6.241304e-01 5.336080e-01 4.194195e-01 2.830822e-01 1.415402e-01 -1.101186e-04 -1.413827e-01 -2.832828e-01 -4.192379e-01 -5.337664e-01 -6.239501e-01 -6.954160e-01 -6.996145e-01 -7.351840e-01 -6.286679e-01 -6.549298e-01 -4.313734e-01 -4.800707e-01 -1.519406e-01 -2.431011e-01 1.605424e-01 2.439901e-02 4.628407e-01 2.906039e-01 7.191628e-01 5.218833e-01 8.991276e-01 6.842773e-01 9.766110e-01 7.477981e-01 9.324051e-01 6.935942e-01 7.629315e-01 5.251130e-01 4.898179e-01 2.762932e-01 1.626518e-01 5.770632e-05 -1.626802e-01 -2.761700e-01 -4.898332e-01 -5.249840e-01 -7.629675e-01 -6.934705e-01 -9.324948e-01 -7.476987e-01 -9.767466e-01 -6.842136e-01 -8.992882e-01 -5.218495e-01 -7.193244e-01 -2.905857e-01 -4.629746e-01 
-1.063965e-01 -2.749554e-01 1.940470e-01 8.910651e-02 4.730036e-01 4.350493e-01 6.963548e-01 6.983127e-01 8.182929e-01 8.112119e-01 7.960297e-01 7.382608e-01 6.216875e-01 5.016778e-01 3.356370e-01 1.698242e-01 -1.420640e-04 -1.696749e-01 -3.358518e-01 -5.014584e-01 -6.218621e-01 -7.380491e-01 -7.961460e-01 -8.110470e-01 -8.183556e-01 -6.981887e-01 -6.963832e-01 -4.349852e-01 -4.730095e-01 -8.912951e-02 -1.940416e-01 2.748457e-01 1.064074e-01 6.117311e-01 4.000257e-01 8.908203e-01 6.557384e-01 1.085634e+00 8.373520e-01 1.168141e+00 9.075534e-01 1.111371e+00 8.387661e-01 9.061142e-01 6.343290e-01 5.806718e-01 3.364166e-01 1.923203e-01 4.494130e-05 -1.923619e-01 -3.362702e-01 -5.806596e-01 -6.341805e-01 -9.061361e-01 -8.386204e-01 -1.111468e+00 -9.074298e-01 -1.168290e+00 -8.372697e-01 -1.085814e+00 -6.556940e-01 -8.910107e-01 -4.000047e-01 -6.118998e-01 
-2.964804e-02 -1.841174e-01 3.490384e-01 2.665220e-01 6.897998e-01 6.834702e-01 9.541725e-01 9.897676e-01 1.089795e+00 1.103568e+00 1.042253e+00 9.798411e-01 7.935188e-01 6.390448e-01 4.012521e-01 1.908330e-01 -1.557117e-04 -1.906862e-01 -4.015214e-01 -6.388085e-01 -7.937082e-01 -9.795958e-01 -1.042355e+00 -1.103389e+00 -1.089833e+00 -9.896205e-01 -9.541669e-01 -6.833736e-01 -6.897647e-01 -2.665279e-01 -3.490042e-01 1.839961e-01 2.966245e-02 6.115977e-01 4.089949e-01 9.747251e-01 7.455277e-01 1.237480e+00 9.908523e-01 1.363628e+00 1.096919e+00 1.317271e+00 1.024759e+00 1.080641e+00 7.674629e-01 6.764094e-01 3.834241e-01 1.992831e-01 5.466104e-05 -1.993146e-01 -3.832864e-01 -6.763709e-01 -7.672931e-01 -1.080632e+00 -1.024586e+00 -1.317382e+00 -1.096792e+00 -1.363815e+00 -9.907926e-01 -1.237708e+00 -7.455135e-01 -9.749633e-01 -4.089935e-01 -6.118025e-01 
-1.339469e-01 -3.429413e-01 2.820290e-01 1.763265e-01 6.800988e-01 6.991780e-01 1.024515e+00 1.121224e+00 1.236482e+00 1.308518e+00 1.218715e+00 1.180265e+00 9.422318e-01 7.803708e-01 5.000022e-01 2.409006e-01 -2.555500e-04 -2.408147e-01 -5.002149e-01 -7.800248e-01 -9.424435e-01 -1.179977e+00 -1.218824e+00 -1.308327e+00 -1.236519e+00 -1.121048e+00 -1.024522e+00 -6.990681e-01 -6.800822e-01 -1.763611e-01 -2.820108e-01 3.427630e-01 1.339520e-01 8.075361e-01 5.447211e-01 1.194451e+00 9.158714e-01 1.479348e+00 1.196759e+00 1.623499e+00 1.324470e+00 1.570108e+00 1.235310e+00 1.280469e+00 9.222238e-01 8.020908e-01 4.798223e-01 2.420722e-01 -2.142813e-05 -2.421620e-01 -4.795837e-01 -8.019516e-01 -9.220350e-01 -1.280438e+00 -1.235106e+00 -1.570243e+00 -1.324303e+00 -1.623702e+00 -1.196675e+00 -1.479599e+00 -9.158463e-01 -1.194733e+00 -5.447200e-01 -8.078002e-01 
-3.431462e-02 -2.305237e-01 4.929707e-01 4.148071e-01 9.762169e-01 1.045898e+00 1.382912e+00 1.542874e+00 1.628546e+00 1.745387e+00 1.592472e+00 1.557218e+00 1.200216e+00 9.639629e-01 5.062180e-01 1.511449e-01 -2.403196e-04 -1.511057e-01 -5.066481e-01 -9.636175e-01 -1.200411e+00 -1.556857e+00 -1.592534e+00 -1.745217e+00 -1.628552e+00 -1.542665e+00 -1.382870e+00 -1.045712e+00 -9.761190e-01 -4.147992e-01 -4.928955e-01 2.303279e-01 3.432343e-02 8.249220e-01 5.703536e-01 1.330961e+00 1.060632e+00 1.712823e+00 1.437111e+00 1.923590e+00 1.624701e+00 1.893561e+00 1.542807e+00 1.570795e+00 1.139794e+00 9.336859e-01 4.672084e-01 1.344096e-01 2.716946e-05 -1.345226e-01 -4.671166e-01 -9.335192e-01 -1.139523e+00 -1.570674e+00 -1.542523e+00 -1.893741e+00 -1.624533e+00 -1.923857e+00 -1.437080e+00 -1.713146e+00 -1.060668e+00 -1.331320e+00 -5.703936e-01 -8.252476e-01 
-1.667361e-01 -4.649020e-01 3.884693e-01 2.605690e-01 9.419978e-01 1.064637e+00 1.487361e+00 1.779916e+00 1.888242e+00 2.125148e+00 1.907508e+00 1.899361e+00 1.425351e+00 1.195042e+00 7.789184e-01 3.591863e-01 -7.530426e-04 -3.594300e-01 -7.787600e-01 -1.194244e+00 -1.425676e+00 -1.899022e+00 -1.907547e+00 -2.125003e+00 -1.888225e+00 -1.779628e+00 -1.487346e+00 -1.064407e+00 -9.419351e-01 -2.606190e-01 -3.884226e-01 4.645962e-01 1.667265e-01 1.081218e+00 7.294240e-01 1.600751e+00 1.266849e+00 2.014943e+00 1.710772e+00 2.278354e+00 1.961245e+00 2.269674e+00 1.862614e+00 1.849468e+00 1.335880e+00 1.100489e+00 7.151962e-01 3.198482e-01 -4.552802e-04 -3.202259e-01 -7.144747e-01 -1.099879e+00 -1.335695e+00 -1.849390e+00 -1.862265e+00 -2.269931e+00 -1.961010e+00 -2.278622e+00 -1.710715e+00 -2.015284e+00 -1.266877e+00 -1.601174e+00 -7.294705e-01 -1.081647e+00 
-3.029467e-02 -3.272298e-01 6.811978e-01 5.779118e-01 1.339683e+00 1.542797e+00 1.975119e+00 2.390023e+00 2.451383e+00 2.777106e+00 2.500410e+00 2.540829e+00 1.935587e+00 1.726057e+00 9.108406e-01 -1.204420e-01 8.482464e-05 1.219301e-01 -9.092441e-01 -1.724454e+00 -1.935492e+00 -2.540357e+00 -2.500352e+00 -2.777131e+00 -2.451396e+00 -2.389669e+00 -1.975038e+00 -1.542373e+00 -1.339436e+00 -5.778658e-01 -6.810347e-01 3.268858e-01 3.028156e-02 1.126985e+00 7.779307e-01 1.812334e+00 1.490167e+00 2.360865e+00 2.074237e+00 2.725730e+00 2.423148e+00 2.763371e+00 2.382531e+00 2.376823e+00 1.808327e+00 1.573738e+00 8.496154e-01 -1.659845e-01 4.296946e-04 1.673846e-01 -8.473192e-01 -1.572247e+00 -1.807599e+00 -2.376544e+00 -2.382004e+00 -2.763792e+00 -2.422960e+00 -2.726086e+00 -2.074297e+00 -2.361306e+00 -1.490311e+00 -1.812884e+00 -7.780619e-01 -1.127528e+00 
-1.923000e-01 -6.944698e-01 4.977593e-01 2.680274e-01 1.213708e+00 1.521195e+00 2.099017e+00 2.807215e+00 2.924925e+00 3.522356e+00 3.134669e+00 3.138314e+00 2.172800e+00 1.150643e+00 -1.329545e+00 -2.066636e+00 -3.198925e-03 2.061443e+00 1.324160e+00 -1.152624e+00 -2.173717e+00 -3.138482e+00 -3.134436e+00 -3.522343e+00 -2.924943e+00 -2.806607e+00 -2.099017e+00 -1.520645e+00 -1.213525e+00 -2.681229e-01 -4.976412e-01 6.939046e-01 1.922563e-01 1.452005e+00 9.404866e-01 2.114087e+00 1.711991e+00 2.704729e+00 2.421236e+00 3.205873e+00 2.948614e+00 3.391805e+00 2.953088e+00 2.788255e+00 1.944969e+00 8.527724e-01 -1.461082e+00 -2.181788e+00 -2.788383e-03 2.176579e+00 1.456500e+00 -8.548160e-01 -1.945191e+00 -2.788615e+00 -2.952338e+00 -3.392274e+00 -2.948379e+00 -3.206131e+00 -2.421287e+00 -2.705171e+00 -1.712134e+00 -2.114735e+00 -9.406341e-01 -1.452729e+00 
9.846969e-03 -5.278318e-01 9.232558e-01 6.834229e-01 1.725175e+00 2.161869e+00 2.732663e+00 3.683021e+00 3.703384e+00 4.460162e+00 4.093746e+00 4.235734e+00 2.954194e+00 1.409300e+00 -1.237124e+00 -8.882025e-01 -2.672050e-03 8.849218e-01 1.235060e+00 -1.407452e+00 -2.955070e+00 -4.236301e+00 -4.094143e+00 -4.460322e+00 -3.703895e+00 -3.682177e+00 -2.732565e+00 -2.160788e+00 -1.724514e+00 -6.833275e-01 -9.229098e-01 5.271503e-01 -9.940522e-03 1.543884e+00 1.022266e+00 2.432346e+00 2.048334e+00 3.199106e+00 2.953352e+00 3.844893e+00 3.609983e+00 4.089054e+00 3.823655e+00 3.736878e+00 2.692109e+00 1.023529e+00 -1.415420e+00 -1.059226e+00 -2.297260e-03 1.055819e+00 1.414138e+00 -1.021738e+00 -2.692088e+00 -3.737444e+00 -3.823331e+00 -4.089584e+00 -3.610174e+00 -3.845154e+00 -2.953614e+00 -3.199666e+00 -2.048670e+00 -2.433204e+00 -1.022592e+00 -1.544840e+00 
-1.609717e-01 -1.125382e+00 5.840243e-01 -1.081586e-02 1.318083e+00 1.957282e+00 2.774647e+00 4.333235e+00 4.555513e+00 6.082720e+00 5.691436e+00 5.950360e+00 4.410507e+00 3.220038e+00 2.143350e+00 2.546707e+00 5.141244e-03 -2.537586e+00 -2.136152e+00 -3.213165e+00 -4.409002e+00 -5.948603e+00 -5.692116e+00 -6.081483e+00 -4.556487e+00 -4.331678e+00 -2.774783e+00 -1.955862e+00 -1.317523e+00 1.050894e-02 -5.837363e-01 1.124253e+00 1.608350e-01 1.918638e+00 1.131677e+00 2.701586e+00 2.220218e+00 3.497908e+00 3.318807e+00 4.381078e+00 4.433136e+00 5.371469e+00 5.211811e+00 5.039266e+00 3.911133e+00 2.557087e+00 1.832139e+00 2.287080e+00 5.478710e-03 -2.278072e+00 -1.824110e+00 -2.550167e+00 -3.908683e+00 -5.037496e+00 -5.211695e+00 -5.370763e+00 -4.433751e+00 -4.380957e+00 -3.319116e+00 -3.498450e+00 -2.220561e+00 -2.702590e+00 -1.132034e+00 -1.919889e+00 
1.687380e-01 -9.198410e-01 1.279925e+00 5.286615e-01 1.899771e+00 2.748435e+00 3.493839e+00 5.507975e+00 5.541481e+00 7.217175e+00 6.961853e+00 7.446690e+00 5.172338e+00 4.284003e+00 4.501058e+00 4.027645e+00 4.180441e-03 -4.021139e+00 -4.499381e+00 -4.283361e+00 -5.172644e+00 -7.447377e+00 -6.964184e+00 -7.216469e+00 -5.543111e+00 -5.506047e+00 -3.493676e+00 -2.745432e+00 -1.897852e+00 -5.286907e-01 -1.279277e+00 9.183239e-01 -1.691240e-01 2.088675e+00 1.276790e+00 3.173177e+00 2.731108e+00 4.173270e+00 4.063958e+00 5.156023e+00 5.248477e+00 6.104628e+00 6.368080e+00 6.400789e+00 4.765924e+00 3.631595e+00 4.264331e+00 3.795370e+00 4.760711e-03 -3.788617e+00 -4.261330e+00 -3.630641e+00 -4.764858e+00 -6.400939e+00 -6.369202e+00 -6.103950e+00 -5.249438e+00 -5.155771e+00 -4.064422e+00 -4.173896e+00 -2.731750e+00 -3.174538e+00 -1.277540e+00 -2.090419e+00 
9.075509e-02 -1.867603e+00 6.847254e-01 -1.130473e+00 7.102377e-01 1.964717e+00 2.913393e+00 6.115179e+00 6.413285e+00 9.106194e+00 7.641844e+00 5.811659e+00 1.553469e+00 1.922151e+00 2.894740e+00 2.305881e+00 2.111381e-03 -2.298804e+00 -2.891178e+00 -1.919553e+00 -1.550921e+00 -5.812380e+00 -7.643385e+00 -9.106776e+00 -6.413977e+00 -6.113025e+00 -2.913470e+00 -1.960741e+00 -7.083770e-01 1.129154e+00 -6.841274e-01 1.865231e+00 -9.119668e-02 2.397354e+00 1.212894e+00 3.273760e+00 2.734200e+00 4.195335e+00 4.030324e+00 5.069850e+00 5.887957e+00 7.310878e+00 6.571568e+00 3.989357e+00 5.971996e-01 7.161910e-01 2.394036e+00 1.892994e+00 2.664525e-03 -1.885908e+00 -2.389270e+00 -7.136049e-01 -5.934865e-01 -3.989088e+00 -6.571831e+00 -7.311565e+00 -5.888359e+00 -5.069936e+00 -4.030572e+00 -4.196022e+00 -2.734835e+00 -3.275306e+00 -1.213700e+00 -2.399500e+00 
6.599415e-01 -1.582481e+00 2.136401e+00 -3.373449e-01 1.038290e+00 2.536877e+00 2.995239e+00 7.462329e+00 4.940736e+00 3.987481e+00 -3.349756e-01 -2.445172e+00 -2.124196e+00 1.171719e+00 1.284854e+00 6.916120e-01 1.498641e-03 -6.848125e-01 -1.280264e+00 -1.165893e+00 2.125945e+00 2.442485e+00 3.311781e-01 -3.990297e+00 -4.941146e+00 -7.460804e+00 -2.994150e+00 -2.527908e+00 -1.032202e+00 3.358475e-01 -2.135704e+00 1.578866e+00 -6.613080e-01 2.719005e+00 1.528978e+00 3.986020e+00 3.544634e+00 4.975581e+00 4.661408e+00 5.648324e+00 3.999617e+00 1.339557e+00 -1.800668e+00 -4.480885e+00 -3.013766e+00 -1.512988e-01 7.730714e-01 2.350323e-01 1.862778e-03 -2.283746e-01 -7.671378e-01 1.568811e-01 3.017450e+00 4.480221e+00 1.798993e+00 -1.340705e+00 -3.998644e+00 -5.648517e+00 -4.660946e+00 -4.976345e+00 -3.545756e+00 -3.988202e+00 -1.530642e+00 -2.722149e+00 
1.030581e+00 -2.793492e+00 1.321402e+00 -4.513040e+00 -2.365531e+00 -1.220062e-01 -1.791680e-01 4.962654e+00 -2.848193e-02 2.262821e-01 -2.476315e+00 5.924377e-01 2.621985e+00 1.827340e+00 1.921519e-01 8.772006e-02 1.843419e-03 -8.396157e-02 -1.889045e-01 -1.822736e+00 -2.623143e+00 -5.945619e-01 2.465372e+00 -2.352731e-01 2.658009e-02 -4.958770e+00 1.798963e-01 1.350958e-01 2.372099e+00 4.507041e+00 -1.320857e+00 2.788597e+00 -1.032025e+00 2.538834e+00 1.078335e+00 3.784019e+00 3.337535e+00 4.135252e+00 2.297547e+00 4.466684e-01 -2.202547e+00 -4.087250e+00 -5.185046e+00 -3.364982e+00 4.333494e-02 -8.372195e-01 -1.127788e+00 -7.831228e-01 2.176573e-03 7.871519e-01 1.131837e+00 8.412813e-01 -4.215606e-02 3.364135e+00 5.177314e+00 4.080372e+00 2.200737e+00 -4.465932e-01 -2.295843e+00 -4.135945e+00 -3.338716e+00 -3.786346e+00 -1.080118e+00 -2.542258e+00 
1.833838e+00 -2.370898e+00 5.595186e+00 -2.329273e+00 -4.166262e+00 -2.852376e+00 -7.607490e-01 7.801613e+00 2.872147e+00 3.840115e+00 -3.609823e-01 -1.955383e+00 -7.803222e+00 -9.056676e+00 -7.736020e+00 -4.440547e+00 2.476988e-03 4.434655e+00 7.731692e+00 9.042389e+00 7.797722e+00 1.951147e+00 3.479770e-01 -3.849499e+00 -2.886256e+00 -7.795357e+00 7.609905e-01 2.884095e+00 4.185574e+00 2.318881e+00 -5.598047e+00 2.362569e+00 -1.838023e+00 3.201173e+00 1.940629e+00 4.971206e+00 4.425228e+00 3.471505e+00 2.109544e+00 5.697686e-01 -3.309911e+00 -6.934459e+00 -9.157019e+00 -1.184402e+01 -1.406446e+01 -1.387978e+01 -1.045277e+01 -5.904113e+00 2.485351e-03 5.902258e+00 1.044724e+01 1.387023e+01 1.405984e+01 1.184345e+01 9.151859e+00 6.928587e+00 3.303761e+00 -5.681987e-01 -2.106439e+00 -3.471242e+00 -4.427940e+00 -4.974778e+00 -1.944026e+00 -3.206183e+00 
3.734541e+00 -2.283396e+00 5.434490e+00 -1.403499e+01 -1.140393e+01 -3.777228e+00 9.066214e+00 1.756076e+01 7.866941e+00 5.653468e+00 -7.945819e+00 -8.059635e+00 -1.102946e+01 -5.085865e+00 -4.994836e+00 -2.830809e+00 -2.899701e-03 2.809434e+00 4.977636e+00 5.053976e+00 1.101921e+01 8.050129e+00 7.936660e+00 -5.659751e+00 -7.895600e+00 -1.755134e+01 -9.061469e+00 3.810088e+00 1.141355e+01 1.400821e+01 -5.440095e+00 2.275468e+00 -3.738622e+00 1.169730e+00 7.127248e-01 4.513641e+00 3.802491e+00 1.300394e+00 7.144671e-01 -7.224366e+00 -1.429711e+01 -1.996882e+01 -2.285481e+01 -2.133180e+01 -1.666841e+01 -1.014340e+01 -7.141107e+00 -4.150781e+00 -3.327490e-03 4.136521e+00 7.123292e+00 1.012233e+01 1.665889e+01 2.133094e+01 2.285831e+01 1.997317e+01 1.429453e+01 7.229690e+00 -7.086778e-01 -1.297856e+00 -3.807013e+00 -4.517765e+00 -7.164165e-01 -1.174004e+00 
2.834833e+00 -2.565716e+00 2.272415e+01 1.626652e+00 1.655123e+01 2.993128e+01 2.456939e+01 2.001215e+01 5.868811e-01 1.622233e+00 -8.257267e+00 2.594223e+00 4.939559e+00 6.311918e+00 3.187412e+00 2.144376e+00 -5.512793e-03 -2.158733e+00 -3.195321e+00 -6.322970e+00 -4.945944e+00 -2.599212e+00 8.254372e+00 -1.629918e+00 -6.150494e-01 -2.003729e+01 -2.460612e+01 -2.998408e+01 -1.660423e+01 -1.683896e+00 -2.275397e+01 2.553553e+00 -2.844058e+00 2.449465e+00 3.155101e+00 5.649488e+00 -9.159725e-02 -8.998834e+00 -1.296570e+01 -2.286726e+01 -2.044124e+01 -1.603053e+01 -1.263305e+01 -1.375261e+00 5.162239e+00 5.072428e+00 3.377003e+00 1.976158e+00 -5.851366e-03 -1.987096e+00 -3.384098e+00 -5.078404e+00 -5.166882e+00 1.375210e+00 1.263674e+01 1.603468e+01 2.043980e+01 2.286691e+01 1.296731e+01 8.996506e+00 7.973380e-02 -5.657824e+00 -3.160328e+00 -2.454218e+00 
9.912676e+00 8.167831e+00 2.337974e+01 -3.914698e+00 8.337542e+01 7.700444e+01 1.466035e+00 2.374752e+01 -1.692677e+01 -8.715798e+00 -9.361888e+00 2.430243e+00 2.779597e+00 6.550557e-01 1.192542e+00 1.061891e+00 -2.999191e-03 -1.063890e+00 -1.189428e+00 -6.481037e-01 -2.780916e+00 -2.435231e+00 9.364314e+00 8.705954e+00 1.692894e+01 -2.381992e+01 -1.514691e+00 -7.708523e+01 -8.342524e+01 3.934369e+00 -2.339194e+01 -8.162432e+00 -9.919263e+00 -5.169214e+00 -9.718845e-01 -2.403231e+00 -1.413581e+01 -1.924673e+01 -1.730086e+01 -1.635801e+01 -1.007045e+01 -1.052956e+01 -3.848276e+00 4.389967e+00 5.037182e+00 1.933062e+00 2.200540e+00 1.499906e+00 -3.514388e-03 -1.502403e+00 -2.198021e+00 -1.927538e+00 -5.038174e+00 -4.392931e+00 3.848313e+00 1.053242e+01 1.007137e+01 1.635074e+01 1.729142e+01 1.923851e+01 1.411850e+01 2.391908e+00 9.661012e-01 5.167999e+00 
-9.892755e+00 -4.029342e+00 -2.739405e+01 -9.581247e+01 -4.129771e+01 -4.315620e+01 -8.826238e+01 -2.082265e+01 -4.084374e+01 -2.492859e+01 -1.539881e+01 -8.619648e+00 -6.137872e+00 -4.414755e+00 -1.411625e+00 -7.386907e-01 -4.174184e-04 7.410373e-01 1.415279e+00 4.421798e+00 6.143130e+00 8.620343e+00 1.541143e+01 2.493167e+01 4.088161e+01 2.078589e+01 8.830057e+01 4.317650e+01 4.133859e+01 9.589621e+01 2.739185e+01 4.047108e+00 9.896954e+00 -2.801391e+00 2.332321e+00 -1.118660e+01 -1.793956e+01 -1.069761e+01 -6.586704e+00 -6.404818e+00 -6.597288e+00 -1.121728e+01 -4.822875e+00 -2.638955e+00 -2.062857e+00 -1.267540e+00 3.390514e-01 1.773194e-01 -1.330229e-03 -1.770676e-01 -3.375788e-01 1.271459e+00 2.064608e+00 2.638763e+00 4.825035e+00 1.122105e+01 6.602036e+00 6.401620e+00 6.575738e+00 1.069711e+01 1.793716e+01 1.118570e+01 -2.329342e+00 2.807012e+00 
7.589518e+00 4.757083e+01 4.336467e+01 9.691849e+01 -2.559833e+01 -1.001160e+02 -5.772476e+01 -6.329229e+01 -2.027379e+01 -2.345464e+01 -7.475640e+00 -1.189077e+01 -6.069261e+00 -4.853004e+00 -1.756511e+00 -1.391295e+00 1.013992e-03 1.396106e+00 1.761101e+00 4.860012e+00 6.077088e+00 1.189969e+01 7.492051e+00 2.347143e+01 2.030361e+01 6.332820e+01 5.777652e+01 1.001330e+02 2.558799e+01 -9.693667e+01 -4.339264e+01 -4.758363e+01 -7.590744e+00 -1.576784e+01 -5.369107e+00 -1.758615e+01 -7.881137e+00 -2.758713e+00 -3.375602e+00 -1.143098e+00 1.570552e-01 6.287198e-01 2.643737e+00 -1.367138e+00 -1.070878e+00 -5.869669e-02 4.220789e-01 8.364369e-04 -3.298828e-04 5.461158e-04 -4.207574e-01 6.105586e-02 1.073092e+00 1.369593e+00 -2.640630e+00 -6.274819e-01 -1.538479e-01 1.143367e+00 3.372247e+00 2.764530e+00 7.892351e+00 1.759369e+01 5.375496e+00 1.577057e+01 
3.686038e+00 1.049762e+01 -9.873107e+00 8.487437e+01 1.056621e+01 4.761038e+00 4.516654e+01 -3.099270e+01 1.426649e+01 -3.855589e+00 5.354045e+00 -8.037915e+00 -2.871775e+00 -4.182288e+00 -1.407862e+00 -1.416370e+00 1.452847e-03 1.421249e+00 1.412682e+00 4.188693e+00 2.879313e+00 8.047831e+00 -5.343237e+00 3.869882e+00 -1.425926e+01 3.104132e+01 -4.517119e+01 -4.777702e+00 -1.058611e+01 -8.488963e+01 9.908630e+00 -1.048833e+01 -3.673758e+00 -1.213210e+01 -1.324498e+01 -1.496486e+01 8.641718e-01 -4.069830e+00 -4.875468e-01 5.038694e+00 1.031399e+01 1.376736e+01 1.133450e+01 2.768148e+00 1.304491e+00 8.187847e-01 6.070123e-01 7.530185e-02 -8.949187e-05 -7.408558e-02 -6.059430e-01 -8.172666e-01 -1.302799e+00 -2.766385e+00 -1.133353e+01 -1.376759e+01 -1.031117e+01 -5.035523e+00 4.944597e-01 4.075566e+00 -8.443057e-01 1.498340e+01 1.325437e+01 1.214323e+01 
-3.882639e+01 -8.437978e+01 -1.429642e+02 -1.363650e+02 -8.275266e+01 4.627334e+01 7.148474e+01 2.801681e+00 2.032687e+01 6.322798e+00 1.090442e+01 -4.739395e+00 -1.149471e+00 -3.687455e+00 -1.170001e+00 -1.375765e+00 1.777544e-03 1.381421e+00 1.175242e+00 3.694493e+00 1.157354e+00 4.749709e+00 -1.089443e+01 -6.309619e+00 -2.032303e+01 -2.765611e+00 -7.149902e+01 -4.625319e+01 8.283631e+01 1.364338e+02 1.430566e+02 8.442979e+01 3.885645e+01 1.187202e+01 -4.519080e+00 -6.306330e+00 6.744919e+00 -3.303508e+00 3.946922e+00 6.702871e+00 1.356402e+01 2.006588e+01 1.729290e+01 7.020489e+00 3.750763e+00 2.022852e+00 1.165189e+00 3.409623e-01 7.901813e-05 -3.395346e-01 -1.164118e+00 -2.021556e+00 -3.749546e+00 -7.020010e+00 -1.729332e+01 -2.006738e+01 -1.356279e+01 -6.698077e+00 -3.935099e+00 3.309527e+00 -6.718390e+00 6.335097e+00 4.532821e+00 -1.184953e+01 
2.179233e+00 1.317696e+01 -9.192315e+00 9.151107e+01 2.391694e+01 -3.885697e+00 5.049811e+01 -2.941637e+01 1.535499e+01 -3.342687e+00 5.797820e+00 -7.946028e+00 -2.705979e+00 -4.163915e+00 -1.350120e+00 -1.413800e+00 1.459844e-03 1.418727e+00 1.354967e+00 4.170404e+00 2.713606e+00 7.956100e+00 -5.786642e+00 3.357128e+00 -1.534629e+01 2.946492e+01 -5.050100e+01 3.873002e+00 -2.393081e+01 -9.152719e+01 9.223137e+00 -1.316809e+01 -2.167615e+00 -1.297993e+01 -1.289142e+01 -1.525747e+01 8.174056e-01 -4.212583e+00 -5.062437e-01 4.976300e+00 1.028662e+01 1.372943e+01 1.131152e+01 2.752216e+00 1.294075e+00 8.119346e-01 6.029816e-01 7.361058e-02 -9.158670e-05 -7.239473e-02 -6.019166e-01 -8.104167e-01 -1.292389e+00 -2.750453e+00 -1.131055e+01 -1.372966e+01 -1.028381e+01 -4.973139e+00 5.131242e-01 4.218341e+00 -7.976405e-01 1.527600e+01 1.290061e+01 1.299107e+01 