# vtk DataFile Version 2.0
Comment goes here
ASCII

DATASET STRUCTURED_POINTS
DIMENSIONS    64   64   1

ORIGIN    0.000   0.000   0.000
SPACING   0.031250.03125   1.000

POINT_DATA   4096
SCALARS uX double
LOOKUP_TABLE default

-1.080714e+00 -2.520731e+00 -1.421663e+00 -2.767222e+00 -1.662844e+00 -2.837542e+00 -1.770734e+00 -2.697889e+00 -1.728755e+00 -2.338637e+00 -1.538785e+00 -1.776928e+00 -1.219424e+00 -1.054484e+00 -8.023534e-01 -2.318210e-01 -3.280998e-01 6.191601e-01 1.581752e-01 1.423119e+00 6.108599e-01 2.109485e+00 9.882199e-01 2.620427e+00 1.256906e+00 2.918015e+00 1.396290e+00 2.989302e+00 1.401747e+00 2.847761e+00 1.285859e+00 2.530283e+00 1.076844e+00 2.090549e+00 8.143480e-01 1.590519e+00 5.434780e-01 1.091679e+00 3.080733e-01 6.470636e-01 1.439188e-01 2.944993e-01 7.243179e-02 5.139101e-02 9.570625e-02 -8.809255e-02 1.944263e-01 -1.520765e-01 3.303509e-01 -1.851644e-01 4.540601e-01 -2.381557e-01 5.164360e-01 -3.558864e-01 4.801686e-01 -5.669467e-01 3.275802e-01 -8.778676e-01 6.323985e-02 -1.272182e+00 -2.879731e-01 -1.713235e+00 -6.857411e-01 -2.149379e+00 
-1.599045e+00 -3.087794e+00 -1.911484e+00 -3.292835e+00 -2.096502e+00 -3.294134e+00 -2.122943e+00 -3.060456e+00 -1.980552e+00 -2.587916e+00 -1.680166e+00 -1.901262e+00 -1.249384e+00 -1.049908e+00 -7.266761e-01 -1.010022e-01 -1.564739e-01 8.681690e-01 4.144071e-01 1.777997e+00 9.398693e-01 2.554651e+00 1.377820e+00 3.137590e+00 1.693882e+00 3.486037e+00 1.865538e+00 3.584064e+00 1.886050e+00 3.443049e+00 1.766684e+00 3.099946e+00 1.535690e+00 2.610964e+00 1.234036e+00 2.042364e+00 9.090951e-01 1.460685e+00 6.075324e-01 9.238980e-01 3.681783e-01 4.741167e-01 2.154445e-01 1.321757e-01 1.541654e-01 -1.051586e-01 1.673862e-01 -2.640954e-01 2.188162e-01 -3.878014e-01 2.606574e-01 -5.258732e-01 2.452995e-01 -7.218972e-01 1.371015e-01 -1.002913e+00 -7.952248e-02 -1.373391e+00 -3.972511e-01 -1.814156e+00 -7.876558e-01 -2.285174e+00 -1.206176e+00 -2.730946e+00 
-1.198346e+00 -2.683462e+00 -1.566777e+00 -2.961614e+00 -1.825211e+00 -3.047766e+00 -1.936617e+00 -2.900456e+00 -1.882572e+00 -2.505852e+00 -1.665060e+00 -1.882396e+00 -1.304727e+00 -1.078415e+00 -8.372582e-01 -1.647415e-01 -3.089132e-01 7.744241e-01 2.285857e-01 1.651568e+00 7.238156e-01 2.386635e+00 1.131285e+00 2.916546e+00 1.416225e+00 3.202745e+00 1.558407e+00 3.236229e+00 1.554629e+00 3.038316e+00 1.419353e+00 2.655461e+00 1.183161e+00 2.150248e+00 8.887252e-01 1.591480e+00 5.847885e-01 1.045157e+00 3.191459e-01 5.669675e-01 1.314345e-01 1.960661e-01 4.620870e-02 -5.004210e-02 6.709951e-02 -1.787972e-01 1.737804e-01 -2.222186e-01 3.240629e-01 -2.309676e-01 4.624623e-01 -2.627626e-01 5.336909e-01 -3.682414e-01 4.962045e-01 -5.793375e-01 3.309118e-01 -9.033221e-01 4.350805e-02 -1.322487e+00 -3.382610e-01 -1.797562e+00 -7.701700e-01 -2.273007e+00 
-1.660732e+00 -3.209268e+00 -2.022716e+00 -3.471500e+00 -2.240506e+00 -3.509649e+00 -2.278728e+00 -3.284992e+00 -2.128444e+00 -2.792061e+00 -1.806210e+00 -2.059683e+00 -1.345856e+00 -1.144480e+00 -7.899140e-01 -1.216702e-01 -1.851492e-01 9.228981e-01 4.195731e-01 1.901007e+00 9.759010e-01 2.731805e+00 1.439444e+00 3.349684e+00 1.773307e+00 3.710017e+00 1.952166e+00 3.794551e+00 1.967204e+00 3.615729e+00 1.829968e+00 3.216230e+00 1.571631e+00 2.661376e+00 1.237895e+00 2.027495e+00 8.817083e-01 1.390294e+00 5.555511e-01 8.151534e-01 3.038606e-01 3.494317e-01 1.556097e-01 1.640905e-02 1.176366e-01 -1.885906e-01 1.706901e-01 -2.980275e-01 2.710906e-01 -3.656998e-01 3.599296e-01 -4.537049e-01 3.783763e-01 -6.163042e-01 2.831035e-01 -8.868933e-01 5.588244e-02 -1.271591e+00 -2.940600e-01 -1.749122e+00 -7.331491e-01 -2.274671e+00 -1.209535e+00 -2.785702e+00 
-1.374841e+00 -2.976534e+00 -1.821154e+00 -3.345859e+00 -2.134311e+00 -3.489191e+00 -2.268195e+00 -3.347989e+00 -2.200545e+00 -2.899646e+00 -1.935100e+00 -2.166440e+00 -1.498216e+00 -1.210808e+00 -9.341013e-01 -1.229634e-01 -2.998346e-01 9.908018e-01 3.406015e-01 2.020385e+00 9.243138e-01 2.866904e+00 1.397081e+00 3.454421e+00 1.718640e+00 3.738487e+00 1.866542e+00 3.713049e+00 1.838506e+00 3.412351e+00 1.652743e+00 2.901471e+00 1.346534e+00 2.261972e+00 9.717054e-01 1.578634e+00 5.875439e-01 9.295005e-01 2.527858e-01 3.790504e-01 1.759772e-02 -2.724752e-02 -8.467936e-02 -2.686300e-01 -4.593450e-02 -3.545973e-01 1.104303e-01 -3.269913e-01 3.298649e-01 -2.539983e-01 5.375553e-01 -2.142180e-01 6.587157e-01 -2.755674e-01 6.389799e-01 -4.792242e-01 4.555160e-01 -8.335513e-01 1.177857e-01 -1.316279e+00 -3.381926e-01 -1.880348e+00 -8.576471e-01 -2.459980e+00 
-1.812492e+00 -3.491901e+00 -2.279014e+00 -3.873469e+00 -2.565291e+00 -3.986508e+00 -2.624905e+00 -3.775748e+00 -2.450897e+00 -3.233295e+00 -2.073280e+00 -2.398701e+00 -1.540339e+00 -1.345003e+00 -9.031535e-01 -1.633515e-01 -2.133434e-01 1.043855e+00 4.750025e-01 2.170385e+00 1.107346e+00 3.120681e+00 1.633284e+00 3.818331e+00 2.009541e+00 4.209325e+00 2.203596e+00 4.268521e+00 2.201197e+00 4.009663e+00 2.015037e+00 3.488640e+00 1.684119e+00 2.791487e+00 1.265825e+00 2.016260e+00 8.261259e-01 1.257607e+00 4.307835e-01 5.961455e-01 1.373319e-01 9.071693e-02 -1.384392e-02 -2.288899e-01 -9.740173e-03 -3.688649e-01 1.265721e-01 -3.744198e-01 3.348208e-01 -3.232461e-01 5.295378e-01 -3.063742e-01 6.250726e-01 -4.019554e-01 5.607416e-01 -6.561537e-01 3.133746e-01 -1.076708e+00 -1.026462e-01 -1.636193e+00 -6.423991e-01 -2.279002e+00 -1.239078e+00 -2.928137e+00 
-1.620566e+00 -3.413749e+00 -2.207380e+00 -3.952676e+00 -2.622212e+00 -4.211518e+00 -2.801780e+00 -4.098876e+00 -2.717441e+00 -3.574544e+00 -2.377976e+00 -2.669634e+00 -1.820450e+00 -1.473316e+00 -1.102764e+00 -1.068374e-01 -2.986589e-01 1.289669e+00 5.079205e-01 2.569233e+00 1.235104e+00 3.602716e+00 1.814326e+00 4.292522e+00 2.195377e+00 4.580971e+00 2.350831e+00 4.462672e+00 2.279222e+00 3.994098e+00 2.004633e+00 3.273459e+00 1.576204e+00 2.414897e+00 1.062192e+00 1.529309e+00 5.402206e-01 7.135871e-01 8.756276e-02 4.625584e-02 -2.272630e-01 -4.154312e-01 -3.540652e-01 -6.421103e-01 -2.741574e-01 -6.434022e-01 -1.435720e-02 -4.769577e-01 3.478060e-01 -2.442245e-01 6.983470e-01 -6.547734e-02 9.230171e-01 -4.170708e-02 9.437150e-01 -2.293031e-01 7.330813e-01 -6.355841e-01 3.098851e-01 -1.228026e+00 -2.740736e-01 -1.945895e+00 -9.460208e-01 -2.707523e+00 
-2.072648e+00 -3.956821e+00 -2.716907e+00 -4.543018e+00 -3.118644e+00 -4.785055e+00 -3.207982e+00 -4.595059e+00 -2.981877e+00 -3.962975e+00 -2.501386e+00 -2.953268e+00 -1.843888e+00 -1.670752e+00 -1.071349e+00 -2.292503e-01 -2.390868e-01 1.245240e+00 5.903631e-01 2.614673e+00 1.350663e+00 3.760591e+00 1.981987e+00 4.592445e+00 2.431459e+00 5.040146e+00 2.653110e+00 5.061230e+00 2.619739e+00 4.667105e+00 2.346007e+00 3.938750e+00 1.886118e+00 3.001049e+00 1.318227e+00 1.989213e+00 7.296002e-01 1.027512e+00 2.071770e-01 2.197387e-01 -1.693027e-01 -3.561751e-01 -3.374574e-01 -6.566185e-01 -2.690648e-01 -6.859851e-01 1.034956e-02 -5.088228e-01 4.119096e-01 -2.463116e-01 7.983035e-01 -4.533812e-02 1.031566e+00 -2.743376e-02 1.020950e+00 -2.579180e-01 7.384119e-01 -7.425678e-01 2.107795e-01 -1.440424e+00 -4.967372e-01 -2.277924e+00 -1.293764e+00 -3.156723e+00 
-1.950811e+00 -4.013208e+00 -2.763134e+00 -4.834129e+00 -3.344664e+00 -5.299612e+00 -3.600432e+00 -5.255372e+00 -3.491634e+00 -4.623701e+00 -3.041168e+00 -3.458399e+00 -2.305084e+00 -1.902016e+00 -1.360522e+00 -1.201775e-01 -3.031330e-01 1.702098e+00 7.517829e-01 3.358354e+00 1.692440e+00 4.675978e+00 2.430303e+00 5.526553e+00 2.899388e+00 5.825801e+00 3.063027e+00 5.558725e+00 2.921334e+00 4.823824e+00 2.506485e+00 3.778688e+00 1.886791e+00 2.590021e+00 1.156954e+00 1.405942e+00 4.220935e-01 3.463386e-01 -2.144277e-01 -4.937073e-01 -6.569034e-01 -1.038884e+00 -8.256733e-01 -1.240425e+00 -6.778424e-01 -1.099223e+00 -2.384670e-01 -6.929510e-01 3.781161e-01 -1.810142e-01 9.834814e-01 2.369210e-01 1.388391e+00 4.019040e-01 1.476716e+00 2.380716e-01 1.221060e+00 -2.516739e-01 6.622145e-01 -1.013125e+00 -1.206809e-01 -1.964873e+00 -1.029073e+00 -3.006284e+00 
-2.470196e+00 -4.636326e+00 -3.399301e+00 -5.555516e+00 -3.987079e+00 -6.012376e+00 -4.111908e+00 -5.851284e+00 -3.776359e+00 -5.063970e+00 -3.117586e+00 -3.774426e+00 -2.271919e+00 -2.150423e+00 -1.303879e+00 -3.253769e-01 -2.600131e-01 1.551281e+00 7.827615e-01 3.280156e+00 1.733887e+00 4.711902e+00 2.522897e+00 5.748908e+00 3.087751e+00 6.297543e+00 3.360075e+00 6.270834e+00 3.279567e+00 5.661448e+00 2.865161e+00 4.601165e+00 2.200392e+00 3.287445e+00 1.397502e+00 1.913839e+00 5.735948e-01 6.436749e-01 -1.564375e-01 -3.904643e-01 -6.799877e-01 -1.082489e+00 -8.952338e-01 -1.360492e+00 -7.386006e-01 -1.214252e+00 -2.280779e-01 -7.310437e-01 5.039343e-01 -1.072732e-01 1.220085e+00 4.013993e-01 1.681632e+00 5.984905e-01 1.751942e+00 3.964799e-01 1.406119e+00 -1.949518e-01 7.004259e-01 -1.106400e+00 -2.658198e-01 -2.237825e+00 -1.370445e+00 -3.466017e+00 
-2.383953e+00 -4.790032e+00 -3.544742e+00 -6.062225e+00 -4.391704e+00 -6.888542e+00 -4.766505e+00 -6.989655e+00 -4.611891e+00 -6.195799e+00 -3.993468e+00 -4.627543e+00 -3.001122e+00 -2.548139e+00 -1.735330e+00 -1.724079e-01 -3.111044e-01 2.273297e+00 1.104136e+00 4.474361e+00 2.349451e+00 6.204725e+00 3.316361e+00 7.302667e+00 3.913016e+00 7.629940e+00 4.083173e+00 7.116697e+00 3.833563e+00 5.956902e+00 3.205090e+00 4.418742e+00 2.297934e+00 2.751388e+00 1.249303e+00 1.150275e+00 2.024350e-01 -2.460673e-01 -7.090222e-01 -1.331857e+00 -1.354878e+00 -2.007343e+00 -1.606069e+00 -2.181563e+00 -1.365053e+00 -1.819778e+00 -6.340516e-01 -1.014605e+00 4.210782e-01 -2.438747e-02 1.466176e+00 7.907687e-01 2.165111e+00 1.172414e+00 2.348386e+00 1.030030e+00 2.008731e+00 4.041447e-01 1.238046e+00 -6.054960e-01 1.609836e-01 -1.889140e+00 -1.093247e+00 -3.332146e+00 
-3.043806e+00 -5.568961e+00 -4.425857e+00 -7.028785e+00 -5.321720e+00 -7.852604e+00 -5.484768e+00 -7.725114e+00 -4.911300e+00 -6.656119e+00 -3.942471e+00 -4.918901e+00 -2.840480e+00 -2.821197e+00 -1.621440e+00 -4.665908e-01 -2.759013e-01 2.003907e+00 1.082379e+00 4.238030e+00 2.300615e+00 6.053066e+00 3.309028e+00 7.390580e+00 4.049324e+00 8.130973e+00 4.423031e+00 8.066973e+00 4.274186e+00 7.111703e+00 3.638797e+00 5.522292e+00 2.661764e+00 3.638956e+00 1.510373e+00 1.739343e+00 3.370282e-01 2.567517e-02 -7.150541e-01 -1.344766e+00 -1.490583e+00 -2.228906e+00 -1.819699e+00 -2.497475e+00 -1.559572e+00 -2.088325e+00 -6.872643e-01 -1.098925e+00 6.116385e-01 1.484766e-01 1.895886e+00 1.165159e+00 2.721757e+00 1.629106e+00 2.896216e+00 1.443523e+00 2.428379e+00 6.723656e-01 1.442804e+00 -5.560545e-01 9.435441e-02 -2.106385e+00 -1.460210e+00 -3.837974e+00 
-2.933219e+00 -5.737027e+00 -4.629469e+00 -7.721692e+00 -5.908380e+00 -9.189003e+00 -6.468996e+00 -9.603818e+00 -6.204987e+00 -8.524148e+00 -5.324026e+00 -6.287740e+00 -3.972741e+00 -3.473347e+00 -2.275199e+00 -2.891960e-01 -3.218352e-01 3.071968e+00 1.614863e+00 6.036054e+00 3.277397e+00 8.343840e+00 4.575331e+00 9.833684e+00 5.362917e+00 1.026311e+01 5.530543e+00 9.312209e+00 5.118005e+00 7.456210e+00 4.164627e+00 5.170726e+00 2.830494e+00 2.828642e+00 1.325016e+00 6.754896e-01 -1.592654e-01 -1.159172e+00 -1.467859e+00 -2.587063e+00 -2.439407e+00 -3.481127e+00 -2.865669e+00 -3.660948e+00 -2.527979e+00 -2.985465e+00 -1.342660e+00 -1.522965e+00 4.769606e-01 3.074402e-01 2.289234e+00 1.777374e+00 3.448033e+00 2.465434e+00 3.733963e+00 2.304860e+00 3.222062e+00 1.445289e+00 2.120126e+00 8.093223e-02 6.256739e-01 -1.644894e+00 -1.109564e+00 -3.629565e+00 
-3.830287e+00 -6.777738e+00 -5.942916e+00 -9.135946e+00 -7.392054e+00 -1.063696e+01 -7.606623e+00 -1.052716e+01 -6.476273e+00 -8.896843e+00 -4.944642e+00 -6.404195e+00 -3.559018e+00 -3.728408e+00 -2.083948e+00 -7.043898e-01 -2.967549e-01 2.686576e+00 1.552133e+00 5.603598e+00 3.116678e+00 7.862201e+00 4.408006e+00 9.623011e+00 5.404913e+00 1.077276e+01 6.011012e+00 1.076361e+01 5.756753e+00 9.204940e+00 4.764002e+00 6.745998e+00 3.317098e+00 4.016700e+00 1.671174e+00 1.389207e+00 5.226054e-03 -9.284361e-01 -1.528711e+00 -2.785152e+00 -2.731712e+00 -3.998900e+00 -3.322307e+00 -4.326767e+00 -2.985797e+00 -3.559346e+00 -1.568543e+00 -1.736383e+00 7.343694e-01 6.396245e-01 3.026964e+00 2.492596e+00 4.409422e+00 3.318950e+00 4.675927e+00 3.080729e+00 3.957211e+00 1.994498e+00 2.531841e+00 3.070523e-01 6.412599e-01 -1.806426e+00 -1.538744e+00 -4.221746e+00 
-3.579603e+00 -6.777197e+00 -6.106664e+00 -9.873801e+00 -8.135593e+00 -1.252091e+01 -9.013291e+00 -1.368920e+01 -8.433463e+00 -1.197825e+01 -7.125280e+00 -8.487537e+00 -5.284605e+00 -4.730046e+00 -3.083285e+00 -5.587440e-01 -3.408508e-01 4.219056e+00 2.379331e+00 8.198746e+00 4.549885e+00 1.125736e+01 6.349908e+00 1.339952e+01 7.452612e+00 1.425568e+01 7.579577e+00 1.239915e+01 6.925708e+00 9.361878e+00 5.463960e+00 5.941998e+00 3.492105e+00 2.681719e+00 1.350866e+00 -1.423049e-01 -7.095136e-01 -2.495859e+00 -2.564398e+00 -4.388975e+00 -4.059351e+00 -5.678933e+00 -4.869185e+00 -6.002993e+00 -4.513696e+00 -4.945896e+00 -2.661092e+00 -2.407274e+00 5.466679e-01 1.003259e+00 3.751100e+00 3.548166e+00 5.586580e+00 4.607604e+00 5.902529e+00 4.281014e+00 5.018297e+00 2.996461e+00 3.396368e+00 1.137747e+00 1.342947e+00 -1.125947e+00 -1.014112e+00 -3.778696e+00 
-4.820592e+00 -8.196063e+00 -8.132010e+00 -1.209613e+01 -1.069820e+01 -1.502459e+01 -1.108470e+01 -1.483931e+01 -8.521289e+00 -1.196389e+01 -5.895584e+00 -8.042740e+00 -4.422221e+00 -4.952942e+00 -2.911752e+00 -1.233919e+00 -3.633184e-01 3.803714e+00 2.378216e+00 7.607431e+00 4.272221e+00 1.015197e+01 5.903092e+00 1.245084e+01 7.222719e+00 1.459547e+01 8.451205e+00 1.503302e+01 7.988411e+00 1.221136e+01 6.371241e+00 8.251806e+00 4.214846e+00 4.310720e+00 1.905424e+00 7.532016e-01 -4.090694e-01 -2.322160e+00 -2.634959e+00 -4.859446e+00 -4.556865e+00 -6.661724e+00 -5.728870e+00 -7.272910e+00 -5.476494e+00 -6.121333e+00 -3.317370e+00 -2.953716e+00 8.707147e-01 1.665375e+00 5.055325e+00 4.872860e+00 7.203459e+00 6.088575e+00 7.424848e+00 5.570843e+00 6.170354e+00 3.909283e+00 4.053737e+00 1.574300e+00 1.437250e+00 -1.233880e+00 -1.544409e+00 -4.491112e+00 
-4.196046e+00 -7.658834e+00 -8.021711e+00 -1.243218e+01 -1.148243e+01 -1.729631e+01 -1.305429e+01 -2.061887e+01 -1.142377e+01 -1.716068e+01 -9.431205e+00 -1.089821e+01 -6.965305e+00 -6.394705e+00 -4.519156e+00 -1.285423e+00 -3.970720e-01 5.963401e+00 3.721382e+00 1.123899e+01 6.182572e+00 1.501044e+01 8.841616e+00 1.822637e+01 1.053315e+01 2.090834e+01 1.047777e+01 1.664672e+01 9.481882e+00 1.159883e+01 7.175080e+00 6.464014e+00 4.235322e+00 2.031296e+00 1.246699e+00 -1.465021e+00 -1.486384e+00 -4.316893e+00 -4.029341e+00 -6.817731e+00 -6.359765e+00 -8.863394e+00 -8.011822e+00 -9.750733e+00 -7.984522e+00 -8.467702e+00 -5.304150e+00 -4.156119e+00 6.370473e-01 2.542237e+00 6.569105e+00 6.872877e+00 9.241813e+00 8.149126e+00 9.248711e+00 7.226200e+00 7.546450e+00 5.136885e+00 5.111286e+00 2.614746e+00 2.384980e+00 -1.948892e-01 -6.648355e-01 -3.534985e+00 
-5.829907e+00 -9.448324e+00 -1.108948e+01 -1.601149e+01 -1.620024e+01 -2.252582e+01 -1.746372e+01 -2.193924e+01 -1.084558e+01 -1.600936e+01 -5.944397e+00 -8.928876e+00 -5.528065e+00 -6.893276e+00 -4.711743e+00 -2.355327e+00 -5.855090e-01 5.538501e+00 4.006436e+00 1.093816e+01 5.895712e+00 1.275401e+01 7.979686e+00 1.539994e+01 9.381997e+00 2.026865e+01 1.249539e+01 2.261088e+01 1.147303e+01 1.636195e+01 8.599531e+00 9.747312e+00 5.357504e+00 4.247952e+00 2.250713e+00 -3.131942e-01 -8.233233e-01 -4.198871e+00 -3.982506e+00 -7.634985e+00 -7.084361e+00 -1.050996e+01 -9.523736e+00 -1.205709e+01 -9.968760e+00 -1.090944e+01 -6.920485e+00 -5.256079e+00 1.023048e+00 3.700328e+00 8.961404e+00 9.440807e+00 1.203020e+01 1.066321e+01 1.162360e+01 9.204571e+00 9.202382e+00 6.473479e+00 6.014507e+00 3.265413e+00 2.518275e+00 -2.745810e-01 -1.336287e+00 -4.371214e+00 
-4.363639e+00 -7.762570e+00 -1.015842e+01 -1.483676e+01 -1.656747e+01 -2.351859e+01 -2.033270e+01 -3.431609e+01 -1.484875e+01 -2.515684e+01 -1.209566e+01 -1.174524e+01 -8.731164e+00 -8.107168e+00 -6.062901e+00 -1.850957e+00 -5.588043e-01 7.268348e+00 4.990462e+00 1.512431e+01 7.660114e+00 1.937191e+01 1.251184e+01 2.382421e+01 1.517216e+01 3.427858e+01 1.457440e+01 2.166615e+01 1.308626e+01 1.376025e+01 9.287455e+00 6.047917e+00 4.861592e+00 3.430629e-01 8.349877e-01 -3.449233e+00 -2.473587e+00 -6.514915e+00 -5.738532e+00 -9.747679e+00 -9.363658e+00 -1.325544e+01 -1.286334e+01 -1.585990e+01 -1.424358e+01 -1.473604e+01 -9.585589e+00 -6.349373e+00 7.552938e-01 4.488054e+00 1.107023e+01 1.293441e+01 1.570331e+01 1.406997e+01 1.432518e+01 1.138190e+01 1.081689e+01 7.753702e+00 7.141106e+00 4.403001e+00 3.777157e+00 1.277160e+00 2.341434e-01 -2.438333e+00 
-6.164245e+00 -9.279313e+00 -1.420247e+01 -1.982492e+01 -2.577548e+01 -3.707899e+01 -3.109760e+01 -3.590309e+01 -1.236439e+01 -2.130675e+01 -2.401690e+00 -5.831861e+00 -6.664243e+00 -8.581254e+00 -5.519699e+00 -2.530912e+00 -1.289946e+00 5.603889e+00 4.095257e+00 1.508516e+01 6.914641e+00 1.537785e+01 1.155728e+01 1.653819e+01 1.124503e+01 2.962754e+01 2.004459e+01 3.862832e+01 1.760070e+01 2.084113e+01 1.133680e+01 1.009391e+01 6.517324e+00 3.235596e+00 2.744355e+00 -1.962261e+00 -1.016581e+00 -6.401402e+00 -5.304142e+00 -1.088879e+01 -1.020819e+01 -1.567818e+01 -1.537296e+01 -1.967077e+01 -1.715038e+01 -1.746736e+01 -1.039028e+01 -6.808265e+00 1.180404e+00 4.933350e+00 1.276879e+01 1.569916e+01 1.956061e+01 1.804112e+01 1.790400e+01 1.412984e+01 1.292707e+01 9.459853e+00 8.182442e+00 5.186065e+00 3.815124e+00 1.135270e+00 -6.301036e-01 -3.357292e+00 
-3.054088e+00 -6.033968e+00 -1.181443e+01 -1.649706e+01 -2.427321e+01 -2.764257e+01 -3.658950e+01 -6.961906e+01 -1.586062e+01 -3.888453e+01 -1.336491e+01 -4.176891e+00 -9.378976e+00 -8.313588e+00 -7.203852e+00 -2.725353e+00 -9.788755e-01 7.327859e+00 5.661173e+00 1.802771e+01 5.770978e+00 2.345478e+01 1.907835e+01 2.729078e+01 2.023082e+01 6.939124e+01 2.094971e+01 2.274030e+01 1.846128e+01 1.514094e+01 1.208011e+01 3.173762e+00 4.920466e+00 -3.201766e+00 -1.768996e-01 -6.032942e+00 -3.478920e+00 -8.578796e+00 -7.199289e+00 -1.255033e+01 -1.273884e+01 -1.895188e+01 -2.023349e+01 -2.560988e+01 -2.355685e+01 -2.205233e+01 -1.254868e+01 -7.460355e+00 8.867289e-01 5.347507e+00 1.429976e+01 1.997334e+01 2.524252e+01 2.366514e+01 2.189914e+01 1.689694e+01 1.445066e+01 1.026341e+01 8.954165e+00 6.020444e+00 5.346148e+00 3.225741e+00 2.162984e+00 1.974622e-01 
-3.818342e+00 -3.713832e+00 -1.085557e+01 -1.078098e+01 -3.839048e+01 -6.297965e+01 -6.099118e+01 -8.155347e+01 1.461521e+00 -2.995484e+01 2.212244e+01 1.291055e+01 -1.138277e+01 -1.409137e+01 -9.598464e+00 -3.442415e+00 -3.607153e+00 3.237421e+00 5.578143e+00 2.224246e+01 2.612045e+00 1.296565e+01 1.531510e+01 1.367375e+01 -6.661769e+00 5.305704e+01 3.464682e+01 7.297558e+01 2.716831e+01 1.562348e+01 9.470877e+00 5.320884e+00 6.534325e+00 8.980735e-02 3.381577e+00 -4.255815e+00 -5.497724e-01 -8.298527e+00 -5.957356e+00 -1.382359e+01 -1.340086e+01 -2.251480e+01 -2.563403e+01 -3.129903e+01 -2.279550e+01 -1.767908e+01 -7.161277e+00 -4.531137e+00 1.266744e+00 2.388035e+00 9.752033e+00 1.552214e+01 2.551655e+01 2.936083e+01 2.851893e+01 2.076748e+01 1.670076e+01 1.207254e+01 9.848617e+00 6.664787e+00 4.991818e+00 2.888253e+00 1.059093e+00 -6.676970e-01 
1.319508e+00 -3.478138e+00 -1.856942e+01 -3.312032e+01 -4.710770e+01 -3.061057e+01 -1.101594e+02 -1.701104e+02 3.395145e+01 -6.768774e+01 3.200998e+01 7.470191e+01 1.248288e+01 4.533077e+00 3.668077e+00 4.183540e+00 -4.847500e+00 -9.311245e+00 -1.129819e+01 -2.932025e+00 -3.877371e+01 -2.608348e+01 7.724302e+00 2.865919e+01 -7.350533e+01 1.629156e+02 5.540895e+01 9.609318e+00 4.465278e+01 2.453787e+01 2.439770e+01 -2.099619e+00 3.560548e+00 -8.860985e+00 -1.986989e+00 -8.372575e+00 -3.946324e+00 -9.484952e+00 -7.505625e+00 -1.409555e+01 -1.666151e+01 -2.783271e+01 -2.787029e+01 -2.187563e+01 -7.200637e+00 -6.790017e-01 4.522301e+00 1.463843e+00 8.146685e-01 -3.486571e+00 -2.848129e+00 -1.594543e+00 8.922702e+00 1.950758e+01 2.963568e+01 2.580146e+01 1.854294e+01 1.167889e+01 9.557170e+00 6.537410e+00 6.410058e+00 4.903681e+00 5.340204e+00 4.724556e+00 
3.762233e+00 7.285998e+00 3.577156e+00 3.418559e+01 -2.062453e+01 -9.323459e+00 -4.312721e+01 -1.198635e+02 6.418750e+00 2.486120e+01 9.443506e+01 1.027897e+02 5.363290e+01 2.621288e+01 3.251880e+01 1.701332e+01 -1.601815e+01 -4.756379e+01 -5.685936e+01 -5.728101e+01 -1.087820e+02 -7.072532e+01 -2.856620e+01 5.577466e+01 -1.208536e+02 6.380027e+01 3.530715e+01 5.732512e+01 6.668026e-01 -3.240435e+01 -2.137628e+00 -1.237174e+01 5.001116e+00 -7.019320e+00 4.255851e+00 -6.813071e+00 9.517700e-01 -8.682497e+00 -5.502672e+00 -1.641563e+01 -1.857966e+01 -2.611411e+01 -1.138417e+01 -1.014408e-01 1.238513e+01 1.526765e+01 1.655765e+01 7.988542e+00 1.049796e+00 -9.945233e+00 -1.432418e+01 -1.751247e+01 -9.699528e+00 -2.393420e+00 1.459067e+01 2.391142e+01 2.215935e+01 1.436176e+01 1.027610e+01 6.513766e+00 5.479799e+00 4.493041e+00 4.171845e+00 4.230902e+00 
1.895291e+01 3.037698e+01 1.856639e+01 3.116454e+01 -3.589550e+01 6.962963e+01 -1.306825e+02 1.122653e+02 -1.299353e+02 1.440511e+02 -5.163647e+01 -5.475075e+01 -3.824051e+01 -9.331558e+00 4.104992e+01 8.330447e+00 -1.216298e+01 -6.582077e+01 -5.221384e+01 -4.803752e+01 -4.715579e+00 -4.065293e+01 -9.337165e+01 1.789548e+01 2.848436e+01 -8.900713e+01 5.597548e+01 -8.162632e+01 8.851324e+01 -2.400835e+01 6.532296e+00 -3.151121e+01 -9.886698e+00 -1.641513e+01 -3.926607e+00 -8.081971e+00 -1.796168e+00 -6.810478e+00 -6.184685e+00 -1.520690e+01 -1.290982e+01 -8.339029e+00 9.631488e+00 1.776511e+01 2.899141e+01 3.003842e+01 2.558523e+01 1.290430e+01 7.118824e-01 -1.453199e+01 -2.414715e+01 -3.195984e+01 -2.746575e+01 -2.038135e+01 -7.880093e+00 5.385303e+00 1.458540e+01 1.270964e+01 8.248700e+00 3.664910e+00 4.465124e+00 4.119006e+00 8.234876e+00 1.216427e+01 
2.063043e+01 1.680142e+01 -1.587193e+01 -8.066221e+00 -3.118087e+01 1.549260e+02 -8.916371e+01 4.041278e+02 3.401140e+01 -2.994363e+01 -2.499792e+02 -2.436475e+02 -1.276421e+02 -6.561029e+01 -5.128675e+01 -3.430108e+01 6.336726e-01 -4.464395e+00 4.738100e+01 6.990140e+00 1.492121e+02 1.530319e+02 9.615071e+00 1.101014e+02 -1.323886e+02 -2.591371e+02 7.590674e+01 -2.937550e+02 1.578206e+02 -1.781443e+01 6.319330e+01 -1.508335e+01 2.080268e+00 -1.150571e+01 5.998621e+00 -7.658489e+00 1.316723e+00 -9.551003e+00 -6.509512e+00 -1.059733e+01 9.290567e-01 1.365748e+01 2.683400e+01 2.934676e+01 3.530646e+01 2.523273e+01 1.756844e+01 6.265791e+00 9.705926e-01 -8.403789e+00 -1.553308e+01 -2.730870e+01 -3.296325e+01 -3.171246e+01 -2.361834e+01 -1.657311e+01 3.156515e+00 7.866100e+00 1.178211e+01 6.963070e+00 6.526288e+00 5.082884e+00 6.730810e+00 9.301546e+00 
2.329013e+01 1.892974e+01 4.794408e+01 3.717133e+01 1.235613e+02 9.865538e+01 6.808203e+01 2.710209e+02 2.329981e+02 1.366327e+02 5.229673e+01 -1.434358e+02 -4.880754e+00 -6.409647e+01 -5.364137e+01 -4.377390e+01 8.929878e+00 3.256627e+01 5.896476e+01 4.374218e+01 5.549300e+01 1.530517e+02 6.734051e+01 -1.874955e+00 1.307241e+02 -2.590551e+01 1.249781e+02 -4.628414e-01 -8.687735e+01 -6.824440e+01 -5.080739e+01 -3.117831e+01 -1.987330e+01 -1.092645e+01 2.114091e+00 -4.828918e-02 3.568830e+00 -2.326620e+00 1.544611e-01 -2.145676e+00 9.397506e+00 2.275056e+01 2.791886e+01 2.091963e+01 1.440723e+01 3.053599e+00 1.032539e+00 -2.018022e+00 1.000518e+00 2.263002e-01 9.707792e-01 -4.681447e+00 -1.240808e+01 -2.257830e+01 -2.616129e+01 -2.531257e+01 -7.589399e+00 -9.543889e-01 1.362849e+00 -1.113648e+00 -1.922090e+00 -4.635263e+00 1.661509e-01 3.427288e+00 
1.000446e+01 3.480314e+01 1.803535e+01 5.767774e+01 -1.584225e+01 -3.816110e+01 2.985072e+01 -2.827199e+02 -1.151679e+02 -1.824755e+02 -1.491710e+02 -9.334208e+01 -4.396805e+01 -5.464805e+01 -2.049479e+01 -2.694768e+01 -5.691255e-01 2.055977e+01 2.787299e+00 5.302315e+01 5.067076e+00 1.356246e+01 1.189173e+02 1.377399e+02 3.296567e+02 1.653241e+02 -1.214656e+02 1.718180e+02 -7.387795e+01 4.761982e+01 7.215382e+00 -3.471866e+01 1.094135e+01 -2.404126e+01 7.386424e+00 -5.522232e+00 1.939092e+00 -4.803717e+00 1.435345e+00 -5.863548e+00 1.786331e+01 2.557891e+01 2.098708e+01 6.309315e+00 2.289756e-01 -4.906584e+00 -2.048211e+00 -3.101211e+00 1.032329e+00 4.795293e-01 4.136993e+00 2.230011e+00 1.882029e+00 -9.002430e+00 -1.882165e+01 -2.857327e+01 -1.467043e+01 2.161487e+00 3.142549e+00 1.029322e+00 5.217707e+00 1.781543e+00 4.657784e+00 2.044407e+01 
1.316228e+01 -4.729221e+01 3.378782e+01 3.424346e+01 2.282227e+01 -3.316599e+02 3.233710e+02 -1.037562e+02 -5.954556e+01 -2.113633e+02 -1.594440e+02 -6.520256e+01 -1.633114e+01 -8.123829e+00 -8.802617e+00 -1.188387e+01 3.542504e+00 6.113498e+00 6.381405e+00 -7.713871e+00 -8.122782e+00 -7.924048e+01 -3.212568e+01 1.037855e+01 -1.525306e+01 -2.190855e+02 -2.435496e+02 1.694408e+02 -7.379699e+01 -1.649125e+01 -5.433659e+01 2.171533e+01 -7.993989e+00 1.681864e+01 1.038568e+01 1.562408e+01 1.842528e+01 1.899647e+01 1.333284e+01 1.441060e+01 3.257095e+01 2.956377e+01 1.969381e+01 9.847137e+00 4.869548e+00 -1.917342e-01 4.810353e-01 -1.477818e+00 1.078715e+00 -3.213392e-01 1.658120e+00 -1.625374e+00 -2.842513e+00 -1.163186e+01 -1.796684e+01 -3.133591e+01 -3.114387e+01 -1.719009e+01 -1.233054e+01 -2.181202e+01 -1.872737e+01 -1.955278e+01 -1.100037e+01 -2.614495e+01 
7.723172e+01 -3.174398e+01 1.027949e+02 -1.207110e+01 3.625957e+02 -1.213784e+02 3.116831e+02 4.149256e+02 4.227769e+02 2.669090e+02 1.005658e+02 6.852103e+01 3.184146e+01 4.168896e+01 1.441995e+01 7.927290e+00 9.022374e+00 -8.552188e+00 1.007861e+01 -4.229623e+01 8.933330e+00 -5.110945e+01 4.887695e+00 -4.287125e+02 -2.889900e+02 -3.644395e+02 -8.981915e+01 -1.356121e+02 -3.643267e+01 -1.471780e+02 -6.424317e+00 -7.709129e+00 -5.213486e+01 -6.624720e-01 -2.615598e+01 5.122022e+00 8.256183e+00 1.483777e+01 1.185505e+01 2.196814e+01 2.702205e+01 1.815759e+01 1.524937e+01 1.041436e+01 6.280637e+00 1.000639e+00 1.631596e+00 -1.066453e+00 7.926130e-01 -1.638171e+00 -2.223638e-02 -3.739574e+00 -4.601336e+00 -1.319256e+01 -1.335125e+01 -2.094145e+01 -2.477353e+01 -2.521340e+01 -8.858390e+00 -1.879423e+01 -3.496899e+00 -1.118724e+01 3.643908e+01 -1.113248e+01 
1.026272e+01 2.512186e+01 9.128165e+01 -5.380830e+01 7.932513e+01 1.139111e+02 2.217379e+02 2.937392e+02 1.415195e+01 5.716718e+01 -7.131802e+01 1.394763e+02 -1.627998e+01 5.272854e+01 6.739745e+00 1.706184e+01 8.619767e+00 -1.856382e+01 6.259335e+00 -6.864828e+01 2.798965e+01 -1.198627e+02 1.219890e+02 -2.924218e+02 -6.927906e+01 -1.638540e+02 -9.576652e+01 -2.499707e+02 -2.064527e+02 -1.815115e+01 3.854986e+00 -1.992269e+01 -1.994349e+01 -1.187463e+01 -6.118649e+00 4.522274e+00 5.397643e+00 4.811838e+00 1.778172e+01 2.922363e+01 2.588921e+01 1.864227e+01 2.179297e+01 1.709593e+01 1.426060e+01 7.498293e+00 6.046349e+00 1.475739e+00 1.150235e+00 -2.973600e+00 -3.763512e+00 -9.060419e+00 -1.204127e+01 -1.871578e+01 -1.956715e+01 -2.026958e+01 -2.399984e+01 -3.092731e+01 -1.664114e+01 -6.184840e+00 -4.868980e+00 -3.490105e+00 3.118246e+00 2.195564e+01 
8.593636e+00 8.841204e+01 3.737776e+01 -3.316642e+01 -2.735949e+02 -8.596867e+01 -1.244022e+02 -4.926138e+02 -4.074296e+02 -1.026301e+02 4.704675e+01 1.315905e+02 7.777103e+01 7.827731e+01 3.767795e+01 2.293088e+01 9.305866e+00 -1.927211e+01 -1.709705e+01 -7.752542e+01 -6.941991e+01 -1.809742e+02 -8.772035e+01 2.943430e+01 3.145295e+02 6.009338e+02 -4.910772e+00 -1.169801e+01 -2.880363e+02 -6.048866e+01 -1.514286e+02 -6.451181e+01 -1.658680e+01 -3.208307e+01 3.675429e+00 -1.452806e+01 -2.583106e-01 5.306272e+00 2.777567e+01 3.257122e+01 2.262651e+01 1.439156e+01 2.123765e+01 1.842240e+01 1.746683e+01 1.004091e+01 7.320973e+00 1.653239e+00 4.702989e-01 -4.417021e+00 -6.373093e+00 -1.284523e+01 -1.646014e+01 -2.135156e+01 -2.023023e+01 -1.755179e+01 -2.175013e+01 -3.590504e+01 -2.726121e+01 -8.873161e+00 7.552946e-01 1.238670e+01 -3.032590e+00 4.063746e+01 
-1.014789e+02 1.301002e+01 -1.733175e+02 1.382985e+01 -1.432602e+02 4.802378e+01 -3.191808e+02 -2.424735e+02 -1.101789e+01 1.735085e+02 2.859251e+02 2.180087e+02 1.689198e+02 1.308691e+02 8.050311e+01 4.417441e+01 2.216262e+01 -1.192643e+01 -2.195586e+01 -6.585553e+01 -6.983603e+01 -6.088541e+01 -5.050133e+01 2.332033e+02 8.260009e+01 3.517476e+02 6.646011e+01 1.296397e+02 8.610881e+01 -1.158011e+01 -9.329417e+01 2.185317e+01 5.161713e+01 1.616650e+01 8.585161e+00 -1.524587e+01 -2.988891e+00 1.288089e+01 3.150375e+01 2.888379e+01 2.073984e+01 1.580745e+01 2.367381e+01 2.183110e+01 2.197971e+01 1.434373e+01 1.065564e+01 3.662417e+00 1.255098e+00 -4.833351e+00 -8.160056e+00 -1.562793e+01 -1.944550e+01 -2.325749e+01 -2.094060e+01 -1.728952e+01 -1.825006e+01 -3.031328e+01 -2.907066e+01 -1.414847e+01 3.005446e+00 1.324367e+01 -2.066567e+01 -1.737689e+01 
-8.804172e+01 -5.846890e+01 8.311119e+01 1.130162e+02 2.111577e+02 2.419207e+02 1.028547e+02 2.749108e+02 1.416895e+02 2.433903e+02 1.647115e+02 1.550300e+02 1.088551e+02 7.286164e+01 4.681602e+01 2.009592e+01 1.103841e+01 -1.708134e+01 -2.110807e+01 -7.225075e+01 -5.649332e+01 -1.170268e+02 -6.879032e+00 -1.849069e+02 -2.657832e+02 -2.452673e+02 -3.827739e+01 -2.477968e+02 2.454791e+01 1.363974e+02 -7.763913e+01 7.291236e+01 4.500253e+01 2.208232e+01 -1.224298e+01 -1.084312e+01 -6.518178e+00 8.142147e+00 2.887784e+01 3.259706e+01 2.391908e+01 1.620144e+01 2.251323e+01 1.908338e+01 1.763715e+01 1.020217e+01 7.278866e+00 1.716502e+00 2.419386e-01 -4.475886e+00 -6.821681e+00 -1.302076e+01 -1.723435e+01 -2.209042e+01 -2.238555e+01 -1.953987e+01 -2.450622e+01 -3.625921e+01 -3.066790e+01 -1.299044e+01 1.116594e+00 2.958292e+00 -7.961399e+00 -4.038796e+01 