# vtk DataFile Version 2.0
Comment goes here
ASCII

DATASET STRUCTURED_POINTS
DIMENSIONS    64   64   1

ORIGIN    0.000   0.000   0.000
SPACING   0.031250.03125   1.000

POINT_DATA   4096
SCALARS uX double
LOOKUP_TABLE default

1.900347e-01 -7.173197e-01 -5.994777e-02 -9.210558e-01 -2.830596e-01 -1.048687e+00 -4.457202e-01 -1.075910e+00 -5.236429e-01 -9.916545e-01 -5.062853e-01 -7.999656e-01 -3.989943e-01 -5.194163e-01 -2.221083e-01 -1.803591e-01 -7.331268e-03 1.792676e-01 2.075931e-01 5.188744e-01 3.849394e-01 8.004148e-01 4.930540e-01 9.933384e-01 5.116664e-01 1.078821e+00 4.354938e-01 1.052562e+00 2.751144e-01 9.254181e-01 5.480048e-02 7.215668e-01 -1.919457e-01 4.745406e-01 -4.279129e-01 2.219177e-01 -6.176650e-01 -3.965206e-04 -7.323269e-01 -1.634238e-01 -7.533532e-01 -2.492521e-01 -6.750788e-01 -2.535919e-01 -5.057923e-01 -1.863862e-01 -2.670183e-01 -7.020861e-02 9.215937e-03 6.356596e-02 2.850212e-01 1.803671e-01 5.225296e-01 2.487529e-01 6.897787e-01 2.460202e-01 7.653535e-01 1.620464e-01 7.411175e-01 9.066027e-04 6.229253e-01 -2.197119e-01 4.295345e-01 -4.710373e-01 
-2.747344e-02 -9.062386e-01 -2.523983e-01 -1.079992e+00 -4.400037e-01 -1.172085e+00 -5.619585e-01 -1.162812e+00 -6.003494e-01 -1.045778e+00 -5.503168e-01 -8.285686e-01 -4.203042e-01 -5.309129e-01 -2.301545e-01 -1.814103e-01 -7.782888e-03 1.860816e-01 2.147728e-01 5.359263e-01 4.054902e-01 8.341530e-01 5.364935e-01 1.051960e+00 5.879885e-01 1.169370e+00 5.515692e-01 1.178568e+00 4.321027e-01 1.085790e+00 2.474637e-01 9.106911e-01 2.589122e-02 6.831205e-01 -1.985151e-01 4.381479e-01 -3.911917e-01 2.104667e-01 -5.224017e-01 2.911812e-02 -5.716790e-01 -8.681429e-02 -5.309562e-01 -1.310332e-01 -4.060213e-01 -1.109348e-01 -2.159927e-01 -4.625637e-02 9.357602e-03 3.458196e-02 2.342849e-01 9.999212e-02 4.230653e-01 1.215008e-01 5.459899e-01 7.926572e-02 5.840450e-01 -3.426266e-02 5.315872e-01 -2.129826e-01 3.968603e-01 -4.380357e-01 2.005278e-01 -6.806148e-01 
2.157397e-01 -7.178815e-01 -5.598184e-02 -9.430314e-01 -2.997925e-01 -1.087506e+00 -4.786656e-01 -1.124113e+00 -5.654669e-01 -1.040520e+00 -5.482318e-01 -8.414087e-01 -4.327425e-01 -5.473308e-01 -2.413554e-01 -1.910868e-01 -8.698025e-03 1.869825e-01 2.242168e-01 5.439479e-01 4.163827e-01 8.393466e-01 5.331859e-01 1.040151e+00 5.522788e-01 1.125516e+00 4.678683e-01 1.090457e+00 2.918782e-01 9.470479e-01 5.136713e-02 7.223226e-01 -2.167514e-01 4.534680e-01 -4.720028e-01 1.816206e-01 -6.762997e-01 -5.445571e-02 -7.988901e-01 -2.238868e-01 -8.201481e-01 -3.078848e-01 -7.341530e-01 -3.023145e-01 -5.498437e-01 -2.183194e-01 -2.903690e-01 -8.068720e-02 9.709624e-03 7.619178e-02 3.093762e-01 2.144051e-01 5.676329e-01 2.994920e-01 7.499728e-01 3.065304e-01 8.333385e-01 2.241895e-01 8.089177e-01 5.638313e-02 6.827872e-01 -1.783320e-01 4.747495e-01 -4.492907e-01 
-8.003705e-03 -9.463784e-01 -2.553530e-01 -1.145620e+00 -4.616094e-01 -1.254041e+00 -5.960387e-01 -1.249335e+00 -6.394224e-01 -1.125046e+00 -5.868805e-01 -8.909841e-01 -4.479763e-01 -5.701056e-01 -2.444323e-01 -1.939767e-01 -6.361451e-03 2.011911e-01 2.318992e-01 5.776246e-01 4.360103e-01 8.989766e-01 5.758514e-01 1.133441e+00 6.296872e-01 1.257781e+00 5.879408e-01 1.261941e+00 4.554807e-01 1.152247e+00 2.515100e-01 9.510107e-01 6.726757e-03 6.924795e-01 -2.415311e-01 4.167507e-01 -4.551124e-01 1.632989e-01 -6.007867e-01 -3.487784e-02 -6.551736e-01 -1.560176e-01 -6.084250e-01 -1.928689e-01 -4.662311e-01 -1.539687e-01 -2.496586e-01 -6.239087e-02 7.574077e-03 4.831018e-02 2.644434e-01 1.406636e-01 4.799491e-01 1.810698e-01 6.204416e-01 1.463653e-01 6.649653e-01 2.787933e-02 6.079743e-01 -1.673139e-01 4.594803e-01 -4.176694e-01 2.430287e-01 -6.904333e-01 
2.541424e-01 -7.616314e-01 -8.000130e-02 -1.045404e+00 -3.815852e-01 -1.233895e+00 -6.037952e-01 -1.292198e+00 -7.113738e-01 -1.204586e+00 -6.884028e-01 -9.775408e-01 -5.423213e-01 -6.372200e-01 -3.018212e-01 -2.235699e-01 -1.032124e-02 2.157367e-01 2.815397e-01 6.304011e-01 5.231220e-01 9.725973e-01 6.709978e-01 1.202086e+00 6.964394e-01 1.292320e+00 5.919324e-01 1.236403e+00 3.732833e-01 1.049718e+00 7.561522e-02 7.669581e-01 -2.544091e-01 4.351773e-01 -5.670522e-01 1.053957e-01 -8.166080e-01 -1.752561e-01 -9.666762e-01 -3.698250e-01 -9.940116e-01 -4.560922e-01 -8.913238e-01 -4.294523e-01 -6.688690e-01 -3.038804e-01 -3.542124e-01 -1.104109e-01 1.061432e-02 1.074756e-01 3.750282e-01 3.015542e-01 6.884606e-01 4.282651e-01 9.089237e-01 4.564224e-01 1.008927e+00 3.718386e-01 9.783205e-01 1.788646e-01 8.245262e-01 -1.005496e-01 5.709440e-01 -4.296980e-01 
7.587943e-03 -1.043141e+00 -2.994702e-01 -1.301778e+00 -5.550666e-01 -1.448645e+00 -7.212290e-01 -1.454880e+00 -7.745637e-01 -1.313558e+00 -7.100003e-01 -1.039820e+00 -5.404695e-01 -6.643145e-01 -2.933466e-01 -2.255057e-01 -5.133526e-03 2.349591e-01 2.832773e-01 6.741705e-01 5.309749e-01 1.050291e+00 7.014023e-01 1.324520e+00 7.671065e-01 1.465809e+00 7.150880e-01 1.458692e+00 5.503936e-01 1.309956e+00 2.964399e-01 1.048544e+00 -8.766169e-03 7.191156e-01 -3.188746e-01 3.732160e-01 -5.864734e-01 6.095485e-02 -7.699495e-01 -1.759109e-01 -8.393296e-01 -3.096099e-01 -7.809600e-01 -3.306106e-01 -6.005655e-01 -2.498176e-01 -3.238594e-01 -9.770328e-02 6.155472e-03 8.044209e-02 3.358436e-01 2.334205e-01 6.115951e-01 3.159036e-01 7.904860e-01 2.973452e-01 8.469288e-01 1.667264e-01 7.753575e-01 -6.658450e-02 5.895940e-01 -3.750366e-01 3.197634e-01 -7.171517e-01 
3.098046e-01 -8.532769e-01 -1.368032e-01 -1.242767e+00 -5.430710e-01 -1.510122e+00 -8.438336e-01 -1.605756e+00 -9.879400e-01 -1.507584e+00 -9.516217e-01 -1.226486e+00 -7.461836e-01 -8.001152e-01 -4.131882e-01 -2.815906e-01 -1.230225e-02 2.690252e-01 3.890480e-01 7.890079e-01 7.234360e-01 1.218098e+00 9.311811e-01 1.502778e+00 9.706555e-01 1.604831e+00 8.304117e-01 1.512768e+00 5.340240e-01 1.248177e+00 1.324418e-01 8.603541e-01 -3.093632e-01 4.146482e-01 -7.251775e-01 -2.016530e-02 -1.056361e+00 -3.823058e-01 -1.257049e+00 -6.241970e-01 -1.297648e+00 -7.173165e-01 -1.167966e+00 -6.556182e-01 -8.798400e-01 -4.574137e-01 -4.680786e-01 -1.645848e-01 1.192959e-02 1.625904e-01 4.915104e-01 4.561363e-01 9.019988e-01 6.556800e-01 1.188038e+00 7.191594e-01 1.314878e+00 6.280067e-01 1.270768e+00 3.879534e-01 1.066014e+00 2.717693e-02 7.303505e-01 -4.070755e-01 
1.777324e-02 -1.207111e+00 -3.951315e-01 -1.569191e+00 -7.379983e-01 -1.783049e+00 -9.594179e-01 -1.807015e+00 -1.027957e+00 -1.633627e+00 -9.385283e-01 -1.289830e+00 -7.109399e-01 -8.215137e-01 -3.835743e-01 -2.785952e-01 -4.109304e-03 2.898837e-01 3.755802e-01 8.334925e-01 7.035829e-01 1.302906e+00 9.321063e-01 1.647680e+00 1.022594e+00 1.821277e+00 9.550776e-01 1.796228e+00 7.346063e-01 1.579825e+00 3.927069e-01 1.213947e+00 -1.906434e-02 7.623499e-01 -4.381755e-01 2.962563e-01 -8.012138e-01 -1.166584e-01 -1.052402e+00 -4.201590e-01 -1.150490e+00 -5.761120e-01 -1.074926e+00 -5.704421e-01 -8.308157e-01 -4.172503e-01 -4.511737e-01 -1.591528e-01 5.067278e-03 1.378508e-01 4.609920e-01 3.969372e-01 8.397121e-01 5.520753e-01 1.082390e+00 5.605950e-01 1.156166e+00 4.083100e-01 1.056129e+00 1.091553e-01 8.030341e-01 -2.989584e-01 4.382940e-01 -7.601259e-01 
3.914066e-01 -1.001249e+00 -2.344032e-01 -1.561884e+00 -8.107642e-01 -1.957573e+00 -1.241126e+00 -2.112389e+00 -1.445104e+00 -1.992607e+00 -1.383738e+00 -1.619863e+00 -1.077266e+00 -1.054593e+00 -5.922295e-01 -3.714944e-01 -1.474112e-02 3.527595e-01 5.633138e-01 1.037953e+00 1.050062e+00 1.607176e+00 1.359414e+00 1.985198e+00 1.424758e+00 2.110728e+00 1.225625e+00 1.961162e+00 8.006558e-01 1.569492e+00 2.299493e-01 1.011258e+00 -3.901809e-01 3.828409e-01 -9.679713e-01 -2.187627e-01 -1.426577e+00 -7.099322e-01 -1.707270e+00 -1.027643e+00 -1.771125e+00 -1.133654e+00 -1.602534e+00 -1.018581e+00 -1.214003e+00 -7.058160e-01 -6.499377e-01 -2.532151e-01 1.366810e-02 2.514286e-01 6.768240e-01 7.049495e-01 1.239538e+00 1.019437e+00 1.625832e+00 1.136813e+00 1.791340e+00 1.033372e+00 1.723625e+00 7.180925e-01 1.438388e+00 2.287483e-01 9.746849e-01 -3.721091e-01 
1.981061e-02 -1.455760e+00 -5.609758e-01 -1.983907e+00 -1.042504e+00 -2.305838e+00 -1.350972e+00 -2.354790e+00 -1.440218e+00 -2.122698e+00 -1.306203e+00 -1.663531e+00 -9.819596e-01 -1.052979e+00 -5.263279e-01 -3.571551e-01 -3.318355e-03 3.695847e-01 5.199788e-01 1.066670e+00 9.764228e-01 1.679328e+00 1.301812e+00 2.140606e+00 1.436967e+00 2.373677e+00 1.348498e+00 2.323612e+00 1.040374e+00 1.998252e+00 5.589963e-01 1.464840e+00 -2.148473e-02 8.203451e-01 -6.125313e-01 1.664943e-01 -1.126470e+00 -4.035237e-01 -1.486551e+00 -8.121309e-01 -1.634029e+00 -1.004692e+00 -1.536427e+00 -9.583913e-01 -1.195926e+00 -6.901337e-01 -6.547536e-01 -2.597457e-01 4.302812e-03 2.334210e-01 6.630251e-01 6.649516e-01 1.203212e+00 9.354611e-01 1.542194e+00 9.850999e-01 1.637948e+00 7.969317e-01 1.488561e+00 3.936827e-01 1.126788e+00 -1.702119e-01 6.115915e-01 -8.175532e-01 
5.155034e-01 -1.217000e+00 -3.822950e-01 -2.045347e+00 -1.225964e+00 -2.645121e+00 -1.866070e+00 -2.892254e+00 -2.167744e+00 -2.728802e+00 -2.060163e+00 -2.204151e+00 -1.586029e+00 -1.425897e+00 -8.632606e-01 -5.021958e-01 -1.773482e-02 4.752335e-01 8.284444e-01 1.401900e+00 1.553216e+00 2.185859e+00 2.030860e+00 2.718321e+00 2.143458e+00 2.890352e+00 1.847928e+00 2.650885e+00 1.214522e+00 2.056784e+00 3.777246e-01 1.231636e+00 -5.132899e-01 3.234442e-01 -1.330216e+00 -5.285099e-01 -1.974749e+00 -1.211657e+00 -2.373892e+00 -1.643396e+00 -2.476179e+00 -1.771684e+00 -2.256020e+00 -1.579876e+00 -1.722852e+00 -1.094655e+00 -9.308393e-01 -3.941997e-01 1.584949e-02 3.916746e-01 9.620690e-01 1.093373e+00 1.752641e+00 1.580920e+00 2.283389e+00 1.775875e+00 2.500164e+00 1.651171e+00 2.393575e+00 1.222934e+00 1.989288e+00 5.425572e-01 1.338876e+00 -3.080674e-01 
9.728606e-03 -1.814141e+00 -8.264111e-01 -2.603141e+00 -1.520480e+00 -3.098785e+00 -1.963116e+00 -3.180431e+00 -2.078082e+00 -2.836538e+00 -1.866234e+00 -2.187629e+00 -1.385732e+00 -1.369612e+00 -7.371911e-01 -4.666086e-01 -2.827260e-03 4.789108e-01 7.319388e-01 1.384162e+00 1.381652e+00 2.206136e+00 1.863841e+00 2.859426e+00 2.077267e+00 3.206036e+00 1.962925e+00 3.123471e+00 1.519811e+00 2.623034e+00 8.247341e-01 1.826483e+00 -1.220347e-02 8.883208e-01 -8.619331e-01 -4.635549e-02 -1.603041e+00 -8.515811e-01 -2.130771e+00 -1.420595e+00 -2.360407e+00 -1.673008e+00 -2.239001e+00 -1.569386e+00 -1.760483e+00 -1.126273e+00 -9.755922e-01 -4.237113e-01 3.887362e-03 3.912336e-01 9.829938e-01 1.095119e+00 1.766718e+00 1.540804e+00 2.243417e+00 1.648277e+00 2.362641e+00 1.401064e+00 2.130855e+00 8.386185e-01 1.601426e+00 4.121888e-02 8.594173e-01 -8.847536e-01 
7.145673e-01 -1.511671e+00 -5.857082e-01 -2.756320e+00 -1.848053e+00 -3.684047e+00 -2.832297e+00 -4.079798e+00 -3.299162e+00 -3.822225e+00 -3.100411e+00 -3.038749e+00 -2.341104e+00 -1.941008e+00 -1.256198e+00 -6.860191e-01 -2.136155e-02 6.479281e-01 1.214166e+00 1.906972e+00 2.301207e+00 3.012787e+00 3.064631e+00 3.807912e+00 3.269790e+00 4.078551e+00 2.810924e+00 3.693976e+00 1.835085e+00 2.774080e+00 5.811150e-01 1.533425e+00 -7.110033e-01 2.060841e-01 -1.865840e+00 -1.008488e+00 -2.768582e+00 -1.965990e+00 -3.336516e+00 -2.563727e+00 -3.501918e+00 -2.730904e+00 -3.220414e+00 -2.435747e+00 -2.488845e+00 -1.700098e+00 -1.365344e+00 -6.215586e-01 1.848855e-02 6.170078e-01 1.401869e+00 1.697277e+00 2.523861e+00 2.436121e+00 3.252816e+00 2.735656e+00 3.530597e+00 2.573610e+00 3.360389e+00 1.981109e+00 2.786609e+00 1.028050e+00 1.877044e+00 -1.839622e-01 
-1.650841e-02 -2.312480e+00 -1.234770e+00 -3.512403e+00 -2.251215e+00 -4.300195e+00 -2.906856e+00 -4.425331e+00 -3.049425e+00 -3.851780e+00 -2.699441e+00 -2.880214e+00 -1.959305e+00 -1.772229e+00 -1.035012e+00 -6.185953e-01 -2.756596e-03 6.285084e-01 1.030065e+00 1.785912e+00 1.956127e+00 2.900986e+00 2.699080e+00 3.881294e+00 3.051905e+00 4.461286e+00 2.910011e+00 4.335671e+00 2.252555e+00 3.540601e+00 1.233219e+00 2.329291e+00 1.249899e-02 9.544168e-01 -1.215506e+00 -3.870283e-01 -2.287966e+00 -1.535520e+00 -3.068490e+00 -2.346656e+00 -3.433902e+00 -2.698836e+00 -3.295212e+00 -2.521418e+00 -2.628947e+00 -1.824165e+00 -1.489727e+00 -7.018029e-01 3.876877e-03 6.618695e-01 1.497097e+00 1.785797e+00 2.634824e+00 2.485897e+00 3.298671e+00 2.667596e+00 3.434440e+00 2.321393e+00 3.066202e+00 1.518141e+00 2.283621e+00 3.795592e-01 1.210479e+00 -9.501732e-01 
1.054271e+00 -1.885054e+00 -8.287209e-01 -3.782120e+00 -2.755999e+00 -5.252994e+00 -4.323172e+00 -5.913217e+00 -5.092584e+00 -5.431556e+00 -4.692224e+00 -4.180343e+00 -3.415477e+00 -2.610837e+00 -1.797111e+00 -9.465173e-01 -2.564213e-02 8.933469e-01 1.746469e+00 2.562848e+00 3.366572e+00 4.143238e+00 4.647712e+00 5.412022e+00 5.056493e+00 5.914462e+00 4.298095e+00 5.270420e+00 2.741491e+00 3.810081e+00 8.243415e-01 1.917616e+00 -1.048783e+00 -2.797829e-02 -2.656483e+00 -1.748196e+00 -3.897976e+00 -3.082204e+00 -4.699897e+00 -3.916658e+00 -4.970985e+00 -4.154255e+00 -4.630465e+00 -3.733597e+00 -3.643175e+00 -2.650923e+00 -2.056590e+00 -1.011107e+00 2.156164e-02 1.002729e+00 2.099446e+00 2.645041e+00 3.684516e+00 3.732059e+00 4.669016e+00 4.158754e+00 5.005454e+00 3.928503e+00 4.729026e+00 3.101941e+00 3.920511e+00 1.775175e+00 2.671104e+00 5.982238e-02 
-5.788884e-02 -2.972804e+00 -1.847188e+00 -4.826570e+00 -3.347335e+00 -6.152782e+00 -4.374873e+00 -6.354836e+00 -4.535376e+00 -5.260622e+00 -3.932648e+00 -3.711280e+00 -2.715421e+00 -2.221179e+00 -1.434076e+00 -8.554906e-01 -3.287841e-03 8.592474e-01 1.428282e+00 2.230677e+00 2.712076e+00 3.732608e+00 3.934134e+00 5.299027e+00 4.543059e+00 6.408041e+00 4.383795e+00 6.205875e+00 3.351844e+00 4.867169e+00 1.845429e+00 2.995229e+00 5.095671e-02 9.915178e-01 -1.714566e+00 -9.168381e-01 -3.254715e+00 -2.556213e+00 -4.413011e+00 -3.733822e+00 -5.004963e+00 -4.256513e+00 -4.872238e+00 -3.993860e+00 -3.963773e+00 -2.947598e+00 -2.347130e+00 -1.219649e+00 4.337049e-03 1.170766e+00 2.355671e+00 2.900744e+00 3.970292e+00 3.949932e+00 4.875301e+00 4.217027e+00 5.003737e+00 3.700858e+00 4.407583e+00 2.532316e+00 3.246249e+00 9.051634e-01 1.705331e+00 -9.875082e-01 
1.670758e+00 -2.293831e+00 -1.025961e+00 -5.229651e+00 -4.043604e+00 -7.631015e+00 -6.634444e+00 -8.863980e+00 -8.037224e+00 -7.780875e+00 -7.131528e+00 -5.622117e+00 -4.809652e+00 -3.361261e+00 -2.467022e+00 -1.357851e+00 -3.043154e-02 1.284742e+00 2.406878e+00 3.293833e+00 4.749232e+00 5.567457e+00 7.074356e+00 7.753066e+00 7.991738e+00 8.872116e+00 6.605967e+00 7.661546e+00 4.027893e+00 5.273806e+00 1.022107e+00 2.342626e+00 -1.662489e+00 -4.958970e-01 -3.820747e+00 -2.878279e+00 -5.468350e+00 -4.701439e+00 -6.590060e+00 -5.870237e+00 -7.044394e+00 -6.238438e+00 -6.677662e+00 -5.692620e+00 -5.384818e+00 -4.151307e+00 -3.203363e+00 -1.769199e+00 2.495186e-02 1.754563e+00 3.253949e+00 4.140489e+00 5.433789e+00 5.687355e+00 6.723664e+00 6.241293e+00 7.085932e+00 5.883426e+00 6.625744e+00 4.726407e+00 5.496771e+00 2.915061e+00 3.840104e+00 5.416815e-01 
-8.955566e-02 -3.765829e+00 -2.754183e+00 -6.649475e+00 -4.934909e+00 -9.104105e+00 -6.738228e+00 -9.541376e+00 -6.873956e+00 -7.124607e+00 -5.799916e+00 -4.499565e+00 -3.542658e+00 -2.665241e+00 -2.189412e+00 -1.566217e+00 -4.605613e-03 1.558179e+00 2.181019e+00 2.664100e+00 3.536700e+00 4.515974e+00 5.801526e+00 7.174156e+00 6.890926e+00 9.626677e+00 6.758503e+00 9.187322e+00 4.944807e+00 6.708112e+00 2.751427e+00 3.794030e+00 7.696811e-02 9.461782e-01 -2.415757e+00 -1.706639e+00 -4.583080e+00 -4.037334e+00 -6.309019e+00 -5.781228e+00 -7.290716e+00 -6.600993e+00 -7.210115e+00 -6.245601e+00 -6.013421e+00 -4.880209e+00 -4.122132e+00 -2.547436e+00 5.388210e-03 2.487677e+00 4.133396e+00 4.823464e+00 6.022062e+00 6.191587e+00 7.213670e+00 6.551144e+00 7.287677e+00 5.737900e+00 6.299276e+00 4.003614e+00 4.568153e+00 1.687165e+00 2.399219e+00 -9.452263e-01 
2.848130e+00 -2.565210e+00 -8.753474e-01 -7.200671e+00 -5.813991e+00 -1.119213e+01 -1.022455e+01 -1.402802e+01 -1.320049e+01 -1.109832e+01 -1.089763e+01 -7.156532e+00 -6.414369e+00 -4.628223e+00 -4.245312e+00 -2.626388e+00 -3.522087e-02 2.526828e+00 4.172244e+00 4.530657e+00 6.337819e+00 7.070770e+00 1.081952e+01 1.105410e+01 1.313998e+01 1.405560e+01 1.019668e+01 1.124447e+01 5.797637e+00 7.269945e+00 8.718364e-01 2.637984e+00 -2.835795e+00 -1.433661e+00 -5.510668e+00 -4.571085e+00 -7.566145e+00 -6.981152e+00 -9.139118e+00 -8.636260e+00 -9.924006e+00 -9.231940e+00 -9.620207e+00 -8.670077e+00 -8.255321e+00 -7.258513e+00 -6.267348e+00 -3.732934e+00 2.777914e-02 3.705953e+00 6.323712e+00 7.238244e+00 8.312592e+00 8.658214e+00 9.675055e+00 9.230914e+00 9.974052e+00 8.649212e+00 9.182834e+00 7.011245e+00 7.602301e+00 4.620442e+00 5.536906e+00 1.499417e+00 
1.273443e-02 -4.514909e+00 -4.150664e+00 -8.837559e+00 -6.997879e+00 -1.400619e+01 -1.079347e+01 -1.544534e+01 -1.091321e+01 -9.261526e+00 -8.931910e+00 -4.742567e+00 -3.851996e+00 -2.693044e+00 -2.252129e+00 -1.097001e+00 -5.338549e-03 1.071530e+00 2.239848e+00 2.671432e+00 3.838358e+00 4.738013e+00 8.925155e+00 9.320205e+00 1.094786e+01 1.560060e+01 1.083916e+01 1.414275e+01 7.017195e+00 8.919959e+00 4.145179e+00 4.545661e+00 -3.644221e-02 7.419641e-01 -3.390005e+00 -2.799549e+00 -6.314494e+00 -6.102415e+00 -8.927784e+00 -8.782362e+00 -1.062597e+01 -1.010776e+01 -1.065313e+01 -9.613123e+00 -9.167144e+00 -7.884903e+00 -6.220571e+00 -3.066320e+00 8.849804e-03 2.995789e+00 6.237065e+00 7.817818e+00 9.180195e+00 9.547500e+00 1.065842e+01 1.004542e+01 1.062135e+01 8.725337e+00 8.912143e+00 6.053931e+00 6.289285e+00 2.765864e+00 3.360470e+00 -7.509396e-01 
5.141263e+00 -2.167891e+00 6.749827e-01 -9.765934e+00 -8.315042e+00 -1.613013e+01 -1.572773e+01 -2.445447e+01 -2.349452e+01 -1.538892e+01 -1.720733e+01 -7.841122e+00 -5.970902e+00 -3.002090e+00 -9.595685e-01 1.218944e-01 -3.195831e-02 -2.386556e-01 8.865648e-01 2.872434e+00 5.878470e+00 7.698454e+00 1.709041e+01 1.530462e+01 2.340220e+01 2.454234e+01 1.572138e+01 1.621218e+01 8.295192e+00 9.872113e+00 -6.816084e-01 2.274732e+00 -5.122514e+00 -3.293615e+00 -7.834261e+00 -6.982912e+00 -1.014811e+01 -1.003935e+01 -1.248383e+01 -1.255496e+01 -1.391139e+01 -1.351573e+01 -1.385814e+01 -1.299778e+01 -1.180144e+01 -9.593657e+00 -6.076610e+00 -2.462958e+00 3.762556e-02 2.432149e+00 6.149624e+00 9.566370e+00 1.187186e+01 1.297721e+01 1.392378e+01 1.350771e+01 1.397170e+01 1.256422e+01 1.253696e+01 1.007243e+01 1.019430e+01 7.047457e+00 7.871276e+00 3.388388e+00 
8.216129e-01 -4.876635e+00 -6.699730e+00 -9.879106e+00 -8.719758e+00 -2.211822e+01 -1.774277e+01 -2.838562e+01 -2.147345e+01 -1.213694e+01 -1.758078e+01 -5.375788e+00 -2.345850e+00 -2.457633e-01 2.304417e+00 1.626580e+00 -6.977406e-04 -1.666307e+00 -2.318825e+00 1.886253e-01 2.314387e+00 5.303328e+00 1.753559e+01 1.217925e+01 2.153438e+01 2.873305e+01 1.785554e+01 2.234754e+01 8.754910e+00 9.984353e+00 6.690813e+00 4.899492e+00 -8.674339e-01 3.338293e-01 -4.695086e+00 -4.101836e+00 -8.299447e+00 -8.801040e+00 -1.249848e+01 -1.342732e+01 -1.599411e+01 -1.643254e+01 -1.715088e+01 -1.637901e+01 -1.460250e+01 -1.149726e+01 -6.703656e+00 -2.952532e+00 1.538764e-02 2.873515e+00 6.731188e+00 1.141705e+01 1.462430e+01 1.630053e+01 1.716146e+01 1.635589e+01 1.598982e+01 1.335287e+01 1.247521e+01 8.730858e+00 8.257943e+00 4.043683e+00 4.641816e+00 -3.669995e-01 
9.218836e+00 2.100307e-02 6.884961e+00 -1.441101e+01 -1.343855e+01 -2.309080e+01 -2.763106e+01 -4.993366e+01 -5.117517e+01 -2.483723e+01 -3.498011e+01 -1.147817e+01 -3.932019e+00 -2.135335e+00 2.750800e+00 8.470553e-01 -2.735373e-02 -9.808491e-01 -2.824518e+00 1.966996e+00 3.825532e+00 1.121709e+01 3.478881e+01 2.465809e+01 5.095760e+01 5.019103e+01 2.775674e+01 2.318446e+01 1.339164e+01 1.454306e+01 -6.918297e+00 1.296663e-01 -9.186469e+00 -6.757418e+00 -1.049012e+01 -9.985879e+00 -1.276632e+01 -1.386745e+01 -1.711702e+01 -1.910526e+01 -2.142133e+01 -2.359511e+01 -2.537595e+01 -2.561398e+01 -2.177006e+01 -1.693279e+01 -1.038003e+01 -5.275493e+00 3.959523e-02 5.223314e+00 1.046221e+01 1.688646e+01 2.185380e+01 2.557865e+01 2.545626e+01 2.357541e+01 2.149682e+01 1.910499e+01 1.718051e+01 1.389688e+01 1.282454e+01 1.006600e+01 1.054541e+01 6.896862e+00 
5.096920e+00 -4.246414e+00 -5.816744e+00 5.834760e+00 -7.820166e+00 -2.461388e+01 -7.821011e+00 -5.817163e+01 -5.173555e+01 -2.728877e+01 -4.087612e+01 -8.487082e+00 5.473881e+00 2.703548e+00 5.664033e+00 1.550283e+00 7.001384e-03 -1.601332e+00 -5.681075e+00 -2.792699e+00 -5.540988e+00 8.249979e+00 4.073030e+01 2.725317e+01 5.170179e+01 5.920496e+01 8.192300e+00 2.486366e+01 7.830769e+00 -5.660005e+00 5.825780e+00 4.238842e+00 -5.191947e+00 -5.280645e-01 -6.216278e+00 -5.131514e+00 -9.755617e+00 -1.186156e+01 -1.783850e+01 -2.336760e+01 -3.096618e+01 -3.545452e+01 -3.416688e+01 -2.806677e+01 -1.987690e+01 -1.369341e+01 -8.164393e+00 -4.138434e+00 1.912050e-02 4.045087e+00 8.199052e+00 1.359678e+01 1.991020e+01 2.797464e+01 3.418735e+01 3.536175e+01 3.096513e+01 2.327157e+01 1.780535e+01 1.176036e+01 9.689287e+00 5.035529e+00 6.118339e+00 4.466922e-01 
1.332544e+01 2.720416e+00 -2.256154e+00 -6.160555e+01 -2.224517e+01 -4.472637e+01 -5.254962e+01 -7.933447e+01 -6.096426e+01 -4.815496e+01 -2.530100e+01 -6.925385e+00 1.978016e+01 2.464992e+00 4.458016e+00 2.385038e-01 -4.035668e-03 -3.639690e-01 -4.530248e+00 -2.643303e+00 -1.993540e+01 6.576728e+00 2.530591e+01 4.806796e+01 6.048282e+01 7.930905e+01 5.232042e+01 4.466469e+01 2.221682e+01 6.168135e+01 2.159937e+00 -2.386928e+00 -1.323199e+01 -1.280407e+01 -1.173915e+01 -1.234166e+01 -1.406269e+01 -1.833941e+01 -2.632522e+01 -3.466308e+01 -3.743950e+01 -3.241699e+01 -1.972787e+01 -7.318278e+00 9.529725e-01 4.857180e+00 4.715691e+00 2.820866e+00 4.335978e-02 -2.891813e+00 -4.641557e+00 -4.938818e+00 -8.761304e-01 7.253901e+00 1.981635e+01 3.237043e+01 3.752431e+01 3.464209e+01 2.639610e+01 1.835285e+01 1.413262e+01 1.242791e+01 1.182304e+01 1.302325e+01 
2.041123e+01 7.443065e+00 -3.576535e+00 2.706497e+01 -5.500569e+01 4.065806e+00 4.323249e+01 5.956649e+01 7.261268e+01 -4.198566e-01 2.134752e+01 -2.940576e+01 -1.835760e+01 -1.695849e+01 -1.869377e+01 -7.346616e+00 4.334300e-02 7.295425e+00 1.873101e+01 1.689889e+01 1.822175e+01 2.933098e+01 -2.155621e+01 -6.356587e-02 -7.232664e+01 -5.808197e+01 -4.148395e+01 -5.239222e+00 5.485761e+01 -2.729057e+01 3.310085e+00 -7.713640e+00 -2.062713e+01 -4.934448e+00 -6.581740e+00 -4.396149e+00 -9.484954e+00 -1.629964e+01 -2.699346e+01 -2.717505e+01 -1.524205e+01 2.887422e+00 1.716515e+01 2.434668e+01 2.420321e+01 2.155540e+01 1.494038e+01 7.781944e+00 1.989136e-02 -7.890704e+00 -1.490865e+01 -2.167390e+01 -2.418140e+01 -2.446217e+01 -1.713432e+01 -3.001555e+00 1.525348e+01 2.705463e+01 2.694651e+01 1.616077e+01 9.387152e+00 4.252999e+00 6.410482e+00 4.798558e+00 
3.293025e+01 3.938441e+01 6.101104e+01 5.311337e+01 5.005374e+00 3.050651e+01 3.667696e+01 1.888382e+02 2.069787e+02 1.120029e+02 8.687247e+01 -5.035893e+00 -3.657166e+01 -1.159431e+01 -1.631638e+01 -4.624005e+00 2.148277e-02 4.477225e+00 1.638888e+01 1.148424e+01 3.659657e+01 5.272812e+00 -8.693610e+01 -1.123349e+02 -2.070358e+02 -1.890424e+02 -3.693538e+01 -3.083571e+01 -4.683322e+00 -5.174623e+01 -6.127037e+01 -3.857104e+01 -3.281426e+01 -2.545616e+01 -8.464186e+00 -7.445113e+00 -8.079341e+00 -1.133006e+01 -1.686077e+01 -4.028818e+00 1.654352e+01 3.127603e+01 3.575341e+01 3.314802e+01 2.876870e+01 2.157828e+01 1.424013e+01 6.851853e+00 3.778355e-02 -6.958751e+00 -1.415763e+01 -2.167624e+01 -2.868600e+01 -3.324507e+01 -3.566255e+01 -3.136281e+01 -1.644295e+01 3.954358e+00 1.692197e+01 1.127573e+01 8.130534e+00 7.475831e+00 8.528374e+00 2.569143e+01 
3.777570e+01 1.376720e+01 1.249735e+02 -4.338248e+01 2.321892e+01 -9.577461e+01 -9.961341e+00 -1.587178e+01 -3.045068e+01 3.347101e+01 1.073145e+01 1.999359e+01 -8.031153e+00 7.308942e+00 3.647372e+00 3.863119e+00 6.489132e-02 -3.953825e+00 -3.446779e+00 -7.312676e+00 8.452639e+00 -1.960066e+01 -9.977463e+00 -3.230797e+01 3.003270e+01 1.432681e+01 9.662216e+00 9.726449e+01 -2.635380e+01 4.121453e+01 -1.262770e+02 -1.310798e+01 -3.842453e+01 -7.172026e+00 8.146998e-01 8.986250e+00 5.500405e+00 1.330199e+00 2.822576e+00 2.514731e+01 3.831152e+01 3.742513e+01 2.886721e+01 1.967712e+01 1.623612e+01 1.122510e+01 7.587018e+00 3.640911e+00 2.568383e-02 -3.772635e+00 -7.531070e+00 -1.135218e+01 -1.618435e+01 -1.981609e+01 -2.884005e+01 -3.758012e+01 -3.830153e+01 -2.531269e+01 -2.860267e+00 -1.521547e+00 -5.622487e+00 -9.161364e+00 -9.945577e-01 7.095940e+00 
5.831609e+01 8.823806e+01 1.423907e+02 1.587737e+02 1.563433e+02 -3.551244e+01 4.234806e+01 -4.268952e+01 3.555907e+01 1.276142e+01 1.890983e+01 2.886913e+01 2.978733e+01 1.259662e+01 1.043882e+01 4.062011e+00 7.259627e-02 -4.175443e+00 -1.027831e+01 -1.267660e+01 -2.957624e+01 -2.910889e+01 -1.883137e+01 -1.341781e+01 -3.586647e+01 4.131347e+01 -3.935580e+01 3.411813e+01 -1.614441e+02 -1.585385e+02 -1.423466e+02 -8.833615e+01 -5.879495e+01 -2.444232e+00 -3.982853e+00 2.107509e+01 2.402241e+01 1.259555e+01 2.845015e+01 3.821420e+01 3.632695e+01 2.339217e+01 1.152494e+01 5.880452e+00 4.920898e+00 3.551558e+00 3.076879e+00 1.532684e+00 4.941092e-02 -1.660130e+00 -2.974321e+00 -3.679078e+00 -4.817540e+00 -6.015526e+00 -1.143290e+01 -2.353544e+01 -3.623246e+01 -3.834396e+01 -2.833115e+01 -1.274443e+01 -2.396200e+01 -2.113379e+01 3.991580e+00 2.439649e+00 
-4.617336e+00 2.455316e+01 9.113576e+01 -2.971341e+01 1.614705e+02 1.278014e+02 6.160212e+01 1.313335e+02 1.506272e+02 6.937203e+01 3.930048e+01 4.396096e+01 2.614558e+01 1.753024e+01 9.641138e+00 4.673349e+00 9.245800e-02 -4.797365e+00 -9.433809e+00 -1.765501e+01 -2.586756e+01 -4.424754e+01 -3.886713e+01 -7.027124e+01 -1.497581e+02 -1.312664e+02 -6.460809e+01 -1.313061e+02 -1.575727e+02 3.704085e+01 -8.913745e+01 -2.411991e+01 4.764860e+00 3.873004e+01 8.666430e-01 2.310649e+01 1.296514e+01 1.728372e+01 4.321304e+01 3.851147e+01 2.711183e+01 1.624772e+01 1.075113e+01 6.867502e+00 5.247845e+00 3.649049e+00 3.277046e+00 1.464325e+00 4.130818e-02 -1.597351e+00 -3.193817e+00 -3.784639e+00 -5.167712e+00 -7.014200e+00 -1.068154e+01 -1.640564e+01 -2.705334e+01 -3.867609e+01 -4.314678e+01 -1.747971e+01 -1.300823e+01 -2.326366e+01 -1.062837e+00 -3.883557e+01 
-5.405965e+01 -8.556695e+01 -6.365135e+01 -1.351510e+02 -3.741246e+01 1.880716e+02 1.193554e+02 5.071875e+01 -8.492080e+01 -6.464192e+00 -2.396928e+01 1.240988e+01 2.604185e+00 1.016191e+01 5.228218e+00 3.529222e+00 1.170894e-01 -3.651129e+00 -4.993942e+00 -1.025926e+01 -2.379134e+00 -1.238195e+01 2.419553e+01 7.551937e+00 8.649955e+01 -4.816632e+01 -1.237512e+02 -1.908499e+02 3.732734e+01 1.321290e+02 6.299292e+01 8.538349e+01 5.544971e+01 4.206135e+01 3.065348e+01 3.019257e+01 2.220689e+01 3.635168e+01 4.677229e+01 3.734107e+01 3.115158e+01 2.507298e+01 2.364831e+01 1.685536e+01 1.184103e+01 7.764558e+00 5.467797e+00 2.442594e+00 5.228620e-02 -2.593693e+00 -5.362242e+00 -7.920293e+00 -1.173359e+01 -1.702330e+01 -2.353524e+01 -2.525432e+01 -3.102654e+01 -3.752810e+01 -4.661794e+01 -3.654484e+01 -2.201540e+01 -3.024417e+01 -3.015058e+01 -4.173985e+01 
-5.509996e+01 -6.758600e+00 -1.449719e+02 2.012805e+02 -5.680857e+01 1.405598e+02 -1.312711e+02 1.055439e+02 -2.602753e+01 4.587667e+01 4.308437e+01 3.523505e+01 2.361766e+01 1.619485e+01 9.757094e+00 4.438570e+00 9.280810e-02 -4.606075e+00 -9.615244e+00 -1.640653e+01 -2.368267e+01 -3.563619e+01 -4.381828e+01 -4.700761e+01 2.398469e+01 -1.078184e+02 1.321610e+02 -1.438748e+02 5.460461e+01 -2.070929e+02 1.421970e+02 3.542885e+00 5.441317e+01 -2.064796e+01 3.245821e+01 2.121179e+00 3.581747e+01 4.210460e+01 4.330378e+01 3.053827e+01 3.318156e+01 2.741027e+01 2.953268e+01 2.251389e+01 1.735824e+01 1.049228e+01 7.014859e+00 2.920913e+00 5.224823e-02 -3.057385e+00 -6.910562e+00 -1.063492e+01 -1.725482e+01 -2.267048e+01 -2.942381e+01 -2.758451e+01 -3.307119e+01 -3.074990e+01 -4.318020e+01 -4.232666e+01 -3.566618e+01 -2.539097e+00 -3.246370e+01 1.963138e+01 
-1.161840e+02 -8.672232e+01 -2.141411e+02 -1.224343e+02 -2.438390e+02 -1.831698e+02 -1.787180e+02 4.127565e+01 -2.760852e+01 3.821590e+01 3.928442e+01 3.638072e+01 2.170407e+01 1.450498e+01 8.184569e+00 3.873488e+00 1.608438e-01 -4.016481e+00 -7.860374e+00 -1.466845e+01 -2.142600e+01 -3.671748e+01 -3.947392e+01 -3.957930e+01 2.450083e+01 -4.814791e+01 1.776806e+02 1.903237e+02 2.510806e+02 1.262181e+02 2.160208e+02 8.751870e+01 1.152132e+02 4.302174e+01 4.606652e+01 6.129892e+00 4.259790e+01 5.137642e+01 5.125915e+01 4.211691e+01 3.993598e+01 3.397788e+01 3.558973e+01 2.917952e+01 2.270908e+01 1.427007e+01 9.005461e+00 3.856646e+00 5.334990e-02 -4.027816e+00 -8.899302e+00 -1.445294e+01 -2.260249e+01 -2.938534e+01 -3.547310e+01 -3.422116e+01 -3.982046e+01 -4.243730e+01 -5.109510e+01 -5.166006e+01 -4.238501e+01 -6.817836e+00 -4.638662e+01 -4.429407e+01 
-7.443625e+01 -1.337983e+02 -2.277214e+02 -3.142337e+02 2.852376e+01 1.583866e+02 1.744223e+02 -6.996438e+01 -4.290429e+01 -2.505283e+01 6.475456e+00 3.525627e+00 1.222062e+01 4.710976e+00 6.192452e+00 1.542508e+00 1.414290e-01 -1.715157e+00 -5.921607e+00 -4.854018e+00 -1.205043e+01 -3.522679e+00 -6.865214e+00 2.580938e+01 4.148688e+01 7.122485e+01 -1.722704e+02 -1.444334e+02 -2.368970e+01 3.173489e+02 2.259187e+02 1.318474e+02 7.413994e+01 -2.446084e+00 3.067417e+01 1.328682e+00 3.761817e+01 4.645876e+01 4.688221e+01 3.057400e+01 3.385604e+01 2.715434e+01 2.982516e+01 2.237856e+01 1.751567e+01 1.036935e+01 7.066433e+00 2.870932e+00 6.363047e-02 -3.007393e+00 -6.937469e+00 -1.051268e+01 -1.738214e+01 -2.253603e+01 -2.967649e+01 -2.733156e+01 -3.368770e+01 -3.078194e+01 -4.666348e+01 -4.662001e+01 -3.731295e+01 -1.601443e+00 -3.034090e+01 2.009524e+00 