# vtk DataFile Version 2.0
Comment goes here
ASCII

DATASET STRUCTURED_POINTS
DIMENSIONS    64   64   1

ORIGIN    0.000   0.000   0.000
SPACING   0.031250.03125   1.000

POINT_DATA   4096
SCALARS uX double
LOOKUP_TABLE default

-1.401958e-01 -1.152436e+00 -4.133683e-01 -1.411157e+00 -6.392895e-01 -1.565290e+00 -7.864031e-01 -1.584144e+00 -8.335061e-01 -1.453016e+00 -7.726974e-01 -1.175943e+00 -6.110355e-01 -7.759792e-01 -3.703515e-01 -2.928044e-01 -8.461491e-02 2.222851e-01 2.051815e-01 7.133853e-01 4.577498e-01 1.127887e+00 6.382776e-01 1.423751e+00 7.236554e-01 1.574990e+00 7.052600e-01 1.574680e+00 5.892955e-01 1.435223e+00 3.952885e-01 1.185949e+00 1.532775e-01 8.684735e-01 -1.000078e-01 5.305553e-01 -3.257750e-01 2.193353e-01 -4.883588e-01 -2.526265e-02 -5.605972e-01 -1.763292e-01 -5.287733e-01 -2.243016e-01 -3.961535e-01 -1.789629e-01 -1.839146e-01 -6.817791e-02 7.152587e-02 6.710634e-02 3.248900e-01 1.810071e-01 5.308937e-01 2.321405e-01 6.531074e-01 1.917959e-01 6.703561e-01 4.899242e-02 5.794295e-01 -1.881631e-01 3.942166e-01 -4.943338e-01 1.422435e-01 -8.310866e-01 
-6.748430e-01 -1.562066e+00 -9.347298e-01 -1.793239e+00 -1.122727e+00 -1.903912e+00 -1.209946e+00 -1.866603e+00 -1.180092e+00 -1.670730e+00 -1.031304e+00 -1.324681e+00 -7.762722e-01 -8.550982e-01 -4.408969e-01 -3.036998e-01 -6.135501e-02 2.777087e-01 3.204558e-01 8.334957e-01 6.625761e-01 1.311053e+00 9.286388e-01 1.667213e+00 1.092421e+00 1.873538e+00 1.140767e+00 1.919848e+00 1.074911e+00 1.815301e+00 9.103379e-01 1.586557e+00 6.749609e-01 1.273382e+00 4.055530e-01 9.226438e-01 1.427572e-01 5.816811e-01 -7.475290e-02 2.917187e-01 -2.162881e-01 8.189696e-02 -2.645713e-01 -3.538502e-02 -2.195883e-01 -6.682883e-02 -9.967289e-02 -3.725091e-02 6.115991e-02 1.531149e-02 2.197681e-01 4.783905e-02 3.330573e-01 2.195595e-02 3.671637e-01 -8.780654e-02 3.040293e-01 -2.890692e-01 1.441011e-01 -5.705486e-01 -9.472227e-02 -9.043128e-01 -3.809275e-01 -1.250292e+00 
-6.918441e-02 -1.115778e+00 -3.901477e-01 -1.404050e+00 -6.658885e-01 -1.584660e+00 -8.568922e-01 -1.622993e+00 -9.334124e-01 -1.501280e+00 -8.807193e-01 -1.222052e+00 -7.033542e-01 -8.089720e-01 -4.264702e-01 -3.047708e-01 -9.268399e-02 2.341394e-01 2.452967e-01 7.459288e-01 5.345438e-01 1.172987e+00 7.317838e-01 1.470407e+00 8.107779e-01 1.611784e+00 7.655030e-01 1.591825e+00 6.089011e-01 1.426048e+00 3.687933e-01 1.147675e+00 8.284781e-02 8.023177e-01 -2.064100e-01 4.413497e-01 -4.564050e-01 1.149060e-01 -6.293234e-01 -1.347868e-01 -6.970377e-01 -2.793153e-01 -6.458908e-01 -3.087380e-01 -4.804721e-01 -2.340802e-01 -2.249415e-01 -8.639562e-02 7.953517e-02 8.848331e-02 3.817186e-01 2.390902e-01 6.303574e-01 3.191692e-01 7.842525e-01 2.968428e-01 8.192085e-01 1.599155e-01 7.306474e-01 -8.309291e-02 5.323721e-01 -4.052933e-01 2.529054e-01 -7.658792e-01 
-8.093750e-01 -1.696198e+00 -1.116485e+00 -1.956553e+00 -1.340604e+00 -2.084205e+00 -1.446984e+00 -2.048336e+00 -1.414701e+00 -1.836702e+00 -1.239358e+00 -1.458095e+00 -9.340987e-01 -9.415843e-01 -5.291506e-01 -3.332300e-01 -6.885794e-02 3.091695e-01 3.942785e-01 9.231509e-01 8.076460e-01 1.449802e+00 1.126545e+00 1.841050e+00 1.320134e+00 2.065324e+00 1.374423e+00 2.111368e+00 1.292783e+00 1.989542e+00 1.094991e+00 1.729736e+00 8.145908e-01 1.376289e+00 4.946431e-01 9.813884e-01 1.822197e-01 5.980691e-01 -7.785087e-02 2.732061e-01 -2.494990e-01 4.080929e-02 -3.116423e-01 -8.372238e-02 -2.631061e-01 -1.071204e-01 -1.246464e-01 -5.791420e-02 6.357423e-02 1.893949e-02 2.497331e-01 7.215769e-02 3.820168e-01 5.640303e-02 4.203042e-01 -5.759418e-02 3.439462e-01 -2.776389e-01 1.543361e-01 -5.897011e-01 -1.270491e-01 -9.613573e-01 -4.635174e-01 -1.347381e+00 
1.578754e-03 -1.139181e+00 -4.113875e-01 -1.503021e+00 -7.767603e-01 -1.744879e+00 -1.041709e+00 -1.820712e+00 -1.162555e+00 -1.706146e+00 -1.113463e+00 -1.401333e+00 -8.951963e-01 -9.326337e-01 -5.394688e-01 -3.512547e-01 -1.049401e-01 2.730074e-01 3.341306e-01 8.627999e-01 7.033391e-01 1.347044e+00 9.435548e-01 1.672158e+00 1.022151e+00 1.808708e+00 9.368813e-01 1.753380e+00 7.115357e-01 1.527968e+00 3.873948e-01 1.174955e+00 1.490724e-02 7.505830e-01 -3.527130e-01 3.168068e-01 -6.643332e-01 -6.664748e-02 -8.752012e-01 -3.494375e-01 -9.516104e-01 -4.970758e-01 -8.763345e-01 -4.968158e-01 -6.540402e-01 -3.618837e-01 -3.144173e-01 -1.317299e-01 8.980106e-02 1.338878e-01 4.915323e-01 3.672084e-01 8.236693e-01 5.080431e-01 1.033397e+00 5.160867e-01 1.090894e+00 3.768723e-01 9.913617e-01 1.016018e-01 7.520260e-01 -2.769361e-01 4.069072e-01 -7.100214e-01 
-9.832625e-01 -1.919102e+00 -1.381763e+00 -2.252571e+00 -1.676926e+00 -2.427754e+00 -1.823814e+00 -2.405462e+00 -1.793947e+00 -2.169353e+00 -1.579079e+00 -1.729287e+00 -1.193107e+00 -1.119922e+00 -6.736344e-01 -3.968633e-01 -7.930526e-02 3.689864e-01 5.185515e-01 1.100036e+00 1.048467e+00 1.723744e+00 1.451302e+00 2.181529e+00 1.688542e+00 2.434992e+00 1.745020e+00 2.470561e+00 1.627488e+00 2.301855e+00 1.362851e+00 1.966946e+00 9.945080e-01 1.521179e+00 5.771541e-01 1.028980e+00 1.703593e-01 5.560918e-01 -1.684647e-01 1.618645e-01 -3.916029e-01 -1.088974e-01 -4.691206e-01 -2.341045e-01 -3.965218e-01 -2.207563e-01 -1.994295e-01 -1.065034e-01 6.806385e-02 4.649803e-02 3.336554e-01 1.661829e-01 5.249963e-01 1.899627e-01 5.878926e-01 7.934827e-02 4.966067e-01 -1.739107e-01 2.555735e-01 -5.494161e-01 -1.051667e-01 -1.004485e+00 -5.375029e-01 -1.482178e+00 
8.169635e-02 -1.225219e+00 -4.787870e-01 -1.721200e+00 -9.872287e-01 -2.068594e+00 -1.370358e+00 -2.206744e+00 -1.561601e+00 -2.099638e+00 -1.515259e+00 -1.743261e+00 -1.224234e+00 -1.168104e+00 -7.310157e-01 -4.402175e-01 -1.216661e-01 3.461826e-01 4.926971e-01 1.084513e+00 1.000931e+00 1.679037e+00 1.316826e+00 2.060801e+00 1.397302e+00 2.195363e+00 1.248001e+00 2.082505e+00 9.120981e-01 1.754847e+00 4.529238e-01 1.271129e+00 -5.954261e-02 7.062683e-01 -5.563637e-01 1.406637e-01 -9.736157e-01 -3.493578e-01 -1.255193e+00 -6.990209e-01 -1.356689e+00 -8.620215e-01 -1.252170e+00 -8.186884e-01 -9.434093e-01 -5.842390e-01 -4.675952e-01 -2.123665e-01 1.024804e-01 2.111318e-01 6.699214e-01 5.868702e-01 1.137794e+00 8.286080e-01 1.433151e+00 8.817300e-01 1.518500e+00 7.296236e-01 1.391653e+00 3.901298e-01 1.078200e+00 -9.257629e-02 6.225855e-01 -6.558717e-01 
-1.205672e+00 -2.246311e+00 -1.751370e+00 -2.707103e+00 -2.162785e+00 -2.968486e+00 -2.379511e+00 -2.975958e+00 -2.361274e+00 -2.705743e+00 -2.093328e+00 -2.169924e+00 -1.588458e+00 -1.412280e+00 -8.946078e-01 -5.035141e-01 -9.344356e-02 4.636144e-01 7.120690e-01 1.384392e+00 1.418866e+00 2.163601e+00 1.944719e+00 2.726034e+00 2.240475e+00 3.022132e+00 2.291532e+00 3.033851e+00 2.110517e+00 2.780748e+00 1.735522e+00 2.315961e+00 1.224910e+00 1.713726e+00 6.510218e-01 1.058270e+00 9.257887e-02 4.357811e-01 -3.730280e-01 -7.352935e-02 -6.782307e-01 -4.055509e-01 -7.763102e-01 -5.247916e-01 -6.544917e-01 -4.367480e-01 -3.447639e-01 -1.943782e-01 7.451215e-02 1.080055e-01 4.920939e-01 3.576024e-01 7.966035e-01 4.596171e-01 9.093922e-01 3.601964e-01 7.980711e-01 5.247545e-02 4.749651e-01 -4.300602e-01 -1.351936e-02 -1.026097e+00 -5.997411e-01 -1.658966e+00 
1.847237e-01 -1.379954e+00 -5.955902e-01 -2.083156e+00 -1.321708e+00 -2.597224e+00 -1.890733e+00 -2.834540e+00 -2.198363e+00 -2.739708e+00 -2.161414e+00 -2.301807e+00 -1.754692e+00 -1.554658e+00 -1.037989e+00 -5.868647e-01 -1.432289e-01 4.671322e-01 7.569975e-01 1.448763e+00 1.490282e+00 2.221745e+00 1.925237e+00 2.693843e+00 2.002285e+00 2.825779e+00 1.745435e+00 2.622089e+00 1.234547e+00 2.133191e+00 5.691199e-01 1.444153e+00 -1.528327e-01 6.592522e-01 -8.422855e-01 -1.133050e-01 -1.419902e+00 -7.733822e-01 -1.814852e+00 -1.235085e+00 -1.965814e+00 -1.432317e+00 -1.829401e+00 -1.330397e+00 -1.397092e+00 -9.430293e-01 -7.133966e-01 -3.444150e-01 1.176597e-01 3.354086e-01 9.460163e-01 9.390690e-01 1.621579e+00 1.336107e+00 2.040085e+00 1.451335e+00 2.156465e+00 1.269464e+00 1.978342e+00 8.229075e-01 1.548092e+00 1.748895e-01 9.264388e-01 -5.918298e-01 
-1.490811e+00 -2.701847e+00 -2.256919e+00 -3.361473e+00 -2.845353e+00 -3.762448e+00 -3.174003e+00 -3.823190e+00 -3.184360e+00 -3.507428e+00 -2.851158e+00 -2.832981e+00 -2.177985e+00 -1.856707e+00 -1.225733e+00 -6.690673e-01 -1.121799e-01 6.047721e-01 1.006646e+00 1.810916e+00 1.974880e+00 2.820531e+00 2.674301e+00 3.536387e+00 3.042572e+00 3.892709e+00 3.073564e+00 3.861473e+00 2.789476e+00 3.472001e+00 2.245688e+00 2.804343e+00 1.521451e+00 1.962059e+00 7.133773e-01 1.056819e+00 -7.377888e-02 2.032555e-01 -7.343772e-01 -4.869979e-01 -1.169645e+00 -9.173681e-01 -1.302431e+00 -1.025959e+00 -1.100356e+00 -8.098400e-01 -5.998564e-01 -3.433314e-01 8.280261e-02 2.235904e-01 7.640961e-01 6.994783e-01 1.260174e+00 9.338176e-01 1.454267e+00 8.514711e-01 1.309202e+00 4.541051e-01 8.563579e-01 -1.985214e-01 1.719137e-01 -1.013348e+00 -6.458266e-01 -1.883894e+00 
3.328821e-01 -1.611331e+00 -7.615827e-01 -2.625791e+00 -1.811321e+00 -3.395127e+00 -2.673022e+00 -3.788686e+00 -3.180497e+00 -3.718488e+00 -3.176528e+00 -3.165777e+00 -2.593076e+00 -2.158623e+00 -1.521265e+00 -8.179518e-01 -1.698945e-01 6.597606e-01 1.187121e+00 2.019210e+00 2.276331e+00 3.061771e+00 2.890870e+00 3.662399e+00 2.941828e+00 3.785571e+00 2.497194e+00 3.439289e+00 1.709415e+00 2.703602e+00 7.368606e-01 1.705459e+00 -2.849371e-01 5.938070e-01 -1.245413e+00 -4.837917e-01 -2.051618e+00 -1.397801e+00 -2.618077e+00 -2.035934e+00 -2.859066e+00 -2.300820e+00 -2.697585e+00 -2.126049e+00 -2.097252e+00 -1.511898e+00 -1.103513e+00 -5.575466e-01 1.352996e-01 5.348304e-01 1.371474e+00 1.495901e+00 2.357343e+00 2.123205e+00 2.944270e+00 2.316573e+00 3.085933e+00 2.074040e+00 2.817093e+00 1.459241e+00 2.212539e+00 5.655314e-01 1.356067e+00 -4.996002e-01 
-1.859777e+00 -3.319223e+00 -2.942797e+00 -4.275038e+00 -3.790741e+00 -4.894755e+00 -4.293854e+00 -5.044497e+00 -4.363552e+00 -4.667084e+00 -3.962227e+00 -3.799517e+00 -3.055642e+00 -2.514882e+00 -1.722708e+00 -9.220090e-01 -1.365724e-01 8.142209e-01 1.455682e+00 2.435743e+00 2.808029e+00 3.772287e+00 3.747342e+00 4.705151e+00 4.193398e+00 5.148336e+00 4.176998e+00 5.045761e+00 3.731090e+00 4.442426e+00 2.939426e+00 3.471080e+00 1.907472e+00 2.278591e+00 7.629625e-01 1.008483e+00 -3.578381e-01 -1.900539e-01 -1.313537e+00 -1.161081e+00 -1.958527e+00 -1.754770e+00 -2.161001e+00 -1.857437e+00 -1.844144e+00 -1.438580e+00 -1.037203e+00 -5.949515e-01 9.281161e-02 4.329253e-01 1.222033e+00 1.288350e+00 2.025743e+00 1.730123e+00 2.336266e+00 1.661066e+00 2.123367e+00 1.111028e+00 1.462086e+00 1.919737e-01 4.821740e-01 -9.502103e-01 -6.722152e-01 -2.166847e+00 
5.656184e-01 -1.924998e+00 -9.621889e-01 -3.398334e+00 -2.485994e+00 -4.555393e+00 -3.812320e+00 -5.196677e+00 -4.676725e+00 -5.172722e+00 -4.768698e+00 -4.476863e+00 -3.914222e+00 -3.089345e+00 -2.279887e+00 -1.182021e+00 -2.014939e-01 9.686320e-01 1.882057e+00 2.901358e+00 3.532336e+00 4.336994e+00 4.417979e+00 5.100626e+00 4.379400e+00 5.203677e+00 3.594430e+00 4.632088e+00 2.365805e+00 3.521978e+00 9.438118e-01 2.066648e+00 -4.912425e-01 4.835797e-01 -1.813425e+00 -1.024951e+00 -2.928564e+00 -2.302212e+00 -3.746565e+00 -3.211895e+00 -4.149605e+00 -3.608961e+00 -3.996173e+00 -3.359938e+00 -3.182084e+00 -2.420257e+00 -1.732885e+00 -9.093398e-01 1.551524e-01 8.646084e-01 2.040794e+00 2.384390e+00 3.483106e+00 3.341895e+00 4.285475e+00 3.616776e+00 4.421209e+00 3.252225e+00 3.991964e+00 2.378624e+00 3.135027e+00 1.135376e+00 1.963617e+00 -3.487719e-01 
-2.343267e+00 -4.140128e+00 -3.867932e+00 -5.525109e+00 -5.085332e+00 -6.492088e+00 -5.860571e+00 -6.786548e+00 -6.042753e+00 -6.315025e+00 -5.606277e+00 -5.187632e+00 -4.373468e+00 -3.487085e+00 -2.478911e+00 -1.320450e+00 -1.677393e-01 1.139546e+00 2.149850e+00 3.350285e+00 4.067292e+00 5.131037e+00 5.339937e+00 6.360776e+00 5.833489e+00 6.942882e+00 5.721908e+00 6.726409e+00 5.022879e+00 5.782102e+00 3.878784e+00 4.366226e+00 2.417434e+00 2.683433e+00 8.058274e-01 8.987540e-01 -7.887982e-01 -8.046804e-01 -2.188208e+00 -2.212297e+00 -3.179544e+00 -3.088718e+00 -3.533050e+00 -3.219598e+00 -3.075769e+00 -2.501849e+00 -1.796541e+00 -1.036038e+00 1.044667e-01 8.208266e-01 2.005704e+00 2.300911e+00 3.283209e+00 3.046012e+00 3.736420e+00 2.956184e+00 3.375744e+00 2.135440e+00 2.371304e+00 7.980151e-01 9.490428e-01 -8.239424e-01 -6.814708e-01 -2.525284e+00 
9.562997e-01 -2.313929e+00 -1.144469e+00 -4.459276e+00 -3.353284e+00 -6.205495e+00 -5.423011e+00 -7.251374e+00 -6.952940e+00 -7.287343e+00 -7.299533e+00 -6.462763e+00 -5.999011e+00 -4.524235e+00 -3.471179e+00 -1.777392e+00 -2.368408e-01 1.486989e+00 3.001044e+00 4.268012e+00 5.538608e+00 6.269046e+00 6.862417e+00 7.186237e+00 6.570583e+00 7.274418e+00 5.143892e+00 6.336367e+00 3.210224e+00 4.659157e+00 1.141736e+00 2.530642e+00 -8.377206e-01 2.804417e-01 -2.609072e+00 -1.808774e+00 -4.112814e+00 -3.582029e+00 -5.290580e+00 -4.906357e+00 -5.988949e+00 -5.566471e+00 -5.941385e+00 -5.284984e+00 -4.886407e+00 -3.900641e+00 -2.787516e+00 -1.527059e+00 1.766420e-01 1.448494e+00 3.138943e+00 3.833659e+00 5.233047e+00 5.241756e+00 6.279844e+00 5.558226e+00 6.314747e+00 4.944437e+00 5.596096e+00 3.675351e+00 4.383109e+00 1.958594e+00 2.819330e+00 -8.513134e-02 
-2.984143e+00 -5.205111e+00 -5.106903e+00 -7.192510e+00 -6.829169e+00 -8.750027e+00 -8.045581e+00 -9.277111e+00 -8.419596e+00 -8.613101e+00 -8.108659e+00 -7.162254e+00 -6.364713e+00 -4.937000e+00 -3.652035e+00 -2.009607e+00 -2.067680e-01 1.709894e+00 3.244110e+00 4.704793e+00 5.983117e+00 7.051472e+00 7.772152e+00 8.656409e+00 8.153034e+00 9.516735e+00 7.876333e+00 9.123999e+00 6.767679e+00 7.594337e+00 5.145031e+00 5.542805e+00 3.101004e+00 3.211988e+00 8.672252e-01 7.291569e-01 -1.378341e+00 -1.700527e+00 -3.441459e+00 -3.791083e+00 -5.017974e+00 -5.174992e+00 -5.702181e+00 -5.443200e+00 -5.120811e+00 -4.327827e+00 -3.165036e+00 -1.878024e+00 1.181546e-01 1.597045e+00 3.402979e+00 4.063358e+00 5.358089e+00 5.208698e+00 5.937561e+00 4.987149e+00 5.251240e+00 3.670513e+00 3.668043e+00 1.671405e+00 1.587233e+00 -6.420218e-01 -6.935385e-01 -2.993469e+00 
1.646448e+00 -2.734478e+00 -1.163410e+00 -5.869679e+00 -4.350517e+00 -8.498855e+00 -7.602449e+00 -1.027256e+01 -1.043145e+01 -1.024436e+01 -1.145297e+01 -9.511819e+00 -9.272691e+00 -6.762245e+00 -5.384514e+00 -2.870630e+00 -2.725213e-01 2.474708e+00 4.839171e+00 6.414816e+00 8.724138e+00 9.239866e+00 1.090110e+01 1.007965e+01 9.915199e+00 1.031721e+01 7.227294e+00 8.720061e+00 4.179500e+00 6.200905e+00 1.195898e+00 3.069950e+00 -1.452303e+00 -1.119937e-01 -3.709731e+00 -2.922881e+00 -5.639626e+00 -5.324578e+00 -7.316609e+00 -7.280839e+00 -8.564589e+00 -8.477811e+00 -8.871168e+00 -8.317624e+00 -7.614053e+00 -6.401902e+00 -4.700614e+00 -2.771696e+00 1.987769e-01 2.641663e+00 5.097592e+00 6.288248e+00 8.009921e+00 8.234986e+00 9.264636e+00 8.440213e+00 8.954094e+00 7.306491e+00 7.698737e+00 5.433051e+00 5.999686e+00 3.124515e+00 4.013111e+00 3.962993e-01 
-3.832419e+00 -6.525648e+00 -6.754750e+00 -9.282189e+00 -9.103131e+00 -1.201364e+01 -1.110548e+01 -1.290928e+01 -1.175035e+01 -1.167354e+01 -1.219370e+01 -9.985698e+00 -9.394048e+00 -7.346380e+00 -5.810065e+00 -3.521482e+00 -2.563281e-01 3.031241e+00 5.304139e+00 6.963511e+00 8.921808e+00 9.780243e+00 1.176438e+01 1.167130e+01 1.138809e+01 1.328637e+01 1.088769e+01 1.263601e+01 9.055608e+00 9.924596e+00 6.849922e+00 7.029698e+00 4.021306e+00 3.935912e+00 1.014050e+00 5.499787e-01 -2.079486e+00 -2.901894e+00 -5.127715e+00 -6.063695e+00 -7.710731e+00 -8.380422e+00 -9.106390e+00 -9.083422e+00 -8.606833e+00 -7.734869e+00 -6.029042e+00 -3.748888e+00 1.376372e-01 3.388232e+00 6.301014e+00 7.391816e+00 8.876499e+00 8.769100e+00 9.374887e+00 8.113317e+00 7.983960e+00 5.871123e+00 5.405271e+00 2.820995e+00 2.351695e+00 -4.702881e-01 -7.677377e-01 -3.648565e+00 
2.916055e+00 -3.052393e+00 -6.459505e-01 -7.715971e+00 -5.266265e+00 -1.149717e+01 -1.029279e+01 -1.494302e+01 -1.576702e+01 -1.391693e+01 -1.877632e+01 -1.450317e+01 -1.449055e+01 -1.060400e+01 -8.558020e+00 -4.596954e+00 -3.002121e-01 4.057324e+00 7.940572e+00 1.014091e+01 1.385436e+01 1.413940e+01 1.808465e+01 1.358788e+01 1.501270e+01 1.500303e+01 9.753153e+00 1.187113e+01 5.066259e+00 8.288266e+00 7.558671e-01 3.573307e+00 -2.589891e+00 -9.004213e-01 -5.191624e+00 -4.448513e+00 -7.439554e+00 -7.536455e+00 -9.781301e+00 -1.045694e+01 -1.207275e+01 -1.277765e+01 -1.334660e+01 -1.322420e+01 -1.229241e+01 -1.107018e+01 -8.381283e+00 -4.808427e+00 2.187475e-01 4.595733e+00 8.820770e+00 1.089063e+01 1.273942e+01 1.308570e+01 1.379983e+01 1.269120e+01 1.253340e+01 1.044984e+01 1.025708e+01 7.648483e+00 7.924197e+00 4.712999e+00 5.641793e+00 1.313251e+00 
-4.888801e+00 -8.052343e+00 -8.949902e+00 -1.133991e+01 -1.189321e+01 -1.707177e+01 -1.541231e+01 -1.856028e+01 -1.660286e+01 -1.518543e+01 -2.003116e+01 -1.444027e+01 -1.344998e+01 -1.020636e+01 -6.815008e+00 -3.841903e+00 -3.230856e-01 3.052510e+00 6.183574e+00 9.606887e+00 1.288458e+01 1.408199e+01 1.951619e+01 1.499342e+01 1.604358e+01 1.917088e+01 1.509965e+01 1.817408e+01 1.191075e+01 1.239343e+01 9.180447e+00 8.797073e+00 5.204802e+00 5.020485e+00 1.393592e+00 5.180090e-01 -2.700754e+00 -4.317858e+00 -7.196478e+00 -9.157840e+00 -1.153001e+01 -1.320982e+01 -1.443756e+01 -1.501843e+01 -1.426658e+01 -1.263076e+01 -8.788406e+00 -4.607555e+00 1.640380e-01 4.164323e+00 9.110422e+00 1.219386e+01 1.457253e+01 1.460224e+01 1.473432e+01 1.283047e+01 1.183827e+01 8.849412e+00 7.524016e+00 4.129134e+00 3.045843e+00 -5.009274e-01 -1.043849e+00 -4.682649e+00 
5.282883e+00 -2.926649e+00 1.450555e+00 -1.051201e+01 -5.834811e+00 -1.452889e+01 -1.285640e+01 -2.341683e+01 -2.467662e+01 -1.720697e+01 -3.402273e+01 -2.429685e+01 -2.159267e+01 -1.356146e+01 -7.844718e+00 -3.860417e+00 -3.350727e-01 3.078634e+00 7.170876e+00 1.300204e+01 2.094223e+01 2.396130e+01 3.327531e+01 1.644397e+01 2.345941e+01 2.338988e+01 1.199920e+01 1.518035e+01 5.631333e+00 1.155083e+01 -1.176757e+00 3.716915e+00 -4.718790e+00 -2.508818e+00 -7.028380e+00 -6.366057e+00 -9.154844e+00 -9.976039e+00 -1.235727e+01 -1.438960e+01 -1.669055e+01 -1.931121e+01 -2.059096e+01 -2.134431e+01 -1.904037e+01 -1.606534e+01 -1.007381e+01 -5.276825e+00 2.395032e-01 4.969562e+00 1.056246e+01 1.578250e+01 1.954573e+01 2.112356e+01 2.111075e+01 1.915070e+01 1.722526e+01 1.431345e+01 1.293718e+01 1.005663e+01 9.803011e+00 6.690597e+00 7.710886e+00 3.101997e+00 
-5.797639e+00 -9.783353e+00 -1.121235e+01 -1.005560e+01 -1.473750e+01 -2.493092e+01 -2.005575e+01 -2.939917e+01 -2.891202e+01 -1.841421e+01 -3.902092e+01 -2.746475e+01 -2.101488e+01 -1.424197e+01 -6.138955e+00 -4.710070e+00 -3.986302e-01 3.477298e+00 5.314362e+00 1.337771e+01 2.036190e+01 2.685377e+01 3.865237e+01 1.772503e+01 2.774755e+01 3.036485e+01 1.953703e+01 2.710286e+01 1.500690e+01 1.188888e+01 1.181687e+01 1.084841e+01 6.330957e+00 6.765668e+00 2.295563e+00 9.403448e-01 -2.748044e+00 -5.565989e+00 -9.370809e+00 -1.319711e+01 -1.719805e+01 -2.158379e+01 -2.463310e+01 -2.698285e+01 -2.425354e+01 -1.976132e+01 -1.234857e+01 -6.766746e+00 2.000235e-01 6.237586e+00 1.274064e+01 1.920801e+01 2.461571e+01 2.642968e+01 2.494314e+01 2.103931e+01 1.751322e+01 1.270982e+01 9.721984e+00 5.172933e+00 3.146983e+00 -1.110803e+00 -1.823199e+00 -6.479590e+00 
9.099512e+00 -2.484728e+00 5.040263e+00 -2.326222e+01 -9.616266e+00 -2.142618e+01 -1.887618e+01 -4.219143e+01 -4.025666e+01 -1.973601e+01 -6.555892e+01 -4.427582e+01 -3.694195e+01 -1.798885e+01 -8.320700e+00 -6.737617e+00 -3.516656e-01 5.490837e+00 7.521479e+00 1.736592e+01 3.620431e+01 4.440051e+01 6.509759e+01 1.833602e+01 3.703061e+01 4.108214e+01 1.696482e+01 2.265833e+01 9.666968e+00 2.487928e+01 -4.363483e+00 3.600076e+00 -8.050489e+00 -5.583811e+00 -8.613215e+00 -8.293293e+00 -9.828038e+00 -1.197800e+01 -1.443945e+01 -1.918956e+01 -2.435609e+01 -3.374338e+01 -3.691081e+01 -3.509209e+01 -2.535253e+01 -1.744618e+01 -9.417561e+00 -4.984153e+00 2.248298e-01 4.536154e+00 9.893748e+00 1.701327e+01 2.588266e+01 3.473344e+01 3.749634e+01 3.351896e+01 2.499236e+01 1.901422e+01 1.511786e+01 1.195062e+01 1.065712e+01 8.616645e+00 9.646941e+00 6.411340e+00 
-4.535246e+00 -9.161064e+00 3.729728e-01 1.896728e+01 -1.157542e+01 -1.882679e+01 -4.111313e+00 -5.638279e+01 -2.053563e+01 -3.928765e+00 -2.683632e+01 -1.035751e+01 -1.790805e+01 -1.436523e+01 -1.062204e+01 -1.003857e+01 -4.418077e-01 8.081866e+00 9.271916e+00 1.299210e+01 1.516406e+01 8.063709e+00 2.646733e+01 2.929357e+00 1.279061e+01 5.659887e+01 4.068983e+00 2.365086e+01 1.229363e+01 -1.531084e+01 1.081643e+00 1.038281e+01 5.307843e+00 8.667589e+00 4.142416e+00 2.121081e+00 -1.295840e+00 -5.556440e+00 -1.128366e+01 -2.023443e+01 -3.116305e+01 -3.769552e+01 -2.947174e+01 -1.604730e+01 -4.005019e+00 3.405013e+00 6.202852e+00 4.162420e+00 1.615272e-01 -4.750667e+00 -5.850024e+00 -4.005688e+00 4.394878e+00 1.537449e+01 2.983733e+01 3.700236e+01 3.139723e+01 1.948913e+01 1.155984e+01 4.816199e+00 1.658197e+00 -2.714543e+00 -3.623906e+00 -8.753250e+00 
1.404736e+01 7.421318e+00 -5.610181e+00 -5.468173e+01 -1.587749e+00 -3.155773e+01 1.139138e+01 -3.060745e+01 4.911614e+01 9.210670e+00 7.118434e+01 1.082673e+02 6.775401e+01 1.415855e+01 4.938348e+00 -4.054740e+00 -4.041383e-01 1.696422e+00 -6.300439e+00 -1.622391e+01 -6.940948e+01 -1.066762e+02 -7.060245e+01 -1.351355e+01 -5.856101e+01 2.546537e+01 -1.570176e+01 3.670507e+01 3.197927e+00 5.796559e+01 7.185457e+00 -4.633340e+00 -1.212018e+01 -1.224094e+01 -7.380591e+00 -8.921545e+00 -7.123505e+00 -1.172247e+01 -1.628029e+01 -2.690666e+01 -3.014167e+01 -1.915580e+01 4.460175e+00 1.959920e+01 2.693184e+01 2.605872e+01 2.108924e+01 1.171556e+01 1.932311e-01 -1.213841e+01 -2.070096e+01 -2.651796e+01 -2.650919e+01 -2.015995e+01 -3.952321e+00 1.861359e+01 3.067993e+01 2.654346e+01 1.694373e+01 1.145787e+01 8.055174e+00 9.012035e+00 8.741335e+00 1.331168e+01 
-4.291814e+00 -1.663778e+01 -4.989031e+01 -4.126603e+01 -3.172089e+01 -1.715399e+01 4.854166e+01 7.315261e+00 2.242395e+01 -7.604985e+01 6.379667e+01 6.078201e+01 3.097887e+01 2.037988e+01 6.060393e+00 7.790466e+00 3.310284e-01 -9.833710e+00 -5.435633e+00 -2.210299e+01 -3.142678e+01 -6.045314e+01 -6.207803e+01 7.471222e+01 -3.358024e+01 -1.570144e+01 -4.585430e+01 3.041135e+01 3.239148e+01 4.181616e+01 5.262882e+01 1.620078e+01 5.175145e+00 8.297307e+00 8.042956e+00 3.760354e+00 4.446971e-01 -6.233500e+00 -1.315416e+01 -1.426986e+01 -3.752465e+00 2.183512e+01 3.983608e+01 4.599478e+01 4.431254e+01 3.523710e+01 2.338522e+01 1.124627e+01 1.067261e-01 -1.193527e+01 -2.317775e+01 -3.594308e+01 -4.406058e+01 -4.674592e+01 -3.943430e+01 -2.272493e+01 4.133812e+00 1.331899e+01 1.336673e+01 5.141751e+00 -2.597045e-01 -5.098664e+00 -7.783961e+00 -9.602319e+00 
1.926673e+01 5.148935e+01 3.039811e+01 4.399514e+01 -8.417668e+00 9.459227e+00 5.842385e+01 8.895987e+01 -1.342633e+01 -3.002775e+01 8.424920e+01 -4.057439e+01 -4.963256e+01 -7.522212e+00 -7.332316e+00 4.989233e+00 1.017852e+00 -6.302518e+00 8.741943e+00 3.165808e+00 4.631184e+01 2.171835e+01 -1.005452e+02 2.079921e+01 3.215439e+00 -9.011398e+01 -4.948470e+01 1.775974e+01 1.832151e+01 -3.294867e+01 -2.736207e+01 -4.968858e+01 -1.762444e+01 -1.853478e+01 3.543857e+00 -1.924582e+00 2.741653e+00 -2.859752e+00 -1.219128e+00 -1.013779e+00 2.291545e+01 3.945945e+01 4.303052e+01 3.547366e+01 2.701050e+01 1.717915e+01 1.004439e+01 3.840785e+00 2.327299e-01 -4.325007e+00 -9.575665e+00 -1.766420e+01 -2.653216e+01 -3.598435e+01 -4.252481e+01 -4.018916e+01 -2.225797e+01 1.911964e-01 1.778294e+00 2.058579e+00 -1.977862e+00 1.190348e+00 -2.470425e+00 1.815357e+01 
-1.942323e+01 -1.922273e+01 -3.551511e+01 -9.001996e+01 -1.186926e+02 -9.773134e+01 1.728281e+01 2.248677e+02 2.092654e+02 1.513146e+02 8.673454e+01 -8.321999e+00 4.643670e+00 1.510634e+01 1.603943e+01 9.106465e+00 1.131221e+00 -1.125191e+01 -1.388741e+01 -2.055879e+01 -2.517106e+00 -6.287735e+00 -9.477900e+01 -1.618130e+02 -2.108462e+02 -2.043457e+02 2.039917e+01 1.258698e+02 1.321478e+02 8.879446e+01 3.482337e+01 1.635958e+01 1.751530e+01 -2.533590e-01 1.240950e+01 9.476518e+00 5.721615e+00 8.297330e+00 3.216542e+00 1.648005e+01 4.175401e+01 4.001219e+01 2.323038e+01 1.044876e+01 4.603722e+00 1.580394e+00 9.174080e-01 3.693127e-02 1.875813e-01 -7.816916e-01 -5.512086e-01 -2.374038e+00 -4.279110e+00 -1.131596e+01 -2.301239e+01 -4.101081e+01 -4.137283e+01 -1.778226e+01 -2.974901e+00 -9.788564e+00 -5.748084e+00 -1.152104e+01 -1.269113e+01 -2.637682e+00 
1.932358e+01 -1.969267e+01 1.266638e+02 4.278000e+01 2.506814e+01 -1.355100e+02 -2.911952e+02 -1.201285e+02 -5.378044e+01 -2.573103e+01 -5.628282e+01 -3.558345e+01 2.417458e+01 7.858745e+00 1.395697e+01 4.575040e+00 2.159218e+00 -4.455320e+00 -9.264620e+00 -7.926554e+00 -1.754300e+01 4.058689e+01 6.497072e+01 3.005519e+01 5.804223e+01 1.060392e+02 2.428697e+02 9.297704e+01 -1.285598e+01 -6.535105e+01 -1.224184e+02 1.260289e+01 -1.868917e+01 1.687972e+01 1.206992e+01 2.019485e+01 2.874784e+01 2.256904e+01 1.882879e+01 3.265815e+01 4.041539e+01 2.368045e+01 1.038545e+01 1.229643e+00 8.828279e-01 -3.933046e-01 5.678398e-01 -1.709434e-01 2.230192e-01 -4.733842e-01 -1.126064e-01 -2.719004e-01 -3.974090e-01 -1.901865e+00 -9.865202e+00 -2.429564e+01 -3.980441e+01 -3.356456e+01 -1.806669e+01 -2.373928e+01 -2.798480e+01 -2.207833e+01 -1.136692e+01 -2.046783e+01 
7.315112e+01 -4.529202e+00 9.998970e+01 9.984135e+01 1.123191e+02 -6.321784e+01 -1.917806e+02 -2.123760e+02 -2.226745e+02 1.795593e+01 1.353540e+01 2.569574e+01 5.327615e+01 2.201434e+01 2.169580e+01 6.875799e+00 1.758239e+00 -7.463438e+00 -1.773518e+01 -2.208309e+01 -4.758500e+01 -2.071208e+01 -3.576012e+00 -1.791096e+01 2.331257e+02 2.091085e+02 1.454739e+02 2.414733e+01 -1.162409e+02 -1.321421e+02 -1.029134e+02 -2.299608e+00 -7.204819e+01 1.331145e+01 -3.188522e+01 1.216826e+01 8.091867e+00 1.354059e+01 2.354304e+01 3.574227e+01 2.395133e+01 1.353310e+01 1.063261e+01 6.406662e+00 3.183779e+00 1.154988e+00 1.055755e+00 8.567255e-02 2.072268e-01 -8.301538e-01 -6.424787e-01 -1.944278e+00 -2.781492e+00 -7.297637e+00 -1.024401e+01 -1.458272e+01 -2.368476e+01 -3.712377e+01 -2.319534e+01 -1.544080e+01 -8.103538e+00 -1.475427e+01 3.121557e+01 -1.714076e+01 
-5.043404e+01 1.537357e+01 -1.386819e+02 1.059787e+02 3.754516e+01 3.225609e+02 4.226428e+02 1.274341e+02 -1.351307e+02 -2.442430e+01 -3.894707e+01 1.111586e+01 1.411080e+01 1.690488e+01 1.470899e+01 7.557656e+00 3.037786e+00 -5.664609e+00 -7.903922e+00 -1.477452e+01 -4.741413e+00 -7.666448e+00 5.810101e+01 2.538927e+01 1.582401e+02 -1.128302e+02 -4.154664e+02 -3.039908e+02 -6.412132e+01 -1.100169e+02 1.268585e+02 -2.156447e+01 5.283933e+01 -4.509362e+00 1.725336e+01 8.186351e+00 1.323583e+01 8.318132e+00 3.528185e+01 3.486696e+01 2.809144e+01 2.277418e+01 2.195984e+01 1.614507e+01 1.136391e+01 6.680545e+00 4.642823e+00 1.739888e+00 1.936470e-01 -2.424618e+00 -4.252748e+00 -7.389807e+00 -1.096622e+01 -1.690646e+01 -2.153469e+01 -2.365901e+01 -2.764699e+01 -3.586242e+01 -3.470005e+01 -9.768930e+00 -1.276445e+01 -9.905531e+00 -1.626561e+01 1.448320e+00 
8.045226e-01 1.420494e+02 5.599177e+01 7.688666e+00 -5.945655e+01 1.738029e+02 1.615610e+02 9.314380e+01 1.653662e+02 1.015542e+01 9.715196e+00 3.534800e+01 3.194794e+01 2.288972e+01 1.792117e+01 7.570316e+00 1.894112e+00 -7.243517e+00 -1.384281e+01 -2.247360e+01 -2.723577e+01 -3.539374e+01 -5.779684e+00 -1.783554e+01 -1.665793e+02 -1.576882e+02 -1.206701e+02 -7.890692e+01 3.561432e+01 -9.371062e-02 -5.141315e+01 -1.490799e+02 4.005403e+00 -5.318418e+01 1.234203e+01 -1.757650e+01 9.131026e+00 1.781018e+01 3.704264e+01 3.058823e+01 2.717812e+01 2.532334e+01 2.498167e+01 2.144535e+01 1.643083e+01 1.016073e+01 6.268244e+00 2.393163e+00 2.061324e-01 -3.090283e+00 -5.859496e+00 -1.090276e+01 -1.602109e+01 -2.228472e+01 -2.453319e+01 -2.632517e+01 -2.666965e+01 -3.183863e+01 -3.641207e+01 -1.955916e+01 -7.744117e+00 1.520424e+01 -9.695827e+00 4.952313e+01 
-2.342640e+01 2.906621e+00 -2.056307e+01 -7.569932e+01 2.818072e+02 1.524049e+02 2.047994e+02 2.466766e+02 3.680415e+02 2.096550e+02 1.391256e+02 1.052413e+02 7.270129e+01 4.642899e+01 2.969418e+01 1.380027e+01 3.173210e+00 -1.003479e+01 -2.245490e+01 -4.108616e+01 -6.313982e+01 -9.827699e+01 -1.316106e+02 -2.140678e+02 -3.633516e+02 -2.573739e+02 -1.784880e+02 -1.871635e+02 -2.809021e+02 4.407980e+01 4.439523e+01 1.884978e-01 2.799857e+01 -3.534909e+00 1.560316e+01 -1.732641e+01 8.650361e+00 2.747534e+01 3.515969e+01 2.826562e+01 2.901792e+01 2.859504e+01 2.904273e+01 2.639094e+01 2.152048e+01 1.426504e+01 8.831648e+00 3.599250e+00 1.569123e-01 -4.309933e+00 -8.523091e+00 -1.500963e+01 -2.120639e+01 -2.720646e+01 -2.867826e+01 -2.950865e+01 -2.858095e+01 -2.927335e+01 -3.459946e+01 -2.836089e+01 -7.715460e+00 1.592841e+01 -1.525948e+01 4.186382e+00 
-7.759966e+01 -1.038673e+02 5.387735e+01 6.623337e+01 1.616296e+02 -6.499737e+00 2.228332e+02 1.265656e+02 1.758328e+02 3.981293e+01 5.474426e+01 5.508856e+01 3.828995e+01 2.866770e+01 1.899019e+01 8.779604e+00 1.718212e+00 -7.437474e+00 -1.531200e+01 -2.682010e+01 -3.432908e+01 -5.432901e+01 -5.505848e+01 -4.275585e+01 -2.079478e+02 -1.138323e+02 -1.820578e+02 -1.025430e+02 -1.584176e+02 -5.573845e+01 -5.040109e+01 1.010917e+02 6.645091e+01 -1.069068e+00 -4.013100e+00 -1.346116e+01 4.152269e+00 2.065392e+01 3.564255e+01 2.628784e+01 2.601608e+01 2.430462e+01 2.464834e+01 2.099759e+01 1.636439e+01 9.975186e+00 6.310987e+00 2.372831e+00 2.224654e-01 -2.987416e+00 -5.864851e+00 -1.061799e+01 -1.590131e+01 -2.170585e+01 -2.413915e+01 -2.514454e+01 -2.543905e+01 -2.718398e+01 -3.494272e+01 -2.179458e+01 -3.445509e+00 1.095413e+01 2.391727e+00 -6.750577e+00 