# vtk DataFile Version 2.0
Comment goes here
ASCII

DATASET STRUCTURED_POINTS
DIMENSIONS    64   64   1

ORIGIN    0.000   0.000   0.000
SPACING   0.031250.03125   1.000

POINT_DATA   4096
SCALARS uX double
LOOKUP_TABLE default

3.116265e+00 2.763879e+00 3.272446e+00 2.942764e+00 3.378960e+00 3.061379e+00 3.429775e+00 3.062762e+00 3.289090e+00 2.795453e+00 2.629006e+00 2.217720e+00 1.560083e+00 1.426668e+00 3.412137e-01 5.384041e-01 -8.356649e-01 -3.740379e-01 -1.893222e+00 -1.220923e+00 -2.787995e+00 -1.918931e+00 -3.432833e+00 -2.392128e+00 -3.752312e+00 -2.621792e+00 -3.757989e+00 -2.664381e+00 -3.548062e+00 -2.603060e+00 -3.226883e+00 -2.497132e+00 -2.860538e+00 -2.368220e+00 -2.476600e+00 -2.212910e+00 -2.081856e+00 -2.021102e+00 -1.677689e+00 -1.786981e+00 -1.266673e+00 -1.511220e+00 -8.528344e-01 -1.198654e+00 -4.399194e-01 -8.555418e-01 -3.041155e-02 -4.882297e-01 3.741767e-01 -1.029584e-01 7.727196e-01 2.943391e-01 1.164526e+00 6.984042e-01 1.549128e+00 1.103815e+00 1.924360e+00 1.502834e+00 2.283432e+00 1.883557e+00 2.613192e+00 2.230207e+00 2.895899e+00 2.526809e+00 
-1.927804e+00 -1.885066e+00 -2.191388e+00 -1.671242e+00 -2.200832e+00 -1.272521e+00 -1.774312e+00 -6.472794e-01 -9.232032e-01 1.810580e-01 -2.494786e-01 7.844655e-01 1.171260e-01 1.105492e+00 2.651688e-01 1.291177e+00 3.503547e-01 1.454909e+00 4.553024e-01 1.618580e+00 6.267300e-01 1.821430e+00 8.814344e-01 2.059420e+00 1.175410e+00 2.241598e+00 1.416127e+00 2.251296e+00 1.531510e+00 2.051678e+00 1.507819e+00 1.686768e+00 1.374474e+00 1.236340e+00 1.177868e+00 7.748751e-01 9.617262e-01 3.514908e-01 7.566296e-01 -1.162399e-02 5.777441e-01 -3.117156e-01 4.277923e-01 -5.568020e-01 3.015415e-01 -7.595286e-01 1.892235e-01 -9.338813e-01 7.839156e-02 -1.093253e+00 -4.462893e-02 -1.248231e+00 -1.926874e-01 -1.404202e+00 -3.762157e-01 -1.560368e+00 -6.032065e-01 -1.709922e+00 -8.792815e-01 -1.840182e+00 -1.205105e+00 -1.931936e+00 -1.568318e+00 -1.958404e+00 
2.395428e+00 2.157240e+00 2.447297e+00 2.496202e+00 2.638789e+00 2.988515e+00 3.125064e+00 3.600406e+00 3.786290e+00 3.877789e+00 3.406290e+00 3.561373e+00 2.270394e+00 2.791137e+00 9.023580e-01 1.737004e+00 -4.192063e-01 5.660051e-01 -1.620592e+00 -5.119560e-01 -2.628868e+00 -1.328083e+00 -3.313401e+00 -1.822301e+00 -3.599931e+00 -2.082640e+00 -3.555638e+00 -2.256813e+00 -3.349646e+00 -2.427732e+00 -3.093101e+00 -2.590937e+00 -2.818108e+00 -2.700780e+00 -2.515398e+00 -2.714385e+00 -2.171405e+00 -2.613908e+00 -1.784741e+00 -2.406842e+00 -1.365570e+00 -2.115259e+00 -9.285980e-01 -1.764567e+00 -4.871030e-01 -1.376786e+00 -5.073485e-02 -9.688468e-01 3.733769e-01 -5.537754e-01 7.786303e-01 -1.417988e-01 1.158349e+00 2.595682e-01 1.505607e+00 6.442580e-01 1.811364e+00 1.005434e+00 2.062714e+00 1.335027e+00 2.244864e+00 1.627720e+00 2.350081e+00 1.890657e+00 
-2.773555e+00 -2.698112e+00 -3.302695e+00 -2.428141e+00 -3.468031e+00 -1.816483e+00 -2.808008e+00 -6.938980e-01 -9.607504e-01 1.096635e+00 5.922748e-02 2.101864e+00 3.493007e-01 2.320023e+00 2.905497e-01 2.259743e+00 3.394479e-01 2.287161e+00 5.356869e-01 2.411504e+00 8.594631e-01 2.681931e+00 1.320330e+00 3.053411e+00 1.817507e+00 3.294306e+00 2.163246e+00 3.151412e+00 2.256032e+00 2.628103e+00 2.122976e+00 1.887340e+00 1.845857e+00 1.109780e+00 1.510758e+00 4.179555e-01 1.184017e+00 -1.368066e-01 9.032758e-01 -5.545079e-01 6.799884e-01 -8.606288e-01 5.083186e-01 -1.087417e+00 3.741942e-01 -1.264649e+00 2.604532e-01 -1.417468e+00 1.478396e-01 -1.566933e+00 1.511919e-02 -1.728738e+00 -1.582648e-01 -1.909853e+00 -3.897171e-01 -2.108049e+00 -6.944967e-01 -2.313283e+00 -1.086742e+00 -2.508249e+00 -1.575851e+00 -2.666657e+00 -2.154338e+00 -2.749283e+00 
1.682534e+00 1.495809e+00 1.499715e+00 1.908810e+00 1.617022e+00 2.769518e+00 2.620549e+00 4.365759e+00 5.204043e+00 5.563786e+00 4.914534e+00 5.393253e+00 3.217396e+00 4.452054e+00 1.442946e+00 3.058703e+00 -9.535593e-02 1.413694e+00 -1.530753e+00 -7.010617e-02 -2.792796e+00 -1.071500e+00 -3.597153e+00 -1.498620e+00 -3.787054e+00 -1.627935e+00 -3.523254e+00 -1.838025e+00 -3.206055e+00 -2.242507e+00 -2.978968e+00 -2.725251e+00 -2.803144e+00 -3.122750e+00 -2.594480e+00 -3.327239e+00 -2.302583e+00 -3.312979e+00 -1.923889e+00 -3.112271e+00 -1.482716e+00 -2.780210e+00 -1.009934e+00 -2.369605e+00 -5.303061e-01 -1.920060e+00 -5.959979e-02 -1.458115e+00 3.912216e-01 -1.002674e+00 8.105696e-01 -5.682567e-01 1.185970e+00 -1.634079e-01 1.505859e+00 2.074407e-01 1.756052e+00 5.392287e-01 1.915808e+00 8.246283e-01 1.960283e+00 1.060147e+00 1.874418e+00 1.262475e+00 
-3.702338e+00 -3.762058e+00 -4.759292e+00 -3.580350e+00 -5.504518e+00 -2.901345e+00 -4.925479e+00 -1.193638e+00 -2.023607e-01 2.796914e+00 1.088479e+00 4.182720e+00 8.963366e-01 3.791088e+00 1.997974e-01 3.159555e+00 1.863675e-01 3.013889e+00 4.937705e-01 3.033545e+00 9.566068e-01 3.410789e+00 1.699389e+00 4.148261e+00 2.573819e+00 4.718788e+00 3.144726e+00 4.437306e+00 3.213043e+00 3.432723e+00 2.898889e+00 2.133089e+00 2.388618e+00 9.017880e-01 1.841506e+00 -7.478367e-02 1.360921e+00 -7.625222e-01 9.902442e-01 -1.209758e+00 7.275948e-01 -1.489465e+00 5.484797e-01 -1.667907e+00 4.241091e-01 -1.794402e+00 3.286268e-01 -1.904556e+00 2.358032e-01 -2.028144e+00 1.142293e-01 -2.189369e+00 -6.669952e-02 -2.397282e+00 -3.302141e-01 -2.646753e+00 -6.977591e-01 -2.924259e+00 -1.195675e+00 -3.210726e+00 -1.854362e+00 -3.479018e+00 -2.695451e+00 -3.686506e+00 
9.909260e-01 6.963043e-01 2.917448e-01 9.263415e-01 -2.314094e-01 1.812001e+00 6.677362e-01 5.030675e+00 8.970241e+00 8.624983e+00 7.854798e+00 8.083232e+00 4.269829e+00 6.599336e+00 1.821927e+00 4.645453e+00 1.967309e-01 2.099593e+00 -1.603922e+00 -1.175281e-01 -3.407424e+00 -1.405484e+00 -4.493122e+00 -1.496533e+00 -4.438739e+00 -1.079329e+00 -3.561906e+00 -1.187886e+00 -2.983101e+00 -1.945136e+00 -2.819555e+00 -2.928080e+00 -2.823009e+00 -3.732881e+00 -2.754723e+00 -4.158555e+00 -2.516961e+00 -4.199689e+00 -2.122932e+00 -3.951024e+00 -1.630761e+00 -3.526209e+00 -1.098820e+00 -3.016225e+00 -5.657370e-01 -2.478093e+00 -4.939070e-02 -1.942781e+00 4.403680e-01 -1.432081e+00 8.870381e-01 -9.665475e-01 1.270762e+00 -5.538499e-01 1.578875e+00 -1.918325e-01 1.796100e+00 1.186791e-01 1.892040e+00 3.665892e-01 1.818995e+00 5.358953e-01 1.525601e+00 6.269194e-01 
-4.577126e+00 -5.134658e+00 -6.519921e+00 -5.362763e+00 -8.778412e+00 -5.244484e+00 -1.029997e+01 -3.286532e+00 3.630124e+00 6.807929e+00 3.639845e+00 7.928172e+00 1.797114e+00 5.367589e+00 -5.905193e-01 3.669007e+00 -2.585290e-01 3.545257e+00 3.090768e-01 3.246626e+00 7.891698e-01 3.726248e+00 1.881307e+00 5.346766e+00 3.523635e+00 6.985554e+00 4.591507e+00 6.478267e+00 4.584662e+00 4.564985e+00 3.914253e+00 2.328233e+00 2.994092e+00 4.447030e-01 2.113431e+00 -8.570643e-01 1.425271e+00 -1.631902e+00 9.629843e-01 -2.035652e+00 6.856539e-01 -2.221501e+00 5.293927e-01 -2.301294e+00 4.420775e-01 -2.341257e+00 3.919884e-01 -2.379116e+00 3.507966e-01 -2.452312e+00 2.712304e-01 -2.603404e+00 1.064527e-01 -2.842612e+00 -1.668229e-01 -3.155628e+00 -5.694646e-01 -3.522614e+00 -1.140922e+00 -3.926592e+00 -1.945764e+00 -4.350520e+00 -3.065294e+00 -4.768442e+00 
5.308202e-01 -1.931536e-01 -9.825244e-01 -5.598083e-01 -3.254341e+00 -9.782787e-01 -5.839176e+00 3.468374e+00 1.890560e+01 1.536059e+01 1.370213e+01 1.184304e+01 4.181403e+00 9.343836e+00 1.573323e+00 6.754954e+00 8.266585e-01 2.427549e+00 -1.717373e+00 -1.113541e+00 -4.710133e+00 -2.950001e+00 -6.495764e+00 -2.075476e+00 -5.917885e+00 6.824654e-02 -3.339216e+00 2.244474e-01 -2.366418e+00 -1.354221e+00 -2.514830e+00 -3.299011e+00 -2.924878e+00 -4.730488e+00 -3.080142e+00 -5.381524e+00 -2.878760e+00 -5.380312e+00 -2.413912e+00 -4.969022e+00 -1.816552e+00 -4.360623e+00 -1.189679e+00 -3.694452e+00 -5.861039e-01 -3.036474e+00 -1.362723e-02 -2.405308e+00 5.324942e-01 -1.818096e+00 1.027023e+00 -1.313794e+00 1.432923e+00 -8.959798e-01 1.746229e+00 -5.428306e-01 1.963262e+00 -2.424881e-01 2.047677e+00 -1.273687e-02 1.918220e+00 1.001749e-01 1.456459e+00 4.440293e-02 
-5.007965e+00 -6.708517e+00 -7.960570e+00 -7.759508e+00 -1.268895e+01 -9.554204e+00 -2.099621e+01 -7.178153e+00 1.522281e+01 1.631705e+01 7.999882e+00 1.539848e+01 2.769902e+00 5.381624e+00 -3.931062e+00 3.281965e+00 -8.371898e-01 4.063035e+00 2.250419e-01 2.576407e+00 9.501412e-02 2.823678e+00 1.307126e+00 6.345559e+00 4.655841e+00 1.142332e+01 7.049681e+00 1.005070e+01 6.743997e+00 6.106594e+00 5.283103e+00 2.198903e+00 3.604244e+00 -5.921128e-01 2.197286e+00 -2.173645e+00 1.252137e+00 -2.882419e+00 7.366270e-01 -3.087553e+00 5.115328e-01 -3.063786e+00 4.345510e-01 -2.975880e+00 4.194181e-01 -2.891296e+00 4.447222e-01 -2.820519e+00 5.025368e-01 -2.800365e+00 5.116261e-01 -2.930349e+00 3.868961e-01 -3.214572e+00 1.258798e-01 -3.609147e+00 -2.707219e-01 -4.078926e+00 -8.486967e-01 -4.613213e+00 -1.714654e+00 -5.218236e+00 -3.030534e+00 -5.906344e+00 
7.860047e-01 -9.013063e-01 -1.222631e+00 -1.766379e+00 -4.540100e+00 -2.286228e+00 -1.047295e+01 9.479951e+00 3.216740e+01 2.865294e+01 2.558657e+01 1.460224e+01 -3.425738e+00 1.261026e+01 2.280493e-01 9.792928e+00 3.201800e+00 1.863446e+00 -1.732199e+00 -3.895373e+00 -7.088675e+00 -7.114222e+00 -1.076651e+01 -4.239171e+00 -9.356726e+00 3.639807e+00 -1.610240e+00 3.739206e+00 -6.893904e-01 -3.006822e-01 -2.040023e+00 -4.242441e+00 -3.313507e+00 -6.559022e+00 -3.745701e+00 -7.277403e+00 -3.481817e+00 -6.978043e+00 -2.824749e+00 -6.187328e+00 -2.028536e+00 -5.256032e+00 -1.259348e+00 -4.368821e+00 -5.788289e-01 -3.572828e+00 4.673834e-02 -2.827690e+00 6.766051e-01 -2.122508e+00 1.256222e+00 -1.576127e+00 1.689088e+00 -1.176866e+00 2.012482e+00 -8.473503e-01 2.267337e+00 -5.419890e-01 2.426379e+00 -2.833075e-01 2.373547e+00 -1.660594e-01 1.909768e+00 -3.354425e-01 
-4.420163e+00 -8.007632e+00 -7.492470e+00 -9.034471e+00 -1.067815e+01 -5.585892e+00 -1.007259e+01 1.546537e+01 1.682510e+01 2.025104e+01 6.495657e+00 1.180351e+01 -9.930206e+00 -3.861234e+00 -1.228586e+01 3.290562e+00 1.010375e-01 5.451632e+00 1.298323e+00 1.732298e-01 -1.539892e+00 -1.314807e+00 -2.175144e+00 5.124672e+00 4.864960e+00 2.270346e+01 1.222365e+01 1.666797e+01 1.049843e+01 7.805648e+00 7.101945e+00 9.628777e-01 4.004610e+00 -2.856245e+00 1.805076e+00 -4.387099e+00 6.177001e-01 -4.662939e+00 1.915617e-01 -4.387256e+00 1.699017e-01 -3.978112e+00 2.678945e-01 -3.647499e+00 3.538855e-01 -3.427206e+00 4.659207e-01 -3.215826e+00 7.018086e-01 -3.002485e+00 8.824601e-01 -3.105253e+00 8.019393e-01 -3.477827e+00 5.544305e-01 -3.986676e+00 2.114035e-01 -4.563966e+00 -2.642919e-01 -5.213657e+00 -1.024036e+00 -5.980090e+00 -2.312092e+00 -6.907800e+00 
2.074969e+00 -1.296933e+00 1.018236e-01 -2.577376e+00 2.451046e-01 4.319193e+00 1.787668e+01 4.250159e+01 2.038993e+01 4.118846e+01 2.069727e+01 6.609165e+01 2.671479e+01 2.137884e+01 7.520364e+00 1.496127e+01 9.198924e+00 -1.231264e+00 -2.492393e+00 -9.899976e+00 -1.076578e+01 -1.669445e+01 -2.074019e+01 -1.285450e+01 -1.992254e+01 1.868792e+01 6.479908e+00 1.250046e+01 2.927917e+00 4.871045e-01 -2.019805e+00 -7.167970e+00 -4.577813e+00 -1.011370e+01 -5.031703e+00 -1.022059e+01 -4.427037e+00 -9.072995e+00 -3.353467e+00 -7.546208e+00 -2.210056e+00 -6.107620e+00 -1.246186e+00 -4.956418e+00 -5.251127e-01 -4.067030e+00 9.864259e-02 -3.218835e+00 8.743148e-01 -2.265751e+00 1.633428e+00 -1.690430e+00 2.055070e+00 -1.392409e+00 2.346511e+00 -1.139217e+00 2.664812e+00 -8.139106e-01 3.015536e+00 -4.367749e-01 3.251595e+00 -1.654790e-01 3.080135e+00 -3.153330e-01 
-2.861229e+00 -9.348599e+00 -6.915305e+00 -1.172353e+01 -1.094754e+01 -1.037433e+01 1.201207e+01 1.956107e+01 -7.632822e-01 -1.965911e+01 -1.016234e+01 -2.064210e+01 -4.853417e+01 -9.759659e+00 -1.341054e+01 6.824438e+00 6.389932e+00 6.619239e+00 6.521498e+00 -4.221514e+00 -3.562118e+00 -1.241695e+01 -1.732643e+01 -8.631255e+00 -1.685839e+01 6.616278e+01 2.817865e+01 2.795856e+01 1.744276e+01 7.681406e+00 9.180288e+00 -3.472075e+00 3.541109e+00 -7.459246e+00 3.266158e-01 -7.916744e+00 -8.471409e-01 -7.061206e+00 -8.080947e-01 -5.862194e+00 -3.241625e-01 -4.827549e+00 9.739997e-02 -4.203798e+00 2.635556e-01 -3.944452e+00 3.766579e-01 -3.621107e+00 9.559375e-01 -2.901224e+00 1.502294e+00 -3.014055e+00 1.381657e+00 -3.606378e+00 1.081005e+00 -4.294559e+00 8.300174e-01 -4.967185e+00 6.068870e-01 -5.674418e+00 1.987767e-01 -6.547523e+00 -7.618875e-01 -7.727168e+00 
4.637336e+00 -8.226131e-01 1.099397e+00 -6.380356e+00 -5.667404e+00 -1.270017e+01 6.373699e+00 -5.945476e+00 -1.209313e+01 -1.796588e+01 7.408770e+00 -9.105887e+00 -1.386893e+01 3.564414e+00 -1.315607e+01 1.403185e+01 1.007668e+01 -1.417845e+01 -1.044344e+01 -1.936585e+01 -1.624435e+01 -3.931462e+01 -5.074649e+01 -5.374311e+01 -9.605712e+01 1.035058e+02 4.094909e+01 2.699069e+01 5.549914e+00 -5.569942e+00 -5.517994e+00 -1.592219e+01 -7.578897e+00 -1.661528e+01 -7.137902e+00 -1.442831e+01 -5.766385e+00 -1.154868e+01 -3.929693e+00 -8.808204e+00 -2.211892e+00 -6.660331e+00 -1.003465e+00 -5.282411e+00 -3.958640e-01 -4.535631e+00 -8.656513e-03 -3.738185e+00 1.106238e+00 -2.017017e+00 2.345583e+00 -1.519412e+00 2.548549e+00 -1.569237e+00 2.643942e+00 -1.524613e+00 3.012554e+00 -1.173028e+00 3.693615e+00 -5.366854e-01 4.508040e+00 1.875677e-01 5.093494e+00 5.282069e-01 
7.379784e-01 -1.047416e+01 -3.962953e+00 -1.393392e+01 -1.518206e+01 -1.704198e+01 -2.994943e+01 -2.428521e+01 -4.567671e+01 -2.727409e+00 -3.430950e+01 6.275294e+01 2.857320e+01 3.551960e+00 -2.638417e+01 3.944629e+00 1.322342e+01 1.611738e+01 1.543057e+01 -2.111679e+01 1.387906e+01 -2.136735e+01 -4.996460e+01 -4.196819e+01 -6.718064e+01 9.189793e+01 8.154915e+01 2.552578e+01 2.894804e+01 -3.200163e+00 9.624409e+00 -1.573795e+01 3.386781e-01 -1.557621e+01 -3.418957e+00 -1.295038e+01 -3.652183e+00 -9.968622e+00 -2.329471e+00 -7.255411e+00 -8.118796e-01 -5.286986e+00 1.477085e-01 -4.379293e+00 2.331734e-01 -4.463958e+00 -7.904292e-02 -4.390707e+00 1.240931e+00 -2.053269e+00 2.700312e+00 -2.460083e+00 2.140820e+00 -3.631347e+00 1.570865e+00 -4.612192e+00 1.432020e+00 -5.322770e+00 1.665162e+00 -5.934512e+00 1.969733e+00 -6.744366e+00 1.913423e+00 -8.136893e+00 
1.026853e+01 4.817526e+00 1.226273e+01 6.650428e+00 8.743447e+00 6.610483e+00 -1.353133e+01 -2.017571e+01 -3.689072e+01 2.288279e+01 -1.289373e+01 -4.903389e+01 -6.504541e+01 -2.991468e+01 -2.574036e+01 8.204654e+00 4.695457e+01 -4.013325e+01 -3.479859e+01 -1.899887e+01 -4.578084e+01 -8.831102e+01 -3.477575e+01 -1.841268e+01 1.944239e+01 -1.222326e+02 4.988223e+01 -7.432459e+01 -1.427474e+01 -4.440772e+01 -1.481086e+01 -3.518258e+01 -1.082433e+01 -2.576526e+01 -1.007308e+01 -1.937371e+01 -7.591254e+00 -1.389815e+01 -4.386018e+00 -9.450413e+00 -1.713013e+00 -6.394466e+00 -1.815993e-01 -4.950962e+00 -8.147823e-02 -5.017702e+00 -7.244376e-01 -5.082448e+00 1.283929e+00 -6.518216e-01 3.923890e+00 -8.267677e-01 3.124835e+00 -1.858088e+00 2.635785e+00 -2.262175e+00 3.006191e+00 -1.873454e+00 4.178873e+00 -8.059552e-01 5.896396e+00 7.492898e-01 7.923781e+00 2.575517e+00 
7.947845e+00 -7.358875e+00 1.132305e+01 -1.853550e+00 9.860387e+00 2.069172e+01 -7.947622e+00 9.025864e+00 -7.185210e+01 -7.619539e+01 -5.223357e+01 -1.111977e+02 -8.640719e+01 -5.563953e+01 -7.547578e+01 -8.084133e+01 -3.826199e+01 3.298012e+01 -5.127011e+01 -3.361089e+01 6.299356e+01 -8.454265e+00 -1.867219e+01 3.510636e+01 2.765893e+01 -1.773131e+02 4.500067e+01 -3.751739e+01 -7.488278e+00 -5.155975e+01 -3.757957e+00 -3.885218e+01 -9.958650e+00 -2.678710e+01 -1.136691e+01 -1.906559e+01 -8.179766e+00 -1.292990e+01 -4.135264e+00 -8.014863e+00 -8.443505e-01 -4.704852e+00 9.759526e-01 -3.531411e+00 6.536851e-01 -4.690947e+00 -1.242876e+00 -6.477935e+00 1.388734e+00 4.509951e-01 4.982933e+00 -1.429842e+00 2.888355e+00 -3.800296e+00 1.678190e+00 -5.183521e+00 1.690472e+00 -5.770974e+00 2.648175e+00 -5.963305e+00 4.104311e+00 -6.176847e+00 5.758504e+00 -6.842796e+00 
1.423718e+01 7.468477e+00 2.033507e+01 1.481551e+01 3.258432e+01 2.806021e+01 1.839599e+01 3.517386e+01 -1.584013e+00 3.928955e+01 -3.596780e+01 7.864655e+01 2.005446e+01 5.964783e+01 2.897721e+01 -6.286265e+01 -1.362267e+01 -1.589720e+02 -7.522027e+01 -3.438342e+01 1.367262e+02 -1.009940e+02 1.176940e+02 2.126863e+02 3.925579e+01 -5.291742e+01 -8.905639e+01 -1.942210e+02 -1.346556e+01 -7.738548e+01 4.019261e-01 -4.702453e+01 -1.534336e+01 -3.281296e+01 -1.622535e+01 -2.348487e+01 -1.021305e+01 -1.517675e+01 -4.318266e+00 -8.623089e+00 -1.138896e-01 -4.364178e+00 2.072149e+00 -2.895581e+00 1.278199e+00 -4.557499e+00 -2.330114e+00 -7.905224e+00 1.338129e+00 2.103221e+00 6.788239e+00 -2.177057e-01 2.949997e+00 -2.955777e+00 1.671035e+00 -3.889303e+00 2.141359e+00 -3.316129e+00 4.030526e+00 -1.623994e+00 6.838767e+00 9.863649e-01 1.016237e+01 4.068486e+00 
1.319582e+01 -8.882073e+00 1.905148e+01 -1.667571e+01 3.971328e+01 2.144437e+01 1.194024e+01 8.941954e+01 9.729553e+01 1.168015e+02 -7.241332e+00 4.824333e+01 -3.407331e+00 5.941699e+01 -5.991056e+01 -1.055795e+02 -5.172362e+01 -3.034029e+01 4.169383e+01 1.183212e+01 1.147994e+02 -1.467977e+02 3.146251e+02 1.494953e+02 8.842499e+01 1.084253e+02 6.931500e+00 -6.174262e+01 -2.775811e+01 -1.335250e+02 -2.740218e+01 -7.179574e+01 -3.231849e+01 -3.846742e+01 -2.340332e+01 -2.453956e+01 -1.323607e+01 -1.478476e+01 -5.251639e+00 -7.188279e+00 3.782135e-01 -1.950982e+00 3.766209e+00 -1.006257e-01 3.262433e+00 -2.795519e+00 -2.448838e+00 -6.600455e+00 1.834772e+00 4.087980e-01 7.628900e+00 -8.825990e-01 2.408867e+00 -5.076683e+00 6.049244e-01 -6.538924e+00 1.076023e+00 -6.629083e+00 3.076505e+00 -6.027617e+00 5.930492e+00 -5.324244e+00 9.033627e+00 -5.726069e+00 
1.618196e+01 8.974912e+00 1.462209e+01 1.629171e+01 1.592930e+01 4.995246e+01 4.331211e+01 -5.776108e+01 -2.184545e+01 4.716810e+01 2.080300e+02 5.604028e+01 1.273754e+02 2.319051e+01 -8.137868e+00 2.016008e+02 1.793655e+02 3.443893e+02 1.729093e+02 5.867046e+01 1.322230e+02 1.250807e+02 2.774315e+02 1.519329e+02 1.311673e+02 5.366794e+01 -2.001005e+01 6.261114e+01 -7.170522e+00 -1.061050e+01 -8.076720e+01 -3.614262e+01 -4.301224e+01 -3.893570e+01 -2.384604e+01 -2.636596e+01 -1.192264e+01 -1.446674e+01 -2.671524e+00 -5.475473e+00 3.304282e+00 7.152779e-01 7.164681e+00 2.837861e+00 6.966787e+00 1.030099e+00 1.220957e+00 -1.442617e+00 2.147240e+00 -3.966787e+00 3.519856e+00 -3.459641e+00 -9.351733e-01 -6.650536e+00 -1.168021e+00 -7.067052e+00 -2.512771e-02 -5.771430e+00 2.899502e+00 -3.296340e+00 7.119195e+00 5.104781e-01 1.159877e+01 4.791095e+00 
1.522185e+01 -9.431878e+00 -7.478534e-01 -3.390150e+01 -3.401547e+01 -8.583784e+01 9.352075e+01 -2.082466e+01 -7.493485e+01 -1.068359e+02 1.353474e+02 9.697977e+00 2.374438e+02 -1.975692e+02 1.853301e+02 1.823580e+02 -7.647065e+01 -1.534349e+02 -1.517486e+02 -1.104593e+02 -1.928097e+02 9.878495e+01 -8.740013e+01 5.732268e+00 -1.884327e+02 -1.034804e+02 -2.555422e+02 -4.946302e+02 2.985535e+01 -7.923161e+01 -9.636753e+01 -2.061890e+01 -4.698919e+01 -3.651694e+01 -2.688428e+01 -2.575969e+01 -1.536401e+01 -1.424870e+01 -4.387470e+00 -4.029572e+00 3.693197e+00 3.914776e+00 9.105011e+00 6.822377e+00 1.036151e+01 5.394651e+00 1.045206e+01 8.548057e+00 4.122088e+00 -9.942003e+00 -5.074504e+00 -7.183089e+00 -2.407701e+00 -8.746801e+00 -2.362980e+00 -9.001007e+00 -6.912434e-01 -7.951622e+00 2.638939e+00 -6.071222e+00 7.486386e+00 -3.830341e+00 1.195382e+01 -3.326294e+00 
2.562983e+01 6.596182e+00 3.173963e+01 -1.528654e+01 1.168720e+01 1.153332e+01 1.416907e+02 1.260257e+02 7.982755e+01 4.975235e+01 1.493209e+02 1.547893e+02 -3.372352e+01 -8.612872e+01 1.269470e+02 -1.401374e+02 -1.231202e+02 -2.998897e+02 -2.471909e+02 -2.593477e+02 -3.696025e+02 -4.313424e+01 -6.961687e+02 -7.435560e+02 -6.597985e+02 -1.156726e+02 -2.440415e+02 -1.488332e+02 -1.518927e+02 -2.330233e+02 -2.867368e+00 -7.447510e+01 -1.712593e+01 -5.289487e+01 -2.194248e+01 -2.819341e+01 -1.114951e+01 -1.202821e+01 1.426327e+00 3.213087e-01 8.864959e+00 7.916648e+00 1.237737e+01 7.438905e+00 1.145782e+01 1.033914e+01 2.004733e+01 1.326416e+01 4.190786e+00 -1.247887e+01 -1.548833e+01 -1.507892e+01 -3.306641e+00 -7.723827e+00 -3.529165e+00 -1.036684e+01 -2.816791e+00 -8.678074e+00 7.785179e-01 -5.341206e+00 7.834940e+00 3.245070e-01 1.608484e+01 6.816257e+00 
3.324018e+01 1.855621e+00 3.129744e+01 2.174592e+01 4.754203e+01 -4.400748e+00 -4.500380e+01 -2.309790e+02 -4.828461e+01 -5.868642e+01 -1.846692e+02 -1.573542e+02 -1.388485e+02 1.861146e+02 1.211251e+02 -1.527194e+02 -1.080983e+01 -1.921911e+02 -1.259791e+02 3.524019e+02 2.345802e+02 4.832740e+02 1.858501e+01 -3.374623e+02 -2.687698e+02 -9.119614e+01 -2.302012e+02 4.295952e+02 3.412783e+01 1.649407e+02 8.691897e+01 1.459119e+01 -3.646422e+00 -3.456173e+01 -2.508351e+01 -2.652865e+01 -1.729720e+01 -1.396793e+01 -1.026004e+00 2.493268e+00 8.177990e+00 7.084216e+00 8.112624e+00 6.252863e+00 1.509145e+01 1.481933e+01 1.714007e+01 7.127003e+00 5.459636e+00 -2.142817e+00 -4.510996e+00 -1.205552e+01 -4.256357e+00 -7.501192e+00 1.643117e+00 -6.359309e+00 -1.015754e+00 -9.726229e+00 1.082989e+00 -5.599080e+00 1.053066e+01 5.319524e-01 2.250845e+01 1.007275e+01 
3.795091e+01 8.868831e+00 3.691649e+01 -1.683115e+01 4.255162e+01 -5.751536e+01 6.039792e+01 -3.823665e+01 9.315046e+01 -3.065722e+01 -3.421927e+02 -3.059602e+02 1.540228e+01 6.028777e+01 3.077125e+01 -1.991683e+02 -1.196357e+02 4.362080e+01 6.055439e+01 -1.239244e+01 1.608430e+02 4.430721e+02 3.995867e+02 3.539667e+02 1.738866e+02 7.103201e+00 3.839100e+02 2.290841e+02 1.895691e+02 3.580641e+02 4.826708e+01 3.175465e+01 -2.912470e+01 -2.863365e+01 -3.368685e+01 -2.048587e+01 -1.010310e+01 -6.922062e+00 1.025759e+01 1.051161e+01 8.769748e+00 5.683112e+00 7.739216e+00 2.129036e+00 2.638034e+00 -5.583012e+00 -4.949989e+00 -7.826308e+00 1.891822e+00 2.080849e+00 1.202275e+01 4.781467e+00 5.239391e+00 -3.326771e+00 6.582596e-01 -5.319889e+00 -1.571810e-01 -1.136043e+01 -4.025922e+00 -8.615561e+00 8.391746e+00 1.896024e+00 2.567783e+01 1.830691e+01 
6.458153e+01 -2.066492e+01 6.842036e+00 3.812057e+01 -1.665475e+00 1.802431e+01 -7.693988e+01 1.398583e+01 1.768996e+02 3.136901e+02 1.651361e+02 -5.517621e+01 -9.660054e+00 -6.489774e+01 -1.694879e+02 -8.514611e+00 -2.098290e+01 1.554680e+02 1.475268e+02 -1.956830e+02 -2.347080e+02 1.333786e+02 -3.298608e+01 3.808104e+02 -1.081364e+02 -5.726988e+01 -1.593169e-01 -3.075323e+02 5.474172e+01 5.289297e+01 1.046515e+02 6.467908e+01 2.043786e+01 7.444663e+00 -1.263289e+01 -6.495037e+00 -1.201703e+01 -5.884882e+00 6.645470e+00 8.560951e+00 2.082477e-01 -2.387186e+00 -6.173775e+00 -1.259552e+01 -1.585154e+01 -1.970492e+01 -1.029598e+01 -9.341979e+00 3.763944e-01 -1.703049e+00 9.588228e+00 8.825055e+00 1.591598e+01 9.615753e+00 1.130136e+01 2.517784e+00 5.131504e+00 -7.874523e+00 -3.690197e+00 -8.460444e+00 8.803504e+00 2.164394e+00 2.514107e+01 9.457040e+00 
5.484022e+01 3.486719e+00 9.400575e+00 8.731878e+01 8.846617e+00 5.821423e+01 -4.509691e+01 -2.095063e+02 -1.572481e+02 -4.031910e+02 -3.122319e+02 -3.247072e+02 -2.410929e+02 -7.617830e+01 -3.130026e+02 5.423425e+01 -2.433899e+02 -2.392581e+02 -2.646459e+02 -3.481731e+02 -3.157247e+02 -6.117326e+02 -1.503955e+02 -1.779132e+02 -4.248488e+02 -5.262720e+02 -5.483479e+02 -4.515684e+02 1.904755e+00 -1.939679e+02 7.898789e+01 9.962336e+01 1.365758e+02 1.742414e+02 1.529914e+02 8.785060e+01 4.920438e+01 2.737608e+01 2.544956e+01 1.941304e+01 6.175505e+00 -3.177199e+00 -1.021315e+01 -8.772153e+00 -1.742238e+00 -6.445149e-01 5.363560e+00 8.990928e-02 4.359079e-01 -7.805728e+00 -7.310879e+00 -1.181716e+01 -4.046723e+00 -4.149810e+00 6.945485e+00 6.049467e-01 1.568357e+00 -1.051301e+01 -1.136026e+01 -1.827151e+01 -4.818667e+00 -9.940167e+00 7.578108e+00 8.587890e+00 
-3.035193e+01 3.936563e+01 -2.384970e+01 -2.583616e+01 2.048535e+02 4.977496e+01 3.382707e+02 4.839872e+01 2.517699e+02 -1.307403e+02 3.296671e+01 2.932006e+02 2.478492e+02 -5.182069e+01 -1.436314e+02 3.185811e+02 -1.408225e+02 1.893800e+02 -6.080217e+01 -1.400378e+02 2.685114e+02 -4.337400e+02 3.183658e+02 -1.518228e+02 2.585598e+02 -4.008433e+01 -6.341012e+01 9.256927e+01 -3.347219e+02 -1.036540e+02 -5.095883e+01 -1.240197e+01 6.923680e+01 7.747736e+01 6.965850e+01 4.098931e+01 4.066297e+01 3.555085e+01 1.304695e+01 -6.284734e-01 -1.199283e+01 -1.425644e+01 -7.618252e+00 -5.221821e+00 3.081583e+00 3.172635e+00 6.414586e+00 1.831232e+00 3.300679e+00 -1.805891e+00 8.472419e-02 -3.652505e+00 2.703937e+00 2.717894e+00 1.090498e+01 1.158536e+01 1.873625e+01 1.030828e+01 8.114497e+00 -7.588913e+00 -9.897069e+00 -1.765461e+01 -1.136074e+01 -1.788243e+00 
-1.134360e+02 -7.016889e+01 -8.656323e+01 -8.094766e+01 6.906678e+01 8.595927e+00 1.396291e+01 4.429786e+02 2.900054e+02 1.677539e+02 5.623929e+02 7.325937e+01 2.729534e+02 -1.733449e+02 -6.349299e+01 2.277207e+01 -1.658380e+02 4.815866e+02 2.454898e+02 6.717424e+02 2.667607e+02 2.543347e+02 2.842215e+02 3.383044e+02 5.946749e+02 5.774124e+02 3.430379e+02 4.995636e+02 -2.799212e+02 2.243925e+02 2.066440e+01 -4.592174e+01 3.145967e+01 -3.636282e+01 6.501400e+00 4.271880e+01 6.263423e+01 3.799457e+01 -6.442208e+00 -1.241608e+01 -1.856607e+01 -1.919592e+01 -1.223838e+01 -1.179182e+01 -6.007841e+00 -6.869643e+00 -2.408435e+00 -4.284600e+00 5.086770e-01 -1.106891e+00 3.908577e+00 2.128773e+00 7.416794e+00 6.045908e+00 1.189544e+01 1.004543e+01 1.228063e+01 6.711214e+00 8.118768e+00 -1.644085e+01 -2.689670e+01 -3.473050e+01 -3.174022e+01 -6.463525e+01 
-1.298038e+01 -8.025502e+01 1.149278e+01 -7.625040e+01 -1.100243e+02 -9.599766e+01 -2.219648e+02 -1.994962e+02 -3.122577e+02 -1.032739e+02 -5.275724e+01 -4.227128e+02 -5.405541e+01 -2.484410e+01 3.364881e+02 -2.616377e+02 4.052622e+02 3.470764e+02 3.441843e+01 8.815819e+01 -3.502584e+02 -2.278764e+02 -6.924284e+02 -1.103477e+02 -1.965905e+02 2.103363e+02 1.788232e+02 9.971227e+01 -1.941410e+02 -1.247046e+02 -1.936185e+02 -6.975465e+01 -2.631633e+01 3.414312e+00 2.995979e+01 3.623688e+01 2.443515e+01 -1.258339e+01 -1.505353e+01 -6.725776e+00 -1.494285e+00 -1.027449e+01 -8.040849e+00 -9.600481e+00 -4.603788e+00 -6.178274e+00 -1.100155e+00 -2.673331e+00 2.997538e+00 2.688748e+00 7.475059e+00 6.516731e+00 1.113468e+01 1.027984e+01 1.694408e+01 1.382511e+01 1.805613e+01 1.814379e+01 2.645572e+01 2.210298e+01 1.660155e+01 2.484518e+01 3.364511e+01 2.596966e+01 
-5.004677e+01 -6.104032e+01 -7.290113e+01 -1.095948e+02 -3.861285e+01 -1.367461e+02 9.382413e+01 -3.090840e+02 1.324973e+02 1.150583e+02 -1.972901e+02 -4.443907e+02 -1.450610e+02 -1.300859e+02 3.305419e+02 2.524164e+02 5.218625e+02 1.820090e+02 7.004942e+01 -9.605538e+01 2.877885e+02 1.243125e+02 -7.738311e+01 -2.446669e+02 3.289610e+02 2.500412e+02 2.492582e+02 1.084698e+02 1.747288e+02 -6.626437e+01 -1.518034e+02 6.182621e+01 -6.680769e+01 2.530133e+01 -2.971063e+01 -8.926724e+00 -3.086336e+01 -1.583469e+01 7.138921e+00 1.021076e+01 1.155948e+01 4.172077e+00 1.536743e+00 -3.246965e+00 -3.154180e+00 -5.705210e+00 -3.001656e+00 -4.692694e+00 7.676001e-02 -3.410882e-01 3.432591e+00 1.287726e+00 3.947371e+00 -3.258592e-01 1.059949e+00 -5.202610e+00 -1.423961e-01 -3.780175e+00 5.195441e+00 1.109224e+01 -5.488434e+00 -2.564218e+01 -6.695099e+01 -6.041999e+01 
-6.019464e+00 6.132977e+01 5.990119e+01 1.290396e+02 2.101332e+01 4.795777e+01 3.707546e+02 1.431282e+02 5.899080e+01 -1.107871e+02 2.208297e+02 4.139588e+01 -1.763185e+02 -1.423467e+02 -1.026190e+02 1.058643e+02 2.513686e+02 -3.966912e+02 4.297004e+02 -2.712062e+02 -2.410127e+01 -5.694512e+01 8.640979e+01 -1.079042e+02 6.221724e+02 -9.293141e+01 3.432409e+02 3.312854e+02 3.670157e+02 4.013391e+02 1.901026e+02 1.539025e+02 3.404239e+01 4.986118e+01 1.089386e+01 1.838646e+01 2.736975e+00 1.385684e+01 1.943646e+01 9.322981e+00 1.812224e+01 1.115951e+01 1.386765e+01 6.028218e+00 5.833304e+00 1.183401e+00 2.689363e+00 -1.205798e-01 3.019344e+00 1.778260e+00 3.689353e+00 1.123119e+00 1.557379e+00 -2.466938e+00 -2.834207e+00 -3.783448e+00 -6.151942e-01 5.578957e+00 1.347186e+01 2.148564e+01 2.221994e+01 6.959636e+00 -1.947524e+01 -2.677170e+01 
1.910046e+00 8.569195e+00 1.732053e+01 2.153725e+01 -7.620040e+01 1.481562e+01 -7.914330e+01 6.450522e+01 -1.440011e+02 -2.274613e+02 -6.731385e+00 2.436393e+02 -5.678904e+01 -5.288606e+01 -1.129543e+02 -3.750217e+02 6.180085e+01 -2.385980e+02 8.411431e+01 1.750046e+02 3.446736e+02 -2.381557e+02 -1.745391e+02 2.164802e+02 -3.281999e+01 -3.351646e+02 -2.771977e+02 -5.676062e+01 6.450147e+01 1.950065e+01 1.121047e+02 6.048770e+01 3.345939e+01 2.658289e+01 2.302821e+00 -5.315978e+00 -1.398294e+01 -2.050317e-01 -2.385676e+00 -9.200064e+00 1.185068e+01 1.120701e+01 1.691963e+01 9.814234e+00 7.240188e+00 1.690474e+00 1.231863e+00 -2.126093e+00 -4.744066e-01 -2.526067e+00 -1.860935e+00 -5.815677e+00 -6.914763e+00 -1.314248e+01 -1.372025e+01 -1.434497e+01 -7.779534e+00 1.449465e+00 6.805731e+00 8.896602e+00 2.173983e+01 1.699115e+01 2.417973e+01 1.143910e+01 
-1.608607e+01 1.904251e+01 -2.232254e+01 4.216724e+00 1.638149e+01 1.586047e+02 -1.952920e+02 -6.271321e+01 -1.316985e+02 7.956141e+01 -1.447852e+02 -1.953823e+02 1.123468e+01 -6.934530e+01 2.770832e+01 -1.349555e+02 9.260235e+01 -6.424315e+01 1.968691e+02 1.125630e+02 5.819465e+02 1.375024e+02 1.556984e+02 -1.369624e+02 -1.257527e+02 -6.465701e+01 -2.750787e+02 1.125802e+02 3.008948e+02 -1.270922e+02 9.533598e+01 4.329334e+01 9.727645e+01 4.096794e+01 3.048353e+01 1.102704e+01 1.246590e+01 1.181462e+01 1.091225e+01 -3.272638e+00 1.610815e+01 1.327546e+01 1.902164e+01 1.096286e+01 9.430759e+00 3.574689e+00 3.877957e+00 6.550287e-01 2.721703e+00 1.411862e+00 1.998179e+00 -5.678108e-01 -2.019683e+00 -6.225258e+00 -7.226101e+00 -5.506888e+00 1.060639e+00 1.115875e+01 1.325147e+01 1.497663e+01 2.172070e+01 1.389554e+01 2.043613e+00 5.904310e+00 