# vtk DataFile Version 2.0
Comment goes here
ASCII

DATASET STRUCTURED_POINTS
DIMENSIONS    64   64   1

ORIGIN    0.000   0.000   0.000
SPACING   0.031250.03125   1.000

POINT_DATA   4096
SCALARS uX double
LOOKUP_TABLE default

-5.393512e-03 1.386402e-01 2.750867e-01 4.032475e-01 5.144536e-01 6.078579e-01 6.768997e-01 7.213307e-01 7.371449e-01 7.253166e-01 6.846796e-01 6.177672e-01 5.262347e-01 4.141591e-01 2.855416e-01 1.456608e-01 -4.735620e-05 -1.457418e-01 -2.856284e-01 -4.142277e-01 -5.262994e-01 -6.178137e-01 -6.847123e-01 -7.253344e-01 -7.371413e-01 -7.213177e-01 -6.768615e-01 -6.078164e-01 -5.143874e-01 -4.031841e-01 -2.750025e-01 -1.385647e-01 5.483811e-03 1.468894e-01 2.858425e-01 4.113072e-01 5.248227e-01 6.155049e-01 6.865574e-01 7.282883e-01 7.456927e-01 7.312577e-01 6.916648e-01 6.223440e-01 5.312065e-01 4.170562e-01 2.881312e-01 1.466562e-01 -4.839134e-05 -1.467286e-01 -2.882201e-01 -4.171169e-01 -5.312732e-01 -6.223833e-01 -6.916994e-01 -7.312694e-01 -7.456908e-01 -7.282705e-01 -6.865206e-01 -6.154600e-01 -5.247575e-01 -4.112418e-01 -2.857588e-01 -1.468132e-01 
-5.288965e-03 1.417533e-01 2.808174e-01 4.118723e-01 5.249908e-01 6.208103e-01 6.906794e-01 7.367381e-01 7.520497e-01 7.408408e-01 6.983797e-01 6.309790e-01 5.366245e-01 4.229882e-01 2.911150e-01 1.487627e-01 -3.590478e-05 -1.488212e-01 -2.911807e-01 -4.230380e-01 -5.366731e-01 -6.310131e-01 -6.984036e-01 -7.408544e-01 -7.520460e-01 -7.367293e-01 -6.906494e-01 -6.207806e-01 -5.249398e-01 -4.118262e-01 -2.807529e-01 -1.416981e-01 5.357955e-03 1.496700e-01 2.913452e-01 4.196043e-01 5.351395e-01 6.281416e-01 7.001306e-01 7.434031e-01 7.604131e-01 7.465272e-01 7.052123e-01 6.353561e-01 5.414861e-01 4.257571e-01 2.936462e-01 1.497130e-01 -3.806703e-05 -1.497653e-01 -2.937161e-01 -4.258009e-01 -5.415385e-01 -6.353846e-01 -7.052393e-01 -7.465358e-01 -7.604118e-01 -7.433902e-01 -7.001023e-01 -6.281088e-01 -5.350895e-01 -4.195563e-01 -2.912811e-01 -1.496142e-01 
-5.447697e-03 1.490682e-01 2.956514e-01 4.332528e-01 5.529240e-01 6.534332e-01 7.280079e-01 7.760770e-01 7.935018e-01 7.810820e-01 7.376641e-01 6.657906e-01 5.673501e-01 4.465981e-01 3.079833e-01 1.571106e-01 -5.130463e-05 -1.571977e-01 -3.080772e-01 -4.466718e-01 -5.674198e-01 -6.658403e-01 -7.376989e-01 -7.811009e-01 -7.934974e-01 -7.760628e-01 -7.279664e-01 -6.533884e-01 -5.528528e-01 -4.331846e-01 -2.955611e-01 -1.489869e-01 5.544296e-03 1.574059e-01 3.065332e-01 4.414179e-01 5.634495e-01 6.612128e-01 7.378597e-01 7.831934e-01 8.022717e-01 7.871929e-01 7.448717e-01 6.705221e-01 5.725046e-01 4.496045e-01 3.106765e-01 1.581456e-01 -5.233781e-05 -1.582238e-01 -3.107724e-01 -4.496699e-01 -5.725763e-01 -6.705644e-01 -7.449083e-01 -7.872056e-01 -8.022690e-01 -7.831744e-01 -7.378197e-01 -6.611647e-01 -5.633793e-01 -4.413477e-01 -3.064435e-01 -1.573240e-01 
-5.405719e-03 1.629950e-01 3.227410e-01 4.730389e-01 6.034631e-01 7.138047e-01 7.949867e-01 8.485531e-01 8.670849e-01 8.548053e-01 8.064646e-01 7.291152e-01 6.203797e-01 4.892306e-01 3.367563e-01 1.721240e-01 -4.201238e-05 -1.721911e-01 -3.368330e-01 -4.892876e-01 -6.204358e-01 -7.291542e-01 -8.064915e-01 -8.548208e-01 -8.670796e-01 -8.485429e-01 -7.949516e-01 -7.137705e-01 -6.034045e-01 -4.729857e-01 -3.226675e-01 -1.629312e-01 5.484204e-03 1.711014e-01 3.335337e-01 4.809912e-01 6.139347e-01 7.214054e-01 8.048326e-01 8.555334e-01 8.758948e-01 8.608242e-01 8.137404e-01 7.337923e-01 6.256030e-01 4.922099e-01 3.394916e-01 1.731502e-01 -4.433994e-05 -1.732110e-01 -3.395727e-01 -4.922607e-01 -6.256630e-01 -7.338255e-01 -8.137704e-01 -8.608345e-01 -8.758919e-01 -8.555190e-01 -8.047991e-01 -7.213679e-01 -6.138770e-01 -4.809361e-01 -3.334606e-01 -1.710370e-01 
-5.605170e-03 1.817098e-01 3.600564e-01 5.272770e-01 6.736058e-01 7.965621e-01 8.887273e-01 9.484733e-01 9.711988e-01 9.571432e-01 9.051162e-01 8.177049e-01 6.975007e-01 5.493209e-01 3.790801e-01 1.933771e-01 -6.393808e-05 -1.934836e-01 -3.791966e-01 -5.494104e-01 -6.975859e-01 -8.177647e-01 -9.051572e-01 -9.571655e-01 -9.711912e-01 -9.484554e-01 -8.886752e-01 -7.965070e-01 -6.735188e-01 -5.271934e-01 -3.599476e-01 -1.816105e-01 5.721299e-03 1.903083e-01 3.713106e-01 5.357595e-01 6.846049e-01 8.047515e-01 8.991816e-01 9.560900e-01 9.806719e-01 9.637973e-01 9.130379e-01 8.229360e-01 7.032473e-01 5.526823e-01 3.821106e-01 1.945410e-01 -6.497418e-05 -1.946379e-01 -3.822292e-01 -5.527629e-01 -7.033346e-01 -8.229880e-01 -9.130809e-01 -9.638132e-01 -9.806662e-01 -9.560673e-01 -8.991310e-01 -8.046931e-01 -6.845190e-01 -5.356740e-01 -3.712023e-01 -1.902084e-01 
-5.614875e-03 2.082185e-01 4.120796e-01 6.034678e-01 7.711205e-01 9.127996e-01 1.018711e+00 1.088858e+00 1.114841e+00 1.100724e+00 1.040025e+00 9.414682e-01 8.016807e-01 6.327110e-01 4.355719e-01 2.226982e-01 -5.550319e-05 -2.227838e-01 -4.356727e-01 -6.327834e-01 -8.017529e-01 -9.415174e-01 -1.040057e+00 -1.100743e+00 -1.114832e+00 -1.088845e+00 -1.018664e+00 -9.127555e-01 -7.710456e-01 -6.033992e-01 -4.119871e-01 -2.081362e-01 5.713267e-03 2.166695e-01 4.233621e-01 6.118381e-01 7.822206e-01 9.209385e-01 1.029363e+00 1.096495e+00 1.124597e+00 1.107455e+00 1.048263e+00 9.467997e-01 8.077021e-01 6.361545e-01 4.387614e-01 2.238925e-01 -5.818761e-05 -2.239715e-01 -4.388672e-01 -6.362203e-01 -8.077787e-01 -9.468427e-01 -1.048299e+00 -1.107469e+00 -1.124590e+00 -1.096477e+00 -1.029317e+00 -9.208909e-01 -7.821464e-01 -6.117674e-01 -4.232699e-01 -2.165865e-01 
-5.827217e-03 2.407124e-01 4.765977e-01 6.976098e-01 8.927577e-01 1.057098e+00 1.182142e+00 1.264136e+00 1.297475e+00 1.281316e+00 1.214092e+00 1.098548e+00 9.384266e-01 7.395869e-01 5.108823e-01 2.605571e-01 -8.791835e-05 -2.606998e-01 -5.110411e-01 -7.397050e-01 -9.385403e-01 -1.098626e+00 -1.214143e+00 -1.281345e+00 -1.297460e+00 -1.264112e+00 -1.182070e+00 -1.057024e+00 -8.926419e-01 -6.974979e-01 -4.764555e-01 -2.405801e-01 5.977928e-03 2.496873e-01 4.884068e-01 7.065856e-01 9.045201e-01 1.065976e+00 1.193635e+00 1.272643e+00 1.308222e+00 1.288973e+00 1.223353e+00 1.104724e+00 9.453086e-01 7.436298e-01 5.145675e-01 2.619700e-01 -8.893916e-05 -2.621019e-01 -5.147284e-01 -7.437379e-01 -9.454245e-01 -1.104793e+00 -1.223406e+00 -1.288995e+00 -1.308209e+00 -1.272613e+00 -1.193564e+00 -1.065899e+00 -9.044055e-01 -7.064720e-01 -4.882653e-01 -2.495545e-01 
-5.864108e-03 2.829868e-01 5.600529e-01 8.197842e-01 1.050201e+00 1.245033e+00 1.393877e+00 1.493341e+00 1.533554e+00 1.517793e+00 1.437142e+00 1.303376e+00 1.110758e+00 8.774739e-01 6.038871e-01 3.087384e-01 -7.931709e-05 -3.088560e-01 -6.040301e-01 -8.775719e-01 -1.110857e+00 -1.303443e+00 -1.437182e+00 -1.517820e+00 -1.533535e+00 -1.493324e+00 -1.393811e+00 -1.244972e+00 -1.050099e+00 -8.196894e-01 -5.599297e-01 -2.828729e-01 5.994591e-03 2.918637e-01 5.719635e-01 8.287235e-01 1.062196e+00 1.253981e+00 1.405783e+00 1.502038e+00 1.544876e+00 1.525729e+00 1.447045e+00 1.309848e+00 1.118194e+00 8.817394e-01 6.078921e-01 3.102323e-01 -8.262539e-05 -3.103429e-01 -6.080414e-01 -8.818303e-01 -1.118299e+00 -1.309908e+00 -1.447088e+00 -1.525750e+00 -1.544860e+00 -1.502015e+00 -1.405717e+00 -1.253917e+00 -1.062095e+00 -8.286263e-01 -5.718402e-01 -2.917489e-01 
-6.036212e-03 3.331031e-01 6.594471e-01 9.654029e-01 1.238771e+00 1.470156e+00 1.649718e+00 1.769725e+00 1.822549e+00 1.805460e+00 1.715349e+00 1.555550e+00 1.331179e+00 1.049901e+00 7.261027e-01 3.699810e-01 -1.288136e-04 -3.701844e-01 -7.263314e-01 -1.050063e+00 -1.331338e+00 -1.555657e+00 -1.715413e+00 -1.805499e+00 -1.822519e+00 -1.769690e+00 -1.649610e+00 -1.470051e+00 -1.238610e+00 -9.652455e-01 -6.592541e-01 -3.329180e-01 6.239303e-03 3.424525e-01 6.718621e-01 9.749694e-01 1.251519e+00 1.479997e+00 1.662725e+00 1.779599e+00 1.835311e+00 1.814749e+00 1.726845e+00 1.563322e+00 1.340019e+00 1.055119e+00 7.309356e-01 3.718270e-01 -1.297441e-04 -3.720174e-01 -7.311663e-01 -1.055270e+00 -1.340181e+00 -1.563419e+00 -1.726912e+00 -1.814782e+00 -1.835283e+00 -1.779559e+00 -1.662620e+00 -1.479889e+00 -1.251359e+00 -9.748107e-01 -6.716698e-01 -3.422671e-01 
-6.054992e-03 3.956756e-01 7.837597e-01 1.147595e+00 1.475696e+00 1.754129e+00 1.973000e+00 2.121641e+00 2.188374e+00 2.173806e+00 2.064322e+00 1.876927e+00 1.600346e+00 1.265107e+00 8.691722e-01 4.435648e-01 -1.189359e-04 -4.437344e-01 -8.693860e-01 -1.265243e+00 -1.600486e+00 -1.877019e+00 -2.064366e+00 -2.173847e+00 -2.188336e+00 -2.121619e+00 -1.972900e+00 -1.754043e+00 -1.475554e+00 -1.147458e+00 -7.835913e-01 -3.955117e-01 6.232254e-03 4.049161e-01 7.962666e-01 1.157157e+00 1.488763e+00 1.764151e+00 1.986653e+00 2.131909e+00 2.202101e+00 2.183650e+00 2.076937e+00 1.885276e+00 1.610166e+00 1.270752e+00 8.745723e-01 4.455641e-01 -1.232769e-04 -4.457263e-01 -8.747942e-01 -1.270880e+00 -1.610312e+00 -1.885360e+00 -2.076985e+00 -2.183683e+00 -2.202064e+00 -2.131880e+00 -1.986553e+00 -1.764060e+00 -1.488619e+00 -1.157017e+00 -7.960976e-01 -4.047512e-01 
-6.095405e-03 4.685968e-01 9.285286e-01 1.360839e+00 1.753332e+00 2.088553e+00 2.355677e+00 2.539333e+00 2.627923e+00 2.615354e+00 2.493649e+00 2.268226e+00 1.944746e+00 1.534487e+00 1.062634e+00 5.398537e-01 -1.981330e-04 -5.401578e-01 -1.062972e+00 -1.534710e+00 -1.944973e+00 -2.268375e+00 -2.493724e+00 -2.615414e+00 -2.627859e+00 -2.539282e+00 -2.355512e+00 -2.088399e+00 -1.753102e+00 -1.360612e+00 -9.282634e-01 -4.683320e-01 6.371698e-03 4.781020e-01 9.413568e-01 1.370938e+00 1.767135e+00 2.099599e+00 2.370701e+00 2.551191e+00 2.643717e+00 2.627210e+00 2.508775e+00 2.278622e+00 1.956905e+00 1.541694e+00 1.069450e+00 5.424385e-01 -1.987600e-04 -5.427261e-01 -1.069790e+00 -1.541903e+00 -1.957135e+00 -2.278760e+00 -2.508853e+00 -2.627262e+00 -2.643656e+00 -2.551136e+00 -2.370539e+00 -2.099444e+00 -1.766907e+00 -1.370710e+00 -9.410925e-01 -4.778373e-01 
-6.018522e-03 5.568520e-01 1.105287e+00 1.620708e+00 2.095717e+00 2.502088e+00 2.833940e+00 3.065149e+00 3.182636e+00 3.179033e+00 3.031700e+00 2.765951e+00 2.357233e+00 1.862480e+00 1.271812e+00 6.435291e-01 -1.833976e-04 -6.437852e-01 -1.272147e+00 -1.862668e+00 -2.357428e+00 -2.766079e+00 -3.031735e+00 -3.179100e+00 -3.182557e+00 -3.065123e+00 -2.833789e+00 -2.501962e+00 -2.095517e+00 -1.620507e+00 -1.105056e+00 -5.566112e-01 6.260395e-03 5.661337e-01 1.118051e+00 1.630754e+00 2.109827e+00 2.513400e+00 2.849852e+00 3.077665e+00 3.199952e+00 3.191859e+00 3.048714e+00 2.777377e+00 2.371069e+00 1.870427e+00 1.279595e+00 6.463691e-01 -1.894294e-04 -6.466180e-01 -1.279941e+00 -1.870607e+00 -2.371272e+00 -2.777496e+00 -3.048753e+00 -3.191917e+00 -3.199873e+00 -3.077630e+00 -2.849699e+00 -2.513269e+00 -2.109624e+00 -1.630550e+00 -1.117819e+00 -5.658919e-01 
-5.782767e-03 6.583368e-01 1.307534e+00 1.920974e+00 2.490651e+00 2.984195e+00 3.392358e+00 3.684188e+00 3.840695e+00 3.848876e+00 3.687078e+00 3.367365e+00 2.891273e+00 2.280032e+00 1.581367e+00 7.969150e-01 -3.241582e-04 -7.973967e-01 -1.581860e+00 -2.280314e+00 -2.891604e+00 -3.367581e+00 -3.687144e+00 -3.848977e+00 -3.840559e+00 -3.684112e+00 -3.392101e+00 -2.983962e+00 -2.490325e+00 -1.920639e+00 -1.307173e+00 -6.579560e-01 6.155192e-03 6.674022e-01 1.320163e+00 1.931249e+00 2.505260e+00 2.996585e+00 3.409843e+00 3.698855e+00 3.860945e+00 3.864763e+00 3.708137e+00 3.382107e+00 2.909152e+00 2.290647e+00 1.591665e+00 8.007762e-01 -3.239098e-04 -8.012362e-01 -1.592158e+00 -2.290910e+00 -2.909486e+00 -3.382309e+00 -3.708208e+00 -3.864857e+00 -3.860813e+00 -3.698777e+00 -3.409590e+00 -2.996352e+00 -2.504936e+00 -1.930916e+00 -1.319802e+00 -6.670220e-01 
-5.487071e-03 7.769214e-01 1.547622e+00 2.276242e+00 2.967792e+00 3.568082e+00 4.084153e+00 4.457350e+00 4.676359e+00 4.711359e+00 4.523326e+00 4.147369e+00 3.525893e+00 2.775451e+00 1.855765e+00 9.064637e-01 -2.806868e-04 -9.068778e-01 -1.856338e+00 -2.775699e+00 -3.526145e+00 -4.147548e+00 -4.523293e+00 -4.711488e+00 -4.676202e+00 -4.457323e+00 -4.083930e+00 -3.567892e+00 -2.967516e+00 -2.275940e+00 -1.547308e+00 -7.765646e-01 5.815430e-03 7.854764e-01 1.559786e+00 2.286268e+00 2.982485e+00 3.580755e+00 4.102711e+00 4.473026e+00 4.698954e+00 4.728900e+00 4.547613e+00 4.163937e+00 3.546631e+00 2.787275e+00 1.867660e+00 9.106663e-01 -2.894797e-04 -9.110749e-01 -1.868249e+00 -2.787514e+00 -3.546895e+00 -4.164103e+00 -4.547585e+00 -4.729015e+00 -4.698793e+00 -4.472989e+00 -4.102482e+00 -3.580559e+00 -2.982203e+00 -2.285963e+00 -1.559469e+00 -7.851187e-01 
-4.770232e-03 9.108896e-01 1.816847e+00 2.680803e+00 3.509812e+00 4.243602e+00 4.883686e+00 5.365482e+00 5.658084e+00 5.730589e+00 5.525665e+00 5.072433e+00 4.350566e+00 3.419784e+00 2.384744e+00 1.183725e+00 -6.063995e-04 -1.184568e+00 -2.385356e+00 -3.420007e+00 -4.351078e+00 -5.072793e+00 -5.525645e+00 -5.730793e+00 -5.657797e+00 -5.365354e+00 -4.883289e+00 -4.243233e+00 -3.509357e+00 -2.680309e+00 -1.816364e+00 -9.103471e-01 5.261216e-03 9.183021e-01 1.827990e+00 2.690349e+00 3.524328e+00 4.257177e+00 4.903719e+00 5.384041e+00 5.684701e+00 5.752910e+00 5.556646e+00 5.094501e+00 4.378627e+00 3.436389e+00 2.401327e+00 1.189943e+00 -6.037004e-04 -1.190756e+00 -2.401938e+00 -3.436587e+00 -4.379143e+00 -5.094842e+00 -5.556634e+00 -5.753106e+00 -5.684421e+00 -5.383915e+00 -4.903326e+00 -4.256814e+00 -3.523876e+00 -2.689860e+00 -1.827508e+00 -9.177613e-01 
-4.082757e-03 1.059818e+00 2.122901e+00 3.139452e+00 4.143622e+00 5.036448e+00 5.858233e+00 6.483521e+00 6.914280e+00 7.060060e+00 6.859336e+00 6.342894e+00 5.374018e+00 4.193453e+00 2.576507e+00 1.049524e+00 -3.382394e-04 -1.050252e+00 -2.577750e+00 -4.193739e+00 -5.374190e+00 -6.343158e+00 -6.859062e+00 -7.060364e+00 -6.914001e+00 -6.483492e+00 -5.857931e+00 -5.036140e+00 -4.143252e+00 -3.138989e+00 -2.122477e+00 -1.059291e+00 4.525434e-03 1.066166e+00 2.132794e+00 3.148273e+00 4.157562e+00 5.050128e+00 5.879236e+00 6.503549e+00 6.944430e+00 7.085246e+00 6.896109e+00 6.368368e+00 5.406964e+00 4.211924e+00 2.595444e+00 1.055448e+00 -3.513615e-04 -1.056176e+00 -2.596710e+00 -4.212200e+00 -5.407159e+00 -6.368611e+00 -6.895839e+00 -7.085530e+00 -6.944139e+00 -6.503508e+00 -5.878920e+00 -5.049815e+00 -4.157181e+00 -3.147809e+00 -2.132366e+00 -1.065639e+00 
-2.641017e-03 1.222342e+00 2.454874e+00 3.648255e+00 4.848464e+00 5.944742e+00 6.976484e+00 7.805408e+00 8.388784e+00 8.641970e+00 8.423207e+00 7.781953e+00 6.598146e+00 5.081227e+00 3.664280e+00 1.931229e+00 -1.657098e-03 -1.933180e+00 -3.664563e+00 -5.080791e+00 -6.599143e+00 -7.782838e+00 -8.422789e+00 -8.642410e+00 -8.388215e+00 -7.805123e+00 -6.975899e+00 -5.944127e+00 -4.847851e+00 -3.647530e+00 -2.454248e+00 -1.221591e+00 3.268115e-03 1.225965e+00 2.462279e+00 3.655167e+00 4.860756e+00 5.958544e+00 6.997962e+00 7.829141e+00 8.423832e+00 8.674899e+00 8.471312e+00 7.816677e+00 6.645267e+00 5.108012e+00 3.691074e+00 1.941861e+00 -1.646395e-03 -1.943766e+00 -3.691354e+00 -5.107542e+00 -6.646273e+00 -7.817532e+00 -8.470909e+00 -8.675336e+00 -8.423272e+00 -7.828869e+00 -6.997381e+00 -5.957944e+00 -4.860144e+00 -3.654451e+00 -2.461654e+00 -1.225217e+00 
-1.376504e-03 1.388845e+00 2.804677e+00 4.186283e+00 5.626020e+00 6.955838e+00 8.291992e+00 9.379251e+00 1.026241e+01 1.069440e+01 1.061530e+01 9.956832e+00 8.507996e+00 6.987360e+00 3.933689e+00 4.184069e-01 6.248626e-04 -4.177824e-01 -3.933080e+00 -6.985815e+00 -8.507200e+00 -9.957563e+00 -1.061439e+01 -1.069521e+01 -1.026207e+01 -9.379144e+00 -8.291638e+00 -6.955294e+00 -5.625525e+00 -4.185572e+00 -2.804106e+00 -1.388087e+00 1.969611e-03 1.390497e+00 2.809545e+00 4.191487e+00 5.636204e+00 6.968999e+00 8.313326e+00 9.404914e+00 1.030236e+01 1.073251e+01 1.067477e+01 9.998681e+00 8.562591e+00 7.020004e+00 3.977344e+00 4.387455e-01 6.040329e-04 -4.381448e-01 -3.976768e+00 -7.018452e+00 -8.561852e+00 -9.999368e+00 -1.067386e+01 -1.073329e+01 -1.030199e+01 -9.404796e+00 -8.312945e+00 -6.968454e+00 -5.635695e+00 -4.190778e+00 -2.808968e+00 -1.389739e+00 
9.838866e-04 1.555711e+00 3.156939e+00 4.746264e+00 6.452567e+00 8.083515e+00 9.786784e+00 1.127001e+01 1.250434e+01 1.325936e+01 1.324573e+01 1.237466e+01 1.043637e+01 6.422923e+00 -1.326289e-01 -2.056747e+00 -6.567031e-03 2.045357e+00 1.191038e-01 -6.427645e+00 -1.043676e+01 -1.237818e+01 -1.324390e+01 -1.325999e+01 -1.250344e+01 -1.126922e+01 -9.785996e+00 -8.082474e+00 -6.451765e+00 -4.745234e+00 -3.156157e+00 -1.554723e+00 -2.148911e-04 1.552252e+00 3.157233e+00 4.746927e+00 6.458386e+00 8.094446e+00 9.805366e+00 1.129972e+01 1.254782e+01 1.331097e+01 1.332416e+01 1.243172e+01 1.052470e+01 6.471983e+00 -1.028625e-01 -2.069310e+00 -6.506841e-03 2.058004e+00 8.941312e-02 -6.476593e+00 -1.052514e+01 -1.243517e+01 -1.332237e+01 -1.331162e+01 -1.254693e+01 -1.129897e+01 -9.804577e+00 -8.093434e+00 -6.457585e+00 -4.745912e+00 -3.156452e+00 -1.551268e+00 
2.871151e-03 1.699380e+00 3.471901e+00 5.263208e+00 7.264530e+00 9.227557e+00 1.142708e+01 1.338509e+01 1.523470e+01 1.641229e+01 1.693940e+01 1.603497e+01 1.330798e+01 8.902428e+00 6.380016e+00 6.053178e+00 2.565693e-04 -6.050002e+00 -6.375307e+00 -8.892636e+00 -1.330751e+01 -1.603785e+01 -1.693947e+01 -1.641324e+01 -1.523496e+01 -1.338451e+01 -1.142668e+01 -9.226544e+00 -7.263820e+00 -5.262139e+00 -3.471123e+00 -1.698343e+00 -2.089325e-03 1.692768e+00 3.467946e+00 5.260350e+00 7.265183e+00 9.235501e+00 1.144143e+01 1.341640e+01 1.528226e+01 1.647443e+01 1.704279e+01 1.611210e+01 1.341575e+01 8.927108e+00 6.359934e+00 6.010920e+00 1.576660e-04 -6.007914e+00 -6.355458e+00 -8.917402e+00 -1.341541e+01 -1.611485e+01 -1.704278e+01 -1.647535e+01 -1.528243e+01 -1.341582e+01 -1.144098e+01 -9.234499e+00 -7.264457e+00 -5.259290e+00 -3.467164e+00 -1.691734e+00 
6.095581e-03 1.805617e+00 3.720308e+00 5.699661e+00 8.016340e+00 1.038340e+01 1.321080e+01 1.590292e+01 1.857889e+01 2.090770e+01 2.192730e+01 2.084501e+01 1.712406e+01 1.560670e+01 1.654023e+01 1.178478e+01 9.196024e-03 -1.177084e+01 -1.652884e+01 -1.560361e+01 -1.712518e+01 -2.084053e+01 -2.192959e+01 -2.090432e+01 -1.857881e+01 -1.590081e+01 -1.320981e+01 -1.038174e+01 -8.015303e+00 -5.698300e+00 -3.719370e+00 -1.804429e+00 -5.206843e-03 1.790960e+00 3.709451e+00 5.687949e+00 8.008484e+00 1.038287e+01 1.321476e+01 1.593535e+01 1.861793e+01 2.100052e+01 2.205552e+01 2.096181e+01 1.731696e+01 1.566439e+01 1.657282e+01 1.181044e+01 9.240995e-03 -1.179661e+01 -1.656146e+01 -1.566090e+01 -1.731811e+01 -2.095740e+01 -2.205771e+01 -2.099730e+01 -1.861781e+01 -1.593333e+01 -1.321376e+01 -1.038125e+01 -8.007447e+00 -5.686606e+00 -3.708514e+00 -1.789777e+00 
8.133670e-03 1.836657e+00 3.817679e+00 5.940650e+00 8.532328e+00 1.133166e+01 1.490618e+01 1.839320e+01 2.260505e+01 2.607060e+01 2.667252e+01 2.255767e+01 1.853592e+01 1.958068e+01 1.662542e+01 8.196430e+00 -2.352276e-03 -8.194484e+00 -1.662910e+01 -1.959492e+01 -1.854019e+01 -2.256052e+01 -2.668061e+01 -2.606817e+01 -2.260681e+01 -1.839108e+01 -1.490534e+01 -1.132978e+01 -8.531175e+00 -5.939133e+00 -3.816636e+00 -1.835374e+00 -7.162838e-03 1.818039e+00 3.801250e+00 5.922747e+00 8.514214e+00 1.132194e+01 1.489447e+01 1.842106e+01 2.263373e+01 2.618263e+01 2.686718e+01 2.278209e+01 1.868755e+01 1.958998e+01 1.668393e+01 8.255239e+00 -1.992871e-03 -8.253536e+00 -1.668737e+01 -1.960371e+01 -1.869228e+01 -2.278477e+01 -2.687476e+01 -2.618035e+01 -2.263526e+01 -1.841900e+01 -1.489359e+01 -1.132010e+01 -8.513060e+00 -5.921249e+00 -3.800213e+00 -1.816762e+00 
1.162890e-02 1.755871e+00 3.706046e+00 5.861562e+00 8.685650e+00 1.188550e+01 1.636255e+01 2.076799e+01 2.771205e+01 3.017284e+01 2.662694e+01 2.071494e+01 2.130329e+01 1.913176e+01 1.136872e+01 4.910628e+00 -2.108373e-03 -4.904373e+00 -1.136564e+01 -1.913019e+01 -2.130305e+01 -2.071807e+01 -2.662695e+01 -3.017006e+01 -2.771112e+01 -2.076456e+01 -1.636093e+01 -1.188316e+01 -8.684280e+00 -5.859971e+00 -3.705005e+00 -1.754643e+00 -1.071342e-02 1.727088e+00 3.681370e+00 5.829428e+00 8.654712e+00 1.185288e+01 1.632793e+01 2.076716e+01 2.770652e+01 3.035114e+01 2.678563e+01 2.080010e+01 2.113287e+01 1.908999e+01 1.140033e+01 4.943821e+00 -2.170779e-03 -4.938046e+00 -1.139701e+01 -1.908861e+01 -2.113324e+01 -2.080279e+01 -2.678546e+01 -3.034864e+01 -2.770549e+01 -2.076392e+01 -1.632630e+01 -1.185058e+01 -8.653343e+00 -5.827848e+00 -3.680329e+00 -1.725862e+00 
1.220454e-02 1.521025e+00 3.263226e+00 5.319681e+00 8.164909e+00 1.173633e+01 1.682287e+01 2.285105e+01 3.031672e+01 2.669498e+01 2.151400e+01 2.315019e+01 2.427370e+01 1.121365e+01 5.118941e+00 2.039907e+00 3.158395e-03 -2.043435e+00 -5.128546e+00 -1.122236e+01 -2.428859e+01 -2.314880e+01 -2.151239e+01 -2.669979e+01 -3.031464e+01 -2.284617e+01 -1.682016e+01 -1.173326e+01 -8.162981e+00 -5.317826e+00 -3.261973e+00 -1.519727e+00 -1.118699e-02 1.489754e+00 3.234769e+00 5.279506e+00 8.118966e+00 1.168171e+01 1.674748e+01 2.279998e+01 3.027019e+01 2.676035e+01 2.143866e+01 2.284623e+01 2.400328e+01 1.132719e+01 5.116634e+00 2.059595e+00 2.791889e-03 -2.062536e+00 -5.125858e+00 -1.133624e+01 -2.401726e+01 -2.284479e+01 -2.143755e+01 -2.676478e+01 -3.026799e+01 -2.279523e+01 -1.674480e+01 -1.167870e+01 -8.117086e+00 -5.277681e+00 -3.233541e+00 -1.488465e+00 
1.473873e-02 1.080593e+00 2.411946e+00 4.090240e+00 6.703091e+00 1.028038e+01 1.549882e+01 2.277072e+01 2.419304e+01 1.960835e+01 2.386454e+01 2.531143e+01 1.218646e+01 3.980089e+00 2.898451e+00 5.265328e-01 1.860316e-03 -5.344642e-01 -2.910096e+00 -3.990831e+00 -1.219629e+01 -2.529996e+01 -2.385723e+01 -1.961617e+01 -2.418931e+01 -2.276497e+01 -1.549570e+01 -1.027757e+01 -6.701361e+00 -4.088778e+00 -2.411010e+00 -1.079687e+00 -1.404925e-02 1.041023e+00 2.377250e+00 4.034858e+00 6.645701e+00 1.018450e+01 1.538218e+01 2.256920e+01 2.407055e+01 1.922823e+01 2.349054e+01 2.512158e+01 1.210393e+01 4.080475e+00 2.845362e+00 5.237305e-01 1.672981e-03 -5.309823e-01 -2.857264e+00 -4.091944e+00 -1.211241e+01 -2.511103e+01 -2.348353e+01 -1.923505e+01 -2.406754e+01 -2.256357e+01 -1.537910e+01 -1.018167e+01 -6.643973e+00 -4.033375e+00 -2.376314e+00 -1.040109e+00 
1.096732e-02 4.154653e-01 1.056218e+00 2.069922e+00 3.988508e+00 6.904225e+00 1.151169e+01 1.596914e+01 1.211523e+01 1.549120e+01 1.587722e+01 -1.719812e+00 -1.289925e+01 -4.254021e+00 -5.337749e+00 -2.723548e+00 -3.302041e-03 2.718848e+00 5.339515e+00 4.260019e+00 1.291237e+01 1.731022e+00 -1.586311e+01 -1.548096e+01 -1.210148e+01 -1.596008e+01 -1.150481e+01 -6.900439e+00 -3.985933e+00 -2.068357e+00 -1.055184e+00 -4.146897e-01 -1.034382e-02 3.805830e-01 1.028263e+00 2.012894e+00 3.927744e+00 6.780294e+00 1.132650e+01 1.569517e+01 1.178050e+01 1.494250e+01 1.558501e+01 -1.467255e+00 -1.289650e+01 -4.230089e+00 -5.345307e+00 -2.717929e+00 -3.198170e-03 2.713327e+00 5.346803e+00 4.235950e+00 1.290995e+01 1.477475e+00 -1.557074e+01 -1.493316e+01 -1.176842e+01 -1.568603e+01 -1.131993e+01 -6.776557e+00 -3.925303e+00 -2.011367e+00 -1.027280e+00 -3.798198e-01 
1.175104e-02 -4.813417e-01 -7.851357e-01 -8.704063e-01 -1.092778e-01 8.717511e-01 3.814030e+00 1.305182e+00 6.892501e-01 -1.530664e+00 -2.086459e+01 -4.015097e+01 -2.700226e+01 -1.681329e+01 -1.363227e+01 -6.178837e+00 -1.714916e-03 6.178576e+00 1.363892e+01 1.682026e+01 2.701255e+01 4.014448e+01 2.085413e+01 1.527110e+00 -6.930254e-01 -1.305250e+00 -3.809362e+00 -8.700720e-01 1.107778e-01 8.709108e-01 7.854064e-01 4.813525e-01 -1.179248e-02 -5.159539e-01 -8.130906e-01 -9.243801e-01 -1.547953e-01 7.744630e-01 3.730667e+00 1.249867e+00 4.046809e-01 -1.557084e+00 -2.068814e+01 -3.999871e+01 -2.708974e+01 -1.683100e+01 -1.368107e+01 -6.185381e+00 -1.615332e-03 6.184969e+00 1.368772e+01 1.683826e+01 2.709967e+01 3.999252e+01 2.067795e+01 1.553014e+00 -4.068076e-01 -1.248327e+00 -3.725729e+00 -7.724872e-01 1.563354e-01 9.249573e-01 8.133674e-01 5.159798e-01 
2.637469e-03 -1.546614e+00 -3.050452e+00 -4.441501e+00 -5.552240e+00 -6.712968e+00 -7.643863e+00 -1.341280e+01 -1.363145e+01 -2.876533e+01 -5.057992e+01 -4.812173e+01 -2.683193e+01 -2.334256e+01 -1.384632e+01 -6.996698e+00 4.273917e-04 6.998433e+00 1.385017e+01 2.334665e+01 2.683255e+01 4.811649e+01 5.056467e+01 2.874595e+01 1.360987e+01 1.340703e+01 7.646327e+00 6.713479e+00 5.552867e+00 4.441330e+00 3.050176e+00 1.546110e+00 -3.160580e-03 -1.562733e+00 -3.051480e+00 -4.469258e+00 -5.534546e+00 -6.779718e+00 -7.558197e+00 -1.342705e+01 -1.362880e+01 -2.829698e+01 -5.039455e+01 -4.829326e+01 -2.687678e+01 -2.341646e+01 -1.391394e+01 -7.019813e+00 4.857594e-04 7.021366e+00 1.391782e+01 2.342051e+01 2.687707e+01 4.828837e+01 5.037910e+01 2.827841e+01 1.360945e+01 1.342158e+01 7.560390e+00 6.780096e+00 5.535020e+00 4.469026e+00 3.051149e+00 1.562213e+00 
4.110384e-03 -2.647642e+00 -5.474761e+00 -8.167134e+00 -1.158566e+01 -1.445405e+01 -2.015031e+01 -2.499602e+01 -3.079535e+01 -4.444258e+01 -5.253393e+01 -3.619391e+01 -2.578962e+01 -2.248975e+01 -1.283156e+01 -6.887073e+00 7.870455e-04 6.889048e+00 1.283441e+01 2.249333e+01 2.578950e+01 3.619441e+01 5.253677e+01 4.444414e+01 3.079252e+01 2.499921e+01 2.015279e+01 1.445437e+01 1.158492e+01 8.165937e+00 5.473423e+00 2.646230e+00 -5.532617e-03 -2.658357e+00 -5.483235e+00 -8.196300e+00 -1.158779e+01 -1.454786e+01 -2.009540e+01 -2.515418e+01 -3.090902e+01 -4.421368e+01 -5.267479e+01 -3.645587e+01 -2.580754e+01 -2.260980e+01 -1.286915e+01 -6.916546e+00 8.232863e-04 6.918423e+00 1.287202e+01 2.261340e+01 2.580725e+01 3.645653e+01 5.267753e+01 4.421526e+01 3.090608e+01 2.515606e+01 2.009736e+01 1.454792e+01 1.158696e+01 8.195072e+00 5.481884e+00 2.656943e+00 
-1.075286e-03 -3.718599e+00 -7.753295e+00 -1.185144e+01 -1.722301e+01 -2.229002e+01 -3.089682e+01 -3.611247e+01 -4.319085e+01 -4.701697e+01 -4.165414e+01 -2.494221e+01 -2.376166e+01 -1.865683e+01 -1.159159e+01 -6.109749e+00 1.079180e-03 6.111709e+00 1.159429e+01 1.865960e+01 2.376527e+01 2.494491e+01 4.166451e+01 4.703387e+01 4.320964e+01 3.612174e+01 3.089665e+01 2.228913e+01 1.722071e+01 1.184934e+01 7.751081e+00 3.716528e+00 -1.026586e-03 -3.704255e+00 -7.740234e+00 -1.181818e+01 -1.714153e+01 -2.218125e+01 -3.051942e+01 -3.589717e+01 -4.329927e+01 -4.702652e+01 -4.181274e+01 -2.508612e+01 -2.380731e+01 -1.877181e+01 -1.162405e+01 -6.141893e+00 1.086500e-03 6.143773e+00 1.162671e+01 1.877457e+01 2.381072e+01 2.508889e+01 4.182284e+01 4.704292e+01 4.331632e+01 3.590440e+01 3.051849e+01 2.217997e+01 1.713910e+01 1.181601e+01 7.738004e+00 3.702176e+00 
-2.637747e-03 -4.598495e+00 -9.575913e+00 -1.490545e+01 -2.160327e+01 -2.888120e+01 -3.833850e+01 -4.440625e+01 -4.965921e+01 -4.411681e+01 -2.910857e+01 -1.845945e+01 -1.992100e+01 -1.503527e+01 -1.039633e+01 -5.317448e+00 9.779175e-04 5.319013e+00 1.039856e+01 1.503681e+01 1.992384e+01 1.846029e+01 2.911174e+01 4.412575e+01 4.966642e+01 4.439972e+01 3.832841e+01 2.887434e+01 2.159796e+01 1.490143e+01 9.572476e+00 4.595465e+00 -3.148398e-04 -4.566203e+00 -9.569595e+00 -1.485960e+01 -2.158229e+01 -2.881639e+01 -3.827439e+01 -4.466930e+01 -5.004455e+01 -4.432793e+01 -2.929066e+01 -1.853013e+01 -1.997054e+01 -1.511802e+01 -1.041938e+01 -5.344066e+00 9.806976e-04 5.345570e+00 1.042160e+01 1.511954e+01 1.997331e+01 1.853091e+01 2.929385e+01 4.433677e+01 5.005103e+01 4.466317e+01 3.826478e+01 2.880978e+01 2.157709e+01 1.485561e+01 9.566181e+00 4.563176e+00 
8.902507e-03 -5.181226e+00 -1.074612e+01 -1.697940e+01 -2.443683e+01 -3.350974e+01 -4.307517e+01 -5.073989e+01 -5.493816e+01 -4.092676e+01 -1.984659e+01 -1.565673e+01 -1.706069e+01 -1.295027e+01 -9.523594e+00 -4.773289e+00 9.755057e-04 4.774507e+00 9.525473e+00 1.295071e+01 1.706175e+01 1.565451e+01 1.984237e+01 4.092428e+01 5.492569e+01 5.072002e+01 4.306020e+01 3.349948e+01 2.442983e+01 1.697412e+01 1.074190e+01 5.177579e+00 -1.236563e-02 -5.156136e+00 -1.077699e+01 -1.694230e+01 -2.451772e+01 -3.345898e+01 -4.340225e+01 -5.079623e+01 -5.469465e+01 -4.119939e+01 -1.998552e+01 -1.571336e+01 -1.711693e+01 -1.302200e+01 -9.552033e+00 -4.799661e+00 9.761838e-04 4.800848e+00 9.553907e+00 1.302245e+01 1.711800e+01 1.571125e+01 1.998156e+01 4.119715e+01 5.468288e+01 5.077813e+01 4.338852e+01 3.344936e+01 2.451114e+01 1.693723e+01 1.077291e+01 5.152541e+00 
-5.041651e-03 -5.409451e+00 -1.119553e+01 -1.778344e+01 -2.555886e+01 -3.542802e+01 -4.516619e+01 -5.425585e+01 -5.797247e+01 -3.975838e+01 -1.640241e+01 -1.475130e+01 -1.583842e+01 -1.222024e+01 -9.149067e+00 -4.573928e+00 8.871427e-04 4.575002e+00 9.150669e+00 1.222030e+01 1.583856e+01 1.474792e+01 1.639638e+01 3.975199e+01 5.795668e+01 5.423833e+01 4.515459e+01 3.541978e+01 2.555287e+01 1.777859e+01 1.119146e+01 5.405814e+00 1.526097e-03 -5.346536e+00 -1.118455e+01 -1.766111e+01 -2.553355e+01 -3.511290e+01 -4.522167e+01 -5.323316e+01 -5.660844e+01 -3.986060e+01 -1.640178e+01 -1.474683e+01 -1.585423e+01 -1.226700e+01 -9.164050e+00 -4.594224e+00 8.804545e-04 4.595243e+00 9.165621e+00 1.226702e+01 1.585431e+01 1.474338e+01 1.639554e+01 3.985423e+01 5.659225e+01 5.321507e+01 4.520967e+01 3.510426e+01 2.552743e+01 1.765615e+01 1.118045e+01 5.342878e+00 
9.427382e-03 -5.180486e+00 -1.074410e+01 -1.697602e+01 -2.442771e+01 -3.349469e+01 -4.304635e+01 -5.074971e+01 -5.495741e+01 -4.092054e+01 -1.984657e+01 -1.565189e+01 -1.706081e+01 -1.294907e+01 -9.523557e+00 -4.773058e+00 9.756037e-04 4.774276e+00 9.525435e+00 1.294950e+01 1.706186e+01 1.564967e+01 1.984235e+01 4.091806e+01 5.494491e+01 5.072982e+01 4.303135e+01 3.348442e+01 2.442071e+01 1.697073e+01 1.073989e+01 5.176839e+00 -1.288986e-02 -5.156360e+00 -1.077733e+01 -1.694251e+01 -2.451862e+01 -3.345962e+01 -4.340641e+01 -5.079470e+01 -5.468957e+01 -4.120148e+01 -1.998554e+01 -1.571203e+01 -1.711692e+01 -1.302181e+01 -9.552072e+00 -4.799655e+00 9.761721e-04 4.800841e+00 9.553945e+00 1.302226e+01 1.711799e+01 1.570992e+01 1.998157e+01 4.119923e+01 5.467779e+01 5.077660e+01 4.339267e+01 3.345000e+01 2.451204e+01 1.693744e+01 1.077326e+01 5.152765e+00 