# vtk DataFile Version 2.0
Comment goes here
ASCII

DATASET STRUCTURED_POINTS
DIMENSIONS    64   64   1

ORIGIN    0.000   0.000   0.000
SPACING   0.031250.03125   1.000

POINT_DATA   4096
SCALARS uY double
LOOKUP_TABLE default

-2.567552e+00 -7.134277e+00 -2.782550e+00 -7.848605e+00 -2.934413e+00 -8.225435e+00 -2.975829e+00 -8.088253e+00 -2.868210e+00 -7.384152e+00 -2.612599e+00 -6.276528e+00 -2.306480e+00 -5.001571e+00 -2.111689e+00 -3.766012e+00 -2.102693e+00 -2.708482e+00 -2.232691e+00 -1.880793e+00 -2.384195e+00 -1.251576e+00 -2.444524e+00 -7.790412e-01 -2.375384e+00 -4.529647e-01 -2.226038e+00 -2.774225e-01 -2.066711e+00 -2.386782e-01 -1.942922e+00 -3.026831e-01 -1.865678e+00 -4.305107e-01 -1.822935e+00 -5.906252e-01 -1.795304e+00 -7.627672e-01 -1.767012e+00 -9.371112e-01 -1.730297e+00 -1.112187e+00 -1.685153e+00 -1.292948e+00 -1.637018e+00 -1.489181e+00 -1.594242e+00 -1.714136e+00 -1.566108e+00 -1.983317e+00 -1.561587e+00 -2.313479e+00 -1.588637e+00 -2.721771e+00 -1.653799e+00 -3.224447e+00 -1.761665e+00 -3.834358e+00 -1.913857e+00 -4.556385e+00 -2.107323e+00 -5.379719e+00 -2.331896e+00 -6.266016e+00 
4.158195e-01 -3.502902e+00 3.831579e-01 -3.743271e+00 5.484678e-01 -3.532653e+00 1.025601e+00 -2.648324e+00 1.868691e+00 -1.021854e+00 3.003687e+00 1.072774e+00 4.284494e+00 3.292590e+00 5.559218e+00 5.387420e+00 6.664672e+00 7.141878e+00 7.439628e+00 8.375328e+00 7.816774e+00 9.000913e+00 7.810273e+00 9.048638e+00 7.481613e+00 8.617976e+00 6.898704e+00 7.844453e+00 6.141468e+00 6.877120e+00 5.301904e+00 5.847969e+00 4.465186e+00 4.851983e+00 3.694864e+00 3.945035e+00 3.028884e+00 3.151497e+00 2.482443e+00 2.473827e+00 2.053716e+00 1.900766e+00 1.730098e+00 1.413483e+00 1.493724e+00 9.899700e-01 1.325504e+00 6.078472e-01 1.207230e+00 2.455765e-01 1.121895e+00 -1.173975e-01 1.053381e+00 -5.001982e-01 9.866850e-01 -9.192416e-01 9.084440e-01 -1.386402e+00 8.081679e-01 -1.905589e+00 6.817959e-01 -2.465521e+00 5.392414e-01 -3.026699e+00 
-2.296888e+00 -6.837940e+00 -2.585327e+00 -7.656896e+00 -2.816622e+00 -8.160201e+00 -2.948589e+00 -8.099514e+00 -2.961946e+00 -7.371418e+00 -2.870331e+00 -6.323980e+00 -2.790348e+00 -5.271386e+00 -2.865419e+00 -4.333558e+00 -3.028098e+00 -3.478828e+00 -3.174915e+00 -2.723786e+00 -3.243171e+00 -2.089999e+00 -3.184765e+00 -1.567647e+00 -2.991177e+00 -1.164366e+00 -2.713055e+00 -8.888261e-01 -2.417355e+00 -7.261344e-01 -2.155582e+00 -6.445757e-01 -1.945946e+00 -6.146224e-01 -1.779268e+00 -6.167422e-01 -1.636075e+00 -6.407539e-01 -1.500948e+00 -6.839577e-01 -1.368579e+00 -7.499038e-01 -1.242983e+00 -8.469738e-01 -1.133409e+00 -9.863177e-01 -1.050062e+00 -1.179891e+00 -1.001634e+00 -1.439756e+00 -9.951053e-01 -1.778488e+00 -1.036206e+00 -2.208613e+00 -1.128756e+00 -2.740641e+00 -1.273985e+00 -3.381223e+00 -1.470528e+00 -4.131277e+00 -1.714162e+00 -4.981917e+00 -1.995755e+00 -5.905297e+00 
5.482572e-01 -3.851623e+00 3.370326e-01 -4.359484e+00 2.852248e-01 -4.409835e+00 5.730258e-01 -3.592386e+00 1.325043e+00 -1.658833e+00 2.410766e+00 7.539217e-01 3.634076e+00 3.129667e+00 4.932268e+00 5.383538e+00 6.204200e+00 7.390397e+00 7.165781e+00 8.890327e+00 7.698404e+00 9.665391e+00 7.787814e+00 9.693378e+00 7.498216e+00 9.103417e+00 6.902813e+00 8.106119e+00 6.107141e+00 6.934600e+00 5.239469e+00 5.769061e+00 4.403663e+00 4.712006e+00 3.664776e+00 3.805837e+00 3.054632e+00 3.056011e+00 2.579711e+00 2.446915e+00 2.228448e+00 1.951356e+00 1.978511e+00 1.537075e+00 1.803952e+00 1.172234e+00 1.681152e+00 8.293806e-01 1.591553e+00 4.859999e-01 1.520226e+00 1.221223e-01 1.453332e+00 -2.801130e-01 1.378592e+00 -7.343507e-01 1.285344e+00 -1.249708e+00 1.162788e+00 -1.831683e+00 9.995720e-01 -2.479535e+00 7.896485e-01 -3.174214e+00 
-2.036259e+00 -6.658121e+00 -2.446753e+00 -7.775421e+00 -2.807770e+00 -8.639813e+00 -3.052219e+00 -8.759658e+00 -3.157180e+00 -7.686775e+00 -3.106101e+00 -6.390653e+00 -3.116919e+00 -5.430696e+00 -3.536290e+00 -4.813339e+00 -3.969198e+00 -4.149260e+00 -4.201104e+00 -3.447040e+00 -4.232792e+00 -2.814305e+00 -4.059693e+00 -2.234199e+00 -3.689057e+00 -1.748219e+00 -3.215408e+00 -1.389595e+00 -2.732474e+00 -1.133444e+00 -2.314715e+00 -9.337511e-01 -1.981850e+00 -7.646781e-01 -1.710797e+00 -6.193806e-01 -1.467846e+00 -4.988140e-01 -1.231827e+00 -4.080165e-01 -1.000426e+00 -3.567859e-01 -7.854981e-01 -3.591021e-01 -6.043033e-01 -4.296435e-01 -4.714717e-01 -5.799067e-01 -3.954296e-01 -8.181555e-01 -3.807501e-01 -1.153372e+00 -4.317107e-01 -1.595415e+00 -5.502006e-01 -2.150789e+00 -7.340278e-01 -2.821745e+00 -9.788320e-01 -3.609342e+00 -1.281002e+00 -4.515850e+00 -1.637084e+00 -5.540149e+00 
6.641095e-01 -4.374568e+00 1.518658e-01 -5.423983e+00 -2.963225e-01 -6.115520e+00 -3.391710e-01 -5.602085e+00 4.022277e-01 -2.799670e+00 1.637031e+00 4.245450e-01 2.901695e+00 3.071976e+00 4.350209e+00 5.641336e+00 6.072975e+00 8.163396e+00 7.329778e+00 1.013426e+01 8.026445e+00 1.107920e+01 8.145761e+00 1.095478e+01 7.813698e+00 9.989636e+00 7.094267e+00 8.534738e+00 6.135675e+00 6.982699e+00 5.143917e+00 5.582073e+00 4.249197e+00 4.423359e+00 3.511469e+00 3.512743e+00 2.949943e+00 2.821700e+00 2.556392e+00 2.307605e+00 2.303074e+00 1.921088e+00 2.151247e+00 1.611052e+00 2.061161e+00 1.331896e+00 2.001901e+00 1.050495e+00 1.955781e+00 7.455739e-01 1.912291e+00 3.980552e-01 1.859373e+00 -1.063872e-02 1.787411e+00 -4.916044e-01 1.690271e+00 -1.050431e+00 1.557665e+00 -1.697031e+00 1.365968e+00 -2.453260e+00 1.078128e+00 -3.346420e+00 
-1.755437e+00 -6.491192e+00 -2.355334e+00 -8.147367e+00 -2.937712e+00 -9.822765e+00 -3.340672e+00 -1.055148e+01 -3.504199e+00 -8.262474e+00 -3.258239e+00 -6.157668e+00 -3.030792e+00 -5.262745e+00 -4.187294e+00 -5.313360e+00 -5.081877e+00 -4.848612e+00 -5.436001e+00 -4.105883e+00 -5.441476e+00 -3.482133e+00 -5.138014e+00 -2.803997e+00 -4.491060e+00 -2.209146e+00 -3.726049e+00 -1.794916e+00 -2.980873e+00 -1.485308e+00 -2.386898e+00 -1.187903e+00 -1.953676e+00 -8.857885e-01 -1.612081e+00 -5.940536e-01 -1.291191e+00 -3.261059e-01 -9.576535e-01 -9.295367e-02 -6.163277e-01 8.890181e-02 -2.952279e-01 1.960410e-01 -2.766073e-02 2.059199e-01 1.634231e-01 1.071865e-01 2.720180e-01 -1.007369e-01 2.996044e-01 -4.231293e-01 2.410220e-01 -8.713660e-01 9.435032e-02 -1.448643e+00 -1.326463e-01 -2.149646e+00 -4.289177e-01 -2.973499e+00 -7.911403e-01 -3.938963e+00 -1.228958e+00 -5.091649e+00 
8.953302e-01 -4.895747e+00 -6.328563e-02 -6.846873e+00 -1.233544e+00 -8.941294e+00 -1.987977e+00 -9.712779e+00 -1.140815e+00 -4.457645e+00 7.174785e-01 5.429061e-01 1.988676e+00 3.064603e+00 3.596242e+00 5.988672e+00 6.443900e+00 9.528626e+00 8.055431e+00 1.239747e+01 8.922273e+00 1.356572e+01 8.960176e+00 1.305412e+01 8.498393e+00 1.134585e+01 7.491003e+00 9.042257e+00 6.180409e+00 6.876015e+00 4.955279e+00 5.158822e+00 3.949606e+00 3.894131e+00 3.193373e+00 3.006224e+00 2.685411e+00 2.414273e+00 2.397265e+00 2.042398e+00 2.277480e+00 1.814434e+00 2.261279e+00 1.653200e+00 2.285365e+00 1.492321e+00 2.306970e+00 1.293520e+00 2.314853e+00 1.045846e+00 2.311344e+00 7.324726e-01 2.282163e+00 3.275524e-01 2.219174e+00 -1.754173e-01 2.128157e+00 -7.692479e-01 2.008953e+00 -1.461340e+00 1.827408e+00 -2.302808e+00 1.497664e+00 -3.401295e+00 
-1.377678e+00 -6.104626e+00 -2.258387e+00 -8.544489e+00 -3.280730e+00 -1.189391e+01 -4.018716e+00 -1.509126e+01 -4.228997e+00 -8.812038e+00 -3.327939e+00 -4.760201e+00 -1.594242e+00 -4.242346e+00 -5.058193e+00 -6.228663e+00 -6.631927e+00 -5.805760e+00 -7.066133e+00 -4.678102e+00 -7.002250e+00 -4.187926e+00 -6.568038e+00 -3.286028e+00 -5.413498e+00 -2.504324e+00 -4.213422e+00 -2.115154e+00 -3.074644e+00 -1.822304e+00 -2.294929e+00 -1.432589e+00 -1.830983e+00 -9.848426e-01 -1.489816e+00 -5.395176e-01 -1.125144e+00 -1.180147e-01 -6.909861e-01 2.715421e-01 -2.132039e-01 6.069054e-01 2.470427e-01 8.464978e-01 6.245210e-01 9.487010e-01 8.804643e-01 9.022853e-01 1.020443e+00 7.297325e-01 1.066878e+00 4.307755e-01 1.003072e+00 -2.157607e-02 8.198525e-01 -6.270426e-01 5.375182e-01 -1.359597e+00 1.864818e-01 -2.201976e+00 -2.227656e-01 -3.184292e+00 -7.206443e-01 -4.415294e+00 
1.500990e+00 -5.015863e+00 -8.101845e-03 -8.200880e+00 -2.475088e+00 -1.302097e+01 -4.988973e+00 -1.902735e+01 -4.113340e+00 -6.309555e+00 1.528709e-02 2.803929e+00 7.435743e-01 2.652104e+00 2.153134e+00 5.833046e+00 8.020668e+00 1.167180e+01 9.501078e+00 1.629048e+01 1.056800e+01 1.774923e+01 1.031600e+01 1.635298e+01 9.682479e+00 1.323605e+01 8.098064e+00 9.369222e+00 6.118921e+00 6.327171e+00 4.574258e+00 4.302811e+00 3.429253e+00 3.004876e+00 2.646679e+00 2.214950e+00 2.212423e+00 1.792463e+00 2.074583e+00 1.634796e+00 2.148558e+00 1.639997e+00 2.328597e+00 1.692515e+00 2.508481e+00 1.687766e+00 2.622242e+00 1.583090e+00 2.682024e+00 1.409449e+00 2.733045e+00 1.154828e+00 2.736246e+00 7.593346e-01 2.676451e+00 2.266058e-01 2.590087e+00 -3.969082e-01 2.515303e+00 -1.088793e+00 2.427976e+00 -1.917064e+00 2.186535e+00 -3.095125e+00 
-7.237523e-01 -5.049970e+00 -1.921268e+00 -8.254174e+00 -3.866908e+00 -1.440098e+01 -5.752160e+00 -2.756192e+01 -5.927298e+00 -7.996752e+00 -3.974975e+00 4.408207e-01 4.626816e+00 -1.421380e+00 -7.477225e+00 -9.085177e+00 -9.020858e+00 -7.452638e+00 -9.428479e+00 -4.787769e+00 -9.048753e+00 -5.188912e+00 -8.700468e+00 -3.652741e+00 -6.391749e+00 -2.450525e+00 -4.619717e+00 -2.393862e+00 -2.798218e+00 -2.229909e+00 -1.881318e+00 -1.694796e+00 -1.583945e+00 -1.059011e+00 -1.387592e+00 -4.544202e-01 -1.025526e+00 1.201680e-01 -4.683959e-01 6.850529e-01 2.043663e-01 1.215512e+00 8.691435e-01 1.630634e+00 1.397193e+00 1.837880e+00 1.713571e+00 1.822254e+00 1.862278e+00 1.685186e+00 1.946137e+00 1.435265e+00 1.887257e+00 9.767402e-01 1.645325e+00 3.160699e-01 1.274044e+00 -4.650449e-01 8.563645e-01 -1.295580e+00 4.350552e-01 -2.189376e+00 -3.593701e-02 -3.306079e+00 
2.933692e+00 -3.986257e+00 1.106579e+00 -8.241325e+00 -3.424903e+00 -1.706148e+01 -1.070737e+01 -4.251714e+01 -1.147127e+01 -7.065004e+00 1.538040e+00 1.365855e+01 -1.440351e+00 -1.074143e+00 -7.306597e-01 3.497233e+00 1.292234e+01 1.520501e+01 1.145662e+01 2.302254e+01 1.306739e+01 2.492174e+01 1.232213e+01 2.141133e+01 1.166041e+01 1.564216e+01 8.810409e+00 8.784711e+00 5.664177e+00 4.828660e+00 3.897329e+00 2.769140e+00 2.599685e+00 1.636307e+00 1.777778e+00 1.072746e+00 1.454944e+00 9.117664e-01 1.542338e+00 1.063618e+00 1.910564e+00 1.414491e+00 2.391050e+00 1.783946e+00 2.792458e+00 1.978004e+00 2.987163e+00 1.938890e+00 3.053338e+00 1.851230e+00 3.198798e+00 1.712740e+00 3.251690e+00 1.323217e+00 3.159201e+00 7.157321e-01 3.035314e+00 3.803115e-02 3.019517e+00 -5.958442e-01 3.156155e+00 -1.216520e+00 3.290860e+00 -2.107082e+00 
5.303700e-01 -2.640816e+00 -5.654496e-01 -5.656368e+00 -4.065229e+00 -1.492836e+01 -1.247951e+01 -6.144116e+01 -7.465809e+00 -2.272029e+00 -8.943684e+00 1.906450e+01 2.671543e+01 1.087081e+00 -1.709445e+01 -1.687593e+01 -1.198134e+01 -1.039310e+01 -1.379065e+01 -2.818182e+00 -1.133613e+01 -7.306862e+00 -1.257204e+01 -3.910689e+00 -6.967675e+00 -1.337085e+00 -4.941346e+00 -2.933787e+00 -1.578725e+00 -2.869246e+00 -8.435153e-01 -1.961585e+00 -1.247025e+00 -1.070248e+00 -1.444764e+00 -3.361047e-01 -1.114144e+00 3.593632e-01 -3.642104e-01 1.121205e+00 6.217848e-01 1.929433e+00 1.621673e+00 2.615723e+00 2.380450e+00 2.946188e+00 2.715773e+00 2.863606e+00 2.767609e+00 2.753203e+00 2.972620e+00 2.644150e+00 2.960815e+00 2.169858e+00 2.601358e+00 1.371849e+00 2.050783e+00 4.739758e-01 1.519355e+00 -3.263916e-01 1.136508e+00 -9.687115e-01 8.841641e-01 -1.578919e+00 
5.762601e+00 -7.449939e-01 5.027164e+00 -4.561120e+00 -2.183455e+00 -1.955782e+01 -2.708296e+01 -9.381435e+01 -2.690862e+01 -1.012658e+01 -3.480797e+00 5.601954e+01 8.453980e+00 -2.437435e+01 -2.112950e+00 5.809297e-01 2.454698e+01 2.082717e+01 1.243055e+01 3.525513e+01 1.522175e+01 3.823789e+01 1.562066e+01 2.885616e+01 1.502026e+01 1.797350e+01 8.854604e+00 5.324298e+00 4.404740e+00 1.734418e+00 3.016368e+00 3.691661e-01 1.336945e+00 -2.650420e-01 4.309948e-01 -4.515658e-01 2.931069e-01 -2.815647e-01 7.219003e-01 2.854331e-01 1.549498e+00 1.161408e+00 2.523920e+00 2.041732e+00 3.277115e+00 2.493216e+00 3.477119e+00 2.342264e+00 3.336029e+00 2.339293e+00 3.751431e+00 2.511424e+00 3.915451e+00 2.100269e+00 3.678718e+00 1.278098e+00 3.370138e+00 4.325784e-01 3.348817e+00 -1.304628e-01 3.829794e+00 -3.015602e-01 4.793581e+00 -2.375261e-01 
2.645383e+00 1.706945e+00 3.353652e+00 9.960591e-01 -3.309402e+00 -2.058050e+01 -3.713351e+01 -1.131543e+02 1.189088e+01 5.932050e+00 3.908142e+01 7.989648e+01 1.169612e+00 -2.480061e+01 -3.411853e+01 -2.587415e+01 -1.272524e+01 -1.639855e+01 -2.780695e+01 3.901003e+00 -1.223512e+01 -1.210723e+01 -2.130402e+01 -5.685827e+00 -5.661034e+00 4.315933e+00 -5.199795e+00 -5.423338e+00 2.369805e+00 -3.813342e+00 1.259958e+00 -2.071853e+00 -1.182863e+00 -9.028254e-01 -1.996928e+00 -1.881232e-01 -1.603421e+00 5.078053e-01 -5.077433e-01 1.487163e+00 1.003975e+00 2.747953e+00 2.601620e+00 3.943324e+00 3.785076e+00 4.457874e+00 4.006151e+00 3.941329e+00 3.514920e+00 3.826068e+00 4.229278e+00 4.207322e+00 4.395198e+00 3.672130e+00 3.748586e+00 2.515250e+00 2.793616e+00 1.311499e+00 2.010443e+00 4.922285e-01 1.687870e+00 2.499285e-01 1.920123e+00 6.668353e-01 
9.894630e+00 5.238114e+00 1.404699e+01 4.127668e+00 3.176453e+00 -2.927481e+01 -4.944568e+01 -1.313893e+02 -4.706741e+01 -1.670852e+01 -9.286738e+01 4.536772e+01 7.921424e+01 -3.688825e+01 3.246267e+01 2.371721e+01 3.175346e+01 2.103171e+01 1.387348e+01 5.970365e+01 1.061473e+01 6.468225e+01 2.397411e+01 3.698445e+01 1.762764e+01 1.482084e+01 5.538216e+00 -4.862289e+00 3.452817e+00 -3.041154e+00 2.472548e+00 -2.910515e+00 -8.344029e-01 -2.530458e+00 -1.660580e+00 -2.311291e+00 -1.450880e+00 -1.899283e+00 -5.317933e-01 -8.282829e-01 1.013893e+00 8.860906e-01 2.866605e+00 2.714986e+00 4.312958e+00 3.594798e+00 4.309301e+00 2.614030e+00 3.040714e+00 2.639108e+00 4.539752e+00 3.863517e+00 5.000331e+00 3.289866e+00 4.294051e+00 1.885346e+00 3.426729e+00 5.755312e-01 3.155089e+00 -4.710557e-02 3.939896e+00 3.113051e-01 6.082265e+00 1.960009e+00 
5.070373e+00 7.514587e+00 1.038875e+01 1.255203e+01 3.423844e+00 -1.572633e+01 -6.526594e+01 -1.338279e+02 -4.128977e+01 2.438109e+01 1.121673e+02 1.159875e+02 1.511206e+01 -5.008191e+01 -1.438135e+01 -5.635151e+01 -3.429915e+01 -2.525473e+01 -4.256119e+01 8.520136e-01 -2.928538e+01 -1.997451e+01 -3.594559e+01 -1.363041e+01 -1.047625e+01 2.473694e+01 4.333809e+00 -1.494605e+01 1.435978e+01 -4.022667e+00 3.790214e+00 -1.603280e+00 -2.829282e+00 -2.249575e-01 -3.572584e+00 -6.304117e-02 -2.771326e+00 3.033723e-01 -1.114909e+00 1.526822e+00 1.247465e+00 3.608081e+00 3.972909e+00 5.925432e+00 6.129697e+00 6.925573e+00 5.995250e+00 4.706031e+00 3.112337e+00 4.462174e+00 6.055897e+00 6.610194e+00 6.650565e+00 5.764350e+00 5.197800e+00 3.687064e+00 3.331124e+00 1.762887e+00 1.993715e+00 7.426042e-01 1.638688e+00 8.681247e-01 2.504112e+00 2.564996e+00 
1.143587e+01 9.136851e+00 2.403769e+01 2.206139e+01 2.468588e+01 -8.547635e+00 -5.529856e+01 -1.366449e+02 -1.919585e+01 -5.203245e+01 -1.023163e+01 7.319475e+00 2.542068e+01 3.037877e+00 -1.176127e+01 -1.980895e+01 -2.271543e+01 3.798471e+01 3.427374e+01 9.075702e+01 2.267388e+01 1.270256e+02 2.140040e+01 1.560952e+01 7.579428e+00 -4.615968e+00 5.930153e+00 -2.203272e+01 1.028452e+01 -1.072709e+01 -2.869919e-01 -6.461416e+00 -5.487540e+00 -4.129043e+00 -4.706822e+00 -4.472736e+00 -4.026938e+00 -4.313306e+00 -2.512282e+00 -2.645554e+00 1.124243e-01 4.678787e-01 3.608354e+00 4.304455e+00 6.772125e+00 6.391240e+00 6.305574e+00 2.110022e+00 2.385764e-01 1.803724e+00 6.190532e+00 6.805386e+00 7.303883e+00 5.341640e+00 5.136379e+00 2.456525e+00 2.913036e+00 1.156224e-01 1.907008e+00 -8.586005e-01 2.665019e+00 -2.944036e-01 5.573596e+00 2.172777e+00 
4.698646e+00 7.671592e+00 9.944379e+00 1.379580e+01 -7.842037e+00 -1.268883e+01 -7.731798e+01 -8.394242e+01 -2.797373e+00 -1.675588e+01 3.513628e+01 -2.940047e+01 2.135036e+01 7.734831e+01 3.107694e+01 -4.865583e+01 2.984232e+01 6.774339e+01 -2.183863e+01 -1.174530e+02 -8.444199e+01 8.040709e-01 -6.137841e+01 2.020408e-01 -6.641031e+01 -8.810151e+00 5.249914e+01 -6.461017e+00 3.829732e+01 -7.097208e+00 -5.241421e+00 2.093964e+00 -8.275214e+00 1.757486e+00 -6.437446e+00 -5.592202e-01 -4.946584e+00 -9.725649e-01 -2.579978e+00 6.441698e-01 1.014050e+00 4.216989e+00 5.900837e+00 9.128790e+00 1.042656e+01 1.171344e+01 1.023452e+01 4.536249e+00 -1.521407e+00 3.485679e+00 9.825769e+00 1.110123e+01 1.066765e+01 9.014060e+00 7.050416e+00 4.697639e+00 3.272130e+00 1.327010e+00 9.082621e-01 -1.790067e-01 2.197379e-01 -1.483111e-01 1.346481e+00 1.616579e+00 
1.016432e+01 6.499706e+00 1.923427e+01 1.694778e+01 1.947613e+01 2.264181e+01 -3.592143e+01 -9.927589e+01 -4.393556e+00 -1.253467e+02 -1.378361e+02 6.884763e+00 7.700856e+01 1.745295e+01 8.828374e+01 3.113578e+01 -5.702353e+01 1.579119e+02 1.267541e+02 -3.930183e+01 -4.959310e+01 2.109884e+02 4.308397e+01 -4.451747e+01 -2.752236e+01 -3.027805e+01 4.117053e+01 -5.742170e+01 -1.616237e+00 -1.607954e+01 -2.568583e+01 4.030006e-01 -1.205163e+01 -4.327869e+00 -8.651140e+00 -8.397246e+00 -7.911341e+00 -8.583793e+00 -5.776131e+00 -5.957843e+00 -1.763366e+00 -6.992173e-01 4.615447e+00 7.186183e+00 1.184559e+01 1.366863e+01 1.233166e+01 -5.094965e-02 -9.065664e+00 -2.261577e+00 1.082386e+01 1.431582e+01 1.212288e+01 8.532374e+00 6.066407e+00 2.573477e+00 1.189494e+00 -1.556721e+00 -1.073723e+00 -3.042673e+00 -6.847896e-01 -2.555985e+00 2.624423e+00 -1.705959e-01 
-2.998326e+00 -6.947608e+00 -3.245392e+00 -5.858947e+00 -2.310652e+01 -2.251503e+01 -7.948331e+01 -5.167545e+01 -2.760855e+01 -1.834287e+01 6.783819e+01 2.395645e+02 1.452136e+02 6.160321e+01 1.565812e+02 -1.067538e+02 -6.805329e+01 7.312617e+01 -6.697379e+01 -1.373473e+02 -6.910181e+01 -5.392925e+01 -2.837964e+02 -5.606077e+01 1.220064e+02 -4.831832e+01 4.658760e+01 -3.050173e+01 2.946067e+01 -1.991863e+00 -3.352946e+01 9.893108e+00 -2.105383e+01 -1.302162e+00 -1.131256e+01 -4.641195e+00 -8.638297e+00 -4.489803e+00 -5.501914e+00 -2.136018e+00 -7.408480e-01 3.404359e+00 7.804832e+00 1.332877e+01 1.842000e+01 2.335855e+01 1.721366e+01 1.668756e+00 -8.295664e+00 -9.780008e-01 1.452040e+01 2.149108e+01 1.848566e+01 1.370744e+01 8.709914e+00 4.706103e+00 1.677004e+00 -8.449508e-01 -1.926968e+00 -2.686477e+00 -3.243564e+00 -3.383630e+00 -3.225484e+00 -5.372360e+00 
5.561218e+00 -4.927769e+00 1.605169e+01 -1.789676e+01 2.915482e+01 -3.186437e+01 1.679211e+01 8.286100e+01 -3.119368e+01 -1.542854e+02 -1.447347e+01 3.766295e+01 -4.828068e+01 7.070662e+01 8.924576e+01 -1.180614e+02 3.501213e+01 1.658389e+02 2.028464e+02 -4.385308e+00 3.178517e+01 2.164349e+02 -2.294281e+02 -1.687309e+00 7.127805e+01 -8.288535e+01 1.198630e+01 -3.353526e+01 -4.476906e+01 -2.779890e+01 -2.861289e+01 -9.703521e+00 -2.156675e+01 -1.520049e+01 -1.450774e+01 -1.665041e+01 -1.354223e+01 -1.549696e+01 -1.091054e+01 -1.169572e+01 -6.306664e+00 -4.447289e+00 4.380220e+00 9.917246e+00 1.994237e+01 2.163482e+01 1.204695e+01 3.287159e+00 4.207451e+00 2.722966e+00 7.907640e+00 2.023444e+01 2.058693e+01 1.187719e+01 4.833373e+00 7.116244e-01 -3.310566e+00 -5.568515e+00 -6.601855e+00 -6.984292e+00 -6.499708e+00 -6.571977e+00 -3.389272e+00 -6.925835e+00 
-7.484972e+00 -5.974186e+00 1.204418e+01 -2.462563e+01 -9.202917e+00 -1.178970e+01 1.554914e+02 1.420919e+02 -4.926023e+01 -1.455973e+02 9.910949e+01 4.862105e+02 1.515384e+02 -1.575639e+02 -1.115619e+02 -2.969678e+01 2.177868e+02 4.269242e+00 -2.523237e+02 -3.477435e+02 -4.022087e+02 -3.889119e+01 -8.544597e+01 3.342477e+01 2.040024e+02 -6.282469e+01 -1.474201e+00 2.711938e+01 6.077771e+00 -2.872633e+01 -2.033808e+01 4.636908e+00 -2.013263e+01 -3.823002e+00 -1.550736e+01 -8.899359e+00 -1.303124e+01 -9.351063e+00 -9.899114e+00 -7.697437e+00 -6.558313e+00 -7.484001e-01 8.591416e+00 1.732757e+01 2.034720e+01 1.529046e+01 1.592469e+01 2.386041e+01 2.949049e+01 2.609920e+01 1.640521e+01 1.319316e+01 1.671501e+01 1.708235e+01 9.101991e+00 1.520057e+00 -3.659381e+00 -6.167539e+00 -6.842790e+00 -6.256575e+00 -7.546578e+00 -5.527047e+00 -7.465342e+00 -1.044772e+01 
1.604328e+00 -3.994255e+00 1.810959e+01 -5.082739e+01 -2.329515e+01 -9.468071e+01 -7.961806e+01 3.930293e+02 3.695859e+02 -5.462030e+01 -3.540755e+02 -4.103365e+02 -7.008810e+01 4.677775e+01 1.065877e+02 -6.467393e+00 2.335968e+02 6.345718e+02 2.009240e+02 -2.996838e+02 -1.397967e+02 3.350350e+02 -4.183765e+02 -3.699727e+02 2.699845e+02 6.262419e+01 2.587298e+01 -9.676507e+01 -7.746215e+00 1.233400e+01 -7.851767e+00 8.443803e+00 -1.422021e+01 -1.877373e+01 -1.873647e+01 -2.521047e+01 -2.028592e+01 -2.374807e+01 -1.773483e+01 -2.146370e+01 -1.573510e+01 -8.873678e+00 4.194101e+00 6.323818e+00 1.325831e+01 1.931009e+01 2.774206e+01 2.874041e+01 2.907319e+01 2.973706e+01 2.836391e+01 2.236885e+01 1.076370e+01 7.048399e+00 2.188908e+00 -2.976603e+00 -1.263773e+01 -1.384331e+01 -1.510945e+01 -1.254351e+01 -1.461641e+01 -1.045248e+01 -1.170050e+01 -1.379380e+01 
-2.452488e+01 -7.398444e+00 -9.974644e+00 -2.640541e+01 -1.485649e+02 -7.250801e+01 -8.149845e+00 9.271690e+01 3.960575e+02 3.193999e+02 -7.632877e+01 -6.583554e+00 -6.857629e+01 -2.094962e+02 -3.057138e+02 1.854796e+02 3.131714e+02 1.167324e+02 5.129834e+02 -3.003702e+02 -4.311381e+02 1.051014e+02 -1.566840e+02 -4.359473e+02 -8.270443e+01 -8.691788e+00 -8.509451e+01 5.823056e+01 7.157103e+01 3.366223e+01 -3.715163e-01 2.138666e+00 -1.339972e+01 -6.347835e+00 -1.822309e+01 -1.432825e+01 -1.661451e+01 -1.444883e+01 -1.537041e+01 -1.918217e+01 -1.358898e+01 -9.329543e-01 9.466331e+00 1.973468e+01 3.219629e+01 3.209500e+01 2.967630e+01 2.727119e+01 2.803972e+01 2.717381e+01 2.716154e+01 3.220477e+01 3.178106e+01 2.136998e+01 7.564292e+00 -3.240914e-01 -1.206047e+01 -1.657609e+01 -1.433081e+01 -1.088376e+01 -1.190518e+01 -6.998157e+00 -1.366691e+01 -1.611351e+01 
-6.472568e+00 2.843190e+01 -2.390604e+01 2.908179e+01 2.263296e+01 -1.413928e+02 -3.591468e+01 -3.878013e+01 -1.231896e+02 6.737290e+01 -2.006815e+02 -2.122280e+02 1.489934e+02 3.012460e+02 1.788651e+02 3.138829e+02 1.052891e+02 1.364195e+02 3.819936e+02 -2.823867e+02 -4.089559e+02 2.788885e+02 1.851681e+02 -3.212123e+02 -1.619532e+01 -1.199442e+01 -4.676944e+01 4.744641e+01 -1.840960e+01 -8.473852e+01 -2.303544e+01 -3.418153e+00 2.297445e+01 -1.143247e+01 -1.940997e+01 -3.575277e+01 -2.740319e+01 -3.180927e+01 -2.770672e+01 -3.432683e+01 -1.647000e+01 -3.785716e-01 1.776367e+01 2.597404e+01 2.731376e+01 1.934934e+01 2.039657e+01 2.263281e+01 2.647700e+01 2.357814e+01 1.771125e+01 1.850102e+01 2.203585e+01 2.685356e+01 1.554401e+01 4.650343e+00 -1.525167e+01 -2.279559e+01 -2.813449e+01 -1.993982e+01 -2.594736e+01 -1.634369e+01 -2.907976e+01 -8.062031e+00 
-9.697522e+00 3.562766e+01 -5.994411e+00 -1.775343e+02 -1.460464e+02 -8.218906e+01 -8.773847e+01 1.845996e+01 8.469981e+01 3.375507e+02 -8.824559e+01 -2.087794e+02 -9.202036e+01 -2.554932e+02 2.395671e+02 3.994438e+02 2.651060e+01 2.278424e+02 -3.287155e+01 -2.118415e+02 -1.947307e+02 -9.951950e+01 6.970878e+02 2.154751e+02 -1.665767e+02 -3.384064e+02 -3.618036e+02 -1.168805e+02 -7.517818e+01 4.637194e+00 2.283307e+01 6.878662e+01 6.125171e+01 2.379415e+01 -1.240362e+01 -1.926408e+01 -1.678427e+01 -1.771194e+01 -2.244358e+01 -2.149502e+01 9.491446e-01 1.855305e+01 3.074938e+01 2.622720e+01 1.921546e+01 1.680847e+01 2.381396e+01 2.805902e+01 3.247949e+01 2.889447e+01 2.265378e+01 1.603330e+01 1.390595e+01 2.230477e+01 2.441664e+01 1.746208e+01 2.819163e+00 -1.416621e+01 -2.299163e+01 -1.725511e+01 -1.422481e+01 -1.100514e+01 -2.051872e+01 -1.464406e+01 
4.236862e+01 7.494152e+01 -1.851173e+01 -1.335944e+02 -2.600676e+02 -1.529099e+02 2.823772e+02 1.651860e+02 -6.250834e+01 3.545711e+00 1.710996e+01 -5.481150e+01 2.619943e+01 -1.434012e+02 -2.463911e+02 5.876350e+02 1.162676e+02 1.297984e+02 3.640057e+02 -2.747258e+02 1.116271e+02 2.667092e+02 -6.692839e+01 -1.402224e+02 -8.662687e+01 -1.769760e+02 -1.433975e+02 -4.556697e+01 3.750238e+00 -2.503279e+01 7.091619e+01 5.951754e+01 5.526477e+01 5.592000e+00 -3.040237e+01 -5.082399e+01 -3.605453e+01 -3.771884e+01 -3.193984e+01 -2.333721e+01 7.387368e+00 2.021232e+01 2.546786e+01 1.460326e+01 9.276206e+00 1.065601e+01 1.718775e+01 2.084286e+01 2.509734e+01 2.196943e+01 1.598544e+01 1.119544e+01 5.382573e+00 1.299964e+01 1.512489e+01 1.790620e+01 3.305127e+00 -9.441696e+00 -3.210727e+01 -2.866072e+01 -3.632975e+01 -3.349106e+01 -6.261066e+01 -2.527903e+01 
-1.293008e+00 -2.457799e+01 -1.602694e+02 -1.150351e+02 -1.191979e+02 -8.845767e+01 1.888805e+02 3.351618e+02 7.738944e+01 3.194930e+01 1.937155e+02 -2.271761e+02 -4.957340e+02 -5.654545e+02 4.593969e+01 5.785877e+02 1.913748e+02 6.022538e+02 4.146237e+02 -4.111601e+02 1.389790e+01 -1.367398e+02 -4.209252e+02 -1.997892e+02 -3.774418e+02 -4.762224e+00 2.017411e+02 -6.362330e+01 -5.096835e+01 1.353407e+01 7.346298e+01 7.443951e+01 3.873311e+01 3.699520e+00 -1.019081e+01 -1.171249e+01 -3.214341e+00 -1.213581e+01 -9.081553e+00 -1.203843e+00 2.086199e+01 2.920939e+01 2.715068e+01 1.262869e+01 8.943810e+00 1.081968e+01 1.671585e+01 1.897688e+01 2.325537e+01 1.955364e+01 1.568060e+01 1.069984e+01 5.817444e+00 9.143455e+00 1.881601e+01 2.434604e+01 1.245044e+01 -1.914469e-03 -1.161559e+01 -1.651939e+01 -9.268985e+00 -3.044411e+00 1.243307e+01 6.164976e+00 
-3.686124e+01 -5.763671e+01 -1.584799e+02 -1.319957e+02 2.491791e+02 1.066001e+02 1.657625e+02 1.910890e+02 -2.490919e+02 -7.170671e+01 -1.197127e+02 1.224006e+02 4.578178e+01 -1.901339e+02 -1.493012e+01 2.946512e+02 2.793022e+02 -2.099280e+02 1.554447e+02 1.641051e+02 -1.518259e+02 -3.796500e+02 -4.451086e+02 4.223682e+01 1.521614e+02 1.587585e+02 1.070966e+02 -2.104233e+01 -1.053900e+01 -5.511988e+01 2.540832e+01 -2.918171e+00 4.955867e+00 -2.390542e+00 2.943034e+01 2.592484e+01 2.438500e+01 4.230927e+00 3.755305e+00 2.994724e+00 1.861128e+01 2.705907e+01 1.973387e+01 3.555558e+00 2.595634e+00 4.441165e+00 7.743771e+00 1.007459e+01 1.238297e+01 1.080145e+01 6.801420e+00 5.197281e+00 -5.957685e-01 1.992966e+00 9.267389e+00 2.365119e+01 9.735153e+00 2.568260e+00 -1.159682e+01 -1.192052e+01 -1.765773e+01 -4.903452e-01 -1.290942e+01 -8.349573e-02 
-2.318288e+01 -7.471295e+01 1.851919e+01 1.198479e+02 1.440611e+02 -2.445841e+02 -8.338495e+01 3.128076e+02 -5.638937e+02 -2.317263e+02 4.308193e+02 5.663316e+01 6.162342e+01 1.173169e+02 -4.116309e+02 -1.002959e+01 2.966255e+02 2.242783e+02 3.010157e+02 -5.933257e+02 -3.053349e+02 9.995938e+01 -4.092141e+02 -2.944695e+01 -6.708053e+01 -1.507649e+02 3.740853e+02 1.034352e+02 -8.955770e+01 -1.847150e+00 7.757442e+01 7.062164e+01 3.613038e+01 2.817667e+01 2.354646e+01 1.228035e+01 1.863990e+01 8.412423e+00 1.124504e+01 7.986006e+00 2.108939e+01 2.569012e+01 1.952624e+01 4.993821e+00 4.305109e+00 4.842357e+00 7.352503e+00 8.128549e+00 1.013022e+01 8.289288e+00 6.386176e+00 4.297152e+00 1.364114e+00 2.365337e+00 1.094960e+01 2.193345e+01 1.475889e+01 3.849927e+00 8.412068e-01 -2.026658e+00 -2.623744e+00 6.594858e-01 -2.002733e+00 -8.566184e+00 
-2.195103e+01 2.268020e+01 -5.740097e+01 2.186959e+02 9.493223e+00 -2.863733e+02 4.348027e+01 -2.961088e+02 -4.051823e+02 2.600201e+02 2.537339e+02 2.218146e+02 -2.163372e+02 -1.379823e+02 3.681596e+02 9.525634e+01 2.113952e+01 -3.123675e+02 -6.368170e+01 -2.947702e+02 -3.019821e+02 1.925965e+02 5.047841e+01 -5.862415e+01 1.775444e+02 3.463088e+02 1.663162e+02 4.381055e+01 -8.487804e+01 -6.253717e+01 6.656641e+01 1.326856e+01 8.902961e+00 6.571446e+00 2.373975e+01 1.078597e+01 2.551643e+01 1.253719e+01 1.186707e+01 -6.889640e-01 1.164134e+01 1.644509e+01 1.131563e+01 1.312621e+00 -6.368009e-02 5.292200e-01 1.198239e+00 2.253622e+00 2.406522e+00 2.545212e+00 2.712602e-01 6.675411e-01 -2.746716e+00 7.900606e-02 3.680725e+00 1.527921e+01 5.418991e+00 -4.411115e-02 -4.256958e+00 3.460530e+00 -1.160745e+00 5.686994e+00 -3.003923e+00 2.420826e+01 
-1.879775e+01 -1.075610e+01 -8.465525e+01 1.159296e+02 9.786197e+01 -4.362916e+02 -1.189541e+02 6.205959e+02 -5.248203e+01 -3.119306e+02 2.391503e+02 -2.101275e+01 -3.502215e+02 6.306440e+01 6.894402e+01 4.953442e+01 7.916707e+01 -1.691377e+02 -1.951295e+02 -4.976373e+02 -1.499246e+02 2.611598e+02 8.618967e+01 1.935739e+02 -1.707319e+02 -1.760777e+02 -1.525546e+01 -7.671298e+01 1.679274e+02 1.282981e+02 1.171301e+02 5.211162e+01 8.954670e+01 2.603290e+01 5.542098e+01 2.519298e+01 3.589791e+01 1.998097e+01 1.343091e+01 -1.423612e+00 5.918239e+00 8.028313e+00 9.394238e+00 4.181631e+00 4.169099e+00 2.729376e+00 3.584181e+00 2.650031e+00 3.275075e+00 2.757566e+00 2.819868e+00 2.556955e+00 2.283720e+00 2.874069e+00 3.930531e+00 6.878620e+00 2.861319e+00 -3.366172e-02 6.488266e-01 5.338669e+00 4.864604e+00 6.134645e+00 -5.581554e+00 1.184147e+00 
1.103356e+01 -2.507823e+01 -2.701249e+01 -1.214843e+02 -8.668777e+01 -5.356721e+01 -8.780384e+01 -9.247583e+00 1.844990e+02 3.303602e+02 1.942301e+02 -1.006914e+02 -4.683262e+02 9.676048e+01 3.072065e+02 1.197701e+02 -1.636083e+02 -4.291709e+02 -2.992819e+02 -4.979729e+02 2.668689e+02 5.979161e+02 9.939699e+01 -2.271434e+02 -1.967565e+02 2.224960e+02 1.522308e+02 2.193486e+02 8.774520e+00 -2.724326e+02 1.823834e+02 9.751172e+01 -4.668691e+00 3.606851e+01 1.966097e+01 2.698524e+01 1.843616e+01 2.003401e+01 3.835916e+00 -3.747516e+00 -7.499284e+00 -5.759320e+00 -8.857051e-01 2.190566e+00 1.460157e+00 7.316871e-01 -4.905845e-01 -7.830231e-01 -2.080932e+00 -6.231709e-01 -1.017948e+00 9.761132e-01 3.940641e-01 1.820557e+00 -3.501544e+00 -3.484233e+00 -8.243586e+00 -4.572709e+00 -5.956091e+00 8.717093e+00 4.547131e+00 1.340462e+01 9.088579e+00 2.798391e+01 