# vtk DataFile Version 2.0
Comment goes here
ASCII

DATASET STRUCTURED_POINTS
DIMENSIONS    64   64   1

ORIGIN    0.000   0.000   0.000
SPACING   0.031250.03125   1.000

POINT_DATA   4096
SCALARS uY double
LOOKUP_TABLE default

-2.140498e+00 -3.623193e+00 -2.736203e+00 -4.230646e+00 -3.373124e+00 -4.784398e+00 -4.000876e+00 -5.210119e+00 -4.551056e+00 -5.436035e+00 -4.945537e+00 -5.409996e+00 -5.109070e+00 -5.113678e+00 -4.986716e+00 -4.574447e+00 -4.564988e+00 -3.861587e+00 -3.886403e+00 -3.061694e+00 -3.040347e+00 -2.246544e+00 -2.132038e+00 -1.479126e+00 -1.261303e+00 -8.223466e-01 -5.096152e-01 -3.188694e-01 7.242677e-02 2.015128e-02 4.707046e-01 2.112353e-01 7.017556e-01 2.863449e-01 7.998090e-01 2.802624e-01 8.036372e-01 2.224103e-01 7.476281e-01 1.336878e-01 6.577685e-01 2.661954e-02 5.511029e-01 -9.305859e-02 4.368862e-01 -2.245818e-01 3.181743e-01 -3.707066e-01 1.932294e-01 -5.368615e-01 5.656647e-02 -7.307762e-01 -1.003217e-01 -9.621346e-01 -2.884715e-01 -1.241920e+00 -5.208646e-01 -1.581323e+00 -8.114099e-01 -1.989868e+00 -1.173198e+00 -2.472230e+00 -1.615681e+00 -3.023471e+00 
2.949130e+00 2.432493e+00 3.092225e+00 2.525902e+00 3.186346e+00 2.606630e+00 3.235986e+00 2.698143e+00 3.250506e+00 2.812021e+00 3.236378e+00 2.933941e+00 3.191052e+00 3.025815e+00 3.105015e+00 3.032498e+00 2.963351e+00 2.893564e+00 2.750684e+00 2.584607e+00 2.467099e+00 2.144547e+00 2.137177e+00 1.647647e+00 1.801211e+00 1.157132e+00 1.490067e+00 7.127593e-01 1.217987e+00 3.391332e-01 9.908682e-01 5.144155e-02 8.122596e-01 -1.429726e-01 6.851035e-01 -2.445563e-01 6.110579e-01 -2.607576e-01 5.894353e-01 -2.039315e-01 6.170009e-01 -8.858417e-02 6.887919e-01 7.123592e-02 7.994560e-01 2.638282e-01 9.443591e-01 4.805482e-01 1.119762e+00 7.150827e-01 1.321984e+00 9.618717e-01 1.546488e+00 1.215046e+00 1.787772e+00 1.468093e+00 2.039277e+00 1.713380e+00 2.292752e+00 1.941659e+00 2.537543e+00 2.142589e+00 2.760775e+00 2.307226e+00 
-2.540396e+00 -3.429210e+00 -3.342410e+00 -4.268481e+00 -4.176032e+00 -5.078196e+00 -4.963157e+00 -5.757833e+00 -5.613820e+00 -6.214510e+00 -6.047367e+00 -6.380813e+00 -6.198338e+00 -6.208069e+00 -6.007956e+00 -5.683331e+00 -5.445098e+00 -4.866104e+00 -4.549610e+00 -3.873545e+00 -3.430351e+00 -2.833202e+00 -2.229670e+00 -1.850208e+00 -1.082881e+00 -1.018903e+00 -1.039931e-01 -3.884974e-01 6.397401e-01 3.932539e-02 1.135055e+00 2.949727e-01 1.410989e+00 4.234800e-01 1.518800e+00 4.694194e-01 1.512884e+00 4.678572e-01 1.438517e+00 4.413971e-01 1.327101e+00 4.011125e-01 1.196629e+00 3.493392e-01 1.054765e+00 2.829374e-01 9.023361e-01 1.958025e-01 7.355871e-01 7.972851e-02 5.467188e-01 -7.591290e-02 3.240637e-01 -2.842289e-01 5.326944e-02 -5.601821e-01 -2.813336e-01 -9.198970e-01 -6.958656e-01 -1.379577e+00 -1.205492e+00 -1.952319e+00 -1.820718e+00 -2.641252e+00 
2.553737e+00 2.898321e+00 2.512668e+00 2.770676e+00 2.431733e+00 2.583920e+00 2.343980e+00 2.390080e+00 2.287352e+00 2.228473e+00 2.280339e+00 2.098892e+00 2.310413e+00 1.988564e+00 2.358097e+00 1.879059e+00 2.395277e+00 1.711439e+00 2.378507e+00 1.450604e+00 2.280741e+00 1.131144e+00 2.120055e+00 8.171525e-01 1.948641e+00 5.391553e-01 1.790654e+00 2.982075e-01 1.641420e+00 9.938377e-02 1.497161e+00 -4.424891e-02 1.363758e+00 -1.181616e-01 1.254362e+00 -1.136470e-01 1.182630e+00 -3.132855e-02 1.156758e+00 1.195000e-01 1.177235e+00 3.240059e-01 1.238329e+00 5.659582e-01 1.331834e+00 8.317980e-01 1.450846e+00 1.112915e+00 1.590828e+00 1.404142e+00 1.746919e+00 1.699424e+00 1.911268e+00 1.990118e+00 2.074818e+00 2.266322e+00 2.229172e+00 2.516429e+00 2.365703e+00 2.724856e+00 2.473627e+00 2.871183e+00 2.540037e+00 2.933695e+00 
-2.857520e+00 -3.182256e+00 -3.917242e+00 -4.332641e+00 -5.026463e+00 -5.497876e+00 -6.063193e+00 -6.524723e+00 -6.894120e+00 -7.281013e+00 -7.430590e+00 -7.690217e+00 -7.627157e+00 -7.656062e+00 -7.401636e+00 -7.087801e+00 -6.660851e+00 -6.049063e+00 -5.440934e+00 -4.734431e+00 -3.904339e+00 -3.360751e+00 -2.273718e+00 -2.066667e+00 -7.358023e-01 -1.012720e+00 5.378387e-01 -2.559126e-01 1.456744e+00 2.287929e-01 2.020334e+00 5.039648e-01 2.290078e+00 6.421943e-01 2.353214e+00 7.059719e-01 2.291998e+00 7.385130e-01 2.167448e+00 7.632053e-01 2.016019e+00 7.870831e-01 1.853657e+00 8.060177e-01 1.682965e+00 8.105603e-01 1.500303e+00 7.904029e-01 1.299397e+00 7.348587e-01 1.069996e+00 6.304832e-01 7.960625e-01 4.601475e-01 4.585153e-01 2.041847e-01 3.810437e-02 -1.595722e-01 -4.849294e-01 -6.571365e-01 -1.131602e+00 -1.316738e+00 -1.920609e+00 -2.159698e+00 
2.212609e+00 3.457358e+00 1.972026e+00 3.075928e+00 1.681625e+00 2.568925e+00 1.417744e+00 2.049078e+00 1.273814e+00 1.612118e+00 1.291508e+00 1.245265e+00 1.420232e+00 9.523287e-01 1.629351e+00 7.849098e-01 1.882907e+00 6.231651e-01 2.081467e+00 3.773572e-01 2.147952e+00 1.171413e-01 2.104971e+00 -4.566585e-02 2.077805e+00 -1.162767e-01 2.083813e+00 -1.620043e-01 2.066067e+00 -1.996659e-01 1.999631e+00 -2.125550e-01 1.896145e+00 -1.730241e-01 1.788087e+00 -6.057988e-02 1.708453e+00 1.300654e-01 1.676834e+00 3.897121e-01 1.695739e+00 6.993700e-01 1.754590e+00 1.036813e+00 1.838262e+00 1.384456e+00 1.936311e+00 1.735165e+00 2.045980e+00 2.089084e+00 2.163823e+00 2.441284e+00 2.276862e+00 2.779067e+00 2.370666e+00 3.089679e+00 2.436055e+00 3.359923e+00 2.466156e+00 3.568892e+00 2.450157e+00 3.682712e+00 2.371256e+00 3.658008e+00 
-3.050639e+00 -2.806230e+00 -4.441404e+00 -4.378617e+00 -5.949048e+00 -6.051549e+00 -7.370249e+00 -7.558974e+00 -8.470504e+00 -8.692144e+00 -9.153025e+00 -9.439465e+00 -9.475761e+00 -9.634097e+00 -9.311324e+00 -8.961464e+00 -8.362347e+00 -7.512085e+00 -6.657727e+00 -5.661615e+00 -4.475331e+00 -3.810344e+00 -2.223099e+00 -2.041508e+00 -1.215355e-01 -7.074392e-01 1.536035e+00 1.484947e-01 2.630037e+00 6.254773e-01 3.200781e+00 8.478979e-01 3.377881e+00 9.348982e-01 3.314626e+00 9.744932e-01 3.137067e+00 1.018098e+00 2.925372e+00 1.086626e+00 2.717266e+00 1.178240e+00 2.519689e+00 1.276768e+00 2.323164e+00 1.362117e+00 2.115994e+00 1.419294e+00 1.890809e+00 1.437469e+00 1.636781e+00 1.401386e+00 1.330709e+00 1.288773e+00 9.458083e-01 1.075069e+00 4.595659e-01 7.332900e-01 -1.506242e-01 2.260416e-01 -9.151675e-01 -4.989097e-01 -1.871830e+00 -1.498891e+00 
1.953616e+00 4.198917e+00 1.481747e+00 3.508219e+00 9.027081e-01 2.564850e+00 3.647854e-01 1.618862e+00 9.428979e-02 9.208375e-01 1.989054e-01 3.202657e-01 4.647932e-01 -1.985224e-01 8.714279e-01 -3.050934e-01 1.428993e+00 -3.770122e-01 1.903901e+00 -6.798392e-01 2.107854e+00 -9.866085e-01 2.060053e+00 -9.971342e-01 2.166118e+00 -8.030683e-01 2.404523e+00 -6.405121e-01 2.552296e+00 -5.310275e-01 2.551825e+00 -4.363563e-01 2.440221e+00 -3.005223e-01 2.295132e+00 -8.396503e-02 2.184826e+00 2.241437e-01 2.143734e+00 6.107898e-01 2.171711e+00 1.046995e+00 2.244225e+00 1.497079e+00 2.329523e+00 1.933672e+00 2.410238e+00 2.354047e+00 2.493522e+00 2.775647e+00 2.586139e+00 3.197217e+00 2.661863e+00 3.594404e+00 2.694276e+00 3.952120e+00 2.676661e+00 4.262998e+00 2.610528e+00 4.506340e+00 2.487457e+00 4.631688e+00 2.281007e+00 4.558602e+00 
-3.029684e+00 -2.164157e+00 -4.844635e+00 -4.319306e+00 -6.953653e+00 -6.764416e+00 -8.999130e+00 -8.966723e+00 -1.047153e+01 -1.048844e+01 -1.123550e+01 -1.173238e+01 -1.180544e+01 -1.246257e+01 -1.200609e+01 -1.160147e+01 -1.083515e+01 -9.385392e+00 -8.375184e+00 -6.616834e+00 -5.119285e+00 -4.180431e+00 -2.014084e+00 -1.580911e+00 9.454751e-01 8.038284e-02 3.100995e+00 9.327742e-01 4.327756e+00 1.272868e+00 4.776228e+00 1.324503e+00 4.709006e+00 1.275428e+00 4.394740e+00 1.241182e+00 4.020867e+00 1.275021e+00 3.683427e+00 1.388449e+00 3.410432e+00 1.562975e+00 3.185929e+00 1.760260e+00 2.974283e+00 1.940672e+00 2.749161e+00 2.085488e+00 2.509942e+00 2.192310e+00 2.254212e+00 2.246871e+00 1.942750e+00 2.216925e+00 1.533071e+00 2.072735e+00 1.003688e+00 1.790210e+00 3.369502e-01 1.325118e+00 -5.071675e-01 5.919634e-01 -1.600409e+00 -5.319971e-01 
1.840323e+00 5.276263e+00 1.103622e+00 4.197781e+00 8.335692e-02 2.558763e+00 -9.720804e-01 9.205663e-01 -1.479839e+00 1.180665e-01 -1.039709e+00 -6.824786e-01 -6.000429e-01 -1.726828e+00 -4.634128e-03 -1.402140e+00 1.067057e+00 -1.140672e+00 1.965578e+00 -1.742386e+00 2.286554e+00 -2.368218e+00 1.840179e+00 -2.144067e+00 2.109749e+00 -1.482000e+00 2.825427e+00 -1.090546e+00 3.215173e+00 -8.589876e-01 3.237840e+00 -7.021989e-01 3.026331e+00 -5.044259e-01 2.766445e+00 -1.937241e-01 2.587046e+00 2.430801e-01 2.535772e+00 7.832410e-01 2.598169e+00 1.379887e+00 2.717897e+00 1.969347e+00 2.824361e+00 2.497928e+00 2.882401e+00 2.971100e+00 2.933308e+00 3.461891e+00 3.026746e+00 3.977006e+00 3.090756e+00 4.448191e+00 3.067028e+00 4.859589e+00 2.963216e+00 5.230940e+00 2.807932e+00 5.558801e+00 2.603904e+00 5.777253e+00 2.309035e+00 5.747010e+00 
-2.620389e+00 -9.979466e-01 -4.944075e+00 -3.959876e+00 -8.003227e+00 -7.704259e+00 -1.119854e+01 -1.106770e+01 -1.321396e+01 -1.257342e+01 -1.351344e+01 -1.452095e+01 -1.448315e+01 -1.683154e+01 -1.606866e+01 -1.555945e+01 -1.463284e+01 -1.182556e+01 -1.095581e+01 -7.350280e+00 -5.608611e+00 -4.687009e+00 -1.639308e+00 -1.890175e-01 2.839898e+00 1.690672e+00 5.599935e+00 2.235902e+00 6.808822e+00 2.198900e+00 6.869868e+00 1.896862e+00 6.291940e+00 1.603789e+00 5.542396e+00 1.444742e+00 4.876394e+00 1.456360e+00 4.383088e+00 1.631512e+00 4.058653e+00 1.925728e+00 3.840952e+00 2.259956e+00 3.639245e+00 2.552803e+00 3.395997e+00 2.786496e+00 3.144638e+00 2.995937e+00 2.925752e+00 3.174286e+00 2.651028e+00 3.257866e+00 2.238042e+00 3.207780e+00 1.683122e+00 3.028268e+00 9.997521e-01 2.689680e+00 1.480317e-01 2.070199e+00 -9.935778e-01 9.403742e-01 
1.995783e+00 6.972950e+00 1.024887e+00 5.464774e+00 -6.809331e-01 2.550818e+00 -2.892195e+00 -6.793674e-01 -4.086650e+00 -7.122683e-01 -2.229901e+00 -1.449299e+00 -1.740980e+00 -4.509181e+00 -1.291447e+00 -2.367742e+00 9.151675e-01 -1.034999e+00 2.513450e+00 -2.847399e+00 3.149156e+00 -4.548708e+00 8.823176e-01 -3.682317e+00 1.586949e+00 -1.986745e+00 3.594636e+00 -1.431940e+00 4.314432e+00 -1.119185e+00 4.197207e+00 -1.000360e+00 3.664425e+00 -8.079024e-01 3.147555e+00 -4.183458e-01 2.849200e+00 1.639178e-01 2.803032e+00 8.988596e-01 2.958321e+00 1.716565e+00 3.199341e+00 2.498739e+00 3.366589e+00 3.114951e+00 3.364810e+00 3.568716e+00 3.334638e+00 4.122364e+00 3.499251e+00 4.799870e+00 3.608639e+00 5.360860e+00 3.518946e+00 5.804726e+00 3.297576e+00 6.237726e+00 3.047760e+00 6.714368e+00 2.803048e+00 7.166410e+00 2.503890e+00 7.377178e+00 
-1.512641e+00 1.193695e+00 -4.290384e+00 -2.791417e+00 -8.845237e+00 -8.958892e+00 -1.453628e+01 -1.511800e+01 -1.784338e+01 -1.425885e+01 -1.510816e+01 -1.691816e+01 -1.647223e+01 -2.464401e+01 -2.314832e+01 -2.186449e+01 -2.074311e+01 -1.493615e+01 -1.541283e+01 -6.842386e+00 -4.670709e+00 -6.700463e+00 -1.728994e+00 3.719712e+00 6.508546e+00 4.688104e+00 9.655772e+00 4.151392e+00 1.047254e+01 3.352518e+00 9.606325e+00 2.451346e+00 8.052803e+00 1.808440e+00 6.622047e+00 1.488109e+00 5.573983e+00 1.480226e+00 4.922818e+00 1.758580e+00 4.604005e+00 2.249892e+00 4.480929e+00 2.800652e+00 4.345362e+00 3.220878e+00 4.051113e+00 3.504321e+00 3.748277e+00 3.823728e+00 3.651814e+00 4.194085e+00 3.494411e+00 4.432284e+00 3.082044e+00 4.472360e+00 2.488433e+00 4.424069e+00 1.827862e+00 4.331049e+00 1.089422e+00 4.052495e+00 9.573525e-02 3.215985e+00 
2.603904e+00 9.792520e+00 1.712602e+00 8.188132e+00 -8.299667e-01 2.915162e+00 -5.837807e+00 -5.815350e+00 -1.013598e+01 -7.239238e-01 -1.888503e+00 -5.004303e-02 -2.491453e+00 -1.205479e+01 -4.353707e+00 -2.367802e+00 1.563353e+00 2.270082e+00 3.781692e+00 -4.343899e+00 6.580735e+00 -9.233045e+00 -2.981085e+00 -5.733230e+00 -2.864816e-01 -1.865233e+00 5.694985e+00 -1.555313e+00 6.445683e+00 -1.140827e+00 5.623566e+00 -1.343707e+00 4.257211e+00 -1.278168e+00 3.279048e+00 -8.145176e-01 2.835798e+00 -6.232015e-02 2.849811e+00 9.264043e-01 3.216937e+00 2.079577e+00 3.744134e+00 3.186890e+00 4.076402e+00 3.890327e+00 3.885559e+00 4.061131e+00 3.552488e+00 4.653019e+00 4.028290e+00 5.738158e+00 4.327327e+00 6.392169e+00 4.102207e+00 6.758471e+00 3.656278e+00 7.192510e+00 3.273955e+00 7.880036e+00 3.042494e+00 8.780303e+00 2.889417e+00 9.615312e+00 
7.690189e-01 5.352906e+00 -1.845792e+00 6.266840e-01 -8.284036e+00 -9.904525e+00 -1.978323e+01 -2.702344e+01 -2.936860e+01 -1.208462e+01 -1.262088e+01 -1.436552e+01 -1.282201e+01 -4.283034e+01 -3.959540e+01 -3.182303e+01 -2.982802e+01 -1.792010e+01 -2.571423e+01 -2.313877e+00 4.037524e+00 -1.597719e+01 -6.768604e+00 1.607177e+01 1.519143e+01 9.478976e+00 1.613947e+01 6.417452e+00 1.601319e+01 4.441405e+00 1.299493e+01 2.753911e+00 9.689832e+00 1.728761e+00 7.354760e+00 1.238686e+00 5.901100e+00 1.223373e+00 5.140340e+00 1.674909e+00 4.954585e+00 2.518133e+00 5.130454e+00 3.475182e+00 5.204782e+00 4.023218e+00 4.715487e+00 4.164211e+00 4.161152e+00 4.585052e+00 4.438572e+00 5.349855e+00 4.584393e+00 5.809252e+00 4.102316e+00 5.827354e+00 3.358786e+00 5.863227e+00 2.731605e+00 6.150648e+00 2.281578e+00 6.580424e+00 1.797457e+00 6.668347e+00 
3.751830e+00 1.437559e+01 4.047798e+00 1.467442e+01 1.941657e+00 6.919978e+00 -8.926036e+00 -2.773461e+01 -2.952661e+01 6.571037e+00 6.582836e+00 1.213097e+01 8.314953e-01 -3.984441e+01 -1.728484e+01 3.922912e+00 6.847929e+00 1.742159e+01 4.686790e+00 -7.377507e+00 2.008809e+01 -2.321019e+01 -1.761588e+01 -6.641666e+00 -6.099178e+00 -1.617039e+00 1.291911e+01 -7.711532e-01 1.083538e+01 -3.870738e-01 7.507958e+00 -1.945391e+00 4.307677e+00 -2.074902e+00 2.810555e+00 -1.461530e+00 2.329475e+00 -5.267216e-01 2.515180e+00 7.703143e-01 3.287837e+00 2.467283e+00 4.460764e+00 4.270831e+00 5.303021e+00 5.193364e+00 4.570578e+00 4.119308e+00 3.013318e+00 4.670499e+00 4.708237e+00 7.103576e+00 5.572468e+00 7.726158e+00 4.908998e+00 7.644433e+00 3.949219e+00 7.878932e+00 3.341915e+00 8.800879e+00 3.184542e+00 1.040998e+01 3.366774e+00 1.245818e+01 
4.741769e+00 1.298050e+01 4.440106e+00 1.000722e+01 -2.099979e+00 -5.100517e+00 -2.706652e+01 -7.140670e+01 -6.229838e+01 9.439590e+00 1.342080e-01 9.510745e+00 1.533466e+01 -1.044567e+02 -9.142945e+01 -3.788365e+01 -3.296648e+01 -8.864370e+00 -5.715424e+01 -4.253734e+00 4.315802e+01 -3.533859e+01 -3.386835e+01 5.343984e+01 3.870598e+01 1.250081e+01 2.651494e+01 6.917665e+00 2.485621e+01 4.819061e+00 1.622854e+01 2.609594e+00 1.036071e+01 1.232341e+00 7.310636e+00 5.348375e-01 5.572803e+00 4.886607e-01 4.782570e+00 1.193947e+00 4.934157e+00 2.683102e+00 5.872247e+00 4.581762e+00 6.590752e+00 5.206226e+00 5.397976e+00 4.503836e+00 3.911558e+00 5.000648e+00 5.318524e+00 6.812557e+00 6.261729e+00 7.645522e+00 5.376985e+00 7.167546e+00 4.116159e+00 7.048745e+00 3.462020e+00 7.814748e+00 3.505184e+00 9.425165e+00 4.056947e+00 1.152065e+01 
4.669526e+00 2.007353e+01 7.920834e+00 2.887729e+01 1.386127e+01 2.455514e+01 -2.260865e+01 -7.876355e+01 -6.036468e+01 2.381237e+01 2.677860e+01 4.993770e+01 7.144529e+00 -1.419802e+02 -5.372591e+01 4.689979e+01 3.060994e+01 8.038449e+01 9.780478e+00 2.783979e+00 6.464158e+01 -8.427505e+01 -6.590834e+01 -1.710930e+00 -2.611387e+01 -1.991387e+01 3.607268e+01 1.100012e+01 1.976759e+01 6.744754e-01 7.593532e+00 -4.009965e+00 2.297657e+00 -3.319739e+00 1.269346e+00 -2.379223e+00 1.119858e+00 -1.391825e+00 1.560542e+00 1.633582e-01 2.914308e+00 2.706731e+00 5.456859e+00 6.241806e+00 8.018944e+00 8.259504e+00 5.888002e+00 2.739007e+00 -2.563509e-02 2.981811e+00 5.825464e+00 1.003218e+01 8.311591e+00 9.836027e+00 6.035658e+00 8.220391e+00 3.895446e+00 7.852472e+00 2.963475e+00 8.972739e+00 2.977788e+00 1.147426e+01 3.590492e+00 1.520322e+01 
1.048791e+01 2.593960e+01 1.804210e+01 2.789462e+01 5.151989e+00 3.196607e+00 -5.712089e+01 -7.792768e+01 -6.167931e+01 -6.358804e+00 -5.614566e+01 5.229961e+01 7.902394e+01 -2.484875e+02 -2.002338e+02 -5.116145e+01 7.198872e+01 1.356667e+02 -1.706323e+02 -1.470547e+02 1.654308e+02 1.827844e+01 -1.106804e+02 1.281800e+02 6.256177e+01 -2.863052e+01 5.828794e+01 7.885446e-01 3.251450e+01 6.504762e+00 1.466559e+01 2.593633e+00 8.902935e+00 2.501322e-01 6.189629e+00 -8.993642e-01 4.270830e+00 -1.080955e+00 3.433117e+00 -1.035414e-01 4.105319e+00 2.477416e+00 6.839576e+00 6.895385e+00 9.269137e+00 6.698321e+00 5.639735e+00 4.617026e+00 3.345848e+00 5.201786e+00 5.990974e+00 8.353339e+00 9.152314e+00 1.070873e+01 7.046505e+00 8.152920e+00 4.295415e+00 7.346916e+00 3.516575e+00 8.615104e+00 4.214838e+00 1.173163e+01 6.186348e+00 1.709435e+01 
4.712939e+00 2.323737e+01 8.604134e+00 4.586407e+01 3.109907e+01 4.869908e+01 -2.809892e+01 -1.009824e+01 -6.185965e+01 -5.881940e+01 -1.060277e+02 -6.232263e+01 2.391599e+01 -1.081960e+02 -6.060287e+01 5.359327e+01 7.472130e+01 1.602544e+02 1.262025e+02 2.692921e+01 2.241756e+02 -6.050036e+01 -2.076212e+02 -1.483097e+01 -9.970603e+01 -9.348810e+01 6.205803e+01 2.310593e+01 1.778473e+01 -1.228575e+01 -4.268736e+00 -6.296602e+00 -3.263918e+00 -3.909214e+00 -1.010924e+00 -3.481612e+00 -7.072891e-01 -2.981336e+00 -3.255094e-01 -1.524437e+00 1.334924e+00 1.865587e+00 6.104395e+00 8.950320e+00 1.354918e+01 1.547312e+01 9.235922e+00 -4.760732e-01 -7.042982e+00 -1.317090e+00 8.182458e+00 1.686927e+01 1.414661e+01 1.277004e+01 6.873715e+00 7.528402e+00 2.676546e+00 6.304110e+00 1.670274e+00 7.678797e+00 2.205576e+00 1.105123e+01 3.500782e+00 1.629162e+01 
7.523961e+00 2.955092e+01 1.727838e+01 4.852118e+01 2.374297e+01 2.838895e+01 -2.012313e+01 1.253274e+01 -8.592319e+01 -1.689973e+02 -1.665860e+02 -2.576457e+02 6.961169e+01 9.639110e+01 -2.013174e+02 -2.963101e+02 -6.080209e+01 9.290943e+01 8.270843e+01 1.538875e+02 1.604289e+02 3.150978e+02 -7.977842e+00 -1.830921e+01 -2.671131e+01 -2.396736e+02 9.928026e+01 3.649515e+01 -2.351724e+01 7.059782e+00 -1.259417e+00 2.225226e+00 5.787977e+00 -2.583472e+00 3.513654e+00 -3.866856e+00 1.496029e+00 -4.032732e+00 4.242658e-01 -3.086746e+00 1.160932e+00 3.003689e-01 7.199647e+00 1.059582e+01 1.220489e+01 1.595735e+00 1.029772e-01 1.358910e+01 1.968107e+01 1.468558e+01 2.008953e+00 2.620673e+00 1.156848e+01 1.567351e+01 8.550016e+00 7.137979e+00 2.561818e+00 5.582582e+00 2.150431e+00 7.552534e+00 3.644798e+00 1.166541e+01 5.649064e+00 1.822771e+01 
8.990291e+00 3.254010e+01 2.780184e+01 5.830437e+01 3.992780e+00 4.624112e+01 -6.967769e+01 6.586193e+01 -8.039327e+01 -3.461963e+02 -4.131111e+01 -1.591910e+02 -2.594967e+01 2.169419e+02 9.028570e+01 -9.138437e+01 -5.967515e+00 8.434427e+01 9.486392e+01 3.282481e+02 2.271495e+01 2.094942e+02 -1.066829e+02 -2.576125e+02 1.707468e+02 -1.023709e+02 -9.319821e+01 -1.172838e+02 1.944434e+01 -9.015546e+00 -1.255561e+01 -3.888204e-01 -2.384730e+00 -4.429633e+00 -1.516728e+00 -5.583912e+00 -2.792339e+00 -5.782920e+00 -3.458074e+00 -5.144645e+00 -3.261288e+00 -3.038163e+00 1.968409e+00 1.812571e+00 -5.868212e-01 6.546111e+00 2.141322e+01 2.766413e+01 2.265432e+01 2.742121e+01 2.388287e+01 9.306128e+00 -5.393017e-01 4.870767e+00 2.332257e+00 2.105517e+00 -1.690041e+00 2.161515e+00 -1.082192e+00 4.399820e+00 7.255559e-01 8.642692e+00 3.449185e+00 1.645405e+01 
9.767844e+00 3.941494e+01 1.203670e+01 4.436240e+01 3.138431e+01 3.045458e+01 -1.869219e+01 1.404494e+00 -1.634575e+02 -2.900495e+02 1.354300e+01 -2.373037e+02 -3.474703e+02 -1.592247e+02 3.764584e+01 2.283668e+02 1.532380e+02 -4.085109e+01 -8.544790e+01 -2.589142e+01 3.835509e+02 4.053063e+02 -5.246995e+01 -2.446638e+01 -5.783703e+01 -1.037473e+02 -9.155987e+01 5.623184e+01 3.986247e+01 -5.017952e+01 1.405460e+01 -1.413756e+01 1.283408e+00 -1.104313e+01 -1.355863e+00 -8.767012e+00 -2.799045e+00 -8.194972e+00 -4.504563e+00 -8.452124e+00 -7.528079e+00 -9.200540e+00 -2.453469e+00 5.196696e+00 1.813401e+01 2.732844e+01 2.504233e+01 1.159129e+01 3.919023e+00 1.122197e+01 2.403542e+01 2.988235e+01 2.037366e+01 1.019783e+01 -9.777523e-01 -1.960537e+00 -4.946707e+00 5.625833e-01 -9.822086e-01 4.384488e+00 2.523467e+00 8.809844e+00 6.149418e+00 1.653373e+01 
2.445685e+00 1.088876e+01 8.334477e+00 6.165596e+01 6.601417e+00 6.502767e+01 8.192313e-01 1.238841e+01 -1.698096e+02 -1.538689e+02 -1.035859e+02 -1.449676e+02 1.785221e+02 3.247508e+00 -1.116654e+02 -6.712554e-01 1.826647e+01 2.853166e+02 4.608120e+02 -9.098766e-01 5.243949e+01 -3.137522e+01 -2.885641e+02 -5.979123e+01 -1.089231e+02 5.335697e+01 4.932987e+01 -9.498012e+01 1.080091e+02 -2.403758e+01 -8.539347e+01 4.890377e+00 -7.141527e+00 -9.678217e+00 -6.719189e+00 -9.095116e+00 -6.016833e+00 -8.968574e+00 -7.286466e+00 -9.831358e+00 -1.291146e+01 -9.227060e+00 6.154109e+00 1.678782e+01 2.049919e+01 1.778706e+01 1.414458e+01 1.669972e+01 1.857061e+01 1.737453e+01 1.343217e+01 1.821415e+01 2.053798e+01 1.852447e+01 6.634752e+00 -3.490839e+00 -1.081600e+01 -3.968272e+00 -4.786549e+00 -3.500369e-01 -1.201431e+00 2.955838e+00 1.486725e+00 6.033382e+00 
-1.964628e-01 3.308874e+01 1.844475e+01 -2.869503e+00 -1.159817e+00 9.824817e+01 -9.968363e+01 1.272518e+02 -4.964084e+00 -3.097367e+02 3.502371e+02 2.078742e+02 -5.739786e+02 -3.831783e+02 5.334536e+01 9.768999e+01 5.041145e+01 -5.033186e+01 1.755384e+02 2.583677e+02 -6.312106e+01 -6.651040e+02 -3.262134e+02 5.067451e+02 4.123037e+02 3.855165e+01 2.567477e+01 -8.231905e+01 -6.330260e+01 2.276277e+01 -3.146091e+01 -1.331582e+01 -2.285244e+01 -1.102573e+01 -1.103020e+01 -1.065228e+01 -7.537121e+00 -1.016887e+01 -7.510880e+00 -1.242763e+01 -1.611772e+01 -1.001131e+01 7.692827e+00 1.687015e+01 1.912609e+01 1.369717e+01 1.334481e+01 2.009269e+01 2.344064e+01 2.135521e+01 1.385841e+01 1.489951e+01 1.817062e+01 2.002585e+01 9.772729e+00 -5.879899e-01 -1.185326e+01 -4.946758e+00 -3.083616e+00 1.195920e+00 1.516429e+00 2.905124e+00 5.249745e+00 2.835276e+00 
5.347346e+00 -1.284327e+01 -1.140744e+01 -4.395967e+00 9.101507e+01 8.238812e+01 -1.575789e+01 7.398850e+01 -7.669869e+01 -4.674359e+02 -8.620870e+01 4.641531e+02 2.159141e+02 1.806155e+02 -1.450499e+02 -1.346928e+02 -1.699918e+01 -8.301930e+01 5.456459e+02 1.862059e+02 -3.453071e+02 -4.825597e+02 -4.166939e+02 3.264155e+02 2.004887e+02 -1.680447e+02 1.004833e+02 3.440230e+01 7.854544e-02 2.457456e+01 -1.413429e+01 -1.521742e+01 -1.509920e+01 -5.752573e+00 -1.043330e+01 -8.625721e+00 -5.838197e+00 -7.705766e+00 -5.277117e+00 -1.272166e+01 -1.367794e+01 -1.049429e+00 1.022490e+01 1.900820e+01 1.327084e+01 7.097254e+00 1.254861e+01 2.147262e+01 2.626139e+01 2.261403e+01 1.343832e+01 7.448793e+00 1.184579e+01 1.989088e+01 8.595284e+00 2.423727e+00 -1.205960e+01 -1.045302e+01 -4.350163e+00 -1.882515e+00 -8.240327e-01 -1.782349e+00 2.877388e+00 -8.578845e+00 
-2.066313e+01 5.665285e+01 -1.681927e+01 -2.154602e+00 6.582351e+01 8.736218e+01 4.071030e+01 -5.040409e+00 -3.506062e+01 -4.367141e+02 1.427347e+01 2.769823e+02 -5.256289e+02 1.752137e+01 1.643370e+02 -1.075004e+02 -5.262396e+01 -8.220484e+01 2.609288e+02 1.543790e+02 1.516465e+02 1.413085e+02 -1.971689e+02 9.212757e+01 1.000265e+02 -1.952316e+02 4.013546e+01 -5.822397e+01 -5.538612e+01 -2.664534e+01 -2.262565e+01 4.607885e+00 -7.691354e+00 -8.155591e+00 -1.257585e+01 -9.852292e+00 -6.324044e+00 -7.135545e+00 -5.298455e+00 -1.409304e+01 -1.508353e+01 -6.884467e+00 7.819526e+00 2.216951e+01 1.285218e+01 6.301311e+00 1.202231e+01 1.661461e+01 2.098694e+01 1.815662e+01 1.318088e+01 8.624085e+00 1.233586e+01 2.428001e+01 8.847226e+00 1.250606e-01 -1.180678e+01 -7.509525e+00 -1.931963e+00 3.533109e+00 3.060407e+00 -8.222100e-02 1.176358e+01 -2.553697e+01 
-1.327736e+01 -3.462460e+01 -5.268283e+01 9.614915e+00 3.348720e+01 9.088150e+01 -3.306363e+01 1.032367e+02 3.547990e+01 3.111142e+02 -1.853840e+02 -2.709459e+02 -1.322120e+02 -1.711226e+01 6.059163e+02 1.437814e+02 3.665968e+01 -9.502685e+01 4.824265e+01 -3.429929e+02 -3.573293e+02 3.151992e+02 -1.609175e+02 -1.532920e+02 6.121354e+01 4.304062e+01 1.285847e+02 -1.229935e+01 -2.918943e+01 -7.793552e+01 2.069253e+01 1.328524e+01 5.534347e+00 -1.919228e+01 -4.096919e+00 -3.198530e+00 1.371835e+00 3.284510e-01 -6.737462e-01 -8.662004e+00 -1.384661e+01 -6.110997e+00 1.352233e+01 2.685751e+01 1.290130e+01 5.812519e+00 9.096705e+00 1.209281e+01 1.462812e+01 1.249004e+01 8.885575e+00 5.708651e+00 1.047872e+01 2.579638e+01 1.342883e+01 -5.341282e+00 -1.647087e+01 -9.766401e+00 -4.038951e+00 1.686690e+00 6.686956e-01 1.113685e+00 4.609123e+00 -1.960151e+01 
5.451014e+01 -4.940039e+00 -1.075431e+02 1.011842e+02 1.044505e+02 -1.517495e+02 -1.447751e+02 3.155194e+02 -1.833883e+02 -3.378004e+02 -2.500534e+02 -6.172046e+01 2.184400e+02 3.534827e+02 2.063136e+02 -2.504883e+02 -1.168137e+01 2.519591e+01 1.564639e+02 -3.722321e+02 -5.176426e+02 3.932485e+02 2.642411e+02 -8.601964e+01 -1.537821e+01 -5.846689e+01 6.518328e+01 4.165396e+01 1.365528e+02 3.897769e+01 -5.494095e+01 -5.664267e+00 -3.475335e+00 -2.156903e+01 -8.496856e+00 -6.173961e+00 3.335707e+00 3.505094e-01 -3.168500e-01 -1.044995e+01 -1.832432e+01 -1.023494e+01 1.646257e+01 2.382371e+01 8.778874e+00 3.865556e+00 5.105892e+00 7.187944e+00 8.459233e+00 8.172140e+00 5.705949e+00 5.865842e+00 7.600564e+00 2.512077e+01 1.928726e+01 -2.492842e+00 -1.789943e+01 -5.473339e+00 -2.129402e+00 1.249034e+01 3.136374e+00 2.402048e+01 6.079423e+00 -5.690285e+01 
1.285465e+01 4.220810e+01 -4.044274e+01 -5.491320e+01 -6.006314e+01 -1.247671e+02 -8.896663e+01 2.657928e+02 -2.913123e+02 8.624000e+01 5.376931e+02 4.124443e+01 1.789470e+02 1.362864e+02 2.135625e+02 -7.735563e+01 -6.004692e+01 8.284138e+01 1.067146e+02 1.617247e+02 -2.382636e+01 -3.354780e+02 -8.232827e+02 -6.190027e+02 -9.862026e+01 3.441184e+02 3.531881e+02 4.070510e+01 6.162514e+01 3.009830e+01 4.808596e+01 1.301727e+01 1.546033e+01 -1.365147e-01 4.039148e+00 5.595962e+00 1.136403e+01 1.110410e+01 6.316733e+00 -2.174153e+00 -1.262807e+01 -6.069907e+00 1.714809e+01 2.340042e+01 8.503221e+00 4.609184e+00 2.803655e+00 4.151853e+00 4.010351e+00 3.980894e+00 1.925521e+00 3.484384e+00 5.770350e+00 2.126096e+01 1.796143e+01 -5.015666e+00 -1.788794e+01 -8.847675e+00 -3.763408e+00 4.201054e+00 -4.269830e+00 -8.446902e-01 -2.064475e+01 -4.552239e+01 
-3.287338e+01 4.790895e+00 -1.204025e+02 -4.448991e+01 8.299205e+01 4.567617e+01 -1.297503e+02 2.316454e+02 9.742204e+01 -2.910698e+02 1.571185e+02 1.069157e+02 1.904467e+02 5.330167e+00 -5.030835e+01 1.089644e+01 -1.364828e+02 9.206388e+01 -2.082682e+02 -9.615296e+01 -1.769947e+01 -4.425322e+02 1.876072e+02 1.865124e+02 -2.487707e+02 8.880987e+01 1.962513e+02 -6.310647e+01 -5.279052e+01 5.956068e+01 1.659360e-01 -1.152609e+01 2.857483e+01 -2.017899e+01 -6.278689e+00 -1.048729e+01 7.026266e+00 6.129585e+00 8.314558e+00 -2.994012e+00 -1.155859e+01 -4.766426e+00 1.374783e+01 1.543861e+01 4.336660e+00 1.818474e+00 -1.791829e-01 1.235985e+00 8.400413e-01 1.861013e+00 1.314304e-01 2.942212e+00 3.658020e+00 1.661187e+01 1.627355e+01 3.147279e+00 -1.214305e+01 -3.101417e+00 5.272785e-01 1.407822e+01 2.041308e+00 1.366582e+01 -1.590752e+01 1.905605e+01 
-1.195091e+01 1.207205e+02 -2.911261e+01 -1.226797e+02 -6.909031e+01 7.172707e+01 5.328116e+01 4.588221e+01 1.188318e+01 7.223665e+01 2.229390e+02 1.669449e+02 1.452178e+02 -1.539512e+02 7.737761e+00 1.935838e+02 4.721399e+01 -8.550508e+01 3.286679e+00 3.657731e+02 6.595584e+01 -8.466960e+02 -5.493617e+02 -1.567888e+01 -8.695128e+01 -4.895322e+01 1.423954e+02 1.724732e+02 9.128003e+01 4.083509e+01 -4.004542e+01 2.173572e+01 2.724129e+01 9.919173e+00 -2.559470e+00 4.602855e+00 9.884824e+00 1.559516e+01 1.229319e+01 4.144718e+00 -4.042733e+00 3.649422e-01 9.177984e+00 1.115261e+01 3.351766e+00 2.434145e+00 -4.485815e-02 7.040998e-01 -4.635976e-01 2.862413e-01 -9.524912e-01 9.329027e-01 1.389297e+00 8.383162e+00 8.563152e+00 6.426204e-01 -7.808203e+00 -6.408823e+00 -2.335673e+00 5.975651e+00 7.228948e-01 -1.746191e+00 3.122839e+00 -9.493507e+00 
-4.316207e+01 -2.073563e+01 -3.276329e+01 -9.912453e+01 -4.127101e-02 2.612495e+02 1.242172e+02 -2.163471e+02 1.622726e+01 4.976120e+02 -8.643112e+01 -3.724521e+02 1.427663e+02 1.509681e+02 -4.970311e+01 -1.953803e+02 8.419333e+01 5.934493e+01 1.633587e+02 9.899538e+01 -3.470754e+02 -2.709203e+02 -1.703349e+02 -4.250433e+01 -2.001077e+01 9.155948e+01 4.702813e+01 -7.691484e+01 1.417828e+02 1.320688e+02 -5.024130e+01 -5.906168e+01 1.178203e+01 1.432652e+01 1.431116e+01 8.026445e-01 5.698151e+00 6.116838e+00 6.903075e+00 3.230604e+00 -7.747146e-01 -2.767461e+00 -1.125248e+00 2.465646e+00 9.079726e-02 7.810084e-01 -2.203950e-01 8.636204e-01 -2.246093e-01 1.171321e+00 6.564805e-04 1.486882e+00 3.907151e-01 3.284060e+00 1.385245e+00 2.526850e+00 -1.600418e+00 1.749259e-01 -3.957350e+00 3.198474e-01 -2.534437e+00 -1.225483e+01 4.126807e+00 -2.310479e+01 
-3.075416e+01 -1.504210e+01 5.249424e+00 -9.296794e+01 -7.985826e+01 -1.102295e+01 1.244678e+02 6.870161e+01 -6.401712e+01 3.882638e+02 2.645816e+02 -6.157745e+01 8.918445e+01 -5.413899e+01 -5.231490e+01 -1.263861e+02 -1.687862e+00 3.209618e+02 3.166898e+02 8.296494e+01 1.257191e+02 -2.361885e+02 -6.580947e+02 -4.253098e+02 -3.904862e+01 1.323491e+02 2.106150e+01 5.492730e+01 1.199088e+01 2.288888e+00 -4.128446e+01 -2.060766e+01 5.168111e+01 4.640957e+00 1.079128e+01 1.013131e+01 2.856628e+00 5.981429e+00 6.478644e+00 1.184531e+01 9.024409e+00 2.333655e+00 -7.509883e+00 -4.373483e+00 -1.785761e+00 4.226720e-01 2.679290e-01 1.070956e+00 -2.279949e-01 7.476704e-01 -3.173686e-01 -8.310596e-01 -3.203065e+00 -7.342155e+00 -8.171857e+00 8.869011e-01 4.202185e+00 2.776995e+00 -5.859820e+00 -5.553133e+00 -5.379450e+00 9.388848e+00 1.748752e+01 6.595192e+00 