# vtk DataFile Version 2.0
Comment goes here
ASCII

DATASET STRUCTURED_POINTS
DIMENSIONS    64   64   1

ORIGIN    0.000   0.000   0.000
SPACING   0.031250.03125   1.000

POINT_DATA   4096
SCALARS uY double
LOOKUP_TABLE default

3.322372e-02 3.617234e-02 3.161637e-02 4.441600e-02 2.985617e-02 5.267917e-02 2.813491e-02 6.046067e-02 2.662456e-02 6.727635e-02 2.543583e-02 7.272023e-02 2.460832e-02 7.649773e-02 2.413185e-02 7.842770e-02 2.398111e-02 7.842671e-02 2.414411e-02 7.649485e-02 2.463250e-02 7.271574e-02 2.547119e-02 6.727078e-02 2.666987e-02 6.045473e-02 2.818834e-02 5.267372e-02 2.991541e-02 4.441185e-02 3.167868e-02 3.617013e-02 3.328626e-02 2.839701e-02 3.457979e-02 2.143417e-02 3.547329e-02 1.549241e-02 3.596474e-02 1.065894e-02 3.612294e-02 6.926784e-03 3.606009e-02 4.233328e-03 3.590062e-02 2.497428e-03 3.575363e-02 1.648893e-03 3.569254e-02 1.647974e-03 3.574312e-02 2.494807e-03 3.587978e-02 4.229398e-03 3.602929e-02 6.922162e-03 3.608286e-02 1.065439e-02 3.591638e-02 1.548874e-02 3.541812e-02 2.143210e-02 3.451974e-02 2.839701e-02 
-2.278527e-02 -1.978612e-02 -4.339457e-02 -1.885910e-02 -6.479425e-02 -1.964465e-02 -8.525839e-02 -2.175068e-02 -1.032588e-01 -2.456488e-02 -1.177438e-01 -2.741117e-02 -1.281900e-01 -2.968744e-02 -1.344523e-01 -3.095047e-02 -1.365415e-01 -3.096300e-02 -1.344719e-01 -2.972506e-02 -1.282283e-01 -2.747381e-02 -1.177989e-01 -2.465189e-02 -1.033278e-01 -2.186018e-02 -8.533676e-02 -1.977296e-02 -6.487620e-02 -1.900056e-02 -4.347376e-02 -1.993357e-02 -2.285603e-02 -2.263545e-02 -4.551056e-03 -2.683279e-02 1.044076e-02 -3.199947e-02 2.177353e-02 -3.749168e-02 2.967018e-02 -4.268157e-02 3.471128e-02 -4.704480e-02 3.760849e-02 -5.018541e-02 3.902479e-02 -5.182637e-02 3.943773e-02 -5.181468e-02 3.902659e-02 -5.015031e-02 3.761352e-02 -4.698629e-02 3.472199e-02 -4.260011e-02 2.968952e-02 -3.738860e-02 2.180436e-02 -3.187739e-02 1.048513e-02 -2.669595e-02 -4.492660e-03 -2.248971e-02 
4.121677e-02 5.730480e-02 2.940031e-02 7.535421e-02 1.714262e-02 9.025491e-02 5.611697e-03 1.015869e-01 -4.318039e-03 1.094446e-01 -1.218565e-02 1.143302e-01 -1.785086e-02 1.169617e-01 -2.129277e-02 1.180457e-01 -2.246528e-02 1.180368e-01 -2.132117e-02 1.169340e-01 -1.790761e-02 1.142812e-01 -1.227004e-02 1.093714e-01 -4.427283e-03 1.014881e-01 5.483824e-03 9.013195e-02 1.700604e-02 7.521216e-02 2.926705e-02 5.715171e-02 4.109816e-02 3.686096e-02 5.133999e-02 1.558647e-02 5.917209e-02 -5.304572e-03 6.430387e-02 -2.453203e-02 6.696665e-02 -4.104946e-02 6.776056e-02 -5.409216e-02 6.746259e-02 -6.312333e-02 6.685773e-02 -6.775286e-02 6.657053e-02 -6.774031e-02 6.685778e-02 -6.308555e-02 6.746561e-02 -5.402895e-02 6.777162e-02 -4.096115e-02 6.699190e-02 -2.442013e-02 6.434932e-02 -5.172337e-03 5.924219e-02 1.573368e-02 5.143597e-02 3.701566e-02 
3.188698e-03 1.260809e-02 -3.828098e-02 1.600079e-02 -8.302052e-02 1.291217e-02 -1.266998e-01 4.883503e-03 -1.654322e-01 -5.728981e-03 -1.966008e-01 -1.637788e-02 -2.190046e-01 -2.484356e-02 -2.324040e-01 -2.951602e-02 -2.368778e-01 -2.953317e-02 -2.324510e-01 -2.489626e-02 -2.190979e-01 -1.646950e-02 -1.967384e-01 -5.863598e-03 -1.656095e-01 4.703572e-03 -1.269077e-01 1.268894e-02 -8.324462e-02 1.574212e-02 -3.850368e-02 1.232730e-02 2.984419e-03 2.167024e-03 3.761104e-02 -1.370768e-02 6.339328e-02 -3.328353e-02 8.021548e-02 -5.409336e-02 8.943798e-02 -7.374141e-02 9.319871e-02 -9.024753e-02 9.377282e-02 -1.021323e-01 9.315505e-02 -1.083565e-01 9.276895e-02 -1.083319e-01 9.316311e-02 -1.020585e-01 9.379290e-02 -9.012481e-02 9.323738e-02 -7.357123e-02 8.950281e-02 -5.387966e-02 8.031345e-02 -3.303349e-02 6.352889e-02 -1.343225e-02 3.778417e-02 2.453453e-03 
5.077255e-02 8.066100e-02 2.759339e-02 1.094294e-01 3.681062e-03 1.313947e-01 -1.851914e-02 1.461903e-01 -3.731582e-02 1.545929e-01 -5.199404e-02 1.582041e-01 -6.251519e-02 1.589803e-01 -6.897019e-02 1.587608e-01 -7.121299e-02 1.587450e-01 -6.903926e-02 1.589302e-01 -6.265359e-02 1.581134e-01 -5.220095e-02 1.544536e-01 -3.758586e-02 1.459972e-01 -1.883827e-02 1.311492e-01 3.336607e-03 1.091414e-01 2.725321e-02 8.034757e-02 5.046482e-02 4.629306e-02 7.048171e-02 9.344633e-03 8.555460e-02 -2.776848e-02 9.510830e-02 -6.242928e-02 9.968725e-02 -9.249210e-02 1.005699e-01 -1.164201e-01 9.935278e-02 -1.331396e-01 9.766554e-02 -1.417939e-01 9.689455e-02 -1.417680e-01 9.767327e-02 -1.330617e-01 9.937463e-02 -1.162894e-01 1.006167e-01 -9.230934e-02 9.977181e-02 -6.219767e-02 9.524310e-02 -2.749497e-02 8.574872e-02 9.648629e-03 7.073697e-02 4.661155e-02 
3.600675e-02 5.170274e-02 -2.991669e-02 5.729198e-02 -1.023111e-01 5.038866e-02 -1.730789e-01 3.411516e-02 -2.351532e-01 1.317949e-02 -2.842076e-01 -7.488842e-03 -3.188165e-01 -2.376508e-02 -3.392823e-01 -3.271947e-02 -3.461190e-01 -3.274003e-02 -3.393575e-01 -2.382951e-02 -3.189666e-01 -7.605418e-03 -2.844322e-01 1.299957e-02 -2.354481e-01 3.386282e-02 -1.734307e-01 5.006264e-02 -1.026950e-01 5.690280e-02 -3.029994e-02 5.127217e-02 3.565622e-02 3.263251e-02 8.858491e-02 3.091372e-03 1.252803e-01 -3.333393e-02 1.462458e-01 -7.183738e-02 1.546732e-01 -1.079163e-01 1.548915e-01 -1.380504e-01 1.511523e-01 -1.597306e-01 1.470749e-01 -1.711350e-01 1.453392e-01 -1.710977e-01 1.470853e-01 -1.596181e-01 1.511809e-01 -1.378619e-01 1.549505e-01 -1.076535e-01 1.547765e-01 -7.150583e-02 1.464064e-01 -3.294500e-02 1.255072e-01 3.519812e-03 8.887916e-02 3.307625e-02 
6.347350e-02 1.092628e-01 2.645499e-02 1.502824e-01 -1.153311e-02 1.796946e-01 -4.606221e-02 1.971931e-01 -7.441404e-02 2.045524e-01 -9.592612e-02 2.049375e-01 -1.112111e-01 2.020110e-01 -1.208348e-01 1.992773e-01 -1.243583e-01 1.992569e-01 -1.209443e-01 2.019452e-01 -1.114319e-01 2.048130e-01 -9.626096e-02 2.043522e-01 -7.485899e-02 1.969043e-01 -4.659641e-02 1.793167e-01 -1.211508e-02 1.498315e-01 2.587969e-02 1.087686e-01 6.295662e-02 5.858418e-02 9.451216e-02 3.243922e-03 1.174248e-01 -5.269138e-02 1.308806e-01 -1.049150e-01 1.361207e-01 -1.500490e-01 1.355154e-01 -1.859348e-01 1.317587e-01 -2.112097e-01 1.275979e-01 -2.245153e-01 1.257037e-01 -2.244766e-01 1.276069e-01 -2.110921e-01 1.317886e-01 -1.857360e-01 1.355851e-01 -1.497685e-01 1.362520e-01 -1.045566e-01 1.310957e-01 -5.226517e-02 1.177411e-01 3.720694e-03 9.493536e-02 5.908600e-02 
8.181495e-02 1.037101e-01 -1.511878e-02 1.109737e-01 -1.232335e-01 9.719676e-02 -2.281288e-01 6.804410e-02 -3.178575e-01 3.190296e-02 -3.862272e-01 -2.909690e-03 -4.327590e-01 -2.996175e-02 -4.597987e-01 -4.483941e-02 -4.689731e-01 -4.486070e-02 -4.599021e-01 -3.002973e-02 -4.329663e-01 -3.040115e-03 -3.865431e-01 3.168682e-02 -3.182834e-01 6.772063e-02 -2.286494e-01 9.675750e-02 -1.238097e-01 1.104323e-01 -1.569469e-02 1.031015e-01 8.129456e-02 7.389910e-02 1.557252e-01 2.672638e-02 2.028431e-01 -3.129991e-02 2.247891e-01 -9.196078e-02 2.281291e-01 -1.479780e-01 2.205842e-01 -1.942651e-01 2.089209e-01 -2.275959e-01 1.986935e-01 -2.453655e-01 1.944591e-01 -2.453164e-01 1.986984e-01 -2.274453e-01 2.089458e-01 -1.940094e-01 2.206499e-01 -1.476168e-01 2.282578e-01 -9.149998e-02 2.250033e-01 -3.075418e-02 2.031606e-01 2.733202e-02 1.561516e-01 7.452862e-02 
8.160523e-02 1.469553e-01 2.616737e-02 2.026967e-01 -3.027411e-02 2.398891e-01 -7.978679e-02 2.583431e-01 -1.183099e-01 2.615238e-01 -1.460186e-01 2.550395e-01 -1.655063e-01 2.448850e-01 -1.787740e-01 2.370767e-01 -1.844372e-01 2.370562e-01 -1.789217e-01 2.448163e-01 -1.658066e-01 2.548983e-01 -1.464854e-01 2.612759e-01 -1.189507e-01 2.579593e-01 -8.057770e-02 2.393626e-01 -3.114811e-02 2.020528e-01 2.530516e-02 1.462451e-01 8.084397e-02 7.596555e-02 1.270922e-01 -2.304177e-03 1.587020e-01 -8.133567e-02 1.748557e-01 -1.544698e-01 1.784244e-01 -2.168109e-01 1.736826e-01 -2.660116e-01 1.646614e-01 -3.012291e-01 1.553312e-01 -3.205987e-01 1.507529e-01 -3.205488e-01 1.553299e-01 -3.010743e-01 1.646806e-01 -2.657452e-01 1.737534e-01 -2.164288e-01 1.785804e-01 -1.539747e-01 1.751334e-01 -8.073939e-02 1.591346e-01 -1.629134e-03 1.276966e-01 7.668343e-02 
1.501062e-01 1.773938e-01 1.079171e-02 1.854924e-01 -1.473800e-01 1.593043e-01 -2.982968e-01 1.090367e-01 -4.218467e-01 4.947410e-02 -5.100172e-01 -5.918707e-03 -5.661749e-01 -4.825923e-02 -5.982118e-01 -7.181344e-02 -6.100986e-01 -7.183145e-02 -5.983426e-01 -4.831528e-02 -5.664346e-01 -6.039883e-03 -5.104230e-01 4.924348e-02 -4.224192e-01 1.086508e-01 -2.990251e-01 1.587383e-01 -1.482043e-01 1.847638e-01 9.967921e-03 1.765613e-01 1.493775e-01 1.329542e-01 2.500525e-01 6.114064e-02 3.054729e-01 -2.660504e-02 3.218818e-01 -1.166340e-01 3.124879e-01 -1.976518e-01 2.904885e-01 -2.633569e-01 2.653637e-01 -3.110279e-01 2.443885e-01 -3.374488e-01 2.351427e-01 -3.373912e-01 2.443732e-01 -3.108430e-01 2.653643e-01 -2.630344e-01 2.905385e-01 -1.971862e-01 3.126195e-01 -1.160290e-01 3.221316e-01 -2.587743e-02 3.058756e-01 6.195947e-02 2.506262e-01 1.338143e-01 
1.088543e-01 1.990565e-01 2.666006e-02 2.735814e-01 -5.605031e-02 3.187845e-01 -1.244765e-01 3.347585e-01 -1.729308e-01 3.282167e-01 -2.042070e-01 3.089550e-01 -2.258946e-01 2.855105e-01 -2.443090e-01 2.670379e-01 -2.557609e-01 2.670245e-01 -2.444894e-01 2.854630e-01 -2.262604e-01 3.088310e-01 -2.047982e-01 3.279506e-01 -1.737921e-01 3.342872e-01 -1.255914e-01 3.180842e-01 -5.731131e-02 2.726936e-01 2.542178e-02 1.980715e-01 1.077928e-01 1.012155e-01 1.741625e-01 -7.163143e-03 2.153654e-01 -1.158880e-01 2.313828e-01 -2.147814e-01 2.290521e-01 -2.966350e-01 2.162590e-01 -3.599555e-01 1.980916e-01 -4.070472e-01 1.784329e-01 -4.361784e-01 1.666203e-01 -4.361221e-01 1.783996e-01 -4.068624e-01 1.980695e-01 -3.596257e-01 2.162972e-01 -2.961483e-01 2.291961e-01 -2.141374e-01 2.316897e-01 -1.150992e-01 2.158974e-01 -6.253984e-03 1.749631e-01 1.021999e-01 
2.569765e-01 2.860855e-01 5.542949e-02 2.938803e-01 -1.787815e-01 2.453264e-01 -3.957353e-01 1.594619e-01 -5.610846e-01 6.323670e-02 -6.656849e-01 -2.159349e-02 -7.236846e-01 -8.523083e-02 -7.568744e-01 -1.223577e-01 -7.748242e-01 -1.223706e-01 -7.570340e-01 -8.524858e-02 -7.239786e-01 -2.166143e-02 -6.661609e-01 6.303803e-02 -5.618151e-01 1.590389e-01 -3.967312e-01 2.446163e-01 -1.799501e-01 2.929056e-01 5.426341e-02 2.849530e-01 2.559793e-01 2.198952e-01 3.894022e-01 1.113889e-01 4.469119e-01 -1.955435e-02 4.446389e-01 -1.501451e-01 4.094517e-01 -2.624144e-01 3.637228e-01 -3.503228e-01 3.179208e-01 -4.157898e-01 2.784809e-01 -4.560501e-01 2.573738e-01 -4.559963e-01 2.784149e-01 -4.155813e-01 3.178640e-01 -3.499391e-01 3.637244e-01 -2.618402e-01 4.095490e-01 -1.493788e-01 4.448894e-01 -1.861328e-02 4.473820e-01 1.124708e-01 3.901395e-01 2.210546e-01 
1.517458e-01 2.732573e-01 2.720940e-02 3.736679e-01 -9.626104e-02 4.268428e-01 -1.889886e-01 4.335928e-01 -2.445663e-01 4.076366e-01 -2.718088e-01 3.674484e-01 -2.892072e-01 3.215426e-01 -3.168321e-01 2.782680e-01 -3.501485e-01 2.782686e-01 -3.170382e-01 3.215570e-01 -2.895973e-01 3.674070e-01 -2.724808e-01 4.074172e-01 -2.456660e-01 4.330586e-01 -1.905355e-01 4.259271e-01 -9.807793e-02 3.724459e-01 2.544110e-02 2.718998e-01 1.502998e-01 1.377511e-01 2.461781e-01 -1.179685e-02 2.971405e-01 -1.602687e-01 3.061616e-01 -2.920820e-01 2.900310e-01 -3.949079e-01 2.644084e-01 -4.698346e-01 2.336577e-01 -5.306026e-01 1.939941e-01 -5.812366e-01 1.584264e-01 -5.811899e-01 1.938849e-01 -5.304056e-01 2.335465e-01 -4.694532e-01 2.643683e-01 -3.943155e-01 2.901049e-01 -2.912760e-01 3.064350e-01 -1.592632e-01 2.977284e-01 -1.060869e-02 2.471825e-01 1.390768e-01 
4.318028e-01 4.510556e-01 1.324585e-01 4.577264e-01 -2.274207e-01 3.682858e-01 -5.445805e-01 2.204354e-01 -7.609057e-01 6.625286e-02 -8.677191e-01 -5.750915e-02 -9.059471e-01 -1.485911e-01 -9.312473e-01 -2.100203e-01 -9.744171e-01 -2.100505e-01 -9.314575e-01 -1.485271e-01 -9.062261e-01 -5.744390e-02 -8.681953e-01 6.618252e-02 -7.617857e-01 2.200394e-01 -5.459361e-01 3.674092e-01 -2.291076e-01 4.563990e-01 1.307840e-01 4.494921e-01 4.304457e-01 3.497363e-01 6.042363e-01 1.839965e-01 6.477534e-01 -1.268264e-02 5.999521e-01 -2.017177e-01 5.167816e-01 -3.511809e-01 4.374366e-01 -4.593514e-01 3.648405e-01 -5.462442e-01 2.944575e-01 -6.147078e-01 2.375639e-01 -6.147048e-01 2.942674e-01 -5.460342e-01 3.646792e-01 -4.589220e-01 4.373509e-01 -3.504974e-01 5.167852e-01 -2.007716e-01 6.001368e-01 -1.149416e-02 6.482440e-01 1.854046e-01 6.051452e-01 3.512990e-01 
2.228022e-01 3.807460e-01 2.559562e-02 5.208640e-01 -1.673755e-01 5.812546e-01 -2.899668e-01 5.647283e-01 -3.442419e-01 5.008076e-01 -3.494587e-01 4.326999e-01 -3.409410e-01 3.570346e-01 -3.834670e-01 2.446203e-01 -5.128812e-01 2.446228e-01 -3.837141e-01 3.571730e-01 -3.412554e-01 4.328642e-01 -3.500697e-01 5.007776e-01 -3.455647e-01 5.641998e-01 -2.921234e-01 5.800479e-01 -1.700664e-01 5.191367e-01 2.302392e-02 3.788486e-01 2.208527e-01 1.891820e-01 3.628234e-01 -1.770315e-02 4.208676e-01 -2.212198e-01 4.058373e-01 -3.982635e-01 3.598558e-01 -5.212736e-01 3.176284e-01 -5.932357e-01 2.804564e-01 -6.627280e-01 2.068708e-01 -7.784417e-01 7.586720e-02 -7.784571e-01 2.065804e-01 -6.625614e-01 2.801856e-01 -5.928279e-01 3.174658e-01 -5.205721e-01 3.597702e-01 -3.972811e-01 4.059619e-01 -2.199817e-01 4.214097e-01 -1.619126e-02 3.640069e-01 1.909544e-01 
7.317138e-01 7.070804e-01 2.693460e-01 7.157049e-01 -3.186889e-01 5.488389e-01 -7.937410e-01 2.878363e-01 -1.070227e+00 3.950521e-02 -1.138194e+00 -1.235514e-01 -1.100707e+00 -2.419818e-01 -1.091632e+00 -3.581969e-01 -1.251876e+00 -3.584067e-01 -1.092020e+00 -2.417475e-01 -1.100834e+00 -1.232167e-01 -1.138477e+00 3.976550e-02 -1.071191e+00 2.876247e-01 -7.955974e-01 5.477640e-01 -3.212350e-01 7.138094e-01 2.668583e-01 7.048494e-01 7.298650e-01 5.446924e-01 9.485468e-01 2.876871e-01 9.392461e-01 -1.306684e-02 7.897431e-01 -2.926027e-01 6.193197e-01 -4.810034e-01 5.048380e-01 -5.884681e-01 4.118941e-01 -6.981654e-01 2.961852e-01 -8.391313e-01 1.070304e-01 -8.393829e-01 2.956594e-01 -6.979691e-01 4.115909e-01 -5.880275e-01 5.046428e-01 -4.802092e-01 6.191316e-01 -2.914556e-01 7.897389e-01 -1.160916e-02 9.396468e-01 2.894862e-01 9.495985e-01 5.468118e-01 
3.477485e-01 5.367614e-01 1.660595e-02 7.479529e-01 -3.089218e-01 8.126529e-01 -4.564371e-01 7.420578e-01 -4.917994e-01 5.956550e-01 -4.441506e-01 5.069430e-01 -3.353702e-01 4.451864e-01 -3.582874e-01 8.569659e-02 -9.509365e-01 8.558580e-02 -3.587272e-01 4.455049e-01 -3.353773e-01 5.075430e-01 -4.443092e-01 5.961413e-01 -4.932347e-01 7.417126e-01 -4.595007e-01 8.109945e-01 -3.131385e-01 7.453699e-01 1.272878e-02 5.340293e-01 3.451521e-01 2.566572e-01 5.632178e-01 -2.729598e-02 6.180253e-01 -3.083215e-01 5.358587e-01 -5.578302e-01 4.239042e-01 -6.999758e-01 3.631659e-01 -7.193577e-01 3.728976e-01 -7.333160e-01 2.871526e-01 -1.104460e+00 -2.930911e-01 -1.104708e+00 2.863756e-01 -7.333043e-01 3.723884e-01 -7.189622e-01 3.628976e-01 -6.991318e-01 4.235136e-01 -5.566509e-01 5.356303e-01 -3.068722e-01 6.182993e-01 -2.544693e-02 5.644556e-01 2.590128e-01 
1.274027e+00 1.110202e+00 5.298781e-01 1.144577e+00 -5.227725e-01 8.219459e-01 -1.239577e+00 3.422861e-01 -1.588920e+00 -7.502236e-02 -1.515022e+00 -2.272590e-01 -1.278079e+00 -4.034553e-01 -1.164768e+00 -5.531489e-01 -1.656636e+00 -5.546451e-01 -1.165910e+00 -4.025499e-01 -1.277511e+00 -2.264688e-01 -1.514671e+00 -7.398308e-02 -1.589759e+00 3.426422e-01 -1.242122e+00 8.206229e-01 -5.269203e-01 1.141628e+00 5.259952e-01 1.106858e+00 1.271525e+00 8.354714e-01 1.519347e+00 4.361850e-01 1.369885e+00 -3.398689e-02 9.984695e-01 -4.745303e-01 6.622502e-01 -6.938010e-01 5.494908e-01 -7.095651e-01 4.745204e-01 -8.939447e-01 3.070344e-01 -1.130475e+00 -2.386974e-01 -1.132136e+00 3.054784e-01 -8.934226e-01 4.743202e-01 -7.092150e-01 5.492209e-01 -6.928556e-01 6.616867e-01 -4.731503e-01 9.980669e-01 -3.229379e-02 1.369950e+00 4.383973e-01 1.520396e+00 8.383567e-01 
5.824439e-01 7.560695e-01 -8.645783e-03 1.123903e+00 -6.282146e-01 1.179892e+00 -7.241890e-01 9.917455e-01 -7.169196e-01 6.245392e-01 -6.106630e-01 5.274853e-01 -3.197488e-01 6.865493e-01 2.851634e-01 -2.501815e-01 -2.418329e+00 -2.516301e-01 2.845607e-01 6.882884e-01 -3.182912e-01 5.290795e-01 -6.094712e-01 6.263178e-01 -7.180903e-01 9.920248e-01 -7.286225e-01 1.177391e+00 -6.354472e-01 1.119691e+00 -1.476755e-02 7.519787e-01 5.791246e-01 3.278710e-01 9.277979e-01 -4.020317e-02 9.532809e-01 -4.267584e-01 6.943333e-01 -8.213683e-01 4.312877e-01 -1.003337e+00 3.307795e-01 -8.869138e-01 4.491302e-01 -6.386552e-01 9.302483e-01 -1.571722e+00 -1.703612e+00 -1.573481e+00 9.287512e-01 -6.377783e-01 4.490157e-01 -8.864010e-01 3.305610e-01 -1.002192e+00 4.303179e-01 -8.199743e-01 6.934330e-01 -4.252301e-01 9.528255e-01 -3.811859e-02 9.286935e-01 3.309427e-01 
2.309477e+00 1.740205e+00 1.092100e+00 1.919254e+00 -1.063804e+00 1.250494e+00 -2.040954e+00 3.375826e-01 -2.541561e+00 -4.934466e-01 -2.085692e+00 -2.651028e-01 -5.985823e-01 1.374246e+00 1.845356e-01 -2.854734e+00 -6.060433e+00 -2.857468e+00 1.806931e-01 1.372160e+00 -5.989952e-01 -2.643317e-01 -2.084304e+00 -4.905805e-01 -2.541537e+00 3.393769e-01 -2.044261e+00 1.248858e+00 -1.071413e+00 1.914025e+00 1.085697e+00 1.734898e+00 2.306243e+00 1.255017e+00 2.484858e+00 6.596571e-01 2.020597e+00 -8.442616e-02 1.172218e+00 -8.739478e-01 4.637005e-01 -1.141109e+00 5.257677e-01 -6.272121e-01 1.362345e+00 8.723910e-01 1.593550e+00 -3.568707e+00 -4.823067e+00 -3.571710e+00 1.588861e+00 8.694525e-01 1.360150e+00 -6.278095e-01 5.251109e-01 -1.139764e+00 4.625018e-01 -8.723317e-01 1.171142e+00 -8.269736e-02 2.019804e+00 6.621371e-01 2.485430e+00 1.258886e+00 
1.053882e+00 1.020902e+00 -4.765874e-02 1.827771e+00 -1.468535e+00 1.796235e+00 -1.039630e+00 1.411444e+00 -1.065529e+00 2.873000e-01 -1.010870e+00 6.242735e-01 9.215174e-01 2.838414e+00 7.676990e-01 -2.575323e+00 -5.318023e+00 -2.578951e+00 7.635247e-01 2.839762e+00 9.256722e-01 6.272019e-01 -1.007613e+00 2.918393e-01 -1.064801e+00 1.413337e+00 -1.045907e+00 1.791842e+00 -1.482682e+00 1.820109e+00 -5.770610e-02 1.014559e+00 1.050224e+00 3.367123e-01 1.622152e+00 -3.408239e-02 1.573966e+00 -5.392390e-01 8.721424e-01 -1.282208e+00 2.132802e-01 -1.665476e+00 9.388354e-03 -8.391985e-01 1.732973e+00 1.437835e+00 1.438256e+00 -4.062461e+00 -4.778869e+00 -4.066636e+00 1.432269e+00 1.437257e+00 1.733627e+00 -8.390053e-01 8.651755e-03 -1.663891e+00 2.116009e-01 -1.280774e+00 8.702435e-01 -5.380243e-01 1.571862e+00 -3.217734e-02 1.621627e+00 3.404776e-01 
4.377116e+00 2.649810e+00 2.569112e+00 3.509192e+00 -2.794730e+00 1.946198e+00 -3.208660e+00 2.861263e-01 -4.562931e+00 -2.139572e+00 -3.530216e+00 -9.342904e-01 -3.746186e-02 1.661036e+00 -4.074312e-01 -2.681518e+00 -3.614520e+00 -2.681565e+00 -4.096689e-01 1.663456e+00 -3.297775e-02 -9.305176e-01 -3.525976e+00 -2.132944e+00 -4.558663e+00 2.912238e-01 -3.211807e+00 1.944397e+00 -2.811230e+00 3.498167e+00 2.558181e+00 2.641029e+00 4.373637e+00 1.805766e+00 4.091134e+00 1.042309e+00 3.050115e+00 -8.764949e-02 1.282526e+00 -1.763478e+00 -6.427121e-01 -2.494949e+00 -1.701680e-01 -7.193656e-01 2.111637e+00 1.160680e+00 6.402461e-01 -3.748304e+00 -3.047229e+00 -3.748824e+00 6.364043e-01 1.161407e+00 2.112804e+00 -7.183424e-01 -1.704311e-01 -2.492780e+00 -6.438059e-01 -1.761965e+00 1.280608e+00 -8.648459e-02 3.047352e+00 1.044434e+00 4.089921e+00 1.810582e+00 
2.064022e+00 1.105559e+00 2.705465e-02 3.466126e+00 -4.087392e+00 2.862398e+00 -5.863338e-01 2.578571e+00 -1.527820e+00 -1.217933e+00 -2.313405e+00 7.219806e-02 1.300060e+00 1.480505e+00 -7.069202e-01 -8.644320e-01 -1.015025e+00 -8.619025e-01 -7.056924e-01 1.484872e+00 1.307118e+00 7.823316e-02 -2.306380e+00 -1.208096e+00 -1.518882e+00 2.585812e+00 -5.940405e-01 2.853095e+00 -4.120179e+00 3.450410e+00 1.083746e-02 1.095715e+00 2.062244e+00 3.104234e-02 2.962313e+00 1.070236e-01 2.853611e+00 -3.769389e-01 1.233318e+00 -2.051377e+00 -6.344419e-01 -3.199011e+00 -1.267299e+00 -1.135656e+00 2.175079e+00 1.858643e-01 -1.116856e-01 -2.467593e+00 -6.872827e-01 -2.465793e+00 -1.132270e-01 1.872446e-01 2.175804e+00 -1.134606e+00 -1.269010e+00 -3.197069e+00 -6.357959e-01 -2.049911e+00 1.230242e+00 -3.769203e-01 2.848087e+00 1.075819e-01 2.957757e+00 3.481214e-02 
8.526782e+00 3.541793e+00 7.526219e+00 7.389832e+00 -9.439378e+00 3.159674e+00 -2.865157e+00 1.730683e+00 -7.421837e+00 -4.937814e+00 -4.147726e+00 -5.804299e-01 -7.430204e-02 -1.850346e+00 -2.139653e+00 -2.136896e+00 -1.450927e+00 -2.135324e+00 -2.139540e+00 -1.847078e+00 -6.712390e-02 -5.737272e-01 -4.139953e+00 -4.924998e+00 -7.405890e+00 1.745768e+00 -2.863049e+00 3.159958e+00 -9.482870e+00 7.361480e+00 7.508472e+00 3.527799e+00 8.525795e+00 2.383490e+00 6.465018e+00 1.800528e+00 4.871717e+00 6.492559e-01 2.038378e+00 -3.058431e+00 -2.743351e+00 -3.865587e+00 6.314181e-01 1.641896e+00 2.328117e+00 -2.345027e+00 -2.211013e+00 -4.031778e+00 -2.353124e+00 -4.030597e+00 -2.212525e+00 -2.343911e+00 2.329445e+00 1.644873e+00 6.317429e-01 -3.862628e+00 -2.743995e+00 -3.056394e+00 2.035042e+00 6.486286e-01 4.864615e+00 1.800554e+00 6.458831e+00 2.388017e+00 
4.402841e+00 -3.918151e-01 8.275225e-01 8.815779e+00 -1.302477e+01 4.462311e+00 5.917737e+00 1.040068e+01 4.762300e+00 6.965904e-01 -2.126398e+00 -4.611446e+00 -5.594433e+00 -4.264167e+00 -2.509552e+00 -2.365550e+00 -3.342770e+00 -2.362338e+00 -2.507398e+00 -4.257748e+00 -5.582516e+00 -4.601590e+00 -2.112003e+00 7.169046e-01 4.797168e+00 1.042804e+01 5.913851e+00 4.438080e+00 -1.311612e+01 8.779774e+00 8.071657e-01 -4.053060e-01 4.411107e+00 -1.369280e+00 5.335296e+00 8.386638e-01 5.933193e+00 1.669229e+00 3.268833e+00 -2.405806e-01 3.787880e+00 9.425732e-01 -2.678250e-01 -4.372647e+00 -4.206147e+00 -5.013518e+00 -2.350819e+00 -4.618024e+00 -3.887351e+00 -4.614852e+00 -2.351179e+00 -5.011058e+00 -4.204941e+00 -4.369851e+00 -2.685544e-01 9.446892e-01 3.788343e+00 -2.370288e-01 3.264074e+00 1.666425e+00 5.920845e+00 8.351499e-01 5.321361e+00 -1.368264e+00 
1.578669e+01 2.838167e+00 2.899964e+01 1.864724e+01 -3.941437e+01 3.338132e+00 1.392928e+01 1.638130e+01 -8.568061e+00 -1.163820e+01 -1.190522e+01 -1.328943e+01 -5.169170e+00 -2.787050e+00 -1.285203e+00 -4.256477e+00 -4.970943e+00 -4.254244e+00 -1.289049e+00 -2.781338e+00 -5.162581e+00 -1.328642e+01 -1.189317e+01 -1.161535e+01 -8.524925e+00 1.642124e+01 1.396850e+01 3.354494e+00 -3.954858e+01 1.855932e+01 2.897822e+01 2.823945e+00 1.579811e+01 2.809147e+00 8.419415e+00 3.359890e+00 9.184151e+00 6.239312e+00 9.044229e+00 1.227299e+00 -6.599455e-01 -4.030273e+00 -3.878367e+00 -4.954980e+00 -2.124530e+00 -4.737934e+00 -5.471131e+00 -9.645172e+00 -9.879338e+00 -9.643385e+00 -5.475111e+00 -4.735206e+00 -2.124337e+00 -4.951216e+00 -3.873101e+00 -4.025721e+00 -6.596006e-01 1.229268e+00 9.038831e+00 6.234487e+00 9.167997e+00 3.353900e+00 8.401854e+00 2.808530e+00 
1.048067e+01 -1.260010e+01 -3.434676e+00 3.482746e+01 -3.768891e+01 -1.043252e+01 3.606418e+01 3.077813e+01 3.360806e+00 -4.648314e+00 -5.117221e+00 -6.601454e+00 -3.169198e+00 -4.928740e+00 -7.202146e+00 -9.607860e+00 -1.082112e+01 -9.606420e+00 -7.204025e+00 -4.918128e+00 -3.163904e+00 -6.607430e+00 -5.114019e+00 -4.604985e+00 3.465727e+00 3.086902e+01 3.612070e+01 -1.050750e+01 -3.798639e+01 3.473975e+01 -3.424180e+00 -1.260839e+01 1.052253e+01 -5.550971e+00 7.644002e+00 3.990944e+00 1.514631e+01 1.092963e+01 8.766366e+00 2.907310e+00 8.655749e+00 5.915720e+00 4.336412e+00 -1.170560e+00 -6.049070e+00 -1.356437e+01 -1.610902e+01 -1.964236e+01 -1.940940e+01 -1.964279e+01 -1.611177e+01 -1.355799e+01 -6.043320e+00 -1.167128e+00 4.336166e+00 5.921419e+00 8.661416e+00 2.912713e+00 8.759234e+00 1.091857e+01 1.512126e+01 3.977962e+00 7.613565e+00 -5.560794e+00 
1.836751e+01 1.397297e+01 1.366743e+02 2.843841e+01 -2.006853e+02 -6.042186e+01 5.719048e+01 5.673315e+01 -2.010528e+01 -1.443633e+01 6.158059e+00 -1.105573e+00 3.676149e+00 -3.206555e+00 -1.510135e+00 -6.417111e+00 -3.701242e+00 -6.412413e+00 -1.505938e+00 -3.200977e+00 3.672493e+00 -1.102786e+00 6.132474e+00 -1.442629e+01 -2.004720e+01 5.679986e+01 5.742661e+01 -6.026768e+01 -2.011263e+02 2.808646e+01 1.366939e+02 1.402402e+01 1.842285e+01 2.293400e+00 2.920091e+00 5.745660e+00 1.791050e+01 1.039729e+01 1.089394e+01 9.763282e+00 8.719956e+00 6.377207e-01 -1.660132e+00 -9.378797e+00 -1.254253e+01 -1.550225e+01 -1.626903e+01 -1.797147e+01 -1.677148e+01 -1.797015e+01 -1.626956e+01 -1.550176e+01 -1.254150e+01 -9.376991e+00 -1.663044e+00 6.388481e-01 8.726101e+00 9.775601e+00 1.089181e+01 1.038139e+01 1.787779e+01 5.726456e+00 2.883866e+00 2.277732e+00 
1.685342e+01 -5.915310e+01 9.498312e+01 8.910052e+01 -1.361482e+02 -1.254041e+01 5.990390e+01 3.770167e+01 -3.058521e+01 -2.250322e+01 -8.830330e+00 -9.056066e+00 -2.298182e+00 -3.091200e+00 -2.387586e+00 -4.529684e+00 -3.238205e+00 -4.526215e+00 -2.384270e+00 -3.085507e+00 -2.303278e+00 -9.045971e+00 -8.857256e+00 -2.250893e+01 -3.060484e+01 3.766716e+01 6.008812e+01 -1.234821e+01 -1.365239e+02 8.869639e+01 9.503452e+01 -5.901232e+01 1.694483e+01 -1.191697e+01 7.529202e-01 1.281119e+01 2.954767e+01 1.674844e+01 1.280060e+01 5.637211e+00 -3.341088e-01 -5.286172e+00 -8.017555e+00 -1.324614e+01 -9.327961e+00 -8.639468e+00 -9.528348e+00 -1.137324e+01 -1.035392e+01 -1.137273e+01 -9.528974e+00 -8.637533e+00 -9.326065e+00 -1.324425e+01 -8.018378e+00 -5.284112e+00 -3.313051e-01 5.646951e+00 1.279612e+01 1.673059e+01 2.951447e+01 1.278700e+01 7.148531e-01 -1.196585e+01 
-4.790069e+01 -5.925834e+01 9.375660e+01 1.625951e+02 6.318009e+01 1.397568e+01 -1.185967e+02 -1.533501e+01 1.944920e+01 -2.204973e+01 -1.152499e+00 -1.049888e+01 2.775349e+00 -6.340725e-01 8.011126e-01 -2.198358e+00 2.654944e-01 -2.195599e+00 8.031334e-01 -6.260808e-01 2.777302e+00 -1.048069e+01 -1.151951e+00 -2.202960e+01 1.942531e+01 -1.538673e+01 -1.186183e+02 1.404428e+01 6.297380e+01 1.623368e+02 9.382307e+01 -5.917604e+01 -4.780811e+01 -4.345248e+01 -8.745245e+00 8.194083e+00 2.030903e+01 -6.883349e-01 4.565327e+00 1.017284e+00 2.893995e+00 2.592124e-01 -1.009476e+01 -1.509275e+01 -8.897436e+00 -7.856179e+00 -8.683671e+00 -9.379074e+00 -8.589417e+00 -9.378948e+00 -8.684279e+00 -7.854951e+00 -8.896305e+00 -1.509294e+01 -1.009747e+01 2.605212e-01 2.895854e+00 1.019921e+00 4.554307e+00 -7.151970e-01 2.027903e+01 8.173094e+00 -8.770905e+00 -4.350278e+01 
4.444198e+01 2.083058e+01 -3.635366e+01 5.450062e+01 1.131050e+02 1.152502e+01 -1.304995e+02 -3.111320e+01 1.752617e+01 -3.610216e+01 -2.258633e+01 -1.668314e+01 -6.590667e+00 -4.404023e+00 -3.402149e+00 -3.161438e+00 -2.314560e+00 -3.159840e+00 -3.401603e+00 -4.399606e+00 -6.589391e+00 -1.667394e+01 -2.258678e+01 -3.610620e+01 1.756348e+01 -3.102247e+01 -1.304496e+02 1.157409e+01 1.129494e+02 5.455788e+01 -3.627175e+01 2.065915e+01 4.440215e+01 1.194435e+00 2.294897e+01 2.698836e+01 9.044163e+00 -7.158273e+00 1.170536e+01 8.752259e+00 8.240196e+00 1.552247e-01 -9.916487e+00 -1.302858e+01 -7.663705e+00 -5.961164e+00 -5.702423e+00 -5.795550e+00 -5.235351e+00 -5.795334e+00 -5.702907e+00 -5.960324e+00 -7.662972e+00 -1.302858e+01 -9.917999e+00 1.578317e-01 8.242374e+00 8.756694e+00 1.169658e+01 -7.178842e+00 9.024388e+00 2.699772e+01 2.296429e+01 1.242639e+00 
-6.559079e+01 -4.147004e+01 -9.074189e+01 -1.203336e+02 1.501154e+02 2.261290e+02 5.936929e+01 5.505188e+00 -1.088487e+01 -9.257065e+00 -1.086118e+01 -8.214697e+00 -2.166935e+00 -1.807600e+00 -2.828016e-01 -9.640113e-01 1.005975e-01 -9.632075e-01 -2.821471e-01 -1.805045e+00 -2.164845e+00 -8.209817e+00 -1.085998e+01 -9.242463e+00 -1.083782e+01 5.536508e+00 5.943998e+01 2.261514e+02 1.497165e+02 -1.204282e+02 -9.059521e+01 -4.151233e+01 -6.551085e+01 -3.841576e+01 -1.906548e+01 3.296644e+00 -6.342524e+00 -3.507094e+00 7.189584e+00 2.668481e+00 4.901907e+00 1.566191e+00 -5.230194e+00 -8.031046e+00 -5.707767e+00 -4.200074e+00 -3.685327e+00 -3.410432e+00 -3.200781e+00 -3.410407e+00 -3.685654e+00 -4.200080e+00 -5.708194e+00 -8.031808e+00 -5.230960e+00 1.567525e+00 4.904309e+00 2.670843e+00 7.182616e+00 -3.526448e+00 -6.364671e+00 3.285181e+00 -1.907915e+01 -3.844252e+01 
-3.585695e+00 1.496434e+00 1.275325e+01 1.644513e+01 1.039649e+01 2.596481e+00 -4.819260e+00 -1.134378e+01 -6.929328e+00 -3.832610e+00 -2.484141e+00 -1.797964e+00 -9.528171e-01 -9.768334e-01 -4.766852e-01 -7.102668e-01 -3.658496e-01 -7.105170e-01 -4.763309e-01 -9.776836e-01 -9.518835e-01 -1.799589e+00 -2.482311e+00 -3.835415e+00 -6.926707e+00 -1.135074e+01 -4.837453e+00 2.584598e+00 1.041703e+01 1.649338e+01 1.274124e+01 1.479805e+00 -3.583475e+00 -1.757129e+00 -1.971262e+00 -1.536716e-01 -3.780175e-01 3.396759e-01 -3.129218e-01 6.735621e-02 -2.053142e-01 5.692945e-02 -1.205427e-01 6.324101e-02 -9.461219e-02 4.479359e-02 -8.829073e-02 3.664142e-02 -8.463745e-02 3.666177e-02 -8.826616e-02 4.486008e-02 -9.456111e-02 6.336961e-02 -1.204589e-01 5.717600e-02 -2.052109e-01 6.782532e-02 -3.128094e-01 3.403027e-01 -3.785778e-01 -1.519658e-01 -1.973858e+00 -1.756676e+00 
4.466640e+01 1.457666e+01 7.508569e+01 1.411538e+02 -7.219996e+01 -1.953300e+02 -7.811183e+01 -2.136660e+01 3.891187e+00 7.826451e+00 9.642068e+00 8.093955e+00 2.237855e+00 1.844730e+00 6.627677e-01 1.090508e+00 3.546321e-01 1.088995e+00 6.625299e-01 1.839670e+00 2.236765e+00 8.083473e+00 9.642765e+00 7.800296e+00 3.851071e+00 -2.141082e+01 -7.816613e+01 -1.953549e+02 -7.184218e+01 1.413256e+02 7.496085e+01 1.460045e+01 4.458310e+01 3.276366e+01 9.799096e+00 -5.228422e+00 3.255600e+00 2.913984e+00 -8.895072e+00 -2.927794e+00 -5.789953e+00 -1.657892e+00 4.710683e+00 8.000649e+00 5.350137e+00 4.223423e+00 3.411239e+00 3.439952e+00 2.949329e+00 3.439952e+00 3.411647e+00 4.223507e+00 5.350741e+00 8.001580e+00 4.711788e+00 -1.658836e+00 -5.791750e+00 -2.929315e+00 -8.886994e+00 2.934686e+00 3.279389e+00 -5.212652e+00 9.816706e+00 3.280458e+01 