# vtk DataFile Version 2.0
Comment goes here
ASCII

DATASET STRUCTURED_POINTS
DIMENSIONS    64   64   1

ORIGIN    0.000   0.000   0.000
SPACING   0.031250.03125   1.000

POINT_DATA   4096
SCALARS uY double
LOOKUP_TABLE default

3.633706e-04 4.587492e-04 6.115841e-04 7.307689e-04 8.699826e-04 1.007540e-03 1.123211e-03 1.271521e-03 1.355212e-03 1.505334e-03 1.551275e-03 1.693906e-03 1.699538e-03 1.825778e-03 1.791673e-03 1.893502e-03 1.822892e-03 1.893476e-03 1.791652e-03 1.825701e-03 1.699497e-03 1.693782e-03 1.551216e-03 1.505168e-03 1.355136e-03 1.271321e-03 1.123122e-03 1.007316e-03 8.698840e-04 7.305338e-04 6.114801e-04 4.585145e-04 3.632661e-04 2.065502e-04 1.378858e-04 -1.421288e-05 -5.609056e-05 -1.976142e-04 -2.145433e-04 -3.421763e-04 -3.372457e-04 -4.499588e-04 -4.266836e-04 -5.250179e-04 -4.866321e-04 -5.718744e-04 -5.208182e-04 -5.942561e-04 -5.318909e-04 -5.942399e-04 -5.208011e-04 -5.718257e-04 -4.865982e-04 -5.249365e-04 -4.266332e-04 -4.498446e-04 -3.371798e-04 -3.420298e-04 -2.144633e-04 -1.974374e-04 -5.599886e-05 -1.400964e-05 1.379860e-04 2.067736e-04 
-7.437445e-02 -7.292566e-02 -6.950579e-02 -6.343220e-02 -5.426561e-02 -4.456274e-02 -3.091463e-02 -1.917661e-02 -2.974223e-03 8.815147e-03 2.525117e-02 3.501161e-02 4.933940e-02 5.523049e-02 6.549072e-02 6.622198e-02 7.116832e-02 6.622045e-02 6.549002e-02 5.522622e-02 4.933843e-02 3.500547e-02 2.525051e-02 8.808196e-03 -2.974177e-03 -1.918346e-02 -3.091370e-02 -4.456888e-02 -5.426382e-02 -6.343731e-02 -6.950325e-02 -7.292960e-02 -7.437134e-02 -7.159189e-02 -6.813155e-02 -5.952816e-02 -5.164287e-02 -3.837816e-02 -2.725829e-02 -1.112768e-02 1.457322e-03 1.826339e-02 3.020625e-02 4.541585e-02 5.460848e-02 6.621148e-02 7.091864e-02 7.747001e-02 7.664337e-02 7.746913e-02 7.091691e-02 6.620916e-02 5.460548e-02 4.541286e-02 3.020254e-02 1.826066e-02 1.453353e-03 -1.112941e-02 -2.726226e-02 -3.837846e-02 -5.164667e-02 -5.952694e-02 -6.813508e-02 -7.158924e-02 
-1.506979e-01 -1.475982e-01 -1.400466e-01 -1.275181e-01 -1.081812e-01 -8.823349e-02 -5.975188e-02 -3.563431e-02 -2.004330e-03 2.220829e-02 5.619873e-02 7.621312e-02 1.057657e-01 1.177919e-01 1.389312e-01 1.403460e-01 1.505715e-01 1.403437e-01 1.389314e-01 1.177856e-01 1.057666e-01 7.620399e-02 5.620101e-02 2.219799e-02 -2.000546e-03 -3.564455e-02 -5.974690e-02 -8.824312e-02 -1.081755e-01 -1.275270e-01 -1.400409e-01 -1.476063e-01 -1.506926e-01 -1.454867e-01 -1.386027e-01 -1.213653e-01 -1.055037e-01 -7.858236e-02 -5.618679e-02 -2.324517e-02 2.063094e-03 3.652315e-02 6.044357e-02 9.173381e-02 1.099880e-01 1.339699e-01 1.430693e-01 1.568023e-01 1.546681e-01 1.568014e-01 1.430676e-01 1.339678e-01 1.099851e-01 9.173161e-02 6.044029e-02 3.652226e-02 2.059712e-03 -2.324383e-02 -5.619035e-02 -7.857862e-02 -1.055077e-01 -1.213595e-01 -1.386073e-01 -1.454795e-01 
-2.335933e-01 -2.286404e-01 -2.177366e-01 -1.982740e-01 -1.692099e-01 -1.383667e-01 -9.509294e-02 -5.787887e-02 -6.465438e-03 3.086574e-02 8.305865e-02 1.139315e-01 1.594447e-01 1.780414e-01 2.106350e-01 2.128854e-01 2.286175e-01 2.128805e-01 2.106324e-01 1.780277e-01 1.594412e-01 1.139120e-01 8.305619e-02 3.084397e-02 -6.465616e-03 -5.790007e-02 -9.509037e-02 -1.383856e-01 -1.692047e-01 -1.982898e-01 -2.177292e-01 -2.286527e-01 -2.335842e-01 -2.249359e-01 -2.144628e-01 -1.874560e-01 -1.630285e-01 -1.213127e-01 -8.661822e-02 -3.583372e-02 3.590855e-03 5.654216e-02 9.404653e-02 1.419907e-01 1.708830e-01 2.074756e-01 2.222403e-01 2.429333e-01 2.402586e-01 2.429305e-01 2.222348e-01 2.074681e-01 1.708737e-01 1.419811e-01 9.403526e-02 5.653363e-02 3.579039e-03 -3.583880e-02 -8.662986e-02 -1.213131e-01 -1.630396e-01 -1.874518e-01 -2.144731e-01 -2.249274e-01 
-3.244989e-01 -3.178523e-01 -3.019177e-01 -2.749708e-01 -2.337972e-01 -1.907899e-01 -1.299482e-01 -7.778507e-02 -5.822212e-03 4.674851e-02 1.194822e-01 1.631592e-01 2.262361e-01 2.527827e-01 2.975990e-01 3.013524e-01 3.226029e-01 3.013473e-01 2.975989e-01 2.527687e-01 2.262375e-01 1.631395e-01 1.194866e-01 4.672690e-02 -5.814281e-03 -7.780593e-02 -1.299376e-01 -1.908091e-01 -2.337853e-01 -2.749883e-01 -3.019058e-01 -3.178685e-01 -3.244880e-01 -3.131808e-01 -2.983504e-01 -2.613785e-01 -2.271692e-01 -1.695238e-01 -1.210941e-01 -5.058162e-02 4.330050e-03 7.805392e-02 1.301489e-01 1.969700e-01 2.369265e-01 2.879183e-01 3.081423e-01 3.370334e-01 3.330667e-01 3.370312e-01 3.081382e-01 2.879127e-01 2.369201e-01 1.969641e-01 1.301419e-01 7.805114e-02 4.323286e-03 -5.057925e-02 -1.211011e-01 -1.695161e-01 -2.271771e-01 -2.613667e-01 -2.983598e-01 -3.131663e-01 
-4.278003e-01 -4.184464e-01 -3.986475e-01 -3.626635e-01 -3.097486e-01 -2.527494e-01 -1.737778e-01 -1.048271e-01 -1.084271e-02 5.860890e-02 1.540149e-01 2.118137e-01 2.947499e-01 3.301125e-01 3.889835e-01 3.943852e-01 4.220283e-01 3.943756e-01 3.889775e-01 3.300865e-01 2.947419e-01 2.117775e-01 1.540094e-01 5.856942e-02 -1.084363e-02 -1.048644e-01 -1.737735e-01 -2.527817e-01 -3.097395e-01 -3.626901e-01 -3.986346e-01 -4.184674e-01 -4.277847e-01 -4.120558e-01 -3.931150e-01 -3.440560e-01 -2.993916e-01 -2.235829e-01 -1.597707e-01 -6.742689e-02 5.488710e-03 1.017627e-01 1.715149e-01 2.585386e-01 3.126371e-01 3.787658e-01 4.068923e-01 4.438502e-01 4.399042e-01 4.438442e-01 4.068814e-01 3.787504e-01 3.126195e-01 2.585193e-01 1.714947e-01 1.017460e-01 5.468285e-03 -6.743645e-02 -1.597904e-01 -2.235836e-01 -2.994103e-01 -3.440482e-01 -3.931324e-01 -4.120410e-01 
-5.470144e-01 -5.356694e-01 -5.093254e-01 -4.637212e-01 -3.951451e-01 -3.221740e-01 -2.204309e-01 -1.314704e-01 -1.082775e-02 7.941050e-02 2.013168e-01 2.768978e-01 3.821083e-01 4.288297e-01 5.026343e-01 5.109252e-01 5.446447e-01 5.109160e-01 5.026322e-01 4.288047e-01 3.821085e-01 2.768637e-01 2.013231e-01 7.937496e-02 -1.081492e-02 -1.315027e-01 -2.204135e-01 -3.222025e-01 -3.951256e-01 -4.637472e-01 -5.093063e-01 -5.356940e-01 -5.469973e-01 -5.279865e-01 -5.031367e-01 -4.414465e-01 -3.837286e-01 -2.875605e-01 -2.053575e-01 -8.761933e-02 6.193659e-03 1.293042e-01 2.188939e-01 3.301840e-01 3.994326e-01 4.837093e-01 5.195081e-01 5.663822e-01 5.613127e-01 5.663773e-01 5.195000e-01 4.836973e-01 3.994208e-01 3.301711e-01 2.188827e-01 1.292975e-01 6.183825e-03 -8.761602e-02 -2.053672e-01 -2.875476e-01 -3.837399e-01 -4.414271e-01 -5.031508e-01 -5.279635e-01 
-6.858536e-01 -6.704675e-01 -6.393279e-01 -5.812014e-01 -4.973712e-01 -4.051401e-01 -2.794208e-01 -1.672664e-01 -1.711874e-02 9.661758e-02 2.491210e-01 3.446205e-01 4.765662e-01 5.361964e-01 6.285132e-01 6.401413e-01 6.815242e-01 6.401242e-01 6.284996e-01 5.361518e-01 4.765497e-01 3.445604e-01 2.491101e-01 9.655500e-02 -1.712111e-02 -1.673223e-01 -2.794144e-01 -4.051865e-01 -4.973572e-01 -5.812390e-01 -6.393084e-01 -6.704974e-01 -6.858307e-01 -6.607927e-01 -6.308399e-01 -5.531513e-01 -4.816577e-01 -3.615411e-01 -2.585506e-01 -1.120339e-01 6.644647e-03 1.594327e-01 2.739108e-01 4.116595e-01 5.012599e-01 6.051957e-01 6.527687e-01 7.098440e-01 7.055628e-01 7.098321e-01 6.527484e-01 6.051665e-01 5.012299e-01 4.116241e-01 2.738793e-01 1.594033e-01 6.614549e-03 -1.120495e-01 -2.585788e-01 -3.615413e-01 -4.816841e-01 -5.531387e-01 -6.308648e-01 -6.607704e-01 
-8.510694e-01 -8.331290e-01 -7.932183e-01 -7.220672e-01 -6.170347e-01 -5.027262e-01 -3.458284e-01 -2.053526e-01 -1.840309e-02 1.254618e-01 3.145075e-01 4.362167e-01 5.982852e-01 6.747300e-01 7.862068e-01 8.025725e-01 8.506972e-01 8.025564e-01 7.861989e-01 6.746870e-01 5.982808e-01 4.361607e-01 3.145153e-01 1.254080e-01 -1.838370e-02 -2.053970e-01 -3.458018e-01 -5.027627e-01 -6.170053e-01 -7.221006e-01 -7.931902e-01 -8.331623e-01 -8.510454e-01 -8.216165e-01 -7.834589e-01 -6.888661e-01 -5.992510e-01 -4.516729e-01 -3.228203e-01 -1.416637e-01 6.881550e-03 1.965964e-01 3.397994e-01 5.107867e-01 6.224307e-01 7.503847e-01 8.091511e-01 8.783959e-01 8.731467e-01 8.783858e-01 8.091348e-01 7.503594e-01 6.224097e-01 5.107597e-01 3.397830e-01 1.965821e-01 6.869738e-03 -1.416588e-01 -3.228314e-01 -4.516520e-01 -5.992648e-01 -6.888361e-01 -7.834775e-01 -8.215834e-01 
-1.045474e+00 -1.021505e+00 -9.754904e-01 -8.865772e-01 -7.610209e-01 -6.193582e-01 -4.294142e-01 -2.556789e-01 -2.728543e-02 1.505894e-01 3.830894e-01 5.339061e-01 7.339018e-01 8.298734e-01 9.669598e-01 9.898240e-01 1.047060e+00 9.897924e-01 9.669285e-01 8.297979e-01 7.338686e-01 5.338088e-01 3.830699e-01 1.504949e-01 -2.728991e-02 -2.557561e-01 -4.294047e-01 -6.194178e-01 -7.609998e-01 -8.866245e-01 -9.754619e-01 -1.021544e+00 -1.045442e+00 -1.007524e+00 -9.627971e-01 -8.462690e-01 -7.378678e-01 -5.574229e-01 -3.994067e-01 -1.785699e-01 5.779136e-03 2.364268e-01 4.162838e-01 6.235347e-01 7.657273e-01 9.204963e-01 9.973190e-01 1.080488e+00 1.076813e+00 1.080463e+00 9.972794e-01 9.204418e-01 7.656769e-01 6.234708e-01 4.162379e-01 2.363768e-01 5.738457e-03 -1.785927e-01 -3.994434e-01 -5.574200e-01 -7.379017e-01 -8.462483e-01 -9.628298e-01 -1.007492e+00 
-1.280544e+00 -1.253170e+00 -1.195431e+00 -1.088685e+00 -9.339606e-01 -7.613426e-01 -5.275081e-01 -3.127381e-01 -3.155504e-02 1.915473e-01 4.768297e-01 6.678731e-01 9.104675e-01 1.031398e+00 1.193281e+00 1.221957e+00 1.285616e+00 1.221929e+00 1.193257e+00 1.031322e+00 9.104503e-01 6.677798e-01 4.768395e-01 1.914686e-01 -3.152538e-02 -3.127923e-01 -5.274681e-01 -7.613827e-01 -9.339175e-01 -1.088723e+00 -1.195391e+00 -1.253212e+00 -1.280512e+00 -1.236433e+00 -1.180377e+00 -1.040740e+00 -9.069926e-01 -6.886524e-01 -4.936041e-01 -2.240307e-01 4.266304e-03 2.879378e-01 5.109826e-01 7.660966e-01 9.414692e-01 1.128773e+00 1.221559e+00 1.318342e+00 1.312832e+00 1.318321e+00 1.221523e+00 1.128720e+00 9.414303e-01 7.660409e-01 5.109612e-01 2.879105e-01 4.255619e-03 -2.240204e-01 -4.936133e-01 -6.886165e-01 -9.070066e-01 -1.040694e+00 -1.180400e+00 -1.236387e+00 
-1.557826e+00 -1.521580e+00 -1.456246e+00 -1.324346e+00 -1.141896e+00 -9.301158e-01 -6.499672e-01 -3.866531e-01 -4.562573e-02 2.277035e-01 5.767976e-01 8.107002e-01 1.109025e+00 1.259404e+00 1.458278e+00 1.499532e+00 1.573033e+00 1.499466e+00 1.458201e+00 1.259274e+00 1.108960e+00 8.105405e-01 5.767671e-01 2.275638e-01 -4.563250e-02 -3.867507e-01 -6.499523e-01 -9.301829e-01 -1.141863e+00 -1.324399e+00 -1.456204e+00 -1.521628e+00 -1.557783e+00 -1.501597e+00 -1.437123e+00 -1.267103e+00 -1.107667e+00 -8.434149e-01 -6.070032e-01 -2.812357e-01 -3.285856e-04 3.415033e-01 6.198804e-01 9.257385e-01 1.148045e+00 1.372645e+00 1.493838e+00 1.611238e+00 1.607264e+00 1.611182e+00 1.493752e+00 1.372543e+00 1.147960e+00 9.256224e-01 6.198184e-01 3.414208e-01 -3.798755e-04 -2.812633e-01 -6.070472e-01 -8.434009e-01 -1.107707e+00 -1.267067e+00 -1.437163e+00 -1.501553e+00 
-1.895247e+00 -1.854430e+00 -1.773982e+00 -1.618144e+00 -1.395878e+00 -1.141292e+00 -7.988160e-01 -4.759832e-01 -5.743289e-02 2.854401e-01 7.137891e-01 1.012652e+00 1.374077e+00 1.561607e+00 1.791196e+00 1.831345e+00 1.904362e+00 1.831293e+00 1.791125e+00 1.561466e+00 1.374028e+00 1.012490e+00 7.138071e-01 2.853297e-01 -5.738549e-02 -4.760357e-01 -7.987564e-01 -1.141324e+00 -1.395814e+00 -1.618181e+00 -1.773926e+00 -1.854481e+00 -1.895205e+00 -1.830132e+00 -1.750500e+00 -1.549033e+00 -1.354709e+00 -1.038276e+00 -7.489710e-01 -3.539400e-01 -7.482539e-03 4.129481e-01 7.582732e-01 1.137250e+00 1.411472e+00 1.680898e+00 1.823082e+00 1.947350e+00 1.934165e+00 1.947308e+00 1.822998e+00 1.680786e+00 1.411396e+00 1.137135e+00 7.582525e-01 4.129013e-01 -7.484795e-03 -3.539114e-01 -7.489733e-01 -1.038210e+00 -1.354720e+00 -1.548961e+00 -1.750526e+00 -1.830068e+00 
-2.292622e+00 -2.239082e+00 -2.149989e+00 -1.959334e+00 -1.700562e+00 -1.390396e+00 -9.831238e-01 -5.886670e-01 -8.204691e-02 3.365556e-01 8.611925e-01 1.222386e+00 1.667143e+00 1.896476e+00 2.183292e+00 2.250278e+00 2.330655e+00 2.250106e+00 2.183086e+00 1.896257e+00 1.667028e+00 1.222113e+00 8.611570e-01 3.363527e-01 -8.205746e-02 -5.887709e-01 -9.830998e-01 -1.390454e+00 -1.700508e+00 -1.959384e+00 -2.149924e+00 -2.239137e+00 -2.292565e+00 -2.210320e+00 -2.120412e+00 -1.877407e+00 -1.648820e+00 -1.268236e+00 -9.207605e-01 -4.446314e-01 -1.996623e-02 4.854656e-01 9.159851e-01 1.365916e+00 1.712683e+00 2.032151e+00 2.221821e+00 2.381571e+00 2.366706e+00 2.381413e+00 2.221605e+00 2.031970e+00 1.712546e+00 1.365699e+00 9.159144e-01 4.853336e-01 -2.002824e-02 -4.446479e-01 -9.208089e-01 -1.268190e+00 -1.648859e+00 -1.877344e+00 -2.120456e+00 -2.210258e+00 
-2.775955e+00 -2.716265e+00 -2.609383e+00 -2.388143e+00 -2.076709e+00 -1.709829e+00 -1.214585e+00 -7.357356e-01 -1.139671e-01 4.128069e-01 1.060657e+00 1.536408e+00 2.083319e+00 2.375056e+00 2.695998e+00 2.706910e+00 2.742702e+00 2.706827e+00 2.695798e+00 2.374763e+00 2.083198e+00 1.536107e+00 1.060716e+00 4.126699e-01 -1.138917e-01 -7.357476e-01 -1.214498e+00 -1.709830e+00 -2.076615e+00 -2.388173e+00 -2.609301e+00 -2.716325e+00 -2.775899e+00 -2.680550e+00 -2.571656e+00 -2.287051e+00 -2.012249e+00 -1.561690e+00 -1.140182e+00 -5.668185e-01 -4.431371e-02 5.798343e-01 1.117072e+00 1.689858e+00 2.125470e+00 2.514365e+00 2.727964e+00 2.839314e+00 2.770780e+00 2.839243e+00 2.727743e+00 2.514108e+00 2.125313e+00 1.689615e+00 1.117084e+00 5.797721e-01 -4.429596e-02 -5.667311e-01 -1.140170e+00 -1.561566e+00 -2.012249e+00 -2.286941e+00 -2.571681e+00 -2.680464e+00 
-3.342616e+00 -3.265406e+00 -3.150965e+00 -2.883947e+00 -2.527684e+00 -2.084318e+00 -1.500532e+00 -9.151592e-01 -1.613070e-01 4.849716e-01 1.284092e+00 1.848729e+00 2.515607e+00 2.845293e+00 3.266777e+00 3.362913e+00 3.405103e+00 3.362310e+00 3.266163e+00 2.845001e+00 2.515471e+00 1.848216e+00 1.284084e+00 4.846957e-01 -1.613402e-01 -9.152117e-01 -1.500490e+00 -2.084333e+00 -2.527583e+00 -2.883983e+00 -3.150859e+00 -3.265467e+00 -3.342539e+00 -3.223435e+00 -3.103464e+00 -2.764522e+00 -2.446735e+00 -1.908436e+00 -1.407796e+00 -7.155321e-01 -7.545559e-02 6.792410e-01 1.352522e+00 2.023314e+00 2.565276e+00 3.000074e+00 3.303328e+00 3.509582e+00 3.438484e+00 3.509001e+00 3.302709e+00 2.999834e+00 2.565117e+00 2.022872e+00 1.352480e+00 6.790477e-01 -7.554260e-02 -7.154792e-01 -1.407841e+00 -1.908318e+00 -2.446756e+00 -2.764413e+00 -3.103504e+00 -3.223350e+00 
-4.027751e+00 -3.941997e+00 -3.811103e+00 -3.508351e+00 -3.086875e+00 -2.574473e+00 -1.868606e+00 -1.170363e+00 -2.456386e-01 5.631166e-01 1.553525e+00 2.342905e+00 3.210264e+00 3.736102e+00 4.207172e+00 3.878501e+00 3.592676e+00 3.878538e+00 4.206603e+00 3.735312e+00 3.209967e+00 2.342335e+00 1.553756e+00 5.630282e-01 -2.455526e-01 -1.170227e+00 -1.868482e+00 -2.574410e+00 -3.086726e+00 -3.508374e+00 -3.810979e+00 -3.942070e+00 -4.027678e+00 -3.888755e+00 -3.748046e+00 -3.357164e+00 -2.982143e+00 -2.355106e+00 -1.754881e+00 -9.319041e-01 -1.478376e-01 7.814155e-01 1.622858e+00 2.525946e+00 3.252970e+00 3.888618e+00 4.233223e+00 4.020291e+00 3.610045e+00 4.020343e+00 4.232625e+00 3.887876e+00 3.252624e+00 2.525442e+00 1.623038e+00 7.814068e-01 -1.478109e-01 -9.316505e-01 -1.754846e+00 -2.354880e+00 -2.982114e+00 -3.357006e+00 -3.748063e+00 -3.888647e+00 
-4.824162e+00 -4.715614e+00 -4.584535e+00 -4.227392e+00 -3.759542e+00 -3.149904e+00 -2.331291e+00 -1.476252e+00 -3.502033e-01 6.647355e-01 1.920038e+00 2.859391e+00 3.877906e+00 4.222960e+00 4.800060e+00 5.038603e+00 5.031668e+00 5.035792e+00 4.797912e+00 4.223045e+00 3.878126e+00 2.858172e+00 1.920102e+00 6.644839e-01 -3.503655e-01 -1.476078e+00 -2.331196e+00 -3.149829e+00 -3.759338e+00 -4.227410e+00 -4.584355e+00 -4.715682e+00 -4.824059e+00 -4.653912e+00 -4.504866e+00 -4.049745e+00 -3.627364e+00 -2.887772e+00 -2.189422e+00 -1.191863e+00 -2.302006e-01 9.186125e-01 2.003391e+00 3.065168e+00 3.926944e+00 4.387810e+00 4.823396e+00 5.190620e+00 5.055781e+00 5.187863e+00 4.821257e+00 4.387968e+00 3.927127e+00 3.064040e+00 2.003431e+00 9.184425e-01 -2.304063e-01 -1.191568e+00 -2.189426e+00 -2.887518e+00 -3.627320e+00 -4.049576e+00 -4.504884e+00 -4.653805e+00 
-5.776672e+00 -5.655012e+00 -5.521440e+00 -5.128904e+00 -4.591484e+00 -3.911138e+00 -2.926012e+00 -1.934666e+00 -5.517183e-01 6.679681e-01 2.184973e+00 3.524674e+00 4.716605e+00 5.648180e+00 7.195044e+00 5.904642e+00 4.047474e+00 5.903371e+00 7.194373e+00 5.648923e+00 4.717406e+00 3.523792e+00 2.185692e+00 6.682800e-01 -5.518088e-01 -1.934148e+00 -2.925804e+00 -3.911008e+00 -4.591223e+00 -5.128954e+00 -5.521252e+00 -5.655110e+00 -5.776575e+00 -5.575720e+00 -5.411406e+00 -4.898383e+00 -4.413307e+00 -3.571852e+00 -2.747987e+00 -1.587136e+00 -4.135691e-01 9.527720e-01 2.265480e+00 3.733710e+00 4.747285e+00 5.779936e+00 7.190411e+00 6.058900e+00 4.074060e+00 6.057641e+00 7.189700e+00 5.780766e+00 4.748005e+00 3.732899e+00 2.266156e+00 9.531447e-01 -4.137017e-01 -1.586488e+00 -2.747877e+00 -3.571492e+00 -4.413207e+00 -4.898193e+00 -5.411406e+00 -5.575600e+00 
-6.865987e+00 -6.716651e+00 -6.605762e+00 -6.160250e+00 -5.597264e+00 -4.816608e+00 -3.713446e+00 -2.509897e+00 -8.394354e-01 7.471656e-01 2.840864e+00 4.558617e+00 6.850763e+00 9.580857e+00 9.769118e+00 4.297922e+00 5.733597e-01 4.294266e+00 9.762523e+00 9.574014e+00 6.848348e+00 4.555392e+00 2.840315e+00 7.476871e-01 -8.399344e-01 -2.509160e+00 -3.713095e+00 -4.816455e+00 -5.596836e+00 -6.160289e+00 -6.605466e+00 -6.716732e+00 -6.865845e+00 -6.627811e+00 -6.466294e+00 -5.893598e+00 -5.370054e+00 -4.406517e+00 -3.490886e+00 -2.087048e+00 -6.713770e-01 1.078083e+00 2.937758e+00 4.786458e+00 6.877006e+00 9.722968e+00 9.782320e+00 4.449990e+00 5.546016e-01 4.446434e+00 9.775756e+00 9.716313e+00 6.874562e+00 4.783364e+00 2.937242e+00 1.078635e+00 -6.718828e-01 -2.086185e+00 -3.490643e+00 -4.406088e+00 -5.369852e+00 -5.893391e+00 -6.466272e+00 -6.627700e+00 
-8.147336e+00 -7.975130e+00 -7.909440e+00 -7.440022e+00 -6.837304e+00 -6.014998e+00 -4.675673e+00 -3.322223e+00 -1.253188e+00 4.462783e-01 2.866018e+00 5.585693e+00 8.898160e+00 1.175061e+01 1.056958e+01 5.799888e+00 3.809397e+00 5.794507e+00 1.056242e+01 1.174969e+01 8.902130e+00 5.583310e+00 2.865794e+00 4.475518e-01 -1.253414e+00 -3.321248e+00 -4.675027e+00 -6.014968e+00 -6.836829e+00 -7.440205e+00 -7.909173e+00 -7.975274e+00 -8.147210e+00 -7.862549e+00 -7.709983e+00 -7.088939e+00 -6.516019e+00 -5.456677e+00 -4.393668e+00 -2.792054e+00 -1.059416e+00 8.115815e-01 2.949995e+00 5.802121e+00 8.917632e+00 1.188992e+01 1.056925e+01 5.880543e+00 3.674915e+00 5.875178e+00 1.056198e+01 1.188905e+01 8.921329e+00 5.799794e+00 2.949814e+00 8.128274e-01 -1.059633e+00 -2.790948e+00 -4.393134e+00 -5.456256e+00 -6.515780e+00 -7.088795e+00 -7.709973e+00 -7.862460e+00 
-9.569001e+00 -9.366096e+00 -9.379476e+00 -8.877029e+00 -8.326526e+00 -7.457448e+00 -6.004077e+00 -4.482569e+00 -2.293212e+00 -6.825127e-03 3.516150e+00 6.848921e+00 1.081503e+01 1.282122e+01 1.097211e+01 9.166299e+00 9.693114e+00 9.166827e+00 1.096866e+01 1.282024e+01 1.081632e+01 6.846676e+00 3.515774e+00 -5.020915e-03 -2.292089e+00 -4.481583e+00 -6.002638e+00 -7.457558e+00 -8.325720e+00 -8.877230e+00 -9.379051e+00 -9.366204e+00 -9.568815e+00 -9.250340e+00 -9.127717e+00 -8.488373e+00 -7.909108e+00 -6.771294e+00 -5.650875e+00 -3.809606e+00 -2.066577e+00 4.105598e-01 3.620210e+00 7.060232e+00 1.081225e+01 1.295839e+01 1.097861e+01 9.235490e+00 9.513664e+00 9.235992e+00 1.097495e+01 1.295768e+01 1.081351e+01 7.058118e+00 3.620026e+00 4.122085e-01 -2.065416e+00 -3.808502e+00 -5.649550e+00 -6.770852e+00 -7.908662e+00 -8.488240e+00 -9.127682e+00 -9.250291e+00 
-1.119331e+01 -1.094947e+01 -1.113398e+01 -1.063855e+01 -1.020317e+01 -9.385240e+00 -7.423584e+00 -5.892525e+00 -3.135379e+00 -9.074190e-01 3.247634e+00 9.487238e+00 1.373127e+01 1.334508e+01 1.216758e+01 1.336655e+01 1.515822e+01 1.336923e+01 1.216833e+01 1.334226e+01 1.373107e+01 9.484925e+00 3.244138e+00 -9.050663e-01 -3.133089e+00 -5.891029e+00 -7.421473e+00 -9.385981e+00 -1.020241e+01 -1.063912e+01 -1.113370e+01 -1.094968e+01 -1.119317e+01 -1.081684e+01 -1.076703e+01 -1.013746e+01 -9.574250e+00 -8.380686e+00 -6.982733e+00 -5.030054e+00 -2.886015e+00 -4.743744e-01 3.265737e+00 9.569182e+00 1.372472e+01 1.346312e+01 1.213343e+01 1.338855e+01 1.491206e+01 1.339132e+01 1.213386e+01 1.346081e+01 1.372422e+01 9.566876e+00 3.262680e+00 -4.723036e-01 -2.883667e+00 -5.028518e+00 -6.980752e+00 -8.380557e+00 -9.573909e+00 -1.013759e+01 -1.076710e+01 -1.081689e+01 
-1.290223e+01 -1.263070e+01 -1.301407e+01 -1.253310e+01 -1.236311e+01 -1.149695e+01 -9.232088e+00 -8.087693e+00 -5.132474e+00 3.287296e-01 9.257058e+00 1.520244e+01 1.453779e+01 1.228524e+01 1.321374e+01 1.513433e+01 1.645064e+01 1.513349e+01 1.321596e+01 1.228107e+01 1.453706e+01 1.519982e+01 9.254540e+00 3.345029e-01 -5.128641e+00 -8.084288e+00 -9.229414e+00 -1.149836e+01 -1.236204e+01 -1.253373e+01 -1.301363e+01 -1.263081e+01 -1.290202e+01 -1.252900e+01 -1.256433e+01 -1.204781e+01 -1.151763e+01 -1.024313e+01 -8.661357e+00 -6.902966e+00 -4.898963e+00 7.656535e-01 9.230931e+00 1.538624e+01 1.471865e+01 1.224361e+01 1.306365e+01 1.511659e+01 1.604965e+01 1.511589e+01 1.306542e+01 1.224053e+01 1.471707e+01 1.538353e+01 9.229425e+00 7.707184e-01 -4.895062e+00 -6.899756e+00 -8.658614e+00 -1.024309e+01 -1.151726e+01 -1.204805e+01 -1.256445e+01 -1.252916e+01 
-1.472359e+01 -1.438292e+01 -1.521480e+01 -1.481084e+01 -1.534250e+01 -1.434174e+01 -1.114681e+01 -7.862006e+00 4.457555e-01 6.544515e+00 1.183983e+01 1.117587e+01 9.153718e+00 1.392906e+01 1.717972e+01 1.764013e+01 1.847674e+01 1.764670e+01 1.718650e+01 1.392223e+01 9.149138e+00 1.116830e+01 1.183364e+01 6.550659e+00 4.546729e-01 -7.854382e+00 -1.114427e+01 -1.434499e+01 -1.534217e+01 -1.481214e+01 -1.521477e+01 -1.438310e+01 -1.472348e+01 -1.433158e+01 -1.457791e+01 -1.429541e+01 -1.394627e+01 -1.230003e+01 -1.047792e+01 -6.351842e+00 7.212205e-01 7.115983e+00 1.188706e+01 1.138216e+01 9.315226e+00 1.341736e+01 1.679713e+01 1.747681e+01 1.770572e+01 1.748324e+01 1.680320e+01 1.341163e+01 9.309312e+00 1.137505e+01 1.188232e+01 7.121334e+00 7.300921e-01 -6.345150e+00 -1.047508e+01 -1.230087e+01 -1.394687e+01 -1.429626e+01 -1.457833e+01 -1.433197e+01 
-1.646229e+01 -1.610838e+01 -1.738183e+01 -1.710862e+01 -1.838274e+01 -1.618866e+01 -1.028310e+01 -5.385938e+00 1.907547e+00 5.188329e+00 6.457786e+00 6.050643e+00 1.355967e+01 2.052720e+01 1.989225e+01 2.068495e+01 2.191765e+01 2.068495e+01 1.989607e+01 2.052266e+01 1.354693e+01 6.037578e+00 6.457604e+00 5.199851e+00 1.918405e+00 -5.377749e+00 -1.028115e+01 -1.619450e+01 -1.838255e+01 -1.710958e+01 -1.738169e+01 -1.610826e+01 -1.646217e+01 -1.619884e+01 -1.668843e+01 -1.691893e+01 -1.642937e+01 -1.363941e+01 -9.314969e+00 -2.903439e+00 2.532703e+00 5.960059e+00 6.247092e+00 6.175499e+00 1.370931e+01 1.952822e+01 1.930515e+01 2.033268e+01 2.072235e+01 2.033261e+01 1.930888e+01 1.952461e+01 1.369609e+01 6.163164e+00 6.247351e+00 5.970198e+00 2.543479e+00 -2.896933e+00 -9.311753e+00 -1.364073e+01 -1.643103e+01 -1.692003e+01 -1.668903e+01 -1.619942e+01 
-1.791238e+01 -1.744431e+01 -1.959339e+01 -1.949425e+01 -2.274730e+01 -2.020204e+01 -9.541066e+00 -2.961843e+00 2.789607e+00 2.764120e+00 8.656419e+00 1.606107e+01 1.596723e+01 1.597567e+01 1.974070e+01 2.262046e+01 2.344645e+01 2.260592e+01 1.973327e+01 1.597827e+01 1.596511e+01 1.605186e+01 8.644753e+00 2.773736e+00 2.805409e+00 -2.951927e+00 -9.540946e+00 -2.021724e+01 -2.274917e+01 -1.949551e+01 -1.959393e+01 -1.744393e+01 -1.791250e+01 -1.783061e+01 -1.882729e+01 -2.006044e+01 -1.918637e+01 -1.501518e+01 -8.953219e+00 -4.192224e-02 4.611714e+00 4.017900e+00 8.123558e+00 1.511098e+01 1.548842e+01 1.468793e+01 1.862887e+01 2.183741e+01 2.209447e+01 2.182270e+01 1.862154e+01 1.469023e+01 1.548624e+01 1.510136e+01 8.114815e+00 4.026175e+00 4.627461e+00 -3.492226e-02 -8.952732e+00 -1.502189e+01 -1.919138e+01 -2.006253e+01 -1.882816e+01 -1.783147e+01 
-1.888100e+01 -1.845642e+01 -2.137488e+01 -2.161568e+01 -2.577222e+01 -2.144488e+01 -3.211903e+00 3.510428e+00 5.484408e+00 9.981831e+00 1.219623e+01 8.735537e+00 8.040044e+00 1.457156e+01 2.027140e+01 2.193122e+01 2.283438e+01 2.192074e+01 2.026241e+01 1.457286e+01 8.039128e+00 8.741447e+00 1.219127e+01 9.978644e+00 5.496121e+00 3.523928e+00 -3.219883e+00 -2.146915e+01 -2.576985e+01 -2.161383e+01 -2.137507e+01 -1.845543e+01 -1.888146e+01 -1.920717e+01 -2.105844e+01 -2.394924e+01 -2.081917e+01 -1.196590e+01 8.160708e-01 8.179146e+00 5.981003e+00 8.784459e+00 1.039665e+01 6.516468e+00 6.603308e+00 1.343918e+01 1.902851e+01 2.099531e+01 2.176801e+01 2.098458e+01 1.901960e+01 1.343937e+01 6.603327e+00 6.520021e+00 1.039324e+01 8.780756e+00 5.992772e+00 8.189521e+00 8.146862e-01 -1.197588e+01 -2.082548e+01 -2.395159e+01 -2.105901e+01 -1.920806e+01 
-1.847327e+01 -1.786939e+01 -2.108718e+01 -1.766559e+01 -2.494144e+01 -2.227621e+01 2.742515e+00 1.037213e+01 1.043471e+01 1.235645e+01 5.747320e+00 3.565907e-02 8.537028e+00 1.532291e+01 1.570233e+01 1.684325e+01 1.799139e+01 1.683865e+01 1.569702e+01 1.532549e+01 8.535197e+00 3.790395e-02 5.747286e+00 1.235749e+01 1.043954e+01 1.037826e+01 2.724932e+00 -2.230207e+01 -2.492785e+01 -1.766020e+01 -2.108751e+01 -1.786728e+01 -1.847418e+01 -1.934330e+01 -2.243216e+01 -2.501464e+01 -1.393650e+01 9.451320e-01 9.291619e+00 1.032369e+01 6.534228e+00 8.303031e+00 3.095303e+00 -2.357227e+00 6.825011e+00 1.416058e+01 1.450598e+01 1.588204e+01 1.694856e+01 1.587712e+01 1.450113e+01 1.416223e+01 6.824401e+00 -2.356715e+00 3.096914e+00 8.303804e+00 6.540296e+00 1.032364e+01 9.281533e+00 9.381919e-01 -1.393718e+01 -2.501544e+01 -2.243075e+01 -1.934379e+01 
-1.646621e+01 -1.607752e+01 -1.798505e+01 -9.201591e+00 -2.410607e+01 -2.376866e+01 8.770789e+00 1.693253e+01 1.839243e+01 1.318090e+01 -2.977538e+00 -6.094933e+00 5.973481e+00 1.063466e+01 1.035204e+01 1.190763e+01 1.273573e+01 1.190578e+01 1.034831e+01 1.063635e+01 5.973746e+00 -6.093804e+00 -2.981771e+00 1.318200e+01 1.840054e+01 1.693479e+01 8.747878e+00 -2.377744e+01 -2.408043e+01 -9.204958e+00 -1.799036e+01 -1.607684e+01 -1.646862e+01 -1.759399e+01 -2.184348e+01 -1.977360e+01 -3.014653e+00 4.539629e+00 7.518774e+00 1.276209e+01 1.403816e+01 1.001106e+01 -4.940809e+00 -8.124304e+00 4.551833e+00 9.575686e+00 9.402515e+00 1.108910e+01 1.192478e+01 1.108696e+01 9.399071e+00 9.576472e+00 4.552771e+00 -8.125205e+00 -4.943463e+00 1.001094e+01 1.404602e+01 1.275786e+01 7.502232e+00 4.540520e+00 -3.007223e+00 -1.977464e+01 -2.184124e+01 -1.759368e+01 
-1.195740e+01 -1.386485e+01 -9.255146e+00 -6.219918e+00 -4.168283e+01 -1.817740e+01 2.917451e+01 2.027272e+01 1.788743e+01 1.003808e+01 -7.366802e+00 -6.908544e+00 3.421682e+00 5.847085e+00 6.266226e+00 7.426149e+00 7.890211e+00 7.425457e+00 6.264098e+00 5.847580e+00 3.421490e+00 -6.910272e+00 -7.371517e+00 1.003811e+01 1.788828e+01 2.026377e+01 2.914807e+01 -1.817091e+01 -4.164578e+01 -6.222033e+00 -9.260648e+00 -1.386386e+01 -1.195925e+01 -1.399815e+01 -1.722704e+01 -1.186461e+01 1.002819e+00 1.653949e+00 8.916911e+00 1.540898e+01 1.452933e+01 7.151264e+00 -8.956716e+00 -8.560793e+00 2.165353e+00 4.992232e+00 5.516907e+00 6.816951e+00 7.261285e+00 6.816089e+00 5.515090e+00 4.992253e+00 2.165804e+00 -8.563298e+00 -8.959394e+00 7.150811e+00 1.453198e+01 1.540296e+01 8.899964e+00 1.657438e+00 1.017689e+00 -1.186383e+01 -1.722638e+01 -1.399760e+01 
-5.421068e+00 -8.149727e+00 1.449368e+00 5.713743e+00 -3.920689e+01 -2.131809e+01 3.037763e+01 1.568091e+01 8.390043e+00 6.833896e+00 -6.040063e+00 -5.057484e+00 3.824800e-01 2.107269e+00 2.775892e+00 3.510390e+00 3.709279e+00 3.510132e+00 2.774874e+00 2.107297e+00 3.818689e-01 -5.058740e+00 -6.042321e+00 6.832725e+00 8.389476e+00 1.568071e+01 3.035845e+01 -2.132181e+01 -3.917672e+01 5.715699e+00 1.443574e+00 -8.148020e+00 -5.422772e+00 -7.916639e+00 -8.914410e+00 -5.209839e+00 1.254637e+00 9.922407e-01 5.329000e+00 8.858565e+00 9.989028e+00 5.095051e+00 -6.176469e+00 -5.938184e+00 -1.587694e-01 1.618995e+00 2.411339e+00 3.173561e+00 3.393258e+00 3.173203e+00 2.410437e+00 1.618724e+00 -1.591146e-01 -5.939851e+00 -6.177877e+00 5.094352e+00 9.991384e+00 8.858349e+00 5.318238e+00 9.904662e-01 1.264699e+00 -5.207792e+00 -8.914274e+00 -7.916324e+00 
2.007489e-01 3.184938e-01 6.528644e-01 1.018915e+00 -6.266899e-01 -1.293293e+00 2.724477e-01 -6.812945e-02 -4.402394e-01 -6.114694e-02 -1.012995e-01 -4.365611e-02 -4.165935e-02 -2.519365e-02 -2.275039e-02 -2.025841e-02 -1.844716e-02 -2.025963e-02 -2.275174e-02 -2.519763e-02 -4.166536e-02 -4.366843e-02 -1.013232e-01 -6.118724e-02 -4.403810e-01 -6.802720e-02 2.719700e-01 -1.293293e+00 -6.255156e-01 1.018943e+00 6.524838e-01 3.184538e-01 2.006461e-01 1.050101e-01 7.334622e-02 4.155518e-02 1.726589e-02 5.533661e-03 1.307615e-02 1.416370e-02 7.069442e-03 5.985051e-03 4.833607e-03 4.340149e-03 3.594403e-03 3.124604e-03 3.192792e-03 2.426608e-03 2.978704e-03 2.426561e-03 3.192986e-03 3.124587e-03 3.594742e-03 4.340416e-03 4.833868e-03 5.985215e-03 7.069898e-03 1.416708e-02 1.307640e-02 5.526512e-03 1.727401e-02 4.156634e-02 7.337682e-02 1.050257e-01 
5.295960e+00 7.937476e+00 -1.710005e+00 -6.550028e+00 3.810143e+01 2.211785e+01 -2.927651e+01 -1.559587e+01 -8.139101e+00 -6.663766e+00 6.161605e+00 5.139891e+00 -3.116104e-01 -2.062200e+00 -2.728777e+00 -3.478399e+00 -3.668222e+00 -3.478140e+00 -2.727761e+00 -2.062222e+00 -3.110110e-01 5.141161e+00 6.163812e+00 -6.662547e+00 -8.138703e+00 -1.559568e+01 -2.925708e+01 2.212171e+01 3.807150e+01 -6.551869e+00 -1.704345e+00 7.935594e+00 5.297598e+00 7.825554e+00 8.851422e+00 5.161605e+00 -1.280717e+00 -9.979055e-01 -5.345946e+00 -8.877009e+00 -9.999499e+00 -5.101582e+00 6.166375e+00 5.933537e+00 1.536344e-01 -1.622842e+00 -2.414830e+00 -3.177327e+00 -3.396373e+00 -3.176968e+00 -2.413928e+00 -1.622570e+00 1.539806e-01 5.935207e+00 6.167783e+00 -5.100878e+00 -1.000185e+01 -8.876784e+00 -5.335170e+00 -9.961120e-01 -1.290773e+00 5.159590e+00 8.851317e+00 7.825310e+00 