# vtk DataFile Version 2.0
Comment goes here
ASCII

DATASET STRUCTURED_POINTS
DIMENSIONS    64   64   1

ORIGIN    0.000   0.000   0.000
SPACING   0.031250.03125   1.000

POINT_DATA   4096
SCALARS uY double
LOOKUP_TABLE default

-2.585917e+00 -1.717228e+00 -2.776907e+00 -1.639963e+00 -2.901413e+00 -1.488668e+00 -2.937217e+00 -1.269822e+00 -2.869237e+00 -1.005612e+00 -2.694292e+00 -7.345222e-01 -2.423648e+00 -5.053026e-01 -2.083168e+00 -3.630755e-01 -1.709559e+00 -3.330027e-01 -1.342370e+00 -4.083556e-01 -1.013483e+00 -5.511011e-01 -7.406198e-01 -7.081361e-01 -5.286063e-01 -8.340363e-01 -3.744496e-01 -9.059113e-01 -2.724258e-01 -9.234194e-01 -2.162989e-01 -9.002856e-01 -1.990966e-01 -8.550529e-01 -2.131054e-01 -8.048599e-01 -2.508657e-01 -7.626600e-01 -3.064691e-01 -7.369084e-01 -3.764258e-01 -7.325033e-01 -4.598495e-01 -7.519992e-01 -5.580485e-01 -7.964809e-01 -6.737222e-01 -8.658586e-01 -8.099884e-01 -9.586621e-01 -9.694641e-01 -1.071626e+00 -1.153577e+00 -1.199393e+00 -1.362119e+00 -1.334445e+00 -1.592868e+00 -1.467144e+00 -1.841026e+00 -1.585804e+00 -2.098400e+00 -1.676883e+00 -2.352487e+00 -1.725576e+00 
1.437564e+00 2.118812e+00 1.358838e+00 2.157173e+00 1.230564e+00 2.149893e+00 1.066790e+00 2.098539e+00 8.896797e-01 2.008721e+00 7.281931e-01 1.888156e+00 6.149502e-01 1.744718e+00 5.791446e-01 1.584812e+00 6.351828e-01 1.412889e+00 7.734339e-01 1.234767e+00 9.600492e-01 1.062873e+00 1.146934e+00 9.157072e-01 1.286199e+00 8.092876e-01 1.344936e+00 7.490309e-01 1.316002e+00 7.287348e-01 1.216296e+00 7.357492e-01 1.075570e+00 7.571013e-01 9.245864e-01 7.831653e-01 7.877398e-01 8.087752e-01 6.806634e-01 8.329122e-01 6.112193e-01 8.579218e-01 5.819640e-01 8.886836e-01 5.925995e-01 9.316551e-01 6.413989e-01 9.934785e-01 7.251515e-01 1.079057e+00 8.380184e-01 1.189723e+00 9.706056e-01 1.322646e+00 1.110407e+00 1.471601e+00 1.243204e+00 1.628065e+00 1.354524e+00 1.782002e+00 1.430873e+00 1.922407e+00 1.461017e+00 2.038067e+00 
-2.360097e+00 -1.187283e+00 -2.653539e+00 -1.322637e+00 -2.912225e+00 -1.454046e+00 -3.104079e+00 -1.578680e+00 -3.202694e+00 -1.697976e+00 -3.194791e+00 -1.813808e+00 -3.079943e+00 -1.920680e+00 -2.864271e+00 -2.001596e+00 -2.556287e+00 -2.035063e+00 -2.169656e+00 -2.004240e+00 -1.727544e+00 -1.898091e+00 -1.262552e+00 -1.711198e+00 -8.129772e-01 -1.452092e+00 -4.166770e-01 -1.149098e+00 -1.041166e-01 -8.411899e-01 1.079868e-01 -5.642257e-01 2.197445e-01 -3.424863e-01 2.442073e-01 -1.871541e-01 2.002449e-01 -9.868057e-02 1.067644e-01 -7.015433e-02 -2.006115e-02 -9.019610e-02 -1.671567e-01 -1.450842e-01 -3.239509e-01 -2.205542e-01 -4.822387e-01 -3.039052e-01 -6.372474e-01 -3.864531e-01 -7.893399e-01 -4.652164e-01 -9.445197e-01 -5.424150e-01 -1.112483e+00 -6.230415e-01 -1.303330e+00 -7.122054e-01 -1.524510e+00 -8.134007e-01 -1.778546e+00 -9.277384e-01 -2.061238e+00 -1.053710e+00 
1.481632e+00 2.437272e+00 1.257636e+00 2.219670e+00 9.516914e-01 1.889832e+00 5.949094e-01 1.470463e+00 2.315468e-01 1.002516e+00 -8.501988e-02 5.414412e-01 -2.956402e-01 1.515569e-01 -3.435449e-01 -1.071581e-01 -1.964763e-01 -2.024715e-01 1.326805e-01 -1.431475e-01 5.841802e-01 3.556004e-02 1.069492e+00 2.948580e-01 1.491957e+00 5.957191e-01 1.772541e+00 8.967203e-01 1.881222e+00 1.159782e+00 1.838072e+00 1.359718e+00 1.690651e+00 1.488231e+00 1.490637e+00 1.550790e+00 1.280109e+00 1.561062e+00 1.087545e+00 1.536515e+00 9.299470e-01 1.496239e+00 8.174869e-01 1.460353e+00 7.578041e-01 1.449400e+00 7.576958e-01 1.481923e+00 8.208483e-01 1.569461e+00 9.426416e-01 1.711176e+00 1.106634e+00 1.893148e+00 1.286981e+00 2.092840e+00 1.454056e+00 2.283961e+00 1.579109e+00 2.439327e+00 1.637011e+00 2.532255e+00 1.608263e+00 2.538111e+00 
-2.139317e+00 -6.541210e-01 -2.564670e+00 -1.008372e+00 -2.989892e+00 -1.426239e+00 -3.364500e+00 -1.893954e+00 -3.643086e+00 -2.395734e+00 -3.802473e+00 -2.904465e+00 -3.837124e+00 -3.364408e+00 -3.737934e+00 -3.689317e+00 -3.482590e+00 -3.801915e+00 -3.054336e+00 -3.674428e+00 -2.467116e+00 -3.323615e+00 -1.771397e+00 -2.784147e+00 -1.044967e+00 -2.112778e+00 -3.744717e-01 -1.397423e+00 1.662904e-01 -7.292121e-01 5.345470e-01 -1.742323e-01 7.277158e-01 2.357061e-01 7.715130e-01 4.972958e-01 7.020919e-01 6.256481e-01 5.541711e-01 6.458157e-01 3.570063e-01 5.875768e-01 1.353075e-01 4.827788e-01 -8.857380e-02 3.632275e-01 -2.944320e-01 2.568173e-01 -4.678759e-01 1.812958e-01 -6.065087e-01 1.389756e-01 -7.229047e-01 1.176241e-01 -8.400238e-01 9.698200e-02 -9.833837e-01 5.534676e-02 -1.174958e+00 -2.680925e-02 -1.429764e+00 -1.655537e-01 -1.753465e+00 -3.726641e-01 
1.621185e+00 2.871046e+00 1.236844e+00 2.393381e+00 7.225273e-01 1.719093e+00 1.288743e-01 8.918974e-01 -4.734000e-01 -8.441801e-03 -1.002635e+00 -8.736056e-01 -1.365335e+00 -1.569978e+00 -1.456369e+00 -1.960571e+00 -1.206063e+00 -1.971598e+00 -6.286346e-01 -1.640050e+00 1.732780e-01 -1.071364e+00 1.051379e+00 -3.654326e-01 1.835980e+00 3.843695e-01 2.370488e+00 1.083209e+00 2.599091e+00 1.652574e+00 2.565998e+00 2.052095e+00 2.359767e+00 2.281753e+00 2.067492e+00 2.367476e+00 1.753745e+00 2.345754e+00 1.458124e+00 2.254387e+00 1.202189e+00 2.129607e+00 9.993080e-01 2.007274e+00 8.631977e-01 1.924407e+00 8.112520e-01 1.916423e+00 8.590206e-01 2.006820e+00 1.006396e+00 2.193285e+00 1.227380e+00 2.446426e+00 1.477282e+00 2.722635e+00 1.706599e+00 2.975073e+00 1.869759e+00 3.158079e+00 1.928133e+00 3.227801e+00 1.851446e+00 3.143302e+00 
-1.878373e+00 -4.685903e-02 -2.475302e+00 -6.300028e-01 -3.118018e+00 -1.349351e+00 -3.721603e+00 -2.177111e+00 -4.204051e+00 -3.089070e+00 -4.536435e+00 -4.046308e+00 -4.729565e+00 -4.945051e+00 -4.769039e+00 -5.590689e+00 -4.582929e+00 -5.809464e+00 -4.099503e+00 -5.567035e+00 -3.317781e+00 -4.934767e+00 -2.313585e+00 -3.985144e+00 -1.221449e+00 -2.815288e+00 -2.008534e-01 -1.599180e+00 6.114832e-01 -5.063224e-01 1.138281e+00 3.584511e-01 1.386920e+00 9.608948e-01 1.413800e+00 1.314830e+00 1.284110e+00 1.458943e+00 1.052289e+00 1.441482e+00 7.597207e-01 1.313256e+00 4.405902e-01 1.126374e+00 1.288807e-01 9.341375e-01 -1.394306e-01 7.860934e-01 -3.340078e-01 7.147328e-01 -4.466035e-01 7.210981e-01 -5.010215e-01 7.763490e-01 -5.415019e-01 8.380939e-01 -6.152058e-01 8.641654e-01 -7.620367e-01 8.175985e-01 -1.011824e+00 6.665196e-01 -1.383079e+00 3.843241e-01 
1.912248e+00 3.508179e+00 1.344720e+00 2.762162e+00 5.725084e-01 1.700674e+00 -3.285215e-01 3.875124e-01 -1.251197e+00 -1.051429e+00 -2.084441e+00 -2.452394e+00 -2.700686e+00 -3.591301e+00 -2.902671e+00 -4.188681e+00 -2.536950e+00 -4.081687e+00 -1.613312e+00 -3.375217e+00 -3.177392e-01 -2.316477e+00 1.118908e+00 -1.067532e+00 2.422994e+00 2.282299e-01 3.272574e+00 1.401462e+00 3.582057e+00 2.313545e+00 3.471901e+00 2.909844e+00 3.118043e+00 3.213803e+00 2.666251e+00 3.286635e+00 2.207604e+00 3.196221e+00 1.786400e+00 3.003107e+00 1.418789e+00 2.759246e+00 1.112524e+00 2.514611e+00 8.838135e-01 2.325395e+00 7.658896e-01 2.254106e+00 7.995632e-01 2.349930e+00 9.989565e-01 2.610243e+00 1.321091e+00 2.977480e+00 1.688853e+00 3.376228e+00 2.024560e+00 3.734852e+00 2.263162e+00 3.988666e+00 2.351380e+00 4.075626e+00 2.245026e+00 3.934082e+00 
-1.514887e+00 7.137076e-01 -2.339133e+00 -1.154330e-01 -3.284972e+00 -1.166156e+00 -4.200981e+00 -2.379911e+00 -4.917639e+00 -3.741207e+00 -5.412308e+00 -5.249126e+00 -5.778498e+00 -6.779206e+00 -6.029161e+00 -7.919013e+00 -5.982674e+00 -8.279616e+00 -5.444086e+00 -7.849894e+00 -4.394629e+00 -6.858573e+00 -2.949141e+00 -5.398580e+00 -1.326023e+00 -3.559983e+00 1.857016e-01 -1.679701e+00 1.346209e+00 -6.041725e-02 2.022555e+00 1.149159e+00 2.269765e+00 1.932538e+00 2.214855e+00 2.342274e+00 1.970852e+00 2.455429e+00 1.613830e+00 2.350367e+00 1.191329e+00 2.100193e+00 7.400661e-01 1.777357e+00 3.035781e-01 1.461585e+00 -5.855937e-02 1.237706e+00 -2.832713e-01 1.168308e+00 -3.460968e-01 1.252332e+00 -2.938266e-01 1.427631e+00 -2.099684e-01 1.615168e+00 -1.737888e-01 1.746833e+00 -2.459440e-01 1.768214e+00 -4.721380e-01 1.631582e+00 -8.881379e-01 1.292131e+00 
2.434300e+00 4.462579e+00 1.656870e+00 3.444208e+00 5.538173e-01 1.932721e+00 -7.627893e-01 9.754045e-03 -2.119801e+00 -2.128153e+00 -3.381597e+00 -4.285129e+00 -4.440291e+00 -6.141929e+00 -4.902514e+00 -7.109353e+00 -4.416132e+00 -6.788058e+00 -2.969253e+00 -5.467526e+00 -9.571141e-01 -3.757013e+00 1.302161e+00 -1.814263e+00 3.449263e+00 2.042008e-01 4.713237e+00 1.986318e+00 4.994498e+00 3.287096e+00 4.632310e+00 4.051847e+00 3.979801e+00 4.367991e+00 3.271706e+00 4.361169e+00 2.620329e+00 4.143312e+00 2.056149e+00 3.798381e+00 1.569438e+00 3.387266e+00 1.144909e+00 2.965846e+00 7.924123e-01 2.609339e+00 5.701946e-01 2.426840e+00 5.779097e-01 2.531374e+00 8.731408e-01 2.922723e+00 1.372404e+00 3.478393e+00 1.933457e+00 4.069996e+00 2.438183e+00 4.598240e+00 2.803407e+00 4.983871e+00 2.964186e+00 5.149014e+00 2.859707e+00 5.006067e+00 
-9.527439e-01 1.726544e+00 -2.079753e+00 6.199022e-01 -3.481061e+00 -8.247938e-01 -4.881178e+00 -2.443378e+00 -5.857963e+00 -4.255235e+00 -6.419600e+00 -6.432767e+00 -6.946855e+00 -8.998636e+00 -7.596402e+00 -1.102098e+01 -7.879688e+00 -1.154422e+01 -7.297561e+00 -1.070167e+01 -5.873299e+00 -9.243240e+00 -3.780674e+00 -7.171771e+00 -1.316937e+00 -4.338284e+00 9.379684e-01 -1.506255e+00 2.572936e+00 7.837994e-01 3.338187e+00 2.358799e+00 3.456390e+00 3.275404e+00 3.208116e+00 3.667311e+00 2.775043e+00 3.673311e+00 2.245754e+00 3.408752e+00 1.656172e+00 2.964499e+00 1.028128e+00 2.425218e+00 4.056936e-01 1.898801e+00 -1.152407e-01 1.532873e+00 -3.962841e-01 1.464085e+00 -3.627991e-01 1.688671e+00 -1.194065e-01 2.065429e+00 1.690971e-01 2.449104e+00 3.764131e-01 2.742041e+00 4.247100e-01 2.879405e+00 2.576937e-01 2.801865e+00 -1.819791e-01 2.441120e+00 
3.301651e+00 5.887718e+00 2.296164e+00 4.616435e+00 7.596138e-01 2.573997e+00 -1.149712e+00 -1.532995e-01 -3.091159e+00 -3.180969e+00 -4.885438e+00 -6.407198e+00 -6.758249e+00 -9.556600e+00 -7.824013e+00 -1.128725e+01 -7.239817e+00 -1.048778e+01 -4.892572e+00 -7.965131e+00 -1.850302e+00 -5.443030e+00 1.560495e+00 -2.635879e+00 5.321285e+00 4.416991e-01 7.138637e+00 3.064831e+00 7.077947e+00 4.787152e+00 6.105819e+00 5.625647e+00 4.905037e+00 5.829466e+00 3.817140e+00 5.634315e+00 2.937646e+00 5.208272e+00 2.239522e+00 4.653365e+00 1.650197e+00 4.021468e+00 1.099739e+00 3.350334e+00 5.684448e-01 2.719546e+00 1.465954e-01 2.314850e+00 7.500942e-02 2.430116e+00 5.512649e-01 3.074839e+00 1.367299e+00 3.945784e+00 2.235541e+00 4.827299e+00 2.988630e+00 5.602276e+00 3.542253e+00 6.195806e+00 3.833803e+00 6.525543e+00 3.785826e+00 6.473497e+00 
-3.258781e-02 3.133495e+00 -1.543226e+00 1.690609e+00 -3.676778e+00 -3.203881e-01 -5.983269e+00 -2.331596e+00 -7.225274e+00 -4.426220e+00 -7.460451e+00 -7.234710e+00 -7.993049e+00 -1.173820e+01 -9.565129e+00 -1.559162e+01 -1.065728e+01 -1.618707e+01 -9.974768e+00 -1.420631e+01 -8.021111e+00 -1.222657e+01 -5.060207e+00 -9.653597e+00 -1.088819e+00 -5.100342e+00 2.361284e+00 -8.166303e-01 4.683219e+00 2.318297e+00 5.299848e+00 4.217546e+00 5.010646e+00 5.142224e+00 4.391690e+00 5.381592e+00 3.683589e+00 5.167588e+00 2.946840e+00 4.654253e+00 2.167476e+00 3.931962e+00 1.316858e+00 3.067762e+00 4.105232e-01 2.179398e+00 -4.102238e-01 1.526572e+00 -8.265921e-01 1.457078e+00 -5.930226e-01 1.966733e+00 7.795025e-03 2.695502e+00 6.291799e-01 3.376754e+00 1.086851e+00 3.897309e+00 1.312182e+00 4.209544e+00 1.260968e+00 4.258265e+00 8.557111e-01 3.946471e+00 
4.674616e+00 7.990898e+00 3.468644e+00 6.556031e+00 1.374263e+00 3.896256e+00 -1.472949e+00 -1.993671e-02 -4.235091e+00 -4.029854e+00 -6.331532e+00 -8.600746e+00 -9.846044e+00 -1.433757e+01 -1.234783e+01 -1.789800e+01 -1.180163e+01 -1.590689e+01 -7.541726e+00 -1.051249e+01 -3.081532e+00 -7.417190e+00 1.389648e+00 -3.752085e+00 9.025648e+00 1.207055e+00 1.146620e+01 5.068869e+00 1.015228e+01 7.136422e+00 7.851691e+00 7.796269e+00 5.722056e+00 7.662728e+00 4.140301e+00 7.119561e+00 3.056163e+00 6.389055e+00 2.299105e+00 5.576049e+00 1.680002e+00 4.688196e+00 1.026285e+00 3.690521e+00 2.308326e-01 2.601261e+00 -6.235657e-01 1.682602e+00 -9.646632e-01 1.804856e+00 -9.547996e-02 3.007631e+00 1.318165e+00 4.407863e+00 2.653055e+00 5.691932e+00 3.733597e+00 6.784394e+00 4.534201e+00 7.664551e+00 5.029257e+00 8.274219e+00 5.130342e+00 8.464669e+00 
1.515104e+00 5.174921e+00 -3.770495e-01 3.320451e+00 -3.702605e+00 1.589140e-01 -8.116589e+00 -2.175652e+00 -9.645689e+00 -3.955834e+00 -8.177925e+00 -6.367470e+00 -7.970550e+00 -1.505175e+01 -1.216535e+01 -2.327839e+01 -1.524237e+01 -2.343911e+01 -1.385349e+01 -1.786623e+01 -1.111386e+01 -1.575876e+01 -7.688391e+00 -1.395407e+01 -2.743165e-01 -5.583915e+00 5.117645e+00 9.197574e-01 8.497942e+00 5.046909e+00 8.152186e+00 7.052568e+00 6.899196e+00 7.701237e+00 5.677367e+00 7.556932e+00 4.636306e+00 6.970981e+00 3.706041e+00 6.120624e+00 2.763076e+00 5.054814e+00 1.671420e+00 3.749054e+00 3.384014e-01 2.233635e+00 -1.100307e+00 9.262059e-01 -1.909490e+00 8.503960e-01 -1.196657e+00 2.017097e+00 1.090637e-01 3.375730e+00 1.251598e+00 4.472936e+00 2.032446e+00 5.269999e+00 2.480827e+00 5.809904e+00 2.621242e+00 6.078240e+00 2.377660e+00 5.955583e+00 
6.754459e+00 1.103405e+01 5.509020e+00 9.712892e+00 2.840491e+00 6.469167e+00 -1.730684e+00 1.848203e-01 -6.111617e+00 -4.291000e+00 -6.376584e+00 -9.667494e+00 -1.390094e+01 -2.122425e+01 -1.990896e+01 -2.968605e+01 -1.996170e+01 -2.476154e+01 -1.068301e+01 -1.099422e+01 -4.122874e+00 -9.592205e+00 -1.967453e+00 -6.517817e+00 1.750013e+01 3.297080e+00 1.969448e+01 8.901438e+00 1.445333e+01 1.075997e+01 9.484222e+00 1.067502e+01 5.964496e+00 9.863347e+00 3.923104e+00 8.766238e+00 2.813881e+00 7.635999e+00 2.198694e+00 6.561769e+00 1.726912e+00 5.454395e+00 1.078671e+00 4.117007e+00 -5.591860e-02 2.298990e+00 -1.901460e+00 -3.261676e-03 -3.186679e+00 1.085412e-01 -1.263087e+00 2.754008e+00 1.357359e+00 5.001342e+00 3.320020e+00 6.750557e+00 4.749222e+00 8.172400e+00 5.819675e+00 9.389606e+00 6.598569e+00 1.042064e+01 6.998550e+00 1.109568e+01 
4.119350e+00 8.318308e+00 2.267149e+00 6.229864e+00 -2.744348e+00 -2.581058e-01 -1.284996e+01 -2.691215e+00 -1.532102e+01 -3.110106e+00 -7.338368e+00 6.864026e-01 -3.568825e+00 -1.877251e+01 -1.666941e+01 -3.824291e+01 -2.399212e+01 -3.637209e+01 -1.903307e+01 -1.880372e+01 -1.481405e+01 -1.821510e+01 -1.558884e+01 -2.481776e+01 3.149297e+00 -4.408333e+00 1.077025e+01 4.598982e+00 1.574398e+01 9.939314e+00 1.188988e+01 1.131670e+01 8.801988e+00 1.107669e+01 6.816598e+00 1.018581e+01 5.506131e+00 9.053104e+00 4.503050e+00 7.820578e+00 3.525960e+00 6.439560e+00 2.282215e+00 4.676542e+00 3.865069e-01 2.074094e+00 -2.423922e+00 -9.200339e-01 -4.435556e+00 -1.020471e+00 -2.446739e+00 1.843880e+00 3.563008e-01 4.339953e+00 2.231531e+00 5.887755e+00 3.317179e+00 6.917957e+00 3.971478e+00 7.693752e+00 4.376441e+00 8.291993e+00 4.523827e+00 8.626816e+00 
9.714683e+00 1.524159e+01 8.746466e+00 1.472266e+01 6.383385e+00 1.211974e+01 -1.412326e+00 -1.620747e+00 -1.235146e+01 -3.220756e+00 1.917300e+00 -5.049257e+00 -2.069054e+01 -3.176417e+01 -3.402483e+01 -5.268263e+01 -3.573225e+01 -4.211184e+01 -1.312675e+01 -1.069636e+00 -1.613776e+00 -6.762931e+00 -1.990038e+01 -2.183715e+01 4.111665e+01 1.009229e+01 3.602868e+01 1.651445e+01 1.932270e+01 1.576942e+01 9.523793e+00 1.412009e+01 4.569707e+00 1.230723e+01 2.668015e+00 1.041457e+01 2.023736e+00 8.811783e+00 1.932202e+00 7.568733e+00 1.928764e+00 6.439529e+00 1.601551e+00 5.052689e+00 3.144810e-01 2.215217e+00 -3.969755e+00 -3.971873e+00 -8.016802e+00 -3.908830e+00 -3.341656e+00 2.701653e+00 2.016150e+00 6.164242e+00 4.513856e+00 8.144215e+00 6.107084e+00 9.750427e+00 7.385170e+00 1.127159e+01 8.524109e+00 1.287182e+01 9.456340e+00 1.439299e+01 
8.296276e+00 1.350182e+01 8.760335e+00 1.365264e+01 1.896539e+00 -4.920717e+00 -2.313538e+01 -6.624524e+00 -3.400204e+01 -7.066131e+00 1.395977e+00 3.061334e+01 1.458956e+01 -2.410986e+01 -2.976111e+01 -6.934107e+01 -4.128848e+01 -6.293945e+01 -2.306864e+01 -8.426866e+00 -1.863829e+01 2.202724e-01 -4.337244e+01 -7.031264e+01 2.121797e+01 4.586460e+00 2.240344e+01 1.005477e+01 2.827756e+01 1.984998e+01 1.561623e+01 1.752325e+01 9.880586e+00 1.513166e+01 7.342531e+00 1.305752e+01 6.102432e+00 1.125010e+01 5.307864e+00 9.693406e+00 4.581679e+00 8.262917e+00 3.608145e+00 6.480634e+00 9.165315e-01 1.212882e+00 -5.257966e+00 -4.620223e+00 -8.551371e+00 -4.800973e+00 -5.295311e+00 9.463022e-01 9.871603e-01 6.265672e+00 4.039485e+00 7.882115e+00 5.057956e+00 8.854081e+00 5.749843e+00 9.776045e+00 6.421383e+00 1.077128e+01 7.234434e+00 1.196100e+01 
1.376409e+01 2.037786e+01 1.172432e+01 2.072770e+01 1.491278e+01 3.018754e+01 5.768649e+00 -1.946375e+01 -4.719301e+01 1.020670e+01 6.012107e+01 1.214383e+01 -4.971576e+01 -5.018645e+01 -6.153826e+01 -9.761627e+01 -6.676026e+01 -8.462891e+01 -1.124408e+01 3.472564e+01 9.371983e+00 2.674695e+01 -5.404400e+01 -7.790019e+01 9.011449e+01 2.961435e+01 6.271022e+01 3.127171e+01 2.199912e+01 1.969310e+01 2.293317e+00 1.786733e+01 -3.026713e-01 1.485207e+01 -2.606969e-02 1.173649e+01 6.360337e-01 9.633298e+00 1.586492e+00 8.462258e+00 2.465000e+00 7.701241e+00 2.951889e+00 6.732768e+00 1.423459e+00 1.779219e+00 -7.541984e+00 -1.002996e+01 -1.443606e+01 -1.021927e+01 -7.156234e+00 2.309396e+00 3.189873e+00 8.180044e+00 6.470511e+00 9.940212e+00 7.779604e+00 1.138067e+01 9.093368e+00 1.302563e+01 1.065844e+01 1.529227e+01 1.253798e+01 1.814365e+01 
1.248899e+01 2.036138e+01 2.433262e+01 3.880310e+01 1.659493e+01 -1.974055e+01 -3.553529e+01 -3.622643e+01 -1.218923e+02 -2.571596e+01 8.092452e+01 1.340946e+02 5.632399e+01 -4.419049e+01 -8.601071e+01 -1.347847e+02 -6.742790e+01 -1.161563e+02 -7.725163e+00 -7.570139e+00 -4.141811e+01 4.448477e+01 -3.749823e+01 -1.006663e+02 4.091380e+01 1.068306e+01 2.142271e+01 1.399976e+01 3.400667e+01 3.933685e+01 1.948333e+01 2.434119e+01 7.872578e+00 1.874171e+01 6.397974e+00 1.555336e+01 6.214186e+00 1.319352e+01 6.071133e+00 1.145868e+01 5.913567e+00 1.041482e+01 5.836467e+00 8.388578e+00 -2.396119e+00 -7.281497e+00 -1.121930e+01 -2.370164e+00 -2.442715e+00 -2.631967e+00 -1.078623e+01 -7.611358e+00 -2.929961e+00 8.347727e+00 6.921169e+00 1.049391e+01 7.202845e+00 1.089468e+01 7.633828e+00 1.180745e+01 8.378792e+00 1.302474e+01 9.660796e+00 1.490762e+01 
2.321332e+01 3.169944e+01 3.277529e+01 3.766079e+01 2.044164e+01 7.516800e+01 2.796017e+01 -1.032716e+02 -2.146183e+02 4.205878e+01 3.286712e+01 -9.191281e+01 8.835248e+01 5.017165e+01 -1.063350e+02 -1.721411e+02 -4.858340e+01 -1.193549e+02 -3.150068e+01 2.990452e+01 1.140472e+01 5.233874e+01 -2.379956e+01 1.560620e+01 1.630677e+02 -6.669364e+00 5.247363e+01 1.447756e+01 -9.227590e-01 3.994118e+01 -1.414436e+01 2.545798e+01 -6.357377e+00 1.720036e+01 -3.216543e+00 1.204973e+01 -9.263489e-01 9.645263e+00 1.459466e+00 9.060524e+00 3.473338e+00 8.455981e+00 2.355190e+00 -1.569597e-01 -1.129493e+01 -5.101813e+00 -2.929062e+00 -1.973399e+00 -6.270001e+00 -2.304571e+00 -2.696492e+00 -4.264571e+00 -9.799956e+00 1.535905e+00 6.086674e+00 1.122088e+01 9.429408e+00 1.279096e+01 1.062388e+01 1.415844e+01 1.263083e+01 1.704801e+01 1.639418e+01 2.218731e+01 
9.379883e+00 1.202612e+01 8.389361e+00 4.044282e+01 5.917708e+01 2.680207e+01 1.320354e+01 3.452386e+00 -3.182587e+02 -7.070609e+01 -1.681052e+02 -2.973091e+02 4.349443e+02 3.480383e+02 -1.269596e+02 -1.584914e+02 7.919497e-01 -4.165733e+01 3.012033e+01 9.481230e+01 -1.772393e+02 -1.773386e+02 -3.159719e+01 -1.148248e+02 1.154218e+02 4.295146e+01 8.594780e+00 9.616728e+01 8.078982e+01 1.068482e+01 -1.004652e+01 2.181503e+01 -8.815531e+00 1.960221e+01 3.187592e+00 1.660716e+01 5.988458e+00 1.446925e+01 6.944039e+00 1.273771e+01 7.060767e+00 1.087340e+01 1.872672e+00 2.034337e+00 8.659857e-01 7.493521e+00 -5.446887e+00 -1.403355e+01 -1.924002e+01 -1.455435e+01 -6.554350e+00 6.946579e+00 5.314771e-01 2.207959e+00 3.355114e+00 1.153825e+01 9.167447e+00 1.272178e+01 9.457408e+00 1.350998e+01 9.778552e+00 1.432070e+01 1.055376e+01 1.504554e+01 
2.578269e+01 3.467463e+01 6.383760e+01 8.033305e+01 6.781834e+01 1.529147e+02 1.084932e+01 -1.014271e+02 -1.451698e+02 -9.663113e+01 -2.447567e+02 -2.017549e+02 3.806627e+02 1.169523e+02 -2.021426e+02 -6.186874e+01 -1.594814e+01 -1.687839e+01 9.480951e+01 7.707564e+01 -2.117329e+02 -3.436554e+02 -8.800146e+01 1.834153e+02 5.081656e+02 -4.110419e+01 -1.356800e+02 1.997011e+01 -6.973201e+01 1.100838e+02 -9.692752e+00 2.205671e+01 -1.340321e+01 1.661754e+01 -7.901505e+00 1.021116e+01 -2.000600e+00 8.544435e+00 2.256883e+00 9.831984e+00 5.702568e+00 7.897571e+00 2.412273e+00 4.883052e+00 -3.073347e+00 -8.261136e+00 -1.585583e+01 -9.421238e+00 -6.379413e+00 -8.948644e+00 -1.503285e+01 -8.399801e+00 -3.485499e+00 6.616882e+00 5.597979e+00 1.084479e+01 1.115674e+01 1.435963e+01 1.167775e+01 1.426874e+01 1.343076e+01 1.694963e+01 1.744211e+01 2.253611e+01 
1.897803e+01 3.047311e+01 3.033105e+01 4.260198e+01 9.755870e+01 -1.392881e+02 -5.333143e+01 2.109327e+02 1.465300e+01 -1.643008e+02 -3.668682e+02 -6.628355e+01 1.876479e+02 1.045708e+02 8.428573e+01 -8.292226e+01 -1.385262e+01 -5.049535e+01 6.497481e+01 1.849847e+02 -3.437820e+01 -2.955274e+02 -1.560439e+02 2.905535e+02 1.601768e+02 -3.414447e+02 -1.498566e+02 4.497442e+01 5.062706e+01 1.747410e+01 -2.656751e+01 4.843093e+01 5.768624e+00 2.159727e+01 7.160797e+00 1.653393e+01 7.277322e+00 1.558154e+01 9.523622e+00 1.626176e+01 7.414424e+00 9.068799e+00 7.387322e+00 4.049502e+00 -1.510382e+01 -1.580463e+01 -1.156259e+01 2.031579e+00 4.701541e+00 2.236571e+00 -1.104082e+01 -1.609089e+01 -1.553778e+01 3.373540e+00 8.353464e+00 1.114541e+01 9.746653e+00 1.667581e+01 1.240565e+01 1.540522e+01 1.087532e+01 1.495838e+01 1.160864e+01 1.662788e+01 
3.413563e+01 1.063952e+01 8.243275e+01 5.464761e+01 2.203934e+01 1.223681e+01 -6.259408e+01 -1.467575e+02 -2.390104e+02 1.317297e+02 1.038665e+02 -2.849072e+02 -2.489200e+01 1.888790e+02 6.525755e+01 -2.746526e+01 -3.428832e+01 -1.482450e+01 -6.174689e+01 1.113029e+02 2.794611e+02 -3.559393e+01 -2.311323e+02 1.734771e+02 1.202781e+02 -1.018987e+02 -1.659683e+01 -7.610926e+01 2.837856e+01 -3.523729e+01 -3.670248e+01 1.687978e+00 -1.422481e+01 1.240454e+01 -6.682358e+00 5.534267e+00 7.521045e-01 8.348373e+00 9.240747e+00 1.167035e+01 5.443330e+00 8.512748e+00 7.703444e+00 -3.077336e+00 -2.280577e+01 -2.015937e+01 -1.135815e+01 1.063255e+00 4.289190e+00 1.320996e+00 -1.071875e+01 -1.929186e+01 -2.228467e+01 -2.380655e+00 8.998887e+00 1.270160e+01 7.503570e+00 1.553632e+01 1.600594e+01 1.530003e+01 1.327386e+01 1.418358e+01 1.759155e+01 1.921318e+01 
-1.463171e+01 3.586146e+01 7.541184e-01 -2.212374e+01 6.235337e+01 -8.429224e+01 -1.492161e+01 1.954649e+02 -4.817204e+01 -2.031282e+02 1.231221e+02 1.175004e+01 4.997394e+01 -7.316338e+01 -1.582361e+02 3.791369e+01 -2.082063e+01 -2.118883e+01 -7.559903e+01 1.396325e+01 3.729861e+01 3.113574e+01 -6.496096e+01 -3.709231e+02 -1.804494e+02 2.363566e+02 2.532001e+02 5.021070e+01 -5.044981e+01 -4.642015e+01 3.222977e+01 5.607672e+01 -8.127052e-01 1.321503e+01 6.321501e-01 1.423428e+01 7.942704e+00 1.787437e+01 1.348232e+01 1.470019e+01 5.002676e+00 8.481000e+00 3.280103e+00 -2.789238e+00 -1.641645e+01 -1.210365e+01 -8.337326e+00 -6.131572e-02 8.333406e-01 1.094689e-01 -7.771018e+00 -1.169590e+01 -1.543459e+01 -2.081605e+00 4.859102e+00 1.099050e+01 6.157992e+00 1.594396e+01 1.639203e+01 1.946522e+01 1.186650e+01 1.610796e+01 4.945295e+00 1.850191e+01 
5.492383e+01 -1.899033e+01 7.938002e+01 1.418059e+02 -1.058073e+02 -3.418486e+01 1.109512e+02 -1.668265e+02 -1.126595e+02 1.294430e+02 2.475866e+02 -1.482773e+02 -3.163947e+02 6.796815e+01 6.113632e+01 -3.443083e+01 -4.848631e+01 -1.424155e+02 -1.893748e+02 -2.743203e+02 1.545712e+02 -2.928465e+02 -2.053224e+02 6.585122e+02 2.344985e+02 -6.713594e+01 5.629926e+00 1.184343e+02 1.999323e+01 3.993890e+01 1.659849e+01 4.504073e+01 6.429298e+00 -1.733978e+01 3.880639e+00 1.182111e+00 8.842753e+00 1.067796e+01 1.379228e+01 8.808156e+00 3.425616e+00 5.410792e+00 8.598464e+00 -1.172860e+00 -1.438813e+01 -1.596717e+01 -1.294052e+01 -7.147537e+00 -6.455497e+00 -7.000826e+00 -1.340050e+01 -1.521208e+01 -1.474529e+01 8.110632e-01 9.615125e+00 8.883915e+00 5.783892e-01 1.226482e+01 1.370651e+01 1.765529e+01 1.100317e+01 1.382151e+01 6.447550e+00 5.296700e+00 
4.303990e+00 -9.199714e+01 7.956160e+01 2.411785e+02 -1.384177e+02 -2.772005e+02 8.405709e+01 1.184688e+01 -1.431642e+02 2.312469e+02 3.706170e+02 -1.051374e+02 -1.410959e+02 1.132226e+01 -8.068200e+01 -1.072851e+02 -6.935245e+01 -2.900065e+01 -8.857725e+01 -2.255304e+02 3.179333e+01 4.409427e+02 -2.172902e+01 -4.668893e+01 1.616087e+02 -2.890346e+02 -7.836617e+01 1.415733e+02 -1.225065e+01 -2.473367e+01 -2.228853e+01 1.065326e+01 -2.070959e-01 -9.376080e+00 -1.556066e+00 1.249690e+01 1.420900e+01 1.963821e+01 1.492364e+01 1.046706e+01 -4.137071e+00 2.783705e+00 1.195377e+01 3.268438e+00 -1.244823e+01 -1.112823e+01 -1.088129e+01 -5.786559e+00 -6.518091e+00 -5.412908e+00 -1.042479e+01 -1.014653e+01 -1.196375e+01 4.967995e+00 1.572147e+01 7.297691e+00 -3.582649e+00 1.252042e+01 1.596885e+01 2.337417e+01 1.560723e+01 2.123830e+01 -5.369890e+00 2.766418e-02 
-4.315823e+01 -1.518452e+02 6.930514e+01 2.231318e+02 -9.852105e+01 1.511999e+01 4.218730e+02 -1.292942e+02 -4.639985e+02 6.951987e+00 3.626709e+02 7.240455e+01 1.370958e+01 5.123234e+01 -8.950880e+01 -6.937960e+01 -5.051452e+01 -1.701751e+01 1.483724e+02 2.508602e+02 1.122356e+02 -6.219525e+01 -4.990993e+02 -2.262700e+02 -2.766855e+01 1.727143e+02 1.099706e+02 -1.014371e+02 9.515658e+01 8.187743e+01 -3.942960e+01 -3.333317e+01 1.429234e+01 -2.722342e+01 7.586389e+00 -2.935048e-01 1.626718e+01 1.238751e+01 1.806293e+01 4.362125e+00 -3.856498e-02 8.012914e+00 1.395493e+01 -1.658359e+00 -1.096492e+01 -1.269244e+01 -1.244535e+01 -9.883034e+00 -1.005954e+01 -9.797663e+00 -1.351334e+01 -1.214887e+01 -1.257202e+01 2.911930e-01 1.310725e+01 1.201660e+01 -5.924612e+00 6.818761e+00 1.013058e+01 1.655657e+01 1.119508e+00 3.353710e+00 -1.878374e+01 -3.093566e+01 
3.293465e+01 3.408647e+01 -5.749609e+01 -1.026263e+01 -2.443861e+02 -3.743371e+01 5.568987e+01 -2.032357e+02 -1.206905e+02 9.212237e+00 5.414437e+02 1.600755e+02 -1.216892e+02 -2.236319e+00 -6.533416e+01 -2.893285e+01 -3.286623e+01 3.594265e+00 -2.166933e+01 -8.838809e+01 -3.762372e+02 1.803905e+02 1.457851e+02 2.332671e+01 1.413862e+02 -1.600449e+02 2.491794e+02 5.999833e+01 -1.635789e+02 4.374453e+00 -3.805543e+01 -1.312922e+01 -8.419831e+00 -1.441874e+01 -3.562031e+00 -1.136389e+00 1.165955e+01 1.815594e+01 2.201897e+01 8.974846e+00 -5.416221e+00 3.456457e+00 1.103151e+01 3.112763e+00 -5.743953e+00 -6.707546e+00 -8.350799e+00 -5.605439e+00 -6.278526e+00 -5.139134e+00 -7.783213e+00 -5.303944e+00 -4.723199e+00 5.714508e+00 1.454013e+01 8.781468e+00 -4.834374e+00 1.091666e+01 2.099838e+01 2.144028e+01 1.299110e+01 1.213748e+00 -5.230419e+00 -6.464764e+00 
-5.230480e+01 2.885228e+01 7.791362e+01 1.743987e+01 -3.330770e+01 2.532092e+02 -5.677525e+01 -3.696657e+02 1.386094e+02 7.604315e+01 2.471749e+02 6.103556e+01 -2.073687e+02 -1.520580e+01 7.440055e+01 4.217607e+01 1.342823e+00 4.035213e+01 -2.119313e+01 1.369652e+02 2.228821e+01 -1.411159e+02 1.484483e+02 2.229470e+02 -3.207291e+02 -1.015507e+02 1.275807e+02 -8.056342e+01 -9.132850e+01 -2.813894e+01 1.190832e+01 -3.378884e+01 2.325402e+01 -2.411239e+01 -6.651515e+00 -1.086164e+01 1.308805e+01 9.638315e+00 1.780093e+01 -4.677918e-01 9.814541e-02 2.184029e+00 7.005948e+00 -6.323645e-01 -2.932897e+00 -5.537508e+00 -5.595768e+00 -5.626375e+00 -5.528666e+00 -5.584184e+00 -6.818548e+00 -5.246203e+00 -5.265675e+00 3.739254e-01 3.090242e+00 4.482513e+00 -6.634160e+00 -6.682688e-01 1.376269e+00 1.172229e+01 -9.658237e+00 -7.442629e+00 -5.167352e+01 -2.852570e+01 
2.074202e+01 9.094797e+01 -7.091141e+01 1.450095e+02 6.952459e+01 -2.191863e+02 -2.496141e+02 -2.907040e+01 7.679218e+01 -2.822002e+02 1.906591e+02 2.027100e+02 -3.637763e+01 -1.420871e+01 1.962196e+01 -1.041422e+00 3.388118e+01 6.029523e+00 7.799489e+01 -2.036557e+02 -3.440550e+01 2.555893e+02 -2.300133e+02 2.202838e+02 2.843317e+02 -1.211361e+02 -1.408537e+02 -1.535733e+02 -9.194062e+01 3.598744e+01 -2.594134e+01 -7.681990e+01 2.952870e+01 2.403226e+01 7.964395e+00 5.009036e+00 4.861421e+00 4.977378e+00 5.646073e+00 1.929010e+00 1.069334e+00 6.505412e-01 1.466178e+00 6.541647e-01 4.021160e-01 8.322885e-01 8.162571e-01 1.237449e+00 1.055777e+00 1.637079e+00 1.232312e+00 2.054919e+00 1.339585e+00 3.063991e+00 3.644832e+00 5.944242e+00 1.943511e+00 3.941567e+00 2.280221e+00 7.225353e+00 6.984142e-01 -7.857506e-01 -1.263433e-01 5.031672e+01 
-9.003181e+01 -1.977182e+01 -4.547965e+01 2.850384e+02 2.407588e+02 -2.515505e+02 -2.718075e+02 -2.915888e+02 -1.643164e+02 1.395502e+02 5.387364e+02 4.316020e+02 -9.498435e+01 -1.500535e+02 3.715800e+01 -2.264166e+01 4.494630e+01 -3.325485e+01 4.324638e+01 -1.184878e+02 5.474833e+01 5.943480e+01 -2.198312e+02 -2.750941e+02 -2.256460e+02 2.812072e+02 9.078129e+01 7.735277e+01 9.208305e+01 6.891529e+01 -2.829707e+01 -1.053952e+02 4.562938e+01 1.342267e+01 2.086905e+01 -3.554030e+00 1.201051e+00 -1.248542e+01 -3.052431e-01 1.881714e+00 4.246942e+00 -8.561917e+00 -4.683664e+00 -1.521959e+00 4.096322e+00 3.392237e+00 5.373526e+00 3.677458e+00 4.319705e+00 3.736578e+00 4.215334e+00 3.175622e+00 9.934385e-01 -2.558637e+00 -1.006707e+01 -7.365676e+00 -3.402585e+00 -2.227001e-01 -1.512205e+01 -9.950945e+00 -1.471314e+01 1.627082e+01 -1.310121e+01 -3.191127e+01 