# vtk DataFile Version 2.0
Comment goes here
ASCII

DATASET STRUCTURED_POINTS
FIELD FieldData 1
TIME 1 1 double
0.42000000
DIMENSIONS    64   64   1

ORIGIN    0.000   0.000   0.000
SPACING   0.015625 0.015625   1.000

POINT_DATA   4096
SCALARS Concentration double
LOOKUP_TABLE default

9.999360e-01 9.999303e-01 9.999126e-01 9.998815e-01 9.998344e-01 9.997677e-01 9.996770e-01 9.995570e-01 9.994017e-01 9.992044e-01 9.989575e-01 9.986531e-01 9.982817e-01 9.978330e-01 9.972940e-01 9.966484e-01 9.958737e-01 9.949387e-01 9.937996e-01 9.924000e-01 9.906680e-01 9.885152e-01 9.858388e-01 9.825290e-01 9.784875e-01 9.736586e-01 9.680762e-01 9.619161e-01 9.555371e-01 9.494843e-01 9.444283e-01 9.410429e-01 9.398432e-01 9.410382e-01 9.444197e-01 9.494727e-01 9.555244e-01 9.619035e-01 9.680650e-01 9.736491e-01 9.784798e-01 9.825226e-01 9.858333e-01 9.885101e-01 9.906630e-01 9.923950e-01 9.937945e-01 9.949337e-01 9.958689e-01 9.966438e-01 9.972898e-01 9.978292e-01 9.982784e-01 9.986502e-01 9.989552e-01 9.992024e-01 9.994002e-01 9.995558e-01 9.996761e-01 9.997670e-01 9.998339e-01 9.998811e-01 9.999124e-01 9.999302e-01 
9.999244e-01 9.999178e-01 9.998972e-01 9.998610e-01 9.998063e-01 9.997291e-01 9.996245e-01 9.994865e-01 9.993087e-01 9.990837e-01 9.988038e-01 9.984604e-01 9.980441e-01 9.975445e-01 9.969487e-01 9.962404e-01 9.953972e-01 9.943861e-01 9.931609e-01 9.916631e-01 9.898182e-01 9.875330e-01 9.846988e-01 9.811966e-01 9.769172e-01 9.717918e-01 9.658435e-01 9.592459e-01 9.523733e-01 9.458122e-01 9.403008e-01 9.365946e-01 9.352782e-01 9.365892e-01 9.402908e-01 9.457988e-01 9.523586e-01 9.592314e-01 9.658307e-01 9.717809e-01 9.769084e-01 9.811894e-01 9.846924e-01 9.875271e-01 9.898122e-01 9.916571e-01 9.931548e-01 9.943800e-01 9.953913e-01 9.962349e-01 9.969435e-01 9.975399e-01 9.980401e-01 9.984569e-01 9.988009e-01 9.990814e-01 9.993068e-01 9.994850e-01 9.996233e-01 9.997283e-01 9.998057e-01 9.998606e-01 9.998969e-01 9.999176e-01 
9.998874e-01 9.998777e-01 9.998479e-01 9.997956e-01 9.997169e-01 9.996065e-01 9.994577e-01 9.992630e-01 9.990141e-01 9.987022e-01 9.983179e-01 9.978519e-01 9.972943e-01 9.966346e-01 9.958604e-01 9.949560e-01 9.938986e-01 9.926521e-01 9.911641e-01 9.893706e-01 9.871886e-01 9.845128e-01 9.812161e-01 9.771537e-01 9.721818e-01 9.661922e-01 9.591726e-01 9.512859e-01 9.429477e-01 9.348657e-01 9.279826e-01 9.233053e-01 9.216347e-01 9.232974e-01 9.279681e-01 9.348463e-01 9.429267e-01 9.512654e-01 9.591546e-01 9.661771e-01 9.721696e-01 9.771435e-01 9.812071e-01 9.845041e-01 9.871797e-01 9.893614e-01 9.911546e-01 9.926427e-01 9.938893e-01 9.949472e-01 9.958523e-01 9.966274e-01 9.972880e-01 9.978465e-01 9.983134e-01 9.986984e-01 9.990112e-01 9.992607e-01 9.994559e-01 9.996052e-01 9.997160e-01 9.997950e-01 9.998475e-01 9.998776e-01 
9.998173e-01 9.998019e-01 9.997548e-01 9.996725e-01 9.995492e-01 9.993770e-01 9.991465e-01 9.988470e-01 9.984670e-01 9.979949e-01 9.974191e-01 9.967287e-01 9.959129e-01 9.949615e-01 9.938637e-01 9.926055e-01 9.911653e-01 9.895032e-01 9.875589e-01 9.852610e-01 9.825156e-01 9.791988e-01 9.751554e-01 9.701982e-01 9.641259e-01 9.567612e-01 9.480258e-01 9.380541e-01 9.273171e-01 9.167165e-01 9.075376e-01 9.012217e-01 8.989503e-01 9.012093e-01 9.075150e-01 9.166865e-01 9.272851e-01 9.380230e-01 9.479990e-01 9.567390e-01 9.641082e-01 9.701831e-01 9.751416e-01 9.791849e-01 9.825010e-01 9.852456e-01 9.875429e-01 9.894871e-01 9.911494e-01 9.925905e-01 9.938499e-01 9.949491e-01 9.959020e-01 9.967194e-01 9.974114e-01 9.979886e-01 9.984619e-01 9.988430e-01 9.991435e-01 9.993748e-01 9.995476e-01 9.996714e-01 9.997542e-01 9.998016e-01 
9.997004e-01 9.996760e-01 9.996007e-01 9.994696e-01 9.992738e-01 9.990017e-01 9.986391e-01 9.981706e-01 9.975799e-01 9.968511e-01 9.959690e-01 9.949204e-01 9.936938e-01 9.922803e-01 9.906722e-01 9.888602e-01 9.868275e-01 9.845332e-01 9.819090e-01 9.788782e-01 9.753366e-01 9.711391e-01 9.660956e-01 9.599623e-01 9.524579e-01 9.433045e-01 9.323210e-01 9.195847e-01 9.056199e-01 8.915794e-01 8.792212e-01 8.706115e-01 8.674934e-01 8.705921e-01 8.791861e-01 8.915332e-01 9.055711e-01 9.195378e-01 9.322813e-01 9.432719e-01 9.524321e-01 9.599400e-01 9.660744e-01 9.711169e-01 9.753126e-01 9.788524e-01 9.818819e-01 9.845057e-01 9.868003e-01 9.888344e-01 9.906484e-01 9.922591e-01 9.936752e-01 9.949045e-01 9.959557e-01 9.968402e-01 9.975712e-01 9.981638e-01 9.986339e-01 9.989978e-01 9.992711e-01 9.994678e-01 9.995996e-01 9.996754e-01 
9.995174e-01 9.994789e-01 9.993607e-01 9.991551e-01 9.988488e-01 9.984246e-01 9.978617e-01 9.971375e-01 9.962287e-01 9.951131e-01 9.937705e-01 9.921845e-01 9.903429e-01 9.882396e-01 9.858734e-01 9.832453e-01 9.803504e-01 9.771540e-01 9.735846e-01 9.695668e-01 9.649922e-01 9.596965e-01 9.534522e-01 9.459478e-01 9.368011e-01 9.256019e-01 9.120240e-01 8.960451e-01 8.782184e-01 8.599767e-01 8.436604e-01 8.321489e-01 8.279480e-01 8.321197e-01 8.436077e-01 8.599077e-01 8.781461e-01 8.959767e-01 9.119670e-01 9.255558e-01 9.367649e-01 9.459157e-01 9.534204e-01 9.596615e-01 9.649532e-01 9.695241e-01 9.735394e-01 9.771081e-01 9.803049e-01 9.832022e-01 9.858337e-01 9.882041e-01 9.903118e-01 9.921580e-01 9.937484e-01 9.950951e-01 9.962142e-01 9.971262e-01 9.978531e-01 9.984182e-01 9.988442e-01 9.991519e-01 9.993588e-01 9.994780e-01 
9.992420e-01 9.991829e-01 9.990017e-01 9.986870e-01 9.982194e-01 9.975735e-01 9.967189e-01 9.956231e-01 9.942528e-01 9.925769e-01 9.905675e-01 9.882041e-01 9.854737e-01 9.823754e-01 9.789196e-01 9.751257e-01 9.710141e-01 9.665713e-01 9.617329e-01 9.564376e-01 9.505857e-01 9.440002e-01 9.364189e-01 9.274552e-01 9.166099e-01 9.033136e-01 8.870547e-01 8.676647e-01 8.456790e-01 8.228035e-01 8.020182e-01 7.871654e-01 7.816988e-01 7.871224e-01 8.019411e-01 8.227035e-01 8.455755e-01 8.675682e-01 8.869759e-01 9.032509e-01 9.165607e-01 9.274099e-01 9.363718e-01 9.439460e-01 9.505236e-01 9.563688e-01 9.616595e-01 9.664965e-01 9.709400e-01 9.750555e-01 9.788547e-01 9.823175e-01 9.854231e-01 9.881610e-01 9.905316e-01 9.925477e-01 9.942294e-01 9.956049e-01 9.967050e-01 9.975631e-01 9.982120e-01 9.986820e-01 9.989986e-01 9.991815e-01 
9.988413e-01 9.987532e-01 9.984830e-01 9.980142e-01 9.973189e-01 9.963606e-01 9.950957e-01 9.934779e-01 9.914595e-01 9.889969e-01 9.860514e-01 9.825962e-01 9.786173e-01 9.741220e-01 9.691393e-01 9.637208e-01 9.579305e-01 9.518022e-01 9.453003e-01 9.383955e-01 9.310166e-01 9.229846e-01 9.140097e-01 9.036250e-01 8.912031e-01 8.759954e-01 8.572686e-01 8.346627e-01 8.086291e-01 7.810956e-01 7.556755e-01 7.372600e-01 7.304138e-01 7.371991e-01 7.555668e-01 7.809560e-01 8.084863e-01 8.345316e-01 8.571637e-01 8.759129e-01 8.911385e-01 9.035625e-01 9.139409e-01 9.229023e-01 9.309203e-01 9.382879e-01 9.451849e-01 9.516842e-01 9.578135e-01 9.636100e-01 9.690370e-01 9.740308e-01 9.785376e-01 9.825285e-01 9.859950e-01 9.889511e-01 9.914229e-01 9.934493e-01 9.950739e-01 9.963444e-01 9.973073e-01 9.980063e-01 9.984781e-01 9.987509e-01 
9.982763e-01 9.981484e-01 9.977563e-01 9.970768e-01 9.960706e-01 9.946861e-01 9.928618e-01 9.905325e-01 9.876309e-01 9.840954e-01 9.798717e-01 9.749238e-01 9.692355e-01 9.628269e-01 9.557547e-01 9.481203e-01 9.400587e-01 9.316876e-01 9.230413e-01 9.141361e-01 9.049575e-01 8.953357e-01 8.849625e-01 8.732876e-01 8.595508e-01 8.428188e-01 8.221203e-01 7.968782e-01 7.673954e-01 7.357397e-01 7.060604e-01 6.842618e-01 6.760683e-01 6.841778e-01 7.059115e-01 7.355506e-01 7.672040e-01 7.967054e-01 8.219847e-01 8.427132e-01 8.594678e-01 8.732027e-01 8.848642e-01 8.952139e-01 9.048127e-01 9.139731e-01 9.228654e-01 9.315072e-01 9.398795e-01 9.479504e-01 9.555976e-01 9.626868e-01 9.691132e-01 9.748201e-01 9.797854e-01 9.840254e-01 9.875751e-01 9.904891e-01 9.928288e-01 9.946616e-01 9.960531e-01 9.970649e-01 9.977490e-01 9.981450e-01 
9.975022e-01 9.973216e-01 9.967680e-01 9.958094e-01 9.943917e-01 9.924433e-01 9.898794e-01 9.866091e-01 9.825384e-01 9.775814e-01 9.716610e-01 9.647285e-01 9.567642e-01 9.478073e-01 9.379548e-01 9.273827e-01 9.163289e-01 9.050396e-01 8.936857e-01 8.823367e-01 8.710660e-01 8.597199e-01 8.479831e-01 8.352115e-01 8.205096e-01 8.027640e-01 7.807647e-01 7.537259e-01 7.217455e-01 6.869366e-01 6.538223e-01 6.291626e-01 6.197844e-01 6.290502e-01 6.536247e-01 6.866883e-01 7.214969e-01 7.535051e-01 7.805944e-01 8.026314e-01 8.204050e-01 8.350982e-01 8.478460e-01 8.595458e-01 8.708564e-01 8.820996e-01 8.934284e-01 9.047747e-01 9.160647e-01 9.271314e-01 9.377218e-01 9.475992e-01 9.565826e-01 9.645745e-01 9.715331e-01 9.774777e-01 9.824560e-01 9.865450e-01 9.898307e-01 9.924072e-01 9.943659e-01 9.957919e-01 9.967572e-01 9.973165e-01 
9.964698e-01 9.962215e-01 9.954603e-01 9.941433e-01 9.921971e-01 9.895251e-01 9.860117e-01 9.815330e-01 9.759595e-01 9.691723e-01 9.610637e-01 9.515683e-01 9.406623e-01 9.284143e-01 9.149788e-01 9.006375e-01 8.857693e-01 8.707942e-01 8.560907e-01 8.417930e-01 8.280873e-01 8.148245e-01 8.016889e-01 7.879327e-01 7.725366e-01 7.542462e-01 7.316490e-01 7.038084e-01 6.705954e-01 6.340922e-01 5.989610e-01 5.724956e-01 5.623263e-01 5.723497e-01 5.987059e-01 6.337748e-01 6.702796e-01 7.035325e-01 7.314384e-01 7.540814e-01 7.724080e-01 7.877859e-01 8.015065e-01 8.145876e-01 8.277977e-01 8.414631e-01 8.557285e-01 8.704193e-01 8.853922e-01 9.002768e-01 9.146430e-01 9.281135e-01 9.403996e-01 9.513457e-01 9.608792e-01 9.690230e-01 9.758411e-01 9.814412e-01 9.859421e-01 9.894737e-01 9.921605e-01 9.941184e-01 9.954451e-01 9.962143e-01 
9.951267e-01 9.947939e-01 9.937740e-01 9.920100e-01 9.894054e-01 9.858316e-01 9.811352e-01 9.751497e-01 9.677003e-01 9.586256e-01 9.477792e-01 9.350762e-01 9.204922e-01 9.041424e-01 8.862630e-01 8.672827e-01 8.477556e-01 8.283222e-01 8.095967e-01 7.918410e-01 7.753300e-01 7.598993e-01 7.452623e-01 7.305307e-01 7.145631e-01 6.960001e-01 6.732859e-01 6.454901e-01 6.122637e-01 5.756262e-01 5.401390e-01 5.131876e-01 5.027575e-01 5.130039e-01 5.398202e-01 5.752314e-01 6.118742e-01 6.451574e-01 6.730318e-01 6.957941e-01 7.144068e-01 7.303468e-01 7.450315e-01 7.595947e-01 7.749501e-01 7.914048e-01 8.091100e-01 8.278149e-01 8.472399e-01 8.667852e-01 8.857966e-01 9.037225e-01 9.201245e-01 9.347642e-01 9.475207e-01 9.584167e-01 9.675351e-01 9.750219e-01 9.810386e-01 9.857605e-01 9.893548e-01 9.919758e-01 9.937530e-01 9.947841e-01 
9.934180e-01 9.929829e-01 9.916493e-01 9.893438e-01 9.859417e-01 9.812761e-01 9.751471e-01 9.673360e-01 9.576119e-01 9.457619e-01 9.315935e-01 9.150050e-01 8.959800e-01 8.747092e-01 8.515423e-01 8.271016e-01 8.021477e-01 7.775637e-01 7.541950e-01 7.324604e-01 7.126976e-01 6.946603e-01 6.780898e-01 6.619438e-01 6.450418e-01 6.260804e-01 6.034806e-01 5.765062e-01 5.445650e-01 5.095958e-01 4.757732e-01 4.500344e-01 4.400685e-01 4.498126e-01 4.753882e-01 5.091196e-01 5.440957e-01 5.761186e-01 6.031784e-01 6.258207e-01 6.448576e-01 6.617231e-01 6.778194e-01 6.942967e-01 7.122276e-01 7.319123e-01 7.535689e-01 7.769028e-01 8.014662e-01 8.264368e-01 8.509137e-01 8.741395e-01 8.954793e-01 9.145794e-01 9.312412e-01 9.454777e-01 9.573877e-01 9.671631e-01 9.750169e-01 9.811805e-01 9.858738e-01 9.892981e-01 9.916214e-01 9.929698e-01 
9.912865e-01 9.907306e-01 9.890268e-01 9.860824e-01 9.817402e-01 9.757883e-01 9.679719e-01 9.580096e-01 9.456048e-01 9.304840e-01 9.124058e-01 8.912588e-01 8.670559e-01 8.401013e-01 8.108974e-01 7.803094e-01 7.493130e-01 7.190578e-01 6.905444e-01 6.643294e-01 6.407697e-01 6.194735e-01 6.004264e-01 5.823564e-01 5.640244e-01 5.441629e-01 5.212626e-01 4.952749e-01 4.653485e-01 4.334001e-01 4.029998e-01 3.800182e-01 3.712195e-01 3.797620e-01 4.025559e-01 4.328408e-01 4.648073e-01 4.948748e-01 5.209348e-01 5.438247e-01 5.637992e-01 5.820931e-01 6.001241e-01 6.190686e-01 6.402167e-01 6.636750e-01 6.897775e-01 7.182366e-01 7.484535e-01 7.794587e-01 8.100845e-01 8.393573e-01 8.663983e-01 8.906972e-01 9.119404e-01 9.301085e-01 9.453094e-01 9.577825e-01 9.678014e-01 9.756636e-01 9.816521e-01 9.860232e-01 9.889908e-01 9.907138e-01 
9.886722e-01 9.879769e-01 9.858464e-01 9.821661e-01 9.767426e-01 9.693124e-01 9.595579e-01 9.471252e-01 9.316415e-01 9.127671e-01 8.902114e-01 8.638716e-01 8.338168e-01 8.005177e-01 7.646652e-01 7.274110e-01 6.899347e-01 6.536374e-01 6.195997e-01 5.883620e-01 5.603999e-01 5.349427e-01 5.121769e-01 4.906102e-01 4.693357e-01 4.476856e-01 4.243230e-01 4.000071e-01 3.732032e-01 3.456567e-01 3.201360e-01 3.010627e-01 2.939522e-01 3.007930e-01 3.196584e-01 3.450402e-01 3.726093e-01 3.996553e-01 4.240021e-01 4.472488e-01 4.690690e-01 4.902793e-01 5.118566e-01 5.345381e-01 5.597848e-01 5.876164e-01 6.186928e-01 6.526506e-01 6.888861e-01 7.263565e-01 7.636463e-01 7.995748e-01 8.329778e-01 8.631516e-01 8.896140e-01 9.122855e-01 9.312636e-01 9.468356e-01 9.593415e-01 9.691548e-01 9.766319e-01 9.820920e-01 9.858015e-01 9.879560e-01 
9.855118e-01 9.846588e-01 9.820459e-01 9.775349e-01 9.708935e-01 9.618003e-01 9.498682e-01 9.346590e-01 9.157159e-01 8.926243e-01 8.650516e-01 8.329235e-01 7.964100e-01 7.561949e-01 7.131992e-01 6.688744e-01 6.245684e-01 5.819258e-01 5.418690e-01 5.050593e-01 4.716032e-01 4.403436e-01 4.129728e-01 3.877916e-01 3.636761e-01 3.397118e-01 3.143528e-01 2.905276e-01 2.663811e-01 2.434265e-01 2.235604e-01 2.090568e-01 2.039597e-01 2.088046e-01 2.231024e-01 2.427898e-01 2.657829e-01 2.904090e-01 3.141752e-01 3.391117e-01 3.633135e-01 3.873400e-01 4.126122e-01 4.399696e-01 4.709323e-01 5.042405e-01 5.408465e-01 5.807950e-01 6.233518e-01 6.676261e-01 7.119775e-01 7.550476e-01 7.953790e-01 8.320318e-01 8.643091e-01 8.920250e-01 9.152465e-01 9.343005e-01 9.496017e-01 9.616073e-01 9.707585e-01 9.774452e-01 9.819918e-01 9.846337e-01 
9.817393e-01 9.807101e-01 9.775594e-01 9.721243e-01 9.641322e-01 9.531985e-01 9.388588e-01 9.205781e-01 8.978030e-01 8.700383e-01 8.369134e-01 7.984192e-01 7.548702e-01 7.072292e-01 6.566543e-01 6.049117e-01 5.534299e-01 5.040592e-01 4.573288e-01 4.141193e-01 3.748438e-01 3.375754e-01 3.038938e-01 2.717666e-01 2.411202e-01 2.142333e-01 1.888405e-01 1.670870e-01 1.470298e-01 1.298640e-01 1.167516e-01 1.076970e-01 1.048315e-01 1.075389e-01 1.163928e-01 1.294898e-01 1.466216e-01 1.671107e-01 1.886270e-01 2.134773e-01 2.407689e-01 2.710974e-01 3.034851e-01 3.372793e-01 3.741270e-01 4.132323e-01 4.561891e-01 5.027870e-01 5.520574e-01 6.034734e-01 6.552295e-01 7.058730e-01 7.536400e-01 7.973477e-01 8.360186e-01 8.693159e-01 8.972389e-01 9.201491e-01 9.385419e-01 9.529705e-01 9.639740e-01 9.720198e-01 9.774967e-01 9.806811e-01 
9.772886e-01 9.760636e-01 9.723173e-01 9.658624e-01 9.563860e-01 9.434343e-01 9.264571e-01 9.048036e-01 8.778101e-01 8.448854e-01 8.056383e-01 7.601630e-01 7.089949e-01 6.534052e-01 5.948211e-01 5.352252e-01 4.760968e-01 4.192689e-01 3.651123e-01 3.153800e-01 2.679554e-01 2.209793e-01 1.811094e-01 1.486708e-01 1.218223e-01 1.031551e-01 9.038930e-02 8.229971e-02 7.705290e-02 7.370218e-02 7.154302e-02 6.998987e-02 6.954945e-02 6.993438e-02 7.136015e-02 7.363171e-02 7.704866e-02 8.240418e-02 9.017671e-02 1.026422e-01 1.216529e-01 1.479744e-01 1.807172e-01 2.205458e-01 2.670872e-01 3.144024e-01 3.639163e-01 4.179091e-01 4.746301e-01 5.336414e-01 5.932295e-01 6.518649e-01 7.075791e-01 7.589176e-01 8.045932e-01 8.440407e-01 8.771524e-01 9.043059e-01 9.260922e-01 9.431740e-01 9.562072e-01 9.657453e-01 9.722478e-01 9.760316e-01 
9.720991e-01 9.706558e-01 9.662497e-01 9.586694e-01 9.475641e-01 9.324027e-01 9.125372e-01 8.871753e-01 8.555203e-01 8.168756e-01 7.708497e-01 7.177238e-01 6.583169e-01 5.942536e-01 5.271609e-01 4.592076e-01 3.916413e-01 3.267271e-01 2.635010e-01 2.039604e-01 1.520273e-01 1.114638e-01 8.801083e-02 7.863166e-02 7.944122e-02 8.743664e-02 9.844947e-02 1.095918e-01 1.189425e-01 1.254404e-01 1.291320e-01 1.307227e-01 1.312325e-01 1.306830e-01 1.292275e-01 1.255354e-01 1.192554e-01 1.098057e-01 9.858959e-02 8.757968e-02 7.952557e-02 7.843546e-02 8.786385e-02 1.110705e-01 1.511909e-01 2.028657e-01 2.622187e-01 3.252691e-01 3.901057e-01 4.574897e-01 5.254105e-01 5.925444e-01 6.567306e-01 7.163195e-01 7.696686e-01 8.159224e-01 8.547821e-01 8.866207e-01 9.121347e-01 9.321189e-01 9.473716e-01 9.585450e-01 9.661766e-01 9.706226e-01 
9.661250e-01 9.644365e-01 9.592930e-01 9.504627e-01 9.375595e-01 9.199641e-01 8.969152e-01 8.674414e-01 8.305943e-01 7.855625e-01 7.320183e-01 6.705332e-01 6.022794e-01 5.291509e-01 4.529422e-01 3.756537e-01 2.987123e-01 2.237939e-01 1.540924e-01 1.023906e-01 7.680878e-02 7.475259e-02 9.175643e-02 1.196269e-01 1.494067e-01 1.748577e-01 1.933533e-01 2.044568e-01 2.112213e-01 2.148459e-01 2.165171e-01 2.169644e-01 2.171267e-01 2.169552e-01 2.167050e-01 2.150726e-01 2.116576e-01 2.044654e-01 1.930091e-01 1.753390e-01 1.500975e-01 1.198502e-01 9.215346e-02 7.495527e-02 7.643058e-02 1.016494e-01 1.530220e-01 2.223647e-01 2.971526e-01 3.738563e-01 4.510908e-01 5.273287e-01 6.005598e-01 6.689952e-01 7.307194e-01 7.845170e-01 8.297913e-01 8.668448e-01 8.964885e-01 9.196682e-01 9.373626e-01 9.503379e-01 9.592210e-01 9.644042e-01 
9.593491e-01 9.573807e-01 9.514034e-01 9.411688e-01 9.262609e-01 9.059560e-01 8.793603e-01 8.452787e-01 8.025976e-01 7.504165e-01 6.885674e-01 6.180787e-01 5.403959e-01 4.574726e-01 3.710674e-01 2.831733e-01 1.965518e-01 1.218433e-01 7.737542e-02 7.203115e-02 9.783268e-02 1.412499e-01 1.860543e-01 2.232778e-01 2.515817e-01 2.738288e-01 2.898550e-01 2.988218e-01 3.034642e-01 3.051450e-01 3.052348e-01 3.046646e-01 3.044839e-01 3.046901e-01 3.054195e-01 3.053406e-01 3.037352e-01 2.987025e-01 2.895546e-01 2.743861e-01 2.522127e-01 2.234523e-01 1.865965e-01 1.417761e-01 9.821116e-02 7.217278e-02 7.703506e-02 1.207624e-01 1.950302e-01 2.812834e-01 3.690797e-01 4.555566e-01 5.385805e-01 6.164472e-01 6.871919e-01 7.493171e-01 8.017657e-01 8.446708e-01 8.789347e-01 9.056680e-01 9.260747e-01 9.410544e-01 9.513392e-01 9.573524e-01 
9.517943e-01 9.495018e-01 9.425691e-01 9.307392e-01 9.135722e-01 8.902197e-01 8.596396e-01 8.203597e-01 7.711284e-01 7.110067e-01 6.401641e-01 5.602263e-01 4.725514e-01 3.787978e-01 2.809648e-01 1.842940e-01 1.043535e-01 6.908219e-02 8.461774e-02 1.331166e-01 1.903951e-01 2.425748e-01 2.871639e-01 3.244471e-01 3.525337e-01 3.730065e-01 3.863445e-01 3.931782e-01 3.958587e-01 3.958978e-01 3.948119e-01 3.935576e-01 3.931405e-01 3.935900e-01 3.949470e-01 3.960264e-01 3.960029e-01 3.931016e-01 3.862287e-01 3.734002e-01 3.529539e-01 3.246360e-01 2.876183e-01 2.430463e-01 1.911714e-01 1.340081e-01 8.518995e-02 6.889854e-02 1.032716e-01 1.825451e-01 2.791048e-01 3.769238e-01 4.706957e-01 5.585227e-01 6.387275e-01 7.098744e-01 7.702946e-01 8.197684e-01 8.592406e-01 8.899610e-01 9.134137e-01 9.306475e-01 9.425207e-01 9.494814e-01 
9.435402e-01 9.408660e-01 9.328300e-01 9.191741e-01 8.994502e-01 8.726514e-01 8.375900e-01 7.924494e-01 7.359370e-01 6.671586e-01 5.868482e-01 4.973349e-01 3.990410e-01 2.933802e-01 1.863430e-01 9.946092e-02 6.788032e-02 9.848325e-02 1.605967e-01 2.258082e-01 2.856535e-01 3.393526e-01 3.840350e-01 4.201022e-01 4.470811e-01 4.664683e-01 4.789009e-01 4.853786e-01 4.877541e-01 4.875120e-01 4.861740e-01 4.847729e-01 4.842838e-01 4.847964e-01 4.862565e-01 4.875775e-01 4.878214e-01 4.853538e-01 4.789000e-01 4.667502e-01 4.474005e-01 4.203577e-01 3.845117e-01 3.399273e-01 2.865319e-01 2.267910e-01 1.616050e-01 9.924856e-02 6.787258e-02 9.840026e-02 1.846909e-01 2.915145e-01 3.972301e-01 4.956257e-01 5.854189e-01 6.660552e-01 7.351602e-01 7.919253e-01 8.372581e-01 8.724519e-01 8.993413e-01 9.191207e-01 9.328068e-01 9.408576e-01 
9.347305e-01 9.316114e-01 9.223095e-01 9.065822e-01 8.839685e-01 8.532847e-01 8.131846e-01 7.614998e-01 6.971162e-01 6.191588e-01 5.293499e-01 4.304166e-01 3.209007e-01 2.050646e-01 1.059170e-01 6.730215e-02 1.034877e-01 1.720978e-01 2.443310e-01 3.118222e-01 3.723673e-01 4.254718e-01 4.701477e-01 5.064348e-01 5.339335e-01 5.536397e-01 5.663130e-01 5.732375e-01 5.760284e-01 5.761800e-01 5.751537e-01 5.739796e-01 5.735512e-01 5.739936e-01 5.752000e-01 5.762149e-01 5.760729e-01 5.732611e-01 5.663850e-01 5.538745e-01 5.342420e-01 5.067908e-01 4.707062e-01 4.261727e-01 3.733174e-01 3.129244e-01 2.455847e-01 1.734365e-01 1.045259e-01 6.742838e-02 1.047202e-01 2.032496e-01 3.189436e-01 4.285785e-01 5.278748e-01 6.180795e-01 6.964226e-01 7.610803e-01 8.129577e-01 8.531806e-01 8.839375e-01 9.065880e-01 9.223258e-01 9.316226e-01 
9.255731e-01 9.219493e-01 9.112273e-01 8.931987e-01 8.673987e-01 8.324520e-01 7.868505e-01 7.280578e-01 6.553517e-01 5.679541e-01 4.690788e-01 3.611987e-01 2.402570e-01 1.271180e-01 6.760269e-02 9.621797e-02 1.676391e-01 2.438606e-01 3.165444e-01 3.837173e-01 4.443073e-01 4.977947e-01 5.430262e-01 5.800608e-01 6.086819e-01 6.297409e-01 6.439670e-01 6.526103e-01 6.570422e-01 6.586513e-01 6.587456e-01 6.583062e-01 6.581134e-01 6.583153e-01 6.587754e-01 6.586803e-01 6.570920e-01 6.526788e-01 6.440989e-01 6.299948e-01 6.090390e-01 5.805270e-01 5.436920e-01 4.986341e-01 4.453843e-01 3.849665e-01 3.179499e-01 2.453294e-01 1.689969e-01 9.730361e-02 6.753894e-02 1.257639e-01 2.383403e-01 3.594480e-01 4.677079e-01 5.670185e-01 6.548337e-01 7.278187e-01 7.867835e-01 8.324824e-01 8.674732e-01 8.932828e-01 9.112951e-01 9.219862e-01 
9.163251e-01 9.121433e-01 8.998651e-01 8.793454e-01 8.501204e-01 8.106435e-01 7.592433e-01 6.930919e-01 6.121083e-01 5.154989e-01 4.091154e-01 2.917778e-01 1.661052e-01 7.794186e-02 8.006163e-02 1.482596e-01 2.255132e-01 3.012384e-01 3.727178e-01 4.394091e-01 4.998914e-01 5.537488e-01 6.000610e-01 6.386845e-01 6.694018e-01 6.927929e-01 7.095039e-01 7.206463e-01 7.274015e-01 7.310252e-01 7.326701e-01 7.332328e-01 7.333758e-01 7.332427e-01 7.326981e-01 7.310638e-01 7.274703e-01 7.207529e-01 7.096809e-01 6.930750e-01 6.698004e-01 6.392184e-01 6.007836e-01 5.546538e-01 5.010128e-01 4.407016e-01 3.741628e-01 3.027345e-01 2.269813e-01 1.496165e-01 8.094403e-02 7.730773e-02 1.645213e-01 2.900305e-01 4.078202e-01 5.147516e-01 6.118359e-01 6.930975e-01 7.593853e-01 8.108454e-01 8.503265e-01 8.795260e-01 8.999959e-01 9.122118e-01 
9.072911e-01 9.025144e-01 8.885897e-01 8.654703e-01 8.327022e-01 7.886141e-01 7.313842e-01 6.580333e-01 5.693382e-01 4.643964e-01 3.528100e-01 2.258883e-01 1.099827e-01 6.645612e-02 1.172587e-01 1.930689e-01 2.691611e-01 3.423073e-01 4.122751e-01 4.778997e-01 5.384088e-01 5.930256e-01 6.408751e-01 6.816198e-01 7.149829e-01 7.413279e-01 7.611555e-01 7.753867e-01 7.850062e-01 7.910994e-01 7.946439e-01 7.964259e-01 7.969829e-01 7.964389e-01 7.946762e-01 7.911507e-01 7.850920e-01 7.755180e-01 7.613562e-01 7.416228e-01 7.153909e-01 6.821631e-01 6.415896e-01 5.939174e-01 5.395026e-01 4.791723e-01 4.137150e-01 3.438545e-01 2.707633e-01 1.946454e-01 1.187382e-01 6.680764e-02 1.089186e-01 2.240956e-01 3.515926e-01 4.639578e-01 5.693737e-01 6.583255e-01 7.317592e-01 7.890054e-01 8.330534e-01 8.657573e-01 8.887901e-01 9.026176e-01 
8.987973e-01 8.934131e-01 8.778178e-01 8.521034e-01 8.158169e-01 7.672642e-01 7.043732e-01 6.244395e-01 5.284662e-01 4.171234e-01 3.002818e-01 1.705681e-01 7.765439e-02 8.054226e-02 1.519884e-01 2.243638e-01 2.976966e-01 3.679319e-01 4.360912e-01 5.008644e-01 5.615092e-01 6.171557e-01 6.668429e-01 7.100506e-01 7.463685e-01 7.759381e-01 7.991016e-01 8.165747e-01 8.291677e-01 8.377932e-01 8.432775e-01 8.462925e-01 8.472717e-01 8.463073e-01 8.433113e-01 8.378481e-01 8.292542e-01 8.167019e-01 7.992851e-01 7.761949e-01 7.467140e-01 7.105043e-01 6.674280e-01 6.178840e-01 5.624002e-01 5.019140e-01 4.373003e-01 3.692836e-01 2.991492e-01 2.259091e-01 1.534763e-01 8.155687e-02 7.718300e-02 1.692787e-01 2.996698e-01 4.173258e-01 5.289457e-01 6.250802e-01 7.050124e-01 7.678646e-01 8.163268e-01 8.525059e-01 8.780938e-01 8.935541e-01 
8.911841e-01 8.852156e-01 8.680201e-01 8.398621e-01 8.002799e-01 7.476688e-01 6.796066e-01 5.941129e-01 4.916411e-01 3.762298e-01 2.535413e-01 1.301387e-01 6.673778e-02 1.031025e-01 1.753903e-01 2.441985e-01 3.133443e-01 3.809130e-01 4.472272e-01 5.113278e-01 5.722810e-01 6.291162e-01 6.807311e-01 7.264383e-01 7.656798e-01 7.984035e-01 8.247892e-01 8.453670e-01 8.607892e-01 8.718117e-01 8.791265e-01 8.832995e-01 8.846748e-01 8.833128e-01 8.791554e-01 8.718577e-01 8.608569e-01 8.454612e-01 8.249159e-01 7.985716e-01 7.658958e-01 7.267138e-01 6.810788e-01 6.295465e-01 5.728094e-01 5.119581e-01 4.479645e-01 3.817528e-01 3.142499e-01 2.451679e-01 1.762460e-01 1.038697e-01 6.655696e-02 1.291326e-01 2.531369e-01 3.766397e-01 4.923026e-01 5.949396e-01 6.804338e-01 7.484390e-01 8.009312e-01 8.403709e-01 8.683675e-01 8.853925e-01 
8.847803e-01 8.782902e-01 8.596733e-01 8.293766e-01 7.869340e-01 7.308804e-01 6.584842e-01 5.685329e-01 4.610354e-01 3.428326e-01 2.162488e-01 1.031506e-01 6.774487e-02 1.219271e-01 1.887409e-01 2.544663e-01 3.195601e-01 3.848390e-01 4.495786e-01 5.132823e-01 5.746217e-01 6.326530e-01 6.860587e-01 7.340498e-01 7.759004e-01 8.114111e-01 8.406116e-01 8.638804e-01 8.817371e-01 8.948078e-01 9.036799e-01 9.088308e-01 9.105399e-01 9.088392e-01 9.036968e-01 8.948327e-01 8.817683e-01 8.639168e-01 8.406492e-01 8.114488e-01 7.759331e-01 7.340784e-01 6.860838e-01 6.326797e-01 5.746615e-01 5.133444e-01 4.496798e-01 3.849870e-01 3.197562e-01 2.547172e-01 1.890530e-01 1.225482e-01 6.817024e-02 1.026221e-01 2.158804e-01 3.431276e-01 4.617048e-01 5.694421e-01 6.594540e-01 7.317946e-01 7.877132e-01 8.299831e-01 8.600871e-01 8.785006e-01 
8.798953e-01 8.729886e-01 8.532409e-01 8.212614e-01 7.765874e-01 7.178836e-01 6.422182e-01 5.489177e-01 4.380162e-01 3.175967e-01 1.900541e-01 8.741831e-02 7.336490e-02 1.341735e-01 1.954848e-01 2.582273e-01 3.201520e-01 3.837619e-01 4.473433e-01 5.108795e-01 5.726119e-01 6.316732e-01 6.865367e-01 7.363562e-01 7.802640e-01 8.179559e-01 8.493416e-01 8.746884e-01 8.944151e-01 9.090531e-01 9.191127e-01 9.250067e-01 9.269682e-01 9.250086e-01 9.191151e-01 9.090527e-01 8.944048e-01 8.746611e-01 8.492845e-01 8.178582e-01 7.801096e-01 7.361351e-01 6.862393e-01 6.312988e-01 5.721706e-01 5.103893e-01 4.468412e-01 3.832873e-01 3.197668e-01 2.579827e-01 1.954995e-01 1.345577e-01 7.385470e-02 8.712846e-02 1.896543e-01 3.177242e-01 4.386553e-01 5.498655e-01 6.432898e-01 7.189046e-01 7.774652e-01 8.219434e-01 8.537066e-01 8.732251e-01 
8.767995e-01 8.696208e-01 8.491383e-01 8.160725e-01 7.699717e-01 7.095822e-01 6.318910e-01 5.364952e-01 4.237456e-01 3.019435e-01 1.750252e-01 7.995773e-02 7.804443e-02 1.403264e-01 1.983079e-01 2.588214e-01 3.187701e-01 3.813548e-01 4.442480e-01 5.077445e-01 5.697618e-01 6.295223e-01 6.853333e-01 7.363378e-01 7.815610e-01 8.206463e-01 8.534205e-01 8.800862e-01 9.009966e-01 9.166247e-01 9.274329e-01 9.337936e-01 9.359132e-01 9.337901e-01 9.274231e-01 9.166034e-01 9.009527e-01 8.800081e-01 8.532887e-01 8.204429e-01 7.812612e-01 7.359229e-01 6.847853e-01 6.288350e-01 5.689431e-01 5.068183e-01 4.432660e-01 3.803799e-01 3.179047e-01 2.581447e-01 1.979742e-01 1.403474e-01 7.825216e-02 7.941721e-02 1.743912e-01 3.019173e-01 4.243621e-01 5.374669e-01 6.330295e-01 7.106728e-01 7.709149e-01 8.168050e-01 8.496391e-01 8.698751e-01 
8.757153e-01 8.684392e-01 8.476947e-01 8.142412e-01 7.676320e-01 7.066388e-01 6.282313e-01 5.320912e-01 4.187604e-01 2.965227e-01 1.700295e-01 7.774097e-02 7.963092e-02 1.420391e-01 1.989808e-01 2.586888e-01 3.179642e-01 3.802234e-01 4.428900e-01 5.063969e-01 5.685235e-01 6.285370e-01 6.846812e-01 7.360976e-01 7.817767e-01 8.213422e-01 8.545948e-01 8.817135e-01 9.030303e-01 9.189979e-01 9.300627e-01 9.365834e-01 9.387570e-01 9.365777e-01 9.300483e-01 9.189687e-01 9.029739e-01 8.816167e-01 8.544358e-01 8.211008e-01 7.814250e-01 7.356142e-01 6.840451e-01 6.277402e-01 5.675730e-01 5.053182e-01 4.417385e-01 3.790684e-01 3.169167e-01 2.578293e-01 1.984628e-01 1.418578e-01 7.969292e-02 7.706218e-02 1.693230e-01 2.965088e-01 4.194226e-01 5.331053e-01 6.294105e-01 7.077619e-01 7.686013e-01 8.149923e-01 8.482079e-01 8.686996e-01 
8.767995e-01 8.696208e-01 8.491383e-01 8.160725e-01 7.699717e-01 7.095822e-01 6.318910e-01 5.364952e-01 4.237456e-01 3.019435e-01 1.750252e-01 7.995773e-02 7.804443e-02 1.403264e-01 1.983079e-01 2.588214e-01 3.187701e-01 3.813548e-01 4.442480e-01 5.077445e-01 5.697618e-01 6.295223e-01 6.853333e-01 7.363378e-01 7.815610e-01 8.206463e-01 8.534205e-01 8.800862e-01 9.009966e-01 9.166247e-01 9.274329e-01 9.337936e-01 9.359132e-01 9.337901e-01 9.274231e-01 9.166034e-01 9.009527e-01 8.800081e-01 8.532887e-01 8.204429e-01 7.812612e-01 7.359229e-01 6.847853e-01 6.288350e-01 5.689431e-01 5.068183e-01 4.432660e-01 3.803799e-01 3.179047e-01 2.581447e-01 1.979742e-01 1.403474e-01 7.825216e-02 7.941721e-02 1.743912e-01 3.019173e-01 4.243621e-01 5.374669e-01 6.330295e-01 7.106728e-01 7.709149e-01 8.168050e-01 8.496391e-01 8.698751e-01 
8.798953e-01 8.729886e-01 8.532409e-01 8.212614e-01 7.765874e-01 7.178836e-01 6.422182e-01 5.489177e-01 4.380162e-01 3.175967e-01 1.900541e-01 8.741831e-02 7.336490e-02 1.341735e-01 1.954848e-01 2.582273e-01 3.201520e-01 3.837619e-01 4.473433e-01 5.108795e-01 5.726119e-01 6.316732e-01 6.865367e-01 7.363562e-01 7.802640e-01 8.179559e-01 8.493416e-01 8.746884e-01 8.944151e-01 9.090531e-01 9.191127e-01 9.250067e-01 9.269682e-01 9.250086e-01 9.191151e-01 9.090527e-01 8.944048e-01 8.746611e-01 8.492845e-01 8.178582e-01 7.801096e-01 7.361351e-01 6.862393e-01 6.312988e-01 5.721706e-01 5.103893e-01 4.468412e-01 3.832873e-01 3.197668e-01 2.579827e-01 1.954995e-01 1.345577e-01 7.385470e-02 8.712846e-02 1.896543e-01 3.177242e-01 4.386553e-01 5.498655e-01 6.432898e-01 7.189046e-01 7.774652e-01 8.219434e-01 8.537066e-01 8.732251e-01 