# vtk DataFile Version 2.0
Comment goes here
ASCII

DATASET STRUCTURED_POINTS
FIELD FieldData 1
TIME 1 1 double
1.22000000
DIMENSIONS    64   64   1

ORIGIN    0.000   0.000   0.000
SPACING   0.015625 0.015625   1.000

POINT_DATA   4096
SCALARS Concentration double
LOOKUP_TABLE default

9.764734e-01 9.762461e-01 9.754842e-01 9.741693e-01 9.722690e-01 9.697348e-01 9.665024e-01 9.624882e-01 9.575916e-01 9.516926e-01 9.446584e-01 9.363456e-01 9.266141e-01 9.153357e-01 9.024131e-01 8.877960e-01 8.714985e-01 8.536140e-01 8.343174e-01 8.138717e-01 7.926076e-01 7.709224e-01 7.492305e-01 7.279713e-01 7.075629e-01 6.884205e-01 6.709144e-01 6.554002e-01 6.421837e-01 6.315434e-01 6.236983e-01 6.188303e-01 6.170611e-01 6.184559e-01 6.229719e-01 6.304957e-01 6.408636e-01 6.538528e-01 6.692018e-01 6.865948e-01 7.056825e-01 7.260822e-01 7.473755e-01 7.691331e-01 7.909053e-01 8.122717e-01 8.328245e-01 8.522310e-01 8.702206e-01 8.866206e-01 9.013330e-01 9.143473e-01 9.257109e-01 9.355249e-01 9.439154e-01 9.510263e-01 9.569990e-01 9.619695e-01 9.660563e-01 9.693623e-01 9.719697e-01 9.739443e-01 9.753336e-01 9.761707e-01 
9.759753e-01 9.757472e-01 9.749810e-01 9.736584e-01 9.717471e-01 9.691986e-01 9.659486e-01 9.619134e-01 9.569919e-01 9.510637e-01 9.439947e-01 9.356399e-01 9.258580e-01 9.145184e-01 9.015210e-01 8.868122e-01 8.704020e-01 8.523796e-01 8.329156e-01 8.122698e-01 7.907685e-01 7.688081e-01 7.468037e-01 7.251977e-01 7.044132e-01 6.848728e-01 6.669564e-01 6.510314e-01 6.374268e-01 6.264445e-01 6.183266e-01 6.132763e-01 6.114306e-01 6.128615e-01 6.175247e-01 6.252932e-01 6.359860e-01 6.493555e-01 6.651180e-01 6.829311e-01 7.024300e-01 7.232208e-01 7.448763e-01 7.669602e-01 7.890196e-01 8.106326e-01 8.313925e-01 8.509713e-01 8.691023e-01 8.856175e-01 9.004232e-01 9.135135e-01 9.249391e-01 9.348044e-01 9.432377e-01 9.503842e-01 9.563871e-01 9.613835e-01 9.654926e-01 9.688176e-01 9.714408e-01 9.734280e-01 9.748268e-01 9.756699e-01 
9.744773e-01 9.742466e-01 9.734675e-01 9.721218e-01 9.701773e-01 9.675857e-01 9.642825e-01 9.601836e-01 9.551871e-01 9.491705e-01 9.419969e-01 9.335166e-01 9.235837e-01 9.120610e-01 8.988395e-01 8.838553e-01 8.671065e-01 8.486701e-01 8.287042e-01 8.074582e-01 7.852495e-01 7.624712e-01 7.395412e-01 7.169124e-01 6.950232e-01 6.743212e-01 6.552164e-01 6.381166e-01 6.234069e-01 6.114553e-01 6.025646e-01 5.969978e-01 5.949335e-01 5.964648e-01 6.015405e-01 6.099981e-01 6.216083e-01 6.360573e-01 6.530005e-01 6.720273e-01 6.927279e-01 7.146689e-01 7.373937e-01 7.604458e-01 7.833591e-01 8.057087e-01 8.270903e-01 8.471869e-01 8.657429e-01 8.826044e-01 8.976906e-01 9.110086e-01 9.226201e-01 9.326385e-01 9.411994e-01 9.484528e-01 9.545468e-01 9.596213e-01 9.637975e-01 9.671796e-01 9.698505e-01 9.718757e-01 9.733027e-01 9.741640e-01 
9.719588e-01 9.717241e-01 9.709237e-01 9.695398e-01 9.675406e-01 9.648778e-01 9.614868e-01 9.572830e-01 9.521627e-01 9.460006e-01 9.386552e-01 9.299698e-01 9.197901e-01 9.079683e-01 8.943812e-01 8.789483e-01 8.616487e-01 8.425402e-01 8.217614e-01 7.995464e-01 7.762002e-01 7.521107e-01 7.277009e-01 7.034422e-01 6.797987e-01 6.572566e-01 6.362752e-01 6.173228e-01 6.008691e-01 5.873834e-01 5.772671e-01 5.708786e-01 5.684649e-01 5.701507e-01 5.758769e-01 5.854236e-01 5.984845e-01 6.146395e-01 6.334494e-01 6.543986e-01 6.770088e-01 7.007810e-01 7.252117e-01 7.498109e-01 7.740909e-01 7.976208e-01 8.200031e-01 8.409352e-01 8.601792e-01 8.776023e-01 8.931448e-01 9.068337e-01 9.187485e-01 9.290173e-01 9.377873e-01 9.452166e-01 9.514606e-01 9.566643e-01 9.609517e-01 9.644286e-01 9.671783e-01 9.692666e-01 9.707405e-01 9.716322e-01 
9.683833e-01 9.681431e-01 9.673135e-01 9.658769e-01 9.638020e-01 9.610407e-01 9.575282e-01 9.531791e-01 9.478875e-01 9.415243e-01 9.339415e-01 9.249731e-01 9.144530e-01 9.022183e-01 8.881268e-01 8.720755e-01 8.540182e-01 8.339878e-01 8.120985e-01 7.885662e-01 7.636835e-01 7.378391e-01 7.114655e-01 6.850638e-01 6.591360e-01 6.342203e-01 6.108367e-01 5.895314e-01 5.708626e-01 5.554255e-01 5.437424e-01 5.362987e-01 5.334288e-01 5.353033e-01 5.418505e-01 5.527769e-01 5.676772e-01 5.859977e-01 6.071858e-01 6.306028e-01 6.556872e-01 6.818520e-01 7.085290e-01 7.351811e-01 7.612861e-01 7.864064e-01 8.101446e-01 8.322155e-01 8.524007e-01 8.705952e-01 8.867659e-01 9.009664e-01 9.132998e-01 9.239144e-01 9.329727e-01 9.406450e-01 9.470970e-01 9.524797e-01 9.569214e-01 9.605297e-01 9.633891e-01 9.655650e-01 9.671041e-01 9.680380e-01 
9.637000e-01 9.634533e-01 9.625871e-01 9.610841e-01 9.589135e-01 9.560276e-01 9.523617e-01 9.478289e-01 9.423207e-01 9.357035e-01 9.278211e-01 9.184963e-01 9.075470e-01 8.947925e-01 8.800665e-01 8.632396e-01 8.442352e-01 8.230579e-01 7.997950e-01 7.746455e-01 7.478928e-01 7.199357e-01 6.912262e-01 6.623056e-01 6.337211e-01 6.060680e-01 5.799257e-01 5.559119e-01 5.346707e-01 5.169419e-01 5.034004e-01 4.946928e-01 4.912690e-01 4.933548e-01 5.008672e-01 5.134184e-01 5.304788e-01 5.513263e-01 5.752763e-01 6.015576e-01 6.295199e-01 6.584809e-01 6.877993e-01 7.168839e-01 7.451727e-01 7.722142e-01 7.976054e-01 8.210755e-01 8.424260e-01 8.615811e-01 8.785379e-01 8.933811e-01 9.062418e-01 9.172925e-01 9.267147e-01 9.346946e-01 9.414101e-01 9.470200e-01 9.516578e-01 9.554334e-01 9.584324e-01 9.607200e-01 9.623426e-01 9.633305e-01 
9.578451e-01 9.575911e-01 9.566810e-01 9.550981e-01 9.528122e-01 9.497763e-01 9.459253e-01 9.411711e-01 9.354020e-01 9.284786e-01 9.202355e-01 9.104820e-01 8.990160e-01 8.856353e-01 8.701463e-01 8.523883e-01 8.322513e-01 8.097094e-01 7.848228e-01 7.577778e-01 7.288568e-01 6.984829e-01 6.671471e-01 6.354516e-01 6.040060e-01 5.734608e-01 5.444478e-01 5.176341e-01 4.937164e-01 4.735757e-01 4.580407e-01 4.479561e-01 4.439121e-01 4.462126e-01 4.547535e-01 4.690294e-01 4.883633e-01 5.118485e-01 5.386807e-01 5.679815e-01 5.990162e-01 6.310034e-01 6.632249e-01 6.950288e-01 7.257926e-01 7.550431e-01 7.823559e-01 8.074702e-01 8.302011e-01 8.505021e-01 8.684015e-01 8.840178e-01 8.975144e-01 9.090910e-01 9.189517e-01 9.273030e-01 9.343371e-01 9.402220e-01 9.450973e-01 9.490757e-01 9.522441e-01 9.546676e-01 9.563917e-01 9.574458e-01 
9.507447e-01 9.504829e-01 9.495218e-01 9.478457e-01 9.454251e-01 9.422138e-01 9.381465e-01 9.331338e-01 9.270603e-01 9.197799e-01 9.111165e-01 9.008643e-01 8.887967e-01 8.746877e-01 8.583128e-01 8.394786e-01 8.180395e-01 7.939404e-01 7.672178e-01 7.380541e-01 7.067419e-01 6.737490e-01 6.396253e-01 6.050630e-01 5.707427e-01 5.373677e-01 5.055908e-01 4.760503e-01 4.494533e-01 4.268064e-01 4.091364e-01 3.975409e-01 3.927982e-01 3.953218e-01 4.049751e-01 4.210930e-01 4.428131e-01 4.689975e-01 4.987180e-01 5.310050e-01 5.650912e-01 6.001227e-01 6.353149e-01 6.699586e-01 7.033574e-01 7.350041e-01 7.644370e-01 7.913923e-01 8.156889e-01 8.373028e-01 8.562909e-01 8.728053e-01 8.870429e-01 8.992335e-01 9.096063e-01 9.183923e-01 9.257997e-01 9.320074e-01 9.371619e-01 9.413792e-01 9.447478e-01 9.473320e-01 9.491766e-01 9.503095e-01 
9.423173e-01 9.420471e-01 9.410274e-01 9.392435e-01 9.366673e-01 9.332535e-01 9.289370e-01 9.236269e-01 9.172036e-01 9.095135e-01 9.003681e-01 8.895444e-01 8.767889e-01 8.618462e-01 8.444597e-01 8.244013e-01 8.014902e-01 7.756437e-01 7.468797e-01 7.153842e-01 6.814730e-01 6.456796e-01 6.086419e-01 5.711782e-01 5.340768e-01 4.980916e-01 4.639039e-01 4.320572e-01 4.031665e-01 3.783007e-01 3.586272e-01 3.455369e-01 3.400651e-01 3.428078e-01 3.535570e-01 3.714167e-01 3.952931e-01 4.238315e-01 4.560716e-01 4.910377e-01 5.279711e-01 5.659337e-01 6.040729e-01 6.416207e-01 6.777728e-01 7.119816e-01 7.437200e-01 7.727099e-01 7.987591e-01 8.218575e-01 8.420867e-01 8.596297e-01 8.747190e-01 8.876144e-01 8.985766e-01 9.078633e-01 9.157017e-01 9.222823e-01 9.277603e-01 9.322550e-01 9.358565e-01 9.386283e-01 9.406140e-01 9.418394e-01 
9.324797e-01 9.322005e-01 9.311135e-01 9.292053e-01 9.264500e-01 9.228036e-01 9.182017e-01 9.125519e-01 9.057303e-01 8.975745e-01 8.878819e-01 8.764098e-01 8.628778e-01 8.469944e-01 8.284700e-01 8.070436e-01 7.825016e-01 7.547407e-01 7.237672e-01 6.897820e-01 6.531360e-01 6.144486e-01 5.744692e-01 5.341992e-01 4.945410e-01 4.563378e-01 4.202765e-01 3.866479e-01 3.558680e-01 3.290313e-01 3.074774e-01 2.929109e-01 2.866867e-01 2.896481e-01 3.014840e-01 3.210127e-01 3.468742e-01 3.774784e-01 4.118455e-01 4.490363e-01 4.884046e-01 5.289789e-01 5.698492e-01 6.102052e-01 6.491091e-01 6.859546e-01 7.201263e-01 7.513080e-01 7.792780e-01 8.040260e-01 8.256485e-01 8.443548e-01 8.604104e-01 8.741058e-01 8.857410e-01 8.955997e-01 9.039313e-01 9.109398e-01 9.167900e-01 9.216051e-01 9.254768e-01 9.284669e-01 9.306174e-01 9.319512e-01 
9.211519e-01 9.208625e-01 9.196970e-01 9.176441e-01 9.146808e-01 9.107656e-01 9.058353e-01 8.997966e-01 8.925206e-01 8.838353e-01 8.735219e-01 8.613159e-01 8.469087e-01 8.299676e-01 8.101685e-01 7.872189e-01 7.608781e-01 7.310261e-01 6.976645e-01 6.610112e-01 6.214501e-01 5.796958e-01 5.366280e-01 4.934955e-01 4.513740e-01 4.111792e-01 3.737849e-01 3.392561e-01 3.076130e-01 2.798123e-01 2.570849e-01 2.413816e-01 2.344914e-01 2.376477e-01 2.503641e-01 2.710155e-01 2.979774e-01 3.296003e-01 3.651691e-01 4.039898e-01 4.454780e-01 4.884545e-01 5.319633e-01 5.751673e-01 6.169132e-01 6.565502e-01 6.933367e-01 7.269088e-01 7.570007e-01 7.835880e-01 8.067785e-01 8.267991e-01 8.439503e-01 8.585535e-01 8.709559e-01 8.814675e-01 8.903634e-01 8.978629e-01 9.041422e-01 9.093282e-01 9.135140e-01 9.167592e-01 9.191027e-01 9.205641e-01 
9.082675e-01 9.079658e-01 9.067072e-01 9.044835e-01 9.012759e-01 8.970465e-01 8.917352e-01 8.852477e-01 8.774504e-01 8.681598e-01 8.571390e-01 8.440977e-01 8.286956e-01 8.105644e-01 7.893338e-01 7.646860e-01 7.363589e-01 7.042263e-01 6.682919e-01 6.287899e-01 5.861371e-01 5.411267e-01 4.947995e-01 4.487609e-01 4.042278e-01 3.623712e-01 3.242895e-01 2.895295e-01 2.576485e-01 2.295845e-01 2.065301e-01 1.904090e-01 1.831822e-01 1.864019e-01 1.994221e-01 2.203913e-01 2.476961e-01 2.797495e-01 3.159854e-01 3.557934e-01 3.988396e-01 4.438804e-01 4.898783e-01 5.359634e-01 5.806841e-01 6.233055e-01 6.629403e-01 6.991467e-01 7.316016e-01 7.602547e-01 7.852178e-01 8.067312e-01 8.251271e-01 8.407717e-01 8.540541e-01 8.653154e-01 8.748609e-01 8.829276e-01 8.897050e-01 8.953241e-01 8.998787e-01 9.034247e-01 9.059967e-01 9.076091e-01 
8.937811e-01 8.934634e-01 8.920918e-01 8.896625e-01 8.861631e-01 8.815614e-01 8.758018e-01 8.687904e-01 8.603882e-01 8.503989e-01 8.385635e-01 8.245623e-01 8.080183e-01 7.885272e-01 7.656726e-01 7.391043e-01 7.085457e-01 6.738649e-01 6.350700e-01 5.923964e-01 5.462592e-01 4.975101e-01 4.473332e-01 3.979320e-01 3.507103e-01 3.066199e-01 2.677181e-01 2.336588e-01 2.031821e-01 1.769503e-01 1.554652e-01 1.401497e-01 1.330724e-01 1.362096e-01 1.486584e-01 1.682859e-01 1.938143e-01 2.242022e-01 2.596966e-01 3.002216e-01 3.451696e-01 3.924860e-01 4.413237e-01 4.908822e-01 5.390927e-01 5.852182e-01 6.281772e-01 6.674316e-01 7.026156e-01 7.336420e-01 7.606457e-01 7.838720e-01 8.037072e-01 8.205569e-01 8.348586e-01 8.469884e-01 8.572880e-01 8.660155e-01 8.733765e-01 8.795059e-01 8.844977e-01 8.884018e-01 8.912466e-01 8.930395e-01 
8.776817e-01 8.773421e-01 8.758311e-01 8.731508e-01 8.692981e-01 8.642489e-01 8.579553e-01 8.503240e-01 8.412113e-01 8.304035e-01 8.176159e-01 8.024906e-01 7.846068e-01 7.635154e-01 7.387588e-01 7.099504e-01 6.767811e-01 6.391238e-01 5.969875e-01 5.506028e-01 5.003957e-01 4.471730e-01 3.924086e-01 3.391475e-01 2.889771e-01 2.433086e-01 2.045425e-01 1.714346e-01 1.417969e-01 1.171975e-01 9.883277e-02 8.684257e-02 8.149397e-02 8.385645e-02 9.338569e-02 1.095272e-01 1.326060e-01 1.619190e-01 1.969586e-01 2.370477e-01 2.825847e-01 3.319481e-01 3.841155e-01 4.378779e-01 4.903880e-01 5.408284e-01 5.878861e-01 6.308546e-01 6.693186e-01 7.031730e-01 7.325873e-01 7.578426e-01 7.793860e-01 7.976613e-01 8.131654e-01 8.263174e-01 8.375054e-01 8.470133e-01 8.550668e-01 8.618051e-01 8.673212e-01 8.716566e-01 8.748306e-01 8.768409e-01 
8.600020e-01 8.596315e-01 8.579456e-01 8.549552e-01 8.506696e-01 8.450772e-01 8.381403e-01 8.297682e-01 8.198108e-01 8.080337e-01 7.941178e-01 7.776575e-01 7.581747e-01 7.351631e-01 7.081101e-01 6.765879e-01 6.402569e-01 5.989593e-01 5.527160e-01 5.017335e-01 4.464593e-01 3.876290e-01 3.269343e-01 2.693392e-01 2.166443e-01 1.671990e-01 1.259985e-01 9.568897e-02 7.235820e-02 5.516932e-02 4.370713e-02 3.717603e-02 3.458860e-02 3.578572e-02 4.075620e-02 5.030945e-02 6.587875e-02 8.787941e-02 1.180116e-01 1.581219e-01 2.068492e-01 2.588706e-01 3.149896e-01 3.743910e-01 4.323576e-01 4.883487e-01 5.407132e-01 5.883604e-01 6.308995e-01 6.681978e-01 7.005531e-01 7.282649e-01 7.518689e-01 7.718530e-01 7.887929e-01 8.031615e-01 8.154051e-01 8.258423e-01 8.347228e-01 8.421924e-01 8.483407e-01 8.531983e-01 8.567710e-01 8.590438e-01 
8.408297e-01 8.404160e-01 8.385101e-01 8.351349e-01 8.303171e-01 8.240613e-01 8.163453e-01 8.070810e-01 7.961117e-01 7.831727e-01 7.679018e-01 7.498264e-01 7.283952e-01 7.030223e-01 6.731169e-01 6.381937e-01 5.978402e-01 5.518859e-01 5.003367e-01 4.435093e-01 3.820599e-01 3.166847e-01 2.500221e-01 1.860111e-01 1.299081e-01 8.524313e-02 5.526408e-02 3.802599e-02 2.871946e-02 2.452835e-02 2.290923e-02 2.255531e-02 2.261228e-02 2.271253e-02 2.290649e-02 2.393758e-02 2.724701e-02 3.472799e-02 4.971069e-02 7.574182e-02 1.167272e-01 1.702243e-01 2.329541e-01 2.984096e-01 3.628499e-01 4.258096e-01 4.849922e-01 5.386304e-01 5.862985e-01 6.279010e-01 6.638989e-01 6.946458e-01 7.207826e-01 7.428562e-01 7.615410e-01 7.773791e-01 7.908936e-01 8.024479e-01 8.123248e-01 8.206779e-01 8.275927e-01 8.330850e-01 8.371422e-01 8.397327e-01 
8.203137e-01 8.198393e-01 8.176565e-01 8.138042e-01 8.083320e-01 8.012669e-01 7.926068e-01 7.822682e-01 7.700842e-01 7.557518e-01 7.388494e-01 7.188204e-01 6.950166e-01 6.667583e-01 6.333554e-01 5.942511e-01 5.489421e-01 4.971893e-01 4.390565e-01 3.749378e-01 3.063008e-01 2.336977e-01 1.610346e-01 9.841778e-02 5.719644e-02 3.663561e-02 3.058268e-02 3.299110e-02 3.816896e-02 4.305950e-02 4.611882e-02 4.763910e-02 4.832126e-02 4.831673e-02 4.742643e-02 4.515896e-02 4.077882e-02 3.509123e-02 3.108221e-02 3.362996e-02 4.934914e-02 8.350830e-02 1.405759e-01 2.099777e-01 2.819303e-01 3.527414e-01 4.203581e-01 4.812062e-01 5.350669e-01 5.818318e-01 6.222358e-01 6.566666e-01 6.858877e-01 7.105037e-01 7.313026e-01 7.489141e-01 7.639545e-01 7.768499e-01 7.879226e-01 7.973399e-01 8.051797e-01 8.114397e-01 8.160821e-01 8.190544e-01 
7.986673e-01 7.981106e-01 7.955829e-01 7.911440e-01 7.848733e-01 7.768275e-01 7.670311e-01 7.554052e-01 7.417715e-01 7.257724e-01 7.069151e-01 6.845274e-01 6.578548e-01 6.260973e-01 5.884657e-01 5.443232e-01 4.930044e-01 4.342236e-01 3.678855e-01 2.949069e-01 2.172178e-01 1.399909e-01 7.615641e-02 4.222260e-02 3.497809e-02 4.468810e-02 5.964380e-02 6.979882e-02 7.452689e-02 7.703343e-02 7.830852e-02 7.890275e-02 7.926773e-02 7.957608e-02 7.955935e-02 7.891912e-02 7.662729e-02 7.235299e-02 6.346770e-02 4.893319e-02 3.645449e-02 3.708885e-02 6.166394e-02 1.156831e-01 1.899258e-01 2.693476e-01 3.463892e-01 4.156626e-01 4.767225e-01 5.295395e-01 5.751574e-01 6.140004e-01 6.469448e-01 6.746382e-01 6.979949e-01 7.177426e-01 7.346146e-01 7.491155e-01 7.616197e-01 7.723130e-01 7.812636e-01 7.884467e-01 7.937918e-01 7.972197e-01 
7.761635e-01 7.754969e-01 7.725440e-01 7.673914e-01 7.601565e-01 7.509347e-01 7.397846e-01 7.266345e-01 7.112907e-01 6.933285e-01 6.721653e-01 6.469987e-01 6.169546e-01 5.811389e-01 5.386744e-01 4.889082e-01 4.309572e-01 3.644736e-01 2.893261e-01 2.072031e-01 1.248874e-01 6.262042e-02 3.665040e-02 4.300222e-02 6.527868e-02 8.742648e-02 1.027537e-01 1.110068e-01 1.142210e-01 1.150632e-01 1.147027e-01 1.141592e-01 1.140638e-01 1.147020e-01 1.157204e-01 1.166354e-01 1.159922e-01 1.130906e-01 1.054259e-01 9.177636e-02 7.203329e-02 4.874890e-02 3.546254e-02 4.956621e-02 1.004952e-01 1.801979e-01 2.654605e-01 3.434824e-01 4.121792e-01 4.715923e-01 5.229965e-01 5.668485e-01 6.040853e-01 6.353771e-01 6.617374e-01 6.840037e-01 7.030303e-01 7.194235e-01 7.336144e-01 7.458165e-01 7.560821e-01 7.643601e-01 7.705370e-01 7.745012e-01 
7.531279e-01 7.523197e-01 7.488520e-01 7.428451e-01 7.344645e-01 7.238552e-01 7.111201e-01 6.961972e-01 6.788776e-01 6.586518e-01 6.348441e-01 6.064911e-01 5.726394e-01 5.322933e-01 4.846050e-01 4.288817e-01 3.639805e-01 2.894817e-01 2.060106e-01 1.208083e-01 5.604109e-02 3.523717e-02 5.193508e-02 8.225758e-02 1.103793e-01 1.329456e-01 1.478283e-01 1.546042e-01 1.562124e-01 1.553072e-01 1.535402e-01 1.520888e-01 1.516151e-01 1.524400e-01 1.541625e-01 1.562472e-01 1.571990e-01 1.558783e-01 1.497772e-01 1.369774e-01 1.168323e-01 9.053714e-02 6.067404e-02 3.749553e-02 4.399477e-02 9.632419e-02 1.794578e-01 2.653518e-01 3.423341e-01 4.087408e-01 4.663146e-01 5.155996e-01 5.575967e-01 5.929469e-01 6.227456e-01 6.479130e-01 6.694315e-01 6.880178e-01 7.041681e-01 7.181283e-01 7.299295e-01 7.394878e-01 7.466363e-01 7.512235e-01 
7.299195e-01 7.289329e-01 7.248515e-01 7.178377e-01 7.081167e-01 6.958973e-01 6.813377e-01 6.643929e-01 6.448390e-01 6.220735e-01 5.953220e-01 5.634601e-01 5.254886e-01 4.803975e-01 4.274477e-01 3.660900e-01 2.946551e-01 2.127594e-01 1.254013e-01 5.594578e-02 3.456038e-02 5.660508e-02 9.237063e-02 1.270866e-01 1.562372e-01 1.778329e-01 1.915720e-01 1.979438e-01 1.993224e-01 1.980215e-01 1.957730e-01 1.939276e-01 1.932387e-01 1.940979e-01 1.960672e-01 1.984999e-01 1.998699e-01 1.988141e-01 1.931450e-01 1.811519e-01 1.618974e-01 1.351627e-01 1.027528e-01 6.720242e-02 3.859909e-02 4.320305e-02 9.953294e-02 1.850154e-01 2.698822e-01 3.431089e-01 4.067170e-01 4.614268e-01 5.083141e-01 5.479804e-01 5.815136e-01 6.098982e-01 6.342008e-01 6.552632e-01 6.736341e-01 6.896001e-01 7.031579e-01 7.141855e-01 7.224480e-01 7.277461e-01 
7.069197e-01 7.057152e-01 7.009161e-01 6.927384e-01 6.814799e-01 6.674313e-01 6.508195e-01 6.316293e-01 6.096276e-01 5.841178e-01 5.542429e-01 5.187094e-01 4.765830e-01 4.268112e-01 3.690837e-01 3.028250e-01 2.255339e-01 1.390761e-01 6.275356e-02 3.343160e-02 5.544886e-02 9.540381e-02 1.352009e-01 1.704641e-01 1.993003e-01 2.206839e-01 2.344097e-01 2.411644e-01 2.429641e-01 2.418799e-01 2.397031e-01 2.378287e-01 2.370675e-01 2.378281e-01 2.396857e-01 2.419406e-01 2.431186e-01 2.417434e-01 2.358296e-01 2.237546e-01 2.044843e-01 1.779011e-01 1.449513e-01 1.070017e-01 6.702140e-02 3.640324e-02 4.644521e-02 1.116417e-01 1.976428e-01 2.772731e-01 3.460628e-01 4.057023e-01 4.572776e-01 5.012525e-01 5.386684e-01 5.704848e-01 5.978077e-01 6.215917e-01 6.424226e-01 6.606275e-01 6.761543e-01 6.888354e-01 6.983520e-01 7.044491e-01 
6.845070e-01 6.830393e-01 6.774139e-01 6.679121e-01 6.549213e-01 6.388334e-01 6.199588e-01 5.983298e-01 5.737140e-01 5.453332e-01 5.122699e-01 4.730721e-01 4.269512e-01 3.727995e-01 3.108666e-01 2.408406e-01 1.590945e-01 7.814558e-02 3.375759e-02 4.873088e-02 9.005502e-02 1.336037e-01 1.740519e-01 2.095814e-01 2.386259e-01 2.603257e-01 2.748094e-01 2.828320e-01 2.859959e-01 2.861007e-01 2.847789e-01 2.834002e-01 2.827716e-01 2.833082e-01 2.846185e-01 2.859919e-01 2.860635e-01 2.834046e-01 2.763081e-01 2.633480e-01 2.435914e-01 2.167287e-01 1.833169e-01 1.448439e-01 1.026067e-01 6.032446e-02 3.272005e-02 5.708581e-02 1.306332e-01 2.138367e-01 2.867184e-01 3.502862e-01 4.058856e-01 4.538684e-01 4.950521e-01 5.303700e-01 5.608353e-01 5.875197e-01 6.109980e-01 6.316407e-01 6.493265e-01 6.638310e-01 6.747369e-01 6.817174e-01 
6.630528e-01 6.612716e-01 6.547090e-01 6.437366e-01 6.288413e-01 6.105396e-01 5.892380e-01 5.650510e-01 5.377565e-01 5.065521e-01 4.704717e-01 4.279882e-01 3.785123e-01 3.207796e-01 2.562582e-01 1.829108e-01 1.020956e-01 4.113680e-02 3.805806e-02 7.731024e-02 1.230654e-01 1.671978e-01 2.078881e-01 2.435243e-01 2.730502e-01 2.958540e-01 3.119415e-01 3.219516e-01 3.271198e-01 3.289735e-01 3.289764e-01 3.284064e-01 3.280470e-01 3.282854e-01 3.287884e-01 3.288680e-01 3.272941e-01 3.227398e-01 3.137493e-01 2.991327e-01 2.781414e-01 2.505768e-01 2.169183e-01 1.780947e-01 1.355175e-01 9.085921e-02 4.830646e-02 3.262828e-02 7.731291e-02 1.550107e-01 2.315696e-01 2.970741e-01 3.558867e-01 4.072277e-01 4.518329e-01 4.904994e-01 5.240729e-01 5.537134e-01 5.799426e-01 6.031563e-01 6.231429e-01 6.396030e-01 6.520047e-01 6.599333e-01 
6.428952e-01 6.407499e-01 6.331624e-01 6.205999e-01 6.036636e-01 5.830156e-01 5.591780e-01 5.323844e-01 5.024525e-01 4.686222e-01 4.299189e-01 3.848050e-01 3.329226e-01 2.726591e-01 2.072611e-01 1.313151e-01 5.983713e-02 3.016652e-02 5.882535e-02 1.042317e-01 1.507542e-01 1.946014e-01 2.352056e-01 2.711953e-01 3.017799e-01 3.263153e-01 3.446904e-01 3.573158e-01 3.650906e-01 3.692611e-01 3.710619e-01 3.716351e-01 3.716888e-01 3.715704e-01 3.710085e-01 3.693784e-01 3.656183e-01 3.585643e-01 3.470349e-01 3.300979e-01 3.072517e-01 2.784659e-01 2.442188e-01 2.053302e-01 1.629870e-01 1.178889e-01 7.274580e-02 3.427646e-02 4.310772e-02 1.052068e-01 1.819114e-01 2.484085e-01 3.089980e-01 3.629040e-01 4.102585e-01 4.518951e-01 4.883538e-01 5.208666e-01 5.498494e-01 5.756880e-01 5.980574e-01 6.165571e-01 6.305267e-01 6.394449e-01 
6.243499e-01 6.217989e-01 6.131217e-01 5.988891e-01 5.798252e-01 5.567581e-01 5.303405e-01 5.009744e-01 4.685377e-01 4.324362e-01 3.916518e-01 3.449350e-01 2.916706e-01 2.308618e-01 1.649685e-01 9.088790e-02 3.594811e-02 3.726865e-02 8.026122e-02 1.257612e-01 1.714349e-01 2.146554e-01 2.552376e-01 2.920076e-01 3.241914e-01 3.510646e-01 3.722512e-01 3.879261e-01 3.986635e-01 4.054449e-01 4.092820e-01 4.111600e-01 4.117042e-01 4.112091e-01 4.094666e-01 4.059290e-01 3.997034e-01 3.898053e-01 3.753100e-01 3.555530e-01 3.302941e-01 2.997514e-01 2.645125e-01 2.254589e-01 1.833899e-01 1.391969e-01 9.374589e-02 4.899645e-02 2.909362e-02 6.818525e-02 1.385456e-01 2.064635e-01 2.668646e-01 3.225484e-01 3.716768e-01 4.156946e-01 4.546084e-01 4.897538e-01 5.213692e-01 5.497870e-01 5.745414e-01 5.950996e-01 6.106611e-01 6.205796e-01 
6.076874e-01 6.047050e-01 5.949101e-01 5.789797e-01 5.577676e-01 5.322764e-01 5.033066e-01 4.714605e-01 4.367112e-01 3.987250e-01 3.564402e-01 3.091456e-01 2.555777e-01 1.961815e-01 1.297920e-01 6.188776e-02 2.701339e-02 4.971163e-02 9.473270e-02 1.395776e-01 1.837988e-01 2.267168e-01 2.676692e-01 3.058179e-01 3.401657e-01 3.698464e-01 3.942165e-01 4.132104e-01 4.271293e-01 4.367033e-01 4.427277e-01 4.460208e-01 4.471089e-01 4.462314e-01 4.432362e-01 4.376667e-01 4.288004e-01 4.158403e-01 3.981054e-01 3.751784e-01 3.470710e-01 3.142592e-01 2.774812e-01 2.378300e-01 1.958598e-01 1.528380e-01 1.079899e-01 6.459476e-02 2.892233e-02 4.334457e-02 1.026911e-01 1.707346e-01 2.303169e-01 2.868496e-01 3.369923e-01 3.826850e-01 4.235872e-01 4.610263e-01 4.950814e-01 5.259484e-01 5.530191e-01 5.755892e-01 5.927177e-01 6.036158e-01 
5.931497e-01 5.897273e-01 5.788309e-01 5.612403e-01 5.379376e-01 5.100970e-01 4.786757e-01 4.444822e-01 4.076202e-01 3.680272e-01 3.246560e-01 2.772944e-01 2.241496e-01 1.669023e-01 1.011969e-01 4.229563e-02 2.683316e-02 5.995104e-02 1.017785e-01 1.455017e-01 1.884308e-01 2.314592e-01 2.732911e-01 3.133013e-01 3.501754e-01 3.829116e-01 4.106096e-01 4.329755e-01 4.500746e-01 4.624182e-01 4.706069e-01 4.753008e-01 4.769329e-01 4.756909e-01 4.714689e-01 4.638968e-01 4.524068e-01 4.363765e-01 4.153428e-01 3.891036e-01 3.579010e-01 3.224598e-01 2.837378e-01 2.430266e-01 2.009401e-01 1.588873e-01 1.158341e-01 7.509275e-02 3.460120e-02 2.996551e-02 7.699718e-02 1.423755e-01 2.009368e-01 2.568204e-01 3.071939e-01 3.536969e-01 3.960692e-01 4.353724e-01 4.715940e-01 5.046896e-01 5.339216e-01 5.583793e-01 5.769884e-01 5.888072e-01 
5.809371e-01 5.770942e-01 5.651708e-01 5.460388e-01 5.208034e-01 4.907900e-01 4.571211e-01 4.207815e-01 3.820561e-01 3.410758e-01 2.969570e-01 2.496925e-01 1.975606e-01 1.424897e-01 7.979155e-02 3.075549e-02 2.961831e-02 6.555997e-02 1.036552e-01 1.454597e-01 1.874315e-01 2.308035e-01 2.738612e-01 3.159525e-01 3.554277e-01 3.911642e-01 4.220535e-01 4.476072e-01 4.676899e-01 4.826198e-01 4.928284e-01 4.988315e-01 5.009750e-01 4.994008e-01 4.940387e-01 4.845997e-01 4.706515e-01 4.517285e-01 4.275553e-01 3.981103e-01 3.638613e-01 3.256963e-01 2.848196e-01 2.426652e-01 2.002112e-01 1.587390e-01 1.178755e-01 7.917461e-02 4.016681e-02 2.403491e-02 5.906542e-02 1.201884e-01 1.778405e-01 2.321839e-01 2.823259e-01 3.290546e-01 3.725183e-01 4.133058e-01 4.514039e-01 4.864526e-01 5.176199e-01 5.437700e-01 5.637152e-01 5.763602e-01 
5.712239e-01 5.670066e-01 5.541899e-01 5.337217e-01 5.068153e-01 4.749192e-01 4.393136e-01 4.011136e-01 3.608188e-01 3.186411e-01 2.740133e-01 2.267703e-01 1.758831e-01 1.223455e-01 6.399212e-02 2.433987e-02 3.262483e-02 6.763398e-02 1.032966e-01 1.427698e-01 1.838818e-01 2.274257e-01 2.716205e-01 3.155605e-01 3.573583e-01 3.957350e-01 4.294015e-01 4.577257e-01 4.803877e-01 4.975478e-01 5.094945e-01 5.166233e-01 5.192062e-01 5.173496e-01 5.110074e-01 4.999577e-01 4.838795e-01 4.624371e-01 4.355133e-01 4.032325e-01 3.662623e-01 3.255833e-01 2.826754e-01 2.389912e-01 1.960402e-01 1.547793e-01 1.157649e-01 7.876593e-02 4.363719e-02 2.210271e-02 4.660458e-02 1.027185e-01 1.594175e-01 2.122930e-01 2.622092e-01 3.090145e-01 3.533597e-01 3.953355e-01 4.349987e-01 4.716736e-01 5.044717e-01 5.320459e-01 5.531194e-01 5.664577e-01 
5.641516e-01 5.596390e-01 5.461269e-01 5.246199e-01 4.964174e-01 4.630553e-01 4.259497e-01 3.862965e-01 3.448072e-01 3.016906e-01 2.567501e-01 2.094829e-01 1.597581e-01 1.072596e-01 5.316630e-02 2.129398e-02 3.512063e-02 6.771769e-02 1.019426e-01 1.394314e-01 1.799188e-01 2.234770e-01 2.685473e-01 3.138922e-01 3.574970e-01 3.979205e-01 4.337336e-01 4.641915e-01 4.888403e-01 5.077172e-01 5.210022e-01 5.289981e-01 5.319198e-01 5.298468e-01 5.227493e-01 5.104570e-01 4.927314e-01 4.693361e-01 4.402728e-01 4.057774e-01 3.666637e-01 3.239700e-01 2.794378e-01 2.344742e-01 1.911172e-01 1.499290e-01 1.123545e-01 7.689814e-02 4.506220e-02 2.138463e-02 3.845517e-02 8.995965e-02 1.454569e-01 1.972831e-01 2.470949e-01 2.940164e-01 3.390758e-01 3.819640e-01 4.228311e-01 4.607429e-01 4.947874e-01 5.234458e-01 5.453804e-01 5.592454e-01 
5.598380e-01 5.551337e-01 5.411764e-01 5.190055e-01 4.899761e-01 4.556770e-01 4.176154e-01 3.770309e-01 3.347867e-01 2.910630e-01 2.459441e-01 1.986397e-01 1.496894e-01 9.784952e-02 4.687314e-02 2.005372e-02 3.655870e-02 6.725286e-02 1.007153e-01 1.369467e-01 1.770618e-01 2.205365e-01 2.661180e-01 3.122992e-01 3.570300e-01 3.987372e-01 4.359053e-01 4.677099e-01 4.936161e-01 5.135818e-01 5.277159e-01 5.362620e-01 5.393979e-01 5.371874e-01 5.296089e-01 5.165244e-01 4.977490e-01 4.731087e-01 4.426848e-01 4.067761e-01 3.662976e-01 3.223177e-01 2.767708e-01 2.310160e-01 1.874577e-01 1.463734e-01 1.097859e-01 7.554224e-02 4.571436e-02 2.119967e-02 3.376393e-02 8.196952e-02 1.364131e-01 1.876982e-01 2.375190e-01 2.846047e-01 3.301651e-01 3.736573e-01 4.152986e-01 4.539963e-01 4.888300e-01 5.181727e-01 5.406503e-01 5.548462e-01 
5.583758e-01 5.536054e-01 5.394944e-01 5.170941e-01 4.877791e-01 4.531557e-01 4.147634e-01 3.738551e-01 3.313478e-01 2.874071e-01 2.422155e-01 1.948764e-01 1.461590e-01 9.451868e-02 4.472990e-02 1.977477e-02 3.716020e-02 6.716997e-02 1.003325e-01 1.361022e-01 1.760711e-01 2.194899e-01 2.652284e-01 3.116858e-01 3.567983e-01 3.989435e-01 4.365729e-01 4.688344e-01 4.951685e-01 5.155050e-01 5.299291e-01 5.386635e-01 5.418731e-01 5.396158e-01 5.318732e-01 5.185189e-01 4.993854e-01 4.743210e-01 4.434330e-01 4.070390e-01 3.660882e-01 3.216581e-01 2.757572e-01 2.297266e-01 1.860943e-01 1.450420e-01 1.087753e-01 7.494782e-02 4.580091e-02 2.111876e-02 3.222167e-02 7.923697e-02 1.332860e-01 1.844030e-01 2.342347e-01 2.813904e-01 3.271283e-01 3.708301e-01 4.127366e-01 4.517026e-01 4.868058e-01 5.163823e-01 5.390457e-01 5.533549e-01 
5.598380e-01 5.551337e-01 5.411764e-01 5.190055e-01 4.899761e-01 4.556770e-01 4.176154e-01 3.770309e-01 3.347867e-01 2.910630e-01 2.459441e-01 1.986397e-01 1.496894e-01 9.784952e-02 4.687314e-02 2.005372e-02 3.655870e-02 6.725286e-02 1.007153e-01 1.369467e-01 1.770618e-01 2.205365e-01 2.661180e-01 3.122992e-01 3.570300e-01 3.987372e-01 4.359053e-01 4.677099e-01 4.936161e-01 5.135818e-01 5.277159e-01 5.362620e-01 5.393979e-01 5.371874e-01 5.296089e-01 5.165244e-01 4.977490e-01 4.731087e-01 4.426848e-01 4.067761e-01 3.662976e-01 3.223177e-01 2.767708e-01 2.310160e-01 1.874577e-01 1.463734e-01 1.097859e-01 7.554224e-02 4.571436e-02 2.119967e-02 3.376393e-02 8.196952e-02 1.364131e-01 1.876982e-01 2.375190e-01 2.846047e-01 3.301651e-01 3.736573e-01 4.152986e-01 4.539963e-01 4.888300e-01 5.181727e-01 5.406503e-01 5.548462e-01 
5.641516e-01 5.596390e-01 5.461269e-01 5.246199e-01 4.964174e-01 4.630553e-01 4.259497e-01 3.862965e-01 3.448072e-01 3.016906e-01 2.567501e-01 2.094829e-01 1.597581e-01 1.072596e-01 5.316630e-02 2.129398e-02 3.512063e-02 6.771769e-02 1.019426e-01 1.394314e-01 1.799188e-01 2.234770e-01 2.685473e-01 3.138922e-01 3.574970e-01 3.979205e-01 4.337336e-01 4.641915e-01 4.888403e-01 5.077172e-01 5.210022e-01 5.289981e-01 5.319198e-01 5.298468e-01 5.227493e-01 5.104570e-01 4.927314e-01 4.693361e-01 4.402728e-01 4.057774e-01 3.666637e-01 3.239700e-01 2.794378e-01 2.344742e-01 1.911172e-01 1.499290e-01 1.123545e-01 7.689814e-02 4.506220e-02 2.138463e-02 3.845517e-02 8.995965e-02 1.454569e-01 1.972831e-01 2.470949e-01 2.940164e-01 3.390758e-01 3.819640e-01 4.228311e-01 4.607429e-01 4.947874e-01 5.234458e-01 5.453804e-01 5.592454e-01 