# vtk DataFile Version 2.0
Comment goes here
ASCII

DATASET STRUCTURED_POINTS
FIELD FieldData 1
TIME 1 1 double
0.33000000
DIMENSIONS    64   64   1

ORIGIN    0.000   0.000   0.000
SPACING   0.015625 0.015625   1.000

POINT_DATA   4096
SCALARS Concentration double
LOOKUP_TABLE default

9.999943e-01 9.999931e-01 9.999894e-01 9.999822e-01 9.999701e-01 9.999508e-01 9.999213e-01 9.998779e-01 9.998161e-01 9.997303e-01 9.996147e-01 9.994624e-01 9.992660e-01 9.990171e-01 9.987059e-01 9.983207e-01 9.978469e-01 9.972668e-01 9.965578e-01 9.956936e-01 9.946420e-01 9.933722e-01 9.918519e-01 9.900601e-01 9.879841e-01 9.856465e-01 9.830951e-01 9.804396e-01 9.778231e-01 9.754471e-01 9.735238e-01 9.722615e-01 9.718175e-01 9.722591e-01 9.735195e-01 9.754424e-01 9.778188e-01 9.804362e-01 9.830928e-01 9.856449e-01 9.879833e-01 9.900596e-01 9.918517e-01 9.933719e-01 9.946417e-01 9.956931e-01 9.965572e-01 9.972659e-01 9.978460e-01 9.983198e-01 9.987050e-01 9.990163e-01 9.992653e-01 9.994618e-01 9.996142e-01 9.997299e-01 9.998158e-01 9.998777e-01 9.999212e-01 9.999507e-01 9.999700e-01 9.999822e-01 9.999894e-01 9.999931e-01 
9.999932e-01 9.999918e-01 9.999874e-01 9.999789e-01 9.999647e-01 9.999420e-01 9.999076e-01 9.998570e-01 9.997852e-01 9.996860e-01 9.995527e-01 9.993780e-01 9.991535e-01 9.988702e-01 9.985172e-01 9.980818e-01 9.975477e-01 9.968948e-01 9.960971e-01 9.951228e-01 9.939306e-01 9.924829e-01 9.907379e-01 9.886649e-01 9.862405e-01 9.834824e-01 9.804377e-01 9.772313e-01 9.740342e-01 9.710964e-01 9.686960e-01 9.671063e-01 9.665464e-01 9.671025e-01 9.686893e-01 9.710890e-01 9.740271e-01 9.772256e-01 9.804333e-01 9.834791e-01 9.862384e-01 9.886634e-01 9.907369e-01 9.924821e-01 9.939297e-01 9.951219e-01 9.960959e-01 9.968936e-01 9.975464e-01 9.980806e-01 9.985161e-01 9.988691e-01 9.991526e-01 9.993772e-01 9.995521e-01 9.996855e-01 9.997848e-01 9.998568e-01 9.999074e-01 9.999419e-01 9.999646e-01 9.999789e-01 9.999874e-01 9.999918e-01 
9.999895e-01 9.999875e-01 9.999809e-01 9.999682e-01 9.999471e-01 9.999137e-01 9.998632e-01 9.997897e-01 9.996860e-01 9.995439e-01 9.993546e-01 9.991084e-01 9.987948e-01 9.984021e-01 9.979165e-01 9.973211e-01 9.965938e-01 9.957069e-01 9.946219e-01 9.932911e-01 9.916451e-01 9.896241e-01 9.871545e-01 9.841764e-01 9.806303e-01 9.765193e-01 9.718842e-01 9.668986e-01 9.618209e-01 9.570569e-01 9.531039e-01 9.504435e-01 9.495068e-01 9.504355e-01 9.530893e-01 9.570414e-01 9.618053e-01 9.668856e-01 9.718733e-01 9.765102e-01 9.806237e-01 9.841714e-01 9.871510e-01 9.896212e-01 9.916426e-01 9.932887e-01 9.946195e-01 9.957044e-01 9.965915e-01 9.973189e-01 9.979145e-01 9.984003e-01 9.987933e-01 9.991072e-01 9.993536e-01 9.995432e-01 9.996854e-01 9.997893e-01 9.998629e-01 9.999135e-01 9.999469e-01 9.999682e-01 9.999808e-01 9.999875e-01 
9.999824e-01 9.999790e-01 9.999681e-01 9.999474e-01 9.999130e-01 9.998590e-01 9.997780e-01 9.996608e-01 9.994968e-01 9.992739e-01 9.989793e-01 9.985993e-01 9.981192e-01 9.975223e-01 9.967888e-01 9.958935e-01 9.948024e-01 9.934719e-01 9.918397e-01 9.898267e-01 9.873109e-01 9.841909e-01 9.803354e-01 9.756329e-01 9.699576e-01 9.632881e-01 9.556463e-01 9.472935e-01 9.386331e-01 9.303556e-01 9.233884e-01 9.186251e-01 9.169460e-01 9.186089e-01 9.233587e-01 9.303255e-01 9.386016e-01 9.472672e-01 9.556228e-01 9.632675e-01 9.699420e-01 9.756208e-01 9.803268e-01 9.841838e-01 9.873050e-01 9.898211e-01 9.918344e-01 9.934669e-01 9.947978e-01 9.958893e-01 9.967850e-01 9.975191e-01 9.981165e-01 9.985971e-01 9.989776e-01 9.992725e-01 9.994958e-01 9.996601e-01 9.997775e-01 9.998586e-01 9.999127e-01 9.999473e-01 9.999680e-01 9.999790e-01 
9.999698e-01 9.999642e-01 9.999460e-01 9.999116e-01 9.998545e-01 9.997657e-01 9.996334e-01 9.994433e-01 9.991790e-01 9.988225e-01 9.983548e-01 9.977555e-01 9.970030e-01 9.960724e-01 9.949326e-01 9.935439e-01 9.918504e-01 9.897802e-01 9.872303e-01 9.840710e-01 9.800947e-01 9.751361e-01 9.689781e-01 9.614394e-01 9.522946e-01 9.414963e-01 9.290280e-01 9.152929e-01 9.009129e-01 8.870218e-01 8.752304e-01 8.670668e-01 8.641829e-01 8.670388e-01 8.751785e-01 8.869729e-01 9.008586e-01 9.152469e-01 9.289840e-01 9.414547e-01 9.522629e-01 9.614147e-01 9.689605e-01 9.751218e-01 9.800827e-01 9.840598e-01 9.872199e-01 9.897705e-01 9.918416e-01 9.935360e-01 9.949258e-01 9.960666e-01 9.969982e-01 9.977516e-01 9.983517e-01 9.988201e-01 9.991772e-01 9.994420e-01 9.996325e-01 9.997651e-01 9.998541e-01 9.999113e-01 9.999459e-01 9.999641e-01 
9.999489e-01 9.999395e-01 9.999095e-01 9.998529e-01 9.997595e-01 9.996151e-01 9.994013e-01 9.990960e-01 9.986745e-01 9.981097e-01 9.973733e-01 9.964351e-01 9.952625e-01 9.938168e-01 9.920482e-01 9.898912e-01 9.872538e-01 9.840178e-01 9.800177e-01 9.750506e-01 9.687950e-01 9.609996e-01 9.513503e-01 9.396021e-01 9.254180e-01 9.087510e-01 8.895159e-01 8.683240e-01 8.459551e-01 8.240544e-01 8.052187e-01 7.919428e-01 7.872013e-01 7.918988e-01 8.051375e-01 8.239843e-01 8.458695e-01 8.682501e-01 8.894401e-01 9.086739e-01 9.253600e-01 9.395574e-01 9.513191e-01 9.609736e-01 9.687727e-01 9.750295e-01 9.799983e-01 9.839999e-01 9.872378e-01 9.898772e-01 9.920362e-01 9.938066e-01 9.952541e-01 9.964283e-01 9.973679e-01 9.981056e-01 9.986714e-01 9.990938e-01 9.993997e-01 9.996140e-01 9.997588e-01 9.998525e-01 9.999093e-01 9.999394e-01 
9.999152e-01 9.999000e-01 9.998515e-01 9.997602e-01 9.996106e-01 9.993804e-01 9.990419e-01 9.985616e-01 9.979026e-01 9.970250e-01 9.958872e-01 9.944444e-01 9.926473e-01 9.904345e-01 9.877257e-01 9.844128e-01 9.803469e-01 9.753390e-01 9.691374e-01 9.614488e-01 9.518321e-01 9.399346e-01 9.253661e-01 9.078700e-01 8.870131e-01 8.628217e-01 8.350982e-01 8.047419e-01 7.727984e-01 7.415254e-01 7.144839e-01 6.950519e-01 6.879731e-01 6.949927e-01 7.143750e-01 7.414432e-01 7.726756e-01 8.046288e-01 8.349733e-01 8.626852e-01 8.869137e-01 9.077966e-01 9.253158e-01 9.398916e-01 9.517938e-01 9.614117e-01 9.691030e-01 9.753076e-01 9.803191e-01 9.843888e-01 9.877052e-01 9.904173e-01 9.926332e-01 9.944331e-01 9.958782e-01 9.970180e-01 9.978974e-01 9.985578e-01 9.990392e-01 9.993786e-01 9.996094e-01 9.997595e-01 9.998511e-01 9.998998e-01 
9.998623e-01 9.998383e-01 9.997616e-01 9.996180e-01 9.993837e-01 9.990255e-01 9.985018e-01 9.977635e-01 9.967569e-01 9.954239e-01 9.937048e-01 9.915334e-01 9.888349e-01 9.855124e-01 9.814375e-01 9.764350e-01 9.702716e-01 9.626585e-01 9.532385e-01 9.416278e-01 9.273160e-01 9.098532e-01 8.888569e-01 8.641673e-01 8.353697e-01 8.026879e-01 7.658548e-01 7.262978e-01 6.847948e-01 6.437155e-01 6.077287e-01 5.812554e-01 5.712799e-01 5.811736e-01 6.075856e-01 6.436129e-01 6.846052e-01 7.261198e-01 7.656594e-01 8.024638e-01 8.352167e-01 8.640612e-01 8.887856e-01 9.097872e-01 9.272523e-01 9.415641e-01 9.531787e-01 9.626045e-01 9.702242e-01 9.763945e-01 9.814033e-01 9.854841e-01 9.888118e-01 9.915149e-01 9.936901e-01 9.954127e-01 9.967484e-01 9.977573e-01 9.984974e-01 9.990225e-01 9.993817e-01 9.996168e-01 9.997609e-01 9.998380e-01 
9.997815e-01 9.997444e-01 9.996262e-01 9.994057e-01 9.990478e-01 9.985037e-01 9.977133e-01 9.966058e-01 9.951051e-01 9.931287e-01 9.905919e-01 9.873982e-01 9.834350e-01 9.785511e-01 9.725452e-01 9.651421e-01 9.559905e-01 9.446693e-01 9.307072e-01 9.136489e-01 8.930173e-01 8.683806e-01 8.394020e-01 8.061432e-01 7.682875e-01 7.264488e-01 6.799984e-01 6.308969e-01 5.809972e-01 5.335557e-01 4.930246e-01 4.626503e-01 4.506713e-01 4.625442e-01 4.928484e-01 5.334376e-01 5.807119e-01 6.306233e-01 6.797053e-01 7.260977e-01 7.680674e-01 8.060093e-01 8.393106e-01 8.682841e-01 8.929134e-01 9.135428e-01 9.306069e-01 9.445799e-01 9.559129e-01 9.650767e-01 9.724904e-01 9.785062e-01 9.833984e-01 9.873690e-01 9.905688e-01 9.931109e-01 9.950917e-01 9.965960e-01 9.977063e-01 9.984989e-01 9.990446e-01 9.994037e-01 9.996251e-01 9.997439e-01 
9.996611e-01 9.996053e-01 9.994274e-01 9.990971e-01 9.985637e-01 9.977577e-01 9.965939e-01 9.949733e-01 9.927901e-01 9.899303e-01 9.862757e-01 9.816874e-01 9.759983e-01 9.689772e-01 9.603170e-01 9.496006e-01 9.363202e-01 9.198906e-01 8.997311e-01 8.753473e-01 8.463839e-01 8.127051e-01 7.740599e-01 7.306680e-01 6.825054e-01 6.306181e-01 5.748249e-01 5.190264e-01 4.640578e-01 4.116619e-01 3.685020e-01 3.381221e-01 3.265167e-01 3.379631e-01 3.682679e-01 4.114904e-01 4.636090e-01 5.186433e-01 5.744487e-01 6.301294e-01 6.822281e-01 7.305301e-01 7.739567e-01 8.125614e-01 8.462095e-01 8.751690e-01 8.995635e-01 9.197443e-01 9.361949e-01 9.494967e-01 9.602311e-01 9.689075e-01 9.759419e-01 9.816425e-01 9.862403e-01 9.899031e-01 9.927695e-01 9.949582e-01 9.965831e-01 9.977503e-01 9.985588e-01 9.990939e-01 9.994256e-01 9.996044e-01 
9.994862e-01 9.994041e-01 9.991432e-01 9.986606e-01 9.978855e-01 9.967210e-01 9.950499e-01 9.927367e-01 9.896386e-01 9.856011e-01 9.804624e-01 9.740258e-01 9.660482e-01 9.561850e-01 9.439830e-01 9.288348e-01 9.100410e-01 8.868333e-01 8.585684e-01 8.247753e-01 7.853435e-01 7.403120e-01 6.898730e-01 6.343046e-01 5.736614e-01 5.105518e-01 4.429313e-01 3.741082e-01 3.131447e-01 2.649587e-01 2.313019e-01 2.090756e-01 2.011017e-01 2.088280e-01 2.310186e-01 2.648674e-01 3.125615e-01 3.736021e-01 4.424232e-01 5.098679e-01 5.733099e-01 6.341923e-01 6.897535e-01 7.400830e-01 7.850515e-01 8.244868e-01 8.583031e-01 8.866063e-01 9.098491e-01 9.286773e-01 9.438537e-01 9.560807e-01 9.659640e-01 9.739589e-01 9.804097e-01 9.855604e-01 9.896078e-01 9.927139e-01 9.950336e-01 9.967098e-01 9.978780e-01 9.986558e-01 9.991405e-01 9.994028e-01 
9.992380e-01 9.991203e-01 9.987471e-01 9.980595e-01 9.969611e-01 9.953204e-01 9.929799e-01 9.897593e-01 9.854703e-01 9.799078e-01 9.728551e-01 9.640387e-01 9.531130e-01 9.395807e-01 9.227977e-01 9.019202e-01 8.760418e-01 8.442392e-01 8.059216e-01 7.607795e-01 7.090253e-01 6.506844e-01 5.859667e-01 5.150224e-01 4.375546e-01 3.561155e-01 2.763420e-01 2.099323e-01 1.638501e-01 1.338121e-01 1.160565e-01 1.053346e-01 1.019561e-01 1.050504e-01 1.157721e-01 1.340484e-01 1.633683e-01 2.093177e-01 2.757850e-01 3.553324e-01 4.371431e-01 5.149151e-01 5.857717e-01 6.502930e-01 7.085392e-01 7.603266e-01 8.055155e-01 8.438983e-01 8.757558e-01 9.016875e-01 9.226078e-01 9.394284e-01 9.529906e-01 9.639417e-01 9.727786e-01 9.798486e-01 9.854253e-01 9.897261e-01 9.929560e-01 9.953038e-01 9.969500e-01 9.980525e-01 9.987431e-01 9.991184e-01 
9.988939e-01 9.987294e-01 9.982090e-01 9.972538e-01 9.957360e-01 9.934819e-01 9.902853e-01 9.859119e-01 9.801193e-01 9.726413e-01 9.631934e-01 9.514042e-01 9.367955e-01 9.186769e-01 8.961742e-01 8.681882e-01 8.336436e-01 7.915946e-01 7.417309e-01 6.840776e-01 6.191637e-01 5.465641e-01 4.663566e-01 3.771038e-01 2.821389e-01 1.981699e-01 1.386387e-01 1.074192e-01 9.605468e-02 9.577621e-02 1.001763e-01 1.041058e-01 1.054669e-01 1.039384e-01 1.001207e-01 9.613778e-02 9.595585e-02 1.070301e-01 1.384057e-01 1.975047e-01 2.815843e-01 3.768367e-01 4.659329e-01 5.459188e-01 6.184458e-01 6.834462e-01 7.411784e-01 7.911278e-01 8.332485e-01 8.678633e-01 8.959081e-01 9.184628e-01 9.366231e-01 9.512674e-01 9.630853e-01 9.725576e-01 9.800554e-01 9.858646e-01 9.902512e-01 9.934581e-01 9.957201e-01 9.972437e-01 9.982031e-01 9.987268e-01 
9.984271e-01 9.982029e-01 9.974950e-01 9.962011e-01 9.941561e-01 9.911361e-01 9.868784e-01 9.810849e-01 9.734510e-01 9.636389e-01 9.512831e-01 9.358923e-01 9.168285e-01 8.931766e-01 8.638211e-01 8.274431e-01 7.829397e-01 7.295835e-01 6.676004e-01 5.973964e-01 5.193079e-01 4.320124e-01 3.357675e-01 2.339561e-01 1.468199e-01 1.031467e-01 9.566521e-02 1.110767e-01 1.332447e-01 1.498431e-01 1.600564e-01 1.657837e-01 1.671095e-01 1.657501e-01 1.602091e-01 1.500493e-01 1.332387e-01 1.111540e-01 9.576666e-02 1.029561e-01 1.464053e-01 2.334110e-01 3.349835e-01 4.311029e-01 5.183531e-01 5.965977e-01 6.669039e-01 7.289811e-01 7.824173e-01 8.270057e-01 8.634591e-01 8.928838e-01 9.165923e-01 9.357046e-01 9.511346e-01 9.635235e-01 9.733628e-01 9.810195e-01 9.868311e-01 9.911032e-01 9.941339e-01 9.961870e-01 9.974868e-01 9.981992e-01 
9.978059e-01 9.975079e-01 9.965689e-01 9.948599e-01 9.921733e-01 9.882284e-01 9.826975e-01 9.752111e-01 9.653942e-01 9.528279e-01 9.370543e-01 9.174445e-01 8.931833e-01 8.631282e-01 8.259557e-01 7.802560e-01 7.251083e-01 6.602944e-01 5.866799e-01 5.047978e-01 4.139285e-01 3.125427e-01 2.052137e-01 1.199372e-01 8.977208e-02 1.081658e-01 1.466769e-01 1.818588e-01 2.070735e-01 2.229159e-01 2.313378e-01 2.356922e-01 2.364694e-01 2.357076e-01 2.314918e-01 2.229397e-01 2.070508e-01 1.821226e-01 1.469200e-01 1.084468e-01 8.989203e-02 1.194048e-01 2.041966e-01 3.114743e-01 4.129073e-01 5.039479e-01 5.859221e-01 6.595934e-01 7.244686e-01 7.796986e-01 8.254834e-01 8.627404e-01 8.928682e-01 9.171927e-01 9.368545e-01 9.526723e-01 9.652752e-01 9.751226e-01 9.826335e-01 9.881837e-01 9.921434e-01 9.948409e-01 9.965579e-01 9.975029e-01 
9.969925e-01 9.966060e-01 9.953910e-01 9.931892e-01 9.897471e-01 9.847213e-01 9.777135e-01 9.682746e-01 9.559535e-01 9.402424e-01 9.205849e-01 8.962072e-01 8.661254e-01 8.290094e-01 7.834344e-01 7.280890e-01 6.624793e-01 5.870295e-01 5.031959e-01 4.110230e-01 3.078359e-01 1.957788e-01 1.075845e-01 8.694303e-02 1.235481e-01 1.789733e-01 2.290766e-01 2.657234e-01 2.886768e-01 3.009026e-01 3.056281e-01 3.072530e-01 3.071376e-01 3.072621e-01 3.057013e-01 3.008552e-01 2.886467e-01 2.659027e-01 2.292883e-01 1.793981e-01 1.240328e-01 8.708786e-02 1.070406e-01 1.946287e-01 3.067606e-01 4.101382e-01 5.023845e-01 5.862278e-01 6.617135e-01 7.273978e-01 7.828359e-01 8.285106e-01 8.657169e-01 8.958789e-01 9.203238e-01 9.400386e-01 9.557974e-01 9.681583e-01 9.776295e-01 9.846628e-01 9.897079e-01 9.931643e-01 9.953766e-01 9.965996e-01 
9.959416e-01 9.954524e-01 9.939180e-01 9.911503e-01 9.868487e-01 9.806038e-01 9.719427e-01 9.603316e-01 9.452400e-01 9.260672e-01 9.021633e-01 8.726194e-01 8.363285e-01 7.918664e-01 7.378460e-01 6.732584e-01 5.980752e-01 5.133252e-01 4.207395e-01 3.185269e-01 2.049911e-01 1.074561e-01 8.324953e-02 1.301272e-01 2.011234e-01 2.662117e-01 3.172352e-01 3.512479e-01 3.703843e-01 3.789999e-01 3.809749e-01 3.807869e-01 3.801217e-01 3.807774e-01 3.809783e-01 3.789254e-01 3.703317e-01 3.513698e-01 3.174317e-01 2.666440e-01 2.016544e-01 1.306137e-01 8.331241e-02 1.068078e-01 2.042008e-01 3.177560e-01 4.199085e-01 5.124369e-01 5.971751e-01 6.724187e-01 7.371017e-01 7.912365e-01 8.358078e-01 8.721986e-01 9.018279e-01 9.258051e-01 9.450392e-01 9.601822e-01 9.718350e-01 9.805290e-01 9.867987e-01 9.911187e-01 9.938998e-01 9.954442e-01 
9.945962e-01 9.939911e-01 9.920984e-01 9.887015e-01 9.834544e-01 9.758822e-01 9.654375e-01 9.514995e-01 9.334573e-01 9.106174e-01 8.822593e-01 8.473726e-01 8.048147e-01 7.531815e-01 6.912488e-01 6.183919e-01 5.349118e-01 4.422493e-01 3.420284e-01 2.299043e-01 1.212992e-01 7.800252e-02 1.234686e-01 2.054161e-01 2.867747e-01 3.535821e-01 4.030533e-01 4.341990e-01 4.503215e-01 4.562214e-01 4.562813e-01 4.548321e-01 4.538116e-01 4.548058e-01 4.562385e-01 4.561320e-01 4.502489e-01 4.342586e-01 4.031985e-01 3.539437e-01 2.871837e-01 2.059007e-01 1.239839e-01 7.798508e-02 1.207701e-01 2.289856e-01 3.410714e-01 4.412382e-01 5.338600e-01 6.173942e-01 6.903508e-01 7.524116e-01 8.041721e-01 8.468503e-01 8.818419e-01 9.102903e-01 9.332065e-01 9.513135e-01 9.653038e-01 9.757895e-01 9.833927e-01 9.886626e-01 9.920759e-01 9.939811e-01 
9.928838e-01 9.921518e-01 9.898686e-01 9.857939e-01 9.795425e-01 9.705777e-01 9.582833e-01 9.419571e-01 9.209228e-01 8.944080e-01 8.616383e-01 8.215409e-01 7.730178e-01 7.148010e-01 6.459432e-01 5.661154e-01 4.754853e-01 3.766313e-01 2.680539e-01 1.525747e-01 7.900197e-02 1.038421e-01 1.922144e-01 2.855203e-01 3.696465e-01 4.361545e-01 4.833657e-01 5.120826e-01 5.263568e-01 5.310964e-01 5.306244e-01 5.289211e-01 5.278783e-01 5.288886e-01 5.305644e-01 5.310115e-01 5.262861e-01 5.121215e-01 4.834997e-01 4.364843e-01 3.700649e-01 2.861097e-01 1.929136e-01 1.042885e-01 7.886966e-02 1.516702e-01 2.669826e-01 3.754629e-01 4.742454e-01 5.649241e-01 6.448628e-01 7.138670e-01 7.722376e-01 8.209058e-01 8.611314e-01 8.940115e-01 9.206197e-01 9.417318e-01 9.581213e-01 9.704654e-01 9.794682e-01 9.857472e-01 9.898416e-01 9.921396e-01 
9.907095e-01 9.898407e-01 9.871416e-01 9.823556e-01 9.750710e-01 9.647076e-01 9.505943e-01 9.319576e-01 9.080602e-01 8.780635e-01 8.411727e-01 7.963019e-01 7.424663e-01 6.785151e-01 6.037554e-01 5.180160e-01 4.210610e-01 3.170899e-01 2.002362e-01 9.913824e-02 8.179837e-02 1.597699e-01 2.635498e-01 3.619582e-01 4.458848e-01 5.110477e-01 5.562872e-01 5.838400e-01 5.977145e-01 6.026225e-01 6.026059e-01 6.012610e-01 6.004044e-01 6.012304e-01 6.025488e-01 6.025548e-01 5.976637e-01 5.838794e-01 5.564205e-01 5.113487e-01 4.462828e-01 3.625172e-01 2.641556e-01 1.603991e-01 8.202381e-02 9.850003e-02 1.992605e-01 3.158955e-01 4.197183e-01 5.166720e-01 6.025147e-01 6.774313e-01 7.415570e-01 7.955593e-01 8.405806e-01 8.776016e-01 9.077088e-01 9.316977e-01 9.504081e-01 9.645788e-01 9.749853e-01 9.823013e-01 9.871100e-01 9.898262e-01 
9.879524e-01 9.869381e-01 9.838049e-01 9.782944e-01 9.699890e-01 9.582854e-01 9.424765e-01 9.217323e-01 8.952653e-01 8.621843e-01 8.217043e-01 7.727440e-01 7.144817e-01 6.457107e-01 5.660194e-01 4.746458e-01 3.725736e-01 2.625978e-01 1.452164e-01 7.605594e-02 1.146913e-01 2.212927e-01 3.292800e-01 4.294763e-01 5.126333e-01 5.765061e-01 6.208958e-01 6.484797e-01 6.631725e-01 6.692839e-01 6.705027e-01 6.700266e-01 6.695224e-01 6.700040e-01 6.704617e-01 6.692447e-01 6.631584e-01 6.485502e-01 6.210719e-01 5.768471e-01 5.131189e-01 4.301372e-01 3.300374e-01 2.221761e-01 1.154029e-01 7.591208e-02 1.443229e-01 2.612456e-01 3.710756e-01 4.731154e-01 5.645991e-01 6.444630e-01 7.134351e-01 7.718911e-01 8.210275e-01 8.616598e-01 8.948695e-01 9.214422e-01 9.422706e-01 9.581442e-01 9.698956e-01 9.782354e-01 9.837706e-01 9.869223e-01 
9.844618e-01 9.832933e-01 9.797094e-01 9.734697e-01 9.641780e-01 9.512373e-01 9.339297e-01 9.113890e-01 8.827864e-01 8.471907e-01 8.038289e-01 7.516237e-01 6.898686e-01 6.171241e-01 5.331981e-01 4.362187e-01 3.298862e-01 2.132428e-01 1.063148e-01 8.003942e-02 1.614052e-01 2.770479e-01 3.875674e-01 4.868752e-01 5.691188e-01 6.321088e-01 6.766197e-01 7.052366e-01 7.215849e-01 7.295378e-01 7.324091e-01 7.330465e-01 7.329715e-01 7.330356e-01 7.323924e-01 7.295356e-01 7.216200e-01 7.053593e-01 6.768628e-01 6.325289e-01 5.697323e-01 4.877026e-01 3.886010e-01 2.781969e-01 1.625497e-01 8.050920e-02 1.056675e-01 2.118607e-01 3.283372e-01 4.345684e-01 5.316388e-01 6.157407e-01 6.887078e-01 7.506809e-01 8.030859e-01 8.466199e-01 8.823605e-01 9.110807e-01 9.337139e-01 9.510914e-01 9.640828e-01 9.734104e-01 9.796753e-01 9.832776e-01 
9.800663e-01 9.787304e-01 9.746692e-01 9.676855e-01 9.574407e-01 9.433830e-01 9.248164e-01 9.008622e-01 8.706562e-01 8.332287e-01 7.877853e-01 7.332229e-01 6.687924e-01 5.927572e-01 5.048282e-01 4.026347e-01 2.919781e-01 1.712534e-01 8.399787e-02 1.017112e-01 2.090982e-01 3.250703e-01 4.364774e-01 5.338660e-01 6.150742e-01 6.777359e-01 7.230912e-01 7.533937e-01 7.718990e-01 7.820345e-01 7.867688e-01 7.886383e-01 7.890246e-01 7.886387e-01 7.867753e-01 7.820661e-01 7.719787e-01 7.535655e-01 7.233936e-01 6.782213e-01 6.157674e-01 5.347713e-01 4.375576e-01 3.261599e-01 2.101155e-01 1.022582e-01 8.352470e-02 1.700736e-01 2.904887e-01 4.009599e-01 5.031917e-01 5.912856e-01 6.675498e-01 7.322172e-01 7.869992e-01 8.326326e-01 8.702185e-01 9.005517e-01 9.246042e-01 9.432434e-01 9.573525e-01 9.676323e-01 9.746395e-01 9.787171e-01 
9.745908e-01 9.730639e-01 9.684705e-01 9.606892e-01 9.494841e-01 9.343969e-01 9.147941e-01 8.898121e-01 8.585515e-01 8.199945e-01 7.732558e-01 7.171623e-01 6.507059e-01 5.719474e-01 4.801097e-01 3.736596e-01 2.587855e-01 1.392405e-01 7.727347e-02 1.309999e-01 2.498388e-01 3.643659e-01 4.746419e-01 5.702417e-01 6.505623e-01 7.134679e-01 7.601705e-01 7.925747e-01 8.134817e-01 8.259276e-01 8.325590e-01 8.356636e-01 8.365023e-01 8.356747e-01 8.325873e-01 8.259903e-01 8.136015e-01 7.927908e-01 7.605233e-01 7.140080e-01 6.513193e-01 5.712227e-01 4.757987e-01 3.655721e-01 2.509999e-01 1.318344e-01 7.705514e-02 1.381512e-01 2.572389e-01 3.719988e-01 4.784746e-01 5.704703e-01 6.494494e-01 7.161495e-01 7.724722e-01 8.194111e-01 8.581337e-01 8.895253e-01 9.146066e-01 9.342805e-01 9.494159e-01 9.606518e-01 9.684515e-01 9.730559e-01 
9.679048e-01 9.661463e-01 9.609192e-01 9.522170e-01 9.399593e-01 9.238406e-01 9.033389e-01 8.776388e-01 8.458077e-01 8.067571e-01 7.594319e-01 7.025193e-01 6.345816e-01 5.535793e-01 4.580807e-01 3.482537e-01 2.295376e-01 1.156014e-01 8.101674e-02 1.607737e-01 2.818347e-01 3.952418e-01 5.026399e-01 5.965700e-01 6.761606e-01 7.397567e-01 7.881486e-01 8.228830e-01 8.462924e-01 8.610510e-01 8.695350e-01 8.738250e-01 8.750917e-01 8.738428e-01 8.695767e-01 8.611316e-01 8.464335e-01 8.231188e-01 7.885193e-01 7.403100e-01 6.769308e-01 5.975744e-01 5.038416e-01 3.965737e-01 2.831636e-01 1.619276e-01 8.123279e-02 1.147341e-01 2.281351e-01 3.468203e-01 4.566203e-01 5.522283e-01 6.334128e-01 7.015781e-01 7.587129e-01 8.062366e-01 8.454507e-01 8.774098e-01 9.032039e-01 9.237699e-01 9.399287e-01 9.522081e-01 9.609195e-01 9.661479e-01 
9.599761e-01 9.579238e-01 9.519002e-01 9.420566e-01 9.285265e-01 9.112239e-01 8.897958e-01 8.635171e-01 8.314297e-01 7.923503e-01 7.449858e-01 6.878021e-01 6.188541e-01 5.360280e-01 4.373454e-01 3.247277e-01 2.032412e-01 9.911421e-02 9.093206e-02 1.869070e-01 3.052197e-01 4.171976e-01 5.212498e-01 6.136425e-01 6.927949e-01 7.574234e-01 8.077514e-01 8.449406e-01 8.708684e-01 8.878809e-01 8.981281e-01 9.035285e-01 9.051893e-01 9.035504e-01 8.981774e-01 8.879697e-01 8.710152e-01 8.451732e-01 8.081041e-01 7.579362e-01 6.934957e-01 6.145467e-01 5.223037e-01 4.183507e-01 3.062664e-01 1.879100e-01 9.142386e-02 9.865819e-02 2.023449e-01 3.237150e-01 4.361979e-01 5.349260e-01 6.178907e-01 6.870342e-01 7.444160e-01 7.919611e-01 8.311890e-01 8.633904e-01 8.897494e-01 9.112276e-01 9.285557e-01 9.420925e-01 9.519303e-01 9.579404e-01 
9.509512e-01 9.485227e-01 9.414804e-01 9.301767e-01 9.150147e-01 8.961966e-01 8.736020e-01 8.466513e-01 8.143877e-01 7.755305e-01 7.285190e-01 6.715523e-01 6.022001e-01 5.182763e-01 4.175250e-01 3.032468e-01 1.809685e-01 8.840792e-02 1.015340e-01 2.060020e-01 3.202245e-01 4.301666e-01 5.313435e-01 6.225860e-01 7.017178e-01 7.676909e-01 8.201314e-01 8.598305e-01 8.882401e-01 9.074135e-01 9.193185e-01 9.257453e-01 9.277658e-01 9.257669e-01 9.193659e-01 9.074949e-01 8.883693e-01 8.600261e-01 8.204194e-01 7.681009e-01 7.022754e-01 6.233067e-01 5.321908e-01 4.310978e-01 3.210868e-01 2.069290e-01 1.022513e-01 8.818453e-02 1.801761e-01 3.022721e-01 4.165224e-01 5.174087e-01 6.015093e-01 6.710471e-01 7.281854e-01 7.753473e-01 8.143250e-01 8.466771e-01 8.736845e-01 8.963068e-01 9.151285e-01 9.302757e-01 9.415525e-01 9.485604e-01 
9.412012e-01 9.383051e-01 9.299929e-01 9.168523e-01 8.995991e-01 8.787827e-01 8.545755e-01 8.266111e-01 7.939858e-01 7.553559e-01 7.089193e-01 6.526038e-01 5.835795e-01 4.995093e-01 3.981422e-01 2.835654e-01 1.626071e-01 8.186684e-02 1.113303e-01 2.187360e-01 3.285752e-01 4.357245e-01 5.345795e-01 6.250540e-01 7.045648e-01 7.720957e-01 8.267344e-01 8.689179e-01 8.997145e-01 9.209223e-01 9.343610e-01 9.417253e-01 9.440694e-01 9.417444e-01 9.344017e-01 9.209884e-01 8.998132e-01 8.690580e-01 8.269323e-01 7.723731e-01 7.049545e-01 6.255947e-01 5.352990e-01 4.366307e-01 3.296189e-01 2.198390e-01 1.121462e-01 8.175414e-02 1.617109e-01 2.825335e-01 3.973357e-01 4.989900e-01 5.832892e-01 6.524780e-01 7.089202e-01 7.554575e-01 7.941637e-01 8.268389e-01 8.548260e-01 8.790297e-01 8.998209e-01 9.170315e-01 9.301182e-01 9.383695e-01 
9.313510e-01 9.279103e-01 9.181134e-01 9.027999e-01 8.830164e-01 8.596920e-01 8.333359e-01 8.038617e-01 7.704932e-01 7.319038e-01 6.861321e-01 6.308815e-01 5.630023e-01 4.798793e-01 3.793294e-01 2.656631e-01 1.473882e-01 7.798624e-02 1.192076e-01 2.260115e-01 3.318946e-01 4.359781e-01 5.330288e-01 6.230614e-01 7.032274e-01 7.723934e-01 8.291790e-01 8.737081e-01 9.067084e-01 9.297664e-01 9.445806e-01 9.527768e-01 9.554046e-01 9.527909e-01 9.446088e-01 9.298073e-01 9.067611e-01 8.737692e-01 8.292509e-01 7.724841e-01 7.033677e-01 6.233030e-01 5.334497e-01 4.366414e-01 3.328222e-01 2.270089e-01 1.198748e-01 7.791237e-02 1.467025e-01 2.650548e-01 3.791120e-01 4.799756e-01 5.632860e-01 6.312520e-01 6.865507e-01 7.323521e-01 7.709587e-01 8.043275e-01 8.337827e-01 8.600984e-01 8.833637e-01 9.030724e-01 9.183010e-01 9.280061e-01 
9.222250e-01 9.182110e-01 9.068451e-01 8.892092e-01 8.666639e-01 8.405097e-01 8.116012e-01 7.801750e-01 7.456581e-01 7.068408e-01 6.617201e-01 6.078444e-01 5.418078e-01 4.605653e-01 3.619485e-01 2.500448e-01 1.351582e-01 7.556109e-02 1.246450e-01 2.293912e-01 3.321713e-01 4.333936e-01 5.290374e-01 6.187841e-01 6.996748e-01 7.703506e-01 8.290601e-01 8.756479e-01 9.105571e-01 9.352022e-01 9.511846e-01 9.600831e-01 9.629475e-01 9.600920e-01 9.512004e-01 9.352183e-01 9.105644e-01 8.756300e-01 8.290027e-01 7.702400e-01 6.995224e-01 6.186235e-01 5.289507e-01 4.334597e-01 3.324731e-01 2.298411e-01 1.250788e-01 7.557765e-02 1.348993e-01 2.501691e-01 3.625280e-01 4.613902e-01 5.427141e-01 6.087328e-01 6.625675e-01 7.076431e-01 7.464170e-01 7.808836e-01 8.122482e-01 8.410785e-01 8.671392e-01 8.895769e-01 9.070963e-01 9.183389e-01 
9.147509e-01 9.102150e-01 8.974183e-01 8.776459e-01 8.525184e-01 8.236501e-01 7.922001e-01 7.587157e-01 7.228627e-01 6.836166e-01 6.390338e-01 5.865725e-01 5.226229e-01 4.436467e-01 3.474112e-01 2.375723e-01 1.260548e-01 7.406118e-02 1.280536e-01 2.305127e-01 3.310821e-01 4.300133e-01 5.246308e-01 6.141778e-01 6.956986e-01 7.675879e-01 8.278223e-01 8.760251e-01 9.124192e-01 9.382926e-01 9.551730e-01 9.646090e-01 9.676531e-01 9.646127e-01 9.551758e-01 9.382832e-01 9.123805e-01 8.759278e-01 8.276340e-01 7.672694e-01 6.952308e-01 6.135602e-01 5.239191e-01 4.292881e-01 3.304823e-01 2.301503e-01 1.280605e-01 7.406596e-02 1.261284e-01 2.383152e-01 3.486632e-01 4.450924e-01 5.240576e-01 5.879027e-01 6.402493e-01 6.847258e-01 7.238782e-01 7.596383e-01 7.930248e-01 8.243641e-01 8.531089e-01 8.781000e-01 8.977276e-01 9.103725e-01 
9.098031e-01 9.048962e-01 8.910806e-01 8.697780e-01 8.427821e-01 8.119180e-01 7.785559e-01 7.434703e-01 7.065238e-01 6.668655e-01 6.226447e-01 5.712819e-01 5.090282e-01 4.319612e-01 3.377370e-01 2.296212e-01 1.205318e-01 7.317654e-02 1.297411e-01 2.305335e-01 3.297758e-01 4.272750e-01 5.212851e-01 6.107223e-01 6.926777e-01 7.653580e-01 8.265803e-01 8.758207e-01 9.131654e-01 9.398225e-01 9.572739e-01 9.670511e-01 9.702087e-01 9.670517e-01 9.572693e-01 9.397986e-01 9.131003e-01 8.756771e-01 8.263142e-01 7.649129e-01 6.920139e-01 6.098139e-01 5.201729e-01 4.260456e-01 3.286308e-01 2.297101e-01 1.295203e-01 7.317120e-02 1.207172e-01 2.305927e-01 3.392987e-01 4.337317e-01 5.107635e-01 5.728768e-01 6.240890e-01 6.681709e-01 7.077068e-01 7.445348e-01 7.794998e-01 8.127301e-01 8.434508e-01 8.702907e-01 8.914294e-01 9.050738e-01 
9.080452e-01 9.030011e-01 8.888099e-01 8.669426e-01 8.392560e-01 8.076505e-01 7.735723e-01 7.378778e-01 7.005033e-01 6.606643e-01 6.165492e-01 5.655640e-01 5.039083e-01 4.275136e-01 3.340069e-01 2.265392e-01 1.185020e-01 7.291771e-02 1.303495e-01 2.305491e-01 3.293088e-01 4.262893e-01 5.200779e-01 6.094683e-01 6.915712e-01 7.645232e-01 8.260852e-01 8.756835e-01 9.133555e-01 9.402828e-01 9.579308e-01 9.678255e-01 9.710219e-01 9.678244e-01 9.579221e-01 9.402509e-01 9.132761e-01 8.755157e-01 8.257797e-01 7.640163e-01 6.908140e-01 6.084259e-01 5.187850e-01 4.248381e-01 3.279284e-01 2.295188e-01 1.300072e-01 7.287672e-02 1.187265e-01 2.275946e-01 3.356900e-01 4.294116e-01 5.057615e-01 5.672619e-01 6.180819e-01 6.620451e-01 7.017509e-01 7.389974e-01 7.745628e-01 8.085012e-01 8.399557e-01 8.674788e-01 8.891746e-01 9.031869e-01 
9.098031e-01 9.048962e-01 8.910806e-01 8.697780e-01 8.427821e-01 8.119180e-01 7.785559e-01 7.434703e-01 7.065238e-01 6.668655e-01 6.226447e-01 5.712819e-01 5.090282e-01 4.319612e-01 3.377370e-01 2.296212e-01 1.205318e-01 7.317654e-02 1.297411e-01 2.305335e-01 3.297758e-01 4.272750e-01 5.212851e-01 6.107223e-01 6.926777e-01 7.653580e-01 8.265803e-01 8.758207e-01 9.131654e-01 9.398225e-01 9.572739e-01 9.670511e-01 9.702087e-01 9.670517e-01 9.572693e-01 9.397986e-01 9.131003e-01 8.756771e-01 8.263142e-01 7.649129e-01 6.920139e-01 6.098139e-01 5.201729e-01 4.260456e-01 3.286308e-01 2.297101e-01 1.295203e-01 7.317120e-02 1.207172e-01 2.305927e-01 3.392987e-01 4.337317e-01 5.107635e-01 5.728768e-01 6.240890e-01 6.681709e-01 7.077068e-01 7.445348e-01 7.794998e-01 8.127301e-01 8.434508e-01 8.702907e-01 8.914294e-01 9.050738e-01 
9.147509e-01 9.102150e-01 8.974183e-01 8.776459e-01 8.525184e-01 8.236501e-01 7.922001e-01 7.587157e-01 7.228627e-01 6.836166e-01 6.390338e-01 5.865725e-01 5.226229e-01 4.436467e-01 3.474112e-01 2.375723e-01 1.260548e-01 7.406118e-02 1.280536e-01 2.305127e-01 3.310821e-01 4.300133e-01 5.246308e-01 6.141778e-01 6.956986e-01 7.675879e-01 8.278223e-01 8.760251e-01 9.124192e-01 9.382926e-01 9.551730e-01 9.646090e-01 9.676531e-01 9.646127e-01 9.551758e-01 9.382832e-01 9.123805e-01 8.759278e-01 8.276340e-01 7.672694e-01 6.952308e-01 6.135602e-01 5.239191e-01 4.292881e-01 3.304823e-01 2.301503e-01 1.280605e-01 7.406596e-02 1.261284e-01 2.383152e-01 3.486632e-01 4.450924e-01 5.240576e-01 5.879027e-01 6.402493e-01 6.847258e-01 7.238782e-01 7.596383e-01 7.930248e-01 8.243641e-01 8.531089e-01 8.781000e-01 8.977276e-01 9.103725e-01 