# vtk DataFile Version 2.0
Comment goes here
ASCII

DATASET STRUCTURED_POINTS
FIELD FieldData 1
TIME 1 1 double
0.56000000
DIMENSIONS    64   64   1

ORIGIN    0.000   0.000   0.000
SPACING   0.015625 0.015625   1.000

POINT_DATA   4096
SCALARS Concentration double
LOOKUP_TABLE default

9.993936e-01 9.993585e-01 9.992504e-01 9.990648e-01 9.987943e-01 9.984288e-01 9.979560e-01 9.973622e-01 9.966323e-01 9.957502e-01 9.946982e-01 9.934562e-01 9.919998e-01 9.902983e-01 9.883113e-01 9.859875e-01 9.832625e-01 9.800607e-01 9.762995e-01 9.718996e-01 9.667965e-01 9.609601e-01 9.544075e-01 9.472231e-01 9.395634e-01 9.316598e-01 9.237936e-01 9.162888e-01 9.094840e-01 9.037171e-01 8.992999e-01 8.965008e-01 8.955268e-01 8.965028e-01 8.993058e-01 9.037271e-01 9.094967e-01 9.163024e-01 9.238058e-01 9.316688e-01 9.395674e-01 9.472216e-01 9.544003e-01 9.609472e-01 9.667784e-01 9.718769e-01 9.762731e-01 9.800315e-01 9.832316e-01 9.859560e-01 9.882800e-01 9.902681e-01 9.919715e-01 9.934302e-01 9.946749e-01 9.957298e-01 9.966148e-01 9.973476e-01 9.979441e-01 9.984194e-01 9.987871e-01 9.990597e-01 9.992470e-01 9.993569e-01 
9.993439e-01 9.993062e-01 9.991901e-01 9.989909e-01 9.987007e-01 9.983090e-01 9.978028e-01 9.971680e-01 9.963887e-01 9.954487e-01 9.943298e-01 9.930120e-01 9.914706e-01 9.896747e-01 9.875838e-01 9.851451e-01 9.822921e-01 9.789459e-01 9.750184e-01 9.704236e-01 9.650888e-01 9.589747e-01 9.520885e-01 9.445050e-01 9.363765e-01 9.279471e-01 9.195143e-01 9.114274e-01 9.040590e-01 8.977868e-01 8.929657e-01 8.899020e-01 8.888335e-01 8.899003e-01 8.929648e-01 8.977878e-01 9.040613e-01 9.114301e-01 9.195158e-01 9.279458e-01 9.363713e-01 9.444952e-01 9.520745e-01 9.589560e-01 9.650655e-01 9.703962e-01 9.749876e-01 9.789126e-01 9.822574e-01 9.851100e-01 9.875491e-01 9.896414e-01 9.914393e-01 9.929833e-01 9.943042e-01 9.954263e-01 9.963696e-01 9.971520e-01 9.977898e-01 9.982987e-01 9.986929e-01 9.989852e-01 9.991864e-01 9.993044e-01 
9.991911e-01 9.991455e-01 9.990050e-01 9.987642e-01 9.984140e-01 9.979423e-01 9.973344e-01 9.965742e-01 9.956446e-01 9.945278e-01 9.932051e-01 9.916560e-01 9.898558e-01 9.877731e-01 9.853658e-01 9.825776e-01 9.793351e-01 9.755483e-01 9.711133e-01 9.659231e-01 9.598798e-01 9.529174e-01 9.450167e-01 9.362325e-01 9.267170e-01 9.167491e-01 9.066776e-01 8.969265e-01 8.879647e-01 8.802765e-01 8.743309e-01 8.705330e-01 8.692020e-01 8.705203e-01 8.743098e-01 8.802507e-01 8.879360e-01 8.968972e-01 9.066472e-01 9.167179e-01 9.266844e-01 9.361983e-01 9.449818e-01 9.528804e-01 9.598402e-01 9.658809e-01 9.710687e-01 9.755021e-01 9.792881e-01 9.825309e-01 9.853203e-01 9.877298e-01 9.898154e-01 9.916192e-01 9.931723e-01 9.944992e-01 9.956202e-01 9.965539e-01 9.973179e-01 9.979292e-01 9.984041e-01 9.987571e-01 9.990004e-01 9.991432e-01 
9.989233e-01 9.988640e-01 9.986812e-01 9.983682e-01 9.979139e-01 9.973034e-01 9.965190e-01 9.955416e-01 9.943512e-01 9.929281e-01 9.912523e-01 9.893030e-01 9.870553e-01 9.844776e-01 9.815250e-01 9.781357e-01 9.742245e-01 9.696830e-01 9.643799e-01 9.581735e-01 9.509245e-01 9.425249e-01 9.329164e-01 9.221304e-01 9.103201e-01 8.978280e-01 8.850906e-01 8.726555e-01 8.611472e-01 8.512162e-01 8.435049e-01 8.385608e-01 8.368199e-01 8.385274e-01 8.434453e-01 8.511391e-01 8.610591e-01 8.725648e-01 8.850000e-01 8.977403e-01 9.102363e-01 9.220511e-01 9.328429e-01 9.424544e-01 9.508552e-01 9.581045e-01 9.643107e-01 9.696138e-01 9.741559e-01 9.780685e-01 9.814604e-01 9.844165e-01 9.869987e-01 9.892516e-01 9.912067e-01 9.928884e-01 9.943175e-01 9.955136e-01 9.964963e-01 9.972855e-01 9.979003e-01 9.983584e-01 9.986748e-01 9.988609e-01 
9.985204e-01 9.984408e-01 9.981952e-01 9.977752e-01 9.971666e-01 9.963503e-01 9.953043e-01 9.940047e-01 9.924276e-01 9.905503e-01 9.883513e-01 9.858093e-01 9.828998e-01 9.795908e-01 9.758345e-01 9.715603e-01 9.666664e-01 9.610168e-01 9.544404e-01 9.467459e-01 9.377362e-01 9.272476e-01 9.151737e-01 9.015233e-01 8.864704e-01 8.704641e-01 8.540774e-01 8.380372e-01 8.231687e-01 8.103198e-01 8.003344e-01 7.939206e-01 7.916508e-01 7.938529e-01 8.002110e-01 8.101575e-01 8.229828e-01 8.378472e-01 8.538900e-01 8.702862e-01 8.863059e-01 9.013730e-01 9.150399e-01 9.271250e-01 9.376210e-01 9.466356e-01 9.543333e-01 9.609124e-01 9.665647e-01 9.714620e-01 9.757406e-01 9.795026e-01 9.828184e-01 9.857356e-01 9.882861e-01 9.904937e-01 9.923796e-01 9.939648e-01 9.952720e-01 9.963250e-01 9.971473e-01 9.977614e-01 9.981862e-01 9.984363e-01 
9.979546e-01 9.978470e-01 9.975150e-01 9.969476e-01 9.961263e-01 9.950265e-01 9.936198e-01 9.918761e-01 9.897660e-01 9.872629e-01 9.843432e-01 9.809856e-01 9.771667e-01 9.728546e-01 9.679976e-01 9.625137e-01 9.562777e-01 9.491156e-01 9.408027e-01 9.310815e-01 9.196817e-01 9.063740e-01 8.910007e-01 8.735655e-01 8.542617e-01 8.337080e-01 8.126612e-01 7.920732e-01 7.730328e-01 7.566238e-01 7.439190e-01 7.357711e-01 7.328766e-01 7.356511e-01 7.436964e-01 7.563270e-01 7.726921e-01 7.917277e-01 8.123228e-01 8.333894e-01 8.539722e-01 8.733068e-01 8.907760e-01 9.061740e-01 9.194992e-01 9.309116e-01 9.406414e-01 9.489611e-01 9.561291e-01 9.623714e-01 9.678625e-01 9.727281e-01 9.770503e-01 9.808804e-01 9.842501e-01 9.871823e-01 9.896977e-01 9.918195e-01 9.935740e-01 9.949905e-01 9.960990e-01 9.969280e-01 9.975023e-01 9.978408e-01 
9.971915e-01 9.970470e-01 9.966011e-01 9.958393e-01 9.947376e-01 9.932640e-01 9.913815e-01 9.890520e-01 9.862386e-01 9.829096e-01 9.790390e-01 9.746061e-01 9.695890e-01 9.639564e-01 9.576512e-01 9.505749e-01 9.425694e-01 9.334079e-01 9.227932e-01 9.103817e-01 8.958130e-01 8.787830e-01 8.590896e-01 8.367512e-01 8.120396e-01 7.858318e-01 7.591549e-01 7.332704e-01 7.095257e-01 6.891810e-01 6.735018e-01 6.634561e-01 6.598665e-01 6.632622e-01 6.731380e-01 6.886917e-01 7.089676e-01 7.327134e-01 7.586098e-01 7.853170e-01 8.115758e-01 8.363407e-01 8.587377e-01 8.784752e-01 8.955375e-01 9.101298e-01 9.225579e-01 9.331855e-01 9.423574e-01 9.503732e-01 9.574603e-01 9.637780e-01 9.694249e-01 9.744578e-01 9.789078e-01 9.827960e-01 9.861424e-01 9.889723e-01 9.913172e-01 9.932134e-01 9.946993e-01 9.958119e-01 9.965833e-01 9.970383e-01 
9.961903e-01 9.959988e-01 9.954075e-01 9.943977e-01 9.929379e-01 9.909869e-01 9.884969e-01 9.854189e-01 9.817068e-01 9.773225e-01 9.722371e-01 9.664308e-01 9.598846e-01 9.525668e-01 9.444124e-01 9.352982e-01 9.250201e-01 9.132784e-01 8.996821e-01 8.837801e-01 8.651123e-01 8.433090e-01 8.181532e-01 7.897508e-01 7.584714e-01 7.255587e-01 6.923235e-01 6.603151e-01 6.312504e-01 6.066234e-01 5.878865e-01 5.759760e-01 5.717084e-01 5.756948e-01 5.873493e-01 6.058886e-01 6.304138e-01 6.594934e-01 6.915119e-01 7.247781e-01 7.577679e-01 7.891349e-01 8.176260e-01 8.428540e-01 8.647107e-01 8.834184e-01 8.993487e-01 9.129669e-01 9.247256e-01 9.350194e-01 9.441492e-01 9.523210e-01 9.596583e-01 9.662263e-01 9.720560e-01 9.771655e-01 9.815738e-01 9.853088e-01 9.884080e-01 9.909172e-01 9.928852e-01 9.943599e-01 9.953831e-01 9.959868e-01 
9.949055e-01 9.946558e-01 9.938839e-01 9.925659e-01 9.906613e-01 9.881171e-01 9.848718e-01 9.808631e-01 9.760329e-01 9.703352e-01 9.637377e-01 9.562217e-01 9.477705e-01 9.383510e-01 9.278834e-01 9.162074e-01 9.030519e-01 8.880182e-01 8.705939e-01 8.502015e-01 8.262793e-01 7.984140e-01 7.664331e-01 7.305975e-01 6.915327e-01 6.509850e-01 6.106940e-01 5.726872e-01 5.387916e-01 5.103289e-01 4.888056e-01 4.751214e-01 4.701791e-01 4.747450e-01 4.880795e-01 5.093273e-01 5.376756e-01 5.716271e-01 6.096110e-01 6.498946e-01 6.905430e-01 7.297239e-01 7.656844e-01 7.977712e-01 8.257160e-01 8.496990e-01 8.701350e-01 8.875932e-01 9.026527e-01 9.158310e-01 9.275286e-01 9.380195e-01 9.474649e-01 9.559449e-01 9.634922e-01 9.701222e-01 9.758523e-01 9.807136e-01 9.847511e-01 9.880224e-01 9.905898e-01 9.925147e-01 9.938508e-01 9.946395e-01 
9.932873e-01 9.929671e-01 9.919764e-01 9.902850e-01 9.878412e-01 9.845778e-01 9.804166e-01 9.752790e-01 9.690921e-01 9.618002e-01 9.533662e-01 9.437727e-01 9.330045e-01 9.210222e-01 9.077223e-01 8.928875e-01 8.761562e-01 8.569999e-01 8.347695e-01 8.087572e-01 7.783459e-01 7.431593e-01 7.032032e-01 6.590908e-01 6.118158e-01 5.637689e-01 5.166810e-01 4.725385e-01 4.337561e-01 4.019484e-01 3.786562e-01 3.641688e-01 3.589403e-01 3.637309e-01 3.778047e-01 4.007479e-01 4.324320e-01 4.713187e-01 5.153377e-01 5.623120e-01 6.104859e-01 6.579177e-01 7.021875e-01 7.422872e-01 7.775821e-01 8.080791e-01 8.341544e-01 8.564348e-01 8.756290e-01 8.923924e-01 9.072562e-01 9.205864e-01 9.326019e-01 9.434073e-01 9.530413e-01 9.615176e-01 9.688523e-01 9.750802e-01 9.802562e-01 9.844518e-01 9.877460e-01 9.902169e-01 9.919325e-01 9.929454e-01 
9.912833e-01 9.908799e-01 9.896304e-01 9.874971e-01 9.844155e-01 9.803014e-01 9.750567e-01 9.685829e-01 9.607892e-01 9.516078e-01 9.409953e-01 9.289341e-01 9.154073e-01 9.003629e-01 8.836581e-01 8.649967e-01 8.438979e-01 8.196830e-01 7.915630e-01 7.587402e-01 7.206202e-01 6.769798e-01 6.281344e-01 5.750876e-01 5.193705e-01 4.638775e-01 4.108579e-01 3.632268e-01 3.226573e-01 2.894190e-01 2.650930e-01 2.497732e-01 2.441271e-01 2.492765e-01 2.641742e-01 2.881505e-01 3.213263e-01 3.620468e-01 4.092992e-01 4.620158e-01 5.177201e-01 5.736192e-01 6.268395e-01 6.758585e-01 7.196284e-01 7.578567e-01 7.907617e-01 8.189502e-01 8.432175e-01 8.643599e-01 8.830590e-01 8.998018e-01 9.148876e-01 9.284607e-01 9.405733e-01 9.512399e-01 9.604765e-01 9.683235e-01 9.748472e-01 9.801370e-01 9.842914e-01 9.874083e-01 9.895732e-01 9.908516e-01 
9.888381e-01 9.883386e-01 9.867901e-01 9.841463e-01 9.803277e-01 9.752309e-01 9.687346e-01 9.607171e-01 9.510660e-01 9.396985e-01 9.265623e-01 9.116373e-01 8.949005e-01 8.762774e-01 8.555693e-01 8.323774e-01 8.060848e-01 7.758565e-01 7.408144e-01 7.001399e-01 6.534289e-01 6.007219e-01 5.428519e-01 4.813256e-01 4.184998e-01 3.586041e-01 3.022394e-01 2.503068e-01 2.060329e-01 1.719159e-01 1.493338e-01 1.361850e-01 1.314468e-01 1.356952e-01 1.485709e-01 1.709273e-01 2.048310e-01 2.490501e-01 3.003227e-01 3.563157e-01 4.166232e-01 4.796632e-01 5.413098e-01 5.993578e-01 6.521974e-01 6.990277e-01 7.398009e-01 7.749307e-01 8.052291e-01 8.315787e-01 8.548186e-01 8.755728e-01 8.942459e-01 9.110388e-01 9.260268e-01 9.392304e-01 9.506673e-01 9.603859e-01 9.684670e-01 9.750209e-01 9.801692e-01 9.840329e-01 9.867170e-01 9.883025e-01 
9.858951e-01 9.852873e-01 9.834016e-01 9.801819e-01 9.755327e-01 9.693289e-01 9.614232e-01 9.516672e-01 9.399226e-01 9.260880e-01 9.100984e-01 8.919278e-01 8.715406e-01 8.488303e-01 8.235270e-01 7.951163e-01 7.628433e-01 7.257571e-01 6.829607e-01 6.337563e-01 5.780254e-01 5.161901e-01 4.494959e-01 3.796800e-01 3.093220e-01 2.412329e-01 1.797734e-01 1.317050e-01 9.769275e-02 7.629400e-02 6.518572e-02 6.012747e-02 5.868171e-02 5.981951e-02 6.481750e-02 7.597163e-02 9.691734e-02 1.303814e-01 1.777075e-01 2.389824e-01 3.076246e-01 3.779861e-01 4.477344e-01 5.146060e-01 5.765622e-01 6.324076e-01 6.817173e-01 7.246175e-01 7.617908e-01 7.941344e-01 8.226038e-01 8.479615e-01 8.707306e-01 8.911843e-01 9.094310e-01 9.255030e-01 9.394234e-01 9.512521e-01 9.610878e-01 9.690657e-01 9.753340e-01 9.800399e-01 9.833101e-01 9.852422e-01 
9.823940e-01 9.816669e-01 9.794089e-01 9.755545e-01 9.699908e-01 9.625700e-01 9.531163e-01 9.414512e-01 9.274062e-01 9.108571e-01 8.917206e-01 8.699615e-01 8.455242e-01 8.182642e-01 7.878310e-01 7.535962e-01 7.146906e-01 6.700955e-01 6.189878e-01 5.607984e-01 4.957227e-01 4.241358e-01 3.476046e-01 2.676408e-01 1.895855e-01 1.244322e-01 7.971155e-02 5.892927e-02 5.484877e-02 6.001716e-02 6.706103e-02 7.241227e-02 7.470799e-02 7.245864e-02 6.725850e-02 6.047769e-02 5.498757e-02 5.844455e-02 7.875552e-02 1.230397e-01 1.878910e-01 2.656288e-01 3.455546e-01 4.223190e-01 4.940257e-01 5.591957e-01 6.174992e-01 6.687278e-01 7.134296e-01 7.524193e-01 7.867227e-01 8.172177e-01 8.445446e-01 8.690583e-01 8.909069e-01 9.101417e-01 9.267946e-01 9.409420e-01 9.527047e-01 9.622472e-01 9.697473e-01 9.753806e-01 9.792970e-01 9.816117e-01 
9.782724e-01 9.774164e-01 9.747574e-01 9.702198e-01 9.636744e-01 9.549505e-01 9.438424e-01 9.301390e-01 9.136368e-01 8.941829e-01 8.716697e-01 8.460469e-01 8.172353e-01 7.850497e-01 7.490644e-01 7.085546e-01 6.625728e-01 6.100861e-01 5.503367e-01 4.828615e-01 4.078646e-01 3.256140e-01 2.386704e-01 1.548429e-01 8.962886e-02 5.854313e-02 5.967773e-02 7.810215e-02 9.859264e-02 1.148958e-01 1.248136e-01 1.297298e-01 1.313872e-01 1.299164e-01 1.252324e-01 1.155133e-01 9.913057e-02 7.851272e-02 5.999754e-02 5.823420e-02 8.825465e-02 1.526537e-01 2.363013e-01 3.235461e-01 4.059120e-01 4.809830e-01 5.485858e-01 6.084748e-01 6.610865e-01 7.071640e-01 7.477516e-01 7.838055e-01 8.160665e-01 8.449655e-01 8.706928e-01 8.933222e-01 9.129003e-01 9.295258e-01 9.433471e-01 9.545625e-01 9.633823e-01 9.700116e-01 9.746236e-01 9.773506e-01 
9.734599e-01 9.724664e-01 9.693826e-01 9.641247e-01 9.565486e-01 9.464629e-01 9.336327e-01 9.178128e-01 8.987594e-01 8.762852e-01 8.502488e-01 8.205816e-01 7.871742e-01 7.498113e-01 7.079973e-01 6.609488e-01 6.076561e-01 5.470956e-01 4.785062e-01 4.013967e-01 3.159445e-01 2.234294e-01 1.343939e-01 7.245555e-02 5.786837e-02 8.162758e-02 1.160083e-01 1.438919e-01 1.621448e-01 1.736781e-01 1.801112e-01 1.833035e-01 1.843898e-01 1.835467e-01 1.805475e-01 1.741377e-01 1.624971e-01 1.444646e-01 1.170383e-01 8.253173e-02 5.788955e-02 7.127972e-02 1.322743e-01 2.211184e-01 3.134948e-01 3.991079e-01 4.764429e-01 5.452267e-01 6.059422e-01 6.593416e-01 7.064746e-01 7.483619e-01 7.858074e-01 8.193124e-01 8.490991e-01 8.752705e-01 8.978907e-01 9.170899e-01 9.330498e-01 9.460073e-01 9.562067e-01 9.638819e-01 9.692276e-01 9.723908e-01 
9.678811e-01 9.667421e-01 9.632138e-01 9.572086e-01 9.485741e-01 9.371029e-01 9.225341e-01 9.045873e-01 8.829747e-01 8.574654e-01 8.278737e-01 7.941037e-01 7.560149e-01 7.133656e-01 6.656192e-01 6.119499e-01 5.513286e-01 4.826979e-01 4.051777e-01 3.181843e-01 2.226821e-01 1.287793e-01 6.693852e-02 6.364642e-02 1.023128e-01 1.468930e-01 1.824645e-01 2.082245e-01 2.247829e-01 2.340838e-01 2.382167e-01 2.397086e-01 2.401207e-01 2.399409e-01 2.385934e-01 2.344490e-01 2.251160e-01 2.088087e-01 1.833936e-01 1.478568e-01 1.032786e-01 6.420324e-02 6.605043e-02 1.265147e-01 2.197392e-01 3.154883e-01 4.027941e-01 4.805453e-01 5.493559e-01 6.100958e-01 6.638597e-01 7.116876e-01 7.544303e-01 7.926303e-01 8.265385e-01 8.562874e-01 8.819679e-01 9.037518e-01 9.218631e-01 9.365821e-01 9.481863e-01 9.569357e-01 9.630411e-01 9.666588e-01 
9.614478e-01 9.601554e-01 9.561639e-01 9.493886e-01 9.396770e-01 9.268177e-01 9.105352e-01 8.905198e-01 8.664298e-01 8.379802e-01 8.049246e-01 7.671308e-01 7.244152e-01 6.765279e-01 6.228890e-01 5.626801e-01 4.948004e-01 4.181582e-01 3.314741e-01 2.345165e-01 1.357260e-01 6.808280e-02 6.637235e-02 1.135806e-01 1.688540e-01 2.154060e-01 2.503401e-01 2.737944e-01 2.874732e-01 2.941468e-01 2.963626e-01 2.966978e-01 2.966977e-01 2.969076e-01 2.966810e-01 2.944386e-01 2.877298e-01 2.742245e-01 2.510535e-01 2.162305e-01 1.699422e-01 1.149220e-01 6.709790e-02 6.703002e-02 1.330705e-01 2.316950e-01 3.289250e-01 4.157872e-01 4.925978e-01 5.605892e-01 6.208939e-01 6.746199e-01 7.226096e-01 7.654507e-01 8.034025e-01 8.366396e-01 8.652881e-01 8.895784e-01 9.097849e-01 9.262386e-01 9.392485e-01 9.490891e-01 9.559760e-01 9.600655e-01 
9.540729e-01 9.526186e-01 9.481448e-01 9.405788e-01 9.297812e-01 9.155507e-01 8.976116e-01 8.756372e-01 8.492472e-01 8.180870e-01 7.818106e-01 7.402289e-01 6.930980e-01 6.401497e-01 5.807800e-01 5.141353e-01 4.391462e-01 3.545269e-01 2.588308e-01 1.551549e-01 7.571864e-02 6.365928e-02 1.133771e-01 1.781729e-01 2.359365e-01 2.819946e-01 3.155826e-01 3.376302e-01 3.500157e-01 3.555035e-01 3.568297e-01 3.565749e-01 3.563525e-01 3.567481e-01 3.570869e-01 3.557383e-01 3.502277e-01 3.379735e-01 3.161685e-01 2.827975e-01 2.370920e-01 1.797370e-01 1.150132e-01 6.425933e-02 7.428708e-02 1.524745e-01 2.559248e-01 3.517985e-01 4.366220e-01 5.117528e-01 5.785134e-01 6.379866e-01 6.910553e-01 7.383327e-01 7.800998e-01 8.165887e-01 8.479817e-01 8.745995e-01 8.967893e-01 9.149207e-01 9.293187e-01 9.402584e-01 9.479455e-01 9.525241e-01 
9.456640e-01 9.440364e-01 9.390544e-01 9.306689e-01 9.187708e-01 9.031890e-01 8.836675e-01 8.598775e-01 8.314023e-01 7.978189e-01 7.586874e-01 7.136989e-01 6.624947e-01 6.047863e-01 5.398978e-01 4.669535e-01 3.849050e-01 2.929595e-01 1.888885e-01 9.404554e-02 6.013083e-02 1.018187e-01 1.731540e-01 2.413680e-01 2.994890e-01 3.455235e-01 3.787191e-01 4.001010e-01 4.118032e-01 4.167011e-01 4.176290e-01 4.171326e-01 4.168168e-01 4.172702e-01 4.178320e-01 4.168913e-01 4.119856e-01 4.003985e-01 3.792582e-01 3.463555e-01 3.007008e-01 2.430065e-01 1.750429e-01 1.035836e-01 6.031842e-02 9.196914e-02 1.856016e-01 2.899325e-01 3.821035e-01 4.643069e-01 5.373691e-01 6.023759e-01 6.602211e-01 7.115964e-01 7.568044e-01 7.961792e-01 8.300239e-01 8.587551e-01 8.827855e-01 9.025197e-01 9.182847e-01 9.303358e-01 9.388493e-01 9.439400e-01 
9.361529e-01 9.343360e-01 9.288079e-01 9.195580e-01 9.065297e-01 8.896081e-01 8.685841e-01 8.431468e-01 8.128531e-01 7.772047e-01 7.356333e-01 6.877000e-01 6.328775e-01 5.707670e-01 5.005443e-01 4.212867e-01 3.326229e-01 2.322031e-01 1.268530e-01 6.383553e-02 8.225039e-02 1.545996e-01 2.306535e-01 2.998180e-01 3.584978e-01 4.047591e-01 4.381696e-01 4.598722e-01 4.720078e-01 4.773539e-01 4.786960e-01 4.784648e-01 4.782355e-01 4.785719e-01 4.788593e-01 4.775230e-01 4.721966e-01 4.601833e-01 4.387271e-01 4.056423e-01 3.597859e-01 3.015062e-01 2.326285e-01 1.567349e-01 8.381533e-02 6.305588e-02 1.240392e-01 2.290502e-01 3.296033e-01 4.183874e-01 4.977575e-01 5.681076e-01 6.303778e-01 6.854009e-01 7.335842e-01 7.754338e-01 8.113773e-01 8.419576e-01 8.676610e-01 8.889173e-01 9.060355e-01 9.192246e-01 9.286055e-01 9.342419e-01 
9.254909e-01 9.234608e-01 9.173274e-01 9.071354e-01 8.929076e-01 8.746169e-01 8.521358e-01 8.251975e-01 7.933478e-01 7.560022e-01 7.124401e-01 6.620407e-01 6.040602e-01 5.379782e-01 4.628463e-01 3.778294e-01 2.834260e-01 1.759159e-01 8.452630e-02 6.476096e-02 1.246134e-01 2.052218e-01 2.828869e-01 3.524941e-01 4.117958e-01 4.587675e-01 4.931623e-01 5.159930e-01 5.293329e-01 5.357894e-01 5.380363e-01 5.383783e-01 5.383409e-01 5.384632e-01 5.381734e-01 5.359532e-01 5.295459e-01 5.163459e-01 4.937692e-01 4.597184e-01 4.131563e-01 3.542523e-01 2.849676e-01 2.074510e-01 1.268528e-01 6.546397e-02 8.266667e-02 1.724921e-01 2.799780e-01 3.746446e-01 4.597805e-01 5.350629e-01 6.013298e-01 6.595454e-01 7.102348e-01 7.541158e-01 7.917958e-01 8.239657e-01 8.511969e-01 8.739286e-01 8.924262e-01 9.068181e-01 9.171389e-01 9.233747e-01 
9.136996e-01 9.114223e-01 9.045964e-01 8.933410e-01 8.777886e-01 8.580384e-01 8.340876e-01 8.057489e-01 7.725820e-01 7.339149e-01 6.888517e-01 6.365604e-01 5.759984e-01 5.066843e-01 4.271267e-01 3.380449e-01 2.367340e-01 1.292456e-01 6.504818e-02 8.743790e-02 1.671948e-01 2.495005e-01 3.276179e-01 3.979891e-01 4.581861e-01 5.064923e-01 5.425763e-01 5.673635e-01 5.827047e-01 5.909906e-01 5.947021e-01 5.959791e-01 5.962619e-01 5.960513e-01 5.948293e-01 5.911663e-01 5.829597e-01 5.677799e-01 5.432576e-01 5.075296e-01 4.596432e-01 3.998653e-01 3.298431e-01 2.519591e-01 1.697824e-01 8.938617e-02 6.435433e-02 1.261857e-01 2.331434e-01 3.346420e-01 4.237704e-01 5.034737e-01 5.730102e-01 6.338593e-01 6.864999e-01 7.319372e-01 7.709881e-01 8.045135e-01 8.331724e-01 8.573891e-01 8.773511e-01 8.930637e-01 9.044379e-01 9.113520e-01 
9.008657e-01 8.982947e-01 8.906533e-01 8.781533e-01 8.610699e-01 8.396709e-01 8.141296e-01 7.843819e-01 7.500388e-01 7.103400e-01 6.642063e-01 6.105237e-01 5.479327e-01 4.758922e-01 3.924355e-01 3.001300e-01 1.929882e-01 9.466527e-02 6.361807e-02 1.207562e-01 2.037383e-01 2.866786e-01 3.645244e-01 4.356701e-01 4.970074e-01 5.471448e-01 5.855336e-01 6.129037e-01 6.308365e-01 6.414453e-01 6.469907e-01 6.494323e-01 6.501155e-01 6.495002e-01 6.471198e-01 6.416430e-01 6.311381e-01 6.133841e-01 5.862840e-01 5.482510e-01 4.985323e-01 4.376167e-01 3.668432e-01 2.892354e-01 2.063466e-01 1.230804e-01 6.391279e-02 9.230962e-02 1.895804e-01 2.966602e-01 3.888754e-01 4.723679e-01 5.446631e-01 6.076030e-01 6.617199e-01 7.083023e-01 7.484484e-01 7.831949e-01 8.132902e-01 8.391080e-01 8.607159e-01 8.779461e-01 8.905445e-01 8.982500e-01 
8.872044e-01 8.842809e-01 8.756643e-01 8.616757e-01 8.427650e-01 8.194126e-01 7.920283e-01 7.607257e-01 7.252272e-01 6.846950e-01 6.379129e-01 5.833889e-01 5.196359e-01 4.456383e-01 3.600301e-01 2.645880e-01 1.559564e-01 7.379385e-02 7.516895e-02 1.512932e-01 2.335079e-01 3.157190e-01 3.934376e-01 4.652147e-01 5.280386e-01 5.803986e-01 6.215896e-01 6.520386e-01 6.730256e-01 6.863585e-01 6.940475e-01 6.978555e-01 6.990103e-01 6.979241e-01 6.941846e-01 6.865798e-01 6.733679e-01 6.525698e-01 6.223901e-01 5.815494e-01 5.296052e-01 4.672102e-01 3.958327e-01 3.183492e-01 2.362170e-01 1.538349e-01 7.677150e-02 7.234514e-02 1.524905e-01 2.604846e-01 3.558380e-01 4.415604e-01 5.159863e-01 5.802441e-01 6.353407e-01 6.826765e-01 7.237314e-01 7.596788e-01 7.913488e-01 8.190078e-01 8.425509e-01 8.615797e-01 8.756315e-01 8.842744e-01 
8.730378e-01 8.696938e-01 8.599121e-01 8.441336e-01 8.230085e-01 7.972722e-01 7.676325e-01 7.344487e-01 6.976299e-01 6.563039e-01 6.091727e-01 5.543301e-01 4.902793e-01 4.152636e-01 3.292332e-01 2.312739e-01 1.256243e-01 6.375511e-02 9.340449e-02 1.744544e-01 2.559786e-01 3.366694e-01 4.143422e-01 4.867721e-01 5.513244e-01 6.061976e-01 6.505101e-01 6.843427e-01 7.086547e-01 7.249341e-01 7.349317e-01 7.402105e-01 7.418743e-01 7.402832e-01 7.350800e-01 7.251771e-01 7.090261e-01 6.849012e-01 6.513223e-01 6.073368e-01 5.528559e-01 4.887302e-01 4.167358e-01 3.393889e-01 2.589174e-01 1.773209e-01 9.594437e-02 6.334526e-02 1.220690e-01 2.261029e-01 3.240344e-01 4.104361e-01 4.862052e-01 5.510116e-01 6.066182e-01 6.544307e-01 6.963584e-01 7.336630e-01 7.672176e-01 7.971107e-01 8.229991e-01 8.441944e-01 8.599838e-01 8.697388e-01 
8.588422e-01 8.550084e-01 8.438616e-01 8.259641e-01 8.021786e-01 7.735287e-01 7.410751e-01 7.055001e-01 6.669877e-01 6.247103e-01 5.773652e-01 5.226611e-01 4.591377e-01 3.842432e-01 2.992267e-01 2.002628e-01 1.010943e-01 6.139849e-02 1.117599e-01 1.908037e-01 2.710179e-01 3.502164e-01 4.279293e-01 5.011557e-01 5.676145e-01 6.251568e-01 6.727315e-01 7.100580e-01 7.377808e-01 7.570741e-01 7.694301e-01 7.762143e-01 7.783993e-01 7.762894e-01 7.695838e-01 7.573244e-01 7.381556e-01 7.106047e-01 6.735015e-01 6.262145e-01 5.690235e-01 5.029787e-01 4.302292e-01 3.530039e-01 2.742959e-01 1.942999e-01 1.148564e-01 6.141720e-02 9.781812e-02 1.948813e-01 2.938206e-01 3.793669e-01 4.551616e-01 5.195919e-01 5.751699e-01 6.232685e-01 6.661755e-01 7.051659e-01 7.410727e-01 7.737211e-01 8.024522e-01 8.262335e-01 8.440684e-01 8.551190e-01 
8.451901e-01 8.408102e-01 8.281260e-01 8.078106e-01 7.809344e-01 7.488222e-01 7.129228e-01 6.743203e-01 6.335630e-01 5.900014e-01 5.424202e-01 4.883144e-01 4.262155e-01 3.531426e-01 2.707564e-01 1.742120e-01 8.384579e-02 6.353887e-02 1.256241e-01 2.014196e-01 2.797451e-01 3.576679e-01 4.353911e-01 5.094929e-01 5.778620e-01 6.380617e-01 6.888391e-01 7.295769e-01 7.606129e-01 7.828270e-01 7.974658e-01 8.057083e-01 8.083994e-01 8.057854e-01 7.976217e-01 7.830757e-01 7.609721e-01 7.300787e-01 6.895119e-01 6.389472e-01 5.789948e-01 5.109207e-01 4.371548e-01 3.597942e-01 2.822219e-01 2.040820e-01 1.281202e-01 6.395660e-02 8.097385e-02 1.693304e-01 2.659729e-01 3.490111e-01 4.229740e-01 4.860056e-01 5.409825e-01 5.893064e-01 6.334539e-01 6.746234e-01 7.134688e-01 7.494642e-01 7.815549e-01 8.083291e-01 8.284908e-01 8.409964e-01 
8.327474e-01 8.277948e-01 8.134807e-01 7.905650e-01 7.602945e-01 7.242858e-01 6.843705e-01 6.420933e-01 5.984264e-01 5.530635e-01 5.049467e-01 4.516090e-01 3.914002e-01 3.213383e-01 2.422339e-01 1.504884e-01 7.074817e-02 6.719017e-02 1.344177e-01 2.077752e-01 2.839311e-01 3.608808e-01 4.384984e-01 5.134636e-01 5.835741e-01 6.462272e-01 6.999330e-01 7.437843e-01 7.778365e-01 8.027075e-01 8.194233e-01 8.289939e-01 8.321458e-01 8.290683e-01 8.195708e-01 8.029361e-01 7.781514e-01 7.442000e-01 7.004509e-01 6.468600e-01 5.843138e-01 5.143233e-01 4.394632e-01 3.619620e-01 2.850901e-01 2.090344e-01 1.358623e-01 6.811622e-02 6.910037e-02 1.473345e-01 2.393348e-01 3.189944e-01 3.897152e-01 4.506806e-01 5.047294e-01 5.534546e-01 5.992639e-01 6.432026e-01 6.855770e-01 7.254485e-01 7.613043e-01 7.913558e-01 8.140153e-01 8.280615e-01 
8.221792e-01 8.166716e-01 8.007766e-01 7.753075e-01 7.416358e-01 7.016231e-01 6.574388e-01 6.110969e-01 5.640112e-01 5.163719e-01 4.673622e-01 4.148451e-01 3.569291e-01 2.909377e-01 2.161326e-01 1.303296e-01 6.158879e-02 7.089035e-02 1.386666e-01 2.102424e-01 2.846384e-01 3.610239e-01 4.385845e-01 5.143735e-01 5.859888e-01 6.507655e-01 7.069780e-01 7.534908e-01 7.901142e-01 8.172481e-01 8.357325e-01 8.464350e-01 8.499809e-01 8.465070e-01 8.358718e-01 8.174559e-01 7.903837e-01 7.538201e-01 7.073438e-01 6.511553e-01 5.863607e-01 5.147219e-01 4.388748e-01 3.613091e-01 2.849453e-01 2.107853e-01 1.396273e-01 7.198204e-02 6.075161e-02 1.284832e-01 2.148610e-01 2.903085e-01 3.568711e-01 4.154124e-01 4.684738e-01 5.179292e-01 5.658427e-01 6.130338e-01 6.593088e-01 7.032998e-01 7.430244e-01 7.763636e-01 8.014781e-01 8.170199e-01 
8.141071e-01 8.081212e-01 7.908696e-01 7.631958e-01 7.265434e-01 6.829468e-01 6.348158e-01 5.845652e-01 5.339921e-01 4.838577e-01 4.336117e-01 3.816893e-01 3.259473e-01 2.642256e-01 1.941837e-01 1.145169e-01 5.552484e-02 7.392200e-02 1.408982e-01 2.111520e-01 2.841135e-01 3.600734e-01 4.375204e-01 5.139369e-01 5.866699e-01 6.530604e-01 7.111705e-01 7.597041e-01 7.982785e-01 8.271306e-01 8.469585e-01 8.585212e-01 8.623658e-01 8.585874e-01 8.470832e-01 8.273088e-01 7.984924e-01 7.599376e-01 7.113791e-01 6.532120e-01 5.866962e-01 5.138226e-01 4.372215e-01 3.596780e-01 2.836869e-01 2.109876e-01 1.412309e-01 7.479643e-02 5.489372e-02 1.131247e-01 1.938586e-01 2.648135e-01 3.272096e-01 3.835361e-01 4.358882e-01 4.864336e-01 5.366837e-01 5.872076e-01 6.372466e-01 6.850578e-01 7.282539e-01 7.644783e-01 7.917150e-01 8.085413e-01 
8.090346e-01 8.027228e-01 7.845471e-01 7.553635e-01 7.166458e-01 6.705227e-01 6.195358e-01 5.663633e-01 5.130482e-01 4.608269e-01 4.093745e-01 3.577092e-01 3.034898e-01 2.450337e-01 1.787592e-01 1.037415e-01 5.179319e-02 7.562680e-02 1.416915e-01 2.111472e-01 2.831681e-01 3.588579e-01 4.362140e-01 5.130433e-01 5.864914e-01 6.539214e-01 7.132456e-01 7.630711e-01 8.028893e-01 8.328353e-01 8.535179e-01 8.656278e-01 8.696635e-01 8.656922e-01 8.536367e-01 8.329999e-01 8.030753e-01 7.632542e-01 7.133702e-01 6.539460e-01 5.863371e-01 5.126964e-01 4.356352e-01 3.581634e-01 2.824485e-01 2.107213e-01 1.418015e-01 7.641222e-02 5.139004e-02 1.028342e-01 1.791097e-01 2.464228e-01 3.056258e-01 3.604079e-01 4.124304e-01 4.640830e-01 5.163119e-01 5.694744e-01 6.223399e-01 6.729236e-01 7.185727e-01 7.567994e-01 7.854908e-01 8.031922e-01 
8.073009e-01 8.008726e-01 7.823664e-01 7.526415e-01 7.131794e-01 6.661367e-01 6.140850e-01 5.597955e-01 5.053884e-01 4.522978e-01 4.002875e-01 3.486663e-01 2.950117e-01 2.378915e-01 1.732038e-01 1.000945e-01 5.064604e-02 7.623361e-02 1.420192e-01 2.112122e-01 2.829085e-01 3.584882e-01 4.357962e-01 5.127513e-01 5.864291e-01 6.542023e-01 7.139301e-01 7.641876e-01 8.044226e-01 8.347355e-01 8.557049e-01 8.679982e-01 8.720971e-01 8.680595e-01 8.558170e-01 8.348879e-01 8.045878e-01 7.643377e-01 7.140042e-01 6.541548e-01 5.861769e-01 5.122831e-01 4.350775e-01 3.576512e-01 2.820613e-01 2.106886e-01 1.420637e-01 7.698724e-02 5.017874e-02 9.909392e-02 1.735734e-01 2.394177e-01 2.973594e-01 3.515974e-01 4.035679e-01 4.557540e-01 5.088232e-01 5.630482e-01 6.170037e-01 6.686282e-01 7.151761e-01 7.541277e-01 7.833427e-01 8.013584e-01 
8.090346e-01 8.027228e-01 7.845471e-01 7.553635e-01 7.166458e-01 6.705227e-01 6.195358e-01 5.663633e-01 5.130482e-01 4.608269e-01 4.093745e-01 3.577092e-01 3.034898e-01 2.450337e-01 1.787592e-01 1.037415e-01 5.179319e-02 7.562680e-02 1.416915e-01 2.111472e-01 2.831681e-01 3.588579e-01 4.362140e-01 5.130433e-01 5.864914e-01 6.539214e-01 7.132456e-01 7.630711e-01 8.028893e-01 8.328353e-01 8.535179e-01 8.656278e-01 8.696635e-01 8.656922e-01 8.536367e-01 8.329999e-01 8.030753e-01 7.632542e-01 7.133702e-01 6.539460e-01 5.863371e-01 5.126964e-01 4.356352e-01 3.581634e-01 2.824485e-01 2.107213e-01 1.418015e-01 7.641222e-02 5.139004e-02 1.028342e-01 1.791097e-01 2.464228e-01 3.056258e-01 3.604079e-01 4.124304e-01 4.640830e-01 5.163119e-01 5.694744e-01 6.223399e-01 6.729236e-01 7.185727e-01 7.567994e-01 7.854908e-01 8.031922e-01 
8.141071e-01 8.081212e-01 7.908696e-01 7.631958e-01 7.265434e-01 6.829468e-01 6.348158e-01 5.845652e-01 5.339921e-01 4.838577e-01 4.336117e-01 3.816893e-01 3.259473e-01 2.642256e-01 1.941837e-01 1.145169e-01 5.552484e-02 7.392200e-02 1.408982e-01 2.111520e-01 2.841135e-01 3.600734e-01 4.375204e-01 5.139369e-01 5.866699e-01 6.530604e-01 7.111705e-01 7.597041e-01 7.982785e-01 8.271306e-01 8.469585e-01 8.585212e-01 8.623658e-01 8.585874e-01 8.470832e-01 8.273088e-01 7.984924e-01 7.599376e-01 7.113791e-01 6.532120e-01 5.866962e-01 5.138226e-01 4.372215e-01 3.596780e-01 2.836869e-01 2.109876e-01 1.412309e-01 7.479643e-02 5.489372e-02 1.131247e-01 1.938586e-01 2.648135e-01 3.272096e-01 3.835361e-01 4.358882e-01 4.864336e-01 5.366837e-01 5.872076e-01 6.372466e-01 6.850578e-01 7.282539e-01 7.644783e-01 7.917150e-01 8.085413e-01 