# vtk DataFile Version 2.0
Comment goes here
ASCII

DATASET STRUCTURED_POINTS
FIELD FieldData 1
TIME 1 1 double
0.60000000
DIMENSIONS    64   64   1

ORIGIN    0.000   0.000   0.000
SPACING   0.015625 0.015625   1.000

POINT_DATA   4096
SCALARS Concentration double
LOOKUP_TABLE default

9.990675e-01 9.990210e-01 9.988773e-01 9.986314e-01 9.982751e-01 9.977972e-01 9.971838e-01 9.964193e-01 9.954859e-01 9.943640e-01 9.930311e-01 9.914609e-01 9.896207e-01 9.874694e-01 9.849542e-01 9.820095e-01 9.785561e-01 9.745052e-01 9.697656e-01 9.642565e-01 9.579240e-01 9.507592e-01 9.428153e-01 9.342198e-01 9.251762e-01 9.159601e-01 9.068978e-01 8.983525e-01 8.906907e-01 8.842689e-01 8.794024e-01 8.763519e-01 8.753055e-01 8.763463e-01 8.793937e-01 8.842596e-01 8.906803e-01 8.983418e-01 9.068860e-01 9.159454e-01 9.251591e-01 9.341979e-01 9.427897e-01 9.507280e-01 9.578885e-01 9.642165e-01 9.697223e-01 9.744593e-01 9.785088e-01 9.819620e-01 9.849075e-01 9.874246e-01 9.895786e-01 9.914221e-01 9.929962e-01 9.943332e-01 9.954593e-01 9.963969e-01 9.971653e-01 9.977824e-01 9.982637e-01 9.986232e-01 9.988719e-01 9.990183e-01 
9.990009e-01 9.989514e-01 9.987986e-01 9.985372e-01 9.981586e-01 9.976513e-01 9.970009e-01 9.961912e-01 9.952042e-01 9.940199e-01 9.926156e-01 9.909649e-01 9.890346e-01 9.867827e-01 9.841554e-01 9.810848e-01 9.774882e-01 9.732715e-01 9.683369e-01 9.625952e-01 9.559836e-01 9.484845e-01 9.401440e-01 9.310860e-01 9.215160e-01 9.117191e-01 9.020388e-01 8.928636e-01 8.845917e-01 8.776268e-01 8.723307e-01 8.690002e-01 8.678551e-01 8.689878e-01 8.723088e-01 8.776008e-01 8.845618e-01 8.928337e-01 9.020085e-01 9.116877e-01 9.214841e-01 9.310511e-01 9.401073e-01 9.484438e-01 9.559400e-01 9.625480e-01 9.682871e-01 9.732198e-01 9.774356e-01 9.810324e-01 9.841042e-01 9.867338e-01 9.889886e-01 9.909227e-01 9.925776e-01 9.939864e-01 9.951753e-01 9.961668e-01 9.969808e-01 9.976352e-01 9.981463e-01 9.985283e-01 9.987928e-01 9.989486e-01 
9.987970e-01 9.987385e-01 9.985578e-01 9.982491e-01 9.978026e-01 9.972055e-01 9.964421e-01 9.954948e-01 9.943442e-01 9.929696e-01 9.913476e-01 9.894512e-01 9.872464e-01 9.846891e-01 9.817214e-01 9.782689e-01 9.742382e-01 9.695195e-01 9.639944e-01 9.575490e-01 9.500939e-01 9.415856e-01 9.320500e-01 9.216013e-01 9.104522e-01 8.989174e-01 8.873924e-01 8.763472e-01 8.662759e-01 8.577109e-01 8.511468e-01 8.469891e-01 8.455520e-01 8.469549e-01 8.510832e-01 8.576316e-01 8.661837e-01 8.762554e-01 8.873020e-01 8.988313e-01 9.103726e-01 9.215254e-01 9.319790e-01 9.415157e-01 9.500255e-01 9.574800e-01 9.639254e-01 9.694502e-01 9.741696e-01 9.782017e-01 9.816564e-01 9.846274e-01 9.871888e-01 9.893986e-01 9.913003e-01 9.929280e-01 9.943084e-01 9.954646e-01 9.964173e-01 9.971857e-01 9.977874e-01 9.982380e-01 9.985506e-01 9.987350e-01 
9.984424e-01 9.983683e-01 9.981397e-01 9.977494e-01 9.971861e-01 9.964345e-01 9.954766e-01 9.942924e-01 9.928604e-01 9.911585e-01 9.891623e-01 9.868440e-01 9.841681e-01 9.810872e-01 9.775369e-01 9.734311e-01 9.686578e-01 9.630802e-01 9.565450e-01 9.488967e-01 9.400014e-01 9.297736e-01 9.182070e-01 9.054041e-01 8.915921e-01 8.771426e-01 8.625438e-01 8.484091e-01 8.353994e-01 8.242577e-01 8.156761e-01 8.102102e-01 8.083125e-01 8.101379e-01 8.155393e-01 8.240853e-01 8.351978e-01 8.482087e-01 8.623469e-01 8.769590e-01 8.914272e-01 9.052545e-01 9.180746e-01 9.296511e-01 9.398885e-01 9.487887e-01 9.564416e-01 9.629797e-01 9.685607e-01 9.733374e-01 9.774476e-01 9.810031e-01 9.840901e-01 9.867728e-01 9.890986e-01 9.911026e-01 9.928123e-01 9.942519e-01 9.954434e-01 9.964081e-01 9.971658e-01 9.977347e-01 9.981301e-01 9.983637e-01 
9.979147e-01 9.978180e-01 9.975190e-01 9.970092e-01 9.962746e-01 9.952966e-01 9.940536e-01 9.925221e-01 9.906778e-01 9.884964e-01 9.859524e-01 9.830168e-01 9.796523e-01 9.758066e-01 9.714054e-01 9.663457e-01 9.604879e-01 9.536557e-01 9.456463e-01 9.362458e-01 9.252605e-01 9.125504e-01 8.980734e-01 8.819226e-01 8.643596e-01 8.458391e-01 8.269822e-01 8.085949e-01 7.915334e-01 7.768109e-01 7.654026e-01 7.580905e-01 7.555419e-01 7.579572e-01 7.651486e-01 7.764899e-01 7.911582e-01 8.082234e-01 8.266165e-01 8.454999e-01 8.640597e-01 8.816574e-01 8.978461e-01 9.123476e-01 9.250804e-01 9.360792e-01 9.454915e-01 9.535087e-01 9.603483e-01 9.662129e-01 9.712800e-01 9.756892e-01 9.795436e-01 9.829180e-01 9.858641e-01 9.884191e-01 9.906113e-01 9.924663e-01 9.940078e-01 9.952602e-01 9.962466e-01 9.969890e-01 9.975059e-01 9.978116e-01 
9.971838e-01 9.970562e-01 9.966617e-01 9.959896e-01 9.950222e-01 9.937367e-01 9.921063e-01 9.901032e-01 9.876988e-01 9.848666e-01 9.815791e-01 9.778064e-01 9.735086e-01 9.686266e-01 9.630724e-01 9.567188e-01 9.493888e-01 9.408528e-01 9.308427e-01 9.190701e-01 9.052692e-01 8.892382e-01 8.708991e-01 8.503496e-01 8.279017e-01 8.041326e-01 7.798379e-01 7.560897e-01 7.340191e-01 7.150081e-01 7.003143e-01 6.908865e-01 6.876000e-01 6.906731e-01 6.999041e-01 7.144902e-01 7.334115e-01 7.554894e-01 7.792411e-01 8.035768e-01 8.274145e-01 8.499229e-01 8.705400e-01 8.889230e-01 9.049947e-01 9.188208e-01 9.306151e-01 9.406400e-01 9.491894e-01 9.565308e-01 9.628960e-01 9.684623e-01 9.733570e-01 9.776689e-01 9.814563e-01 9.847591e-01 9.876066e-01 9.900258e-01 9.920429e-01 9.936862e-01 9.949835e-01 9.959617e-01 9.966436e-01 9.970474e-01 
9.962120e-01 9.960445e-01 9.955259e-01 9.946431e-01 9.933735e-01 9.916887e-01 9.895553e-01 9.869396e-01 9.838079e-01 9.801303e-01 9.758772e-01 9.710174e-01 9.655072e-01 9.592786e-01 9.522242e-01 9.441843e-01 9.349323e-01 9.241713e-01 9.115539e-01 8.967070e-01 8.792902e-01 8.590480e-01 8.358932e-01 8.099543e-01 7.816536e-01 7.517134e-01 7.211551e-01 6.913162e-01 6.634673e-01 6.393455e-01 6.206078e-01 6.085150e-01 6.043040e-01 6.081970e-01 6.199926e-01 6.385735e-01 6.625617e-01 6.904238e-01 7.202492e-01 7.508581e-01 7.809119e-01 8.093114e-01 8.353610e-01 8.585858e-01 8.788921e-01 8.963489e-01 9.112304e-01 9.238718e-01 9.346539e-01 9.439237e-01 9.519807e-01 9.590524e-01 9.652988e-01 9.708284e-01 9.757085e-01 9.799826e-01 9.836811e-01 9.868333e-01 9.894682e-01 9.916194e-01 9.933204e-01 9.946048e-01 9.955012e-01 9.960324e-01 
9.949559e-01 9.947382e-01 9.940639e-01 9.929164e-01 9.912671e-01 9.890807e-01 9.863153e-01 9.829298e-01 9.788840e-01 9.741438e-01 9.686769e-01 9.624498e-01 9.554137e-01 9.474877e-01 9.385387e-01 9.283635e-01 9.166746e-01 9.030930e-01 8.871852e-01 8.684905e-01 8.466099e-01 8.212593e-01 7.923797e-01 7.601809e-01 7.252090e-01 6.883721e-01 6.508926e-01 6.144263e-01 5.805660e-01 5.516339e-01 5.294387e-01 5.151554e-01 5.102028e-01 5.147398e-01 5.286227e-01 5.506131e-01 5.793530e-01 6.132271e-01 6.496317e-01 6.871589e-01 7.241740e-01 7.592876e-01 7.916474e-01 8.206202e-01 8.460577e-01 8.679933e-01 8.867367e-01 9.026801e-01 9.162927e-01 9.280081e-01 9.382078e-01 9.471809e-01 9.551314e-01 9.621939e-01 9.684484e-01 9.739438e-01 9.787122e-01 9.827858e-01 9.861972e-01 9.889869e-01 9.911953e-01 9.928646e-01 9.940305e-01 9.947218e-01 
9.933670e-01 9.930881e-01 9.922235e-01 9.907524e-01 9.886390e-01 9.858390e-01 9.823004e-01 9.779727e-01 9.728073e-01 9.667647e-01 9.598086e-01 9.519020e-01 9.429881e-01 9.329683e-01 9.216751e-01 9.088501e-01 8.941322e-01 8.770545e-01 8.570971e-01 8.337349e-01 8.065450e-01 7.752791e-01 7.399892e-01 7.010378e-01 6.592427e-01 6.156845e-01 5.720237e-01 5.300415e-01 4.907519e-01 4.567305e-01 4.302250e-01 4.129404e-01 4.069229e-01 4.124266e-01 4.292035e-01 4.554715e-01 4.892461e-01 5.285267e-01 5.703399e-01 6.140267e-01 6.578793e-01 6.998815e-01 7.390525e-01 7.744507e-01 8.058184e-01 8.330742e-01 8.564973e-01 8.765029e-01 8.936226e-01 9.083775e-01 9.212358e-01 9.325616e-01 9.426139e-01 9.515626e-01 9.595051e-01 9.664989e-01 9.725788e-01 9.777810e-01 9.821432e-01 9.857141e-01 9.885434e-01 9.906835e-01 9.921790e-01 9.930664e-01 
9.913936e-01 9.910417e-01 9.899502e-01 9.880931e-01 9.854260e-01 9.818940e-01 9.774326e-01 9.719799e-01 9.654766e-01 9.578765e-01 9.491370e-01 9.392158e-01 9.280441e-01 9.154988e-01 9.013698e-01 8.853313e-01 8.669442e-01 8.456525e-01 8.208775e-01 7.920622e-01 7.588384e-01 7.210611e-01 6.789863e-01 6.332161e-01 5.847854e-01 5.349545e-01 4.853968e-01 4.379435e-01 3.941502e-01 3.574438e-01 3.296987e-01 3.117109e-01 3.054508e-01 3.111501e-01 3.285768e-01 3.560564e-01 3.924061e-01 4.361362e-01 4.832906e-01 5.328980e-01 5.832073e-01 6.318849e-01 6.778953e-01 7.200510e-01 7.579161e-01 7.912058e-01 8.200897e-01 8.449275e-01 8.662747e-01 8.847128e-01 9.007961e-01 9.149687e-01 9.275564e-01 9.387734e-01 9.487410e-01 9.575293e-01 9.651779e-01 9.717293e-01 9.772270e-01 9.817308e-01 9.853011e-01 9.880032e-01 9.898921e-01 9.910134e-01 
9.889815e-01 9.885447e-01 9.871889e-01 9.848823e-01 9.815701e-01 9.771852e-01 9.716478e-01 9.648824e-01 9.568159e-01 9.473930e-01 9.365618e-01 9.242712e-01 9.104349e-01 8.948979e-01 8.773982e-01 8.575336e-01 8.347847e-01 8.085258e-01 7.781447e-01 7.431224e-01 7.031811e-01 6.583763e-01 6.091846e-01 5.565191e-01 5.017900e-01 4.462429e-01 3.931388e-01 3.444826e-01 2.994131e-01 2.600589e-01 2.287605e-01 2.077202e-01 2.003007e-01 2.070766e-01 2.275471e-01 2.586031e-01 2.975039e-01 3.423990e-01 3.906010e-01 4.438567e-01 5.001747e-01 5.551759e-01 6.080386e-01 6.572232e-01 7.020584e-01 7.420511e-01 7.771415e-01 8.076002e-01 8.339282e-01 8.567443e-01 8.766662e-01 8.942222e-01 9.098129e-01 9.237064e-01 9.360555e-01 9.469485e-01 9.564331e-01 9.645609e-01 9.713841e-01 9.769758e-01 9.814099e-01 9.847670e-01 9.871145e-01 9.885085e-01 
9.860745e-01 9.855412e-01 9.838844e-01 9.810663e-01 9.770200e-01 9.716645e-01 9.649020e-01 9.566411e-01 9.467911e-01 9.352849e-01 9.220571e-01 9.070438e-01 8.901347e-01 8.711353e-01 8.497247e-01 8.254213e-01 7.976357e-01 7.656885e-01 7.289911e-01 6.870736e-01 6.398260e-01 5.874438e-01 5.307008e-01 4.708697e-01 4.097785e-01 3.488044e-01 2.892847e-01 2.329343e-01 1.845403e-01 1.486106e-01 1.249116e-01 1.101601e-01 1.051786e-01 1.096251e-01 1.239968e-01 1.473991e-01 1.824923e-01 2.306730e-01 2.866995e-01 3.467276e-01 4.085975e-01 4.696835e-01 5.295104e-01 5.860885e-01 6.384117e-01 6.857127e-01 7.277092e-01 7.645136e-01 7.965516e-01 8.244274e-01 8.488048e-01 8.702878e-01 8.893544e-01 9.063350e-01 9.214208e-01 9.347258e-01 9.463091e-01 9.562361e-01 9.645699e-01 9.714007e-01 9.768184e-01 9.809213e-01 9.837910e-01 9.854958e-01 
9.826153e-01 9.819747e-01 9.799832e-01 9.765964e-01 9.717344e-01 9.653008e-01 9.571771e-01 9.472528e-01 9.354153e-01 9.215813e-01 9.056664e-01 8.875878e-01 8.672038e-01 8.442719e-01 8.184070e-01 7.890481e-01 7.555427e-01 7.171781e-01 6.733833e-01 6.237555e-01 5.681925e-01 5.070265e-01 4.409401e-01 3.717386e-01 3.005902e-01 2.283919e-01 1.644009e-01 1.132379e-01 7.914073e-02 6.044620e-02 5.073278e-02 4.588119e-02 4.455228e-02 4.561535e-02 5.043985e-02 6.021619e-02 7.790131e-02 1.115684e-01 1.623802e-01 2.267149e-01 2.995038e-01 3.704687e-01 4.395190e-01 5.053142e-01 5.663462e-01 6.220201e-01 6.717673e-01 7.157178e-01 7.542014e-01 7.878238e-01 8.172752e-01 8.432302e-01 8.662439e-01 8.867148e-01 9.048818e-01 9.208911e-01 9.348199e-01 9.467524e-01 9.567669e-01 9.649753e-01 9.714859e-01 9.764179e-01 9.798684e-01 9.819190e-01 
9.785431e-01 9.777856e-01 9.754298e-01 9.714248e-01 9.656773e-01 9.580747e-01 9.484753e-01 9.367470e-01 9.227497e-01 9.063799e-01 8.875257e-01 8.660815e-01 8.418644e-01 8.145809e-01 7.837732e-01 7.488032e-01 7.089591e-01 6.634910e-01 6.118659e-01 5.536565e-01 4.887928e-01 4.173230e-01 3.402029e-01 2.593379e-01 1.797176e-01 1.106188e-01 6.966173e-02 5.127281e-02 4.751103e-02 5.215012e-02 5.965498e-02 6.609855e-02 6.843220e-02 6.623597e-02 6.008358e-02 5.274378e-02 4.759636e-02 5.104576e-02 6.877006e-02 1.089859e-01 1.777343e-01 2.569866e-01 3.378154e-01 4.148288e-01 4.862068e-01 5.513793e-01 6.098191e-01 6.616840e-01 7.073184e-01 7.473155e-01 7.824023e-01 8.133201e-01 8.407025e-01 8.650238e-01 8.865743e-01 9.055424e-01 9.220273e-01 9.361401e-01 9.479784e-01 9.576810e-01 9.653772e-01 9.712098e-01 9.752917e-01 9.777187e-01 
9.737944e-01 9.729122e-01 9.701683e-01 9.655069e-01 9.588211e-01 9.499831e-01 9.388260e-01 9.251933e-01 9.089117e-01 8.898502e-01 8.678611e-01 8.428058e-01 8.144537e-01 7.824483e-01 7.462605e-01 7.051609e-01 6.583977e-01 6.051923e-01 5.450790e-01 4.776221e-01 4.026472e-01 3.202861e-01 2.321396e-01 1.458595e-01 8.104119e-02 5.282270e-02 5.427864e-02 7.167645e-02 9.259047e-02 1.065496e-01 1.145571e-01 1.192541e-01 1.207280e-01 1.195116e-01 1.152108e-01 1.073108e-01 9.352273e-02 7.269921e-02 5.484475e-02 5.247742e-02 7.962054e-02 1.429854e-01 2.290563e-01 3.170365e-01 3.993089e-01 4.748377e-01 5.426370e-01 6.030475e-01 6.564499e-01 7.033921e-01 7.446296e-01 7.809469e-01 8.130692e-01 8.415446e-01 8.667264e-01 8.888516e-01 9.080511e-01 9.244714e-01 9.382361e-01 9.495168e-01 9.584667e-01 9.652536e-01 9.700062e-01 9.728338e-01 
9.682972e-01 9.672840e-01 9.641339e-01 9.587884e-01 9.511295e-01 9.410162e-01 9.282559e-01 9.126668e-01 8.940349e-01 8.721956e-01 8.469517e-01 8.181269e-01 7.854275e-01 7.484387e-01 7.065455e-01 6.589556e-01 6.048754e-01 5.435726e-01 4.746430e-01 3.976019e-01 3.122518e-01 2.192994e-01 1.279334e-01 6.586852e-02 5.261662e-02 7.398616e-02 1.062224e-01 1.319517e-01 1.520433e-01 1.648319e-01 1.719962e-01 1.757438e-01 1.767972e-01 1.760027e-01 1.726089e-01 1.654415e-01 1.529372e-01 1.329992e-01 1.071746e-01 7.497840e-02 5.286219e-02 6.447899e-02 1.250179e-01 2.155675e-01 3.084719e-01 3.945190e-01 4.719359e-01 5.411290e-01 6.026286e-01 6.568946e-01 7.046390e-01 7.466783e-01 7.838028e-01 8.166460e-01 8.456202e-01 8.710250e-01 8.930280e-01 9.118243e-01 9.275695e-01 9.404753e-01 9.507200e-01 9.584969e-01 9.639480e-01 9.671943e-01 
9.619763e-01 9.608274e-01 9.572587e-01 9.512134e-01 9.425664e-01 9.311689e-01 9.168047e-01 8.992664e-01 8.782926e-01 8.536765e-01 8.251565e-01 7.925034e-01 7.553499e-01 7.132062e-01 6.653884e-01 6.110266e-01 5.493769e-01 4.797265e-01 4.018025e-01 3.148471e-01 2.190902e-01 1.232560e-01 6.058708e-02 5.664868e-02 9.249222e-02 1.368430e-01 1.731551e-01 1.986357e-01 2.158746e-01 2.252282e-01 2.294735e-01 2.310811e-01 2.314396e-01 2.312919e-01 2.299416e-01 2.257167e-01 2.166144e-01 1.994349e-01 1.739017e-01 1.379705e-01 9.386108e-02 5.741604e-02 5.936674e-02 1.198216e-01 2.153556e-01 3.118326e-01 3.989956e-01 4.770297e-01 5.468300e-01 6.086520e-01 6.631802e-01 7.111614e-01 7.534640e-01 7.907863e-01 8.236165e-01 8.523266e-01 8.771357e-01 8.983020e-01 9.160224e-01 9.305553e-01 9.421040e-01 9.508858e-01 9.570507e-01 9.607274e-01 
9.547447e-01 9.534555e-01 9.494581e-01 9.427033e-01 9.330659e-01 9.203981e-01 9.044647e-01 8.850352e-01 8.617945e-01 8.344848e-01 8.027596e-01 7.663255e-01 7.247154e-01 6.773759e-01 6.235435e-01 5.623611e-01 4.931252e-01 4.153247e-01 3.285325e-01 2.318619e-01 1.309257e-01 6.061963e-02 5.762886e-02 1.028669e-01 1.579178e-01 2.056679e-01 2.410649e-01 2.641112e-01 2.782490e-01 2.851756e-01 2.878279e-01 2.884073e-01 2.884557e-01 2.885611e-01 2.881570e-01 2.855261e-01 2.787636e-01 2.647295e-01 2.417933e-01 2.067972e-01 1.595169e-01 1.048248e-01 5.866390e-02 5.924801e-02 1.278767e-01 2.287761e-01 3.253862e-01 4.122687e-01 4.902377e-01 5.596541e-01 6.210192e-01 6.750331e-01 7.225559e-01 7.643632e-01 8.010055e-01 8.329535e-01 8.604882e-01 8.839519e-01 9.035907e-01 9.197167e-01 9.325554e-01 9.423438e-01 9.492311e-01 9.533469e-01 
9.465212e-01 9.450868e-01 9.406502e-01 9.331787e-01 9.225581e-01 9.086545e-01 8.912222e-01 8.700146e-01 8.446572e-01 8.148329e-01 7.800864e-01 7.400401e-01 6.941012e-01 6.416362e-01 5.818436e-01 5.138681e-01 4.372559e-01 3.515535e-01 2.559667e-01 1.520945e-01 6.828574e-02 5.357510e-02 1.015405e-01 1.657066e-01 2.247988e-01 2.720757e-01 3.062429e-01 3.280208e-01 3.404115e-01 3.457504e-01 3.471603e-01 3.469028e-01 3.466863e-01 3.470043e-01 3.473697e-01 3.459800e-01 3.407495e-01 3.284736e-01 3.068663e-01 2.730920e-01 2.263174e-01 1.677595e-01 1.035952e-01 5.463365e-02 6.658237e-02 1.484785e-01 2.519954e-01 3.479566e-01 4.339207e-01 5.107554e-01 5.789499e-01 6.389585e-01 6.916455e-01 7.378209e-01 7.781147e-01 8.131226e-01 8.432080e-01 8.688212e-01 8.902666e-01 9.079150e-01 9.220086e-01 9.327947e-01 9.404093e-01 9.449721e-01 
9.372210e-01 9.356329e-01 9.307386e-01 9.225333e-01 9.109280e-01 8.958208e-01 8.769692e-01 8.541193e-01 8.268335e-01 7.947252e-01 7.572020e-01 7.137800e-01 6.637029e-01 6.062658e-01 5.406402e-01 4.661019e-01 3.825293e-01 2.897521e-01 1.853344e-01 8.768974e-02 4.903238e-02 9.000364e-02 1.604832e-01 2.290278e-01 2.882102e-01 3.348725e-01 3.681641e-01 3.892640e-01 4.010051e-01 4.059615e-01 4.071960e-01 4.068571e-01 4.066308e-01 4.069259e-01 4.073348e-01 4.061266e-01 4.012589e-01 3.896606e-01 3.687835e-01 3.358805e-01 2.896633e-01 2.309465e-01 1.626066e-01 9.220945e-02 4.921257e-02 8.483822e-02 1.813310e-01 2.859789e-01 3.789498e-01 4.626556e-01 5.373935e-01 6.032487e-01 6.609411e-01 7.112986e-01 7.550130e-01 7.928419e-01 8.252518e-01 8.528292e-01 8.759465e-01 8.950380e-01 9.103525e-01 9.221353e-01 9.304913e-01 9.355160e-01 
9.267940e-01 9.250383e-01 9.196544e-01 9.106794e-01 8.980689e-01 8.817778e-01 8.615856e-01 8.372486e-01 8.082639e-01 7.741713e-01 7.342075e-01 6.877708e-01 6.338853e-01 5.717985e-01 5.006616e-01 4.198369e-01 3.302495e-01 2.302624e-01 1.237791e-01 5.323722e-02 6.880473e-02 1.403988e-01 2.167932e-01 2.870850e-01 3.462080e-01 3.926365e-01 4.260015e-01 4.475579e-01 4.598205e-01 4.653421e-01 4.670407e-01 4.669975e-01 4.668766e-01 4.670431e-01 4.671332e-01 4.654677e-01 4.600340e-01 4.479308e-01 4.266296e-01 3.936520e-01 3.476826e-01 2.890220e-01 2.191390e-01 1.430983e-01 7.082584e-02 5.223908e-02 1.202680e-01 2.261245e-01 3.263874e-01 4.159992e-01 4.970209e-01 5.684088e-01 6.307969e-01 6.850206e-01 7.318057e-01 7.721293e-01 8.065699e-01 8.358851e-01 8.605202e-01 8.809744e-01 8.974874e-01 9.102831e-01 9.194114e-01 9.249247e-01 
9.152136e-01 9.132676e-01 9.073372e-01 8.975185e-01 8.838362e-01 8.663314e-01 8.448333e-01 8.191289e-01 7.886548e-01 7.528688e-01 7.108064e-01 6.617231e-01 6.043798e-01 5.379852e-01 4.616828e-01 3.748957e-01 2.800268e-01 1.728829e-01 7.762748e-02 5.062869e-02 1.091984e-01 1.897335e-01 2.679579e-01 3.382767e-01 3.976477e-01 4.445494e-01 4.789237e-01 5.018497e-01 5.156042e-01 5.225538e-01 5.254208e-01 5.261359e-01 5.262840e-01 5.261779e-01 5.255090e-01 5.226969e-01 5.158548e-01 5.022942e-01 4.796624e-01 4.457105e-01 3.993025e-01 3.404610e-01 2.706527e-01 1.927793e-01 1.122939e-01 5.170182e-02 7.507017e-02 1.686241e-01 2.758084e-01 3.706716e-01 4.575896e-01 5.341750e-01 6.009190e-01 6.586815e-01 7.081871e-01 7.506831e-01 7.868742e-01 8.177236e-01 8.437581e-01 8.655386e-01 8.832757e-01 8.971452e-01 9.071130e-01 9.131644e-01 
9.025386e-01 9.003680e-01 8.938040e-01 8.830197e-01 8.681383e-01 8.493244e-01 8.264928e-01 7.994941e-01 7.677147e-01 7.305405e-01 6.867659e-01 6.355483e-01 5.752624e-01 5.053967e-01 4.245438e-01 3.336362e-01 2.335105e-01 1.253013e-01 5.304501e-02 7.139757e-02 1.517187e-01 2.338376e-01 3.123597e-01 3.824002e-01 4.421671e-01 4.901903e-01 5.263333e-01 5.514423e-01 5.674400e-01 5.764494e-01 5.809390e-01 5.826950e-01 5.832026e-01 5.827394e-01 5.810366e-01 5.766219e-01 5.677425e-01 5.519618e-01 5.271699e-01 4.914586e-01 4.439254e-01 3.846910e-01 3.150757e-01 2.369543e-01 1.548114e-01 7.366239e-02 5.178945e-02 1.214341e-01 2.290085e-01 3.291955e-01 4.199976e-01 5.011487e-01 5.714091e-01 6.322170e-01 6.839539e-01 7.282464e-01 7.658936e-01 7.980988e-01 8.254587e-01 8.485879e-01 8.676369e-01 8.826983e-01 8.936178e-01 9.002845e-01 
8.888933e-01 8.864500e-01 8.791246e-01 8.671875e-01 8.508929e-01 8.305706e-01 8.062659e-01 7.779341e-01 7.449361e-01 7.065993e-01 6.614690e-01 6.085909e-01 5.459257e-01 4.733575e-01 3.886942e-01 2.952798e-01 1.902731e-01 8.888121e-02 4.808154e-02 1.016811e-01 1.871324e-01 2.701908e-01 3.478814e-01 4.182344e-01 4.788751e-01 5.287390e-01 5.673268e-01 5.952609e-01 6.140947e-01 6.256622e-01 6.321660e-01 6.352135e-01 6.361705e-01 6.352717e-01 6.322949e-01 6.258917e-01 6.144808e-01 5.958896e-01 5.682967e-01 5.301566e-01 4.808005e-01 4.207056e-01 3.507731e-01 2.734985e-01 1.903018e-01 1.049277e-01 4.867139e-02 8.581165e-02 1.856875e-01 2.905243e-01 3.835552e-01 4.685356e-01 5.416188e-01 6.049620e-01 6.584999e-01 7.042563e-01 7.431454e-01 7.766183e-01 8.053386e-01 8.299477e-01 8.504970e-01 8.669520e-01 8.789979e-01 8.863959e-01 
8.745380e-01 8.717571e-01 8.635036e-01 8.501625e-01 8.321550e-01 8.100165e-01 7.839822e-01 7.541571e-01 7.199322e-01 6.805870e-01 6.344584e-01 5.804463e-01 5.161988e-01 4.418807e-01 3.548596e-01 2.602005e-01 1.520784e-01 6.383594e-02 5.710789e-02 1.321428e-01 2.155679e-01 2.986683e-01 3.753449e-01 4.461021e-01 5.079997e-01 5.601152e-01 6.016111e-01 6.327945e-01 6.548480e-01 6.692882e-01 6.780368e-01 6.825209e-01 6.839726e-01 6.825930e-01 6.781960e-01 6.695667e-01 6.553017e-01 6.335009e-01 6.026640e-01 5.616053e-01 5.099892e-01 4.486092e-01 3.782656e-01 3.019135e-01 2.187722e-01 1.355928e-01 5.905072e-02 6.184155e-02 1.475735e-01 2.547279e-01 3.489465e-01 4.364089e-01 5.114896e-01 5.766184e-01 6.314601e-01 6.783271e-01 7.183003e-01 7.530375e-01 7.832630e-01 8.095901e-01 8.319292e-01 8.500597e-01 8.634669e-01 8.717476e-01 
8.598243e-01 8.566301e-01 8.472520e-01 8.322027e-01 8.121035e-01 7.877321e-01 7.595780e-01 7.279476e-01 6.923391e-01 6.520138e-01 6.051753e-01 5.505393e-01 4.856073e-01 4.105279e-01 3.229823e-01 2.283746e-01 1.219325e-01 5.068235e-02 7.215325e-02 1.561397e-01 2.370742e-01 3.186205e-01 3.946332e-01 4.659403e-01 5.294985e-01 5.842051e-01 6.289286e-01 6.636284e-01 6.891283e-01 7.066229e-01 7.177533e-01 7.237606e-01 7.257356e-01 7.238476e-01 7.179428e-01 7.069458e-01 6.896365e-01 6.643898e-01 6.300312e-01 5.857324e-01 5.315343e-01 4.685207e-01 3.977524e-01 3.221675e-01 2.409229e-01 1.599922e-01 7.501272e-02 4.947500e-02 1.172096e-01 2.217012e-01 3.163132e-01 4.045535e-01 4.807376e-01 5.467501e-01 6.023755e-01 6.500394e-01 6.910435e-01 7.271745e-01 7.591905e-01 7.876000e-01 8.121220e-01 8.322854e-01 8.473394e-01 8.566823e-01 
8.452447e-01 8.415606e-01 8.308567e-01 8.137807e-01 7.911795e-01 7.640982e-01 7.333429e-01 6.994686e-01 6.621829e-01 6.207611e-01 5.734041e-01 5.185573e-01 4.538088e-01 3.786823e-01 2.920151e-01 1.972689e-01 9.715596e-02 4.594631e-02 8.846771e-02 1.725681e-01 2.522010e-01 3.313983e-01 4.070245e-01 4.788721e-01 5.442784e-01 6.016649e-01 6.497135e-01 6.879815e-01 7.169647e-01 7.375345e-01 7.510573e-01 7.585938e-01 7.610893e-01 7.586900e-01 7.512641e-01 7.378773e-01 7.174872e-01 6.887362e-01 6.507747e-01 6.031020e-01 5.461835e-01 4.813060e-01 4.100699e-01 3.349883e-01 2.563391e-01 1.765881e-01 9.203066e-02 4.564940e-02 9.261770e-02 1.906593e-01 2.858718e-01 3.732404e-01 4.495365e-01 5.153535e-01 5.712088e-01 6.193806e-01 6.614627e-01 6.992274e-01 7.334291e-01 7.643670e-01 7.915197e-01 8.141026e-01 8.311020e-01 8.416912e-01 
8.313562e-01 8.271186e-01 8.149210e-01 7.955446e-01 7.700737e-01 7.398285e-01 7.059787e-01 6.693687e-01 6.300227e-01 5.872991e-01 5.395473e-01 4.849727e-01 4.213826e-01 3.474857e-01 2.631172e-01 1.692817e-01 7.737571e-02 4.624580e-02 1.022338e-01 1.823247e-01 2.607643e-01 3.377987e-01 4.133240e-01 4.858400e-01 5.531996e-01 6.132555e-01 6.645665e-01 7.062936e-01 7.386358e-01 7.621643e-01 7.779842e-01 7.869889e-01 7.899805e-01 7.870893e-01 7.781959e-01 7.625044e-01 7.391348e-01 7.069828e-01 6.654949e-01 6.144617e-01 5.547487e-01 4.877688e-01 4.157100e-01 3.405853e-01 2.639690e-01 1.854822e-01 1.055606e-01 4.700398e-02 7.409262e-02 1.644144e-01 2.587365e-01 3.436380e-01 4.184663e-01 4.829308e-01 5.383748e-01 5.868278e-01 6.301117e-01 6.698345e-01 7.066674e-01 7.405920e-01 7.708017e-01 7.961509e-01 8.153525e-01 8.273416e-01 
8.187901e-01 8.139679e-01 8.001925e-01 7.783690e-01 7.498118e-01 7.161030e-01 6.787921e-01 6.390310e-01 5.972463e-01 5.529572e-01 5.048069e-01 4.508630e-01 3.892021e-01 3.178676e-01 2.370628e-01 1.461895e-01 6.299697e-02 4.872588e-02 1.117935e-01 1.875041e-01 2.642039e-01 3.396448e-01 4.152554e-01 4.885242e-01 5.577512e-01 6.202616e-01 6.745590e-01 7.194274e-01 7.548207e-01 7.810329e-01 7.989366e-01 8.092731e-01 8.127114e-01 8.093709e-01 7.991385e-01 7.813450e-01 7.552570e-01 7.199938e-01 6.752722e-01 6.211223e-01 5.587826e-01 4.897342e-01 4.166963e-01 3.413147e-01 2.661588e-01 1.896331e-01 1.143342e-01 4.995577e-02 6.094928e-02 1.429364e-01 2.344227e-01 3.158309e-01 3.879313e-01 4.502898e-01 5.049169e-01 5.536039e-01 5.982993e-01 6.403162e-01 6.801614e-01 7.174146e-01 7.509631e-01 7.792825e-01 8.008240e-01 8.142900e-01 
8.081660e-01 8.027798e-01 7.874821e-01 7.632827e-01 7.316985e-01 6.945379e-01 6.537063e-01 6.106493e-01 5.662314e-01 5.201965e-01 4.715853e-01 4.184459e-01 3.591036e-01 2.911308e-01 2.145704e-01 1.280789e-01 5.337557e-02 5.153768e-02 1.175383e-01 1.899441e-01 2.646403e-01 3.388219e-01 4.144904e-01 4.884378e-01 5.592850e-01 6.238900e-01 6.807383e-01 7.282739e-01 7.662583e-01 7.947470e-01 8.144177e-01 8.258836e-01 8.296983e-01 8.259753e-01 8.146023e-01 7.950193e-01 7.666155e-01 7.286962e-01 6.812101e-01 6.243730e-01 5.597599e-01 4.888825e-01 4.149369e-01 3.393310e-01 2.653387e-01 1.910100e-01 1.191662e-01 5.269466e-02 5.212546e-02 1.260455e-01 2.134551e-01 2.908053e-01 3.594786e-01 4.193924e-01 4.730338e-01 5.220074e-01 5.682745e-01 6.127658e-01 6.557569e-01 6.963934e-01 7.332666e-01 7.644972e-01 7.883091e-01 8.031990e-01 
8.000680e-01 7.942035e-01 7.776140e-01 7.513887e-01 7.172024e-01 6.770362e-01 6.330848e-01 5.870380e-01 5.401525e-01 4.924143e-01 4.432690e-01 3.908458e-01 3.336360e-01 2.689475e-01 1.963538e-01 1.145161e-01 4.729259e-02 5.392387e-02 1.207033e-01 1.909665e-01 2.638825e-01 3.371480e-01 4.127849e-01 4.872445e-01 5.593023e-01 6.254845e-01 6.842641e-01 7.338180e-01 7.737699e-01 8.039875e-01 8.250026e-01 8.373280e-01 8.414280e-01 8.374116e-01 8.251662e-01 8.042161e-01 7.740460e-01 7.341007e-01 6.845108e-01 6.256276e-01 5.592904e-01 4.870380e-01 4.124019e-01 3.366965e-01 2.635275e-01 1.910513e-01 1.214663e-01 5.480149e-02 4.642103e-02 1.132097e-01 1.962622e-01 2.698772e-01 3.352988e-01 3.930382e-01 4.458413e-01 4.952148e-01 5.430387e-01 5.898620e-01 6.357135e-01 6.793517e-01 7.191218e-01 7.528566e-01 7.786051e-01 7.947041e-01 
7.949735e-01 7.887859e-01 7.713237e-01 7.437257e-01 7.077661e-01 6.655343e-01 6.194128e-01 5.712522e-01 5.225797e-01 4.735672e-01 4.239729e-01 3.720319e-01 3.163430e-01 2.540553e-01 1.843122e-01 1.059714e-01 4.380223e-02 5.522970e-02 1.220643e-01 1.911771e-01 2.629086e-01 3.356098e-01 4.111924e-01 4.859667e-01 5.587832e-01 6.259565e-01 6.859576e-01 7.367836e-01 7.779778e-01 8.092854e-01 8.311484e-01 8.440157e-01 8.482950e-01 8.440934e-01 8.312971e-01 8.094838e-01 7.781987e-01 7.369724e-01 6.860550e-01 6.258769e-01 5.584579e-01 4.853511e-01 4.103012e-01 3.345895e-01 2.619453e-01 1.907195e-01 1.223789e-01 5.599027e-02 4.313173e-02 1.050096e-01 1.847548e-01 2.557260e-01 3.188173e-01 3.750392e-01 4.272930e-01 4.770333e-01 5.260372e-01 5.745580e-01 6.224362e-01 6.681645e-01 7.099260e-01 7.453672e-01 7.724276e-01 7.893426e-01 
7.932192e-01 7.869157e-01 7.691398e-01 7.410485e-01 7.044503e-01 6.614741e-01 6.145671e-01 5.656386e-01 5.163065e-01 4.668136e-01 4.170282e-01 3.652430e-01 3.100872e-01 2.486612e-01 1.799283e-01 1.029194e-01 4.267765e-02 5.578311e-02 1.225993e-01 1.913322e-01 2.626173e-01 3.351125e-01 4.106496e-01 4.855190e-01 5.585762e-01 6.260760e-01 6.864818e-01 7.377332e-01 7.793442e-01 8.110195e-01 8.331690e-01 8.462202e-01 8.505602e-01 8.462952e-01 8.333111e-01 8.112048e-01 7.795422e-01 7.378843e-01 6.865207e-01 6.259113e-01 5.581328e-01 4.847514e-01 4.095716e-01 3.338817e-01 2.614281e-01 1.906654e-01 1.227392e-01 5.647385e-02 4.205555e-02 1.020596e-01 1.805264e-01 2.505667e-01 3.128281e-01 3.685244e-01 4.206009e-01 4.705069e-01 5.199610e-01 5.691116e-01 6.177279e-01 6.642139e-01 7.066939e-01 7.427501e-01 7.702826e-01 7.874917e-01 
7.949735e-01 7.887859e-01 7.713237e-01 7.437257e-01 7.077661e-01 6.655343e-01 6.194128e-01 5.712522e-01 5.225797e-01 4.735672e-01 4.239729e-01 3.720319e-01 3.163430e-01 2.540553e-01 1.843122e-01 1.059714e-01 4.380223e-02 5.522970e-02 1.220643e-01 1.911771e-01 2.629086e-01 3.356098e-01 4.111924e-01 4.859667e-01 5.587832e-01 6.259565e-01 6.859576e-01 7.367836e-01 7.779778e-01 8.092854e-01 8.311484e-01 8.440157e-01 8.482950e-01 8.440934e-01 8.312971e-01 8.094838e-01 7.781987e-01 7.369724e-01 6.860550e-01 6.258769e-01 5.584579e-01 4.853511e-01 4.103012e-01 3.345895e-01 2.619453e-01 1.907195e-01 1.223789e-01 5.599027e-02 4.313173e-02 1.050096e-01 1.847548e-01 2.557260e-01 3.188173e-01 3.750392e-01 4.272930e-01 4.770333e-01 5.260372e-01 5.745580e-01 6.224362e-01 6.681645e-01 7.099260e-01 7.453672e-01 7.724276e-01 7.893426e-01 
8.000680e-01 7.942035e-01 7.776140e-01 7.513887e-01 7.172024e-01 6.770362e-01 6.330848e-01 5.870380e-01 5.401525e-01 4.924143e-01 4.432690e-01 3.908458e-01 3.336360e-01 2.689475e-01 1.963538e-01 1.145161e-01 4.729259e-02 5.392387e-02 1.207033e-01 1.909665e-01 2.638825e-01 3.371480e-01 4.127849e-01 4.872445e-01 5.593023e-01 6.254845e-01 6.842641e-01 7.338180e-01 7.737699e-01 8.039875e-01 8.250026e-01 8.373280e-01 8.414280e-01 8.374116e-01 8.251662e-01 8.042161e-01 7.740460e-01 7.341007e-01 6.845108e-01 6.256276e-01 5.592904e-01 4.870380e-01 4.124019e-01 3.366965e-01 2.635275e-01 1.910513e-01 1.214663e-01 5.480149e-02 4.642103e-02 1.132097e-01 1.962622e-01 2.698772e-01 3.352988e-01 3.930382e-01 4.458413e-01 4.952148e-01 5.430387e-01 5.898620e-01 6.357135e-01 6.793517e-01 7.191218e-01 7.528566e-01 7.786051e-01 7.947041e-01 