# vtk DataFile Version 2.0
Comment goes here
ASCII

DATASET STRUCTURED_POINTS
FIELD FieldData 1
TIME 1 1 double
1.07000000
DIMENSIONS    64   64   1

ORIGIN    0.000   0.000   0.000
SPACING   0.015625 0.015625   1.000

POINT_DATA   4096
SCALARS Concentration double
LOOKUP_TABLE default

9.849265e-01 9.847436e-01 9.841456e-01 9.831231e-01 9.816577e-01 9.797228e-01 9.772793e-01 9.742766e-01 9.706473e-01 9.663091e-01 9.611599e-01 9.550830e-01 9.479452e-01 9.396091e-01 9.299375e-01 9.188141e-01 9.061554e-01 8.919352e-01 8.761982e-01 8.590754e-01 8.407886e-01 8.216430e-01 8.020166e-01 7.823317e-01 7.630480e-01 7.446286e-01 7.275333e-01 7.121847e-01 6.989761e-01 6.882462e-01 6.802882e-01 6.753348e-01 6.735606e-01 6.750808e-01 6.798081e-01 6.875705e-01 6.981365e-01 7.112173e-01 7.264733e-01 7.435139e-01 7.619113e-01 7.812055e-01 8.009239e-01 8.206027e-01 8.398095e-01 8.581654e-01 8.753565e-01 8.911611e-01 9.054432e-01 9.181594e-01 9.293345e-01 9.390535e-01 9.474336e-01 9.546130e-01 9.607306e-01 9.659196e-01 9.702984e-01 9.739684e-01 9.770132e-01 9.794991e-01 9.814778e-01 9.829871e-01 9.840545e-01 9.846976e-01 
9.845098e-01 9.843247e-01 9.837185e-01 9.826819e-01 9.811968e-01 9.792367e-01 9.767628e-01 9.737247e-01 9.700550e-01 9.656712e-01 9.604709e-01 9.543365e-01 9.471341e-01 9.387242e-01 9.289679e-01 9.177459e-01 9.049716e-01 8.906146e-01 8.747158e-01 8.574013e-01 8.388886e-01 8.194783e-01 7.995437e-01 7.795003e-01 7.598086e-01 7.409401e-01 7.233673e-01 7.075319e-01 6.938532e-01 6.827010e-01 6.744020e-01 6.692207e-01 6.673549e-01 6.689331e-01 6.738594e-01 6.819413e-01 6.929167e-01 7.064635e-01 7.222096e-01 7.397366e-01 7.585955e-01 7.783116e-01 7.984029e-01 8.184010e-01 8.378808e-01 8.564686e-01 8.738555e-01 8.898247e-01 9.042451e-01 9.170779e-01 9.283521e-01 9.381561e-01 9.466102e-01 9.538546e-01 9.600300e-01 9.652708e-01 9.696959e-01 9.734073e-01 9.764885e-01 9.790060e-01 9.810111e-01 9.825415e-01 9.836244e-01 9.842772e-01 
9.832546e-01 9.830628e-01 9.824322e-01 9.813539e-01 9.798102e-01 9.777755e-01 9.752115e-01 9.720682e-01 9.682785e-01 9.637597e-01 9.584082e-01 9.521044e-01 9.447110e-01 9.360843e-01 9.260787e-01 9.145671e-01 9.014533e-01 8.866954e-01 8.703216e-01 8.524445e-01 8.332680e-01 8.130795e-01 7.922405e-01 7.711542e-01 7.502866e-01 7.301288e-01 7.111919e-01 6.939700e-01 6.789578e-01 6.666114e-01 6.573508e-01 6.515283e-01 6.494050e-01 6.511461e-01 6.566325e-01 6.656151e-01 6.777476e-01 6.926149e-01 7.097555e-01 7.286711e-01 7.488537e-01 7.697842e-01 7.909571e-01 8.118911e-01 8.321735e-01 8.514431e-01 8.694048e-01 8.858571e-01 9.006832e-01 9.138585e-01 9.254237e-01 9.354783e-01 9.441502e-01 9.515866e-01 9.579328e-01 9.633266e-01 9.678890e-01 9.717230e-01 9.749125e-01 9.775236e-01 9.796072e-01 9.812003e-01 9.823292e-01 9.830108e-01 
9.811407e-01 9.809381e-01 9.802671e-01 9.791197e-01 9.774792e-01 9.753208e-01 9.726074e-01 9.692900e-01 9.653015e-01 9.605588e-01 9.549565e-01 9.483720e-01 9.406629e-01 9.316777e-01 9.212617e-01 9.092747e-01 8.956057e-01 8.801949e-01 8.630514e-01 8.442672e-01 8.240261e-01 8.025965e-01 7.803244e-01 7.576016e-01 7.349032e-01 7.127502e-01 6.917087e-01 6.723527e-01 6.552881e-01 6.411033e-01 6.303611e-01 6.235500e-01 6.210287e-01 6.230197e-01 6.293679e-01 6.397371e-01 6.536499e-01 6.705496e-01 6.898378e-01 7.108970e-01 7.331298e-01 7.559518e-01 7.788205e-01 8.012368e-01 8.227979e-01 8.431593e-01 8.620460e-01 8.792795e-01 8.947648e-01 9.084990e-01 9.205414e-01 9.310078e-01 9.400391e-01 9.477929e-01 9.544220e-01 9.600697e-01 9.648597e-01 9.688972e-01 9.722663e-01 9.750328e-01 9.772466e-01 9.789436e-01 9.801489e-01 9.808784e-01 
9.781340e-01 9.779164e-01 9.771896e-01 9.759465e-01 9.741714e-01 9.718413e-01 9.689203e-01 9.653605e-01 9.610954e-01 9.560412e-01 9.500905e-01 9.431164e-01 9.349700e-01 9.254906e-01 9.145107e-01 9.018744e-01 8.874515e-01 8.711604e-01 8.529864e-01 8.329965e-01 8.113513e-01 7.882975e-01 7.641651e-01 7.393356e-01 7.143005e-01 6.896153e-01 6.659162e-01 6.438711e-01 6.242277e-01 6.077352e-01 5.951359e-01 5.870858e-01 5.840655e-01 5.863668e-01 5.937920e-01 6.058961e-01 6.220411e-01 6.414929e-01 6.634870e-01 6.872554e-01 7.120925e-01 7.373306e-01 7.623815e-01 7.867205e-01 8.099523e-01 8.317506e-01 8.518634e-01 8.701401e-01 8.865121e-01 9.010037e-01 9.136968e-01 9.247283e-01 9.342551e-01 9.424486e-01 9.494705e-01 9.554711e-01 9.605782e-01 9.648991e-01 9.685182e-01 9.715012e-01 9.738962e-01 9.757379e-01 9.770495e-01 9.778457e-01 
9.741870e-01 9.739506e-01 9.731529e-01 9.717879e-01 9.698412e-01 9.672919e-01 9.641055e-01 9.602357e-01 9.556164e-01 9.501630e-01 9.437657e-01 9.362929e-01 9.275881e-01 9.174795e-01 9.057857e-01 8.923318e-01 8.769675e-01 8.595856e-01 8.401477e-01 8.186951e-01 7.953671e-01 7.703921e-01 7.440892e-01 7.168376e-01 6.891503e-01 6.616219e-01 6.349567e-01 6.099180e-01 5.873999e-01 5.683281e-01 5.536448e-01 5.442013e-01 5.406159e-01 5.432626e-01 5.518927e-01 5.659389e-01 5.845756e-01 6.068715e-01 6.318812e-01 6.586792e-01 6.864487e-01 7.144337e-01 7.419949e-01 7.685744e-01 7.937775e-01 8.172914e-01 8.388856e-01 8.584363e-01 8.759027e-01 8.913374e-01 9.048478e-01 9.165938e-01 9.267509e-01 9.355056e-01 9.430304e-01 9.494837e-01 9.549975e-01 9.596820e-01 9.636218e-01 9.668820e-01 9.695091e-01 9.715360e-01 9.729836e-01 9.738652e-01 
9.692408e-01 9.689821e-01 9.680989e-01 9.665864e-01 9.644320e-01 9.616168e-01 9.581082e-01 9.538615e-01 9.488109e-01 9.428712e-01 9.359298e-01 9.278498e-01 9.184669e-01 9.075972e-01 8.950441e-01 8.806133e-01 8.641319e-01 8.454689e-01 8.245616e-01 8.014303e-01 7.761980e-01 7.490845e-01 7.204066e-01 6.905481e-01 6.600554e-01 6.295599e-01 5.998362e-01 5.717294e-01 5.462873e-01 5.246014e-01 5.078156e-01 4.969680e-01 4.928111e-01 4.957982e-01 5.056329e-01 5.216276e-01 5.427786e-01 5.679599e-01 5.960580e-01 6.259869e-01 6.568263e-01 6.877245e-01 7.179882e-01 7.470153e-01 7.744036e-01 7.998497e-01 8.231353e-01 8.441610e-01 8.629083e-01 8.794593e-01 8.939450e-01 9.065507e-01 9.174701e-01 9.269070e-01 9.350446e-01 9.420504e-01 9.480607e-01 9.531889e-01 9.575196e-01 9.611176e-01 9.640271e-01 9.662792e-01 9.678924e-01 9.688781e-01 
9.632260e-01 9.629418e-01 9.619587e-01 9.602736e-01 9.578756e-01 9.547481e-01 9.508602e-01 9.461690e-01 9.406088e-01 9.340936e-01 9.265076e-01 9.177083e-01 9.075228e-01 8.957544e-01 8.821908e-01 8.666159e-01 8.488357e-01 8.286928e-01 8.061062e-01 7.810791e-01 7.537330e-01 7.242938e-01 6.930976e-01 6.605541e-01 6.272611e-01 5.938977e-01 5.612846e-01 5.303121e-01 5.021426e-01 4.780084e-01 4.592375e-01 4.470568e-01 4.423479e-01 4.456489e-01 4.566082e-01 4.744260e-01 4.979176e-01 5.257802e-01 5.567638e-01 5.896634e-01 6.234902e-01 6.573075e-01 6.903575e-01 7.219723e-01 7.517248e-01 7.793027e-01 8.044876e-01 8.271914e-01 8.474134e-01 8.652598e-01 8.808860e-01 8.945024e-01 9.063223e-01 9.165673e-01 9.254320e-01 9.330936e-01 9.396930e-01 9.453469e-01 9.501400e-01 9.541371e-01 9.573799e-01 9.598978e-01 9.617062e-01 9.628146e-01 
9.560672e-01 9.557540e-01 9.546569e-01 9.527742e-01 9.500965e-01 9.466100e-01 9.422854e-01 9.370813e-01 9.309318e-01 9.237497e-01 9.154156e-01 9.057808e-01 8.946634e-01 8.818526e-01 8.671189e-01 8.502231e-01 8.309471e-01 8.091089e-01 7.846092e-01 7.574465e-01 7.277515e-01 6.957857e-01 6.619264e-01 6.266350e-01 5.905980e-01 5.545414e-01 5.193297e-01 4.858522e-01 4.553870e-01 4.292490e-01 4.088930e-01 3.956590e-01 3.905034e-01 3.940339e-01 4.058486e-01 4.250825e-01 4.504482e-01 4.805305e-01 5.140158e-01 5.496009e-01 5.862593e-01 6.229533e-01 6.588528e-01 6.931944e-01 7.254983e-01 7.554305e-01 7.827447e-01 8.073554e-01 8.292648e-01 8.486037e-01 8.655481e-01 8.803369e-01 8.932033e-01 9.043891e-01 9.141006e-01 9.225258e-01 9.298101e-01 9.360743e-01 9.414034e-01 9.458621e-01 9.494902e-01 9.523148e-01 9.543486e-01 9.555991e-01 
9.476840e-01 9.473387e-01 9.461128e-01 9.440062e-01 9.410114e-01 9.371172e-01 9.322955e-01 9.265063e-01 9.196826e-01 9.117356e-01 9.025411e-01 8.919433e-01 8.797497e-01 8.657330e-01 8.496436e-01 8.312131e-01 8.101963e-01 7.863789e-01 7.596495e-01 7.300029e-01 6.976082e-01 6.627884e-01 6.260168e-01 5.878662e-01 5.491804e-01 5.107924e-01 4.735518e-01 4.382322e-01 4.061228e-01 3.785489e-01 3.570382e-01 3.430202e-01 3.375078e-01 3.411878e-01 3.535860e-01 3.738023e-01 4.004586e-01 4.320780e-01 4.673785e-01 5.050836e-01 5.442376e-01 5.837201e-01 6.225782e-01 6.598840e-01 6.950509e-01 7.276759e-01 7.574599e-01 7.842929e-01 8.081741e-01 8.292534e-01 8.477327e-01 8.638830e-01 8.779629e-01 8.902380e-01 9.009285e-01 9.102350e-01 9.183079e-01 9.252734e-01 9.312168e-01 9.362038e-01 9.402719e-01 9.434468e-01 9.457379e-01 9.471508e-01 
9.379990e-01 9.376180e-01 9.362467e-01 9.338879e-01 9.305354e-01 9.261811e-01 9.207976e-01 9.143457e-01 9.067567e-01 8.979387e-01 8.877620e-01 8.760615e-01 8.626322e-01 8.472253e-01 8.295653e-01 8.093450e-01 7.862821e-01 7.601245e-01 7.307434e-01 6.981498e-01 6.625654e-01 6.244380e-01 5.843767e-01 5.431634e-01 5.018691e-01 4.614266e-01 4.226605e-01 3.861318e-01 3.532103e-01 3.251336e-01 3.033378e-01 2.891544e-01 2.835176e-01 2.871846e-01 2.995927e-01 3.199199e-01 3.468869e-01 3.791195e-01 4.155181e-01 4.548503e-01 4.962645e-01 5.385045e-01 5.805050e-01 6.211233e-01 6.595813e-01 6.953774e-01 7.280930e-01 7.575774e-01 7.838004e-01 8.069361e-01 8.272137e-01 8.449490e-01 8.604337e-01 8.739650e-01 8.857814e-01 8.960984e-01 9.050738e-01 9.128396e-01 9.194828e-01 9.250704e-01 9.296383e-01 9.332108e-01 9.357940e-01 9.373914e-01 
9.269407e-01 9.265197e-01 9.249840e-01 9.223397e-01 9.185830e-01 9.137089e-01 9.076899e-01 9.004877e-01 8.920297e-01 8.822206e-01 8.709221e-01 8.579586e-01 8.431068e-01 8.260896e-01 8.065937e-01 7.842566e-01 7.587453e-01 7.297502e-01 6.971359e-01 6.609256e-01 6.214519e-01 5.793124e-01 5.353636e-01 4.907297e-01 4.468385e-01 4.049677e-01 3.657580e-01 3.291889e-01 2.964577e-01 2.686437e-01 2.470928e-01 2.330483e-01 2.273892e-01 2.309771e-01 2.431018e-01 2.630473e-01 2.895667e-01 3.213564e-01 3.576361e-01 3.975217e-01 4.405865e-01 4.855174e-01 5.309696e-01 5.754422e-01 6.178612e-01 6.575244e-01 6.938478e-01 7.265841e-01 7.556622e-01 7.812723e-01 8.036863e-01 8.232812e-01 8.403984e-01 8.553805e-01 8.684911e-01 8.799673e-01 8.899745e-01 8.986540e-01 9.060942e-01 9.123652e-01 9.175011e-01 9.215257e-01 9.244409e-01 9.262483e-01 
9.144540e-01 9.139874e-01 9.122643e-01 9.092948e-01 9.050777e-01 8.996121e-01 8.928719e-01 8.848178e-01 8.753729e-01 8.644364e-01 8.518604e-01 8.374536e-01 8.209702e-01 8.020905e-01 7.804486e-01 7.556002e-01 7.271423e-01 6.946979e-01 6.581317e-01 6.175324e-01 5.733798e-01 5.265535e-01 4.781803e-01 4.299387e-01 3.835863e-01 3.405622e-01 3.013222e-01 2.652722e-01 2.338520e-01 2.078100e-01 1.879684e-01 1.751172e-01 1.698416e-01 1.731259e-01 1.840797e-01 2.022439e-01 2.267742e-01 2.568356e-01 2.922667e-01 3.323556e-01 3.768484e-01 4.242299e-01 4.731600e-01 5.219137e-01 5.689166e-01 6.132311e-01 6.539560e-01 6.906944e-01 7.232681e-01 7.518767e-01 7.768398e-01 7.986201e-01 8.176336e-01 8.342870e-01 8.488829e-01 8.616854e-01 8.728729e-01 8.825961e-01 8.909465e-01 8.979975e-01 9.037819e-01 9.083226e-01 9.116173e-01 9.136647e-01 
9.005068e-01 8.999869e-01 8.980473e-01 8.947034e-01 8.899572e-01 8.838132e-01 8.762454e-01 8.672166e-01 8.566455e-01 8.444236e-01 8.303899e-01 8.143354e-01 7.959793e-01 7.749458e-01 7.507866e-01 7.229462e-01 6.909284e-01 6.542792e-01 6.129181e-01 5.670321e-01 5.173894e-01 4.651207e-01 4.117718e-01 3.594384e-01 3.103956e-01 2.672952e-01 2.300419e-01 1.965628e-01 1.676809e-01 1.438290e-01 1.257913e-01 1.141462e-01 1.093123e-01 1.122813e-01 1.220844e-01 1.385478e-01 1.608369e-01 1.880493e-01 2.207358e-01 2.590012e-01 3.035580e-01 3.532449e-01 4.059568e-01 4.594360e-01 5.117198e-01 5.615340e-01 6.075909e-01 6.492191e-01 6.860749e-01 7.183202e-01 7.463288e-01 7.706778e-01 7.918875e-01 8.104625e-01 8.267581e-01 8.410795e-01 8.536184e-01 8.645392e-01 8.739344e-01 8.818827e-01 8.884138e-01 8.935494e-01 8.972818e-01 8.996062e-01 
8.851004e-01 8.845165e-01 8.823228e-01 8.785420e-01 8.731808e-01 8.662512e-01 8.577282e-01 8.475775e-01 8.357131e-01 8.220251e-01 8.063372e-01 7.884142e-01 7.679314e-01 7.444273e-01 7.173441e-01 6.859637e-01 6.496871e-01 6.079885e-01 5.609331e-01 5.089458e-01 4.532199e-01 3.953514e-01 3.371439e-01 2.818775e-01 2.314000e-01 1.878120e-01 1.504725e-01 1.183954e-01 9.364603e-02 7.515153e-02 6.229587e-02 5.468865e-02 5.166369e-02 5.348278e-02 5.980871e-02 7.120263e-02 8.800902e-02 1.108211e-01 1.416566e-01 1.800027e-01 2.247820e-01 2.752354e-01 3.301856e-01 3.881452e-01 4.459147e-01 5.018761e-01 5.541353e-01 6.015991e-01 6.436160e-01 6.802332e-01 7.118592e-01 7.392045e-01 7.629417e-01 7.837052e-01 8.019348e-01 8.179859e-01 8.320715e-01 8.443687e-01 8.549722e-01 8.639601e-01 8.713582e-01 8.771849e-01 8.814257e-01 8.840717e-01 
8.682801e-01 8.676175e-01 8.651217e-01 8.608251e-01 8.547417e-01 8.468942e-01 8.372609e-01 8.258138e-01 8.124627e-01 7.970999e-01 7.795372e-01 7.595132e-01 7.366306e-01 7.103203e-01 6.798572e-01 6.443304e-01 6.030121e-01 5.553609e-01 5.017242e-01 4.428897e-01 3.807215e-01 3.172522e-01 2.548223e-01 1.956371e-01 1.421787e-01 1.007287e-01 7.064279e-02 4.963335e-02 3.685330e-02 2.978931e-02 2.651280e-02 2.526226e-02 2.503466e-02 2.519598e-02 2.617799e-02 2.877765e-02 3.468383e-02 4.572104e-02 6.486923e-02 9.423019e-02 1.347271e-01 1.871615e-01 2.458143e-01 3.079633e-01 3.712932e-01 4.339452e-01 4.932091e-01 5.474226e-01 5.955252e-01 6.373133e-01 6.731795e-01 7.039900e-01 7.305991e-01 7.538335e-01 7.742402e-01 7.922517e-01 8.081062e-01 8.219924e-01 8.339973e-01 8.441968e-01 8.526083e-01 8.592444e-01 8.640812e-01 8.671031e-01 
8.501390e-01 8.493779e-01 8.465187e-01 8.416073e-01 8.346683e-01 8.257417e-01 8.148120e-01 8.018648e-01 7.868096e-01 7.695472e-01 7.498782e-01 7.275188e-01 7.019803e-01 6.725293e-01 6.382378e-01 5.979249e-01 5.507646e-01 4.962006e-01 4.350286e-01 3.684327e-01 2.991912e-01 2.292745e-01 1.619875e-01 1.049275e-01 6.330456e-02 4.028537e-02 3.225019e-02 3.288774e-02 3.649183e-02 4.065902e-02 4.422897e-02 4.659015e-02 4.778739e-02 4.721581e-02 4.545328e-02 4.222257e-02 3.806397e-02 3.390020e-02 3.170087e-02 3.765429e-02 5.737828e-02 9.574482e-02 1.503170e-01 2.167712e-01 2.871918e-01 3.572571e-01 4.244149e-01 4.863410e-01 5.415107e-01 5.893393e-01 6.301399e-01 6.649114e-01 6.947563e-01 7.207365e-01 7.435654e-01 7.637792e-01 7.816461e-01 7.973568e-01 8.109861e-01 8.225993e-01 8.321998e-01 8.397884e-01 8.453273e-01 8.487907e-01 
8.308315e-01 8.299465e-01 8.266490e-01 8.210026e-01 8.130487e-01 8.028516e-01 7.904096e-01 7.757315e-01 7.587330e-01 7.393358e-01 7.173263e-01 6.923985e-01 6.639485e-01 6.310280e-01 5.924181e-01 5.466753e-01 4.928348e-01 4.304853e-01 3.609728e-01 2.858880e-01 2.087124e-01 1.352642e-01 7.635640e-02 4.267456e-02 3.563393e-02 4.531207e-02 5.936441e-02 7.088451e-02 7.815743e-02 8.195350e-02 8.346987e-02 8.420077e-02 8.472688e-02 8.471636e-02 8.458059e-02 8.370354e-02 8.072156e-02 7.422062e-02 6.258523e-02 4.794241e-02 3.618402e-02 3.899364e-02 6.687303e-02 1.215333e-01 1.937707e-01 2.718726e-01 3.478028e-01 4.182417e-01 4.814408e-01 5.362146e-01 5.826629e-01 6.219389e-01 6.553786e-01 6.843822e-01 7.098712e-01 7.325350e-01 7.526675e-01 7.704618e-01 7.859680e-01 7.992292e-01 8.102249e-01 8.189354e-01 8.253028e-01 8.292853e-01 
8.105602e-01 8.095192e-01 8.056924e-01 7.991677e-01 7.900106e-01 7.783212e-01 7.641209e-01 7.474577e-01 7.282627e-01 7.064957e-01 6.819282e-01 6.542264e-01 6.226374e-01 5.859345e-01 5.425784e-01 4.907824e-01 4.295477e-01 3.585611e-01 2.799477e-01 1.961937e-01 1.169103e-01 5.904408e-02 3.692019e-02 4.691934e-02 7.123384e-02 9.466232e-02 1.103577e-01 1.184533e-01 1.223602e-01 1.240577e-01 1.243788e-01 1.245424e-01 1.248212e-01 1.250830e-01 1.254883e-01 1.256735e-01 1.245223e-01 1.211442e-01 1.129746e-01 9.795632e-02 7.556090e-02 5.074714e-02 3.640663e-02 5.055185e-02 1.017929e-01 1.783676e-01 2.628814e-01 3.428848e-01 4.151561e-01 4.778892e-01 5.308243e-01 5.751734e-01 6.125985e-01 6.448743e-01 6.732489e-01 6.985872e-01 7.212352e-01 7.413808e-01 7.590364e-01 7.742055e-01 7.868295e-01 7.968557e-01 8.041966e-01 8.087875e-01 
7.895942e-01 7.883589e-01 7.838994e-01 7.763343e-01 7.657647e-01 7.523401e-01 7.361200e-01 7.172094e-01 6.955695e-01 6.712148e-01 6.438961e-01 6.132404e-01 5.782784e-01 5.374738e-01 4.888355e-01 4.303137e-01 3.607126e-01 2.802474e-01 1.927789e-01 1.084553e-01 5.121106e-02 3.849912e-02 6.070350e-02 9.317620e-02 1.225278e-01 1.458611e-01 1.612766e-01 1.686309e-01 1.707105e-01 1.701592e-01 1.686518e-01 1.675720e-01 1.673487e-01 1.679749e-01 1.694461e-01 1.713148e-01 1.721996e-01 1.705164e-01 1.632652e-01 1.486779e-01 1.265641e-01 9.873569e-02 6.678443e-02 4.072759e-02 4.388449e-02 9.147468e-02 1.725717e-01 2.609393e-01 3.428721e-01 4.145943e-01 4.747921e-01 5.248659e-01 5.666507e-01 6.024551e-01 6.339070e-01 6.621243e-01 6.875247e-01 7.102893e-01 7.303779e-01 7.477316e-01 7.622373e-01 7.737914e-01 7.822665e-01 7.875639e-01 
7.682302e-01 7.667559e-01 7.615465e-01 7.527613e-01 7.405496e-01 7.251291e-01 7.066147e-01 6.851942e-01 6.608717e-01 6.337418e-01 6.035140e-01 5.697711e-01 5.312407e-01 4.860475e-01 4.317739e-01 3.660988e-01 2.881346e-01 1.986774e-01 1.093523e-01 4.993074e-02 4.073359e-02 6.918140e-02 1.077752e-01 1.440979e-01 1.745902e-01 1.973078e-01 2.114859e-01 2.178665e-01 2.191271e-01 2.177800e-01 2.157070e-01 2.142284e-01 2.138060e-01 2.145262e-01 2.162627e-01 2.185555e-01 2.200508e-01 2.190560e-01 2.128537e-01 1.994868e-01 1.780820e-01 1.493156e-01 1.145040e-01 7.659511e-02 4.475763e-02 4.292822e-02 9.103205e-02 1.766070e-01 2.665336e-01 3.473302e-01 4.154418e-01 4.716447e-01 5.181012e-01 5.575962e-01 5.922497e-01 6.234902e-01 6.518362e-01 6.774624e-01 7.002566e-01 7.200728e-01 7.367207e-01 7.500258e-01 7.598043e-01 7.659121e-01 
7.468214e-01 7.450591e-01 7.389782e-01 7.287879e-01 7.147049e-01 6.970335e-01 6.759716e-01 6.518124e-01 6.246281e-01 5.946043e-01 5.613994e-01 5.245166e-01 4.823138e-01 4.325541e-01 3.723687e-01 2.994981e-01 2.134374e-01 1.211568e-01 5.423572e-02 4.095591e-02 7.099344e-02 1.137028e-01 1.555339e-01 1.926697e-01 2.231633e-01 2.457165e-01 2.600341e-01 2.669206e-01 2.686288e-01 2.674698e-01 2.653942e-01 2.637585e-01 2.632080e-01 2.639108e-01 2.656569e-01 2.678440e-01 2.690651e-01 2.675897e-01 2.610008e-01 2.475639e-01 2.263377e-01 1.975848e-01 1.621921e-01 1.218246e-01 7.978416e-02 4.524974e-02 4.526324e-02 1.002790e-01 1.893001e-01 2.783723e-01 3.540354e-01 4.164669e-01 4.676806e-01 5.109328e-01 5.488522e-01 5.832007e-01 6.146417e-01 6.433277e-01 6.690720e-01 6.916062e-01 7.106458e-01 7.259176e-01 7.371671e-01 7.441867e-01 
7.257111e-01 7.236092e-01 7.165334e-01 7.047527e-01 6.885719e-01 6.684058e-01 6.445619e-01 6.174700e-01 5.872872e-01 5.543175e-01 5.181237e-01 4.781554e-01 4.322546e-01 3.779632e-01 3.119399e-01 2.319862e-01 1.410213e-01 6.407616e-02 3.945124e-02 6.665751e-02 1.117066e-01 1.575093e-01 2.000099e-01 2.375096e-01 2.681868e-01 2.910658e-01 3.061069e-01 3.141794e-01 3.172011e-01 3.171668e-01 3.159103e-01 3.147094e-01 3.142608e-01 3.147717e-01 3.159993e-01 3.173035e-01 3.173830e-01 3.146131e-01 3.069586e-01 2.928417e-01 2.713099e-01 2.423453e-01 2.066453e-01 1.656874e-01 1.215642e-01 7.636442e-02 4.181586e-02 5.199776e-02 1.181254e-01 2.100834e-01 2.929716e-01 3.608527e-01 4.165027e-01 4.633859e-01 5.044754e-01 5.419263e-01 5.765200e-01 6.084001e-01 6.372818e-01 6.627505e-01 6.844013e-01 7.018376e-01 7.147126e-01 7.227375e-01 
7.052791e-01 7.027869e-01 6.946049e-01 6.810708e-01 6.626006e-01 6.397418e-01 6.129500e-01 5.828131e-01 5.496148e-01 5.137787e-01 4.747859e-01 4.320096e-01 3.828222e-01 3.246512e-01 2.540974e-01 1.677236e-01 8.290360e-02 4.015836e-02 5.574925e-02 1.012080e-01 1.498621e-01 1.964439e-01 2.392992e-01 2.768996e-01 3.080709e-01 3.320032e-01 3.487213e-01 3.588904e-01 3.640438e-01 3.658382e-01 3.659190e-01 3.654781e-01 3.652549e-01 3.654774e-01 3.659032e-01 3.658655e-01 3.641618e-01 3.593437e-01 3.497177e-01 3.339874e-01 3.113915e-01 2.818540e-01 2.460054e-01 2.047188e-01 1.598358e-01 1.119876e-01 6.513608e-02 3.851794e-02 6.672781e-02 1.459054e-01 2.334458e-01 3.057906e-01 3.656334e-01 4.159360e-01 4.600906e-01 5.005449e-01 5.382818e-01 5.733925e-01 6.055178e-01 6.340583e-01 6.584790e-01 6.782293e-01 6.928499e-01 7.019519e-01 
6.858642e-01 6.829351e-01 6.735514e-01 6.581298e-01 6.372168e-01 6.115133e-01 5.816589e-01 5.484192e-01 5.122443e-01 4.736833e-01 4.321282e-01 3.869093e-01 3.347164e-01 2.736083e-01 1.987020e-01 1.118233e-01 4.917646e-02 4.290005e-02 8.324842e-02 1.326179e-01 1.820085e-01 2.286943e-01 2.716918e-01 3.098000e-01 3.420578e-01 3.677367e-01 3.867641e-01 3.995955e-01 4.074012e-01 4.115147e-01 4.133550e-01 4.139876e-01 4.141227e-01 4.139877e-01 4.133631e-01 4.116174e-01 4.076896e-01 4.003162e-01 3.881406e-01 3.701503e-01 3.457812e-01 3.150859e-01 2.786047e-01 2.371875e-01 1.920129e-01 1.437810e-01 9.441750e-02 4.960929e-02 4.130633e-02 9.171879e-02 1.757936e-01 2.537261e-01 3.164875e-01 3.698894e-01 4.167096e-01 4.599583e-01 5.007157e-01 5.390074e-01 5.743925e-01 6.060650e-01 6.333443e-01 6.555050e-01 6.719513e-01 6.821783e-01 
6.678233e-01 6.644186e-01 6.537689e-01 6.363773e-01 6.129409e-01 5.843200e-01 5.513792e-01 5.150668e-01 4.760645e-01 4.350398e-01 3.913848e-01 3.443883e-01 2.899401e-01 2.273160e-01 1.483016e-01 7.062537e-02 3.631780e-02 5.998270e-02 1.075164e-01 1.575680e-01 2.062153e-01 2.529301e-01 2.962963e-01 3.354773e-01 3.694729e-01 3.975435e-01 4.194482e-01 4.353947e-01 4.462259e-01 4.529754e-01 4.568296e-01 4.587143e-01 4.592860e-01 4.587588e-01 4.569457e-01 4.532704e-01 4.468135e-01 4.365168e-01 4.213212e-01 4.004859e-01 3.736970e-01 3.411665e-01 3.035051e-01 2.615963e-01 2.162730e-01 1.686362e-01 1.188643e-01 7.064456e-02 3.671477e-02 5.649166e-02 1.264590e-01 2.073370e-01 2.713574e-01 3.268298e-01 3.757316e-01 4.213668e-01 4.648984e-01 5.061766e-01 5.447037e-01 5.794405e-01 6.095583e-01 6.341353e-01 6.524241e-01 6.637873e-01 
6.514538e-01 6.475489e-01 6.356082e-01 6.162255e-01 5.902605e-01 5.587287e-01 5.227460e-01 4.834294e-01 4.417726e-01 3.985127e-01 3.533442e-01 3.052425e-01 2.502030e-01 1.868474e-01 1.082946e-01 4.667031e-02 3.773993e-02 7.767760e-02 1.248850e-01 1.740341e-01 2.220567e-01 2.688594e-01 3.131057e-01 3.538871e-01 3.901680e-01 4.210665e-01 4.461741e-01 4.654586e-01 4.794786e-01 4.890021e-01 4.949915e-01 4.982268e-01 4.992847e-01 4.983583e-01 4.952893e-01 4.895769e-01 4.804539e-01 4.670607e-01 4.485933e-01 4.245649e-01 3.948903e-01 3.599674e-01 3.205542e-01 2.775929e-01 2.320220e-01 1.847338e-01 1.361627e-01 8.833064e-02 4.430906e-02 3.865987e-02 8.851068e-02 1.651643e-01 2.308146e-01 2.870176e-01 3.378626e-01 3.854763e-01 4.315845e-01 4.756098e-01 5.170925e-01 5.547441e-01 5.875937e-01 6.145182e-01 6.346085e-01 6.470888e-01 
6.370553e-01 6.326408e-01 6.194339e-01 5.981157e-01 5.697153e-01 5.353830e-01 4.964826e-01 4.542688e-01 4.100903e-01 3.646932e-01 3.184010e-01 2.696029e-01 2.156754e-01 1.517963e-01 7.881277e-02 3.426794e-02 4.530628e-02 8.809463e-02 1.346243e-01 1.823535e-01 2.302153e-01 2.774271e-01 3.229952e-01 3.657598e-01 4.046465e-01 4.385867e-01 4.670075e-01 4.896530e-01 5.068420e-01 5.191110e-01 5.272187e-01 5.318032e-01 5.333539e-01 5.320348e-01 5.277150e-01 5.199792e-01 5.082022e-01 4.917061e-01 4.699094e-01 4.425452e-01 4.097458e-01 3.720967e-01 3.305399e-01 2.861415e-01 2.400544e-01 1.930445e-01 1.461654e-01 9.943431e-02 5.564393e-02 3.147712e-02 6.157266e-02 1.295301e-01 1.966299e-01 2.522659e-01 3.044998e-01 3.535615e-01 4.018269e-01 4.482317e-01 4.923335e-01 5.326252e-01 5.679795e-01 5.970926e-01 6.188709e-01 6.323979e-01 
6.248704e-01 6.199677e-01 6.055858e-01 5.824862e-01 5.518466e-01 5.149419e-01 4.733473e-01 4.284251e-01 3.818172e-01 3.343077e-01 2.868539e-01 2.375626e-01 1.854831e-01 1.229052e-01 5.796189e-02 2.955309e-02 5.326326e-02 9.375354e-02 1.386982e-01 1.849774e-01 2.326838e-01 2.804288e-01 3.274470e-01 3.722746e-01 4.137879e-01 4.506980e-01 4.822895e-01 5.080985e-01 5.282462e-01 5.430697e-01 5.531508e-01 5.589986e-01 5.610150e-01 5.593320e-01 5.538448e-01 5.442211e-01 5.299607e-01 5.105478e-01 4.855854e-01 4.549995e-01 4.191098e-01 3.786808e-01 3.348380e-01 2.887977e-01 2.419216e-01 1.950074e-01 1.494162e-01 1.046925e-01 6.353258e-02 3.045785e-02 4.489130e-02 1.036084e-01 1.689498e-01 2.234620e-01 2.761218e-01 3.262951e-01 3.762097e-01 4.246556e-01 4.709822e-01 5.135990e-01 5.511564e-01 5.822197e-01 6.055027e-01 6.199649e-01 
6.151291e-01 6.097955e-01 5.943988e-01 5.697698e-01 5.372068e-01 4.980946e-01 4.541465e-01 4.068456e-01 3.579801e-01 3.084871e-01 2.596172e-01 2.099098e-01 1.592016e-01 1.001655e-01 4.413083e-02 2.875998e-02 5.868913e-02 9.715767e-02 1.399736e-01 1.847598e-01 2.320522e-01 2.801869e-01 3.284610e-01 3.751266e-01 4.189774e-01 4.585066e-01 4.928672e-01 5.214133e-01 5.441072e-01 5.611234e-01 5.728990e-01 5.798333e-01 5.822510e-01 5.802520e-01 5.737556e-01 5.625006e-01 5.460908e-01 5.241432e-01 4.964087e-01 4.629714e-01 4.243048e-01 3.813430e-01 3.353577e-01 2.877549e-01 2.399919e-01 1.930581e-01 1.482040e-01 1.054078e-01 6.643540e-02 3.202722e-02 3.507311e-02 8.536590e-02 1.467103e-01 2.004552e-01 2.529278e-01 3.040993e-01 3.552486e-01 4.054373e-01 4.535852e-01 4.981558e-01 5.375404e-01 5.702383e-01 5.947798e-01 6.100251e-01 
6.080117e-01 6.023429e-01 5.861647e-01 5.603630e-01 5.263247e-01 4.855234e-01 4.397501e-01 3.906033e-01 3.398982e-01 2.888316e-01 2.385889e-01 1.886539e-01 1.385537e-01 8.388029e-02 3.579494e-02 2.949121e-02 6.120537e-02 9.821280e-02 1.392540e-01 1.830017e-01 2.299148e-01 2.783591e-01 3.276059e-01 3.757225e-01 4.214190e-01 4.630066e-01 4.995352e-01 5.302109e-01 5.548804e-01 5.735930e-01 5.866798e-01 5.944556e-01 5.971851e-01 5.949415e-01 5.876622e-01 5.751419e-01 5.570616e-01 5.331385e-01 5.032332e-01 4.675507e-01 4.266835e-01 3.817089e-01 3.340171e-01 2.852086e-01 2.367829e-01 1.900144e-01 1.458314e-01 1.048407e-01 6.739269e-02 3.421921e-02 2.967552e-02 7.236958e-02 1.294974e-01 1.831156e-01 2.351999e-01 2.873629e-01 3.394571e-01 3.910965e-01 4.406464e-01 4.867335e-01 5.274995e-01 5.614377e-01 5.869283e-01 6.027645e-01 
6.036687e-01 5.977858e-01 5.811107e-01 5.545660e-01 5.195928e-01 4.777247e-01 4.307862e-01 3.804601e-01 3.285263e-01 2.764425e-01 2.251549e-01 1.751305e-01 1.250023e-01 7.382762e-02 3.137662e-02 3.053097e-02 6.235376e-02 9.855056e-02 1.384227e-01 1.815280e-01 2.281222e-01 2.767234e-01 3.265448e-01 3.755639e-01 4.224206e-01 4.653086e-01 5.032058e-01 5.352233e-01 5.611345e-01 5.809120e-01 5.948212e-01 6.031245e-01 6.060487e-01 6.036490e-01 5.958747e-01 5.825551e-01 5.634179e-01 5.382421e-01 5.069541e-01 4.698376e-01 4.275578e-01 3.812979e-01 3.325190e-01 2.829868e-01 2.342029e-01 1.877047e-01 1.441088e-01 1.044895e-01 6.796981e-02 3.593317e-02 2.673200e-02 6.399668e-02 1.180957e-01 1.719042e-01 2.236572e-01 2.766586e-01 3.294262e-01 3.821053e-01 4.325855e-01 4.796668e-01 5.213112e-01 5.560364e-01 5.821254e-01 5.983338e-01 
6.022052e-01 5.962493e-01 5.794058e-01 5.526100e-01 5.173209e-01 4.750929e-01 4.277568e-01 3.770222e-01 3.246436e-01 2.721906e-01 2.204684e-01 1.703942e-01 1.200512e-01 7.021960e-02 2.999419e-02 3.099709e-02 6.268533e-02 9.858024e-02 1.380028e-01 1.808642e-01 2.273251e-01 2.759751e-01 3.259957e-01 3.753353e-01 4.226051e-01 4.659546e-01 5.043364e-01 5.368258e-01 5.631728e-01 5.833218e-01 5.975178e-01 6.060047e-01 6.089973e-01 6.065444e-01 5.985993e-01 5.850029e-01 5.654990e-01 5.398869e-01 5.081165e-01 4.704971e-01 4.277219e-01 3.810093e-01 3.318505e-01 2.820677e-01 2.331674e-01 1.867770e-01 1.433967e-01 1.042547e-01 6.805921e-02 3.653916e-02 2.589550e-02 6.129866e-02 1.142533e-01 1.681031e-01 2.196941e-01 2.730161e-01 3.260246e-01 3.790798e-01 4.298792e-01 4.772996e-01 5.192361e-01 5.542229e-01 5.805106e-01 5.968425e-01 
6.036687e-01 5.977858e-01 5.811107e-01 5.545660e-01 5.195928e-01 4.777247e-01 4.307862e-01 3.804601e-01 3.285263e-01 2.764425e-01 2.251549e-01 1.751305e-01 1.250023e-01 7.382762e-02 3.137662e-02 3.053097e-02 6.235376e-02 9.855056e-02 1.384227e-01 1.815280e-01 2.281222e-01 2.767234e-01 3.265448e-01 3.755639e-01 4.224206e-01 4.653086e-01 5.032058e-01 5.352233e-01 5.611345e-01 5.809120e-01 5.948212e-01 6.031245e-01 6.060487e-01 6.036490e-01 5.958747e-01 5.825551e-01 5.634179e-01 5.382421e-01 5.069541e-01 4.698376e-01 4.275578e-01 3.812979e-01 3.325190e-01 2.829868e-01 2.342029e-01 1.877047e-01 1.441088e-01 1.044895e-01 6.796981e-02 3.593317e-02 2.673200e-02 6.399668e-02 1.180957e-01 1.719042e-01 2.236572e-01 2.766586e-01 3.294262e-01 3.821053e-01 4.325855e-01 4.796668e-01 5.213112e-01 5.560364e-01 5.821254e-01 5.983338e-01 
6.080117e-01 6.023429e-01 5.861647e-01 5.603630e-01 5.263247e-01 4.855234e-01 4.397501e-01 3.906033e-01 3.398982e-01 2.888316e-01 2.385889e-01 1.886539e-01 1.385537e-01 8.388029e-02 3.579494e-02 2.949121e-02 6.120537e-02 9.821280e-02 1.392540e-01 1.830017e-01 2.299148e-01 2.783591e-01 3.276059e-01 3.757225e-01 4.214190e-01 4.630066e-01 4.995352e-01 5.302109e-01 5.548804e-01 5.735930e-01 5.866798e-01 5.944556e-01 5.971851e-01 5.949415e-01 5.876622e-01 5.751419e-01 5.570616e-01 5.331385e-01 5.032332e-01 4.675507e-01 4.266835e-01 3.817089e-01 3.340171e-01 2.852086e-01 2.367829e-01 1.900144e-01 1.458314e-01 1.048407e-01 6.739269e-02 3.421921e-02 2.967552e-02 7.236958e-02 1.294974e-01 1.831156e-01 2.351999e-01 2.873629e-01 3.394571e-01 3.910965e-01 4.406464e-01 4.867335e-01 5.274995e-01 5.614377e-01 5.869283e-01 6.027645e-01 