# vtk DataFile Version 2.0
Comment goes here
ASCII

DATASET STRUCTURED_POINTS
FIELD FieldData 1
TIME 1 1 double
0.37000000
DIMENSIONS    64   64   1

ORIGIN    0.000   0.000   0.000
SPACING   0.015625 0.015625   1.000

POINT_DATA   4096
SCALARS Concentration double
LOOKUP_TABLE default

9.999813e-01 9.999788e-01 9.999708e-01 9.999561e-01 9.999329e-01 9.998983e-01 9.998486e-01 9.997795e-01 9.996858e-01 9.995615e-01 9.994001e-01 9.991941e-01 9.989352e-01 9.986138e-01 9.982182e-01 9.977345e-01 9.971442e-01 9.964234e-01 9.955395e-01 9.944489e-01 9.930975e-01 9.914237e-01 9.893577e-01 9.868322e-01 9.837880e-01 9.802051e-01 9.761180e-01 9.716662e-01 9.670971e-01 9.627910e-01 9.592004e-01 9.567917e-01 9.559300e-01 9.567870e-01 9.591928e-01 9.627810e-01 9.670875e-01 9.716570e-01 9.761106e-01 9.801991e-01 9.837835e-01 9.868289e-01 9.893552e-01 9.914216e-01 9.930954e-01 9.944469e-01 9.955374e-01 9.964213e-01 9.971421e-01 9.977325e-01 9.982164e-01 9.986121e-01 9.989338e-01 9.991929e-01 9.993991e-01 9.995607e-01 9.996852e-01 9.997790e-01 9.998483e-01 9.998980e-01 9.999327e-01 9.999560e-01 9.999707e-01 9.999787e-01 
9.999777e-01 9.999747e-01 9.999653e-01 9.999480e-01 9.999207e-01 9.998801e-01 9.998221e-01 9.997417e-01 9.996330e-01 9.994895e-01 9.993038e-01 9.990681e-01 9.987733e-01 9.984092e-01 9.979638e-01 9.974222e-01 9.967651e-01 9.959671e-01 9.949924e-01 9.937904e-01 9.923018e-01 9.904588e-01 9.881834e-01 9.853989e-01 9.820349e-01 9.780608e-01 9.735034e-01 9.685056e-01 9.633355e-01 9.584219e-01 9.542931e-01 9.515055e-01 9.505057e-01 9.514997e-01 9.542838e-01 9.584097e-01 9.633237e-01 9.684942e-01 9.734941e-01 9.780532e-01 9.820292e-01 9.853947e-01 9.881800e-01 9.904560e-01 9.922991e-01 9.937877e-01 9.949896e-01 9.959644e-01 9.967624e-01 9.974197e-01 9.979615e-01 9.984072e-01 9.987715e-01 9.990666e-01 9.993026e-01 9.994885e-01 9.996322e-01 9.997411e-01 9.998217e-01 9.998798e-01 9.999205e-01 9.999479e-01 9.999652e-01 9.999747e-01 
9.999660e-01 9.999615e-01 9.999475e-01 9.999219e-01 9.998816e-01 9.998221e-01 9.997375e-01 9.996210e-01 9.994648e-01 9.992602e-01 9.989980e-01 9.986681e-01 9.982599e-01 9.977612e-01 9.971581e-01 9.964333e-01 9.955646e-01 9.945221e-01 9.932609e-01 9.917134e-01 9.898041e-01 9.874471e-01 9.845408e-01 9.809821e-01 9.766657e-01 9.715287e-01 9.655687e-01 9.589331e-01 9.519439e-01 9.451725e-01 9.393815e-01 9.354133e-01 9.339821e-01 9.354041e-01 9.393670e-01 9.451531e-01 9.519254e-01 9.589145e-01 9.655537e-01 9.715159e-01 9.766562e-01 9.809748e-01 9.845350e-01 9.874421e-01 9.897993e-01 9.917087e-01 9.932560e-01 9.945173e-01 9.955600e-01 9.964290e-01 9.971541e-01 9.977578e-01 9.982569e-01 9.986656e-01 9.989959e-01 9.992586e-01 9.994635e-01 9.996200e-01 9.997368e-01 9.998216e-01 9.998813e-01 9.999217e-01 9.999473e-01 9.999614e-01 
9.999433e-01 9.999360e-01 9.999131e-01 9.998718e-01 9.998068e-01 9.997113e-01 9.995765e-01 9.993922e-01 9.991469e-01 9.988282e-01 9.984233e-01 9.979185e-01 9.972998e-01 9.965517e-01 9.956567e-01 9.945937e-01 9.933353e-01 9.918443e-01 9.900625e-01 9.878955e-01 9.852408e-01 9.819857e-01 9.779921e-01 9.731151e-01 9.671909e-01 9.600992e-01 9.517785e-01 9.423693e-01 9.322674e-01 9.222770e-01 9.135690e-01 9.075062e-01 9.053057e-01 9.074911e-01 9.135457e-01 9.222450e-01 9.322373e-01 9.423382e-01 9.517533e-01 9.600773e-01 9.671748e-01 9.731027e-01 9.779821e-01 9.819769e-01 9.852320e-01 9.878867e-01 9.900534e-01 9.918355e-01 9.933266e-01 9.945859e-01 9.956495e-01 9.965455e-01 9.972944e-01 9.979141e-01 9.984197e-01 9.988254e-01 9.991447e-01 9.993905e-01 9.995753e-01 9.997104e-01 9.998062e-01 9.998714e-01 9.999129e-01 9.999359e-01 
9.999043e-01 9.998922e-01 9.998546e-01 9.997867e-01 9.996806e-01 9.995253e-01 9.993074e-01 9.990112e-01 9.986195e-01 9.981142e-01 9.974764e-01 9.966871e-01 9.957268e-01 9.945747e-01 9.932077e-01 9.915993e-01 9.897149e-01 9.875095e-01 9.849087e-01 9.817848e-01 9.780002e-01 9.734118e-01 9.678377e-01 9.610821e-01 9.529004e-01 9.430879e-01 9.314799e-01 9.181795e-01 9.036466e-01 8.889916e-01 8.759767e-01 8.667680e-01 8.633998e-01 8.667439e-01 8.759398e-01 8.889403e-01 9.035987e-01 9.181284e-01 9.314385e-01 9.430515e-01 9.528745e-01 9.610621e-01 9.678214e-01 9.733968e-01 9.779846e-01 9.817689e-01 9.848921e-01 9.874934e-01 9.896992e-01 9.915851e-01 9.931949e-01 9.945637e-01 9.957173e-01 9.966793e-01 9.974700e-01 9.981092e-01 9.986157e-01 9.990083e-01 9.993053e-01 9.995238e-01 9.996796e-01 9.997861e-01 9.998542e-01 9.998921e-01 
9.998410e-01 9.998214e-01 9.997605e-01 9.996507e-01 9.994797e-01 9.992307e-01 9.988831e-01 9.984130e-01 9.977947e-01 9.970014e-01 9.960057e-01 9.947801e-01 9.932968e-01 9.915268e-01 9.894388e-01 9.869986e-01 9.841645e-01 9.808855e-01 9.770746e-01 9.725729e-01 9.672019e-01 9.607955e-01 9.531309e-01 9.439621e-01 9.329480e-01 9.197757e-01 9.041267e-01 8.860202e-01 8.659356e-01 8.453213e-01 8.266787e-01 8.132695e-01 8.083168e-01 8.132329e-01 8.266233e-01 8.452433e-01 8.658629e-01 8.859409e-01 9.040629e-01 9.197194e-01 9.329098e-01 9.439330e-01 9.531065e-01 9.607717e-01 9.671754e-01 9.725453e-01 9.770451e-01 9.808569e-01 9.841368e-01 9.869736e-01 9.894164e-01 9.915076e-01 9.932804e-01 9.947667e-01 9.959948e-01 9.969928e-01 9.977881e-01 9.984080e-01 9.988794e-01 9.992281e-01 9.994779e-01 9.996495e-01 9.997598e-01 9.998211e-01 
9.997421e-01 9.997110e-01 9.996145e-01 9.994411e-01 9.991720e-01 9.987818e-01 9.982394e-01 9.975094e-01 9.965539e-01 9.953332e-01 9.938077e-01 9.919372e-01 9.896812e-01 9.869982e-01 9.838447e-01 9.801769e-01 9.759477e-01 9.711075e-01 9.655722e-01 9.591715e-01 9.516860e-01 9.429500e-01 9.327162e-01 9.207029e-01 9.064668e-01 8.895765e-01 8.695037e-01 8.461241e-01 8.198461e-01 7.924234e-01 7.671637e-01 7.486638e-01 7.417378e-01 7.486095e-01 7.670817e-01 7.923079e-01 8.197387e-01 8.460051e-01 8.694089e-01 8.894938e-01 9.064144e-01 9.206641e-01 9.326814e-01 9.429132e-01 9.516419e-01 9.591243e-01 9.655213e-01 9.710584e-01 9.759002e-01 9.801344e-01 9.838067e-01 9.869659e-01 9.896539e-01 9.919148e-01 9.937896e-01 9.953190e-01 9.965429e-01 9.975012e-01 9.982333e-01 9.987775e-01 9.991691e-01 9.994391e-01 9.996133e-01 9.997105e-01 
9.995921e-01 9.995442e-01 9.993953e-01 9.991286e-01 9.987160e-01 9.981200e-01 9.972948e-01 9.961889e-01 9.947471e-01 9.929119e-01 9.906257e-01 9.878294e-01 9.844634e-01 9.804660e-01 9.757764e-01 9.703385e-01 9.641049e-01 9.570430e-01 9.491029e-01 9.401558e-01 9.299472e-01 9.183501e-01 9.051187e-01 8.899599e-01 8.723361e-01 8.517024e-01 8.272934e-01 7.988154e-01 7.665151e-01 7.323569e-01 7.003560e-01 6.764792e-01 6.673882e-01 6.764020e-01 7.002387e-01 7.321938e-01 7.663648e-01 7.986469e-01 8.271615e-01 8.515893e-01 8.722725e-01 8.899143e-01 9.050715e-01 9.182942e-01 9.298747e-01 9.400768e-01 9.490168e-01 9.569605e-01 9.640257e-01 9.702681e-01 9.757139e-01 9.804131e-01 9.844189e-01 9.877932e-01 9.905965e-01 9.928890e-01 9.947293e-01 9.961756e-01 9.972850e-01 9.981130e-01 9.987112e-01 9.991254e-01 9.993934e-01 9.995434e-01 
9.993717e-01 9.992997e-01 9.990762e-01 9.986766e-01 9.980607e-01 9.971739e-01 9.959508e-01 9.943176e-01 9.921956e-01 9.895024e-01 9.861544e-01 9.820646e-01 9.771437e-01 9.712995e-01 9.644458e-01 9.565116e-01 9.474601e-01 9.373015e-01 9.260719e-01 9.137722e-01 9.001516e-01 8.851538e-01 8.685646e-01 8.501044e-01 8.291546e-01 8.051038e-01 7.769280e-01 7.441629e-01 7.068061e-01 6.669179e-01 6.290164e-01 6.002054e-01 5.890104e-01 6.000979e-01 6.288516e-01 6.666960e-01 7.066036e-01 7.439328e-01 7.767515e-01 8.049554e-01 8.290845e-01 8.500557e-01 8.684984e-01 8.850667e-01 9.000322e-01 9.136421e-01 9.259304e-01 9.371670e-01 9.473322e-01 9.563988e-01 9.643464e-01 9.712159e-01 9.770737e-01 9.820077e-01 9.861087e-01 9.894665e-01 9.921679e-01 9.942968e-01 9.959355e-01 9.971630e-01 9.980531e-01 9.986717e-01 9.990732e-01 9.992983e-01 
9.990567e-01 9.989514e-01 9.986248e-01 9.980423e-01 9.971469e-01 9.958620e-01 9.940958e-01 9.917450e-01 9.886991e-01 9.848416e-01 9.800521e-01 9.742021e-01 9.671585e-01 9.587826e-01 9.489530e-01 9.375835e-01 9.246686e-01 9.103008e-01 8.946690e-01 8.779854e-01 8.601950e-01 8.412200e-01 8.209007e-01 7.989828e-01 7.747790e-01 7.476515e-01 7.163876e-01 6.805230e-01 6.398375e-01 5.963906e-01 5.548060e-01 5.226979e-01 5.099678e-01 5.225558e-01 5.545868e-01 5.961087e-01 6.395843e-01 6.802253e-01 7.161634e-01 7.474650e-01 7.747175e-01 7.989395e-01 8.208046e-01 8.410839e-01 8.600023e-01 8.777788e-01 8.944454e-01 9.100900e-01 9.244693e-01 9.374082e-01 9.487995e-01 9.586537e-01 9.670512e-01 9.741151e-01 9.799824e-01 9.847870e-01 9.886570e-01 9.917134e-01 9.940726e-01 9.958454e-01 9.971354e-01 9.980348e-01 9.986203e-01 9.989494e-01 
9.986187e-01 9.984689e-01 9.980043e-01 9.971775e-01 9.959099e-01 9.940964e-01 9.916113e-01 9.883128e-01 9.840486e-01 9.786560e-01 9.719634e-01 9.637830e-01 9.539179e-01 9.421648e-01 9.283584e-01 9.124064e-01 8.943731e-01 8.744956e-01 8.532029e-01 8.309873e-01 8.081690e-01 7.845861e-01 7.601224e-01 7.344988e-01 7.069871e-01 6.771214e-01 6.435010e-01 6.057721e-01 5.635359e-01 5.189428e-01 4.765401e-01 4.435577e-01 4.302794e-01 4.433799e-01 4.762647e-01 5.186112e-01 5.632366e-01 6.053923e-01 6.432202e-01 6.768829e-01 7.069426e-01 7.344630e-01 7.599692e-01 7.843725e-01 8.078688e-01 8.306729e-01 8.528677e-01 8.741807e-01 8.940767e-01 9.121448e-01 9.281302e-01 9.419730e-01 9.537589e-01 9.636542e-01 9.718606e-01 9.785755e-01 9.839867e-01 9.882662e-01 9.915771e-01 9.940719e-01 9.958930e-01 9.971665e-01 9.979978e-01 9.984659e-01 
9.980253e-01 9.978177e-01 9.971743e-01 9.960312e-01 9.942831e-01 9.917894e-01 9.883816e-01 9.838690e-01 9.780456e-01 9.706877e-01 9.615546e-01 9.503773e-01 9.368734e-01 9.207573e-01 9.018229e-01 8.799995e-01 8.554934e-01 8.287726e-01 8.006014e-01 7.717834e-01 7.429692e-01 7.141593e-01 6.849427e-01 6.550069e-01 6.235999e-01 5.904063e-01 5.541619e-01 5.154154e-01 4.738403e-01 4.314352e-01 3.920440e-01 3.614215e-01 3.490442e-01 3.612115e-01 3.917242e-01 4.310885e-01 4.735178e-01 5.149443e-01 5.538172e-01 5.900929e-01 6.236032e-01 6.549936e-01 6.846992e-01 7.138470e-01 7.425358e-01 7.713397e-01 8.001314e-01 8.283264e-01 8.550711e-01 8.796224e-01 9.014932e-01 9.204789e-01 9.366433e-01 9.501911e-01 9.614065e-01 9.705719e-01 9.779568e-01 9.838022e-01 9.883326e-01 9.917544e-01 9.942590e-01 9.960154e-01 9.971649e-01 9.978133e-01 
9.972403e-01 9.969600e-01 9.960918e-01 9.945521e-01 9.922031e-01 9.888610e-01 9.843049e-01 9.782842e-01 9.705252e-01 9.607265e-01 9.485580e-01 9.336471e-01 9.156067e-01 8.940640e-01 8.687958e-01 8.398187e-01 8.075819e-01 7.728929e-01 7.369213e-01 7.007428e-01 6.652235e-01 6.303882e-01 5.955177e-01 5.600263e-01 5.234573e-01 4.866668e-01 4.482930e-01 4.091111e-01 3.688482e-01 3.301526e-01 2.967846e-01 2.716241e-01 2.616664e-01 2.713884e-01 2.964510e-01 3.298735e-01 3.685173e-01 4.085127e-01 4.479107e-01 4.862578e-01 5.234989e-01 5.600235e-01 5.951329e-01 6.299596e-01 6.646516e-01 7.001596e-01 7.363061e-01 7.722954e-01 8.070106e-01 8.392986e-01 8.683383e-01 8.936749e-01 9.152850e-01 9.333864e-01 9.483512e-01 9.605649e-01 9.704015e-01 9.781912e-01 9.842368e-01 9.888123e-01 9.921696e-01 9.945301e-01 9.960788e-01 9.969540e-01 
9.962237e-01 9.958550e-01 9.947129e-01 9.926910e-01 9.896136e-01 9.852460e-01 9.793055e-01 9.714694e-01 9.613821e-01 9.486475e-01 9.328273e-01 9.134276e-01 8.899505e-01 8.619526e-01 8.292545e-01 7.920565e-01 7.511786e-01 7.078432e-01 6.636313e-01 6.197530e-01 5.770698e-01 5.353393e-01 4.934264e-01 4.510259e-01 4.078360e-01 3.644410e-01 3.209761e-01 2.812499e-01 2.452434e-01 2.134984e-01 1.885597e-01 1.707093e-01 1.641345e-01 1.704218e-01 1.882581e-01 2.134167e-01 2.449292e-01 2.805136e-01 3.206353e-01 3.639322e-01 4.079510e-01 4.510144e-01 4.928359e-01 5.347965e-01 5.763845e-01 6.190389e-01 6.628744e-01 7.070787e-01 7.504341e-01 7.913605e-01 8.286360e-01 8.614210e-01 8.895104e-01 9.130707e-01 9.325449e-01 9.484273e-01 9.612140e-01 9.713433e-01 9.792133e-01 9.851804e-01 9.895685e-01 9.926615e-01 9.946954e-01 9.958470e-01 
9.949314e-01 9.944581e-01 9.929925e-01 9.904022e-01 9.864691e-01 9.809008e-01 9.733434e-01 9.633913e-01 9.505935e-01 9.344450e-01 9.143860e-01 8.897962e-01 8.600797e-01 8.247717e-01 7.838182e-01 7.377268e-01 6.877686e-01 6.356050e-01 5.830683e-01 5.312848e-01 4.808447e-01 4.309224e-01 3.802478e-01 3.277407e-01 2.748795e-01 2.271138e-01 1.869683e-01 1.563726e-01 1.335314e-01 1.167198e-01 1.056840e-01 9.851585e-02 9.600390e-02 9.821958e-02 1.054611e-01 1.169359e-01 1.334211e-01 1.555635e-01 1.869357e-01 2.266800e-01 2.747660e-01 3.274145e-01 3.794550e-01 4.302679e-01 4.800934e-01 5.304497e-01 5.821810e-01 6.346709e-01 6.868414e-01 7.368357e-01 7.830158e-01 8.240729e-01 8.594985e-01 8.893233e-01 9.140120e-01 9.341537e-01 9.503717e-01 9.632253e-01 9.732224e-01 9.808148e-01 9.864101e-01 9.903637e-01 9.929696e-01 9.944476e-01 
9.933126e-01 9.927194e-01 9.908826e-01 9.876423e-01 9.827346e-01 9.758044e-01 9.664190e-01 9.540811e-01 9.382345e-01 9.182568e-01 8.934641e-01 8.631212e-01 8.265681e-01 7.833821e-01 7.337268e-01 6.785029e-01 6.194772e-01 5.586216e-01 4.977963e-01 4.376932e-01 3.785409e-01 3.185192e-01 2.564819e-01 1.977073e-01 1.515474e-01 1.223690e-01 1.077260e-01 1.043915e-01 1.063839e-01 1.100590e-01 1.133754e-01 1.150561e-01 1.153536e-01 1.148702e-01 1.133220e-01 1.103825e-01 1.065080e-01 1.039632e-01 1.079077e-01 1.222466e-01 1.511876e-01 1.971992e-01 2.556479e-01 3.177619e-01 3.777991e-01 4.367481e-01 4.967922e-01 5.575139e-01 6.183522e-01 6.773902e-01 7.327090e-01 7.824844e-01 8.258177e-01 8.625090e-01 8.929806e-01 9.178809e-01 9.379493e-01 9.538684e-01 9.662645e-01 9.756949e-01 9.826598e-01 9.875936e-01 9.908538e-01 9.927062e-01 
9.913084e-01 9.905812e-01 9.883300e-01 9.843675e-01 9.783827e-01 9.699557e-01 9.585708e-01 9.436336e-01 9.244776e-01 9.003631e-01 8.704909e-01 8.340329e-01 7.903051e-01 7.389828e-01 6.805000e-01 6.162220e-01 5.483366e-01 4.789701e-01 4.095657e-01 3.402416e-01 2.705082e-01 2.008907e-01 1.411252e-01 1.070091e-01 9.903696e-02 1.097945e-01 1.303314e-01 1.508889e-01 1.660000e-01 1.749080e-01 1.794526e-01 1.814458e-01 1.816645e-01 1.813953e-01 1.795106e-01 1.751574e-01 1.659406e-01 1.509445e-01 1.307672e-01 1.100096e-01 9.900325e-02 1.069139e-01 1.404674e-01 2.001410e-01 2.697528e-01 3.391719e-01 4.084579e-01 4.777177e-01 5.470376e-01 6.149021e-01 6.792665e-01 7.378777e-01 7.893717e-01 8.332676e-01 8.698851e-01 8.998926e-01 9.241214e-01 9.433688e-01 9.583792e-01 9.698205e-01 9.782906e-01 9.843077e-01 9.882947e-01 9.905650e-01 
9.888473e-01 9.879738e-01 9.852711e-01 9.805264e-01 9.733845e-01 9.633623e-01 9.498608e-01 9.321884e-01 9.095687e-01 8.811522e-01 8.460365e-01 8.033218e-01 7.523172e-01 6.928129e-01 6.255393e-01 5.523590e-01 4.758020e-01 3.977915e-01 3.191120e-01 2.395028e-01 1.626920e-01 1.074773e-01 9.014240e-02 1.070163e-01 1.425588e-01 1.795967e-01 2.092290e-01 2.299596e-01 2.436678e-01 2.509729e-01 2.539530e-01 2.550263e-01 2.549691e-01 2.550348e-01 2.540092e-01 2.511038e-01 2.434997e-01 2.302307e-01 2.095857e-01 1.797652e-01 1.429208e-01 1.072623e-01 9.003491e-02 1.071134e-01 1.618883e-01 2.383350e-01 3.179446e-01 3.964214e-01 4.743371e-01 5.508325e-01 6.240799e-01 6.914865e-01 7.511864e-01 8.023909e-01 8.452989e-01 8.805803e-01 9.091371e-01 9.318691e-01 9.496309e-01 9.632009e-01 9.732752e-01 9.804557e-01 9.852294e-01 9.879547e-01 
9.858447e-01 9.848137e-01 9.816275e-01 9.760537e-01 9.676997e-01 9.560259e-01 9.403544e-01 9.199008e-01 8.937832e-01 8.610481e-01 8.206980e-01 7.717496e-01 7.134933e-01 6.458070e-01 5.697630e-01 4.878163e-01 4.025864e-01 3.155426e-01 2.268987e-01 1.426894e-01 9.032889e-02 8.855277e-02 1.262774e-01 1.788921e-01 2.277549e-01 2.669249e-01 2.962685e-01 3.155932e-01 3.269615e-01 3.319255e-01 3.330493e-01 3.328950e-01 3.324625e-01 3.329139e-01 3.330637e-01 3.319832e-01 3.268183e-01 3.158161e-01 2.964839e-01 2.670878e-01 2.281099e-01 1.792492e-01 1.267583e-01 8.876647e-02 8.999916e-02 1.417510e-01 2.257607e-01 3.141473e-01 4.010532e-01 4.861657e-01 5.681268e-01 6.442874e-01 7.121768e-01 7.706578e-01 8.198289e-01 8.603746e-01 8.932760e-01 9.195275e-01 9.400873e-01 9.558396e-01 9.675744e-01 9.759732e-01 9.815802e-01 9.847920e-01 
9.822020e-01 9.810018e-01 9.773017e-01 9.708603e-01 9.612593e-01 9.479160e-01 9.300821e-01 9.068879e-01 8.773473e-01 8.404046e-01 7.949452e-01 7.398606e-01 6.743728e-01 5.984435e-01 5.136194e-01 4.230500e-01 3.290098e-01 2.323285e-01 1.399129e-01 8.383432e-02 9.026905e-02 1.422411e-01 2.068489e-01 2.670379e-01 3.181615e-01 3.573625e-01 3.853080e-01 4.027832e-01 4.122404e-01 4.156779e-01 4.157336e-01 4.148682e-01 4.142356e-01 4.148760e-01 4.157090e-01 4.156848e-01 4.121222e-01 4.029115e-01 3.854416e-01 3.574996e-01 3.184541e-01 2.674171e-01 2.074221e-01 1.427684e-01 9.060868e-02 8.353585e-02 1.389987e-01 2.309218e-01 3.274011e-01 4.212927e-01 5.118294e-01 5.967529e-01 6.728915e-01 7.386259e-01 7.939593e-01 8.396414e-01 8.767745e-01 9.064692e-01 9.297849e-01 9.477109e-01 9.611228e-01 9.707732e-01 9.772509e-01 9.809785e-01 
9.778139e-01 9.764291e-01 9.721796e-01 9.648310e-01 9.539574e-01 9.389524e-01 9.190082e-01 8.931810e-01 8.603712e-01 8.194118e-01 7.690045e-01 7.078385e-01 6.350749e-01 5.507610e-01 4.573098e-01 3.584896e-01 2.553608e-01 1.533352e-01 8.572211e-02 8.872567e-02 1.476452e-01 2.218688e-01 2.930533e-01 3.553109e-01 4.067381e-01 4.455468e-01 4.726025e-01 4.889953e-01 4.972809e-01 4.998200e-01 4.992987e-01 4.980473e-01 4.973255e-01 4.980419e-01 4.992526e-01 4.997976e-01 4.971902e-01 4.890582e-01 4.726975e-01 4.456981e-01 4.070260e-01 3.556988e-01 2.936233e-01 2.224941e-01 1.483296e-01 8.904722e-02 8.528078e-02 1.521604e-01 2.538867e-01 3.567710e-01 4.554554e-01 5.489596e-01 6.334696e-01 7.064919e-01 7.679249e-01 8.185755e-01 8.597466e-01 8.927287e-01 9.186912e-01 9.387370e-01 9.538163e-01 9.647423e-01 9.721282e-01 9.764053e-01 
9.725809e-01 9.709909e-01 9.661484e-01 9.578479e-01 9.456828e-01 9.290466e-01 9.070857e-01 8.787770e-01 8.428736e-01 7.980384e-01 7.427459e-01 6.755053e-01 5.953846e-01 5.027010e-01 4.012437e-01 2.947700e-01 1.844520e-01 9.783606e-02 8.310910e-02 1.402315e-01 2.211073e-01 3.012108e-01 3.743748e-01 4.377028e-01 4.891503e-01 5.276693e-01 5.542207e-01 5.703243e-01 5.785380e-01 5.812882e-01 5.811049e-01 5.801012e-01 5.795089e-01 5.800890e-01 5.810567e-01 5.812593e-01 5.784794e-01 5.703694e-01 5.543220e-01 5.278565e-01 4.894787e-01 4.381601e-01 3.750205e-01 3.019582e-01 2.219627e-01 1.410503e-01 8.339218e-02 9.719267e-02 1.830632e-01 2.930129e-01 3.993696e-01 5.008577e-01 5.937318e-01 6.741159e-01 7.416308e-01 7.971805e-01 8.422379e-01 8.783234e-01 9.067741e-01 9.288405e-01 9.455520e-01 9.577686e-01 9.661037e-01 9.709706e-01 
9.664288e-01 9.646079e-01 9.591135e-01 9.497980e-01 9.363069e-01 9.180658e-01 8.941897e-01 8.635727e-01 8.247774e-01 7.762358e-01 7.160680e-01 6.425816e-01 5.550212e-01 4.542403e-01 3.461720e-01 2.320030e-01 1.263979e-01 8.035201e-02 1.214491e-01 2.045416e-01 2.906771e-01 3.728791e-01 4.469601e-01 5.105029e-01 5.618102e-01 6.004112e-01 6.273373e-01 6.442007e-01 6.534003e-01 6.572539e-01 6.580751e-01 6.577469e-01 6.574309e-01 6.577361e-01 6.580407e-01 6.572391e-01 6.533852e-01 6.442685e-01 6.274806e-01 6.006671e-01 5.622203e-01 5.110684e-01 4.477244e-01 3.737681e-01 2.916979e-01 2.055796e-01 1.222052e-01 8.032769e-02 1.252407e-01 2.302884e-01 3.443128e-01 4.523932e-01 5.533636e-01 6.412003e-01 7.149675e-01 7.753987e-01 8.241670e-01 8.631479e-01 8.939083e-01 9.178890e-01 9.362020e-01 9.497394e-01 9.590833e-01 9.645949e-01 
9.593312e-01 9.572428e-01 9.510090e-01 9.405745e-01 9.256785e-01 9.058153e-01 8.800872e-01 8.472997e-01 8.057817e-01 7.536858e-01 6.887073e-01 6.091019e-01 5.143210e-01 4.066245e-01 2.930772e-01 1.750299e-01 9.269383e-02 9.812360e-02 1.746388e-01 2.636822e-01 3.515242e-01 4.337817e-01 5.078132e-01 5.711499e-01 6.225781e-01 6.618304e-01 6.899271e-01 7.084259e-01 7.194749e-01 7.251748e-01 7.275648e-01 7.282835e-01 7.283673e-01 7.282804e-01 7.275538e-01 7.251882e-01 7.195106e-01 7.085397e-01 6.901320e-01 6.621645e-01 6.230775e-01 5.718250e-01 5.086862e-01 4.347883e-01 3.526445e-01 2.647692e-01 1.756559e-01 9.872640e-02 9.213204e-02 1.737767e-01 2.914923e-01 4.050048e-01 5.128367e-01 6.078763e-01 6.877342e-01 7.529561e-01 8.052619e-01 8.469532e-01 8.798734e-01 9.056960e-01 9.256207e-01 9.405518e-01 9.510030e-01 9.572420e-01 
9.513428e-01 9.489378e-01 9.418435e-01 9.301373e-01 9.136997e-01 8.921371e-01 8.645643e-01 8.297021e-01 7.856118e-01 7.301628e-01 6.605750e-01 5.754030e-01 4.740650e-01 3.617521e-01 2.430671e-01 1.312203e-01 8.558162e-02 1.342477e-01 2.235961e-01 3.130933e-01 4.005883e-01 4.821043e-01 5.555087e-01 6.186531e-01 6.705355e-01 7.110142e-01 7.409505e-01 7.617206e-01 7.751641e-01 7.831201e-01 7.873575e-01 7.892890e-01 7.898234e-01 7.892956e-01 7.873708e-01 7.831639e-01 7.752460e-01 7.618812e-01 7.412119e-01 7.114151e-01 6.711103e-01 6.194212e-01 5.564880e-01 4.832529e-01 4.018815e-01 3.144212e-01 2.249308e-01 1.353846e-01 8.580343e-02 1.303071e-01 2.414393e-01 3.601955e-01 4.727453e-01 5.743739e-01 6.597920e-01 7.296007e-01 7.852362e-01 8.294780e-01 8.644537e-01 8.921030e-01 9.137100e-01 9.301658e-01 9.418718e-01 9.489542e-01 
9.426229e-01 9.398410e-01 9.317354e-01 9.185581e-01 9.003840e-01 8.769783e-01 8.475064e-01 8.106143e-01 7.641026e-01 7.055437e-01 6.317613e-01 5.417016e-01 4.349874e-01 3.196760e-01 1.980994e-01 1.037842e-01 9.767287e-02 1.723325e-01 2.620674e-01 3.511898e-01 4.370397e-01 5.174024e-01 5.899808e-01 6.531172e-01 7.058413e-01 7.479929e-01 7.802051e-01 8.036017e-01 8.197074e-01 8.300947e-01 8.362810e-01 8.394807e-01 8.404760e-01 8.394960e-01 8.363142e-01 8.301628e-01 8.198219e-01 8.037933e-01 7.804975e-01 7.484223e-01 7.064393e-01 6.539090e-01 5.909834e-01 5.185950e-01 4.384020e-01 3.526482e-01 2.635637e-01 1.737353e-01 9.839615e-02 1.032432e-01 1.966989e-01 3.184309e-01 4.340527e-01 5.410199e-01 6.312857e-01 7.052398e-01 7.639429e-01 8.105677e-01 8.475411e-01 8.770614e-01 9.004862e-01 9.186549e-01 9.318090e-01 9.398801e-01 
9.334565e-01 9.302337e-01 9.209549e-01 9.060877e-01 8.859538e-01 8.605252e-01 8.290709e-01 7.901858e-01 7.414649e-01 6.801615e-01 6.029034e-01 5.087960e-01 3.984524e-01 2.808737e-01 1.612183e-01 9.153884e-02 1.186267e-01 2.036510e-01 2.904842e-01 3.777928e-01 4.614551e-01 5.403754e-01 6.122091e-01 6.755853e-01 7.294797e-01 7.736085e-01 8.083293e-01 8.344852e-01 8.532988e-01 8.660953e-01 8.741765e-01 8.785942e-01 8.800243e-01 8.786139e-01 8.742189e-01 8.661723e-01 8.534210e-01 8.346754e-01 8.086078e-01 7.740062e-01 7.300241e-01 6.763029e-01 6.131170e-01 5.414640e-01 4.627052e-01 3.791347e-01 2.918367e-01 2.048221e-01 1.192938e-01 9.116027e-02 1.602988e-01 2.802159e-01 3.980750e-01 5.085654e-01 6.028151e-01 6.801819e-01 7.415761e-01 7.903608e-01 8.292855e-01 8.607521e-01 8.861681e-01 9.062674e-01 9.210836e-01 9.303004e-01 
9.242484e-01 9.205290e-01 9.099371e-01 8.931873e-01 8.708939e-01 8.432773e-01 8.097730e-01 7.689613e-01 7.183231e-01 6.547829e-01 5.749883e-01 4.779358e-01 3.658394e-01 2.469167e-01 1.341882e-01 8.958910e-02 1.394378e-01 2.252093e-01 3.092645e-01 3.937606e-01 4.751878e-01 5.526519e-01 6.239824e-01 6.878663e-01 7.431835e-01 7.894474e-01 8.267383e-01 8.556168e-01 8.770355e-01 8.921021e-01 9.019413e-01 9.074771e-01 9.092995e-01 9.074967e-01 9.019824e-01 8.921719e-01 8.771405e-01 8.557713e-01 8.269556e-01 7.897499e-01 7.435921e-01 6.884061e-01 6.246722e-01 5.534912e-01 4.761650e-01 3.948104e-01 3.103301e-01 2.261593e-01 1.403303e-01 8.979434e-02 1.336925e-01 2.465557e-01 3.657798e-01 4.780544e-01 5.752652e-01 6.551465e-01 7.187351e-01 7.693875e-01 8.101921e-01 8.436674e-01 8.712350e-01 8.934607e-01 9.101281e-01 9.206271e-01 
9.155077e-01 9.112620e-01 8.992848e-01 8.805530e-01 8.560011e-01 8.261250e-01 7.905839e-01 7.479877e-01 6.957935e-01 6.306172e-01 5.492165e-01 4.503697e-01 3.377525e-01 2.185818e-01 1.155153e-01 9.268806e-02 1.553509e-01 2.377709e-01 3.192759e-01 4.008139e-01 4.802906e-01 5.565374e-01 6.276893e-01 6.923128e-01 7.491947e-01 7.976079e-01 8.373782e-01 8.688052e-01 8.926110e-01 9.097217e-01 9.211215e-01 9.276394e-01 9.298010e-01 9.276542e-01 9.211513e-01 9.097684e-01 8.926753e-01 8.688916e-01 8.374896e-01 7.977553e-01 7.493899e-01 6.925770e-01 6.280445e-01 5.569996e-01 4.808669e-01 4.014753e-01 3.199912e-01 2.385021e-01 1.562366e-01 9.327781e-02 1.153693e-01 2.183131e-01 3.378468e-01 4.507892e-01 5.498565e-01 6.313425e-01 6.965244e-01 7.486803e-01 7.912188e-01 8.266870e-01 8.564757e-01 8.809252e-01 8.995417e-01 9.113935e-01 
9.078026e-01 9.030461e-01 8.897277e-01 8.690785e-01 8.423501e-01 8.103158e-01 7.728880e-01 7.287454e-01 6.753802e-01 6.091496e-01 5.268757e-01 4.271745e-01 3.146339e-01 1.964487e-01 1.035823e-01 9.758719e-02 1.658266e-01 2.440176e-01 3.229447e-01 4.017946e-01 4.796775e-01 5.550118e-01 6.262341e-01 6.916992e-01 7.501142e-01 8.005083e-01 8.424967e-01 8.761526e-01 9.020137e-01 9.208605e-01 9.335718e-01 9.409077e-01 9.433483e-01 9.409153e-01 9.335850e-01 9.208760e-01 9.020250e-01 8.761535e-01 8.424778e-01 8.004660e-01 7.500469e-01 6.916193e-01 6.261646e-01 5.549857e-01 4.797349e-01 4.019627e-01 3.232474e-01 2.444671e-01 1.664496e-01 9.808387e-02 1.035335e-01 1.962694e-01 3.149319e-01 4.279213e-01 5.278809e-01 6.102246e-01 6.764135e-01 7.296886e-01 7.737252e-01 8.110390e-01 8.429499e-01 8.695437e-01 8.900468e-01 9.032091e-01 
9.017111e-01 8.965176e-01 8.820551e-01 8.597709e-01 8.311911e-01 7.973324e-01 7.583457e-01 7.129948e-01 6.588334e-01 5.920270e-01 5.094100e-01 4.095214e-01 2.974348e-01 1.808804e-01 9.655769e-02 1.016143e-01 1.715058e-01 2.461622e-01 3.228566e-01 3.996086e-01 4.763362e-01 5.510678e-01 6.224982e-01 6.887457e-01 7.484708e-01 8.004865e-01 8.442547e-01 8.796704e-01 9.071369e-01 9.273266e-01 9.410445e-01 9.490039e-01 9.516551e-01 9.490038e-01 9.410399e-01 9.273096e-01 9.070938e-01 8.795846e-01 8.441030e-01 8.002485e-01 7.481269e-01 6.882909e-01 6.219442e-01 5.504477e-01 4.757078e-01 3.990395e-01 3.224272e-01 2.459460e-01 1.715647e-01 1.017728e-01 9.643850e-02 1.808687e-01 2.980530e-01 4.106444e-01 5.107758e-01 5.934220e-01 6.601323e-01 7.141544e-01 7.593558e-01 7.981933e-01 8.318982e-01 8.603162e-01 8.824279e-01 8.967081e-01 
8.977570e-01 8.922648e-01 8.770205e-01 8.536196e-01 8.237772e-01 7.886799e-01 7.486503e-01 7.025242e-01 6.479065e-01 5.808508e-01 4.981695e-01 3.983849e-01 2.867592e-01 1.715652e-01 9.279236e-02 1.038668e-01 1.739030e-01 2.464341e-01 3.216137e-01 3.970370e-01 4.730555e-01 5.474460e-01 6.190706e-01 6.858695e-01 7.464790e-01 7.995638e-01 8.444926e-01 8.810453e-01 9.095430e-01 9.305905e-01 9.449488e-01 9.533033e-01 9.560872e-01 9.532975e-01 9.449312e-01 9.305499e-01 9.094604e-01 8.808966e-01 8.442447e-01 7.991830e-01 7.459310e-01 6.851330e-01 6.181444e-01 5.463566e-01 4.718677e-01 3.958457e-01 3.205449e-01 2.456325e-01 1.734997e-01 1.038060e-01 9.260753e-02 1.716161e-01 2.875524e-01 3.997303e-01 4.997540e-01 5.824433e-01 6.493714e-01 7.038205e-01 7.497709e-01 7.896293e-01 8.245536e-01 8.542167e-01 8.774281e-01 8.924730e-01 
8.963526e-01 8.907510e-01 8.752210e-01 8.514127e-01 8.211094e-01 7.855597e-01 7.451476e-01 6.987352e-01 6.439427e-01 5.767847e-01 4.940565e-01 3.942916e-01 2.828143e-01 1.682120e-01 9.155384e-02 1.045999e-01 1.744898e-01 2.463214e-01 3.209403e-01 3.959022e-01 4.716790e-01 5.459634e-01 6.176728e-01 6.846776e-01 7.456087e-01 7.990756e-01 8.444169e-01 8.813716e-01 9.102332e-01 9.315829e-01 9.461665e-01 9.546597e-01 9.574901e-01 9.546517e-01 9.461437e-01 9.315328e-01 9.101348e-01 8.811974e-01 8.441294e-01 7.986354e-01 7.449745e-01 6.838198e-01 6.165829e-01 5.446619e-01 4.702325e-01 3.944125e-01 3.195582e-01 2.452236e-01 1.738551e-01 1.044289e-01 9.132353e-02 1.682671e-01 2.836671e-01 3.957256e-01 4.957320e-01 5.784600e-01 6.454765e-01 7.000877e-01 7.463131e-01 7.865451e-01 8.219138e-01 8.520309e-01 8.756430e-01 8.909666e-01 
8.977570e-01 8.922648e-01 8.770205e-01 8.536196e-01 8.237772e-01 7.886799e-01 7.486503e-01 7.025242e-01 6.479065e-01 5.808508e-01 4.981695e-01 3.983849e-01 2.867592e-01 1.715652e-01 9.279236e-02 1.038668e-01 1.739030e-01 2.464341e-01 3.216137e-01 3.970370e-01 4.730555e-01 5.474460e-01 6.190706e-01 6.858695e-01 7.464790e-01 7.995638e-01 8.444926e-01 8.810453e-01 9.095430e-01 9.305905e-01 9.449488e-01 9.533033e-01 9.560872e-01 9.532975e-01 9.449312e-01 9.305499e-01 9.094604e-01 8.808966e-01 8.442447e-01 7.991830e-01 7.459310e-01 6.851330e-01 6.181444e-01 5.463566e-01 4.718677e-01 3.958457e-01 3.205449e-01 2.456325e-01 1.734997e-01 1.038060e-01 9.260753e-02 1.716161e-01 2.875524e-01 3.997303e-01 4.997540e-01 5.824433e-01 6.493714e-01 7.038205e-01 7.497709e-01 7.896293e-01 8.245536e-01 8.542167e-01 8.774281e-01 8.924730e-01 
9.017111e-01 8.965176e-01 8.820551e-01 8.597709e-01 8.311911e-01 7.973324e-01 7.583457e-01 7.129948e-01 6.588334e-01 5.920270e-01 5.094100e-01 4.095214e-01 2.974348e-01 1.808804e-01 9.655769e-02 1.016143e-01 1.715058e-01 2.461622e-01 3.228566e-01 3.996086e-01 4.763362e-01 5.510678e-01 6.224982e-01 6.887457e-01 7.484708e-01 8.004865e-01 8.442547e-01 8.796704e-01 9.071369e-01 9.273266e-01 9.410445e-01 9.490039e-01 9.516551e-01 9.490038e-01 9.410399e-01 9.273096e-01 9.070938e-01 8.795846e-01 8.441030e-01 8.002485e-01 7.481269e-01 6.882909e-01 6.219442e-01 5.504477e-01 4.757078e-01 3.990395e-01 3.224272e-01 2.459460e-01 1.715647e-01 1.017728e-01 9.643850e-02 1.808687e-01 2.980530e-01 4.106444e-01 5.107758e-01 5.934220e-01 6.601323e-01 7.141544e-01 7.593558e-01 7.981933e-01 8.318982e-01 8.603162e-01 8.824279e-01 8.967081e-01 