# vtk DataFile Version 2.0
Comment goes here
ASCII

DATASET STRUCTURED_POINTS
FIELD FieldData 1
TIME 1 1 double
0.49000000
DIMENSIONS    64   64   1

ORIGIN    0.000   0.000   0.000
SPACING   0.015625 0.015625   1.000

POINT_DATA   4096
SCALARS Concentration double
LOOKUP_TABLE default

9.997630e-01 9.997474e-01 9.996994e-01 9.996165e-01 9.994943e-01 9.993269e-01 9.991072e-01 9.988269e-01 9.984772e-01 9.980486e-01 9.975309e-01 9.969135e-01 9.961843e-01 9.953287e-01 9.943280e-01 9.931562e-01 9.917786e-01 9.901473e-01 9.882004e-01 9.858586e-01 9.830288e-01 9.796058e-01 9.754884e-01 9.705970e-01 9.649084e-01 9.584823e-01 9.514996e-01 9.442693e-01 9.372305e-01 9.309061e-01 9.258492e-01 9.225577e-01 9.214001e-01 9.225555e-01 9.258459e-01 9.309026e-01 9.372263e-01 9.442651e-01 9.514948e-01 9.584771e-01 9.649026e-01 9.705904e-01 9.754809e-01 9.795970e-01 9.830189e-01 9.858475e-01 9.881884e-01 9.901346e-01 9.917658e-01 9.931435e-01 9.943158e-01 9.953173e-01 9.961740e-01 9.969043e-01 9.975229e-01 9.980418e-01 9.984716e-01 9.988223e-01 9.991035e-01 9.993241e-01 9.994922e-01 9.996150e-01 9.996985e-01 9.997469e-01 
9.997336e-01 9.997163e-01 9.996630e-01 9.995708e-01 9.994351e-01 9.992496e-01 9.990065e-01 9.986970e-01 9.983118e-01 9.978408e-01 9.972738e-01 9.965998e-01 9.958070e-01 9.948811e-01 9.938036e-01 9.925492e-01 9.910830e-01 9.893571e-01 9.873085e-01 9.848559e-01 9.819025e-01 9.783368e-01 9.740478e-01 9.689461e-01 9.629989e-01 9.562572e-01 9.488998e-01 9.412440e-01 9.337521e-01 9.269870e-01 9.215535e-01 9.180052e-01 9.167544e-01 9.180021e-01 9.215485e-01 9.269813e-01 9.337455e-01 9.412374e-01 9.488927e-01 9.562501e-01 9.629912e-01 9.689378e-01 9.740385e-01 9.783264e-01 9.818909e-01 9.848430e-01 9.872945e-01 9.893424e-01 9.910681e-01 9.925345e-01 9.937896e-01 9.948680e-01 9.957951e-01 9.965892e-01 9.972646e-01 9.978330e-01 9.983053e-01 9.986918e-01 9.990023e-01 9.992464e-01 9.994327e-01 9.995691e-01 9.996619e-01 9.997158e-01 
9.996420e-01 9.996192e-01 9.995491e-01 9.994283e-01 9.992508e-01 9.990089e-01 9.986932e-01 9.982932e-01 9.977977e-01 9.971955e-01 9.964753e-01 9.956261e-01 9.946362e-01 9.934924e-01 9.921778e-01 9.906682e-01 9.889300e-01 9.869145e-01 9.845568e-01 9.817692e-01 9.784446e-01 9.744537e-01 9.696590e-01 9.639430e-01 9.572434e-01 9.495870e-01 9.411464e-01 9.322632e-01 9.234673e-01 9.154355e-01 9.089212e-01 9.046364e-01 9.031185e-01 9.046303e-01 9.089110e-01 9.154233e-01 9.234532e-01 9.322492e-01 9.411320e-01 9.495733e-01 9.572296e-01 9.639289e-01 9.696440e-01 9.744377e-01 9.784271e-01 9.817501e-01 9.845364e-01 9.868933e-01 9.889086e-01 9.906472e-01 9.921577e-01 9.934737e-01 9.946193e-01 9.956110e-01 9.964623e-01 9.971845e-01 9.977886e-01 9.982858e-01 9.986874e-01 9.990044e-01 9.992475e-01 9.994259e-01 9.995476e-01 9.996184e-01 
9.994759e-01 9.994434e-01 9.993434e-01 9.991712e-01 9.989191e-01 9.985765e-01 9.981311e-01 9.975692e-01 9.968770e-01 9.960405e-01 9.950472e-01 9.938854e-01 9.925447e-01 9.910140e-01 9.892796e-01 9.873209e-01 9.851074e-01 9.825914e-01 9.797057e-01 9.763542e-01 9.724140e-01 9.677276e-01 9.621157e-01 9.554157e-01 9.475178e-01 9.384092e-01 9.282518e-01 9.174258e-01 9.065673e-01 8.965332e-01 8.883109e-01 8.828623e-01 8.809221e-01 8.828513e-01 8.882916e-01 8.965094e-01 9.065402e-01 9.173990e-01 9.282251e-01 9.383843e-01 9.474935e-01 9.553919e-01 9.620910e-01 9.677017e-01 9.723861e-01 9.763240e-01 9.796736e-01 9.825582e-01 9.850740e-01 9.872881e-01 9.892484e-01 9.909849e-01 9.925185e-01 9.938622e-01 9.950271e-01 9.960235e-01 9.968630e-01 9.975579e-01 9.981221e-01 9.985696e-01 9.989140e-01 9.991676e-01 9.993411e-01 9.994423e-01 
9.992154e-01 9.991678e-01 9.990216e-01 9.987702e-01 9.984027e-01 9.979049e-01 9.972596e-01 9.964484e-01 9.954530e-01 9.942557e-01 9.928418e-01 9.911992e-01 9.893196e-01 9.871959e-01 9.848215e-01 9.821826e-01 9.792567e-01 9.760004e-01 9.723474e-01 9.681932e-01 9.633957e-01 9.577610e-01 9.510544e-01 9.430549e-01 9.335892e-01 9.225907e-01 9.102050e-01 8.968590e-01 8.833245e-01 8.706908e-01 8.602497e-01 8.532879e-01 8.507979e-01 8.532690e-01 8.602161e-01 8.706489e-01 8.832767e-01 8.968118e-01 9.101588e-01 9.225485e-01 9.335487e-01 9.430158e-01 9.510143e-01 9.577193e-01 9.633511e-01 9.681452e-01 9.722966e-01 9.759478e-01 9.792039e-01 9.821308e-01 9.847722e-01 9.871502e-01 9.892783e-01 9.911627e-01 9.928104e-01 9.942292e-01 9.954311e-01 9.964308e-01 9.972457e-01 9.978942e-01 9.983948e-01 9.987646e-01 9.990181e-01 9.991661e-01 
9.988322e-01 9.987629e-01 9.985501e-01 9.981845e-01 9.976509e-01 9.969293e-01 9.959960e-01 9.948258e-01 9.933936e-01 9.916767e-01 9.896569e-01 9.873220e-01 9.846675e-01 9.816938e-01 9.784059e-01 9.748039e-01 9.708805e-01 9.666036e-01 9.619141e-01 9.567019e-01 9.508058e-01 9.439884e-01 9.359491e-01 9.263990e-01 9.150894e-01 9.018884e-01 8.869203e-01 8.706637e-01 8.540451e-01 8.384191e-01 8.254257e-01 8.167238e-01 8.136002e-01 8.166933e-01 8.253711e-01 8.383501e-01 8.539665e-01 8.705864e-01 8.868458e-01 9.018215e-01 9.150262e-01 9.263385e-01 9.358872e-01 9.439238e-01 9.507369e-01 9.566278e-01 9.618356e-01 9.665222e-01 9.707986e-01 9.747236e-01 9.783296e-01 9.816229e-01 9.846036e-01 9.872656e-01 9.896084e-01 9.916357e-01 9.933599e-01 9.947986e-01 9.959746e-01 9.969128e-01 9.976387e-01 9.981759e-01 9.985447e-01 9.987603e-01 
9.982906e-01 9.981914e-01 9.978864e-01 9.973629e-01 9.965997e-01 9.955690e-01 9.942378e-01 9.925713e-01 9.905352e-01 9.880992e-01 9.852408e-01 9.819477e-01 9.782216e-01 9.740748e-01 9.695322e-01 9.646165e-01 9.593472e-01 9.537141e-01 9.476756e-01 9.411215e-01 9.338743e-01 9.256490e-01 9.160728e-01 9.047867e-01 8.914608e-01 8.758914e-01 8.581772e-01 8.388472e-01 8.189841e-01 8.002172e-01 7.845476e-01 7.740219e-01 7.702328e-01 7.739744e-01 7.844617e-01 8.001074e-01 8.188594e-01 8.387255e-01 8.580623e-01 8.757904e-01 8.913663e-01 9.046968e-01 9.159806e-01 9.255522e-01 9.337710e-01 9.410100e-01 9.475573e-01 9.535912e-01 9.592233e-01 9.644948e-01 9.694163e-01 9.739672e-01 9.781244e-01 9.818620e-01 9.851672e-01 9.880372e-01 9.904842e-01 9.925303e-01 9.942056e-01 9.955443e-01 9.965815e-01 9.973501e-01 9.978783e-01 9.981874e-01 
9.975480e-01 9.974086e-01 9.969804e-01 9.962457e-01 9.951754e-01 9.937310e-01 9.918672e-01 9.895360e-01 9.866904e-01 9.832895e-01 9.793051e-01 9.747250e-01 9.695602e-01 9.638419e-01 9.576244e-01 9.509664e-01 9.439290e-01 9.365383e-01 9.287828e-01 9.205607e-01 9.116816e-01 9.018083e-01 8.904953e-01 8.773148e-01 8.618599e-01 8.438598e-01 8.233962e-01 8.010524e-01 7.780607e-01 7.563053e-01 7.381142e-01 7.258802e-01 7.214648e-01 7.258082e-01 7.379828e-01 7.561350e-01 7.778673e-01 8.008658e-01 8.232248e-01 8.437134e-01 8.617250e-01 8.771871e-01 8.903635e-01 9.016692e-01 9.115327e-01 9.203996e-01 9.286112e-01 9.363594e-01 9.437480e-01 9.507879e-01 9.574541e-01 9.636833e-01 9.694169e-01 9.745984e-01 9.791963e-01 9.831979e-01 9.866151e-01 9.894755e-01 9.918197e-01 9.936947e-01 9.951486e-01 9.962269e-01 9.969685e-01 9.974029e-01 
9.965555e-01 9.963641e-01 9.957755e-01 9.947662e-01 9.932964e-01 9.913138e-01 9.887567e-01 9.855595e-01 9.816579e-01 9.769972e-01 9.715408e-01 9.652772e-01 9.582311e-01 9.504601e-01 9.420617e-01 9.331454e-01 9.238332e-01 9.142031e-01 9.042886e-01 8.940028e-01 8.831462e-01 8.713261e-01 8.580294e-01 8.427746e-01 8.250964e-01 8.046770e-01 7.815963e-01 7.564953e-01 7.307287e-01 7.063875e-01 6.860542e-01 6.723855e-01 6.674407e-01 6.722782e-01 6.858556e-01 7.061261e-01 7.304325e-01 7.562151e-01 7.813492e-01 8.044751e-01 8.249130e-01 8.426004e-01 8.578476e-01 8.711323e-01 8.829382e-01 8.937769e-01 9.040471e-01 9.139497e-01 9.235756e-01 9.328902e-01 9.418171e-01 9.502318e-01 9.580243e-01 9.650944e-01 9.713837e-01 9.768651e-01 9.815495e-01 9.854724e-01 9.886886e-01 9.912618e-01 9.932581e-01 9.947394e-01 9.957586e-01 9.963558e-01 
9.952599e-01 9.950026e-01 9.942111e-01 9.928541e-01 9.908784e-01 9.882142e-01 9.847780e-01 9.804817e-01 9.752383e-01 9.689748e-01 9.616437e-01 9.532350e-01 9.437924e-01 9.334100e-01 9.222435e-01 9.104723e-01 8.982984e-01 8.858681e-01 8.732706e-01 8.604372e-01 8.471562e-01 8.329748e-01 8.173128e-01 7.996576e-01 7.795246e-01 7.566009e-01 7.310291e-01 7.035384e-01 6.755752e-01 6.493506e-01 6.275593e-01 6.129564e-01 6.076590e-01 6.128013e-01 6.272670e-01 6.489570e-01 6.751277e-01 7.031248e-01 7.306848e-01 7.563373e-01 7.792878e-01 7.994305e-01 8.170716e-01 8.327148e-01 8.468770e-01 8.601330e-01 8.729445e-01 8.855237e-01 8.979460e-01 9.101208e-01 9.219047e-01 9.330920e-01 9.435035e-01 9.529790e-01 9.614232e-01 9.687892e-01 9.750861e-01 9.803595e-01 9.846825e-01 9.881413e-01 9.908248e-01 9.928167e-01 9.941875e-01 9.949911e-01 
9.936041e-01 9.932656e-01 9.922238e-01 9.904377e-01 9.878377e-01 9.843317e-01 9.798093e-01 9.741536e-01 9.672488e-01 9.589986e-01 9.493418e-01 9.382713e-01 9.258549e-01 9.122353e-01 8.976431e-01 8.823456e-01 8.666434e-01 8.507600e-01 8.348450e-01 8.188361e-01 8.025046e-01 7.853324e-01 7.666923e-01 7.461091e-01 7.231606e-01 6.976030e-01 6.696867e-01 6.402444e-01 6.107368e-01 5.833875e-01 5.608667e-01 5.458625e-01 5.404038e-01 5.456455e-01 5.604485e-01 5.828068e-01 6.100748e-01 6.396549e-01 6.692380e-01 6.972942e-01 7.228812e-01 7.458289e-01 7.663825e-01 7.849926e-01 8.021404e-01 8.184388e-01 8.344181e-01 8.503056e-01 8.661746e-01 8.818739e-01 8.971850e-01 9.118030e-01 9.254603e-01 9.379207e-01 9.490394e-01 9.587441e-01 9.670401e-01 9.739864e-01 9.796787e-01 9.842324e-01 9.877648e-01 9.903869e-01 9.921917e-01 9.932500e-01 
9.915293e-01 9.910931e-01 9.897501e-01 9.874478e-01 9.840962e-01 9.795767e-01 9.737457e-01 9.664508e-01 9.575408e-01 9.468911e-01 9.344239e-01 9.201364e-01 9.041282e-01 8.866028e-01 8.678834e-01 8.483418e-01 8.283890e-01 8.083262e-01 7.883486e-01 7.683840e-01 7.481660e-01 7.271299e-01 7.046089e-01 6.802340e-01 6.537370e-01 6.250818e-01 5.948057e-01 5.638974e-01 5.337087e-01 5.062791e-01 4.840295e-01 4.693475e-01 4.639864e-01 4.690673e-01 4.834709e-01 5.054679e-01 5.327696e-01 5.630946e-01 5.942690e-01 6.247725e-01 6.534375e-01 6.799026e-01 7.042217e-01 7.266961e-01 7.477054e-01 7.678841e-01 7.878129e-01 8.077525e-01 8.277916e-01 8.477342e-01 8.672874e-01 8.860356e-01 9.036070e-01 9.196710e-01 9.340211e-01 9.465513e-01 9.572619e-01 9.662274e-01 9.735713e-01 9.794443e-01 9.839991e-01 9.873802e-01 9.897075e-01 9.910724e-01 
9.889746e-01 9.884237e-01 9.867265e-01 9.838174e-01 9.795825e-01 9.738721e-01 9.665026e-01 9.572807e-01 9.460120e-01 9.325395e-01 9.167649e-01 8.986925e-01 8.784590e-01 8.563419e-01 8.327697e-01 8.082297e-01 7.832412e-01 7.581605e-01 7.332007e-01 7.082313e-01 6.829490e-01 6.567624e-01 6.291095e-01 5.999861e-01 5.694727e-01 5.376977e-01 5.053888e-01 4.736501e-01 4.435170e-01 4.167094e-01 3.953745e-01 3.814932e-01 3.764187e-01 3.811627e-01 3.946871e-01 4.156493e-01 4.422745e-01 4.726627e-01 5.048674e-01 5.375049e-01 5.692034e-01 5.996020e-01 6.286241e-01 6.562112e-01 6.823747e-01 7.076153e-01 7.325455e-01 7.574556e-01 7.824993e-01 8.074657e-01 8.320118e-01 8.556139e-01 8.777855e-01 8.980882e-01 9.162404e-01 9.320965e-01 9.456485e-01 9.569898e-01 9.662759e-01 9.737003e-01 9.794569e-01 9.837302e-01 9.866716e-01 9.883970e-01 
9.858786e-01 9.851959e-01 9.830917e-01 9.794852e-01 9.742356e-01 9.671576e-01 9.580222e-01 9.465885e-01 9.326126e-01 9.158998e-01 8.963287e-01 8.739108e-01 8.488272e-01 8.214384e-01 7.922906e-01 7.619846e-01 7.311311e-01 7.001061e-01 6.690957e-01 6.379116e-01 6.062221e-01 5.736141e-01 5.398622e-01 5.051816e-01 4.699100e-01 4.345587e-01 4.005056e-01 3.690309e-01 3.404544e-01 3.157417e-01 2.965077e-01 2.842004e-01 2.797057e-01 2.838699e-01 2.957830e-01 3.145421e-01 3.390152e-01 3.679838e-01 4.001579e-01 4.345868e-01 4.696462e-01 5.046874e-01 5.392442e-01 5.729159e-01 6.055178e-01 6.371725e-01 6.683216e-01 6.992747e-01 7.302482e-01 7.610636e-01 7.913644e-01 8.205379e-01 8.479859e-01 8.731503e-01 8.956650e-01 9.153374e-01 9.321503e-01 9.462184e-01 9.577341e-01 9.669397e-01 9.740766e-01 9.793750e-01 9.830224e-01 9.851623e-01 
9.821777e-01 9.813461e-01 9.787824e-01 9.743899e-01 9.679977e-01 9.593824e-01 9.482638e-01 9.343502e-01 9.173409e-01 8.970006e-01 8.731781e-01 8.458939e-01 8.153720e-01 7.820653e-01 7.466326e-01 7.097778e-01 6.721626e-01 6.341433e-01 5.958722e-01 5.570939e-01 5.175749e-01 4.770871e-01 4.360673e-01 3.959547e-01 3.575655e-01 3.207657e-01 2.866351e-01 2.566243e-01 2.302448e-01 2.078722e-01 1.909881e-01 1.805412e-01 1.768052e-01 1.802530e-01 1.903293e-01 2.067143e-01 2.288789e-01 2.558151e-01 2.866559e-01 3.210287e-01 3.571766e-01 3.952142e-01 4.352389e-01 4.761937e-01 5.167300e-01 5.562263e-01 5.949720e-01 6.331781e-01 6.711273e-01 7.086841e-01 7.455181e-01 7.809701e-01 8.143401e-01 8.449559e-01 8.723565e-01 8.963033e-01 9.167675e-01 9.338919e-01 9.479079e-01 9.591140e-01 9.678025e-01 9.742551e-01 9.786980e-01 9.813052e-01 
9.778074e-01 9.768107e-01 9.737370e-01 9.684732e-01 9.608171e-01 9.505055e-01 9.372040e-01 9.205667e-01 9.002313e-01 8.759164e-01 8.474347e-01 8.148087e-01 7.783073e-01 7.384718e-01 6.960744e-01 6.518901e-01 6.066082e-01 5.605552e-01 5.139319e-01 4.665792e-01 4.184577e-01 3.704511e-01 3.241618e-01 2.802310e-01 2.386104e-01 1.998324e-01 1.667187e-01 1.406548e-01 1.202636e-01 1.049532e-01 9.438234e-02 8.824122e-02 8.616544e-02 8.806494e-02 9.396726e-02 1.042771e-01 1.195092e-01 1.402588e-01 1.668030e-01 1.998103e-01 2.377132e-01 2.791891e-01 3.232384e-01 3.694361e-01 4.175106e-01 4.656077e-01 5.129164e-01 5.594701e-01 6.054359e-01 6.506387e-01 6.947826e-01 7.371855e-01 7.770819e-01 8.136845e-01 8.464437e-01 8.750721e-01 8.995359e-01 9.200112e-01 9.367734e-01 9.501820e-01 9.605827e-01 9.683120e-01 9.736362e-01 9.767620e-01 
9.727004e-01 9.715214e-01 9.678865e-01 9.616672e-01 9.526297e-01 9.404731e-01 9.248078e-01 9.052362e-01 8.813304e-01 8.527614e-01 8.192919e-01 7.809419e-01 7.380100e-01 6.911308e-01 6.411604e-01 5.889411e-01 5.351583e-01 4.802421e-01 4.246634e-01 3.686449e-01 3.127224e-01 2.571357e-01 2.039511e-01 1.577036e-01 1.218855e-01 9.565541e-02 7.895935e-02 7.003152e-02 6.615718e-02 6.517002e-02 6.509569e-02 6.533983e-02 6.552678e-02 6.535371e-02 6.505138e-02 6.506670e-02 6.606568e-02 7.006808e-02 7.898381e-02 9.528326e-02 1.210288e-01 1.568405e-01 2.030142e-01 2.560973e-01 3.117908e-01 3.676248e-01 4.235197e-01 4.790098e-01 5.338153e-01 5.874978e-01 6.396610e-01 6.896290e-01 7.365715e-01 7.796170e-01 8.181206e-01 8.517631e-01 8.805088e-01 9.045819e-01 9.243027e-01 9.400957e-01 9.523579e-01 9.614814e-01 9.677710e-01 9.714658e-01 
9.667919e-01 9.654131e-01 9.611640e-01 9.539034e-01 9.433689e-01 9.292268e-01 9.110363e-01 8.883551e-01 8.606890e-01 8.276571e-01 7.889567e-01 7.445833e-01 6.948613e-01 6.404997e-01 5.824559e-01 5.216085e-01 4.586965e-01 3.943061e-01 3.295113e-01 2.645103e-01 1.999509e-01 1.420381e-01 9.933220e-02 7.461593e-02 6.755485e-02 7.212208e-02 8.307892e-02 9.500988e-02 1.056533e-01 1.139862e-01 1.190593e-01 1.218360e-01 1.228418e-01 1.220019e-01 1.193833e-01 1.144454e-01 1.060384e-01 9.523351e-02 8.326149e-02 7.195053e-02 6.733527e-02 7.443777e-02 9.868859e-02 1.411032e-01 1.988308e-01 2.633372e-01 3.281702e-01 3.929002e-01 4.571838e-01 5.199896e-01 5.807732e-01 6.388015e-01 6.932209e-01 7.430589e-01 7.876008e-01 8.264980e-01 8.597353e-01 8.875981e-01 9.104550e-01 9.287956e-01 9.430609e-01 9.536947e-01 9.610353e-01 9.653514e-01 
9.600178e-01 9.584165e-01 9.534903e-01 9.450901e-01 9.329314e-01 9.166593e-01 8.957930e-01 8.698629e-01 8.383145e-01 8.007177e-01 7.566769e-01 7.061438e-01 6.494349e-01 5.873386e-01 5.208781e-01 4.509942e-01 3.783535e-01 3.039046e-01 2.289910e-01 1.567995e-01 9.993403e-02 6.888539e-02 6.639878e-02 8.412544e-02 1.111896e-01 1.384196e-01 1.614387e-01 1.773594e-01 1.870560e-01 1.927738e-01 1.954725e-01 1.966599e-01 1.970945e-01 1.969187e-01 1.960168e-01 1.935066e-01 1.875590e-01 1.772196e-01 1.612231e-01 1.384739e-01 1.117075e-01 8.478958e-02 6.639138e-02 6.854552e-02 9.906781e-02 1.555684e-01 2.272946e-01 3.022172e-01 3.765801e-01 4.491067e-01 5.189449e-01 5.854070e-01 6.475765e-01 7.044177e-01 7.551400e-01 7.994062e-01 8.372391e-01 8.690153e-01 8.951479e-01 9.161865e-01 9.325983e-01 9.448675e-01 9.533548e-01 9.583523e-01 
9.523308e-01 9.504762e-01 9.447938e-01 9.351345e-01 9.212055e-01 9.026492e-01 8.789660e-01 8.496873e-01 8.142122e-01 7.720582e-01 7.226943e-01 6.659674e-01 6.021557e-01 5.320670e-01 4.568507e-01 3.775056e-01 2.946828e-01 2.100050e-01 1.306919e-01 7.688249e-02 6.230764e-02 8.290782e-02 1.222101e-01 1.639086e-01 1.992711e-01 2.264635e-01 2.467890e-01 2.600229e-01 2.676329e-01 2.716058e-01 2.730016e-01 2.732987e-01 2.733981e-01 2.736151e-01 2.736320e-01 2.723593e-01 2.680592e-01 2.597011e-01 2.464109e-01 2.266333e-01 2.001263e-01 1.648485e-01 1.227750e-01 8.354563e-02 6.236411e-02 7.603475e-02 1.290712e-01 2.082388e-01 2.927282e-01 3.754228e-01 4.547444e-01 5.299551e-01 6.001088e-01 6.640467e-01 7.209718e-01 7.705876e-01 8.130118e-01 8.487515e-01 8.782636e-01 9.021457e-01 9.208589e-01 9.349085e-01 9.446598e-01 9.504148e-01 
9.437022e-01 9.415569e-01 9.350142e-01 9.239354e-01 9.080326e-01 8.869775e-01 8.603049e-01 8.276018e-01 7.882493e-01 7.416881e-01 6.871853e-01 6.244046e-01 5.534880e-01 4.752031e-01 3.908340e-01 3.015181e-01 2.088738e-01 1.211261e-01 6.857592e-02 6.738991e-02 1.047153e-01 1.568003e-01 2.072096e-01 2.504053e-01 2.860729e-01 3.133249e-01 3.326789e-01 3.443009e-01 3.499245e-01 3.517373e-01 3.514135e-01 3.505799e-01 3.502730e-01 3.508742e-01 3.519637e-01 3.523273e-01 3.502169e-01 3.440454e-01 3.324435e-01 3.135874e-01 2.868417e-01 2.511780e-01 2.078907e-01 1.577926e-01 1.055846e-01 6.773921e-02 6.801737e-02 1.195735e-01 2.066344e-01 2.991302e-01 3.884930e-01 4.729112e-01 5.512742e-01 6.223217e-01 6.853098e-01 7.400930e-01 7.869590e-01 8.266147e-01 8.595787e-01 8.864669e-01 9.076891e-01 9.237172e-01 9.348882e-01 9.415006e-01 
9.341560e-01 9.316764e-01 9.241513e-01 9.114650e-01 8.933525e-01 8.695519e-01 8.396733e-01 8.034386e-01 7.602827e-01 7.096281e-01 6.503299e-01 5.816892e-01 5.035799e-01 4.164972e-01 3.220956e-01 2.223974e-01 1.269921e-01 6.904468e-02 7.230901e-02 1.194685e-01 1.794166e-01 2.376057e-01 2.910186e-01 3.360386e-01 3.715437e-01 3.975122e-01 4.151839e-01 4.254006e-01 4.299980e-01 4.309462e-01 4.300316e-01 4.288230e-01 4.283777e-01 4.290644e-01 4.304638e-01 4.313788e-01 4.302063e-01 4.252433e-01 4.150544e-01 3.977524e-01 3.721874e-01 3.368222e-01 2.918621e-01 2.387015e-01 1.805173e-01 1.205763e-01 7.293686e-02 6.832763e-02 1.249381e-01 2.200754e-01 3.198617e-01 4.141850e-01 5.012368e-01 5.794231e-01 6.482658e-01 7.078907e-01 7.588990e-01 8.024012e-01 8.389305e-01 8.690469e-01 8.930251e-01 9.112655e-01 9.240408e-01 9.316289e-01 
9.237576e-01 9.208900e-01 9.122335e-01 8.977084e-01 8.770957e-01 8.502421e-01 8.168943e-01 7.769890e-01 7.300688e-01 6.755554e-01 6.119249e-01 5.378076e-01 4.525213e-01 3.563804e-01 2.514711e-01 1.466366e-01 7.597584e-02 7.268807e-02 1.219240e-01 1.881293e-01 2.544568e-01 3.158615e-01 3.698749e-01 4.147946e-01 4.501783e-01 4.759841e-01 4.933517e-01 5.033503e-01 5.078171e-01 5.086330e-01 5.076472e-01 5.063828e-01 5.059045e-01 5.065572e-01 5.079512e-01 5.089293e-01 5.079773e-01 5.033105e-01 4.933624e-01 4.762620e-01 4.507619e-01 4.155565e-01 3.707715e-01 3.170154e-01 2.557167e-01 1.895606e-01 1.232277e-01 7.326737e-02 7.511291e-02 1.445890e-01 2.491761e-01 3.540092e-01 4.500898e-01 5.354251e-01 6.097471e-01 6.737381e-01 7.286452e-01 7.759511e-01 8.161791e-01 8.497804e-01 8.768148e-01 8.975498e-01 9.121528e-01 9.208580e-01 
9.126641e-01 9.093489e-01 8.993956e-01 8.827737e-01 8.593358e-01 8.290888e-01 7.919833e-01 7.482754e-01 6.976516e-01 6.395938e-01 5.719906e-01 4.928797e-01 4.007562e-01 2.950004e-01 1.818055e-01 9.186338e-02 6.987726e-02 1.128204e-01 1.815231e-01 2.536844e-01 3.222982e-01 3.848427e-01 4.394377e-01 4.846995e-01 5.203676e-01 5.466317e-01 5.645843e-01 5.753740e-01 5.807499e-01 5.824374e-01 5.821981e-01 5.814201e-01 5.811014e-01 5.815377e-01 5.824008e-01 5.826370e-01 5.808813e-01 5.754166e-01 5.646944e-01 5.469474e-01 5.209376e-01 4.854863e-01 4.404292e-01 3.861023e-01 3.237399e-01 2.553176e-01 1.831777e-01 1.142942e-01 7.022408e-02 9.037267e-02 1.793346e-01 2.921102e-01 3.977619e-01 4.901037e-01 5.695439e-01 6.376288e-01 6.961674e-01 7.472470e-01 7.913213e-01 8.287005e-01 8.591293e-01 8.826779e-01 8.993593e-01 9.093395e-01 
9.010883e-01 8.972605e-01 8.858281e-01 8.668183e-01 8.401808e-01 8.061275e-01 7.648952e-01 7.171523e-01 6.628079e-01 6.014117e-01 5.301294e-01 4.461819e-01 3.473126e-01 2.320271e-01 1.235973e-01 7.097012e-02 9.570253e-02 1.618963e-01 2.360371e-01 3.099021e-01 3.795527e-01 4.424639e-01 4.972591e-01 5.430882e-01 5.798256e-01 6.076110e-01 6.273302e-01 6.400211e-01 6.472488e-01 6.505733e-01 6.516222e-01 6.516612e-01 6.516137e-01 6.517385e-01 6.517573e-01 6.507172e-01 6.473761e-01 6.401345e-01 6.275274e-01 6.079780e-01 5.804087e-01 5.438904e-01 4.982928e-01 4.437765e-01 3.811078e-01 3.116961e-01 2.379444e-01 1.637403e-01 9.700558e-02 7.077190e-02 1.214489e-01 2.288417e-01 3.441829e-01 4.433574e-01 5.276197e-01 5.994352e-01 6.613722e-01 7.162268e-01 7.643667e-01 8.058759e-01 8.400962e-01 8.668178e-01 8.858561e-01 8.972830e-01 
8.893579e-01 8.849567e-01 8.718747e-01 8.501992e-01 8.199987e-01 7.817274e-01 7.359914e-01 6.839767e-01 6.258915e-01 5.615082e-01 4.869593e-01 3.994168e-01 2.931938e-01 1.735637e-01 8.743447e-02 7.715954e-02 1.321147e-01 2.044782e-01 2.800483e-01 3.540533e-01 4.234940e-01 4.864542e-01 5.418730e-01 5.889939e-01 6.276192e-01 6.577720e-01 6.801040e-01 6.954866e-01 7.052698e-01 7.108292e-01 7.136198e-01 7.147659e-01 7.150926e-01 7.148182e-01 7.137144e-01 7.109428e-01 7.053980e-01 6.956425e-01 6.803512e-01 6.581670e-01 6.282047e-01 5.897918e-01 5.429111e-01 4.877732e-01 4.250883e-01 3.559205e-01 2.820706e-01 2.064744e-01 1.338294e-01 7.788153e-02 8.614492e-02 1.707695e-01 2.900117e-01 3.963864e-01 4.842636e-01 5.594842e-01 6.245461e-01 6.832273e-01 7.356750e-01 7.816781e-01 8.200852e-01 8.503273e-01 8.719871e-01 8.850202e-01 
8.778368e-01 8.728129e-01 8.579365e-01 8.333469e-01 7.992410e-01 7.563255e-01 7.056562e-01 6.490058e-01 5.870454e-01 5.198939e-01 4.427081e-01 3.533947e-01 2.410014e-01 1.283136e-01 7.271276e-02 9.814024e-02 1.639244e-01 2.373449e-01 3.120268e-01 3.851409e-01 4.539793e-01 5.171345e-01 5.735936e-01 6.226021e-01 6.637707e-01 6.969230e-01 7.224569e-01 7.410431e-01 7.538068e-01 7.619376e-01 7.667071e-01 7.691070e-01 7.698593e-01 7.691469e-01 7.667826e-01 7.620401e-01 7.539414e-01 7.412249e-01 7.227274e-01 6.973191e-01 6.643269e-01 6.233424e-01 5.745489e-01 5.183415e-01 4.554531e-01 3.868892e-01 3.139749e-01 2.393651e-01 1.657829e-01 9.955040e-02 7.239541e-02 1.260537e-01 2.373344e-01 3.497793e-01 4.397581e-01 5.179054e-01 5.859490e-01 6.485814e-01 7.056700e-01 7.565590e-01 7.995504e-01 8.336349e-01 8.581509e-01 8.729253e-01 
8.669814e-01 8.613100e-01 8.445626e-01 8.169117e-01 7.786822e-01 7.308049e-01 6.748676e-01 6.131989e-01 5.472953e-01 4.773738e-01 3.988809e-01 3.087489e-01 1.958990e-01 9.849713e-02 7.262673e-02 1.197051e-01 1.863718e-01 2.590044e-01 3.320871e-01 4.039437e-01 4.722545e-01 5.359092e-01 5.938512e-01 6.451603e-01 6.892300e-01 7.256600e-01 7.546157e-01 7.765675e-01 7.924305e-01 8.032170e-01 8.100227e-01 8.137121e-01 8.149042e-01 8.137450e-01 8.100870e-01 8.033107e-01 7.925606e-01 7.767464e-01 7.548695e-01 7.260110e-01 6.897028e-01 6.457745e-01 5.946361e-01 5.368999e-01 4.734882e-01 4.054569e-01 3.338896e-01 2.610309e-01 1.884888e-01 1.215891e-01 7.308223e-02 9.704420e-02 1.925596e-01 3.052097e-01 3.964384e-01 4.760045e-01 5.468862e-01 6.133808e-01 6.753820e-01 7.314180e-01 7.792682e-01 8.173892e-01 8.448945e-01 8.614774e-01 
8.572350e-01 8.509266e-01 8.323294e-01 8.016221e-01 7.592305e-01 7.062508e-01 6.448147e-01 5.777521e-01 5.077077e-01 4.347790e-01 3.562476e-01 2.659794e-01 1.596649e-01 8.093062e-02 8.016548e-02 1.360826e-01 2.016472e-01 2.717871e-01 3.428624e-01 4.132180e-01 4.811655e-01 5.454868e-01 6.050832e-01 6.587813e-01 7.057679e-01 7.454110e-01 7.776735e-01 8.028397e-01 8.216424e-01 8.349353e-01 8.436569e-01 8.485591e-01 8.501660e-01 8.485883e-01 8.437143e-01 8.350207e-01 8.217609e-01 8.029980e-01 7.778850e-01 7.456847e-01 7.061160e-01 6.592115e-01 6.056138e-01 5.461383e-01 4.819715e-01 4.142042e-01 3.440624e-01 2.731450e-01 2.031185e-01 1.372867e-01 8.056668e-02 7.943209e-02 1.568093e-01 2.633293e-01 3.550364e-01 4.345249e-01 5.082496e-01 5.786599e-01 6.458652e-01 7.072472e-01 7.600862e-01 8.022826e-01 8.327746e-01 8.511474e-01 
8.490657e-01 8.421769e-01 8.218830e-01 7.883423e-01 7.420419e-01 6.841712e-01 6.173284e-01 5.448290e-01 4.705193e-01 3.947067e-01 3.167091e-01 2.281574e-01 1.309314e-01 7.036162e-02 8.887951e-02 1.465316e-01 2.107952e-01 2.781112e-01 3.471814e-01 4.160903e-01 4.837894e-01 5.487969e-01 6.099732e-01 6.658563e-01 7.154627e-01 7.579460e-01 7.931073e-01 8.210700e-01 8.424190e-01 8.578745e-01 8.682468e-01 8.741930e-01 8.761577e-01 8.742185e-01 8.682960e-01 8.579463e-01 8.425144e-01 8.211891e-01 7.932522e-01 7.581134e-01 7.156513e-01 6.660599e-01 6.101942e-01 5.490365e-01 4.840591e-01 4.163869e-01 3.475039e-01 2.783971e-01 2.110501e-01 1.467334e-01 8.934455e-02 6.969654e-02 1.293376e-01 2.271824e-01 3.169108e-01 3.956203e-01 4.719166e-01 5.463665e-01 6.188284e-01 6.854971e-01 7.431346e-01 7.891691e-01 8.224326e-01 8.424469e-01 
8.428753e-01 8.355182e-01 8.138472e-01 7.779852e-01 7.284307e-01 6.664085e-01 5.947992e-01 5.174151e-01 4.389887e-01 3.609219e-01 2.833618e-01 1.992553e-01 1.110986e-01 6.532315e-02 9.513191e-02 1.518841e-01 2.146773e-01 2.799022e-01 3.474890e-01 4.153909e-01 4.830269e-01 5.486687e-01 6.111655e-01 6.688070e-01 7.204919e-01 7.651994e-01 8.026153e-01 8.327391e-01 8.560488e-01 8.731648e-01 8.848029e-01 8.915494e-01 8.937888e-01 8.915719e-01 8.848451e-01 8.732237e-01 8.561216e-01 8.328198e-01 8.026978e-01 7.652707e-01 7.205405e-01 6.688164e-01 6.111288e-01 5.485802e-01 4.828973e-01 4.152310e-01 3.473252e-01 2.797589e-01 2.146171e-01 1.520418e-01 9.567037e-02 6.533866e-02 1.102829e-01 1.990132e-01 2.839976e-01 3.622001e-01 4.406126e-01 5.191543e-01 5.964698e-01 6.678944e-01 7.296582e-01 7.789186e-01 8.144686e-01 8.358240e-01 
8.390048e-01 8.313384e-01 8.087506e-01 7.713291e-01 7.195545e-01 6.546372e-01 5.795608e-01 4.984983e-01 4.166569e-01 3.368986e-01 2.592281e-01 1.796261e-01 9.883329e-02 6.331448e-02 9.857490e-02 1.548230e-01 2.164401e-01 2.802434e-01 3.467605e-01 4.139674e-01 4.815344e-01 5.475687e-01 6.109059e-01 6.696677e-01 7.226781e-01 7.688012e-01 8.076504e-01 8.391450e-01 8.636966e-01 8.818622e-01 8.942996e-01 9.015510e-01 9.039638e-01 9.015707e-01 8.943353e-01 8.819092e-01 8.637489e-01 8.391921e-01 8.076797e-01 7.687925e-01 7.226117e-01 6.695189e-01 6.106603e-01 5.472159e-01 4.810853e-01 4.134467e-01 3.462198e-01 2.797671e-01 2.161283e-01 1.548458e-01 9.892502e-02 6.322592e-02 9.793625e-02 1.792935e-01 2.597296e-01 3.380702e-01 4.181861e-01 5.002257e-01 5.812682e-01 6.561969e-01 7.208609e-01 7.723326e-01 8.094213e-01 8.316686e-01 
8.376838e-01 8.299109e-01 8.070081e-01 7.690477e-01 7.164964e-01 6.505476e-01 5.741847e-01 4.916906e-01 4.083786e-01 3.278326e-01 2.499040e-01 1.722244e-01 9.467787e-02 6.281906e-02 9.949254e-02 1.554561e-01 2.166206e-01 2.799466e-01 3.461296e-01 4.131409e-01 4.807302e-01 5.469388e-01 6.106007e-01 6.697750e-01 7.232630e-01 7.698870e-01 8.092381e-01 8.412078e-01 8.661875e-01 8.847130e-01 8.974239e-01 9.048477e-01 9.073199e-01 9.048668e-01 8.974580e-01 8.847568e-01 8.662343e-01 8.412458e-01 8.092531e-01 7.698571e-01 7.231668e-01 6.695862e-01 6.103040e-01 5.465240e-01 4.802094e-01 4.125438e-01 3.455105e-01 2.793978e-01 2.162297e-01 1.553791e-01 9.970095e-02 6.263681e-02 9.380414e-02 1.719314e-01 2.503811e-01 3.289532e-01 4.098484e-01 4.933894e-01 5.758821e-01 6.521150e-01 7.178164e-01 7.700662e-01 8.076905e-01 8.302476e-01 
8.390048e-01 8.313384e-01 8.087506e-01 7.713291e-01 7.195545e-01 6.546372e-01 5.795608e-01 4.984983e-01 4.166569e-01 3.368986e-01 2.592281e-01 1.796261e-01 9.883329e-02 6.331448e-02 9.857490e-02 1.548230e-01 2.164401e-01 2.802434e-01 3.467605e-01 4.139674e-01 4.815344e-01 5.475687e-01 6.109059e-01 6.696677e-01 7.226781e-01 7.688012e-01 8.076504e-01 8.391450e-01 8.636966e-01 8.818622e-01 8.942996e-01 9.015510e-01 9.039638e-01 9.015707e-01 8.943353e-01 8.819092e-01 8.637489e-01 8.391921e-01 8.076797e-01 7.687925e-01 7.226117e-01 6.695189e-01 6.106603e-01 5.472159e-01 4.810853e-01 4.134467e-01 3.462198e-01 2.797671e-01 2.161283e-01 1.548458e-01 9.892502e-02 6.322592e-02 9.793625e-02 1.792935e-01 2.597296e-01 3.380702e-01 4.181861e-01 5.002257e-01 5.812682e-01 6.561969e-01 7.208609e-01 7.723326e-01 8.094213e-01 8.316686e-01 
8.428753e-01 8.355182e-01 8.138472e-01 7.779852e-01 7.284307e-01 6.664085e-01 5.947992e-01 5.174151e-01 4.389887e-01 3.609219e-01 2.833618e-01 1.992553e-01 1.110986e-01 6.532315e-02 9.513191e-02 1.518841e-01 2.146773e-01 2.799022e-01 3.474890e-01 4.153909e-01 4.830269e-01 5.486687e-01 6.111655e-01 6.688070e-01 7.204919e-01 7.651994e-01 8.026153e-01 8.327391e-01 8.560488e-01 8.731648e-01 8.848029e-01 8.915494e-01 8.937888e-01 8.915719e-01 8.848451e-01 8.732237e-01 8.561216e-01 8.328198e-01 8.026978e-01 7.652707e-01 7.205405e-01 6.688164e-01 6.111288e-01 5.485802e-01 4.828973e-01 4.152310e-01 3.473252e-01 2.797589e-01 2.146171e-01 1.520418e-01 9.567037e-02 6.533866e-02 1.102829e-01 1.990132e-01 2.839976e-01 3.622001e-01 4.406126e-01 5.191543e-01 5.964698e-01 6.678944e-01 7.296582e-01 7.789186e-01 8.144686e-01 8.358240e-01 