# vtk DataFile Version 2.0
Comment goes here
ASCII

DATASET STRUCTURED_POINTS
FIELD FieldData 1
TIME 1 1 double
0.65000000
DIMENSIONS    64   64   1

ORIGIN    0.000   0.000   0.000
SPACING   0.015625 0.015625   1.000

POINT_DATA   4096
SCALARS Concentration double
LOOKUP_TABLE default

9.985054e-01 9.984469e-01 9.982673e-01 9.979625e-01 9.975251e-01 9.969446e-01 9.962081e-01 9.953003e-01 9.942035e-01 9.928970e-01 9.913566e-01 9.895525e-01 9.874480e-01 9.849954e-01 9.821351e-01 9.787909e-01 9.748719e-01 9.702712e-01 9.648806e-01 9.585920e-01 9.513228e-01 9.430250e-01 9.337242e-01 9.235229e-01 9.126375e-01 9.013773e-01 8.901581e-01 8.794523e-01 8.697714e-01 8.616103e-01 8.554125e-01 8.515317e-01 8.501998e-01 8.515083e-01 8.553682e-01 8.615471e-01 8.696967e-01 8.793687e-01 8.900724e-01 9.012914e-01 9.125547e-01 9.234438e-01 9.336485e-01 9.429523e-01 9.512513e-01 9.585217e-01 9.648103e-01 9.702017e-01 9.748029e-01 9.787236e-01 9.820701e-01 9.849336e-01 9.873901e-01 9.894993e-01 9.913083e-01 9.928541e-01 9.941661e-01 9.952684e-01 9.961815e-01 9.969231e-01 9.975083e-01 9.979503e-01 9.982593e-01 9.984430e-01 
9.984035e-01 9.983416e-01 9.981512e-01 9.978284e-01 9.973654e-01 9.967515e-01 9.959737e-01 9.950163e-01 9.938617e-01 9.924891e-01 9.908747e-01 9.889885e-01 9.867940e-01 9.842430e-01 9.812752e-01 9.778122e-01 9.737595e-01 9.690032e-01 9.634311e-01 9.569290e-01 9.494071e-01 9.408095e-01 9.311553e-01 9.205414e-01 9.091839e-01 8.973966e-01 8.856089e-01 8.743162e-01 8.640627e-01 8.553855e-01 8.487725e-01 8.446206e-01 8.431912e-01 8.445885e-01 8.487123e-01 8.553009e-01 8.639639e-01 8.742077e-01 8.854997e-01 8.972894e-01 9.090829e-01 9.204471e-01 9.310670e-01 9.407262e-01 9.493265e-01 9.568506e-01 9.633536e-01 9.689270e-01 9.736843e-01 9.777391e-01 9.812046e-01 9.841760e-01 9.867311e-01 9.889308e-01 9.908224e-01 9.924427e-01 9.938212e-01 9.949818e-01 9.959449e-01 9.967282e-01 9.973472e-01 9.978152e-01 9.981426e-01 9.983373e-01 
9.980939e-01 9.980214e-01 9.977987e-01 9.974213e-01 9.968808e-01 9.961660e-01 9.952630e-01 9.941556e-01 9.928258e-01 9.912531e-01 9.894136e-01 9.872780e-01 9.848096e-01 9.819593e-01 9.786641e-01 9.748396e-01 9.703817e-01 9.651592e-01 9.590468e-01 9.519116e-01 9.436439e-01 9.341643e-01 9.234721e-01 9.116481e-01 8.989039e-01 8.855647e-01 8.720941e-01 8.590533e-01 8.470800e-01 8.368414e-01 8.289625e-01 8.239793e-01 8.222490e-01 8.239198e-01 8.288519e-01 8.366890e-01 8.469060e-01 8.588673e-01 8.719128e-01 8.853929e-01 8.987487e-01 9.115086e-01 9.233467e-01 9.340499e-01 9.435365e-01 9.518095e-01 9.589475e-01 9.650629e-01 9.702875e-01 9.747485e-01 9.785764e-01 9.818763e-01 9.847319e-01 9.872067e-01 9.893491e-01 9.911958e-01 9.927759e-01 9.941130e-01 9.952275e-01 9.961374e-01 9.968586e-01 9.974050e-01 9.977881e-01 9.980162e-01 
9.975595e-01 9.974690e-01 9.971910e-01 9.967202e-01 9.960475e-01 9.951601e-01 9.940431e-01 9.926791e-01 9.910498e-01 9.891345e-01 9.869100e-01 9.843474e-01 9.814101e-01 9.780473e-01 9.741918e-01 9.697501e-01 9.646032e-01 9.585936e-01 9.515736e-01 9.433812e-01 9.338753e-01 9.229403e-01 9.105451e-01 8.967428e-01 8.817385e-01 8.658702e-01 8.496539e-01 8.337517e-01 8.189505e-01 8.061315e-01 7.961495e-01 7.897796e-01 7.875457e-01 7.896720e-01 7.959505e-01 8.058608e-01 8.186453e-01 8.334308e-01 8.493479e-01 8.655872e-01 8.814909e-01 8.965273e-01 9.103574e-01 9.227736e-01 9.337225e-01 9.432385e-01 9.514369e-01 9.584623e-01 9.644759e-01 9.696276e-01 9.740743e-01 9.779365e-01 9.813066e-01 9.842524e-01 9.868242e-01 9.890584e-01 9.909836e-01 9.926227e-01 9.939961e-01 9.951222e-01 9.960180e-01 9.966987e-01 9.971770e-01 9.974622e-01 
9.967715e-01 9.966549e-01 9.962964e-01 9.956901e-01 9.948253e-01 9.936873e-01 9.922592e-01 9.905224e-01 9.884577e-01 9.860443e-01 9.832600e-01 9.800763e-01 9.764574e-01 9.723499e-01 9.676814e-01 9.623466e-01 9.562081e-01 9.490760e-01 9.407715e-01 9.310966e-01 9.198732e-01 9.069409e-01 8.922322e-01 8.757641e-01 8.577285e-01 8.384717e-01 8.185629e-01 7.987840e-01 7.801068e-01 7.637089e-01 7.507750e-01 7.424383e-01 7.394839e-01 7.422584e-01 7.504435e-01 7.632619e-01 7.796073e-01 7.982643e-01 8.180753e-01 8.380294e-01 8.573512e-01 8.754438e-01 8.919594e-01 9.067026e-01 9.196571e-01 9.308963e-01 9.405807e-01 9.488936e-01 9.560319e-01 9.621776e-01 9.675199e-01 9.721977e-01 9.763154e-01 9.799462e-01 9.831424e-01 9.859401e-01 9.883670e-01 9.904452e-01 9.921949e-01 9.936354e-01 9.947850e-01 9.956608e-01 9.962773e-01 9.966456e-01 
9.956910e-01 9.955394e-01 9.950729e-01 9.942844e-01 9.931612e-01 9.916860e-01 9.898395e-01 9.876008e-01 9.849498e-01 9.818653e-01 9.783263e-01 9.743053e-01 9.697668e-01 9.646549e-01 9.588914e-01 9.523574e-01 9.448955e-01 9.362822e-01 9.262989e-01 9.147110e-01 9.013048e-01 8.858745e-01 8.683186e-01 8.486122e-01 8.269334e-01 8.036229e-01 7.792985e-01 7.548616e-01 7.314831e-01 7.106941e-01 6.940875e-01 6.832713e-01 6.793985e-01 6.829952e-01 6.935797e-01 7.100137e-01 7.307279e-01 7.540798e-01 7.785744e-01 8.029765e-01 8.263954e-01 8.481648e-01 8.679429e-01 8.855479e-01 9.010077e-01 9.144348e-01 9.260350e-01 9.360298e-01 9.446516e-01 9.521239e-01 9.586685e-01 9.644452e-01 9.695713e-01 9.741263e-01 9.781646e-01 9.817221e-01 9.848251e-01 9.874947e-01 9.897513e-01 9.916148e-01 9.931060e-01 9.942442e-01 9.950467e-01 9.955266e-01 
9.942711e-01 9.940747e-01 9.934697e-01 9.924474e-01 9.909927e-01 9.890846e-01 9.867006e-01 9.838168e-01 9.804114e-01 9.764630e-01 9.719513e-01 9.668500e-01 9.611241e-01 9.547153e-01 9.475393e-01 9.394642e-01 9.303150e-01 9.198385e-01 9.077741e-01 8.938580e-01 8.778549e-01 8.595244e-01 8.387456e-01 8.154550e-01 7.898146e-01 7.621364e-01 7.330485e-01 7.035255e-01 6.748925e-01 6.490706e-01 6.281446e-01 6.143384e-01 6.093356e-01 6.139403e-01 6.274142e-01 6.480997e-01 6.738214e-01 7.024234e-01 7.320426e-01 7.612563e-01 7.891024e-01 8.148763e-01 8.382623e-01 8.591016e-01 8.774633e-01 8.934886e-01 9.074170e-01 9.194949e-01 9.299821e-01 9.391455e-01 9.472351e-01 9.544293e-01 9.608578e-01 9.666062e-01 9.717312e-01 9.762680e-01 9.802417e-01 9.836723e-01 9.865805e-01 9.889878e-01 9.909176e-01 9.923928e-01 9.934341e-01 9.940573e-01 
9.924587e-01 9.922069e-01 9.914301e-01 9.901180e-01 9.882518e-01 9.858062e-01 9.827541e-01 9.790676e-01 9.747226e-01 9.696960e-01 9.639684e-01 9.575139e-01 9.502977e-01 9.422590e-01 9.333079e-01 9.233020e-01 9.120551e-01 8.992999e-01 8.847360e-01 8.680864e-01 8.491177e-01 8.275788e-01 8.033566e-01 7.763576e-01 7.467438e-01 7.147643e-01 6.810377e-01 6.465661e-01 6.127640e-01 5.819011e-01 5.565164e-01 5.395170e-01 5.332679e-01 5.389819e-01 5.555374e-01 5.806112e-01 6.113505e-01 6.451153e-01 6.797355e-01 7.136521e-01 7.458768e-01 7.756701e-01 8.027782e-01 8.270598e-01 8.486185e-01 8.676033e-01 8.842602e-01 8.988383e-01 9.116061e-01 9.228721e-01 9.328980e-01 9.418742e-01 9.499398e-01 9.571864e-01 9.636728e-01 9.694343e-01 9.744948e-01 9.788738e-01 9.825930e-01 9.856763e-01 9.881511e-01 9.900448e-01 9.913825e-01 9.921835e-01 
9.901967e-01 9.898781e-01 9.888943e-01 9.872324e-01 9.848694e-01 9.817742e-01 9.779139e-01 9.732549e-01 9.677690e-01 9.614307e-01 9.542194e-01 9.461087e-01 9.370632e-01 9.270187e-01 9.158811e-01 9.035027e-01 8.896970e-01 8.742035e-01 8.567201e-01 8.369612e-01 8.147347e-01 7.898120e-01 7.621305e-01 7.315927e-01 6.983824e-01 6.626717e-01 6.250140e-01 5.863111e-01 5.478847e-01 5.123189e-01 4.826096e-01 4.623713e-01 4.548036e-01 4.616908e-01 4.813671e-01 5.107024e-01 5.461262e-01 5.845177e-01 6.234473e-01 6.613811e-01 6.974266e-01 7.308559e-01 7.614888e-01 7.892046e-01 8.141150e-01 8.363405e-01 8.560961e-01 8.735930e-01 8.891013e-01 9.029324e-01 9.153382e-01 9.265096e-01 9.365902e-01 9.456762e-01 9.538292e-01 9.610851e-01 9.674683e-01 9.729991e-01 9.777014e-01 9.816030e-01 9.847368e-01 9.871360e-01 9.888316e-01 9.898474e-01 
9.874258e-01 9.870288e-01 9.858014e-01 9.837278e-01 9.807795e-01 9.769182e-01 9.721032e-01 9.662933e-01 9.594539e-01 9.515544e-01 9.425707e-01 9.324731e-01 9.212223e-01 9.087503e-01 8.949588e-01 8.797017e-01 8.628049e-01 8.440415e-01 8.231733e-01 7.999095e-01 7.741262e-01 7.456534e-01 7.145121e-01 6.806206e-01 6.442521e-01 6.054506e-01 5.647553e-01 5.230228e-01 4.814326e-01 4.427094e-01 4.099416e-01 3.872118e-01 3.785367e-01 3.864069e-01 4.084772e-01 4.408352e-01 4.794141e-01 5.209643e-01 5.630137e-01 6.040816e-01 6.433165e-01 6.799156e-01 7.138351e-01 7.449500e-01 7.733513e-01 7.991078e-01 8.223545e-01 8.432374e-01 8.620214e-01 8.789539e-01 8.942494e-01 9.080867e-01 9.206071e-01 9.319110e-01 9.420641e-01 9.511060e-01 9.590641e-01 9.659618e-01 9.718280e-01 9.766966e-01 9.806080e-01 9.836032e-01 9.857206e-01 9.869892e-01 
9.840861e-01 9.835991e-01 9.820917e-01 9.795443e-01 9.759222e-01 9.711778e-01 9.652607e-01 9.581188e-01 9.497081e-01 9.399888e-01 9.289288e-01 9.164907e-01 9.026266e-01 8.872613e-01 8.702921e-01 8.515827e-01 8.309866e-01 8.083388e-01 7.835060e-01 7.562889e-01 7.266059e-01 6.943504e-01 6.596695e-01 6.225374e-01 5.834123e-01 5.423276e-01 4.998699e-01 4.566521e-01 4.133227e-01 3.728378e-01 3.384631e-01 3.143934e-01 3.050703e-01 3.135055e-01 3.368425e-01 3.708037e-01 4.111397e-01 4.544278e-01 4.980904e-01 5.410130e-01 5.826057e-01 6.219282e-01 6.589469e-01 6.935031e-01 7.256116e-01 7.552423e-01 7.824351e-01 8.072918e-01 8.299724e-01 8.506184e-01 8.693810e-01 8.864108e-01 9.018398e-01 9.157728e-01 9.282825e-01 9.394171e-01 9.492115e-01 9.576968e-01 9.649106e-01 9.708963e-01 9.757046e-01 9.793865e-01 9.819893e-01 9.835491e-01 
9.801178e-01 9.795296e-01 9.777072e-01 9.746269e-01 9.702461e-01 9.645065e-01 9.573450e-01 9.486953e-01 9.384993e-01 9.267023e-01 9.132577e-01 8.981129e-01 8.812036e-01 8.624427e-01 8.417203e-01 8.189182e-01 7.939308e-01 7.666825e-01 7.371545e-01 7.053176e-01 6.711794e-01 6.346297e-01 5.958989e-01 5.550546e-01 5.129291e-01 4.693402e-01 4.251728e-01 3.815863e-01 3.390328e-01 3.002529e-01 2.674861e-01 2.441837e-01 2.349562e-01 2.432830e-01 2.658503e-01 2.982720e-01 3.368935e-01 3.793184e-01 4.234358e-01 4.681216e-01 5.123064e-01 5.545334e-01 5.950216e-01 6.335158e-01 6.698450e-01 7.039290e-01 7.357544e-01 7.653296e-01 7.926331e-01 8.176906e-01 8.405661e-01 8.613682e-01 8.802126e-01 8.972103e-01 9.124467e-01 9.259858e-01 9.378778e-01 9.481679e-01 9.569082e-01 9.641556e-01 9.699754e-01 9.744308e-01 9.775803e-01 9.794676e-01 
9.754608e-01 9.747613e-01 9.725922e-01 9.689247e-01 9.637081e-01 9.568710e-01 9.483353e-01 9.380154e-01 9.258334e-01 9.117118e-01 8.955801e-01 8.773597e-01 8.569589e-01 8.342714e-01 8.091760e-01 7.815833e-01 7.514409e-01 7.187899e-01 6.837305e-01 6.463788e-01 6.068802e-01 5.651404e-01 5.213828e-01 4.757781e-01 4.297482e-01 3.837049e-01 3.391958e-01 2.969726e-01 2.558699e-01 2.195840e-01 1.909320e-01 1.714477e-01 1.638531e-01 1.706513e-01 1.894741e-01 2.178641e-01 2.538047e-01 2.946654e-01 3.376128e-01 3.825854e-01 4.292064e-01 4.752024e-01 5.201459e-01 5.635876e-01 6.050902e-01 6.445703e-01 6.819527e-01 7.170894e-01 7.498207e-01 7.800523e-01 8.077397e-01 8.329359e-01 8.557299e-01 8.762422e-01 8.945781e-01 9.108283e-01 9.250687e-01 9.373678e-01 9.477999e-01 9.564420e-01 9.633778e-01 9.686860e-01 9.724379e-01 9.746861e-01 
9.700550e-01 9.692353e-01 9.666915e-01 9.623901e-01 9.562714e-01 9.482498e-01 9.382289e-01 9.260992e-01 9.117553e-01 8.950865e-01 8.759865e-01 8.543367e-01 8.300048e-01 8.028558e-01 7.727568e-01 7.396593e-01 7.035843e-01 6.647078e-01 6.232341e-01 5.794042e-01 5.333426e-01 4.851369e-01 4.348447e-01 3.831683e-01 3.324523e-01 2.818257e-01 2.328843e-01 1.913000e-01 1.562853e-01 1.283885e-01 1.081748e-01 9.536156e-02 9.063922e-02 9.476732e-02 1.071789e-01 1.272790e-01 1.545480e-01 1.890818e-01 2.313447e-01 2.804799e-01 3.318443e-01 3.823355e-01 4.329606e-01 4.829887e-01 5.310185e-01 5.771248e-01 6.210456e-01 6.626200e-01 7.016001e-01 7.377789e-01 7.709943e-01 8.012178e-01 8.285015e-01 8.529730e-01 8.747677e-01 8.940148e-01 9.108303e-01 9.253181e-01 9.375852e-01 9.477355e-01 9.558766e-01 9.621054e-01 9.665080e-01 9.691460e-01 
9.638390e-01 9.628914e-01 9.599497e-01 9.549758e-01 9.479018e-01 9.386269e-01 9.270342e-01 9.129839e-01 8.963348e-01 8.769296e-01 8.546109e-01 8.292015e-01 8.005133e-01 7.683738e-01 7.326404e-01 6.933326e-01 6.505589e-01 6.046569e-01 5.558717e-01 5.045245e-01 4.506505e-01 3.943189e-01 3.358509e-01 2.758060e-01 2.171626e-01 1.648438e-01 1.226034e-01 9.387968e-02 7.502482e-02 6.299769e-02 5.611896e-02 5.261102e-02 5.138944e-02 5.235004e-02 5.582988e-02 6.282415e-02 7.422730e-02 9.244001e-02 1.216507e-01 1.632391e-01 2.157762e-01 2.739887e-01 3.331457e-01 3.915145e-01 4.478831e-01 5.018334e-01 5.533051e-01 6.021829e-01 6.481901e-01 6.910670e-01 7.305087e-01 7.663899e-01 7.986957e-01 8.275575e-01 8.531470e-01 8.756476e-01 8.952329e-01 9.120572e-01 9.262737e-01 9.380217e-01 9.474390e-01 9.546433e-01 9.597361e-01 9.627877e-01 
9.567507e-01 9.556684e-01 9.523092e-01 9.466318e-01 9.385619e-01 9.279841e-01 9.147592e-01 8.987112e-01 8.796531e-01 8.573650e-01 8.316201e-01 8.021611e-01 7.687289e-01 7.311084e-01 6.891666e-01 6.430261e-01 5.929293e-01 5.393320e-01 4.824752e-01 4.225955e-01 3.596280e-01 2.939991e-01 2.257020e-01 1.607867e-01 1.104164e-01 7.913505e-02 6.403105e-02 6.127195e-02 6.474021e-02 7.014406e-02 7.502127e-02 7.789745e-02 7.885899e-02 7.797274e-02 7.536898e-02 7.076899e-02 6.510337e-02 6.128206e-02 6.415890e-02 7.832067e-02 1.088255e-01 1.582474e-01 2.222046e-01 2.905352e-01 3.565390e-01 4.194936e-01 4.795098e-01 5.364321e-01 5.901337e-01 6.403260e-01 6.866152e-01 7.287305e-01 7.665553e-01 8.002029e-01 8.298853e-01 8.558539e-01 8.783616e-01 8.976311e-01 9.138775e-01 9.272862e-01 9.380308e-01 9.462519e-01 9.520661e-01 9.555508e-01 
9.487295e-01 9.475060e-01 9.437116e-01 9.373043e-01 9.282076e-01 9.162936e-01 9.014007e-01 8.833105e-01 8.617790e-01 8.365036e-01 8.071674e-01 7.734050e-01 7.348738e-01 6.913145e-01 6.426400e-01 5.891449e-01 5.312209e-01 4.694333e-01 4.037473e-01 3.344643e-01 2.615447e-01 1.870254e-01 1.203703e-01 7.739741e-02 6.278234e-02 6.815984e-02 8.421866e-02 1.011295e-01 1.136142e-01 1.214134e-01 1.262194e-01 1.287082e-01 1.296152e-01 1.289325e-01 1.267605e-01 1.221880e-01 1.142385e-01 1.022120e-01 8.543711e-02 6.877302e-02 6.260831e-02 7.625037e-02 1.173668e-01 1.835451e-01 2.583208e-01 3.310287e-01 4.003598e-01 4.660932e-01 5.279693e-01 5.859678e-01 6.396116e-01 6.884836e-01 7.322902e-01 7.710895e-01 8.051297e-01 8.347423e-01 8.602850e-01 8.820706e-01 9.003960e-01 9.155040e-01 9.276107e-01 9.368799e-01 9.434413e-01 9.473758e-01 
9.397208e-01 9.383483e-01 9.340988e-01 9.269342e-01 9.167820e-01 9.035073e-01 8.869277e-01 8.667767e-01 8.427414e-01 8.144138e-01 7.813615e-01 7.430829e-01 6.991406e-01 6.492486e-01 5.934278e-01 5.322462e-01 4.663066e-01 3.960983e-01 3.213645e-01 2.420773e-01 1.614266e-01 9.423143e-02 6.272938e-02 6.585296e-02 9.065281e-02 1.200781e-01 1.435692e-01 1.601152e-01 1.720219e-01 1.792560e-01 1.832575e-01 1.851536e-01 1.858376e-01 1.854249e-01 1.838070e-01 1.799970e-01 1.727183e-01 1.613563e-01 1.445086e-01 1.207969e-01 9.167613e-02 6.652756e-02 6.198493e-02 9.193914e-02 1.580273e-01 2.381161e-01 3.174338e-01 3.922883e-01 4.625827e-01 5.285651e-01 5.898759e-01 6.459108e-01 6.960963e-01 7.403700e-01 7.789934e-01 8.123864e-01 8.410385e-01 8.653774e-01 8.858045e-01 9.026327e-01 9.161265e-01 9.264717e-01 9.338059e-01 9.382078e-01 
9.296847e-01 9.281526e-01 9.234209e-01 9.154626e-01 9.042188e-01 8.895562e-01 8.712766e-01 8.490613e-01 8.225152e-01 7.910989e-01 7.542394e-01 7.112632e-01 6.616469e-01 6.050913e-01 5.418427e-01 4.728355e-01 3.988720e-01 3.202227e-01 2.359678e-01 1.493695e-01 8.158850e-02 5.786210e-02 7.628036e-02 1.145164e-01 1.528459e-01 1.849563e-01 2.091726e-01 2.252100e-01 2.354430e-01 2.409215e-01 2.434642e-01 2.443923e-01 2.447278e-01 2.446363e-01 2.439158e-01 2.415435e-01 2.360504e-01 2.261387e-01 2.098224e-01 1.855072e-01 1.538171e-01 1.159444e-01 7.765303e-02 5.788805e-02 7.944229e-02 1.453060e-01 2.315814e-01 3.160083e-01 3.947081e-01 4.686345e-01 5.377080e-01 6.011683e-01 6.580655e-01 7.080928e-01 7.515010e-01 7.887844e-01 8.205966e-01 8.475058e-01 8.700440e-01 8.886081e-01 9.035160e-01 9.149716e-01 9.231124e-01 9.280055e-01 
9.186058e-01 9.168977e-01 9.116420e-01 9.028329e-01 8.904389e-01 8.743417e-01 8.543359e-01 8.300482e-01 8.009900e-01 7.664629e-01 7.257298e-01 6.779187e-01 6.224395e-01 5.590416e-01 4.882860e-01 4.116491e-01 3.298546e-01 2.429600e-01 1.519708e-01 7.860198e-02 5.596949e-02 8.350310e-02 1.310408e-01 1.788509e-01 2.199770e-01 2.527449e-01 2.762849e-01 2.915040e-01 3.006753e-01 3.052052e-01 3.069723e-01 3.073747e-01 3.074864e-01 3.075618e-01 3.073025e-01 3.056728e-01 3.011396e-01 2.921512e-01 2.767576e-01 2.532011e-01 2.209053e-01 1.803441e-01 1.330802e-01 8.537504e-02 5.637726e-02 7.617721e-02 1.477768e-01 2.385052e-01 3.253163e-01 4.069662e-01 4.835591e-01 5.544884e-01 6.182647e-01 6.742437e-01 7.225916e-01 7.638505e-01 7.988594e-01 8.283499e-01 8.530121e-01 8.733396e-01 8.897067e-01 9.023276e-01 9.113276e-01 9.167486e-01 
9.065093e-01 9.046003e-01 8.987560e-01 8.890062e-01 8.753659e-01 8.577511e-01 8.359615e-01 8.095725e-01 7.779917e-01 7.403406e-01 6.957046e-01 6.429965e-01 5.816387e-01 5.114545e-01 4.335753e-01 3.498544e-01 2.608202e-01 1.669902e-01 8.547035e-02 5.403283e-02 8.335726e-02 1.376955e-01 1.934963e-01 2.438474e-01 2.861945e-01 3.192592e-01 3.428758e-01 3.579144e-01 3.665273e-01 3.704625e-01 3.717314e-01 3.717891e-01 3.717548e-01 3.719108e-01 3.719378e-01 3.707664e-01 3.668355e-01 3.583419e-01 3.432765e-01 3.197863e-01 2.871605e-01 2.453622e-01 1.956052e-01 1.401158e-01 8.558417e-02 5.425460e-02 8.259738e-02 1.624119e-01 2.558858e-01 3.446972e-01 4.282140e-01 5.061955e-01 5.767892e-01 6.387525e-01 6.921296e-01 7.374200e-01 7.756585e-01 8.077531e-01 8.345734e-01 8.567224e-01 8.746285e-01 8.885055e-01 8.984476e-01 9.044546e-01 
8.934717e-01 8.913237e-01 8.847931e-01 8.739668e-01 8.589297e-01 8.396574e-01 8.159727e-01 7.874087e-01 7.532658e-01 7.124741e-01 6.639532e-01 6.064065e-01 5.393928e-01 4.628884e-01 3.787792e-01 2.892977e-01 1.933378e-01 1.026760e-01 5.451193e-02 7.580879e-02 1.336071e-01 1.954290e-01 2.539962e-01 3.057287e-01 3.489835e-01 3.824808e-01 4.064210e-01 4.219077e-01 4.309005e-01 4.352190e-01 4.367864e-01 4.370436e-01 4.370515e-01 4.371187e-01 4.369125e-01 4.354197e-01 4.311277e-01 4.222527e-01 4.068513e-01 3.831343e-01 3.500774e-01 3.073717e-01 2.561772e-01 1.980156e-01 1.363418e-01 7.799334e-02 5.399936e-02 9.896233e-02 1.883114e-01 2.838626e-01 3.729325e-01 4.569807e-01 5.338786e-01 6.015901e-01 6.599436e-01 7.092656e-01 7.507627e-01 7.855093e-01 8.145629e-01 8.386417e-01 8.582199e-01 8.734950e-01 8.845057e-01 8.911871e-01 
8.796439e-01 8.772023e-01 8.698566e-01 8.577737e-01 8.411366e-01 8.200136e-01 7.942725e-01 7.634257e-01 7.266591e-01 6.827265e-01 6.303725e-01 5.681991e-01 4.960727e-01 4.141480e-01 3.255489e-01 2.314705e-01 1.333218e-01 6.315768e-02 6.254194e-02 1.182811e-01 1.846211e-01 2.493287e-01 3.091262e-01 3.618682e-01 4.057977e-01 4.401819e-01 4.652459e-01 4.820347e-01 4.922673e-01 4.976930e-01 5.001140e-01 5.009147e-01 5.010993e-01 5.009616e-01 5.001975e-01 4.978427e-01 4.924747e-01 4.823814e-01 4.657643e-01 4.409954e-01 4.070542e-01 3.636461e-01 3.114271e-01 2.520410e-01 1.875527e-01 1.214125e-01 6.441909e-02 6.140434e-02 1.287254e-01 2.256691e-01 3.192539e-01 4.076277e-01 4.899339e-01 5.628745e-01 6.260132e-01 6.793242e-01 7.240829e-01 7.615391e-01 7.929252e-01 8.190834e-01 8.405140e-01 8.573767e-01 8.696223e-01 8.770926e-01 
8.652500e-01 8.624528e-01 8.541375e-01 8.405782e-01 8.220887e-01 7.988705e-01 7.708687e-01 7.376080e-01 6.981754e-01 6.511807e-01 5.952326e-01 5.289031e-01 4.525417e-01 3.663096e-01 2.754120e-01 1.773804e-01 8.811973e-02 5.326698e-02 9.329302e-02 1.610201e-01 2.297552e-01 2.957567e-01 3.564908e-01 4.100208e-01 4.550750e-01 4.909409e-01 5.178807e-01 5.367753e-01 5.490807e-01 5.563723e-01 5.602502e-01 5.619955e-01 5.625007e-01 5.620383e-01 5.603362e-01 5.565347e-01 5.493379e-01 5.372053e-01 5.185467e-01 4.919523e-01 4.565475e-01 4.120154e-01 3.590138e-01 2.986988e-01 2.330284e-01 1.644317e-01 9.633772e-02 5.366624e-02 8.453451e-02 1.716065e-01 2.689928e-01 3.594503e-01 4.459872e-01 5.232652e-01 5.906970e-01 6.477442e-01 6.956675e-01 7.358574e-01 7.696881e-01 7.981114e-01 8.216209e-01 8.403061e-01 8.539899e-01 8.623871e-01 
8.505969e-01 8.473751e-01 8.379173e-01 8.226335e-01 8.020046e-01 7.764111e-01 7.459147e-01 7.101058e-01 6.679951e-01 6.181362e-01 5.589876e-01 4.893452e-01 4.097368e-01 3.210922e-01 2.287314e-01 1.305627e-01 6.148782e-02 6.602900e-02 1.286250e-01 1.978819e-01 2.675921e-01 3.336428e-01 3.948909e-01 4.493075e-01 4.958455e-01 5.338207e-01 5.633073e-01 5.849688e-01 5.999497e-01 6.096068e-01 6.153216e-01 6.182444e-01 6.191595e-01 6.182956e-01 6.154321e-01 6.098107e-01 6.002825e-01 5.855039e-01 5.641207e-01 5.350102e-01 4.975061e-01 4.514879e-01 3.975911e-01 3.367626e-01 2.710100e-01 2.013496e-01 1.319724e-01 6.815901e-02 5.962658e-02 1.255723e-01 2.223484e-01 3.141692e-01 4.030929e-01 4.837552e-01 5.545942e-01 6.149302e-01 6.657673e-01 7.086585e-01 7.450328e-01 7.759250e-01 8.017686e-01 8.225417e-01 8.378926e-01 8.473715e-01 
8.360533e-01 8.323369e-01 8.215600e-01 8.042971e-01 7.812321e-01 7.529723e-01 7.197415e-01 6.812611e-01 6.365064e-01 5.840868e-01 5.222851e-01 4.504142e-01 3.686733e-01 2.799206e-01 1.867176e-01 9.533416e-02 5.277890e-02 8.839428e-02 1.579870e-01 2.270977e-01 2.962352e-01 3.621516e-01 4.237547e-01 4.793380e-01 5.278034e-01 5.683825e-01 6.009197e-01 6.258073e-01 6.438877e-01 6.562670e-01 6.640968e-01 6.683761e-01 6.697652e-01 6.684443e-01 6.642451e-01 6.565277e-01 6.443035e-01 6.264449e-01 6.018572e-01 5.697074e-01 5.296029e-01 4.816633e-01 4.266146e-01 3.654818e-01 2.999053e-01 2.309593e-01 1.617821e-01 9.198247e-02 5.295220e-02 9.127691e-02 1.799837e-01 2.729753e-01 3.622873e-01 4.452939e-01 5.184182e-01 5.814205e-01 6.347986e-01 6.802992e-01 7.192967e-01 7.528632e-01 7.813052e-01 8.044399e-01 8.216932e-01 8.324125e-01 
8.220506e-01 8.177779e-01 8.055289e-01 7.860663e-01 7.603098e-01 7.291340e-01 6.929784e-01 6.517554e-01 6.044804e-01 5.498904e-01 4.861459e-01 4.130740e-01 3.304400e-01 2.428962e-01 1.501665e-01 7.146942e-02 5.650273e-02 1.107140e-01 1.792538e-01 2.480165e-01 3.158414e-01 3.815153e-01 4.435271e-01 5.005250e-01 5.512148e-01 5.947152e-01 6.305749e-01 6.589191e-01 6.802828e-01 6.955244e-01 7.055703e-01 7.112627e-01 7.131458e-01 7.113455e-01 7.057486e-01 6.958262e-01 6.807497e-01 6.596068e-01 6.315548e-01 5.960616e-01 5.530099e-01 5.028265e-01 4.463738e-01 3.848983e-01 3.196945e-01 2.522673e-01 1.835861e-01 1.150544e-01 5.814210e-02 6.851704e-02 1.441714e-01 2.370936e-01 3.253969e-01 4.091929e-01 4.833702e-01 5.481519e-01 6.035697e-01 6.514737e-01 6.931115e-01 7.295028e-01 7.607644e-01 7.864936e-01 8.058518e-01 8.179483e-01 
8.090466e-01 8.041774e-01 7.903592e-01 7.685569e-01 7.399506e-01 7.057076e-01 6.665348e-01 6.225816e-01 5.730005e-01 5.166754e-01 4.517773e-01 3.783787e-01 2.961610e-01 2.103776e-01 1.205390e-01 5.766861e-02 6.618497e-02 1.282080e-01 1.934966e-01 2.609996e-01 3.273330e-01 3.927501e-01 4.553058e-01 5.139036e-01 5.669775e-01 6.134985e-01 6.527293e-01 6.845300e-01 7.091595e-01 7.272336e-01 7.394710e-01 7.465570e-01 7.489255e-01 7.466489e-01 7.396656e-01 7.275513e-01 7.096339e-01 6.852002e-01 6.536505e-01 6.147231e-01 5.685734e-01 5.159201e-01 4.577977e-01 3.957323e-01 3.307935e-01 2.648647e-01 1.975137e-01 1.321095e-01 6.853648e-02 5.604578e-02 1.163529e-01 2.065899e-01 2.930966e-01 3.761584e-01 4.504146e-01 5.161015e-01 5.730669e-01 6.231110e-01 6.673421e-01 7.066229e-01 7.408354e-01 7.693019e-01 7.908927e-01 8.044528e-01 
7.975172e-01 7.920467e-01 7.766551e-01 7.525101e-01 7.210612e-01 6.837718e-01 6.416569e-01 5.951182e-01 5.435538e-01 4.859567e-01 4.207079e-01 3.477424e-01 2.672301e-01 1.835833e-01 9.874260e-02 5.089670e-02 7.576801e-02 1.389575e-01 2.016478e-01 2.672015e-01 3.323271e-01 3.975186e-01 4.607823e-01 5.210058e-01 5.764294e-01 6.258414e-01 6.682533e-01 7.032863e-01 7.309529e-01 7.516526e-01 7.659166e-01 7.742865e-01 7.770992e-01 7.743783e-01 7.661066e-01 7.519513e-01 7.313805e-01 7.038598e-01 6.690027e-01 6.267866e-01 5.776101e-01 5.224428e-01 4.625247e-01 3.995753e-01 3.347243e-01 2.698652e-01 2.044830e-01 1.417507e-01 7.833430e-02 5.058032e-02 9.591107e-02 1.811275e-01 2.656774e-01 3.469660e-01 4.206992e-01 4.865668e-01 5.446426e-01 5.965030e-01 6.431740e-01 6.852592e-01 7.223939e-01 7.535841e-01 7.774063e-01 7.924307e-01 
7.879160e-01 7.818890e-01 7.650447e-01 7.387378e-01 7.046728e-01 6.645866e-01 6.198089e-01 5.709809e-01 5.178054e-01 4.593347e-01 3.942600e-01 3.221416e-01 2.438183e-01 1.622374e-01 8.309718e-02 4.848177e-02 8.341799e-02 1.443271e-01 2.052208e-01 2.687120e-01 3.329619e-01 3.980065e-01 4.620250e-01 5.237478e-01 5.812762e-01 6.332257e-01 6.784009e-01 7.162241e-01 7.465047e-01 7.694593e-01 7.854628e-01 7.949322e-01 7.981229e-01 7.950170e-01 7.856339e-01 7.697162e-01 7.468516e-01 7.166538e-01 6.789150e-01 6.338065e-01 5.819296e-01 5.244569e-01 4.628268e-01 3.989008e-01 3.340286e-01 2.699318e-01 2.066938e-01 1.459618e-01 8.556956e-02 4.889672e-02 8.111278e-02 1.604809e-01 2.432562e-01 3.224954e-01 3.954080e-01 4.610145e-01 5.198421e-01 5.731693e-01 6.219953e-01 6.666131e-01 7.064269e-01 7.401207e-01 7.660000e-01 7.823748e-01 
7.806632e-01 7.741788e-01 7.561437e-01 7.280655e-01 6.918620e-01 6.494926e-01 6.025652e-01 5.519166e-01 4.975453e-01 4.385210e-01 3.738378e-01 3.026338e-01 2.263056e-01 1.465792e-01 7.287453e-02 4.832397e-02 8.853539e-02 1.464794e-01 2.059962e-01 2.677880e-01 3.314727e-01 3.964216e-01 4.611064e-01 5.240171e-01 5.832086e-01 6.371320e-01 6.844510e-01 7.244316e-01 7.567314e-01 7.814269e-01 7.987725e-01 8.090886e-01 8.125682e-01 8.091627e-01 7.989171e-01 7.816314e-01 7.569848e-01 7.247045e-01 6.847185e-01 6.373420e-01 5.833354e-01 5.240089e-01 4.609880e-01 3.961909e-01 3.312633e-01 2.676631e-01 2.062077e-01 1.470921e-01 8.995902e-02 4.878167e-02 7.132094e-02 1.452672e-01 2.263964e-01 3.038135e-01 3.758636e-01 4.410458e-01 5.003457e-01 5.547627e-01 6.053030e-01 6.519652e-01 6.939652e-01 7.297046e-01 7.572684e-01 7.747493e-01 
7.761127e-01 7.693249e-01 7.505010e-01 7.212501e-01 6.836330e-01 6.397567e-01 5.914213e-01 5.395933e-01 4.844838e-01 4.251623e-01 3.608329e-01 2.903252e-01 2.153768e-01 1.370344e-01 6.713372e-02 4.846900e-02 9.102278e-02 1.470581e-01 2.057120e-01 2.664050e-01 3.297661e-01 3.946556e-01 4.597887e-01 5.234636e-01 5.837188e-01 6.388977e-01 6.875757e-01 7.289230e-01 7.625011e-01 7.882992e-01 8.064949e-01 8.173470e-01 8.210089e-01 8.174123e-01 8.066184e-01 7.884634e-01 7.626847e-01 7.290812e-01 6.876657e-01 6.388438e-01 5.834742e-01 5.229518e-01 4.590277e-01 3.936395e-01 3.286683e-01 2.653379e-01 2.050225e-01 1.469104e-01 9.185139e-02 4.877161e-02 6.570818e-02 1.359477e-01 2.158330e-01 2.920027e-01 3.634066e-01 4.282302e-01 4.877833e-01 5.428744e-01 5.945261e-01 6.425271e-01 6.859695e-01 7.230603e-01 7.517389e-01 7.699519e-01 
7.745360e-01 7.676394e-01 7.485333e-01 7.188631e-01 6.807408e-01 6.363264e-01 5.874880e-01 5.352389e-01 4.798618e-01 4.204280e-01 3.562033e-01 2.859245e-01 2.114214e-01 1.336188e-01 6.517774e-02 4.864835e-02 9.189269e-02 1.472550e-01 2.055600e-01 2.658435e-01 3.290776e-01 3.939318e-01 4.592164e-01 5.231474e-01 5.837686e-01 6.393776e-01 6.885257e-01 7.303460e-01 7.643689e-01 7.905512e-01 8.090437e-01 8.200830e-01 8.238083e-01 8.201445e-01 8.091583e-01 7.906984e-01 7.645236e-01 7.304580e-01 6.885452e-01 6.392208e-01 5.833805e-01 5.224437e-01 4.582123e-01 3.926208e-01 3.276468e-01 2.644211e-01 2.045281e-01 1.468075e-01 9.250886e-02 4.890484e-02 6.378134e-02 1.325880e-01 2.119773e-01 2.877557e-01 3.589554e-01 4.236804e-01 4.833343e-01 5.386732e-01 5.907230e-01 6.392032e-01 6.831609e-01 7.207347e-01 7.498119e-01 7.682868e-01 
7.761127e-01 7.693249e-01 7.505010e-01 7.212501e-01 6.836330e-01 6.397567e-01 5.914213e-01 5.395933e-01 4.844838e-01 4.251623e-01 3.608329e-01 2.903252e-01 2.153768e-01 1.370344e-01 6.713372e-02 4.846900e-02 9.102278e-02 1.470581e-01 2.057120e-01 2.664050e-01 3.297661e-01 3.946556e-01 4.597887e-01 5.234636e-01 5.837188e-01 6.388977e-01 6.875757e-01 7.289230e-01 7.625011e-01 7.882992e-01 8.064949e-01 8.173470e-01 8.210089e-01 8.174123e-01 8.066184e-01 7.884634e-01 7.626847e-01 7.290812e-01 6.876657e-01 6.388438e-01 5.834742e-01 5.229518e-01 4.590277e-01 3.936395e-01 3.286683e-01 2.653379e-01 2.050225e-01 1.469104e-01 9.185139e-02 4.877161e-02 6.570818e-02 1.359477e-01 2.158330e-01 2.920027e-01 3.634066e-01 4.282302e-01 4.877833e-01 5.428744e-01 5.945261e-01 6.425271e-01 6.859695e-01 7.230603e-01 7.517389e-01 7.699519e-01 
7.806632e-01 7.741788e-01 7.561437e-01 7.280655e-01 6.918620e-01 6.494926e-01 6.025652e-01 5.519166e-01 4.975453e-01 4.385210e-01 3.738378e-01 3.026338e-01 2.263056e-01 1.465792e-01 7.287453e-02 4.832397e-02 8.853539e-02 1.464794e-01 2.059962e-01 2.677880e-01 3.314727e-01 3.964216e-01 4.611064e-01 5.240171e-01 5.832086e-01 6.371320e-01 6.844510e-01 7.244316e-01 7.567314e-01 7.814269e-01 7.987725e-01 8.090886e-01 8.125682e-01 8.091627e-01 7.989171e-01 7.816314e-01 7.569848e-01 7.247045e-01 6.847185e-01 6.373420e-01 5.833354e-01 5.240089e-01 4.609880e-01 3.961909e-01 3.312633e-01 2.676631e-01 2.062077e-01 1.470921e-01 8.995902e-02 4.878167e-02 7.132094e-02 1.452672e-01 2.263964e-01 3.038135e-01 3.758636e-01 4.410458e-01 5.003457e-01 5.547627e-01 6.053030e-01 6.519652e-01 6.939652e-01 7.297046e-01 7.572684e-01 7.747493e-01 