# vtk DataFile Version 2.0
Comment goes here
ASCII

DATASET STRUCTURED_POINTS
FIELD FieldData 1
TIME 1 1 double
1.18000000
DIMENSIONS    64   64   1

ORIGIN    0.000   0.000   0.000
SPACING   0.015625 0.015625   1.000

POINT_DATA   4096
SCALARS Concentration double
LOOKUP_TABLE default

9.788996e-01 9.786798e-01 9.779440e-01 9.766746e-01 9.748412e-01 9.723987e-01 9.692860e-01 9.654237e-01 9.607139e-01 9.550395e-01 9.482684e-01 9.402564e-01 9.308605e-01 9.199492e-01 9.074227e-01 8.932302e-01 8.773913e-01 8.600033e-01 8.412466e-01 8.213854e-01 8.007477e-01 7.797180e-01 7.587011e-01 7.381199e-01 7.183796e-01 6.998776e-01 6.829766e-01 6.680148e-01 6.552803e-01 6.450316e-01 6.374789e-01 6.327975e-01 6.311131e-01 6.324988e-01 6.369051e-01 6.442094e-01 6.542441e-01 6.667957e-01 6.816138e-01 6.984079e-01 7.168432e-01 7.365539e-01 7.571354e-01 7.781804e-01 7.992556e-01 8.199565e-01 8.398885e-01 8.587255e-01 8.761951e-01 8.921190e-01 9.063945e-01 9.190039e-01 9.299952e-01 9.394691e-01 9.475563e-01 9.544010e-01 9.601472e-01 9.649279e-01 9.688605e-01 9.720433e-01 9.745561e-01 9.764603e-01 9.778008e-01 9.786082e-01 
9.784370e-01 9.782160e-01 9.774749e-01 9.761961e-01 9.743493e-01 9.718893e-01 9.687553e-01 9.648674e-01 9.601274e-01 9.544177e-01 9.476053e-01 9.395449e-01 9.300916e-01 9.191113e-01 9.065013e-01 8.922068e-01 8.762430e-01 8.587034e-01 8.397638e-01 8.196847e-01 7.987907e-01 7.774645e-01 7.561107e-01 7.351540e-01 7.150038e-01 6.960625e-01 6.787090e-01 6.633013e-01 6.501495e-01 6.395359e-01 6.316944e-01 6.268211e-01 6.250573e-01 6.264835e-01 6.310478e-01 6.386135e-01 6.489949e-01 6.619541e-01 6.772178e-01 6.944711e-01 7.133586e-01 7.334939e-01 7.544659e-01 7.758619e-01 7.972459e-01 8.182131e-01 8.383710e-01 8.573967e-01 8.750223e-01 8.910741e-01 9.054540e-01 9.181486e-01 9.292100e-01 9.387425e-01 9.468791e-01 9.537660e-01 9.595486e-01 9.643606e-01 9.683201e-01 9.715257e-01 9.740574e-01 9.759766e-01 9.773282e-01 9.781427e-01 
9.770442e-01 9.768196e-01 9.760624e-01 9.747552e-01 9.728681e-01 9.703559e-01 9.671576e-01 9.631931e-01 9.583632e-01 9.525485e-01 9.456138e-01 9.374099e-01 9.277863e-01 9.166018e-01 9.037443e-01 8.891480e-01 8.728154e-01 8.548280e-01 8.353490e-01 8.146279e-01 7.929799e-01 7.707831e-01 7.484412e-01 7.263864e-01 7.050413e-01 6.848325e-01 6.661781e-01 6.494915e-01 6.351418e-01 6.234804e-01 6.148075e-01 6.093813e-01 6.073880e-01 6.089290e-01 6.139450e-01 6.222596e-01 6.336346e-01 6.477618e-01 6.643033e-01 6.828765e-01 7.030690e-01 7.244437e-01 7.465600e-01 7.689878e-01 7.912800e-01 8.130326e-01 8.338565e-01 8.534399e-01 8.715262e-01 8.879560e-01 9.026440e-01 9.155904e-01 9.268594e-01 9.365647e-01 9.448474e-01 9.518592e-01 9.577496e-01 9.626547e-01 9.666943e-01 9.699681e-01 9.725565e-01 9.745206e-01 9.759055e-01 9.767411e-01 
9.747015e-01 9.744709e-01 9.736874e-01 9.723337e-01 9.703801e-01 9.677818e-01 9.644778e-01 9.603873e-01 9.554096e-01 9.494226e-01 9.422873e-01 9.338478e-01 9.239446e-01 9.124245e-01 8.991605e-01 8.840693e-01 8.671313e-01 8.484095e-01 8.280470e-01 8.062772e-01 7.834019e-01 7.597945e-01 7.358607e-01 7.120480e-01 6.888054e-01 6.666018e-01 6.459198e-01 6.272533e-01 6.110613e-01 5.977971e-01 5.878583e-01 5.815920e-01 5.792482e-01 5.809587e-01 5.866550e-01 5.961036e-01 6.089929e-01 6.249122e-01 6.434299e-01 6.640604e-01 6.863062e-01 7.096498e-01 7.335983e-01 7.576877e-01 7.814502e-01 8.044791e-01 8.263892e-01 8.468842e-01 8.657251e-01 8.827747e-01 8.979678e-01 9.113281e-01 9.229382e-01 9.329280e-01 9.414507e-01 9.486678e-01 9.547356e-01 9.597941e-01 9.639660e-01 9.673524e-01 9.700344e-01 9.720730e-01 9.735130e-01 9.743836e-01 
9.713751e-01 9.711365e-01 9.703167e-01 9.688987e-01 9.668536e-01 9.641364e-01 9.606867e-01 9.564223e-01 9.512410e-01 9.450164e-01 9.376043e-01 9.288398e-01 9.185511e-01 9.065683e-01 8.927441e-01 8.769714e-01 8.592036e-01 8.394755e-01 8.179071e-01 7.947134e-01 7.701828e-01 7.446888e-01 7.186462e-01 6.925301e-01 6.668289e-01 6.420706e-01 6.188077e-01 5.976275e-01 5.790913e-01 5.637796e-01 5.522146e-01 5.448630e-01 5.420603e-01 5.439790e-01 5.505379e-01 5.614298e-01 5.762448e-01 5.944402e-01 6.154697e-01 6.387263e-01 6.636115e-01 6.895149e-01 7.158694e-01 7.421635e-01 7.678926e-01 7.926422e-01 8.160253e-01 8.377631e-01 8.576362e-01 8.755344e-01 8.914220e-01 9.053522e-01 9.174325e-01 9.278142e-01 9.366681e-01 9.441685e-01 9.504809e-01 9.557510e-01 9.601057e-01 9.636478e-01 9.664594e-01 9.686011e-01 9.701174e-01 9.710366e-01 
9.670183e-01 9.667699e-01 9.659047e-01 9.644059e-01 9.622453e-01 9.593783e-01 9.557445e-01 9.512607e-01 9.458222e-01 9.392976e-01 9.315355e-01 9.223600e-01 9.115832e-01 8.990145e-01 8.844807e-01 8.678454e-01 8.490294e-01 8.280356e-01 8.049537e-01 7.799832e-01 7.534041e-01 7.255998e-01 6.970074e-01 6.681459e-01 6.395582e-01 6.118427e-01 5.856354e-01 5.616150e-01 5.404511e-01 5.228605e-01 5.094961e-01 5.009458e-01 4.976292e-01 4.997596e-01 5.072473e-01 5.197111e-01 5.366505e-01 5.573844e-01 5.812527e-01 6.075160e-01 6.354689e-01 6.643877e-01 6.936144e-01 7.225720e-01 7.507033e-01 7.775749e-01 8.027890e-01 8.260813e-01 8.472495e-01 8.662175e-01 8.829836e-01 8.976357e-01 9.103118e-01 9.211905e-01 9.304639e-01 9.383233e-01 9.449457e-01 9.504840e-01 9.550704e-01 9.588101e-01 9.617861e-01 9.640588e-01 9.656721e-01 9.666533e-01 
9.615717e-01 9.613121e-01 9.603928e-01 9.587971e-01 9.564980e-01 9.534511e-01 9.495963e-01 9.448488e-01 9.391014e-01 9.322160e-01 9.240327e-01 9.143617e-01 9.029961e-01 8.897198e-01 8.743286e-01 8.566511e-01 8.365711e-01 8.140573e-01 7.891708e-01 7.620960e-01 7.331164e-01 7.026455e-01 6.711635e-01 6.392594e-01 6.075485e-01 5.767084e-01 5.474365e-01 5.204638e-01 4.965268e-01 4.764844e-01 4.611436e-01 4.512553e-01 4.473515e-01 4.496976e-01 4.581895e-01 4.723542e-01 4.915664e-01 5.149765e-01 5.418150e-01 5.712384e-01 6.024641e-01 6.346677e-01 6.670825e-01 6.990561e-01 7.299493e-01 7.592969e-01 7.866693e-01 8.118081e-01 8.345271e-01 8.547832e-01 8.726097e-01 8.881338e-01 9.015298e-01 9.130085e-01 9.227885e-01 9.310808e-01 9.380767e-01 9.439382e-01 9.488039e-01 9.527819e-01 9.559564e-01 9.583873e-01 9.601180e-01 9.611744e-01 
9.549668e-01 9.546947e-01 9.537130e-01 9.520049e-01 9.495451e-01 9.462892e-01 9.421777e-01 9.371238e-01 9.310171e-01 9.237120e-01 9.150376e-01 9.047882e-01 8.927336e-01 8.786278e-01 8.622297e-01 8.433279e-01 8.217638e-01 7.974715e-01 7.704851e-01 7.409862e-01 7.092727e-01 6.758111e-01 6.411541e-01 6.059933e-01 5.710377e-01 5.370467e-01 5.047746e-01 4.749518e-01 4.483613e-01 4.260000e-01 4.088131e-01 3.976825e-01 3.932208e-01 3.957357e-01 4.051132e-01 4.208130e-01 4.421353e-01 4.680822e-01 4.978066e-01 5.303720e-01 5.649384e-01 6.005715e-01 6.363891e-01 6.716498e-01 7.056091e-01 7.377481e-01 7.675871e-01 7.948618e-01 8.193889e-01 8.411547e-01 8.602272e-01 8.767768e-01 8.910185e-01 9.032013e-01 9.135745e-01 9.223733e-01 9.298055e-01 9.360446e-01 9.412371e-01 9.454938e-01 9.489009e-01 9.515173e-01 9.533859e-01 9.545308e-01 
9.471256e-01 9.468399e-01 9.457872e-01 9.439510e-01 9.413077e-01 9.378132e-01 9.334086e-01 9.280052e-01 9.214888e-01 9.137051e-01 9.044695e-01 8.935572e-01 8.807111e-01 8.656496e-01 8.480892e-01 8.277723e-01 8.044955e-01 7.781571e-01 7.487711e-01 7.165286e-01 6.817657e-01 6.450365e-01 6.070045e-01 5.685177e-01 5.304169e-01 4.935638e-01 4.587338e-01 4.264904e-01 3.974807e-01 3.728292e-01 3.536911e-01 3.411917e-01 3.361035e-01 3.388010e-01 3.491328e-01 3.664464e-01 3.898696e-01 4.181550e-01 4.504076e-01 4.857443e-01 5.234048e-01 5.623750e-01 6.016288e-01 6.403346e-01 6.775910e-01 7.128059e-01 7.454106e-01 7.751123e-01 8.017139e-01 8.252209e-01 8.457348e-01 8.634703e-01 8.786889e-01 8.916824e-01 9.027376e-01 9.121172e-01 9.200489e-01 9.267206e-01 9.322877e-01 9.368645e-01 9.405391e-01 9.433691e-01 9.453969e-01 9.466443e-01 
9.379682e-01 9.376678e-01 9.365350e-01 9.345537e-01 9.317029e-01 9.279386e-01 9.232035e-01 9.174062e-01 9.104286e-01 9.021065e-01 8.922382e-01 8.805769e-01 8.668335e-01 8.506850e-01 8.317990e-01 8.098678e-01 7.846389e-01 7.559794e-01 7.238894e-01 6.885876e-01 6.504701e-01 6.102128e-01 5.686309e-01 5.267797e-01 4.856608e-01 4.462521e-01 4.093274e-01 3.751734e-01 3.443027e-01 3.179706e-01 2.974734e-01 2.840441e-01 2.785013e-01 2.812806e-01 2.921902e-01 3.105407e-01 3.354474e-01 3.655070e-01 3.998372e-01 4.375878e-01 4.780730e-01 5.202041e-01 5.628359e-01 6.050552e-01 6.457809e-01 6.843167e-01 7.199705e-01 7.523914e-01 7.813426e-01 8.068369e-01 8.290003e-01 8.480939e-01 8.644286e-01 8.783460e-01 8.901754e-01 9.002128e-01 9.087096e-01 9.158713e-01 9.218636e-01 9.268044e-01 9.307841e-01 9.338583e-01 9.360689e-01 9.374342e-01 
9.274128e-01 9.270962e-01 9.258725e-01 9.237262e-01 9.206399e-01 9.165706e-01 9.114628e-01 9.052229e-01 8.977286e-01 8.888040e-01 8.782284e-01 8.657266e-01 8.509733e-01 8.335975e-01 8.132122e-01 7.894543e-01 7.620239e-01 7.307598e-01 6.956624e-01 6.569919e-01 6.152271e-01 5.711960e-01 5.258993e-01 4.806825e-01 4.367571e-01 3.953510e-01 3.573959e-01 3.225637e-01 2.906573e-01 2.628949e-01 2.409020e-01 2.262891e-01 2.201416e-01 2.230967e-01 2.348101e-01 2.544373e-01 2.807608e-01 3.119346e-01 3.472444e-01 3.863787e-01 4.290669e-01 4.740235e-01 5.198559e-01 5.656172e-01 6.099524e-01 6.520478e-01 6.910403e-01 7.264843e-01 7.580808e-01 7.858257e-01 8.098660e-01 8.305033e-01 8.481049e-01 8.630663e-01 8.757686e-01 8.865443e-01 8.956766e-01 9.033900e-01 9.098627e-01 9.152162e-01 9.195434e-01 9.228968e-01 9.253169e-01 9.268179e-01 
9.153890e-01 9.150540e-01 9.137260e-01 9.113905e-01 9.080354e-01 9.036192e-01 8.980905e-01 8.913529e-01 8.832807e-01 8.736840e-01 8.623216e-01 8.488823e-01 8.329994e-01 8.142475e-01 7.921786e-01 7.663736e-01 7.364858e-01 7.023399e-01 6.639459e-01 6.216267e-01 5.759527e-01 5.279119e-01 4.787123e-01 4.300325e-01 3.833017e-01 3.400015e-01 3.011024e-01 2.658489e-01 2.338329e-01 2.062709e-01 1.846114e-01 1.702783e-01 1.641852e-01 1.670067e-01 1.783572e-01 1.975218e-01 2.235618e-01 2.547671e-01 2.908063e-01 3.313573e-01 3.760682e-01 4.235805e-01 4.724607e-01 5.217705e-01 5.698534e-01 6.157393e-01 6.583625e-01 6.971479e-01 7.317003e-01 7.619827e-01 7.881453e-01 8.105313e-01 8.295638e-01 8.457014e-01 8.593829e-01 8.709849e-01 8.808301e-01 8.891644e-01 8.961808e-01 9.020039e-01 9.067288e-01 9.104030e-01 9.130651e-01 9.147231e-01 
9.018373e-01 9.014802e-01 9.000300e-01 8.974738e-01 8.938072e-01 8.889919e-01 8.829826e-01 8.756817e-01 8.669597e-01 8.566118e-01 8.443730e-01 8.298892e-01 8.127444e-01 7.924517e-01 7.684975e-01 7.404037e-01 7.077860e-01 6.704588e-01 6.284637e-01 5.821789e-01 5.322677e-01 4.798383e-01 4.262789e-01 3.737142e-01 3.236678e-01 2.782420e-01 2.395414e-01 2.060379e-01 1.757005e-01 1.489322e-01 1.272877e-01 1.127102e-01 1.064792e-01 1.093422e-01 1.208103e-01 1.401911e-01 1.657830e-01 1.954136e-01 2.298565e-01 2.701909e-01 3.166813e-01 3.670448e-01 4.192057e-01 4.724904e-01 5.247401e-01 5.748393e-01 6.215235e-01 6.640438e-01 7.019235e-01 7.350642e-01 7.636278e-01 7.879880e-01 8.086347e-01 8.260930e-01 8.408706e-01 8.533970e-01 8.640426e-01 8.730776e-01 8.807121e-01 8.870731e-01 8.922569e-01 8.963034e-01 8.992475e-01 9.010888e-01 
8.867300e-01 8.863454e-01 8.847493e-01 8.819318e-01 8.778995e-01 8.726194e-01 8.660565e-01 8.581125e-01 8.486567e-01 8.374657e-01 8.242481e-01 8.086003e-01 7.900448e-01 7.680252e-01 7.419545e-01 7.112968e-01 6.756268e-01 6.347667e-01 5.887795e-01 5.381095e-01 4.834802e-01 4.260776e-01 3.675872e-01 3.108093e-01 2.576086e-01 2.098965e-01 1.682082e-01 1.325900e-01 1.039442e-01 8.222752e-02 6.645024e-02 5.655936e-02 5.244842e-02 5.433726e-02 6.200697e-02 7.557267e-02 9.530312e-02 1.220859e-01 1.582666e-01 2.017787e-01 2.501109e-01 3.026672e-01 3.583320e-01 4.162496e-01 4.734403e-01 5.284795e-01 5.798733e-01 6.266875e-01 6.683606e-01 7.047596e-01 7.360507e-01 7.626534e-01 7.851254e-01 8.040721e-01 8.200785e-01 8.336437e-01 8.451921e-01 8.550225e-01 8.633655e-01 8.703482e-01 8.760672e-01 8.805505e-01 8.838271e-01 8.858846e-01 
8.700673e-01 8.696469e-01 8.678730e-01 8.647407e-01 8.602720e-01 8.544431e-01 8.472336e-01 8.385476e-01 8.282541e-01 8.161098e-01 8.017902e-01 7.848364e-01 7.646917e-01 7.407187e-01 7.122452e-01 6.786669e-01 6.395144e-01 5.945924e-01 5.439844e-01 4.881403e-01 4.278631e-01 3.644377e-01 3.000995e-01 2.381329e-01 1.793800e-01 1.279191e-01 8.748057e-02 5.876445e-02 4.068200e-02 3.031959e-02 2.422678e-02 2.137942e-02 2.047848e-02 2.098855e-02 2.309285e-02 2.787083e-02 3.664543e-02 5.169188e-02 7.861754e-02 1.177318e-01 1.676811e-01 2.257786e-01 2.865899e-01 3.504071e-01 4.139230e-01 4.751858e-01 5.324449e-01 5.843913e-01 6.305226e-01 6.706858e-01 7.051139e-01 7.342789e-01 7.588287e-01 7.794584e-01 7.968516e-01 8.115898e-01 8.241623e-01 8.349024e-01 8.440636e-01 8.517719e-01 8.581209e-01 8.631220e-01 8.667938e-01 8.691083e-01 
8.519057e-01 8.514377e-01 8.494448e-01 8.459299e-01 8.409361e-01 8.344534e-01 8.264833e-01 8.169344e-01 8.056794e-01 7.924491e-01 7.768818e-01 7.584454e-01 7.364961e-01 7.102835e-01 6.790334e-01 6.420524e-01 5.987840e-01 5.489938e-01 4.926734e-01 4.303546e-01 3.630326e-01 2.922243e-01 2.207563e-01 1.533472e-01 9.562107e-02 5.551014e-02 3.512835e-02 2.667690e-02 2.590241e-02 2.849921e-02 3.166772e-02 3.431081e-02 3.567537e-02 3.527824e-02 3.328532e-02 3.026188e-02 2.729505e-02 2.627443e-02 3.193259e-02 4.794833e-02 8.183413e-02 1.362160e-01 2.016787e-01 2.728491e-01 3.441692e-01 4.132055e-01 4.778247e-01 5.361716e-01 5.876850e-01 6.323234e-01 6.704242e-01 7.025707e-01 7.295168e-01 7.520728e-01 7.710500e-01 7.871243e-01 8.008687e-01 8.126563e-01 8.227704e-01 8.313314e-01 8.384278e-01 8.440465e-01 8.481918e-01 8.508132e-01 
8.323452e-01 8.318132e-01 8.295483e-01 8.255647e-01 8.199343e-01 8.126672e-01 8.037950e-01 7.932353e-01 7.808665e-01 7.663896e-01 7.493935e-01 7.292581e-01 7.052242e-01 6.764132e-01 6.419012e-01 6.008777e-01 5.526404e-01 4.968445e-01 4.334404e-01 3.630641e-01 2.872005e-01 2.084642e-01 1.322946e-01 7.159205e-02 3.962509e-02 3.117802e-02 3.762483e-02 4.886651e-02 5.776196e-02 6.239399e-02 6.433347e-02 6.528904e-02 6.597107e-02 6.612868e-02 6.584868e-02 6.478245e-02 6.117064e-02 5.321850e-02 4.127167e-02 3.190848e-02 3.454858e-02 5.905069e-02 1.116742e-01 1.848179e-01 2.637846e-01 3.416701e-01 4.152032e-01 4.812270e-01 5.391918e-01 5.891513e-01 6.315868e-01 6.672281e-01 6.969625e-01 7.217516e-01 7.425519e-01 7.601609e-01 7.752536e-01 7.882555e-01 7.994840e-01 8.090520e-01 8.170379e-01 8.233958e-01 8.281086e-01 8.310969e-01 
8.115611e-01 8.109438e-01 8.083422e-01 8.037867e-01 7.973863e-01 7.891796e-01 7.792392e-01 7.674952e-01 7.538374e-01 7.379257e-01 7.192923e-01 6.971968e-01 6.707470e-01 6.388900e-01 6.005353e-01 5.547120e-01 5.005532e-01 4.376491e-01 3.658537e-01 2.863978e-01 2.015722e-01 1.198381e-01 5.855749e-02 3.422061e-02 4.022851e-02 6.112084e-02 7.956766e-02 9.042081e-02 9.629425e-02 9.901454e-02 9.975529e-02 9.986320e-02 1.001202e-01 1.006281e-01 1.012172e-01 1.012977e-01 9.911439e-02 9.367739e-02 8.302371e-02 6.630724e-02 4.529774e-02 3.331585e-02 4.669618e-02 9.685664e-02 1.750610e-01 2.612019e-01 3.442678e-01 4.191021e-01 4.844840e-01 5.406766e-01 5.882123e-01 6.279772e-01 6.609931e-01 6.883871e-01 7.113042e-01 7.306825e-01 7.473341e-01 7.617443e-01 7.742778e-01 7.850334e-01 7.940763e-01 8.013163e-01 8.067072e-01 8.101321e-01 
7.897756e-01 7.890457e-01 7.860294e-01 7.807786e-01 7.734505e-01 7.641220e-01 7.529191e-01 7.397902e-01 7.246399e-01 7.070784e-01 6.865643e-01 6.622148e-01 6.329669e-01 5.975912e-01 5.547983e-01 5.035282e-01 4.427606e-01 3.720824e-01 2.915529e-01 2.030886e-01 1.148942e-01 5.224933e-02 3.429999e-02 5.155725e-02 8.062042e-02 1.065571e-01 1.249084e-01 1.348501e-01 1.386514e-01 1.389282e-01 1.376446e-01 1.363547e-01 1.360098e-01 1.368586e-01 1.386074e-01 1.404980e-01 1.405849e-01 1.372937e-01 1.278655e-01 1.115918e-01 8.831361e-02 5.994640e-02 3.685853e-02 4.140456e-02 9.049722e-02 1.752573e-01 2.668626e-01 3.507632e-01 4.239684e-01 4.869790e-01 5.402359e-01 5.847329e-01 6.215400e-01 6.519547e-01 6.773150e-01 6.987326e-01 7.171806e-01 7.332222e-01 7.472772e-01 7.594280e-01 7.697193e-01 7.780052e-01 7.841999e-01 7.881399e-01 
7.672877e-01 7.664131e-01 7.628932e-01 7.568091e-01 7.483773e-01 7.377256e-01 7.250484e-01 7.103187e-01 6.934633e-01 6.740280e-01 6.513916e-01 6.244887e-01 5.920914e-01 5.527615e-01 5.051036e-01 4.479788e-01 3.803654e-01 3.017759e-01 2.127346e-01 1.205240e-01 5.171838e-02 3.459501e-02 5.874398e-02 9.517753e-02 1.278373e-01 1.533677e-01 1.702904e-01 1.786297e-01 1.811104e-01 1.802683e-01 1.781439e-01 1.763025e-01 1.756709e-01 1.766137e-01 1.787259e-01 1.812311e-01 1.822771e-01 1.802540e-01 1.725989e-01 1.578031e-01 1.349148e-01 1.046419e-01 6.924486e-02 3.915536e-02 4.018390e-02 9.473771e-02 1.847076e-01 2.772178e-01 3.585300e-01 4.286583e-01 4.880569e-01 5.377458e-01 5.788112e-01 6.126305e-01 6.407694e-01 6.644980e-01 6.849954e-01 7.029035e-01 7.187145e-01 7.324850e-01 7.442335e-01 7.537438e-01 7.608792e-01 7.654188e-01 
7.444259e-01 7.433687e-01 7.392458e-01 7.321754e-01 7.224470e-01 7.102528e-01 6.958735e-01 6.793144e-01 6.605344e-01 6.390019e-01 6.140089e-01 5.842853e-01 5.484340e-01 5.048757e-01 4.521372e-01 3.893107e-01 3.152033e-01 2.292608e-01 1.354626e-01 5.810726e-02 3.355491e-02 5.905884e-02 9.988055e-02 1.397971e-01 1.730473e-01 1.978480e-01 2.140780e-01 2.222853e-01 2.246064e-01 2.234584e-01 2.209474e-01 2.187685e-01 2.179271e-01 2.188590e-01 2.211105e-01 2.238302e-01 2.251622e-01 2.233706e-01 2.160610e-01 2.017441e-01 1.794610e-01 1.490438e-01 1.116946e-01 7.098367e-02 3.782533e-02 4.322597e-02 1.078575e-01 2.015391e-01 2.904101e-01 3.672370e-01 4.326226e-01 4.876412e-01 5.332229e-01 5.707487e-01 6.019531e-01 6.282550e-01 6.510502e-01 6.710680e-01 6.888777e-01 7.045044e-01 7.179297e-01 7.288527e-01 7.370717e-01 7.422982e-01 
7.215738e-01 7.202934e-01 7.154630e-01 7.072487e-01 6.960254e-01 6.820684e-01 6.657624e-01 6.471587e-01 6.262613e-01 6.024535e-01 5.749477e-01 5.422433e-01 5.028376e-01 4.550196e-01 3.974877e-01 3.295883e-01 2.502903e-01 1.586480e-01 7.259744e-02 3.301600e-02 5.382002e-02 9.718514e-02 1.412880e-01 1.813251e-01 2.144527e-01 2.393091e-01 2.557563e-01 2.645914e-01 2.676958e-01 2.672636e-01 2.652787e-01 2.634066e-01 2.626088e-01 2.633676e-01 2.652096e-01 2.673155e-01 2.679538e-01 2.654547e-01 2.576650e-01 2.430884e-01 2.206572e-01 1.901699e-01 1.525694e-01 1.096804e-01 6.557098e-02 3.368100e-02 5.330586e-02 1.302614e-01 2.224701e-01 3.053008e-01 3.758122e-01 4.356937e-01 4.857203e-01 5.269982e-01 5.614378e-01 5.904905e-01 6.157927e-01 6.381357e-01 6.581728e-01 6.758833e-01 6.911994e-01 7.037205e-01 7.131635e-01 7.191618e-01 
6.991115e-01 6.975635e-01 6.919180e-01 6.823989e-01 6.694821e-01 6.535434e-01 6.350940e-01 6.142449e-01 5.910676e-01 5.648508e-01 5.347607e-01 4.990243e-01 4.561470e-01 4.043001e-01 3.424436e-01 2.708393e-01 1.868082e-01 9.762730e-02 3.810685e-02 4.358190e-02 8.716987e-02 1.343336e-01 1.788390e-01 2.186355e-01 2.517307e-01 2.770968e-01 2.946349e-01 3.050430e-01 3.097932e-01 3.108232e-01 3.099183e-01 3.086944e-01 3.080821e-01 3.085790e-01 3.097307e-01 3.107436e-01 3.100035e-01 3.059567e-01 2.967057e-01 2.809607e-01 2.578118e-01 2.271117e-01 1.894740e-01 1.463359e-01 1.001876e-01 5.461908e-02 3.221677e-02 7.308385e-02 1.574558e-01 2.449714e-01 3.190887e-01 3.830831e-01 4.371933e-01 4.820960e-01 5.198227e-01 5.517405e-01 5.797128e-01 6.045688e-01 6.270369e-01 6.470406e-01 6.644456e-01 6.787383e-01 6.895388e-01 6.963943e-01 
6.774409e-01 6.755792e-01 6.690120e-01 6.580354e-01 6.432401e-01 6.251252e-01 6.043443e-01 5.810944e-01 5.555323e-01 5.268755e-01 4.942737e-01 4.557206e-01 4.098167e-01 3.546493e-01 2.897432e-01 2.158876e-01 1.297127e-01 5.427286e-02 3.286118e-02 6.920982e-02 1.182883e-01 1.664486e-01 2.107766e-01 2.504295e-01 2.839093e-01 3.104761e-01 3.298239e-01 3.424751e-01 3.495424e-01 3.526743e-01 3.534097e-01 3.532320e-01 3.529796e-01 3.531350e-01 3.532840e-01 3.527159e-01 3.499878e-01 3.437294e-01 3.323202e-01 3.147090e-01 2.901950e-01 2.588266e-01 2.211842e-01 1.783082e-01 1.318516e-01 8.363389e-02 3.981522e-02 3.974106e-02 1.026915e-01 1.889908e-01 2.656577e-01 3.318941e-01 3.892892e-01 4.372740e-01 4.780744e-01 5.128050e-01 5.434928e-01 5.709759e-01 5.960185e-01 6.184818e-01 6.381372e-01 6.543505e-01 6.666229e-01 6.744058e-01 
6.569279e-01 6.547027e-01 6.471130e-01 6.345475e-01 6.177168e-01 5.972655e-01 5.740022e-01 5.482435e-01 5.202593e-01 4.892380e-01 4.543893e-01 4.134571e-01 3.653835e-01 3.076647e-01 2.416713e-01 1.656907e-01 8.448202e-02 3.321441e-02 4.720460e-02 9.493981e-02 1.443296e-01 1.919426e-01 2.360666e-01 2.758905e-01 3.103912e-01 3.387466e-01 3.605325e-01 3.759768e-01 3.858565e-01 3.915099e-01 3.942200e-01 3.953075e-01 3.955167e-01 3.952911e-01 3.942744e-01 3.918414e-01 3.867298e-01 3.777731e-01 3.636365e-01 3.435423e-01 3.170701e-01 2.844722e-01 2.464394e-01 2.037261e-01 1.577812e-01 1.090968e-01 6.057149e-02 2.976959e-02 6.185779e-02 1.385307e-01 2.173553e-01 2.838499e-01 3.435372e-01 3.938177e-01 4.372532e-01 4.745746e-01 5.078937e-01 5.380256e-01 5.657115e-01 5.907389e-01 6.127533e-01 6.309914e-01 6.448159e-01 6.535731e-01 
6.379314e-01 6.352972e-01 6.266132e-01 6.123667e-01 5.933901e-01 5.704963e-01 5.446513e-01 5.163395e-01 4.859584e-01 4.527683e-01 4.160756e-01 3.735234e-01 3.243808e-01 2.655292e-01 1.999540e-01 1.226084e-01 5.230665e-02 2.942936e-02 6.625576e-02 1.147467e-01 1.638526e-01 2.101740e-01 2.542300e-01 2.946635e-01 3.307665e-01 3.614489e-01 3.861129e-01 4.047219e-01 4.177239e-01 4.261662e-01 4.310768e-01 4.335907e-01 4.343398e-01 4.337152e-01 4.314213e-01 4.269335e-01 4.191829e-01 4.072167e-01 3.899786e-01 3.669620e-01 3.380334e-01 3.036640e-01 2.647419e-01 2.220089e-01 1.768056e-01 1.288450e-01 8.106310e-02 3.569116e-02 3.753595e-02 9.805722e-02 1.749878e-01 2.408482e-01 3.013407e-01 3.531569e-01 3.985123e-01 4.380555e-01 4.737648e-01 5.064634e-01 5.367666e-01 5.643856e-01 5.887973e-01 6.091066e-01 6.245179e-01 6.342680e-01 
6.207634e-01 6.176896e-01 6.078733e-01 5.919045e-01 5.707331e-01 5.453532e-01 5.168847e-01 4.860225e-01 4.533018e-01 4.181768e-01 3.800671e-01 3.367921e-01 2.877530e-01 2.298706e-01 1.660219e-01 9.077922e-02 3.396837e-02 3.537842e-02 8.103839e-02 1.273977e-01 1.751625e-01 2.207334e-01 2.651145e-01 3.068402e-01 3.450532e-01 3.784781e-01 4.063026e-01 4.282682e-01 4.445284e-01 4.558515e-01 4.630337e-01 4.670191e-01 4.683366e-01 4.673152e-01 4.637229e-01 4.571260e-01 4.466444e-01 4.315282e-01 4.109822e-01 3.847739e-01 3.530078e-01 3.164036e-01 2.759912e-01 2.328112e-01 1.879582e-01 1.415045e-01 9.493216e-02 4.718803e-02 2.709537e-02 6.817533e-02 1.384559e-01 2.041746e-01 2.639916e-01 3.165981e-01 3.629682e-01 4.042259e-01 4.419573e-01 4.770344e-01 5.098354e-01 5.399833e-01 5.667503e-01 5.891062e-01 6.060856e-01 6.168124e-01 
6.057135e-01 6.021889e-01 5.912480e-01 5.735834e-01 5.502491e-01 5.224257e-01 4.913656e-01 4.580093e-01 4.230063e-01 3.861207e-01 3.468146e-01 3.033487e-01 2.548462e-01 1.990991e-01 1.370476e-01 6.750691e-02 2.573981e-02 4.287739e-02 8.819345e-02 1.329386e-01 1.790314e-01 2.245201e-01 2.697373e-01 3.132493e-01 3.538798e-01 3.902486e-01 4.213094e-01 4.466176e-01 4.660900e-01 4.802320e-01 4.896344e-01 4.950592e-01 4.969387e-01 4.955405e-01 4.906891e-01 4.820336e-01 4.688716e-01 4.506372e-01 4.267774e-01 3.973073e-01 3.625283e-01 3.234186e-01 2.811229e-01 2.370842e-01 1.922236e-01 1.473573e-01 1.020652e-01 5.746775e-02 2.512539e-02 4.694175e-02 1.088136e-01 1.743069e-01 2.325009e-01 2.849480e-01 3.314786e-01 3.738844e-01 4.132431e-01 4.504463e-01 4.855546e-01 5.180849e-01 5.470830e-01 5.713857e-01 5.898553e-01 6.015059e-01 
5.930233e-01 5.890649e-01 5.770674e-01 5.578174e-01 5.324564e-01 5.023391e-01 4.688255e-01 4.331058e-01 3.959198e-01 3.573936e-01 3.169875e-01 2.734957e-01 2.255680e-01 1.720132e-01 1.117978e-01 4.979812e-02 2.301600e-02 4.866692e-02 9.005608e-02 1.333020e-01 1.779166e-01 2.236875e-01 2.698752e-01 3.153092e-01 3.583407e-01 3.975831e-01 4.317168e-01 4.601524e-01 4.825948e-01 4.993331e-01 5.107775e-01 5.175234e-01 5.199219e-01 5.181824e-01 5.121791e-01 5.016287e-01 4.859868e-01 4.648458e-01 4.378709e-01 4.052749e-01 3.675265e-01 3.258540e-01 2.814872e-01 2.362622e-01 1.910207e-01 1.472536e-01 1.037227e-01 6.305342e-02 2.658375e-02 3.398089e-02 8.803823e-02 1.517435e-01 2.075062e-01 2.586567e-01 3.047042e-01 3.477187e-01 3.883583e-01 4.273835e-01 4.645456e-01 4.992174e-01 5.302326e-01 5.562968e-01 5.761146e-01 5.885966e-01 
5.829052e-01 5.785583e-01 5.656355e-01 5.450036e-01 5.178704e-01 4.857416e-01 4.500564e-01 4.122335e-01 3.730836e-01 3.330935e-01 2.917458e-01 2.483529e-01 2.012569e-01 1.499169e-01 9.223094e-02 3.760042e-02 2.259638e-02 5.226133e-02 9.010049e-02 1.316455e-01 1.748703e-01 2.207807e-01 2.676992e-01 3.147813e-01 3.598772e-01 4.016261e-01 4.384197e-01 4.695536e-01 4.945358e-01 5.134926e-01 5.266795e-01 5.345518e-01 5.373933e-01 5.353644e-01 5.283778e-01 5.162039e-01 4.984302e-01 4.747821e-01 4.450967e-01 4.097530e-01 3.693605e-01 3.253734e-01 2.791056e-01 2.327060e-01 1.870487e-01 1.440209e-01 1.024613e-01 6.472273e-02 2.850701e-02 2.675538e-02 7.357616e-02 1.340592e-01 1.874939e-01 2.371087e-01 2.826941e-01 3.261434e-01 3.678810e-01 4.084522e-01 4.473732e-01 4.838694e-01 5.166016e-01 5.441616e-01 5.651216e-01 5.783037e-01 
5.755285e-01 5.708752e-01 5.572298e-01 5.355200e-01 5.070002e-01 4.732905e-01 4.358833e-01 3.963773e-01 3.556360e-01 3.144428e-01 2.723322e-01 2.290429e-01 1.828260e-01 1.334848e-01 7.870533e-02 3.023901e-02 2.316603e-02 5.424961e-02 8.975571e-02 1.296323e-01 1.717292e-01 2.175452e-01 2.648926e-01 3.131595e-01 3.597986e-01 4.034836e-01 4.423283e-01 4.755495e-01 5.024835e-01 5.231446e-01 5.376692e-01 5.464052e-01 5.495870e-01 5.473367e-01 5.395954e-01 5.261716e-01 5.067523e-01 4.811659e-01 4.493671e-01 4.118712e-01 3.693978e-01 3.235925e-01 2.758671e-01 2.285727e-01 1.827403e-01 1.402762e-01 1.005202e-01 6.458680e-02 3.007799e-02 2.273264e-02 6.314647e-02 1.199761e-01 1.719624e-01 2.204418e-01 2.659370e-01 3.098047e-01 3.524880e-01 3.942808e-01 4.345844e-01 4.724888e-01 5.065440e-01 5.352494e-01 5.570832e-01 5.707982e-01 
5.710297e-01 5.661755e-01 5.520652e-01 5.296636e-01 5.002526e-01 4.655235e-01 4.269998e-01 3.863924e-01 3.445998e-01 3.025887e-01 2.599519e-01 2.166735e-01 1.710617e-01 1.229938e-01 7.058474e-02 2.642466e-02 2.389472e-02 5.529779e-02 8.962268e-02 1.283274e-01 1.696559e-01 2.152786e-01 2.628020e-01 3.117362e-01 3.592967e-01 4.041813e-01 4.443092e-01 4.788454e-01 5.070059e-01 5.287367e-01 5.441015e-01 5.533802e-01 5.567756e-01 5.543855e-01 5.461676e-01 5.319543e-01 5.114950e-01 4.846825e-01 4.515406e-01 4.126750e-01 3.688774e-01 3.219300e-01 2.733251e-01 2.255005e-01 1.796557e-01 1.375678e-01 9.903141e-02 6.400793e-02 3.105706e-02 2.059655e-02 5.657116e-02 1.105428e-01 1.618560e-01 2.096945e-01 2.553188e-01 2.995271e-01 3.428774e-01 3.854704e-01 4.266671e-01 4.654678e-01 5.003613e-01 5.297896e-01 5.521736e-01 5.662224e-01 
5.695073e-01 5.645855e-01 5.503164e-01 5.276777e-01 4.979613e-01 4.628823e-01 4.239758e-01 3.829900e-01 3.408372e-01 2.985443e-01 2.557296e-01 2.124568e-01 1.670739e-01 1.194548e-01 6.795397e-02 2.526280e-02 2.414159e-02 5.562298e-02 8.959088e-02 1.278600e-01 1.689072e-01 2.144326e-01 2.619990e-01 3.111496e-01 3.590215e-01 4.043161e-01 4.448876e-01 4.798799e-01 5.084624e-01 5.305609e-01 5.462156e-01 5.556816e-01 5.591512e-01 5.567132e-01 5.483317e-01 5.338468e-01 5.130302e-01 4.857968e-01 4.521909e-01 4.128519e-01 3.685981e-01 3.212617e-01 2.723651e-01 2.243732e-01 1.785520e-01 1.366025e-01 9.850676e-02 6.377787e-02 3.148281e-02 1.993755e-02 5.420266e-02 1.070880e-01 1.582433e-01 2.059119e-01 2.516332e-01 2.959849e-01 3.395837e-01 3.824583e-01 4.239670e-01 4.630764e-01 4.982590e-01 5.279355e-01 5.505090e-01 5.646727e-01 
5.710297e-01 5.661755e-01 5.520652e-01 5.296636e-01 5.002526e-01 4.655235e-01 4.269998e-01 3.863924e-01 3.445998e-01 3.025887e-01 2.599519e-01 2.166735e-01 1.710617e-01 1.229938e-01 7.058474e-02 2.642466e-02 2.389472e-02 5.529779e-02 8.962268e-02 1.283274e-01 1.696559e-01 2.152786e-01 2.628020e-01 3.117362e-01 3.592967e-01 4.041813e-01 4.443092e-01 4.788454e-01 5.070059e-01 5.287367e-01 5.441015e-01 5.533802e-01 5.567756e-01 5.543855e-01 5.461676e-01 5.319543e-01 5.114950e-01 4.846825e-01 4.515406e-01 4.126750e-01 3.688774e-01 3.219300e-01 2.733251e-01 2.255005e-01 1.796557e-01 1.375678e-01 9.903141e-02 6.400793e-02 3.105706e-02 2.059655e-02 5.657116e-02 1.105428e-01 1.618560e-01 2.096945e-01 2.553188e-01 2.995271e-01 3.428774e-01 3.854704e-01 4.266671e-01 4.654678e-01 5.003613e-01 5.297896e-01 5.521736e-01 5.662224e-01 
5.755285e-01 5.708752e-01 5.572298e-01 5.355200e-01 5.070002e-01 4.732905e-01 4.358833e-01 3.963773e-01 3.556360e-01 3.144428e-01 2.723322e-01 2.290429e-01 1.828260e-01 1.334848e-01 7.870533e-02 3.023901e-02 2.316603e-02 5.424961e-02 8.975571e-02 1.296323e-01 1.717292e-01 2.175452e-01 2.648926e-01 3.131595e-01 3.597986e-01 4.034836e-01 4.423283e-01 4.755495e-01 5.024835e-01 5.231446e-01 5.376692e-01 5.464052e-01 5.495870e-01 5.473367e-01 5.395954e-01 5.261716e-01 5.067523e-01 4.811659e-01 4.493671e-01 4.118712e-01 3.693978e-01 3.235925e-01 2.758671e-01 2.285727e-01 1.827403e-01 1.402762e-01 1.005202e-01 6.458680e-02 3.007799e-02 2.273264e-02 6.314647e-02 1.199761e-01 1.719624e-01 2.204418e-01 2.659370e-01 3.098047e-01 3.524880e-01 3.942808e-01 4.345844e-01 4.724888e-01 5.065440e-01 5.352494e-01 5.570832e-01 5.707982e-01 