# vtk DataFile Version 2.0
Comment goes here
ASCII

DATASET STRUCTURED_POINTS
FIELD FieldData 1
TIME 1 1 double
0.60000000
DIMENSIONS    64   64   1

ORIGIN    0.000   0.000   0.000
SPACING   0.015625 0.015625   1.000

POINT_DATA   4096
SCALARS Omega double
LOOKUP_TABLE default

5.520742e-14 1.105413e-13 1.599104e-13 2.023490e-13 2.584397e-13 2.883768e-13 2.989894e-13 3.125721e-13 3.370748e-13 3.479108e-13 3.639664e-13 3.590011e-13 3.691774e-13 3.461853e-13 3.461417e-13 3.794800e-13 3.783603e-13 3.978248e-13 4.203918e-13 4.314963e-13 4.298559e-13 4.745967e-13 5.026585e-13 5.387968e-13 5.567695e-13 5.681504e-13 5.700701e-13 5.030234e-13 4.174417e-13 3.119936e-13 1.638368e-13 2.140157e-14 -1.344194e-13 -2.776031e-13 -3.961462e-13 -4.875578e-13 -5.494083e-13 -5.863275e-13 -5.841936e-13 -5.909284e-13 -5.964426e-13 -5.550560e-13 -5.327487e-13 -5.119686e-13 -4.779062e-13 -4.723622e-13 -4.922830e-13 -5.254430e-13 -5.514256e-13 -5.502596e-13 -5.446298e-13 -5.457529e-13 -5.076046e-13 -4.829799e-13 -4.464773e-13 -3.923851e-13 -3.578816e-13 -3.120492e-13 -2.535325e-13 -1.744017e-13 -1.213944e-13 -7.778703e-14 -2.901253e-14 1.829574e-14 
-5.427521e-05 4.310095e-03 8.849266e-03 1.372534e-02 1.906476e-02 2.495013e-02 3.139883e-02 3.836213e-02 4.570811e-02 5.322478e-02 6.060863e-02 6.746246e-02 7.328767e-02 7.747227e-02 7.929744e-02 7.794103e-02 7.253790e-02 6.225718e-02 4.645392e-02 2.484602e-02 -2.296199e-03 -3.397015e-02 -6.838489e-02 -1.029688e-01 -1.345694e-01 -1.597672e-01 -1.752194e-01 -1.782391e-01 -1.671171e-01 -1.415560e-01 -1.030066e-01 -5.442095e-02 -4.162680e-04 5.362860e-02 1.023463e-01 1.411008e-01 1.668261e-01 1.781284e-01 1.751629e-01 1.597456e-01 1.345219e-01 1.028731e-01 6.824240e-02 3.378067e-02 2.073648e-03 -2.508590e-02 -4.670669e-02 -6.250641e-02 -7.278720e-02 -7.818064e-02 -7.953313e-02 -7.770021e-02 -7.351177e-02 -6.768095e-02 -6.082202e-02 -5.343079e-02 -4.590478e-02 -3.854697e-02 -3.156986e-02 -2.510628e-02 -1.920616e-02 -1.385345e-02 -8.966891e-03 -4.420914e-03 
-1.124985e-04 8.874216e-03 1.819995e-02 2.817771e-02 3.904825e-02 5.096452e-02 6.395010e-02 7.789973e-02 9.254788e-02 1.074765e-01 1.220942e-01 1.356286e-01 1.471097e-01 1.553369e-01 1.588877e-01 1.561153e-01 1.452678e-01 1.246371e-01 9.286956e-02 4.931303e-02 -5.581469e-03 -6.992279e-02 -1.402093e-01 -2.113750e-01 -2.770808e-01 -3.303418e-01 -3.641154e-01 -3.724813e-01 -3.513753e-01 -2.994850e-01 -2.191955e-01 -1.164723e-01 -1.389107e-03 1.138515e-01 2.170381e-01 2.980080e-01 3.505016e-01 3.721721e-01 3.640404e-01 3.304040e-01 2.771071e-01 2.112918e-01 1.400058e-01 6.959522e-02 5.161889e-03 -4.978564e-02 -9.338017e-02 -1.251461e-01 -1.457786e-01 -1.566054e-01 -1.593671e-01 -1.557977e-01 -1.475601e-01 -1.360659e-01 -1.225204e-01 -1.078882e-01 -9.294181e-02 -7.827137e-02 -6.429559e-02 -5.128168e-02 -3.933706e-02 -2.844083e-02 -1.844267e-02 -9.103651e-03 
-1.787129e-04 1.392956e-02 2.851835e-02 4.402800e-02 6.078913e-02 7.900180e-02 9.867604e-02 1.196394e-01 1.414944e-01 1.636366e-01 1.852218e-01 2.051525e-01 2.220388e-01 2.341334e-01 2.393248e-01 2.351139e-01 2.187825e-01 1.876072e-01 1.393275e-01 7.267456e-02 -1.203063e-02 -1.123117e-01 -2.232939e-01 -3.375608e-01 -4.455588e-01 -5.361217e-01 -5.972700e-01 -6.179437e-01 -5.893981e-01 -5.074939e-01 -3.747385e-01 -2.007426e-01 -3.597231e-03 1.939619e-01 3.692142e-01 5.037926e-01 5.873537e-01 6.173406e-01 5.973712e-01 5.366017e-01 4.460495e-01 3.378432e-01 2.233086e-01 1.120450e-01 1.153199e-02 -7.331773e-02 -1.400776e-01 -1.883812e-01 -2.195725e-01 -2.358752e-01 -2.400656e-01 -2.348400e-01 -2.227223e-01 -2.058115e-01 -1.858609e-01 -1.642536e-01 -1.420864e-01 -1.202011e-01 -9.920213e-02 -7.948902e-02 -6.123695e-02 -4.443969e-02 -2.890111e-02 -1.429333e-02 
-2.557481e-04 1.967701e-02 4.019431e-02 6.182631e-02 8.495686e-02 1.098018e-01 1.363355e-01 1.643132e-01 1.932230e-01 2.223164e-01 2.505635e-01 2.766176e-01 2.987395e-01 3.146675e-01 3.215719e-01 3.159764e-01 2.939614e-01 2.514210e-01 1.846982e-01 9.126897e-02 -2.937582e-02 -1.749726e-01 -3.398601e-01 -5.146177e-01 -6.859640e-01 -8.369917e-01 -9.476641e-01 -9.971899e-01 -9.675137e-01 -8.465598e-01 -6.337610e-01 -3.435917e-01 -8.261276e-03 3.281425e-01 6.214721e-01 8.386313e-01 9.636821e-01 9.964246e-01 9.485597e-01 8.387689e-01 6.878512e-01 5.160922e-01 3.407379e-01 1.752192e-01 2.908128e-02 -9.192464e-02 -1.856194e-01 -2.524454e-01 -2.950456e-01 -3.170353e-01 -3.226005e-01 -3.156404e-01 -2.996680e-01 -2.775026e-01 -2.514147e-01 -2.231361e-01 -1.940112e-01 -1.650661e-01 -1.370475e-01 -1.104689e-01 -8.557761e-02 -6.240388e-02 -4.073681e-02 -2.019629e-02 
-3.464890e-04 2.626803e-02 5.351616e-02 8.196474e-02 1.120036e-01 1.438294e-01 1.773652e-01 2.123069e-01 2.480734e-01 2.838518e-01 3.185255e-01 3.505967e-01 3.780334e-01 3.980310e-01 4.068762e-01 3.997678e-01 3.710175e-01 3.143201e-01 2.235395e-01 9.358522e-02 -7.840652e-02 -2.918137e-01 -5.413944e-01 -8.158413e-01 -1.097001e+00 -1.358308e+00 -1.565269e+00 -1.677105e+00 -1.654947e+00 -1.468750e+00 -1.111833e+00 -6.081913e-01 -1.689855e-02 5.765933e-01 1.087211e+00 1.453649e+00 1.648586e+00 1.676497e+00 1.568152e+00 1.363099e+00 1.102306e+00 8.203913e-01 5.446286e-01 2.936923e-01 7.906021e-02 -9.378084e-02 -2.243707e-01 -3.154728e-01 -3.723595e-01 -4.011361e-01 -4.082214e-01 -3.993013e-01 -3.792293e-01 -3.517202e-01 -3.195916e-01 -2.848717e-01 -2.490536e-01 -2.132491e-01 -1.782660e-01 -1.446853e-01 -1.128122e-01 -8.272835e-02 -5.424256e-02 -2.696940e-02 
-4.514070e-04 3.378434e-02 6.862864e-02 1.046169e-01 1.420894e-01 1.811941e-01 2.218040e-01 2.636005e-01 3.060202e-01 3.483050e-01 3.893765e-01 4.276669e-01 4.608271e-01 4.852980e-01 4.960086e-01 4.860162e-01 4.466485e-01 3.677421e-01 2.385991e-01 4.909388e-02 -2.084911e-01 -5.374693e-01 -9.340025e-01 -1.384278e+00 -1.861423e+00 -2.322090e+00 -2.705934e+00 -2.934818e+00 -2.932415e+00 -2.627410e+00 -2.002728e+00 -1.102560e+00 -3.199378e-02 1.042904e+00 1.957411e+00 2.600845e+00 2.923189e+00 2.934065e+00 2.711661e+00 2.332823e+00 1.874040e+00 1.395541e+00 9.424597e-01 5.431103e-01 2.115765e-01 -4.783158e-02 -2.387214e-01 -3.686712e-01 -4.480776e-01 -4.876350e-01 -4.976708e-01 -4.868907e-01 -4.623169e-01 -4.290464e-01 -3.906629e-01 -3.495210e-01 -3.071836e-01 -2.647238e-01 -2.228896e-01 -1.822417e-01 -1.430966e-01 -1.055844e-01 -6.956247e-02 -3.469494e-02 
-5.705445e-04 4.223631e-02 8.553458e-02 1.297470e-01 1.751082e-01 2.216997e-01 2.693767e-01 3.178920e-01 3.668306e-01 4.156359e-01 4.633749e-01 5.083948e-01 5.477862e-01 5.766423e-01 5.874761e-01 5.695717e-01 5.090099e-01 3.888735e-01 1.904905e-01 -1.048112e-01 -5.127168e-01 -1.041882e+00 -1.689030e+00 -2.433299e+00 -3.231386e+00 -4.012620e+00 -4.680896e+00 -5.104642e+00 -5.139429e+00 -4.616263e+00 -3.522627e+00 -1.941003e+00 -5.583844e-02 1.835536e+00 3.443274e+00 4.571841e+00 5.125257e+00 5.098935e+00 4.687684e+00 4.034344e+00 3.258966e+00 2.458058e+00 1.707586e+00 1.054939e+00 5.208945e-01 1.094584e-01 -1.885888e-01 -3.887495e-01 -5.100469e-01 -5.712077e-01 -5.893674e-01 -5.785496e-01 -5.495911e-01 -5.100544e-01 -4.648941e-01 -4.170473e-01 -3.681667e-01 -3.191824e-01 -2.706357e-01 -2.229346e-01 -1.763185e-01 -1.309323e-01 -8.669748e-02 -4.338280e-02 
-7.005401e-04 5.155058e-02 1.040703e-01 1.570820e-01 2.106638e-01 2.648392e-01 3.195124e-01 3.746392e-01 4.301092e-01 4.856997e-01 5.406242e-01 5.928885e-01 6.383407e-01 6.694555e-01 6.743124e-01 6.355834e-01 5.304500e-01 3.310510e-01 6.593216e-03 -4.732116e-01 -1.132285e+00 -1.981075e+00 -3.007988e+00 -4.174522e+00 -5.410605e+00 -6.611012e+00 -7.655976e+00 -8.386348e+00 -8.514356e+00 -7.586546e+00 -5.724141e+00 -3.120937e+00 -8.784029e-02 2.949939e+00 5.593842e+00 7.512783e+00 8.492389e+00 8.359147e+00 7.648894e+00 6.656521e+00 5.470572e+00 4.223933e+00 3.042962e+00 2.006001e+00 1.149167e+00 4.842341e-01 -3.772420e-04 -3.282587e-01 -5.300552e-01 -6.366353e-01 -6.761310e-01 -6.715590e-01 -6.404364e-01 -5.948400e-01 -5.423903e-01 -4.873091e-01 -4.316071e-01 -3.760776e-01 -3.209245e-01 -2.662462e-01 -2.120711e-01 -1.584894e-01 -1.054756e-01 -5.295251e-02 
-8.370319e-04 6.159362e-02 1.239607e-01 1.862038e-01 2.482118e-01 3.099863e-01 3.715874e-01 4.333261e-01 4.955384e-01 5.583563e-01 6.208905e-01 6.800787e-01 7.291145e-01 7.555384e-01 7.396861e-01 6.533577e-01 4.600778e-01 1.167743e-01 -4.215504e-01 -1.193888e+00 -2.222652e+00 -3.500890e+00 -4.986569e+00 -6.604676e+00 -8.259742e+00 -9.821077e+00 -1.108427e+01 -1.213855e+01 -1.270025e+01 -1.135004e+01 -8.599924e+00 -4.565435e+00 -1.214413e-01 4.303503e+00 8.399738e+00 1.124418e+01 1.267126e+01 1.205325e+01 1.103336e+01 9.946302e+00 8.392673e+00 6.689058e+00 5.037323e+00 3.537023e+00 2.249887e+00 1.214172e+00 4.351056e-01 -1.087995e-01 -4.564203e-01 -6.526414e-01 -7.407490e-01 -7.574986e-01 -7.313658e-01 -6.822886e-01 -6.229059e-01 -5.601665e-01 -4.971886e-01 -4.348905e-01 -3.731250e-01 -3.115397e-01 -2.497984e-01 -1.878260e-01 -1.256115e-01 -6.326135e-02 
-9.718855e-04 7.217952e-02 1.448344e-01 2.165813e-01 2.871087e-01 3.564660e-01 4.249889e-01 4.934828e-01 5.627591e-01 6.330853e-01 7.027516e-01 7.661768e-01 8.114391e-01 8.175719e-01 7.525526e-01 5.723817e-01 2.230566e-01 -3.536254e-01 -1.208939e+00 -2.370487e+00 -3.823231e+00 -5.496960e+00 -7.269257e+00 -9.015799e+00 -1.067280e+01 -1.214664e+01 -1.288021e+01 -1.441771e+01 -1.671003e+01 -1.480676e+01 -1.117248e+01 -5.119580e+00 -1.442134e-01 4.730684e+00 1.092260e+01 1.468747e+01 1.676732e+01 1.430448e+01 1.270128e+01 1.252602e+01 1.095297e+01 9.121809e+00 7.307570e+00 5.526588e+00 3.854838e+00 2.400490e+00 1.232714e+00 3.700495e-01 -2.134014e-01 -5.679150e-01 -7.515973e-01 -8.186723e-01 -8.134961e-01 -7.685054e-01 -7.049767e-01 -6.350891e-01 -5.645523e-01 -4.951515e-01 -4.266198e-01 -3.581305e-01 -2.888433e-01 -2.183959e-01 -1.467177e-01 -7.410716e-02 
-1.096077e-03 8.312563e-02 1.663424e-01 2.477500e-01 3.268553e-01 4.038362e-01 4.794090e-01 5.549069e-01 6.314253e-01 7.087087e-01 7.828335e-01 8.432620e-01 8.693355e-01 8.268705e-01 6.665292e-01 3.251877e-01 -2.667418e-01 -1.169637e+00 -2.410765e+00 -3.952550e+00 -5.671707e+00 -7.355633e+00 -8.759285e+00 -9.707056e+00 -1.055831e+01 -1.207353e+01 -9.103115e+00 2.254323e+00 1.665769e+01 2.794763e+01 2.547127e+01 1.469409e+01 3.063605e-01 -1.437242e+01 -2.525461e+01 -2.850200e+01 -1.688513e+01 -2.294465e+00 9.194693e+00 1.331551e+01 1.109791e+01 9.727685e+00 8.674674e+00 7.313774e+00 5.679273e+00 3.983108e+00 2.443819e+00 1.196808e+00 2.853595e-01 -3.143395e-01 -6.616484e-01 -8.258910e-01 -8.705168e-01 -8.453769e-01 -7.851334e-01 -7.108593e-01 -6.333405e-01 -5.566551e-01 -4.810972e-01 -4.055684e-01 -3.286944e-01 -2.497188e-01 -1.684279e-01 -8.528935e-02 
-1.197382e-03 9.428194e-02 1.882117e-01 2.793912e-01 3.671808e-01 4.519590e-01 5.348336e-01 6.175077e-01 7.007765e-01 7.826141e-01 8.546240e-01 8.978940e-01 8.785220e-01 7.444555e-01 4.262546e-01 -1.547005e-01 -1.067165e+00 -2.334820e+00 -3.892262e+00 -5.540697e+00 -6.939754e+00 -7.678163e+00 -7.364609e+00 -5.754819e+00 -2.000726e+00 1.380997e+01 3.758723e+01 4.688516e+01 3.948436e+01 2.609315e+01 1.331203e+01 4.994877e+00 2.430712e-01 -4.874525e+00 -1.271940e+01 -2.626038e+01 -3.949926e+01 -4.726006e+01 -3.825117e+01 -1.316428e+01 2.206175e+00 5.604268e+00 6.970911e+00 7.448703e+00 6.873009e+00 5.552915e+00 3.928014e+00 2.372307e+00 1.096744e+00 1.746369e-01 -4.150853e-01 -7.396661e-01 -8.777380e-01 -8.991890e-01 -8.567063e-01 -7.847890e-01 -7.027638e-01 -6.193031e-01 -5.365408e-01 -4.537104e-01 -3.690697e-01 -2.814594e-01 -1.904481e-01 -9.663439e-02 
-1.263917e-03 1.056039e-01 2.103931e-01 3.115378e-01 4.082934e-01 5.012433e-01 5.917388e-01 6.813693e-01 7.695519e-01 8.505270e-01 9.083817e-01 9.117662e-01 8.092786e-01 5.286371e-01 -1.585088e-02 -9.008402e-01 -2.152946e+00 -3.682272e+00 -5.215214e+00 -6.251071e+00 -6.134687e+00 -4.286666e+00 -4.680236e-01 1.156543e+01 3.253879e+01 4.675739e+01 3.780676e+01 1.374459e+01 -3.071622e+00 -1.301401e+01 -1.575301e+01 -1.021796e+01 -1.532539e-01 9.518542e+00 1.576218e+01 1.308879e+01 3.272734e+00 -1.363929e+01 -3.842984e+01 -4.715803e+01 -3.343360e+01 -1.289022e+01 -6.184373e-01 3.672662e+00 5.930445e+00 6.221426e+00 5.239520e+00 3.723479e+00 2.192036e+00 9.311902e-01 3.542894e-02 -5.180595e-01 -8.050763e-01 -9.113180e-01 -9.097355e-01 -8.524753e-01 -7.714977e-01 -6.831531e-01 -5.934166e-01 -5.029585e-01 -4.101675e-01 -3.136355e-01 -2.127094e-01 -1.080749e-01 
-1.281752e-03 1.171836e-01 2.331126e-01 3.446394e-01 4.509273e-01 5.526587e-01 6.510253e-01 7.466283e-01 8.358572e-01 9.066561e-01 9.321050e-01 8.647205e-01 6.334834e-01 1.494764e-01 -6.734808e-01 -1.870662e+00 -3.352633e+00 -4.794356e+00 -5.556251e+00 -4.691656e+00 -1.229907e+00 4.980161e+00 1.795901e+01 3.747843e+01 3.860816e+01 1.427366e+01 -9.762717e+00 -2.076291e+01 -1.280965e+01 4.331787e-02 3.953187e+00 2.748514e+00 -4.517027e-02 -3.113993e+00 -4.142614e+00 9.471126e-04 1.228956e+01 2.110652e+01 9.904638e+00 -1.405857e+01 -3.813037e+01 -3.798862e+01 -1.886859e+01 -6.062653e+00 8.978450e-01 4.631311e+00 5.553960e+00 4.824799e+00 3.393872e+00 1.909492e+00 7.022534e-01 -1.314207e-01 -6.242357e-01 -8.613157e-01 -9.319647e-01 -9.079543e-01 -8.375505e-01 -7.482958e-01 -6.526067e-01 -5.542735e-01 -4.527121e-01 -3.466813e-01 -2.354160e-01 -1.196769e-01 
-1.238883e-03 1.293030e-01 2.569769e-01 3.796979e-01 4.964963e-01 6.078751e-01 7.141664e-01 8.136756e-01 8.976568e-01 9.448887e-01 9.143098e-01 7.404024e-01 3.350861e-01 -3.942762e-01 -1.502061e+00 -2.918405e+00 -4.329018e+00 -5.017801e+00 -3.803453e+00 7.778847e-01 8.947409e+00 2.072476e+01 3.236674e+01 2.810196e+01 3.117561e+00 -1.279187e+01 -3.646830e+00 3.964147e+00 4.570347e+00 5.556954e+00 4.240960e+00 2.441375e+00 -2.764145e-02 -2.549392e+00 -4.198181e+00 -5.213629e+00 -4.966313e+00 -3.554191e+00 3.716620e+00 1.258176e+01 -2.334787e+00 -2.720769e+01 -3.203249e+01 -2.126803e+01 -8.943935e+00 -7.698373e-01 3.749519e+00 5.007753e+00 4.356131e+00 2.958573e+00 1.538214e+00 4.204112e-01 -3.194121e-01 -7.327117e-01 -9.116947e-01 -9.449213e-01 -8.987547e-01 -8.150463e-01 -7.155464e-01 -6.093062e-01 -4.981043e-01 -3.815841e-01 -2.591559e-01 -1.316998e-01 
-1.121686e-03 1.424340e-01 2.829652e-01 4.182542e-01 5.470785e-01 6.692933e-01 7.833688e-01 8.836742e-01 9.539975e-01 9.613661e-01 8.487756e-01 5.341830e-01 -7.836413e-02 -1.060623e+00 -2.386358e+00 -3.792996e+00 -4.611324e+00 -3.561828e+00 1.191202e+00 1.095362e+01 2.186722e+01 2.731330e+01 2.193262e+01 4.661066e+00 -6.055353e+00 -1.266270e+00 4.670303e+00 5.531019e+00 4.893022e+00 4.657453e+00 3.628927e+00 2.038358e+00 1.045933e-02 -2.019464e+00 -3.560809e+00 -4.541918e+00 -4.874971e+00 -4.907967e+00 -4.369195e+00 9.099860e-01 5.431462e+00 -4.718191e+00 -2.172331e+01 -2.741645e+01 -2.123316e+01 -1.067635e+01 -1.411920e+00 3.448420e+00 4.594965e+00 3.820581e+00 2.424452e+00 1.093687e+00 1.012220e-01 -5.209499e-01 -8.425606e-01 -9.593368e-01 -9.540118e-01 -8.844727e-01 -7.843879e-01 -6.704277e-01 -5.484022e-01 -4.198658e-01 -2.848857e-01 -1.445895e-01 
-9.183129e-04 1.572315e-01 3.124187e-01 4.623750e-01 6.054192e-01 7.401055e-01 8.618019e-01 9.591260e-01 1.006215e+00 9.566377e-01 7.378983e-01 2.573362e-01 -5.722328e-01 -1.766597e+00 -3.156049e+00 -4.189693e+00 -3.707469e+00 2.667130e-01 1.014730e+01 2.067267e+01 2.090649e+01 1.731600e+01 9.609912e+00 -7.809041e-01 -2.077567e+00 7.391341e-01 3.319313e+00 4.489407e+00 4.611050e+00 4.204641e+00 3.211628e+00 1.765248e+00 3.136259e-02 -1.700516e+00 -3.132420e+00 -4.114795e+00 -4.538736e+00 -4.315794e+00 -3.217413e+00 -6.518341e-01 1.915872e+00 1.025953e+00 -9.553401e+00 -1.808148e+01 -2.078152e+01 -2.075359e+01 -1.088985e+01 -5.750164e-01 3.611737e+00 4.186028e+00 3.186990e+00 1.803210e+00 6.019304e-01 -2.376943e-01 -7.269792e-01 -9.516300e-01 -1.004516e+00 -9.589619e-01 -8.622222e-01 -7.407803e-01 -6.063187e-01 -4.635682e-01 -3.139240e-01 -1.589779e-01 
-6.136984e-04 1.744706e-01 3.469231e-01 5.145063e-01 6.748234e-01 8.243456e-01 9.540062e-01 1.044938e+00 1.059995e+00 9.390241e-01 5.971918e-01 -5.847007e-02 -1.084038e+00 -2.397415e+00 -3.621541e+00 -3.828848e+00 -1.295607e+00 6.737085e+00 1.961925e+01 1.917279e+01 1.373670e+01 1.577631e+01 6.046962e+00 -4.305712e+00 -2.696921e+00 6.776417e-01 2.896341e+00 3.972610e+00 4.158956e+00 3.717629e+00 2.786046e+00 1.507771e+00 3.667323e-02 -1.432658e+00 -2.705945e+00 -3.637639e+00 -4.090542e+00 -3.899081e+00 -2.848598e+00 -6.518059e-01 2.746085e+00 4.788837e+00 -5.300093e+00 -1.577780e+01 -1.396947e+01 -1.937734e+01 -2.014658e+01 -7.182704e+00 1.104328e+00 3.775101e+00 3.633627e+00 2.432164e+00 1.118998e+00 8.477642e-02 -5.806743e-01 -9.301196e-01 -1.055863e+00 -1.043317e+00 -9.534986e-01 -8.243280e-01 -6.751067e-01 -5.150974e-01 -3.478226e-01 -1.756092e-01 
-1.909108e-04 1.949423e-01 3.881054e-01 5.772036e-01 7.588535e-01 9.266282e-01 1.065733e+00 1.148359e+00 1.125202e+00 9.235729e-01 4.517483e-01 -3.706032e-01 -1.543653e+00 -2.846496e+00 -3.636600e+00 -2.562124e+00 2.574989e+00 1.436611e+01 1.887862e+01 1.127931e+01 1.616208e+01 1.313540e+01 -3.679371e+00 -5.580850e+00 -1.914432e+00 9.018064e-01 2.658457e+00 3.476297e+00 3.574392e+00 3.144336e+00 2.327735e+00 1.249347e+00 3.435247e-02 -1.179920e+00 -2.257501e+00 -3.077130e+00 -3.518820e+00 -3.435297e+00 -2.644706e+00 -9.260089e-01 1.846780e+00 5.512975e+00 3.785163e+00 -1.267378e+01 -1.654221e+01 -1.110282e+01 -1.823848e+01 -1.486081e+01 -2.886544e+00 2.437514e+00 3.616993e+00 2.872537e+00 1.581206e+00 4.032043e-01 -4.289977e-01 -9.098758e-01 -1.117824e+00 -1.144652e+00 -1.063838e+00 -9.255770e-01 -7.582460e-01 -5.769482e-01 -3.881634e-01 -1.952378e-01 
3.715972e-04 2.192955e-01 4.373381e-01 6.527224e-01 8.608899e-01 1.051766e+00 1.203767e+00 1.279128e+00 1.216379e+00 9.328585e-01 3.367040e-01 -6.263239e-01 -1.879060e+00 -3.030318e+00 -3.141154e+00 -3.594520e-01 8.075422e+00 2.041854e+01 1.036720e+01 1.111484e+01 2.036498e+01 6.530748e-01 -9.345928e+00 -4.787775e+00 -1.353919e+00 9.590405e-01 2.306660e+00 2.896592e+00 2.926758e+00 2.547419e+00 1.872906e+00 1.001168e+00 2.877222e-02 -9.434478e-01 -1.815807e+00 -2.494382e+00 -2.884528e+00 -2.871179e+00 -2.307987e+00 -1.000747e+00 1.250032e+00 4.575427e+00 8.801713e+00 -2.692071e-01 -2.035322e+01 -1.179849e+01 -1.020899e+01 -2.055517e+01 -8.501814e+00 1.605749e-01 3.083442e+00 3.041780e+00 1.915907e+00 6.640212e-01 -3.075941e-01 -9.136606e-01 -1.204911e+00 -1.272566e+00 -1.199855e+00 -1.049183e+00 -8.589920e-01 -6.512841e-01 -4.362536e-01 -2.184639e-01 
1.099881e-03 2.477900e-01 4.952351e-01 7.422722e-01 9.831170e-01 1.203484e+00 1.374237e+00 1.447053e+00 1.348884e+00 9.900136e-01 2.848246e-01 -7.847820e-01 -2.051684e+00 -2.947413e+00 -2.247602e+00 2.372894e+00 1.453290e+01 1.599720e+01 5.987783e+00 1.862853e+01 1.541080e+01 -7.046373e+00 -7.430641e+00 -3.801830e+00 -1.013242e+00 8.104654e-01 1.835333e+00 2.268716e+00 2.275876e+00 1.973317e+00 1.447662e+00 7.728168e-01 2.236281e-02 -7.281940e-01 -1.404215e+00 -1.933724e+00 -2.245234e+00 -2.252521e+00 -1.841684e+00 -8.507023e-01 9.206764e-01 3.630886e+00 7.163674e+00 7.423336e+00 -1.410387e+01 -1.913164e+01 -6.244579e+00 -1.533465e+01 -1.516114e+01 -2.636322e+00 2.149974e+00 2.942187e+00 2.085881e+00 8.271362e-01 -2.488176e-01 -9.642546e-01 -1.332133e+00 -1.436530e+00 -1.367374e+00 -1.198622e+00 -9.793406e-01 -7.391836e-01 -4.926190e-01 -2.454863e-01 
2.013698e-03 2.800128e-01 5.610912e-01 8.451464e-01 1.125350e+00 1.382905e+00 1.580791e+00 1.659890e+00 1.536566e+00 1.116869e+00 3.262725e-01 -8.121792e-01 -2.039272e+00 -2.646731e+00 -1.186409e+00 4.671303e+00 1.610653e+01 5.275683e+00 1.066022e+01 2.209097e+01 1.471179e-01 -9.870007e+00 -6.348002e+00 -3.207635e+00 -9.447825e-01 4.955884e-01 1.298466e+00 1.645207e+00 1.669051e+00 1.457260e+00 1.074200e+00 5.750165e-01 1.671009e-02 -5.418461e-01 -1.042273e+00 -1.428643e+00 -1.647283e+00 -1.634574e+00 -1.305043e+00 -5.281858e-01 8.722121e-01 3.078748e+00 6.141663e+00 9.614101e+00 9.168703e-01 -2.229113e+01 -1.124025e+01 -4.643992e+00 -1.634071e+01 -4.867970e+00 1.056475e+00 2.620796e+00 2.068237e+00 8.590020e-01 -2.823007e-01 -1.082901e+00 -1.512756e+00 -1.643770e+00 -1.569603e+00 -1.374682e+00 -1.118873e+00 -8.397893e-01 -5.564662e-01 -2.758395e-01 
3.119793e-03 3.144989e-01 6.320685e-01 9.573957e-01 1.283021e+00 1.585727e+00 1.820697e+00 1.918109e+00 1.784710e+00 1.323996e+00 4.741177e-01 -7.017741e-01 -1.864866e+00 -2.201782e+00 -6.716107e-02 7.170757e+00 1.362169e+01 3.576570e+00 1.780536e+01 1.744563e+01 -9.551739e+00 -8.800952e+00 -5.560314e+00 -2.920656e+00 -1.068257e+00 9.824664e-02 7.614231e-01 1.072248e+00 1.134330e+00 1.013187e+00 7.570423e-01 4.082275e-01 1.200680e-02 -3.844983e-01 -7.344501e-01 -9.932304e-01 -1.119370e+00 -1.065397e+00 -7.670698e-01 -1.232338e-01 1.013344e+00 2.822475e+00 5.400667e+00 8.618118e+00 1.025286e+01 -1.673052e+01 -1.871942e+01 -4.129667e+00 -1.345170e+01 -7.591840e+00 -1.754141e-01 2.141525e+00 1.892525e+00 7.590562e-01 -4.169438e-01 -1.277665e+00 -1.750516e+00 -1.893776e+00 -1.803167e+00 -1.572643e+00 -1.272765e+00 -9.490078e-01 -6.248874e-01 -3.080314e-01 
4.380274e-03 3.483881e-01 7.024826e-01 1.070606e+00 1.445325e+00 1.799520e+00 2.081251e+00 2.210397e+00 2.085208e+00 1.606582e+00 7.243864e-01 -4.660108e-01 -1.571235e+00 -1.725575e+00 6.784241e-01 7.723014e+00 6.917894e+00 7.461360e+00 1.975202e+01 7.421449e+00 -1.109593e+01 -7.981470e+00 -5.031798e+00 -2.815255e+00 -1.277473e+00 -2.990526e-01 2.800536e-01 5.830066e-01 6.895519e-01 6.494953e-01 4.997436e-01 2.737358e-01 8.490830e-03 -2.570410e-01 -4.839759e-01 -6.357202e-01 -6.791863e-01 -5.781293e-01 -2.835525e-01 2.819198e-01 1.237930e+00 2.737425e+00 4.889071e+00 7.733852e+00 1.078532e+01 -6.469111e+00 -1.990485e+01 -7.806289e+00 -6.939023e+00 -9.043348e+00 -1.084767e+00 1.665475e+00 1.630071e+00 5.536161e-01 -6.418680e-01 -1.540267e+00 -2.035490e+00 -2.174240e+00 -2.054826e+00 -1.779801e+00 -1.430094e+00 -1.058404e+00 -6.922349e-01 -3.392669e-01 
5.692586e-03 3.772121e-01 7.632730e-01 1.170841e+00 1.593286e+00 2.000660e+00 2.335215e+00 2.507800e+00 2.409571e+00 1.938295e+00 1.052753e+00 -1.277608e-01 -1.172398e+00 -1.125293e+00 1.713419e+00 1.004844e+01 1.087158e+00 1.011102e+01 1.883470e+01 -3.032920e+00 -9.684375e+00 -7.052763e+00 -4.624914e+00 -2.777169e+00 -1.483785e+00 -6.369972e-01 -1.105357e-01 1.945250e-01 3.401206e-01 3.651159e-01 2.989084e-01 1.688472e-01 5.869039e-03 -1.573425e-01 -2.880664e-01 -3.556043e-01 -3.326317e-01 -1.901812e-01 1.102634e-01 6.286357e-01 1.460593e+00 2.721857e+00 4.498659e+00 6.735592e+00 8.828945e+00 3.159906e+00 -1.916206e+01 -1.030090e+01 -1.222731e+00 -1.119979e+01 -1.808845e+00 1.263016e+00 1.350256e+00 2.859186e-01 -9.245716e-01 -1.841095e+00 -2.337900e+00 -2.455807e+00 -2.297311e+00 -1.972658e+00 -1.572075e+00 -1.154247e+00 -7.496575e-01 -3.652843e-01 
6.879589e-03 3.949012e-01 8.019540e-01 1.238374e+00 1.699079e+00 2.152881e+00 2.538316e+00 2.759710e+00 2.703149e+00 2.262793e+00 1.401272e+00 2.467374e-01 -7.728815e-01 -6.598093e-01 2.270473e+00 1.031361e+01 1.651849e-01 1.307279e+01 1.633269e+01 -9.033941e+00 -8.109602e+00 -6.180126e+00 -4.262609e+00 -2.719736e+00 -1.619498e+00 -8.750198e-01 -3.901305e-01 -8.638396e-02 8.560332e-02 1.566520e-01 1.510006e-01 9.140764e-02 4.016517e-03 -8.354937e-02 -1.435454e-01 -1.499386e-01 -7.971629e-02 9.129389e-02 3.943391e-01 8.782937e-01 1.621689e+00 2.717556e+00 4.255371e+00 6.170824e+00 8.277803e+00 1.025797e+01 -1.617352e+01 -1.504190e+01 -7.352078e-01 -9.078583e+00 -1.270925e+00 1.223804e+00 1.147557e+00 1.529090e-02 -1.212109e+00 -2.126770e+00 -2.605292e+00 -2.689498e+00 -2.487628e+00 -2.115929e+00 -1.671630e+00 -1.217381e+00 -7.851182e-01 -3.803910e-01 
7.673069e-03 3.945200e-01 8.040503e-01 1.249675e+00 1.728377e+00 2.209694e+00 2.631572e+00 2.896113e+00 2.888182e+00 2.499607e+00 1.692633e+00 5.827263e-01 -4.521305e-01 -5.308856e-01 1.795208e+00 6.067858e+00 1.991034e+00 1.430551e+01 1.055206e+01 -1.078354e+01 -7.744412e+00 -5.607998e+00 -3.911844e+00 -2.588928e+00 -1.644921e+00 -9.928909e-01 -5.524635e-01 -2.618290e-01 -8.014677e-02 1.696350e-02 5.005028e-02 3.796659e-02 2.718708e-03 -3.263232e-02 -4.488188e-02 -1.201625e-02 8.524730e-02 2.677995e-01 5.612037e-01 1.007653e+00 1.672525e+00 2.641457e+00 4.016279e+00 5.826657e+00 8.268773e+00 1.203693e+01 -9.018188e+00 -1.587079e+01 -3.633241e+00 -4.761990e+00 -7.028109e-01 1.269966e+00 9.546162e-01 -2.359643e-01 -1.449724e+00 -2.328236e+00 -2.766564e+00 -2.809558e+00 -2.569665e+00 -2.165098e+00 -1.695809e+00 -1.225253e+00 -7.848628e-01 -3.782330e-01 
7.820971e-03 3.693161e-01 7.552042e-01 1.180815e+00 1.645227e+00 2.120889e+00 2.549138e+00 2.836280e+00 2.871905e+00 2.550722e+00 1.833141e+00 8.117569e-01 -2.059900e-01 -5.301797e-01 9.701393e-01 2.208006e+00 3.545844e+00 1.234924e+01 5.131097e+00 -8.906296e+00 -6.709659e+00 -4.847513e+00 -3.419665e+00 -2.322982e+00 -1.536280e+00 -9.844537e-01 -6.016806e-01 -3.402586e-01 -1.669514e-01 -6.271723e-02 -1.047568e-02 5.035789e-03 1.808793e-03 -1.463806e-03 1.405302e-02 6.643908e-02 1.714704e-01 3.468521e-01 6.132445e-01 1.006350e+00 1.579030e+00 2.405288e+00 3.574220e+00 5.127209e+00 7.178815e+00 9.520263e+00 -3.816737e+00 -1.318567e+01 -5.308010e+00 -1.772194e+00 -2.383307e-01 1.195415e+00 7.162655e-01 -4.399252e-01 -1.567492e+00 -2.362091e+00 -2.738006e+00 -2.741169e+00 -2.481463e+00 -2.072539e+00 -1.610358e+00 -1.155058e+00 -7.352948e-01 -3.526268e-01 
7.076480e-03 3.148795e-01 6.457884e-01 1.014950e+00 1.423061e+00 1.847472e+00 2.237783e+00 2.512427e+00 2.574625e+00 2.330577e+00 1.742525e+00 8.803583e-01 -1.263621e-02 -3.990871e-01 7.232450e-01 7.005852e-01 4.253050e+00 9.601527e+00 1.857774e+00 -6.285092e+00 -5.098167e+00 -3.805214e+00 -2.740336e+00 -1.903451e+00 -1.292430e+00 -8.573986e-01 -5.494769e-01 -3.345466e-01 -1.868593e-01 -9.242565e-02 -3.771942e-02 -1.114568e-02 1.180481e-03 1.350067e-02 4.017424e-02 9.520679e-02 1.906767e-01 3.408009e-01 5.611605e-01 8.801412e-01 1.336797e+00 1.987995e+00 2.894840e+00 4.074150e+00 5.533915e+00 6.957257e+00 -7.281413e-01 -1.014695e+01 -5.589164e+00 -5.794697e-01 -2.507956e-01 8.917347e-01 4.334701e-01 -5.517799e-01 -1.498378e+00 -2.153525e+00 -2.447651e+00 -2.421849e+00 -2.173378e+00 -1.801655e+00 -1.390296e+00 -9.910093e-01 -6.275143e-01 -2.997125e-01 
5.411043e-03 2.307936e-01 4.744171e-01 7.485924e-01 1.054679e+00 1.376636e+00 1.677229e+00 1.895695e+00 1.959159e+00 1.796489e+00 1.377826e+00 7.531336e-01 1.012069e-01 -1.885329e-01 6.655181e-01 1.470469e-01 3.296676e+00 6.242251e+00 3.257741e-01 -3.858231e+00 -3.345123e+00 -2.593001e+00 -1.907792e+00 -1.348983e+00 -9.322136e-01 -6.312234e-01 -4.151260e-01 -2.620973e-01 -1.547058e-01 -8.366286e-02 -3.959322e-02 -1.462835e-02 7.040454e-04 1.604867e-02 4.113018e-02 8.553330e-02 1.574898e-01 2.669459e-01 4.243953e-01 6.493478e-01 9.672132e-01 1.414797e+00 2.025646e+00 2.794055e+00 3.662868e+00 4.330816e+00 3.870437e-01 -6.672009e+00 -4.201392e+00 -1.572068e-01 -4.803756e-01 4.671960e-01 1.768643e-01 -5.175492e-01 -1.194821e+00 -1.660404e+00 -1.860192e+00 -1.824578e+00 -1.626535e+00 -1.340609e+00 -1.029026e+00 -7.299669e-01 -4.603120e-01 -2.191627e-01 
2.930975e-03 1.223388e-01 2.518536e-01 3.984065e-01 5.630160e-01 7.373643e-01 9.016256e-01 1.023225e+00 1.062839e+00 9.819200e-01 7.640618e-01 4.365771e-01 9.832171e-02 -3.270263e-02 5.138353e-01 9.905926e-02 1.745498e+00 3.128114e+00 1.090048e-01 -1.702110e+00 -1.619838e+00 -1.303425e+00 -9.761129e-01 -6.987197e-01 -4.878878e-01 -3.340189e-01 -2.225333e-01 -1.429664e-01 -8.648352e-02 -4.848798e-02 -2.413921e-02 -9.472556e-03 3.346171e-04 1.015281e-02 2.489379e-02 4.944411e-02 8.796310e-02 1.456029e-01 2.276024e-01 3.438965e-01 5.068050e-01 7.338847e-01 1.038164e+00 1.406887e+00 1.775598e+00 1.908403e+00 1.934743e-01 -3.325765e+00 -2.126239e+00 -1.748434e-01 -5.485223e-01 1.320054e-01 3.092859e-02 -3.171458e-01 -6.674798e-01 -9.085560e-01 -1.008835e+00 -9.841644e-01 -8.737030e-01 -7.175150e-01 -5.489135e-01 -3.882057e-01 -2.441668e-01 -1.160266e-01 
5.258810e-14 5.109236e-14 6.312405e-14 7.341595e-14 7.938354e-14 6.628262e-14 2.491936e-14 -2.729386e-14 -7.523304e-14 -1.192547e-13 -8.814990e-14 8.404776e-14 6.560116e-13 2.152071e-12 1.671889e-12 4.297141e-12 2.682282e-11 3.442977e-11 9.489489e-12 -5.405426e-12 -6.319077e-12 -5.606956e-12 -4.392421e-12 -3.241651e-12 -2.267031e-12 -1.541064e-12 -1.029558e-12 -6.771274e-13 -4.292368e-13 -2.568014e-13 -1.526185e-13 -1.081999e-13 -8.278076e-14 -7.447290e-14 -6.801810e-14 -5.317799e-14 -3.087833e-14 4.291637e-14 1.991199e-13 5.230952e-13 1.193335e-12 2.371082e-12 4.367373e-12 7.372709e-12 1.086000e-11 1.001290e-11 -9.265839e-12 -2.537020e-11 -9.183050e-12 1.410297e-12 -3.255953e-13 3.241863e-12 4.007016e-12 3.320175e-12 2.396919e-12 1.583800e-12 9.845232e-13 5.856204e-13 3.556169e-13 2.045485e-13 1.185964e-13 6.706376e-14 5.357719e-14 5.094979e-14 
-2.930975e-03 -1.223388e-01 -2.518536e-01 -3.984065e-01 -5.630160e-01 -7.373643e-01 -9.016256e-01 -1.023225e+00 -1.062839e+00 -9.819200e-01 -7.640618e-01 -4.365771e-01 -9.832171e-02 3.270263e-02 -5.138353e-01 -9.905926e-02 -1.745498e+00 -3.128114e+00 -1.090048e-01 1.702110e+00 1.619838e+00 1.303425e+00 9.761129e-01 6.987197e-01 4.878878e-01 3.340189e-01 2.225333e-01 1.429664e-01 8.648352e-02 4.848798e-02 2.413921e-02 9.472556e-03 -3.346171e-04 -1.015281e-02 -2.489379e-02 -4.944411e-02 -8.796310e-02 -1.456029e-01 -2.276024e-01 -3.438965e-01 -5.068050e-01 -7.338847e-01 -1.038164e+00 -1.406887e+00 -1.775598e+00 -1.908403e+00 -1.934743e-01 3.325765e+00 2.126239e+00 1.748434e-01 5.485223e-01 -1.320054e-01 -3.092859e-02 3.171458e-01 6.674798e-01 9.085560e-01 1.008835e+00 9.841644e-01 8.737030e-01 7.175150e-01 5.489135e-01 3.882057e-01 2.441668e-01 1.160266e-01 