# vtk DataFile Version 2.0
Comment goes here
ASCII

DATASET STRUCTURED_POINTS
FIELD FieldData 1
TIME 1 1 double
0.15000000
DIMENSIONS    64   64   1

ORIGIN    0.000   0.000   0.000
SPACING   0.015625 0.015625   1.000

POINT_DATA   4096
SCALARS Omega double
LOOKUP_TABLE default

1.418916e-13 1.496803e-13 1.571897e-13 1.809464e-13 1.668999e-13 1.586158e-13 1.368481e-13 9.662903e-14 6.250749e-14 5.482071e-14 2.460261e-14 1.261040e-14 -5.074413e-14 -6.559492e-14 -1.226820e-13 -1.503192e-13 -1.091230e-13 -1.324057e-13 -1.250947e-13 -5.431170e-14 4.730272e-15 4.371831e-14 1.139299e-14 5.175190e-14 5.089643e-14 1.403124e-14 1.014129e-14 1.206136e-14 -3.876688e-14 -3.187173e-14 -2.138126e-14 -2.061140e-14 -1.750201e-14 -4.731222e-15 -3.465929e-15 -1.928227e-14 -3.926486e-14 -1.273453e-14 -5.749988e-15 -1.585441e-15 5.090619e-15 3.008267e-14 3.051672e-14 -3.241660e-14 -7.409075e-14 -4.042610e-14 -2.311646e-14 -6.764696e-14 -1.097700e-13 -1.666282e-13 -1.579494e-13 -1.682466e-13 -1.186280e-13 -8.455084e-14 -1.075924e-14 2.526114e-14 4.575084e-14 9.314964e-14 1.374859e-13 1.683692e-13 1.741786e-13 1.647446e-13 1.574554e-13 1.427251e-13 
2.388775e-08 -1.900116e-06 -3.589201e-06 -5.515584e-06 -6.850150e-06 -8.677991e-06 -9.290234e-06 -1.066631e-05 -9.613053e-06 -8.679823e-06 -2.115866e-06 9.631505e-06 3.809022e-05 9.414004e-05 2.057681e-04 4.194619e-04 8.089889e-04 1.507795e-03 2.696372e-03 4.675380e-03 7.808156e-03 1.260111e-02 1.952490e-02 2.896280e-02 4.076728e-02 5.400911e-02 6.656214e-02 7.540793e-02 7.727666e-02 6.995852e-02 5.313512e-02 2.867900e-02 1.354865e-05 -2.865242e-02 -5.311378e-02 -6.994279e-02 -7.726453e-02 -7.540036e-02 -6.655300e-02 -5.400282e-02 -4.075898e-02 -2.895772e-02 -1.951987e-02 -1.259853e-02 -7.806439e-03 -4.674388e-03 -2.696233e-03 -1.507364e-03 -8.092456e-04 -4.192437e-04 -2.059891e-04 -9.406119e-05 -3.819505e-05 -9.647835e-06 2.097656e-06 8.615299e-06 9.639567e-06 1.058885e-05 9.333985e-06 8.605686e-06 6.898203e-06 5.453095e-06 3.637303e-06 1.844230e-06 
5.497402e-08 -3.796100e-06 -7.309393e-06 -1.107317e-05 -1.403025e-05 -1.749437e-05 -1.903113e-05 -2.113373e-05 -1.836539e-05 -1.323471e-05 6.377091e-06 4.535660e-05 1.333910e-04 3.074205e-04 6.461159e-04 1.280145e-03 2.411429e-03 4.382518e-03 7.648097e-03 1.291479e-02 2.100411e-02 3.298561e-02 4.977396e-02 7.198409e-02 9.900310e-02 1.284825e-01 1.555584e-01 1.736035e-01 1.757150e-01 1.575045e-01 1.187527e-01 6.380120e-02 3.010482e-05 -6.374223e-02 -1.187048e-01 -1.574682e-01 -1.756855e-01 -1.735827e-01 -1.555337e-01 -1.284639e-01 -9.898104e-02 -7.196990e-02 -4.976112e-02 -3.297883e-02 -2.099993e-02 -1.291249e-02 -7.647797e-03 -4.381638e-03 -2.411963e-03 -1.279679e-03 -6.464917e-04 -3.071913e-04 -1.334846e-04 -4.530078e-05 -6.293351e-06 1.319090e-05 1.851813e-05 2.104879e-05 1.918882e-05 1.739946e-05 1.416809e-05 1.097951e-05 7.427215e-06 3.704882e-06 
7.123313e-08 -5.816016e-06 -1.117610e-05 -1.689424e-05 -2.123561e-05 -2.618358e-05 -2.741522e-05 -2.832364e-05 -1.825349e-05 1.864261e-06 5.891050e-05 1.731407e-04 4.166840e-04 8.879100e-04 1.779430e-03 3.396947e-03 6.204749e-03 1.092658e-02 1.849919e-02 3.024655e-02 4.762109e-02 7.231449e-02 1.055550e-01 1.477817e-01 1.971868e-01 2.489480e-01 2.942166e-01 3.215975e-01 3.199031e-01 2.827389e-01 2.109359e-01 1.125743e-01 5.135359e-05 -1.124734e-01 -2.108528e-01 -2.826730e-01 -3.198452e-01 -3.215508e-01 -2.941615e-01 -2.489032e-01 -1.971384e-01 -1.477489e-01 -1.055276e-01 -7.229925e-02 -4.761218e-02 -3.024173e-02 -1.849831e-02 -1.092513e-02 -6.205630e-03 -3.396439e-03 -1.780130e-03 -8.878091e-04 -4.169534e-04 -1.732777e-04 -5.891122e-05 -2.107966e-06 1.836749e-05 2.806766e-05 2.756260e-05 2.595980e-05 2.138514e-05 1.670905e-05 1.132089e-05 5.654512e-06 
1.030085e-07 -7.768217e-06 -1.529252e-05 -2.254230e-05 -2.881188e-05 -3.391144e-05 -3.412213e-05 -2.797667e-05 -2.134066e-07 6.293565e-05 2.138681e-04 5.227129e-04 1.151262e-03 2.348615e-03 4.552197e-03 8.438729e-03 1.499650e-02 2.565285e-02 4.217454e-02 6.681215e-02 1.018176e-01 1.494181e-01 2.106996e-01 2.850281e-01 3.680565e-01 4.507736e-01 5.185004e-01 5.535173e-01 5.396840e-01 4.692110e-01 3.457160e-01 1.830435e-01 8.095548e-05 -1.828835e-01 -3.455805e-01 -4.690960e-01 -5.395743e-01 -5.534179e-01 -5.183862e-01 -4.506764e-01 -3.679595e-01 -2.849603e-01 -2.106466e-01 -1.493881e-01 -1.018012e-01 -6.680375e-02 -4.217312e-02 -2.565091e-02 -1.499789e-02 -8.438185e-03 -4.553046e-03 -2.348465e-03 -1.151347e-03 -5.227810e-04 -2.135784e-04 -6.311757e-05 5.952280e-07 2.776374e-05 3.446949e-05 3.370634e-05 2.909163e-05 2.235271e-05 1.551835e-05 7.588362e-06 
1.168852e-07 -9.916617e-06 -1.957899e-05 -2.829974e-05 -3.531787e-05 -3.837434e-05 -3.053934e-05 -2.950979e-06 7.719474e-05 2.544271e-04 6.482716e-04 1.440253e-03 2.999339e-03 5.897802e-03 1.108850e-02 1.997892e-02 3.454877e-02 5.744243e-02 9.175524e-02 1.409912e-01 2.082207e-01 2.957270e-01 4.034050e-01 5.278728e-01 6.600922e-01 7.843963e-01 8.779037e-01 9.148091e-01 8.736261e-01 7.465581e-01 5.428213e-01 2.849557e-01 1.194561e-04 -2.847162e-01 -5.426106e-01 -7.463637e-01 -8.734259e-01 -9.146124e-01 -8.776837e-01 -7.842056e-01 -6.599130e-01 -5.277449e-01 -4.033092e-01 -2.956710e-01 -2.081911e-01 -1.409763e-01 -9.175233e-02 -5.743992e-02 -3.455095e-02 -1.997905e-02 -1.109000e-02 -5.898339e-03 -2.999685e-03 -1.440847e-03 -6.481001e-04 -2.550091e-04 -7.689771e-05 2.450743e-06 3.083100e-05 3.798376e-05 3.558050e-05 2.800192e-05 1.982015e-05 9.669801e-06 
1.349019e-07 -1.173804e-05 -2.364429e-05 -3.225396e-05 -3.881249e-05 -3.250776e-05 -3.776150e-06 8.175419e-05 2.885886e-04 7.455913e-04 1.709810e-03 3.624279e-03 7.283593e-03 1.393812e-02 2.554504e-02 4.488602e-02 7.568685e-02 1.225600e-01 1.905154e-01 2.844757e-01 4.078579e-01 5.616939e-01 7.425554e-01 9.414737e-01 1.141566e+00 1.317389e+00 1.435362e+00 1.460240e+00 1.365781e+00 1.146915e+00 8.226782e-01 4.280666e-01 1.722709e-04 -4.277145e-01 -8.223524e-01 -1.146586e+00 -1.365423e+00 -1.459871e+00 -1.434966e+00 -1.317046e+00 -1.141261e+00 -9.412549e-01 -7.423967e-01 -5.615997e-01 -4.078101e-01 -2.844523e-01 -1.905110e-01 -1.225568e-01 -7.568993e-02 -4.488696e-02 -2.554689e-02 -1.393919e-02 -7.283581e-03 -3.624988e-03 -1.709098e-03 -7.461167e-04 -2.878444e-04 -8.216899e-05 4.360230e-06 3.217228e-05 3.923109e-05 3.196845e-05 2.395220e-05 1.147583e-05 
1.587305e-07 -1.354886e-05 -2.711382e-05 -3.370601e-05 -3.360538e-05 -3.260689e-06 8.364034e-05 3.087165e-04 8.229861e-04 1.927354e-03 4.191554e-03 8.590117e-03 1.679127e-02 3.134833e-02 5.608868e-02 9.618434e-02 1.582026e-01 2.496001e-01 3.777098e-01 5.484065e-01 7.639849e-01 1.021598e+00 1.311018e+00 1.613607e+00 1.900670e+00 2.133560e+00 2.265864e+00 2.252513e+00 2.064588e+00 1.704237e+00 1.206071e+00 6.220236e-01 2.429024e-04 -6.215120e-01 -1.205571e+00 -1.703689e+00 -2.063972e+00 -2.251866e+00 -2.265206e+00 -2.133005e+00 -1.900204e+00 -1.613272e+00 -1.310779e+00 -1.021451e+00 -7.639111e-01 -5.483697e-01 -3.777010e-01 -2.495949e-01 -1.582060e-01 -9.618718e-02 -5.609171e-02 -3.135136e-02 -1.679171e-02 -8.591957e-03 -4.191004e-03 -1.928551e-03 -8.223872e-04 -3.095445e-04 -8.316660e-05 2.698596e-06 3.398536e-05 3.332385e-05 2.744566e-05 1.325656e-05 
1.379507e-07 -1.407316e-05 -2.758836e-05 -2.568261e-05 -6.372349e-06 8.413064e-05 3.064535e-04 8.529103e-04 2.050272e-03 4.576334e-03 9.620396e-03 1.923313e-02 3.672773e-02 6.706474e-02 1.173007e-01 1.964811e-01 3.153471e-01 4.848688e-01 7.143524e-01 1.008807e+00 1.366180e+00 1.775244e+00 2.213873e+00 2.648642e+00 3.034890e+00 3.318052e+00 3.438367e+00 3.342762e+00 3.004203e+00 2.438591e+00 1.703034e+00 8.706705e-01 3.365046e-04 -8.699380e-01 -1.702275e+00 -2.437697e+00 -3.003189e+00 -3.341704e+00 -3.437364e+00 -3.317246e+00 -3.034262e+00 -2.648194e+00 -2.213557e+00 -1.775045e+00 -1.366084e+00 -1.008756e+00 -7.143367e-01 -4.848563e-01 -3.153461e-01 -1.964836e-01 -1.173032e-01 -6.706935e-02 -3.672763e-02 -1.923555e-02 -9.619043e-03 -4.577503e-03 -2.049035e-03 -8.535862e-04 -3.056102e-04 -8.459519e-05 6.897628e-06 2.531321e-05 2.792552e-05 1.374060e-05 
1.942047e-07 -1.289917e-05 -2.239129e-05 -3.588319e-07 6.829176e-05 2.921283e-04 8.212300e-04 2.061638e-03 4.727119e-03 1.022638e-02 2.099403e-02 4.109071e-02 7.686112e-02 1.374140e-01 2.350641e-01 3.845333e-01 6.018278e-01 9.009456e-01 1.290800e+00 1.771050e+00 2.329583e+00 2.940448e+00 3.563931e+00 4.147128e+00 4.626731e+00 4.931686e+00 4.991110e+00 4.748779e+00 4.186841e+00 3.343259e+00 2.304625e+00 1.168131e+00 4.402850e-04 -1.167121e+00 -2.303507e+00 -3.341850e+00 -4.185256e+00 -4.747176e+00 -4.989727e+00 -4.930678e+00 -4.626040e+00 -4.146657e+00 -3.563609e+00 -2.940241e+00 -2.329490e+00 -1.770998e+00 -1.290773e+00 -9.009148e-01 -6.018103e-01 -3.845302e-01 -2.350635e-01 -1.374208e-01 -7.686108e-02 -4.109491e-02 -2.099291e-02 -1.022849e-02 -4.726173e-03 -2.062826e-03 -8.205927e-04 -2.928174e-04 -6.781748e-05 -4.366894e-08 2.279798e-05 1.262782e-05 
9.666334e-08 -6.551610e-06 -2.057151e-06 6.678993e-05 2.470927e-04 7.584358e-04 1.936059e-03 4.622327e-03 1.028926e-02 2.178540e-02 4.387638e-02 8.433913e-02 1.547789e-01 2.711390e-01 4.535439e-01 7.239154e-01 1.103093e+00 1.604573e+00 2.230628e+00 2.967118e+00 3.783270e+00 4.631047e+00 5.448567e+00 6.161962e+00 6.691183e+00 6.953341e+00 6.873688e+00 6.401810e+00 5.538631e+00 4.352089e+00 2.962276e+00 1.489024e+00 5.190005e-04 -1.487735e+00 -2.960704e+00 -4.349966e+00 -5.536283e+00 -6.399550e+00 -6.871995e+00 -6.952320e+00 -6.690694e+00 -6.161707e+00 -5.448429e+00 -4.630974e+00 -3.783287e+00 -2.967123e+00 -2.230598e+00 -1.604498e+00 -1.103024e+00 -7.238843e-01 -4.535266e-01 -2.711431e-01 -1.547760e-01 -8.434395e-02 -4.387417e-02 -2.178741e-02 -1.028754e-02 -4.623215e-03 -1.935031e-03 -7.589686e-04 -2.465534e-04 -6.720854e-05 2.332389e-06 6.167213e-06 
2.204495e-07 9.171666e-06 4.655133e-05 2.134483e-04 6.302809e-04 1.728303e-03 4.231169e-03 9.814090e-03 2.146065e-02 4.471928e-02 8.874966e-02 1.679058e-01 3.027108e-01 5.195200e-01 8.487542e-01 1.318983e+00 1.951163e+00 2.748651e+00 3.694478e+00 4.747353e+00 5.848022e+00 6.921500e+00 7.884813e+00 8.648527e+00 9.125235e+00 9.232106e+00 8.904274e+00 8.110766e+00 6.881962e+00 5.320298e+00 3.576103e+00 1.783118e+00 5.461179e-04 -1.781564e+00 -3.573955e+00 -5.317202e+00 -6.878611e+00 -8.107759e+00 -8.902410e+00 -9.231400e+00 -9.125376e+00 -8.648928e+00 -7.885265e+00 -6.921918e+00 -5.848429e+00 -4.747604e+00 -3.694503e+00 -2.748507e+00 -1.950978e+00 -1.318874e+00 -8.486883e-01 -5.195082e-01 -3.027000e-01 -1.679108e-01 -8.874761e-02 -4.472249e-02 -2.145972e-02 -9.815592e-03 -4.230559e-03 -1.728996e-03 -6.297871e-04 -2.137579e-04 -4.609897e-05 -9.327960e-06 
-4.625734e-09 4.433128e-05 1.548643e-04 5.198009e-04 1.416973e-03 3.681224e-03 8.809169e-03 2.009631e-02 4.344601e-02 8.956409e-02 1.756780e-01 3.276837e-01 5.802947e-01 9.742064e-01 1.550143e+00 2.336840e+00 3.342035e+00 4.539458e+00 5.873039e+00 7.257390e+00 8.596654e+00 9.791386e+00 1.075078e+01 1.139021e+01 1.163816e+01 1.143398e+01 1.074075e+01 9.558968e+00 7.951921e+00 6.050102e+00 4.019011e+00 1.989465e+00 5.433941e-04 -1.987663e+00 -4.016176e+00 -6.045824e+00 -7.947378e+00 -9.555066e+00 -1.073877e+01 -1.143382e+01 -1.163938e+01 -1.139185e+01 -1.075239e+01 -9.792856e+00 -8.597933e+00 -7.258249e+00 -5.873272e+00 -4.539234e+00 -3.341615e+00 -2.336553e+00 -1.549956e+00 -9.741458e-01 -5.802614e-01 -3.276845e-01 -1.756746e-01 -8.956778e-02 -4.344503e-02 -2.009767e-02 -8.808456e-03 -3.681796e-03 -1.416647e-03 -5.202325e-04 -1.547938e-04 -4.475035e-05 
2.276018e-07 1.155237e-04 3.709309e-04 1.122521e-03 2.958568e-03 7.493984e-03 1.776213e-02 4.021059e-02 8.650258e-02 1.771036e-01 3.440421e-01 6.323834e-01 1.097509e+00 1.795320e+00 2.768919e+00 4.028018e+00 5.539377e+00 7.216028e+00 8.939509e+00 1.056992e+01 1.198326e+01 1.307722e+01 1.378096e+01 1.404287e+01 1.383607e+01 1.314907e+01 1.199370e+01 1.041037e+01 8.487596e+00 6.361584e+00 4.183830e+00 2.059390e+00 3.076565e-04 -2.057862e+00 -4.180721e+00 -6.356385e+00 -8.481832e+00 -1.040521e+01 -1.199101e+01 -1.314894e+01 -1.383806e+01 -1.404589e+01 -1.378423e+01 -1.308049e+01 -1.198627e+01 -1.057219e+01 -8.940342e+00 -7.215797e+00 -5.538547e+00 -4.027359e+00 -2.768459e+00 -1.795131e+00 -1.097418e+00 -6.323728e-01 -3.440408e-01 -1.771132e-01 -8.650656e-02 -4.021448e-02 -1.776296e-02 -7.494892e-03 -2.958335e-03 -1.122642e-03 -3.704999e-04 -1.154725e-04 
-1.809296e-07 2.514470e-04 7.902612e-04 2.276256e-03 5.931148e-03 1.487374e-02 3.523902e-02 7.974575e-02 1.714134e-01 3.491510e-01 6.707884e-01 1.210436e+00 2.047103e+00 3.241496e+00 4.812985e+00 6.712664e+00 8.824815e+00 1.097002e+01 1.295652e+01 1.459230e+01 1.574678e+01 1.636342e+01 1.645696e+01 1.606201e+01 1.522237e+01 1.397999e+01 1.238398e+01 1.049673e+01 8.404524e+00 6.223742e+00 4.065903e+00 1.993846e+00 -1.136574e-03 -1.995513e+00 -4.064158e+00 -6.218446e+00 -8.397817e+00 -1.048948e+01 -1.237918e+01 -1.397794e+01 -1.522315e+01 -1.606519e+01 -1.646158e+01 -1.636860e+01 -1.575193e+01 -1.459679e+01 -1.295861e+01 -1.097012e+01 -8.823495e+00 -6.711433e+00 -4.812040e+00 -3.241058e+00 -2.046897e+00 -1.210404e+00 -6.707960e-01 -3.491783e-01 -1.714301e-01 -7.975664e-02 -3.524339e-02 -1.487603e-02 -5.932012e-03 -2.276918e-03 -7.906606e-04 -2.519211e-04 
1.615082e-07 5.042270e-04 1.571553e-03 4.452333e-03 1.161421e-02 2.920340e-02 6.966326e-02 1.583044e-01 3.402900e-01 6.876206e-01 1.298896e+00 2.282528e+00 3.727961e+00 5.662171e+00 8.023354e+00 1.064213e+01 1.327002e+01 1.560793e+01 1.741502e+01 1.853084e+01 1.890762e+01 1.860196e+01 1.774214e+01 1.645454e+01 1.485996e+01 1.306551e+01 1.114464e+01 9.164058e+00 7.163849e+00 5.218491e+00 3.378024e+00 1.640440e+00 -4.841988e-03 -1.654309e+00 -3.381157e+00 -5.212916e+00 -7.154477e+00 -9.153004e+00 -1.113910e+01 -1.306356e+01 -1.485328e+01 -1.644586e+01 -1.774181e+01 -1.860694e+01 -1.891558e+01 -1.853986e+01 -1.741948e+01 -1.560828e+01 -1.326794e+01 -1.063996e+01 -8.021558e+00 -5.661270e+00 -3.727543e+00 -2.282477e+00 -1.298947e+00 -6.877107e-01 -3.403527e-01 -1.583412e-01 -6.967998e-02 -2.921013e-02 -1.161651e-02 -4.452883e-03 -1.571487e-03 -5.040207e-04 
-4.664012e-07 9.597834e-04 3.020146e-03 8.545628e-03 2.257472e-02 5.735440e-02 1.382550e-01 3.153832e-01 6.748176e-01 1.341969e+00 2.466249e+00 4.171247e+00 6.499661e+00 9.352493e+00 1.248671e+01 1.552639e+01 1.807307e+01 1.977875e+01 2.043868e+01 1.999743e+01 1.850189e+01 1.628584e+01 1.379823e+01 1.124239e+01 8.789432e+00 6.664491e+00 4.842052e+00 3.360308e+00 2.136671e+00 1.232899e+00 6.399407e-01 2.253602e-01 -6.688677e-03 -2.695988e-01 -6.555578e-01 -1.234381e+00 -2.120616e+00 -3.327759e+00 -4.837387e+00 -6.704388e+00 -8.805558e+00 -1.117423e+01 -1.374353e+01 -1.627613e+01 -1.851043e+01 -2.001355e+01 -2.044829e+01 -1.977917e+01 -1.807027e+01 -1.552305e+01 -1.248351e+01 -9.350779e+00 -6.498858e+00 -4.171189e+00 -2.466430e+00 -1.342234e+00 -6.750078e-01 -3.154954e-01 -1.383080e-01 -5.737652e-02 -2.258379e-02 -8.548853e-03 -3.021950e-03 -9.605298e-04 
-2.201575e-07 1.783254e-03 5.695400e-03 1.632243e-02 4.390880e-02 1.131360e-01 2.750360e-01 6.260476e-01 1.320329e+00 2.551941e+00 4.498703e+00 7.212343e+00 1.054450e+01 1.409732e+01 1.729633e+01 1.950192e+01 2.017075e+01 1.883303e+01 1.557126e+01 1.131579e+01 6.261341e+00 9.667931e-01 -3.971163e+00 -8.735901e+00 -1.259300e+01 -1.426406e+01 -1.469583e+01 -1.411247e+01 -1.238589e+01 -9.911015e+00 -6.890372e+00 -3.540780e+00 1.849348e-02 3.501805e+00 6.872456e+00 9.799010e+00 1.233895e+01 1.417790e+01 1.484081e+01 1.411459e+01 1.215921e+01 8.907394e+00 4.406086e+00 -8.225323e-01 -6.301893e+00 -1.136463e+01 -1.558607e+01 -1.881873e+01 -2.015745e+01 -1.949455e+01 -1.728935e+01 -1.409373e+01 -1.054304e+01 -7.212400e+00 -4.499207e+00 -2.552616e+00 -1.320832e+00 -6.263493e-01 -2.751805e-01 -1.131957e-01 -4.393114e-02 -1.632939e-02 -5.697868e-03 -1.783694e-03 
-1.015484e-06 3.262403e-03 1.067514e-02 3.116772e-02 8.556984e-02 2.229660e-01 5.427460e-01 1.219598e+00 2.501278e+00 4.626498e+00 7.686200e+00 1.143647e+01 1.524427e+01 1.810684e+01 1.886934e+01 1.645318e+01 1.100065e+01 2.268048e+00 -9.423075e+00 -2.060841e+01 -3.022033e+01 -3.476417e+01 -3.484009e+01 -3.469275e+01 -3.441587e+01 -3.203836e+01 -2.891037e+01 -2.617622e+01 -2.224219e+01 -1.752335e+01 -1.228074e+01 -6.220175e+00 1.126230e-01 6.178939e+00 1.217499e+01 1.739399e+01 2.216336e+01 2.616727e+01 2.928561e+01 3.188833e+01 3.336849e+01 3.485142e+01 3.595089e+01 3.492054e+01 2.957662e+01 2.048793e+01 9.563900e+00 -2.201766e+00 -1.095675e+01 -1.643480e+01 -1.884219e+01 -1.809358e+01 -1.523929e+01 -1.143615e+01 -7.687377e+00 -4.628071e+00 -2.502503e+00 -1.220345e+00 -5.431118e-01 -2.231220e-01 -8.562977e-02 -3.118794e-02 -1.068294e-02 -3.264581e-03 
-1.729592e-06 5.940172e-03 1.993783e-02 5.942428e-02 1.657719e-01 4.336970e-01 1.045702e+00 2.289176e+00 4.494937e+00 7.808132e+00 1.192479e+01 1.584374e+01 1.791355e+01 1.604828e+01 8.490516e+00 -6.100150e+00 -2.243752e+01 -3.747535e+01 -4.492561e+01 -4.294382e+01 -4.256014e+01 -4.344036e+01 -4.222857e+01 -3.838380e+01 -3.348391e+01 -2.806032e+01 -2.267431e+01 -1.819004e+01 -1.357285e+01 -9.655211e+00 -6.492825e+00 -3.225516e+00 9.104443e-02 3.137190e+00 6.373864e+00 9.748775e+00 1.357837e+01 1.800191e+01 2.285108e+01 2.827294e+01 3.311038e+01 3.832978e+01 4.295419e+01 4.354544e+01 4.176349e+01 4.309074e+01 4.521067e+01 3.725951e+01 2.230085e+01 6.032193e+00 -8.408362e+00 -1.600694e+01 -1.789826e+01 -1.584188e+01 -1.192655e+01 -7.810940e+00 -4.497391e+00 -2.290741e+00 -1.046493e+00 -4.340391e-01 -1.659017e-01 -5.946813e-02 -1.995308e-02 -5.944928e-03 
-2.235061e-06 1.073401e-02 3.694836e-02 1.119738e-01 3.151092e-01 8.195310e-01 1.933858e+00 4.064906e+00 7.505713e+00 1.193951e+01 1.604951e+01 1.730362e+01 1.228084e+01 -2.288266e+00 -2.523709e+01 -4.347426e+01 -4.440137e+01 -4.270751e+01 -4.201267e+01 -3.572889e+01 -2.801352e+01 -2.013312e+01 -1.212832e+01 -5.030685e+00 -3.464401e-01 2.202231e+00 3.300436e+00 4.630611e+00 5.231450e+00 4.723245e+00 3.492901e+00 1.720635e+00 -4.879242e-02 -1.823265e+00 -3.492967e+00 -4.516002e+00 -5.176355e+00 -4.816212e+00 -3.542604e+00 -1.738368e+00 1.134909e+00 4.795825e+00 1.159938e+01 2.021165e+01 2.816563e+01 3.611595e+01 4.192584e+01 4.225200e+01 4.422519e+01 4.311404e+01 2.516050e+01 2.347694e+00 -1.224361e+01 -1.729947e+01 -1.605334e+01 -1.194475e+01 -7.510465e+00 -4.067970e+00 -1.935420e+00 -8.202241e-01 -3.153770e-01 -1.120653e-01 -3.697891e-02 -1.074191e-02 
-5.923849e-06 1.914173e-02 6.722939e-02 2.058657e-01 5.790693e-01 1.482049e+00 3.381646e+00 6.721074e+00 1.141954e+01 1.598248e+01 1.709265e+01 9.624248e+00 -1.102050e+01 -3.515343e+01 -4.643539e+01 -4.194310e+01 -3.223859e+01 -2.298251e+01 -1.027592e+01 1.228430e+00 8.252323e+00 1.434673e+01 2.088033e+01 2.323869e+01 2.264630e+01 2.098600e+01 1.803115e+01 1.532638e+01 1.201506e+01 8.667472e+00 5.686200e+00 2.720835e+00 -6.193156e-02 -2.777175e+00 -5.665687e+00 -8.562006e+00 -1.197930e+01 -1.537208e+01 -1.823561e+01 -2.074836e+01 -2.210412e+01 -2.331827e+01 -2.136254e+01 -1.434623e+01 -7.990366e+00 -1.435348e+00 9.797942e+00 2.296642e+01 3.254591e+01 4.163821e+01 4.613516e+01 3.533636e+01 1.120871e+01 -9.624851e+00 -1.709182e+01 -1.598675e+01 -1.142639e+01 -6.726007e+00 -3.384232e+00 -1.483218e+00 -5.795296e-01 -2.060305e-01 -6.728623e-02 -1.916112e-02 
-4.258498e-06 3.326468e-02 1.185033e-01 3.640054e-01 1.014874e+00 2.532408e+00 5.523764e+00 1.020950e+01 1.550165e+01 1.767527e+01 1.027222e+01 -1.303548e+01 -4.179642e+01 -4.608907e+01 -3.161999e+01 -1.505936e+01 -7.061802e-01 1.006544e+01 2.262049e+01 3.171321e+01 3.308574e+01 2.922653e+01 2.393855e+01 1.793182e+01 1.365705e+01 1.123576e+01 9.212805e+00 7.492521e+00 5.825123e+00 4.258090e+00 2.796718e+00 1.375620e+00 -1.738127e-02 -1.386280e+00 -2.794015e+00 -4.238724e+00 -5.817307e+00 -7.491065e+00 -9.209680e+00 -1.120041e+01 -1.370572e+01 -1.788498e+01 -2.378736e+01 -2.920096e+01 -3.332666e+01 -3.209780e+01 -2.256309e+01 -9.991378e+00 8.505947e-01 1.529378e+01 3.175584e+01 4.633730e+01 4.156272e+01 1.276866e+01 -1.023457e+01 -1.767620e+01 -1.551271e+01 -1.021764e+01 -5.527644e+00 -2.534186e+00 -1.015591e+00 -3.642643e-01 -1.185879e-01 -3.328763e-02 
-1.281503e-05 5.561911e-02 1.997069e-01 6.114653e-01 1.677853e+00 4.050747e+00 8.360729e+00 1.412139e+01 1.841601e+01 1.425118e+01 -7.931397e+00 -4.221263e+01 -4.909958e+01 -2.352727e+01 -6.372778e-01 1.500840e+01 2.950562e+01 3.534453e+01 3.060149e+01 2.159518e+01 1.474099e+01 1.111753e+01 8.743815e+00 6.866709e+00 5.588925e+00 4.845849e+00 4.199473e+00 3.557121e+00 2.883963e+00 2.189945e+00 1.475311e+00 7.414847e-01 -4.710086e-03 -7.459459e-01 -1.477032e+00 -2.184569e+00 -2.876903e+00 -3.550461e+00 -4.193820e+00 -4.851307e+00 -5.617354e+00 -6.821949e+00 -8.657500e+00 -1.116735e+01 -1.493897e+01 -2.155137e+01 -3.019206e+01 -3.561993e+01 -2.954231e+01 -1.460468e+01 5.344119e-01 2.336167e+01 4.889907e+01 4.231148e+01 8.023449e+00 -1.431729e+01 -1.844899e+01 -1.413412e+01 -8.365192e+00 -4.052741e+00 -1.678716e+00 -6.118256e-01 -1.998380e-01 -5.566754e-02 
-7.435550e-06 8.825485e-02 3.177642e-01 9.651332e-01 2.593107e+00 6.025812e+00 1.167608e+01 1.774854e+01 1.894511e+01 4.200971e+00 -3.628406e+01 -5.466012e+01 -2.021461e+01 1.344657e+01 2.669274e+01 3.151083e+01 2.607116e+01 1.629970e+01 9.292892e+00 5.292137e+00 3.090016e+00 2.255906e+00 1.991969e+00 1.943654e+00 1.969634e+00 2.006628e+00 1.951241e+00 1.796257e+00 1.550952e+00 1.232260e+00 8.547400e-01 4.370148e-01 -1.715985e-03 -4.393408e-01 -8.557537e-01 -1.230375e+00 -1.547545e+00 -1.792691e+00 -1.948427e+00 -2.006614e+00 -1.970659e+00 -1.924677e+00 -1.975955e+00 -2.282203e+00 -3.130064e+00 -5.246064e+00 -9.228369e+00 -1.653346e+01 -2.589813e+01 -3.140991e+01 -2.699550e+01 -1.339364e+01 2.038354e+01 5.481789e+01 3.623565e+01 -4.304906e+00 -1.897553e+01 -1.775721e+01 -1.167781e+01 -6.027177e+00 -2.593969e+00 -9.655489e-01 -3.179102e-01 -8.830573e-02 
-1.503969e-05 1.313976e-01 4.721491e-01 1.418449e+00 3.720285e+00 8.305317e+00 1.506160e+01 2.034354e+01 1.636085e+01 -2.205285e+01 -6.163373e+01 -2.640136e+01 2.137533e+01 3.049978e+01 2.355140e+01 1.297718e+01 5.875725e+00 1.742412e+00 -8.119398e-01 -2.029983e+00 -2.226383e+00 -1.734546e+00 -1.009490e+00 -3.131522e-01 2.271948e-01 5.931487e-01 7.871694e-01 8.437223e-01 7.929035e-01 6.619904e-01 4.726042e-01 2.453404e-01 -7.141761e-04 -2.464561e-01 -4.731104e-01 -6.614535e-01 -7.915855e-01 -8.419582e-01 -7.852670e-01 -5.915069e-01 -2.256238e-01 3.177360e-01 1.010030e+00 1.726665e+00 2.219440e+00 2.040311e+00 8.105594e-01 -1.792403e+00 -5.857263e+00 -1.304816e+01 -2.338786e+01 -3.028158e+01 -2.177419e+01 2.602040e+01 6.138458e+01 2.203859e+01 -1.613991e+01 -2.031022e+01 -1.505024e+01 -8.303440e+00 -3.720430e+00 -1.418792e+00 -4.723092e-01 -1.314658e-01 
-1.635766e-05 1.811114e-01 6.475338e-01 1.921330e+00 4.915888e+00 1.056785e+01 1.798967e+01 2.191574e+01 5.221755e+00 -5.632212e+01 -4.651729e+01 2.397047e+01 3.038942e+01 1.441552e+01 4.268987e+00 -5.329952e-01 -2.716644e+00 -4.277109e+00 -5.314966e+00 -5.477636e+00 -4.809694e+00 -3.665082e+00 -2.463512e+00 -1.444546e+00 -6.936144e-01 -1.905557e-01 1.114061e-01 2.663482e-01 3.160983e-01 2.930561e-01 2.205178e-01 1.174383e-01 -3.226656e-04 -1.179766e-01 -2.208048e-01 -2.929663e-01 -3.156351e-01 -2.655570e-01 -1.104290e-01 1.915140e-01 6.943896e-01 1.445399e+00 2.462752e+00 3.662794e+00 4.807581e+00 5.478360e+00 5.311974e+00 4.269668e+00 2.720695e+00 5.220307e-01 -4.205843e+00 -1.458710e+01 -3.072820e+01 -2.367435e+01 4.688713e+01 5.636866e+01 -5.188504e+00 -2.194314e+01 -1.797252e+01 -1.056211e+01 -4.914900e+00 -1.921482e+00 -6.476432e-01 -1.811834e-01 
2.244663e-06 2.286549e-01 8.102751e-01 2.375284e+00 5.928175e+00 1.235902e+01 2.012436e+01 2.489022e+01 -2.074036e+01 -6.575158e+01 -9.992681e-01 3.706253e+01 1.037184e+01 -1.614217e+00 -5.099196e+00 -5.493581e+00 -5.816335e+00 -6.619967e+00 -7.213951e+00 -6.984495e+00 -5.945279e+00 -4.502752e+00 -3.089429e+00 -1.939425e+00 -1.111800e+00 -5.636112e-01 -2.265916e-01 -3.574489e-02 5.743285e-02 8.738568e-02 7.739425e-02 4.402522e-02 -1.493675e-04 -4.428724e-02 -7.755056e-02 -8.740111e-02 -5.727571e-02 3.605138e-02 2.269944e-01 5.639815e-01 1.112019e+00 1.939429e+00 3.088899e+00 4.501848e+00 5.944196e+00 6.983795e+00 7.211972e+00 6.617349e+00 5.814266e+00 5.488477e+00 5.104695e+00 1.549499e+00 -1.024226e+01 -3.689782e+01 7.665774e-01 6.566805e+01 2.118028e+01 -2.449965e+01 -2.001073e+01 -1.233363e+01 -5.923192e+00 -2.374475e+00 -8.101681e-01 -2.286473e-01 
-5.381614e-06 2.601152e-01 9.107932e-01 2.645058e+00 6.442262e+00 1.300968e+01 2.000471e+01 1.923492e+01 -5.145249e+01 -4.311263e+01 3.121910e+01 1.443591e+01 -3.794662e+00 -8.468458e+00 -8.009879e+00 -6.615055e+00 -6.363797e+00 -7.023493e+00 -7.529427e+00 -7.188854e+00 -6.045889e+00 -4.545071e+00 -3.118517e+00 -1.986026e+00 -1.186029e+00 -6.639658e-01 -3.428853e-01 -1.562269e-01 -5.504327e-02 -6.752017e-03 9.937367e-03 8.894167e-03 -6.572589e-05 -9.014301e-03 -1.001474e-02 6.722899e-03 5.508709e-02 1.563144e-01 3.430174e-01 6.640326e-01 1.186040e+00 1.985832e+00 3.118083e+00 4.544419e+00 6.045028e+00 7.188102e+00 7.528224e+00 7.021709e+00 6.360843e+00 6.610977e+00 8.012588e+00 8.492957e+00 3.945079e+00 -1.425512e+01 -3.132817e+01 4.267805e+01 5.137993e+01 -1.899702e+01 -1.989834e+01 -1.297715e+01 -6.434743e+00 -2.643145e+00 -9.105039e-01 -2.600372e-01 
2.785026e-05 2.581036e-01 8.956203e-01 2.570140e+00 6.136570e+00 1.197724e+01 1.754867e+01 2.965652e+00 -5.715084e+01 -1.010398e+01 4.061932e+01 -5.158791e-01 -8.783535e+00 -9.872333e+00 -7.794155e+00 -5.926708e+00 -5.574883e+00 -6.190055e+00 -6.659045e+00 -6.345951e+00 -5.312564e+00 -3.974157e+00 -2.715944e+00 -1.729247e+00 -1.040129e+00 -5.959530e-01 -3.249439e-01 -1.673618e-01 -7.966123e-02 -3.384689e-02 -1.202267e-02 -3.210087e-03 -2.738801e-05 3.156622e-03 1.198766e-02 3.382329e-02 7.966723e-02 1.673656e-01 3.249640e-01 5.959040e-01 1.040049e+00 1.728996e+00 2.715581e+00 3.973639e+00 5.311921e+00 6.345352e+00 6.658200e+00 6.188767e+00 5.572817e+00 5.925077e+00 7.796178e+00 9.886517e+00 8.837621e+00 1.029467e+00 -4.004007e+01 9.727434e+00 5.657443e+01 -3.056442e+00 -1.755222e+01 -1.197470e+01 -6.134307e+00 -2.568859e+00 -8.952350e-01 -2.579362e-01 
3.660264e-05 2.105023e-01 7.268152e-01 2.061823e+00 4.869728e+00 9.380695e+00 1.394113e+01 -7.055573e+00 -3.682133e+01 6.963503e+00 2.775926e+01 -3.930063e+00 -8.689812e+00 -8.176192e+00 -5.961824e+00 -4.333582e+00 -4.034468e+00 -4.531722e+00 -4.915633e+00 -4.695949e+00 -3.926403e+00 -2.927938e+00 -1.992523e+00 -1.263980e+00 -7.590934e-01 -4.368498e-01 -2.418008e-01 -1.290266e-01 -6.588457e-02 -3.195213e-02 -1.430660e-02 -5.322708e-03 -9.722566e-06 5.302062e-03 1.429314e-02 3.193777e-02 6.588196e-02 1.290095e-01 2.417921e-01 4.367818e-01 7.590123e-01 1.263771e+00 1.992248e+00 2.927557e+00 3.925957e+00 4.695564e+00 4.915188e+00 4.531163e+00 4.033734e+00 4.333965e+00 5.963916e+00 8.181100e+00 8.685506e+00 3.829273e+00 -2.807529e+01 -7.145799e+00 3.707548e+01 7.352122e+00 -1.387723e+01 -9.376911e+00 -4.868388e+00 -2.060788e+00 -7.263447e-01 -2.103159e-01 
4.554520e-05 1.186652e-01 4.089826e-01 1.153187e+00 2.711839e+00 5.208724e+00 7.618702e+00 -7.738455e+00 -1.714722e+01 5.892699e+00 1.084648e+01 -3.220889e+00 -5.289604e+00 -4.585544e+00 -3.207719e+00 -2.270894e+00 -2.099702e+00 -2.379038e+00 -2.598373e+00 -2.489512e+00 -2.082145e+00 -1.550625e+00 -1.052537e+00 -6.656218e-01 -3.984573e-01 -2.288639e-01 -1.267796e-01 -6.809060e-02 -3.531386e-02 -1.762914e-02 -8.239789e-03 -3.208955e-03 -3.273243e-06 3.201189e-03 8.234772e-03 1.762166e-02 3.531045e-02 6.807679e-02 1.267683e-01 2.288199e-01 3.984062e-01 6.655039e-01 1.052390e+00 1.550424e+00 2.081922e+00 2.489331e+00 2.598206e+00 2.378896e+00 2.099696e+00 2.271753e+00 3.209595e+00 4.585549e+00 5.271300e+00 3.117665e+00 -1.103993e+01 -6.105905e+00 1.709764e+01 7.836607e+00 -7.567541e+00 -5.194267e+00 -2.707300e+00 -1.151575e+00 -4.084432e-01 -1.184635e-01 
9.613827e-14 8.667724e-14 6.594749e-14 2.175691e-14 -8.938976e-14 -9.097613e-13 -6.904752e-12 -1.068616e-11 -5.155412e-12 -3.499676e-12 -5.156105e-12 -3.505815e-12 -9.989124e-13 -4.450711e-13 -3.972585e-13 -3.609083e-13 -3.061658e-13 -2.475339e-13 -2.194319e-13 -2.040252e-13 -2.072532e-13 -1.691378e-13 -1.681963e-13 -7.478044e-14 -1.235227e-13 -3.965588e-14 2.060444e-15 4.364371e-14 7.498074e-14 4.823308e-14 4.729066e-14 4.698938e-14 5.591206e-14 5.210135e-14 6.977711e-14 1.069087e-13 9.030038e-14 1.185346e-13 6.703363e-14 8.012679e-14 1.286237e-15 -3.160618e-14 -9.900219e-14 -1.118845e-13 -9.905465e-14 -1.346033e-13 -1.093129e-13 -1.117204e-14 1.377047e-14 2.534994e-13 5.023603e-13 8.078071e-13 1.236165e-12 2.847948e-12 8.775968e-12 9.148410e-12 -5.777343e-12 -1.327081e-11 -8.863840e-12 -3.549058e-12 -1.015249e-12 -1.439614e-13 4.714458e-14 9.367459e-14 
-4.554520e-05 -1.186652e-01 -4.089826e-01 -1.153187e+00 -2.711839e+00 -5.208724e+00 -7.618702e+00 7.738455e+00 1.714722e+01 -5.892699e+00 -1.084648e+01 3.220889e+00 5.289604e+00 4.585544e+00 3.207719e+00 2.270894e+00 2.099702e+00 2.379038e+00 2.598373e+00 2.489512e+00 2.082145e+00 1.550625e+00 1.052537e+00 6.656218e-01 3.984573e-01 2.288639e-01 1.267796e-01 6.809060e-02 3.531386e-02 1.762914e-02 8.239789e-03 3.208955e-03 3.273243e-06 -3.201189e-03 -8.234772e-03 -1.762166e-02 -3.531045e-02 -6.807679e-02 -1.267683e-01 -2.288199e-01 -3.984062e-01 -6.655039e-01 -1.052390e+00 -1.550424e+00 -2.081922e+00 -2.489331e+00 -2.598206e+00 -2.378896e+00 -2.099696e+00 -2.271753e+00 -3.209595e+00 -4.585549e+00 -5.271300e+00 -3.117665e+00 1.103993e+01 6.105905e+00 -1.709764e+01 -7.836607e+00 7.567541e+00 5.194267e+00 2.707300e+00 1.151575e+00 4.084432e-01 1.184635e-01 