# vtk DataFile Version 2.0
Comment goes here
ASCII

DATASET STRUCTURED_POINTS
FIELD FieldData 1
TIME 1 1 double
0.62000000
DIMENSIONS    64   64   1

ORIGIN    0.000   0.000   0.000
SPACING   0.015625 0.015625   1.000

POINT_DATA   4096
SCALARS Omega double
LOOKUP_TABLE default

1.019029e-13 1.243368e-13 1.470632e-13 1.682460e-13 1.854138e-13 2.143427e-13 2.258138e-13 2.265090e-13 2.436880e-13 2.522231e-13 2.882950e-13 2.548924e-13 2.584222e-13 2.128854e-13 2.490695e-13 1.874262e-13 2.399063e-13 2.637844e-13 2.873762e-13 3.458125e-13 3.673511e-13 4.352619e-13 4.770903e-13 5.211048e-13 5.185413e-13 5.412115e-13 5.886642e-13 5.120636e-13 4.229511e-13 3.205739e-13 1.796070e-13 2.854899e-14 -1.347242e-13 -2.854159e-13 -4.179645e-13 -5.220856e-13 -5.865524e-13 -6.116171e-13 -6.106358e-13 -5.851950e-13 -5.424630e-13 -4.869579e-13 -4.414530e-13 -4.268463e-13 -4.040538e-13 -4.187567e-13 -3.906942e-13 -4.289002e-13 -4.821662e-13 -4.222861e-13 -4.248745e-13 -4.765658e-13 -3.963940e-13 -4.057686e-13 -3.594223e-13 -3.081910e-13 -2.608919e-13 -2.456058e-13 -2.064821e-13 -1.572783e-13 -1.105754e-13 -5.892941e-14 4.311849e-15 5.722689e-14 
-6.332984e-05 4.641118e-03 9.491659e-03 1.462378e-02 2.013856e-02 2.609994e-02 3.251071e-02 3.931871e-02 4.639463e-02 5.354143e-02 6.047544e-02 6.682709e-02 7.212923e-02 7.580188e-02 7.716865e-02 7.544302e-02 6.981775e-02 5.949544e-02 4.388138e-02 2.267939e-02 -3.875177e-03 -3.490997e-02 -6.881577e-02 -1.032337e-01 -1.352263e-01 -1.614278e-01 -1.784320e-01 -1.831912e-01 -1.734508e-01 -1.483580e-01 -1.088525e-01 -5.798151e-02 -7.838196e-04 5.651573e-02 1.076513e-01 1.475349e-01 1.729781e-01 1.830139e-01 1.784232e-01 1.614898e-01 1.352882e-01 1.032433e-01 6.875921e-02 3.479043e-02 3.695506e-03 -2.289084e-02 -4.412449e-02 -5.974405e-02 -7.007500e-02 -7.569472e-02 -7.741804e-02 -7.604440e-02 -7.236641e-02 -6.705824e-02 -6.069984e-02 -5.375840e-02 -4.660196e-02 -3.951505e-02 -3.269420e-02 -2.626988e-02 -2.029515e-02 -1.476815e-02 -9.626613e-03 -4.769674e-03 
-1.307586e-04 9.518393e-03 1.944774e-02 2.991636e-02 4.111476e-02 5.316090e-02 6.605278e-02 7.968356e-02 9.379770e-02 1.080116e-01 1.217743e-01 1.343670e-01 1.448745e-01 1.521478e-01 1.548309e-01 1.513244e-01 1.399624e-01 1.190652e-01 8.733247e-02 4.402579e-02 -1.054127e-02 -7.479455e-02 -1.456455e-01 -2.184257e-01 -2.871484e-01 -3.446974e-01 -3.835753e-01 -3.966768e-01 -3.783140e-01 -3.257581e-01 -2.404182e-01 -1.287265e-01 -2.173173e-03 1.246671e-01 2.371230e-01 3.235320e-01 3.770819e-01 3.962721e-01 3.836581e-01 3.450030e-01 2.874826e-01 2.186397e-01 1.456904e-01 7.467212e-02 1.025594e-02 -4.440472e-02 -8.779973e-02 -1.195573e-01 -1.404807e-01 -1.518348e-01 -1.553371e-01 -1.526388e-01 -1.453529e-01 -1.348315e-01 -1.222242e-01 -1.084462e-01 -9.421351e-02 -8.007830e-02 -6.642313e-02 -5.350543e-02 -4.143384e-02 -3.021200e-02 -1.972527e-02 -9.783557e-03 
-2.062370e-04 1.485171e-02 3.029939e-02 4.649503e-02 6.369633e-02 8.205630e-02 1.015566e-01 1.220333e-01 1.431155e-01 1.642568e-01 1.846727e-01 2.033335e-01 2.189040e-01 2.296749e-01 2.335771e-01 2.281162e-01 2.106186e-01 1.783062e-01 1.288890e-01 6.084015e-02 -2.582588e-02 -1.292064e-01 -2.450128e-01 -3.663285e-01 -4.838092e-01 -5.856623e-01 -6.587015e-01 -6.892778e-01 -6.653726e-01 -5.794398e-01 -4.317299e-01 -2.330145e-01 -4.925611e-03 2.238579e-01 4.244213e-01 5.746410e-01 6.629204e-01 6.886530e-01 6.592041e-01 5.866859e-01 4.849290e-01 3.672226e-01 2.455424e-01 1.293734e-01 2.563133e-02 -6.126236e-02 -1.295138e-01 -1.790142e-01 -2.113932e-01 -2.288938e-01 -2.343517e-01 -2.304261e-01 -2.196314e-01 -2.040363e-01 -1.853501e-01 -1.649103e-01 -1.437413e-01 -1.226297e-01 -1.021194e-01 -8.258382e-02 -6.418888e-02 -4.695510e-02 -3.073429e-02 -1.526924e-02 
-2.926768e-04 2.081818e-02 4.238967e-02 6.484243e-02 8.846849e-02 1.134327e-01 1.396884e-01 1.670217e-01 1.949707e-01 2.228703e-01 2.497548e-01 2.743321e-01 2.948680e-01 3.090601e-01 3.140138e-01 3.061180e-01 2.813531e-01 2.353622e-01 1.642747e-01 6.505474e-02 -6.331460e-02 -2.193333e-01 -3.979708e-01 -5.900907e-01 -7.822240e-01 -9.558245e-01 -1.088596e+00 -1.154998e+00 -1.130307e+00 -9.963330e-01 -7.498212e-01 -4.079208e-01 -1.005607e-02 3.892844e-01 7.352154e-01 9.870250e-01 1.125904e+00 1.154269e+00 1.090226e+00 9.586160e-01 7.853050e-01 5.927425e-01 3.998531e-01 2.204499e-01 6.366109e-02 -6.521912e-02 -1.648821e-01 -2.361923e-01 -2.823472e-01 -3.071578e-01 -3.150671e-01 -3.100864e-01 -2.958573e-01 -2.752814e-01 -2.506638e-01 -2.237438e-01 -1.958074e-01 -1.678223e-01 -1.404495e-01 -1.141528e-01 -8.914810e-02 -6.548395e-02 -4.300165e-02 -2.140944e-02 
-3.925131e-04 2.754986e-02 5.597102e-02 8.530456e-02 1.158379e-01 1.477228e-01 1.808822e-01 2.150733e-01 2.497900e-01 2.843112e-01 3.175511e-01 3.479879e-01 3.734499e-01 3.908985e-01 3.963095e-01 3.844780e-01 3.493427e-01 2.840866e-01 1.821921e-01 3.796509e-02 -1.517704e-01 -3.868039e-01 -6.617429e-01 -9.647662e-01 -1.276540e+00 -1.568298e+00 -1.803299e+00 -1.935666e+00 -1.918072e+00 -1.709551e+00 -1.297778e+00 -7.105776e-01 -1.891824e-02 6.756626e-01 1.270962e+00 1.692994e+00 1.910961e+00 1.935027e+00 1.807264e+00 1.574758e+00 1.283693e+00 9.711256e-01 6.665230e-01 3.900704e-01 1.535258e-01 -3.725878e-02 -1.823771e-01 -2.847953e-01 -3.504229e-01 -3.857245e-01 -3.976270e-01 -3.922077e-01 -3.747133e-01 -3.491948e-01 -3.186969e-01 -2.854061e-01 -2.508369e-01 -2.160783e-01 -1.818453e-01 -1.486441e-01 -1.167187e-01 -8.614679e-02 -5.678341e-02 -2.834071e-02 
-5.059278e-04 3.510335e-02 7.114267e-02 1.079994e-01 1.459124e-01 1.850035e-01 2.251761e-01 2.662049e-01 3.076069e-01 3.486816e-01 3.882654e-01 4.245753e-01 4.548259e-01 4.748676e-01 4.789122e-01 4.592353e-01 4.065257e-01 3.100462e-01 1.590803e-01 -5.626562e-02 -3.424433e-01 -7.011862e-01 -1.126308e+00 -1.602046e+00 -2.100620e+00 -2.578417e+00 -2.978587e+00 -3.223910e+00 -3.225618e+00 -2.897389e+00 -2.212634e+00 -1.216421e+00 -3.321133e-02 1.155185e+00 2.166544e+00 2.869511e+00 3.214185e+00 3.223119e+00 2.986566e+00 2.592095e+00 2.115953e+00 1.615587e+00 1.136518e+00 7.085202e-01 3.470188e-01 5.892677e-02 -1.580692e-01 -3.101060e-01 -4.073667e-01 -4.605103e-01 -4.804128e-01 -4.764351e-01 -4.563655e-01 -4.260486e-01 -3.896552e-01 -3.499990e-01 -3.088615e-01 -2.674107e-01 -2.263403e-01 -1.861301e-01 -1.470051e-01 -1.090593e-01 -7.217787e-02 -3.611975e-02 
-6.323566e-04 4.347767e-02 8.789223e-02 1.328864e-01 1.786110e-01 2.251511e-01 2.724259e-01 3.202928e-01 3.683743e-01 4.160434e-01 4.620278e-01 5.040865e-01 5.383680e-01 5.588346e-01 5.567576e-01 5.203631e-01 4.352364e-01 2.848368e-01 5.253781e-02 -2.766799e-01 -7.125003e-01 -1.257014e+00 -1.900646e+00 -2.620563e+00 -3.377055e+00 -4.108443e+00 -4.732057e+00 -5.135216e+00 -5.176709e+00 -4.685599e+00 -3.604718e+00 -1.992104e+00 -5.488973e-02 1.891041e+00 3.530877e+00 4.642049e+00 5.159288e+00 5.132656e+00 4.746501e+00 4.136770e+00 3.407992e+00 2.646415e+00 1.919237e+00 1.270482e+00 7.216263e-01 2.828205e-01 -4.905435e-02 -2.832901e-01 -4.351705e-01 -5.212544e-01 -5.582107e-01 -5.605531e-01 -5.401447e-01 -5.058191e-01 -4.636631e-01 -4.175829e-01 -3.698313e-01 -3.216913e-01 -2.737844e-01 -2.264810e-01 -1.799207e-01 -1.341770e-01 -8.917007e-02 -4.474396e-02 
-7.677534e-04 5.259298e-02 1.060506e-01 1.597028e-01 2.135784e-01 2.677386e-01 3.221680e-01 3.768868e-01 4.316788e-01 4.859705e-01 5.381717e-01 5.850941e-01 6.209180e-01 6.363531e-01 6.178860e-01 5.475407e-01 4.036547e-01 1.623355e-01 -1.991126e-01 -6.989048e-01 -1.345176e+00 -2.133705e+00 -3.043683e+00 -4.041110e+00 -5.076328e+00 -6.071574e+00 -6.926490e+00 -7.537784e+00 -7.694896e+00 -7.048021e+00 -5.498893e+00 -3.070463e+00 -8.716907e-02 2.909461e+00 5.388648e+00 6.987558e+00 7.671417e+00 7.534086e+00 6.954753e+00 6.132527e+00 5.136789e+00 4.084625e+00 3.071001e+00 2.153091e+00 1.359457e+00 7.099426e-01 2.067147e-01 -1.576876e-01 -4.015228e-01 -5.472455e-01 -6.187956e-01 -6.379488e-01 -6.228030e-01 -5.870355e-01 -5.400376e-01 -4.877254e-01 -4.333298e-01 -3.784650e-01 -3.237068e-01 -2.692606e-01 -2.151005e-01 -1.612273e-01 -1.075819e-01 -5.412527e-02 
-9.075044e-04 6.233370e-02 1.253871e-01 1.881146e-01 2.504062e-01 3.123233e-01 3.739787e-01 4.356073e-01 4.971393e-01 5.578507e-01 6.153262e-01 6.644625e-01 6.959550e-01 6.951908e-01 6.414304e-01 5.082270e-01 2.653616e-01 -1.172824e-01 -6.638476e-01 -1.385958e+00 -2.276804e+00 -3.309406e+00 -4.440729e+00 -5.624240e+00 -6.824202e+00 -7.987767e+00 -8.936925e+00 -9.623742e+00 -9.874583e+00 -9.206894e+00 -7.564317e+00 -4.411743e+00 -1.355427e-01 4.156082e+00 7.420370e+00 9.158240e+00 9.856592e+00 9.626248e+00 9.005337e+00 8.132180e+00 6.938575e+00 5.684598e+00 4.466381e+00 3.325790e+00 2.292331e+00 1.401457e+00 6.768951e-01 1.268203e-01 -2.594979e-01 -5.054496e-01 -6.409085e-01 -6.961152e-01 -6.976499e-01 -6.664675e-01 -6.173622e-01 -5.597949e-01 -4.989680e-01 -4.373471e-01 -3.756776e-01 -3.140179e-01 -2.521265e-01 -1.898663e-01 -1.271728e-01 -6.413854e-02 
-1.042802e-03 7.255097e-02 1.456083e-01 2.177135e-01 2.886102e-01 3.583936e-01 4.273370e-01 4.958729e-01 5.638824e-01 6.300023e-01 6.900113e-01 7.353304e-01 7.509561e-01 7.143762e-01 5.952278e-01 3.576972e-01 -3.467798e-02 -6.102692e-01 -1.379255e+00 -2.323967e+00 -3.395279e+00 -4.521042e+00 -5.622141e+00 -6.643237e+00 -7.632675e+00 -8.622784e+00 -9.205522e+00 -9.742266e+00 -9.865131e+00 -8.729265e+00 -7.750098e+00 -4.848836e+00 -1.703931e-01 4.425487e+00 7.574465e+00 8.789164e+00 9.865316e+00 9.792914e+00 9.392096e+00 8.963171e+00 7.825924e+00 6.694226e+00 5.609173e+00 4.507310e+00 3.398855e+00 2.339552e+00 1.397595e+00 6.262660e-01 4.621976e-02 -3.506553e-01 -5.919277e-01 -7.137114e-01 -7.519112e-01 -7.370991e-01 -6.920734e-01 -6.320695e-01 -5.658546e-01 -4.977468e-01 -4.291674e-01 -3.602312e-01 -2.905012e-01 -2.196703e-01 -1.476326e-01 -7.461772e-02 
-1.165274e-03 8.312331e-02 1.664876e-01 2.482112e-01 3.278973e-01 4.056853e-01 4.819814e-01 5.572382e-01 6.308371e-01 6.998510e-01 7.567344e-01 7.872268e-01 7.680003e-01 6.662347e-01 4.412333e-01 5.117915e-02 -5.360685e-01 -1.325798e+00 -2.281688e+00 -3.315263e+00 -4.299784e+00 -5.098179e+00 -5.622878e+00 -5.773839e+00 -5.840341e+00 -6.410763e+00 -6.321539e+00 -7.865995e+00 -5.285866e+00 5.420789e+00 1.030758e+01 7.550428e+00 1.343807e-01 -7.624294e+00 -1.036150e+01 -6.096966e+00 4.527122e+00 7.958654e+00 6.783107e+00 7.222053e+00 6.151472e+00 5.748606e+00 5.494717e+00 4.999005e+00 4.265249e+00 3.320181e+00 2.301738e+00 1.348084e+00 5.546232e-01 -3.802045e-02 -4.334698e-01 -6.626672e-01 -7.673400e-01 -7.882282e-01 -7.585381e-01 -7.018984e-01 -6.328828e-01 -5.592031e-01 -4.839066e-01 -4.076281e-01 -3.299215e-01 -2.503380e-01 -1.687197e-01 -8.542471e-02 
-1.262628e-03 9.398714e-02 1.879149e-01 2.795019e-01 3.682057e-01 4.541722e-01 5.377749e-01 6.190836e-01 6.961428e-01 7.630642e-01 8.068888e-01 8.051398e-01 7.237610e-01 5.190122e-01 1.434859e-01 -4.384655e-01 -1.229859e+00 -2.171649e+00 -3.126640e+00 -3.883090e+00 -4.209205e+00 -3.955936e+00 -3.181779e+00 -1.571768e+00 -3.500155e-02 3.530642e+00 1.641911e+01 3.447382e+01 4.351185e+01 3.842656e+01 2.549077e+01 1.264884e+01 3.238078e-01 -1.234089e+01 -2.477451e+01 -3.845178e+01 -4.402159e+01 -3.511070e+01 -1.692577e+01 -2.738822e+00 3.932338e-01 1.350825e+00 2.824097e+00 3.696861e+00 4.106271e+00 3.864719e+00 3.141120e+00 2.196907e+00 1.254750e+00 4.587841e-01 -1.297066e-01 -5.110234e-01 -7.203222e-01 -8.045866e-01 -8.079646e-01 -7.648352e-01 -6.981284e-01 -6.210645e-01 -5.397403e-01 -4.561695e-01 -3.703104e-01 -2.817455e-01 -1.903025e-01 -9.647252e-02 
-1.324465e-03 1.051862e-01 2.099999e-01 3.118061e-01 4.098880e-01 5.042607e-01 5.949195e-01 6.808372e-01 7.574995e-01 8.141986e-01 8.302450e-01 7.726721e-01 5.960066e-01 2.489958e-01 -3.105735e-01 -1.086434e+00 -2.007289e+00 -2.884551e+00 -3.407416e+00 -3.192795e+00 -1.937543e+00 3.321930e-01 2.740507e+00 8.370872e+00 2.388165e+01 4.460377e+01 5.104757e+01 4.215589e+01 2.553088e+01 8.458228e+00 1.188010e+00 -1.267523e+00 1.589793e-02 1.080244e+00 -9.492184e-01 -8.260968e+00 -2.502675e+01 -4.191573e+01 -5.178746e+01 -4.540458e+01 -2.421415e+01 -8.634863e+00 -3.484969e+00 -8.289848e-01 1.753643e+00 3.142589e+00 3.403824e+00 2.902847e+00 2.033317e+00 1.112579e+00 3.309585e-01 -2.352450e-01 -5.884743e-01 -7.695337e-01 -8.299101e-01 -8.152851e-01 -7.592017e-01 -6.827113e-01 -5.968480e-01 -5.062489e-01 -4.120101e-01 -3.140998e-01 -2.124735e-01 -1.077847e-01 
-1.337528e-03 1.169191e-01 2.331557e-01 3.457833e-01 4.538265e-01 5.569021e-01 6.540399e-01 7.420891e-01 8.123785e-01 8.473278e-01 8.164045e-01 6.752812e-01 3.696718e-01 -1.487614e-01 -8.935830e-01 -1.792235e+00 -2.630768e+00 -3.001612e+00 -2.345397e+00 -1.129160e-01 3.898185e+00 8.895055e+00 1.831542e+01 3.690986e+01 5.124812e+01 3.972981e+01 1.372230e+01 -5.009376e+00 -1.601098e+01 -1.629701e+01 -8.423711e+00 -3.667270e+00 -1.302605e-01 3.200395e+00 7.999097e+00 1.628217e+01 1.592501e+01 4.898189e+00 -1.379905e+01 -4.020194e+01 -5.149544e+01 -3.726155e+01 -1.923013e+01 -9.669760e+00 -4.114351e+00 3.838539e-02 2.303846e+00 2.992127e+00 2.645076e+00 1.818366e+00 9.189035e-01 1.686825e-01 -3.569358e-01 -6.684266e-01 -8.137848e-01 -8.471502e-01 -8.134499e-01 -7.436584e-01 -6.558109e-01 -5.587921e-01 -4.558829e-01 -3.480407e-01 -2.356230e-01 -1.195349e-01 
-1.290708e-03 1.295369e-01 2.580947e-01 3.825181e-01 5.014151e-01 6.135757e-01 7.162443e-01 8.028410e-01 8.587917e-01 8.577640e-01 7.583805e-01 5.066661e-01 4.761466e-02 -6.447011e-01 -1.516914e+00 -2.357118e+00 -2.716608e+00 -1.871281e+00 1.034071e+00 6.566159e+00 1.419952e+01 2.627158e+01 4.139900e+01 4.219025e+01 2.146190e+01 -5.489210e+00 -1.284251e+01 -3.022143e+00 4.045376e+00 5.438343e+00 3.696421e+00 1.735939e+00 -5.013138e-02 -1.953236e+00 -3.708596e+00 -4.766900e+00 -4.534676e+00 2.616710e+00 1.342162e+01 5.790245e+00 -2.116073e+01 -4.123644e+01 -4.139252e+01 -2.732344e+01 -1.426577e+01 -6.660460e+00 -1.153380e+00 1.795373e+00 2.695750e+00 2.371230e+00 1.542205e+00 6.695857e-01 -2.918746e-02 -4.950796e-01 -7.525080e-01 -8.555971e-01 -8.587604e-01 -8.038204e-01 -7.176844e-01 -6.152471e-01 -5.033022e-01 -3.846344e-01 -2.604443e-01 -1.320525e-01 
-1.170893e-03 1.435879e-01 2.859202e-01 4.236697e-01 5.547928e-01 6.766719e-01 7.837528e-01 8.645879e-01 8.970491e-01 8.448956e-01 6.566649e-01 2.742080e-01 -3.438875e-01 -1.171107e+00 -2.035539e+00 -2.504246e+00 -1.791882e+00 1.231047e+00 7.665586e+00 1.750194e+01 2.918195e+01 3.825446e+01 3.359502e+01 1.262814e+01 -4.916577e+00 -3.800784e+00 6.266217e+00 7.943243e+00 5.171089e+00 4.768966e+00 3.542277e+00 1.863096e+00 -1.111524e-02 -1.901228e+00 -3.475941e+00 -4.513928e+00 -5.394393e+00 -7.099803e+00 -5.203440e+00 3.918350e+00 4.512644e+00 -1.168161e+01 -3.242273e+01 -3.886042e+01 -2.947611e+01 -1.769105e+01 -7.940673e+00 -1.433596e+00 1.701597e+00 2.487410e+00 2.051753e+00 1.197427e+00 3.674395e-01 -2.572443e-01 -6.465851e-01 -8.399031e-01 -8.953104e-01 -8.645851e-01 -7.846132e-01 -6.779550e-01 -5.563727e-01 -4.255132e-01 -2.880148e-01 -1.458603e-01 
-9.637652e-04 1.597264e-01 3.179429e-01 4.712076e-01 6.165166e-01 7.491492e-01 8.596325e-01 9.302540e-01 9.301145e-01 8.130554e-01 5.207459e-01 4.266396e-04 -7.546181e-01 -1.626574e+00 -2.261540e+00 -1.918563e+00 6.150358e-01 6.882784e+00 1.801061e+01 2.790990e+01 3.087362e+01 2.688402e+01 1.266840e+01 1.206929e+00 1.871634e+00 3.505158e+00 4.623616e+00 5.220367e+00 4.566976e+00 4.077863e+00 3.083214e+00 1.668040e+00 1.684930e-02 -1.631745e+00 -3.006676e+00 -3.954982e+00 -4.482244e+00 -4.801430e+00 -4.343966e+00 -3.159847e+00 -2.332591e+00 -1.824178e+00 -1.155190e+01 -2.671269e+01 -3.157836e+01 -2.816722e+01 -1.852249e+01 -7.278107e+00 -8.115131e-01 1.848200e+00 2.256198e+00 1.648381e+00 7.813137e-01 2.188959e-02 -5.057297e-01 -8.043971e-01 -9.259745e-01 -9.287720e-01 -8.595758e-01 -7.498068e-01 -6.176019e-01 -4.726082e-01 -3.196136e-01 -1.615828e-01 
-6.531295e-04 1.787242e-01 3.557278e-01 5.275310e-01 6.898413e-01 8.350899e-01 9.488034e-01 1.005844e+00 9.660141e-01 7.746466e-01 3.721190e-01 -2.757430e-01 -1.115500e+00 -1.893210e+00 -2.008230e+00 -3.311110e-01 4.793103e+00 1.513173e+01 2.689848e+01 2.776053e+01 2.346113e+01 1.931424e+01 7.631523e+00 -2.425875e-01 1.183184e-01 1.670305e+00 3.117488e+00 3.918966e+00 3.915663e+00 3.515707e+00 2.656680e+00 1.442937e+00 3.086701e-02 -1.379351e+00 -2.580446e+00 -3.425670e+00 -3.823592e+00 -3.750128e+00 -2.991643e+00 -1.571488e+00 -2.557498e-01 -2.472130e-01 -7.407037e+00 -1.914300e+01 -2.358798e+01 -2.771896e+01 -2.742761e+01 -1.580596e+01 -5.119937e+00 1.857944e-01 1.966998e+00 1.902761e+00 1.142158e+00 3.027085e-01 -3.517102e-01 -7.615302e-01 -9.587107e-01 -1.002281e+00 -9.473887e-01 -8.347984e-01 -6.901776e-01 -5.282678e-01 -3.567653e-01 -1.799578e-01 
-2.142051e-04 2.012598e-01 4.006626e-01 5.948303e-01 7.778664e-01 9.386475e-01 1.056731e+00 1.098750e+00 1.015393e+00 7.461160e-01 2.373191e-01 -5.116692e-01 -1.359965e+00 -1.873773e+00 -1.145452e+00 2.404043e+00 1.077269e+01 2.473329e+01 2.582723e+01 2.027890e+01 2.168507e+01 1.338061e+01 -3.420477e-01 -3.738489e+00 -1.230726e+00 9.137203e-01 2.437530e+00 3.226582e+00 3.349976e+00 2.995777e+00 2.247117e+00 1.216473e+00 3.399093e-02 -1.147942e+00 -2.176160e+00 -2.924144e+00 -3.282832e+00 -3.153879e+00 -2.392541e+00 -9.092818e-01 1.164611e+00 3.605834e+00 1.827162e-01 -1.263069e+01 -2.172386e+01 -2.074731e+01 -2.551189e+01 -2.508619e+01 -1.118537e+01 -2.640612e+00 1.054204e+00 1.862236e+00 1.382288e+00 5.419124e-01 -2.113723e-01 -7.277833e-01 -1.004061e+00 -1.092344e+00 -1.053352e+00 -9.369394e-01 -7.770846e-01 -5.945950e-01 -4.007911e-01 -2.016100e-01 
3.763654e-04 2.278413e-01 4.538394e-01 6.749640e-01 8.835021e-01 1.064183e+00 1.189886e+00 1.218611e+00 1.092815e+00 7.495156e-01 1.490197e-01 -6.618457e-01 -1.431845e+00 -1.514768e+00 3.376157e-01 6.228128e+00 1.883070e+01 2.849672e+01 1.657976e+01 1.888069e+01 2.179245e+01 9.761523e-01 -6.046544e+00 -3.952605e+00 -1.330832e+00 7.103350e-01 2.031515e+00 2.682300e+00 2.785238e+00 2.472572e+00 1.842368e+00 9.937200e-01 3.099973e-02 -9.320522e-01 -1.782115e+00 -2.416090e+00 -2.738061e+00 -2.646726e+00 -2.020862e+00 -7.354377e-01 1.259108e+00 3.836904e+00 6.013030e+00 1.802765e-01 -2.108662e+01 -1.931805e+01 -1.604091e+01 -2.831139e+01 -1.956114e+01 -6.595838e+00 -4.922602e-01 1.474301e+00 1.445829e+00 6.939190e-01 -1.174187e-01 -7.251653e-01 -1.076450e+00 -1.208417e+00 -1.183747e+00 -1.060422e+00 -8.810982e-01 -6.733487e-01 -4.527123e-01 -2.269943e-01 
1.153773e-03 2.584624e-01 5.153299e-01 7.683259e-01 1.007842e+00 1.214062e+00 1.352704e+00 1.373063e+00 1.210448e+00 8.028421e-01 1.308096e-01 -7.017403e-01 -1.320006e+00 -8.670356e-01 2.234836e+00 1.036383e+01 2.569419e+01 1.921733e+01 1.339872e+01 2.473002e+01 1.226321e+01 -5.541692e+00 -6.155178e+00 -3.552808e+00 -1.167645e+00 5.654843e-01 1.635590e+00 2.146983e+00 2.220576e+00 1.961655e+00 1.455841e+00 7.834125e-01 2.549381e-02 -7.329857e-01 -1.407716e+00 -1.918399e+00 -2.187070e+00 -2.127746e+00 -1.639170e+00 -6.015622e-01 1.086540e+00 3.419454e+00 5.976541e+00 5.681995e+00 -1.149203e+01 -2.514719e+01 -1.348277e+01 -1.877915e+01 -2.648892e+01 -1.089453e+01 -2.466792e+00 7.909078e-01 1.322406e+00 7.355646e-01 -9.237552e-02 -7.708119e-01 -1.187391e+00 -1.357618e+00 -1.342604e+00 -1.207303e+00 -1.003086e+00 -7.647639e-01 -5.124906e-01 -2.560242e-01 
2.132245e-03 2.923795e-01 5.837710e-01 8.732231e-01 1.149359e+00 1.387660e+00 1.546533e+00 1.566708e+00 1.377571e+00 9.206895e-01 2.011427e-01 -6.177455e-01 -1.035501e+00 -2.759033e-02 4.257141e+00 1.403416e+01 2.485221e+01 1.010324e+01 1.889933e+01 2.404391e+01 -3.850480e+00 -8.294354e+00 -5.686286e+00 -3.145001e+00 -1.086415e+00 3.377605e-01 1.197190e+00 1.604997e+00 1.670950e+00 1.479096e+00 1.098676e+00 5.913557e-01 1.955487e-02 -5.528102e-01 -1.062416e+00 -1.447270e+00 -1.647458e+00 -1.594054e+00 -1.205503e+00 -3.741063e-01 1.009505e+00 3.016462e+00 5.500526e+00 8.059784e+00 4.190620e+00 -2.349410e+01 -1.919069e+01 -1.011954e+01 -2.476274e+01 -1.463986e+01 -4.563781e+00 -8.863399e-02 1.027172e+00 6.562238e-01 -1.526488e-01 -8.781156e-01 -1.345374e+00 -1.544008e+00 -1.530876e+00 -1.376677e+00 -1.141329e+00 -8.670255e-01 -5.786927e-01 -2.879167e-01 
3.317199e-03 3.277360e-01 6.555364e-01 9.844908e-01 1.301789e+00 1.578372e+00 1.765484e+00 1.795656e+00 1.593158e+00 1.104695e+00 3.591987e-01 -4.212817e-01 -6.333358e-01 9.157046e-01 6.332115e+00 1.861802e+01 1.606182e+01 1.114555e+01 2.448008e+01 1.247388e+01 -9.195654e+00 -7.660278e+00 -5.138109e+00 -2.884759e+00 -1.145587e+00 2.888656e-02 7.368236e-01 1.086583e+00 1.169203e+00 1.051844e+00 7.882583e-01 4.262772e-01 1.432317e-02 -3.981210e-01 -7.620121e-01 -1.029205e+00 -1.153009e+00 -1.080192e+00 -7.453905e-01 -5.959064e-02 1.082076e+00 2.778369e+00 4.993032e+00 7.588116e+00 9.861370e+00 -1.086344e+01 -2.488872e+01 -1.147938e+01 -1.491294e+01 -1.883412e+01 -6.740524e+00 -1.073397e+00 6.274202e-01 4.772200e-01 -2.911896e-01 -1.045194e+00 -1.547414e+00 -1.762586e+00 -1.742023e+00 -1.561546e+00 -1.289334e+00 -9.748443e-01 -6.476338e-01 -3.207927e-01 
4.649920e-03 3.612714e-01 7.241606e-01 1.092535e+00 1.452694e+00 1.771559e+00 1.993786e+00 2.044268e+00 1.842820e+00 1.341230e+00 5.887812e-01 -1.395636e-01 -1.790285e-01 1.766560e+00 7.478105e+00 1.959509e+01 7.485407e+00 1.475254e+01 2.330886e+01 -1.766103e+00 -9.193861e+00 -7.086283e+00 -4.726433e+00 -2.756226e+00 -1.289783e+00 -3.016733e-01 3.043979e-01 6.259551e-01 7.366042e-01 6.900209e-01 5.283358e-01 2.889633e-01 1.014567e-02 -2.690421e-01 -5.098653e-01 -6.741886e-01 -7.253288e-01 -6.216438e-01 -3.107704e-01 2.788874e-01 1.241403e+00 2.669966e+00 4.591845e+00 6.923140e+00 9.091795e+00 1.805983e+00 -2.360993e+01 -1.488672e+01 -7.855729e+00 -2.079816e+01 -8.289754e+00 -1.938985e+00 2.199350e-01 2.409174e-01 -4.855560e-01 -1.255865e+00 -1.778135e+00 -1.997314e+00 -1.960147e+00 -1.747263e+00 -1.434716e+00 -1.078711e+00 -7.129527e-01 -3.515058e-01 
6.014742e-03 3.883160e-01 7.802316e-01 1.182955e+00 1.582622e+00 1.943089e+00 2.203679e+00 2.282734e+00 2.096653e+00 1.600546e+00 8.601657e-01 1.891930e-01 3.067932e-01 2.652187e+00 9.231097e+00 1.700665e+01 6.728302e+00 1.896354e+01 1.792929e+01 -9.196416e+00 -8.577615e+00 -6.464114e+00 -4.393470e+00 -2.694843e+00 -1.450603e+00 -6.006944e-01 -6.227547e-02 2.476805e-01 3.881360e-01 4.021520e-01 3.230998e-01 1.810802e-01 7.008369e-03 -1.673256e-01 -3.103562e-01 -3.911668e-01 -3.800277e-01 -2.438696e-01 5.956172e-02 5.876055e-01 1.420086e+00 2.634159e+00 4.280576e+00 6.253905e+00 8.203889e+00 8.449079e+00 -1.825362e+01 -1.917026e+01 -7.401118e+00 -1.773866e+01 -9.791140e+00 -2.589531e+00 -1.108609e-01 4.907762e-03 -6.995989e-01 -1.478372e+00 -2.007180e+00 -2.218516e+00 -2.157802e+00 -1.910042e+00 -1.558347e+00 -1.164515e+00 -7.654961e-01 -3.756248e-01 
7.214490e-03 4.028249e-01 8.114306e-01 1.236508e+00 1.664815e+00 2.058589e+00 2.353771e+00 2.464187e+00 2.303913e+00 1.828745e+00 1.112487e+00 4.805713e-01 6.677123e-01 3.157504e+00 1.021431e+01 1.185455e+01 8.009557e+00 1.972520e+01 1.089507e+01 -1.030292e+01 -7.999872e+00 -5.875842e+00 -4.080095e+00 -2.624476e+00 -1.562230e+00 -8.217353e-01 -3.356478e-01 -3.532445e-02 1.268977e-01 1.858394e-01 1.686350e-01 9.982937e-02 4.771066e-03 -9.043499e-02 -1.598450e-01 -1.779933e-01 -1.204226e-01 4.000942e-02 3.380351e-01 8.207719e-01 1.555798e+00 2.608249e+00 4.047877e+00 5.817148e+00 7.962440e+00 1.049050e+01 -9.895761e+00 -2.069470e+01 -8.970624e+00 -1.024033e+01 -9.148211e+00 -2.538906e+00 -2.395134e-01 -1.708047e-01 -8.873670e-01 -1.666770e+00 -2.188405e+00 -2.382135e+00 -2.295456e+00 -2.016792e+00 -1.634386e+00 -1.213682e+00 -7.934567e-01 -3.875277e-01 
7.979678e-03 3.984177e-01 8.045970e-01 1.232146e+00 1.669229e+00 2.078403e+00 2.395330e+00 2.532806e+00 2.405215e+00 1.966774e+00 1.289436e+00 6.728126e-01 8.051407e-01 3.014229e+00 9.449601e+00 5.655791e+00 9.107531e+00 1.713265e+01 2.127203e+00 -9.379814e+00 -7.302254e+00 -5.307581e+00 -3.735818e+00 -2.491934e+00 -1.581956e+00 -9.384639e-01 -5.023477e-01 -2.185507e-01 -4.754938e-02 3.858470e-02 6.224720e-02 4.349264e-02 3.201624e-03 -3.714855e-02 -5.617970e-02 -3.280782e-02 5.317784e-02 2.245500e-01 5.099178e-01 9.497160e-01 1.600614e+00 2.524901e+00 3.796575e+00 5.429682e+00 7.591397e+00 1.024132e+01 3.233411e-01 -1.801501e+01 -1.164455e+01 -4.850439e+00 -8.414785e+00 -2.312891e+00 -2.919388e-01 -2.985480e-01 -1.020733e+00 -1.775325e+00 -2.269640e+00 -2.436818e+00 -2.327299e+00 -2.029862e+00 -1.634171e+00 -1.206149e+00 -7.843998e-01 -3.814205e-01 
8.066663e-03 3.692009e-01 7.473771e-01 1.149702e+00 1.566353e+00 1.962602e+00 2.277898e+00 2.429330e+00 2.335958e+00 1.951689e+00 1.339882e+00 7.549200e-01 8.111522e-01 2.659939e+00 8.311472e+00 1.928693e+00 1.053422e+01 1.534850e+01 -3.105045e+00 -7.396988e+00 -6.151953e+00 -4.575461e+00 -3.267532e+00 -2.239262e+00 -1.480596e+00 -9.381850e-01 -5.615795e-01 -3.075436e-01 -1.438939e-01 -4.853087e-02 -3.234861e-03 8.048279e-03 2.128196e-03 -3.779069e-03 7.473480e-03 5.296059e-02 1.490416e-01 3.145890e-01 5.729293e-01 9.582040e-01 1.516994e+00 2.305733e+00 3.385899e+00 4.785942e+00 6.510860e+00 7.974851e+00 5.099559e+00 -1.524743e+01 -1.259606e+01 -2.442159e+00 -8.065547e+00 -2.233757e+00 -3.652718e-01 -3.895019e-01 -1.065817e+00 -1.752751e+00 -2.193907e+00 -2.328367e+00 -2.206274e+00 -1.911605e+00 -1.529731e+00 -1.122785e+00 -7.266896e-01 -3.519513e-01 
7.246707e-03 3.119162e-01 6.327501e-01 9.771211e-01 1.337595e+00 1.684822e+00 1.966921e+00 2.112157e+00 2.050508e+00 1.740359e+00 1.233545e+00 7.360677e-01 7.745914e-01 2.332285e+00 7.105464e+00 1.697503e+00 9.894081e+00 1.101867e+01 -5.508313e+00 -5.620950e+00 -4.730045e+00 -3.620865e+00 -2.630023e+00 -1.841128e+00 -1.250086e+00 -8.227063e-01 -5.205282e-01 -3.117348e-01 -1.716427e-01 -8.366167e-02 -3.372798e-02 -9.661038e-03 1.376847e-03 1.246166e-02 3.663146e-02 8.698550e-02 1.760649e-01 3.186560e-01 5.327505e-01 8.452550e-01 1.291831e+00 1.917029e+00 2.762654e+00 3.846364e+00 5.094037e+00 6.214734e+00 6.966046e+00 -1.029294e+01 -1.132256e+01 -2.774511e+00 -6.981967e+00 -2.083554e+00 -4.372885e-01 -4.322392e-01 -9.940662e-01 -1.561651e+00 -1.920818e+00 -2.019192e+00 -1.900692e+00 -1.637667e+00 -1.303844e+00 -9.524765e-01 -6.139665e-01 -2.963722e-01 
5.512114e-03 2.269399e-01 4.611169e-01 7.141751e-01 9.812000e-01 1.240812e+00 1.454831e+00 1.570002e+00 1.534435e+00 1.316575e+00 9.547700e-01 5.982619e-01 6.420003e-01 1.795756e+00 4.931739e+00 1.532671e+00 7.226394e+00 6.662443e+00 -4.728318e+00 -3.716019e+00 -3.158761e+00 -2.487254e+00 -1.837602e+00 -1.308628e+00 -9.043972e-01 -6.088277e-01 -3.969537e-01 -2.482327e-01 -1.459641e-01 -7.904185e-02 -3.783661e-02 -1.411692e-02 8.266265e-04 1.582458e-02 3.968221e-02 8.132270e-02 1.492793e-01 2.537870e-01 4.071212e-01 6.278111e-01 9.395830e-01 1.371987e+00 1.946938e+00 2.668611e+00 3.447291e+00 4.192944e+00 5.503286e+00 -6.195137e+00 -8.103889e+00 -2.284481e+00 -4.741282e+00 -1.645201e+00 -4.282315e-01 -3.887614e-01 -7.810882e-01 -1.183015e+00 -1.435773e+00 -1.498557e+00 -1.403655e+00 -1.204312e+00 -9.551089e-01 -6.951945e-01 -4.467278e-01 -2.150910e-01 
2.975504e-03 1.197310e-01 2.435398e-01 3.778922e-01 5.203599e-01 6.596592e-01 7.754884e-01 8.394185e-01 8.237123e-01 7.115556e-01 5.237300e-01 3.411713e-01 3.820733e-01 1.053233e+00 2.617368e+00 9.938120e-01 3.645005e+00 3.238786e+00 -2.287573e+00 -1.804291e+00 -1.561474e+00 -1.258496e+00 -9.427422e-01 -6.790958e-01 -4.742846e-01 -3.230975e-01 -2.138267e-01 -1.364114e-01 -8.249774e-02 -4.648911e-02 -2.348992e-02 -9.335183e-03 3.898808e-04 1.014832e-02 2.439335e-02 4.765591e-02 8.427384e-02 1.394789e-01 2.195261e-01 3.337745e-01 4.940449e-01 7.144421e-01 1.003170e+00 1.357320e+00 1.716801e+00 2.057611e+00 2.666116e+00 -2.950825e+00 -3.916708e+00 -1.311973e+00 -2.614650e+00 -1.043679e+00 -2.948677e-01 -2.391311e-01 -4.340938e-01 -6.407589e-01 -7.706389e-01 -8.006767e-01 -7.476114e-01 -6.397455e-01 -5.061305e-01 -3.675647e-01 -2.357364e-01 -1.133264e-01 
4.715826e-14 3.911021e-14 4.301463e-14 3.615765e-14 3.788024e-14 -3.161997e-14 -7.698413e-14 -1.632234e-13 -2.636755e-13 -3.461361e-13 -2.572913e-13 3.637619e-13 2.974835e-12 7.619977e-12 4.217902e-12 2.350022e-12 3.504484e-11 3.148020e-11 -5.377711e-12 -8.929068e-12 -7.754910e-12 -6.450803e-12 -4.856103e-12 -3.512046e-12 -2.410201e-12 -1.628782e-12 -1.099681e-12 -7.215881e-13 -4.535898e-13 -3.081052e-13 -2.028093e-13 -1.655733e-13 -1.365723e-13 -1.154840e-13 -9.648821e-14 -5.473551e-14 -3.470307e-14 1.051791e-13 3.154311e-13 7.283860e-13 1.472778e-12 2.628268e-12 4.423026e-12 6.966394e-12 9.481128e-12 9.525551e-12 -1.478476e-12 -2.609215e-11 -3.750064e-11 -2.361084e-11 -5.396772e-12 3.944275e-12 5.602006e-12 4.272943e-12 3.023946e-12 2.004461e-12 1.269709e-12 8.003095e-13 4.917904e-13 3.081150e-13 1.858710e-13 1.401002e-13 7.198320e-14 5.617892e-14 
-2.975504e-03 -1.197310e-01 -2.435398e-01 -3.778922e-01 -5.203599e-01 -6.596592e-01 -7.754884e-01 -8.394185e-01 -8.237123e-01 -7.115556e-01 -5.237300e-01 -3.411713e-01 -3.820733e-01 -1.053233e+00 -2.617368e+00 -9.938120e-01 -3.645005e+00 -3.238786e+00 2.287573e+00 1.804291e+00 1.561474e+00 1.258496e+00 9.427422e-01 6.790958e-01 4.742846e-01 3.230975e-01 2.138267e-01 1.364114e-01 8.249774e-02 4.648911e-02 2.348992e-02 9.335183e-03 -3.898808e-04 -1.014832e-02 -2.439335e-02 -4.765591e-02 -8.427384e-02 -1.394789e-01 -2.195261e-01 -3.337745e-01 -4.940449e-01 -7.144421e-01 -1.003170e+00 -1.357320e+00 -1.716801e+00 -2.057611e+00 -2.666116e+00 2.950825e+00 3.916708e+00 1.311973e+00 2.614650e+00 1.043679e+00 2.948677e-01 2.391311e-01 4.340938e-01 6.407589e-01 7.706389e-01 8.006767e-01 7.476114e-01 6.397455e-01 5.061305e-01 3.675647e-01 2.357364e-01 1.133264e-01 