# vtk DataFile Version 2.0
Comment goes here
ASCII

DATASET STRUCTURED_POINTS
FIELD FieldData 1
TIME 1 1 double
0.97000000
DIMENSIONS    64   64   1

ORIGIN    0.000   0.000   0.000
SPACING   0.015625 0.015625   1.000

POINT_DATA   4096
SCALARS P double
LOOKUP_TABLE default

-4.233134e+00 -4.229500e+00 -4.230213e+00 -4.222680e+00 -4.220556e+00 -4.209073e+00 -4.203961e+00 -4.188490e+00 -4.180176e+00 -4.160758e+00 -4.149016e+00 -4.125861e+00 -4.110524e+00 -4.084124e+00 -4.065156e+00 -4.036389e+00 -4.013961e+00 -3.984146e+00 -3.958682e+00 -3.929525e+00 -3.901731e+00 -3.875118e+00 -3.845971e+00 -3.823628e+00 -3.794389e+00 -3.777552e+00 -3.749799e+00 -3.739110e+00 -3.714792e+00 -3.710557e+00 -3.691991e+00 -3.694490e+00 -3.683836e+00 -3.693055e+00 -3.691421e+00 -3.706550e+00 -3.713648e+00 -3.733279e+00 -3.748014e+00 -3.770816e+00 -3.791880e+00 -3.816874e+00 -3.842743e+00 -3.869074e+00 -3.897913e+00 -3.924669e+00 -3.954487e+00 -3.980671e+00 -4.009628e+00 -4.034246e+00 -4.060910e+00 -4.083096e+00 -4.106555e+00 -4.125653e+00 -4.145480e+00 -4.161059e+00 -4.177198e+00 -4.189023e+00 -4.201640e+00 -4.209612e+00 -4.218967e+00 -4.223066e+00 -4.229405e+00 -4.229640e+00 
-4.232072e+00 -4.227671e+00 -4.229269e+00 -4.220924e+00 -4.219529e+00 -4.207199e+00 -4.202599e+00 -4.186253e+00 -4.178150e+00 -4.157829e+00 -4.145886e+00 -4.121796e+00 -4.105704e+00 -4.078311e+00 -4.057882e+00 -4.028003e+00 -4.003267e+00 -3.972108e+00 -3.943414e+00 -3.912513e+00 -3.880621e+00 -3.851689e+00 -3.817836e+00 -3.792532e+00 -3.758497e+00 -3.738252e+00 -3.706363e+00 -3.692324e+00 -3.665302e+00 -3.658366e+00 -3.638826e+00 -3.639624e+00 -3.629517e+00 -3.638246e+00 -3.638349e+00 -3.654480e+00 -3.664276e+00 -3.686569e+00 -3.704636e+00 -3.731425e+00 -3.755903e+00 -3.785408e+00 -3.814284e+00 -3.844906e+00 -3.876162e+00 -3.906519e+00 -3.938233e+00 -3.967135e+00 -3.997637e+00 -4.024098e+00 -4.052117e+00 -4.075388e+00 -4.100119e+00 -4.119703e+00 -4.140772e+00 -4.156395e+00 -4.173757e+00 -4.185315e+00 -4.199129e+00 -4.206625e+00 -4.217132e+00 -4.220618e+00 -4.228046e+00 -4.227575e+00 
-4.236908e+00 -4.233282e+00 -4.234001e+00 -4.226461e+00 -4.224371e+00 -4.212855e+00 -4.207795e+00 -4.192246e+00 -4.183988e+00 -4.164415e+00 -4.152717e+00 -4.129293e+00 -4.113968e+00 -4.087146e+00 -4.068132e+00 -4.038765e+00 -4.016199e+00 -3.985614e+00 -3.959882e+00 -3.929850e+00 -3.901608e+00 -3.874136e+00 -3.844323e+00 -3.821287e+00 -3.791159e+00 -3.773891e+00 -3.745073e+00 -3.734179e+00 -3.708709e+00 -3.704395e+00 -3.684841e+00 -3.687429e+00 -3.676261e+00 -3.685860e+00 -3.684293e+00 -3.700032e+00 -3.707608e+00 -3.727884e+00 -3.743318e+00 -3.766698e+00 -3.788637e+00 -3.814166e+00 -3.841037e+00 -3.867865e+00 -3.897699e+00 -3.924913e+00 -3.955582e+00 -3.982176e+00 -4.011762e+00 -4.036734e+00 -4.063793e+00 -4.086267e+00 -4.109922e+00 -4.129240e+00 -4.149119e+00 -4.164856e+00 -4.180962e+00 -4.192892e+00 -4.205439e+00 -4.213477e+00 -4.222759e+00 -4.226897e+00 -4.233182e+00 -4.233438e+00 
-4.239802e+00 -4.235400e+00 -4.237053e+00 -4.228685e+00 -4.227417e+00 -4.215017e+00 -4.210605e+00 -4.194101e+00 -4.186226e+00 -4.165603e+00 -4.153891e+00 -4.129289e+00 -4.113377e+00 -4.085202e+00 -4.064821e+00 -4.033857e+00 -4.008921e+00 -3.976389e+00 -3.947098e+00 -3.914617e+00 -3.881562e+00 -3.850970e+00 -3.815259e+00 -3.788365e+00 -3.751792e+00 -3.730175e+00 -3.695382e+00 -3.680348e+00 -3.650729e+00 -3.643285e+00 -3.621986e+00 -3.622759e+00 -3.611955e+00 -3.621159e+00 -3.621626e+00 -3.638799e+00 -3.649871e+00 -3.673784e+00 -3.693799e+00 -3.722546e+00 -3.749269e+00 -3.780595e+00 -3.811669e+00 -3.843763e+00 -3.876950e+00 -3.908421e+00 -3.941672e+00 -3.971393e+00 -4.002993e+00 -4.030045e+00 -4.058747e+00 -4.082434e+00 -4.107504e+00 -4.127369e+00 -4.148529e+00 -4.164332e+00 -4.181635e+00 -4.193301e+00 -4.206990e+00 -4.214545e+00 -4.224926e+00 -4.228441e+00 -4.235783e+00 -4.235326e+00 
-4.248233e+00 -4.244634e+00 -4.245378e+00 -4.237831e+00 -4.235853e+00 -4.224265e+00 -4.219375e+00 -4.203626e+00 -4.195558e+00 -4.175564e+00 -4.164025e+00 -4.139836e+00 -4.124575e+00 -4.096514e+00 -4.077392e+00 -4.046214e+00 -4.023269e+00 -3.990307e+00 -3.963801e+00 -3.931006e+00 -3.901444e+00 -3.871227e+00 -3.839404e+00 -3.814175e+00 -3.781311e+00 -3.762768e+00 -3.730649e+00 -3.719234e+00 -3.690054e+00 -3.685473e+00 -3.662665e+00 -3.665425e+00 -3.652613e+00 -3.663403e+00 -3.662192e+00 -3.679927e+00 -3.689114e+00 -3.711424e+00 -3.729006e+00 -3.754111e+00 -3.778752e+00 -3.805900e+00 -3.835930e+00 -3.864272e+00 -3.897246e+00 -3.925857e+00 -3.959173e+00 -3.987024e+00 -4.018516e+00 -4.044564e+00 -4.072775e+00 -4.096115e+00 -4.120299e+00 -4.140268e+00 -4.160244e+00 -4.176437e+00 -4.192391e+00 -4.204619e+00 -4.216916e+00 -4.225135e+00 -4.234173e+00 -4.238415e+00 -4.244526e+00 -4.244838e+00 
-4.255247e+00 -4.250853e+00 -4.252619e+00 -4.244233e+00 -4.243237e+00 -4.230747e+00 -4.226741e+00 -4.209989e+00 -4.202612e+00 -4.181462e+00 -4.170275e+00 -4.144718e+00 -4.129254e+00 -4.099552e+00 -4.079381e+00 -4.046225e+00 -4.021028e+00 -3.985656e+00 -3.955316e+00 -3.919511e+00 -3.884229e+00 -3.850122e+00 -3.810638e+00 -3.780357e+00 -3.738354e+00 -3.713791e+00 -3.672482e+00 -3.655332e+00 -3.619988e+00 -3.611574e+00 -3.586572e+00 -3.587326e+00 -3.575148e+00 -3.585221e+00 -3.586516e+00 -3.605708e+00 -3.619537e+00 -3.646918e+00 -3.671218e+00 -3.704385e+00 -3.736001e+00 -3.771231e+00 -3.806977e+00 -3.842075e+00 -3.879293e+00 -3.912966e+00 -3.949368e+00 -3.980684e+00 -4.014472e+00 -4.042665e+00 -4.072662e+00 -4.097141e+00 -4.122787e+00 -4.143176e+00 -4.164411e+00 -4.180537e+00 -4.197627e+00 -4.209474e+00 -4.222840e+00 -4.230485e+00 -4.240562e+00 -4.244117e+00 -4.251260e+00 -4.250821e+00 
-4.267106e+00 -4.263557e+00 -4.264365e+00 -4.256846e+00 -4.255097e+00 -4.243468e+00 -4.238922e+00 -4.222960e+00 -4.215282e+00 -4.194737e+00 -4.183550e+00 -4.158243e+00 -4.143188e+00 -4.113174e+00 -4.093980e+00 -4.059774e+00 -4.036316e+00 -3.999160e+00 -3.971488e+00 -3.933588e+00 -3.901919e+00 -3.866459e+00 -3.831241e+00 -3.801855e+00 -3.764179e+00 -3.743596e+00 -3.705712e+00 -3.693905e+00 -3.657574e+00 -3.652418e+00 -3.623028e+00 -3.625577e+00 -3.609646e+00 -3.622616e+00 -3.622683e+00 -3.644453e+00 -3.657031e+00 -3.683098e+00 -3.704315e+00 -3.732166e+00 -3.761532e+00 -3.791477e+00 -3.827402e+00 -3.858374e+00 -3.897182e+00 -3.928220e+00 -3.966271e+00 -3.996303e+00 -4.031017e+00 -4.058909e+00 -4.088902e+00 -4.113688e+00 -4.138539e+00 -4.159558e+00 -4.179474e+00 -4.196371e+00 -4.211887e+00 -4.224549e+00 -4.236295e+00 -4.244757e+00 -4.253306e+00 -4.257676e+00 -4.263458e+00 -4.263843e+00 
-4.278343e+00 -4.273981e+00 -4.275932e+00 -4.267589e+00 -4.267044e+00 -4.254541e+00 -4.251218e+00 -4.234268e+00 -4.227749e+00 -4.206013e+00 -4.195771e+00 -4.168981e+00 -4.154407e+00 -4.122542e+00 -4.102978e+00 -4.066509e+00 -4.041288e+00 -4.001416e+00 -3.969906e+00 -3.928674e+00 -3.890370e+00 -3.850441e+00 -3.805250e+00 -3.769307e+00 -3.718278e+00 -3.688645e+00 -3.635229e+00 -3.614473e+00 -3.569032e+00 -3.559513e+00 -3.528705e+00 -3.529697e+00 -3.515654e+00 -3.526666e+00 -3.529357e+00 -3.551045e+00 -3.569375e+00 -3.602519e+00 -3.634412e+00 -3.676051e+00 -3.716223e+00 -3.758005e+00 -3.801498e+00 -3.841186e+00 -3.884898e+00 -3.921772e+00 -3.963086e+00 -3.996675e+00 -4.033699e+00 -4.063491e+00 -4.095226e+00 -4.120784e+00 -4.147016e+00 -4.168082e+00 -4.189145e+00 -4.205654e+00 -4.222178e+00 -4.234206e+00 -4.246900e+00 -4.254606e+00 -4.264104e+00 -4.267668e+00 -4.274445e+00 -4.274014e+00 
-4.293462e+00 -4.289989e+00 -4.290936e+00 -4.283537e+00 -4.282197e+00 -4.270681e+00 -4.266738e+00 -4.250744e+00 -4.243768e+00 -4.222800e+00 -4.212292e+00 -4.185810e+00 -4.171257e+00 -4.138843e+00 -4.119786e+00 -4.081429e+00 -4.057514e+00 -4.014064e+00 -3.985049e+00 -3.938833e+00 -3.904468e+00 -3.859858e+00 -3.819813e+00 -3.783043e+00 -3.737858e+00 -3.714716e+00 -3.668885e+00 -3.658487e+00 -3.609502e+00 -3.603124e+00 -3.561216e+00 -3.561551e+00 -3.540239e+00 -3.556778e+00 -3.560953e+00 -3.590523e+00 -3.609911e+00 -3.642187e+00 -3.667824e+00 -3.698584e+00 -3.734894e+00 -3.769281e+00 -3.815318e+00 -3.850295e+00 -3.898843e+00 -3.933540e+00 -3.978920e+00 -4.012221e+00 -4.051425e+00 -4.082005e+00 -4.114079e+00 -4.140876e+00 -4.166118e+00 -4.188509e+00 -4.207832e+00 -4.225574e+00 -4.240075e+00 -4.253193e+00 -4.263890e+00 -4.272559e+00 -4.280260e+00 -4.284707e+00 -4.289955e+00 -4.290385e+00 
-4.308908e+00 -4.304618e+00 -4.306847e+00 -4.298685e+00 -4.298823e+00 -4.286539e+00 -4.284256e+00 -4.267389e+00 -4.262206e+00 -4.240124e+00 -4.231424e+00 -4.203442e+00 -4.190462e+00 -4.156055e+00 -4.137869e+00 -4.097024e+00 -4.072516e+00 -4.026200e+00 -3.994020e+00 -3.944611e+00 -3.903136e+00 -3.854290e+00 -3.801856e+00 -3.757224e+00 -3.693145e+00 -3.655140e+00 -3.578855e+00 -3.551936e+00 -3.489688e+00 -3.480502e+00 -3.442523e+00 -3.445165e+00 -3.429614e+00 -3.440606e+00 -3.444931e+00 -3.467308e+00 -3.491473e+00 -3.533062e+00 -3.577956e+00 -3.636928e+00 -3.691520e+00 -3.742928e+00 -3.798040e+00 -3.843642e+00 -3.896861e+00 -3.937672e+00 -3.985854e+00 -4.022217e+00 -4.063367e+00 -4.095070e+00 -4.128617e+00 -4.155391e+00 -4.181784e+00 -4.203536e+00 -4.223777e+00 -4.240595e+00 -4.255877e+00 -4.267970e+00 -4.279413e+00 -4.287055e+00 -4.295558e+00 -4.299031e+00 -4.305206e+00 -4.304738e+00 
-4.327082e+00 -4.323700e+00 -4.324922e+00 -4.317802e+00 -4.317147e+00 -4.306059e+00 -4.303106e+00 -4.287535e+00 -4.281731e+00 -4.260875e+00 -4.251572e+00 -4.224388e+00 -4.210875e+00 -4.176199e+00 -4.157757e+00 -4.114575e+00 -4.090549e+00 -4.038587e+00 -4.008404e+00 -3.949354e+00 -3.912240e+00 -3.851721e+00 -3.805730e+00 -3.755012e+00 -3.697444e+00 -3.672075e+00 -3.620601e+00 -3.619768e+00 -3.547407e+00 -3.538047e+00 -3.471412e+00 -3.461820e+00 -3.430956e+00 -3.453617e+00 -3.470519e+00 -3.516370e+00 -3.550507e+00 -3.593161e+00 -3.619142e+00 -3.648175e+00 -3.693277e+00 -3.735959e+00 -3.800197e+00 -3.840805e+00 -3.905262e+00 -3.945137e+00 -4.000973e+00 -4.038913e+00 -4.083447e+00 -4.117637e+00 -4.151322e+00 -4.180597e+00 -4.205192e+00 -4.229097e+00 -4.246680e+00 -4.265217e+00 -4.277690e+00 -4.291113e+00 -4.299991e+00 -4.308678e+00 -4.315029e+00 -4.319386e+00 -4.323851e+00 -4.324228e+00 
-4.346540e+00 -4.342362e+00 -4.345005e+00 -4.337249e+00 -4.338370e+00 -4.326730e+00 -4.325939e+00 -4.309764e+00 -4.306532e+00 -4.284813e+00 -4.278467e+00 -4.249913e+00 -4.239576e+00 -4.202824e+00 -4.187311e+00 -4.141356e+00 -4.119046e+00 -4.064053e+00 -4.032720e+00 -3.971292e+00 -3.927808e+00 -3.865780e+00 -3.806144e+00 -3.749635e+00 -3.672838e+00 -3.621377e+00 -3.496492e+00 -3.457294e+00 -3.367755e+00 -3.366577e+00 -3.324942e+00 -3.334617e+00 -3.320832e+00 -3.328114e+00 -3.332299e+00 -3.345227e+00 -3.372636e+00 -3.423579e+00 -3.491472e+00 -3.592653e+00 -3.672209e+00 -3.732586e+00 -3.802665e+00 -3.854029e+00 -3.920428e+00 -3.965332e+00 -4.022517e+00 -4.061920e+00 -4.107623e+00 -4.141315e+00 -4.176000e+00 -4.203862e+00 -4.229232e+00 -4.251433e+00 -4.269567e+00 -4.286419e+00 -4.299314e+00 -4.311193e+00 -4.320505e+00 -4.327824e+00 -4.334750e+00 -4.337927e+00 -4.343199e+00 -4.342591e+00 
-4.367462e+00 -4.364141e+00 -4.365875e+00 -4.359244e+00 -4.359676e+00 -4.349510e+00 -4.348087e+00 -4.333742e+00 -4.329784e+00 -4.310140e+00 -4.302847e+00 -4.276275e+00 -4.264709e+00 -4.229054e+00 -4.212140e+00 -4.164735e+00 -4.141347e+00 -4.079375e+00 -4.048612e+00 -3.970887e+00 -3.932271e+00 -3.843927e+00 -3.794072e+00 -3.713189e+00 -3.626262e+00 -3.600548e+00 -3.572668e+00 -3.614348e+00 -3.490745e+00 -3.472242e+00 -3.353717e+00 -3.305505e+00 -3.254968e+00 -3.291513e+00 -3.348150e+00 -3.432497e+00 -3.504677e+00 -3.567896e+00 -3.565888e+00 -3.564490e+00 -3.618606e+00 -3.685627e+00 -3.787793e+00 -3.833627e+00 -3.923343e+00 -3.970270e+00 -4.039405e+00 -4.083898e+00 -4.133122e+00 -4.171826e+00 -4.205048e+00 -4.236940e+00 -4.258551e+00 -4.283743e+00 -4.297532e+00 -4.316492e+00 -4.325364e+00 -4.338677e+00 -4.344666e+00 -4.352968e+00 -4.357347e+00 -4.361276e+00 -4.364698e+00 -4.364810e+00 
-4.390471e+00 -4.386407e+00 -4.389673e+00 -4.382613e+00 -4.385095e+00 -4.374745e+00 -4.375979e+00 -4.361528e+00 -4.360976e+00 -4.341008e+00 -4.338042e+00 -4.310508e+00 -4.304277e+00 -4.266566e+00 -4.255722e+00 -4.204937e+00 -4.187305e+00 -4.121253e+00 -4.093655e+00 -4.014043e+00 -3.971741e+00 -3.889781e+00 -3.823465e+00 -3.755617e+00 -3.698367e+00 -3.626973e+00 -3.374037e+00 -3.301372e+00 -3.170105e+00 -3.207460e+00 -3.186509e+00 -3.220248e+00 -3.220083e+00 -3.214462e+00 -3.209356e+00 -3.175687e+00 -3.186867e+00 -3.232740e+00 -3.345915e+00 -3.577074e+00 -3.704491e+00 -3.742686e+00 -3.821920e+00 -3.877144e+00 -3.962699e+00 -4.011473e+00 -4.080186e+00 -4.122950e+00 -4.172543e+00 -4.207995e+00 -4.241697e+00 -4.270032e+00 -4.291932e+00 -4.313940e+00 -4.327743e+00 -4.344076e+00 -4.352827e+00 -4.364006e+00 -4.369962e+00 -4.376526e+00 -4.381145e+00 -4.383674e+00 -4.387719e+00 -4.386758e+00 
-4.413648e+00 -4.410261e+00 -4.412885e+00 -4.406957e+00 -4.409023e+00 -4.400424e+00 -4.401235e+00 -4.389280e+00 -4.388061e+00 -4.371401e+00 -4.367278e+00 -4.343793e+00 -4.335655e+00 -4.302211e+00 -4.288460e+00 -4.240208e+00 -4.218618e+00 -4.147979e+00 -4.116624e+00 -4.014532e+00 -3.976705e+00 -3.841875e+00 -3.813527e+00 -3.654384e+00 -3.443541e+00 -3.405214e+00 -3.560377e+00 -3.779016e+00 -3.505868e+00 -3.450992e+00 -3.222789e+00 -3.027220e+00 -2.921917e+00 -3.007954e+00 -3.191054e+00 -3.375309e+00 -3.572537e+00 -3.696925e+00 -3.527573e+00 -3.357492e+00 -3.429974e+00 -3.609956e+00 -3.810952e+00 -3.840543e+00 -3.963992e+00 -4.022485e+00 -4.104752e+00 -4.159474e+00 -4.209398e+00 -4.253273e+00 -4.281144e+00 -4.314953e+00 -4.329289e+00 -4.354837e+00 -4.361602e+00 -4.380145e+00 -4.383226e+00 -4.395682e+00 -4.397457e+00 -4.404706e+00 -4.406448e+00 -4.409391e+00 -4.411585e+00 -4.411048e+00 
-4.439405e+00 -4.435343e+00 -4.439562e+00 -4.433486e+00 -4.437792e+00 -4.429550e+00 -4.433382e+00 -4.422137e+00 -4.425023e+00 -4.409060e+00 -4.410636e+00 -4.387174e+00 -4.386949e+00 -4.351851e+00 -4.348474e+00 -4.295592e+00 -4.285927e+00 -4.206782e+00 -4.186782e+00 -4.076600e+00 -4.043883e+00 -3.924838e+00 -3.818290e+00 -3.756470e+00 -3.927400e+00 -3.743315e+00 -2.575509e+00 -1.645163e+00 -4.591552e-02 1.609191e+00 2.725909e+00 3.675980e+00 4.004077e+00 3.754615e+00 3.003421e+00 1.816927e+00 2.660875e-01 -1.157689e+00 -2.380352e+00 -3.665399e+00 -3.983195e+00 -3.785672e+00 -3.818565e+00 -3.901840e+00 -4.030371e+00 -4.083454e+00 -4.167043e+00 -4.215275e+00 -4.265932e+00 -4.302811e+00 -4.331018e+00 -4.358359e+00 -4.372448e+00 -4.393003e+00 -4.398977e+00 -4.413917e+00 -4.416044e+00 -4.425834e+00 -4.426897e+00 -4.432080e+00 -4.433607e+00 -4.434940e+00 -4.437515e+00 -4.435814e+00 
-4.464066e+00 -4.460298e+00 -4.464387e+00 -4.459283e+00 -4.463681e+00 -4.457344e+00 -4.461207e+00 -4.453075e+00 -4.455641e+00 -4.444353e+00 -4.444927e+00 -4.428235e+00 -4.425820e+00 -4.400197e+00 -4.392419e+00 -4.351094e+00 -4.332730e+00 -4.261192e+00 -4.224465e+00 -4.097819e+00 -4.044693e+00 -3.854803e+00 -4.039092e+00 -3.490925e+00 -1.174522e+00 1.417331e+00 5.424689e+00 8.429575e+00 9.940330e+00 1.157456e+01 1.221465e+01 1.269952e+01 1.279867e+01 1.273031e+01 1.240659e+01 1.165133e+01 1.039152e+01 8.807715e+00 5.769309e+00 2.051271e+00 -7.500427e-01 -3.236958e+00 -4.058201e+00 -3.896857e+00 -4.016812e+00 -4.119914e+00 -4.207757e+00 -4.281361e+00 -4.323040e+00 -4.371938e+00 -4.385948e+00 -4.419324e+00 -4.419734e+00 -4.443641e+00 -4.438915e+00 -4.455660e+00 -4.450277e+00 -4.460797e+00 -4.456978e+00 -4.462219e+00 -4.460816e+00 -4.461940e+00 -4.462952e+00 -4.461139e+00 
-4.491372e+00 -4.486961e+00 -4.492666e+00 -4.487713e+00 -4.494396e+00 -4.489107e+00 -4.496054e+00 -4.489836e+00 -4.496734e+00 -4.487907e+00 -4.495047e+00 -4.480497e+00 -4.488413e+00 -4.462754e+00 -4.470128e+00 -4.422779e+00 -4.423175e+00 -4.332696e+00 -4.320975e+00 -4.157229e+00 -4.198680e+00 -3.738389e+00 -1.476449e+00 2.434630e+00 7.240604e+00 1.029939e+01 1.217555e+01 1.330166e+01 1.316693e+01 1.314400e+01 1.302542e+01 1.294404e+01 1.290692e+01 1.293161e+01 1.304687e+01 1.309422e+01 1.325463e+01 1.321055e+01 1.233977e+01 1.084236e+01 7.897479e+00 3.261129e+00 -9.694287e-01 -3.506751e+00 -4.174139e+00 -4.201509e+00 -4.287904e+00 -4.350401e+00 -4.394327e+00 -4.433157e+00 -4.448670e+00 -4.472335e+00 -4.472084e+00 -4.489227e+00 -4.482401e+00 -4.494905e+00 -4.487233e+00 -4.494851e+00 -4.489354e+00 -4.492339e+00 -4.490163e+00 -4.489485e+00 -4.490626e+00 -4.487521e+00 
-4.516416e+00 -4.511644e+00 -4.518031e+00 -4.513625e+00 -4.521180e+00 -4.517668e+00 -4.525385e+00 -4.522557e+00 -4.529863e+00 -4.526620e+00 -4.533535e+00 -4.527924e+00 -4.534309e+00 -4.523407e+00 -4.525743e+00 -4.502787e+00 -4.490973e+00 -4.439103e+00 -4.395397e+00 -4.243862e+00 -3.105052e+00 8.927783e-01 6.648418e+00 1.082826e+01 1.284984e+01 1.326308e+01 1.302845e+01 1.286704e+01 1.273707e+01 1.276233e+01 1.276455e+01 1.283851e+01 1.284050e+01 1.283661e+01 1.280445e+01 1.274247e+01 1.277485e+01 1.282072e+01 1.304651e+01 1.324985e+01 1.295676e+01 1.131255e+01 7.532700e+00 1.975726e+00 -2.671325e+00 -4.233762e+00 -4.377202e+00 -4.465256e+00 -4.483248e+00 -4.532782e+00 -4.522203e+00 -4.550729e+00 -4.528913e+00 -4.548300e+00 -4.526861e+00 -4.540189e+00 -4.523637e+00 -4.530981e+00 -4.520548e+00 -4.522558e+00 -4.517990e+00 -4.516127e+00 -4.516466e+00 -4.512408e+00 
-4.543708e+00 -4.538179e+00 -4.546218e+00 -4.542150e+00 -4.551880e+00 -4.550125e+00 -4.560531e+00 -4.561163e+00 -4.572085e+00 -4.574018e+00 -4.586899e+00 -4.587348e+00 -4.604945e+00 -4.598157e+00 -4.619131e+00 -4.592343e+00 -4.600722e+00 -4.527101e+00 -4.374985e+00 -2.519799e+00 3.048379e+00 9.264917e+00 1.247439e+01 1.313947e+01 1.304514e+01 1.285474e+01 1.291149e+01 1.310474e+01 1.307476e+01 1.312555e+01 1.307976e+01 1.307793e+01 1.306083e+01 1.306926e+01 1.309540e+01 1.309963e+01 1.310824e+01 1.307088e+01 1.293168e+01 1.285740e+01 1.300901e+01 1.312193e+01 1.279950e+01 1.012965e+01 4.062843e+00 -1.766231e+00 -4.179136e+00 -4.536326e+00 -4.558697e+00 -4.597869e+00 -4.594517e+00 -4.610287e+00 -4.588140e+00 -4.600049e+00 -4.574062e+00 -4.583659e+00 -4.562581e+00 -4.567428e+00 -4.554025e+00 -4.553789e+00 -4.547900e+00 -4.544008e+00 -4.544345e+00 -4.538741e+00 
-4.567757e+00 -4.560891e+00 -4.570747e+00 -4.566463e+00 -4.578110e+00 -4.577602e+00 -4.589765e+00 -4.593506e+00 -4.605880e+00 -4.613205e+00 -4.627313e+00 -4.636053e+00 -4.653954e+00 -4.660882e+00 -4.675557e+00 -4.676522e+00 -4.680391e+00 -4.524329e+00 -2.278030e+00 4.153803e+00 1.069083e+01 1.313384e+01 1.324067e+01 1.308820e+01 1.313082e+01 1.314945e+01 1.307160e+01 1.303201e+01 1.296461e+01 1.296656e+01 1.294341e+01 1.296666e+01 1.295817e+01 1.296318e+01 1.295969e+01 1.295339e+01 1.298337e+01 1.300989e+01 1.308407e+01 1.313258e+01 1.313590e+01 1.307302e+01 1.323158e+01 1.318235e+01 1.136364e+01 5.564073e+00 -1.484115e+00 -4.444698e+00 -4.682288e+00 -4.720171e+00 -4.678047e+00 -4.699073e+00 -4.648011e+00 -4.661325e+00 -4.618513e+00 -4.627702e+00 -4.598083e+00 -4.601196e+00 -4.584160e+00 -4.581431e+00 -4.574651e+00 -4.568177e+00 -4.569121e+00 -4.561373e+00 
-4.593284e+00 -4.585232e+00 -4.596931e+00 -4.592833e+00 -4.606522e+00 -4.608186e+00 -4.622209e+00 -4.630983e+00 -4.644864e+00 -4.660963e+00 -4.677361e+00 -4.698122e+00 -4.723944e+00 -4.741095e+00 -4.778288e+00 -4.784898e+00 -4.768421e+00 -2.860617e+00 3.924928e+00 1.108602e+01 1.327119e+01 1.325123e+01 1.325414e+01 1.321777e+01 1.318280e+01 1.312913e+01 1.312423e+01 1.316948e+01 1.315211e+01 1.318332e+01 1.316090e+01 1.317298e+01 1.316053e+01 1.316764e+01 1.316853e+01 1.316862e+01 1.316455e+01 1.315056e+01 1.312950e+01 1.311372e+01 1.316979e+01 1.318794e+01 1.324297e+01 1.319588e+01 1.329123e+01 1.175318e+01 5.239915e+00 -2.001933e+00 -4.623150e+00 -4.775205e+00 -4.757061e+00 -4.759557e+00 -4.709281e+00 -4.718251e+00 -4.665128e+00 -4.673906e+00 -4.635945e+00 -4.637926e+00 -4.616477e+00 -4.611552e+00 -4.603249e+00 -4.594281e+00 -4.595466e+00 -4.585628e+00 
-4.614899e+00 -4.604217e+00 -4.619151e+00 -4.613711e+00 -4.630591e+00 -4.632562e+00 -4.649453e+00 -4.660680e+00 -4.676995e+00 -4.697657e+00 -4.717092e+00 -4.741643e+00 -4.772724e+00 -4.788954e+00 -4.804625e+00 -4.893792e+00 -3.921060e+00 2.526589e+00 1.058526e+01 1.333138e+01 1.337162e+01 1.336752e+01 1.332004e+01 1.326425e+01 1.324205e+01 1.322105e+01 1.317617e+01 1.315661e+01 1.311450e+01 1.311134e+01 1.308693e+01 1.309533e+01 1.308431e+01 1.309236e+01 1.309294e+01 1.310218e+01 1.312137e+01 1.314259e+01 1.317910e+01 1.320626e+01 1.323815e+01 1.324788e+01 1.330724e+01 1.334738e+01 1.335433e+01 1.335874e+01 1.156569e+01 4.231758e+00 -3.212627e+00 -4.964329e+00 -4.815949e+00 -4.840320e+00 -4.757793e+00 -4.769007e+00 -4.702352e+00 -4.709573e+00 -4.666802e+00 -4.664981e+00 -4.643296e+00 -4.633678e+00 -4.627233e+00 -4.613775e+00 -4.617689e+00 -4.604152e+00 
-4.637065e+00 -4.624296e+00 -4.641624e+00 -4.635580e+00 -4.654724e+00 -4.658410e+00 -4.676481e+00 -4.693513e+00 -4.708060e+00 -4.741556e+00 -4.754060e+00 -4.799721e+00 -4.822877e+00 -4.851299e+00 -4.909225e+00 -4.727987e+00 1.351034e-01 9.080552e+00 1.330452e+01 1.344279e+01 1.345316e+01 1.338983e+01 1.337391e+01 1.333322e+01 1.330699e+01 1.327922e+01 1.326039e+01 1.326709e+01 1.324878e+01 1.326226e+01 1.324515e+01 1.325570e+01 1.324415e+01 1.325230e+01 1.324755e+01 1.325281e+01 1.325147e+01 1.325366e+01 1.325878e+01 1.326319e+01 1.329850e+01 1.331011e+01 1.336530e+01 1.336133e+01 1.345182e+01 1.343587e+01 1.347135e+01 1.027189e+01 1.444114e+00 -4.484737e+00 -4.956914e+00 -4.899050e+00 -4.810888e+00 -4.834938e+00 -4.741270e+00 -4.757074e+00 -4.700255e+00 -4.699048e+00 -4.672466e+00 -4.659925e+00 -4.652886e+00 -4.635776e+00 -4.640936e+00 -4.624264e+00 
-4.655107e+00 -4.638175e+00 -4.660337e+00 -4.651448e+00 -4.675305e+00 -4.677864e+00 -4.700008e+00 -4.718958e+00 -4.735789e+00 -4.775794e+00 -4.790615e+00 -4.837279e+00 -4.897843e+00 -4.817220e+00 -5.215714e+00 -2.972990e+00 5.907828e+00 1.295806e+01 1.361471e+01 1.353249e+01 1.350177e+01 1.345779e+01 1.341721e+01 1.337561e+01 1.334004e+01 1.331334e+01 1.327566e+01 1.325896e+01 1.322558e+01 1.322050e+01 1.319743e+01 1.320182e+01 1.318960e+01 1.319955e+01 1.319825e+01 1.321382e+01 1.322501e+01 1.324871e+01 1.327107e+01 1.330085e+01 1.332927e+01 1.336080e+01 1.339800e+01 1.344157e+01 1.346760e+01 1.352641e+01 1.352577e+01 1.332474e+01 7.514762e+00 -1.777782e+00 -5.086840e+00 -4.871938e+00 -4.840878e+00 -4.856346e+00 -4.765125e+00 -4.777948e+00 -4.724334e+00 -4.715913e+00 -4.694888e+00 -4.674303e+00 -4.673095e+00 -4.648982e+00 -4.659523e+00 -4.637315e+00 
-4.672858e+00 -4.652487e+00 -4.678060e+00 -4.666925e+00 -4.694211e+00 -4.696261e+00 -4.720759e+00 -4.743434e+00 -4.757256e+00 -4.812884e+00 -4.806074e+00 -4.898572e+00 -4.884720e+00 -4.906881e+00 -4.988053e+00 9.296186e-01 1.055735e+01 1.394697e+01 1.359689e+01 1.365623e+01 1.355250e+01 1.352401e+01 1.347615e+01 1.344227e+01 1.340795e+01 1.338477e+01 1.335840e+01 1.335262e+01 1.333100e+01 1.333487e+01 1.331748e+01 1.332527e+01 1.331312e+01 1.332305e+01 1.331677e+01 1.332859e+01 1.332837e+01 1.334306e+01 1.335193e+01 1.337204e+01 1.339690e+01 1.342413e+01 1.346298e+01 1.349652e+01 1.354151e+01 1.360626e+01 1.359682e+01 1.382071e+01 1.173218e+01 2.830877e+00 -4.588007e+00 -5.152850e+00 -4.806669e+00 -4.953180e+00 -4.785882e+00 -4.821992e+00 -4.752551e+00 -4.742168e+00 -4.720549e+00 -4.693434e+00 -4.695035e+00 -4.664839e+00 -4.678683e+00 -4.651750e+00 
-4.686771e+00 -4.660742e+00 -4.692714e+00 -4.676799e+00 -4.710840e+00 -4.708989e+00 -4.739907e+00 -4.762449e+00 -4.776306e+00 -4.850457e+00 -4.808414e+00 -5.004232e+00 -4.791512e+00 -5.301854e+00 -3.555903e+00 5.914719e+00 1.333557e+01 1.384916e+01 1.368060e+01 1.366337e+01 1.359628e+01 1.355223e+01 1.350335e+01 1.346373e+01 1.342165e+01 1.339368e+01 1.335582e+01 1.333908e+01 1.330747e+01 1.330162e+01 1.327862e+01 1.328241e+01 1.326872e+01 1.328069e+01 1.327643e+01 1.329659e+01 1.330196e+01 1.333114e+01 1.334553e+01 1.338307e+01 1.340584e+01 1.344913e+01 1.348407e+01 1.352802e+01 1.358633e+01 1.360710e+01 1.373820e+01 1.366126e+01 1.389686e+01 7.602980e+00 -2.585769e+00 -5.379862e+00 -4.703672e+00 -4.994526e+00 -4.789033e+00 -4.832191e+00 -4.772552e+00 -4.748114e+00 -4.739934e+00 -4.699432e+00 -4.711584e+00 -4.671392e+00 -4.693235e+00 -4.658994e+00 
-4.699733e+00 -4.668986e+00 -4.705471e+00 -4.685096e+00 -4.724846e+00 -4.717712e+00 -4.756478e+00 -4.772892e+00 -4.795559e+00 -4.869540e+00 -4.823352e+00 -5.068031e+00 -4.759689e+00 -5.591168e+00 -1.316276e+00 9.853063e+00 1.430480e+01 1.373776e+01 1.387077e+01 1.369799e+01 1.368333e+01 1.360666e+01 1.356839e+01 1.352420e+01 1.348667e+01 1.346060e+01 1.342912e+01 1.341774e+01 1.339260e+01 1.339177e+01 1.337254e+01 1.337890e+01 1.336542e+01 1.337752e+01 1.336984e+01 1.338784e+01 1.338641e+01 1.341179e+01 1.341820e+01 1.345299e+01 1.347002e+01 1.351445e+01 1.354577e+01 1.359256e+01 1.365472e+01 1.366996e+01 1.383570e+01 1.365625e+01 1.426148e+01 1.094441e+01 5.032592e-01 -5.347147e+00 -4.776752e+00 -4.992438e+00 -4.837823e+00 -4.838336e+00 -4.806626e+00 -4.756819e+00 -4.764347e+00 -4.708564e+00 -4.729904e+00 -4.680232e+00 -4.707949e+00 -4.667448e+00 
-4.709463e+00 -4.672325e+00 -4.716154e+00 -4.689035e+00 -4.738293e+00 -4.721502e+00 -4.775148e+00 -4.774221e+00 -4.823533e+00 -4.861266e+00 -4.869232e+00 -5.025408e+00 -4.849362e+00 -5.394558e+00 1.364006e+00 1.218742e+01 1.437906e+01 1.375492e+01 1.391387e+01 1.372171e+01 1.370625e+01 1.362465e+01 1.357789e+01 1.353104e+01 1.348408e+01 1.345439e+01 1.341367e+01 1.339658e+01 1.336390e+01 1.335797e+01 1.333398e+01 1.333830e+01 1.332291e+01 1.333698e+01 1.332983e+01 1.335413e+01 1.335475e+01 1.339056e+01 1.339814e+01 1.344661e+01 1.346058e+01 1.352178e+01 1.354473e+01 1.361443e+01 1.366015e+01 1.371520e+01 1.383783e+01 1.378770e+01 1.416604e+01 1.327072e+01 4.013674e+00 -4.953416e+00 -4.988756e+00 -4.908604e+00 -4.912648e+00 -4.812169e+00 -4.841371e+00 -4.748647e+00 -4.784252e+00 -4.706917e+00 -4.743279e+00 -4.681292e+00 -4.718431e+00 -4.669882e+00 
-4.717641e+00 -4.675803e+00 -4.724068e+00 -4.691336e+00 -4.747661e+00 -4.720730e+00 -4.788989e+00 -4.764879e+00 -4.849125e+00 -4.826164e+00 -4.928529e+00 -4.905197e+00 -5.020968e+00 -4.866855e+00 4.268926e+00 1.374872e+01 1.421346e+01 1.392459e+01 1.393456e+01 1.380309e+01 1.375261e+01 1.368330e+01 1.362813e+01 1.358559e+01 1.353852e+01 1.351222e+01 1.347490e+01 1.346159e+01 1.343298e+01 1.343034e+01 1.340907e+01 1.341520e+01 1.340022e+01 1.341438e+01 1.340509e+01 1.342814e+01 1.342429e+01 1.345871e+01 1.346018e+01 1.350989e+01 1.351594e+01 1.358596e+01 1.359472e+01 1.369126e+01 1.370195e+01 1.383382e+01 1.384987e+01 1.403995e+01 1.404923e+01 1.441014e+01 6.828682e+00 -4.237658e+00 -5.158128e+00 -4.819633e+00 -4.983939e+00 -4.785683e+00 -4.877279e+00 -4.742833e+00 -4.805188e+00 -4.708119e+00 -4.756961e+00 -4.684705e+00 -4.728372e+00 -4.673727e+00 
-4.723136e+00 -4.676212e+00 -4.730648e+00 -4.691769e+00 -4.757161e+00 -4.719521e+00 -4.804791e+00 -4.757045e+00 -4.879238e+00 -4.796964e+00 -4.995173e+00 -4.812269e+00 -5.192500e+00 -4.319282e+00 6.434321e+00 1.449564e+01 1.406896e+01 1.409082e+01 1.390543e+01 1.385623e+01 1.374528e+01 1.369698e+01 1.361875e+01 1.358030e+01 1.352116e+01 1.349367e+01 1.344800e+01 1.343160e+01 1.339685e+01 1.339136e+01 1.336613e+01 1.337120e+01 1.335439e+01 1.337013e+01 1.336077e+01 1.338827e+01 1.338527e+01 1.342693e+01 1.342850e+01 1.348821e+01 1.349114e+01 1.357553e+01 1.357391e+01 1.369600e+01 1.367761e+01 1.386717e+01 1.379932e+01 1.413794e+01 1.390275e+01 1.465764e+01 8.646408e+00 -3.367192e+00 -5.251568e+00 -4.764338e+00 -5.033370e+00 -4.761736e+00 -4.902238e+00 -4.732897e+00 -4.818562e+00 -4.704056e+00 -4.765025e+00 -4.683191e+00 -4.734245e+00 -4.673467e+00 
-4.726605e+00 -4.677354e+00 -4.733610e+00 -4.691617e+00 -4.760499e+00 -4.716392e+00 -4.810215e+00 -4.746659e+00 -4.890817e+00 -4.768356e+00 -5.022557e+00 -4.740685e+00 -5.252802e+00 -3.805187e+00 7.709279e+00 1.476776e+01 1.400049e+01 1.421105e+01 1.390402e+01 1.391850e+01 1.376992e+01 1.374109e+01 1.365373e+01 1.362210e+01 1.356320e+01 1.353950e+01 1.349711e+01 1.348389e+01 1.345283e+01 1.344982e+01 1.342721e+01 1.343351e+01 1.341755e+01 1.343300e+01 1.342256e+01 1.344855e+01 1.344279e+01 1.348273e+01 1.348024e+01 1.354012e+01 1.353723e+01 1.362743e+01 1.361517e+01 1.375601e+01 1.371340e+01 1.394994e+01 1.382402e+01 1.426106e+01 1.390509e+01 1.477229e+01 9.807190e+00 -2.692270e+00 -5.292697e+00 -4.731753e+00 -5.064156e+00 -4.745313e+00 -4.920509e+00 -4.727442e+00 -4.829497e+00 -4.703558e+00 -4.771959e+00 -4.684483e+00 -4.738949e+00 -4.675080e+00 
-4.727705e+00 -4.676824e+00 -4.735589e+00 -4.691598e+00 -4.764003e+00 -4.716585e+00 -4.816400e+00 -4.745883e+00 -4.901970e+00 -4.762981e+00 -5.042810e+00 -4.721857e+00 -5.284243e+00 -3.591805e+00 8.182078e+00 1.484487e+01 1.399523e+01 1.424418e+01 1.389200e+01 1.392192e+01 1.375338e+01 1.372874e+01 1.363103e+01 1.359925e+01 1.353319e+01 1.350754e+01 1.345928e+01 1.344345e+01 1.340767e+01 1.340245e+01 1.337667e+01 1.338208e+01 1.336471e+01 1.338109e+01 1.337089e+01 1.339963e+01 1.339521e+01 1.343925e+01 1.343831e+01 1.350288e+01 1.350071e+01 1.359575e+01 1.358210e+01 1.372888e+01 1.367967e+01 1.392773e+01 1.378158e+01 1.424595e+01 1.384200e+01 1.475252e+01 1.010835e+01 -2.491447e+00 -5.294238e+00 -4.735554e+00 -5.069906e+00 -4.743520e+00 -4.923942e+00 -4.725284e+00 -4.831101e+00 -4.701668e+00 -4.772751e+00 -4.682970e+00 -4.739643e+00 -4.674025e+00 