# vtk DataFile Version 2.0
Comment goes here
ASCII

DATASET STRUCTURED_POINTS
FIELD FieldData 1
TIME 1 1 double
0.06000000
DIMENSIONS    64   64   1

ORIGIN    0.000   0.000   0.000
SPACING   0.015625 0.015625   1.000

POINT_DATA   4096
SCALARS P double
LOOKUP_TABLE default

-4.620074e+00 -4.618065e+00 -4.638910e+00 -4.655662e+00 -4.694595e+00 -4.729470e+00 -4.784817e+00 -4.836109e+00 -4.904994e+00 -4.969420e+00 -5.047182e+00 -5.119157e+00 -5.198599e+00 -5.269430e+00 -5.340069e+00 -5.397362e+00 -5.445120e+00 -5.473046e+00 -5.481192e+00 -5.462606e+00 -5.415041e+00 -5.336468e+00 -5.224075e+00 -5.083465e+00 -4.912447e+00 -4.726918e+00 -4.524947e+00 -4.332708e+00 -4.146168e+00 -3.996367e+00 -3.873180e+00 -3.805211e+00 -3.774887e+00 -3.805029e+00 -3.873522e+00 -3.995967e+00 -4.146726e+00 -4.332373e+00 -4.525537e+00 -4.726951e+00 -4.912890e+00 -5.083989e+00 -5.224239e+00 -5.337407e+00 -5.414885e+00 -5.463790e+00 -5.480767e+00 -5.474307e+00 -5.444524e+00 -5.398578e+00 -5.339404e+00 -5.270527e+00 -5.197949e+00 -5.120099e+00 -5.046600e+00 -4.970192e+00 -4.904512e+00 -4.836707e+00 -4.784449e+00 -4.729894e+00 -4.694349e+00 -4.655916e+00 -4.638787e+00 -4.618149e+00 
-4.618243e+00 -4.615594e+00 -4.637243e+00 -4.653500e+00 -4.693448e+00 -4.727979e+00 -4.784622e+00 -4.835768e+00 -4.906310e+00 -4.970875e+00 -5.050725e+00 -5.123263e+00 -5.205252e+00 -5.277249e+00 -5.350834e+00 -5.410086e+00 -5.460987e+00 -5.491795e+00 -5.502904e+00 -5.488063e+00 -5.442769e+00 -5.368385e+00 -5.257053e+00 -5.120145e+00 -4.948539e+00 -4.764796e+00 -4.560018e+00 -4.366371e+00 -4.174185e+00 -4.020610e+00 -3.891464e+00 -3.821299e+00 -3.788543e+00 -3.821008e+00 -3.891536e+00 -4.019874e+00 -4.174248e+00 -4.365476e+00 -4.559964e+00 -4.764132e+00 -4.948307e+00 -5.119993e+00 -5.256628e+00 -5.368786e+00 -5.442184e+00 -5.488886e+00 -5.502221e+00 -5.492851e+00 -5.460272e+00 -5.411204e+00 -5.350138e+00 -5.278309e+00 -5.204613e+00 -5.124196e+00 -5.050169e+00 -4.971646e+00 -4.905852e+00 -4.836365e+00 -4.784272e+00 -4.728400e+00 -4.693212e+00 -4.653750e+00 -4.637124e+00 -4.615677e+00 
-4.613318e+00 -4.611292e+00 -4.632695e+00 -4.650001e+00 -4.690083e+00 -4.726192e+00 -4.783403e+00 -4.836784e+00 -4.908423e+00 -4.975997e+00 -5.057582e+00 -5.133927e+00 -5.218350e+00 -5.294761e+00 -5.371389e+00 -5.435089e+00 -5.489248e+00 -5.523437e+00 -5.537169e+00 -5.523062e+00 -5.478467e+00 -5.400619e+00 -5.286761e+00 -5.141818e+00 -4.964209e+00 -4.770003e+00 -4.558016e+00 -4.356146e+00 -4.160715e+00 -4.004623e+00 -3.876866e+00 -3.806963e+00 -3.775701e+00 -3.806701e+00 -3.877264e+00 -4.004070e+00 -4.161356e+00 -4.355651e+00 -4.558693e+00 -4.769973e+00 -4.964720e+00 -5.142380e+00 -5.286946e+00 -5.401644e+00 -5.478286e+00 -5.524330e+00 -5.536694e+00 -5.524758e+00 -5.488600e+00 -5.436341e+00 -5.370685e+00 -5.295876e+00 -5.217673e+00 -5.134876e+00 -5.056984e+00 -4.976771e+00 -4.907933e+00 -4.837381e+00 -4.783033e+00 -4.726615e+00 -4.689836e+00 -4.650254e+00 -4.632572e+00 -4.611376e+00 
-4.604308e+00 -4.601651e+00 -4.624372e+00 -4.641743e+00 -4.683937e+00 -4.720915e+00 -4.781238e+00 -4.836510e+00 -4.912537e+00 -4.983317e+00 -5.070852e+00 -5.152029e+00 -5.244137e+00 -5.327207e+00 -5.413103e+00 -5.485172e+00 -5.549413e+00 -5.592975e+00 -5.615965e+00 -5.610719e+00 -5.572136e+00 -5.500431e+00 -5.386965e+00 -5.243234e+00 -5.059522e+00 -4.860236e+00 -4.636593e+00 -4.423290e+00 -4.210985e+00 -4.040737e+00 -3.898147e+00 -3.820688e+00 -3.784888e+00 -3.820247e+00 -3.898287e+00 -4.039690e+00 -4.211139e+00 -4.421988e+00 -4.636596e+00 -4.859294e+00 -5.059314e+00 -5.243045e+00 -5.386511e+00 -5.500963e+00 -5.571488e+00 -5.611729e+00 -5.615217e+00 -5.594196e+00 -5.548645e+00 -5.486408e+00 -5.412370e+00 -5.328338e+00 -5.243475e+00 -5.152996e+00 -5.070282e+00 -4.984100e+00 -4.912071e+00 -4.837108e+00 -4.780884e+00 -4.721334e+00 -4.683699e+00 -4.641990e+00 -4.624253e+00 -4.601733e+00 
-4.591592e+00 -4.589493e+00 -4.612548e+00 -4.631456e+00 -4.674932e+00 -4.714662e+00 -4.777413e+00 -4.837007e+00 -4.916919e+00 -4.994004e+00 -5.087242e+00 -5.177036e+00 -5.276937e+00 -5.370913e+00 -5.466611e+00 -5.551066e+00 -5.626275e+00 -5.681576e+00 -5.714608e+00 -5.716717e+00 -5.683725e+00 -5.610351e+00 -5.493917e+00 -5.336620e+00 -5.139188e+00 -4.917545e+00 -4.673174e+00 -4.440208e+00 -4.216281e+00 -4.040406e+00 -3.898431e+00 -3.822649e+00 -3.788421e+00 -3.822057e+00 -3.899017e+00 -4.039315e+00 -4.217183e+00 -4.439114e+00 -4.674126e+00 -4.917313e+00 -5.139931e+00 -5.337352e+00 -5.494169e+00 -5.611682e+00 -5.683449e+00 -5.718256e+00 -5.713963e+00 -5.683079e+00 -5.625464e+00 -5.552419e+00 -5.465784e+00 -5.372076e+00 -5.276183e+00 -5.178004e+00 -5.086603e+00 -4.994781e+00 -4.916410e+00 -4.837602e+00 -4.777037e+00 -4.715081e+00 -4.674684e+00 -4.631705e+00 -4.612425e+00 -4.589576e+00 
-4.573539e+00 -4.570832e+00 -4.595646e+00 -4.615126e+00 -4.661690e+00 -4.703404e+00 -4.770954e+00 -4.834372e+00 -4.921352e+00 -5.004686e+00 -5.107914e+00 -5.207022e+00 -5.320392e+00 -5.427205e+00 -5.539923e+00 -5.640608e+00 -5.735321e+00 -5.808924e+00 -5.860967e+00 -5.880391e+00 -5.860803e+00 -5.799182e+00 -5.685071e+00 -5.529901e+00 -5.322448e+00 -5.091838e+00 -4.829678e+00 -4.574302e+00 -4.316329e+00 -4.105851e+00 -3.929133e+00 -3.831939e+00 -3.787883e+00 -3.831044e+00 -3.929446e+00 -4.104096e+00 -4.316703e+00 -4.571927e+00 -4.829770e+00 -5.090206e+00 -5.322305e+00 -5.529714e+00 -5.684540e+00 -5.800094e+00 -5.860002e+00 -5.881851e+00 -5.860073e+00 -5.810508e+00 -5.734447e+00 -5.642079e+00 -5.539122e+00 -5.428464e+00 -5.319688e+00 -5.208046e+00 -5.107319e+00 -5.005485e+00 -4.920871e+00 -4.834965e+00 -4.770591e+00 -4.703812e+00 -4.661447e+00 -4.615364e+00 -4.595524e+00 -4.570910e+00 
-4.550557e+00 -4.548264e+00 -4.573981e+00 -4.595330e+00 -4.644246e+00 -4.689688e+00 -4.761423e+00 -4.831099e+00 -4.924719e+00 -5.017731e+00 -5.130852e+00 -5.244010e+00 -5.371321e+00 -5.497188e+00 -5.628292e+00 -5.752563e+00 -5.869325e+00 -5.968221e+00 -6.042839e+00 -6.082675e+00 -6.079618e+00 -6.023178e+00 -5.910245e+00 -5.735714e+00 -5.506334e+00 -5.233873e+00 -4.925634e+00 -4.631507e+00 -4.352340e+00 -4.138655e+00 -3.968523e+00 -3.879622e+00 -3.838343e+00 -3.877973e+00 -3.969536e+00 -4.136457e+00 -4.353692e+00 -4.628849e+00 -4.927051e+00 -5.233284e+00 -5.507588e+00 -5.736988e+00 -5.910607e+00 -6.025216e+00 -6.079091e+00 -6.084735e+00 -6.041831e+00 -5.970020e+00 -5.868204e+00 -5.754057e+00 -5.627258e+00 -5.498407e+00 -5.370451e+00 -5.244992e+00 -5.130158e+00 -5.018505e+00 -4.924191e+00 -4.831684e+00 -4.761044e+00 -4.690098e+00 -4.644002e+00 -4.595573e+00 -4.573862e+00 -4.548345e+00 
-4.520232e+00 -4.517349e+00 -4.545141e+00 -4.567438e+00 -4.620179e+00 -4.668489e+00 -4.746412e+00 -4.821592e+00 -4.924725e+00 -5.026916e+00 -5.154155e+00 -5.281435e+00 -5.428891e+00 -5.575046e+00 -5.733357e+00 -5.884628e+00 -6.035157e+00 -6.166454e+00 -6.277356e+00 -6.350178e+00 -6.376321e+00 -6.344426e+00 -6.240538e+00 -6.074426e+00 -5.831453e+00 -5.553989e+00 -5.235558e+00 -4.911282e+00 -4.566258e+00 -4.267479e+00 -4.007670e+00 -3.856653e+00 -3.790086e+00 -3.854264e+00 -4.008361e+00 -4.264670e+00 -4.567062e+00 -4.906286e+00 -5.235547e+00 -5.550866e+00 -5.831532e+00 -6.074619e+00 -6.239830e+00 -6.346295e+00 -6.375206e+00 -6.352518e+00 -6.276216e+00 -6.168637e+00 -6.034132e+00 -5.886435e+00 -5.732470e+00 -5.576459e+00 -5.428138e+00 -5.282508e+00 -5.153532e+00 -5.027711e+00 -4.924228e+00 -4.822161e+00 -4.746040e+00 -4.668872e+00 -4.619931e+00 -4.567659e+00 -4.545017e+00 -4.517421e+00 
-4.483174e+00 -4.480445e+00 -4.509650e+00 -4.533855e+00 -4.589802e+00 -4.642376e+00 -4.725926e+00 -4.808804e+00 -4.921045e+00 -5.035972e+00 -5.177300e+00 -5.324433e+00 -5.492814e+00 -5.668148e+00 -5.856031e+00 -6.047114e+00 -6.236491e+00 -6.416265e+00 -6.572244e+00 -6.692664e+00 -6.759315e+00 -6.752431e+00 -6.664628e+00 -6.474329e+00 -6.204427e+00 -5.842397e+00 -5.406444e+00 -4.993459e+00 -4.614623e+00 -4.335134e+00 -4.113072e+00 -3.995415e+00 -3.937054e+00 -3.989783e+00 -4.115078e+00 -4.331584e+00 -4.616429e+00 -4.986322e+00 -5.408231e+00 -5.841440e+00 -6.206943e+00 -6.477302e+00 -6.665151e+00 -6.755972e+00 -6.758162e+00 -6.695541e+00 -6.570534e+00 -6.418408e+00 -6.234878e+00 -6.048722e+00 -5.854723e+00 -5.669386e+00 -5.491818e+00 -5.325399e+00 -5.176564e+00 -5.036723e+00 -4.920515e+00 -4.809368e+00 -4.725560e+00 -4.642769e+00 -4.589572e+00 -4.534087e+00 -4.509538e+00 -4.480522e+00 
-4.436188e+00 -4.432858e+00 -4.464252e+00 -4.489529e+00 -4.549611e+00 -4.605483e+00 -4.695992e+00 -4.785473e+00 -4.908981e+00 -5.035504e+00 -5.194626e+00 -5.360690e+00 -5.556395e+00 -5.760849e+00 -5.989030e+00 -6.222112e+00 -6.467107e+00 -6.702284e+00 -6.925940e+00 -7.108359e+00 -7.236411e+00 -7.275524e+00 -7.204717e+00 -7.022630e+00 -6.707031e+00 -6.353967e+00 -5.973649e+00 -5.553707e+00 -5.040632e+00 -4.541772e+00 -4.091291e+00 -3.821243e+00 -3.706513e+00 -3.812565e+00 -4.092844e+00 -4.539543e+00 -5.042347e+00 -5.541345e+00 -5.972051e+00 -6.347636e+00 -6.708383e+00 -7.025035e+00 -7.203604e+00 -7.279661e+00 -7.234670e+00 -7.112227e+00 -6.924462e+00 -6.705287e+00 -6.465934e+00 -6.224277e+00 -5.988076e+00 -5.762368e+00 -5.555605e+00 -5.361751e+00 -5.193979e+00 -5.036245e+00 -4.908470e+00 -4.785983e+00 -4.695612e+00 -4.605817e+00 -4.549360e+00 -4.489719e+00 -4.464127e+00 -4.432919e+00 
-4.380221e+00 -4.376630e+00 -4.409801e+00 -4.436555e+00 -4.500273e+00 -4.560143e+00 -4.657046e+00 -4.754566e+00 -4.888811e+00 -5.029917e+00 -5.206600e+00 -5.397567e+00 -5.621264e+00 -5.866128e+00 -6.137502e+00 -6.432422e+00 -6.740738e+00 -7.062381e+00 -7.369455e+00 -7.651724e+00 -7.862798e+00 -7.965796e+00 -7.930673e+00 -7.716182e+00 -7.399530e+00 -6.850485e+00 -6.092893e+00 -5.409446e+00 -4.869783e+00 -4.529607e+00 -4.286982e+00 -4.177543e+00 -4.103549e+00 -4.153996e+00 -4.291994e+00 -4.530049e+00 -4.871112e+00 -5.387002e+00 -6.093452e+00 -6.851274e+00 -7.406690e+00 -7.724616e+00 -7.931412e+00 -7.972273e+00 -7.860032e+00 -7.655527e+00 -7.366466e+00 -7.064682e+00 -6.738457e+00 -6.433983e+00 -6.135925e+00 -5.867287e+00 -5.620199e+00 -5.398467e+00 -5.205878e+00 -5.030616e+00 -4.888322e+00 -4.755092e+00 -4.656721e+00 -4.560510e+00 -4.500074e+00 -4.436772e+00 -4.409706e+00 -4.376702e+00 
-4.311483e+00 -4.307223e+00 -4.342403e+00 -4.369938e+00 -4.437430e+00 -4.500243e+00 -4.603794e+00 -4.707877e+00 -4.853655e+00 -5.007413e+00 -5.203858e+00 -5.417437e+00 -5.674463e+00 -5.957572e+00 -6.283867e+00 -6.640125e+00 -7.034911e+00 -7.447376e+00 -7.875010e+00 -8.266575e+00 -8.591629e+00 -8.750637e+00 -8.718560e+00 -8.434059e+00 -7.856313e+00 -7.354422e+00 -7.049747e+00 -6.600758e+00 -5.768976e+00 -4.816895e+00 -3.904887e+00 -3.302422e+00 -3.038904e+00 -3.266103e+00 -3.910724e+00 -4.831201e+00 -5.774001e+00 -6.563627e+00 -7.039916e+00 -7.343273e+00 -7.866250e+00 -8.446383e+00 -8.715847e+00 -8.759373e+00 -8.588577e+00 -8.272579e+00 -7.873262e+00 -7.451187e+00 -7.033724e+00 -6.642466e+00 -6.282919e+00 -5.959020e+00 -5.673668e+00 -5.418356e+00 -5.203200e+00 -5.008013e+00 -4.853135e+00 -4.708272e+00 -4.603410e+00 -4.500496e+00 -4.437177e+00 -4.370080e+00 -4.342278e+00 -4.307269e+00 
-4.231404e+00 -4.226290e+00 -4.263359e+00 -4.291287e+00 -4.362159e+00 -4.427478e+00 -4.537023e+00 -4.647552e+00 -4.804009e+00 -4.971485e+00 -5.186821e+00 -5.427134e+00 -5.717138e+00 -6.049537e+00 -6.432444e+00 -6.875127e+00 -7.363726e+00 -7.915205e+00 -8.479346e+00 -9.046650e+00 -9.491286e+00 -9.744516e+00 -9.707444e+00 -9.463231e+00 -9.325517e+00 -8.390527e+00 -5.915572e+00 -2.418763e+00 1.251580e+00 4.351364e+00 6.787582e+00 8.240011e+00 8.709855e+00 8.244154e+00 6.777894e+00 4.340793e+00 1.262535e+00 -2.351133e+00 -5.911114e+00 -8.403861e+00 -9.353860e+00 -9.487573e+00 -9.705970e+00 -9.754916e+00 -9.483828e+00 -9.050254e+00 -8.474277e+00 -7.916931e+00 -7.360822e+00 -6.876309e+00 -6.430802e+00 -6.050482e+00 -5.716173e+00 -5.427909e+00 -5.186225e+00 -4.972107e+00 -4.803629e+00 -4.648027e+00 -4.536779e+00 -4.427811e+00 -4.362012e+00 -4.291484e+00 -4.263290e+00 -4.226355e+00 
-4.135976e+00 -4.130031e+00 -4.168556e+00 -4.196392e+00 -4.269771e+00 -4.336520e+00 -4.450814e+00 -4.565992e+00 -4.731725e+00 -4.910206e+00 -5.143527e+00 -5.406715e+00 -5.731112e+00 -6.107654e+00 -6.555573e+00 -7.078593e+00 -7.685887e+00 -8.369187e+00 -9.118876e+00 -9.844956e+00 -1.045805e+01 -1.078259e+01 -1.092925e+01 -1.017774e+01 -6.636234e+00 -4.672416e-01 6.051776e+00 1.109123e+01 1.438102e+01 1.614577e+01 1.706757e+01 1.748444e+01 1.755144e+01 1.746301e+01 1.706293e+01 1.615326e+01 1.438394e+01 1.112209e+01 6.017209e+00 -5.050241e-01 -6.703922e+00 -1.021773e+01 -1.090967e+01 -1.079492e+01 -1.045216e+01 -9.852363e+00 -9.117600e+00 -8.373117e+00 -7.685059e+00 -7.080574e+00 -6.554746e+00 -6.108682e+00 -5.730333e+00 -5.407287e+00 -5.142860e+00 -4.910551e+00 -4.731199e+00 -4.566213e+00 -4.450429e+00 -4.336660e+00 -4.269521e+00 -4.196471e+00 -4.168434e+00 -4.130057e+00 
-4.027300e+00 -4.019750e+00 -4.059914e+00 -4.086312e+00 -4.161889e+00 -4.228105e+00 -4.346345e+00 -4.463638e+00 -4.637323e+00 -4.824109e+00 -5.073520e+00 -5.358177e+00 -5.714480e+00 -6.139258e+00 -6.649318e+00 -7.272285e+00 -7.994992e+00 -8.860185e+00 -9.787721e+00 -1.075439e+01 -1.152944e+01 -1.193811e+01 -1.013999e+01 -3.465584e+00 5.504003e+00 1.208275e+01 1.544634e+01 1.662937e+01 1.688994e+01 1.679932e+01 1.669399e+01 1.666086e+01 1.663693e+01 1.665099e+01 1.670076e+01 1.680854e+01 1.689199e+01 1.662965e+01 1.545904e+01 1.207831e+01 5.449925e+00 -3.412702e+00 -1.009427e+01 -1.194567e+01 -1.150852e+01 -1.075353e+01 -9.780658e+00 -8.860139e+00 -7.992360e+00 -7.272792e+00 -6.648197e+00 -6.139922e+00 -5.713923e+00 -5.358815e+00 -5.073206e+00 -4.824649e+00 -4.637130e+00 -4.464057e+00 -4.346223e+00 -4.228400e+00 -4.161815e+00 -4.086487e+00 -4.059879e+00 -4.019808e+00 
-3.901678e+00 -3.893026e+00 -3.933690e+00 -3.958452e+00 -4.034267e+00 -4.098977e+00 -4.218189e+00 -4.335672e+00 -4.513052e+00 -4.704950e+00 -4.964663e+00 -5.265742e+00 -5.646931e+00 -6.111649e+00 -6.678273e+00 -7.384639e+00 -8.226788e+00 -9.231165e+00 -1.036640e+01 -1.150205e+01 -1.230717e+01 -9.882302e+00 -9.689651e-01 9.032008e+00 1.428511e+01 1.566119e+01 1.564857e+01 1.571027e+01 1.593169e+01 1.620743e+01 1.646998e+01 1.665733e+01 1.670348e+01 1.665269e+01 1.647036e+01 1.620724e+01 1.593693e+01 1.570800e+01 1.567413e+01 1.562858e+01 1.426924e+01 9.079219e+00 -9.896311e-01 -9.892186e+00 -1.231591e+01 -1.151026e+01 -1.036859e+01 -9.233863e+00 -8.226787e+00 -7.385337e+00 -6.677545e+00 -6.111777e+00 -5.646108e+00 -5.265739e+00 -4.963959e+00 -4.704937e+00 -4.512514e+00 -4.335672e+00 -4.217809e+00 -4.098985e+00 -4.034028e+00 -3.958462e+00 -3.933575e+00 -3.893030e+00 
-3.762120e+00 -3.751047e+00 -3.792669e+00 -3.813527e+00 -3.889345e+00 -3.948989e+00 -4.068233e+00 -4.180519e+00 -4.359847e+00 -4.548905e+00 -4.816095e+00 -5.122438e+00 -5.523735e+00 -6.014758e+00 -6.627710e+00 -7.406880e+00 -8.337481e+00 -9.494516e+00 -1.074986e+01 -1.211025e+01 -1.029850e+01 -7.036674e-01 1.013136e+01 1.413188e+01 1.462245e+01 1.490606e+01 1.537340e+01 1.580040e+01 1.606186e+01 1.620413e+01 1.627066e+01 1.631635e+01 1.631963e+01 1.631401e+01 1.627354e+01 1.620359e+01 1.606549e+01 1.579330e+01 1.538136e+01 1.488258e+01 1.463502e+01 1.412320e+01 1.010299e+01 -6.705382e-01 -1.030590e+01 -1.211085e+01 -1.075070e+01 -9.493147e+00 -8.338073e+00 -7.407053e+00 -6.628053e+00 -6.015316e+00 -5.523914e+00 -5.123014e+00 -4.816189e+00 -4.549389e+00 -4.359896e+00 -4.180886e+00 -4.068256e+00 -3.949242e+00 -3.889354e+00 -3.813674e+00 -3.792672e+00 -3.751096e+00 
-3.605801e+00 -3.593269e+00 -3.634104e+00 -3.651210e+00 -3.724164e+00 -3.778035e+00 -3.892862e+00 -3.998202e+00 -4.172583e+00 -4.355715e+00 -4.619330e+00 -4.926118e+00 -5.328733e+00 -5.838264e+00 -6.463908e+00 -7.294290e+00 -8.262600e+00 -9.463861e+00 -1.092003e+01 -1.085028e+01 -2.479316e+00 9.209010e+00 1.352654e+01 1.393073e+01 1.448798e+01 1.491620e+01 1.518381e+01 1.542223e+01 1.563249e+01 1.583427e+01 1.598879e+01 1.610260e+01 1.612905e+01 1.610118e+01 1.599029e+01 1.583259e+01 1.563710e+01 1.541847e+01 1.519296e+01 1.490797e+01 1.449075e+01 1.393701e+01 1.351866e+01 9.249682e+00 -2.456419e+00 -1.085332e+01 -1.092562e+01 -9.461636e+00 -8.262344e+00 -7.292340e+00 -6.462670e+00 -5.837032e+00 -5.327633e+00 -4.925402e+00 -4.618530e+00 -4.355313e+00 -4.172038e+00 -3.997981e+00 -3.892506e+00 -3.777918e+00 -3.723949e+00 -3.651154e+00 -3.634004e+00 -3.593253e+00 
-3.436868e+00 -3.421205e+00 -3.461908e+00 -3.472404e+00 -3.542338e+00 -3.585799e+00 -3.695218e+00 -3.786050e+00 -3.953567e+00 -4.118076e+00 -4.375160e+00 -4.660268e+00 -5.059852e+00 -5.548110e+00 -6.177829e+00 -6.988238e+00 -7.966920e+00 -9.123443e+00 -1.057063e+01 -5.711449e+00 6.538074e+00 1.280394e+01 1.334512e+01 1.391311e+01 1.425445e+01 1.464090e+01 1.497495e+01 1.528899e+01 1.551092e+01 1.568698e+01 1.578638e+01 1.585999e+01 1.586982e+01 1.585899e+01 1.578788e+01 1.568498e+01 1.551342e+01 1.528419e+01 1.497849e+01 1.463368e+01 1.425623e+01 1.391325e+01 1.333227e+01 1.280388e+01 6.515158e+00 -5.719848e+00 -1.057189e+01 -9.122324e+00 -7.970697e+00 -6.989055e+00 -6.179537e+00 -5.548931e+00 -5.060701e+00 -4.660898e+00 -4.375629e+00 -4.118530e+00 -3.953840e+00 -3.786364e+00 -3.695376e+00 -3.586003e+00 -3.542424e+00 -3.472518e+00 -3.461946e+00 -3.421242e+00 
-3.253793e+00 -3.236334e+00 -3.274784e+00 -3.279221e+00 -3.342817e+00 -3.375598e+00 -3.474530e+00 -3.549550e+00 -3.702321e+00 -3.845538e+00 -4.083117e+00 -4.342822e+00 -4.714231e+00 -5.182743e+00 -5.748717e+00 -6.592603e+00 -7.321973e+00 -8.840200e+00 -8.142806e+00 1.543784e+00 1.133594e+01 1.290454e+01 1.324891e+01 1.365846e+01 1.407076e+01 1.444033e+01 1.473117e+01 1.499283e+01 1.519416e+01 1.537757e+01 1.549648e+01 1.558917e+01 1.560507e+01 1.558856e+01 1.549776e+01 1.537625e+01 1.519700e+01 1.499062e+01 1.473500e+01 1.443779e+01 1.407221e+01 1.365878e+01 1.324742e+01 1.290116e+01 1.132759e+01 1.558402e+00 -8.135620e+00 -8.831096e+00 -7.317702e+00 -6.587503e+00 -5.745759e+00 -5.180237e+00 -4.712636e+00 -4.341558e+00 -4.082251e+00 -3.844866e+00 -3.701829e+00 -3.549183e+00 -3.474243e+00 -3.375399e+00 -3.342656e+00 -3.279122e+00 -3.274712e+00 -3.236304e+00 
-3.061979e+00 -3.040991e+00 -3.077949e+00 -3.073473e+00 -3.130676e+00 -3.148195e+00 -3.235669e+00 -3.287296e+00 -3.423283e+00 -3.531824e+00 -3.746964e+00 -3.955294e+00 -4.296696e+00 -4.688817e+00 -5.200585e+00 -5.941309e+00 -6.500471e+00 -8.021008e+00 -3.799058e+00 7.351945e+00 1.258193e+01 1.254364e+01 1.313700e+01 1.346211e+01 1.387225e+01 1.421737e+01 1.452174e+01 1.479966e+01 1.500310e+01 1.518391e+01 1.528619e+01 1.537043e+01 1.537879e+01 1.536986e+01 1.528697e+01 1.518243e+01 1.500447e+01 1.479736e+01 1.452353e+01 1.421597e+01 1.387442e+01 1.346707e+01 1.314393e+01 1.256754e+01 1.263552e+01 7.404284e+00 -3.804750e+00 -8.035323e+00 -6.505545e+00 -5.944669e+00 -5.202377e+00 -4.690087e+00 -4.297730e+00 -3.955951e+00 -3.747624e+00 -3.532206e+00 -3.423697e+00 -3.287525e+00 -3.235919e+00 -3.148328e+00 -3.130815e+00 -3.073542e+00 -3.078011e+00 -3.041013e+00 
-2.861312e+00 -2.838375e+00 -2.871637e+00 -2.859239e+00 -2.906832e+00 -2.909464e+00 -2.980789e+00 -3.008449e+00 -3.120988e+00 -3.192072e+00 -3.376707e+00 -3.523761e+00 -3.833577e+00 -4.111232e+00 -4.622887e+00 -5.098693e+00 -5.872377e+00 -6.513243e+00 7.260006e-01 1.045119e+01 1.232400e+01 1.238263e+01 1.291532e+01 1.324331e+01 1.364360e+01 1.398144e+01 1.426712e+01 1.453157e+01 1.472512e+01 1.490663e+01 1.501155e+01 1.510131e+01 1.511035e+01 1.510104e+01 1.501242e+01 1.490597e+01 1.472676e+01 1.453074e+01 1.426891e+01 1.398100e+01 1.364407e+01 1.324416e+01 1.291300e+01 1.238404e+01 1.231264e+01 1.042674e+01 7.047368e-01 -6.489630e+00 -5.853021e+00 -5.092147e+00 -4.618149e+00 -4.108823e+00 -3.832113e+00 -3.522581e+00 -3.376128e+00 -3.191413e+00 -3.120717e+00 -3.008067e+00 -2.980654e+00 -2.909247e+00 -2.906765e+00 -2.859129e+00 -2.871610e+00 -2.838342e+00 
-2.658352e+00 -2.631948e+00 -2.662337e+00 -2.639778e+00 -2.677903e+00 -2.662384e+00 -2.716726e+00 -2.715579e+00 -2.802192e+00 -2.828421e+00 -2.977047e+00 -3.050822e+00 -3.317738e+00 -3.458478e+00 -3.948317e+00 -4.104154e+00 -5.051709e+00 -4.150322e+00 4.856970e+00 1.177833e+01 1.198715e+01 1.236651e+01 1.269747e+01 1.309409e+01 1.343407e+01 1.378803e+01 1.406008e+01 1.433709e+01 1.452589e+01 1.471186e+01 1.480953e+01 1.490031e+01 1.490443e+01 1.489995e+01 1.480982e+01 1.471090e+01 1.452629e+01 1.433577e+01 1.406011e+01 1.378682e+01 1.343244e+01 1.309245e+01 1.268948e+01 1.235468e+01 1.194786e+01 1.170918e+01 4.814369e+00 -4.128839e+00 -5.039543e+00 -4.101565e+00 -3.947442e+00 -3.458553e+00 -3.318484e+00 -3.051108e+00 -2.977752e+00 -2.828596e+00 -2.802666e+00 -2.715659e+00 -2.717013e+00 -2.662413e+00 -2.678063e+00 -2.639785e+00 -2.662409e+00 -2.631949e+00 
-2.454142e+00 -2.425953e+00 -2.451464e+00 -2.420197e+00 -2.446187e+00 -2.413856e+00 -2.447363e+00 -2.418762e+00 -2.473293e+00 -2.456451e+00 -2.557592e+00 -2.562324e+00 -2.759023e+00 -2.780178e+00 -3.160337e+00 -3.086072e+00 -3.835816e+00 -1.454816e+00 7.610860e+00 1.178329e+01 1.159971e+01 1.220951e+01 1.243608e+01 1.289223e+01 1.319494e+01 1.356199e+01 1.381857e+01 1.409661e+01 1.427902e+01 1.446635e+01 1.456309e+01 1.465603e+01 1.465958e+01 1.465596e+01 1.456368e+01 1.446624e+01 1.428009e+01 1.409669e+01 1.381982e+01 1.356278e+01 1.319613e+01 1.289469e+01 1.243817e+01 1.221641e+01 1.160955e+01 1.180807e+01 7.626578e+00 -1.463793e+00 -3.856349e+00 -3.091365e+00 -3.164713e+00 -2.780549e+00 -2.760017e+00 -2.561900e+00 -2.557872e+00 -2.456037e+00 -2.473418e+00 -2.418475e+00 -2.447445e+00 -2.413681e+00 -2.446243e+00 -2.420105e+00 -2.451493e+00 -2.425925e+00 
-2.256037e+00 -2.224881e+00 -2.246467e+00 -2.205168e+00 -2.219636e+00 -2.169088e+00 -2.181664e+00 -2.124452e+00 -2.145190e+00 -2.085771e+00 -2.133768e+00 -2.077130e+00 -2.187541e+00 -2.126269e+00 -2.351178e+00 -2.208102e+00 -2.621250e+00 5.357960e-01 8.769548e+00 1.125712e+01 1.126166e+01 1.197114e+01 1.220541e+01 1.270348e+01 1.299237e+01 1.337724e+01 1.362860e+01 1.391726e+01 1.409730e+01 1.429026e+01 1.438374e+01 1.447979e+01 1.447998e+01 1.447956e+01 1.438374e+01 1.428964e+01 1.409717e+01 1.391647e+01 1.362813e+01 1.337667e+01 1.299137e+01 1.270395e+01 1.220496e+01 1.197639e+01 1.127231e+01 1.129351e+01 8.822064e+00 5.441715e-01 -2.643810e+00 -2.213758e+00 -2.357283e+00 -2.127542e+00 -2.189676e+00 -2.077355e+00 -2.134715e+00 -2.085718e+00 -2.145678e+00 -2.124336e+00 -2.181932e+00 -2.168981e+00 -2.219780e+00 -2.205097e+00 -2.246530e+00 -2.224857e+00 
-2.065684e+00 -2.033174e+00 -2.049293e+00 -1.999763e+00 -2.001089e+00 -1.934469e+00 -1.924166e+00 -1.841126e+00 -1.825299e+00 -1.727510e+00 -1.717751e+00 -1.607838e+00 -1.623850e+00 -1.500320e+00 -1.560221e+00 -1.403773e+00 -1.510832e+00 2.003729e+00 9.216818e+00 1.076341e+01 1.099057e+01 1.170014e+01 1.197673e+01 1.248361e+01 1.277701e+01 1.316667e+01 1.341781e+01 1.370807e+01 1.388767e+01 1.408151e+01 1.417519e+01 1.427199e+01 1.427220e+01 1.427204e+01 1.417562e+01 1.408172e+01 1.388845e+01 1.370858e+01 1.341877e+01 1.316768e+01 1.277794e+01 1.248512e+01 1.197724e+01 1.170055e+01 1.098765e+01 1.075228e+01 9.196239e+00 1.992779e+00 -1.508855e+00 -1.400506e+00 -1.561066e+00 -1.499325e+00 -1.624663e+00 -1.607357e+00 -1.718335e+00 -1.727224e+00 -1.825712e+00 -1.840950e+00 -1.924451e+00 -1.934363e+00 -2.001270e+00 -1.999706e+00 -2.049381e+00 -2.033157e+00 
-1.890622e+00 -1.855868e+00 -1.867744e+00 -1.809490e+00 -1.799101e+00 -1.716496e+00 -1.684792e+00 -1.576969e+00 -1.525777e+00 -1.392320e+00 -1.324991e+00 -1.166958e+00 -1.086202e+00 -9.053743e-01 -7.924498e-01 -5.936150e-01 -3.733989e-01 3.170016e+00 9.164671e+00 1.022912e+01 1.072434e+01 1.141595e+01 1.177716e+01 1.228534e+01 1.260380e+01 1.299950e+01 1.325975e+01 1.355592e+01 1.373863e+01 1.393661e+01 1.403020e+01 1.412957e+01 1.412802e+01 1.412940e+01 1.403003e+01 1.393615e+01 1.373821e+01 1.355526e+01 1.325895e+01 1.299877e+01 1.260243e+01 1.228442e+01 1.177488e+01 1.141333e+01 1.071831e+01 1.021358e+01 9.138816e+00 3.160304e+00 -3.689641e-01 -5.908303e-01 -7.931046e-01 -9.044986e-01 -1.086980e+00 -1.166357e+00 -1.325465e+00 -1.391827e+00 -1.526046e+00 -1.576585e+00 -1.684945e+00 -1.716226e+00 -1.799186e+00 -1.809331e+00 -1.867782e+00 -1.855816e+00 
-1.732388e+00 -1.696800e+00 -1.703494e+00 -1.638491e+00 -1.616043e+00 -1.520066e+00 -1.467355e+00 -1.338079e+00 -1.253041e+00 -1.087860e+00 -9.666538e-01 -7.638510e-01 -5.953657e-01 -3.535527e-01 -9.152606e-02 1.919726e-01 6.813304e-01 4.002777e+00 8.830877e+00 9.728251e+00 1.045618e+01 1.113164e+01 1.157619e+01 1.207751e+01 1.242537e+01 1.281938e+01 1.309080e+01 1.338649e+01 1.357370e+01 1.377143e+01 1.386706e+01 1.396614e+01 1.396560e+01 1.396625e+01 1.386740e+01 1.377182e+01 1.357433e+01 1.338725e+01 1.309166e+01 1.282064e+01 1.242644e+01 1.207949e+01 1.157779e+01 1.113515e+01 1.046026e+01 9.738682e+00 8.848728e+00 4.020870e+00 6.845765e-01 1.932824e-01 -9.159077e-02 -3.529534e-01 -5.962158e-01 -7.636512e-01 -9.675008e-01 -1.087795e+00 -1.253704e+00 -1.338053e+00 -1.467824e+00 -1.520051e+00 -1.616338e+00 -1.638482e+00 -1.703636e+00 -1.696797e+00 
-1.597997e+00 -1.560876e+00 -1.563962e+00 -1.492350e+00 -1.460205e+00 -1.352016e+00 -1.281630e+00 -1.133357e+00 -1.019249e+00 -8.263166e-01 -6.588254e-01 -4.162843e-01 -1.748886e-01 1.247480e-01 4.987294e-01 8.736032e-01 1.520683e+00 4.525950e+00 8.448048e+00 9.341568e+00 1.022213e+01 1.089439e+01 1.141289e+01 1.191332e+01 1.229409e+01 1.269028e+01 1.297611e+01 1.327486e+01 1.346793e+01 1.366822e+01 1.376546e+01 1.386613e+01 1.386499e+01 1.386599e+01 1.376519e+01 1.366781e+01 1.346735e+01 1.327423e+01 1.297514e+01 1.268948e+01 1.229267e+01 1.191239e+01 1.141113e+01 1.089370e+01 1.022116e+01 9.344939e+00 8.454460e+00 4.528634e+00 1.516403e+00 8.730230e-01 4.983869e-01 1.260223e-01 -1.747916e-01 -4.150684e-01 -6.587489e-01 -8.253944e-01 -1.019218e+00 -1.132705e+00 -1.281625e+00 -1.351587e+00 -1.460210e+00 -1.492107e+00 -1.563967e+00 -1.560797e+00 
-1.488160e+00 -1.450682e+00 -1.449782e+00 -1.373619e+00 -1.332549e+00 -1.215112e+00 -1.129388e+00 -9.660422e-01 -8.276285e-01 -6.117569e-01 -4.070432e-01 -1.298536e-01 1.666282e-01 5.208174e-01 9.689811e-01 1.438096e+00 2.156589e+00 4.787324e+00 8.030826e+00 9.009381e+00 9.995312e+00 1.067952e+01 1.125537e+01 1.175640e+01 1.216457e+01 1.255967e+01 1.285778e+01 1.315546e+01 1.335401e+01 1.355338e+01 1.365325e+01 1.375304e+01 1.375341e+01 1.375319e+01 1.365355e+01 1.355386e+01 1.335456e+01 1.315631e+01 1.285854e+01 1.256093e+01 1.216542e+01 1.175794e+01 1.125592e+01 1.068046e+01 9.993578e+00 9.004885e+00 8.016825e+00 4.774605e+00 2.153536e+00 1.438869e+00 9.666086e-01 5.204176e-01 1.648299e-01 -1.302599e-01 -4.083605e-01 -6.120239e-01 -8.285614e-01 -9.661960e-01 -1.130019e+00 -1.215194e+00 -1.332938e+00 -1.373658e+00 -1.449967e+00 -1.450693e+00 
-1.408725e+00 -1.370304e+00 -1.367297e+00 -1.287154e+00 -1.240266e+00 -1.115511e+00 -1.019140e+00 -8.443366e-01 -6.886242e-01 -4.555079e-01 -2.243588e-01 7.950190e-02 4.135896e-01 8.129275e-01 1.306168e+00 1.864092e+00 2.610590e+00 4.890132e+00 7.665613e+00 8.759535e+00 9.822742e+00 1.052982e+01 1.114960e+01 1.165730e+01 1.208855e+01 1.248669e+01 1.279587e+01 1.309579e+01 1.329911e+01 1.350022e+01 1.360158e+01 1.370242e+01 1.370248e+01 1.370228e+01 1.360126e+01 1.349982e+01 1.329845e+01 1.309514e+01 1.279479e+01 1.248577e+01 1.208699e+01 1.165603e+01 1.114747e+01 1.052795e+01 9.819807e+00 8.755723e+00 7.659880e+00 4.895600e+00 2.621597e+00 1.872031e+00 1.309710e+00 8.164863e-01 4.150074e-01 8.155734e-02 -2.237157e-01 -4.541887e-01 -6.883203e-01 -8.434706e-01 -1.018997e+00 -1.114962e+00 -1.240203e+00 -1.286849e+00 -1.367274e+00 -1.370206e+00 
-1.359010e+00 -1.320650e+00 -1.315531e+00 -1.233521e+00 -1.182287e+00 -1.053470e+00 -9.498854e-01 -7.682187e-01 -6.014053e-01 -3.574048e-01 -1.099709e-01 2.114631e-01 5.677011e-01 9.978935e-01 1.515789e+00 2.135987e+00 2.894459e+00 4.934123e+00 7.422901e+00 8.595438e+00 9.699955e+00 1.042310e+01 1.106743e+01 1.157821e+01 1.202252e+01 1.242021e+01 1.273566e+01 1.303441e+01 1.324074e+01 1.344069e+01 1.354374e+01 1.364357e+01 1.364493e+01 1.364374e+01 1.354402e+01 1.344121e+01 1.324127e+01 1.303532e+01 1.273642e+01 1.242159e+01 1.202354e+01 1.158016e+01 1.106887e+01 1.042610e+01 9.702880e+00 8.601948e+00 7.432262e+00 4.938232e+00 2.886744e+00 2.130357e+00 1.511537e+00 9.955102e-01 5.651206e-01 2.103386e-01 -1.116473e-01 -3.579692e-01 -6.025214e-01 -7.685089e-01 -9.506167e-01 -1.053617e+00 -1.182731e+00 -1.233590e+00 -1.315741e+00 -1.320670e+00 
-1.343244e+00 -1.304411e+00 -1.299232e+00 -1.216154e+00 -1.164068e+00 -1.033562e+00 -9.280939e-01 -7.439769e-01 -5.738923e-01 -3.263296e-01 -7.384041e-02 2.531298e-01 6.162596e-01 1.056100e+00 1.581170e+00 2.220431e+00 2.980915e+00 4.948278e+00 7.353784e+00 8.552402e+00 9.668986e+00 1.039896e+01 1.105220e+01 1.156608e+01 1.201581e+01 1.241554e+01 1.273379e+01 1.303422e+01 1.324168e+01 1.344299e+01 1.354609e+01 1.364686e+01 1.364752e+01 1.364673e+01 1.354575e+01 1.344259e+01 1.324098e+01 1.303355e+01 1.273266e+01 1.241457e+01 1.201417e+01 1.156471e+01 1.104986e+01 1.039698e+01 9.665570e+00 8.549745e+00 7.349124e+00 4.945612e+00 2.980331e+00 2.222883e+00 1.583011e+00 1.058975e+00 6.176007e-01 2.552259e-01 -7.308641e-02 -3.249104e-01 -5.735022e-01 -7.430398e-01 -9.279019e-01 -1.032970e+00 -1.163979e+00 -1.215827e+00 -1.299198e+00 -1.304307e+00 