# vtk DataFile Version 2.0
Comment goes here
ASCII

DATASET STRUCTURED_POINTS
FIELD FieldData 1
TIME 1 1 double
0.56000000
DIMENSIONS    64   64   1

ORIGIN    0.000   0.000   0.000
SPACING   0.015625 0.015625   1.000

POINT_DATA   4096
SCALARS P double
LOOKUP_TABLE default

-4.461296e+00 -4.468429e+00 -4.473041e+00 -4.491894e+00 -4.508419e+00 -4.538981e+00 -4.567628e+00 -4.609934e+00 -4.650856e+00 -4.704893e+00 -4.758054e+00 -4.823600e+00 -4.888605e+00 -4.964983e+00 -5.040856e+00 -5.126624e+00 -5.211561e+00 -5.304140e+00 -5.395279e+00 -5.490623e+00 -5.583921e+00 -5.676434e+00 -5.766844e+00 -5.849869e+00 -5.931991e+00 -5.999194e+00 -6.068336e+00 -6.115681e+00 -6.168650e+00 -6.195299e+00 -6.229998e+00 -6.236069e+00 -6.250517e+00 -6.236247e+00 -6.229248e+00 -6.195735e+00 -6.167298e+00 -6.116164e+00 -6.066712e+00 -5.999542e+00 -5.930507e+00 -5.850034e+00 -5.765769e+00 -5.676450e+00 -5.583314e+00 -5.490546e+00 -5.395063e+00 -5.304018e+00 -5.211614e+00 -5.126490e+00 -5.041061e+00 -4.964857e+00 -4.888873e+00 -4.823491e+00 -4.758328e+00 -4.704806e+00 -4.651098e+00 -4.609868e+00 -4.567819e+00 -4.538935e+00 -4.508549e+00 -4.491867e+00 -4.473107e+00 -4.468420e+00 
-4.451541e+00 -4.458872e+00 -4.463221e+00 -4.482309e+00 -4.498614e+00 -4.529477e+00 -4.557978e+00 -4.600707e+00 -4.641612e+00 -4.696273e+00 -4.749629e+00 -4.816099e+00 -4.881626e+00 -4.959337e+00 -5.036212e+00 -5.123821e+00 -5.210427e+00 -5.305423e+00 -5.399084e+00 -5.497435e+00 -5.594214e+00 -5.690256e+00 -5.784948e+00 -5.871824e+00 -5.958359e+00 -6.029214e+00 -6.101609e+00 -6.151237e+00 -6.204949e+00 -6.231187e+00 -6.264510e+00 -6.269400e+00 -6.283432e+00 -6.269927e+00 -6.264522e+00 -6.232723e+00 -6.205190e+00 -6.153595e+00 -6.102330e+00 -6.032012e+00 -5.959687e+00 -5.874723e+00 -5.786815e+00 -5.693025e+00 -5.596426e+00 -5.499945e+00 -5.401411e+00 -5.307614e+00 -5.212674e+00 -5.125676e+00 -5.038244e+00 -4.960861e+00 -4.883368e+00 -4.817314e+00 -4.751051e+00 -4.697210e+00 -4.642714e+00 -4.601396e+00 -4.558778e+00 -4.529946e+00 -4.499132e+00 -4.482580e+00 -4.463476e+00 -4.458961e+00 
-4.449731e+00 -4.456916e+00 -4.461449e+00 -4.480325e+00 -4.496770e+00 -4.527347e+00 -4.555959e+00 -4.598322e+00 -4.639322e+00 -4.693540e+00 -4.746978e+00 -4.812943e+00 -4.878520e+00 -4.955699e+00 -5.032539e+00 -5.119639e+00 -5.206013e+00 -5.300571e+00 -5.393630e+00 -5.491616e+00 -5.587234e+00 -5.682863e+00 -5.775805e+00 -5.861963e+00 -5.946615e+00 -6.016338e+00 -6.087927e+00 -6.136891e+00 -6.192331e+00 -6.220410e+00 -6.257395e+00 -6.264251e+00 -6.279623e+00 -6.264507e+00 -6.256623e+00 -6.221016e+00 -6.190882e+00 -6.137525e+00 -6.086147e+00 -6.016744e+00 -5.945016e+00 -5.862115e+00 -5.774693e+00 -5.682838e+00 -5.586647e+00 -5.491495e+00 -5.393457e+00 -5.300414e+00 -5.206107e+00 -5.119480e+00 -5.032775e+00 -4.955557e+00 -4.878808e+00 -4.812825e+00 -4.747262e+00 -4.693448e+00 -4.639569e+00 -4.598254e+00 -4.556152e+00 -4.527300e+00 -4.496901e+00 -4.480298e+00 -4.461515e+00 -4.456907e+00 
-4.428345e+00 -4.435773e+00 -4.439957e+00 -4.459059e+00 -4.475175e+00 -4.506013e+00 -4.534391e+00 -4.577157e+00 -4.618135e+00 -4.673062e+00 -4.726856e+00 -4.794059e+00 -4.860580e+00 -4.939795e+00 -5.018423e+00 -5.108633e+00 -5.197932e+00 -5.296889e+00 -5.394305e+00 -5.498035e+00 -5.599649e+00 -5.702176e+00 -5.802658e+00 -5.896390e+00 -5.989336e+00 -6.066441e+00 -6.145096e+00 -6.199276e+00 -6.257496e+00 -6.284621e+00 -6.319385e+00 -6.323100e+00 -6.337917e+00 -6.323725e+00 -6.319280e+00 -6.286467e+00 -6.257615e+00 -6.202126e+00 -6.145783e+00 -6.069640e+00 -5.990764e+00 -5.899525e+00 -5.804711e+00 -5.705049e+00 -5.602057e+00 -5.500569e+00 -5.396790e+00 -5.299062e+00 -5.200280e+00 -5.110449e+00 -5.020504e+00 -4.941273e+00 -4.862331e+00 -4.795228e+00 -4.728262e+00 -4.673956e+00 -4.619212e+00 -4.577810e+00 -4.535164e+00 -4.506455e+00 -4.475672e+00 -4.459315e+00 -4.440200e+00 -4.435857e+00 
-4.415075e+00 -4.422422e+00 -4.426694e+00 -4.445621e+00 -4.461783e+00 -4.492360e+00 -4.520808e+00 -4.563268e+00 -4.604425e+00 -4.659082e+00 -4.713260e+00 -4.780355e+00 -4.847565e+00 -4.927014e+00 -5.006699e+00 -5.097703e+00 -5.188400e+00 -5.288923e+00 -5.387869e+00 -5.494023e+00 -5.596850e+00 -5.702365e+00 -5.803200e+00 -5.899481e+00 -5.991904e+00 -6.069578e+00 -6.148509e+00 -6.201721e+00 -6.264867e+00 -6.297771e+00 -6.342835e+00 -6.353062e+00 -6.371664e+00 -6.353620e+00 -6.342058e+00 -6.299008e+00 -6.263126e+00 -6.202892e+00 -6.146167e+00 -6.070140e+00 -5.989925e+00 -5.899556e+00 -5.802005e+00 -5.702194e+00 -5.596362e+00 -5.493764e+00 -5.387847e+00 -5.288657e+00 -5.188627e+00 -5.097468e+00 -5.007029e+00 -4.926824e+00 -4.847911e+00 -4.780210e+00 -4.713574e+00 -4.658975e+00 -4.604686e+00 -4.563193e+00 -4.521006e+00 -4.492310e+00 -4.461914e+00 -4.445592e+00 -4.426759e+00 -4.422413e+00 
-4.382079e+00 -4.389711e+00 -4.393515e+00 -4.412612e+00 -4.428264e+00 -4.458965e+00 -4.486979e+00 -4.529666e+00 -4.570644e+00 -4.625883e+00 -4.680382e+00 -4.748776e+00 -4.817112e+00 -4.899044e+00 -4.981036e+00 -5.076234e+00 -5.170859e+00 -5.277756e+00 -5.382757e+00 -5.497671e+00 -5.609216e+00 -5.725621e+00 -5.838211e+00 -5.946856e+00 -6.053643e+00 -6.144589e+00 -6.237595e+00 -6.303060e+00 -6.371757e+00 -6.399183e+00 -6.434479e+00 -6.433345e+00 -6.448928e+00 -6.434162e+00 -6.434048e+00 -6.401703e+00 -6.371568e+00 -6.307185e+00 -6.238184e+00 -6.148683e+00 -6.055332e+00 -5.950443e+00 -5.840717e+00 -5.728656e+00 -5.612071e+00 -5.500217e+00 -5.385577e+00 -5.279872e+00 -5.173407e+00 -5.077962e+00 -4.983200e+00 -4.900423e+00 -4.818865e+00 -4.749847e+00 -4.681745e+00 -4.626688e+00 -4.571660e+00 -4.530245e+00 -4.487692e+00 -4.459351e+00 -4.428715e+00 -4.412833e+00 -4.393733e+00 -4.389782e+00 
-4.357493e+00 -4.365125e+00 -4.368882e+00 -4.387834e+00 -4.403382e+00 -4.433815e+00 -4.461786e+00 -4.504162e+00 -4.545320e+00 -4.600353e+00 -4.655462e+00 -4.723992e+00 -4.793619e+00 -4.876363e+00 -4.960575e+00 -5.057704e+00 -5.155626e+00 -5.266082e+00 -5.375274e+00 -5.495801e+00 -5.611582e+00 -5.735506e+00 -5.850695e+00 -5.966835e+00 -6.072917e+00 -6.165853e+00 -6.256604e+00 -6.312793e+00 -6.389183e+00 -6.432637e+00 -6.496929e+00 -6.518049e+00 -6.544294e+00 -6.519424e+00 -6.496486e+00 -6.435446e+00 -6.386999e+00 -6.315205e+00 -6.252878e+00 -6.166556e+00 -6.070206e+00 -5.966624e+00 -5.849501e+00 -5.735017e+00 -5.611410e+00 -5.495287e+00 -5.375586e+00 -5.265635e+00 -5.156099e+00 -5.057351e+00 -4.961057e+00 -4.876102e+00 -4.794047e+00 -4.723807e+00 -4.655815e+00 -4.600226e+00 -4.545594e+00 -4.504077e+00 -4.461985e+00 -4.433761e+00 -4.403510e+00 -4.387803e+00 -4.368944e+00 -4.365116e+00 
-4.313075e+00 -4.321037e+00 -4.324154e+00 -4.343158e+00 -4.357908e+00 -4.388186e+00 -4.415359e+00 -4.457554e+00 -4.498153e+00 -4.553303e+00 -4.608415e+00 -4.677867e+00 -4.748467e+00 -4.833657e+00 -4.920310e+00 -5.022317e+00 -5.124749e+00 -5.243457e+00 -5.360005e+00 -5.492744e+00 -5.619812e+00 -5.759561e+00 -5.891490e+00 -6.025773e+00 -6.155652e+00 -6.270144e+00 -6.390527e+00 -6.482958e+00 -6.574495e+00 -6.596074e+00 -6.620879e+00 -6.601912e+00 -6.615034e+00 -6.602944e+00 -6.619631e+00 -6.599608e+00 -6.573713e+00 -6.490139e+00 -6.390836e+00 -6.275740e+00 -6.157980e+00 -6.029912e+00 -5.894947e+00 -5.762697e+00 -5.623488e+00 -5.495216e+00 -5.363371e+00 -5.245440e+00 -5.127577e+00 -5.023889e+00 -4.922555e+00 -4.834873e+00 -4.750179e+00 -4.678779e+00 -4.609676e+00 -4.553965e+00 -4.499049e+00 -4.458015e+00 -4.415965e+00 -4.388486e+00 -4.358280e+00 -4.343327e+00 -4.324331e+00 -4.321091e+00 
-4.277394e+00 -4.285465e+00 -4.288328e+00 -4.307204e+00 -4.321593e+00 -4.351532e+00 -4.378404e+00 -4.420153e+00 -4.460749e+00 -4.515551e+00 -4.571287e+00 -4.640823e+00 -4.713115e+00 -4.799321e+00 -4.889287e+00 -4.993951e+00 -5.101884e+00 -5.225872e+00 -5.350304e+00 -5.492220e+00 -5.628462e+00 -5.782460e+00 -5.921089e+00 -6.073449e+00 -6.200678e+00 -6.324248e+00 -6.428521e+00 -6.467176e+00 -6.558425e+00 -6.626161e+00 -6.738725e+00 -6.796473e+00 -6.842386e+00 -6.800093e+00 -6.740165e+00 -6.632754e+00 -6.555953e+00 -6.472312e+00 -6.421049e+00 -6.324479e+00 -6.196868e+00 -6.072395e+00 -5.920438e+00 -5.781409e+00 -5.629139e+00 -5.491340e+00 -5.351248e+00 -5.225187e+00 -5.102726e+00 -4.993451e+00 -4.889956e+00 -4.798979e+00 -4.713626e+00 -4.640599e+00 -4.571667e+00 -4.515407e+00 -4.461023e+00 -4.420062e+00 -4.378592e+00 -4.351476e+00 -4.321710e+00 -4.307173e+00 -4.288384e+00 -4.285455e+00 
-4.222027e+00 -4.230492e+00 -4.232463e+00 -4.251212e+00 -4.264365e+00 -4.293709e+00 -4.319199e+00 -4.360062e+00 -4.399428e+00 -4.453410e+00 -4.508472e+00 -4.577885e+00 -4.650570e+00 -4.738361e+00 -4.830406e+00 -4.939826e+00 -5.052247e+00 -5.185977e+00 -5.318212e+00 -5.476377e+00 -5.625201e+00 -5.801453e+00 -5.960369e+00 -6.135667e+00 -6.297544e+00 -6.440081e+00 -6.609770e+00 -6.781624e+00 -6.937020e+00 -6.925566e+00 -6.887553e+00 -6.806195e+00 -6.803274e+00 -6.807210e+00 -6.884142e+00 -6.929500e+00 -6.935387e+00 -6.797024e+00 -6.608955e+00 -6.447256e+00 -6.301620e+00 -6.140023e+00 -5.965775e+00 -5.804385e+00 -5.630240e+00 -5.478591e+00 -5.322331e+00 -5.187718e+00 -5.055368e+00 -4.941156e+00 -4.832654e+00 -4.739330e+00 -4.652133e+00 -4.578563e+00 -4.509526e+00 -4.453867e+00 -4.400119e+00 -4.360356e+00 -4.319634e+00 -4.293887e+00 -4.264617e+00 -4.251307e+00 -4.232578e+00 -4.230521e+00 
-4.175622e+00 -4.184342e+00 -4.185759e+00 -4.204377e+00 -4.216764e+00 -4.245609e+00 -4.270327e+00 -4.310433e+00 -4.349319e+00 -4.402521e+00 -4.457835e+00 -4.526849e+00 -4.601165e+00 -4.689573e+00 -4.785606e+00 -4.897602e+00 -5.017743e+00 -5.157426e+00 -5.302538e+00 -5.472424e+00 -5.639068e+00 -5.837202e+00 -6.012851e+00 -6.227986e+00 -6.386730e+00 -6.595381e+00 -6.700771e+00 -6.609351e+00 -6.687919e+00 -6.827647e+00 -7.081535e+00 -7.267541e+00 -7.373263e+00 -7.277826e+00 -7.090659e+00 -6.843253e+00 -6.686399e+00 -6.620434e+00 -6.681491e+00 -6.591847e+00 -6.382477e+00 -6.224905e+00 -6.014622e+00 -5.835439e+00 -5.641656e+00 -5.471142e+00 -5.304464e+00 -5.156483e+00 -5.019000e+00 -4.896957e+00 -4.786419e+00 -4.689164e+00 -4.601705e+00 -4.526601e+00 -4.458198e+00 -4.402374e+00 -4.349562e+00 -4.310344e+00 -4.270481e+00 -4.245555e+00 -4.216854e+00 -4.204346e+00 -4.185800e+00 -4.184333e+00 
-4.110205e+00 -4.119428e+00 -4.119590e+00 -4.137863e+00 -4.148394e+00 -4.176050e+00 -4.198538e+00 -4.236729e+00 -4.273358e+00 -4.324233e+00 -4.377751e+00 -4.444686e+00 -4.518319e+00 -4.606141e+00 -4.703362e+00 -4.818389e+00 -4.942296e+00 -5.091804e+00 -5.243637e+00 -5.433765e+00 -5.610151e+00 -5.839681e+00 -6.028832e+00 -6.270283e+00 -6.452509e+00 -6.556037e+00 -6.796629e+00 -7.270309e+00 -7.667201e+00 -7.503452e+00 -7.160722e+00 -6.794918e+00 -6.674501e+00 -6.792342e+00 -7.150129e+00 -7.499689e+00 -7.663646e+00 -7.312437e+00 -6.792600e+00 -6.559782e+00 -6.461796e+00 -6.273549e+00 -6.037835e+00 -5.841685e+00 -5.617073e+00 -5.435441e+00 -5.248556e+00 -5.093209e+00 -4.945554e+00 -4.819392e+00 -4.705394e+00 -4.606766e+00 -4.519525e+00 -4.445035e+00 -4.378432e+00 -4.324404e+00 -4.273722e+00 -4.236799e+00 -4.198719e+00 -4.176068e+00 -4.148474e+00 -4.137862e+00 -4.119619e+00 -4.119425e+00 
-4.053706e+00 -4.063386e+00 -4.062571e+00 -4.080705e+00 -4.089876e+00 -4.116790e+00 -4.137762e+00 -4.174693e+00 -4.209983e+00 -4.259306e+00 -4.312147e+00 -4.377679e+00 -4.452061e+00 -4.539338e+00 -4.640053e+00 -4.756323e+00 -4.888811e+00 -5.042301e+00 -5.211396e+00 -5.409508e+00 -5.615113e+00 -5.860991e+00 -6.089296e+00 -6.375977e+00 -6.596653e+00 -7.173284e+00 -7.059792e+00 -5.380675e+00 -2.892459e+00 3.497871e-01 3.141997e+00 4.843418e+00 5.432044e+00 4.883413e+00 3.183710e+00 4.200146e-01 -2.782368e+00 -5.343159e+00 -6.994345e+00 -7.151166e+00 -6.597549e+00 -6.369397e+00 -6.098098e+00 -5.859074e+00 -5.620906e+00 -5.407859e+00 -5.214236e+00 -5.041091e+00 -4.890218e+00 -4.755563e+00 -4.640810e+00 -4.538907e+00 -4.452506e+00 -4.377446e+00 -4.312418e+00 -4.259179e+00 -4.210143e+00 -4.174617e+00 -4.137851e+00 -4.116740e+00 -4.089919e+00 -4.080675e+00 -4.062588e+00 -4.063376e+00 
-3.979713e+00 -3.990081e+00 -3.987519e+00 -4.005101e+00 -4.011590e+00 -4.036634e+00 -4.054226e+00 -4.087953e+00 -4.119539e+00 -4.164459e+00 -4.213862e+00 -4.274273e+00 -4.346331e+00 -4.428939e+00 -4.529416e+00 -4.643823e+00 -4.778567e+00 -4.937120e+00 -5.109147e+00 -5.325939e+00 -5.530311e+00 -5.821844e+00 -6.039405e+00 -6.462433e+00 -6.372345e+00 -4.295538e+00 4.324957e-01 6.347521e+00 1.053928e+01 1.355995e+01 1.543376e+01 1.602359e+01 1.623035e+01 1.605009e+01 1.545360e+01 1.363722e+01 1.072207e+01 6.514646e+00 6.319580e-01 -4.217725e+00 -6.380714e+00 -6.465976e+00 -6.053371e+00 -5.821393e+00 -5.538607e+00 -5.326757e+00 -5.114345e+00 -4.938217e+00 -4.781455e+00 -4.644426e+00 -4.530792e+00 -4.429083e+00 -4.346843e+00 -4.274161e+00 -4.213934e+00 -4.164248e+00 -4.119421e+00 -4.087732e+00 -4.054057e+00 -4.036451e+00 -4.011445e+00 -4.004982e+00 -3.987438e+00 -3.990039e+00 
-3.914129e+00 -3.925230e+00 -3.921135e+00 -3.938587e+00 -3.942923e+00 -3.966926e+00 -3.981974e+00 -4.013771e+00 -4.042751e+00 -4.085018e+00 -4.132198e+00 -4.189668e+00 -4.260482e+00 -4.340605e+00 -4.441735e+00 -4.554628e+00 -4.693889e+00 -4.850347e+00 -5.035757e+00 -5.245146e+00 -5.483338e+00 -5.757197e+00 -6.021407e+00 -5.333012e+00 -1.152168e+00 5.857035e+00 1.154633e+01 1.483440e+01 1.576401e+01 1.578588e+01 1.580287e+01 1.555605e+01 1.555210e+01 1.555810e+01 1.579130e+01 1.579548e+01 1.578537e+01 1.484851e+01 1.160284e+01 5.924342e+00 -9.360541e-01 -5.222996e+00 -6.049450e+00 -5.758721e+00 -5.491846e+00 -5.242622e+00 -5.037675e+00 -4.848648e+00 -4.694535e+00 -4.553802e+00 -4.442051e+00 -4.340243e+00 -4.260659e+00 -4.189514e+00 -4.132285e+00 -4.084941e+00 -4.042772e+00 -4.013716e+00 -3.981957e+00 -3.966880e+00 -3.942893e+00 -3.938553e+00 -3.921114e+00 -3.925218e+00 
-3.833742e+00 -3.845833e+00 -3.839355e+00 -3.856147e+00 -3.856772e+00 -3.878285e+00 -3.888486e+00 -3.915738e+00 -3.939092e+00 -3.974549e+00 -4.015987e+00 -4.064338e+00 -4.130386e+00 -4.199413e+00 -4.297995e+00 -4.398672e+00 -4.537478e+00 -4.682715e+00 -4.865142e+00 -5.072235e+00 -5.301991e+00 -5.539240e+00 -4.226092e+00 1.498041e+00 9.092400e+00 1.385034e+01 1.510899e+01 1.512597e+01 1.499195e+01 1.497700e+01 1.520041e+01 1.526587e+01 1.536833e+01 1.527310e+01 1.520014e+01 1.498684e+01 1.498058e+01 1.510917e+01 1.510460e+01 1.394377e+01 9.446292e+00 1.706542e+00 -4.188776e+00 -5.511762e+00 -5.308507e+00 -5.072820e+00 -4.869438e+00 -4.683972e+00 -4.539003e+00 -4.398716e+00 -4.297979e+00 -4.198807e+00 -4.129728e+00 -4.063569e+00 -4.015165e+00 -3.973837e+00 -3.938329e+00 -3.915161e+00 -3.887878e+00 -3.877865e+00 -3.856354e+00 -3.855893e+00 -3.839144e+00 -3.845747e+00 
-3.760586e+00 -3.773786e+00 -3.765079e+00 -3.781822e+00 -3.779303e+00 -3.799498e+00 -3.805865e+00 -3.830437e+00 -3.849598e+00 -3.881026e+00 -3.918297e+00 -3.961601e+00 -4.023546e+00 -4.087289e+00 -4.180572e+00 -4.276057e+00 -4.406020e+00 -4.542639e+00 -4.718592e+00 -4.910691e+00 -5.141333e+00 -3.768718e+00 2.394673e+00 1.037635e+01 1.405118e+01 1.454015e+01 1.453369e+01 1.477257e+01 1.496915e+01 1.503959e+01 1.512705e+01 1.507183e+01 1.511745e+01 1.507425e+01 1.512673e+01 1.504798e+01 1.497674e+01 1.478770e+01 1.454349e+01 1.456499e+01 1.412822e+01 1.045350e+01 2.610742e+00 -3.615485e+00 -5.126044e+00 -4.903691e+00 -4.714143e+00 -4.539924e+00 -4.404618e+00 -4.275353e+00 -4.180130e+00 -4.087174e+00 -4.023349e+00 -3.961609e+00 -3.918133e+00 -3.881021e+00 -3.849425e+00 -3.830396e+00 -3.805698e+00 -3.799437e+00 -3.779169e+00 -3.781769e+00 -3.765005e+00 -3.773766e+00 
-3.676779e+00 -3.691413e+00 -3.679569e+00 -3.695750e+00 -3.688340e+00 -3.705708e+00 -3.705498e+00 -3.724512e+00 -3.735626e+00 -3.758084e+00 -3.786424e+00 -3.816394e+00 -3.869650e+00 -3.914104e+00 -4.000413e+00 -4.067619e+00 -4.194190e+00 -4.292359e+00 -4.464936e+00 -4.644713e+00 -3.814506e+00 2.050481e+00 1.031332e+01 1.385452e+01 1.407121e+01 1.430343e+01 1.445510e+01 1.454130e+01 1.459204e+01 1.462344e+01 1.472599e+01 1.473768e+01 1.479647e+01 1.473977e+01 1.472544e+01 1.462586e+01 1.458962e+01 1.453799e+01 1.445685e+01 1.430519e+01 1.409090e+01 1.386985e+01 1.053703e+01 2.295616e+00 -3.773270e+00 -4.664210e+00 -4.469476e+00 -4.295545e+00 -4.192941e+00 -4.066311e+00 -3.997929e+00 -3.912126e+00 -3.867245e+00 -3.814674e+00 -3.784431e+00 -3.756753e+00 -3.734093e+00 -3.723531e+00 -3.704394e+00 -3.705030e+00 -3.687627e+00 -3.695350e+00 -3.679219e+00 -3.691281e+00 
-3.598179e+00 -3.614413e+00 -3.599520e+00 -3.615863e+00 -3.604141e+00 -3.620068e+00 -3.614486e+00 -3.630181e+00 -3.635297e+00 -3.652206e+00 -3.674540e+00 -3.696516e+00 -3.743472e+00 -3.778022e+00 -3.852598e+00 -3.910828e+00 -4.006721e+00 -4.095550e+00 -4.240837e+00 -4.060105e+00 5.735260e-01 9.162202e+00 1.347922e+01 1.383002e+01 1.399813e+01 1.412606e+01 1.421968e+01 1.434964e+01 1.446678e+01 1.452830e+01 1.460956e+01 1.460147e+01 1.464534e+01 1.460308e+01 1.461137e+01 1.453290e+01 1.447209e+01 1.435519e+01 1.422725e+01 1.412620e+01 1.400816e+01 1.380018e+01 1.347953e+01 9.271251e+00 7.442542e-01 -3.984495e+00 -4.232024e+00 -4.092935e+00 -4.004749e+00 -3.911279e+00 -3.851870e+00 -3.778439e+00 -3.742986e+00 -3.696727e+00 -3.674095e+00 -3.652244e+00 -3.634875e+00 -3.630106e+00 -3.614119e+00 -3.619948e+00 -3.603869e+00 -3.615762e+00 -3.599375e+00 -3.614374e+00 
-3.514707e+00 -3.532949e+00 -3.514121e+00 -3.530300e+00 -3.512492e+00 -3.525787e+00 -3.511799e+00 -3.521756e+00 -3.516026e+00 -3.522947e+00 -3.532102e+00 -3.537798e+00 -3.569513e+00 -3.577383e+00 -3.635442e+00 -3.648139e+00 -3.742734e+00 -3.739062e+00 -4.041747e+00 -1.413063e+00 6.729938e+00 1.273474e+01 1.351382e+01 1.365777e+01 1.377471e+01 1.391884e+01 1.403351e+01 1.411961e+01 1.420156e+01 1.424040e+01 1.431425e+01 1.431617e+01 1.435840e+01 1.431669e+01 1.431417e+01 1.424086e+01 1.420156e+01 1.411880e+01 1.403559e+01 1.391985e+01 1.378003e+01 1.366356e+01 1.351256e+01 1.283347e+01 7.092134e+00 -1.179429e+00 -4.030287e+00 -3.731680e+00 -3.734361e+00 -3.641535e+00 -3.628934e+00 -3.572862e+00 -3.564837e+00 -3.534863e+00 -3.528801e+00 -3.520974e+00 -3.513710e+00 -3.520388e+00 -3.510219e+00 -3.524865e+00 -3.511502e+00 -3.529760e+00 -3.513643e+00 -3.532770e+00 
-3.433470e+00 -3.453904e+00 -3.431132e+00 -3.447873e+00 -3.424428e+00 -3.436494e+00 -3.415267e+00 -3.421748e+00 -3.407763e+00 -3.407953e+00 -3.409456e+00 -3.403133e+00 -3.430023e+00 -3.418392e+00 -3.469519e+00 -3.470410e+00 -3.495523e+00 -3.634289e+00 -3.056083e+00 3.408986e+00 1.125818e+01 1.331459e+01 1.332437e+01 1.354159e+01 1.364597e+01 1.378326e+01 1.388540e+01 1.398293e+01 1.407966e+01 1.412871e+01 1.420089e+01 1.420094e+01 1.424014e+01 1.420181e+01 1.420266e+01 1.413091e+01 1.408334e+01 1.398492e+01 1.389007e+01 1.378233e+01 1.364964e+01 1.353545e+01 1.332011e+01 1.332659e+01 1.139468e+01 3.581758e+00 -3.011675e+00 -3.661630e+00 -3.499093e+00 -3.475225e+00 -3.469365e+00 -3.419273e+00 -3.429215e+00 -3.403324e+00 -3.408614e+00 -3.407883e+00 -3.406997e+00 -3.421528e+00 -3.414632e+00 -3.436234e+00 -3.423973e+00 -3.447674e+00 -3.430895e+00 -3.453831e+00 
-3.354685e+00 -3.377754e+00 -3.350348e+00 -3.367636e+00 -3.337117e+00 -3.347450e+00 -3.316221e+00 -3.318066e+00 -3.290523e+00 -3.281811e+00 -3.265414e+00 -3.243063e+00 -3.245487e+00 -3.205928e+00 -3.213766e+00 -3.182497e+00 -3.069106e+00 -3.308997e+00 -2.709752e-01 8.018660e+00 1.280855e+01 1.303489e+01 1.319858e+01 1.334625e+01 1.347530e+01 1.359506e+01 1.370587e+01 1.378228e+01 1.387030e+01 1.390508e+01 1.397231e+01 1.396978e+01 1.400799e+01 1.396971e+01 1.397231e+01 1.390450e+01 1.387047e+01 1.378067e+01 1.370679e+01 1.359232e+01 1.347731e+01 1.333995e+01 1.320210e+01 1.301302e+01 1.282853e+01 8.246301e+00 -5.401318e-02 -3.282759e+00 -3.050742e+00 -3.168966e+00 -3.202947e+00 -3.199032e+00 -3.238690e+00 -3.239295e+00 -3.261033e+00 -3.279445e+00 -3.287606e+00 -3.316433e+00 -3.314285e+00 -3.346332e+00 -3.335921e+00 -3.366974e+00 -3.349775e+00 -3.377533e+00 
-3.274271e+00 -3.300141e+00 -3.267942e+00 -3.286362e+00 -3.248810e+00 -3.258618e+00 -3.217779e+00 -3.217091e+00 -3.177519e+00 -3.162884e+00 -3.134599e+00 -3.097563e+00 -3.100068e+00 -3.015759e+00 -3.084313e+00 -2.897995e+00 -3.101493e+00 -2.568806e+00 3.667540e+00 1.122413e+01 1.290923e+01 1.286307e+01 1.310594e+01 1.322240e+01 1.337111e+01 1.348035e+01 1.359695e+01 1.367303e+01 1.376877e+01 1.380513e+01 1.387541e+01 1.387195e+01 1.391149e+01 1.387241e+01 1.387686e+01 1.380627e+01 1.377157e+01 1.367413e+01 1.360075e+01 1.348078e+01 1.337571e+01 1.322329e+01 1.311241e+01 1.287024e+01 1.292542e+01 1.134680e+01 3.895180e+00 -2.481825e+00 -3.101183e+00 -2.889732e+00 -3.082239e+00 -3.013774e+00 -3.098038e+00 -3.097002e+00 -3.133023e+00 -3.162443e+00 -3.176252e+00 -3.216556e+00 -3.216788e+00 -3.258101e+00 -3.248125e+00 -3.285997e+00 -3.267592e+00 -3.300010e+00 
-3.204712e+00 -3.233742e+00 -3.196495e+00 -3.216354e+00 -3.171220e+00 -3.180819e+00 -3.129043e+00 -3.126237e+00 -3.071264e+00 -3.051573e+00 -3.002626e+00 -2.953578e+00 -2.933033e+00 -2.811670e+00 -2.880794e+00 -2.548431e+00 -2.933753e+00 -9.883552e-01 6.933435e+00 1.240963e+01 1.256143e+01 1.280319e+01 1.292437e+01 1.309191e+01 1.321687e+01 1.332924e+01 1.344226e+01 1.350866e+01 1.360132e+01 1.362800e+01 1.369683e+01 1.368819e+01 1.372890e+01 1.368786e+01 1.369668e+01 1.362686e+01 1.360104e+01 1.350635e+01 1.344178e+01 1.332533e+01 1.321535e+01 1.308539e+01 1.291789e+01 1.279282e+01 1.253311e+01 1.241252e+01 7.205425e+00 -7.686257e-01 -2.929696e+00 -2.537470e+00 -2.869880e+00 -2.805842e+00 -2.925373e+00 -2.950304e+00 -2.997828e+00 -3.049304e+00 -3.068120e+00 -3.124495e+00 -3.126957e+00 -3.179550e+00 -3.169928e+00 -3.215582e+00 -3.195874e+00 -3.233483e+00 
-3.129050e+00 -3.161295e+00 -3.118716e+00 -3.140239e+00 -3.086968e+00 -3.097060e+00 -3.033106e+00 -3.030086e+00 -2.956762e+00 -2.937210e+00 -2.860141e+00 -2.814447e+00 -2.749927e+00 -2.641001e+00 -2.642427e+00 -2.334412e+00 -2.643728e+00 1.753232e+00 9.753184e+00 1.258062e+01 1.236811e+01 1.273580e+01 1.281935e+01 1.299992e+01 1.312948e+01 1.323744e+01 1.335888e+01 1.342153e+01 1.352192e+01 1.354631e+01 1.362028e+01 1.360922e+01 1.365348e+01 1.360953e+01 1.362147e+01 1.354709e+01 1.352420e+01 1.342243e+01 1.336216e+01 1.323833e+01 1.313414e+01 1.300202e+01 1.282783e+01 1.274489e+01 1.239037e+01 1.262075e+01 1.002154e+01 1.980076e+00 -2.649219e+00 -2.335982e+00 -2.636627e+00 -2.640618e+00 -2.745948e+00 -2.814023e+00 -2.857622e+00 -2.936382e+00 -2.954879e+00 -3.029049e+00 -3.031686e+00 -3.096135e+00 -3.086016e+00 -3.139626e+00 -3.118240e+00 -3.161082e+00 
-3.072840e+00 -3.108458e+00 -3.060886e+00 -3.084608e+00 -3.023950e+00 -3.035502e+00 -2.960608e+00 -2.958916e+00 -2.868971e+00 -2.852234e+00 -2.748737e+00 -2.712983e+00 -2.602329e+00 -2.529721e+00 -2.433798e+00 -2.257030e+00 -2.210805e+00 4.135359e+00 1.134349e+01 1.240572e+01 1.230239e+01 1.262002e+01 1.271875e+01 1.288431e+01 1.301887e+01 1.311512e+01 1.323986e+01 1.329129e+01 1.339325e+01 1.340846e+01 1.348394e+01 1.346675e+01 1.351393e+01 1.346633e+01 1.348363e+01 1.340712e+01 1.339263e+01 1.328882e+01 1.323898e+01 1.311125e+01 1.301795e+01 1.287887e+01 1.271910e+01 1.261360e+01 1.231005e+01 1.239936e+01 1.140514e+01 4.290594e+00 -2.133882e+00 -2.252525e+00 -2.413068e+00 -2.527724e+00 -2.593902e+00 -2.711262e+00 -2.744296e+00 -2.850277e+00 -2.866044e+00 -2.957048e+00 -2.958598e+00 -3.034047e+00 -3.022681e+00 -3.083708e+00 -3.060273e+00 -3.108155e+00 
-3.005968e+00 -3.044735e+00 -2.991969e+00 -3.017420e+00 -2.948594e+00 -2.961011e+00 -2.873250e+00 -2.872455e+00 -2.761299e+00 -2.748101e+00 -2.606577e+00 -2.586403e+00 -2.396945e+00 -2.385647e+00 -2.086198e+00 -2.144179e+00 -9.854662e-01 6.673716e+00 1.195732e+01 1.219512e+01 1.232219e+01 1.250830e+01 1.267424e+01 1.279891e+01 1.296173e+01 1.304118e+01 1.318134e+01 1.322476e+01 1.333650e+01 1.334727e+01 1.342921e+01 1.340855e+01 1.346036e+01 1.340885e+01 1.343023e+01 1.334806e+01 1.333842e+01 1.322570e+01 1.318387e+01 1.304150e+01 1.296420e+01 1.279652e+01 1.267457e+01 1.249561e+01 1.231129e+01 1.213994e+01 1.189670e+01 6.880806e+00 -7.795062e-01 -2.143444e+00 -2.067957e+00 -2.386982e+00 -2.391147e+00 -2.585860e+00 -2.603319e+00 -2.746361e+00 -2.758804e+00 -2.870541e+00 -2.871387e+00 -2.959485e+00 -2.947377e+00 -3.016476e+00 -2.991372e+00 -3.044418e+00 
-2.966291e+00 -3.008138e+00 -2.951047e+00 -2.978902e+00 -2.903824e+00 -2.918480e+00 -2.821502e+00 -2.823541e+00 -2.698401e+00 -2.690554e+00 -2.527212e+00 -2.521205e+00 -2.295668e+00 -2.327102e+00 -1.955203e+00 -2.145997e+00 -1.888398e-02 8.448759e+00 1.215437e+01 1.198794e+01 1.234216e+01 1.239275e+01 1.263167e+01 1.270481e+01 1.289308e+01 1.294822e+01 1.309847e+01 1.312746e+01 1.324383e+01 1.324501e+01 1.333008e+01 1.330300e+01 1.335851e+01 1.330258e+01 1.332961e+01 1.324373e+01 1.324289e+01 1.312520e+01 1.309713e+01 1.294483e+01 1.289172e+01 1.270011e+01 1.263208e+01 1.238668e+01 1.235146e+01 1.198208e+01 1.220210e+01 8.756985e+00 2.118750e-01 -2.167181e+00 -1.954088e+00 -2.332189e+00 -2.294001e+00 -2.520695e+00 -2.524977e+00 -2.688310e+00 -2.696209e+00 -2.821233e+00 -2.819775e+00 -2.916719e+00 -2.902684e+00 -2.977840e+00 -2.950487e+00 -3.007786e+00 
-2.911995e+00 -2.956314e+00 -2.895010e+00 -2.923970e+00 -2.842191e+00 -2.856852e+00 -2.749550e+00 -2.750595e+00 -2.609741e+00 -2.599791e+00 -2.413438e+00 -2.403422e+00 -2.148629e+00 -2.167444e+00 -1.778229e+00 -1.905292e+00 1.125809e+00 9.649052e+00 1.210423e+01 1.187985e+01 1.231244e+01 1.231000e+01 1.259533e+01 1.264033e+01 1.285450e+01 1.289561e+01 1.306112e+01 1.308302e+01 1.320895e+01 1.320615e+01 1.329748e+01 1.326731e+01 1.332724e+01 1.326771e+01 1.329847e+01 1.320732e+01 1.321084e+01 1.308484e+01 1.306370e+01 1.289773e+01 1.285725e+01 1.264171e+01 1.259713e+01 1.230786e+01 1.231145e+01 1.186977e+01 1.210462e+01 9.819500e+00 1.296409e+00 -1.933122e+00 -1.790074e+00 -2.172167e+00 -2.149326e+00 -2.401370e+00 -2.411026e+00 -2.596226e+00 -2.606988e+00 -2.747433e+00 -2.747380e+00 -2.854610e+00 -2.840781e+00 -2.922670e+00 -2.894326e+00 -2.955890e+00 
-2.891008e+00 -2.937606e+00 -2.873233e+00 -2.904179e+00 -2.818129e+00 -2.834732e+00 -2.721409e+00 -2.724489e+00 -2.575476e+00 -2.567507e+00 -2.372038e+00 -2.362604e+00 -2.105118e+00 -2.114830e+00 -1.757443e+00 -1.826199e+00 1.968402e+00 1.046023e+01 1.204082e+01 1.185307e+01 1.229880e+01 1.226352e+01 1.257163e+01 1.258720e+01 1.281509e+01 1.283672e+01 1.300925e+01 1.301853e+01 1.314814e+01 1.313701e+01 1.323100e+01 1.319525e+01 1.325832e+01 1.319488e+01 1.323037e+01 1.313588e+01 1.314683e+01 1.301666e+01 1.300708e+01 1.283410e+01 1.281172e+01 1.258377e+01 1.256618e+01 1.225901e+01 1.228868e+01 1.184705e+01 1.201468e+01 1.059430e+01 2.198384e+00 -1.822853e+00 -1.766860e+00 -2.112856e+00 -2.108327e+00 -2.359355e+00 -2.371811e+00 -2.563896e+00 -2.574118e+00 -2.721477e+00 -2.720070e+00 -2.832627e+00 -2.817183e+00 -2.902962e+00 -2.872756e+00 -2.937210e+00 
-2.852717e+00 -2.900670e+00 -2.833714e+00 -2.864804e+00 -2.774539e+00 -2.789987e+00 -2.670469e+00 -2.670553e+00 -2.513479e+00 -2.499047e+00 -2.296029e+00 -2.271731e+00 -2.017183e+00 -1.987127e+00 -1.675271e+00 -1.625251e+00 2.691326e+00 1.086830e+01 1.189791e+01 1.180753e+01 1.223731e+01 1.221602e+01 1.253639e+01 1.254912e+01 1.279058e+01 1.280845e+01 1.299111e+01 1.299809e+01 1.313463e+01 1.312212e+01 1.322068e+01 1.318360e+01 1.324965e+01 1.318413e+01 1.322172e+01 1.312379e+01 1.313669e+01 1.300112e+01 1.299417e+01 1.281333e+01 1.279463e+01 1.255698e+01 1.254160e+01 1.222988e+01 1.224519e+01 1.183703e+01 1.191572e+01 1.103629e+01 2.957543e+00 -1.606793e+00 -1.675017e+00 -1.976814e+00 -2.015612e+00 -2.263991e+00 -2.293026e+00 -2.492967e+00 -2.510444e+00 -2.666187e+00 -2.668139e+00 -2.787156e+00 -2.773043e+00 -2.863233e+00 -2.832992e+00 -2.900167e+00 
-2.851792e+00 -2.900903e+00 -2.832587e+00 -2.864998e+00 -2.773030e+00 -2.790026e+00 -2.668230e+00 -2.669964e+00 -2.510081e+00 -2.496583e+00 -2.291463e+00 -2.263742e+00 -2.012639e+00 -1.959894e+00 -1.672056e+00 -1.524648e+00 3.209663e+00 1.123893e+01 1.190533e+01 1.186397e+01 1.224663e+01 1.222254e+01 1.253464e+01 1.253461e+01 1.277593e+01 1.278255e+01 1.296581e+01 1.296464e+01 1.310157e+01 1.308350e+01 1.318268e+01 1.314195e+01 1.320942e+01 1.314161e+01 1.318195e+01 1.308251e+01 1.309999e+01 1.296307e+01 1.296303e+01 1.278055e+01 1.277107e+01 1.253239e+01 1.252568e+01 1.222058e+01 1.222925e+01 1.186401e+01 1.187193e+01 1.132459e+01 3.452888e+00 -1.509662e+00 -1.685178e+00 -1.953124e+00 -2.018445e+00 -2.258514e+00 -2.292585e+00 -2.492053e+00 -2.509376e+00 -2.666521e+00 -2.667219e+00 -2.787726e+00 -2.772248e+00 -2.863698e+00 -2.832178e+00 -2.900484e+00 
-2.832372e+00 -2.881570e+00 -2.812636e+00 -2.844375e+00 -2.751150e+00 -2.766578e+00 -2.642941e+00 -2.641885e+00 -2.479970e+00 -2.461803e+00 -2.255930e+00 -2.220233e+00 -1.973897e+00 -1.905701e+00 -1.638278e+00 -1.452571e+00 3.353615e+00 1.123745e+01 1.182255e+01 1.181824e+01 1.220341e+01 1.219465e+01 1.251382e+01 1.252119e+01 1.276885e+01 1.277996e+01 1.296802e+01 1.296996e+01 1.311023e+01 1.309428e+01 1.319550e+01 1.315590e+01 1.322421e+01 1.315650e+01 1.319656e+01 1.309617e+01 1.311238e+01 1.297352e+01 1.297132e+01 1.278607e+01 1.277347e+01 1.253185e+01 1.252031e+01 1.221467e+01 1.221354e+01 1.185930e+01 1.184083e+01 1.139377e+01 3.669637e+00 -1.398324e+00 -1.631375e+00 -1.884772e+00 -1.970609e+00 -2.209163e+00 -2.252530e+00 -2.454516e+00 -2.476834e+00 -2.637019e+00 -2.640578e+00 -2.763522e+00 -2.749638e+00 -2.842704e+00 -2.811907e+00 -2.881039e+00 