# vtk DataFile Version 2.0
Comment goes here
ASCII

DATASET STRUCTURED_POINTS
FIELD FieldData 1
TIME 1 1 double
0.41000000
DIMENSIONS    64   64   1

ORIGIN    0.000   0.000   0.000
SPACING   0.015625 0.015625   1.000

POINT_DATA   4096
SCALARS P double
LOOKUP_TABLE default

-4.539406e+00 -4.538486e+00 -4.526139e+00 -4.511857e+00 -4.486274e+00 -4.458447e+00 -4.419658e+00 -4.378106e+00 -4.326196e+00 -4.270852e+00 -4.206085e+00 -4.137178e+00 -4.060155e+00 -3.978439e+00 -3.890300e+00 -3.797330e+00 -3.699983e+00 -3.598378e+00 -3.494745e+00 -3.388397e+00 -3.282620e+00 -3.176729e+00 -3.074234e+00 -2.975046e+00 -2.882224e+00 -2.796275e+00 -2.719561e+00 -2.652485e+00 -2.596999e+00 -2.552511e+00 -2.521289e+00 -2.501304e+00 -2.495754e+00 -2.501087e+00 -2.521448e+00 -2.551878e+00 -2.597299e+00 -2.651491e+00 -2.719966e+00 -2.795018e+00 -2.882681e+00 -2.973661e+00 -3.074691e+00 -3.175358e+00 -3.283037e+00 -3.387150e+00 -3.495096e+00 -3.597318e+00 -3.700258e+00 -3.796475e+00 -3.890501e+00 -3.977779e+00 -4.060290e+00 -4.136686e+00 -4.206168e+00 -4.270498e+00 -4.326241e+00 -4.377861e+00 -4.419679e+00 -4.458289e+00 -4.486281e+00 -4.511769e+00 -4.526141e+00 -4.538458e+00 
-4.541717e+00 -4.541496e+00 -4.528589e+00 -4.515026e+00 -4.488956e+00 -4.461842e+00 -4.422666e+00 -4.381786e+00 -4.329622e+00 -4.274879e+00 -4.210030e+00 -4.141633e+00 -4.064751e+00 -3.983465e+00 -3.895747e+00 -3.803190e+00 -3.706614e+00 -3.605537e+00 -3.503104e+00 -3.397589e+00 -3.293535e+00 -3.188980e+00 -3.088806e+00 -2.991564e+00 -2.901629e+00 -2.818132e+00 -2.744586e+00 -2.680063e+00 -2.627453e+00 -2.584988e+00 -2.555689e+00 -2.536585e+00 -2.531540e+00 -2.536279e+00 -2.555659e+00 -2.584091e+00 -2.627398e+00 -2.678643e+00 -2.744502e+00 -2.816308e+00 -2.901496e+00 -2.989499e+00 -3.088592e+00 -3.186846e+00 -3.293210e+00 -3.395522e+00 -3.502654e+00 -3.603626e+00 -3.706048e+00 -3.801479e+00 -3.895099e+00 -3.981974e+00 -4.064067e+00 -4.140368e+00 -4.209364e+00 -4.273841e+00 -4.329023e+00 -4.380977e+00 -4.422178e+00 -4.461263e+00 -4.488612e+00 -4.514679e+00 -4.528411e+00 -4.541380e+00 
-4.554866e+00 -4.554000e+00 -4.541600e+00 -4.527368e+00 -4.501711e+00 -4.473895e+00 -4.434963e+00 -4.393318e+00 -4.341129e+00 -4.285496e+00 -4.220232e+00 -4.150731e+00 -4.072911e+00 -3.990192e+00 -3.900888e+00 -3.806433e+00 -3.707511e+00 -3.603933e+00 -3.498311e+00 -3.389576e+00 -3.281440e+00 -3.172908e+00 -3.067782e+00 -2.965907e+00 -2.870365e+00 -2.781910e+00 -2.702672e+00 -2.633487e+00 -2.576008e+00 -2.530005e+00 -2.497588e+00 -2.476873e+00 -2.471094e+00 -2.476645e+00 -2.497752e+00 -2.529340e+00 -2.576322e+00 -2.632440e+00 -2.703099e+00 -2.780582e+00 -2.870846e+00 -2.964450e+00 -3.068259e+00 -3.171480e+00 -3.281869e+00 -3.388297e+00 -3.498667e+00 -3.602863e+00 -3.707786e+00 -3.805585e+00 -3.901086e+00 -3.989548e+00 -4.073044e+00 -4.150259e+00 -4.220313e+00 -4.285161e+00 -4.341172e+00 -4.393089e+00 -4.434982e+00 -4.473748e+00 -4.501716e+00 -4.527286e+00 -4.541601e+00 -4.553974e+00 
-4.572554e+00 -4.572467e+00 -4.559432e+00 -4.545999e+00 -4.519756e+00 -4.492698e+00 -4.453205e+00 -4.412174e+00 -4.359411e+00 -4.304113e+00 -4.238222e+00 -4.168628e+00 -4.090095e+00 -4.006739e+00 -3.916622e+00 -3.820964e+00 -3.721154e+00 -3.615937e+00 -3.509432e+00 -3.398942e+00 -3.290094e+00 -3.180149e+00 -3.074753e+00 -2.972257e+00 -2.877188e+00 -2.789110e+00 -2.711110e+00 -2.643008e+00 -2.587061e+00 -2.542144e+00 -2.510873e+00 -2.490606e+00 -2.485157e+00 -2.490276e+00 -2.510834e+00 -2.541172e+00 -2.587000e+00 -2.641459e+00 -2.711038e+00 -2.787117e+00 -2.877084e+00 -2.970020e+00 -3.074568e+00 -3.177876e+00 -3.289781e+00 -3.396787e+00 -3.508970e+00 -3.613980e+00 -3.720557e+00 -3.819236e+00 -3.915932e+00 -4.005248e+00 -4.089367e+00 -4.167370e+00 -4.237514e+00 -4.303084e+00 -4.358778e+00 -4.411373e+00 -4.452692e+00 -4.492126e+00 -4.519396e+00 -4.545655e+00 -4.559247e+00 -4.572353e+00 
-4.601299e+00 -4.600600e+00 -4.588069e+00 -4.574023e+00 -4.548198e+00 -4.520488e+00 -4.481202e+00 -4.439382e+00 -4.386441e+00 -4.330062e+00 -4.263396e+00 -4.192228e+00 -4.112097e+00 -4.026450e+00 -3.933703e+00 -3.834816e+00 -3.731187e+00 -3.621631e+00 -3.510021e+00 -3.393990e+00 -3.278701e+00 -3.162056e+00 -3.048886e+00 -2.938759e+00 -2.834793e+00 -2.738613e+00 -2.651453e+00 -2.575691e+00 -2.511867e+00 -2.461007e+00 -2.424712e+00 -2.401556e+00 -2.395048e+00 -2.401296e+00 -2.424889e+00 -2.460244e+00 -2.512219e+00 -2.574476e+00 -2.651952e+00 -2.737059e+00 -2.835357e+00 -2.937070e+00 -3.049428e+00 -3.160454e+00 -3.279167e+00 -3.392617e+00 -3.510390e+00 -3.620540e+00 -3.731460e+00 -3.833997e+00 -3.933893e+00 -4.025860e+00 -4.112220e+00 -4.191818e+00 -4.263468e+00 -4.329785e+00 -4.386477e+00 -4.439201e+00 -4.481216e+00 -4.520376e+00 -4.548201e+00 -4.573962e+00 -4.588068e+00 -4.600581e+00 
-4.634330e+00 -4.634518e+00 -4.621285e+00 -4.608185e+00 -4.581708e+00 -4.554911e+00 -4.514935e+00 -4.473815e+00 -4.420030e+00 -4.363875e+00 -4.296078e+00 -4.224339e+00 -4.142663e+00 -4.055347e+00 -3.960544e+00 -3.858719e+00 -3.752481e+00 -3.638822e+00 -3.524101e+00 -3.403293e+00 -3.284608e+00 -3.163383e+00 -3.047088e+00 -2.933601e+00 -2.827710e+00 -2.730148e+00 -2.642744e+00 -2.567243e+00 -2.504180e+00 -2.453983e+00 -2.418379e+00 -2.395413e+00 -2.389102e+00 -2.395037e+00 -2.418304e+00 -2.452858e+00 -2.504087e+00 -2.565417e+00 -2.642698e+00 -2.727780e+00 -2.827683e+00 -2.930982e+00 -3.046979e+00 -3.160819e+00 -3.284327e+00 -3.400965e+00 -3.523614e+00 -3.636788e+00 -3.751815e+00 -3.856973e+00 -3.959761e+00 -4.053864e+00 -4.141840e+00 -4.223100e+00 -4.295285e+00 -4.362866e+00 -4.419329e+00 -4.473032e+00 -4.514372e+00 -4.554351e+00 -4.581316e+00 -4.607848e+00 -4.621084e+00 -4.634406e+00 
-4.678790e+00 -4.678380e+00 -4.665723e+00 -4.652113e+00 -4.626194e+00 -4.598901e+00 -4.559281e+00 -4.517511e+00 -4.463618e+00 -4.406398e+00 -4.337705e+00 -4.264157e+00 -4.180447e+00 -4.090219e+00 -3.991928e+00 -3.885758e+00 -3.774366e+00 -3.654676e+00 -3.533045e+00 -3.404401e+00 -3.276995e+00 -3.146196e+00 -3.019157e+00 -2.894617e+00 -2.775672e+00 -2.665867e+00 -2.564125e+00 -2.476484e+00 -2.400763e+00 -2.340764e+00 -2.297109e+00 -2.269075e+00 -2.261290e+00 -2.268760e+00 -2.297288e+00 -2.339832e+00 -2.401160e+00 -2.474974e+00 -2.564770e+00 -2.663875e+00 -2.776403e+00 -2.892479e+00 -3.019823e+00 -3.144278e+00 -3.277521e+00 -3.402887e+00 -3.533429e+00 -3.653578e+00 -3.774630e+00 -3.885012e+00 -3.992101e+00 -4.089740e+00 -4.180553e+00 -4.263865e+00 -4.337763e+00 -4.406227e+00 -4.463643e+00 -4.517414e+00 -4.559287e+00 -4.598849e+00 -4.626192e+00 -4.652087e+00 -4.665720e+00 -4.678372e+00 
-4.727094e+00 -4.727697e+00 -4.714320e+00 -4.701902e+00 -4.675358e+00 -4.649322e+00 -4.609009e+00 -4.568298e+00 -4.513430e+00 -4.456651e+00 -4.386458e+00 -4.312177e+00 -4.226204e+00 -4.133473e+00 -4.031961e+00 -3.921066e+00 -3.805360e+00 -3.678685e+00 -3.551578e+00 -3.414356e+00 -3.280403e+00 -3.140921e+00 -3.007045e+00 -2.875693e+00 -2.751929e+00 -2.639232e+00 -2.536261e+00 -2.449068e+00 -2.374180e+00 -2.315222e+00 -2.272325e+00 -2.244437e+00 -2.236842e+00 -2.244001e+00 -2.272142e+00 -2.313873e+00 -2.373963e+00 -2.446784e+00 -2.536254e+00 -2.636189e+00 -2.752079e+00 -2.872390e+00 -3.007110e+00 -3.137888e+00 -3.280191e+00 -3.411802e+00 -3.551041e+00 -3.676584e+00 -3.804566e+00 -3.919330e+00 -4.031018e+00 -4.132028e+00 -4.225223e+00 -4.310979e+00 -4.385530e+00 -4.455678e+00 -4.512624e+00 -4.567543e+00 -4.608373e+00 -4.648782e+00 -4.674921e+00 -4.701578e+00 -4.714098e+00 -4.727589e+00 
-4.787218e+00 -4.787221e+00 -4.774597e+00 -4.761851e+00 -4.736195e+00 -4.709994e+00 -4.670453e+00 -4.629494e+00 -4.574917e+00 -4.517422e+00 -4.446573e+00 -4.370620e+00 -4.282522e+00 -4.186636e+00 -4.081060e+00 -3.965045e+00 -3.843057e+00 -3.708925e+00 -3.573320e+00 -3.426088e+00 -3.281528e+00 -3.129521e+00 -2.982365e+00 -2.836289e+00 -2.694198e+00 -2.563544e+00 -2.437647e+00 -2.331135e+00 -2.235539e+00 -2.160592e+00 -2.105077e+00 -2.068622e+00 -2.059249e+00 -2.068224e+00 -2.105193e+00 -2.159418e+00 -2.235913e+00 -2.329199e+00 -2.438575e+00 -2.560760e+00 -2.695248e+00 -2.833344e+00 -2.983242e+00 -3.127118e+00 -3.282129e+00 -3.424428e+00 -3.573702e+00 -3.707893e+00 -3.843293e+00 -3.964465e+00 -4.081200e+00 -4.186357e+00 -4.282601e+00 -4.370520e+00 -4.446611e+00 -4.517413e+00 -4.574928e+00 -4.629521e+00 -4.670449e+00 -4.710026e+00 -4.736186e+00 -4.761873e+00 -4.774590e+00 -4.787228e+00 
-4.850522e+00 -4.851661e+00 -4.838396e+00 -4.827205e+00 -4.801120e+00 -4.776781e+00 -4.736759e+00 -4.697638e+00 -4.642196e+00 -4.585916e+00 -4.513449e+00 -4.437225e+00 -4.346396e+00 -4.247710e+00 -4.137998e+00 -4.015669e+00 -3.887916e+00 -3.743470e+00 -3.600153e+00 -3.439285e+00 -3.284446e+00 -3.117820e+00 -2.957893e+00 -2.799485e+00 -2.648009e+00 -2.513322e+00 -2.386403e+00 -2.282969e+00 -2.190213e+00 -2.118435e+00 -2.064918e+00 -2.028923e+00 -2.020138e+00 -2.028449e+00 -2.064443e+00 -2.116835e+00 -2.189565e+00 -2.279996e+00 -2.386452e+00 -2.509072e+00 -2.648574e+00 -2.794977e+00 -2.958337e+00 -3.114127e+00 -3.284363e+00 -3.436547e+00 -3.599515e+00 -3.741403e+00 -3.886899e+00 -4.014028e+00 -4.136800e+00 -4.246358e+00 -4.345178e+00 -4.436100e+00 -4.512328e+00 -4.584999e+00 -4.641248e+00 -4.696922e+00 -4.736028e+00 -4.776269e+00 -4.800627e+00 -4.826898e+00 -4.838148e+00 -4.851558e+00 
-4.925852e+00 -4.926371e+00 -4.914172e+00 -4.902943e+00 -4.878323e+00 -4.854393e+00 -4.815916e+00 -4.777324e+00 -4.723036e+00 -4.666884e+00 -4.594548e+00 -4.517373e+00 -4.424901e+00 -4.323449e+00 -4.209582e+00 -4.081984e+00 -3.947109e+00 -3.794315e+00 -3.641104e+00 -3.468328e+00 -3.301791e+00 -3.119582e+00 -2.946343e+00 -2.770540e+00 -2.594879e+00 -2.434286e+00 -2.268619e+00 -2.133746e+00 -2.006375e+00 -1.909113e+00 -1.836957e+00 -1.787228e+00 -1.777227e+00 -1.786707e+00 -1.836809e+00 -1.907605e+00 -2.006334e+00 -2.131396e+00 -2.270199e+00 -2.429963e+00 -2.596528e+00 -2.766092e+00 -2.947551e+00 -3.116522e+00 -3.302434e+00 -3.466666e+00 -3.641444e+00 -3.793551e+00 -3.947288e+00 -4.081744e+00 -4.209676e+00 -4.323505e+00 -4.424949e+00 -4.517565e+00 -4.594565e+00 -4.667105e+00 -4.723031e+00 -4.777514e+00 -4.815900e+00 -4.854529e+00 -4.878305e+00 -4.903023e+00 -4.914161e+00 -4.926396e+00 
-5.003429e+00 -5.005152e+00 -4.992562e+00 -4.983358e+00 -4.958757e+00 -4.937616e+00 -4.899188e+00 -4.863801e+00 -4.809131e+00 -4.755862e+00 -4.682213e+00 -4.606391e+00 -4.511201e+00 -4.407898e+00 -4.289537e+00 -4.154904e+00 -4.013520e+00 -3.846786e+00 -3.684522e+00 -3.490880e+00 -3.310246e+00 -3.104014e+00 -2.905878e+00 -2.705852e+00 -2.511019e+00 -2.346520e+00 -2.184857e+00 -2.063414e+00 -1.946477e+00 -1.858686e+00 -1.792030e+00 -1.742989e+00 -1.734886e+00 -1.742622e+00 -1.790880e+00 -1.856965e+00 -1.944396e+00 -2.059566e+00 -2.185056e+00 -2.339947e+00 -2.512604e+00 -2.699055e+00 -2.907110e+00 -3.099545e+00 -3.310348e+00 -3.488280e+00 -3.683642e+00 -3.845037e+00 -4.012119e+00 -4.153529e+00 -4.287951e+00 -4.406724e+00 -4.509650e+00 -4.605378e+00 -4.680839e+00 -4.755016e+00 -4.808010e+00 -4.863134e+00 -4.898350e+00 -4.937137e+00 -4.958205e+00 -4.983070e+00 -4.992289e+00 -5.005056e+00 
-5.092798e+00 -5.093851e+00 -5.082808e+00 -5.073982e+00 -5.051725e+00 -5.031876e+00 -4.996226e+00 -4.962667e+00 -4.910671e+00 -4.859117e+00 -4.787276e+00 -4.712173e+00 -4.616880e+00 -4.512284e+00 -4.390602e+00 -4.251592e+00 -4.102434e+00 -3.927163e+00 -3.752561e+00 -3.544891e+00 -3.350589e+00 -3.123147e+00 -2.920312e+00 -2.706576e+00 -2.485423e+00 -2.284398e+00 -2.050266e+00 -1.875257e+00 -1.699786e+00 -1.573561e+00 -1.483127e+00 -1.413681e+00 -1.407819e+00 -1.412937e+00 -1.482339e+00 -1.571411e+00 -1.697633e+00 -1.873559e+00 -2.053969e+00 -2.276557e+00 -2.488115e+00 -2.699080e+00 -2.921966e+00 -3.119440e+00 -3.351050e+00 -3.543775e+00 -3.752770e+00 -3.927093e+00 -4.102541e+00 -4.251974e+00 -4.390663e+00 -4.512875e+00 -4.616913e+00 -4.712789e+00 -4.787279e+00 -4.859638e+00 -4.910650e+00 -4.963050e+00 -4.996193e+00 -5.032125e+00 -5.051694e+00 -5.074118e+00 -5.082789e+00 -5.093894e+00 
-5.183163e+00 -5.185341e+00 -5.174426e+00 -5.168136e+00 -5.146713e+00 -5.130912e+00 -5.096295e+00 -5.068071e+00 -5.016745e+00 -4.971092e+00 -4.898964e+00 -4.828876e+00 -4.731722e+00 -4.628762e+00 -4.503009e+00 -4.358380e+00 -4.202596e+00 -4.009433e+00 -3.826065e+00 -3.585088e+00 -3.377019e+00 -3.111294e+00 -2.853261e+00 -2.581843e+00 -2.313464e+00 -2.112687e+00 -1.906400e+00 -1.779683e+00 -1.637323e+00 -1.534536e+00 -1.454205e+00 -1.380757e+00 -1.378918e+00 -1.381058e+00 -1.452005e+00 -1.533205e+00 -1.630452e+00 -1.775611e+00 -1.907600e+00 -2.101195e+00 -2.317755e+00 -2.570109e+00 -2.856034e+00 -3.106491e+00 -3.377179e+00 -3.583678e+00 -3.824538e+00 -4.008543e+00 -4.200557e+00 -4.357517e+00 -4.500888e+00 -4.627864e+00 -4.729747e+00 -4.828006e+00 -4.897287e+00 -4.970324e+00 -5.015434e+00 -5.067453e+00 -5.095353e+00 -5.130465e+00 -5.146111e+00 -5.167868e+00 -5.174134e+00 -5.185251e+00 
-5.284351e+00 -5.285748e+00 -5.277066e+00 -5.271692e+00 -5.253840e+00 -5.240587e+00 -5.210537e+00 -5.186157e+00 -5.139935e+00 -5.098721e+00 -5.031521e+00 -4.965370e+00 -4.871602e+00 -4.770499e+00 -4.643922e+00 -4.496785e+00 -4.331893e+00 -4.129449e+00 -3.925443e+00 -3.666411e+00 -3.428929e+00 -3.118009e+00 -2.891969e+00 -2.641933e+00 -2.372202e+00 -2.121959e+00 -1.751762e+00 -1.518978e+00 -1.276061e+00 -1.121039e+00 -1.022537e+00 -9.229670e-01 -9.339397e-01 -9.218921e-01 -1.021467e+00 -1.116024e+00 -1.264603e+00 -1.524847e+00 -1.764356e+00 -2.104159e+00 -2.376022e+00 -2.627916e+00 -2.894296e+00 -3.114788e+00 -3.428272e+00 -3.667387e+00 -3.925417e+00 -4.130728e+00 -4.331961e+00 -4.498123e+00 -4.644037e+00 -4.771892e+00 -4.871693e+00 -4.966579e+00 -5.031544e+00 -5.099613e+00 -5.139901e+00 -5.186739e+00 -5.210479e+00 -5.240929e+00 -5.253785e+00 -5.271865e+00 -5.277034e+00 -5.285800e+00 
-5.384953e+00 -5.387089e+00 -5.379462e+00 -5.377025e+00 -5.361319e+00 -5.353613e+00 -5.326206e+00 -5.310152e+00 -5.266496e+00 -5.236055e+00 -5.170772e+00 -5.116475e+00 -5.023023e+00 -4.931357e+00 -4.801266e+00 -4.653652e+00 -4.478965e+00 -4.253750e+00 -4.039644e+00 -3.719045e+00 -3.502129e+00 -3.152222e+00 -2.792184e+00 -2.374394e+00 -1.958643e+00 -1.722917e+00 -1.475891e+00 -1.403313e+00 -1.251753e+00 -1.137867e+00 -1.036963e+00 -8.987681e-01 -9.108735e-01 -9.019920e-01 -1.035853e+00 -1.137551e+00 -1.228214e+00 -1.404272e+00 -1.482542e+00 -1.699628e+00 -1.970475e+00 -2.350378e+00 -2.798054e+00 -3.150548e+00 -3.501320e+00 -3.721586e+00 -4.036217e+00 -4.254201e+00 -4.475901e+00 -4.653448e+00 -4.798507e+00 -4.930785e+00 -5.020578e+00 -5.115750e+00 -5.168781e+00 -5.235354e+00 -5.265015e+00 -5.309573e+00 -5.325193e+00 -5.353195e+00 -5.360699e+00 -5.376776e+00 -5.379169e+00 -5.387007e+00 
-5.494370e+00 -5.495491e+00 -5.491029e+00 -5.490104e+00 -5.479548e+00 -5.476041e+00 -5.455562e+00 -5.446297e+00 -5.411273e+00 -5.389651e+00 -5.334515e+00 -5.289702e+00 -5.206328e+00 -5.121659e+00 -4.995654e+00 -4.846078e+00 -4.658835e+00 -4.418861e+00 -4.167797e+00 -3.839041e+00 -3.509985e+00 -2.989696e+00 -2.785119e+00 -2.574807e+00 -2.329223e+00 -2.025999e+00 -1.272393e+00 -7.891757e-01 -1.536673e-01 4.013097e-01 7.895121e-01 1.131184e+00 1.149818e+00 1.142502e+00 7.837196e-01 4.383124e-01 -9.791031e-02 -8.437093e-01 -1.324315e+00 -1.971206e+00 -2.327362e+00 -2.548302e+00 -2.791158e+00 -2.993326e+00 -3.504033e+00 -3.845811e+00 -4.167857e+00 -4.421606e+00 -4.658840e+00 -4.848409e+00 -4.995999e+00 -5.124223e+00 -5.206662e+00 -5.291750e+00 -5.334631e+00 -5.390962e+00 -5.411228e+00 -5.447027e+00 -5.455457e+00 -5.476407e+00 -5.479451e+00 -5.490265e+00 -5.490974e+00 -5.495535e+00 
-5.601356e+00 -5.602302e+00 -5.600390e+00 -5.602400e+00 -5.595933e+00 -5.599394e+00 -5.583930e+00 -5.586646e+00 -5.557181e+00 -5.553279e+00 -5.504027e+00 -5.482028e+00 -5.403175e+00 -5.341359e+00 -5.210361e+00 -5.071070e+00 -4.856877e+00 -4.599693e+00 -4.304139e+00 -3.821364e+00 -3.741377e+00 -3.362017e+00 -2.787405e+00 -1.573401e+00 4.716848e-01 2.101027e+00 4.239004e+00 5.998960e+00 7.150649e+00 8.014172e+00 8.446991e+00 8.771664e+00 8.753234e+00 8.797462e+00 8.421215e+00 8.059529e+00 7.132756e+00 5.879369e+00 4.328320e+00 2.258679e+00 4.489272e-01 -1.526939e+00 -2.805979e+00 -3.381865e+00 -3.734308e+00 -3.833354e+00 -4.295280e+00 -4.599686e+00 -4.852525e+00 -5.071127e+00 -5.206971e+00 -5.341015e+00 -5.400282e+00 -5.481416e+00 -5.501785e+00 -5.552624e+00 -5.555620e+00 -5.586095e+00 -5.582933e+00 -5.599000e+00 -5.595356e+00 -5.602169e+00 -5.600128e+00 -5.602227e+00 
-5.713861e+00 -5.713292e+00 -5.715771e+00 -5.719757e+00 -5.720281e+00 -5.729836e+00 -5.724000e+00 -5.737464e+00 -5.721017e+00 -5.732501e+00 -5.700958e+00 -5.697168e+00 -5.639214e+00 -5.591126e+00 -5.471434e+00 -5.325430e+00 -5.095706e+00 -4.799157e+00 -4.508956e+00 -4.214000e+00 -3.310282e+00 -6.714973e-01 2.690993e+00 5.682665e+00 8.539097e+00 9.947657e+00 1.082693e+01 1.151096e+01 1.154330e+01 1.155682e+01 1.140793e+01 1.138355e+01 1.126939e+01 1.139836e+01 1.138165e+01 1.156977e+01 1.148866e+01 1.145665e+01 1.098780e+01 1.001048e+01 8.451329e+00 5.723853e+00 2.686556e+00 -6.255383e-01 -3.267331e+00 -4.232037e+00 -4.514720e+00 -4.799221e+00 -5.094716e+00 -5.327827e+00 -5.472155e+00 -5.595636e+00 -5.640140e+00 -5.700463e+00 -5.701274e+00 -5.734190e+00 -5.720933e+00 -5.738167e+00 -5.723800e+00 -5.730073e+00 -5.720106e+00 -5.719814e+00 -5.715675e+00 -5.713299e+00 
-5.822027e+00 -5.819547e+00 -5.826796e+00 -5.832830e+00 -5.840087e+00 -5.857245e+00 -5.859529e+00 -5.888471e+00 -5.881585e+00 -5.919212e+00 -5.899568e+00 -5.933285e+00 -5.887300e+00 -5.878853e+00 -5.753294e+00 -5.636325e+00 -5.359410e+00 -5.175192e+00 -4.240793e+00 -1.032993e+00 3.405911e+00 7.721171e+00 1.078121e+01 1.196301e+01 1.239457e+01 1.224668e+01 1.192297e+01 1.174665e+01 1.152312e+01 1.143908e+01 1.128889e+01 1.129353e+01 1.119769e+01 1.130095e+01 1.127324e+01 1.144832e+01 1.151398e+01 1.173961e+01 1.196170e+01 1.221329e+01 1.233814e+01 1.199421e+01 1.078841e+01 7.822448e+00 3.479244e+00 -1.029983e+00 -4.218731e+00 -5.165054e+00 -5.356707e+00 -5.636597e+00 -5.749200e+00 -5.878492e+00 -5.883881e+00 -5.932754e+00 -5.897234e+00 -5.918599e+00 -5.880153e+00 -5.887947e+00 -5.858715e+00 -5.856876e+00 -5.839658e+00 -5.832619e+00 -5.826613e+00 -5.819479e+00 
-5.931026e+00 -5.925998e+00 -5.939237e+00 -5.947131e+00 -5.963295e+00 -5.988160e+00 -6.002448e+00 -6.046809e+00 -6.056886e+00 -6.118927e+00 -6.125410e+00 -6.189333e+00 -6.178145e+00 -6.192377e+00 -6.092145e+00 -5.981250e+00 -5.577011e+00 -3.532560e+00 1.470691e+00 7.664452e+00 1.154360e+01 1.280544e+01 1.293263e+01 1.247645e+01 1.221340e+01 1.199910e+01 1.189863e+01 1.194732e+01 1.188830e+01 1.191533e+01 1.182470e+01 1.185445e+01 1.177677e+01 1.185779e+01 1.181452e+01 1.191675e+01 1.187773e+01 1.193801e+01 1.192186e+01 1.200095e+01 1.218984e+01 1.249940e+01 1.290952e+01 1.284355e+01 1.156044e+01 7.716436e+00 1.605172e+00 -3.468686e+00 -5.561907e+00 -5.983897e+00 -6.093923e+00 -6.201690e+00 -6.180244e+00 -6.194397e+00 -6.125945e+00 -6.120587e+00 -6.056628e+00 -6.047052e+00 -6.002053e+00 -5.988000e+00 -5.962994e+00 -5.946954e+00 -5.939083e+00 -5.925930e+00 
-6.034109e+00 -6.024318e+00 -6.045392e+00 -6.052898e+00 -6.079154e+00 -6.110240e+00 -6.136224e+00 -6.197577e+00 -6.221171e+00 -6.317150e+00 -6.341159e+00 -6.457929e+00 -6.468047e+00 -6.535611e+00 -6.452582e+00 -6.057942e+00 -2.854408e+00 4.208002e+00 1.043662e+01 1.309200e+01 1.342609e+01 1.300204e+01 1.278381e+01 1.263611e+01 1.258824e+01 1.246433e+01 1.229488e+01 1.218719e+01 1.202612e+01 1.197352e+01 1.185186e+01 1.186377e+01 1.178861e+01 1.186577e+01 1.184611e+01 1.197566e+01 1.202179e+01 1.218435e+01 1.229644e+01 1.245671e+01 1.256726e+01 1.264396e+01 1.276288e+01 1.301100e+01 1.340962e+01 1.312315e+01 1.051485e+01 4.290800e+00 -2.780624e+00 -6.058044e+00 -6.444316e+00 -6.534251e+00 -6.463331e+00 -6.457487e+00 -6.339142e+00 -6.316629e+00 -6.220309e+00 -6.197100e+00 -6.135870e+00 -6.109913e+00 -6.079017e+00 -6.052719e+00 -6.045346e+00 -6.024262e+00 
-6.132210e+00 -6.117889e+00 -6.147099e+00 -6.154964e+00 -6.192025e+00 -6.230947e+00 -6.270057e+00 -6.351154e+00 -6.392031e+00 -6.523542e+00 -6.576514e+00 -6.733508e+00 -6.788992e+00 -6.887764e+00 -6.512498e+00 -2.905681e+00 5.371392e+00 1.209590e+01 1.379731e+01 1.358326e+01 1.332545e+01 1.321352e+01 1.307370e+01 1.285948e+01 1.268669e+01 1.254517e+01 1.242042e+01 1.238822e+01 1.229713e+01 1.230421e+01 1.222310e+01 1.225627e+01 1.219251e+01 1.225712e+01 1.221900e+01 1.230481e+01 1.229319e+01 1.238776e+01 1.242218e+01 1.254930e+01 1.267734e+01 1.287195e+01 1.306358e+01 1.322938e+01 1.332363e+01 1.359323e+01 1.379949e+01 1.214756e+01 5.538786e+00 -2.822818e+00 -6.520503e+00 -6.910874e+00 -6.792527e+00 -6.738986e+00 -6.576638e+00 -6.523488e+00 -6.391196e+00 -6.350073e+00 -6.269321e+00 -6.230040e+00 -6.191557e+00 -6.154430e+00 -6.146879e+00 -6.117717e+00 
-6.223774e+00 -6.200604e+00 -6.241575e+00 -6.244430e+00 -6.295804e+00 -6.335851e+00 -6.390736e+00 -6.485130e+00 -6.541322e+00 -6.709464e+00 -6.774749e+00 -6.995158e+00 -7.068605e+00 -7.136392e+00 -3.855405e+00 5.260258e+00 1.274535e+01 1.415898e+01 1.390026e+01 1.374299e+01 1.358269e+01 1.335997e+01 1.318367e+01 1.303119e+01 1.289846e+01 1.278690e+01 1.264180e+01 1.256435e+01 1.243146e+01 1.239835e+01 1.229525e+01 1.231163e+01 1.224705e+01 1.231218e+01 1.229223e+01 1.239889e+01 1.242741e+01 1.256358e+01 1.263689e+01 1.278560e+01 1.288661e+01 1.303425e+01 1.317033e+01 1.336358e+01 1.357136e+01 1.374298e+01 1.389459e+01 1.414311e+01 1.280242e+01 5.337411e+00 -3.793061e+00 -7.121194e+00 -7.063000e+00 -6.995545e+00 -6.774780e+00 -6.709198e+00 -6.541927e+00 -6.484745e+00 -6.391219e+00 -6.335602e+00 -6.296097e+00 -6.244309e+00 -6.241708e+00 -6.200569e+00 
-6.304260e+00 -6.273195e+00 -6.325318e+00 -6.324496e+00 -6.389190e+00 -6.433326e+00 -6.501407e+00 -6.617007e+00 -6.682071e+00 -6.902115e+00 -6.978002e+00 -7.233661e+00 -7.481920e+00 -5.721748e+00 3.225938e+00 1.249203e+01 1.460526e+01 1.429841e+01 1.414096e+01 1.388994e+01 1.368783e+01 1.352134e+01 1.334674e+01 1.319496e+01 1.303264e+01 1.292694e+01 1.279430e+01 1.274891e+01 1.264534e+01 1.264254e+01 1.256109e+01 1.259081e+01 1.253206e+01 1.259122e+01 1.255892e+01 1.264339e+01 1.264245e+01 1.275042e+01 1.279159e+01 1.293071e+01 1.302651e+01 1.320179e+01 1.333977e+01 1.352851e+01 1.368271e+01 1.389250e+01 1.413640e+01 1.429125e+01 1.459790e+01 1.255394e+01 3.453300e+00 -5.613762e+00 -7.481783e+00 -7.224327e+00 -6.974916e+00 -6.896182e+00 -6.679983e+00 -6.613632e+00 -6.500285e+00 -6.431524e+00 -6.388603e+00 -6.323624e+00 -6.325061e+00 -6.272936e+00 
-6.379184e+00 -6.334418e+00 -6.402811e+00 -6.390112e+00 -6.474801e+00 -6.509493e+00 -6.600271e+00 -6.715075e+00 -6.797233e+00 -7.044833e+00 -7.097897e+00 -7.449543e+00 -7.343986e+00 -7.036873e-01 1.061442e+01 1.491043e+01 1.461158e+01 1.448639e+01 1.418772e+01 1.403295e+01 1.381038e+01 1.365041e+01 1.345719e+01 1.332924e+01 1.316647e+01 1.307283e+01 1.292726e+01 1.286843e+01 1.274474e+01 1.272446e+01 1.262982e+01 1.265036e+01 1.258986e+01 1.265057e+01 1.262765e+01 1.272478e+01 1.274095e+01 1.286856e+01 1.292176e+01 1.307321e+01 1.315811e+01 1.333102e+01 1.344776e+01 1.365239e+01 1.380181e+01 1.403355e+01 1.418188e+01 1.448545e+01 1.461072e+01 1.493211e+01 1.074170e+01 -6.529886e-01 -7.346605e+00 -7.453116e+00 -7.105062e+00 -7.044678e+00 -6.800408e+00 -6.714780e+00 -6.601787e+00 -6.509381e+00 -6.475520e+00 -6.390095e+00 -6.403102e+00 -6.334421e+00 
-6.437997e+00 -6.380785e+00 -6.464331e+00 -6.440431e+00 -6.543736e+00 -6.570033e+00 -6.679273e+00 -6.803859e+00 -6.875463e+00 -7.229785e+00 -7.080220e+00 -8.029766e+00 -5.212712e+00 6.114720e+00 1.464814e+01 1.510298e+01 1.480858e+01 1.457920e+01 1.434452e+01 1.414683e+01 1.392605e+01 1.377372e+01 1.357807e+01 1.345660e+01 1.328657e+01 1.320227e+01 1.306208e+01 1.301998e+01 1.290935e+01 1.290493e+01 1.282105e+01 1.284935e+01 1.279151e+01 1.284966e+01 1.281945e+01 1.290583e+01 1.290658e+01 1.302161e+01 1.305831e+01 1.320499e+01 1.328100e+01 1.346026e+01 1.357130e+01 1.377683e+01 1.391865e+01 1.414719e+01 1.433566e+01 1.457534e+01 1.479673e+01 1.509529e+01 1.466344e+01 6.196371e+00 -5.078340e+00 -8.010678e+00 -7.069197e+00 -7.219696e+00 -6.872715e+00 -6.799425e+00 -6.678314e+00 -6.568019e+00 -6.543258e+00 -6.439544e+00 -6.464114e+00 -6.380533e+00 
-6.493855e+00 -6.419060e+00 -6.522657e+00 -6.479452e+00 -6.610105e+00 -6.610588e+00 -6.759193e+00 -6.848446e+00 -6.968832e+00 -7.295316e+00 -7.142831e+00 -8.200936e+00 -1.166503e+00 1.145447e+01 1.582286e+01 1.502215e+01 1.496634e+01 1.465877e+01 1.442288e+01 1.424480e+01 1.400464e+01 1.386791e+01 1.365484e+01 1.354812e+01 1.336746e+01 1.329050e+01 1.313877e+01 1.309346e+01 1.297055e+01 1.295943e+01 1.286705e+01 1.289161e+01 1.283153e+01 1.289175e+01 1.286522e+01 1.295977e+01 1.296708e+01 1.309398e+01 1.313369e+01 1.329136e+01 1.336071e+01 1.354959e+01 1.364714e+01 1.386956e+01 1.399669e+01 1.424596e+01 1.441451e+01 1.465875e+01 1.495433e+01 1.501789e+01 1.579245e+01 1.155101e+01 -9.518663e-01 -8.179907e+00 -7.151158e+00 -7.292540e+00 -6.972789e+00 -6.848112e+00 -6.760977e+00 -6.610716e+00 -6.610888e+00 -6.479605e+00 -6.522960e+00 -6.419120e+00 
-6.530583e+00 -6.439991e+00 -6.561891e+00 -6.498505e+00 -6.657365e+00 -6.621911e+00 -6.824743e+00 -6.832184e+00 -7.082785e+00 -7.176145e+00 -7.430136e+00 -7.390602e+00 3.695906e+00 1.458677e+01 1.573671e+01 1.517162e+01 1.501548e+01 1.476745e+01 1.450470e+01 1.434105e+01 1.408787e+01 1.396162e+01 1.374234e+01 1.364344e+01 1.346006e+01 1.339114e+01 1.324252e+01 1.320695e+01 1.309068e+01 1.308821e+01 1.300151e+01 1.303041e+01 1.297170e+01 1.303067e+01 1.300004e+01 1.308898e+01 1.308786e+01 1.320822e+01 1.323834e+01 1.339286e+01 1.345430e+01 1.364524e+01 1.373499e+01 1.396261e+01 1.407875e+01 1.434036e+01 1.449281e+01 1.476564e+01 1.499885e+01 1.517487e+01 1.571241e+01 1.468431e+01 3.973297e+00 -7.331330e+00 -7.448900e+00 -7.170213e+00 -7.086571e+00 -6.829972e+00 -6.825169e+00 -6.620935e+00 -6.657188e+00 -6.498074e+00 -6.561739e+00 -6.439867e+00 
-6.567457e+00 -6.459837e+00 -6.601181e+00 -6.516033e+00 -6.705436e+00 -6.631189e+00 -6.893838e+00 -6.813192e+00 -7.207249e+00 -7.054563e+00 -7.736815e+00 -5.928422e+00 7.958623e+00 1.608881e+01 1.556696e+01 1.543187e+01 1.502118e+01 1.488628e+01 1.453732e+01 1.441887e+01 1.412729e+01 1.402256e+01 1.378209e+01 1.369534e+01 1.349875e+01 1.343537e+01 1.327628e+01 1.324069e+01 1.311552e+01 1.311081e+01 1.301798e+01 1.304589e+01 1.298477e+01 1.304602e+01 1.301632e+01 1.311119e+01 1.311229e+01 1.324134e+01 1.327159e+01 1.343636e+01 1.349277e+01 1.369676e+01 1.377522e+01 1.402435e+01 1.411992e+01 1.442114e+01 1.452953e+01 1.489038e+01 1.501269e+01 1.544418e+01 1.555942e+01 1.613665e+01 8.163677e+00 -5.859009e+00 -7.746046e+00 -7.056006e+00 -7.209381e+00 -6.814110e+00 -6.894384e+00 -6.631813e+00 -6.705657e+00 -6.516409e+00 -6.601283e+00 -6.459963e+00 
-6.583701e+00 -6.463662e+00 -6.618938e+00 -6.516268e+00 -6.727720e+00 -6.620442e+00 -6.924064e+00 -6.773205e+00 -7.243955e+00 -6.940772e+00 -7.733347e+00 -4.261504e+00 1.070511e+01 1.645387e+01 1.542011e+01 1.559910e+01 1.501246e+01 1.498301e+01 1.457315e+01 1.448884e+01 1.417632e+01 1.408446e+01 1.383761e+01 1.375738e+01 1.356034e+01 1.350230e+01 1.334635e+01 1.331629e+01 1.319584e+01 1.319580e+01 1.310685e+01 1.313693e+01 1.307703e+01 1.313715e+01 1.310539e+01 1.319642e+01 1.319293e+01 1.331721e+01 1.334195e+01 1.350333e+01 1.355430e+01 1.375809e+01 1.382977e+01 1.408413e+01 1.416639e+01 1.448667e+01 1.456056e+01 1.497833e+01 1.499665e+01 1.559056e+01 1.540036e+01 1.642985e+01 1.082276e+01 -4.172223e+00 -7.726620e+00 -6.946696e+00 -7.241685e+00 -6.775113e+00 -6.922921e+00 -6.621056e+00 -6.727122e+00 -6.516457e+00 -6.618679e+00 -6.463704e+00 
-6.602548e+00 -6.473366e+00 -6.639002e+00 -6.524782e+00 -6.751864e+00 -6.625609e+00 -6.955477e+00 -6.772324e+00 -7.281959e+00 -6.948599e+00 -7.744228e+00 -3.149685e+00 1.230074e+01 1.658005e+01 1.539575e+01 1.569938e+01 1.500570e+01 1.503933e+01 1.457732e+01 1.452218e+01 1.418339e+01 1.410560e+01 1.384348e+01 1.377033e+01 1.356297e+01 1.350768e+01 1.334355e+01 1.331328e+01 1.318610e+01 1.318483e+01 1.309117e+01 1.312101e+01 1.305898e+01 1.312114e+01 1.308957e+01 1.318522e+01 1.318298e+01 1.331395e+01 1.333905e+01 1.350869e+01 1.355731e+01 1.377172e+01 1.383701e+01 1.410739e+01 1.417659e+01 1.452450e+01 1.457092e+01 1.504248e+01 1.500148e+01 1.570294e+01 1.539829e+01 1.657489e+01 1.245264e+01 -3.014412e+00 -7.728416e+00 -6.953165e+00 -7.276529e+00 -6.774326e+00 -6.953554e+00 -6.626639e+00 -6.751246e+00 -6.525320e+00 -6.638843e+00 -6.473538e+00 
-6.600811e+00 -6.469124e+00 -6.637533e+00 -6.519277e+00 -6.751292e+00 -6.617480e+00 -6.957801e+00 -6.762768e+00 -7.294136e+00 -6.959840e+00 -7.792371e+00 -2.733187e+00 1.298276e+01 1.675442e+01 1.545540e+01 1.577015e+01 1.502522e+01 1.507360e+01 1.459561e+01 1.454568e+01 1.420478e+01 1.412806e+01 1.386869e+01 1.379599e+01 1.359306e+01 1.353911e+01 1.338020e+01 1.335227e+01 1.323023e+01 1.323122e+01 1.314141e+01 1.317204e+01 1.311162e+01 1.317223e+01 1.313994e+01 1.323177e+01 1.322727e+01 1.335305e+01 1.337570e+01 1.353989e+01 1.358690e+01 1.379631e+01 1.386069e+01 1.412727e+01 1.419469e+01 1.454294e+01 1.458328e+01 1.506801e+01 1.501147e+01 1.576025e+01 1.544458e+01 1.673772e+01 1.312545e+01 -2.596214e+00 -7.780880e+00 -6.969849e+00 -7.289557e+00 -6.766508e+00 -6.955858e+00 -6.618844e+00 -6.750438e+00 -6.519756e+00 -6.637202e+00 -6.469242e+00 