# vtk DataFile Version 2.0
Comment goes here
ASCII

DATASET STRUCTURED_POINTS
FIELD FieldData 1
TIME 1 1 double
0.38000000
DIMENSIONS    64   64   1

ORIGIN    0.000   0.000   0.000
SPACING   0.015625 0.015625   1.000

POINT_DATA   4096
SCALARS P double
LOOKUP_TABLE default

-4.388948e+00 -4.393368e+00 -4.386586e+00 -4.388321e+00 -4.378898e+00 -4.377587e+00 -4.364907e+00 -4.359801e+00 -4.342956e+00 -4.332895e+00 -4.310705e+00 -4.294146e+00 -4.265235e+00 -4.240382e+00 -4.203374e+00 -4.168478e+00 -4.122387e+00 -4.076277e+00 -4.021136e+00 -3.963960e+00 -3.901599e+00 -3.835615e+00 -3.770288e+00 -3.700260e+00 -3.638563e+00 -3.571160e+00 -3.520669e+00 -3.462649e+00 -3.429511e+00 -3.385758e+00 -3.372923e+00 -3.346172e+00 -3.353866e+00 -3.345909e+00 -3.372943e+00 -3.385062e+00 -3.429403e+00 -3.461754e+00 -3.520232e+00 -3.570327e+00 -3.637670e+00 -3.699677e+00 -3.768959e+00 -3.835354e+00 -3.899958e+00 -3.963991e+00 -4.019340e+00 -4.076514e+00 -4.120578e+00 -4.168825e+00 -4.201657e+00 -4.240760e+00 -4.263684e+00 -4.294502e+00 -4.309367e+00 -4.333199e+00 -4.341862e+00 -4.360039e+00 -4.364075e+00 -4.377755e+00 -4.378339e+00 -4.388421e+00 -4.386306e+00 -4.393401e+00 
-4.388756e+00 -4.393048e+00 -4.386304e+00 -4.387883e+00 -4.378455e+00 -4.376948e+00 -4.364207e+00 -4.358836e+00 -4.341855e+00 -4.331417e+00 -4.308985e+00 -4.291875e+00 -4.262564e+00 -4.236915e+00 -4.199274e+00 -4.163273e+00 -4.116212e+00 -4.068664e+00 -4.012102e+00 -3.953210e+00 -3.888919e+00 -3.821113e+00 -3.753452e+00 -3.681797e+00 -3.617716e+00 -3.549283e+00 -3.496878e+00 -3.438772e+00 -3.404492e+00 -3.361477e+00 -3.348017e+00 -3.322215e+00 -3.329305e+00 -3.322013e+00 -3.348351e+00 -3.360966e+00 -3.404974e+00 -3.438193e+00 -3.497244e+00 -3.548900e+00 -3.617773e+00 -3.681792e+00 -3.753149e+00 -3.821532e+00 -3.888319e+00 -3.953981e+00 -4.011315e+00 -4.069655e+00 -4.115345e+00 -4.164349e+00 -4.198407e+00 -4.237963e+00 -4.261752e+00 -4.292815e+00 -4.308263e+00 -4.332205e+00 -4.341251e+00 -4.359450e+00 -4.363737e+00 -4.377382e+00 -4.378134e+00 -4.388142e+00 -4.386141e+00 -4.393133e+00 
-4.395815e+00 -4.400232e+00 -4.393588e+00 -4.395469e+00 -4.386300e+00 -4.385284e+00 -4.372945e+00 -4.368264e+00 -4.351804e+00 -4.342251e+00 -4.320424e+00 -4.304372e+00 -4.275702e+00 -4.251231e+00 -4.214211e+00 -4.179418e+00 -4.132914e+00 -4.086472e+00 -4.030385e+00 -3.972328e+00 -3.908427e+00 -3.840989e+00 -3.773590e+00 -3.701626e+00 -3.637527e+00 -3.567886e+00 -3.514996e+00 -3.454619e+00 -3.419535e+00 -3.373580e+00 -3.359748e+00 -3.331434e+00 -3.339491e+00 -3.331119e+00 -3.359837e+00 -3.372755e+00 -3.419523e+00 -3.453582e+00 -3.514619e+00 -3.566953e+00 -3.636628e+00 -3.701006e+00 -3.772202e+00 -3.840743e+00 -3.906709e+00 -3.972401e+00 -4.028519e+00 -4.086756e+00 -4.131053e+00 -4.179806e+00 -4.212461e+00 -4.251640e+00 -4.274133e+00 -4.304749e+00 -4.319078e+00 -4.342568e+00 -4.350708e+00 -4.368510e+00 -4.372113e+00 -4.385456e+00 -4.385742e+00 -4.395571e+00 -4.393308e+00 -4.400266e+00 
-4.402560e+00 -4.406853e+00 -4.400392e+00 -4.402281e+00 -4.393378e+00 -4.392494e+00 -4.380464e+00 -4.375997e+00 -4.359828e+00 -4.350477e+00 -4.328830e+00 -4.312817e+00 -4.284075e+00 -4.259263e+00 -4.221712e+00 -4.185952e+00 -4.138184e+00 -4.089926e+00 -4.031536e+00 -3.970718e+00 -3.903252e+00 -3.832242e+00 -3.760095e+00 -3.684185e+00 -3.614810e+00 -3.541586e+00 -3.484107e+00 -3.421409e+00 -3.383450e+00 -3.336554e+00 -3.321487e+00 -3.292959e+00 -3.300849e+00 -3.292651e+00 -3.321999e+00 -3.335777e+00 -3.384182e+00 -3.420538e+00 -3.484663e+00 -3.541010e+00 -3.614923e+00 -3.684136e+00 -3.759736e+00 -3.832734e+00 -3.902545e+00 -3.971619e+00 -4.030646e+00 -4.091054e+00 -4.137241e+00 -4.187145e+00 -4.220798e+00 -4.260397e+00 -4.283237e+00 -4.313814e+00 -4.328097e+00 -4.351298e+00 -4.359218e+00 -4.376627e+00 -4.379992e+00 -4.392936e+00 -4.393056e+00 -4.402542e+00 -4.400229e+00 -4.406939e+00 
-4.416183e+00 -4.420586e+00 -4.414383e+00 -4.416718e+00 -4.408359e+00 -4.408272e+00 -4.397031e+00 -4.393706e+00 -4.378507e+00 -4.370602e+00 -4.350002e+00 -4.335636e+00 -4.307863e+00 -4.284734e+00 -4.247873e+00 -4.213596e+00 -4.166033e+00 -4.118771e+00 -4.059968e+00 -3.999366e+00 -3.930868e+00 -3.859058e+00 -3.785341e+00 -3.707489e+00 -3.635935e+00 -3.559451e+00 -3.498882e+00 -3.431020e+00 -3.389310e+00 -3.335874e+00 -3.318235e+00 -3.284411e+00 -3.293480e+00 -3.283912e+00 -3.318574e+00 -3.334590e+00 -3.389643e+00 -3.429490e+00 -3.498718e+00 -3.558196e+00 -3.635003e+00 -3.706773e+00 -3.783743e+00 -3.858885e+00 -3.928893e+00 -3.999588e+00 -4.057885e+00 -4.119211e+00 -4.164019e+00 -4.214111e+00 -4.246031e+00 -4.285236e+00 -4.306245e+00 -4.336074e+00 -4.348636e+00 -4.370957e+00 -4.377407e+00 -4.393974e+00 -4.396203e+00 -4.408457e+00 -4.407807e+00 -4.416826e+00 -4.414107e+00 -4.420621e+00 
-4.429680e+00 -4.433952e+00 -4.428116e+00 -4.430651e+00 -4.422895e+00 -4.423344e+00 -4.412878e+00 -4.410377e+00 -4.396033e+00 -4.389110e+00 -4.369304e+00 -4.355830e+00 -4.328571e+00 -4.305861e+00 -4.268902e+00 -4.234078e+00 -4.185336e+00 -4.136055e+00 -4.074382e+00 -4.009936e+00 -3.936264e+00 -3.858815e+00 -3.777407e+00 -3.692675e+00 -3.611838e+00 -3.528382e+00 -3.459478e+00 -3.386792e+00 -3.340237e+00 -3.284439e+00 -3.265129e+00 -3.229977e+00 -3.239486e+00 -3.229394e+00 -3.266098e+00 -3.282981e+00 -3.341601e+00 -3.385193e+00 -3.460486e+00 -3.527365e+00 -3.612047e+00 -3.692574e+00 -3.776876e+00 -3.859520e+00 -3.935297e+00 -4.011149e+00 -4.073266e+00 -4.137486e+00 -4.184242e+00 -4.235515e+00 -4.267905e+00 -4.307168e+00 -4.327694e+00 -4.356937e+00 -4.368554e+00 -4.389992e+00 -4.395417e+00 -4.411037e+00 -4.412404e+00 -4.423796e+00 -4.422573e+00 -4.430914e+00 -4.427953e+00 -4.434038e+00 
-4.449292e+00 -4.453636e+00 -4.448264e+00 -4.451395e+00 -4.444544e+00 -4.446142e+00 -4.436963e+00 -4.436155e+00 -4.423389e+00 -4.418631e+00 -4.400532e+00 -4.389528e+00 -4.363838e+00 -4.343629e+00 -4.307722e+00 -4.275047e+00 -4.226416e+00 -4.178467e+00 -4.115674e+00 -4.051263e+00 -3.975300e+00 -3.896263e+00 -3.811786e+00 -3.723881e+00 -3.639139e+00 -3.550931e+00 -3.475816e+00 -3.394103e+00 -3.338411e+00 -3.269368e+00 -3.242426e+00 -3.196420e+00 -3.206967e+00 -3.195497e+00 -3.243348e+00 -3.267018e+00 -3.339569e+00 -3.391491e+00 -3.476123e+00 -3.549068e+00 -3.638083e+00 -3.723076e+00 -3.809705e+00 -3.896323e+00 -3.972814e+00 -4.051817e+00 -4.113206e+00 -4.179206e+00 -4.224161e+00 -4.275787e+00 -4.305748e+00 -4.344282e+00 -4.362161e+00 -4.390063e+00 -4.399149e+00 -4.419044e+00 -4.422294e+00 -4.436456e+00 -4.436149e+00 -4.446344e+00 -4.444006e+00 -4.451511e+00 -4.447996e+00 -4.453674e+00 
-4.468993e+00 -4.473175e+00 -4.468421e+00 -4.471969e+00 -4.466163e+00 -4.468795e+00 -4.461006e+00 -4.461828e+00 -4.450687e+00 -4.448011e+00 -4.431613e+00 -4.422818e+00 -4.398648e+00 -4.380215e+00 -4.345245e+00 -4.313115e+00 -4.264200e+00 -4.214626e+00 -4.149312e+00 -4.080286e+00 -3.998134e+00 -3.911209e+00 -3.815534e+00 -3.716909e+00 -3.616452e+00 -3.515570e+00 -3.425473e+00 -3.335623e+00 -3.272821e+00 -3.201074e+00 -3.173098e+00 -3.125092e+00 -3.137396e+00 -3.123898e+00 -3.175091e+00 -3.198095e+00 -3.275554e+00 -3.332472e+00 -3.427345e+00 -3.513740e+00 -3.616698e+00 -3.716895e+00 -3.814551e+00 -3.912449e+00 -3.996644e+00 -4.082109e+00 -4.147818e+00 -4.216580e+00 -4.262900e+00 -4.314940e+00 -4.344159e+00 -4.381780e+00 -4.397742e+00 -4.424077e+00 -4.430858e+00 -4.448968e+00 -4.450073e+00 -4.462515e+00 -4.460534e+00 -4.469251e+00 -4.465842e+00 -4.472227e+00 -4.468259e+00 -4.473258e+00 
-4.493637e+00 -4.497816e+00 -4.493798e+00 -4.498096e+00 -4.493657e+00 -4.497850e+00 -4.491999e+00 -4.495203e+00 -4.486483e+00 -4.486932e+00 -4.473251e+00 -4.468118e+00 -4.446611e+00 -4.432028e+00 -4.399097e+00 -4.370512e+00 -4.322257e+00 -4.275263e+00 -4.208585e+00 -4.140340e+00 -4.054912e+00 -3.966235e+00 -3.866684e+00 -3.764108e+00 -3.659703e+00 -3.554989e+00 -3.455349e+00 -3.351477e+00 -3.268623e+00 -3.170222e+00 -3.123296e+00 -3.053057e+00 -3.065606e+00 -3.051216e+00 -3.125507e+00 -3.165466e+00 -3.271690e+00 -3.346614e+00 -3.456553e+00 -3.552145e+00 -3.658152e+00 -3.763455e+00 -3.863533e+00 -3.966936e+00 -4.051536e+00 -4.141545e+00 -4.205571e+00 -4.276493e+00 -4.319717e+00 -4.371576e+00 -4.396996e+00 -4.432882e+00 -4.444896e+00 -4.468772e+00 -4.471877e+00 -4.487412e+00 -4.485418e+00 -4.495539e+00 -4.491219e+00 -4.498069e+00 -4.493146e+00 -4.498219e+00 -4.493545e+00 -4.497855e+00 
-4.518482e+00 -4.522409e+00 -4.519356e+00 -4.524283e+00 -4.521456e+00 -4.527260e+00 -4.523579e+00 -4.529425e+00 -4.523334e+00 -4.527368e+00 -4.516645e+00 -4.515720e+00 -4.497309e+00 -4.486896e+00 -4.456912e+00 -4.431367e+00 -4.385337e+00 -4.338680e+00 -4.272138e+00 -4.199739e+00 -4.109456e+00 -4.011069e+00 -3.897083e+00 -3.779353e+00 -3.647519e+00 -3.517594e+00 -3.388481e+00 -3.271674e+00 -3.180769e+00 -3.084851e+00 -3.042825e+00 -2.972811e+00 -2.990907e+00 -2.970282e+00 -3.047137e+00 -3.078462e+00 -3.186487e+00 -3.265231e+00 -3.391822e+00 -3.514337e+00 -3.647308e+00 -3.780075e+00 -3.894973e+00 -4.013567e+00 -4.107012e+00 -4.202640e+00 -4.270127e+00 -4.341432e+00 -4.383850e+00 -4.433732e+00 -4.455799e+00 -4.488789e+00 -4.496426e+00 -4.517146e+00 -4.515915e+00 -4.528389e+00 -4.522736e+00 -4.530117e+00 -4.523115e+00 -4.527697e+00 -4.521138e+00 -4.524522e+00 -4.519194e+00 -4.522485e+00 
-4.546663e+00 -4.550451e+00 -4.548482e+00 -4.554288e+00 -4.553388e+00 -4.561201e+00 -4.560256e+00 -4.569309e+00 -4.566731e+00 -4.575139e+00 -4.568608e+00 -4.573059e+00 -4.559243e+00 -4.554920e+00 -4.529288e+00 -4.510123e+00 -4.466952e+00 -4.426150e+00 -4.359215e+00 -4.290425e+00 -4.195817e+00 -4.096221e+00 -3.977729e+00 -3.853377e+00 -3.723431e+00 -3.600480e+00 -3.462557e+00 -3.328440e+00 -3.194714e+00 -3.044242e+00 -2.958531e+00 -2.842615e+00 -2.859099e+00 -2.838897e+00 -2.963491e+00 -3.033824e+00 -3.202500e+00 -3.318867e+00 -3.465216e+00 -3.596246e+00 -3.720004e+00 -3.853842e+00 -3.972217e+00 -4.098464e+00 -4.191088e+00 -4.292774e+00 -4.355637e+00 -4.428087e+00 -4.464224e+00 -4.511590e+00 -4.527156e+00 -4.555995e+00 -4.557563e+00 -4.573831e+00 -4.567299e+00 -4.575679e+00 -4.565739e+00 -4.569671e+00 -4.559541e+00 -4.561429e+00 -4.552924e+00 -4.554412e+00 -4.548254e+00 -4.550490e+00 
-4.574902e+00 -4.578245e+00 -4.577706e+00 -4.584274e+00 -4.585677e+00 -4.595669e+00 -4.597817e+00 -4.610663e+00 -4.611918e+00 -4.625840e+00 -4.623879e+00 -4.635477e+00 -4.627071e+00 -4.631096e+00 -4.611963e+00 -4.601200e+00 -4.565690e+00 -4.530746e+00 -4.471263e+00 -4.401402e+00 -4.309009e+00 -4.198255e+00 -4.065572e+00 -3.925293e+00 -3.744068e+00 -3.560733e+00 -3.355847e+00 -3.202901e+00 -3.071686e+00 -2.952132e+00 -2.897220e+00 -2.794508e+00 -2.827305e+00 -2.789202e+00 -2.906833e+00 -2.937964e+00 -3.084401e+00 -3.189449e+00 -3.361372e+00 -3.554782e+00 -3.741305e+00 -3.929149e+00 -4.060886e+00 -4.203415e+00 -4.305025e+00 -4.405946e+00 -4.468801e+00 -4.534581e+00 -4.564272e+00 -4.604251e+00 -4.611033e+00 -4.633354e+00 -4.626326e+00 -4.637045e+00 -4.623222e+00 -4.626869e+00 -4.611350e+00 -4.611304e+00 -4.597363e+00 -4.596044e+00 -4.585361e+00 -4.584467e+00 -4.577544e+00 -4.578304e+00 
-4.604434e+00 -4.607402e+00 -4.608372e+00 -4.615859e+00 -4.619804e+00 -4.632214e+00 -4.637959e+00 -4.654918e+00 -4.660960e+00 -4.680822e+00 -4.685084e+00 -4.704531e+00 -4.704065e+00 -4.717973e+00 -4.708329e+00 -4.709545e+00 -4.683058e+00 -4.661070e+00 -4.604449e+00 -4.544262e+00 -4.442077e+00 -4.329619e+00 -4.182139e+00 -4.011368e+00 -3.854380e+00 -3.727049e+00 -3.539818e+00 -3.382994e+00 -3.158420e+00 -2.920334e+00 -2.766001e+00 -2.565143e+00 -2.591831e+00 -2.558554e+00 -2.775901e+00 -2.895910e+00 -3.179458e+00 -3.363839e+00 -3.544171e+00 -3.721343e+00 -3.844497e+00 -4.016111e+00 -4.171547e+00 -4.335058e+00 -4.435841e+00 -4.548263e+00 -4.600813e+00 -4.663847e+00 -4.680553e+00 -4.711434e+00 -4.706407e+00 -4.719254e+00 -4.702560e+00 -4.705397e+00 -4.683927e+00 -4.681395e+00 -4.660098e+00 -4.655282e+00 -4.637348e+00 -4.632430e+00 -4.619413e+00 -4.615971e+00 -4.608181e+00 -4.607436e+00 
-4.633512e+00 -4.635666e+00 -4.638670e+00 -4.646850e+00 -4.653886e+00 -4.668862e+00 -4.678700e+00 -4.700558e+00 -4.711767e+00 -4.739413e+00 -4.750223e+00 -4.780987e+00 -4.789230e+00 -4.818578e+00 -4.821191e+00 -4.841414e+00 -4.831829e+00 -4.827265e+00 -4.790242e+00 -4.732941e+00 -4.646720e+00 -4.510539e+00 -4.364962e+00 -4.212712e+00 -3.955563e+00 -3.647479e+00 -3.271369e+00 -3.087655e+00 -2.928104e+00 -2.829471e+00 -2.790967e+00 -2.641922e+00 -2.708992e+00 -2.632032e+00 -2.811964e+00 -2.797689e+00 -2.958942e+00 -3.059693e+00 -3.279926e+00 -3.635375e+00 -3.943281e+00 -4.228455e+00 -4.355122e+00 -4.520238e+00 -4.640517e+00 -4.739224e+00 -4.788033e+00 -4.832390e+00 -4.831256e+00 -4.845318e+00 -4.820897e+00 -4.821217e+00 -4.788802e+00 -4.782605e+00 -4.749683e+00 -4.740333e+00 -4.711226e+00 -4.701046e+00 -4.678244e+00 -4.669100e+00 -4.653564e+00 -4.646954e+00 -4.638505e+00 -4.635694e+00 
-4.661469e+00 -4.662850e+00 -4.667865e+00 -4.676798e+00 -4.686970e+00 -4.704591e+00 -4.718790e+00 -4.745634e+00 -4.762869e+00 -4.798367e+00 -4.817923e+00 -4.860129e+00 -4.881711e+00 -4.927190e+00 -4.949458e+00 -4.991200e+00 -5.004115e+00 -5.022611e+00 -4.993186e+00 -4.950543e+00 -4.829944e+00 -4.697679e+00 -4.471735e+00 -4.142295e+00 -3.969580e+00 -3.921033e+00 -3.712574e+00 -3.605033e+00 -3.206160e+00 -2.792112e+00 -2.478297e+00 -2.041900e+00 -2.052363e+00 -2.038449e+00 -2.490088e+00 -2.730400e+00 -3.269753e+00 -3.567696e+00 -3.715758e+00 -3.916313e+00 -3.940931e+00 -4.161727e+00 -4.450335e+00 -4.708661e+00 -4.823689e+00 -4.955990e+00 -4.991022e+00 -5.026049e+00 -5.002635e+00 -4.993477e+00 -4.948137e+00 -4.928666e+00 -4.880580e+00 -4.861060e+00 -4.817031e+00 -4.798932e+00 -4.762209e+00 -4.745958e+00 -4.718329e+00 -4.704762e+00 -4.686678e+00 -4.676877e+00 -4.667723e+00 -4.662873e+00 
-4.688066e+00 -4.688007e+00 -4.695810e+00 -4.704999e+00 -4.719102e+00 -4.739231e+00 -4.758516e+00 -4.790978e+00 -4.814761e+00 -4.860339e+00 -4.888805e+00 -4.947726e+00 -4.982522e+00 -5.054323e+00 -5.096685e+00 -5.174987e+00 -5.213783e+00 -5.266215e+00 -5.259817e+00 -5.217190e+00 -5.117438e+00 -4.863060e+00 -4.738892e+00 -4.720409e+00 -4.387952e+00 -3.525901e+00 -1.714967e+00 4.939232e-02 1.847182e+00 3.661550e+00 4.727255e+00 5.540048e+00 5.712958e+00 5.524147e+00 4.775076e+00 3.659744e+00 1.794447e+00 1.881005e-01 -1.722062e+00 -3.502894e+00 -4.355927e+00 -4.781932e+00 -4.720914e+00 -4.876020e+00 -5.107600e+00 -5.223219e+00 -5.259986e+00 -5.272869e+00 -5.215631e+00 -5.180109e+00 -5.097741e+00 -5.057362e+00 -4.982586e+00 -4.949215e+00 -4.888360e+00 -4.860941e+00 -4.814196e+00 -4.791149e+00 -4.758025e+00 -4.739228e+00 -4.718758e+00 -4.704957e+00 -4.695636e+00 -4.687987e+00 
-4.710956e+00 -4.709463e+00 -4.719881e+00 -4.729280e+00 -4.747019e+00 -4.769611e+00 -4.793688e+00 -4.831756e+00 -4.862295e+00 -4.917920e+00 -4.957441e+00 -5.032779e+00 -5.087876e+00 -5.184828e+00 -5.262646e+00 -5.373401e+00 -5.455490e+00 -5.530085e+00 -5.536605e+00 -5.489163e+00 -5.320171e+00 -5.252928e+00 -4.670730e+00 -2.821550e+00 4.506132e-01 4.027706e+00 7.195285e+00 9.551557e+00 1.091147e+01 1.196653e+01 1.224815e+01 1.234120e+01 1.236781e+01 1.231846e+01 1.230081e+01 1.188755e+01 1.093864e+01 9.686367e+00 7.141328e+00 4.073470e+00 4.709257e-01 -2.823642e+00 -4.613773e+00 -5.269656e+00 -5.322271e+00 -5.492426e+00 -5.538194e+00 -5.533202e+00 -5.455581e+00 -5.376055e+00 -5.262262e+00 -5.186612e+00 -5.087340e+00 -5.033795e+00 -4.956951e+00 -4.918430e+00 -4.861916e+00 -4.831975e+00 -4.793419e+00 -4.769683e+00 -4.746848e+00 -4.729292e+00 -4.719798e+00 -4.709462e+00 
-4.731313e+00 -4.727411e+00 -4.741533e+00 -4.750189e+00 -4.772696e+00 -4.796947e+00 -4.826979e+00 -4.870437e+00 -4.908782e+00 -4.975967e+00 -5.026993e+00 -5.124507e+00 -5.198347e+00 -5.334549e+00 -5.439782e+00 -5.606374e+00 -5.706721e+00 -5.827210e+00 -5.824896e+00 -5.849815e+00 -5.549405e+00 -3.577558e+00 8.481942e-01 5.623649e+00 9.407894e+00 1.172818e+01 1.244887e+01 1.272346e+01 1.263820e+01 1.257144e+01 1.237543e+01 1.226525e+01 1.221126e+01 1.224978e+01 1.239792e+01 1.252801e+01 1.267421e+01 1.273570e+01 1.239586e+01 1.173776e+01 9.417632e+00 5.722187e+00 8.898984e-01 -3.582343e+00 -5.526393e+00 -5.848686e+00 -5.834774e+00 -5.836788e+00 -5.713117e+00 -5.613401e+00 -5.442746e+00 -5.337929e+00 -5.198808e+00 -5.125498e+00 -5.026450e+00 -4.975915e+00 -4.908071e+00 -4.870069e+00 -4.826397e+00 -4.796577e+00 -4.772312e+00 -4.749940e+00 -4.741346e+00 -4.727325e+00 
-4.745567e+00 -4.739174e+00 -4.756690e+00 -4.764405e+00 -4.790949e+00 -4.816708e+00 -4.851416e+00 -4.900376e+00 -4.944907e+00 -5.024178e+00 -5.086288e+00 -5.206301e+00 -5.304699e+00 -5.476323e+00 -5.630322e+00 -5.830448e+00 -5.988922e+00 -6.102668e+00 -6.151973e+00 -5.369143e+00 -1.708278e+00 4.260499e+00 9.629511e+00 1.219199e+01 1.277910e+01 1.274166e+01 1.245024e+01 1.239116e+01 1.235596e+01 1.247718e+01 1.249572e+01 1.255728e+01 1.255342e+01 1.254765e+01 1.251214e+01 1.245522e+01 1.236750e+01 1.239004e+01 1.243704e+01 1.273492e+01 1.278412e+01 1.224048e+01 9.623790e+00 4.345952e+00 -1.603788e+00 -5.347956e+00 -6.156839e+00 -6.103309e+00 -5.988879e+00 -5.833567e+00 -5.630795e+00 -5.478808e+00 -5.305016e+00 -5.207501e+00 -5.086377e+00 -5.024566e+00 -4.944896e+00 -4.900387e+00 -4.851377e+00 -4.816597e+00 -4.790913e+00 -4.764300e+00 -4.756670e+00 -4.739133e+00 
-4.756137e+00 -4.745969e+00 -4.768256e+00 -4.773503e+00 -4.805593e+00 -4.830993e+00 -4.872221e+00 -4.924626e+00 -4.977667e+00 -5.067640e+00 -5.143351e+00 -5.287843e+00 -5.410522e+00 -5.628337e+00 -5.811039e+00 -6.064642e+00 -6.196495e+00 -6.276671e+00 -5.106913e+00 -2.005705e-01 7.091536e+00 1.148306e+01 1.273219e+01 1.272461e+01 1.252345e+01 1.264891e+01 1.267450e+01 1.280106e+01 1.275672e+01 1.278263e+01 1.270025e+01 1.269617e+01 1.265690e+01 1.268970e+01 1.270909e+01 1.276830e+01 1.276675e+01 1.279869e+01 1.266567e+01 1.264668e+01 1.252678e+01 1.272312e+01 1.272997e+01 1.153525e+01 7.145101e+00 -1.375036e-01 -5.100915e+00 -6.291406e+00 -6.205779e+00 -6.073134e+00 -5.814766e+00 -5.631217e+00 -5.410492e+00 -5.287520e+00 -5.142246e+00 -5.066430e+00 -4.976646e+00 -4.923467e+00 -4.871518e+00 -4.830144e+00 -4.805176e+00 -4.773002e+00 -4.768064e+00 -4.745805e+00 
-4.758890e+00 -4.744638e+00 -4.771420e+00 -4.773701e+00 -4.810327e+00 -4.834952e+00 -4.880326e+00 -4.936449e+00 -4.993255e+00 -5.096010e+00 -5.177407e+00 -5.350659e+00 -5.488874e+00 -5.750170e+00 -5.964396e+00 -6.220307e+00 -6.359017e+00 -5.131961e+00 7.605082e-01 8.418108e+00 1.237555e+01 1.286090e+01 1.274359e+01 1.285211e+01 1.285862e+01 1.289166e+01 1.279196e+01 1.281048e+01 1.275739e+01 1.281802e+01 1.279366e+01 1.284301e+01 1.281620e+01 1.283903e+01 1.279908e+01 1.280949e+01 1.276139e+01 1.280626e+01 1.278885e+01 1.288858e+01 1.285779e+01 1.285282e+01 1.273785e+01 1.284432e+01 1.235940e+01 8.468505e+00 8.176105e-01 -5.078622e+00 -6.351452e+00 -6.224961e+00 -5.965669e+00 -5.754130e+00 -5.490685e+00 -5.352120e+00 -5.178352e+00 -5.096088e+00 -4.993690e+00 -4.936071e+00 -4.880527e+00 -4.834541e+00 -4.810420e+00 -4.773420e+00 -4.771457e+00 -4.744540e+00 
-4.757244e+00 -4.737481e+00 -4.770221e+00 -4.767541e+00 -4.810418e+00 -4.831241e+00 -4.883252e+00 -4.938490e+00 -5.003212e+00 -5.111989e+00 -5.206563e+00 -5.399232e+00 -5.564631e+00 -5.860178e+00 -6.095733e+00 -6.407330e+00 -5.612988e+00 5.544537e-02 8.714486e+00 1.264925e+01 1.291146e+01 1.291124e+01 1.296912e+01 1.298036e+01 1.292656e+01 1.298946e+01 1.296060e+01 1.303390e+01 1.299054e+01 1.303694e+01 1.298326e+01 1.301562e+01 1.297425e+01 1.301298e+01 1.298665e+01 1.303139e+01 1.299402e+01 1.303122e+01 1.295938e+01 1.298858e+01 1.292753e+01 1.298215e+01 1.297045e+01 1.292004e+01 1.291317e+01 1.266608e+01 8.821810e+00 1.947475e-01 -5.593555e+00 -6.411373e+00 -6.095924e+00 -5.859434e+00 -5.562051e+00 -5.396043e+00 -5.204343e+00 -5.109053e+00 -5.001869e+00 -4.936386e+00 -4.882518e+00 -4.829894e+00 -4.810040e+00 -4.766800e+00 -4.770060e+00 -4.737245e+00 
-4.747266e+00 -4.721265e+00 -4.760076e+00 -4.751372e+00 -4.799880e+00 -4.815672e+00 -4.871975e+00 -4.925847e+00 -4.991613e+00 -5.109908e+00 -5.198994e+00 -5.425807e+00 -5.573010e+00 -5.925488e+00 -6.123779e+00 -6.180550e+00 -1.459844e+00 7.681121e+00 1.268972e+01 1.301780e+01 1.311269e+01 1.311422e+01 1.308647e+01 1.313122e+01 1.309504e+01 1.313376e+01 1.307038e+01 1.310886e+01 1.305498e+01 1.310542e+01 1.306350e+01 1.311177e+01 1.307113e+01 1.310999e+01 1.306521e+01 1.310142e+01 1.305604e+01 1.310546e+01 1.306880e+01 1.313091e+01 1.309255e+01 1.312868e+01 1.308149e+01 1.310866e+01 1.310528e+01 1.301541e+01 1.273338e+01 7.730077e+00 -1.477022e+00 -6.185579e+00 -6.131999e+00 -5.931549e+00 -5.578196e+00 -5.427143e+00 -5.201084e+00 -5.109152e+00 -4.992462e+00 -4.924772e+00 -4.872359e+00 -4.814821e+00 -4.800063e+00 -4.750860e+00 -4.760152e+00 -4.721096e+00 
-4.733101e+00 -4.699672e+00 -4.745691e+00 -4.728969e+00 -4.784550e+00 -4.791726e+00 -4.854723e+00 -4.900839e+00 -4.972230e+00 -5.088349e+00 -5.182702e+00 -5.415727e+00 -5.584442e+00 -5.876620e+00 -6.274804e+00 -3.997159e+00 5.207728e+00 1.236152e+01 1.330820e+01 1.326471e+01 1.326278e+01 1.325078e+01 1.324070e+01 1.325531e+01 1.321224e+01 1.325515e+01 1.320994e+01 1.326510e+01 1.321635e+01 1.326765e+01 1.321691e+01 1.326325e+01 1.321596e+01 1.326215e+01 1.321822e+01 1.326530e+01 1.321768e+01 1.326351e+01 1.320990e+01 1.325468e+01 1.321227e+01 1.325619e+01 1.324049e+01 1.325263e+01 1.326220e+01 1.326244e+01 1.331005e+01 1.236499e+01 5.316115e+00 -3.858598e+00 -6.252320e+00 -5.864394e+00 -5.576143e+00 -5.407916e+00 -5.179711e+00 -5.083629e+00 -4.971137e+00 -4.898014e+00 -4.854296e+00 -4.790064e+00 -4.784371e+00 -4.728091e+00 -4.745623e+00 -4.699396e+00 
-4.711652e+00 -4.669591e+00 -4.723655e+00 -4.697121e+00 -4.760589e+00 -4.756244e+00 -4.826595e+00 -4.860668e+00 -4.936100e+00 -5.047623e+00 -5.130249e+00 -5.394995e+00 -5.479384e+00 -5.925984e+00 -5.654320e+00 1.011567e+00 1.074880e+01 1.358386e+01 1.339757e+01 1.344107e+01 1.339023e+01 1.340366e+01 1.334993e+01 1.337937e+01 1.332051e+01 1.335885e+01 1.329477e+01 1.333957e+01 1.328048e+01 1.333161e+01 1.327907e+01 1.333086e+01 1.328062e+01 1.332997e+01 1.327941e+01 1.332945e+01 1.328028e+01 1.333716e+01 1.329318e+01 1.335645e+01 1.331765e+01 1.337675e+01 1.334539e+01 1.339995e+01 1.338444e+01 1.343684e+01 1.339380e+01 1.358190e+01 1.085937e+01 1.113500e+00 -5.684932e+00 -5.943405e+00 -5.487883e+00 -5.394285e+00 -5.132531e+00 -5.044842e+00 -4.936939e+00 -4.858517e+00 -4.826989e+00 -4.754875e+00 -4.760791e+00 -4.696377e+00 -4.723745e+00 -4.669356e+00 
-4.687653e+00 -4.636547e+00 -4.698942e+00 -4.661383e+00 -4.733295e+00 -4.714539e+00 -4.793481e+00 -4.809888e+00 -4.890447e+00 -4.991115e+00 -5.051116e+00 -5.371177e+00 -5.263036e+00 -6.138442e+00 -3.271200e+00 6.805854e+00 1.359425e+01 1.367742e+01 1.365785e+01 1.359374e+01 1.354819e+01 1.353224e+01 1.347650e+01 1.349239e+01 1.342925e+01 1.346772e+01 1.340629e+01 1.345695e+01 1.339830e+01 1.345212e+01 1.339576e+01 1.344924e+01 1.339521e+01 1.344876e+01 1.339620e+01 1.345106e+01 1.339867e+01 1.345609e+01 1.340604e+01 1.346737e+01 1.342848e+01 1.349252e+01 1.347478e+01 1.353201e+01 1.354447e+01 1.359015e+01 1.364880e+01 1.366260e+01 1.357222e+01 6.808390e+00 -3.228950e+00 -6.109802e+00 -5.258202e+00 -5.360701e+00 -5.051589e+00 -4.986288e+00 -4.891143e+00 -4.807219e+00 -4.793868e+00 -4.712982e+00 -4.733478e+00 -4.660554e+00 -4.699015e+00 -4.636286e+00 
-4.658983e+00 -4.597535e+00 -4.669617e+00 -4.619015e+00 -4.701786e+00 -4.664288e+00 -4.757732e+00 -4.744931e+00 -4.848046e+00 -4.901563e+00 -4.998179e+00 -5.244190e+00 -5.173579e+00 -5.933680e+00 4.694559e-01 1.097841e+01 1.428629e+01 1.370870e+01 1.385055e+01 1.371020e+01 1.366811e+01 1.364571e+01 1.356605e+01 1.358630e+01 1.350404e+01 1.354262e+01 1.346558e+01 1.351383e+01 1.344490e+01 1.349895e+01 1.343703e+01 1.349346e+01 1.343541e+01 1.349295e+01 1.343681e+01 1.349763e+01 1.344410e+01 1.351213e+01 1.346378e+01 1.354074e+01 1.350102e+01 1.358415e+01 1.356132e+01 1.364282e+01 1.366054e+01 1.370542e+01 1.383577e+01 1.369643e+01 1.424760e+01 1.103166e+01 6.359590e-01 -5.863302e+00 -5.164618e+00 -5.226032e+00 -4.997259e+00 -4.894734e+00 -4.848247e+00 -4.741700e+00 -4.757966e+00 -4.662585e+00 -4.701946e+00 -4.618159e+00 -4.669698e+00 -4.597272e+00 
-4.631065e+00 -4.560203e+00 -4.640919e+00 -4.577711e+00 -4.670569e+00 -4.613141e+00 -4.721911e+00 -4.672785e+00 -4.807510e+00 -4.782530e+00 -4.968100e+00 -4.999873e+00 -5.252551e+00 -4.955568e+00 4.800714e+00 1.353327e+01 1.430701e+01 1.397914e+01 1.395933e+01 1.387485e+01 1.377164e+01 1.376394e+01 1.365806e+01 1.368235e+01 1.358801e+01 1.362996e+01 1.354857e+01 1.360060e+01 1.352935e+01 1.358606e+01 1.352148e+01 1.358008e+01 1.351947e+01 1.357984e+01 1.352150e+01 1.358549e+01 1.352915e+01 1.360003e+01 1.354786e+01 1.362959e+01 1.358661e+01 1.368219e+01 1.365555e+01 1.376395e+01 1.376721e+01 1.387580e+01 1.395157e+01 1.398771e+01 1.429622e+01 1.361845e+01 4.980516e+00 -4.928281e+00 -5.288759e+00 -5.003203e+00 -4.978649e+00 -4.781732e+00 -4.810801e+00 -4.671439e+00 -4.723064e+00 -4.612093e+00 -4.671029e+00 -4.577091e+00 -4.641095e+00 -4.560001e+00 
-4.602182e+00 -4.521310e+00 -4.611523e+00 -4.535035e+00 -4.639462e+00 -4.561123e+00 -4.688081e+00 -4.601063e+00 -4.772714e+00 -4.667463e+00 -4.949812e+00 -4.772173e+00 -5.345351e+00 -3.362010e+00 8.511536e+00 1.472490e+01 1.428218e+01 1.426690e+01 1.403257e+01 1.402126e+01 1.384464e+01 1.385950e+01 1.371704e+01 1.375026e+01 1.363427e+01 1.367907e+01 1.358333e+01 1.363580e+01 1.355515e+01 1.361273e+01 1.354228e+01 1.360315e+01 1.353867e+01 1.360281e+01 1.354180e+01 1.361179e+01 1.355404e+01 1.363449e+01 1.358138e+01 1.367758e+01 1.363133e+01 1.374870e+01 1.371292e+01 1.385805e+01 1.383902e+01 1.402072e+01 1.402514e+01 1.427124e+01 1.427551e+01 1.476091e+01 8.651074e+00 -3.291360e+00 -5.356220e+00 -4.767837e+00 -4.952145e+00 -4.663923e+00 -4.773162e+00 -4.598773e+00 -4.688232e+00 -4.559747e+00 -4.639566e+00 -4.534303e+00 -4.611585e+00 -4.521080e+00 
-4.578507e+00 -4.490315e+00 -4.587226e+00 -4.500661e+00 -4.613065e+00 -4.518481e+00 -4.656921e+00 -4.541146e+00 -4.730755e+00 -4.571681e+00 -4.879897e+00 -4.600158e+00 -5.183264e+00 -1.520137e+00 1.100348e+01 1.497005e+01 1.423720e+01 1.443942e+01 1.407056e+01 1.414122e+01 1.390121e+01 1.394681e+01 1.377477e+01 1.381989e+01 1.369040e+01 1.374083e+01 1.363945e+01 1.369541e+01 1.361225e+01 1.367212e+01 1.360000e+01 1.366259e+01 1.359658e+01 1.366242e+01 1.359978e+01 1.367169e+01 1.361168e+01 1.369485e+01 1.363835e+01 1.374024e+01 1.368859e+01 1.381924e+01 1.377207e+01 1.394608e+01 1.389753e+01 1.414060e+01 1.406637e+01 1.443958e+01 1.423488e+01 1.496694e+01 1.109558e+01 -1.421621e+00 -5.179762e+00 -4.598467e+00 -4.880155e+00 -4.570461e+00 -4.731219e+00 -4.540147e+00 -4.657310e+00 -4.517752e+00 -4.613342e+00 -4.500225e+00 -4.587372e+00 -4.490171e+00 
-4.557797e+00 -4.462630e+00 -4.566103e+00 -4.470355e+00 -4.590304e+00 -4.481950e+00 -4.629986e+00 -4.492866e+00 -4.692562e+00 -4.504663e+00 -4.806622e+00 -4.519547e+00 -4.984361e+00 -1.544544e-02 1.260806e+01 1.505219e+01 1.429850e+01 1.456359e+01 1.411902e+01 1.422809e+01 1.394111e+01 1.400350e+01 1.380448e+01 1.385632e+01 1.371056e+01 1.376327e+01 1.365138e+01 1.370798e+01 1.361787e+01 1.367846e+01 1.360182e+01 1.366598e+01 1.359706e+01 1.366569e+01 1.360122e+01 1.367767e+01 1.361659e+01 1.370683e+01 1.364935e+01 1.376195e+01 1.370780e+01 1.385505e+01 1.380121e+01 1.400270e+01 1.393807e+01 1.422863e+01 1.411830e+01 1.456721e+01 1.430498e+01 1.505900e+01 1.269359e+01 8.164169e-02 -4.984172e+00 -4.523223e+00 -4.805597e+00 -4.504405e+00 -4.691910e+00 -4.491897e+00 -4.629752e+00 -4.481109e+00 -4.590279e+00 -4.469833e+00 -4.566129e+00 -4.462456e+00 
-4.546544e+00 -4.448346e+00 -4.554583e+00 -4.454665e+00 -4.577886e+00 -4.463217e+00 -4.615277e+00 -4.469435e+00 -4.671410e+00 -4.478704e+00 -4.765375e+00 -4.520196e+00 -4.880984e+00 9.251654e-01 1.350406e+01 1.508713e+01 1.435543e+01 1.462600e+01 1.414660e+01 1.428109e+01 1.396756e+01 1.404575e+01 1.383258e+01 1.389237e+01 1.374043e+01 1.379729e+01 1.368340e+01 1.374243e+01 1.365204e+01 1.371404e+01 1.363745e+01 1.370235e+01 1.363327e+01 1.370219e+01 1.363711e+01 1.371361e+01 1.365126e+01 1.374180e+01 1.368206e+01 1.379647e+01 1.373841e+01 1.389130e+01 1.382987e+01 1.404427e+01 1.396451e+01 1.427892e+01 1.414447e+01 1.462228e+01 1.435687e+01 1.507795e+01 1.357615e+01 1.044336e+00 -4.869584e+00 -4.522064e+00 -4.760719e+00 -4.478505e+00 -4.669807e+00 -4.468865e+00 -4.614910e+00 -4.462716e+00 -4.577920e+00 -4.454349e+00 -4.554665e+00 -4.448239e+00 
-4.540916e+00 -4.440549e+00 -4.548810e+00 -4.446164e+00 -4.571426e+00 -4.453023e+00 -4.606832e+00 -4.456204e+00 -4.657296e+00 -4.461754e+00 -4.734744e+00 -4.507032e+00 -4.803494e+00 1.290259e+00 1.379406e+01 1.509199e+01 1.438480e+01 1.464733e+01 1.416128e+01 1.429715e+01 1.397492e+01 1.405357e+01 1.383357e+01 1.389294e+01 1.373565e+01 1.379175e+01 1.367355e+01 1.373188e+01 1.363816e+01 1.369994e+01 1.362102e+01 1.368640e+01 1.361588e+01 1.368613e+01 1.362038e+01 1.369918e+01 1.363682e+01 1.373076e+01 1.367149e+01 1.379045e+01 1.373297e+01 1.389173e+01 1.383067e+01 1.405289e+01 1.397294e+01 1.429785e+01 1.416308e+01 1.465058e+01 1.439628e+01 1.509737e+01 1.388598e+01 1.422650e+00 -4.791605e+00 -4.511106e+00 -4.730609e+00 -4.462404e+00 -4.655781e+00 -4.455746e+00 -4.606342e+00 -4.452417e+00 -4.571323e+00 -4.445741e+00 -4.548816e+00 -4.440402e+00 