# vtk DataFile Version 2.0
Comment goes here
ASCII

DATASET STRUCTURED_POINTS
FIELD FieldData 1
TIME 1 1 double
0.82000000
DIMENSIONS    64   64   1

ORIGIN    0.000   0.000   0.000
SPACING   0.015625 0.015625   1.000

POINT_DATA   4096
SCALARS P double
LOOKUP_TABLE default

-4.293544e+00 -4.293405e+00 -4.296750e+00 -4.300835e+00 -4.307302e+00 -4.315693e+00 -4.325189e+00 -4.337896e+00 -4.350331e+00 -4.367242e+00 -4.382486e+00 -4.403295e+00 -4.421111e+00 -4.445232e+00 -4.465181e+00 -4.491645e+00 -4.512989e+00 -4.540380e+00 -4.562008e+00 -4.588496e+00 -4.608964e+00 -4.632523e+00 -4.650256e+00 -4.669142e+00 -4.682824e+00 -4.696186e+00 -4.705216e+00 -4.713453e+00 -4.718178e+00 -4.722594e+00 -4.724015e+00 -4.725973e+00 -4.725264e+00 -4.725424e+00 -4.723218e+00 -4.721121e+00 -4.717056e+00 -4.711474e+00 -4.704481e+00 -4.694156e+00 -4.683092e+00 -4.667404e+00 -4.651785e+00 -4.631242e+00 -4.611669e+00 -4.587683e+00 -4.565610e+00 -4.539959e+00 -4.517139e+00 -4.491506e+00 -4.469536e+00 -4.445268e+00 -4.425364e+00 -4.403419e+00 -4.386381e+00 -4.367391e+00 -4.353667e+00 -4.338032e+00 -4.327814e+00 -4.315797e+00 -4.309108e+00 -4.300900e+00 -4.297670e+00 -4.293426e+00 
-4.298713e+00 -4.298148e+00 -4.302285e+00 -4.305946e+00 -4.313219e+00 -4.321163e+00 -4.331472e+00 -4.343686e+00 -4.356917e+00 -4.373271e+00 -4.389243e+00 -4.409420e+00 -4.427807e+00 -4.451209e+00 -4.471427e+00 -4.497065e+00 -4.518150e+00 -4.544540e+00 -4.565059e+00 -4.590198e+00 -4.608284e+00 -4.629808e+00 -4.643423e+00 -4.659075e+00 -4.666582e+00 -4.675034e+00 -4.676019e+00 -4.677857e+00 -4.673903e+00 -4.672102e+00 -4.666821e+00 -4.665508e+00 -4.662526e+00 -4.664182e+00 -4.664687e+00 -4.668426e+00 -4.670335e+00 -4.672580e+00 -4.672079e+00 -4.669015e+00 -4.663219e+00 -4.653019e+00 -4.641145e+00 -4.624147e+00 -4.607153e+00 -4.585098e+00 -4.564869e+00 -4.540002e+00 -4.518604e+00 -4.493031e+00 -4.472243e+00 -4.447629e+00 -4.428763e+00 -4.406279e+00 -4.390184e+00 -4.370593e+00 -4.357743e+00 -4.341518e+00 -4.332124e+00 -4.319561e+00 -4.313665e+00 -4.304962e+00 -4.302511e+00 -4.297816e+00 
-4.290134e+00 -4.289940e+00 -4.293355e+00 -4.297425e+00 -4.303974e+00 -4.312408e+00 -4.322010e+00 -4.334844e+00 -4.347426e+00 -4.364579e+00 -4.380035e+00 -4.401231e+00 -4.419348e+00 -4.444015e+00 -4.464368e+00 -4.491530e+00 -4.513370e+00 -4.541563e+00 -4.563751e+00 -4.591049e+00 -4.612097e+00 -4.636354e+00 -4.654668e+00 -4.674062e+00 -4.688354e+00 -4.702095e+00 -4.711816e+00 -4.720502e+00 -4.725982e+00 -4.730970e+00 -4.732896e+00 -4.735268e+00 -4.734537e+00 -4.734701e+00 -4.731987e+00 -4.729447e+00 -4.724676e+00 -4.718456e+00 -4.710905e+00 -4.699989e+00 -4.688554e+00 -4.672267e+00 -4.656239e+00 -4.635047e+00 -4.614911e+00 -4.590238e+00 -4.567490e+00 -4.541161e+00 -4.517661e+00 -4.491416e+00 -4.468851e+00 -4.444074e+00 -4.423711e+00 -4.401371e+00 -4.384020e+00 -4.364737e+00 -4.350831e+00 -4.334984e+00 -4.324683e+00 -4.312513e+00 -4.305811e+00 -4.297488e+00 -4.294289e+00 -4.289961e+00 
-4.291853e+00 -4.291201e+00 -4.295473e+00 -4.299129e+00 -4.306576e+00 -4.314630e+00 -4.325177e+00 -4.337666e+00 -4.351243e+00 -4.368096e+00 -4.384584e+00 -4.405545e+00 -4.424683e+00 -4.449203e+00 -4.470455e+00 -4.497562e+00 -4.519967e+00 -4.548138e+00 -4.570199e+00 -4.597302e+00 -4.617008e+00 -4.640440e+00 -4.655534e+00 -4.672665e+00 -4.681194e+00 -4.690203e+00 -4.691323e+00 -4.692398e+00 -4.687365e+00 -4.683985e+00 -4.677306e+00 -4.675038e+00 -4.671475e+00 -4.673554e+00 -4.674733e+00 -4.679894e+00 -4.683099e+00 -4.686601e+00 -4.686720e+00 -4.683686e+00 -4.677454e+00 -4.666239e+00 -4.653199e+00 -4.634577e+00 -4.616026e+00 -4.592128e+00 -4.570234e+00 -4.543587e+00 -4.520639e+00 -4.493521e+00 -4.471444e+00 -4.445595e+00 -4.425760e+00 -4.402352e+00 -4.385601e+00 -4.365351e+00 -4.352113e+00 -4.335429e+00 -4.325852e+00 -4.312971e+00 -4.307033e+00 -4.298108e+00 -4.295703e+00 -4.290856e+00 
-4.279847e+00 -4.279481e+00 -4.283104e+00 -4.287113e+00 -4.293904e+00 -4.302445e+00 -4.312352e+00 -4.325545e+00 -4.338551e+00 -4.356412e+00 -4.372491e+00 -4.394839e+00 -4.413856e+00 -4.440182e+00 -4.461763e+00 -4.491080e+00 -4.514454e+00 -4.545160e+00 -4.569080e+00 -4.598946e+00 -4.621771e+00 -4.648225e+00 -4.668283e+00 -4.689169e+00 -4.705274e+00 -4.719979e+00 -4.731814e+00 -4.741818e+00 -4.749883e+00 -4.756866e+00 -4.760574e+00 -4.764438e+00 -4.763603e+00 -4.763813e+00 -4.759299e+00 -4.755190e+00 -4.747962e+00 -4.739575e+00 -4.730301e+00 -4.717641e+00 -4.705280e+00 -4.687202e+00 -4.670031e+00 -4.646852e+00 -4.624961e+00 -4.598158e+00 -4.573262e+00 -4.544831e+00 -4.519182e+00 -4.491052e+00 -4.466640e+00 -4.440314e+00 -4.418553e+00 -4.395027e+00 -4.376745e+00 -4.356596e+00 -4.342160e+00 -4.325693e+00 -4.315170e+00 -4.302549e+00 -4.295833e+00 -4.287173e+00 -4.284083e+00 -4.279500e+00 
-4.278005e+00 -4.277167e+00 -4.281708e+00 -4.285326e+00 -4.293102e+00 -4.301338e+00 -4.312326e+00 -4.325320e+00 -4.339544e+00 -4.357352e+00 -4.374826e+00 -4.397328e+00 -4.417940e+00 -4.444702e+00 -4.468038e+00 -4.498148e+00 -4.523280e+00 -4.555163e+00 -4.580480e+00 -4.611782e+00 -4.634992e+00 -4.662658e+00 -4.681077e+00 -4.701721e+00 -4.712776e+00 -4.723335e+00 -4.725077e+00 -4.724129e+00 -4.716052e+00 -4.708078e+00 -4.697487e+00 -4.692577e+00 -4.687433e+00 -4.690730e+00 -4.693884e+00 -4.703039e+00 -4.710133e+00 -4.717206e+00 -4.718940e+00 -4.715752e+00 -4.708283e+00 -4.694541e+00 -4.678766e+00 -4.656452e+00 -4.634452e+00 -4.606544e+00 -4.581059e+00 -4.550647e+00 -4.524429e+00 -4.494122e+00 -4.469381e+00 -4.441042e+00 -4.419252e+00 -4.394021e+00 -4.375985e+00 -4.354459e+00 -4.340490e+00 -4.322934e+00 -4.313038e+00 -4.299556e+00 -4.293575e+00 -4.284224e+00 -4.281943e+00 -4.276794e+00 
-4.262527e+00 -4.261843e+00 -4.265821e+00 -4.269673e+00 -4.276847e+00 -4.285495e+00 -4.295864e+00 -4.309572e+00 -4.323227e+00 -4.342192e+00 -4.359255e+00 -4.383486e+00 -4.403988e+00 -4.433131e+00 -4.456817e+00 -4.489919e+00 -4.516007e+00 -4.551275e+00 -4.578292e+00 -4.612955e+00 -4.638889e+00 -4.669441e+00 -4.692384e+00 -4.715658e+00 -4.734646e+00 -4.750112e+00 -4.765393e+00 -4.777308e+00 -4.791080e+00 -4.802633e+00 -4.810447e+00 -4.817781e+00 -4.816573e+00 -4.817054e+00 -4.808472e+00 -4.800704e+00 -4.787907e+00 -4.774791e+00 -4.762521e+00 -4.747351e+00 -4.734424e+00 -4.713407e+00 -4.694656e+00 -4.668010e+00 -4.642880e+00 -4.612271e+00 -4.583314e+00 -4.551122e+00 -4.521514e+00 -4.490067e+00 -4.462373e+00 -4.433397e+00 -4.409249e+00 -4.383757e+00 -4.363954e+00 -4.342411e+00 -4.327170e+00 -4.309724e+00 -4.298917e+00 -4.285587e+00 -4.278923e+00 -4.269721e+00 -4.266870e+00 -4.261858e+00 
-4.256945e+00 -4.255790e+00 -4.260734e+00 -4.264222e+00 -4.272449e+00 -4.280854e+00 -4.292415e+00 -4.306046e+00 -4.321118e+00 -4.340241e+00 -4.359063e+00 -4.383787e+00 -4.406521e+00 -4.436635e+00 -4.463122e+00 -4.497865e+00 -4.527299e+00 -4.565103e+00 -4.595734e+00 -4.634000e+00 -4.663119e+00 -4.698222e+00 -4.722570e+00 -4.750142e+00 -4.766455e+00 -4.781244e+00 -4.785881e+00 -4.780631e+00 -4.764700e+00 -4.744565e+00 -4.724381e+00 -4.713275e+00 -4.704379e+00 -4.710752e+00 -4.718808e+00 -4.737719e+00 -4.755518e+00 -4.771808e+00 -4.776775e+00 -4.771883e+00 -4.760926e+00 -4.741799e+00 -4.720784e+00 -4.691712e+00 -4.663673e+00 -4.628916e+00 -4.597369e+00 -4.560809e+00 -4.529251e+00 -4.493932e+00 -4.465002e+00 -4.432897e+00 -4.408158e+00 -4.380275e+00 -4.360399e+00 -4.337085e+00 -4.322150e+00 -4.303403e+00 -4.293160e+00 -4.278863e+00 -4.272930e+00 -4.262986e+00 -4.260970e+00 -4.255371e+00 
-4.237964e+00 -4.236769e+00 -4.241256e+00 -4.244771e+00 -4.252438e+00 -4.261068e+00 -4.271987e+00 -4.286222e+00 -4.300643e+00 -4.320968e+00 -4.339261e+00 -4.366015e+00 -4.388525e+00 -4.421668e+00 -4.448421e+00 -4.487199e+00 -4.517481e+00 -4.559988e+00 -4.591943e+00 -4.634682e+00 -4.665439e+00 -4.703163e+00 -4.730106e+00 -4.756786e+00 -4.779358e+00 -4.792789e+00 -4.811303e+00 -4.824311e+00 -4.850764e+00 -4.873103e+00 -4.890061e+00 -4.904805e+00 -4.902178e+00 -4.903907e+00 -4.886960e+00 -4.870781e+00 -4.845355e+00 -4.821658e+00 -4.805212e+00 -4.789277e+00 -4.779391e+00 -4.754160e+00 -4.733821e+00 -4.701821e+00 -4.670946e+00 -4.634316e+00 -4.598326e+00 -4.560207e+00 -4.524165e+00 -4.487664e+00 -4.454964e+00 -4.422147e+00 -4.394581e+00 -4.366392e+00 -4.344575e+00 -4.321213e+00 -4.305036e+00 -4.286355e+00 -4.275348e+00 -4.261126e+00 -4.254703e+00 -4.244788e+00 -4.242394e+00 -4.236772e+00 
-4.228416e+00 -4.226761e+00 -4.232249e+00 -4.235416e+00 -4.244164e+00 -4.252591e+00 -4.264746e+00 -4.278983e+00 -4.294932e+00 -4.315558e+00 -4.335883e+00 -4.363369e+00 -4.388699e+00 -4.423209e+00 -4.453891e+00 -4.495003e+00 -4.530570e+00 -4.576895e+00 -4.615497e+00 -4.664277e+00 -4.702548e+00 -4.749590e+00 -4.783498e+00 -4.823941e+00 -4.850191e+00 -4.877814e+00 -4.895933e+00 -4.883234e+00 -4.845323e+00 -4.791419e+00 -4.748448e+00 -4.724471e+00 -4.707013e+00 -4.720802e+00 -4.739410e+00 -4.781021e+00 -4.829771e+00 -4.871583e+00 -4.880982e+00 -4.865705e+00 -4.843927e+00 -4.813952e+00 -4.783865e+00 -4.743309e+00 -4.705524e+00 -4.660008e+00 -4.618949e+00 -4.573236e+00 -4.533688e+00 -4.491291e+00 -4.456445e+00 -4.419327e+00 -4.390686e+00 -4.359492e+00 -4.337376e+00 -4.311961e+00 -4.296014e+00 -4.275929e+00 -4.265491e+00 -4.250279e+00 -4.244629e+00 -4.233981e+00 -4.232473e+00 -4.226275e+00 
-4.205970e+00 -4.204003e+00 -4.209173e+00 -4.212040e+00 -4.220267e+00 -4.228574e+00 -4.240015e+00 -4.254558e+00 -4.269678e+00 -4.291365e+00 -4.310913e+00 -4.340610e+00 -4.365482e+00 -4.403742e+00 -4.434607e+00 -4.481234e+00 -4.517777e+00 -4.571160e+00 -4.611041e+00 -4.667194e+00 -4.705556e+00 -4.756745e+00 -4.788707e+00 -4.821646e+00 -4.848459e+00 -4.848447e+00 -4.860232e+00 -4.867112e+00 -4.926184e+00 -4.978329e+00 -5.016154e+00 -5.044852e+00 -5.036257e+00 -5.043609e+00 -5.011573e+00 -4.975178e+00 -4.917501e+00 -4.865317e+00 -4.844794e+00 -4.843177e+00 -4.851768e+00 -4.818656e+00 -4.796044e+00 -4.755975e+00 -4.713595e+00 -4.667592e+00 -4.619378e+00 -4.572088e+00 -4.526064e+00 -4.482220e+00 -4.442451e+00 -4.404517e+00 -4.372559e+00 -4.341092e+00 -4.316990e+00 -4.291592e+00 -4.274612e+00 -4.254614e+00 -4.243732e+00 -4.228546e+00 -4.222742e+00 -4.211996e+00 -4.210408e+00 -4.203983e+00 
-4.192233e+00 -4.189822e+00 -4.196005e+00 -4.198522e+00 -4.207798e+00 -4.215901e+00 -4.228517e+00 -4.243086e+00 -4.259681e+00 -4.281734e+00 -4.303364e+00 -4.333906e+00 -4.361958e+00 -4.401763e+00 -4.437568e+00 -4.486868e+00 -4.530824e+00 -4.588781e+00 -4.639062e+00 -4.702877e+00 -4.754704e+00 -4.818985e+00 -4.866238e+00 -4.926452e+00 -4.963754e+00 -5.032251e+00 -5.112443e+00 -5.093946e+00 -4.983571e+00 -4.826589e+00 -4.733945e+00 -4.692771e+00 -4.657932e+00 -4.687856e+00 -4.719826e+00 -4.808104e+00 -4.954838e+00 -5.078829e+00 -5.084694e+00 -5.015926e+00 -4.959567e+00 -4.913696e+00 -4.873040e+00 -4.814771e+00 -4.762301e+00 -4.700876e+00 -4.645164e+00 -4.586425e+00 -4.535329e+00 -4.483475e+00 -4.440776e+00 -4.397530e+00 -4.364195e+00 -4.329356e+00 -4.304901e+00 -4.277407e+00 -4.260718e+00 -4.239400e+00 -4.229192e+00 -4.213125e+00 -4.208203e+00 -4.196808e+00 -4.196194e+00 -4.189244e+00 
-4.166511e+00 -4.163419e+00 -4.169473e+00 -4.171215e+00 -4.180018e+00 -4.187439e+00 -4.199228e+00 -4.213518e+00 -4.228995e+00 -4.251641e+00 -4.272061e+00 -4.304713e+00 -4.331885e+00 -4.376097e+00 -4.412048e+00 -4.468796e+00 -4.514599e+00 -4.583421e+00 -4.636586e+00 -4.714147e+00 -4.765014e+00 -4.842517e+00 -4.877407e+00 -4.929681e+00 -4.968575e+00 -4.912596e+00 -4.854676e+00 -4.821190e+00 -4.985883e+00 -5.138781e+00 -5.224067e+00 -5.266238e+00 -5.229855e+00 -5.264448e+00 -5.218266e+00 -5.132452e+00 -4.976834e+00 -4.826060e+00 -4.806170e+00 -4.900501e+00 -4.989700e+00 -4.926436e+00 -4.891559e+00 -4.843304e+00 -4.775881e+00 -4.715900e+00 -4.647181e+00 -4.585519e+00 -4.524866e+00 -4.470558e+00 -4.421499e+00 -4.377216e+00 -4.340183e+00 -4.305225e+00 -4.279013e+00 -4.251731e+00 -4.234514e+00 -4.213386e+00 -4.203305e+00 -4.187242e+00 -4.182691e+00 -4.171058e+00 -4.170793e+00 -4.163361e+00 
-4.148433e+00 -4.144904e+00 -4.151965e+00 -4.153316e+00 -4.163075e+00 -4.170238e+00 -4.183004e+00 -4.197289e+00 -4.213944e+00 -4.236968e+00 -4.259146e+00 -4.292680e+00 -4.322913e+00 -4.368655e+00 -4.410110e+00 -4.469369e+00 -4.524411e+00 -4.597397e+00 -4.664312e+00 -4.747872e+00 -4.817700e+00 -4.900744e+00 -4.962634e+00 -5.025996e+00 -5.018881e+00 -5.223713e+00 -5.598314e+00 -5.615551e+00 -5.145468e+00 -4.279906e+00 -3.421286e+00 -2.771963e+00 -2.451708e+00 -2.720712e+00 -3.327981e+00 -4.185273e+00 -5.076803e+00 -5.604690e+00 -5.542946e+00 -5.199175e+00 -5.027152e+00 -5.003909e+00 -4.984255e+00 -4.903905e+00 -4.831495e+00 -4.750327e+00 -4.672954e+00 -4.596935e+00 -4.529954e+00 -4.466068e+00 -4.413624e+00 -4.363512e+00 -4.325101e+00 -4.286883e+00 -4.260497e+00 -4.231465e+00 -4.214772e+00 -4.192678e+00 -4.183500e+00 -4.166830e+00 -4.163352e+00 -4.151244e+00 -4.152088e+00 -4.144211e+00 
-4.119874e+00 -4.115197e+00 -4.122384e+00 -4.122314e+00 -4.131683e+00 -4.137329e+00 -4.149139e+00 -4.162156e+00 -4.177289e+00 -4.199903e+00 -4.220158e+00 -4.255113e+00 -4.283590e+00 -4.333938e+00 -4.375127e+00 -4.443611e+00 -4.501990e+00 -4.589571e+00 -4.664230e+00 -4.768300e+00 -4.838930e+00 -4.958573e+00 -4.966349e+00 -5.112124e+00 -5.244435e+00 -4.803821e+00 -2.864973e+00 3.685637e-02 3.278249e+00 6.410373e+00 8.377590e+00 9.595022e+00 1.004554e+01 9.693178e+00 8.524225e+00 6.630472e+00 3.684826e+00 4.435025e-01 -2.487607e+00 -4.721837e+00 -5.361165e+00 -5.112764e+00 -4.980440e+00 -4.961750e+00 -4.847964e+00 -4.770901e+00 -4.676478e+00 -4.593188e+00 -4.514570e+00 -4.446384e+00 -4.386489e+00 -4.335329e+00 -4.293271e+00 -4.255425e+00 -4.228032e+00 -4.199612e+00 -4.183364e+00 -4.161642e+00 -4.153509e+00 -4.136833e+00 -4.134485e+00 -4.121972e+00 -4.123747e+00 -4.115077e+00 
-4.097477e+00 -4.092335e+00 -4.100517e+00 -4.099946e+00 -4.110130e+00 -4.115379e+00 -4.127844e+00 -4.140762e+00 -4.156497e+00 -4.179517e+00 -4.200673e+00 -4.236656e+00 -4.267248e+00 -4.319114e+00 -4.365312e+00 -4.435374e+00 -4.503125e+00 -4.591967e+00 -4.678523e+00 -4.782085e+00 -4.864807e+00 -4.964867e+00 -5.073457e+00 -4.714754e+00 -2.023325e+00 2.594825e+00 7.392619e+00 1.097508e+01 1.301933e+01 1.425061e+01 1.464680e+01 1.478200e+01 1.482647e+01 1.480312e+01 1.463176e+01 1.428636e+01 1.323635e+01 1.121140e+01 7.714788e+00 2.923045e+00 -1.606798e+00 -4.440428e+00 -5.122326e+00 -4.996630e+00 -4.879955e+00 -4.789180e+00 -4.686464e+00 -4.592586e+00 -4.508273e+00 -4.430978e+00 -4.368349e+00 -4.311817e+00 -4.268868e+00 -4.228625e+00 -4.201492e+00 -4.172204e+00 -4.156896e+00 -4.134888e+00 -4.128024e+00 -4.111188e+00 -4.110199e+00 -4.097460e+00 -4.100537e+00 -4.091513e+00 
-4.066874e+00 -4.060040e+00 -4.068681e+00 -4.065887e+00 -4.075843e+00 -4.078440e+00 -4.089878e+00 -4.100018e+00 -4.113783e+00 -4.134585e+00 -4.152767e+00 -4.188421e+00 -4.215378e+00 -4.270862e+00 -4.314165e+00 -4.393599e+00 -4.462906e+00 -4.564781e+00 -4.667111e+00 -4.777603e+00 -4.898222e+00 -4.934463e+00 -3.254464e+00 1.407554e+00 7.248744e+00 1.176234e+01 1.385668e+01 1.437838e+01 1.429806e+01 1.407659e+01 1.398533e+01 1.393264e+01 1.393240e+01 1.393473e+01 1.396467e+01 1.406041e+01 1.427644e+01 1.431000e+01 1.389157e+01 1.208492e+01 8.010861e+00 2.030859e+00 -3.066514e+00 -4.881848e+00 -4.895283e+00 -4.775809e+00 -4.681565e+00 -4.570273e+00 -4.478619e+00 -4.397555e+00 -4.327752e+00 -4.272124e+00 -4.226510e+00 -4.187991e+00 -4.161498e+00 -4.133476e+00 -4.120265e+00 -4.098834e+00 -4.094364e+00 -4.077478e+00 -4.078624e+00 -4.065277e+00 -4.070003e+00 -4.059832e+00 
-4.040461e+00 -4.033058e+00 -4.042702e+00 -4.039173e+00 -4.049806e+00 -4.051710e+00 -4.063431e+00 -4.073257e+00 -4.086823e+00 -4.108133e+00 -4.125715e+00 -4.162999e+00 -4.189754e+00 -4.247225e+00 -4.292865e+00 -4.371089e+00 -4.446723e+00 -4.540483e+00 -4.644308e+00 -4.757788e+00 -4.612144e+00 -2.436043e+00 3.895620e+00 1.043471e+01 1.331232e+01 1.393921e+01 1.378257e+01 1.371327e+01 1.384830e+01 1.403142e+01 1.418360e+01 1.427463e+01 1.430324e+01 1.428136e+01 1.418472e+01 1.404193e+01 1.386335e+01 1.371352e+01 1.377645e+01 1.396244e+01 1.347494e+01 1.073604e+01 4.592483e+00 -1.838822e+00 -4.523378e+00 -4.751654e+00 -4.645595e+00 -4.538754e+00 -4.449574e+00 -4.362766e+00 -4.294391e+00 -4.235445e+00 -4.190120e+00 -4.151231e+00 -4.125584e+00 -4.098251e+00 -4.086551e+00 -4.065838e+00 -4.063156e+00 -4.046689e+00 -4.049588e+00 -4.036300e+00 -4.042582e+00 -4.032126e+00 
-4.009041e+00 -3.999389e+00 -4.009902e+00 -4.003259e+00 -4.013965e+00 -4.011822e+00 -4.022653e+00 -4.027607e+00 -4.038970e+00 -4.055158e+00 -4.068652e+00 -4.102098e+00 -4.122044e+00 -4.179849e+00 -4.214515e+00 -4.300557e+00 -4.360240e+00 -4.469130e+00 -4.587630e+00 -4.459258e+00 -1.388542e+00 5.340707e+00 1.129099e+01 1.351179e+01 1.357652e+01 1.361513e+01 1.377234e+01 1.388736e+01 1.391633e+01 1.389161e+01 1.387770e+01 1.386100e+01 1.385954e+01 1.385988e+01 1.387008e+01 1.388432e+01 1.390767e+01 1.387589e+01 1.376774e+01 1.363944e+01 1.358749e+01 1.354200e+01 1.180988e+01 6.218624e+00 -8.666084e-01 -4.369938e+00 -4.617786e+00 -4.483041e+00 -4.380968e+00 -4.305889e+00 -4.230144e+00 -4.179692e+00 -4.134410e+00 -4.099788e+00 -4.077987e+00 -4.052531e+00 -4.045530e+00 -4.025391e+00 -4.026913e+00 -4.010225e+00 -4.016451e+00 -4.002311e+00 -4.011033e+00 -3.999076e+00 
-3.979286e+00 -3.968844e+00 -3.980404e+00 -3.972587e+00 -3.983917e+00 -3.980473e+00 -3.991348e+00 -3.995407e+00 -4.005821e+00 -4.022510e+00 -4.033359e+00 -4.069988e+00 -4.085178e+00 -4.147988e+00 -4.178316e+00 -4.259524e+00 -4.325599e+00 -4.397287e+00 -4.452478e+00 -2.096133e+00 5.479378e+00 1.200921e+01 1.340874e+01 1.345251e+01 1.356388e+01 1.366209e+01 1.367652e+01 1.371545e+01 1.377926e+01 1.386062e+01 1.392623e+01 1.397677e+01 1.398836e+01 1.397966e+01 1.392935e+01 1.386644e+01 1.378654e+01 1.371997e+01 1.368057e+01 1.366762e+01 1.357005e+01 1.344199e+01 1.341278e+01 1.230318e+01 6.321609e+00 -1.453883e+00 -4.370781e+00 -4.401326e+00 -4.327233e+00 -4.242778e+00 -4.177323e+00 -4.127847e+00 -4.083418e+00 -4.052508e+00 -4.031854e+00 -4.009421e+00 -4.004687e+00 -3.986455e+00 -3.990513e+00 -3.974836e+00 -3.983348e+00 -3.969517e+00 -3.980112e+00 -3.967873e+00 
-3.948692e+00 -3.935559e+00 -3.948434e+00 -3.936684e+00 -3.948562e+00 -3.939588e+00 -3.950106e+00 -3.946724e+00 -3.955416e+00 -3.962782e+00 -3.969476e+00 -3.995960e+00 -4.002083e+00 -4.056893e+00 -4.065803e+00 -4.149842e+00 -4.147660e+00 -4.304019e+00 -2.636099e+00 4.103642e+00 1.123653e+01 1.329459e+01 1.334415e+01 1.346449e+01 1.348978e+01 1.356107e+01 1.362213e+01 1.368724e+01 1.371660e+01 1.373698e+01 1.374154e+01 1.374787e+01 1.374493e+01 1.374737e+01 1.373949e+01 1.373540e+01 1.371539e+01 1.368769e+01 1.362567e+01 1.357245e+01 1.350422e+01 1.347802e+01 1.337972e+01 1.332339e+01 1.180700e+01 5.160113e+00 -2.179791e+00 -4.332597e+00 -4.168448e+00 -4.152231e+00 -4.080703e+00 -4.051400e+00 -4.015040e+00 -3.989662e+00 -3.978959e+00 -3.957743e+00 -3.961452e+00 -3.943161e+00 -3.953542e+00 -3.937274e+00 -3.950304e+00 -3.935389e+00 -3.949140e+00 -3.935143e+00 
-3.916653e+00 -3.902380e+00 -3.916364e+00 -3.902732e+00 -3.915326e+00 -3.903898e+00 -3.914637e+00 -3.908809e+00 -3.916567e+00 -3.923229e+00 -3.925721e+00 -3.957608e+00 -3.951259e+00 -4.024003e+00 -4.009721e+00 -4.107202e+00 -4.149178e+00 -3.677249e+00 2.038304e+00 1.031603e+01 1.323540e+01 1.325511e+01 1.338193e+01 1.339868e+01 1.348270e+01 1.353850e+01 1.358231e+01 1.363179e+01 1.367252e+01 1.372468e+01 1.375477e+01 1.378809e+01 1.378892e+01 1.378963e+01 1.375769e+01 1.372837e+01 1.367792e+01 1.363617e+01 1.358818e+01 1.354365e+01 1.348979e+01 1.340426e+01 1.339029e+01 1.327397e+01 1.329726e+01 1.087736e+01 2.849775e+00 -3.409225e+00 -4.174898e+00 -4.063144e+00 -4.002955e+00 -3.988696e+00 -3.945836e+00 -3.932430e+00 -3.922566e+00 -3.907051e+00 -3.914542e+00 -3.899051e+00 -3.913211e+00 -3.898337e+00 -3.914365e+00 -3.899911e+00 -3.915872e+00 -3.901521e+00 
-3.888780e+00 -3.871681e+00 -3.887358e+00 -3.869304e+00 -3.883035e+00 -3.864883e+00 -3.876245e+00 -3.860402e+00 -3.868032e+00 -3.860262e+00 -3.861013e+00 -3.873358e+00 -3.862095e+00 -3.907979e+00 -3.894147e+00 -3.920297e+00 -4.097538e+00 -1.001151e+00 7.426571e+00 1.272906e+01 1.314429e+01 1.321451e+01 1.328125e+01 1.336332e+01 1.340743e+01 1.347587e+01 1.351382e+01 1.356900e+01 1.358962e+01 1.362273e+01 1.362670e+01 1.364465e+01 1.363720e+01 1.364454e+01 1.362673e+01 1.362281e+01 1.359093e+01 1.357115e+01 1.351824e+01 1.348348e+01 1.341677e+01 1.337817e+01 1.329430e+01 1.324845e+01 1.314244e+01 1.295846e+01 8.338774e+00 -2.537031e-01 -4.010722e+00 -3.901759e+00 -3.903192e+00 -3.889222e+00 -3.876366e+00 -3.860470e+00 -3.870220e+00 -3.852274e+00 -3.872491e+00 -3.855549e+00 -3.877854e+00 -3.862010e+00 -3.883340e+00 -3.867782e+00 -3.887298e+00 -3.871204e+00 
-3.855828e+00 -3.837189e+00 -3.853937e+00 -3.833086e+00 -3.847689e+00 -3.825278e+00 -3.837626e+00 -3.815950e+00 -3.824719e+00 -3.810583e+00 -3.810438e+00 -3.823506e+00 -3.793969e+00 -3.886728e+00 -3.755262e+00 -4.061161e+00 -3.309084e+00 3.598626e+00 1.145681e+01 1.311724e+01 1.308408e+01 1.320925e+01 1.327019e+01 1.333833e+01 1.339622e+01 1.345736e+01 1.349584e+01 1.354885e+01 1.357488e+01 1.361951e+01 1.363193e+01 1.366085e+01 1.365405e+01 1.366178e+01 1.363465e+01 1.362201e+01 1.357995e+01 1.355263e+01 1.350262e+01 1.346311e+01 1.340531e+01 1.334834e+01 1.328466e+01 1.322896e+01 1.311710e+01 1.314662e+01 1.186024e+01 4.574410e+00 -2.785380e+00 -4.023999e+00 -3.708293e+00 -3.833964e+00 -3.783054e+00 -3.791186e+00 -3.806390e+00 -3.793560e+00 -3.822126e+00 -3.807417e+00 -3.835629e+00 -3.821158e+00 -3.846280e+00 -3.831263e+00 -3.853207e+00 -3.836677e+00 
-3.832558e+00 -3.811459e+00 -3.830054e+00 -3.804948e+00 -3.821162e+00 -3.791710e+00 -3.805797e+00 -3.772515e+00 -3.783552e+00 -3.750556e+00 -3.752485e+00 -3.738889e+00 -3.698890e+00 -3.781774e+00 -3.532017e+00 -4.042252e+00 -9.132047e-01 7.788850e+00 1.287851e+01 1.289432e+01 1.307660e+01 1.312714e+01 1.321757e+01 1.328914e+01 1.333748e+01 1.340514e+01 1.343300e+01 1.348844e+01 1.350031e+01 1.353966e+01 1.353795e+01 1.356299e+01 1.354994e+01 1.356277e+01 1.353862e+01 1.353928e+01 1.350213e+01 1.348886e+01 1.343667e+01 1.340772e+01 1.334372e+01 1.329425e+01 1.322790e+01 1.313081e+01 1.310156e+01 1.286019e+01 1.299845e+01 8.751219e+00 -8.930075e-02 -3.985241e+00 -3.597370e+00 -3.743399e+00 -3.723830e+00 -3.719584e+00 -3.760425e+00 -3.740785e+00 -3.784189e+00 -3.767261e+00 -3.803896e+00 -3.788822e+00 -3.819048e+00 -3.803481e+00 -3.828792e+00 -3.811008e+00 
-3.800271e+00 -3.777378e+00 -3.796670e+00 -3.768003e+00 -3.784849e+00 -3.749315e+00 -3.764975e+00 -3.721218e+00 -3.737597e+00 -3.684873e+00 -3.704653e+00 -3.648481e+00 -3.665909e+00 -3.639958e+00 -3.562136e+00 -3.650097e+00 2.540160e+00 1.096535e+01 1.307856e+01 1.284105e+01 1.308849e+01 1.311700e+01 1.321034e+01 1.328001e+01 1.332875e+01 1.339752e+01 1.342496e+01 1.348312e+01 1.349677e+01 1.354216e+01 1.354311e+01 1.357346e+01 1.356022e+01 1.357400e+01 1.354596e+01 1.354370e+01 1.350219e+01 1.348577e+01 1.343240e+01 1.340216e+01 1.333740e+01 1.328945e+01 1.321812e+01 1.313941e+01 1.308922e+01 1.290278e+01 1.305116e+01 1.157078e+01 3.627332e+00 -3.322656e+00 -3.637525e+00 -3.534927e+00 -3.677763e+00 -3.613334e+00 -3.704458e+00 -3.673092e+00 -3.734879e+00 -3.717661e+00 -3.762228e+00 -3.748641e+00 -3.782837e+00 -3.768132e+00 -3.795630e+00 -3.777493e+00 
-3.783243e+00 -3.758840e+00 -3.779774e+00 -3.747943e+00 -3.766397e+00 -3.725105e+00 -3.743024e+00 -3.688437e+00 -3.710291e+00 -3.634484e+00 -3.673692e+00 -3.558563e+00 -3.655308e+00 -3.443231e+00 -3.703473e+00 -2.535133e+00 5.913361e+00 1.249215e+01 1.295020e+01 1.290084e+01 1.303918e+01 1.310690e+01 1.316902e+01 1.325359e+01 1.328446e+01 1.336024e+01 1.337449e+01 1.343526e+01 1.343718e+01 1.348209e+01 1.347334e+01 1.350398e+01 1.348528e+01 1.350336e+01 1.347419e+01 1.348036e+01 1.343896e+01 1.343281e+01 1.337705e+01 1.335787e+01 1.328660e+01 1.325322e+01 1.316616e+01 1.311599e+01 1.301507e+01 1.295155e+01 1.283680e+01 1.279096e+01 6.860606e+00 -2.033790e+00 -3.755087e+00 -3.382586e+00 -3.666335e+00 -3.539950e+00 -3.669527e+00 -3.626938e+00 -3.701872e+00 -3.684667e+00 -3.735145e+00 -3.723090e+00 -3.760761e+00 -3.746932e+00 -3.776893e+00 -3.758530e+00 
-3.753420e+00 -3.727292e+00 -3.748044e+00 -3.712597e+00 -3.730321e+00 -3.682864e+00 -3.699913e+00 -3.634904e+00 -3.657694e+00 -3.562573e+00 -3.613119e+00 -3.455553e+00 -3.610019e+00 -3.280863e+00 -3.795668e+00 -9.251301e-01 8.984041e+00 1.314117e+01 1.276663e+01 1.303324e+01 1.298638e+01 1.313857e+01 1.314874e+01 1.326002e+01 1.327547e+01 1.336185e+01 1.337159e+01 1.343829e+01 1.343981e+01 1.348950e+01 1.348153e+01 1.351552e+01 1.349665e+01 1.351573e+01 1.348484e+01 1.349010e+01 1.344631e+01 1.343920e+01 1.338090e+01 1.336302e+01 1.328624e+01 1.326107e+01 1.315613e+01 1.313673e+01 1.297378e+01 1.301210e+01 1.267616e+01 1.300730e+01 9.509800e+00 -1.758899e-02 -3.703627e+00 -3.265781e+00 -3.591487e+00 -3.460374e+00 -3.605063e+00 -3.569940e+00 -3.651723e+00 -3.641406e+00 -3.695483e+00 -3.687666e+00 -3.727419e+00 -3.715485e+00 -3.746615e+00 -3.728250e+00 
-3.744016e+00 -3.717692e+00 -3.739580e+00 -3.702952e+00 -3.721462e+00 -3.671889e+00 -3.688855e+00 -3.620908e+00 -3.641514e+00 -3.543654e+00 -3.586670e+00 -3.432173e+00 -3.562290e+00 -3.267493e+00 -3.686778e+00 5.098307e-01 1.051920e+01 1.317272e+01 1.271730e+01 1.306983e+01 1.296754e+01 1.314754e+01 1.312890e+01 1.325016e+01 1.324798e+01 1.333840e+01 1.333560e+01 1.340381e+01 1.339553e+01 1.344572e+01 1.343028e+01 1.346551e+01 1.344193e+01 1.346441e+01 1.343132e+01 1.344236e+01 1.339762e+01 1.339797e+01 1.333864e+01 1.332958e+01 1.325118e+01 1.323739e+01 1.312979e+01 1.312900e+01 1.296040e+01 1.303978e+01 1.269613e+01 1.310162e+01 1.136158e+01 1.841131e+00 -3.661484e+00 -3.302657e+00 -3.530164e+00 -3.441735e+00 -3.557513e+00 -3.545374e+00 -3.619194e+00 -3.620853e+00 -3.673364e+00 -3.671589e+00 -3.711810e+00 -3.702727e+00 -3.734957e+00 -3.717612e+00 
-3.718856e+00 -3.691043e+00 -3.711757e+00 -3.672094e+00 -3.688016e+00 -3.633870e+00 -3.645358e+00 -3.571868e+00 -3.580143e+00 -3.479200e+00 -3.491368e+00 -3.350933e+00 -3.393493e+00 -3.185140e+00 -3.320289e+00 2.377895e+00 1.179595e+01 1.298988e+01 1.271562e+01 1.304067e+01 1.294739e+01 1.314284e+01 1.311524e+01 1.325034e+01 1.324271e+01 1.334200e+01 1.333750e+01 1.341140e+01 1.340350e+01 1.345758e+01 1.344313e+01 1.348065e+01 1.345755e+01 1.348062e+01 1.344711e+01 1.345743e+01 1.341167e+01 1.341085e+01 1.335036e+01 1.334041e+01 1.326103e+01 1.324631e+01 1.314025e+01 1.313319e+01 1.298237e+01 1.302043e+01 1.277816e+01 1.296882e+01 1.233464e+01 3.531566e+00 -3.398282e+00 -3.311104e+00 -3.403582e+00 -3.409909e+00 -3.484791e+00 -3.510223e+00 -3.572351e+00 -3.589864e+00 -3.639520e+00 -3.644525e+00 -3.684328e+00 -3.677793e+00 -3.709987e+00 -3.692840e+00 
-3.718297e+00 -3.691371e+00 -3.712956e+00 -3.674040e+00 -3.690406e+00 -3.637685e+00 -3.647863e+00 -3.578543e+00 -3.579930e+00 -3.492244e+00 -3.480844e+00 -3.382611e+00 -3.352781e+00 -3.276468e+00 -3.196192e+00 3.645497e+00 1.262738e+01 1.299467e+01 1.284474e+01 1.306610e+01 1.298775e+01 1.315748e+01 1.312157e+01 1.324994e+01 1.323153e+01 1.332864e+01 1.331485e+01 1.338777e+01 1.337241e+01 1.342616e+01 1.340608e+01 1.344434e+01 1.341750e+01 1.344286e+01 1.340734e+01 1.342151e+01 1.337510e+01 1.337920e+01 1.331935e+01 1.331449e+01 1.323856e+01 1.322671e+01 1.313280e+01 1.311777e+01 1.300852e+01 1.299404e+01 1.289438e+01 1.285680e+01 1.287265e+01 5.019576e+00 -2.978291e+00 -3.327424e+00 -3.272685e+00 -3.405001e+00 -3.429873e+00 -3.500918e+00 -3.546336e+00 -3.581920e+00 -3.626363e+00 -3.639055e+00 -3.677648e+00 -3.674577e+00 -3.707007e+00 -3.691511e+00 
-3.700264e+00 -3.671946e+00 -3.692009e+00 -3.650640e+00 -3.664080e+00 -3.607879e+00 -3.612106e+00 -3.538985e+00 -3.527037e+00 -3.438754e+00 -3.394310e+00 -3.311841e+00 -3.192879e+00 -3.193457e+00 -2.847858e+00 4.543107e+00 1.284413e+01 1.282131e+01 1.285157e+01 1.299948e+01 1.297305e+01 1.313295e+01 1.311102e+01 1.324371e+01 1.323002e+01 1.333262e+01 1.332179e+01 1.339890e+01 1.338621e+01 1.344269e+01 1.342489e+01 1.346442e+01 1.343908e+01 1.346428e+01 1.342935e+01 1.344213e+01 1.339564e+01 1.339754e+01 1.333745e+01 1.332960e+01 1.325452e+01 1.323723e+01 1.314984e+01 1.311952e+01 1.303845e+01 1.297363e+01 1.297222e+01 1.277727e+01 1.309547e+01 5.950972e+00 -2.656458e+00 -3.338197e+00 -3.179238e+00 -3.393650e+00 -3.382863e+00 -3.483537e+00 -3.517525e+00 -3.564293e+00 -3.605402e+00 -3.622298e+00 -3.659946e+00 -3.658128e+00 -3.690049e+00 -3.674272e+00 
-3.709264e+00 -3.682291e+00 -3.703522e+00 -3.664042e+00 -3.679031e+00 -3.625858e+00 -3.631808e+00 -3.564063e+00 -3.553065e+00 -3.475468e+00 -3.427381e+00 -3.368719e+00 -3.226208e+00 -3.285557e+00 -2.828651e+00 4.890898e+00 1.305219e+01 1.287876e+01 1.294030e+01 1.304238e+01 1.301266e+01 1.315491e+01 1.312475e+01 1.324904e+01 1.322785e+01 1.332570e+01 1.330865e+01 1.338287e+01 1.336511e+01 1.342005e+01 1.339835e+01 1.343766e+01 1.340968e+01 1.343603e+01 1.339971e+01 1.341491e+01 1.336810e+01 1.337327e+01 1.331387e+01 1.330954e+01 1.323663e+01 1.322200e+01 1.313994e+01 1.310841e+01 1.304057e+01 1.296121e+01 1.299288e+01 1.274407e+01 1.313372e+01 6.243612e+00 -2.525275e+00 -3.332828e+00 -3.147263e+00 -3.394103e+00 -3.372253e+00 -3.486603e+00 -3.516126e+00 -3.568811e+00 -3.608249e+00 -3.627918e+00 -3.665155e+00 -3.664896e+00 -3.697088e+00 -3.682522e+00 