# vtk DataFile Version 2.0
Comment goes here
ASCII

DATASET STRUCTURED_POINTS
FIELD FieldData 1
TIME 1 1 double
0.44000000
DIMENSIONS    64   64   1

ORIGIN    0.000   0.000   0.000
SPACING   0.015625 0.015625   1.000

POINT_DATA   4096
SCALARS P double
LOOKUP_TABLE default

-4.559472e+00 -4.547235e+00 -4.542606e+00 -4.513597e+00 -4.491960e+00 -4.446684e+00 -4.408260e+00 -4.347538e+00 -4.292879e+00 -4.217950e+00 -4.148043e+00 -4.060692e+00 -3.977080e+00 -3.879751e+00 -3.784637e+00 -3.680502e+00 -3.576824e+00 -3.469771e+00 -3.361220e+00 -3.255742e+00 -3.146698e+00 -3.047675e+00 -2.943025e+00 -2.855374e+00 -2.760170e+00 -2.688372e+00 -2.607345e+00 -2.554970e+00 -2.492111e+00 -2.461662e+00 -2.420189e+00 -2.413332e+00 -2.395686e+00 -2.413075e+00 -2.420258e+00 -2.460934e+00 -2.492189e+00 -2.553882e+00 -2.607329e+00 -2.687059e+00 -2.759949e+00 -2.853954e+00 -2.942520e+00 -3.046237e+00 -3.145890e+00 -3.254342e+00 -3.360153e+00 -3.468440e+00 -3.575583e+00 -3.679263e+00 -3.783325e+00 -3.878622e+00 -3.975795e+00 -4.059690e+00 -4.146869e+00 -4.217094e+00 -4.291880e+00 -4.346848e+00 -4.407480e+00 -4.446177e+00 -4.491426e+00 -4.513286e+00 -4.542336e+00 -4.547131e+00 
-4.567088e+00 -4.555378e+00 -4.550127e+00 -4.521498e+00 -4.499136e+00 -4.454042e+00 -4.414793e+00 -4.353988e+00 -4.298394e+00 -4.223041e+00 -4.152070e+00 -4.063879e+00 -3.979046e+00 -3.880402e+00 -3.783874e+00 -3.677926e+00 -3.572601e+00 -3.463272e+00 -3.352819e+00 -3.244715e+00 -3.133542e+00 -3.031741e+00 -2.924867e+00 -2.834562e+00 -2.737282e+00 -2.663264e+00 -2.580583e+00 -2.526639e+00 -2.462699e+00 -2.431349e+00 -2.389346e+00 -2.382121e+00 -2.364405e+00 -2.381836e+00 -2.389403e+00 -2.430535e+00 -2.462740e+00 -2.525404e+00 -2.580489e+00 -2.661749e+00 -2.736938e+00 -2.832904e+00 -2.924200e+00 -3.030053e+00 -3.132548e+00 -3.243070e+00 -3.351554e+00 -3.461710e+00 -3.571162e+00 -3.676467e+00 -3.782370e+00 -3.879064e+00 -3.977581e+00 -4.062681e+00 -4.150732e+00 -4.222007e+00 -4.297252e+00 -4.353146e+00 -4.413898e+00 -4.453419e+00 -4.498522e+00 -4.521115e+00 -4.549814e+00 -4.555249e+00 
-4.576714e+00 -4.564345e+00 -4.559729e+00 -4.530458e+00 -4.508700e+00 -4.463000e+00 -4.424282e+00 -4.362921e+00 -4.307744e+00 -4.231899e+00 -4.161194e+00 -4.072597e+00 -3.987858e+00 -3.888925e+00 -3.792326e+00 -3.686244e+00 -3.580729e+00 -3.471456e+00 -3.360762e+00 -3.252915e+00 -3.141514e+00 -3.040134e+00 -2.933049e+00 -2.843223e+00 -2.745666e+00 -2.672025e+00 -2.588880e+00 -2.535104e+00 -2.470519e+00 -2.439198e+00 -2.396553e+00 -2.389446e+00 -2.371337e+00 -2.389167e+00 -2.396651e+00 -2.438413e+00 -2.470647e+00 -2.533947e+00 -2.588918e+00 -2.670649e+00 -2.745481e+00 -2.841757e+00 -2.932551e+00 -3.038665e+00 -3.140683e+00 -3.251496e+00 -3.359651e+00 -3.470114e+00 -3.579436e+00 -3.684996e+00 -3.790965e+00 -3.887787e+00 -3.986533e+00 -4.071586e+00 -4.159990e+00 -4.231034e+00 -4.306724e+00 -4.362223e+00 -4.423489e+00 -4.462487e+00 -4.508159e+00 -4.530145e+00 -4.559455e+00 -4.564239e+00 
-4.601804e+00 -4.589866e+00 -4.584623e+00 -4.555524e+00 -4.532915e+00 -4.487040e+00 -4.447212e+00 -4.385203e+00 -4.328594e+00 -4.251483e+00 -4.178947e+00 -4.088321e+00 -4.001273e+00 -3.899442e+00 -3.799986e+00 -3.690109e+00 -3.581136e+00 -3.467257e+00 -3.352488e+00 -3.239448e+00 -3.123431e+00 -3.016635e+00 -2.904649e+00 -2.809684e+00 -2.707422e+00 -2.629503e+00 -2.542434e+00 -2.485674e+00 -2.418307e+00 -2.385351e+00 -2.341097e+00 -2.333501e+00 -2.314867e+00 -2.333175e+00 -2.341228e+00 -2.384428e+00 -2.418464e+00 -2.484293e+00 -2.542453e+00 -2.627842e+00 -2.707143e+00 -2.807908e+00 -2.903981e+00 -3.014868e+00 -3.122376e+00 -3.237759e+00 -3.351125e+00 -3.465672e+00 -3.579586e+00 -3.688634e+00 -3.798378e+00 -3.898085e+00 -3.999721e+00 -4.087100e+00 -4.177542e+00 -4.250424e+00 -4.327405e+00 -4.384338e+00 -4.446286e+00 -4.486398e+00 -4.532282e+00 -4.555129e+00 -4.584302e+00 -4.589732e+00 
-4.628686e+00 -4.615932e+00 -4.611370e+00 -4.581349e+00 -4.559260e+00 -4.512339e+00 -4.472790e+00 -4.409568e+00 -4.352894e+00 -4.274351e+00 -4.201303e+00 -4.108991e+00 -4.020900e+00 -3.917134e+00 -3.816079e+00 -3.704083e+00 -3.593010e+00 -3.476953e+00 -3.359732e+00 -3.244617e+00 -3.126011e+00 -3.017388e+00 -2.902852e+00 -2.806367e+00 -2.701609e+00 -2.622346e+00 -2.532703e+00 -2.474645e+00 -2.404717e+00 -2.370687e+00 -2.324376e+00 -2.316460e+00 -2.296912e+00 -2.316107e+00 -2.324575e+00 -2.369714e+00 -2.405014e+00 -2.473259e+00 -2.532921e+00 -2.620772e+00 -2.701547e+00 -2.804759e+00 -2.902374e+00 -3.015831e+00 -3.125100e+00 -3.243147e+00 -3.358477e+00 -3.475581e+00 -3.591551e+00 -3.702811e+00 -3.814564e+00 -3.915971e+00 -4.019451e+00 -4.107954e+00 -4.200009e+00 -4.273462e+00 -4.351815e+00 -4.408848e+00 -4.471961e+00 -4.511809e+00 -4.558700e+00 -4.581024e+00 -4.611088e+00 -4.615822e+00 
-4.671700e+00 -4.659324e+00 -4.654130e+00 -4.624158e+00 -4.601128e+00 -4.553796e+00 -4.512913e+00 -4.448623e+00 -4.390093e+00 -4.309583e+00 -4.234011e+00 -4.138586e+00 -4.047166e+00 -3.938949e+00 -3.833647e+00 -3.715789e+00 -3.599461e+00 -3.476246e+00 -3.352701e+00 -3.229459e+00 -3.103496e+00 -2.986324e+00 -2.863728e+00 -2.759038e+00 -2.646363e+00 -2.560326e+00 -2.464118e+00 -2.401594e+00 -2.327151e+00 -2.290974e+00 -2.242091e+00 -2.233770e+00 -2.213250e+00 -2.233351e+00 -2.242401e+00 -2.289800e+00 -2.327588e+00 -2.399886e+00 -2.464405e+00 -2.558348e+00 -2.646236e+00 -2.757012e+00 -2.863052e+00 -2.984405e+00 -3.102296e+00 -3.227698e+00 -3.351116e+00 -3.474628e+00 -3.597671e+00 -3.714289e+00 -3.831822e+00 -3.937557e+00 -4.045439e+00 -4.137318e+00 -4.232475e+00 -4.308472e+00 -4.388812e+00 -4.447708e+00 -4.511926e+00 -4.553114e+00 -4.600460e+00 -4.623737e+00 -4.653793e+00 -4.659181e+00 
-4.716086e+00 -4.702720e+00 -4.698300e+00 -4.667142e+00 -4.644627e+00 -4.595849e+00 -4.555089e+00 -4.488975e+00 -4.429998e+00 -4.347146e+00 -4.270359e+00 -4.171957e+00 -4.078383e+00 -3.966515e+00 -3.858028e+00 -3.735936e+00 -3.615445e+00 -3.487654e+00 -3.359229e+00 -3.231428e+00 -3.100335e+00 -2.979037e+00 -2.851547e+00 -2.743477e+00 -2.626217e+00 -2.537222e+00 -2.436196e+00 -2.370673e+00 -2.291229e+00 -2.252359e+00 -2.199425e+00 -2.189979e+00 -2.167868e+00 -2.189467e+00 -2.199829e+00 -2.250982e+00 -2.291869e+00 -2.368827e+00 -2.436791e+00 -2.535291e+00 -2.626407e+00 -2.741637e+00 -2.851101e+00 -2.977351e+00 -3.099252e+00 -3.229895e+00 -3.357685e+00 -3.486244e+00 -3.613673e+00 -3.734630e+00 -3.856236e+00 -3.965312e+00 -4.076721e+00 -4.170876e+00 -4.268918e+00 -4.346212e+00 -4.428827e+00 -4.488215e+00 -4.554208e+00 -4.595287e+00 -4.644041e+00 -4.666797e+00 -4.698007e+00 -4.702604e+00 
-4.777603e+00 -4.764614e+00 -4.759577e+00 -4.728472e+00 -4.705005e+00 -4.655773e+00 -4.613574e+00 -4.546206e+00 -4.485087e+00 -4.399806e+00 -4.319934e+00 -4.217523e+00 -4.119711e+00 -4.001908e+00 -3.887873e+00 -3.757742e+00 -3.630262e+00 -3.492430e+00 -3.355401e+00 -3.216002e+00 -3.074486e+00 -2.940742e+00 -2.801177e+00 -2.680722e+00 -2.551077e+00 -2.451849e+00 -2.340815e+00 -2.269237e+00 -2.183595e+00 -2.142679e+00 -2.086666e+00 -2.077465e+00 -2.054031e+00 -2.076864e+00 -2.087341e+00 -2.141028e+00 -2.184590e+00 -2.266927e+00 -2.341630e+00 -2.449326e+00 -2.551229e+00 -2.678291e+00 -2.800467e+00 -2.938615e+00 -3.073001e+00 -3.214178e+00 -3.353409e+00 -3.490805e+00 -3.628062e+00 -3.756225e+00 -3.885697e+00 -4.000467e+00 -4.117715e+00 -4.216178e+00 -4.318206e+00 -4.398606e+00 -4.483676e+00 -4.545208e+00 -4.612506e+00 -4.655023e+00 -4.704290e+00 -4.728008e+00 -4.759219e+00 -4.764457e+00 
-4.839896e+00 -4.825741e+00 -4.821636e+00 -4.789141e+00 -4.766310e+00 -4.715337e+00 -4.673277e+00 -4.603602e+00 -4.541839e+00 -4.453415e+00 -4.371789e+00 -4.265145e+00 -4.164155e+00 -4.040892e+00 -3.922033e+00 -3.785313e+00 -3.651348e+00 -3.506182e+00 -3.361375e+00 -3.214521e+00 -3.064847e+00 -2.924365e+00 -2.777487e+00 -2.652097e+00 -2.516267e+00 -2.412818e+00 -2.294503e+00 -2.217686e+00 -2.123338e+00 -2.076870e+00 -2.013470e+00 -2.001508e+00 -1.975460e+00 -2.000673e+00 -2.014253e+00 -2.074685e+00 -2.124600e+00 -2.214982e+00 -2.295827e+00 -2.410347e+00 -2.516934e+00 -2.649960e+00 -2.777074e+00 -2.922547e+00 -3.063416e+00 -3.212950e+00 -3.359306e+00 -3.504755e+00 -3.649054e+00 -3.783971e+00 -3.919814e+00 -4.039632e+00 -4.162189e+00 -4.263994e+00 -4.370155e+00 -4.452411e+00 -4.540558e+00 -4.602781e+00 -4.672340e+00 -4.714728e+00 -4.765699e+00 -4.788767e+00 -4.821335e+00 -4.825615e+00 
-4.920473e+00 -4.906755e+00 -4.902098e+00 -4.869834e+00 -4.846181e+00 -4.794992e+00 -4.751592e+00 -4.680839e+00 -4.616873e+00 -4.525949e+00 -4.440883e+00 -4.329676e+00 -4.223699e+00 -4.093202e+00 -3.967632e+00 -3.820603e+00 -3.678101e+00 -3.519580e+00 -3.364097e+00 -3.201480e+00 -3.038160e+00 -2.880426e+00 -2.716098e+00 -2.571994e+00 -2.416532e+00 -2.297226e+00 -2.163875e+00 -2.079440e+00 -1.977821e+00 -1.931173e+00 -1.865692e+00 -1.856116e+00 -1.828780e+00 -1.855172e+00 -1.867091e+00 -1.928640e+00 -1.979874e+00 -2.076065e+00 -2.165690e+00 -2.293853e+00 -2.417157e+00 -2.568943e+00 -2.715263e+00 -2.878090e+00 -3.036121e+00 -3.199694e+00 -3.361403e+00 -3.518036e+00 -3.675253e+00 -3.819100e+00 -3.964952e+00 -4.091690e+00 -4.221344e+00 -4.328205e+00 -4.438915e+00 -4.524607e+00 -4.615310e+00 -4.679710e+00 -4.750434e+00 -4.794142e+00 -4.845417e+00 -4.869308e+00 -4.901720e+00 -4.906577e+00 
-5.001096e+00 -4.986050e+00 -4.982571e+00 -4.948829e+00 -4.926118e+00 -4.873097e+00 -4.830119e+00 -4.756829e+00 -4.692340e+00 -4.597715e+00 -4.510669e+00 -4.394110e+00 -4.284165e+00 -4.146315e+00 -4.014314e+00 -3.857968e+00 -3.706301e+00 -3.537068e+00 -3.369985e+00 -3.196157e+00 -3.020388e+00 -2.852180e+00 -2.677811e+00 -2.528309e+00 -2.367308e+00 -2.244241e+00 -2.101417e+00 -2.008641e+00 -1.891719e+00 -1.833545e+00 -1.754029e+00 -1.737956e+00 -1.706141e+00 -1.736466e+00 -1.755507e+00 -1.829695e+00 -1.894017e+00 -2.004307e+00 -2.104171e+00 -2.241135e+00 -2.368868e+00 -2.525888e+00 -2.677366e+00 -2.850302e+00 -3.018227e+00 -3.194646e+00 -3.366980e+00 -3.535681e+00 -3.703185e+00 -3.856596e+00 -4.011493e+00 -4.144970e+00 -4.281814e+00 -4.392854e+00 -4.508821e+00 -4.596607e+00 -4.690958e+00 -4.755918e+00 -4.829145e+00 -4.872420e+00 -4.925500e+00 -4.948412e+00 -4.982271e+00 -4.985909e+00 
-5.101047e+00 -5.086558e+00 -5.082689e+00 -5.049585e+00 -5.026413e+00 -4.973808e+00 -4.929918e+00 -4.856270e+00 -4.789880e+00 -4.693327e+00 -4.602800e+00 -4.481747e+00 -4.366265e+00 -4.220302e+00 -4.080552e+00 -3.911611e+00 -3.750168e+00 -3.563612e+00 -3.384569e+00 -3.189826e+00 -2.997937e+00 -2.807584e+00 -2.608733e+00 -2.429890e+00 -2.235318e+00 -2.085564e+00 -1.919754e+00 -1.818867e+00 -1.696352e+00 -1.644760e+00 -1.568446e+00 -1.560522e+00 -1.528546e+00 -1.558907e+00 -1.571311e+00 -1.640562e+00 -1.700353e+00 -1.813579e+00 -1.923520e+00 -2.081032e+00 -2.236684e+00 -2.425825e+00 -2.607512e+00 -2.805200e+00 -2.994795e+00 -3.188382e+00 -3.380674e+00 -3.562350e+00 -3.746355e+00 -3.910173e+00 -4.077211e+00 -4.218672e+00 -4.363488e+00 -4.480064e+00 -4.600573e+00 -4.691756e+00 -4.788166e+00 -4.854944e+00 -4.928678e+00 -4.972813e+00 -5.025610e+00 -5.048972e+00 -5.082296e+00 -5.086352e+00 
-5.200218e+00 -5.184278e+00 -5.181946e+00 -5.147468e+00 -5.125813e+00 -5.071616e+00 -5.028840e+00 -4.952876e+00 -4.886596e+00 -4.786280e+00 -4.694100e+00 -4.566950e+00 -4.447209e+00 -4.291988e+00 -4.144488e+00 -3.962917e+00 -3.789292e+00 -3.587642e+00 -3.391448e+00 -3.180274e+00 -2.968148e+00 -2.759046e+00 -2.545177e+00 -2.364068e+00 -2.173476e+00 -2.027376e+00 -1.852502e+00 -1.739165e+00 -1.587769e+00 -1.510211e+00 -1.404610e+00 -1.380790e+00 -1.340341e+00 -1.377992e+00 -1.407425e+00 -1.502788e+00 -1.591461e+00 -1.731536e+00 -1.858355e+00 -2.024196e+00 -2.176741e+00 -2.361482e+00 -2.544416e+00 -2.757263e+00 -2.964375e+00 -3.179059e+00 -3.386769e+00 -3.586407e+00 -3.784948e+00 -3.961506e+00 -4.140890e+00 -4.290503e+00 -4.444441e+00 -4.565528e+00 -4.692074e+00 -4.785018e+00 -4.885169e+00 -4.951835e+00 -5.027880e+00 -5.070843e+00 -5.125223e+00 -5.146991e+00 -5.181665e+00 -5.184117e+00 
-5.319293e+00 -5.304086e+00 -5.301687e+00 -5.268538e+00 -5.247146e+00 -5.194535e+00 -5.151801e+00 -5.076996e+00 -5.009720e+00 -4.909062e+00 -4.813865e+00 -4.683375e+00 -4.557727e+00 -4.394382e+00 -4.237891e+00 -4.041603e+00 -3.856998e+00 -3.632640e+00 -3.424884e+00 -3.184828e+00 -2.957935e+00 -2.727674e+00 -2.483192e+00 -2.252876e+00 -1.995814e+00 -1.797156e+00 -1.585290e+00 -1.467999e+00 -1.321845e+00 -1.270490e+00 -1.184784e+00 -1.183578e+00 -1.146839e+00 -1.180605e+00 -1.190750e+00 -1.263126e+00 -1.329226e+00 -1.459183e+00 -1.593312e+00 -1.791733e+00 -1.998073e+00 -2.246537e+00 -2.480981e+00 -2.725952e+00 -2.952498e+00 -3.184483e+00 -3.418916e+00 -3.632018e+00 -3.851817e+00 -4.040252e+00 -4.233795e+00 -4.392500e+00 -4.554542e+00 -4.681317e+00 -4.811415e+00 -4.907130e+00 -5.007893e+00 -5.075384e+00 -5.150514e+00 -5.193344e+00 -5.246332e+00 -5.267814e+00 -5.301293e+00 -5.303844e+00 
-5.436712e+00 -5.420001e+00 -5.419639e+00 -5.385503e+00 -5.366575e+00 -5.313114e+00 -5.272787e+00 -5.196621e+00 -5.130873e+00 -5.027315e+00 -4.931664e+00 -4.795180e+00 -4.665870e+00 -4.491541e+00 -4.326854e+00 -4.113545e+00 -3.914100e+00 -3.668712e+00 -3.436113e+00 -3.174928e+00 -2.911782e+00 -2.635977e+00 -2.357262e+00 -2.138259e+00 -1.927864e+00 -1.764648e+00 -1.552357e+00 -1.416236e+00 -1.208467e+00 -1.091985e+00 -9.390937e-01 -8.981153e-01 -8.437365e-01 -8.930011e-01 -9.450151e-01 -1.076619e+00 -1.212479e+00 -1.401452e+00 -1.566355e+00 -1.764913e+00 -1.933967e+00 -2.135128e+00 -2.355368e+00 -2.634508e+00 -2.904238e+00 -3.174639e+00 -3.428423e+00 -3.667800e+00 -3.908079e+00 -4.111997e+00 -4.322390e+00 -4.489780e+00 -4.662772e+00 -4.793499e+00 -4.929603e+00 -5.025836e+00 -5.129531e+00 -5.195405e+00 -5.271935e+00 -5.312209e+00 -5.366071e+00 -5.384946e+00 -5.419404e+00 -5.419813e+00 
-5.573667e+00 -5.557903e+00 -5.558042e+00 -5.526259e+00 -5.508860e+00 -5.458833e+00 -5.420335e+00 -5.347952e+00 -5.283130e+00 -5.182349e+00 -5.085035e+00 -4.948147e+00 -4.812719e+00 -4.631982e+00 -4.455863e+00 -4.226871e+00 -4.013747e+00 -3.737957e+00 -3.497051e+00 -3.184661e+00 -2.920414e+00 -2.661477e+00 -2.368234e+00 -2.057918e+00 -1.684158e+00 -1.390424e+00 -1.112383e+00 -9.936740e-01 -8.298815e-01 -7.925921e-01 -7.068094e-01 -7.252424e-01 -6.850636e-01 -7.192724e-01 -7.199298e-01 -7.792122e-01 -8.420159e-01 -9.782734e-01 -1.131804e+00 -1.387338e+00 -1.684984e+00 -2.043659e+00 -2.364586e+00 -2.663674e+00 -2.909861e+00 -3.187226e+00 -3.487448e+00 -3.738456e+00 -4.006803e+00 -4.225403e+00 -4.451167e+00 -4.629488e+00 -4.809300e+00 -4.945414e+00 -5.082475e+00 -5.179862e+00 -5.281271e+00 -5.345949e+00 -5.419067e+00 -5.457398e+00 -5.508081e+00 -5.525405e+00 -5.557674e+00 -5.557620e+00 
-5.708081e+00 -5.690879e+00 -5.693715e+00 -5.661706e+00 -5.648206e+00 -5.598741e+00 -5.564795e+00 -5.493079e+00 -5.432343e+00 -5.331102e+00 -5.235758e+00 -5.094846e+00 -4.957627e+00 -4.765193e+00 -4.582622e+00 -4.330276e+00 -4.103592e+00 -3.797258e+00 -3.526425e+00 -3.213275e+00 -2.887422e+00 -2.478942e+00 -2.049671e+00 -1.790994e+00 -1.635751e+00 -1.492803e+00 -1.237053e+00 -1.081574e+00 -7.666226e-01 -5.522407e-01 -3.044860e-01 -2.237978e-01 -1.425502e-01 -2.163327e-01 -3.212300e-01 -5.184062e-01 -7.596482e-01 -1.047624e+00 -1.277360e+00 -1.512042e+00 -1.642095e+00 -1.782056e+00 -2.045976e+00 -2.478544e+00 -2.870488e+00 -3.216115e+00 -3.513498e+00 -3.796773e+00 -4.095848e+00 -4.328150e+00 -4.577449e+00 -4.762848e+00 -4.954523e+00 -5.092783e+00 -5.233978e+00 -5.329342e+00 -5.431312e+00 -5.491633e+00 -5.564188e+00 -5.597663e+00 -5.647862e+00 -5.661043e+00 -5.693558e+00 -5.690656e+00 
-5.860128e+00 -5.844088e+00 -5.848317e+00 -5.820011e+00 -5.810045e+00 -5.766626e+00 -5.737538e+00 -5.673628e+00 -5.617461e+00 -5.524301e+00 -5.430487e+00 -5.294891e+00 -5.152215e+00 -4.958593e+00 -4.759754e+00 -4.497187e+00 -4.248509e+00 -3.911397e+00 -3.637355e+00 -3.161119e+00 -2.862582e+00 -2.687150e+00 -2.403150e+00 -1.929115e+00 -1.043803e+00 -3.209255e-03 1.359390e+00 2.414485e+00 3.458434e+00 4.266640e+00 4.910534e+00 5.299889e+00 5.411246e+00 5.306126e+00 4.925294e+00 4.306146e+00 3.462027e+00 2.422765e+00 1.286733e+00 3.008220e-02 -1.010329e+00 -1.882789e+00 -2.401890e+00 -2.708895e+00 -2.838830e+00 -3.169753e+00 -3.621751e+00 -3.912941e+00 -4.239958e+00 -4.494586e+00 -4.755358e+00 -4.954644e+00 -5.148962e+00 -5.290985e+00 -5.427970e+00 -5.521022e+00 -5.615677e+00 -5.671144e+00 -5.736385e+00 -5.764926e+00 -5.809375e+00 -5.819031e+00 -5.848013e+00 -5.843769e+00 
-6.008775e+00 -5.991565e+00 -5.999270e+00 -5.971941e+00 -5.967883e+00 -5.927162e+00 -5.905939e+00 -5.846001e+00 -5.798155e+00 -5.709401e+00 -5.621593e+00 -5.488153e+00 -5.346845e+00 -5.146009e+00 -4.947003e+00 -4.653140e+00 -4.403951e+00 -3.991348e+00 -3.693032e+00 -3.418677e+00 -3.030849e+00 -1.848167e+00 5.355353e-01 2.930817e+00 5.544240e+00 7.413952e+00 8.925620e+00 9.934742e+00 1.048661e+01 1.081498e+01 1.092139e+01 1.105101e+01 1.099673e+01 1.104636e+01 1.094391e+01 1.080607e+01 1.046850e+01 9.901598e+00 8.937187e+00 7.558814e+00 5.581120e+00 3.009502e+00 5.335778e-01 -1.830402e+00 -2.985042e+00 -3.430483e+00 -3.673107e+00 -3.989533e+00 -4.396890e+00 -4.648867e+00 -4.941606e+00 -5.142470e+00 -5.344457e+00 -5.485655e+00 -5.620662e+00 -5.707342e+00 -5.797752e+00 -5.844266e+00 -5.905729e+00 -5.925854e+00 -5.967766e+00 -5.971139e+00 -5.999216e+00 -5.991296e+00 
-6.170919e+00 -6.155049e+00 -6.165363e+00 -6.143296e+00 -6.145620e+00 -6.114185e+00 -6.102508e+00 -6.055928e+00 -6.019039e+00 -5.946672e+00 -5.867512e+00 -5.749260e+00 -5.608145e+00 -5.416887e+00 -5.195256e+00 -4.910748e+00 -4.604877e+00 -4.265880e+00 -3.845066e+00 -1.881697e+00 1.716921e+00 5.222445e+00 8.478428e+00 1.043942e+01 1.153438e+01 1.179856e+01 1.174554e+01 1.168858e+01 1.150388e+01 1.136910e+01 1.120046e+01 1.117049e+01 1.109683e+01 1.116494e+01 1.120502e+01 1.135225e+01 1.149450e+01 1.167192e+01 1.178539e+01 1.186130e+01 1.149298e+01 1.047254e+01 8.479658e+00 5.282483e+00 1.796571e+00 -1.842222e+00 -3.817288e+00 -4.265644e+00 -4.597406e+00 -4.904025e+00 -5.194153e+00 -5.409846e+00 -5.605413e+00 -5.743525e+00 -5.865025e+00 -5.942421e+00 -6.017426e+00 -6.052970e+00 -6.101612e+00 -6.112280e+00 -6.145172e+00 -6.142241e+00 -6.165181e+00 -6.154712e+00 
-6.328896e+00 -6.312479e+00 -6.326978e+00 -6.307534e+00 -6.318286e+00 -6.292180e+00 -6.293224e+00 -6.254792e+00 -6.233192e+00 -6.172763e+00 -6.106103e+00 -6.004570e+00 -5.867628e+00 -5.693083e+00 -5.478451e+00 -5.168597e+00 -4.855186e+00 -3.163869e+00 8.432348e-01 5.746688e+00 1.006748e+01 1.202165e+01 1.252450e+01 1.241712e+01 1.211959e+01 1.181943e+01 1.162630e+01 1.153026e+01 1.145905e+01 1.145066e+01 1.141235e+01 1.144795e+01 1.141056e+01 1.144582e+01 1.141594e+01 1.144512e+01 1.145551e+01 1.153019e+01 1.162784e+01 1.182773e+01 1.208768e+01 1.244093e+01 1.251484e+01 1.204575e+01 1.012082e+01 5.809154e+00 9.241176e-01 -3.122099e+00 -4.851825e+00 -5.158860e+00 -5.471717e+00 -5.687751e+00 -5.867491e+00 -6.002100e+00 -6.106900e+00 -6.170481e+00 -6.233737e+00 -6.252656e+00 -6.293506e+00 -6.290556e+00 -6.318421e+00 -6.306561e+00 -6.327033e+00 -6.312159e+00 
-6.493309e+00 -6.478375e+00 -6.496812e+00 -6.484088e+00 -6.504701e+00 -6.491110e+00 -6.508164e+00 -6.489654e+00 -6.488921e+00 -6.457278e+00 -6.412673e+00 -6.343248e+00 -6.230722e+00 -6.075006e+00 -5.832946e+00 -5.258084e+00 -2.204013e+00 3.969756e+00 9.785084e+00 1.247524e+01 1.314892e+01 1.286967e+01 1.249649e+01 1.225969e+01 1.219273e+01 1.212588e+01 1.204340e+01 1.197502e+01 1.186043e+01 1.179208e+01 1.169237e+01 1.167548e+01 1.162936e+01 1.167339e+01 1.169315e+01 1.178763e+01 1.185967e+01 1.197620e+01 1.204860e+01 1.214444e+01 1.217548e+01 1.227231e+01 1.247302e+01 1.287457e+01 1.313922e+01 1.248585e+01 9.860533e+00 4.027674e+00 -2.131556e+00 -5.218249e+00 -5.842546e+00 -6.062702e+00 -6.226528e+00 -6.335312e+00 -6.409554e+00 -6.452215e+00 -6.487633e+00 -6.486458e+00 -6.507788e+00 -6.489197e+00 -6.504652e+00 -6.483085e+00 -6.496833e+00 -6.478064e+00 
-6.653021e+00 -6.638846e+00 -6.661581e+00 -6.653585e+00 -6.685111e+00 -6.679387e+00 -6.715731e+00 -6.708476e+00 -6.735010e+00 -6.721746e+00 -6.702318e+00 -6.673053e+00 -6.560437e+00 -6.478984e+00 -5.630946e+00 -1.539887e+00 6.170020e+00 1.198936e+01 1.369808e+01 1.348163e+01 1.312516e+01 1.293907e+01 1.280874e+01 1.264432e+01 1.245714e+01 1.227597e+01 1.212353e+01 1.201768e+01 1.192524e+01 1.188462e+01 1.183117e+01 1.183466e+01 1.180554e+01 1.183402e+01 1.183108e+01 1.188357e+01 1.192254e+01 1.201940e+01 1.211867e+01 1.228129e+01 1.244346e+01 1.265438e+01 1.279805e+01 1.294448e+01 1.311214e+01 1.347660e+01 1.371247e+01 1.200984e+01 6.335517e+00 -1.373944e+00 -5.602307e+00 -6.471377e+00 -6.567949e+00 -6.672956e+00 -6.705795e+00 -6.719125e+00 -6.736462e+00 -6.705557e+00 -6.716381e+00 -6.677306e+00 -6.685431e+00 -6.652436e+00 -6.661719e+00 -6.638485e+00 
-6.808804e+00 -6.796381e+00 -6.823876e+00 -6.823472e+00 -6.868123e+00 -6.876496e+00 -6.936496e+00 -6.953837e+00 -7.013720e+00 -7.046407e+00 -7.061455e+00 -7.104155e+00 -7.094536e+00 -6.490477e+00 -1.633980e+00 7.367160e+00 1.322410e+01 1.413397e+01 1.385644e+01 1.354608e+01 1.341660e+01 1.315893e+01 1.295172e+01 1.274868e+01 1.261557e+01 1.249310e+01 1.238633e+01 1.230158e+01 1.220604e+01 1.215056e+01 1.207889e+01 1.206480e+01 1.203292e+01 1.206433e+01 1.207862e+01 1.215021e+01 1.220490e+01 1.230440e+01 1.238430e+01 1.250087e+01 1.260626e+01 1.275531e+01 1.293970e+01 1.316147e+01 1.340810e+01 1.354356e+01 1.385102e+01 1.413979e+01 1.330088e+01 7.516495e+00 -1.547179e+00 -6.467571e+00 -7.072637e+00 -7.095286e+00 -7.056935e+00 -7.041516e+00 -7.013680e+00 -6.950984e+00 -6.937224e+00 -6.874943e+00 -6.868733e+00 -6.822733e+00 -6.824191e+00 -6.796167e+00 
-6.959924e+00 -6.950802e+00 -6.981069e+00 -6.988278e+00 -7.044559e+00 -7.062982e+00 -7.149013e+00 -7.176232e+00 -7.283873e+00 -7.326586e+00 -7.404741e+00 -7.507436e+00 -7.356888e+00 -3.271233e+00 6.671553e+00 1.370811e+01 1.456507e+01 1.421240e+01 1.406147e+01 1.376121e+01 1.353543e+01 1.330881e+01 1.313209e+01 1.294830e+01 1.278351e+01 1.262862e+01 1.249359e+01 1.238857e+01 1.229449e+01 1.224035e+01 1.218369e+01 1.217252e+01 1.214867e+01 1.217244e+01 1.218263e+01 1.224055e+01 1.229162e+01 1.239012e+01 1.248862e+01 1.263188e+01 1.277550e+01 1.295285e+01 1.312434e+01 1.331186e+01 1.352891e+01 1.376249e+01 1.406138e+01 1.421859e+01 1.456804e+01 1.373706e+01 6.835493e+00 -3.116910e+00 -7.341804e+00 -7.518082e+00 -7.407158e+00 -7.320777e+00 -7.284828e+00 -7.171352e+00 -7.149572e+00 -7.060354e+00 -7.044922e+00 -6.987098e+00 -6.981251e+00 -6.950473e+00 
-7.093838e+00 -7.087438e+00 -7.121537e+00 -7.136484e+00 -7.206981e+00 -7.236846e+00 -7.354585e+00 -7.398280e+00 -7.557098e+00 -7.655623e+00 -7.712570e+00 -8.223701e+00 -5.766993e+00 4.152961e+00 1.345271e+01 1.504246e+01 1.471382e+01 1.446318e+01 1.417511e+01 1.391042e+01 1.370071e+01 1.346647e+01 1.327697e+01 1.308746e+01 1.293882e+01 1.280228e+01 1.268549e+01 1.259168e+01 1.250118e+01 1.244536e+01 1.238478e+01 1.236880e+01 1.234446e+01 1.236888e+01 1.238410e+01 1.244605e+01 1.249953e+01 1.259392e+01 1.268242e+01 1.280618e+01 1.293292e+01 1.309088e+01 1.326982e+01 1.346779e+01 1.369465e+01 1.390914e+01 1.417089e+01 1.446017e+01 1.471311e+01 1.503007e+01 1.357306e+01 4.316816e+00 -5.738167e+00 -8.224460e+00 -7.720318e+00 -7.653344e+00 -7.562060e+00 -7.396479e+00 -7.357316e+00 -7.236132e+00 -7.208428e+00 -7.136306e+00 -7.122167e+00 -7.087418e+00 
-7.224436e+00 -7.225626e+00 -7.258003e+00 -7.285268e+00 -7.362502e+00 -7.406821e+00 -7.549334e+00 -7.598505e+00 -7.828048e+00 -7.884980e+00 -8.140253e+00 -8.277708e+00 -6.291660e-01 1.128793e+01 1.554950e+01 1.507553e+01 1.490245e+01 1.453277e+01 1.432546e+01 1.403338e+01 1.382071e+01 1.358653e+01 1.340104e+01 1.321192e+01 1.305218e+01 1.290269e+01 1.277418e+01 1.266889e+01 1.257643e+01 1.251613e+01 1.246019e+01 1.244186e+01 1.242180e+01 1.244194e+01 1.245893e+01 1.251651e+01 1.257371e+01 1.266990e+01 1.276990e+01 1.290436e+01 1.304645e+01 1.321375e+01 1.339509e+01 1.358752e+01 1.381554e+01 1.403348e+01 1.432244e+01 1.453380e+01 1.490141e+01 1.507882e+01 1.556671e+01 1.138895e+01 -4.291442e-01 -8.167457e+00 -8.140225e+00 -7.858367e+00 -7.827814e+00 -7.590420e+00 -7.549698e+00 -7.404477e+00 -7.362908e+00 -7.284669e+00 -7.258234e+00 -7.225522e+00 
-7.323267e+00 -7.329855e+00 -7.361541e+00 -7.398011e+00 -7.483347e+00 -7.534658e+00 -7.714213e+00 -7.732608e+00 -8.122715e+00 -7.932526e+00 -8.931987e+00 -6.447582e+00 6.291993e+00 1.552881e+01 1.576813e+01 1.533504e+01 1.501461e+01 1.471170e+01 1.442711e+01 1.416551e+01 1.393448e+01 1.370920e+01 1.351650e+01 1.333211e+01 1.317688e+01 1.303659e+01 1.291539e+01 1.281708e+01 1.272785e+01 1.266958e+01 1.261355e+01 1.259493e+01 1.257476e+01 1.259515e+01 1.261276e+01 1.267037e+01 1.272616e+01 1.281866e+01 1.291260e+01 1.303875e+01 1.317282e+01 1.333390e+01 1.351186e+01 1.370978e+01 1.393009e+01 1.416453e+01 1.442247e+01 1.470936e+01 1.500546e+01 1.533119e+01 1.573397e+01 1.552572e+01 6.515477e+00 -6.279858e+00 -8.963083e+00 -7.920676e+00 -8.131868e+00 -7.730932e+00 -7.718061e+00 -7.535349e+00 -7.485167e+00 -7.398787e+00 -7.362300e+00 -7.330150e+00 
-7.422678e+00 -7.442015e+00 -7.464724e+00 -7.520906e+00 -7.598267e+00 -7.679240e+00 -7.853363e+00 -7.903299e+00 -8.318953e+00 -8.087748e+00 -9.307220e+00 -3.037173e+00 1.125995e+01 1.653068e+01 1.560629e+01 1.551292e+01 1.507436e+01 1.481279e+01 1.452142e+01 1.425690e+01 1.402331e+01 1.379319e+01 1.359903e+01 1.340933e+01 1.324870e+01 1.309994e+01 1.297316e+01 1.286691e+01 1.277577e+01 1.271230e+01 1.265773e+01 1.263568e+01 1.261821e+01 1.263576e+01 1.265650e+01 1.271256e+01 1.277327e+01 1.286738e+01 1.296946e+01 1.310046e+01 1.324402e+01 1.340941e+01 1.359389e+01 1.379213e+01 1.401805e+01 1.425406e+01 1.451566e+01 1.480755e+01 1.506510e+01 1.550353e+01 1.558307e+01 1.651051e+01 1.152019e+01 -2.755599e+00 -9.314379e+00 -8.092411e+00 -8.320712e+00 -7.905858e+00 -7.854354e+00 -7.681215e+00 -7.598913e+00 -7.522139e+00 -7.465049e+00 -7.442430e+00 
-7.477602e+00 -7.506094e+00 -7.519857e+00 -7.592914e+00 -7.651854e+00 -7.771321e+00 -7.891668e+00 -8.041753e+00 -8.279649e+00 -8.356032e+00 -8.870594e+00 1.544751e+00 1.498194e+01 1.655412e+01 1.573632e+01 1.558571e+01 1.515914e+01 1.489547e+01 1.459259e+01 1.433711e+01 1.409685e+01 1.387420e+01 1.367739e+01 1.349402e+01 1.333515e+01 1.319324e+01 1.306981e+01 1.296917e+01 1.288017e+01 1.281995e+01 1.276587e+01 1.274527e+01 1.272740e+01 1.274549e+01 1.276510e+01 1.282062e+01 1.287862e+01 1.297028e+01 1.306749e+01 1.319455e+01 1.333223e+01 1.349500e+01 1.367440e+01 1.387435e+01 1.409453e+01 1.433624e+01 1.459178e+01 1.489414e+01 1.516206e+01 1.558712e+01 1.575438e+01 1.657527e+01 1.518775e+01 1.826270e+00 -8.859350e+00 -8.375586e+00 -8.282681e+00 -8.050139e+00 -7.893584e+00 -7.775728e+00 -7.653011e+00 -7.595191e+00 -7.520414e+00 -7.506806e+00 
-7.540187e+00 -7.582875e+00 -7.583311e+00 -7.680686e+00 -7.715134e+00 -7.888342e+00 -7.940909e+00 -8.232986e+00 -8.254757e+00 -8.770167e+00 -8.328982e+00 4.918583e+00 1.678647e+01 1.646399e+01 1.599846e+01 1.564365e+01 1.527919e+01 1.496133e+01 1.467080e+01 1.439403e+01 1.415471e+01 1.392078e+01 1.372226e+01 1.353076e+01 1.336859e+01 1.321912e+01 1.309248e+01 1.298529e+01 1.289481e+01 1.282972e+01 1.277614e+01 1.275223e+01 1.273627e+01 1.275227e+01 1.277496e+01 1.282983e+01 1.289248e+01 1.298537e+01 1.308913e+01 1.321892e+01 1.336442e+01 1.352978e+01 1.371758e+01 1.391826e+01 1.414973e+01 1.438892e+01 1.466550e+01 1.495199e+01 1.527339e+01 1.562690e+01 1.599361e+01 1.643247e+01 1.680392e+01 5.131775e+00 -8.268617e+00 -8.797203e+00 -8.254624e+00 -8.245671e+00 -7.941785e+00 -7.894717e+00 -7.715849e+00 -7.683775e+00 -7.583685e+00 -7.583806e+00 
-7.552300e+00 -7.600307e+00 -7.593665e+00 -7.701802e+00 -7.717269e+00 -7.920921e+00 -7.915435e+00 -8.298690e+00 -8.143635e+00 -8.931638e+00 -7.534292e+00 7.028703e+00 1.715750e+01 1.613390e+01 1.607070e+01 1.555994e+01 1.530753e+01 1.495702e+01 1.469455e+01 1.441704e+01 1.418427e+01 1.395613e+01 1.375962e+01 1.357469e+01 1.341464e+01 1.327160e+01 1.314729e+01 1.304552e+01 1.295656e+01 1.289532e+01 1.284202e+01 1.282042e+01 1.280358e+01 1.282062e+01 1.284128e+01 1.289591e+01 1.295513e+01 1.304640e+01 1.314526e+01 1.327254e+01 1.341230e+01 1.357530e+01 1.375750e+01 1.395597e+01 1.418315e+01 1.441569e+01 1.469549e+01 1.495390e+01 1.531228e+01 1.555336e+01 1.608125e+01 1.611603e+01 1.716403e+01 7.287562e+00 -7.420329e+00 -8.949947e+00 -8.139008e+00 -8.309696e+00 -7.914585e+00 -7.927090e+00 -7.717464e+00 -7.704950e+00 -7.593925e+00 -7.601276e+00 
-7.578131e+00 -7.632074e+00 -7.620231e+00 -7.737990e+00 -7.745105e+00 -7.967721e+00 -7.939916e+00 -8.365971e+00 -8.142353e+00 -9.030051e+00 -7.176887e+00 8.032749e+00 1.756826e+01 1.626414e+01 1.624276e+01 1.563916e+01 1.538335e+01 1.499989e+01 1.473182e+01 1.443825e+01 1.420204e+01 1.396356e+01 1.376458e+01 1.357163e+01 1.340900e+01 1.325899e+01 1.313231e+01 1.302471e+01 1.293443e+01 1.286884e+01 1.281559e+01 1.279111e+01 1.277565e+01 1.279114e+01 1.281444e+01 1.286888e+01 1.293217e+01 1.302465e+01 1.312907e+01 1.325854e+01 1.340499e+01 1.357029e+01 1.376008e+01 1.396054e+01 1.419730e+01 1.443242e+01 1.472717e+01 1.498968e+01 1.537997e+01 1.562282e+01 1.624560e+01 1.624239e+01 1.759334e+01 8.302920e+00 -7.072373e+00 -9.054275e+00 -8.146499e+00 -8.380287e+00 -7.941554e+00 -7.975425e+00 -7.745975e+00 -7.741753e+00 -7.620643e+00 -7.633203e+00 