# vtk DataFile Version 2.0
Comment goes here
ASCII

DATASET STRUCTURED_POINTS
FIELD FieldData 1
TIME 1 1 double
0.02000000
DIMENSIONS    64   64   1

ORIGIN    0.000   0.000   0.000
SPACING   0.015625 0.015625   1.000

POINT_DATA   4096
SCALARS P double
LOOKUP_TABLE default

-4.502873e+00 -4.509403e+00 -4.535758e+00 -4.575835e+00 -4.635665e+00 -4.710882e+00 -4.805939e+00 -4.918959e+00 -5.052092e+00 -5.206571e+00 -5.381634e+00 -5.582032e+00 -5.803613e+00 -6.054772e+00 -6.327588e+00 -6.633835e+00 -6.961483e+00 -7.324881e+00 -7.707527e+00 -8.124723e+00 -8.555227e+00 -9.012542e+00 -9.471097e+00 -9.938758e+00 -1.038822e+01 -1.081856e+01 -1.120694e+01 -1.154618e+01 -1.182274e+01 -1.203550e+01 -1.216592e+01 -1.223461e+01 -1.225630e+01 -1.223417e+01 -1.216841e+01 -1.203192e+01 -1.182721e+01 -1.154065e+01 -1.121194e+01 -1.081295e+01 -1.039266e+01 -9.933977e+00 -9.474682e+00 -9.008823e+00 -8.558053e+00 -8.121985e+00 -7.709753e+00 -7.322928e+00 -6.963245e+00 -6.632465e+00 -6.328979e+00 -6.053815e+00 -5.804703e+00 -5.581363e+00 -5.382472e+00 -5.206104e+00 -5.052718e+00 -4.918638e+00 -4.806383e+00 -4.710673e+00 -4.635950e+00 -4.575716e+00 -4.535897e+00 -4.509365e+00 
-4.508863e+00 -4.514824e+00 -4.541847e+00 -4.581449e+00 -4.641999e+00 -4.716864e+00 -4.812672e+00 -4.925497e+00 -5.059390e+00 -5.213871e+00 -5.389670e+00 -5.590306e+00 -5.812536e+00 -6.064191e+00 -6.337433e+00 -6.644402e+00 -6.971937e+00 -7.336102e+00 -7.717332e+00 -8.134788e+00 -8.560778e+00 -9.016400e+00 -9.463454e+00 -9.924025e+00 -1.034795e+01 -1.075868e+01 -1.109973e+01 -1.139650e+01 -1.161254e+01 -1.176166e+01 -1.188496e+01 -1.193606e+01 -1.197501e+01 -1.193632e+01 -1.188764e+01 -1.175929e+01 -1.161739e+01 -1.139220e+01 -1.110517e+01 -1.075419e+01 -1.035297e+01 -9.920146e+00 -9.467582e+00 -9.013269e+00 -8.563935e+00 -8.132309e+00 -7.719642e+00 -7.334143e+00 -6.973588e+00 -6.642856e+00 -6.338599e+00 -6.062977e+00 -5.813357e+00 -5.589364e+00 -5.390247e+00 -5.213156e+00 -5.059792e+00 -4.924973e+00 -4.812942e+00 -4.716507e+00 -4.642167e+00 -4.581242e+00 -4.541927e+00 -4.514756e+00 
-4.471668e+00 -4.477971e+00 -4.504056e+00 -4.543416e+00 -4.602483e+00 -4.676517e+00 -4.770338e+00 -4.881763e+00 -5.013251e+00 -5.165833e+00 -5.338988e+00 -5.537404e+00 -5.757116e+00 -6.006634e+00 -6.278189e+00 -6.583920e+00 -6.911923e+00 -7.277272e+00 -7.663506e+00 -8.087186e+00 -8.526765e+00 -8.997642e+00 -9.473109e+00 -9.963078e+00 -1.043812e+01 -1.089745e+01 -1.131753e+01 -1.168622e+01 -1.199625e+01 -1.223628e+01 -1.236619e+01 -1.242098e+01 -1.243692e+01 -1.242178e+01 -1.236886e+01 -1.223213e+01 -1.200143e+01 -1.167974e+01 -1.132308e+01 -1.089140e+01 -1.044269e+01 -9.958182e+00 -9.476649e+00 -8.993965e+00 -8.529509e+00 -8.084545e+00 -7.665665e+00 -7.275422e+00 -6.913636e+00 -6.582634e+00 -6.279546e+00 -6.005739e+00 -5.758180e+00 -5.536778e+00 -5.339806e+00 -5.165393e+00 -5.013863e+00 -4.881460e+00 -4.770771e+00 -4.676318e+00 -4.602760e+00 -4.543303e+00 -4.504191e+00 -4.477935e+00 
-4.446281e+00 -4.451764e+00 -4.478268e+00 -4.516408e+00 -4.575450e+00 -4.647917e+00 -4.741276e+00 -4.850875e+00 -4.981513e+00 -5.132164e+00 -5.304215e+00 -5.500873e+00 -5.719511e+00 -5.967935e+00 -6.239001e+00 -6.545156e+00 -6.874226e+00 -7.242930e+00 -7.633265e+00 -8.065316e+00 -8.513639e+00 -9.000212e+00 -9.488723e+00 -1.000174e+01 -1.048548e+01 -1.096524e+01 -1.136160e+01 -1.171483e+01 -1.193183e+01 -1.207074e+01 -1.222267e+01 -1.229283e+01 -1.234595e+01 -1.229653e+01 -1.222567e+01 -1.206769e+01 -1.193825e+01 -1.170881e+01 -1.136806e+01 -1.095994e+01 -1.049097e+01 -9.997733e+00 -9.492925e+00 -8.997183e+00 -8.516670e+00 -8.062969e+00 -7.635389e+00 -7.241080e+00 -6.875700e+00 -6.543690e+00 -6.240027e+00 -5.966781e+00 -5.720232e+00 -5.499976e+00 -5.304724e+00 -5.131483e+00 -4.981870e+00 -4.850376e+00 -4.741518e+00 -4.647578e+00 -4.575601e+00 -4.516211e+00 -4.478341e+00 -4.451700e+00 
-4.378930e+00 -4.384542e+00 -4.409818e+00 -4.447004e+00 -4.503761e+00 -4.574202e+00 -4.664258e+00 -4.770803e+00 -4.897224e+00 -5.043916e+00 -5.211077e+00 -5.403169e+00 -5.616765e+00 -5.860671e+00 -6.127571e+00 -6.430594e+00 -6.758310e+00 -7.127821e+00 -7.523079e+00 -7.964356e+00 -8.429735e+00 -8.940818e+00 -9.467697e+00 -1.002848e+01 -1.058507e+01 -1.114051e+01 -1.166395e+01 -1.212980e+01 -1.258246e+01 -1.294709e+01 -1.305145e+01 -1.300759e+01 -1.298506e+01 -1.301698e+01 -1.305409e+01 -1.293967e+01 -1.259057e+01 -1.211962e+01 -1.167134e+01 -1.113330e+01 -1.058984e+01 -1.002342e+01 -9.470946e+00 -8.937368e+00 -8.432185e+00 -7.962062e+00 -7.525032e+00 -7.126299e+00 -6.759885e+00 -6.429568e+00 -6.128830e+00 -5.859961e+00 -5.617755e+00 -5.402666e+00 -5.211838e+00 -5.043556e+00 -4.897791e+00 -4.770549e+00 -4.664659e+00 -4.574032e+00 -4.504017e+00 -4.446906e+00 -4.409943e+00 -4.384510e+00 
-4.322882e+00 -4.327390e+00 -4.352854e+00 -4.388023e+00 -4.444009e+00 -4.511584e+00 -4.599924e+00 -4.702868e+00 -4.826716e+00 -4.969292e+00 -5.133260e+00 -5.321155e+00 -5.531478e+00 -5.771949e+00 -6.036630e+00 -6.338593e+00 -6.667400e+00 -7.041227e+00 -7.445149e+00 -7.901499e+00 -8.390502e+00 -8.936382e+00 -9.512019e+00 -1.013944e+01 -1.077225e+01 -1.142765e+01 -1.199585e+01 -1.252310e+01 -1.267042e+01 -1.270870e+01 -1.296152e+01 -1.313529e+01 -1.324772e+01 -1.315781e+01 -1.296355e+01 -1.270117e+01 -1.268199e+01 -1.251157e+01 -1.200428e+01 -1.142106e+01 -1.077847e+01 -1.013561e+01 -9.516177e+00 -8.933760e+00 -8.393144e+00 -7.899472e+00 -7.446826e+00 -7.039597e+00 -6.668495e+00 -6.337282e+00 -6.037375e+00 -5.770909e+00 -5.532004e+00 -5.320346e+00 -5.133640e+00 -4.968678e+00 -4.826990e+00 -4.702419e+00 -4.600116e+00 -4.511278e+00 -4.444131e+00 -4.387846e+00 -4.352914e+00 -4.327332e+00 
-4.227328e+00 -4.231752e+00 -4.255689e+00 -4.289185e+00 -4.342052e+00 -4.406372e+00 -4.490001e+00 -4.588133e+00 -4.705731e+00 -4.842026e+00 -4.998390e+00 -5.178791e+00 -5.380623e+00 -5.613012e+00 -5.869333e+00 -6.164039e+00 -6.486672e+00 -6.857116e+00 -7.260989e+00 -7.724076e+00 -8.226356e+00 -8.800716e+00 -9.415109e+00 -1.010864e+01 -1.082093e+01 -1.157415e+01 -1.226463e+01 -1.289079e+01 -1.383560e+01 -1.468848e+01 -1.458983e+01 -1.402699e+01 -1.381358e+01 -1.408635e+01 -1.458872e+01 -1.466243e+01 -1.385285e+01 -1.287127e+01 -1.227573e+01 -1.156669e+01 -1.082477e+01 -1.010398e+01 -9.417339e+00 -8.797958e+00 -8.228206e+00 -7.722513e+00 -7.262616e+00 -6.856201e+00 -6.488048e+00 -6.163452e+00 -5.870449e+00 -5.612596e+00 -5.381499e+00 -5.178477e+00 -4.999059e+00 -4.841783e+00 -4.706225e+00 -4.587949e+00 -4.490349e+00 -4.406243e+00 -4.342273e+00 -4.289108e+00 -4.255796e+00 -4.231726e+00 
-4.142267e+00 -4.145266e+00 -4.169180e+00 -4.199801e+00 -4.251142e+00 -4.311190e+00 -4.391778e+00 -4.484331e+00 -4.597423e+00 -4.727024e+00 -4.877621e+00 -5.050629e+00 -5.245973e+00 -5.471154e+00 -5.721533e+00 -6.011082e+00 -6.331140e+00 -6.702336e+00 -7.113291e+00 -7.591036e+00 -8.124335e+00 -8.744440e+00 -9.446504e+00 -1.025577e+01 -1.117803e+01 -1.219228e+01 -1.333933e+01 -1.439631e+01 -1.324999e+01 -9.555526e+00 -5.025581e+00 -1.259669e+00 1.057504e-01 -1.320703e+00 -5.020987e+00 -9.528718e+00 -1.325763e+01 -1.436946e+01 -1.334832e+01 -1.218663e+01 -1.118485e+01 -1.025372e+01 -9.450061e+00 -8.742843e+00 -8.126035e+00 -7.589531e+00 -7.114136e+00 -6.701003e+00 -6.331624e+00 -6.009973e+00 -5.721865e+00 -5.470270e+00 -5.246232e+00 -5.049942e+00 -4.877832e+00 -4.726506e+00 -4.597592e+00 -4.483954e+00 -4.391906e+00 -4.310934e+00 -4.251228e+00 -4.199653e+00 -4.169223e+00 -4.145217e+00 
-4.021402e+00 -4.024095e+00 -4.046200e+00 -4.074428e+00 -4.121823e+00 -4.177372e+00 -4.251803e+00 -4.337714e+00 -4.442369e+00 -4.563156e+00 -4.703031e+00 -4.865082e+00 -5.047605e+00 -5.259921e+00 -5.495991e+00 -5.771548e+00 -6.077348e+00 -6.435721e+00 -6.836026e+00 -7.308737e+00 -7.843100e+00 -8.485059e+00 -9.217392e+00 -1.011730e+01 -1.110110e+01 -1.220238e+01 -1.219042e+01 -8.007901e+00 6.514603e-01 9.620173e+00 1.575803e+01 1.899032e+01 1.994665e+01 1.899152e+01 1.575725e+01 9.617102e+00 6.468941e-01 -8.001405e+00 -1.220261e+01 -1.220539e+01 -1.109846e+01 -1.011396e+01 -9.217369e+00 -8.483704e+00 -7.844193e+00 -7.308453e+00 -6.837352e+00 -6.435732e+00 -6.078535e+00 -5.771558e+00 -5.496942e+00 -5.259871e+00 -5.048333e+00 -4.864985e+00 -4.703574e+00 -4.563041e+00 -4.442764e+00 -4.337606e+00 -4.252077e+00 -4.177285e+00 -4.121996e+00 -4.074373e+00 -4.046284e+00 -4.024076e+00 
-3.909979e+00 -3.910881e+00 -3.932788e+00 -3.957234e+00 -4.002366e+00 -4.052155e+00 -4.122183e+00 -4.200367e+00 -4.298410e+00 -4.409552e+00 -4.540609e+00 -4.691274e+00 -4.862972e+00 -5.062657e+00 -5.286556e+00 -5.549491e+00 -5.843505e+00 -6.192259e+00 -6.585602e+00 -7.058372e+00 -7.602595e+00 -8.266725e+00 -9.051444e+00 -9.977978e+00 -1.098057e+01 -1.069699e+01 -4.787504e+00 6.200548e+00 1.472198e+01 1.829358e+01 1.938210e+01 1.958887e+01 1.965190e+01 1.961093e+01 1.937235e+01 1.829787e+01 1.472042e+01 6.196101e+00 -4.784488e+00 -1.072558e+01 -1.099162e+01 -9.980928e+00 -9.052992e+00 -8.266520e+00 -7.602341e+00 -7.057305e+00 -6.585118e+00 -6.191169e+00 -5.843169e+00 -5.548586e+00 -5.286396e+00 -5.061952e+00 -4.862937e+00 -4.690740e+00 -4.540644e+00 -4.409156e+00 -4.298474e+00 -4.200082e+00 -4.122250e+00 -4.051963e+00 -4.002418e+00 -3.957123e+00 -3.932816e+00 -3.910845e+00 
-3.767659e+00 -3.768020e+00 -3.787890e+00 -3.809240e+00 -3.849682e+00 -3.893772e+00 -3.956281e+00 -4.026044e+00 -4.113493e+00 -4.213293e+00 -4.330385e+00 -4.466488e+00 -4.620549e+00 -4.802003e+00 -5.004400e+00 -5.244770e+00 -5.513596e+00 -5.834543e+00 -6.200291e+00 -6.639430e+00 -7.156926e+00 -7.783766e+00 -8.519378e+00 -9.387385e+00 -9.434374e+00 -3.643619e+00 7.651281e+00 1.508857e+01 1.678034e+01 1.708992e+01 1.733626e+01 1.761419e+01 1.771313e+01 1.762060e+01 1.732933e+01 1.710111e+01 1.678768e+01 1.508901e+01 7.684704e+00 -3.629217e+00 -9.432112e+00 -9.380837e+00 -8.518545e+00 -7.784712e+00 -7.158144e+00 -6.641201e+00 -6.201690e+00 -5.835773e+00 -5.514688e+00 -5.245437e+00 -5.005176e+00 -4.802301e+00 -4.621092e+00 -4.466580e+00 -4.330766e+00 -4.213283e+00 -4.113759e+00 -4.025995e+00 -3.956462e+00 -3.893720e+00 -3.849795e+00 -3.809203e+00 -3.787945e+00 -3.768007e+00 
-3.633567e+00 -3.631737e+00 -3.651294e+00 -3.667945e+00 -3.705470e+00 -3.742308e+00 -3.799131e+00 -3.858983e+00 -3.937736e+00 -4.024801e+00 -4.129878e+00 -4.250190e+00 -4.388549e+00 -4.550875e+00 -4.733427e+00 -4.951153e+00 -5.195212e+00 -5.490572e+00 -5.824733e+00 -6.238053e+00 -6.711369e+00 -7.305279e+00 -7.942026e+00 -8.480273e+00 -4.346670e+00 6.251997e+00 1.360518e+01 1.498221e+01 1.570951e+01 1.636224e+01 1.686594e+01 1.710048e+01 1.719650e+01 1.710543e+01 1.686283e+01 1.636298e+01 1.570759e+01 1.497231e+01 1.360130e+01 6.262712e+00 -4.338314e+00 -8.480843e+00 -7.936608e+00 -7.304123e+00 -6.707563e+00 -6.236576e+00 -5.822539e+00 -5.489514e+00 -5.194028e+00 -4.950435e+00 -4.732827e+00 -4.550380e+00 -4.388275e+00 -4.249842e+00 -4.129778e+00 -4.024553e+00 -3.937723e+00 -3.858808e+00 -3.799151e+00 -3.742191e+00 -3.705496e+00 -3.667877e+00 -3.651310e+00 -3.631715e+00 
-3.474592e+00 -3.471962e+00 -3.489356e+00 -3.502260e+00 -3.534527e+00 -3.564593e+00 -3.612787e+00 -3.662650e+00 -3.728970e+00 -3.802496e+00 -3.890708e+00 -3.993367e+00 -4.109562e+00 -4.249108e+00 -4.402992e+00 -4.590823e+00 -4.797946e+00 -5.051759e+00 -5.338483e+00 -5.683622e+00 -6.101010e+00 -6.511862e+00 -7.147966e+00 -5.453088e+00 3.408904e+00 1.177113e+01 1.360439e+01 1.432191e+01 1.492164e+01 1.530296e+01 1.558732e+01 1.577078e+01 1.583103e+01 1.577233e+01 1.558431e+01 1.530419e+01 1.491891e+01 1.431517e+01 1.359049e+01 1.175865e+01 3.389282e+00 -5.467226e+00 -7.146982e+00 -6.521808e+00 -6.104252e+00 -5.688809e+00 -5.340443e+00 -5.054227e+00 -4.798950e+00 -4.591951e+00 -4.403511e+00 -4.249592e+00 -4.109848e+00 -3.993543e+00 -3.890879e+00 -3.802530e+00 -3.729079e+00 -3.662626e+00 -3.612858e+00 -3.564554e+00 -3.534571e+00 -3.502230e+00 -3.489377e+00 -3.471951e+00 
-3.322564e+00 -3.317318e+00 -3.334378e+00 -3.341708e+00 -3.370577e+00 -3.392005e+00 -3.433483e+00 -3.471427e+00 -3.527294e+00 -3.585249e+00 -3.658650e+00 -3.741446e+00 -3.837593e+00 -3.951801e+00 -4.079118e+00 -4.233924e+00 -4.405544e+00 -4.615308e+00 -4.850127e+00 -5.139321e+00 -5.451215e+00 -5.815923e+00 -5.883689e+00 -8.798149e-02 8.982623e+00 1.246685e+01 1.293991e+01 1.375085e+01 1.424573e+01 1.474846e+01 1.507501e+01 1.528224e+01 1.534725e+01 1.528376e+01 1.507493e+01 1.475034e+01 1.424797e+01 1.375432e+01 1.294856e+01 1.248132e+01 8.991364e+00 -7.189481e-02 -5.860703e+00 -5.806303e+00 -5.443787e+00 -5.136692e+00 -4.846835e+00 -4.614363e+00 -4.403938e+00 -4.233509e+00 -4.078334e+00 -3.951593e+00 -3.837232e+00 -3.741329e+00 -3.658505e+00 -3.585176e+00 -3.527254e+00 -3.471378e+00 -3.433487e+00 -3.391971e+00 -3.370592e+00 -3.341688e+00 -3.334389e+00 -3.317311e+00 
-3.152579e+00 -3.146246e+00 -3.161162e+00 -3.164175e+00 -3.187498e+00 -3.201272e+00 -3.233453e+00 -3.260178e+00 -3.302412e+00 -3.345211e+00 -3.399736e+00 -3.462843e+00 -3.533544e+00 -3.622492e+00 -3.715813e+00 -3.838082e+00 -3.963229e+00 -4.132334e+00 -4.292706e+00 -4.547820e+00 -4.658243e+00 -5.136056e+00 -2.990155e+00 5.157598e+00 1.114450e+01 1.182839e+01 1.255405e+01 1.311776e+01 1.360623e+01 1.395124e+01 1.420604e+01 1.435657e+01 1.440609e+01 1.435656e+01 1.420401e+01 1.394983e+01 1.360217e+01 1.311176e+01 1.254408e+01 1.181449e+01 1.113262e+01 5.128227e+00 -3.024830e+00 -5.157229e+00 -4.667816e+00 -4.554412e+00 -4.294894e+00 -4.134655e+00 -3.963669e+00 -3.838975e+00 -3.715822e+00 -3.622826e+00 -3.533456e+00 -3.462937e+00 -3.399645e+00 -3.345203e+00 -3.302340e+00 -3.260135e+00 -3.233404e+00 -3.201225e+00 -3.187469e+00 -3.164142e+00 -3.161149e+00 -3.146235e+00 
-2.988290e+00 -2.978911e+00 -2.993593e+00 -2.990259e+00 -3.009960e+00 -3.013932e+00 -3.038790e+00 -3.051964e+00 -3.082618e+00 -3.107659e+00 -3.145472e+00 -3.185847e+00 -3.233458e+00 -3.293096e+00 -3.355569e+00 -3.437676e+00 -3.523999e+00 -3.629292e+00 -3.747360e+00 -3.874483e+00 -3.954833e+00 -4.032749e+00 1.085683e+00 8.746777e+00 1.125649e+01 1.148474e+01 1.227525e+01 1.274200e+01 1.320700e+01 1.355851e+01 1.381285e+01 1.397221e+01 1.401942e+01 1.397291e+01 1.381348e+01 1.356020e+01 1.320925e+01 1.274544e+01 1.228063e+01 1.149254e+01 1.126553e+01 8.756689e+00 1.084320e+00 -4.038885e+00 -3.953808e+00 -3.875956e+00 -3.745417e+00 -3.629614e+00 -3.522835e+00 -3.437885e+00 -3.355001e+00 -3.293289e+00 -3.233217e+00 -3.186009e+00 -3.145393e+00 -3.107781e+00 -3.082611e+00 -3.052047e+00 -3.038809e+00 -3.013984e+00 -3.009982e+00 -2.990287e+00 -2.993605e+00 -2.978919e+00 
-2.813604e+00 -2.802830e+00 -2.815557e+00 -2.807439e+00 -2.821658e+00 -2.817319e+00 -2.832805e+00 -2.833901e+00 -2.850632e+00 -2.859506e+00 -2.877766e+00 -2.897461e+00 -2.918316e+00 -2.951939e+00 -2.978980e+00 -3.026656e+00 -3.072083e+00 -3.119704e+00 -3.223346e+00 -3.192149e+00 -3.473119e+00 -2.240229e+00 4.710964e+00 1.034160e+01 1.077879e+01 1.137634e+01 1.189555e+01 1.235158e+01 1.271845e+01 1.300647e+01 1.320659e+01 1.333257e+01 1.336857e+01 1.333236e+01 1.320561e+01 1.300556e+01 1.271695e+01 1.234997e+01 1.189508e+01 1.137727e+01 1.078815e+01 1.036340e+01 4.738475e+00 -2.220481e+00 -3.463283e+00 -3.189319e+00 -3.220111e+00 -3.119043e+00 -3.070653e+00 -3.026450e+00 -2.978148e+00 -2.951804e+00 -2.917763e+00 -2.897334e+00 -2.877387e+00 -2.859390e+00 -2.850376e+00 -2.833806e+00 -2.832639e+00 -2.817249e+00 -2.821560e+00 -2.807396e+00 -2.815511e+00 -2.802815e+00 
-2.643479e+00 -2.629247e+00 -2.641970e+00 -2.626891e+00 -2.637581e+00 -2.622564e+00 -2.630682e+00 -2.617050e+00 -2.621958e+00 -2.611653e+00 -2.612544e+00 -2.608249e+00 -2.604319e+00 -2.608952e+00 -2.600892e+00 -2.614035e+00 -2.611372e+00 -2.611958e+00 -2.662269e+00 -2.513557e+00 -2.800686e+00 5.203564e-01 7.652065e+00 1.067463e+01 1.062308e+01 1.135915e+01 1.172280e+01 1.216693e+01 1.247885e+01 1.275863e+01 1.293937e+01 1.306586e+01 1.309504e+01 1.306617e+01 1.293974e+01 1.275938e+01 1.247965e+01 1.216779e+01 1.172344e+01 1.135865e+01 1.062030e+01 1.066609e+01 7.647667e+00 5.313558e-01 -2.791162e+00 -2.512450e+00 -2.660062e+00 -2.612529e+00 -2.610837e+00 -2.614770e+00 -2.600806e+00 -2.609560e+00 -2.604364e+00 -2.608699e+00 -2.612619e+00 -2.611968e+00 -2.622030e+00 -2.617259e+00 -2.630738e+00 -2.622694e+00 -2.637620e+00 -2.626962e+00 -2.641989e+00 -2.629269e+00 
-2.470806e+00 -2.454874e+00 -2.465989e+00 -2.445790e+00 -2.451432e+00 -2.427686e+00 -2.427019e+00 -2.400771e+00 -2.392549e+00 -2.365477e+00 -2.347709e+00 -2.322552e+00 -2.291983e+00 -2.272907e+00 -2.224545e+00 -2.216106e+00 -2.144553e+00 -2.141564e+00 -2.048851e+00 -1.972325e+00 -1.804400e+00 3.448016e+00 9.628249e+00 1.053486e+01 1.068930e+01 1.122799e+01 1.154208e+01 1.190056e+01 1.215632e+01 1.238259e+01 1.252691e+01 1.262951e+01 1.265088e+01 1.262938e+01 1.252653e+01 1.238219e+01 1.215586e+01 1.190008e+01 1.154208e+01 1.122805e+01 1.068983e+01 1.053418e+01 9.621016e+00 3.448231e+00 -1.792404e+00 -1.966734e+00 -2.045067e+00 -2.139624e+00 -2.142454e+00 -2.215185e+00 -2.223191e+00 -2.272366e+00 -2.291070e+00 -2.322202e+00 -2.347093e+00 -2.365244e+00 -2.392141e+00 -2.400617e+00 -2.426758e+00 -2.427590e+00 -2.451279e+00 -2.445737e+00 -2.465918e+00 -2.454857e+00 
-2.301731e+00 -2.281998e+00 -2.293445e+00 -2.265880e+00 -2.268403e+00 -2.233432e+00 -2.225972e+00 -2.184213e+00 -2.165025e+00 -2.117701e+00 -2.083777e+00 -2.033538e+00 -1.979372e+00 -1.932133e+00 -1.846961e+00 -1.816385e+00 -1.677783e+00 -1.696452e+00 -1.447242e+00 -1.592485e+00 -4.826305e-01 5.868091e+00 1.050067e+01 1.038568e+01 1.088204e+01 1.117940e+01 1.152412e+01 1.180255e+01 1.204014e+01 1.223856e+01 1.236718e+01 1.246364e+01 1.247899e+01 1.246372e+01 1.236723e+01 1.223868e+01 1.204007e+01 1.180230e+01 1.152323e+01 1.117772e+01 1.087835e+01 1.038037e+01 1.049077e+01 5.855354e+00 -4.877245e-01 -1.596550e+00 -1.450316e+00 -1.698802e+00 -1.679098e+00 -1.817933e+00 -1.847673e+00 -1.933190e+00 -1.979802e+00 -2.034255e+00 -2.084044e+00 -2.118178e+00 -2.165189e+00 -2.184521e+00 -2.226070e+00 -2.233621e+00 -2.268459e+00 -2.265982e+00 -2.293469e+00 -2.282030e+00 
-2.137879e+00 -2.116199e+00 -2.126478e+00 -2.093646e+00 -2.091855e+00 -2.048011e+00 -2.032968e+00 -1.978308e+00 -1.947974e+00 -1.883208e+00 -1.833980e+00 -1.761395e+00 -1.686381e+00 -1.612616e+00 -1.497030e+00 -1.441068e+00 -1.248755e+00 -1.265750e+00 -8.849575e-01 -1.128210e+00 1.371346e+00 7.896201e+00 1.072506e+01 1.039813e+01 1.096882e+01 1.111358e+01 1.143314e+01 1.163568e+01 1.183370e+01 1.199096e+01 1.209188e+01 1.217218e+01 1.218031e+01 1.217214e+01 1.209181e+01 1.199087e+01 1.183373e+01 1.163572e+01 1.143357e+01 1.111416e+01 1.096998e+01 1.040008e+01 1.072781e+01 7.893922e+00 1.366835e+00 -1.130675e+00 -8.841220e-01 -1.265059e+00 -1.246901e+00 -1.440066e+00 -1.495454e+00 -1.611857e+00 -1.685251e+00 -1.760895e+00 -1.833218e+00 -1.882896e+00 -1.947476e+00 -1.978120e+00 -2.032654e+00 -2.047902e+00 -2.091672e+00 -2.093590e+00 -2.126394e+00 -2.116182e+00 
-1.976865e+00 -1.951183e+00 -1.962159e+00 -1.921851e+00 -1.917577e+00 -1.862381e+00 -1.841625e+00 -1.771115e+00 -1.731695e+00 -1.645663e+00 -1.583757e+00 -1.483172e+00 -1.391537e+00 -1.281130e+00 -1.143963e+00 -1.039597e+00 -8.159480e-01 -7.649504e-01 -3.207215e-01 -4.492728e-01 3.503100e+00 9.648488e+00 1.085344e+01 1.063337e+01 1.107801e+01 1.118474e+01 1.145279e+01 1.162171e+01 1.178756e+01 1.192758e+01 1.200915e+01 1.208590e+01 1.208608e+01 1.208588e+01 1.200907e+01 1.192748e+01 1.178734e+01 1.162140e+01 1.145235e+01 1.118415e+01 1.107776e+01 1.063328e+01 1.085659e+01 9.650258e+00 3.498558e+00 -4.555208e-01 -3.242173e-01 -7.681381e-01 -8.179573e-01 -1.041648e+00 -1.145158e+00 -1.282483e+00 -1.392233e+00 -1.484056e+00 -1.584152e+00 -1.646232e+00 -1.731914e+00 -1.771474e+00 -1.841743e+00 -1.862598e+00 -1.917637e+00 -1.921967e+00 -1.962184e+00 -1.951219e+00 
-1.828403e+00 -1.800669e+00 -1.810903e+00 -1.765464e+00 -1.757733e+00 -1.693942e+00 -1.667102e+00 -1.583909e+00 -1.535929e+00 -1.432118e+00 -1.359669e+00 -1.234474e+00 -1.131875e+00 -9.867140e-01 -8.429989e-01 -6.865455e-01 -4.760781e-01 -3.370701e-01 1.961146e-02 1.078878e-01 5.127814e+00 1.051671e+01 1.080103e+01 1.082032e+01 1.107726e+01 1.120334e+01 1.138608e+01 1.153443e+01 1.165123e+01 1.177206e+01 1.182589e+01 1.189590e+01 1.188652e+01 1.189591e+01 1.182598e+01 1.177210e+01 1.165145e+01 1.153456e+01 1.138657e+01 1.120366e+01 1.107825e+01 1.082111e+01 1.080348e+01 1.051906e+01 5.128136e+00 1.099177e-01 2.336030e-02 -3.345648e-01 -4.731739e-01 -6.849107e-01 -8.410375e-01 -9.857198e-01 -1.130608e+00 -1.233896e+00 -1.358863e+00 -1.431793e+00 -1.535420e+00 -1.583730e+00 -1.666787e+00 -1.693847e+00 -1.757551e+00 -1.765418e+00 -1.810819e+00 -1.800656e+00 
-1.682228e+00 -1.650517e+00 -1.661743e+00 -1.609118e+00 -1.599588e+00 -1.524940e+00 -1.493612e+00 -1.395136e+00 -1.340171e+00 -1.215372e+00 -1.134073e+00 -9.798026e-01 -8.685941e-01 -6.812406e-01 -5.359951e-01 -3.120483e-01 -1.300683e-01 1.357131e-01 3.528092e-01 9.456444e-01 6.683253e+00 1.093703e+01 1.079440e+01 1.104212e+01 1.113619e+01 1.131155e+01 1.141860e+01 1.156913e+01 1.164619e+01 1.176300e+01 1.179514e+01 1.186628e+01 1.184691e+01 1.186622e+01 1.179499e+01 1.176280e+01 1.164590e+01 1.156883e+01 1.141822e+01 1.131127e+01 1.113586e+01 1.104221e+01 1.079402e+01 1.093774e+01 6.687871e+00 9.478789e-01 3.516690e-01 1.333623e-01 -1.321304e-01 -3.141838e-01 -5.373627e-01 -6.826680e-01 -8.693604e-01 -9.806988e-01 -1.134473e+00 -1.215927e+00 -1.340370e+00 -1.395478e+00 -1.493706e+00 -1.525144e+00 -1.599630e+00 -1.609226e+00 -1.661758e+00 -1.650551e+00 
-1.555170e+00 -1.521533e+00 -1.532307e+00 -1.475076e+00 -1.462860e+00 -1.380515e+00 -1.344444e+00 -1.234507e+00 -1.173073e+00 -1.031872e+00 -9.432194e-01 -7.653098e-01 -6.481513e-01 -4.247233e-01 -2.812093e-01 4.923732e-03 1.601381e-01 5.556928e-01 6.745165e-01 2.009912e+00 8.225414e+00 1.125358e+01 1.088010e+01 1.119779e+01 1.115593e+01 1.134792e+01 1.137982e+01 1.152423e+01 1.155733e+01 1.166578e+01 1.167316e+01 1.174305e+01 1.171350e+01 1.174310e+01 1.167333e+01 1.166592e+01 1.155764e+01 1.152434e+01 1.138013e+01 1.134767e+01 1.115571e+01 1.119600e+01 1.087734e+01 1.124603e+01 8.217922e+00 2.014432e+00 6.823439e-01 5.596403e-01 1.641302e-01 6.953226e-03 -2.791055e-01 -4.237184e-01 -6.469775e-01 -7.648199e-01 -9.425313e-01 -1.031638e+00 -1.172657e+00 -1.234400e+00 -1.344191e+00 -1.380468e+00 -1.462714e+00 -1.475057e+00 -1.532240e+00 -1.521529e+00 
-1.430051e+00 -1.392741e+00 -1.404651e+00 -1.340986e+00 -1.327551e+00 -1.235599e+00 -1.196066e+00 -1.072694e+00 -1.005727e+00 -8.461860e-01 -7.503889e-01 -5.473304e-01 -4.226916e-01 -1.635900e-01 -1.554442e-02 3.247190e-01 4.742190e-01 9.598651e-01 1.052033e+00 3.033036e+00 9.400104e+00 1.146134e+01 1.106592e+01 1.136465e+01 1.125850e+01 1.145049e+01 1.143633e+01 1.157795e+01 1.158147e+01 1.168770e+01 1.167728e+01 1.174933e+01 1.171072e+01 1.174921e+01 1.167705e+01 1.168738e+01 1.158106e+01 1.157751e+01 1.143584e+01 1.145020e+01 1.125826e+01 1.136529e+01 1.106691e+01 1.146579e+01 9.403437e+00 3.023327e+00 1.041207e+00 9.533619e-01 4.705690e-01 3.220279e-01 -1.699003e-02 -1.649105e-01 -4.232922e-01 -5.480468e-01 -7.506288e-01 -8.466004e-01 -1.005810e+00 -1.072942e+00 -1.196084e+00 -1.235747e+00 -1.327548e+00 -1.341065e+00 -1.404646e+00 -1.392766e+00 
-1.329596e+00 -1.290744e+00 -1.302307e+00 -1.234974e+00 -1.219438e+00 -1.121364e+00 -1.078092e+00 -9.456563e-01 -8.734529e-01 -7.011827e-01 -5.988999e-01 -3.783776e-01 -2.464843e-01 3.628988e-02 1.916339e-01 5.628917e-01 7.199627e-01 1.237852e+00 1.346456e+00 3.835444e+00 1.012743e+01 1.149567e+01 1.117353e+01 1.142279e+01 1.129218e+01 1.146461e+01 1.141665e+01 1.154623e+01 1.152296e+01 1.162224e+01 1.159459e+01 1.166638e+01 1.161994e+01 1.166649e+01 1.159487e+01 1.162256e+01 1.152350e+01 1.154668e+01 1.141733e+01 1.146496e+01 1.129274e+01 1.142244e+01 1.117356e+01 1.149345e+01 1.012696e+01 3.843353e+00 1.355454e+00 1.242569e+00 7.229987e-01 5.643971e-01 1.929142e-01 3.679187e-02 -2.458511e-01 -3.782360e-01 -5.985466e-01 -7.011724e-01 -8.732379e-01 -9.456868e-01 -1.077957e+00 -1.121399e+00 -1.219356e+00 -1.234998e+00 -1.302268e+00 -1.290752e+00 
-1.230899e+00 -1.188940e+00 -1.201628e+00 -1.129029e+00 -1.112735e+00 -1.006963e+00 -9.610696e-01 -8.181283e-01 -7.413634e-01 -5.553178e-01 -4.462749e-01 -2.082734e-01 -6.666001e-02 2.372241e-01 4.075860e-01 8.012164e-01 9.861513e-01 1.516097e+00 1.689816e+00 4.648817e+00 1.073811e+01 1.157380e+01 1.133661e+01 1.152181e+01 1.139776e+01 1.154453e+01 1.148326e+01 1.160167e+01 1.156375e+01 1.165869e+01 1.162016e+01 1.169272e+01 1.164027e+01 1.169255e+01 1.161983e+01 1.165816e+01 1.156311e+01 1.160083e+01 1.148235e+01 1.154344e+01 1.139664e+01 1.152019e+01 1.133469e+01 1.156847e+01 1.073275e+01 4.651367e+00 1.692284e+00 1.515712e+00 9.858479e-01 8.004361e-01 4.074404e-01 2.367846e-01 -6.660450e-02 -2.085045e-01 -4.461482e-01 -5.554532e-01 -7.412360e-01 -8.182172e-01 -9.609680e-01 -1.007023e+00 -1.112667e+00 -1.129065e+00 -1.201594e+00 -1.188952e+00 
-1.161199e+00 -1.118306e+00 -1.130594e+00 -1.055601e+00 -1.037663e+00 -9.278384e-01 -8.790548e-01 -7.301759e-01 -6.491315e-01 -4.551070e-01 -3.399107e-01 -9.211493e-02 5.891709e-02 3.728983e-01 5.598340e-01 9.586469e-01 1.178104e+00 1.693658e+00 1.948750e+00 5.310643e+00 1.113237e+01 1.157918e+01 1.141350e+01 1.153328e+01 1.142227e+01 1.153766e+01 1.146817e+01 1.157089e+01 1.152077e+01 1.160843e+01 1.156042e+01 1.163202e+01 1.157513e+01 1.163221e+01 1.156084e+01 1.160903e+01 1.152163e+01 1.157191e+01 1.146947e+01 1.153918e+01 1.142405e+01 1.153574e+01 1.141610e+01 1.158536e+01 1.113402e+01 5.297772e+00 1.939025e+00 1.689477e+00 1.176040e+00 9.574356e-01 5.591833e-01 3.722523e-01 5.863729e-02 -9.255396e-02 -3.400367e-01 -4.554121e-01 -6.491783e-01 -7.303816e-01 -8.790627e-01 -9.279692e-01 -1.037656e+00 -1.055674e+00 -1.130588e+00 -1.118329e+00 
-1.093198e+00 -1.047949e+00 -1.061247e+00 -9.824341e-01 -9.641700e-01 -8.489384e-01 -7.984354e-01 -6.424497e-01 -5.580518e-01 -3.552590e-01 -2.344037e-01 2.325836e-02 1.840146e-01 5.068938e-01 7.121251e-01 1.112885e+00 1.370325e+00 1.865434e+00 2.202275e+00 5.871031e+00 1.143763e+01 1.164094e+01 1.153555e+01 1.160261e+01 1.151106e+01 1.160032e+01 1.153177e+01 1.162243e+01 1.156746e+01 1.165030e+01 1.159723e+01 1.166835e+01 1.160843e+01 1.166810e+01 1.159678e+01 1.164954e+01 1.156653e+01 1.162114e+01 1.153039e+01 1.159867e+01 1.150961e+01 1.160178e+01 1.153632e+01 1.164778e+01 1.145420e+01 5.877862e+00 2.196704e+00 1.862970e+00 1.370971e+00 1.113304e+00 7.132440e-01 5.074735e-01 1.848640e-01 2.362989e-02 -2.338366e-01 -3.550644e-01 -5.576864e-01 -6.423616e-01 -7.982065e-01 -8.489050e-01 -9.640361e-01 -9.824245e-01 -1.061185e+00 -1.047947e+00 
-1.057166e+00 -1.011739e+00 -1.024502e+00 -9.447683e-01 -9.253115e-01 -8.083252e-01 -7.559130e-01 -5.972759e-01 -5.100167e-01 -3.037716e-01 -1.784445e-01 8.285923e-02 2.513943e-01 5.760402e-01 7.965259e-01 1.191253e+00 1.481020e+00 1.946126e+00 2.349068e+00 6.261658e+00 1.161875e+01 1.164717e+01 1.157168e+01 1.159232e+01 1.151284e+01 1.157813e+01 1.150957e+01 1.158809e+01 1.152879e+01 1.160606e+01 1.154886e+01 1.161882e+01 1.155712e+01 1.161908e+01 1.154941e+01 1.160690e+01 1.152997e+01 1.158961e+01 1.151148e+01 1.158041e+01 1.151548e+01 1.159468e+01 1.157366e+01 1.164339e+01 1.160930e+01 6.260664e+00 2.356770e+00 1.948468e+00 1.479632e+00 1.189617e+00 7.949169e-01 5.745751e-01 2.504010e-01 8.190495e-02 -1.789797e-01 -3.043591e-01 -5.102860e-01 -5.976327e-01 -7.560400e-01 -8.085356e-01 -9.253663e-01 -9.448791e-01 -1.024521e+00 -1.011774e+00 
-1.022832e+00 -9.758892e-01 -9.895089e-01 -9.075289e-01 -8.882309e-01 -7.682430e-01 -7.152447e-01 -5.528646e-01 -4.641160e-01 -2.535474e-01 -1.254008e-01 1.402291e-01 3.140113e-01 6.413553e-01 8.722724e-01 1.264028e+00 1.576170e+00 2.023890e+00 2.476191e+00 6.540761e+00 1.176657e+01 1.170548e+01 1.165207e+01 1.164600e+01 1.157621e+01 1.162808e+01 1.156190e+01 1.163427e+01 1.157425e+01 1.164908e+01 1.159041e+01 1.165986e+01 1.159707e+01 1.165955e+01 1.158984e+01 1.164809e+01 1.157301e+01 1.163237e+01 1.155967e+01 1.162467e+01 1.157216e+01 1.163936e+01 1.164360e+01 1.168975e+01 1.174405e+01 6.539342e+00 2.492848e+00 2.034639e+00 1.582917e+00 1.268459e+00 8.754834e-01 6.433600e-01 3.156848e-01 1.411781e-01 -1.244714e-01 -2.530933e-01 -4.635783e-01 -5.526514e-01 -7.149300e-01 -7.681477e-01 -8.880547e-01 -9.074905e-01 -9.894295e-01 -9.758791e-01 
-1.021980e+00 -9.756923e-01 -9.886164e-01 -9.072835e-01 -8.872988e-01 -7.679193e-01 -7.142199e-01 -5.523797e-01 -4.628358e-01 -2.527274e-01 -1.234718e-01 1.417276e-01 3.174945e-01 6.442573e-01 8.794497e-01 1.270221e+00 1.592558e+00 2.039995e+00 2.518795e+00 6.600468e+00 1.173972e+01 1.165967e+01 1.162366e+01 1.160929e+01 1.154451e+01 1.159082e+01 1.152504e+01 1.159409e+01 1.153303e+01 1.160616e+01 1.154651e+01 1.161557e+01 1.155262e+01 1.161588e+01 1.154713e+01 1.160714e+01 1.153441e+01 1.159603e+01 1.152757e+01 1.159453e+01 1.154940e+01 1.161763e+01 1.163539e+01 1.168469e+01 1.177897e+01 6.602982e+00 2.488985e+00 2.021327e+00 1.583807e+00 1.264045e+00 8.760378e-01 6.416308e-01 3.159473e-01 1.404057e-01 -1.242208e-01 -2.534589e-01 -4.632025e-01 -5.528022e-01 -7.143951e-01 -7.681618e-01 -8.873775e-01 -9.074094e-01 -9.886459e-01 -9.757313e-01 