# vtk DataFile Version 2.0
Comment goes here
ASCII

DATASET STRUCTURED_POINTS
FIELD FieldData 1
TIME 1 1 double
0.32000000
DIMENSIONS    64   64   1

ORIGIN    0.000   0.000   0.000
SPACING   0.015625 0.015625   1.000

POINT_DATA   4096
VECTORS u double

0.000242 0.000000 0.000000 0.018298 0.000000 0.000000 0.036484 0.000000 0.000000 0.054650 0.000000 0.000000 0.073125 0.000000 0.000000 0.091571 0.000000 0.000000 0.110448 0.000000 0.000000 0.129234 0.000000 0.000000 0.148455 0.000000 0.000000 0.167436 0.000000 0.000000 0.186665 0.000000 0.000000 0.205361 0.000000 0.000000 0.223837 0.000000 0.000000 0.241300 0.000000 0.000000 0.257690 -0.000000 0.000000 0.272391 0.000000 0.000000 0.284705 -0.000000 0.000000 0.294537 -0.000000 0.000000 0.300217 -0.000000 0.000000 0.302738 -0.000000 0.000000 0.299063 -0.000000 0.000000 0.292089 -0.000000 0.000000 0.277058 -0.000000 0.000000 0.259680 -0.000000 0.000000 0.233385 0.000000 0.000000 0.207187 -0.000000 0.000000 0.173171 0.000000 0.000000 0.142764 -0.000000 0.000000 0.107807 0.000000 0.000000 0.079009 -0.000000 0.000000 0.049324 0.000000 0.000000 0.024352 -0.000000 0.000000 -0.000187 0.000000 0.000000 -0.024909 -0.000000 0.000000 -0.049705 -0.000000 0.000000 -0.079476 -0.000000 0.000000 -0.108212 -0.000000 0.000000 -0.143098 -0.000000 0.000000 -0.173586 -0.000000 0.000000 -0.207428 -0.000000 0.000000 -0.233759 -0.000000 0.000000 -0.259881 0.000000 0.000000 -0.277374 -0.000000 0.000000 -0.292273 0.000000 0.000000 -0.299301 -0.000000 0.000000 -0.302887 0.000000 0.000000 -0.300356 0.000000 0.000000 -0.294619 0.000000 0.000000 -0.284732 0.000000 0.000000 -0.272383 0.000000 0.000000 -0.257605 0.000000 0.000000 -0.241195 0.000000 0.000000 -0.223647 0.000000 0.000000 -0.205161 0.000000 0.000000 -0.186384 -0.000000 0.000000 -0.167153 0.000000 0.000000 -0.148100 -0.000000 0.000000 -0.128884 0.000000 0.000000 -0.110035 -0.000000 0.000000 -0.091171 0.000000 0.000000 -0.072672 -0.000000 0.000000 -0.054216 0.000000 0.000000 -0.036008 -0.000000 0.000000 -0.017849 0.000000 0.000000 
0.000221 -0.018073 0.000000 0.018232 -0.018121 0.000000 0.036375 -0.018176 0.000000 0.054503 -0.018320 0.000000 0.072944 -0.018461 0.000000 0.091369 -0.018661 0.000000 0.110230 -0.018831 0.000000 0.129021 -0.019004 0.000000 0.148259 -0.019101 0.000000 0.167283 -0.019105 0.000000 0.186574 -0.018963 0.000000 0.205366 -0.018586 0.000000 0.223965 -0.017970 0.000000 0.241587 -0.016926 0.000000 0.258179 -0.015545 0.000000 0.273109 -0.013507 0.000000 0.285726 -0.011073 0.000000 0.295867 -0.007756 0.000000 0.301971 -0.004100 0.000000 0.304887 0.000577 0.000000 0.301766 0.005325 0.000000 0.295281 0.011003 0.000000 0.280889 0.016204 0.000000 0.264091 0.021837 0.000000 0.238369 0.026247 0.000000 0.212743 0.030107 0.000000 0.178936 0.032212 0.000000 0.148692 0.032682 0.000000 0.113179 0.031878 0.000000 0.083365 0.029242 0.000000 0.052188 0.027328 0.000000 0.025775 0.024756 0.000000 -0.000132 0.024631 0.000000 -0.026238 0.024759 0.000000 -0.052471 0.027283 0.000000 -0.083748 0.029254 0.000000 -0.113526 0.031811 0.000000 -0.148971 0.032687 0.000000 -0.179323 0.032165 0.000000 -0.212944 0.030087 0.000000 -0.238716 0.026227 0.000000 -0.264264 0.021807 0.000000 -0.281181 0.016196 0.000000 -0.295452 0.010964 0.000000 -0.301990 0.005307 0.000000 -0.305035 0.000528 0.000000 -0.302110 -0.004134 0.000000 -0.295960 -0.007812 0.000000 -0.285766 -0.011118 0.000000 -0.273123 -0.013564 0.000000 -0.258117 -0.015594 0.000000 -0.241510 -0.016979 0.000000 -0.223806 -0.018017 0.000000 -0.205201 -0.018632 0.000000 -0.186329 -0.019004 0.000000 -0.167039 -0.019142 0.000000 -0.147943 -0.019134 0.000000 -0.128712 -0.019033 0.000000 -0.109858 -0.018857 0.000000 -0.091010 -0.018681 0.000000 -0.072534 -0.018477 0.000000 -0.054112 -0.018332 0.000000 -0.035941 -0.018184 0.000000 -0.017825 -0.018125 0.000000 
0.000246 -0.036058 0.000000 0.018194 -0.036154 0.000000 0.036280 -0.036270 0.000000 0.054354 -0.036569 0.000000 0.072765 -0.036866 0.000000 0.091165 -0.037286 0.000000 0.110042 -0.037653 0.000000 0.128858 -0.038029 0.000000 0.148179 -0.038262 0.000000 0.167293 -0.038315 0.000000 0.186751 -0.038083 0.000000 0.205705 -0.037391 0.000000 0.224552 -0.036221 0.000000 0.242393 -0.034214 0.000000 0.259288 -0.031523 0.000000 0.274445 -0.027547 0.000000 0.287345 -0.022758 0.000000 0.297627 -0.016245 0.000000 0.303856 -0.009020 0.000000 0.306666 0.000206 0.000000 0.303273 0.009606 0.000000 0.296189 0.020877 0.000000 0.280799 0.031190 0.000000 0.262630 0.042520 0.000000 0.234944 0.051347 0.000000 0.207199 0.059433 0.000000 0.170882 0.064052 0.000000 0.138856 0.065757 0.000000 0.102092 0.065327 0.000000 0.073291 0.060991 0.000000 0.044419 0.057590 0.000000 0.021581 0.052320 0.000000 -0.000175 0.052012 0.000000 -0.022167 0.052339 0.000000 -0.044779 0.057511 0.000000 -0.073774 0.061055 0.000000 -0.102502 0.065223 0.000000 -0.139170 0.065797 0.000000 -0.171322 0.063973 0.000000 -0.207414 0.059393 0.000000 -0.235327 0.051320 0.000000 -0.262819 0.042464 0.000000 -0.281123 0.031188 0.000000 -0.296381 0.020809 0.000000 -0.303519 0.009584 0.000000 -0.306828 0.000120 0.000000 -0.303998 -0.009075 0.000000 -0.297718 -0.016344 0.000000 -0.287371 -0.022837 0.000000 -0.274440 -0.027649 0.000000 -0.259197 -0.031613 0.000000 -0.242284 -0.034311 0.000000 -0.224355 -0.036309 0.000000 -0.205498 -0.037477 0.000000 -0.186460 -0.038162 0.000000 -0.167003 -0.038387 0.000000 -0.147814 -0.038327 0.000000 -0.128500 -0.038084 0.000000 -0.109620 -0.037702 0.000000 -0.090756 -0.037325 0.000000 -0.072304 -0.036898 0.000000 -0.053912 -0.036592 0.000000 -0.035795 -0.036286 0.000000 -0.017736 -0.036162 0.000000 
0.000228 -0.054003 0.000000 0.018015 -0.054155 0.000000 0.035948 -0.054336 0.000000 0.053883 -0.054806 0.000000 0.072182 -0.055272 0.000000 0.090499 -0.055938 0.000000 0.109342 -0.056525 0.000000 0.128168 -0.057141 0.000000 0.147572 -0.057536 0.000000 0.166826 -0.057677 0.000000 0.186520 -0.057374 0.000000 0.205769 -0.056388 0.000000 0.225032 -0.054658 0.000000 0.243328 -0.051662 0.000000 0.260825 -0.047597 0.000000 0.276575 -0.041565 0.000000 0.290258 -0.034255 0.000000 0.301223 -0.024267 0.000000 0.308383 -0.013139 0.000000 0.311888 0.001160 0.000000 0.309475 0.015802 0.000000 0.302982 0.033477 0.000000 0.288368 0.049763 0.000000 0.270579 0.067692 0.000000 0.243027 0.081678 0.000000 0.215477 0.094169 0.000000 0.178264 0.100555 0.000000 0.146239 0.101472 0.000000 0.107664 0.097442 0.000000 0.076978 0.086915 0.000000 0.045646 0.079039 0.000000 0.021720 0.069349 0.000000 -0.000092 0.068378 0.000000 -0.022225 0.069363 0.000000 -0.045860 0.078890 0.000000 -0.077376 0.086976 0.000000 -0.108033 0.097208 0.000000 -0.146495 0.101508 0.000000 -0.178735 0.100409 0.000000 -0.215629 0.094091 0.000000 -0.243392 0.081632 0.000000 -0.270728 0.067603 0.000000 -0.288671 0.049758 0.000000 -0.303171 0.033359 0.000000 -0.309713 0.015754 0.000000 -0.312065 0.001007 0.000000 -0.308529 -0.013244 0.000000 -0.301336 -0.024439 0.000000 -0.290297 -0.034396 0.000000 -0.276595 -0.041738 0.000000 -0.260754 -0.047750 0.000000 -0.243246 -0.051821 0.000000 -0.224860 -0.054803 0.000000 -0.205592 -0.056526 0.000000 -0.186259 -0.057500 0.000000 -0.166566 -0.057789 0.000000 -0.147239 -0.057637 0.000000 -0.127842 -0.057226 0.000000 -0.108954 -0.056600 0.000000 -0.090124 -0.055998 0.000000 -0.071755 -0.055321 0.000000 -0.053475 -0.054841 0.000000 -0.035498 -0.054360 0.000000 -0.017591 -0.054166 0.000000 
0.000258 -0.071664 0.000000 0.017852 -0.071874 0.000000 0.035606 -0.072138 0.000000 0.053372 -0.072804 0.000000 0.071546 -0.073482 0.000000 0.089758 -0.074446 0.000000 0.108571 -0.075322 0.000000 0.127396 -0.076259 0.000000 0.146910 -0.076920 0.000000 0.166301 -0.077263 0.000000 0.186276 -0.077026 0.000000 0.205814 -0.075903 0.000000 0.225542 -0.073779 0.000000 0.244264 -0.070007 0.000000 0.262398 -0.064770 0.000000 0.278678 -0.056981 0.000000 0.293143 -0.047405 0.000000 0.304701 -0.034370 0.000000 0.312734 -0.019684 0.000000 0.316831 -0.000886 0.000000 0.315203 0.018511 0.000000 0.309095 0.041984 0.000000 0.294645 0.063594 0.000000 0.276453 0.087860 0.000000 0.247411 0.106449 0.000000 0.217745 0.124197 0.000000 0.176637 0.133290 0.000000 0.141056 0.136357 0.000000 0.098386 0.134588 0.000000 0.068518 0.123009 0.000000 0.039369 0.112848 0.000000 0.018446 0.098058 0.000000 -0.000120 0.095957 0.000000 -0.019115 0.098107 0.000000 -0.039643 0.112662 0.000000 -0.069077 0.123229 0.000000 -0.098832 0.134341 0.000000 -0.141293 0.136499 0.000000 -0.177207 0.133108 0.000000 -0.217873 0.124049 0.000000 -0.247817 0.106418 0.000000 -0.276607 0.087743 0.000000 -0.294998 0.063631 0.000000 -0.309328 0.041851 0.000000 -0.315479 0.018478 0.000000 -0.317043 -0.001064 0.000000 -0.312887 -0.019804 0.000000 -0.304818 -0.034576 0.000000 -0.293160 -0.047578 0.000000 -0.278675 -0.057192 0.000000 -0.262287 -0.064962 0.000000 -0.244141 -0.070205 0.000000 -0.225318 -0.073964 0.000000 -0.205585 -0.076077 0.000000 -0.185958 -0.077188 0.000000 -0.165984 -0.077407 0.000000 -0.146517 -0.077051 0.000000 -0.127011 -0.076369 0.000000 -0.108123 -0.075420 0.000000 -0.089322 -0.074523 0.000000 -0.071060 -0.073547 0.000000 -0.052905 -0.072849 0.000000 -0.035098 -0.072170 0.000000 -0.017369 -0.071889 0.000000 
0.000244 -0.089224 0.000000 0.017523 -0.089503 0.000000 0.034976 -0.089857 0.000000 0.052458 -0.090746 0.000000 0.070389 -0.091657 0.000000 0.088389 -0.092964 0.000000 0.107065 -0.094163 0.000000 0.125797 -0.095479 0.000000 0.145321 -0.096440 0.000000 0.164775 -0.097043 0.000000 0.184940 -0.096887 0.000000 0.204714 -0.095654 0.000000 0.224831 -0.093108 0.000000 0.243969 -0.088518 0.000000 0.262735 -0.082011 0.000000 0.279658 -0.072310 0.000000 0.295141 -0.060278 0.000000 0.307731 -0.043858 0.000000 0.317496 -0.025270 0.000000 0.323342 -0.001310 0.000000 0.324633 0.023538 0.000000 0.321379 0.054035 0.000000 0.311279 0.082406 0.000000 0.297239 0.114926 0.000000 0.273242 0.140386 0.000000 0.248956 0.164943 0.000000 0.211322 0.177244 0.000000 0.181897 0.179723 0.000000 0.138206 0.169980 0.000000 0.101460 0.145932 0.000000 0.059675 0.129110 0.000000 0.027379 0.108838 0.000000 0.000024 0.105940 0.000000 -0.027966 0.108886 0.000000 -0.059668 0.128851 0.000000 -0.101922 0.146165 0.000000 -0.138692 0.169424 0.000000 -0.182111 0.179883 0.000000 -0.212117 0.176989 0.000000 -0.248991 0.164701 0.000000 -0.273610 0.140366 0.000000 -0.297343 0.114784 0.000000 -0.311607 0.082478 0.000000 -0.321642 0.053841 0.000000 -0.324910 0.023470 0.000000 -0.323597 -0.001585 0.000000 -0.317657 -0.025469 0.000000 -0.307883 -0.044166 0.000000 -0.295169 -0.060540 0.000000 -0.279681 -0.072611 0.000000 -0.262638 -0.082283 0.000000 -0.243869 -0.088790 0.000000 -0.224625 -0.093359 0.000000 -0.204507 -0.095886 0.000000 -0.184644 -0.097101 0.000000 -0.164481 -0.097230 0.000000 -0.144952 -0.096610 0.000000 -0.125436 -0.095620 0.000000 -0.106642 -0.094288 0.000000 -0.087979 -0.093061 0.000000 -0.069930 -0.091738 0.000000 -0.052017 -0.090803 0.000000 -0.034496 -0.089896 0.000000 -0.017068 -0.089521 0.000000 
0.000276 -0.106255 0.000000 0.017189 -0.106607 0.000000 0.034291 -0.107073 0.000000 0.051431 -0.108216 0.000000 0.069070 -0.109413 0.000000 0.086796 -0.111121 0.000000 0.105280 -0.112731 0.000000 0.123841 -0.114515 0.000000 0.143306 -0.115898 0.000000 0.162706 -0.116883 0.000000 0.182963 -0.116964 0.000000 0.202797 -0.115794 0.000000 0.223176 -0.113034 0.000000 0.242511 -0.107910 0.000000 0.261821 -0.100459 0.000000 0.279257 -0.089386 0.000000 0.295941 -0.075479 0.000000 0.309901 -0.056726 0.000000 0.322342 -0.035295 0.000000 0.331444 -0.008023 0.000000 0.338019 0.020474 0.000000 0.341030 0.055338 0.000000 0.339163 0.087733 0.000000 0.333997 0.125897 0.000000 0.318418 0.154732 0.000000 0.300993 0.186117 0.000000 0.264887 0.200349 0.000000 0.231417 0.209473 0.000000 0.177778 0.215024 0.000000 0.140977 0.201540 0.000000 0.095076 0.186929 0.000000 0.048303 0.157709 0.000000 0.000034 0.151302 0.000000 -0.049080 0.157799 0.000000 -0.095115 0.186617 0.000000 -0.141835 0.202252 0.000000 -0.178368 0.214531 0.000000 -0.231338 0.209924 0.000000 -0.265885 0.199988 0.000000 -0.300962 0.185542 0.000000 -0.318805 0.154770 0.000000 -0.334124 0.125740 0.000000 -0.339602 0.087930 0.000000 -0.341421 0.055155 0.000000 -0.338376 0.020433 0.000000 -0.331778 -0.008317 0.000000 -0.322512 -0.035518 0.000000 -0.310061 -0.057065 0.000000 -0.295929 -0.075780 0.000000 -0.279242 -0.089723 0.000000 -0.261659 -0.100773 0.000000 -0.242350 -0.108218 0.000000 -0.222895 -0.113325 0.000000 -0.202519 -0.116059 0.000000 -0.182590 -0.117214 0.000000 -0.162338 -0.117098 0.000000 -0.142863 -0.116097 0.000000 -0.123407 -0.114679 0.000000 -0.104786 -0.112877 0.000000 -0.086316 -0.111236 0.000000 -0.068543 -0.109509 0.000000 -0.050923 -0.108283 0.000000 -0.033745 -0.107120 0.000000 -0.016667 -0.106629 0.000000 
0.000266 -0.123081 0.000000 0.016656 -0.123518 0.000000 0.033247 -0.124099 0.000000 0.049882 -0.125525 0.000000 0.067055 -0.127022 0.000000 0.084324 -0.129174 0.000000 0.102411 -0.131208 0.000000 0.120576 -0.133505 0.000000 0.139714 -0.135306 0.000000 0.158771 -0.136700 0.000000 0.178752 -0.136978 0.000000 0.198278 -0.135867 0.000000 0.218451 -0.132822 0.000000 0.237605 -0.127162 0.000000 0.257031 -0.118757 0.000000 0.274871 -0.106431 0.000000 0.292847 -0.090922 0.000000 0.309021 -0.070258 0.000000 0.325814 -0.046813 0.000000 0.341139 -0.016987 0.000000 0.357956 0.013952 0.000000 0.373464 0.052891 0.000000 0.389653 0.089439 0.000000 0.403191 0.135672 0.000000 0.411355 0.173389 0.000000 0.416241 0.218474 0.000000 0.401349 0.246820 0.000000 0.402633 0.266831 0.000000 0.361892 0.260420 0.000000 0.301120 0.228634 0.000000 0.200362 0.221785 0.000000 0.097489 0.203880 0.000000 0.000310 0.203323 0.000000 -0.098170 0.204036 0.000000 -0.199687 0.221606 0.000000 -0.301655 0.229418 0.000000 -0.362670 0.258927 0.000000 -0.402541 0.267401 0.000000 -0.403077 0.246613 0.000000 -0.416022 0.217620 0.000000 -0.411495 0.173528 0.000000 -0.403288 0.135582 0.000000 -0.390084 0.089775 0.000000 -0.374008 0.052614 0.000000 -0.358359 0.013827 0.000000 -0.341577 -0.017450 0.000000 -0.326007 -0.047186 0.000000 -0.309228 -0.070748 0.000000 -0.292843 -0.091359 0.000000 -0.274876 -0.106882 0.000000 -0.256875 -0.119176 0.000000 -0.237454 -0.127553 0.000000 -0.218179 -0.133189 0.000000 -0.198011 -0.136191 0.000000 -0.178391 -0.137281 0.000000 -0.158416 -0.136957 0.000000 -0.139286 -0.135542 0.000000 -0.120157 -0.133696 0.000000 -0.101935 -0.131378 0.000000 -0.083861 -0.129305 0.000000 -0.066548 -0.127132 0.000000 -0.049392 -0.125601 0.000000 -0.032721 -0.124152 0.000000 -0.016153 -0.123542 0.000000 
0.000301 -0.139064 0.000000 0.016088 -0.139588 0.000000 0.032085 -0.140299 0.000000 0.048123 -0.142025 0.000000 0.064727 -0.143855 0.000000 0.081412 -0.146477 0.000000 0.098952 -0.148982 0.000000 0.116526 -0.151819 0.000000 0.135107 -0.154093 0.000000 0.153513 -0.155920 0.000000 0.172878 -0.156472 0.000000 0.191661 -0.155494 0.000000 0.211234 -0.152361 0.000000 0.229764 -0.146489 0.000000 0.249164 -0.137725 0.000000 0.267451 -0.125203 0.000000 0.287665 -0.109629 0.000000 0.307770 -0.089693 0.000000 0.332551 -0.067413 0.000000 0.359455 -0.040166 0.000000 0.394583 -0.011851 0.000000 0.433034 0.023641 0.000000 0.479031 0.058006 0.000000 0.525079 0.104195 0.000000 0.566569 0.141683 0.000000 0.602198 0.196123 0.000000 0.603784 0.213958 0.000000 0.586997 0.248930 0.000000 0.518975 0.316537 0.000000 0.478556 0.363070 0.000000 0.386462 0.390560 0.000000 0.219850 0.357761 0.000000 0.000655 0.346962 0.000000 -0.220465 0.357796 0.000000 -0.385935 0.390102 0.000000 -0.480283 0.365235 0.000000 -0.519699 0.315417 0.000000 -0.585089 0.250331 0.000000 -0.605670 0.213469 0.000000 -0.602174 0.193960 0.000000 -0.566636 0.142036 0.000000 -0.525305 0.104330 0.000000 -0.479783 0.058650 0.000000 -0.433949 0.023430 0.000000 -0.395159 -0.011998 0.000000 -0.360056 -0.040669 0.000000 -0.332747 -0.067867 0.000000 -0.307976 -0.090228 0.000000 -0.287583 -0.110133 0.000000 -0.267379 -0.125691 0.000000 -0.248902 -0.138195 0.000000 -0.229512 -0.146913 0.000000 -0.210853 -0.152769 0.000000 -0.191290 -0.155848 0.000000 -0.172414 -0.156809 0.000000 -0.153060 -0.156203 0.000000 -0.134586 -0.154356 0.000000 -0.116018 -0.152031 0.000000 -0.098391 -0.149173 0.000000 -0.080867 -0.146623 0.000000 -0.064142 -0.143977 0.000000 -0.047557 -0.142109 0.000000 -0.031486 -0.140359 0.000000 -0.015512 -0.139615 0.000000 
0.000294 -0.154680 0.000000 0.015284 -0.155301 0.000000 0.030488 -0.156134 0.000000 0.045710 -0.158167 0.000000 0.061505 -0.160310 0.000000 0.077321 -0.163398 0.000000 0.093982 -0.166322 0.000000 0.110563 -0.169660 0.000000 0.128096 -0.172293 0.000000 0.145272 -0.174471 0.000000 0.163316 -0.175126 0.000000 0.180606 -0.174224 0.000000 0.198713 -0.170925 0.000000 0.215938 -0.165092 0.000000 0.234685 -0.156443 0.000000 0.253589 -0.144932 0.000000 0.276742 -0.131242 0.000000 0.303379 -0.115143 0.000000 0.339968 -0.098498 0.000000 0.384976 -0.079019 0.000000 0.446087 -0.059627 0.000000 0.515254 -0.031557 0.000000 0.598518 -0.002606 0.000000 0.676000 0.048134 0.000000 0.756070 0.096270 0.000000 0.805536 0.181258 0.000000 0.834284 0.262021 0.000000 0.926365 0.351640 0.000000 0.947611 0.368861 0.000000 0.840815 0.361147 0.000000 0.614532 0.480491 0.000000 0.329904 0.589687 0.000000 0.001554 0.643638 0.000000 -0.330415 0.590626 0.000000 -0.612416 0.481424 0.000000 -0.841023 0.363182 0.000000 -0.949270 0.363733 0.000000 -0.925569 0.353372 0.000000 -0.837598 0.263697 0.000000 -0.805331 0.178586 0.000000 -0.754899 0.096659 0.000000 -0.676278 0.048728 0.000000 -0.599403 -0.001581 0.000000 -0.516610 -0.032009 0.000000 -0.446815 -0.060066 0.000000 -0.385765 -0.079862 0.000000 -0.340224 -0.099266 0.000000 -0.303639 -0.115913 0.000000 -0.276671 -0.131956 0.000000 -0.253520 -0.145563 0.000000 -0.234416 -0.157043 0.000000 -0.215676 -0.165602 0.000000 -0.198324 -0.171412 0.000000 -0.180226 -0.174630 0.000000 -0.162849 -0.175511 0.000000 -0.144816 -0.174785 0.000000 -0.127579 -0.172585 0.000000 -0.110058 -0.169891 0.000000 -0.093431 -0.166529 0.000000 -0.076784 -0.163554 0.000000 -0.060932 -0.160442 0.000000 -0.045155 -0.158257 0.000000 -0.029904 -0.156197 0.000000 -0.014721 -0.155330 0.000000 
0.000331 -0.169069 0.000000 0.014418 -0.169782 0.000000 0.028710 -0.170725 0.000000 0.042983 -0.173042 0.000000 0.057798 -0.175465 0.000000 0.072538 -0.178955 0.000000 0.088046 -0.182225 0.000000 0.103289 -0.185932 0.000000 0.119332 -0.188802 0.000000 0.134746 -0.191140 0.000000 0.150849 -0.191806 0.000000 0.165979 -0.190891 0.000000 0.182035 -0.187693 0.000000 0.197537 -0.182461 0.000000 0.215836 -0.175376 0.000000 0.236254 -0.167260 0.000000 0.264980 -0.159419 0.000000 0.302135 -0.152918 0.000000 0.357406 -0.149010 0.000000 0.428113 -0.146285 0.000000 0.524247 -0.142129 0.000000 0.629243 -0.128790 0.000000 0.750090 -0.102740 0.000000 0.854967 -0.053357 0.000000 0.959734 0.012147 0.000000 1.059317 0.117909 0.000000 1.128601 0.093128 0.000000 1.063401 0.135602 0.000000 0.835261 0.402087 0.000000 0.507521 0.696150 0.000000 0.236875 0.901471 0.000000 0.088224 0.970739 0.000000 0.000724 1.007281 0.000000 -0.089097 0.971767 0.000000 -0.234820 0.900709 0.000000 -0.503953 0.702089 0.000000 -0.835677 0.399963 0.000000 -1.060741 0.138659 0.000000 -1.128757 0.093231 0.000000 -1.063042 0.111261 0.000000 -0.958989 0.012983 0.000000 -0.855104 -0.051167 0.000000 -0.751589 -0.101018 0.000000 -0.631298 -0.129157 0.000000 -0.525110 -0.142843 0.000000 -0.429082 -0.147260 0.000000 -0.357605 -0.149994 0.000000 -0.302341 -0.153782 0.000000 -0.264772 -0.160251 0.000000 -0.236044 -0.167946 0.000000 -0.215405 -0.176039 0.000000 -0.197116 -0.183005 0.000000 -0.181491 -0.188219 0.000000 -0.165451 -0.191322 0.000000 -0.150248 -0.192218 0.000000 -0.134163 -0.191474 0.000000 -0.118700 -0.189114 0.000000 -0.102676 -0.186178 0.000000 -0.087397 -0.182446 0.000000 -0.071908 -0.179121 0.000000 -0.057141 -0.175606 0.000000 -0.042345 -0.173138 0.000000 -0.028049 -0.170793 0.000000 -0.013777 -0.169813 0.000000 
0.000326 -0.182875 0.000000 0.013290 -0.183680 0.000000 0.026442 -0.184699 0.000000 0.039496 -0.187256 0.000000 0.053030 -0.189866 0.000000 0.066306 -0.193646 0.000000 0.080206 -0.197074 0.000000 0.093521 -0.200946 0.000000 0.107384 -0.203750 0.000000 0.120189 -0.205988 0.000000 0.133414 -0.206359 0.000000 0.145396 -0.205409 0.000000 0.158470 -0.202483 0.000000 0.171709 -0.198893 0.000000 0.189476 -0.195159 0.000000 0.212695 -0.194076 0.000000 0.249131 -0.197124 0.000000 0.301395 -0.207569 0.000000 0.379245 -0.224476 0.000000 0.480409 -0.245861 0.000000 0.607220 -0.260757 0.000000 0.734780 -0.257399 0.000000 0.855476 -0.228330 0.000000 0.930410 -0.161510 0.000000 0.998246 -0.108080 0.000000 0.891087 0.012391 0.000000 0.591263 0.257937 0.000000 0.134612 0.644980 0.000000 -0.240622 0.924741 0.000000 -0.353781 0.959533 0.000000 -0.273593 0.899788 0.000000 -0.135661 0.825838 0.000000 -0.001853 0.820959 0.000000 0.135603 0.826170 0.000000 0.270395 0.896281 0.000000 0.357359 0.964039 0.000000 0.242263 0.920521 0.000000 -0.131134 0.646451 0.000000 -0.583256 0.265998 0.000000 -0.893777 0.008819 0.000000 -0.999140 -0.111279 0.000000 -0.930831 -0.158672 0.000000 -0.857081 -0.225387 0.000000 -0.737212 -0.258488 0.000000 -0.608046 -0.262282 0.000000 -0.481417 -0.247367 0.000000 -0.379505 -0.226006 0.000000 -0.301637 -0.208746 0.000000 -0.248963 -0.198254 0.000000 -0.212480 -0.194930 0.000000 -0.189038 -0.195971 0.000000 -0.171255 -0.199517 0.000000 -0.157901 -0.203076 0.000000 -0.144834 -0.205873 0.000000 -0.132790 -0.206800 0.000000 -0.119582 -0.206333 0.000000 -0.106739 -0.204072 0.000000 -0.092897 -0.201193 0.000000 -0.079554 -0.197297 0.000000 -0.065675 -0.193811 0.000000 -0.052377 -0.190005 0.000000 -0.038863 -0.187348 0.000000 -0.025790 -0.184765 0.000000 -0.012657 -0.183710 0.000000 
0.000363 -0.195016 0.000000 0.012081 -0.195897 0.000000 0.023949 -0.196931 0.000000 0.035620 -0.199630 0.000000 0.047643 -0.202275 0.000000 0.059175 -0.206131 0.000000 0.071076 -0.209440 0.000000 0.082000 -0.213110 0.000000 0.093076 -0.215470 0.000000 0.102625 -0.217170 0.000000 0.112237 -0.217013 0.000000 0.120488 -0.215947 0.000000 0.130199 -0.214007 0.000000 0.141420 -0.213466 0.000000 0.159778 -0.216362 0.000000 0.188067 -0.226915 0.000000 0.235971 -0.248118 0.000000 0.306976 -0.283033 0.000000 0.410397 -0.328024 0.000000 0.536870 -0.374259 0.000000 0.678368 -0.396500 0.000000 0.784142 -0.377046 0.000000 0.845466 -0.298370 0.000000 0.783253 -0.196126 0.000000 0.570757 0.051469 0.000000 0.134087 0.524892 0.000000 -0.254674 0.849604 0.000000 -0.351566 0.967487 0.000000 -0.236099 0.890479 0.000000 -0.076274 0.729120 0.000000 -0.001750 0.683351 0.000000 0.017786 0.698999 0.000000 -0.000724 0.736017 0.000000 -0.013922 0.699518 0.000000 0.000340 0.678953 0.000000 0.081717 0.730221 0.000000 0.235931 0.888457 0.000000 0.348094 0.964177 0.000000 0.259015 0.855874 0.000000 -0.129350 0.527145 0.000000 -0.568437 0.050037 0.000000 -0.784063 -0.193225 0.000000 -0.844624 -0.294637 0.000000 -0.786523 -0.378192 0.000000 -0.678177 -0.398638 0.000000 -0.537479 -0.375801 0.000000 -0.410349 -0.329774 0.000000 -0.307005 -0.284325 0.000000 -0.235626 -0.249408 0.000000 -0.187649 -0.227871 0.000000 -0.159146 -0.217264 0.000000 -0.140752 -0.214143 0.000000 -0.129433 -0.214640 0.000000 -0.119731 -0.216433 0.000000 -0.111441 -0.217470 0.000000 -0.101857 -0.217524 0.000000 -0.092292 -0.215800 0.000000 -0.081246 -0.213363 0.000000 -0.070314 -0.209668 0.000000 -0.058441 -0.206299 0.000000 -0.046901 -0.202418 0.000000 -0.034900 -0.199725 0.000000 -0.023220 -0.197000 0.000000 -0.011370 -0.195928 0.000000 
0.000359 -0.206327 0.000000 0.010613 -0.207267 0.000000 0.020964 -0.208237 0.000000 0.030962 -0.210949 0.000000 0.041145 -0.213421 0.000000 0.050487 -0.217079 0.000000 0.059878 -0.219898 0.000000 0.067731 -0.222946 0.000000 0.075297 -0.224375 0.000000 0.080703 -0.225149 0.000000 0.085911 -0.224222 0.000000 0.089659 -0.223372 0.000000 0.095695 -0.223414 0.000000 0.105058 -0.228472 0.000000 0.125061 -0.241807 0.000000 0.160291 -0.270269 0.000000 0.221473 -0.316032 0.000000 0.312081 -0.381994 0.000000 0.434944 -0.454371 0.000000 0.572295 -0.513832 0.000000 0.686204 -0.508028 0.000000 0.710065 -0.424498 0.000000 0.599226 -0.227442 0.000000 0.319538 0.113199 0.000000 -0.097923 0.541086 0.000000 -0.355486 0.837822 0.000000 -0.278935 0.743591 0.000000 -0.112192 0.626405 0.000000 0.025615 0.649449 0.000000 0.078617 0.725185 0.000000 0.057853 0.805728 0.000000 0.024811 0.824813 0.000000 0.000566 0.852666 0.000000 -0.020559 0.825106 0.000000 -0.056330 0.800641 0.000000 -0.076247 0.728447 0.000000 -0.024877 0.654145 0.000000 0.112356 0.623367 0.000000 0.278835 0.743442 0.000000 0.358241 0.836272 0.000000 0.101039 0.543434 0.000000 -0.315906 0.117515 0.000000 -0.593197 -0.222927 0.000000 -0.708282 -0.424936 0.000000 -0.684581 -0.511325 0.000000 -0.572021 -0.515195 0.000000 -0.434846 -0.456480 0.000000 -0.312124 -0.383468 0.000000 -0.221269 -0.317611 0.000000 -0.159926 -0.271410 0.000000 -0.124472 -0.242867 0.000000 -0.104369 -0.229229 0.000000 -0.094901 -0.224097 0.000000 -0.088850 -0.223866 0.000000 -0.085073 -0.224674 0.000000 -0.079890 -0.225482 0.000000 -0.074482 -0.224682 0.000000 -0.066951 -0.223171 0.000000 -0.059101 -0.220103 0.000000 -0.049741 -0.217224 0.000000 -0.040400 -0.213545 0.000000 -0.030242 -0.211029 0.000000 -0.020240 -0.208295 0.000000 -0.009906 -0.207292 0.000000 
0.000392 -0.215534 0.000000 0.009068 -0.216503 0.000000 0.017765 -0.217281 0.000000 0.025924 -0.219810 0.000000 0.034026 -0.221799 0.000000 0.040886 -0.224864 0.000000 0.047363 -0.226684 0.000000 0.051706 -0.228529 0.000000 0.055213 -0.228442 0.000000 0.056031 -0.227784 0.000000 0.056402 -0.225968 0.000000 0.055689 -0.225731 0.000000 0.058369 -0.229406 0.000000 0.067224 -0.242833 0.000000 0.090500 -0.271595 0.000000 0.134956 -0.323327 0.000000 0.210047 -0.399908 0.000000 0.316539 -0.496504 0.000000 0.445855 -0.588238 0.000000 0.562801 -0.625520 0.000000 0.584545 -0.534270 0.000000 0.454623 -0.290068 0.000000 0.175913 0.092157 0.000000 -0.138140 0.501023 0.000000 -0.337646 0.726493 0.000000 -0.289274 0.705904 0.000000 -0.154112 0.606309 0.000000 -0.118746 0.662937 0.000000 -0.094634 0.699670 0.000000 -0.080577 0.696882 0.000000 -0.042294 0.737158 0.000000 -0.020955 0.756287 0.000000 0.000768 0.781387 0.000000 0.024072 0.756415 0.000000 0.043870 0.734641 0.000000 0.079588 0.698768 0.000000 0.098013 0.699854 0.000000 0.120586 0.660465 0.000000 0.155265 0.609988 0.000000 0.288158 0.704941 0.000000 0.338436 0.724184 0.000000 0.139768 0.501010 0.000000 -0.175436 0.097740 0.000000 -0.448716 -0.286808 0.000000 -0.581597 -0.534899 0.000000 -0.560809 -0.625537 0.000000 -0.445408 -0.589671 0.000000 -0.316198 -0.497901 0.000000 -0.209744 -0.401606 0.000000 -0.134400 -0.324668 0.000000 -0.089748 -0.272821 0.000000 -0.066312 -0.243714 0.000000 -0.057364 -0.230159 0.000000 -0.054656 -0.226261 0.000000 -0.055365 -0.226429 0.000000 -0.055029 -0.228115 0.000000 -0.054240 -0.228739 0.000000 -0.050781 -0.228744 0.000000 -0.046468 -0.226878 0.000000 -0.040033 -0.225000 0.000000 -0.033192 -0.221917 0.000000 -0.025121 -0.219885 0.000000 -0.016968 -0.217336 0.000000 -0.008289 -0.216527 0.000000 
0.000389 -0.223684 0.000000 0.007309 -0.224640 0.000000 0.014160 -0.225093 0.000000 0.020235 -0.227210 0.000000 0.025975 -0.228383 0.000000 0.029971 -0.230417 0.000000 0.033131 -0.230718 0.000000 0.033437 -0.230795 0.000000 0.032458 -0.228701 0.000000 0.028193 -0.226338 0.000000 0.023617 -0.223881 0.000000 0.018402 -0.225339 0.000000 0.018456 -0.234949 0.000000 0.027449 -0.260604 0.000000 0.055184 -0.309539 0.000000 0.108012 -0.389816 0.000000 0.193807 -0.497615 0.000000 0.304308 -0.617802 0.000000 0.418570 -0.700633 0.000000 0.475195 -0.652521 0.000000 0.348211 -0.399850 0.000000 0.110143 -0.015867 0.000000 -0.146123 0.365322 0.000000 -0.343258 0.626758 0.000000 -0.374294 0.692219 0.000000 -0.280474 0.654287 0.000000 -0.222262 0.573063 0.000000 -0.177464 0.566927 0.000000 -0.096214 0.611279 0.000000 -0.064268 0.672845 0.000000 -0.034534 0.746106 0.000000 -0.018847 0.781751 0.000000 0.000853 0.807640 0.000000 0.021015 0.782004 0.000000 0.036222 0.745125 0.000000 0.064293 0.674304 0.000000 0.099207 0.613147 0.000000 0.177012 0.566115 0.000000 0.224064 0.575869 0.000000 0.282246 0.653100 0.000000 0.378164 0.691825 0.000000 0.343239 0.631387 0.000000 0.144890 0.365557 0.000000 -0.103602 -0.018775 0.000000 -0.346771 -0.399233 0.000000 -0.474148 -0.651383 0.000000 -0.418750 -0.701091 0.000000 -0.304410 -0.619133 0.000000 -0.193870 -0.499409 0.000000 -0.107664 -0.391407 0.000000 -0.054557 -0.310955 0.000000 -0.026563 -0.261613 0.000000 -0.017435 -0.235753 0.000000 -0.017314 -0.225864 0.000000 -0.022524 -0.224301 0.000000 -0.027130 -0.226607 0.000000 -0.031438 -0.228930 0.000000 -0.032472 -0.230943 0.000000 -0.032210 -0.230850 0.000000 -0.029099 -0.230500 0.000000 -0.025134 -0.228458 0.000000 -0.019428 -0.227253 0.000000 -0.013367 -0.225127 0.000000 -0.006534 -0.224653 0.000000 