# vtk DataFile Version 2.0
Comment goes here
ASCII

DATASET STRUCTURED_POINTS
FIELD FieldData 1
TIME 1 1 double
0.71000000
DIMENSIONS    64   64   1

ORIGIN    0.000   0.000   0.000
SPACING   0.015625 0.015625   1.000

POINT_DATA   4096
VECTORS u double

0.000339 0.000000 0.000000 0.011367 0.000000 0.000000 0.022303 0.000000 0.000000 0.032910 0.000000 0.000000 0.043169 0.000000 0.000000 0.052806 0.000000 0.000000 0.061839 0.000000 0.000000 0.069940 0.000000 0.000000 0.077192 0.000000 0.000000 0.083174 0.000000 0.000000 0.088086 0.000000 0.000000 0.091361 0.000000 0.000000 0.093393 0.000000 0.000000 0.093407 0.000000 0.000000 0.092103 0.000000 0.000000 0.088426 0.000000 0.000000 0.083528 0.000000 0.000000 0.076002 0.000000 0.000000 0.067636 0.000000 0.000000 0.056602 0.000000 0.000000 0.045505 0.000000 0.000000 0.032064 0.000000 0.000000 0.019793 0.000000 0.000000 0.006004 0.000000 0.000000 -0.005010 0.000000 0.000000 -0.016213 0.000000 0.000000 -0.023017 0.000000 0.000000 -0.028501 0.000000 0.000000 -0.028647 0.000000 0.000000 -0.026555 0.000000 0.000000 -0.019777 0.000000 0.000000 -0.011276 0.000000 0.000000 -0.000717 0.000000 0.000000 0.009683 0.000000 0.000000 0.018530 0.000000 0.000000 0.025332 0.000000 0.000000 0.027844 0.000000 0.000000 0.027813 0.000000 0.000000 0.022675 0.000000 0.000000 0.015994 0.000000 0.000000 0.004974 0.000000 0.000000 -0.005934 0.000000 0.000000 -0.019700 0.000000 0.000000 -0.031865 0.000000 0.000000 -0.045386 0.000000 0.000000 -0.056364 0.000000 0.000000 -0.067522 0.000000 0.000000 -0.075755 0.000000 0.000000 -0.083403 0.000000 0.000000 -0.088167 0.000000 0.000000 -0.091936 0.000000 0.000000 -0.093116 0.000000 0.000000 -0.093153 0.000000 0.000000 -0.091016 0.000000 0.000000 -0.087752 0.000000 0.000000 -0.082760 0.000000 0.000000 -0.076756 0.000000 0.000000 -0.069451 0.000000 0.000000 -0.061307 0.000000 0.000000 -0.052250 0.000000 0.000000 -0.042559 0.000000 0.000000 -0.032304 0.000000 0.000000 -0.021643 0.000000 0.000000 -0.010733 0.000000 0.000000 
0.000391 -0.011050 0.000000 0.011448 -0.010982 0.000000 0.022411 -0.010772 0.000000 0.033046 -0.010433 0.000000 0.043329 -0.009948 0.000000 0.052993 -0.009335 0.000000 0.062049 -0.008567 0.000000 0.070178 -0.007677 0.000000 0.077453 -0.006617 0.000000 0.083465 -0.005447 0.000000 0.088402 -0.004093 0.000000 0.091710 -0.002653 0.000000 0.093770 -0.001023 0.000000 0.093823 0.000645 0.000000 0.092550 0.002491 0.000000 0.088912 0.004287 0.000000 0.084044 0.006212 0.000000 0.076548 0.007946 0.000000 0.068199 0.009700 0.000000 0.057162 0.011066 0.000000 0.046046 0.012269 0.000000 0.032537 0.012856 0.000000 0.020183 0.013030 0.000000 0.006231 0.012402 0.000000 -0.004941 0.011109 0.000000 -0.016383 0.009003 0.000000 -0.023367 0.006144 0.000000 -0.029061 0.002815 0.000000 -0.029285 -0.000973 0.000000 -0.027220 -0.004435 0.000000 -0.020313 -0.007640 0.000000 -0.011610 -0.009530 0.000000 -0.000774 -0.010480 0.000000 0.009906 -0.009624 0.000000 0.018965 -0.007824 0.000000 0.025905 -0.004657 0.000000 0.028407 -0.001241 0.000000 0.028305 0.002585 0.000000 0.022971 0.005910 0.000000 0.016112 0.008850 0.000000 0.004859 0.010964 0.000000 -0.006206 0.012337 0.000000 -0.020133 0.012965 0.000000 -0.032378 0.012843 0.000000 -0.045967 0.012249 0.000000 -0.056956 0.011068 0.000000 -0.068114 0.009696 0.000000 -0.076321 0.007941 0.000000 -0.083932 0.006206 0.000000 -0.088655 0.004267 0.000000 -0.092375 0.002475 0.000000 -0.093514 0.000609 0.000000 -0.093501 -0.001050 0.000000 -0.091325 -0.002701 0.000000 -0.088016 -0.004128 0.000000 -0.082990 -0.005498 0.000000 -0.076947 -0.006654 0.000000 -0.069611 -0.007725 0.000000 -0.061432 -0.008601 0.000000 -0.052345 -0.009374 0.000000 -0.042623 -0.009973 0.000000 -0.032339 -0.010458 0.000000 -0.021648 -0.010785 0.000000 -0.010709 -0.010991 0.000000 
0.000351 -0.022157 0.000000 0.011467 -0.022020 0.000000 0.022492 -0.021598 0.000000 0.033189 -0.020918 0.000000 0.043533 -0.019947 0.000000 0.053261 -0.018721 0.000000 0.062378 -0.017185 0.000000 0.070576 -0.015404 0.000000 0.077917 -0.013287 0.000000 0.084008 -0.010948 0.000000 0.089020 -0.008245 0.000000 0.092425 -0.005369 0.000000 0.094575 -0.002113 0.000000 0.094747 0.001220 0.000000 0.093584 0.004911 0.000000 0.090091 0.008505 0.000000 0.085354 0.012364 0.000000 0.078020 0.015845 0.000000 0.069810 0.019385 0.000000 0.058924 0.022153 0.000000 0.047925 0.024625 0.000000 0.034499 0.025864 0.000000 0.022187 0.026306 0.000000 0.008179 0.025123 0.000000 -0.003084 0.022614 0.000000 -0.014764 0.018427 0.000000 -0.021990 0.012678 0.000000 -0.028049 0.005917 0.000000 -0.028570 -0.001841 0.000000 -0.026828 -0.008972 0.000000 -0.020106 -0.015610 0.000000 -0.011543 -0.019539 0.000000 -0.000758 -0.021516 0.000000 0.009864 -0.019738 0.000000 0.018809 -0.015999 0.000000 0.025576 -0.009442 0.000000 0.027786 -0.002400 0.000000 0.027399 0.005436 0.000000 0.021714 0.012193 0.000000 0.014615 0.018112 0.000000 0.003114 0.022318 0.000000 -0.008048 0.024992 0.000000 -0.022057 0.026172 0.000000 -0.034265 0.025834 0.000000 -0.047798 0.024579 0.000000 -0.058673 0.022147 0.000000 -0.069702 0.019364 0.000000 -0.077773 0.015818 0.000000 -0.085239 0.012334 0.000000 -0.089836 0.008443 0.000000 -0.093425 0.004858 0.000000 -0.094459 0.001126 0.000000 -0.094338 -0.002188 0.000000 -0.092079 -0.005484 0.000000 -0.088682 -0.008335 0.000000 -0.083588 -0.011069 0.000000 -0.077470 -0.013379 0.000000 -0.070077 -0.015515 0.000000 -0.061830 -0.017266 0.000000 -0.052690 -0.018809 0.000000 -0.042903 -0.020007 0.000000 -0.032564 -0.020975 0.000000 -0.021809 -0.021630 0.000000 -0.010813 -0.022039 0.000000 
0.000417 -0.033331 0.000000 0.011646 -0.033124 0.000000 0.022781 -0.032494 0.000000 0.033592 -0.031473 0.000000 0.044041 -0.030020 0.000000 0.053885 -0.028181 0.000000 0.063106 -0.025882 0.000000 0.071426 -0.023215 0.000000 0.078876 -0.020049 0.000000 0.085106 -0.016550 0.000000 0.090243 -0.012510 0.000000 0.093816 -0.008209 0.000000 0.096120 -0.003346 0.000000 0.096502 0.001636 0.000000 0.095530 0.007147 0.000000 0.092294 0.012518 0.000000 0.087786 0.018284 0.000000 0.080734 0.023490 0.000000 0.072766 0.028796 0.000000 0.062119 0.032950 0.000000 0.051301 0.036694 0.000000 0.037939 0.038594 0.000000 0.025622 0.039350 0.000000 0.011339 0.037673 0.000000 -0.000240 0.034052 0.000000 -0.012599 0.027909 0.000000 -0.020424 0.019429 0.000000 -0.027332 0.009395 0.000000 -0.028405 -0.002194 0.000000 -0.027188 -0.012899 0.000000 -0.020564 -0.022925 0.000000 -0.011936 -0.028877 0.000000 -0.000857 -0.031887 0.000000 0.010059 -0.029191 0.000000 0.019117 -0.023536 0.000000 0.025816 -0.013634 0.000000 0.027569 -0.003063 0.000000 0.026654 0.008657 0.000000 0.020163 0.018693 0.000000 0.012468 0.027449 0.000000 0.000289 0.033627 0.000000 -0.011197 0.037508 0.000000 -0.025507 0.039182 0.000000 -0.037718 0.038584 0.000000 -0.051215 0.036657 0.000000 -0.061895 0.032972 0.000000 -0.072702 0.028795 0.000000 -0.080511 0.023478 0.000000 -0.087699 0.018269 0.000000 -0.092048 0.012453 0.000000 -0.095374 0.007098 0.000000 -0.096201 0.001521 0.000000 -0.095855 -0.003430 0.000000 -0.093429 -0.008357 0.000000 -0.089847 -0.012619 0.000000 -0.084617 -0.016709 0.000000 -0.078345 -0.020165 0.000000 -0.070833 -0.023365 0.000000 -0.062451 -0.025988 0.000000 -0.053201 -0.028301 0.000000 -0.043289 -0.030099 0.000000 -0.032842 -0.031551 0.000000 -0.021969 -0.032536 0.000000 -0.010862 -0.033151 0.000000 
0.000387 -0.044665 0.000000 0.011749 -0.044384 0.000000 0.023023 -0.043544 0.000000 0.033971 -0.042177 0.000000 0.044554 -0.040240 0.000000 0.054543 -0.037786 0.000000 0.063900 -0.034726 0.000000 0.072380 -0.031175 0.000000 0.079980 -0.026967 0.000000 0.086397 -0.022315 0.000000 0.091712 -0.016955 0.000000 0.095522 -0.011245 0.000000 0.098053 -0.004799 0.000000 0.098745 0.001810 0.000000 0.098072 0.009120 0.000000 0.095240 0.016250 0.000000 0.091119 0.023924 0.000000 0.084564 0.030865 0.000000 0.077062 0.038000 0.000000 0.066948 0.043618 0.000000 0.056615 0.048806 0.000000 0.043684 0.051543 0.000000 0.031743 0.052906 0.000000 0.017589 0.050985 0.000000 0.006092 0.046552 0.000000 -0.006616 0.038611 0.000000 -0.014818 0.027411 0.000000 -0.022583 0.013898 0.000000 -0.024471 -0.001985 0.000000 -0.024369 -0.016812 0.000000 -0.018690 -0.030862 0.000000 -0.011075 -0.039246 0.000000 -0.000873 -0.043511 0.000000 0.009154 -0.039713 0.000000 0.017264 -0.031756 0.000000 0.023042 -0.017894 0.000000 0.023761 -0.003238 0.000000 0.022054 0.012842 0.000000 0.014749 0.026379 0.000000 0.006679 0.037987 0.000000 -0.005867 0.045983 0.000000 -0.017288 0.050787 0.000000 -0.031525 0.052693 0.000000 -0.043368 0.051543 0.000000 -0.056488 0.048755 0.000000 -0.066677 0.043633 0.000000 -0.076993 0.037981 0.000000 -0.084328 0.030816 0.000000 -0.091048 0.023872 0.000000 -0.095004 0.016118 0.000000 -0.097945 0.009011 0.000000 -0.098471 0.001607 0.000000 -0.097827 -0.004960 0.000000 -0.095177 -0.011492 0.000000 -0.091362 -0.017147 0.000000 -0.085961 -0.022572 0.000000 -0.079499 -0.027163 0.000000 -0.071847 -0.031409 0.000000 -0.063301 -0.034898 0.000000 -0.053924 -0.037971 0.000000 -0.043860 -0.040366 0.000000 -0.033288 -0.042295 0.000000 -0.022268 -0.043610 0.000000 -0.011033 -0.044425 0.000000 
0.000471 -0.056113 0.000000 0.012007 -0.055759 0.000000 0.023452 -0.054715 0.000000 0.034578 -0.053005 0.000000 0.045329 -0.050592 0.000000 0.055504 -0.047527 0.000000 0.065033 -0.043719 0.000000 0.073718 -0.039294 0.000000 0.081507 -0.034066 0.000000 0.088172 -0.028282 0.000000 0.093721 -0.021634 0.000000 0.097853 -0.014549 0.000000 0.100699 -0.006569 0.000000 0.101836 0.001616 0.000000 0.101606 0.010652 0.000000 0.099389 0.019471 0.000000 0.095879 0.028960 0.000000 0.090120 0.037547 0.000000 0.083394 0.046412 0.000000 0.074175 0.053397 0.000000 0.064684 0.059958 0.000000 0.052511 0.063465 0.000000 0.041233 0.065445 0.000000 0.027301 0.063325 0.000000 0.015910 0.058257 0.000000 0.002482 0.048819 0.000000 -0.006483 0.035396 0.000000 -0.015826 0.019049 0.000000 -0.019082 -0.000408 0.000000 -0.020725 -0.018680 0.000000 -0.016382 -0.036218 0.000000 -0.010111 -0.046695 0.000000 -0.001010 -0.052116 0.000000 0.007920 -0.047328 0.000000 0.014766 -0.037424 0.000000 0.019262 -0.020131 0.000000 0.018361 -0.002075 0.000000 0.015313 0.017669 0.000000 0.006511 0.034068 0.000000 -0.002330 0.048066 0.000000 -0.015609 0.057594 0.000000 -0.026948 0.063166 0.000000 -0.041031 0.065262 0.000000 -0.052204 0.063548 0.000000 -0.064633 0.059967 0.000000 -0.073949 0.053476 0.000000 -0.083410 0.046445 0.000000 -0.089934 0.037533 0.000000 -0.095869 0.028946 0.000000 -0.099186 0.019349 0.000000 -0.101501 0.010565 0.000000 -0.101562 0.001403 0.000000 -0.100450 -0.006725 0.000000 -0.097467 -0.014821 0.000000 -0.093304 -0.021835 0.000000 -0.087654 -0.028573 0.000000 -0.080922 -0.034279 0.000000 -0.073071 -0.039563 0.000000 -0.064299 -0.043911 0.000000 -0.054746 -0.047742 0.000000 -0.044481 -0.050734 0.000000 -0.033741 -0.053143 0.000000 -0.022533 -0.054791 0.000000 -0.011129 -0.055807 0.000000 
0.000453 -0.067800 0.000000 0.012166 -0.067365 0.000000 0.023794 -0.066115 0.000000 0.035109 -0.064054 0.000000 0.046041 -0.061166 0.000000 0.056421 -0.057489 0.000000 0.066143 -0.052940 0.000000 0.075064 -0.047649 0.000000 0.083080 -0.041421 0.000000 0.090042 -0.034529 0.000000 0.095890 -0.026636 0.000000 0.100430 -0.018223 0.000000 0.103703 -0.008782 0.000000 0.105432 0.000903 0.000000 0.105827 0.011567 0.000000 0.104465 0.021977 0.000000 0.101839 0.033193 0.000000 0.097238 0.043349 0.000000 0.091672 0.053945 0.000000 0.083851 0.062328 0.000000 0.075727 0.070470 0.000000 0.064978 0.074994 0.000000 0.055102 0.078116 0.000000 0.042248 0.076307 0.000000 0.031950 0.071371 0.000000 0.018818 0.061004 0.000000 0.010019 0.045718 0.000000 -0.000404 0.026498 0.000000 -0.005186 0.002914 0.000000 -0.009603 -0.019513 0.000000 -0.008452 -0.041476 0.000000 -0.006106 -0.054618 0.000000 -0.001036 -0.061542 0.000000 0.003837 -0.055489 0.000000 0.006851 -0.043098 0.000000 0.008179 -0.021489 0.000000 0.004629 0.000711 0.000000 0.000079 0.024692 0.000000 -0.009727 0.044022 0.000000 -0.018398 0.060107 0.000000 -0.031412 0.070601 0.000000 -0.041691 0.076209 0.000000 -0.054804 0.077949 0.000000 -0.064578 0.075145 0.000000 -0.075677 0.070501 0.000000 -0.083602 0.062410 0.000000 -0.091725 0.053966 0.000000 -0.097064 0.043275 0.000000 -0.101878 0.033123 0.000000 -0.104293 0.021749 0.000000 -0.105773 0.011387 0.000000 -0.105202 0.000556 0.000000 -0.103504 -0.009055 0.000000 -0.100096 -0.018638 0.000000 -0.095521 -0.026960 0.000000 -0.089579 -0.034954 0.000000 -0.082540 -0.041746 0.000000 -0.074471 -0.048032 0.000000 -0.065450 -0.053222 0.000000 -0.055716 -0.057788 0.000000 -0.045233 -0.061371 0.000000 -0.034322 -0.064243 0.000000 -0.022913 -0.066223 0.000000 -0.011338 -0.067429 0.000000 
0.000558 -0.079617 0.000000 0.012472 -0.079101 0.000000 0.024300 -0.077658 0.000000 0.035826 -0.075252 0.000000 0.046958 -0.071904 0.000000 0.057570 -0.067628 0.000000 0.067508 -0.062363 0.000000 0.076704 -0.056232 0.000000 0.084986 -0.049044 0.000000 0.092307 -0.041092 0.000000 0.098527 -0.032022 0.000000 0.103592 -0.022362 0.000000 0.107432 -0.011571 0.000000 0.109973 -0.000508 0.000000 0.111246 0.011619 0.000000 0.111109 0.023459 0.000000 0.109773 0.036186 0.000000 0.106876 0.047714 0.000000 0.103034 0.059798 0.000000 0.097310 0.069342 0.000000 0.091236 0.078831 0.000000 0.082648 0.084091 0.000000 0.074819 0.088175 0.000000 0.063492 0.086477 0.000000 0.054524 0.081687 0.000000 0.041129 0.070750 0.000000 0.031768 0.054618 0.000000 0.018884 0.034253 0.000000 0.011496 0.008790 0.000000 0.003172 -0.015414 0.000000 0.000401 -0.039714 0.000000 -0.001772 -0.054111 0.000000 -0.001211 -0.062059 0.000000 -0.000824 -0.055215 0.000000 -0.002231 -0.041767 0.000000 -0.004753 -0.017909 0.000000 -0.012005 0.006024 0.000000 -0.019170 0.032025 0.000000 -0.031292 0.052546 0.000000 -0.040549 0.069751 0.000000 -0.053855 0.080887 0.000000 -0.062853 0.086558 0.000000 -0.074579 0.088149 0.000000 -0.082276 0.084420 0.000000 -0.091340 0.078991 0.000000 -0.097153 0.069524 0.000000 -0.103249 0.059908 0.000000 -0.106811 0.047686 0.000000 -0.109934 0.036175 0.000000 -0.111020 0.023244 0.000000 -0.111250 0.011474 0.000000 -0.109771 -0.000865 0.000000 -0.107221 -0.011831 0.000000 -0.103221 -0.022805 0.000000 -0.098078 -0.032352 0.000000 -0.091747 -0.041554 0.000000 -0.084313 -0.049387 0.000000 -0.075968 -0.056653 0.000000 -0.066646 -0.062666 0.000000 -0.056690 -0.067960 0.000000 -0.045955 -0.072128 0.000000 -0.034845 -0.075462 0.000000 -0.023212 -0.077776 0.000000 -0.011441 -0.079173 0.000000 
0.000552 -0.091713 0.000000 0.012650 -0.091107 0.000000 0.024669 -0.089469 0.000000 0.036398 -0.086713 0.000000 0.047727 -0.082911 0.000000 0.058576 -0.078040 0.000000 0.068742 -0.072074 0.000000 0.078238 -0.065127 0.000000 0.086827 -0.057024 0.000000 0.094574 -0.048069 0.000000 0.101263 -0.037921 0.000000 0.106990 -0.027129 0.000000 0.111590 -0.015162 0.000000 0.115181 -0.002910 0.000000 0.117637 0.010431 0.000000 0.119079 0.023450 0.000000 0.119415 0.037426 0.000000 0.118658 0.050088 0.000000 0.116918 0.063511 0.000000 0.113758 0.074126 0.000000 0.110088 0.085132 0.000000 0.104183 0.091411 0.000000 0.098974 0.097272 0.000000 0.089973 0.096602 0.000000 0.083674 0.093734 0.000000 0.071938 0.083760 0.000000 0.064373 0.067962 0.000000 0.050955 0.046770 0.000000 0.041713 0.018627 0.000000 0.028492 -0.008418 0.000000 0.018991 -0.036532 0.000000 0.007907 -0.053006 0.000000 -0.001216 -0.062490 0.000000 -0.010556 -0.054468 0.000000 -0.020787 -0.039169 0.000000 -0.030060 -0.011715 0.000000 -0.042047 0.015128 0.000000 -0.051095 0.043980 0.000000 -0.063601 0.065401 0.000000 -0.071013 0.082669 0.000000 -0.082678 0.092904 0.000000 -0.089054 0.096933 0.000000 -0.098667 0.097372 0.000000 -0.103723 0.091906 0.000000 -0.110260 0.085378 0.000000 -0.113614 0.074319 0.000000 -0.117233 0.063623 0.000000 -0.118649 0.049960 0.000000 -0.119677 0.037333 0.000000 -0.119066 0.023066 0.000000 -0.117733 0.010137 0.000000 -0.115059 -0.003474 0.000000 -0.111455 -0.015605 0.000000 -0.106693 -0.027781 0.000000 -0.100873 -0.038433 0.000000 -0.094078 -0.048719 0.000000 -0.086194 -0.057526 0.000000 -0.077553 -0.065699 0.000000 -0.067906 -0.072500 0.000000 -0.057737 -0.078479 0.000000 -0.046743 -0.083216 0.000000 -0.035451 -0.086986 0.000000 -0.023595 -0.089627 0.000000 -0.011649 -0.091199 0.000000 
0.000683 -0.103915 0.000000 0.012967 -0.103218 0.000000 0.025174 -0.101406 0.000000 0.037112 -0.098310 0.000000 0.048638 -0.094082 0.000000 0.059738 -0.088643 0.000000 0.070146 -0.082024 0.000000 0.079975 -0.074317 0.000000 0.088918 -0.065379 0.000000 0.097169 -0.055529 0.000000 0.104442 -0.044439 0.000000 0.111002 -0.032689 0.000000 0.116586 -0.019762 0.000000 0.121548 -0.006554 0.000000 0.125546 0.007721 0.000000 0.129048 0.021680 0.000000 0.131512 0.036607 0.000000 0.133473 0.050211 0.000000 0.134318 0.064698 0.000000 0.134339 0.076172 0.000000 0.133577 0.088407 0.000000 0.131060 0.095205 0.000000 0.128983 0.102385 0.000000 0.122918 0.101777 0.000000 0.119397 0.099722 0.000000 0.107559 0.090051 0.000000 0.099495 0.075601 0.000000 0.082182 0.056914 0.000000 0.069003 0.031253 0.000000 0.049784 0.007308 0.000000 0.034025 -0.019129 0.000000 0.015495 -0.033904 0.000000 -0.001430 -0.043595 0.000000 -0.018491 -0.035644 0.000000 -0.036128 -0.022263 0.000000 -0.051551 0.003351 0.000000 -0.069197 0.027058 0.000000 -0.082375 0.053578 0.000000 -0.098489 0.072464 0.000000 -0.106396 0.088828 0.000000 -0.118172 0.098929 0.000000 -0.121853 0.102548 0.000000 -0.128800 0.102818 0.000000 -0.130606 0.096013 0.000000 -0.134001 0.088881 0.000000 -0.134333 0.076497 0.000000 -0.134890 0.064943 0.000000 -0.133663 0.050130 0.000000 -0.131984 0.036592 0.000000 -0.129207 0.021300 0.000000 -0.125761 0.007467 0.000000 -0.121509 -0.007143 0.000000 -0.116459 -0.020197 0.000000 -0.110680 -0.033386 0.000000 -0.103957 -0.044968 0.000000 -0.096554 -0.056233 0.000000 -0.088114 -0.065911 0.000000 -0.079106 -0.074941 0.000000 -0.069091 -0.082483 0.000000 -0.058675 -0.089123 0.000000 -0.047407 -0.094413 0.000000 -0.035921 -0.098610 0.000000 -0.023841 -0.101578 0.000000 -0.011714 -0.103320 0.000000 
0.000691 -0.116395 0.000000 0.013121 -0.115598 0.000000 0.025481 -0.113613 0.000000 0.037598 -0.110177 0.000000 0.049296 -0.105537 0.000000 0.060639 -0.099548 0.000000 0.071288 -0.092312 0.000000 0.081483 -0.083899 0.000000 0.090836 -0.074217 0.000000 0.099699 -0.063594 0.000000 0.107722 -0.051755 0.000000 0.115340 -0.039273 0.000000 0.122222 -0.025708 0.000000 0.128891 -0.011870 0.000000 0.134829 0.002931 0.000000 0.140699 0.017484 0.000000 0.145507 0.033001 0.000000 0.150189 0.047282 0.000000 0.153261 0.062644 0.000000 0.155957 0.074867 0.000000 0.157004 0.088412 0.000000 0.156905 0.096005 0.000000 0.156661 0.105413 0.000000 0.152225 0.106188 0.000000 0.151732 0.109094 0.000000 0.142679 0.103662 0.000000 0.139759 0.093339 0.000000 0.124564 0.077262 0.000000 0.111490 0.051024 0.000000 0.087077 0.026561 0.000000 0.062268 -0.002243 0.000000 0.030520 -0.017551 0.000000 -0.001308 -0.028504 0.000000 -0.033345 -0.019770 0.000000 -0.064251 -0.006109 0.000000 -0.088904 0.021353 0.000000 -0.111602 0.045953 0.000000 -0.124952 0.073272 0.000000 -0.138639 0.089422 0.000000 -0.141120 0.102351 0.000000 -0.149968 0.108361 0.000000 -0.150691 0.107561 0.000000 -0.156470 0.106125 0.000000 -0.156334 0.097107 0.000000 -0.157547 0.089106 0.000000 -0.155966 0.075209 0.000000 -0.153961 0.062952 0.000000 -0.150466 0.047053 0.000000 -0.146122 0.032878 0.000000 -0.140989 0.016843 0.000000 -0.135190 0.002439 0.000000 -0.128991 -0.012776 0.000000 -0.122216 -0.026433 0.000000 -0.115136 -0.040283 0.000000 -0.107318 -0.052559 0.000000 -0.099169 -0.064563 0.000000 -0.090074 -0.074973 0.000000 -0.080667 -0.084722 0.000000 -0.070245 -0.092931 0.000000 -0.059604 -0.100162 0.000000 -0.048060 -0.105969 0.000000 -0.036421 -0.110552 0.000000 -0.024135 -0.113834 0.000000 -0.011874 -0.115723 0.000000 
0.000850 -0.128910 0.000000 0.013403 -0.128008 0.000000 0.025886 -0.125884 0.000000 0.038167 -0.122124 0.000000 0.050016 -0.117123 0.000000 0.061603 -0.110635 0.000000 0.072502 -0.102869 0.000000 0.083099 -0.093865 0.000000 0.092933 -0.083595 0.000000 0.102514 -0.072415 0.000000 0.111462 -0.060080 0.000000 0.120357 -0.047189 0.000000 0.128819 -0.033313 0.000000 0.137499 -0.019161 0.000000 0.145612 -0.004087 0.000000 0.154018 0.011002 0.000000 0.161011 0.027117 0.000000 0.168090 0.042457 0.000000 0.172605 0.058931 0.000000 0.177159 0.072429 0.000000 0.179047 0.087458 0.000000 0.180988 0.095548 0.000000 0.182261 0.107065 0.000000 0.181452 0.106706 0.000000 0.185017 0.109268 0.000000 0.174174 0.102023 0.000000 0.169144 0.093717 0.000000 0.146432 0.085183 0.000000 0.128252 0.068739 0.000000 0.098539 0.056530 0.000000 0.070145 0.037428 0.000000 0.034572 0.029671 0.000000 -0.001488 0.020270 0.000000 -0.037555 0.027300 0.000000 -0.072603 0.033296 0.000000 -0.100573 0.050702 0.000000 -0.127908 0.063106 0.000000 -0.147373 0.080616 0.000000 -0.168093 0.088631 0.000000 -0.172478 0.100157 0.000000 -0.183009 0.108500 0.000000 -0.179798 0.109049 0.000000 -0.182423 0.108460 0.000000 -0.180284 0.097090 0.000000 -0.179908 0.088514 0.000000 -0.177283 0.072912 0.000000 -0.173590 0.059443 0.000000 -0.168645 0.042291 0.000000 -0.161895 0.027116 0.000000 -0.154593 0.010368 0.000000 -0.146158 -0.004531 0.000000 -0.137759 -0.020117 0.000000 -0.128846 -0.034052 0.000000 -0.120143 -0.048284 0.000000 -0.110939 -0.060935 0.000000 -0.101831 -0.073477 0.000000 -0.091944 -0.084413 0.000000 -0.082040 -0.094769 0.000000 -0.071175 -0.103545 0.000000 -0.060282 -0.111308 0.000000 -0.048471 -0.117596 0.000000 -0.036686 -0.122535 0.000000 -0.024222 -0.126125 0.000000 -0.011848 -0.128146 0.000000 
0.000874 -0.141646 0.000000 0.013472 -0.140633 0.000000 0.026006 -0.138377 0.000000 0.038390 -0.134308 0.000000 0.050330 -0.128973 0.000000 0.062134 -0.122034 0.000000 0.073261 -0.113808 0.000000 0.084301 -0.104329 0.000000 0.094686 -0.093631 0.000000 0.105146 -0.082122 0.000000 0.115247 -0.069598 0.000000 0.125712 -0.056630 0.000000 0.136112 -0.042849 0.000000 0.147042 -0.028664 0.000000 0.157486 -0.013588 0.000000 0.168047 0.002085 0.000000 0.176428 0.018928 0.000000 0.184216 0.035688 0.000000 0.187709 0.053576 0.000000 0.191177 0.068424 0.000000 0.189724 0.084583 0.000000 0.190449 0.092792 0.000000 0.188079 0.104949 0.000000 0.182815 0.103432 0.000000 0.185504 0.116372 0.000000 0.177717 0.119535 0.000000 0.186173 0.121081 0.000000 0.174155 0.118154 0.000000 0.163452 0.098917 0.000000 0.133265 0.084668 0.000000 0.098167 0.061724 0.000000 0.049966 0.054082 0.000000 -0.000831 0.043624 0.000000 -0.051783 0.051345 0.000000 -0.100053 0.056908 0.000000 -0.135454 0.076659 0.000000 -0.163348 0.092752 0.000000 -0.176535 0.113457 0.000000 -0.186213 0.114527 0.000000 -0.176208 0.117267 0.000000 -0.182905 0.115680 0.000000 -0.180630 0.106976 0.000000 -0.188786 0.106611 0.000000 -0.189742 0.094592 0.000000 -0.190728 0.086105 0.000000 -0.191197 0.068891 0.000000 -0.188647 0.054314 0.000000 -0.184733 0.035358 0.000000 -0.177361 0.018825 0.000000 -0.168736 0.001106 0.000000 -0.158197 -0.014395 0.000000 -0.147505 -0.030087 0.000000 -0.136320 -0.044049 0.000000 -0.125686 -0.058190 0.000000 -0.114844 -0.070872 0.000000 -0.104585 -0.083558 0.000000 -0.093745 -0.094764 0.000000 -0.083299 -0.105491 0.000000 -0.071929 -0.114690 0.000000 -0.060825 -0.122866 0.000000 -0.048752 -0.129565 0.000000 -0.036896 -0.134801 0.000000 -0.024299 -0.138672 0.000000 -0.011893 -0.140796 0.000000 
0.001061 -0.154275 0.000000 0.013640 -0.153140 0.000000 0.026149 -0.150801 0.000000 0.038588 -0.146448 0.000000 0.050563 -0.140866 0.000000 0.062565 -0.133566 0.000000 0.073915 -0.125036 0.000000 0.085432 -0.115291 0.000000 0.096454 -0.104440 0.000000 0.107902 -0.092976 0.000000 0.119345 -0.080647 0.000000 0.131513 -0.068054 0.000000 0.143961 -0.054643 0.000000 0.156964 -0.040535 0.000000 0.169124 -0.025092 0.000000 0.180580 -0.007940 0.000000 0.188068 0.010948 0.000000 0.193589 0.031176 0.000000 0.192154 0.051970 0.000000 0.190630 0.070414 0.000000 0.182783 0.088186 0.000000 0.180132 0.097192 0.000000 0.174351 0.114698 0.000000 0.178952 0.109281 0.000000 0.193782 0.114366 0.000000 0.182372 0.101354 0.000000 0.182122 0.097278 0.000000 0.150190 0.107905 0.000000 0.128382 0.109629 0.000000 0.096534 0.121815 0.000000 0.070463 0.120727 0.000000 0.036551 0.128669 0.000000 -0.000505 0.122019 0.000000 -0.037557 0.126521 0.000000 -0.073026 0.116967 0.000000 -0.098552 0.113997 0.000000 -0.126335 0.104188 0.000000 -0.154247 0.103481 0.000000 -0.184026 0.088304 0.000000 -0.182461 0.096849 0.000000 -0.192707 0.112922 0.000000 -0.178141 0.114930 0.000000 -0.176676 0.117572 0.000000 -0.179032 0.099031 0.000000 -0.184145 0.089969 0.000000 -0.190659 0.070832 0.000000 -0.193124 0.052978 0.000000 -0.194326 0.031005 0.000000 -0.189132 0.011119 0.000000 -0.181584 -0.008797 0.000000 -0.170003 -0.025763 0.000000 -0.157623 -0.041994 0.000000 -0.144196 -0.055871 0.000000 -0.131460 -0.069761 0.000000 -0.118770 -0.082036 0.000000 -0.107119 -0.094576 0.000000 -0.095200 -0.105699 0.000000 -0.084100 -0.116585 0.000000 -0.072210 -0.126020 0.000000 -0.060888 -0.134485 0.000000 -0.048601 -0.141525 0.000000 -0.036722 -0.146989 0.000000 -0.024064 -0.151128 0.000000 -0.011694 -0.153318 0.000000 
0.001101 -0.166981 0.000000 0.013519 -0.165722 0.000000 0.025866 -0.163325 0.000000 0.038237 -0.158722 0.000000 0.050119 -0.152951 0.000000 0.062245 -0.145385 0.000000 0.073734 -0.136674 0.000000 0.085743 -0.126867 0.000000 0.097424 -0.116102 0.000000 0.110006 -0.105013 0.000000 0.122936 -0.093210 0.000000 0.136963 -0.081247 0.000000 0.151473 -0.068300 0.000000 0.166084 -0.053826 0.000000 0.178975 -0.037204 0.000000 0.188973 -0.016859 0.000000 0.192528 0.005919 0.000000 0.191010 0.031602 0.000000 0.180073 0.056535 0.000000 0.169006 0.077796 0.000000 0.150541 0.095081 0.000000 0.149106 0.101223 0.000000 0.136792 0.106129 0.000000 0.124553 0.084000 0.000000 0.122422 0.112951 0.000000 0.119948 0.131195 0.000000 0.160662 0.153264 0.000000 0.171445 0.171894 0.000000 0.171678 0.152573 0.000000 0.139241 0.142587 0.000000 0.101223 0.121707 0.000000 0.052242 0.125050 0.000000 0.001778 0.117732 0.000000 -0.049216 0.123866 0.000000 -0.099655 0.117904 0.000000 -0.141231 0.129968 0.000000 -0.172076 0.148447 0.000000 -0.178488 0.171147 0.000000 -0.166584 0.142741 0.000000 -0.124007 0.125948 0.000000 -0.123408 0.111360 0.000000 -0.124623 0.090944 0.000000 -0.142313 0.107503 0.000000 -0.149355 0.102061 0.000000 -0.152239 0.097732 0.000000 -0.168698 0.077869 0.000000 -0.180309 0.057980 0.000000 -0.191121 0.031367 0.000000 -0.193119 0.006083 0.000000 -0.189778 -0.018024 0.000000 -0.179866 -0.038355 0.000000 -0.166931 -0.055894 0.000000 -0.151924 -0.070213 0.000000 -0.137180 -0.083616 0.000000 -0.122529 -0.095212 0.000000 -0.109398 -0.107128 0.000000 -0.096223 -0.117783 0.000000 -0.084473 -0.128482 0.000000 -0.072000 -0.137902 0.000000 -0.060557 -0.146474 0.000000 -0.048091 -0.153731 0.000000 -0.036326 -0.159338 0.000000 -0.023702 -0.163700 0.000000 -0.011516 -0.165920 0.000000 
0.001308 -0.179310 0.000000 0.013424 -0.177905 0.000000 0.025451 -0.175519 0.000000 0.037642 -0.170701 0.000000 0.049303 -0.164874 0.000000 0.061486 -0.157181 0.000000 0.073047 -0.148535 0.000000 0.085541 -0.138981 0.000000 0.097905 -0.128702 0.000000 0.111620 -0.118488 0.000000 0.126059 -0.107605 0.000000 0.141626 -0.096591 0.000000 0.157609 -0.083764 0.000000 0.172226 -0.068037 0.000000 0.183186 -0.047981 0.000000 0.187543 -0.021492 0.000000 0.181452 0.008910 0.000000 0.167185 0.043631 0.000000 0.141067 0.073975 0.000000 0.118463 0.099946 0.000000 0.093037 0.108087 0.000000 0.087436 0.110941 0.000000 0.075355 0.139251 0.000000 0.122660 0.123652 0.000000 0.168765 0.118971 0.000000 0.180673 0.063114 0.000000 0.169754 0.045782 0.000000 0.148117 0.096889 0.000000 0.131008 0.141833 0.000000 0.097858 0.192270 0.000000 0.068221 0.207725 0.000000 0.034948 0.228114 0.000000 0.004393 0.223477 0.000000 -0.029473 0.227955 0.000000 -0.058877 0.208982 0.000000 -0.098131 0.186418 0.000000 -0.136103 0.141444 0.000000 -0.153271 0.097989 0.000000 -0.175041 0.033824 0.000000 -0.190710 0.053673 0.000000 -0.180702 0.113538 0.000000 -0.130829 0.133835 0.000000 -0.084612 0.142304 0.000000 -0.086686 0.108958 0.000000 -0.095550 0.109312 0.000000 -0.118999 0.098901 0.000000 -0.140771 0.075401 0.000000 -0.167268 0.043814 0.000000 -0.181598 0.009777 0.000000 -0.188382 -0.022050 0.000000 -0.183959 -0.048610 0.000000 -0.173089 -0.069936 0.000000 -0.157936 -0.085621 0.000000 -0.141670 -0.099156 0.000000 -0.125338 -0.109818 0.000000 -0.110641 -0.120882 0.000000 -0.096248 -0.130624 0.000000 -0.083807 -0.140807 0.000000 -0.070822 -0.149936 0.000000 -0.059330 -0.158394 0.000000 -0.046811 -0.165756 0.000000 -0.035294 -0.171378 0.000000 -0.022859 -0.175939 0.000000 -0.011007 -0.178121 0.000000 