# vtk DataFile Version 2.0
Comment goes here
ASCII

DATASET STRUCTURED_POINTS
FIELD FieldData 1
TIME 1 1 double
0.61000000
DIMENSIONS    64   64   1

ORIGIN    0.000   0.000   0.000
SPACING   0.015625 0.015625   1.000

POINT_DATA   4096
VECTORS u double

0.000503 0.000000 0.000000 0.012944 0.000000 0.000000 0.025326 0.000000 0.000000 0.037548 0.000000 0.000000 0.049471 0.000000 0.000000 0.061112 0.000000 0.000000 0.072195 0.000000 0.000000 0.082816 0.000000 0.000000 0.092595 0.000000 0.000000 0.101651 0.000000 0.000000 0.109551 0.000000 0.000000 0.116376 0.000000 0.000000 0.121707 0.000000 0.000000 0.125532 0.000000 0.000000 0.127533 0.000000 0.000000 0.127573 0.000000 0.000000 0.125543 0.000000 0.000000 0.121187 0.000000 0.000000 0.114735 0.000000 0.000000 0.105867 0.000000 0.000000 0.095259 0.000000 0.000000 0.082631 0.000000 0.000000 0.069116 0.000000 0.000000 0.054610 0.000000 0.000000 0.040516 0.000000 0.000000 0.027023 0.000000 0.000000 0.015376 0.000000 0.000000 0.006010 0.000000 0.000000 -0.000534 0.000000 0.000000 -0.003993 0.000000 0.000000 -0.004782 0.000000 0.000000 -0.003410 0.000000 0.000000 -0.000789 0.000000 0.000000 0.001705 0.000000 0.000000 0.003339 0.000000 0.000000 0.002651 0.000000 0.000000 -0.000580 0.000000 0.000000 -0.006833 0.000000 0.000000 -0.016122 0.000000 0.000000 -0.027410 0.000000 0.000000 -0.040980 0.000000 0.000000 -0.054769 0.000000 0.000000 -0.069411 0.000000 0.000000 -0.082713 0.000000 0.000000 -0.095437 0.000000 0.000000 -0.105911 0.000000 0.000000 -0.114790 0.000000 0.000000 -0.121165 0.000000 0.000000 -0.125451 0.000000 0.000000 -0.127439 0.000000 0.000000 -0.127275 0.000000 0.000000 -0.125255 0.000000 0.000000 -0.121278 0.000000 0.000000 -0.115941 0.000000 0.000000 -0.108960 0.000000 0.000000 -0.101064 0.000000 0.000000 -0.091861 0.000000 0.000000 -0.082096 0.000000 0.000000 -0.071345 0.000000 0.000000 -0.060285 0.000000 0.000000 -0.048535 0.000000 0.000000 -0.036649 0.000000 0.000000 -0.024337 0.000000 0.000000 -0.012006 0.000000 0.000000 
0.000510 -0.012475 0.000000 0.012956 -0.012411 0.000000 0.025343 -0.012302 0.000000 0.037574 -0.012073 0.000000 0.049509 -0.011782 0.000000 0.061168 -0.011362 0.000000 0.072279 -0.010852 0.000000 0.082937 -0.010200 0.000000 0.092769 -0.009417 0.000000 0.101893 -0.008478 0.000000 0.109886 -0.007362 0.000000 0.116825 -0.006078 0.000000 0.122302 -0.004578 0.000000 0.126302 -0.002913 0.000000 0.128509 -0.001020 0.000000 0.128791 0.000995 0.000000 0.127024 0.003193 0.000000 0.122972 0.005404 0.000000 0.116815 0.007660 0.000000 0.108280 0.009738 0.000000 0.097955 0.011618 0.000000 0.085615 0.013071 0.000000 0.072296 0.014011 0.000000 0.057907 0.014300 0.000000 0.043814 0.013794 0.000000 0.030125 0.012570 0.000000 0.018163 0.010506 0.000000 0.008252 0.007955 0.000000 0.001083 0.005001 0.000000 -0.003017 0.002124 0.000000 -0.004302 -0.000291 0.000000 -0.003239 -0.001996 0.000000 -0.000788 -0.002557 0.000000 0.001536 -0.002064 0.000000 0.002871 -0.000473 0.000000 0.001699 0.001959 0.000000 -0.002175 0.004742 0.000000 -0.009045 0.007771 0.000000 -0.018896 0.010289 0.000000 -0.030493 0.012429 0.000000 -0.044275 0.013679 0.000000 -0.058068 0.014216 0.000000 -0.072600 0.013972 0.000000 -0.085717 0.013013 0.000000 -0.098149 0.011599 0.000000 -0.108351 0.009677 0.000000 -0.116887 0.007627 0.000000 -0.122973 0.005330 0.000000 -0.126944 0.003137 0.000000 -0.128674 0.000912 0.000000 -0.128259 -0.001092 0.000000 -0.126033 -0.002999 0.000000 -0.121876 -0.004657 0.000000 -0.116392 -0.006159 0.000000 -0.109293 -0.007439 0.000000 -0.101301 -0.008549 0.000000 -0.092029 -0.009484 0.000000 -0.082207 -0.010258 0.000000 -0.071419 -0.010905 0.000000 -0.060330 -0.011405 0.000000 -0.048561 -0.011818 0.000000 -0.036660 -0.012099 0.000000 -0.024342 -0.012321 0.000000 -0.012004 -0.012420 0.000000 
0.000514 -0.024959 0.000000 0.012976 -0.024833 0.000000 0.025377 -0.024619 0.000000 0.037626 -0.024166 0.000000 0.049568 -0.023594 0.000000 0.061244 -0.022770 0.000000 0.072358 -0.021768 0.000000 0.083036 -0.020490 0.000000 0.092877 -0.018956 0.000000 0.102037 -0.017117 0.000000 0.110059 -0.014932 0.000000 0.117062 -0.012416 0.000000 0.122600 -0.009477 0.000000 0.126697 -0.006207 0.000000 0.129000 -0.002490 0.000000 0.129394 0.001486 0.000000 0.127734 0.005820 0.000000 0.123760 0.010208 0.000000 0.117667 0.014692 0.000000 0.109093 0.018860 0.000000 0.098698 0.022665 0.000000 0.086107 0.025659 0.000000 0.072492 0.027708 0.000000 0.057612 0.028481 0.000000 0.042992 0.027782 0.000000 0.028736 0.025652 0.000000 0.016261 0.021873 0.000000 0.006122 0.017080 0.000000 -0.001076 0.011269 0.000000 -0.004786 0.005385 0.000000 -0.005616 0.000222 0.000000 -0.003932 -0.003514 0.000000 -0.000838 -0.004775 0.000000 0.002081 -0.003659 0.000000 0.004105 -0.000164 0.000000 0.003387 0.005046 0.000000 -0.000044 0.010744 0.000000 -0.006898 0.016721 0.000000 -0.016964 0.021448 0.000000 -0.029021 0.025379 0.000000 -0.043398 0.027575 0.000000 -0.057693 0.028325 0.000000 -0.072758 0.027650 0.000000 -0.086164 0.025549 0.000000 -0.098872 0.022634 0.000000 -0.109144 0.018738 0.000000 -0.117727 0.014622 0.000000 -0.123752 0.010057 0.000000 -0.127643 0.005701 0.000000 -0.129270 0.001315 0.000000 -0.128737 -0.002642 0.000000 -0.126419 -0.006383 0.000000 -0.122160 -0.009641 0.000000 -0.116618 -0.012583 0.000000 -0.109451 -0.015090 0.000000 -0.101435 -0.017264 0.000000 -0.092124 -0.019094 0.000000 -0.082296 -0.020610 0.000000 -0.071486 -0.021877 0.000000 -0.060395 -0.022858 0.000000 -0.048610 -0.023669 0.000000 -0.036703 -0.024220 0.000000 -0.024367 -0.024657 0.000000 -0.012017 -0.024851 0.000000 
0.000531 -0.037468 0.000000 0.013009 -0.037275 0.000000 0.025421 -0.036952 0.000000 0.037690 -0.036263 0.000000 0.049651 -0.035400 0.000000 0.061366 -0.034152 0.000000 0.072525 -0.032644 0.000000 0.083284 -0.030720 0.000000 0.093229 -0.028419 0.000000 0.102549 -0.025659 0.000000 0.110776 -0.022387 0.000000 0.118062 -0.018619 0.000000 0.123951 -0.014213 0.000000 0.128488 -0.009313 0.000000 0.131306 -0.003718 0.000000 0.132305 0.002261 0.000000 0.131301 0.008827 0.000000 0.128050 0.015471 0.000000 0.122667 0.022328 0.000000 0.114812 0.028708 0.000000 0.105020 0.034603 0.000000 0.092929 0.039278 0.000000 0.079588 0.042506 0.000000 0.064690 0.043799 0.000000 0.049781 0.042670 0.000000 0.034729 0.039301 0.000000 0.021227 0.033121 0.000000 0.009610 0.025292 0.000000 0.000729 0.015909 0.000000 -0.004349 0.006665 0.000000 -0.006061 -0.001146 0.000000 -0.004427 -0.006774 0.000000 -0.000878 -0.008570 0.000000 0.002443 -0.007007 0.000000 0.004522 -0.001779 0.000000 0.002951 0.006108 0.000000 -0.001809 0.015027 0.000000 -0.010292 0.024691 0.000000 -0.021874 0.032412 0.000000 -0.034885 0.038863 0.000000 -0.050130 0.042351 0.000000 -0.064703 0.043576 0.000000 -0.079844 0.042443 0.000000 -0.092997 0.039128 0.000000 -0.105216 0.034579 0.000000 -0.114908 0.028531 0.000000 -0.122752 0.022235 0.000000 -0.128084 0.015247 0.000000 -0.131226 0.008655 0.000000 -0.132206 0.002005 0.000000 -0.131045 -0.003943 0.000000 -0.128216 -0.009575 0.000000 -0.123501 -0.014457 0.000000 -0.117608 -0.018867 0.000000 -0.110150 -0.022622 0.000000 -0.101924 -0.025877 0.000000 -0.092450 -0.028623 0.000000 -0.082514 -0.030896 0.000000 -0.071623 -0.032806 0.000000 -0.060483 -0.034281 0.000000 -0.048660 -0.035510 0.000000 -0.036730 -0.036342 0.000000 -0.024376 -0.037008 0.000000 -0.012011 -0.037301 0.000000 
0.000546 -0.049979 0.000000 0.013043 -0.049723 0.000000 0.025469 -0.049300 0.000000 0.037762 -0.048397 0.000000 0.049733 -0.047270 0.000000 0.061481 -0.045644 0.000000 0.072659 -0.043686 0.000000 0.083483 -0.041195 0.000000 0.093489 -0.038221 0.000000 0.102944 -0.034664 0.000000 0.111319 -0.030445 0.000000 0.118855 -0.025590 0.000000 0.125020 -0.019902 0.000000 0.129950 -0.013563 0.000000 0.133192 -0.006307 0.000000 0.134711 0.001490 0.000000 0.134247 0.010075 0.000000 0.131559 0.018842 0.000000 0.126730 0.027930 0.000000 0.119300 0.036507 0.000000 0.109875 0.044548 0.000000 0.097795 0.051092 0.000000 0.084336 0.055947 0.000000 0.068772 0.058288 0.000000 0.053005 0.057743 0.000000 0.036699 0.054205 0.000000 0.021856 0.046992 0.000000 0.009314 0.037578 0.000000 -0.000118 0.025228 0.000000 -0.004876 0.012176 0.000000 -0.006466 0.000300 0.000000 -0.004584 -0.008697 0.000000 -0.000936 -0.011645 0.000000 0.002351 -0.009058 0.000000 0.004834 -0.000671 0.000000 0.003361 0.011377 0.000000 -0.000974 0.023987 0.000000 -0.009897 0.036787 0.000000 -0.022406 0.046040 0.000000 -0.036617 0.053635 0.000000 -0.053222 0.057393 0.000000 -0.068615 0.058039 0.000000 -0.084537 0.055944 0.000000 -0.097812 0.050921 0.000000 -0.110065 0.044545 0.000000 -0.119402 0.036273 0.000000 -0.126816 0.027798 0.000000 -0.131607 0.018531 0.000000 -0.134163 0.009822 0.000000 -0.134615 0.001134 0.000000 -0.132912 -0.006631 0.000000 -0.129668 -0.013927 0.000000 -0.124543 -0.020249 0.000000 -0.118380 -0.025934 0.000000 -0.110660 -0.030774 0.000000 -0.102292 -0.034964 0.000000 -0.092676 -0.038505 0.000000 -0.082682 -0.041437 0.000000 -0.071724 -0.043908 0.000000 -0.060566 -0.045821 0.000000 -0.048710 -0.047422 0.000000 -0.036771 -0.048504 0.000000 -0.024394 -0.049376 0.000000 -0.012015 -0.049758 0.000000 
0.000576 -0.062527 0.000000 0.013055 -0.062198 0.000000 0.025455 -0.061670 0.000000 0.037739 -0.060527 0.000000 0.049693 -0.059119 0.000000 0.061460 -0.057078 0.000000 0.072660 -0.054647 0.000000 0.083570 -0.051550 0.000000 0.093693 -0.047880 0.000000 0.103368 -0.043489 0.000000 0.112033 -0.038298 0.000000 0.119998 -0.032320 0.000000 0.126706 -0.025308 0.000000 0.132342 -0.017484 0.000000 0.136433 -0.008479 0.000000 0.138974 0.001205 0.000000 0.139673 0.011979 0.000000 0.138311 0.022988 0.000000 0.134894 0.034587 0.000000 0.129006 0.045563 0.000000 0.121077 0.056108 0.000000 0.110521 0.064817 0.000000 0.098358 0.071528 0.000000 0.083811 0.075130 0.000000 0.068728 0.074742 0.000000 0.052110 0.070450 0.000000 0.036561 0.060506 0.000000 0.021633 0.047266 0.000000 0.008262 0.030099 0.000000 -0.000341 0.013013 0.000000 -0.005204 -0.001438 0.000000 -0.004563 -0.012304 0.000000 -0.000948 -0.015504 0.000000 0.002148 -0.012778 0.000000 0.003651 -0.002790 0.000000 -0.001055 0.011916 0.000000 -0.009204 0.028285 0.000000 -0.022002 0.046123 0.000000 -0.037027 0.059132 0.000000 -0.051734 0.069679 0.000000 -0.068835 0.074350 0.000000 -0.083544 0.074890 0.000000 -0.098579 0.071641 0.000000 -0.110611 0.064656 0.000000 -0.121336 0.056168 0.000000 -0.129218 0.045282 0.000000 -0.135032 0.034441 0.000000 -0.138437 0.022594 0.000000 -0.139610 0.011663 0.000000 -0.138914 0.000754 0.000000 -0.136148 -0.008890 0.000000 -0.132061 -0.017944 0.000000 -0.126204 -0.025746 0.000000 -0.119498 -0.032750 0.000000 -0.111335 -0.038710 0.000000 -0.102672 -0.043861 0.000000 -0.092831 -0.048233 0.000000 -0.082714 -0.051848 0.000000 -0.071669 -0.054922 0.000000 -0.060484 -0.057295 0.000000 -0.048612 -0.059305 0.000000 -0.036686 -0.060658 0.000000 -0.024321 -0.061764 0.000000 -0.011963 -0.062241 0.000000 
0.000601 -0.074997 0.000000 0.013058 -0.074602 0.000000 0.025428 -0.073984 0.000000 0.037698 -0.072635 0.000000 0.049620 -0.070990 0.000000 0.061395 -0.068610 0.000000 0.072589 -0.065797 0.000000 0.083572 -0.062228 0.000000 0.093771 -0.058019 0.000000 0.103649 -0.053003 0.000000 0.112550 -0.047076 0.000000 0.120931 -0.040263 0.000000 0.128115 -0.032246 0.000000 0.134453 -0.023290 0.000000 0.139332 -0.012938 0.000000 0.142916 -0.001749 0.000000 0.144776 0.010738 0.000000 0.144824 0.023621 0.000000 0.142984 0.037234 0.000000 0.138804 0.050325 0.000000 0.132797 0.063034 0.000000 0.123942 0.073811 0.000000 0.113643 0.082656 0.000000 0.100097 0.087918 0.000000 0.085809 0.089445 0.000000 0.068700 0.086371 0.000000 0.051915 0.077469 0.000000 0.036034 0.065878 0.000000 0.022144 0.047202 0.000000 0.013862 0.025641 0.000000 0.006336 0.004521 0.000000 0.002216 -0.012953 0.000000 -0.000840 -0.018356 0.000000 -0.004744 -0.013658 0.000000 -0.007777 0.002532 0.000000 -0.015339 0.024232 0.000000 -0.023070 0.044934 0.000000 -0.036155 0.064609 0.000000 -0.052200 0.075772 0.000000 -0.067812 0.085443 0.000000 -0.085691 0.089203 0.000000 -0.099609 0.087783 0.000000 -0.113894 0.083011 0.000000 -0.124095 0.073679 0.000000 -0.133145 0.063152 0.000000 -0.139121 0.049969 0.000000 -0.143166 0.037018 0.000000 -0.145014 0.023110 0.000000 -0.144713 0.010299 0.000000 -0.142873 -0.002328 0.000000 -0.139018 -0.013484 0.000000 -0.134157 -0.023872 0.000000 -0.127569 -0.032812 0.000000 -0.120394 -0.040803 0.000000 -0.111800 -0.047600 0.000000 -0.102904 -0.053469 0.000000 -0.092852 -0.058463 0.000000 -0.082661 -0.062599 0.000000 -0.071542 -0.066139 0.000000 -0.060364 -0.068877 0.000000 -0.048485 -0.071220 0.000000 -0.036590 -0.072795 0.000000 -0.024242 -0.074099 0.000000 -0.011913 -0.074655 0.000000 
0.000644 -0.087499 0.000000 0.012991 -0.087024 0.000000 0.025237 -0.086310 0.000000 0.037410 -0.084719 0.000000 0.049216 -0.082815 0.000000 0.060930 -0.080048 0.000000 0.072057 -0.076824 0.000000 0.083071 -0.072732 0.000000 0.093331 -0.067957 0.000000 0.103422 -0.062268 0.000000 0.112623 -0.055580 0.000000 0.121510 -0.047885 0.000000 0.129367 -0.038830 0.000000 0.136640 -0.028701 0.000000 0.142730 -0.016941 0.000000 0.147869 -0.004239 0.000000 0.151709 0.010071 0.000000 0.154232 0.024780 0.000000 0.155437 0.040607 0.000000 0.155038 0.055750 0.000000 0.153397 0.070970 0.000000 0.149876 0.083971 0.000000 0.145234 0.095374 0.000000 0.138076 0.102965 0.000000 0.130153 0.106140 0.000000 0.118012 0.104344 0.000000 0.106414 0.093172 0.000000 0.089249 0.077038 0.000000 0.065841 0.052271 0.000000 0.044630 0.028820 0.000000 0.023024 0.010208 0.000000 0.009291 -0.005128 0.000000 -0.000619 -0.008544 0.000000 -0.011780 -0.005841 0.000000 -0.023836 0.007805 0.000000 -0.045442 0.027208 0.000000 -0.066307 0.049100 0.000000 -0.089006 0.075253 0.000000 -0.106743 0.090789 0.000000 -0.116562 0.103171 0.000000 -0.129912 0.106147 0.000000 -0.137610 0.103093 0.000000 -0.145753 0.096126 0.000000 -0.150415 0.083908 0.000000 -0.154007 0.071194 0.000000 -0.155649 0.055303 0.000000 -0.155745 0.040334 0.000000 -0.154565 0.024141 0.000000 -0.151677 0.009522 0.000000 -0.147870 -0.004941 0.000000 -0.142399 -0.017607 0.000000 -0.136329 -0.029393 0.000000 -0.128776 -0.039508 0.000000 -0.120924 -0.048519 0.000000 -0.111809 -0.056200 0.000000 -0.102605 -0.062809 0.000000 -0.092337 -0.068476 0.000000 -0.082076 -0.073159 0.000000 -0.070927 -0.077219 0.000000 -0.059809 -0.080352 0.000000 -0.047995 -0.083078 0.000000 -0.036210 -0.084900 0.000000 -0.023965 -0.086441 0.000000 -0.011753 -0.087084 0.000000 
0.000680 -0.099741 0.000000 0.012908 -0.099195 0.000000 0.025022 -0.098403 0.000000 0.037088 -0.096614 0.000000 0.048764 -0.094510 0.000000 0.060404 -0.091452 0.000000 0.071440 -0.087938 0.000000 0.082469 -0.083503 0.000000 0.092749 -0.078370 0.000000 0.103032 -0.072295 0.000000 0.112471 -0.065164 0.000000 0.121853 -0.057007 0.000000 0.130313 -0.047376 0.000000 0.138579 -0.036653 0.000000 0.145892 -0.024167 0.000000 0.152882 -0.010728 0.000000 0.159052 0.004375 0.000000 0.164901 0.019892 0.000000 0.170331 0.036427 0.000000 0.175474 0.052365 0.000000 0.180752 0.068196 0.000000 0.185179 0.081974 0.000000 0.190016 0.094457 0.000000 0.191521 0.103000 0.000000 0.192505 0.109508 0.000000 0.185005 0.110111 0.000000 0.174348 0.106233 0.000000 0.158039 0.106451 0.000000 0.138032 0.091821 0.000000 0.119584 0.068457 0.000000 0.085439 0.039861 0.000000 0.045658 0.010690 0.000000 0.000189 0.002715 0.000000 -0.047332 0.009559 0.000000 -0.085357 0.036194 0.000000 -0.120415 0.066702 0.000000 -0.138584 0.088498 0.000000 -0.157183 0.105046 0.000000 -0.174321 0.103328 0.000000 -0.182511 0.108612 0.000000 -0.192016 0.110252 0.000000 -0.191100 0.103623 0.000000 -0.191058 0.095815 0.000000 -0.186294 0.081933 0.000000 -0.181769 0.068386 0.000000 -0.176465 0.051707 0.000000 -0.170794 0.035934 0.000000 -0.165396 0.019041 0.000000 -0.159035 0.003604 0.000000 -0.152916 -0.011605 0.000000 -0.145515 -0.025025 0.000000 -0.138238 -0.037494 0.000000 -0.129652 -0.048217 0.000000 -0.121205 -0.057769 0.000000 -0.111578 -0.065919 0.000000 -0.102139 -0.072941 0.000000 -0.091672 -0.078992 0.000000 -0.081392 -0.084008 0.000000 -0.070230 -0.088406 0.000000 -0.059202 -0.091809 0.000000 -0.047467 -0.094819 0.000000 -0.035810 -0.096825 0.000000 -0.023677 -0.098556 0.000000 -0.011594 -0.099265 0.000000 
0.000737 -0.112000 0.000000 0.012702 -0.111366 0.000000 0.024535 -0.110490 0.000000 0.036354 -0.108461 0.000000 0.047751 -0.106131 0.000000 0.059182 -0.102724 0.000000 0.069983 -0.098888 0.000000 0.080900 -0.094041 0.000000 0.091075 -0.088521 0.000000 0.101443 -0.081990 0.000000 0.111046 -0.074401 0.000000 0.120873 -0.065727 0.000000 0.130016 -0.055556 0.000000 0.139410 -0.044280 0.000000 0.148433 -0.031244 0.000000 0.157924 -0.017399 0.000000 0.167806 -0.001949 0.000000 0.178786 0.013501 0.000000 0.191359 0.030034 0.000000 0.205896 0.045328 0.000000 0.222920 0.061265 0.000000 0.242123 0.074707 0.000000 0.262980 0.089032 0.000000 0.284058 0.100476 0.000000 0.303940 0.112655 0.000000 0.315843 0.122500 0.000000 0.333669 0.120138 0.000000 0.327278 0.113354 0.000000 0.285054 0.090726 0.000000 0.224839 0.081414 0.000000 0.142988 0.084134 0.000000 0.069563 0.080122 0.000000 0.000988 0.084446 0.000000 -0.070524 0.079705 0.000000 -0.140677 0.080888 0.000000 -0.223117 0.080435 0.000000 -0.284302 0.085868 0.000000 -0.326030 0.110990 0.000000 -0.334404 0.116117 0.000000 -0.312460 0.120866 0.000000 -0.303519 0.114736 0.000000 -0.284474 0.102134 0.000000 -0.265165 0.091320 0.000000 -0.244550 0.074619 0.000000 -0.224656 0.061365 0.000000 -0.207552 0.044328 0.000000 -0.192085 0.029265 0.000000 -0.179519 0.012382 0.000000 -0.167842 -0.002957 0.000000 -0.158001 -0.018461 0.000000 -0.148023 -0.032286 0.000000 -0.139024 -0.045256 0.000000 -0.129283 -0.056540 0.000000 -0.120138 -0.066594 0.000000 -0.110058 -0.075266 0.000000 -0.100441 -0.082714 0.000000 -0.089891 -0.089223 0.000000 -0.079703 -0.094601 0.000000 -0.068659 -0.099409 0.000000 -0.057856 -0.103115 0.000000 -0.046338 -0.106471 0.000000 -0.034952 -0.108690 0.000000 -0.023076 -0.110656 0.000000 -0.011266 -0.111441 0.000000 
0.000782 -0.123709 0.000000 0.012481 -0.122993 0.000000 0.024032 -0.122055 0.000000 0.035600 -0.119829 0.000000 0.046713 -0.117338 0.000000 0.057929 -0.113684 0.000000 0.068478 -0.109656 0.000000 0.079262 -0.104594 0.000000 0.089289 -0.098913 0.000000 0.099702 -0.092266 0.000000 0.109397 -0.084594 0.000000 0.119656 -0.075977 0.000000 0.129448 -0.065913 0.000000 0.140179 -0.055069 0.000000 0.151178 -0.042682 0.000000 0.164096 -0.030101 0.000000 0.178851 -0.016486 0.000000 0.197403 -0.003661 0.000000 0.220036 0.009317 0.000000 0.248447 0.020805 0.000000 0.282411 0.031969 0.000000 0.321772 0.041914 0.000000 0.365684 0.052523 0.000000 0.408707 0.062039 0.000000 0.452349 0.077723 0.000000 0.472394 0.080382 0.000000 0.478299 0.094797 0.000000 0.468842 0.155065 0.000000 0.461325 0.194259 0.000000 0.442765 0.210523 0.000000 0.349309 0.195137 0.000000 0.194412 0.152691 0.000000 0.004127 0.142802 0.000000 -0.190771 0.151225 0.000000 -0.344507 0.188788 0.000000 -0.442977 0.210327 0.000000 -0.462353 0.191411 0.000000 -0.465836 0.155148 0.000000 -0.478023 0.089757 0.000000 -0.468238 0.077726 0.000000 -0.452570 0.082265 0.000000 -0.410388 0.065269 0.000000 -0.369668 0.055892 0.000000 -0.325910 0.041424 0.000000 -0.285033 0.031387 0.000000 -0.250892 0.019136 0.000000 -0.221053 0.007900 0.000000 -0.198423 -0.005202 0.000000 -0.178932 -0.017913 0.000000 -0.164221 -0.031424 0.000000 -0.150708 -0.044002 0.000000 -0.139734 -0.056234 0.000000 -0.128615 -0.067103 0.000000 -0.118821 -0.076994 0.000000 -0.108298 -0.085616 0.000000 -0.098588 -0.093109 0.000000 -0.087993 -0.099730 0.000000 -0.077952 -0.105240 0.000000 -0.067048 -0.110253 0.000000 -0.056494 -0.114130 0.000000 -0.045202 -0.117723 0.000000 -0.034096 -0.120087 0.000000 -0.022480 -0.122242 0.000000 -0.010947 -0.123077 0.000000 
0.000852 -0.135429 0.000000 0.012095 -0.134616 0.000000 0.023163 -0.133609 0.000000 0.034289 -0.131142 0.000000 0.044905 -0.128460 0.000000 0.055702 -0.124489 0.000000 0.065761 -0.120221 0.000000 0.076186 -0.114851 0.000000 0.085793 -0.108961 0.000000 0.096006 -0.102098 0.000000 0.105537 -0.094354 0.000000 0.116040 -0.085779 0.000000 0.126455 -0.076079 0.000000 0.138673 -0.066010 0.000000 0.152393 -0.055161 0.000000 0.169813 -0.045072 0.000000 0.191831 -0.035256 0.000000 0.220629 -0.027683 0.000000 0.257804 -0.021010 0.000000 0.303981 -0.017047 0.000000 0.359201 -0.012059 0.000000 0.421374 -0.008565 0.000000 0.485713 0.002097 0.000000 0.553500 0.013810 0.000000 0.606108 0.048969 0.000000 0.653803 0.096550 0.000000 0.745436 0.123690 0.000000 0.789973 0.130328 0.000000 0.737629 0.116803 0.000000 0.605802 0.193429 0.000000 0.439714 0.332487 0.000000 0.227796 0.425304 0.000000 0.006731 0.469629 0.000000 -0.218424 0.428340 0.000000 -0.429882 0.333095 0.000000 -0.602277 0.198281 0.000000 -0.737133 0.108727 0.000000 -0.789044 0.126660 0.000000 -0.749089 0.118518 0.000000 -0.652364 0.095413 0.000000 -0.607213 0.056886 0.000000 -0.557587 0.019232 0.000000 -0.491874 0.006842 0.000000 -0.427900 -0.010016 0.000000 -0.362636 -0.013653 0.000000 -0.307192 -0.019651 0.000000 -0.259079 -0.023204 0.000000 -0.221896 -0.029739 0.000000 -0.191993 -0.037160 0.000000 -0.169969 -0.046685 0.000000 -0.151893 -0.056773 0.000000 -0.138150 -0.067350 0.000000 -0.125526 -0.077454 0.000000 -0.115073 -0.086910 0.000000 -0.104307 -0.095499 0.000000 -0.094736 -0.103019 0.000000 -0.084352 -0.109859 0.000000 -0.074714 -0.115546 0.000000 -0.064182 -0.120867 0.000000 -0.054107 -0.124961 0.000000 -0.043248 -0.128868 0.000000 -0.032630 -0.131412 0.000000 -0.021469 -0.133805 0.000000 -0.010410 -0.134703 0.000000 
0.000905 -0.146214 0.000000 0.011705 -0.145304 0.000000 0.022310 -0.144250 0.000000 0.033006 -0.141571 0.000000 0.043144 -0.138751 0.000000 0.053526 -0.134540 0.000000 0.063099 -0.130140 0.000000 0.073142 -0.124626 0.000000 0.082303 -0.118733 0.000000 0.092267 -0.112010 0.000000 0.101608 -0.104628 0.000000 0.112391 -0.096896 0.000000 0.123585 -0.088547 0.000000 0.137791 -0.081007 0.000000 0.155003 -0.073821 0.000000 0.178623 -0.069540 0.000000 0.209754 -0.067302 0.000000 0.252196 -0.069634 0.000000 0.306087 -0.074036 0.000000 0.373234 -0.080592 0.000000 0.448360 -0.085424 0.000000 0.530333 -0.084599 0.000000 0.609166 -0.079603 0.000000 0.689049 -0.058356 0.000000 0.777686 -0.022580 0.000000 0.825359 -0.058946 0.000000 0.768300 -0.041372 0.000000 0.570951 0.162873 0.000000 0.322221 0.378430 0.000000 0.089497 0.508438 0.000000 -0.013666 0.573142 0.000000 -0.043465 0.585674 0.000000 0.000868 0.589022 0.000000 0.045977 0.587838 0.000000 0.017893 0.572641 0.000000 -0.080548 0.517578 0.000000 -0.316638 0.378179 0.000000 -0.567064 0.167104 0.000000 -0.774152 -0.046923 0.000000 -0.836486 -0.064149 0.000000 -0.782073 -0.012512 0.000000 -0.694159 -0.050070 0.000000 -0.616365 -0.073795 0.000000 -0.538262 -0.087814 0.000000 -0.451573 -0.089322 0.000000 -0.376799 -0.084421 0.000000 -0.307397 -0.077395 0.000000 -0.253721 -0.072289 0.000000 -0.209993 -0.069841 0.000000 -0.178844 -0.071524 0.000000 -0.154463 -0.075821 0.000000 -0.137183 -0.082601 0.000000 -0.122535 -0.090180 0.000000 -0.111276 -0.098213 0.000000 -0.100232 -0.105952 0.000000 -0.090838 -0.113064 0.000000 -0.080720 -0.119752 0.000000 -0.071521 -0.125410 0.000000 -0.061390 -0.130860 0.000000 -0.051797 -0.135064 0.000000 -0.041369 -0.139200 0.000000 -0.031225 -0.141866 0.000000 -0.020507 -0.144462 0.000000 -0.009905 -0.145399 0.000000 
0.000985 -0.157039 0.000000 0.011120 -0.156021 0.000000 0.021026 -0.154910 0.000000 0.031063 -0.151977 0.000000 0.040456 -0.148980 0.000000 0.050164 -0.144443 0.000000 0.058917 -0.139838 0.000000 0.068262 -0.134056 0.000000 0.076555 -0.128086 0.000000 0.085910 -0.121402 0.000000 0.094623 -0.114479 0.000000 0.105450 -0.107756 0.000000 0.117304 -0.101479 0.000000 0.133802 -0.097428 0.000000 0.155391 -0.095994 0.000000 0.186491 -0.099823 0.000000 0.229111 -0.108829 0.000000 0.286348 -0.124016 0.000000 0.358694 -0.142048 0.000000 0.441180 -0.159320 0.000000 0.528307 -0.169158 0.000000 0.603470 -0.169371 0.000000 0.664467 -0.156620 0.000000 0.705848 -0.154711 0.000000 0.642480 -0.087341 0.000000 0.380781 0.105936 0.000000 0.040056 0.378098 0.000000 -0.237167 0.576408 0.000000 -0.309461 0.598257 0.000000 -0.232982 0.529316 0.000000 -0.128651 0.465449 0.000000 -0.053884 0.410769 0.000000 -0.002218 0.380187 0.000000 0.054823 0.411316 0.000000 0.123239 0.459620 0.000000 0.236729 0.532812 0.000000 0.308660 0.595243 0.000000 0.244940 0.584174 0.000000 -0.033012 0.387940 0.000000 -0.387929 0.103334 0.000000 -0.643125 -0.085441 0.000000 -0.709163 -0.146476 0.000000 -0.669823 -0.149055 0.000000 -0.611133 -0.174809 0.000000 -0.529317 -0.175116 0.000000 -0.443638 -0.163827 0.000000 -0.359563 -0.146281 0.000000 -0.287795 -0.127144 0.000000 -0.229477 -0.112037 0.000000 -0.186758 -0.102215 0.000000 -0.154904 -0.098433 0.000000 -0.133115 -0.099279 0.000000 -0.116163 -0.103361 0.000000 -0.104161 -0.109214 0.000000 -0.093080 -0.115937 0.000000 -0.084272 -0.122531 0.000000 -0.074781 -0.129176 0.000000 -0.066432 -0.134876 0.000000 -0.057022 -0.140591 0.000000 -0.048238 -0.144982 0.000000 -0.038507 -0.149440 0.000000 -0.029100 -0.152274 0.000000 -0.019059 -0.155125 0.000000 -0.009147 -0.156115 0.000000 
0.001039 -0.166481 0.000000 0.010545 -0.165345 0.000000 0.019794 -0.164193 0.000000 0.029208 -0.161002 0.000000 0.037905 -0.157852 0.000000 0.046965 -0.153001 0.000000 0.054944 -0.148238 0.000000 0.063592 -0.142264 0.000000 0.071057 -0.136380 0.000000 0.079801 -0.130078 0.000000 0.088020 -0.124168 0.000000 0.099038 -0.119577 0.000000 0.112043 -0.116899 0.000000 0.131463 -0.119094 0.000000 0.158469 -0.126511 0.000000 0.198182 -0.143260 0.000000 0.252500 -0.167159 0.000000 0.323753 -0.199217 0.000000 0.406874 -0.228867 0.000000 0.492419 -0.250204 0.000000 0.558233 -0.247715 0.000000 0.590567 -0.220760 0.000000 0.569048 -0.181981 0.000000 0.398266 -0.036369 0.000000 0.083737 0.302487 0.000000 -0.200002 0.543478 0.000000 -0.225677 0.576576 0.000000 -0.116175 0.512390 0.000000 -0.001738 0.374245 0.000000 0.073959 0.327627 0.000000 0.078039 0.394045 0.000000 0.059032 0.459241 0.000000 0.000839 0.480315 0.000000 -0.050028 0.462381 0.000000 -0.076298 0.390735 0.000000 -0.064226 0.332157 0.000000 0.002603 0.369967 0.000000 0.122049 0.508776 0.000000 0.237750 0.585946 0.000000 0.208151 0.545963 0.000000 -0.076591 0.308722 0.000000 -0.390705 -0.023372 0.000000 -0.561388 -0.171825 0.000000 -0.593370 -0.228319 0.000000 -0.553865 -0.256817 0.000000 -0.492892 -0.254176 0.000000 -0.407108 -0.233237 0.000000 -0.325204 -0.202374 0.000000 -0.253051 -0.170879 0.000000 -0.198546 -0.146096 0.000000 -0.158033 -0.129464 0.000000 -0.130689 -0.121342 0.000000 -0.110786 -0.119135 0.000000 -0.097556 -0.121296 0.000000 -0.086298 -0.125841 0.000000 -0.077954 -0.131363 0.000000 -0.069107 -0.137592 0.000000 -0.061577 -0.143170 0.000000 -0.052896 -0.149054 0.000000 -0.044885 -0.153580 0.000000 -0.035826 -0.158338 0.000000 -0.027112 -0.161314 0.000000 -0.017713 -0.164415 0.000000 -0.008451 -0.165442 0.000000 
0.001123 -0.176035 0.000000 0.009756 -0.174776 0.000000 0.018094 -0.173573 0.000000 0.026630 -0.170088 0.000000 0.034334 -0.166737 0.000000 0.042448 -0.161482 0.000000 0.049257 -0.156464 0.000000 0.056833 -0.150169 0.000000 0.062937 -0.144295 0.000000 0.070651 -0.138365 0.000000 0.077755 -0.133716 0.000000 0.088688 -0.131779 0.000000 0.102344 -0.133904 0.000000 0.124776 -0.143854 0.000000 0.156856 -0.162712 0.000000 0.204854 -0.193854 0.000000 0.268839 -0.234400 0.000000 0.348193 -0.278391 0.000000 0.430592 -0.310715 0.000000 0.491874 -0.310679 0.000000 0.503011 -0.267306 0.000000 0.432018 -0.180186 0.000000 0.235099 0.035681 0.000000 -0.070347 0.330601 0.000000 -0.240249 0.510927 0.000000 -0.161767 0.415350 0.000000 -0.022266 0.294271 0.000000 0.068122 0.352469 0.000000 0.090832 0.408122 0.000000 0.051289 0.449539 0.000000 0.013356 0.480376 0.000000 0.004652 0.487969 0.000000 0.001580 0.489247 0.000000 0.004009 0.488453 0.000000 -0.007621 0.473818 0.000000 -0.042462 0.453912 0.000000 -0.082089 0.408968 0.000000 -0.059020 0.349026 0.000000 0.030111 0.301838 0.000000 0.168273 0.417675 0.000000 0.243451 0.513416 0.000000 0.083970 0.338322 0.000000 -0.212850 0.053610 0.000000 -0.419474 -0.182331 0.000000 -0.491666 -0.275594 0.000000 -0.487638 -0.310585 0.000000 -0.429972 -0.313969 0.000000 -0.349340 -0.281200 0.000000 -0.269788 -0.238695 0.000000 -0.205408 -0.197233 0.000000 -0.156656 -0.166290 0.000000 -0.123984 -0.146525 0.000000 -0.101027 -0.136494 0.000000 -0.086998 -0.133702 0.000000 -0.075818 -0.135540 0.000000 -0.068532 -0.139722 0.000000 -0.060740 -0.145554 0.000000 -0.054555 -0.151088 0.000000 -0.046982 -0.157283 0.000000 -0.040138 -0.162051 0.000000 -0.032057 -0.167212 0.000000 -0.024336 -0.170387 0.000000 -0.015838 -0.173786 0.000000 -0.007481 -0.174867 0.000000 