# vtk DataFile Version 2.0
Comment goes here
ASCII

DATASET STRUCTURED_POINTS
FIELD FieldData 1
TIME 1 1 double
0.26000000
DIMENSIONS    64   64   1

ORIGIN    0.000   0.000   0.000
SPACING   0.015625 0.015625   1.000

POINT_DATA   4096
VECTORS u double

0.000284 -0.000000 0.000000 -0.021286 -0.000000 0.000000 -0.042947 0.000000 0.000000 -0.064811 0.000000 0.000000 -0.086954 0.000000 0.000000 -0.109464 0.000000 0.000000 -0.132396 0.000000 0.000000 -0.155807 0.000000 0.000000 -0.179704 0.000000 0.000000 -0.204102 0.000000 0.000000 -0.228930 0.000000 0.000000 -0.254147 0.000000 0.000000 -0.279565 0.000000 0.000000 -0.305061 0.000000 0.000000 -0.330286 0.000000 0.000000 -0.354989 0.000000 0.000000 -0.378610 0.000000 0.000000 -0.400712 0.000000 0.000000 -0.420473 0.000000 0.000000 -0.437208 0.000000 0.000000 -0.449830 0.000000 0.000000 -0.457403 0.000000 0.000000 -0.458668 0.000000 0.000000 -0.452582 0.000000 0.000000 -0.437984 0.000000 0.000000 -0.414082 0.000000 0.000000 -0.380257 0.000000 0.000000 -0.336449 -0.000000 0.000000 -0.283020 0.000000 0.000000 -0.220990 -0.000000 0.000000 -0.151760 0.000000 0.000000 -0.077435 -0.000000 0.000000 -0.000430 0.000000 0.000000 0.076635 -0.000000 0.000000 0.150933 -0.000000 0.000000 0.220277 -0.000000 0.000000 0.282280 -0.000000 0.000000 0.335858 -0.000000 0.000000 0.379642 -0.000000 0.000000 0.413606 -0.000000 0.000000 0.437527 -0.000000 0.000000 0.452221 -0.000000 0.000000 0.458376 -0.000000 0.000000 0.457165 -0.000000 0.000000 0.449695 -0.000000 0.000000 0.437100 -0.000000 0.000000 0.420478 -0.000000 0.000000 0.400734 -0.000000 0.000000 0.378741 -0.000000 0.000000 0.355134 -0.000000 0.000000 0.330526 -0.000000 0.000000 0.305315 -0.000000 0.000000 0.279899 -0.000000 0.000000 0.254493 -0.000000 0.000000 0.229340 -0.000000 0.000000 0.204522 -0.000000 0.000000 0.180173 -0.000000 0.000000 0.156284 -0.000000 0.000000 0.132910 -0.000000 0.000000 0.109981 -0.000000 0.000000 0.087498 -0.000000 0.000000 0.065354 -0.000000 0.000000 0.043509 -0.000000 0.000000 0.021841 -0.000000 0.000000 
0.000251 0.021563 0.000000 -0.021273 0.021616 0.000000 -0.042890 0.021762 0.000000 -0.064715 0.022003 0.000000 -0.086822 0.022327 0.000000 -0.109309 0.022721 0.000000 -0.132224 0.023172 0.000000 -0.155638 0.023654 0.000000 -0.179551 0.024148 0.000000 -0.203997 0.024613 0.000000 -0.228898 0.025023 0.000000 -0.254231 0.025318 0.000000 -0.279814 0.025457 0.000000 -0.305533 0.025360 0.000000 -0.331064 0.024964 0.000000 -0.356150 0.024162 0.000000 -0.380280 0.022861 0.000000 -0.402976 0.020931 0.000000 -0.423499 0.018248 0.000000 -0.441069 0.014679 0.000000 -0.454707 0.010097 0.000000 -0.463302 0.004419 0.000000 -0.465724 -0.002411 0.000000 -0.460654 -0.010342 0.000000 -0.447055 -0.019250 0.000000 -0.423779 -0.028863 0.000000 -0.390252 -0.038817 0.000000 -0.346139 -0.048619 0.000000 -0.291702 -0.057729 0.000000 -0.228057 -0.065630 0.000000 -0.156689 -0.071777 0.000000 -0.079958 -0.075665 0.000000 -0.000400 -0.077035 0.000000 0.079217 -0.075681 0.000000 0.155924 -0.071821 0.000000 0.227414 -0.065673 0.000000 0.291026 -0.057790 0.000000 0.345624 -0.048681 0.000000 0.389700 -0.038874 0.000000 0.423372 -0.028943 0.000000 0.446659 -0.019307 0.000000 0.460350 -0.010425 0.000000 0.465485 -0.002472 0.000000 0.463103 0.004341 0.000000 0.454606 0.010033 0.000000 0.440981 0.014608 0.000000 0.423519 0.018183 0.000000 0.402999 0.020869 0.000000 0.380406 0.022800 0.000000 0.356278 0.024108 0.000000 0.331282 0.024909 0.000000 0.305755 0.025314 0.000000 0.280110 0.025411 0.000000 0.254533 0.025280 0.000000 0.229259 0.024986 0.000000 0.204364 0.024583 0.000000 0.179965 0.024119 0.000000 0.156056 0.023632 0.000000 0.132676 0.023151 0.000000 0.109764 0.022706 0.000000 0.087302 0.022314 0.000000 0.065194 0.021994 0.000000 0.043386 0.021756 0.000000 0.021763 0.021613 0.000000 
0.000287 0.043036 0.000000 -0.021087 0.043141 0.000000 -0.042560 0.043442 0.000000 -0.064248 0.043932 0.000000 -0.086239 0.044594 0.000000 -0.108624 0.045402 0.000000 -0.131474 0.046329 0.000000 -0.154851 0.047328 0.000000 -0.178783 0.048358 0.000000 -0.203297 0.049347 0.000000 -0.228346 0.050234 0.000000 -0.253914 0.050916 0.000000 -0.279846 0.051302 0.000000 -0.306055 0.051250 0.000000 -0.332232 0.050617 0.000000 -0.358173 0.049215 0.000000 -0.383349 0.046826 0.000000 -0.407357 0.043219 0.000000 -0.429375 0.038093 0.000000 -0.448699 0.031208 0.000000 -0.464164 0.022233 0.000000 -0.474714 0.011018 0.000000 -0.478901 -0.002648 0.000000 -0.475441 -0.018670 0.000000 -0.462890 -0.036876 0.000000 -0.440159 -0.056803 0.000000 -0.406369 -0.077639 0.000000 -0.361267 -0.098550 0.000000 -0.305187 -0.118082 0.000000 -0.239173 -0.135013 0.000000 -0.164686 -0.148099 0.000000 -0.084178 -0.156290 0.000000 -0.000445 -0.159175 0.000000 0.083335 -0.156323 0.000000 0.163833 -0.148196 0.000000 0.238444 -0.135102 0.000000 0.304429 -0.118210 0.000000 0.360679 -0.098674 0.000000 0.405736 -0.077748 0.000000 0.439683 -0.056959 0.000000 0.462428 -0.036977 0.000000 0.475076 -0.018826 0.000000 0.478613 -0.002754 0.000000 0.474472 0.010878 0.000000 0.464035 0.022122 0.000000 0.448591 0.031087 0.000000 0.429388 0.037982 0.000000 0.407383 0.043114 0.000000 0.383488 0.046721 0.000000 0.358324 0.049124 0.000000 0.332481 0.050523 0.000000 0.306317 0.051172 0.000000 0.280188 0.051222 0.000000 0.254269 0.050851 0.000000 0.228764 0.050169 0.000000 0.203726 0.049294 0.000000 0.179260 0.048308 0.000000 0.155337 0.047288 0.000000 0.131995 0.046293 0.000000 0.109149 0.045374 0.000000 0.086789 0.044570 0.000000 0.064798 0.043916 0.000000 0.043128 0.043430 0.000000 0.021649 0.043136 0.000000 
0.000256 0.064299 0.000000 -0.020868 0.064462 0.000000 -0.042101 0.064923 0.000000 -0.063566 0.065682 0.000000 -0.085358 0.066703 0.000000 -0.107586 0.067957 0.000000 -0.130324 0.069399 0.000000 -0.153660 0.070963 0.000000 -0.177626 0.072593 0.000000 -0.202289 0.074176 0.000000 -0.227617 0.075640 0.000000 -0.253641 0.076817 0.000000 -0.280245 0.077598 0.000000 -0.307397 0.077746 0.000000 -0.334852 0.077082 0.000000 -0.362458 0.075279 0.000000 -0.389768 0.072046 0.000000 -0.416392 0.066957 0.000000 -0.441580 0.059590 0.000000 -0.464540 0.049468 0.000000 -0.484126 0.036112 0.000000 -0.499005 0.019156 0.000000 -0.507675 -0.001683 0.000000 -0.508299 -0.026352 0.000000 -0.499335 -0.054532 0.000000 -0.478883 -0.085384 0.000000 -0.445916 -0.117709 0.000000 -0.399426 -0.149802 0.000000 -0.339307 -0.179824 0.000000 -0.266961 -0.206130 0.000000 -0.184152 -0.226772 0.000000 -0.094206 -0.239906 0.000000 -0.000432 -0.244548 0.000000 0.093371 -0.239959 0.000000 0.183333 -0.226930 0.000000 0.266288 -0.206269 0.000000 0.338599 -0.180025 0.000000 0.398929 -0.149989 0.000000 0.445331 -0.117878 0.000000 0.478482 -0.085635 0.000000 0.498937 -0.054701 0.000000 0.507989 -0.026610 0.000000 0.507451 -0.001868 0.000000 0.498800 0.018919 0.000000 0.484044 0.035914 0.000000 0.464452 0.049256 0.000000 0.441617 0.059391 0.000000 0.416422 0.066769 0.000000 0.389909 0.071859 0.000000 0.362597 0.075115 0.000000 0.335084 0.076916 0.000000 0.307633 0.077606 0.000000 0.280554 0.077459 0.000000 0.253958 0.076703 0.000000 0.227991 0.075529 0.000000 0.202671 0.074087 0.000000 0.178052 0.072508 0.000000 0.154092 0.070897 0.000000 0.130789 0.069339 0.000000 0.108054 0.067912 0.000000 0.085849 0.066665 0.000000 0.064056 0.065656 0.000000 0.042608 0.064905 0.000000 0.021370 0.064454 0.000000 
0.000295 0.085275 0.000000 -0.020463 0.085497 0.000000 -0.041344 0.086139 0.000000 -0.062474 0.087189 0.000000 -0.083976 0.088614 0.000000 -0.105954 0.090367 0.000000 -0.128520 0.092403 0.000000 -0.151759 0.094630 0.000000 -0.175756 0.096988 0.000000 -0.200580 0.099337 0.000000 -0.226270 0.101587 0.000000 -0.252885 0.103544 0.000000 -0.280391 0.105058 0.000000 -0.308824 0.105858 0.000000 -0.338023 0.105678 0.000000 -0.367942 0.104131 0.000000 -0.398182 0.100761 0.000000 -0.428468 0.095031 0.000000 -0.457986 0.086241 0.000000 -0.485998 0.073754 0.000000 -0.511082 0.056698 0.000000 -0.531800 0.034567 0.000000 -0.546060 0.006645 0.000000 -0.551746 -0.027010 0.000000 -0.546407 -0.066292 0.000000 -0.527907 -0.110221 0.000000 -0.494397 -0.157096 0.000000 -0.444979 -0.205160 0.000000 -0.380100 -0.250547 0.000000 -0.300833 -0.290167 0.000000 -0.208638 -0.320854 0.000000 -0.107147 -0.340010 0.000000 -0.000494 -0.346752 0.000000 0.106155 -0.340089 0.000000 0.207706 -0.321114 0.000000 0.300066 -0.290368 0.000000 0.379299 -0.250851 0.000000 0.444424 -0.205406 0.000000 0.493700 -0.157301 0.000000 0.527429 -0.110565 0.000000 0.545935 -0.066484 0.000000 0.551364 -0.027340 0.000000 0.545792 0.006435 0.000000 0.531544 0.034286 0.000000 0.510978 0.056471 0.000000 0.485889 0.073514 0.000000 0.458024 0.086012 0.000000 0.428507 0.094822 0.000000 0.398346 0.100546 0.000000 0.368117 0.103949 0.000000 0.338298 0.105487 0.000000 0.309114 0.105701 0.000000 0.280759 0.104897 0.000000 0.253269 0.103414 0.000000 0.226713 0.101456 0.000000 0.201037 0.099233 0.000000 0.176257 0.096887 0.000000 0.152269 0.094552 0.000000 0.129063 0.092330 0.000000 0.106500 0.090313 0.000000 0.084546 0.088568 0.000000 0.063044 0.087157 0.000000 0.041929 0.086117 0.000000 0.021043 0.085487 0.000000 
0.000266 0.105805 0.000000 -0.020005 0.106101 0.000000 -0.040414 0.106935 0.000000 -0.061102 0.108314 0.000000 -0.082204 0.110182 0.000000 -0.103848 0.112501 0.000000 -0.126161 0.115204 0.000000 -0.149265 0.118199 0.000000 -0.173268 0.121414 0.000000 -0.198302 0.124690 0.000000 -0.224446 0.127945 0.000000 -0.251860 0.130938 0.000000 -0.280586 0.133537 0.000000 -0.310797 0.135378 0.000000 -0.342449 0.136200 0.000000 -0.375648 0.135438 0.000000 -0.410126 0.132572 0.000000 -0.445709 0.126762 0.000000 -0.481652 0.117120 0.000000 -0.517160 0.102564 0.000000 -0.550699 0.081914 0.000000 -0.580459 0.054134 0.000000 -0.604007 0.018263 0.000000 -0.618327 -0.026006 0.000000 -0.620630 -0.078371 0.000000 -0.607211 -0.137394 0.000000 -0.576172 -0.200638 0.000000 -0.524426 -0.264098 0.000000 -0.450796 -0.323969 0.000000 -0.357747 -0.377592 0.000000 -0.247892 -0.420458 0.000000 -0.127105 -0.448051 0.000000 -0.000500 -0.457851 0.000000 0.126033 -0.448160 0.000000 0.246970 -0.420841 0.000000 0.357039 -0.377862 0.000000 0.450049 -0.324383 0.000000 0.524027 -0.264389 0.000000 0.575488 -0.200883 0.000000 0.606821 -0.137870 0.000000 0.620242 -0.078636 0.000000 0.617998 -0.026466 0.000000 0.603830 0.017952 0.000000 0.580238 0.053733 0.000000 0.550660 0.081569 0.000000 0.517073 0.102209 0.000000 0.481724 0.116773 0.000000 0.445757 0.126447 0.000000 0.410296 0.132249 0.000000 0.375815 0.135163 0.000000 0.342709 0.135919 0.000000 0.311064 0.135145 0.000000 0.280923 0.133304 0.000000 0.252210 0.130748 0.000000 0.224848 0.127761 0.000000 0.198715 0.124543 0.000000 0.173720 0.121276 0.000000 0.149726 0.118091 0.000000 0.126650 0.115108 0.000000 0.104342 0.112429 0.000000 0.082718 0.110122 0.000000 0.061617 0.108273 0.000000 0.040942 0.106905 0.000000 0.020530 0.106087 0.000000 
0.000308 0.125810 0.000000 -0.019337 0.126178 0.000000 -0.039140 0.127236 0.000000 -0.059248 0.128979 0.000000 -0.079835 0.131360 0.000000 -0.101026 0.134325 0.000000 -0.123007 0.137820 0.000000 -0.145897 0.141738 0.000000 -0.169895 0.146024 0.000000 -0.195145 0.150515 0.000000 -0.221861 0.155146 0.000000 -0.250259 0.159684 0.000000 -0.280557 0.163994 0.000000 -0.313056 0.167721 0.000000 -0.347911 0.170529 0.000000 -0.385414 0.171808 0.000000 -0.425447 0.170822 0.000000 -0.468017 0.166558 0.000000 -0.512350 0.157692 0.000000 -0.557669 0.142801 0.000000 -0.602057 0.119997 0.000000 -0.643321 0.087874 0.000000 -0.678056 0.044513 0.000000 -0.702332 -0.010386 0.000000 -0.711525 -0.077407 0.000000 -0.701180 -0.154679 0.000000 -0.667013 -0.239881 0.000000 -0.607304 -0.330536 0.000000 -0.524517 -0.417227 0.000000 -0.419814 -0.493072 0.000000 -0.293484 -0.551496 0.000000 -0.151460 -0.587401 0.000000 -0.000571 -0.599890 0.000000 0.150151 -0.587559 0.000000 0.292444 -0.552120 0.000000 0.419036 -0.493448 0.000000 0.523703 -0.417839 0.000000 0.606912 -0.330845 0.000000 0.666119 -0.240096 0.000000 0.700674 -0.155319 0.000000 0.711059 -0.077661 0.000000 0.701900 -0.010928 0.000000 0.677843 0.044195 0.000000 0.643032 0.087456 0.000000 0.602003 0.119635 0.000000 0.557562 0.142450 0.000000 0.512434 0.157328 0.000000 0.468087 0.166249 0.000000 0.425658 0.170488 0.000000 0.385635 0.171536 0.000000 0.348234 0.170238 0.000000 0.313399 0.167487 0.000000 0.280972 0.163751 0.000000 0.250695 0.159489 0.000000 0.222349 0.154951 0.000000 0.195650 0.150361 0.000000 0.170436 0.145876 0.000000 0.146449 0.141622 0.000000 0.123585 0.137714 0.000000 0.101609 0.134246 0.000000 0.080436 0.131293 0.000000 0.059849 0.128933 0.000000 0.039753 0.127203 0.000000 0.019946 0.126163 0.000000 
0.000281 0.145088 0.000000 -0.018586 0.145549 0.000000 -0.037631 0.146846 0.000000 -0.057018 0.149010 0.000000 -0.076943 0.151960 0.000000 -0.097559 0.155672 0.000000 -0.119080 0.160076 0.000000 -0.141681 0.165086 0.000000 -0.165600 0.170662 0.000000 -0.191092 0.176657 0.000000 -0.218446 0.183059 0.000000 -0.248060 0.189634 0.000000 -0.280292 0.196334 0.000000 -0.315697 0.202733 0.000000 -0.354626 0.208558 0.000000 -0.397647 0.212974 0.000000 -0.444833 0.215175 0.000000 -0.496376 0.213664 0.000000 -0.551525 0.206772 0.000000 -0.609448 0.192270 0.000000 -0.667808 0.167566 0.000000 -0.723918 0.130133 0.000000 -0.773275 0.077274 0.000000 -0.810691 0.007463 0.000000 -0.830624 -0.079523 0.000000 -0.826510 -0.181906 0.000000 -0.796563 -0.294513 0.000000 -0.732166 -0.406594 0.000000 -0.630235 -0.511459 0.000000 -0.498554 -0.608625 0.000000 -0.342823 -0.688812 0.000000 -0.174411 -0.740963 0.000000 -0.000572 -0.759462 0.000000 0.172908 -0.741174 0.000000 0.341828 -0.689726 0.000000 0.497892 -0.609122 0.000000 0.629540 -0.512260 0.000000 0.732118 -0.406805 0.000000 0.795498 -0.294644 0.000000 0.826051 -0.182810 0.000000 0.830314 -0.079862 0.000000 0.810290 0.006750 0.000000 0.773221 0.076819 0.000000 0.723658 0.129573 0.000000 0.667845 0.167039 0.000000 0.609371 0.191778 0.000000 0.551652 0.206248 0.000000 0.496465 0.213223 0.000000 0.445053 0.214702 0.000000 0.397868 0.212587 0.000000 0.354933 0.208155 0.000000 0.316020 0.202407 0.000000 0.280675 0.196008 0.000000 0.248463 0.189372 0.000000 0.218891 0.182806 0.000000 0.191554 0.176456 0.000000 0.166093 0.170477 0.000000 0.142185 0.164942 0.000000 0.119606 0.159949 0.000000 0.098092 0.155577 0.000000 0.077490 0.151881 0.000000 0.057567 0.148956 0.000000 0.038190 0.146808 0.000000 0.019143 0.145532 0.000000 
0.000326 0.163540 0.000000 -0.017591 0.164090 0.000000 -0.035711 0.165668 0.000000 -0.054206 0.168291 0.000000 -0.073324 0.171901 0.000000 -0.093213 0.176462 0.000000 -0.114177 0.181942 0.000000 -0.136388 0.188258 0.000000 -0.160231 0.195435 0.000000 -0.185994 0.203361 0.000000 -0.214191 0.212114 0.000000 -0.245327 0.221530 0.000000 -0.280069 0.231631 0.000000 -0.319165 0.242055 0.000000 -0.363313 0.252479 0.000000 -0.413318 0.262015 0.000000 -0.469491 0.269551 0.000000 -0.532199 0.273250 0.000000 -0.600597 0.270764 0.000000 -0.673713 0.259084 0.000000 -0.748515 0.234467 0.000000 -0.821253 0.193340 0.000000 -0.885776 0.131286 0.000000 -0.934124 0.046964 0.000000 -0.957574 -0.061588 0.000000 -0.946932 -0.188741 0.000000 -0.892027 -0.334226 0.000000 -0.795353 -0.496864 0.000000 -0.675945 -0.650838 0.000000 -0.537771 -0.780483 0.000000 -0.373305 -0.875638 0.000000 -0.191078 -0.929652 0.000000 -0.000566 -0.947210 0.000000 0.189416 -0.929958 0.000000 0.372372 -0.877104 0.000000 0.537110 -0.781159 0.000000 0.675271 -0.652065 0.000000 0.795431 -0.496804 0.000000 0.890263 -0.334029 0.000000 0.946125 -0.190135 0.000000 0.957246 -0.061899 0.000000 0.933553 0.046166 0.000000 0.885709 0.130826 0.000000 0.820896 0.192832 0.000000 0.748537 0.233922 0.000000 0.673624 0.258643 0.000000 0.600750 0.270234 0.000000 0.532341 0.272848 0.000000 0.469778 0.269084 0.000000 0.413631 0.261657 0.000000 0.363714 0.252086 0.000000 0.319598 0.241745 0.000000 0.280559 0.231309 0.000000 0.245845 0.221273 0.000000 0.214747 0.211860 0.000000 0.186569 0.203159 0.000000 0.160831 0.195244 0.000000 0.136999 0.188109 0.000000 0.114804 0.181808 0.000000 0.093845 0.176362 0.000000 0.073967 0.171817 0.000000 0.054849 0.168234 0.000000 0.036360 0.165628 0.000000 0.018238 0.164071 0.000000 
0.000300 0.180916 0.000000 -0.016480 0.181585 0.000000 -0.033487 0.183461 0.000000 -0.050913 0.186623 0.000000 -0.069039 0.190967 0.000000 -0.088046 0.196525 0.000000 -0.108287 0.203251 0.000000 -0.130013 0.211141 0.000000 -0.153690 0.220268 0.000000 -0.179773 0.230617 0.000000 -0.208915 0.242391 0.000000 -0.241910 0.255512 0.000000 -0.279631 0.270173 0.000000 -0.323202 0.285976 0.000000 -0.373543 0.302711 0.000000 -0.431781 0.319152 0.000000 -0.498333 0.334056 0.000000 -0.573585 0.344770 0.000000 -0.656401 0.348286 0.000000 -0.745215 0.340188 0.000000 -0.835508 0.315106 0.000000 -0.921931 0.267395 0.000000 -0.994113 0.190145 0.000000 -1.041375 0.079261 0.000000 -1.050271 -0.066715 0.000000 -1.015573 -0.247453 0.000000 -0.948564 -0.446092 0.000000 -0.829082 -0.622676 0.000000 -0.658559 -0.769040 0.000000 -0.473121 -0.911265 0.000000 -0.290971 -1.035505 0.000000 -0.132954 -1.113703 0.000000 -0.000440 -1.139956 0.000000 0.131446 -1.114112 0.000000 0.290500 -1.037420 0.000000 0.472405 -0.912021 0.000000 0.657944 -0.770582 0.000000 0.829761 -0.621797 0.000000 0.945617 -0.445338 0.000000 1.014458 -0.249793 0.000000 1.050487 -0.067290 0.000000 1.040802 0.078287 0.000000 0.994353 0.189476 0.000000 0.921602 0.266745 0.000000 0.835633 0.314311 0.000000 0.745178 0.339565 0.000000 0.656594 0.347531 0.000000 0.573768 0.344195 0.000000 0.498628 0.333412 0.000000 0.432105 0.318652 0.000000 0.373926 0.302188 0.000000 0.323620 0.285561 0.000000 0.280085 0.269762 0.000000 0.242394 0.255184 0.000000 0.209425 0.242082 0.000000 0.180304 0.230372 0.000000 0.154240 0.220047 0.000000 0.130577 0.210969 0.000000 0.108863 0.203102 0.000000 0.088630 0.196415 0.000000 0.069630 0.190878 0.000000 0.051507 0.186563 0.000000 0.034085 0.183419 0.000000 0.017077 0.181566 0.000000 
0.000345 0.197096 0.000000 -0.015085 0.197877 0.000000 -0.030775 0.200102 0.000000 -0.046923 0.203843 0.000000 -0.063880 0.209034 0.000000 -0.081826 0.215710 0.000000 -0.101240 0.223908 0.000000 -0.122388 0.233661 0.000000 -0.145958 0.245195 0.000000 -0.172470 0.258586 0.000000 -0.202927 0.274251 0.000000 -0.238260 0.292245 0.000000 -0.279791 0.312923 0.000000 -0.328798 0.335967 0.000000 -0.386593 0.361057 0.000000 -0.454322 0.386805 0.000000 -0.532409 0.411355 0.000000 -0.620907 0.431318 0.000000 -0.717694 0.442395 0.000000 -0.819934 0.438190 0.000000 -0.920132 0.411183 0.000000 -1.008938 0.351946 0.000000 -1.070952 0.250730 0.000000 -1.087118 0.103121 0.000000 -1.045090 -0.087391 0.000000 -0.927275 -0.290448 0.000000 -0.710846 -0.520717 0.000000 -0.444573 -0.786869 0.000000 -0.243897 -1.006799 0.000000 -0.125622 -1.148071 0.000000 -0.045833 -1.215805 0.000000 -0.003984 -1.220183 0.000000 -0.000275 -1.211610 0.000000 0.003857 -1.220899 0.000000 0.045992 -1.218062 0.000000 0.123849 -1.148603 0.000000 0.243111 -1.009420 0.000000 0.444966 -0.784477 0.000000 0.705911 -0.518726 0.000000 0.925911 -0.295004 0.000000 1.046357 -0.088244 0.000000 1.086486 0.102300 0.000000 1.071239 0.250027 0.000000 1.008482 0.351551 0.000000 0.920207 0.410346 0.000000 0.819913 0.437682 0.000000 0.717928 0.441645 0.000000 0.621199 0.430814 0.000000 0.532814 0.410747 0.000000 0.454798 0.386358 0.000000 0.387120 0.360571 0.000000 0.329380 0.335587 0.000000 0.280398 0.312536 0.000000 0.238902 0.291933 0.000000 0.203582 0.273950 0.000000 0.173145 0.258344 0.000000 0.146639 0.244972 0.000000 0.123077 0.233486 0.000000 0.101932 0.223755 0.000000 0.082518 0.215595 0.000000 0.064573 0.208940 0.000000 0.047613 0.203779 0.000000 0.031466 0.200057 0.000000 0.015773 0.197856 0.000000 
0.000321 0.211774 0.000000 -0.013541 0.212705 0.000000 -0.027696 0.215299 0.000000 -0.042361 0.219729 0.000000 -0.057941 0.225870 0.000000 -0.074657 0.233885 0.000000 -0.093080 0.243813 0.000000 -0.113584 0.255858 0.000000 -0.137004 0.270350 0.000000 -0.164098 0.287586 0.000000 -0.196067 0.308181 0.000000 -0.234215 0.332376 0.000000 -0.280026 0.360711 0.000000 -0.335132 0.392779 0.000000 -0.400757 0.428234 0.000000 -0.477980 0.464968 0.000000 -0.566569 0.500642 0.000000 -0.665281 0.530055 0.000000 -0.769985 0.547312 0.000000 -0.873693 0.542626 0.000000 -0.963089 0.504110 0.000000 -1.020576 0.418215 0.000000 -1.017297 0.268325 0.000000 -0.924701 0.053400 0.000000 -0.708065 -0.226558 0.000000 -0.401180 -0.581698 0.000000 -0.125248 -0.928794 0.000000 0.049958 -1.089625 0.000000 0.100855 -1.087992 0.000000 0.080684 -1.109329 0.000000 0.047767 -1.157143 0.000000 0.021128 -1.159261 0.000000 0.000380 -1.147797 0.000000 -0.018778 -1.160379 0.000000 -0.046675 -1.157412 0.000000 -0.081841 -1.109140 0.000000 -0.101667 -1.091699 0.000000 -0.049995 -1.084598 0.000000 0.122723 -0.926283 0.000000 0.403812 -0.590239 0.000000 0.712067 -0.227865 0.000000 0.923986 0.053405 0.000000 1.017976 0.267480 0.000000 1.020182 0.417777 0.000000 0.963147 0.502879 0.000000 0.873777 0.541844 0.000000 0.770214 0.546245 0.000000 0.665647 0.529309 0.000000 0.566970 0.499813 0.000000 0.478481 0.464345 0.000000 0.401261 0.427606 0.000000 0.335698 0.392284 0.000000 0.280591 0.360240 0.000000 0.234819 0.332000 0.000000 0.196672 0.307839 0.000000 0.164727 0.287315 0.000000 0.137633 0.270114 0.000000 0.114226 0.255677 0.000000 0.093721 0.243661 0.000000 0.075303 0.233773 0.000000 0.058584 0.225783 0.000000 0.043005 0.219670 0.000000 0.028338 0.215259 0.000000 0.014184 0.212687 0.000000 
0.000363 0.224822 0.000000 -0.011676 0.225894 0.000000 -0.024048 0.228921 0.000000 -0.036984 0.234088 0.000000 -0.050987 0.241331 0.000000 -0.066284 0.250849 0.000000 -0.083634 0.262835 0.000000 -0.103451 0.277585 0.000000 -0.126885 0.295709 0.000000 -0.154788 0.317649 0.000000 -0.188798 0.344368 0.000000 -0.230285 0.376204 0.000000 -0.281139 0.413840 0.000000 -0.342725 0.456698 0.000000 -0.416248 0.503906 0.000000 -0.501633 0.552616 0.000000 -0.597296 0.598656 0.000000 -0.699025 0.634735 0.000000 -0.797580 0.650806 0.000000 -0.879421 0.631294 0.000000 -0.919329 0.558067 0.000000 -0.891191 0.406154 0.000000 -0.756481 0.154855 0.000000 -0.493761 -0.206111 0.000000 -0.177017 -0.610911 0.000000 0.042149 -0.873265 0.000000 0.092668 -0.971855 0.000000 0.069801 -1.012972 0.000000 0.089039 -1.037525 0.000000 0.140240 -1.094983 0.000000 0.134026 -1.156250 0.000000 0.076628 -1.172796 0.000000 0.000849 -1.171703 0.000000 -0.073888 -1.173844 0.000000 -0.132679 -1.154999 0.000000 -0.136889 -1.093611 0.000000 -0.088039 -1.041267 0.000000 -0.069198 -1.008867 0.000000 -0.091194 -0.972534 0.000000 -0.040866 -0.884348 0.000000 0.176603 -0.608418 0.000000 0.489560 -0.203609 0.000000 0.755713 0.153831 0.000000 0.890421 0.406380 0.000000 0.919111 0.556751 0.000000 0.879576 0.630615 0.000000 0.797855 0.649774 0.000000 0.699575 0.634058 0.000000 0.597863 0.597913 0.000000 0.502367 0.552067 0.000000 0.416969 0.503355 0.000000 0.343531 0.456257 0.000000 0.281925 0.413414 0.000000 0.231106 0.375852 0.000000 0.189598 0.344042 0.000000 0.155598 0.317383 0.000000 0.127675 0.295473 0.000000 0.104238 0.277398 0.000000 0.084404 0.262678 0.000000 0.067045 0.250731 0.000000 0.051735 0.241238 0.000000 0.037724 0.234025 0.000000 0.024780 0.228878 0.000000 0.012404 0.225874 0.000000 
0.000341 0.235854 0.000000 -0.009635 0.237117 0.000000 -0.019990 0.240607 0.000000 -0.030980 0.246667 0.000000 -0.043203 0.255171 0.000000 -0.056935 0.266532 0.000000 -0.073100 0.280980 0.000000 -0.092244 0.299108 0.000000 -0.115749 0.321687 0.000000 -0.144719 0.349499 0.000000 -0.180969 0.383678 0.000000 -0.226130 0.424718 0.000000 -0.281847 0.473151 0.000000 -0.349336 0.527887 0.000000 -0.428443 0.587143 0.000000 -0.517533 0.646016 0.000000 -0.611436 0.698033 0.000000 -0.700546 0.730338 0.000000 -0.768492 0.727708 0.000000 -0.790254 0.664375 0.000000 -0.736792 0.515880 0.000000 -0.584255 0.255367 0.000000 -0.317576 -0.129105 0.000000 -0.024043 -0.526064 0.000000 0.146568 -0.762468 0.000000 0.195659 -0.851383 0.000000 0.299398 -0.956446 0.000000 0.444470 -1.085996 0.000000 0.517129 -1.158431 0.000000 0.496372 -1.154316 0.000000 0.370660 -1.093530 0.000000 0.193749 -1.026083 0.000000 0.000934 -0.997281 0.000000 -0.191655 -1.026852 0.000000 -0.369094 -1.094412 0.000000 -0.491279 -1.153779 0.000000 -0.513733 -1.159390 0.000000 -0.444494 -1.081443 0.000000 -0.297658 -0.954614 0.000000 -0.200278 -0.858036 0.000000 -0.147833 -0.758291 0.000000 0.023923 -0.525705 0.000000 0.315584 -0.133380 0.000000 0.584522 0.254378 0.000000 0.736148 0.513724 0.000000 0.790547 0.663100 0.000000 0.768626 0.726245 0.000000 0.701143 0.729301 0.000000 0.611957 0.697021 0.000000 0.518259 0.645239 0.000000 0.429116 0.586443 0.000000 0.350102 0.527328 0.000000 0.282577 0.472665 0.000000 0.226902 0.424326 0.000000 0.181715 0.383347 0.000000 0.145480 0.349238 0.000000 0.116489 0.321473 0.000000 0.092985 0.298948 0.000000 0.073822 0.280854 0.000000 0.057653 0.266443 0.000000 0.043906 0.255104 0.000000 0.031678 0.246625 0.000000 0.020678 0.240579 0.000000 0.010321 0.237104 0.000000 
0.000376 0.244777 0.000000 -0.007237 0.246225 0.000000 -0.015288 0.250267 0.000000 -0.024057 0.257301 0.000000 -0.034280 0.267286 0.000000 -0.046266 0.280746 0.000000 -0.061195 0.298144 0.000000 -0.079680 0.320235 0.000000 -0.103476 0.348183 0.000000 -0.133731 0.382869 0.000000 -0.172597 0.425780 0.000000 -0.221401 0.477082 0.000000 -0.281642 0.537046 0.000000 -0.353053 0.603295 0.000000 -0.434023 0.672103 0.000000 -0.518667 0.735609 0.000000 -0.597536 0.781669 0.000000 -0.652658 0.791790 0.000000 -0.660228 0.740514 0.000000 -0.593360 0.599595 0.000000 -0.432229 0.352068 0.000000 -0.196233 -0.013062 0.000000 0.072496 -0.405358 0.000000 0.249970 -0.670255 0.000000 0.354423 -0.830613 0.000000 0.521143 -1.026095 0.000000 0.670370 -1.220667 0.000000 0.688263 -1.230703 0.000000 0.599371 -1.089427 0.000000 0.451942 -0.948514 0.000000 0.290323 -0.853627 0.000000 0.139190 -0.803070 0.000000 0.001241 -0.786299 0.000000 -0.136821 -0.803816 0.000000 -0.288093 -0.855375 0.000000 -0.449673 -0.948972 0.000000 -0.596735 -1.088051 0.000000 -0.688508 -1.224942 0.000000 -0.666807 -1.216750 0.000000 -0.521503 -1.034174 0.000000 -0.349780 -0.832619 0.000000 -0.247101 -0.667027 0.000000 -0.074852 -0.406767 0.000000 0.199456 -0.014184 0.000000 0.432015 0.350725 0.000000 0.593924 0.598137 0.000000 0.660428 0.739178 0.000000 0.653427 0.790727 0.000000 0.598232 0.780797 0.000000 0.519673 0.734908 0.000000 0.434992 0.671513 0.000000 0.354143 0.602795 0.000000 0.282683 0.536613 0.000000 0.222464 0.476714 0.000000 0.173603 0.425465 0.000000 0.134718 0.382609 0.000000 0.104410 0.347968 0.000000 0.080584 0.320066 0.000000 0.062055 0.298010 0.000000 0.047100 0.280647 0.000000 0.035082 0.267212 0.000000 0.024840 0.257252 0.000000 0.016053 0.250235 0.000000 0.007994 0.246211 0.000000 
0.000357 0.251085 0.000000 -0.004647 0.252781 0.000000 -0.010161 0.257427 0.000000 -0.016497 0.265660 0.000000 -0.024551 0.277380 0.000000 -0.034679 0.293446 0.000000 -0.048330 0.314394 0.000000 -0.066206 0.341389 0.000000 -0.090358 0.375737 0.000000 -0.121980 0.418620 0.000000 -0.163179 0.471349 0.000000 -0.214946 0.533763 0.000000 -0.277502 0.604803 0.000000 -0.349113 0.680268 0.000000 -0.424135 0.752756 0.000000 -0.492923 0.809530 0.000000 -0.538242 0.832024 0.000000 -0.537349 0.793030 0.000000 -0.465153 0.668410 0.000000 -0.305301 0.436376 0.000000 -0.103872 0.118753 0.000000 0.142334 -0.249358 0.000000 0.348797 -0.575307 0.000000 0.470599 -0.807991 0.000000 0.615951 -1.033641 0.000000 0.709337 -1.167330 0.000000 0.658683 -1.123566 0.000000 0.508967 -1.014996 0.000000 0.367213 -0.922110 0.000000 0.257161 -0.845269 0.000000 0.166247 -0.780778 0.000000 0.082276 -0.737000 0.000000 0.001044 -0.721269 0.000000 -0.080367 -0.737518 0.000000 -0.164614 -0.781560 0.000000 -0.256630 -0.845137 0.000000 -0.366402 -0.920556 0.000000 -0.508679 -1.011371 0.000000 -0.654339 -1.121618 0.000000 -0.707107 -1.175063 0.000000 -0.617822 -1.032693 0.000000 -0.473557 -0.800633 0.000000 -0.348138 -0.579937 0.000000 -0.141050 -0.252488 0.000000 0.100325 0.119256 0.000000 0.304755 0.434687 0.000000 0.465022 0.666742 0.000000 0.537904 0.791497 0.000000 0.538776 0.830774 0.000000 0.493742 0.808480 0.000000 0.424950 0.751973 0.000000 0.350066 0.679637 0.000000 0.278441 0.604344 0.000000 0.215928 0.533406 0.000000 0.164125 0.471093 0.000000 0.122918 0.418432 0.000000 0.091249 0.375607 0.000000 0.067072 0.341303 0.000000 0.049152 0.314338 0.000000 0.035476 0.293416 0.000000 0.025315 0.277364 0.000000 0.017244 0.265654 0.000000 0.010887 0.257425 0.000000 0.005367 0.252781 0.000000 