# vtk DataFile Version 2.0
Comment goes here
ASCII

DATASET STRUCTURED_POINTS
FIELD FieldData 1
TIME 1 1 double
0.14000000
DIMENSIONS    64   64   1

ORIGIN    0.000   0.000   0.000
SPACING   0.015625 0.015625   1.000

POINT_DATA   4096
VECTORS u double

-0.000006 -0.000000 0.000000 0.020568 0.000000 0.000000 0.041202 0.000000 0.000000 0.061644 0.000000 0.000000 0.082211 0.000000 0.000000 0.102401 0.000000 0.000000 0.122748 0.000000 0.000000 0.142502 0.000000 0.000000 0.162387 0.000000 0.000000 0.181417 0.000000 0.000000 0.200467 0.000000 0.000000 0.218343 0.000000 0.000000 0.236013 0.000000 0.000000 0.252116 0.000000 0.000000 0.267645 0.000000 0.000000 0.281128 0.000000 0.000000 0.293510 0.000000 0.000000 0.303272 0.000000 0.000000 0.311248 -0.000000 0.000000 0.315936 -0.000000 0.000000 0.318022 -0.000000 0.000000 0.316090 -0.000000 0.000000 0.310677 -0.000000 0.000000 0.300517 -0.000000 0.000000 0.286046 -0.000000 0.000000 0.266240 -0.000000 0.000000 0.241552 -0.000000 0.000000 0.211372 -0.000000 0.000000 0.176398 -0.000000 0.000000 0.136698 -0.000000 0.000000 0.093419 -0.000000 0.000000 0.047377 -0.000000 0.000000 0.000030 -0.000000 0.000000 -0.047342 -0.000000 0.000000 -0.093362 -0.000000 0.000000 -0.136661 -0.000000 0.000000 -0.176350 -0.000000 0.000000 -0.211335 -0.000000 0.000000 -0.241518 -0.000000 0.000000 -0.266205 -0.000000 0.000000 -0.286028 -0.000000 0.000000 -0.300487 -0.000000 0.000000 -0.310675 -0.000000 0.000000 -0.316069 -0.000000 0.000000 -0.318034 -0.000000 0.000000 -0.315925 -0.000000 0.000000 -0.311268 -0.000000 0.000000 -0.303272 -0.000000 0.000000 -0.293534 -0.000000 0.000000 -0.281137 -0.000000 0.000000 -0.267669 -0.000000 0.000000 -0.252133 -0.000000 0.000000 -0.236036 -0.000000 0.000000 -0.218367 -0.000000 0.000000 -0.200488 -0.000000 0.000000 -0.181445 -0.000000 0.000000 -0.162405 -0.000000 0.000000 -0.142533 -0.000000 0.000000 -0.122764 -0.000000 0.000000 -0.102434 -0.000000 0.000000 -0.082225 -0.000000 0.000000 -0.061678 -0.000000 0.000000 -0.041215 -0.000000 0.000000 -0.020602 -0.000000 0.000000 
-0.000002 -0.020585 0.000000 0.020582 -0.020604 0.000000 0.041225 -0.020538 0.000000 0.061683 -0.020505 0.000000 0.082263 -0.020379 0.000000 0.102480 -0.020268 0.000000 0.122850 -0.020050 0.000000 0.142647 -0.019819 0.000000 0.162572 -0.019458 0.000000 0.181667 -0.019040 0.000000 0.200783 -0.018463 0.000000 0.218752 -0.017773 0.000000 0.236523 -0.016886 0.000000 0.252754 -0.015816 0.000000 0.268428 -0.014506 0.000000 0.282081 -0.012933 0.000000 0.294657 -0.011072 0.000000 0.304632 -0.008869 0.000000 0.312847 -0.006332 0.000000 0.317780 -0.003387 0.000000 0.320127 -0.000077 0.000000 0.318435 0.003673 0.000000 0.313248 0.007787 0.000000 0.303254 0.012315 0.000000 0.288892 0.017138 0.000000 0.269089 0.022247 0.000000 0.244305 0.027434 0.000000 0.213895 0.032577 0.000000 0.178582 0.037337 0.000000 0.138426 0.041489 0.000000 0.094617 0.044660 0.000000 0.047986 0.046695 0.000000 0.000028 0.047360 0.000000 -0.047956 0.046696 0.000000 -0.094564 0.044660 0.000000 -0.138395 0.041494 0.000000 -0.178538 0.037337 0.000000 -0.213863 0.032584 0.000000 -0.244276 0.027435 0.000000 -0.269059 0.022255 0.000000 -0.288880 0.017141 0.000000 -0.303230 0.012323 0.000000 -0.313252 0.007791 0.000000 -0.318418 0.003679 0.000000 -0.320144 -0.000072 0.000000 -0.317773 -0.003383 0.000000 -0.312871 -0.006327 0.000000 -0.304634 -0.008867 0.000000 -0.294683 -0.011068 0.000000 -0.282090 -0.012933 0.000000 -0.268453 -0.014502 0.000000 -0.252770 -0.015817 0.000000 -0.236544 -0.016883 0.000000 -0.218773 -0.017774 0.000000 -0.200800 -0.018461 0.000000 -0.181691 -0.019041 0.000000 -0.162584 -0.019456 0.000000 -0.142672 -0.019820 0.000000 -0.122859 -0.020050 0.000000 -0.102506 -0.020269 0.000000 -0.082269 -0.020378 0.000000 -0.061709 -0.020505 0.000000 -0.041229 -0.020538 0.000000 -0.020608 -0.020604 0.000000 
-0.000006 -0.041190 0.000000 0.020615 -0.041227 0.000000 0.041301 -0.041101 0.000000 0.061804 -0.041038 0.000000 0.082448 -0.040797 0.000000 0.102730 -0.040587 0.000000 0.123198 -0.040167 0.000000 0.143095 -0.039722 0.000000 0.163166 -0.039020 0.000000 0.182412 -0.038211 0.000000 0.201735 -0.037085 0.000000 0.219920 -0.035740 0.000000 0.237969 -0.034002 0.000000 0.254495 -0.031905 0.000000 0.270524 -0.029327 0.000000 0.284554 -0.026230 0.000000 0.297559 -0.022552 0.000000 0.307983 -0.018190 0.000000 0.316673 -0.013148 0.000000 0.322089 -0.007280 0.000000 0.324903 -0.000655 0.000000 0.323650 0.006879 0.000000 0.318827 0.015181 0.000000 0.309108 0.024356 0.000000 0.294867 0.034165 0.000000 0.275016 0.044588 0.000000 0.249956 0.055194 0.000000 0.219045 0.065723 0.000000 0.182991 0.075469 0.000000 0.141899 0.083964 0.000000 0.097005 0.090439 0.000000 0.049200 0.094589 0.000000 0.000032 0.095943 0.000000 -0.049166 0.094593 0.000000 -0.096945 0.090438 0.000000 -0.141863 0.083974 0.000000 -0.182941 0.075469 0.000000 -0.219007 0.065737 0.000000 -0.249921 0.055196 0.000000 -0.274980 0.044604 0.000000 -0.294849 0.034170 0.000000 -0.309077 0.024372 0.000000 -0.318827 0.015189 0.000000 -0.323628 0.006891 0.000000 -0.324916 -0.000645 0.000000 -0.322077 -0.007273 0.000000 -0.316695 -0.013139 0.000000 -0.307982 -0.018188 0.000000 -0.297585 -0.022544 0.000000 -0.284564 -0.026231 0.000000 -0.270550 -0.029320 0.000000 -0.254512 -0.031908 0.000000 -0.237993 -0.033997 0.000000 -0.219944 -0.035744 0.000000 -0.201756 -0.037082 0.000000 -0.182441 -0.038216 0.000000 -0.163184 -0.039019 0.000000 -0.143127 -0.039726 0.000000 -0.123214 -0.040166 0.000000 -0.102763 -0.040590 0.000000 -0.082462 -0.040797 0.000000 -0.061838 -0.041040 0.000000 -0.041314 -0.041101 0.000000 -0.020649 -0.041227 0.000000 
-0.000001 -0.061849 0.000000 0.020671 -0.061911 0.000000 0.041413 -0.061727 0.000000 0.061987 -0.061651 0.000000 0.082714 -0.061305 0.000000 0.103111 -0.061019 0.000000 0.123715 -0.060416 0.000000 0.143794 -0.059787 0.000000 0.164083 -0.058775 0.000000 0.183603 -0.057609 0.000000 0.203255 -0.055971 0.000000 0.221835 -0.054007 0.000000 0.240356 -0.051461 0.000000 0.257424 -0.048371 0.000000 0.274092 -0.044566 0.000000 0.288832 -0.039968 0.000000 0.302649 -0.034501 0.000000 0.313945 -0.027983 0.000000 0.323591 -0.020438 0.000000 0.329980 -0.011617 0.000000 0.333787 -0.001639 0.000000 0.333454 0.009748 0.000000 0.329444 0.022329 0.000000 0.320313 0.036276 0.000000 0.306383 0.051230 0.000000 0.286452 0.067158 0.000000 0.260884 0.083405 0.000000 0.228983 0.099542 0.000000 0.191498 0.114483 0.000000 0.148581 0.127475 0.000000 0.101596 0.137359 0.000000 0.051527 0.143668 0.000000 0.000031 0.145726 0.000000 -0.051500 0.143673 0.000000 -0.101538 0.137356 0.000000 -0.148551 0.127490 0.000000 -0.191450 0.114481 0.000000 -0.228949 0.099564 0.000000 -0.260853 0.083407 0.000000 -0.286418 0.067184 0.000000 -0.306372 0.051238 0.000000 -0.320286 0.036301 0.000000 -0.329452 0.022342 0.000000 -0.333437 0.009769 0.000000 -0.333809 -0.001623 0.000000 -0.329973 -0.011604 0.000000 -0.323620 -0.020422 0.000000 -0.313948 -0.027977 0.000000 -0.302679 -0.034486 0.000000 -0.288843 -0.039967 0.000000 -0.274119 -0.044554 0.000000 -0.257441 -0.048374 0.000000 -0.240378 -0.051451 0.000000 -0.221858 -0.054011 0.000000 -0.203272 -0.055964 0.000000 -0.183628 -0.057613 0.000000 -0.164095 -0.058770 0.000000 -0.143820 -0.059791 0.000000 -0.123724 -0.060413 0.000000 -0.103137 -0.061022 0.000000 -0.082720 -0.061304 0.000000 -0.062013 -0.061653 0.000000 -0.041417 -0.061726 0.000000 -0.020697 -0.061912 0.000000 
-0.000005 -0.082558 0.000000 0.020737 -0.082642 0.000000 0.041562 -0.082417 0.000000 0.062226 -0.082339 0.000000 0.083081 -0.081921 0.000000 0.103620 -0.081588 0.000000 0.124430 -0.080850 0.000000 0.144737 -0.080089 0.000000 0.165345 -0.078829 0.000000 0.185217 -0.077384 0.000000 0.205336 -0.075317 0.000000 0.224429 -0.072840 0.000000 0.243599 -0.069590 0.000000 0.261374 -0.065641 0.000000 0.278895 -0.060735 0.000000 0.294553 -0.054787 0.000000 0.309416 -0.047665 0.000000 0.321810 -0.039131 0.000000 0.332621 -0.029183 0.000000 0.340175 -0.017476 0.000000 0.345099 -0.004128 0.000000 0.345772 0.011222 0.000000 0.342560 0.028321 0.000000 0.333959 0.047417 0.000000 0.320170 0.068027 0.000000 0.299949 0.090086 0.000000 0.273578 0.112663 0.000000 0.240371 0.135109 0.000000 0.201101 0.155871 0.000000 0.156031 0.173866 0.000000 0.106654 0.187494 0.000000 0.054073 0.196154 0.000000 0.000035 0.198970 0.000000 -0.054045 0.196161 0.000000 -0.106587 0.187489 0.000000 -0.155997 0.173887 0.000000 -0.201045 0.155867 0.000000 -0.240330 0.135140 0.000000 -0.273540 0.112666 0.000000 -0.299908 0.090123 0.000000 -0.320155 0.068038 0.000000 -0.333923 0.047452 0.000000 -0.342566 0.028339 0.000000 -0.345748 0.011249 0.000000 -0.345120 -0.004109 0.000000 -0.340164 -0.017462 0.000000 -0.332650 -0.029165 0.000000 -0.321811 -0.039128 0.000000 -0.309447 -0.047649 0.000000 -0.294564 -0.054791 0.000000 -0.278923 -0.060722 0.000000 -0.261394 -0.065649 0.000000 -0.243623 -0.069581 0.000000 -0.224455 -0.072850 0.000000 -0.205358 -0.075311 0.000000 -0.185248 -0.077393 0.000000 -0.165363 -0.078827 0.000000 -0.144771 -0.080097 0.000000 -0.124445 -0.080849 0.000000 -0.103654 -0.081594 0.000000 -0.083094 -0.081921 0.000000 -0.062261 -0.082343 0.000000 -0.041573 -0.082417 0.000000 -0.020772 -0.082643 0.000000 
-0.000000 -0.103358 0.000000 0.020813 -0.103479 0.000000 0.041716 -0.103216 0.000000 0.062484 -0.103170 0.000000 0.083467 -0.102699 0.000000 0.104183 -0.102368 0.000000 0.125216 -0.101533 0.000000 0.145816 -0.100702 0.000000 0.166789 -0.099254 0.000000 0.187116 -0.097601 0.000000 0.207796 -0.095183 0.000000 0.227554 -0.092270 0.000000 0.247535 -0.088406 0.000000 0.266235 -0.083668 0.000000 0.284857 -0.077745 0.000000 0.301726 -0.070489 0.000000 0.317980 -0.061757 0.000000 0.331845 -0.051187 0.000000 0.344251 -0.038802 0.000000 0.353396 -0.024095 0.000000 0.359893 -0.007236 0.000000 0.361963 0.012287 0.000000 0.359892 0.034142 0.000000 0.352001 0.058666 0.000000 0.338398 0.085239 0.000000 0.317706 0.113750 0.000000 0.290185 0.142984 0.000000 0.255133 0.172019 0.000000 0.213445 0.198822 0.000000 0.165509 0.221923 0.000000 0.113039 0.239317 0.000000 0.057264 0.250286 0.000000 0.000035 0.253845 0.000000 -0.057245 0.250295 0.000000 -0.112972 0.239308 0.000000 -0.165481 0.221948 0.000000 -0.213389 0.198814 0.000000 -0.255095 0.172059 0.000000 -0.290151 0.142985 0.000000 -0.317666 0.113798 0.000000 -0.338392 0.085254 0.000000 -0.351969 0.058712 0.000000 -0.359911 0.034167 0.000000 -0.361944 0.012323 0.000000 -0.359928 -0.007207 0.000000 -0.353391 -0.024074 0.000000 -0.344291 -0.038775 0.000000 -0.331851 -0.051181 0.000000 -0.318017 -0.061733 0.000000 -0.301741 -0.070491 0.000000 -0.284887 -0.077724 0.000000 -0.266257 -0.083674 0.000000 -0.247558 -0.088389 0.000000 -0.227581 -0.092277 0.000000 -0.207813 -0.095171 0.000000 -0.187144 -0.097608 0.000000 -0.166800 -0.099247 0.000000 -0.145845 -0.100709 0.000000 -0.125222 -0.101530 0.000000 -0.104210 -0.102373 0.000000 -0.083470 -0.102698 0.000000 -0.062510 -0.103173 0.000000 -0.041717 -0.103215 0.000000 -0.020838 -0.103480 0.000000 
-0.000004 -0.124209 0.000000 0.020880 -0.124358 0.000000 0.041872 -0.124088 0.000000 0.062744 -0.124089 0.000000 0.083883 -0.123620 0.000000 0.104787 -0.123337 0.000000 0.126097 -0.122483 0.000000 0.147018 -0.121663 0.000000 0.168447 -0.120129 0.000000 0.189284 -0.118391 0.000000 0.210657 -0.115756 0.000000 0.231181 -0.112579 0.000000 0.252145 -0.108270 0.000000 0.271919 -0.102963 0.000000 0.291844 -0.096226 0.000000 0.310107 -0.087910 0.000000 0.327935 -0.077784 0.000000 0.343410 -0.065402 0.000000 0.357464 -0.050734 0.000000 0.368155 -0.033118 0.000000 0.375997 -0.012695 0.000000 0.379104 0.011223 0.000000 0.377621 0.038284 0.000000 0.369822 0.068910 0.000000 0.355708 0.102321 0.000000 0.333932 0.138300 0.000000 0.304740 0.175237 0.000000 0.267556 0.211849 0.000000 0.223394 0.245494 0.000000 0.172841 0.274273 0.000000 0.117796 0.295739 0.000000 0.059577 0.309157 0.000000 0.000040 0.313479 0.000000 -0.059564 0.309168 0.000000 -0.117719 0.295725 0.000000 -0.172812 0.274304 0.000000 -0.223330 0.245480 0.000000 -0.267511 0.211902 0.000000 -0.304700 0.175237 0.000000 -0.333882 0.138364 0.000000 -0.355699 0.102341 0.000000 -0.369780 0.068971 0.000000 -0.377641 0.038315 0.000000 -0.379078 0.011265 0.000000 -0.376035 -0.012662 0.000000 -0.368146 -0.033099 0.000000 -0.357508 -0.050705 0.000000 -0.343414 -0.065402 0.000000 -0.327974 -0.077759 0.000000 -0.310122 -0.087921 0.000000 -0.291876 -0.096206 0.000000 -0.271944 -0.102978 0.000000 -0.252170 -0.108257 0.000000 -0.231213 -0.112595 0.000000 -0.210678 -0.115748 0.000000 -0.189320 -0.118406 0.000000 -0.168464 -0.120126 0.000000 -0.147056 -0.121675 0.000000 -0.126111 -0.122484 0.000000 -0.104823 -0.123346 0.000000 -0.083894 -0.123622 0.000000 -0.062779 -0.124095 0.000000 -0.041881 -0.124089 0.000000 -0.020914 -0.124360 0.000000 
0.000002 -0.145152 0.000000 0.020934 -0.145355 0.000000 0.041986 -0.145080 0.000000 0.062953 -0.145181 0.000000 0.084220 -0.144741 0.000000 0.105322 -0.144582 0.000000 0.126891 -0.143765 0.000000 0.148171 -0.143052 0.000000 0.170057 -0.141520 0.000000 0.191477 -0.139811 0.000000 0.213579 -0.137079 0.000000 0.234973 -0.133757 0.000000 0.257007 -0.129145 0.000000 0.277990 -0.123367 0.000000 0.299355 -0.115933 0.000000 0.319151 -0.106579 0.000000 0.338702 -0.095060 0.000000 0.355890 -0.080717 0.000000 0.371688 -0.063547 0.000000 0.383944 -0.042627 0.000000 0.393140 -0.018185 0.000000 0.397197 0.010663 0.000000 0.396177 0.043424 0.000000 0.388201 0.080579 0.000000 0.373246 0.121129 0.000000 0.349939 0.164718 0.000000 0.318650 0.209360 0.000000 0.278944 0.253364 0.000000 0.232102 0.293538 0.000000 0.178920 0.327521 0.000000 0.121548 0.352581 0.000000 0.061320 0.368042 0.000000 0.000041 0.372985 0.000000 -0.061327 0.368055 0.000000 -0.121469 0.352556 0.000000 -0.178901 0.327559 0.000000 -0.232037 0.293513 0.000000 -0.278902 0.253429 0.000000 -0.318616 0.209357 0.000000 -0.349891 0.164797 0.000000 -0.373252 0.121151 0.000000 -0.388164 0.080654 0.000000 -0.396219 0.043465 0.000000 -0.397179 0.010718 0.000000 -0.393200 -0.018139 0.000000 -0.383942 -0.042602 0.000000 -0.371747 -0.063507 0.000000 -0.355899 -0.080715 0.000000 -0.338750 -0.095025 0.000000 -0.319171 -0.106589 0.000000 -0.299390 -0.115902 0.000000 -0.278018 -0.123379 0.000000 -0.257031 -0.129121 0.000000 -0.235005 -0.133769 0.000000 -0.213594 -0.137063 0.000000 -0.191510 -0.139822 0.000000 -0.170066 -0.141512 0.000000 -0.148203 -0.143061 0.000000 -0.126895 -0.143762 0.000000 -0.105350 -0.144590 0.000000 -0.084220 -0.144741 0.000000 -0.062978 -0.145186 0.000000 -0.041983 -0.145081 0.000000 -0.020958 -0.145357 0.000000 
-0.000002 -0.166101 0.000000 0.020953 -0.166342 0.000000 0.042048 -0.166107 0.000000 0.063084 -0.166324 0.000000 0.084484 -0.165989 0.000000 0.105764 -0.166008 0.000000 0.127627 -0.165333 0.000000 0.149259 -0.164828 0.000000 0.171674 -0.163434 0.000000 0.193692 -0.161913 0.000000 0.216634 -0.159252 0.000000 0.238946 -0.156007 0.000000 0.262187 -0.151288 0.000000 0.284452 -0.145311 0.000000 0.307364 -0.137387 0.000000 0.328715 -0.127258 0.000000 0.349927 -0.114522 0.000000 0.368587 -0.098387 0.000000 0.385625 -0.078789 0.000000 0.398621 -0.054570 0.000000 0.407890 -0.025948 0.000000 0.411284 0.008186 0.000000 0.408789 0.047280 0.000000 0.398720 0.091842 0.000000 0.381150 0.140584 0.000000 0.355068 0.192896 0.000000 0.321052 0.246231 0.000000 0.279039 0.298398 0.000000 0.230531 0.345519 0.000000 0.176532 0.384827 0.000000 0.119279 0.413338 0.000000 0.059936 0.430664 0.000000 0.000045 0.436126 0.000000 -0.059965 0.430678 0.000000 -0.119192 0.413299 0.000000 -0.176519 0.384872 0.000000 -0.230460 0.345481 0.000000 -0.278993 0.298481 0.000000 -0.321021 0.246226 0.000000 -0.355010 0.192999 0.000000 -0.381160 0.140614 0.000000 -0.398669 0.091939 0.000000 -0.408838 0.047329 0.000000 -0.411257 0.008246 0.000000 -0.407959 -0.025899 0.000000 -0.398617 -0.054552 0.000000 -0.385692 -0.078748 0.000000 -0.368596 -0.098398 0.000000 -0.349977 -0.114487 0.000000 -0.328734 -0.127281 0.000000 -0.307398 -0.137359 0.000000 -0.284483 -0.145337 0.000000 -0.262212 -0.151270 0.000000 -0.238986 -0.156032 0.000000 -0.216654 -0.159243 0.000000 -0.193736 -0.161934 0.000000 -0.171691 -0.163433 0.000000 -0.149302 -0.164846 0.000000 -0.127639 -0.165336 0.000000 -0.105804 -0.166021 0.000000 -0.084492 -0.165993 0.000000 -0.063120 -0.166332 0.000000 -0.042053 -0.166109 0.000000 -0.020986 -0.166345 0.000000 
0.000004 -0.187091 0.000000 0.020929 -0.187405 0.000000 0.042004 -0.187211 0.000000 0.063072 -0.187617 0.000000 0.084537 -0.187421 0.000000 0.105978 -0.187725 0.000000 0.128068 -0.187260 0.000000 0.150058 -0.187099 0.000000 0.172938 -0.185953 0.000000 0.195575 -0.184770 0.000000 0.219296 -0.182334 0.000000 0.242540 -0.179311 0.000000 0.266912 -0.174650 0.000000 0.290383 -0.168544 0.000000 0.314662 -0.160196 0.000000 0.337236 -0.149143 0.000000 0.359610 -0.134933 0.000000 0.378934 -0.116415 0.000000 0.396167 -0.093581 0.000000 0.408597 -0.064892 0.000000 0.416595 -0.030849 0.000000 0.417990 0.009765 0.000000 0.412876 0.055988 0.000000 0.399696 0.108217 0.000000 0.378798 0.164781 0.000000 0.349477 0.224816 0.000000 0.312735 0.285390 0.000000 0.268901 0.343885 0.000000 0.219846 0.396045 0.000000 0.166717 0.438773 0.000000 0.111788 0.469176 0.000000 0.055851 0.487276 0.000000 0.000044 0.492887 0.000000 -0.055921 0.487292 0.000000 -0.111702 0.469111 0.000000 -0.166725 0.438827 0.000000 -0.219775 0.395986 0.000000 -0.268861 0.343990 0.000000 -0.312716 0.285375 0.000000 -0.349422 0.224937 0.000000 -0.378832 0.164810 0.000000 -0.399653 0.108332 0.000000 -0.412965 0.056053 0.000000 -0.417978 0.009839 0.000000 -0.416700 -0.030779 0.000000 -0.408605 -0.064869 0.000000 -0.396254 -0.093528 0.000000 -0.378949 -0.116430 0.000000 -0.359670 -0.134887 0.000000 -0.337262 -0.149168 0.000000 -0.314700 -0.160153 0.000000 -0.290421 -0.168565 0.000000 -0.266934 -0.174617 0.000000 -0.242583 -0.179327 0.000000 -0.219308 -0.182314 0.000000 -0.195616 -0.184785 0.000000 -0.172943 -0.185945 0.000000 -0.150093 -0.187113 0.000000 -0.128067 -0.187261 0.000000 -0.106007 -0.187737 0.000000 -0.084532 -0.187425 0.000000 -0.063096 -0.187625 0.000000 -0.041996 -0.187214 0.000000 -0.020950 -0.187408 0.000000 
0.000000 -0.207980 0.000000 0.020833 -0.208342 0.000000 0.041837 -0.208250 0.000000 0.062875 -0.208857 0.000000 0.084376 -0.208896 0.000000 0.105922 -0.209539 0.000000 0.128241 -0.209412 0.000000 0.150532 -0.209698 0.000000 0.173917 -0.208952 0.000000 0.197113 -0.208271 0.000000 0.221665 -0.206217 0.000000 0.245753 -0.203623 0.000000 0.271244 -0.199131 0.000000 0.295724 -0.193061 0.000000 0.321106 -0.184240 0.000000 0.344365 -0.172206 0.000000 0.367053 -0.156221 0.000000 0.385745 -0.134944 0.000000 0.401313 -0.108452 0.000000 0.410644 -0.074999 0.000000 0.413949 -0.035342 0.000000 0.409333 0.011905 0.000000 0.397215 0.065574 0.000000 0.376977 0.125919 0.000000 0.349647 0.190803 0.000000 0.315536 0.258959 0.000000 0.276185 0.326807 0.000000 0.232512 0.391287 0.000000 0.186453 0.447702 0.000000 0.138993 0.492885 0.000000 0.092020 0.524205 0.000000 0.045529 0.542408 0.000000 0.000047 0.547898 0.000000 -0.045656 0.542425 0.000000 -0.091930 0.524103 0.000000 -0.139021 0.492944 0.000000 -0.186384 0.447618 0.000000 -0.232477 0.391422 0.000000 -0.276186 0.326787 0.000000 -0.315470 0.259115 0.000000 -0.349687 0.190844 0.000000 -0.376905 0.126071 0.000000 -0.397315 0.065654 0.000000 -0.409307 0.011981 0.000000 -0.414072 -0.035272 0.000000 -0.410658 -0.074997 0.000000 -0.401417 -0.108404 0.000000 -0.385760 -0.134983 0.000000 -0.367113 -0.156174 0.000000 -0.344389 -0.172252 0.000000 -0.321137 -0.184200 0.000000 -0.295764 -0.193103 0.000000 -0.271264 -0.199108 0.000000 -0.245806 -0.203658 0.000000 -0.221683 -0.206210 0.000000 -0.197169 -0.208299 0.000000 -0.173932 -0.208956 0.000000 -0.150584 -0.209721 0.000000 -0.128251 -0.209422 0.000000 -0.105964 -0.209556 0.000000 -0.084381 -0.208905 0.000000 -0.062910 -0.208868 0.000000 -0.041838 -0.208255 0.000000 -0.020864 -0.208345 0.000000 
0.000008 -0.228788 0.000000 0.020659 -0.229242 0.000000 0.041490 -0.229253 0.000000 0.062426 -0.230156 0.000000 0.083853 -0.230467 0.000000 0.105451 -0.231590 0.000000 0.127878 -0.231871 0.000000 0.150436 -0.232775 0.000000 0.174169 -0.232533 0.000000 0.197873 -0.232519 0.000000 0.223024 -0.230974 0.000000 0.247783 -0.228889 0.000000 0.273954 -0.224621 0.000000 0.298863 -0.218406 0.000000 0.324377 -0.208837 0.000000 0.346787 -0.195090 0.000000 0.367675 -0.176313 0.000000 0.382697 -0.150674 0.000000 0.392868 -0.118480 0.000000 0.394973 -0.077528 0.000000 0.389844 -0.029537 0.000000 0.376389 0.026498 0.000000 0.355678 0.088344 0.000000 0.327792 0.155785 0.000000 0.294489 0.226221 0.000000 0.256731 0.298278 0.000000 0.216706 0.368414 0.000000 0.175816 0.433617 0.000000 0.136108 0.489563 0.000000 0.098230 0.533206 0.000000 0.063479 0.562641 0.000000 0.030804 0.579249 0.000000 0.000044 0.584071 0.000000 -0.031016 0.579269 0.000000 -0.063402 0.562477 0.000000 -0.098293 0.533281 0.000000 -0.136043 0.489441 0.000000 -0.175794 0.433792 0.000000 -0.216726 0.368367 0.000000 -0.256651 0.298438 0.000000 -0.294543 0.226246 0.000000 -0.327720 0.155959 0.000000 -0.355850 0.088455 0.000000 -0.376389 0.026596 0.000000 -0.390021 -0.029429 0.000000 -0.395001 -0.077524 0.000000 -0.392994 -0.118426 0.000000 -0.382714 -0.150733 0.000000 -0.367743 -0.176258 0.000000 -0.346822 -0.195145 0.000000 -0.324410 -0.208777 0.000000 -0.298916 -0.218438 0.000000 -0.273969 -0.224575 0.000000 -0.247841 -0.228908 0.000000 -0.223029 -0.230951 0.000000 -0.197925 -0.232536 0.000000 -0.174168 -0.232530 0.000000 -0.150476 -0.232793 0.000000 -0.127871 -0.231881 0.000000 -0.105480 -0.231608 0.000000 -0.083841 -0.230479 0.000000 -0.062446 -0.230168 0.000000 -0.041475 -0.229261 0.000000 -0.020675 -0.229246 0.000000 
0.000005 -0.249314 0.000000 0.020369 -0.249824 0.000000 0.040923 -0.250016 0.000000 0.061660 -0.251220 0.000000 0.082932 -0.251920 0.000000 0.104490 -0.253564 0.000000 0.126982 -0.254397 0.000000 0.149688 -0.255989 0.000000 0.173751 -0.256390 0.000000 0.197755 -0.257126 0.000000 0.223401 -0.256126 0.000000 0.248381 -0.254553 0.000000 0.274750 -0.250211 0.000000 0.299060 -0.243483 0.000000 0.323278 -0.232164 0.000000 0.342719 -0.215504 0.000000 0.358956 -0.192131 0.000000 0.366858 -0.160137 0.000000 0.367821 -0.120727 0.000000 0.358351 -0.071976 0.000000 0.339307 -0.016759 0.000000 0.310815 0.046072 0.000000 0.275108 0.114171 0.000000 0.234530 0.187108 0.000000 0.192327 0.261864 0.000000 0.151091 0.336741 0.000000 0.113426 0.407723 0.000000 0.080984 0.471885 0.000000 0.054842 0.525289 0.000000 0.034446 0.565515 0.000000 0.019911 0.591630 0.000000 0.008649 0.605842 0.000000 0.000053 0.609718 0.000000 -0.008986 0.605871 0.000000 -0.019838 0.591380 0.000000 -0.034544 0.565586 0.000000 -0.054800 0.525119 0.000000 -0.080986 0.472105 0.000000 -0.113508 0.407643 0.000000 -0.150971 0.336932 0.000000 -0.192344 0.261913 0.000000 -0.234360 0.187378 0.000000 -0.275272 0.114324 0.000000 -0.310781 0.046152 0.000000 -0.339510 -0.016660 0.000000 -0.358410 -0.072024 0.000000 -0.367985 -0.120691 0.000000 -0.366874 -0.160234 0.000000 -0.359014 -0.192066 0.000000 -0.342739 -0.215585 0.000000 -0.323286 -0.232106 0.000000 -0.299114 -0.243543 0.000000 -0.274756 -0.250183 0.000000 -0.248457 -0.254598 0.000000 -0.223417 -0.256125 0.000000 -0.197832 -0.257161 0.000000 -0.173768 -0.256405 0.000000 -0.149751 -0.256018 0.000000 -0.126991 -0.254418 0.000000 -0.104535 -0.253586 0.000000 -0.082932 -0.251939 0.000000 -0.061690 -0.251233 0.000000 -0.040916 -0.250027 0.000000 -0.020391 -0.249829 0.000000 
0.000013 -0.269548 0.000000 0.019956 -0.270160 0.000000 0.040093 -0.270544 0.000000 0.060515 -0.272164 0.000000 0.081486 -0.273297 0.000000 0.102912 -0.275640 0.000000 0.125293 -0.277070 0.000000 0.148061 -0.279544 0.000000 0.172169 -0.280600 0.000000 0.196287 -0.282169 0.000000 0.221828 -0.281600 0.000000 0.246398 -0.280238 0.000000 0.271574 -0.275299 0.000000 0.293382 -0.266934 0.000000 0.313324 -0.252496 0.000000 0.325471 -0.230767 0.000000 0.331720 -0.200452 0.000000 0.325339 -0.159540 0.000000 0.308756 -0.109973 0.000000 0.279674 -0.049014 0.000000 0.241493 0.017999 0.000000 0.197318 0.090698 0.000000 0.150253 0.164629 0.000000 0.103089 0.238566 0.000000 0.059279 0.309661 0.000000 0.021268 0.377180 0.000000 -0.008298 0.438521 0.000000 -0.027683 0.492201 0.000000 -0.036523 0.536102 0.000000 -0.036326 0.568137 0.000000 -0.028031 0.588438 0.000000 -0.015627 0.599107 0.000000 0.000059 0.601706 0.000000 0.015108 0.599159 0.000000 0.028045 0.588035 0.000000 0.036177 0.568243 0.000000 0.036561 0.535884 0.000000 0.027654 0.492500 0.000000 0.008189 0.438352 0.000000 -0.021045 0.377274 0.000000 -0.059199 0.309635 0.000000 -0.102858 0.238887 0.000000 -0.150566 0.164876 0.000000 -0.197324 0.090834 0.000000 -0.241751 0.018200 0.000000 -0.279734 -0.049049 0.000000 -0.308918 -0.109962 0.000000 -0.325333 -0.159705 0.000000 -0.331782 -0.200393 0.000000 -0.325518 -0.230873 0.000000 -0.313337 -0.252403 0.000000 -0.293465 -0.266968 0.000000 -0.271574 -0.275232 0.000000 -0.246482 -0.280247 0.000000 -0.221825 -0.281577 0.000000 -0.196355 -0.282185 0.000000 -0.172162 -0.280611 0.000000 -0.148107 -0.279570 0.000000 -0.125279 -0.277097 0.000000 -0.102938 -0.275667 0.000000 -0.081466 -0.273323 0.000000 -0.060528 -0.272184 0.000000 -0.040069 -0.270560 0.000000 -0.019962 -0.270168 0.000000 
0.000012 -0.289232 0.000000 0.019372 -0.289904 0.000000 0.038915 -0.290575 0.000000 0.058891 -0.292612 0.000000 0.079408 -0.294317 0.000000 0.100585 -0.297371 0.000000 0.122751 -0.299546 0.000000 0.145389 -0.302865 0.000000 0.169409 -0.304615 0.000000 0.193110 -0.306785 0.000000 0.217978 -0.306238 0.000000 0.240596 -0.304299 0.000000 0.262503 -0.297195 0.000000 0.278095 -0.285233 0.000000 0.288753 -0.264253 0.000000 0.287201 -0.233901 0.000000 0.275951 -0.192000 0.000000 0.248678 -0.137173 0.000000 0.211227 -0.075062 0.000000 0.161544 -0.004713 0.000000 0.102216 0.065598 0.000000 0.038499 0.137312 0.000000 -0.024934 0.208400 0.000000 -0.081776 0.278082 0.000000 -0.126994 0.343685 0.000000 -0.157311 0.404318 0.000000 -0.171215 0.456674 0.000000 -0.167990 0.500110 0.000000 -0.150354 0.533931 0.000000 -0.121945 0.557022 0.000000 -0.084678 0.570931 0.000000 -0.044060 0.577752 0.000000 0.000092 0.578982 0.000000 0.043255 0.577885 0.000000 0.084676 0.570312 0.000000 0.121827 0.557069 0.000000 0.150367 0.533642 0.000000 0.167852 0.500477 0.000000 0.170855 0.456342 0.000000 0.157609 0.404321 0.000000 0.127312 0.343727 0.000000 0.082338 0.278744 0.000000 0.024704 0.208790 0.000000 -0.038393 0.137337 0.000000 -0.102475 0.065750 0.000000 -0.161711 -0.004857 0.000000 -0.211490 -0.075091 0.000000 -0.248657 -0.137370 0.000000 -0.275972 -0.191881 0.000000 -0.287203 -0.234030 0.000000 -0.288695 -0.264159 0.000000 -0.278178 -0.285306 0.000000 -0.262486 -0.297166 0.000000 -0.240715 -0.304346 0.000000 -0.218000 -0.306253 0.000000 -0.193221 -0.306824 0.000000 -0.169435 -0.304653 0.000000 -0.145468 -0.302901 0.000000 -0.122762 -0.299587 0.000000 -0.100630 -0.297400 0.000000 -0.079401 -0.294349 0.000000 -0.058910 -0.292631 0.000000 -0.038895 -0.290593 0.000000 -0.019379 -0.289910 0.000000 
0.000019 -0.308299 0.000000 0.018609 -0.309064 0.000000 0.037373 -0.310063 0.000000 0.056738 -0.312657 0.000000 0.076627 -0.314991 0.000000 0.097420 -0.318983 0.000000 0.119153 -0.321874 0.000000 0.141481 -0.326202 0.000000 0.164886 -0.328320 0.000000 0.187547 -0.330738 0.000000 0.210026 -0.329086 0.000000 0.228357 -0.324763 0.000000 0.242379 -0.312799 0.000000 0.245743 -0.293184 0.000000 0.238740 -0.261602 0.000000 0.213528 -0.217966 0.000000 0.175723 -0.161929 0.000000 0.116183 -0.094815 0.000000 0.043853 -0.022839 0.000000 -0.038837 0.059997 0.000000 -0.122134 0.141044 0.000000 -0.193491 0.217847 0.000000 -0.251523 0.284904 0.000000 -0.294900 0.340625 0.000000 -0.321859 0.385196 0.000000 -0.332493 0.421401 0.000000 -0.325917 0.449199 0.000000 -0.300118 0.471339 0.000000 -0.258393 0.490057 0.000000 -0.204331 0.502461 0.000000 -0.140036 0.510553 0.000000 -0.072178 0.514336 0.000000 0.000212 0.514391 0.000000 0.071043 0.514576 0.000000 0.139885 0.509463 0.000000 0.204331 0.502552 0.000000 0.258500 0.489858 0.000000 0.299767 0.472012 0.000000 0.325278 0.448595 0.000000 0.333087 0.420816 0.000000 0.322738 0.384907 0.000000 0.295648 0.341495 0.000000 0.250749 0.285606 0.000000 0.193454 0.218013 0.000000 0.121929 0.141518 0.000000 0.038771 0.059967 0.000000 -0.043991 -0.023016 0.000000 -0.116042 -0.095223 0.000000 -0.175760 -0.161847 0.000000 -0.213637 -0.218150 0.000000 -0.238718 -0.261427 0.000000 -0.245899 -0.293177 0.000000 -0.242355 -0.312695 0.000000 -0.228486 -0.324733 0.000000 -0.210015 -0.329070 0.000000 -0.187637 -0.330749 0.000000 -0.164875 -0.328364 0.000000 -0.141531 -0.326243 0.000000 -0.119133 -0.321935 0.000000 -0.097438 -0.319028 0.000000 -0.076598 -0.315043 0.000000 -0.056736 -0.312689 0.000000 -0.037337 -0.310092 0.000000 -0.018597 -0.309075 0.000000 