# vtk DataFile Version 2.0
Comment goes here
ASCII

DATASET STRUCTURED_POINTS
FIELD FieldData 1
TIME 1 1 double
1.20000000
DIMENSIONS    64   64   1

ORIGIN    0.000   0.000   0.000
SPACING   0.015625 0.015625   1.000

POINT_DATA   4096
VECTORS u double

-0.000315 0.000000 0.000000 0.005701 0.000000 0.000000 0.011908 0.000000 0.000000 0.017427 0.000000 0.000000 0.022867 0.000000 0.000000 0.027293 0.000000 0.000000 0.031373 0.000000 0.000000 0.034173 0.000000 0.000000 0.036375 0.000000 0.000000 0.037118 0.000000 0.000000 0.037049 0.000000 0.000000 0.035462 0.000000 0.000000 0.032922 0.000000 0.000000 0.028965 0.000000 0.000000 0.024026 0.000000 0.000000 0.017966 0.000000 0.000000 0.011058 0.000000 0.000000 0.003539 0.000000 0.000000 -0.004511 0.000000 0.000000 -0.012466 0.000000 0.000000 -0.020469 0.000000 0.000000 -0.027558 0.000000 0.000000 -0.034121 0.000000 0.000000 -0.038968 0.000000 0.000000 -0.042757 0.000000 0.000000 -0.044169 0.000000 0.000000 -0.044175 0.000000 0.000000 -0.041371 0.000000 0.000000 -0.037135 0.000000 0.000000 -0.030033 0.000000 0.000000 -0.021972 0.000000 0.000000 -0.011633 0.000000 0.000000 -0.001376 0.000000 0.000000 0.009903 0.000000 0.000000 0.019807 0.000000 0.000000 0.029248 0.000000 0.000000 0.036377 0.000000 0.000000 0.041882 0.000000 0.000000 0.044860 0.000000 0.000000 0.045624 0.000000 0.000000 0.044280 0.000000 0.000000 0.040679 0.000000 0.000000 0.035753 0.000000 0.000000 0.028966 0.000000 0.000000 0.021723 0.000000 0.000000 0.013310 0.000000 0.000000 0.005206 0.000000 0.000000 -0.003287 0.000000 0.000000 -0.010898 0.000000 0.000000 -0.018207 0.000000 0.000000 -0.024279 0.000000 0.000000 -0.029560 0.000000 0.000000 -0.033443 0.000000 0.000000 -0.036282 0.000000 0.000000 -0.037712 0.000000 0.000000 -0.038056 0.000000 0.000000 -0.037086 0.000000 0.000000 -0.035156 0.000000 0.000000 -0.032076 0.000000 0.000000 -0.028279 0.000000 0.000000 -0.023538 0.000000 0.000000 -0.018399 0.000000 0.000000 -0.012550 0.000000 0.000000 -0.006661 0.000000 0.000000 
-0.000237 -0.006181 0.000000 0.005833 -0.006112 0.000000 0.012102 -0.005863 0.000000 0.017680 -0.005479 0.000000 0.023183 -0.004933 0.000000 0.027678 -0.004253 0.000000 0.031827 -0.003440 0.000000 0.034711 -0.002501 0.000000 0.036993 -0.001472 0.000000 0.037839 -0.000337 0.000000 0.037867 0.000828 0.000000 0.036405 0.002063 0.000000 0.033983 0.003249 0.000000 0.030176 0.004448 0.000000 0.025382 0.005499 0.000000 0.019496 0.006484 0.000000 0.012760 0.007214 0.000000 0.005433 0.007785 0.000000 -0.002425 0.008003 0.000000 -0.010189 0.007979 0.000000 -0.018003 0.007546 0.000000 -0.024942 0.006826 0.000000 -0.031372 0.005705 0.000000 -0.036182 0.004318 0.000000 -0.039973 0.002601 0.000000 -0.041555 0.000709 0.000000 -0.041773 -0.001399 0.000000 -0.039371 -0.003520 0.000000 -0.035543 -0.005669 0.000000 -0.028948 -0.007582 0.000000 -0.021332 -0.009200 0.000000 -0.011437 -0.010298 0.000000 -0.001569 -0.010768 0.000000 0.009332 -0.010592 0.000000 0.018837 -0.009673 0.000000 0.027874 -0.008285 0.000000 0.034565 -0.006317 0.000000 0.039688 -0.004241 0.000000 0.042324 -0.001871 0.000000 0.042876 0.000290 0.000000 0.041403 0.002472 0.000000 0.037798 0.004264 0.000000 0.032925 0.005856 0.000000 0.026288 0.007015 0.000000 0.019199 0.007828 0.000000 0.011008 0.008259 0.000000 0.003093 0.008298 0.000000 -0.005164 0.008052 0.000000 -0.012586 0.007460 0.000000 -0.019681 0.006691 0.000000 -0.025579 0.005677 0.000000 -0.030683 0.004582 0.000000 -0.034414 0.003361 0.000000 -0.037112 0.002134 0.000000 -0.038413 0.000887 0.000000 -0.038648 -0.000313 0.000000 -0.037569 -0.001450 0.000000 -0.035555 -0.002505 0.000000 -0.032384 -0.003439 0.000000 -0.028519 -0.004269 0.000000 -0.023701 -0.004940 0.000000 -0.018504 -0.005494 0.000000 -0.012587 -0.005869 0.000000 -0.006645 -0.006118 0.000000 
-0.000300 -0.012478 0.000000 0.005882 -0.012338 0.000000 0.012264 -0.011846 0.000000 0.017953 -0.011081 0.000000 0.023581 -0.009999 0.000000 0.028192 -0.008645 0.000000 0.032483 -0.007033 0.000000 0.035492 -0.005166 0.000000 0.037935 -0.003128 0.000000 0.038917 -0.000873 0.000000 0.039121 0.001434 0.000000 0.037805 0.003883 0.000000 0.035565 0.006229 0.000000 0.031902 0.008601 0.000000 0.027275 0.010679 0.000000 0.021515 0.012622 0.000000 0.014903 0.014063 0.000000 0.007662 0.015185 0.000000 -0.000140 0.015622 0.000000 -0.007876 0.015578 0.000000 -0.015717 0.014753 0.000000 -0.022693 0.013369 0.000000 -0.029232 0.011241 0.000000 -0.034144 0.008602 0.000000 -0.038123 0.005372 0.000000 -0.039872 0.001800 0.000000 -0.040355 -0.002183 0.000000 -0.038169 -0.006230 0.000000 -0.034643 -0.010423 0.000000 -0.028256 -0.014211 0.000000 -0.020911 -0.017512 0.000000 -0.011178 -0.019763 0.000000 -0.001527 -0.020769 0.000000 0.009242 -0.020405 0.000000 0.018554 -0.018542 0.000000 0.027434 -0.015728 0.000000 0.033916 -0.011814 0.000000 0.038814 -0.007759 0.000000 0.041215 -0.003188 0.000000 0.041477 0.000921 0.000000 0.039775 0.005077 0.000000 0.035879 0.008478 0.000000 0.030850 0.011510 0.000000 0.023991 0.013727 0.000000 0.016846 0.015280 0.000000 0.008545 0.016106 0.000000 0.000666 0.016172 0.000000 -0.007585 0.015679 0.000000 -0.014905 0.014517 0.000000 -0.021902 0.012994 0.000000 -0.027659 0.011002 0.000000 -0.032606 0.008835 0.000000 -0.036180 0.006429 0.000000 -0.038697 0.003998 0.000000 -0.039842 0.001536 0.000000 -0.039896 -0.000843 0.000000 -0.038672 -0.003093 0.000000 -0.036490 -0.005186 0.000000 -0.033187 -0.007036 0.000000 -0.029173 -0.008683 0.000000 -0.024236 -0.010015 0.000000 -0.018907 -0.011114 0.000000 -0.012879 -0.011859 0.000000 -0.006817 -0.012351 0.000000 
-0.000205 -0.018880 0.000000 0.006191 -0.018676 0.000000 0.012804 -0.017934 0.000000 0.018717 -0.016796 0.000000 0.024591 -0.015172 0.000000 0.029451 -0.013155 0.000000 0.034016 -0.010740 0.000000 0.037313 -0.007953 0.000000 0.040070 -0.004897 0.000000 0.041390 -0.001524 0.000000 0.041956 0.001939 0.000000 0.041032 0.005619 0.000000 0.039203 0.009152 0.000000 0.035983 0.012738 0.000000 0.031808 0.015886 0.000000 0.026525 0.018856 0.000000 0.020387 0.021066 0.000000 0.013631 0.022828 0.000000 0.006294 0.023541 0.000000 -0.000993 0.023557 0.000000 -0.008429 0.022363 0.000000 -0.015062 0.020341 0.000000 -0.021350 0.017156 0.000000 -0.026182 0.013208 0.000000 -0.030249 0.008329 0.000000 -0.032445 0.002941 0.000000 -0.033599 -0.003103 0.000000 -0.032530 -0.009232 0.000000 -0.030253 -0.015582 0.000000 -0.025248 -0.021313 0.000000 -0.019177 -0.026278 0.000000 -0.010532 -0.029683 0.000000 -0.001866 -0.031188 0.000000 0.008043 -0.030672 0.000000 0.016335 -0.027864 0.000000 0.024168 -0.023647 0.000000 0.029412 -0.017697 0.000000 0.033174 -0.011541 0.000000 0.034555 -0.004535 0.000000 0.034085 0.001731 0.000000 0.031946 0.008070 0.000000 0.027831 0.013188 0.000000 0.022853 0.017744 0.000000 0.016165 0.021019 0.000000 0.009347 0.023274 0.000000 0.001452 0.024439 0.000000 -0.005975 0.024429 0.000000 -0.013712 0.023622 0.000000 -0.020536 0.021777 0.000000 -0.026995 0.019444 0.000000 -0.032260 0.016381 0.000000 -0.036698 0.013104 0.000000 -0.039812 0.009452 0.000000 -0.041875 0.005796 0.000000 -0.042608 0.002085 0.000000 -0.042273 -0.001482 0.000000 -0.040692 -0.004856 0.000000 -0.038182 -0.007990 0.000000 -0.034570 -0.010755 0.000000 -0.030279 -0.013220 0.000000 -0.025073 -0.015206 0.000000 -0.019503 -0.016851 0.000000 -0.013233 -0.017958 0.000000 -0.006952 -0.018697 0.000000 
-0.000249 -0.025621 0.000000 0.006414 -0.025347 0.000000 0.013306 -0.024372 0.000000 0.019490 -0.022868 0.000000 0.025669 -0.020733 0.000000 0.030822 -0.018070 0.000000 0.035734 -0.014895 0.000000 0.039360 -0.011220 0.000000 0.042518 -0.007205 0.000000 0.044213 -0.002759 0.000000 0.045235 0.001791 0.000000 0.044732 0.006636 0.000000 0.043397 0.011279 0.000000 0.040625 0.015997 0.000000 0.036947 0.020137 0.000000 0.032102 0.024042 0.000000 0.026405 0.026958 0.000000 0.020023 0.029278 0.000000 0.013006 0.030245 0.000000 0.005980 0.030300 0.000000 -0.001305 0.028822 0.000000 -0.007833 0.026290 0.000000 -0.014161 0.022361 0.000000 -0.019091 0.017501 0.000000 -0.023447 0.011635 0.000000 -0.026061 0.005149 0.000000 -0.027878 -0.002099 0.000000 -0.027586 -0.009576 0.000000 -0.026308 -0.017705 0.000000 -0.022245 -0.025287 0.000000 -0.017252 -0.032228 0.000000 -0.009507 -0.037074 0.000000 -0.001844 -0.039344 0.000000 0.007251 -0.038606 0.000000 0.014599 -0.034666 0.000000 0.021620 -0.028806 0.000000 0.025956 -0.020820 0.000000 0.028888 -0.012902 0.000000 0.029478 -0.004099 0.000000 0.028226 0.003530 0.000000 0.025509 0.011332 0.000000 0.020817 0.017571 0.000000 0.015622 0.023176 0.000000 0.008657 0.027233 0.000000 0.001932 0.029994 0.000000 -0.005933 0.031428 0.000000 -0.013058 0.031335 0.000000 -0.020514 0.030239 0.000000 -0.026916 0.027800 0.000000 -0.032934 0.024718 0.000000 -0.037725 0.020705 0.000000 -0.041648 0.016387 0.000000 -0.044287 0.011607 0.000000 -0.045832 0.006795 0.000000 -0.046120 0.001934 0.000000 -0.045306 -0.002760 0.000000 -0.043326 -0.007184 0.000000 -0.040395 -0.011307 0.000000 -0.036434 -0.014938 0.000000 -0.031780 -0.018180 0.000000 -0.026266 -0.020791 0.000000 -0.020382 -0.022954 0.000000 -0.013830 -0.024411 0.000000 -0.007267 -0.025379 0.000000 
-0.000133 -0.032561 0.000000 0.006883 -0.032231 0.000000 0.014154 -0.031010 0.000000 0.020706 -0.029159 0.000000 0.027294 -0.026504 0.000000 0.032856 -0.023220 0.000000 0.038230 -0.019278 0.000000 0.042331 -0.014736 0.000000 0.046023 -0.009751 0.000000 0.048278 -0.004241 0.000000 0.049917 0.001420 0.000000 0.050066 0.007457 0.000000 0.049431 0.013259 0.000000 0.047395 0.019189 0.000000 0.044480 0.024409 0.000000 0.040432 0.029397 0.000000 0.035534 0.033145 0.000000 0.029973 0.036226 0.000000 0.023759 0.037585 0.000000 0.017549 0.037868 0.000000 0.011041 0.036175 0.000000 0.005291 0.033197 0.000000 -0.000365 0.028414 0.000000 -0.004753 0.022494 0.000000 -0.008853 0.015298 0.000000 -0.011826 0.007372 0.000000 -0.014536 -0.001578 0.000000 -0.016255 -0.010802 0.000000 -0.017471 -0.020922 0.000000 -0.016210 -0.030369 0.000000 -0.013801 -0.039017 0.000000 -0.008089 -0.045091 0.000000 -0.002183 -0.047946 0.000000 0.005454 -0.047114 0.000000 0.010880 -0.042233 0.000000 0.015798 -0.035004 0.000000 0.017525 -0.024964 0.000000 0.018081 -0.015063 0.000000 0.016711 -0.003872 0.000000 0.014261 0.005699 0.000000 0.011080 0.015479 0.000000 0.006252 0.023076 0.000000 0.001485 0.029905 0.000000 -0.004991 0.034709 0.000000 -0.010953 0.037864 0.000000 -0.018022 0.039429 0.000000 -0.024293 0.039010 0.000000 -0.030839 0.037481 0.000000 -0.036379 0.034196 0.000000 -0.041482 0.030253 0.000000 -0.045442 0.025096 0.000000 -0.048509 0.019666 0.000000 -0.050378 0.013635 0.000000 -0.051160 0.007629 0.000000 -0.050762 0.001559 0.000000 -0.049292 -0.004276 0.000000 -0.046717 -0.009766 0.000000 -0.043233 -0.014881 0.000000 -0.038763 -0.019370 0.000000 -0.033642 -0.023389 0.000000 -0.027687 -0.026605 0.000000 -0.021400 -0.029287 0.000000 -0.014453 -0.031073 0.000000 -0.007526 -0.032278 0.000000 
-0.000151 -0.040029 0.000000 0.007259 -0.039634 0.000000 0.014946 -0.038195 0.000000 0.021901 -0.036007 0.000000 0.028948 -0.032883 0.000000 0.034954 -0.029006 0.000000 0.040860 -0.024370 0.000000 0.045474 -0.019013 0.000000 0.049794 -0.013152 0.000000 0.052651 -0.006653 0.000000 0.055024 0.000002 0.000000 0.055868 0.007122 0.000000 0.056058 0.013951 0.000000 0.054791 0.020947 0.000000 0.052745 0.027100 0.000000 0.049491 0.032988 0.000000 0.045423 0.037416 0.000000 0.040610 0.041054 0.000000 0.035090 0.042669 0.000000 0.029516 0.043018 0.000000 0.023514 0.041081 0.000000 0.018267 0.037695 0.000000 0.012950 0.032404 0.000000 0.008886 0.025990 0.000000 0.004864 0.018708 0.000000 0.001643 0.010832 0.000000 -0.001762 0.002330 0.000000 -0.004627 -0.006641 0.000000 -0.007540 -0.017750 0.000000 -0.008175 -0.028958 0.000000 -0.008185 -0.040348 0.000000 -0.004907 -0.048692 0.000000 -0.001787 -0.052887 0.000000 0.003354 -0.051668 0.000000 0.006177 -0.045010 0.000000 0.009026 -0.035452 0.000000 0.008789 -0.023103 0.000000 0.007861 -0.012087 0.000000 0.005255 -0.000279 0.000000 0.001670 0.009161 0.000000 -0.002241 0.019340 0.000000 -0.007681 0.027166 0.000000 -0.012346 0.034419 0.000000 -0.018872 0.039671 0.000000 -0.024241 0.043025 0.000000 -0.030891 0.044767 0.000000 -0.036367 0.044152 0.000000 -0.042182 0.042326 0.000000 -0.046864 0.038442 0.000000 -0.051074 0.033780 0.000000 -0.054177 0.027732 0.000000 -0.056314 0.021324 0.000000 -0.057374 0.014258 0.000000 -0.057277 0.007179 0.000000 -0.056148 0.000065 0.000000 -0.053899 -0.006805 0.000000 -0.050687 -0.013243 0.000000 -0.046540 -0.019262 0.000000 -0.041523 -0.024529 0.000000 -0.035848 -0.029256 0.000000 -0.029419 -0.033033 0.000000 -0.022662 -0.036187 0.000000 -0.015291 -0.038285 0.000000 -0.007947 -0.039699 0.000000 
-0.000004 -0.047767 0.000000 0.007853 -0.047327 0.000000 0.016027 -0.045652 0.000000 0.023452 -0.043161 0.000000 0.031032 -0.039557 0.000000 0.037568 -0.035132 0.000000 0.044089 -0.029798 0.000000 0.049329 -0.023670 0.000000 0.054372 -0.016927 0.000000 0.057980 -0.009470 0.000000 0.061202 -0.001797 0.000000 0.062940 0.006423 0.000000 0.064107 0.014336 0.000000 0.063875 0.022502 0.000000 0.062925 0.029709 0.000000 0.060833 0.036720 0.000000 0.057972 0.042026 0.000000 0.054444 0.046559 0.000000 0.050264 0.048678 0.000000 0.046159 0.049444 0.000000 0.041714 0.047424 0.000000 0.038291 0.043761 0.000000 0.034862 0.037795 0.000000 0.032979 0.030580 0.000000 0.030821 0.022542 0.000000 0.028644 0.013998 0.000000 0.025184 0.004693 0.000000 0.019149 -0.005025 0.000000 0.011397 -0.017374 0.000000 0.004928 -0.029723 0.000000 -0.000612 -0.042285 0.000000 -0.001504 -0.051490 0.000000 -0.001768 -0.056206 0.000000 0.000576 -0.055078 0.000000 -0.000579 -0.047906 0.000000 -0.002382 -0.037616 0.000000 -0.008409 -0.023799 0.000000 -0.014361 -0.011529 0.000000 -0.020356 0.002319 0.000000 -0.024993 0.013195 0.000000 -0.028231 0.024829 0.000000 -0.032698 0.033181 0.000000 -0.035423 0.041096 0.000000 -0.040286 0.046603 0.000000 -0.043747 0.049882 0.000000 -0.048638 0.051555 0.000000 -0.052486 0.050302 0.000000 -0.056684 0.047978 0.000000 -0.059969 0.043088 0.000000 -0.062755 0.037566 0.000000 -0.064630 0.030337 0.000000 -0.065530 0.022862 0.000000 -0.065507 0.014598 0.000000 -0.064349 0.006403 0.000000 -0.062279 -0.001818 0.000000 -0.059137 -0.009737 0.000000 -0.055123 -0.017125 0.000000 -0.050234 -0.024046 0.000000 -0.044541 -0.030062 0.000000 -0.038251 -0.035493 0.000000 -0.031246 -0.039791 0.000000 -0.023968 -0.043415 0.000000 -0.016088 -0.045787 0.000000 -0.008280 -0.047418 0.000000 
0.000018 -0.056162 0.000000 0.008340 -0.055666 0.000000 0.017011 -0.053794 0.000000 0.024918 -0.051012 0.000000 0.033058 -0.046999 0.000000 0.040139 -0.042063 0.000000 0.047327 -0.036131 0.000000 0.053217 -0.029296 0.000000 0.059076 -0.021803 0.000000 0.063475 -0.013484 0.000000 0.067689 -0.004958 0.000000 0.070382 0.004218 0.000000 0.072724 0.013015 0.000000 0.073619 0.022130 0.000000 0.074008 0.030143 0.000000 0.073205 0.037942 0.000000 0.071795 0.043805 0.000000 0.069690 0.048762 0.000000 0.066994 0.050954 0.000000 0.064421 0.051568 0.000000 0.061450 0.048949 0.000000 0.059710 0.044547 0.000000 0.057868 0.037716 0.000000 0.057859 0.030031 0.000000 0.057300 0.023044 0.000000 0.055966 0.016469 0.000000 0.052703 0.011825 0.000000 0.045855 0.007146 0.000000 0.036145 -0.003529 0.000000 0.026606 -0.016949 0.000000 0.015845 -0.033916 0.000000 0.008290 -0.047536 0.000000 -0.000089 -0.054967 0.000000 -0.005579 -0.052857 0.000000 -0.014146 -0.042052 0.000000 -0.021180 -0.027622 0.000000 -0.030958 -0.011124 0.000000 -0.038631 -0.000141 0.000000 -0.045524 0.010353 0.000000 -0.051169 0.017036 0.000000 -0.054875 0.027045 0.000000 -0.059215 0.034358 0.000000 -0.060323 0.042007 0.000000 -0.064076 0.047995 0.000000 -0.065381 0.051376 0.000000 -0.068645 0.053505 0.000000 -0.070541 0.052199 0.000000 -0.073010 0.049809 0.000000 -0.074663 0.044513 0.000000 -0.075813 0.038442 0.000000 -0.076316 0.030508 0.000000 -0.075751 0.022200 0.000000 -0.074556 0.013077 0.000000 -0.072134 0.003952 0.000000 -0.069066 -0.005147 0.000000 -0.064866 -0.013961 0.000000 -0.060012 -0.022146 0.000000 -0.054261 -0.029844 0.000000 -0.047867 -0.036513 0.000000 -0.040879 -0.042551 0.000000 -0.033286 -0.047316 0.000000 -0.025435 -0.051345 0.000000 -0.017042 -0.053972 0.000000 -0.008739 -0.055783 0.000000 
0.000206 -0.064847 0.000000 0.008998 -0.064320 0.000000 0.018195 -0.062230 0.000000 0.026601 -0.059207 0.000000 0.035331 -0.054778 0.000000 0.042992 -0.049401 0.000000 0.050883 -0.042876 0.000000 0.057482 -0.035420 0.000000 0.064195 -0.027185 0.000000 0.069475 -0.018083 0.000000 0.074724 -0.008703 0.000000 0.078514 0.001388 0.000000 0.082100 0.011099 0.000000 0.084357 0.021217 0.000000 0.086254 0.030123 0.000000 0.087146 0.038933 0.000000 0.087617 0.045541 0.000000 0.087655 0.051360 0.000000 0.087395 0.053946 0.000000 0.087625 0.054988 0.000000 0.087907 0.052135 0.000000 0.090152 0.047343 0.000000 0.092814 0.039646 0.000000 0.098908 0.031148 0.000000 0.104126 0.024435 0.000000 0.108486 0.018595 0.000000 0.109335 0.014803 0.000000 0.097792 0.011533 0.000000 0.078154 0.001875 0.000000 0.055764 -0.009423 0.000000 0.032354 -0.023969 0.000000 0.015716 -0.035556 0.000000 0.000833 -0.042338 0.000000 -0.010064 -0.041021 0.000000 -0.027258 -0.032305 0.000000 -0.045303 -0.020804 0.000000 -0.068823 -0.006348 0.000000 -0.087918 0.003037 0.000000 -0.100427 0.014857 0.000000 -0.104360 0.022546 0.000000 -0.102793 0.032876 0.000000 -0.102897 0.038629 0.000000 -0.098263 0.045956 0.000000 -0.097521 0.051661 0.000000 -0.094469 0.054451 0.000000 -0.093798 0.056715 0.000000 -0.092512 0.054667 0.000000 -0.091953 0.052100 0.000000 -0.091258 0.045891 0.000000 -0.090159 0.039219 0.000000 -0.088867 0.030274 0.000000 -0.086596 0.021102 0.000000 -0.083976 0.010981 0.000000 -0.080215 0.000913 0.000000 -0.075988 -0.009086 0.000000 -0.070717 -0.018791 0.000000 -0.064915 -0.027731 0.000000 -0.058303 -0.036191 0.000000 -0.051134 -0.043444 0.000000 -0.043454 -0.050073 0.000000 -0.035221 -0.055235 0.000000 -0.026802 -0.059658 0.000000 -0.017859 -0.062483 0.000000 -0.009062 -0.064479 0.000000 
0.000288 -0.074222 0.000000 0.009524 -0.073654 0.000000 0.019206 -0.071397 0.000000 0.028083 -0.068149 0.000000 0.037381 -0.063390 0.000000 0.045597 -0.057615 0.000000 0.054200 -0.050621 0.000000 0.061497 -0.042608 0.000000 0.069128 -0.033797 0.000000 0.075306 -0.024012 0.000000 0.081744 -0.013996 0.000000 0.086706 -0.003158 0.000000 0.091841 0.007172 0.000000 0.095659 0.017976 0.000000 0.099588 0.027353 0.000000 0.102600 0.036578 0.000000 0.105724 0.043297 0.000000 0.108618 0.048984 0.000000 0.111667 0.050984 0.000000 0.115523 0.051057 0.000000 0.119545 0.046422 0.000000 0.126038 0.039640 0.000000 0.132748 0.028960 0.000000 0.143894 0.018719 0.000000 0.153044 0.013466 0.000000 0.158548 0.011259 0.000000 0.160312 0.022519 0.000000 0.150333 0.038327 0.000000 0.132691 0.038499 0.000000 0.109475 0.028851 0.000000 0.077110 0.006132 0.000000 0.043621 -0.016015 0.000000 0.006060 -0.029188 0.000000 -0.027860 -0.024767 0.000000 -0.065057 -0.006813 0.000000 -0.094576 0.013943 0.000000 -0.121932 0.031491 0.000000 -0.137994 0.031464 0.000000 -0.147434 0.026795 0.000000 -0.152844 0.019402 0.000000 -0.153366 0.025582 0.000000 -0.152207 0.029829 0.000000 -0.142279 0.036632 0.000000 -0.137879 0.044201 0.000000 -0.129267 0.047653 0.000000 -0.124208 0.051548 0.000000 -0.118623 0.050353 0.000000 -0.114221 0.048556 0.000000 -0.110458 0.042719 0.000000 -0.106374 0.036050 0.000000 -0.102903 0.026945 0.000000 -0.098398 0.017309 0.000000 -0.094179 0.006696 0.000000 -0.088741 -0.004036 0.000000 -0.083289 -0.014645 0.000000 -0.076743 -0.025034 0.000000 -0.069975 -0.034560 0.000000 -0.062389 -0.043625 0.000000 -0.054454 -0.051361 0.000000 -0.046029 -0.058464 0.000000 -0.037181 -0.063969 0.000000 -0.028181 -0.068707 0.000000 -0.018726 -0.071712 0.000000 -0.009449 -0.073848 0.000000 
0.000532 -0.083820 0.000000 0.010151 -0.083239 0.000000 0.020286 -0.080789 0.000000 0.029581 -0.077381 0.000000 0.039418 -0.072292 0.000000 0.048150 -0.066221 0.000000 0.057437 -0.058776 0.000000 0.065405 -0.050347 0.000000 0.073917 -0.040994 0.000000 0.080994 -0.030699 0.000000 0.088568 -0.020103 0.000000 0.094766 -0.008709 0.000000 0.101406 0.002146 0.000000 0.106993 0.013470 0.000000 0.113026 0.023183 0.000000 0.118644 0.032797 0.000000 0.124863 0.039523 0.000000 0.131527 0.045417 0.000000 0.139088 0.047041 0.000000 0.147990 0.047110 0.000000 0.158029 0.041621 0.000000 0.171019 0.034141 0.000000 0.185349 0.021790 0.000000 0.208058 0.010852 0.000000 0.226826 0.009781 0.000000 0.247594 0.011327 0.000000 0.265887 0.023018 0.000000 0.249735 0.039155 0.000000 0.212573 0.042734 0.000000 0.163509 0.046158 0.000000 0.104843 0.041885 0.000000 0.054687 0.035493 0.000000 0.008753 0.029143 0.000000 -0.031574 0.030096 0.000000 -0.084101 0.034411 0.000000 -0.136492 0.036071 0.000000 -0.193712 0.037070 0.000000 -0.235065 0.028539 0.000000 -0.253269 0.029708 0.000000 -0.245886 0.028479 0.000000 -0.228684 0.032238 0.000000 -0.219286 0.027542 0.000000 -0.198915 0.031629 0.000000 -0.186611 0.038649 0.000000 -0.171025 0.040781 0.000000 -0.158736 0.046071 0.000000 -0.147782 0.044679 0.000000 -0.138070 0.043936 0.000000 -0.130392 0.038044 0.000000 -0.122747 0.031664 0.000000 -0.116573 0.022299 0.000000 -0.109732 0.012379 0.000000 -0.103660 0.001324 0.000000 -0.096633 -0.009977 0.000000 -0.089860 -0.021085 0.000000 -0.082167 -0.032105 0.000000 -0.074413 -0.042085 0.000000 -0.065968 -0.051713 0.000000 -0.057275 -0.059804 0.000000 -0.048199 -0.067346 0.000000 -0.038762 -0.073083 0.000000 -0.029260 -0.078114 0.000000 -0.019325 -0.081216 0.000000 -0.009638 -0.083492 0.000000 
0.000695 -0.094011 0.000000 0.010602 -0.093408 0.000000 0.021075 -0.090827 0.000000 0.030693 -0.087281 0.000000 0.040962 -0.081959 0.000000 0.050119 -0.075634 0.000000 0.060010 -0.067876 0.000000 0.068572 -0.059088 0.000000 0.077944 -0.049385 0.000000 0.085873 -0.038663 0.000000 0.094700 -0.027769 0.000000 0.102186 -0.015996 0.000000 0.110731 -0.005054 0.000000 0.118391 0.006355 0.000000 0.127432 0.015702 0.000000 0.136455 0.024741 0.000000 0.147331 0.030414 0.000000 0.159252 0.034759 0.000000 0.173233 0.034521 0.000000 0.189021 0.032116 0.000000 0.205998 0.023393 0.000000 0.225954 0.012319 0.000000 0.246234 -0.008078 0.000000 0.278226 -0.022757 0.000000 0.300148 -0.026070 0.000000 0.307820 -0.027801 0.000000 0.310637 0.020377 0.000000 0.301720 0.091640 0.000000 0.295833 0.124725 0.000000 0.278623 0.136582 0.000000 0.224184 0.114954 0.000000 0.138192 0.080075 0.000000 0.024986 0.057073 0.000000 -0.086538 0.068087 0.000000 -0.189823 0.098105 0.000000 -0.254469 0.123554 0.000000 -0.286851 0.130064 0.000000 -0.285922 0.091021 0.000000 -0.286354 0.037617 0.000000 -0.298032 -0.005183 0.000000 -0.302940 -0.001019 0.000000 -0.294405 0.000061 0.000000 -0.262386 0.003957 0.000000 -0.245138 0.016311 0.000000 -0.220702 0.019778 0.000000 -0.200679 0.028304 0.000000 -0.183025 0.029688 0.000000 -0.166492 0.031166 0.000000 -0.153879 0.027395 0.000000 -0.141246 0.022231 0.000000 -0.131755 0.013930 0.000000 -0.121641 0.004396 0.000000 -0.113459 -0.006403 0.000000 -0.104351 -0.017836 0.000000 -0.096203 -0.029111 0.000000 -0.087154 -0.040481 0.000000 -0.078445 -0.050759 0.000000 -0.069083 -0.060762 0.000000 -0.059702 -0.069130 0.000000 -0.049995 -0.076978 0.000000 -0.040057 -0.082907 0.000000 -0.030116 -0.088144 0.000000 -0.019805 -0.091334 0.000000 -0.009793 -0.093705 0.000000 
0.001007 -0.104215 0.000000 0.011057 -0.103618 0.000000 0.021753 -0.100880 0.000000 0.031552 -0.097269 0.000000 0.042150 -0.091718 0.000000 0.051590 -0.085269 0.000000 0.061981 -0.077228 0.000000 0.070992 -0.068281 0.000000 0.081103 -0.058295 0.000000 0.089754 -0.047455 0.000000 0.099676 -0.036417 0.000000 0.108392 -0.024740 0.000000 0.118644 -0.014059 0.000000 0.128504 -0.003231 0.000000 0.140347 0.005119 0.000000 0.153176 0.012898 0.000000 0.168561 0.016725 0.000000 0.186198 0.019514 0.000000 0.206653 0.017273 0.000000 0.228884 0.014345 0.000000 0.253272 0.004688 0.000000 0.276924 -0.006096 0.000000 0.303965 -0.030483 0.000000 0.345451 -0.043062 0.000000 0.367709 -0.019813 0.000000 0.410542 0.000838 0.000000 0.453032 0.029118 0.000000 0.430946 0.053959 0.000000 0.381623 0.065830 0.000000 0.321878 0.117807 0.000000 0.242393 0.182316 0.000000 0.149783 0.234692 0.000000 0.030209 0.253874 0.000000 -0.085507 0.244904 0.000000 -0.194443 0.202342 0.000000 -0.281178 0.133099 0.000000 -0.353669 0.068523 0.000000 -0.408541 0.028042 0.000000 -0.443255 0.041818 0.000000 -0.411515 0.045064 0.000000 -0.357634 0.028611 0.000000 -0.346700 -0.013012 0.000000 -0.315556 -0.017638 0.000000 -0.294016 -0.003036 0.000000 -0.267170 -0.003678 0.000000 -0.239175 0.008394 0.000000 -0.216299 0.010492 0.000000 -0.193229 0.014789 0.000000 -0.175394 0.012798 0.000000 -0.157987 0.009540 0.000000 -0.144689 0.002694 0.000000 -0.131581 -0.005918 0.000000 -0.121069 -0.015966 0.000000 -0.110211 -0.027233 0.000000 -0.100695 -0.038283 0.000000 -0.090596 -0.049863 0.000000 -0.081041 -0.060156 0.000000 -0.071011 -0.070456 0.000000 -0.061075 -0.078893 0.000000 -0.050935 -0.086992 0.000000 -0.040630 -0.092961 0.000000 -0.030419 -0.098365 0.000000 -0.019862 -0.101539 0.000000 -0.009677 -0.103993 0.000000 
0.001276 -0.114744 0.000000 0.011279 -0.114154 0.000000 0.021979 -0.111323 0.000000 0.031774 -0.107678 0.000000 0.042471 -0.101997 0.000000 0.052009 -0.095465 0.000000 0.062672 -0.087278 0.000000 0.071943 -0.078211 0.000000 0.082601 -0.068147 0.000000 0.091798 -0.057236 0.000000 0.102762 -0.046406 0.000000 0.112623 -0.034964 0.000000 0.124901 -0.025167 0.000000 0.137136 -0.015347 0.000000 0.152799 -0.008969 0.000000 0.170041 -0.003473 0.000000 0.191739 -0.002609 0.000000 0.216074 -0.003334 0.000000 0.244641 -0.008165 0.000000 0.274268 -0.014502 0.000000 0.305272 -0.024648 0.000000 0.332770 -0.038373 0.000000 0.364288 -0.076605 0.000000 0.422923 -0.086501 0.000000 0.466803 -0.091161 0.000000 0.437444 -0.113124 0.000000 0.301686 -0.000027 0.000000 0.168193 0.163050 0.000000 0.060138 0.233793 0.000000 -0.023435 0.275812 0.000000 -0.057728 0.287049 0.000000 -0.044540 0.292260 0.000000 -0.003311 0.292363 0.000000 0.048614 0.292739 0.000000 0.071479 0.293776 0.000000 0.055208 0.282780 0.000000 -0.019282 0.257427 0.000000 -0.136795 0.180607 0.000000 -0.287545 0.040591 0.000000 -0.412556 -0.090804 0.000000 -0.440096 -0.065834 0.000000 -0.414966 -0.042018 0.000000 -0.360322 -0.048727 0.000000 -0.339646 -0.032074 0.000000 -0.310851 -0.035063 0.000000 -0.276891 -0.022568 0.000000 -0.251574 -0.016258 0.000000 -0.221617 -0.009739 0.000000 -0.199045 -0.007846 0.000000 -0.175416 -0.008474 0.000000 -0.158034 -0.012477 0.000000 -0.140819 -0.019224 0.000000 -0.127817 -0.027773 0.000000 -0.114698 -0.038210 0.000000 -0.103851 -0.048725 0.000000 -0.092593 -0.060135 0.000000 -0.082326 -0.070345 0.000000 -0.071708 -0.080728 0.000000 -0.061383 -0.089206 0.000000 -0.050966 -0.097423 0.000000 -0.040474 -0.103424 0.000000 -0.030173 -0.108912 0.000000 -0.019564 -0.112077 0.000000 -0.009396 -0.114574 0.000000 
0.001660 -0.124890 0.000000 0.011377 -0.124321 0.000000 0.021873 -0.121375 0.000000 0.031418 -0.117761 0.000000 0.042023 -0.111954 0.000000 0.051396 -0.105469 0.000000 0.062146 -0.097162 0.000000 0.071385 -0.088210 0.000000 0.082391 -0.078150 0.000000 0.091818 -0.067616 0.000000 0.103577 -0.057242 0.000000 0.114302 -0.046880 0.000000 0.128199 -0.038572 0.000000 0.142619 -0.031128 0.000000 0.161129 -0.027786 0.000000 0.182390 -0.026042 0.000000 0.207750 -0.029308 0.000000 0.236735 -0.033388 0.000000 0.267563 -0.040921 0.000000 0.298336 -0.046285 0.000000 0.329815 -0.053814 0.000000 0.349105 -0.065111 0.000000 0.394095 -0.120636 0.000000 0.383320 -0.145577 0.000000 0.237602 -0.034334 0.000000 0.005722 0.165955 0.000000 -0.175778 0.298369 0.000000 -0.187289 0.295507 0.000000 -0.144575 0.257459 0.000000 -0.076079 0.235673 0.000000 -0.019003 0.203421 0.000000 -0.000089 0.180274 0.000000 0.002909 0.160720 0.000000 0.001667 0.170115 0.000000 0.018064 0.195748 0.000000 0.063638 0.223860 0.000000 0.143087 0.260526 0.000000 0.200150 0.296306 0.000000 0.201186 0.317578 0.000000 0.045513 0.197615 0.000000 -0.173495 0.031022 0.000000 -0.330605 -0.092786 0.000000 -0.369726 -0.092958 0.000000 -0.339894 -0.052506 0.000000 -0.322951 -0.066433 0.000000 -0.290038 -0.050883 0.000000 -0.268802 -0.044782 0.000000 -0.239195 -0.037740 0.000000 -0.213937 -0.033403 0.000000 -0.187090 -0.031471 0.000000 -0.165897 -0.031902 0.000000 -0.145836 -0.036134 0.000000 -0.130441 -0.042088 0.000000 -0.115771 -0.051199 0.000000 -0.103835 -0.060387 0.000000 -0.091924 -0.071388 0.000000 -0.081252 -0.081041 0.000000 -0.070432 -0.091399 0.000000 -0.060017 -0.099635 0.000000 -0.049630 -0.107901 0.000000 -0.039221 -0.113754 0.000000 -0.029095 -0.119275 0.000000 -0.018680 -0.122316 0.000000 -0.008773 -0.124833 0.000000 