# vtk DataFile Version 2.0
Comment goes here
ASCII

DATASET STRUCTURED_POINTS
FIELD FieldData 1
TIME 1 1 double
0.31000000
DIMENSIONS    64   64   1

ORIGIN    0.000   0.000   0.000
SPACING   0.015625 0.015625   1.000

POINT_DATA   4096
SCALARS uMag double
LOOKUP_TABLE default

2.729405e-04 1.196942e-02 2.374280e-02 3.551631e-02 4.748257e-02 5.945020e-02 7.168674e-02 8.388982e-02 9.635947e-02 1.086945e-01 1.211596e-01 1.332838e-01 1.451938e-01 1.564166e-01 1.667943e-01 1.759970e-01 1.833797e-01 1.890386e-01 1.915717e-01 1.919865e-01 1.877873e-01 1.816079e-01 1.695048e-01 1.565674e-01 1.371850e-01 1.193919e-01 9.608688e-02 7.744849e-02 5.568273e-02 4.014072e-02 2.378745e-02 1.161261e-02 3.108258e-04 1.245284e-02 2.438614e-02 4.086366e-02 5.624925e-02 7.799236e-02 9.661614e-02 1.197623e-01 1.376232e-01 1.568157e-01 1.698327e-01 1.817718e-01 1.879955e-01 1.920692e-01 1.916537e-01 1.890290e-01 1.833355e-01 1.758868e-01 1.666315e-01 1.562066e-01 1.449257e-01 1.329826e-01 1.208028e-01 1.083158e-01 9.593195e-02 8.344956e-02 7.120598e-02 5.896474e-02 4.696510e-02 3.500145e-02 2.320394e-02 1.144012e-02 
1.170734e-02 1.672810e-02 2.644042e-02 3.736971e-02 4.887425e-02 6.057555e-02 7.262583e-02 8.471866e-02 9.710323e-02 1.094011e-01 1.218396e-01 1.339731e-01 1.459041e-01 1.571705e-01 1.676206e-01 1.768953e-01 1.844205e-01 1.901831e-01 1.929603e-01 1.935225e-01 1.896868e-01 1.837016e-01 1.720087e-01 1.592468e-01 1.400381e-01 1.221690e-01 9.832455e-02 7.902597e-02 5.612637e-02 3.989003e-02 2.467033e-02 1.527147e-02 1.203637e-02 1.577676e-02 2.510126e-02 4.052826e-02 5.660901e-02 7.952100e-02 9.880206e-02 1.224837e-01 1.404280e-01 1.594376e-01 1.722843e-01 1.838129e-01 1.898449e-01 1.935637e-01 1.930046e-01 1.901489e-01 1.843582e-01 1.767806e-01 1.674610e-01 1.569754e-01 1.456583e-01 1.337032e-01 1.215203e-01 1.090665e-01 9.672472e-02 8.433246e-02 7.220362e-02 6.015372e-02 4.842725e-02 3.693653e-02 2.601103e-02 1.639627e-02 
2.337063e-02 2.627774e-02 3.331688e-02 4.253720e-02 5.294651e-02 6.392833e-02 7.547590e-02 8.719643e-02 9.931568e-02 1.113842e-01 1.236652e-01 1.356194e-01 1.474265e-01 1.584994e-01 1.687992e-01 1.778214e-01 1.851269e-01 1.905740e-01 1.930558e-01 1.933085e-01 1.891515e-01 1.830235e-01 1.711102e-01 1.586262e-01 1.395887e-01 1.227319e-01 1.000833e-01 8.254181e-02 6.229707e-02 4.680761e-02 3.289208e-02 2.223192e-02 1.958336e-02 2.257198e-02 3.313623e-02 4.732693e-02 6.261495e-02 8.298405e-02 1.004991e-01 1.230177e-01 1.399840e-01 1.588245e-01 1.714258e-01 1.831719e-01 1.893572e-01 1.933932e-01 1.931373e-01 1.905715e-01 1.850832e-01 1.777192e-01 1.686391e-01 1.582980e-01 1.471647e-01 1.353289e-01 1.233196e-01 1.110206e-01 9.890656e-02 8.677961e-02 7.502640e-02 6.348440e-02 5.249060e-02 4.211539e-02 3.294162e-02 2.604491e-02 
3.496762e-02 3.698657e-02 4.224972e-02 4.985966e-02 5.898283e-02 6.904146e-02 7.987525e-02 9.108541e-02 1.028019e-01 1.145757e-01 1.266236e-01 1.383849e-01 1.500449e-01 1.609461e-01 1.711414e-01 1.799740e-01 1.872461e-01 1.925385e-01 1.952039e-01 1.955337e-01 1.920281e-01 1.865234e-01 1.758872e-01 1.647190e-01 1.471217e-01 1.314742e-01 1.087676e-01 9.020390e-02 6.771461e-02 5.046944e-02 3.958957e-02 3.095148e-02 3.047763e-02 3.097415e-02 3.950331e-02 5.077141e-02 6.778695e-02 9.056344e-02 1.090611e-01 1.316315e-01 1.474350e-01 1.648088e-01 1.761311e-01 1.865953e-01 1.921683e-01 1.955703e-01 1.952394e-01 1.925160e-01 1.871853e-01 1.798788e-01 1.709934e-01 1.607751e-01 1.498195e-01 1.381435e-01 1.263331e-01 1.142757e-01 1.024626e-01 9.074514e-02 7.951004e-02 6.868932e-02 5.863017e-02 4.955053e-02 4.199453e-02 3.684429e-02 
4.643061e-02 4.800053e-02 5.216590e-02 5.854306e-02 6.651575e-02 7.563250e-02 8.569707e-02 9.628934e-02 1.075159e-01 1.188524e-01 1.305514e-01 1.419148e-01 1.532401e-01 1.636558e-01 1.734345e-01 1.816283e-01 1.884027e-01 1.929993e-01 1.952731e-01 1.952213e-01 1.918309e-01 1.869313e-01 1.773735e-01 1.685501e-01 1.531906e-01 1.418933e-01 1.226852e-01 1.090313e-01 9.031801e-02 6.841728e-02 4.891321e-02 2.875827e-02 2.449466e-02 2.887556e-02 4.881513e-02 6.871208e-02 9.015136e-02 1.093215e-01 1.228036e-01 1.419141e-01 1.534644e-01 1.685914e-01 1.776598e-01 1.870415e-01 1.920307e-01 1.953180e-01 1.953506e-01 1.930185e-01 1.883576e-01 1.815471e-01 1.732805e-01 1.634772e-01 1.529956e-01 1.416534e-01 1.302369e-01 1.185290e-01 1.071551e-01 9.593079e-02 8.532103e-02 7.527662e-02 6.617242e-02 5.825314e-02 5.193997e-02 4.788013e-02 
5.774908e-02 5.904365e-02 6.244879e-02 6.790085e-02 7.487677e-02 8.312502e-02 9.238743e-02 1.023271e-01 1.129509e-01 1.237665e-01 1.349442e-01 1.457739e-01 1.565258e-01 1.662653e-01 1.753653e-01 1.827504e-01 1.889413e-01 1.929554e-01 1.954190e-01 1.959330e-01 1.947318e-01 1.929069e-01 1.885818e-01 1.857301e-01 1.769973e-01 1.707124e-01 1.519912e-01 1.336461e-01 1.018241e-01 7.317949e-02 5.811550e-02 4.338687e-02 4.238323e-02 4.321217e-02 5.778627e-02 7.348662e-02 1.015652e-01 1.340791e-01 1.521367e-01 1.705368e-01 1.772061e-01 1.856298e-01 1.887858e-01 1.929239e-01 1.948372e-01 1.959713e-01 1.954325e-01 1.929578e-01 1.888815e-01 1.826917e-01 1.752398e-01 1.661383e-01 1.563394e-01 1.455831e-01 1.347059e-01 1.235253e-01 1.126771e-01 1.020578e-01 9.210458e-02 8.286178e-02 7.462644e-02 6.769532e-02 6.229276e-02 5.896270e-02 
6.880266e-02 6.992726e-02 7.283051e-02 7.761517e-02 8.382337e-02 9.133222e-02 9.988192e-02 1.091645e-01 1.191635e-01 1.293299e-01 1.398438e-01 1.498536e-01 1.597328e-01 1.683198e-01 1.762876e-01 1.822583e-01 1.874037e-01 1.903801e-01 1.929516e-01 1.942860e-01 1.960502e-01 1.986877e-01 2.009039e-01 2.061220e-01 2.047182e-01 2.080983e-01 1.944679e-01 1.920160e-01 1.741299e-01 1.448149e-01 1.052860e-01 5.234978e-02 2.221604e-02 5.305298e-02 1.053228e-01 1.457320e-01 1.738316e-01 1.925740e-01 1.946746e-01 2.076541e-01 2.049411e-01 2.059621e-01 2.012163e-01 1.988123e-01 1.962627e-01 1.944359e-01 1.930197e-01 1.904360e-01 1.873485e-01 1.822018e-01 1.761379e-01 1.681682e-01 1.595126e-01 1.496306e-01 1.395743e-01 1.290606e-01 1.188678e-01 1.088777e-01 9.959045e-02 9.106530e-02 8.357804e-02 7.741740e-02 7.268503e-02 6.985253e-02 
7.961393e-02 8.062183e-02 8.312201e-02 8.738785e-02 9.292051e-02 9.976676e-02 1.075753e-01 1.161542e-01 1.253442e-01 1.346651e-01 1.441316e-01 1.529415e-01 1.613381e-01 1.682439e-01 1.743671e-01 1.785286e-01 1.823388e-01 1.848167e-01 1.888508e-01 1.938599e-01 2.032941e-01 2.166032e-01 2.348398e-01 2.579623e-01 2.804409e-01 3.066246e-01 3.178446e-01 3.286161e-01 2.766231e-01 2.204452e-01 1.686555e-01 1.302878e-01 1.243508e-01 1.302951e-01 1.682216e-01 2.218244e-01 2.767619e-01 3.294310e-01 3.188675e-01 3.057514e-01 2.806914e-01 2.577719e-01 2.351099e-01 2.167081e-01 2.033856e-01 1.939586e-01 1.888380e-01 1.848667e-01 1.822848e-01 1.785197e-01 1.742774e-01 1.681726e-01 1.612070e-01 1.528129e-01 1.439610e-01 1.344927e-01 1.251468e-01 1.159602e-01 1.073749e-01 9.958238e-02 9.275106e-02 8.725167e-02 8.302260e-02 8.057095e-02 
8.997883e-02 9.090756e-02 9.312861e-02 9.700549e-02 1.020180e-01 1.082952e-01 1.154411e-01 1.232869e-01 1.316035e-01 1.398599e-01 1.480176e-01 1.551689e-01 1.616278e-01 1.662190e-01 1.700705e-01 1.720101e-01 1.747930e-01 1.775667e-01 1.854011e-01 1.973537e-01 2.198831e-01 2.502297e-01 2.932350e-01 3.435354e-01 3.976406e-01 4.512106e-01 4.749979e-01 5.221681e-01 5.611975e-01 5.796814e-01 4.908803e-01 2.931627e-01 1.303911e-01 2.935668e-01 4.906974e-01 5.812851e-01 5.604710e-01 5.222910e-01 4.768206e-01 4.502588e-01 3.979120e-01 3.435318e-01 2.938066e-01 2.507712e-01 2.202339e-01 1.977096e-01 1.854817e-01 1.776826e-01 1.747216e-01 1.719683e-01 1.699223e-01 1.660870e-01 1.614376e-01 1.549852e-01 1.478028e-01 1.396491e-01 1.313800e-01 1.230721e-01 1.152305e-01 1.081045e-01 1.018493e-01 9.687119e-02 9.303321e-02 9.085872e-02 
9.998011e-02 1.008533e-01 1.028088e-01 1.063479e-01 1.108357e-01 1.165355e-01 1.228946e-01 1.298468e-01 1.369420e-01 1.437349e-01 1.499177e-01 1.547452e-01 1.583024e-01 1.598622e-01 1.605827e-01 1.603655e-01 1.626109e-01 1.683843e-01 1.840230e-01 2.105161e-01 2.558964e-01 3.167818e-01 4.002597e-01 4.911311e-01 5.974767e-01 6.973246e-01 8.326307e-01 9.642726e-01 9.522270e-01 8.357744e-01 6.966783e-01 6.349586e-01 6.231304e-01 6.345506e-01 6.956786e-01 8.360882e-01 9.527471e-01 9.644169e-01 8.343801e-01 6.960888e-01 5.975996e-01 4.916090e-01 4.006886e-01 3.175824e-01 2.561619e-01 2.109273e-01 1.840932e-01 1.685630e-01 1.626254e-01 1.604345e-01 1.605652e-01 1.598564e-01 1.582455e-01 1.546814e-01 1.498228e-01 1.436295e-01 1.368202e-01 1.297202e-01 1.227660e-01 1.164135e-01 1.107267e-01 1.062589e-01 1.027457e-01 1.008205e-01 
1.093025e-01 1.101299e-01 1.118776e-01 1.151196e-01 1.191413e-01 1.242536e-01 1.297947e-01 1.356914e-01 1.413537e-01 1.462873e-01 1.500798e-01 1.520006e-01 1.522621e-01 1.504509e-01 1.485032e-01 1.472681e-01 1.521977e-01 1.658719e-01 1.979880e-01 2.500206e-01 3.328890e-01 4.369853e-01 5.675289e-01 6.956438e-01 8.385988e-01 9.501414e-01 9.931903e-01 7.715374e-01 5.538814e-01 6.180462e-01 7.446542e-01 7.331949e-01 7.334087e-01 7.328962e-01 7.439172e-01 6.204504e-01 5.529928e-01 7.699556e-01 9.913989e-01 9.517442e-01 8.378192e-01 6.964091e-01 5.685103e-01 4.387198e-01 3.337105e-01 2.509133e-01 1.982585e-01 1.661267e-01 1.521846e-01 1.472565e-01 1.483973e-01 1.503472e-01 1.521269e-01 1.518637e-01 1.499337e-01 1.461384e-01 1.412059e-01 1.355448e-01 1.296577e-01 1.241264e-01 1.190331e-01 1.150318e-01 1.118173e-01 1.100985e-01 
1.181223e-01 1.189132e-01 1.204196e-01 1.233428e-01 1.268004e-01 1.312029e-01 1.356692e-01 1.401923e-01 1.439046e-01 1.464176e-01 1.470440e-01 1.454430e-01 1.417311e-01 1.366725e-01 1.325992e-01 1.330907e-01 1.447210e-01 1.746415e-01 2.325085e-01 3.229075e-01 4.469690e-01 5.864758e-01 7.219322e-01 8.064606e-01 8.374446e-01 6.132472e-01 3.385272e-01 7.140987e-01 8.679276e-01 7.554751e-01 6.196405e-01 4.462654e-01 4.125351e-01 4.466951e-01 6.169076e-01 7.588770e-01 8.658207e-01 7.147881e-01 3.365927e-01 6.158535e-01 8.372779e-01 8.078718e-01 7.214744e-01 5.880354e-01 4.477223e-01 3.239932e-01 2.331785e-01 1.752399e-01 1.451137e-01 1.333866e-01 1.327969e-01 1.367916e-01 1.417994e-01 1.454578e-01 1.470339e-01 1.463735e-01 1.438502e-01 1.401192e-01 1.355965e-01 1.311258e-01 1.267337e-01 1.232848e-01 1.203799e-01 1.188917e-01 
1.259986e-01 1.267434e-01 1.280068e-01 1.305655e-01 1.333971e-01 1.369390e-01 1.401328e-01 1.429499e-01 1.443505e-01 1.439760e-01 1.411424e-01 1.358915e-01 1.288824e-01 1.221074e-01 1.194451e-01 1.268796e-01 1.538616e-01 2.097799e-01 3.047341e-01 4.354671e-01 5.864965e-01 7.085110e-01 7.503971e-01 6.452974e-01 3.450167e-01 4.757959e-01 7.720085e-01 7.338366e-01 4.629408e-01 3.786573e-01 4.930639e-01 5.496717e-01 6.040889e-01 5.498914e-01 4.891457e-01 3.787564e-01 4.638094e-01 7.309118e-01 7.748927e-01 4.773028e-01 3.440288e-01 6.461971e-01 7.501140e-01 7.102623e-01 5.873628e-01 4.365125e-01 3.054356e-01 2.103095e-01 1.542540e-01 1.271330e-01 1.196414e-01 1.221963e-01 1.289336e-01 1.358749e-01 1.411131e-01 1.439111e-01 1.442869e-01 1.428694e-01 1.400606e-01 1.368633e-01 1.333353e-01 1.305115e-01 1.279712e-01 1.267238e-01 
1.332361e-01 1.339297e-01 1.348755e-01 1.369721e-01 1.389842e-01 1.414201e-01 1.429712e-01 1.436668e-01 1.422614e-01 1.386457e-01 1.322186e-01 1.239799e-01 1.152687e-01 1.102630e-01 1.134646e-01 1.343233e-01 1.828920e-01 2.723529e-01 4.032603e-01 5.606272e-01 6.853685e-01 7.001047e-01 5.077457e-01 1.832065e-01 4.714326e-01 6.905025e-01 4.982530e-01 4.158910e-01 4.482653e-01 4.967085e-01 5.571640e-01 5.497943e-01 5.754739e-01 5.499263e-01 5.543218e-01 4.994283e-01 4.508626e-01 4.122462e-01 4.982317e-01 6.916868e-01 4.756315e-01 1.787500e-01 5.033496e-01 6.964541e-01 6.854420e-01 5.613778e-01 4.048144e-01 2.735612e-01 1.840849e-01 1.351738e-01 1.142142e-01 1.107537e-01 1.156368e-01 1.241714e-01 1.323405e-01 1.386781e-01 1.422688e-01 1.436332e-01 1.429340e-01 1.413680e-01 1.389399e-01 1.369295e-01 1.348473e-01 1.339135e-01 
1.392743e-01 1.398893e-01 1.404480e-01 1.419444e-01 1.429378e-01 1.439784e-01 1.435439e-01 1.417308e-01 1.372537e-01 1.304039e-01 1.211781e-01 1.118812e-01 1.052677e-01 1.066420e-01 1.208675e-01 1.596458e-01 2.368118e-01 3.612518e-01 5.210797e-01 6.633741e-01 6.799541e-01 4.559697e-01 8.872460e-02 3.938972e-01 6.339547e-01 5.425225e-01 3.992598e-01 4.143665e-01 4.025001e-01 4.384686e-01 5.171700e-01 5.596331e-01 5.969336e-01 5.596943e-01 5.158211e-01 4.394497e-01 4.035662e-01 4.124460e-01 4.013652e-01 5.412107e-01 6.321868e-01 3.953024e-01 8.480147e-02 4.501127e-01 6.755652e-01 6.615502e-01 5.213055e-01 3.618943e-01 2.378474e-01 1.605867e-01 1.218514e-01 1.074344e-01 1.059096e-01 1.122665e-01 1.214244e-01 1.305069e-01 1.373051e-01 1.417228e-01 1.435257e-01 1.439394e-01 1.429045e-01 1.419096e-01 1.404255e-01 1.398759e-01 
1.445806e-01 1.450956e-01 1.451497e-01 1.458694e-01 1.455650e-01 1.448774e-01 1.420808e-01 1.374746e-01 1.299368e-01 1.205794e-01 1.105929e-01 1.040789e-01 1.043436e-01 1.156600e-01 1.426223e-01 2.030376e-01 3.099797e-01 4.628420e-01 6.200381e-01 6.789673e-01 4.768447e-01 8.606874e-02 2.799812e-01 5.609278e-01 6.096341e-01 4.542375e-01 3.431143e-01 3.435031e-01 3.835219e-01 4.546001e-01 5.242221e-01 5.555909e-01 5.812294e-01 5.558628e-01 5.240163e-01 4.558384e-01 3.852225e-01 3.427609e-01 3.440276e-01 4.552038e-01 6.086692e-01 5.601606e-01 2.765350e-01 8.880025e-02 4.748770e-01 6.784876e-01 6.214133e-01 4.643887e-01 3.116670e-01 2.044258e-01 1.438923e-01 1.167327e-01 1.052859e-01 1.047369e-01 1.110238e-01 1.207845e-01 1.300326e-01 1.374787e-01 1.420572e-01 1.448264e-01 1.455177e-01 1.458226e-01 1.451182e-01 1.450776e-01 
1.485051e-01 1.488762e-01 1.482879e-01 1.480120e-01 1.460967e-01 1.433283e-01 1.378229e-01 1.302999e-01 1.200959e-01 1.097569e-01 1.022086e-01 1.024565e-01 1.117899e-01 1.317386e-01 1.720104e-01 2.564565e-01 3.917949e-01 5.568630e-01 6.798455e-01 5.721237e-01 2.121185e-01 1.529370e-01 4.620419e-01 6.767664e-01 5.462248e-01 3.746490e-01 3.153886e-01 3.349382e-01 3.714013e-01 4.298389e-01 4.904693e-01 5.260747e-01 5.490399e-01 5.263165e-01 4.906096e-01 4.306388e-01 3.726465e-01 3.354178e-01 3.161585e-01 3.771115e-01 5.475478e-01 6.805727e-01 4.697269e-01 1.528960e-01 2.135904e-01 5.699072e-01 6.806672e-01 5.583840e-01 3.938472e-01 2.583594e-01 1.737895e-01 1.333252e-01 1.132376e-01 1.036299e-01 1.030477e-01 1.102317e-01 1.203451e-01 1.303884e-01 1.378453e-01 1.433031e-01 1.460647e-01 1.479745e-01 1.482620e-01 1.488608e-01 
1.517080e-01 1.519004e-01 1.505199e-01 1.490174e-01 1.451747e-01 1.400053e-01 1.315852e-01 1.213380e-01 1.095748e-01 1.008978e-01 9.965487e-02 1.086659e-01 1.254872e-01 1.525116e-01 2.092325e-01 3.212193e-01 4.779432e-01 6.392862e-01 6.733805e-01 3.635252e-01 1.287304e-01 3.034644e-01 6.612355e-01 6.639301e-01 4.322888e-01 3.325298e-01 2.949883e-01 3.183564e-01 3.596501e-01 4.164200e-01 4.669787e-01 4.953205e-01 5.121192e-01 4.955811e-01 4.673681e-01 4.171231e-01 3.607018e-01 3.185215e-01 2.949906e-01 3.318538e-01 4.300371e-01 6.594985e-01 6.656805e-01 3.079578e-01 1.312898e-01 3.595525e-01 6.718949e-01 6.410153e-01 4.800087e-01 3.233290e-01 2.110430e-01 1.540681e-01 1.269211e-01 1.099502e-01 1.006696e-01 1.015173e-01 1.098674e-01 1.214109e-01 1.315574e-01 1.399256e-01 1.450902e-01 1.489391e-01 1.504651e-01 1.518707e-01 
1.534918e-01 1.534527e-01 1.511023e-01 1.481245e-01 1.420107e-01 1.341583e-01 1.226681e-01 1.101850e-01 9.839797e-02 9.450522e-02 1.015948e-01 1.177117e-01 1.385567e-01 1.720802e-01 2.477929e-01 3.849452e-01 5.423884e-01 6.838586e-01 5.505018e-01 2.475641e-01 1.879820e-01 4.985084e-01 7.625569e-01 5.449106e-01 3.828717e-01 3.108172e-01 2.947176e-01 3.153830e-01 3.470640e-01 3.878546e-01 4.252898e-01 4.477878e-01 4.606127e-01 4.480314e-01 4.257637e-01 3.885602e-01 3.481970e-01 3.162391e-01 2.956302e-01 3.111183e-01 3.826185e-01 5.411917e-01 7.598599e-01 4.989657e-01 1.858041e-01 2.410618e-01 5.492333e-01 6.867979e-01 5.452844e-01 3.879308e-01 2.503950e-01 1.742577e-01 1.404583e-01 1.194400e-01 1.030806e-01 9.558108e-02 9.898960e-02 1.104177e-01 1.227123e-01 1.341103e-01 1.419381e-01 1.480508e-01 1.510487e-01 1.534234e-01 
1.547198e-01 1.544151e-01 1.509552e-01 1.462921e-01 1.376487e-01 1.269310e-01 1.124386e-01 9.854280e-02 8.878756e-02 9.211001e-02 1.064896e-01 1.258341e-01 1.479423e-01 1.887974e-01 2.887798e-01 4.413044e-01 5.989788e-01 6.820280e-01 4.233776e-01 1.947662e-01 2.728107e-01 6.921427e-01 7.088546e-01 4.410940e-01 3.460747e-01 2.939068e-01 2.884529e-01 3.024897e-01 3.276064e-01 3.583644e-01 3.865196e-01 4.029885e-01 4.123218e-01 4.031832e-01 3.869550e-01 3.589074e-01 3.285243e-01 3.032094e-01 2.894721e-01 2.948184e-01 3.473061e-01 4.423032e-01 7.088356e-01 6.961859e-01 2.750760e-01 1.943458e-01 4.259101e-01 6.833413e-01 6.021550e-01 4.439914e-01 2.914529e-01 1.909188e-01 1.497895e-01 1.275285e-01 1.080142e-01 9.332813e-02 8.946532e-02 9.876022e-02 1.123933e-01 1.267835e-01 1.374820e-01 1.461463e-01 1.508513e-01 1.543611e-01 
1.546554e-01 1.540409e-01 1.493275e-01 1.428021e-01 1.313907e-01 1.177064e-01 1.002986e-01 8.603050e-02 8.021265e-02 9.159081e-02 1.099506e-01 1.294593e-01 1.514140e-01 2.039630e-01 3.305494e-01 4.858963e-01 6.499334e-01 6.194084e-01 3.605663e-01 2.109922e-01 4.477367e-01 7.870171e-01 5.736953e-01 3.944501e-01 3.186716e-01 2.899685e-01 2.833922e-01 2.916379e-01 3.052976e-01 3.232175e-01 3.406042e-01 3.509240e-01 3.573103e-01 3.511159e-01 3.410694e-01 3.237932e-01 3.062715e-01 2.925397e-01 2.846200e-01 2.910114e-01 3.198870e-01 3.951837e-01 5.726489e-01 7.890507e-01 4.531635e-01 2.142543e-01 3.618157e-01 6.187347e-01 6.531586e-01 4.888857e-01 3.338219e-01 2.066833e-01 1.536439e-01 1.314176e-01 1.117029e-01 9.313814e-02 8.124033e-02 8.646135e-02 1.003319e-01 1.175795e-01 1.312216e-01 1.426494e-01 1.492169e-01 1.539834e-01 
1.542960e-01 1.533663e-01 1.473609e-01 1.389209e-01 1.246957e-01 1.081035e-01 8.805817e-02 7.450950e-02 7.398502e-02 9.196979e-02 1.104453e-01 1.277888e-01 1.486522e-01 2.165136e-01 3.623337e-01 5.124604e-01 6.666094e-01 5.237551e-01 2.967285e-01 2.415389e-01 5.842371e-01 7.408956e-01 4.610435e-01 3.671636e-01 2.947462e-01 2.804455e-01 2.696770e-01 2.725128e-01 2.776068e-01 2.870781e-01 2.970894e-01 3.029140e-01 3.071269e-01 3.030471e-01 2.974542e-01 2.874916e-01 2.783808e-01 2.732308e-01 2.707845e-01 2.813980e-01 2.959382e-01 3.676171e-01 4.605827e-01 7.392340e-01 5.871367e-01 2.406717e-01 2.960017e-01 5.236979e-01 6.681134e-01 5.152258e-01 3.650561e-01 2.191355e-01 1.507760e-01 1.297331e-01 1.121911e-01 9.358528e-02 7.512646e-02 7.495744e-02 8.797418e-02 1.078349e-01 1.243957e-01 1.386690e-01 1.471826e-01 1.532755e-01 
1.527595e-01 1.515068e-01 1.442194e-01 1.339119e-01 1.169453e-01 9.762962e-02 7.524656e-02 6.347412e-02 6.886778e-02 9.075683e-02 1.062298e-01 1.192478e-01 1.392640e-01 2.266689e-01 3.820925e-01 5.345775e-01 6.528461e-01 4.763148e-01 2.598482e-01 3.055221e-01 6.949882e-01 6.514236e-01 4.065502e-01 3.389256e-01 2.822238e-01 2.678508e-01 2.556235e-01 2.515337e-01 2.489668e-01 2.496146e-01 2.524306e-01 2.536362e-01 2.559978e-01 2.537748e-01 2.528195e-01 2.500620e-01 2.497961e-01 2.523467e-01 2.568847e-01 2.689666e-01 2.837887e-01 3.396808e-01 4.078404e-01 6.518292e-01 6.992392e-01 3.093579e-01 2.593355e-01 4.788098e-01 6.564832e-01 5.389306e-01 3.855505e-01 2.297298e-01 1.416502e-01 1.212237e-01 1.079654e-01 9.239542e-02 7.018761e-02 6.410394e-02 7.521090e-02 9.735126e-02 1.166237e-01 1.336417e-01 1.440278e-01 1.514097e-01 
1.509423e-01 1.494247e-01 1.410488e-01 1.291656e-01 1.098893e-01 8.836135e-02 6.430110e-02 5.503759e-02 6.590049e-02 8.828591e-02 9.962262e-02 1.066711e-01 1.278832e-01 2.332697e-01 3.861333e-01 5.430026e-01 5.998033e-01 4.459950e-01 2.652660e-01 4.081718e-01 7.152476e-01 5.386787e-01 3.752340e-01 3.015031e-01 2.651361e-01 2.453136e-01 2.340596e-01 2.240739e-01 2.174662e-01 2.124797e-01 2.111306e-01 2.093829e-01 2.106021e-01 2.094630e-01 2.114031e-01 2.127698e-01 2.180853e-01 2.246917e-01 2.350983e-01 2.462945e-01 2.665736e-01 3.024479e-01 3.771473e-01 5.391954e-01 7.174317e-01 4.117453e-01 2.651043e-01 4.504281e-01 6.041472e-01 5.475110e-01 3.893401e-01 2.360992e-01 1.301195e-01 1.086509e-01 1.013855e-01 8.996871e-02 6.731178e-02 5.571383e-02 6.413997e-02 8.791515e-02 1.094224e-01 1.287866e-01 1.407847e-01 1.492917e-01 
1.475635e-01 1.458444e-01 1.366871e-01 1.236907e-01 1.028167e-01 7.990137e-02 5.531169e-02 4.934230e-02 6.471385e-02 8.485709e-02 9.165735e-02 8.986256e-02 1.119567e-01 2.297027e-01 3.728133e-01 5.312690e-01 5.317474e-01 4.127732e-01 2.768791e-01 4.754099e-01 6.754599e-01 4.495826e-01 3.511555e-01 2.681277e-01 2.458711e-01 2.205635e-01 2.106669e-01 1.960055e-01 1.867791e-01 1.769955e-01 1.722648e-01 1.677227e-01 1.681103e-01 1.678039e-01 1.725391e-01 1.772962e-01 1.874028e-01 1.966827e-01 2.117810e-01 2.218206e-01 2.476437e-01 2.699755e-01 3.536583e-01 4.519172e-01 6.801282e-01 4.811412e-01 2.780489e-01 4.188787e-01 5.351548e-01 5.338645e-01 3.753012e-01 2.319341e-01 1.138831e-01 9.157017e-02 9.319123e-02 8.632030e-02 6.601227e-02 5.002134e-02 5.513375e-02 7.941556e-02 1.023209e-01 1.232925e-01 1.364105e-01 1.457055e-01 
1.430562e-01 1.412990e-01 1.319348e-01 1.186816e-01 9.750869e-02 7.469469e-02 5.148166e-02 4.824438e-02 6.525310e-02 8.128083e-02 8.461382e-02 7.392475e-02 9.844787e-02 2.208691e-01 3.524317e-01 5.056468e-01 4.756730e-01 3.704590e-01 2.940976e-01 5.336003e-01 6.072508e-01 3.813481e-01 3.191912e-01 2.355426e-01 2.193632e-01 1.918127e-01 1.824367e-01 1.657688e-01 1.557132e-01 1.438134e-01 1.376888e-01 1.317678e-01 1.317712e-01 1.317952e-01 1.378434e-01 1.439629e-01 1.560950e-01 1.661930e-01 1.831201e-01 1.925684e-01 2.201022e-01 2.360462e-01 3.187197e-01 3.811499e-01 6.075515e-01 5.391445e-01 2.983038e-01 3.689443e-01 4.780136e-01 5.086895e-01 3.551452e-01 2.225595e-01 9.962428e-02 7.528282e-02 8.609731e-02 8.275264e-02 6.655336e-02 4.887613e-02 5.118985e-02 7.405779e-02 9.688873e-02 1.181891e-01 1.315957e-01 1.411287e-01 
1.355763e-01 1.339845e-01 1.252233e-01 1.129141e-01 9.334819e-02 7.283073e-02 5.379703e-02 5.257920e-02 6.848108e-02 7.987804e-02 8.081223e-02 6.162950e-02 8.383115e-02 1.999711e-01 3.196425e-01 4.582279e-01 4.305884e-01 3.354577e-01 3.176664e-01 5.478538e-01 5.189384e-01 3.281564e-01 2.768294e-01 2.039617e-01 1.882903e-01 1.629767e-01 1.535104e-01 1.373317e-01 1.270543e-01 1.143406e-01 1.072921e-01 1.003098e-01 1.000591e-01 1.003186e-01 1.073996e-01 1.144250e-01 1.273219e-01 1.376280e-01 1.540247e-01 1.635866e-01 1.890347e-01 2.048481e-01 2.779081e-01 3.301160e-01 5.197286e-01 5.475031e-01 3.214455e-01 3.344305e-01 4.361810e-01 4.664182e-01 3.245818e-01 2.027416e-01 8.491043e-02 6.240992e-02 8.183009e-02 8.089724e-02 6.933911e-02 5.281361e-02 5.332400e-02 7.210136e-02 9.267266e-02 1.123868e-01 1.248622e-01 1.338038e-01 
1.250087e-01 1.239482e-01 1.170272e-01 1.075288e-01 9.234984e-02 7.697230e-02 6.407472e-02 6.264780e-02 7.383345e-02 7.943507e-02 7.845554e-02 5.570321e-02 7.548423e-02 1.781134e-01 2.880524e-01 4.082993e-01 4.028894e-01 3.161055e-01 3.405225e-01 5.250085e-01 4.303568e-01 2.827475e-01 2.300978e-01 1.723402e-01 1.545566e-01 1.339916e-01 1.239917e-01 1.102562e-01 1.003462e-01 8.858359e-02 8.146892e-02 7.441271e-02 7.402221e-02 7.439556e-02 8.150936e-02 8.859688e-02 1.004810e-01 1.104390e-01 1.243148e-01 1.344976e-01 1.552358e-01 1.735988e-01 2.323666e-01 2.869745e-01 4.362883e-01 5.291361e-01 3.399233e-01 3.195065e-01 4.125478e-01 4.157994e-01 2.920536e-01 1.796656e-01 7.579138e-02 5.617745e-02 7.943604e-02 8.027672e-02 7.437712e-02 6.251720e-02 6.339863e-02 7.609242e-02 9.155107e-02 1.069049e-01 1.166009e-01 1.237347e-01 
1.094391e-01 1.094491e-01 1.061523e-01 1.020224e-01 9.467691e-02 8.724110e-02 8.172867e-02 7.998323e-02 8.559596e-02 8.473918e-02 8.182122e-02 5.926747e-02 7.219250e-02 1.501527e-01 2.487302e-01 3.466435e-01 3.768545e-01 3.241689e-01 3.529093e-01 4.677474e-01 3.472572e-01 2.400624e-01 1.847763e-01 1.419708e-01 1.220877e-01 1.074431e-01 9.717378e-02 8.694192e-02 7.760207e-02 6.745103e-02 6.024256e-02 5.322035e-02 5.256669e-02 5.314709e-02 6.016290e-02 6.728071e-02 7.745552e-02 8.674388e-02 9.697641e-02 1.072812e-01 1.219365e-01 1.421952e-01 1.856724e-01 2.425116e-01 3.524858e-01 4.769366e-01 3.521509e-01 3.270592e-01 3.865803e-01 3.510217e-01 2.503496e-01 1.498077e-01 7.091042e-02 5.845189e-02 8.169299e-02 8.448453e-02 8.506366e-02 7.901561e-02 8.055144e-02 8.605647e-02 9.365469e-02 1.012350e-01 1.056154e-01 1.091806e-01 
8.894497e-02 9.088035e-02 9.361177e-02 9.773843e-02 1.008531e-01 1.023487e-01 1.035408e-01 1.015731e-01 1.020612e-01 9.421214e-02 8.802309e-02 6.719523e-02 7.619374e-02 1.281579e-01 2.136282e-01 2.927290e-01 3.461969e-01 3.229875e-01 3.554326e-01 4.005389e-01 2.783249e-01 2.030687e-01 1.459663e-01 1.156391e-01 9.374909e-02 8.457638e-02 7.397771e-02 6.741065e-02 5.861059e-02 5.055004e-02 4.323534e-02 3.656366e-02 3.547691e-02 3.652392e-02 4.319618e-02 5.044118e-02 5.847689e-02 6.720573e-02 7.362644e-02 8.412606e-02 9.285641e-02 1.145948e-01 1.443658e-01 2.018317e-01 2.788398e-01 4.076513e-01 3.579932e-01 3.255210e-01 3.504904e-01 2.930825e-01 2.121832e-01 1.256837e-01 7.343348e-02 6.528147e-02 8.684627e-02 9.299100e-02 1.007361e-01 1.000955e-01 1.020785e-01 1.009772e-01 9.966508e-02 9.678797e-02 9.293813e-02 9.053231e-02 
6.289727e-02 6.838161e-02 8.039470e-02 9.503084e-02 1.091780e-01 1.189119e-01 1.260010e-01 1.248691e-01 1.226505e-01 1.097432e-01 1.006164e-01 8.092610e-02 8.702078e-02 1.138350e-01 1.848001e-01 2.502452e-01 3.263126e-01 3.334881e-01 3.516324e-01 3.366447e-01 2.207713e-01 1.686131e-01 1.134490e-01 9.404245e-02 7.160365e-02 6.714170e-02 5.658376e-02 5.314391e-02 4.477550e-02 3.848095e-02 3.057031e-02 2.373763e-02 2.166685e-02 2.358435e-02 3.034152e-02 3.810065e-02 4.426941e-02 5.242472e-02 5.553516e-02 6.572017e-02 6.943031e-02 9.123096e-02 1.095875e-01 1.643900e-01 2.168454e-01 3.365283e-01 3.529392e-01 3.339947e-01 3.243723e-01 2.466578e-01 1.805683e-01 1.092417e-01 8.248357e-02 7.721750e-02 9.764010e-02 1.070477e-01 1.201917e-01 1.226003e-01 1.239722e-01 1.171113e-01 1.076193e-01 9.372531e-02 7.938854e-02 6.780527e-02 
3.272663e-02 4.550531e-02 6.949676e-02 9.363821e-02 1.158778e-01 1.311120e-01 1.419962e-01 1.416317e-01 1.379694e-01 1.217836e-01 1.099920e-01 8.993617e-02 9.419615e-02 1.057188e-01 1.638055e-01 2.189488e-01 3.051253e-01 3.328525e-01 3.453265e-01 2.864069e-01 1.792386e-01 1.432551e-01 8.989144e-02 7.947351e-02 5.675077e-02 5.592889e-02 4.527680e-02 4.406583e-02 3.581562e-02 3.080596e-02 2.194549e-02 1.434900e-02 1.024048e-02 1.433580e-02 2.191793e-02 3.066553e-02 3.555365e-02 4.358696e-02 4.446354e-02 5.468559e-02 5.477235e-02 7.670953e-02 8.604935e-02 1.386675e-01 1.746421e-01 2.838362e-01 3.471121e-01 3.338318e-01 3.016327e-01 2.143769e-01 1.585123e-01 1.005073e-01 8.928294e-02 8.568300e-02 1.063447e-01 1.185901e-01 1.351881e-01 1.391955e-01 1.398857e-01 1.292724e-01 1.142808e-01 9.224442e-02 6.830267e-02 4.463059e-02 
6.821533e-04 3.341919e-02 6.530097e-02 9.356613e-02 1.188995e-01 1.362000e-01 1.485998e-01 1.487538e-01 1.449561e-01 1.279695e-01 1.156093e-01 9.568098e-02 9.986260e-02 1.068002e-01 1.606139e-01 2.133793e-01 3.041337e-01 3.366151e-01 3.424669e-01 2.693344e-01 1.654889e-01 1.341565e-01 8.165929e-02 7.452048e-02 5.190031e-02 5.230309e-02 4.171563e-02 4.121456e-02 3.301843e-02 2.839830e-02 1.895036e-02 1.037697e-02 1.066180e-04 1.010385e-02 1.864571e-02 2.794389e-02 3.239123e-02 4.029750e-02 4.037075e-02 5.041107e-02 4.914026e-02 7.081838e-02 7.657845e-02 1.280558e-01 1.587295e-01 2.640001e-01 3.422421e-01 3.362959e-01 2.999552e-01 2.078257e-01 1.542869e-01 1.007416e-01 9.429089e-02 9.073503e-02 1.112965e-01 1.242215e-01 1.417301e-01 1.459621e-01 1.461950e-01 1.341077e-01 1.170718e-01 9.193750e-02 6.382029e-02 3.202369e-02 
3.272663e-02 4.550531e-02 6.949676e-02 9.363821e-02 1.158778e-01 1.311120e-01 1.419962e-01 1.416317e-01 1.379694e-01 1.217836e-01 1.099920e-01 8.993617e-02 9.419615e-02 1.057188e-01 1.638055e-01 2.189488e-01 3.051253e-01 3.328525e-01 3.453265e-01 2.864069e-01 1.792386e-01 1.432551e-01 8.989144e-02 7.947351e-02 5.675077e-02 5.592889e-02 4.527680e-02 4.406583e-02 3.581562e-02 3.080596e-02 2.194549e-02 1.434900e-02 1.024048e-02 1.433580e-02 2.191793e-02 3.066553e-02 3.555365e-02 4.358696e-02 4.446354e-02 5.468559e-02 5.477235e-02 7.670953e-02 8.604935e-02 1.386675e-01 1.746421e-01 2.838362e-01 3.471121e-01 3.338318e-01 3.016327e-01 2.143769e-01 1.585123e-01 1.005073e-01 8.928294e-02 8.568300e-02 1.063447e-01 1.185901e-01 1.351881e-01 1.391955e-01 1.398857e-01 1.292724e-01 1.142808e-01 9.224442e-02 6.830267e-02 4.463059e-02 
6.289727e-02 6.838161e-02 8.039470e-02 9.503084e-02 1.091780e-01 1.189119e-01 1.260010e-01 1.248691e-01 1.226505e-01 1.097432e-01 1.006164e-01 8.092610e-02 8.702078e-02 1.138350e-01 1.848001e-01 2.502452e-01 3.263126e-01 3.334881e-01 3.516324e-01 3.366447e-01 2.207713e-01 1.686131e-01 1.134490e-01 9.404245e-02 7.160365e-02 6.714170e-02 5.658376e-02 5.314391e-02 4.477550e-02 3.848095e-02 3.057031e-02 2.373763e-02 2.166685e-02 2.358435e-02 3.034152e-02 3.810065e-02 4.426941e-02 5.242472e-02 5.553516e-02 6.572017e-02 6.943031e-02 9.123096e-02 1.095875e-01 1.643900e-01 2.168454e-01 3.365283e-01 3.529392e-01 3.339947e-01 3.243723e-01 2.466578e-01 1.805683e-01 1.092417e-01 8.248357e-02 7.721750e-02 9.764010e-02 1.070477e-01 1.201917e-01 1.226003e-01 1.239722e-01 1.171113e-01 1.076193e-01 9.372531e-02 7.938854e-02 6.780527e-02 