# vtk DataFile Version 2.0
Comment goes here
ASCII

DATASET STRUCTURED_POINTS
FIELD FieldData 1
TIME 1 1 double
0.72000000
DIMENSIONS    64   64   1

ORIGIN    0.000   0.000   0.000
SPACING   0.015625 0.015625   1.000

POINT_DATA   4096
SCALARS uMag double
LOOKUP_TABLE default

4.326660e-04 8.292571e-03 1.605283e-02 2.350590e-02 3.061298e-02 3.713530e-02 4.308137e-02 4.815185e-02 5.244639e-02 5.555598e-02 5.773752e-02 5.840841e-02 5.807212e-02 5.589858e-02 5.275398e-02 4.748144e-02 4.145537e-02 3.311428e-02 2.450703e-02 1.360632e-02 3.286816e-03 8.961525e-03 1.937938e-02 3.089976e-02 3.903145e-02 4.699079e-02 5.004044e-02 5.152705e-02 4.730830e-02 4.076276e-02 2.930811e-02 1.616136e-02 8.369080e-04 1.425147e-02 2.782077e-02 3.924293e-02 4.626963e-02 5.058448e-02 4.948339e-02 4.657668e-02 3.882292e-02 3.084312e-02 1.935737e-02 9.099035e-03 3.223945e-03 1.337354e-02 2.439307e-02 3.282623e-02 4.128332e-02 4.714198e-02 5.250098e-02 5.549488e-02 5.771508e-02 5.792463e-02 5.726193e-02 5.498208e-02 5.185039e-02 4.748794e-02 4.237632e-02 3.639256e-02 2.982165e-02 2.270500e-02 1.520642e-02 7.460899e-03 
7.889630e-03 1.142706e-02 1.783410e-02 2.471054e-02 3.149396e-02 3.781703e-02 4.362039e-02 4.859752e-02 5.282153e-02 5.589628e-02 5.806158e-02 5.875393e-02 5.846683e-02 5.639135e-02 5.339653e-02 4.834911e-02 4.265768e-02 3.481964e-02 2.704362e-02 1.786568e-02 1.200260e-02 1.396279e-02 2.158761e-02 3.176078e-02 3.926877e-02 4.690734e-02 4.984619e-02 5.151399e-02 4.770636e-02 4.194333e-02 3.196300e-02 2.164107e-02 1.523073e-02 2.027583e-02 3.064148e-02 4.048504e-02 4.669455e-02 5.057357e-02 4.927957e-02 4.648081e-02 3.903125e-02 3.168078e-02 2.151614e-02 1.400660e-02 1.194009e-02 1.767215e-02 2.693973e-02 3.454536e-02 4.249451e-02 4.801692e-02 5.314656e-02 5.598873e-02 5.810547e-02 5.826452e-02 5.757471e-02 5.531069e-02 5.220937e-02 4.791848e-02 4.289864e-02 3.706200e-02 3.069651e-02 2.392160e-02 1.704744e-02 1.081611e-02 
1.582056e-02 1.777948e-02 2.227660e-02 2.788397e-02 3.381091e-02 3.954387e-02 4.489330e-02 4.954277e-02 5.349812e-02 5.639791e-02 5.843578e-02 5.909915e-02 5.885589e-02 5.695334e-02 5.427198e-02 4.973951e-02 4.485246e-02 3.821972e-02 3.229443e-02 2.593327e-02 2.303597e-02 2.386741e-02 2.836104e-02 3.556738e-02 4.120631e-02 4.751329e-02 4.972843e-02 5.147229e-02 4.860852e-02 4.488625e-02 3.860159e-02 3.302964e-02 3.065786e-02 3.225379e-02 3.770125e-02 4.365635e-02 4.774092e-02 5.058437e-02 4.917692e-02 4.709017e-02 4.092713e-02 3.547011e-02 2.822322e-02 2.384831e-02 2.293377e-02 2.574989e-02 3.217445e-02 3.793088e-02 4.467903e-02 4.938996e-02 5.401590e-02 5.654161e-02 5.849491e-02 5.861340e-02 5.795869e-02 5.583106e-02 5.290853e-02 4.890056e-02 4.421356e-02 3.885290e-02 3.309418e-02 2.721904e-02 2.167383e-02 1.741120e-02 
2.379197e-02 2.507309e-02 2.825434e-02 3.260461e-02 3.749305e-02 4.243137e-02 4.713453e-02 5.131086e-02 5.487858e-02 5.754323e-02 5.942727e-02 6.010831e-02 6.000914e-02 5.847348e-02 5.638402e-02 5.275063e-02 4.914038e-02 4.418523e-02 4.036888e-02 3.615177e-02 3.456449e-02 3.428073e-02 3.625505e-02 3.998732e-02 4.291178e-02 4.717497e-02 4.832025e-02 5.048732e-02 4.942559e-02 4.906152e-02 4.752550e-02 4.615722e-02 4.611296e-02 4.572010e-02 4.703503e-02 4.812473e-02 4.876150e-02 4.965985e-02 4.775894e-02 4.672587e-02 4.253327e-02 3.984007e-02 3.602519e-02 3.420605e-02 3.443145e-02 3.597627e-02 4.025825e-02 4.390954e-02 4.898154e-02 5.240479e-02 5.613294e-02 5.805878e-02 5.964157e-02 5.961558e-02 5.893613e-02 5.696964e-02 5.427584e-02 5.067038e-02 4.645657e-02 4.176669e-02 3.681828e-02 3.201907e-02 2.776052e-02 2.480483e-02 
3.193784e-02 3.281219e-02 3.506193e-02 3.830613e-02 4.211441e-02 4.611864e-02 4.999875e-02 5.353130e-02 5.654685e-02 5.884916e-02 6.047268e-02 6.111823e-02 6.114616e-02 6.002632e-02 5.862668e-02 5.604223e-02 5.386760e-02 5.066225e-02 4.884170e-02 4.634280e-02 4.586327e-02 4.508117e-02 4.550951e-02 4.606328e-02 4.574306e-02 4.665707e-02 4.544453e-02 4.735240e-02 4.848276e-02 5.259335e-02 5.684729e-02 5.973009e-02 6.179938e-02 5.959764e-02 5.684159e-02 5.209106e-02 4.815359e-02 4.661511e-02 4.484222e-02 4.616464e-02 4.524182e-02 4.588407e-02 4.521733e-02 4.498292e-02 4.571307e-02 4.615561e-02 4.872639e-02 5.036607e-02 5.370285e-02 5.567053e-02 5.836808e-02 5.959610e-02 6.077648e-02 6.063020e-02 5.999270e-02 5.830508e-02 5.597595e-02 5.294865e-02 4.938199e-02 4.554510e-02 4.153876e-02 3.784173e-02 3.468213e-02 3.262147e-02 
4.014602e-02 4.075526e-02 4.234370e-02 4.468973e-02 4.751725e-02 5.058873e-02 5.359279e-02 5.641171e-02 5.880328e-02 6.070561e-02 6.205870e-02 6.272667e-02 6.298891e-02 6.247549e-02 6.199731e-02 6.072681e-02 6.018643e-02 5.877188e-02 5.874491e-02 5.748018e-02 5.764575e-02 5.600459e-02 5.478877e-02 5.179537e-02 4.756006e-02 4.381212e-02 3.907477e-02 4.081399e-02 4.546156e-02 5.533149e-02 6.557722e-02 7.222757e-02 7.608054e-02 7.234743e-02 6.604311e-02 5.533723e-02 4.561213e-02 4.019113e-02 3.833442e-02 4.320258e-02 4.685870e-02 5.155500e-02 5.443353e-02 5.588350e-02 5.750458e-02 5.729973e-02 5.866622e-02 5.849555e-02 6.005879e-02 6.036907e-02 6.175696e-02 6.204823e-02 6.261527e-02 6.223469e-02 6.156217e-02 6.015928e-02 5.821887e-02 5.583961e-02 5.298252e-02 5.004907e-02 4.697892e-02 4.427995e-02 4.201309e-02 4.059730e-02 
4.861945e-02 4.901099e-02 5.005952e-02 5.161343e-02 5.351351e-02 5.563360e-02 5.769046e-02 5.969520e-02 6.134657e-02 6.274812e-02 6.374120e-02 6.438339e-02 6.485163e-02 6.495320e-02 6.539009e-02 6.540634e-02 6.637835e-02 6.655527e-02 6.807764e-02 6.788599e-02 6.883658e-02 6.683788e-02 6.494484e-02 5.936775e-02 5.204645e-02 4.247877e-02 3.096751e-02 2.860864e-02 3.736256e-02 5.464026e-02 7.231090e-02 8.335017e-02 8.937615e-02 8.383764e-02 7.345283e-02 5.547534e-02 3.832888e-02 2.801659e-02 2.970514e-02 4.163321e-02 5.112455e-02 5.909257e-02 6.457968e-02 6.672611e-02 6.873906e-02 6.770351e-02 6.803259e-02 6.625913e-02 6.626234e-02 6.502227e-02 6.514818e-02 6.451248e-02 6.447935e-02 6.390586e-02 6.326367e-02 6.224919e-02 6.080773e-02 5.920076e-02 5.715379e-02 5.519171e-02 5.306493e-02 5.129589e-02 4.979805e-02 4.889356e-02 
5.716694e-02 5.738290e-02 5.800222e-02 5.887495e-02 5.994798e-02 6.116641e-02 6.229146e-02 6.346606e-02 6.435146e-02 6.524352e-02 6.589353e-02 6.658773e-02 6.738161e-02 6.828378e-02 6.981461e-02 7.130291e-02 7.386717e-02 7.566955e-02 7.867111e-02 7.948170e-02 8.118896e-02 7.883799e-02 7.648133e-02 6.849806e-02 5.869390e-02 4.335330e-02 2.436602e-02 1.106290e-02 2.844888e-02 5.268279e-02 7.577100e-02 8.947398e-02 9.701184e-02 9.030136e-02 7.759059e-02 5.448995e-02 3.080496e-02 1.044414e-02 2.206484e-02 4.213479e-02 5.749628e-02 6.813925e-02 7.613717e-02 7.873374e-02 8.118746e-02 7.933210e-02 7.872590e-02 7.542280e-02 7.383455e-02 7.096614e-02 6.962149e-02 6.787083e-02 6.701788e-02 6.611952e-02 6.540037e-02 6.474944e-02 6.379781e-02 6.298582e-02 6.175852e-02 6.075267e-02 5.952217e-02 5.858951e-02 5.776370e-02 5.728026e-02 
6.604287e-02 6.608950e-02 6.632032e-02 6.655383e-02 6.683529e-02 6.715829e-02 6.732958e-02 6.762984e-02 6.769034e-02 6.802310e-02 6.828981e-02 6.902115e-02 7.012287e-02 7.179497e-02 7.430276e-02 7.708120e-02 8.090966e-02 8.402539e-02 8.815123e-02 8.986549e-02 9.245436e-02 9.041732e-02 8.898178e-02 8.076550e-02 7.228788e-02 5.619302e-02 3.817978e-02 1.617359e-02 2.423156e-02 4.905270e-02 7.659787e-02 9.256684e-02 1.019288e-01 9.400028e-02 7.945291e-02 5.244151e-02 2.791077e-02 1.555894e-02 3.568038e-02 5.470034e-02 7.091729e-02 8.035247e-02 8.873218e-02 9.035212e-02 9.260683e-02 8.973907e-02 8.831219e-02 8.377752e-02 8.092586e-02 7.673658e-02 7.412827e-02 7.139119e-02 6.977864e-02 6.859654e-02 6.783780e-02 6.760805e-02 6.720528e-02 6.725057e-02 6.688333e-02 6.684598e-02 6.649263e-02 6.634506e-02 6.613376e-02 6.601572e-02 
7.499138e-02 7.488110e-02 7.478431e-02 7.443108e-02 7.399267e-02 7.346535e-02 7.272318e-02 7.216844e-02 7.142362e-02 7.122984e-02 7.117235e-02 7.204419e-02 7.357905e-02 7.617924e-02 7.977771e-02 8.399290e-02 8.914485e-02 9.375498e-02 9.913011e-02 1.020937e-01 1.059318e-01 1.048180e-01 1.050175e-01 9.754805e-02 9.129478e-02 7.569895e-02 6.166031e-02 4.273145e-02 3.947363e-02 4.893733e-02 7.135222e-02 8.432712e-02 9.370264e-02 8.627242e-02 7.505974e-02 5.332015e-02 4.215032e-02 4.252669e-02 5.939856e-02 7.388546e-02 8.968716e-02 9.699628e-02 1.049234e-01 1.047589e-01 1.063098e-01 1.020437e-01 9.949267e-02 9.363045e-02 8.932396e-02 8.377345e-02 7.970881e-02 7.586198e-02 7.327388e-02 7.166153e-02 7.071514e-02 7.083416e-02 7.092644e-02 7.180728e-02 7.227917e-02 7.317575e-02 7.366468e-02 7.424291e-02 7.461091e-02 7.481572e-02 
8.430237e-02 8.402933e-02 8.361854e-02 8.269195e-02 8.155126e-02 8.018708e-02 7.853750e-02 7.714047e-02 7.560484e-02 7.492519e-02 7.460098e-02 7.567404e-02 7.767449e-02 8.114561e-02 8.564355e-02 9.097943e-02 9.692443e-02 1.024923e-01 1.082798e-01 1.118986e-01 1.160411e-01 1.154648e-01 1.170428e-01 1.104361e-01 1.088378e-01 9.757893e-02 9.069299e-02 7.529995e-02 6.685204e-02 5.983430e-02 7.029347e-02 7.655051e-02 8.550710e-02 7.949051e-02 7.495470e-02 6.457241e-02 6.809970e-02 7.500616e-02 8.840591e-02 9.555574e-02 1.070412e-01 1.097230e-01 1.171442e-01 1.154377e-01 1.166983e-01 1.118877e-01 1.088267e-01 1.024020e-01 9.719994e-02 9.080308e-02 8.563469e-02 8.089958e-02 7.743676e-02 7.540101e-02 7.423510e-02 7.466430e-02 7.521605e-02 7.691272e-02 7.819986e-02 8.000644e-02 8.130709e-02 8.257396e-02 8.349103e-02 8.398808e-02 
9.366841e-02 9.322876e-02 9.255220e-02 9.107671e-02 8.929588e-02 8.713831e-02 8.464615e-02 8.246849e-02 8.022001e-02 7.914744e-02 7.866229e-02 8.003904e-02 8.257745e-02 8.694773e-02 9.227977e-02 9.866656e-02 1.051780e-01 1.115656e-01 1.174311e-01 1.215276e-01 1.257861e-01 1.257535e-01 1.291292e-01 1.247141e-01 1.269899e-01 1.156653e-01 1.104267e-01 9.262709e-02 8.044237e-02 6.136281e-02 5.566929e-02 4.854246e-02 5.404670e-02 5.219683e-02 6.048068e-02 6.554889e-02 8.066600e-02 9.267881e-02 1.084853e-01 1.132363e-01 1.249291e-01 1.240191e-01 1.296741e-01 1.256653e-01 1.267794e-01 1.216091e-01 1.182446e-01 1.117011e-01 1.056934e-01 9.874283e-02 9.245410e-02 8.688935e-02 8.243226e-02 7.986659e-02 7.831818e-02 7.893275e-02 7.983246e-02 8.226824e-02 8.431756e-02 8.698031e-02 8.906784e-02 9.097550e-02 9.243676e-02 9.319381e-02 
1.033954e-01 1.027793e-01 1.018409e-01 9.981907e-02 9.740688e-02 9.448005e-02 9.117277e-02 8.828942e-02 8.541704e-02 8.410219e-02 8.361711e-02 8.542661e-02 8.856908e-02 9.366833e-02 9.948201e-02 1.061448e-01 1.120872e-01 1.177327e-01 1.214630e-01 1.237795e-01 1.246111e-01 1.222908e-01 1.226598e-01 1.127455e-01 1.175575e-01 1.112076e-01 1.186930e-01 1.121960e-01 1.046828e-01 8.303696e-02 6.596729e-02 4.331614e-02 4.196876e-02 4.740561e-02 6.960616e-02 8.591632e-02 1.036094e-01 1.129731e-01 1.170460e-01 1.088373e-01 1.153914e-01 1.120119e-01 1.237586e-01 1.224157e-01 1.260678e-01 1.238404e-01 1.224034e-01 1.178269e-01 1.126362e-01 1.062789e-01 9.974153e-02 9.377605e-02 8.857838e-02 8.548203e-02 8.345813e-02 8.411355e-02 8.520212e-02 8.826817e-02 9.097882e-02 9.444158e-02 9.726752e-02 9.978391e-02 1.017688e-01 1.027652e-01 
1.131222e-01 1.123106e-01 1.111632e-01 1.086059e-01 1.056365e-01 1.019959e-01 9.797904e-02 9.450715e-02 9.115044e-02 8.973184e-02 8.933003e-02 9.153006e-02 9.504851e-02 1.003603e-01 1.058155e-01 1.116136e-01 1.155084e-01 1.190373e-01 1.193353e-01 1.189385e-01 1.163245e-01 1.103533e-01 1.125075e-01 1.062469e-01 1.177080e-01 1.064584e-01 1.094520e-01 9.267383e-02 8.082831e-02 5.727196e-02 3.988062e-02 2.536999e-02 1.177403e-02 2.609118e-02 4.046562e-02 5.800909e-02 7.787286e-02 9.495906e-02 1.109950e-01 1.047066e-01 1.161515e-01 1.076085e-01 1.152590e-01 1.103819e-01 1.182367e-01 1.190801e-01 1.204430e-01 1.193475e-01 1.161969e-01 1.120345e-01 1.062537e-01 1.007249e-01 9.519170e-02 9.174817e-02 8.923314e-02 8.982832e-02 9.096831e-02 9.453366e-02 9.781687e-02 1.019882e-01 1.055265e-01 1.085895e-01 1.111088e-01 1.123029e-01 
1.231436e-01 1.221258e-01 1.207727e-01 1.176791e-01 1.141573e-01 1.098364e-01 1.051396e-01 1.011922e-01 9.744198e-02 9.609829e-02 9.586898e-02 9.843086e-02 1.020696e-01 1.067564e-01 1.107146e-01 1.136754e-01 1.138988e-01 1.138674e-01 1.109042e-01 1.083968e-01 1.025394e-01 9.288829e-02 8.324559e-02 5.000926e-02 5.834536e-02 6.158725e-02 9.423950e-02 1.207930e-01 1.296558e-01 1.100019e-01 7.998926e-02 4.038241e-02 7.416316e-03 3.859672e-02 7.714435e-02 1.088079e-01 1.279290e-01 1.274803e-01 9.525754e-02 5.915791e-02 5.718455e-02 5.212934e-02 8.587557e-02 9.367825e-02 1.056383e-01 1.083273e-01 1.119929e-01 1.137007e-01 1.142020e-01 1.138445e-01 1.110632e-01 1.072851e-01 1.024445e-01 9.902951e-02 9.609459e-02 9.655189e-02 9.752340e-02 1.014558e-01 1.051468e-01 1.099565e-01 1.141397e-01 1.177202e-01 1.207577e-01 1.221342e-01 
1.330129e-01 1.317509e-01 1.302596e-01 1.266294e-01 1.226569e-01 1.177233e-01 1.124996e-01 1.082293e-01 1.042368e-01 1.030393e-01 1.028034e-01 1.051265e-01 1.076668e-01 1.097153e-01 1.096854e-01 1.079874e-01 1.051614e-01 1.077906e-01 1.113492e-01 1.173905e-01 1.101810e-01 8.883856e-02 9.996764e-02 7.942601e-02 1.071908e-01 1.164476e-01 1.192819e-01 1.038207e-01 9.663890e-02 9.831580e-02 9.635460e-02 1.003040e-01 8.984773e-02 1.002903e-01 9.133398e-02 9.678696e-02 1.032617e-01 1.109227e-01 1.316178e-01 1.287144e-01 1.157596e-01 8.637442e-02 1.017254e-01 8.728624e-02 1.109089e-01 1.164657e-01 1.124672e-01 1.077584e-01 1.053501e-01 1.080889e-01 1.098741e-01 1.102620e-01 1.080520e-01 1.058530e-01 1.031099e-01 1.036181e-01 1.044105e-01 1.085799e-01 1.125893e-01 1.178951e-01 1.226980e-01 1.266966e-01 1.302743e-01 1.317671e-01 
1.429785e-01 1.414621e-01 1.398466e-01 1.356779e-01 1.312629e-01 1.257446e-01 1.199852e-01 1.154631e-01 1.111278e-01 1.100285e-01 1.092814e-01 1.105398e-01 1.104501e-01 1.076491e-01 1.025763e-01 9.904266e-02 1.052689e-01 1.262696e-01 1.450367e-01 1.518089e-01 1.368862e-01 8.793135e-02 7.083933e-02 1.275766e-01 9.602490e-02 5.702249e-02 8.124725e-02 1.217915e-01 1.345714e-01 1.310201e-01 1.000772e-01 7.599459e-02 5.112186e-02 7.665953e-02 1.036157e-01 1.372327e-01 1.344163e-01 1.257296e-01 7.604143e-02 6.285638e-02 1.159410e-01 1.426434e-01 7.730280e-02 8.563991e-02 1.391738e-01 1.487334e-01 1.453949e-01 1.257044e-01 1.049033e-01 9.816942e-02 1.019998e-01 1.079597e-01 1.109593e-01 1.117512e-01 1.100463e-01 1.111195e-01 1.116712e-01 1.161099e-01 1.202775e-01 1.260389e-01 1.313917e-01 1.357823e-01 1.398906e-01 1.414850e-01 
1.524427e-01 1.506111e-01 1.489593e-01 1.442345e-01 1.395163e-01 1.334668e-01 1.273639e-01 1.226988e-01 1.180744e-01 1.168383e-01 1.147004e-01 1.130145e-01 1.072452e-01 9.629873e-02 8.872210e-02 1.016343e-01 1.387041e-01 1.806094e-01 1.951540e-01 1.662703e-01 4.851658e-02 7.732021e-02 4.017241e-02 6.823169e-02 1.819751e-01 1.818537e-01 1.327018e-01 5.913529e-02 7.464296e-02 9.852052e-02 8.620422e-02 5.292713e-02 4.193518e-03 4.417110e-02 8.107957e-02 8.949497e-02 6.508423e-02 6.519068e-02 1.297213e-01 1.924389e-01 1.824524e-01 6.464319e-02 3.880282e-02 9.262345e-02 4.267966e-02 1.564695e-01 1.935726e-01 1.799102e-01 1.397392e-01 1.013358e-01 8.763649e-02 9.564375e-02 1.071665e-01 1.140331e-01 1.154737e-01 1.180863e-01 1.188241e-01 1.235080e-01 1.278396e-01 1.338528e-01 1.397544e-01 1.443771e-01 1.490503e-01 1.506437e-01 
1.615753e-01 1.594189e-01 1.577794e-01 1.525036e-01 1.475291e-01 1.409585e-01 1.344547e-01 1.295689e-01 1.241085e-01 1.220676e-01 1.165317e-01 1.093738e-01 9.455058e-02 7.787371e-02 9.216107e-02 1.483177e-01 2.073547e-01 2.350881e-01 1.727642e-01 4.020516e-02 2.476500e-02 8.780662e-02 1.763414e-01 1.300393e-01 7.391382e-02 1.860950e-01 2.496819e-01 2.634753e-01 2.234944e-01 1.994274e-01 1.681669e-01 1.616844e-01 1.421144e-01 1.571944e-01 1.590659e-01 1.826546e-01 2.070769e-01 2.408052e-01 2.409047e-01 1.695049e-01 6.960164e-02 1.249487e-01 1.853356e-01 9.535684e-02 1.842264e-02 3.112929e-02 1.608937e-01 2.312481e-01 2.075286e-01 1.491752e-01 9.081238e-02 7.595757e-02 9.400372e-02 1.108332e-01 1.177995e-01 1.239566e-01 1.253192e-01 1.307007e-01 1.351508e-01 1.414303e-01 1.478332e-01 1.526432e-01 1.578796e-01 1.594425e-01 
1.695509e-01 1.669927e-01 1.654790e-01 1.596183e-01 1.545870e-01 1.474945e-01 1.408380e-01 1.356659e-01 1.292411e-01 1.255453e-01 1.146005e-01 9.824561e-02 7.170721e-02 6.923978e-02 1.387817e-01 2.275626e-01 2.719117e-01 2.200222e-01 8.742352e-02 6.176944e-02 1.413375e-01 1.114903e-01 6.990187e-02 2.064743e-01 2.636414e-01 2.423896e-01 1.987258e-01 1.625566e-01 1.392989e-01 1.391003e-01 1.356353e-01 1.427485e-01 1.348069e-01 1.411443e-01 1.297252e-01 1.306265e-01 1.292232e-01 1.560662e-01 1.790625e-01 2.272771e-01 2.431008e-01 2.074825e-01 7.088486e-02 1.064867e-01 1.510719e-01 7.091168e-02 7.702592e-02 2.111478e-01 2.693642e-01 2.299116e-01 1.410345e-01 6.702873e-02 6.911644e-02 9.878014e-02 1.157318e-01 1.276748e-01 1.309195e-01 1.371052e-01 1.418991e-01 1.481205e-01 1.550691e-01 1.598086e-01 1.656421e-01 1.670260e-01 
1.764553e-01 1.734895e-01 1.722316e-01 1.658306e-01 1.609408e-01 1.533555e-01 1.466055e-01 1.408906e-01 1.324959e-01 1.255640e-01 1.047043e-01 7.430111e-02 4.529811e-02 1.144279e-01 2.268161e-01 3.169616e-01 2.924477e-01 1.674798e-01 8.718272e-02 9.980612e-02 1.987874e-02 1.699420e-01 2.041725e-01 1.601715e-01 8.948726e-02 3.906137e-02 3.181940e-02 5.424486e-02 8.709400e-02 1.221579e-01 1.464356e-01 1.678044e-01 1.667883e-01 1.671099e-01 1.431844e-01 1.197550e-01 8.373129e-02 5.763654e-02 2.414886e-02 3.494396e-02 7.610276e-02 1.470097e-01 1.941948e-01 1.737587e-01 2.424764e-02 1.067560e-01 8.773608e-02 1.550373e-01 2.820441e-01 3.176529e-01 2.293162e-01 1.144509e-01 4.185593e-02 7.519637e-02 1.062439e-01 1.283330e-01 1.346811e-01 1.425742e-01 1.478714e-01 1.539781e-01 1.614425e-01 1.659560e-01 1.723710e-01 1.734923e-01 
1.812073e-01 1.777753e-01 1.769221e-01 1.699777e-01 1.655515e-01 1.574130e-01 1.509954e-01 1.443272e-01 1.338240e-01 1.219421e-01 8.826452e-02 3.854318e-02 7.083948e-02 1.977509e-01 3.332023e-01 3.840024e-01 2.351216e-01 7.487378e-02 2.030496e-02 5.807562e-02 1.321401e-01 9.678253e-02 2.520753e-02 2.793450e-02 2.930782e-02 2.001892e-02 4.858949e-02 8.169539e-02 1.105746e-01 1.319928e-01 1.439877e-01 1.543536e-01 1.523220e-01 1.545011e-01 1.426331e-01 1.328799e-01 1.103788e-01 8.759771e-02 5.390055e-02 2.250254e-02 2.784407e-02 3.149048e-02 1.326259e-02 8.076845e-02 1.277137e-01 5.339641e-02 2.680945e-02 7.455618e-02 2.216457e-01 3.780840e-01 3.385636e-01 2.028378e-01 7.246731e-02 3.781714e-02 9.028239e-02 1.253773e-01 1.371176e-01 1.465511e-01 1.528761e-01 1.582489e-01 1.662771e-01 1.701500e-01 1.771181e-01 1.777811e-01 
1.838540e-01 1.799677e-01 1.797884e-01 1.724624e-01 1.690463e-01 1.605284e-01 1.551191e-01 1.472377e-01 1.342866e-01 1.156390e-01 6.404740e-02 1.437072e-02 1.523199e-01 3.192861e-01 4.532162e-01 3.421318e-01 5.322323e-02 2.907331e-02 3.393483e-02 2.824752e-02 2.803551e-02 7.533776e-02 7.803395e-02 7.457844e-02 8.192150e-02 8.660555e-02 8.997173e-02 9.211475e-02 1.027115e-01 1.169952e-01 1.300582e-01 1.427698e-01 1.429536e-01 1.433370e-01 1.299174e-01 1.189691e-01 1.039603e-01 9.605207e-02 9.496649e-02 8.939228e-02 8.795632e-02 8.149568e-02 8.195614e-02 8.491567e-02 3.810685e-02 2.313101e-02 2.730556e-02 2.090107e-02 4.567751e-02 3.288648e-01 4.526793e-01 3.211740e-01 1.574583e-01 1.585794e-02 6.735932e-02 1.193703e-01 1.381126e-01 1.494355e-01 1.571274e-01 1.612215e-01 1.697128e-01 1.725027e-01 1.799166e-01 1.799229e-01 
1.831525e-01 1.788548e-01 1.795462e-01 1.720222e-01 1.701574e-01 1.612969e-01 1.577753e-01 1.478459e-01 1.334424e-01 1.056839e-01 4.492989e-02 7.833130e-02 2.484551e-01 4.551559e-01 4.642709e-01 9.020641e-02 9.298647e-02 2.915817e-02 6.058397e-02 1.003153e-01 1.034712e-01 1.146627e-01 1.168421e-01 1.147116e-01 1.076537e-01 9.932070e-02 9.592572e-02 9.708184e-02 1.040945e-01 1.120417e-01 1.178133e-01 1.242689e-01 1.232622e-01 1.250352e-01 1.183105e-01 1.143978e-01 1.061034e-01 1.007717e-01 1.001125e-01 1.019820e-01 1.120138e-01 1.207536e-01 1.228947e-01 1.231271e-01 1.098890e-01 1.086937e-01 6.681065e-02 4.254359e-02 8.619136e-02 7.481988e-02 4.588488e-01 4.654215e-01 2.587063e-01 8.085671e-02 5.559069e-02 1.112928e-01 1.394032e-01 1.507123e-01 1.604289e-01 1.621467e-01 1.709392e-01 1.720559e-01 1.796641e-01 1.787940e-01 
1.792015e-01 1.745665e-01 1.765401e-01 1.692358e-01 1.699064e-01 1.612357e-01 1.614255e-01 1.495767e-01 1.373864e-01 1.021315e-01 6.766858e-02 1.455352e-01 3.735750e-01 5.826264e-01 2.487078e-01 1.344183e-01 4.545043e-02 1.533335e-01 1.315034e-01 1.430824e-01 1.341931e-01 1.401278e-01 1.309164e-01 1.246374e-01 1.172598e-01 1.094165e-01 1.022683e-01 9.536217e-02 9.339526e-02 9.505607e-02 9.809032e-02 1.035634e-01 1.029534e-01 1.044411e-01 9.904702e-02 9.747799e-02 9.566364e-02 9.840035e-02 1.058697e-01 1.124120e-01 1.214334e-01 1.298348e-01 1.363174e-01 1.476877e-01 1.426453e-01 1.515216e-01 1.415640e-01 1.609427e-01 6.341176e-02 1.376087e-01 2.119865e-01 5.772831e-01 3.952114e-01 1.529708e-01 8.021439e-02 1.076286e-01 1.438888e-01 1.521276e-01 1.639870e-01 1.618527e-01 1.705043e-01 1.691155e-01 1.765421e-01 1.744514e-01 
1.708589e-01 1.661628e-01 1.696614e-01 1.632958e-01 1.672426e-01 1.595881e-01 1.648611e-01 1.510392e-01 1.453738e-01 1.022879e-01 1.257860e-01 2.103243e-01 5.473177e-01 5.021219e-01 1.020928e-01 6.510785e-02 2.163476e-01 1.728241e-01 1.569080e-01 1.480593e-01 1.348730e-01 1.310033e-01 1.240507e-01 1.176056e-01 1.092013e-01 9.929328e-02 9.129881e-02 8.451417e-02 8.197748e-02 8.178043e-02 8.213557e-02 8.487230e-02 8.376018e-02 8.578489e-02 8.335289e-02 8.425182e-02 8.452417e-02 8.762083e-02 9.475659e-02 1.023965e-01 1.131258e-01 1.223697e-01 1.294750e-01 1.379224e-01 1.418772e-01 1.565112e-01 1.646859e-01 1.803734e-01 2.237593e-01 3.728861e-02 1.236061e-01 4.531013e-01 5.604476e-01 2.128895e-01 1.352926e-01 1.092337e-01 1.525480e-01 1.535268e-01 1.669820e-01 1.600016e-01 1.674981e-01 1.630435e-01 1.695038e-01 1.660029e-01 
1.583704e-01 1.538577e-01 1.593081e-01 1.548272e-01 1.629379e-01 1.576364e-01 1.695534e-01 1.546152e-01 1.616117e-01 1.090472e-01 1.740561e-01 2.719448e-01 6.299475e-01 2.036935e-01 2.112277e-01 1.955986e-01 2.308400e-01 1.689812e-01 1.356287e-01 1.267122e-01 1.119870e-01 1.122386e-01 1.068520e-01 1.027177e-01 9.693755e-02 8.911557e-02 8.208967e-02 7.418532e-02 6.911805e-02 6.593877e-02 6.422207e-02 6.556065e-02 6.437074e-02 6.649069e-02 6.563061e-02 6.834526e-02 7.173760e-02 7.713312e-02 8.549093e-02 9.238640e-02 1.010444e-01 1.073876e-01 1.126442e-01 1.192339e-01 1.201926e-01 1.367770e-01 1.434357e-01 1.857274e-01 2.256423e-01 2.359514e-01 1.786147e-01 1.492315e-01 6.386502e-01 2.951861e-01 1.894574e-01 1.229745e-01 1.690608e-01 1.574408e-01 1.710336e-01 1.579275e-01 1.628184e-01 1.544845e-01 1.589948e-01 1.536668e-01 
1.410703e-01 1.373867e-01 1.450674e-01 1.442214e-01 1.568660e-01 1.568934e-01 1.751480e-01 1.654885e-01 1.837103e-01 1.447899e-01 2.064088e-01 3.768954e-01 6.178740e-01 9.150534e-02 9.346459e-02 3.138343e-01 1.515618e-01 1.475812e-01 8.780549e-02 9.127822e-02 8.124742e-02 8.337090e-02 8.416160e-02 8.105003e-02 7.825420e-02 7.123756e-02 6.616472e-02 5.949382e-02 5.554991e-02 5.228721e-02 5.003305e-02 5.024045e-02 4.898116e-02 5.117330e-02 5.155990e-02 5.465410e-02 5.821982e-02 6.237182e-02 6.941693e-02 7.428806e-02 8.205655e-02 8.504136e-02 8.958962e-02 8.932406e-02 8.989909e-02 1.001926e-01 1.000303e-01 1.631482e-01 1.552801e-01 3.311743e-01 2.823452e-02 1.410800e-01 5.641874e-01 4.090784e-01 2.164127e-01 1.598326e-01 1.836136e-01 1.668457e-01 1.739646e-01 1.565054e-01 1.558276e-01 1.436245e-01 1.444558e-01 1.371296e-01 
1.194529e-01 1.172067e-01 1.275209e-01 1.322324e-01 1.489968e-01 1.576036e-01 1.785588e-01 1.829395e-01 1.990479e-01 1.991199e-01 2.190592e-01 4.531696e-01 4.412957e-01 2.619610e-01 4.839461e-02 2.826777e-01 8.616177e-02 1.034966e-01 4.197358e-02 4.330738e-02 4.991004e-02 5.267833e-02 6.076380e-02 5.888151e-02 6.008165e-02 5.532906e-02 5.308572e-02 4.761611e-02 4.415476e-02 3.998314e-02 3.679703e-02 3.580233e-02 3.444483e-02 3.677921e-02 3.848379e-02 4.231434e-02 4.685807e-02 5.039786e-02 5.630881e-02 5.831698e-02 6.382020e-02 6.254037e-02 6.588985e-02 5.802227e-02 5.834380e-02 5.004375e-02 5.356602e-02 1.034483e-01 9.419714e-02 2.827252e-01 1.325143e-01 2.585023e-01 3.481395e-01 4.468771e-01 2.107474e-01 2.010980e-01 1.917714e-01 1.818331e-01 1.753588e-01 1.566129e-01 1.473437e-01 1.315013e-01 1.267226e-01 1.169273e-01 
9.361602e-02 9.397793e-02 1.075418e-01 1.202976e-01 1.404860e-01 1.601489e-01 1.808851e-01 2.028167e-01 2.108148e-01 2.415126e-01 2.235395e-01 4.237845e-01 2.192452e-01 2.601537e-01 1.958232e-01 2.363186e-01 6.829584e-02 6.957157e-02 8.267393e-03 2.880342e-03 3.196256e-02 3.076530e-02 4.133228e-02 3.809238e-02 4.145772e-02 3.788928e-02 3.841798e-02 3.481690e-02 3.327856e-02 2.967777e-02 2.673770e-02 2.503058e-02 2.374924e-02 2.604774e-02 2.851018e-02 3.192852e-02 3.587923e-02 3.736878e-02 4.128745e-02 4.031771e-02 4.432128e-02 4.041055e-02 4.449643e-02 3.361450e-02 3.645891e-02 7.878096e-03 1.407333e-02 5.981627e-02 6.701324e-02 2.211535e-01 2.261401e-01 2.273317e-01 1.686342e-01 4.036839e-01 2.121982e-01 2.338234e-01 2.026620e-01 1.996723e-01 1.770343e-01 1.583728e-01 1.383905e-01 1.192342e-01 1.065038e-01 9.359337e-02 
6.447330e-02 6.896574e-02 8.722903e-02 1.095129e-01 1.326820e-01 1.625850e-01 1.828659e-01 2.182785e-01 2.224188e-01 2.630129e-01 2.275846e-01 3.375024e-01 1.135172e-01 1.761694e-01 2.053870e-01 1.440427e-01 3.698418e-02 5.808211e-02 2.493949e-02 3.960244e-02 3.393751e-02 3.067382e-02 2.839179e-02 2.304847e-02 2.568092e-02 2.424721e-02 2.774431e-02 2.622960e-02 2.609053e-02 2.240978e-02 1.896145e-02 1.571812e-02 1.418801e-02 1.696309e-02 2.099545e-02 2.470405e-02 2.872121e-02 2.872782e-02 3.055954e-02 2.648714e-02 2.800618e-02 2.410994e-02 2.944128e-02 3.098066e-02 3.462590e-02 4.066669e-02 2.636051e-02 5.882771e-02 4.008970e-02 1.419671e-01 2.033341e-01 1.658985e-01 7.828221e-02 3.231497e-01 2.244670e-01 2.540453e-01 2.170649e-01 2.140542e-01 1.793608e-01 1.601428e-01 1.304730e-01 1.081287e-01 8.601653e-02 6.843679e-02 
3.286106e-02 4.545386e-02 7.048672e-02 1.020038e-01 1.272254e-01 1.645466e-01 1.845126e-01 2.279668e-01 2.316064e-01 2.708084e-01 2.216901e-01 2.225571e-01 3.874572e-02 1.150422e-01 1.582630e-01 8.765276e-02 2.262411e-02 7.495012e-02 4.605566e-02 6.447229e-02 4.396227e-02 4.144990e-02 2.472159e-02 1.697195e-02 1.183438e-02 1.224164e-02 1.858396e-02 1.920135e-02 2.057713e-02 1.728364e-02 1.381167e-02 8.974538e-03 6.914535e-03 1.060022e-02 1.599509e-02 1.951553e-02 2.305833e-02 2.149591e-02 2.113805e-02 1.406838e-02 1.304305e-02 1.614638e-02 2.379804e-02 4.150606e-02 4.452219e-02 6.693192e-02 4.985921e-02 7.865071e-02 2.735060e-02 8.376213e-02 1.537018e-01 1.173378e-01 2.347755e-02 2.060389e-01 2.242789e-01 2.624362e-01 2.290989e-01 2.230209e-01 1.815877e-01 1.614978e-01 1.249916e-01 1.002084e-01 6.901488e-02 4.453931e-02 
6.627791e-04 3.348166e-02 6.357341e-02 9.918725e-02 1.253452e-01 1.651948e-01 1.855104e-01 2.312674e-01 2.361069e-01 2.729233e-01 2.187315e-01 1.652375e-01 2.539166e-02 1.099587e-01 1.531030e-01 3.317659e-02 3.069170e-03 7.811859e-02 5.166194e-02 7.236343e-02 4.763909e-02 4.565425e-02 2.401861e-02 1.569371e-02 4.002155e-04 7.032155e-03 1.598870e-02 1.768925e-02 1.947855e-02 1.610935e-02 1.225201e-02 5.685623e-03 1.167279e-03 7.957119e-03 1.465103e-02 1.842956e-02 2.204463e-02 2.006727e-02 1.871555e-02 9.328397e-03 3.021114e-03 1.396292e-02 2.224041e-02 4.550791e-02 4.814022e-02 7.516459e-02 5.658288e-02 8.375272e-02 1.393365e-02 3.327459e-02 1.355533e-01 1.301383e-01 1.228363e-02 1.496231e-01 2.226094e-01 2.646791e-01 2.342620e-01 2.260353e-01 1.827124e-01 1.619356e-01 1.231047e-01 9.726264e-02 6.199169e-02 3.222869e-02 
3.286106e-02 4.545386e-02 7.048672e-02 1.020038e-01 1.272254e-01 1.645466e-01 1.845126e-01 2.279668e-01 2.316064e-01 2.708084e-01 2.216901e-01 2.225571e-01 3.874572e-02 1.150422e-01 1.582630e-01 8.765276e-02 2.262411e-02 7.495012e-02 4.605566e-02 6.447229e-02 4.396227e-02 4.144990e-02 2.472159e-02 1.697195e-02 1.183438e-02 1.224164e-02 1.858396e-02 1.920135e-02 2.057713e-02 1.728364e-02 1.381167e-02 8.974538e-03 6.914535e-03 1.060022e-02 1.599509e-02 1.951553e-02 2.305833e-02 2.149591e-02 2.113805e-02 1.406838e-02 1.304305e-02 1.614638e-02 2.379804e-02 4.150606e-02 4.452219e-02 6.693192e-02 4.985921e-02 7.865071e-02 2.735060e-02 8.376213e-02 1.537018e-01 1.173378e-01 2.347755e-02 2.060389e-01 2.242789e-01 2.624362e-01 2.290989e-01 2.230209e-01 1.815877e-01 1.614978e-01 1.249916e-01 1.002084e-01 6.901488e-02 4.453931e-02 
6.447330e-02 6.896574e-02 8.722903e-02 1.095129e-01 1.326820e-01 1.625850e-01 1.828659e-01 2.182785e-01 2.224188e-01 2.630129e-01 2.275846e-01 3.375024e-01 1.135172e-01 1.761694e-01 2.053870e-01 1.440427e-01 3.698418e-02 5.808211e-02 2.493949e-02 3.960244e-02 3.393751e-02 3.067382e-02 2.839179e-02 2.304847e-02 2.568092e-02 2.424721e-02 2.774431e-02 2.622960e-02 2.609053e-02 2.240978e-02 1.896145e-02 1.571812e-02 1.418801e-02 1.696309e-02 2.099545e-02 2.470405e-02 2.872121e-02 2.872782e-02 3.055954e-02 2.648714e-02 2.800618e-02 2.410994e-02 2.944128e-02 3.098066e-02 3.462590e-02 4.066669e-02 2.636051e-02 5.882771e-02 4.008970e-02 1.419671e-01 2.033341e-01 1.658985e-01 7.828221e-02 3.231497e-01 2.244670e-01 2.540453e-01 2.170649e-01 2.140542e-01 1.793608e-01 1.601428e-01 1.304730e-01 1.081287e-01 8.601653e-02 6.843679e-02 