# vtk DataFile Version 2.0
Comment goes here
ASCII

DATASET STRUCTURED_POINTS
FIELD FieldData 1
TIME 1 1 double
0.09000000
DIMENSIONS    64   64   1

ORIGIN    0.000   0.000   0.000
SPACING   0.015625 0.015625   1.000

POINT_DATA   4096
SCALARS uMag double
LOOKUP_TABLE default

7.982549e-07 5.631323e-02 1.125705e-01 1.686676e-01 2.245561e-01 2.800454e-01 3.350451e-01 3.892523e-01 4.424870e-01 4.943169e-01 5.444321e-01 5.922661e-01 6.373550e-01 6.790093e-01 7.166115e-01 7.493797e-01 7.765730e-01 7.973673e-01 8.109613e-01 8.165540e-01 8.133760e-01 8.007237e-01 7.779768e-01 7.446075e-01 7.002872e-01 6.447668e-01 5.782101e-01 5.008849e-01 4.137998e-01 3.181208e-01 2.158919e-01 1.090405e-01 4.471887e-05 1.090533e-01 2.158075e-01 3.181307e-01 4.137314e-01 5.008917e-01 5.781683e-01 6.447721e-01 7.002779e-01 7.446121e-01 7.779971e-01 8.007270e-01 8.134159e-01 8.165547e-01 8.110087e-01 7.973647e-01 7.766182e-01 7.493743e-01 7.166487e-01 6.790023e-01 6.373822e-01 5.922588e-01 5.444501e-01 4.943105e-01 4.424974e-01 3.892472e-01 3.350498e-01 2.800417e-01 2.245572e-01 1.686650e-01 1.125695e-01 5.631121e-02 
5.631222e-02 7.964125e-02 1.258730e-01 1.778335e-01 2.315373e-01 2.857066e-01 3.398344e-01 3.934488e-01 4.462599e-01 4.978075e-01 5.477184e-01 5.954492e-01 6.404677e-01 6.821445e-01 7.197718e-01 7.526620e-01 7.799596e-01 8.009628e-01 8.147426e-01 8.206324e-01 8.177466e-01 8.055054e-01 7.832126e-01 7.504410e-01 7.068467e-01 6.522781e-01 5.869793e-01 5.114086e-01 4.269363e-01 3.355266e-01 2.413671e-01 1.540083e-01 1.090469e-01 1.540063e-01 2.412749e-01 3.355235e-01 4.268562e-01 5.114064e-01 5.869302e-01 6.522793e-01 7.068356e-01 7.504454e-01 7.832344e-01 8.055103e-01 8.177891e-01 8.206355e-01 8.147929e-01 8.009632e-01 7.800078e-01 7.526605e-01 7.198126e-01 6.821425e-01 6.404994e-01 5.954479e-01 5.477414e-01 4.978075e-01 4.462757e-01 3.934503e-01 3.398446e-01 2.857093e-01 2.315437e-01 1.778369e-01 1.258769e-01 7.964413e-02 
1.126935e-01 1.259959e-01 1.593158e-01 2.029284e-01 2.513966e-01 3.021331e-01 3.539177e-01 4.058841e-01 4.575476e-01 5.082899e-01 5.577008e-01 6.051322e-01 6.500848e-01 6.918269e-01 7.297283e-01 7.629875e-01 7.908603e-01 8.125236e-01 8.271801e-01 8.340534e-01 8.323894e-01 8.215347e-01 8.009073e-01 7.700640e-01 7.287828e-01 6.770019e-01 6.152336e-01 5.443432e-01 4.665170e-01 3.851790e-01 3.071850e-01 2.450185e-01 2.197315e-01 2.450310e-01 3.071197e-01 3.851983e-01 4.664501e-01 5.443587e-01 6.151909e-01 6.770135e-01 7.287756e-01 7.700722e-01 8.009327e-01 8.215394e-01 8.324353e-01 8.340544e-01 8.272325e-01 8.125209e-01 7.909083e-01 7.629821e-01 7.297663e-01 6.918203e-01 6.501114e-01 6.051258e-01 5.577173e-01 5.082848e-01 4.575564e-01 4.058806e-01 3.539210e-01 3.021312e-01 2.513965e-01 2.029276e-01 1.593143e-01 1.259958e-01 
1.692071e-01 1.783633e-01 2.033059e-01 2.391034e-01 2.815317e-01 3.278269e-01 3.763577e-01 4.259556e-01 4.759051e-01 5.254585e-01 5.740843e-01 6.211000e-01 6.659128e-01 7.078201e-01 7.460862e-01 7.799961e-01 8.086738e-01 8.314365e-01 8.473377e-01 8.557782e-01 8.558708e-01 8.471432e-01 8.289479e-01 8.010128e-01 7.631905e-01 7.156666e-01 6.592875e-01 5.954089e-01 5.269588e-01 4.581880e-01 3.963832e-01 3.514659e-01 3.346998e-01 3.514716e-01 3.963119e-01 4.581989e-01 5.268766e-01 5.954200e-01 6.592345e-01 7.156798e-01 7.631848e-01 8.010261e-01 8.289818e-01 8.471524e-01 8.559263e-01 8.557822e-01 8.473979e-01 8.314365e-01 8.087275e-01 7.799947e-01 7.461287e-01 7.078194e-01 6.659436e-01 6.211011e-01 5.741049e-01 5.254614e-01 4.759178e-01 4.259600e-01 3.763647e-01 3.278320e-01 2.815347e-01 2.391081e-01 2.033068e-01 1.783655e-01 
2.258876e-01 2.328575e-01 2.525354e-01 2.822882e-01 3.192258e-01 3.610125e-01 4.060079e-01 4.529046e-01 5.008755e-01 5.490229e-01 5.967817e-01 6.433382e-01 6.881340e-01 7.303341e-01 7.692899e-01 8.041437e-01 8.341486e-01 8.584774e-01 8.763384e-01 8.870090e-01 8.897499e-01 8.840162e-01 8.692708e-01 8.452576e-01 8.119758e-01 7.697880e-01 7.199193e-01 6.641129e-01 6.057059e-01 5.489084e-01 5.000417e-01 4.661780e-01 4.539576e-01 4.661963e-01 4.999883e-01 5.489472e-01 6.056362e-01 6.641501e-01 7.198719e-01 7.698187e-01 8.119765e-01 8.452776e-01 8.693140e-01 8.840256e-01 8.898159e-01 8.870111e-01 8.764067e-01 8.584745e-01 8.342052e-01 8.041385e-01 7.693296e-01 7.303290e-01 6.881581e-01 6.433347e-01 5.967938e-01 5.490216e-01 5.008795e-01 4.529054e-01 4.060072e-01 3.610147e-01 3.192231e-01 2.822907e-01 2.525330e-01 2.328587e-01 
2.827477e-01 2.883934e-01 3.046063e-01 3.298991e-01 3.623112e-01 4.000520e-01 4.416651e-01 4.858837e-01 5.318351e-01 5.785731e-01 6.254640e-01 6.716670e-01 7.165468e-01 7.592910e-01 7.991418e-01 8.353331e-01 8.669548e-01 8.933495e-01 9.135047e-01 9.269199e-01 9.326137e-01 9.302465e-01 9.191359e-01 8.992253e-01 8.706911e-01 8.343137e-01 7.918252e-01 7.452653e-01 6.979393e-01 6.531033e-01 6.154330e-01 5.897182e-01 5.805048e-01 5.897288e-01 6.153606e-01 6.531284e-01 6.978400e-01 7.452946e-01 7.917602e-01 8.343539e-01 8.707022e-01 8.992610e-01 9.192009e-01 9.302660e-01 9.326995e-01 9.269259e-01 9.135861e-01 8.933487e-01 8.670187e-01 8.353324e-01 7.991861e-01 7.592936e-01 7.165745e-01 6.716731e-01 6.254793e-01 5.785814e-01 5.318418e-01 4.858928e-01 4.416665e-01 4.000605e-01 3.623099e-01 3.299054e-01 3.046047e-01 2.883958e-01 
3.397486e-01 3.445277e-01 3.583604e-01 3.803854e-01 4.092350e-01 4.435891e-01 4.822428e-01 5.240422e-01 5.681757e-01 6.136541e-01 6.598842e-01 7.059187e-01 7.511969e-01 7.947573e-01 8.359631e-01 8.738585e-01 9.076978e-01 9.365969e-01 9.597199e-01 9.763202e-01 9.855391e-01 9.868576e-01 9.796515e-01 9.639840e-01 9.402766e-01 9.097642e-01 8.748046e-01 8.377077e-01 8.013691e-01 7.674688e-01 7.387296e-01 7.185792e-01 7.111700e-01 7.186019e-01 7.386671e-01 7.675234e-01 8.012772e-01 8.377710e-01 8.747444e-01 9.098365e-01 9.403013e-01 9.640306e-01 9.797360e-01 9.868768e-01 9.856469e-01 9.763254e-01 9.598183e-01 9.365946e-01 9.077677e-01 8.738546e-01 8.360027e-01 7.947553e-01 7.512141e-01 7.059199e-01 6.598877e-01 6.136584e-01 5.681724e-01 5.240486e-01 4.822370e-01 4.435961e-01 4.092293e-01 3.803909e-01 3.583569e-01 3.445298e-01 
3.968024e-01 4.009901e-01 4.131553e-01 4.328036e-01 4.589451e-01 4.906260e-01 5.268767e-01 5.667010e-01 6.093717e-01 6.539333e-01 6.998078e-01 7.460477e-01 7.920600e-01 8.369057e-01 8.798427e-01 9.200012e-01 9.563990e-01 9.883176e-01 1.014481e+00 1.034346e+00 1.046463e+00 1.050505e+00 1.045595e+00 1.032230e+00 1.011667e+00 9.863604e-01 9.598035e-01 9.343007e-01 9.114647e-01 8.899852e-01 8.700349e-01 8.542525e-01 8.479843e-01 8.542536e-01 8.699266e-01 8.900031e-01 9.113120e-01 9.343413e-01 9.597157e-01 9.864684e-01 1.011733e+00 1.032321e+00 1.045730e+00 1.050544e+00 1.046605e+00 1.034355e+00 1.014597e+00 9.883152e-01 9.564750e-01 9.200029e-01 8.798851e-01 8.369149e-01 7.920798e-01 7.460618e-01 6.998137e-01 6.539488e-01 6.093698e-01 5.667153e-01 5.268712e-01 4.906374e-01 4.589392e-01 4.328110e-01 4.131516e-01 4.009927e-01 
4.537566e-01 4.575427e-01 4.685279e-01 4.864778e-01 5.106243e-01 5.403109e-01 5.747576e-01 6.131310e-01 6.548212e-01 6.989003e-01 7.448878e-01 7.917605e-01 8.390432e-01 8.856238e-01 9.309106e-01 9.737294e-01 1.013255e+00 1.048255e+00 1.077540e+00 1.099852e+00 1.113762e+00 1.118577e+00 1.113787e+00 1.101010e+00 1.082505e+00 1.062077e+00 1.044372e+00 1.031525e+00 1.023118e+00 1.014014e+00 1.001505e+00 9.884063e-01 9.824522e-01 9.884101e-01 1.001386e+00 1.014051e+00 1.022962e+00 1.031617e+00 1.044308e+00 1.062277e+00 1.082612e+00 1.101122e+00 1.113962e+00 1.118615e+00 1.113947e+00 1.099864e+00 1.077687e+00 1.048256e+00 1.013338e+00 9.737289e-01 9.309416e-01 8.856268e-01 8.390447e-01 7.917681e-01 7.448771e-01 6.989113e-01 6.548079e-01 6.131435e-01 5.747461e-01 5.403223e-01 5.106161e-01 4.864858e-01 4.685237e-01 4.575456e-01 
5.103665e-01 5.138815e-01 5.240742e-01 5.408709e-01 5.636665e-01 5.920137e-01 6.253037e-01 6.628425e-01 7.041454e-01 7.483376e-01 7.950188e-01 8.431643e-01 8.923156e-01 9.413393e-01 9.895122e-01 1.035622e+00 1.078356e+00 1.116402e+00 1.147464e+00 1.170281e+00 1.182078e+00 1.182873e+00 1.172556e+00 1.154494e+00 1.134332e+00 1.119038e+00 1.114452e+00 1.120102e+00 1.130972e+00 1.136478e+00 1.131737e+00 1.120915e+00 1.115078e+00 1.120851e+00 1.131511e+00 1.136428e+00 1.130708e+00 1.120152e+00 1.114375e+00 1.119381e+00 1.134576e+00 1.154722e+00 1.172833e+00 1.182945e+00 1.182315e+00 1.170288e+00 1.147627e+00 1.116396e+00 1.078437e+00 1.035630e+00 9.895415e-01 9.413603e-01 8.923184e-01 8.431894e-01 7.950096e-01 7.483605e-01 7.041319e-01 6.628606e-01 6.252904e-01 5.920264e-01 5.636560e-01 5.408784e-01 5.240685e-01 5.138840e-01 
5.663239e-01 5.696876e-01 5.793710e-01 5.954799e-01 6.174611e-01 6.450872e-01 6.778391e-01 7.151896e-01 7.567490e-01 8.017108e-01 8.497801e-01 8.998785e-01 9.516592e-01 1.003747e+00 1.055471e+00 1.104967e+00 1.150757e+00 1.190126e+00 1.220367e+00 1.238346e+00 1.241786e+00 1.231013e+00 1.209149e+00 1.185213e+00 1.166926e+00 1.161568e+00 1.173621e+00 1.198487e+00 1.226484e+00 1.243696e+00 1.245333e+00 1.237443e+00 1.232231e+00 1.237328e+00 1.245017e+00 1.243614e+00 1.226211e+00 1.198657e+00 1.173703e+00 1.162236e+00 1.167253e+00 1.185440e+00 1.209488e+00 1.231074e+00 1.242100e+00 1.238367e+00 1.220584e+00 1.190132e+00 1.150837e+00 1.104972e+00 1.055470e+00 1.003755e+00 9.516295e-01 8.998923e-01 8.497484e-01 8.017284e-01 7.567245e-01 7.152075e-01 6.778227e-01 6.451023e-01 6.174514e-01 5.954898e-01 5.793665e-01 5.696910e-01 
6.211688e-01 6.244583e-01 6.339155e-01 6.497365e-01 6.714494e-01 6.989532e-01 7.318543e-01 7.697222e-01 8.123086e-01 8.588346e-01 9.091375e-01 9.620762e-01 1.017339e+00 1.073321e+00 1.129008e+00 1.181899e+00 1.229242e+00 1.267222e+00 1.290585e+00 1.296364e+00 1.280941e+00 1.250203e+00 1.211493e+00 1.177640e+00 1.164392e+00 1.180336e+00 1.221195e+00 1.269956e+00 1.312414e+00 1.336853e+00 1.343578e+00 1.339836e+00 1.336106e+00 1.339472e+00 1.342951e+00 1.336578e+00 1.311980e+00 1.270052e+00 1.221379e+00 1.181412e+00 1.164975e+00 1.178072e+00 1.211950e+00 1.250293e+00 1.281310e+00 1.296338e+00 1.290800e+00 1.267207e+00 1.229294e+00 1.181921e+00 1.128998e+00 1.073360e+00 1.017311e+00 9.621124e-01 9.091068e-01 8.588618e-01 8.122812e-01 7.697405e-01 7.318327e-01 6.989645e-01 6.714347e-01 6.497426e-01 6.339081e-01 6.244602e-01 
6.743950e-01 6.777161e-01 6.871484e-01 7.030773e-01 7.249760e-01 7.529651e-01 7.866456e-01 8.257848e-01 8.701689e-01 9.191360e-01 9.725779e-01 1.029306e+00 1.088956e+00 1.149447e+00 1.209219e+00 1.264203e+00 1.310248e+00 1.340244e+00 1.347805e+00 1.327559e+00 1.282490e+00 1.223520e+00 1.172523e+00 1.157574e+00 1.179584e+00 1.225375e+00 1.281907e+00 1.333442e+00 1.374393e+00 1.400458e+00 1.414148e+00 1.418612e+00 1.417895e+00 1.418051e+00 1.413293e+00 1.400203e+00 1.374127e+00 1.333892e+00 1.282740e+00 1.227328e+00 1.179965e+00 1.157580e+00 1.172931e+00 1.223540e+00 1.282986e+00 1.327588e+00 1.348112e+00 1.340259e+00 1.310259e+00 1.264206e+00 1.209136e+00 1.149453e+00 1.088873e+00 1.029322e+00 9.725207e-01 9.191580e-01 8.701353e-01 8.258068e-01 7.866275e-01 7.529827e-01 7.249669e-01 7.030883e-01 6.871446e-01 6.777198e-01 
7.252737e-01 7.286762e-01 7.383420e-01 7.547193e-01 7.773319e-01 8.063896e-01 8.416004e-01 8.827984e-01 9.299319e-01 9.823179e-01 1.040020e+00 1.101603e+00 1.166616e+00 1.232075e+00 1.295339e+00 1.350039e+00 1.389244e+00 1.402412e+00 1.380083e+00 1.323208e+00 1.241390e+00 1.173219e+00 1.140968e+00 1.150726e+00 1.205117e+00 1.280109e+00 1.349814e+00 1.400358e+00 1.436948e+00 1.462180e+00 1.481053e+00 1.491307e+00 1.492227e+00 1.490564e+00 1.480327e+00 1.462539e+00 1.436759e+00 1.399967e+00 1.349854e+00 1.281927e+00 1.205425e+00 1.151059e+00 1.141306e+00 1.173117e+00 1.241927e+00 1.323096e+00 1.380354e+00 1.402397e+00 1.389175e+00 1.350086e+00 1.295244e+00 1.232131e+00 1.166540e+00 1.101642e+00 1.039962e+00 9.823403e-01 9.298902e-01 8.828104e-01 8.415720e-01 8.063959e-01 7.773145e-01 7.547224e-01 7.383339e-01 7.286771e-01 
7.730682e-01 7.766662e-01 7.867290e-01 8.039475e-01 8.276979e-01 8.584717e-01 8.958735e-01 9.400166e-01 9.907950e-01 1.047716e+00 1.110760e+00 1.178356e+00 1.249462e+00 1.319972e+00 1.385075e+00 1.435446e+00 1.459932e+00 1.442799e+00 1.376933e+00 1.273216e+00 1.174051e+00 1.113433e+00 1.134362e+00 1.231231e+00 1.318364e+00 1.368628e+00 1.407395e+00 1.442552e+00 1.479260e+00 1.512555e+00 1.542403e+00 1.560471e+00 1.562376e+00 1.559938e+00 1.541729e+00 1.511887e+00 1.476523e+00 1.439723e+00 1.408483e+00 1.375400e+00 1.319533e+00 1.229671e+00 1.134562e+00 1.113201e+00 1.174770e+00 1.273350e+00 1.377407e+00 1.442841e+00 1.459699e+00 1.435403e+00 1.384822e+00 1.319950e+00 1.249307e+00 1.178365e+00 1.110684e+00 1.047740e+00 9.907619e-01 9.400413e-01 8.958600e-01 8.584906e-01 8.276927e-01 8.039587e-01 7.867272e-01 7.766699e-01 
8.167490e-01 8.205721e-01 8.312977e-01 8.496726e-01 8.751112e-01 9.081930e-01 9.486233e-01 9.965844e-01 1.052153e+00 1.114750e+00 1.184500e+00 1.259164e+00 1.337144e+00 1.412043e+00 1.476705e+00 1.516645e+00 1.515443e+00 1.450095e+00 1.326458e+00 1.189245e+00 1.105235e+00 1.155317e+00 1.235091e+00 1.272009e+00 1.315509e+00 1.386867e+00 1.473457e+00 1.539824e+00 1.576804e+00 1.591345e+00 1.598267e+00 1.599055e+00 1.593377e+00 1.595295e+00 1.594809e+00 1.589846e+00 1.575700e+00 1.539548e+00 1.480105e+00 1.394426e+00 1.310260e+00 1.270344e+00 1.236271e+00 1.154369e+00 1.106051e+00 1.188844e+00 1.326767e+00 1.450115e+00 1.515038e+00 1.516709e+00 1.476468e+00 1.412089e+00 1.337012e+00 1.259180e+00 1.184418e+00 1.114750e+00 1.052101e+00 9.965821e-01 9.485924e-01 9.081915e-01 8.750944e-01 8.496720e-01 8.312904e-01 8.205720e-01 
8.553439e-01 8.595229e-01 8.710540e-01 8.910033e-01 9.185444e-01 9.546474e-01 9.987989e-01 1.051607e+00 1.112964e+00 1.182560e+00 1.260170e+00 1.343058e+00 1.428098e+00 1.506689e+00 1.567053e+00 1.589424e+00 1.542906e+00 1.407642e+00 1.219785e+00 1.093385e+00 1.100156e+00 1.117182e+00 1.167040e+00 1.312549e+00 1.479896e+00 1.572348e+00 1.599073e+00 1.589473e+00 1.575459e+00 1.567412e+00 1.564561e+00 1.564108e+00 1.561923e+00 1.559748e+00 1.562329e+00 1.568763e+00 1.579363e+00 1.591548e+00 1.599847e+00 1.573295e+00 1.476038e+00 1.315188e+00 1.164616e+00 1.117763e+00 1.100322e+00 1.093030e+00 1.220030e+00 1.407564e+00 1.542010e+00 1.589167e+00 1.566532e+00 1.506581e+00 1.427898e+00 1.343057e+00 1.260110e+00 1.182590e+00 1.112952e+00 1.051636e+00 9.987995e-01 9.546666e-01 9.185468e-01 8.910137e-01 8.710554e-01 8.595262e-01 
8.875377e-01 8.920838e-01 9.047026e-01 9.265237e-01 9.567472e-01 9.964683e-01 1.045254e+00 1.103843e+00 1.172279e+00 1.250104e+00 1.337043e+00 1.429057e+00 1.521691e+00 1.602499e+00 1.654826e+00 1.642646e+00 1.518590e+00 1.270180e+00 1.036055e+00 9.206985e-01 9.181550e-01 1.135373e+00 1.422044e+00 1.558873e+00 1.556489e+00 1.528136e+00 1.504317e+00 1.496264e+00 1.518015e+00 1.548771e+00 1.576016e+00 1.593664e+00 1.601504e+00 1.592358e+00 1.577370e+00 1.552412e+00 1.521037e+00 1.497674e+00 1.498646e+00 1.527943e+00 1.564491e+00 1.555331e+00 1.417532e+00 1.139006e+00 9.157124e-01 9.191366e-01 1.033754e+00 1.270394e+00 1.517443e+00 1.642637e+00 1.654459e+00 1.602442e+00 1.521530e+00 1.428999e+00 1.336952e+00 1.250066e+00 1.172229e+00 1.103823e+00 1.045229e+00 9.964603e-01 9.567368e-01 9.265211e-01 9.046989e-01 8.920832e-01 
9.121741e-01 9.172340e-01 9.310719e-01 9.552122e-01 9.885216e-01 1.032635e+00 1.086742e+00 1.152249e+00 1.228773e+00 1.316228e+00 1.413629e+00 1.515783e+00 1.616211e+00 1.697743e+00 1.730853e+00 1.647407e+00 1.365910e+00 9.592529e-01 6.388701e-01 7.624751e-01 1.236841e+00 1.497845e+00 1.498519e+00 1.409035e+00 1.365329e+00 1.412214e+00 1.469421e+00 1.515029e+00 1.556884e+00 1.583931e+00 1.602062e+00 1.610550e+00 1.615037e+00 1.609830e+00 1.602554e+00 1.586457e+00 1.557114e+00 1.516900e+00 1.464659e+00 1.412891e+00 1.374135e+00 1.401262e+00 1.497686e+00 1.501537e+00 1.232507e+00 7.618373e-01 6.373273e-01 9.604324e-01 1.364127e+00 1.646536e+00 1.730173e+00 1.697536e+00 1.616131e+00 1.515821e+00 1.413666e+00 1.316284e+00 1.228809e+00 1.152284e+00 1.086764e+00 1.032653e+00 9.885330e-01 9.552202e-01 9.310768e-01 9.172362e-01 
9.277495e-01 9.333170e-01 9.486706e-01 9.754051e-01 1.012394e+00 1.061467e+00 1.121821e+00 1.195150e+00 1.281051e+00 1.379326e+00 1.488621e+00 1.601987e+00 1.710246e+00 1.787728e+00 1.770848e+00 1.523447e+00 9.638402e-01 3.103938e-01 7.483607e-01 1.374160e+00 1.524874e+00 1.425682e+00 1.400478e+00 1.457157e+00 1.521012e+00 1.555129e+00 1.553133e+00 1.540397e+00 1.533883e+00 1.529945e+00 1.530767e+00 1.530753e+00 1.532460e+00 1.530569e+00 1.530833e+00 1.531483e+00 1.534226e+00 1.542364e+00 1.550719e+00 1.554318e+00 1.525864e+00 1.453258e+00 1.400498e+00 1.427734e+00 1.521589e+00 1.373918e+00 7.493222e-01 3.124465e-01 9.648963e-01 1.523167e+00 1.770780e+00 1.787428e+00 1.710142e+00 1.601831e+00 1.488554e+00 1.379259e+00 1.281027e+00 1.195128e+00 1.121819e+00 1.061463e+00 1.012398e+00 9.754050e-01 9.486740e-01 9.333174e-01 
9.330645e-01 9.392928e-01 9.563011e-01 9.860986e-01 1.027158e+00 1.082000e+00 1.149200e+00 1.231532e+00 1.327596e+00 1.438068e+00 1.560340e+00 1.685370e+00 1.800692e+00 1.855181e+00 1.713044e+00 1.138313e+00 1.862072e-01 8.545372e-01 1.510848e+00 1.615091e+00 1.542546e+00 1.626114e+00 1.707471e+00 1.698321e+00 1.641830e+00 1.583081e+00 1.531384e+00 1.493579e+00 1.468393e+00 1.449506e+00 1.438012e+00 1.429794e+00 1.428316e+00 1.429723e+00 1.437815e+00 1.450274e+00 1.468267e+00 1.494526e+00 1.531064e+00 1.581922e+00 1.644820e+00 1.697127e+00 1.706719e+00 1.627156e+00 1.541409e+00 1.614810e+00 1.512342e+00 8.537401e-01 1.866629e-01 1.136816e+00 1.712984e+00 1.855550e+00 1.801142e+00 1.685659e+00 1.560554e+00 1.438181e+00 1.327681e+00 1.231568e+00 1.149235e+00 1.082010e+00 1.027174e+00 9.861007e-01 9.563078e-01 9.392931e-01 
9.266368e-01 9.335121e-01 9.524907e-01 9.856118e-01 1.031343e+00 1.092438e+00 1.167342e+00 1.259376e+00 1.366693e+00 1.490310e+00 1.626832e+00 1.763590e+00 1.878037e+00 1.867110e+00 1.443530e+00 5.632991e-01 9.478687e-01 1.635178e+00 1.786572e+00 1.752897e+00 1.865921e+00 1.928967e+00 1.858287e+00 1.746911e+00 1.640175e+00 1.551781e+00 1.475302e+00 1.413972e+00 1.366379e+00 1.330473e+00 1.306783e+00 1.291989e+00 1.288082e+00 1.292045e+00 1.306688e+00 1.330955e+00 1.366373e+00 1.414412e+00 1.475316e+00 1.550915e+00 1.641682e+00 1.746138e+00 1.858279e+00 1.929527e+00 1.864524e+00 1.752053e+00 1.787223e+00 1.635525e+00 9.477210e-01 5.611559e-01 1.442490e+00 1.866997e+00 1.878037e+00 1.763506e+00 1.626843e+00 1.490305e+00 1.366735e+00 1.259393e+00 1.167381e+00 1.092453e+00 1.031370e+00 9.856202e-01 9.525038e-01 9.335148e-01 
9.074724e-01 9.151402e-01 9.362952e-01 9.732331e-01 1.024073e+00 1.092231e+00 1.175293e+00 1.278248e+00 1.396949e+00 1.535502e+00 1.685687e+00 1.830929e+00 1.929201e+00 1.746387e+00 1.035249e+00 1.000707e+00 1.700046e+00 1.957506e+00 1.937584e+00 2.004369e+00 2.079558e+00 2.001999e+00 1.849725e+00 1.687990e+00 1.552764e+00 1.443647e+00 1.357648e+00 1.291271e+00 1.241196e+00 1.203255e+00 1.177696e+00 1.161474e+00 1.156967e+00 1.161510e+00 1.177597e+00 1.203484e+00 1.241184e+00 1.291408e+00 1.357950e+00 1.443109e+00 1.553758e+00 1.687653e+00 1.849812e+00 2.002281e+00 2.079313e+00 2.004219e+00 1.936985e+00 1.958067e+00 1.700046e+00 9.959395e-01 1.036400e+00 1.749536e+00 1.930623e+00 1.831511e+00 1.685931e+00 1.535567e+00 1.396995e+00 1.278235e+00 1.175310e+00 1.092217e+00 1.024084e+00 9.732252e-01 9.363013e-01 9.151378e-01 
8.744326e-01 8.829072e-01 9.066237e-01 9.477051e-01 1.004339e+00 1.079948e+00 1.171978e+00 1.286104e+00 1.416992e+00 1.570635e+00 1.734238e+00 1.881123e+00 1.932900e+00 1.500163e+00 1.111766e+00 1.671431e+00 2.066179e+00 2.082437e+00 2.050498e+00 2.144278e+00 2.109467e+00 1.936403e+00 1.729923e+00 1.558519e+00 1.425108e+00 1.321288e+00 1.237510e+00 1.170132e+00 1.115921e+00 1.073453e+00 1.043422e+00 1.024572e+00 1.018887e+00 1.024618e+00 1.043398e+00 1.073589e+00 1.115968e+00 1.170130e+00 1.237721e+00 1.320873e+00 1.425619e+00 1.558184e+00 1.729988e+00 1.936301e+00 2.109112e+00 2.143578e+00 2.049826e+00 2.082691e+00 2.066143e+00 1.675385e+00 1.122782e+00 1.501808e+00 1.932730e+00 1.881261e+00 1.734429e+00 1.570805e+00 1.417152e+00 1.286193e+00 1.172071e+00 1.079989e+00 1.004389e+00 9.477226e-01 9.066459e-01 8.829121e-01 
8.270534e-01 8.364790e-01 8.631787e-01 9.089877e-01 9.721341e-01 1.055915e+00 1.157509e+00 1.283831e+00 1.426371e+00 1.598991e+00 1.766636e+00 1.928906e+00 1.852464e+00 1.417084e+00 1.579660e+00 2.061867e+00 2.199971e+00 2.068505e+00 2.111026e+00 2.154582e+00 2.011039e+00 1.783785e+00 1.577114e+00 1.417105e+00 1.293575e+00 1.194201e+00 1.113303e+00 1.046464e+00 9.922390e-01 9.489261e-01 9.179738e-01 8.983039e-01 8.923321e-01 8.983243e-01 9.179689e-01 9.489791e-01 9.923257e-01 1.046429e+00 1.113576e+00 1.193973e+00 1.293997e+00 1.416983e+00 1.577276e+00 1.783862e+00 2.011082e+00 2.154644e+00 2.110636e+00 2.068066e+00 2.198265e+00 2.061885e+00 1.581385e+00 1.412161e+00 1.848906e+00 1.927190e+00 1.765843e+00 1.598556e+00 1.426216e+00 1.283707e+00 1.157491e+00 1.055874e+00 9.721425e-01 9.089736e-01 8.631860e-01 8.364754e-01 
7.649104e-01 7.754289e-01 8.057441e-01 8.569472e-01 9.276171e-01 1.020013e+00 1.132215e+00 1.270234e+00 1.425782e+00 1.614898e+00 1.786934e+00 1.953358e+00 1.766698e+00 1.621240e+00 1.958282e+00 2.228416e+00 2.162535e+00 2.019333e+00 2.118263e+00 2.056283e+00 1.853007e+00 1.612661e+00 1.424575e+00 1.282387e+00 1.171228e+00 1.079633e+00 1.001753e+00 9.346615e-01 8.774165e-01 8.302727e-01 7.952306e-01 7.728970e-01 7.657576e-01 7.729089e-01 7.952535e-01 8.302818e-01 8.775057e-01 9.345807e-01 1.001937e+00 1.079429e+00 1.171465e+00 1.282247e+00 1.424672e+00 1.612648e+00 1.853038e+00 2.056458e+00 2.118341e+00 2.020100e+00 2.162754e+00 2.227563e+00 1.952555e+00 1.613502e+00 1.766272e+00 1.954314e+00 1.787574e+00 1.615222e+00 1.426022e+00 1.270335e+00 1.132324e+00 1.020052e+00 9.276720e-01 8.569638e-01 8.057685e-01 7.754337e-01 
6.883663e-01 7.002460e-01 7.351219e-01 7.927140e-01 8.723002e-01 9.737223e-01 1.098188e+00 1.246107e+00 1.419168e+00 1.615236e+00 1.811410e+00 1.941373e+00 1.810888e+00 1.876118e+00 2.164972e+00 2.248625e+00 2.048536e+00 1.989591e+00 2.048640e+00 1.909454e+00 1.673580e+00 1.449044e+00 1.286456e+00 1.162352e+00 1.061918e+00 9.751863e-01 8.985305e-01 8.298741e-01 7.697378e-01 7.189458e-01 6.804786e-01 6.556301e-01 6.475924e-01 6.556309e-01 6.805203e-01 7.189352e-01 7.698562e-01 8.298160e-01 8.987367e-01 9.750816e-01 1.062147e+00 1.162308e+00 1.286589e+00 1.449091e+00 1.673686e+00 1.909609e+00 2.048856e+00 1.989835e+00 2.049163e+00 2.250221e+00 2.163793e+00 1.878024e+00 1.815448e+00 1.942573e+00 1.812250e+00 1.615442e+00 1.419397e+00 1.246148e+00 1.098273e+00 9.737317e-01 8.723392e-01 7.927167e-01 7.351389e-01 7.002467e-01 
5.980083e-01 6.117926e-01 6.526202e-01 7.182991e-01 8.083837e-01 9.198951e-01 1.057483e+00 1.215107e+00 1.406850e+00 1.607530e+00 1.836327e+00 1.936587e+00 1.951425e+00 2.077181e+00 2.237795e+00 2.190209e+00 1.946719e+00 1.954393e+00 1.931022e+00 1.742787e+00 1.502601e+00 1.306892e+00 1.168101e+00 1.060169e+00 9.684335e-01 8.860205e-01 8.092602e-01 7.378303e-01 6.723904e-01 6.154055e-01 5.705343e-01 5.411199e-01 5.312167e-01 5.411113e-01 5.705838e-01 6.153699e-01 6.724951e-01 7.377525e-01 8.094101e-01 8.859224e-01 9.685870e-01 1.060128e+00 1.168205e+00 1.306937e+00 1.502683e+00 1.742937e+00 1.931153e+00 1.954616e+00 1.946959e+00 2.190252e+00 2.239041e+00 2.080078e+00 1.951950e+00 1.935886e+00 1.836075e+00 1.607267e+00 1.406810e+00 1.215040e+00 1.057498e+00 9.198844e-01 8.084074e-01 7.183023e-01 6.526359e-01 6.117951e-01 
4.951594e-01 5.118082e-01 5.608589e-01 6.371742e-01 7.394782e-01 8.624993e-01 1.012738e+00 1.181221e+00 1.387868e+00 1.599260e+00 1.850759e+00 1.975097e+00 2.088380e+00 2.190549e+00 2.229113e+00 2.096872e+00 1.890963e+00 1.895860e+00 1.789897e+00 1.578979e+00 1.352236e+00 1.188597e+00 1.069762e+00 9.751693e-01 8.898884e-01 8.098963e-01 7.318111e-01 6.565055e-01 5.850359e-01 5.207339e-01 4.682495e-01 4.328640e-01 4.206205e-01 4.328519e-01 4.683166e-01 5.206990e-01 5.851589e-01 6.564512e-01 7.319661e-01 8.098414e-01 8.900300e-01 9.751521e-01 1.069846e+00 1.188622e+00 1.352260e+00 1.579016e+00 1.789816e+00 1.895790e+00 1.890336e+00 2.095792e+00 2.230024e+00 2.191589e+00 2.087496e+00 1.975136e+00 1.850923e+00 1.599451e+00 1.388037e+00 1.181332e+00 1.012833e+00 8.625553e-01 7.395297e-01 6.372020e-01 5.608835e-01 5.118172e-01 
3.815116e-01 4.030612e-01 4.642418e-01 5.550801e-01 6.712648e-01 8.074822e-01 9.687738e-01 1.150163e+00 1.366089e+00 1.597257e+00 1.859566e+00 2.053064e+00 2.198673e+00 2.250136e+00 2.195175e+00 2.016236e+00 1.870420e+00 1.819052e+00 1.651093e+00 1.432693e+00 1.232427e+00 1.096280e+00 9.937923e-01 9.092492e-01 8.287413e-01 7.502362e-01 6.700939e-01 5.902656e-01 5.112893e-01 4.373874e-01 3.736051e-01 3.284615e-01 3.119757e-01 3.284397e-01 3.736787e-01 4.373366e-01 5.114034e-01 5.902059e-01 6.702248e-01 7.501929e-01 8.288656e-01 9.092539e-01 9.938936e-01 1.096338e+00 1.232509e+00 1.432777e+00 1.651142e+00 1.819096e+00 1.870185e+00 2.015458e+00 2.194256e+00 2.249142e+00 2.197620e+00 2.052801e+00 1.859289e+00 1.597159e+00 1.365996e+00 1.150139e+00 9.687534e-01 8.074874e-01 6.712691e-01 5.550920e-01 4.642503e-01 4.030675e-01 
2.593172e-01 2.903119e-01 3.707146e-01 4.804876e-01 6.113982e-01 7.608494e-01 9.309058e-01 1.124671e+00 1.345491e+00 1.597669e+00 1.866099e+00 2.129051e+00 2.275636e+00 2.279403e+00 2.160518e+00 1.964883e+00 1.864272e+00 1.740473e+00 1.531875e+00 1.316626e+00 1.144718e+00 1.029469e+00 9.388666e-01 8.612628e-01 7.838514e-01 7.058237e-01 6.234846e-01 5.392023e-01 4.529625e-01 3.687355e-01 2.910046e-01 2.308610e-01 2.067992e-01 2.308343e-01 2.911003e-01 3.686870e-01 4.530862e-01 5.391536e-01 6.236092e-01 7.057890e-01 7.839534e-01 8.612560e-01 9.389278e-01 1.029487e+00 1.144735e+00 1.316645e+00 1.531836e+00 1.740472e+00 1.864113e+00 1.964644e+00 2.160041e+00 2.278959e+00 2.275785e+00 2.129775e+00 1.866349e+00 1.597911e+00 1.345546e+00 1.124773e+00 9.309360e-01 7.609135e-01 6.114263e-01 4.805333e-01 3.707374e-01 2.903339e-01 
1.311794e-01 1.853801e-01 2.957009e-01 4.259900e-01 5.694532e-01 7.293635e-01 9.050590e-01 1.107930e+00 1.330750e+00 1.598088e+00 1.870546e+00 2.175985e+00 2.309647e+00 2.274265e+00 2.127733e+00 1.939669e+00 1.860546e+00 1.681468e+00 1.450892e+00 1.241827e+00 1.092143e+00 9.894694e-01 9.065352e-01 8.328940e-01 7.573767e-01 6.794706e-01 5.954493e-01 5.078354e-01 4.157226e-01 3.222902e-01 2.292282e-01 1.454937e-01 1.028173e-01 1.454464e-01 2.293401e-01 3.222318e-01 4.158461e-01 5.077891e-01 5.955729e-01 6.794523e-01 7.574911e-01 8.329187e-01 9.066349e-01 9.895402e-01 1.092228e+00 1.241932e+00 1.450963e+00 1.681589e+00 1.860675e+00 1.939857e+00 2.127817e+00 2.275136e+00 2.310705e+00 2.176686e+00 1.870806e+00 1.598327e+00 1.330825e+00 1.108049e+00 9.050888e-01 7.294324e-01 5.694702e-01 4.260364e-01 2.957140e-01 1.854089e-01 
1.006588e-05 1.311552e-01 2.650187e-01 4.055430e-01 5.542691e-01 7.182226e-01 8.960057e-01 1.102225e+00 1.325809e+00 1.598637e+00 1.873125e+00 2.192196e+00 2.318871e+00 2.265571e+00 2.112299e+00 1.931865e+00 1.858452e+00 1.659290e+00 1.421489e+00 1.215737e+00 1.074042e+00 9.757697e-01 8.952589e-01 8.229553e-01 7.479711e-01 6.700246e-01 5.853658e-01 4.964825e-01 4.021956e-01 3.050075e-01 2.045831e-01 1.028472e-01 6.343138e-05 1.027874e-01 2.047103e-01 3.049513e-01 4.023208e-01 4.964357e-01 5.854803e-01 6.699958e-01 7.480614e-01 8.229526e-01 8.953145e-01 9.757940e-01 1.074061e+00 1.215789e+00 1.421488e+00 1.659391e+00 1.858571e+00 1.932166e+00 2.113426e+00 2.266193e+00 2.317521e+00 2.190840e+00 1.872200e+00 1.598270e+00 1.325546e+00 1.102180e+00 8.959407e-01 7.182537e-01 5.542653e-01 4.055895e-01 2.650344e-01 1.312036e-01 
1.311794e-01 1.853801e-01 2.957009e-01 4.259900e-01 5.694532e-01 7.293635e-01 9.050590e-01 1.107930e+00 1.330750e+00 1.598088e+00 1.870546e+00 2.175985e+00 2.309647e+00 2.274265e+00 2.127733e+00 1.939669e+00 1.860546e+00 1.681468e+00 1.450892e+00 1.241827e+00 1.092143e+00 9.894694e-01 9.065352e-01 8.328940e-01 7.573767e-01 6.794706e-01 5.954493e-01 5.078354e-01 4.157226e-01 3.222902e-01 2.292282e-01 1.454937e-01 1.028173e-01 1.454464e-01 2.293401e-01 3.222318e-01 4.158461e-01 5.077891e-01 5.955729e-01 6.794523e-01 7.574911e-01 8.329187e-01 9.066349e-01 9.895402e-01 1.092228e+00 1.241932e+00 1.450963e+00 1.681589e+00 1.860675e+00 1.939857e+00 2.127817e+00 2.275136e+00 2.310705e+00 2.176686e+00 1.870806e+00 1.598327e+00 1.330825e+00 1.108049e+00 9.050888e-01 7.294324e-01 5.694702e-01 4.260364e-01 2.957140e-01 1.854089e-01 
2.593172e-01 2.903119e-01 3.707146e-01 4.804876e-01 6.113982e-01 7.608494e-01 9.309058e-01 1.124671e+00 1.345491e+00 1.597669e+00 1.866099e+00 2.129051e+00 2.275636e+00 2.279403e+00 2.160518e+00 1.964883e+00 1.864272e+00 1.740473e+00 1.531875e+00 1.316626e+00 1.144718e+00 1.029469e+00 9.388666e-01 8.612628e-01 7.838514e-01 7.058237e-01 6.234846e-01 5.392023e-01 4.529625e-01 3.687355e-01 2.910046e-01 2.308610e-01 2.067992e-01 2.308343e-01 2.911003e-01 3.686870e-01 4.530862e-01 5.391536e-01 6.236092e-01 7.057890e-01 7.839534e-01 8.612560e-01 9.389278e-01 1.029487e+00 1.144735e+00 1.316645e+00 1.531836e+00 1.740472e+00 1.864113e+00 1.964644e+00 2.160041e+00 2.278959e+00 2.275785e+00 2.129775e+00 1.866349e+00 1.597911e+00 1.345546e+00 1.124773e+00 9.309360e-01 7.609135e-01 6.114263e-01 4.805333e-01 3.707374e-01 2.903339e-01 