# vtk DataFile Version 2.0
fMag
ASCII
DATASET UNSTRUCTURED_GRID

FIELD FieldData 1
TIME 1 1 double
1.90000000
POINTS 33 float
2.959280820228910e+00 2.494227743570193e+00 0.000000000000000e+00
2.952069572778568e+00 2.489556807506680e+00 0.000000000000000e+00
2.943491108643359e+00 2.492904305009724e+00 0.000000000000000e+00
2.940805953354628e+00 2.502202409786587e+00 0.000000000000000e+00
2.947977596826016e+00 2.509179208077201e+00 0.000000000000000e+00
2.956097152861902e+00 2.506957089219663e+00 0.000000000000000e+00
2.960240790079793e+00 2.498264509366920e+00 0.000000000000000e+00
2.997411017472973e+00 2.489814840494504e+00 0.000000000000000e+00
3.034651125016402e+00 2.480822121809656e+00 0.000000000000000e+00
3.071842012406811e+00 2.472004775364190e+00 0.000000000000000e+00
3.110289575027287e+00 2.461318245835119e+00 0.000000000000000e+00
3.147736902746678e+00 2.451624819436686e+00 0.000000000000000e+00
3.185792165901918e+00 2.441554390621102e+00 0.000000000000000e+00
3.223189386948142e+00 2.431585257317247e+00 0.000000000000000e+00
3.261055246437999e+00 2.421689795420316e+00 0.000000000000000e+00
3.298674790253772e+00 2.411627171298897e+00 0.000000000000000e+00
3.336416859732655e+00 2.401769324731572e+00 0.000000000000000e+00
3.374065650770053e+00 2.391701370503647e+00 0.000000000000000e+00
3.411844803270856e+00 2.381830107390928e+00 0.000000000000000e+00
3.449489230389265e+00 2.371767604740056e+00 0.000000000000000e+00
3.487242024467646e+00 2.361894357811543e+00 0.000000000000000e+00
3.524909605290915e+00 2.351838619629139e+00 0.000000000000000e+00
3.562661054445150e+00 2.341946920608218e+00 0.000000000000000e+00
3.600337494154531e+00 2.331907834974068e+00 0.000000000000000e+00
3.638097891466018e+00 2.321995949800981e+00 0.000000000000000e+00
3.675761715817272e+00 2.311973363354094e+00 0.000000000000000e+00
3.713555963189272e+00 2.302034678252412e+00 0.000000000000000e+00
3.751216394226753e+00 2.292036250654073e+00 0.000000000000000e+00
3.789006365575759e+00 2.282068779443959e+00 0.000000000000000e+00
3.826678100100845e+00 2.272093490033037e+00 0.000000000000000e+00
3.864484826630255e+00 2.262099734855393e+00 0.000000000000000e+00
3.902188434662216e+00 2.252127758048223e+00 0.000000000000000e+00
3.939963226391789e+00 2.242136116845353e+00 0.000000000000000e+00

POINT_DATA   33
SCALARS fMag double
LOOKUP_TABLE default

6.113495e+01 
6.261362e+00 
1.814160e+01 
2.750773e+01 
5.321104e+01 
6.702327e+01 
1.001310e+02 
1.402877e+01 
3.733650e+01 
6.621261e+01 
8.080704e+01 
7.259256e+01 
5.130474e+01 
2.778009e+01 
1.072937e+01 
2.513367e+00 
9.777686e-01 
1.929710e+00 
2.356237e+00 
1.948590e+00 
1.672333e+00 
1.047331e+00 
1.232638e+00 
1.419272e+00 
1.895070e+00 
3.339487e+00 
3.264277e+00 
2.858458e+00 
3.501335e+00 
3.966437e+00 
3.612218e+00 
2.171969e+00 
6.861031e-01 
