# vtk DataFile Version 2.0
fMag
ASCII
DATASET UNSTRUCTURED_GRID

FIELD FieldData 1
TIME 1 1 double
1.17500000
POINTS 33 float
2.959181959382650e+00 2.496961982603863e+00 0.000000000000000e+00
2.952833355537313e+00 2.490263324003826e+00 0.000000000000000e+00
2.944307149019868e+00 2.493121943570920e+00 0.000000000000000e+00
2.940655086326300e+00 2.502376705661379e+00 0.000000000000000e+00
2.947004206544996e+00 2.509246179643032e+00 0.000000000000000e+00
2.956349603428049e+00 2.508894064093457e+00 0.000000000000000e+00
2.960300118436612e+00 2.501377243699056e+00 0.000000000000000e+00
2.997807544648596e+00 2.509240433710954e+00 0.000000000000000e+00
3.035640261501129e+00 2.517452354134802e+00 0.000000000000000e+00
3.072711773634894e+00 2.525871034910045e+00 0.000000000000000e+00
3.110518532167377e+00 2.535043480903464e+00 0.000000000000000e+00
3.148158799092115e+00 2.544405011640380e+00 0.000000000000000e+00
3.186993000600042e+00 2.553695357987557e+00 0.000000000000000e+00
3.224824844124110e+00 2.562922512258111e+00 0.000000000000000e+00
3.262433527143994e+00 2.572119929657138e+00 0.000000000000000e+00
3.300768728235489e+00 2.581374062940077e+00 0.000000000000000e+00
3.338618957407741e+00 2.590605719123338e+00 0.000000000000000e+00
3.376585490037608e+00 2.599840428968466e+00 0.000000000000000e+00
3.414456893337436e+00 2.609012858842427e+00 0.000000000000000e+00
3.452486043068458e+00 2.618252546990599e+00 0.000000000000000e+00
3.490494445252185e+00 2.627518032762417e+00 0.000000000000000e+00
3.528532413262746e+00 2.636738187694323e+00 0.000000000000000e+00
3.566410450430874e+00 2.645945254482031e+00 0.000000000000000e+00
3.604326951868619e+00 2.655180905060299e+00 0.000000000000000e+00
3.642410229889818e+00 2.664430414069443e+00 0.000000000000000e+00
3.680364781087101e+00 2.673649451612394e+00 0.000000000000000e+00
3.718307996516448e+00 2.682883510734206e+00 0.000000000000000e+00
3.756145603213312e+00 2.692080981033019e+00 0.000000000000000e+00
3.794388716719550e+00 2.701351380841795e+00 0.000000000000000e+00
3.832211036569400e+00 2.710569860271238e+00 0.000000000000000e+00
3.870254192476691e+00 2.719794178188701e+00 0.000000000000000e+00
3.908066103661399e+00 2.728992429832182e+00 0.000000000000000e+00
3.946182939398751e+00 2.738257650409976e+00 0.000000000000000e+00

POINT_DATA   33
SCALARS fMag double
LOOKUP_TABLE default

4.516911e+01 
9.726228e+00 
3.300443e+01 
1.675392e+01 
4.994270e+00 
6.816315e+00 
1.739114e+01 
3.457951e+01 
3.744090e+01 
1.499670e+02 
1.897627e+02 
1.012489e+02 
2.529221e+01 
3.365007e+01 
4.020288e+01 
1.806998e+01 
3.348311e+00 
2.235499e+01 
1.542461e+01 
1.164998e+01 
1.413235e+01 
6.752828e+00 
1.097744e+01 
1.116123e+01 
4.293302e+00 
7.002860e+00 
9.661773e+00 
1.088863e+01 
1.337552e+01 
6.939607e+00 
5.970038e+00 
8.999723e+00 
4.751466e+00 
