# vtk DataFile Version 2.0
fMag
ASCII
DATASET UNSTRUCTURED_GRID

FIELD FieldData 1
TIME 1 1 double
0.30000000
POINTS 33 float
2.960002068291335e+00 2.495866540965023e+00 0.000000000000000e+00
2.952696135975129e+00 2.490122826183209e+00 0.000000000000000e+00
2.943765220337235e+00 2.493105674864167e+00 0.000000000000000e+00
2.941109942002721e+00 2.502098803663706e+00 0.000000000000000e+00
2.947266710963115e+00 2.509254179932038e+00 0.000000000000000e+00
2.956575235820280e+00 2.508314716368178e+00 0.000000000000000e+00
2.960863912021049e+00 2.500013945818988e+00 0.000000000000000e+00
2.999981249010203e+00 2.500013575995271e+00 0.000000000000000e+00
3.039065366985215e+00 2.500013418547764e+00 0.000000000000000e+00
3.078119381863040e+00 2.500013693048026e+00 0.000000000000000e+00
3.117184459772385e+00 2.500014124542950e+00 0.000000000000000e+00
3.156257822768636e+00 2.500014649734140e+00 0.000000000000000e+00
3.195325650218408e+00 2.500015124353721e+00 0.000000000000000e+00
3.234389455249743e+00 2.500015563182133e+00 0.000000000000000e+00
3.273455706514314e+00 2.500016022903725e+00 0.000000000000000e+00
3.312523615203321e+00 2.500016499092503e+00 0.000000000000000e+00
3.351590162188459e+00 2.500016966854783e+00 0.000000000000000e+00
3.390655672251427e+00 2.500017428447744e+00 0.000000000000000e+00
3.429721651508224e+00 2.500017891692471e+00 0.000000000000000e+00
3.468787941359938e+00 2.500018357408770e+00 0.000000000000000e+00
3.507853933092942e+00 2.500018823696689e+00 0.000000000000000e+00
3.546919505173910e+00 2.500019289846260e+00 0.000000000000000e+00
3.585984773855496e+00 2.500019754173747e+00 0.000000000000000e+00
3.625049976909002e+00 2.500020218003344e+00 0.000000000000000e+00
3.664115562838586e+00 2.500020683850922e+00 0.000000000000000e+00
3.703180959154727e+00 2.500021150549836e+00 0.000000000000000e+00
3.742245255411325e+00 2.500021615133035e+00 0.000000000000000e+00
3.781309330424326e+00 2.500022078848621e+00 0.000000000000000e+00
3.820374938717376e+00 2.500022544952707e+00 0.000000000000000e+00
3.859440346131823e+00 2.500023011496345e+00 0.000000000000000e+00
3.898502516954023e+00 2.500023474797583e+00 0.000000000000000e+00
3.937564847456009e+00 2.500023940718031e+00 0.000000000000000e+00
3.976633403854197e+00 2.500024405949917e+00 0.000000000000000e+00

POINT_DATA   33
SCALARS fMag double
LOOKUP_TABLE default

4.034790e+00 
4.143706e+00 
1.202153e+00 
2.644666e+00 
3.124648e+00 
7.316155e-01 
3.975755e+00 
3.699467e-01 
8.252135e-01 
4.257821e-01 
2.256551e-01 
1.390063e-01 
1.051879e-01 
6.152680e-02 
4.367678e-02 
3.410407e-02 
2.657437e-02 
1.171929e-02 
8.055842e-03 
7.536650e-03 
1.051113e-02 
7.708547e-03 
1.671463e-03 
9.653137e-03 
4.778496e-03 
2.754549e-02 
5.563685e-03 
3.833939e-02 
5.036573e-03 
8.093465e-02 
3.994513e-03 
1.556269e-01 
1.514214e-01 
