# vtk DataFile Version 2.0
fNorm
ASCII
DATASET UNSTRUCTURED_GRID

FIELD FieldData 1
TIME 1 1 double
1.85000000
POINTS 33 float
2.959310595600187e+00 2.494443007780731e+00 0.000000000000000e+00
2.952076551868434e+00 2.489647640213724e+00 0.000000000000000e+00
2.943574276881119e+00 2.492930381681707e+00 0.000000000000000e+00
2.940766462856992e+00 2.502186720102280e+00 0.000000000000000e+00
2.947865438325560e+00 2.509194020345701e+00 0.000000000000000e+00
2.956114105085944e+00 2.507150193187434e+00 0.000000000000000e+00
2.960294177866197e+00 2.498517079536852e+00 0.000000000000000e+00
2.997211142760061e+00 2.489580169378546e+00 0.000000000000000e+00
3.034324339991751e+00 2.480122917846238e+00 0.000000000000000e+00
3.071394224398889e+00 2.470728210467386e+00 0.000000000000000e+00
3.109922551408673e+00 2.459445750057973e+00 0.000000000000000e+00
3.147604893996803e+00 2.449063406821886e+00 0.000000000000000e+00
3.185889361164730e+00 2.438327498550438e+00 0.000000000000000e+00
3.223496717478973e+00 2.427708862052795e+00 0.000000000000000e+00
3.261546567469644e+00 2.417157923760210e+00 0.000000000000000e+00
3.299337464643404e+00 2.406447130018564e+00 0.000000000000000e+00
3.337299169346484e+00 2.395935537229072e+00 0.000000000000000e+00
3.375082846432761e+00 2.385224795922850e+00 0.000000000000000e+00
3.413037820699079e+00 2.374711896826558e+00 0.000000000000000e+00
3.450826864464823e+00 2.364016984568027e+00 0.000000000000000e+00
3.488688462146651e+00 2.353507199804028e+00 0.000000000000000e+00
3.526472946584546e+00 2.342840070601303e+00 0.000000000000000e+00
3.564335804886314e+00 2.332313069254994e+00 0.000000000000000e+00
3.602092944196036e+00 2.321664725496347e+00 0.000000000000000e+00
3.639909488806019e+00 2.311148709691355e+00 0.000000000000000e+00
3.677622937278964e+00 2.300521261696065e+00 0.000000000000000e+00
3.715423539525573e+00 2.289993202967691e+00 0.000000000000000e+00
3.753120436727265e+00 2.279404407089380e+00 0.000000000000000e+00
3.790844082347840e+00 2.268863483918470e+00 0.000000000000000e+00
3.828533107395649e+00 2.258308142733230e+00 0.000000000000000e+00
3.866231922355461e+00 2.247761296018697e+00 0.000000000000000e+00
3.903865544847598e+00 2.237229325037657e+00 0.000000000000000e+00
3.941518727918051e+00 2.226696606284490e+00 0.000000000000000e+00

POINT_DATA   33
SCALARS fNorm double
LOOKUP_TABLE default

5.313451e+01 
2.428718e+00 
1.781513e+01 
2.658389e+01 
9.401184e+00 
5.947917e+01 
9.235191e+01 
1.814553e+01 
4.427488e+01 
7.896612e+01 
8.823358e+01 
6.819048e+01 
4.230129e+01 
2.204734e+01 
9.085584e+00 
2.992703e+00 
2.232057e+00 
3.510978e+00 
2.745832e+00 
5.104159e-03 
1.958273e+00 
2.605272e+00 
1.618986e+00 
8.726013e-01 
3.462511e+00 
3.954631e+00 
1.454477e+00 
2.377445e+00 
3.979818e+00 
2.997720e+00 
1.137136e+00 
1.382626e-01 
3.243299e-01 
