# vtk DataFile Version 2.0
fNorm
ASCII
DATASET UNSTRUCTURED_GRID

FIELD FieldData 1
TIME 1 1 double
0.70000000
POINTS 33 float
2.959948279061198e+00 2.495764935107324e+00 0.000000000000000e+00
2.952720346441337e+00 2.490066444547740e+00 0.000000000000000e+00
2.943823697857372e+00 2.493146006343124e+00 0.000000000000000e+00
2.941055904530952e+00 2.502093233836106e+00 0.000000000000000e+00
2.947355211921271e+00 2.509210292022201e+00 0.000000000000000e+00
2.956607430479496e+00 2.508312604401012e+00 0.000000000000000e+00
2.960789166866426e+00 2.499970105738631e+00 0.000000000000000e+00
2.999963804685619e+00 2.499688123426606e+00 0.000000000000000e+00
3.039066125084838e+00 2.499393045008447e+00 0.000000000000000e+00
3.078103515118725e+00 2.499089583066155e+00 0.000000000000000e+00
3.117166364416692e+00 2.498770073761823e+00 0.000000000000000e+00
3.156247271490643e+00 2.498440131996148e+00 0.000000000000000e+00
3.195315008297260e+00 2.498116273241540e+00 0.000000000000000e+00
3.234374208319784e+00 2.497796626446402e+00 0.000000000000000e+00
3.273439504951663e+00 2.497474203080580e+00 0.000000000000000e+00
3.312508920581279e+00 2.497149649023834e+00 0.000000000000000e+00
3.351574452218083e+00 2.496826583287145e+00 0.000000000000000e+00
3.390637739469631e+00 2.496504406987569e+00 0.000000000000000e+00
3.429703388178868e+00 2.496181679053891e+00 0.000000000000000e+00
3.468770205183434e+00 2.495858428349163e+00 0.000000000000000e+00
3.507835201714065e+00 2.495535509952660e+00 0.000000000000000e+00
3.546899019518220e+00 2.495212780481725e+00 0.000000000000000e+00
3.585963915224017e+00 2.494890001217247e+00 0.000000000000000e+00
3.625029214301118e+00 2.494567125750216e+00 0.000000000000000e+00
3.664093908568977e+00 2.494244233513532e+00 0.000000000000000e+00
3.703157804694829e+00 2.493921374352667e+00 0.000000000000000e+00
3.742221524469325e+00 2.493598670853197e+00 0.000000000000000e+00
3.781285228079716e+00 2.493275979180374e+00 0.000000000000000e+00
3.820350076291411e+00 2.492952989917267e+00 0.000000000000000e+00
3.859414226283665e+00 2.492630064417352e+00 0.000000000000000e+00
3.898475397389897e+00 2.492307778950945e+00 0.000000000000000e+00
3.937536666768924e+00 2.491984717069698e+00 0.000000000000000e+00
3.976605045230989e+00 2.491661956283843e+00 0.000000000000000e+00

POINT_DATA   33
SCALARS fNorm double
LOOKUP_TABLE default

8.110916e+00 
3.483484e-01 
4.160566e+00 
4.699242e+00 
2.729740e+00 
1.393563e+00 
5.149864e+00 
3.256528e+00 
7.359969e-01 
7.243621e+00 
9.282852e+00 
1.773077e+00 
3.519963e+00 
1.038824e+00 
1.666288e+00 
5.152616e-01 
8.139617e-01 
2.150300e-01 
3.778664e-01 
9.298624e-02 
1.952421e-01 
3.097741e-03 
7.396185e-02 
3.171604e-02 
5.811798e-02 
1.070220e-01 
3.219977e-02 
1.526073e-01 
1.369459e-01 
1.585143e-01 
1.730010e-01 
1.456847e-02 
1.128187e-01 
