# vtk DataFile Version 2.0
fNorm
ASCII
DATASET UNSTRUCTURED_GRID

FIELD FieldData 1
TIME 1 1 double
0.55000000
POINTS 33 float
2.959970254675675e+00 2.495837187585926e+00 0.000000000000000e+00
2.952720863284347e+00 2.490100582306111e+00 0.000000000000000e+00
2.943807593594582e+00 2.493133648680752e+00 0.000000000000000e+00
2.941074021662118e+00 2.502093431755243e+00 0.000000000000000e+00
2.947311434470810e+00 2.509230666243240e+00 0.000000000000000e+00
2.956593774611540e+00 2.508341495553205e+00 0.000000000000000e+00
2.960816983963102e+00 2.500024711941181e+00 0.000000000000000e+00
2.999971081162273e+00 2.500004450321072e+00 0.000000000000000e+00
3.039068160676458e+00 2.499983622174908e+00 0.000000000000000e+00
3.078113787449134e+00 2.499963127662832e+00 0.000000000000000e+00
3.117178618933616e+00 2.499941791567745e+00 0.000000000000000e+00
3.156257568338526e+00 2.499919890584088e+00 0.000000000000000e+00
3.195326403964744e+00 2.499898324815573e+00 0.000000000000000e+00
3.234388227837380e+00 2.499876993540091e+00 0.000000000000000e+00
3.273455093933281e+00 2.499855504932852e+00 0.000000000000000e+00
3.312525203621728e+00 2.499833894277036e+00 0.000000000000000e+00
3.351592265469471e+00 2.499812375934507e+00 0.000000000000000e+00
3.390657348187540e+00 2.499790904926481e+00 0.000000000000000e+00
3.429724150820632e+00 2.499769401344326e+00 0.000000000000000e+00
3.468791921806667e+00 2.499747866909133e+00 0.000000000000000e+00
3.507858409413017e+00 2.499726355319932e+00 0.000000000000000e+00
3.546923948044151e+00 2.499704854431008e+00 0.000000000000000e+00
3.585989940044454e+00 2.499683350886641e+00 0.000000000000000e+00
3.625056258746435e+00 2.499661840727039e+00 0.000000000000000e+00
3.664122358760730e+00 2.499640329927523e+00 0.000000000000000e+00
3.703187899111448e+00 2.499618821867626e+00 0.000000000000000e+00
3.742252704877328e+00 2.499597325967394e+00 0.000000000000000e+00
3.781317533753294e+00 2.499575830755176e+00 0.000000000000000e+00
3.820383713249488e+00 2.499554311184652e+00 0.000000000000000e+00
3.859449413778100e+00 2.499532798189516e+00 0.000000000000000e+00
3.898511658281300e+00 2.499511338553896e+00 0.000000000000000e+00
3.937574257065968e+00 2.499489812123373e+00 0.000000000000000e+00
3.976643870029449e+00 2.499468313598232e+00 0.000000000000000e+00

POINT_DATA   33
SCALARS fNorm double
LOOKUP_TABLE default

5.099780e+00 
6.827026e-03 
2.800860e+00 
3.488617e+00 
1.832918e+00 
1.369465e-01 
2.509113e+00 
3.825896e-01 
1.600411e-01 
3.382440e-01 
4.930386e-01 
1.015864e-01 
1.942314e-01 
6.066700e-02 
9.292246e-02 
3.274746e-02 
4.626179e-02 
1.442808e-02 
2.139420e-02 
7.366892e-03 
1.221891e-02 
3.574809e-04 
4.918286e-03 
1.689542e-03 
4.839203e-03 
8.127520e-03 
3.174799e-03 
1.224228e-02 
1.233442e-02 
1.298352e-02 
1.523269e-02 
9.373756e-04 
1.043906e-02 
