# vtk DataFile Version 2.0
fNorm
ASCII
DATASET UNSTRUCTURED_GRID

FIELD FieldData 1
TIME 1 1 double
0.10000000
POINTS 33 float
2.960033907985720e+00 2.495887363716562e+00 0.000000000000000e+00
2.952663324471969e+00 2.490142745653788e+00 0.000000000000000e+00
2.943732391128938e+00 2.493078617310022e+00 0.000000000000000e+00
2.941141719325211e+00 2.502104100716598e+00 0.000000000000000e+00
2.947231369872519e+00 2.509275989231165e+00 0.000000000000000e+00
2.956550956573203e+00 2.508286130139532e+00 0.000000000000000e+00
2.960908627441644e+00 2.500001721656553e+00 0.000000000000000e+00
2.999992354127218e+00 2.500001734933480e+00 0.000000000000000e+00
3.039063494202506e+00 2.500001799632267e+00 0.000000000000000e+00
3.078123504273659e+00 2.500001878694484e+00 0.000000000000000e+00
3.117187847983785e+00 2.500001995341480e+00 0.000000000000000e+00
3.156255483426905e+00 2.500002137450257e+00 0.000000000000000e+00
3.195321104823256e+00 2.500002265562829e+00 0.000000000000000e+00
3.234385163272123e+00 2.500002383428074e+00 0.000000000000000e+00
3.273449928453740e+00 2.500002507265495e+00 0.000000000000000e+00
3.312515210484172e+00 2.500002635775066e+00 0.000000000000000e+00
3.351580144335844e+00 2.500002762043144e+00 0.000000000000000e+00
3.390644718454785e+00 2.500002886468959e+00 0.000000000000000e+00
3.429709223580653e+00 2.500003011422451e+00 0.000000000000000e+00
3.468773717375817e+00 2.500003137054699e+00 0.000000000000000e+00
3.507838283497355e+00 2.500003262922553e+00 0.000000000000000e+00
3.546902734497602e+00 2.500003388751987e+00 0.000000000000000e+00
3.585966812442887e+00 2.500003514094835e+00 0.000000000000000e+00
3.625030735976071e+00 2.500003639287703e+00 0.000000000000000e+00
3.664095010421119e+00 2.500003765047881e+00 0.000000000000000e+00
3.703159255161039e+00 2.500003891072372e+00 0.000000000000000e+00
3.742222783483538e+00 2.500004016591194e+00 0.000000000000000e+00
3.781286108431608e+00 2.500004141874645e+00 0.000000000000000e+00
3.820350317074373e+00 2.500004267640980e+00 0.000000000000000e+00
3.859414462627732e+00 2.500004393602756e+00 0.000000000000000e+00
3.898476844529907e+00 2.500004519087882e+00 0.000000000000000e+00
3.937539250730103e+00 2.500004644726303e+00 0.000000000000000e+00
3.976604925835919e+00 2.500004770450408e+00 0.000000000000000e+00

POINT_DATA   33
SCALARS fNorm double
LOOKUP_TABLE default

5.723545e-01 
1.390224e-03 
1.224212e-01 
9.047195e-01 
5.011897e-02 
1.240655e-01 
2.105119e-01 
7.560423e-03 
9.036034e-03 
1.186788e-02 
2.272389e-02 
3.897714e-03 
8.698165e-03 
1.942354e-03 
3.987496e-03 
5.044031e-04 
1.646509e-03 
3.292831e-05 
6.467021e-04 
3.387307e-04 
9.985051e-05 
3.536945e-04 
6.682941e-05 
3.802956e-04 
1.803033e-04 
2.982390e-04 
1.504749e-04 
2.808651e-04 
1.220989e-04 
1.809598e-04 
2.730426e-05 
9.263731e-05 
3.569700e-04 
