# vtk DataFile Version 2.0
fNorm
ASCII
DATASET UNSTRUCTURED_GRID

FIELD FieldData 1
TIME 1 1 double
2.05000000
POINTS 33 float
2.959933644676898e+00 2.495337684960039e+00 0.000000000000000e+00
2.952704281167188e+00 2.489994726756243e+00 0.000000000000000e+00
2.943614299317793e+00 2.492769597586280e+00 0.000000000000000e+00
2.940993665740818e+00 2.502043395403454e+00 0.000000000000000e+00
2.947755601717095e+00 2.509288132193086e+00 0.000000000000000e+00
2.956308532854663e+00 2.507557807138979e+00 0.000000000000000e+00
2.960906267421037e+00 2.499434640614878e+00 0.000000000000000e+00
3.000024083541112e+00 2.500956839166974e+00 0.000000000000000e+00
3.039036011310759e+00 2.502229932260946e+00 0.000000000000000e+00
3.078034075878069e+00 2.504198165222391e+00 0.000000000000000e+00
3.118127109480480e+00 2.505343496538033e+00 0.000000000000000e+00
3.156952831995181e+00 2.507375588211481e+00 0.000000000000000e+00
3.196441938865121e+00 2.508945184004962e+00 0.000000000000000e+00
3.235369690910226e+00 2.510474343016203e+00 0.000000000000000e+00
3.274716618923561e+00 2.512222805920686e+00 0.000000000000000e+00
3.313627575060607e+00 2.513740098577895e+00 0.000000000000000e+00
3.352779446408580e+00 2.515520224985783e+00 0.000000000000000e+00
3.391954691191489e+00 2.517023901759796e+00 0.000000000000000e+00
3.431048527377600e+00 2.518757542512917e+00 0.000000000000000e+00
3.470137546320974e+00 2.520306631938463e+00 0.000000000000000e+00
3.509222762740792e+00 2.522037829886754e+00 0.000000000000000e+00
3.548353860064324e+00 2.523575223437847e+00 0.000000000000000e+00
3.587448048005668e+00 2.525292909917675e+00 0.000000000000000e+00
3.626512597180308e+00 2.526849201185727e+00 0.000000000000000e+00
3.665621617576617e+00 2.528555151034452e+00 0.000000000000000e+00
3.704692456543346e+00 2.530121212262695e+00 0.000000000000000e+00
3.743816278584406e+00 2.531801397267105e+00 0.000000000000000e+00
3.782808956613002e+00 2.533390669607597e+00 0.000000000000000e+00
3.821975762747267e+00 2.535056111210410e+00 0.000000000000000e+00
3.861014374605730e+00 2.536652624131150e+00 0.000000000000000e+00
3.900077406110911e+00 2.538298618625226e+00 0.000000000000000e+00
3.939101043497513e+00 2.539916039677177e+00 0.000000000000000e+00
3.978260908023675e+00 2.541544103926792e+00 0.000000000000000e+00

POINT_DATA   33
SCALARS fNorm double
LOOKUP_TABLE default

2.110241e+01 
1.549158e+00 
1.848377e+00 
1.835253e+01 
6.144853e+00 
3.546224e+01 
6.018613e+01 
3.815667e+01 
1.839057e+01 
1.475280e+02 
1.647707e+02 
1.121813e+01 
9.877077e+01 
5.350060e+01 
8.633479e+00 
3.716710e+00 
2.159725e+01 
2.080251e+00 
1.513722e+01 
4.213161e+00 
7.748163e+00 
3.293619e+00 
3.799746e+00 
9.109962e-03 
4.257061e+00 
1.092682e+00 
4.158192e+00 
2.385415e+00 
1.989162e+00 
3.047481e+00 
1.068414e+00 
3.919418e+00 
2.847264e+00 
