# vtk DataFile Version 2.0
fNorm
ASCII
DATASET UNSTRUCTURED_GRID

FIELD FieldData 1
TIME 1 1 double
2.40000000
POINTS 33 float
2.959499685151113e+00 2.495883863836180e+00 0.000000000000000e+00
2.952767042932005e+00 2.490293421777943e+00 0.000000000000000e+00
2.943898617446720e+00 2.493110884274476e+00 0.000000000000000e+00
2.940688036263210e+00 2.502129128864732e+00 0.000000000000000e+00
2.947488791945085e+00 2.509402439289474e+00 0.000000000000000e+00
2.956387231040607e+00 2.508264728698121e+00 0.000000000000000e+00
2.960760959473093e+00 2.500244834632782e+00 0.000000000000000e+00
2.998444704762174e+00 2.507399239557727e+00 0.000000000000000e+00
3.036494006615030e+00 2.514717761310351e+00 0.000000000000000e+00
3.073782405872279e+00 2.522251723543335e+00 0.000000000000000e+00
3.112721096613660e+00 2.530744771271737e+00 0.000000000000000e+00
3.149965656097574e+00 2.538941898442013e+00 0.000000000000000e+00
3.188849192380235e+00 2.547058254411357e+00 0.000000000000000e+00
3.226464727021955e+00 2.555378916946043e+00 0.000000000000000e+00
3.264917860138459e+00 2.563564704523797e+00 0.000000000000000e+00
3.302923042655790e+00 2.571735076265143e+00 0.000000000000000e+00
3.340992694708051e+00 2.580036305263222e+00 0.000000000000000e+00
3.379133613482563e+00 2.588089084718354e+00 0.000000000000000e+00
3.417327527616858e+00 2.596508453667627e+00 0.000000000000000e+00
3.455457187770858e+00 2.604537891195013e+00 0.000000000000000e+00
3.493652575612560e+00 2.612918321374171e+00 0.000000000000000e+00
3.531691668036816e+00 2.620991706852507e+00 0.000000000000000e+00
3.569909357715134e+00 2.629315349671292e+00 0.000000000000000e+00
3.607967013798222e+00 2.637450740204761e+00 0.000000000000000e+00
3.646154107619353e+00 2.645714745392757e+00 0.000000000000000e+00
3.684222688821024e+00 2.653905113033449e+00 0.000000000000000e+00
3.722435286168653e+00 2.662130239719092e+00 0.000000000000000e+00
3.760472471198925e+00 2.670348908266049e+00 0.000000000000000e+00
3.798757458671659e+00 2.678571924039782e+00 0.000000000000000e+00
3.836765833198839e+00 2.686786758267762e+00 0.000000000000000e+00
3.875076075865477e+00 2.695030802448584e+00 0.000000000000000e+00
3.913152924582438e+00 2.703242054188595e+00 0.000000000000000e+00
3.951374196488075e+00 2.711481861125987e+00 0.000000000000000e+00

POINT_DATA   33
SCALARS fNorm double
LOOKUP_TABLE default

1.077064e+01 
1.334112e+01 
8.733112e+00 
1.989571e+01 
4.026774e-02 
1.631038e+01 
3.958346e+00 
2.929464e+01 
5.107452e+01 
7.496784e+01 
9.144453e+01 
9.285974e+01 
6.506231e+01 
1.892449e+01 
1.035281e+01 
1.471774e+01 
1.640979e+01 
2.115566e+01 
1.829843e+01 
6.979304e+00 
4.014959e-01 
1.622727e+00 
7.972488e-01 
8.048251e-01 
1.811717e+00 
3.424764e+00 
4.425153e+00 
5.348253e+00 
4.551853e+00 
1.621678e+00 
1.823633e+00 
2.821073e+00 
1.678336e+00 
