# vtk DataFile Version 2.0
fNorm
ASCII
DATASET UNSTRUCTURED_GRID

FIELD FieldData 1
TIME 1 1 double
0.32500000
POINTS 33 float
2.959998709722926e+00 2.495863816065262e+00 0.000000000000000e+00
2.952699063118435e+00 2.490120433269476e+00 0.000000000000000e+00
2.943769509868282e+00 2.493108963004799e+00 0.000000000000000e+00
2.941106314917481e+00 2.502098141270568e+00 0.000000000000000e+00
2.947270920466396e+00 2.509251559848119e+00 0.000000000000000e+00
2.956577518038837e+00 2.508318216509064e+00 0.000000000000000e+00
2.960858939410967e+00 2.500015515158641e+00 0.000000000000000e+00
2.999980098052936e+00 2.500015017348774e+00 0.000000000000000e+00
3.039065630134591e+00 2.500014749096017e+00 0.000000000000000e+00
3.078118854609747e+00 2.500014964274495e+00 0.000000000000000e+00
3.117183958541705e+00 2.500015347976638e+00 0.000000000000000e+00
3.156257940614859e+00 2.500015830687597e+00 0.000000000000000e+00
3.195325941283191e+00 2.500016259713613e+00 0.000000000000000e+00
3.234389620404628e+00 2.500016651169985e+00 0.000000000000000e+00
3.273455988751945e+00 2.500017064449942e+00 0.000000000000000e+00
3.312524166788097e+00 2.500017495298903e+00 0.000000000000000e+00
3.351590830301407e+00 2.500017917034608e+00 0.000000000000000e+00
3.390656366359083e+00 2.500018332553152e+00 0.000000000000000e+00
3.429722475043771e+00 2.500018749501925e+00 0.000000000000000e+00
3.468788950532081e+00 2.500019169111587e+00 0.000000000000000e+00
3.507855048086587e+00 2.500019589361142e+00 0.000000000000000e+00
3.546920678002152e+00 2.500020009592224e+00 0.000000000000000e+00
3.585986054967049e+00 2.500020427617622e+00 0.000000000000000e+00
3.625051394695895e+00 2.500020845072223e+00 0.000000000000000e+00
3.664117080141610e+00 2.500021264895324e+00 0.000000000000000e+00
3.703182544543266e+00 2.500021685675025e+00 0.000000000000000e+00
3.742246913615430e+00 2.500022103779803e+00 0.000000000000000e+00
3.781311075465203e+00 2.500022520866541e+00 0.000000000000000e+00
3.820376788433428e+00 2.500022941208262e+00 0.000000000000000e+00
3.859442275914939e+00 2.500023361889834e+00 0.000000000000000e+00
3.898504444306233e+00 2.500023777715924e+00 0.000000000000000e+00
3.937566790419759e+00 2.500024198057386e+00 0.000000000000000e+00
3.976635548197707e+00 2.500024616862369e+00 0.000000000000000e+00

POINT_DATA   33
SCALARS fNorm double
LOOKUP_TABLE default

2.886255e+00 
1.185524e-01 
1.204261e+00 
2.124351e+00 
8.847718e-01 
3.220876e-01 
1.301213e+00 
8.770369e-02 
4.795003e-02 
9.348221e-02 
9.541259e-02 
1.399703e-02 
3.262284e-02 
7.211606e-03 
1.459370e-02 
2.086893e-03 
6.125984e-03 
2.086268e-04 
2.258455e-03 
1.205048e-03 
4.785802e-04 
1.516767e-03 
2.922317e-04 
1.568911e-03 
5.017378e-04 
1.634883e-03 
4.363798e-04 
1.779191e-03 
2.647362e-04 
1.450822e-03 
8.026376e-04 
4.071023e-04 
1.845953e-04 
