# vtk DataFile Version 2.0
fNorm
ASCII
DATASET UNSTRUCTURED_GRID

FIELD FieldData 1
TIME 1 1 double
0.80000000
POINTS 33 float
2.959916522624624e+00 2.495980884052392e+00 0.000000000000000e+00
2.952761979168242e+00 2.490135336228567e+00 0.000000000000000e+00
2.943895494753172e+00 2.493179028763105e+00 0.000000000000000e+00
2.941013083373863e+00 2.502120766238284e+00 0.000000000000000e+00
2.947306207545055e+00 2.509233346780044e+00 0.000000000000000e+00
2.956614746110712e+00 2.508481778940148e+00 0.000000000000000e+00
2.960776704545048e+00 2.500236107923495e+00 0.000000000000000e+00
2.999947638690684e+00 2.500972927908178e+00 0.000000000000000e+00
3.039040408696559e+00 2.501750145076796e+00 0.000000000000000e+00
3.078059078631097e+00 2.502544778301874e+00 0.000000000000000e+00
3.117120496546064e+00 2.503396325158506e+00 0.000000000000000e+00
3.156191951027612e+00 2.504268031067141e+00 0.000000000000000e+00
3.195256184528024e+00 2.505120942523957e+00 0.000000000000000e+00
3.234310871964258e+00 2.505971131392234e+00 0.000000000000000e+00
3.273364296956764e+00 2.506822042385853e+00 0.000000000000000e+00
3.312428649145443e+00 2.507679491457033e+00 0.000000000000000e+00
3.351487615019675e+00 2.508535873962471e+00 0.000000000000000e+00
3.390544835042939e+00 2.509387486245035e+00 0.000000000000000e+00
3.429602423811009e+00 2.510239766605249e+00 0.000000000000000e+00
3.468662770945384e+00 2.511095403263019e+00 0.000000000000000e+00
3.507720605734902e+00 2.511949488253264e+00 0.000000000000000e+00
3.546778820658122e+00 2.512802664196048e+00 0.000000000000000e+00
3.585836341473003e+00 2.513655726363360e+00 0.000000000000000e+00
3.624894488838104e+00 2.514509140103043e+00 0.000000000000000e+00
3.663952486234118e+00 2.515362940921142e+00 0.000000000000000e+00
3.703010926656728e+00 2.516216834149138e+00 0.000000000000000e+00
3.742066415403447e+00 2.517069079097173e+00 0.000000000000000e+00
3.781123214474746e+00 2.517921033217183e+00 0.000000000000000e+00
3.820182572867374e+00 2.518775753583534e+00 0.000000000000000e+00
3.859241605021474e+00 2.519630266564371e+00 0.000000000000000e+00
3.898292327110666e+00 2.520478300921750e+00 0.000000000000000e+00
3.937346579263531e+00 2.521333960837802e+00 0.000000000000000e+00
3.976412067088273e+00 2.522186385424010e+00 0.000000000000000e+00

POINT_DATA   33
SCALARS fNorm double
LOOKUP_TABLE default

2.912020e+00 
1.705615e+00 
4.570767e+00 
4.976134e+00 
1.830318e+00 
3.116225e+00 
1.720583e+00 
7.107901e+00 
2.278292e+00 
1.764664e+01 
2.359423e+01 
6.057123e+00 
6.999446e+00 
1.628685e+00 
3.802164e+00 
9.188885e-02 
2.967173e+00 
2.118320e-02 
1.773306e+00 
1.688736e-01 
1.024919e+00 
2.119405e-01 
3.215958e-01 
3.923886e-01 
2.879940e-01 
1.012479e+00 
1.759067e-01 
1.523949e+00 
1.184516e+00 
1.566261e+00 
1.657011e+00 
2.152163e-01 
1.022318e+00 
