# vtk DataFile Version 2.0
fNorm
ASCII
DATASET UNSTRUCTURED_GRID

FIELD FieldData 1
TIME 1 1 double
1.15000000
POINTS 33 float
2.959719888570576e+00 2.497547333339001e+00 0.000000000000000e+00
2.953041160955448e+00 2.490847931986112e+00 0.000000000000000e+00
2.944255314233453e+00 2.492969554336511e+00 0.000000000000000e+00
2.940708177881560e+00 2.501742882404940e+00 0.000000000000000e+00
2.946855097483077e+00 2.509479818330062e+00 0.000000000000000e+00
2.956142949629757e+00 2.509623940352462e+00 0.000000000000000e+00
2.960623391044962e+00 2.501953887658015e+00 0.000000000000000e+00
2.999380929320675e+00 2.506012838569366e+00 0.000000000000000e+00
3.038109074357075e+00 2.510387753074245e+00 0.000000000000000e+00
3.076430935882765e+00 2.514944080641196e+00 0.000000000000000e+00
3.115530536561140e+00 2.519564292235531e+00 0.000000000000000e+00
3.154001836236680e+00 2.524587389262006e+00 0.000000000000000e+00
3.193379387945784e+00 2.529527571725400e+00 0.000000000000000e+00
3.232195424090664e+00 2.534274425903563e+00 0.000000000000000e+00
3.270770806094431e+00 2.539055231600829e+00 0.000000000000000e+00
3.309639353300003e+00 2.543960861079514e+00 0.000000000000000e+00
3.348370278063736e+00 2.548775502352701e+00 0.000000000000000e+00
3.387375524606065e+00 2.553631774238649e+00 0.000000000000000e+00
3.426077534039393e+00 2.558453999613755e+00 0.000000000000000e+00
3.464889793112082e+00 2.563278781032840e+00 0.000000000000000e+00
3.503713153870555e+00 2.568161428089295e+00 0.000000000000000e+00
3.542590601210379e+00 2.572984741515488e+00 0.000000000000000e+00
3.581334976011730e+00 2.577807979385060e+00 0.000000000000000e+00
3.620137190658234e+00 2.582655806328122e+00 0.000000000000000e+00
3.659015960265313e+00 2.587494354772611e+00 0.000000000000000e+00
3.697867958040765e+00 2.592361114161409e+00 0.000000000000000e+00
3.736654485532375e+00 2.597158819489237e+00 0.000000000000000e+00
3.775312683120751e+00 2.601977828628526e+00 0.000000000000000e+00
3.814370149710066e+00 2.606887502206288e+00 0.000000000000000e+00
3.853175451967560e+00 2.611701266506840e+00 0.000000000000000e+00
3.892003265816515e+00 2.616534809670396e+00 0.000000000000000e+00
3.930530606524405e+00 2.621353644346637e+00 0.000000000000000e+00
3.969808934117875e+00 2.626251431145200e+00 0.000000000000000e+00

POINT_DATA   33
SCALARS fNorm double
LOOKUP_TABLE default

4.006118e+01 
2.373442e+01 
4.347941e+00 
6.561666e+00 
6.288753e+00 
3.129874e+01 
2.861858e+01 
1.095549e+02 
3.662043e+01 
1.800107e+02 
2.207111e+02 
1.336723e+01 
1.178414e+02 
2.660170e+01 
5.056180e+01 
1.528206e+01 
1.613242e+01 
1.221995e+00 
1.076125e+01 
9.262601e+00 
1.989261e+01 
6.423614e+00 
8.692629e+00 
3.006269e+00 
4.818742e+00 
1.584899e+01 
1.631325e+01 
1.561890e+01 
2.302749e+01 
4.042057e+00 
1.261977e+01 
3.566110e+00 
5.580162e+00 
