# vtk DataFile Version 2.0
fNorm
ASCII
DATASET UNSTRUCTURED_GRID

FIELD FieldData 1
TIME 1 1 double
2.35000000
POINTS 33 float
2.959397887535732e+00 2.495979212845395e+00 0.000000000000000e+00
2.952710550674214e+00 2.490248238227930e+00 0.000000000000000e+00
2.943871613730820e+00 2.493026257806109e+00 0.000000000000000e+00
2.940701718037148e+00 2.502115094336302e+00 0.000000000000000e+00
2.947375340843154e+00 2.509361741083214e+00 0.000000000000000e+00
2.956237679874469e+00 2.508274073516537e+00 0.000000000000000e+00
2.960641906429632e+00 2.500364246923052e+00 0.000000000000000e+00
2.997312845537132e+00 2.509649778219098e+00 0.000000000000000e+00
3.034579344859231e+00 2.519189029834668e+00 0.000000000000000e+00
3.071067047315345e+00 2.529123758842817e+00 0.000000000000000e+00
3.109372433490607e+00 2.540236518835581e+00 0.000000000000000e+00
3.146567592495482e+00 2.551219277867741e+00 0.000000000000000e+00
3.185349976845155e+00 2.562138365788611e+00 0.000000000000000e+00
3.222769854261082e+00 2.573175797163034e+00 0.000000000000000e+00
3.260790784863319e+00 2.584047415896907e+00 0.000000000000000e+00
3.298578470763796e+00 2.594930523722828e+00 0.000000000000000e+00
3.336415575349330e+00 2.605986717666756e+00 0.000000000000000e+00
3.374310141601326e+00 2.616742223812851e+00 0.000000000000000e+00
3.412156913010302e+00 2.627863920584685e+00 0.000000000000000e+00
3.449933650778959e+00 2.638581057551217e+00 0.000000000000000e+00
3.487833318546342e+00 2.649682845636196e+00 0.000000000000000e+00
3.525489878180573e+00 2.660409353497306e+00 0.000000000000000e+00
3.563391786606411e+00 2.671455681413677e+00 0.000000000000000e+00
3.601026687275019e+00 2.682238822209317e+00 0.000000000000000e+00
3.638788697412956e+00 2.693163588744339e+00 0.000000000000000e+00
3.676489712832432e+00 2.704050800725207e+00 0.000000000000000e+00
3.714159206864689e+00 2.714875169630363e+00 0.000000000000000e+00
3.751774823578181e+00 2.725769803542066e+00 0.000000000000000e+00
3.789459922218796e+00 2.736595371104063e+00 0.000000000000000e+00
3.827100354782001e+00 2.747478607433136e+00 0.000000000000000e+00
3.864718465193020e+00 2.758303937651254e+00 0.000000000000000e+00
3.902239485728528e+00 2.769126235552444e+00 0.000000000000000e+00
3.939847576959375e+00 2.779962274014490e+00 0.000000000000000e+00

POINT_DATA   33
SCALARS fNorm double
LOOKUP_TABLE default

3.548806e+00 
1.179994e+01 
6.750034e+00 
1.519134e+01 
1.027180e+00 
1.968530e+01 
3.249398e+00 
2.511279e+01 
7.287597e+01 
1.336629e+02 
1.450535e+02 
1.023098e+02 
5.426882e+01 
2.097441e+01 
5.328889e+00 
2.413570e+01 
2.789107e+01 
1.900657e+01 
1.017142e+01 
4.325631e+00 
2.143074e+00 
3.189621e+00 
4.435863e+00 
2.097547e+00 
4.719210e+00 
1.091891e+01 
9.976308e+00 
4.812767e+00 
1.938843e+00 
3.872279e-01 
1.988862e+00 
2.610397e+00 
1.301003e+00 
