# vtk DataFile Version 2.0
fNorm
ASCII
DATASET UNSTRUCTURED_GRID

FIELD FieldData 1
TIME 1 1 double
2.30000000
POINTS 33 float
2.959560619640192e+00 2.495581535759753e+00 0.000000000000000e+00
2.952614333785538e+00 2.490048237128258e+00 0.000000000000000e+00
2.943682563272758e+00 2.492968775103919e+00 0.000000000000000e+00
2.940843993936709e+00 2.502184040144956e+00 0.000000000000000e+00
2.947557595285701e+00 2.509274649006128e+00 0.000000000000000e+00
2.956274773449673e+00 2.507823936415462e+00 0.000000000000000e+00
2.960775366063416e+00 2.499854691053170e+00 0.000000000000000e+00
2.997480916569995e+00 2.509072008899134e+00 0.000000000000000e+00
3.034648956260782e+00 2.518369068640645e+00 0.000000000000000e+00
3.071096421606402e+00 2.528270940173426e+00 0.000000000000000e+00
3.108694479790704e+00 2.538941191715420e+00 0.000000000000000e+00
3.145461686159955e+00 2.549704943112329e+00 0.000000000000000e+00
3.183870559937638e+00 2.560399764008082e+00 0.000000000000000e+00
3.220786487292191e+00 2.571108059290079e+00 0.000000000000000e+00
3.258257594862929e+00 2.581748941435125e+00 0.000000000000000e+00
3.295581231113756e+00 2.592312818737764e+00 0.000000000000000e+00
3.333104027527285e+00 2.603186584711603e+00 0.000000000000000e+00
3.370533524071493e+00 2.613666389512727e+00 0.000000000000000e+00
3.407996439163817e+00 2.624543625543883e+00 0.000000000000000e+00
3.445359696176800e+00 2.635025207359729e+00 0.000000000000000e+00
3.482923898499985e+00 2.645917785729700e+00 0.000000000000000e+00
3.520200610470460e+00 2.656376043643599e+00 0.000000000000000e+00
3.557841203308279e+00 2.667274211234516e+00 0.000000000000000e+00
3.595139802805479e+00 2.677810447572716e+00 0.000000000000000e+00
3.632710722372315e+00 2.688562394293850e+00 0.000000000000000e+00
3.670143192461215e+00 2.699283051229267e+00 0.000000000000000e+00
3.707574837756552e+00 2.709911230921832e+00 0.000000000000000e+00
3.745046564576346e+00 2.720640594183338e+00 0.000000000000000e+00
3.782480803194402e+00 2.731325234107366e+00 0.000000000000000e+00
3.820069139437238e+00 2.742048008363147e+00 0.000000000000000e+00
3.857676900508513e+00 2.752796997171444e+00 0.000000000000000e+00
3.894955900355340e+00 2.763438403938289e+00 0.000000000000000e+00
3.932658240385328e+00 2.774208903018057e+00 0.000000000000000e+00

POINT_DATA   33
SCALARS fNorm double
LOOKUP_TABLE default

1.311357e+01 
3.815477e+00 
4.580956e+00 
1.527284e+01 
5.737611e+00 
3.193032e+01 
2.375347e+01 
3.535742e+01 
9.087502e+01 
1.546796e+02 
1.556782e+02 
9.271028e+01 
3.730803e+01 
9.668121e+00 
1.184473e+01 
2.948738e+01 
2.844228e+01 
1.135511e+01 
2.059207e+00 
3.599984e+00 
4.482130e+00 
1.544655e+01 
1.726434e+01 
4.425987e+00 
1.706804e+01 
2.624904e+01 
1.434230e+01 
3.350984e+00 
8.591713e+00 
5.086884e+00 
9.289843e-01 
7.138900e-01 
8.163700e-01 
