# vtk DataFile Version 2.0
fNorm
ASCII
DATASET UNSTRUCTURED_GRID

FIELD FieldData 1
TIME 1 1 double
2.22500000
POINTS 33 float
2.959064852996778e+00 2.496036553418079e+00 0.000000000000000e+00
2.952766578448358e+00 2.489859363122590e+00 0.000000000000000e+00
2.944034167501372e+00 2.492845642710161e+00 0.000000000000000e+00
2.940631776531434e+00 2.502234091288792e+00 0.000000000000000e+00
2.947391432178538e+00 2.509117484342541e+00 0.000000000000000e+00
2.956217119144339e+00 2.508040136487959e+00 0.000000000000000e+00
2.960285716053674e+00 2.500476534928209e+00 0.000000000000000e+00
2.995894278572941e+00 2.511762309107300e+00 0.000000000000000e+00
3.032109131048834e+00 2.523251391288876e+00 0.000000000000000e+00
3.067414758362067e+00 2.535565219877024e+00 0.000000000000000e+00
3.104459274664274e+00 2.548840433021796e+00 0.000000000000000e+00
3.140970856565427e+00 2.562589602894022e+00 0.000000000000000e+00
3.179061376611929e+00 2.576152415441376e+00 0.000000000000000e+00
3.215844209904769e+00 2.589667843536892e+00 0.000000000000000e+00
3.252789514339483e+00 2.603218986091930e+00 0.000000000000000e+00
3.290029674956055e+00 2.616594442259881e+00 0.000000000000000e+00
3.326986851382875e+00 2.630290951221535e+00 0.000000000000000e+00
3.364117454457125e+00 2.643599691995267e+00 0.000000000000000e+00
3.401006801718751e+00 2.657236404981370e+00 0.000000000000000e+00
3.437966559499517e+00 2.670524847960510e+00 0.000000000000000e+00
3.475083235135792e+00 2.684195367913541e+00 0.000000000000000e+00
3.511928630823313e+00 2.697494303436712e+00 0.000000000000000e+00
3.548899644811512e+00 2.711050942930350e+00 0.000000000000000e+00
3.585753897781450e+00 2.724400077017691e+00 0.000000000000000e+00
3.622754469690074e+00 2.737936413509094e+00 0.000000000000000e+00
3.659487869650138e+00 2.751255714925172e+00 0.000000000000000e+00
3.696471114253770e+00 2.764769932372336e+00 0.000000000000000e+00
3.733123427123000e+00 2.778072771401388e+00 0.000000000000000e+00
3.770185523497890e+00 2.791589081733566e+00 0.000000000000000e+00
3.806696040791879e+00 2.804868186656603e+00 0.000000000000000e+00
3.843662817969482e+00 2.818321038716455e+00 0.000000000000000e+00
3.880316485653227e+00 2.831661994120144e+00 0.000000000000000e+00
3.917088977967916e+00 2.845039850403040e+00 0.000000000000000e+00

POINT_DATA   33
SCALARS fNorm double
LOOKUP_TABLE default

5.091668e+00 
8.407087e-01 
7.217614e+00 
1.418818e+01 
5.556686e+00 
3.464078e+01 
4.707494e+01 
3.932424e+00 
1.019977e+02 
2.368142e+02 
2.494683e+02 
1.343014e+02 
2.485173e+01 
3.242857e+01 
4.787235e+01 
3.507789e+01 
1.729977e+01 
3.119554e+00 
3.541562e-01 
3.123558e+00 
1.670420e+00 
3.465012e+00 
5.690477e+00 
3.495323e+00 
9.585988e-01 
6.219660e-01 
2.359330e+00 
1.997974e+00 
1.377358e+00 
3.872711e+00 
3.278588e+00 
1.281305e+00 
6.770991e-03 
