# vtk DataFile Version 2.0
fTan
ASCII
DATASET UNSTRUCTURED_GRID

FIELD FieldData 1
TIME 1 1 double
2.00000000
POINTS 33 float
2.959597944976673e+00 2.494237851241260e+00 0.000000000000000e+00
2.952225339339317e+00 2.489539756694566e+00 0.000000000000000e+00
2.943422756632312e+00 2.492844526195365e+00 0.000000000000000e+00
2.940978925911341e+00 2.502182260539031e+00 0.000000000000000e+00
2.948003334309357e+00 2.509150296008800e+00 0.000000000000000e+00
2.956269616487101e+00 2.506847437207988e+00 0.000000000000000e+00
2.960608442691429e+00 2.498247047654761e+00 0.000000000000000e+00
2.999081679819135e+00 2.493348366281145e+00 0.000000000000000e+00
3.037546734000643e+00 2.487951608388983e+00 0.000000000000000e+00
3.076152995624712e+00 2.482980670461976e+00 0.000000000000000e+00
3.115891463133213e+00 2.476523638780086e+00 0.000000000000000e+00
3.154511783544685e+00 2.471053707504067e+00 0.000000000000000e+00
3.193593084704136e+00 2.465156577080337e+00 0.000000000000000e+00
3.232123731595338e+00 2.459344724159894e+00 0.000000000000000e+00
3.271222117857699e+00 2.453629076296616e+00 0.000000000000000e+00
3.309883836835775e+00 2.447738056086668e+00 0.000000000000000e+00
3.348758448020708e+00 2.442066451383271e+00 0.000000000000000e+00
3.387528201898070e+00 2.436175070500701e+00 0.000000000000000e+00
3.426353594028528e+00 2.430492531954045e+00 0.000000000000000e+00
3.465124892379994e+00 2.424618198646610e+00 0.000000000000000e+00
3.503914788262993e+00 2.418933389889058e+00 0.000000000000000e+00
3.542661411237649e+00 2.413071037638195e+00 0.000000000000000e+00
3.581467855681481e+00 2.407376801205171e+00 0.000000000000000e+00
3.620186487866996e+00 2.401530511099689e+00 0.000000000000000e+00
3.658953667683215e+00 2.395831434543413e+00 0.000000000000000e+00
3.697634915882259e+00 2.390011985100899e+00 0.000000000000000e+00
3.736444724567281e+00 2.384283019710404e+00 0.000000000000000e+00
3.775065499467782e+00 2.378498529849661e+00 0.000000000000000e+00
3.813842726914390e+00 2.372758870875718e+00 0.000000000000000e+00
3.852455913211446e+00 2.366993603519197e+00 0.000000000000000e+00
3.891204390506491e+00 2.361244327718258e+00 0.000000000000000e+00
3.929820984928109e+00 2.355497100418334e+00 0.000000000000000e+00
3.968495058713713e+00 2.349750331251519e+00 0.000000000000000e+00

POINT_DATA   33
SCALARS fTan double
LOOKUP_TABLE default

9.078847e+00 
3.710846e+00 
2.712996e+00 
3.493987e+00 
4.668874e+01 
6.068377e+00 
7.981332e+00 
1.499988e+00 
1.084550e+01 
1.900279e+01 
2.188655e+01 
1.708962e+01 
1.312725e+01 
1.349699e+01 
1.022081e+01 
4.578916e+00 
1.571127e+00 
8.277258e-01 
4.278404e-01 
4.600758e-02 
2.145409e-01 
1.078274e+00 
1.376995e+00 
9.174385e-01 
1.398627e+00 
3.135823e+00 
4.188006e+00 
3.981440e+00 
3.680110e+00 
3.575446e+00 
2.975716e+00 
1.720856e+00 
5.890671e-01 
