# vtk DataFile Version 2.0
fTan
ASCII
DATASET UNSTRUCTURED_GRID

FIELD FieldData 1
TIME 1 1 double
1.07500000
POINTS 33 float
2.959384195852069e+00 2.494276807010500e+00 0.000000000000000e+00
2.952242181450136e+00 2.489286473581317e+00 0.000000000000000e+00
2.943711920291776e+00 2.493219279332860e+00 0.000000000000000e+00
2.940974085655289e+00 2.502462504719415e+00 0.000000000000000e+00
2.947829928608468e+00 2.508992674365518e+00 0.000000000000000e+00
2.956670957149639e+00 2.507132706004755e+00 0.000000000000000e+00
2.960351880941395e+00 2.498421788382346e+00 0.000000000000000e+00
2.998910627697339e+00 2.493135982504667e+00 0.000000000000000e+00
3.037515659565943e+00 2.487531277437419e+00 0.000000000000000e+00
3.075440940804031e+00 2.481798624273581e+00 0.000000000000000e+00
3.113879286367893e+00 2.475726442166912e+00 0.000000000000000e+00
3.152227194910928e+00 2.469459665271609e+00 0.000000000000000e+00
3.191208855893520e+00 2.463119246225792e+00 0.000000000000000e+00
3.229759223469850e+00 2.456997533160245e+00 0.000000000000000e+00
3.267906708020929e+00 2.450910475732048e+00 0.000000000000000e+00
3.306485242494208e+00 2.444667313720844e+00 0.000000000000000e+00
3.344902060246908e+00 2.438476592111815e+00 0.000000000000000e+00
3.383575919410446e+00 2.432269221343800e+00 0.000000000000000e+00
3.422056151297251e+00 2.426111358356710e+00 0.000000000000000e+00
3.460440424341566e+00 2.419939673109194e+00 0.000000000000000e+00
3.498926933479621e+00 2.413732783064882e+00 0.000000000000000e+00
3.537584538430350e+00 2.407519238301369e+00 0.000000000000000e+00
3.576058538782336e+00 2.401358065717782e+00 0.000000000000000e+00
3.614480591930718e+00 2.395192097721900e+00 0.000000000000000e+00
3.653025231348773e+00 2.388969396663213e+00 0.000000000000000e+00
3.691703352631416e+00 2.382748446362067e+00 0.000000000000000e+00
3.730126289796456e+00 2.376602805494300e+00 0.000000000000000e+00
3.768547692110617e+00 2.370445204031149e+00 0.000000000000000e+00
3.807238193045199e+00 2.364186843446644e+00 0.000000000000000e+00
3.845922475486963e+00 2.357966990980719e+00 0.000000000000000e+00
3.884383464382730e+00 2.351838555224321e+00 0.000000000000000e+00
3.922702711056304e+00 2.345646725337629e+00 0.000000000000000e+00
3.961612481592827e+00 2.339396012610336e+00 0.000000000000000e+00

POINT_DATA   33
SCALARS fTan double
LOOKUP_TABLE default

1.656205e+01 
4.532709e+00 
2.950356e-01 
1.230620e+01 
2.294740e+01 
1.086014e+01 
1.331346e+01 
4.589750e+00 
2.346616e+01 
1.080915e+01 
7.304476e-01 
1.602423e+01 
1.152986e+01 
1.000599e+01 
1.125667e+01 
4.208097e+00 
6.352853e+00 
5.021500e+00 
2.364183e+00 
2.613641e+00 
4.175507e+00 
4.812064e+00 
1.347769e+00 
3.172539e+00 
3.187857e+00 
6.681497e+00 
9.594402e-02 
6.943757e+00 
4.444592e-01 
5.995465e+00 
3.333115e+00 
1.473187e+01 
8.711106e+00 
