# vtk DataFile Version 2.0
fTan
ASCII
DATASET UNSTRUCTURED_GRID

FIELD FieldData 1
TIME 1 1 double
1.62500000
POINTS 33 float
2.959542085401575e+00 2.495676525218607e+00 0.000000000000000e+00
2.952494362522612e+00 2.490270997318496e+00 0.000000000000000e+00
2.943993290787998e+00 2.493028146724932e+00 0.000000000000000e+00
2.940660744722772e+00 2.502007902196888e+00 0.000000000000000e+00
2.947418079156779e+00 2.509385964412178e+00 0.000000000000000e+00
2.956315467818356e+00 2.508167710620855e+00 0.000000000000000e+00
2.960608277949179e+00 2.499840660825946e+00 0.000000000000000e+00
2.997326705494986e+00 2.490571483801109e+00 0.000000000000000e+00
3.034427706633057e+00 2.481108517366298e+00 0.000000000000000e+00
3.070926932180465e+00 2.471249668959677e+00 0.000000000000000e+00
3.108537697661339e+00 2.460272720036683e+00 0.000000000000000e+00
3.145432317681516e+00 2.449539389992577e+00 0.000000000000000e+00
3.183522634116151e+00 2.438705318057296e+00 0.000000000000000e+00
3.220557939476149e+00 2.427919986129134e+00 0.000000000000000e+00
3.258015857864495e+00 2.417182191122125e+00 0.000000000000000e+00
3.295264552841206e+00 2.406440811264797e+00 0.000000000000000e+00
3.332935781210523e+00 2.395588049373015e+00 0.000000000000000e+00
3.370176387788038e+00 2.384813871543519e+00 0.000000000000000e+00
3.407616355109061e+00 2.374098056465330e+00 0.000000000000000e+00
3.444868556797718e+00 2.363302996516542e+00 0.000000000000000e+00
3.482446113889838e+00 2.352505085430067e+00 0.000000000000000e+00
3.519651147159207e+00 2.341751610470391e+00 0.000000000000000e+00
3.557394243829046e+00 2.330921993999285e+00 0.000000000000000e+00
3.594573572662887e+00 2.320141812779831e+00 0.000000000000000e+00
3.632283305917825e+00 2.309306738677276e+00 0.000000000000000e+00
3.669333174147798e+00 2.298648105471407e+00 0.000000000000000e+00
3.707143842080687e+00 2.287676923992575e+00 0.000000000000000e+00
3.744316997345165e+00 2.277034735249653e+00 0.000000000000000e+00
3.782072293645570e+00 2.266093039123823e+00 0.000000000000000e+00
3.819312126034029e+00 2.255376093535479e+00 0.000000000000000e+00
3.857104175482639e+00 2.244469886126037e+00 0.000000000000000e+00
3.894269655751056e+00 2.233750788499312e+00 0.000000000000000e+00
3.931958727512770e+00 2.222877063078931e+00 0.000000000000000e+00

POINT_DATA   33
SCALARS fTan double
LOOKUP_TABLE default

1.779353e+01 
1.945193e+00 
1.917097e+01 
1.406844e+01 
2.834496e+01 
1.181790e+01 
1.858672e+01 
1.489005e+01 
2.603333e+01 
1.685653e+01 
1.496109e+01 
2.914952e+01 
2.561754e+01 
1.004211e+01 
4.941570e+00 
1.080606e+01 
1.110740e+01 
4.155529e+00 
4.105625e+00 
7.725326e+00 
9.436384e+00 
1.319469e+01 
1.412849e+01 
1.293834e+01 
1.732816e+01 
2.008000e+01 
1.791567e+01 
1.584160e+01 
1.415873e+01 
1.428940e+01 
1.668491e+01 
1.330429e+01 
4.460879e+00 
