# vtk DataFile Version 2.0
fTan
ASCII
DATASET UNSTRUCTURED_GRID

FIELD FieldData 1
TIME 1 1 double
2.07500000
POINTS 33 float
2.959682061209285e+00 2.495223548819083e+00 0.000000000000000e+00
2.952590430018403e+00 2.489788042389223e+00 0.000000000000000e+00
2.943714103292781e+00 2.492969962736819e+00 0.000000000000000e+00
2.941024330643733e+00 2.502409298432475e+00 0.000000000000000e+00
2.947849722343636e+00 2.509186970080649e+00 0.000000000000000e+00
2.956510143306031e+00 2.507373286795370e+00 0.000000000000000e+00
2.960812433201777e+00 2.499384907264751e+00 0.000000000000000e+00
2.999723581913985e+00 2.503335896684564e+00 0.000000000000000e+00
3.038515009344837e+00 2.507055626052273e+00 0.000000000000000e+00
3.077052562732626e+00 2.511511137975271e+00 0.000000000000000e+00
3.116597263796102e+00 2.515509651900777e+00 0.000000000000000e+00
3.155340378144191e+00 2.520257638242228e+00 0.000000000000000e+00
3.194796710107669e+00 2.524510537212620e+00 0.000000000000000e+00
3.233504572181617e+00 2.528813615551415e+00 0.000000000000000e+00
3.272586558838044e+00 2.533319693826587e+00 0.000000000000000e+00
3.311439726654500e+00 2.537512383576999e+00 0.000000000000000e+00
3.350401070851528e+00 2.542035813031358e+00 0.000000000000000e+00
3.389343105421496e+00 2.546273321930227e+00 0.000000000000000e+00
3.428296241173434e+00 2.550729276032103e+00 0.000000000000000e+00
3.467202838128316e+00 2.554994819258275e+00 0.000000000000000e+00
3.506078087879779e+00 2.559449074118645e+00 0.000000000000000e+00
3.545054909988786e+00 2.563712040046022e+00 0.000000000000000e+00
3.583967484494159e+00 2.568155282174528e+00 0.000000000000000e+00
3.622807893164574e+00 2.572417906898456e+00 0.000000000000000e+00
3.661759066070289e+00 2.576843196535718e+00 0.000000000000000e+00
3.700640297417605e+00 2.581136694817725e+00 0.000000000000000e+00
3.739538356522602e+00 2.585527306718362e+00 0.000000000000000e+00
3.778331802685246e+00 2.589811537020713e+00 0.000000000000000e+00
3.817343214165532e+00 2.594209168614853e+00 0.000000000000000e+00
3.856182222914728e+00 2.598538030279263e+00 0.000000000000000e+00
3.895002972046208e+00 2.602844768055145e+00 0.000000000000000e+00
3.933801493844717e+00 2.607192074794332e+00 0.000000000000000e+00
3.972780347096402e+00 2.611534701230587e+00 0.000000000000000e+00

POINT_DATA   33
SCALARS fTan double
LOOKUP_TABLE default

1.944885e+01 
8.670888e+00 
8.919299e+00 
1.111758e+01 
3.163632e+01 
6.924858e+00 
1.917920e+01 
8.695668e+00 
1.038479e+01 
1.872110e+01 
1.786899e+01 
2.009824e+01 
1.643083e+01 
9.653805e+00 
6.920481e+00 
3.673987e+00 
9.066350e-01 
1.213841e+00 
1.557455e+00 
2.174605e-01 
2.082962e+00 
9.442219e-01 
2.132438e+00 
3.383524e+00 
1.920283e+00 
8.388726e-01 
2.778475e+00 
5.888043e+00 
4.306449e+00 
3.655249e-01 
3.093005e-01 
4.628214e+00 
3.798824e+00 
