# vtk DataFile Version 2.0
fTan
ASCII
DATASET UNSTRUCTURED_GRID

FIELD FieldData 1
TIME 1 1 double
1.82500000
POINTS 33 float
2.959333617956611e+00 2.494691618862285e+00 0.000000000000000e+00
2.952127132478449e+00 2.489757970244778e+00 0.000000000000000e+00
2.943667680292987e+00 2.492917474769853e+00 0.000000000000000e+00
2.940707196208288e+00 2.502167684944617e+00 0.000000000000000e+00
2.947761880238095e+00 2.509227018436059e+00 0.000000000000000e+00
2.956147670822031e+00 2.507308376819885e+00 0.000000000000000e+00
2.960339168397669e+00 2.498776012163924e+00 0.000000000000000e+00
2.997074409023626e+00 2.489538202092378e+00 0.000000000000000e+00
3.034002305212812e+00 2.479834714444900e+00 0.000000000000000e+00
3.070867791817607e+00 2.470102440435757e+00 0.000000000000000e+00
3.108920396225844e+00 2.458575245329487e+00 0.000000000000000e+00
3.146338714412284e+00 2.447866952660810e+00 0.000000000000000e+00
3.184360031228599e+00 2.436805977954463e+00 0.000000000000000e+00
3.221653847486563e+00 2.425894277236834e+00 0.000000000000000e+00
3.259400811039968e+00 2.415031505755202e+00 0.000000000000000e+00
3.296870546869459e+00 2.404020498138274e+00 0.000000000000000e+00
3.334589597455511e+00 2.393183525573668e+00 0.000000000000000e+00
3.372068713173815e+00 2.382166411973093e+00 0.000000000000000e+00
3.409754826997114e+00 2.371334627984867e+00 0.000000000000000e+00
3.447284746115599e+00 2.360318610340540e+00 0.000000000000000e+00
3.484875077412331e+00 2.349492789436941e+00 0.000000000000000e+00
3.522418269550318e+00 2.338497518974547e+00 0.000000000000000e+00
3.560034698826239e+00 2.327644266100690e+00 0.000000000000000e+00
3.597534359398520e+00 2.316673350613087e+00 0.000000000000000e+00
3.635153981695188e+00 2.305816230993528e+00 0.000000000000000e+00
3.672684895261766e+00 2.294840518106423e+00 0.000000000000000e+00
3.710239626829970e+00 2.283983482660020e+00 0.000000000000000e+00
3.747757200574734e+00 2.273051709624264e+00 0.000000000000000e+00
3.785289937750281e+00 2.262157238197308e+00 0.000000000000000e+00
3.822851875701938e+00 2.251243028788369e+00 0.000000000000000e+00
3.860392504109842e+00 2.240334958689277e+00 0.000000000000000e+00
3.897859537368805e+00 2.229450170899545e+00 0.000000000000000e+00
3.935412565122352e+00 2.218540487160284e+00 0.000000000000000e+00

POINT_DATA   33
SCALARS fTan double
LOOKUP_TABLE default

1.530293e+01 
7.010031e+00 
1.501585e+01 
6.398939e+00 
4.294763e+01 
1.252014e+01 
1.222924e+01 
1.319108e+01 
2.197829e+01 
1.195847e+01 
8.953851e+00 
1.939359e+01 
1.840251e+01 
1.033276e+01 
5.730751e+00 
4.760873e+00 
4.455441e+00 
3.779827e+00 
2.318439e+00 
2.851008e-01 
2.020616e-01 
8.921072e-01 
1.886172e+00 
2.174380e+00 
1.187967e+00 
1.023446e-01 
2.045343e-01 
2.376793e-01 
9.509645e-01 
4.502499e-01 
1.818841e+00 
2.352973e+00 
9.603109e-01 
