# vtk DataFile Version 2.0
fTan
ASCII
DATASET UNSTRUCTURED_GRID

FIELD FieldData 1
TIME 1 1 double
0.82500000
POINTS 33 float
2.959887931471141e+00 2.495584587973631e+00 0.000000000000000e+00
2.952660905462075e+00 2.489960410598528e+00 0.000000000000000e+00
2.943839877128599e+00 2.493189749700647e+00 0.000000000000000e+00
2.941025960121515e+00 2.502156699694501e+00 0.000000000000000e+00
2.947418539677773e+00 2.509168875678632e+00 0.000000000000000e+00
2.956681906928458e+00 2.508190634068599e+00 0.000000000000000e+00
2.960760390471808e+00 2.499812262288576e+00 0.000000000000000e+00
2.999925506378411e+00 2.498738932283068e+00 0.000000000000000e+00
3.039009034147991e+00 2.497624232136762e+00 0.000000000000000e+00
3.078012192047632e+00 2.496458089488894e+00 0.000000000000000e+00
3.117064164344178e+00 2.495246486932835e+00 0.000000000000000e+00
3.156129162063558e+00 2.493986774138503e+00 0.000000000000000e+00
3.195189426932400e+00 2.492746504584566e+00 0.000000000000000e+00
3.234244524200593e+00 2.491531600120499e+00 0.000000000000000e+00
3.273288561664429e+00 2.490299436716382e+00 0.000000000000000e+00
3.312340752255919e+00 2.489060373626507e+00 0.000000000000000e+00
3.351393925540295e+00 2.487829114974452e+00 0.000000000000000e+00
3.390449413509836e+00 2.486599100769429e+00 0.000000000000000e+00
3.429500616643305e+00 2.485366085171998e+00 0.000000000000000e+00
3.468551327626542e+00 2.484133329551315e+00 0.000000000000000e+00
3.507602822180816e+00 2.482900786113539e+00 0.000000000000000e+00
3.546656817908046e+00 2.481668766877810e+00 0.000000000000000e+00
3.585708328725780e+00 2.480436086558573e+00 0.000000000000000e+00
3.624758001580707e+00 2.479203106365761e+00 0.000000000000000e+00
3.663810520317894e+00 2.477970483527582e+00 0.000000000000000e+00
3.702864405078571e+00 2.476738302941921e+00 0.000000000000000e+00
3.741913732175452e+00 2.475504998651530e+00 0.000000000000000e+00
3.780961770379046e+00 2.474271247841632e+00 0.000000000000000e+00
3.820016915631578e+00 2.473039217407684e+00 0.000000000000000e+00
3.859071763032086e+00 2.471807401150630e+00 0.000000000000000e+00
3.898114366641530e+00 2.470571104386230e+00 0.000000000000000e+00
3.937157095248830e+00 2.469340266652027e+00 0.000000000000000e+00
3.976229108436572e+00 2.468106022130655e+00 0.000000000000000e+00

POINT_DATA   33
SCALARS fTan double
LOOKUP_TABLE default

6.760901e+00 
5.207896e+00 
2.422759e-01 
1.155308e+00 
7.895208e+00 
3.933296e+00 
9.702787e+00 
1.059531e+00 
2.367718e+00 
1.380112e+00 
3.881762e-01 
1.269987e-01 
1.470503e-01 
2.600410e-01 
2.116899e-01 
1.675789e-02 
5.554115e-02 
1.055370e-01 
1.324673e-02 
1.769733e-02 
6.032579e-02 
6.332136e-02 
4.704102e-02 
6.877399e-02 
3.175458e-02 
1.153880e-01 
3.360862e-02 
1.736026e-01 
1.011520e-02 
3.054415e-01 
3.055649e-03 
7.310680e-01 
7.307849e-01 
