# vtk DataFile Version 2.0
fTan
ASCII
DATASET UNSTRUCTURED_GRID

FIELD FieldData 1
TIME 1 1 double
1.50000000
POINTS 33 float
2.959510121587849e+00 2.496216063718194e+00 0.000000000000000e+00
2.952848208627400e+00 2.490161371082382e+00 0.000000000000000e+00
2.944151736102656e+00 2.493251190788660e+00 0.000000000000000e+00
2.940571843188600e+00 2.502420117773388e+00 0.000000000000000e+00
2.947487837548460e+00 2.509254129626788e+00 0.000000000000000e+00
2.956861696331195e+00 2.508507554741482e+00 0.000000000000000e+00
2.960751288796386e+00 2.500585896703518e+00 0.000000000000000e+00
2.999618119866163e+00 2.503215419154572e+00 0.000000000000000e+00
3.038843863913602e+00 2.506040741682563e+00 0.000000000000000e+00
3.077508791646628e+00 2.508659273527443e+00 0.000000000000000e+00
3.117278205973673e+00 2.512034851598044e+00 0.000000000000000e+00
3.155713490914517e+00 2.514905614342350e+00 0.000000000000000e+00
3.195413447442821e+00 2.517927824756619e+00 0.000000000000000e+00
3.234148359910585e+00 2.521023812252555e+00 0.000000000000000e+00
3.273185916866612e+00 2.524020332954064e+00 0.000000000000000e+00
3.312379639892889e+00 2.527025300288597e+00 0.000000000000000e+00
3.351396466989784e+00 2.530092992684849e+00 0.000000000000000e+00
3.390520115535438e+00 2.533067120771374e+00 0.000000000000000e+00
3.429480425077470e+00 2.536145906048115e+00 0.000000000000000e+00
3.468522773930192e+00 2.539117924506102e+00 0.000000000000000e+00
3.507678437554583e+00 2.542168065604683e+00 0.000000000000000e+00
3.546670190326318e+00 2.545169356156306e+00 0.000000000000000e+00
3.585746408786787e+00 2.548205052620201e+00 0.000000000000000e+00
3.624661911113018e+00 2.551188133910040e+00 0.000000000000000e+00
3.663924370019447e+00 2.554221614622700e+00 0.000000000000000e+00
3.702787110817288e+00 2.557223528978832e+00 0.000000000000000e+00
3.741981715254080e+00 2.560240052176831e+00 0.000000000000000e+00
3.780751961664144e+00 2.563234889083980e+00 0.000000000000000e+00
3.820135884874182e+00 2.566240608903892e+00 0.000000000000000e+00
3.858944668899672e+00 2.569281537742016e+00 0.000000000000000e+00
3.898096232156203e+00 2.572234315553109e+00 0.000000000000000e+00
3.936936740509821e+00 2.575248770403154e+00 0.000000000000000e+00
3.976192736843949e+00 2.578259171775027e+00 0.000000000000000e+00

POINT_DATA   33
SCALARS fTan double
LOOKUP_TABLE default

2.241907e+01 
1.004645e+01 
1.849066e+01 
7.410836e+00 
1.352120e+01 
1.611945e+01 
3.472635e-02 
1.313419e+01 
2.244331e+01 
2.740249e+01 
3.169317e+01 
3.279927e+01 
2.389281e+01 
7.479514e+00 
4.017610e+00 
4.310526e+00 
2.477470e+00 
3.846091e+00 
1.930916e+00 
3.096013e+00 
4.100538e+00 
2.229506e+00 
4.047036e+00 
8.819400e+00 
9.951433e+00 
8.380042e+00 
1.055321e+01 
1.535685e+01 
1.424988e+01 
8.468902e+00 
7.491436e+00 
1.047914e+01 
7.617246e+00 
