# vtk DataFile Version 2.0
fX_Lag
ASCII
DATASET UNSTRUCTURED_GRID

FIELD FieldData 1
TIME 1 1 double
0.07500000
POINTS 33 float
2.960039976594528e+00 2.495888335404335e+00 0.000000000000000e+00
2.952654490088877e+00 2.490144299251941e+00 0.000000000000000e+00
2.943728359791607e+00 2.493076855305486e+00 0.000000000000000e+00
2.941148230345066e+00 2.502104084027152e+00 0.000000000000000e+00
2.947224120843511e+00 2.509277755036300e+00 0.000000000000000e+00
2.956545786906775e+00 2.508284700000352e+00 0.000000000000000e+00
2.960917393336091e+00 2.500000604758827e+00 0.000000000000000e+00
2.999994829852111e+00 2.500000657413221e+00 0.000000000000000e+00
3.039063407174955e+00 2.500000740706059e+00 0.000000000000000e+00
3.078124249514049e+00 2.500000809827004e+00 0.000000000000000e+00
3.117188389039425e+00 2.500000902585011e+00 0.000000000000000e+00
3.156255019770149e+00 2.500001012100216e+00 0.000000000000000e+00
3.195320152588227e+00 2.500001112246021e+00 0.000000000000000e+00
3.234384109380052e+00 2.500001205510925e+00 0.000000000000000e+00
3.273448567185638e+00 2.500001302862130e+00 0.000000000000000e+00
3.312513391229629e+00 2.500001403366670e+00 0.000000000000000e+00
3.351577962349095e+00 2.500001502328909e+00 0.000000000000000e+00
3.390642257395890e+00 2.500001600024486e+00 0.000000000000000e+00
3.429706470839204e+00 2.500001698131875e+00 0.000000000000000e+00
3.468770655719980e+00 2.500001796720112e+00 0.000000000000000e+00
3.507834907152717e+00 2.500001895434481e+00 0.000000000000000e+00
3.546899066940556e+00 2.500001994105024e+00 0.000000000000000e+00
3.585962911661373e+00 2.500002092484896e+00 0.000000000000000e+00
3.625026619914938e+00 2.500002190782502e+00 0.000000000000000e+00
3.664090612445336e+00 2.500002289436068e+00 0.000000000000000e+00
3.703154578482971e+00 2.500002388257998e+00 0.000000000000000e+00
3.742217958028506e+00 2.500002486770920e+00 0.000000000000000e+00
3.781281164163006e+00 2.500002585138407e+00 0.000000000000000e+00
3.820345079295012e+00 2.500002683792713e+00 0.000000000000000e+00
3.859408939629417e+00 2.500002782581303e+00 0.000000000000000e+00
3.898471375095149e+00 2.500002881118528e+00 0.000000000000000e+00
3.937533821653667e+00 2.500002979682228e+00 0.000000000000000e+00
3.976598891660514e+00 2.500003078340023e+00 0.000000000000000e+00

POINT_DATA   33
SCALARS fX_Lag double
LOOKUP_TABLE default

8.187132e-01 
-1.361513e+00 
1.111040e-01 
6.761255e-01 
-9.231829e-01 
-2.404208e-01 
1.063295e+00 
-9.219537e-02 
-2.159616e-01 
1.011492e-01 
6.226274e-02 
-3.743555e-02 
-2.938892e-02 
1.252757e-02 
9.158471e-03 
-6.318281e-03 
-6.895045e-03 
-2.030989e-03 
-7.058376e-04 
1.669329e-03 
-2.283436e-03 
-7.864872e-03 
-3.400752e-03 
7.114649e-03 
-6.528726e-04 
-1.464936e-02 
-4.323275e-03 
1.773408e-02 
-1.358435e-03 
-3.560608e-02 
2.888016e-04 
6.559038e-02 
-6.422847e-02 
