# vtk DataFile Version 2.0
fX_Lag
ASCII
DATASET UNSTRUCTURED_GRID

FIELD FieldData 1
TIME 1 1 double
2.10000000
POINTS 33 float
2.959329118114065e+00 2.493192499788366e+00 0.000000000000000e+00
2.951836565373957e+00 2.488875297140830e+00 0.000000000000000e+00
2.943210074898037e+00 2.492996716235265e+00 0.000000000000000e+00
2.940983917728872e+00 2.502581455835109e+00 0.000000000000000e+00
2.948220457521301e+00 2.508859073368221e+00 0.000000000000000e+00
2.956542696716836e+00 2.505965914468367e+00 0.000000000000000e+00
2.960596954266055e+00 2.497197534657827e+00 0.000000000000000e+00
2.999128294699962e+00 2.492845024307766e+00 0.000000000000000e+00
3.037725486996009e+00 2.487818183469443e+00 0.000000000000000e+00
3.076221131279301e+00 2.483247636192953e+00 0.000000000000000e+00
3.115304530157335e+00 2.477550631763841e+00 0.000000000000000e+00
3.153927297752621e+00 2.472470087168011e+00 0.000000000000000e+00
3.193032551224082e+00 2.466885288531511e+00 0.000000000000000e+00
3.231608367737504e+00 2.461658485233948e+00 0.000000000000000e+00
3.270534924248256e+00 2.456464260369845e+00 0.000000000000000e+00
3.308996858330355e+00 2.450977373193437e+00 0.000000000000000e+00
3.347911396771190e+00 2.445794243905575e+00 0.000000000000000e+00
3.386667604925658e+00 2.440360126273532e+00 0.000000000000000e+00
3.425531322533276e+00 2.435141254944697e+00 0.000000000000000e+00
3.464128692096045e+00 2.429753487812290e+00 0.000000000000000e+00
3.502863652061471e+00 2.424528140440520e+00 0.000000000000000e+00
3.541674158538098e+00 2.419107514412244e+00 0.000000000000000e+00
3.580469896288236e+00 2.413896440720580e+00 0.000000000000000e+00
3.619080116729973e+00 2.408527786576117e+00 0.000000000000000e+00
3.657913492297193e+00 2.403252084974720e+00 0.000000000000000e+00
3.696722953643946e+00 2.397874746118014e+00 0.000000000000000e+00
3.735470227016968e+00 2.392633241073868e+00 0.000000000000000e+00
3.774070893131325e+00 2.387313743356295e+00 0.000000000000000e+00
3.812996787538149e+00 2.381974750276677e+00 0.000000000000000e+00
3.851852030001222e+00 2.376639671028118e+00 0.000000000000000e+00
3.890487717871798e+00 2.371386088279847e+00 0.000000000000000e+00
3.929027718716355e+00 2.366079412906428e+00 0.000000000000000e+00
3.968168869648590e+00 2.360719821306619e+00 0.000000000000000e+00

POINT_DATA   33
SCALARS fX_Lag double
LOOKUP_TABLE default

1.787835e+01 
-1.907636e+00 
-8.851653e+00 
2.681576e+01 
-4.068380e+01 
3.925283e+01 
-2.726191e+01 
-7.089130e+00 
-6.330422e+00 
2.110799e+01 
-2.326371e+01 
1.323365e+01 
-4.442041e+00 
1.212399e+01 
-2.196297e+01 
1.445093e+01 
-6.777864e-01 
1.373396e+00 
-5.817806e+00 
1.629473e+00 
3.170720e+00 
9.466104e-01 
-5.213274e+00 
3.593952e+00 
1.361456e+00 
1.402269e-01 
-4.986615e+00 
5.930016e+00 
8.782771e-01 
-4.411778e+00 
-4.181406e+00 
1.469291e+01 
-9.813447e+00 
