# vtk DataFile Version 2.0
fX_Lag
ASCII
DATASET UNSTRUCTURED_GRID

FIELD FieldData 1
TIME 1 1 double
1.55000000
POINTS 33 float
2.959273949597649e+00 2.495108714862189e+00 0.000000000000000e+00
2.952651140611142e+00 2.490187892332138e+00 0.000000000000000e+00
2.943822012721133e+00 2.493180707465701e+00 0.000000000000000e+00
2.940602503989205e+00 2.502023161809447e+00 0.000000000000000e+00
2.947870490456497e+00 2.509493539576788e+00 0.000000000000000e+00
2.956193962494930e+00 2.507985181823764e+00 0.000000000000000e+00
2.960084719724561e+00 2.499181807269850e+00 0.000000000000000e+00
2.996419985380334e+00 2.489014180377480e+00 0.000000000000000e+00
3.033392506136331e+00 2.478517142139866e+00 0.000000000000000e+00
3.069305834968191e+00 2.467567282347174e+00 0.000000000000000e+00
3.106581692427873e+00 2.455588303809586e+00 0.000000000000000e+00
3.143348023089016e+00 2.443490000525494e+00 0.000000000000000e+00
3.181721719799739e+00 2.431266249817420e+00 0.000000000000000e+00
3.218836245821536e+00 2.419253932461273e+00 0.000000000000000e+00
3.256125201890328e+00 2.407196453677583e+00 0.000000000000000e+00
3.293570442621394e+00 2.395148612379985e+00 0.000000000000000e+00
3.330845632922571e+00 2.383145161538811e+00 0.000000000000000e+00
3.368169586621340e+00 2.371028013680612e+00 0.000000000000000e+00
3.405619068336599e+00 2.359048007466773e+00 0.000000000000000e+00
3.442790212144458e+00 2.346983680567662e+00 0.000000000000000e+00
3.480172573441456e+00 2.334947174910462e+00 0.000000000000000e+00
3.517463803608122e+00 2.322930464464670e+00 0.000000000000000e+00
3.554925577385607e+00 2.310849575163602e+00 0.000000000000000e+00
3.592045733685367e+00 2.298847089490404e+00 0.000000000000000e+00
3.629587857393338e+00 2.286780645933792e+00 0.000000000000000e+00
3.666598323205465e+00 2.274840469501507e+00 0.000000000000000e+00
3.704056135100883e+00 2.262732912121406e+00 0.000000000000000e+00
3.741093182937251e+00 2.250824315422394e+00 0.000000000000000e+00
3.778592179337962e+00 2.238732035816887e+00 0.000000000000000e+00
3.815631553981627e+00 2.226758346678849e+00 0.000000000000000e+00
3.853136844379518e+00 2.214700127840662e+00 0.000000000000000e+00
3.889978127127748e+00 2.202811678059950e+00 0.000000000000000e+00
3.927366718044260e+00 2.190762042368982e+00 0.000000000000000e+00

POINT_DATA   33
SCALARS fX_Lag double
LOOKUP_TABLE default

4.139006e+01 
-2.172337e+01 
-1.368615e+01 
3.286239e+01 
-5.745756e+01 
4.324022e+01 
-2.443309e+01 
2.268972e+01 
-6.296814e+01 
7.377710e+01 
-7.341332e+01 
6.677265e+01 
-2.836630e+01 
-5.955352e+00 
1.442861e+01 
-9.518418e+00 
-7.926956e-01 
9.264866e+00 
-1.232659e+01 
5.398219e+00 
3.946591e+00 
-9.321800e-01 
-8.221293e+00 
1.622558e+01 
-1.657468e+01 
8.765852e+00 
-4.929014e+00 
8.530657e+00 
-1.385082e+01 
1.636676e+01 
-1.684718e+01 
1.238053e+01 
-3.845766e+00 
