# vtk DataFile Version 2.0
fX_Lag
ASCII
DATASET UNSTRUCTURED_GRID

FIELD FieldData 1
TIME 1 1 double
0.67500000
POINTS 33 float
2.959951388880736e+00 2.495804901246388e+00 0.000000000000000e+00
2.952724878884094e+00 2.490081785200624e+00 0.000000000000000e+00
2.943827423983008e+00 2.493146992227460e+00 0.000000000000000e+00
2.941055348393367e+00 2.502096742126506e+00 0.000000000000000e+00
2.947339595410865e+00 2.509217657359951e+00 0.000000000000000e+00
2.956606794837320e+00 2.508337122685293e+00 0.000000000000000e+00
2.960795671354032e+00 2.500010977941961e+00 0.000000000000000e+00
2.999966572046420e+00 2.499889311492614e+00 0.000000000000000e+00
3.039068909824991e+00 2.499763143312190e+00 0.000000000000000e+00
3.078109867255952e+00 2.499633094883488e+00 0.000000000000000e+00
3.117174071338597e+00 2.499496962526218e+00 0.000000000000000e+00
3.156255149028938e+00 2.499356565658512e+00 0.000000000000000e+00
3.195323976009035e+00 2.499218521323857e+00 0.000000000000000e+00
3.234384352283348e+00 2.499082264550433e+00 0.000000000000000e+00
3.273450926568211e+00 2.498944798348697e+00 0.000000000000000e+00
3.312521548758323e+00 2.498806549923673e+00 0.000000000000000e+00
3.351588308756857e+00 2.498668808028048e+00 0.000000000000000e+00
3.390652678905591e+00 2.498531528151394e+00 0.000000000000000e+00
3.429719381588107e+00 2.498393911917196e+00 0.000000000000000e+00
3.468787380620778e+00 2.498256116278388e+00 0.000000000000000e+00
3.507853581297798e+00 2.498118452034827e+00 0.000000000000000e+00
3.546918592436647e+00 2.497980908753305e+00 0.000000000000000e+00
3.585984506329403e+00 2.497843243383402e+00 0.000000000000000e+00
3.625050948974076e+00 2.497705525060921e+00 0.000000000000000e+00
3.664116814959681e+00 2.497567884853166e+00 0.000000000000000e+00
3.703181938459620e+00 2.497430278171467e+00 0.000000000000000e+00
3.742246649335929e+00 2.497292558456521e+00 0.000000000000000e+00
3.781311506852028e+00 2.497154806716307e+00 0.000000000000000e+00
3.820377500596080e+00 2.497017221777481e+00 0.000000000000000e+00
3.859442875508490e+00 2.496879614497859e+00 0.000000000000000e+00
3.898504986968336e+00 2.496741676984277e+00 0.000000000000000e+00
3.937567487727686e+00 2.496604145974925e+00 0.000000000000000e+00
3.976636999690000e+00 2.496466400634983e+00 0.000000000000000e+00

POINT_DATA   33
SCALARS fX_Lag double
LOOKUP_TABLE default

5.489799e+00 
-6.111008e+00 
-2.481177e+00 
5.122717e+00 
-7.108218e+00 
-3.786117e-02 
6.537887e+00 
-8.912338e-01 
-1.713377e+00 
9.387932e-01 
4.095320e-01 
-3.040365e-01 
-2.064061e-01 
1.535890e-01 
9.888855e-02 
-9.587050e-02 
-5.863167e-02 
5.794489e-02 
3.184365e-02 
-4.475437e-02 
-2.948190e-02 
2.240148e-02 
1.308145e-02 
-1.427018e-02 
-1.852738e-02 
-1.054522e-02 
3.678381e-03 
2.871040e-02 
-1.569024e-02 
-8.187138e-02 
1.002521e-02 
1.753380e-01 
-1.815547e-01 
