# vtk DataFile Version 2.0
fX_Lag
ASCII
DATASET UNSTRUCTURED_GRID

FIELD FieldData 1
TIME 1 1 double
0.40000000
POINTS 33 float
2.959989052796473e+00 2.495855611104584e+00 0.000000000000000e+00
2.952707114117439e+00 2.490113614482480e+00 0.000000000000000e+00
2.943782357774150e+00 2.493118136743727e+00 0.000000000000000e+00
2.941095558915186e+00 2.502096283244902e+00 0.000000000000000e+00
2.947283790957038e+00 2.509244131083186e+00 0.000000000000000e+00
2.956583623124491e+00 2.508327778030479e+00 0.000000000000000e+00
2.960844457522634e+00 2.500019802910459e+00 0.000000000000000e+00
2.999976844670329e+00 2.500017505760188e+00 0.000000000000000e+00
3.039066444747562e+00 2.500015411205946e+00 0.000000000000000e+00
3.078117230864194e+00 2.500013913537210e+00 0.000000000000000e+00
3.117182341607824e+00 2.500012529070540e+00 0.000000000000000e+00
3.156258094857073e+00 2.500011205930618e+00 0.000000000000000e+00
3.195326510806153e+00 2.500009852256335e+00 0.000000000000000e+00
3.234389708183171e+00 2.500008477191559e+00 0.000000000000000e+00
3.273456351206538e+00 2.500007113357723e+00 0.000000000000000e+00
3.312525271380574e+00 2.500005757890728e+00 0.000000000000000e+00
3.351592193322345e+00 2.500004400486566e+00 0.000000000000000e+00
3.390657709995514e+00 2.500003039946427e+00 0.000000000000000e+00
3.429724144308690e+00 2.500001678781866e+00 0.000000000000000e+00
3.468791129404851e+00 2.500000317826630e+00 0.000000000000000e+00
3.507857467069335e+00 2.499998959356538e+00 0.000000000000000e+00
3.546923184697645e+00 2.499997601562208e+00 0.000000000000000e+00
3.585988840245170e+00 2.499996241649494e+00 0.000000000000000e+00
3.625054560539521e+00 2.499994880662830e+00 0.000000000000000e+00
3.664120478227536e+00 2.499993521771780e+00 0.000000000000000e+00
3.703186070946407e+00 2.499992164051191e+00 0.000000000000000e+00
3.742250631710657e+00 2.499990805171329e+00 0.000000000000000e+00
3.781315043147268e+00 2.499989445441168e+00 0.000000000000000e+00
3.820381002106839e+00 2.499988086032672e+00 0.000000000000000e+00
3.859446655699480e+00 2.499986727753924e+00 0.000000000000000e+00
3.898508835930850e+00 2.499985370873294e+00 0.000000000000000e+00
3.937571249914416e+00 2.499984010646210e+00 0.000000000000000e+00
3.976640466488251e+00 2.499982652342101e+00 0.000000000000000e+00

POINT_DATA   33
SCALARS fX_Lag double
LOOKUP_TABLE default

3.723089e+00 
-4.774112e+00 
-7.566524e-01 
2.975270e+00 
-4.061276e+00 
-6.434456e-01 
4.365087e+00 
-4.907487e-01 
-1.068886e+00 
5.523221e-01 
2.660501e-01 
-1.834204e-01 
-1.304560e-01 
8.613654e-02 
5.692725e-02 
-4.994891e-02 
-3.512627e-02 
2.294149e-02 
1.377196e-02 
-1.617895e-02 
-1.549479e-02 
-1.548699e-03 
1.623187e-03 
4.942085e-03 
-8.117164e-03 
-2.579321e-02 
-3.727125e-03 
3.869525e-02 
-7.626273e-03 
-8.682576e-02 
5.850750e-03 
1.700699e-01 
-1.679038e-01 
