# vtk DataFile Version 2.0
fX_Lag
ASCII
DATASET UNSTRUCTURED_GRID

FIELD FieldData 1
TIME 1 1 double
0.32500000
POINTS 33 float
2.959998709722926e+00 2.495863816065262e+00 0.000000000000000e+00
2.952699063118435e+00 2.490120433269476e+00 0.000000000000000e+00
2.943769509868282e+00 2.493108963004799e+00 0.000000000000000e+00
2.941106314917481e+00 2.502098141270568e+00 0.000000000000000e+00
2.947270920466396e+00 2.509251559848119e+00 0.000000000000000e+00
2.956577518038837e+00 2.508318216509064e+00 0.000000000000000e+00
2.960858939410967e+00 2.500015515158641e+00 0.000000000000000e+00
2.999980098052936e+00 2.500015017348774e+00 0.000000000000000e+00
3.039065630134591e+00 2.500014749096017e+00 0.000000000000000e+00
3.078118854609747e+00 2.500014964274495e+00 0.000000000000000e+00
3.117183958541705e+00 2.500015347976638e+00 0.000000000000000e+00
3.156257940614859e+00 2.500015830687597e+00 0.000000000000000e+00
3.195325941283191e+00 2.500016259713613e+00 0.000000000000000e+00
3.234389620404628e+00 2.500016651169985e+00 0.000000000000000e+00
3.273455988751945e+00 2.500017064449942e+00 0.000000000000000e+00
3.312524166788097e+00 2.500017495298903e+00 0.000000000000000e+00
3.351590830301407e+00 2.500017917034608e+00 0.000000000000000e+00
3.390656366359083e+00 2.500018332553152e+00 0.000000000000000e+00
3.429722475043771e+00 2.500018749501925e+00 0.000000000000000e+00
3.468788950532081e+00 2.500019169111587e+00 0.000000000000000e+00
3.507855048086587e+00 2.500019589361142e+00 0.000000000000000e+00
3.546920678002152e+00 2.500020009592224e+00 0.000000000000000e+00
3.585986054967049e+00 2.500020427617622e+00 0.000000000000000e+00
3.625051394695895e+00 2.500020845072223e+00 0.000000000000000e+00
3.664117080141610e+00 2.500021264895324e+00 0.000000000000000e+00
3.703182544543266e+00 2.500021685675025e+00 0.000000000000000e+00
3.742246913615430e+00 2.500022103779803e+00 0.000000000000000e+00
3.781311075465203e+00 2.500022520866541e+00 0.000000000000000e+00
3.820376788433428e+00 2.500022941208262e+00 0.000000000000000e+00
3.859442275914939e+00 2.500023361889834e+00 0.000000000000000e+00
3.898504444306233e+00 2.500023777715924e+00 0.000000000000000e+00
3.937566790419759e+00 2.500024198057386e+00 0.000000000000000e+00
3.976635548197707e+00 2.500024616862369e+00 0.000000000000000e+00

POINT_DATA   33
SCALARS fX_Lag double
LOOKUP_TABLE default

3.210022e+00 
-4.285046e+00 
-4.106547e-01 
2.475970e+00 
-3.330776e+00 
-7.134373e-01 
3.725656e+00 
-3.930815e-01 
-8.858817e-01 
4.505878e-01 
2.219378e-01 
-1.495251e-01 
-1.080330e-01 
6.722188e-02 
4.523511e-02 
-3.786299e-02 
-2.818847e-02 
1.430807e-02 
9.163184e-03 
-9.452233e-03 
-1.169620e-02 
-6.332044e-03 
-9.389813e-04 
8.636227e-03 
-5.533429e-03 
-2.739201e-02 
-5.189760e-03 
3.876860e-02 
-5.645975e-03 
-8.298523e-02 
4.432782e-03 
1.602775e-01 
-1.564503e-01 
