# vtk DataFile Version 2.0
fX_Lag
ASCII
DATASET UNSTRUCTURED_GRID

FIELD FieldData 1
TIME 1 1 double
2.37500000
POINTS 33 float
2.959403604179964e+00 2.495967167430317e+00 0.000000000000000e+00
2.952751517971624e+00 2.490263459626751e+00 0.000000000000000e+00
2.943895013465293e+00 2.493072042286486e+00 0.000000000000000e+00
2.940662732221926e+00 2.502135468455484e+00 0.000000000000000e+00
2.947424792320772e+00 2.509369032709632e+00 0.000000000000000e+00
2.956315922296567e+00 2.508287643084084e+00 0.000000000000000e+00
2.960659200282781e+00 2.500356093207646e+00 0.000000000000000e+00
2.997659918987908e+00 2.509049939742016e+00 0.000000000000000e+00
3.035151775076189e+00 2.517971483154013e+00 0.000000000000000e+00
3.071896288511191e+00 2.527212152510833e+00 0.000000000000000e+00
3.110453965071154e+00 2.537621960583289e+00 0.000000000000000e+00
3.147615317510622e+00 2.547774017862874e+00 0.000000000000000e+00
3.186442110587509e+00 2.557888841590613e+00 0.000000000000000e+00
3.223887935123389e+00 2.568145362036741e+00 0.000000000000000e+00
3.262044175657303e+00 2.578238198769718e+00 0.000000000000000e+00
3.299904819610464e+00 2.588350457553537e+00 0.000000000000000e+00
3.337788810772704e+00 2.598606428203684e+00 0.000000000000000e+00
3.375766948278479e+00 2.608585412086970e+00 0.000000000000000e+00
3.413720870717907e+00 2.618932713216101e+00 0.000000000000000e+00
3.451594103223544e+00 2.628881136792522e+00 0.000000000000000e+00
3.489571927952462e+00 2.639187576320630e+00 0.000000000000000e+00
3.527362637038877e+00 2.649169858597510e+00 0.000000000000000e+00
3.565317312223927e+00 2.659416700941948e+00 0.000000000000000e+00
3.603081575938673e+00 2.669441306918178e+00 0.000000000000000e+00
3.640999500838076e+00 2.679617777809868e+00 0.000000000000000e+00
3.678797462455933e+00 2.689719426737921e+00 0.000000000000000e+00
3.716637846823506e+00 2.699809656878553e+00 0.000000000000000e+00
3.754385904617560e+00 2.709935806206847e+00 0.000000000000000e+00
3.792257550323066e+00 2.720019617308300e+00 0.000000000000000e+00
3.829992360751866e+00 2.730135631378047e+00 0.000000000000000e+00
3.867849736565186e+00 2.740231601164359e+00 0.000000000000000e+00
3.905522461353031e+00 2.750304909189686e+00 0.000000000000000e+00
3.943332135772581e+00 2.760404600629805e+00 0.000000000000000e+00

POINT_DATA   33
SCALARS fX_Lag double
LOOKUP_TABLE default

3.420238e+01 
-1.218485e+01 
-1.242841e+01 
1.959618e+01 
-2.525102e+01 
1.588262e+01 
-2.451333e+01 
2.234362e+01 
-4.742756e+01 
5.974852e+01 
-6.447994e+01 
6.328573e+01 
-4.648463e+01 
2.321257e+01 
-4.997994e+00 
-4.418158e+00 
6.874872e+00 
-4.170532e+00 
-5.131489e-01 
4.267507e+00 
-6.310675e+00 
6.036040e+00 
-4.785236e+00 
4.120993e+00 
-3.395300e+00 
3.029928e+00 
-3.723872e+00 
4.238326e+00 
-3.702133e+00 
3.514126e+00 
-3.706133e+00 
2.866788e+00 
-1.000439e+00 
