# vtk DataFile Version 2.0
fX_Lag
ASCII
DATASET UNSTRUCTURED_GRID

FIELD FieldData 1
TIME 1 1 double
1.87500000
POINTS 33 float
2.959284485556574e+00 2.494300301649885e+00 0.000000000000000e+00
2.952065834735397e+00 2.489587337400954e+00 0.000000000000000e+00
2.943521849525378e+00 2.492923321056150e+00 0.000000000000000e+00
2.940788369909029e+00 2.502199347590686e+00 0.000000000000000e+00
2.947938805632284e+00 2.509183303978571e+00 0.000000000000000e+00
2.956099329807117e+00 2.507036021798725e+00 0.000000000000000e+00
2.960250510489642e+00 2.498355609264021e+00 0.000000000000000e+00
2.997286719460694e+00 2.489621468066531e+00 0.000000000000000e+00
3.034464210650190e+00 2.480346380270383e+00 0.000000000000000e+00
3.071607888182351e+00 2.471192222875360e+00 0.000000000000000e+00
3.110191882233116e+00 2.460131852019494e+00 0.000000000000000e+00
3.147825252714639e+00 2.450026011965263e+00 0.000000000000000e+00
3.186083094885933e+00 2.439551460267170e+00 0.000000000000000e+00
3.223662578218711e+00 2.429187253226914e+00 0.000000000000000e+00
3.261692428321202e+00 2.418897378035538e+00 0.000000000000000e+00
3.299481888743356e+00 2.408438898062367e+00 0.000000000000000e+00
3.337394833064906e+00 2.398190646249041e+00 0.000000000000000e+00
3.375185768875812e+00 2.387732635771959e+00 0.000000000000000e+00
3.413120756852412e+00 2.377474772323737e+00 0.000000000000000e+00
3.450897155438191e+00 2.367033186359018e+00 0.000000000000000e+00
3.488768299841409e+00 2.356775652522964e+00 0.000000000000000e+00
3.526545196444840e+00 2.346355142415736e+00 0.000000000000000e+00
3.564406918654380e+00 2.336082851461929e+00 0.000000000000000e+00
3.602176152259561e+00 2.325679829182310e+00 0.000000000000000e+00
3.640000468262659e+00 2.315409661429074e+00 0.000000000000000e+00
3.677724589946624e+00 2.305028516589966e+00 0.000000000000000e+00
3.715564475494931e+00 2.294739921999921e+00 0.000000000000000e+00
3.753270910442775e+00 2.284391973875357e+00 0.000000000000000e+00
3.791040420912009e+00 2.274090920773211e+00 0.000000000000000e+00
3.828746948443458e+00 2.263773508926380e+00 0.000000000000000e+00
3.866507849762767e+00 2.253457811584869e+00 0.000000000000000e+00
3.904179271037044e+00 2.243160950684075e+00 0.000000000000000e+00
3.941893085134506e+00 2.232856339761016e+00 0.000000000000000e+00

POINT_DATA   33
SCALARS fX_Lag double
LOOKUP_TABLE default

2.976383e+01 
2.438193e+00 
-1.830735e+01 
2.747920e+01 
-5.137416e+01 
5.269105e+01 
-4.465441e+01 
1.427654e+01 
-3.144409e+01 
3.637405e+01 
-3.809650e+01 
3.796203e+01 
-2.842533e+01 
1.620828e+01 
-6.994779e+00 
2.266005e+00 
-1.685699e+00 
2.862427e+00 
-2.837167e+00 
1.416804e+00 
-7.628350e-01 
9.608731e-01 
-7.067724e-01 
6.012762e-01 
-1.905658e+00 
3.302071e+00 
-2.912363e+00 
1.127646e+00 
-2.596490e-01 
8.115787e-01 
-1.460915e+00 
1.217935e+00 
-4.919963e-01 
