# vtk DataFile Version 2.0
fY_Lag
ASCII
DATASET UNSTRUCTURED_GRID

FIELD FieldData 1
TIME 1 1 double
0.97500000
POINTS 33 float
2.959844165805027e+00 2.495419533915327e+00 0.000000000000000e+00
2.952763024216441e+00 2.490114182783724e+00 0.000000000000000e+00
2.943787482236433e+00 2.493249031363905e+00 0.000000000000000e+00
2.940891433503348e+00 2.502047603346483e+00 0.000000000000000e+00
2.947621471992726e+00 2.509301802883943e+00 0.000000000000000e+00
2.956564154760881e+00 2.508215289568808e+00 0.000000000000000e+00
2.960567505950753e+00 2.499596471769841e+00 0.000000000000000e+00
2.999138208748823e+00 2.494864763344126e+00 0.000000000000000e+00
3.037934942822263e+00 2.490027492030617e+00 0.000000000000000e+00
3.076284160826341e+00 2.485012866520693e+00 0.000000000000000e+00
3.114993148849206e+00 2.479525534401883e+00 0.000000000000000e+00
3.153577044739764e+00 2.474115518155153e+00 0.000000000000000e+00
3.192541488529416e+00 2.468714088793895e+00 0.000000000000000e+00
3.231219320907227e+00 2.463306206385509e+00 0.000000000000000e+00
3.269663553300370e+00 2.457927572103343e+00 0.000000000000000e+00
3.308545359956534e+00 2.452513462776428e+00 0.000000000000000e+00
3.347177351216276e+00 2.447126165422931e+00 0.000000000000000e+00
3.385869630867379e+00 2.441714705151869e+00 0.000000000000000e+00
3.424575643280613e+00 2.436320474014912e+00 0.000000000000000e+00
3.463260174944413e+00 2.430918904919800e+00 0.000000000000000e+00
3.501932275067921e+00 2.425524870974360e+00 0.000000000000000e+00
3.540659881929506e+00 2.420118598135673e+00 0.000000000000000e+00
3.579333028345832e+00 2.414720024915264e+00 0.000000000000000e+00
3.618006437877568e+00 2.409323246332147e+00 0.000000000000000e+00
3.656725631703635e+00 2.403923705682541e+00 0.000000000000000e+00
3.695445605197119e+00 2.398514290451579e+00 0.000000000000000e+00
3.734066569824403e+00 2.393124939641480e+00 0.000000000000000e+00
3.772749340964932e+00 2.387733812332723e+00 0.000000000000000e+00
3.811532324349504e+00 2.382312604720275e+00 0.000000000000000e+00
3.850180967219602e+00 2.376920923832407e+00 0.000000000000000e+00
3.888868090816813e+00 2.371526011387302e+00 0.000000000000000e+00
3.927539186626244e+00 2.366126344482070e+00 0.000000000000000e+00
3.966274991943822e+00 2.360720612950665e+00 0.000000000000000e+00

POINT_DATA   33
SCALARS fY_Lag double
LOOKUP_TABLE default

2.208473e+01 
-6.775235e+00 
-1.215038e+01 
1.206654e+01 
-8.310367e+00 
1.876456e+00 
-1.065003e+01 
1.181557e+01 
-3.842780e+01 
6.935183e+01 
-7.050295e+01 
3.970827e+01 
-9.527831e+00 
-7.538318e+00 
1.042208e+01 
-9.743599e-01 
-6.266516e+00 
3.657642e+00 
1.353534e+00 
-9.454914e-01 
-1.136277e+00 
-5.527446e-01 
2.223313e+00 
-3.125998e-01 
-2.842605e+00 
3.261310e+00 
9.667764e-01 
-4.704995e+00 
2.767108e+00 
2.297595e+00 
-2.575851e+00 
-5.030569e-01 
1.095527e+00 
