# vtk DataFile Version 2.0
fY_Lag
ASCII
DATASET UNSTRUCTURED_GRID

FIELD FieldData 1
TIME 1 1 double
1.77500000
POINTS 33 float
2.959224091008408e+00 2.495051680191712e+00 0.000000000000000e+00
2.952331364241778e+00 2.490032063563054e+00 0.000000000000000e+00
2.943791820315425e+00 2.492917860198905e+00 0.000000000000000e+00
2.940573262156912e+00 2.502047459705824e+00 0.000000000000000e+00
2.947733246229307e+00 2.509367265813636e+00 0.000000000000000e+00
2.956072451333516e+00 2.507602536285307e+00 0.000000000000000e+00
2.960127081472526e+00 2.499102385125631e+00 0.000000000000000e+00
2.996053803001919e+00 2.488303325459689e+00 0.000000000000000e+00
3.032127348212743e+00 2.477124259253840e+00 0.000000000000000e+00
3.067873779488849e+00 2.465713543041331e+00 0.000000000000000e+00
3.104870415004193e+00 2.452429031872982e+00 0.000000000000000e+00
3.141164655743820e+00 2.439914911741338e+00 0.000000000000000e+00
3.178318852622637e+00 2.426973404318088e+00 0.000000000000000e+00
3.214660206821974e+00 2.414294084112169e+00 0.000000000000000e+00
3.251485037780987e+00 2.401549512392207e+00 0.000000000000000e+00
3.288037175596169e+00 2.388721219040351e+00 0.000000000000000e+00
3.324785710270221e+00 2.376058999816400e+00 0.000000000000000e+00
3.361267558780098e+00 2.363247579190836e+00 0.000000000000000e+00
3.398066933682502e+00 2.350535616837043e+00 0.000000000000000e+00
3.434671463449599e+00 2.337707179782317e+00 0.000000000000000e+00
3.471418518792778e+00 2.325010735291350e+00 0.000000000000000e+00
3.508103109134395e+00 2.312141715156275e+00 0.000000000000000e+00
3.544838399358941e+00 2.299449187233153e+00 0.000000000000000e+00
3.581475720692249e+00 2.286616414055574e+00 0.000000000000000e+00
3.618256641329250e+00 2.273873716965114e+00 0.000000000000000e+00
3.655011646965832e+00 2.261024002507841e+00 0.000000000000000e+00
3.691750711043716e+00 2.248277615149657e+00 0.000000000000000e+00
3.728524349995819e+00 2.235434301363881e+00 0.000000000000000e+00
3.765291996204019e+00 2.222657695193879e+00 0.000000000000000e+00
3.802185526741539e+00 2.209790952111475e+00 0.000000000000000e+00
3.838914881676448e+00 2.197005196749078e+00 0.000000000000000e+00
3.875823710650885e+00 2.184147327362498e+00 0.000000000000000e+00
3.912667565831565e+00 2.171310218903738e+00 0.000000000000000e+00

POINT_DATA   33
SCALARS fY_Lag double
LOOKUP_TABLE default

3.240210e+01 
-1.303920e+01 
-3.315024e-01 
9.405154e+00 
-1.278433e+01 
2.612499e+01 
-5.130528e+01 
3.127728e+01 
-7.519296e+01 
1.291316e+02 
-1.233885e+02 
5.897616e+01 
-1.082497e+01 
-2.230781e+00 
-3.355341e+00 
1.244662e+01 
-7.976835e+00 
-3.347096e+00 
7.810040e+00 
-4.363247e+00 
-2.723426e+00 
6.387865e+00 
-2.297619e+00 
-2.622694e+00 
2.417752e+00 
9.697605e-02 
-1.218425e+00 
1.005298e+00 
-1.021171e+00 
7.194173e-01 
6.933871e-01 
-1.445733e+00 
7.900686e-01 
