# vtk DataFile Version 2.0
Comment goes here
ASCII

DATASET STRUCTURED_POINTS
FIELD FieldData 1
TIME 1 1 double
1.85000000
DIMENSIONS    64   64   1

ORIGIN    0.000   0.000   0.000
SPACING   0.015625 0.015625   1.000

POINT_DATA   4096
SCALARS Concentration double
LOOKUP_TABLE default

1.668435e-02 1.678819e-02 1.718783e-02 1.789734e-02 1.894046e-02 2.035057e-02 2.216927e-02 2.444622e-02 2.723603e-02 3.059608e-02 3.458132e-02 3.924018e-02 4.460798e-02 5.070119e-02 5.751294e-02 6.500716e-02 7.312019e-02 8.175637e-02 9.079833e-02 1.001038e-01 1.095230e-01 1.188947e-01 1.280655e-01 1.368825e-01 1.452087e-01 1.529114e-01 1.598745e-01 1.659910e-01 1.711684e-01 1.753246e-01 1.783907e-01 1.803106e-01 1.810435e-01 1.805644e-01 1.788915e-01 1.760600e-01 1.721210e-01 1.671411e-01 1.612000e-01 1.543922e-01 1.468229e-01 1.386114e-01 1.298866e-01 1.207883e-01 1.114640e-01 1.020678e-01 9.275624e-02 8.368040e-02 7.498142e-02 6.677986e-02 5.917471e-02 5.223441e-02 4.600119e-02 4.048666e-02 3.568066e-02 3.155092e-02 2.805348e-02 2.513413e-02 2.273743e-02 2.080784e-02 1.929566e-02 1.815723e-02 1.735802e-02 1.687229e-02 
1.688999e-02 1.699318e-02 1.739156e-02 1.809923e-02 1.914009e-02 2.054764e-02 2.236369e-02 2.463812e-02 2.742590e-02 3.078499e-02 3.477110e-02 3.943367e-02 4.480927e-02 5.091584e-02 5.774815e-02 6.527180e-02 7.342488e-02 8.211309e-02 9.122048e-02 1.006052e-01 1.101183e-01 1.195976e-01 1.288893e-01 1.378389e-01 1.463080e-01 1.541594e-01 1.612719e-01 1.675328e-01 1.728430e-01 1.771137e-01 1.802688e-01 1.822464e-01 1.830011e-01 1.825062e-01 1.807819e-01 1.778677e-01 1.738205e-01 1.687141e-01 1.626350e-01 1.556839e-01 1.479715e-01 1.396216e-01 1.307668e-01 1.215492e-01 1.121170e-01 1.026251e-01 9.323082e-02 8.408506e-02 7.532880e-02 6.708162e-02 5.944152e-02 5.247542e-02 4.622412e-02 4.069764e-02 3.588443e-02 3.175091e-02 2.825208e-02 2.533288e-02 2.293720e-02 2.100905e-02 1.949839e-02 1.836132e-02 1.756315e-02 1.707796e-02 
1.751119e-02 1.761236e-02 1.800693e-02 1.870908e-02 1.974303e-02 2.114271e-02 2.295049e-02 2.521680e-02 2.799784e-02 3.135318e-02 3.534078e-02 4.001297e-02 4.541004e-02 5.155425e-02 5.844525e-02 6.605373e-02 7.432284e-02 8.316286e-02 9.246161e-02 1.020798e-01 1.118694e-01 1.216675e-01 1.313175e-01 1.406607e-01 1.495521e-01 1.578425e-01 1.653960e-01 1.720833e-01 1.777856e-01 1.823943e-01 1.858123e-01 1.879600e-01 1.887789e-01 1.882377e-01 1.863618e-01 1.832028e-01 1.788362e-01 1.733560e-01 1.668693e-01 1.594956e-01 1.513611e-01 1.426030e-01 1.333640e-01 1.237931e-01 1.140415e-01 1.042675e-01 9.462959e-02 8.527899e-02 7.635525e-02 6.797552e-02 6.023415e-02 5.319386e-02 4.689085e-02 4.133060e-02 3.649729e-02 3.235360e-02 2.885138e-02 2.593312e-02 2.354085e-02 2.161722e-02 2.011121e-02 1.897821e-02 1.818303e-02 1.769934e-02 
1.856085e-02 1.865880e-02 1.904729e-02 1.974063e-02 2.076346e-02 2.215044e-02 2.394484e-02 2.619830e-02 2.896848e-02 3.231775e-02 3.630762e-02 4.099521e-02 4.642679e-02 5.263174e-02 5.961771e-02 6.736374e-02 7.582146e-02 8.490843e-02 9.451910e-02 1.045176e-01 1.147583e-01 1.250757e-01 1.353094e-01 1.452914e-01 1.548654e-01 1.638633e-01 1.721261e-01 1.794987e-01 1.858317e-01 1.909849e-01 1.948278e-01 1.972513e-01 1.981749e-01 1.975594e-01 1.954389e-01 1.918856e-01 1.870052e-01 1.809253e-01 1.737855e-01 1.657346e-01 1.569229e-01 1.475078e-01 1.376472e-01 1.275016e-01 1.172293e-01 1.069937e-01 9.695654e-02 8.726965e-02 7.807098e-02 6.947349e-02 6.156595e-02 5.440395e-02 4.801625e-02 4.240069e-02 3.753448e-02 3.337408e-02 2.986625e-02 2.694942e-02 2.456261e-02 2.264625e-02 2.114769e-02 2.002121e-02 1.923073e-02 1.874936e-02 
2.006009e-02 2.015365e-02 2.053401e-02 2.121562e-02 2.222356e-02 2.359341e-02 2.536967e-02 2.760561e-02 3.036112e-02 3.370133e-02 3.769301e-02 4.239955e-02 4.787532e-02 5.415927e-02 6.127005e-02 6.919816e-02 7.790691e-02 8.732408e-02 9.735296e-02 1.078630e-01 1.187109e-01 1.297285e-01 1.407490e-01 1.515921e-01 1.620852e-01 1.720354e-01 1.812533e-01 1.895504e-01 1.967362e-01 2.026288e-01 2.070510e-01 2.098520e-01 2.109196e-01 2.102032e-01 2.077491e-01 2.036585e-01 1.980810e-01 1.911912e-01 1.831733e-01 1.742150e-01 1.644970e-01 1.542025e-01 1.435082e-01 1.325895e-01 1.216143e-01 1.107549e-01 1.001773e-01 9.003531e-02 8.046478e-02 7.157347e-02 6.344232e-02 5.611720e-02 4.961647e-02 4.392747e-02 3.901782e-02 3.483553e-02 3.132047e-02 2.840570e-02 2.602615e-02 2.411927e-02 2.263036e-02 2.151231e-02 2.072785e-02 2.024928e-02 
2.203765e-02 2.212590e-02 2.249672e-02 2.316460e-02 2.415504e-02 2.550460e-02 2.725931e-02 2.947440e-02 3.221260e-02 3.554284e-02 3.953682e-02 4.426589e-02 4.979453e-02 5.617353e-02 6.343523e-02 7.158460e-02 8.059962e-02 9.042081e-02 1.009628e-01 1.121007e-01 1.236950e-01 1.355720e-01 1.475579e-01 1.594539e-01 1.710669e-01 1.821730e-01 1.925479e-01 2.019647e-01 2.101872e-01 2.169853e-01 2.221237e-01 2.253958e-01 2.266449e-01 2.258046e-01 2.229370e-01 2.181837e-01 2.117541e-01 2.038831e-01 1.948080e-01 1.847601e-01 1.739527e-01 1.625965e-01 1.508890e-01 1.390241e-01 1.271837e-01 1.155518e-01 1.043031e-01 9.359446e-02 8.356095e-02 7.430401e-02 6.589521e-02 5.836795e-02 5.172743e-02 4.594765e-02 4.098411e-02 3.677431e-02 3.324964e-02 3.033635e-02 2.796439e-02 2.606801e-02 2.459005e-02 2.348155e-02 2.270368e-02 2.222799e-02 
2.452793e-02 2.461018e-02 2.497072e-02 2.562404e-02 2.659592e-02 2.792362e-02 2.965503e-02 3.184742e-02 3.456682e-02 3.788654e-02 4.188446e-02 4.663953e-02 5.222722e-02 5.871305e-02 6.614529e-02 7.454591e-02 8.391040e-02 9.419426e-02 1.053252e-01 1.171852e-01 1.296382e-01 1.425044e-01 1.556001e-01 1.687058e-01 1.816036e-01 1.940351e-01 2.057363e-01 2.164416e-01 2.258629e-01 2.337181e-01 2.397011e-01 2.435350e-01 2.450035e-01 2.440177e-01 2.406600e-01 2.351250e-01 2.277004e-01 2.186969e-01 2.084139e-01 1.971299e-01 1.850899e-01 1.725301e-01 1.596675e-01 1.467170e-01 1.338763e-01 1.213468e-01 1.093146e-01 9.794363e-02 8.736895e-02 7.768550e-02 6.895367e-02 6.119192e-02 5.438954e-02 4.850456e-02 4.347815e-02 3.923546e-02 3.569748e-02 3.278349e-02 3.041825e-02 2.853203e-02 2.706479e-02 2.596545e-02 2.519357e-02 2.472010e-02 
2.757012e-02 2.764612e-02 2.799691e-02 2.863679e-02 2.959165e-02 3.089895e-02 3.260852e-02 3.477979e-02 3.748217e-02 4.079381e-02 4.479947e-02 4.958721e-02 5.524416e-02 6.184983e-02 6.947112e-02 7.815060e-02 8.790308e-02 9.870156e-02 1.104886e-01 1.231526e-01 1.365617e-01 1.505263e-01 1.648529e-01 1.792930e-01 1.935995e-01 2.074706e-01 2.206008e-01 2.326890e-01 2.434047e-01 2.524218e-01 2.593554e-01 2.638363e-01 2.655636e-01 2.644127e-01 2.604944e-01 2.540786e-01 2.455592e-01 2.353382e-01 2.237737e-01 2.111824e-01 1.978305e-01 1.839747e-01 1.698498e-01 1.556967e-01 1.417356e-01 1.281907e-01 1.152679e-01 1.031414e-01 9.194986e-02 8.178082e-02 7.268197e-02 6.465404e-02 5.766738e-02 5.166186e-02 4.656095e-02 4.227627e-02 3.871872e-02 3.579958e-02 3.343751e-02 3.155842e-02 3.009927e-02 2.900638e-02 2.823818e-02 2.776517e-02 
3.120396e-02 3.127397e-02 3.161703e-02 3.224708e-02 3.318975e-02 3.448234e-02 3.617574e-02 3.833186e-02 4.102341e-02 4.433346e-02 4.835413e-02 5.318322e-02 5.892096e-02 6.566241e-02 7.349317e-02 8.247567e-02 9.264847e-02 1.040044e-01 1.165016e-01 1.300347e-01 1.444744e-01 1.596201e-01 1.752652e-01 1.911302e-01 2.069330e-01 2.223250e-01 2.369562e-01 2.504979e-01 2.625775e-01 2.728383e-01 2.808099e-01 2.860119e-01 2.880360e-01 2.867034e-01 2.821624e-01 2.747788e-01 2.650811e-01 2.535781e-01 2.406857e-01 2.267519e-01 2.120525e-01 1.968505e-01 1.813913e-01 1.659485e-01 1.507671e-01 1.361055e-01 1.221965e-01 1.092322e-01 9.735693e-02 8.665096e-02 7.714699e-02 6.882515e-02 6.163317e-02 5.548904e-02 5.029954e-02 4.596198e-02 4.237581e-02 3.944349e-02 3.707724e-02 3.519841e-02 3.374092e-02 3.264856e-02 3.187928e-02 3.140345e-02 
3.546845e-02 3.553346e-02 3.587304e-02 3.650042e-02 3.744062e-02 3.873015e-02 4.041974e-02 4.257387e-02 4.526832e-02 4.859106e-02 5.264167e-02 5.752840e-02 6.336526e-02 7.026482e-02 7.833294e-02 8.765487e-02 9.829174e-02 1.102570e-01 1.235265e-01 1.380021e-01 1.535565e-01 1.699707e-01 1.870305e-01 2.044092e-01 2.217828e-01 2.387300e-01 2.548436e-01 2.697791e-01 2.831616e-01 2.946594e-01 3.037223e-01 3.097242e-01 3.120932e-01 3.105540e-01 3.053175e-01 2.968997e-01 2.860171e-01 2.732954e-01 2.591634e-01 2.439567e-01 2.279350e-01 2.113638e-01 1.945011e-01 1.776692e-01 1.611518e-01 1.452517e-01 1.302446e-01 1.163467e-01 1.037122e-01 9.241181e-02 8.245953e-02 7.380841e-02 6.638193e-02 6.007636e-02 5.477926e-02 5.037221e-02 4.674218e-02 4.378238e-02 4.139841e-02 3.950727e-02 3.803950e-02 3.693726e-02 3.615875e-02 3.567468e-02 
4.039520e-02 4.045706e-02 4.079995e-02 4.143617e-02 4.238942e-02 4.369484e-02 4.540195e-02 4.757628e-02 5.029706e-02 5.365687e-02 5.776276e-02 6.273368e-02 6.869846e-02 7.578790e-02 8.413085e-02 9.383666e-02 1.049934e-01 1.176352e-01 1.317564e-01 1.472593e-01 1.640160e-01 1.817860e-01 2.003419e-01 2.193100e-01 2.383043e-01 2.568264e-01 2.744149e-01 2.907158e-01 3.053357e-01 3.180105e-01 3.281418e-01 3.349489e-01 3.376701e-01 3.359145e-01 3.299711e-01 3.205232e-01 3.084928e-01 2.946170e-01 2.793067e-01 2.628866e-01 2.455957e-01 2.276567e-01 2.093282e-01 1.910118e-01 1.730337e-01 1.557642e-01 1.395381e-01 1.246063e-01 1.111361e-01 9.918114e-02 8.873140e-02 7.971168e-02 7.201865e-02 6.552341e-02 6.009292e-02 5.559191e-02 5.189453e-02 4.888459e-02 4.646119e-02 4.453740e-02 4.304023e-02 4.191201e-02 4.111179e-02 4.061141e-02 
4.600678e-02 4.606832e-02 4.642472e-02 4.708677e-02 4.807631e-02 4.942608e-02 5.118362e-02 5.341301e-02 5.619741e-02 5.963361e-02 6.383611e-02 6.893511e-02 7.507472e-02 8.240619e-02 9.108248e-02 1.012421e-01 1.130017e-01 1.264235e-01 1.415184e-01 1.581897e-01 1.762995e-01 1.955730e-01 2.157894e-01 2.365005e-01 2.572561e-01 2.774134e-01 2.963798e-01 3.137879e-01 3.293146e-01 3.429286e-01 3.540530e-01 3.617111e-01 3.648227e-01 3.627994e-01 3.560664e-01 3.456003e-01 3.326276e-01 3.179314e-01 3.017393e-01 2.842682e-01 2.657278e-01 2.463495e-01 2.264180e-01 2.064332e-01 1.867978e-01 1.679590e-01 1.503417e-01 1.342379e-01 1.198242e-01 1.071333e-01 9.612353e-02 8.668409e-02 7.867932e-02 7.195312e-02 6.634993e-02 6.171737e-02 5.791630e-02 5.482141e-02 5.232563e-02 5.033797e-02 4.878333e-02 4.760554e-02 4.676570e-02 4.623745e-02 
5.230888e-02 5.237413e-02 5.275780e-02 5.346889e-02 5.452641e-02 5.595992e-02 5.781359e-02 6.014907e-02 6.305068e-02 6.662081e-02 7.098110e-02 7.627365e-02 8.265898e-02 9.031001e-02 9.940764e-02 1.101216e-01 1.226064e-01 1.369540e-01 1.532011e-01 1.712396e-01 1.909079e-01 2.118705e-01 2.339103e-01 2.565052e-01 2.790666e-01 3.008511e-01 3.212665e-01 3.399127e-01 3.562727e-01 3.705322e-01 3.822781e-01 3.904512e-01 3.937954e-01 3.915675e-01 3.843348e-01 3.732070e-01 3.595719e-01 3.441233e-01 3.269312e-01 3.083549e-01 2.886442e-01 2.678101e-01 2.461189e-01 2.242797e-01 2.027549e-01 1.821069e-01 1.628899e-01 1.454487e-01 1.299722e-01 1.164539e-01 1.048108e-01 9.488622e-02 8.650913e-02 7.949364e-02 7.366154e-02 6.884310e-02 6.488610e-02 6.165643e-02 5.904152e-02 5.694566e-02 5.529477e-02 5.403532e-02 5.313154e-02 5.255995e-02 
5.928900e-02 5.936319e-02 5.979227e-02 6.058268e-02 6.174998e-02 6.331924e-02 6.533036e-02 6.784142e-02 7.093476e-02 7.471946e-02 7.932466e-02 8.490541e-02 9.163983e-02 9.972565e-02 1.093736e-01 1.207932e-01 1.341798e-01 1.496740e-01 1.673350e-01 1.870522e-01 2.085903e-01 2.315196e-01 2.556786e-01 2.804270e-01 3.051627e-01 3.288611e-01 3.506162e-01 3.700369e-01 3.866547e-01 4.011353e-01 4.133248e-01 4.220327e-01 4.256492e-01 4.231039e-01 4.152935e-01 4.036127e-01 3.897403e-01 3.741141e-01 3.563477e-01 3.367502e-01 3.155645e-01 2.929058e-01 2.691931e-01 2.451833e-01 2.214442e-01 1.986517e-01 1.775549e-01 1.585656e-01 1.418704e-01 1.274048e-01 1.150248e-01 1.045212e-01 9.568179e-02 8.829150e-02 8.214852e-02 7.706652e-02 7.288000e-02 6.944646e-02 6.664754e-02 6.438426e-02 6.258578e-02 6.120242e-02 6.020306e-02 5.956804e-02 
6.691053e-02 6.700018e-02 6.749689e-02 6.840422e-02 6.973308e-02 7.150331e-02 7.374889e-02 7.652407e-02 7.990741e-02 8.401274e-02 8.897863e-02 9.497543e-02 1.022001e-01 1.108787e-01 1.212562e-01 1.335856e-01 1.481184e-01 1.650512e-01 1.844966e-01 2.063177e-01 2.301621e-01 2.553793e-01 2.819039e-01 3.089795e-01 3.355214e-01 3.605219e-01 3.839218e-01 4.056514e-01 4.238132e-01 4.384732e-01 4.499332e-01 4.575708e-01 4.606314e-01 4.584177e-01 4.514877e-01 4.405826e-01 4.266773e-01 4.095246e-01 3.894648e-01 3.683637e-01 3.462092e-01 3.218910e-01 2.959089e-01 2.695139e-01 2.432589e-01 2.179570e-01 1.946812e-01 1.739095e-01 1.558234e-01 1.402623e-01 1.270111e-01 1.157981e-01 1.063714e-01 9.848723e-02 9.192116e-02 8.647079e-02 8.195688e-02 7.822921e-02 7.516125e-02 7.265531e-02 7.064451e-02 6.908454e-02 6.795018e-02 6.722694e-02 
7.511255e-02 7.522545e-02 7.581666e-02 7.688589e-02 7.843882e-02 8.048855e-02 8.306252e-02 8.620985e-02 9.000592e-02 9.456562e-02 1.000402e-01 1.066173e-01 1.145163e-01 1.239958e-01 1.353386e-01 1.488493e-01 1.648387e-01 1.835919e-01 2.052749e-01 2.297891e-01 2.564542e-01 2.843393e-01 3.134181e-01 3.428407e-01 3.724651e-01 4.002158e-01 4.240457e-01 4.444854e-01 4.602536e-01 4.719278e-01 4.801034e-01 4.849388e-01 4.867346e-01 4.854211e-01 4.809754e-01 4.733442e-01 4.625466e-01 4.477224e-01 4.289347e-01 4.073921e-01 3.822229e-01 3.547239e-01 3.266767e-01 2.978007e-01 2.687172e-01 2.405418e-01 2.147490e-01 1.919367e-01 1.722382e-01 1.553817e-01 1.410628e-01 1.289530e-01 1.187610e-01 1.102193e-01 1.030796e-01 9.712359e-02 9.215659e-02 8.801926e-02 8.457747e-02 8.173654e-02 7.943499e-02 7.763478e-02 7.631838e-02 7.547729e-02 
8.380966e-02 8.395483e-02 8.467110e-02 8.595397e-02 8.780260e-02 9.022260e-02 9.323325e-02 9.687886e-02 1.012304e-01 1.064064e-01 1.125657e-01 1.199224e-01 1.287192e-01 1.392560e-01 1.518556e-01 1.668787e-01 1.847009e-01 2.056984e-01 2.301665e-01 2.580661e-01 2.883237e-01 3.193554e-01 3.516453e-01 3.837346e-01 4.130168e-01 4.366103e-01 4.522913e-01 4.627604e-01 4.694734e-01 4.738889e-01 4.769881e-01 4.787306e-01 4.793105e-01 4.788339e-01 4.771903e-01 4.744949e-01 4.706190e-01 4.647076e-01 4.554725e-01 4.414893e-01 4.201735e-01 3.929526e-01 3.622665e-01 3.302349e-01 2.982651e-01 2.668910e-01 2.382666e-01 2.131182e-01 1.915401e-01 1.731140e-01 1.574571e-01 1.441942e-01 1.330013e-01 1.235921e-01 1.156902e-01 1.090603e-01 1.034884e-01 9.880204e-02 9.486282e-02 9.157916e-02 8.889549e-02 8.678142e-02 8.522848e-02 8.423549e-02 
9.289281e-02 9.308048e-02 9.395632e-02 9.551041e-02 9.773485e-02 1.006260e-01 1.041945e-01 1.084784e-01 1.135456e-01 1.195186e-01 1.265632e-01 1.349233e-01 1.448722e-01 1.567577e-01 1.709552e-01 1.878782e-01 2.079639e-01 2.316503e-01 2.593719e-01 2.913464e-01 3.256509e-01 3.605215e-01 3.938456e-01 4.209485e-01 4.374201e-01 4.450471e-01 4.462253e-01 4.455677e-01 4.463583e-01 4.487684e-01 4.517099e-01 4.539405e-01 4.547158e-01 4.538357e-01 4.515745e-01 4.489179e-01 4.466825e-01 4.461045e-01 4.470784e-01 4.469181e-01 4.407945e-01 4.261983e-01 4.004886e-01 3.678572e-01 3.325178e-01 2.977535e-01 2.659433e-01 2.380891e-01 2.142267e-01 1.938247e-01 1.764405e-01 1.616800e-01 1.491865e-01 1.386541e-01 1.297679e-01 1.222688e-01 1.159169e-01 1.105241e-01 1.059490e-01 1.021019e-01 9.893468e-02 9.642500e-02 9.457556e-02 9.339325e-02 
1.022375e-01 1.024788e-01 1.035509e-01 1.054380e-01 1.081237e-01 1.115939e-01 1.158490e-01 1.209209e-01 1.268725e-01 1.338338e-01 1.419749e-01 1.515744e-01 1.629354e-01 1.764769e-01 1.926288e-01 2.118817e-01 2.346886e-01 2.614389e-01 2.926666e-01 3.287445e-01 3.662890e-01 4.007269e-01 4.238666e-01 4.325789e-01 4.299519e-01 4.234596e-01 4.191381e-01 4.186562e-01 4.212604e-01 4.249528e-01 4.285319e-01 4.309887e-01 4.317911e-01 4.308127e-01 4.282639e-01 4.248628e-01 4.211497e-01 4.184151e-01 4.184818e-01 4.224937e-01 4.295627e-01 4.337527e-01 4.267632e-01 4.052536e-01 3.714385e-01 3.340188e-01 2.984817e-01 2.673480e-01 2.406384e-01 2.177108e-01 1.981033e-01 1.814383e-01 1.673063e-01 1.553755e-01 1.452668e-01 1.366912e-01 1.293704e-01 1.231033e-01 1.177438e-01 1.132035e-01 1.094432e-01 1.064498e-01 1.042390e-01 1.028272e-01 
1.117028e-01 1.120100e-01 1.133175e-01 1.156018e-01 1.188375e-01 1.229976e-01 1.280716e-01 1.340823e-01 1.410881e-01 1.492238e-01 1.586659e-01 1.697213e-01 1.827288e-01 1.981891e-01 2.166270e-01 2.386349e-01 2.647450e-01 2.949792e-01 3.299174e-01 3.686896e-01 4.037507e-01 4.238969e-01 4.258236e-01 4.167300e-01 4.063714e-01 3.986725e-01 3.947496e-01 3.944346e-01 3.973097e-01 4.014687e-01 4.055091e-01 4.082940e-01 4.092151e-01 4.081017e-01 4.051800e-01 4.011478e-01 3.968038e-01 3.935447e-01 3.931584e-01 3.963521e-01 4.037968e-01 4.147744e-01 4.253052e-01 4.254047e-01 4.076062e-01 3.741297e-01 3.360617e-01 3.010916e-01 2.708088e-01 2.446568e-01 2.222592e-01 2.032688e-01 1.871746e-01 1.735883e-01 1.620355e-01 1.521831e-01 1.437109e-01 1.364032e-01 1.301108e-01 1.247460e-01 1.202816e-01 1.167149e-01 1.140775e-01 1.123957e-01 
1.211477e-01 1.215335e-01 1.231153e-01 1.258610e-01 1.297346e-01 1.346939e-01 1.407158e-01 1.478113e-01 1.560321e-01 1.655161e-01 1.764383e-01 1.891369e-01 2.039632e-01 2.215322e-01 2.424594e-01 2.675873e-01 2.974747e-01 3.317033e-01 3.700720e-01 4.056919e-01 4.244614e-01 4.215305e-01 4.076322e-01 3.937437e-01 3.827985e-01 3.751282e-01 3.715846e-01 3.717570e-01 3.747751e-01 3.789281e-01 3.829008e-01 3.856238e-01 3.865333e-01 3.854392e-01 3.825294e-01 3.784040e-01 3.738935e-01 3.702898e-01 3.692953e-01 3.719613e-01 3.792772e-01 3.905348e-01 4.049457e-01 4.199559e-01 4.254098e-01 4.095142e-01 3.756166e-01 3.377650e-01 3.037677e-01 2.739623e-01 2.483563e-01 2.267615e-01 2.084791e-01 1.930536e-01 1.798787e-01 1.685761e-01 1.587857e-01 1.502791e-01 1.429088e-01 1.365894e-01 1.313101e-01 1.270801e-01 1.239499e-01 1.219576e-01 
1.304241e-01 1.309025e-01 1.327973e-01 1.360664e-01 1.406619e-01 1.465228e-01 1.536123e-01 1.619244e-01 1.715032e-01 1.824800e-01 1.950248e-01 2.094910e-01 2.262180e-01 2.459279e-01 2.692881e-01 2.974696e-01 3.311313e-01 3.690511e-01 4.061417e-01 4.263443e-01 4.219201e-01 4.051570e-01 3.873805e-01 3.726399e-01 3.615185e-01 3.541739e-01 3.506410e-01 3.504820e-01 3.528797e-01 3.564389e-01 3.599671e-01 3.624377e-01 3.632699e-01 3.622335e-01 3.595153e-01 3.556966e-01 3.516548e-01 3.485628e-01 3.478488e-01 3.504916e-01 3.572966e-01 3.683188e-01 3.832763e-01 4.015778e-01 4.198167e-01 4.269501e-01 4.102948e-01 3.752606e-01 3.378075e-01 3.042952e-01 2.754207e-01 2.512110e-01 2.306987e-01 2.133661e-01 1.984726e-01 1.855962e-01 1.743590e-01 1.645196e-01 1.559457e-01 1.485550e-01 1.423605e-01 1.373850e-01 1.337017e-01 1.313624e-01 
1.393979e-01 1.399828e-01 1.422266e-01 1.460752e-01 1.514677e-01 1.583204e-01 1.665815e-01 1.762208e-01 1.872743e-01 1.998567e-01 2.141293e-01 2.304504e-01 2.491223e-01 2.709975e-01 2.966660e-01 3.277297e-01 3.651647e-01 4.037043e-01 4.286931e-01 4.266418e-01 4.079876e-01 3.877906e-01 3.695201e-01 3.545464e-01 3.431437e-01 3.354464e-01 3.313937e-01 3.304925e-01 3.319667e-01 3.346424e-01 3.374513e-01 3.394616e-01 3.401239e-01 3.391990e-01 3.368684e-01 3.336620e-01 3.304186e-01 3.282020e-01 3.282351e-01 3.314077e-01 3.384333e-01 3.494411e-01 3.642944e-01 3.827983e-01 4.040337e-01 4.244499e-01 4.301705e-01 4.090113e-01 3.718343e-01 3.348288e-01 3.028308e-01 2.761664e-01 2.534633e-01 2.342187e-01 2.175571e-01 2.030168e-01 1.902290e-01 1.789411e-01 1.690522e-01 1.604849e-01 1.532835e-01 1.474869e-01 1.431948e-01 1.404746e-01 
1.479331e-01 1.486380e-01 1.512636e-01 1.557412e-01 1.619944e-01 1.699119e-01 1.794260e-01 1.904737e-01 2.030856e-01 2.173409e-01 2.334069e-01 2.516177e-01 2.722616e-01 2.963186e-01 3.241521e-01 3.581780e-01 3.976250e-01 4.295993e-01 4.347180e-01 4.157903e-01 3.930330e-01 3.724770e-01 3.542993e-01 3.391950e-01 3.274389e-01 3.191314e-01 3.141513e-01 3.120807e-01 3.122558e-01 3.137351e-01 3.155870e-01 3.169841e-01 3.174138e-01 3.166447e-01 3.148535e-01 3.125270e-01 3.104415e-01 3.095445e-01 3.108205e-01 3.150290e-01 3.227329e-01 3.341063e-01 3.491546e-01 3.676014e-01 3.891064e-01 4.125010e-01 4.334137e-01 4.323412e-01 4.037984e-01 3.649083e-01 3.299324e-01 3.010589e-01 2.762652e-01 2.551346e-01 2.367210e-01 2.204776e-01 2.060885e-01 1.932779e-01 1.819992e-01 1.721787e-01 1.639024e-01 1.572265e-01 1.522822e-01 1.491550e-01 
1.559149e-01 1.567494e-01 1.597799e-01 1.649208e-01 1.720779e-01 1.811086e-01 1.919264e-01 2.044264e-01 2.186337e-01 2.345695e-01 2.524177e-01 2.724418e-01 2.949558e-01 3.210835e-01 3.508581e-01 3.884091e-01 4.265845e-01 4.430973e-01 4.288861e-01 4.042826e-01 3.810386e-01 3.605010e-01 3.423966e-01 3.270642e-01 3.146935e-01 3.054208e-01 2.991992e-01 2.956995e-01 2.943938e-01 2.945279e-01 2.953044e-01 2.960023e-01 2.961657e-01 2.955892e-01 2.944343e-01 2.931382e-01 2.923991e-01 2.930442e-01 2.958656e-01 3.014768e-01 3.102910e-01 3.224092e-01 3.377427e-01 3.560568e-01 3.770891e-01 4.004835e-01 4.258330e-01 4.432945e-01 4.309484e-01 3.947640e-01 3.565907e-01 3.254960e-01 2.987493e-01 2.757964e-01 2.556902e-01 2.377285e-01 2.217113e-01 2.073259e-01 1.946020e-01 1.834727e-01 1.740699e-01 1.664722e-01 1.608423e-01 1.572872e-01 
1.632292e-01 1.641999e-01 1.676473e-01 1.734681e-01 1.815470e-01 1.917090e-01 2.038435e-01 2.177985e-01 2.335896e-01 2.511559e-01 2.707215e-01 2.923828e-01 3.166743e-01 3.444349e-01 3.763161e-01 4.155226e-01 4.467906e-01 4.463885e-01 4.214342e-01 3.961195e-01 3.730970e-01 3.525505e-01 3.342418e-01 3.183281e-01 3.050382e-01 2.945217e-01 2.868164e-01 2.816995e-01 2.787700e-01 2.774370e-01 2.770510e-01 2.769967e-01 2.768774e-01 2.765237e-01 2.760769e-01 2.759270e-01 2.766898e-01 2.790438e-01 2.836210e-01 2.908959e-01 3.011379e-01 3.143340e-01 3.303176e-01 3.487860e-01 3.695034e-01 3.926634e-01 4.181170e-01 4.441037e-01 4.488018e-01 4.213287e-01 3.816826e-01 3.482725e-01 3.201437e-01 2.955316e-01 2.739263e-01 2.543189e-01 2.367161e-01 2.207663e-01 2.065920e-01 1.941434e-01 1.835993e-01 1.750676e-01 1.687416e-01 1.647532e-01 
1.697838e-01 1.708928e-01 1.747557e-01 1.812512e-01 1.902410e-01 2.015175e-01 2.149423e-01 2.303135e-01 2.476330e-01 2.667404e-01 2.879256e-01 3.110229e-01 3.370453e-01 3.660137e-01 4.007741e-01 4.394086e-01 4.590682e-01 4.441321e-01 4.170817e-01 3.920197e-01 3.693262e-01 3.486208e-01 3.298201e-01 3.130141e-01 2.985137e-01 2.865288e-01 2.771890e-01 2.703704e-01 2.657892e-01 2.629819e-01 2.614358e-01 2.606341e-01 2.602422e-01 2.601247e-01 2.604044e-01 2.614235e-01 2.637099e-01 2.678110e-01 2.742264e-01 2.833034e-01 2.951804e-01 3.097255e-01 3.266781e-01 3.456126e-01 3.664116e-01 3.889947e-01 4.139127e-01 4.407029e-01 4.594001e-01 4.443937e-01 4.061223e-01 3.696967e-01 3.405249e-01 3.142660e-01 2.912449e-01 2.700234e-01 2.508583e-01 2.333689e-01 2.177586e-01 2.040088e-01 1.923355e-01 1.828827e-01 1.758695e-01 1.714554e-01 
1.754889e-01 1.767326e-01 1.809933e-01 1.881337e-01 1.979902e-01 2.103284e-01 2.249739e-01 2.416885e-01 2.604346e-01 2.809846e-01 3.036228e-01 3.279981e-01 3.554411e-01 3.853385e-01 4.226405e-01 4.585255e-01 4.660165e-01 4.417760e-01 4.158588e-01 3.913860e-01 3.691103e-01 3.480861e-01 3.285776e-01 3.106521e-01 2.947742e-01 2.812106e-01 2.701912e-01 2.616783e-01 2.554869e-01 2.512583e-01 2.485917e-01 2.470750e-01 2.464280e-01 2.465465e-01 2.475365e-01 2.496997e-01 2.534577e-01 2.592589e-01 2.674910e-01 2.783938e-01 2.919926e-01 3.080422e-01 3.261866e-01 3.458631e-01 3.669687e-01 3.890693e-01 4.134182e-01 4.386833e-01 4.647917e-01 4.617119e-01 4.274962e-01 3.890797e-01 3.591155e-01 3.314965e-01 3.071310e-01 2.844233e-01 2.637601e-01 2.448197e-01 2.278378e-01 2.128558e-01 2.001076e-01 1.897820e-01 1.821161e-01 1.772995e-01 
1.802742e-01 1.816435e-01 1.862676e-01 1.939960e-01 2.046401e-01 2.179461e-01 2.336991e-01 2.516442e-01 2.716807e-01 2.935663e-01 3.174828e-01 3.430453e-01 3.715116e-01 4.021305e-01 4.404741e-01 4.717361e-01 4.694540e-01 4.419585e-01 4.176081e-01 3.937870e-01 3.716900e-01 3.501718e-01 3.297862e-01 3.106438e-01 2.933316e-01 2.781950e-01 2.655550e-01 2.554503e-01 2.477774e-01 2.422623e-01 2.385877e-01 2.364298e-01 2.355601e-01 2.358980e-01 2.375370e-01 2.407342e-01 2.458300e-01 2.531934e-01 2.631206e-01 2.757649e-01 2.910526e-01 3.086420e-01 3.280612e-01 3.486745e-01 3.702531e-01 3.922870e-01 4.157883e-01 4.397803e-01 4.673474e-01 4.737359e-01 4.451741e-01 4.068411e-01 3.757381e-01 3.470503e-01 3.212691e-01 2.972044e-01 2.751079e-01 2.548399e-01 2.365887e-01 2.204861e-01 2.067575e-01 1.956425e-01 1.873859e-01 1.822075e-01 
1.840732e-01 1.855500e-01 1.904832e-01 1.987129e-01 2.100270e-01 2.241629e-01 2.408635e-01 2.598851e-01 2.810430e-01 3.041628e-01 3.292174e-01 3.560412e-01 3.853112e-01 4.169832e-01 4.547243e-01 4.808028e-01 4.713358e-01 4.444350e-01 4.209200e-01 3.977919e-01 3.755649e-01 3.535568e-01 3.322799e-01 3.120153e-01 2.933947e-01 2.768516e-01 2.627745e-01 2.512797e-01 2.423359e-01 2.357299e-01 2.312077e-01 2.285087e-01 2.274541e-01 2.279798e-01 2.301707e-01 2.342379e-01 2.404668e-01 2.491663e-01 2.605628e-01 2.747396e-01 2.915132e-01 3.104879e-01 3.310687e-01 3.526205e-01 3.746748e-01 3.968808e-01 4.196123e-01 4.430343e-01 4.690032e-01 4.823147e-01 4.597271e-01 4.224918e-01 3.898259e-01 3.603060e-01 3.331486e-01 3.079247e-01 2.845392e-01 2.631285e-01 2.437714e-01 2.267109e-01 2.121417e-01 2.003557e-01 1.915964e-01 1.861112e-01 
1.868346e-01 1.883963e-01 1.935682e-01 2.021844e-01 2.140144e-01 2.287942e-01 2.462306e-01 2.661070e-01 2.881568e-01 3.123164e-01 3.383183e-01 3.663480e-01 3.962686e-01 4.292280e-01 4.655503e-01 4.868386e-01 4.727000e-01 4.477922e-01 4.245500e-01 4.019617e-01 3.794821e-01 3.570697e-01 3.350361e-01 3.138758e-01 2.942052e-01 2.765534e-01 2.613464e-01 2.487648e-01 2.388290e-01 2.313810e-01 2.262146e-01 2.231082e-01 2.219151e-01 2.225848e-01 2.251934e-01 2.299253e-01 2.370310e-01 2.467787e-01 2.593287e-01 2.747091e-01 2.926592e-01 3.127546e-01 3.342880e-01 3.566632e-01 3.791768e-01 4.016858e-01 4.239672e-01 4.469725e-01 4.709097e-01 4.877746e-01 4.701640e-01 4.341857e-01 4.004307e-01 3.703559e-01 3.421239e-01 3.160164e-01 2.916191e-01 2.693279e-01 2.491125e-01 2.313180e-01 2.161041e-01 2.038073e-01 1.946657e-01 1.889491e-01 
1.885138e-01 1.901281e-01 1.954499e-01 2.043100e-01 2.164658e-01 2.316552e-01 2.495607e-01 2.699914e-01 2.926222e-01 3.174821e-01 3.441270e-01 3.730124e-01 4.033808e-01 4.371960e-01 4.722459e-01 4.901797e-01 4.737685e-01 4.504154e-01 4.273313e-01 4.050409e-01 3.823269e-01 3.596356e-01 3.370899e-01 3.153492e-01 2.949995e-01 2.766388e-01 2.607132e-01 2.474445e-01 2.368854e-01 2.289098e-01 2.233406e-01 2.199802e-01 2.187002e-01 2.194588e-01 2.223260e-01 2.274729e-01 2.351270e-01 2.455277e-01 2.587970e-01 2.749321e-01 2.936198e-01 3.144248e-01 3.365552e-01 3.594580e-01 3.822485e-01 4.049536e-01 4.269248e-01 4.496091e-01 4.723603e-01 4.909745e-01 4.767052e-01 4.418057e-01 4.074203e-01 3.768948e-01 3.478951e-01 3.211744e-01 2.960948e-01 2.732247e-01 2.524485e-01 2.341810e-01 2.185527e-01 2.059297e-01 1.965440e-01 1.906792e-01 
1.890803e-01 1.907142e-01 1.960886e-01 2.050335e-01 2.173023e-01 2.326339e-01 2.507028e-01 2.713280e-01 2.941647e-01 3.192757e-01 3.461570e-01 3.753646e-01 4.059109e-01 4.400345e-01 4.745608e-01 4.912259e-01 4.741406e-01 4.513099e-01 4.283102e-01 4.061359e-01 3.833508e-01 3.605737e-01 3.378584e-01 3.159223e-01 2.953385e-01 2.767330e-01 2.605568e-01 2.470493e-01 2.362731e-01 2.281146e-01 2.224060e-01 2.189580e-01 2.176482e-01 2.184377e-01 2.213954e-01 2.266900e-01 2.345381e-01 2.451709e-01 2.586976e-01 2.751049e-01 2.940614e-01 3.151260e-01 3.374777e-01 3.605733e-01 3.834696e-01 4.062441e-01 4.281079e-01 4.506614e-01 4.729754e-01 4.920292e-01 4.788510e-01 4.444565e-01 4.098237e-01 3.791174e-01 3.498322e-01 3.228980e-01 2.975893e-01 2.745255e-01 2.535625e-01 2.351374e-01 2.193712e-01 2.066398e-01 1.971732e-01 1.912602e-01 
1.885138e-01 1.901281e-01 1.954499e-01 2.043100e-01 2.164658e-01 2.316552e-01 2.495607e-01 2.699914e-01 2.926222e-01 3.174821e-01 3.441270e-01 3.730124e-01 4.033808e-01 4.371960e-01 4.722459e-01 4.901797e-01 4.737685e-01 4.504154e-01 4.273313e-01 4.050409e-01 3.823269e-01 3.596356e-01 3.370899e-01 3.153492e-01 2.949995e-01 2.766388e-01 2.607132e-01 2.474445e-01 2.368854e-01 2.289098e-01 2.233406e-01 2.199802e-01 2.187002e-01 2.194588e-01 2.223260e-01 2.274729e-01 2.351270e-01 2.455277e-01 2.587970e-01 2.749321e-01 2.936198e-01 3.144248e-01 3.365552e-01 3.594580e-01 3.822485e-01 4.049536e-01 4.269248e-01 4.496091e-01 4.723603e-01 4.909745e-01 4.767052e-01 4.418057e-01 4.074203e-01 3.768948e-01 3.478951e-01 3.211744e-01 2.960948e-01 2.732247e-01 2.524485e-01 2.341810e-01 2.185527e-01 2.059297e-01 1.965440e-01 1.906792e-01 
1.868346e-01 1.883963e-01 1.935682e-01 2.021844e-01 2.140144e-01 2.287942e-01 2.462306e-01 2.661070e-01 2.881568e-01 3.123164e-01 3.383183e-01 3.663480e-01 3.962686e-01 4.292280e-01 4.655503e-01 4.868386e-01 4.727000e-01 4.477922e-01 4.245500e-01 4.019617e-01 3.794821e-01 3.570697e-01 3.350361e-01 3.138758e-01 2.942052e-01 2.765534e-01 2.613464e-01 2.487648e-01 2.388290e-01 2.313810e-01 2.262146e-01 2.231082e-01 2.219151e-01 2.225848e-01 2.251934e-01 2.299253e-01 2.370310e-01 2.467787e-01 2.593287e-01 2.747091e-01 2.926592e-01 3.127546e-01 3.342880e-01 3.566632e-01 3.791768e-01 4.016858e-01 4.239672e-01 4.469725e-01 4.709097e-01 4.877746e-01 4.701640e-01 4.341857e-01 4.004307e-01 3.703559e-01 3.421239e-01 3.160164e-01 2.916191e-01 2.693279e-01 2.491125e-01 2.313180e-01 2.161041e-01 2.038073e-01 1.946657e-01 1.889491e-01 