# vtk DataFile Version 2.0
Comment goes here
ASCII

DATASET STRUCTURED_POINTS
FIELD FieldData 1
TIME 1 1 double
1.05000000
DIMENSIONS    64   64   1

ORIGIN    0.000   0.000   0.000
SPACING   0.015625 0.015625   1.000

POINT_DATA   4096
SCALARS Concentration double
LOOKUP_TABLE default

2.160844e-03 2.193010e-03 2.297985e-03 2.478032e-03 2.737336e-03 3.082122e-03 3.521288e-03 4.066598e-03 4.733600e-03 5.541800e-03 6.515646e-03 7.684310e-03 9.082114e-03 1.074720e-02 1.272044e-02 1.504225e-02 1.774905e-02 2.086850e-02 2.441347e-02 2.837818e-02 3.273156e-02 3.741865e-02 4.235606e-02 4.744188e-02 5.255224e-02 5.755409e-02 6.230150e-02 6.665250e-02 7.046454e-02 7.360892e-02 7.596957e-02 7.745297e-02 7.799115e-02 7.754481e-02 7.614347e-02 7.385226e-02 7.076259e-02 6.698896e-02 6.266036e-02 5.791969e-02 5.291174e-02 4.778417e-02 4.267444e-02 3.770840e-02 3.299170e-02 2.860860e-02 2.461671e-02 2.104704e-02 1.790646e-02 1.518143e-02 1.284428e-02 1.085788e-02 9.181359e-03 7.773413e-03 6.595408e-03 5.612881e-03 4.796275e-03 4.121190e-03 3.567848e-03 3.120829e-03 2.768186e-03 2.501143e-03 2.313358e-03 2.200716e-03 
2.231633e-03 2.264425e-03 2.371588e-03 2.555378e-03 2.819967e-03 3.171578e-03 3.619118e-03 4.174389e-03 4.853004e-03 5.674608e-03 6.663839e-03 7.850183e-03 9.268363e-03 1.095712e-02 1.295802e-02 1.531246e-02 1.805796e-02 2.122357e-02 2.482365e-02 2.885414e-02 3.328563e-02 3.806485e-02 4.310989e-02 4.832063e-02 5.357478e-02 5.873689e-02 6.365683e-02 6.818591e-02 7.217207e-02 7.547433e-02 7.796366e-02 7.953330e-02 8.010618e-02 7.963731e-02 7.816004e-02 7.574765e-02 7.250424e-02 6.855744e-02 6.404896e-02 5.913210e-02 5.395915e-02 4.868284e-02 4.344344e-02 3.836617e-02 3.355463e-02 2.909144e-02 2.503240e-02 2.140671e-02 1.821939e-02 1.545529e-02 1.308526e-02 1.107101e-02 9.370665e-03 7.942181e-03 6.746325e-03 5.748218e-03 4.917992e-03 4.231052e-03 3.667490e-03 3.211818e-03 2.852056e-03 2.579426e-03 2.387589e-03 2.272445e-03 
2.445647e-03 2.480307e-03 2.594025e-03 2.789023e-03 3.069441e-03 3.441480e-03 3.914073e-03 4.499111e-03 5.212419e-03 6.073991e-03 7.109059e-03 8.347953e-03 9.826627e-03 1.158544e-02 1.366811e-02 1.611872e-02 1.897813e-02 2.227935e-02 2.604124e-02 3.026479e-02 3.492562e-02 3.997572e-02 4.533734e-02 5.091484e-02 5.658769e-02 6.221556e-02 6.763594e-02 7.268150e-02 7.717205e-02 8.093170e-02 8.379341e-02 8.561260e-02 8.628557e-02 8.575174e-02 8.405468e-02 8.129156e-02 7.760272e-02 7.315424e-02 6.812406e-02 6.269605e-02 5.704372e-02 5.133446e-02 4.571518e-02 4.031086e-02 3.522059e-02 3.052232e-02 2.626636e-02 2.247625e-02 1.915171e-02 1.627262e-02 1.380571e-02 1.170914e-02 9.938266e-03 8.448793e-03 7.199860e-03 6.155316e-03 5.284457e-03 4.562087e-03 3.967960e-03 3.486383e-03 3.105301e-03 2.815921e-03 2.611933e-03 2.489284e-03 
2.808248e-03 2.846026e-03 2.970724e-03 3.184509e-03 3.491469e-03 3.897775e-03 4.412401e-03 5.047396e-03 5.818921e-03 6.747572e-03 7.859513e-03 9.186486e-03 1.076637e-02 1.264220e-02 1.486106e-02 1.747141e-02 2.051923e-02 2.404390e-02 2.807117e-02 3.260996e-02 3.764355e-02 4.313198e-02 4.900369e-02 5.516892e-02 6.150777e-02 6.787276e-02 7.408296e-02 7.994243e-02 8.522804e-02 8.970915e-02 9.315920e-02 9.537306e-02 9.620495e-02 9.556875e-02 9.352480e-02 9.020808e-02 8.581682e-02 8.057739e-02 7.472445e-02 6.848900e-02 6.207721e-02 5.567897e-02 4.945105e-02 4.351994e-02 3.797898e-02 3.289913e-02 2.832219e-02 2.426294e-02 2.071271e-02 1.764370e-02 1.501614e-02 1.278257e-02 1.089398e-02 9.302497e-03 7.964615e-03 6.842177e-03 5.903102e-03 5.121242e-03 4.475780e-03 3.950701e-03 3.533813e-03 3.216303e-03 2.991908e-03 2.856644e-03 
3.328441e-03 3.370591e-03 3.510767e-03 3.751074e-03 4.095524e-03 4.550253e-03 5.124302e-03 5.829934e-03 6.683784e-03 7.707237e-03 8.927736e-03 1.037884e-02 1.210103e-02 1.414072e-02 1.654945e-02 1.938118e-02 2.268860e-02 2.651894e-02 3.090673e-02 3.587062e-02 4.140335e-02 4.747480e-02 5.402076e-02 6.095858e-02 6.816844e-02 7.549540e-02 8.273580e-02 8.965948e-02 9.598748e-02 1.014183e-01 1.056450e-01 1.083814e-01 1.094239e-01 1.086533e-01 1.061509e-01 1.021037e-01 9.678757e-02 9.051006e-02 8.357960e-02 7.628874e-02 6.888398e-02 6.158358e-02 5.455569e-02 4.792889e-02 4.178970e-02 3.620026e-02 3.119181e-02 2.676798e-02 2.290982e-02 1.957971e-02 1.672980e-02 1.430543e-02 1.225207e-02 1.051718e-02 9.053894e-03 7.821394e-03 6.785823e-03 5.919750e-03 5.201610e-03 4.614939e-03 4.147361e-03 3.790029e-03 3.536737e-03 3.383602e-03 
4.018950e-03 4.066743e-03 4.227043e-03 4.501887e-03 4.895204e-03 5.413102e-03 6.064733e-03 6.862664e-03 7.824148e-03 8.971585e-03 1.033398e-02 1.194716e-02 1.385466e-02 1.610701e-02 1.876087e-02 2.187673e-02 2.551480e-02 2.973139e-02 3.457046e-02 4.006136e-02 4.620627e-02 5.298511e-02 6.034019e-02 6.819571e-02 7.642930e-02 8.487854e-02 9.331585e-02 1.014755e-01 1.090175e-01 1.155587e-01 1.206984e-01 1.240508e-01 1.253433e-01 1.244149e-01 1.213738e-01 1.164693e-01 1.100719e-01 1.025845e-01 9.440017e-02 8.587993e-02 7.731352e-02 6.895104e-02 6.097272e-02 5.351235e-02 4.664944e-02 4.043739e-02 3.489620e-02 3.001775e-02 2.577181e-02 2.210997e-02 1.897525e-02 1.630483e-02 1.403777e-02 1.211612e-02 1.048906e-02 9.112581e-03 7.950679e-03 6.974349e-03 6.161085e-03 5.493838e-03 4.959978e-03 4.550588e-03 4.259518e-03 4.083001e-03 
4.895854e-03 4.950581e-03 5.135821e-03 5.453550e-03 5.907601e-03 6.504084e-03 7.252318e-03 8.165284e-03 9.261016e-03 1.056314e-02 1.210252e-02 1.391752e-02 1.605519e-02 1.857050e-02 2.152584e-02 2.498851e-02 2.902693e-02 3.370647e-02 3.908083e-02 4.518909e-02 5.204189e-02 5.962685e-02 6.789035e-02 7.676204e-02 8.611592e-02 9.578455e-02 1.055180e-01 1.150207e-01 1.238879e-01 1.316497e-01 1.377981e-01 1.418346e-01 1.434049e-01 1.423035e-01 1.386660e-01 1.328154e-01 1.252294e-01 1.164193e-01 1.068683e-01 9.701088e-02 8.717727e-02 7.765011e-02 6.862026e-02 6.022712e-02 5.254385e-02 4.561593e-02 3.945411e-02 3.403882e-02 2.932972e-02 2.526716e-02 2.178528e-02 1.881242e-02 1.628109e-02 1.412733e-02 1.229608e-02 1.073976e-02 9.419956e-03 8.305827e-03 7.373728e-03 6.605887e-03 5.989314e-03 5.514985e-03 5.176779e-03 4.971063e-03 
5.978760e-03 6.041750e-03 6.257050e-03 6.626543e-03 7.153988e-03 7.845541e-03 8.710798e-03 9.763302e-03 1.102211e-02 1.251235e-02 1.426707e-02 1.632751e-02 1.874460e-02 2.157813e-02 2.489655e-02 2.877453e-02 3.328875e-02 3.851416e-02 4.451324e-02 5.133409e-02 5.899221e-02 6.747923e-02 7.673908e-02 8.670213e-02 9.723020e-02 1.081498e-01 1.191905e-01 1.300387e-01 1.402345e-01 1.492248e-01 1.563980e-01 1.611329e-01 1.629906e-01 1.617133e-01 1.574707e-01 1.506625e-01 1.418819e-01 1.317465e-01 1.208233e-01 1.096109e-01 9.847050e-02 8.771981e-02 7.756160e-02 6.815002e-02 5.955449e-02 5.181729e-02 4.494314e-02 3.890393e-02 3.365036e-02 2.911235e-02 2.521513e-02 2.187802e-02 1.902668e-02 1.659082e-02 1.451088e-02 1.273532e-02 1.122307e-02 9.941113e-03 8.864453e-03 7.974362e-03 7.257360e-03 6.704213e-03 6.308797e-03 6.067601e-03 
7.289879e-03 7.362532e-03 7.613390e-03 8.044205e-03 8.658653e-03 9.463041e-03 1.046735e-02 1.168593e-02 1.313913e-02 1.485393e-02 1.686598e-02 1.921972e-02 2.197034e-02 2.518273e-02 2.893192e-02 3.330009e-02 3.837308e-02 4.423491e-02 5.095721e-02 5.859397e-02 6.716246e-02 7.664998e-02 8.698914e-02 9.810196e-02 1.098281e-01 1.219888e-01 1.342995e-01 1.464489e-01 1.579260e-01 1.681041e-01 1.762699e-01 1.816840e-01 1.838224e-01 1.823781e-01 1.775534e-01 1.698246e-01 1.598943e-01 1.484827e-01 1.362282e-01 1.236881e-01 1.112407e-01 9.923878e-02 8.789630e-02 7.738995e-02 6.779161e-02 5.914613e-02 5.146068e-02 4.470123e-02 3.881367e-02 3.371723e-02 2.932931e-02 2.555934e-02 2.232627e-02 1.955288e-02 1.717496e-02 1.513665e-02 1.339391e-02 1.191122e-02 1.066187e-02 9.625949e-03 8.789234e-03 8.142194e-03 7.678599e-03 7.395083e-03 
8.854301e-03 8.938136e-03 9.230628e-03 9.733396e-03 1.045001e-02 1.138698e-02 1.255493e-02 1.396930e-02 1.565225e-02 1.763303e-02 1.995053e-02 2.265287e-02 2.580019e-02 2.946302e-02 3.372386e-02 3.867369e-02 4.440869e-02 5.102418e-02 5.860057e-02 6.719825e-02 7.683002e-02 8.747206e-02 9.903010e-02 1.114030e-01 1.243756e-01 1.377496e-01 1.512193e-01 1.645105e-01 1.770909e-01 1.882794e-01 1.972999e-01 2.033044e-01 2.056960e-01 2.041077e-01 1.987886e-01 1.902796e-01 1.793827e-01 1.668870e-01 1.534688e-01 1.397076e-01 1.259696e-01 1.126632e-01 1.000269e-01 8.829325e-02 7.754604e-02 6.784455e-02 5.920601e-02 5.159598e-02 4.495699e-02 3.919763e-02 3.422620e-02 2.994082e-02 2.625270e-02 2.307668e-02 2.034347e-02 1.799217e-02 1.597540e-02 1.425453e-02 1.280072e-02 1.159241e-02 1.061436e-02 9.856515e-03 9.312460e-03 8.978943e-03 
1.069819e-02 1.079494e-02 1.113592e-02 1.172264e-02 1.255855e-02 1.365051e-02 1.500987e-02 1.665370e-02 1.860649e-02 2.090056e-02 2.357873e-02 2.669361e-02 3.031113e-02 3.450847e-02 3.937742e-02 4.501968e-02 5.154562e-02 5.906367e-02 6.766703e-02 7.741868e-02 8.832457e-02 1.003328e-01 1.133040e-01 1.270831e-01 1.413591e-01 1.559136e-01 1.704393e-01 1.847455e-01 1.982700e-01 2.102840e-01 2.199765e-01 2.264381e-01 2.290317e-01 2.273395e-01 2.216576e-01 2.125598e-01 2.008984e-01 1.874995e-01 1.730529e-01 1.581552e-01 1.431397e-01 1.284720e-01 1.144085e-01 1.012674e-01 8.917171e-02 7.820827e-02 6.842426e-02 5.978806e-02 5.224526e-02 4.569021e-02 4.002105e-02 3.512050e-02 3.089016e-02 2.723497e-02 2.407949e-02 2.135701e-02 1.901596e-02 1.701399e-02 1.531937e-02 1.390843e-02 1.276442e-02 1.187656e-02 1.123805e-02 1.084578e-02 
1.284887e-02 1.296058e-02 1.335815e-02 1.404288e-02 1.501811e-02 1.629122e-02 1.787473e-02 1.978769e-02 2.205770e-02 2.472116e-02 2.782610e-02 3.143051e-02 3.560787e-02 4.044358e-02 4.604215e-02 5.252045e-02 6.000865e-02 6.863537e-02 7.850847e-02 8.969713e-02 1.021897e-01 1.158998e-01 1.306150e-01 1.460934e-01 1.618581e-01 1.776117e-01 1.930028e-01 2.080394e-01 2.221996e-01 2.347070e-01 2.448064e-01 2.515563e-01 2.543003e-01 2.525374e-01 2.466498e-01 2.372199e-01 2.251328e-01 2.111883e-01 1.960390e-01 1.801967e-01 1.638695e-01 1.476563e-01 1.318849e-01 1.170137e-01 1.032429e-01 9.070417e-02 7.948796e-02 6.957521e-02 6.091619e-02 5.338803e-02 4.687278e-02 4.123124e-02 3.635097e-02 3.212311e-02 2.846453e-02 2.530084e-02 2.257556e-02 2.024139e-02 1.826302e-02 1.661371e-02 1.527472e-02 1.423420e-02 1.348481e-02 1.302350e-02 
1.533178e-02 1.546104e-02 1.592495e-02 1.672457e-02 1.786300e-02 1.934836e-02 2.119468e-02 2.342394e-02 2.606768e-02 2.916720e-02 3.277716e-02 3.696268e-02 4.180656e-02 4.740567e-02 5.388231e-02 6.137564e-02 7.004582e-02 8.004725e-02 9.150892e-02 1.044942e-01 1.189700e-01 1.347812e-01 1.516228e-01 1.690734e-01 1.864050e-01 2.033051e-01 2.195006e-01 2.352639e-01 2.500007e-01 2.628163e-01 2.730393e-01 2.798269e-01 2.826138e-01 2.808398e-01 2.749713e-01 2.654994e-01 2.532140e-01 2.388369e-01 2.230000e-01 2.062214e-01 1.886110e-01 1.708233e-01 1.531282e-01 1.361816e-01 1.203515e-01 1.058352e-01 9.281476e-02 8.129180e-02 7.123802e-02 6.250686e-02 5.495878e-02 4.842151e-02 4.276082e-02 3.784846e-02 3.359002e-02 2.990179e-02 2.672062e-02 2.399338e-02 2.167966e-02 1.974931e-02 1.818068e-02 1.696060e-02 1.608077e-02 1.553827e-02 
1.816992e-02 1.832006e-02 1.886242e-02 1.979769e-02 2.112859e-02 2.286415e-02 2.502040e-02 2.762304e-02 3.070908e-02 3.432595e-02 3.853598e-02 4.341280e-02 4.905256e-02 5.556692e-02 6.310559e-02 7.184019e-02 8.197427e-02 9.369666e-02 1.071497e-01 1.223813e-01 1.392987e-01 1.576849e-01 1.771111e-01 1.969699e-01 2.163397e-01 2.345746e-01 2.512372e-01 2.672360e-01 2.821860e-01 2.949888e-01 3.051481e-01 3.119068e-01 3.147231e-01 3.129147e-01 3.070886e-01 2.976840e-01 2.854658e-01 2.710691e-01 2.551053e-01 2.377916e-01 2.187825e-01 1.990087e-01 1.789769e-01 1.595179e-01 1.411639e-01 1.241910e-01 1.088994e-01 9.534350e-02 8.353543e-02 7.330892e-02 6.449450e-02 5.687176e-02 5.027357e-02 4.454205e-02 3.956777e-02 3.525406e-02 3.152990e-02 2.833484e-02 2.562300e-02 2.335955e-02 2.151906e-02 2.008656e-02 1.905245e-02 1.841404e-02 
2.137981e-02 2.155519e-02 2.219119e-02 2.328795e-02 2.484744e-02 2.687982e-02 2.940338e-02 3.244868e-02 3.605907e-02 4.028994e-02 4.521259e-02 5.090982e-02 5.749414e-02 6.510036e-02 7.391667e-02 8.416489e-02 9.610796e-02 1.099707e-01 1.258945e-01 1.438560e-01 1.636736e-01 1.850069e-01 2.073897e-01 2.297518e-01 2.507718e-01 2.700204e-01 2.876022e-01 3.045350e-01 3.200370e-01 3.328455e-01 3.424961e-01 3.485989e-01 3.510724e-01 3.494724e-01 3.442012e-01 3.353499e-01 3.233208e-01 3.085330e-01 2.915821e-01 2.731929e-01 2.532208e-01 2.320886e-01 2.098220e-01 1.875146e-01 1.662479e-01 1.463204e-01 1.282379e-01 1.121423e-01 9.814063e-02 8.605974e-02 7.569652e-02 6.676526e-02 5.904661e-02 5.234112e-02 4.651562e-02 4.145717e-02 3.708549e-02 3.333324e-02 3.014712e-02 2.748730e-02 2.532328e-02 2.363817e-02 2.242062e-02 2.166836e-02 
2.496990e-02 2.517630e-02 2.592501e-02 2.721542e-02 2.904821e-02 3.143475e-02 3.439585e-02 3.796774e-02 4.220132e-02 4.716043e-02 5.292730e-02 5.959425e-02 6.729393e-02 7.619290e-02 8.654030e-02 9.862480e-02 1.127911e-01 1.292892e-01 1.482124e-01 1.693967e-01 1.924475e-01 2.168934e-01 2.420102e-01 2.669952e-01 2.912942e-01 3.127088e-01 3.301166e-01 3.447988e-01 3.568178e-01 3.658436e-01 3.720263e-01 3.756453e-01 3.769536e-01 3.760632e-01 3.729030e-01 3.672653e-01 3.588465e-01 3.475680e-01 3.332328e-01 3.157368e-01 2.943217e-01 2.701036e-01 2.452413e-01 2.202697e-01 1.959316e-01 1.726539e-01 1.512693e-01 1.320910e-01 1.153909e-01 1.010346e-01 8.879288e-02 7.829500e-02 6.925003e-02 6.139467e-02 5.456273e-02 4.861988e-02 4.347749e-02 3.906025e-02 3.530748e-02 3.217381e-02 2.962292e-02 2.763584e-02 2.619904e-02 2.531104e-02 
2.893695e-02 2.918191e-02 3.006726e-02 3.159117e-02 3.375224e-02 3.656290e-02 4.004623e-02 4.424487e-02 4.921717e-02 5.503604e-02 6.179346e-02 6.959328e-02 7.859152e-02 8.900226e-02 1.011573e-01 1.154460e-01 1.323051e-01 1.519968e-01 1.745081e-01 1.994393e-01 2.260947e-01 2.539137e-01 2.825790e-01 3.091603e-01 3.312141e-01 3.471884e-01 3.566134e-01 3.611881e-01 3.634674e-01 3.648193e-01 3.655826e-01 3.659972e-01 3.660091e-01 3.658731e-01 3.653437e-01 3.645581e-01 3.632476e-01 3.613799e-01 3.574967e-01 3.488692e-01 3.340518e-01 3.130049e-01 2.872897e-01 2.587637e-01 2.307653e-01 2.036782e-01 1.784375e-01 1.555732e-01 1.355990e-01 1.184815e-01 1.039785e-01 9.162686e-02 8.102856e-02 7.183520e-02 6.382641e-02 5.684483e-02 5.079033e-02 4.558266e-02 4.115339e-02 3.745309e-02 3.443876e-02 3.208989e-02 3.039044e-02 2.934021e-02 
3.326335e-02 3.355652e-02 3.460800e-02 3.641383e-02 3.896927e-02 4.228756e-02 4.639308e-02 5.133501e-02 5.717837e-02 6.400355e-02 7.191205e-02 8.101706e-02 9.151090e-02 1.036654e-01 1.179413e-01 1.348397e-01 1.549173e-01 1.783904e-01 2.050973e-01 2.343609e-01 2.653432e-01 2.963123e-01 3.231433e-01 3.414120e-01 3.489321e-01 3.479038e-01 3.432955e-01 3.389929e-01 3.361739e-01 3.349658e-01 3.348205e-01 3.349566e-01 3.349133e-01 3.347394e-01 3.342955e-01 3.340940e-01 3.348255e-01 3.373152e-01 3.417477e-01 3.466479e-01 3.489039e-01 3.433381e-01 3.273796e-01 3.019669e-01 2.713605e-01 2.397467e-01 2.100608e-01 1.829149e-01 1.590535e-01 1.386323e-01 1.214398e-01 1.069079e-01 9.451370e-02 8.377947e-02 7.441491e-02 6.622532e-02 5.910089e-02 5.295862e-02 4.772483e-02 4.334849e-02 3.977979e-02 3.699790e-02 3.498392e-02 3.373984e-02 
3.791733e-02 3.827058e-02 3.952365e-02 4.166948e-02 4.469764e-02 4.862140e-02 5.346456e-02 5.928194e-02 6.614218e-02 7.413095e-02 8.335487e-02 9.393885e-02 1.061202e-01 1.202630e-01 1.369780e-01 1.569228e-01 1.807372e-01 2.085512e-01 2.399667e-01 2.738674e-01 3.069925e-01 3.323677e-01 3.432926e-01 3.399917e-01 3.288142e-01 3.170493e-01 3.093177e-01 3.060950e-01 3.052527e-01 3.056336e-01 3.063611e-01 3.067601e-01 3.067787e-01 3.065124e-01 3.058373e-01 3.048995e-01 3.042691e-01 3.047321e-01 3.077374e-01 3.150163e-01 3.265078e-01 3.381352e-01 3.435940e-01 3.359134e-01 3.130779e-01 2.807429e-01 2.464175e-01 2.143664e-01 1.859760e-01 1.616621e-01 1.412878e-01 1.242219e-01 1.097689e-01 9.729307e-02 8.639269e-02 7.682400e-02 6.846175e-02 6.122771e-02 5.504567e-02 4.986855e-02 4.564058e-02 4.234290e-02 3.995377e-02 3.847929e-02 
4.284909e-02 4.327675e-02 4.477222e-02 4.732461e-02 5.091450e-02 5.555358e-02 6.126130e-02 6.809662e-02 7.612620e-02 8.543754e-02 9.613911e-02 1.083694e-01 1.224373e-01 1.388229e-01 1.583512e-01 1.818055e-01 2.099192e-01 2.425308e-01 2.786358e-01 3.136000e-01 3.367633e-01 3.407854e-01 3.289979e-01 3.122031e-01 2.973211e-01 2.861470e-01 2.792305e-01 2.764013e-01 2.761474e-01 2.771489e-01 2.783962e-01 2.791998e-01 2.793872e-01 2.789849e-01 2.779652e-01 2.765286e-01 2.753432e-01 2.753421e-01 2.781218e-01 2.847528e-01 2.953571e-01 3.092970e-01 3.258328e-01 3.394320e-01 3.394790e-01 3.201415e-01 2.865476e-01 2.499218e-01 2.165398e-01 1.877133e-01 1.636238e-01 1.436078e-01 1.268213e-01 1.123916e-01 9.978092e-02 8.866174e-02 7.888983e-02 7.039809e-02 6.311220e-02 5.699753e-02 5.199359e-02 4.808751e-02 4.525540e-02 4.350995e-02 
4.799665e-02 4.851536e-02 5.029973e-02 5.333310e-02 5.758409e-02 6.305877e-02 6.976761e-02 7.776970e-02 8.712200e-02 9.790851e-02 1.102356e-01 1.242630e-01 1.403986e-01 1.592896e-01 1.819741e-01 2.094091e-01 2.421785e-01 2.795708e-01 3.165430e-01 3.388773e-01 3.383663e-01 3.214964e-01 3.009125e-01 2.825815e-01 2.678150e-01 2.571955e-01 2.510714e-01 2.488613e-01 2.490410e-01 2.503784e-01 2.518389e-01 2.528013e-01 2.530738e-01 2.526382e-01 2.515356e-01 2.499649e-01 2.485672e-01 2.482497e-01 2.504127e-01 2.561878e-01 2.661947e-01 2.800601e-01 2.975578e-01 3.176151e-01 3.357724e-01 3.409317e-01 3.234784e-01 2.880877e-01 2.503071e-01 2.166423e-01 1.883061e-01 1.649528e-01 1.455620e-01 1.289927e-01 1.145185e-01 1.016991e-01 9.035571e-02 8.044309e-02 7.189413e-02 6.469820e-02 5.879389e-02 5.417905e-02 5.083071e-02 4.877014e-02 
5.327949e-02 5.390796e-02 5.603084e-02 5.962378e-02 6.463851e-02 7.107175e-02 7.891581e-02 8.822629e-02 9.903636e-02 1.114258e-01 1.254905e-01 1.414325e-01 1.597965e-01 1.814183e-01 2.076304e-01 2.393759e-01 2.767552e-01 3.152717e-01 3.397016e-01 3.383231e-01 3.191126e-01 2.957049e-01 2.740586e-01 2.558077e-01 2.416348e-01 2.317234e-01 2.258776e-01 2.235036e-01 2.233911e-01 2.244273e-01 2.256992e-01 2.266069e-01 2.268962e-01 2.264999e-01 2.255151e-01 2.241869e-01 2.231454e-01 2.231819e-01 2.254974e-01 2.310081e-01 2.403477e-01 2.535913e-01 2.708617e-01 2.915388e-01 3.143395e-01 3.352138e-01 3.419636e-01 3.229453e-01 2.860284e-01 2.478495e-01 2.150064e-01 1.879834e-01 1.657944e-01 1.469216e-01 1.304575e-01 1.158129e-01 1.027536e-01 9.127183e-02 8.130731e-02 7.289084e-02 6.596195e-02 6.053812e-02 5.659926e-02 5.417918e-02 
5.861143e-02 5.936969e-02 6.188302e-02 6.611603e-02 7.199840e-02 7.951203e-02 8.862086e-02 9.936946e-02 1.117531e-01 1.258417e-01 1.417197e-01 1.596408e-01 1.803411e-01 2.048044e-01 2.346495e-01 2.709089e-01 3.109140e-01 3.397206e-01 3.411809e-01 3.207871e-01 2.954351e-01 2.713844e-01 2.501333e-01 2.324513e-01 2.187181e-01 2.090048e-01 2.030526e-01 2.002349e-01 1.995564e-01 2.000745e-01 2.009700e-01 2.016836e-01 2.019340e-01 2.016287e-01 2.008866e-01 1.999700e-01 1.994623e-01 2.000663e-01 2.027642e-01 2.083458e-01 2.174687e-01 2.303244e-01 2.470284e-01 2.672660e-01 2.904219e-01 3.156410e-01 3.382398e-01 3.430264e-01 3.195993e-01 2.801729e-01 2.428802e-01 2.121480e-01 1.871090e-01 1.658685e-01 1.473504e-01 1.308058e-01 1.159244e-01 1.027517e-01 9.123855e-02 8.147331e-02 7.340330e-02 6.707382e-02 6.247257e-02 5.964958e-02 
6.388980e-02 6.479853e-02 6.775181e-02 7.269959e-02 7.954276e-02 8.824278e-02 9.872099e-02 1.110044e-01 1.250249e-01 1.408504e-01 1.585258e-01 1.784097e-01 2.014001e-01 2.286382e-01 2.621006e-01 3.020700e-01 3.373417e-01 3.463317e-01 3.278147e-01 3.002397e-01 2.738554e-01 2.502601e-01 2.296737e-01 2.125816e-01 1.991380e-01 1.893451e-01 1.829058e-01 1.793011e-01 1.777466e-01 1.774587e-01 1.777537e-01 1.781169e-01 1.782676e-01 1.780959e-01 1.777273e-01 1.774181e-01 1.776984e-01 1.791591e-01 1.825918e-01 1.886383e-01 1.978623e-01 2.104960e-01 2.266859e-01 2.463196e-01 2.690382e-01 2.947011e-01 3.221547e-01 3.445586e-01 3.425652e-01 3.117701e-01 2.717277e-01 2.370048e-01 2.090875e-01 1.854397e-01 1.648156e-01 1.463522e-01 1.295818e-01 1.146466e-01 1.014894e-01 9.028041e-02 8.097670e-02 7.366276e-02 6.833842e-02 6.507602e-02 
6.901451e-02 7.009356e-02 7.353143e-02 7.925878e-02 8.714207e-02 9.711503e-02 1.090451e-01 1.229312e-01 1.386200e-01 1.561805e-01 1.756058e-01 1.973937e-01 2.227171e-01 2.525437e-01 2.902857e-01 3.302745e-01 3.508299e-01 3.393675e-01 3.108685e-01 2.822299e-01 2.562238e-01 2.332578e-01 2.132902e-01 1.965172e-01 1.830148e-01 1.727766e-01 1.655828e-01 1.610096e-01 1.584571e-01 1.572812e-01 1.568992e-01 1.568507e-01 1.568685e-01 1.568421e-01 1.568859e-01 1.572398e-01 1.583701e-01 1.607835e-01 1.651264e-01 1.719069e-01 1.815873e-01 1.943466e-01 2.103089e-01 2.293869e-01 2.515162e-01 2.766190e-01 3.046549e-01 3.339423e-01 3.515417e-01 3.381656e-01 3.005961e-01 2.617813e-01 2.310562e-01 2.051192e-01 1.824399e-01 1.621014e-01 1.434332e-01 1.267063e-01 1.118536e-01 9.913788e-02 8.853680e-02 8.017912e-02 7.408559e-02 7.035427e-02 
7.387364e-02 7.514060e-02 7.909640e-02 8.564789e-02 9.462233e-02 1.059185e-01 1.193403e-01 1.348481e-01 1.521737e-01 1.713964e-01 1.923777e-01 2.158816e-01 2.431245e-01 2.755208e-01 3.163946e-01 3.496916e-01 3.527481e-01 3.269653e-01 2.968858e-01 2.686167e-01 2.433545e-01 2.208550e-01 2.011422e-01 1.842834e-01 1.703607e-01 1.593908e-01 1.512244e-01 1.455467e-01 1.418958e-01 1.397471e-01 1.386153e-01 1.380970e-01 1.379544e-01 1.380813e-01 1.385784e-01 1.396562e-01 1.417163e-01 1.451843e-01 1.505890e-01 1.583302e-01 1.687589e-01 1.819994e-01 1.981109e-01 2.170231e-01 2.386950e-01 2.631813e-01 2.906815e-01 3.206841e-01 3.492187e-01 3.540690e-01 3.267185e-01 2.857690e-01 2.518585e-01 2.242177e-01 1.995640e-01 1.775136e-01 1.570077e-01 1.385456e-01 1.220194e-01 1.077985e-01 9.588688e-02 8.646316e-02 7.957969e-02 7.536558e-02 
7.836574e-02 7.983331e-02 8.432522e-02 9.171989e-02 1.018039e-01 1.144355e-01 1.293540e-01 1.464720e-01 1.653870e-01 1.861985e-01 2.085024e-01 2.335413e-01 2.619618e-01 2.975264e-01 3.386893e-01 3.605530e-01 3.477851e-01 3.170471e-01 2.873126e-01 2.599844e-01 2.352205e-01 2.129334e-01 1.930626e-01 1.757469e-01 1.610863e-01 1.491583e-01 1.398857e-01 1.330408e-01 1.282698e-01 1.251451e-01 1.232611e-01 1.222692e-01 1.219576e-01 1.222314e-01 1.231737e-01 1.249694e-01 1.279621e-01 1.325133e-01 1.390543e-01 1.478949e-01 1.592997e-01 1.733232e-01 1.899529e-01 2.090826e-01 2.305831e-01 2.546218e-01 2.810350e-01 3.106012e-01 3.411623e-01 3.615240e-01 3.476226e-01 3.088449e-01 2.716257e-01 2.425898e-01 2.159484e-01 1.922479e-01 1.699846e-01 1.498561e-01 1.317270e-01 1.160365e-01 1.028437e-01 9.236347e-02 8.469691e-02 8.000292e-02 
8.238367e-02 8.405643e-02 8.907817e-02 9.729726e-02 1.084675e-01 1.223965e-01 1.387795e-01 1.574579e-01 1.779316e-01 2.002740e-01 2.238239e-01 2.501956e-01 2.791929e-01 3.174099e-01 3.556276e-01 3.653795e-01 3.414216e-01 3.115166e-01 2.823330e-01 2.558477e-01 2.312433e-01 2.088112e-01 1.884442e-01 1.703847e-01 1.547811e-01 1.417684e-01 1.313332e-01 1.233196e-01 1.174529e-01 1.133834e-01 1.107710e-01 1.093175e-01 1.088386e-01 1.092511e-01 1.106239e-01 1.131176e-01 1.170224e-01 1.226447e-01 1.303404e-01 1.403517e-01 1.528716e-01 1.678890e-01 1.853274e-01 2.050006e-01 2.267010e-01 2.505068e-01 2.761115e-01 3.045926e-01 3.339588e-01 3.628915e-01 3.618056e-01 3.286967e-01 2.895559e-01 2.590469e-01 2.308177e-01 2.055911e-01 1.818340e-01 1.601909e-01 1.406240e-01 1.235716e-01 1.091885e-01 9.771032e-02 8.930275e-02 8.415306e-02 
8.583443e-02 8.770298e-02 9.321978e-02 1.022027e-01 1.143822e-01 1.295101e-01 1.472702e-01 1.674077e-01 1.894190e-01 2.132346e-01 2.381727e-01 2.657157e-01 2.953482e-01 3.339724e-01 3.668445e-01 3.662453e-01 3.376888e-01 3.092891e-01 2.810709e-01 2.550422e-01 2.304150e-01 2.075881e-01 1.865447e-01 1.675977e-01 1.509705e-01 1.368499e-01 1.252821e-01 1.161646e-01 1.092843e-01 1.043506e-01 1.010746e-01 9.920087e-02 9.856726e-02 9.910395e-02 1.008684e-01 1.039992e-01 1.087447e-01 1.153666e-01 1.241656e-01 1.353284e-01 1.489985e-01 1.650995e-01 1.835079e-01 2.039321e-01 2.261256e-01 2.499728e-01 2.752710e-01 3.026152e-01 3.311561e-01 3.615827e-01 3.708414e-01 3.443417e-01 3.053616e-01 2.730752e-01 2.438063e-01 2.171925e-01 1.922426e-01 1.692576e-01 1.484476e-01 1.301773e-01 1.147353e-01 1.023564e-01 9.328077e-02 8.771884e-02 
8.862838e-02 9.066949e-02 9.661678e-02 1.062593e-01 1.193141e-01 1.354760e-01 1.544474e-01 1.758581e-01 1.993052e-01 2.244381e-01 2.508998e-01 2.794215e-01 3.103534e-01 3.476784e-01 3.743393e-01 3.653989e-01 3.363173e-01 3.085617e-01 2.815296e-01 2.558618e-01 2.312713e-01 2.080209e-01 1.863184e-01 1.665100e-01 1.489290e-01 1.338012e-01 1.212310e-01 1.111558e-01 1.034081e-01 9.774107e-02 9.390385e-02 9.167499e-02 9.091071e-02 9.155345e-02 9.365066e-02 9.732445e-02 1.027909e-01 1.102786e-01 1.200488e-01 1.322470e-01 1.469833e-01 1.641192e-01 1.835059e-01 2.047234e-01 2.275355e-01 2.515541e-01 2.768115e-01 3.032115e-01 3.311272e-01 3.597812e-01 3.763149e-01 3.563607e-01 3.185360e-01 2.845623e-01 2.546431e-01 2.268351e-01 2.009267e-01 1.767854e-01 1.549379e-01 1.356339e-01 1.193020e-01 1.061590e-01 9.651853e-02 9.060712e-02 
9.069135e-02 9.286761e-02 9.914918e-02 1.093006e-01 1.230330e-01 1.399894e-01 1.599040e-01 1.822921e-01 2.068917e-01 2.330245e-01 2.607873e-01 2.899257e-01 3.222239e-01 3.579533e-01 3.790723e-01 3.641309e-01 3.362080e-01 3.088956e-01 2.828519e-01 2.574159e-01 2.328646e-01 2.092331e-01 1.869789e-01 1.664480e-01 1.480853e-01 1.321428e-01 1.187759e-01 1.079488e-01 9.952744e-02 9.329459e-02 8.902616e-02 8.652478e-02 8.565997e-02 8.638437e-02 8.873772e-02 9.283034e-02 9.885619e-02 1.070204e-01 1.175590e-01 1.305862e-01 1.461918e-01 1.641836e-01 1.843958e-01 2.062867e-01 2.296271e-01 2.537687e-01 2.789077e-01 3.044380e-01 3.314877e-01 3.585312e-01 3.791741e-01 3.647152e-01 3.284159e-01 2.935676e-01 2.631159e-01 2.343255e-01 2.075938e-01 1.825025e-01 1.598343e-01 1.397255e-01 1.227130e-01 1.089860e-01 9.891582e-02 9.273882e-02 
9.195995e-02 9.422255e-02 1.007174e-01 1.111928e-01 1.253569e-01 1.428178e-01 1.633353e-01 1.863465e-01 2.117016e-01 2.384800e-01 2.671074e-01 2.966049e-01 3.296568e-01 3.641934e-01 3.815225e-01 3.631936e-01 3.361856e-01 3.092559e-01 2.838782e-01 2.586234e-01 2.341304e-01 2.102609e-01 1.876588e-01 1.666600e-01 1.477952e-01 1.313307e-01 1.174583e-01 1.061578e-01 9.731528e-02 9.073043e-02 8.619460e-02 8.352462e-02 8.259805e-02 8.337388e-02 8.588728e-02 9.024180e-02 9.661893e-02 1.052103e-01 1.162384e-01 1.297983e-01 1.459693e-01 1.645198e-01 1.852755e-01 2.075991e-01 2.312647e-01 2.554304e-01 2.803780e-01 3.052402e-01 3.315488e-01 3.578835e-01 3.807076e-01 3.698965e-01 3.349199e-01 2.998064e-01 2.688507e-01 2.393077e-01 2.119322e-01 1.861610e-01 1.629325e-01 1.422936e-01 1.248421e-01 1.107409e-01 1.003970e-01 9.405087e-02 
9.238976e-02 9.468236e-02 1.012502e-01 1.118358e-01 1.261471e-01 1.437791e-01 1.645024e-01 1.877272e-01 2.133546e-01 2.403671e-01 2.693316e-01 2.989756e-01 3.322915e-01 3.663435e-01 3.822557e-01 3.628821e-01 3.361621e-01 3.094234e-01 2.843000e-01 2.591300e-01 2.346660e-01 2.107152e-01 1.879887e-01 1.668209e-01 1.477745e-01 1.311219e-01 1.170683e-01 1.055990e-01 9.660726e-02 8.989820e-02 8.526837e-02 8.253909e-02 8.159062e-02 8.238415e-02 8.495343e-02 8.939946e-02 9.589992e-02 1.046418e-01 1.158434e-01 1.295930e-01 1.459666e-01 1.647190e-01 1.856715e-01 2.081537e-01 2.319388e-01 2.561181e-01 2.810062e-01 3.056549e-01 3.317368e-01 3.578420e-01 3.811821e-01 3.715028e-01 3.370943e-01 3.019939e-01 2.708366e-01 2.410159e-01 2.133998e-01 1.873890e-01 1.639691e-01 1.431537e-01 1.255563e-01 1.113310e-01 1.008960e-01 9.449410e-02 
9.195995e-02 9.422255e-02 1.007174e-01 1.111928e-01 1.253569e-01 1.428178e-01 1.633353e-01 1.863465e-01 2.117016e-01 2.384800e-01 2.671074e-01 2.966049e-01 3.296568e-01 3.641934e-01 3.815225e-01 3.631936e-01 3.361856e-01 3.092559e-01 2.838782e-01 2.586234e-01 2.341304e-01 2.102609e-01 1.876588e-01 1.666600e-01 1.477952e-01 1.313307e-01 1.174583e-01 1.061578e-01 9.731528e-02 9.073043e-02 8.619460e-02 8.352462e-02 8.259805e-02 8.337388e-02 8.588728e-02 9.024180e-02 9.661893e-02 1.052103e-01 1.162384e-01 1.297983e-01 1.459693e-01 1.645198e-01 1.852755e-01 2.075991e-01 2.312647e-01 2.554304e-01 2.803780e-01 3.052402e-01 3.315488e-01 3.578835e-01 3.807076e-01 3.698965e-01 3.349199e-01 2.998064e-01 2.688507e-01 2.393077e-01 2.119322e-01 1.861610e-01 1.629325e-01 1.422936e-01 1.248421e-01 1.107409e-01 1.003970e-01 9.405087e-02 
9.069135e-02 9.286761e-02 9.914918e-02 1.093006e-01 1.230330e-01 1.399894e-01 1.599040e-01 1.822921e-01 2.068917e-01 2.330245e-01 2.607873e-01 2.899257e-01 3.222239e-01 3.579533e-01 3.790723e-01 3.641309e-01 3.362080e-01 3.088956e-01 2.828519e-01 2.574159e-01 2.328646e-01 2.092331e-01 1.869789e-01 1.664480e-01 1.480853e-01 1.321428e-01 1.187759e-01 1.079488e-01 9.952744e-02 9.329459e-02 8.902616e-02 8.652478e-02 8.565997e-02 8.638437e-02 8.873772e-02 9.283034e-02 9.885619e-02 1.070204e-01 1.175590e-01 1.305862e-01 1.461918e-01 1.641836e-01 1.843958e-01 2.062867e-01 2.296271e-01 2.537687e-01 2.789077e-01 3.044380e-01 3.314877e-01 3.585312e-01 3.791741e-01 3.647152e-01 3.284159e-01 2.935676e-01 2.631159e-01 2.343255e-01 2.075938e-01 1.825025e-01 1.598343e-01 1.397255e-01 1.227130e-01 1.089860e-01 9.891582e-02 9.273882e-02 