# vtk DataFile Version 2.0
Comment goes here
ASCII

DATASET STRUCTURED_POINTS
FIELD FieldData 1
TIME 1 1 double
0.50000000
DIMENSIONS    64   64   1

ORIGIN    0.000   0.000   0.000
SPACING   0.015625 0.015625   1.000

POINT_DATA   4096
SCALARS Concentration double
LOOKUP_TABLE default

2.947080e-05 3.142068e-05 3.742354e-05 4.782036e-05 6.318483e-05 8.430438e-05 1.121551e-04 1.478812e-04 1.927695e-04 2.482413e-04 3.158561e-04 3.973655e-04 4.948228e-04 6.107880e-04 7.486378e-04 9.129669e-04 1.110091e-03 1.348536e-03 1.639545e-03 1.997280e-03 2.438705e-03 2.982521e-03 3.646953e-03 4.445423e-03 5.381848e-03 6.445192e-03 7.604472e-03 8.806886e-03 9.978852e-03 1.103279e-02 1.187659e-02 1.242681e-02 1.262095e-02 1.242733e-02 1.187741e-02 1.103371e-02 9.979917e-03 8.807991e-03 7.605686e-03 6.446472e-03 5.383213e-03 4.446899e-03 3.648529e-03 2.984245e-03 2.440543e-03 1.999261e-03 1.641611e-03 1.350662e-03 1.112202e-03 9.150206e-04 7.505733e-04 6.125715e-04 4.964220e-04 3.987684e-04 3.170582e-04 2.492500e-04 1.935980e-04 1.485472e-04 1.126786e-04 8.470489e-05 6.348123e-05 4.802819e-05 3.755570e-05 3.148519e-05 
3.313333e-05 3.530908e-05 4.200787e-05 5.360521e-05 7.073285e-05 9.425691e-05 1.252484e-04 1.649586e-04 2.147857e-04 2.762605e-04 3.510409e-04 4.409583e-04 5.481237e-04 6.751326e-04 8.253886e-04 1.003521e-03 1.215923e-03 1.471285e-03 1.781159e-03 2.160245e-03 2.626382e-03 3.199652e-03 3.900394e-03 4.743616e-03 5.734967e-03 6.864687e-03 8.101715e-03 9.391146e-03 1.065443e-02 1.179621e-02 1.271436e-02 1.331507e-02 1.352750e-02 1.331579e-02 1.271555e-02 1.179758e-02 1.065602e-02 9.392760e-03 8.103428e-03 6.866411e-03 5.736747e-03 4.745472e-03 3.902333e-03 3.201726e-03 2.628555e-03 2.162570e-03 1.783577e-03 1.473769e-03 1.218388e-03 1.005915e-03 8.276428e-04 6.772077e-04 5.499821e-04 4.425868e-04 3.524343e-04 2.774281e-04 2.157434e-04 1.657274e-04 1.258520e-04 9.471808e-05 7.107376e-05 5.384406e-05 4.215966e-05 3.538317e-05 
4.459165e-05 4.747165e-05 5.633868e-05 7.167637e-05 9.429782e-05 1.253154e-04 1.660980e-04 2.182325e-04 2.834689e-04 3.636823e-04 4.608397e-04 5.770193e-04 7.145022e-04 8.759732e-04 1.064882e-03 1.285907e-03 1.545613e-03 1.853093e-03 2.220755e-03 2.664823e-03 3.205663e-03 3.867234e-03 4.675471e-03 5.650302e-03 6.802440e-03 8.125762e-03 9.588918e-03 1.113079e-02 1.265839e-02 1.405388e-02 1.518642e-02 1.593253e-02 1.619761e-02 1.593391e-02 1.518882e-02 1.405675e-02 1.266171e-02 1.113410e-02 9.592299e-03 8.128988e-03 6.805619e-03 5.653435e-03 4.678629e-03 3.870484e-03 3.208980e-03 2.668309e-03 2.224347e-03 1.856756e-03 1.549229e-03 1.289407e-03 1.068164e-03 8.789842e-04 7.171883e-04 5.793646e-04 4.628380e-04 3.653502e-04 2.848310e-04 2.193216e-04 1.669496e-04 1.259637e-04 9.477550e-05 7.201012e-05 5.655025e-05 4.757469e-05 
6.540364e-05 6.955154e-05 8.232570e-05 1.044055e-04 1.369334e-04 1.814706e-04 2.399308e-04 3.145172e-04 4.076268e-04 5.217682e-04 6.594713e-04 8.232476e-04 1.015647e-03 1.239430e-03 1.497996e-03 1.795909e-03 2.139773e-03 2.539072e-03 3.007354e-03 3.563105e-03 4.230653e-03 5.040186e-03 6.026299e-03 7.216795e-03 8.630341e-03 1.026649e-02 1.209315e-02 1.403920e-02 1.598862e-02 1.778800e-02 1.926128e-02 2.023830e-02 2.058708e-02 2.024085e-02 1.926581e-02 1.779352e-02 1.599499e-02 1.404549e-02 1.209943e-02 1.027230e-02 8.635922e-03 7.222132e-03 6.031583e-03 5.045525e-03 4.236042e-03 3.568716e-03 3.013110e-03 2.544923e-03 2.145535e-03 1.801475e-03 1.503204e-03 1.244199e-03 1.019888e-03 8.269416e-04 6.626082e-04 5.243783e-04 4.097505e-04 3.162096e-04 2.412495e-04 1.824716e-04 1.376688e-04 1.049181e-04 8.265007e-05 6.970937e-05 
9.819992e-05 1.043244e-04 1.231908e-04 1.557872e-04 2.037758e-04 2.694293e-04 3.555299e-04 4.652675e-04 6.020797e-04 7.694920e-04 9.709270e-04 1.209552e-03 1.488255e-03 1.809748e-03 2.177066e-03 2.594179e-03 3.067209e-03 3.605560e-03 4.223739e-03 4.942779e-03 5.792002e-03 6.809717e-03 8.042328e-03 9.527655e-03 1.129478e-02 1.335076e-02 1.566252e-02 1.814573e-02 2.065406e-02 2.298745e-02 2.491053e-02 2.619215e-02 2.665145e-02 2.619663e-02 2.491863e-02 2.299743e-02 2.066557e-02 1.815702e-02 1.567361e-02 1.336082e-02 1.130428e-02 9.536586e-03 8.051087e-03 6.818489e-03 5.800803e-03 4.951900e-03 4.233070e-03 3.615031e-03 3.076522e-03 2.603166e-03 2.185459e-03 1.817421e-03 1.495064e-03 1.215466e-03 9.759326e-04 7.736425e-04 6.054437e-04 4.679381e-04 3.576027e-04 2.709972e-04 2.049238e-04 1.565853e-04 1.236946e-04 1.045690e-04 
1.466900e-04 1.556959e-04 1.834543e-04 2.314097e-04 3.019970e-04 3.985530e-04 5.251657e-04 6.865211e-04 8.876401e-04 1.133599e-03 1.429165e-03 1.778449e-03 2.184722e-03 2.650359e-03 3.177438e-03 3.768412e-03 4.427884e-03 5.164099e-03 5.991803e-03 6.934320e-03 8.026664e-03 9.317056e-03 1.086584e-02 1.272212e-02 1.492655e-02 1.749448e-02 2.039062e-02 2.351477e-02 2.668479e-02 2.964679e-02 3.209720e-02 3.373520e-02 3.432409e-02 3.374267e-02 3.211085e-02 2.966379e-02 2.670434e-02 2.353376e-02 2.040894e-02 1.751076e-02 1.494171e-02 1.273622e-02 1.087965e-02 9.330875e-03 8.040521e-03 6.948680e-03 6.006499e-03 5.179040e-03 4.442588e-03 3.782619e-03 3.190709e-03 2.662494e-03 2.195481e-03 1.787786e-03 1.437054e-03 1.140127e-03 8.929177e-04 6.907001e-04 5.284007e-04 4.009938e-04 3.037802e-04 2.326470e-04 1.842343e-04 1.560745e-04 
2.156486e-04 2.286903e-04 2.689090e-04 3.384021e-04 4.407115e-04 5.807097e-04 7.643821e-04 9.986059e-04 1.290735e-03 1.648136e-03 2.077545e-03 2.584394e-03 3.172351e-03 3.842971e-03 4.596394e-03 5.432083e-03 6.351415e-03 7.359706e-03 8.470535e-03 9.708726e-03 1.111515e-02 1.274893e-02 1.468703e-02 1.698926e-02 1.970790e-02 2.286643e-02 2.642567e-02 3.026717e-02 3.416922e-02 3.782020e-02 4.084436e-02 4.286837e-02 4.359793e-02 4.288057e-02 4.086687e-02 3.784858e-02 3.420179e-02 3.029845e-02 2.645517e-02 2.289200e-02 1.973137e-02 1.701090e-02 1.470820e-02 1.277016e-02 1.113645e-02 9.730834e-03 8.493172e-03 7.382777e-03 6.374151e-03 5.454094e-03 4.616971e-03 3.861795e-03 3.189032e-03 2.598851e-03 2.089734e-03 1.658196e-03 1.298845e-03 1.005006e-03 7.693197e-04 5.844227e-04 4.434160e-04 3.402736e-04 2.700863e-04 2.292607e-04 
3.108826e-04 3.293953e-04 3.865310e-04 4.852940e-04 6.307712e-04 8.299952e-04 1.091639e-03 1.425717e-03 1.842934e-03 2.353974e-03 2.968396e-03 3.693485e-03 4.533298e-03 5.487874e-03 6.554034e-03 7.726171e-03 9.000142e-03 1.037586e-02 1.186407e-02 1.348994e-02 1.530067e-02 1.736775e-02 1.978561e-02 2.262268e-02 2.593939e-02 2.976383e-02 3.404679e-02 3.864871e-02 4.330719e-02 4.765576e-02 5.125205e-02 5.365762e-02 5.452704e-02 5.367714e-02 5.128850e-02 4.770232e-02 4.336041e-02 3.869892e-02 3.409259e-02 2.980212e-02 2.597400e-02 2.265432e-02 1.981668e-02 1.739909e-02 1.533211e-02 1.352266e-02 1.189760e-02 1.041016e-02 9.034036e-03 7.759106e-03 6.584902e-03 5.516175e-03 4.558410e-03 3.715258e-03 2.986750e-03 2.369105e-03 1.855112e-03 1.435306e-03 1.099022e-03 8.355335e-04 6.347968e-04 4.880747e-04 3.882783e-04 3.302414e-04 
4.391375e-04 4.648724e-04 5.443526e-04 6.818141e-04 8.844460e-04 1.162244e-03 1.527596e-03 1.994886e-03 2.579527e-03 3.296869e-03 4.160448e-03 5.180095e-03 6.360269e-03 7.698568e-03 9.186708e-03 1.081138e-02 1.256005e-02 1.442449e-02 1.641069e-02 1.854337e-02 2.087641e-02 2.349414e-02 2.651154e-02 3.000006e-02 3.402239e-02 3.860525e-02 4.368103e-02 4.908371e-02 5.450899e-02 5.954127e-02 6.368229e-02 6.644439e-02 6.744521e-02 6.647508e-02 6.374057e-02 5.961702e-02 5.459548e-02 4.916338e-02 4.375052e-02 3.866057e-02 3.407158e-02 3.004487e-02 2.655590e-02 2.353907e-02 2.092169e-02 1.859064e-02 1.645913e-02 1.447427e-02 1.260940e-02 1.085954e-02 9.231998e-03 7.740193e-03 6.397256e-03 5.212167e-03 4.187467e-03 3.319100e-03 2.597378e-03 2.008900e-03 1.538350e-03 1.170284e-03 8.902724e-04 6.858272e-04 5.468689e-04 4.660886e-04 
6.079927e-04 6.430031e-04 7.512333e-04 9.385478e-04 1.214930e-03 1.594348e-03 2.094201e-03 2.734833e-03 3.538093e-03 4.525786e-03 5.716900e-03 7.124795e-03 8.754370e-03 1.059977e-02 1.264552e-02 1.486764e-02 1.724244e-02 1.975089e-02 2.239395e-02 2.519592e-02 2.822049e-02 3.156670e-02 3.537181e-02 3.970073e-02 4.460169e-02 5.008388e-02 5.603928e-02 6.227130e-02 6.844187e-02 7.410321e-02 7.872336e-02 8.179010e-02 8.290531e-02 8.183696e-02 7.881427e-02 7.422422e-02 6.858006e-02 6.239448e-02 5.613988e-02 5.015844e-02 4.466747e-02 3.976105e-02 3.543278e-02 3.162926e-02 2.828342e-02 2.526170e-02 2.246118e-02 1.982024e-02 1.731144e-02 1.493539e-02 1.270956e-02 1.065891e-02 8.807118e-03 7.170638e-03 5.755574e-03 4.557607e-03 3.563629e-03 2.754845e-03 2.109530e-03 1.605781e-03 1.223198e-03 9.442308e-04 7.547921e-04 6.447226e-04 
8.257084e-04 8.723585e-04 1.016683e-03 1.266655e-03 1.635877e-03 2.143503e-03 2.813521e-03 3.674170e-03 4.755884e-03 6.089110e-03 7.700206e-03 9.607294e-03 1.181600e-02 1.431591e-02 1.708235e-02 2.007783e-02 2.326532e-02 2.661411e-02 3.012125e-02 3.381389e-02 3.776809e-02 4.209796e-02 4.695978e-02 5.239777e-02 5.842605e-02 6.502332e-02 7.201793e-02 7.916909e-02 8.610828e-02 9.237213e-02 9.741566e-02 1.007345e-01 1.019448e-01 1.008021e-01 9.755110e-02 9.255831e-02 8.632227e-02 7.935177e-02 7.215425e-02 6.511474e-02 5.850821e-02 5.247571e-02 4.704130e-02 4.218299e-02 3.785381e-02 3.390365e-02 3.021255e-02 2.670855e-02 2.335968e-02 2.017107e-02 1.717103e-02 1.439819e-02 1.188965e-02 9.671408e-03 7.754335e-03 6.133602e-03 4.791531e-03 3.702027e-03 2.834795e-03 2.159315e-03 1.647274e-03 1.274465e-03 1.021562e-03 8.747115e-04 
1.101117e-03 1.161999e-03 1.350550e-03 1.677393e-03 2.160704e-03 2.826245e-03 3.706442e-03 4.839759e-03 6.267769e-03 8.032327e-03 1.016947e-02 1.270396e-02 1.564256e-02 1.896983e-02 2.264995e-02 2.663029e-02 3.086030e-02 3.529936e-02 3.994765e-02 4.483976e-02 5.007390e-02 5.577456e-02 6.211411e-02 6.909159e-02 7.663163e-02 8.463531e-02 9.281193e-02 1.008999e-01 1.085608e-01 1.153545e-01 1.207461e-01 1.242592e-01 1.255444e-01 1.243493e-01 1.209338e-01 1.156239e-01 1.088729e-01 1.011502e-01 9.297326e-02 8.472717e-02 7.672530e-02 6.918900e-02 6.222195e-02 5.588966e-02 5.018842e-02 4.495896e-02 4.006722e-02 3.542288e-02 3.098399e-02 2.675339e-02 2.276800e-02 1.908015e-02 1.574199e-02 1.279088e-02 1.024311e-02 8.092930e-03 6.316343e-03 4.877674e-03 3.735348e-03 2.847675e-03 2.176115e-03 1.687928e-03 1.357122e-03 1.165167e-03 
1.443543e-03 1.521484e-03 1.763047e-03 2.182122e-03 2.802503e-03 3.658133e-03 4.791954e-03 6.255275e-03 8.103784e-03 1.039394e-02 1.317451e-02 1.647921e-02 2.031744e-02 2.466855e-02 2.948560e-02 3.470080e-02 4.025389e-02 4.610172e-02 5.225694e-02 5.877274e-02 6.576547e-02 7.335065e-02 8.166349e-02 9.059218e-02 9.996655e-02 1.096547e-01 1.192226e-01 1.283493e-01 1.367350e-01 1.439935e-01 1.496252e-01 1.532301e-01 1.545438e-01 1.533364e-01 1.498582e-01 1.443437e-01 1.371438e-01 1.286464e-01 1.193717e-01 1.097186e-01 1.000710e-01 9.071815e-02 8.180754e-02 7.350824e-02 6.591832e-02 5.893006e-02 5.241209e-02 4.626110e-02 4.041372e-02 3.486072e-02 2.964019e-02 2.481391e-02 2.044918e-02 1.659470e-02 1.327253e-02 1.047458e-02 8.168350e-03 6.305541e-03 4.830164e-03 3.686354e-03 2.822725e-03 2.195898e-03 1.771617e-03 1.525606e-03 
1.862781e-03 1.960695e-03 2.264455e-03 2.791841e-03 3.573371e-03 4.652855e-03 6.085985e-03 7.939855e-03 1.028760e-02 1.320430e-02 1.675507e-02 2.098651e-02 2.591253e-02 3.150953e-02 3.771992e-02 4.446557e-02 5.168331e-02 5.933876e-02 6.747052e-02 7.614750e-02 8.550311e-02 9.557811e-02 1.064613e-01 1.179042e-01 1.295082e-01 1.409725e-01 1.516535e-01 1.614032e-01 1.701652e-01 1.776238e-01 1.833283e-01 1.869344e-01 1.882386e-01 1.870469e-01 1.835840e-01 1.780196e-01 1.706188e-01 1.616813e-01 1.517246e-01 1.409799e-01 1.296498e-01 1.180907e-01 1.066656e-01 9.579966e-02 8.570620e-02 7.635145e-02 6.766626e-02 5.953712e-02 5.188174e-02 4.466488e-02 3.791452e-02 3.169411e-02 2.608136e-02 2.113541e-02 1.688208e-02 1.330900e-02 1.037152e-02 8.005116e-03 6.135504e-03 4.689320e-03 3.599419e-03 2.809530e-03 2.275435e-03 1.965971e-03 
2.369238e-03 2.490212e-03 2.865720e-03 3.518082e-03 4.485614e-03 5.823668e-03 7.602917e-03 9.909254e-03 1.283691e-02 1.648408e-02 2.093718e-02 2.626038e-02 3.247668e-02 3.956223e-02 4.745504e-02 5.607256e-02 6.536282e-02 7.531017e-02 8.598119e-02 9.746053e-02 1.098428e-01 1.230361e-01 1.368604e-01 1.505677e-01 1.638417e-01 1.767212e-01 1.885261e-01 1.989773e-01 2.078489e-01 2.149886e-01 2.202664e-01 2.235038e-01 2.246461e-01 2.236191e-01 2.205122e-01 2.153346e-01 2.082028e-01 1.991385e-01 1.885181e-01 1.767437e-01 1.641083e-01 1.508550e-01 1.371333e-01 1.233374e-01 1.101052e-01 9.771998e-02 8.622794e-02 7.555746e-02 6.561006e-02 5.632079e-02 4.769887e-02 3.979441e-02 3.269014e-02 2.644905e-02 2.109841e-02 1.661691e-02 1.294325e-02 9.991697e-03 7.665256e-03 5.869362e-03 4.518109e-03 3.540048e-03 2.879306e-03 2.496722e-03 
2.973891e-03 3.121023e-03 3.578029e-03 4.372320e-03 5.550992e-03 7.182438e-03 9.354421e-03 1.217461e-02 1.576218e-02 2.024396e-02 2.573353e-02 3.232029e-02 4.004091e-02 4.887938e-02 5.877280e-02 6.964891e-02 8.146838e-02 9.423534e-02 1.080123e-01 1.228402e-01 1.387115e-01 1.551306e-01 1.719069e-01 1.883787e-01 2.036397e-01 2.167841e-01 2.268470e-01 2.342254e-01 2.392827e-01 2.427118e-01 2.450275e-01 2.463345e-01 2.468025e-01 2.464206e-01 2.451943e-01 2.429069e-01 2.394065e-01 2.342517e-01 2.268813e-01 2.169495e-01 2.040487e-01 1.887340e-01 1.722363e-01 1.555216e-01 1.390289e-01 1.231528e-01 1.083123e-01 9.453291e-02 8.176573e-02 6.994645e-02 5.906731e-02 4.916167e-02 4.030283e-02 3.255318e-02 2.593358e-02 2.040909e-02 1.589444e-02 1.227695e-02 9.431563e-03 7.238724e-03 5.590824e-03 4.399112e-03 3.594537e-03 3.128918e-03 
3.688663e-03 3.865386e-03 4.414296e-03 5.368383e-03 6.784214e-03 8.744379e-03 1.135523e-02 1.474873e-02 1.907247e-02 2.448772e-02 3.114250e-02 3.915956e-02 4.859780e-02 5.945400e-02 7.167882e-02 8.521187e-02 1.000402e-01 1.161463e-01 1.335419e-01 1.522087e-01 1.720404e-01 1.926517e-01 2.121523e-01 2.277698e-01 2.379989e-01 2.429468e-01 2.438763e-01 2.424811e-01 2.400776e-01 2.380309e-01 2.365740e-01 2.356470e-01 2.353883e-01 2.356565e-01 2.365852e-01 2.380328e-01 2.400145e-01 2.423644e-01 2.438643e-01 2.431173e-01 2.381977e-01 2.280032e-01 2.125132e-01 1.930952e-01 1.724147e-01 1.525784e-01 1.339188e-01 1.165178e-01 1.004116e-01 8.557889e-02 7.204015e-02 5.979841e-02 4.891697e-02 3.944290e-02 3.138582e-02 2.468816e-02 1.923261e-02 1.487208e-02 1.144772e-02 8.811410e-03 6.831319e-03 5.399842e-03 4.433565e-03 3.874560e-03 
4.525873e-03 4.735887e-03 5.387996e-03 6.520943e-03 8.201077e-03 1.052551e-02 1.361989e-02 1.764175e-02 2.277021e-02 2.920712e-02 3.714337e-02 4.674677e-02 5.810498e-02 7.124109e-02 8.612017e-02 1.027217e-01 1.210384e-01 1.410460e-01 1.626313e-01 1.858073e-01 2.098581e-01 2.307178e-01 2.436702e-01 2.472091e-01 2.433342e-01 2.353490e-01 2.266201e-01 2.191953e-01 2.135550e-01 2.099108e-01 2.078705e-01 2.068300e-01 2.065321e-01 2.067735e-01 2.077355e-01 2.097184e-01 2.133818e-01 2.191204e-01 2.266008e-01 2.353553e-01 2.431982e-01 2.471929e-01 2.439057e-01 2.311193e-01 2.103309e-01 1.862609e-01 1.631216e-01 1.415061e-01 1.214883e-01 1.031571e-01 8.654753e-02 7.164829e-02 5.848415e-02 4.708478e-02 3.743473e-02 2.944728e-02 2.296177e-02 1.778860e-02 1.372926e-02 1.060408e-02 8.255761e-03 6.557110e-03 5.409961e-03 4.746280e-03 
5.498745e-03 5.746974e-03 6.516036e-03 7.850395e-03 9.825799e-03 1.255310e-02 1.617588e-02 2.087703e-02 2.686773e-02 3.439663e-02 4.370573e-02 5.502079e-02 6.846761e-02 8.410111e-02 1.019250e-01 1.219572e-01 1.442848e-01 1.687997e-01 1.952918e-01 2.222939e-01 2.427994e-01 2.506192e-01 2.455284e-01 2.329172e-01 2.186335e-01 2.058137e-01 1.959673e-01 1.892398e-01 1.848310e-01 1.821534e-01 1.807313e-01 1.800330e-01 1.798228e-01 1.799389e-01 1.805338e-01 1.819133e-01 1.846803e-01 1.892959e-01 1.960080e-01 2.056786e-01 2.182802e-01 2.326406e-01 2.454095e-01 2.506672e-01 2.431153e-01 2.228288e-01 1.959524e-01 1.693941e-01 1.448545e-01 1.225002e-01 1.024457e-01 8.458742e-02 6.891485e-02 5.541677e-02 4.404622e-02 3.467630e-02 2.708980e-02 2.104595e-02 1.630043e-02 1.264140e-02 9.886393e-03 7.889883e-03 6.539612e-03 5.757915e-03 
6.619313e-03 6.912251e-03 7.816188e-03 9.380291e-03 1.168820e-02 1.486130e-02 1.905721e-02 2.448004e-02 3.137315e-02 4.003611e-02 5.077581e-02 6.389275e-02 7.956480e-02 9.789667e-02 1.189276e-01 1.427733e-01 1.695602e-01 1.991348e-01 2.289631e-01 2.488286e-01 2.514190e-01 2.390353e-01 2.206212e-01 2.029283e-01 1.883741e-01 1.767339e-01 1.678385e-01 1.617409e-01 1.580011e-01 1.559622e-01 1.550461e-01 1.546938e-01 1.545959e-01 1.545910e-01 1.548507e-01 1.557547e-01 1.578968e-01 1.618060e-01 1.678450e-01 1.765624e-01 1.880517e-01 2.026463e-01 2.203553e-01 2.387665e-01 2.513496e-01 2.491415e-01 2.295511e-01 1.997806e-01 1.701958e-01 1.433897e-01 1.195217e-01 9.845404e-02 8.008021e-02 6.435177e-02 5.117206e-02 4.036110e-02 3.162957e-02 2.467286e-02 1.919669e-02 1.495818e-02 1.175322e-02 9.421675e-03 7.840320e-03 6.923172e-03 
7.897870e-03 8.243521e-03 9.305098e-03 1.113586e-02 1.382577e-02 1.750312e-02 2.233135e-02 2.852243e-02 3.633993e-02 4.614562e-02 5.832759e-02 7.329396e-02 9.128479e-02 1.124837e-01 1.369698e-01 1.648934e-01 1.964021e-01 2.290904e-01 2.502310e-01 2.499253e-01 2.331678e-01 2.114277e-01 1.912107e-01 1.739424e-01 1.599006e-01 1.491372e-01 1.414255e-01 1.364328e-01 1.335854e-01 1.322234e-01 1.317656e-01 1.316874e-01 1.316803e-01 1.315991e-01 1.316072e-01 1.320682e-01 1.335098e-01 1.364719e-01 1.414187e-01 1.489982e-01 1.596490e-01 1.736929e-01 1.909322e-01 2.110336e-01 2.327902e-01 2.497766e-01 2.505137e-01 2.297776e-01 1.972147e-01 1.656751e-01 1.376710e-01 1.131144e-01 9.186053e-02 7.380607e-02 5.877114e-02 4.650813e-02 3.662294e-02 2.873231e-02 2.248117e-02 1.760524e-02 1.389275e-02 1.117741e-02 9.328695e-03 8.253951e-03 
9.337945e-03 9.745925e-03 1.099268e-02 1.313452e-02 1.626542e-02 2.051472e-02 2.604263e-02 3.305646e-02 4.182799e-02 5.275711e-02 6.633233e-02 8.313589e-02 1.035308e-01 1.278004e-01 1.560888e-01 1.885274e-01 2.232490e-01 2.479965e-01 2.487363e-01 2.303122e-01 2.063957e-01 1.837426e-01 1.638409e-01 1.473924e-01 1.345035e-01 1.248855e-01 1.181716e-01 1.139374e-01 1.116397e-01 1.106593e-01 1.104445e-01 1.105072e-01 1.105491e-01 1.104413e-01 1.103304e-01 1.105519e-01 1.115838e-01 1.139479e-01 1.181429e-01 1.247606e-01 1.342817e-01 1.471326e-01 1.635214e-01 1.833262e-01 2.059225e-01 2.298461e-01 2.485722e-01 2.483656e-01 2.240442e-01 1.893441e-01 1.568211e-01 1.284839e-01 1.041747e-01 8.371880e-02 6.683783e-02 5.316602e-02 4.214350e-02 3.328616e-02 2.620280e-02 2.062078e-02 1.633268e-02 1.317468e-02 1.101463e-02 9.755306e-03 
1.093717e-02 1.141941e-02 1.288540e-02 1.539339e-02 1.903852e-02 2.394400e-02 3.025487e-02 3.815800e-02 4.791752e-02 5.997462e-02 7.491462e-02 9.350969e-02 1.163064e-01 1.438348e-01 1.762033e-01 2.124604e-01 2.426139e-01 2.485242e-01 2.310894e-01 2.056869e-01 1.809078e-01 1.587531e-01 1.398958e-01 1.245193e-01 1.126003e-01 1.038612e-01 9.789112e-02 9.420595e-02 9.226183e-02 9.148883e-02 9.137590e-02 9.148519e-02 9.154360e-02 9.144031e-02 9.129951e-02 9.141738e-02 9.221853e-02 9.419568e-02 9.784993e-02 1.037509e-01 1.124099e-01 1.242738e-01 1.395780e-01 1.583424e-01 1.804154e-01 2.051661e-01 2.306546e-01 2.483927e-01 2.430184e-01 2.132571e-01 1.769584e-01 1.445136e-01 1.169801e-01 9.413388e-02 7.546281e-02 6.041737e-02 4.825501e-02 3.839845e-02 3.041739e-02 2.404723e-02 1.910065e-02 1.542826e-02 1.290323e-02 1.142657e-02 
1.267914e-02 1.324934e-02 1.497381e-02 1.791168e-02 2.215606e-02 2.781504e-02 3.500433e-02 4.386891e-02 5.465004e-02 6.782000e-02 8.407958e-02 1.044165e-01 1.296169e-01 1.603277e-01 1.969796e-01 2.322264e-01 2.476414e-01 2.355003e-01 2.098303e-01 1.833391e-01 1.591334e-01 1.378964e-01 1.200420e-01 1.056399e-01 9.453552e-02 8.639981e-02 8.082439e-02 7.733897e-02 7.544564e-02 7.463033e-02 7.443678e-02 7.447873e-02 7.451470e-02 7.445003e-02 7.438786e-02 7.458263e-02 7.540905e-02 7.731268e-02 8.076843e-02 8.628846e-02 9.435215e-02 1.053891e-01 1.197072e-01 1.374648e-01 1.586111e-01 1.827521e-01 2.092134e-01 2.349980e-01 2.477137e-01 2.329301e-01 1.978483e-01 1.612024e-01 1.304681e-01 1.051698e-01 8.471698e-02 6.831866e-02 5.501768e-02 4.412028e-02 3.516530e-02 2.791016e-02 2.220799e-02 1.793725e-02 1.498484e-02 1.325298e-02 
1.453675e-02 1.521035e-02 1.723805e-02 2.067949e-02 2.562378e-02 3.215446e-02 4.034339e-02 5.026787e-02 6.213002e-02 7.641929e-02 9.396152e-02 1.160193e-01 1.434209e-01 1.774438e-01 2.160606e-01 2.427462e-01 2.415090e-01 2.181843e-01 1.909559e-01 1.650209e-01 1.416451e-01 1.213894e-01 1.044659e-01 9.079125e-02 8.017489e-02 7.230374e-02 6.680742e-02 6.325680e-02 6.120273e-02 6.018840e-02 5.980630e-02 5.971778e-02 5.970887e-02 5.969967e-02 5.977470e-02 6.015456e-02 6.116917e-02 6.321997e-02 6.674208e-02 7.219184e-02 7.999924e-02 9.054680e-02 1.041337e-01 1.209582e-01 1.411078e-01 1.644003e-01 1.902882e-01 2.175591e-01 2.411503e-01 2.430722e-01 2.169606e-01 1.784733e-01 1.443484e-01 1.168461e-01 9.465006e-02 7.694753e-02 6.250495e-02 5.050999e-02 4.048551e-02 3.222780e-02 2.565548e-02 2.068900e-02 1.723819e-02 1.520860e-02 
1.646205e-02 1.725453e-02 1.963068e-02 2.365180e-02 2.940195e-02 3.693242e-02 4.625517e-02 5.735247e-02 7.036085e-02 8.576346e-02 1.044951e-01 1.281419e-01 1.573460e-01 1.944689e-01 2.305137e-01 2.446647e-01 2.296340e-01 2.030186e-01 1.760063e-01 1.509980e-01 1.285767e-01 1.092241e-01 9.296699e-02 7.971754e-02 6.927518e-02 6.137405e-02 5.569365e-02 5.185870e-02 4.947216e-02 4.812942e-02 4.747031e-02 4.719806e-02 4.712585e-02 4.718629e-02 4.744882e-02 4.810320e-02 4.943994e-02 5.181582e-02 5.562299e-02 6.126218e-02 6.910581e-02 7.948046e-02 9.264230e-02 1.087963e-01 1.280322e-01 1.503416e-01 1.752656e-01 2.022499e-01 2.289663e-01 2.446372e-01 2.312084e-01 1.955094e-01 1.583884e-01 1.290848e-01 1.052614e-01 8.632410e-02 7.073065e-02 5.756661e-02 4.635960e-02 3.696850e-02 2.940200e-02 2.363769e-02 1.961545e-02 1.724540e-02 
1.839557e-02 1.932073e-02 2.208730e-02 2.676138e-02 3.342498e-02 4.209273e-02 5.270712e-02 6.511949e-02 7.938746e-02 9.588933e-02 1.157574e-01 1.405279e-01 1.715329e-01 2.096710e-01 2.393156e-01 2.409718e-01 2.178136e-01 1.911225e-01 1.650348e-01 1.410606e-01 1.195717e-01 1.009065e-01 8.505650e-02 7.193848e-02 6.140761e-02 5.325249e-02 4.721181e-02 4.296024e-02 4.014810e-02 3.841608e-02 3.744329e-02 3.696808e-02 3.682546e-02 3.695956e-02 3.742689e-02 3.839339e-02 4.011645e-02 4.291510e-02 4.714133e-02 5.314693e-02 6.125305e-02 7.172448e-02 8.476378e-02 1.005187e-01 1.190694e-01 1.404360e-01 1.643042e-01 1.903257e-01 2.170708e-01 2.406041e-01 2.397534e-01 2.107853e-01 1.728402e-01 1.416314e-01 1.166005e-01 9.644493e-02 7.970701e-02 6.526425e-02 5.274235e-02 4.207008e-02 3.337982e-02 2.671562e-02 2.205232e-02 1.930231e-02 
2.025740e-02 2.132438e-02 2.451053e-02 2.989224e-02 3.755493e-02 4.748039e-02 5.953400e-02 7.341224e-02 8.906022e-02 1.066526e-01 1.275279e-01 1.527903e-01 1.852103e-01 2.221310e-01 2.437668e-01 2.346630e-01 2.091674e-01 1.829023e-01 1.578670e-01 1.347574e-01 1.140123e-01 9.577365e-02 8.007475e-02 6.686276e-02 5.605955e-02 4.751284e-02 4.101396e-02 3.628271e-02 3.300820e-02 3.086811e-02 2.957407e-02 2.889300e-02 2.867906e-02 2.888633e-02 2.956073e-02 3.084821e-02 3.297895e-02 3.624050e-02 4.095063e-02 4.742176e-02 5.592988e-02 6.668577e-02 7.983331e-02 9.545132e-02 1.135841e-01 1.342029e-01 1.571732e-01 1.820811e-01 2.082937e-01 2.340082e-01 2.439656e-01 2.231237e-01 1.865297e-01 1.538502e-01 1.282599e-01 1.070603e-01 8.922338e-02 7.341756e-02 5.945585e-02 4.737305e-02 3.744962e-02 2.980657e-02 2.445152e-02 2.129497e-02 
2.196226e-02 2.317239e-02 2.678504e-02 3.289442e-02 4.159860e-02 5.286133e-02 6.646973e-02 8.197025e-02 9.912663e-02 1.178969e-01 1.395812e-01 1.650166e-01 1.974581e-01 2.315264e-01 2.450439e-01 2.283875e-01 2.029676e-01 1.775259e-01 1.535116e-01 1.311973e-01 1.110113e-01 9.301538e-02 7.729750e-02 6.385741e-02 5.268954e-02 4.369606e-02 3.671601e-02 3.150502e-02 2.778376e-02 2.525842e-02 2.366588e-02 2.279518e-02 2.251539e-02 2.278950e-02 2.365437e-02 2.524082e-02 2.775790e-02 3.146870e-02 3.666417e-02 4.362539e-02 5.259306e-02 6.373046e-02 7.712824e-02 9.279301e-02 1.107171e-01 1.308153e-01 1.530329e-01 1.769613e-01 2.023982e-01 2.279437e-01 2.452247e-01 2.324679e-01 1.985513e-01 1.657693e-01 1.399772e-01 1.180126e-01 9.904716e-02 8.179241e-02 6.625830e-02 5.266177e-02 4.143079e-02 3.276841e-02 2.670200e-02 2.313200e-02 
2.341641e-02 2.475994e-02 2.877356e-02 3.557589e-02 4.528644e-02 5.787307e-02 7.305070e-02 9.024669e-02 1.089655e-01 1.289884e-01 1.512317e-01 1.766963e-01 2.080264e-01 2.386046e-01 2.449474e-01 2.241005e-01 1.989342e-01 1.742889e-01 1.511275e-01 1.294806e-01 1.097022e-01 9.182470e-02 7.600058e-02 6.228620e-02 5.074351e-02 4.132222e-02 3.390033e-02 2.826176e-02 2.415059e-02 2.129397e-02 1.944728e-02 1.841589e-02 1.808044e-02 1.841110e-02 1.943766e-02 2.127950e-02 2.413005e-02 2.823461e-02 3.386428e-02 4.127737e-02 5.068721e-02 6.221918e-02 7.591816e-02 9.172622e-02 1.095817e-01 1.293412e-01 1.509754e-01 1.741395e-01 1.987874e-01 2.238576e-01 2.448290e-01 2.390734e-01 2.085566e-01 1.769182e-01 1.511836e-01 1.287607e-01 1.086315e-01 8.988755e-02 7.271249e-02 5.758640e-02 4.505935e-02 3.541115e-02 2.866731e-02 2.470905e-02 
2.453345e-02 2.598667e-02 3.033248e-02 3.771642e-02 4.828502e-02 6.203005e-02 7.861458e-02 9.739154e-02 1.175784e-01 1.388050e-01 1.613892e-01 1.865794e-01 2.162378e-01 2.434354e-01 2.443584e-01 2.216080e-01 1.967404e-01 1.727548e-01 1.501512e-01 1.289541e-01 1.094067e-01 9.155802e-02 7.559408e-02 6.162338e-02 4.975697e-02 3.998146e-02 3.220358e-02 2.622698e-02 2.181222e-02 1.870041e-02 1.665950e-02 1.550582e-02 1.512797e-02 1.550164e-02 1.665132e-02 1.868859e-02 2.179639e-02 2.620799e-02 3.218119e-02 3.995832e-02 4.973344e-02 6.160367e-02 7.557697e-02 9.154607e-02 1.093936e-01 1.289386e-01 1.501180e-01 1.726909e-01 1.965854e-01 2.212918e-01 2.440288e-01 2.436149e-01 2.165313e-01 1.865790e-01 1.611546e-01 1.384294e-01 1.171344e-01 9.695039e-02 7.821399e-02 6.169606e-02 4.802245e-02 3.752671e-02 3.021040e-02 2.592828e-02 
2.523890e-02 2.676545e-02 3.133522e-02 3.911564e-02 5.027769e-02 6.484430e-02 8.245467e-02 1.024353e-01 1.237788e-01 1.460017e-01 1.688795e-01 1.937230e-01 2.219325e-01 2.464578e-01 2.438026e-01 2.201534e-01 1.954588e-01 1.719681e-01 1.497381e-01 1.288460e-01 1.094433e-01 9.160686e-02 7.554442e-02 6.140136e-02 4.932151e-02 3.931558e-02 3.130874e-02 2.511692e-02 2.051047e-02 1.723859e-02 1.507643e-02 1.384661e-02 1.344246e-02 1.384299e-02 1.506954e-02 1.722918e-02 2.049889e-02 2.510517e-02 3.129822e-02 3.931109e-02 4.932607e-02 6.142232e-02 7.558372e-02 9.166992e-02 1.095238e-01 1.289389e-01 1.498148e-01 1.719990e-01 1.953671e-01 2.198882e-01 2.435068e-01 2.466829e-01 2.222681e-01 1.937174e-01 1.686264e-01 1.456060e-01 1.233138e-01 1.019694e-01 8.202670e-02 6.448373e-02 4.999210e-02 3.890841e-02 3.120167e-02 2.670171e-02 
2.548093e-02 2.703296e-02 3.168055e-02 3.959985e-02 5.097202e-02 6.583544e-02 8.382635e-02 1.042741e-01 1.260890e-01 1.487502e-01 1.717882e-01 1.964814e-01 2.240264e-01 2.474711e-01 2.436119e-01 2.197709e-01 1.951612e-01 1.718341e-01 1.497166e-01 1.289115e-01 1.095413e-01 9.169516e-02 7.558667e-02 6.137500e-02 4.921420e-02 3.912343e-02 3.103380e-02 2.476516e-02 2.009101e-02 1.676300e-02 1.455859e-02 1.330229e-02 1.288897e-02 1.329879e-02 1.455198e-02 1.675415e-02 2.008042e-02 2.475507e-02 3.102592e-02 3.912291e-02 4.922436e-02 6.140351e-02 7.563541e-02 9.176933e-02 1.096331e-01 1.290145e-01 1.497993e-01 1.718693e-01 1.950797e-01 2.195370e-01 2.433620e-01 2.477199e-01 2.243485e-01 1.964601e-01 1.715364e-01 1.483620e-01 1.256331e-01 1.038134e-01 8.339966e-02 6.547343e-02 5.068374e-02 3.938988e-02 3.154485e-02 2.696802e-02 
2.523890e-02 2.676545e-02 3.133522e-02 3.911564e-02 5.027769e-02 6.484430e-02 8.245467e-02 1.024353e-01 1.237788e-01 1.460017e-01 1.688795e-01 1.937230e-01 2.219325e-01 2.464578e-01 2.438026e-01 2.201534e-01 1.954588e-01 1.719681e-01 1.497381e-01 1.288460e-01 1.094433e-01 9.160686e-02 7.554442e-02 6.140136e-02 4.932151e-02 3.931558e-02 3.130874e-02 2.511692e-02 2.051047e-02 1.723859e-02 1.507643e-02 1.384661e-02 1.344246e-02 1.384299e-02 1.506954e-02 1.722918e-02 2.049889e-02 2.510517e-02 3.129822e-02 3.931109e-02 4.932607e-02 6.142232e-02 7.558372e-02 9.166992e-02 1.095238e-01 1.289389e-01 1.498148e-01 1.719990e-01 1.953671e-01 2.198882e-01 2.435068e-01 2.466829e-01 2.222681e-01 1.937174e-01 1.686264e-01 1.456060e-01 1.233138e-01 1.019694e-01 8.202670e-02 6.448373e-02 4.999210e-02 3.890841e-02 3.120167e-02 2.670171e-02 
2.453345e-02 2.598667e-02 3.033248e-02 3.771642e-02 4.828502e-02 6.203005e-02 7.861458e-02 9.739154e-02 1.175784e-01 1.388050e-01 1.613892e-01 1.865794e-01 2.162378e-01 2.434354e-01 2.443584e-01 2.216080e-01 1.967404e-01 1.727548e-01 1.501512e-01 1.289541e-01 1.094067e-01 9.155802e-02 7.559408e-02 6.162338e-02 4.975697e-02 3.998146e-02 3.220358e-02 2.622698e-02 2.181222e-02 1.870041e-02 1.665950e-02 1.550582e-02 1.512797e-02 1.550164e-02 1.665132e-02 1.868859e-02 2.179639e-02 2.620799e-02 3.218119e-02 3.995832e-02 4.973344e-02 6.160367e-02 7.557697e-02 9.154607e-02 1.093936e-01 1.289386e-01 1.501180e-01 1.726909e-01 1.965854e-01 2.212918e-01 2.440288e-01 2.436149e-01 2.165313e-01 1.865790e-01 1.611546e-01 1.384294e-01 1.171344e-01 9.695039e-02 7.821399e-02 6.169606e-02 4.802245e-02 3.752671e-02 3.021040e-02 2.592828e-02 