# vtk DataFile Version 2.0
Comment goes here
ASCII

DATASET STRUCTURED_POINTS
FIELD FieldData 1
TIME 1 1 double
1.12000000
DIMENSIONS    64   64   1

ORIGIN    0.000   0.000   0.000
SPACING   0.015625 0.015625   1.000

POINT_DATA   4096
SCALARS Concentration double
LOOKUP_TABLE default

2.819561e-03 2.858505e-03 2.988324e-03 3.212509e-03 3.537156e-03 3.971782e-03 4.529251e-03 5.227152e-03 6.087445e-03 7.138090e-03 8.411825e-03 9.947249e-03 1.178582e-02 1.397125e-02 1.654410e-02 1.953883e-02 2.297727e-02 2.686420e-02 3.118350e-02 3.589467e-02 4.093585e-02 4.622191e-02 5.165461e-02 5.711875e-02 6.249399e-02 6.764971e-02 7.246220e-02 7.680631e-02 8.056966e-02 8.364494e-02 8.594134e-02 8.738091e-02 8.790570e-02 8.747941e-02 8.612715e-02 8.390646e-02 8.089259e-02 7.717801e-02 7.286696e-02 6.807509e-02 6.292523e-02 5.754553e-02 5.206585e-02 4.661209e-02 4.129996e-02 3.623085e-02 3.149055e-02 2.714247e-02 2.322802e-02 1.976358e-02 1.674524e-02 1.415056e-02 1.194578e-02 1.008926e-02 8.537840e-03 7.248993e-03 6.184551e-03 5.310908e-03 4.600471e-03 4.030651e-03 3.584147e-03 3.247666e-03 3.011857e-03 2.870319e-03 
2.897504e-03 2.936978e-03 3.068801e-03 3.296460e-03 3.626049e-03 4.067101e-03 4.632513e-03 5.339952e-03 6.211510e-03 7.275356e-03 8.564546e-03 1.011812e-02 1.197815e-02 1.418912e-02 1.679261e-02 1.982426e-02 2.330732e-02 2.724812e-02 3.163226e-02 3.642099e-02 4.155421e-02 4.694846e-02 5.250718e-02 5.811708e-02 6.365667e-02 6.899117e-02 7.399139e-02 7.852438e-02 8.246792e-02 8.570333e-02 8.812784e-02 8.965297e-02 9.021225e-02 8.976556e-02 8.833982e-02 8.600033e-02 8.283221e-02 7.894004e-02 7.443947e-02 6.945693e-02 6.412353e-02 5.857393e-02 5.294223e-02 4.735747e-02 4.193306e-02 3.676879e-02 3.194855e-02 2.753394e-02 2.356439e-02 2.005450e-02 1.699863e-02 1.437288e-02 1.214220e-02 1.026392e-02 8.694064e-03 7.389475e-03 6.311535e-03 5.426311e-03 4.706006e-03 4.127892e-03 3.674601e-03 3.332801e-03 3.093133e-03 2.949196e-03 
3.132757e-03 3.173856e-03 3.311698e-03 3.549771e-03 3.894163e-03 4.354455e-03 4.943641e-03 5.679627e-03 6.584885e-03 7.688230e-03 9.023644e-03 1.063152e-02 1.255574e-02 1.484317e-02 1.753835e-02 2.068053e-02 2.429714e-02 2.839913e-02 3.297722e-02 3.799760e-02 4.340547e-02 4.912155e-02 5.505352e-02 6.108989e-02 6.710562e-02 7.295440e-02 7.849210e-02 8.356334e-02 8.801916e-02 9.170874e-02 9.449651e-02 9.626410e-02 9.692139e-02 9.641719e-02 9.478404e-02 9.210859e-02 8.850377e-02 8.410753e-02 7.906742e-02 7.353939e-02 6.767812e-02 6.163651e-02 5.556098e-02 4.958812e-02 4.382942e-02 3.838082e-02 3.332157e-02 2.870768e-02 2.457314e-02 2.092701e-02 1.775873e-02 1.503989e-02 1.273166e-02 1.078827e-02 9.163261e-03 7.811608e-03 6.693308e-03 5.773479e-03 5.023674e-03 4.420781e-03 3.947205e-03 3.589516e-03 3.338320e-03 3.187225e-03 
3.530506e-03 3.574252e-03 3.722076e-03 3.977459e-03 4.346469e-03 4.838768e-03 5.467506e-03 6.250975e-03 7.212270e-03 8.381252e-03 9.793431e-03 1.149139e-02 1.352198e-02 1.593590e-02 1.878262e-02 2.210714e-02 2.594379e-02 3.031084e-02 3.520717e-02 4.060669e-02 4.646259e-02 5.270161e-02 5.923677e-02 6.595736e-02 7.273147e-02 7.939495e-02 8.577983e-02 9.169603e-02 9.695259e-02 1.013496e-01 1.047011e-01 1.068444e-01 1.076535e-01 1.070613e-01 1.051077e-01 1.019119e-01 9.762797e-02 9.244474e-02 8.655826e-02 8.017049e-02 7.347288e-02 6.664759e-02 5.986063e-02 5.326094e-02 4.695933e-02 4.104736e-02 3.559730e-02 3.065690e-02 2.625137e-02 2.238113e-02 1.902755e-02 1.615500e-02 1.371852e-02 1.166724e-02 9.950709e-03 8.520843e-03 7.335407e-03 6.357950e-03 5.558993e-03 4.914782e-03 4.407367e-03 4.023158e-03 3.752710e-03 3.589644e-03 
4.099679e-03 4.147129e-03 4.308952e-03 4.588632e-03 4.992216e-03 5.529481e-03 6.213794e-03 7.063990e-03 8.104020e-03 9.365205e-03 1.088514e-02 1.270945e-02 1.488905e-02 1.748000e-02 2.053841e-02 2.411725e-02 2.826003e-02 3.299482e-02 3.833102e-02 4.425200e-02 5.072041e-02 5.766891e-02 6.501530e-02 7.264622e-02 8.041898e-02 8.814535e-02 9.562750e-02 1.026322e-01 1.089180e-01 1.142231e-01 1.182992e-01 1.209260e-01 1.219322e-01 1.212293e-01 1.188672e-01 1.150062e-01 1.098536e-01 1.036612e-01 9.668534e-02 8.918354e-02 8.139318e-02 7.353416e-02 6.579949e-02 5.835593e-02 5.131750e-02 4.477211e-02 3.878494e-02 3.339358e-02 2.861241e-02 2.443051e-02 2.081861e-02 1.773135e-02 1.511538e-02 1.291291e-02 1.106794e-02 9.528213e-03 8.248390e-03 7.189889e-03 6.321776e-03 5.619433e-03 5.064402e-03 4.642876e-03 4.345331e-03 4.165410e-03 
4.852849e-03 4.904979e-03 5.084812e-03 5.395842e-03 5.844081e-03 6.439466e-03 7.195637e-03 8.132130e-03 9.273978e-03 1.065435e-02 1.231348e-02 1.430084e-02 1.667250e-02 1.949123e-02 2.282160e-02 2.672645e-02 3.126074e-02 3.646423e-02 4.235863e-02 4.893746e-02 5.617298e-02 6.400216e-02 7.234560e-02 8.108354e-02 9.005801e-02 9.905060e-02 1.078290e-01 1.161109e-01 1.235963e-01 1.299533e-01 1.348632e-01 1.380456e-01 1.392791e-01 1.384541e-01 1.356286e-01 1.310085e-01 1.248557e-01 1.174916e-01 1.092391e-01 1.004199e-01 9.132446e-02 8.221852e-02 7.332911e-02 6.484774e-02 5.689488e-02 4.955726e-02 4.289358e-02 3.693107e-02 3.167196e-02 2.709210e-02 2.314938e-02 1.978647e-02 1.693958e-02 1.454219e-02 1.253137e-02 1.084956e-02 9.447539e-03 8.284016e-03 7.326249e-03 6.548515e-03 5.931718e-03 5.461771e-03 5.129045e-03 4.927211e-03 
5.806249e-03 5.864088e-03 6.066072e-03 6.415749e-03 6.919097e-03 7.586254e-03 8.431208e-03 9.474368e-03 1.074209e-02 1.226981e-02 1.410097e-02 1.628977e-02 1.889855e-02 2.199844e-02 2.566428e-02 2.997112e-02 3.498753e-02 4.076703e-02 4.734476e-02 5.472425e-02 6.288554e-02 7.176557e-02 8.128246e-02 9.130198e-02 1.016424e-01 1.120483e-01 1.222510e-01 1.319226e-01 1.407119e-01 1.482140e-01 1.540369e-01 1.578328e-01 1.593217e-01 1.583686e-01 1.550425e-01 1.496011e-01 1.423687e-01 1.337388e-01 1.241003e-01 1.138309e-01 1.032722e-01 9.274205e-02 8.251072e-02 7.280515e-02 6.376078e-02 5.546760e-02 4.798171e-02 4.132080e-02 3.547490e-02 3.040516e-02 2.605452e-02 2.235138e-02 1.921920e-02 1.658086e-02 1.436482e-02 1.250712e-02 1.095371e-02 9.660060e-03 8.591179e-03 7.720019e-03 7.026677e-03 6.496726e-03 6.120392e-03 5.891369e-03 
6.979395e-03 7.043932e-03 7.272299e-03 7.668184e-03 8.237511e-03 8.990691e-03 9.942106e-03 1.111324e-02 1.253201e-02 1.423660e-02 1.627426e-02 1.870486e-02 2.159836e-02 2.503599e-02 2.910521e-02 3.389572e-02 3.949257e-02 4.596487e-02 5.336243e-02 6.169723e-02 7.095393e-02 8.106224e-02 9.193035e-02 1.033997e-01 1.152564e-01 1.271997e-01 1.389285e-01 1.500733e-01 1.602283e-01 1.689121e-01 1.756619e-01 1.800777e-01 1.818272e-01 1.807560e-01 1.769392e-01 1.706817e-01 1.623532e-01 1.524122e-01 1.413100e-01 1.294809e-01 1.173197e-01 1.052006e-01 9.344566e-02 8.233011e-02 7.201124e-02 6.259005e-02 5.412513e-02 4.662790e-02 4.007697e-02 3.441771e-02 2.957617e-02 2.546368e-02 2.198847e-02 1.906042e-02 1.659765e-02 1.452835e-02 1.279278e-02 1.134247e-02 1.013981e-02 9.156134e-03 8.370596e-03 7.768356e-03 7.339449e-03 7.077602e-03 
8.395164e-03 8.467479e-03 8.726884e-03 9.177094e-03 9.824104e-03 1.067863e-02 1.175553e-02 1.307758e-02 1.467455e-02 1.658789e-02 1.886938e-02 2.158587e-02 2.481652e-02 2.865524e-02 3.320504e-02 3.857427e-02 4.486789e-02 5.217419e-02 6.055866e-02 7.004034e-02 8.060275e-02 9.215698e-02 1.045871e-01 1.176894e-01 1.311955e-01 1.447472e-01 1.580086e-01 1.706032e-01 1.821188e-01 1.919995e-01 1.997120e-01 2.047917e-01 2.068285e-01 2.056365e-01 2.013086e-01 1.942165e-01 1.847937e-01 1.735662e-01 1.610314e-01 1.476292e-01 1.337762e-01 1.199173e-01 1.064424e-01 9.369711e-02 8.188187e-02 7.111952e-02 6.148202e-02 5.297882e-02 4.557903e-02 3.921112e-02 3.378102e-02 2.917965e-02 2.529599e-02 2.202394e-02 1.926859e-02 1.694866e-02 1.499733e-02 1.336154e-02 1.200044e-02 1.088355e-02 9.988823e-03 9.300960e-03 8.809755e-03 8.508969e-03 
1.007887e-02 1.016011e-02 1.045563e-02 1.096916e-02 1.170662e-02 1.267914e-02 1.390224e-02 1.540018e-02 1.720485e-02 1.936166e-02 2.192778e-02 2.497853e-02 2.860457e-02 3.291558e-02 3.803447e-02 4.409287e-02 5.122095e-02 5.952942e-02 6.910116e-02 7.995835e-02 9.207481e-02 1.053262e-01 1.195528e-01 1.344795e-01 1.497683e-01 1.649934e-01 1.798160e-01 1.938760e-01 2.067370e-01 2.177486e-01 2.263188e-01 2.319782e-01 2.342684e-01 2.329844e-01 2.282329e-01 2.204298e-01 2.100123e-01 1.975466e-01 1.835718e-01 1.685426e-01 1.529076e-01 1.371682e-01 1.217794e-01 1.071757e-01 9.361689e-02 8.126770e-02 7.022836e-02 6.051636e-02 5.209589e-02 4.487788e-02 3.874536e-02 3.356361e-02 2.919779e-02 2.552128e-02 2.242293e-02 1.980951e-02 1.760567e-02 1.575274e-02 1.420610e-02 1.293311e-02 1.191038e-02 1.112207e-02 1.055770e-02 1.021113e-02 
1.205819e-02 1.214974e-02 1.248733e-02 1.307460e-02 1.391730e-02 1.502689e-02 1.641948e-02 1.812118e-02 2.016648e-02 2.260540e-02 2.550163e-02 2.894103e-02 3.302854e-02 3.789440e-02 4.368672e-02 5.056786e-02 5.869905e-02 6.821976e-02 7.923045e-02 9.175333e-02 1.057403e-01 1.210103e-01 1.373343e-01 1.543209e-01 1.715221e-01 1.884157e-01 2.045997e-01 2.198522e-01 2.339087e-01 2.460155e-01 2.555035e-01 2.618549e-01 2.644566e-01 2.630399e-01 2.577671e-01 2.491768e-01 2.377916e-01 2.242558e-01 2.091167e-01 1.926489e-01 1.752206e-01 1.574713e-01 1.399536e-01 1.232055e-01 1.075981e-01 9.335382e-02 8.062440e-02 6.944821e-02 5.979093e-02 5.154739e-02 4.457267e-02 3.870109e-02 3.376633e-02 2.961582e-02 2.611702e-02 2.316181e-02 2.066400e-02 1.855826e-02 1.679539e-02 1.534031e-02 1.416809e-02 1.326236e-02 1.261237e-02 1.221215e-02 
1.436135e-02 1.446485e-02 1.485147e-02 1.552477e-02 1.649000e-02 1.775898e-02 1.934815e-02 2.128550e-02 2.360830e-02 2.637245e-02 2.964953e-02 3.353843e-02 3.816221e-02 4.367717e-02 5.026408e-02 5.812341e-02 6.745524e-02 7.843021e-02 9.116521e-02 1.056714e-01 1.218596e-01 1.394654e-01 1.581533e-01 1.773641e-01 1.965322e-01 2.150646e-01 2.326401e-01 2.491549e-01 2.643390e-01 2.772612e-01 2.872582e-01 2.939544e-01 2.967222e-01 2.952426e-01 2.897318e-01 2.807620e-01 2.687419e-01 2.542498e-01 2.378442e-01 2.198168e-01 2.006159e-01 1.808755e-01 1.611253e-01 1.420270e-01 1.240909e-01 1.076371e-01 9.290229e-02 7.997075e-02 6.882616e-02 5.935086e-02 5.137123e-02 4.468279e-02 3.908046e-02 3.437746e-02 3.041416e-02 2.706318e-02 2.422494e-02 2.182599e-02 1.981188e-02 1.814473e-02 1.679790e-02 1.575471e-02 1.500420e-02 1.454091e-02 
1.701669e-02 1.713421e-02 1.757853e-02 1.835280e-02 1.946156e-02 2.091665e-02 2.273464e-02 2.494530e-02 2.758865e-02 3.072656e-02 3.444056e-02 3.884639e-02 4.408967e-02 5.036008e-02 5.787893e-02 6.689500e-02 7.765206e-02 9.035683e-02 1.051331e-01 1.219730e-01 1.407220e-01 1.610177e-01 1.824150e-01 2.040910e-01 2.254554e-01 2.457374e-01 2.642106e-01 2.811296e-01 2.969443e-01 3.106193e-01 3.214303e-01 3.289032e-01 3.320617e-01 3.303411e-01 3.241636e-01 3.143769e-01 3.016352e-01 2.866227e-01 2.697784e-01 2.507651e-01 2.297724e-01 2.078663e-01 1.857189e-01 1.639837e-01 1.434132e-01 1.244107e-01 1.073227e-01 9.230990e-02 7.938882e-02 6.844337e-02 5.926808e-02 5.161617e-02 4.523263e-02 3.988844e-02 3.538833e-02 3.158089e-02 2.834967e-02 2.561117e-02 2.330462e-02 2.138961e-02 1.983805e-02 1.863323e-02 1.776431e-02 1.722648e-02 
2.004949e-02 2.018366e-02 2.069627e-02 2.158991e-02 2.286772e-02 2.454132e-02 2.662662e-02 2.915511e-02 3.216902e-02 3.573714e-02 3.995133e-02 4.494739e-02 5.090173e-02 5.804530e-02 6.664933e-02 7.701794e-02 8.944422e-02 1.041630e-01 1.212946e-01 1.407871e-01 1.623926e-01 1.856462e-01 2.099607e-01 2.341630e-01 2.574661e-01 2.792519e-01 2.995814e-01 3.184546e-01 3.352486e-01 3.489221e-01 3.591825e-01 3.657355e-01 3.683665e-01 3.669156e-01 3.615565e-01 3.524889e-01 3.399853e-01 3.241305e-01 3.051732e-01 2.841088e-01 2.617711e-01 2.382436e-01 2.137210e-01 1.891903e-01 1.657281e-01 1.438579e-01 1.240737e-01 1.066408e-01 9.163883e-02 7.896288e-02 6.838411e-02 5.960643e-02 5.231764e-02 4.623523e-02 4.111997e-02 3.678955e-02 3.310540e-02 2.997303e-02 2.732522e-02 2.511946e-02 2.332665e-02 2.193076e-02 2.092150e-02 2.029526e-02 
2.348101e-02 2.363539e-02 2.422986e-02 2.526583e-02 2.674434e-02 2.867595e-02 3.107503e-02 3.397395e-02 3.741650e-02 4.147844e-02 4.626328e-02 5.192999e-02 5.869028e-02 6.682999e-02 7.667875e-02 8.860408e-02 1.029454e-01 1.199648e-01 1.397539e-01 1.622164e-01 1.869648e-01 2.134706e-01 2.409921e-01 2.680867e-01 2.946612e-01 3.194343e-01 3.402381e-01 3.569750e-01 3.696899e-01 3.783609e-01 3.838320e-01 3.865768e-01 3.875613e-01 3.869010e-01 3.847112e-01 3.801320e-01 3.724242e-01 3.609453e-01 3.448854e-01 3.244109e-01 2.997267e-01 2.728659e-01 2.455276e-01 2.179390e-01 1.912395e-01 1.661738e-01 1.433330e-01 1.231399e-01 1.057354e-01 9.105493e-02 7.884554e-02 6.876648e-02 6.043677e-02 5.351240e-02 4.769708e-02 4.276840e-02 3.856282e-02 3.497341e-02 3.192661e-02 2.937855e-02 2.730029e-02 2.567742e-02 2.450112e-02 2.376954e-02 
2.732402e-02 2.750327e-02 2.819644e-02 2.940316e-02 3.112111e-02 3.335876e-02 3.612716e-02 3.945870e-02 4.339697e-02 4.802526e-02 5.345894e-02 5.988541e-02 6.755730e-02 7.682332e-02 8.808983e-02 1.017897e-01 1.183125e-01 1.379274e-01 1.607079e-01 1.864911e-01 2.147546e-01 2.449662e-01 2.761345e-01 3.066296e-01 3.337294e-01 3.543884e-01 3.664135e-01 3.713866e-01 3.725077e-01 3.722841e-01 3.717153e-01 3.709430e-01 3.706584e-01 3.705885e-01 3.710594e-01 3.716610e-01 3.720080e-01 3.716708e-01 3.679980e-01 3.577061e-01 3.387974e-01 3.127058e-01 2.823730e-01 2.510797e-01 2.205127e-01 1.916901e-01 1.653315e-01 1.419743e-01 1.218274e-01 1.048484e-01 9.077199e-02 7.920444e-02 6.969271e-02 6.181652e-02 5.520750e-02 4.959775e-02 4.479335e-02 4.067409e-02 3.716012e-02 3.420813e-02 3.179076e-02 2.989710e-02 2.852095e-02 2.766337e-02 
3.158209e-02 3.179247e-02 3.260549e-02 3.401824e-02 3.602327e-02 3.862505e-02 4.182911e-02 4.566565e-02 5.017624e-02 5.545081e-02 6.161800e-02 6.889732e-02 7.759083e-02 8.811862e-02 1.009731e-01 1.166685e-01 1.356424e-01 1.581874e-01 1.843694e-01 2.140510e-01 2.465063e-01 2.808377e-01 3.144768e-01 3.420328e-01 3.575940e-01 3.602910e-01 3.552358e-01 3.494186e-01 3.452899e-01 3.433715e-01 3.432900e-01 3.436555e-01 3.439201e-01 3.434515e-01 3.427222e-01 3.422691e-01 3.434328e-01 3.472008e-01 3.532225e-01 3.591473e-01 3.588737e-01 3.467921e-01 3.216386e-01 2.888651e-01 2.541219e-01 2.209259e-01 1.904268e-01 1.634112e-01 1.401086e-01 1.205020e-01 1.042918e-01 9.103371e-02 8.018795e-02 7.123836e-02 6.373444e-02 5.735258e-02 5.186321e-02 4.713088e-02 4.307077e-02 3.964201e-02 3.682176e-02 3.460473e-02 3.298951e-02 3.198145e-02 
3.624384e-02 3.649330e-02 3.745193e-02 3.911294e-02 4.146188e-02 4.449669e-02 4.821377e-02 5.263895e-02 5.780816e-02 6.381878e-02 7.081232e-02 7.904957e-02 8.888855e-02 1.008403e-01 1.154933e-01 1.334579e-01 1.552549e-01 1.811838e-01 2.113886e-01 2.455734e-01 2.825743e-01 3.184874e-01 3.452181e-01 3.541564e-01 3.470379e-01 3.343383e-01 3.242551e-01 3.193314e-01 3.173534e-01 3.169996e-01 3.177485e-01 3.183957e-01 3.187060e-01 3.181679e-01 3.171757e-01 3.160474e-01 3.159014e-01 3.175058e-01 3.220649e-01 3.313557e-01 3.439137e-01 3.533411e-01 3.490567e-01 3.263431e-01 2.916351e-01 2.542448e-01 2.190662e-01 1.877501e-01 1.607998e-01 1.381788e-01 1.195445e-01 1.043739e-01 9.202103e-02 8.186546e-02 7.335570e-02 6.610269e-02 5.983209e-02 5.439268e-02 4.969498e-02 4.570435e-02 4.240560e-02 3.980271e-02 3.790179e-02 3.671397e-02 
4.128273e-02 4.158178e-02 4.271787e-02 4.467801e-02 4.743815e-02 5.098666e-02 5.530637e-02 6.041476e-02 6.633870e-02 7.318193e-02 8.110157e-02 9.040614e-02 1.015243e-01 1.150701e-01 1.317530e-01 1.522868e-01 1.772953e-01 2.070714e-01 2.416904e-01 2.804442e-01 3.187940e-01 3.449207e-01 3.490154e-01 3.361744e-01 3.192767e-01 3.052863e-01 2.957305e-01 2.910995e-01 2.899877e-01 2.907945e-01 2.924922e-01 2.938357e-01 2.943897e-01 2.936978e-01 2.921199e-01 2.901176e-01 2.889186e-01 2.896980e-01 2.940191e-01 3.028573e-01 3.157513e-01 3.320075e-01 3.467792e-01 3.481959e-01 3.271603e-01 2.908650e-01 2.514685e-01 2.153209e-01 1.841729e-01 1.580842e-01 1.366736e-01 1.193252e-01 1.052684e-01 9.375838e-02 8.412353e-02 7.589194e-02 6.873673e-02 6.248640e-02 5.704945e-02 5.240038e-02 4.853704e-02 4.547676e-02 4.323646e-02 4.183529e-02 
4.665197e-02 4.701300e-02 4.836326e-02 5.068118e-02 5.392882e-02 5.808163e-02 6.310322e-02 6.899846e-02 7.578002e-02 8.355986e-02 9.251084e-02 1.030064e-01 1.155522e-01 1.309005e-01 1.498823e-01 1.733578e-01 2.020292e-01 2.360787e-01 2.753785e-01 3.155802e-01 3.432929e-01 3.458094e-01 3.295749e-01 3.094011e-01 2.916071e-01 2.778925e-01 2.691194e-01 2.652233e-01 2.646911e-01 2.660134e-01 2.679977e-01 2.694935e-01 2.700932e-01 2.694109e-01 2.677715e-01 2.655987e-01 2.640230e-01 2.642733e-01 2.678187e-01 2.758057e-01 2.884432e-01 3.051229e-01 3.246390e-01 3.428953e-01 3.467112e-01 3.251041e-01 2.864846e-01 2.457120e-01 2.101636e-01 1.802805e-01 1.557689e-01 1.359681e-01 1.199904e-01 1.069669e-01 9.607514e-02 8.675032e-02 7.859691e-02 7.142217e-02 6.513251e-02 5.971702e-02 5.519186e-02 5.159323e-02 4.895221e-02 4.729967e-02 
5.228755e-02 5.272613e-02 5.433302e-02 5.707540e-02 6.089707e-02 6.575467e-02 7.158718e-02 7.838082e-02 8.612898e-02 9.495180e-02 1.050417e-01 1.168483e-01 1.309697e-01 1.482975e-01 1.697954e-01 1.963872e-01 2.288287e-01 2.671213e-01 3.090544e-01 3.406448e-01 3.456318e-01 3.283118e-01 3.050598e-01 2.838600e-01 2.663489e-01 2.533435e-01 2.450065e-01 2.411409e-01 2.405429e-01 2.417867e-01 2.436961e-01 2.451864e-01 2.457905e-01 2.451684e-01 2.436187e-01 2.416035e-01 2.401772e-01 2.405199e-01 2.439916e-01 2.516094e-01 2.636160e-01 2.799160e-01 2.998732e-01 3.226056e-01 3.429010e-01 3.451235e-01 3.196236e-01 2.783320e-01 2.384402e-01 2.046326e-01 1.767496e-01 1.542455e-01 1.361459e-01 1.214518e-01 1.091779e-01 9.864445e-02 8.938033e-02 8.116379e-02 7.390396e-02 6.760776e-02 6.231792e-02 5.809364e-02 5.498660e-02 5.304277e-02 
5.810439e-02 5.863747e-02 6.054631e-02 6.378347e-02 6.827028e-02 7.393679e-02 8.069110e-02 8.849355e-02 9.731243e-02 1.072768e-01 1.185993e-01 1.318248e-01 1.476374e-01 1.670981e-01 1.912090e-01 2.209935e-01 2.570199e-01 2.988335e-01 3.357995e-01 3.474857e-01 3.318912e-01 3.067766e-01 2.823701e-01 2.612725e-01 2.440863e-01 2.313638e-01 2.231662e-01 2.190801e-01 2.180545e-01 2.188317e-01 2.203146e-01 2.215363e-01 2.220467e-01 2.215542e-01 2.203234e-01 2.187875e-01 2.178708e-01 2.186351e-01 2.222670e-01 2.297206e-01 2.414142e-01 2.573577e-01 2.770762e-01 3.003898e-01 3.257363e-01 3.459504e-01 3.425774e-01 3.107464e-01 2.684543e-01 2.306735e-01 1.993664e-01 1.740369e-01 1.536490e-01 1.371549e-01 1.233735e-01 1.115181e-01 1.010264e-01 9.164751e-02 8.329516e-02 7.599960e-02 6.983738e-02 6.489633e-02 6.125539e-02 5.897910e-02 
6.400407e-02 6.465126e-02 6.691011e-02 7.071579e-02 7.596237e-02 8.254588e-02 9.033500e-02 9.925664e-02 1.092468e-01 1.204427e-01 1.330762e-01 1.478031e-01 1.653856e-01 1.870438e-01 2.137764e-01 2.463549e-01 2.860416e-01 3.272971e-01 3.491460e-01 3.398107e-01 3.134227e-01 2.869200e-01 2.626663e-01 2.417903e-01 2.248639e-01 2.122134e-01 2.037601e-01 1.990650e-01 1.972456e-01 1.972223e-01 1.980444e-01 1.988553e-01 1.992225e-01 1.988924e-01 1.980914e-01 1.972285e-01 1.971104e-01 1.986520e-01 2.028601e-01 2.105562e-01 2.222028e-01 2.379043e-01 2.574964e-01 2.806762e-01 3.067948e-01 3.338352e-01 3.501308e-01 3.367658e-01 2.984255e-01 2.571259e-01 2.228189e-01 1.948036e-01 1.721626e-01 1.538227e-01 1.384681e-01 1.252027e-01 1.133877e-01 1.027375e-01 9.318079e-02 8.477425e-02 7.763737e-02 7.189313e-02 6.765425e-02 6.500771e-02 
6.987212e-02 7.065262e-02 7.330723e-02 7.775022e-02 8.384476e-02 9.144407e-02 1.003696e-01 1.105024e-01 1.217410e-01 1.342201e-01 1.481923e-01 1.644224e-01 1.837395e-01 2.075307e-01 2.366335e-01 2.717631e-01 3.136987e-01 3.467593e-01 3.496955e-01 3.255495e-01 2.969943e-01 2.703144e-01 2.463752e-01 2.257387e-01 2.088692e-01 1.959576e-01 1.869329e-01 1.813650e-01 1.785409e-01 1.775496e-01 1.775759e-01 1.778779e-01 1.780620e-01 1.779090e-01 1.776076e-01 1.775240e-01 1.783471e-01 1.808572e-01 1.858987e-01 1.941631e-01 2.060848e-01 2.218110e-01 2.412432e-01 2.641784e-01 2.901536e-01 3.181284e-01 3.455209e-01 3.517794e-01 3.258297e-01 2.839977e-01 2.465599e-01 2.162786e-01 1.914110e-01 1.712338e-01 1.542554e-01 1.395067e-01 1.262833e-01 1.142631e-01 1.034012e-01 9.378280e-02 8.557918e-02 7.895457e-02 7.406133e-02 7.101215e-02 
7.558965e-02 7.652282e-02 7.961514e-02 8.475807e-02 9.178078e-02 1.004868e-01 1.106428e-01 1.220713e-01 1.346248e-01 1.484241e-01 1.637300e-01 1.814313e-01 2.023571e-01 2.282613e-01 2.591973e-01 2.974591e-01 3.376645e-01 3.567360e-01 3.419296e-01 3.121607e-01 2.834850e-01 2.572513e-01 2.336349e-01 2.131359e-01 1.960781e-01 1.826418e-01 1.727733e-01 1.661277e-01 1.621433e-01 1.600671e-01 1.592168e-01 1.589557e-01 1.589323e-01 1.589579e-01 1.591863e-01 1.599404e-01 1.618037e-01 1.654323e-01 1.715239e-01 1.806403e-01 1.931415e-01 2.091483e-01 2.285703e-01 2.512660e-01 2.767121e-01 3.048128e-01 3.344936e-01 3.568187e-01 3.469709e-01 3.099703e-01 2.697120e-01 2.376712e-01 2.108157e-01 1.889186e-01 1.703582e-01 1.541049e-01 1.394307e-01 1.259754e-01 1.137373e-01 1.028332e-01 9.349469e-02 8.593284e-02 8.034405e-02 7.686928e-02 
8.102932e-02 8.213152e-02 8.569382e-02 9.158268e-02 9.959276e-02 1.094709e-01 1.209265e-01 1.337048e-01 1.476087e-01 1.627072e-01 1.792710e-01 1.982355e-01 2.204749e-01 2.479904e-01 2.802962e-01 3.207544e-01 3.549746e-01 3.591197e-01 3.319629e-01 3.022585e-01 2.738669e-01 2.481911e-01 2.247049e-01 2.040699e-01 1.865175e-01 1.722795e-01 1.613612e-01 1.535013e-01 1.482825e-01 1.450853e-01 1.433402e-01 1.425032e-01 1.422642e-01 1.424612e-01 1.432186e-01 1.448178e-01 1.477507e-01 1.525694e-01 1.598457e-01 1.700243e-01 1.833699e-01 1.999341e-01 2.196002e-01 2.421643e-01 2.672230e-01 2.947777e-01 3.242664e-01 3.546316e-01 3.607005e-01 3.328835e-01 2.920433e-01 2.582105e-01 2.299178e-01 2.064035e-01 1.863906e-01 1.686395e-01 1.525128e-01 1.375891e-01 1.239387e-01 1.117084e-01 1.011986e-01 9.266874e-02 8.636099e-02 8.244738e-02 
8.606919e-02 8.735303e-02 9.140566e-02 9.806700e-02 1.070991e-01 1.181897e-01 1.309939e-01 1.451659e-01 1.604569e-01 1.768374e-01 1.945951e-01 2.145640e-01 2.378275e-01 2.661644e-01 2.999909e-01 3.403972e-01 3.663456e-01 3.570533e-01 3.254374e-01 2.963041e-01 2.685586e-01 2.430015e-01 2.193762e-01 1.982437e-01 1.799287e-01 1.646744e-01 1.525717e-01 1.434373e-01 1.369644e-01 1.326487e-01 1.300201e-01 1.286140e-01 1.281584e-01 1.285153e-01 1.297848e-01 1.322117e-01 1.362101e-01 1.422455e-01 1.507825e-01 1.621576e-01 1.765526e-01 1.939342e-01 2.141480e-01 2.368530e-01 2.617995e-01 2.886354e-01 3.179251e-01 3.492384e-01 3.684316e-01 3.517778e-01 3.132951e-01 2.773525e-01 2.481291e-01 2.231561e-01 2.018672e-01 1.826884e-01 1.651527e-01 1.487801e-01 1.337261e-01 1.201756e-01 1.084945e-01 9.899723e-02 9.196970e-02 8.761946e-02 
9.058639e-02 9.206035e-02 9.660701e-02 1.040384e-01 1.140891e-01 1.263907e-01 1.405508e-01 1.561275e-01 1.728254e-01 1.904790e-01 2.093870e-01 2.301485e-01 2.541302e-01 2.825351e-01 3.177842e-01 3.565122e-01 3.734664e-01 3.541756e-01 3.235320e-01 2.944471e-01 2.671081e-01 2.412185e-01 2.171355e-01 1.952169e-01 1.759357e-01 1.595334e-01 1.461897e-01 1.357826e-01 1.280979e-01 1.227202e-01 1.192591e-01 1.173174e-01 1.166570e-01 1.171604e-01 1.189096e-01 1.221196e-01 1.271391e-01 1.343609e-01 1.441590e-01 1.567908e-01 1.723617e-01 1.907611e-01 2.117762e-01 2.349434e-01 2.600455e-01 2.864063e-01 3.150210e-01 3.446525e-01 3.721096e-01 3.663288e-01 3.316606e-01 2.942917e-01 2.645785e-01 2.385617e-01 2.162262e-01 1.957879e-01 1.769342e-01 1.591900e-01 1.427877e-01 1.279720e-01 1.151651e-01 1.047398e-01 9.702173e-02 9.225581e-02 
9.447030e-02 9.612981e-02 1.011438e-01 1.093030e-01 1.203192e-01 1.337794e-01 1.492524e-01 1.662168e-01 1.843254e-01 2.032859e-01 2.233643e-01 2.449276e-01 2.694510e-01 2.976515e-01 3.331703e-01 3.690841e-01 3.775111e-01 3.525373e-01 3.236920e-01 2.951178e-01 2.679913e-01 2.417082e-01 2.170285e-01 1.942280e-01 1.739247e-01 1.563690e-01 1.418277e-01 1.302293e-01 1.214345e-01 1.150965e-01 1.108876e-01 1.084650e-01 1.076197e-01 1.082527e-01 1.104328e-01 1.143470e-01 1.202916e-01 1.286039e-01 1.395898e-01 1.534453e-01 1.702101e-01 1.897127e-01 2.116722e-01 2.355531e-01 2.610607e-01 2.874089e-01 3.153083e-01 3.436571e-01 3.738606e-01 3.768551e-01 3.461326e-01 3.087544e-01 2.787537e-01 2.522093e-01 2.290189e-01 2.075374e-01 1.874721e-01 1.684792e-01 1.508266e-01 1.348510e-01 1.210089e-01 1.097354e-01 1.013858e-01 9.624278e-02 
9.761540e-02 9.944487e-02 1.048722e-01 1.136728e-01 1.255434e-01 1.400391e-01 1.567018e-01 1.749566e-01 1.944040e-01 2.146609e-01 2.358987e-01 2.583541e-01 2.833601e-01 3.115444e-01 3.464113e-01 3.788333e-01 3.801660e-01 3.525350e-01 3.246050e-01 2.967538e-01 2.698255e-01 2.432830e-01 2.180716e-01 1.944773e-01 1.732472e-01 1.546597e-01 1.390653e-01 1.264349e-01 1.166925e-01 1.095420e-01 1.047045e-01 1.018785e-01 1.008788e-01 1.016228e-01 1.041670e-01 1.086778e-01 1.154118e-01 1.246662e-01 1.366946e-01 1.516490e-01 1.695112e-01 1.900702e-01 2.129640e-01 2.376436e-01 2.636577e-01 2.903247e-01 3.177615e-01 3.454421e-01 3.749405e-01 3.842138e-01 3.575081e-01 3.208755e-01 2.905705e-01 2.638136e-01 2.398830e-01 2.175318e-01 1.963709e-01 1.762822e-01 1.575274e-01 1.405490e-01 1.258152e-01 1.138173e-01 1.049301e-01 9.946921e-02 
9.993524e-02 1.018974e-01 1.076474e-01 1.169503e-01 1.294930e-01 1.448128e-01 1.624346e-01 1.817599e-01 2.023385e-01 2.237402e-01 2.459859e-01 2.692817e-01 2.946206e-01 3.229010e-01 3.566252e-01 3.856110e-01 3.819219e-01 3.536904e-01 3.262098e-01 2.988301e-01 2.719254e-01 2.451656e-01 2.195051e-01 1.952726e-01 1.732966e-01 1.538891e-01 1.374674e-01 1.240357e-01 1.135651e-01 1.057945e-01 1.004798e-01 9.734759e-02 9.623057e-02 9.705777e-02 9.987733e-02 1.048408e-01 1.121773e-01 1.221564e-01 1.349950e-01 1.508146e-01 1.695484e-01 1.909595e-01 2.145963e-01 2.399210e-01 2.662771e-01 2.931745e-01 3.201436e-01 3.474990e-01 3.756362e-01 3.891564e-01 3.664432e-01 3.307395e-01 3.000031e-01 2.731166e-01 2.484702e-01 2.253743e-01 2.032576e-01 1.822680e-01 1.626168e-01 1.448473e-01 1.294156e-01 1.168573e-01 1.075548e-01 1.018501e-01 
1.013600e-01 1.034102e-01 1.093694e-01 1.189971e-01 1.319753e-01 1.478334e-01 1.660886e-01 1.861376e-01 2.074965e-01 2.297207e-01 2.526901e-01 2.766423e-01 3.022002e-01 3.307035e-01 3.634048e-01 3.897335e-01 3.828652e-01 3.546557e-01 3.273094e-01 3.002494e-01 2.733568e-01 2.465122e-01 2.205898e-01 1.959755e-01 1.735340e-01 1.536106e-01 1.366655e-01 1.227273e-01 1.117980e-01 1.036377e-01 9.802393e-02 9.470031e-02 9.351059e-02 9.439173e-02 9.738610e-02 1.026369e-01 1.103572e-01 1.208007e-01 1.341619e-01 1.505440e-01 1.698461e-01 1.918149e-01 2.159278e-01 2.416567e-01 2.681806e-01 2.951571e-01 3.217415e-01 3.488856e-01 3.760931e-01 3.920391e-01 3.722800e-01 3.373769e-01 3.062928e-01 2.793239e-01 2.541037e-01 2.304607e-01 2.076559e-01 1.860521e-01 1.658026e-01 1.475203e-01 1.316421e-01 1.187291e-01 1.091654e-01 1.033091e-01 
1.018412e-01 1.039200e-01 1.099492e-01 1.196866e-01 1.328123e-01 1.488537e-01 1.673260e-01 1.876287e-01 2.092662e-01 2.317941e-01 2.550311e-01 2.792433e-01 3.048743e-01 3.335192e-01 3.657905e-01 3.910582e-01 3.831841e-01 3.551081e-01 3.277955e-01 3.008398e-01 2.739456e-01 2.470640e-01 2.210413e-01 1.962834e-01 1.736710e-01 1.535608e-01 1.364298e-01 1.223140e-01 1.112259e-01 1.029318e-01 9.721600e-02 9.382706e-02 9.261219e-02 9.351028e-02 9.656262e-02 1.019093e-01 1.097581e-01 1.203578e-01 1.338955e-01 1.504685e-01 1.699633e-01 1.921216e-01 2.163923e-01 2.422525e-01 2.688181e-01 2.958034e-01 3.222431e-01 3.493167e-01 3.762465e-01 3.930286e-01 3.743057e-01 3.397265e-01 3.085467e-01 2.815549e-01 2.561084e-01 2.322551e-01 2.091904e-01 1.873627e-01 1.668983e-01 1.484368e-01 1.324038e-01 1.193682e-01 1.097138e-01 1.038043e-01 
1.013600e-01 1.034102e-01 1.093694e-01 1.189971e-01 1.319753e-01 1.478334e-01 1.660886e-01 1.861376e-01 2.074965e-01 2.297207e-01 2.526901e-01 2.766423e-01 3.022002e-01 3.307035e-01 3.634048e-01 3.897335e-01 3.828652e-01 3.546557e-01 3.273094e-01 3.002494e-01 2.733568e-01 2.465122e-01 2.205898e-01 1.959755e-01 1.735340e-01 1.536106e-01 1.366655e-01 1.227273e-01 1.117980e-01 1.036377e-01 9.802393e-02 9.470031e-02 9.351059e-02 9.439173e-02 9.738610e-02 1.026369e-01 1.103572e-01 1.208007e-01 1.341619e-01 1.505440e-01 1.698461e-01 1.918149e-01 2.159278e-01 2.416567e-01 2.681806e-01 2.951571e-01 3.217415e-01 3.488856e-01 3.760931e-01 3.920391e-01 3.722800e-01 3.373769e-01 3.062928e-01 2.793239e-01 2.541037e-01 2.304607e-01 2.076559e-01 1.860521e-01 1.658026e-01 1.475203e-01 1.316421e-01 1.187291e-01 1.091654e-01 1.033091e-01 
9.993524e-02 1.018974e-01 1.076474e-01 1.169503e-01 1.294930e-01 1.448128e-01 1.624346e-01 1.817599e-01 2.023385e-01 2.237402e-01 2.459859e-01 2.692817e-01 2.946206e-01 3.229010e-01 3.566252e-01 3.856110e-01 3.819219e-01 3.536904e-01 3.262098e-01 2.988301e-01 2.719254e-01 2.451656e-01 2.195051e-01 1.952726e-01 1.732966e-01 1.538891e-01 1.374674e-01 1.240357e-01 1.135651e-01 1.057945e-01 1.004798e-01 9.734759e-02 9.623057e-02 9.705777e-02 9.987733e-02 1.048408e-01 1.121773e-01 1.221564e-01 1.349950e-01 1.508146e-01 1.695484e-01 1.909595e-01 2.145963e-01 2.399210e-01 2.662771e-01 2.931745e-01 3.201436e-01 3.474990e-01 3.756362e-01 3.891564e-01 3.664432e-01 3.307395e-01 3.000031e-01 2.731166e-01 2.484702e-01 2.253743e-01 2.032576e-01 1.822680e-01 1.626168e-01 1.448473e-01 1.294156e-01 1.168573e-01 1.075548e-01 1.018501e-01 