# vtk DataFile Version 2.0
Comment goes here
ASCII

DATASET STRUCTURED_POINTS
FIELD FieldData 1
TIME 1 1 double
1.76000000
DIMENSIONS    64   64   1

ORIGIN    0.000   0.000   0.000
SPACING   0.015625 0.015625   1.000

POINT_DATA   4096
SCALARS Concentration double
LOOKUP_TABLE default

1.420637e-02 1.430261e-02 1.466645e-02 1.531160e-02 1.626108e-02 1.754764e-02 1.921197e-02 2.130328e-02 2.387529e-02 2.698654e-02 3.069290e-02 3.504643e-02 4.008332e-02 4.582556e-02 5.226842e-02 5.938262e-02 6.710618e-02 7.535013e-02 8.399811e-02 9.291422e-02 1.019503e-01 1.109513e-01 1.197666e-01 1.282485e-01 1.362636e-01 1.436830e-01 1.503946e-01 1.562944e-01 1.612933e-01 1.653105e-01 1.682780e-01 1.701385e-01 1.708489e-01 1.703862e-01 1.687656e-01 1.660204e-01 1.622006e-01 1.573716e-01 1.516120e-01 1.450148e-01 1.376838e-01 1.297384e-01 1.213054e-01 1.125252e-01 1.035412e-01 9.450810e-02 8.557609e-02 7.689514e-02 6.859876e-02 6.080487e-02 5.360430e-02 4.706141e-02 4.121053e-02 3.605888e-02 3.159006e-02 2.776896e-02 2.454849e-02 2.187270e-02 1.968488e-02 1.793012e-02 1.655949e-02 1.553069e-02 1.481033e-02 1.437384e-02 
1.439447e-02 1.449014e-02 1.485305e-02 1.549696e-02 1.644495e-02 1.772992e-02 1.939278e-02 2.148302e-02 2.405468e-02 2.716678e-02 3.087591e-02 3.523533e-02 4.028248e-02 4.604068e-02 5.250685e-02 5.965330e-02 6.741981e-02 7.571876e-02 8.443521e-02 9.343383e-02 1.025670e-01 1.116791e-01 1.206189e-01 1.292370e-01 1.373988e-01 1.449707e-01 1.518355e-01 1.578834e-01 1.630186e-01 1.671536e-01 1.702128e-01 1.721329e-01 1.728659e-01 1.723876e-01 1.707143e-01 1.678835e-01 1.639516e-01 1.589909e-01 1.530874e-01 1.463407e-01 1.388604e-01 1.307710e-01 1.222032e-01 1.132992e-01 1.042035e-01 9.507186e-02 8.605486e-02 7.730235e-02 6.894727e-02 6.110652e-02 5.386967e-02 4.729960e-02 4.142911e-02 3.626393e-02 3.178630e-02 2.795999e-02 2.473664e-02 2.205953e-02 1.987136e-02 1.811683e-02 1.674674e-02 1.571850e-02 1.499853e-02 1.456215e-02 
1.496251e-02 1.505650e-02 1.541668e-02 1.605696e-02 1.700059e-02 1.828088e-02 1.993934e-02 2.202624e-02 2.459662e-02 2.771108e-02 3.142824e-02 3.580453e-02 4.088151e-02 4.668664e-02 5.322141e-02 6.046330e-02 6.835694e-02 7.681941e-02 8.573936e-02 9.498404e-02 1.044067e-01 1.138507e-01 1.231619e-01 1.321857e-01 1.407812e-01 1.488014e-01 1.561150e-01 1.625946e-01 1.681260e-01 1.726018e-01 1.759262e-01 1.780185e-01 1.788172e-01 1.782940e-01 1.764692e-01 1.733918e-01 1.691356e-01 1.637929e-01 1.574705e-01 1.502866e-01 1.423678e-01 1.338529e-01 1.248843e-01 1.156109e-01 1.061816e-01 9.675588e-02 8.748519e-02 7.851947e-02 6.998959e-02 6.200964e-02 5.466518e-02 4.801469e-02 4.208636e-02 3.688143e-02 3.237810e-02 2.853665e-02 2.530495e-02 2.262409e-02 2.043501e-02 1.868123e-02 1.731264e-02 1.628594e-02 1.556700e-02 1.513090e-02 
1.592252e-02 1.601372e-02 1.636951e-02 1.700395e-02 1.794058e-02 1.921331e-02 2.086453e-02 2.294585e-02 2.551393e-02 2.863186e-02 3.236172e-02 3.676432e-02 4.188839e-02 4.776837e-02 5.441350e-02 6.180944e-02 6.990920e-02 7.863719e-02 8.788847e-02 9.753385e-02 1.074284e-01 1.174130e-01 1.273288e-01 1.370114e-01 1.463083e-01 1.550524e-01 1.630900e-01 1.702670e-01 1.764398e-01 1.814694e-01 1.852261e-01 1.876002e-01 1.885066e-01 1.879107e-01 1.858386e-01 1.823592e-01 1.775761e-01 1.716148e-01 1.646165e-01 1.567285e-01 1.481041e-01 1.389037e-01 1.292864e-01 1.194133e-01 1.094413e-01 9.953619e-02 8.985147e-02 8.053744e-02 7.172207e-02 6.351482e-02 5.599489e-02 4.921352e-02 4.319130e-02 3.792219e-02 3.337776e-02 2.951159e-02 2.626630e-02 2.357931e-02 2.138872e-02 1.963610e-02 1.826980e-02 1.724540e-02 1.652796e-02 1.609214e-02 
1.729434e-02 1.738172e-02 1.773164e-02 1.835836e-02 1.928575e-02 2.054847e-02 2.218995e-02 2.426371e-02 2.682855e-02 2.995087e-02 3.369735e-02 3.813499e-02 4.332029e-02 4.929900e-02 5.609119e-02 6.369410e-02 7.207202e-02 8.115996e-02 9.086131e-02 1.010522e-01 1.115894e-01 1.223101e-01 1.330480e-01 1.436243e-01 1.538689e-01 1.635869e-01 1.725949e-01 1.807036e-01 1.877311e-01 1.934984e-01 1.978310e-01 2.005812e-01 2.016318e-01 2.009398e-01 1.985390e-01 1.945244e-01 1.890398e-01 1.822549e-01 1.743564e-01 1.655293e-01 1.559610e-01 1.458397e-01 1.353468e-01 1.246610e-01 1.139507e-01 1.033918e-01 9.314139e-02 8.335128e-02 7.414577e-02 6.562839e-02 5.786957e-02 5.091062e-02 4.476170e-02 3.940667e-02 3.480681e-02 3.090685e-02 2.764289e-02 2.494730e-02 2.275431e-02 2.100291e-02 1.963923e-02 1.861746e-02 1.790161e-02 1.746584e-02 
1.910494e-02 1.918757e-02 1.953049e-02 2.014822e-02 2.106489e-02 2.231597e-02 2.394607e-02 2.601098e-02 2.857211e-02 3.169980e-02 3.546628e-02 3.994622e-02 4.520584e-02 5.130257e-02 5.827220e-02 6.612720e-02 7.484651e-02 8.437798e-02 9.463589e-02 1.055019e-01 1.168347e-01 1.284650e-01 1.402167e-01 1.518906e-01 1.632944e-01 1.741997e-01 1.843900e-01 1.936360e-01 2.017129e-01 2.083942e-01 2.134470e-01 2.166715e-01 2.179052e-01 2.170936e-01 2.142791e-01 2.095935e-01 2.032370e-01 1.954396e-01 1.864453e-01 1.764810e-01 1.657720e-01 1.545353e-01 1.429750e-01 1.312926e-01 1.196711e-01 1.083015e-01 9.734706e-02 8.696317e-02 7.727091e-02 6.836694e-02 6.031115e-02 5.313238e-02 4.682770e-02 4.136638e-02 3.669704e-02 3.275446e-02 2.946652e-02 2.675931e-02 2.456229e-02 2.281140e-02 2.144987e-02 2.043029e-02 1.971550e-02 1.927914e-02 
2.138739e-02 2.146450e-02 2.179989e-02 2.240829e-02 2.331402e-02 2.455332e-02 2.617197e-02 2.822803e-02 3.078621e-02 3.392108e-02 3.771120e-02 4.224004e-02 4.758521e-02 5.381828e-02 6.099125e-02 6.913556e-02 7.825028e-02 8.829900e-02 9.920828e-02 1.108665e-01 1.231329e-01 1.358301e-01 1.487682e-01 1.617230e-01 1.744740e-01 1.867502e-01 1.982977e-01 2.088417e-01 2.181117e-01 2.258315e-01 2.317028e-01 2.354685e-01 2.369145e-01 2.359690e-01 2.326839e-01 2.272336e-01 2.198847e-01 2.109373e-01 2.007008e-01 1.894452e-01 1.774362e-01 1.649196e-01 1.521253e-01 1.392825e-01 1.265923e-01 1.142668e-01 1.024790e-01 9.139119e-02 8.112211e-02 7.176112e-02 6.335583e-02 5.591970e-02 4.943116e-02 4.384347e-02 3.909109e-02 3.509682e-02 3.177877e-02 2.905574e-02 2.685176e-02 2.509922e-02 2.373793e-02 2.271886e-02 2.200360e-02 2.156534e-02 
2.417919e-02 2.425028e-02 2.457851e-02 2.517873e-02 2.607524e-02 2.730495e-02 2.891455e-02 3.096424e-02 3.352256e-02 3.666853e-02 4.048740e-02 4.507244e-02 5.051405e-02 5.690000e-02 6.430125e-02 7.277027e-02 8.232716e-02 9.295611e-02 1.046002e-01 1.171525e-01 1.304718e-01 1.443675e-01 1.586326e-01 1.730103e-01 1.872473e-01 2.010243e-01 2.140522e-01 2.260168e-01 2.366098e-01 2.455080e-01 2.523270e-01 2.567299e-01 2.584367e-01 2.573378e-01 2.534979e-01 2.471528e-01 2.386667e-01 2.284369e-01 2.168487e-01 2.042046e-01 1.908000e-01 1.768989e-01 1.627513e-01 1.486192e-01 1.347265e-01 1.213154e-01 1.085751e-01 9.668045e-02 8.575009e-02 7.586679e-02 6.706199e-02 5.932937e-02 5.262855e-02 4.689416e-02 4.204415e-02 3.798749e-02 3.463119e-02 3.188588e-02 2.966985e-02 2.791097e-02 2.654575e-02 2.552354e-02 2.480477e-02 2.436234e-02 
2.752010e-02 2.758510e-02 2.790783e-02 2.850320e-02 2.939513e-02 3.062089e-02 3.222772e-02 3.427758e-02 3.684301e-02 4.000778e-02 4.386399e-02 4.851528e-02 5.406611e-02 6.062223e-02 6.827607e-02 7.710400e-02 8.715038e-02 9.842128e-02 1.108751e-01 1.244131e-01 1.388906e-01 1.541018e-01 1.698171e-01 1.857460e-01 2.015954e-01 2.169834e-01 2.315869e-01 2.450411e-01 2.570053e-01 2.671193e-01 2.749167e-01 2.799887e-01 2.819737e-01 2.807215e-01 2.763089e-01 2.690354e-01 2.593684e-01 2.478111e-01 2.348280e-01 2.207409e-01 2.058750e-01 1.905034e-01 1.748967e-01 1.593587e-01 1.441359e-01 1.295140e-01 1.157054e-01 1.029045e-01 9.123159e-02 8.075880e-02 7.150209e-02 6.343361e-02 5.649124e-02 5.058809e-02 4.562345e-02 4.149068e-02 3.808455e-02 3.530694e-02 3.307011e-02 3.129665e-02 2.991998e-02 2.888817e-02 2.816064e-02 2.771039e-02 
3.144905e-02 3.150841e-02 3.182913e-02 3.242598e-02 3.332199e-02 3.455441e-02 3.617035e-02 3.823329e-02 4.081844e-02 4.401583e-02 4.792395e-02 5.265733e-02 5.833532e-02 6.508356e-02 7.301831e-02 8.224293e-02 9.282928e-02 1.048072e-01 1.181521e-01 1.327681e-01 1.485026e-01 1.651237e-01 1.823781e-01 1.999327e-01 2.174489e-01 2.344663e-01 2.506378e-01 2.655768e-01 2.789512e-01 2.903967e-01 2.993256e-01 3.052047e-01 3.075398e-01 3.061115e-01 3.010157e-01 2.926539e-01 2.816646e-01 2.687222e-01 2.543699e-01 2.388929e-01 2.226062e-01 2.057623e-01 1.886458e-01 1.716153e-01 1.549489e-01 1.389938e-01 1.239984e-01 1.101836e-01 9.767702e-02 8.654179e-02 7.677631e-02 6.832811e-02 6.111020e-02 5.501131e-02 4.990975e-02 4.568166e-02 4.220853e-02 3.938319e-02 3.711121e-02 3.530967e-02 3.390931e-02 3.285740e-02 3.211283e-02 3.164916e-02 
3.600061e-02 3.605559e-02 3.638019e-02 3.698883e-02 3.790302e-02 3.915937e-02 4.080402e-02 4.290117e-02 4.552764e-02 4.878033e-02 5.276425e-02 5.760476e-02 6.343711e-02 7.040818e-02 7.866078e-02 8.832815e-02 9.951312e-02 1.122720e-01 1.265967e-01 1.423907e-01 1.594824e-01 1.776078e-01 1.964818e-01 2.157483e-01 2.350144e-01 2.537223e-01 2.715154e-01 2.879322e-01 3.026400e-01 3.153041e-01 3.252406e-01 3.318358e-01 3.344843e-01 3.328987e-01 3.271902e-01 3.178493e-01 3.056563e-01 2.914419e-01 2.758042e-01 2.589619e-01 2.412566e-01 2.229032e-01 2.041997e-01 1.855805e-01 1.673416e-01 1.499159e-01 1.336012e-01 1.186552e-01 1.052177e-01 9.334070e-02 8.300391e-02 7.412572e-02 6.659169e-02 6.026282e-02 5.499453e-02 5.064412e-02 4.707915e-02 4.418344e-02 4.185393e-02 4.000364e-02 3.856099e-02 3.747325e-02 3.669935e-02 3.621414e-02 
4.120048e-02 4.125320e-02 4.159055e-02 4.222629e-02 4.317959e-02 4.448569e-02 4.618852e-02 4.835224e-02 5.105429e-02 5.439672e-02 5.849318e-02 6.347984e-02 6.950810e-02 7.674823e-02 8.537182e-02 9.554631e-02 1.074096e-01 1.210491e-01 1.364748e-01 1.535838e-01 1.721738e-01 1.919204e-01 2.125076e-01 2.335524e-01 2.546017e-01 2.749256e-01 2.941530e-01 3.118252e-01 3.277414e-01 3.417287e-01 3.529058e-01 3.604297e-01 3.634954e-01 3.617002e-01 3.551753e-01 3.445866e-01 3.310448e-01 3.156749e-01 2.990210e-01 2.810678e-01 2.621063e-01 2.422743e-01 2.219200e-01 2.015965e-01 1.816206e-01 1.625461e-01 1.447455e-01 1.285240e-01 1.140378e-01 1.013233e-01 9.033810e-02 8.096646e-02 7.306295e-02 6.645768e-02 6.098095e-02 5.646983e-02 5.277723e-02 4.977764e-02 4.735818e-02 4.542907e-02 4.391724e-02 4.277106e-02 4.195038e-02 4.143225e-02 
4.706137e-02 4.711509e-02 4.747768e-02 4.816192e-02 4.918361e-02 5.057572e-02 5.237858e-02 5.465522e-02 5.748242e-02 6.096552e-02 6.522861e-02 7.041904e-02 7.670540e-02 8.428241e-02 9.335410e-02 1.041252e-01 1.167755e-01 1.314286e-01 1.481187e-01 1.667332e-01 1.870165e-01 2.085505e-01 2.309616e-01 2.539196e-01 2.768816e-01 2.989652e-01 3.198935e-01 3.389331e-01 3.558124e-01 3.705990e-01 3.824110e-01 3.903881e-01 3.936518e-01 3.917302e-01 3.848096e-01 3.736037e-01 3.593240e-01 3.431600e-01 3.255086e-01 3.062169e-01 2.858395e-01 2.643960e-01 2.422127e-01 2.200261e-01 1.980989e-01 1.771529e-01 1.576710e-01 1.400063e-01 1.243380e-01 1.106744e-01 9.894905e-02 8.900472e-02 8.066288e-02 7.371924e-02 6.797738e-02 6.325281e-02 5.938367e-02 5.623233e-02 5.367774e-02 5.162825e-02 5.001033e-02 4.877494e-02 4.788388e-02 4.731763e-02 
5.357803e-02 5.363713e-02 5.404147e-02 5.480238e-02 5.593119e-02 5.745753e-02 5.941646e-02 6.186881e-02 6.488905e-02 6.858570e-02 7.309008e-02 7.856633e-02 8.520002e-02 9.321332e-02 1.028449e-01 1.143435e-01 1.279367e-01 1.437988e-01 1.620011e-01 1.824350e-01 2.047747e-01 2.284318e-01 2.529483e-01 2.780295e-01 3.031776e-01 3.269812e-01 3.491342e-01 3.689202e-01 3.863985e-01 4.021800e-01 4.152255e-01 4.240754e-01 4.276544e-01 4.254719e-01 4.177821e-01 4.053767e-01 3.901482e-01 3.735075e-01 3.553462e-01 3.351126e-01 3.134398e-01 2.901697e-01 2.659161e-01 2.415767e-01 2.173380e-01 1.941806e-01 1.727403e-01 1.534116e-01 1.363882e-01 1.216321e-01 1.090455e-01 9.842246e-02 8.954845e-02 8.218170e-02 7.609709e-02 7.108739e-02 6.697477e-02 6.360679e-02 6.085624e-02 5.863091e-02 5.685809e-02 5.549302e-02 5.450082e-02 5.386670e-02 
6.072443e-02 6.079470e-02 6.126170e-02 6.213495e-02 6.341993e-02 6.514191e-02 6.732880e-02 7.003810e-02 7.334048e-02 7.734725e-02 8.219499e-02 8.806843e-02 9.517389e-02 1.037627e-01 1.141135e-01 1.265213e-01 1.412721e-01 1.586009e-01 1.786452e-01 2.013247e-01 2.262388e-01 2.524834e-01 2.793539e-01 3.067115e-01 3.340733e-01 3.599642e-01 3.850312e-01 4.073790e-01 4.255228e-01 4.403641e-01 4.518333e-01 4.592536e-01 4.621022e-01 4.602541e-01 4.537748e-01 4.430050e-01 4.290866e-01 4.122112e-01 3.919775e-01 3.689829e-01 3.452053e-01 3.198518e-01 2.933720e-01 2.666777e-01 2.397697e-01 2.140013e-01 1.902992e-01 1.690505e-01 1.504730e-01 1.344493e-01 1.208488e-01 1.094088e-01 9.987867e-02 9.197662e-02 8.544703e-02 8.005902e-02 7.561348e-02 7.194503e-02 6.892042e-02 6.644866e-02 6.445915e-02 6.291353e-02 6.178170e-02 6.105523e-02 
6.845025e-02 6.853862e-02 6.909358e-02 7.012216e-02 7.162272e-02 7.361485e-02 7.611739e-02 7.918351e-02 8.287850e-02 8.731717e-02 9.264198e-02 9.905654e-02 1.067977e-01 1.161517e-01 1.274396e-01 1.410097e-01 1.572074e-01 1.763444e-01 1.986447e-01 2.241476e-01 2.524011e-01 2.819994e-01 3.119214e-01 3.419750e-01 3.727907e-01 4.006064e-01 4.248937e-01 4.439868e-01 4.573802e-01 4.669493e-01 4.733596e-01 4.770537e-01 4.783193e-01 4.774128e-01 4.741516e-01 4.683235e-01 4.597564e-01 4.476283e-01 4.308374e-01 4.090526e-01 3.836135e-01 3.550276e-01 3.258838e-01 2.962461e-01 2.660992e-01 2.371937e-01 2.108338e-01 1.873480e-01 1.669598e-01 1.494369e-01 1.346157e-01 1.221712e-01 1.118177e-01 1.032318e-01 9.612407e-02 9.023772e-02 8.534512e-02 8.127087e-02 7.787535e-02 7.507031e-02 7.278874e-02 7.100083e-02 6.968296e-02 6.883468e-02 
7.668178e-02 7.679660e-02 7.746897e-02 7.870305e-02 8.048841e-02 8.283791e-02 8.575899e-02 8.929991e-02 9.351904e-02 9.853630e-02 1.045012e-01 1.116399e-01 1.202250e-01 1.305890e-01 1.431051e-01 1.581741e-01 1.762036e-01 1.975623e-01 2.225692e-01 2.514324e-01 2.836474e-01 3.171166e-01 3.509787e-01 3.833192e-01 4.123070e-01 4.324650e-01 4.448444e-01 4.519042e-01 4.556693e-01 4.580969e-01 4.598763e-01 4.609632e-01 4.612994e-01 4.608394e-01 4.596842e-01 4.581130e-01 4.560273e-01 4.530157e-01 4.474339e-01 4.370487e-01 4.198108e-01 3.940748e-01 3.633131e-01 3.302085e-01 2.967221e-01 2.642287e-01 2.348344e-01 2.087446e-01 1.862302e-01 1.669116e-01 1.505956e-01 1.369011e-01 1.255073e-01 1.160495e-01 1.081989e-01 1.016637e-01 9.618628e-02 9.158059e-02 8.769936e-02 8.445890e-02 8.179700e-02 7.969487e-02 7.813707e-02 7.713303e-02 
8.532136e-02 8.547196e-02 8.629487e-02 8.779039e-02 8.993799e-02 9.274207e-02 9.619663e-02 1.003441e-01 1.052348e-01 1.109960e-01 1.177867e-01 1.258638e-01 1.355367e-01 1.472032e-01 1.613010e-01 1.782920e-01 1.986362e-01 2.227072e-01 2.508137e-01 2.833531e-01 3.195034e-01 3.566991e-01 3.912054e-01 4.165113e-01 4.297932e-01 4.331230e-01 4.307494e-01 4.281292e-01 4.286602e-01 4.316542e-01 4.351621e-01 4.375234e-01 4.382758e-01 4.373963e-01 4.349830e-01 4.316792e-01 4.285252e-01 4.276719e-01 4.299192e-01 4.332649e-01 4.323282e-01 4.222408e-01 4.003875e-01 3.680415e-01 3.315355e-01 2.956005e-01 2.628330e-01 2.337288e-01 2.086988e-01 1.871914e-01 1.690203e-01 1.537580e-01 1.410514e-01 1.304929e-01 1.217005e-01 1.143394e-01 1.081174e-01 1.028363e-01 9.833901e-02 9.454762e-02 9.140615e-02 8.890912e-02 8.705139e-02 8.585377e-02 
9.425318e-02 9.445003e-02 9.545927e-02 9.727679e-02 9.986998e-02 1.032335e-01 1.073451e-01 1.122411e-01 1.179616e-01 1.246454e-01 1.324621e-01 1.417097e-01 1.527422e-01 1.660272e-01 1.820979e-01 2.014869e-01 2.247303e-01 2.521287e-01 2.838405e-01 3.202506e-01 3.594621e-01 3.949255e-01 4.167618e-01 4.222373e-01 4.165168e-01 4.085340e-01 4.036204e-01 4.022222e-01 4.041908e-01 4.078102e-01 4.115704e-01 4.141233e-01 4.149679e-01 4.139905e-01 4.113408e-01 4.076733e-01 4.038479e-01 4.015105e-01 4.020492e-01 4.063565e-01 4.144262e-01 4.223801e-01 4.203470e-01 4.029008e-01 3.699807e-01 3.320073e-01 2.953016e-01 2.626860e-01 2.346400e-01 2.104718e-01 1.900006e-01 1.728001e-01 1.584691e-01 1.465563e-01 1.365977e-01 1.282176e-01 1.210775e-01 1.149651e-01 1.097104e-01 1.052431e-01 1.015148e-01 9.853593e-02 9.631358e-02 9.488197e-02 
1.033455e-01 1.035998e-01 1.048331e-01 1.070354e-01 1.101606e-01 1.141911e-01 1.190859e-01 1.248737e-01 1.315827e-01 1.393656e-01 1.484026e-01 1.590415e-01 1.716809e-01 1.868718e-01 2.052424e-01 2.274298e-01 2.541180e-01 2.854351e-01 3.212555e-01 3.604781e-01 3.963695e-01 4.155330e-01 4.151997e-01 4.039668e-01 3.917924e-01 3.830120e-01 3.783843e-01 3.774908e-01 3.800558e-01 3.842180e-01 3.884409e-01 3.913438e-01 3.923434e-01 3.912543e-01 3.882531e-01 3.839932e-01 3.794941e-01 3.763219e-01 3.762295e-01 3.799497e-01 3.879250e-01 4.001239e-01 4.132213e-01 4.174778e-01 4.033964e-01 3.711547e-01 3.320634e-01 2.955061e-01 2.640207e-01 2.366634e-01 2.134195e-01 1.939100e-01 1.776463e-01 1.641268e-01 1.527792e-01 1.431870e-01 1.349528e-01 1.278498e-01 1.216931e-01 1.164214e-01 1.119961e-01 1.084457e-01 1.057925e-01 1.040856e-01 
1.124598e-01 1.127834e-01 1.142787e-01 1.169287e-01 1.206716e-01 1.254754e-01 1.312771e-01 1.380964e-01 1.459459e-01 1.549961e-01 1.654334e-01 1.776637e-01 1.921159e-01 2.094194e-01 2.302698e-01 2.553645e-01 2.856049e-01 3.209561e-01 3.602021e-01 3.966423e-01 4.154603e-01 4.114821e-01 3.964745e-01 3.811111e-01 3.684114e-01 3.597036e-01 3.554515e-01 3.549541e-01 3.574714e-01 3.613292e-01 3.652307e-01 3.679531e-01 3.689240e-01 3.678898e-01 3.650303e-01 3.609516e-01 3.566247e-01 3.533743e-01 3.527709e-01 3.558110e-01 3.634433e-01 3.756135e-01 3.913003e-01 4.081219e-01 4.166300e-01 4.038042e-01 3.700766e-01 3.309353e-01 2.959691e-01 2.651166e-01 2.387799e-01 2.167226e-01 1.983084e-01 1.829866e-01 1.700616e-01 1.590830e-01 1.495899e-01 1.413432e-01 1.341434e-01 1.279407e-01 1.227090e-01 1.184982e-01 1.153484e-01 1.133255e-01 
1.214535e-01 1.218593e-01 1.236542e-01 1.268123e-01 1.312549e-01 1.369318e-01 1.437550e-01 1.517318e-01 1.608565e-01 1.713162e-01 1.832984e-01 1.972694e-01 2.136601e-01 2.331707e-01 2.564633e-01 2.842756e-01 3.177008e-01 3.568798e-01 3.953455e-01 4.169621e-01 4.121799e-01 3.944779e-01 3.758783e-01 3.600044e-01 3.474432e-01 3.388766e-01 3.344419e-01 3.335586e-01 3.354525e-01 3.386977e-01 3.421206e-01 3.445718e-01 3.454613e-01 3.444890e-01 3.418549e-01 3.381392e-01 3.343206e-01 3.315887e-01 3.313241e-01 3.344868e-01 3.418237e-01 3.535576e-01 3.693740e-01 3.888632e-01 4.086349e-01 4.185823e-01 4.029942e-01 3.672489e-01 3.290160e-01 2.946404e-01 2.651850e-01 2.406410e-01 2.200201e-01 2.028048e-01 1.881722e-01 1.756700e-01 1.647793e-01 1.552535e-01 1.468838e-01 1.396335e-01 1.334949e-01 1.285408e-01 1.248335e-01 1.224570e-01 
1.301886e-01 1.306901e-01 1.328201e-01 1.365421e-01 1.417577e-01 1.483956e-01 1.563393e-01 1.655808e-01 1.760902e-01 1.880749e-01 2.017108e-01 2.175440e-01 2.359690e-01 2.578130e-01 2.836241e-01 3.140587e-01 3.505767e-01 3.905995e-01 4.185567e-01 4.175594e-01 3.977850e-01 3.764611e-01 3.574093e-01 3.415322e-01 3.290140e-01 3.202681e-01 3.153294e-01 3.136755e-01 3.145760e-01 3.168212e-01 3.194063e-01 3.213147e-01 3.220056e-01 3.211670e-01 3.190072e-01 3.160393e-01 3.131581e-01 3.113906e-01 3.119356e-01 3.156624e-01 3.232640e-01 3.349895e-01 3.507227e-01 3.703711e-01 3.926882e-01 4.143773e-01 4.215828e-01 3.999773e-01 3.620459e-01 3.240389e-01 2.918837e-01 2.651230e-01 2.423738e-01 2.232427e-01 2.068236e-01 1.926955e-01 1.802972e-01 1.693785e-01 1.597300e-01 1.513299e-01 1.441950e-01 1.384236e-01 1.341040e-01 1.313401e-01 
1.385319e-01 1.391419e-01 1.416396e-01 1.459738e-01 1.520263e-01 1.596980e-01 1.688442e-01 1.794317e-01 1.914083e-01 2.049886e-01 2.203373e-01 2.380677e-01 2.585177e-01 2.826551e-01 3.108518e-01 3.439416e-01 3.829556e-01 4.177682e-01 4.263084e-01 4.074247e-01 3.830472e-01 3.610452e-01 3.419903e-01 3.260331e-01 3.133500e-01 3.040820e-01 2.982494e-01 2.954372e-01 2.950540e-01 2.960997e-01 2.977117e-01 2.989913e-01 2.994404e-01 2.987612e-01 2.971569e-01 2.950906e-01 2.933806e-01 2.929261e-01 2.947476e-01 2.995668e-01 3.079375e-01 3.200723e-01 3.360029e-01 3.555233e-01 3.781346e-01 4.024457e-01 4.244009e-01 4.232090e-01 3.929785e-01 3.529415e-01 3.185635e-01 2.898316e-01 2.649741e-01 2.439011e-01 2.256577e-01 2.098402e-01 1.958681e-01 1.834757e-01 1.724701e-01 1.628419e-01 1.546417e-01 1.479938e-01 1.430177e-01 1.398389e-01 
1.463601e-01 1.470882e-01 1.499771e-01 1.549576e-01 1.618904e-01 1.706436e-01 1.810428e-01 1.930195e-01 2.064971e-01 2.216806e-01 2.387141e-01 2.582643e-01 2.805322e-01 3.067517e-01 3.365971e-01 3.728402e-01 4.117593e-01 4.334609e-01 4.220881e-01 3.964014e-01 3.715754e-01 3.494578e-01 3.303282e-01 3.140818e-01 3.008224e-01 2.906502e-01 2.835990e-01 2.793616e-01 2.774869e-01 2.771549e-01 2.776451e-01 2.781868e-01 2.783496e-01 2.778690e-01 2.769323e-01 2.759401e-01 2.756124e-01 2.767187e-01 2.801147e-01 2.863666e-01 2.958862e-01 3.088013e-01 3.250299e-01 3.444071e-01 3.665874e-01 3.910468e-01 4.173362e-01 4.347332e-01 4.199441e-01 3.822927e-01 3.449871e-01 3.143125e-01 2.873106e-01 2.643220e-01 2.442860e-01 2.267710e-01 2.112047e-01 1.972947e-01 1.848841e-01 1.739765e-01 1.646648e-01 1.571012e-01 1.514393e-01 1.478276e-01 
1.535585e-01 1.544124e-01 1.577063e-01 1.633509e-01 1.711866e-01 1.810432e-01 1.927181e-01 2.060944e-01 2.210754e-01 2.378264e-01 2.564933e-01 2.777412e-01 3.017058e-01 3.297856e-01 3.609305e-01 3.997138e-01 4.345168e-01 4.396794e-01 4.149024e-01 3.884477e-01 3.638610e-01 3.420311e-01 3.226459e-01 3.058068e-01 2.916027e-01 2.801870e-01 2.716493e-01 2.657873e-01 2.622872e-01 2.604960e-01 2.598160e-01 2.595947e-01 2.594621e-01 2.591957e-01 2.589604e-01 2.591058e-01 2.602581e-01 2.630758e-01 2.682354e-01 2.761650e-01 2.871341e-01 3.011327e-01 3.179642e-01 3.373987e-01 3.590922e-01 3.833142e-01 4.095820e-01 4.365704e-01 4.391921e-01 4.087578e-01 3.695139e-01 3.370745e-01 3.084346e-01 2.837733e-01 2.621705e-01 2.430534e-01 2.259515e-01 2.105358e-01 1.967187e-01 1.845197e-01 1.740835e-01 1.655918e-01 1.592349e-01 1.551857e-01 
1.600248e-01 1.610076e-01 1.647067e-01 1.710117e-01 1.797435e-01 1.906904e-01 2.036237e-01 2.183644e-01 2.348004e-01 2.530157e-01 2.731972e-01 2.958879e-01 3.214261e-01 3.508920e-01 3.837771e-01 4.227321e-01 4.493693e-01 4.395303e-01 4.105411e-01 3.846945e-01 3.605360e-01 3.387461e-01 3.188639e-01 3.010958e-01 2.856387e-01 2.727236e-01 2.625260e-01 2.549402e-01 2.497557e-01 2.464769e-01 2.446142e-01 2.436244e-01 2.431983e-01 2.431570e-01 2.436410e-01 2.449503e-01 2.476164e-01 2.521917e-01 2.591918e-01 2.689299e-01 2.815437e-01 2.968917e-01 3.146715e-01 3.345074e-01 3.561643e-01 3.797705e-01 4.055007e-01 4.341496e-01 4.508170e-01 4.312358e-01 3.927481e-01 3.579222e-01 3.281426e-01 3.019266e-01 2.789800e-01 2.583635e-01 2.398056e-01 2.229280e-01 2.077353e-01 1.942684e-01 1.827263e-01 1.733226e-01 1.662832e-01 1.618057e-01 
1.656678e-01 1.667776e-01 1.708672e-01 1.778056e-01 1.873967e-01 1.993876e-01 2.135263e-01 2.295654e-01 2.473787e-01 2.669366e-01 2.884840e-01 3.123447e-01 3.392575e-01 3.696650e-01 4.049519e-01 4.423363e-01 4.584098e-01 4.382084e-01 4.099998e-01 3.846333e-01 3.610361e-01 3.389793e-01 3.183806e-01 2.994407e-01 2.825497e-01 2.680043e-01 2.560862e-01 2.467722e-01 2.399407e-01 2.352249e-01 2.322309e-01 2.305121e-01 2.298105e-01 2.299871e-01 2.311594e-01 2.335860e-01 2.377122e-01 2.439887e-01 2.528048e-01 2.643725e-01 2.787181e-01 2.955726e-01 3.145415e-01 3.350736e-01 3.569686e-01 3.800230e-01 4.052081e-01 4.321303e-01 4.571914e-01 4.496118e-01 4.139483e-01 3.766237e-01 3.459977e-01 3.184414e-01 2.943310e-01 2.723531e-01 2.524348e-01 2.341805e-01 2.176820e-01 2.030139e-01 1.904228e-01 1.801565e-01 1.724719e-01 1.675912e-01 
1.704081e-01 1.716370e-01 1.760848e-01 1.836020e-01 1.939786e-01 2.069250e-01 2.221688e-01 2.393984e-01 2.584675e-01 2.792338e-01 3.019599e-01 3.267595e-01 3.546450e-01 3.855755e-01 4.225416e-01 4.573837e-01 4.634756e-01 4.385003e-01 4.124583e-01 3.876014e-01 3.643123e-01 3.417545e-01 3.202865e-01 3.000693e-01 2.817050e-01 2.655377e-01 2.519611e-01 2.410191e-01 2.326713e-01 2.266378e-01 2.226148e-01 2.202368e-01 2.192895e-01 2.196666e-01 2.214662e-01 2.249112e-01 2.303709e-01 2.382032e-01 2.487091e-01 2.620141e-01 2.780498e-01 2.964361e-01 3.166947e-01 3.381147e-01 3.604602e-01 3.832308e-01 4.075770e-01 4.326541e-01 4.606606e-01 4.629864e-01 4.311657e-01 3.927670e-01 3.614472e-01 3.329982e-01 3.078435e-01 2.846826e-01 2.635062e-01 2.440029e-01 2.263074e-01 2.105509e-01 1.970085e-01 1.859645e-01 1.776985e-01 1.724566e-01 
1.741774e-01 1.755096e-01 1.802639e-01 1.882759e-01 1.993253e-01 2.130940e-01 2.292933e-01 2.475638e-01 2.677334e-01 2.895853e-01 3.133432e-01 3.390333e-01 3.676294e-01 3.990639e-01 4.363670e-01 4.681511e-01 4.670675e-01 4.406823e-01 4.161203e-01 3.918979e-01 3.687457e-01 3.456889e-01 3.233907e-01 3.019928e-01 2.822933e-01 2.646690e-01 2.496277e-01 2.372665e-01 2.276185e-01 2.204635e-01 2.155690e-01 2.126355e-01 2.114824e-01 2.120289e-01 2.143578e-01 2.186637e-01 2.252519e-01 2.344132e-01 2.463816e-01 2.612107e-01 2.787554e-01 2.985403e-01 3.199984e-01 3.423307e-01 3.651727e-01 3.879452e-01 4.115075e-01 4.354948e-01 4.630809e-01 4.720888e-01 4.447707e-01 4.066289e-01 3.745141e-01 3.454337e-01 3.192310e-01 2.950272e-01 2.727026e-01 2.521130e-01 2.333750e-01 2.166889e-01 2.023351e-01 1.906332e-01 1.818759e-01 1.763302e-01 
1.769192e-01 1.783329e-01 1.833243e-01 1.917187e-01 2.032890e-01 2.176982e-01 2.346457e-01 2.537448e-01 2.747966e-01 2.975564e-01 3.221744e-01 3.487148e-01 3.778913e-01 4.099968e-01 4.468636e-01 4.754545e-01 4.695654e-01 4.433776e-01 4.195746e-01 3.959704e-01 3.728677e-01 3.494704e-01 3.265276e-01 3.042256e-01 2.834776e-01 2.646961e-01 2.485035e-01 2.350345e-01 2.243833e-01 2.163718e-01 2.108131e-01 2.074576e-01 2.061496e-01 2.068256e-01 2.095581e-01 2.145215e-01 2.219715e-01 2.321603e-01 2.452743e-01 2.613094e-01 2.800439e-01 3.009453e-01 3.233717e-01 3.465074e-01 3.698157e-01 3.928321e-01 4.158787e-01 4.393735e-01 4.650953e-01 4.779595e-01 4.550668e-01 4.178987e-01 3.848990e-01 3.552660e-01 3.280396e-01 3.029496e-01 2.796562e-01 2.582022e-01 2.386407e-01 2.212369e-01 2.062590e-01 1.940555e-01 1.849244e-01 1.791490e-01 
1.785880e-01 1.800531e-01 1.851940e-01 1.938299e-01 2.057298e-01 2.205467e-01 2.379726e-01 2.576086e-01 2.792352e-01 3.026080e-01 3.278062e-01 3.549825e-01 3.845459e-01 4.172470e-01 4.534888e-01 4.796552e-01 4.711200e-01 4.456508e-01 4.221296e-01 3.989032e-01 3.757731e-01 3.521741e-01 3.288201e-01 3.059508e-01 2.845377e-01 2.650216e-01 2.480856e-01 2.339019e-01 2.226126e-01 2.140612e-01 2.080852e-01 2.044649e-01 2.030600e-01 2.038172e-01 2.068024e-01 2.121774e-01 2.201704e-01 2.310140e-01 2.448571e-01 2.616533e-01 2.811384e-01 3.027540e-01 3.257966e-01 3.494690e-01 3.730854e-01 3.963456e-01 4.190958e-01 4.424422e-01 4.665720e-01 4.814599e-01 4.618274e-01 4.257218e-01 3.918823e-01 3.617785e-01 3.337333e-01 3.080064e-01 2.840376e-01 2.620119e-01 2.419125e-01 2.240498e-01 2.086745e-01 1.961542e-01 1.867870e-01 1.808669e-01 
1.791513e-01 1.806350e-01 1.858283e-01 1.945485e-01 2.065634e-01 2.215232e-01 2.391173e-01 2.589442e-01 2.807772e-01 3.043763e-01 3.297942e-01 3.572260e-01 3.869583e-01 4.199455e-01 4.558767e-01 4.809979e-01 4.715530e-01 4.464236e-01 4.229623e-01 3.998858e-01 3.767509e-01 3.531047e-01 3.296236e-01 3.065721e-01 2.849370e-01 2.651740e-01 2.479855e-01 2.335563e-01 2.220491e-01 2.133143e-01 2.071968e-01 2.034866e-01 2.020490e-01 2.028347e-01 2.059061e-01 2.114219e-01 2.196023e-01 2.306733e-01 2.447688e-01 2.618302e-01 2.815790e-01 3.034463e-01 3.267076e-01 3.505693e-01 3.742967e-01 3.976520e-01 4.203019e-01 4.435941e-01 4.671122e-01 4.826670e-01 4.642591e-01 4.286056e-01 3.943794e-01 3.640696e-01 3.357082e-01 3.097442e-01 2.855331e-01 2.633068e-01 2.430212e-01 2.250010e-01 2.094900e-01 1.968618e-01 1.874146e-01 1.814458e-01 
1.785880e-01 1.800531e-01 1.851940e-01 1.938299e-01 2.057298e-01 2.205467e-01 2.379726e-01 2.576086e-01 2.792352e-01 3.026080e-01 3.278062e-01 3.549825e-01 3.845459e-01 4.172470e-01 4.534888e-01 4.796552e-01 4.711200e-01 4.456508e-01 4.221296e-01 3.989032e-01 3.757731e-01 3.521741e-01 3.288201e-01 3.059508e-01 2.845377e-01 2.650216e-01 2.480856e-01 2.339019e-01 2.226126e-01 2.140612e-01 2.080852e-01 2.044649e-01 2.030600e-01 2.038172e-01 2.068024e-01 2.121774e-01 2.201704e-01 2.310140e-01 2.448571e-01 2.616533e-01 2.811384e-01 3.027540e-01 3.257966e-01 3.494690e-01 3.730854e-01 3.963456e-01 4.190958e-01 4.424422e-01 4.665720e-01 4.814599e-01 4.618274e-01 4.257218e-01 3.918823e-01 3.617785e-01 3.337333e-01 3.080064e-01 2.840376e-01 2.620119e-01 2.419125e-01 2.240498e-01 2.086745e-01 1.961542e-01 1.867870e-01 1.808669e-01 
1.769192e-01 1.783329e-01 1.833243e-01 1.917187e-01 2.032890e-01 2.176982e-01 2.346457e-01 2.537448e-01 2.747966e-01 2.975564e-01 3.221744e-01 3.487148e-01 3.778913e-01 4.099968e-01 4.468636e-01 4.754545e-01 4.695654e-01 4.433776e-01 4.195746e-01 3.959704e-01 3.728677e-01 3.494704e-01 3.265276e-01 3.042256e-01 2.834776e-01 2.646961e-01 2.485035e-01 2.350345e-01 2.243833e-01 2.163718e-01 2.108131e-01 2.074576e-01 2.061496e-01 2.068256e-01 2.095581e-01 2.145215e-01 2.219715e-01 2.321603e-01 2.452743e-01 2.613094e-01 2.800439e-01 3.009453e-01 3.233717e-01 3.465074e-01 3.698157e-01 3.928321e-01 4.158787e-01 4.393735e-01 4.650953e-01 4.779595e-01 4.550668e-01 4.178987e-01 3.848990e-01 3.552660e-01 3.280396e-01 3.029496e-01 2.796562e-01 2.582022e-01 2.386407e-01 2.212369e-01 2.062590e-01 1.940555e-01 1.849244e-01 1.791490e-01 