# vtk DataFile Version 2.0
Comment goes here
ASCII

DATASET STRUCTURED_POINTS
FIELD FieldData 1
TIME 1 1 double
0.36000000
DIMENSIONS    64   64   1

ORIGIN    0.000   0.000   0.000
SPACING   0.015625 0.015625   1.000

POINT_DATA   4096
SCALARS Concentration double
LOOKUP_TABLE default

1.320703e-06 1.520905e-06 2.152709e-06 3.319573e-06 5.197683e-06 8.036574e-06 1.215918e-05 1.796083e-05 2.590544e-05 3.652259e-05 5.040651e-05 6.822426e-05 9.073961e-05 1.188548e-04 1.536924e-04 1.966932e-04 2.498056e-04 3.156748e-04 3.980648e-04 5.021737e-04 6.349163e-04 8.045462e-04 1.021027e-03 1.294770e-03 1.636128e-03 2.051046e-03 2.538872e-03 3.084564e-03 3.657802e-03 4.208253e-03 4.673945e-03 4.989472e-03 5.102987e-03 4.990360e-03 4.675437e-03 4.210102e-03 3.659602e-03 3.086217e-03 2.540212e-03 2.052105e-03 1.636902e-03 1.295321e-03 1.021426e-03 8.048429e-04 6.351678e-04 5.023961e-04 3.982797e-04 3.158777e-04 2.499999e-04 1.968714e-04 1.538546e-04 1.189968e-04 9.086236e-05 6.832679e-05 5.049059e-05 3.658936e-05 2.595729e-05 1.799979e-05 1.218770e-05 8.056716e-06 5.211412e-06 3.328432e-06 2.157921e-06 1.523285e-06 
1.591460e-06 1.830269e-06 2.583321e-06 3.971903e-06 6.202118e-06 9.564878e-06 1.443487e-05 2.126820e-05 3.059651e-05 4.302222e-05 5.921680e-05 7.992884e-05 1.060139e-04 1.384795e-04 1.785867e-04 2.279517e-04 2.887814e-04 3.640748e-04 4.582039e-04 5.774574e-04 7.300308e-04 9.255090e-04 1.175576e-03 1.492560e-03 1.889093e-03 2.373050e-03 2.945157e-03 3.589455e-03 4.271579e-03 4.932148e-03 5.495284e-03 5.879414e-03 6.017897e-03 5.880533e-03 5.497153e-03 4.934462e-03 4.273828e-03 3.591540e-03 2.946857e-03 2.374416e-03 1.890097e-03 1.493284e-03 1.176103e-03 9.259073e-04 7.303694e-04 5.777578e-04 4.584922e-04 3.643452e-04 2.890382e-04 2.281848e-04 1.787971e-04 1.386621e-04 1.061706e-04 8.005875e-05 5.932276e-05 4.310590e-05 3.066122e-05 2.131665e-05 1.447023e-05 9.589789e-06 6.219066e-06 3.982823e-06 2.589739e-06 1.833198e-06 
2.475027e-06 2.838776e-06 3.984024e-06 6.089041e-06 9.455439e-06 1.450608e-05 2.178049e-05 3.192821e-05 4.569686e-05 6.392233e-05 8.752578e-05 1.175240e-04 1.550788e-04 2.015562e-04 2.586855e-04 3.286764e-04 4.145838e-04 5.205451e-04 6.527927e-04 8.206865e-04 1.036306e-03 1.313223e-03 1.668235e-03 2.119279e-03 2.685961e-03 3.382135e-03 4.213491e-03 5.162149e-03 6.182543e-03 7.187988e-03 8.058712e-03 8.661063e-03 8.879034e-03 8.662888e-03 8.061730e-03 7.191726e-03 6.186156e-03 5.165577e-03 4.216305e-03 3.384469e-03 2.687677e-03 2.120544e-03 1.669162e-03 1.313944e-03 1.036929e-03 8.212468e-04 6.533289e-04 5.210443e-04 4.150520e-04 3.290951e-04 2.590580e-04 2.018747e-04 1.553487e-04 1.177451e-04 8.770440e-05 6.406215e-05 4.580426e-05 3.200812e-05 2.183854e-05 1.454682e-05 9.483071e-06 6.106805e-06 3.994450e-06 2.843531e-06 
4.216378e-06 4.822811e-06 6.729239e-06 1.022225e-05 1.578470e-05 2.408931e-05 3.598685e-05 5.249185e-05 7.475957e-05 1.040698e-04 1.418237e-04 1.895651e-04 2.490678e-04 3.224254e-04 4.123089e-04 5.220969e-04 6.564484e-04 8.215477e-04 1.026871e-03 1.287006e-03 1.620862e-03 2.048468e-03 2.594998e-03 3.287425e-03 4.157283e-03 5.229072e-03 6.518812e-03 8.007804e-03 9.634226e-03 1.126522e-02 1.270107e-02 1.370933e-02 1.407595e-02 1.371244e-02 1.270616e-02 1.127153e-02 9.640319e-03 8.013742e-03 6.523729e-03 5.233267e-03 4.160344e-03 3.289699e-03 2.596672e-03 2.049807e-03 1.622052e-03 1.288097e-03 1.027925e-03 8.225252e-04 6.573580e-04 5.229008e-04 4.130158e-04 3.230225e-04 2.495684e-04 1.899712e-04 1.421491e-04 1.043227e-04 7.495282e-05 5.263500e-05 3.609049e-05 2.416185e-05 1.583382e-05 1.025379e-05 6.747734e-06 4.831244e-06 
7.263784e-06 8.287069e-06 1.149972e-05 1.736951e-05 2.668184e-05 4.052560e-05 6.026855e-05 8.753142e-05 1.241483e-04 1.721458e-04 2.337469e-04 3.114195e-04 4.080335e-04 5.269992e-04 6.726656e-04 8.504253e-04 1.067540e-03 1.333266e-03 1.661675e-03 2.074655e-03 2.601171e-03 3.269494e-03 4.115609e-03 5.177986e-03 6.504844e-03 8.136157e-03 1.010626e-02 1.239939e-02 1.493680e-02 1.752148e-02 1.983320e-02 2.148071e-02 2.208368e-02 2.148576e-02 1.984144e-02 1.753171e-02 1.494671e-02 1.240933e-02 1.011457e-02 8.143402e-03 6.510023e-03 5.181806e-03 4.118438e-03 3.271835e-03 2.603351e-03 2.076717e-03 1.663698e-03 1.335146e-03 1.069282e-03 8.519516e-04 6.739951e-04 5.281109e-04 4.089570e-04 3.121626e-04 2.343385e-04 1.726032e-04 1.244964e-04 8.778847e-05 6.045426e-05 4.065539e-05 2.676964e-05 1.742587e-05 1.153276e-05 8.302136e-06 
1.232292e-05 1.402374e-05 1.935747e-05 2.907820e-05 4.444839e-05 6.721231e-05 9.955016e-05 1.440375e-04 2.035829e-04 2.814139e-04 3.811009e-04 5.066741e-04 6.628829e-04 8.554217e-04 1.091470e-03 1.379688e-03 1.731216e-03 2.159356e-03 2.683610e-03 3.333946e-03 4.152635e-03 5.175819e-03 6.450797e-03 8.027272e-03 9.973379e-03 1.234823e-02 1.521442e-02 1.856744e-02 2.231994e-02 2.620144e-02 2.973188e-02 3.229099e-02 3.323708e-02 3.229886e-02 2.974477e-02 2.621740e-02 2.233555e-02 1.858352e-02 1.522797e-02 1.236023e-02 9.981655e-03 8.033239e-03 6.455281e-03 5.179713e-03 4.156506e-03 3.337737e-03 2.687406e-03 2.162883e-03 1.734470e-03 1.382512e-03 1.093905e-03 8.574381e-04 6.645428e-04 5.079997e-04 3.821497e-04 2.822212e-04 2.041950e-04 1.444886e-04 9.987552e-05 6.743958e-05 4.460208e-05 2.917687e-05 1.941534e-05 1.405013e-05 
2.042751e-05 2.318902e-05 3.184045e-05 4.757171e-05 7.237017e-05 1.089754e-04 1.608009e-04 2.318777e-04 3.267668e-04 4.505771e-04 6.090417e-04 8.087674e-04 1.057657e-03 1.365245e-03 1.743351e-03 2.205740e-03 2.769015e-03 3.451205e-03 4.276614e-03 5.280879e-03 6.521580e-03 8.039449e-03 9.890075e-03 1.213080e-02 1.484977e-02 1.812541e-02 2.205940e-02 2.666527e-02 3.186051e-02 3.730143e-02 4.232913e-02 4.603840e-02 4.742895e-02 4.605016e-02 4.234858e-02 3.732538e-02 3.188419e-02 2.669017e-02 2.208045e-02 1.814415e-02 1.486187e-02 1.213914e-02 9.896592e-03 8.045588e-03 6.528272e-03 5.287690e-03 4.283572e-03 3.457660e-03 2.774934e-03 2.210825e-03 1.747691e-03 1.368803e-03 1.060559e-03 8.110679e-04 6.108500e-04 4.519632e-04 3.278142e-04 2.326483e-04 1.613560e-04 1.093631e-04 7.263232e-05 4.774010e-05 3.193923e-05 2.323408e-05 
3.301957e-05 3.738880e-05 5.106540e-05 7.588221e-05 1.148946e-04 1.723097e-04 2.533606e-04 3.642424e-04 5.119975e-04 7.046287e-04 9.512704e-04 1.262711e-03 1.652008e-03 2.135032e-03 2.730990e-03 3.461487e-03 4.350468e-03 5.420788e-03 6.698549e-03 8.216261e-03 1.004525e-02 1.222392e-02 1.481028e-02 1.786029e-02 2.147865e-02 2.575659e-02 3.083910e-02 3.676336e-02 4.347560e-02 5.057882e-02 5.724146e-02 6.225366e-02 6.416893e-02 6.227097e-02 5.727054e-02 5.061388e-02 4.351053e-02 3.680046e-02 3.087042e-02 2.578455e-02 2.149498e-02 1.787082e-02 1.481936e-02 1.223358e-02 1.005686e-02 8.228419e-03 6.711103e-03 5.432343e-03 4.360951e-03 3.470392e-03 2.738499e-03 2.141128e-03 1.656931e-03 1.266586e-03 9.542970e-04 7.069392e-04 5.137373e-04 3.655203e-04 2.542801e-04 1.729518e-04 1.153288e-04 7.616122e-05 5.122913e-05 3.746351e-05 
5.202418e-05 5.875562e-05 7.981135e-05 1.179448e-04 1.777392e-04 2.655047e-04 3.890888e-04 5.578234e-04 7.823992e-04 1.075172e-03 1.450528e-03 1.925865e-03 2.522502e-03 3.266437e-03 4.188454e-03 5.321834e-03 6.700179e-03 8.350350e-03 1.029445e-02 1.254910e-02 1.517528e-02 1.821477e-02 2.171646e-02 2.572700e-02 3.036041e-02 3.570691e-02 4.196040e-02 4.916022e-02 5.727382e-02 6.586020e-02 7.397056e-02 8.016899e-02 8.258623e-02 8.019371e-02 7.401259e-02 6.590924e-02 5.732274e-02 4.921251e-02 4.200458e-02 3.574656e-02 3.037966e-02 2.573802e-02 2.172869e-02 1.823005e-02 1.519546e-02 1.257047e-02 1.031654e-02 8.370452e-03 6.718191e-03 5.336971e-03 4.201070e-03 3.276588e-03 2.530621e-03 1.932212e-03 1.455452e-03 1.078916e-03 7.852086e-04 5.598837e-04 3.905692e-04 2.665382e-04 1.784379e-04 1.183941e-04 8.007499e-05 5.887591e-05 
7.991327e-05 9.001005e-05 1.215741e-04 1.786383e-04 2.679078e-04 3.986240e-04 5.822914e-04 8.326811e-04 1.165721e-03 1.600182e-03 2.158361e-03 2.867872e-03 3.762840e-03 4.885081e-03 6.282781e-03 8.006303e-03 1.010088e-02 1.259520e-02 1.549728e-02 1.879097e-02 2.248523e-02 2.663187e-02 3.126656e-02 3.641639e-02 4.220145e-02 4.868012e-02 5.606305e-02 6.436195e-02 7.359058e-02 8.328809e-02 9.242666e-02 9.948650e-02 1.022944e-01 9.952077e-02 9.248501e-02 8.335204e-02 7.365482e-02 6.443198e-02 5.612280e-02 4.873537e-02 4.222173e-02 3.642596e-02 3.128467e-02 2.665748e-02 2.252052e-02 1.882792e-02 1.553482e-02 1.262888e-02 1.013066e-02 8.031140e-03 6.303279e-03 4.901460e-03 3.775827e-03 2.877965e-03 2.166141e-03 1.606075e-03 1.170126e-03 8.359063e-04 5.846051e-04 4.002386e-04 2.689988e-04 1.793397e-04 1.219857e-04 9.019781e-05 
1.197381e-04 1.344819e-04 1.805521e-04 2.637059e-04 3.935084e-04 5.831684e-04 8.491686e-04 1.211398e-03 1.693125e-03 2.322318e-03 3.132882e-03 4.167643e-03 5.479954e-03 7.135042e-03 9.206254e-03 1.176668e-02 1.487403e-02 1.855212e-02 2.277995e-02 2.749093e-02 3.261670e-02 3.816461e-02 4.420270e-02 5.074927e-02 5.790885e-02 6.567345e-02 7.430420e-02 8.365961e-02 9.364380e-02 1.037544e-01 1.130349e-01 1.201974e-01 1.230728e-01 1.202423e-01 1.131092e-01 1.038286e-01 9.372152e-02 8.374884e-02 7.438386e-02 6.575147e-02 5.792481e-02 5.075293e-02 4.423173e-02 3.820737e-02 3.267621e-02 2.755150e-02 2.284025e-02 1.860582e-02 1.492117e-02 1.180594e-02 9.238452e-03 7.160672e-03 5.500131e-03 4.183245e-03 3.144835e-03 2.331338e-03 1.699843e-03 1.216307e-03 8.526831e-04 5.856188e-04 3.951625e-04 2.647691e-04 1.811754e-04 1.347661e-04 
1.751474e-04 1.961102e-04 2.615892e-04 3.795932e-04 5.634227e-04 8.315009e-04 1.206897e-03 1.717712e-03 2.397219e-03 3.286221e-03 4.435048e-03 5.908378e-03 7.786896e-03 1.016881e-02 1.316057e-02 1.686296e-02 2.134089e-02 2.660124e-02 3.256965e-02 3.911445e-02 4.608467e-02 5.340289e-02 6.122163e-02 6.954397e-02 7.848435e-02 8.784982e-02 9.772365e-02 1.078031e-01 1.181329e-01 1.282208e-01 1.369743e-01 1.435282e-01 1.461159e-01 1.435875e-01 1.370624e-01 1.282906e-01 1.182211e-01 1.079156e-01 9.782604e-02 8.796216e-02 7.849357e-02 6.954108e-02 6.127369e-02 5.347284e-02 4.617797e-02 3.920672e-02 3.265958e-02 2.668170e-02 2.141158e-02 1.692229e-02 1.320923e-02 1.020758e-02 7.817285e-03 5.931796e-03 4.452897e-03 3.299641e-03 2.407176e-03 1.724970e-03 1.212081e-03 8.351095e-04 5.658548e-04 3.811546e-04 2.625037e-04 1.965267e-04 
2.503790e-04 2.794043e-04 3.700418e-04 5.331438e-04 7.867320e-04 1.155874e-03 1.672100e-03 2.374212e-03 3.308719e-03 4.533683e-03 6.121778e-03 8.167314e-03 1.078765e-02 1.412322e-02 1.832018e-02 2.350521e-02 2.973902e-02 3.698677e-02 4.509765e-02 5.386269e-02 6.306547e-02 7.261551e-02 8.267358e-02 9.333007e-02 1.044768e-01 1.157446e-01 1.274883e-01 1.388499e-01 1.491480e-01 1.582604e-01 1.655546e-01 1.708568e-01 1.728602e-01 1.709476e-01 1.656490e-01 1.582960e-01 1.492495e-01 1.389952e-01 1.276148e-01 1.159002e-01 1.044642e-01 9.331387e-02 8.276324e-02 7.271954e-02 6.319756e-02 5.399205e-02 4.522213e-02 3.710053e-02 2.984002e-02 2.359138e-02 1.839121e-02 1.418005e-02 1.083210e-02 8.201491e-03 6.147706e-03 4.553110e-03 3.323074e-03 2.384645e-03 1.679530e-03 1.161036e-03 7.902031e-04 5.353685e-04 3.713426e-04 2.799960e-04 
3.502958e-04 3.894485e-04 5.116838e-04 7.313176e-04 1.072138e-03 1.567405e-03 2.259182e-03 3.199783e-03 4.452629e-03 6.098061e-03 8.237570e-03 1.100332e-02 1.455783e-02 1.909106e-02 2.478918e-02 3.179746e-02 4.014960e-02 4.974827e-02 6.034278e-02 7.166857e-02 8.347233e-02 9.575997e-02 1.087364e-01 1.224056e-01 1.367780e-01 1.508673e-01 1.635018e-01 1.737657e-01 1.815734e-01 1.875429e-01 1.916838e-01 1.944987e-01 1.955217e-01 1.946165e-01 1.917654e-01 1.874828e-01 1.816554e-01 1.739457e-01 1.635816e-01 1.510180e-01 1.367555e-01 1.224166e-01 1.088864e-01 9.590923e-02 8.364179e-02 7.183567e-02 6.050226e-02 4.989941e-02 4.028668e-02 3.191730e-02 2.488907e-02 1.917164e-02 1.462092e-02 1.105180e-02 8.274213e-03 6.125418e-03 4.472759e-03 3.214363e-03 2.269527e-03 1.574570e-03 1.076942e-03 7.343892e-04 5.134759e-04 3.902624e-04 
4.804560e-04 5.319365e-04 6.926231e-04 9.808952e-04 1.427320e-03 2.074916e-03 2.978415e-03 4.206614e-03 5.843664e-03 7.997297e-03 1.080395e-02 1.444044e-02 1.912024e-02 2.508416e-02 3.255382e-02 4.167656e-02 5.244353e-02 6.467198e-02 7.803685e-02 9.223672e-02 1.070714e-01 1.226819e-01 1.393988e-01 1.568751e-01 1.728365e-01 1.845915e-01 1.913726e-01 1.941316e-01 1.945083e-01 1.938714e-01 1.929773e-01 1.924340e-01 1.923249e-01 1.925203e-01 1.929992e-01 1.937547e-01 1.945073e-01 1.942571e-01 1.913274e-01 1.846740e-01 1.728856e-01 1.569760e-01 1.396168e-01 1.228851e-01 1.072720e-01 9.244352e-02 7.823321e-02 6.486596e-02 5.262375e-02 4.183792e-02 3.268997e-02 2.519496e-02 1.920718e-02 1.450726e-02 1.085431e-02 8.034773e-03 5.871122e-03 4.226425e-03 2.992414e-03 2.084577e-03 1.433775e-03 9.850105e-04 6.950181e-04 5.330221e-04 
6.473488e-04 7.133878e-04 9.194564e-04 1.288493e-03 1.858714e-03 2.684309e-03 3.834693e-03 5.397957e-03 7.482536e-03 1.022791e-02 1.381001e-02 1.845411e-02 2.442582e-02 3.201399e-02 4.146742e-02 5.292722e-02 6.632891e-02 8.142323e-02 9.784915e-02 1.153683e-01 1.338205e-01 1.536054e-01 1.737011e-01 1.900287e-01 1.977391e-01 1.977115e-01 1.927505e-01 1.857059e-01 1.793620e-01 1.750805e-01 1.725554e-01 1.712171e-01 1.709114e-01 1.712444e-01 1.725248e-01 1.749886e-01 1.793521e-01 1.857035e-01 1.926116e-01 1.976669e-01 1.977774e-01 1.901099e-01 1.739314e-01 1.538392e-01 1.340406e-01 1.156079e-01 9.807926e-02 8.166092e-02 6.655725e-02 5.313689e-02 4.164719e-02 3.216169e-02 2.454223e-02 1.854364e-02 1.387736e-02 1.027785e-02 7.518965e-03 5.424117e-03 3.853090e-03 2.696949e-03 1.867122e-03 1.293837e-03 9.225582e-04 7.147914e-04 
8.587180e-04 9.414665e-04 1.199554e-03 1.660783e-03 2.371572e-03 3.398376e-03 4.826877e-03 6.766842e-03 9.353624e-03 1.276144e-02 1.720747e-02 2.296585e-02 3.035222e-02 3.970060e-02 5.128689e-02 6.524372e-02 8.145939e-02 9.963928e-02 1.195207e-01 1.409503e-01 1.638924e-01 1.866235e-01 2.017337e-01 2.037962e-01 1.958394e-01 1.833131e-01 1.714777e-01 1.625876e-01 1.563620e-01 1.525152e-01 1.504186e-01 1.493065e-01 1.490656e-01 1.493068e-01 1.503831e-01 1.524700e-01 1.563828e-01 1.624996e-01 1.713378e-01 1.832088e-01 1.957425e-01 2.037387e-01 2.018487e-01 1.868310e-01 1.641536e-01 1.412308e-01 1.197924e-01 9.992563e-02 8.174182e-02 6.550784e-02 5.151675e-02 3.989110e-02 3.050315e-02 2.308214e-02 1.729488e-02 1.282608e-02 9.400575e-03 6.800396e-03 4.850349e-03 3.414422e-03 2.382198e-03 1.667513e-03 1.203452e-03 9.432285e-04 
1.124104e-03 1.225568e-03 1.541763e-03 2.105334e-03 2.970983e-03 4.217919e-03 5.949012e-03 8.297132e-03 1.142596e-02 1.554516e-02 2.091263e-02 2.784919e-02 3.672145e-02 4.791336e-02 6.174278e-02 7.834187e-02 9.754519e-02 1.191040e-01 1.429722e-01 1.690188e-01 1.947301e-01 2.090401e-01 2.059991e-01 1.912666e-01 1.736250e-01 1.586746e-01 1.471651e-01 1.390605e-01 1.337927e-01 1.307938e-01 1.293667e-01 1.287037e-01 1.285932e-01 1.286978e-01 1.293459e-01 1.307739e-01 1.338074e-01 1.389817e-01 1.470771e-01 1.585771e-01 1.735039e-01 1.911382e-01 2.059327e-01 2.091175e-01 1.949973e-01 1.693224e-01 1.432749e-01 1.194337e-01 9.788158e-02 7.866357e-02 6.202796e-02 4.815189e-02 3.691151e-02 2.799586e-02 2.102280e-02 1.562639e-02 1.148468e-02 8.338858e-03 5.978022e-03 4.237632e-03 2.983971e-03 2.113529e-03 1.546501e-03 1.227710e-03 
1.455285e-03 1.577338e-03 1.957107e-03 2.631597e-03 3.663184e-03 5.143569e-03 7.192699e-03 9.967031e-03 1.365816e-02 1.851094e-02 2.482170e-02 3.296035e-02 4.335215e-02 5.645365e-02 7.264605e-02 9.205373e-02 1.144411e-01 1.397485e-01 1.682105e-01 1.971918e-01 2.132374e-01 2.076435e-01 1.882432e-01 1.668421e-01 1.484094e-01 1.341724e-01 1.237956e-01 1.169087e-01 1.127239e-01 1.105398e-01 1.096473e-01 1.093185e-01 1.093026e-01 1.093149e-01 1.096409e-01 1.105344e-01 1.127370e-01 1.168602e-01 1.237349e-01 1.340987e-01 1.483166e-01 1.667116e-01 1.880752e-01 2.075310e-01 2.133079e-01 1.974232e-01 1.685463e-01 1.401209e-01 1.148252e-01 9.242845e-02 7.298540e-02 5.674094e-02 4.358282e-02 3.313898e-02 2.495599e-02 1.860979e-02 1.372932e-02 1.001729e-02 7.227405e-03 5.166992e-03 3.678516e-03 2.641224e-03 1.962660e-03 1.579852e-03 
1.866673e-03 2.011247e-03 2.459774e-03 3.252491e-03 4.457946e-03 6.179118e-03 8.551850e-03 1.175557e-02 1.600786e-02 2.158842e-02 2.883320e-02 3.816877e-02 5.010284e-02 6.518986e-02 8.390133e-02 1.062835e-01 1.320510e-01 1.616331e-01 1.935217e-01 2.144229e-01 2.103966e-01 1.886251e-01 1.639024e-01 1.423129e-01 1.248534e-01 1.117818e-01 1.025715e-01 9.670163e-02 9.337525e-02 9.181837e-02 9.132982e-02 9.125301e-02 9.130711e-02 9.125339e-02 9.133334e-02 9.182194e-02 9.338702e-02 9.667662e-02 1.025325e-01 1.117229e-01 1.247673e-01 1.421873e-01 1.637139e-01 1.884079e-01 2.102636e-01 2.145260e-01 1.938647e-01 1.620391e-01 1.324769e-01 1.067073e-01 8.429405e-02 6.552573e-02 5.037406e-02 3.837927e-02 2.899138e-02 2.170465e-02 1.609124e-02 1.181407e-02 8.591895e-03 6.205885e-03 4.475258e-03 3.263267e-03 2.465960e-03 2.014055e-03 
2.374898e-03 2.544429e-03 3.067469e-03 3.985540e-03 5.370626e-03 7.334347e-03 1.002591e-02 1.364666e-02 1.844075e-02 2.472602e-02 3.288005e-02 4.340482e-02 5.692252e-02 7.411593e-02 9.552513e-02 1.209907e-01 1.504047e-01 1.840382e-01 2.113701e-01 2.138663e-01 1.925537e-01 1.655880e-01 1.408695e-01 1.202524e-01 1.039727e-01 9.203371e-02 8.387360e-02 7.883532e-02 7.610183e-02 7.491407e-02 7.461697e-02 7.464204e-02 7.471669e-02 7.464480e-02 7.462469e-02 7.492100e-02 7.611144e-02 7.882112e-02 8.384270e-02 9.197822e-02 1.038844e-01 1.201189e-01 1.406706e-01 1.653476e-01 1.923037e-01 2.137736e-01 2.115752e-01 1.844179e-01 1.508384e-01 1.214393e-01 9.595639e-02 7.449144e-02 5.722815e-02 4.364352e-02 3.305926e-02 2.485696e-02 1.853379e-02 1.371121e-02 1.006950e-02 7.363052e-03 5.388949e-03 3.996802e-03 3.073894e-03 2.547370e-03 
2.997600e-03 3.194939e-03 3.798907e-03 4.849312e-03 6.417619e-03 8.619997e-03 1.161580e-02 1.562659e-02 2.092429e-02 2.787337e-02 3.691511e-02 4.866363e-02 6.385315e-02 8.327040e-02 1.075100e-01 1.359172e-01 1.693616e-01 2.024871e-01 2.158017e-01 1.998100e-01 1.714710e-01 1.444328e-01 1.207473e-01 1.013001e-01 8.623042e-02 7.531864e-02 6.795157e-02 6.342837e-02 6.098427e-02 5.991220e-02 5.962821e-02 5.964126e-02 5.969970e-02 5.964454e-02 5.963580e-02 5.991827e-02 6.098915e-02 6.341555e-02 6.792091e-02 7.525994e-02 8.613626e-02 1.011591e-01 1.205508e-01 1.441927e-01 1.711963e-01 1.995805e-01 2.157845e-01 2.027974e-01 1.698362e-01 1.364015e-01 1.079762e-01 8.367813e-02 6.418397e-02 4.892078e-02 3.710733e-02 2.801291e-02 2.102241e-02 1.569365e-02 1.166019e-02 8.648473e-03 6.435256e-03 4.859808e-03 3.804729e-03 3.197562e-03 
3.751166e-03 3.980097e-03 4.673926e-03 5.866771e-03 7.624285e-03 1.006185e-02 1.334477e-02 1.771327e-02 2.346971e-02 3.103693e-02 4.093924e-02 5.394333e-02 7.090723e-02 9.274662e-02 1.197590e-01 1.510959e-01 1.868789e-01 2.123327e-01 2.081757e-01 1.815075e-01 1.526544e-01 1.264013e-01 1.039706e-01 8.572491e-02 7.173239e-02 6.161533e-02 5.476878e-02 5.049635e-02 4.810431e-02 4.696044e-02 4.655461e-02 4.646997e-02 4.648410e-02 4.647219e-02 4.655918e-02 4.696217e-02 4.810167e-02 5.047772e-02 5.472998e-02 6.154566e-02 7.162337e-02 8.556631e-02 1.037573e-01 1.261410e-01 1.523623e-01 1.812110e-01 2.079829e-01 2.124956e-01 1.873051e-01 1.515836e-01 1.202361e-01 9.317068e-02 7.124877e-02 5.420741e-02 4.113518e-02 3.117771e-02 2.356718e-02 1.777831e-02 1.338640e-02 1.008735e-02 7.639143e-03 5.874987e-03 4.678155e-03 3.981908e-03 
4.647234e-03 4.913298e-03 5.710571e-03 7.062516e-03 9.022487e-03 1.169860e-02 1.525722e-02 1.995599e-02 2.613199e-02 3.428006e-02 4.502499e-02 5.931568e-02 7.808150e-02 1.023932e-01 1.317837e-01 1.660209e-01 2.000886e-01 2.127222e-01 1.944553e-01 1.647328e-01 1.367936e-01 1.117409e-01 9.055678e-02 7.344498e-02 6.032445e-02 5.077330e-02 4.420167e-02 3.996943e-02 3.746256e-02 3.612737e-02 3.552349e-02 3.529646e-02 3.525303e-02 3.529694e-02 3.552401e-02 3.612364e-02 3.745201e-02 3.994312e-02 4.415383e-02 5.069325e-02 6.020368e-02 7.327441e-02 9.033366e-02 1.114745e-01 1.364982e-01 1.644457e-01 1.941957e-01 2.127083e-01 2.003651e-01 1.664679e-01 1.322384e-01 1.028005e-01 7.840582e-02 5.956475e-02 4.520816e-02 3.440980e-02 2.621971e-02 2.001223e-02 1.529100e-02 1.171728e-02 9.031738e-03 7.066445e-03 5.711914e-03 4.913661e-03 
5.686981e-03 5.997874e-03 6.918080e-03 8.454528e-03 1.064087e-02 1.357020e-02 1.740442e-02 2.241589e-02 2.898134e-02 3.767540e-02 4.924158e-02 6.479825e-02 8.532467e-02 1.118786e-01 1.432290e-01 1.793626e-01 2.076074e-01 2.066190e-01 1.802707e-01 1.511055e-01 1.240992e-01 1.003930e-01 8.035718e-02 6.421691e-02 5.174959e-02 4.254694e-02 3.606450e-02 3.173229e-02 2.901516e-02 2.743115e-02 2.659847e-02 2.621397e-02 2.610958e-02 2.621270e-02 2.659520e-02 2.742241e-02 2.899786e-02 3.169914e-02 3.600889e-02 4.245846e-02 5.161878e-02 6.403313e-02 8.011539e-02 1.000933e-01 1.237504e-01 1.507221e-01 1.798441e-01 2.063452e-01 2.077244e-01 1.798102e-01 1.436998e-01 1.122629e-01 8.561913e-02 6.501618e-02 4.939782e-02 3.778205e-02 2.904978e-02 2.245589e-02 1.742464e-02 1.357771e-02 1.064127e-02 8.451847e-03 6.915035e-03 5.996044e-03 
6.856295e-03 7.221872e-03 8.290519e-03 1.004628e-02 1.249532e-02 1.570713e-02 1.983284e-02 2.515499e-02 3.209311e-02 4.130288e-02 5.366241e-02 7.041664e-02 9.261973e-02 1.210160e-01 1.540457e-01 1.899989e-01 2.097161e-01 1.975574e-01 1.683667e-01 1.404523e-01 1.145529e-01 9.207722e-02 7.306414e-02 5.768786e-02 4.567051e-02 3.663735e-02 3.010786e-02 2.558732e-02 2.261170e-02 2.076017e-02 1.969740e-02 1.915924e-02 1.899729e-02 1.915672e-02 1.969157e-02 2.074830e-02 2.259075e-02 2.555139e-02 3.005063e-02 3.654946e-02 4.554293e-02 5.751019e-02 7.283097e-02 9.178527e-02 1.142121e-01 1.400719e-01 1.679990e-01 1.973282e-01 2.098144e-01 1.903704e-01 1.544245e-01 1.212994e-01 9.283882e-02 7.057365e-02 5.377053e-02 4.137046e-02 3.213025e-02 2.516971e-02 1.983275e-02 1.569846e-02 1.248317e-02 1.003437e-02 8.281395e-03 7.217013e-03 
8.120386e-03 8.551689e-03 9.797800e-03 1.181365e-02 1.457061e-02 1.810556e-02 2.255167e-02 2.819354e-02 3.549232e-02 4.517644e-02 5.826430e-02 7.607385e-02 9.975385e-02 1.295302e-01 1.639165e-01 1.976948e-01 2.083924e-01 1.885694e-01 1.594109e-01 1.325585e-01 1.078869e-01 8.646631e-02 6.830051e-02 5.347264e-02 4.171751e-02 3.270593e-02 2.603102e-02 2.126807e-02 1.801456e-02 1.589849e-02 1.461898e-02 1.393995e-02 1.372660e-02 1.393696e-02 1.461229e-02 1.588613e-02 1.799399e-02 2.123481e-02 2.597968e-02 3.262876e-02 4.160634e-02 5.331794e-02 6.809673e-02 8.621019e-02 1.075894e-01 1.322333e-01 1.591103e-01 1.883088e-01 2.083568e-01 1.979122e-01 1.641418e-01 1.296881e-01 9.987862e-02 7.615434e-02 5.830899e-02 4.519188e-02 3.548749e-02 2.817474e-02 2.252498e-02 1.807597e-02 1.454238e-02 1.179000e-02 9.780952e-03 8.542975e-03 
9.422919e-03 9.930243e-03 1.138116e-02 1.369647e-02 1.680696e-02 2.070888e-02 2.550961e-02 3.148545e-02 3.913143e-02 4.923674e-02 6.294862e-02 8.163149e-02 1.064914e-01 1.372772e-01 1.724961e-01 2.028548e-01 2.055149e-01 1.813145e-01 1.532086e-01 1.272605e-01 1.037217e-01 8.314920e-02 6.562043e-02 5.113260e-02 3.947547e-02 3.036874e-02 2.347901e-02 1.844309e-02 1.490866e-02 1.254121e-02 1.106398e-02 1.025959e-02 1.000168e-02 1.025682e-02 1.105799e-02 1.253082e-02 1.489225e-02 1.841785e-02 2.344128e-02 3.031286e-02 3.939482e-02 5.101846e-02 6.546619e-02 8.294909e-02 1.034818e-01 1.269867e-01 1.529248e-01 1.809713e-01 2.052463e-01 2.028900e-01 1.726550e-01 1.373880e-01 1.065525e-01 8.163888e-02 6.292198e-02 4.919029e-02 3.907592e-02 3.142627e-02 2.545108e-02 2.065443e-02 1.675976e-02 1.365900e-02 1.135523e-02 9.916997e-03 
1.068672e-02 1.127661e-02 1.294981e-02 1.559031e-02 1.908540e-02 2.338520e-02 2.856450e-02 3.488008e-02 4.284868e-02 5.330601e-02 6.750725e-02 8.686028e-02 1.125725e-01 1.440637e-01 1.795215e-01 2.060019e-01 2.022726e-01 1.761091e-01 1.492815e-01 1.241936e-01 1.015777e-01 8.163422e-02 6.452692e-02 5.019793e-02 3.850749e-02 2.922284e-02 2.207765e-02 1.675883e-02 1.295385e-02 1.035531e-02 8.702390e-03 7.789052e-03 7.493338e-03 7.787093e-03 8.698381e-03 1.034897e-02 1.294477e-02 1.674619e-02 2.206011e-02 2.919757e-02 3.847015e-02 5.014118e-02 6.444253e-02 8.151272e-02 1.014156e-01 1.239907e-01 1.490437e-01 1.758107e-01 2.019823e-01 2.059526e-01 1.796524e-01 1.441440e-01 1.125636e-01 8.678209e-02 6.739744e-02 5.318906e-02 4.273642e-02 3.477635e-02 2.847114e-02 2.330374e-02 1.901760e-02 1.553784e-02 1.291400e-02 1.125840e-02 
1.182084e-02 1.249264e-02 1.438632e-02 1.734998e-02 2.122859e-02 2.592530e-02 3.147858e-02 3.811743e-02 4.636689e-02 5.709609e-02 7.164363e-02 9.146929e-02 1.177377e-01 1.496739e-01 1.849516e-01 2.078615e-01 1.997092e-01 1.729363e-01 1.471101e-01 1.227750e-01 1.008400e-01 8.132735e-02 6.446339e-02 5.016411e-02 3.836057e-02 2.886044e-02 2.145493e-02 1.586901e-02 1.182053e-02 9.020660e-03 7.218528e-03 6.214233e-03 5.887571e-03 6.213345e-03 7.217069e-03 9.019258e-03 1.182021e-02 1.587116e-02 2.146111e-02 2.887151e-02 3.837598e-02 5.017983e-02 6.447180e-02 8.131637e-02 1.007959e-01 1.226865e-01 1.469659e-01 1.727414e-01 1.995066e-01 2.078233e-01 1.850417e-01 1.496763e-01 1.176239e-01 9.128813e-02 7.144402e-02 5.690720e-02 4.619830e-02 3.797008e-02 3.135130e-02 2.581757e-02 2.114076e-02 1.728290e-02 1.434087e-02 1.246959e-02 
1.272937e-02 1.347241e-02 1.555775e-02 1.880279e-02 2.301643e-02 2.806043e-02 3.393909e-02 4.085219e-02 4.932344e-02 6.024489e-02 7.501392e-02 9.514688e-02 1.217498e-01 1.539724e-01 1.889285e-01 2.090070e-01 1.980016e-01 1.713283e-01 1.461402e-01 1.223747e-01 1.008910e-01 8.164504e-02 6.489810e-02 5.055923e-02 3.861826e-02 2.891380e-02 2.128156e-02 1.547299e-02 1.122766e-02 8.268447e-03 6.350326e-03 5.276178e-03 4.926110e-03 5.276371e-03 6.351421e-03 8.271929e-03 1.123596e-02 1.548970e-02 2.131142e-02 2.896203e-02 3.868971e-02 5.065602e-02 6.501835e-02 8.178031e-02 1.010262e-01 1.224898e-01 1.462072e-01 1.713262e-01 1.979264e-01 2.090095e-01 1.889756e-01 1.538769e-01 1.215241e-01 9.486518e-02 7.473209e-02 5.999229e-02 4.910590e-02 4.066725e-02 3.378261e-02 2.793006e-02 2.291127e-02 1.872304e-02 1.550390e-02 1.344513e-02 
1.332397e-02 1.411628e-02 1.633417e-02 1.977405e-02 2.422006e-02 2.950517e-02 3.560877e-02 4.270819e-02 5.132206e-02 6.235510e-02 7.723831e-02 9.752952e-02 1.242860e-01 1.566503e-01 1.913086e-01 2.096236e-01 1.970125e-01 1.706100e-01 1.457979e-01 1.223950e-01 1.011710e-01 8.206871e-02 6.536784e-02 5.097846e-02 3.892987e-02 2.907976e-02 2.129254e-02 1.533514e-02 1.096046e-02 7.897724e-03 5.905018e-03 4.786259e-03 4.421366e-03 4.787218e-03 5.907922e-03 7.904645e-03 1.097482e-02 1.536216e-02 2.133931e-02 2.915487e-02 3.904258e-02 5.113632e-02 6.557440e-02 8.231995e-02 1.014513e-01 1.226771e-01 1.460343e-01 1.707522e-01 1.970244e-01 2.096556e-01 1.913415e-01 1.565057e-01 1.239967e-01 9.718694e-02 7.690499e-02 6.206173e-02 5.107276e-02 4.249859e-02 3.543298e-02 2.935973e-02 2.410332e-02 1.968580e-02 1.627467e-02 1.408615e-02 
1.353563e-02 1.434605e-02 1.661251e-02 2.012380e-02 2.465499e-02 3.002864e-02 3.621500e-02 4.338353e-02 5.205085e-02 6.312703e-02 7.805428e-02 9.840624e-02 1.252148e-01 1.576195e-01 1.921274e-01 2.098406e-01 1.967195e-01 1.704161e-01 1.457313e-01 1.224550e-01 1.013168e-01 8.225902e-02 6.556804e-02 5.115564e-02 3.906524e-02 2.916110e-02 2.131757e-02 1.530674e-02 1.088597e-02 7.786552e-03 5.767533e-03 4.633088e-03 4.263011e-03 4.634352e-03 5.771160e-03 7.794857e-03 1.090279e-02 1.533796e-02 2.137133e-02 2.924746e-02 3.919558e-02 5.134011e-02 6.581332e-02 8.256353e-02 1.016662e-01 1.228189e-01 1.460538e-01 1.706358e-01 1.967833e-01 2.098962e-01 1.921595e-01 1.574575e-01 1.249002e-01 9.803911e-02 7.770018e-02 6.281739e-02 5.178902e-02 4.316428e-02 3.603168e-02 2.987733e-02 2.453373e-02 2.003223e-02 1.655080e-02 1.431479e-02 
1.332397e-02 1.411628e-02 1.633417e-02 1.977405e-02 2.422006e-02 2.950517e-02 3.560877e-02 4.270819e-02 5.132206e-02 6.235510e-02 7.723831e-02 9.752952e-02 1.242860e-01 1.566503e-01 1.913086e-01 2.096236e-01 1.970125e-01 1.706100e-01 1.457979e-01 1.223950e-01 1.011710e-01 8.206871e-02 6.536784e-02 5.097846e-02 3.892987e-02 2.907976e-02 2.129254e-02 1.533514e-02 1.096046e-02 7.897724e-03 5.905018e-03 4.786259e-03 4.421366e-03 4.787218e-03 5.907922e-03 7.904645e-03 1.097482e-02 1.536216e-02 2.133931e-02 2.915487e-02 3.904258e-02 5.113632e-02 6.557440e-02 8.231995e-02 1.014513e-01 1.226771e-01 1.460343e-01 1.707522e-01 1.970244e-01 2.096556e-01 1.913415e-01 1.565057e-01 1.239967e-01 9.718694e-02 7.690499e-02 6.206173e-02 5.107276e-02 4.249859e-02 3.543298e-02 2.935973e-02 2.410332e-02 1.968580e-02 1.627467e-02 1.408615e-02 
1.272937e-02 1.347241e-02 1.555775e-02 1.880279e-02 2.301643e-02 2.806043e-02 3.393909e-02 4.085219e-02 4.932344e-02 6.024489e-02 7.501392e-02 9.514688e-02 1.217498e-01 1.539724e-01 1.889285e-01 2.090070e-01 1.980016e-01 1.713283e-01 1.461402e-01 1.223747e-01 1.008910e-01 8.164504e-02 6.489810e-02 5.055923e-02 3.861826e-02 2.891380e-02 2.128156e-02 1.547299e-02 1.122766e-02 8.268447e-03 6.350326e-03 5.276178e-03 4.926110e-03 5.276371e-03 6.351421e-03 8.271929e-03 1.123596e-02 1.548970e-02 2.131142e-02 2.896203e-02 3.868971e-02 5.065602e-02 6.501835e-02 8.178031e-02 1.010262e-01 1.224898e-01 1.462072e-01 1.713262e-01 1.979264e-01 2.090095e-01 1.889756e-01 1.538769e-01 1.215241e-01 9.486518e-02 7.473209e-02 5.999229e-02 4.910590e-02 4.066725e-02 3.378261e-02 2.793006e-02 2.291127e-02 1.872304e-02 1.550390e-02 1.344513e-02 