# vtk DataFile Version 2.0
Comment goes here
ASCII

DATASET STRUCTURED_POINTS
FIELD FieldData 1
TIME 1 1 double
1.75000000
DIMENSIONS    64   64   1

ORIGIN    0.000   0.000   0.000
SPACING   0.015625 0.015625   1.000

POINT_DATA   4096
SCALARS Concentration double
LOOKUP_TABLE default

1.394573e-02 1.404096e-02 1.440066e-02 1.503851e-02 1.597745e-02 1.725012e-02 1.889710e-02 2.096757e-02 2.351534e-02 2.659908e-02 3.027481e-02 3.459406e-02 3.959377e-02 4.529653e-02 5.169806e-02 5.876964e-02 6.644956e-02 7.464928e-02 8.325257e-02 9.212397e-02 1.011154e-01 1.100724e-01 1.188447e-01 1.272853e-01 1.352609e-01 1.426434e-01 1.493213e-01 1.551912e-01 1.601648e-01 1.641618e-01 1.671146e-01 1.689660e-01 1.696730e-01 1.692117e-01 1.675977e-01 1.648643e-01 1.610615e-01 1.562545e-01 1.505214e-01 1.439546e-01 1.366573e-01 1.287483e-01 1.203540e-01 1.116149e-01 1.026735e-01 9.368455e-02 8.479739e-02 7.616200e-02 6.791120e-02 6.016286e-02 5.300708e-02 4.650796e-02 4.069906e-02 3.558721e-02 3.115527e-02 2.736764e-02 2.417670e-02 2.152713e-02 1.936192e-02 1.762617e-02 1.627090e-02 1.525400e-02 1.454219e-02 1.411102e-02 
1.413180e-02 1.422648e-02 1.458529e-02 1.522198e-02 1.615953e-02 1.743074e-02 1.907643e-02 2.114598e-02 2.369354e-02 2.677831e-02 3.045709e-02 3.478257e-02 3.979285e-02 4.551188e-02 5.193706e-02 5.904119e-02 6.676439e-02 7.501945e-02 8.369153e-02 9.264578e-02 1.017346e-01 1.108031e-01 1.197003e-01 1.282777e-01 1.364007e-01 1.439363e-01 1.507681e-01 1.567869e-01 1.618975e-01 1.660130e-01 1.690580e-01 1.709696e-01 1.716995e-01 1.712226e-01 1.695556e-01 1.667362e-01 1.628206e-01 1.578811e-01 1.520031e-01 1.452858e-01 1.378381e-01 1.297841e-01 1.212542e-01 1.123907e-01 1.033371e-01 9.424935e-02 8.527696e-02 7.656984e-02 6.826018e-02 6.046482e-02 5.327259e-02 4.674611e-02 4.091741e-02 3.579181e-02 3.135081e-02 2.755763e-02 2.436369e-02 2.171265e-02 1.954695e-02 1.781128e-02 1.645640e-02 1.543994e-02 1.472843e-02 1.429733e-02 
1.469378e-02 1.478682e-02 1.514305e-02 1.577633e-02 1.670986e-02 1.797681e-02 1.961859e-02 2.168531e-02 2.423213e-02 2.731985e-02 3.100738e-02 3.535099e-02 4.039223e-02 4.615930e-02 5.265421e-02 5.985496e-02 6.770649e-02 7.612629e-02 8.500311e-02 9.420466e-02 1.035842e-01 1.129859e-01 1.222559e-01 1.312406e-01 1.397988e-01 1.477843e-01 1.550661e-01 1.615179e-01 1.670259e-01 1.714834e-01 1.747948e-01 1.768796e-01 1.776760e-01 1.771545e-01 1.753358e-01 1.722691e-01 1.680283e-01 1.627052e-01 1.564065e-01 1.492498e-01 1.413613e-01 1.328792e-01 1.239462e-01 1.147112e-01 1.053225e-01 9.593928e-02 8.671204e-02 7.779068e-02 6.930529e-02 6.136986e-02 5.406917e-02 4.746147e-02 4.157410e-02 3.640794e-02 3.194034e-02 2.813108e-02 2.492835e-02 2.227311e-02 2.010608e-02 1.837072e-02 1.701695e-02 1.600172e-02 1.529103e-02 1.486006e-02 
1.564359e-02 1.573392e-02 1.608596e-02 1.671376e-02 1.764078e-02 1.890081e-02 2.053613e-02 2.259806e-02 2.514343e-02 2.823556e-02 3.193679e-02 3.630839e-02 4.139861e-02 4.724236e-02 5.384946e-02 6.120613e-02 6.926569e-02 7.795295e-02 8.716305e-02 9.676727e-02 1.066207e-01 1.165649e-01 1.264415e-01 1.360871e-01 1.453490e-01 1.540604e-01 1.620682e-01 1.692194e-01 1.753706e-01 1.803838e-01 1.841293e-01 1.864976e-01 1.874028e-01 1.868091e-01 1.847429e-01 1.812731e-01 1.765036e-01 1.705594e-01 1.635819e-01 1.557176e-01 1.471196e-01 1.379481e-01 1.283630e-01 1.185255e-01 1.085917e-01 9.872716e-02 8.908431e-02 7.981329e-02 7.104117e-02 6.287726e-02 5.539991e-02 4.866009e-02 4.267755e-02 3.744579e-02 3.293548e-02 2.910060e-02 2.588347e-02 2.322137e-02 2.105212e-02 1.931718e-02 1.796509e-02 1.695166e-02 1.624210e-02 1.581119e-02 
1.700090e-02 1.708750e-02 1.743395e-02 1.805452e-02 1.897298e-02 2.022387e-02 2.185055e-02 2.390607e-02 2.644941e-02 2.954724e-02 3.326654e-02 3.767476e-02 4.282886e-02 4.877426e-02 5.553129e-02 6.309783e-02 7.143850e-02 8.048875e-02 9.015202e-02 1.003049e-01 1.108041e-01 1.214877e-01 1.321894e-01 1.427316e-01 1.529438e-01 1.626309e-01 1.716103e-01 1.796938e-01 1.867003e-01 1.924518e-01 1.967742e-01 1.995199e-01 2.005705e-01 1.998817e-01 1.974873e-01 1.934824e-01 1.880111e-01 1.812420e-01 1.733623e-01 1.645556e-01 1.550097e-01 1.449124e-01 1.344470e-01 1.237926e-01 1.131168e-01 1.025953e-01 9.238413e-02 8.263469e-02 7.347027e-02 6.499419e-02 5.727593e-02 5.035649e-02 4.424508e-02 3.892504e-02 3.435780e-02 3.048789e-02 2.725098e-02 2.457925e-02 2.240658e-02 2.067187e-02 1.932158e-02 1.831012e-02 1.760165e-02 1.717049e-02 
1.879245e-02 1.887438e-02 1.921415e-02 1.982629e-02 2.073483e-02 2.197515e-02 2.359172e-02 2.563987e-02 2.818101e-02 3.128581e-02 3.502689e-02 3.947933e-02 4.470987e-02 5.077644e-02 5.771495e-02 6.553757e-02 7.422367e-02 8.372162e-02 9.394574e-02 1.047781e-01 1.160774e-01 1.276749e-01 1.393945e-01 1.510378e-01 1.624122e-01 1.732887e-01 1.834515e-01 1.926728e-01 2.007293e-01 2.073956e-01 2.124392e-01 2.156608e-01 2.168961e-01 2.160889e-01 2.132816e-01 2.086059e-01 2.022622e-01 1.944788e-01 1.855004e-01 1.755523e-01 1.648603e-01 1.536417e-01 1.421031e-01 1.304468e-01 1.188553e-01 1.075193e-01 9.660078e-02 8.625471e-02 7.660087e-02 6.773558e-02 5.971767e-02 5.257558e-02 4.630531e-02 4.087710e-02 3.623873e-02 3.232474e-02 2.906246e-02 2.637778e-02 2.419980e-02 2.246431e-02 2.111512e-02 2.010503e-02 1.939701e-02 1.896488e-02 
2.105108e-02 2.112758e-02 2.146018e-02 2.206362e-02 2.296212e-02 2.419185e-02 2.579839e-02 2.783958e-02 3.037962e-02 3.349356e-02 3.726037e-02 4.176403e-02 4.708268e-02 5.328855e-02 6.043408e-02 6.855165e-02 7.763892e-02 8.766035e-02 9.854239e-02 1.101741e-01 1.224142e-01 1.350862e-01 1.479991e-01 1.609296e-01 1.736560e-01 1.859059e-01 1.974259e-01 2.079428e-01 2.171891e-01 2.248909e-01 2.307515e-01 2.345142e-01 2.359625e-01 2.350230e-01 2.317478e-01 2.263103e-01 2.189775e-01 2.100455e-01 1.998251e-01 1.885826e-01 1.765847e-01 1.640781e-01 1.512969e-01 1.384722e-01 1.258045e-01 1.135063e-01 1.017489e-01 9.069416e-02 8.045905e-02 7.113242e-02 6.276065e-02 5.535726e-02 4.890077e-02 4.334399e-02 3.862062e-02 3.465315e-02 3.135910e-02 2.865697e-02 2.647041e-02 2.473179e-02 2.338163e-02 2.237110e-02 2.166191e-02 2.122745e-02 
2.381405e-02 2.388460e-02 2.421037e-02 2.480627e-02 2.569649e-02 2.691787e-02 2.851693e-02 3.055381e-02 3.309611e-02 3.622331e-02 4.002116e-02 4.458352e-02 5.000140e-02 5.636333e-02 6.374099e-02 7.218760e-02 8.172364e-02 9.233427e-02 1.039606e-01 1.164968e-01 1.298012e-01 1.436832e-01 1.579340e-01 1.722972e-01 1.865169e-01 2.002718e-01 2.132736e-01 2.252102e-01 2.357776e-01 2.446559e-01 2.514631e-01 2.558623e-01 2.575712e-01 2.564805e-01 2.526534e-01 2.463243e-01 2.378560e-01 2.276408e-01 2.160659e-01 2.034289e-01 1.900265e-01 1.761247e-01 1.619785e-01 1.478536e-01 1.339734e-01 1.205812e-01 1.078638e-01 9.599535e-02 8.509276e-02 7.523753e-02 6.646198e-02 5.875896e-02 5.208741e-02 4.638147e-02 4.155826e-02 3.752635e-02 3.419208e-02 3.146575e-02 2.926505e-02 2.751858e-02 2.616316e-02 2.514844e-02 2.443496e-02 2.399584e-02 
2.712106e-02 2.718556e-02 2.750613e-02 2.809779e-02 2.898433e-02 3.020302e-02 3.180093e-02 3.384005e-02 3.639192e-02 3.954036e-02 4.337807e-02 4.800939e-02 5.353953e-02 6.007517e-02 6.770975e-02 7.652077e-02 8.655357e-02 9.781514e-02 1.102640e-01 1.238020e-01 1.382832e-01 1.535005e-01 1.692209e-01 1.851537e-01 2.010006e-01 2.163763e-01 2.309566e-01 2.443782e-01 2.563083e-01 2.663933e-01 2.741703e-01 2.792339e-01 2.812198e-01 2.799781e-01 2.755835e-01 2.683335e-01 2.586931e-01 2.471553e-01 2.341876e-01 2.201014e-01 2.052247e-01 1.898355e-01 1.742115e-01 1.586626e-01 1.434359e-01 1.288187e-01 1.150202e-01 1.022340e-01 9.057982e-02 8.012892e-02 7.089615e-02 6.285310e-02 5.593652e-02 5.005889e-02 4.511846e-02 4.100808e-02 3.762173e-02 3.486087e-02 3.263713e-02 3.087438e-02 2.950614e-02 2.848073e-02 2.775769e-02 2.731025e-02 
3.101099e-02 3.106984e-02 3.138861e-02 3.198222e-02 3.287361e-02 3.410007e-02 3.570856e-02 3.776252e-02 4.033690e-02 4.352055e-02 4.741275e-02 5.212890e-02 5.778926e-02 6.452064e-02 7.244079e-02 8.165472e-02 9.223617e-02 1.042165e-01 1.175724e-01 1.322083e-01 1.479702e-01 1.646244e-01 1.819111e-01 1.994949e-01 2.170282e-01 2.340468e-01 2.502037e-01 2.651137e-01 2.784548e-01 2.898659e-01 2.987635e-01 3.046267e-01 3.069602e-01 3.055470e-01 3.004779e-01 2.921483e-01 2.811891e-01 2.682594e-01 2.539141e-01 2.384247e-01 2.221089e-01 2.052263e-01 1.880686e-01 1.710045e-01 1.543129e-01 1.383441e-01 1.233434e-01 1.095310e-01 9.703268e-02 8.591096e-02 7.616281e-02 6.773483e-02 6.053860e-02 5.446181e-02 4.938155e-02 4.517320e-02 4.171731e-02 3.890609e-02 3.664500e-02 3.485243e-02 3.345910e-02 3.241255e-02 3.167168e-02 3.121029e-02 
3.551867e-02 3.557305e-02 3.589580e-02 3.650155e-02 3.741170e-02 3.866300e-02 4.030144e-02 4.239132e-02 4.500950e-02 4.825117e-02 5.222181e-02 5.704779e-02 6.286554e-02 6.982346e-02 7.806643e-02 8.773017e-02 9.892048e-02 1.116963e-01 1.260517e-01 1.418910e-01 1.590408e-01 1.772340e-01 1.961757e-01 2.155071e-01 2.348197e-01 2.535551e-01 2.713508e-01 2.877373e-01 3.024013e-01 3.150141e-01 3.249003e-01 3.314701e-01 3.341149e-01 3.325481e-01 3.268746e-01 3.175796e-01 3.054310e-01 2.912328e-01 2.756037e-01 2.587331e-01 2.409698e-01 2.225482e-01 2.037710e-01 1.850870e-01 1.667950e-01 1.493315e-01 1.329908e-01 1.180296e-01 1.045856e-01 9.271042e-02 8.238191e-02 7.351713e-02 6.599960e-02 5.968882e-02 5.443852e-02 5.010492e-02 4.655433e-02 4.366968e-02 4.134918e-02 3.950628e-02 3.806938e-02 3.698603e-02 3.621510e-02 3.573169e-02 
4.067016e-02 4.072211e-02 4.105754e-02 4.169051e-02 4.264005e-02 4.394165e-02 4.563910e-02 4.779678e-02 5.049196e-02 5.382645e-02 5.791212e-02 6.288659e-02 6.890282e-02 7.613303e-02 8.475180e-02 9.492989e-02 1.068099e-01 1.204825e-01 1.359619e-01 1.531451e-01 1.718280e-01 1.916800e-01 2.123691e-01 2.335092e-01 2.546229e-01 2.749869e-01 2.942364e-01 3.119050e-01 3.278112e-01 3.417632e-01 3.528733e-01 3.603478e-01 3.633986e-01 3.616338e-01 3.551710e-01 3.446493e-01 3.311346e-01 3.157370e-01 2.990665e-01 2.810651e-01 2.620251e-01 2.421050e-01 2.216481e-01 2.012313e-01 1.811756e-01 1.620397e-01 1.441906e-01 1.279332e-01 1.134222e-01 1.006944e-01 8.970600e-02 8.033923e-02 7.244612e-02 6.585439e-02 6.039209e-02 5.589465e-02 5.221337e-02 4.922209e-02 4.680977e-02 4.488664e-02 4.337947e-02 4.223688e-02 4.141854e-02 4.090175e-02 
4.647890e-02 4.653160e-02 4.689205e-02 4.757340e-02 4.859130e-02 4.997906e-02 5.177691e-02 5.404818e-02 5.686958e-02 6.034683e-02 6.460133e-02 6.978133e-02 7.605738e-02 8.362677e-02 9.269753e-02 1.034790e-01 1.161571e-01 1.308600e-01 1.476266e-01 1.663438e-01 1.867535e-01 2.084280e-01 2.309714e-01 2.540526e-01 2.771065e-01 2.992801e-01 3.202804e-01 3.393207e-01 3.561870e-01 3.709431e-01 3.826810e-01 3.906071e-01 3.938570e-01 3.919630e-01 3.851040e-01 3.739711e-01 3.597234e-01 3.435407e-01 3.258902e-01 3.065182e-01 2.860033e-01 2.644423e-01 2.421256e-01 2.198120e-01 1.977764e-01 1.767433e-01 1.571872e-01 1.394607e-01 1.237440e-01 1.100475e-01 9.830408e-02 8.835421e-02 8.001575e-02 7.308085e-02 6.734984e-02 6.263579e-02 5.877445e-02 5.562976e-02 5.308085e-02 5.103629e-02 4.942221e-02 4.818981e-02 4.730059e-02 4.673531e-02 
5.294054e-02 5.299827e-02 5.340004e-02 5.415767e-02 5.528226e-02 5.680392e-02 5.875759e-02 6.120450e-02 6.421898e-02 6.790971e-02 7.240751e-02 7.787403e-02 8.449745e-02 9.250331e-02 1.021356e-01 1.136488e-01 1.272790e-01 1.432051e-01 1.615055e-01 1.820678e-01 2.045684e-01 2.284045e-01 2.530810e-01 2.783047e-01 3.035263e-01 3.273796e-01 3.496107e-01 3.694595e-01 3.870671e-01 4.029712e-01 4.159769e-01 4.247094e-01 4.282230e-01 4.261110e-01 4.185712e-01 4.062466e-01 3.909327e-01 3.741353e-01 3.559225e-01 3.356077e-01 3.138081e-01 2.904203e-01 2.660011e-01 2.415054e-01 2.171391e-01 1.938766e-01 1.723383e-01 1.529184e-01 1.358180e-01 1.210046e-01 1.083824e-01 9.774187e-02 8.886400e-02 8.150148e-02 7.542464e-02 7.042262e-02 6.631527e-02 6.295269e-02 6.020694e-02 5.798591e-02 5.621642e-02 5.485396e-02 5.386321e-02 5.322975e-02 
6.003025e-02 6.009874e-02 6.056259e-02 6.143193e-02 6.271195e-02 6.442851e-02 6.660931e-02 6.931231e-02 7.260793e-02 7.660764e-02 8.144825e-02 8.731106e-02 9.440397e-02 1.029823e-01 1.133317e-01 1.257543e-01 1.405468e-01 1.579492e-01 1.781056e-01 2.009307e-01 2.260310e-01 2.524880e-01 2.795385e-01 3.070373e-01 3.345154e-01 3.606391e-01 3.859555e-01 4.082698e-01 4.263906e-01 4.412346e-01 4.525976e-01 4.598843e-01 4.626489e-01 4.608823e-01 4.545822e-01 4.439759e-01 4.301172e-01 4.132934e-01 3.931796e-01 3.699473e-01 3.458140e-01 3.203006e-01 2.936370e-01 2.667495e-01 2.396955e-01 2.138091e-01 1.899850e-01 1.686106e-01 1.499216e-01 1.338118e-01 1.201557e-01 1.086864e-01 9.914626e-02 9.124548e-02 8.472189e-02 7.933922e-02 7.489883e-02 7.123559e-02 6.821564e-02 6.574809e-02 6.376177e-02 6.221864e-02 6.108803e-02 6.036198e-02 
6.769917e-02 6.778523e-02 6.833626e-02 6.936006e-02 7.085456e-02 7.284009e-02 7.533506e-02 7.839316e-02 8.207902e-02 8.650748e-02 9.182040e-02 9.822159e-02 1.059446e-01 1.152806e-01 1.265592e-01 1.401381e-01 1.563754e-01 1.755870e-01 1.980058e-01 2.236596e-01 2.521421e-01 2.820185e-01 3.122190e-01 3.425556e-01 3.734721e-01 4.012882e-01 4.255670e-01 4.443359e-01 4.573407e-01 4.665690e-01 4.726513e-01 4.761325e-01 4.773116e-01 4.764624e-01 4.734065e-01 4.679157e-01 4.597358e-01 4.480409e-01 4.316786e-01 4.099898e-01 3.844943e-01 3.557749e-01 3.262786e-01 2.963983e-01 2.661281e-01 2.371127e-01 2.106084e-01 1.869543e-01 1.664130e-01 1.487716e-01 1.338748e-01 1.213909e-01 1.110242e-01 1.024395e-01 9.533848e-02 8.945794e-02 8.457202e-02 8.050418e-02 7.711399e-02 7.431357e-02 7.203530e-02 7.024991e-02 6.893309e-02 6.808499e-02 
7.587498e-02 7.598692e-02 7.665449e-02 7.788279e-02 7.966081e-02 8.200224e-02 8.491383e-02 8.844422e-02 9.265062e-02 9.765255e-02 1.035986e-01 1.107147e-01 1.192732e-01 1.296069e-01 1.421006e-01 1.571666e-01 1.752287e-01 1.966593e-01 2.217814e-01 2.507888e-01 2.832588e-01 3.170748e-01 3.512497e-01 3.837527e-01 4.125654e-01 4.322576e-01 4.441687e-01 4.506754e-01 4.539590e-01 4.560415e-01 4.576314e-01 4.586505e-01 4.589653e-01 4.584923e-01 4.573607e-01 4.559283e-01 4.541348e-01 4.515642e-01 4.466057e-01 4.368028e-01 4.201184e-01 3.946845e-01 3.637945e-01 3.304972e-01 2.968688e-01 2.642514e-01 2.346754e-01 2.083639e-01 1.856504e-01 1.661825e-01 1.497757e-01 1.360377e-01 1.246338e-01 1.151823e-01 1.073422e-01 1.008186e-01 9.535204e-02 9.075559e-02 8.688137e-02 8.364654e-02 8.098836e-02 7.888898e-02 7.733215e-02 7.632808e-02 
8.446172e-02 8.460875e-02 8.542585e-02 8.691444e-02 8.905318e-02 9.184747e-02 9.529011e-02 9.942376e-02 1.042966e-01 1.100352e-01 1.167963e-01 1.248371e-01 1.344690e-01 1.460895e-01 1.601468e-01 1.771202e-01 1.974869e-01 2.216276e-01 2.498399e-01 2.824834e-01 3.188962e-01 3.564160e-01 3.910864e-01 4.161795e-01 4.289643e-01 4.316168e-01 4.286633e-01 4.259236e-01 4.265049e-01 4.295260e-01 4.329500e-01 4.352132e-01 4.359292e-01 4.350690e-01 4.327292e-01 4.294809e-01 4.262507e-01 4.252661e-01 4.275414e-01 4.313497e-01 4.313404e-01 4.220135e-01 4.006717e-01 3.684519e-01 3.318679e-01 2.957687e-01 2.627208e-01 2.333123e-01 2.080345e-01 1.863538e-01 1.680865e-01 1.527857e-01 1.400798e-01 1.295387e-01 1.207670e-01 1.134271e-01 1.072227e-01 1.019553e-01 9.746729e-02 9.368286e-02 9.054558e-02 8.805148e-02 8.619451e-02 8.499657e-02 
9.334471e-02 9.353728e-02 9.453968e-02 9.634912e-02 9.893192e-02 1.022839e-01 1.063808e-01 1.112590e-01 1.169554e-01 1.236071e-01 1.313808e-01 1.405743e-01 1.515446e-01 1.647664e-01 1.807805e-01 2.001404e-01 2.234099e-01 2.509019e-01 2.827485e-01 3.192609e-01 3.587433e-01 3.943931e-01 4.160652e-01 4.210699e-01 4.147580e-01 4.066022e-01 4.016010e-01 4.000818e-01 4.019611e-01 4.055267e-01 4.092351e-01 4.117523e-01 4.125860e-01 4.116150e-01 4.089845e-01 4.053267e-01 4.014928e-01 3.991910e-01 3.998383e-01 4.042428e-01 4.124658e-01 4.209701e-01 4.197413e-01 4.028931e-01 3.701782e-01 3.320917e-01 2.950724e-01 2.621160e-01 2.338069e-01 2.094690e-01 1.889134e-01 1.716907e-01 1.573792e-01 1.455001e-01 1.355809e-01 1.272359e-01 1.201230e-01 1.140303e-01 1.087882e-01 1.043298e-01 1.006063e-01 9.763057e-02 9.540879e-02 9.397657e-02 
1.023937e-01 1.026428e-01 1.038681e-01 1.060611e-01 1.091742e-01 1.131912e-01 1.180683e-01 1.238337e-01 1.305107e-01 1.382497e-01 1.472272e-01 1.577914e-01 1.703461e-01 1.854526e-01 2.037531e-01 2.259083e-01 2.526265e-01 2.840864e-01 3.200729e-01 3.593884e-01 3.954719e-01 4.146786e-01 4.140100e-01 4.023906e-01 3.899277e-01 3.809690e-01 3.762228e-01 3.752572e-01 3.777699e-01 3.819022e-01 3.860957e-01 3.889803e-01 3.899800e-01 3.889018e-01 3.859192e-01 3.816722e-01 3.771740e-01 3.740277e-01 3.740049e-01 3.778465e-01 3.859636e-01 3.982929e-01 4.117530e-01 4.166920e-01 4.031059e-01 3.709235e-01 3.315451e-01 2.946448e-01 2.629494e-01 2.354645e-01 2.121654e-01 1.926556e-01 1.764318e-01 1.629687e-01 1.516810e-01 1.421401e-01 1.339441e-01 1.268678e-01 1.207272e-01 1.154661e-01 1.110458e-01 1.074987e-01 1.048456e-01 1.031376e-01 
1.114704e-01 1.117880e-01 1.132741e-01 1.159135e-01 1.196427e-01 1.244311e-01 1.302117e-01 1.370034e-01 1.448117e-01 1.538042e-01 1.641625e-01 1.762949e-01 1.906390e-01 2.078373e-01 2.286048e-01 2.536542e-01 2.839098e-01 3.193908e-01 3.587934e-01 3.954008e-01 4.145084e-01 4.104405e-01 3.952095e-01 3.795506e-01 3.665877e-01 3.577248e-01 3.533481e-01 3.527437e-01 3.551809e-01 3.589876e-01 3.628631e-01 3.655786e-01 3.665553e-01 3.655306e-01 3.626850e-01 3.586252e-01 3.543313e-01 3.511473e-01 3.506406e-01 3.537859e-01 3.614919e-01 3.737390e-01 3.896235e-01 4.067928e-01 4.157320e-01 4.031158e-01 3.692857e-01 3.298558e-01 2.947000e-01 2.637500e-01 2.373759e-01 2.153269e-01 1.969691e-01 1.817244e-01 1.688809e-01 1.579720e-01 1.485300e-01 1.403184e-01 1.331389e-01 1.269489e-01 1.217228e-01 1.175153e-01 1.143653e-01 1.123408e-01 
1.204331e-01 1.208317e-01 1.226160e-01 1.257623e-01 1.301894e-01 1.358486e-01 1.426470e-01 1.505902e-01 1.596628e-01 1.700488e-01 1.819300e-01 1.957774e-01 2.120373e-01 2.314252e-01 2.546288e-01 2.823821e-01 3.157668e-01 3.550820e-01 3.938451e-01 4.157674e-01 4.111927e-01 3.933018e-01 3.745362e-01 3.584577e-01 3.456843e-01 3.369379e-01 3.323611e-01 3.313656e-01 3.331854e-01 3.363874e-01 3.397909e-01 3.422393e-01 3.431374e-01 3.421776e-01 3.395606e-01 3.358679e-01 3.320843e-01 3.294145e-01 3.292414e-01 3.325096e-01 3.399462e-01 3.517772e-01 3.677385e-01 3.874520e-01 4.074356e-01 4.175358e-01 4.019541e-01 3.659998e-01 3.275932e-01 2.931710e-01 2.636811e-01 2.391357e-01 2.185750e-01 2.014501e-01 1.869176e-01 1.745032e-01 1.636762e-01 1.541942e-01 1.458487e-01 1.386130e-01 1.324802e-01 1.275292e-01 1.238210e-01 1.214423e-01 
1.291434e-01 1.296365e-01 1.317543e-01 1.354626e-01 1.406608e-01 1.472788e-01 1.551935e-01 1.643950e-01 1.748406e-01 1.867339e-01 2.002447e-01 2.159279e-01 2.341998e-01 2.559046e-01 2.816264e-01 3.119927e-01 3.484435e-01 3.886800e-01 4.171704e-01 4.166584e-01 3.968401e-01 3.752724e-01 3.560523e-01 3.399964e-01 3.273002e-01 3.183944e-01 3.133167e-01 3.115454e-01 3.123639e-01 3.145572e-01 3.171175e-01 3.190194e-01 3.197172e-01 3.188921e-01 3.167539e-01 3.138180e-01 3.109858e-01 3.092920e-01 3.099354e-01 3.137688e-01 3.214765e-01 3.333165e-01 3.492000e-01 3.690213e-01 3.914748e-01 4.133016e-01 4.204436e-01 3.986447e-01 3.605041e-01 3.223902e-01 2.902545e-01 2.634885e-01 2.408097e-01 2.217873e-01 2.054902e-01 1.914721e-01 1.791525e-01 1.682881e-01 1.586685e-01 1.502857e-01 1.431571e-01 1.373890e-01 1.330681e-01 1.303016e-01 
1.374683e-01 1.380686e-01 1.405524e-01 1.448713e-01 1.509041e-01 1.585534e-01 1.676661e-01 1.782066e-01 1.901060e-01 2.035768e-01 2.187739e-01 2.363284e-01 2.566022e-01 2.805842e-01 3.087052e-01 3.416922e-01 3.807601e-01 4.160350e-01 4.253829e-01 4.067389e-01 3.822230e-01 3.599688e-01 3.407331e-01 3.245884e-01 3.117276e-01 3.022948e-01 2.963213e-01 2.933887e-01 2.929219e-01 2.939142e-01 2.954997e-01 2.967708e-01 2.972256e-01 2.965606e-01 2.949802e-01 2.929488e-01 2.912906e-01 2.909102e-01 2.928290e-01 2.977546e-01 3.062398e-01 3.184972e-01 3.345658e-01 3.542239e-01 3.769868e-01 4.014405e-01 4.234964e-01 4.219266e-01 3.912977e-01 3.510822e-01 3.168478e-01 2.880870e-01 2.633042e-01 2.423572e-01 2.242544e-01 2.085691e-01 1.946892e-01 1.823614e-01 1.713887e-01 1.617800e-01 1.535865e-01 1.469422e-01 1.419646e-01 1.387828e-01 
1.452835e-01 1.460008e-01 1.488741e-01 1.538374e-01 1.607484e-01 1.694770e-01 1.798387e-01 1.917622e-01 2.051501e-01 2.202076e-01 2.370636e-01 2.564153e-01 2.784839e-01 3.045425e-01 3.343129e-01 3.703864e-01 4.095569e-01 4.321099e-01 4.215507e-01 3.957970e-01 3.708274e-01 3.484867e-01 3.291762e-01 3.127408e-01 2.993033e-01 2.889674e-01 2.817733e-01 2.774130e-01 2.754479e-01 2.750552e-01 2.755122e-01 2.760400e-01 2.762053e-01 2.757384e-01 2.748279e-01 2.738748e-01 2.736049e-01 2.747904e-01 2.782817e-01 2.846394e-01 2.942764e-01 3.073211e-01 3.236902e-01 3.432090e-01 3.655424e-01 3.901622e-01 4.165986e-01 4.336149e-01 4.182355e-01 3.803179e-01 3.431225e-01 3.124517e-01 2.855190e-01 2.626890e-01 2.428139e-01 2.254560e-01 2.099956e-01 1.961603e-01 1.837869e-01 1.729012e-01 1.635969e-01 1.560373e-01 1.503740e-01 1.467592e-01 
1.524740e-01 1.533159e-01 1.565926e-01 1.622183e-01 1.700304e-01 1.798603e-01 1.914948e-01 2.048131e-01 2.196941e-01 2.363049e-01 2.547694e-01 2.757997e-01 2.995345e-01 3.274686e-01 3.585080e-01 3.972163e-01 4.326041e-01 4.389765e-01 4.145603e-01 3.879349e-01 3.631650e-01 3.411659e-01 3.216003e-01 3.045793e-01 2.901952e-01 2.786146e-01 2.699328e-01 2.639493e-01 2.603521e-01 2.584952e-01 2.577779e-01 2.575391e-01 2.574063e-01 2.571521e-01 2.569425e-01 2.571270e-01 2.583370e-01 2.612332e-01 2.664836e-01 2.745176e-01 2.856058e-01 2.997380e-01 3.167073e-01 3.362853e-01 3.581032e-01 3.824953e-01 4.088621e-01 4.359209e-01 4.377079e-01 4.067368e-01 3.674546e-01 3.351430e-01 3.065381e-01 2.820766e-01 2.606465e-01 2.417085e-01 2.247220e-01 2.093884e-01 1.956113e-01 1.834355e-01 1.730073e-01 1.645199e-01 1.581620e-01 1.541097e-01 
1.589360e-01 1.599056e-01 1.635861e-01 1.698704e-01 1.785771e-01 1.894963e-01 2.023879e-01 2.170686e-01 2.333987e-01 2.514645e-01 2.714221e-01 2.938790e-01 3.191454e-01 3.484792e-01 3.811654e-01 4.202266e-01 4.478555e-01 4.392134e-01 4.101912e-01 3.842505e-01 3.599011e-01 3.379678e-01 3.179114e-01 2.999688e-01 2.843339e-01 2.712540e-01 2.609111e-01 2.532029e-01 2.479182e-01 2.445688e-01 2.426633e-01 2.416512e-01 2.412214e-01 2.411899e-01 2.416985e-01 2.430464e-01 2.457694e-01 2.504196e-01 2.575076e-01 2.673492e-01 2.800840e-01 2.955693e-01 3.134899e-01 3.334726e-01 3.552390e-01 3.789979e-01 4.047805e-01 4.336903e-01 4.495927e-01 4.291631e-01 3.905350e-01 3.559129e-01 3.261672e-01 3.001809e-01 2.774225e-01 2.569992e-01 2.385638e-01 2.217718e-01 2.066211e-01 1.931780e-01 1.816448e-01 1.722458e-01 1.652061e-01 1.607256e-01 
1.645775e-01 1.656733e-01 1.697431e-01 1.766592e-01 1.862245e-01 1.981871e-01 2.122855e-01 2.282655e-01 2.459738e-01 2.653787e-01 2.866916e-01 3.103021e-01 3.369116e-01 3.671750e-01 4.021978e-01 4.399301e-01 4.574384e-01 4.381338e-01 4.096729e-01 3.842325e-01 3.604669e-01 3.382809e-01 3.175142e-01 2.984055e-01 2.813379e-01 2.666269e-01 2.545618e-01 2.451243e-01 2.381929e-01 2.334034e-01 2.303626e-01 2.286181e-01 2.279096e-01 2.280933e-01 2.292875e-01 2.317506e-01 2.359324e-01 2.422771e-01 2.511785e-01 2.628498e-01 2.773187e-01 2.943131e-01 3.134273e-01 3.341097e-01 3.561239e-01 3.793214e-01 4.045794e-01 4.317524e-01 4.564248e-01 4.477065e-01 4.116724e-01 3.745070e-01 3.439590e-01 3.166478e-01 2.927529e-01 2.709745e-01 2.511852e-01 2.330165e-01 2.165620e-01 2.019179e-01 1.893373e-01 1.790764e-01 1.713926e-01 1.665094e-01 
1.693179e-01 1.705319e-01 1.749588e-01 1.824522e-01 1.928028e-01 2.057212e-01 2.209285e-01 2.381033e-01 2.570762e-01 2.776937e-01 3.001908e-01 3.247296e-01 3.523101e-01 3.830823e-01 4.198033e-01 4.552752e-01 4.629124e-01 4.385267e-01 4.122204e-01 3.872605e-01 3.638133e-01 3.411230e-01 3.194930e-01 2.991092e-01 2.805709e-01 2.642364e-01 2.505106e-01 2.394431e-01 2.309958e-01 2.248854e-01 2.208122e-01 2.184053e-01 2.174478e-01 2.178291e-01 2.196476e-01 2.231261e-01 2.286369e-01 2.365336e-01 2.471234e-01 2.605320e-01 2.766925e-01 2.952179e-01 3.156256e-01 3.371935e-01 3.596671e-01 3.825634e-01 4.070088e-01 4.322632e-01 4.601504e-01 4.613150e-01 4.288721e-01 3.905420e-01 3.593685e-01 3.311730e-01 3.062591e-01 2.832960e-01 2.622528e-01 2.428325e-01 2.251830e-01 2.094504e-01 1.959204e-01 1.848826e-01 1.766188e-01 1.713748e-01 
1.730881e-01 1.744050e-01 1.791376e-01 1.871247e-01 1.981485e-01 2.118902e-01 2.280587e-01 2.462809e-01 2.663691e-01 2.880812e-01 3.116269e-01 3.370456e-01 3.653452e-01 3.965866e-01 4.337122e-01 4.663456e-01 4.667799e-01 4.407014e-01 4.159368e-01 3.915826e-01 3.682932e-01 3.451019e-01 3.226552e-01 3.010944e-01 2.812239e-01 2.634306e-01 2.482373e-01 2.357468e-01 2.259971e-01 2.187646e-01 2.138175e-01 2.108527e-01 2.096869e-01 2.102350e-01 2.125801e-01 2.169175e-01 2.235525e-01 2.327766e-01 2.448300e-01 2.597634e-01 2.774358e-01 2.973556e-01 3.189626e-01 3.414385e-01 3.644229e-01 3.873124e-01 4.109992e-01 4.350860e-01 4.627978e-01 4.707010e-01 4.424453e-01 4.042584e-01 3.723895e-01 3.435663e-01 3.176332e-01 2.936234e-01 2.714390e-01 2.509308e-01 2.322428e-01 2.155814e-01 2.012431e-01 1.895489e-01 1.807957e-01 1.752488e-01 
1.758308e-01 1.772286e-01 1.821975e-01 1.905660e-01 2.021110e-01 2.164942e-01 2.334168e-01 2.524741e-01 2.734602e-01 2.960896e-01 3.205157e-01 3.467690e-01 3.756590e-01 4.075006e-01 4.442866e-01 4.739184e-01 4.694830e-01 4.433286e-01 4.193933e-01 3.956421e-01 3.724334e-01 3.489024e-01 3.258266e-01 3.033652e-01 2.824556e-01 2.635061e-01 2.471583e-01 2.335553e-01 2.227994e-01 2.147094e-01 2.090958e-01 2.057073e-01 2.043844e-01 2.050599e-01 2.078059e-01 2.127980e-01 2.202925e-01 2.305436e-01 2.437440e-01 2.598795e-01 2.787357e-01 2.997650e-01 3.223382e-01 3.456091e-01 3.690650e-01 3.921844e-01 4.153627e-01 4.389203e-01 4.649086e-01 4.768110e-01 4.527527e-01 4.154766e-01 3.827644e-01 3.533819e-01 3.264326e-01 3.015312e-01 2.783826e-01 2.570095e-01 2.375019e-01 2.201242e-01 2.051645e-01 1.929700e-01 1.838444e-01 1.780683e-01 
1.775002e-01 1.789492e-01 1.840674e-01 1.926769e-01 2.045521e-01 2.193441e-01 2.367495e-01 2.563490e-01 2.779225e-01 3.011729e-01 3.261966e-01 3.530754e-01 3.823630e-01 4.147294e-01 4.509507e-01 4.782962e-01 4.711584e-01 4.455227e-01 4.219253e-01 3.985474e-01 3.753401e-01 3.516101e-01 3.281362e-01 3.051098e-01 2.835411e-01 2.638597e-01 2.467717e-01 2.324484e-01 2.210512e-01 2.124193e-01 2.063878e-01 2.027337e-01 2.013128e-01 2.020685e-01 2.050656e-01 2.104680e-01 2.185066e-01 2.294140e-01 2.433414e-01 2.602354e-01 2.798405e-01 3.015803e-01 3.247693e-01 3.485725e-01 3.723387e-01 3.956968e-01 4.185797e-01 4.420002e-01 4.664022e-01 4.804502e-01 4.595553e-01 4.233116e-01 3.897410e-01 3.598827e-01 3.321107e-01 3.065699e-01 2.827500e-01 2.608069e-01 2.407655e-01 2.229309e-01 2.075764e-01 1.950664e-01 1.857063e-01 1.797863e-01 
1.780636e-01 1.795309e-01 1.847012e-01 1.933946e-01 2.053849e-01 2.203197e-01 2.378947e-01 2.576867e-01 2.794708e-01 3.029498e-01 3.281988e-01 3.553288e-01 3.847863e-01 4.174101e-01 4.533448e-01 4.797099e-01 4.716492e-01 4.462711e-01 4.227520e-01 3.995221e-01 3.763197e-01 3.525431e-01 3.289459e-01 3.057376e-01 2.839485e-01 2.640206e-01 2.466811e-01 2.321113e-01 2.204953e-01 2.116792e-01 2.055061e-01 2.017617e-01 2.003076e-01 2.010912e-01 2.041737e-01 2.097160e-01 2.179422e-01 2.290748e-01 2.432526e-01 2.604097e-01 2.802768e-01 3.022659e-01 3.256723e-01 3.496625e-01 3.735394e-01 3.969916e-01 4.197755e-01 4.431545e-01 4.669350e-01 4.816973e-01 4.620053e-01 4.262026e-01 3.922355e-01 3.621705e-01 3.340802e-01 3.083019e-01 2.842414e-01 2.620986e-01 2.418725e-01 2.238811e-01 2.083915e-01 1.957740e-01 1.863340e-01 1.803654e-01 
1.775002e-01 1.789492e-01 1.840674e-01 1.926769e-01 2.045521e-01 2.193441e-01 2.367495e-01 2.563490e-01 2.779225e-01 3.011729e-01 3.261966e-01 3.530754e-01 3.823630e-01 4.147294e-01 4.509507e-01 4.782962e-01 4.711584e-01 4.455227e-01 4.219253e-01 3.985474e-01 3.753401e-01 3.516101e-01 3.281362e-01 3.051098e-01 2.835411e-01 2.638597e-01 2.467717e-01 2.324484e-01 2.210512e-01 2.124193e-01 2.063878e-01 2.027337e-01 2.013128e-01 2.020685e-01 2.050656e-01 2.104680e-01 2.185066e-01 2.294140e-01 2.433414e-01 2.602354e-01 2.798405e-01 3.015803e-01 3.247693e-01 3.485725e-01 3.723387e-01 3.956968e-01 4.185797e-01 4.420002e-01 4.664022e-01 4.804502e-01 4.595553e-01 4.233116e-01 3.897410e-01 3.598827e-01 3.321107e-01 3.065699e-01 2.827500e-01 2.608069e-01 2.407655e-01 2.229309e-01 2.075764e-01 1.950664e-01 1.857063e-01 1.797863e-01 
1.758308e-01 1.772286e-01 1.821975e-01 1.905660e-01 2.021110e-01 2.164942e-01 2.334168e-01 2.524741e-01 2.734602e-01 2.960896e-01 3.205157e-01 3.467690e-01 3.756590e-01 4.075006e-01 4.442866e-01 4.739184e-01 4.694830e-01 4.433286e-01 4.193933e-01 3.956421e-01 3.724334e-01 3.489024e-01 3.258266e-01 3.033652e-01 2.824556e-01 2.635061e-01 2.471583e-01 2.335553e-01 2.227994e-01 2.147094e-01 2.090958e-01 2.057073e-01 2.043844e-01 2.050599e-01 2.078059e-01 2.127980e-01 2.202925e-01 2.305436e-01 2.437440e-01 2.598795e-01 2.787357e-01 2.997650e-01 3.223382e-01 3.456091e-01 3.690650e-01 3.921844e-01 4.153627e-01 4.389203e-01 4.649086e-01 4.768110e-01 4.527527e-01 4.154766e-01 3.827644e-01 3.533819e-01 3.264326e-01 3.015312e-01 2.783826e-01 2.570095e-01 2.375019e-01 2.201242e-01 2.051645e-01 1.929700e-01 1.838444e-01 1.780683e-01 