# vtk DataFile Version 2.0
Comment goes here
ASCII

DATASET STRUCTURED_POINTS
FIELD FieldData 1
TIME 1 1 double
0.19000000
DIMENSIONS    64   64   1

ORIGIN    0.000   0.000   0.000
SPACING   0.015625 0.015625   1.000

POINT_DATA   4096
SCALARS Concentration double
LOOKUP_TABLE default

1.896259e-10 2.940529e-10 6.977235e-10 1.731769e-09 4.159394e-09 9.560434e-09 2.100240e-08 4.408967e-08 8.849628e-08 1.699172e-07 3.124319e-07 5.507297e-07 9.323377e-07 1.518809e-06 2.387715e-06 3.634508e-06 5.380084e-06 7.783866e-06 1.107386e-05 1.558708e-05 2.183404e-05 3.057654e-05 4.292987e-05 6.045318e-05 8.518202e-05 1.194583e-04 1.653950e-04 2.238188e-04 2.927777e-04 3.661487e-04 4.333707e-04 4.813982e-04 4.989647e-04 4.814027e-04 4.333772e-04 3.661549e-04 2.927813e-04 2.238194e-04 1.653925e-04 1.194539e-04 8.517675e-05 6.044803e-05 4.292551e-05 3.057319e-05 2.183175e-05 1.558566e-05 1.107311e-05 7.783549e-06 5.380027e-06 3.634567e-06 2.387811e-06 1.518898e-06 9.324075e-07 5.507774e-07 3.124625e-07 1.699354e-07 8.850666e-08 4.409535e-08 2.100535e-08 9.561919e-09 4.160099e-09 1.732092e-09 6.978603e-10 2.941040e-10 
2.929930e-10 4.527176e-10 1.068122e-09 2.636316e-09 6.295258e-09 1.438058e-08 3.138418e-08 6.542488e-08 1.303509e-07 2.483242e-07 4.528208e-07 7.911727e-07 1.326800e-06 2.139559e-06 3.326750e-06 5.003361e-06 7.308919e-06 1.041618e-05 1.456742e-05 2.011758e-05 2.760255e-05 3.782137e-05 5.193964e-05 7.158488e-05 9.887721e-05 1.362562e-04 1.859149e-04 2.486911e-04 3.224880e-04 4.008048e-04 4.724474e-04 5.235901e-04 5.422902e-04 5.235949e-04 4.724540e-04 4.008108e-04 3.224908e-04 2.486902e-04 1.859105e-04 1.362496e-04 9.886987e-05 7.157795e-05 5.193392e-05 3.781711e-05 2.759974e-05 2.011594e-05 1.456667e-05 1.041597e-05 7.309019e-06 5.003567e-06 3.326963e-06 2.139731e-06 1.326925e-06 7.912544e-07 4.528715e-07 2.483540e-07 1.303677e-07 6.543403e-08 3.138894e-08 1.438298e-08 6.296402e-09 2.636842e-09 1.068347e-09 4.528019e-10 
6.958175e-10 1.069588e-09 2.502646e-09 6.125926e-09 1.450149e-08 3.281909e-08 7.091284e-08 1.462577e-07 2.881053e-07 5.422459e-07 9.761280e-07 1.682179e-06 2.779636e-06 4.411182e-06 6.739749e-06 9.941662e-06 1.420937e-05 1.974675e-05 2.682520e-05 3.583665e-05 4.737506e-05 6.233416e-05 8.201397e-05 1.082332e-04 1.433545e-04 1.901058e-04 2.509244e-04 3.266953e-04 4.149090e-04 5.079563e-04 5.927670e-04 6.531931e-04 6.752722e-04 6.531994e-04 5.927755e-04 5.079637e-04 4.149110e-04 3.266915e-04 2.509149e-04 1.900933e-04 1.433410e-04 1.082210e-04 8.200412e-05 6.232719e-05 4.737082e-05 3.583459e-05 2.682471e-05 1.974713e-05 1.421017e-05 9.942489e-06 6.740435e-06 4.411680e-06 2.779973e-06 1.682389e-06 9.762539e-07 5.423176e-07 2.881450e-07 1.462790e-07 7.092388e-08 3.282465e-08 1.450415e-08 6.127151e-09 2.503172e-09 1.069786e-09 
1.747037e-09 2.673592e-09 6.210652e-09 1.509138e-08 3.544900e-08 7.955806e-08 1.703622e-07 3.479985e-07 6.784956e-07 1.263134e-06 2.247670e-06 3.826130e-06 6.240055e-06 9.764558e-06 1.469352e-05 2.131461e-05 2.990132e-05 4.067085e-05 5.388958e-05 6.994858e-05 8.947187e-05 1.134517e-04 1.433555e-04 1.812783e-04 2.299526e-04 2.925801e-04 3.720197e-04 4.692823e-04 5.812356e-04 6.985009e-04 8.049575e-04 8.806492e-04 9.082891e-04 8.806575e-04 8.049680e-04 6.985084e-04 5.812332e-04 4.692698e-04 3.719975e-04 2.925533e-04 2.299250e-04 1.812542e-04 1.433369e-04 1.134393e-04 8.946511e-05 6.994625e-05 5.389027e-05 4.067309e-05 2.990411e-05 2.131713e-05 1.469547e-05 9.765912e-06 6.240943e-06 3.826671e-06 2.247989e-06 1.263315e-06 6.785958e-07 3.480528e-07 1.703906e-07 7.957260e-08 3.545606e-08 1.509468e-08 6.212086e-09 2.674137e-09 
4.292673e-09 6.543101e-09 1.509859e-08 3.643794e-08 8.496673e-08 1.891787e-07 4.016335e-07 8.128850e-07 1.569420e-06 2.891540e-06 5.089301e-06 8.564014e-06 1.379851e-05 2.131629e-05 3.163955e-05 4.522254e-05 6.242200e-05 8.336405e-05 1.081645e-04 1.370529e-04 1.705326e-04 2.095977e-04 2.558290e-04 3.116319e-04 3.802039e-04 4.654203e-04 5.707855e-04 6.976024e-04 8.420142e-04 9.923324e-04 1.128333e-03 1.224874e-03 1.260118e-03 1.224886e-03 1.128348e-03 9.923411e-04 8.420047e-04 6.975750e-04 5.707406e-04 4.653680e-04 3.801512e-04 3.115872e-04 2.557956e-04 2.095770e-04 1.705233e-04 1.370523e-04 1.081696e-04 8.337172e-05 6.243015e-05 4.522938e-05 3.164462e-05 2.131970e-05 1.380069e-05 8.565313e-06 5.090057e-06 2.891964e-06 1.569656e-06 8.130128e-07 4.017013e-07 1.892137e-07 8.498395e-08 3.644609e-08 1.510216e-08 6.544461e-09 
1.021794e-08 1.551550e-08 3.557387e-08 8.527747e-08 1.974159e-07 4.360773e-07 9.178938e-07 1.840708e-06 3.519134e-06 6.416908e-06 1.117208e-05 1.858717e-05 2.959433e-05 4.515283e-05 6.614812e-05 9.323993e-05 1.268002e-04 1.665768e-04 2.121678e-04 2.632585e-04 3.198681e-04 3.827441e-04 4.534051e-04 5.345590e-04 6.299546e-04 7.444104e-04 8.823991e-04 1.045822e-03 1.230145e-03 1.421005e-03 1.593233e-03 1.715347e-03 1.759941e-03 1.715365e-03 1.593252e-03 1.421011e-03 1.230118e-03 1.045762e-03 8.823090e-04 7.443089e-04 6.298544e-04 5.344758e-04 4.533450e-04 3.827093e-04 3.198560e-04 2.632636e-04 2.121839e-04 1.665972e-04 1.268205e-04 9.325638e-05 6.616007e-05 4.516071e-05 2.959929e-05 1.859009e-05 1.117377e-05 6.417868e-06 3.519676e-06 1.841010e-06 9.180584e-07 4.361648e-07 1.974599e-07 8.529876e-08 3.558334e-08 1.551915e-08 
2.355281e-08 3.563394e-08 8.119043e-08 1.933353e-07 4.443213e-07 9.736396e-07 2.031623e-06 4.036093e-06 7.639783e-06 1.378476e-05 2.373699e-05 3.904081e-05 6.142386e-05 9.256129e-05 1.338604e-04 1.861426e-04 2.495541e-04 3.228321e-04 4.042941e-04 4.923318e-04 5.858062e-04 6.847749e-04 7.903935e-04 9.056810e-04 1.035089e-03 1.184820e-03 1.360819e-03 1.566088e-03 1.795656e-03 2.032331e-03 2.245468e-03 2.396460e-03 2.451649e-03 2.396489e-03 2.245497e-03 2.032337e-03 1.795603e-03 1.565980e-03 1.360655e-03 1.184638e-03 1.034910e-03 9.055351e-04 7.902914e-04 6.847208e-04 5.857956e-04 4.923543e-04 4.043371e-04 3.228820e-04 2.496019e-04 1.861803e-04 1.338873e-04 9.257873e-05 6.143468e-05 3.904709e-05 2.374062e-05 1.378682e-05 7.640960e-06 4.036762e-06 2.031996e-06 9.738418e-07 4.444250e-07 1.933860e-07 8.121322e-08 3.564277e-08 
5.261549e-08 7.931857e-08 1.795971e-07 4.247908e-07 9.690260e-07 2.106048e-06 4.355352e-06 8.569379e-06 1.605514e-05 2.865743e-05 4.879344e-05 7.931547e-05 1.232819e-04 1.834541e-04 2.618696e-04 3.592397e-04 4.748929e-04 6.053693e-04 7.462970e-04 8.935380e-04 1.043742e-03 1.195673e-03 1.349724e-03 1.509357e-03 1.680031e-03 1.870050e-03 2.087559e-03 2.337360e-03 2.614434e-03 2.898858e-03 3.154456e-03 3.335365e-03 3.401603e-03 3.335411e-03 3.154502e-03 2.898864e-03 2.614338e-03 2.337168e-03 2.087270e-03 1.869728e-03 1.679713e-03 1.509098e-03 1.349544e-03 1.195580e-03 1.043731e-03 8.935920e-04 7.463911e-04 6.054764e-04 4.749943e-04 3.593186e-04 2.619256e-04 1.834898e-04 1.233038e-04 7.932808e-05 4.880075e-05 2.866166e-05 1.605764e-05 8.570865e-06 4.356213e-06 2.106533e-06 9.692812e-07 4.249186e-07 1.796554e-07 7.934143e-08 
1.140454e-07 1.713138e-07 3.854559e-07 9.054314e-07 2.049727e-06 4.417178e-06 9.050606e-06 1.763067e-05 3.268366e-05 5.769098e-05 9.709127e-05 1.559290e-04 2.393534e-04 3.515988e-04 4.952160e-04 6.700029e-04 8.731542e-04 1.097096e-03 1.332429e-03 1.570674e-03 1.804919e-03 2.032037e-03 2.251349e-03 2.467278e-03 2.686905e-03 2.921722e-03 3.182975e-03 3.477996e-03 3.802131e-03 4.132985e-03 4.429385e-03 4.638839e-03 4.715746e-03 4.638928e-03 4.429485e-03 4.133029e-03 3.802003e-03 3.477709e-03 3.182510e-03 2.921194e-03 2.686372e-03 2.466840e-03 2.251044e-03 2.031881e-03 1.804911e-03 1.570788e-03 1.332621e-03 1.097315e-03 8.733621e-04 6.701632e-04 4.953295e-04 3.516705e-04 2.393969e-04 1.559539e-04 9.710573e-05 5.769947e-05 3.268883e-05 1.763384e-05 9.052495e-06 4.418265e-06 2.050309e-06 9.057263e-07 3.855916e-07 1.713671e-07 
2.400863e-07 3.593232e-07 8.032126e-07 1.873229e-06 4.206905e-06 8.985875e-06 1.823447e-05 3.515344e-05 6.445348e-05 1.124608e-04 1.870016e-04 2.965946e-04 4.494203e-04 6.513740e-04 9.047705e-04 1.206657e-03 1.549462e-03 1.919168e-03 2.297823e-03 2.670524e-03 3.025543e-03 3.357702e-03 3.665160e-03 3.954308e-03 4.234633e-03 4.522007e-03 4.831495e-03 5.173352e-03 5.543481e-03 5.917398e-03 6.250279e-03 6.484679e-03 6.571112e-03 6.484863e-03 6.250520e-03 5.917568e-03 5.543373e-03 5.172978e-03 4.830795e-03 4.521173e-03 4.233751e-03 3.953559e-03 3.664615e-03 3.357388e-03 3.025488e-03 2.670698e-03 2.298156e-03 1.919568e-03 1.549850e-03 1.206959e-03 9.049845e-04 6.515081e-04 4.495008e-04 2.966403e-04 1.870284e-04 1.124771e-04 6.446388e-05 3.516019e-05 1.823868e-05 8.988388e-06 4.208287e-06 1.873943e-06 8.035461e-07 3.594554e-07 
4.914447e-07 7.326857e-07 1.626550e-06 3.764702e-06 8.383826e-06 1.774154e-05 3.563900e-05 6.796625e-05 1.231997e-04 2.124092e-04 3.488393e-04 5.461832e-04 8.165975e-04 1.167145e-03 1.597886e-03 2.099429e-03 2.654854e-03 3.241113e-03 3.828227e-03 4.392620e-03 4.917219e-03 5.395612e-03 5.825465e-03 6.217306e-03 6.583825e-03 6.946009e-03 7.322352e-03 7.725092e-03 8.149974e-03 8.570377e-03 8.939674e-03 9.197555e-03 9.293176e-03 9.197987e-03 8.940316e-03 8.570973e-03 8.150120e-03 7.724808e-03 7.321457e-03 6.944840e-03 6.582473e-03 6.216111e-03 5.824545e-03 5.394996e-03 4.917022e-03 4.392833e-03 3.828751e-03 3.241798e-03 2.655541e-03 2.099978e-03 1.598284e-03 1.167395e-03 8.167485e-04 5.462689e-04 3.488901e-04 2.124410e-04 1.232207e-04 6.798033e-05 3.564800e-05 1.774702e-05 8.386878e-06 3.766291e-06 1.627296e-06 7.329811e-07 
9.789847e-07 1.453391e-06 3.202456e-06 7.351750e-06 1.622491e-05 3.399578e-05 6.756458e-05 1.273982e-04 2.282090e-04 3.886417e-04 6.301840e-04 9.737076e-04 1.435825e-03 2.022782e-03 2.728028e-03 3.529495e-03 4.394819e-03 5.286492e-03 6.166137e-03 6.999578e-03 7.766068e-03 8.460502e-03 9.080559e-03 9.642827e-03 1.016177e-02 1.066154e-02 1.116136e-02 1.167254e-02 1.218887e-02 1.268078e-02 1.310201e-02 1.339116e-02 1.349905e-02 1.339217e-02 1.310365e-02 1.268246e-02 1.218982e-02 1.167280e-02 1.116047e-02 1.066008e-02 1.015978e-02 9.640972e-03 9.079016e-03 8.459230e-03 7.765408e-03 6.999625e-03 6.166768e-03 5.287509e-03 4.395915e-03 3.530419e-03 2.728720e-03 2.023222e-03 1.436090e-03 9.738574e-04 6.302735e-04 3.887003e-04 2.282498e-04 1.274272e-04 6.758394e-05 3.400796e-05 1.623186e-05 7.355427e-06 3.204203e-06 1.454089e-06 
1.899642e-06 2.806886e-06 6.133647e-06 1.395518e-05 3.049926e-05 6.323236e-05 1.242638e-04 2.315655e-04 4.097888e-04 6.891945e-04 1.103214e-03 1.681876e-03 2.445499e-03 3.394801e-03 4.509094e-03 5.744582e-03 7.046729e-03 8.359282e-03 9.640244e-03 1.085694e-02 1.198525e-02 1.302347e-02 1.396991e-02 1.485151e-02 1.567913e-02 1.647295e-02 1.724516e-02 1.799792e-02 1.871746e-02 1.936717e-02 1.990203e-02 2.025862e-02 2.039223e-02 2.026095e-02 1.990605e-02 1.937143e-02 1.872043e-02 1.799981e-02 1.724489e-02 1.647158e-02 1.567648e-02 1.484897e-02 1.396768e-02 1.302113e-02 1.198365e-02 1.085645e-02 9.640732e-03 8.360546e-03 7.048360e-03 5.746063e-03 4.510282e-03 3.395586e-03 2.445987e-03 1.682159e-03 1.103386e-03 6.893099e-04 4.098709e-04 2.316250e-04 1.243041e-04 6.325793e-05 3.051395e-05 1.396299e-05 6.137366e-06 2.808369e-06 
3.592882e-06 5.279895e-06 1.142978e-05 2.574703e-05 5.567323e-05 1.141173e-04 2.216093e-04 4.079503e-04 7.130362e-04 1.184222e-03 1.871407e-03 2.815099e-03 4.036156e-03 5.521186e-03 7.224124e-03 9.069485e-03 1.097582e-02 1.287149e-02 1.471331e-02 1.649036e-02 1.820948e-02 1.986455e-02 2.144135e-02 2.297137e-02 2.443931e-02 2.584066e-02 2.717070e-02 2.841526e-02 2.954849e-02 3.052100e-02 3.129006e-02 3.178662e-02 3.197257e-02 3.179124e-02 3.129865e-02 3.052999e-02 2.955517e-02 2.842045e-02 2.717200e-02 2.583980e-02 2.443559e-02 2.296799e-02 2.143847e-02 1.986030e-02 1.820592e-02 1.648844e-02 1.471286e-02 1.287262e-02 1.097795e-02 9.071667e-03 7.226029e-03 5.522509e-03 4.036995e-03 2.815593e-03 1.871707e-03 1.184431e-03 7.131907e-04 4.080681e-04 2.216922e-04 1.141715e-04 5.570496e-05 2.576414e-05 1.143802e-05 5.283209e-06 
6.627718e-06 9.677910e-06 2.072507e-05 4.616620e-05 9.866091e-05 1.997734e-04 3.831273e-04 6.965157e-04 1.202408e-03 1.972465e-03 3.078121e-03 4.570020e-03 6.462543e-03 8.715047e-03 1.124380e-02 1.393550e-02 1.668779e-02 1.942723e-02 2.213023e-02 2.481006e-02 2.752247e-02 3.026609e-02 3.297237e-02 3.568632e-02 3.832650e-02 4.082782e-02 4.316084e-02 4.528071e-02 4.714041e-02 4.867306e-02 4.984421e-02 5.057926e-02 5.085247e-02 5.058673e-02 4.985971e-02 4.868871e-02 4.715208e-02 4.529073e-02 4.316435e-02 4.082784e-02 3.832028e-02 3.568216e-02 3.297007e-02 3.025913e-02 2.751579e-02 2.480553e-02 2.212760e-02 1.942737e-02 1.669019e-02 1.393842e-02 1.124674e-02 8.717295e-03 6.464080e-03 4.570985e-03 3.078718e-03 1.972881e-03 1.202715e-03 6.967496e-04 3.832923e-04 1.998814e-04 9.872443e-05 4.620049e-05 2.074161e-05 9.684540e-06 
1.193038e-05 1.729094e-05 3.656849e-05 8.043303e-05 1.696716e-04 3.390342e-04 6.416848e-04 1.151708e-03 1.963845e-03 3.182887e-03 4.906824e-03 7.192828e-03 1.003734e-02 1.335731e-02 1.702426e-02 2.089446e-02 2.486151e-02 2.887413e-02 3.293391e-02 3.708411e-02 4.143809e-02 4.606385e-02 5.069061e-02 5.532601e-02 5.972180e-02 6.371432e-02 6.731708e-02 7.051110e-02 7.324891e-02 7.544661e-02 7.708903e-02 7.810086e-02 7.847096e-02 7.810901e-02 7.710982e-02 7.546692e-02 7.326445e-02 7.052585e-02 6.732213e-02 6.371351e-02 5.970893e-02 5.532060e-02 5.069099e-02 4.605121e-02 4.142539e-02 3.707562e-02 3.292727e-02 2.887200e-02 2.486389e-02 2.089818e-02 1.702857e-02 1.336090e-02 1.003988e-02 7.194472e-03 4.907834e-03 3.183609e-03 1.964396e-03 1.152147e-03 6.420063e-04 3.392499e-04 1.698007e-04 8.050358e-05 3.660288e-05 1.730483e-05 
2.096518e-05 3.011942e-05 6.278090e-05 1.361159e-04 2.830174e-04 5.574783e-04 1.040611e-03 1.843591e-03 3.105561e-03 4.974678e-03 7.578464e-03 1.097225e-02 1.511894e-02 1.988249e-02 2.509807e-02 3.061671e-02 3.635963e-02 4.232178e-02 4.856034e-02 5.511210e-02 6.202657e-02 6.911445e-02 7.599118e-02 8.280830e-02 8.907988e-02 9.457127e-02 9.944774e-02 1.036842e-01 1.071901e-01 1.099022e-01 1.118672e-01 1.130486e-01 1.134674e-01 1.130546e-01 1.118877e-01 1.099242e-01 1.072091e-01 1.037005e-01 9.945059e-02 9.456771e-02 8.905663e-02 8.280609e-02 7.600090e-02 6.909061e-02 6.200503e-02 5.510191e-02 4.854916e-02 4.231626e-02 3.636223e-02 3.062102e-02 2.510397e-02 1.988814e-02 1.512335e-02 1.097539e-02 7.580457e-03 4.976090e-03 3.106617e-03 1.844419e-03 1.041214e-03 5.578820e-04 2.832591e-04 1.362477e-04 6.284516e-05 3.014529e-05 
3.598932e-05 5.118085e-05 1.049182e-04 2.237962e-04 4.578870e-04 8.878675e-04 1.632918e-03 2.853943e-03 4.748252e-03 7.516465e-03 1.131491e-02 1.618334e-02 2.204041e-02 2.870241e-02 3.600149e-02 4.381660e-02 5.210592e-02 6.088705e-02 7.007236e-02 7.957598e-02 8.961333e-02 9.979836e-02 1.093045e-01 1.180637e-01 1.253346e-01 1.310165e-01 1.353613e-01 1.386183e-01 1.409614e-01 1.425739e-01 1.436467e-01 1.442535e-01 1.444611e-01 1.442609e-01 1.436628e-01 1.425977e-01 1.409838e-01 1.386348e-01 1.353618e-01 1.309980e-01 1.253019e-01 1.180710e-01 1.093205e-01 9.974568e-02 8.958254e-02 7.957912e-02 7.006124e-02 6.087783e-02 5.211158e-02 4.382358e-02 3.600986e-02 2.871077e-02 2.204695e-02 1.618814e-02 1.131796e-02 7.518698e-03 4.750027e-03 2.855409e-03 1.634030e-03 8.886257e-04 4.583474e-04 2.240490e-04 1.050423e-04 5.123108e-05 
6.037520e-05 8.487125e-05 1.706979e-04 3.574482e-04 7.182505e-04 1.368826e-03 2.477309e-03 4.268096e-03 7.009797e-03 1.096211e-02 1.630235e-02 2.304173e-02 3.105268e-02 4.013046e-02 5.013882e-02 6.098626e-02 7.260573e-02 8.503407e-02 9.833883e-02 1.122997e-01 1.257009e-01 1.365033e-01 1.440723e-01 1.485754e-01 1.505561e-01 1.507971e-01 1.498124e-01 1.485323e-01 1.471887e-01 1.460653e-01 1.452449e-01 1.447384e-01 1.445874e-01 1.447451e-01 1.452578e-01 1.460856e-01 1.471977e-01 1.485345e-01 1.498073e-01 1.507596e-01 1.505191e-01 1.485656e-01 1.440897e-01 1.364819e-01 1.257077e-01 1.123587e-01 9.832702e-02 8.501004e-02 7.261866e-02 6.099676e-02 5.014877e-02 4.014284e-02 3.106327e-02 2.305031e-02 1.630801e-02 1.096620e-02 7.012998e-03 4.270685e-03 2.479261e-03 1.370147e-03 7.190480e-04 3.578834e-04 1.709104e-04 8.495689e-05 
9.909016e-05 1.375373e-04 2.708376e-04 5.555338e-04 1.093793e-03 2.044151e-03 3.633129e-03 6.159626e-03 9.972824e-03 1.539057e-02 2.260260e-02 3.158580e-02 4.219024e-02 5.423249e-02 6.767907e-02 8.247309e-02 9.866730e-02 1.163522e-01 1.336521e-01 1.468229e-01 1.542594e-01 1.554601e-01 1.525240e-01 1.469810e-01 1.409535e-01 1.351016e-01 1.296537e-01 1.254505e-01 1.222429e-01 1.199651e-01 1.184764e-01 1.176110e-01 1.173334e-01 1.176023e-01 1.184632e-01 1.199545e-01 1.222283e-01 1.254405e-01 1.296509e-01 1.350792e-01 1.409453e-01 1.469817e-01 1.525480e-01 1.555263e-01 1.542638e-01 1.468191e-01 1.335944e-01 1.162928e-01 9.871750e-02 8.251028e-02 6.769615e-02 5.425013e-02 4.220388e-02 3.159678e-02 2.261005e-02 1.539636e-02 9.977949e-03 6.164043e-03 3.636572e-03 2.046496e-03 1.095208e-03 5.563006e-04 2.712108e-04 1.376876e-04 
1.591726e-04 2.180085e-04 4.195593e-04 8.409929e-04 1.618091e-03 2.957382e-03 5.148573e-03 8.572692e-03 1.366343e-02 2.079775e-02 3.017364e-02 4.175462e-02 5.540444e-02 7.104187e-02 8.886762e-02 1.089588e-01 1.304138e-01 1.488049e-01 1.579561e-01 1.571837e-01 1.495032e-01 1.387057e-01 1.276624e-01 1.175032e-01 1.092805e-01 1.029569e-01 9.807275e-02 9.461129e-02 9.214462e-02 9.046848e-02 8.940053e-02 8.878782e-02 8.858219e-02 8.877345e-02 8.937684e-02 9.044521e-02 9.212308e-02 9.459854e-02 9.807661e-02 1.029679e-01 1.093024e-01 1.175029e-01 1.276471e-01 1.387777e-01 1.495513e-01 1.571701e-01 1.580053e-01 1.488450e-01 1.305774e-01 1.090174e-01 8.886966e-02 7.106455e-02 5.542658e-02 4.177328e-02 3.018685e-02 2.080766e-02 1.367217e-02 8.580036e-03 5.154213e-03 2.961148e-03 1.620315e-03 8.421689e-04 4.201202e-04 2.182301e-04 
2.505618e-04 3.390302e-04 6.375690e-04 1.246655e-03 2.336381e-03 4.160844e-03 7.068773e-03 1.152415e-02 1.804776e-02 2.708173e-02 3.886576e-02 5.340724e-02 7.064360e-02 9.067331e-02 1.139067e-01 1.387144e-01 1.558423e-01 1.585309e-01 1.493458e-01 1.347243e-01 1.194595e-01 1.062874e-01 9.574158e-02 8.712420e-02 8.035499e-02 7.515261e-02 7.122029e-02 6.848355e-02 6.662250e-02 6.542400e-02 6.469121e-02 6.428782e-02 6.415263e-02 6.427467e-02 6.467010e-02 6.540336e-02 6.660475e-02 6.847155e-02 7.121876e-02 7.516014e-02 8.037366e-02 8.713575e-02 9.574793e-02 1.063502e-01 1.194955e-01 1.346796e-01 1.493521e-01 1.585604e-01 1.558359e-01 1.386584e-01 1.138428e-01 9.066856e-02 7.066051e-02 5.342411e-02 3.888115e-02 2.709577e-02 1.806219e-02 1.153671e-02 7.078344e-03 4.167068e-03 2.339888e-03 1.248427e-03 6.383860e-04 3.393366e-04 
3.857298e-04 5.162559e-04 9.498498e-04 1.812767e-03 3.307035e-03 5.716310e-03 9.428194e-03 1.500244e-02 2.306052e-02 3.415676e-02 4.865127e-02 6.671756e-02 8.839610e-02 1.137375e-01 1.402577e-01 1.564397e-01 1.538014e-01 1.387038e-01 1.203328e-01 1.038292e-01 8.993410e-02 7.834855e-02 6.904878e-02 6.164884e-02 5.604654e-02 5.195270e-02 4.906503e-02 4.717219e-02 4.597732e-02 4.526613e-02 4.486203e-02 4.465348e-02 4.458418e-02 4.464364e-02 4.484635e-02 4.525077e-02 4.596426e-02 4.716259e-02 4.906137e-02 5.195694e-02 5.606232e-02 6.167031e-02 6.906758e-02 7.837722e-02 8.994106e-02 1.037938e-01 1.203618e-01 1.387661e-01 1.537982e-01 1.564485e-01 1.402709e-01 1.137974e-01 8.846442e-02 6.675278e-02 4.868012e-02 3.418075e-02 2.308405e-02 1.502186e-02 9.442187e-03 5.724989e-03 3.311901e-03 1.815248e-03 9.509938e-04 5.166840e-04 
5.796698e-04 7.682367e-04 1.385077e-03 2.583436e-03 4.591934e-03 7.711446e-03 1.234075e-02 1.907706e-02 2.871273e-02 4.199062e-02 5.954827e-02 8.183621e-02 1.088763e-01 1.373737e-01 1.540945e-01 1.489691e-01 1.307847e-01 1.106945e-01 9.293605e-02 7.777276e-02 6.525446e-02 5.525636e-02 4.758330e-02 4.175946e-02 3.748965e-02 3.445697e-02 3.240216e-02 3.110962e-02 3.034666e-02 2.993234e-02 2.972335e-02 2.962882e-02 2.959928e-02 2.962240e-02 2.971306e-02 2.992197e-02 3.033778e-02 3.110287e-02 3.239866e-02 3.445858e-02 3.749914e-02 4.177444e-02 4.759630e-02 5.526786e-02 6.525661e-02 7.775305e-02 9.294410e-02 1.106826e-01 1.307035e-01 1.489408e-01 1.541597e-01 1.374749e-01 1.089537e-01 8.186467e-02 5.959035e-02 4.203475e-02 2.875460e-02 1.910853e-02 1.236195e-02 7.724231e-03 4.598927e-03 2.586959e-03 1.386682e-03 7.688307e-04 
8.470264e-04 1.113010e-03 1.970451e-03 3.598651e-03 6.243162e-03 1.020323e-02 1.586420e-02 2.386339e-02 3.513339e-02 5.073654e-02 7.180046e-02 9.917397e-02 1.298094e-01 1.502255e-01 1.469203e-01 1.278174e-01 1.061986e-01 8.684542e-02 7.053192e-02 5.725415e-02 4.665292e-02 3.836301e-02 3.211070e-02 2.750300e-02 2.422871e-02 2.198425e-02 2.052599e-02 1.964877e-02 1.916622e-02 1.893218e-02 1.883525e-02 1.880315e-02 1.879503e-02 1.879932e-02 1.882902e-02 1.892573e-02 1.916066e-02 1.964467e-02 2.052398e-02 2.198551e-02 2.423484e-02 2.751302e-02 3.212003e-02 3.836799e-02 4.665051e-02 5.723735e-02 7.051767e-02 8.681234e-02 1.061353e-01 1.278047e-01 1.469350e-01 1.502269e-01 1.298424e-01 9.921619e-02 7.187463e-02 5.080900e-02 3.519213e-02 2.390566e-02 1.589124e-02 1.021913e-02 6.251578e-03 3.602821e-03 1.972323e-03 1.113704e-03 
1.201223e-03 1.567915e-03 2.734923e-03 4.906822e-03 8.333859e-03 1.329433e-02 2.013332e-02 2.955205e-02 4.269157e-02 6.100551e-02 8.630152e-02 1.178970e-01 1.443130e-01 1.473500e-01 1.296149e-01 1.067137e-01 8.589824e-02 6.839738e-02 5.413176e-02 4.273039e-02 3.379207e-02 2.691351e-02 2.178404e-02 1.806205e-02 1.546171e-02 1.371625e-02 1.260910e-02 1.195799e-02 1.161199e-02 1.145350e-02 1.139620e-02 1.138288e-02 1.138112e-02 1.138075e-02 1.139268e-02 1.144973e-02 1.160867e-02 1.195556e-02 1.260791e-02 1.371683e-02 1.546468e-02 1.806664e-02 2.178769e-02 2.691345e-02 3.378689e-02 4.271629e-02 5.411375e-02 6.836841e-02 8.586013e-02 1.067141e-01 1.296045e-01 1.473401e-01 1.443434e-01 1.179632e-01 8.642380e-02 6.112594e-02 4.277764e-02 2.960951e-02 2.016745e-02 1.331318e-02 8.343153e-03 4.911147e-03 2.736766e-03 1.568580e-03 
1.645297e-03 2.137659e-03 3.688316e-03 6.526026e-03 1.089253e-02 1.701783e-02 2.516926e-02 3.610005e-02 5.119155e-02 7.231010e-02 1.022515e-01 1.337079e-01 1.475844e-01 1.356018e-01 1.124549e-01 9.007488e-02 7.109579e-02 5.556309e-02 4.319112e-02 3.340301e-02 2.574552e-02 1.984588e-02 1.543310e-02 1.223627e-02 1.001299e-02 8.533706e-03 7.603482e-03 7.058553e-03 6.768337e-03 6.633408e-03 6.582811e-03 6.569760e-03 6.567858e-03 6.568647e-03 6.580943e-03 6.631346e-03 6.766501e-03 7.057222e-03 7.602854e-03 8.533968e-03 1.001426e-02 1.223798e-02 1.543391e-02 1.984414e-02 2.574043e-02 3.339285e-02 4.317766e-02 5.554402e-02 7.107134e-02 9.005540e-02 1.124254e-01 1.355692e-01 1.475939e-01 1.337515e-01 1.023719e-01 7.242148e-02 5.126343e-02 3.614901e-02 2.519660e-02 1.703178e-02 1.089840e-02 6.528364e-03 3.689168e-03 2.137952e-03 
2.171237e-03 2.814409e-03 4.825745e-03 8.462295e-03 1.395115e-02 2.145650e-02 3.110382e-02 4.369920e-02 6.059809e-02 8.453793e-02 1.170501e-01 1.428071e-01 1.433022e-01 1.224695e-01 9.916987e-02 7.840335e-02 6.131101e-02 4.757941e-02 3.667600e-02 2.800702e-02 2.116604e-02 1.584868e-02 1.183304e-02 8.903440e-03 6.855647e-03 5.489466e-03 4.626424e-03 4.114499e-03 3.833729e-03 3.694412e-03 3.634248e-03 3.612845e-03 3.607902e-03 3.612288e-03 3.633298e-03 3.693330e-03 3.832733e-03 4.113741e-03 4.625980e-03 5.489347e-03 6.855742e-03 8.903293e-03 1.183186e-02 1.584553e-02 2.116022e-02 2.799716e-02 3.666122e-02 4.755633e-02 6.127467e-02 7.835580e-02 9.910524e-02 1.224236e-01 1.433669e-01 1.429682e-01 1.172069e-01 8.462220e-02 6.064654e-02 4.373101e-02 3.111703e-02 2.145935e-02 1.394945e-02 8.460179e-03 4.824375e-03 2.813854e-03 
2.745292e-03 3.557313e-03 6.087410e-03 1.062784e-02 1.739698e-02 2.647886e-02 3.780496e-02 5.215088e-02 7.054998e-02 9.686157e-02 1.286197e-01 1.459412e-01 1.357167e-01 1.123558e-01 9.004026e-02 7.102981e-02 5.554817e-02 4.315350e-02 3.322851e-02 2.524809e-02 1.886459e-02 1.383778e-02 9.992426e-03 7.156972e-03 5.157596e-03 3.814500e-03 2.958955e-03 2.444175e-03 2.153695e-03 2.001510e-03 1.928881e-03 1.898608e-03 1.890499e-03 1.898339e-03 1.928414e-03 2.000961e-03 2.153161e-03 2.443722e-03 2.958589e-03 3.814161e-03 5.157124e-03 7.156041e-03 9.990600e-03 1.383458e-02 1.885971e-02 2.524098e-02 3.321908e-02 4.314129e-02 5.553339e-02 7.101987e-02 9.004271e-02 1.123984e-01 1.357755e-01 1.460311e-01 1.287436e-01 9.693632e-02 7.059197e-02 5.216747e-02 3.780071e-02 2.646656e-02 1.738510e-02 1.061977e-02 6.083096e-03 3.555613e-03 
3.315281e-03 4.300001e-03 7.366009e-03 1.284679e-02 2.097698e-02 3.173963e-02 4.491213e-02 6.090648e-02 8.059124e-02 1.074855e-01 1.362758e-01 1.456788e-01 1.286964e-01 1.054967e-01 8.441798e-02 6.687336e-02 5.258376e-02 4.106381e-02 3.171168e-02 2.409473e-02 1.792195e-02 1.300147e-02 9.191249e-03 6.351653e-03 4.331401e-03 2.964764e-03 2.088123e-03 1.555384e-03 1.249303e-03 1.083685e-03 1.000319e-03 9.630142e-04 9.524518e-04 9.628854e-04 1.000089e-03 1.083399e-03 1.248992e-03 1.555060e-03 2.087747e-03 2.964247e-03 4.330571e-03 6.350270e-03 9.189056e-03 1.299826e-02 1.791774e-02 2.408968e-02 3.170671e-02 4.106053e-02 5.258563e-02 6.688602e-02 8.444188e-02 1.055120e-01 1.286529e-01 1.455970e-01 1.362472e-01 1.075017e-01 8.059561e-02 6.088555e-02 4.487734e-02 3.170510e-02 2.095121e-02 1.283076e-02 7.357730e-03 4.296768e-03 
3.806892e-03 4.945992e-03 8.497737e-03 1.484034e-02 2.425273e-02 3.662455e-02 5.165946e-02 6.916412e-02 8.995396e-02 1.159350e-01 1.412554e-01 1.440625e-01 1.236613e-01 1.009931e-01 8.113233e-02 6.470244e-02 5.124623e-02 4.025803e-02 3.121890e-02 2.377253e-02 1.767522e-02 1.276677e-02 8.929047e-03 6.044452e-03 3.978061e-03 2.573098e-03 1.668131e-03 1.115437e-03 7.951805e-04 6.192721e-04 5.285758e-04 4.867689e-04 4.746637e-04 4.867052e-04 5.284568e-04 6.191110e-04 7.949762e-04 1.115174e-03 1.667749e-03 2.572501e-03 3.977087e-03 6.042915e-03 8.926780e-03 1.276368e-02 1.767143e-02 2.376826e-02 3.121484e-02 4.025478e-02 5.124407e-02 6.469951e-02 8.112170e-02 1.009619e-01 1.236160e-01 1.440271e-01 1.412441e-01 1.159315e-01 8.993723e-02 6.912152e-02 5.160934e-02 3.657880e-02 2.421978e-02 1.481970e-02 8.486945e-03 4.941668e-03 
4.144244e-03 5.391388e-03 9.286404e-03 1.624361e-02 2.659279e-02 4.017214e-02 5.666579e-02 7.541352e-02 9.684321e-02 1.215000e-01 1.440182e-01 1.425082e-01 1.208022e-01 9.859032e-02 7.955825e-02 6.378487e-02 5.079334e-02 4.007383e-02 3.117397e-02 2.378817e-02 1.770131e-02 1.277178e-02 8.894040e-03 5.963724e-03 3.855405e-03 2.417680e-03 1.489729e-03 9.219705e-04 5.919991e-04 4.097498e-04 3.149202e-04 2.707108e-04 2.578006e-04 2.706737e-04 3.148461e-04 4.096379e-04 5.918324e-04 9.217198e-04 1.489323e-03 2.417020e-03 3.854347e-03 5.962131e-03 8.891842e-03 1.276903e-02 1.769840e-02 2.378569e-02 3.117319e-02 4.007616e-02 5.080070e-02 6.379825e-02 7.957804e-02 9.861413e-02 1.208336e-01 1.425538e-01 1.440836e-01 1.215332e-01 9.683268e-02 7.537062e-02 5.661310e-02 4.012265e-02 2.655584e-02 1.621961e-02 9.273457e-03 5.386126e-03 
4.266040e-03 5.553466e-03 9.578290e-03 1.677159e-02 2.749032e-02 4.156568e-02 5.868924e-02 7.806095e-02 9.977462e-02 1.238073e-01 1.450723e-01 1.418705e-01 1.197082e-01 9.766957e-02 7.897226e-02 6.346065e-02 5.065177e-02 4.003283e-02 3.118386e-02 2.381788e-02 1.773298e-02 1.279364e-02 8.899836e-03 5.951593e-03 3.827269e-03 2.377186e-03 1.440769e-03 8.676038e-04 5.342950e-04 3.499705e-04 2.538511e-04 2.089154e-04 1.957652e-04 2.088862e-04 2.537907e-04 3.498748e-04 5.341437e-04 8.673641e-04 1.440367e-03 2.376521e-03 3.826193e-03 5.949957e-03 8.897546e-03 1.279070e-02 1.772964e-02 2.381456e-02 3.118143e-02 4.003217e-02 5.065424e-02 6.346718e-02 7.898550e-02 9.769054e-02 1.197453e-01 1.419365e-01 1.451760e-01 1.238672e-01 9.977350e-02 7.802434e-02 5.864084e-02 4.151868e-02 2.745453e-02 1.674787e-02 9.565336e-03 5.548108e-03 
4.144244e-03 5.391388e-03 9.286404e-03 1.624361e-02 2.659279e-02 4.017214e-02 5.666579e-02 7.541352e-02 9.684321e-02 1.215000e-01 1.440182e-01 1.425082e-01 1.208022e-01 9.859032e-02 7.955825e-02 6.378487e-02 5.079334e-02 4.007383e-02 3.117397e-02 2.378817e-02 1.770131e-02 1.277178e-02 8.894040e-03 5.963724e-03 3.855405e-03 2.417680e-03 1.489729e-03 9.219705e-04 5.919991e-04 4.097498e-04 3.149202e-04 2.707108e-04 2.578006e-04 2.706737e-04 3.148461e-04 4.096379e-04 5.918324e-04 9.217198e-04 1.489323e-03 2.417020e-03 3.854347e-03 5.962131e-03 8.891842e-03 1.276903e-02 1.769840e-02 2.378569e-02 3.117319e-02 4.007616e-02 5.080070e-02 6.379825e-02 7.957804e-02 9.861413e-02 1.208336e-01 1.425538e-01 1.440836e-01 1.215332e-01 9.683268e-02 7.537062e-02 5.661310e-02 4.012265e-02 2.655584e-02 1.621961e-02 9.273457e-03 5.386126e-03 
3.806892e-03 4.945992e-03 8.497737e-03 1.484034e-02 2.425273e-02 3.662455e-02 5.165946e-02 6.916412e-02 8.995396e-02 1.159350e-01 1.412554e-01 1.440625e-01 1.236613e-01 1.009931e-01 8.113233e-02 6.470244e-02 5.124623e-02 4.025803e-02 3.121890e-02 2.377253e-02 1.767522e-02 1.276677e-02 8.929047e-03 6.044452e-03 3.978061e-03 2.573098e-03 1.668131e-03 1.115437e-03 7.951805e-04 6.192721e-04 5.285758e-04 4.867689e-04 4.746637e-04 4.867052e-04 5.284568e-04 6.191110e-04 7.949762e-04 1.115174e-03 1.667749e-03 2.572501e-03 3.977087e-03 6.042915e-03 8.926780e-03 1.276368e-02 1.767143e-02 2.376826e-02 3.121484e-02 4.025478e-02 5.124407e-02 6.469951e-02 8.112170e-02 1.009619e-01 1.236160e-01 1.440271e-01 1.412441e-01 1.159315e-01 8.993723e-02 6.912152e-02 5.160934e-02 3.657880e-02 2.421978e-02 1.481970e-02 8.486945e-03 4.941668e-03 