# vtk DataFile Version 2.0
Comment goes here
ASCII

DATASET STRUCTURED_POINTS
FIELD FieldData 1
TIME 1 1 double
0.97000000
DIMENSIONS    64   64   1

ORIGIN    0.000   0.000   0.000
SPACING   0.015625 0.015625   1.000

POINT_DATA   4096
SCALARS Concentration double
LOOKUP_TABLE default

1.522733e-03 1.549919e-03 1.637026e-03 1.785675e-03 1.999042e-03 2.281940e-03 2.641190e-03 3.085831e-03 3.627753e-03 4.282022e-03 5.067612e-03 6.007691e-03 7.129978e-03 8.466607e-03 1.005273e-02 1.192544e-02 1.412024e-02 1.666941e-02 1.959475e-02 2.290664e-02 2.659352e-02 3.062475e-02 3.493887e-02 3.945348e-02 4.405495e-02 4.861486e-02 5.298629e-02 5.702306e-02 6.058036e-02 6.352601e-02 6.574082e-02 6.712747e-02 6.762102e-02 6.719326e-02 6.586631e-02 6.370240e-02 6.079535e-02 5.726550e-02 5.324380e-02 4.887630e-02 4.430984e-02 3.969345e-02 3.515914e-02 3.082219e-02 2.676883e-02 2.306044e-02 1.973019e-02 1.678845e-02 1.422603e-02 1.201971e-02 1.013759e-02 8.543118e-03 7.199245e-03 6.070229e-03 5.123888e-03 4.332247e-03 3.672090e-03 3.124391e-03 2.674042e-03 2.309176e-03 2.020712e-03 1.801864e-03 1.647777e-03 1.555284e-03 
1.579972e-03 1.607860e-03 1.697310e-03 1.849926e-03 2.068874e-03 2.358962e-03 2.727009e-03 3.182074e-03 3.736087e-03 4.404208e-03 5.205550e-03 6.163560e-03 7.306368e-03 8.666923e-03 1.028101e-02 1.218666e-02 1.442046e-02 1.701617e-02 1.999713e-02 2.337568e-02 2.714201e-02 3.126733e-02 3.569146e-02 4.033269e-02 4.507695e-02 4.979370e-02 5.433196e-02 5.853892e-02 6.226276e-02 6.536111e-02 6.770114e-02 6.917145e-02 6.969787e-02 6.924736e-02 6.784524e-02 6.556231e-02 6.250545e-02 5.880937e-02 5.461615e-02 5.007924e-02 4.535238e-02 4.058952e-02 3.592513e-02 3.147528e-02 2.732554e-02 2.353599e-02 2.013785e-02 1.713962e-02 1.453007e-02 1.228433e-02 1.036897e-02 8.746310e-03 7.378325e-03 6.228606e-03 5.264165e-03 4.456579e-03 3.782370e-03 3.222358e-03 2.761356e-03 2.387451e-03 2.091552e-03 1.866871e-03 1.708564e-03 1.613476e-03 
1.752538e-03 1.782537e-03 1.879033e-03 2.043584e-03 2.279335e-03 2.591074e-03 2.985642e-03 3.472156e-03 4.062692e-03 4.772683e-03 5.621699e-03 6.633962e-03 7.838798e-03 9.271149e-03 1.096893e-02 1.297288e-02 1.532288e-02 1.805687e-02 2.120289e-02 2.477880e-02 2.878006e-02 3.318343e-02 3.793242e-02 4.294795e-02 4.811452e-02 5.329650e-02 5.833073e-02 6.304523e-02 6.726378e-02 7.081220e-02 7.351989e-02 7.523580e-02 7.585872e-02 7.534187e-02 7.371955e-02 7.108772e-02 6.759007e-02 6.340150e-02 5.869650e-02 5.365538e-02 4.845211e-02 4.325550e-02 3.820631e-02 3.342281e-02 2.898822e-02 2.495858e-02 2.135949e-02 1.819358e-02 1.544402e-02 1.308081e-02 1.106629e-02 9.359215e-03 7.918869e-03 6.706568e-03 5.687346e-03 4.831495e-03 4.114804e-03 3.517602e-03 3.024458e-03 2.623308e-03 2.305021e-03 2.062787e-03 1.891793e-03 1.788906e-03 
2.044855e-03 2.078384e-03 2.186704e-03 2.371301e-03 2.635294e-03 2.983454e-03 3.422675e-03 3.962197e-03 4.614353e-03 5.395059e-03 6.324642e-03 7.428605e-03 8.738102e-03 1.029119e-02 1.212922e-02 1.429744e-02 1.684077e-02 1.980394e-02 2.322204e-02 2.712174e-02 3.150632e-02 3.636135e-02 4.163591e-02 4.725528e-02 5.310237e-02 5.903468e-02 6.487205e-02 7.041239e-02 7.543928e-02 7.972481e-02 8.303698e-02 8.515786e-02 8.594061e-02 8.531512e-02 8.333093e-02 8.012643e-02 7.590729e-02 7.091393e-02 6.537445e-02 5.951464e-02 5.354078e-02 4.764383e-02 4.197310e-02 3.664980e-02 3.175286e-02 2.733204e-02 2.340382e-02 1.996203e-02 1.698083e-02 1.442246e-02 1.224245e-02 1.039405e-02 8.832108e-03 7.514240e-03 6.402432e-03 5.465006e-03 4.676545e-03 4.016565e-03 3.469215e-03 3.022155e-03 2.666171e-03 2.394398e-03 2.202060e-03 2.086049e-03 
2.464720e-03 2.503233e-03 2.628293e-03 2.841299e-03 3.145347e-03 3.545211e-03 4.047889e-03 4.662822e-03 5.402749e-03 6.284283e-03 7.328828e-03 8.563629e-03 1.002228e-02 1.174679e-02 1.378331e-02 1.618291e-02 1.899718e-02 2.227936e-02 2.607353e-02 3.041715e-02 3.532324e-02 4.078807e-02 4.676747e-02 5.319269e-02 5.994491e-02 6.687497e-02 7.378353e-02 8.043218e-02 8.655070e-02 9.183554e-02 9.597111e-02 9.864665e-02 9.964912e-02 9.887648e-02 9.639878e-02 9.241614e-02 8.721959e-02 8.113930e-02 7.447692e-02 6.752108e-02 6.051879e-02 5.368791e-02 4.718686e-02 4.113980e-02 3.561954e-02 3.066757e-02 2.628914e-02 2.246681e-02 1.916379e-02 1.633230e-02 1.391943e-02 1.187118e-02 1.013667e-02 8.668360e-03 7.424421e-03 6.370546e-03 5.479696e-03 4.730238e-03 4.105709e-03 3.593348e-03 3.183790e-03 2.870067e-03 2.647428e-03 2.512783e-03 
3.023132e-03 3.068109e-03 3.215016e-03 3.465137e-03 3.821579e-03 4.289143e-03 4.875024e-03 5.588975e-03 6.444333e-03 7.458652e-03 8.654771e-03 1.006213e-02 1.171729e-02 1.366682e-02 1.596284e-02 1.866340e-02 2.182753e-02 2.551825e-02 2.978887e-02 3.468888e-02 4.024044e-02 4.645140e-02 5.328305e-02 6.067351e-02 6.850222e-02 7.661565e-02 8.479904e-02 9.278027e-02 1.002318e-01 1.067533e-01 1.119231e-01 1.153025e-01 1.165865e-01 1.156278e-01 1.125265e-01 1.075683e-01 1.011611e-01 9.375065e-02 8.573083e-02 7.746246e-02 6.923369e-02 6.128853e-02 5.379237e-02 4.687174e-02 4.059142e-02 3.498467e-02 3.004437e-02 2.574172e-02 2.202792e-02 1.884466e-02 1.612949e-02 1.382027e-02 1.185941e-02 1.019296e-02 8.774749e-03 7.567277e-03 6.541496e-03 5.674255e-03 4.948274e-03 4.350171e-03 3.870346e-03 3.501635e-03 3.239294e-03 3.080222e-03 
3.733963e-03 3.786941e-03 3.961042e-03 4.257424e-03 4.679242e-03 5.231386e-03 5.921367e-03 6.759416e-03 7.759710e-03 8.941065e-03 1.032814e-02 1.195304e-02 1.385576e-02 1.608779e-02 1.870809e-02 2.178229e-02 2.537723e-02 2.956551e-02 3.440933e-02 3.996903e-02 4.627448e-02 5.334317e-02 6.113944e-02 6.960747e-02 7.862418e-02 8.803662e-02 9.761950e-02 1.070758e-01 1.160254e-01 1.239561e-01 1.303207e-01 1.345242e-01 1.361400e-01 1.349638e-01 1.311345e-01 1.250519e-01 1.172646e-01 1.083545e-01 9.882204e-02 8.910141e-02 7.951791e-02 7.033973e-02 6.173448e-02 5.382919e-02 4.668029e-02 4.031316e-02 3.471029e-02 2.983226e-02 2.561986e-02 2.200443e-02 1.891457e-02 1.627949e-02 1.403456e-02 1.211842e-02 1.048035e-02 9.079188e-03 7.883474e-03 6.868148e-03 6.014822e-03 5.309260e-03 4.741472e-03 4.303987e-03 3.992006e-03 3.802386e-03 
4.613894e-03 4.676458e-03 4.883389e-03 5.235703e-03 5.736670e-03 6.391338e-03 7.207736e-03 8.196767e-03 9.373833e-03 1.075937e-02 1.238043e-02 1.427222e-02 1.647864e-02 1.905615e-02 2.207094e-02 2.559661e-02 2.970703e-02 3.448380e-02 3.999522e-02 4.631098e-02 5.346337e-02 6.147690e-02 7.031105e-02 7.991336e-02 9.015345e-02 1.008833e-01 1.118795e-01 1.228420e-01 1.333659e-01 1.428242e-01 1.505286e-01 1.556830e-01 1.576911e-01 1.562571e-01 1.515890e-01 1.442431e-01 1.349525e-01 1.244532e-01 1.133577e-01 1.021525e-01 9.118350e-02 8.073429e-02 7.096753e-02 6.201189e-02 5.391555e-02 4.670163e-02 4.034513e-02 3.480065e-02 3.000113e-02 2.587002e-02 2.232827e-02 1.929715e-02 1.670489e-02 1.448233e-02 1.257432e-02 1.093559e-02 9.531868e-03 8.335644e-03 7.327097e-03 6.490764e-03 5.816084e-03 5.295085e-03 4.922855e-03 4.696130e-03 
5.681950e-03 5.755770e-03 6.001528e-03 6.420079e-03 7.014881e-03 7.791248e-03 8.757954e-03 9.926897e-03 1.131515e-02 1.294536e-02 1.484757e-02 1.706078e-02 1.963321e-02 2.262635e-02 2.611279e-02 3.017426e-02 3.489058e-02 4.034995e-02 4.662446e-02 5.378871e-02 6.187363e-02 7.090406e-02 8.082770e-02 9.158840e-02 1.030405e-01 1.150454e-01 1.273876e-01 1.397886e-01 1.518383e-01 1.628065e-01 1.718565e-01 1.779878e-01 1.804073e-01 1.787051e-01 1.731736e-01 1.645561e-01 1.537717e-01 1.417204e-01 1.291123e-01 1.164717e-01 1.041526e-01 9.244932e-02 8.151117e-02 7.146817e-02 6.236557e-02 5.422837e-02 4.703219e-02 4.072937e-02 3.525070e-02 3.051426e-02 2.643641e-02 2.293157e-02 1.992104e-02 1.732860e-02 1.509493e-02 1.317016e-02 1.151666e-02 1.010384e-02 8.909882e-03 7.917666e-03 7.115744e-03 6.495420e-03 6.051554e-03 5.780688e-03 
6.959530e-03 7.046368e-03 7.337398e-03 7.833272e-03 8.537735e-03 9.456457e-03 1.059930e-02 1.197952e-02 1.361659e-02 1.553601e-02 1.777191e-02 2.036777e-02 2.337701e-02 2.686617e-02 3.091210e-02 3.560528e-02 4.102922e-02 4.727710e-02 5.442047e-02 6.253752e-02 7.164964e-02 8.177983e-02 9.284670e-02 1.047816e-01 1.174009e-01 1.305627e-01 1.440608e-01 1.576806e-01 1.710889e-01 1.834715e-01 1.938608e-01 2.010138e-01 2.038837e-01 2.018842e-01 1.954431e-01 1.855460e-01 1.733398e-01 1.598866e-01 1.459636e-01 1.320619e-01 1.185110e-01 1.056165e-01 9.351530e-02 8.235321e-02 7.217895e-02 6.303436e-02 5.490129e-02 4.773752e-02 4.147569e-02 3.603241e-02 3.132227e-02 2.725475e-02 2.374418e-02 2.070943e-02 1.808722e-02 1.582218e-02 1.387271e-02 1.220404e-02 1.079175e-02 9.616323e-03 8.665076e-03 7.928252e-03 7.400382e-03 7.077707e-03 
8.469563e-03 8.571349e-03 8.914702e-03 9.500001e-03 1.033134e-02 1.141488e-02 1.276192e-02 1.438761e-02 1.631469e-02 1.857266e-02 2.120094e-02 2.424892e-02 2.777612e-02 3.185470e-02 3.656415e-02 4.200156e-02 4.825320e-02 5.541448e-02 6.355549e-02 7.275389e-02 8.302230e-02 9.437293e-02 1.066872e-01 1.198659e-01 1.336600e-01 1.479185e-01 1.624271e-01 1.770460e-01 1.915320e-01 2.049945e-01 2.163925e-01 2.243258e-01 2.275475e-01 2.253185e-01 2.181819e-01 2.073220e-01 1.940217e-01 1.794544e-01 1.644303e-01 1.494002e-01 1.346877e-01 1.206267e-01 1.073297e-01 9.496911e-02 8.361864e-02 7.334429e-02 6.414799e-02 5.599361e-02 4.882188e-02 4.254905e-02 3.709142e-02 3.235403e-02 2.824684e-02 2.468562e-02 2.160258e-02 1.893599e-02 1.663882e-02 1.467093e-02 1.300409e-02 1.161556e-02 1.049082e-02 9.618725e-03 8.993300e-03 8.610414e-03 
1.023642e-02 1.035530e-02 1.075885e-02 1.144704e-02 1.242437e-02 1.369752e-02 1.527977e-02 1.718874e-02 1.945183e-02 2.210383e-02 2.519178e-02 2.877251e-02 3.291406e-02 3.769477e-02 4.319803e-02 4.952052e-02 5.675363e-02 6.499399e-02 7.430901e-02 8.478147e-02 9.641009e-02 1.092048e-01 1.229768e-01 1.375872e-01 1.526614e-01 1.679653e-01 1.832008e-01 1.983744e-01 2.135481e-01 2.277550e-01 2.399089e-01 2.484909e-01 2.520359e-01 2.495950e-01 2.418754e-01 2.302694e-01 2.161929e-01 2.009141e-01 1.852240e-01 1.693459e-01 1.535513e-01 1.382685e-01 1.236256e-01 1.098777e-01 9.713904e-02 8.553041e-02 7.507582e-02 6.574818e-02 5.749581e-02 5.023390e-02 4.388306e-02 3.834020e-02 3.351915e-02 2.933081e-02 2.570250e-02 2.256362e-02 1.986017e-02 1.754426e-02 1.558254e-02 1.394762e-02 1.262254e-02 1.159421e-02 1.085607e-02 1.040355e-02 
1.228419e-02 1.242270e-02 1.289549e-02 1.370192e-02 1.484687e-02 1.633756e-02 1.818975e-02 2.042446e-02 2.307537e-02 2.618488e-02 2.981033e-02 3.401937e-02 3.889101e-02 4.451273e-02 5.097261e-02 5.836707e-02 6.678309e-02 7.632423e-02 8.705823e-02 9.907343e-02 1.123680e-01 1.269315e-01 1.424985e-01 1.588435e-01 1.754074e-01 1.919210e-01 2.079815e-01 2.236057e-01 2.390982e-01 2.533768e-01 2.654207e-01 2.738669e-01 2.773581e-01 2.749757e-01 2.673942e-01 2.559185e-01 2.417774e-01 2.262350e-01 2.100106e-01 1.931820e-01 1.761765e-01 1.595287e-01 1.432862e-01 1.278218e-01 1.133664e-01 1.001047e-01 8.810775e-02 7.734655e-02 6.777889e-02 5.931508e-02 5.187377e-02 4.535367e-02 3.967201e-02 3.473390e-02 3.045881e-02 2.676471e-02 2.358710e-02 2.086765e-02 1.856535e-02 1.664656e-02 1.509080e-02 1.388253e-02 1.301451e-02 1.248167e-02 
1.463609e-02 1.479728e-02 1.534996e-02 1.629259e-02 1.763027e-02 1.937068e-02 2.153274e-02 2.414189e-02 2.724068e-02 3.088184e-02 3.513792e-02 4.009090e-02 4.583656e-02 5.247330e-02 6.009870e-02 6.880871e-02 7.868698e-02 8.983233e-02 1.023287e-01 1.162834e-01 1.316914e-01 1.485378e-01 1.663890e-01 1.849888e-01 2.035278e-01 2.214143e-01 2.378835e-01 2.531098e-01 2.683714e-01 2.825135e-01 2.943477e-01 3.026056e-01 3.060072e-01 3.036958e-01 2.963024e-01 2.849791e-01 2.709657e-01 2.557691e-01 2.398662e-01 2.225695e-01 2.043102e-01 1.858925e-01 1.675210e-01 1.498309e-01 1.331378e-01 1.177527e-01 1.037993e-01 9.123797e-02 8.003492e-02 7.007394e-02 6.128679e-02 5.357027e-02 4.684464e-02 4.100442e-02 3.595935e-02 3.161040e-02 2.787881e-02 2.469100e-02 2.199534e-02 1.974935e-02 1.792785e-02 1.651212e-02 1.549418e-02 1.486858e-02 
1.731131e-02 1.749903e-02 1.814454e-02 1.924487e-02 2.080509e-02 2.283308e-02 2.535166e-02 2.839217e-02 3.200919e-02 3.627026e-02 4.126867e-02 4.710756e-02 5.390438e-02 6.177456e-02 7.082506e-02 8.115653e-02 9.284916e-02 1.060027e-01 1.207048e-01 1.370981e-01 1.551842e-01 1.748476e-01 1.954916e-01 2.165722e-01 2.369619e-01 2.564395e-01 2.748912e-01 2.910296e-01 3.056987e-01 3.183743e-01 3.285148e-01 3.353554e-01 3.381045e-01 3.362502e-01 3.300994e-01 3.204432e-01 3.080266e-01 2.937183e-01 2.769895e-01 2.577771e-01 2.380611e-01 2.180168e-01 1.972958e-01 1.768273e-01 1.573189e-01 1.392180e-01 1.227774e-01 1.079406e-01 9.467178e-02 8.284334e-02 7.239030e-02 6.320458e-02 5.520421e-02 4.827322e-02 4.230580e-02 3.718140e-02 3.279999e-02 2.906731e-02 2.591629e-02 2.329246e-02 2.116411e-02 1.950858e-02 1.831715e-02 1.758416e-02 
2.032381e-02 2.054295e-02 2.129711e-02 2.258131e-02 2.439998e-02 2.676081e-02 2.969137e-02 3.323069e-02 3.744992e-02 4.243657e-02 4.831342e-02 5.521096e-02 6.327748e-02 7.264567e-02 8.343769e-02 9.575088e-02 1.096755e-01 1.253065e-01 1.427719e-01 1.622178e-01 1.836416e-01 2.067355e-01 2.304067e-01 2.544763e-01 2.781462e-01 2.988026e-01 3.161720e-01 3.295638e-01 3.400096e-01 3.478277e-01 3.533397e-01 3.566339e-01 3.578579e-01 3.570046e-01 3.539861e-01 3.487619e-01 3.412294e-01 3.313451e-01 3.178753e-01 3.005672e-01 2.803170e-01 2.571124e-01 2.330902e-01 2.095505e-01 1.866570e-01 1.651700e-01 1.456153e-01 1.279097e-01 1.120801e-01 9.795643e-02 8.547008e-02 7.449214e-02 6.494276e-02 5.669159e-02 4.961753e-02 4.357090e-02 3.842449e-02 3.405518e-02 3.037495e-02 2.731290e-02 2.482858e-02 2.289448e-02 2.150119e-02 2.064330e-02 
2.367786e-02 2.393475e-02 2.481728e-02 2.631741e-02 2.843820e-02 3.118633e-02 3.459510e-02 3.871336e-02 4.363429e-02 4.947246e-02 5.638943e-02 6.455195e-02 7.414364e-02 8.531876e-02 9.820560e-02 1.129082e-01 1.295185e-01 1.481670e-01 1.690144e-01 1.922037e-01 2.175745e-01 2.445339e-01 2.720009e-01 2.972347e-01 3.172606e-01 3.302807e-01 3.379642e-01 3.416195e-01 3.429993e-01 3.434550e-01 3.434033e-01 3.431799e-01 3.430096e-01 3.430168e-01 3.430758e-01 3.430102e-01 3.426145e-01 3.414370e-01 3.380667e-01 3.311886e-01 3.192829e-01 3.004073e-01 2.757136e-01 2.485871e-01 2.216245e-01 1.961585e-01 1.727806e-01 1.515562e-01 1.326060e-01 1.157268e-01 1.008004e-01 8.767358e-02 7.625800e-02 6.641931e-02 5.801845e-02 5.087485e-02 4.482561e-02 3.971070e-02 3.541359e-02 3.184166e-02 2.894293e-02 2.668393e-02 2.505488e-02 2.405120e-02 
2.736705e-02 2.766975e-02 2.870480e-02 3.046008e-02 3.293578e-02 3.613655e-02 4.010210e-02 4.489367e-02 5.063298e-02 5.746922e-02 6.561424e-02 7.527621e-02 8.667984e-02 9.999006e-02 1.153410e-01 1.328304e-01 1.525922e-01 1.747843e-01 1.996795e-01 2.271805e-01 2.570538e-01 2.870129e-01 3.116326e-01 3.261148e-01 3.312097e-01 3.293542e-01 3.242736e-01 3.193120e-01 3.161312e-01 3.150022e-01 3.147267e-01 3.146419e-01 3.145138e-01 3.143885e-01 3.142252e-01 3.141804e-01 3.151283e-01 3.178478e-01 3.227998e-01 3.283533e-01 3.310553e-01 3.273491e-01 3.145113e-01 2.915970e-01 2.621436e-01 2.322741e-01 2.044587e-01 1.790212e-01 1.563925e-01 1.363104e-01 1.185654e-01 1.029370e-01 8.933030e-02 7.761115e-02 6.763610e-02 5.919264e-02 5.207948e-02 4.609030e-02 4.107249e-02 3.690547e-02 3.352241e-02 3.088293e-02 2.897725e-02 2.780274e-02 
3.136994e-02 3.172862e-02 3.294595e-02 3.500385e-02 3.789791e-02 4.162872e-02 4.624312e-02 5.181673e-02 5.850727e-02 6.650570e-02 7.608480e-02 8.749628e-02 1.010013e-01 1.167647e-01 1.349055e-01 1.555572e-01 1.789141e-01 2.052944e-01 2.348783e-01 2.670663e-01 2.982736e-01 3.202775e-01 3.276767e-01 3.233207e-01 3.122859e-01 3.009788e-01 2.938113e-01 2.902657e-01 2.879788e-01 2.870892e-01 2.868481e-01 2.866909e-01 2.865295e-01 2.863742e-01 2.862567e-01 2.862428e-01 2.870632e-01 2.890244e-01 2.928853e-01 3.000774e-01 3.106584e-01 3.218995e-01 3.276458e-01 3.225324e-01 3.029983e-01 2.729573e-01 2.406206e-01 2.103751e-01 1.834751e-01 1.597520e-01 1.388284e-01 1.203846e-01 1.042728e-01 9.037970e-02 7.856690e-02 6.860165e-02 6.024395e-02 5.323454e-02 4.737718e-02 4.251658e-02 3.856786e-02 3.548269e-02 3.325237e-02 3.187756e-02 
3.565092e-02 3.607809e-02 3.751316e-02 3.993019e-02 4.331696e-02 4.766770e-02 5.303568e-02 5.951305e-02 6.729976e-02 7.663496e-02 8.786037e-02 1.012654e-01 1.171387e-01 1.356165e-01 1.568025e-01 1.808967e-01 2.082517e-01 2.392835e-01 2.733460e-01 3.056439e-01 3.250317e-01 3.257905e-01 3.136083e-01 2.970764e-01 2.828244e-01 2.718638e-01 2.647384e-01 2.612956e-01 2.596777e-01 2.593668e-01 2.595462e-01 2.597187e-01 2.596832e-01 2.594344e-01 2.590460e-01 2.586800e-01 2.590005e-01 2.605224e-01 2.642798e-01 2.713607e-01 2.815991e-01 2.950734e-01 3.111787e-01 3.245504e-01 3.264769e-01 3.102941e-01 2.794665e-01 2.450659e-01 2.135308e-01 1.858096e-01 1.614526e-01 1.399698e-01 1.211152e-01 1.047856e-01 9.088064e-02 7.916284e-02 6.936584e-02 6.117474e-02 5.434372e-02 4.867736e-02 4.406899e-02 4.046247e-02 3.785119e-02 3.624169e-02 
4.015775e-02 4.066851e-02 4.236343e-02 4.520541e-02 4.917065e-02 5.424296e-02 6.048093e-02 6.799287e-02 7.702716e-02 8.787111e-02 1.009422e-01 1.165458e-01 1.349857e-01 1.563282e-01 1.806529e-01 2.083319e-01 2.399155e-01 2.753430e-01 3.091276e-01 3.279146e-01 3.241199e-01 3.066096e-01 2.868142e-01 2.690569e-01 2.545879e-01 2.440003e-01 2.374045e-01 2.342057e-01 2.328122e-01 2.326146e-01 2.328399e-01 2.330725e-01 2.330858e-01 2.328424e-01 2.324497e-01 2.321050e-01 2.323631e-01 2.337710e-01 2.372000e-01 2.437015e-01 2.536251e-01 2.672873e-01 2.842704e-01 3.035612e-01 3.218935e-01 3.288081e-01 3.138458e-01 2.816459e-01 2.461970e-01 2.141070e-01 1.860682e-01 1.614438e-01 1.397096e-01 1.207603e-01 1.045530e-01 9.087031e-02 7.944384e-02 6.990549e-02 6.195971e-02 5.536621e-02 4.999509e-02 4.578274e-02 4.272730e-02 4.084409e-02 
4.482477e-02 4.543692e-02 4.743982e-02 5.078121e-02 5.541972e-02 6.132445e-02 6.855512e-02 7.723569e-02 8.766279e-02 1.001702e-01 1.152467e-01 1.331893e-01 1.543040e-01 1.785515e-01 2.060353e-01 2.374521e-01 2.731941e-01 3.089688e-01 3.300410e-01 3.247545e-01 3.040260e-01 2.810401e-01 2.603657e-01 2.427821e-01 2.288220e-01 2.186280e-01 2.120513e-01 2.085907e-01 2.070761e-01 2.068125e-01 2.070408e-01 2.073338e-01 2.073997e-01 2.071846e-01 2.068008e-01 2.065089e-01 2.068380e-01 2.083812e-01 2.119390e-01 2.183365e-01 2.279845e-01 2.412087e-01 2.579826e-01 2.778650e-01 3.003359e-01 3.219304e-01 3.310206e-01 3.143057e-01 2.800458e-01 2.439917e-01 2.121622e-01 1.844156e-01 1.598207e-01 1.381623e-01 1.195074e-01 1.036815e-01 9.044778e-02 7.940020e-02 7.019405e-02 6.254629e-02 5.630114e-02 5.139125e-02 4.782159e-02 4.562143e-02 
4.957177e-02 5.030655e-02 5.267185e-02 5.659415e-02 6.200751e-02 6.886063e-02 7.720886e-02 8.718762e-02 9.913885e-02 1.134284e-01 1.306162e-01 1.509367e-01 1.747392e-01 2.017905e-01 2.322873e-01 2.673476e-01 3.047000e-01 3.310576e-01 3.287637e-01 3.062728e-01 2.806999e-01 2.570854e-01 2.366162e-01 2.193985e-01 2.057462e-01 1.957171e-01 1.890524e-01 1.852370e-01 1.833455e-01 1.827374e-01 1.827149e-01 1.828751e-01 1.829203e-01 1.827881e-01 1.825819e-01 1.825712e-01 1.832244e-01 1.851119e-01 1.889144e-01 1.953471e-01 2.048827e-01 2.178625e-01 2.343295e-01 2.540243e-01 2.768913e-01 3.020478e-01 3.257216e-01 3.329974e-01 3.110033e-01 2.744297e-01 2.388492e-01 2.082325e-01 1.809497e-01 1.566290e-01 1.355013e-01 1.174309e-01 1.022621e-01 8.956987e-02 7.897144e-02 7.014753e-02 6.291761e-02 5.721537e-02 5.305739e-02 5.049296e-02 
5.430857e-02 5.519087e-02 5.797404e-02 6.255796e-02 6.884388e-02 7.675508e-02 8.633143e-02 9.771728e-02 1.112810e-01 1.274156e-01 1.467106e-01 1.693242e-01 1.956246e-01 2.251402e-01 2.584047e-01 2.963564e-01 3.288076e-01 3.349727e-01 3.134048e-01 2.858763e-01 2.599161e-01 2.365895e-01 2.163810e-01 1.994766e-01 1.859823e-01 1.758539e-01 1.687946e-01 1.643758e-01 1.618795e-01 1.607342e-01 1.603221e-01 1.602570e-01 1.602426e-01 1.602142e-01 1.602597e-01 1.606466e-01 1.617990e-01 1.642388e-01 1.685542e-01 1.753286e-01 1.849920e-01 1.978618e-01 2.140565e-01 2.335208e-01 2.561163e-01 2.814491e-01 3.087612e-01 3.326953e-01 3.326295e-01 3.032671e-01 2.656967e-01 2.322505e-01 2.025805e-01 1.757302e-01 1.521735e-01 1.318412e-01 1.146628e-01 1.002387e-01 8.814598e-02 7.804554e-02 6.973308e-02 6.315257e-02 5.833776e-02 5.536600e-02 
5.893627e-02 5.998929e-02 6.324041e-02 6.855823e-02 7.580215e-02 8.486300e-02 9.575144e-02 1.086129e-01 1.238170e-01 1.417694e-01 1.630564e-01 1.877233e-01 2.162912e-01 2.476547e-01 2.840318e-01 3.211566e-01 3.400240e-01 3.247935e-01 2.960443e-01 2.681381e-01 2.426480e-01 2.198235e-01 2.000032e-01 1.832692e-01 1.696860e-01 1.591980e-01 1.515433e-01 1.463669e-01 1.431013e-01 1.412621e-01 1.403171e-01 1.399194e-01 1.397975e-01 1.398924e-01 1.402723e-01 1.411809e-01 1.429841e-01 1.461421e-01 1.511476e-01 1.584820e-01 1.685178e-01 1.815138e-01 1.976004e-01 2.167332e-01 2.389151e-01 2.638177e-01 2.913542e-01 3.202649e-01 3.400565e-01 3.269383e-01 2.918071e-01 2.551438e-01 2.237234e-01 1.946379e-01 1.688933e-01 1.464302e-01 1.272935e-01 1.111373e-01 9.751049e-02 8.607349e-02 7.660875e-02 6.908214e-02 6.355419e-02 6.013886e-02 
6.335299e-02 6.459653e-02 6.835562e-02 7.446306e-02 8.272738e-02 9.300006e-02 1.052460e-01 1.196038e-01 1.364076e-01 1.560755e-01 1.791072e-01 2.055214e-01 2.358297e-01 2.687242e-01 3.074074e-01 3.386704e-01 3.390808e-01 3.110831e-01 2.819459e-01 2.544219e-01 2.296608e-01 2.072973e-01 1.876982e-01 1.708948e-01 1.569564e-01 1.458583e-01 1.374006e-01 1.313168e-01 1.271619e-01 1.245328e-01 1.229810e-01 1.221987e-01 1.219457e-01 1.221698e-01 1.229226e-01 1.244181e-01 1.269709e-01 1.309761e-01 1.368428e-01 1.449583e-01 1.556119e-01 1.689967e-01 1.851891e-01 2.041560e-01 2.258936e-01 2.501469e-01 2.771722e-01 3.061036e-01 3.357179e-01 3.418757e-01 3.146184e-01 2.766884e-01 2.436056e-01 2.127917e-01 1.850447e-01 1.607115e-01 1.397526e-01 1.219539e-01 1.068167e-01 9.403288e-02 8.338216e-02 7.486847e-02 6.858969e-02 6.470583e-02 
6.745705e-02 6.890430e-02 7.319517e-02 8.012271e-02 8.943763e-02 1.009457e-01 1.145510e-01 1.303797e-01 1.486900e-01 1.699397e-01 1.943964e-01 2.223081e-01 2.535105e-01 2.882220e-01 3.264061e-01 3.474191e-01 3.319151e-01 3.004893e-01 2.719456e-01 2.452739e-01 2.210214e-01 1.989741e-01 1.793222e-01 1.621805e-01 1.476299e-01 1.357202e-01 1.263188e-01 1.192393e-01 1.141329e-01 1.106693e-01 1.084729e-01 1.072785e-01 1.068800e-01 1.072345e-01 1.083792e-01 1.104958e-01 1.138507e-01 1.187787e-01 1.256162e-01 1.346703e-01 1.461537e-01 1.601829e-01 1.767574e-01 1.958092e-01 2.172463e-01 2.409849e-01 2.670713e-01 2.954893e-01 3.266224e-01 3.476920e-01 3.329445e-01 2.970953e-01 2.616306e-01 2.295811e-01 2.000450e-01 1.741912e-01 1.516333e-01 1.323533e-01 1.157933e-01 1.017019e-01 8.987444e-02 8.036552e-02 7.332320e-02 6.896064e-02 
7.114909e-02 7.280486e-02 7.762864e-02 8.537165e-02 9.572372e-02 1.084392e-01 1.233551e-01 1.405744e-01 1.602713e-01 1.829428e-01 2.086118e-01 2.378180e-01 2.695297e-01 3.059655e-01 3.410340e-01 3.498166e-01 3.248918e-01 2.947198e-01 2.664970e-01 2.406269e-01 2.165678e-01 1.945143e-01 1.744877e-01 1.567351e-01 1.413618e-01 1.284960e-01 1.180676e-01 1.099580e-01 1.038932e-01 9.960209e-02 9.677096e-02 9.517089e-02 9.462856e-02 9.510903e-02 9.663936e-02 9.937214e-02 1.035340e-01 1.094082e-01 1.172727e-01 1.273703e-01 1.398449e-01 1.547457e-01 1.719865e-01 1.914440e-01 2.129034e-01 2.363547e-01 2.615772e-01 2.892953e-01 3.186706e-01 3.474896e-01 3.461071e-01 3.144105e-01 2.769234e-01 2.440479e-01 2.133003e-01 1.863233e-01 1.625047e-01 1.419602e-01 1.241332e-01 1.088273e-01 9.588370e-02 8.541359e-02 7.762804e-02 7.279728e-02 
7.433580e-02 7.619170e-02 8.152032e-02 9.003076e-02 1.013542e-01 1.151890e-01 1.313104e-01 1.497807e-01 1.707199e-01 1.946128e-01 2.213903e-01 2.516336e-01 2.839984e-01 3.211119e-01 3.512926e-01 3.489716e-01 3.200085e-01 2.919664e-01 2.645707e-01 2.393193e-01 2.153123e-01 1.930138e-01 1.724136e-01 1.538902e-01 1.375943e-01 1.237299e-01 1.122793e-01 1.031780e-01 9.620868e-02 9.114665e-02 8.772721e-02 8.575256e-02 8.507737e-02 8.567377e-02 8.756206e-02 9.087048e-02 9.579425e-02 1.025755e-01 1.114480e-01 1.226047e-01 1.361389e-01 1.520408e-01 1.701521e-01 1.902760e-01 2.120802e-01 2.355118e-01 2.601767e-01 2.868940e-01 3.143949e-01 3.450652e-01 3.542165e-01 3.280578e-01 2.899242e-01 2.562514e-01 2.247916e-01 1.968940e-01 1.721004e-01 1.504780e-01 1.315605e-01 1.151668e-01 1.012122e-01 8.985671e-02 8.138315e-02 7.611662e-02 
7.693019e-02 7.896514e-02 8.473835e-02 9.392008e-02 1.060901e-01 1.208901e-01 1.380459e-01 1.575607e-01 1.795415e-01 2.043840e-01 2.321002e-01 2.629842e-01 2.961085e-01 3.330106e-01 3.579905e-01 3.476173e-01 3.178931e-01 2.912056e-01 2.648940e-01 2.400991e-01 2.160691e-01 1.934055e-01 1.721643e-01 1.528453e-01 1.356519e-01 1.208564e-01 1.084806e-01 9.850268e-02 9.074527e-02 8.501854e-02 8.109489e-02 7.880073e-02 7.801334e-02 7.871005e-02 8.090760e-02 8.471549e-02 9.030590e-02 9.789039e-02 1.076714e-01 1.198070e-01 1.343550e-01 1.512613e-01 1.703140e-01 1.912350e-01 2.136154e-01 2.372497e-01 2.617210e-01 2.874769e-01 3.138397e-01 3.432289e-01 3.588416e-01 3.385042e-01 3.008792e-01 2.662626e-01 2.343527e-01 2.056388e-01 1.800956e-01 1.575780e-01 1.377709e-01 1.204597e-01 1.056493e-01 9.353323e-02 8.446707e-02 7.882366e-02 
7.885616e-02 8.103260e-02 8.715557e-02 9.686294e-02 1.096945e-01 1.252417e-01 1.431972e-01 1.634988e-01 1.862722e-01 2.117841e-01 2.402225e-01 2.714589e-01 3.053359e-01 3.415946e-01 3.618409e-01 3.464069e-01 3.178013e-01 2.918273e-01 2.663815e-01 2.417969e-01 2.176799e-01 1.946261e-01 1.728076e-01 1.528017e-01 1.348625e-01 1.193104e-01 1.061967e-01 9.552909e-02 8.715726e-02 8.091597e-02 7.660355e-02 7.406406e-02 7.319113e-02 7.396585e-02 7.640312e-02 8.059940e-02 8.671107e-02 9.492844e-02 1.054333e-01 1.183601e-01 1.337443e-01 1.514972e-01 1.713738e-01 1.930170e-01 2.159735e-01 2.398368e-01 2.642583e-01 2.891695e-01 3.148136e-01 3.421275e-01 3.613234e-01 3.460937e-01 3.096617e-01 2.740882e-01 2.417693e-01 2.123230e-01 1.861966e-01 1.629750e-01 1.424934e-01 1.244752e-01 1.090070e-01 9.630071e-02 8.677420e-02 8.083684e-02 
8.004856e-02 8.231773e-02 8.866686e-02 9.871259e-02 1.119694e-01 1.279939e-01 1.464603e-01 1.672578e-01 1.905388e-01 2.164659e-01 2.453940e-01 2.768545e-01 3.113300e-01 3.467719e-01 3.636216e-01 3.455755e-01 3.182296e-01 2.925953e-01 2.677415e-01 2.432444e-01 2.190678e-01 1.957339e-01 1.735283e-01 1.530655e-01 1.346380e-01 1.185960e-01 1.050078e-01 9.389981e-02 8.513718e-02 7.856975e-02 7.401143e-02 7.131717e-02 7.039079e-02 7.121556e-02 7.380584e-02 7.825025e-02 8.469581e-02 9.332030e-02 1.042936e-01 1.177366e-01 1.336724e-01 1.519894e-01 1.724280e-01 1.945665e-01 2.179410e-01 2.419642e-01 2.663909e-01 2.907148e-01 3.159044e-01 3.417176e-01 3.626421e-01 3.508133e-01 3.155275e-01 2.792630e-01 2.465875e-01 2.165941e-01 1.900682e-01 1.663798e-01 1.454682e-01 1.269981e-01 1.111122e-01 9.802912e-02 8.820903e-02 8.208401e-02 
8.045739e-02 8.275827e-02 8.918584e-02 9.934893e-02 1.127532e-01 1.289424e-01 1.475849e-01 1.685515e-01 1.920064e-01 2.180724e-01 2.471711e-01 2.787092e-01 3.134288e-01 3.485167e-01 3.642445e-01 3.454424e-01 3.185547e-01 2.930044e-01 2.683370e-01 2.438476e-01 2.196348e-01 1.961900e-01 1.738414e-01 1.532136e-01 1.346132e-01 1.183993e-01 1.046457e-01 9.338449e-02 8.448617e-02 7.780548e-02 7.316181e-02 7.041381e-02 6.946886e-02 7.031100e-02 7.295429e-02 7.748468e-02 8.404594e-02 9.281147e-02 1.039471e-01 1.175690e-01 1.336965e-01 1.522111e-01 1.728480e-01 1.951645e-01 2.186948e-01 2.427875e-01 2.672490e-01 2.914021e-01 3.164980e-01 3.418241e-01 3.632016e-01 3.524434e-01 3.175531e-01 2.810507e-01 2.482446e-01 2.180655e-01 1.914012e-01 1.675533e-01 1.464942e-01 1.278687e-01 1.118386e-01 9.862499e-02 8.870278e-02 8.251226e-02 
8.004856e-02 8.231773e-02 8.866686e-02 9.871259e-02 1.119694e-01 1.279939e-01 1.464603e-01 1.672578e-01 1.905388e-01 2.164659e-01 2.453940e-01 2.768545e-01 3.113300e-01 3.467719e-01 3.636216e-01 3.455755e-01 3.182296e-01 2.925953e-01 2.677415e-01 2.432444e-01 2.190678e-01 1.957339e-01 1.735283e-01 1.530655e-01 1.346380e-01 1.185960e-01 1.050078e-01 9.389981e-02 8.513718e-02 7.856975e-02 7.401143e-02 7.131717e-02 7.039079e-02 7.121556e-02 7.380584e-02 7.825025e-02 8.469581e-02 9.332030e-02 1.042936e-01 1.177366e-01 1.336724e-01 1.519894e-01 1.724280e-01 1.945665e-01 2.179410e-01 2.419642e-01 2.663909e-01 2.907148e-01 3.159044e-01 3.417176e-01 3.626421e-01 3.508133e-01 3.155275e-01 2.792630e-01 2.465875e-01 2.165941e-01 1.900682e-01 1.663798e-01 1.454682e-01 1.269981e-01 1.111122e-01 9.802912e-02 8.820903e-02 8.208401e-02 
7.885616e-02 8.103260e-02 8.715557e-02 9.686294e-02 1.096945e-01 1.252417e-01 1.431972e-01 1.634988e-01 1.862722e-01 2.117841e-01 2.402225e-01 2.714589e-01 3.053359e-01 3.415946e-01 3.618409e-01 3.464069e-01 3.178013e-01 2.918273e-01 2.663815e-01 2.417969e-01 2.176799e-01 1.946261e-01 1.728076e-01 1.528017e-01 1.348625e-01 1.193104e-01 1.061967e-01 9.552909e-02 8.715726e-02 8.091597e-02 7.660355e-02 7.406406e-02 7.319113e-02 7.396585e-02 7.640312e-02 8.059940e-02 8.671107e-02 9.492844e-02 1.054333e-01 1.183601e-01 1.337443e-01 1.514972e-01 1.713738e-01 1.930170e-01 2.159735e-01 2.398368e-01 2.642583e-01 2.891695e-01 3.148136e-01 3.421275e-01 3.613234e-01 3.460937e-01 3.096617e-01 2.740882e-01 2.417693e-01 2.123230e-01 1.861966e-01 1.629750e-01 1.424934e-01 1.244752e-01 1.090070e-01 9.630071e-02 8.677420e-02 8.083684e-02 