# vtk DataFile Version 2.0
Comment goes here
ASCII

DATASET STRUCTURED_POINTS
FIELD FieldData 1
TIME 1 1 double
1.64000000
DIMENSIONS    64   64   1

ORIGIN    0.000   0.000   0.000
SPACING   0.015625 0.015625   1.000

POINT_DATA   4096
SCALARS Concentration double
LOOKUP_TABLE default

1.126324e-02 1.134667e-02 1.165457e-02 1.219895e-02 1.299993e-02 1.408635e-02 1.549486e-02 1.727015e-02 1.946289e-02 2.212861e-02 2.532373e-02 2.910200e-02 3.350879e-02 3.857505e-02 4.431206e-02 5.070453e-02 5.771029e-02 6.525487e-02 7.323965e-02 8.153873e-02 9.001509e-02 9.851742e-02 1.068992e-01 1.150117e-01 1.227180e-01 1.298843e-01 1.363937e-01 1.421355e-01 1.470153e-01 1.509463e-01 1.538568e-01 1.556857e-01 1.563870e-01 1.559296e-01 1.543313e-01 1.516295e-01 1.478779e-01 1.431462e-01 1.375191e-01 1.310942e-01 1.239846e-01 1.163123e-01 1.082146e-01 9.983302e-02 9.131804e-02 8.281820e-02 7.448418e-02 6.645391e-02 5.885259e-02 5.178027e-02 4.531236e-02 3.949345e-02 3.434127e-02 2.984701e-02 2.598239e-02 2.270346e-02 1.995823e-02 1.769038e-02 1.584506e-02 1.437076e-02 1.322273e-02 1.236319e-02 1.176285e-02 1.140044e-02 
1.143241e-02 1.151547e-02 1.182301e-02 1.236709e-02 1.316789e-02 1.425434e-02 1.566325e-02 1.743954e-02 1.963422e-02 2.230330e-02 2.550387e-02 2.929054e-02 3.370984e-02 3.879399e-02 4.455587e-02 5.098176e-02 5.803122e-02 6.563114e-02 7.368430e-02 8.206544e-02 9.063811e-02 9.925064e-02 1.077564e-01 1.160062e-01 1.238602e-01 1.311806e-01 1.378453e-01 1.437381e-01 1.487576e-01 1.528102e-01 1.558162e-01 1.577083e-01 1.584349e-01 1.579629e-01 1.563111e-01 1.535217e-01 1.496545e-01 1.447866e-01 1.390105e-01 1.324309e-01 1.251670e-01 1.173461e-01 1.091095e-01 1.006023e-01 9.197529e-02 8.337720e-02 7.495888e-02 6.685782e-02 5.919848e-02 5.207978e-02 4.557570e-02 3.972933e-02 3.455682e-02 3.004789e-02 2.617294e-02 2.288693e-02 2.013694e-02 1.786594e-02 1.601855e-02 1.454289e-02 1.339394e-02 1.253373e-02 1.193287e-02 1.157002e-02 
1.194349e-02 1.202538e-02 1.233178e-02 1.287489e-02 1.367505e-02 1.476145e-02 1.617136e-02 1.795037e-02 2.015048e-02 2.282914e-02 2.604537e-02 2.985641e-02 3.431204e-02 3.944848e-02 4.528314e-02 5.180722e-02 5.898521e-02 6.674856e-02 7.500386e-02 8.362836e-02 9.248688e-02 1.014272e-01 1.103009e-01 1.189559e-01 1.272437e-01 1.350146e-01 1.421326e-01 1.484644e-01 1.538895e-01 1.582936e-01 1.615761e-01 1.636506e-01 1.644507e-01 1.639365e-01 1.621308e-01 1.590887e-01 1.548867e-01 1.496243e-01 1.434148e-01 1.363842e-01 1.286693e-01 1.204125e-01 1.117672e-01 1.028876e-01 9.392787e-02 8.503821e-02 7.636996e-02 6.805941e-02 6.022868e-02 5.297315e-02 4.636258e-02 4.043546e-02 3.520326e-02 3.065138e-02 2.674627e-02 2.343958e-02 2.067572e-02 1.839559e-02 1.654222e-02 1.506263e-02 1.391101e-02 1.304887e-02 1.244648e-02 1.208231e-02 
1.280766e-02 1.288760e-02 1.319218e-02 1.373374e-02 1.453292e-02 1.561931e-02 1.703089e-02 1.881431e-02 2.102320e-02 2.371727e-02 2.695874e-02 3.080904e-02 3.532336e-02 4.054433e-02 4.649696e-02 5.318034e-02 6.056734e-02 6.859659e-02 7.718124e-02 8.620216e-02 9.552637e-02 1.049997e-01 1.144705e-01 1.237788e-01 1.327633e-01 1.412555e-01 1.490975e-01 1.561303e-01 1.622040e-01 1.671719e-01 1.708994e-01 1.732687e-01 1.741884e-01 1.736071e-01 1.715539e-01 1.681054e-01 1.633664e-01 1.574725e-01 1.505708e-01 1.428198e-01 1.343841e-01 1.254286e-01 1.161260e-01 1.066440e-01 9.714422e-02 8.778003e-02 7.870449e-02 7.005219e-02 6.194169e-02 5.446279e-02 4.767833e-02 4.161940e-02 3.628979e-02 3.166780e-02 2.771343e-02 2.437298e-02 2.158641e-02 1.929125e-02 1.742798e-02 1.594179e-02 1.478560e-02 1.392010e-02 1.331504e-02 1.294857e-02 
1.404347e-02 1.412068e-02 1.442289e-02 1.496250e-02 1.576057e-02 1.684720e-02 1.826126e-02 2.005077e-02 2.227148e-02 2.498612e-02 2.826120e-02 3.216379e-02 3.675637e-02 4.209040e-02 4.820115e-02 5.509872e-02 6.276733e-02 7.115571e-02 8.018572e-02 8.974331e-02 9.969773e-02 1.098919e-01 1.201678e-01 1.303538e-01 1.402701e-01 1.497232e-01 1.585267e-01 1.664881e-01 1.734202e-01 1.791348e-01 1.834530e-01 1.862150e-01 1.872944e-01 1.866256e-01 1.842450e-01 1.802580e-01 1.748074e-01 1.680774e-01 1.602589e-01 1.515532e-01 1.421598e-01 1.322735e-01 1.220916e-01 1.118001e-01 1.015720e-01 9.156631e-02 8.193920e-02 7.282358e-02 6.433358e-02 5.655159e-02 4.953126e-02 4.329353e-02 3.783180e-02 3.311470e-02 2.909341e-02 2.570695e-02 2.288924e-02 2.057327e-02 1.869602e-02 1.720029e-02 1.603730e-02 1.516666e-02 1.455745e-02 1.418746e-02 
1.567637e-02 1.575010e-02 1.604965e-02 1.658749e-02 1.738495e-02 1.847274e-02 1.989074e-02 2.168853e-02 2.392438e-02 2.666466e-02 2.998106e-02 3.394752e-02 3.863559e-02 4.410761e-02 5.041181e-02 5.757202e-02 6.558695e-02 7.441781e-02 8.399752e-02 9.421744e-02 1.049492e-01 1.160299e-01 1.272923e-01 1.385470e-01 1.495909e-01 1.601997e-01 1.701549e-01 1.792281e-01 1.871921e-01 1.938120e-01 1.988545e-01 2.021027e-01 2.033822e-01 2.026083e-01 1.998253e-01 1.951789e-01 1.888634e-01 1.811258e-01 1.722094e-01 1.623625e-01 1.518232e-01 1.408171e-01 1.295713e-01 1.182931e-01 1.071720e-01 9.637580e-02 8.606661e-02 7.637662e-02 6.741539e-02 5.925679e-02 5.194316e-02 4.548308e-02 3.985684e-02 3.502113e-02 3.091607e-02 2.747162e-02 2.461422e-02 2.227118e-02 2.037525e-02 1.886628e-02 1.769346e-02 1.681520e-02 1.619978e-02 1.582465e-02 
1.773772e-02 1.780726e-02 1.810424e-02 1.864119e-02 1.943967e-02 2.053072e-02 2.195522e-02 2.376452e-02 2.601957e-02 2.879078e-02 3.215573e-02 3.619627e-02 4.099442e-02 4.662534e-02 5.315257e-02 6.061644e-02 6.903296e-02 7.837851e-02 8.859891e-02 9.959176e-02 1.112302e-01 1.233430e-01 1.357498e-01 1.482388e-01 1.605759e-01 1.725010e-01 1.837581e-01 1.940813e-01 2.032021e-01 2.108390e-01 2.167001e-01 2.205023e-01 2.220127e-01 2.211228e-01 2.178859e-01 2.124955e-01 2.052069e-01 1.963393e-01 1.861917e-01 1.750629e-01 1.632298e-01 1.509511e-01 1.384869e-01 1.260705e-01 1.139128e-01 1.021943e-01 9.108623e-02 8.072170e-02 7.120626e-02 6.260432e-02 5.494522e-02 4.822299e-02 4.240250e-02 3.742621e-02 3.322119e-02 2.970676e-02 2.680049e-02 2.442321e-02 2.250267e-02 2.097548e-02 1.978853e-02 1.889897e-02 1.827434e-02 1.789178e-02 
2.026376e-02 2.032854e-02 2.062370e-02 2.116176e-02 2.196444e-02 2.306305e-02 2.449927e-02 2.632562e-02 2.860592e-02 3.141510e-02 3.483692e-02 3.896201e-02 4.388406e-02 4.969272e-02 5.646919e-02 6.427296e-02 7.314064e-02 8.306628e-02 9.401117e-02 1.058788e-01 1.185433e-01 1.318200e-01 1.455107e-01 1.593713e-01 1.731288e-01 1.864782e-01 1.991259e-01 2.107766e-01 2.211347e-01 2.298810e-01 2.366598e-01 2.410983e-01 2.428799e-01 2.418617e-01 2.381078e-01 2.318814e-01 2.235220e-01 2.134404e-01 2.019890e-01 1.895052e-01 1.762935e-01 1.626373e-01 1.488354e-01 1.351515e-01 1.218277e-01 1.090629e-01 9.704378e-02 8.590774e-02 7.575717e-02 6.664697e-02 5.859139e-02 5.156804e-02 4.552361e-02 4.038435e-02 3.606214e-02 3.246418e-02 2.949798e-02 2.707707e-02 2.512368e-02 2.357102e-02 2.236349e-02 2.145711e-02 2.081877e-02 2.042552e-02 
2.329328e-02 2.335296e-02 2.364803e-02 2.419090e-02 2.500324e-02 2.611641e-02 2.757267e-02 2.942570e-02 3.174174e-02 3.459918e-02 3.808874e-02 4.231067e-02 4.737115e-02 5.337585e-02 6.042587e-02 6.860273e-02 7.796706e-02 8.853390e-02 1.002825e-01 1.131228e-01 1.269282e-01 1.414963e-01 1.566051e-01 1.719722e-01 1.872714e-01 2.021449e-01 2.162541e-01 2.292736e-01 2.408874e-01 2.507568e-01 2.584739e-01 2.635721e-01 2.656433e-01 2.644971e-01 2.602119e-01 2.531304e-01 2.436823e-01 2.323716e-01 2.195929e-01 2.057143e-01 1.910607e-01 1.759374e-01 1.606859e-01 1.456107e-01 1.309931e-01 1.170578e-01 1.040149e-01 9.200905e-02 8.114180e-02 7.145770e-02 6.295409e-02 5.558970e-02 4.929034e-02 4.396380e-02 3.950468e-02 3.580673e-02 3.276616e-02 3.028879e-02 2.829061e-02 2.670142e-02 2.546356e-02 2.453218e-02 2.387370e-02 2.346521e-02 
2.686570e-02 2.692031e-02 2.721850e-02 2.777240e-02 2.860336e-02 2.974234e-02 3.123177e-02 3.312623e-02 3.549412e-02 3.841751e-02 4.199306e-02 4.632949e-02 5.154744e-02 5.777039e-02 6.512169e-02 7.370831e-02 8.361953e-02 9.489570e-02 1.075382e-01 1.214637e-01 1.365436e-01 1.525492e-01 1.692274e-01 1.862386e-01 2.031842e-01 2.196291e-01 2.351830e-01 2.495186e-01 2.623474e-01 2.733588e-01 2.820968e-01 2.879487e-01 2.903650e-01 2.890759e-01 2.841812e-01 2.761546e-01 2.655693e-01 2.530590e-01 2.390260e-01 2.238168e-01 2.077343e-01 1.910866e-01 1.742800e-01 1.576747e-01 1.416131e-01 1.263593e-01 1.121566e-01 9.916476e-02 8.748451e-02 7.715033e-02 6.813869e-02 6.038681e-02 5.379561e-02 4.825198e-02 4.363058e-02 3.981063e-02 3.667507e-02 3.412160e-02 3.206072e-02 3.041902e-02 2.913682e-02 2.816867e-02 2.748089e-02 2.705097e-02 
3.101701e-02 3.106715e-02 3.137350e-02 3.194800e-02 3.281121e-02 3.399313e-02 3.553573e-02 3.749383e-02 3.993767e-02 4.295271e-02 4.664175e-02 5.112218e-02 5.652737e-02 6.299869e-02 7.068716e-02 7.972869e-02 9.024723e-02 1.023140e-01 1.159572e-01 1.311000e-01 1.476082e-01 1.652167e-01 1.836323e-01 2.024510e-01 2.211761e-01 2.392931e-01 2.563477e-01 2.719816e-01 2.859226e-01 2.979387e-01 3.075808e-01 3.141185e-01 3.168606e-01 3.154445e-01 3.099999e-01 3.011341e-01 2.895423e-01 2.759555e-01 2.607399e-01 2.442144e-01 2.266669e-01 2.084090e-01 1.899145e-01 1.716169e-01 1.539373e-01 1.371897e-01 1.216680e-01 1.075516e-01 9.494440e-02 8.386898e-02 7.427742e-02 6.608136e-02 5.915222e-02 5.335324e-02 4.853516e-02 4.456040e-02 4.129976e-02 3.864291e-02 3.649427e-02 3.477741e-02 3.343092e-02 3.240932e-02 3.167943e-02 3.121966e-02 
3.577546e-02 3.582270e-02 3.614578e-02 3.675492e-02 3.767029e-02 3.892017e-02 4.054523e-02 4.259983e-02 4.515524e-02 4.830001e-02 5.214273e-02 5.680999e-02 6.244882e-02 6.921960e-02 7.729849e-02 8.685777e-02 9.806642e-02 1.110346e-01 1.258248e-01 1.423664e-01 1.605142e-01 1.799503e-01 2.003350e-01 2.211625e-01 2.418161e-01 2.616284e-01 2.800454e-01 2.967530e-01 3.116104e-01 3.245922e-01 3.352677e-01 3.426535e-01 3.458243e-01 3.442458e-01 3.381009e-01 3.282348e-01 3.155969e-01 3.011138e-01 2.849893e-01 2.673722e-01 2.484372e-01 2.284756e-01 2.081216e-01 1.879085e-01 1.683732e-01 1.498996e-01 1.328453e-01 1.174235e-01 1.037397e-01 9.180527e-02 8.154040e-02 7.282634e-02 6.549840e-02 5.938874e-02 5.432388e-02 5.014962e-02 4.672278e-02 4.392454e-02 4.165306e-02 3.982926e-02 3.839064e-02 3.729249e-02 3.650298e-02 3.600108e-02 
4.115687e-02 4.120368e-02 4.155532e-02 4.221999e-02 4.321501e-02 4.456764e-02 4.631622e-02 4.851364e-02 5.123141e-02 5.456045e-02 5.861485e-02 6.353039e-02 6.946888e-02 7.661146e-02 8.516437e-02 9.533766e-02 1.073496e-01 1.213672e-01 1.374949e-01 1.556610e-01 1.756929e-01 1.971821e-01 2.197317e-01 2.427333e-01 2.654197e-01 2.870783e-01 3.071234e-01 3.251058e-01 3.407829e-01 3.543438e-01 3.655576e-01 3.733744e-01 3.767681e-01 3.750863e-01 3.685649e-01 3.582035e-01 3.450096e-01 3.298797e-01 3.127725e-01 2.938514e-01 2.733668e-01 2.515973e-01 2.292384e-01 2.069119e-01 1.852919e-01 1.648376e-01 1.460104e-01 1.290670e-01 1.141245e-01 1.011837e-01 9.012717e-02 8.079759e-02 7.298398e-02 6.648951e-02 6.111164e-02 5.667774e-02 5.302866e-02 5.003698e-02 4.759458e-02 4.562054e-02 4.405208e-02 4.284639e-02 4.197272e-02 4.141246e-02 
4.716212e-02 4.721206e-02 4.760800e-02 4.835559e-02 4.946833e-02 5.097014e-02 5.289747e-02 5.530073e-02 5.825042e-02 6.183939e-02 6.618634e-02 7.143676e-02 7.776741e-02 8.538312e-02 9.452415e-02 1.054466e-01 1.184282e-01 1.336945e-01 1.514128e-01 1.715089e-01 1.937504e-01 2.175998e-01 2.426030e-01 2.680115e-01 2.929976e-01 3.165227e-01 3.378142e-01 3.565861e-01 3.727887e-01 3.870095e-01 3.991524e-01 4.077814e-01 4.115512e-01 4.096616e-01 4.024514e-01 3.911533e-01 3.771611e-01 3.616677e-01 3.440965e-01 3.243006e-01 3.023723e-01 2.785329e-01 2.539031e-01 2.291954e-01 2.051956e-01 1.824576e-01 1.615558e-01 1.428270e-01 1.263960e-01 1.122635e-01 1.002601e-01 9.018355e-02 8.177375e-02 7.479844e-02 6.902081e-02 6.424723e-02 6.030110e-02 5.704639e-02 5.436917e-02 5.218754e-02 5.043960e-02 4.908523e-02 4.809553e-02 4.745630e-02 
5.377109e-02 5.382896e-02 5.428912e-02 5.515428e-02 5.643341e-02 5.814462e-02 6.032204e-02 6.301287e-02 6.628568e-02 7.023449e-02 7.498225e-02 8.068413e-02 8.753316e-02 9.576007e-02 1.056446e-01 1.174973e-01 1.316688e-01 1.484610e-01 1.681045e-01 1.905178e-01 2.153567e-01 2.418134e-01 2.693756e-01 2.970700e-01 3.239206e-01 3.493267e-01 3.731828e-01 3.945639e-01 4.120421e-01 4.259759e-01 4.368993e-01 4.442217e-01 4.472542e-01 4.456375e-01 4.395824e-01 4.296592e-01 4.165438e-01 4.004464e-01 3.806247e-01 3.583220e-01 3.345131e-01 3.089389e-01 2.822458e-01 2.550764e-01 2.285047e-01 2.031810e-01 1.798948e-01 1.590775e-01 1.408824e-01 1.253245e-01 1.121722e-01 1.011849e-01 9.203847e-02 8.446021e-02 7.817088e-02 7.295415e-02 6.861408e-02 6.500646e-02 6.201226e-02 5.954975e-02 5.755960e-02 5.600333e-02 5.485794e-02 5.411432e-02 
6.094248e-02 6.101438e-02 6.156328e-02 6.258829e-02 6.409328e-02 6.608967e-02 6.860511e-02 7.168536e-02 7.539549e-02 7.983051e-02 8.511646e-02 9.141990e-02 9.895017e-02 1.079689e-01 1.187985e-01 1.318131e-01 1.474482e-01 1.660994e-01 1.880837e-01 2.132991e-01 2.412334e-01 2.707611e-01 3.011275e-01 3.314995e-01 3.616001e-01 3.889528e-01 4.122039e-01 4.310712e-01 4.445860e-01 4.538164e-01 4.598554e-01 4.633591e-01 4.645963e-01 4.637886e-01 4.609334e-01 4.556778e-01 4.474969e-01 4.357341e-01 4.192393e-01 3.981699e-01 3.731393e-01 3.444829e-01 3.150000e-01 2.852000e-01 2.557478e-01 2.275076e-01 2.014587e-01 1.782000e-01 1.579086e-01 1.406331e-01 1.260907e-01 1.139931e-01 1.039402e-01 9.560864e-02 8.866953e-02 8.288092e-02 7.802632e-02 7.395398e-02 7.054102e-02 6.770717e-02 6.539651e-02 6.357420e-02 6.222542e-02 6.134696e-02 
6.861018e-02 6.870358e-02 6.936997e-02 7.060440e-02 7.240481e-02 7.477512e-02 7.773412e-02 8.132500e-02 8.560872e-02 9.068110e-02 9.667112e-02 1.037585e-01 1.121723e-01 1.222105e-01 1.342459e-01 1.487236e-01 1.661726e-01 1.871038e-01 2.119415e-01 2.406106e-01 2.723328e-01 3.055157e-01 3.394316e-01 3.719522e-01 4.004523e-01 4.214789e-01 4.337865e-01 4.400835e-01 4.430725e-01 4.450434e-01 4.464567e-01 4.474629e-01 4.477283e-01 4.472746e-01 4.462043e-01 4.447604e-01 4.429726e-01 4.405895e-01 4.363598e-01 4.268320e-01 4.097437e-01 3.840977e-01 3.535919e-01 3.205734e-01 2.876363e-01 2.560271e-01 2.267859e-01 2.006498e-01 1.778198e-01 1.584666e-01 1.422306e-01 1.287824e-01 1.176170e-01 1.083522e-01 1.005978e-01 9.408310e-02 8.856982e-02 8.389904e-02 7.994617e-02 7.663379e-02 7.390942e-02 7.174599e-02 7.013833e-02 6.908988e-02 
7.668711e-02 7.681076e-02 7.762750e-02 7.912748e-02 8.130213e-02 8.414674e-02 8.767064e-02 9.190931e-02 9.692128e-02 1.028027e-01 1.096847e-01 1.177651e-01 1.272958e-01 1.386262e-01 1.521843e-01 1.684980e-01 1.881771e-01 2.118265e-01 2.399917e-01 2.725477e-01 3.084122e-01 3.453532e-01 3.795512e-01 4.054084e-01 4.183975e-01 4.209742e-01 4.180860e-01 4.150665e-01 4.147355e-01 4.168495e-01 4.198742e-01 4.224393e-01 4.233789e-01 4.224714e-01 4.199572e-01 4.167043e-01 4.141364e-01 4.136992e-01 4.163117e-01 4.200699e-01 4.209653e-01 4.121950e-01 3.914490e-01 3.599831e-01 3.243530e-01 2.891984e-01 2.562588e-01 2.267087e-01 2.008401e-01 1.789876e-01 1.607283e-01 1.456586e-01 1.331518e-01 1.227516e-01 1.139950e-01 1.065792e-01 1.002429e-01 9.482107e-02 9.018989e-02 8.627559e-02 8.303267e-02 8.044362e-02 7.851493e-02 7.725722e-02 
8.506539e-02 8.522923e-02 8.623215e-02 8.805876e-02 9.069285e-02 9.412002e-02 9.833862e-02 1.033742e-01 1.092798e-01 1.161522e-01 1.241240e-01 1.334171e-01 1.443165e-01 1.572423e-01 1.727031e-01 1.913160e-01 2.137574e-01 2.406722e-01 2.726502e-01 3.095613e-01 3.486544e-01 3.835094e-01 4.051171e-01 4.098729e-01 4.030270e-01 3.943458e-01 3.888853e-01 3.872544e-01 3.888618e-01 3.920733e-01 3.955063e-01 3.981718e-01 3.991696e-01 3.982694e-01 3.956801e-01 3.920689e-01 3.885547e-01 3.861761e-01 3.867226e-01 3.912749e-01 3.999592e-01 4.090186e-01 4.100348e-01 3.948098e-01 3.641364e-01 3.268702e-01 2.900896e-01 2.566264e-01 2.271067e-01 2.023067e-01 1.816469e-01 1.646585e-01 1.505577e-01 1.388007e-01 1.288409e-01 1.203342e-01 1.129980e-01 1.066593e-01 1.012002e-01 9.654873e-02 9.267381e-02 8.956782e-02 8.725104e-02 8.574202e-02 
9.362359e-02 9.383854e-02 9.506575e-02 9.728300e-02 1.004657e-01 1.045875e-01 1.096347e-01 1.156203e-01 1.225866e-01 1.306299e-01 1.398831e-01 1.505993e-01 1.631059e-01 1.779328e-01 1.956917e-01 2.171464e-01 2.429708e-01 2.737455e-01 3.099310e-01 3.499858e-01 3.854600e-01 4.037816e-01 4.014809e-01 3.891786e-01 3.768504e-01 3.676787e-01 3.625885e-01 3.614441e-01 3.636492e-01 3.675464e-01 3.716135e-01 3.746666e-01 3.758436e-01 3.748748e-01 3.719588e-01 3.677326e-01 3.634069e-01 3.602651e-01 3.602319e-01 3.642752e-01 3.728367e-01 3.851588e-01 3.988646e-01 4.064485e-01 3.957488e-01 3.657197e-01 3.272136e-01 2.895655e-01 2.562599e-01 2.282156e-01 2.048761e-01 1.856918e-01 1.697456e-01 1.564113e-01 1.450443e-01 1.352557e-01 1.267389e-01 1.193128e-01 1.128701e-01 1.073422e-01 1.027180e-01 9.900052e-02 9.622643e-02 9.442279e-02 
1.022299e-01 1.025076e-01 1.039975e-01 1.066697e-01 1.104892e-01 1.154157e-01 1.214208e-01 1.285021e-01 1.366845e-01 1.460603e-01 1.567570e-01 1.690636e-01 1.833571e-01 2.003081e-01 2.206818e-01 2.454024e-01 2.751214e-01 3.099604e-01 3.493146e-01 3.856388e-01 4.030753e-01 3.975619e-01 3.810645e-01 3.646831e-01 3.518613e-01 3.429657e-01 3.384321e-01 3.377949e-01 3.402045e-01 3.440626e-01 3.479751e-01 3.508513e-01 3.519807e-01 3.510883e-01 3.483408e-01 3.442715e-01 3.399556e-01 3.366477e-01 3.361089e-01 3.395106e-01 3.476276e-01 3.600217e-01 3.757395e-01 3.931874e-01 4.044407e-01 3.954411e-01 3.647629e-01 3.250582e-01 2.879081e-01 2.564793e-01 2.301938e-01 2.085292e-01 1.905001e-01 1.753773e-01 1.624217e-01 1.511738e-01 1.413099e-01 1.326337e-01 1.250573e-01 1.185177e-01 1.130295e-01 1.086075e-01 1.053077e-01 1.031671e-01 
1.107495e-01 1.111020e-01 1.128924e-01 1.160810e-01 1.206212e-01 1.264547e-01 1.335367e-01 1.418430e-01 1.513784e-01 1.622193e-01 1.744843e-01 1.884917e-01 2.046641e-01 2.238287e-01 2.468764e-01 2.749328e-01 3.084217e-01 3.470412e-01 3.847489e-01 4.042941e-01 3.983210e-01 3.794476e-01 3.596226e-01 3.426134e-01 3.296976e-01 3.209751e-01 3.164532e-01 3.155626e-01 3.174588e-01 3.207883e-01 3.243086e-01 3.269375e-01 3.279870e-01 3.271634e-01 3.246303e-01 3.209297e-01 3.170976e-01 3.143340e-01 3.141019e-01 3.174911e-01 3.251879e-01 3.371252e-01 3.527831e-01 3.720059e-01 3.927507e-01 4.056011e-01 3.949378e-01 3.611907e-01 3.215036e-01 2.867088e-01 2.572295e-01 2.328392e-01 2.124913e-01 1.954098e-01 1.807128e-01 1.678592e-01 1.565052e-01 1.464353e-01 1.375901e-01 1.299151e-01 1.234571e-01 1.182442e-01 1.143553e-01 1.118383e-01 
1.190486e-01 1.194879e-01 1.216134e-01 1.253740e-01 1.307088e-01 1.375379e-01 1.457963e-01 1.554325e-01 1.664253e-01 1.788255e-01 1.927325e-01 2.084926e-01 2.265465e-01 2.478852e-01 2.734158e-01 3.043935e-01 3.418225e-01 3.813268e-01 4.064980e-01 4.038664e-01 3.830057e-01 3.605824e-01 3.404362e-01 3.235086e-01 3.105195e-01 3.015820e-01 2.966004e-01 2.949962e-01 2.959767e-01 2.983721e-01 3.011145e-01 3.032176e-01 3.040650e-01 3.033647e-01 3.012823e-01 2.983186e-01 2.954004e-01 2.935925e-01 2.941120e-01 2.979181e-01 3.056320e-01 3.173540e-01 3.329024e-01 3.522259e-01 3.749568e-01 3.982325e-01 4.091493e-01 3.928376e-01 3.556713e-01 3.175191e-01 2.849673e-01 2.578341e-01 2.351510e-01 2.160467e-01 1.995522e-01 1.850046e-01 1.720653e-01 1.604916e-01 1.502697e-01 1.413566e-01 1.338390e-01 1.277608e-01 1.232275e-01 1.203003e-01 
1.269986e-01 1.275364e-01 1.300272e-01 1.344059e-01 1.405953e-01 1.484886e-01 1.579989e-01 1.690382e-01 1.815607e-01 1.955739e-01 2.111695e-01 2.287035e-01 2.486658e-01 2.721725e-01 3.000920e-01 3.336917e-01 3.735517e-01 4.066771e-01 4.124062e-01 3.926398e-01 3.676222e-01 3.446973e-01 3.246438e-01 3.077189e-01 2.944705e-01 2.849332e-01 2.790244e-01 2.762480e-01 2.759315e-01 2.771098e-01 2.788726e-01 2.803407e-01 2.809371e-01 2.803859e-01 2.788456e-01 2.767985e-01 2.750731e-01 2.745903e-01 2.763337e-01 2.811017e-01 2.894041e-01 3.014008e-01 3.170930e-01 3.363615e-01 3.592237e-01 3.843436e-01 4.082775e-01 4.125811e-01 3.874928e-01 3.483264e-01 3.123920e-01 2.828497e-01 2.579082e-01 2.368285e-01 2.185508e-01 2.022713e-01 1.876973e-01 1.745472e-01 1.628746e-01 1.526488e-01 1.440047e-01 1.370047e-01 1.317847e-01 1.284211e-01 
1.344787e-01 1.351265e-01 1.380069e-01 1.430375e-01 1.501228e-01 1.591246e-01 1.699321e-01 1.824124e-01 1.964942e-01 2.121266e-01 2.293958e-01 2.486625e-01 2.704261e-01 2.960987e-01 3.260706e-01 3.633312e-01 4.021447e-01 4.205207e-01 4.072263e-01 3.806813e-01 3.552179e-01 3.324860e-01 3.125340e-01 2.954793e-01 2.816546e-01 2.711715e-01 2.639998e-01 2.597736e-01 2.579458e-01 2.577252e-01 2.583436e-01 2.590549e-01 2.593484e-01 2.589773e-01 2.580861e-01 2.571139e-01 2.567590e-01 2.578085e-01 2.610633e-01 2.671754e-01 2.765451e-01 2.893038e-01 3.054165e-01 3.247685e-01 3.472171e-01 3.722976e-01 3.991734e-01 4.200841e-01 4.122113e-01 3.777116e-01 3.388577e-01 3.071590e-01 2.802010e-01 2.572794e-01 2.373062e-01 2.193092e-01 2.030947e-01 1.883375e-01 1.751761e-01 1.635961e-01 1.537844e-01 1.458276e-01 1.398924e-01 1.360760e-01 
1.413754e-01 1.421416e-01 1.454241e-01 1.511224e-01 1.591202e-01 1.692452e-01 1.813604e-01 1.952803e-01 2.109076e-01 2.281082e-01 2.469765e-01 2.677972e-01 2.911667e-01 3.185849e-01 3.502508e-01 3.900630e-01 4.226387e-01 4.248255e-01 3.991649e-01 3.721278e-01 3.469211e-01 3.245350e-01 3.044603e-01 2.869216e-01 2.721840e-01 2.604368e-01 2.517442e-01 2.458670e-01 2.423899e-01 2.406772e-01 2.400862e-01 2.399961e-01 2.399701e-01 2.397959e-01 2.395982e-01 2.397653e-01 2.408717e-01 2.435864e-01 2.485570e-01 2.562966e-01 2.670937e-01 2.809759e-01 2.978368e-01 3.174128e-01 3.395273e-01 3.640890e-01 3.907553e-01 4.187501e-01 4.277207e-01 4.041373e-01 3.644786e-01 3.299619e-01 3.015756e-01 2.768850e-01 2.553884e-01 2.357190e-01 2.179044e-01 2.015566e-01 1.869108e-01 1.739771e-01 1.629914e-01 1.540725e-01 1.474163e-01 1.431450e-01 
1.475865e-01 1.484751e-01 1.521589e-01 1.585193e-01 1.674178e-01 1.786492e-01 1.920480e-01 2.073756e-01 2.245104e-01 2.432142e-01 2.636237e-01 2.858179e-01 3.107621e-01 3.394354e-01 3.735704e-01 4.131839e-01 4.355782e-01 4.235015e-01 3.943758e-01 3.677634e-01 3.431765e-01 3.208029e-01 3.003330e-01 2.819416e-01 2.659898e-01 2.527388e-01 2.423606e-01 2.347361e-01 2.295675e-01 2.263509e-01 2.245554e-01 2.236623e-01 2.233136e-01 2.233421e-01 2.238462e-01 2.251454e-01 2.277210e-01 2.321346e-01 2.389070e-01 2.484313e-01 2.608804e-01 2.761647e-01 2.940774e-01 3.141543e-01 3.362748e-01 3.599893e-01 3.861896e-01 4.141222e-01 4.361949e-01 4.254013e-01 3.884060e-01 3.510332e-01 3.216980e-01 2.953553e-01 2.724378e-01 2.511664e-01 2.317989e-01 2.139179e-01 1.978268e-01 1.835810e-01 1.714498e-01 1.615943e-01 1.542338e-01 1.495208e-01 
1.530188e-01 1.540284e-01 1.580968e-01 1.650890e-01 1.748443e-01 1.871287e-01 2.017466e-01 2.184153e-01 2.369816e-01 2.571111e-01 2.789596e-01 3.023474e-01 3.286466e-01 3.580890e-01 3.949410e-01 4.320156e-01 4.433424e-01 4.210339e-01 3.933563e-01 3.672611e-01 3.433264e-01 3.206960e-01 2.995683e-01 2.800722e-01 2.627150e-01 2.478257e-01 2.356965e-01 2.263174e-01 2.194931e-01 2.148286e-01 2.118894e-01 2.102456e-01 2.095994e-01 2.098180e-01 2.109795e-01 2.133525e-01 2.173384e-01 2.234070e-01 2.319738e-01 2.433300e-01 2.575377e-01 2.743864e-01 2.935476e-01 3.144467e-01 3.369090e-01 3.603046e-01 3.858584e-01 4.120303e-01 4.399589e-01 4.406794e-01 4.088541e-01 3.701897e-01 3.399705e-01 3.122686e-01 2.879644e-01 2.652341e-01 2.443971e-01 2.251000e-01 2.076537e-01 1.921874e-01 1.789819e-01 1.682509e-01 1.602297e-01 1.551043e-01 
1.575915e-01 1.587146e-01 1.631341e-01 1.707013e-01 1.812348e-01 1.944797e-01 2.102094e-01 2.281181e-01 2.480058e-01 2.694960e-01 2.926797e-01 3.172159e-01 3.445213e-01 3.743795e-01 4.123644e-01 4.457638e-01 4.477840e-01 4.211087e-01 3.954394e-01 3.701029e-01 3.463989e-01 3.232770e-01 3.012811e-01 2.805589e-01 2.617482e-01 2.452428e-01 2.314312e-01 2.203870e-01 2.120190e-01 2.060242e-01 2.020482e-01 1.997297e-01 1.988190e-01 1.992064e-01 2.009578e-01 2.043015e-01 2.095756e-01 2.171785e-01 2.274336e-01 2.405335e-01 2.564276e-01 2.748290e-01 2.952744e-01 3.171515e-01 3.401072e-01 3.635958e-01 3.883071e-01 4.135190e-01 4.418051e-01 4.515363e-01 4.258473e-01 3.877404e-01 3.560598e-01 3.273180e-01 3.015835e-01 2.775822e-01 2.553776e-01 2.348221e-01 2.161497e-01 1.995965e-01 1.854267e-01 1.739144e-01 1.653018e-01 1.598094e-01 
1.612331e-01 1.624550e-01 1.671737e-01 1.752309e-01 1.864266e-01 2.004954e-01 2.171806e-01 2.361801e-01 2.572351e-01 2.800094e-01 3.044364e-01 3.302614e-01 3.584352e-01 3.889979e-01 4.263695e-01 4.555566e-01 4.506969e-01 4.236054e-01 3.989987e-01 3.744436e-01 3.507162e-01 3.271125e-01 3.042401e-01 2.823755e-01 2.622320e-01 2.442835e-01 2.289931e-01 2.165075e-01 2.068138e-01 1.996812e-01 1.948222e-01 1.919321e-01 1.907976e-01 1.913263e-01 1.935762e-01 1.977468e-01 2.041256e-01 2.130455e-01 2.247533e-01 2.393719e-01 2.567488e-01 2.765497e-01 2.981657e-01 3.210136e-01 3.444848e-01 3.682808e-01 3.923748e-01 4.171517e-01 4.433466e-01 4.590431e-01 4.394335e-01 4.025664e-01 3.692528e-01 3.397937e-01 3.127955e-01 2.877744e-01 2.643901e-01 2.427857e-01 2.230745e-01 2.056133e-01 1.906325e-01 1.784672e-01 1.693586e-01 1.635602e-01 
1.638847e-01 1.651841e-01 1.701327e-01 1.785662e-01 1.902702e-01 2.049764e-01 2.224016e-01 2.422648e-01 2.642442e-01 2.880964e-01 3.135459e-01 3.406154e-01 3.695027e-01 4.011551e-01 4.372851e-01 4.623436e-01 4.527659e-01 4.269628e-01 4.027739e-01 3.788414e-01 3.549597e-01 3.309732e-01 3.073561e-01 2.845717e-01 2.633546e-01 2.442628e-01 2.278101e-01 2.142029e-01 2.034838e-01 1.954755e-01 1.899394e-01 1.866112e-01 1.853052e-01 1.859425e-01 1.885755e-01 1.933797e-01 2.006052e-01 2.105394e-01 2.233691e-01 2.391686e-01 2.577010e-01 2.786022e-01 3.011325e-01 3.247485e-01 3.486062e-01 3.726294e-01 3.962604e-01 4.205593e-01 4.450023e-01 4.637840e-01 4.490825e-01 4.134811e-01 3.792362e-01 3.492569e-01 3.212912e-01 2.954667e-01 2.711454e-01 2.487276e-01 2.282140e-01 2.100621e-01 1.944644e-01 1.818053e-01 1.723215e-01 1.662927e-01 
1.654990e-01 1.668475e-01 1.719412e-01 1.806122e-01 1.926372e-01 2.077481e-01 2.256437e-01 2.460645e-01 2.686408e-01 2.932165e-01 3.193397e-01 3.473100e-01 3.766645e-01 4.092816e-01 4.442765e-01 4.662631e-01 4.540053e-01 4.296023e-01 4.055951e-01 3.820340e-01 3.579964e-01 3.337635e-01 3.096502e-01 2.862724e-01 2.643586e-01 2.445328e-01 2.273370e-01 2.130174e-01 2.016504e-01 1.930907e-01 1.871297e-01 1.835268e-01 1.821134e-01 1.828195e-01 1.856928e-01 1.908950e-01 1.986529e-01 2.092272e-01 2.227667e-01 2.393174e-01 2.585835e-01 2.801863e-01 3.032868e-01 3.273754e-01 3.514341e-01 3.755357e-01 3.988182e-01 4.227134e-01 4.463197e-01 4.665659e-01 4.549961e-01 4.204549e-01 3.857884e-01 3.553923e-01 3.267396e-01 3.003424e-01 2.753804e-01 2.524279e-01 2.313964e-01 2.128066e-01 1.968191e-01 1.838499e-01 1.741305e-01 1.679576e-01 
1.660429e-01 1.674087e-01 1.725523e-01 1.813050e-01 1.934401e-01 2.086903e-01 2.267481e-01 2.473623e-01 2.701470e-01 2.949819e-01 3.213466e-01 3.496643e-01 3.791978e-01 4.122379e-01 4.467678e-01 4.675305e-01 4.543943e-01 4.304989e-01 4.065636e-01 3.831511e-01 3.590744e-01 3.347727e-01 3.104956e-01 2.869173e-01 2.647626e-01 2.446821e-01 2.272279e-01 2.126612e-01 2.010700e-01 1.923205e-01 1.862135e-01 1.825164e-01 1.810663e-01 1.817957e-01 1.847512e-01 1.900895e-01 1.980302e-01 2.088250e-01 2.226100e-01 2.394210e-01 2.589424e-01 2.807883e-01 3.040863e-01 3.283342e-01 3.524580e-01 3.765783e-01 3.997434e-01 4.235075e-01 4.468594e-01 4.675019e-01 4.569385e-01 4.228495e-01 3.880744e-01 3.575095e-01 3.286071e-01 3.020002e-01 2.768123e-01 2.536745e-01 2.324683e-01 2.137305e-01 1.976119e-01 1.845381e-01 1.747394e-01 1.685179e-01 
1.654990e-01 1.668475e-01 1.719412e-01 1.806122e-01 1.926372e-01 2.077481e-01 2.256437e-01 2.460645e-01 2.686408e-01 2.932165e-01 3.193397e-01 3.473100e-01 3.766645e-01 4.092816e-01 4.442765e-01 4.662631e-01 4.540053e-01 4.296023e-01 4.055951e-01 3.820340e-01 3.579964e-01 3.337635e-01 3.096502e-01 2.862724e-01 2.643586e-01 2.445328e-01 2.273370e-01 2.130174e-01 2.016504e-01 1.930907e-01 1.871297e-01 1.835268e-01 1.821134e-01 1.828195e-01 1.856928e-01 1.908950e-01 1.986529e-01 2.092272e-01 2.227667e-01 2.393174e-01 2.585835e-01 2.801863e-01 3.032868e-01 3.273754e-01 3.514341e-01 3.755357e-01 3.988182e-01 4.227134e-01 4.463197e-01 4.665659e-01 4.549961e-01 4.204549e-01 3.857884e-01 3.553923e-01 3.267396e-01 3.003424e-01 2.753804e-01 2.524279e-01 2.313964e-01 2.128066e-01 1.968191e-01 1.838499e-01 1.741305e-01 1.679576e-01 
1.638847e-01 1.651841e-01 1.701327e-01 1.785662e-01 1.902702e-01 2.049764e-01 2.224016e-01 2.422648e-01 2.642442e-01 2.880964e-01 3.135459e-01 3.406154e-01 3.695027e-01 4.011551e-01 4.372851e-01 4.623436e-01 4.527659e-01 4.269628e-01 4.027739e-01 3.788414e-01 3.549597e-01 3.309732e-01 3.073561e-01 2.845717e-01 2.633546e-01 2.442628e-01 2.278101e-01 2.142029e-01 2.034838e-01 1.954755e-01 1.899394e-01 1.866112e-01 1.853052e-01 1.859425e-01 1.885755e-01 1.933797e-01 2.006052e-01 2.105394e-01 2.233691e-01 2.391686e-01 2.577010e-01 2.786022e-01 3.011325e-01 3.247485e-01 3.486062e-01 3.726294e-01 3.962604e-01 4.205593e-01 4.450023e-01 4.637840e-01 4.490825e-01 4.134811e-01 3.792362e-01 3.492569e-01 3.212912e-01 2.954667e-01 2.711454e-01 2.487276e-01 2.282140e-01 2.100621e-01 1.944644e-01 1.818053e-01 1.723215e-01 1.662927e-01 