# vtk DataFile Version 2.0
Comment goes here
ASCII

DATASET STRUCTURED_POINTS
FIELD FieldData 1
TIME 1 1 double
1.36000000
DIMENSIONS    64   64   1

ORIGIN    0.000   0.000   0.000
SPACING   0.015625 0.015625   1.000

POINT_DATA   4096
SCALARS Concentration double
LOOKUP_TABLE default

5.893415e-03 5.950765e-03 6.149748e-03 6.497362e-03 7.005830e-03 7.692924e-03 8.582469e-03 9.704538e-03 1.109581e-02 1.279875e-02 1.486120e-02 1.733335e-02 2.026590e-02 2.370396e-02 2.768418e-02 3.222584e-02 3.732962e-02 4.296808e-02 4.909019e-02 5.561376e-02 6.243854e-02 6.944038e-02 7.649090e-02 8.344910e-02 9.017955e-02 9.654076e-02 1.024049e-01 1.076444e-01 1.121476e-01 1.158087e-01 1.185384e-01 1.202609e-01 1.209194e-01 1.204773e-01 1.189526e-01 1.163951e-01 1.128747e-01 1.084782e-01 1.033105e-01 9.748543e-02 9.113427e-02 8.438926e-02 7.739807e-02 7.030109e-02 6.324501e-02 5.636063e-02 4.977568e-02 4.359186e-02 3.789342e-02 3.273229e-02 2.813679e-02 2.410668e-02 2.062275e-02 1.764833e-02 1.513794e-02 1.304052e-02 1.130534e-02 9.884094e-03 8.733834e-03 7.817444e-03 7.104522e-03 6.570923e-03 6.198658e-03 5.975247e-03 
6.014495e-03 6.071980e-03 6.271975e-03 6.621490e-03 7.132773e-03 7.823641e-03 8.718005e-03 9.846072e-03 1.124474e-02 1.295680e-02 1.503054e-02 1.751676e-02 2.046697e-02 2.392726e-02 2.793551e-02 3.251236e-02 3.766003e-02 4.335250e-02 4.954026e-02 5.614224e-02 6.305924e-02 7.016759e-02 7.733957e-02 8.443503e-02 9.131677e-02 9.783962e-02 1.038712e-01 1.092779e-01 1.139402e-01 1.177429e-01 1.205868e-01 1.223870e-01 1.230787e-01 1.226222e-01 1.210360e-01 1.183765e-01 1.147214e-01 1.101682e-01 1.048314e-01 9.883410e-02 9.231486e-02 8.541145e-02 7.827594e-02 7.105158e-02 6.388452e-02 5.690453e-02 5.023863e-02 4.398729e-02 3.823339e-02 3.302731e-02 2.839573e-02 2.433688e-02 2.083009e-02 1.783748e-02 1.531252e-02 1.320334e-02 1.145858e-02 1.002947e-02 8.872727e-03 7.951012e-03 7.233783e-03 6.696812e-03 6.322071e-03 6.097058e-03 
6.380198e-03 6.438070e-03 6.641056e-03 6.996200e-03 7.515830e-03 8.217884e-03 9.126527e-03 1.027236e-02 1.169293e-02 1.343196e-02 1.553907e-02 1.806688e-02 2.106927e-02 2.459531e-02 2.868646e-02 3.336745e-02 3.864498e-02 4.449756e-02 5.088001e-02 5.771485e-02 6.490581e-02 7.233074e-02 7.986292e-02 8.736198e-02 9.468541e-02 1.016780e-01 1.081945e-01 1.140831e-01 1.192022e-01 1.234109e-01 1.265814e-01 1.286035e-01 1.293904e-01 1.288927e-01 1.271308e-01 1.241797e-01 1.201390e-01 1.151360e-01 1.093120e-01 1.028165e-01 9.580909e-02 8.844386e-02 8.088522e-02 7.328381e-02 6.578709e-02 5.852305e-02 5.161685e-02 4.516521e-02 3.924706e-02 3.390785e-02 2.916955e-02 2.502566e-02 2.145131e-02 1.840490e-02 1.583688e-02 1.369293e-02 1.191982e-02 1.046741e-02 9.291436e-03 8.353910e-03 7.623880e-03 7.076875e-03 6.694751e-03 6.464954e-03 
6.998767e-03 7.057249e-03 7.265176e-03 7.629663e-03 8.163152e-03 8.883767e-03 9.816076e-03 1.099131e-02 1.244806e-02 1.423156e-02 1.639364e-02 1.898980e-02 2.207787e-02 2.571169e-02 2.993862e-02 3.479000e-02 4.027989e-02 4.639396e-02 5.309415e-02 6.030836e-02 6.794489e-02 7.588299e-02 8.399666e-02 9.214228e-02 1.001694e-01 1.079070e-01 1.151908e-01 1.218416e-01 1.276845e-01 1.325377e-01 1.362284e-01 1.386048e-01 1.395440e-01 1.389807e-01 1.369388e-01 1.335228e-01 1.288688e-01 1.231516e-01 1.165556e-01 1.092703e-01 1.014884e-01 9.338793e-02 8.515300e-02 7.694500e-02 6.891558e-02 6.119104e-02 5.389440e-02 4.711670e-02 4.093064e-02 3.537401e-02 3.046109e-02 2.617788e-02 2.249260e-02 1.935776e-02 1.671878e-02 1.451745e-02 1.269746e-02 1.120643e-02 9.998525e-03 9.034687e-03 8.283312e-03 7.719539e-03 7.325056e-03 7.087225e-03 
7.884078e-03 7.943348e-03 8.158169e-03 8.535744e-03 9.088653e-03 9.835241e-03 1.080061e-02 1.201680e-02 1.352384e-02 1.536895e-02 1.760694e-02 2.029729e-02 2.350306e-02 2.728464e-02 3.169736e-02 3.678154e-02 4.256112e-02 4.903146e-02 5.616374e-02 6.389284e-02 7.213218e-02 8.076200e-02 8.965522e-02 9.866205e-02 1.076196e-01 1.163364e-01 1.246237e-01 1.322683e-01 1.390532e-01 1.447453e-01 1.491138e-01 1.519526e-01 1.530909e-01 1.524427e-01 1.500359e-01 1.460143e-01 1.405612e-01 1.339133e-01 1.263093e-01 1.179903e-01 1.091903e-01 1.001191e-01 9.098613e-02 8.196734e-02 7.322260e-02 6.487719e-02 5.705244e-02 4.983235e-02 4.328194e-02 3.742887e-02 3.227738e-02 2.780331e-02 2.396576e-02 2.070915e-02 1.797222e-02 1.569138e-02 1.380623e-02 1.226134e-02 1.100876e-02 1.000798e-02 9.226538e-03 8.639082e-03 8.227093e-03 7.977843e-03 
9.055554e-03 9.115743e-03 9.339483e-03 9.734039e-03 1.031214e-02 1.109237e-02 1.210043e-02 1.336936e-02 1.494086e-02 1.686464e-02 1.919916e-02 2.200876e-02 2.536302e-02 2.933040e-02 3.397612e-02 3.935160e-02 4.549301e-02 5.240745e-02 6.007712e-02 6.844439e-02 7.742763e-02 8.690553e-02 9.674724e-02 1.067911e-01 1.168586e-01 1.267330e-01 1.362008e-01 1.450129e-01 1.529096e-01 1.595990e-01 1.647800e-01 1.681770e-01 1.695573e-01 1.688072e-01 1.659605e-01 1.612120e-01 1.548055e-01 1.470546e-01 1.382612e-01 1.287230e-01 1.187191e-01 1.084918e-01 9.828192e-02 8.828240e-02 7.866580e-02 6.955847e-02 6.108198e-02 5.331345e-02 4.630943e-02 4.008613e-02 3.463560e-02 2.992164e-02 2.589192e-02 2.248113e-02 1.961962e-02 1.723725e-02 1.526848e-02 1.365417e-02 1.234372e-02 1.129490e-02 1.047421e-02 9.855726e-03 9.420720e-03 9.156392e-03 
1.053774e-02 1.059895e-02 1.083383e-02 1.124956e-02 1.185908e-02 1.268115e-02 1.374213e-02 1.507610e-02 1.672673e-02 1.874653e-02 2.119820e-02 2.415173e-02 2.768432e-02 3.187389e-02 3.679730e-02 4.251910e-02 4.908981e-02 5.653029e-02 6.483508e-02 7.395436e-02 8.381011e-02 9.427655e-02 1.052144e-01 1.164453e-01 1.277672e-01 1.389337e-01 1.497042e-01 1.597943e-01 1.689027e-01 1.766782e-01 1.827462e-01 1.867547e-01 1.884013e-01 1.875405e-01 1.842133e-01 1.786726e-01 1.712274e-01 1.622740e-01 1.521781e-01 1.412948e-01 1.299497e-01 1.184205e-01 1.069849e-01 9.585767e-02 8.523080e-02 7.523371e-02 6.599171e-02 5.757557e-02 5.003398e-02 4.337031e-02 3.756304e-02 3.256187e-02 2.830123e-02 2.470430e-02 2.169162e-02 1.918535e-02 1.711394e-02 1.541390e-02 1.403157e-02 1.292277e-02 1.205285e-02 1.139526e-02 1.093114e-02 1.064765e-02 
1.235992e-02 1.242224e-02 1.267081e-02 1.311262e-02 1.376064e-02 1.463383e-02 1.575914e-02 1.717176e-02 1.891744e-02 2.105180e-02 2.364222e-02 2.676504e-02 3.050607e-02 3.495403e-02 4.019916e-02 4.632130e-02 5.338765e-02 6.143501e-02 7.047168e-02 8.045539e-02 9.130950e-02 1.028979e-01 1.150662e-01 1.276073e-01 1.402876e-01 1.528208e-01 1.649456e-01 1.763549e-01 1.867236e-01 1.956485e-01 2.026735e-01 2.073527e-01 2.092946e-01 2.083138e-01 2.044613e-01 1.980654e-01 1.895154e-01 1.793054e-01 1.678591e-01 1.555765e-01 1.428178e-01 1.298878e-01 1.171104e-01 1.047284e-01 9.296287e-02 8.195240e-02 7.183161e-02 6.266840e-02 5.450397e-02 4.732908e-02 4.110632e-02 3.576986e-02 3.123846e-02 2.742229e-02 2.423043e-02 2.157635e-02 1.938159e-02 1.757781e-02 1.610793e-02 1.492561e-02 1.399500e-02 1.328900e-02 1.278867e-02 1.248126e-02 
1.455487e-02 1.461841e-02 1.488374e-02 1.535757e-02 1.605281e-02 1.698821e-02 1.819129e-02 1.969840e-02 2.155740e-02 2.382721e-02 2.658028e-02 2.989989e-02 3.388138e-02 3.862565e-02 4.423817e-02 5.081661e-02 5.844766e-02 6.718690e-02 7.705830e-02 8.802711e-02 1.000155e-01 1.128710e-01 1.264146e-01 1.404019e-01 1.545473e-01 1.685167e-01 1.820228e-01 1.947400e-01 2.063355e-01 2.163689e-01 2.243177e-01 2.296484e-01 2.318802e-01 2.307842e-01 2.264252e-01 2.192110e-01 2.096035e-01 1.981828e-01 1.854092e-01 1.717135e-01 1.574832e-01 1.430553e-01 1.288109e-01 1.150329e-01 1.019863e-01 8.982367e-02 7.869808e-02 6.867682e-02 5.979622e-02 5.203274e-02 4.533134e-02 3.960786e-02 3.476284e-02 3.069146e-02 2.728957e-02 2.446092e-02 2.211924e-02 2.019091e-02 1.861509e-02 1.734322e-02 1.633827e-02 1.557265e-02 1.502756e-02 1.469046e-02 
1.715780e-02 1.722280e-02 1.750881e-02 1.802213e-02 1.877545e-02 1.978719e-02 2.108518e-02 2.270640e-02 2.470094e-02 2.713136e-02 3.007537e-02 3.362380e-02 3.788242e-02 4.296595e-02 4.899748e-02 5.609593e-02 6.437160e-02 7.390336e-02 8.473375e-02 9.683671e-02 1.101293e-01 1.244337e-01 1.395328e-01 1.551177e-01 1.708273e-01 1.862444e-01 2.010671e-01 2.149938e-01 2.277422e-01 2.388696e-01 2.477754e-01 2.538067e-01 2.563560e-01 2.551369e-01 2.502367e-01 2.421749e-01 2.315154e-01 2.189562e-01 2.049572e-01 1.899293e-01 1.742432e-01 1.582421e-01 1.423997e-01 1.270572e-01 1.125495e-01 9.905827e-02 8.676621e-02 7.574832e-02 6.603555e-02 5.759042e-02 5.033500e-02 4.416399e-02 3.895523e-02 3.458650e-02 3.093810e-02 2.790283e-02 2.538567e-02 2.330727e-02 2.160279e-02 2.022141e-02 1.912502e-02 1.828574e-02 1.768513e-02 1.731112e-02 
2.020364e-02 2.027059e-02 2.058254e-02 2.114510e-02 2.197055e-02 2.307667e-02 2.449149e-02 2.625250e-02 2.841168e-02 3.103448e-02 3.420473e-02 3.802146e-02 4.260195e-02 4.807668e-02 5.458937e-02 6.228500e-02 7.130294e-02 8.175127e-02 9.369513e-02 1.071168e-01 1.219242e-01 1.379026e-01 1.547833e-01 1.721741e-01 1.896014e-01 2.065639e-01 2.227201e-01 2.377739e-01 2.515164e-01 2.635386e-01 2.732173e-01 2.798217e-01 2.826369e-01 2.813175e-01 2.759770e-01 2.672490e-01 2.557600e-01 2.422731e-01 2.271865e-01 2.108619e-01 1.936537e-01 1.759454e-01 1.583175e-01 1.411854e-01 1.249856e-01 1.099361e-01 9.627090e-02 8.407767e-02 7.338686e-02 6.414351e-02 5.624174e-02 4.954950e-02 4.391623e-02 3.919895e-02 3.525917e-02 3.197757e-02 2.924901e-02 2.698837e-02 2.512621e-02 2.360968e-02 2.239985e-02 2.146892e-02 2.079911e-02 2.037901e-02 
2.372517e-02 2.379498e-02 2.413999e-02 2.476479e-02 2.568093e-02 2.690514e-02 2.846534e-02 3.039939e-02 3.276116e-02 3.561920e-02 3.906223e-02 4.319776e-02 4.815696e-02 5.408836e-02 6.116067e-02 6.955152e-02 7.943753e-02 9.096484e-02 1.042253e-01 1.192118e-01 1.358121e-01 1.537658e-01 1.727311e-01 1.921834e-01 2.115025e-01 2.299871e-01 2.472763e-01 2.631983e-01 2.777663e-01 2.906847e-01 3.012382e-01 3.085283e-01 3.116580e-01 3.102195e-01 3.043534e-01 2.948552e-01 2.824968e-01 2.682415e-01 2.523300e-01 2.349514e-01 2.163229e-01 1.967899e-01 1.771610e-01 1.579587e-01 1.397609e-01 1.228524e-01 1.075367e-01 9.393451e-02 8.207291e-02 7.188121e-02 6.321433e-02 5.590749e-02 4.977295e-02 4.464217e-02 4.035396e-02 3.677495e-02 3.378852e-02 3.130288e-02 2.924487e-02 2.755974e-02 2.620807e-02 2.516228e-02 2.440576e-02 2.392795e-02 
2.774854e-02 2.782274e-02 2.821045e-02 2.891474e-02 2.994615e-02 3.131968e-02 3.306284e-02 3.521342e-02 3.782724e-02 4.097596e-02 4.475390e-02 4.927676e-02 5.468802e-02 6.116033e-02 6.889267e-02 7.810482e-02 8.902030e-02 1.018331e-01 1.166634e-01 1.335035e-01 1.522039e-01 1.724238e-01 1.937429e-01 2.154741e-01 2.368406e-01 2.571097e-01 2.758280e-01 2.926972e-01 3.078593e-01 3.211941e-01 3.320978e-01 3.396830e-01 3.429693e-01 3.414722e-01 3.353669e-01 3.255879e-01 3.129017e-01 2.982474e-01 2.815795e-01 2.629588e-01 2.426488e-01 2.211282e-01 1.993292e-01 1.777958e-01 1.573028e-01 1.381991e-01 1.209139e-01 1.056182e-01 9.235016e-02 8.102269e-02 7.144250e-02 6.340453e-02 5.667227e-02 5.104634e-02 4.633700e-02 4.239371e-02 3.908787e-02 3.632215e-02 3.401906e-02 3.212220e-02 3.059192e-02 2.940135e-02 2.853559e-02 2.798534e-02 
3.229100e-02 3.237199e-02 3.281520e-02 3.362169e-02 3.480047e-02 3.636414e-02 3.833928e-02 4.076318e-02 4.369325e-02 4.720435e-02 5.139647e-02 5.639463e-02 6.235621e-02 6.947614e-02 7.799431e-02 8.818498e-02 1.003327e-01 1.146895e-01 1.314023e-01 1.504515e-01 1.716026e-01 1.944337e-01 2.184169e-01 2.427256e-01 2.664199e-01 2.882909e-01 3.079277e-01 3.252681e-01 3.408959e-01 3.549963e-01 3.667233e-01 3.748915e-01 3.784303e-01 3.768297e-01 3.703182e-01 3.598038e-01 3.462864e-01 3.312327e-01 3.141785e-01 2.948289e-01 2.732159e-01 2.495741e-01 2.253592e-01 2.012277e-01 1.781014e-01 1.564338e-01 1.368020e-01 1.194821e-01 1.045194e-01 9.182662e-02 8.114857e-02 7.223370e-02 6.478385e-02 5.855947e-02 5.333384e-02 4.894018e-02 4.523700e-02 4.212042e-02 3.950899e-02 3.734470e-02 3.558858e-02 3.421482e-02 3.321115e-02 3.256985e-02 
3.735517e-02 3.744653e-02 3.796182e-02 3.889965e-02 4.026697e-02 4.207298e-02 4.434288e-02 4.711266e-02 5.044121e-02 5.440595e-02 5.911281e-02 6.469659e-02 7.133077e-02 7.923813e-02 8.869943e-02 1.000664e-01 1.136985e-01 1.299208e-01 1.488930e-01 1.705471e-01 1.944945e-01 2.201214e-01 2.468292e-01 2.734177e-01 2.989076e-01 3.229166e-01 3.452928e-01 3.647107e-01 3.807961e-01 3.940051e-01 4.042580e-01 4.110082e-01 4.137995e-01 4.124743e-01 4.071558e-01 3.982049e-01 3.859625e-01 3.709487e-01 3.524090e-01 3.306591e-01 3.068290e-01 2.814209e-01 2.552374e-01 2.284677e-01 2.025198e-01 1.779489e-01 1.555958e-01 1.358881e-01 1.189009e-01 1.045691e-01 9.256758e-02 8.259874e-02 7.428328e-02 6.733044e-02 6.147158e-02 5.652172e-02 5.232352e-02 4.876708e-02 4.576727e-02 4.326525e-02 4.122367e-02 3.961845e-02 3.844103e-02 3.768577e-02 
4.292652e-02 4.303361e-02 4.364304e-02 4.474877e-02 4.635611e-02 4.846967e-02 5.111256e-02 5.431871e-02 5.814779e-02 6.267944e-02 6.802456e-02 7.432870e-02 8.178258e-02 9.064305e-02 1.012424e-01 1.140132e-01 1.294249e-01 1.478767e-01 1.695417e-01 1.942682e-01 2.214147e-01 2.501881e-01 2.797101e-01 3.093760e-01 3.380810e-01 3.629241e-01 3.837383e-01 3.997276e-01 4.108424e-01 4.182800e-01 4.230518e-01 4.258011e-01 4.267798e-01 4.261256e-01 4.239315e-01 4.199170e-01 4.134750e-01 4.037796e-01 3.897625e-01 3.705278e-01 3.468889e-01 3.190758e-01 2.897694e-01 2.601304e-01 2.310506e-01 2.032075e-01 1.777166e-01 1.552370e-01 1.358436e-01 1.195452e-01 1.059470e-01 9.470719e-02 8.534435e-02 7.750730e-02 7.087622e-02 6.524150e-02 6.042942e-02 5.632344e-02 5.283671e-02 4.991006e-02 4.750959e-02 4.561357e-02 4.421865e-02 4.332062e-02 
4.896971e-02 4.909936e-02 4.982967e-02 5.114907e-02 5.305871e-02 5.555849e-02 5.866879e-02 6.241997e-02 6.687226e-02 7.210592e-02 7.823706e-02 8.542156e-02 9.387079e-02 1.038825e-01 1.158523e-01 1.303128e-01 1.478595e-01 1.689972e-01 1.938858e-01 2.223047e-01 2.532567e-01 2.858774e-01 3.188945e-01 3.496025e-01 3.752531e-01 3.920959e-01 4.005363e-01 4.035119e-01 4.044563e-01 4.049547e-01 4.054978e-01 4.060895e-01 4.062747e-01 4.059000e-01 4.050957e-01 4.041762e-01 4.035562e-01 4.027228e-01 4.011750e-01 3.952228e-01 3.817453e-01 3.591994e-01 3.301208e-01 2.974507e-01 2.644607e-01 2.328575e-01 2.037248e-01 1.780030e-01 1.557278e-01 1.370568e-01 1.215164e-01 1.087432e-01 9.811680e-02 8.921720e-02 8.165220e-02 7.518313e-02 6.961699e-02 6.483142e-02 6.074026e-02 5.728514e-02 5.443811e-02 5.218060e-02 5.051492e-02 4.944047e-02 
5.543116e-02 5.559201e-02 5.647481e-02 5.806147e-02 6.034735e-02 6.332548e-02 6.701307e-02 7.143541e-02 7.665206e-02 8.274307e-02 8.982821e-02 9.807673e-02 1.077219e-01 1.191150e-01 1.327245e-01 1.491980e-01 1.692756e-01 1.935333e-01 2.221721e-01 2.547515e-01 2.899937e-01 3.258359e-01 3.577143e-01 3.793120e-01 3.874748e-01 3.852996e-01 3.796351e-01 3.752431e-01 3.740962e-01 3.753755e-01 3.776772e-01 3.797086e-01 3.805528e-01 3.798844e-01 3.779044e-01 3.750535e-01 3.729461e-01 3.729209e-01 3.764879e-01 3.823488e-01 3.867981e-01 3.833799e-01 3.669444e-01 3.380649e-01 3.030365e-01 2.674212e-01 2.341190e-01 2.046572e-01 1.789264e-01 1.573675e-01 1.394732e-01 1.248457e-01 1.127135e-01 1.025497e-01 9.387282e-02 8.640138e-02 7.992335e-02 7.430953e-02 6.947906e-02 6.537562e-02 6.198067e-02 5.927932e-02 5.728197e-02 5.599308e-02 
6.223514e-02 6.243763e-02 6.350892e-02 6.542316e-02 6.816918e-02 7.172868e-02 7.611594e-02 8.134811e-02 8.748362e-02 9.459931e-02 1.028208e-01 1.123319e-01 1.233997e-01 1.364408e-01 1.520174e-01 1.709065e-01 1.939861e-01 2.219338e-01 2.548898e-01 2.919886e-01 3.302027e-01 3.618996e-01 3.782825e-01 3.770003e-01 3.663627e-01 3.556270e-01 3.487959e-01 3.461495e-01 3.467973e-01 3.490093e-01 3.516721e-01 3.538230e-01 3.547436e-01 3.540942e-01 3.520535e-01 3.489783e-01 3.461687e-01 3.445380e-01 3.460267e-01 3.515698e-01 3.615348e-01 3.734075e-01 3.793767e-01 3.700277e-01 3.432440e-01 3.067078e-01 2.693102e-01 2.355196e-01 2.056444e-01 1.806231e-01 1.598954e-01 1.430714e-01 1.291699e-01 1.175316e-01 1.075551e-01 9.890280e-02 9.134330e-02 8.473901e-02 7.902124e-02 7.413671e-02 7.008170e-02 6.684435e-02 6.444845e-02 6.290352e-02 
6.929120e-02 6.954766e-02 7.084734e-02 7.315503e-02 7.645163e-02 8.070437e-02 8.592180e-02 9.210975e-02 9.932379e-02 1.076356e-01 1.171769e-01 1.281571e-01 1.408851e-01 1.558806e-01 1.737955e-01 1.955658e-01 2.221475e-01 2.541777e-01 2.917590e-01 3.315659e-01 3.636079e-01 3.757814e-01 3.681469e-01 3.524976e-01 3.379452e-01 3.270003e-01 3.204329e-01 3.183990e-01 3.198343e-01 3.229373e-01 3.263189e-01 3.289142e-01 3.300342e-01 3.293373e-01 3.270002e-01 3.233977e-01 3.197872e-01 3.173573e-01 3.181374e-01 3.232467e-01 3.331429e-01 3.467759e-01 3.625916e-01 3.747599e-01 3.707926e-01 3.455494e-01 3.082126e-01 2.701267e-01 2.357035e-01 2.066700e-01 1.827109e-01 1.633528e-01 1.474331e-01 1.341105e-01 1.226499e-01 1.126375e-01 1.038243e-01 9.606213e-02 8.930228e-02 8.349666e-02 7.866163e-02 7.479134e-02 7.192611e-02 7.008151e-02 
7.649192e-02 7.681625e-02 7.838647e-02 8.115627e-02 8.509644e-02 9.015649e-02 9.633439e-02 1.036199e-01 1.120638e-01 1.217265e-01 1.327515e-01 1.453787e-01 1.599889e-01 1.772263e-01 1.978634e-01 2.229260e-01 2.533592e-01 2.896336e-01 3.300115e-01 3.633642e-01 3.744529e-01 3.636121e-01 3.446688e-01 3.262175e-01 3.111972e-01 3.007141e-01 2.948424e-01 2.932885e-01 2.948921e-01 2.979972e-01 3.012816e-01 3.037463e-01 3.048094e-01 3.041702e-01 3.019964e-01 2.986317e-01 2.951486e-01 2.926952e-01 2.930766e-01 2.975319e-01 3.067669e-01 3.204059e-01 3.375765e-01 3.569414e-01 3.725563e-01 3.710519e-01 3.459210e-01 3.068608e-01 2.679981e-01 2.349903e-01 2.075876e-01 1.854895e-01 1.673396e-01 1.521389e-01 1.390252e-01 1.274809e-01 1.172515e-01 1.081679e-01 1.002146e-01 9.334824e-02 8.761291e-02 8.301228e-02 7.960675e-02 7.741901e-02 
8.372367e-02 8.413100e-02 8.601491e-02 8.931559e-02 9.399108e-02 9.996828e-02 1.072306e-01 1.157431e-01 1.255490e-01 1.366891e-01 1.493220e-01 1.637288e-01 1.803770e-01 2.001077e-01 2.237211e-01 2.524197e-01 2.867636e-01 3.261944e-01 3.620385e-01 3.754261e-01 3.637634e-01 3.420266e-01 3.207330e-01 3.022673e-01 2.875650e-01 2.773250e-01 2.715167e-01 2.697295e-01 2.708692e-01 2.735400e-01 2.764952e-01 2.787678e-01 2.797602e-01 2.791833e-01 2.772085e-01 2.742397e-01 2.712648e-01 2.693911e-01 2.701041e-01 2.745594e-01 2.834500e-01 2.966271e-01 3.136255e-01 3.339639e-01 3.562581e-01 3.741148e-01 3.713112e-01 3.425767e-01 3.019454e-01 2.650118e-01 2.341642e-01 2.091761e-01 1.886166e-01 1.713694e-01 1.564546e-01 1.432333e-01 1.314461e-01 1.208973e-01 1.116126e-01 1.035566e-01 9.680831e-02 9.138570e-02 8.737245e-02 8.480099e-02 
9.086369e-02 9.137002e-02 9.360909e-02 9.750537e-02 1.030000e-01 1.099923e-01 1.184455e-01 1.282895e-01 1.395550e-01 1.522498e-01 1.665494e-01 1.827651e-01 2.014701e-01 2.236764e-01 2.502060e-01 2.822496e-01 3.205478e-01 3.588358e-01 3.781809e-01 3.690877e-01 3.453321e-01 3.209364e-01 2.993831e-01 2.811340e-01 2.667414e-01 2.565954e-01 2.505594e-01 2.481668e-01 2.484439e-01 2.502303e-01 2.524477e-01 2.542275e-01 2.550243e-01 2.545689e-01 2.530305e-01 2.508134e-01 2.487640e-01 2.478643e-01 2.493162e-01 2.541125e-01 2.629088e-01 2.757827e-01 2.926049e-01 3.128676e-01 3.364591e-01 3.613270e-01 3.785694e-01 3.702856e-01 3.362437e-01 2.963559e-01 2.620456e-01 2.339799e-01 2.108934e-01 1.914312e-01 1.746159e-01 1.596029e-01 1.461571e-01 1.340300e-01 1.233044e-01 1.139514e-01 1.060952e-01 9.977179e-02 9.509232e-02 9.210194e-02 
9.779162e-02 9.841312e-02 1.010451e-01 1.055938e-01 1.119793e-01 1.200667e-01 1.297948e-01 1.410442e-01 1.538322e-01 1.681108e-01 1.840856e-01 2.020616e-01 2.227436e-01 2.472777e-01 2.763480e-01 3.118725e-01 3.520722e-01 3.800148e-01 3.786528e-01 3.543729e-01 3.276498e-01 3.030647e-01 2.816799e-01 2.636487e-01 2.493106e-01 2.388377e-01 2.321050e-01 2.286693e-01 2.277459e-01 2.284020e-01 2.297093e-01 2.308993e-01 2.314609e-01 2.311537e-01 2.301289e-01 2.287852e-01 2.278548e-01 2.282016e-01 2.307791e-01 2.363945e-01 2.455680e-01 2.584813e-01 2.750982e-01 2.951909e-01 3.186836e-01 3.447621e-01 3.713955e-01 3.839736e-01 3.663450e-01 3.279960e-01 2.899029e-01 2.590255e-01 2.334473e-01 2.117863e-01 1.930643e-01 1.762244e-01 1.610739e-01 1.473061e-01 1.350682e-01 1.243439e-01 1.153095e-01 1.080260e-01 1.026352e-01 9.919751e-02 
1.043852e-01 1.051374e-01 1.081931e-01 1.134385e-01 1.207670e-01 1.300056e-01 1.410605e-01 1.537557e-01 1.680874e-01 1.839405e-01 2.015541e-01 2.212091e-01 2.437504e-01 2.704868e-01 3.017325e-01 3.406435e-01 3.772932e-01 3.888826e-01 3.695393e-01 3.407969e-01 3.136303e-01 2.894131e-01 2.681524e-01 2.500908e-01 2.353832e-01 2.241814e-01 2.163824e-01 2.116399e-01 2.093279e-01 2.086912e-01 2.089502e-01 2.094451e-01 2.097254e-01 2.095914e-01 2.091631e-01 2.088039e-01 2.091289e-01 2.108734e-01 2.147993e-01 2.215541e-01 2.315448e-01 2.449204e-01 2.616648e-01 2.816138e-01 3.046506e-01 3.307187e-01 3.588398e-01 3.849347e-01 3.863007e-01 3.572698e-01 3.169200e-01 2.832696e-01 2.555731e-01 2.318145e-01 2.112962e-01 1.926663e-01 1.758327e-01 1.604179e-01 1.466462e-01 1.345190e-01 1.242699e-01 1.159919e-01 1.098603e-01 1.059598e-01 
1.105306e-01 1.114270e-01 1.149276e-01 1.208966e-01 1.291971e-01 1.396128e-01 1.520127e-01 1.661559e-01 1.820155e-01 1.993829e-01 2.185674e-01 2.397094e-01 2.640260e-01 2.924815e-01 3.264927e-01 3.666007e-01 3.935657e-01 3.881485e-01 3.594796e-01 3.307530e-01 3.041381e-01 2.802707e-01 2.590042e-01 2.405334e-01 2.250628e-01 2.127472e-01 2.035848e-01 1.973342e-01 1.935132e-01 1.915131e-01 1.906820e-01 1.904607e-01 1.904534e-01 1.904940e-01 1.906752e-01 1.913226e-01 1.929482e-01 1.961749e-01 2.016096e-01 2.097642e-01 2.209362e-01 2.351925e-01 2.524733e-01 2.725192e-01 2.953326e-01 3.206059e-01 3.486347e-01 3.784528e-01 3.967792e-01 3.817872e-01 3.431538e-01 3.061368e-01 2.768128e-01 2.510334e-01 2.288677e-01 2.085363e-01 1.900797e-01 1.730636e-01 1.577747e-01 1.442554e-01 1.327880e-01 1.235116e-01 1.166334e-01 1.122691e-01 
1.161178e-01 1.171680e-01 1.211220e-01 1.278204e-01 1.370900e-01 1.486764e-01 1.623998e-01 1.779603e-01 1.952916e-01 2.140860e-01 2.347125e-01 2.570914e-01 2.829075e-01 3.124218e-01 3.495325e-01 3.878402e-01 4.027219e-01 3.831464e-01 3.532262e-01 3.248780e-01 2.992213e-01 2.754677e-01 2.539296e-01 2.346979e-01 2.181392e-01 2.044608e-01 1.937572e-01 1.858944e-01 1.805197e-01 1.771463e-01 1.752271e-01 1.742908e-01 1.739973e-01 1.742069e-01 1.749921e-01 1.766332e-01 1.795562e-01 1.842832e-01 1.913044e-01 2.010207e-01 2.136257e-01 2.290813e-01 2.472493e-01 2.677809e-01 2.906548e-01 3.153896e-01 3.429911e-01 3.717790e-01 3.999977e-01 3.990762e-01 3.664026e-01 3.271762e-01 2.964767e-01 2.689705e-01 2.452819e-01 2.234194e-01 2.034340e-01 1.849154e-01 1.681717e-01 1.533184e-01 1.406705e-01 1.304266e-01 1.228219e-01 1.180092e-01 
1.210476e-01 1.222546e-01 1.266502e-01 1.340531e-01 1.442530e-01 1.569655e-01 1.719535e-01 1.888792e-01 2.076033e-01 2.277615e-01 2.496936e-01 2.731748e-01 3.000816e-01 3.301439e-01 3.690881e-01 4.035435e-01 4.069709e-01 3.796514e-01 3.514594e-01 3.238440e-01 2.985981e-01 2.745711e-01 2.523583e-01 2.320752e-01 2.141998e-01 1.990159e-01 1.867074e-01 1.772312e-01 1.703369e-01 1.656376e-01 1.626804e-01 1.610661e-01 1.605004e-01 1.608650e-01 1.622166e-01 1.647956e-01 1.689594e-01 1.751499e-01 1.837638e-01 1.950955e-01 2.092411e-01 2.260858e-01 2.453780e-01 2.667054e-01 2.898835e-01 3.144740e-01 3.411424e-01 3.689604e-01 3.994425e-01 4.103451e-01 3.857255e-01 3.468009e-01 3.141853e-01 2.853629e-01 2.601918e-01 2.370095e-01 2.155915e-01 1.956958e-01 1.775884e-01 1.614945e-01 1.477404e-01 1.365920e-01 1.283062e-01 1.230763e-01 
1.252278e-01 1.265856e-01 1.313880e-01 1.394388e-01 1.504908e-01 1.642421e-01 1.803939e-01 1.986037e-01 2.186295e-01 2.401278e-01 2.632859e-01 2.879504e-01 3.157281e-01 3.464238e-01 3.850496e-01 4.144800e-01 4.088466e-01 3.800385e-01 3.530893e-01 3.262196e-01 3.008932e-01 2.763642e-01 2.532657e-01 2.318218e-01 2.125732e-01 1.958944e-01 1.820386e-01 1.710481e-01 1.627501e-01 1.568408e-01 1.529414e-01 1.507120e-01 1.498991e-01 1.503994e-01 1.522607e-01 1.556896e-01 1.609916e-01 1.685346e-01 1.786351e-01 1.915138e-01 2.071746e-01 2.254487e-01 2.459480e-01 2.682403e-01 2.918906e-01 3.166163e-01 3.424502e-01 3.696350e-01 3.983998e-01 4.176740e-01 4.014543e-01 3.641233e-01 3.292599e-01 2.996633e-01 2.732364e-01 2.489738e-01 2.262577e-01 2.051296e-01 1.857842e-01 1.685771e-01 1.538282e-01 1.418706e-01 1.329750e-01 1.273742e-01 
1.285778e-01 1.300690e-01 1.352211e-01 1.438283e-01 1.556107e-01 1.702608e-01 1.874224e-01 2.067785e-01 2.279683e-01 2.507460e-01 2.750239e-01 3.009643e-01 3.294845e-01 3.613606e-01 3.986132e-01 4.221347e-01 4.098119e-01 3.822088e-01 3.558947e-01 3.298151e-01 3.043456e-01 2.794146e-01 2.554689e-01 2.329708e-01 2.124636e-01 1.944479e-01 1.792261e-01 1.669205e-01 1.574180e-01 1.504791e-01 1.457820e-01 1.430328e-01 1.420102e-01 1.426236e-01 1.449177e-01 1.490688e-01 1.553386e-01 1.640417e-01 1.754321e-01 1.896775e-01 2.067016e-01 2.262988e-01 2.479496e-01 2.712243e-01 2.954448e-01 3.204722e-01 3.458035e-01 3.722419e-01 3.988902e-01 4.222194e-01 4.129148e-01 3.773995e-01 3.415486e-01 3.116183e-01 2.842768e-01 2.590584e-01 2.351837e-01 2.129593e-01 1.925332e-01 1.743716e-01 1.587776e-01 1.461379e-01 1.367298e-01 1.308195e-01 
1.310284e-01 1.326247e-01 1.380472e-01 1.470846e-01 1.594314e-01 1.747828e-01 1.927352e-01 2.130127e-01 2.351437e-01 2.590031e-01 2.841945e-01 3.112276e-01 3.402116e-01 3.731031e-01 4.088745e-01 4.271968e-01 4.105177e-01 3.844586e-01 3.585436e-01 3.331647e-01 3.076343e-01 2.824716e-01 2.578796e-01 2.345697e-01 2.130706e-01 1.940068e-01 1.777163e-01 1.643910e-01 1.539600e-01 1.462325e-01 1.409264e-01 1.377809e-01 1.365984e-01 1.372975e-01 1.399227e-01 1.446252e-01 1.516364e-01 1.612341e-01 1.736263e-01 1.889456e-01 2.070499e-01 2.277113e-01 2.502961e-01 2.743804e-01 2.990877e-01 3.243457e-01 3.493436e-01 3.750202e-01 4.004779e-01 4.251186e-01 4.207000e-01 3.873390e-01 3.517330e-01 3.213732e-01 2.932048e-01 2.670111e-01 2.420981e-01 2.189267e-01 1.976178e-01 1.786995e-01 1.624488e-01 1.492852e-01 1.394858e-01 1.333408e-01 
1.325251e-01 1.341886e-01 1.397824e-01 1.490922e-01 1.617966e-01 1.775952e-01 1.960554e-01 2.169371e-01 2.396948e-01 2.642995e-01 2.901239e-01 3.179036e-01 3.471532e-01 3.804370e-01 4.150084e-01 4.299539e-01 4.111380e-01 3.859837e-01 3.603799e-01 3.354577e-01 3.099403e-01 2.846772e-01 2.596914e-01 2.358767e-01 2.137411e-01 1.940067e-01 1.770312e-01 1.630568e-01 1.520375e-01 1.438128e-01 1.381242e-01 1.347300e-01 1.334474e-01 1.342013e-01 1.370341e-01 1.420833e-01 1.495622e-01 1.597273e-01 1.727586e-01 1.887688e-01 2.075726e-01 2.289283e-01 2.521251e-01 2.767385e-01 3.017644e-01 3.271457e-01 3.519336e-01 3.770606e-01 4.019654e-01 4.269192e-01 4.254633e-01 3.940617e-01 3.590359e-01 3.281012e-01 2.992388e-01 2.722210e-01 2.465404e-01 2.226950e-01 2.007945e-01 1.813822e-01 1.647125e-01 1.512176e-01 1.411724e-01 1.348808e-01 
1.330301e-01 1.347168e-01 1.403696e-01 1.497733e-01 1.626009e-01 1.785542e-01 1.971911e-01 2.182864e-01 2.412705e-01 2.661549e-01 2.922241e-01 3.203021e-01 3.496763e-01 3.830655e-01 4.171579e-01 4.308562e-01 4.113374e-01 3.864066e-01 3.609427e-01 3.362030e-01 3.107239e-01 2.854492e-01 2.603438e-01 2.363633e-01 2.140128e-01 1.940487e-01 1.768381e-01 1.626409e-01 1.514200e-01 1.430255e-01 1.372064e-01 1.337276e-01 1.324109e-01 1.331833e-01 1.360867e-01 1.412540e-01 1.488925e-01 1.592524e-01 1.725037e-01 1.887533e-01 2.077999e-01 2.293979e-01 2.528087e-01 2.776063e-01 3.027457e-01 3.281684e-01 3.529010e-01 3.778542e-01 4.026051e-01 4.275618e-01 4.271068e-01 3.965016e-01 3.617804e-01 3.305592e-01 3.014127e-01 2.740601e-01 2.480876e-01 2.239931e-01 2.018813e-01 1.822960e-01 1.654812e-01 1.518721e-01 1.417425e-01 1.354005e-01 
1.325251e-01 1.341886e-01 1.397824e-01 1.490922e-01 1.617966e-01 1.775952e-01 1.960554e-01 2.169371e-01 2.396948e-01 2.642995e-01 2.901239e-01 3.179036e-01 3.471532e-01 3.804370e-01 4.150084e-01 4.299539e-01 4.111380e-01 3.859837e-01 3.603799e-01 3.354577e-01 3.099403e-01 2.846772e-01 2.596914e-01 2.358767e-01 2.137411e-01 1.940067e-01 1.770312e-01 1.630568e-01 1.520375e-01 1.438128e-01 1.381242e-01 1.347300e-01 1.334474e-01 1.342013e-01 1.370341e-01 1.420833e-01 1.495622e-01 1.597273e-01 1.727586e-01 1.887688e-01 2.075726e-01 2.289283e-01 2.521251e-01 2.767385e-01 3.017644e-01 3.271457e-01 3.519336e-01 3.770606e-01 4.019654e-01 4.269192e-01 4.254633e-01 3.940617e-01 3.590359e-01 3.281012e-01 2.992388e-01 2.722210e-01 2.465404e-01 2.226950e-01 2.007945e-01 1.813822e-01 1.647125e-01 1.512176e-01 1.411724e-01 1.348808e-01 
1.310284e-01 1.326247e-01 1.380472e-01 1.470846e-01 1.594314e-01 1.747828e-01 1.927352e-01 2.130127e-01 2.351437e-01 2.590031e-01 2.841945e-01 3.112276e-01 3.402116e-01 3.731031e-01 4.088745e-01 4.271968e-01 4.105177e-01 3.844586e-01 3.585436e-01 3.331647e-01 3.076343e-01 2.824716e-01 2.578796e-01 2.345697e-01 2.130706e-01 1.940068e-01 1.777163e-01 1.643910e-01 1.539600e-01 1.462325e-01 1.409264e-01 1.377809e-01 1.365984e-01 1.372975e-01 1.399227e-01 1.446252e-01 1.516364e-01 1.612341e-01 1.736263e-01 1.889456e-01 2.070499e-01 2.277113e-01 2.502961e-01 2.743804e-01 2.990877e-01 3.243457e-01 3.493436e-01 3.750202e-01 4.004779e-01 4.251186e-01 4.207000e-01 3.873390e-01 3.517330e-01 3.213732e-01 2.932048e-01 2.670111e-01 2.420981e-01 2.189267e-01 1.976178e-01 1.786995e-01 1.624488e-01 1.492852e-01 1.394858e-01 1.333408e-01 