# vtk DataFile Version 2.0
Comment goes here
ASCII

DATASET STRUCTURED_POINTS
FIELD FieldData 1
TIME 1 1 double
0.15000000
DIMENSIONS    64   64   1

ORIGIN    0.000   0.000   0.000
SPACING   0.015625 0.015625   1.000

POINT_DATA   4096
SCALARS Concentration double
LOOKUP_TABLE default

2.435366e-12 4.353849e-12 1.266715e-11 3.787914e-11 1.090615e-10 3.002237e-10 7.889913e-10 1.978509e-09 4.731465e-09 1.079109e-08 2.347011e-08 4.871234e-08 9.654123e-08 1.829904e-07 3.323403e-07 5.801885e-07 9.775559e-07 1.599064e-06 2.557202e-06 4.030067e-06 6.303664e-06 9.839724e-06 1.537080e-05 2.406172e-05 3.770288e-05 5.886703e-05 9.078121e-05 1.365866e-04 1.975157e-04 2.701260e-04 3.437269e-04 4.008161e-04 4.229353e-04 4.008228e-04 3.437372e-04 2.701355e-04 1.975228e-04 1.365906e-04 9.078259e-05 5.886688e-05 3.770183e-05 2.406054e-05 1.536970e-05 9.838919e-06 6.303094e-06 4.029728e-06 2.557009e-06 1.598976e-06 9.775180e-07 5.801784e-07 3.323393e-07 1.829925e-07 9.654310e-08 4.871354e-08 2.347076e-08 1.079138e-08 4.731592e-09 1.978552e-09 7.890087e-10 3.002282e-10 1.090632e-10 3.787947e-11 1.266727e-11 4.353869e-12 
4.509343e-12 8.020004e-12 2.315632e-11 6.871289e-11 1.961812e-10 5.350863e-10 1.391973e-09 3.451937e-09 8.155098e-09 1.835495e-08 3.935183e-08 8.041848e-08 1.567342e-07 2.917793e-07 5.197203e-07 8.884587e-07 1.463329e-06 2.335588e-06 3.637998e-06 5.576570e-06 8.478206e-06 1.286373e-05 1.954199e-05 2.976995e-05 4.546809e-05 6.938455e-05 1.049547e-04 1.555069e-04 2.223072e-04 3.015846e-04 3.817550e-04 4.438703e-04 4.679320e-04 4.438777e-04 3.817665e-04 3.015951e-04 2.223148e-04 1.555108e-04 1.049555e-04 6.938359e-05 4.546620e-05 2.976806e-05 1.954035e-05 1.286256e-05 8.477405e-06 5.576118e-06 3.637753e-06 2.335494e-06 1.463298e-06 8.884624e-07 5.197292e-07 2.917887e-07 1.567399e-07 8.042182e-08 3.935343e-08 1.835565e-08 8.155391e-09 3.452040e-09 1.392012e-09 5.350974e-10 1.961852e-10 6.871378e-11 2.315663e-11 8.020063e-12 
1.363569e-11 2.408903e-11 6.886397e-11 2.022852e-10 5.711854e-10 1.539023e-09 3.949852e-09 9.650716e-09 2.242976e-08 4.959001e-08 1.042642e-07 2.086043e-07 3.973030e-07 7.213402e-07 1.250259e-06 2.074366e-06 3.305896e-06 5.087688e-06 7.612429e-06 1.116778e-05 1.620158e-05 2.340905e-05 3.381756e-05 4.894070e-05 7.106250e-05 1.034268e-04 1.500663e-04 2.148500e-04 2.991463e-04 3.982260e-04 4.978847e-04 5.749069e-04 6.047336e-04 5.749169e-04 4.979005e-04 3.982397e-04 2.991558e-04 2.148535e-04 1.500652e-04 1.034230e-04 7.105765e-05 4.893629e-05 3.381404e-05 2.340669e-05 1.620005e-05 1.116702e-05 7.612079e-06 5.087638e-06 3.305930e-06 2.074446e-06 1.250318e-06 7.213843e-07 3.973265e-07 2.086170e-07 1.042699e-07 4.959247e-08 2.243073e-08 9.651058e-09 3.949975e-09 1.539059e-09 5.711980e-10 2.022881e-10 6.886499e-11 2.408923e-11 
4.186805e-11 7.352823e-11 2.083560e-10 6.065837e-10 1.696123e-09 4.521139e-09 1.146595e-08 2.765132e-08 6.335229e-08 1.379021e-07 2.850821e-07 5.600582e-07 1.045874e-06 1.859004e-06 3.148991e-06 5.095798e-06 7.901634e-06 1.179671e-05 1.706410e-05 2.411252e-05 3.358037e-05 4.644847e-05 6.409528e-05 8.839878e-05 1.221763e-04 1.694320e-04 2.351491e-04 3.240923e-04 4.378459e-04 5.701644e-04 7.025428e-04 8.046376e-04 8.441843e-04 8.046524e-04 7.025665e-04 5.701838e-04 4.378579e-04 3.240933e-04 2.351425e-04 1.694208e-04 1.221645e-04 8.838867e-05 6.408773e-05 4.644371e-05 3.357753e-05 2.411138e-05 1.706379e-05 1.179699e-05 7.901971e-06 5.096161e-06 3.149221e-06 1.859160e-06 1.045952e-06 5.600993e-07 2.850996e-07 1.379096e-07 6.335509e-08 2.765231e-08 1.146630e-08 4.521242e-09 1.696158e-09 6.065921e-10 2.083590e-10 7.352886e-11 
1.231893e-10 2.151353e-10 6.045496e-10 1.745054e-09 4.834166e-09 1.275387e-08 3.197889e-08 7.616599e-08 1.721460e-07 3.692425e-07 7.512931e-07 1.451065e-06 2.660952e-06 4.639068e-06 7.697374e-06 1.218294e-05 1.844258e-05 2.681752e-05 3.767518e-05 5.153693e-05 6.926290e-05 9.221062e-05 1.222300e-04 1.615787e-04 2.136622e-04 2.834245e-04 3.771162e-04 5.007710e-04 6.563900e-04 8.357630e-04 1.014477e-03 1.152153e-03 1.205531e-03 1.152177e-03 1.014515e-03 8.357914e-04 6.564047e-04 5.007649e-04 3.770969e-04 2.833978e-04 2.136360e-04 1.615575e-04 1.222153e-04 9.220208e-05 6.925851e-05 5.153613e-05 3.767582e-05 2.681919e-05 1.844399e-05 1.218419e-05 7.698113e-06 4.639540e-06 2.661177e-06 1.451179e-06 7.513390e-07 3.692617e-07 1.721529e-07 7.616835e-08 3.197970e-08 1.275410e-08 4.834249e-09 1.745073e-09 6.045572e-10 2.151369e-10 
3.462412e-10 6.014376e-10 1.676509e-09 4.799352e-09 1.317466e-08 3.440990e-08 8.532116e-08 2.007445e-07 4.476936e-07 9.465348e-07 1.896304e-06 3.602696e-06 6.492144e-06 1.111156e-05 1.808157e-05 2.803456e-05 4.151424e-05 5.894165e-05 8.066045e-05 1.071712e-04 1.394878e-04 1.793836e-04 2.292905e-04 2.917212e-04 3.705504e-04 4.717386e-04 6.031015e-04 7.723908e-04 9.823866e-04 1.222663e-03 1.461428e-03 1.645356e-03 1.716773e-03 1.645393e-03 1.461487e-03 1.222703e-03 9.824008e-04 7.723658e-04 6.030539e-04 4.716795e-04 3.704966e-04 2.916799e-04 2.292639e-04 1.793702e-04 1.394829e-04 1.071734e-04 8.066484e-05 5.894762e-05 4.151874e-05 2.803819e-05 1.808362e-05 1.111281e-05 6.492712e-06 3.602976e-06 1.896411e-06 9.465775e-07 4.477081e-07 2.007493e-07 8.532282e-08 3.441037e-08 1.317484e-08 4.799398e-09 1.676530e-09 6.014424e-10 
9.309156e-10 1.608807e-09 4.449874e-09 1.263627e-08 3.437932e-08 8.890408e-08 2.180175e-07 5.067585e-07 1.115245e-06 2.324384e-06 4.585777e-06 8.571905e-06 1.518460e-05 2.552844e-05 4.077318e-05 6.199549e-05 8.993742e-05 1.249228e-04 1.669332e-04 2.160565e-04 2.731834e-04 3.404283e-04 4.209043e-04 5.171457e-04 6.331106e-04 7.757435e-04 9.547581e-04 1.180203e-03 1.456222e-03 1.770160e-03 2.081627e-03 2.321666e-03 2.415007e-03 2.321724e-03 2.081720e-03 1.770214e-03 1.456228e-03 1.180136e-03 9.546540e-04 7.756234e-04 6.330076e-04 5.170715e-04 4.208616e-04 3.404121e-04 2.731836e-04 2.160704e-04 1.669494e-04 1.249406e-04 8.995001e-05 6.200506e-05 4.077831e-05 2.553146e-05 1.518588e-05 8.572506e-06 4.585985e-06 2.324462e-06 1.115269e-06 5.067658e-07 2.180201e-07 8.890481e-08 3.437970e-08 1.263638e-08 4.449932e-09 1.608822e-09 
2.398610e-09 4.125402e-09 1.132628e-08 3.191231e-08 8.606527e-08 2.203814e-07 5.345083e-07 1.227375e-06 2.665337e-06 5.475666e-06 1.063773e-05 1.956371e-05 3.407057e-05 5.627640e-05 8.825616e-05 1.316868e-04 1.873410e-04 2.549324e-04 3.332982e-04 4.212495e-04 5.189441e-04 6.286093e-04 7.542007e-04 8.978481e-04 1.062966e-03 1.257431e-03 1.493354e-03 1.783935e-03 2.135580e-03 2.533689e-03 2.928351e-03 3.232692e-03 3.351164e-03 3.232781e-03 2.928493e-03 2.533754e-03 2.135557e-03 1.783782e-03 1.493143e-03 1.257200e-03 1.062779e-03 8.977228e-04 7.541385e-04 6.285982e-04 5.189630e-04 4.212942e-04 3.333434e-04 2.549782e-04 1.873720e-04 1.317094e-04 8.826771e-05 5.628289e-05 3.407311e-05 1.956482e-05 1.063806e-05 5.475774e-06 2.665364e-06 1.227382e-06 5.345120e-07 2.203827e-07 8.606629e-08 3.191266e-08 1.132648e-08 4.125460e-09 
5.933393e-09 1.015942e-08 2.769763e-08 7.744991e-08 2.070855e-07 5.250980e-07 1.259542e-06 2.856884e-06 6.120471e-06 1.239111e-05 2.369797e-05 4.286954e-05 7.338350e-05 1.190824e-04 1.833885e-04 2.686108e-04 3.749680e-04 5.004236e-04 6.411415e-04 7.931084e-04 9.547036e-04 1.127867e-03 1.317533e-03 1.524981e-03 1.752181e-03 2.008018e-03 2.307884e-03 2.669366e-03 3.102352e-03 3.590759e-03 4.074603e-03 4.447648e-03 4.592819e-03 4.447782e-03 4.074817e-03 3.590831e-03 3.102270e-03 2.669057e-03 2.307487e-03 2.007600e-03 1.751861e-03 1.524783e-03 1.317455e-03 1.127885e-03 9.547765e-04 7.932293e-04 6.412554e-04 5.005330e-04 3.750393e-04 2.686607e-04 1.834124e-04 1.190951e-04 7.338780e-05 4.287116e-05 2.369827e-05 1.239114e-05 6.120456e-06 2.856873e-06 1.259545e-06 5.251005e-07 2.070886e-07 7.745114e-08 2.769832e-08 1.015964e-08 
1.411815e-08 2.407577e-08 6.520864e-08 1.810165e-07 4.799231e-07 1.205091e-06 2.858530e-06 6.403051e-06 1.352875e-05 2.698041e-05 5.077452e-05 9.030678e-05 1.518843e-04 2.420539e-04 3.659690e-04 5.261532e-04 7.208256e-04 9.439121e-04 1.186272e-03 1.438630e-03 1.696302e-03 1.960664e-03 2.238198e-03 2.527880e-03 2.829738e-03 3.154342e-03 3.521905e-03 3.956147e-03 4.471826e-03 5.051852e-03 5.625804e-03 6.067636e-03 6.239193e-03 6.067836e-03 5.626127e-03 5.051926e-03 4.471645e-03 3.955576e-03 3.521202e-03 3.153615e-03 2.829210e-03 2.527576e-03 2.238112e-03 1.960752e-03 1.696485e-03 1.438907e-03 1.186525e-03 9.441493e-04 7.209747e-04 5.262537e-04 3.660134e-04 2.420753e-04 1.518899e-04 9.030806e-05 5.077414e-05 2.698004e-05 1.352858e-05 6.402995e-06 2.858540e-06 1.205103e-06 4.799344e-07 1.810214e-07 6.521111e-08 2.407654e-08 
3.237453e-08 5.500951e-08 1.480975e-07 4.082517e-07 1.073431e-06 2.669150e-06 6.260010e-06 1.384341e-05 2.883312e-05 5.661131e-05 1.047651e-04 1.830829e-04 3.023451e-04 4.729466e-04 7.016805e-04 9.898797e-04 1.330713e-03 1.710138e-03 2.109790e-03 2.512158e-03 2.908587e-03 3.300103e-03 3.694625e-03 4.086677e-03 4.474539e-03 4.872114e-03 5.306984e-03 5.811130e-03 6.405448e-03 7.071803e-03 7.729229e-03 8.233112e-03 8.427718e-03 8.233414e-03 7.729732e-03 7.071891e-03 6.405140e-03 5.810162e-03 5.305812e-03 4.870902e-03 4.473690e-03 4.086217e-03 3.694545e-03 3.300339e-03 2.908993e-03 2.512747e-03 2.110322e-03 1.710629e-03 1.331009e-03 9.900700e-04 7.017554e-04 4.729769e-04 3.023480e-04 1.830804e-04 1.047620e-04 5.660955e-05 2.883250e-05 1.384324e-05 6.260055e-06 2.669196e-06 1.073470e-06 4.082688e-07 1.481056e-07 5.501205e-08 
7.168771e-08 1.214338e-07 3.251560e-07 8.904134e-07 2.322165e-06 5.717778e-06 1.325587e-05 2.892829e-05 5.936066e-05 1.146636e-04 2.085067e-04 3.577351e-04 5.796370e-04 8.893543e-04 1.294035e-03 1.790399e-03 2.360984e-03 2.977415e-03 3.606967e-03 4.220835e-03 4.807435e-03 5.369269e-03 5.915578e-03 6.430917e-03 6.915522e-03 7.389943e-03 7.892119e-03 8.463947e-03 9.132390e-03 9.877321e-03 1.060723e-02 1.116209e-02 1.137458e-02 1.116255e-02 1.060805e-02 9.877486e-03 9.131999e-03 8.462447e-03 7.890297e-03 7.387997e-03 6.914196e-03 6.430209e-03 5.915478e-03 5.369718e-03 4.808170e-03 4.221948e-03 3.607979e-03 2.978355e-03 2.361528e-03 1.790730e-03 1.294144e-03 8.893833e-04 5.796250e-04 3.577196e-04 2.084963e-04 1.146584e-04 5.935919e-05 2.892804e-05 1.325612e-05 5.717973e-06 2.322297e-06 8.904711e-07 3.251814e-07 1.214418e-07 
1.535728e-07 2.594855e-07 6.915040e-07 1.881756e-06 4.868295e-06 1.186852e-05 2.719045e-05 5.852458e-05 1.182284e-04 2.244849e-04 4.007289e-04 6.743858e-04 1.071187e-03 1.610966e-03 2.297333e-03 3.115948e-03 4.029332e-03 4.986260e-03 5.935031e-03 6.835476e-03 7.678356e-03 8.469512e-03 9.209821e-03 9.873737e-03 1.046936e-02 1.102820e-02 1.160182e-02 1.224221e-02 1.298034e-02 1.379186e-02 1.457620e-02 1.516497e-02 1.538865e-02 1.516574e-02 1.457762e-02 1.379228e-02 1.298008e-02 1.224012e-02 1.159919e-02 1.102520e-02 1.046734e-02 9.872615e-03 9.209610e-03 8.470250e-03 7.679602e-03 6.837486e-03 5.936886e-03 4.988003e-03 4.030288e-03 3.116490e-03 2.297468e-03 1.610960e-03 1.071129e-03 6.743352e-04 4.007009e-04 2.244718e-04 1.182253e-04 5.852449e-05 2.719141e-05 1.186917e-05 4.868698e-06 1.881929e-06 6.915778e-07 2.595086e-07 
3.188660e-07 5.377492e-07 1.427200e-06 3.860775e-06 9.909029e-06 2.391441e-05 5.411591e-05 1.148050e-04 2.281218e-04 4.253380e-04 7.446028e-04 1.227966e-03 1.910644e-03 2.814859e-03 3.933023e-03 5.228833e-03 6.631527e-03 8.056920e-03 9.431854e-03 1.070704e-02 1.188592e-02 1.297861e-02 1.395531e-02 1.480105e-02 1.554005e-02 1.621752e-02 1.689573e-02 1.763037e-02 1.844969e-02 1.932385e-02 2.014821e-02 2.075698e-02 2.098777e-02 2.075826e-02 2.015074e-02 1.932489e-02 1.845007e-02 1.762790e-02 1.689237e-02 1.621328e-02 1.553725e-02 1.479937e-02 1.395469e-02 1.297948e-02 1.188754e-02 1.071018e-02 9.434894e-03 8.059947e-03 6.633109e-03 5.229665e-03 3.933153e-03 2.814741e-03 1.910483e-03 1.227837e-03 7.445394e-04 4.253106e-04 2.281180e-04 1.148070e-04 5.411935e-05 2.391653e-05 9.910218e-06 3.861279e-06 1.427406e-06 5.378130e-07 
6.427156e-07 1.082513e-06 2.863297e-06 7.701924e-06 1.961098e-05 4.683719e-05 1.046264e-04 2.185759e-04 4.267347e-04 7.803942e-04 1.338253e-03 2.160777e-03 3.291202e-03 4.748722e-03 6.500647e-03 8.473921e-03 1.054572e-02 1.259093e-02 1.452370e-02 1.630104e-02 1.795462e-02 1.944244e-02 2.073424e-02 2.183601e-02 2.279116e-02 2.365602e-02 2.449869e-02 2.537159e-02 2.629601e-02 2.723726e-02 2.809265e-02 2.871061e-02 2.894529e-02 2.871285e-02 2.809733e-02 2.723957e-02 2.629793e-02 2.536922e-02 2.449491e-02 2.365064e-02 2.278786e-02 2.183378e-02 2.073269e-02 1.944296e-02 1.795665e-02 1.630570e-02 1.452847e-02 1.259605e-02 1.054823e-02 8.475126e-03 6.500705e-03 4.748335e-03 3.290828e-03 2.160490e-03 1.338122e-03 7.803420e-04 4.267333e-04 2.185848e-04 1.046366e-04 4.684316e-05 1.961418e-05 7.703267e-06 2.863832e-06 1.082678e-06 
1.259364e-06 2.119759e-06 5.591518e-06 1.495893e-05 3.778154e-05 8.925373e-05 1.966545e-04 4.041274e-04 7.742117e-04 1.386891e-03 2.327141e-03 3.676024e-03 5.479986e-03 7.745350e-03 1.039571e-02 1.330240e-02 1.627336e-02 1.915064e-02 2.185271e-02 2.434027e-02 2.659455e-02 2.857737e-02 3.030098e-02 3.180244e-02 3.314054e-02 3.436502e-02 3.553003e-02 3.667138e-02 3.779373e-02 3.886015e-02 3.977530e-02 4.041434e-02 4.065732e-02 4.041819e-02 3.978401e-02 3.886458e-02 3.779843e-02 3.666938e-02 3.552615e-02 3.435919e-02 3.313913e-02 3.180151e-02 3.029791e-02 2.857616e-02 2.659515e-02 2.434538e-02 2.185892e-02 1.915867e-02 1.627731e-02 1.330415e-02 1.039572e-02 7.744460e-03 5.479242e-03 3.675449e-03 2.326900e-03 1.386810e-03 7.742312e-04 4.041607e-04 1.966838e-04 8.927014e-05 3.778987e-05 1.496238e-05 5.592857e-06 2.120170e-06 
2.401456e-06 4.042005e-06 1.063938e-05 2.831107e-05 7.090705e-05 1.655660e-04 3.594357e-04 7.255779e-04 1.361941e-03 2.386473e-03 3.914412e-03 6.047411e-03 8.826816e-03 1.223555e-02 1.612237e-02 2.028735e-02 2.445055e-02 2.845552e-02 3.223124e-02 3.567652e-02 3.881473e-02 4.162811e-02 4.411376e-02 4.631305e-02 4.830048e-02 5.011489e-02 5.179831e-02 5.337316e-02 5.483218e-02 5.613724e-02 5.719345e-02 5.790401e-02 5.817443e-02 5.791055e-02 5.720903e-02 5.614380e-02 5.484012e-02 5.337017e-02 5.179267e-02 5.010943e-02 4.830698e-02 4.631815e-02 4.410750e-02 4.162235e-02 3.881326e-02 3.568183e-02 3.223900e-02 2.846697e-02 2.445624e-02 2.028958e-02 1.612246e-02 1.223381e-02 8.825490e-03 6.046374e-03 3.914004e-03 2.386372e-03 1.362021e-03 7.256720e-04 3.595098e-04 1.656065e-04 7.092711e-05 2.831932e-05 1.064254e-05 4.042973e-06 
4.459905e-06 7.511004e-06 1.973855e-05 5.223946e-05 1.296757e-04 2.989955e-04 6.386980e-04 1.264496e-03 2.321638e-03 3.974366e-03 6.369655e-03 9.631785e-03 1.378657e-02 1.876678e-02 2.432216e-02 3.019199e-02 3.602707e-02 4.164978e-02 4.694849e-02 5.173115e-02 5.608185e-02 6.007462e-02 6.372762e-02 6.709518e-02 7.025884e-02 7.319048e-02 7.585983e-02 7.826892e-02 8.038403e-02 8.217170e-02 8.353973e-02 8.442086e-02 8.474956e-02 8.442756e-02 8.356039e-02 8.217727e-02 8.039584e-02 7.825968e-02 7.584335e-02 7.318182e-02 7.029061e-02 6.712448e-02 6.371801e-02 6.005712e-02 5.607271e-02 5.173220e-02 4.695448e-02 4.166658e-02 3.603686e-02 3.019502e-02 2.432300e-02 1.876400e-02 1.378435e-02 9.629999e-03 6.369023e-03 3.974320e-03 2.321900e-03 1.264750e-03 6.388796e-04 2.990922e-04 1.297222e-04 5.225833e-05 1.974565e-05 7.513169e-06 
8.070629e-06 1.360773e-05 3.571903e-05 9.399869e-05 2.311068e-04 5.255272e-04 1.102886e-03 2.137474e-03 3.832502e-03 6.405112e-03 1.004147e-02 1.488709e-02 2.093689e-02 2.807389e-02 3.592170e-02 4.411122e-02 5.209531e-02 5.966973e-02 6.690736e-02 7.371551e-02 8.035952e-02 8.687727e-02 9.285671e-02 9.812625e-02 1.028858e-01 1.071830e-01 1.109726e-01 1.142522e-01 1.169272e-01 1.189584e-01 1.203721e-01 1.212281e-01 1.215333e-01 1.212381e-01 1.203889e-01 1.189504e-01 1.169350e-01 1.142361e-01 1.109396e-01 1.071670e-01 1.029615e-01 9.819203e-02 9.282773e-02 8.683381e-02 8.035332e-02 7.372482e-02 6.691149e-02 5.969125e-02 5.210655e-02 4.411213e-02 3.592375e-02 2.807043e-02 2.093366e-02 1.488453e-02 1.004054e-02 6.405251e-03 3.833140e-03 2.138052e-03 1.103282e-03 5.257356e-04 2.312058e-04 9.403882e-05 3.573408e-05 1.361231e-05 
1.423181e-05 2.403869e-05 6.305107e-05 1.649267e-04 4.012465e-04 8.985533e-04 1.849219e-03 3.502172e-03 6.125309e-03 1.000598e-02 1.537449e-02 2.241784e-02 3.108521e-02 4.106867e-02 5.180022e-02 6.280661e-02 7.367409e-02 8.470858e-02 9.594646e-02 1.060929e-01 1.148192e-01 1.221924e-01 1.275231e-01 1.307764e-01 1.324947e-01 1.331976e-01 1.332854e-01 1.330201e-01 1.326140e-01 1.322198e-01 1.319065e-01 1.317376e-01 1.316906e-01 1.317437e-01 1.319146e-01 1.322113e-01 1.326021e-01 1.330030e-01 1.332702e-01 1.332084e-01 1.325206e-01 1.307713e-01 1.274932e-01 1.221763e-01 1.148422e-01 1.060968e-01 9.593344e-02 8.474405e-02 7.368967e-02 6.280109e-02 5.180172e-02 4.106388e-02 3.107927e-02 2.241372e-02 1.537315e-02 1.000670e-02 6.126815e-03 3.503462e-03 1.850057e-03 8.989864e-04 4.014478e-04 1.650077e-04 6.308115e-05 2.404783e-05 
2.444918e-05 4.139969e-05 1.085518e-04 2.821000e-04 6.784754e-04 1.493813e-03 3.009629e-03 5.561337e-03 9.493397e-03 1.518637e-02 2.296276e-02 3.299753e-02 4.503947e-02 5.856089e-02 7.314392e-02 8.887132e-02 1.046728e-01 1.189091e-01 1.299963e-01 1.359988e-01 1.374513e-01 1.355542e-01 1.317161e-01 1.271016e-01 1.222206e-01 1.174325e-01 1.130280e-01 1.093109e-01 1.064658e-01 1.044640e-01 1.031730e-01 1.024790e-01 1.022355e-01 1.024583e-01 1.031713e-01 1.044627e-01 1.064518e-01 1.092955e-01 1.130040e-01 1.174213e-01 1.222414e-01 1.271095e-01 1.316896e-01 1.355514e-01 1.374717e-01 1.360352e-01 1.300488e-01 1.189778e-01 1.046564e-01 8.885104e-02 7.315014e-02 5.856072e-02 4.503277e-02 3.299366e-02 2.296083e-02 1.518774e-02 9.496247e-03 5.563769e-03 3.011209e-03 1.494621e-03 6.788525e-04 2.822524e-04 1.086088e-04 4.141712e-05 
4.088175e-05 6.945955e-05 1.821743e-04 4.701223e-04 1.116637e-03 2.413262e-03 4.752519e-03 8.565632e-03 1.428847e-02 2.248181e-02 3.352203e-02 4.745915e-02 6.387471e-02 8.243697e-02 1.027197e-01 1.221711e-01 1.349745e-01 1.391521e-01 1.360206e-01 1.285524e-01 1.184388e-01 1.074212e-01 9.754994e-02 8.971999e-02 8.359541e-02 7.897426e-02 7.554276e-02 7.305515e-02 7.129128e-02 7.004952e-02 6.924003e-02 6.880632e-02 6.864658e-02 6.878835e-02 6.922852e-02 7.004091e-02 7.127906e-02 7.304419e-02 7.552153e-02 7.897727e-02 8.361091e-02 8.968500e-02 9.753521e-02 1.074446e-01 1.184535e-01 1.285908e-01 1.360886e-01 1.391492e-01 1.348905e-01 1.221831e-01 1.027603e-01 8.244551e-02 6.386761e-02 4.745695e-02 3.352209e-02 2.248585e-02 1.429436e-02 8.570430e-03 4.755458e-03 2.414721e-03 1.117309e-03 4.703941e-04 1.822766e-04 6.949127e-05 
6.642331e-05 1.133801e-04 2.977122e-04 7.626491e-04 1.787749e-03 3.787030e-03 7.286283e-03 1.281539e-02 2.095103e-02 3.250976e-02 4.783226e-02 6.690187e-02 8.936593e-02 1.136400e-01 1.321281e-01 1.385598e-01 1.336766e-01 1.212481e-01 1.059340e-01 9.197415e-02 8.062740e-02 7.170552e-02 6.444890e-02 5.868658e-02 5.413773e-02 5.081422e-02 4.848045e-02 4.688362e-02 4.581788e-02 4.513493e-02 4.472103e-02 4.451460e-02 4.443940e-02 4.450507e-02 4.471142e-02 4.512443e-02 4.580771e-02 4.687699e-02 4.847295e-02 5.081957e-02 5.412833e-02 5.864775e-02 6.447525e-02 7.177334e-02 8.062467e-02 9.194257e-02 1.059862e-01 1.212754e-01 1.335627e-01 1.386082e-01 1.321580e-01 1.136301e-01 8.936598e-02 6.691191e-02 4.783142e-02 3.251235e-02 2.095970e-02 1.282318e-02 7.291282e-03 3.789456e-03 1.788882e-03 7.631161e-04 2.978930e-04 1.134376e-04 
1.045586e-04 1.795909e-04 4.727700e-04 1.202108e-03 2.780478e-03 5.767133e-03 1.084511e-02 1.861037e-02 2.987334e-02 4.580773e-02 6.669641e-02 9.244506e-02 1.193867e-01 1.356948e-01 1.350600e-01 1.216717e-01 1.039213e-01 8.757569e-02 7.403187e-02 6.280266e-02 5.338941e-02 4.604866e-02 4.042229e-02 3.628149e-02 3.323445e-02 3.112307e-02 2.969972e-02 2.877756e-02 2.819691e-02 2.785546e-02 2.766467e-02 2.757888e-02 2.754697e-02 2.757376e-02 2.765757e-02 2.784724e-02 2.818965e-02 2.877298e-02 2.969552e-02 3.112271e-02 3.323066e-02 3.627356e-02 4.044803e-02 4.607856e-02 5.337758e-02 6.277107e-02 7.410057e-02 8.760280e-02 1.038344e-01 1.217394e-01 1.350532e-01 1.356584e-01 1.194044e-01 9.247302e-02 6.669986e-02 4.581927e-02 2.989103e-02 1.862434e-02 1.085363e-02 5.771030e-03 2.782287e-03 1.202864e-03 4.730759e-04 1.796916e-04 
1.588015e-04 2.749665e-04 7.268926e-04 1.834830e-03 4.190033e-03 8.499476e-03 1.562438e-02 2.616691e-02 4.134759e-02 6.289895e-02 9.057258e-02 1.203654e-01 1.359535e-01 1.306075e-01 1.123824e-01 9.259846e-02 7.625937e-02 6.264418e-02 5.129454e-02 4.212555e-02 3.476019e-02 2.910667e-02 2.484882e-02 2.178320e-02 1.960899e-02 1.815585e-02 1.721410e-02 1.664217e-02 1.631238e-02 1.614572e-02 1.606852e-02 1.604373e-02 1.603424e-02 1.604104e-02 1.606432e-02 1.614057e-02 1.630761e-02 1.663871e-02 1.721154e-02 1.815527e-02 1.960868e-02 2.178285e-02 2.486237e-02 2.911857e-02 3.475926e-02 4.211700e-02 5.132565e-02 6.263602e-02 7.622144e-02 9.264905e-02 1.123435e-01 1.305710e-01 1.359418e-01 1.203836e-01 9.056634e-02 6.291145e-02 4.137988e-02 2.619005e-02 1.563778e-02 8.505720e-03 4.192912e-03 1.836036e-03 7.273836e-04 2.751359e-04 
2.316915e-04 4.049125e-04 1.075374e-03 2.696910e-03 6.079560e-03 1.206630e-02 2.169802e-02 3.548382e-02 5.532796e-02 8.380606e-02 1.161138e-01 1.353101e-01 1.292624e-01 1.084687e-01 8.773094e-02 7.084480e-02 5.720522e-02 4.601584e-02 3.665599e-02 2.900676e-02 2.291325e-02 1.832682e-02 1.497746e-02 1.264179e-02 1.105565e-02 1.003876e-02 9.408474e-03 9.047374e-03 8.854568e-03 8.769528e-03 8.738389e-03 8.734332e-03 8.732594e-03 8.732965e-03 8.736102e-03 8.766655e-03 8.851820e-03 9.045206e-03 9.407129e-03 1.003840e-02 1.105644e-02 1.264293e-02 1.498268e-02 1.833005e-02 2.291329e-02 2.900355e-02 3.666652e-02 4.601044e-02 5.719395e-02 7.085159e-02 8.769963e-02 1.084606e-01 1.292291e-01 1.353215e-01 1.161171e-01 8.383497e-02 5.537681e-02 3.551131e-02 2.171237e-02 1.207284e-02 6.082650e-03 2.698351e-03 1.075967e-03 4.051309e-04 
3.238605e-04 5.716052e-04 1.524731e-03 3.801613e-03 8.454974e-03 1.643125e-02 2.894686e-02 4.609289e-02 7.159341e-02 1.060260e-01 1.328898e-01 1.318307e-01 1.104520e-01 8.827016e-02 7.070281e-02 5.670554e-02 4.521436e-02 3.560179e-02 2.754321e-02 2.101955e-02 1.591727e-02 1.211038e-02 9.363953e-03 7.467252e-03 6.199709e-03 5.395128e-03 4.905365e-03 4.628000e-03 4.481506e-03 4.416556e-03 4.392454e-03 4.388324e-03 4.387113e-03 4.387676e-03 4.391343e-03 4.415121e-03 4.480102e-03 4.626834e-03 4.904699e-03 5.394948e-03 6.200170e-03 7.467883e-03 9.365735e-03 1.211108e-02 1.591722e-02 2.101796e-02 2.754553e-02 3.559634e-02 4.520740e-02 5.670245e-02 7.068621e-02 8.826620e-02 1.104006e-01 1.318338e-01 1.329351e-01 1.060944e-01 7.166488e-02 4.613447e-02 2.896377e-02 1.643920e-02 8.458263e-03 3.803271e-03 1.525398e-03 5.718644e-04 
4.327234e-04 7.714083e-04 2.065866e-03 5.124597e-03 1.124670e-02 2.145136e-02 3.707957e-02 5.753382e-02 8.953984e-02 1.252279e-01 1.357883e-01 1.175117e-01 9.410460e-02 7.499056e-02 6.010847e-02 4.798707e-02 3.793962e-02 2.948728e-02 2.239240e-02 1.665315e-02 1.217672e-02 8.836206e-03 6.428695e-03 4.764290e-03 3.654255e-03 2.947858e-03 2.517599e-03 2.272189e-03 2.139609e-03 2.075756e-03 2.048088e-03 2.039084e-03 2.036547e-03 2.038797e-03 2.047586e-03 2.075101e-03 2.138966e-03 2.271635e-03 2.517289e-03 2.947740e-03 3.654387e-03 4.764459e-03 6.429051e-03 8.835883e-03 1.217604e-02 1.665138e-02 2.239172e-02 2.948276e-02 3.793451e-02 4.798040e-02 6.009410e-02 7.497557e-02 9.406493e-02 1.174905e-01 1.357577e-01 1.252105e-01 8.955626e-02 5.755377e-02 3.708517e-02 2.145540e-02 1.124851e-02 5.125921e-03 2.066463e-03 7.716689e-04 
5.516861e-04 9.932841e-04 2.668072e-03 6.597737e-03 1.426970e-02 2.688270e-02 4.536046e-02 6.955732e-02 1.055436e-01 1.344099e-01 1.297151e-01 1.039841e-01 8.341357e-02 6.696140e-02 5.380475e-02 4.297648e-02 3.387904e-02 2.620515e-02 1.975999e-02 1.453272e-02 1.042320e-02 7.323837e-03 5.069733e-03 3.499940e-03 2.449031e-03 1.776620e-03 1.364205e-03 1.124036e-03 9.906170e-04 9.214639e-04 8.879707e-04 8.740630e-04 8.700642e-04 8.739453e-04 8.877639e-04 9.211906e-04 9.903441e-04 1.123790e-03 1.364043e-03 1.776511e-03 2.448962e-03 3.499796e-03 5.069481e-03 7.323064e-03 1.042210e-02 1.453057e-02 1.975779e-02 2.620013e-02 3.387284e-02 4.296727e-02 5.379015e-02 6.694302e-02 8.338559e-02 1.039570e-01 1.296974e-01 1.344008e-01 1.055405e-01 6.954404e-02 4.534591e-02 2.687683e-02 1.426765e-02 6.597783e-03 2.668286e-03 9.934472e-04 
6.694180e-04 1.215779e-03 3.271462e-03 8.069287e-03 1.720205e-02 3.211358e-02 5.283778e-02 8.092853e-02 1.174787e-01 1.362087e-01 1.196068e-01 9.533462e-02 7.690564e-02 6.244345e-02 5.036694e-02 4.031912e-02 3.180037e-02 2.464032e-02 1.861418e-02 1.368555e-02 9.754054e-03 6.745898e-03 4.532595e-03 2.979858e-03 1.936611e-03 1.267398e-03 8.558436e-04 6.140011e-04 4.778976e-04 4.050919e-04 3.682684e-04 3.517500e-04 3.469722e-04 3.517049e-04 3.681879e-04 4.049839e-04 4.777836e-04 6.138881e-04 8.557386e-04 1.267282e-03 1.936442e-03 2.979558e-03 4.532096e-03 6.744924e-03 9.752723e-03 1.368323e-02 1.861156e-02 2.463569e-02 3.179500e-02 4.031185e-02 5.035790e-02 6.243398e-02 7.689224e-02 9.532701e-02 1.196297e-01 1.362684e-01 1.175412e-01 8.094618e-02 5.283164e-02 3.210883e-02 1.720003e-02 8.069134e-03 3.271566e-03 1.215896e-03 
7.714156e-04 1.410733e-03 3.801271e-03 9.352357e-03 1.973225e-02 3.652782e-02 5.918308e-02 9.020875e-02 1.249926e-01 1.349462e-01 1.104928e-01 8.968479e-02 7.312627e-02 6.006316e-02 4.864196e-02 3.905073e-02 3.086256e-02 2.402139e-02 1.824541e-02 1.347695e-02 9.609977e-03 6.609236e-03 4.377518e-03 2.804499e-03 1.746426e-03 1.068293e-03 6.519219e-04 4.071757e-04 2.690387e-04 1.944625e-04 1.562477e-04 1.386861e-04 1.336033e-04 1.386694e-04 1.562164e-04 1.944187e-04 2.689847e-04 4.071112e-04 6.518335e-04 1.068164e-03 1.746204e-03 2.804112e-03 4.376900e-03 6.608140e-03 9.608553e-03 1.347462e-02 1.824284e-02 2.401745e-02 3.085856e-02 3.904630e-02 4.863830e-02 6.006301e-02 7.312830e-02 8.969700e-02 1.104849e-01 1.348802e-01 1.249564e-01 9.020030e-02 5.917967e-02 3.652595e-02 1.973160e-02 9.352251e-03 3.801249e-03 1.410755e-03 
8.421258e-04 1.547077e-03 4.172848e-03 1.024583e-02 2.148884e-02 3.951062e-02 6.360319e-02 9.602819e-02 1.287688e-01 1.325037e-01 1.050605e-01 8.644177e-02 7.121948e-02 5.898004e-02 4.790054e-02 3.853417e-02 3.051015e-02 2.384103e-02 1.819555e-02 1.350027e-02 9.646569e-03 6.626429e-03 4.364107e-03 2.765027e-03 1.689195e-03 1.001177e-03 5.797487e-04 3.325826e-04 1.933175e-04 1.181206e-04 7.954403e-05 6.172932e-05 5.658202e-05 6.172244e-05 7.952983e-05 1.180990e-04 1.932839e-04 3.325340e-04 5.796650e-04 1.001040e-03 1.688952e-03 2.764604e-03 4.363450e-03 6.625299e-03 9.645148e-03 1.349806e-02 1.819323e-02 2.383782e-02 3.050732e-02 3.853157e-02 4.789920e-02 5.898109e-02 7.122060e-02 8.644238e-02 1.050472e-01 1.324808e-01 1.287513e-01 9.602450e-02 6.360354e-02 3.951079e-02 2.148855e-02 1.024556e-02 4.172676e-03 1.547033e-03 
8.679610e-04 1.596769e-03 4.307752e-03 1.056558e-02 2.211136e-02 4.053326e-02 6.514885e-02 9.788654e-02 1.296432e-01 1.313305e-01 1.033692e-01 8.542505e-02 7.066919e-02 5.868273e-02 4.770447e-02 3.840332e-02 3.042744e-02 2.381191e-02 1.820664e-02 1.353242e-02 9.678968e-03 6.648075e-03 4.371712e-03 2.761249e-03 1.677883e-03 9.857800e-04 5.624185e-04 3.144393e-04 1.748813e-04 9.958357e-05 6.097738e-05 4.314217e-05 3.799299e-05 4.313758e-05 6.096710e-05 9.956692e-05 1.748520e-04 3.143935e-04 5.623342e-04 9.856380e-04 1.677629e-03 2.760807e-03 4.371036e-03 6.646935e-03 9.677562e-03 1.353029e-02 1.820449e-02 2.380916e-02 3.042540e-02 3.840219e-02 4.770542e-02 5.868719e-02 7.067548e-02 8.543661e-02 1.033993e-01 1.314416e-01 1.297755e-01 9.794299e-02 6.516326e-02 4.053501e-02 2.211057e-02 1.056466e-02 4.307284e-03 1.596607e-03 
8.421258e-04 1.547077e-03 4.172848e-03 1.024583e-02 2.148884e-02 3.951062e-02 6.360319e-02 9.602819e-02 1.287688e-01 1.325037e-01 1.050605e-01 8.644177e-02 7.121948e-02 5.898004e-02 4.790054e-02 3.853417e-02 3.051015e-02 2.384103e-02 1.819555e-02 1.350027e-02 9.646569e-03 6.626429e-03 4.364107e-03 2.765027e-03 1.689195e-03 1.001177e-03 5.797487e-04 3.325826e-04 1.933175e-04 1.181206e-04 7.954403e-05 6.172932e-05 5.658202e-05 6.172244e-05 7.952983e-05 1.180990e-04 1.932839e-04 3.325340e-04 5.796650e-04 1.001040e-03 1.688952e-03 2.764604e-03 4.363450e-03 6.625299e-03 9.645148e-03 1.349806e-02 1.819323e-02 2.383782e-02 3.050732e-02 3.853157e-02 4.789920e-02 5.898109e-02 7.122060e-02 8.644238e-02 1.050472e-01 1.324808e-01 1.287513e-01 9.602450e-02 6.360354e-02 3.951079e-02 2.148855e-02 1.024556e-02 4.172676e-03 1.547033e-03 
7.714156e-04 1.410733e-03 3.801271e-03 9.352357e-03 1.973225e-02 3.652782e-02 5.918308e-02 9.020875e-02 1.249926e-01 1.349462e-01 1.104928e-01 8.968479e-02 7.312627e-02 6.006316e-02 4.864196e-02 3.905073e-02 3.086256e-02 2.402139e-02 1.824541e-02 1.347695e-02 9.609977e-03 6.609236e-03 4.377518e-03 2.804499e-03 1.746426e-03 1.068293e-03 6.519219e-04 4.071757e-04 2.690387e-04 1.944625e-04 1.562477e-04 1.386861e-04 1.336033e-04 1.386694e-04 1.562164e-04 1.944187e-04 2.689847e-04 4.071112e-04 6.518335e-04 1.068164e-03 1.746204e-03 2.804112e-03 4.376900e-03 6.608140e-03 9.608553e-03 1.347462e-02 1.824284e-02 2.401745e-02 3.085856e-02 3.904630e-02 4.863830e-02 6.006301e-02 7.312830e-02 8.969700e-02 1.104849e-01 1.348802e-01 1.249564e-01 9.020030e-02 5.917967e-02 3.652595e-02 1.973160e-02 9.352251e-03 3.801249e-03 1.410755e-03 