# vtk DataFile Version 2.0
Comment goes here
ASCII

DATASET STRUCTURED_POINTS
FIELD FieldData 1
TIME 1 1 double
0.49000000
DIMENSIONS    64   64   1

ORIGIN    0.000   0.000   0.000
SPACING   0.015625 0.015625   1.000

POINT_DATA   4096
SCALARS Concentration double
LOOKUP_TABLE default

2.510025e-05 2.678508e-05 3.197569e-05 4.097680e-05 5.429965e-05 7.264508e-05 9.688577e-05 1.280460e-04 1.672826e-04 2.158766e-04 2.752326e-04 3.469284e-04 4.327903e-04 5.351006e-04 6.568288e-04 8.020840e-04 9.764859e-04 1.187823e-03 1.446388e-03 1.765634e-03 2.161904e-03 2.654276e-03 3.262186e-03 4.002539e-03 4.883598e-03 5.899983e-03 7.025225e-03 8.209517e-03 9.378521e-03 1.044078e-02 1.129758e-02 1.185861e-02 1.205662e-02 1.185926e-02 1.129865e-02 1.044209e-02 9.380028e-03 8.211072e-03 7.026842e-03 5.901564e-03 4.885171e-03 4.004095e-03 3.263762e-03 2.655903e-03 2.163601e-03 1.767414e-03 1.448221e-03 1.189682e-03 9.783166e-04 8.038475e-04 6.584788e-04 5.366100e-04 4.341347e-04 3.481012e-04 2.762314e-04 2.167113e-04 1.679646e-04 1.285926e-04 9.731343e-05 7.297155e-05 5.454011e-05 4.114511e-05 3.208219e-05 2.683703e-05 
2.842198e-05 3.031446e-05 3.614487e-05 4.625040e-05 6.119666e-05 8.175778e-05 1.088953e-04 1.437331e-04 1.875327e-04 2.416783e-04 3.076674e-04 3.871553e-04 4.820222e-04 5.945874e-04 7.278418e-04 8.859299e-04 1.074532e-03 1.301581e-03 1.577621e-03 1.916573e-03 2.335510e-03 2.854698e-03 3.495443e-03 4.276466e-03 5.207962e-03 6.286186e-03 7.485107e-03 8.753293e-03 1.001182e-02 1.116136e-02 1.209288e-02 1.270493e-02 1.292147e-02 1.270578e-02 1.209430e-02 1.116310e-02 1.001381e-02 8.755316e-03 7.487172e-03 6.288160e-03 5.209894e-03 4.278345e-03 3.497328e-03 2.856617e-03 2.337504e-03 1.918661e-03 1.579773e-03 1.303762e-03 1.076680e-03 8.879984e-04 7.297763e-04 5.963557e-04 4.835957e-04 3.885264e-04 3.088338e-04 2.426517e-04 1.883269e-04 1.443687e-04 1.093919e-04 8.213641e-05 6.147523e-05 4.644521e-05 3.626805e-05 3.037453e-05 
3.886097e-05 4.140332e-05 4.923543e-05 6.279637e-05 8.282207e-05 1.103169e-04 1.465217e-04 1.928751e-04 2.509689e-04 3.225143e-04 4.093003e-04 5.132252e-04 6.363264e-04 7.810224e-04 9.503291e-04 1.148450e-03 1.381172e-03 1.656785e-03 1.986498e-03 2.385553e-03 2.873132e-03 3.472921e-03 4.211246e-03 5.112272e-03 6.191858e-03 7.450966e-03 8.864791e-03 1.037709e-02 1.189559e-02 1.329823e-02 1.444610e-02 1.520582e-02 1.547594e-02 1.520726e-02 1.444861e-02 1.330132e-02 1.189911e-02 1.038061e-02 8.868286e-03 7.454213e-03 6.194954e-03 5.115208e-03 4.214144e-03 3.475815e-03 2.876120e-03 2.388669e-03 1.989702e-03 1.660024e-03 1.384358e-03 1.151512e-03 9.531860e-04 7.836271e-04 6.386377e-04 5.152327e-04 4.110020e-04 3.239289e-04 2.521187e-04 1.937919e-04 1.472354e-04 1.108591e-04 8.321978e-05 6.307374e-05 4.941044e-05 4.148849e-05 
5.794988e-05 6.166965e-05 7.313080e-05 9.295750e-05 1.221961e-04 1.622718e-04 2.149379e-04 2.822119e-04 3.662955e-04 4.695025e-04 5.941554e-04 7.425810e-04 9.170638e-04 1.120120e-03 1.354673e-03 1.624824e-03 1.936264e-03 2.297576e-03 2.720737e-03 3.222868e-03 3.826358e-03 4.560345e-03 5.459191e-03 6.555790e-03 7.875239e-03 9.426239e-03 1.118606e-02 1.309088e-02 1.502704e-02 1.683609e-02 1.833130e-02 1.932808e-02 1.968431e-02 1.933060e-02 1.833573e-02 1.684159e-02 1.503327e-02 1.309704e-02 1.119207e-02 9.431710e-03 7.880367e-03 6.560580e-03 5.463888e-03 4.565019e-03 3.831171e-03 3.227885e-03 2.725904e-03 2.302801e-03 1.941403e-03 1.629757e-03 1.359273e-03 1.124307e-03 9.207712e-04 7.457928e-04 5.968699e-04 4.717520e-04 3.681176e-04 2.836598e-04 2.160614e-04 1.631228e-04 1.228187e-04 9.339066e-05 7.340364e-05 6.180228e-05 
8.828189e-05 9.385090e-05 1.110137e-04 1.406871e-04 1.844101e-04 2.442778e-04 3.228642e-04 4.231183e-04 5.482278e-04 7.014812e-04 8.860542e-04 1.104934e-03 1.360718e-03 1.655923e-03 1.993038e-03 2.375597e-03 2.808566e-03 3.300287e-03 3.863070e-03 4.515996e-03 5.285283e-03 6.207202e-03 7.326864e-03 8.688615e-03 1.032997e-02 1.227027e-02 1.449005e-02 1.691594e-02 1.940653e-02 2.175532e-02 2.371220e-02 2.502433e-02 2.549526e-02 2.502856e-02 2.371972e-02 2.176475e-02 1.941716e-02 1.692639e-02 1.450009e-02 1.227928e-02 1.033832e-02 8.696362e-03 7.334462e-03 6.214770e-03 5.293096e-03 4.524157e-03 3.871492e-03 3.308813e-03 2.816960e-03 2.383655e-03 2.000546e-03 1.662748e-03 1.366751e-03 1.110147e-03 8.904478e-04 7.051101e-04 5.511571e-04 4.254375e-04 3.246574e-04 2.456315e-04 1.853975e-04 1.413723e-04 1.114444e-04 9.405991e-05 
1.335273e-04 1.418147e-04 1.673670e-04 2.115360e-04 2.765969e-04 3.656497e-04 4.825101e-04 6.315437e-04 8.174494e-04 1.045009e-03 1.318698e-03 1.642464e-03 2.019266e-03 2.451364e-03 2.940170e-03 3.487714e-03 4.097006e-03 4.774928e-03 5.532989e-03 6.391633e-03 7.380954e-03 8.545692e-03 9.944056e-03 1.163370e-02 1.366711e-02 1.607670e-02 1.884721e-02 2.189441e-02 2.504430e-02 2.803394e-02 3.053845e-02 3.222454e-02 3.283177e-02 3.223138e-02 3.055069e-02 2.804939e-02 2.506170e-02 2.191137e-02 1.886328e-02 1.609089e-02 1.368014e-02 1.164574e-02 9.955913e-03 8.557611e-03 7.393276e-03 6.404553e-03 5.546374e-03 4.788522e-03 4.110417e-03 3.500609e-03 2.952192e-03 2.462294e-03 2.028920e-03 1.650797e-03 1.325707e-03 1.050785e-03 8.221003e-04 6.352161e-04 4.853420e-04 3.677822e-04 2.781488e-04 2.126110e-04 1.680419e-04 1.421419e-04 
1.984395e-04 2.105653e-04 2.479708e-04 3.126317e-04 4.078853e-04 5.382888e-04 7.094755e-04 9.278976e-04 1.200502e-03 1.534296e-03 1.935687e-03 2.410001e-03 2.960583e-03 3.589006e-03 4.294545e-03 5.076219e-03 5.933044e-03 6.868443e-03 7.891065e-03 9.021465e-03 1.029296e-02 1.175969e-02 1.349448e-02 1.556880e-02 1.805142e-02 2.098926e-02 2.437205e-02 2.810432e-02 3.197766e-02 3.566839e-02 3.877106e-02 4.086532e-02 4.162165e-02 4.087613e-02 3.879055e-02 3.569319e-02 3.200550e-02 2.813120e-02 2.439703e-02 2.101087e-02 1.807107e-02 1.558694e-02 1.351247e-02 1.177796e-02 1.031191e-02 9.041426e-03 7.911830e-03 6.889614e-03 5.953990e-03 5.096406e-03 4.313390e-03 3.606146e-03 2.975715e-03 2.423046e-03 1.946639e-03 1.543298e-03 1.207729e-03 9.335854e-04 7.138475e-04 5.415705e-04 4.102667e-04 3.142771e-04 2.490018e-04 2.110644e-04 
2.888181e-04 3.061888e-04 3.598122e-04 4.525334e-04 5.891817e-04 7.763724e-04 1.022332e-03 1.336512e-03 1.729122e-03 2.210408e-03 2.789590e-03 3.473936e-03 4.267193e-03 5.169583e-03 6.176697e-03 7.282316e-03 8.478577e-03 9.762508e-03 1.113710e-02 1.262109e-02 1.425010e-02 1.608865e-02 1.822476e-02 2.074333e-02 2.372880e-02 2.724187e-02 3.127523e-02 3.572038e-02 4.033395e-02 4.473244e-02 4.843314e-02 5.093305e-02 5.183818e-02 5.094979e-02 4.846363e-02 4.477168e-02 4.037791e-02 3.576229e-02 3.131310e-02 2.727369e-02 2.375739e-02 2.076966e-02 1.825109e-02 1.611563e-02 1.427818e-02 1.265080e-02 1.116814e-02 9.794316e-03 8.510175e-03 7.312883e-03 6.205308e-03 5.195656e-03 4.290232e-03 3.493799e-03 2.806252e-03 2.224084e-03 1.740080e-03 1.345115e-03 1.028929e-03 7.813115e-04 5.927579e-04 4.549996e-04 3.613554e-04 3.069355e-04 
4.114378e-04 4.357812e-04 5.109804e-04 6.410646e-04 8.329093e-04 1.095965e-03 1.442075e-03 1.884895e-03 2.439269e-03 3.120036e-03 3.940441e-03 4.910454e-03 6.034268e-03 7.309867e-03 8.727102e-03 1.027163e-02 1.192491e-02 1.367404e-02 1.551279e-02 1.745625e-02 1.954120e-02 2.184355e-02 2.446598e-02 2.750360e-02 3.105281e-02 3.518410e-02 3.988948e-02 4.504531e-02 5.037657e-02 5.544621e-02 5.970481e-02 6.257923e-02 6.362260e-02 6.260500e-02 5.975230e-02 5.550821e-02 5.044579e-02 4.510986e-02 3.994537e-02 3.522896e-02 3.109262e-02 2.754043e-02 2.450334e-02 2.188229e-02 1.958167e-02 1.749926e-02 1.555791e-02 1.372054e-02 1.197133e-02 1.031676e-02 8.769496e-03 7.348599e-03 6.068536e-03 4.940001e-03 3.965204e-03 3.140322e-03 2.455480e-03 1.897584e-03 1.451773e-03 1.103202e-03 8.381336e-04 6.446574e-04 5.132240e-04 4.368650e-04 
5.739115e-04 6.072711e-04 7.104131e-04 8.889375e-04 1.152459e-03 1.514245e-03 1.991059e-03 2.602314e-03 3.369255e-03 4.313089e-03 5.452641e-03 6.801581e-03 8.364595e-03 1.013631e-02 1.209828e-02 1.422447e-02 1.648133e-02 1.884202e-02 2.128793e-02 2.382892e-02 2.650310e-02 2.939935e-02 3.263609e-02 3.631361e-02 4.053230e-02 4.536158e-02 5.077824e-02 5.663476e-02 6.262778e-02 6.828031e-02 7.300095e-02 7.617611e-02 7.733236e-02 7.621493e-02 7.307378e-02 6.837747e-02 6.273638e-02 5.673335e-02 5.085852e-02 4.542174e-02 4.058507e-02 3.636304e-02 3.268730e-02 2.945312e-02 2.655930e-02 2.388879e-02 2.135089e-02 1.890732e-02 1.654694e-02 1.428868e-02 1.215892e-02 1.019196e-02 8.413982e-03 6.844243e-03 5.488416e-03 4.342383e-03 3.392635e-03 2.620576e-03 2.004982e-03 1.524607e-03 1.159921e-03 8.940581e-04 7.136061e-04 6.088125e-04 
7.845683e-04 8.293061e-04 9.677368e-04 1.207497e-03 1.561781e-03 2.048858e-03 2.692028e-03 3.518366e-03 4.557750e-03 5.839929e-03 7.391336e-03 9.230582e-03 1.136309e-02 1.377888e-02 1.644843e-02 1.933025e-02 2.237130e-02 2.552777e-02 2.876622e-02 3.209269e-02 3.554748e-02 3.923478e-02 4.328732e-02 4.779502e-02 5.284462e-02 5.849025e-02 6.468165e-02 7.124045e-02 7.784814e-02 8.400485e-02 8.909888e-02 9.250464e-02 9.374950e-02 9.256179e-02 8.920852e-02 8.415559e-02 7.801687e-02 7.138734e-02 6.479031e-02 5.856278e-02 5.290867e-02 4.785804e-02 4.335558e-02 3.930787e-02 3.562365e-02 3.217382e-02 2.885160e-02 2.561690e-02 2.246154e-02 1.941929e-02 1.653309e-02 1.385698e-02 1.143264e-02 9.290768e-03 7.441828e-03 5.881231e-03 4.590649e-03 3.543988e-03 2.711500e-03 2.063297e-03 1.572144e-03 1.214586e-03 9.721469e-04 8.314312e-04 
1.052279e-03 1.111010e-03 1.292919e-03 1.608208e-03 2.074638e-03 2.716878e-03 3.566683e-03 4.661079e-03 6.041243e-03 7.748139e-03 9.818229e-03 1.227672e-02 1.513010e-02 1.836262e-02 2.193073e-02 2.577377e-02 2.981563e-02 3.399375e-02 3.826117e-02 4.262269e-02 4.712561e-02 5.188827e-02 5.706291e-02 6.271209e-02 6.888756e-02 7.559518e-02 8.271038e-02 9.000314e-02 9.716280e-02 1.037043e-01 1.090373e-01 1.125690e-01 1.138664e-01 1.126475e-01 1.091931e-01 1.039283e-01 9.741693e-02 9.021445e-02 8.284612e-02 7.566943e-02 6.895805e-02 6.278952e-02 5.715220e-02 5.198607e-02 4.722631e-02 4.272907e-02 3.837249e-02 3.411045e-02 2.993472e-02 2.589242e-02 2.204456e-02 1.846844e-02 1.522488e-02 1.235906e-02 9.887472e-03 7.804824e-03 6.086372e-03 4.696169e-03 3.593287e-03 2.736549e-03 2.088715e-03 1.617813e-03 1.298883e-03 1.113882e-03 
1.386425e-03 1.462008e-03 1.696298e-03 2.102662e-03 2.704531e-03 3.534539e-03 4.635104e-03 6.055773e-03 7.852183e-03 1.007954e-02 1.278748e-02 1.600982e-02 1.975531e-02 2.400151e-02 2.868884e-02 3.373496e-02 3.903946e-02 4.452404e-02 5.013281e-02 5.588057e-02 6.182469e-02 6.809936e-02 7.485220e-02 8.205187e-02 8.966160e-02 9.764377e-02 1.058117e-01 1.138792e-01 1.215922e-01 1.285083e-01 1.340504e-01 1.376727e-01 1.390073e-01 1.377726e-01 1.342567e-01 1.288229e-01 1.219524e-01 1.141559e-01 1.059493e-01 9.768811e-02 8.972657e-02 8.214663e-02 7.497101e-02 6.823080e-02 6.195719e-02 5.601820e-02 5.027506e-02 4.467329e-02 3.919296e-02 3.388952e-02 2.883863e-02 2.414184e-02 1.988173e-02 1.612003e-02 1.288030e-02 1.015551e-02 7.912578e-03 6.102603e-03 4.670490e-03 3.560598e-03 2.723108e-03 2.115288e-03 1.704115e-03 1.465764e-03 
1.796785e-03 1.892209e-03 2.188277e-03 2.702148e-03 3.464129e-03 4.516524e-03 5.914846e-03 7.724069e-03 1.001783e-02 1.286927e-02 1.634490e-02 2.049031e-02 2.531813e-02 3.079957e-02 3.685746e-02 4.338756e-02 5.026730e-02 5.740923e-02 6.475879e-02 7.234477e-02 8.023889e-02 8.855100e-02 9.737069e-02 1.065970e-01 1.161130e-01 1.257700e-01 1.351705e-01 1.439295e-01 1.519663e-01 1.590089e-01 1.645560e-01 1.681350e-01 1.694554e-01 1.682456e-01 1.647946e-01 1.593955e-01 1.524161e-01 1.442427e-01 1.352626e-01 1.257508e-01 1.161816e-01 1.067304e-01 9.753442e-02 8.872948e-02 8.041221e-02 7.251971e-02 6.493565e-02 5.759339e-02 5.045765e-02 4.358117e-02 3.704727e-02 3.097926e-02 2.548132e-02 2.063344e-02 1.646591e-02 1.296849e-02 1.009671e-02 7.785144e-03 5.960876e-03 4.550303e-03 3.488122e-03 2.718396e-03 2.198311e-03 1.897024e-03 
2.293731e-03 2.412169e-03 2.779881e-03 3.418459e-03 4.366340e-03 5.677213e-03 7.422277e-03 9.684860e-03 1.256061e-02 1.614456e-02 2.052524e-02 2.576384e-02 3.188100e-02 3.884255e-02 4.655602e-02 5.489756e-02 6.373096e-02 7.297003e-02 8.256739e-02 9.257686e-02 1.030642e-01 1.141177e-01 1.256825e-01 1.372467e-01 1.485133e-01 1.594994e-01 1.698506e-01 1.790874e-01 1.873812e-01 1.946014e-01 2.001832e-01 2.037013e-01 2.049775e-01 2.038152e-01 2.004321e-01 1.950140e-01 1.878426e-01 1.793424e-01 1.698291e-01 1.594081e-01 1.486328e-01 1.374699e-01 1.259234e-01 1.143662e-01 1.032887e-01 9.279661e-02 8.278572e-02 7.319537e-02 6.396482e-02 5.513743e-02 4.679353e-02 3.906924e-02 3.208816e-02 2.594620e-02 2.067971e-02 1.627118e-02 1.266113e-02 9.762432e-03 7.480507e-03 5.719730e-03 4.396387e-03 3.438705e-03 2.792334e-03 2.418128e-03 
2.888064e-03 3.032777e-03 3.482384e-03 4.263507e-03 5.423961e-03 7.030507e-03 9.172610e-03 1.195500e-02 1.549954e-02 1.992819e-02 2.535751e-02 3.187092e-02 3.950162e-02 4.821455e-02 5.790384e-02 6.843465e-02 7.966491e-02 9.151735e-02 1.039391e-01 1.169772e-01 1.306702e-01 1.448200e-01 1.589679e-01 1.727143e-01 1.859802e-01 1.985654e-01 2.095079e-01 2.183370e-01 2.254835e-01 2.310710e-01 2.351178e-01 2.375770e-01 2.384346e-01 2.376728e-01 2.353217e-01 2.313600e-01 2.257630e-01 2.184567e-01 2.094603e-01 1.985723e-01 1.862883e-01 1.730589e-01 1.592612e-01 1.451290e-01 1.309432e-01 1.172421e-01 1.042026e-01 9.178635e-02 7.994417e-02 6.872242e-02 5.819123e-02 4.849152e-02 3.975684e-02 3.209711e-02 2.554993e-02 2.008621e-02 1.562495e-02 1.205154e-02 9.244796e-03 7.082939e-03 5.460808e-03 4.288197e-03 3.497504e-03 3.039995e-03 
3.591395e-03 3.766004e-03 4.308595e-03 5.251379e-03 6.652674e-03 8.593715e-03 1.118456e-02 1.455374e-02 1.885371e-02 2.423805e-02 3.085977e-02 3.883148e-02 4.820794e-02 5.895661e-02 7.096843e-02 8.410332e-02 9.822863e-02 1.132525e-01 1.290649e-01 1.456314e-01 1.628393e-01 1.806760e-01 1.983064e-01 2.138225e-01 2.257520e-01 2.343112e-01 2.396110e-01 2.424008e-01 2.436123e-01 2.439900e-01 2.442012e-01 2.443154e-01 2.443402e-01 2.443466e-01 2.442815e-01 2.440872e-01 2.436600e-01 2.423471e-01 2.395593e-01 2.344417e-01 2.260694e-01 2.141301e-01 1.986294e-01 1.810225e-01 1.631333e-01 1.459337e-01 1.293857e-01 1.135804e-01 9.856919e-02 8.445392e-02 7.131848e-02 5.929421e-02 4.851949e-02 3.910785e-02 3.109496e-02 2.443087e-02 1.900630e-02 1.467062e-02 1.127142e-02 8.656337e-03 6.696341e-03 5.280408e-03 4.326257e-03 3.774396e-03 
4.415415e-03 4.623901e-03 5.271757e-03 6.397132e-03 8.069786e-03 1.038633e-02 1.347915e-02 1.750223e-02 2.264242e-02 2.909067e-02 3.704584e-02 4.666138e-02 5.802108e-02 7.110480e-02 8.580251e-02 1.019860e-01 1.195320e-01 1.383338e-01 1.581359e-01 1.789381e-01 2.006137e-01 2.206618e-01 2.352920e-01 2.431373e-01 2.443379e-01 2.412844e-01 2.360639e-01 2.307438e-01 2.261307e-01 2.226113e-01 2.205298e-01 2.194428e-01 2.190692e-01 2.194069e-01 2.204512e-01 2.224725e-01 2.259800e-01 2.306060e-01 2.359395e-01 2.413322e-01 2.444277e-01 2.431994e-01 2.355243e-01 2.210025e-01 2.010051e-01 1.793221e-01 1.585480e-01 1.387401e-01 1.199438e-01 1.024040e-01 8.621663e-02 7.150475e-02 5.839152e-02 4.699179e-02 3.732803e-02 2.932217e-02 2.282523e-02 1.764149e-02 1.358190e-02 1.045969e-02 8.120402e-03 6.430424e-03 5.291832e-03 4.633382e-03 
5.372278e-03 5.619751e-03 6.387788e-03 7.720691e-03 9.700087e-03 1.243801e-02 1.608956e-02 2.083353e-02 2.689356e-02 3.450202e-02 4.391579e-02 5.534002e-02 6.890176e-02 8.459843e-02 1.023369e-01 1.220100e-01 1.435621e-01 1.668346e-01 1.915405e-01 2.166445e-01 2.369020e-01 2.474388e-01 2.469390e-01 2.387455e-01 2.271308e-01 2.156081e-01 2.058378e-01 1.988657e-01 1.943933e-01 1.916262e-01 1.902064e-01 1.895489e-01 1.893273e-01 1.894716e-01 1.900339e-01 1.913746e-01 1.941938e-01 1.988625e-01 2.058621e-01 2.155626e-01 2.269323e-01 2.384836e-01 2.469322e-01 2.475630e-01 2.372247e-01 2.170959e-01 1.921158e-01 1.673684e-01 1.440846e-01 1.225318e-01 1.028413e-01 8.507670e-02 6.934026e-02 5.572934e-02 4.424771e-02 3.477332e-02 2.710667e-02 2.099443e-02 1.620700e-02 1.252068e-02 9.756223e-03 7.757023e-03 6.409372e-03 5.629807e-03 
6.472352e-03 6.765639e-03 7.672741e-03 9.243999e-03 1.157236e-02 1.478398e-02 1.905478e-02 2.458497e-02 3.163491e-02 4.048310e-02 5.146000e-02 6.484316e-02 8.081736e-02 9.942118e-02 1.205744e-01 1.442105e-01 1.703522e-01 1.987140e-01 2.268012e-01 2.462660e-01 2.507312e-01 2.415908e-01 2.254806e-01 2.087490e-01 1.946118e-01 1.836152e-01 1.752122e-01 1.694298e-01 1.657895e-01 1.636330e-01 1.626003e-01 1.621797e-01 1.620439e-01 1.620816e-01 1.623994e-01 1.633813e-01 1.656276e-01 1.694949e-01 1.752909e-01 1.835195e-01 1.942867e-01 2.083913e-01 2.252594e-01 2.413438e-01 2.507133e-01 2.465989e-01 2.274053e-01 1.993262e-01 1.709745e-01 1.448258e-01 1.211564e-01 9.997091e-02 8.132247e-02 6.529467e-02 5.184688e-02 4.079892e-02 3.188145e-02 2.476875e-02 1.918681e-02 1.487467e-02 1.163237e-02 9.281831e-03 7.694595e-03 6.775482e-03 
7.723929e-03 8.071446e-03 9.142190e-03 1.099244e-02 1.372652e-02 1.748141e-02 2.244528e-02 2.882903e-02 3.692391e-02 4.706318e-02 5.967142e-02 7.512294e-02 9.369093e-02 1.154802e-01 1.404326e-01 1.685161e-01 1.995351e-01 2.306742e-01 2.496476e-01 2.490497e-01 2.337275e-01 2.132491e-01 1.940044e-01 1.778102e-01 1.645419e-01 1.543329e-01 1.468998e-01 1.421061e-01 1.393896e-01 1.380651e-01 1.376205e-01 1.375550e-01 1.375425e-01 1.374664e-01 1.374522e-01 1.378774e-01 1.392828e-01 1.421550e-01 1.469349e-01 1.542123e-01 1.642616e-01 1.775321e-01 1.937551e-01 2.128848e-01 2.334082e-01 2.489309e-01 2.498740e-01 2.312535e-01 2.003042e-01 1.692704e-01 1.411171e-01 1.161063e-01 9.426127e-02 7.563276e-02 6.010955e-02 4.741911e-02 3.719902e-02 2.902995e-02 2.258665e-02 1.757663e-02 1.378806e-02 1.103018e-02 9.163376e-03 8.080735e-03 
9.128053e-03 9.539861e-03 1.080361e-02 1.298126e-02 1.618803e-02 2.056744e-02 2.631393e-02 3.363303e-02 4.282827e-02 5.426833e-02 6.852866e-02 8.613448e-02 1.074902e-01 1.328459e-01 1.621104e-01 1.950483e-01 2.284903e-01 2.491278e-01 2.467038e-01 2.278047e-01 2.048955e-01 1.835834e-01 1.647092e-01 1.491950e-01 1.371110e-01 1.282319e-01 1.220365e-01 1.181861e-01 1.161193e-01 1.152576e-01 1.150930e-01 1.151812e-01 1.152218e-01 1.151118e-01 1.149675e-01 1.151271e-01 1.160469e-01 1.182102e-01 1.220465e-01 1.281319e-01 1.368914e-01 1.489341e-01 1.644248e-01 1.832078e-01 2.045100e-01 2.274051e-01 2.464756e-01 2.494017e-01 2.292325e-01 1.958233e-01 1.627932e-01 1.335041e-01 1.081191e-01 8.671248e-02 6.903108e-02 5.467154e-02 4.313499e-02 3.385291e-02 2.646466e-02 2.066566e-02 1.624920e-02 1.301721e-02 1.082294e-02 9.548016e-03 
1.067986e-02 1.116834e-02 1.266093e-02 1.522529e-02 1.898634e-02 2.408884e-02 3.072293e-02 3.907115e-02 4.943591e-02 6.221339e-02 7.810739e-02 9.788392e-02 1.221717e-01 1.513428e-01 1.852432e-01 2.211916e-01 2.459223e-01 2.456354e-01 2.259482e-01 2.010231e-01 1.773817e-01 1.565349e-01 1.389129e-01 1.246992e-01 1.137354e-01 1.058005e-01 1.004071e-01 9.715116e-02 9.548688e-02 9.489080e-02 9.487324e-02 9.503635e-02 9.510431e-02 9.498859e-02 9.478936e-02 9.480600e-02 9.543536e-02 9.714882e-02 1.003871e-01 1.057047e-01 1.135528e-01 1.244644e-01 1.386333e-01 1.561665e-01 1.769665e-01 2.005279e-01 2.254770e-01 2.454195e-01 2.462294e-01 2.219016e-01 1.859771e-01 1.520452e-01 1.228497e-01 9.851533e-02 7.865835e-02 6.265295e-02 4.976570e-02 3.930194e-02 3.087575e-02 2.418380e-02 1.904206e-02 1.525576e-02 1.267605e-02 1.117424e-02 
1.236053e-02 1.293968e-02 1.470172e-02 1.772010e-02 2.212794e-02 2.806366e-02 3.570005e-02 4.517207e-02 5.676898e-02 7.089550e-02 8.843479e-02 1.103577e-01 1.375897e-01 1.708630e-01 2.086849e-01 2.396863e-01 2.458738e-01 2.282226e-01 2.022563e-01 1.767103e-01 1.538362e-01 1.340547e-01 1.175553e-01 1.043903e-01 9.432921e-02 8.707656e-02 8.216771e-02 7.918807e-02 7.763351e-02 7.704291e-02 7.697406e-02 7.708554e-02 7.713636e-02 7.705500e-02 7.692107e-02 7.698900e-02 7.759524e-02 7.916999e-02 8.213015e-02 8.698359e-02 9.416672e-02 1.041656e-01 1.172661e-01 1.336755e-01 1.533847e-01 1.761714e-01 2.016758e-01 2.276680e-01 2.457108e-01 2.401932e-01 2.095119e-01 1.717652e-01 1.384654e-01 1.111254e-01 8.907940e-02 7.139135e-02 5.712925e-02 4.541325e-02 3.585060e-02 2.814984e-02 2.217305e-02 1.774108e-02 1.470999e-02 1.294207e-02 
1.414172e-02 1.482707e-02 1.690385e-02 2.045252e-02 2.561325e-02 3.251158e-02 4.128608e-02 5.200040e-02 6.490881e-02 8.041709e-02 9.962540e-02 1.237728e-01 1.540540e-01 1.914913e-01 2.283243e-01 2.452560e-01 2.337567e-01 2.081112e-01 1.814760e-01 1.567496e-01 1.348725e-01 1.162086e-01 1.007592e-01 8.840805e-02 7.889224e-02 7.193576e-02 6.713729e-02 6.411737e-02 6.242767e-02 6.166019e-02 6.142100e-02 6.141253e-02 6.142338e-02 6.139364e-02 6.138791e-02 6.162426e-02 6.239515e-02 6.408713e-02 6.708539e-02 7.183989e-02 7.873878e-02 8.819276e-02 1.004732e-01 1.158314e-01 1.344046e-01 1.561792e-01 1.808294e-01 2.074396e-01 2.332428e-01 2.452762e-01 2.290369e-01 1.925194e-01 1.550021e-01 1.245832e-01 1.003135e-01 8.093911e-02 6.527646e-02 5.223245e-02 4.141773e-02 3.257606e-02 2.563833e-02 2.045775e-02 1.690152e-02 1.482423e-02 
1.597548e-02 1.678214e-02 1.921780e-02 2.337236e-02 2.939236e-02 3.738483e-02 4.743584e-02 5.950903e-02 7.379975e-02 9.066790e-02 1.115077e-01 1.376018e-01 1.711792e-01 2.110232e-01 2.398869e-01 2.407028e-01 2.181491e-01 1.911632e-01 1.651634e-01 1.415249e-01 1.207832e-01 1.030871e-01 8.834840e-02 7.643527e-02 6.711360e-02 6.014273e-02 5.518444e-02 5.190215e-02 4.990245e-02 4.882539e-02 4.832439e-02 4.814115e-02 4.809272e-02 4.812934e-02 4.830303e-02 4.879959e-02 4.987321e-02 5.186596e-02 5.512595e-02 6.004703e-02 6.696791e-02 7.623022e-02 8.807117e-02 1.027191e-01 1.203156e-01 1.409451e-01 1.644936e-01 1.904532e-01 2.174885e-01 2.403704e-01 2.402881e-01 2.119484e-01 1.721761e-01 1.385042e-01 1.122779e-01 9.122852e-02 7.416558e-02 5.971445e-02 4.753010e-02 3.741266e-02 2.938661e-02 2.335480e-02 1.920075e-02 1.677225e-02 
1.780530e-02 1.874629e-02 2.158019e-02 2.641072e-02 3.339259e-02 4.261426e-02 5.409141e-02 6.766659e-02 8.343077e-02 1.016542e-01 1.240030e-01 1.515396e-01 1.880914e-01 2.262160e-01 2.436171e-01 2.308510e-01 2.047604e-01 1.781973e-01 1.533772e-01 1.308788e-01 1.111216e-01 9.411077e-02 7.976574e-02 6.797246e-02 5.855819e-02 5.133529e-02 4.602601e-02 4.233726e-02 3.992430e-02 3.846756e-02 3.766215e-02 3.728078e-02 3.716500e-02 3.727262e-02 3.764667e-02 3.844642e-02 3.989621e-02 4.229824e-02 4.596584e-02 5.124377e-02 5.842459e-02 6.778700e-02 7.951526e-02 9.377843e-02 1.106934e-01 1.303399e-01 1.527356e-01 1.774819e-01 2.040466e-01 2.302521e-01 2.436491e-01 2.269567e-01 1.892771e-01 1.526559e-01 1.248812e-01 1.022334e-01 8.375345e-02 6.780697e-02 5.411850e-02 4.258576e-02 3.334378e-02 2.636325e-02 2.154455e-02 1.872765e-02 
1.955626e-02 2.063946e-02 2.389630e-02 2.945028e-02 3.746731e-02 4.802506e-02 6.105001e-02 7.626524e-02 9.356115e-02 1.131660e-01 1.366578e-01 1.653322e-01 2.030372e-01 2.360781e-01 2.421043e-01 2.211712e-01 1.951733e-01 1.694436e-01 1.457475e-01 1.242314e-01 1.051905e-01 8.856922e-02 7.432561e-02 6.240824e-02 5.270820e-02 4.509200e-02 3.933155e-02 3.517169e-02 3.230710e-02 3.045102e-02 2.933281e-02 2.875032e-02 2.856595e-02 2.874420e-02 2.932074e-02 3.043314e-02 3.228157e-02 3.513512e-02 3.927721e-02 4.501310e-02 5.259658e-02 6.225564e-02 7.412003e-02 8.829516e-02 1.048287e-01 1.237592e-01 1.451449e-01 1.687142e-01 1.943467e-01 2.203723e-01 2.418355e-01 2.365474e-01 2.041556e-01 1.664641e-01 1.374211e-01 1.135984e-01 9.371982e-02 7.626485e-02 6.096511e-02 4.791540e-02 3.736201e-02 2.936570e-02 2.383842e-02 2.061062e-02 
2.115133e-02 2.237671e-02 2.605860e-02 3.234692e-02 4.142606e-02 5.337750e-02 6.803559e-02 8.501537e-02 1.039168e-01 1.249743e-01 1.492173e-01 1.787890e-01 2.152819e-01 2.417316e-01 2.379363e-01 2.137045e-01 1.883863e-01 1.639023e-01 1.412461e-01 1.205748e-01 1.020111e-01 8.556658e-02 7.123912e-02 5.906001e-02 4.897876e-02 4.091457e-02 3.467884e-02 3.004780e-02 2.674612e-02 2.451246e-02 2.310291e-02 2.233458e-02 2.208673e-02 2.232955e-02 2.309287e-02 2.449712e-02 2.672401e-02 3.001669e-02 3.463481e-02 4.085396e-02 4.889667e-02 5.895168e-02 7.109648e-02 8.537953e-02 1.017640e-01 1.202512e-01 1.408238e-01 1.633865e-01 1.877832e-01 2.131653e-01 2.376889e-01 2.422319e-01 2.162846e-01 1.796786e-01 1.496372e-01 1.251067e-01 1.038292e-01 8.483548e-02 6.782459e-02 5.318242e-02 4.126377e-02 3.222545e-02 2.597872e-02 2.233774e-02 
2.250579e-02 2.386248e-02 2.793965e-02 3.491823e-02 4.500875e-02 5.831274e-02 7.458940e-02 9.335058e-02 1.138813e-01 1.363295e-01 1.610866e-01 1.909178e-01 2.251976e-01 2.450729e-01 2.335892e-01 2.087099e-01 1.839927e-01 1.606960e-01 1.389206e-01 1.189238e-01 1.006669e-01 8.426926e-02 6.976768e-02 5.728165e-02 4.680876e-02 3.831522e-02 3.164194e-02 2.659012e-02 2.290615e-02 2.034750e-02 1.868966e-02 1.776395e-02 1.746232e-02 1.775985e-02 1.868158e-02 2.033532e-02 2.288918e-02 2.656761e-02 3.161245e-02 3.827811e-02 4.676275e-02 5.722624e-02 6.970026e-02 8.418704e-02 1.005640e-01 1.187977e-01 1.387684e-01 1.605363e-01 1.838262e-01 2.085495e-01 2.333016e-01 2.452291e-01 2.257686e-01 1.912853e-01 1.610847e-01 1.361295e-01 1.135622e-01 9.300941e-02 7.426979e-02 5.804271e-02 4.479550e-02 3.476270e-02 2.783913e-02 2.381399e-02 
2.354311e-02 2.500697e-02 2.940877e-02 3.695983e-02 4.790215e-02 6.236677e-02 8.007771e-02 1.004422e-01 1.225043e-01 1.460785e-01 1.712538e-01 2.003368e-01 2.321969e-01 2.466139e-01 2.305179e-01 2.059178e-01 1.817490e-01 1.592435e-01 1.380541e-01 1.184839e-01 1.003789e-01 8.394847e-02 6.925368e-02 5.648663e-02 4.567819e-02 3.683177e-02 2.980797e-02 2.442606e-02 2.044636e-02 1.763913e-02 1.579268e-02 1.474791e-02 1.440559e-02 1.474450e-02 1.578616e-02 1.762975e-02 2.043420e-02 2.441163e-02 2.979174e-02 3.681548e-02 4.566335e-02 5.647600e-02 6.924811e-02 8.394860e-02 1.003811e-01 1.184839e-01 1.380422e-01 1.592090e-01 1.816662e-01 2.057298e-01 2.301534e-01 2.464634e-01 2.324709e-01 2.004733e-01 1.711230e-01 1.457743e-01 1.221240e-01 1.000500e-01 7.971775e-02 6.206096e-02 4.766019e-02 3.678245e-02 2.929399e-02 2.495154e-02 
2.419673e-02 2.573188e-02 3.035125e-02 3.828962e-02 4.981708e-02 6.509609e-02 8.385154e-02 1.054194e-01 1.287132e-01 1.531150e-01 1.787117e-01 2.068180e-01 2.365925e-01 2.471819e-01 2.287928e-01 2.042959e-01 1.805486e-01 1.585640e-01 1.377734e-01 1.184751e-01 1.004596e-01 8.399688e-02 6.916646e-02 5.620958e-02 4.517851e-02 3.610128e-02 2.885062e-02 2.325726e-02 1.908967e-02 1.612568e-02 1.416085e-02 1.304165e-02 1.267389e-02 1.303881e-02 1.415564e-02 1.611868e-02 1.908161e-02 2.324964e-02 2.884538e-02 3.610197e-02 4.518893e-02 5.623508e-02 6.921075e-02 8.406309e-02 1.005456e-01 1.185742e-01 1.378693e-01 1.586263e-01 1.805356e-01 2.041335e-01 2.284780e-01 2.470612e-01 2.369074e-01 2.070053e-01 1.786340e-01 1.528485e-01 1.283635e-01 1.050336e-01 8.348497e-02 6.477474e-02 4.955864e-02 3.809795e-02 3.022665e-02 2.567167e-02 
2.442065e-02 2.598051e-02 3.067516e-02 3.874832e-02 5.048172e-02 6.605228e-02 8.519523e-02 1.072281e-01 1.310367e-01 1.557921e-01 1.816116e-01 2.092721e-01 2.380884e-01 2.473149e-01 2.283192e-01 2.038900e-01 1.802895e-01 1.584663e-01 1.377909e-01 1.185655e-01 1.005625e-01 8.407469e-02 6.918623e-02 5.615590e-02 4.504229e-02 3.588201e-02 2.855118e-02 2.288427e-02 1.865193e-02 1.563436e-02 1.362923e-02 1.248478e-02 1.210837e-02 1.248209e-02 1.362438e-02 1.562804e-02 1.864503e-02 2.287857e-02 2.854897e-02 3.588729e-02 4.505934e-02 5.619061e-02 6.924273e-02 8.415630e-02 1.006670e-01 1.186848e-01 1.379079e-01 1.585480e-01 1.802994e-01 2.037623e-01 2.280640e-01 2.472466e-01 2.384147e-01 2.094581e-01 1.815469e-01 1.555438e-01 1.307059e-01 1.068515e-01 8.483233e-02 6.572988e-02 5.022066e-02 3.855365e-02 3.054825e-02 2.591903e-02 
2.419673e-02 2.573188e-02 3.035125e-02 3.828962e-02 4.981708e-02 6.509609e-02 8.385154e-02 1.054194e-01 1.287132e-01 1.531150e-01 1.787117e-01 2.068180e-01 2.365925e-01 2.471819e-01 2.287928e-01 2.042959e-01 1.805486e-01 1.585640e-01 1.377734e-01 1.184751e-01 1.004596e-01 8.399688e-02 6.916646e-02 5.620958e-02 4.517851e-02 3.610128e-02 2.885062e-02 2.325726e-02 1.908967e-02 1.612568e-02 1.416085e-02 1.304165e-02 1.267389e-02 1.303881e-02 1.415564e-02 1.611868e-02 1.908161e-02 2.324964e-02 2.884538e-02 3.610197e-02 4.518893e-02 5.623508e-02 6.921075e-02 8.406309e-02 1.005456e-01 1.185742e-01 1.378693e-01 1.586263e-01 1.805356e-01 2.041335e-01 2.284780e-01 2.470612e-01 2.369074e-01 2.070053e-01 1.786340e-01 1.528485e-01 1.283635e-01 1.050336e-01 8.348497e-02 6.477474e-02 4.955864e-02 3.809795e-02 3.022665e-02 2.567167e-02 
2.354311e-02 2.500697e-02 2.940877e-02 3.695983e-02 4.790215e-02 6.236677e-02 8.007771e-02 1.004422e-01 1.225043e-01 1.460785e-01 1.712538e-01 2.003368e-01 2.321969e-01 2.466139e-01 2.305179e-01 2.059178e-01 1.817490e-01 1.592435e-01 1.380541e-01 1.184839e-01 1.003789e-01 8.394847e-02 6.925368e-02 5.648663e-02 4.567819e-02 3.683177e-02 2.980797e-02 2.442606e-02 2.044636e-02 1.763913e-02 1.579268e-02 1.474791e-02 1.440559e-02 1.474450e-02 1.578616e-02 1.762975e-02 2.043420e-02 2.441163e-02 2.979174e-02 3.681548e-02 4.566335e-02 5.647600e-02 6.924811e-02 8.394860e-02 1.003811e-01 1.184839e-01 1.380422e-01 1.592090e-01 1.816662e-01 2.057298e-01 2.301534e-01 2.464634e-01 2.324709e-01 2.004733e-01 1.711230e-01 1.457743e-01 1.221240e-01 1.000500e-01 7.971775e-02 6.206096e-02 4.766019e-02 3.678245e-02 2.929399e-02 2.495154e-02 