# vtk DataFile Version 2.0
Comment goes here
ASCII

DATASET STRUCTURED_POINTS
FIELD FieldData 1
TIME 1 1 double
1.16000000
DIMENSIONS    64   64   1

ORIGIN    0.000   0.000   0.000
SPACING   0.015625 0.015625   1.000

POINT_DATA   4096
SCALARS Concentration double
LOOKUP_TABLE default

3.237555e-03 3.280031e-03 3.422773e-03 3.670068e-03 4.029367e-03 4.511831e-03 5.132792e-03 5.912584e-03 6.876819e-03 8.057129e-03 9.490436e-03 1.121854e-02 1.328563e-02 1.573608e-02 1.860922e-02 2.193526e-02 2.572918e-02 2.998672e-02 3.468093e-02 3.976105e-02 4.515452e-02 5.076889e-02 5.649815e-02 6.222471e-02 6.782629e-02 7.317455e-02 7.814444e-02 8.261468e-02 8.647393e-02 8.961928e-02 9.196233e-02 9.342899e-02 9.396512e-02 9.353973e-02 9.217326e-02 8.991803e-02 8.684555e-02 8.304441e-02 7.861573e-02 7.367170e-02 6.833373e-02 6.272836e-02 5.698712e-02 5.123463e-02 4.559218e-02 4.016678e-02 3.505377e-02 3.032598e-02 2.603619e-02 2.221121e-02 1.885645e-02 1.595661e-02 1.348188e-02 1.139252e-02 9.644126e-03 8.192077e-03 6.994327e-03 6.013708e-03 5.218374e-03 4.582482e-03 4.085532e-03 3.712033e-03 3.450695e-03 3.293971e-03 
3.320523e-03 3.363476e-03 3.508069e-03 3.758600e-03 4.122528e-03 4.611056e-03 5.239573e-03 6.028490e-03 7.003572e-03 8.196700e-03 9.645180e-03 1.139135e-02 1.348007e-02 1.595664e-02 1.886151e-02 2.222627e-02 2.606743e-02 3.038242e-02 3.514607e-02 4.030935e-02 4.580124e-02 5.153057e-02 5.739199e-02 6.326810e-02 6.903631e-02 7.456453e-02 7.972115e-02 8.437704e-02 8.841164e-02 9.171142e-02 9.417747e-02 9.572608e-02 9.629590e-02 9.585232e-02 9.441733e-02 9.204976e-02 8.882972e-02 8.485668e-02 8.024208e-02 7.510845e-02 6.958543e-02 6.380695e-02 5.790998e-02 5.201973e-02 4.625754e-02 4.072985e-02 3.553068e-02 3.073120e-02 2.638229e-02 2.250889e-02 1.911455e-02 1.618232e-02 1.368098e-02 1.156956e-02 9.802743e-03 8.335158e-03 7.124239e-03 6.132415e-03 5.327591e-03 4.683763e-03 4.180358e-03 3.801824e-03 3.536835e-03 3.377837e-03 
3.571131e-03 3.615534e-03 3.765707e-03 4.025972e-03 4.403807e-03 4.910512e-03 5.561621e-03 6.377805e-03 7.385276e-03 8.616659e-03 1.011035e-02 1.191029e-02 1.406336e-02 1.661757e-02 1.961670e-02 2.309633e-02 2.707758e-02 3.156282e-02 3.653216e-02 4.194153e-02 4.772461e-02 5.379355e-02 6.004510e-02 6.636110e-02 7.261567e-02 7.866607e-02 8.436336e-02 8.955632e-02 9.409840e-02 9.784557e-02 1.006684e-01 1.024549e-01 1.031227e-01 1.026270e-01 1.009941e-01 9.830158e-02 9.465483e-02 9.018471e-02 8.503251e-02 7.934970e-02 7.328952e-02 6.700602e-02 6.065052e-02 5.435297e-02 4.823660e-02 4.240580e-02 3.695141e-02 3.193933e-02 2.741521e-02 2.339812e-02 1.988635e-02 1.685799e-02 1.427759e-02 1.210066e-02 1.027904e-02 8.765243e-03 7.515108e-03 6.489899e-03 5.656763e-03 4.989249e-03 4.466527e-03 4.072902e-03 3.796960e-03 3.631142e-03 
3.994870e-03 4.041654e-03 4.201091e-03 4.477544e-03 4.878508e-03 5.415434e-03 6.104091e-03 6.965589e-03 8.026869e-03 9.321778e-03 1.089048e-02 1.277964e-02 1.503949e-02 1.772249e-02 2.087800e-02 2.454817e-02 2.876167e-02 3.352898e-02 3.883859e-02 4.465431e-02 5.091676e-02 5.754282e-02 6.443114e-02 7.146096e-02 7.849874e-02 8.538271e-02 9.193698e-02 9.797604e-02 1.033131e-01 1.077576e-01 1.111345e-01 1.132899e-01 1.141103e-01 1.135353e-01 1.115979e-01 1.084029e-01 1.040931e-01 9.884606e-02 9.284776e-02 8.629462e-02 7.937668e-02 7.228020e-02 6.518037e-02 5.821794e-02 5.152061e-02 4.519113e-02 3.931563e-02 3.395220e-02 2.913803e-02 2.488290e-02 2.117644e-02 1.798860e-02 1.527701e-02 1.299129e-02 1.107865e-02 9.488075e-03 8.172700e-03 7.091913e-03 6.211628e-03 5.504646e-03 4.949707e-03 4.530888e-03 4.236643e-03 4.059414e-03 
4.601033e-03 4.651121e-03 4.823523e-03 5.122653e-03 5.556026e-03 6.135295e-03 6.876550e-03 7.801523e-03 8.938150e-03 1.032198e-02 1.199560e-02 1.400931e-02 1.641826e-02 1.928100e-02 2.265455e-02 2.659017e-02 3.112680e-02 3.628575e-02 4.206648e-02 4.844243e-02 5.536242e-02 6.274745e-02 7.049676e-02 7.848307e-02 8.656004e-02 9.454278e-02 1.022219e-01 1.093704e-01 1.157529e-01 1.211183e-01 1.252306e-01 1.278781e-01 1.289042e-01 1.282277e-01 1.258897e-01 1.220329e-01 1.168506e-01 1.105834e-01 1.034746e-01 9.577626e-02 8.772397e-02 7.954519e-02 7.144568e-02 6.358270e-02 5.609337e-02 4.907972e-02 4.262391e-02 3.677430e-02 3.155772e-02 2.697157e-02 2.299401e-02 1.958385e-02 1.668918e-02 1.425155e-02 1.221175e-02 1.051381e-02 9.107065e-03 7.948390e-03 7.001972e-03 6.239619e-03 5.639453e-03 5.185244e-03 4.865270e-03 4.671983e-03 
5.402709e-03 5.456979e-03 5.646035e-03 5.974371e-03 6.449507e-03 7.083363e-03 7.892424e-03 8.899251e-03 1.013302e-02 1.163144e-02 1.344026e-02 1.561427e-02 1.821504e-02 2.130922e-02 2.496362e-02 2.924109e-02 3.419365e-02 3.985590e-02 4.624041e-02 5.333131e-02 6.108525e-02 6.942547e-02 7.824787e-02 8.741379e-02 9.675837e-02 1.060649e-01 1.150844e-01 1.235439e-01 1.311527e-01 1.375915e-01 1.425575e-01 1.457762e-01 1.470444e-01 1.462566e-01 1.434626e-01 1.388465e-01 1.326548e-01 1.251966e-01 1.167768e-01 1.077110e-01 9.828732e-02 8.878449e-02 7.944925e-02 7.046288e-02 6.197722e-02 5.409699e-02 4.690188e-02 4.043027e-02 3.469727e-02 2.968548e-02 2.535894e-02 2.166240e-02 1.853187e-02 1.589849e-02 1.369486e-02 1.185834e-02 1.033358e-02 9.074221e-03 8.042274e-03 7.208286e-03 6.549569e-03 6.049517e-03 5.696179e-03 5.482036e-03 
6.416822e-03 6.476147e-03 6.685653e-03 7.049910e-03 7.576443e-03 8.277489e-03 9.170003e-03 1.027760e-02 1.163094e-02 1.327039e-02 1.524552e-02 1.761679e-02 2.045329e-02 2.383211e-02 2.783236e-02 3.253111e-02 3.799602e-02 4.427739e-02 5.140222e-02 5.936487e-02 6.812759e-02 7.761019e-02 8.769860e-02 9.823292e-02 1.090218e-01 1.198152e-01 1.303263e-01 1.402472e-01 1.492428e-01 1.569165e-01 1.628809e-01 1.667772e-01 1.683375e-01 1.674257e-01 1.641031e-01 1.586091e-01 1.512620e-01 1.424590e-01 1.325715e-01 1.219732e-01 1.109971e-01 9.997590e-02 8.920279e-02 7.888974e-02 6.921395e-02 6.028737e-02 5.219288e-02 4.495997e-02 3.859253e-02 3.305672e-02 2.830012e-02 2.425074e-02 2.082976e-02 1.795565e-02 1.555020e-02 1.354291e-02 1.187261e-02 1.048905e-02 9.351502e-03 8.429063e-03 7.697987e-03 7.141248e-03 6.746611e-03 6.506608e-03 
7.663833e-03 7.729067e-03 7.962931e-03 8.370108e-03 8.958066e-03 9.739446e-03 1.073169e-02 1.195978e-02 1.345605e-02 1.526410e-02 1.743811e-02 2.004539e-02 2.316434e-02 2.688419e-02 3.129986e-02 3.650601e-02 4.258903e-02 4.961703e-02 5.763287e-02 6.663973e-02 7.660156e-02 8.742727e-02 9.898226e-02 1.110743e-01 1.234760e-01 1.358933e-01 1.480006e-01 1.594658e-01 1.699130e-01 1.788650e-01 1.858560e-01 1.904497e-01 1.923175e-01 1.912885e-01 1.874385e-01 1.810602e-01 1.725335e-01 1.623367e-01 1.508979e-01 1.386467e-01 1.259608e-01 1.132371e-01 1.008263e-01 8.898081e-02 7.791245e-02 6.774845e-02 5.858140e-02 5.043516e-02 4.330402e-02 3.713639e-02 3.186156e-02 2.738765e-02 2.361815e-02 2.045500e-02 1.780749e-02 1.559543e-02 1.375061e-02 1.221802e-02 1.095368e-02 9.925023e-03 9.106949e-03 8.481995e-03 8.037583e-03 7.766356e-03 
9.167770e-03 9.239814e-03 9.502278e-03 9.959934e-03 1.062014e-02 1.149598e-02 1.260539e-02 1.397502e-02 1.563914e-02 1.764517e-02 2.005278e-02 2.293765e-02 2.638945e-02 3.051242e-02 3.541981e-02 4.122806e-02 4.804668e-02 5.596389e-02 6.503838e-02 7.527939e-02 8.664551e-02 9.902139e-02 1.122358e-01 1.260395e-01 1.401511e-01 1.542240e-01 1.679046e-01 1.809030e-01 1.928739e-01 2.032491e-01 2.114329e-01 2.168609e-01 2.190991e-01 2.179326e-01 2.134598e-01 2.060557e-01 1.962114e-01 1.845441e-01 1.715385e-01 1.576250e-01 1.431724e-01 1.286361e-01 1.144346e-01 1.008686e-01 8.820822e-02 7.660623e-02 6.617900e-02 5.695126e-02 4.891180e-02 4.199196e-02 3.610104e-02 3.112381e-02 2.694136e-02 2.343676e-02 2.050373e-02 1.805045e-02 1.600003e-02 1.429180e-02 1.287792e-02 1.172389e-02 1.080297e-02 1.009729e-02 9.593868e-03 9.285544e-03 
1.095531e-02 1.103513e-02 1.133086e-02 1.184738e-02 1.259177e-02 1.357758e-02 1.482323e-02 1.635724e-02 1.821622e-02 2.045200e-02 2.313083e-02 2.633851e-02 3.017850e-02 3.477326e-02 4.025866e-02 4.677624e-02 5.446259e-02 6.342953e-02 7.375245e-02 8.544123e-02 9.844141e-02 1.125993e-01 1.276883e-01 1.433818e-01 1.593273e-01 1.751085e-01 1.903427e-01 2.048155e-01 2.182157e-01 2.298747e-01 2.391105e-01 2.452775e-01 2.478574e-01 2.465713e-01 2.415620e-01 2.332771e-01 2.222702e-01 2.092525e-01 1.947287e-01 1.791298e-01 1.628301e-01 1.463626e-01 1.302130e-01 1.147372e-01 1.002765e-01 8.702195e-02 7.512832e-02 6.463052e-02 5.551982e-02 4.771156e-02 4.109323e-02 3.552241e-02 3.085500e-02 2.695074e-02 2.368452e-02 2.095012e-02 1.866013e-02 1.674709e-02 1.515868e-02 1.385803e-02 1.281660e-02 1.201615e-02 1.144330e-02 1.109123e-02 
1.305574e-02 1.314447e-02 1.347895e-02 1.406405e-02 1.490640e-02 1.601992e-02 1.742339e-02 1.914730e-02 2.123113e-02 2.373174e-02 2.672318e-02 3.030352e-02 3.459289e-02 3.973610e-02 4.589588e-02 5.324403e-02 6.194703e-02 7.214174e-02 8.391861e-02 9.728558e-02 1.121645e-01 1.283472e-01 1.455304e-01 1.632644e-01 1.810875e-01 1.984503e-01 2.149031e-01 2.305017e-01 2.452549e-01 2.583938e-01 2.689656e-01 2.761115e-01 2.791368e-01 2.776550e-01 2.719096e-01 2.624568e-01 2.500481e-01 2.356963e-01 2.199178e-01 2.029209e-01 1.849063e-01 1.665040e-01 1.483204e-01 1.307672e-01 1.143037e-01 9.917333e-02 8.559076e-02 7.361636e-02 6.325076e-02 5.439852e-02 4.692489e-02 4.065861e-02 3.542501e-02 3.105634e-02 2.740402e-02 2.434445e-02 2.177722e-02 1.962687e-02 1.783589e-02 1.636456e-02 1.518241e-02 1.427102e-02 1.361669e-02 1.321315e-02 
1.549880e-02 1.559782e-02 1.597754e-02 1.664279e-02 1.759927e-02 1.886121e-02 2.044736e-02 2.239023e-02 2.473262e-02 2.753716e-02 3.088696e-02 3.489492e-02 3.970134e-02 4.547765e-02 5.241870e-02 6.073008e-02 7.061200e-02 8.222426e-02 9.567064e-02 1.109474e-01 1.279476e-01 1.463984e-01 1.659031e-01 1.858705e-01 2.057106e-01 2.248170e-01 2.426615e-01 2.594260e-01 2.752270e-01 2.892353e-01 3.004856e-01 3.081330e-01 3.114213e-01 3.098294e-01 3.037098e-01 2.936857e-01 2.804925e-01 2.651774e-01 2.481088e-01 2.294778e-01 2.096007e-01 1.892162e-01 1.689045e-01 1.491224e-01 1.304615e-01 1.132328e-01 9.773104e-02 8.405657e-02 7.223532e-02 6.216555e-02 5.369438e-02 4.661791e-02 4.072753e-02 3.582207e-02 3.172490e-02 2.829105e-02 2.540434e-02 2.297993e-02 2.095420e-02 1.928424e-02 1.793762e-02 1.689616e-02 1.614594e-02 1.568170e-02 
1.831448e-02 1.842563e-02 1.885876e-02 1.961840e-02 2.070881e-02 2.214409e-02 2.394248e-02 2.613834e-02 2.877784e-02 3.193052e-02 3.568989e-02 4.018645e-02 4.558458e-02 5.208737e-02 5.992635e-02 6.934541e-02 8.057833e-02 9.380810e-02 1.091436e-01 1.265695e-01 1.459428e-01 1.669401e-01 1.890740e-01 2.115530e-01 2.337409e-01 2.546950e-01 2.734507e-01 2.905795e-01 3.071351e-01 3.226056e-01 3.352951e-01 3.438838e-01 3.475276e-01 3.457254e-01 3.388781e-01 3.274930e-01 3.127642e-01 2.965564e-01 2.789085e-01 2.592506e-01 2.376116e-01 2.150410e-01 1.924226e-01 1.701434e-01 1.490192e-01 1.294266e-01 1.117385e-01 9.611746e-02 8.261627e-02 7.113839e-02 6.151061e-02 5.349699e-02 4.684862e-02 4.132621e-02 3.671870e-02 3.285567e-02 2.960171e-02 2.686126e-02 2.456320e-02 2.266152e-02 2.112202e-02 1.992736e-02 1.906382e-02 1.852767e-02 
2.152895e-02 2.165462e-02 2.215134e-02 2.302301e-02 2.427154e-02 2.591042e-02 2.795628e-02 3.044525e-02 3.342611e-02 3.697711e-02 4.120314e-02 4.625587e-02 5.232797e-02 5.965962e-02 6.852451e-02 7.920683e-02 9.197646e-02 1.070317e-01 1.244870e-01 1.443023e-01 1.663093e-01 1.901441e-01 2.152079e-01 2.404034e-01 2.650640e-01 2.886221e-01 3.108124e-01 3.310432e-01 3.483125e-01 3.627178e-01 3.736210e-01 3.805059e-01 3.833077e-01 3.818923e-01 3.764379e-01 3.669305e-01 3.535348e-01 3.370758e-01 3.165812e-01 2.933725e-01 2.692385e-01 2.444824e-01 2.193689e-01 1.942637e-01 1.703215e-01 1.480254e-01 1.278371e-01 1.099823e-01 9.455309e-02 8.145295e-02 7.049355e-02 6.140091e-02 5.388267e-02 4.765405e-02 4.246338e-02 3.810955e-02 3.443395e-02 3.132904e-02 2.871423e-02 2.654130e-02 2.477444e-02 2.339835e-02 2.240004e-02 2.177823e-02 
2.516445e-02 2.530799e-02 2.588140e-02 2.688737e-02 2.832431e-02 3.020405e-02 3.254032e-02 3.537016e-02 3.874434e-02 4.275118e-02 4.750879e-02 5.319343e-02 6.003166e-02 6.830691e-02 7.834109e-02 9.046374e-02 1.049812e-01 1.221125e-01 1.419737e-01 1.645208e-01 1.895675e-01 2.167922e-01 2.453244e-01 2.740914e-01 3.028298e-01 3.295102e-01 3.523741e-01 3.703256e-01 3.820677e-01 3.894690e-01 3.940341e-01 3.962890e-01 3.970206e-01 3.965398e-01 3.947682e-01 3.910447e-01 3.845593e-01 3.743434e-01 3.575271e-01 3.350719e-01 3.088355e-01 2.799644e-01 2.512004e-01 2.225779e-01 1.951211e-01 1.695458e-01 1.463732e-01 1.259107e-01 1.082445e-01 9.327453e-02 8.078136e-02 7.045007e-02 6.193545e-02 5.490061e-02 4.904483e-02 4.413037e-02 3.997093e-02 3.644493e-02 3.346075e-02 3.096885e-02 2.893267e-02 2.734047e-02 2.618105e-02 2.545672e-02 
2.923273e-02 2.939858e-02 3.006508e-02 3.123302e-02 3.289553e-02 3.506150e-02 3.773957e-02 4.096697e-02 4.479500e-02 4.932348e-02 5.468593e-02 6.108873e-02 6.879808e-02 7.815025e-02 8.952406e-02 1.033022e-01 1.198415e-01 1.393862e-01 1.620934e-01 1.879215e-01 2.167288e-01 2.480816e-01 2.809254e-01 3.133152e-01 3.423190e-01 3.632969e-01 3.742847e-01 3.788758e-01 3.791922e-01 3.777054e-01 3.758500e-01 3.746621e-01 3.740228e-01 3.740717e-01 3.747247e-01 3.763190e-01 3.780624e-01 3.785800e-01 3.755245e-01 3.668271e-01 3.488787e-01 3.211199e-01 2.891510e-01 2.561447e-01 2.243672e-01 1.947112e-01 1.678601e-01 1.442568e-01 1.239592e-01 1.068062e-01 9.253791e-02 8.077827e-02 7.112055e-02 6.316462e-02 5.655007e-02 5.099559e-02 4.628088e-02 4.226748e-02 3.885139e-02 3.598336e-02 3.362695e-02 3.177640e-02 3.042360e-02 2.957623e-02 
3.373610e-02 3.393031e-02 3.471075e-02 3.607514e-02 3.800922e-02 4.051689e-02 4.359904e-02 4.729144e-02 5.164487e-02 5.677102e-02 6.282355e-02 7.004419e-02 7.874901e-02 8.933709e-02 1.022593e-01 1.179644e-01 1.368776e-01 1.593015e-01 1.854615e-01 2.153504e-01 2.486782e-01 2.844102e-01 3.201131e-01 3.492546e-01 3.639080e-01 3.660999e-01 3.599647e-01 3.528850e-01 3.487500e-01 3.474979e-01 3.476421e-01 3.480585e-01 3.480352e-01 3.476445e-01 3.468278e-01 3.460901e-01 3.467588e-01 3.500903e-01 3.571402e-01 3.645046e-01 3.652557e-01 3.544159e-01 3.290264e-01 2.945634e-01 2.584695e-01 2.241070e-01 1.928078e-01 1.654240e-01 1.420066e-01 1.222945e-01 1.059564e-01 9.254102e-02 8.156539e-02 7.255284e-02 6.507081e-02 5.878405e-02 5.343146e-02 4.885276e-02 4.493092e-02 4.161828e-02 3.888043e-02 3.672043e-02 3.513537e-02 3.414031e-02 
3.865860e-02 3.888891e-02 3.980862e-02 4.141102e-02 4.367155e-02 4.658668e-02 5.014574e-02 5.438157e-02 5.934194e-02 6.515319e-02 7.199208e-02 8.014687e-02 8.999215e-02 1.020091e-01 1.167331e-01 1.346999e-01 1.564239e-01 1.822717e-01 2.125781e-01 2.470939e-01 2.851693e-01 3.227109e-01 3.506515e-01 3.596514e-01 3.526764e-01 3.393112e-01 3.288241e-01 3.232431e-01 3.209463e-01 3.205921e-01 3.213111e-01 3.221591e-01 3.223760e-01 3.218158e-01 3.205889e-01 3.193073e-01 3.192662e-01 3.211671e-01 3.265599e-01 3.359596e-01 3.486300e-01 3.585718e-01 3.550168e-01 3.324553e-01 2.964784e-01 2.577069e-01 2.215651e-01 1.897683e-01 1.627142e-01 1.399999e-01 1.212415e-01 1.058960e-01 9.339165e-02 8.316317e-02 7.468598e-02 6.756180e-02 6.147529e-02 5.624188e-02 5.172804e-02 4.789076e-02 4.469921e-02 4.216941e-02 4.030604e-02 3.913431e-02 
4.397000e-02 4.424650e-02 4.533635e-02 4.722662e-02 4.987904e-02 5.327932e-02 5.740080e-02 6.227092e-02 6.793244e-02 7.452866e-02 8.226471e-02 9.148614e-02 1.026419e-01 1.163054e-01 1.331174e-01 1.536939e-01 1.786402e-01 2.083754e-01 2.431244e-01 2.823918e-01 3.223498e-01 3.502145e-01 3.549498e-01 3.418513e-01 3.244145e-01 3.097700e-01 2.997287e-01 2.948180e-01 2.936664e-01 2.946299e-01 2.963822e-01 2.978866e-01 2.983927e-01 2.976907e-01 2.959611e-01 2.938250e-01 2.925946e-01 2.933656e-01 2.978969e-01 3.067430e-01 3.198181e-01 3.365526e-01 3.521280e-01 3.539192e-01 3.325950e-01 2.944500e-01 2.537916e-01 2.173025e-01 1.862295e-01 1.601172e-01 1.385733e-01 1.209906e-01 1.067169e-01 9.508580e-02 8.546710e-02 7.738405e-02 7.045404e-02 6.446289e-02 5.925820e-02 5.480358e-02 5.107481e-02 4.810517e-02 4.591041e-02 4.452890e-02 
4.961603e-02 4.995079e-02 5.124642e-02 5.348140e-02 5.659988e-02 6.057261e-02 6.535144e-02 7.095582e-02 7.741996e-02 8.490935e-02 9.365948e-02 1.040912e-01 1.167330e-01 1.322727e-01 1.514403e-01 1.749363e-01 2.034001e-01 2.372661e-01 2.765469e-01 3.180956e-01 3.485510e-01 3.527249e-01 3.362707e-01 3.146108e-01 2.961324e-01 2.822623e-01 2.733234e-01 2.692716e-01 2.686610e-01 2.699628e-01 2.719061e-01 2.734929e-01 2.740616e-01 2.733750e-01 2.716635e-01 2.694862e-01 2.680134e-01 2.683029e-01 2.719042e-01 2.797047e-01 2.921262e-01 3.091446e-01 3.298743e-01 3.489890e-01 3.527603e-01 3.293019e-01 2.888918e-01 2.477352e-01 2.124345e-01 1.826455e-01 1.579910e-01 1.378801e-01 1.215850e-01 1.083580e-01 9.743808e-02 8.826621e-02 8.037206e-02 7.351084e-02 6.750550e-02 6.233068e-02 5.797131e-02 5.448364e-02 5.189833e-02 5.027043e-02 
5.552739e-02 5.593520e-02 5.747740e-02 6.012146e-02 6.378933e-02 6.843205e-02 7.397340e-02 8.042146e-02 8.779787e-02 9.629460e-02 1.061816e-01 1.179678e-01 1.322724e-01 1.498857e-01 1.716263e-01 1.981602e-01 2.301917e-01 2.681600e-01 3.105424e-01 3.451300e-01 3.530829e-01 3.357487e-01 3.117113e-01 2.892524e-01 2.711040e-01 2.578771e-01 2.494534e-01 2.454789e-01 2.448104e-01 2.460673e-01 2.479929e-01 2.495782e-01 2.501831e-01 2.495576e-01 2.479461e-01 2.458953e-01 2.445006e-01 2.448367e-01 2.482801e-01 2.556805e-01 2.675321e-01 2.840534e-01 3.049083e-01 3.286876e-01 3.496491e-01 3.510387e-01 3.227539e-01 2.802574e-01 2.407496e-01 2.072914e-01 1.793721e-01 1.565085e-01 1.379792e-01 1.229678e-01 1.105885e-01 1.001910e-01 9.120596e-02 8.335354e-02 7.642952e-02 7.042283e-02 6.533195e-02 6.124170e-02 5.820240e-02 5.628944e-02 
6.161072e-02 6.210785e-02 6.394040e-02 6.706154e-02 7.136653e-02 7.678048e-02 8.319203e-02 9.059274e-02 9.898629e-02 1.085952e-01 1.197235e-01 1.329840e-01 1.490751e-01 1.688959e-01 1.932641e-01 2.227834e-01 2.580132e-01 2.996315e-01 3.391430e-01 3.547310e-01 3.398442e-01 3.139081e-01 2.888912e-01 2.670120e-01 2.493530e-01 2.364201e-01 2.280759e-01 2.238159e-01 2.226408e-01 2.233375e-01 2.247871e-01 2.260536e-01 2.265709e-01 2.260813e-01 2.248299e-01 2.233034e-01 2.224690e-01 2.232960e-01 2.269795e-01 2.343415e-01 2.459625e-01 2.621072e-01 2.825209e-01 3.067167e-01 3.327171e-01 3.533428e-01 3.476025e-01 3.125745e-01 2.702652e-01 2.332704e-01 2.021926e-01 1.765678e-01 1.556917e-01 1.387791e-01 1.248088e-01 1.130662e-01 1.028687e-01 9.390620e-02 8.594420e-02 7.899189e-02 7.306622e-02 6.828681e-02 6.472906e-02 6.249229e-02 
6.776296e-02 6.836772e-02 7.053680e-02 7.420608e-02 7.923920e-02 8.552896e-02 9.292053e-02 1.013831e-01 1.108936e-01 1.217090e-01 1.341605e-01 1.489833e-01 1.669337e-01 1.890103e-01 2.160006e-01 2.481467e-01 2.867332e-01 3.286317e-01 3.552828e-01 3.484766e-01 3.213209e-01 2.939114e-01 2.692438e-01 2.479721e-01 2.307132e-01 2.178080e-01 2.091256e-01 2.041806e-01 2.021642e-01 2.020404e-01 2.028318e-01 2.036762e-01 2.040594e-01 2.037300e-01 2.029145e-01 2.020550e-01 2.020104e-01 2.036428e-01 2.079770e-01 2.157220e-01 2.274300e-01 2.433306e-01 2.633367e-01 2.870882e-01 3.136798e-01 3.415342e-01 3.574081e-01 3.402572e-01 3.003107e-01 2.596816e-01 2.259770e-01 1.976865e-01 1.744679e-01 1.555958e-01 1.399385e-01 1.267506e-01 1.152310e-01 1.050457e-01 9.593143e-02 8.792309e-02 8.106273e-02 7.551056e-02 7.137256e-02 6.877443e-02 
7.386312e-02 7.459412e-02 7.714501e-02 8.143043e-02 8.727837e-02 9.454119e-02 1.030134e-01 1.126313e-01 1.233364e-01 1.354155e-01 1.492161e-01 1.656078e-01 1.853615e-01 2.095909e-01 2.389228e-01 2.732324e-01 3.145722e-01 3.511553e-01 3.588535e-01 3.346835e-01 3.049800e-01 2.774635e-01 2.533155e-01 2.324329e-01 2.152896e-01 2.020831e-01 1.927508e-01 1.868665e-01 1.837778e-01 1.826179e-01 1.825625e-01 1.828490e-01 1.830360e-01 1.828876e-01 1.826055e-01 1.825669e-01 1.835127e-01 1.861803e-01 1.914298e-01 1.998611e-01 2.119561e-01 2.278849e-01 2.475815e-01 2.707520e-01 2.971299e-01 3.260049e-01 3.545436e-01 3.580808e-01 3.278067e-01 2.857856e-01 2.496995e-01 2.192722e-01 1.938545e-01 1.730877e-01 1.557128e-01 1.410196e-01 1.280948e-01 1.165922e-01 1.062276e-01 9.706578e-02 8.918240e-02 8.278179e-02 7.800673e-02 7.501245e-02 
7.978970e-02 8.066663e-02 8.364340e-02 8.860935e-02 9.535246e-02 1.036780e-01 1.133227e-01 1.241794e-01 1.361415e-01 1.495152e-01 1.646367e-01 1.825259e-01 2.038778e-01 2.301323e-01 2.612255e-01 2.980631e-01 3.391548e-01 3.640049e-01 3.524650e-01 3.213740e-01 2.918631e-01 2.649818e-01 2.412091e-01 2.204830e-01 2.031097e-01 1.893068e-01 1.790545e-01 1.720367e-01 1.677357e-01 1.654453e-01 1.644775e-01 1.641686e-01 1.641364e-01 1.641689e-01 1.644366e-01 1.652633e-01 1.672833e-01 1.711218e-01 1.774842e-01 1.868606e-01 1.996311e-01 2.158934e-01 2.355283e-01 2.583447e-01 2.840897e-01 3.128561e-01 3.439765e-01 3.655966e-01 3.510877e-01 3.115649e-01 2.725034e-01 2.407054e-01 2.132595e-01 1.907931e-01 1.717551e-01 1.555611e-01 1.411953e-01 1.283129e-01 1.166276e-01 1.062368e-01 9.726167e-02 8.995271e-02 8.449663e-02 8.108050e-02 
8.541298e-02 8.645542e-02 8.989527e-02 9.559058e-02 1.032908e-01 1.127454e-01 1.236330e-01 1.357831e-01 1.490356e-01 1.636773e-01 1.800158e-01 1.991731e-01 2.217370e-01 2.495536e-01 2.818015e-01 3.215061e-01 3.593212e-01 3.694504e-01 3.431792e-01 3.117436e-01 2.825185e-01 2.565200e-01 2.329159e-01 2.120561e-01 1.941256e-01 1.794526e-01 1.680812e-01 1.598021e-01 1.542173e-01 1.507479e-01 1.488334e-01 1.479042e-01 1.476371e-01 1.478453e-01 1.486708e-01 1.503848e-01 1.535232e-01 1.586069e-01 1.662093e-01 1.767210e-01 1.904181e-01 2.073145e-01 2.272062e-01 2.499211e-01 2.750572e-01 3.033498e-01 3.337120e-01 3.656840e-01 3.676328e-01 3.346779e-01 2.940687e-01 2.611949e-01 2.321282e-01 2.081519e-01 1.876206e-01 1.699864e-01 1.542037e-01 1.399189e-01 1.268804e-01 1.152172e-01 1.051108e-01 9.685768e-02 9.069524e-02 8.684341e-02 
9.061054e-02 9.183424e-02 9.575901e-02 1.022122e-01 1.109068e-01 1.215320e-01 1.337108e-01 1.471926e-01 1.617598e-01 1.776299e-01 1.950721e-01 2.151974e-01 2.385519e-01 2.671059e-01 2.999784e-01 3.411955e-01 3.735039e-01 3.695042e-01 3.364188e-01 3.063311e-01 2.777682e-01 2.521711e-01 2.283637e-01 2.069551e-01 1.881621e-01 1.723879e-01 1.597548e-01 1.501443e-01 1.432614e-01 1.386284e-01 1.357879e-01 1.342570e-01 1.337576e-01 1.341297e-01 1.354877e-01 1.380631e-01 1.423070e-01 1.486486e-01 1.575612e-01 1.693416e-01 1.841765e-01 2.019792e-01 2.224898e-01 2.454178e-01 2.703531e-01 2.978532e-01 3.274191e-01 3.615078e-01 3.775211e-01 3.542268e-01 3.144107e-01 2.799153e-01 2.497892e-01 2.245062e-01 2.027841e-01 1.838423e-01 1.667369e-01 1.510804e-01 1.367042e-01 1.237686e-01 1.125295e-01 1.033288e-01 9.645893e-02 9.217305e-02 
9.525890e-02 9.667179e-02 1.010842e-01 1.082938e-01 1.179831e-01 1.297799e-01 1.432610e-01 1.580818e-01 1.739781e-01 1.910441e-01 2.095363e-01 2.304194e-01 2.543839e-01 2.831296e-01 3.166835e-01 3.576383e-01 3.830157e-01 3.680039e-01 3.343819e-01 3.050663e-01 2.771200e-01 2.513136e-01 2.269456e-01 2.046532e-01 1.847841e-01 1.677690e-01 1.538152e-01 1.428705e-01 1.347276e-01 1.289906e-01 1.252759e-01 1.231796e-01 1.224602e-01 1.229818e-01 1.248362e-01 1.282236e-01 1.335211e-01 1.410866e-01 1.513147e-01 1.644213e-01 1.805196e-01 1.994209e-01 2.208281e-01 2.442561e-01 2.693638e-01 2.961566e-01 3.252359e-01 3.576629e-01 3.834514e-01 3.707267e-01 3.327957e-01 2.962796e-01 2.655647e-01 2.393411e-01 2.167723e-01 1.967105e-01 1.784124e-01 1.614580e-01 1.458024e-01 1.316388e-01 1.193076e-01 1.091923e-01 1.016417e-01 9.694071e-02 
9.924723e-02 1.008443e-01 1.057204e-01 1.136463e-01 1.242818e-01 1.371984e-01 1.519402e-01 1.680679e-01 1.852852e-01 2.035350e-01 2.230791e-01 2.446660e-01 2.692361e-01 2.981262e-01 3.325597e-01 3.718871e-01 3.891129e-01 3.670746e-01 3.354884e-01 3.065940e-01 2.790752e-01 2.527619e-01 2.277114e-01 2.044027e-01 1.834069e-01 1.651340e-01 1.499005e-01 1.376951e-01 1.283891e-01 1.216512e-01 1.171530e-01 1.145522e-01 1.136355e-01 1.142880e-01 1.165835e-01 1.207002e-01 1.269542e-01 1.356545e-01 1.471336e-01 1.615377e-01 1.789293e-01 1.990199e-01 2.215016e-01 2.456874e-01 2.713093e-01 2.978215e-01 3.263311e-01 3.564763e-01 3.864857e-01 3.829880e-01 3.473381e-01 3.095599e-01 2.788215e-01 2.522287e-01 2.291316e-01 2.081727e-01 1.888278e-01 1.706969e-01 1.538668e-01 1.385737e-01 1.252387e-01 1.142841e-01 1.061106e-01 1.010322e-01 
1.024724e-01 1.042371e-01 1.095236e-01 1.180816e-01 1.295561e-01 1.434718e-01 1.593538e-01 1.766772e-01 1.951288e-01 2.144939e-01 2.350412e-01 2.572632e-01 2.823052e-01 3.111848e-01 3.461611e-01 3.833051e-01 3.931310e-01 3.671348e-01 3.374730e-01 3.090031e-01 2.818555e-01 2.551171e-01 2.294920e-01 2.052714e-01 1.832794e-01 1.638876e-01 1.475305e-01 1.342266e-01 1.239232e-01 1.163349e-01 1.111788e-01 1.081550e-01 1.070725e-01 1.078344e-01 1.105008e-01 1.152332e-01 1.223046e-01 1.319871e-01 1.445676e-01 1.601340e-01 1.787148e-01 1.999224e-01 2.234478e-01 2.484437e-01 2.746615e-01 3.011992e-01 3.290914e-01 3.576411e-01 3.886172e-01 3.916908e-01 3.586214e-01 3.206160e-01 2.899702e-01 2.632140e-01 2.396445e-01 2.179036e-01 1.976217e-01 1.784544e-01 1.605951e-01 1.443212e-01 1.301200e-01 1.184446e-01 1.097388e-01 1.043401e-01 
1.048492e-01 1.067465e-01 1.123558e-01 1.214108e-01 1.335486e-01 1.482598e-01 1.650616e-01 1.833637e-01 2.028474e-01 2.231669e-01 2.445886e-01 2.673626e-01 2.927285e-01 3.214474e-01 3.563407e-01 3.913045e-01 3.958097e-01 3.679065e-01 3.394022e-01 3.113919e-01 2.845110e-01 2.574990e-01 2.314537e-01 2.065276e-01 1.837597e-01 1.634895e-01 1.462595e-01 1.321022e-01 1.210270e-01 1.127821e-01 1.071234e-01 1.037775e-01 1.025684e-01 1.034128e-01 1.063616e-01 1.115647e-01 1.192685e-01 1.297163e-01 1.431662e-01 1.596507e-01 1.791764e-01 2.012866e-01 2.256545e-01 2.513233e-01 2.779877e-01 3.046164e-01 3.319386e-01 3.596605e-01 3.902914e-01 3.976983e-01 3.674444e-01 3.299121e-01 2.990252e-01 2.720253e-01 2.479030e-01 2.254712e-01 2.043860e-01 1.843774e-01 1.656944e-01 1.486500e-01 1.337733e-01 1.215398e-01 1.124232e-01 1.067786e-01 
1.063084e-01 1.082939e-01 1.141126e-01 1.234892e-01 1.360575e-01 1.512877e-01 1.686951e-01 1.876501e-01 2.078339e-01 2.288210e-01 2.508733e-01 2.740849e-01 2.997014e-01 3.283799e-01 3.629229e-01 3.961548e-01 3.973242e-01 3.686330e-01 3.406084e-01 3.129424e-01 2.862427e-01 2.591189e-01 2.328438e-01 2.074966e-01 1.842505e-01 1.634304e-01 1.456528e-01 1.309608e-01 1.194036e-01 1.107489e-01 1.047762e-01 1.012295e-01 9.994145e-02 1.008381e-01 1.039647e-01 1.094644e-01 1.175700e-01 1.285032e-01 1.425036e-01 1.595751e-01 1.797089e-01 2.024029e-01 2.273100e-01 2.534106e-01 2.803342e-01 3.070439e-01 3.339961e-01 3.614080e-01 3.914497e-01 4.013574e-01 3.732714e-01 3.363638e-01 3.051021e-01 2.778554e-01 2.532554e-01 2.303233e-01 2.086763e-01 1.881075e-01 1.688857e-01 1.513454e-01 1.360373e-01 1.234495e-01 1.140734e-01 1.082745e-01 
1.068035e-01 1.088180e-01 1.147076e-01 1.241941e-01 1.369095e-01 1.523177e-01 1.699331e-01 1.891133e-01 2.095398e-01 2.307623e-01 2.530426e-01 2.764111e-01 3.021102e-01 3.307599e-01 3.651025e-01 3.976969e-01 3.979209e-01 3.690073e-01 3.410942e-01 3.135460e-01 2.869021e-01 2.597444e-01 2.333897e-01 2.078946e-01 1.844792e-01 1.634638e-01 1.454932e-01 1.306134e-01 1.188883e-01 1.100915e-01 1.040103e-01 1.003941e-01 9.907874e-02 9.999280e-02 1.031800e-01 1.087814e-01 1.170253e-01 1.281254e-01 1.423160e-01 1.595910e-01 1.799355e-01 2.028312e-01 2.279198e-01 2.541629e-01 2.811596e-01 3.078923e-01 3.347061e-01 3.620278e-01 3.917826e-01 4.026042e-01 3.754169e-01 3.387791e-01 3.073127e-01 2.799471e-01 2.551432e-01 2.320190e-01 2.101621e-01 1.893936e-01 1.699820e-01 1.522695e-01 1.368116e-01 1.241015e-01 1.146354e-01 1.087830e-01 
1.063084e-01 1.082939e-01 1.141126e-01 1.234892e-01 1.360575e-01 1.512877e-01 1.686951e-01 1.876501e-01 2.078339e-01 2.288210e-01 2.508733e-01 2.740849e-01 2.997014e-01 3.283799e-01 3.629229e-01 3.961548e-01 3.973242e-01 3.686330e-01 3.406084e-01 3.129424e-01 2.862427e-01 2.591189e-01 2.328438e-01 2.074966e-01 1.842505e-01 1.634304e-01 1.456528e-01 1.309608e-01 1.194036e-01 1.107489e-01 1.047762e-01 1.012295e-01 9.994145e-02 1.008381e-01 1.039647e-01 1.094644e-01 1.175700e-01 1.285032e-01 1.425036e-01 1.595751e-01 1.797089e-01 2.024029e-01 2.273100e-01 2.534106e-01 2.803342e-01 3.070439e-01 3.339961e-01 3.614080e-01 3.914497e-01 4.013574e-01 3.732714e-01 3.363638e-01 3.051021e-01 2.778554e-01 2.532554e-01 2.303233e-01 2.086763e-01 1.881075e-01 1.688857e-01 1.513454e-01 1.360373e-01 1.234495e-01 1.140734e-01 1.082745e-01 
1.048492e-01 1.067465e-01 1.123558e-01 1.214108e-01 1.335486e-01 1.482598e-01 1.650616e-01 1.833637e-01 2.028474e-01 2.231669e-01 2.445886e-01 2.673626e-01 2.927285e-01 3.214474e-01 3.563407e-01 3.913045e-01 3.958097e-01 3.679065e-01 3.394022e-01 3.113919e-01 2.845110e-01 2.574990e-01 2.314537e-01 2.065276e-01 1.837597e-01 1.634895e-01 1.462595e-01 1.321022e-01 1.210270e-01 1.127821e-01 1.071234e-01 1.037775e-01 1.025684e-01 1.034128e-01 1.063616e-01 1.115647e-01 1.192685e-01 1.297163e-01 1.431662e-01 1.596507e-01 1.791764e-01 2.012866e-01 2.256545e-01 2.513233e-01 2.779877e-01 3.046164e-01 3.319386e-01 3.596605e-01 3.902914e-01 3.976983e-01 3.674444e-01 3.299121e-01 2.990252e-01 2.720253e-01 2.479030e-01 2.254712e-01 2.043860e-01 1.843774e-01 1.656944e-01 1.486500e-01 1.337733e-01 1.215398e-01 1.124232e-01 1.067786e-01 