# vtk DataFile Version 2.0
Comment goes here
ASCII

DATASET STRUCTURED_POINTS
FIELD FieldData 1
TIME 1 1 double
1.60000000
DIMENSIONS    64   64   1

ORIGIN    0.000   0.000   0.000
SPACING   0.015625 0.015625   1.000

POINT_DATA   4096
SCALARS Concentration double
LOOKUP_TABLE default

1.036788e-02 1.044721e-02 1.073624e-02 1.124606e-02 1.199554e-02 1.301152e-02 1.432861e-02 1.598880e-02 1.804078e-02 2.053779e-02 2.353579e-02 2.708844e-02 3.124392e-02 3.603673e-02 4.148492e-02 4.758050e-02 5.429084e-02 6.155072e-02 6.927101e-02 7.733377e-02 8.560780e-02 9.394531e-02 1.022001e-01 1.102224e-01 1.178728e-01 1.250134e-01 1.315203e-01 1.372762e-01 1.421788e-01 1.461351e-01 1.490672e-01 1.509105e-01 1.516175e-01 1.511577e-01 1.495470e-01 1.468241e-01 1.430462e-01 1.382882e-01 1.326415e-01 1.262109e-01 1.191172e-01 1.114889e-01 1.034690e-01 9.520115e-02 8.683882e-02 7.852961e-02 7.042268e-02 6.264968e-02 5.532908e-02 4.855102e-02 4.238183e-02 3.685613e-02 3.198375e-02 2.774883e-02 2.411858e-02 2.104614e-02 1.847878e-02 1.636072e-02 1.463879e-02 1.326375e-02 1.219323e-02 1.139183e-02 1.083223e-02 1.049482e-02 
1.053144e-02 1.061045e-02 1.089931e-02 1.140912e-02 1.215884e-02 1.317538e-02 1.449349e-02 1.615540e-02 1.821008e-02 2.071122e-02 2.371538e-02 2.727703e-02 3.144541e-02 3.625628e-02 4.172924e-02 4.785788e-02 5.461132e-02 6.192579e-02 6.971359e-02 7.785748e-02 8.622682e-02 9.467338e-02 1.030506e-01 1.112079e-01 1.190042e-01 1.262970e-01 1.329578e-01 1.388633e-01 1.439046e-01 1.479813e-01 1.510084e-01 1.529146e-01 1.536472e-01 1.531734e-01 1.515102e-01 1.487009e-01 1.448085e-01 1.399154e-01 1.341207e-01 1.275363e-01 1.202894e-01 1.125134e-01 1.043560e-01 9.596346e-02 8.748979e-02 7.908295e-02 7.089244e-02 6.304944e-02 5.567165e-02 4.884794e-02 4.264319e-02 3.709043e-02 3.219787e-02 2.794820e-02 2.430734e-02 2.122737e-02 1.865470e-02 1.653291e-02 1.480835e-02 1.343144e-02 1.235957e-02 1.155716e-02 1.099680e-02 1.065882e-02 
1.102580e-02 1.110381e-02 1.139207e-02 1.190176e-02 1.265201e-02 1.366997e-02 1.499086e-02 1.665747e-02 1.871970e-02 2.123250e-02 2.425420e-02 2.784163e-02 3.204714e-02 3.691027e-02 4.245509e-02 4.868006e-02 5.555938e-02 6.303395e-02 7.102005e-02 7.940319e-02 8.805400e-02 9.682375e-02 1.055638e-01 1.141203e-01 1.223454e-01 1.300854e-01 1.371972e-01 1.435409e-01 1.489880e-01 1.534173e-01 1.567221e-01 1.588120e-01 1.596194e-01 1.591048e-01 1.572883e-01 1.542262e-01 1.499982e-01 1.447096e-01 1.384806e-01 1.314451e-01 1.237480e-01 1.155384e-01 1.069759e-01 9.821456e-02 8.941172e-02 8.071706e-02 7.228067e-02 6.423229e-02 5.668709e-02 4.973008e-02 4.342170e-02 3.779019e-02 3.283906e-02 2.854663e-02 2.487506e-02 2.177330e-02 1.918528e-02 1.705270e-02 1.532053e-02 1.393817e-02 1.286232e-02 1.205693e-02 1.149430e-02 1.115454e-02 
1.186205e-02 1.193839e-02 1.222572e-02 1.273534e-02 1.348665e-02 1.450715e-02 1.583275e-02 1.750721e-02 1.958190e-02 2.211380e-02 2.516416e-02 2.879365e-02 3.305966e-02 3.800792e-02 4.366985e-02 5.005188e-02 5.713660e-02 6.487243e-02 7.318242e-02 8.195608e-02 9.106628e-02 1.003625e-01 1.096924e-01 1.188946e-01 1.278099e-01 1.362659e-01 1.440983e-01 1.511408e-01 1.572356e-01 1.622283e-01 1.659784e-01 1.683641e-01 1.692928e-01 1.687134e-01 1.666520e-01 1.631852e-01 1.584208e-01 1.525004e-01 1.455785e-01 1.378224e-01 1.294054e-01 1.204995e-01 1.112838e-01 1.019242e-01 9.258593e-02 8.342188e-02 7.458391e-02 6.619959e-02 5.838026e-02 5.120479e-02 4.472644e-02 3.896569e-02 3.391834e-02 2.955565e-02 2.583355e-02 2.269588e-02 2.008252e-02 1.793205e-02 1.618717e-02 1.479564e-02 1.371304e-02 1.290252e-02 1.233595e-02 1.199311e-02 
1.305851e-02 1.313248e-02 1.341859e-02 1.392827e-02 1.468131e-02 1.570562e-02 1.703789e-02 1.872316e-02 2.081477e-02 2.337239e-02 2.646118e-02 3.014693e-02 3.449390e-02 3.955611e-02 4.537505e-02 5.196798e-02 5.932897e-02 6.741684e-02 7.616367e-02 8.546453e-02 9.519465e-02 1.052010e-01 1.153247e-01 1.253935e-01 1.352313e-01 1.446426e-01 1.534344e-01 1.614076e-01 1.683658e-01 1.741121e-01 1.784599e-01 1.812440e-01 1.823370e-01 1.816723e-01 1.792825e-01 1.752729e-01 1.697897e-01 1.630250e-01 1.551787e-01 1.464629e-01 1.370868e-01 1.272528e-01 1.171643e-01 1.070029e-01 9.694526e-02 8.714940e-02 7.777006e-02 6.893235e-02 6.074272e-02 5.327195e-02 4.656371e-02 4.062802e-02 3.545030e-02 3.099225e-02 2.720138e-02 2.401467e-02 2.136645e-02 1.919115e-02 1.742838e-02 1.602370e-02 1.493120e-02 1.411305e-02 1.354051e-02 1.319303e-02 
1.464052e-02 1.471143e-02 1.499628e-02 1.550660e-02 1.626258e-02 1.729263e-02 1.863444e-02 2.033426e-02 2.244775e-02 2.503796e-02 2.817473e-02 3.193017e-02 3.637694e-02 4.157938e-02 4.759142e-02 5.444389e-02 6.214525e-02 7.066724e-02 7.995322e-02 8.990444e-02 1.003986e-01 1.112775e-01 1.223732e-01 1.334965e-01 1.444499e-01 1.550086e-01 1.649479e-01 1.740323e-01 1.820247e-01 1.886797e-01 1.937557e-01 1.970297e-01 1.983272e-01 1.975612e-01 1.947715e-01 1.901017e-01 1.837491e-01 1.759700e-01 1.670181e-01 1.571560e-01 1.466326e-01 1.356823e-01 1.245380e-01 1.134001e-01 1.024618e-01 9.188867e-02 8.184085e-02 7.244162e-02 6.379227e-02 5.595422e-02 4.895947e-02 4.280542e-02 3.746451e-02 3.288673e-02 2.900911e-02 2.576007e-02 2.306708e-02 2.085940e-02 1.907283e-02 1.765026e-02 1.654395e-02 1.571495e-02 1.513386e-02 1.477978e-02 
1.663913e-02 1.670635e-02 1.699026e-02 1.750238e-02 1.826331e-02 1.930190e-02 2.065687e-02 2.237596e-02 2.451717e-02 2.714684e-02 3.034056e-02 3.417758e-02 3.874030e-02 4.410492e-02 5.034000e-02 5.749220e-02 6.558713e-02 7.461173e-02 8.452249e-02 9.522751e-02 1.066061e-01 1.184928e-01 1.307067e-01 1.430378e-01 1.552617e-01 1.671209e-01 1.783559e-01 1.886952e-01 1.978587e-01 2.055503e-01 2.114647e-01 2.153086e-01 2.168470e-01 2.159681e-01 2.127178e-01 2.072880e-01 1.999390e-01 1.910059e-01 1.808031e-01 1.696491e-01 1.578329e-01 1.456214e-01 1.332784e-01 1.210252e-01 1.090752e-01 9.760426e-02 8.678104e-02 7.672799e-02 6.754183e-02 5.927376e-02 5.194271e-02 4.553154e-02 3.999773e-02 3.527764e-02 3.129603e-02 2.797142e-02 2.522320e-02 2.297474e-02 2.115724e-02 1.971064e-02 1.858533e-02 1.774116e-02 1.714811e-02 1.678482e-02 
1.909061e-02 1.915365e-02 1.943776e-02 1.995403e-02 2.072352e-02 2.177532e-02 2.314914e-02 2.489414e-02 2.707102e-02 2.974981e-02 3.301128e-02 3.694263e-02 4.163738e-02 4.718495e-02 5.367034e-02 6.115848e-02 6.969456e-02 7.928331e-02 8.989627e-02 1.014486e-01 1.138203e-01 1.268344e-01 1.402926e-01 1.539562e-01 1.675653e-01 1.808225e-01 1.934327e-01 2.050937e-01 2.154975e-01 2.243056e-01 2.311464e-01 2.356348e-01 2.374533e-01 2.364525e-01 2.326871e-01 2.264159e-01 2.179842e-01 2.078218e-01 1.963017e-01 1.837883e-01 1.706010e-01 1.570332e-01 1.433840e-01 1.298995e-01 1.168219e-01 1.043417e-01 9.264154e-02 8.184595e-02 7.204779e-02 6.328821e-02 5.557137e-02 4.886420e-02 4.310698e-02 3.822079e-02 3.411633e-02 3.070101e-02 2.788489e-02 2.558448e-02 2.372642e-02 2.224750e-02 2.109606e-02 2.023070e-02 1.962091e-02 1.924481e-02 
2.203341e-02 2.209199e-02 2.237836e-02 2.290306e-02 2.368696e-02 2.475938e-02 2.616074e-02 2.794139e-02 3.016470e-02 3.290455e-02 3.624771e-02 4.028894e-02 4.513236e-02 5.088257e-02 5.764286e-02 6.549810e-02 7.451606e-02 8.472132e-02 9.610293e-02 1.085830e-01 1.220409e-01 1.362837e-01 1.510902e-01 1.661876e-01 1.812706e-01 1.959974e-01 2.100354e-01 2.230591e-01 2.347379e-01 2.447065e-01 2.525268e-01 2.577090e-01 2.598387e-01 2.587138e-01 2.543997e-01 2.472369e-01 2.376701e-01 2.262377e-01 2.133650e-01 1.994593e-01 1.848590e-01 1.698748e-01 1.548417e-01 1.400346e-01 1.257318e-01 1.121442e-01 9.947566e-02 8.785554e-02 7.737532e-02 6.806576e-02 5.991537e-02 5.287363e-02 4.686176e-02 4.178398e-02 3.753546e-02 3.401065e-02 3.110998e-02 2.874323e-02 2.683182e-02 2.530911e-02 2.412141e-02 2.322627e-02 2.259268e-02 2.219878e-02 
2.550712e-02 2.556136e-02 2.585366e-02 2.639370e-02 2.720161e-02 2.830640e-02 2.974902e-02 3.158051e-02 3.386669e-02 3.668518e-02 4.012897e-02 4.430118e-02 4.931737e-02 5.529597e-02 6.235928e-02 7.061665e-02 8.016065e-02 9.104016e-02 1.032646e-01 1.167646e-01 1.314172e-01 1.470076e-01 1.632859e-01 1.799305e-01 1.965724e-01 2.128028e-01 2.282389e-01 2.425463e-01 2.554218e-01 2.665219e-01 2.753580e-01 2.812965e-01 2.837892e-01 2.825332e-01 2.776183e-01 2.695173e-01 2.588178e-01 2.461856e-01 2.320605e-01 2.168419e-01 2.008530e-01 1.844123e-01 1.679111e-01 1.516678e-01 1.360161e-01 1.211974e-01 1.074460e-01 9.490172e-02 8.365457e-02 7.372567e-02 6.508477e-02 5.766233e-02 5.135789e-02 4.605601e-02 4.163429e-02 3.797500e-02 3.496786e-02 3.251494e-02 3.053203e-02 2.894904e-02 2.771048e-02 2.677313e-02 2.610569e-02 2.568710e-02 
2.954707e-02 2.959757e-02 2.990145e-02 3.046718e-02 3.131381e-02 3.246854e-02 3.397289e-02 3.587796e-02 3.825154e-02 4.117462e-02 4.474640e-02 4.907847e-02 5.429869e-02 6.054077e-02 6.794700e-02 7.664919e-02 8.677086e-02 9.839058e-02 1.115432e-01 1.261677e-01 1.421371e-01 1.592054e-01 1.770838e-01 1.953949e-01 2.136788e-01 2.314561e-01 2.482969e-01 2.638550e-01 2.778428e-01 2.899861e-01 2.997796e-01 3.064494e-01 3.093012e-01 3.079223e-01 3.024363e-01 2.934545e-01 2.817038e-01 2.679703e-01 2.526637e-01 2.361836e-01 2.188259e-01 2.008944e-01 1.828392e-01 1.650366e-01 1.478978e-01 1.317050e-01 1.167395e-01 1.031544e-01 9.104186e-02 8.041166e-02 7.121267e-02 6.335321e-02 5.670618e-02 5.113728e-02 4.650542e-02 4.267889e-02 3.953522e-02 3.696838e-02 3.488827e-02 3.322158e-02 3.191153e-02 3.091400e-02 3.019879e-02 2.974610e-02 
3.418278e-02 3.423092e-02 3.455482e-02 3.516123e-02 3.606770e-02 3.729838e-02 3.889448e-02 4.090668e-02 4.340421e-02 4.647094e-02 5.021200e-02 5.474758e-02 6.021804e-02 6.677377e-02 7.457908e-02 8.379325e-02 9.457234e-02 1.070298e-01 1.212350e-01 1.371426e-01 1.546153e-01 1.733657e-01 1.930609e-01 2.132394e-01 2.333277e-01 2.527219e-01 2.708767e-01 2.874427e-01 3.022555e-01 3.152427e-01 3.259571e-01 3.334241e-01 3.366988e-01 3.351744e-01 3.290424e-01 3.191712e-01 3.065073e-01 2.919747e-01 2.758154e-01 2.582928e-01 2.396088e-01 2.200769e-01 2.002890e-01 1.807031e-01 1.618473e-01 1.440610e-01 1.276835e-01 1.128914e-01 9.977381e-02 8.832993e-02 7.847789e-02 7.010133e-02 6.304495e-02 5.715212e-02 5.225963e-02 4.822003e-02 4.489753e-02 4.217752e-02 3.996400e-02 3.818078e-02 3.677028e-02 3.568784e-02 3.490595e-02 3.440655e-02 
3.943063e-02 3.947864e-02 3.983418e-02 4.050178e-02 4.149689e-02 4.284002e-02 4.456959e-02 4.673618e-02 4.940964e-02 5.267630e-02 5.664693e-02 6.145026e-02 6.723964e-02 7.418290e-02 8.246909e-02 9.228872e-02 1.038397e-01 1.172779e-01 1.327153e-01 1.501177e-01 1.693342e-01 1.900043e-01 2.117321e-01 2.339512e-01 2.559079e-01 2.769474e-01 2.965595e-01 3.143311e-01 3.299492e-01 3.435354e-01 3.548142e-01 3.627305e-01 3.662459e-01 3.646260e-01 3.581294e-01 3.477629e-01 3.345288e-01 3.193498e-01 3.022319e-01 2.835644e-01 2.635489e-01 2.423761e-01 2.207114e-01 1.991235e-01 1.783048e-01 1.586627e-01 1.406356e-01 1.244254e-01 1.101241e-01 9.771461e-02 8.708314e-02 7.808658e-02 7.053270e-02 6.423951e-02 5.901718e-02 5.470147e-02 5.114162e-02 4.821436e-02 4.581780e-02 4.387344e-02 4.232271e-02 4.112246e-02 4.024888e-02 3.968631e-02 
4.529272e-02 4.534397e-02 4.574678e-02 4.650276e-02 4.762477e-02 4.912862e-02 5.104880e-02 5.343410e-02 5.635530e-02 5.990063e-02 6.418634e-02 6.934998e-02 7.555806e-02 8.299748e-02 9.188405e-02 1.024456e-01 1.149303e-01 1.295524e-01 1.464774e-01 1.656892e-01 1.869876e-01 2.099163e-01 2.340089e-01 2.585345e-01 2.827094e-01 3.056652e-01 3.265980e-01 3.451535e-01 3.611527e-01 3.750753e-01 3.869174e-01 3.954458e-01 3.993276e-01 3.975337e-01 3.904637e-01 3.795201e-01 3.659074e-01 3.505708e-01 3.330366e-01 3.135182e-01 2.920162e-01 2.688227e-01 2.449749e-01 2.210461e-01 1.979087e-01 1.760676e-01 1.560663e-01 1.381588e-01 1.224276e-01 1.088517e-01 9.727478e-02 8.752090e-02 7.935176e-02 7.255466e-02 6.690882e-02 6.223116e-02 5.835478e-02 5.514742e-02 5.250155e-02 5.033667e-02 4.859371e-02 4.723305e-02 4.623573e-02 4.558913e-02 
5.174938e-02 5.180840e-02 5.227820e-02 5.315687e-02 5.445401e-02 5.617995e-02 5.836481e-02 6.105254e-02 6.431593e-02 6.824503e-02 7.296148e-02 7.861246e-02 8.537825e-02 9.346678e-02 1.031236e-01 1.146194e-01 1.282646e-01 1.443454e-01 1.631037e-01 1.845259e-01 2.083305e-01 2.338414e-01 2.605413e-01 2.874742e-01 3.134702e-01 3.378190e-01 3.606004e-01 3.816560e-01 3.993143e-01 4.135201e-01 4.247168e-01 4.323208e-01 4.356253e-01 4.340195e-01 4.278275e-01 4.177903e-01 4.044887e-01 3.881632e-01 3.683203e-01 3.469022e-01 3.241204e-01 2.993601e-01 2.733619e-01 2.468981e-01 2.211807e-01 1.967805e-01 1.744544e-01 1.545150e-01 1.370511e-01 1.220563e-01 1.093192e-01 9.863161e-02 8.969304e-02 8.225685e-02 7.606398e-02 7.091158e-02 6.661486e-02 6.303257e-02 6.005195e-02 5.758968e-02 5.558901e-02 5.401457e-02 5.285358e-02 5.209718e-02 
5.876033e-02 5.883310e-02 5.939432e-02 6.043774e-02 6.196926e-02 6.399261e-02 6.653337e-02 6.962924e-02 7.335420e-02 7.780090e-02 8.309697e-02 8.940029e-02 9.690588e-02 1.058457e-01 1.164979e-01 1.291825e-01 1.442822e-01 1.621744e-01 1.831964e-01 2.073451e-01 2.341266e-01 2.626097e-01 2.920214e-01 3.213465e-01 3.505020e-01 3.776722e-01 4.006972e-01 4.203880e-01 4.355502e-01 4.464343e-01 4.539630e-01 4.585322e-01 4.602353e-01 4.592586e-01 4.556341e-01 4.491313e-01 4.394275e-01 4.261141e-01 4.083948e-01 3.874331e-01 3.625895e-01 3.346897e-01 3.062353e-01 2.772468e-01 2.486408e-01 2.213439e-01 1.962925e-01 1.739356e-01 1.543703e-01 1.376418e-01 1.234815e-01 1.116402e-01 1.017418e-01 9.349660e-02 8.660152e-02 8.083181e-02 7.598421e-02 7.190815e-02 6.848657e-02 6.563212e-02 6.329399e-02 6.144124e-02 6.006871e-02 5.917187e-02 
6.625984e-02 6.635353e-02 6.703470e-02 6.829207e-02 7.012720e-02 7.253640e-02 7.554038e-02 7.917120e-02 8.350058e-02 8.862693e-02 9.468387e-02 1.018427e-01 1.103147e-01 1.203621e-01 1.322992e-01 1.465038e-01 1.634372e-01 1.835842e-01 2.074090e-01 2.349138e-01 2.652994e-01 2.971138e-01 3.299294e-01 3.618991e-01 3.903547e-01 4.131284e-01 4.275375e-01 4.365503e-01 4.414920e-01 4.447914e-01 4.470611e-01 4.484643e-01 4.488005e-01 4.483243e-01 4.470266e-01 4.448748e-01 4.418752e-01 4.378914e-01 4.310485e-01 4.195317e-01 4.008666e-01 3.749770e-01 3.448572e-01 3.126514e-01 2.808424e-01 2.502975e-01 2.221069e-01 1.968947e-01 1.747625e-01 1.559181e-01 1.400077e-01 1.267502e-01 1.156610e-01 1.064022e-01 9.861670e-02 9.205666e-02 8.650031e-02 8.178716e-02 7.779652e-02 7.443792e-02 7.166859e-02 6.946191e-02 6.782206e-02 6.674927e-02 
7.416161e-02 7.428497e-02 7.511897e-02 7.664632e-02 7.886388e-02 8.175919e-02 8.534838e-02 8.965734e-02 9.475571e-02 1.007465e-01 1.077712e-01 1.160169e-01 1.257136e-01 1.371643e-01 1.507264e-01 1.668442e-01 1.860601e-01 2.089473e-01 2.361503e-01 2.676279e-01 3.021103e-01 3.377459e-01 3.712252e-01 3.978468e-01 4.127077e-01 4.184598e-01 4.174266e-01 4.154392e-01 4.152850e-01 4.170403e-01 4.194998e-01 4.217311e-01 4.226024e-01 4.217966e-01 4.195715e-01 4.167642e-01 4.144996e-01 4.139680e-01 4.157710e-01 4.180829e-01 4.162571e-01 4.057346e-01 3.839749e-01 3.529288e-01 3.181367e-01 2.840775e-01 2.523069e-01 2.237072e-01 1.984767e-01 1.770647e-01 1.590473e-01 1.440798e-01 1.315458e-01 1.210436e-01 1.121551e-01 1.046074e-01 9.816187e-02 9.264821e-02 8.794226e-02 8.395302e-02 8.064695e-02 7.800158e-02 7.603216e-02 7.474414e-02 
8.235838e-02 8.252110e-02 8.354360e-02 8.540178e-02 8.808688e-02 9.157655e-02 9.588191e-02 1.010225e-01 1.070670e-01 1.141197e-01 1.223314e-01 1.319089e-01 1.431047e-01 1.562828e-01 1.718598e-01 1.903715e-01 2.124144e-01 2.386039e-01 2.696936e-01 3.056224e-01 3.433407e-01 3.774123e-01 3.993693e-01 4.061596e-01 4.010365e-01 3.928613e-01 3.874329e-01 3.862328e-01 3.881711e-01 3.914234e-01 3.946462e-01 3.971285e-01 3.980731e-01 3.972707e-01 3.948863e-01 3.914475e-01 3.878806e-01 3.851320e-01 3.850962e-01 3.894070e-01 3.978675e-01 4.060493e-01 4.050480e-01 3.894307e-01 3.593485e-01 3.230030e-01 2.872073e-01 2.546851e-01 2.256739e-01 2.011952e-01 1.806649e-01 1.636730e-01 1.494212e-01 1.374283e-01 1.272084e-01 1.184581e-01 1.109276e-01 1.044333e-01 9.885387e-02 9.409617e-02 9.013871e-02 8.696250e-02 8.459601e-02 8.305031e-02 
9.072984e-02 9.094305e-02 9.219248e-02 9.444585e-02 9.768820e-02 1.018850e-01 1.070424e-01 1.131714e-01 1.203412e-01 1.286527e-01 1.382651e-01 1.494046e-01 1.623497e-01 1.775557e-01 1.955224e-01 2.169354e-01 2.424053e-01 2.724119e-01 3.077347e-01 3.468539e-01 3.810401e-01 3.990076e-01 3.978444e-01 3.864281e-01 3.745964e-01 3.657372e-01 3.608495e-01 3.599368e-01 3.622977e-01 3.661846e-01 3.700623e-01 3.729713e-01 3.741063e-01 3.732205e-01 3.704738e-01 3.664198e-01 3.620956e-01 3.587275e-01 3.583068e-01 3.619582e-01 3.701648e-01 3.822273e-01 3.953546e-01 4.024002e-01 3.921579e-01 3.631959e-01 3.257682e-01 2.890941e-01 2.560237e-01 2.280732e-01 2.046991e-01 1.853924e-01 1.691651e-01 1.554452e-01 1.436713e-01 1.335060e-01 1.246938e-01 1.170363e-01 1.104223e-01 1.047552e-01 1.000285e-01 9.622675e-02 9.339383e-02 9.154717e-02 
9.914575e-02 9.942105e-02 1.009361e-01 1.036492e-01 1.075375e-01 1.125518e-01 1.186922e-01 1.259578e-01 1.344178e-01 1.441654e-01 1.553612e-01 1.682483e-01 1.831313e-01 2.005942e-01 2.212686e-01 2.460995e-01 2.756368e-01 3.098252e-01 3.483144e-01 3.832581e-01 3.995143e-01 3.933518e-01 3.769250e-01 3.611250e-01 3.488359e-01 3.401648e-01 3.358589e-01 3.355121e-01 3.381324e-01 3.421117e-01 3.460005e-01 3.488459e-01 3.499616e-01 3.491130e-01 3.464311e-01 3.423983e-01 3.379808e-01 3.344073e-01 3.334745e-01 3.364930e-01 3.443397e-01 3.564066e-01 3.716721e-01 3.888149e-01 4.004097e-01 3.932792e-01 3.643312e-01 3.258956e-01 2.889600e-01 2.573843e-01 2.308793e-01 2.089824e-01 1.905521e-01 1.748886e-01 1.613661e-01 1.495886e-01 1.393126e-01 1.303162e-01 1.225123e-01 1.157974e-01 1.101851e-01 1.056635e-01 1.022949e-01 1.001042e-01 
1.074736e-01 1.078236e-01 1.096429e-01 1.128786e-01 1.174980e-01 1.234336e-01 1.306784e-01 1.392135e-01 1.491088e-01 1.604379e-01 1.733601e-01 1.881162e-01 2.050294e-01 2.248315e-01 2.482580e-01 2.766084e-01 3.101862e-01 3.480296e-01 3.840816e-01 4.012608e-01 3.937812e-01 3.743065e-01 3.544679e-01 3.379587e-01 3.256431e-01 3.174050e-01 3.132327e-01 3.126471e-01 3.147411e-01 3.181844e-01 3.216894e-01 3.242962e-01 3.253295e-01 3.245367e-01 3.220489e-01 3.183785e-01 3.144650e-01 3.114890e-01 3.109181e-01 3.138952e-01 3.211631e-01 3.326916e-01 3.480467e-01 3.668082e-01 3.873064e-01 4.015971e-01 3.940654e-01 3.628443e-01 3.237326e-01 2.885453e-01 2.587176e-01 2.340004e-01 2.131698e-01 1.954073e-01 1.799916e-01 1.664501e-01 1.545615e-01 1.440778e-01 1.349483e-01 1.270616e-01 1.204575e-01 1.151295e-01 1.111613e-01 1.085870e-01 
1.155825e-01 1.160196e-01 1.181789e-01 1.219940e-01 1.274195e-01 1.343650e-01 1.428137e-01 1.527216e-01 1.641575e-01 1.771620e-01 1.918890e-01 2.085546e-01 2.274855e-01 2.495443e-01 2.754723e-01 3.070391e-01 3.447447e-01 3.826549e-01 4.042900e-01 3.985379e-01 3.771142e-01 3.545349e-01 3.345025e-01 3.180626e-01 3.056243e-01 2.971675e-01 2.925730e-01 2.913056e-01 2.925238e-01 2.950998e-01 2.979004e-01 3.000313e-01 3.008770e-01 3.001915e-01 2.981054e-01 2.951068e-01 2.920467e-01 2.900108e-01 2.901998e-01 2.936099e-01 3.008890e-01 3.121483e-01 3.271907e-01 3.458933e-01 3.680592e-01 3.917546e-01 4.057188e-01 3.937662e-01 3.587474e-01 3.206146e-01 2.873599e-01 2.597678e-01 2.365082e-01 2.165641e-01 1.991982e-01 1.837939e-01 1.701915e-01 1.581055e-01 1.475405e-01 1.383779e-01 1.306906e-01 1.244803e-01 1.198556e-01 1.168628e-01 
1.233466e-01 1.238837e-01 1.264153e-01 1.308582e-01 1.371514e-01 1.451760e-01 1.549040e-01 1.662552e-01 1.793029e-01 1.940316e-01 2.106156e-01 2.292049e-01 2.501934e-01 2.745039e-01 3.027973e-01 3.375300e-01 3.770462e-01 4.064030e-01 4.073030e-01 3.851515e-01 3.602341e-01 3.375960e-01 3.178159e-01 3.014023e-01 2.886957e-01 2.796822e-01 2.741962e-01 2.717803e-01 2.717168e-01 2.730887e-01 2.749356e-01 2.764436e-01 2.770416e-01 2.765012e-01 2.749457e-01 2.728453e-01 2.709666e-01 2.702588e-01 2.716782e-01 2.760425e-01 2.838673e-01 2.953362e-01 3.104371e-01 3.290596e-01 3.512442e-01 3.763617e-01 4.013541e-01 4.108726e-01 3.907153e-01 3.527099e-01 3.155911e-01 2.854013e-01 2.598510e-01 2.378105e-01 2.185365e-01 2.012440e-01 1.858882e-01 1.721341e-01 1.600640e-01 1.495532e-01 1.407163e-01 1.335666e-01 1.282414e-01 1.248025e-01 
1.306477e-01 1.312973e-01 1.342259e-01 1.393315e-01 1.465329e-01 1.556803e-01 1.667272e-01 1.795520e-01 1.942252e-01 2.106606e-01 2.290613e-01 2.494808e-01 2.724276e-01 2.988917e-01 3.294145e-01 3.677793e-01 4.046071e-01 4.172485e-01 3.990297e-01 3.719721e-01 3.467260e-01 3.244640e-01 3.048980e-01 2.883690e-01 2.750790e-01 2.651192e-01 2.583893e-01 2.545404e-01 2.529913e-01 2.529942e-01 2.537494e-01 2.545368e-01 2.548475e-01 2.544808e-01 2.535455e-01 2.524724e-01 2.519338e-01 2.527387e-01 2.556555e-01 2.613457e-01 2.702079e-01 2.823894e-01 2.978713e-01 3.165450e-01 3.384234e-01 3.631658e-01 3.901769e-01 4.145153e-01 4.131645e-01 3.824391e-01 3.430210e-01 3.101916e-01 2.827072e-01 2.586629e-01 2.375869e-01 2.184399e-01 2.013342e-01 1.858952e-01 1.722845e-01 1.603890e-01 1.503612e-01 1.422381e-01 1.361837e-01 1.322825e-01 
1.373757e-01 1.381467e-01 1.414847e-01 1.472687e-01 1.553923e-01 1.656740e-01 1.780404e-01 1.923249e-01 2.085867e-01 2.266506e-01 2.467736e-01 2.688158e-01 2.936329e-01 3.217532e-01 3.549328e-01 3.947029e-01 4.225964e-01 4.177776e-01 3.900881e-01 3.626963e-01 3.378361e-01 3.157612e-01 2.961248e-01 2.790871e-01 2.648890e-01 2.536686e-01 2.454295e-01 2.399388e-01 2.367486e-01 2.352627e-01 2.348247e-01 2.348337e-01 2.348361e-01 2.346622e-01 2.344029e-01 2.344492e-01 2.353698e-01 2.378303e-01 2.424467e-01 2.497400e-01 2.599944e-01 2.732674e-01 2.894871e-01 3.084146e-01 3.300412e-01 3.541024e-01 3.809121e-01 4.092975e-01 4.256657e-01 4.086933e-01 3.698663e-01 3.335103e-01 3.045962e-01 2.786002e-01 2.558779e-01 2.349520e-01 2.161550e-01 1.990705e-01 1.839348e-01 1.706633e-01 1.594419e-01 1.503419e-01 1.435527e-01 1.391875e-01 
1.434319e-01 1.443291e-01 1.480757e-01 1.545325e-01 1.635641e-01 1.749591e-01 1.886088e-01 2.043065e-01 2.220851e-01 2.416830e-01 2.634128e-01 2.868850e-01 3.134835e-01 3.428261e-01 3.794352e-01 4.178666e-01 4.329135e-01 4.133856e-01 3.847437e-01 3.577063e-01 3.335446e-01 3.114222e-01 2.914057e-01 2.735099e-01 2.580922e-01 2.453696e-01 2.354532e-01 2.282235e-01 2.233523e-01 2.203695e-01 2.187349e-01 2.179604e-01 2.176549e-01 2.176763e-01 2.181004e-01 2.192708e-01 2.216497e-01 2.257913e-01 2.321871e-01 2.412363e-01 2.531124e-01 2.677703e-01 2.850329e-01 3.045166e-01 3.261829e-01 3.495817e-01 3.757298e-01 4.034675e-01 4.306677e-01 4.280264e-01 3.939220e-01 3.551338e-01 3.250010e-01 2.973042e-01 2.729997e-01 2.504287e-01 2.300111e-01 2.113698e-01 1.947624e-01 1.801667e-01 1.677843e-01 1.577352e-01 1.502290e-01 1.454129e-01 
1.487276e-01 1.497492e-01 1.538868e-01 1.609855e-01 1.708772e-01 1.833283e-01 1.981835e-01 2.152153e-01 2.343957e-01 2.554294e-01 2.785773e-01 3.033352e-01 3.312678e-01 3.615669e-01 4.004670e-01 4.349700e-01 4.378001e-01 4.102038e-01 3.830572e-01 3.568362e-01 3.332262e-01 3.108668e-01 2.901671e-01 2.711487e-01 2.543071e-01 2.399510e-01 2.282963e-01 2.193238e-01 2.128070e-01 2.083793e-01 2.055989e-01 2.040643e-01 2.034627e-01 2.036732e-01 2.047619e-01 2.070077e-01 2.107894e-01 2.165660e-01 2.247297e-01 2.355791e-01 2.491857e-01 2.654130e-01 2.839539e-01 3.043273e-01 3.263585e-01 3.495876e-01 3.749653e-01 4.015808e-01 4.314538e-01 4.408095e-01 4.144437e-01 3.753535e-01 3.434427e-01 3.143760e-01 2.884830e-01 2.644662e-01 2.425381e-01 2.224836e-01 2.045078e-01 1.886866e-01 1.752180e-01 1.642820e-01 1.561025e-01 1.508648e-01 
1.531854e-01 1.543242e-01 1.588191e-01 1.665026e-01 1.771742e-01 1.905871e-01 2.065341e-01 2.247932e-01 2.452481e-01 2.676455e-01 2.920773e-01 3.181405e-01 3.470719e-01 3.783843e-01 4.176605e-01 4.466203e-01 4.398461e-01 4.106248e-01 3.848165e-01 3.595300e-01 3.360244e-01 3.132055e-01 2.915881e-01 2.713246e-01 2.529887e-01 2.369925e-01 2.236409e-01 2.130146e-01 2.049720e-01 1.992260e-01 1.954131e-01 1.932009e-01 1.923334e-01 1.927134e-01 1.943945e-01 1.976050e-01 2.026608e-01 2.099442e-01 2.197697e-01 2.323575e-01 2.476711e-01 2.654917e-01 2.853663e-01 3.067856e-01 3.293326e-01 3.527037e-01 3.772235e-01 4.030359e-01 4.312528e-01 4.492858e-01 4.313783e-01 3.937043e-01 3.594577e-01 3.293259e-01 3.019335e-01 2.766979e-01 2.534147e-01 2.321248e-01 2.129276e-01 1.960204e-01 1.815803e-01 1.698536e-01 1.610717e-01 1.554589e-01 
1.567363e-01 1.579766e-01 1.627753e-01 1.709566e-01 1.822897e-01 1.965252e-01 2.134035e-01 2.327341e-01 2.542953e-01 2.779529e-01 3.035369e-01 3.309837e-01 3.607844e-01 3.935266e-01 4.315744e-01 4.545722e-01 4.410257e-01 4.134576e-01 3.883704e-01 3.639187e-01 3.402555e-01 3.169587e-01 2.943918e-01 2.729584e-01 2.532413e-01 2.357782e-01 2.209291e-01 2.088597e-01 1.994940e-01 1.926193e-01 1.879329e-01 1.851520e-01 1.840628e-01 1.845828e-01 1.867593e-01 1.907828e-01 1.969240e-01 2.055098e-01 2.167830e-01 2.308981e-01 2.477252e-01 2.669994e-01 2.881129e-01 3.105676e-01 3.336670e-01 3.572909e-01 3.811431e-01 4.061635e-01 4.319900e-01 4.546690e-01 4.441189e-01 4.084001e-01 3.724082e-01 3.415301e-01 3.129659e-01 2.867485e-01 2.623364e-01 2.400191e-01 2.197975e-01 2.019827e-01 1.867271e-01 1.743380e-01 1.650503e-01 1.591233e-01 
1.593234e-01 1.606438e-01 1.656766e-01 1.742410e-01 1.860821e-01 2.009538e-01 2.185516e-01 2.387261e-01 2.611559e-01 2.858444e-01 3.123477e-01 3.409993e-01 3.714597e-01 4.056163e-01 4.420136e-01 4.597254e-01 4.420334e-01 4.166080e-01 3.920562e-01 3.683190e-01 3.444765e-01 3.208055e-01 2.974431e-01 2.750689e-01 2.542379e-01 2.356125e-01 2.195823e-01 2.063861e-01 1.959941e-01 1.882479e-01 1.828890e-01 1.796732e-01 1.784148e-01 1.790402e-01 1.815944e-01 1.862438e-01 1.932248e-01 2.028203e-01 2.152204e-01 2.305358e-01 2.485574e-01 2.689918e-01 2.910972e-01 3.143890e-01 3.379409e-01 3.617502e-01 3.851431e-01 4.093765e-01 4.337271e-01 4.580037e-01 4.526312e-01 4.188586e-01 3.823309e-01 3.507980e-01 3.213677e-01 2.943272e-01 2.690249e-01 2.459052e-01 2.248981e-01 2.063925e-01 1.905175e-01 1.776273e-01 1.679569e-01 1.617937e-01 
1.608994e-01 1.622700e-01 1.674501e-01 1.762559e-01 1.884172e-01 2.036923e-01 2.217470e-01 2.424639e-01 2.654537e-01 2.908201e-01 3.179303e-01 3.473831e-01 3.782767e-01 4.131885e-01 4.483317e-01 4.625827e-01 4.429575e-01 4.189195e-01 3.947939e-01 3.714923e-01 3.475210e-01 3.236056e-01 2.997147e-01 2.767298e-01 2.551738e-01 2.358010e-01 2.190151e-01 2.051038e-01 1.940642e-01 1.857704e-01 1.799908e-01 1.765033e-01 1.751390e-01 1.758303e-01 1.786201e-01 1.836602e-01 1.911668e-01 2.013979e-01 2.145101e-01 2.305897e-01 2.493737e-01 2.705529e-01 2.932895e-01 3.171073e-01 3.409248e-01 3.647969e-01 3.878764e-01 4.115234e-01 4.352303e-01 4.599906e-01 4.576979e-01 4.255172e-01 3.890617e-01 3.568887e-01 3.268266e-01 2.991485e-01 2.732366e-01 2.495796e-01 2.280660e-01 2.091195e-01 1.928528e-01 1.796465e-01 1.697351e-01 1.634229e-01 
1.614311e-01 1.628200e-01 1.680513e-01 1.769406e-01 1.892125e-01 2.046268e-01 2.228396e-01 2.437446e-01 2.669301e-01 2.925356e-01 3.198656e-01 3.496172e-01 3.806870e-01 4.158193e-01 4.504641e-01 4.634861e-01 4.433020e-01 4.196706e-01 3.957250e-01 3.725930e-01 3.486006e-01 3.246179e-01 3.005559e-01 2.773660e-01 2.555612e-01 2.359300e-01 2.188812e-01 2.047215e-01 1.934569e-01 1.849736e-01 1.790486e-01 1.754674e-01 1.740666e-01 1.747812e-01 1.776527e-01 1.828282e-01 1.905174e-01 2.009703e-01 2.143320e-01 2.306802e-01 2.497331e-01 2.711746e-01 2.941346e-01 3.181352e-01 3.420472e-01 3.659393e-01 3.889272e-01 4.123843e-01 4.359045e-01 4.606735e-01 4.593292e-01 4.278100e-01 3.914663e-01 3.590039e-01 3.287044e-01 3.007849e-01 2.746582e-01 2.508162e-01 2.291317e-01 2.100365e-01 1.936380e-01 1.803253e-01 1.703330e-01 1.639712e-01 
1.608994e-01 1.622700e-01 1.674501e-01 1.762559e-01 1.884172e-01 2.036923e-01 2.217470e-01 2.424639e-01 2.654537e-01 2.908201e-01 3.179303e-01 3.473831e-01 3.782767e-01 4.131885e-01 4.483317e-01 4.625827e-01 4.429575e-01 4.189195e-01 3.947939e-01 3.714923e-01 3.475210e-01 3.236056e-01 2.997147e-01 2.767298e-01 2.551738e-01 2.358010e-01 2.190151e-01 2.051038e-01 1.940642e-01 1.857704e-01 1.799908e-01 1.765033e-01 1.751390e-01 1.758303e-01 1.786201e-01 1.836602e-01 1.911668e-01 2.013979e-01 2.145101e-01 2.305897e-01 2.493737e-01 2.705529e-01 2.932895e-01 3.171073e-01 3.409248e-01 3.647969e-01 3.878764e-01 4.115234e-01 4.352303e-01 4.599906e-01 4.576979e-01 4.255172e-01 3.890617e-01 3.568887e-01 3.268266e-01 2.991485e-01 2.732366e-01 2.495796e-01 2.280660e-01 2.091195e-01 1.928528e-01 1.796465e-01 1.697351e-01 1.634229e-01 
1.593234e-01 1.606438e-01 1.656766e-01 1.742410e-01 1.860821e-01 2.009538e-01 2.185516e-01 2.387261e-01 2.611559e-01 2.858444e-01 3.123477e-01 3.409993e-01 3.714597e-01 4.056163e-01 4.420136e-01 4.597254e-01 4.420334e-01 4.166080e-01 3.920562e-01 3.683190e-01 3.444765e-01 3.208055e-01 2.974431e-01 2.750689e-01 2.542379e-01 2.356125e-01 2.195823e-01 2.063861e-01 1.959941e-01 1.882479e-01 1.828890e-01 1.796732e-01 1.784148e-01 1.790402e-01 1.815944e-01 1.862438e-01 1.932248e-01 2.028203e-01 2.152204e-01 2.305358e-01 2.485574e-01 2.689918e-01 2.910972e-01 3.143890e-01 3.379409e-01 3.617502e-01 3.851431e-01 4.093765e-01 4.337271e-01 4.580037e-01 4.526312e-01 4.188586e-01 3.823309e-01 3.507980e-01 3.213677e-01 2.943272e-01 2.690249e-01 2.459052e-01 2.248981e-01 2.063925e-01 1.905175e-01 1.776273e-01 1.679569e-01 1.617937e-01 