# vtk DataFile Version 2.0
Comment goes here
ASCII

DATASET STRUCTURED_POINTS
FIELD FieldData 1
TIME 1 1 double
1.50000000
DIMENSIONS    64   64   1

ORIGIN    0.000   0.000   0.000
SPACING   0.015625 0.015625   1.000

POINT_DATA   4096
SCALARS Omega double
LOOKUP_TABLE default

-5.180422e-14 -3.419747e-14 -9.289201e-15 5.383508e-14 1.377637e-13 2.514462e-13 4.236120e-13 6.749245e-13 9.722848e-13 1.346562e-12 1.869081e-12 2.522546e-12 3.317599e-12 4.270023e-12 5.372522e-12 6.602950e-12 7.932359e-12 9.365629e-12 1.079754e-11 1.213621e-11 1.334075e-11 1.424968e-11 1.483250e-11 1.498067e-11 1.459316e-11 1.366700e-11 1.218640e-11 1.018112e-11 7.649640e-12 4.655488e-12 1.268154e-12 -2.378530e-12 -6.150034e-12 -9.873988e-12 -1.333729e-11 -1.641417e-11 -1.889579e-11 -2.067360e-11 -2.167358e-11 -2.193968e-11 -2.142349e-11 -2.030397e-11 -1.870899e-11 -1.675472e-11 -1.461392e-11 -1.244611e-11 -1.035087e-11 -8.433647e-12 -6.733879e-12 -5.276024e-12 -4.043359e-12 -3.055982e-12 -2.306631e-12 -1.708043e-12 -1.240000e-12 -8.914669e-13 -6.376247e-13 -4.276339e-13 -3.150407e-13 -2.351446e-13 -1.707047e-13 -1.276790e-13 -1.066618e-13 -8.356332e-14 
-4.297531e-04 2.491984e-03 5.191880e-03 7.436999e-03 8.988886e-03 9.613222e-03 9.068446e-03 7.123430e-03 3.540907e-03 -1.889667e-03 -9.375242e-03 -1.906532e-02 -3.108053e-02 -4.543709e-02 -6.207921e-02 -8.079155e-02 -1.012372e-01 -1.228810e-01 -1.450391e-01 -1.668436e-01 -1.873044e-01 -2.053371e-01 -2.198164e-01 -2.296597e-01 -2.338401e-01 -2.314870e-01 -2.218831e-01 -2.045591e-01 -1.793772e-01 -1.466191e-01 -1.071711e-01 -6.249675e-02 -1.469219e-02 3.380459e-02 8.042671e-02 1.228558e-01 1.592553e-01 1.883811e-01 2.096188e-01 2.228430e-01 2.283698e-01 2.268066e-01 2.190273e-01 2.060705e-01 1.890951e-01 1.692963e-01 1.478361e-01 1.257816e-01 1.040516e-01 8.339523e-02 6.437382e-02 4.737844e-02 3.263355e-02 2.023964e-02 1.017696e-02 2.358697e-03 -3.376965e-03 -7.214591e-03 -9.380607e-03 -1.009933e-02 -9.616494e-03 -8.166790e-03 -5.995326e-03 -3.336391e-03 
-8.785749e-04 5.073095e-03 1.058118e-02 1.517998e-02 1.839319e-02 1.975224e-02 1.877450e-02 1.499730e-02 7.945790e-03 -2.803014e-03 -1.766550e-02 -3.694557e-02 -6.089083e-02 -8.954287e-02 -1.228009e-01 -1.602471e-01 -2.012206e-01 -2.446637e-01 -2.892182e-01 -3.331551e-01 -3.744953e-01 -4.110688e-01 -4.406193e-01 -4.609738e-01 -4.700588e-01 -4.661031e-01 -4.476033e-01 -4.135252e-01 -3.634550e-01 -2.978211e-01 -2.183102e-01 -1.278654e-01 -3.083391e-02 6.766107e-02 1.622080e-01 2.479673e-01 3.211882e-01 3.794232e-01 4.215641e-01 4.474936e-01 4.579534e-01 4.542323e-01 4.381199e-01 4.117198e-01 3.773583e-01 3.374360e-01 2.942762e-01 2.500115e-01 2.064723e-01 1.651447e-01 1.271394e-01 9.322400e-02 6.383577e-02 3.916492e-02 1.916440e-02 3.655090e-03 -7.689901e-03 -1.524146e-02 -1.945301e-02 -2.077318e-02 -1.969296e-02 -1.668130e-02 -1.222773e-02 -6.800517e-03 
-1.371272e-03 7.831059e-03 1.636796e-02 2.354181e-02 2.863923e-02 3.095825e-02 2.977569e-02 2.439732e-02 1.410947e-02 -1.726393e-03 -2.374237e-02 -5.240667e-02 -8.810930e-02 -1.309376e-01 -1.807726e-01 -2.370241e-01 -2.987415e-01 -3.643749e-01 -4.319199e-01 -4.987981e-01 -5.620462e-01 -6.183903e-01 -6.644194e-01 -6.968264e-01 -7.124415e-01 -7.085004e-01 -6.825968e-01 -6.329118e-01 -5.584918e-01 -4.595902e-01 -3.384806e-01 -1.996107e-01 -4.992006e-02 1.021645e-01 2.477261e-01 3.789269e-01 4.899424e-01 5.772737e-01 6.396041e-01 6.771334e-01 6.912394e-01 6.840407e-01 6.583294e-01 6.173314e-01 5.645844e-01 5.037179e-01 4.382337e-01 3.713285e-01 3.057303e-01 2.436385e-01 1.866812e-01 1.359715e-01 9.212910e-02 5.541040e-02 2.572150e-02 2.778710e-03 -1.391863e-02 -2.493158e-02 -3.094262e-02 -3.262458e-02 -3.071308e-02 -2.591019e-02 -1.894880e-02 -1.053008e-02 
-1.923125e-03 1.087032e-02 2.277679e-02 3.286752e-02 4.019441e-02 4.382285e-02 4.279147e-02 3.617388e-02 2.301725e-02 2.461438e-03 -2.635041e-02 -6.406965e-02 -1.112549e-01 -1.680786e-01 -2.344532e-01 -3.096776e-01 -3.925778e-01 -4.811788e-01 -5.728832e-01 -6.642950e-01 -7.514606e-01 -8.299584e-01 -8.951412e-01 -9.424570e-01 -9.674974e-01 -9.663447e-01 -9.354527e-01 -8.719194e-01 -7.737856e-01 -6.406033e-01 -4.748331e-01 -2.824185e-01 -7.352918e-02 1.389940e-01 3.414624e-01 5.221595e-01 6.729282e-01 7.894802e-01 8.708427e-01 9.180541e-01 9.334929e-01 9.203601e-01 8.826179e-01 8.247606e-01 7.516184e-01 6.681334e-01 5.790180e-01 4.885429e-01 4.003105e-01 3.171827e-01 2.412479e-01 1.738986e-01 1.158815e-01 6.746946e-02 2.848664e-02 -1.480821e-03 -2.312242e-02 -3.719786e-02 -4.462147e-02 -4.629072e-02 -4.318381e-02 -3.623433e-02 -2.641577e-02 -1.466092e-02 
-2.565509e-03 1.429131e-02 3.003951e-02 4.352166e-02 5.355756e-02 5.898297e-02 5.860086e-02 5.125397e-02 3.574830e-02 1.099448e-02 -2.410615e-02 -7.041762e-02 -1.287149e-01 -1.993227e-01 -2.822763e-01 -3.768738e-01 -4.818458e-01 -5.949139e-01 -7.129938e-01 -8.319117e-01 -9.466960e-01 -1.051633e+00 -1.140622e+00 -1.207567e+00 -1.246513e+00 -1.252056e+00 -1.219271e+00 -1.143800e+00 -1.022239e+00 -8.526546e-01 -6.369287e-01 -3.823338e-01 -1.031551e-01 1.813550e-01 4.505258e-01 6.873284e-01 8.809812e-01 1.027155e+00 1.126130e+00 1.180510e+00 1.194010e+00 1.171206e+00 1.117500e+00 1.038908e+00 9.417902e-01 8.325705e-01 7.173008e-01 6.013717e-01 4.892391e-01 3.843584e-01 2.891736e-01 2.052502e-01 1.333562e-01 7.369778e-02 2.594899e-02 -1.047848e-02 -3.649377e-02 -5.307040e-02 -6.136241e-02 -6.249286e-02 -5.768098e-02 -4.808869e-02 -3.492683e-02 -1.935680e-02 
-3.311158e-03 1.822393e-02 3.842986e-02 5.592330e-02 6.929790e-02 7.716316e-02 7.809266e-02 7.069846e-02 5.354473e-02 2.529816e-02 -1.540650e-02 -6.969729e-02 -1.386407e-01 -2.228286e-01 -3.225681e-01 -4.373471e-01 -5.660102e-01 -7.061891e-01 -8.544661e-01 -1.005942e+00 -1.154490e+00 -1.292772e+00 -1.412732e+00 -1.506127e+00 -1.564918e+00 -1.581795e+00 -1.550283e+00 -1.464562e+00 -1.319341e+00 -1.110059e+00 -8.365564e-01 -5.066403e-01 -1.399943e-01 2.345683e-01 5.855729e-01 8.883646e-01 1.129403e+00 1.305604e+00 1.420283e+00 1.478608e+00 1.485863e+00 1.448198e+00 1.372783e+00 1.267584e+00 1.140817e+00 1.000759e+00 8.550530e-01 7.103519e-01 5.719859e-01 4.439054e-01 3.287702e-01 2.281367e-01 1.426340e-01 7.225494e-02 1.641513e-02 -2.572853e-02 -5.535465e-02 -7.368080e-02 -8.211322e-02 -8.200542e-02 -7.481428e-02 -6.192690e-02 -4.478485e-02 -2.477461e-02 
-4.195392e-03 2.279161e-02 4.823004e-02 7.051750e-02 8.802874e-02 9.915483e-02 1.022468e-01 9.568875e-02 7.779774e-02 4.697561e-02 1.546091e-03 -5.996132e-02 -1.390292e-01 -2.366946e-01 -3.537793e-01 -4.902578e-01 -6.454297e-01 -8.171569e-01 -1.001923e+00 -1.194087e+00 -1.386030e+00 -1.568012e+00 -1.728994e+00 -1.857487e+00 -1.942433e+00 -1.974071e+00 -1.944518e+00 -1.847030e+00 -1.675299e+00 -1.421449e+00 -1.080772e+00 -6.594203e-01 -1.831501e-01 3.048961e-01 7.565640e-01 1.136716e+00 1.429593e+00 1.636484e+00 1.766103e+00 1.826560e+00 1.823880e+00 1.765835e+00 1.661887e+00 1.522417e+00 1.358081e+00 1.179599e+00 9.967722e-01 8.178833e-01 6.492621e-01 4.953089e-01 3.587027e-01 2.407592e-01 1.417104e-01 6.112208e-02 -2.030962e-03 -4.897258e-02 -8.124053e-02 -1.003473e-01 -1.079794e-01 -1.057304e-01 -9.529476e-02 -7.827957e-02 -5.634969e-02 -3.110955e-02 
-5.226952e-03 2.815089e-02 5.976519e-02 8.780330e-02 1.104346e-01 1.258410e-01 1.321630e-01 1.275564e-01 1.100841e-01 7.784453e-02 2.878495e-02 -3.903231e-02 -1.276873e-01 -2.389306e-01 -3.744449e-01 -5.351266e-01 -7.212003e-01 -9.312100e-01 -1.161770e+00 -1.406332e+00 -1.654876e+00 -1.893652e+00 -2.106645e+00 -2.277283e+00 -2.390596e+00 -2.434297e+00 -2.400908e+00 -2.286101e+00 -2.084870e+00 -1.784225e+00 -1.369876e+00 -8.407702e-01 -2.289742e-01 4.011684e-01 9.748700e-01 1.442572e+00 1.788245e+00 2.021870e+00 2.163866e+00 2.226015e+00 2.212298e+00 2.130762e+00 1.993356e+00 1.812882e+00 1.602561e+00 1.376578e+00 1.147931e+00 9.273324e-01 7.225739e-01 5.385806e-01 3.779361e-01 2.414204e-01 1.285614e-01 3.818368e-02 -3.142851e-02 -8.207817e-02 -1.157944e-01 -1.344728e-01 -1.401239e-01 -1.346050e-01 -1.198483e-01 -9.767823e-02 -6.997022e-02 -3.853819e-02 
-6.436055e-03 3.444801e-02 7.336015e-02 1.082944e-01 1.372320e-01 1.581623e-01 1.690280e-01 1.677568e-01 1.521389e-01 1.199145e-01 6.855124e-02 -4.529743e-03 -1.022632e-01 -2.274722e-01 -3.831648e-01 -5.717179e-01 -7.948945e-01 -1.052456e+00 -1.341378e+00 -1.653624e+00 -1.974981e+00 -2.284428e+00 -2.557614e+00 -2.770848e+00 -2.904379e+00 -2.945527e+00 -2.889453e+00 -2.738145e+00 -2.496086e+00 -2.147985e+00 -1.663687e+00 -1.024524e+00 -2.640234e-01 5.254216e-01 1.228897e+00 1.781920e+00 2.171867e+00 2.424432e+00 2.580395e+00 2.650770e+00 2.630957e+00 2.529979e+00 2.362582e+00 2.140696e+00 1.879430e+00 1.597792e+00 1.313963e+00 1.042670e+00 7.941350e-01 5.743362e-01 3.857915e-01 2.285633e-01 1.011097e-01 1.155453e-03 -7.405296e-02 -1.271633e-01 -1.608974e-01 -1.776646e-01 -1.798770e-01 -1.696943e-01 -1.492966e-01 -1.207222e-01 -8.604356e-02 -4.726933e-02 
-7.821078e-03 4.185046e-02 8.935540e-02 1.325172e-01 1.691569e-01 1.970905e-01 2.140815e-01 2.178225e-01 2.058039e-01 1.753215e-01 1.232268e-01 4.606519e-02 -6.026766e-02 -2.000995e-01 -3.782815e-01 -5.992873e-01 -8.670604e-01 -1.183164e+00 -1.545032e+00 -1.942124e+00 -2.352477e+00 -2.741821e+00 -3.071483e+00 -3.308617e+00 -3.428491e+00 -3.421396e+00 -3.297225e+00 -3.084320e+00 -2.810959e+00 -2.438588e+00 -1.908582e+00 -1.175535e+00 -2.696038e-01 6.852782e-01 1.508784e+00 2.130238e+00 2.536372e+00 2.758362e+00 2.906533e+00 2.995376e+00 2.990718e+00 2.894950e+00 2.725495e+00 2.481837e+00 2.177156e+00 1.839092e+00 1.494547e+00 1.164974e+00 8.650175e-01 6.028939e-01 3.817033e-01 2.008330e-01 5.748006e-02 -5.210829e-02 -1.320877e-01 -1.862926e-01 -2.183897e-01 -2.314927e-01 -2.285237e-01 -2.120128e-01 -1.844049e-01 -1.479561e-01 -1.049163e-01 -5.747072e-02 
-9.389541e-03 5.050664e-02 1.080617e-01 1.609650e-01 2.069122e-01 2.435759e-01 2.685579e-01 2.793064e-01 2.729669e-01 2.462809e-01 1.953097e-01 1.154558e-01 1.114846e-03 -1.539531e-01 -3.568597e-01 -6.146359e-01 -9.338617e-01 -1.318402e+00 -1.766343e+00 -2.263152e+00 -2.773565e+00 -3.238286e+00 -3.596702e+00 -3.812789e+00 -3.849488e+00 -3.718099e+00 -3.455184e+00 -3.135215e+00 -2.855721e+00 -2.489991e+00 -1.944717e+00 -1.180468e+00 -2.075693e-01 8.584587e-01 1.722422e+00 2.381603e+00 2.767045e+00 2.835422e+00 2.931127e+00 3.058355e+00 3.101508e+00 3.068919e+00 2.979627e+00 2.772495e+00 2.455892e+00 2.076393e+00 1.676346e+00 1.287574e+00 9.319117e-01 6.223311e-01 3.639745e-01 1.563505e-01 -4.490762e-03 -1.239366e-01 -2.078759e-01 -2.616708e-01 -2.902341e-01 -2.976196e-01 -2.874119e-01 -2.626073e-01 -2.259504e-01 -1.799228e-01 -1.269306e-01 -6.930904e-02 
-1.111715e-02 6.055227e-02 1.297384e-01 1.940442e-01 2.510888e-01 2.984358e-01 3.335482e-01 3.536087e-01 3.553615e-01 3.348566e-01 2.871854e-01 2.063506e-01 8.502044e-02 -8.514510e-02 -3.135196e-01 -6.095522e-01 -9.823282e-01 -1.438388e+00 -1.977569e+00 -2.581642e+00 -3.194682e+00 -3.711608e+00 -4.038543e+00 -4.183912e+00 -4.042615e+00 -3.617630e+00 -3.027857e+00 -2.595401e+00 -2.697739e+00 -2.462644e+00 -1.781074e+00 -9.966381e-01 -8.130373e-02 1.080304e+00 1.852970e+00 2.682699e+00 3.125970e+00 2.464327e+00 2.227399e+00 2.474001e+00 2.672791e+00 2.804261e+00 2.965566e+00 2.906598e+00 2.636830e+00 2.254080e+00 1.823773e+00 1.389453e+00 9.831472e-01 6.261834e-01 3.288635e-01 9.254116e-02 -8.692843e-02 -2.163339e-01 -3.033423e-01 -3.551001e-01 -3.780309e-01 -3.773940e-01 -3.576157e-01 -3.222896e-01 -2.745104e-01 -2.170041e-01 -1.523082e-01 -8.287522e-02 
-1.296537e-02 7.208519e-02 1.545544e-01 2.320241e-01 3.020963e-01 3.622704e-01 4.098891e-01 4.418462e-01 4.544124e-01 4.428112e-01 4.010172e-01 3.215001e-01 1.952738e-01 1.225898e-02 -2.381777e-01 -5.664787e-01 -9.825978e-01 -1.495982e+00 -2.112152e+00 -2.815549e+00 -3.522912e+00 -4.031852e+00 -4.196526e+00 -4.317726e+00 -3.923846e+00 -2.985766e+00 -1.661943e+00 -9.511818e-01 -2.491093e+00 -2.552736e+00 -5.079088e-01 9.509640e-01 5.701382e-01 3.125956e-02 1.885716e-01 2.823626e+00 4.039320e+00 1.190352e+00 2.618413e-01 1.097506e+00 1.569567e+00 1.837309e+00 2.552982e+00 2.768598e+00 2.602737e+00 2.273317e+00 1.866489e+00 1.425310e+00 9.909019e-01 5.981678e-01 2.670142e-01 4.018554e-03 -1.931911e-01 -3.316776e-01 -4.203909e-01 -4.681982e-01 -4.831449e-01 -4.719222e-01 -4.399775e-01 -3.916577e-01 -3.304745e-01 -2.594269e-01 -1.811576e-01 -9.819357e-02 
-1.487259e-02 8.513279e-02 1.825181e-01 2.749246e-01 3.600085e-01 4.352527e-01 4.978992e-01 5.445161e-01 5.708334e-01 5.711351e-01 5.382566e-01 4.632671e-01 3.361856e-01 1.465919e-01 -1.146957e-01 -4.551470e-01 -8.813660e-01 -1.405357e+00 -2.049910e+00 -2.829030e+00 -3.637911e+00 -4.037624e+00 -3.676965e+00 -4.412817e+00 -3.996191e+00 7.222815e-02 8.010234e+00 1.817543e+01 2.126092e+01 1.715245e+01 1.184880e+01 6.763985e+00 1.827137e+00 -2.887147e+00 -8.110690e+00 -1.334606e+01 -1.836725e+01 -1.872289e+01 -1.162050e+01 -1.697352e+00 1.476177e+00 3.087404e-01 1.942432e+00 2.351844e+00 2.226247e+00 1.996164e+00 1.698831e+00 1.321897e+00 9.073093e-01 5.086906e-01 1.615869e-01 -1.181476e-01 -3.277060e-01 -4.721457e-01 -5.601709e-01 -6.016746e-01 -6.060691e-01 -5.815433e-01 -5.346965e-01 -4.707836e-01 -3.938163e-01 -3.071046e-01 -2.133724e-01 -1.151706e-01 
-1.673754e-02 9.965154e-02 2.134556e-01 3.224700e-01 4.244823e-01 5.170099e-01 5.971999e-01 6.612578e-01 7.043101e-01 7.196807e-01 6.992573e-01 6.333377e-01 5.125321e-01 3.290245e-01 8.045958e-02 -2.300903e-01 -5.966734e-01 -1.032817e+00 -1.603795e+00 -2.429072e+00 -3.455875e+00 -3.602349e+00 -1.319715e+00 1.659409e+00 1.322281e+01 2.567089e+01 2.257886e+01 1.229738e+01 3.337929e+00 -1.122308e+00 -1.577733e+00 -1.089905e+00 6.423530e-01 2.279455e+00 3.737447e+00 4.230577e+00 1.179585e+00 -4.876920e+00 -1.530946e+01 -2.218157e+01 -1.667381e+01 -3.557140e+00 3.006914e+00 1.812021e+00 1.371644e+00 1.238530e+00 1.175344e+00 9.723937e-01 6.556532e-01 3.074232e-01 -1.725392e-02 -2.896655e-01 -4.977539e-01 -6.405656e-01 -7.234088e-01 -7.554094e-01 -7.463756e-01 -7.057412e-01 -6.412262e-01 -5.591210e-01 -4.640124e-01 -3.595729e-01 -2.485828e-01 -1.335618e-01 
-1.845503e-02 1.154579e-01 2.469061e-01 3.739427e-01 4.945629e-01 6.063591e-01 7.063747e-01 7.904034e-01 8.529490e-01 8.864879e-01 8.825363e-01 8.319501e-01 7.288059e-01 5.728363e-01 3.769355e-01 1.675273e-01 -2.109044e-02 -1.968910e-01 -5.156248e-01 -1.383643e+00 -3.194086e+00 -1.897280e+00 9.564096e+00 2.279990e+01 2.358374e+01 9.250990e+00 -7.774188e+00 -1.501503e+01 -1.564536e+01 -1.369146e+01 -9.388818e+00 -4.749852e+00 -4.167763e-01 3.652233e+00 8.003787e+00 1.307481e+01 1.634682e+01 1.708023e+01 1.429610e+01 6.912750e-01 -1.613031e+01 -2.055423e+01 -1.010750e+01 -4.759718e-01 -2.200402e-01 -2.236613e-01 1.483600e-01 2.521355e-01 1.319788e-01 -7.990662e-02 -3.142184e-01 -5.335780e-01 -7.130761e-01 -8.396211e-01 -9.095665e-01 -9.276599e-01 -9.020780e-01 -8.426389e-01 -7.579143e-01 -6.552496e-01 -5.398811e-01 -4.158929e-01 -2.861137e-01 -1.529712e-01 
-1.987245e-02 1.322530e-01 2.821279e-01 4.281640e-01 5.686275e-01 7.012053e-01 8.227931e-01 9.287242e-01 1.012903e+00 1.067328e+00 1.084215e+00 1.057352e+00 9.886656e-01 8.925288e-01 8.083303e-01 8.029040e-01 9.653519e-01 1.314333e+00 1.548313e+00 6.932155e-01 -6.130827e-01 1.016919e+01 2.280968e+01 1.356569e+01 -6.355386e+00 -1.749974e+01 -1.507010e+01 -1.228080e+00 1.073969e+01 1.110493e+01 7.204882e+00 3.469332e+00 3.746578e-01 -2.276332e+00 -6.306300e+00 -1.112527e+01 -1.227235e+01 -5.004076e+00 1.004885e+01 1.880440e+01 1.410917e+01 -4.697642e+00 -1.880211e+01 -1.296857e+01 -5.482792e+00 -2.716040e+00 -1.431250e+00 -9.401686e-01 -7.920273e-01 -7.541429e-01 -7.907653e-01 -8.807041e-01 -9.858023e-01 -1.071644e+00 -1.116485e+00 -1.114721e+00 -1.069272e+00 -9.887038e-01 -8.817446e-01 -7.566822e-01 -6.194275e-01 -4.745409e-01 -3.248995e-01 -1.727907e-01 
-2.085821e-02 1.495497e-01 3.180135e-01 4.833922e-01 6.442575e-01 7.983698e-01 9.423929e-01 1.071131e+00 1.178018e+00 1.255239e+00 1.297547e+00 1.305252e+00 1.294373e+00 1.302581e+00 1.406997e+00 1.732384e+00 2.455863e+00 3.692970e+00 4.990492e+00 4.467957e+00 1.000072e+01 1.834451e+01 6.776585e+00 -1.126490e+01 -1.116544e+01 1.767524e+00 1.128977e+01 1.353122e+01 1.272146e+01 9.328467e+00 6.162590e+00 3.077780e+00 2.763526e-01 -2.425202e+00 -5.604092e+00 -9.066973e+00 -1.194626e+01 -1.408427e+01 -1.348675e+01 -6.582296e+00 7.203334e+00 1.461499e+01 2.201490e+00 -1.138220e+01 -1.159757e+01 -6.499066e+00 -3.132970e+00 -2.600378e+00 -2.268981e+00 -1.843225e+00 -1.518844e+00 -1.363693e+00 -1.326848e+00 -1.336539e+00 -1.339369e+00 -1.310306e+00 -1.241817e+00 -1.138542e+00 -1.008247e+00 -8.598222e-01 -6.998547e-01 -5.334382e-01 -3.635368e-01 -1.922593e-01 
-2.126629e-02 1.667063e-01 3.531280e-01 5.373601e-01 7.182745e-01 8.936266e-01 1.059703e+00 1.210697e+00 1.339787e+00 1.440435e+00 1.512559e+00 1.568239e+00 1.645570e+00 1.815253e+00 2.197250e+00 2.971557e+00 4.426925e+00 6.956941e+00 7.749898e+00 6.166743e+00 1.026956e+01 4.806405e+00 -8.231148e+00 -4.007493e+00 5.012931e+00 7.500430e+00 8.392297e+00 9.181546e+00 8.763440e+00 7.025918e+00 4.816505e+00 2.465112e+00 1.618172e-01 -2.120240e+00 -4.506567e+00 -6.820647e+00 -8.626250e+00 -9.557217e+00 -8.937533e+00 -8.293461e+00 -8.014689e+00 -7.094303e-02 7.618878e+00 2.446296e+00 -5.849961e+00 -7.156687e+00 -5.066554e+00 -4.802602e+00 -4.562799e+00 -3.497440e+00 -2.556880e+00 -2.001644e+00 -1.738594e+00 -1.628887e+00 -1.569425e+00 -1.504937e+00 -1.410933e+00 -1.284662e+00 -1.131310e+00 -9.598484e-01 -7.774740e-01 -5.898990e-01 -4.002398e-01 -2.104309e-01 
-2.098892e-02 1.829128e-01 3.857261e-01 5.873316e-01 7.868399e-01 9.818545e-01 1.168071e+00 1.338940e+00 1.487696e+00 1.610433e+00 1.715788e+00 1.834226e+00 2.036797e+00 2.438390e+00 3.197346e+00 4.482643e+00 6.571110e+00 8.084419e+00 2.445941e+00 2.486944e+00 5.254126e+00 -1.604083e+00 -5.788529e-01 3.623114e+00 3.853810e+00 5.221664e+00 5.999180e+00 6.412164e+00 6.151317e+00 5.139130e+00 3.646110e+00 1.905322e+00 8.929269e-02 -1.728539e+00 -3.501466e+00 -5.075076e+00 -6.210307e+00 -6.728935e+00 -6.543631e+00 -6.020144e+00 -5.045546e+00 -4.297043e+00 -2.426321e+00 1.537731e-01 -2.266209e+00 -3.188265e+00 -1.003864e+00 -5.602609e+00 -8.568153e+00 -5.816279e+00 -3.874863e+00 -2.767659e+00 -2.204941e+00 -1.935421e+00 -1.793980e+00 -1.686551e+00 -1.565905e+00 -1.418021e+00 -1.243625e+00 -1.051030e+00 -8.479512e-01 -6.408026e-01 -4.329725e-01 -2.262586e-01 
-1.998324e-02 1.971976e-01 4.138031e-01 6.301952e-01 8.456161e-01 1.057297e+00 1.260064e+00 1.446415e+00 1.609901e+00 1.750683e+00 1.889776e+00 2.083591e+00 2.449006e+00 3.165878e+00 4.440644e+00 6.248778e+00 8.733200e+00 2.364391e+00 -3.537692e+00 5.640356e+00 6.509447e+00 1.996905e-01 1.104324e+00 2.100958e+00 2.824205e+00 3.660703e+00 4.254268e+00 4.520663e+00 4.351910e+00 3.711044e+00 2.690977e+00 1.427509e+00 5.373389e-02 -1.328960e+00 -2.625570e+00 -3.708597e+00 -4.438331e+00 -4.732896e+00 -4.591834e+00 -4.128011e+00 -3.402497e+00 -2.612816e+00 -1.799763e+00 -1.581784e+00 -4.129859e+00 -8.561918e+00 6.208476e-01 2.994922e+00 -8.241971e+00 -8.316918e+00 -5.172516e+00 -3.547689e+00 -2.681635e+00 -2.232534e+00 -1.995678e+00 -1.840626e+00 -1.694446e+00 -1.528492e+00 -1.337054e+00 -1.127035e+00 -9.065234e-01 -6.827631e-01 -4.595583e-01 -2.386675e-01 
-1.823704e-02 2.085343e-01 4.352745e-01 6.627500e-01 8.901902e-01 1.114198e+00 1.328399e+00 1.523992e+00 1.694884e+00 1.845966e+00 2.013239e+00 2.283049e+00 2.828747e+00 3.926354e+00 6.009317e+00 9.785086e+00 5.574744e+00 -7.587446e+00 2.016201e+00 1.273642e+01 2.247466e+00 -2.154931e+00 -5.358059e-01 7.301862e-01 1.640159e+00 2.372377e+00 2.879306e+00 3.115790e+00 3.038532e+00 2.632572e+00 1.941014e+00 1.044274e+00 4.123690e-02 -9.722733e-01 -1.899723e+00 -2.641779e+00 -3.109879e+00 -3.257225e+00 -3.085100e+00 -2.635633e+00 -1.937100e+00 -1.003549e+00 2.249898e-01 2.006927e+00 2.482263e+00 -9.432837e+00 -1.030557e+01 6.962166e+00 1.274178e+00 -9.066041e+00 -5.831666e+00 -4.228716e+00 -3.129062e+00 -2.496297e+00 -2.156440e+00 -1.952457e+00 -1.784366e+00 -1.605977e+00 -1.403425e+00 -1.181427e+00 -9.483280e-01 -7.123169e-01 -4.777847e-01 -2.465811e-01 
-1.588783e-02 2.157892e-01 4.479895e-01 6.817794e-01 9.162404e-01 1.147108e+00 1.366503e+00 1.563881e+00 1.733108e+00 1.883307e+00 2.065062e+00 2.391355e+00 3.074629e+00 4.413335e+00 6.753646e+00 1.062584e+01 -6.219664e+00 -6.456032e+00 1.545777e+01 7.515280e+00 -3.487074e+00 -2.700997e+00 -1.485374e+00 -3.209568e-01 6.078849e-01 1.314455e+00 1.800557e+00 2.053747e+00 2.062285e+00 1.825485e+00 1.370217e+00 7.506351e-01 4.060179e-02 -6.794427e-01 -1.327109e+00 -1.825546e+00 -2.112816e+00 -2.156629e+00 -1.951126e+00 -1.507372e+00 -8.273553e-01 1.046173e-01 1.341597e+00 3.042705e+00 5.695371e+00 6.387961e-01 -1.767847e+01 -3.219226e+00 1.046828e+01 -6.304365e+00 -8.231551e+00 -5.075948e+00 -3.530167e+00 -2.693584e+00 -2.254271e+00 -2.007802e+00 -1.825083e+00 -1.642060e+00 -1.435776e+00 -1.208615e+00 -9.690607e-01 -7.263941e-01 -4.857199e-01 -2.491302e-01 
-1.306731e-02 2.179411e-01 4.500311e-01 6.844725e-01 9.201246e-01 1.151763e+00 1.369854e+00 1.561786e+00 1.720574e+00 1.857855e+00 2.035921e+00 2.388383e+00 3.166533e+00 4.689714e+00 7.446750e+00 2.821262e+00 -1.173723e+01 8.263332e+00 1.895395e+01 -3.056167e+00 -6.331696e+00 -3.932493e+00 -2.380856e+00 -1.170801e+00 -2.289940e-01 4.762647e-01 9.667631e-01 1.248900e+00 1.328415e+00 1.214990e+00 9.328998e-01 5.230908e-01 4.163594e-02 -4.487649e-01 -8.830425e-01 -1.203027e+00 -1.362145e+00 -1.332668e+00 -1.101319e+00 -6.630091e-01 -7.667580e-03 8.810485e-01 2.020475e+00 3.391881e+00 4.812719e+00 5.698041e+00 -9.907295e+00 -1.693350e+01 7.770693e+00 6.086939e+00 -8.874728e+00 -4.877281e+00 -3.621418e+00 -2.753488e+00 -2.264227e+00 -1.994051e+00 -1.808474e+00 -1.630142e+00 -1.428472e+00 -1.203851e+00 -9.649647e-01 -7.222696e-01 -4.816402e-01 -2.455428e-01 
-1.006400e-02 2.139959e-01 4.396719e-01 6.683791e-01 8.987869e-01 1.124863e+00 1.335619e+00 1.516418e+00 1.658585e+00 1.773178e+00 1.926729e+00 2.254676e+00 3.018682e+00 4.467321e+00 8.115069e+00 -9.390305e+00 -4.556005e+00 1.913640e+01 4.922927e+00 -8.262794e+00 -6.600238e+00 -4.653885e+00 -3.072965e+00 -1.831926e+00 -8.746899e-01 -1.638485e-01 3.369228e-01 6.469145e-01 7.832471e-01 7.623495e-01 6.075909e-01 3.524503e-01 4.061352e-02 -2.791085e-01 -5.559703e-01 -7.449551e-01 -8.089504e-01 -7.227815e-01 -4.685689e-01 -3.143810e-02 6.086434e-01 1.476532e+00 2.595596e+00 3.980264e+00 5.647244e+00 7.958540e+00 5.191820e+00 -2.153631e+01 -6.171765e+00 1.381522e+01 -5.287019e+00 -4.959312e+00 -3.692006e+00 -2.740154e+00 -2.196606e+00 -1.914370e+00 -1.734904e+00 -1.569048e+00 -1.379290e+00 -1.164600e+00 -9.337384e-01 -6.981787e-01 -4.644472e-01 -2.354111e-01 
-7.122287e-03 2.032119e-01 4.156461e-01 6.317236e-01 8.500802e-01 1.064371e+00 1.262829e+00 1.429825e+00 1.554773e+00 1.646868e+00 1.766385e+00 2.035530e+00 2.677138e+00 3.884502e+00 6.134025e+00 -1.414861e+01 6.683620e+00 2.011862e+01 -9.699528e+00 -9.840685e+00 -7.313423e+00 -5.231624e+00 -3.572432e+00 -2.300595e+00 -1.332747e+00 -6.198487e-01 -1.143845e-01 2.135255e-01 3.884120e-01 4.319099e-01 3.675887e-01 2.241631e-01 3.640115e-02 -1.581984e-01 -3.203617e-01 -4.151066e-01 -4.115875e-01 -2.857744e-01 -1.614381e-02 4.190384e-01 1.048941e+00 1.909367e+00 3.045938e+00 4.514634e+00 6.382185e+00 8.955204e+00 1.306268e+01 -1.120543e+01 -1.788342e+01 7.826720e+00 3.342553e+00 -5.983476e+00 -3.818949e+00 -2.661328e+00 -2.060962e+00 -1.776962e+00 -1.609242e+00 -1.460530e+00 -1.287918e+00 -1.089663e+00 -8.740014e-01 -6.530011e-01 -4.334346e-01 -2.185015e-01 
-4.518693e-03 1.851078e-01 3.771903e-01 5.734094e-01 7.725781e-01 9.687749e-01 1.150586e+00 1.303327e+00 1.416196e+00 1.498726e+00 1.602775e+00 1.834149e+00 2.321357e+00 2.992146e+00 -4.295300e-01 -8.026695e+00 1.522759e+01 1.216351e+01 -1.548060e+01 -1.068356e+01 -7.688573e+00 -5.500758e+00 -3.811125e+00 -2.542304e+00 -1.592128e+00 -8.973160e-01 -4.041125e-01 -7.443388e-02 1.200429e-01 2.038193e-01 1.995658e-01 1.322236e-01 2.980218e-02 -7.843333e-02 -1.618029e-01 -1.925602e-01 -1.447479e-01 4.269280e-03 2.774261e-01 7.009978e-01 1.310060e+00 2.149800e+00 3.281289e+00 4.776834e+00 6.730494e+00 9.355920e+00 1.282350e+01 3.709162e+00 -1.969389e+01 -2.509390e-02 1.244915e+01 -6.380072e+00 -3.547952e+00 -2.468216e+00 -1.881735e+00 -1.602794e+00 -1.444360e+00 -1.310552e+00 -1.156914e+00 -9.797693e-01 -7.858459e-01 -5.866365e-01 -3.885771e-01 -1.949139e-01 
-2.474389e-03 1.595625e-01 3.241954e-01 4.931889e-01 6.657281e-01 8.370129e-01 9.972813e-01 1.134936e+00 1.242385e+00 1.335394e+00 1.475480e+00 1.807153e+00 2.586224e+00 4.216647e+00 -6.206444e+00 -3.208104e+00 1.457208e+01 1.928807e+00 -1.318560e+01 -9.910620e+00 -7.269092e+00 -5.254204e+00 -3.689065e+00 -2.511614e+00 -1.636104e+00 -9.972863e-01 -5.437362e-01 -2.349404e-01 -4.248701e-02 5.840626e-02 8.851918e-02 6.908903e-02 2.243639e-02 -2.898010e-02 -6.150419e-02 -5.342869e-02 1.679679e-02 1.697853e-01 4.279037e-01 8.191278e-01 1.379490e+00 2.158243e+00 3.217825e+00 4.629474e+00 6.474750e+00 8.816294e+00 1.172173e+01 1.387489e+01 -1.685401e+01 -8.343894e+00 1.261683e+01 -5.150669e+00 -3.135762e+00 -2.273876e+00 -1.709420e+00 -1.414752e+00 -1.250890e+00 -1.124456e+00 -9.891249e-01 -8.366021e-01 -6.703561e-01 -4.998444e-01 -3.304223e-01 -1.650206e-01 
-1.055511e-03 1.270296e-01 2.575406e-01 3.921809e-01 5.305559e-01 6.693777e-01 8.014256e-01 9.194267e-01 1.021024e+00 1.130606e+00 1.327144e+00 1.811766e+00 3.033749e+00 5.970790e+00 -7.884345e+00 5.801046e-03 1.298518e+01 -3.107547e+00 -8.568302e+00 -7.582884e+00 -5.946447e+00 -4.424752e+00 -3.165246e+00 -2.191465e+00 -1.461669e+00 -9.270672e-01 -5.465511e-01 -2.842738e-01 -1.155171e-01 -1.835397e-02 2.452317e-02 3.010854e-02 1.537121e-02 -3.017047e-03 -7.508765e-03 1.828138e-02 9.123316e-02 2.287287e-01 4.500986e-01 7.815556e-01 1.254806e+00 1.916926e+00 2.820149e+00 4.029757e+00 5.610386e+00 7.604811e+00 1.024244e+01 1.396318e+01 -1.116485e+01 -9.636094e+00 8.266386e+00 -2.706666e+00 -2.875725e+00 -2.089442e+00 -1.519202e+00 -1.198577e+00 -1.022725e+00 -9.014462e-01 -7.859473e-01 -6.622265e-01 -5.295507e-01 -3.942600e-01 -2.601279e-01 -1.294301e-01 
-2.954221e-04 8.843021e-02 1.790496e-01 2.729468e-01 3.700388e-01 4.684868e-01 5.638091e-01 6.526977e-01 7.368248e-01 8.435270e-01 1.052320e+00 1.571832e+00 2.878218e+00 5.851803e+00 -7.043191e+00 1.266324e+00 1.030858e+01 -4.915980e+00 -5.643473e+00 -5.049656e+00 -4.131111e+00 -3.156230e+00 -2.299709e+00 -1.615433e+00 -1.094416e+00 -7.099126e-01 -4.349212e-01 -2.438202e-01 -1.185312e-01 -4.280632e-02 -4.145209e-03 9.394071e-03 9.349310e-03 6.820231e-03 1.351320e-02 4.048953e-02 9.946739e-02 2.031557e-01 3.657950e-01 6.078393e-01 9.525888e-01 1.437108e+00 2.097053e+00 2.981004e+00 4.121239e+00 5.505617e+00 7.107264e+00 8.167686e+00 -6.996938e+00 -6.567173e+00 5.015370e+00 -8.700034e-01 -2.624500e+00 -1.760388e+00 -1.213199e+00 -9.056798e-01 -7.410513e-01 -6.371926e-01 -5.490385e-01 -4.601553e-01 -3.670016e-01 -2.727953e-01 -1.796941e-01 -8.916283e-02 
-5.338343e-06 4.540842e-02 9.186631e-02 1.401533e-01 1.903061e-01 2.415662e-01 2.918963e-01 3.403489e-01 3.893568e-01 4.575211e-01 5.970023e-01 9.449522e-01 1.816827e+00 3.702828e+00 -3.836180e+00 9.633083e-01 5.848075e+00 -2.899066e+00 -2.691510e+00 -2.475996e+00 -2.090559e+00 -1.629859e+00 -1.203998e+00 -8.544476e-01 -5.843061e-01 -3.835682e-01 -2.393584e-01 -1.386285e-01 -7.192441e-02 -3.063714e-02 -8.228635e-03 1.483570e-03 4.354627e-03 5.970963e-03 1.221510e-02 2.870052e-02 6.144559e-02 1.171915e-01 2.034834e-01 3.315596e-01 5.137065e-01 7.702507e-01 1.118829e+00 1.583662e+00 2.173787e+00 2.853121e+00 3.523497e+00 3.504154e+00 -3.717197e+00 -3.450948e+00 2.466536e+00 -4.275241e-01 -1.831560e+00 -1.085028e+00 -7.004618e-01 -4.984375e-01 -3.939127e-01 -3.318853e-01 -2.830908e-01 -2.361898e-01 -1.879569e-01 -1.395344e-01 -9.180742e-02 -4.547038e-02 
2.040082e-12 3.958901e-12 6.237111e-12 8.998707e-12 1.222728e-11 1.582874e-11 1.961132e-11 2.332261e-11 2.664095e-11 2.974333e-11 3.439068e-11 4.788869e-11 1.030520e-10 2.786535e-10 -2.971061e-10 -1.534071e-10 3.136883e-10 -5.095208e-11 -2.756810e-11 -1.603620e-11 -1.233881e-11 -1.166661e-11 -1.110114e-11 -9.851026e-12 -7.885469e-12 -5.624371e-12 -3.490461e-12 -1.862952e-12 -9.073192e-13 -5.865811e-13 -7.751183e-13 -1.357925e-12 -2.087069e-12 -2.663772e-12 -2.826642e-12 -2.317541e-12 -7.999809e-13 2.075228e-12 6.617915e-12 1.326380e-11 2.225151e-11 3.372479e-11 4.736137e-11 6.257164e-11 7.667208e-11 7.962574e-11 2.550579e-11 -2.846119e-10 -5.688066e-10 1.345292e-10 4.449458e-10 -3.492465e-10 -4.717787e-10 -1.355966e-10 -4.511536e-11 -1.795123e-11 -1.015680e-11 -7.765446e-12 -6.721322e-12 -5.687663e-12 -4.317847e-12 -2.815576e-12 -1.259811e-12 3.241247e-13 
5.338347e-06 -4.540842e-02 -9.186631e-02 -1.401533e-01 -1.903061e-01 -2.415662e-01 -2.918963e-01 -3.403489e-01 -3.893568e-01 -4.575211e-01 -5.970023e-01 -9.449522e-01 -1.816827e+00 -3.702828e+00 3.836180e+00 -9.633083e-01 -5.848075e+00 2.899066e+00 2.691510e+00 2.475996e+00 2.090559e+00 1.629859e+00 1.203998e+00 8.544476e-01 5.843061e-01 3.835682e-01 2.393584e-01 1.386285e-01 7.192441e-02 3.063714e-02 8.228635e-03 -1.483570e-03 -4.354627e-03 -5.970963e-03 -1.221510e-02 -2.870052e-02 -6.144559e-02 -1.171915e-01 -2.034834e-01 -3.315596e-01 -5.137065e-01 -7.702507e-01 -1.118829e+00 -1.583662e+00 -2.173787e+00 -2.853121e+00 -3.523497e+00 -3.504154e+00 3.717197e+00 3.450948e+00 -2.466536e+00 4.275241e-01 1.831560e+00 1.085028e+00 7.004618e-01 4.984375e-01 3.939127e-01 3.318853e-01 2.830908e-01 2.361898e-01 1.879569e-01 1.395344e-01 9.180742e-02 4.547038e-02 