# vtk DataFile Version 2.0
Comment goes here
ASCII

DATASET STRUCTURED_POINTS
FIELD FieldData 1
TIME 1 1 double
1.17000000
DIMENSIONS    64   64   1

ORIGIN    0.000   0.000   0.000
SPACING   0.015625 0.015625   1.000

POINT_DATA   4096
SCALARS Omega double
LOOKUP_TABLE default

-8.040366e-14 -7.558715e-14 -6.599090e-14 -4.756638e-14 -3.948488e-14 -2.448793e-14 2.824185e-14 9.098176e-14 1.550256e-13 2.658805e-13 4.394959e-13 6.336369e-13 8.956491e-13 1.262749e-12 1.717927e-12 2.259564e-12 2.906198e-12 3.639338e-12 4.434769e-12 5.250247e-12 6.031056e-12 6.710389e-12 7.232970e-12 7.517977e-12 7.554920e-12 7.265619e-12 6.643823e-12 5.706157e-12 4.461340e-12 2.931627e-12 1.176248e-12 -7.478879e-13 -2.748503e-12 -4.695672e-12 -6.482017e-12 -8.011194e-12 -9.159285e-12 -9.839689e-12 -1.008048e-11 -9.884913e-12 -9.329920e-12 -8.487532e-12 -7.482508e-12 -6.409896e-12 -5.324615e-12 -4.336201e-12 -3.464586e-12 -2.717701e-12 -2.091951e-12 -1.603036e-12 -1.214567e-12 -9.134477e-13 -7.187602e-13 -5.643051e-13 -4.135825e-13 -3.258100e-13 -2.548415e-13 -2.058943e-13 -1.763799e-13 -1.612803e-13 -1.257630e-13 -1.087117e-13 -1.034607e-13 -9.544431e-14 
-3.043977e-04 4.569344e-03 9.254359e-03 1.354896e-02 1.724580e-02 2.012007e-02 2.193390e-02 2.242498e-02 2.131113e-02 1.828969e-02 1.304045e-02 5.247694e-03 -5.395741e-03 -1.913585e-02 -3.614639e-02 -5.645041e-02 -7.990017e-02 -1.060976e-01 -1.343753e-01 -1.637573e-01 -1.929626e-01 -2.204428e-01 -2.444282e-01 -2.630453e-01 -2.744139e-01 -2.768132e-01 -2.688217e-01 -2.495122e-01 -2.185995e-01 -1.766221e-01 -1.250349e-01 -6.619080e-02 -3.248885e-03 6.019613e-02 1.204273e-01 1.741072e-01 2.185729e-01 2.520156e-01 2.736241e-01 2.833857e-01 2.821404e-01 2.712450e-01 2.525275e-01 2.279958e-01 1.996896e-01 1.695332e-01 1.391837e-01 1.100035e-01 8.300363e-02 5.886386e-02 3.798062e-02 2.048505e-02 6.345892e-03 -4.629988e-03 -1.269418e-02 -1.816824e-02 -2.137153e-02 -2.263373e-02 -2.226057e-02 -2.054010e-02 -1.773729e-02 -1.409336e-02 -9.835007e-03 -5.171169e-03 
-6.113740e-04 9.167735e-03 1.856803e-02 2.718470e-02 3.460216e-02 4.036981e-02 4.401187e-02 4.500377e-02 4.278245e-02 3.674397e-02 2.625049e-02 1.067299e-02 -1.059958e-02 -3.805662e-02 -7.204239e-02 -1.126006e-01 -1.594331e-01 -2.117420e-01 -2.681929e-01 -3.268383e-01 -3.851290e-01 -4.399908e-01 -4.879231e-01 -5.252265e-01 -5.481930e-01 -5.534128e-01 -5.380368e-01 -5.001393e-01 -4.390119e-01 -3.555445e-01 -2.524905e-01 -1.344977e-01 -7.967600e-03 1.196958e-01 2.408294e-01 3.485968e-01 4.376390e-01 5.044208e-01 5.474300e-01 5.667357e-01 5.640621e-01 5.421350e-01 5.046117e-01 4.554983e-01 3.988689e-01 3.385630e-01 2.778915e-01 2.195705e-01 1.656185e-01 1.173872e-01 7.566620e-02 4.071339e-02 1.246526e-02 -9.464686e-03 -2.557819e-02 -3.651597e-02 -4.291428e-02 -4.542976e-02 -4.467211e-02 -4.121589e-02 -3.559068e-02 -2.827882e-02 -1.973453e-02 -1.037656e-02 
-9.319640e-04 1.382121e-02 2.800270e-02 4.100195e-02 5.219323e-02 6.089889e-02 6.640535e-02 6.792725e-02 6.462355e-02 5.559406e-02 3.988854e-02 1.657220e-02 -1.526468e-02 -5.634737e-02 -1.071882e-01 -1.678467e-01 -2.378758e-01 -3.160800e-01 -4.004673e-01 -4.881389e-01 -5.753117e-01 -6.574485e-01 -7.294028e-01 -7.857621e-01 -8.211007e-01 -8.303750e-01 -8.092536e-01 -7.545849e-01 -6.648364e-01 -5.408261e-01 -3.862605e-01 -2.080098e-01 -1.598108e-02 1.781012e-01 3.620263e-01 5.250787e-01 6.591144e-01 7.590089e-01 8.228384e-01 8.509741e-01 8.461903e-01 8.126578e-01 7.558892e-01 6.818995e-01 5.967724e-01 5.062558e-01 4.152824e-01 3.279046e-01 2.471209e-01 1.749341e-01 1.125108e-01 6.022120e-02 1.796493e-02 -1.484156e-02 -3.894645e-02 -5.530566e-02 -6.486575e-02 -6.860429e-02 -6.742999e-02 -6.219996e-02 -5.370683e-02 -4.267333e-02 -2.978240e-02 -1.566430e-02 
-1.261630e-03 1.858454e-02 3.766184e-02 5.514984e-02 7.021051e-02 8.193734e-02 8.938091e-02 9.149802e-02 8.717716e-02 7.523001e-02 5.440566e-02 2.347326e-02 -1.876539e-02 -7.326775e-02 -1.407137e-01 -2.211890e-01 -3.141147e-01 -4.179272e-01 -5.300202e-01 -6.465997e-01 -7.627286e-01 -8.725057e-01 -9.692706e-01 -1.046049e+00 -1.095850e+00 -1.112067e+00 -1.088781e+00 -1.021185e+00 -9.061052e-01 -7.431528e-01 -5.360748e-01 -2.936981e-01 -3.013277e-02 2.370136e-01 4.893199e-01 7.110705e-01 8.911322e-01 1.023420e+00 1.106382e+00 1.141336e+00 1.132421e+00 1.085431e+00 1.007847e+00 9.077385e-01 7.932209e-01 6.719285e-01 5.503801e-01 4.338950e-01 3.263929e-01 2.304564e-01 1.475796e-01 7.820188e-02 2.216170e-02 -2.133430e-02 -5.328296e-02 -7.494906e-02 -8.758087e-02 -9.246507e-02 -9.080063e-02 -8.371869e-02 -7.227113e-02 -5.741848e-02 -4.007362e-02 -2.108023e-02 
-1.620823e-03 2.350367e-02 4.765632e-02 6.980202e-02 8.888788e-02 1.037786e-01 1.132930e-01 1.161384e-01 1.109450e-01 9.625297e-02 7.052583e-02 3.225289e-02 -2.004870e-02 -8.757045e-02 -1.711877e-01 -2.710539e-01 -3.865353e-01 -5.157972e-01 -6.557454e-01 -8.018356e-01 -9.481205e-01 -1.087484e+00 -1.211878e+00 -1.312908e+00 -1.382157e+00 -1.411528e+00 -1.393333e+00 -1.320214e+00 -1.185435e+00 -9.850420e-01 -7.210758e-01 -4.041415e-01 -5.428391e-02 3.017626e-01 6.357366e-01 9.246095e-01 1.153774e+00 1.317266e+00 1.415771e+00 1.452908e+00 1.434894e+00 1.369625e+00 1.266835e+00 1.136922e+00 9.901207e-01 8.360051e-01 6.825917e-01 5.363499e-01 4.019545e-01 2.824120e-01 1.794079e-01 9.334198e-02 2.392161e-02 -2.990206e-02 -6.939016e-02 -9.611832e-02 -1.116252e-01 -1.174913e-01 -1.151901e-01 -1.061130e-01 -9.156224e-02 -7.273071e-02 -5.076076e-02 -2.671140e-02 
-1.999257e-03 2.868211e-02 5.818163e-02 8.524391e-02 1.086002e-01 1.268879e-01 1.387037e-01 1.425183e-01 1.367250e-01 1.196122e-01 8.937954e-02 4.424288e-02 -1.757327e-02 -9.754017e-02 -1.968111e-01 -3.157509e-01 -4.538705e-01 -6.093258e-01 -7.788383e-01 -9.574099e-01 -1.138322e+00 -1.313332e+00 -1.472924e+00 -1.607093e+00 -1.705846e+00 -1.759626e+00 -1.758970e+00 -1.693001e+00 -1.548159e+00 -1.311464e+00 -9.794096e-01 -5.637083e-01 -9.393375e-02 3.866181e-01 8.320253e-01 1.206641e+00 1.491296e+00 1.683565e+00 1.790487e+00 1.820768e+00 1.783511e+00 1.689458e+00 1.551343e+00 1.382561e+00 1.195945e+00 1.003231e+00 8.139217e-01 6.354045e-01 4.728111e-01 3.292191e-01 2.062060e-01 1.038789e-01 2.163436e-02 -4.194775e-02 -8.845929e-02 -1.198086e-01 -1.378264e-01 -1.443683e-01 -1.411642e-01 -1.298427e-01 -1.119432e-01 -8.887948e-02 -6.202060e-02 -3.264121e-02 
-2.426597e-03 3.420875e-02 6.944456e-02 1.018009e-01 1.297939e-01 1.518404e-01 1.663303e-01 1.715202e-01 1.655927e-01 1.466114e-01 1.125228e-01 6.126043e-02 -9.307550e-03 -1.010508e-01 -2.156241e-01 -3.539217e-01 -5.160522e-01 -7.007085e-01 -9.050267e-01 -1.124080e+00 -1.350617e+00 -1.575037e+00 -1.785484e+00 -1.969129e+00 -2.113408e+00 -2.207759e+00 -2.243135e+00 -2.205888e+00 -2.068087e+00 -1.794796e+00 -1.370319e+00 -8.083108e-01 -1.550970e-01 5.165794e-01 1.129326e+00 1.625367e+00 1.977811e+00 2.193147e+00 2.295410e+00 2.304101e+00 2.230854e+00 2.089793e+00 1.897580e+00 1.672163e+00 1.430119e+00 1.186180e+00 9.515393e-01 7.343149e-01 5.395898e-01 3.699200e-01 2.261887e-01 1.077133e-01 1.320320e-02 -5.939871e-02 -1.121739e-01 -1.474497e-01 -1.673767e-01 -1.740822e-01 -1.695309e-01 -1.555631e-01 -1.339321e-01 -1.062559e-01 -7.412200e-02 -3.901854e-02 
-2.887504e-03 4.025617e-02 8.177590e-02 1.199647e-01 1.531298e-01 1.794791e-01 1.972204e-01 2.044229e-01 1.990920e-01 1.790805e-01 1.420745e-01 8.565019e-02 7.168806e-03 -9.592972e-02 -2.262422e-01 -3.858450e-01 -5.762849e-01 -7.977960e-01 -1.048952e+00 -1.325630e+00 -1.620090e+00 -1.920135e+00 -2.208798e+00 -2.466673e+00 -2.675553e+00 -2.825023e+00 -2.914981e+00 -2.937874e+00 -2.836997e+00 -2.525390e+00 -1.966735e+00 -1.181085e+00 -2.425779e-01 7.261292e-01 1.597401e+00 2.274427e+00 2.712774e+00 2.939163e+00 3.016427e+00 2.985136e+00 2.854216e+00 2.639950e+00 2.364691e+00 2.053358e+00 1.728593e+00 1.410070e+00 1.111688e+00 8.423515e-01 6.065798e-01 4.055078e-01 2.383792e-01 1.028526e-01 -3.753486e-03 -8.463830e-02 -1.427214e-01 -1.809420e-01 -2.018767e-01 -2.079492e-01 -2.013559e-01 -1.841184e-01 -1.581784e-01 -1.253312e-01 -8.736924e-02 -4.598634e-02 
-3.417608e-03 4.697407e-02 9.551326e-02 1.402696e-01 1.793530e-01 2.107846e-01 2.326206e-01 2.427781e-01 2.391078e-01 2.192483e-01 1.805500e-01 1.200651e-01 3.430764e-02 -8.050121e-02 -2.287179e-01 -4.146873e-01 -6.427812e-01 -9.163090e-01 -1.236689e+00 -1.601371e+00 -2.001360e+00 -2.418600e+00 -2.824417e+00 -3.183712e+00 -3.463841e+00 -3.654010e+00 -3.790957e+00 -3.927633e+00 -3.940086e+00 -3.596532e+00 -2.840479e+00 -1.722849e+00 -3.605807e-01 1.046601e+00 2.304138e+00 3.252381e+00 3.795040e+00 3.986145e+00 4.000468e+00 3.924410e+00 3.724883e+00 3.413568e+00 3.023100e+00 2.588503e+00 2.142551e+00 1.713901e+00 1.321762e+00 9.770726e-01 6.836593e-01 4.403922e-01 2.436028e-01 8.801451e-02 -3.156880e-02 -1.203673e-01 -1.827546e-01 -2.226851e-01 -2.433844e-01 -2.476787e-01 -2.380228e-01 -2.166056e-01 -1.855260e-01 -1.467258e-01 -1.021775e-01 -5.376716e-02 
-3.994796e-03 5.461146e-02 1.111390e-01 1.634454e-01 2.094663e-01 2.470647e-01 2.741858e-01 2.886205e-01 2.880725e-01 2.698951e-01 2.309384e-01 1.673697e-01 7.428383e-02 -5.422941e-02 -2.255134e-01 -4.478040e-01 -7.301318e-01 -1.080738e+00 -1.505231e+00 -2.002656e+00 -2.560362e+00 -3.147746e+00 -3.711852e+00 -4.184739e+00 -4.499456e+00 -4.629393e+00 -4.722153e+00 -5.080292e+00 -5.379889e+00 -4.993642e+00 -3.941329e+00 -2.394644e+00 -5.067348e-01 1.429004e+00 3.195449e+00 4.551201e+00 5.229935e+00 5.282097e+00 5.165715e+00 5.085520e+00 4.844519e+00 4.433391e+00 3.913482e+00 3.327901e+00 2.722826e+00 2.142675e+00 1.617533e+00 1.164072e+00 7.871947e-01 4.835423e-01 2.454990e-01 6.338356e-02 -7.205165e-02 -1.693220e-01 -2.352670e-01 -2.755230e-01 -2.944069e-01 -2.953667e-01 -2.812234e-01 -2.543441e-01 -2.169679e-01 -1.711434e-01 -1.189927e-01 -6.256754e-02 
-4.651188e-03 6.337792e-02 1.291139e-01 1.902278e-01 2.445140e-01 2.897201e-01 3.237175e-01 3.441883e-01 3.486411e-01 3.339922e-01 2.962471e-01 2.301135e-01 1.283352e-01 -1.839206e-02 -2.220677e-01 -4.966740e-01 -8.577046e-01 -1.319553e+00 -1.891895e+00 -2.573493e+00 -3.343296e+00 -4.149269e+00 -4.896431e+00 -5.458893e+00 -5.710399e+00 -5.484072e+00 -5.067097e+00 -5.889592e+00 -7.110800e+00 -6.728708e+00 -5.248161e+00 -3.197721e+00 -7.032332e-01 1.767394e+00 4.165040e+00 6.178640e+00 6.960934e+00 6.375850e+00 5.960552e+00 6.199495e+00 6.061847e+00 5.579452e+00 4.974608e+00 4.255297e+00 3.482087e+00 2.724274e+00 2.030297e+00 1.430984e+00 9.377671e-01 5.481164e-01 2.509103e-01 3.116840e-02 -1.259598e-01 -2.339023e-01 -3.033242e-01 -3.425914e-01 -3.578004e-01 -3.534481e-01 -3.329307e-01 -2.988761e-01 -2.536614e-01 -1.994110e-01 -1.383512e-01 -7.266442e-02 
-5.351106e-03 7.357364e-02 1.500184e-01 2.215098e-01 2.857519e-01 3.404232e-01 3.833586e-01 4.121044e-01 4.238609e-01 4.147959e-01 3.795421e-01 3.104495e-01 1.967164e-01 2.405771e-02 -2.257755e-01 -5.738899e-01 -1.042374e+00 -1.649939e+00 -2.405633e+00 -3.300973e+00 -4.299771e+00 -5.320476e+00 -6.202710e+00 -6.714945e+00 -6.689177e+00 -5.414385e+00 -3.088073e+00 -5.397551e+00 -9.628504e+00 -8.834800e+00 -5.719499e+00 -2.683641e+00 -5.269438e-01 7.189982e-01 3.727488e+00 7.920655e+00 9.142394e+00 6.291164e+00 4.923996e+00 6.478798e+00 6.811144e+00 6.338742e+00 5.878549e+00 5.168376e+00 4.312495e+00 3.415990e+00 2.555310e+00 1.789913e+00 1.151473e+00 6.476504e-01 2.685673e-01 -4.558118e-03 -1.928051e-01 -3.158671e-01 -3.898436e-01 -4.271388e-01 -4.366645e-01 -4.246044e-01 -3.953267e-01 -3.518820e-01 -2.968415e-01 -2.323772e-01 -1.607737e-01 -8.428891e-02 
-6.104588e-03 8.542695e-02 1.743395e-01 2.580809e-01 3.343294e-01 4.007516e-01 4.551591e-01 4.948912e-01 5.166038e-01 5.152537e-01 4.833064e-01 4.096573e-01 2.785492e-01 6.939623e-02 -2.430651e-01 -6.860554e-01 -1.283930e+00 -2.050565e+00 -2.979643e+00 -4.040471e+00 -5.177379e+00 -6.296453e+00 -7.150667e+00 -7.238351e+00 -6.990759e+00 -4.583724e+00 2.463985e+00 1.077859e+01 1.828136e+01 2.084300e+01 1.662177e+01 9.336485e+00 1.478702e+00 -6.552331e+00 -1.469436e+01 -2.085225e+01 -2.100597e+01 -1.322888e+01 -1.669773e+00 6.137403e+00 6.528556e+00 5.631091e+00 5.959384e+00 5.580152e+00 4.892610e+00 4.034505e+00 3.102964e+00 2.207050e+00 1.422422e+00 7.869917e-01 3.049475e-01 -3.946381e-02 -2.711423e-01 -4.161669e-01 -4.972144e-01 -5.321840e-01 -5.340231e-01 -5.115321e-01 -4.706158e-01 -4.150623e-01 -3.477435e-01 -2.708890e-01 -1.867831e-01 -9.769418e-02 
-6.849363e-03 9.920804e-02 2.025824e-01 3.007357e-01 3.914047e-01 4.722982e-01 5.411938e-01 5.950652e-01 6.296746e-01 6.380884e-01 6.096665e-01 5.285964e-01 3.731317e-01 1.159821e-01 -2.731425e-01 -8.217093e-01 -1.543150e+00 -2.424212e+00 -3.412669e+00 -4.427204e+00 -5.407176e+00 -6.372369e+00 -7.080579e+00 -5.070971e+00 3.601417e+00 2.079280e+01 2.840489e+01 2.196352e+01 1.491703e+01 6.780748e+00 1.959380e+00 6.702045e-01 2.879309e-01 6.193156e-01 -6.990406e-01 -4.744550e+00 -1.365126e+01 -2.163545e+01 -2.864008e+01 -2.351878e+01 -7.643331e+00 1.288273e+00 4.462757e+00 4.659892e+00 4.608798e+00 4.182786e+00 3.442171e+00 2.562314e+00 1.697671e+00 9.479894e-01 3.568118e-01 -7.234254e-02 -3.599737e-01 -5.352620e-01 -6.272789e-01 -6.603028e-01 -6.526283e-01 -6.167291e-01 -5.608535e-01 -4.899643e-01 -4.074541e-01 -3.156439e-01 -2.167723e-01 -1.130274e-01 
-7.548013e-03 1.150624e-01 2.350329e-01 3.499622e-01 4.577452e-01 5.561852e-01 6.429690e-01 7.144668e-01 7.650466e-01 7.850857e-01 7.597941e-01 6.677193e-01 4.809393e-01 1.675675e-01 -3.011710e-01 -9.386106e-01 -1.721131e+00 -2.568808e+00 -3.331992e+00 -3.835974e+00 -4.049455e+00 -4.765173e+00 1.496363e+00 1.725933e+01 2.775593e+01 2.283176e+01 3.155678e+00 -1.115993e+01 -1.401927e+01 -1.620549e+01 -1.367116e+01 -7.766462e+00 -1.327617e+00 5.634610e+00 1.160815e+01 1.679533e+01 1.454668e+01 1.100691e+01 -2.037910e+00 -2.053262e+01 -2.678584e+01 -2.096070e+01 -5.684160e+00 1.883073e+00 2.567079e+00 3.224904e+00 3.153232e+00 2.607814e+00 1.847378e+00 1.071200e+00 4.011303e-01 -1.101876e-01 -4.607143e-01 -6.736772e-01 -7.810748e-01 -8.131866e-01 -7.944281e-01 -7.420593e-01 -6.675702e-01 -5.777205e-01 -4.767205e-01 -3.670880e-01 -2.509653e-01 -1.303642e-01 
-8.098192e-03 1.330803e-01 2.718058e-01 4.059694e-01 5.337380e-01 6.530485e-01 7.613919e-01 8.541937e-01 9.238308e-01 9.570953e-01 9.342276e-01 8.278211e-01 6.056162e-01 2.367954e-01 -2.921179e-01 -9.555437e-01 -1.651975e+00 -2.178655e+00 -2.225197e+00 -1.460801e+00 1.388163e-02 5.554093e+00 2.061041e+01 2.537189e+01 8.119526e+00 -1.285052e+01 -1.962562e+01 -1.073472e+01 8.853647e-01 7.026105e+00 6.807376e+00 3.477017e+00 3.897389e-02 -2.820655e+00 -6.798410e+00 -7.660031e+00 -3.124295e+00 8.723987e+00 1.954896e+01 1.438457e+01 -1.929771e+00 -2.010332e+01 -2.162319e+01 -8.827597e+00 -1.956880e+00 3.910568e-01 1.643013e+00 1.955690e+00 1.650066e+00 1.043722e+00 3.867345e-01 -1.729385e-01 -5.797660e-01 -8.329177e-01 -9.590878e-01 -9.914265e-01 -9.602791e-01 -8.883945e-01 -7.914757e-01 -6.787695e-01 -5.557339e-01 -4.252263e-01 -2.892733e-01 -1.495877e-01 
-8.397350e-03 1.531591e-01 3.126328e-01 4.683885e-01 6.189881e-01 7.625207e-01 8.961185e-01 1.013836e+00 1.105386e+00 1.153159e+00 1.132007e+00 1.009576e+00 7.536385e-01 3.454543e-01 -1.916045e-01 -7.567475e-01 -1.118688e+00 -8.939267e-01 4.310531e-01 2.962413e+00 8.614067e+00 1.797285e+01 1.712599e+01 -2.132503e+00 -1.634698e+01 -9.564017e+00 7.531251e+00 1.467085e+01 1.089688e+01 8.221286e+00 5.885873e+00 3.138825e+00 1.445171e-01 -2.747605e+00 -5.635981e+00 -7.749835e+00 -9.505585e+00 -1.212951e+01 -7.406081e+00 3.765718e+00 1.353352e+01 6.541013e+00 -1.270145e+01 -1.749466e+01 -9.357396e+00 -3.466441e+00 -1.772934e+00 1.103401e-01 8.034149e-01 7.022016e-01 2.343105e-01 -2.944332e-01 -7.288198e-01 -1.015468e+00 -1.160694e+00 -1.193887e+00 -1.149227e+00 -1.055028e+00 -9.319506e-01 -7.925000e-01 -6.438656e-01 -4.894717e-01 -3.312149e-01 -1.703907e-01 
-8.306729e-03 1.750089e-01 3.568308e-01 5.362032e-01 7.121999e-01 8.830517e-01 1.045298e+00 1.191114e+00 1.306855e+00 1.369866e+00 1.349915e+00 1.212287e+00 9.326989e-01 5.207968e-01 6.683525e-02 -2.099398e-01 1.014152e-01 1.608769e+00 4.497476e+00 8.485557e+00 1.216528e+01 1.035030e+01 -1.656847e+00 -8.116468e+00 -9.772020e-01 6.136623e+00 9.398809e+00 9.881321e+00 8.458773e+00 6.699001e+00 4.795144e+00 2.589086e+00 1.858086e-01 -2.196882e+00 -4.405389e+00 -6.137812e+00 -7.470768e+00 -8.405146e+00 -8.039439e+00 -7.402137e+00 -2.560128e+00 5.758997e+00 4.105032e+00 -8.940820e+00 -1.180822e+01 -6.067124e+00 -5.268736e+00 -3.428639e+00 -1.005909e+00 -1.321438e-01 -1.476130e-01 -5.153787e-01 -9.221569e-01 -1.223321e+00 -1.383364e+00 -1.416943e+00 -1.357905e+00 -1.239096e+00 -1.086606e+00 -9.168801e-01 -7.394109e-01 -5.584492e-01 -3.757951e-01 -1.921933e-01 
-7.677573e-03 1.980813e-01 4.031869e-01 6.075699e-01 8.109213e-01 1.011550e+00 1.205102e+00 1.381278e+00 1.522417e+00 1.600412e+00 1.581133e+00 1.432037e+00 1.148108e+00 7.900830e-01 5.502696e-01 8.094325e-01 2.184011e+00 5.463674e+00 8.871967e+00 7.272772e+00 5.166867e+00 2.194252e+00 -3.338439e+00 -2.078086e-01 4.849691e+00 5.424441e+00 6.435381e+00 6.862348e+00 6.342053e+00 5.267721e+00 3.838945e+00 2.110246e+00 2.062854e-01 -1.691358e+00 -3.410628e+00 -4.765858e+00 -5.694527e+00 -6.126314e+00 -5.850605e+00 -5.120048e+00 -4.172692e+00 -9.784362e-01 3.035568e+00 -1.485784e+00 -6.936558e+00 -5.539309e+00 -7.130272e+00 -7.689853e+00 -3.951158e+00 -1.579925e+00 -8.279989e-01 -8.680003e-01 -1.169429e+00 -1.454894e+00 -1.620945e+00 -1.653498e+00 -1.579748e+00 -1.435025e+00 -1.250835e+00 -1.048162e+00 -8.393759e-01 -6.298826e-01 -4.214413e-01 -2.141365e-01 
-6.381107e-03 2.215191e-01 4.498740e-01 6.796948e-01 9.113528e-01 1.143111e+00 1.369313e+00 1.576506e+00 1.742312e+00 1.833024e+00 1.812525e+00 1.656713e+00 1.394830e+00 1.166180e+00 1.306846e+00 2.387679e+00 5.152457e+00 9.384493e+00 4.129746e+00 -1.524775e-01 5.600428e+00 4.218372e+00 -1.535620e+00 -1.098268e+00 2.036045e+00 3.567419e+00 4.529825e+00 4.939793e+00 4.738431e+00 4.047525e+00 2.992810e+00 1.670322e+00 2.010933e-01 -1.267441e+00 -2.589522e+00 -3.628591e+00 -4.303391e+00 -4.547126e+00 -4.287152e+00 -3.551232e+00 -2.233634e+00 2.230239e-01 1.705634e+00 -1.047899e+00 -6.843833e+00 -1.879097e+00 -3.080832e-01 -8.851787e+00 -7.844837e+00 -3.616882e+00 -1.811602e+00 -1.354129e+00 -1.464508e+00 -1.698975e+00 -1.860601e+00 -1.891184e+00 -1.803937e+00 -1.633778e+00 -1.417326e+00 -1.180543e+00 -9.392890e-01 -7.004827e-01 -4.659672e-01 -2.350779e-01 
-4.310082e-03 2.441716e-01 4.944858e-01 7.488775e-01 1.008411e+00 1.271102e+00 1.529496e+00 1.766180e+00 1.953354e+00 2.051520e+00 2.024989e+00 1.865084e+00 1.651384e+00 1.632803e+00 2.331811e+00 4.569599e+00 9.123506e+00 3.517642e+00 -4.650817e+00 6.561069e+00 1.043294e+01 -8.051077e-02 -2.802117e+00 -9.268909e-01 1.022855e+00 2.354661e+00 3.178307e+00 3.547939e+00 3.479798e+00 3.027433e+00 2.267502e+00 1.284282e+00 1.802654e-01 -9.264973e-01 -1.920116e+00 -2.696570e+00 -3.181436e+00 -3.326682e+00 -3.094793e+00 -2.458809e+00 -1.317691e+00 5.110484e-01 2.875876e+00 2.646108e+00 -7.574167e+00 -9.424284e+00 5.231615e+00 -3.796417e-01 -1.096240e+01 -5.975006e+00 -3.043429e+00 -1.944990e+00 -1.783891e+00 -1.934066e+00 -2.082479e+00 -2.112342e+00 -2.015373e+00 -1.822886e+00 -1.576066e+00 -1.306199e+00 -1.033230e+00 -7.659961e-01 -5.066059e-01 -2.536174e-01 
-1.450555e-03 2.645476e-01 5.339998e-01 8.104673e-01 1.095663e+00 1.387077e+00 1.674879e+00 1.936776e+00 2.138600e+00 2.234460e+00 2.190657e+00 2.018857e+00 1.860149e+00 2.085141e+00 3.414812e+00 7.021528e+00 8.145589e+00 -7.082608e+00 1.655372e+00 1.589737e+01 1.454653e+00 -4.273561e+00 -2.676784e+00 -1.040652e+00 4.191441e-01 1.480625e+00 2.157591e+00 2.483336e+00 2.486475e+00 2.198173e+00 1.667603e+00 9.588218e-01 1.529914e-01 -6.577329e-01 -1.382678e+00 -1.942049e+00 -2.277523e+00 -2.353242e+00 -2.142791e+00 -1.612566e+00 -6.898944e-01 7.270609e-01 2.619583e+00 4.743372e+00 9.916812e-02 -1.572326e+01 -4.937061e+00 9.318583e+00 -4.932113e+00 -9.206950e+00 -4.531171e+00 -2.568419e+00 -2.073475e+00 -2.121043e+00 -2.256800e+00 -2.292836e+00 -2.194363e+00 -1.986378e+00 -1.714412e+00 -1.415394e+00 -1.113971e+00 -8.213429e-01 -5.401400e-01 -2.681977e-01 
2.100890e-03 2.808841e-01 5.649305e-01 8.591269e-01 1.165736e+00 1.481460e+00 1.793512e+00 2.073864e+00 2.280801e+00 2.360698e+00 2.281417e+00 2.075005e+00 1.944938e+00 2.367882e+00 4.085747e+00 8.547731e+00 -3.258073e+00 -7.164210e+00 1.591949e+01 1.002312e+01 -7.143786e+00 -4.874189e+00 -2.902394e+00 -1.342932e+00 -1.119997e-01 7.720115e-01 1.346855e+00 1.647094e+00 1.700932e+00 1.533356e+00 1.179882e+00 6.893779e-01 1.234149e-01 -4.480240e-01 -9.559787e-01 -1.340307e+00 -1.554824e+00 -1.570839e+00 -1.365373e+00 -9.076590e-01 -1.415372e-01 1.014595e+00 2.596153e+00 4.513004e+00 6.313930e+00 -5.043283e+00 -1.828489e+01 4.225087e+00 8.568492e+00 -9.278988e+00 -5.468228e+00 -2.988544e+00 -2.233986e+00 -2.205464e+00 -2.346565e+00 -2.404687e+00 -2.318475e+00 -2.106167e+00 -1.818023e+00 -1.497136e+00 -1.173431e+00 -8.609273e-01 -5.630976e-01 -2.772067e-01 
6.111339e-03 2.912261e-01 5.834998e-01 8.890510e-01 1.210603e+00 1.543893e+00 1.872873e+00 2.163270e+00 2.364763e+00 2.413664e+00 2.275724e+00 1.993944e+00 1.828974e+00 2.404782e+00 4.894159e+00 6.727661e+00 -1.147850e+01 5.087702e+00 2.087455e+01 -2.834644e+00 -7.258379e+00 -5.034403e+00 -3.153168e+00 -1.693181e+00 -5.959655e-01 1.839744e-01 7.005619e-01 9.932287e-01 1.091172e+00 1.017598e+00 8.004987e-01 4.776371e-01 9.600501e-02 -2.909885e-01 -6.304619e-01 -8.762322e-01 -9.918087e-01 -9.528196e-01 -7.377709e-01 -3.175337e-01 3.565028e-01 1.362460e+00 2.782635e+00 4.686054e+00 7.153105e+00 5.853008e+00 -1.806773e+01 -1.074357e+01 1.085445e+01 -2.245472e+00 -6.034361e+00 -3.136350e+00 -2.193164e+00 -2.134156e+00 -2.316538e+00 -2.421486e+00 -2.366309e+00 -2.164525e+00 -1.872543e+00 -1.540323e+00 -1.203454e+00 -8.791662e-01 -5.720797e-01 -2.791428e-01 
1.012614e-02 2.934576e-01 5.857765e-01 8.942538e-01 1.222019e+00 1.563960e+00 1.901010e+00 2.193304e+00 2.381709e+00 2.391378e+00 2.177595e+00 1.768787e+00 1.406315e+00 1.606856e+00 3.309825e+00 -3.127837e+00 -6.886946e+00 1.799981e+01 1.267515e+01 -1.171390e+01 -7.870212e+00 -5.355400e+00 -3.459109e+00 -2.041646e+00 -1.012143e+00 -2.873844e-01 2.010530e-01 4.968800e-01 6.315025e-01 6.286285e-01 5.128399e-01 3.150647e-01 7.166519e-02 -1.764716e-01 -3.887487e-01 -5.292954e-01 -5.678671e-01 -4.823157e-01 -2.508414e-01 1.554046e-01 7.813114e-01 1.703802e+00 3.016831e+00 4.833803e+00 7.272774e+00 1.016408e+01 -3.888762e+00 -1.990796e+01 3.347890e+00 8.965002e+00 -6.972593e+00 -2.881978e+00 -1.867278e+00 -1.863405e+00 -2.142477e+00 -2.325669e+00 -2.321822e+00 -2.146906e+00 -1.865420e+00 -1.534940e+00 -1.196613e+00 -8.710111e-01 -5.640984e-01 -2.728130e-01 
1.364800e-02 2.856892e-01 5.682411e-01 8.692440e-01 1.192238e+00 1.531723e+00 1.866769e+00 2.154373e+00 2.329165e+00 2.309891e+00 2.039536e+00 1.532630e+00 9.714124e-01 6.272316e-01 1.284510e+00 -1.266449e+01 4.127774e+00 2.095650e+01 -4.350322e+00 -1.347942e+01 -8.721268e+00 -5.728771e+00 -3.721444e+00 -2.315092e+00 -1.322038e+00 -6.304738e-01 -1.595383e-01 1.397808e-01 3.007824e-01 3.483496e-01 3.048114e-01 1.963415e-01 5.181490e-02 -9.674043e-02 -2.174848e-01 -2.817695e-01 -2.639517e-01 -1.434980e-01 1.022112e-01 5.022727e-01 1.101706e+00 1.975398e+00 3.217019e+00 4.960645e+00 7.300134e+00 1.035428e+01 1.007783e+01 -1.979828e+01 -8.130336e+00 1.248822e+01 -4.833844e+00 -1.769339e+00 -1.117647e+00 -1.379219e+00 -1.831314e+00 -2.121464e+00 -2.181719e+00 -2.046319e+00 -1.788639e+00 -1.473857e+00 -1.147364e+00 -8.326589e-01 -5.369314e-01 -2.573974e-01 
1.594917e-02 2.661639e-01 5.278215e-01 8.092033e-01 1.114274e+00 1.437845e+00 1.759089e+00 2.035809e+00 2.202117e+00 2.180329e+00 1.911617e+00 1.433182e+00 9.715544e-01 1.043624e+00 1.980072e+00 -1.138287e+01 1.213967e+01 1.652972e+01 -1.618269e+01 -1.319606e+01 -8.658422e+00 -5.737114e+00 -3.773507e+00 -2.424291e+00 -1.484621e+00 -8.325646e-01 -3.861381e-01 -9.313330e-02 7.950055e-02 1.573805e-01 1.609045e-01 1.127207e-01 3.601670e-02 -4.395097e-02 -1.020607e-01 -1.152790e-01 -6.144784e-02 7.842390e-02 3.276664e-01 7.151657e-01 1.287384e+00 2.116532e+00 3.299667e+00 4.983961e+00 7.280115e+00 1.047091e+01 1.588721e+01 -1.142882e+01 -1.614244e+01 5.969838e+00 1.595886e+00 4.822820e-01 -2.635583e-02 -7.884904e-01 -1.449602e+00 -1.839916e+00 -1.957152e+00 -1.863826e+00 -1.639439e+00 -1.353449e+00 -1.052619e+00 -7.620009e-01 -4.894757e-01 -2.327228e-01 
1.658327e-02 2.340867e-01 4.630238e-01 7.114579e-01 9.835928e-01 1.275246e+00 1.567816e+00 1.824025e+00 1.984259e+00 1.981962e+00 1.764811e+00 1.384145e+00 1.110566e+00 1.692130e+00 1.638173e+00 -6.142395e+00 1.255959e+01 1.055408e+01 -1.543554e+01 -1.097160e+01 -7.637368e+00 -5.217785e+00 -3.507405e+00 -2.309332e+00 -1.472933e+00 -8.884846e-01 -4.867844e-01 -2.170332e-01 -4.978745e-02 3.972953e-02 6.919781e-02 5.789112e-02 2.421399e-02 -1.200705e-02 -3.108317e-02 -1.464729e-02 5.607188e-02 1.979293e-01 4.336124e-01 7.902452e-01 1.313990e+00 2.070902e+00 3.158662e+00 4.717498e+00 6.899100e+00 1.007591e+01 1.476241e+01 -1.036451e+00 -1.515645e+01 -5.758069e-01 6.496330e+00 1.791466e+00 5.355246e-01 -4.355383e-01 -1.133907e+00 -1.534742e+00 -1.669799e+00 -1.607334e+00 -1.420298e+00 -1.174095e+00 -9.122598e-01 -6.589358e-01 -4.218074e-01 -1.990236e-01 
1.505255e-02 1.893262e-01 3.738418e-01 5.756818e-01 7.989264e-01 1.040674e+00 1.286321e+00 1.506409e+00 1.653191e+00 1.674604e+00 1.524342e+00 1.227888e+00 9.399671e-01 1.028908e+00 -1.193063e+00 -3.605060e+00 9.991837e+00 6.294148e+00 -1.059181e+01 -8.309946e+00 -6.018069e+00 -4.244863e+00 -2.921346e+00 -1.964493e+00 -1.286606e+00 -8.069146e-01 -4.754195e-01 -2.492041e-01 -1.047687e-01 -2.064825e-02 1.738162e-02 2.475519e-02 1.540627e-02 4.200762e-03 5.893395e-03 3.442027e-02 1.047907e-01 2.308748e-01 4.325957e-01 7.331335e-01 1.173200e+00 1.806930e+00 2.715521e+00 3.997269e+00 5.734225e+00 8.007799e+00 1.054259e+01 3.334584e+00 -1.209868e+01 -3.289287e+00 5.895975e+00 -4.907446e-01 -1.750151e-01 -5.295181e-01 -9.510520e-01 -1.231717e+00 -1.333160e+00 -1.284941e+00 -1.136677e+00 -9.396693e-01 -7.291989e-01 -5.256595e-01 -3.355055e-01 -1.573112e-01 
1.150502e-02 1.334403e-01 2.631359e-01 4.059301e-01 5.651008e-01 7.390372e-01 9.178809e-01 1.081823e+00 1.198183e+00 1.232792e+00 1.153102e+00 9.777287e-01 8.242125e-01 1.064877e+00 -1.613269e+00 -1.183188e+00 7.099621e+00 2.836843e+00 -6.246044e+00 -5.315446e+00 -4.046091e+00 -2.951897e+00 -2.078971e+00 -1.422764e+00 -9.487067e-01 -6.082664e-01 -3.717170e-01 -2.083598e-01 -1.023181e-01 -3.769938e-02 -4.615547e-03 7.829123e-03 9.041082e-03 9.042678e-03 1.776009e-02 4.465423e-02 1.002863e-01 1.945766e-01 3.423672e-01 5.605910e-01 8.792136e-01 1.335764e+00 1.983297e+00 2.871558e+00 4.000616e+00 5.244559e+00 6.070851e+00 3.135874e+00 -8.520000e+00 -2.072017e+00 4.292259e+00 -2.727535e+00 -1.017672e+00 -6.943045e-01 -7.748937e-01 -8.946576e-01 -9.419540e-01 -9.016122e-01 -7.960222e-01 -6.572911e-01 -5.093241e-01 -3.665086e-01 -2.333703e-01 -1.088688e-01 
6.208294e-03 6.898863e-02 1.359665e-01 2.100084e-01 2.929755e-01 3.841747e-01 4.787583e-01 5.668377e-01 6.322610e-01 6.587085e-01 6.321421e-01 5.695843e-01 5.626674e-01 9.274532e-01 -1.101707e+00 -7.774643e-01 3.418343e+00 1.303613e+00 -2.504785e+00 -2.464959e+00 -1.990436e+00 -1.498282e+00 -1.075069e+00 -7.453075e-01 -5.024739e-01 -3.261119e-01 -2.029104e-01 -1.172394e-01 -6.111276e-02 -2.613863e-02 -7.222036e-03 1.278355e-03 4.124294e-03 6.373016e-03 1.303358e-02 2.890147e-02 5.944895e-02 1.098584e-01 1.880444e-01 3.029205e-01 4.702115e-01 7.087756e-01 1.043552e+00 1.491967e+00 2.033409e+00 2.552043e+00 2.757498e+00 1.745100e+00 -4.847938e+00 -1.179261e+00 2.289931e+00 -2.302811e+00 -9.189245e-01 -5.155490e-01 -4.571640e-01 -4.803651e-01 -4.915708e-01 -4.664858e-01 -4.106799e-01 -3.386196e-01 -2.620671e-01 -1.883519e-01 -1.197507e-01 -5.570048e-02 
4.493688e-13 1.083129e-12 1.976087e-12 3.237856e-12 4.936710e-12 7.143702e-12 9.911570e-12 1.327535e-11 1.736361e-11 2.277450e-11 3.055637e-11 4.317957e-11 6.456150e-11 9.721330e-11 -4.486478e-11 -1.609085e-10 1.653054e-11 8.831545e-11 1.763782e-12 -2.870854e-11 -3.467429e-11 -3.312927e-11 -2.800394e-11 -2.177039e-11 -1.577094e-11 -1.082438e-11 -7.081393e-12 -4.443641e-12 -2.748288e-12 -1.764117e-12 -1.247370e-12 -1.063922e-12 -1.029998e-12 -9.956049e-13 -8.489329e-13 -4.549369e-13 3.167844e-13 1.652973e-12 3.737140e-12 6.908004e-12 1.174499e-11 1.882738e-11 2.889784e-11 4.209754e-11 5.638556e-11 6.124514e-11 1.126499e-11 -2.152683e-10 -1.734233e-10 1.917569e-10 -1.897005e-10 -4.366789e-10 -1.045976e-10 -2.226524e-11 -3.162363e-12 -5.003272e-14 -7.080083e-13 -1.602407e-12 -1.941929e-12 -1.823432e-12 -1.436438e-12 -9.517049e-13 -4.954423e-13 -5.955241e-14 
-6.208294e-03 -6.898863e-02 -1.359665e-01 -2.100084e-01 -2.929755e-01 -3.841747e-01 -4.787583e-01 -5.668377e-01 -6.322610e-01 -6.587085e-01 -6.321421e-01 -5.695843e-01 -5.626674e-01 -9.274532e-01 1.101707e+00 7.774643e-01 -3.418343e+00 -1.303613e+00 2.504785e+00 2.464959e+00 1.990436e+00 1.498282e+00 1.075069e+00 7.453075e-01 5.024739e-01 3.261119e-01 2.029104e-01 1.172394e-01 6.111276e-02 2.613863e-02 7.222036e-03 -1.278355e-03 -4.124294e-03 -6.373016e-03 -1.303358e-02 -2.890147e-02 -5.944895e-02 -1.098584e-01 -1.880444e-01 -3.029205e-01 -4.702115e-01 -7.087756e-01 -1.043552e+00 -1.491967e+00 -2.033409e+00 -2.552043e+00 -2.757498e+00 -1.745100e+00 4.847938e+00 1.179261e+00 -2.289931e+00 2.302811e+00 9.189245e-01 5.155490e-01 4.571640e-01 4.803651e-01 4.915708e-01 4.664858e-01 4.106799e-01 3.386196e-01 2.620671e-01 1.883519e-01 1.197507e-01 5.570048e-02 