# vtk DataFile Version 2.0
Comment goes here
ASCII

DATASET STRUCTURED_POINTS
FIELD FieldData 1
TIME 1 1 double
1.13000000
DIMENSIONS    64   64   1

ORIGIN    0.000   0.000   0.000
SPACING   0.015625 0.015625   1.000

POINT_DATA   4096
SCALARS Omega double
LOOKUP_TABLE default

-7.617546e-14 -7.137197e-14 -5.811382e-14 -3.196794e-14 -1.383197e-14 -7.367714e-15 3.000159e-14 8.157166e-14 1.269633e-13 2.123398e-13 3.472835e-13 4.968322e-13 7.077576e-13 1.020395e-12 1.404743e-12 1.868231e-12 2.406475e-12 3.037762e-12 3.760947e-12 4.527093e-12 5.271893e-12 6.002908e-12 6.527598e-12 6.912558e-12 7.072659e-12 6.928316e-12 6.462965e-12 5.714891e-12 4.552111e-12 3.150597e-12 1.508821e-12 -3.120935e-13 -2.225623e-12 -4.083432e-12 -5.766459e-12 -7.192507e-12 -8.235413e-12 -8.869603e-12 -9.038654e-12 -8.811896e-12 -8.231067e-12 -7.446150e-12 -6.540614e-12 -5.526130e-12 -4.534446e-12 -3.704491e-12 -2.959576e-12 -2.298717e-12 -1.751830e-12 -1.352235e-12 -1.037662e-12 -8.106685e-13 -6.347238e-13 -4.872187e-13 -3.720237e-13 -2.913450e-13 -2.543752e-13 -2.125512e-13 -1.837392e-13 -1.676944e-13 -1.392356e-13 -1.072217e-13 -1.070276e-13 -1.002599e-13 
-2.909528e-04 4.847185e-03 9.808000e-03 1.440586e-02 1.844354e-02 2.171225e-02 2.398037e-02 2.499792e-02 2.447969e-02 2.212429e-02 1.759061e-02 1.054284e-02 6.253997e-04 -1.245932e-02 -2.896619e-02 -4.900462e-02 -7.253102e-02 -9.925269e-02 -1.285919e-01 -1.596504e-01 -1.911531e-01 -2.215247e-01 -2.488388e-01 -2.710159e-01 -2.858263e-01 -2.911707e-01 -2.851951e-01 -2.665969e-01 -2.348527e-01 -1.904259e-01 -1.349602e-01 -7.115112e-02 -2.686379e-03 6.625277e-02 1.313703e-01 1.888044e-01 2.355460e-01 2.696146e-01 2.902682e-01 2.977618e-01 2.933385e-01 2.787979e-01 2.563979e-01 2.284606e-01 1.972716e-01 1.648537e-01 1.329043e-01 1.027400e-01 7.529096e-02 5.114124e-02 3.057188e-02 1.362558e-02 1.707955e-04 -1.004618e-02 -1.734405e-02 -2.207587e-02 -2.459494e-02 -2.523992e-02 -2.432564e-02 -2.213510e-02 -1.892783e-02 -1.493324e-02 -1.036655e-02 -5.422457e-03 
-5.823059e-04 9.720134e-03 1.966639e-02 2.888362e-02 3.697597e-02 4.352407e-02 4.806334e-02 5.009188e-02 4.903826e-02 4.429785e-02 3.518794e-02 2.103541e-02 1.129442e-03 -2.512601e-02 -5.823872e-02 -9.842598e-02 -1.455945e-01 -1.991522e-01 -2.579312e-01 -3.201246e-01 -3.831709e-01 -4.439209e-01 -4.985308e-01 -5.428725e-01 -5.725219e-01 -5.833173e-01 -5.715617e-01 -5.346265e-01 -4.713844e-01 -3.826585e-01 -2.716466e-01 -1.437056e-01 -6.252063e-03 1.322335e-01 2.630353e-01 3.783392e-01 4.721000e-01 5.403938e-01 5.817829e-01 5.968215e-01 5.879999e-01 5.589092e-01 5.140625e-01 4.581021e-01 3.956080e-01 3.306364e-01 2.665943e-01 2.061237e-01 1.510920e-01 1.026710e-01 6.142427e-02 2.743791e-02 4.480780e-04 -2.005225e-02 -3.470157e-02 -4.420555e-02 -4.927205e-02 -5.057843e-02 -4.875601e-02 -4.437154e-02 -3.794608e-02 -2.993959e-02 -2.078451e-02 -1.087149e-02 
-8.879941e-04 1.463647e-02 2.962301e-02 4.350828e-02 5.569479e-02 6.554940e-02 7.237167e-02 7.540550e-02 7.379084e-02 6.661979e-02 5.286665e-02 3.152441e-02 1.526543e-03 -3.801364e-02 -8.785502e-02 -1.483083e-01 -2.192212e-01 -2.996773e-01 -3.878972e-01 -4.811377e-01 -5.755342e-01 -6.663709e-01 -7.479266e-01 -8.141104e-01 -8.584196e-01 -8.747348e-01 -8.575706e-01 -8.029032e-01 -7.088572e-01 -5.764510e-01 -4.103014e-01 -2.183408e-01 -1.175061e-02 1.965989e-01 3.934315e-01 5.669006e-01 7.079249e-01 8.106404e-01 8.729714e-01 8.957793e-01 8.828087e-01 8.394052e-01 7.723033e-01 6.884430e-01 5.946940e-01 4.971605e-01 4.009697e-01 3.101093e-01 2.273939e-01 1.545927e-01 9.255864e-02 4.142340e-02 7.971624e-04 -3.008003e-02 -5.216016e-02 -6.650103e-02 -7.416073e-02 -7.615584e-02 -7.343314e-02 -6.684519e-02 -5.717624e-02 -4.511989e-02 -3.132865e-02 -1.639249e-02 
-1.195493e-03 1.965348e-02 3.977744e-02 5.841731e-02 7.476958e-02 8.798221e-02 9.711644e-02 1.011586e-01 9.896169e-02 8.931526e-02 7.085808e-02 4.225507e-02 2.097471e-03 -5.078201e-02 -1.173740e-01 -1.980662e-01 -2.926172e-01 -3.997571e-01 -5.170503e-01 -6.407859e-01 -7.657680e-01 -8.857496e-01 -9.932136e-01 -1.080310e+00 -1.138721e+00 -1.160672e+00 -1.139082e+00 -1.068508e+00 -9.459430e-01 -7.720382e-01 -5.523197e-01 -2.970046e-01 -2.111182e-02 2.576062e-01 5.208019e-01 7.523084e-01 9.400525e-01 1.076575e+00 1.159497e+00 1.190193e+00 1.173566e+00 1.116521e+00 1.027873e+00 9.167465e-01 7.922676e-01 6.625823e-01 5.345526e-01 4.135276e-01 3.032847e-01 2.062015e-01 1.234293e-01 5.515534e-02 8.713582e-04 -4.042231e-02 -6.998232e-02 -8.920507e-02 -9.949206e-02 -1.021900e-01 -9.855938e-02 -8.973580e-02 -7.676973e-02 -6.059019e-02 -4.207517e-02 -2.201791e-02 
-1.534383e-03 2.480279e-02 5.022084e-02 7.375749e-02 9.439720e-02 1.110638e-01 1.225776e-01 1.276686e-01 1.249072e-01 1.127934e-01 8.964372e-02 5.382084e-02 3.592269e-03 -6.245546e-02 -1.455272e-01 -2.460499e-01 -3.636747e-01 -4.967382e-01 -6.421257e-01 -7.951353e-01 -9.492476e-01 -1.096765e+00 -1.228543e+00 -1.335312e+00 -1.407418e+00 -1.435940e+00 -1.412529e+00 -1.329952e+00 -1.183153e+00 -9.714720e-01 -7.006301e-01 -3.827833e-01 -3.704259e-02 3.131536e-01 6.433976e-01 9.327691e-01 1.166320e+00 1.335360e+00 1.437814e+00 1.475890e+00 1.455718e+00 1.385572e+00 1.276133e+00 1.138578e+00 9.842149e-01 8.232133e-01 6.641342e-01 5.136759e-01 3.765520e-01 2.557315e-01 1.526568e-01 6.756415e-02 -1.565659e-04 -5.173453e-02 -8.870128e-02 -1.127727e-01 -1.256661e-01 -1.290428e-01 -1.244614e-01 -1.133347e-01 -9.697625e-02 -7.655305e-02 -5.317276e-02 -2.783840e-02 
-1.878102e-03 3.019832e-02 6.115096e-02 8.980473e-02 1.149254e-01 1.352068e-01 1.492307e-01 1.554757e-01 1.522484e-01 1.377806e-01 1.101043e-01 6.731349e-02 7.396934e-03 -7.127868e-02 -1.701040e-01 -2.895492e-01 -4.291666e-01 -5.869437e-01 -7.591341e-01 -9.401307e-01 -1.122171e+00 -1.296272e+00 -1.451852e+00 -1.578661e+00 -1.666344e+00 -1.705655e+00 -1.687476e+00 -1.602119e+00 -1.440054e+00 -1.196401e+00 -8.752624e-01 -4.900118e-01 -6.477270e-02 3.677145e-01 7.732150e-01 1.124217e+00 1.402814e+00 1.600792e+00 1.718542e+00 1.760584e+00 1.734337e+00 1.649141e+00 1.517489e+00 1.352547e+00 1.167861e+00 9.756149e-01 7.859884e-01 6.069012e-01 4.438598e-01 3.002943e-01 1.778357e-01 7.670954e-02 -3.829223e-03 -6.523118e-02 -1.092849e-01 -1.379849e-01 -1.533305e-01 -1.572579e-01 -1.516004e-01 -1.380262e-01 -1.181056e-01 -9.323910e-02 -6.476953e-02 -3.391530e-02 
-2.274758e-03 3.590639e-02 7.274686e-02 1.068474e-01 1.367485e-01 1.609118e-01 1.776878e-01 1.853225e-01 1.818893e-01 1.653985e-01 1.336460e-01 8.451811e-02 1.575553e-02 -7.446723e-02 -1.877752e-01 -3.247557e-01 -4.850501e-01 -6.665235e-01 -8.651254e-01 -1.074680e+00 -1.286491e+00 -1.490518e+00 -1.674798e+00 -1.828274e+00 -1.940325e+00 -2.002287e+00 -2.005057e+00 -1.934228e+00 -1.769957e+00 -1.497846e+00 -1.118415e+00 -6.459788e-01 -1.116233e-01 4.348664e-01 9.406321e-01 1.368389e+00 1.696938e+00 1.920549e+00 2.046252e+00 2.083348e+00 2.041427e+00 1.931551e+00 1.768629e+00 1.568610e+00 1.347719e+00 1.120367e+00 8.981556e-01 6.898717e-01 5.013632e-01 3.360927e-01 1.955447e-01 7.967344e-02 -1.253465e-02 -8.283347e-02 -1.332626e-01 -1.660735e-01 -1.834892e-01 -1.876722e-01 -1.806795e-01 -1.644021e-01 -1.406438e-01 -1.110305e-01 -7.713937e-02 -4.041116e-02 
-2.680574e-03 4.212144e-02 8.535057e-02 1.253716e-01 1.604954e-01 1.889539e-01 2.088873e-01 2.183400e-01 2.152099e-01 1.973460e-01 1.623849e-01 1.080483e-01 3.184994e-02 -6.831179e-02 -1.944697e-01 -3.476931e-01 -5.282351e-01 -7.345864e-01 -9.632665e-01 -1.208436e+00 -1.461110e+00 -1.710326e+00 -1.941964e+00 -2.143100e+00 -2.302046e+00 -2.411165e+00 -2.463821e+00 -2.440090e+00 -2.297135e+00 -1.996301e+00 -1.531528e+00 -9.166540e-01 -1.904674e-01 5.572069e-01 1.230044e+00 1.774764e+00 2.166069e+00 2.407971e+00 2.526556e+00 2.541203e+00 2.461742e+00 2.301813e+00 2.082051e+00 1.823592e+00 1.547164e+00 1.270317e+00 1.005943e+00 7.629911e-01 5.466418e-01 3.593864e-01 2.016873e-01 7.258328e-02 -2.966391e-02 -1.073566e-01 -1.629135e-01 -1.988511e-01 -2.175864e-01 -2.214366e-01 -2.126219e-01 -1.931951e-01 -1.651589e-01 -1.303389e-01 -9.054246e-02 -4.743386e-02 
-3.163651e-03 4.895876e-02 9.926137e-02 1.458631e-01 1.868466e-01 2.202281e-01 2.439732e-01 2.559812e-01 2.540490e-01 2.359504e-01 1.992213e-01 1.414402e-01 5.977710e-02 -4.839601e-02 -1.860776e-01 -3.556367e-01 -5.592230e-01 -7.975406e-01 -1.069624e+00 -1.371772e+00 -1.695872e+00 -2.029546e+00 -2.353462e+00 -2.648117e+00 -2.896101e+00 -3.088321e+00 -3.228688e+00 -3.304700e+00 -3.223714e+00 -2.884135e+00 -2.275259e+00 -1.407095e+00 -3.176117e-01 8.117100e-01 1.782337e+00 2.521639e+00 3.000882e+00 3.245272e+00 3.336990e+00 3.308634e+00 3.154319e+00 2.895427e+00 2.566169e+00 2.198655e+00 1.822500e+00 1.461217e+00 1.129498e+00 8.354874e-01 5.819483e-01 3.684116e-01 1.925755e-01 5.111779e-02 -5.940146e-02 -1.425091e-01 -2.013399e-01 -2.388468e-01 -2.576492e-01 -2.601772e-01 -2.487302e-01 -2.254494e-01 -1.924734e-01 -1.517896e-01 -1.054151e-01 -5.523554e-02 
-3.657044e-03 5.670529e-02 1.149876e-01 1.690585e-01 2.167840e-01 2.559925e-01 2.845348e-01 3.002406e-01 3.009077e-01 2.843061e-01 2.479078e-01 1.890245e-01 1.041770e-01 -1.048242e-02 -1.600173e-01 -3.498631e-01 -5.864372e-01 -8.757469e-01 -1.222733e+00 -1.628858e+00 -2.088131e+00 -2.583839e+00 -3.081769e+00 -3.541901e+00 -3.929497e+00 -4.217091e+00 -4.456436e+00 -4.744733e+00 -4.854104e+00 -4.467071e+00 -3.611002e+00 -2.298284e+00 -5.118833e-01 1.347801e+00 2.849383e+00 3.917564e+00 4.501006e+00 4.656365e+00 4.664911e+00 4.594910e+00 4.331535e+00 3.906714e+00 3.390538e+00 2.830879e+00 2.276065e+00 1.763677e+00 1.313377e+00 9.324196e-01 6.188825e-01 3.663078e-01 1.665339e-01 1.133194e-02 -1.064283e-01 -1.928061e-01 -2.525029e-01 -2.893245e-01 -3.062854e-01 -3.059277e-01 -2.905764e-01 -2.623602e-01 -2.234756e-01 -1.760044e-01 -1.221396e-01 -6.397064e-02 
-4.244398e-03 6.552051e-02 1.329395e-01 1.956375e-01 2.512918e-01 2.975943e-01 3.323653e-01 3.534667e-01 3.587961e-01 3.461665e-01 3.128816e-01 2.556563e-01 1.695828e-01 4.831475e-02 -1.174180e-01 -3.390402e-01 -6.312997e-01 -1.010191e+00 -1.491648e+00 -2.086056e+00 -2.789851e+00 -3.573328e+00 -4.362465e+00 -5.061338e+00 -5.612092e+00 -5.893472e+00 -6.021297e+00 -6.752392e+00 -7.509515e+00 -7.072116e+00 -5.821244e+00 -3.815775e+00 -7.835076e-01 2.361618e+00 4.738317e+00 6.367149e+00 7.040204e+00 6.709569e+00 6.504836e+00 6.555803e+00 6.176720e+00 5.522562e+00 4.752703e+00 3.899915e+00 3.055186e+00 2.288215e+00 1.633615e+00 1.101320e+00 6.838162e-01 3.649983e-01 1.265712e-01 -4.874271e-02 -1.749736e-01 -2.631490e-01 -3.210611e-01 -3.543284e-01 -3.668015e-01 -3.613145e-01 -3.401998e-01 -3.054951e-01 -2.593469e-01 -2.038465e-01 -1.412996e-01 -7.396795e-02 
-4.826263e-03 7.576296e-02 1.537472e-01 2.265322e-01 2.916556e-01 3.467500e-01 3.897162e-01 4.185565e-01 4.313510e-01 4.258840e-01 3.989985e-01 3.460382e-01 2.593273e-01 1.277290e-01 -6.545825e-02 -3.422145e-01 -7.310080e-01 -1.263957e+00 -1.973081e+00 -2.880181e+00 -3.980285e+00 -5.211882e+00 -6.404425e+00 -7.304087e+00 -7.888215e+00 -7.666858e+00 -6.673096e+00 -8.753991e+00 -1.191859e+01 -1.067156e+01 -7.612895e+00 -4.488857e+00 -7.476225e-01 2.638695e+00 6.094019e+00 9.870078e+00 1.135865e+01 9.108731e+00 8.044492e+00 8.934524e+00 8.541874e+00 7.699668e+00 6.753963e+00 5.546980e+00 4.306174e+00 3.164309e+00 2.190841e+00 1.412219e+00 8.202079e-01 3.879714e-01 8.253499e-02 -1.275006e-01 -2.678660e-01 -3.581834e-01 -4.119992e-01 -4.383660e-01 -4.429440e-01 -4.292645e-01 -3.998090e-01 -3.564636e-01 -3.012248e-01 -2.360716e-01 -1.633352e-01 -8.538844e-02 
-5.485229e-03 8.759323e-02 1.778352e-01 2.624773e-01 3.389979e-01 4.050791e-01 4.588369e-01 4.985192e-01 5.223951e-01 5.279814e-01 5.109811e-01 4.640596e-01 3.744865e-01 2.230692e-01 -1.896912e-02 -3.895056e-01 -9.365774e-01 -1.712577e+00 -2.766226e+00 -4.125055e+00 -5.773007e+00 -7.602973e+00 -9.282788e+00 -1.009863e+01 -1.073414e+01 -1.021747e+01 -5.633150e+00 2.443344e+00 1.097494e+01 1.477937e+01 1.256179e+01 7.327380e+00 1.127809e+00 -5.154306e+00 -1.122397e+01 -1.524644e+01 -1.311720e+01 -4.569725e+00 7.027586e+00 1.287127e+01 1.111969e+01 9.926063e+00 9.253033e+00 7.700620e+00 6.054530e+00 4.472314e+00 3.076750e+00 1.943255e+00 1.084359e+00 4.701980e-01 5.272305e-02 -2.181579e-01 -3.851590e-01 -4.814924e-01 -5.301497e-01 -5.462806e-01 -5.389175e-01 -5.131637e-01 -4.719807e-01 -4.171648e-01 -3.504635e-01 -2.736158e-01 -1.888501e-01 -9.856209e-02 
-6.078602e-03 1.013606e-01 2.057897e-01 3.043618e-01 3.946078e-01 4.744012e-01 5.422157e-01 5.966090e-01 6.359202e-01 6.568614e-01 6.528757e-01 6.118763e-01 5.130367e-01 3.248261e-01 1.675859e-03 -5.148701e-01 -1.293778e+00 -2.403292e+00 -3.891678e+00 -5.762024e+00 -7.966977e+00 -1.042962e+01 -1.286665e+01 -1.228385e+01 -5.254667e+00 1.115638e+01 2.031141e+01 1.534990e+01 9.970395e+00 3.604566e+00 -6.249717e-01 -3.616566e-01 1.745445e-01 8.912592e-01 1.354288e+00 -2.346156e+00 -9.525484e+00 -1.615026e+01 -2.124297e+01 -1.343478e+01 2.514321e+00 1.080667e+01 1.181512e+01 9.711082e+00 7.955646e+00 6.088379e+00 4.284386e+00 2.733707e+00 1.522804e+00 6.488623e-01 6.055935e-02 -3.091382e-01 -5.236763e-01 -6.347078e-01 -6.793886e-01 -6.824339e-01 -6.586941e-01 -6.161884e-01 -5.590640e-01 -4.892133e-01 -4.081084e-01 -3.170969e-01 -2.181501e-01 -1.135525e-01 
-6.656163e-03 1.171287e-01 2.378255e-01 3.526296e-01 4.592804e-01 5.560116e-01 6.418013e-01 7.155071e-01 7.752388e-01 8.160184e-01 8.273479e-01 7.897010e-01 6.704286e-01 4.217179e-01 -2.189027e-02 -7.377942e-01 -1.805036e+00 -3.278875e+00 -5.150065e+00 -7.305126e+00 -9.586326e+00 -1.242080e+01 -8.012137e+00 7.039620e+00 1.844576e+01 1.452852e+01 -2.222238e+00 -1.398979e+01 -1.577495e+01 -1.591382e+01 -1.361179e+01 -7.868797e+00 -1.240595e+00 5.393088e+00 1.166078e+01 1.568248e+01 1.492412e+01 1.306999e+01 1.055282e+00 -1.475775e+01 -1.884076e+01 -1.045176e+01 4.704231e+00 1.016696e+01 8.930205e+00 7.450416e+00 5.559510e+00 3.698949e+00 2.128725e+00 9.426961e-01 1.264163e-01 -3.868995e-01 -6.772862e-01 -8.172581e-01 -8.621992e-01 -8.505240e-01 -8.059381e-01 -7.414094e-01 -6.633393e-01 -5.741739e-01 -4.751528e-01 -3.671122e-01 -2.515698e-01 -1.305289e-01 
-7.029117e-03 1.350789e-01 2.741662e-01 4.076484e-01 5.336614e-01 6.509978e-01 7.592469e-01 8.574569e-01 9.429576e-01 1.007816e+00 1.035465e+00 9.958832e-01 8.414287e-01 5.060933e-01 -9.179769e-02 -1.034075e+00 -2.372357e+00 -4.078777e+00 -5.966388e+00 -7.607295e+00 -8.622443e+00 -3.752295e+00 1.138535e+01 1.580608e+01 1.102138e+00 -1.705837e+01 -2.204192e+01 -1.290560e+01 -2.385287e+00 5.175242e+00 6.339820e+00 3.559441e+00 5.229705e-02 -3.336364e+00 -6.916874e+00 -6.809001e+00 -3.663974e-01 1.151993e+01 2.126606e+01 1.725676e+01 2.279800e+00 -1.353691e+01 -1.310464e+01 6.009606e-01 7.312824e+00 7.379234e+00 6.224031e+00 4.513405e+00 2.773634e+00 1.316026e+00 2.497820e-01 -4.432679e-01 -8.394723e-01 -1.026328e+00 -1.078830e+00 -1.052325e+00 -9.828321e-01 -8.906785e-01 -7.860853e-01 -6.727381e-01 -5.518461e-01 -4.236302e-01 -2.889447e-01 -1.492903e-01 
-7.178772e-03 1.550255e-01 3.144725e-01 4.690207e-01 6.174346e-01 7.592638e-01 8.947904e-01 1.022987e+00 1.139663e+00 1.232319e+00 1.276073e+00 1.227736e+00 1.023373e+00 5.822959e-01 -1.787418e-01 -1.308455e+00 -2.756437e+00 -4.287602e+00 -5.372943e+00 -5.467708e+00 -1.315445e+00 8.552316e+00 8.320698e+00 -8.857376e+00 -2.035437e+01 -1.184303e+01 7.745138e+00 1.514653e+01 1.029721e+01 7.508495e+00 5.252147e+00 2.843126e+00 1.153975e-01 -2.645475e+00 -5.228833e+00 -7.348958e+00 -9.397176e+00 -1.298596e+01 -7.750641e+00 6.919178e+00 1.767016e+01 1.165912e+01 -5.664043e+00 -9.124027e+00 5.797020e-01 5.576784e+00 5.095877e+00 4.538658e+00 3.153256e+00 1.644054e+00 3.907907e-01 -4.844684e-01 -1.006722e+00 -1.258136e+00 -1.327444e+00 -1.287719e+00 -1.190011e+00 -1.064695e+00 -9.276773e-01 -7.849084e-01 -6.379077e-01 -4.862552e-01 -3.299111e-01 -1.696176e-01 
-6.894781e-03 1.767608e-01 3.581779e-01 5.359320e-01 7.096609e-01 8.798813e-01 1.047543e+00 1.211166e+00 1.364009e+00 1.487317e+00 1.545753e+00 1.481618e+00 1.216753e+00 6.663615e-01 -2.256629e-01 -1.415010e+00 -2.635732e+00 -3.265214e+00 -3.036521e+00 -1.594953e+00 2.673573e+00 2.335571e+00 -8.586059e+00 -1.097484e+01 -8.563743e-01 6.079664e+00 9.254540e+00 1.009628e+01 8.660598e+00 6.781670e+00 4.699159e+00 2.476821e+00 1.627736e-01 -2.152810e+00 -4.359962e+00 -6.299557e+00 -7.866056e+00 -8.786314e+00 -7.951762e+00 -7.028156e+00 -2.113131e+00 8.763749e+00 9.788052e+00 -1.869849e+00 -3.199296e+00 2.663522e+00 2.773826e+00 2.920024e+00 2.799099e+00 1.698368e+00 4.557543e-01 -5.393946e-01 -1.182414e+00 -1.508446e+00 -1.603314e+00 -1.553132e+00 -1.425019e+00 -1.261567e+00 -1.086437e+00 -9.090640e-01 -7.318064e-01 -5.536469e-01 -3.734361e-01 -1.908690e-01 
-6.085705e-03 1.996753e-01 4.040178e-01 6.065335e-01 8.079937e-01 1.010037e+00 1.214196e+00 1.417938e+00 1.610913e+00 1.766268e+00 1.837017e+00 1.751105e+00 1.422452e+00 7.788254e-01 -1.725317e-01 -1.225348e+00 -1.787518e+00 -7.730542e-01 1.382640e-01 -2.854169e+00 -3.301000e+00 -3.808115e+00 -5.904478e+00 -2.158042e-01 5.035518e+00 5.737671e+00 6.685793e+00 7.180046e+00 6.702307e+00 5.557118e+00 3.974711e+00 2.139614e+00 1.915715e-01 -1.752165e+00 -3.566791e+00 -5.087990e+00 -6.134093e+00 -6.518785e+00 -6.118032e+00 -5.437123e+00 -4.594510e+00 -1.323770e+00 4.414041e+00 3.802952e+00 1.600888e-01 3.639307e+00 3.427154e+00 3.789546e-01 1.264039e+00 1.217246e+00 3.235639e-01 -6.512067e-01 -1.374147e+00 -1.772252e+00 -1.898699e+00 -1.841586e+00 -1.682263e+00 -1.476837e+00 -1.258670e+00 -1.042070e+00 -8.309086e-01 -6.237147e-01 -4.180436e-01 -2.122450e-01 
-4.592404e-03 2.229590e-01 4.502555e-01 6.782173e-01 9.089774e-01 1.145412e+00 1.389364e+00 1.636554e+00 1.871636e+00 2.058120e+00 2.136406e+00 2.022505e+00 1.630895e+00 9.226384e-01 5.481248e-03 -6.899428e-01 -2.214379e-01 1.511492e+00 -6.340870e+00 -9.124394e+00 9.754654e-02 4.293091e-01 -2.574033e+00 -3.878427e-01 2.725644e+00 4.098363e+00 4.939893e+00 5.294713e+00 5.057490e+00 4.295164e+00 3.135280e+00 1.722087e+00 1.902232e-01 -1.340425e+00 -2.747851e+00 -3.894880e+00 -4.649327e+00 -4.918141e+00 -4.695051e+00 -4.123948e+00 -3.159486e+00 -1.199083e+00 9.922537e-01 1.852131e+00 -2.631878e+00 4.708633e+00 9.936304e+00 7.114647e-02 -1.486393e+00 9.803843e-02 -6.936662e-02 -8.460374e-01 -1.583626e+00 -2.039797e+00 -2.200756e+00 -2.140861e+00 -1.951412e+00 -1.702141e+00 -1.437657e+00 -1.178560e+00 -9.309904e-01 -6.932860e-01 -4.615742e-01 -2.325918e-01 
-2.326967e-03 2.454453e-01 4.944792e-01 7.473095e-01 1.007606e+00 1.279482e+00 1.564688e+00 1.856231e+00 2.132429e+00 2.345334e+00 2.423123e+00 2.272527e+00 1.821310e+00 1.086181e+00 3.196879e-01 2.939410e-01 2.981934e+00 -5.340419e+00 -1.437333e+01 2.246323e-01 7.407178e+00 -1.218863e+00 -2.929676e+00 -1.957124e-01 1.781976e+00 2.918900e+00 3.570954e+00 3.833985e+00 3.698429e+00 3.184577e+00 2.359899e+00 1.320803e+00 1.730301e-01 -9.767211e-01 -2.021842e+00 -2.858501e+00 -3.398247e+00 -3.594414e+00 -3.455503e+00 -3.023944e+00 -2.234466e+00 -7.753623e-01 1.840554e+00 3.725954e+00 -4.071312e+00 -5.316206e+00 1.254780e+01 9.856085e+00 -2.801761e+00 -1.021856e+00 -5.602835e-01 -1.072260e+00 -1.783235e+00 -2.288348e+00 -2.488739e+00 -2.432623e+00 -2.217183e+00 -1.925151e+00 -1.613705e+00 -1.311017e+00 -1.026367e+00 -7.582423e-01 -5.013298e-01 -2.505384e-01 
7.004085e-04 2.656421e-01 5.337005e-01 8.092427e-01 1.097572e+00 1.403920e+00 1.729348e+00 2.063052e+00 2.375236e+00 2.604735e+00 2.666883e+00 2.462781e+00 1.944222e+00 1.207994e+00 6.974217e-01 1.662094e+00 9.075732e-02 -1.703842e+01 -5.415762e+00 1.178388e+01 -9.388570e-01 -4.427517e+00 -2.304198e+00 -3.281394e-01 1.069485e+00 1.940895e+00 2.455397e+00 2.676027e+00 2.614075e+00 2.279793e+00 1.711872e+00 9.745547e-01 1.475990e-01 -6.830264e-01 -1.431646e+00 -2.020935e+00 -2.391225e+00 -2.514627e+00 -2.394214e+00 -2.039388e+00 -1.399013e+00 -2.690549e-01 1.716427e+00 4.783652e+00 2.722624e+00 -1.226996e+01 -1.204675e+00 1.860552e+01 6.263894e+00 -2.143227e+00 -1.105626e+00 -1.278989e+00 -1.935395e+00 -2.485906e+00 -2.734036e+00 -2.692074e+00 -2.458759e+00 -2.129281e+00 -1.773935e+00 -1.429765e+00 -1.109949e+00 -8.136410e-01 -5.341828e-01 -2.645802e-01 
4.400365e-03 2.818211e-01 5.644845e-01 8.587161e-01 1.171434e+00 1.508791e+00 1.870427e+00 2.240633e+00 2.579577e+00 2.810673e+00 2.835137e+00 2.546642e+00 1.928900e+00 1.141646e+00 6.984605e-01 3.592550e+00 -1.206962e+01 -1.609644e+01 1.148956e+01 7.103757e+00 -7.811593e+00 -4.505103e+00 -2.286979e+00 -6.951108e-01 3.929343e-01 1.101208e+00 1.540698e+00 1.757973e+00 1.764368e+00 1.568421e+00 1.195890e+00 6.929805e-01 1.192386e-01 -4.587860e-01 -9.747141e-01 -1.370819e+00 -1.603208e+00 -1.651181e+00 -1.513165e+00 -1.188687e+00 -6.400895e-01 2.613561e-01 1.730165e+00 3.891513e+00 6.243391e+00 -2.004589e+00 -1.551155e+01 8.402603e+00 1.853286e+01 -1.059881e+00 -1.759963e+00 -1.434918e+00 -1.993474e+00 -2.587773e+00 -2.899254e+00 -2.887603e+00 -2.650424e+00 -2.294162e+00 -1.902838e+00 -1.523332e+00 -1.173564e+00 -8.539207e-01 -5.567150e-01 -2.731283e-01 
8.483684e-03 2.919965e-01 5.830257e-01 8.898308e-01 1.220859e+00 1.582924e+00 1.973674e+00 2.371598e+00 2.725052e+00 2.938861e+00 2.895146e+00 2.468584e+00 1.684112e+00 8.277691e-01 7.909710e-01 2.899341e-01 -1.967853e+01 -1.200134e+00 1.800084e+01 -3.779134e+00 -6.784781e+00 -4.400341e+00 -2.500599e+00 -1.152664e+00 -2.231171e-01 4.059059e-01 8.188310e-01 1.051474e+00 1.117646e+00 1.027607e+00 8.016827e-01 4.747349e-01 9.209158e-02 -2.949147e-01 -6.348330e-01 -8.834198e-01 -1.006674e+00 -9.865963e-01 -8.166465e-01 -4.900406e-01 2.150788e-02 8.020587e-01 1.993946e+00 3.755055e+00 6.290485e+00 8.232314e+00 -1.269978e+01 -8.010286e+00 1.782449e+01 7.464907e+00 -1.303613e+00 -1.136976e+00 -1.824320e+00 -2.534672e+00 -2.942807e+00 -2.986014e+00 -2.764573e+00 -2.397988e+00 -1.983770e+00 -1.579606e+00 -1.208743e+00 -8.734926e-01 -5.656120e-01 -2.747650e-01 
1.250462e-02 2.941067e-01 5.854540e-01 8.965608e-01 1.237236e+00 1.614841e+00 2.024830e+00 2.440303e+00 2.796683e+00 2.980090e+00 2.840949e+00 2.213667e+00 1.092495e+00 -2.545349e-01 -1.147012e+00 -1.329122e+01 -1.421112e+01 1.428779e+01 9.528668e+00 -1.046151e+01 -7.091921e+00 -4.648272e+00 -2.863062e+00 -1.612839e+00 -7.425455e-01 -1.392236e-01 2.726545e-01 5.274119e-01 6.420810e-01 6.302611e-01 5.104664e-01 3.113251e-01 6.827067e-02 -1.787975e-01 -3.897219e-01 -5.297215e-01 -5.704788e-01 -4.946143e-01 -2.911137e-01 5.142470e-02 5.591233e-01 1.295517e+00 2.368206e+00 3.938104e+00 6.294301e+00 1.015047e+01 3.841902e-01 -1.685673e+01 8.523297e+00 1.765147e+01 -1.991711e+00 -4.446508e-01 -1.413478e+00 -2.307168e+00 -2.836457e+00 -2.959827e+00 -2.776231e+00 -2.420170e+00 -2.000797e+00 -1.586947e+00 -1.207464e+00 -8.671801e-01 -5.579152e-01 -2.683324e-01 
1.592659e-02 2.862335e-01 5.681700e-01 8.731258e-01 1.212028e+00 1.592818e+00 2.009459e+00 2.431773e+00 2.785195e+00 2.944373e+00 2.727931e+00 1.936219e+00 4.521638e-01 -1.622261e+00 -2.497146e+00 -2.051165e+01 -2.078914e-01 1.773815e+01 -8.311491e+00 -1.184265e+01 -7.601898e+00 -4.958815e+00 -3.180023e+00 -1.964008e+00 -1.117246e+00 -5.233052e-01 -1.100939e-01 1.601060e-01 3.075423e-01 3.493345e-01 3.032009e-01 1.936114e-01 4.896973e-02 -9.918829e-02 -2.189957e-01 -2.824199e-01 -2.650840e-01 -1.498559e-01 7.812660e-02 4.344513e-01 9.480657e-01 1.674931e+00 2.712296e+00 4.224546e+00 6.497335e+00 1.016435e+01 1.083487e+01 -1.826812e+01 -4.097898e+00 1.902018e+01 8.581929e-01 1.023277e+00 -6.417038e-01 -1.862555e+00 -2.560023e+00 -2.792252e+00 -2.669566e+00 -2.345990e+00 -1.941787e+00 -1.536166e+00 -1.163365e+00 -8.309326e-01 -5.313934e-01 -2.530555e-01 
1.801672e-02 2.666314e-01 5.280734e-01 8.144606e-01 1.137486e+00 1.505716e+00 1.913187e+00 2.330088e+00 2.679836e+00 2.840760e+00 2.626460e+00 1.850581e+00 3.024784e-01 -2.096169e+00 -3.878265e+00 -1.674707e+01 8.553171e+00 1.347216e+01 -1.719862e+01 -1.227543e+01 -7.682199e+00 -5.023571e+00 -3.298754e+00 -2.130235e+00 -1.319403e+00 -7.467600e-01 -3.453242e-01 -7.411565e-02 8.836209e-02 1.616011e-01 1.623909e-01 1.121475e-01 3.390007e-02 -4.724374e-02 -1.058588e-01 -1.191488e-01 -6.583004e-02 7.068034e-02 3.076138e-01 6.633672e-01 1.170209e+00 1.882074e+00 2.893935e+00 4.363407e+00 6.522937e+00 9.778160e+00 1.432455e+01 -9.057678e+00 -1.298484e+01 1.099752e+01 9.037117e+00 3.130450e+00 3.479617e-01 -1.263875e+00 -2.148711e+00 -2.495437e+00 -2.445477e+00 -2.170063e+00 -1.800214e+00 -1.421664e+00 -1.072484e+00 -7.623587e-01 -4.849008e-01 -2.287835e-01 
1.834612e-02 2.344968e-01 4.635603e-01 7.174977e-01 1.008016e+00 1.344149e+00 1.721456e+00 2.114314e+00 2.453736e+00 2.636347e+00 2.510711e+00 1.964197e+00 8.864377e-01 -6.044498e-01 -5.128443e+00 -1.020148e+01 9.427368e+00 8.122645e+00 -1.290877e+01 -9.598408e+00 -6.676130e+00 -4.573574e+00 -3.096986e+00 -2.061669e+00 -1.334696e+00 -8.154713e-01 -4.496015e-01 -1.972993e-01 -3.848035e-02 4.660703e-02 7.296848e-02 5.891482e-02 2.282845e-02 -1.552954e-02 -3.614078e-02 -2.071840e-02 4.883806e-02 1.877694e-01 4.136516e-01 7.458510e-01 1.217190e+00 1.879327e+00 2.822209e+00 4.196200e+00 6.229355e+00 9.364036e+00 1.406391e+01 2.769256e+00 -1.367937e+01 2.732872e+00 1.398724e+01 3.833400e+00 7.868983e-01 -7.956900e-01 -1.725574e+00 -2.120140e+00 -2.123340e+00 -1.897540e+00 -1.576263e+00 -1.242361e+00 -9.339150e-01 -6.609998e-01 -4.183754e-01 -1.957028e-01 
1.641183e-02 1.896519e-01 3.745061e-01 5.815814e-01 8.215641e-01 1.103098e+00 1.424065e+00 1.765036e+00 2.071618e+00 2.263787e+00 2.239329e+00 1.946715e+00 1.347621e+00 2.150058e-01 -6.744109e+00 -6.340997e+00 8.086263e+00 3.173474e+00 -8.969749e+00 -7.130167e+00 -5.255117e+00 -3.741092e+00 -2.599063e+00 -1.769974e+00 -1.176294e+00 -7.471360e-01 -4.428856e-01 -2.303336e-01 -9.274299e-02 -1.268253e-02 2.221466e-02 2.662604e-02 1.453304e-02 7.775523e-04 3.984216e-04 2.733972e-02 9.604419e-02 2.193376e-01 4.128624e-01 6.943481e-01 1.092664e+00 1.652283e+00 2.445831e+00 3.592888e+00 5.256767e+00 7.686147e+00 1.088553e+01 6.831146e+00 -1.173308e+01 -6.971334e-01 1.203998e+01 7.148156e-01 1.193746e-01 -6.732220e-01 -1.382324e+00 -1.706743e+00 -1.718839e+00 -1.535509e+00 -1.273637e+00 -1.000904e+00 -7.498070e-01 -5.286729e-01 -3.332351e-01 -1.547814e-01 
1.242992e-02 1.336824e-01 2.637494e-01 4.106576e-01 5.826395e-01 7.867175e-01 1.022486e+00 1.277451e+00 1.514600e+00 1.679086e+00 1.712028e+00 1.602221e+00 1.389720e+00 8.308513e-01 -6.021158e+00 -3.404784e+00 6.397223e+00 7.037735e-01 -5.544069e+00 -4.724325e+00 -3.620370e+00 -2.639314e+00 -1.865809e+00 -1.289883e+00 -8.710930e-01 -5.650524e-01 -3.470416e-01 -1.933567e-01 -9.231454e-02 -3.089451e-02 -3.477082e-04 9.673176e-03 8.625342e-03 6.500748e-03 1.340664e-02 3.883230e-02 9.289708e-02 1.849358e-01 3.265978e-01 5.314385e-01 8.202909e-01 1.225065e+00 1.791627e+00 2.592915e+00 3.703468e+00 5.187540e+00 6.836510e+00 5.969791e+00 -8.484660e+00 -4.631928e-01 7.909098e+00 -2.646418e+00 -7.382537e-01 -6.847096e-01 -1.051039e+00 -1.236104e+00 -1.228710e+00 -1.089102e+00 -8.993981e-01 -7.041304e-01 -5.257220e-01 -3.694644e-01 -2.320938e-01 -1.071885e-01 
6.666567e-03 6.910936e-02 1.363218e-01 2.126304e-01 3.025588e-01 4.100613e-01 5.353984e-01 6.725622e-01 8.030232e-01 8.989785e-01 9.361105e-01 9.272393e-01 9.646640e-01 1.096041e+00 -3.289208e+00 -1.872250e+00 3.321620e+00 1.626250e-01 -2.407593e+00 -2.297627e+00 -1.831993e+00 -1.359862e+00 -9.727702e-01 -6.791354e-01 -4.627843e-01 -3.035870e-01 -1.896576e-01 -1.089781e-01 -5.547279e-02 -2.225813e-02 -4.760160e-03 2.368638e-03 3.926761e-03 4.952248e-03 1.054368e-02 2.551797e-02 5.509982e-02 1.042104e-01 1.790405e-01 2.869111e-01 4.385395e-01 6.503463e-01 9.429494e-01 1.348544e+00 1.888887e+00 2.570351e+00 3.295277e+00 3.203530e+00 -5.050689e+00 -3.637257e-01 4.288701e+00 -2.182282e+00 -6.578489e-01 -4.555420e-01 -5.904339e-01 -6.616061e-01 -6.463927e-01 -5.677158e-01 -4.666454e-01 -3.641303e-01 -2.711958e-01 -1.901692e-01 -1.192096e-01 -5.487472e-02 
3.748437e-13 8.832238e-13 1.666672e-12 2.900870e-12 4.740457e-12 7.335354e-12 1.080322e-11 1.519697e-11 2.057979e-11 2.721074e-11 3.601688e-11 4.932159e-11 7.366855e-11 1.186174e-10 -5.771789e-11 -1.656993e-10 -1.745260e-11 1.383509e-11 -2.195745e-11 -3.769536e-11 -3.758954e-11 -3.226161e-11 -2.519088e-11 -1.842156e-11 -1.281772e-11 -8.632315e-12 -5.604208e-12 -3.558357e-12 -2.239519e-12 -1.480225e-12 -1.078979e-12 -9.244814e-13 -9.099151e-13 -8.966266e-13 -7.644754e-13 -4.467734e-13 1.803232e-13 1.235780e-12 2.853863e-12 5.259009e-12 8.969524e-12 1.465072e-11 2.315638e-11 3.543533e-11 5.156423e-11 6.861008e-11 6.782580e-11 -5.723297e-11 -6.447409e-11 1.219596e-10 -2.861152e-10 -4.757578e-10 -1.174512e-10 -2.485920e-11 -6.204468e-12 -3.440836e-12 -3.703999e-12 -3.540917e-12 -2.989638e-12 -2.229928e-12 -1.469953e-12 -8.530596e-13 -3.948351e-13 -1.680956e-14 
-6.666567e-03 -6.910936e-02 -1.363218e-01 -2.126304e-01 -3.025588e-01 -4.100613e-01 -5.353984e-01 -6.725622e-01 -8.030232e-01 -8.989785e-01 -9.361105e-01 -9.272393e-01 -9.646640e-01 -1.096041e+00 3.289208e+00 1.872250e+00 -3.321620e+00 -1.626250e-01 2.407593e+00 2.297627e+00 1.831993e+00 1.359862e+00 9.727702e-01 6.791354e-01 4.627843e-01 3.035870e-01 1.896576e-01 1.089781e-01 5.547279e-02 2.225813e-02 4.760160e-03 -2.368638e-03 -3.926761e-03 -4.952248e-03 -1.054368e-02 -2.551797e-02 -5.509982e-02 -1.042104e-01 -1.790405e-01 -2.869111e-01 -4.385395e-01 -6.503463e-01 -9.429494e-01 -1.348544e+00 -1.888887e+00 -2.570351e+00 -3.295277e+00 -3.203530e+00 5.050689e+00 3.637257e-01 -4.288701e+00 2.182282e+00 6.578489e-01 4.555420e-01 5.904339e-01 6.616061e-01 6.463927e-01 5.677158e-01 4.666454e-01 3.641303e-01 2.711958e-01 1.901692e-01 1.192096e-01 5.487472e-02 