# vtk DataFile Version 2.0
Comment goes here
ASCII

DATASET STRUCTURED_POINTS
FIELD FieldData 1
TIME 1 1 double
0.11000000
DIMENSIONS    64   64   1

ORIGIN    0.000   0.000   0.000
SPACING   0.015625 0.015625   1.000

POINT_DATA   4096
SCALARS Omega double
LOOKUP_TABLE default

2.704507e-14 3.096772e-14 7.323144e-14 1.083521e-13 1.352056e-13 9.133781e-14 3.772896e-14 1.062985e-13 -5.591169e-14 -9.930728e-14 -9.947055e-15 1.633791e-14 1.795789e-14 -1.448163e-13 -3.303148e-14 -2.052846e-13 -8.446947e-14 7.201555e-14 5.312521e-14 2.705292e-15 2.244971e-13 2.496636e-13 2.233474e-13 5.142131e-14 1.217766e-13 8.080720e-14 3.578542e-14 -7.812413e-14 -6.201154e-14 -1.022361e-13 -8.675259e-14 -8.519848e-14 -8.591294e-14 -8.312555e-14 -8.352455e-14 -8.428898e-14 -1.193619e-13 -8.688485e-14 1.933585e-14 3.971722e-14 1.281530e-13 1.505025e-13 2.010181e-13 8.934731e-14 7.019438e-14 -4.798895e-14 -3.750901e-14 3.868410e-14 1.028347e-13 -2.574889e-14 -2.732705e-13 -3.087825e-13 -3.133305e-13 -1.560904e-13 -2.269903e-14 5.727923e-14 2.833411e-14 3.968513e-14 1.411949e-13 1.770548e-13 9.770163e-14 3.551857e-14 6.678700e-14 3.110116e-14 
-1.749070e-08 -2.014020e-06 -4.006163e-06 -5.965834e-06 -7.704373e-06 -9.397759e-06 -1.077450e-05 -1.190688e-05 -1.278179e-05 -1.302738e-05 -1.305905e-05 -1.190970e-05 -9.713646e-06 -4.624558e-06 7.053788e-06 3.206360e-05 9.129756e-05 2.192200e-04 5.005548e-04 1.081468e-03 2.244187e-03 4.446046e-03 8.368262e-03 1.483470e-02 2.445912e-02 3.703796e-02 5.076362e-02 6.215553e-02 6.698028e-02 6.228085e-02 4.776546e-02 2.580306e-02 1.177620e-05 -2.577977e-02 -4.774581e-02 -6.226655e-02 -6.697407e-02 -6.215423e-02 -5.076583e-02 -3.703726e-02 -2.445938e-02 -1.483146e-02 -8.368287e-03 -4.443559e-03 -2.244839e-03 -1.080150e-03 -5.011482e-04 -2.186475e-04 -9.162819e-05 -3.188931e-05 -7.180021e-06 4.615021e-06 9.694480e-06 1.184962e-05 1.307387e-05 1.298862e-05 1.279155e-05 1.191335e-05 1.076695e-05 9.445210e-06 7.681439e-06 6.039908e-06 3.974085e-06 2.100340e-06 
-9.679122e-08 -4.012068e-06 -7.865383e-06 -1.188956e-05 -1.518618e-05 -1.903126e-05 -2.157148e-05 -2.484490e-05 -2.639514e-05 -2.849877e-05 -2.830269e-05 -2.740964e-05 -2.097233e-05 -6.660754e-06 3.220678e-05 1.185982e-04 3.213758e-04 7.542185e-04 1.669678e-03 3.489141e-03 6.969539e-03 1.326431e-02 2.397901e-02 4.089231e-02 6.508204e-02 9.553007e-02 1.274819e-01 1.525658e-01 1.612219e-01 1.474223e-01 1.115455e-01 5.970891e-02 2.818428e-05 -5.965420e-02 -1.115016e-01 -1.473924e-01 -1.612096e-01 -1.525630e-01 -1.274841e-01 -9.552498e-02 -6.507854e-02 -4.088251e-02 -2.397705e-02 -1.325814e-02 -6.970432e-03 -3.486398e-03 -1.670838e-03 -7.531536e-04 -3.219803e-04 -1.182500e-04 -3.233816e-05 6.708356e-06 2.105323e-05 2.736330e-05 2.839715e-05 2.846138e-05 2.641004e-05 2.485083e-05 2.149391e-05 1.907766e-05 1.504071e-05 1.196161e-05 7.683000e-06 4.095544e-06 
-5.176114e-08 -6.169450e-06 -1.228391e-05 -1.839987e-05 -2.387329e-05 -2.939894e-05 -3.402921e-05 -3.809802e-05 -4.147267e-05 -4.258133e-05 -4.229952e-05 -3.459016e-05 -1.543202e-05 3.589046e-05 1.585660e-04 4.372356e-04 1.056193e-03 2.343047e-03 4.934439e-03 9.856054e-03 1.878662e-02 3.408491e-02 5.872174e-02 9.554540e-02 1.455623e-01 2.054291e-01 2.649127e-01 3.077498e-01 3.168856e-01 2.832496e-01 2.103082e-01 1.111075e-01 5.990201e-05 -1.109948e-01 -2.102219e-01 -2.831949e-01 -3.168626e-01 -3.077404e-01 -2.649074e-01 -2.054090e-01 -1.455460e-01 -9.552074e-02 -5.871322e-02 -3.407149e-02 -1.878642e-02 -9.850891e-03 -4.935872e-03 -2.341303e-03 -1.057155e-03 -4.368305e-04 -1.589242e-04 -3.601503e-05 1.539916e-05 3.435737e-05 4.235611e-05 4.245120e-05 4.150124e-05 3.812559e-05 3.400129e-05 2.955531e-05 2.380103e-05 1.863369e-05 1.218760e-05 6.436771e-06 
-2.009325e-07 -8.195437e-06 -1.614650e-05 -2.449057e-05 -3.156511e-05 -3.988674e-05 -4.579629e-05 -5.331032e-05 -5.714955e-05 -6.079952e-05 -5.563910e-05 -3.662439e-05 2.464746e-05 1.779405e-04 5.505524e-04 1.380127e-03 3.162688e-03 6.748074e-03 1.364854e-02 2.616131e-02 4.770085e-02 8.260178e-02 1.356324e-01 2.103761e-01 3.062542e-01 4.146334e-01 5.154687e-01 5.799113e-01 5.803868e-01 5.056803e-01 3.672672e-01 1.909699e-01 1.057316e-04 -1.907754e-01 -3.671277e-01 -5.055988e-01 -5.803499e-01 -5.798837e-01 -5.154324e-01 -4.145705e-01 -3.061998e-01 -2.103177e-01 -1.356058e-01 -8.257485e-02 -4.769751e-02 -2.615357e-02 -1.365024e-02 -6.746049e-03 -3.163853e-03 -1.379612e-03 -5.506886e-04 -1.779279e-04 -2.435626e-05 3.650899e-05 5.588714e-05 6.073648e-05 5.717650e-05 5.334510e-05 4.561238e-05 3.999708e-05 3.124604e-05 2.464152e-05 1.576260e-05 8.361896e-06 
-8.379296e-08 -1.057582e-05 -2.108506e-05 -3.189924e-05 -4.164126e-05 -5.203306e-05 -6.076516e-05 -6.864959e-05 -7.375195e-05 -6.951669e-05 -4.853248e-05 2.709408e-05 2.188237e-04 6.977194e-04 1.790261e-03 4.161748e-03 9.035488e-03 1.847863e-02 3.584545e-02 6.591014e-02 1.150744e-01 1.904873e-01 2.986302e-01 4.422409e-01 6.158341e-01 8.003758e-01 9.595778e-01 1.045590e+00 1.016864e+00 8.627548e-01 6.117934e-01 3.124294e-01 1.749499e-04 -3.121135e-01 -6.115721e-01 -8.626263e-01 -1.016785e+00 -1.045501e+00 -9.594556e-01 -8.002137e-01 -6.156994e-01 -4.421149e-01 -2.985650e-01 -1.904331e-01 -1.150633e-01 -6.589796e-02 -3.584712e-02 -1.847649e-02 -9.037534e-03 -4.161803e-03 -1.790958e-03 -6.983396e-04 -2.188304e-04 -2.766348e-05 4.864814e-05 6.927217e-05 7.377957e-05 6.874030e-05 6.068969e-05 5.234938e-05 4.150454e-05 3.232887e-05 2.092335e-05 1.104662e-05 
-3.162637e-07 -1.250481e-05 -2.484687e-05 -3.776968e-05 -4.921774e-05 -6.253375e-05 -7.199836e-05 -8.225577e-05 -8.081420e-05 -6.155650e-05 1.909775e-05 2.423497e-04 8.167699e-04 2.172128e-03 5.195507e-03 1.152564e-02 2.407207e-02 4.746714e-02 8.869048e-02 1.569186e-01 2.630731e-01 4.174224e-01 6.263935e-01 8.876338e-01 1.184308e+00 1.479161e+00 1.711345e+00 1.806867e+00 1.707629e+00 1.409889e+00 9.744251e-01 4.876049e-01 2.388527e-04 -4.871755e-01 -9.741302e-01 -1.409701e+00 -1.707454e+00 -1.806619e+00 -1.711012e+00 -1.478793e+00 -1.184015e+00 -8.873877e-01 -6.262554e-01 -4.173242e-01 -2.630515e-01 -1.569058e-01 -8.869405e-02 -4.746696e-02 -2.407535e-02 -1.152621e-02 -5.195836e-03 -2.172521e-03 -8.160845e-04 -2.425831e-04 -1.862805e-05 6.152526e-05 8.079710e-05 8.239178e-05 7.161908e-05 6.275523e-05 4.865853e-05 3.801580e-05 2.422607e-05 1.275192e-05 
-1.121495e-07 -1.507882e-05 -3.011713e-05 -4.607354e-05 -6.027461e-05 -7.596709e-05 -8.663296e-05 -9.110387e-05 -7.147186e-05 1.432952e-05 2.617902e-04 9.285493e-04 2.529632e-03 6.209664e-03 1.408544e-02 3.003634e-02 6.042692e-02 1.149517e-01 2.070458e-01 3.527952e-01 5.687497e-01 8.664906e-01 1.247129e+00 1.694731e+00 2.170974e+00 2.610138e+00 2.917900e+00 2.987863e+00 2.745521e+00 2.205576e+00 1.483957e+00 7.262585e-01 3.342486e-04 -7.256512e-01 -1.483504e+00 -2.205207e+00 -2.745058e+00 -2.987223e+00 -2.917137e+00 -2.609412e+00 -2.170449e+00 -1.694309e+00 -1.246875e+00 -8.663186e-01 -5.687130e-01 -3.527860e-01 -2.070550e-01 -1.149572e-01 -6.043531e-02 -3.004073e-02 -1.408802e-02 -6.212143e-03 -2.529820e-03 -9.297953e-04 -2.616927e-04 -1.465346e-05 7.139278e-05 9.139298e-05 8.642484e-05 7.655733e-05 6.003312e-05 4.676070e-05 2.988486e-05 1.577949e-05 
-4.368329e-07 -1.665291e-05 -3.359098e-05 -5.078322e-05 -6.660259e-05 -8.267919e-05 -8.783920e-05 -7.511698e-05 9.271762e-06 2.643839e-04 9.759528e-04 2.758025e-03 6.957460e-03 1.622278e-02 3.546310e-02 7.300696e-02 1.419664e-01 2.609828e-01 4.538465e-01 7.458480e-01 1.157808e+00 1.696405e+00 2.346253e+00 3.063617e+00 3.774567e+00 4.373963e+00 4.727715e+00 4.696232e+00 4.195824e+00 3.279001e+00 2.146341e+00 1.026251e+00 5.067201e-04 -1.025306e+00 -2.145576e+00 -3.278230e+00 -4.194742e+00 -4.694796e+00 -4.726164e+00 -4.372719e+00 -3.773778e+00 -3.063018e+00 -2.345852e+00 -1.696140e+00 -1.157760e+00 -7.458605e-01 -4.538692e-01 -2.609993e-01 -1.419822e-01 -7.301588e-02 -3.546667e-02 -1.622558e-02 -6.956676e-03 -2.758571e-03 -9.753946e-04 -2.641995e-04 -9.576529e-06 7.553607e-05 8.705131e-05 8.311237e-05 6.568541e-05 5.115560e-05 3.269415e-05 1.697622e-05 
-1.376234e-07 -1.925564e-05 -3.865621e-05 -5.934065e-05 -7.623218e-05 -9.134028e-05 -8.044317e-05 -1.292491e-05 2.358438e-04 9.471363e-04 2.801028e-03 7.328411e-03 1.759097e-02 3.955633e-02 8.350464e-02 1.662961e-01 3.126656e-01 5.557368e-01 9.334647e-01 1.479708e+00 2.212404e+00 3.118533e+00 4.147381e+00 5.208873e+00 6.179543e+00 6.907461e+00 7.219701e+00 6.953558e+00 6.036473e+00 4.587774e+00 2.922480e+00 1.365935e+00 7.366724e-04 -1.364485e+00 -2.921097e+00 -4.586105e+00 -6.034057e+00 -6.950628e+00 -7.216969e+00 -6.905753e+00 -6.178793e+00 -5.208298e+00 -4.146883e+00 -3.118154e+00 -2.212334e+00 -1.479749e+00 -9.335067e-01 -5.557698e-01 -3.126975e-01 -1.663203e-01 -8.351674e-02 -3.956569e-02 -1.759289e-02 -7.331083e-03 -2.801453e-03 -9.472830e-04 -2.363687e-04 1.375403e-05 7.990332e-05 9.241533e-05 7.580421e-05 6.036354e-05 3.833859e-05 2.019193e-05 
-5.362405e-07 -2.008399e-05 -4.166485e-05 -6.078064e-05 -7.693609e-05 -7.675766e-05 -1.890317e-05 1.942204e-04 8.608004e-04 2.654942e-03 7.201256e-03 1.787861e-02 4.141148e-02 8.993941e-02 1.838056e-01 3.541255e-01 6.444236e-01 1.107954e+00 1.797603e+00 2.747249e+00 3.952422e+00 5.355289e+00 6.844441e+00 8.263429e+00 9.429940e+00 1.015032e+01 1.023288e+01 9.526302e+00 8.012479e+00 5.913844e+00 3.669277e+00 1.680286e+00 3.612142e-04 -1.679321e+00 -3.667741e+00 -5.910983e+00 -8.007868e+00 -9.521025e+00 -1.022870e+01 -1.014873e+01 -9.430057e+00 -8.263481e+00 -6.844084e+00 -5.354842e+00 -3.952304e+00 -2.747314e+00 -1.797653e+00 -1.107983e+00 -6.444591e-01 -3.541647e-01 -1.838246e-01 -8.995229e-02 -4.141330e-02 -1.788020e-02 -7.201582e-03 -2.654073e-03 -8.620825e-04 -1.931362e-04 1.729711e-05 7.758137e-05 7.550265e-05 6.133265e-05 4.048577e-05 2.048458e-05 
-1.710209e-07 -2.208120e-05 -4.486659e-05 -6.559977e-05 -7.257776e-05 -4.255157e-05 1.331003e-04 6.854211e-04 2.307949e-03 6.544656e-03 1.692212e-02 4.059420e-02 9.095678e-02 1.913758e-01 3.785756e-01 7.065642e-01 1.245289e+00 2.071638e+00 3.243252e+00 4.767422e+00 6.580815e+00 8.542027e+00 1.045353e+01 1.208638e+01 1.321068e+01 1.362005e+01 1.315818e+01 1.176052e+01 9.531913e+00 6.816655e+00 4.126836e+00 1.859192e+00 -1.781299e-03 -1.861192e+00 -4.125154e+00 -6.810177e+00 -9.521562e+00 -1.175064e+01 -1.315282e+01 -1.362059e+01 -1.321387e+01 -1.208846e+01 -1.045402e+01 -8.541793e+00 -6.580688e+00 -4.767527e+00 -3.243290e+00 -2.071603e+00 -1.245290e+00 -7.066359e-01 -3.786164e-01 -1.914058e-01 -9.096623e-02 -4.059985e-02 -1.692487e-02 -6.543851e-03 -2.309726e-03 -6.833750e-04 -1.343189e-04 4.441786e-05 7.183913e-05 6.700948e-05 4.442670e-05 2.318916e-05 
-5.548170e-07 -2.107742e-05 -4.568972e-05 -5.503824e-05 -4.322103e-05 8.000995e-05 5.190480e-04 1.851015e-03 5.547360e-03 1.492640e-02 3.720015e-02 8.629200e-02 1.873617e-01 3.817368e-01 7.322972e-01 1.325937e+00 2.267304e+00 3.647821e+00 5.495355e+00 7.733764e+00 1.018068e+01 1.257569e+01 1.462281e+01 1.603381e+01 1.658904e+01 1.617299e+01 1.478996e+01 1.256952e+01 9.770144e+00 6.779712e+00 4.035044e+00 1.806750e+00 -2.445231e-03 -1.807432e+00 -4.026645e+00 -6.763123e+00 -9.751578e+00 -1.255813e+01 -1.478902e+01 -1.617997e+01 -1.659738e+01 -1.603901e+01 -1.462506e+01 -1.257643e+01 -1.018104e+01 -7.734226e+00 -5.495416e+00 -3.647501e+00 -2.267099e+00 -1.326015e+00 -7.323484e-01 -3.817775e-01 -1.873756e-01 -8.629656e-02 -3.720463e-02 -1.492396e-02 -5.551095e-03 -1.848670e-03 -5.220613e-04 -7.855869e-05 4.116169e-05 5.585233e-05 4.433287e-05 2.159153e-05 
-2.518869e-07 -2.005771e-05 -4.070238e-05 -3.682863e-05 3.292737e-05 3.363906e-04 1.355209e-03 4.282085e-03 1.219265e-02 3.166600e-02 7.650446e-02 1.721783e-01 3.626577e-01 7.179708e-01 1.340222e+00 2.364521e+00 3.928470e+00 6.100251e+00 8.791787e+00 1.174843e+01 1.460147e+01 1.694261e+01 1.843319e+01 1.884885e+01 1.813218e+01 1.643018e+01 1.403844e+01 1.129363e+01 8.481789e+00 5.829723e+00 3.516313e+00 1.612546e+00 5.491379e-04 -1.607456e+00 -3.504103e+00 -5.814964e+00 -8.469850e+00 -1.128792e+01 -1.403882e+01 -1.643642e+01 -1.814317e+01 -1.885733e+01 -1.843810e+01 -1.694636e+01 -1.460440e+01 -1.175076e+01 -8.792243e+00 -6.099174e+00 -3.927663e+00 -2.364563e+00 -1.340274e+00 -7.180404e-01 -3.626894e-01 -1.721893e-01 -7.651416e-02 -3.166282e-02 -1.219708e-02 -4.277924e-03 -1.357504e-03 -3.334899e-04 -3.410741e-05 3.852903e-05 4.004745e-05 2.112303e-05 
-3.943895e-07 -1.350274e-05 -2.961160e-05 2.139089e-05 1.992004e-04 9.140178e-04 3.074785e-03 9.198052e-03 2.511913e-02 6.329854e-02 1.484240e-01 3.246318e-01 6.662385e-01 1.289402e+00 2.360679e+00 4.077508e+00 6.581482e+00 9.803400e+00 1.339240e+01 1.679636e+01 1.943463e+01 2.085856e+01 2.083681e+01 1.947230e+01 1.719717e+01 1.455558e+01 1.197044e+01 9.625560e+00 7.523720e+00 5.570408e+00 3.683433e+00 1.821506e+00 -5.293697e-03 -1.832232e+00 -3.693020e+00 -5.576988e+00 -7.512225e+00 -9.583902e+00 -1.193686e+01 -1.456014e+01 -1.722127e+01 -1.948587e+01 -2.084354e+01 -2.086831e+01 -1.944479e+01 -1.680431e+01 -1.339435e+01 -9.800456e+00 -6.579144e+00 -4.077256e+00 -2.360614e+00 -1.289479e+00 -6.662875e-01 -3.246435e-01 -1.484401e-01 -6.329385e-02 -2.512758e-02 -9.194086e-03 -3.079674e-03 -9.117992e-04 -2.017116e-04 -2.019545e-05 2.841503e-05 1.427144e-05 
-4.754413e-07 -2.411366e-06 4.182259e-06 1.309292e-04 5.521456e-04 2.022477e-03 6.393720e-03 1.834831e-02 4.871088e-02 1.194039e-01 2.730706e-01 5.844048e-01 1.180723e+00 2.262921e+00 4.102824e+00 6.954678e+00 1.083460e+01 1.532025e+01 1.960174e+01 2.284814e+01 2.438781e+01 2.398819e+01 2.213666e+01 1.973939e+01 1.761878e+01 1.593152e+01 1.455844e+01 1.306667e+01 1.130604e+01 9.010292e+00 6.300809e+00 3.303517e+00 3.097330e-02 -3.303661e+00 -6.370087e+00 -9.135269e+00 -1.130873e+01 -1.293728e+01 -1.451941e+01 -1.594375e+01 -1.761799e+01 -1.973814e+01 -2.213701e+01 -2.400657e+01 -2.441054e+01 -2.286743e+01 -1.960720e+01 -1.531335e+01 -1.082886e+01 -6.953505e+00 -4.102404e+00 -2.263006e+00 -1.180821e+00 -5.844318e-01 -2.730965e-01 -1.193981e-01 -4.871943e-02 -1.834192e-02 -6.397234e-03 -2.018876e-03 -5.538625e-04 -1.294210e-04 -5.282890e-06 2.968175e-06 
5.776636e-08 1.970106e-05 6.018976e-05 3.481601e-04 1.197277e-03 4.110891e-03 1.238229e-02 3.467333e-02 8.959750e-02 2.150992e-01 4.836054e-01 1.027383e+00 2.080237e+00 4.007503e+00 7.224503e+00 1.191283e+01 1.765540e+01 2.337029e+01 2.779032e+01 3.003924e+01 3.026683e+01 2.921021e+01 2.806407e+01 2.771159e+01 2.863329e+01 2.927882e+01 2.887349e+01 2.623608e+01 2.168577e+01 1.646213e+01 1.113322e+01 5.844378e+00 7.330396e-02 -5.798230e+00 -1.121653e+01 -1.685969e+01 -2.173650e+01 -2.558786e+01 -2.883056e+01 -2.956704e+01 -2.859926e+01 -2.771458e+01 -2.808007e+01 -2.923700e+01 -3.029297e+01 -3.007337e+01 -2.780277e+01 -2.335721e+01 -1.764319e+01 -1.190955e+01 -7.223322e+00 -4.007571e+00 -2.080448e+00 -1.027451e+00 -4.836530e-01 -2.150980e-01 -8.961334e-02 -3.466924e-02 -1.238879e-02 -4.108191e-03 -1.199400e-03 -3.463973e-04 -6.053065e-05 -1.832897e-05 
-9.905003e-07 5.596177e-05 1.751786e-04 7.294687e-04 2.378199e-03 7.737391e-03 2.273268e-02 6.216162e-02 1.579579e-01 3.749920e-01 8.445706e-01 1.821868e+00 3.771478e+00 7.335584e+00 1.296950e+01 2.034016e+01 2.810840e+01 3.431272e+01 3.796339e+01 3.908765e+01 3.938177e+01 4.302096e+01 4.815024e+01 4.783979e+01 4.239894e+01 3.473748e+01 2.732404e+01 1.932684e+01 1.180763e+01 7.199124e+00 4.038132e+00 1.863684e+00 2.411192e-02 -1.855629e+00 -3.882659e+00 -7.468838e+00 -1.246666e+01 -1.842862e+01 -2.660037e+01 -3.557913e+01 -4.273691e+01 -4.761969e+01 -4.819724e+01 -4.302685e+01 -3.929639e+01 -3.916971e+01 -3.798695e+01 -3.429466e+01 -2.808525e+01 -2.033311e+01 -1.296729e+01 -7.335582e+00 -3.771971e+00 -1.822085e+00 -8.446622e-01 -3.750008e-01 -1.579733e-01 -6.215664e-02 -2.273742e-02 -7.735075e-03 -2.380659e-03 -7.293786e-04 -1.772252e-04 -5.668352e-05 
8.322421e-07 1.128313e-04 3.543701e-04 1.365027e-03 4.317175e-03 1.378742e-02 3.964475e-02 1.072928e-01 2.710160e-01 6.502784e-01 1.504834e+00 3.372792e+00 7.160320e+00 1.377272e+01 2.309577e+01 3.337824e+01 4.193549e+01 4.605679e+01 4.860999e+01 5.468172e+01 5.865667e+01 5.323517e+01 3.866869e+01 2.078190e+01 5.397015e+00 -4.409423e+00 -9.105608e+00 -1.173220e+01 -1.241885e+01 -1.006292e+01 -7.117064e+00 -3.979079e+00 -5.795450e-02 3.954920e+00 7.485679e+00 1.027279e+01 1.135965e+01 1.165379e+01 1.034037e+01 3.926290e+00 -6.300789e+00 -2.043777e+01 -3.851121e+01 -5.313028e+01 -5.849345e+01 -5.487905e+01 -4.858848e+01 -4.598736e+01 -4.190507e+01 -3.336050e+01 -2.309259e+01 -1.377243e+01 -7.161373e+00 -3.373457e+00 -1.505088e+00 -6.503351e-01 -2.710503e-01 -1.072954e-01 -3.965171e-02 -1.378526e-02 -4.317020e-03 -1.362388e-03 -3.528308e-04 -1.102821e-04 
-1.863952e-06 1.956513e-04 6.509709e-04 2.369869e-03 7.456431e-03 2.339390e-02 6.675716e-02 1.807295e-01 4.645401e-01 1.156216e+00 2.815734e+00 6.565822e+00 1.392488e+01 2.536262e+01 3.861102e+01 4.906427e+01 5.407847e+01 6.107353e+01 6.662118e+01 5.301751e+01 2.585458e+01 9.687896e-01 -1.607251e+01 -2.433888e+01 -2.702973e+01 -2.486491e+01 -2.018948e+01 -1.553918e+01 -1.099448e+01 -6.904431e+00 -4.035570e+00 -2.137533e+00 -6.616329e-02 2.136611e+00 4.277118e+00 7.148576e+00 1.041863e+01 1.486249e+01 2.084969e+01 2.526339e+01 2.654504e+01 2.445087e+01 1.621360e+01 -1.005564e+00 -2.561918e+01 -5.299591e+01 -6.666213e+01 -6.119011e+01 -5.417258e+01 -4.897614e+01 -3.860901e+01 -2.536198e+01 -1.392652e+01 -6.567608e+00 -2.816506e+00 -1.156412e+00 -4.645976e-01 -1.807411e-01 -6.676559e-02 -2.339845e-02 -7.460563e-03 -2.373469e-03 -6.547533e-04 -1.984942e-04 
1.633491e-06 3.091958e-04 1.084106e-03 3.862477e-03 1.220247e-02 3.825566e-02 1.096684e-01 3.042955e-01 8.162458e-01 2.155937e+00 5.522932e+00 1.302126e+01 2.628494e+01 4.299763e+01 5.608964e+01 6.440304e+01 6.887503e+01 5.995523e+01 2.895715e+01 -6.564772e+00 -2.517995e+01 -2.980058e+01 -2.494236e+01 -1.560790e+01 -8.030945e+00 -2.986070e+00 -2.930344e-01 8.310131e-01 1.702001e+00 2.027952e+00 1.658572e+00 8.344172e-01 -2.290547e-02 -8.362962e-01 -1.604870e+00 -1.979471e+00 -1.858016e+00 -1.115979e+00 4.935961e-01 3.374304e+00 8.036210e+00 1.558043e+01 2.497941e+01 2.957464e+01 2.533714e+01 6.913340e+00 -2.901168e+01 -6.019942e+01 -6.887501e+01 -6.420545e+01 -5.613521e+01 -4.300273e+01 -2.628614e+01 -1.302536e+01 -5.525569e+00 -2.156736e+00 -8.164565e-01 -3.043405e-01 -1.096770e-01 -3.825648e-02 -1.219725e-02 -3.858712e-03 -1.079945e-03 -3.050975e-04 
-2.684336e-06 4.498329e-04 1.695415e-03 5.980426e-03 1.925579e-02 6.096088e-02 1.795801e-01 5.225412e-01 1.492566e+00 4.175249e+00 1.094435e+01 2.489631e+01 4.533662e+01 6.310771e+01 7.185075e+01 7.036345e+01 4.604438e+01 5.437514e+00 -2.434709e+01 -2.801395e+01 -1.434894e+01 -3.177678e+00 1.909899e+00 3.939483e+00 5.214150e+00 5.938705e+00 5.977728e+00 5.524474e+00 4.826300e+00 3.904912e+00 2.730479e+00 1.390207e+00 -4.786760e-03 -1.392109e+00 -2.728739e+00 -3.915226e+00 -4.857540e+00 -5.515114e+00 -5.873636e+00 -5.891245e+00 -5.270838e+00 -3.947575e+00 -1.830955e+00 3.033478e+00 1.432082e+01 2.824762e+01 2.428377e+01 -5.373930e+00 -4.565994e+01 -7.052847e+01 -7.222814e+01 -6.312502e+01 -4.532680e+01 -2.490092e+01 -1.095174e+01 -4.178123e+00 -1.493297e+00 -5.227184e-01 -1.796245e-01 -6.098982e-02 -1.926541e-02 -5.990616e-03 -1.701477e-03 -4.546359e-04 
1.482076e-06 6.199780e-04 2.515259e-03 8.863047e-03 2.950963e-02 9.602494e-02 2.970208e-01 9.222144e-01 2.796809e+00 8.083254e+00 2.079348e+01 4.356599e+01 6.774958e+01 7.632590e+01 6.647115e+01 3.567410e+01 -5.778223e+00 -2.456105e+01 -1.478190e+01 -1.061850e-01 4.686720e+00 4.779765e+00 4.925071e+00 5.054825e+00 5.144647e+00 5.033521e+00 4.701753e+00 4.196841e+00 3.547629e+00 2.785706e+00 1.916348e+00 9.742332e-01 -1.668224e-03 -9.762000e-01 -1.918403e+00 -2.790724e+00 -3.550440e+00 -4.179889e+00 -4.674663e+00 -5.030621e+00 -5.159684e+00 -5.040502e+00 -4.917327e+00 -4.835143e+00 -4.701368e+00 1.542102e-01 1.476588e+01 2.467464e+01 5.557479e+00 -3.633728e+01 -6.662352e+01 -7.626676e+01 -6.780306e+01 -4.356812e+01 -2.080926e+01 -8.092134e+00 -2.799197e+00 -9.227373e-01 -2.971087e-01 -9.605030e-02 -2.950243e-02 -8.860033e-03 -2.510271e-03 -6.155684e-04 
-2.072081e-06 7.987917e-04 3.520863e-03 1.262703e-02 4.426853e-02 1.505466e-01 4.972995e-01 1.641963e+00 5.174398e+00 1.491169e+01 3.628307e+01 6.668980e+01 7.885072e+01 6.266112e+01 3.223270e+01 -4.954068e+00 -2.028905e+01 -8.214004e+00 1.514577e+00 3.492373e+00 1.914231e+00 8.539206e-01 8.704326e-01 1.359201e+00 1.811086e+00 2.053918e+00 2.092443e+00 1.970214e+00 1.717839e+00 1.371148e+00 9.522184e-01 4.867964e-01 -1.109384e-03 -4.885104e-01 -9.534433e-01 -1.372201e+00 -1.716968e+00 -1.963990e+00 -2.086137e+00 -2.051236e+00 -1.812776e+00 -1.355378e+00 -8.691599e-01 -8.654659e-01 -1.910518e+00 -3.490784e+00 -1.446410e+00 8.123518e+00 1.982788e+01 5.153429e+00 -3.154358e+01 -6.274439e+01 -7.912238e+01 -6.667631e+01 -3.629314e+01 -1.493243e+01 -5.180469e+00 -1.643344e+00 -4.976032e-01 -1.506596e-01 -4.429771e-02 -1.264359e-02 -3.527716e-03 -8.020695e-04 
-8.702640e-07 9.881331e-04 4.718023e-03 1.745107e-02 6.543232e-02 2.345634e-01 8.277010e-01 2.847672e+00 9.048744e+00 2.520485e+01 5.659482e+01 8.023171e+01 6.260819e+01 3.219040e+01 4.611987e+00 -1.720582e+01 -1.235635e+01 -1.700561e+00 3.227624e-01 -2.155032e+00 -4.299322e+00 -4.299486e+00 -3.025539e+00 -1.639821e+00 -6.102993e-01 3.874819e-02 3.959835e-01 5.501299e-01 5.654823e-01 4.901289e-01 3.554137e-01 1.855607e-01 -6.323786e-04 -1.866071e-01 -3.560517e-01 -4.902958e-01 -5.648670e-01 -5.481938e-01 -3.942738e-01 -3.706300e-02 6.106189e-01 1.641337e+00 3.026125e+00 4.296381e+00 4.296241e+00 2.151398e+00 -3.232034e-01 1.616555e+00 1.241407e+01 1.783376e+01 -4.239009e+00 -3.263524e+01 -6.257997e+01 -7.970542e+01 -5.646695e+01 -2.524058e+01 -9.060372e+00 -2.849785e+00 -8.280766e-01 -2.346614e-01 -6.544592e-02 -1.745574e-02 -4.719024e-03 -9.878944e-04 
1.816283e-06 1.198605e-03 5.940933e-03 2.350630e-02 9.413704e-02 3.566836e-01 1.325091e+00 4.622529e+00 1.447170e+01 3.812290e+01 7.372092e+01 6.787629e+01 3.477170e+01 1.345897e+01 -1.171831e+01 -2.009171e+01 -7.380019e+00 -1.654385e+00 -4.339337e+00 -8.112344e+00 -9.000694e+00 -7.329019e+00 -4.939859e+00 -2.969261e+00 -1.634533e+00 -8.050955e-01 -3.209740e-01 -5.922257e-02 6.359544e-02 1.022594e-01 9.071281e-02 5.140730e-02 -2.776874e-04 -5.187380e-02 -9.100078e-02 -1.022951e-01 -6.338455e-02 5.976290e-02 3.215123e-01 8.057874e-01 1.634787e+00 2.969834e+00 4.939732e+00 7.327949e+00 8.999456e+00 8.109952e+00 4.335826e+00 1.642940e+00 7.383771e+00 2.007240e+01 1.112348e+01 -1.435598e+01 -3.441404e+01 -6.682450e+01 -7.343389e+01 -3.821419e+01 -1.449097e+01 -4.624626e+00 -1.325408e+00 -3.567753e-01 -9.416410e-02 -2.350663e-02 -5.939493e-03 -1.192668e-03 
-4.289041e-06 1.408021e-03 7.075961e-03 3.056227e-02 1.298754e-01 5.144130e-01 1.971611e+00 6.813336e+00 2.071166e+01 5.131672e+01 7.211773e+01 4.130059e+01 1.904023e+01 1.379225e+00 -2.552119e+01 -1.635889e+01 -3.864831e+00 -3.487418e+00 -8.627102e+00 -1.185821e+01 -1.115052e+01 -8.288184e+00 -5.357086e+00 -3.200703e+00 -1.813970e+00 -9.769738e-01 -4.942448e-01 -2.283701e-01 -9.007124e-02 -2.452087e-02 6.339632e-04 4.758534e-03 -1.032176e-04 -4.934238e-03 -7.541865e-04 2.449550e-02 9.011455e-02 2.285215e-01 4.944206e-01 9.772099e-01 1.814066e+00 3.200792e+00 5.356747e+00 8.287631e+00 1.115014e+01 1.185670e+01 8.625870e+00 3.480240e+00 3.842146e+00 1.627019e+01 2.504340e+01 -1.468998e+00 -1.838234e+01 -4.132590e+01 -7.277946e+01 -5.163760e+01 -2.074324e+01 -6.813725e+00 -1.971449e+00 -5.144516e-01 -1.298990e-01 -3.057604e-02 -7.085614e-03 -1.416852e-03 
7.491487e-06 1.733996e-03 7.650953e-03 3.850276e-02 1.652825e-01 6.875915e-01 2.629362e+00 8.957134e+00 2.604770e+01 5.887118e+01 5.191440e+01 2.387041e+01 1.306558e+01 -1.487765e+01 -2.668621e+01 -9.738921e+00 -1.934438e+00 -5.254071e+00 -1.103497e+01 -1.316967e+01 -1.131848e+01 -7.960370e+00 -4.986314e+00 -2.927386e+00 -1.644978e+00 -8.896145e-01 -4.629860e-01 -2.310025e-01 -1.094331e-01 -4.833032e-02 -1.933468e-02 -6.360830e-03 -3.260385e-05 6.309940e-03 1.929201e-02 4.831771e-02 1.094301e-01 2.310232e-01 4.630183e-01 8.896388e-01 1.644944e+00 2.927266e+00 4.985946e+00 7.959917e+00 1.131813e+01 1.316878e+01 1.103485e+01 5.247396e+00 1.916075e+00 9.726628e+00 2.671614e+01 1.530519e+01 -1.262937e+01 -2.446490e+01 -5.281187e+01 -5.914423e+01 -2.606314e+01 -8.955472e+00 -2.629168e+00 -6.876174e-01 -1.652721e-01 -3.848371e-02 -7.633774e-03 -1.718683e-03 
-6.456517e-06 1.970766e-03 7.579723e-03 4.464812e-02 1.898154e-01 8.213584e-01 3.081015e+00 1.031533e+01 2.873907e+01 5.444467e+01 3.087137e+01 1.585358e+01 6.683968e+00 -2.597745e+01 -1.969735e+01 -4.555102e+00 -1.005962e+00 -6.074396e+00 -1.143527e+01 -1.255544e+01 -1.020408e+01 -6.930623e+00 -4.250948e+00 -2.457057e+00 -1.360404e+00 -7.257343e-01 -3.742514e-01 -1.869830e-01 -9.047630e-02 -4.219689e-02 -1.860486e-02 -6.911906e-03 -1.082786e-05 6.897966e-03 1.858850e-02 4.219109e-02 9.046928e-02 1.869794e-01 3.742500e-01 7.257042e-01 1.360334e+00 2.456877e+00 4.250599e+00 6.930162e+00 1.020358e+01 1.255493e+01 1.143559e+01 6.070189e+00 9.967202e-01 4.565128e+00 1.975488e+01 2.597617e+01 -6.682910e+00 -1.589094e+01 -3.097016e+01 -5.442393e+01 -2.868583e+01 -1.030462e+01 -3.079909e+00 -8.214140e-01 -1.898428e-01 -4.467933e-02 -7.594060e-03 -1.990050e-03 
9.674568e-06 1.968622e-03 6.931848e-03 4.510342e-02 1.917356e-01 8.416224e-01 3.105707e+00 1.016456e+01 2.757412e+01 4.101712e+01 1.900125e+01 1.068772e+01 -1.406011e+00 -2.497439e+01 -1.239390e+01 -1.377508e+00 -5.530906e-01 -5.780463e+00 -1.014066e+01 -1.055589e+01 -8.272800e+00 -5.494253e+00 -3.324294e+00 -1.900476e+00 -1.039798e+00 -5.474197e-01 -2.785078e-01 -1.374686e-01 -6.596953e-02 -3.071529e-02 -1.362984e-02 -5.117213e-03 -3.497551e-06 5.115731e-03 1.362348e-02 3.071189e-02 6.596250e-02 1.374540e-01 2.784922e-01 5.473694e-01 1.039719e+00 1.900303e+00 3.324001e+00 5.493839e+00 8.272294e+00 1.055548e+01 1.014083e+01 5.778280e+00 5.491930e-01 1.382008e+00 1.243899e+01 2.507058e+01 1.334674e+00 -1.055790e+01 -1.853164e+01 -4.072491e+01 -2.746839e+01 -1.014502e+01 -3.102638e+00 -8.412494e-01 -1.916203e-01 -4.508245e-02 -6.905062e-03 -1.954101e-03 
-5.942719e-06 1.589994e-03 5.466601e-03 3.724505e-02 1.595274e-01 6.992844e-01 2.555089e+00 8.192185e+00 2.190454e+01 2.596370e+01 1.252027e+01 7.133669e+00 -5.927988e+00 -1.751616e+01 -6.880694e+00 7.582150e-02 -3.102285e-01 -4.494077e+00 -7.535787e+00 -7.579515e+00 -5.803174e+00 -3.799589e+00 -2.279429e+00 -1.293912e+00 -7.020873e-01 -3.659049e-01 -1.839951e-01 -8.968155e-02 -4.250476e-02 -1.958145e-02 -8.624049e-03 -3.226604e-03 -1.619693e-06 3.226855e-03 8.621075e-03 1.958001e-02 4.250142e-02 8.967204e-02 1.839846e-01 3.658678e-01 7.020303e-01 1.293787e+00 2.279221e+00 3.799283e+00 5.802779e+00 7.579153e+00 7.535867e+00 4.493347e+00 3.087286e-01 -7.549600e-02 6.894164e+00 1.754749e+01 5.859793e+00 -6.814310e+00 -1.187311e+01 -2.564334e+01 -2.180945e+01 -8.173135e+00 -2.551445e+00 -6.987191e-01 -1.594106e-01 -3.726587e-02 -5.477661e-03 -1.610168e-03 
4.766580e-06 8.884884e-04 3.058088e-03 2.112844e-02 9.136997e-02 3.982314e-01 1.447336e+00 4.573543e+00 1.210436e+01 1.218746e+01 6.226390e+00 3.632999e+00 -4.661758e+00 -8.649888e+00 -2.982239e+00 3.404413e-01 -1.466194e-01 -2.454042e+00 -4.010600e+00 -3.955353e+00 -2.988237e+00 -1.940735e+00 -1.158696e+00 -6.551873e-01 -3.539133e-01 -1.834441e-01 -9.165731e-02 -4.435910e-02 -2.086469e-02 -9.536098e-03 -4.168029e-03 -1.549572e-03 -6.149127e-07 1.550110e-03 4.166739e-03 9.535072e-03 2.086261e-02 4.435273e-02 9.165039e-02 1.834226e-01 3.538821e-01 6.551216e-01 1.158589e+00 1.940575e+00 2.988028e+00 3.955132e+00 4.010651e+00 2.453842e+00 1.460935e-01 -3.408423e-01 2.985552e+00 8.687058e+00 4.697660e+00 -3.559042e+00 -6.055380e+00 -1.203301e+01 -1.203890e+01 -4.558497e+00 -1.443799e+00 -3.974257e-01 -9.116169e-02 -2.108704e-02 -3.039362e-03 -8.803997e-04 
-5.176008e-14 -7.792512e-14 -8.031548e-14 -7.563587e-14 -1.151948e-13 -1.158701e-13 -3.558731e-13 -3.178865e-12 -1.946848e-11 -3.293424e-11 -2.317118e-12 3.359178e-11 1.941485e-11 -1.288868e-12 -1.947343e-12 -1.257451e-12 -3.353830e-13 -3.156125e-13 -5.306485e-13 -4.094769e-13 -5.421388e-13 -4.152527e-13 -3.190776e-13 -2.911263e-13 -1.963811e-13 -2.220071e-13 -1.311355e-13 -1.504439e-13 -1.088675e-13 -9.478001e-14 -1.001901e-13 -9.309210e-14 -7.489024e-14 -4.652956e-14 -1.420592e-14 -2.161359e-14 1.269302e-13 2.402458e-13 9.041755e-14 1.763736e-13 5.295456e-14 1.799582e-13 5.563768e-14 1.240404e-13 1.528741e-13 3.540141e-13 4.111762e-13 3.129831e-13 4.304230e-13 5.944484e-13 -4.534625e-13 -3.561489e-12 1.021541e-12 1.815568e-11 1.691098e-11 4.814623e-12 4.192029e-12 3.222436e-12 1.793761e-12 6.392758e-13 3.247797e-13 1.183645e-13 4.423980e-14 -1.586140e-14 
-4.766580e-06 -8.884884e-04 -3.058088e-03 -2.112844e-02 -9.136997e-02 -3.982314e-01 -1.447336e+00 -4.573543e+00 -1.210436e+01 -1.218746e+01 -6.226390e+00 -3.632999e+00 4.661758e+00 8.649888e+00 2.982239e+00 -3.404413e-01 1.466194e-01 2.454042e+00 4.010600e+00 3.955353e+00 2.988237e+00 1.940735e+00 1.158696e+00 6.551873e-01 3.539133e-01 1.834441e-01 9.165731e-02 4.435910e-02 2.086469e-02 9.536098e-03 4.168029e-03 1.549572e-03 6.149125e-07 -1.550110e-03 -4.166739e-03 -9.535072e-03 -2.086261e-02 -4.435273e-02 -9.165039e-02 -1.834226e-01 -3.538821e-01 -6.551216e-01 -1.158589e+00 -1.940575e+00 -2.988028e+00 -3.955132e+00 -4.010651e+00 -2.453842e+00 -1.460935e-01 3.408423e-01 -2.985552e+00 -8.687058e+00 -4.697660e+00 3.559042e+00 6.055380e+00 1.203301e+01 1.203890e+01 4.558497e+00 1.443799e+00 3.974257e-01 9.116169e-02 2.108704e-02 3.039362e-03 8.803997e-04 