# vtk DataFile Version 2.0
Comment goes here
ASCII

DATASET STRUCTURED_POINTS
FIELD FieldData 1
TIME 1 1 double
1.91000000
DIMENSIONS    64   64   1

ORIGIN    0.000   0.000   0.000
SPACING   0.015625 0.015625   1.000

POINT_DATA   4096
SCALARS Omega double
LOOKUP_TABLE default

1.359640e-13 2.864677e-13 4.686774e-13 7.148891e-13 9.925897e-13 1.319157e-12 1.741370e-12 2.273784e-12 2.873758e-12 3.630927e-12 4.526102e-12 5.584184e-12 6.786558e-12 8.162364e-12 9.672487e-12 1.129328e-11 1.299625e-11 1.475174e-11 1.641877e-11 1.795528e-11 1.930738e-11 2.028151e-11 2.086232e-11 2.094610e-11 2.046030e-11 1.932167e-11 1.762881e-11 1.530969e-11 1.250240e-11 9.289456e-12 5.799329e-12 2.095147e-12 -1.688217e-12 -5.417471e-12 -9.044124e-12 -1.246259e-11 -1.556101e-11 -1.823347e-11 -2.043787e-11 -2.204599e-11 -2.303395e-11 -2.338866e-11 -2.313918e-11 -2.228356e-11 -2.096095e-11 -1.929014e-11 -1.735336e-11 -1.528347e-11 -1.321016e-11 -1.120109e-11 -9.308072e-12 -7.605450e-12 -6.141430e-12 -4.879721e-12 -3.789117e-12 -2.910844e-12 -2.202175e-12 -1.624011e-12 -1.176540e-12 -8.510292e-13 -5.818994e-13 -3.582552e-13 -2.009935e-13 -3.748524e-14 
-6.928935e-04 6.427377e-04 1.775010e-03 2.485652e-03 2.555630e-03 1.774060e-03 -6.724419e-05 -3.159919e-03 -7.688005e-03 -1.380324e-02 -2.164025e-02 -3.127632e-02 -4.275360e-02 -5.602495e-02 -7.098004e-02 -8.738981e-02 -1.049293e-01 -1.231432e-01 -1.414573e-01 -1.591853e-01 -1.755291e-01 -1.896273e-01 -2.005680e-01 -2.074482e-01 -2.094342e-01 -2.057910e-01 -1.959910e-01 -1.797202e-01 -1.569987e-01 -1.282317e-01 -9.428196e-02 -5.653167e-02 -1.677677e-02 2.290865e-02 6.046865e-02 9.415511e-02 1.226816e-01 1.453538e-01 1.619423e-01 1.726178e-01 1.777918e-01 1.780100e-01 1.739167e-01 1.661691e-01 1.554780e-01 1.425343e-01 1.280395e-01 1.126507e-01 9.697647e-02 8.155351e-02 6.682794e-02 5.315910e-02 4.080730e-02 2.995004e-02 2.068084e-02 1.302690e-02 6.953894e-03 2.381794e-03 -8.108600e-04 -2.772507e-03 -3.678156e-03 -3.715871e-03 -3.090138e-03 -2.009726e-03 
-1.414817e-03 1.406205e-03 3.821736e-03 5.395863e-03 5.690995e-03 4.285081e-03 7.608857e-04 -5.267133e-03 -1.417056e-02 -2.625837e-02 -4.180733e-02 -6.098164e-02 -8.387772e-02 -1.104144e-01 -1.403860e-01 -1.733481e-01 -2.086632e-01 -2.454294e-01 -2.824998e-01 -3.184971e-01 -3.518073e-01 -3.806810e-01 -4.032539e-01 -4.176740e-01 -4.222236e-01 -4.153823e-01 -3.960402e-01 -3.635064e-01 -3.177432e-01 -2.594921e-01 -1.904417e-01 -1.134196e-01 -3.218976e-02 4.883607e-02 1.252804e-01 1.934747e-01 2.508049e-01 2.959669e-01 3.286452e-01 3.493291e-01 3.589499e-01 3.586644e-01 3.497863e-01 3.336400e-01 3.116511e-01 2.852100e-01 2.557300e-01 2.245384e-01 1.928600e-01 1.617726e-01 1.321647e-01 1.047476e-01 8.003047e-02 5.835551e-02 3.989733e-02 2.469890e-02 1.268230e-02 3.679841e-03 -2.556750e-03 -6.328288e-03 -7.987116e-03 -7.910727e-03 -6.508507e-03 -4.197894e-03 
-2.182488e-03 2.424591e-03 6.426526e-03 9.171202e-03 1.000362e-02 8.290045e-03 3.402681e-03 -5.242643e-03 -1.821181e-02 -3.598249e-02 -5.898845e-02 -8.750051e-02 -1.216935e-01 -1.614785e-01 -2.065845e-01 -2.563770e-01 -3.099320e-01 -3.659131e-01 -4.226062e-01 -4.779266e-01 -5.294090e-01 -5.743564e-01 -6.098717e-01 -6.330593e-01 -6.412352e-01 -6.320048e-01 -6.036148e-01 -5.548835e-01 -4.855721e-01 -3.965618e-01 -2.902350e-01 -1.709315e-01 -4.474390e-02 8.097921e-02 1.989308e-01 3.031471e-01 3.896419e-01 4.567472e-01 5.044060e-01 5.337423e-01 5.464169e-01 5.442868e-01 5.293631e-01 5.036195e-01 4.691986e-01 4.281963e-01 3.827686e-01 3.349428e-01 2.865879e-01 2.393358e-01 1.945175e-01 1.531821e-01 1.160664e-01 8.365054e-02 5.616510e-02 3.364429e-02 1.594730e-02 2.802782e-03 -6.175755e-03 -1.144950e-02 -1.355318e-02 -1.305624e-02 -1.057395e-02 -6.731896e-03 
-3.032230e-03 3.810832e-03 9.853327e-03 1.422933e-02 1.606834e-02 1.452449e-02 8.757230e-03 -2.022778e-03 -1.858594e-02 -4.159501e-02 -7.166293e-02 -1.091957e-01 -1.544817e-01 -2.074622e-01 -2.678424e-01 -3.348346e-01 -4.072598e-01 -4.833662e-01 -5.608707e-01 -6.369620e-01 -7.082627e-01 -7.710455e-01 -8.212538e-01 -8.548207e-01 -8.679803e-01 -8.573916e-01 -8.206040e-01 -7.558603e-01 -6.625030e-01 -5.412179e-01 -3.947300e-01 -2.288884e-01 -5.264138e-02 1.227091e-01 2.858652e-01 4.279655e-01 5.436661e-01 6.314541e-01 6.921809e-01 7.281227e-01 7.419437e-01 7.362679e-01 7.137360e-01 6.768948e-01 6.285608e-01 5.715506e-01 5.088134e-01 4.431469e-01 3.771181e-01 3.129510e-01 2.524235e-01 1.969081e-01 1.473373e-01 1.042909e-01 6.801636e-02 3.850299e-02 1.551763e-02 -1.338881e-03 -1.260831e-02 -1.892459e-02 -2.101221e-02 -1.963675e-02 -1.562053e-02 -9.796765e-03 
-3.962897e-03 5.716698e-03 1.440644e-02 2.103048e-02 2.450612e-02 2.377520e-02 1.778238e-02 5.524303e-03 -1.398638e-02 -4.161990e-02 -7.819632e-02 -1.242950e-01 -1.803625e-01 -2.464184e-01 -3.221968e-01 -4.067971e-01 -4.988259e-01 -5.961260e-01 -6.958475e-01 -7.944126e-01 -8.874578e-01 -9.701019e-01 -1.036955e+00 -1.082592e+00 -1.102060e+00 -1.091038e+00 -1.046533e+00 -9.662502e-01 -8.489208e-01 -6.943612e-01 -5.047513e-01 -2.870431e-01 -5.377006e-02 1.779940e-01 3.910428e-01 5.726464e-01 7.164196e-01 8.221754e-01 8.928498e-01 9.326409e-01 9.454779e-01 9.346199e-01 9.030888e-01 8.537330e-01 7.899476e-01 7.152635e-01 6.335323e-01 5.484505e-01 4.634058e-01 3.812899e-01 3.043592e-01 2.342944e-01 1.721868e-01 1.186592e-01 7.392334e-02 3.787056e-02 1.013428e-02 -9.846532e-03 -2.279303e-02 -2.952860e-02 -3.097799e-02 -2.810791e-02 -2.194943e-02 -1.354175e-02 
-5.012629e-03 8.250752e-03 2.034387e-02 2.998675e-02 3.588926e-02 3.678205e-02 3.139283e-02 1.849509e-02 -3.130507e-03 -3.458676e-02 -7.693408e-02 -1.309685e-01 -1.973457e-01 -2.762176e-01 -3.674015e-01 -4.699286e-01 -5.822218e-01 -7.017347e-01 -8.250364e-01 -9.477589e-01 -1.064459e+00 -1.168973e+00 -1.254332e+00 -1.313497e+00 -1.340153e+00 -1.329092e+00 -1.277164e+00 -1.182065e+00 -1.041934e+00 -8.547114e-01 -6.200705e-01 -3.447675e-01 -4.573618e-02 2.511191e-01 5.193157e-01 7.408087e-01 9.091087e-01 1.027715e+00 1.103696e+00 1.144125e+00 1.154223e+00 1.137373e+00 1.096275e+00 1.033591e+00 9.530878e-01 8.590504e-01 7.564217e-01 6.500430e-01 5.443252e-01 4.429720e-01 3.487689e-01 2.636985e-01 1.889594e-01 1.251483e-01 7.237017e-02 3.035304e-02 -1.455912e-03 -2.382177e-02 -3.767504e-02 -4.404966e-02 -4.408319e-02 -3.895013e-02 -2.989165e-02 -1.815100e-02 
-6.156070e-03 1.158044e-02 2.797842e-02 4.156223e-02 5.084214e-02 5.433998e-02 5.056679e-02 3.806270e-02 1.536291e-02 -1.889665e-02 -6.604918e-02 -1.271556e-01 -2.031311e-01 -2.943153e-01 -4.006631e-01 -5.211720e-01 -6.541183e-01 -7.965652e-01 -9.445232e-01 -1.092825e+00 -1.234917e+00 -1.363224e+00 -1.468858e+00 -1.542699e+00 -1.576758e+00 -1.564974e+00 -1.505132e+00 -1.396330e+00 -1.236962e+00 -1.021517e+00 -7.428474e-01 -4.037130e-01 -2.628855e-02 3.485893e-01 6.784606e-01 9.375206e-01 1.122040e+00 1.244232e+00 1.318628e+00 1.356174e+00 1.362847e+00 1.340821e+00 1.291177e+00 1.215435e+00 1.117506e+00 1.002506e+00 8.768391e-01 7.468995e-01 6.184778e-01 4.963065e-01 3.837955e-01 2.832076e-01 1.957837e-01 1.219910e-01 6.173772e-02 1.450165e-02 -2.052052e-02 -4.434911e-02 -5.815958e-02 -6.321999e-02 -6.089544e-02 -5.257414e-02 -3.970834e-02 -2.374100e-02 
-7.426300e-03 1.580667e-02 3.754894e-02 5.614161e-02 6.990575e-02 7.716083e-02 7.620285e-02 6.533271e-02 4.282745e-02 7.038487e-03 -4.367039e-02 -1.106658e-01 -1.951671e-01 -2.977505e-01 -4.185513e-01 -5.565718e-01 -7.099677e-01 -8.754586e-01 -1.048556e+00 -1.223449e+00 -1.392575e+00 -1.546976e+00 -1.675365e+00 -1.765627e+00 -1.807072e+00 -1.792421e+00 -1.721721e+00 -1.599359e+00 -1.427541e+00 -1.195637e+00 -8.801373e-01 -4.704104e-01 5.597476e-03 4.799671e-01 8.807691e-01 1.170303e+00 1.354319e+00 1.464711e+00 1.528926e+00 1.561334e+00 1.566441e+00 1.542785e+00 1.487464e+00 1.399816e+00 1.283817e+00 1.145801e+00 9.942697e-01 8.378318e-01 6.841436e-01 5.392576e-01 4.072742e-01 2.906809e-01 1.906334e-01 1.073303e-01 4.035863e-02 -1.115472e-02 -4.833820e-02 -7.252179e-02 -8.516326e-02 -8.778942e-02 -8.200686e-02 -6.942359e-02 -5.170175e-02 -3.047822e-02 
-8.767743e-03 2.109858e-02 4.934348e-02 7.414145e-02 9.364073e-02 1.059682e-01 1.092140e-01 1.014370e-01 8.065538e-02 4.491796e-02 -7.725502e-03 -7.897922e-02 -1.703881e-01 -2.828054e-01 -4.165827e-01 -5.707689e-01 -7.434752e-01 -9.311775e-01 -1.129158e+00 -1.331382e+00 -1.529856e+00 -1.714641e+00 -1.871374e+00 -1.983047e+00 -2.033808e+00 -2.012902e+00 -1.924855e+00 -1.786850e+00 -1.614617e+00 -1.392367e+00 -1.059784e+00 -5.687571e-01 4.795164e-02 6.672283e-01 1.157640e+00 1.461506e+00 1.612441e+00 1.686202e+00 1.729888e+00 1.756750e+00 1.765602e+00 1.747131e+00 1.690560e+00 1.591834e+00 1.455782e+00 1.290863e+00 1.108790e+00 9.213937e-01 7.388800e-01 5.688874e-01 4.161927e-01 2.832812e-01 1.709890e-01 7.900052e-02 6.415344e-03 -4.811974e-02 -8.613733e-02 -1.093292e-01 -1.194690e-01 -1.183602e-01 -1.078617e-01 -8.980169e-02 -6.604795e-02 -3.842053e-02 
-1.019993e-02 2.753382e-02 6.354210e-02 9.585653e-02 1.224732e-01 1.413458e-01 1.503726e-01 1.473831e-01 1.301456e-01 9.641541e-02 4.393719e-02 -2.932473e-02 -1.252383e-01 -2.449535e-01 -3.890811e-01 -5.568251e-01 -7.464242e-01 -9.544579e-01 -1.176546e+00 -1.407555e+00 -1.640487e+00 -1.865987e+00 -2.065838e+00 -2.214172e+00 -2.284527e+00 -2.255355e+00 -2.132656e+00 -1.964669e+00 -1.810602e+00 -1.657664e+00 -1.355921e+00 -7.602388e-01 9.243941e-02 9.581665e-01 1.581350e+00 1.865390e+00 1.913881e+00 1.911817e+00 1.931925e+00 1.961652e+00 1.984849e+00 1.981596e+00 1.925660e+00 1.811222e+00 1.646938e+00 1.445338e+00 1.223109e+00 9.967689e-01 7.797652e-01 5.813751e-01 4.066247e-01 2.574367e-01 1.338033e-01 3.450464e-02 -4.210188e-02 -9.799522e-02 -1.351905e-01 -1.557787e-01 -1.618677e-01 -1.555448e-01 -1.389213e-01 -1.140410e-01 -8.296597e-02 -4.768454e-02 
-1.163422e-02 3.525070e-02 8.034070e-02 1.215541e-01 1.567663e-01 1.837834e-01 2.003437e-01 2.040723e-01 1.925308e-01 1.632157e-01 1.136341e-01 4.146084e-02 -5.543147e-02 -1.785135e-01 -3.287349e-01 -5.057206e-01 -7.082778e-01 -9.337921e-01 -1.179375e+00 -1.442753e+00 -1.721184e+00 -2.009903e+00 -2.286269e+00 -2.506443e+00 -2.624162e+00 -2.588511e+00 -2.396292e+00 -2.160472e+00 -2.050450e+00 -2.098269e+00 -1.942579e+00 -1.190164e+00 1.206778e-01 1.463711e+00 2.321796e+00 2.506333e+00 2.298648e+00 2.162679e+00 2.176755e+00 2.226164e+00 2.279673e+00 2.309189e+00 2.248264e+00 2.100459e+00 1.886529e+00 1.626332e+00 1.344255e+00 1.063911e+00 8.027689e-01 5.710824e-01 3.729011e-01 2.082069e-01 7.514118e-02 -2.912855e-02 -1.073536e-01 -1.623140e-01 -1.965666e-01 -2.126008e-01 -2.128476e-01 -1.996550e-01 -1.753699e-01 -1.422309e-01 -1.024740e-01 -5.823149e-02 
-1.306770e-02 4.427111e-02 9.978615e-02 1.513237e-01 1.966756e-01 2.335457e-01 2.595544e-01 2.721846e-01 2.688603e-01 2.469235e-01 2.037619e-01 1.369000e-01 4.405438e-02 -7.656822e-02 -2.264767e-01 -4.063061e-01 -6.164155e-01 -8.564145e-01 -1.126673e+00 -1.430818e+00 -1.775912e+00 -2.173064e+00 -2.598286e+00 -2.963157e+00 -3.200574e+00 -3.188576e+00 -2.833187e+00 -2.403280e+00 -2.364184e+00 -2.975346e+00 -3.265118e+00 -2.203076e+00 1.062486e-01 2.446197e+00 3.801305e+00 3.692402e+00 2.791236e+00 2.445992e+00 2.580369e+00 2.687947e+00 2.776809e+00 2.876115e+00 2.775459e+00 2.545512e+00 2.234699e+00 1.870073e+00 1.488520e+00 1.125568e+00 8.032415e-01 5.305568e-01 3.074290e-01 1.291318e-01 -9.994615e-03 -1.155236e-01 -1.918649e-01 -2.427839e-01 -2.713946e-01 -2.805289e-01 -2.728728e-01 -2.509772e-01 -2.173754e-01 -1.744644e-01 -1.246174e-01 -7.007804e-02 
-1.438315e-02 5.464883e-02 1.218794e-01 1.851305e-01 2.421646e-01 2.906387e-01 3.281320e-01 3.520725e-01 3.598873e-01 3.489231e-01 3.166892e-01 2.607713e-01 1.789533e-01 6.905493e-02 -7.140744e-02 -2.453411e-01 -4.566305e-01 -7.097326e-01 -1.010316e+00 -1.370018e+00 -1.811951e+00 -2.390278e+00 -3.108782e+00 -3.727450e+00 -4.206502e+00 -4.287915e+00 -3.533522e+00 -2.636791e+00 -2.642549e+00 -4.747220e+00 -6.196965e+00 -4.425400e+00 1.969141e-02 4.273403e+00 6.846816e+00 6.093570e+00 3.243471e+00 2.667821e+00 3.347703e+00 3.505299e+00 3.591863e+00 3.935312e+00 3.681990e+00 3.275773e+00 2.789385e+00 2.237312e+00 1.682693e+00 1.185819e+00 7.738877e-01 4.487996e-01 1.996987e-01 1.179672e-02 -1.276381e-01 -2.286659e-01 -2.980702e-01 -3.407465e-01 -3.603015e-01 -3.597388e-01 -3.418612e-01 -3.092927e-01 -2.646680e-01 -2.104721e-01 -1.491619e-01 -8.304405e-02 
-1.554966e-02 6.630107e-02 1.464299e-01 2.226982e-01 2.929010e-01 3.547351e-01 4.058326e-01 4.437203e-01 4.660125e-01 4.703424e-01 4.546574e-01 4.169902e-01 3.554609e-01 2.674856e-01 1.487884e-01 -7.999378e-03 -2.142607e-01 -4.842120e-01 -8.312097e-01 -1.268814e+00 -1.826418e+00 -2.662105e+00 -4.006620e+00 -4.966170e+00 -5.960085e+00 -7.221189e+00 -4.992851e+00 1.300778e+00 7.924824e+00 9.563968e+00 8.113720e+00 4.764180e+00 1.100808e-01 -4.656501e+00 -7.971334e+00 -8.793889e+00 -6.857167e+00 -5.668700e-01 4.932510e+00 4.926546e+00 4.690250e+00 6.004394e+00 5.163448e+00 4.453533e+00 3.709213e+00 2.828418e+00 1.967115e+00 1.248356e+00 7.025748e-01 3.101877e-01 3.586681e-02 -1.542480e-01 -2.849935e-01 -3.731591e-01 -4.286847e-01 -4.576357e-01 -4.638834e-01 -4.503246e-01 -4.196200e-01 -3.742808e-01 -3.168938e-01 -2.499355e-01 -1.758634e-01 -9.698584e-02 
-1.643831e-02 7.912935e-02 1.731239e-01 2.635154e-01 3.482161e-01 4.250626e-01 4.918867e-01 5.465018e-01 5.869982e-01 6.116352e-01 6.192810e-01 6.088582e-01 5.792913e-01 5.275236e-01 4.465059e-01 3.208719e-01 1.245975e-01 -1.774785e-01 -6.126883e-01 -1.172231e+00 -1.790708e+00 -2.736568e+00 -5.721514e+00 -7.879448e+00 -3.110042e+00 8.796292e+00 1.575343e+01 1.190041e+01 5.587869e+00 1.641518e+00 8.937491e-01 4.518265e-01 3.255034e-01 1.716983e-01 -8.112151e-01 -2.344520e+00 -5.385302e+00 -1.138269e+01 -1.559311e+01 -1.059203e+01 7.735642e-01 7.500483e+00 7.116566e+00 6.198166e+00 5.252159e+00 3.785282e+00 2.376798e+00 1.298470e+00 5.622278e-01 9.066675e-02 -2.014557e-01 -3.803527e-01 -4.889324e-01 -5.527651e-01 -5.854345e-01 -5.938513e-01 -5.817577e-01 -5.514632e-01 -5.051484e-01 -4.449200e-01 -3.731241e-01 -2.920823e-01 -2.041476e-01 -1.115476e-01 
-1.699559e-02 9.289056e-02 2.014260e-01 3.067772e-01 4.070652e-01 5.004076e-01 5.850027e-01 6.592222e-01 7.219496e-01 7.725261e-01 8.112028e-01 8.383414e-01 8.540823e-01 8.551442e-01 8.309534e-01 7.546674e-01 5.747641e-01 2.101322e-01 -4.174127e-01 -1.254865e+00 -1.761172e+00 -2.275816e+00 -3.391337e+00 5.256866e+00 1.259312e+01 9.688140e+00 -1.301128e+00 -1.196936e+01 -1.295863e+01 -1.167770e+01 -9.611586e+00 -6.028022e+00 2.970100e-01 6.361165e+00 1.053435e+01 1.211489e+01 1.356101e+01 1.242358e+01 3.232472e+00 -7.785012e+00 -1.530678e+01 -8.344853e+00 4.362880e+00 7.948981e+00 7.963177e+00 5.279255e+00 2.883261e+00 1.263471e+00 2.947802e-01 -2.450652e-01 -5.318764e-01 -6.770295e-01 -7.450154e-01 -7.702497e-01 -7.693501e-01 -7.493537e-01 -7.131896e-01 -6.620572e-01 -5.971923e-01 -5.199806e-01 -4.322597e-01 -3.360248e-01 -2.333822e-01 -1.263798e-01 
-1.711430e-02 1.072718e-01 2.306134e-01 3.513628e-01 4.679666e-01 5.789753e-01 6.831791e-01 7.797962e-01 8.689033e-01 9.513036e-01 1.029066e+00 1.104148e+00 1.178170e+00 1.247868e+00 1.300392e+00 1.298504e+00 1.159421e+00 7.153506e-01 -3.080616e-01 -2.074722e+00 -3.397623e+00 1.390269e-01 6.100345e+00 8.602552e+00 -1.806490e+00 -1.475210e+01 -1.789746e+01 -1.219290e+01 -1.748469e+00 4.073234e+00 4.676372e+00 2.638474e+00 1.069302e-01 -2.493168e+00 -3.488671e+00 -2.301883e+00 3.256443e+00 1.386853e+01 1.928312e+01 1.807497e+01 3.941678e+00 -1.245045e+01 -1.154295e+01 -8.112871e-01 8.185555e+00 7.282046e+00 3.183295e+00 9.157114e-01 -2.117631e-01 -7.397871e-01 -9.682120e-01 -1.046512e+00 -1.052458e+00 -1.023981e+00 -9.785638e-01 -9.220267e-01 -8.559355e-01 -7.798038e-01 -6.935474e-01 -5.974619e-01 -4.926037e-01 -3.804259e-01 -2.626268e-01 -1.409560e-01 
-1.674451e-02 1.218262e-01 2.597417e-01 3.958438e-01 5.290241e-01 6.584552e-01 7.837527e-01 9.053278e-01 1.024789e+00 1.144697e+00 1.268861e+00 1.400168e+00 1.540419e+00 1.685650e+00 1.824322e+00 1.925391e+00 1.912948e+00 1.567773e+00 1.806394e-01 -4.156005e+00 -2.547787e+00 2.061825e+00 8.720175e-01 -9.725762e+00 -1.599967e+01 -6.438046e+00 6.600705e+00 1.454950e+01 1.316020e+01 9.024682e+00 5.452757e+00 2.527760e+00 -7.001231e-03 -2.455319e+00 -4.834450e+00 -8.251836e+00 -1.307877e+01 -1.430301e+01 -8.651621e+00 6.501719e+00 1.964643e+01 1.154495e+01 -5.099346e+00 -9.894113e+00 -1.252723e+00 4.931088e+00 2.220629e+00 -2.466913e-01 -1.106399e+00 -1.409457e+00 -1.494182e+00 -1.471752e+00 -1.399490e+00 -1.306655e+00 -1.208221e+00 -1.108248e+00 -1.006857e+00 -9.018571e-01 -7.916021e-01 -6.750635e-01 -5.522265e-01 -4.237878e-01 -2.908496e-01 -1.547299e-01 
-1.584724e-02 1.359991e-01 2.876643e-01 4.384777e-01 5.879113e-01 7.359477e-01 8.832965e-01 1.031882e+00 1.185163e+00 1.347428e+00 1.523536e+00 1.714727e+00 1.918304e+00 2.122412e+00 2.313636e+00 2.491885e+00 2.716881e+00 3.191049e+00 2.328837e-01 -5.953199e+00 -1.206898e+00 -1.255828e+00 -6.778489e+00 -4.611440e+00 1.549045e+00 7.731209e+00 8.349574e+00 9.374060e+00 9.054230e+00 7.022976e+00 4.547747e+00 2.143860e+00 -1.052069e-01 -2.313403e+00 -4.592631e+00 -7.163753e+00 -9.668266e+00 -1.073235e+01 -1.120876e+01 -1.063911e+01 -1.575576e+00 1.080416e+01 1.104069e+01 -1.988625e-02 -3.483956e+00 6.616191e-01 -1.002110e+00 -2.935424e+00 -2.371359e+00 -2.131065e+00 -2.017830e+00 -1.899982e+00 -1.758117e+00 -1.602962e+00 -1.449375e+00 -1.301897e+00 -1.161253e+00 -1.024248e+00 -8.879444e-01 -7.498847e-01 -6.087666e-01 -4.643116e-01 -3.168326e-01 -1.670725e-01 
-1.442358e-02 1.491353e-01 3.130605e-01 4.772676e-01 6.419347e-01 8.080505e-01 9.776640e-01 1.154528e+00 1.344133e+00 1.552260e+00 1.783364e+00 2.032675e+00 2.283036e+00 2.493319e+00 2.606130e+00 2.585101e+00 2.573554e+00 -1.706062e-01 -7.157808e+00 -6.695172e+00 -3.378825e-01 -2.028796e+00 -2.106605e+00 3.560594e+00 5.440576e+00 5.276200e+00 6.027372e+00 6.530570e+00 6.321754e+00 5.194513e+00 3.541480e+00 1.697829e+00 -1.752171e-01 -2.044291e+00 -3.894545e+00 -5.673039e+00 -7.107317e+00 -7.773153e+00 -7.877330e+00 -7.522381e+00 -6.571520e+00 -2.582244e+00 3.836061e+00 4.824294e+00 8.662504e-01 5.736166e+00 4.503394e+00 -3.546946e+00 -3.007454e+00 -2.386314e+00 -2.313071e+00 -2.236087e+00 -2.085603e+00 -1.891693e+00 -1.689927e+00 -1.495143e+00 -1.313313e+00 -1.142325e+00 -9.786926e-01 -8.187060e-01 -6.596409e-01 -5.000529e-01 -3.392778e-01 -1.773330e-01 
-1.254016e-02 1.604803e-01 3.344729e-01 5.100222e-01 6.881284e-01 8.709540e-01 1.062103e+00 1.267399e+00 1.494473e+00 1.750310e+00 2.037817e+00 2.342901e+00 2.626710e+00 2.797211e+00 2.683385e+00 1.954773e+00 7.248279e-02 -7.384166e+00 -1.039839e+01 -5.664302e-01 3.391292e+00 -6.680444e-02 -1.281014e+00 -1.525980e-02 2.366272e+00 3.407483e+00 4.157350e+00 4.558561e+00 4.446933e+00 3.756669e+00 2.631286e+00 1.260953e+00 -2.069860e-01 -1.683753e+00 -3.090874e+00 -4.319860e+00 -5.198095e+00 -5.557702e+00 -5.438673e+00 -4.897029e+00 -3.919388e+00 -2.354665e+00 -8.662914e-01 8.761743e-01 -3.948744e+00 3.827619e-01 1.072768e+01 4.650616e+00 -9.871927e-01 -1.368154e+00 -2.211431e+00 -2.438672e+00 -2.363972e+00 -2.159765e+00 -1.919781e+00 -1.680060e+00 -1.456726e+00 -1.250956e+00 -1.059624e+00 -8.781005e-01 -7.021533e-01 -5.290241e-01 -3.568884e-01 -1.848982e-01 
-1.029453e-02 1.692349e-01 3.503772e-01 5.344461e-01 7.233534e-01 9.205526e-01 1.131333e+00 1.363692e+00 1.627283e+00 1.929915e+00 2.272554e+00 2.632708e+00 2.960593e+00 3.148443e+00 3.026428e+00 2.284153e+00 -2.680077e+00 -1.249788e+01 -4.985027e+00 7.032045e+00 3.516729e+00 -7.798340e-01 -1.678446e+00 -4.528177e-01 1.007358e+00 2.042005e+00 2.739567e+00 3.101410e+00 3.077530e+00 2.649087e+00 1.882533e+00 8.916036e-01 -2.080728e-01 -1.317631e+00 -2.342153e+00 -3.177728e+00 -3.714267e+00 -3.870782e+00 -3.653012e+00 -3.089921e+00 -2.198780e+00 -1.006367e+00 2.547774e-01 2.103267e+00 2.267435e-01 -8.841448e+00 4.364686e+00 1.311056e+01 1.597159e+00 -5.738136e-01 -2.258912e+00 -2.667011e+00 -2.625701e+00 -2.405564e+00 -2.130459e+00 -1.848313e+00 -1.584471e+00 -1.344416e+00 -1.126137e+00 -9.244055e-01 -7.334934e-01 -5.491860e-01 -3.683603e-01 -1.891690e-01 
-7.845215e-03 1.745822e-01 3.592659e-01 5.482833e-01 7.445076e-01 9.527375e-01 1.179954e+00 1.436205e+00 1.732552e+00 2.076447e+00 2.464807e+00 2.865326e+00 3.230174e+00 3.495706e+00 3.807332e+00 3.960454e+00 -1.143336e+01 -1.364211e+01 8.557735e+00 7.575953e+00 -2.309496e+00 -2.310295e+00 -1.990588e+00 -9.485574e-01 1.738991e-01 1.068105e+00 1.691128e+00 2.030181e+00 2.069915e+00 1.813347e+00 1.300132e+00 6.034215e-01 -1.890126e-01 -9.885931e-01 -1.707425e+00 -2.259679e+00 -2.570848e+00 -2.592519e+00 -2.316837e+00 -1.755759e+00 -9.238751e-01 1.606146e-01 1.436144e+00 2.860270e+00 5.264469e+00 -7.794927e+00 -1.086698e+01 1.216413e+01 1.145999e+01 -2.242248e+00 -3.526191e+00 -3.096796e+00 -2.888162e+00 -2.621887e+00 -2.312494e+00 -1.991608e+00 -1.689484e+00 -1.417011e+00 -1.173680e+00 -9.541037e-01 -7.510199e-01 -5.586766e-01 -3.725363e-01 -1.896537e-01 
-5.388468e-03 1.757283e-01 3.597153e-01 5.494096e-01 7.486556e-01 9.635799e-01 1.202766e+00 1.477984e+00 1.800674e+00 2.175534e+00 2.589050e+00 2.981575e+00 3.260465e+00 3.210389e+00 2.583931e+00 -3.097083e+00 -1.704292e+01 8.233524e-01 1.692802e+01 -5.026798e-01 -6.502275e+00 -4.052145e+00 -2.672975e+00 -1.488853e+00 -4.644556e-01 3.365718e-01 9.020900e-01 1.230745e+00 1.322771e+00 1.189298e+00 8.601900e-01 3.882769e-01 -1.599123e-01 -7.119865e-01 -1.195084e+00 -1.541639e+00 -1.696219e+00 -1.623472e+00 -1.309983e+00 -7.555048e-01 3.703329e-02 1.065223e+00 2.302694e+00 3.696801e+00 4.978702e+00 3.250081e+00 -1.549997e+01 -3.107187e+00 1.659952e+01 2.273342e+00 -2.544054e+00 -2.941349e+00 -2.977368e+00 -2.766296e+00 -2.451438e+00 -2.100415e+00 -1.764092e+00 -1.462413e+00 -1.197378e+00 -9.635456e-01 -7.521277e-01 -5.557405e-01 -3.683790e-01 -1.859519e-01 
-3.082613e-03 1.720150e-01 3.505244e-01 5.359969e-01 7.332125e-01 9.495602e-01 1.195122e+00 1.483157e+00 1.824780e+00 2.221330e+00 2.644629e+00 3.008780e+00 3.169802e+00 2.858984e+00 2.157111e+00 -1.471986e+01 -1.121536e+01 1.506728e+01 5.309432e+00 -9.384051e+00 -6.857311e+00 -4.750615e+00 -3.178049e+00 -1.940718e+00 -9.593662e-01 -2.134019e-01 3.158611e-01 6.410692e-01 7.735906e-01 7.301710e-01 5.366083e-01 2.334932e-01 -1.281425e-01 -4.912378e-01 -7.978069e-01 -9.952294e-01 -1.040158e+00 -9.031487e-01 -5.658194e-01 -1.760035e-02 7.518021e-01 1.760081e+00 3.034859e+00 4.674705e+00 7.094555e+00 1.180219e+01 -3.827844e+00 -1.727225e+01 1.090511e+01 1.503235e+01 -3.149390e+00 -2.784298e+00 -3.017957e+00 -2.871020e+00 -2.548141e+00 -2.168367e+00 -1.800384e+00 -1.473950e+00 -1.192184e+00 -9.491433e-01 -7.343794e-01 -5.388037e-01 -3.549890e-01 -1.777181e-01 
-1.166471e-03 1.628604e-01 3.307159e-01 5.065651e-01 6.960070e-01 9.075850e-01 1.152782e+00 1.446351e+00 1.799490e+00 2.211935e+00 2.643015e+00 2.994966e+00 3.084407e+00 2.784384e+00 1.435517e+00 -1.902136e+01 5.323606e-01 1.775046e+01 -7.502893e+00 -1.014717e+01 -7.247308e+00 -5.103602e+00 -3.489116e+00 -2.257357e+00 -1.312872e+00 -6.071459e-01 -1.043058e-01 2.191405e-01 3.814509e-01 4.026468e-01 3.065549e-01 1.262828e-01 -9.833893e-02 -3.229552e-01 -5.021961e-01 -5.949025e-01 -5.653985e-01 -3.873994e-01 -3.936084e-02 4.956966e-01 1.238517e+00 2.217549e+00 3.474474e+00 5.089726e+00 7.171101e+00 9.553637e+00 9.683443e+00 -1.813848e+01 -2.968218e+00 1.881937e+01 -2.069167e+00 -2.513245e+00 -3.055580e+00 -2.955600e+00 -2.596732e+00 -2.182736e+00 -1.786811e+00 -1.442982e+00 -1.152289e+00 -9.072478e-01 -6.955821e-01 -5.066596e-01 -3.317944e-01 -1.648349e-01 
3.259253e-04 1.480145e-01 2.997566e-01 4.601298e-01 6.353291e-01 8.348066e-01 1.071315e+00 1.361222e+00 1.717561e+00 2.141361e+00 2.588187e+00 2.941327e+00 2.898834e+00 1.940361e+00 -3.793572e+00 -1.501924e+01 1.046127e+01 1.272953e+01 -1.397789e+01 -9.830397e+00 -7.154708e+00 -5.126314e+00 -3.570149e+00 -2.393602e+00 -1.504361e+00 -8.449929e-01 -3.738181e-01 -6.071922e-02 1.162931e-01 1.790530e-01 1.495605e-01 5.523098e-02 -7.265842e-02 -1.998840e-01 -2.912303e-01 -3.144617e-01 -2.399355e-01 -4.383211e-02 2.970303e-01 8.037143e-01 1.503385e+00 2.430024e+00 3.631516e+00 5.189325e+00 7.208828e+00 9.999118e+00 1.412743e+01 -1.053165e+01 -1.250818e+01 1.417649e+01 6.330730e+00 -3.224402e+00 -3.330937e+00 -3.034581e+00 -2.578009e+00 -2.120445e+00 -1.707359e+00 -1.358830e+00 -1.071221e+00 -8.340338e-01 -6.336067e-01 -4.581773e-01 -2.982536e-01 -1.471041e-01 
1.186656e-03 1.273469e-01 2.574963e-01 3.963127e-01 5.501598e-01 7.289260e-01 9.461383e-01 1.219766e+00 1.566947e+00 1.996111e+00 2.484995e+00 2.943413e+00 3.126833e+00 2.429747e+00 -1.058988e+01 -8.081010e+00 1.277402e+01 2.463970e+00 -1.238423e+01 -9.065957e+00 -6.611105e+00 -4.780315e+00 -3.375708e+00 -2.313961e+00 -1.516045e+00 -9.262349e-01 -5.034307e-01 -2.161887e-01 -4.188632e-02 4.076793e-02 5.137310e-02 1.240354e-02 -5.178412e-02 -1.151405e-01 -1.507228e-01 -1.335403e-01 -3.924287e-02 1.531412e-01 4.660895e-01 9.217168e-01 1.548752e+00 2.381688e+00 3.464735e+00 4.856043e+00 6.594008e+00 8.692021e+00 1.050522e+01 4.612343e-01 -1.377412e+01 6.567770e+00 1.297222e+01 -4.582222e+00 -3.671642e+00 -2.999611e+00 -2.432994e+00 -1.948544e+00 -1.543148e+00 -1.211255e+00 -9.435535e-01 -7.270179e-01 -5.475447e-01 -3.932539e-01 -2.545825e-01 -1.247956e-01 
1.559654e-03 1.012818e-01 2.045635e-01 3.157001e-01 4.405889e-01 5.886384e-01 7.729681e-01 1.012100e+00 1.327316e+00 1.739067e+00 2.268949e+00 2.919779e+00 3.803939e+00 5.146580e+00 -1.277967e+01 -3.675039e+00 1.215738e+01 -4.230455e+00 -8.429241e+00 -7.084563e+00 -5.438176e+00 -4.016237e+00 -2.876776e+00 -2.002932e+00 -1.344007e+00 -8.571581e-01 -5.070371e-01 -2.658422e-01 -1.131665e-01 -3.048991e-02 -1.640066e-03 -9.181604e-03 -3.498100e-02 -6.004901e-02 -6.466331e-02 -3.026532e-02 6.205519e-02 2.295945e-01 4.918546e-01 8.693782e-01 1.387928e+00 2.079305e+00 2.979359e+00 4.133403e+00 5.571254e+00 7.313233e+00 9.402705e+00 7.406058e+00 -1.317090e+01 9.300681e-01 1.419751e+01 -4.103258e+00 -3.369332e+00 -2.644283e+00 -2.088560e+00 -1.638396e+00 -1.280331e+00 -9.934845e-01 -7.660793e-01 -5.850171e-01 -4.372398e-01 -3.121554e-01 -2.010868e-01 -9.804406e-02 
1.339805e-03 7.045330e-02 1.422654e-01 2.201235e-01 3.086392e-01 4.153854e-01 5.510645e-01 7.316993e-01 9.777749e-01 1.315083e+00 1.788507e+00 2.458987e+00 3.593914e+00 5.462076e+00 -1.063582e+01 -7.886691e-01 1.050771e+01 -6.042461e+00 -6.245503e+00 -5.063520e+00 -3.917168e+00 -2.914841e+00 -2.103204e+00 -1.477764e+00 -1.004540e+00 -6.553728e-01 -4.035649e-01 -2.287498e-01 -1.153300e-01 -4.970178e-02 -2.023023e-02 -1.491065e-02 -2.159331e-02 -2.776405e-02 -2.038522e-02 1.295171e-02 8.527992e-02 2.090407e-01 3.985432e-01 6.697933e-01 1.041789e+00 1.539993e+00 2.188406e+00 3.022930e+00 4.060335e+00 5.318316e+00 6.852389e+00 7.537183e+00 -1.025750e+01 -1.319846e+00 1.030501e+01 -3.912118e+00 -2.794510e+00 -2.022756e+00 -1.549941e+00 -1.191978e+00 -9.217501e-01 -7.087327e-01 -5.423482e-01 -4.112931e-01 -3.055930e-01 -2.171488e-01 -1.393655e-01 -6.769727e-02 
7.934344e-04 3.617483e-02 7.302221e-02 1.131767e-01 1.591887e-01 2.153267e-01 2.876671e-01 3.856768e-01 5.220266e-01 7.147581e-01 9.984377e-01 1.430046e+00 2.227988e+00 3.625017e+00 -5.918737e+00 -2.018656e-01 6.293480e+00 -3.487688e+00 -3.263295e+00 -2.652370e+00 -2.059502e+00 -1.536417e+00 -1.112182e+00 -7.850654e-01 -5.372064e-01 -3.544965e-01 -2.225235e-01 -1.305234e-01 -7.005443e-02 -3.390196e-02 -1.596770e-02 -1.011266e-02 -1.022631e-02 -1.007778e-02 -3.163745e-03 1.675651e-02 5.635589e-02 1.221756e-01 2.218206e-01 3.640395e-01 5.589803e-01 8.204557e-01 1.160722e+00 1.597029e+00 2.135553e+00 2.758993e+00 3.442079e+00 3.686300e+00 -6.300121e+00 -4.528887e-01 5.578352e+00 -3.081337e+00 -1.788949e+00 -1.150993e+00 -8.399921e-01 -6.326207e-01 -4.840112e-01 -3.697573e-01 -2.813979e-01 -2.124677e-01 -1.572421e-01 -1.114015e-01 -7.131506e-02 -3.455023e-02 
5.599586e-12 9.905454e-12 1.433995e-11 1.862764e-11 2.239672e-11 2.524804e-11 2.684368e-11 2.675636e-11 2.459524e-11 1.949087e-11 9.616558e-12 -9.334389e-12 -4.430223e-11 -8.661827e-11 -3.520884e-10 -3.203843e-10 -1.190067e-10 -8.420532e-11 1.360168e-11 4.316891e-11 5.210875e-11 5.187206e-11 4.659822e-11 3.934602e-11 3.184188e-11 2.505862e-11 1.940504e-11 1.477565e-11 1.114953e-11 8.165256e-12 5.835046e-12 3.913171e-12 2.407012e-12 1.297739e-12 5.279169e-13 4.764167e-14 -3.634929e-13 -1.080918e-12 -2.733907e-12 -5.918329e-12 -1.076512e-11 -1.657122e-11 -2.097586e-11 -1.995019e-11 -1.135360e-11 -2.343188e-12 -5.666302e-11 -4.254801e-10 -3.043378e-10 4.820594e-10 6.010971e-11 -5.773750e-10 -2.529807e-10 -1.872487e-11 2.461432e-11 2.467394e-11 1.499895e-11 5.941156e-12 -4.994638e-13 -3.948493e-12 -4.911266e-12 -3.951321e-12 -1.644007e-12 1.657605e-12 
-7.934344e-04 -3.617483e-02 -7.302221e-02 -1.131767e-01 -1.591887e-01 -2.153267e-01 -2.876671e-01 -3.856768e-01 -5.220266e-01 -7.147581e-01 -9.984377e-01 -1.430046e+00 -2.227988e+00 -3.625017e+00 5.918737e+00 2.018656e-01 -6.293480e+00 3.487688e+00 3.263295e+00 2.652370e+00 2.059502e+00 1.536417e+00 1.112182e+00 7.850654e-01 5.372064e-01 3.544965e-01 2.225235e-01 1.305234e-01 7.005443e-02 3.390196e-02 1.596770e-02 1.011266e-02 1.022631e-02 1.007778e-02 3.163745e-03 -1.675651e-02 -5.635589e-02 -1.221756e-01 -2.218206e-01 -3.640395e-01 -5.589803e-01 -8.204557e-01 -1.160722e+00 -1.597029e+00 -2.135553e+00 -2.758993e+00 -3.442079e+00 -3.686300e+00 6.300121e+00 4.528887e-01 -5.578352e+00 3.081337e+00 1.788949e+00 1.150993e+00 8.399921e-01 6.326207e-01 4.840112e-01 3.697573e-01 2.813979e-01 2.124677e-01 1.572421e-01 1.114015e-01 7.131506e-02 3.455023e-02 