# vtk DataFile Version 2.0
Comment goes here
ASCII

DATASET STRUCTURED_POINTS
FIELD FieldData 1
TIME 1 1 double
1.81000000
DIMENSIONS    64   64   1

ORIGIN    0.000   0.000   0.000
SPACING   0.015625 0.015625   1.000

POINT_DATA   4096
SCALARS Omega double
LOOKUP_TABLE default

7.693345e-14 1.881559e-13 3.316495e-13 5.308303e-13 7.627691e-13 1.038704e-12 1.421384e-12 1.889984e-12 2.469010e-12 3.174806e-12 4.068510e-12 5.121647e-12 6.343100e-12 7.771007e-12 9.349747e-12 1.107022e-11 1.292190e-11 1.481971e-11 1.667971e-11 1.841191e-11 1.993399e-11 2.111713e-11 2.183870e-11 2.206645e-11 2.167999e-11 2.060386e-11 1.885008e-11 1.643560e-11 1.334651e-11 9.671420e-12 5.583395e-12 1.137307e-12 -3.457132e-12 -7.999844e-12 -1.232797e-11 -1.627554e-11 -1.966044e-11 -2.238203e-11 -2.439384e-11 -2.561329e-11 -2.608440e-11 -2.581588e-11 -2.494398e-11 -2.352168e-11 -2.163125e-11 -1.948956e-11 -1.718064e-11 -1.481995e-11 -1.254609e-11 -1.043668e-11 -8.505961e-12 -6.799110e-12 -5.381942e-12 -4.179129e-12 -3.181843e-12 -2.387420e-12 -1.751011e-12 -1.246787e-12 -8.913183e-13 -6.127305e-13 -3.997912e-13 -2.426212e-13 -1.412731e-13 -3.678482e-14 
-6.340720e-04 1.008570e-03 2.440456e-03 3.436701e-03 3.771073e-03 3.225022e-03 1.580940e-03 -1.363146e-03 -5.803531e-03 -1.190534e-02 -1.981711e-02 -2.962993e-02 -4.139710e-02 -5.507766e-02 -7.056061e-02 -8.760185e-02 -1.058525e-01 -1.248102e-01 -1.438509e-01 -1.622215e-01 -1.790720e-01 -1.935014e-01 -2.045880e-01 -2.114619e-01 -2.133369e-01 -2.095562e-01 -1.996496e-01 -1.833330e-01 -1.606317e-01 -1.318902e-01 -9.792570e-02 -6.003096e-02 -1.995425e-02 2.026631e-02 5.858230e-02 9.319532e-02 1.227897e-01 1.465922e-01 1.643328e-01 1.761097e-01 1.822588e-01 1.832567e-01 1.796660e-01 1.721155e-01 1.612947e-01 1.479298e-01 1.327707e-01 1.165488e-01 9.994964e-02 8.358409e-02 6.796230e-02 5.349296e-02 4.046854e-02 2.908541e-02 1.943867e-02 1.155113e-02 5.371801e-03 8.048318e-04 -2.292961e-03 -4.087625e-03 -4.772792e-03 -4.551044e-03 -3.639910e-03 -2.258632e-03 
-1.301067e-03 2.129865e-03 5.139970e-03 7.279918e-03 8.097603e-03 7.155716e-03 4.018456e-03 -1.719850e-03 -1.045435e-02 -2.251968e-02 -3.821880e-02 -5.774211e-02 -8.120655e-02 -1.085425e-01 -1.395423e-01 -1.737324e-01 -2.104293e-01 -2.486404e-01 -2.871242e-01 -3.243752e-01 -3.586838e-01 -3.882300e-01 -4.111383e-01 -4.256278e-01 -4.300737e-01 -4.231005e-01 -4.036922e-01 -3.711934e-01 -3.255562e-01 -2.673895e-01 -1.982981e-01 -1.209387e-01 -3.899162e-02 4.319549e-02 1.212451e-01 1.913564e-01 2.508275e-01 2.981804e-01 3.330286e-01 3.557450e-01 3.671457e-01 3.682786e-01 3.603163e-01 3.445350e-01 3.223165e-01 2.951129e-01 2.644197e-01 2.316969e-01 1.983076e-01 1.654650e-01 1.341775e-01 1.052508e-01 7.925762e-02 5.657996e-02 3.739889e-02 2.175236e-02 9.532748e-03 5.438906e-04 -5.503513e-03 -8.943703e-03 -1.016512e-02 -9.573622e-03 -7.604391e-03 -4.695783e-03 
-2.019952e-03 3.492009e-03 8.374503e-03 1.195482e-02 1.355597e-02 1.252161e-02 8.196876e-03 -3.095051e-05 -1.276082e-02 -3.050591e-02 -5.373559e-02 -8.275705e-02 -1.177727e-01 -1.587112e-01 -2.052996e-01 -2.568667e-01 -3.124286e-01 -3.705261e-01 -4.293209e-01 -4.865530e-01 -5.396373e-01 -5.857889e-01 -6.221086e-01 -6.458092e-01 -6.543089e-01 -6.453819e-01 -6.173201e-01 -5.689142e-01 -4.998489e-01 -4.107992e-01 -3.040708e-01 -1.838103e-01 -5.603271e-02 7.198769e-02 1.928990e-01 3.004403e-01 3.903867e-01 4.607318e-01 5.113325e-01 5.432187e-01 5.579881e-01 5.574479e-01 5.434687e-01 5.180062e-01 4.831448e-01 4.410608e-01 3.939995e-01 3.441429e-01 2.935239e-01 2.439393e-01 1.968724e-01 1.534986e-01 1.146441e-01 8.085157e-02 5.236698e-02 2.922645e-02 1.125268e-02 -1.860237e-03 -1.055438e-02 -1.533635e-02 -1.679193e-02 -1.553136e-02 -1.220761e-02 -7.477605e-03 
-2.834163e-03 5.198609e-03 1.239591e-02 1.786367e-02 2.070174e-02 2.003500e-02 1.498852e-02 4.738143e-03 -1.152616e-02 -3.450945e-02 -6.486640e-02 -1.030484e-01 -1.493789e-01 -2.038291e-01 -2.661131e-01 -3.354179e-01 -4.105143e-01 -4.895249e-01 -5.700427e-01 -6.490610e-01 -7.230839e-01 -7.882927e-01 -8.406349e-01 -8.761489e-01 -8.910889e-01 -8.821698e-01 -8.467609e-01 -7.828525e-01 -6.895388e-01 -5.672425e-01 -4.187647e-01 -2.499104e-01 -6.968417e-02 1.106546e-01 2.796506e-01 4.277826e-01 5.490886e-01 6.414015e-01 7.054913e-01 7.437116e-01 7.589162e-01 7.539195e-01 7.313799e-01 6.939547e-01 6.444377e-01 5.857498e-01 5.209030e-01 4.528199e-01 3.841937e-01 3.173850e-01 2.543107e-01 1.964709e-01 1.448983e-01 1.002530e-01 6.281039e-02 3.257556e-02 9.280544e-03 -7.506209e-03 -1.838959e-02 -2.405547e-02 -2.529041e-02 -2.291079e-02 -1.778724e-02 -1.079435e-02 
-3.744493e-03 7.398245e-03 1.750371e-02 2.545988e-02 3.014700e-02 3.047219e-02 2.534046e-02 1.371073e-02 -5.447016e-03 -3.304864e-02 -6.996032e-02 -1.168188e-01 -1.741212e-01 -2.419499e-01 -3.200869e-01 -4.076628e-01 -5.032940e-01 -6.047499e-01 -7.091095e-01 -8.126129e-01 -9.108126e-01 -9.987297e-01 -1.070954e+00 -1.122064e+00 -1.146815e+00 -1.140576e+00 -1.099560e+00 -1.020685e+00 -9.020633e-01 -7.432826e-01 -5.471209e-01 -3.211002e-01 -7.819295e-02 1.645541e-01 3.896216e-01 5.829183e-01 7.365460e-01 8.489755e-01 9.230903e-01 9.635977e-01 9.752333e-01 9.620564e-01 9.275203e-01 8.749473e-01 8.078549e-01 7.299487e-01 6.450963e-01 5.570155e-01 4.690905e-01 3.842232e-01 3.047126e-01 2.323111e-01 1.681817e-01 1.130318e-01 6.710690e-02 3.033423e-02 2.320482e-03 -1.751554e-02 -2.995765e-02 -3.588028e-02 -3.627578e-02 -3.216816e-02 -2.464501e-02 -1.479641e-02 
-4.800618e-03 1.018950e-02 2.394707e-02 3.514801e-02 4.245833e-02 4.457069e-02 4.017087e-02 2.799579e-02 6.783996e-03 -2.461485e-02 -6.731491e-02 -1.221943e-01 -1.899994e-01 -2.710214e-01 -3.652254e-01 -4.718122e-01 -5.893611e-01 -7.153879e-01 -8.464981e-01 -9.781781e-01 -1.104927e+00 -1.220441e+00 -1.317624e+00 -1.389142e+00 -1.427737e+00 -1.427104e+00 -1.382199e+00 -1.288924e+00 -1.144007e+00 -9.452522e-01 -6.941057e-01 -3.994132e-01 -7.944976e-02 2.400564e-01 5.322453e-01 7.763109e-01 9.623478e-01 1.091251e+00 1.170255e+00 1.207958e+00 1.211572e+00 1.186274e+00 1.136000e+00 1.064535e+00 9.761231e-01 8.754164e-01 7.673430e-01 6.566116e-01 5.473869e-01 4.431243e-01 3.464358e-01 2.592242e-01 1.826698e-01 1.174202e-01 6.360324e-02 2.099750e-02 -1.096565e-02 -3.305330e-02 -4.625019e-02 -5.163328e-02 -5.040663e-02 -4.380407e-02 -3.312824e-02 -1.968143e-02 
-5.979449e-03 1.374096e-02 3.204347e-02 4.740077e-02 5.827420e-02 6.314740e-02 6.049110e-02 4.881443e-02 2.661272e-02 -7.530685e-03 -5.502378e-02 -1.170642e-01 -1.947479e-01 -2.887120e-01 -3.992608e-01 -5.258304e-01 -6.671170e-01 -8.204678e-01 -9.820498e-01 -1.146500e+00 -1.307142e+00 -1.456096e+00 -1.584161e+00 -1.681392e+00 -1.737691e+00 -1.744877e+00 -1.697203e+00 -1.590322e+00 -1.419564e+00 -1.179149e+00 -8.658700e-01 -4.880518e-01 -7.094935e-02 3.457395e-01 7.197118e-01 1.019940e+00 1.235303e+00 1.373206e+00 1.449306e+00 1.478204e+00 1.469837e+00 1.429552e+00 1.360611e+00 1.266701e+00 1.152803e+00 1.024786e+00 8.891435e-01 7.519835e-01 6.185219e-01 4.928389e-01 3.777970e-01 2.753085e-01 1.864086e-01 1.115291e-01 5.054985e-02 2.998606e-03 -3.194341e-02 -5.527940e-02 -6.822784e-02 -7.208577e-02 -6.827731e-02 -5.824709e-02 -4.350928e-02 -2.557225e-02 
-7.330231e-03 1.814384e-02 4.202867e-02 6.260801e-02 7.815164e-02 8.694521e-02 8.725018e-02 7.734518e-02 5.546629e-02 1.989436e-02 -3.113479e-02 -9.923530e-02 -1.859873e-01 -2.925484e-01 -4.197606e-01 -5.675010e-01 -7.347283e-01 -9.186874e-01 -1.114983e+00 -1.317224e+00 -1.517253e+00 -1.705451e+00 -1.870019e+00 -1.997278e+00 -2.072800e+00 -2.086306e+00 -2.033455e+00 -1.913562e+00 -1.722285e+00 -1.446636e+00 -1.069509e+00 -5.924908e-01 -5.022249e-02 4.931958e-01 9.678330e-01 1.325707e+00 1.557378e+00 1.687489e+00 1.748806e+00 1.764021e+00 1.743862e+00 1.690328e+00 1.603253e+00 1.485232e+00 1.342101e+00 1.181633e+00 1.012858e+00 8.441806e-01 6.823976e-01 5.324146e-01 3.972850e-01 2.787458e-01 1.774682e-01 9.345266e-02 2.615669e-02 -2.528395e-02 -6.203760e-02 -8.541466e-02 -9.691019e-02 -9.806721e-02 -9.053965e-02 -7.598493e-02 -5.612268e-02 -3.265858e-02 
-8.799909e-03 2.357424e-02 5.420821e-02 8.121635e-02 1.026980e-01 1.167553e-01 1.214534e-01 1.148365e-01 9.486851e-02 5.947987e-02 6.481883e-03 -6.628152e-02 -1.610284e-01 -2.796546e-01 -4.237635e-01 -5.938921e-01 -7.893771e-01 -1.007257e+00 -1.242238e+00 -1.486299e+00 -1.729454e+00 -1.960378e+00 -2.164640e+00 -2.323146e+00 -2.413593e+00 -2.423950e+00 -2.357371e+00 -2.225377e+00 -2.030338e+00 -1.745839e+00 -1.318426e+00 -7.260126e-01 -1.479741e-02 7.033024e-01 1.303715e+00 1.709257e+00 1.922005e+00 2.009288e+00 2.036794e+00 2.035431e+00 2.011746e+00 1.956573e+00 1.859308e+00 1.720256e+00 1.546546e+00 1.348784e+00 1.140446e+00 9.338909e-01 7.385564e-01 5.605562e-01 4.030956e-01 2.674917e-01 1.537608e-01 6.119649e-02 -1.139484e-02 -6.544492e-02 -1.026032e-01 -1.245744e-01 -1.331882e-01 -1.302640e-01 -1.176986e-01 -9.736194e-02 -7.116978e-02 -4.101129e-02 
-1.042761e-02 3.010141e-02 6.876589e-02 1.035404e-01 1.323802e-01 1.532295e-01 1.639711e-01 1.624198e-01 1.462473e-01 1.129901e-01 5.994799e-02 -1.570277e-02 -1.169996e-01 -2.467948e-01 -4.076913e-01 -6.010850e-01 -8.266974e-01 -1.081067e+00 -1.357098e+00 -1.644089e+00 -1.929417e+00 -2.201431e+00 -2.444705e+00 -2.632239e+00 -2.725042e+00 -2.705576e+00 -2.594758e+00 -2.441858e+00 -2.284970e+00 -2.074616e+00 -1.654251e+00 -9.301001e-01 3.484545e-02 1.022088e+00 1.789433e+00 2.202585e+00 2.299728e+00 2.266946e+00 2.238230e+00 2.232301e+00 2.233204e+00 2.206642e+00 2.118784e+00 1.969353e+00 1.767685e+00 1.528537e+00 1.273187e+00 1.021012e+00 7.857970e-01 5.753943e-01 3.930401e-01 2.392643e-01 1.130585e-01 1.267307e-02 -6.399189e-02 -1.191408e-01 -1.550503e-01 -1.739272e-01 -1.780022e-01 -1.694117e-01 -1.503094e-01 -1.227785e-01 -8.891695e-02 -5.077865e-02 
-1.212729e-02 3.787650e-02 8.592817e-02 1.298995e-01 1.676410e-01 1.969678e-01 2.156076e-01 2.211476e-01 2.109612e-01 1.821377e-01 1.314020e-01 5.513060e-02 -5.066251e-02 -1.899891e-01 -3.666025e-01 -5.829015e-01 -8.388674e-01 -1.129906e+00 -1.445610e+00 -1.770213e+00 -2.087355e+00 -2.388704e+00 -2.665325e+00 -2.879423e+00 -2.949599e+00 -2.845948e+00 -2.627866e+00 -2.417129e+00 -2.370186e+00 -2.422898e+00 -2.156753e+00 -1.293651e+00 9.424519e-02 1.538845e+00 2.538925e+00 2.856340e+00 2.620254e+00 2.326596e+00 2.230958e+00 2.251529e+00 2.332999e+00 2.400235e+00 2.356517e+00 2.219861e+00 2.001133e+00 1.718671e+00 1.408076e+00 1.101468e+00 8.196625e-01 5.727133e-01 3.634380e-01 1.909684e-01 5.278520e-02 -5.424746e-02 -1.333879e-01 -1.877886e-01 -2.204998e-01 -2.343278e-01 -2.319783e-01 -2.159432e-01 -1.886489e-01 -1.523880e-01 -1.094214e-01 -6.194122e-02 
-1.391620e-02 4.691454e-02 1.057500e-01 1.604113e-01 2.086896e-01 2.483162e-01 2.768903e-01 2.917925e-01 2.900859e-01 2.683949e-01 2.228136e-01 1.488791e-01 4.159136e-02 -1.042310e-01 -2.935185e-01 -5.296360e-01 -8.126661e-01 -1.136223e+00 -1.484357e+00 -1.832413e+00 -2.156901e+00 -2.463012e+00 -2.771391e+00 -3.036901e+00 -3.074778e+00 -2.812912e+00 -2.332161e+00 -1.870476e+00 -2.022527e+00 -2.835464e+00 -3.101506e+00 -2.090695e+00 1.447868e-01 2.484320e+00 3.853083e+00 3.835489e+00 2.689663e+00 1.876539e+00 1.856809e+00 2.002482e+00 2.239371e+00 2.515824e+00 2.547711e+00 2.460381e+00 2.244963e+00 1.915679e+00 1.537164e+00 1.164995e+00 8.301998e-01 5.442741e-01 3.080507e-01 1.180500e-01 -3.037449e-02 -1.420331e-01 -2.214580e-01 -2.728356e-01 -3.000586e-01 -3.066093e-01 -2.957194e-01 -2.702781e-01 -2.329930e-01 -1.863623e-01 -1.327826e-01 -7.455025e-02 
-1.568006e-02 5.728471e-02 1.282688e-01 1.951024e-01 2.555784e-01 3.073912e-01 3.480559e-01 3.747637e-01 3.842915e-01 3.727942e-01 3.357906e-01 2.680405e-01 1.637632e-01 1.687825e-02 -1.782622e-01 -4.257703e-01 -7.258118e-01 -1.070408e+00 -1.436587e+00 -1.784333e+00 -2.074735e+00 -2.343326e+00 -2.704565e+00 -3.123518e+00 -3.138683e+00 -2.661695e+00 -1.697205e+00 -3.696517e-01 -6.514081e-01 -3.332215e+00 -4.845107e+00 -3.761882e+00 1.625400e-01 4.145221e+00 6.079082e+00 5.443945e+00 2.025953e+00 3.301511e-01 1.089696e+00 1.450150e+00 1.835507e+00 2.600908e+00 2.657364e+00 2.683454e+00 2.506576e+00 2.114587e+00 1.641877e+00 1.188338e+00 7.964252e-01 4.742137e-01 2.161305e-01 1.374272e-02 -1.405184e-01 -2.531029e-01 -3.296256e-01 -3.750934e-01 -3.941612e-01 -3.909498e-01 -3.692329e-01 -3.323089e-01 -2.831692e-01 -2.245039e-01 -1.588112e-01 -8.844805e-02 
-1.740260e-02 6.889858e-02 1.532986e-01 2.337134e-01 3.080018e-01 3.738870e-01 4.288392e-01 4.699097e-01 4.936186e-01 4.957480e-01 4.713890e-01 4.149046e-01 3.203188e-01 1.816858e-01 -6.234980e-03 -2.473581e-01 -5.427427e-01 -8.860292e-01 -1.250462e+00 -1.573154e+00 -1.772387e+00 -1.937560e+00 -2.447437e+00 -3.348417e+00 -3.419497e+00 -3.546817e+00 -2.454058e+00 3.693829e+00 1.028981e+01 1.118042e+01 9.546259e+00 5.732116e+00 6.946496e-01 -4.548264e+00 -8.227033e+00 -9.578543e+00 -8.572124e+00 -3.012432e+00 2.454145e+00 1.411614e+00 8.965607e-01 3.065144e+00 2.644299e+00 2.954548e+00 2.861671e+00 2.329279e+00 1.692622e+00 1.128878e+00 6.803842e-01 3.350026e-01 7.003672e-02 -1.323444e-01 -2.833815e-01 -3.904671e-01 -4.593659e-01 -4.952166e-01 -5.030021e-01 -4.872956e-01 -4.523184e-01 -4.017652e-01 -3.388863e-01 -2.665468e-01 -1.873011e-01 -1.035154e-01 
-1.895686e-02 8.166902e-02 1.805514e-01 2.757721e-01 3.653332e-01 4.470468e-01 5.183965e-01 5.763393e-01 6.172375e-01 6.366595e-01 6.296814e-01 5.909614e-01 5.157036e-01 4.000674e-01 2.420483e-01 4.002821e-02 -2.093567e-01 -5.123540e-01 -8.583332e-01 -1.161040e+00 -1.214156e+00 -1.139469e+00 -2.128800e+00 -5.413141e+00 -1.862396e+00 1.210988e+01 1.965674e+01 1.534453e+01 8.204614e+00 4.011688e+00 2.469156e+00 1.427415e+00 6.426740e-01 -4.595131e-01 -1.530221e+00 -3.791871e+00 -6.231749e+00 -1.262781e+01 -1.774680e+01 -1.325334e+01 -9.312722e-01 4.381461e+00 2.195274e+00 3.550774e+00 3.556868e+00 2.606061e+00 1.634718e+00 9.101439e-01 4.182441e-01 8.357688e-02 -1.557905e-01 -3.337864e-01 -4.653721e-01 -5.565266e-01 -6.110419e-01 -6.325832e-01 -6.255604e-01 -5.944988e-01 -5.438490e-01 -4.776089e-01 -3.992414e-01 -3.117533e-01 -2.177047e-01 -1.194113e-01 
-2.028532e-02 9.535111e-02 2.094834e-01 3.204506e-01 4.264696e-01 5.255147e-01 6.151291e-01 6.922660e-01 7.532574e-01 7.938043e-01 8.095938e-01 7.968638e-01 7.541022e-01 6.831910e-01 5.903416e-01 4.819808e-01 3.514860e-01 1.564423e-01 -1.742586e-01 -5.814409e-01 -4.722959e-01 -6.533237e-01 2.232268e-01 9.603667e+00 1.746487e+01 1.429454e+01 1.428885e+00 -9.721348e+00 -1.213864e+01 -1.093266e+01 -9.169233e+00 -5.831885e+00 1.736632e-01 6.028184e+00 1.009038e+01 1.163390e+01 1.312969e+01 1.184785e+01 3.184266e+00 -9.471261e+00 -1.697962e+01 -1.100177e+01 9.111713e-01 5.605782e+00 5.243923e+00 3.017686e+00 1.356991e+00 4.021423e-01 -8.789926e-02 -3.410482e-01 -4.951389e-01 -6.075573e-01 -6.939090e-01 -7.536576e-01 -7.844769e-01 -7.858997e-01 -7.601222e-01 -7.108069e-01 -6.421879e-01 -5.584043e-01 -4.630350e-01 -3.591868e-01 -2.493664e-01 -1.357747e-01 
-2.127342e-02 1.096348e-01 2.393681e-01 3.666071e-01 4.898582e-01 6.073151e-01 7.166429e-01 8.148853e-01 8.985819e-01 9.640413e-01 1.008584e+00 1.031718e+00 1.038298e+00 1.040701e+00 1.061780e+00 1.128329e+00 1.240651e+00 1.286753e+00 9.356890e-01 -9.723995e-02 -1.508307e+00 4.167669e+00 1.252351e+01 1.402666e+01 2.010621e+00 -1.306141e+01 -1.784990e+01 -1.244853e+01 -2.716607e+00 2.898601e+00 4.071530e+00 2.490216e+00 1.728584e-01 -2.115574e+00 -3.104138e+00 -1.504378e+00 2.907961e+00 1.297087e+01 1.879312e+01 1.776592e+01 3.097657e+00 -1.443715e+01 -1.545669e+01 -3.591439e+00 6.466812e+00 3.415813e+00 5.969440e-01 -6.053112e-01 -9.688467e-01 -1.008073e+00 -9.813983e-01 -9.681680e-01 -9.739740e-01 -9.819262e-01 -9.774271e-01 -9.519682e-01 -9.033332e-01 -8.330759e-01 -7.445773e-01 -6.418333e-01 -5.284011e-01 -4.074281e-01 -2.813075e-01 -1.520619e-01 
-2.182769e-02 1.240853e-01 2.692401e-01 4.127395e-01 5.534358e-01 6.897992e-01 8.196641e-01 9.403161e-01 1.048813e+00 1.142806e+00 1.222557e+00 1.293025e+00 1.368636e+00 1.477227e+00 1.667641e+00 2.010896e+00 2.563909e+00 3.180269e+00 2.930265e+00 -2.478844e+00 1.087338e+00 9.807123e+00 4.973977e+00 -8.575579e+00 -1.610218e+01 -7.658975e+00 6.754275e+00 1.466322e+01 1.308595e+01 9.139783e+00 6.011211e+00 3.011802e+00 6.533505e-02 -2.837083e+00 -5.537792e+00 -8.430155e+00 -1.321927e+01 -1.539036e+01 -1.036953e+01 5.863658e+00 1.875803e+01 1.275706e+01 -5.705324e+00 -1.455911e+01 -4.092870e+00 1.628882e+00 -1.125016e+00 -2.397804e+00 -2.357152e+00 -1.966458e+00 -1.630622e+00 -1.420606e+00 -1.305919e+00 -1.239091e+00 -1.186063e+00 -1.126325e+00 -1.050714e+00 -9.572141e-01 -8.474797e-01 -7.249677e-01 -5.930179e-01 -4.547393e-01 -3.123538e-01 -1.676442e-01 
-2.187692e-02 1.381471e-01 2.979145e-01 4.570105e-01 6.146787e-01 7.696984e-01 9.201342e-01 1.063692e+00 1.198407e+00 1.324238e+00 1.446113e+00 1.576757e+00 1.742750e+00 1.988182e+00 2.388537e+00 3.081369e+00 4.311048e+00 6.358007e+00 2.269361e+00 -3.225838e+00 6.892800e+00 3.596963e+00 -7.137628e+00 -4.384026e+00 1.993882e+00 8.316461e+00 8.577700e+00 9.508027e+00 9.202419e+00 7.326932e+00 5.059282e+00 2.558428e+00 -6.191602e-02 -2.676203e+00 -5.160503e+00 -7.584550e+00 -1.004048e+01 -1.116379e+01 -1.132363e+01 -1.214643e+01 -3.778812e+00 8.935248e+00 1.203075e+01 -1.318323e+00 -8.282778e+00 -1.286971e+00 -2.798510e+00 -5.328100e+00 -4.289542e+00 -3.170271e+00 -2.406124e+00 -1.947421e+00 -1.682164e+00 -1.519759e+00 -1.404903e+00 -1.303136e+00 -1.196590e+00 -1.078093e+00 -9.465116e-01 -8.042269e-01 -6.540864e-01 -4.990600e-01 -3.411389e-01 -1.818140e-01 
-2.132749e-02 1.512014e-01 3.240509e-01 4.973272e-01 6.706820e-01 8.432201e-01 1.013280e+00 1.179213e+00 1.340588e+00 1.500886e+00 1.671790e+00 1.876302e+00 2.154295e+00 2.557853e+00 3.152317e+00 4.070194e+00 5.768087e+00 4.705558e+00 -3.568662e+00 1.344718e-01 5.553979e+00 -3.522703e+00 -1.128934e+00 5.167806e+00 4.643558e+00 5.451787e+00 6.299738e+00 6.762284e+00 6.543448e+00 5.478114e+00 3.890261e+00 1.958578e+00 -1.544543e-01 -2.282755e+00 -4.273088e+00 -6.034917e+00 -7.457208e+00 -8.152664e+00 -8.226785e+00 -7.930086e+00 -6.564230e+00 -6.946024e+00 3.454557e-01 5.599952e+00 -2.753610e+00 5.705391e-01 3.836878e+00 -4.435915e+00 -6.434629e+00 -4.315882e+00 -3.167382e+00 -2.499203e+00 -2.086332e+00 -1.815913e+00 -1.626973e+00 -1.475351e+00 -1.334203e+00 -1.189649e+00 -1.036531e+00 -8.754244e-01 -7.083542e-01 -5.380055e-01 -3.660866e-01 -1.937529e-01 
-2.018086e-02 1.624982e-01 3.461325e-01 5.313590e-01 7.182321e-01 9.061637e-01 1.093806e+00 1.280360e+00 1.467546e+00 1.663715e+00 1.889730e+00 2.182440e+00 2.598728e+00 3.190871e+00 3.943591e+00 4.614622e+00 4.326412e+00 -3.137927e+00 -5.977127e+00 3.812240e+00 2.909049e+00 -2.449662e+00 -9.372469e-01 6.214515e-01 2.681653e+00 3.771019e+00 4.473538e+00 4.803001e+00 4.650764e+00 3.964282e+00 2.843258e+00 1.409431e+00 -1.933859e-01 -1.813404e+00 -3.304917e+00 -4.547142e+00 -5.430021e+00 -5.817248e+00 -5.728491e+00 -5.257907e+00 -4.381250e+00 -3.505003e+00 -2.384681e+00 8.937634e-01 -3.993693e+00 -5.506395e+00 6.283193e+00 4.383531e+00 -4.380671e+00 -4.615364e+00 -3.715161e+00 -3.038242e+00 -2.512954e+00 -2.123769e+00 -1.846605e+00 -1.636303e+00 -1.456879e+00 -1.285856e+00 -1.112373e+00 -9.343563e-01 -7.525542e-01 -5.691995e-01 -3.856559e-01 -2.027052e-01 
-1.842098e-02 1.712810e-01 3.626152e-01 5.567273e-01 7.540416e-01 9.542329e-01 1.156251e+00 1.360294e+00 1.570637e+00 1.801524e+00 2.084942e+00 2.475121e+00 3.058065e+00 3.918615e+00 5.073888e+00 6.152098e+00 -6.226815e-01 -9.482854e+00 -6.474528e-01 8.675579e+00 3.768314e+00 -1.177314e+00 -1.268637e+00 3.456062e-01 1.618689e+00 2.489853e+00 3.052514e+00 3.315774e+00 3.233687e+00 2.782631e+00 2.001727e+00 9.732089e-01 -1.922835e-01 -1.370228e+00 -2.437573e+00 -3.287588e+00 -3.834952e+00 -4.017270e+00 -3.836352e+00 -3.326174e+00 -2.492096e+00 -1.371282e+00 3.402296e-01 3.271166e+00 1.293179e+00 -1.051932e+01 -3.809141e+00 1.074061e+01 3.069321e+00 -4.386652e+00 -4.184641e+00 -3.631854e+00 -2.972988e+00 -2.436451e+00 -2.053691e+00 -1.776574e+00 -1.556597e+00 -1.359945e+00 -1.168471e+00 -9.765360e-01 -7.832278e-01 -5.901376e-01 -3.982235e-01 -2.078733e-01 
-1.613026e-02 1.767399e-01 3.719255e-01 5.710367e-01 7.748154e-01 9.831206e-01 1.195146e+00 1.412021e+00 1.640630e+00 1.901055e+00 2.236171e+00 2.715619e+00 3.456250e+00 4.600507e+00 6.439892e+00 6.306430e+00 -1.082629e+01 -7.482385e+00 1.216141e+01 6.502491e+00 -1.161769e+00 -2.113653e+00 -1.193653e+00 -1.250484e-01 7.860909e-01 1.480044e+00 1.954045e+00 2.195162e+00 2.177678e+00 1.894060e+00 1.366113e+00 6.512111e-01 -1.681874e-01 -9.951621e-01 -1.732192e+00 -2.294362e+00 -2.617497e+00 -2.663152e+00 -2.420174e+00 -1.894977e+00 -1.079268e+00 5.504247e-02 1.641326e+00 3.832536e+00 5.226460e+00 -4.765495e+00 -1.593507e+01 2.631035e+00 1.258736e+01 -2.186635e+00 -5.926446e+00 -4.432653e+00 -3.449636e+00 -2.727292e+00 -2.230876e+00 -1.885682e+00 -1.626053e+00 -1.406321e+00 -1.200218e+00 -9.982044e-01 -7.974291e-01 -5.986659e-01 -4.024094e-01 -2.086145e-01 
-1.346432e-02 1.780634e-01 3.725687e-01 5.720637e-01 7.775483e-01 9.890050e-01 1.205763e+00 1.429726e+00 1.669881e+00 1.951347e+00 2.324690e+00 2.866172e+00 3.693285e+00 4.874403e+00 6.580558e+00 -3.066775e+00 -1.362867e+01 7.243187e+00 1.514078e+01 -2.647543e+00 -6.145581e+00 -3.380492e+00 -1.893845e+00 -8.122964e-01 2.234929e-02 6.545347e-01 1.097303e+00 1.346507e+00 1.392616e+00 1.236788e+00 8.979875e-01 4.200099e-01 -1.353253e-01 -6.948017e-01 -1.183913e+00 -1.537506e+00 -1.704873e+00 -1.654715e+00 -1.370209e+00 -8.434424e-01 -6.091395e-02 9.982197e-01 2.352939e+00 3.897120e+00 4.980736e+00 4.936311e+00 -1.183246e+01 -1.377397e+01 1.126324e+01 7.518060e+00 -5.905769e+00 -4.578109e+00 -3.715301e+00 -2.924469e+00 -2.351507e+00 -1.951077e+00 -1.658026e+00 -1.419740e+00 -1.203434e+00 -9.959880e-01 -7.925282e-01 -5.929100e-01 -3.970403e-01 -2.044370e-01 
-1.054359e-02 1.745899e-01 3.632856e-01 5.578902e-01 7.596102e-01 9.685311e-01 1.184051e+00 1.408597e+00 1.652595e+00 1.944886e+00 2.341124e+00 2.923269e+00 3.804145e+00 5.009304e+00 7.151366e+00 -1.383810e+01 -6.208214e+00 1.751598e+01 1.457902e+00 -8.009656e+00 -6.128100e+00 -4.059347e+00 -2.564088e+00 -1.458901e+00 -6.228194e-01 2.267032e-03 4.449800e-01 7.147932e-01 8.159118e-01 7.580110e-01 5.601529e-01 2.575430e-01 -1.026308e-01 -4.649747e-01 -7.726883e-01 -9.757215e-01 -1.033061e+00 -9.168592e-01 -6.056510e-01 -8.316325e-02 6.702799e-01 1.676547e+00 2.953449e+00 4.508868e+00 6.475875e+00 1.031434e+01 4.119003e+00 -2.086335e+01 -8.541838e-01 1.740265e+01 -3.103721e+00 -4.632659e+00 -3.866194e+00 -3.048729e+00 -2.415574e+00 -1.970990e+00 -1.650181e+00 -1.397617e+00 -1.175582e+00 -9.675406e-01 -7.666096e-01 -5.714329e-01 -3.812063e-01 -1.949400e-01 
-7.728469e-03 1.655996e-01 3.429355e-01 5.268916e-01 7.188444e-01 9.190818e-01 1.127112e+00 1.345869e+00 1.586466e+00 1.880064e+00 2.282806e+00 2.882209e+00 3.769288e+00 4.986729e+00 3.556366e+00 -1.618317e+01 4.716039e+00 1.785952e+01 -8.679085e+00 -9.062031e+00 -6.501354e+00 -4.550771e+00 -3.067138e+00 -1.950791e+00 -1.106176e+00 -4.777825e-01 -2.875185e-02 2.607684e-01 4.047739e-01 4.185710e-01 3.222892e-01 1.455578e-01 -7.453296e-02 -2.958298e-01 -4.747840e-01 -5.723732e-01 -5.543432e-01 -3.945637e-01 -6.939418e-02 4.425811e-01 1.166596e+00 2.130345e+00 3.363305e+00 4.904385e+00 6.804348e+00 9.156325e+00 1.299015e+01 -1.442581e+01 -1.371053e+01 1.325404e+01 2.016406e+00 -4.998216e+00 -4.059938e+00 -3.145908e+00 -2.435640e+00 -1.947595e+00 -1.601689e+00 -1.338447e+00 -1.114972e+00 -9.114941e-01 -7.186151e-01 -5.335839e-01 -3.546000e-01 -1.801573e-01 
-5.068710e-03 1.508532e-01 3.110111e-01 4.781884e-01 6.539097e-01 8.388806e-01 1.032991e+00 1.240242e+00 1.472767e+00 1.763924e+00 2.169144e+00 2.770950e+00 3.603552e+00 4.584846e+00 -4.306401e+00 -1.106662e+01 1.349954e+01 1.051933e+01 -1.264272e+01 -9.158783e+00 -6.622832e+00 -4.750600e+00 -3.310055e+00 -2.219205e+00 -1.393274e+00 -7.789968e-01 -3.374451e-01 -4.209583e-02 1.265158e-01 1.872851e-01 1.602089e-01 7.054203e-02 -5.229287e-02 -1.759301e-01 -2.667696e-01 -2.941501e-01 -2.293687e-01 -4.827120e-02 2.735966e-01 7.607553e-01 1.442364e+00 2.351409e+00 3.526703e+00 5.026699e+00 6.938442e+00 9.608540e+00 1.386184e+01 -1.685381e+00 -1.745585e+01 6.682130e+00 1.103908e+01 -6.145847e+00 -4.406668e+00 -3.227093e+00 -2.415461e+00 -1.878441e+00 -1.510131e+00 -1.239714e+00 -1.019792e+00 -8.265444e-01 -6.477284e-01 -4.788588e-01 -3.169529e-01 -1.599831e-01 
-3.012861e-03 1.300193e-01 2.671946e-01 4.113294e-01 5.640535e-01 7.267086e-01 9.000809e-01 1.090272e+00 1.312932e+00 1.607848e+00 2.046568e+00 2.732012e+00 3.762548e+00 5.133089e+00 -1.113125e+01 -4.762074e+00 1.430574e+01 -1.372469e+00 -1.161534e+01 -8.477818e+00 -6.206885e+00 -4.525365e+00 -3.221836e+00 -2.224202e+00 -1.466045e+00 -9.008757e-01 -4.921360e-01 -2.122219e-01 -3.997032e-02 4.393196e-02 5.819285e-02 2.389598e-02 -3.571207e-02 -9.595648e-02 -1.311024e-01 -1.171808e-01 -3.058966e-02 1.503193e-01 4.484533e-01 8.890355e-01 1.500748e+00 2.318422e+00 3.378993e+00 4.730357e+00 6.417338e+00 8.491275e+00 1.061607e+01 8.308099e+00 -1.707830e+01 -3.466687e-01 1.537054e+01 -6.963840e+00 -4.592968e+00 -3.183944e+00 -2.312615e+00 -1.745092e+00 -1.366048e+00 -1.097188e+00 -8.885014e-01 -7.126215e-01 -5.545357e-01 -4.080342e-01 -2.690141e-01 -1.350191e-01 
-1.414493e-03 1.036131e-01 2.123139e-01 3.272779e-01 4.501293e-01 5.827996e-01 7.271833e-01 8.919494e-01 1.097452e+00 1.394225e+00 1.883347e+00 2.733300e+00 4.279432e+00 6.888103e+00 -1.282006e+01 1.401626e-01 1.387636e+01 -7.628632e+00 -8.172318e+00 -6.640370e+00 -5.115044e+00 -3.824567e+00 -2.777738e+00 -1.957221e+00 -1.326152e+00 -8.532396e-01 -5.089017e-01 -2.694328e-01 -1.155893e-01 -3.024910e-02 2.366136e-03 -1.145655e-03 -2.328239e-02 -4.594875e-02 -5.022416e-02 -1.817545e-02 6.855534e-02 2.279174e-01 4.794069e-01 8.459978e-01 1.352498e+00 2.031296e+00 2.912583e+00 4.036275e+00 5.444637e+00 7.166142e+00 9.357363e+00 1.127327e+01 -1.402202e+01 -5.049997e+00 1.256532e+01 -4.524312e+00 -3.785255e+00 -2.804988e+00 -2.044149e+00 -1.509684e+00 -1.150058e+00 -9.022251e-01 -7.178117e-01 -5.691501e-01 -4.395117e-01 -3.218467e-01 -2.113588e-01 -1.055158e-01 
-5.633328e-04 7.214275e-02 1.476104e-01 2.278838e-01 3.143115e-01 4.089444e-01 5.141455e-01 6.393691e-01 8.053621e-01 1.064510e+00 1.518876e+00 2.343546e+00 3.840433e+00 5.909994e+00 -9.948340e+00 1.927254e+00 1.092370e+01 -7.891616e+00 -5.971777e+00 -4.677689e+00 -3.645043e+00 -2.761374e+00 -2.032788e+00 -1.452258e+00 -1.000052e+00 -6.594520e-01 -4.097453e-01 -2.344527e-01 -1.189725e-01 -5.073624e-02 -1.823792e-02 -9.970171e-03 -1.408937e-02 -1.860594e-02 -1.096531e-02 2.092087e-02 8.967325e-02 2.083100e-01 3.908597e-01 6.551420e-01 1.018784e+00 1.507968e+00 2.142200e+00 2.954855e+00 3.970203e+00 5.199248e+00 6.689609e+00 7.862458e+00 -8.864539e+00 -4.331763e+00 8.128008e+00 -1.910314e+00 -2.854087e+00 -2.171059e+00 -1.576372e+00 -1.138609e+00 -8.463839e-01 -6.493248e-01 -5.081927e-01 -3.985549e-01 -3.056397e-01 -2.228488e-01 -1.458914e-01 -7.256133e-02 
-1.115191e-04 3.708311e-02 7.577321e-02 1.170887e-01 1.618226e-01 2.113008e-01 2.672305e-01 3.358675e-01 4.307947e-01 5.856879e-01 8.645387e-01 1.370058e+00 2.251835e+00 3.044468e+00 -5.123356e+00 1.158555e+00 6.014871e+00 -3.765157e+00 -3.117022e+00 -2.426168e+00 -1.894449e+00 -1.444407e+00 -1.071297e+00 -7.717271e-01 -5.362274e-01 -3.581476e-01 -2.269354e-01 -1.343034e-01 -7.245654e-02 -3.475912e-02 -1.516415e-02 -7.760783e-03 -6.563762e-03 -5.580074e-03 1.473402e-03 2.069576e-02 5.855555e-02 1.218918e-01 2.181219e-01 3.568947e-01 5.475411e-01 8.042509e-01 1.137007e+00 1.562188e+00 2.089150e+00 2.697148e+00 3.338364e+00 3.394636e+00 -5.073701e+00 -2.274585e+00 4.194890e+00 -1.210145e+00 -1.932804e+00 -1.284090e+00 -8.873622e-01 -6.228550e-01 -4.529568e-01 -3.417295e-01 -2.641380e-01 -2.055439e-01 -1.568128e-01 -1.139939e-01 -7.445197e-02 -3.692378e-02 
4.377719e-12 8.504848e-12 1.295709e-11 1.763410e-11 2.222407e-11 2.624049e-11 2.894997e-11 2.932818e-11 2.633008e-11 1.919092e-11 8.942882e-12 1.711221e-12 1.845627e-11 3.838279e-11 -4.467073e-10 -2.415428e-10 1.500943e-10 -8.065846e-11 1.464334e-12 2.763605e-11 3.118058e-11 2.823848e-11 2.373860e-11 1.947928e-11 1.614010e-11 1.342210e-11 1.132798e-11 9.403242e-12 7.608740e-12 5.720724e-12 3.874383e-12 2.056947e-12 4.655781e-13 -6.693112e-13 -1.147491e-12 -6.992556e-13 9.434430e-13 3.904970e-12 8.087623e-12 1.303598e-11 1.793511e-11 2.154549e-11 2.305534e-11 2.285098e-11 2.117786e-11 1.394138e-11 -4.790536e-11 -3.809148e-10 -5.664385e-10 1.907431e-10 3.080449e-10 -4.279405e-10 -3.893408e-10 -8.791945e-11 -1.792733e-11 -3.483224e-12 -4.061028e-12 -6.763299e-12 -8.760715e-12 -9.075202e-12 -7.939974e-12 -5.725321e-12 -2.829038e-12 5.809462e-13 
1.115191e-04 -3.708311e-02 -7.577321e-02 -1.170887e-01 -1.618226e-01 -2.113008e-01 -2.672305e-01 -3.358675e-01 -4.307947e-01 -5.856879e-01 -8.645387e-01 -1.370058e+00 -2.251835e+00 -3.044468e+00 5.123356e+00 -1.158555e+00 -6.014871e+00 3.765157e+00 3.117022e+00 2.426168e+00 1.894449e+00 1.444407e+00 1.071297e+00 7.717271e-01 5.362274e-01 3.581476e-01 2.269354e-01 1.343034e-01 7.245654e-02 3.475912e-02 1.516415e-02 7.760783e-03 6.563762e-03 5.580074e-03 -1.473402e-03 -2.069576e-02 -5.855555e-02 -1.218918e-01 -2.181219e-01 -3.568947e-01 -5.475411e-01 -8.042509e-01 -1.137007e+00 -1.562188e+00 -2.089150e+00 -2.697148e+00 -3.338364e+00 -3.394636e+00 5.073701e+00 2.274585e+00 -4.194890e+00 1.210145e+00 1.932804e+00 1.284090e+00 8.873622e-01 6.228550e-01 4.529568e-01 3.417295e-01 2.641380e-01 2.055439e-01 1.568128e-01 1.139939e-01 7.445197e-02 3.692378e-02 