# vtk DataFile Version 2.0
Comment goes here
ASCII

DATASET STRUCTURED_POINTS
FIELD FieldData 1
TIME 1 1 double
1.76000000
DIMENSIONS    64   64   1

ORIGIN    0.000   0.000   0.000
SPACING   0.015625 0.015625   1.000

POINT_DATA   4096
SCALARS Omega double
LOOKUP_TABLE default

6.153002e-14 1.497409e-13 2.547613e-13 4.221564e-13 6.318873e-13 8.796025e-13 1.232638e-12 1.682203e-12 2.217979e-12 2.912629e-12 3.775006e-12 4.786169e-12 5.970750e-12 7.369425e-12 8.926079e-12 1.064358e-11 1.247801e-11 1.438536e-11 1.624129e-11 1.797851e-11 1.950507e-11 2.063537e-11 2.133418e-11 2.150700e-11 2.105259e-11 1.994399e-11 1.815376e-11 1.571261e-11 1.261599e-11 8.974048e-12 4.882028e-12 4.446713e-13 -4.139561e-12 -8.674981e-12 -1.295594e-11 -1.685107e-11 -2.017296e-11 -2.279287e-11 -2.467395e-11 -2.579260e-11 -2.613808e-11 -2.578798e-11 -2.479277e-11 -2.322662e-11 -2.123327e-11 -1.899110e-11 -1.661271e-11 -1.423116e-11 -1.194158e-11 -9.833297e-12 -7.939396e-12 -6.303709e-12 -4.908114e-12 -3.753798e-12 -2.811505e-12 -2.091517e-12 -1.531266e-12 -1.086668e-12 -7.614408e-13 -5.388107e-13 -3.521238e-13 -2.151894e-13 -1.294768e-13 -3.747637e-14 
-6.023793e-04 1.212454e-03 2.812432e-03 3.968402e-03 4.450387e-03 4.034031e-03 2.497043e-03 -3.703018e-04 -4.771557e-03 -1.088174e-02 -1.886025e-02 -2.880969e-02 -4.079664e-02 -5.479028e-02 -7.068953e-02 -8.825124e-02 -1.071218e-01 -1.267784e-01 -1.465652e-01 -1.656796e-01 -1.832125e-01 -1.981991e-01 -2.096583e-01 -2.166868e-01 -2.184861e-01 -2.144351e-01 -2.041124e-01 -1.873029e-01 -1.640776e-01 -1.347991e-01 -1.002719e-01 -6.175815e-02 -2.097169e-02 2.006954e-02 5.932973e-02 9.500047e-02 1.257376e-01 1.507212e-01 1.695915e-01 1.823614e-01 1.892515e-01 1.906754e-01 1.871516e-01 1.793250e-01 1.679335e-01 1.537754e-01 1.376867e-01 1.204784e-01 1.029069e-01 8.563944e-02 6.922158e-02 5.408714e-02 4.053200e-02 2.875279e-02 1.882980e-02 1.077347e-02 4.512661e-03 -6.286315e-05 -3.114344e-03 -4.818820e-03 -5.383471e-03 -5.017699e-03 -3.948361e-03 -2.398889e-03 
-1.235757e-03 2.535935e-03 5.878390e-03 8.333534e-03 9.441719e-03 8.753641e-03 5.823969e-03 2.310014e-04 -8.435127e-03 -2.052932e-02 -3.637608e-02 -5.618876e-02 -8.010945e-02 -1.080873e-01 -1.399304e-01 -1.751630e-01 -2.130849e-01 -2.526549e-01 -2.925587e-01 -3.311834e-01 -3.666950e-01 -3.971448e-01 -4.205469e-01 -4.350748e-01 -4.391115e-01 -4.313993e-01 -4.110640e-01 -3.776219e-01 -3.311292e-01 -2.722056e-01 -2.023975e-01 -1.242514e-01 -4.134295e-02 4.204751e-02 1.215909e-01 1.934846e-01 2.549938e-01 3.045687e-01 3.416532e-01 3.664474e-01 3.795103e-01 3.817331e-01 3.741683e-01 3.580950e-01 3.349750e-01 3.063905e-01 2.740049e-01 2.394354e-01 2.041902e-01 1.696010e-01 1.367532e-01 1.065100e-01 7.945702e-02 5.598182e-02 3.623957e-02 2.024587e-02 7.854341e-03 -1.159429e-03 -7.120620e-03 -1.038569e-02 -1.137043e-02 -1.049468e-02 -8.212526e-03 -4.970931e-03 
-1.927869e-03 4.085780e-03 9.456649e-03 1.349862e-02 1.552278e-02 1.485434e-02 1.082319e-02 2.792052e-03 -9.861099e-03 -2.767969e-02 -5.116562e-02 -8.065821e-02 -1.163951e-01 -1.583263e-01 -2.061949e-01 -2.593127e-01 -3.166554e-01 -3.766715e-01 -4.373929e-01 -4.963786e-01 -5.508439e-01 -5.978107e-01 -6.342380e-01 -6.573239e-01 -6.645895e-01 -6.540980e-01 -6.244698e-01 -5.748303e-01 -5.050217e-01 -4.156631e-01 -3.088453e-01 -1.884424e-01 -6.023865e-02 6.861869e-02 1.908579e-01 3.002409e-01 3.925568e-01 4.657769e-01 5.195769e-01 5.547297e-01 5.723951e-01 5.740545e-01 5.613115e-01 5.360561e-01 5.004439e-01 4.568150e-01 4.076508e-01 3.553637e-01 3.022073e-01 2.501678e-01 2.008580e-01 1.555568e-01 1.151248e-01 8.012658e-02 5.077971e-02 2.709344e-02 8.837350e-03 -4.335118e-03 -1.291853e-02 -1.745334e-02 -1.856668e-02 -1.689065e-02 -1.310729e-02 -7.887029e-03 
-2.710589e-03 5.975096e-03 1.380631e-02 1.987003e-02 2.324963e-02 2.304384e-02 1.835668e-02 8.329732e-03 -7.877988e-03 -3.101190e-02 -6.176764e-02 -1.006354e-01 -1.479773e-01 -2.037814e-01 -2.677649e-01 -3.390708e-01 -4.163874e-01 -4.976851e-01 -5.803528e-01 -6.611157e-01 -7.361987e-01 -8.015295e-01 -8.529179e-01 -8.864824e-01 -8.987726e-01 -8.870924e-01 -8.494339e-01 -7.843449e-01 -6.911153e-01 -5.698910e-01 -4.229761e-01 -2.555976e-01 -7.635254e-02 1.036734e-01 2.731019e-01 4.224100e-01 5.457123e-01 6.409441e-01 7.087912e-01 7.513472e-01 7.708333e-01 7.695173e-01 7.495774e-01 7.134581e-01 6.639670e-01 6.041682e-01 5.373463e-01 4.667013e-01 3.952122e-01 3.255011e-01 2.596764e-01 1.994045e-01 1.457910e-01 9.955043e-02 6.094144e-02 2.994727e-02 6.240072e-03 -1.066099e-02 -2.142734e-02 -2.678977e-02 -2.759013e-02 -2.467513e-02 -1.895525e-02 -1.132415e-02 
-3.604810e-03 8.329708e-03 1.920065e-02 2.787096e-02 3.319834e-02 3.405584e-02 2.932032e-02 1.790761e-02 -1.251187e-03 -2.911860e-02 -6.660761e-02 -1.143916e-01 -1.730030e-01 -2.425222e-01 -3.227108e-01 -4.126126e-01 -5.107104e-01 -6.145541e-01 -7.209431e-01 -8.257675e-01 -9.242271e-01 -1.011047e+00 -1.080719e+00 -1.128064e+00 -1.148427e+00 -1.138160e+00 -1.094477e+00 -1.015086e+00 -8.982194e-01 -7.427915e-01 -5.505485e-01 -3.280648e-01 -8.773728e-02 1.534861e-01 3.779464e-01 5.713404e-01 7.258516e-01 8.403269e-01 9.179583e-01 9.633188e-01 9.803717e-01 9.723563e-01 9.419971e-01 8.922165e-01 8.264430e-01 7.484538e-01 6.623694e-01 5.721747e-01 4.815602e-01 3.937399e-01 3.112600e-01 2.361130e-01 1.695915e-01 1.125096e-01 6.512775e-02 2.737100e-02 -1.207443e-03 -2.123998e-02 -3.358521e-02 -3.917191e-02 -3.906051e-02 -3.431429e-02 -2.607220e-02 -1.544992e-02 
-4.640139e-03 1.126794e-02 2.590818e-02 3.792330e-02 4.595049e-02 4.863856e-02 4.463922e-02 3.263741e-02 1.132928e-02 -2.048479e-02 -6.396190e-02 -1.200064e-01 -1.893815e-01 -2.723485e-01 -3.688158e-01 -4.778563e-01 -5.978727e-01 -7.261256e-01 -8.589087e-01 -9.913233e-01 -1.117492e+00 -1.230786e+00 -1.324096e+00 -1.390507e+00 -1.423684e+00 -1.418680e+00 -1.371687e+00 -1.279432e+00 -1.138476e+00 -9.452083e-01 -6.996104e-01 -4.093451e-01 -9.205537e-02 2.264625e-01 5.188233e-01 7.633115e-01 9.495420e-01 1.078859e+00 1.159620e+00 1.200942e+00 1.209459e+00 1.189433e+00 1.143967e+00 1.076250e+00 9.903364e-01 8.907975e-01 7.826984e-01 6.708839e-01 5.597371e-01 4.530035e-01 3.535570e-01 2.636051e-01 1.845231e-01 1.171349e-01 6.163808e-02 1.784700e-02 -1.483598e-02 -3.721955e-02 -5.036228e-02 -5.540000e-02 -5.361483e-02 -4.628800e-02 -3.478530e-02 -2.044209e-02 
-5.824329e-03 1.492795e-02 3.421490e-02 5.046678e-02 6.210749e-02 6.756785e-02 6.527841e-02 5.369260e-02 3.126388e-02 -3.464186e-03 -5.193040e-02 -1.153304e-01 -1.947533e-01 -2.907669e-01 -4.036010e-01 -5.325518e-01 -6.761737e-01 -8.316319e-01 -9.948881e-01 -1.160301e+00 -1.320865e+00 -1.468368e+00 -1.593635e+00 -1.687240e+00 -1.740163e+00 -1.745460e+00 -1.698109e+00 -1.593951e+00 -1.427536e+00 -1.191303e+00 -8.808438e-01 -5.043237e-01 -8.639697e-02 3.337173e-01 7.131596e-01 1.018623e+00 1.236399e+00 1.373622e+00 1.448509e+00 1.477240e+00 1.469972e+00 1.431590e+00 1.364960e+00 1.273260e+00 1.161320e+00 1.034767e+00 9.000175e-01 7.629771e-01 6.287839e-01 5.016211e-01 3.845147e-01 2.796913e-01 1.884271e-01 1.114024e-01 4.863991e-02 -2.412550e-04 -3.604203e-02 -5.978296e-02 -7.274117e-02 -7.626945e-02 -7.187445e-02 -6.105420e-02 -4.539764e-02 -2.645437e-02 
-7.179395e-03 1.942863e-02 4.438509e-02 6.591873e-02 8.225370e-02 9.161261e-02 9.221606e-02 8.228717e-02 6.003382e-02 2.371613e-02 -2.843039e-02 -9.798362e-02 -1.864862e-01 -2.950135e-01 -4.243619e-01 -5.743720e-01 -7.440617e-01 -9.308147e-01 -1.130413e+00 -1.336507e+00 -1.540758e+00 -1.733057e+00 -1.901559e+00 -2.032960e+00 -2.113733e+00 -2.133810e+00 -2.087214e+00 -1.971134e+00 -1.778871e+00 -1.495277e+00 -1.106601e+00 -6.197510e-01 -6.853037e-02 4.876469e-01 9.818475e-01 1.361989e+00 1.608255e+00 1.739745e+00 1.794625e+00 1.800712e+00 1.771347e+00 1.709569e+00 1.616233e+00 1.493697e+00 1.347935e+00 1.186436e+00 1.017874e+00 8.498523e-01 6.884730e-01 5.382807e-01 4.021975e-01 2.821563e-01 1.790524e-01 9.317333e-02 2.419282e-02 -2.859913e-02 -6.628682e-02 -9.015646e-02 -1.017296e-01 -1.025891e-01 -9.446715e-02 -7.907550e-02 -5.821812e-02 -3.365043e-02 
-8.690947e-03 2.491180e-02 5.669229e-02 8.469651e-02 1.069678e-01 1.215395e-01 1.264391e-01 1.196692e-01 9.918965e-02 6.295036e-02 8.798162e-03 -6.534378e-02 -1.616636e-01 -2.820186e-01 -4.281508e-01 -6.008767e-01 -8.001489e-01 -1.023887e+00 -1.267793e+00 -1.524488e+00 -1.783807e+00 -2.033400e+00 -2.258510e+00 -2.440315e+00 -2.556560e+00 -2.592779e+00 -2.543349e+00 -2.410821e+00 -2.191641e+00 -1.859963e+00 -1.381171e+00 -7.587888e-01 -3.606734e-02 6.985230e-01 1.340489e+00 1.808405e+00 2.070871e+00 2.172919e+00 2.190980e+00 2.167112e+00 2.114712e+00 2.030840e+00 1.909107e+00 1.750177e+00 1.561879e+00 1.354829e+00 1.142138e+00 9.344624e-01 7.394863e-01 5.621096e-01 4.047981e-01 2.687417e-01 1.540232e-01 6.017057e-02 -1.376127e-02 -6.900908e-02 -1.070658e-01 -1.295607e-01 -1.382999e-01 -1.351120e-01 -1.219558e-01 -1.007482e-01 -7.349546e-02 -4.214374e-02 
-1.036593e-02 3.147820e-02 7.135279e-02 1.071471e-01 1.367536e-01 1.580439e-01 1.688806e-01 1.670609e-01 1.503003e-01 1.162015e-01 6.214572e-02 -1.460989e-02 -1.171477e-01 -2.485030e-01 -4.118515e-01 -6.096063e-01 -8.431772e-01 -1.111356e+00 -1.409362e+00 -1.727708e+00 -2.052733e+00 -2.369685e+00 -2.662592e+00 -2.905624e+00 -3.057486e+00 -3.095818e+00 -3.021404e+00 -2.863663e+00 -2.639805e+00 -2.288982e+00 -1.721529e+00 -9.381331e-01 9.050367e-03 9.837504e-01 1.821013e+00 2.392642e+00 2.627830e+00 2.633161e+00 2.582391e+00 2.531747e+00 2.474824e+00 2.389048e+00 2.248869e+00 2.054554e+00 1.816434e+00 1.551112e+00 1.280430e+00 1.020993e+00 7.833104e-01 5.727095e-01 3.907689e-01 2.372919e-01 1.109797e-01 1.008544e-02 -6.732295e-02 -1.232882e-01 -1.598899e-01 -1.792119e-01 -1.834030e-01 -1.745610e-01 -1.548708e-01 -1.264427e-01 -9.146429e-02 -5.205089e-02 
-1.215884e-02 3.924617e-02 8.856565e-02 1.335711e-01 1.720443e-01 2.017368e-01 2.203840e-01 2.256046e-01 2.148750e-01 1.854113e-01 1.340285e-01 5.711882e-02 -4.961728e-02 -1.908660e-01 -3.718712e-01 -5.973530e-01 -8.708215e-01 -1.191985e+00 -1.554389e+00 -1.943107e+00 -2.336586e+00 -2.717614e+00 -3.079223e+00 -3.393858e+00 -3.564243e+00 -3.563725e+00 -3.416129e+00 -3.206508e+00 -3.026330e+00 -2.741952e+00 -2.111056e+00 -1.162020e+00 6.480820e-02 1.353621e+00 2.440094e+00 3.134774e+00 3.229450e+00 2.998477e+00 2.848559e+00 2.800282e+00 2.783354e+00 2.754961e+00 2.624129e+00 2.410221e+00 2.122441e+00 1.785573e+00 1.439688e+00 1.112985e+00 8.208838e-01 5.693194e-01 3.583230e-01 1.855166e-01 4.748378e-02 -5.941544e-02 -1.385741e-01 -1.931885e-01 -2.261652e-01 -2.401884e-01 -2.378321e-01 -2.214930e-01 -1.935827e-01 -1.563853e-01 -1.122407e-01 -6.340052e-02 
-1.405399e-02 4.826005e-02 1.084153e-01 1.641175e-01 2.130935e-01 2.530299e-01 2.815883e-01 2.962434e-01 2.942439e-01 2.723717e-01 2.267658e-01 1.527202e-01 4.437805e-02 -1.051309e-01 -3.037591e-01 -5.593575e-01 -8.781498e-01 -1.260800e+00 -1.696755e+00 -2.158963e+00 -2.605960e+00 -3.016150e+00 -3.425919e+00 -3.847961e+00 -3.997013e+00 -3.829647e+00 -3.431594e+00 -3.090386e+00 -3.229371e+00 -3.390695e+00 -2.746097e+00 -1.588170e+00 1.086818e-01 1.924145e+00 3.413630e+00 4.372322e+00 3.943236e+00 2.974209e+00 2.702659e+00 2.795056e+00 2.937699e+00 3.107489e+00 3.011895e+00 2.818414e+00 2.491493e+00 2.066751e+00 1.623361e+00 1.210476e+00 8.506573e-01 5.497008e-01 3.049851e-01 1.108819e-01 -3.891427e-02 -1.505836e-01 -2.294787e-01 -2.803325e-01 -3.071620e-01 -3.134304e-01 -3.022427e-01 -2.763366e-01 -2.383498e-01 -1.907170e-01 -1.358885e-01 -7.620919e-02 
-1.597149e-02 5.856365e-02 1.309214e-01 1.988105e-01 2.599733e-01 3.121033e-01 3.528520e-01 3.795945e-01 3.893661e-01 3.784680e-01 3.422579e-01 2.747286e-01 1.681928e-01 1.322437e-02 -2.012771e-01 -4.868498e-01 -8.530993e-01 -1.301944e+00 -1.816350e+00 -2.344847e+00 -2.795663e+00 -3.120754e+00 -3.496877e+00 -4.192369e+00 -4.206427e+00 -3.587481e+00 -2.587642e+00 -1.827658e+00 -3.179521e+00 -5.082358e+00 -3.699405e+00 -1.521350e+00 3.059848e-01 2.106801e+00 4.643714e+00 7.087408e+00 5.011080e+00 1.815782e+00 1.704352e+00 2.276961e+00 2.688589e+00 3.447315e+00 3.307061e+00 3.251155e+00 2.925684e+00 2.390740e+00 1.820506e+00 1.301594e+00 8.628687e-01 5.068452e-01 2.258574e-01 9.897867e-03 -1.508535e-01 -2.654756e-01 -3.416465e-01 -3.859284e-01 -4.037275e-01 -3.994668e-01 -3.769062e-01 -3.391711e-01 -2.891271e-01 -2.293270e-01 -1.622790e-01 -9.036321e-02 
-1.786871e-02 7.008830e-02 1.559171e-01 2.374155e-01 3.124278e-01 3.787413e-01 4.340710e-01 4.757443e-01 5.005983e-01 5.044170e-01 4.817115e-01 4.250796e-01 3.249990e-01 1.695912e-01 -5.500333e-02 -3.636933e-01 -7.697449e-01 -1.278807e+00 -1.870108e+00 -2.456131e+00 -2.825467e+00 -2.792901e+00 -2.860962e+00 -4.629065e+00 -4.341268e+00 -2.677297e+00 1.845351e+00 1.152186e+01 1.763660e+01 1.639877e+01 1.236692e+01 6.969945e+00 1.433347e+00 -4.328776e+00 -9.697442e+00 -1.391157e+01 -1.526292e+01 -1.190555e+01 -4.181852e+00 -2.873979e-01 1.632331e+00 4.220614e+00 3.191407e+00 3.690379e+00 3.447624e+00 2.736701e+00 1.991789e+00 1.350051e+00 8.314788e-01 4.244439e-01 1.115001e-01 -1.227252e-01 -2.913693e-01 -4.059186e-01 -4.762312e-01 -5.106865e-01 -5.162392e-01 -4.984114e-01 -4.617349e-01 -4.097773e-01 -3.456301e-01 -2.719296e-01 -1.911759e-01 -1.057130e-01 
-1.963972e-02 8.273348e-02 1.831096e-01 2.794768e-01 3.698813e-01 4.522997e-01 5.245880e-01 5.840705e-01 6.274003e-01 6.498174e-01 6.450114e-01 6.043185e-01 5.169236e-01 3.696661e-01 1.481770e-01 -1.628131e-01 -5.784866e-01 -1.114427e+00 -1.768326e+00 -2.432975e+00 -2.660776e+00 -1.703474e+00 -3.575991e-01 -1.842060e+00 5.892706e+00 1.977519e+01 2.107331e+01 1.437240e+01 6.164154e+00 1.180673e+00 -3.296362e-01 -1.083563e-01 1.093853e+00 1.654460e+00 2.537761e+00 4.909065e-01 -2.069610e+00 -8.877008e+00 -1.639428e+01 -1.988486e+01 -1.114206e+01 -5.518252e-01 1.277903e+00 4.245556e+00 4.148168e+00 3.038330e+00 2.035776e+00 1.271724e+00 7.002867e-01 2.700133e-01 -5.503245e-02 -2.949202e-01 -4.637855e-01 -5.730119e-01 -6.333252e-01 -6.542297e-01 -6.440862e-01 -6.095229e-01 -5.559240e-01 -4.873447e-01 -4.071012e-01 -3.178749e-01 -2.220824e-01 -1.219483e-01 
-2.121605e-02 9.625864e-02 2.119598e-01 3.241815e-01 4.312781e-01 5.315164e-01 6.229586e-01 7.029602e-01 7.679864e-01 8.127366e-01 8.302254e-01 8.110263e-01 7.443930e-01 6.187298e-01 4.247215e-01 1.555607e-01 -1.963805e-01 -6.633457e-01 -1.327954e+00 -2.204693e+00 -2.539800e+00 -2.006240e-02 5.715828e+00 1.541926e+01 1.966255e+01 1.208340e+01 -2.903262e+00 -1.251002e+01 -1.462503e+01 -1.388148e+01 -1.075290e+01 -5.936511e+00 1.589093e-01 5.782529e+00 1.178888e+01 1.535041e+01 1.639307e+01 1.623807e+01 1.114502e+01 -2.494136e+00 -1.612834e+01 -1.766674e+01 -6.956652e+00 3.199792e+00 5.405762e+00 3.130114e+00 1.740647e+00 9.044478e-01 3.673726e-01 -1.187699e-02 -3.003554e-01 -5.176609e-01 -6.715053e-01 -7.668119e-01 -8.116880e-01 -8.149143e-01 -7.855702e-01 -7.311787e-01 -6.579703e-01 -5.705256e-01 -4.723814e-01 -3.662321e-01 -2.543314e-01 -1.386931e-01 
-2.248694e-02 1.103537e-01 2.417486e-01 3.704164e-01 4.951281e-01 6.145275e-01 7.269292e-01 8.297143e-01 9.191369e-01 9.893696e-01 1.033074e+00 1.040964e+00 1.004681e+00 9.189335e-01 7.891485e-01 6.356335e-01 4.888675e-01 3.206192e-01 -1.525621e-01 -1.573054e+00 -7.369766e-01 7.600450e+00 1.529364e+01 1.311989e+01 -1.932823e+00 -1.566121e+01 -1.728327e+01 -7.336611e+00 5.534520e+00 9.884815e+00 7.819889e+00 3.602664e+00 3.188060e-01 -2.909857e+00 -6.621926e+00 -8.726222e+00 -6.924688e+00 4.485176e+00 1.509220e+01 2.042822e+01 1.134571e+01 -8.179029e+00 -1.786272e+01 -8.565634e+00 4.226257e+00 2.445562e+00 7.106977e-01 -2.490615e-02 -3.264553e-01 -4.997175e-01 -6.579661e-01 -8.022470e-01 -9.159562e-01 -9.848413e-01 -1.007630e+00 -9.889735e-01 -9.372550e-01 -8.603776e-01 -7.653051e-01 -6.571616e-01 -5.397108e-01 -4.156409e-01 -2.869712e-01 -1.554141e-01 
-2.336531e-02 1.245760e-01 2.715059e-01 4.166871e-01 5.593995e-01 6.987322e-01 8.332527e-01 9.603225e-01 1.075924e+00 1.173770e+00 1.246690e+00 1.286918e+00 1.291542e+00 1.267310e+00 1.245878e+00 1.301856e+00 1.572158e+00 2.169927e+00 2.617980e+00 1.283735e+00 6.710012e+00 1.232096e+01 5.441206e+00 -8.587890e+00 -1.308429e+01 -1.817917e+00 8.646541e+00 1.298817e+01 1.256052e+01 9.660813e+00 6.644451e+00 3.306628e+00 8.595169e-02 -3.114778e+00 -6.365422e+00 -9.510167e+00 -1.316800e+01 -1.486928e+01 -1.385607e+01 -2.672649e+00 1.242563e+01 1.522142e+01 -2.120135e+00 -1.554428e+01 -6.887308e+00 -9.137516e-01 -1.740506e+00 -1.923999e+00 -1.585553e+00 -1.276487e+00 -1.155247e+00 -1.153942e+00 -1.193870e+00 -1.220985e+00 -1.214559e+00 -1.170335e+00 -1.093899e+00 -9.927413e-01 -8.743291e-01 -7.443423e-01 -6.067966e-01 -4.643828e-01 -3.188368e-01 -1.714873e-01 
-2.376452e-02 1.383823e-01 3.000624e-01 4.611810e-01 6.216035e-01 7.808885e-01 9.378152e-01 1.089623e+00 1.231959e+00 1.358241e+00 1.462344e+00 1.540013e+00 1.597472e+00 1.658227e+00 1.784270e+00 2.116888e+00 2.984697e+00 5.051784e+00 5.557886e+00 4.054176e+00 7.209206e+00 2.557091e+00 -6.071250e+00 -5.181105e+00 2.036566e+00 8.366420e+00 8.786707e+00 9.200848e+00 8.821295e+00 7.254524e+00 5.106390e+00 2.567772e+00 -7.218722e-02 -2.720491e+00 -5.301123e+00 -7.652985e+00 -9.640550e+00 -1.059794e+01 -1.063778e+01 -1.169484e+01 -6.639736e+00 5.548584e+00 1.106566e+01 -1.728140e+00 -9.301171e+00 -3.645933e+00 -4.538987e+00 -5.401505e+00 -3.574903e+00 -2.358387e+00 -1.781246e+00 -1.561178e+00 -1.494452e+00 -1.464869e+00 -1.422834e+00 -1.350502e+00 -1.248344e+00 -1.122410e+00 -9.803369e-01 -8.283552e-01 -6.707860e-01 -5.103691e-01 -3.485399e-01 -1.861874e-01 
-2.359868e-02 1.511516e-01 3.260813e-01 5.018168e-01 6.788437e-01 8.571734e-01 1.035692e+00 1.211369e+00 1.379469e+00 1.533456e+00 1.669713e+00 1.790571e+00 1.916663e+00 2.092246e+00 2.395423e+00 2.960554e+00 4.166119e+00 5.939935e+00 1.336555e+00 3.342197e-01 2.856045e+00 -1.807654e+00 -8.172546e-01 2.618074e+00 3.652285e+00 5.378560e+00 6.109692e+00 6.440932e+00 6.205225e+00 5.264025e+00 3.774605e+00 1.898681e+00 -1.519728e-01 -2.223462e+00 -4.166895e+00 -5.810520e+00 -7.002201e+00 -7.551696e+00 -7.553169e+00 -7.298975e+00 -5.755241e+00 -5.662979e+00 4.677102e-01 4.240475e+00 -4.433203e+00 -4.519558e-01 1.142028e+00 -7.080820e+00 -6.042437e+00 -3.506464e+00 -2.437914e+00 -1.990856e+00 -1.802272e+00 -1.704216e+00 -1.621044e+00 -1.519249e+00 -1.391904e+00 -1.242281e+00 -1.077667e+00 -9.047862e-01 -7.283390e-01 -5.511901e-01 -3.745047e-01 -1.987017e-01 
-2.283659e-02 1.621541e-01 3.480611e-01 5.362640e-01 7.278756e-01 9.232785e-01 1.121321e+00 1.318502e+00 1.509682e+00 1.688949e+00 1.857279e+00 2.028506e+00 2.247646e+00 2.595149e+00 3.169574e+00 3.910490e+00 4.700409e+00 3.189703e-01 -4.165296e+00 2.550677e+00 4.711604e+00 5.703216e-01 8.768648e-01 1.548054e+00 2.624170e+00 3.598707e+00 4.222940e+00 4.507558e+00 4.368163e+00 3.753128e+00 2.713437e+00 1.353994e+00 -1.722391e-01 -1.717524e+00 -3.135189e+00 -4.282088e+00 -5.047658e+00 -5.360457e+00 -5.255994e+00 -4.809142e+00 -3.943879e+00 -3.232874e+00 -1.511431e+00 2.344166e+00 -5.751349e+00 -6.761099e+00 5.751309e+00 4.728641e-01 -6.311265e+00 -3.917025e+00 -2.983256e+00 -2.434380e+00 -2.118025e+00 -1.932887e+00 -1.799485e+00 -1.666475e+00 -1.515529e+00 -1.344784e+00 -1.160228e+00 -9.688891e-01 -7.758860e-01 -5.843052e-01 -3.950990e-01 -2.082249e-01 
-2.144106e-02 1.706621e-01 3.644878e-01 5.621682e-01 7.653993e-01 9.748240e-01 1.189047e+00 1.403858e+00 1.613624e+00 1.813453e+00 2.010984e+00 2.235498e+00 2.568203e+00 3.160659e+00 4.306361e+00 6.642466e+00 4.644287e+00 -7.246652e+00 -1.171183e+00 9.925806e+00 3.286802e+00 -9.238349e-02 3.958888e-01 1.008113e+00 1.696844e+00 2.357747e+00 2.847374e+00 3.092847e+00 3.029346e+00 2.626078e+00 1.905610e+00 9.405888e-01 -1.596697e-01 -1.274201e+00 -2.280256e+00 -3.067479e+00 -3.556993e+00 -3.707783e+00 -3.527434e+00 -3.032630e+00 -2.198909e+00 -1.004931e+00 1.085899e+00 4.845905e+00 1.722013e+00 -1.277060e+01 -3.726268e+00 8.699185e+00 -4.494924e-01 -3.980942e+00 -3.757575e+00 -3.033368e+00 -2.476810e+00 -2.150312e+00 -1.948670e+00 -1.781797e+00 -1.609924e+00 -1.422098e+00 -1.221689e+00 -1.015705e+00 -8.097077e-01 -6.070790e-01 -4.086436e-01 -2.139289e-01 
-1.946299e-02 1.758750e-01 3.737808e-01 5.770821e-01 7.880016e-01 1.007280e+00 1.233090e+00 1.460156e+00 1.682114e+00 1.894947e+00 2.113559e+00 2.382171e+00 2.807562e+00 3.553331e+00 4.845994e+00 8.242396e+00 -5.008697e+00 -9.254559e+00 1.140136e+01 7.836737e+00 -3.294902e+00 -1.328297e+00 -6.063548e-01 1.082475e-01 7.733352e-01 1.355374e+00 1.794629e+00 2.036561e+00 2.041083e+00 1.793437e+00 1.309303e+00 6.408903e-01 -1.316192e-01 -9.138740e-01 -1.609491e+00 -2.134255e+00 -2.428366e+00 -2.460547e+00 -2.222510e+00 -1.708770e+00 -8.888966e-01 3.069647e-01 2.060680e+00 4.447246e+00 6.531441e+00 -5.312910e+00 -1.600101e+01 3.381419e+00 9.720909e+00 -4.811904e+00 -6.253236e+00 -3.986465e+00 -2.875187e+00 -2.335173e+00 -2.053605e+00 -1.854827e+00 -1.666954e+00 -1.467470e+00 -1.256423e+00 -1.040737e+00 -8.263868e-01 -6.170975e-01 -4.136217e-01 -2.151096e-01 
-1.698773e-02 1.770484e-01 3.744962e-01 5.787993e-01 7.926246e-01 1.016718e+00 1.248639e+00 1.481836e+00 1.708653e+00 1.925567e+00 2.154604e+00 2.456556e+00 2.971409e+00 3.842984e+00 5.061920e+00 2.642884e+00 -1.275057e+01 3.284133e+00 1.852263e+01 -1.460941e+00 -6.561318e+00 -3.321615e+00 -1.810941e+00 -8.284161e-01 -7.055710e-02 5.291947e-01 9.716085e-01 1.235150e+00 1.303516e+00 1.175356e+00 8.676272e-01 4.223034e-01 -1.006601e-01 -6.300178e-01 -1.092547e+00 -1.424584e+00 -1.577817e+00 -1.523123e+00 -1.243744e+00 -7.243612e-01 6.180413e-02 1.161564e+00 2.617682e+00 4.317540e+00 5.503911e+00 4.763647e+00 -1.484786e+01 -1.106493e+01 1.111685e+01 9.898685e-01 -7.025638e+00 -4.372925e+00 -3.055208e+00 -2.410934e+00 -2.090067e+00 -1.875283e+00 -1.680009e+00 -1.475321e+00 -1.259620e+00 -1.040031e+00 -8.229016e-01 -6.122369e-01 -4.087214e-01 -2.111816e-01 
-1.414876e-02 1.734844e-01 3.653090e-01 5.652629e-01 7.764017e-01 9.994288e-01 1.231320e+00 1.464055e+00 1.688092e+00 1.898532e+00 2.121961e+00 2.435413e+00 3.046660e+00 4.251172e+00 6.858174e+00 -7.952009e+00 -8.116795e+00 1.620548e+01 6.995964e+00 -8.954336e+00 -6.286206e+00 -4.199647e+00 -2.685923e+00 -1.587753e+00 -7.543436e-01 -1.202246e-01 3.417370e-01 6.336536e-01 7.576901e-01 7.226385e-01 5.473175e-01 2.665537e-01 -7.310713e-02 -4.171294e-01 -7.092405e-01 -9.001542e-01 -9.497991e-01 -8.310411e-01 -5.223797e-01 -3.145551e-03 7.546987e-01 1.791587e+00 3.142490e+00 4.817717e+00 6.871283e+00 1.011180e+01 -5.524418e-01 -1.961007e+01 2.570389e+00 1.303865e+01 -5.382591e+00 -4.173224e+00 -3.001814e+00 -2.383822e+00 -2.063219e+00 -1.845480e+00 -1.648013e+00 -1.442946e+00 -1.228110e+00 -1.010690e+00 -7.969467e-01 -5.908636e-01 -3.929466e-01 -2.017304e-01 
-1.119690e-02 1.645459e-01 3.451104e-01 5.347884e-01 7.369640e-01 9.524365e-01 1.177831e+00 1.404109e+00 1.619151e+00 1.814519e+00 2.009656e+00 2.274313e+00 2.812617e+00 3.969600e+00 6.512886e+00 -1.521611e+01 1.183525e+00 1.897771e+01 -6.961217e+00 -9.972643e+00 -7.001013e+00 -4.853976e+00 -3.282653e+00 -2.122543e+00 -1.245976e+00 -5.897253e-01 -1.136191e-01 1.999275e-01 3.647840e-01 3.970851e-01 3.172427e-01 1.555103e-01 -5.121274e-02 -2.610766e-01 -4.306716e-01 -5.214784e-01 -4.992966e-01 -3.383032e-01 -1.394622e-02 4.980151e-01 1.229399e+00 2.222497e+00 3.523988e+00 5.199567e+00 7.325061e+00 1.010512e+01 1.175945e+01 -1.793030e+01 -9.614952e+00 1.393996e+01 -2.916023e+00 -4.036904e+00 -2.940083e+00 -2.337404e+00 -2.002282e+00 -1.775244e+00 -1.572918e+00 -1.369351e+00 -1.160030e+00 -9.509326e-01 -7.471251e-01 -5.520561e-01 -3.658045e-01 -1.866477e-01 
-8.284609e-03 1.498870e-01 3.132445e-01 4.862464e-01 6.725248e-01 8.732196e-01 1.085187e+00 1.299597e+00 1.502782e+00 1.683194e+00 1.844803e+00 2.022565e+00 2.280555e+00 2.562087e+00 9.474923e-01 -1.160130e+01 1.125881e+01 1.436752e+01 -1.389764e+01 -1.000170e+01 -7.201693e+00 -5.122223e+00 -3.560047e+00 -2.399338e+00 -1.526271e+00 -8.768802e-01 -4.066732e-01 -8.808281e-02 9.890115e-02 1.746268e-01 1.594855e-01 7.967613e-02 -3.513179e-02 -1.523753e-01 -2.381367e-01 -2.618921e-01 -1.945363e-01 -1.224423e-02 3.106796e-01 8.003996e-01 1.492420e+00 2.430928e+00 3.670162e+00 5.289615e+00 7.369923e+00 1.019886e+01 1.386294e+01 -8.828997e+00 -1.520481e+01 7.897939e+00 4.038510e+00 -4.383130e+00 -3.018366e+00 -2.320022e+00 -1.927635e+00 -1.669999e+00 -1.455560e+00 -1.253549e+00 -1.054216e+00 -8.597952e-01 -6.727982e-01 -4.954486e-01 -3.271420e-01 -1.659359e-01 
-5.740396e-03 1.292538e-01 2.693988e-01 4.190495e-01 5.819259e-01 7.597105e-01 9.502512e-01 1.146771e+00 1.337670e+00 1.515036e+00 1.683653e+00 1.884887e+00 2.181527e+00 2.559192e+00 -5.340282e+00 -5.895716e+00 1.248020e+01 4.599579e+00 -1.282555e+01 -9.356704e+00 -6.785717e+00 -4.897530e+00 -3.465534e+00 -2.390838e+00 -1.583147e+00 -9.823866e-01 -5.474218e-01 -2.470572e-01 -5.984692e-02 3.570256e-02 5.853479e-02 3.089567e-02 -2.368603e-02 -8.020918e-02 -1.125071e-01 -9.673704e-02 -8.601824e-03 1.730582e-01 4.729891e-01 9.170603e-01 1.540753e+00 2.386018e+00 3.503633e+00 4.952152e+00 6.760643e+00 8.958084e+00 1.100634e+01 1.870048e+00 -1.515748e+01 2.134636e+00 1.070632e+01 -4.838608e+00 -3.182768e+00 -2.319419e+00 -1.834551e+00 -1.525060e+00 -1.292924e+00 -1.094205e+00 -9.104897e-01 -7.377223e-01 -5.746513e-01 -4.217459e-01 -2.775703e-01 -1.400609e-01 
-3.596741e-03 1.030205e-01 2.142413e-01 3.339513e-01 4.656320e-01 6.114390e-01 7.706194e-01 9.397801e-01 1.112793e+00 1.292169e+00 1.503662e+00 1.843560e+00 2.561232e+00 4.243755e+00 -7.260689e+00 -2.388340e+00 1.088892e+01 -7.065666e-01 -8.163608e+00 -7.097900e+00 -5.518539e+00 -4.117516e+00 -2.977826e+00 -2.093087e+00 -1.420094e+00 -9.162437e-01 -5.504144e-01 -2.943610e-01 -1.290958e-01 -3.517843e-02 3.238850e-03 3.866245e-03 -1.549766e-02 -3.636457e-02 -3.934733e-02 -6.566321e-03 8.103262e-02 2.408777e-01 4.942627e-01 8.642657e-01 1.381743e+00 2.083069e+00 3.007504e+00 4.194044e+00 5.651401e+00 7.355599e+00 9.229767e+00 8.010896e+00 -1.370292e+01 -2.677893e+00 1.103307e+01 -5.049015e+00 -3.371085e+00 -2.286524e+00 -1.684285e+00 -1.318736e+00 -1.074676e+00 -8.880361e-01 -7.288651e-01 -5.859972e-01 -4.542284e-01 -3.322730e-01 -2.180293e-01 -1.095045e-01 
-2.037710e-03 7.177435e-02 1.490775e-01 2.328338e-01 3.258166e-01 4.301387e-01 5.461467e-01 6.733857e-01 8.111158e-01 9.702159e-01 1.190888e+00 1.596234e+00 2.503926e+00 4.603425e+00 -6.473713e+00 -7.262752e-01 8.820058e+00 -2.666685e+00 -5.251069e+00 -4.690637e+00 -3.818158e+00 -2.934511e+00 -2.165326e+00 -1.545718e+00 -1.065431e+00 -7.026221e-01 -4.378624e-01 -2.508776e-01 -1.277004e-01 -5.376791e-02 -1.762417e-02 -6.859487e-03 -9.430079e-03 -1.304924e-02 -4.800028e-03 2.732268e-02 9.654865e-02 2.153875e-01 3.994685e-01 6.662723e-01 1.038292e+00 1.542770e+00 2.204976e+00 3.049727e+00 4.075164e+00 5.245461e+00 6.564447e+00 7.561393e+00 -1.021835e+01 -2.872480e+00 8.258088e+00 -4.914064e+00 -3.256027e+00 -2.025921e+00 -1.375469e+00 -1.007794e+00 -7.856910e-01 -6.324365e-01 -5.115541e-01 -4.080731e-01 -3.148587e-01 -2.296724e-01 -1.503502e-01 -7.525953e-02 
-8.759341e-04 3.689289e-02 7.655318e-02 1.197198e-01 1.679476e-01 2.225723e-01 2.841567e-01 3.533291e-01 4.314471e-01 5.283784e-01 6.756975e-01 9.628134e-01 1.623652e+00 3.151521e+00 -3.651014e+00 -2.459739e-01 5.038512e+00 -1.689222e+00 -2.379862e+00 -2.272894e+00 -1.925667e+00 -1.514504e+00 -1.134314e+00 -8.183874e-01 -5.695082e-01 -3.799644e-01 -2.410398e-01 -1.423517e-01 -7.663273e-02 -3.610639e-02 -1.478888e-02 -6.266757e-03 -4.448489e-03 -3.168248e-03 4.054264e-03 2.328182e-02 6.130393e-02 1.246850e-01 2.216874e-01 3.617647e-01 5.567210e-01 8.211294e-01 1.167154e+00 1.606229e+00 2.134822e+00 2.720060e+00 3.355626e+00 3.640940e+00 -6.166938e+00 -1.473355e+00 4.432863e+00 -3.291254e+00 -2.132940e+00 -1.250509e+00 -7.992562e-01 -5.572465e-01 -4.193872e-01 -3.307053e-01 -2.644173e-01 -2.096830e-01 -1.612336e-01 -1.173785e-01 -7.671221e-02 -3.830737e-02 
3.836284e-12 7.554599e-12 1.169543e-11 1.629329e-11 2.121424e-11 2.609964e-11 3.028282e-11 3.267472e-11 3.212113e-11 2.789911e-11 2.041642e-11 1.148280e-11 9.602464e-12 5.116917e-11 -4.322591e-10 -3.084642e-10 1.039057e-10 -6.843056e-11 -9.973096e-12 1.034963e-11 1.675063e-11 1.699858e-11 1.560363e-11 1.427913e-11 1.314684e-11 1.206756e-11 1.079213e-11 9.243196e-12 7.435725e-12 5.473279e-12 3.491634e-12 1.557504e-12 -1.664381e-13 -1.460290e-12 -2.113088e-12 -1.875746e-12 -3.744228e-13 2.714445e-12 7.731334e-12 1.477950e-11 2.370004e-11 3.373450e-11 4.342948e-11 5.126219e-11 5.467566e-11 4.601136e-11 -2.094722e-11 -3.618557e-10 -5.563528e-10 4.266248e-10 3.707556e-10 -5.332721e-10 -3.147255e-10 -7.989812e-11 -2.000679e-11 -7.834415e-12 -8.477205e-12 -1.046376e-11 -1.118437e-11 -1.031296e-11 -8.326335e-12 -5.692607e-12 -2.747697e-12 4.178792e-13 
8.759341e-04 -3.689289e-02 -7.655318e-02 -1.197198e-01 -1.679476e-01 -2.225723e-01 -2.841567e-01 -3.533291e-01 -4.314471e-01 -5.283784e-01 -6.756975e-01 -9.628134e-01 -1.623652e+00 -3.151521e+00 3.651014e+00 2.459739e-01 -5.038512e+00 1.689222e+00 2.379862e+00 2.272894e+00 1.925667e+00 1.514504e+00 1.134314e+00 8.183874e-01 5.695082e-01 3.799644e-01 2.410398e-01 1.423517e-01 7.663273e-02 3.610639e-02 1.478888e-02 6.266757e-03 4.448489e-03 3.168248e-03 -4.054264e-03 -2.328182e-02 -6.130393e-02 -1.246850e-01 -2.216874e-01 -3.617647e-01 -5.567210e-01 -8.211294e-01 -1.167154e+00 -1.606229e+00 -2.134822e+00 -2.720060e+00 -3.355626e+00 -3.640940e+00 6.166938e+00 1.473355e+00 -4.432863e+00 3.291254e+00 2.132940e+00 1.250509e+00 7.992562e-01 5.572465e-01 4.193872e-01 3.307053e-01 2.644173e-01 2.096830e-01 1.612336e-01 1.173785e-01 7.671221e-02 3.830737e-02 