# vtk DataFile Version 2.0
Comment goes here
ASCII

DATASET STRUCTURED_POINTS
FIELD FieldData 1
TIME 1 1 double
0.74000000
DIMENSIONS    64   64   1

ORIGIN    0.000   0.000   0.000
SPACING   0.015625 0.015625   1.000

POINT_DATA   4096
SCALARS Omega double
LOOKUP_TABLE default

-3.322565e-14 -1.182199e-14 4.780440e-15 1.924289e-14 4.168794e-14 6.206344e-14 5.501935e-14 7.147595e-14 7.898454e-14 9.637226e-14 8.510870e-14 1.089488e-13 1.450789e-13 1.383858e-13 1.526607e-13 1.845856e-13 2.048362e-13 2.475392e-13 3.175581e-13 4.025103e-13 5.148096e-13 6.632588e-13 8.292668e-13 9.948033e-13 1.136429e-12 1.261036e-12 1.321986e-12 1.289699e-12 1.170601e-12 9.386983e-13 6.123798e-13 2.041808e-13 -2.297761e-13 -6.506369e-13 -1.010490e-12 -1.267251e-12 -1.407151e-12 -1.446011e-12 -1.383511e-12 -1.259236e-12 -1.134979e-12 -9.869076e-13 -8.376381e-13 -7.285432e-13 -6.427690e-13 -5.565172e-13 -4.902334e-13 -4.340514e-13 -3.777937e-13 -3.454384e-13 -3.106569e-13 -2.803619e-13 -2.293875e-13 -2.476827e-13 -2.295971e-13 -2.031213e-13 -1.742937e-13 -1.716974e-13 -1.435562e-13 -1.137558e-13 -9.515764e-14 -9.065291e-14 -6.445353e-14 -4.722537e-14 
-1.146351e-04 5.913832e-03 1.196223e-02 1.804554e-02 2.416810e-02 3.031536e-02 3.645003e-02 4.249623e-02 4.834066e-02 5.380148e-02 5.864194e-02 6.251948e-02 6.502387e-02 6.561131e-02 6.368280e-02 5.852037e-02 4.941769e-02 3.564770e-02 1.663906e-02 -7.985260e-03 -3.822061e-02 -7.353175e-02 -1.127113e-01 -1.536376e-01 -1.932546e-01 -2.274690e-01 -2.514002e-01 -2.599846e-01 -2.486435e-01 -2.149222e-01 -1.590655e-01 -8.545842e-02 -1.679011e-03 8.231154e-02 1.565223e-01 2.132137e-01 2.478077e-01 2.599282e-01 2.518815e-01 2.282696e-01 1.941377e-01 1.544656e-01 1.133924e-01 7.403972e-02 3.856378e-02 8.183106e-03 -1.655680e-02 -3.565991e-02 -4.950314e-02 -5.866283e-02 -6.386966e-02 -6.582897e-02 -6.526482e-02 -6.277281e-02 -5.890363e-02 -5.406412e-02 -4.860269e-02 -4.275362e-02 -3.670272e-02 -3.056195e-02 -2.440933e-02 -1.828182e-02 -1.219472e-02 -6.144023e-03 
-2.330619e-04 1.196351e-02 2.419220e-02 3.647575e-02 4.881625e-02 6.117926e-02 7.348520e-02 8.557747e-02 9.722332e-02 1.080507e-01 1.175744e-01 1.250941e-01 1.297706e-01 1.304953e-01 1.260486e-01 1.149730e-01 9.583498e-02 6.715729e-02 2.776934e-02 -2.312032e-02 -8.555055e-02 -1.585022e-01 -2.396025e-01 -3.245952e-01 -4.072646e-01 -4.791418e-01 -5.299796e-01 -5.489304e-01 -5.260033e-01 -4.555498e-01 -3.377275e-01 -1.816632e-01 -3.603379e-03 1.749300e-01 3.323437e-01 4.520219e-01 5.244038e-01 5.490285e-01 5.312278e-01 4.810407e-01 4.092953e-01 3.264589e-01 2.411154e-01 1.596228e-01 8.631207e-02 2.357396e-02 -2.755558e-02 -6.713789e-02 -9.596699e-02 -1.152243e-01 -1.263949e-01 -1.309092e-01 -1.302371e-01 -1.255903e-01 -1.180916e-01 -1.085729e-01 -9.774690e-02 -8.609368e-02 -7.399361e-02 -6.167675e-02 -4.930414e-02 -3.695462e-02 -2.466420e-02 -1.243131e-02 
-3.582280e-04 1.827220e-02 3.693187e-02 5.563703e-02 7.437429e-02 9.307806e-02 1.116152e-01 1.297369e-01 1.470760e-01 1.630512e-01 1.769032e-01 1.875431e-01 1.936672e-01 1.935677e-01 1.853715e-01 1.668566e-01 1.358406e-01 9.007467e-02 2.775799e-02 -5.237100e-02 -1.504731e-01 -2.651508e-01 -3.929595e-01 -5.275263e-01 -6.593317e-01 -7.750518e-01 -8.582147e-01 -8.908432e-01 -8.559831e-01 -7.433726e-01 -5.524298e-01 -2.976661e-01 -6.001544e-03 2.864987e-01 5.436438e-01 7.378366e-01 8.537987e-01 8.915517e-01 8.608291e-01 7.786577e-01 6.630353e-01 5.308193e-01 3.955745e-01 2.670583e-01 1.517717e-01 5.317222e-02 -2.733041e-02 -8.994476e-02 -1.359445e-01 -1.671488e-01 -1.858192e-01 -1.941311e-01 -1.943239e-01 -1.882571e-01 -1.776598e-01 -1.638241e-01 -1.478578e-01 -1.305129e-01 -1.123837e-01 -9.383354e-02 -7.511810e-02 -5.636956e-02 -3.765574e-02 -1.899083e-02 
-4.928931e-04 2.493877e-02 5.037490e-02 7.580420e-02 1.011773e-01 1.263789e-01 1.512020e-01 1.752838e-01 1.980947e-01 2.188097e-01 2.363541e-01 2.492048e-01 2.555508e-01 2.530514e-01 2.391645e-01 2.109081e-01 1.653730e-01 9.956274e-02 1.105241e-02 -1.019226e-01 -2.397402e-01 -4.007634e-01 -5.806534e-01 -7.710118e-01 -9.589517e-01 -1.125812e+00 -1.247908e+00 -1.298494e+00 -1.251608e+00 -1.090432e+00 -8.126350e-01 -4.387935e-01 -9.085116e-03 4.219774e-01 7.996661e-01 1.082673e+00 1.249178e+00 1.300558e+00 1.252828e+00 1.132050e+00 9.650876e-01 7.762642e-01 5.846915e-01 4.036312e-01 2.416758e-01 1.031481e-01 -1.032877e-02 -9.922795e-02 -1.653469e-01 -2.111398e-01 -2.396211e-01 -2.536850e-01 -2.563351e-01 -2.500901e-01 -2.373182e-01 -2.198135e-01 -1.991249e-01 -1.763174e-01 -1.522343e-01 -1.274007e-01 -1.021892e-01 -7.680541e-02 -5.136786e-02 -2.592674e-02 
-6.373307e-04 3.203356e-02 6.465577e-02 9.716246e-02 1.294394e-01 1.612929e-01 1.924090e-01 2.222733e-01 2.501468e-01 2.749085e-01 2.951103e-01 3.087462e-01 3.134653e-01 3.063000e-01 2.840864e-01 2.431838e-01 1.800837e-01 9.118282e-02 -2.646779e-02 -1.751078e-01 -3.554113e-01 -5.656958e-01 -8.010185e-01 -1.051255e+00 -1.300364e+00 -1.524155e+00 -1.691021e+00 -1.763887e+00 -1.705735e+00 -1.491043e+00 -1.114482e+00 -6.032035e-01 -1.304223e-02 5.791877e-01 1.096352e+00 1.480836e+00 1.703575e+00 1.768375e+00 1.699562e+00 1.534275e+00 1.309897e+00 1.059053e+00 8.067412e-01 5.695765e-01 3.579540e-01 1.767306e-01 2.750339e-02 -9.057769e-02 -1.798251e-01 -2.432327e-01 -2.844271e-01 -3.068886e-01 -3.142791e-01 -3.097250e-01 -2.962248e-01 -2.761042e-01 -2.514018e-01 -2.235528e-01 -1.937030e-01 -1.625861e-01 -1.307297e-01 -9.844682e-02 -6.593510e-02 -3.330987e-02 
-7.918460e-04 3.959566e-02 7.984592e-02 1.198004e-01 1.592401e-01 1.978505e-01 2.351590e-01 2.704405e-01 3.026780e-01 3.303832e-01 3.516744e-01 3.640314e-01 3.645882e-01 3.498538e-01 3.162354e-01 2.597087e-01 1.764858e-01 6.266922e-02 -8.499000e-02 -2.691043e-01 -4.907529e-01 -7.484527e-01 -1.037170e+00 -1.345594e+00 -1.655256e+00 -1.936861e+00 -2.150915e+00 -2.249337e+00 -2.182575e+00 -1.914589e+00 -1.435643e+00 -7.791939e-01 -1.811249e-02 7.460154e-01 1.411111e+00 1.901651e+00 2.181358e+00 2.257629e+00 2.164771e+00 1.952465e+00 1.669351e+00 1.356543e+00 1.044691e+00 7.531660e-01 4.936294e-01 2.708871e-01 8.619855e-02 -6.182809e-02 -1.759437e-01 -2.594654e-01 -3.163214e-01 -3.502510e-01 -3.652956e-01 -3.649872e-01 -3.528476e-01 -3.317035e-01 -3.041127e-01 -2.719391e-01 -2.367023e-01 -1.994136e-01 -1.608158e-01 -1.213807e-01 -8.142856e-02 -4.117960e-02 
-9.526738e-04 4.764404e-02 9.597092e-02 1.437312e-01 1.905459e-01 2.359190e-01 2.791429e-01 3.191980e-01 3.546992e-01 3.837151e-01 4.038926e-01 4.122392e-01 4.055272e-01 3.800459e-01 3.322111e-01 2.581743e-01 1.544338e-01 1.731385e-02 -1.564313e-01 -3.696799e-01 -6.241387e-01 -9.189064e-01 -1.249604e+00 -1.604636e+00 -1.964501e+00 -2.296219e+00 -2.553832e+00 -2.678971e+00 -2.609588e+00 -2.298260e+00 -1.729536e+00 -9.420701e-01 -2.460493e-02 8.971677e-01 1.696894e+00 2.282074e+00 2.610005e+00 2.692757e+00 2.575190e+00 2.319446e+00 1.984717e+00 1.619452e+00 1.258879e+00 9.239599e-01 6.267109e-01 3.710460e-01 1.573869e-01 -1.649200e-02 -1.537102e-01 -2.576217e-01 -3.319426e-01 -3.801061e-01 -4.059669e-01 -4.130181e-01 -4.049920e-01 -3.850552e-01 -3.562369e-01 -3.208642e-01 -2.809043e-01 -2.377364e-01 -1.924026e-01 -1.456110e-01 -9.786559e-02 -4.954733e-02 
-1.117086e-03 5.618619e-02 1.130310e-01 1.689211e-01 2.232434e-01 2.752345e-01 3.238487e-01 3.676651e-01 4.048333e-01 4.329304e-01 4.491786e-01 4.503149e-01 4.331552e-01 3.943992e-01 3.312850e-01 2.410395e-01 1.212619e-01 -3.091705e-02 -2.185574e-01 -4.449547e-01 -7.130569e-01 -1.023149e+00 -1.372688e+00 -1.750758e+00 -2.139155e+00 -2.503465e+00 -2.793944e+00 -2.944866e+00 -2.883570e+00 -2.552352e+00 -1.929600e+00 -1.056377e+00 -3.311061e-02 9.961334e-01 1.886298e+00 2.531956e+00 2.886345e+00 2.966237e+00 2.825806e+00 2.537649e+00 2.168188e+00 1.770942e+00 1.383936e+00 1.027942e+00 7.143839e-01 4.449309e-01 2.184284e-01 3.108802e-02 -1.207728e-01 -2.403925e-01 -3.307132e-01 -3.940525e-01 -4.331866e-01 -4.507464e-01 -4.500368e-01 -4.341445e-01 -4.063591e-01 -3.694150e-01 -3.257721e-01 -2.772722e-01 -2.253637e-01 -1.710945e-01 -1.152393e-01 -5.841449e-02 
-1.276454e-03 6.524588e-02 1.310487e-01 1.953565e-01 2.572221e-01 3.155028e-01 3.686863e-01 4.148343e-01 4.515605e-01 4.759915e-01 4.851546e-01 4.760159e-01 4.462472e-01 3.940711e-01 3.188067e-01 2.199697e-01 9.708310e-02 -5.162483e-02 -2.295154e-01 -4.411839e-01 -6.922576e-01 -9.850877e-01 -1.320233e+00 -1.687939e+00 -2.073581e+00 -2.444408e+00 -2.750997e+00 -2.925590e+00 -2.889820e+00 -2.578257e+00 -1.962803e+00 -1.083675e+00 -4.454783e-02 1.002634e+00 1.904737e+00 2.551955e+00 2.895702e+00 2.957388e+00 2.797985e+00 2.495465e+00 2.117038e+00 1.717196e+00 1.334857e+00 9.894551e-01 6.913454e-01 4.384554e-01 2.269631e-01 4.993852e-02 -9.779227e-02 -2.199098e-01 -3.183267e-01 -3.934726e-01 -4.458470e-01 -4.759702e-01 -4.855947e-01 -4.769001e-01 -4.529170e-01 -4.165433e-01 -3.706800e-01 -3.176975e-01 -2.595640e-01 -1.977967e-01 -1.335537e-01 -6.778749e-02 
-1.425238e-03 7.487848e-02 1.501079e-01 2.231039e-01 2.924584e-01 3.565128e-01 4.131467e-01 4.598133e-01 4.936102e-01 5.114497e-01 5.107297e-01 4.896269e-01 4.480763e-01 3.875164e-01 3.110059e-01 2.215295e-01 1.207711e-01 7.137153e-03 -1.250966e-01 -2.843279e-01 -4.814525e-01 -7.218516e-01 -1.009883e+00 -1.334870e+00 -1.688326e+00 -2.042001e+00 -2.349087e+00 -2.548546e+00 -2.561786e+00 -2.319773e+00 -1.788617e+00 -1.002667e+00 -6.055326e-02 8.923784e-01 1.709187e+00 2.285336e+00 2.573226e+00 2.595188e+00 2.418350e+00 2.121063e+00 1.758236e+00 1.382294e+00 1.032624e+00 7.273974e-01 4.781218e-01 2.776717e-01 1.183985e-01 -1.256991e-02 -1.244427e-01 -2.234983e-01 -3.116484e-01 -3.872804e-01 -4.475145e-01 -4.891267e-01 -5.106307e-01 -5.118692e-01 -4.946077e-01 -4.613160e-01 -4.150806e-01 -3.587692e-01 -2.949555e-01 -2.257657e-01 -1.528780e-01 -7.770955e-02 
-1.549005e-03 8.520889e-02 1.704189e-01 2.524082e-01 3.291544e-01 3.983335e-01 4.570931e-01 5.022680e-01 5.306517e-01 5.395238e-01 5.277516e-01 4.963938e-01 4.497848e-01 3.947958e-01 3.398460e-01 2.916616e-01 2.523443e-01 2.167431e-01 1.714843e-01 9.929142e-02 -1.991588e-02 -1.942365e-01 -4.297095e-01 -7.072146e-01 -1.020496e+00 -1.350082e+00 -1.645644e+00 -1.874094e+00 -1.968783e+00 -1.853692e+00 -1.473605e+00 -8.543347e-01 -8.371254e-02 7.006428e-01 1.360314e+00 1.807954e+00 1.993128e+00 1.942755e+00 1.746239e+00 1.476157e+00 1.141224e+00 7.918705e-01 4.712514e-01 2.063357e-01 1.630095e-02 -1.099938e-01 -1.838840e-01 -2.283673e-01 -2.616880e-01 -2.981814e-01 -3.436328e-01 -3.963338e-01 -4.498864e-01 -4.958005e-01 -5.271598e-01 -5.393267e-01 -5.310918e-01 -5.033608e-01 -4.587898e-01 -4.005110e-01 -3.316996e-01 -2.552108e-01 -1.733911e-01 -8.827630e-02 
-1.639587e-03 9.643926e-02 1.923515e-01 2.837561e-01 3.678459e-01 4.414928e-01 5.010552e-01 5.429128e-01 5.641019e-01 5.633969e-01 5.429963e-01 5.093768e-01 4.741167e-01 4.517836e-01 4.566352e-01 4.965733e-01 5.678565e-01 6.523483e-01 7.182667e-01 7.305934e-01 6.571729e-01 4.924385e-01 2.380895e-01 -5.619720e-02 -3.656377e-01 -7.028092e-01 -9.653066e-01 -1.226853e+00 -1.443706e+00 -1.516215e+00 -1.297279e+00 -8.014825e-01 -1.181841e-01 5.806519e-01 1.123438e+00 1.453797e+00 1.509848e+00 1.331160e+00 1.097404e+00 9.021968e-01 5.823457e-01 2.146468e-01 -1.572519e-01 -4.614400e-01 -6.537914e-01 -7.420164e-01 -7.361340e-01 -6.722000e-01 -5.862070e-01 -5.113226e-01 -4.669066e-01 -4.576845e-01 -4.766176e-01 -5.096559e-01 -5.423041e-01 -5.626129e-01 -5.638274e-01 -5.433745e-01 -5.022963e-01 -4.434073e-01 -3.702948e-01 -2.865896e-01 -1.954405e-01 -9.967170e-02 
-1.674177e-03 1.088787e-01 2.164797e-01 3.179481e-01 4.095247e-01 4.871885e-01 5.465927e-01 5.841199e-01 5.981120e-01 5.907315e-01 5.703301e-01 5.522040e-01 5.582524e-01 6.117612e-01 7.297147e-01 9.122837e-01 1.134739e+00 1.346670e+00 1.478507e+00 1.465281e+00 1.267876e+00 9.097990e-01 4.208376e-01 -9.244912e-02 -4.947275e-01 -9.777586e-01 -1.089000e+00 -1.308789e+00 -1.672369e+00 -2.019454e+00 -1.815895e+00 -1.183630e+00 -1.665927e-01 8.555801e-01 1.512218e+00 1.910402e+00 1.866349e+00 1.481809e+00 1.203880e+00 1.278922e+00 8.972568e-01 3.898055e-01 -2.736106e-01 -8.365865e-01 -1.240469e+00 -1.466898e+00 -1.496676e+00 -1.374240e+00 -1.164811e+00 -9.396724e-01 -7.511862e-01 -6.261213e-01 -5.661796e-01 -5.552612e-01 -5.705142e-01 -5.896930e-01 -5.970805e-01 -5.837357e-01 -5.471161e-01 -4.885948e-01 -4.116708e-01 -3.206459e-01 -2.195492e-01 -1.121583e-01 
-1.640742e-03 1.229156e-01 2.435569e-01 3.560898e-01 4.556675e-01 5.373930e-01 5.965332e-01 6.303785e-01 6.403536e-01 6.348787e-01 6.323082e-01 6.606551e-01 7.542320e-01 9.421667e-01 1.233251e+00 1.598894e+00 1.962986e+00 2.207584e+00 2.194010e+00 1.812333e+00 1.050843e+00 6.385404e-02 -1.098552e+00 -2.273397e+00 -2.688950e+00 -3.767105e+00 -3.255976e+00 -3.239990e+00 -3.724831e+00 -4.569944e+00 -3.718587e+00 -2.315936e+00 -2.117328e-01 1.827004e+00 3.082778e+00 4.252252e+00 4.320370e+00 3.583976e+00 3.097252e+00 4.149650e+00 3.440981e+00 2.809688e+00 1.322938e+00 9.727522e-02 -9.688769e-01 -1.780707e+00 -2.196524e+00 -2.234584e+00 -2.003423e+00 -1.642174e+00 -1.271352e+00 -9.705961e-01 -7.722184e-01 -6.696857e-01 -6.352095e-01 -6.343997e-01 -6.387296e-01 -6.289822e-01 -5.960464e-01 -5.379908e-01 -4.572491e-01 -3.584402e-01 -2.464360e-01 -1.260973e-01 
-1.503013e-03 1.390076e-01 2.744679e-01 3.995210e-01 5.081695e-01 5.948322e-01 6.550610e-01 6.885709e-01 7.025592e-01 7.156443e-01 7.608136e-01 8.820253e-01 1.124396e+00 1.511238e+00 2.017252e+00 2.543816e+00 2.909503e+00 2.873124e+00 2.182150e+00 6.678009e-01 -1.593713e+00 -3.833855e+00 -6.139904e+00 -9.041229e+00 -9.228472e+00 -8.931132e+00 -3.608716e+00 2.107849e+00 5.254112e+00 5.128435e+00 4.470001e+00 2.239207e+00 1.254346e-01 -2.316451e+00 -4.566692e+00 -5.656914e+00 -5.279982e+00 -2.445017e+00 2.392313e+00 8.576359e+00 1.016782e+01 9.930866e+00 6.275285e+00 4.200029e+00 1.772427e+00 -5.653208e-01 -2.135501e+00 -2.876038e+00 -2.948674e+00 -2.601174e+00 -2.076041e+00 -1.560082e+00 -1.158608e+00 -9.017384e-01 -7.694062e-01 -7.172148e-01 -7.008237e-01 -6.860772e-01 -6.532329e-01 -5.942319e-01 -5.088261e-01 -4.012195e-01 -2.769034e-01 -1.418717e-01 
-1.242760e-03 1.575840e-01 3.100821e-01 4.496300e-01 5.691376e-01 6.627862e-01 7.275535e-01 7.678746e-01 8.004290e-01 8.589554e-01 9.956702e-01 1.270815e+00 1.730635e+00 2.364965e+00 3.064537e+00 3.589206e+00 3.569450e+00 2.568193e+00 1.902757e-01 -3.791545e+00 -9.416113e+00 -1.307880e+01 -1.370844e+01 -7.426893e+00 3.201776e+00 5.654951e+00 2.876606e+00 -6.846318e-01 -2.646478e+00 -3.388205e+00 -2.841610e+00 -1.688262e+00 7.602819e-02 1.414025e+00 3.150361e+00 3.025322e+00 1.881679e+00 8.803387e-02 -3.535669e+00 -6.632204e+00 -4.073872e+00 6.740033e+00 1.349292e+01 1.394717e+01 9.647097e+00 4.004704e+00 -2.833529e-02 -2.490902e+00 -3.572143e+00 -3.645139e+00 -3.141942e+00 -2.439126e+00 -1.788032e+00 -1.307360e+00 -1.014195e+00 -8.648862e-01 -7.994533e-01 -7.643137e-01 -7.240186e-01 -6.605149e-01 -5.684208e-01 -4.503004e-01 -3.117667e-01 -1.598695e-01 
-8.070501e-04 1.789726e-01 3.510566e-01 5.075394e-01 6.404714e-01 7.445796e-01 8.200032e-01 8.790919e-01 9.527528e-01 1.095207e+00 1.380870e+00 1.879636e+00 2.614338e+00 3.487495e+00 4.221084e+00 4.325404e+00 3.136320e+00 -2.473816e-02 -5.552596e+00 -1.327236e+01 -1.723249e+01 -8.408751e+00 1.152473e+00 2.182047e+00 -3.259420e+00 -9.886576e+00 -1.408249e+01 -1.376989e+01 -1.243480e+01 -1.049375e+01 -7.652954e+00 -4.362178e+00 -1.588171e-01 3.764861e+00 7.274749e+00 1.015738e+01 1.190075e+01 1.315513e+01 1.394854e+01 9.474248e+00 2.206007e+00 -3.005139e+00 -2.233577e+00 7.372131e+00 1.683710e+01 1.362974e+01 5.971711e+00 2.930109e-01 -3.026518e+00 -4.338307e+00 -4.301021e+00 -3.585714e+00 -2.700442e+00 -1.939752e+00 -1.414702e+00 -1.108671e+00 -9.538552e-01 -8.745977e-01 -8.143210e-01 -7.400120e-01 -6.377730e-01 -5.066603e-01 -3.515580e-01 -1.803079e-01 
-1.744631e-04 2.032257e-01 3.975582e-01 5.737277e-01 7.233895e-01 8.430134e-01 9.383186e-01 1.033711e+00 1.179803e+00 1.456125e+00 1.957882e+00 2.746088e+00 3.773536e+00 4.767695e+00 5.156296e+00 4.053084e+00 3.832304e-01 -6.769530e+00 -1.525629e+01 -1.527073e+01 -4.897142e+00 2.496001e-01 -6.131248e+00 -1.472185e+01 -1.913024e+01 -1.732837e+01 -1.163019e+01 -3.011771e+00 2.210946e+00 4.438438e+00 4.465441e+00 2.275201e+00 1.396282e-02 -2.415249e+00 -4.873748e+00 -4.541920e+00 -1.919758e+00 2.855252e+00 1.066674e+01 1.688568e+01 1.869854e+01 1.492662e+01 6.220047e+00 -7.510232e-01 3.694692e+00 1.400294e+01 1.575519e+01 7.365154e+00 -2.935683e-02 -3.940985e+00 -5.197859e+00 -4.876308e+00 -3.889054e+00 -2.835708e+00 -2.012994e+00 -1.481037e+00 -1.184685e+00 -1.028512e+00 -9.299635e-01 -8.353921e-01 -7.179756e-01 -5.706817e-01 -3.963762e-01 -2.031906e-01 
7.110279e-04 2.300174e-01 4.489850e-01 6.475653e-01 8.177591e-01 9.594407e-01 1.087044e+00 1.241991e+00 1.500250e+00 1.969131e+00 2.755692e+00 3.875274e+00 5.138216e+00 5.972909e+00 5.360703e+00 1.864981e+00 -5.996498e+00 -1.495241e+01 -1.543783e+01 -6.620145e+00 -5.772562e+00 -1.531116e+01 -2.000840e+01 -1.431747e+01 -1.045973e+00 9.252290e+00 1.181402e+01 1.041633e+01 7.754121e+00 5.752789e+00 3.959977e+00 2.008464e+00 1.961666e-02 -2.019250e+00 -3.984590e+00 -5.459357e+00 -6.908274e+00 -9.670285e+00 -1.206257e+01 -9.021580e+00 7.604841e-01 1.361252e+01 1.990712e+01 1.607486e+01 6.221508e+00 5.575507e+00 1.498655e+01 1.529478e+01 6.695655e+00 -1.509129e+00 -5.291799e+00 -6.057332e+00 -5.274136e+00 -3.996933e+00 -2.837772e+00 -2.009778e+00 -1.510857e+00 -1.236269e+00 -1.075305e+00 -9.477772e-01 -8.086885e-01 -6.415633e-01 -4.454799e-01 -2.280727e-01 
1.853303e-03 2.584597e-01 5.036836e-01 7.269265e-01 9.215834e-01 1.093067e+00 1.268311e+00 1.511183e+00 1.927732e+00 2.651018e+00 3.779339e+00 5.225561e+00 6.564312e+00 6.797264e+00 4.335521e+00 -2.902124e+00 -1.524607e+01 -1.884760e+01 -1.237540e+01 -1.128319e+01 -1.640115e+01 -1.127381e+01 1.721526e+00 7.833528e+00 9.311553e+00 9.097228e+00 8.573985e+00 7.614269e+00 6.154413e+00 4.659771e+00 3.169952e+00 1.614939e+00 3.573984e-02 -1.543812e+00 -3.054286e+00 -4.392147e+00 -5.700360e+00 -7.177784e+00 -8.203680e+00 -8.129768e+00 -8.674566e+00 -8.311495e+00 -2.646230e+00 1.013686e+01 1.655484e+01 1.148564e+01 1.114892e+01 1.826731e+01 1.589587e+01 3.577789e+00 -4.051651e+00 -6.801688e+00 -6.702120e+00 -5.378919e+00 -3.893535e+00 -2.711925e+00 -1.946052e+00 -1.505040e+00 -1.252319e+00 -1.076235e+00 -9.078209e-01 -7.171252e-01 -4.971890e-01 -2.540551e-01 
3.263850e-03 2.870747e-01 5.588220e-01 8.079284e-01 1.030533e+00 1.240090e+00 1.480195e+00 1.842382e+00 2.465086e+00 3.498243e+00 4.997585e+00 6.694881e+00 7.840102e+00 6.928862e+00 1.968210e+00 -1.160622e+01 -2.408767e+01 -1.863175e+01 -1.162618e+01 -9.682346e+00 -1.981208e+00 7.122698e+00 9.527147e+00 7.434440e+00 6.691106e+00 6.270356e+00 5.862699e+00 5.272096e+00 4.436757e+00 3.457584e+00 2.380464e+00 1.226041e+00 4.160015e-02 -1.135648e+00 -2.256206e+00 -3.265360e+00 -4.176803e+00 -5.003097e+00 -5.580477e+00 -5.881225e+00 -6.439175e+00 -7.380111e+00 -9.345502e+00 -7.986097e+00 1.021572e+00 9.440171e+00 1.117755e+01 1.743743e+01 2.367728e+01 1.279920e+01 -1.227868e+00 -6.783015e+00 -7.962184e+00 -6.879129e+00 -5.148501e+00 -3.583353e+00 -2.492450e+00 -1.835324e+00 -1.458677e+00 -1.216733e+00 -1.010923e+00 -7.934248e-01 -5.486362e-01 -2.796336e-01 
4.887528e-03 3.137386e-01 6.103317e-01 8.848421e-01 1.137708e+00 1.393105e+00 1.715384e+00 2.227850e+00 3.099997e+00 4.481562e+00 6.336941e+00 8.116950e+00 8.626396e+00 5.768641e+00 -6.381036e+00 -2.789683e+01 -2.617203e+01 -8.779989e+00 -2.257255e+00 3.463238e+00 6.352464e+00 5.762398e+00 5.330907e+00 4.568849e+00 4.180942e+00 4.003810e+00 3.828875e+00 3.525121e+00 3.050705e+00 2.430718e+00 1.696873e+00 8.849460e-01 3.800391e-02 -8.034127e-01 -1.596533e+00 -2.301239e+00 -2.895342e+00 -3.362984e+00 -3.663315e+00 -3.831628e+00 -4.069422e+00 -4.523801e+00 -5.304761e+00 -5.872127e+00 -6.299299e+00 -3.470742e+00 2.391871e+00 7.734871e+00 2.485995e+01 2.844150e+01 6.994442e+00 -5.672806e+00 -8.790922e+00 -8.342544e+00 -6.528133e+00 -4.593423e+00 -3.136351e+00 -2.218547e+00 -1.686729e+00 -1.361825e+00 -1.111199e+00 -8.648718e-01 -5.958839e-01 -3.028039e-01 
6.623001e-03 3.358214e-01 6.531476e-01 9.503612e-01 1.233817e+00 1.540822e+00 1.959846e+00 2.647859e+00 3.799301e+00 5.543067e+00 7.697989e+00 9.341340e+00 8.736539e+00 2.204873e+00 -2.352421e+01 -3.479482e+01 -8.972952e+00 4.540000e+00 2.793131e+00 3.685983e+00 3.158969e+00 2.680976e+00 2.425553e+00 2.262931e+00 2.254670e+00 2.319036e+00 2.342714e+00 2.252001e+00 2.018260e+00 1.650847e+00 1.173943e+00 6.209395e-01 3.125793e-02 -5.557353e-01 -1.100599e+00 -1.566474e+00 -1.925817e+00 -2.159135e+00 -2.253722e+00 -2.240932e+00 -2.208109e+00 -2.246579e+00 -2.427260e+00 -2.715943e+00 -3.196263e+00 -3.766672e+00 -3.120184e+00 -4.856603e+00 7.249662e+00 3.358831e+01 2.486643e+01 -1.567439e+00 -8.949007e+00 -9.560483e+00 -7.911046e+00 -5.675031e+00 -3.839343e+00 -2.632354e+00 -1.921479e+00 -1.500183e+00 -1.199610e+00 -9.244615e-01 -6.341290e-01 -3.211478e-01 
8.320249e-03 3.503923e-01 6.815905e-01 9.960995e-01 1.307488e+00 1.667883e+00 2.191443e+00 3.067870e+00 4.506789e+00 6.595220e+00 8.973605e+00 1.036649e+01 9.386113e+00 -1.149919e+01 -4.026255e+01 -1.737817e+01 1.021278e+01 4.183248e+00 3.878322e-01 6.166425e-01 4.637271e-01 3.818035e-01 4.709522e-01 6.673475e-01 9.205070e-01 1.161806e+00 1.324770e+00 1.371633e+00 1.290529e+00 1.090525e+00 7.925690e-01 4.256906e-01 2.406327e-02 -3.766155e-01 -7.409213e-01 -1.036136e+00 -1.235661e+00 -1.320173e+00 -1.280578e+00 -1.129947e+00 -9.073865e-01 -6.711213e-01 -4.852621e-01 -4.065808e-01 -4.979613e-01 -7.165869e-01 -7.043547e-01 -3.700853e+00 -1.059023e+01 1.397390e+01 4.057916e+01 1.499751e+01 -8.418193e+00 -1.034442e+01 -9.174148e+00 -6.736469e+00 -4.540509e+00 -3.039416e+00 -2.140176e+00 -1.616734e+00 -1.265308e+00 -9.643072e-01 -6.580881e-01 -3.320675e-01 
9.752952e-03 3.544822e-01 6.898704e-01 1.013257e+00 1.346052e+00 1.755500e+00 2.380814e+00 3.439826e+00 5.146625e+00 7.526629e+00 9.906758e+00 1.035856e+01 4.514298e+00 -3.443699e+01 -3.399108e+01 9.041758e+00 7.499371e+00 -1.826854e+00 -1.736960e+00 -1.577857e+00 -1.413776e+00 -1.141785e+00 -7.643268e-01 -3.440378e-01 6.074257e-02 4.026650e-01 6.455612e-01 7.735260e-01 7.857885e-01 6.940123e-01 5.181058e-01 2.829908e-01 1.775105e-02 -2.474014e-01 -4.824549e-01 -6.589506e-01 -7.530973e-01 -7.455823e-01 -6.250059e-01 -3.924841e-01 -6.305350e-02 3.306480e-01 7.441985e-01 1.118331e+00 1.389220e+00 1.536697e+00 1.699926e+00 1.970869e+00 -6.007447e+00 -1.167985e+01 2.931845e+01 3.673379e+01 -2.631820e+00 -1.125556e+01 -1.028900e+01 -7.676419e+00 -5.150023e+00 -3.385994e+00 -2.312671e+00 -1.693609e+00 -1.296733e+00 -9.764584e-01 -6.626196e-01 -3.330712e-01 
1.069399e-02 3.455473e-01 6.729975e-01 9.939274e-01 1.337103e+00 1.783115e+00 2.492143e+00 3.702780e+00 5.632386e+00 8.282168e+00 1.074677e+01 1.112291e+01 -8.272835e+00 -4.200374e+01 -7.885603e+00 1.782182e+01 -3.708194e+00 -4.534465e+00 -3.587957e+00 -3.054643e+00 -2.559878e+00 -2.023455e+00 -1.464204e+00 -9.267419e-01 -4.535329e-01 -7.116171e-02 2.048094e-01 3.721597e-01 4.378313e-01 4.149331e-01 3.219111e-01 1.798045e-01 1.266475e-02 -1.547046e-01 -2.976009e-01 -3.922096e-01 -4.179880e-01 -3.566331e-01 -1.952415e-01 7.324411e-02 4.475799e-01 9.139916e-01 1.448207e+00 2.007688e+00 2.544541e+00 3.013497e+00 3.426798e+00 3.926671e+00 3.579894e+00 -1.625897e+01 3.197610e+00 4.115080e+01 1.194667e+01 -1.271216e+01 -1.104775e+01 -8.287081e+00 -5.548268e+00 -3.607420e+00 -2.404763e+00 -1.712244e+00 -1.282782e+00 -9.539217e-01 -6.433551e-01 -3.221246e-01 
1.093632e-02 3.217219e-01 6.271660e-01 9.316548e-01 1.269214e+00 1.730025e+00 2.486253e+00 3.787805e+00 5.859663e+00 8.706984e+00 1.161021e+01 1.403243e+01 -2.434731e+01 -3.471761e+01 8.548281e+00 5.081836e+00 -8.137171e+00 -5.733488e+00 -4.554309e+00 -3.776484e+00 -3.079476e+00 -2.406296e+00 -1.770549e+00 -1.201418e+00 -7.215817e-01 -3.425401e-01 -6.623599e-02 1.123199e-01 2.041229e-01 2.224595e-01 1.840753e-01 1.063720e-01 8.787695e-03 -8.906759e-02 -1.676278e-01 -2.075058e-01 -1.915106e-01 -1.028219e-01 7.181817e-02 3.437717e-01 7.188576e-01 1.196584e+00 1.767578e+00 2.410712e+00 3.097234e+00 3.796437e+00 4.525050e+00 5.492708e+00 7.574924e+00 -1.307080e+00 -1.233111e+01 2.958238e+01 3.001008e+01 -1.094529e+01 -1.037821e+01 -8.223892e+00 -5.617907e+00 -3.642153e+00 -2.384330e+00 -1.655318e+00 -1.213967e+00 -8.912029e-01 -5.971305e-01 -2.978039e-01 
1.027795e-02 2.822257e-01 5.507683e-01 8.229173e-01 1.134452e+00 1.577312e+00 2.320215e+00 3.600290e+00 5.622485e+00 8.295892e+00 1.097644e+01 1.109517e+01 -3.596614e+01 -2.069171e+01 1.897039e+01 -4.379646e+00 -6.635168e+00 -5.539497e+00 -4.611575e+00 -3.824136e+00 -3.085235e+00 -2.398723e+00 -1.778137e+00 -1.243910e+00 -8.040488e-01 -4.613506e-01 -2.097520e-01 -4.120386e-02 5.674749e-02 9.616737e-02 9.140293e-02 5.627329e-02 5.930724e-03 -4.462027e-02 -8.037720e-02 -8.616062e-02 -4.820261e-02 4.804337e-02 2.147288e-01 4.648531e-01 8.072529e-01 1.249559e+00 1.791437e+00 2.428497e+00 3.146893e+00 3.938050e+00 4.824067e+00 5.993140e+00 8.155557e+00 9.242273e+00 -1.912044e+01 1.234257e+01 3.597746e+01 -5.214770e+00 -8.747625e+00 -7.526425e+00 -5.311454e+00 -3.441029e+00 -2.221932e+00 -1.507871e+00 -1.083776e+00 -7.855003e-01 -5.228367e-01 -2.597624e-01 
8.758082e-03 2.276373e-01 4.446892e-01 6.678673e-01 9.301009e-01 1.314224e+00 1.966572e+00 3.083680e+00 4.818796e+00 6.954320e+00 8.667352e+00 2.898241e+00 -3.151982e+01 -5.844684e+00 1.967818e+01 -6.176716e+00 -5.595255e+00 -4.841828e+00 -4.083944e+00 -3.364039e+00 -2.694011e+00 -2.087233e+00 -1.553139e+00 -1.104832e+00 -7.407008e-01 -4.595750e-01 -2.519402e-01 -1.097201e-01 -2.129789e-02 2.318744e-02 3.517358e-02 2.499813e-02 3.844325e-03 -1.743228e-02 -2.796565e-02 -1.651258e-02 2.728761e-02 1.151192e-01 2.570073e-01 4.651922e-01 7.484944e-01 1.118071e+00 1.577497e+00 2.132848e+00 2.778588e+00 3.517942e+00 4.361398e+00 5.376981e+00 6.751304e+00 8.411272e+00 -1.623322e+01 1.758312e+00 2.863185e+01 1.318390e+00 -7.719920e+00 -6.580741e+00 -4.643225e+00 -2.978916e+00 -1.895088e+00 -1.259805e+00 -8.889927e-01 -6.367402e-01 -4.211728e-01 -2.085261e-01 
6.349077e-03 1.599070e-01 3.126739e-01 4.715397e-01 6.618221e-01 9.461842e-01 1.432256e+00 2.257644e+00 3.517079e+00 4.968833e+00 5.696926e+00 -3.865537e+00 -2.036402e+01 -2.352535e-01 1.062509e+01 -4.729885e+00 -4.266573e+00 -3.645020e+00 -3.058067e+00 -2.498148e+00 -1.987219e+00 -1.535665e+00 -1.144807e+00 -8.222992e-01 -5.623779e-01 -3.629327e-01 -2.149813e-01 -1.122574e-01 -4.581942e-02 -8.732744e-03 6.981921e-03 8.198642e-03 2.299358e-03 -3.657137e-03 -2.595037e-03 1.292507e-02 4.982661e-02 1.163100e-01 2.194776e-01 3.688188e-01 5.712114e-01 8.369984e-01 1.170154e+00 1.579839e+00 2.063097e+00 2.624372e+00 3.249915e+00 3.894369e+00 4.404142e+00 4.083712e+00 -9.310536e+00 -1.682431e+00 1.869899e+01 5.884244e+00 -6.294179e+00 -5.103850e+00 -3.514522e+00 -2.223216e+00 -1.394235e+00 -9.113303e-01 -6.336874e-01 -4.494800e-01 -2.958058e-01 -1.460533e-01 
3.360162e-03 8.253893e-02 1.614930e-01 2.441804e-01 3.444609e-01 4.959805e-01 7.560328e-01 1.194677e+00 1.859364e+00 2.632359e+00 3.135533e+00 -3.948598e+00 -9.775085e+00 1.078104e+00 4.786598e+00 -1.619306e+00 -2.055040e+00 -1.905640e+00 -1.625761e+00 -1.328336e+00 -1.053701e+00 -8.131538e-01 -6.067650e-01 -4.380500e-01 -3.026400e-01 -1.990948e-01 -1.220751e-01 -6.820168e-02 -3.262704e-02 -1.177648e-02 -1.541479e-03 1.515949e-03 1.072965e-03 6.108891e-04 3.620748e-03 1.381544e-02 3.466794e-02 7.041727e-02 1.247459e-01 2.028221e-01 3.083817e-01 4.475289e-01 6.227319e-01 8.400249e-01 1.097995e+00 1.397401e+00 1.721921e+00 2.009675e+00 2.104146e+00 1.610014e+00 -3.764972e+00 -2.012545e+00 8.869152e+00 4.636134e+00 -3.726704e+00 -2.836419e+00 -1.904764e+00 -1.193365e+00 -7.414741e-01 -4.794757e-01 -3.302115e-01 -2.327229e-01 -1.526297e-01 -7.521984e-02 
2.028453e-14 -1.187700e-13 -2.315958e-13 -2.598173e-13 -4.437487e-14 6.606754e-13 2.316066e-12 5.536221e-12 1.117698e-11 1.982115e-11 3.221799e-11 1.043191e-11 9.259137e-12 5.600062e-11 3.887934e-11 -4.387479e-12 -1.302758e-11 -1.470567e-11 -1.395881e-11 -1.214020e-11 -9.900805e-12 -7.664528e-12 -5.668710e-12 -4.026919e-12 -2.769911e-12 -1.824753e-12 -1.204058e-12 -7.751210e-13 -5.027745e-13 -3.358478e-13 -2.560131e-13 -2.198048e-13 -2.147355e-13 -2.301197e-13 -2.253150e-13 -1.650917e-13 -2.913279e-14 1.659476e-13 5.054366e-13 9.576871e-13 1.596270e-12 2.442283e-12 3.577779e-12 5.018388e-12 6.912974e-12 9.377710e-12 1.249921e-11 1.552500e-11 1.441639e-11 -6.761282e-12 -3.388806e-11 9.709532e-13 2.544086e-11 -5.258946e-11 -7.165169e-11 -1.961229e-11 -6.793841e-12 -2.467142e-12 -5.293622e-13 3.621339e-13 6.043957e-13 5.456737e-13 3.915861e-13 1.990569e-13 
-3.360162e-03 -8.253893e-02 -1.614930e-01 -2.441804e-01 -3.444609e-01 -4.959805e-01 -7.560328e-01 -1.194677e+00 -1.859364e+00 -2.632359e+00 -3.135533e+00 3.948598e+00 9.775085e+00 -1.078104e+00 -4.786598e+00 1.619306e+00 2.055040e+00 1.905640e+00 1.625761e+00 1.328336e+00 1.053701e+00 8.131538e-01 6.067650e-01 4.380500e-01 3.026400e-01 1.990948e-01 1.220751e-01 6.820168e-02 3.262704e-02 1.177648e-02 1.541479e-03 -1.515949e-03 -1.072965e-03 -6.108891e-04 -3.620748e-03 -1.381544e-02 -3.466794e-02 -7.041727e-02 -1.247459e-01 -2.028221e-01 -3.083817e-01 -4.475289e-01 -6.227319e-01 -8.400249e-01 -1.097995e+00 -1.397401e+00 -1.721921e+00 -2.009675e+00 -2.104146e+00 -1.610014e+00 3.764972e+00 2.012545e+00 -8.869152e+00 -4.636134e+00 3.726704e+00 2.836419e+00 1.904764e+00 1.193365e+00 7.414741e-01 4.794757e-01 3.302115e-01 2.327229e-01 1.526297e-01 7.521984e-02 