# vtk DataFile Version 2.0
Comment goes here
ASCII

DATASET STRUCTURED_POINTS
FIELD FieldData 1
TIME 1 1 double
0.13000000
DIMENSIONS    64   64   1

ORIGIN    0.000   0.000   0.000
SPACING   0.015625 0.015625   1.000

POINT_DATA   4096
SCALARS P double
LOOKUP_TABLE default

-4.621305e+00 -4.608267e+00 -4.595891e+00 -4.557814e+00 -4.520132e+00 -4.457813e+00 -4.395340e+00 -4.310020e+00 -4.223788e+00 -4.117191e+00 -4.008821e+00 -3.883201e+00 -3.754963e+00 -3.613144e+00 -3.468010e+00 -3.313432e+00 -3.155125e+00 -2.991899e+00 -2.824961e+00 -2.657975e+00 -2.487886e+00 -2.322986e+00 -2.156336e+00 -2.000545e+00 -1.845215e+00 -1.706876e+00 -1.572040e+00 -1.460632e+00 -1.356276e+00 -1.281501e+00 -1.217021e+00 -1.186848e+00 -1.168735e+00 -1.187013e+00 -1.216844e+00 -1.281983e+00 -1.355961e+00 -1.461395e+00 -1.571648e+00 -1.707862e+00 -1.844811e+00 -2.001676e+00 -2.155974e+00 -2.324180e+00 -2.487601e+00 -2.659156e+00 -2.824774e+00 -2.993005e+00 -3.155042e+00 -3.314422e+00 -3.468021e+00 -3.613994e+00 -3.755046e+00 -3.883901e+00 -4.008950e+00 -4.117745e+00 -4.223931e+00 -4.310435e+00 -4.395471e+00 -4.458100e+00 -4.520230e+00 -4.557982e+00 -4.595943e+00 -4.608322e+00 
-4.630537e+00 -4.617461e+00 -4.605169e+00 -4.567008e+00 -4.529379e+00 -4.466923e+00 -4.404481e+00 -4.318975e+00 -4.232764e+00 -4.125955e+00 -4.017606e+00 -3.891796e+00 -3.763601e+00 -3.621696e+00 -3.476669e+00 -3.322217e+00 -3.164146e+00 -3.001388e+00 -2.834899e+00 -2.668844e+00 -2.499493e+00 -2.336045e+00 -2.170424e+00 -2.016541e+00 -1.862402e+00 -1.726210e+00 -1.592488e+00 -1.483160e+00 -1.379573e+00 -1.306519e+00 -1.242247e+00 -1.213213e+00 -1.194616e+00 -1.213333e+00 -1.241973e+00 -1.306860e+00 -1.379053e+00 -1.483676e+00 -1.591770e+00 -1.726832e+00 -1.861540e+00 -2.017183e+00 -2.169470e+00 -2.336628e+00 -2.498499e+00 -2.669306e+00 -2.833915e+00 -3.001698e+00 -3.163217e+00 -3.322374e+00 -3.475830e+00 -3.621722e+00 -3.762875e+00 -3.891726e+00 -4.017004e+00 -4.125831e+00 -4.232288e+00 -4.318836e+00 -4.404129e+00 -4.466800e+00 -4.529147e+00 -4.566924e+00 -4.605054e+00 -4.617432e+00 
-4.650187e+00 -4.636953e+00 -4.624527e+00 -4.586012e+00 -4.548013e+00 -4.484996e+00 -4.421904e+00 -4.335595e+00 -4.248398e+00 -4.140489e+00 -4.030768e+00 -3.903487e+00 -3.773485e+00 -3.629644e+00 -3.482327e+00 -3.325367e+00 -3.164472e+00 -2.998519e+00 -2.828620e+00 -2.658590e+00 -2.485221e+00 -2.317014e+00 -2.146864e+00 -1.987626e+00 -1.828754e+00 -1.687062e+00 -1.548940e+00 -1.434635e+00 -1.327642e+00 -1.250841e+00 -1.184738e+00 -1.153712e+00 -1.135184e+00 -1.153883e+00 -1.184543e+00 -1.251344e+00 -1.327297e+00 -1.435429e+00 -1.548517e+00 -1.688087e+00 -1.828325e+00 -1.988799e+00 -2.146484e+00 -2.318247e+00 -2.484926e+00 -2.659801e+00 -2.828431e+00 -2.999646e+00 -3.164394e+00 -3.326369e+00 -3.482349e+00 -3.630498e+00 -3.773583e+00 -3.904187e+00 -4.030911e+00 -4.141039e+00 -4.248554e+00 -4.336005e+00 -4.422045e+00 -4.485278e+00 -4.548119e+00 -4.586177e+00 -4.624583e+00 -4.637007e+00 
-4.688394e+00 -4.674936e+00 -4.662537e+00 -4.623507e+00 -4.585240e+00 -4.521386e+00 -4.457702e+00 -4.370200e+00 -4.282052e+00 -4.172576e+00 -4.061509e+00 -3.932305e+00 -3.800550e+00 -3.654497e+00 -3.505048e+00 -3.345710e+00 -3.182385e+00 -3.014058e+00 -2.841582e+00 -2.669383e+00 -2.493481e+00 -2.323497e+00 -2.151022e+00 -1.990486e+00 -1.829544e+00 -1.687001e+00 -1.547037e+00 -1.432279e+00 -1.323700e+00 -1.246872e+00 -1.179523e+00 -1.148923e+00 -1.129518e+00 -1.149061e+00 -1.179222e+00 -1.247265e+00 -1.323137e+00 -1.432871e+00 -1.546270e+00 -1.687710e+00 -1.828631e+00 -1.991211e+00 -2.150016e+00 -2.324142e+00 -2.492437e+00 -2.669877e+00 -2.840552e+00 -3.014370e+00 -3.181421e+00 -3.345844e+00 -3.504186e+00 -3.654487e+00 -3.799813e+00 -3.932194e+00 -4.060904e+00 -4.172414e+00 -4.281578e+00 -4.370028e+00 -4.457353e+00 -4.521239e+00 -4.585011e+00 -4.623409e+00 -4.662424e+00 -4.674902e+00 
-4.737384e+00 -4.723564e+00 -4.711013e+00 -4.671211e+00 -4.632309e+00 -4.567241e+00 -4.502353e+00 -4.413129e+00 -4.323101e+00 -4.211307e+00 -4.097588e+00 -3.965369e+00 -3.830117e+00 -3.680244e+00 -3.526407e+00 -3.362329e+00 -3.193687e+00 -3.019573e+00 -2.840793e+00 -2.661630e+00 -2.478395e+00 -2.300222e+00 -2.119490e+00 -1.949796e+00 -1.780158e+00 -1.628236e+00 -1.480080e+00 -1.356897e+00 -1.241825e+00 -1.158798e+00 -1.087718e+00 -1.054066e+00 -1.034267e+00 -1.054259e+00 -1.087462e+00 -1.159363e+00 -1.241383e+00 -1.357788e+00 -1.479558e+00 -1.629386e+00 -1.779652e+00 -1.951104e+00 -2.119057e+00 -2.301576e+00 -2.478070e+00 -2.662934e+00 -2.840595e+00 -3.020762e+00 -3.193623e+00 -3.363365e+00 -3.526463e+00 -3.681109e+00 -3.830260e+00 -3.966064e+00 -4.097778e+00 -4.211843e+00 -4.323298e+00 -4.413522e+00 -4.502524e+00 -4.567507e+00 -4.632435e+00 -4.671365e+00 -4.711079e+00 -4.723615e+00 
-4.805206e+00 -4.790993e+00 -4.778427e+00 -4.737719e+00 -4.698271e+00 -4.631716e+00 -4.565674e+00 -4.474294e+00 -4.382404e+00 -4.267705e+00 -4.151321e+00 -4.015417e+00 -3.876633e+00 -3.722346e+00 -3.564105e+00 -3.395025e+00 -3.221195e+00 -3.041724e+00 -2.857205e+00 -2.672659e+00 -2.483529e+00 -2.300351e+00 -2.114006e+00 -1.939993e+00 -1.765245e+00 -1.609768e+00 -1.457070e+00 -1.331164e+00 -1.212332e+00 -1.127696e+00 -1.053998e+00 -1.020145e+00 -9.990732e-01 -1.020322e+00 -1.053635e+00 -1.128199e+00 -1.211669e+00 -1.331918e+00 -1.456199e+00 -1.610669e+00 -1.764233e+00 -1.940901e+00 -2.112899e+00 -2.301129e+00 -2.482381e+00 -2.673216e+00 -2.856081e+00 -3.042033e+00 -3.220158e+00 -3.395106e+00 -3.563198e+00 -3.722255e+00 -3.875877e+00 -4.015218e+00 -4.150714e+00 -4.267461e+00 -4.381937e+00 -4.474055e+00 -4.565334e+00 -4.631521e+00 -4.698049e+00 -4.737592e+00 -4.778318e+00 -4.790949e+00 
-4.884487e+00 -4.869700e+00 -4.857025e+00 -4.815172e+00 -4.774933e+00 -4.706602e+00 -4.638938e+00 -4.545040e+00 -4.450517e+00 -4.332429e+00 -4.212236e+00 -4.071939e+00 -3.928076e+00 -3.768272e+00 -3.603660e+00 -3.427820e+00 -3.246323e+00 -3.058697e+00 -2.865130e+00 -2.670793e+00 -2.471041e+00 -2.276142e+00 -2.077510e+00 -1.890013e+00 -1.701945e+00 -1.532359e+00 -1.366841e+00 -1.228144e+00 -1.098964e+00 -1.004946e+00 -9.251244e-01 -8.868140e-01 -8.647822e-01 -8.870455e-01 -9.247383e-01 -1.005622e+00 -1.098321e+00 -1.229206e+00 -1.366131e+00 -1.533742e+00 -1.701308e+00 -1.891573e+00 -2.076993e+00 -2.277712e+00 -2.470666e+00 -2.672257e+00 -2.864919e+00 -3.059989e+00 -3.246289e+00 -3.428907e+00 -3.603783e+00 -3.769148e+00 -3.928305e+00 -4.072618e+00 -4.212511e+00 -4.332934e+00 -4.450785e+00 -4.545399e+00 -4.639161e+00 -4.706839e+00 -4.775091e+00 -4.815306e+00 -4.857106e+00 -4.869744e+00 
-4.983038e+00 -4.967715e+00 -4.955026e+00 -4.911963e+00 -4.870999e+00 -4.800657e+00 -4.731414e+00 -4.634524e+00 -4.537378e+00 -4.415136e+00 -4.291091e+00 -4.145372e+00 -3.996285e+00 -3.829810e+00 -3.658529e+00 -3.474931e+00 -3.285360e+00 -3.089173e+00 -2.886418e+00 -2.683183e+00 -2.473855e+00 -2.270554e+00 -2.062976e+00 -1.868292e+00 -1.672310e+00 -1.496782e+00 -1.324261e+00 -1.180746e+00 -1.045666e+00 -9.484341e-01 -8.645438e-01 -8.253739e-01 -8.016265e-01 -8.256175e-01 -8.640562e-01 -9.491294e-01 -1.044818e+00 -1.181772e+00 -1.323225e+00 -1.498025e+00 -1.671159e+00 -1.869526e+00 -2.061715e+00 -2.271556e+00 -2.472542e+00 -2.683835e+00 -2.885137e+00 -3.089457e+00 -3.284205e+00 -3.474905e+00 -3.657558e+00 -3.829572e+00 -3.995510e+00 -4.145023e+00 -4.290492e+00 -4.414759e+00 -4.536929e+00 -4.634180e+00 -4.731091e+00 -4.800387e+00 -4.870789e+00 -4.911792e+00 -4.954922e+00 -4.967657e+00 
-5.093919e+00 -5.077809e+00 -5.065150e+00 -5.020654e+00 -4.978925e+00 -4.906395e+00 -4.835344e+00 -4.735331e+00 -4.635026e+00 -4.508530e+00 -4.379700e+00 -4.228422e+00 -4.072798e+00 -3.899335e+00 -3.719820e+00 -3.527715e+00 -3.328335e+00 -3.121991e+00 -2.907760e+00 -2.692323e+00 -2.469296e+00 -2.250720e+00 -2.026367e+00 -1.812958e+00 -1.597784e+00 -1.401829e+00 -1.210291e+00 -1.047932e+00 -8.972381e-01 -7.861258e-01 -6.928188e-01 -6.471937e-01 -6.217116e-01 -6.474831e-01 -6.921747e-01 -7.869750e-01 -8.962062e-01 -1.049240e+00 -1.209261e+00 -1.403601e+00 -1.596981e+00 -1.814945e+00 -2.025749e+00 -2.252625e+00 -2.468855e+00 -2.694015e+00 -2.907525e+00 -3.123421e+00 -3.328352e+00 -3.528860e+00 -3.720060e+00 -3.900209e+00 -4.073172e+00 -4.229060e+00 -4.380111e+00 -4.508977e+00 -4.635401e+00 -4.735631e+00 -4.835641e+00 -4.906582e+00 -4.979126e+00 -5.020756e+00 -5.065250e+00 -5.077841e+00 
-5.224623e+00 -5.207880e+00 -5.195284e+00 -5.149431e+00 -5.106982e+00 -5.032147e+00 -4.959343e+00 -4.855749e+00 -4.752328e+00 -4.620626e+00 -4.486999e+00 -4.328649e+00 -4.166300e+00 -3.983871e+00 -3.795507e+00 -3.592721e+00 -3.382190e+00 -3.163686e+00 -2.936126e+00 -2.707425e+00 -2.470053e+00 -2.238848e+00 -2.001700e+00 -1.778129e+00 -1.552384e+00 -1.348378e+00 -1.147505e+00 -9.782048e-01 -8.192192e-01 -7.028984e-01 -6.037088e-01 -5.563371e-01 -5.285634e-01 -5.566832e-01 -6.029696e-01 -7.039110e-01 -8.180197e-01 -9.796352e-01 -1.146248e+00 -1.350211e+00 -1.551103e+00 -1.779929e+00 -2.000236e+00 -2.240204e+00 -2.468501e+00 -2.708194e+00 -2.934597e+00 -3.163891e+00 -3.380861e+00 -3.592491e+00 -3.794461e+00 -3.983386e+00 -4.165524e+00 -4.328065e+00 -4.486434e+00 -4.620054e+00 -4.751917e+00 -4.855259e+00 -4.959051e+00 -5.031778e+00 -5.106791e+00 -5.149203e+00 -5.195189e+00 -5.207803e+00 
-5.368545e+00 -5.350809e+00 -5.338533e+00 -5.291104e+00 -5.248211e+00 -5.171013e+00 -5.096597e+00 -4.989555e+00 -4.882815e+00 -4.746271e+00 -4.607124e+00 -4.442296e+00 -4.272019e+00 -4.081345e+00 -3.882870e+00 -3.670037e+00 -3.447671e+00 -3.217352e+00 -2.976297e+00 -2.733761e+00 -2.480130e+00 -2.230055e+00 -1.970532e+00 -1.720796e+00 -1.467020e+00 -1.232738e+00 -1.003393e+00 -8.060400e-01 -6.237816e-01 -4.870298e-01 -3.738823e-01 -3.172990e-01 -2.866976e-01 -3.176630e-01 -3.727232e-01 -4.881555e-01 -6.219808e-01 -8.076160e-01 -1.001849e+00 -1.235183e+00 -1.466113e+00 -1.723533e+00 -1.969835e+00 -2.232439e+00 -2.479601e+00 -2.735740e+00 -2.975995e+00 -3.218947e+00 -3.447770e+00 -3.671228e+00 -3.883315e+00 -4.082179e+00 -4.272635e+00 -4.442848e+00 -4.607743e+00 -4.746616e+00 -4.883336e+00 -4.989759e+00 -5.096983e+00 -5.171125e+00 -5.248459e+00 -5.291159e+00 -5.338653e+00 -5.350825e+00 
-5.532848e+00 -5.514459e+00 -5.502450e+00 -5.453781e+00 -5.410478e+00 -5.331083e+00 -5.255152e+00 -5.144385e+00 -5.034460e+00 -4.892017e+00 -4.747501e+00 -4.574100e+00 -4.395919e+00 -4.193893e+00 -3.984613e+00 -3.757901e+00 -3.521019e+00 -3.274219e+00 -3.013960e+00 -2.751224e+00 -2.474808e+00 -2.204688e+00 -1.926341e+00 -1.662317e+00 -1.395051e+00 -1.150839e+00 -9.099119e-01 -7.034392e-01 -5.101491e-01 -3.655431e-01 -2.442559e-01 -1.847251e-01 -1.510264e-01 -1.851954e-01 -2.429874e-01 -3.671240e-01 -5.082162e-01 -7.053288e-01 -9.084423e-01 -1.153750e+00 -1.393825e+00 -1.665124e+00 -1.924591e+00 -2.206556e+00 -2.472911e+00 -2.752098e+00 -3.012013e+00 -3.274220e+00 -3.519430e+00 -3.757286e+00 -3.983504e+00 -4.193003e+00 -4.395197e+00 -4.573171e+00 -4.747022e+00 -4.891180e+00 -5.034121e+00 -5.143707e+00 -5.254905e+00 -5.330593e+00 -5.410311e+00 -5.453487e+00 -5.502364e+00 -5.514361e+00 
-5.711010e+00 -5.691468e+00 -5.680285e+00 -5.630147e+00 -5.587188e+00 -5.505637e+00 -5.428925e+00 -5.314806e+00 -5.202020e+00 -5.054515e+00 -4.904076e+00 -4.723518e+00 -4.535866e+00 -4.324375e+00 -4.102526e+00 -3.863878e+00 -3.612475e+00 -3.351512e+00 -3.075513e+00 -2.798633e+00 -2.504802e+00 -2.212382e+00 -1.903553e+00 -1.600730e+00 -1.289619e+00 -9.976324e-01 -7.125837e-01 -4.639170e-01 -2.368834e-01 -6.332879e-02 7.697722e-02 1.486194e-01 1.865153e-01 1.482228e-01 7.916551e-02 -6.503838e-02 -2.334511e-01 -4.654060e-01 -7.102261e-01 -1.001400e+00 -1.289064e+00 -1.604893e+00 -1.902814e+00 -2.215322e+00 -2.504127e+00 -2.800889e+00 -3.074976e+00 -3.353297e+00 -3.612707e+00 -3.865068e+00 -4.103348e+00 -4.325093e+00 -4.536883e+00 -4.723906e+00 -4.904998e+00 -5.054690e+00 -5.202724e+00 -5.314862e+00 -5.429402e+00 -5.505638e+00 -5.587472e+00 -5.630134e+00 -5.680416e+00 -5.691462e+00 
-5.909901e+00 -5.889807e+00 -5.879304e+00 -5.828475e+00 -5.785923e+00 -5.702952e+00 -5.625640e+00 -5.508421e+00 -5.393029e+00 -5.239557e+00 -5.083636e+00 -4.893169e+00 -4.696771e+00 -4.471096e+00 -4.236871e+00 -3.980431e+00 -3.710878e+00 -3.428486e+00 -3.124034e+00 -2.813409e+00 -2.477606e+00 -2.148491e+00 -1.809800e+00 -1.486652e+00 -1.160402e+00 -8.595597e-01 -5.630312e-01 -3.049006e-01 -6.459587e-02 1.204608e-01 2.715269e-01 3.476782e-01 3.900133e-01 3.472635e-01 2.739143e-01 1.175133e-01 -6.087252e-02 -3.066329e-01 -5.616753e-01 -8.647451e-01 -1.159999e+00 -1.491319e+00 -1.807352e+00 -2.150957e+00 -2.475250e+00 -2.814276e+00 -3.121260e+00 -3.428032e+00 -3.708907e+00 -3.979089e+00 -4.235786e+00 -4.469560e+00 -4.696239e+00 -4.891755e+00 -5.083342e+00 -5.238384e+00 -5.392808e+00 -5.507526e+00 -5.625450e+00 -5.702331e+00 -5.785776e+00 -5.828112e+00 -5.879224e+00 -5.889688e+00 
-6.122672e+00 -6.101393e+00 -6.092510e+00 -6.040760e+00 -6.000075e+00 -5.915782e+00 -5.839610e+00 -5.719788e+00 -5.603110e+00 -5.444852e+00 -5.283152e+00 -5.085002e+00 -4.876886e+00 -4.640126e+00 -4.388669e+00 -4.116483e+00 -3.826533e+00 -3.522120e+00 -3.196169e+00 -2.875150e+00 -2.528506e+00 -2.179511e+00 -1.801551e+00 -1.418871e+00 -1.019517e+00 -6.388088e-01 -2.725702e-01 4.757473e-02 3.336771e-01 5.570228e-01 7.302483e-01 8.196829e-01 8.678528e-01 8.197802e-01 7.343864e-01 5.532217e-01 3.409561e-01 4.851466e-02 -2.688572e-01 -6.458382e-01 -1.021222e+00 -1.426007e+00 -1.800409e+00 -2.182516e+00 -2.527548e+00 -2.877467e+00 -3.194760e+00 -3.524217e+00 -3.827075e+00 -4.117542e+00 -4.390254e+00 -4.640578e+00 -4.878585e+00 -5.085100e+00 -5.284492e+00 -5.444761e+00 -5.604003e+00 -5.719628e+00 -5.840141e+00 -5.915630e+00 -6.000358e+00 -6.040658e+00 -6.092630e+00 -6.101357e+00 
-6.355928e+00 -6.334383e+00 -6.326936e+00 -6.275714e+00 -6.237100e+00 -6.153255e+00 -6.078546e+00 -5.957592e+00 -5.839888e+00 -5.676735e+00 -5.509765e+00 -5.300398e+00 -5.082375e+00 -4.826629e+00 -4.561308e+00 -4.264380e+00 -3.953271e+00 -3.626817e+00 -3.262342e+00 -2.881783e+00 -2.445491e+00 -2.020556e+00 -1.597093e+00 -1.192618e+00 -7.901305e-01 -4.190367e-01 -5.255808e-02 2.713016e-01 5.742554e-01 8.202993e-01 1.010233e+00 1.107556e+00 1.163825e+00 1.108907e+00 1.014773e+00 8.122792e-01 5.832744e-01 2.741416e-01 -5.293425e-02 -4.304082e-01 -7.933200e-01 -1.200576e+00 -1.591634e+00 -2.023138e+00 -2.443013e+00 -2.882294e+00 -3.257501e+00 -3.625463e+00 -3.950844e+00 -4.261608e+00 -4.560570e+00 -4.824118e+00 -5.082333e+00 -5.298367e+00 -5.509808e+00 -5.675185e+00 -5.839821e+00 -5.956480e+00 -6.078399e+00 -6.152520e+00 -6.236952e+00 -6.275299e+00 -6.326848e+00 -6.334249e+00 
-6.601924e+00 -6.579473e+00 -6.574775e+00 -6.523949e+00 -6.489839e+00 -6.406547e+00 -6.336779e+00 -6.215036e+00 -6.099793e+00 -5.932797e+00 -5.761312e+00 -5.543437e+00 -5.309453e+00 -5.039691e+00 -4.746263e+00 -4.426255e+00 -4.080975e+00 -3.700156e+00 -3.289259e+00 -2.917691e+00 -2.515012e+00 -2.109024e+00 -1.654805e+00 -1.159949e+00 -6.223438e-01 -1.030267e-01 3.782135e-01 7.878969e-01 1.146283e+00 1.439657e+00 1.646839e+00 1.751748e+00 1.816739e+00 1.756459e+00 1.653981e+00 1.425273e+00 1.163797e+00 8.034357e-01 3.846633e-01 -1.209998e-01 -6.339687e-01 -1.173619e+00 -1.649978e+00 -2.109028e+00 -2.514054e+00 -2.919380e+00 -3.284601e+00 -3.703346e+00 -4.082745e+00 -4.426732e+00 -4.749538e+00 -5.039602e+00 -5.312292e+00 -5.543063e+00 -5.763146e+00 -5.932307e+00 -6.100785e+00 -6.214580e+00 -6.337249e+00 -6.406203e+00 -6.490035e+00 -6.523741e+00 -6.574842e+00 -6.579404e+00 
-6.866943e+00 -6.844800e+00 -6.842809e+00 -6.794732e+00 -6.765767e+00 -6.686495e+00 -6.622330e+00 -6.503774e+00 -6.390844e+00 -6.222301e+00 -6.045256e+00 -5.814487e+00 -5.565547e+00 -5.265173e+00 -4.953275e+00 -4.585013e+00 -4.217227e+00 -3.846473e+00 -3.421031e+00 -2.953321e+00 -2.322456e+00 -1.725862e+00 -1.211850e+00 -7.209296e-01 -2.415430e-01 1.907247e-01 6.315996e-01 1.029331e+00 1.423165e+00 1.783747e+00 2.022519e+00 2.138717e+00 2.223391e+00 2.154040e+00 2.029644e+00 1.750686e+00 1.450313e+00 1.060504e+00 6.226729e-01 1.566930e-01 -2.583059e-01 -7.327349e-01 -1.191985e+00 -1.726547e+00 -2.324326e+00 -2.952624e+00 -3.409511e+00 -3.843755e+00 -4.215121e+00 -4.579151e+00 -4.953934e+00 -5.261431e+00 -5.566592e+00 -5.811808e+00 -6.045816e+00 -6.220407e+00 -6.390901e+00 -6.502502e+00 -6.622148e+00 -6.685704e+00 -6.765559e+00 -6.794306e+00 -6.842685e+00 -6.844667e+00 
-7.141669e+00 -7.119559e+00 -7.121698e+00 -7.076635e+00 -7.056342e+00 -6.981245e+00 -6.928966e+00 -6.813260e+00 -6.710843e+00 -6.540121e+00 -6.362207e+00 -6.119148e+00 -5.844699e+00 -5.523450e+00 -5.157394e+00 -4.771720e+00 -4.360852e+00 -3.807780e+00 -3.206380e+00 -2.807176e+00 -2.401173e+00 -2.012480e+00 -1.558817e+00 -9.161504e-01 -9.350615e-02 7.835810e-01 1.626478e+00 2.350632e+00 2.975810e+00 3.508906e+00 3.833140e+00 3.991688e+00 4.105715e+00 4.014716e+00 3.842391e+00 3.453874e+00 3.017351e+00 2.428252e+00 1.644808e+00 7.233779e-01 -1.445857e-01 -9.430657e-01 -1.531963e+00 -1.997582e+00 -2.405730e+00 -2.806459e+00 -3.189379e+00 -3.816407e+00 -4.368645e+00 -4.769503e+00 -5.164485e+00 -5.522486e+00 -5.849274e+00 -6.118107e+00 -6.364361e+00 -6.539071e+00 -6.711611e+00 -6.812428e+00 -6.929130e+00 -6.980686e+00 -7.056309e+00 -7.076323e+00 -7.121649e+00 -7.119460e+00 
-7.431760e+00 -7.411015e+00 -7.417768e+00 -7.379038e+00 -7.369208e+00 -7.304099e+00 -7.265537e+00 -7.161228e+00 -7.068297e+00 -6.903909e+00 -6.717169e+00 -6.459166e+00 -6.149730e+00 -5.777779e+00 -5.381699e+00 -4.844215e+00 -4.389059e+00 -4.031176e+00 -3.708301e+00 -3.216850e+00 -1.836101e+00 -2.678319e-02 1.676526e+00 3.498457e+00 5.260851e+00 6.662916e+00 7.691592e+00 8.366380e+00 8.821720e+00 9.078245e+00 9.241475e+00 9.297436e+00 9.360030e+00 9.301646e+00 9.249863e+00 9.057009e+00 8.844877e+00 8.434509e+00 7.747668e+00 6.580690e+00 5.101886e+00 3.463829e+00 1.810622e+00 -1.301951e-02 -1.874976e+00 -3.212785e+00 -3.669917e+00 -4.028781e+00 -4.393325e+00 -4.830307e+00 -5.386824e+00 -5.773751e+00 -6.152792e+00 -6.456074e+00 -6.718244e+00 -6.901816e+00 -7.068211e+00 -7.159942e+00 -7.265113e+00 -7.303374e+00 -7.368837e+00 -7.378678e+00 -7.417571e+00 -7.410907e+00 
-7.725772e+00 -7.707266e+00 -7.719343e+00 -7.688304e+00 -7.692971e+00 -7.638486e+00 -7.623525e+00 -7.529000e+00 -7.462704e+00 -7.298167e+00 -7.119121e+00 -6.833897e+00 -6.484592e+00 -6.072910e+00 -5.554531e+00 -5.183913e+00 -4.894058e+00 -3.551578e+00 -9.621497e-01 1.970960e+00 5.254331e+00 8.074397e+00 9.634527e+00 1.070355e+01 1.132721e+01 1.145187e+01 1.142806e+01 1.126885e+01 1.112809e+01 1.092847e+01 1.083899e+01 1.075359e+01 1.075590e+01 1.074613e+01 1.084528e+01 1.093841e+01 1.112845e+01 1.128674e+01 1.146309e+01 1.140425e+01 1.117792e+01 1.071634e+01 9.819333e+00 8.051290e+00 5.211284e+00 2.004269e+00 -8.834243e-01 -3.573652e+00 -4.923758e+00 -5.167184e+00 -5.568874e+00 -6.072291e+00 -6.491052e+00 -6.832182e+00 -7.120567e+00 -7.296329e+00 -7.462468e+00 -7.527742e+00 -7.622980e+00 -7.637748e+00 -7.692537e+00 -7.687927e+00 -7.719120e+00 -7.707151e+00 
-8.027945e+00 -8.012779e+00 -8.031701e+00 -8.012175e+00 -8.035628e+00 -7.999697e+00 -8.013997e+00 -7.944241e+00 -7.904164e+00 -7.761225e+00 -7.565975e+00 -7.272262e+00 -6.841551e+00 -6.445288e+00 -5.917484e+00 -4.413541e+00 -1.070545e+00 3.633242e+00 7.887651e+00 1.048950e+01 1.185956e+01 1.243621e+01 1.228470e+01 1.203494e+01 1.178359e+01 1.149387e+01 1.132927e+01 1.116626e+01 1.107706e+01 1.096119e+01 1.092431e+01 1.086516e+01 1.088218e+01 1.086359e+01 1.092942e+01 1.096405e+01 1.108042e+01 1.117421e+01 1.134162e+01 1.147693e+01 1.172364e+01 1.205347e+01 1.236365e+01 1.240432e+01 1.184669e+01 1.055011e+01 7.895366e+00 3.537884e+00 -1.070279e+00 -4.406552e+00 -5.932946e+00 -6.449460e+00 -6.846455e+00 -7.268759e+00 -7.566616e+00 -7.759099e+00 -7.903104e+00 -7.943207e+00 -8.012958e+00 -7.999249e+00 -8.034984e+00 -8.012002e+00 -8.031412e+00 -8.012735e+00 
-8.324931e+00 -8.316362e+00 -8.340425e+00 -8.336132e+00 -8.380466e+00 -8.365683e+00 -8.420754e+00 -8.373480e+00 -8.388886e+00 -8.250874e+00 -8.091261e+00 -7.753637e+00 -7.333565e+00 -6.424864e+00 -2.985204e+00 3.006647e+00 8.333891e+00 1.163075e+01 1.286519e+01 1.270871e+01 1.240884e+01 1.213824e+01 1.193380e+01 1.182550e+01 1.180083e+01 1.171931e+01 1.167464e+01 1.155531e+01 1.148643e+01 1.136488e+01 1.132390e+01 1.125332e+01 1.126701e+01 1.125242e+01 1.132587e+01 1.136792e+01 1.148760e+01 1.155774e+01 1.167613e+01 1.170824e+01 1.177276e+01 1.183192e+01 1.197096e+01 1.213003e+01 1.240840e+01 1.276238e+01 1.281607e+01 1.158129e+01 8.424870e+00 3.024276e+00 -2.980288e+00 -6.443374e+00 -7.340772e+00 -7.751084e+00 -8.088592e+00 -8.247592e+00 -8.386256e+00 -8.371878e+00 -8.419098e+00 -8.364943e+00 -8.379545e+00 -8.335799e+00 -8.340019e+00 -8.316266e+00 
-8.617859e+00 -8.616552e+00 -8.648305e+00 -8.662246e+00 -8.735747e+00 -8.748904e+00 -8.860423e+00 -8.853483e+00 -8.934947e+00 -8.846274e+00 -8.698110e+00 -8.322199e+00 -6.716503e+00 -1.285092e+00 6.354059e+00 1.155013e+01 1.314733e+01 1.308783e+01 1.282765e+01 1.253431e+01 1.251941e+01 1.247610e+01 1.237140e+01 1.220718e+01 1.205917e+01 1.186668e+01 1.174565e+01 1.159519e+01 1.152025e+01 1.141355e+01 1.138513e+01 1.132430e+01 1.134229e+01 1.132423e+01 1.138706e+01 1.141472e+01 1.152212e+01 1.159674e+01 1.174661e+01 1.186338e+01 1.204881e+01 1.221090e+01 1.238921e+01 1.247378e+01 1.251730e+01 1.255315e+01 1.280499e+01 1.307021e+01 1.320967e+01 1.152451e+01 6.335573e+00 -1.288101e+00 -6.715071e+00 -8.312162e+00 -8.695047e+00 -8.844200e+00 -8.931064e+00 -8.853239e+00 -8.858424e+00 -8.749070e+00 -8.734887e+00 -8.662415e+00 -8.647993e+00 -8.616615e+00 
-8.893966e+00 -8.906769e+00 -8.939767e+00 -8.979703e+00 -9.076954e+00 -9.125785e+00 -9.296154e+00 -9.329959e+00 -9.505727e+00 -9.455534e+00 -9.384508e+00 -7.448502e+00 -3.846091e-01 8.651627e+00 1.317482e+01 1.372025e+01 1.330174e+01 1.311841e+01 1.307920e+01 1.287840e+01 1.272086e+01 1.251540e+01 1.237427e+01 1.222296e+01 1.214418e+01 1.202249e+01 1.196383e+01 1.185018e+01 1.180341e+01 1.170685e+01 1.168728e+01 1.162611e+01 1.164592e+01 1.162606e+01 1.168791e+01 1.170757e+01 1.180376e+01 1.185015e+01 1.196310e+01 1.201968e+01 1.213955e+01 1.222421e+01 1.238408e+01 1.251612e+01 1.272327e+01 1.288905e+01 1.307620e+01 1.310647e+01 1.333875e+01 1.369973e+01 1.318202e+01 8.687468e+00 -3.436260e-01 -7.406473e+00 -9.363784e+00 -9.448074e+00 -9.499550e+00 -9.328803e+00 -9.293641e+00 -9.125528e+00 -9.075796e+00 -8.979604e+00 -8.939297e+00 -8.906739e+00 
-9.148265e+00 -9.176345e+00 -9.211931e+00 -9.278715e+00 -9.410482e+00 -9.491983e+00 -9.755633e+00 -9.826362e+00 -1.014147e+01 -1.026795e+01 -9.032943e+00 -1.283213e+00 9.521332e+00 1.413840e+01 1.414149e+01 1.387362e+01 1.367147e+01 1.342915e+01 1.323087e+01 1.298971e+01 1.287335e+01 1.270963e+01 1.259664e+01 1.242796e+01 1.231283e+01 1.214759e+01 1.205278e+01 1.191555e+01 1.185527e+01 1.175501e+01 1.173430e+01 1.167408e+01 1.169433e+01 1.167414e+01 1.173516e+01 1.175541e+01 1.185631e+01 1.191586e+01 1.205333e+01 1.214692e+01 1.231210e+01 1.242874e+01 1.260220e+01 1.270960e+01 1.287501e+01 1.299202e+01 1.323113e+01 1.342098e+01 1.369043e+01 1.386189e+01 1.415060e+01 1.413255e+01 9.500799e+00 -1.295489e+00 -9.048912e+00 -1.027072e+01 -1.013172e+01 -9.828347e+00 -9.753485e+00 -9.493214e+00 -9.410017e+00 -9.279348e+00 -9.211842e+00 -9.176538e+00 
-9.375403e+00 -9.428814e+00 -9.454953e+00 -9.561637e+00 -9.708060e+00 -9.840707e+00 -1.016858e+01 -1.027676e+01 -1.074161e+01 -1.068282e+01 -4.349947e+00 8.195113e+00 1.474766e+01 1.472414e+01 1.446262e+01 1.414068e+01 1.384983e+01 1.357916e+01 1.340010e+01 1.316064e+01 1.300679e+01 1.279978e+01 1.267404e+01 1.250406e+01 1.241342e+01 1.227354e+01 1.220980e+01 1.209385e+01 1.205442e+01 1.196457e+01 1.195406e+01 1.189617e+01 1.191939e+01 1.189614e+01 1.195435e+01 1.196455e+01 1.205472e+01 1.209340e+01 1.220991e+01 1.227240e+01 1.241362e+01 1.250379e+01 1.267812e+01 1.279956e+01 1.301015e+01 1.316101e+01 1.340403e+01 1.357279e+01 1.386194e+01 1.413274e+01 1.446581e+01 1.472376e+01 1.471343e+01 8.188107e+00 -4.336746e+00 -1.069846e+01 -1.074026e+01 -1.028109e+01 -1.016747e+01 -9.841709e+00 -9.707382e+00 -9.561890e+00 -9.454657e+00 -9.428868e+00 
-9.560201e+00 -9.643822e+00 -9.654175e+00 -9.803481e+00 -9.963675e+00 -1.012898e+01 -1.058382e+01 -1.054832e+01 -1.167275e+01 -8.659699e+00 4.221889e+00 1.465041e+01 1.557924e+01 1.506254e+01 1.471217e+01 1.433970e+01 1.408311e+01 1.376428e+01 1.355479e+01 1.328609e+01 1.313715e+01 1.292652e+01 1.280534e+01 1.262149e+01 1.251677e+01 1.235536e+01 1.227410e+01 1.214257e+01 1.209258e+01 1.199593e+01 1.198142e+01 1.192165e+01 1.194433e+01 1.192167e+01 1.198196e+01 1.199601e+01 1.209345e+01 1.214253e+01 1.227510e+01 1.235501e+01 1.251811e+01 1.262127e+01 1.280852e+01 1.292580e+01 1.314005e+01 1.328466e+01 1.355821e+01 1.375891e+01 1.408961e+01 1.433132e+01 1.471027e+01 1.504982e+01 1.554855e+01 1.461134e+01 4.208233e+00 -8.684042e+00 -1.168787e+01 -1.055388e+01 -1.058775e+01 -1.013121e+01 -9.964955e+00 -9.804442e+00 -9.654615e+00 -9.644098e+00 
-9.715638e+00 -9.837779e+00 -9.820259e+00 -1.002919e+01 -1.016933e+01 -1.041986e+01 -1.089630e+01 -1.089449e+01 -1.226833e+01 -3.787274e+00 1.140386e+01 1.661083e+01 1.561334e+01 1.533082e+01 1.488308e+01 1.453182e+01 1.422867e+01 1.389794e+01 1.367747e+01 1.339916e+01 1.323509e+01 1.300899e+01 1.288275e+01 1.269735e+01 1.260289e+01 1.245218e+01 1.238720e+01 1.226780e+01 1.223156e+01 1.214271e+01 1.213642e+01 1.207906e+01 1.210439e+01 1.207897e+01 1.213667e+01 1.214243e+01 1.223200e+01 1.226718e+01 1.238789e+01 1.245118e+01 1.260416e+01 1.269625e+01 1.288542e+01 1.300740e+01 1.323814e+01 1.339650e+01 1.368098e+01 1.389217e+01 1.423300e+01 1.452361e+01 1.488215e+01 1.531956e+01 1.560108e+01 1.658112e+01 1.140804e+01 -3.771368e+00 -1.226635e+01 -1.089178e+01 -1.089597e+01 -1.041956e+01 -1.016925e+01 -1.002929e+01 -9.820240e+00 -9.837833e+00 
-9.814290e+00 -9.984848e+00 -9.919237e+00 -1.021225e+01 -1.026159e+01 -1.070760e+01 -1.092301e+01 -1.148686e+01 -1.152388e+01 2.301984e+00 1.560526e+01 1.667165e+01 1.585545e+01 1.546697e+01 1.507116e+01 1.465309e+01 1.437968e+01 1.400767e+01 1.379120e+01 1.348779e+01 1.332565e+01 1.308534e+01 1.295785e+01 1.275923e+01 1.265722e+01 1.249279e+01 1.241810e+01 1.228789e+01 1.224416e+01 1.214906e+01 1.213881e+01 1.207911e+01 1.210373e+01 1.207909e+01 1.213928e+01 1.214899e+01 1.224504e+01 1.228768e+01 1.241939e+01 1.249236e+01 1.265909e+01 1.275856e+01 1.296065e+01 1.308416e+01 1.332901e+01 1.348579e+01 1.379538e+01 1.400424e+01 1.438523e+01 1.464930e+01 1.507701e+01 1.546586e+01 1.586850e+01 1.668590e+01 1.566387e+01 2.356560e+00 -1.151229e+01 -1.148886e+01 -1.092528e+01 -1.070901e+01 -1.026297e+01 -1.021303e+01 -9.919848e+00 -9.985094e+00 
-9.893714e+00 -1.010580e+01 -9.998291e+00 -1.036906e+01 -1.033108e+01 -1.097631e+01 -1.092742e+01 -1.210691e+01 -1.005790e+01 7.286824e+00 1.760199e+01 1.655074e+01 1.624504e+01 1.554103e+01 1.525260e+01 1.474385e+01 1.448701e+01 1.408705e+01 1.387126e+01 1.355657e+01 1.338841e+01 1.314088e+01 1.301118e+01 1.281282e+01 1.271616e+01 1.255829e+01 1.249310e+01 1.237093e+01 1.233630e+01 1.224707e+01 1.224282e+01 1.218520e+01 1.221178e+01 1.218508e+01 1.224309e+01 1.224668e+01 1.233686e+01 1.237021e+01 1.249404e+01 1.255716e+01 1.271766e+01 1.281124e+01 1.301343e+01 1.313851e+01 1.339109e+01 1.355288e+01 1.387412e+01 1.408125e+01 1.448961e+01 1.473591e+01 1.525354e+01 1.553095e+01 1.624577e+01 1.653806e+01 1.761323e+01 7.309753e+00 -1.005373e+01 -1.210797e+01 -1.092881e+01 -1.097702e+01 -1.033187e+01 -1.036945e+01 -9.998617e+00 -1.010592e+01 
-9.923272e+00 -1.016749e+01 -1.002486e+01 -1.044850e+01 -1.034346e+01 -1.109725e+01 -1.089295e+01 -1.226759e+01 -8.550864e+00 1.011687e+01 1.805800e+01 1.639865e+01 1.643644e+01 1.554871e+01 1.535431e+01 1.477962e+01 1.455623e+01 1.412900e+01 1.392504e+01 1.359428e+01 1.342913e+01 1.317016e+01 1.303908e+01 1.283070e+01 1.272896e+01 1.256138e+01 1.248930e+01 1.235894e+01 1.231813e+01 1.222350e+01 1.221540e+01 1.215561e+01 1.218129e+01 1.215557e+01 1.221586e+01 1.222337e+01 1.231905e+01 1.235866e+01 1.249071e+01 1.256086e+01 1.273098e+01 1.282987e+01 1.304187e+01 1.316884e+01 1.343266e+01 1.359232e+01 1.392948e+01 1.412647e+01 1.456188e+01 1.477742e+01 1.536126e+01 1.554843e+01 1.644577e+01 1.640100e+01 1.806464e+01 1.010482e+01 -8.558819e+00 -1.226663e+01 -1.089446e+01 -1.109753e+01 -1.034463e+01 -1.044893e+01 -1.002547e+01 -1.016767e+01 
-9.944797e+00 -1.019682e+01 -1.004531e+01 -1.048168e+01 -1.035669e+01 -1.112889e+01 -1.087791e+01 -1.221859e+01 -7.902658e+00 1.099446e+01 1.811379e+01 1.636173e+01 1.652628e+01 1.556385e+01 1.540408e+01 1.480133e+01 1.458225e+01 1.414864e+01 1.394268e+01 1.361194e+01 1.344364e+01 1.318654e+01 1.305528e+01 1.285157e+01 1.275407e+01 1.259351e+01 1.252829e+01 1.240506e+01 1.237094e+01 1.228143e+01 1.227782e+01 1.222004e+01 1.224703e+01 1.221990e+01 1.227811e+01 1.228102e+01 1.237154e+01 1.240430e+01 1.252929e+01 1.259232e+01 1.275560e+01 1.284983e+01 1.305742e+01 1.318394e+01 1.344618e+01 1.360800e+01 1.394532e+01 1.414284e+01 1.458452e+01 1.479366e+01 1.540533e+01 1.555487e+01 1.652715e+01 1.635362e+01 1.811475e+01 1.098754e+01 -7.916004e+00 -1.222299e+01 -1.088190e+01 -1.113060e+01 -1.035827e+01 -1.048238e+01 -1.004587e+01 -1.019701e+01 