# vtk DataFile Version 2.0
Comment goes here
ASCII

DATASET STRUCTURED_POINTS
FIELD FieldData 1
TIME 1 1 double
0.89000000
DIMENSIONS    64   64   1

ORIGIN    0.000   0.000   0.000
SPACING   0.015625 0.015625   1.000

POINT_DATA   4096
SCALARS P double
LOOKUP_TABLE default

-4.279624e+00 -4.279932e+00 -4.286160e+00 -4.293465e+00 -4.306238e+00 -4.320601e+00 -4.339826e+00 -4.361260e+00 -4.386832e+00 -4.415249e+00 -4.447024e+00 -4.482175e+00 -4.519912e+00 -4.561306e+00 -4.604584e+00 -4.651392e+00 -4.699485e+00 -4.750437e+00 -4.802150e+00 -4.855447e+00 -4.908925e+00 -4.962210e+00 -5.014788e+00 -5.065242e+00 -5.113453e+00 -5.158033e+00 -5.197978e+00 -5.233748e+00 -5.261955e+00 -5.286577e+00 -5.301060e+00 -5.313613e+00 -5.314101e+00 -5.314520e+00 -5.301413e+00 -5.289167e+00 -5.262988e+00 -5.237576e+00 -5.199954e+00 -5.162403e+00 -5.116386e+00 -5.069485e+00 -5.018480e+00 -4.965914e+00 -4.913066e+00 -4.858482e+00 -4.806403e+00 -4.752851e+00 -4.703560e+00 -4.653296e+00 -4.608272e+00 -4.562811e+00 -4.523089e+00 -4.483364e+00 -4.449636e+00 -4.416179e+00 -4.388874e+00 -4.361963e+00 -4.341319e+00 -4.321095e+00 -4.307211e+00 -4.293759e+00 -4.286639e+00 -4.280030e+00 
-4.280997e+00 -4.280206e+00 -4.286742e+00 -4.292902e+00 -4.305942e+00 -4.319098e+00 -4.338535e+00 -4.358675e+00 -4.384366e+00 -4.411379e+00 -4.443105e+00 -4.476714e+00 -4.514113e+00 -4.553790e+00 -4.596248e+00 -4.641114e+00 -4.687628e+00 -4.736333e+00 -4.785361e+00 -4.835976e+00 -4.885313e+00 -4.935302e+00 -4.982115e+00 -5.028497e+00 -5.069641e+00 -5.109446e+00 -5.142115e+00 -5.173122e+00 -5.195525e+00 -5.216823e+00 -5.228186e+00 -5.239662e+00 -5.239591e+00 -5.241278e+00 -5.229806e+00 -5.221591e+00 -5.199298e+00 -5.180796e+00 -5.148733e+00 -5.119573e+00 -5.079369e+00 -5.040323e+00 -4.994469e+00 -4.948001e+00 -4.899332e+00 -4.848830e+00 -4.799985e+00 -4.748780e+00 -4.701929e+00 -4.652723e+00 -4.609517e+00 -4.564241e+00 -4.525870e+00 -4.485780e+00 -4.453061e+00 -4.418909e+00 -4.392371e+00 -4.364581e+00 -4.344534e+00 -4.323333e+00 -4.309929e+00 -4.295447e+00 -4.288730e+00 -4.281055e+00 
-4.273013e+00 -4.273279e+00 -4.279540e+00 -4.286797e+00 -4.299593e+00 -4.313926e+00 -4.333177e+00 -4.354629e+00 -4.380255e+00 -4.408785e+00 -4.440680e+00 -4.476088e+00 -4.514063e+00 -4.555912e+00 -4.599608e+00 -4.647115e+00 -4.695872e+00 -4.747785e+00 -4.800471e+00 -4.854967e+00 -4.909768e+00 -4.964416e+00 -5.018652e+00 -5.070538e+00 -5.120611e+00 -5.166601e+00 -5.208278e+00 -5.245280e+00 -5.274618e+00 -5.299889e+00 -5.314705e+00 -5.327449e+00 -5.327804e+00 -5.328445e+00 -5.314936e+00 -5.302747e+00 -5.275560e+00 -5.249483e+00 -5.210257e+00 -5.171305e+00 -5.123635e+00 -5.074975e+00 -5.022492e+00 -4.968177e+00 -4.914072e+00 -4.857976e+00 -4.804868e+00 -4.750142e+00 -4.700051e+00 -4.648961e+00 -4.603356e+00 -4.557373e+00 -4.517265e+00 -4.477250e+00 -4.443294e+00 -4.409700e+00 -4.382288e+00 -4.355326e+00 -4.334657e+00 -4.314418e+00 -4.300556e+00 -4.287091e+00 -4.280013e+00 -4.273377e+00 
-4.267854e+00 -4.266988e+00 -4.273590e+00 -4.279673e+00 -4.292776e+00 -4.305893e+00 -4.325421e+00 -4.345626e+00 -4.371496e+00 -4.398766e+00 -4.430855e+00 -4.465017e+00 -4.503084e+00 -4.543725e+00 -4.587295e+00 -4.633639e+00 -4.681830e+00 -4.732582e+00 -4.783900e+00 -4.837084e+00 -4.889221e+00 -4.942089e+00 -4.991881e+00 -5.041031e+00 -5.084796e+00 -5.126697e+00 -5.161148e+00 -5.193205e+00 -5.216676e+00 -5.238484e+00 -5.250656e+00 -5.262424e+00 -5.262459e+00 -5.264166e+00 -5.251820e+00 -5.243578e+00 -5.219823e+00 -5.201369e+00 -5.167507e+00 -5.137559e+00 -5.094980e+00 -5.053653e+00 -5.005171e+00 -4.955487e+00 -4.904295e+00 -4.850499e+00 -4.799454e+00 -4.745458e+00 -4.696836e+00 -4.645564e+00 -4.601039e+00 -4.554398e+00 -4.515126e+00 -4.474228e+00 -4.440956e+00 -4.406385e+00 -4.379559e+00 -4.351579e+00 -4.331428e+00 -4.310150e+00 -4.296753e+00 -4.282226e+00 -4.275569e+00 -4.267839e+00 
-4.253218e+00 -4.253344e+00 -4.259705e+00 -4.266796e+00 -4.279653e+00 -4.293860e+00 -4.313166e+00 -4.334636e+00 -4.360385e+00 -4.389204e+00 -4.421406e+00 -4.457536e+00 -4.496160e+00 -4.539332e+00 -4.584210e+00 -4.633789e+00 -4.684469e+00 -4.739280e+00 -4.794831e+00 -4.852983e+00 -4.911747e+00 -4.970571e+00 -5.029898e+00 -5.086155e+00 -5.142137e+00 -5.192499e+00 -5.239831e+00 -5.280929e+00 -5.313855e+00 -5.340966e+00 -5.356478e+00 -5.369332e+00 -5.369107e+00 -5.370599e+00 -5.356195e+00 -5.344702e+00 -5.314462e+00 -5.286399e+00 -5.241826e+00 -5.198297e+00 -5.145461e+00 -5.091170e+00 -5.034221e+00 -4.974450e+00 -4.916582e+00 -4.855864e+00 -4.799682e+00 -4.741435e+00 -4.688963e+00 -4.635453e+00 -4.588133e+00 -4.540661e+00 -4.499429e+00 -4.458617e+00 -4.424021e+00 -4.390078e+00 -4.362385e+00 -4.335317e+00 -4.314605e+00 -4.294350e+00 -4.280581e+00 -4.267092e+00 -4.260160e+00 -4.253443e+00 
-4.241615e+00 -4.240581e+00 -4.247314e+00 -4.253200e+00 -4.266403e+00 -4.279379e+00 -4.299031e+00 -4.319284e+00 -4.345424e+00 -4.373105e+00 -4.405800e+00 -4.440954e+00 -4.480221e+00 -4.522685e+00 -4.568350e+00 -4.617588e+00 -4.669067e+00 -4.723945e+00 -4.779920e+00 -4.838428e+00 -4.896460e+00 -4.955470e+00 -5.011717e+00 -5.066934e+00 -5.116380e+00 -5.162806e+00 -5.200673e+00 -5.234321e+00 -5.259499e+00 -5.282049e+00 -5.296342e+00 -5.308801e+00 -5.309351e+00 -5.310858e+00 -5.296322e+00 -5.287843e+00 -5.260855e+00 -5.243381e+00 -5.206157e+00 -5.175306e+00 -5.127699e+00 -5.081292e+00 -5.027247e+00 -4.970316e+00 -4.913894e+00 -4.852963e+00 -4.797437e+00 -4.737664e+00 -4.685493e+00 -4.630129e+00 -4.583009e+00 -4.533785e+00 -4.492780e+00 -4.450440e+00 -4.416143e+00 -4.380882e+00 -4.353560e+00 -4.325317e+00 -4.305027e+00 -4.283669e+00 -4.270341e+00 -4.255763e+00 -4.249264e+00 -4.241433e+00 
-4.220366e+00 -4.220222e+00 -4.226753e+00 -4.233495e+00 -4.246419e+00 -4.260313e+00 -4.279634e+00 -4.300992e+00 -4.326824e+00 -4.355958e+00 -4.388504e+00 -4.425652e+00 -4.465148e+00 -4.510356e+00 -4.556965e+00 -4.609900e+00 -4.663540e+00 -4.723220e+00 -4.783333e+00 -4.847791e+00 -4.913074e+00 -4.979151e+00 -5.047250e+00 -5.110960e+00 -5.177915e+00 -5.235840e+00 -5.294514e+00 -5.344509e+00 -5.384301e+00 -5.413962e+00 -5.429031e+00 -5.439565e+00 -5.437407e+00 -5.441238e+00 -5.427165e+00 -5.419423e+00 -5.384151e+00 -5.352693e+00 -5.296588e+00 -5.243814e+00 -5.181846e+00 -5.116874e+00 -5.052534e+00 -4.982997e+00 -4.918938e+00 -4.850275e+00 -4.789017e+00 -4.724944e+00 -4.668565e+00 -4.611227e+00 -4.561147e+00 -4.511466e+00 -4.468486e+00 -4.426614e+00 -4.391080e+00 -4.356781e+00 -4.328742e+00 -4.301661e+00 -4.280988e+00 -4.260808e+00 -4.247281e+00 -4.233799e+00 -4.227172e+00 -4.220324e+00 
-4.202420e+00 -4.201090e+00 -4.208017e+00 -4.213506e+00 -4.226791e+00 -4.239401e+00 -4.259097e+00 -4.279211e+00 -4.305529e+00 -4.333564e+00 -4.366858e+00 -4.403202e+00 -4.443896e+00 -4.488797e+00 -4.537239e+00 -4.590603e+00 -4.646782e+00 -4.707855e+00 -4.770936e+00 -4.837841e+00 -4.905460e+00 -4.974672e+00 -5.042070e+00 -5.107993e+00 -5.167519e+00 -5.222142e+00 -5.264391e+00 -5.298039e+00 -5.323507e+00 -5.346388e+00 -5.366327e+00 -5.380884e+00 -5.383534e+00 -5.383707e+00 -5.363832e+00 -5.353481e+00 -5.320375e+00 -5.307826e+00 -5.267219e+00 -5.237728e+00 -5.181523e+00 -5.125381e+00 -5.062130e+00 -4.991759e+00 -4.927082e+00 -4.854015e+00 -4.791607e+00 -4.722795e+00 -4.665308e+00 -4.604029e+00 -4.553146e+00 -4.500497e+00 -4.457090e+00 -4.413056e+00 -4.377435e+00 -4.341536e+00 -4.313672e+00 -4.285325e+00 -4.265000e+00 -4.243710e+00 -4.230624e+00 -4.216065e+00 -4.209902e+00 -4.201938e+00 
-4.174740e+00 -4.174138e+00 -4.180918e+00 -4.187019e+00 -4.199971e+00 -4.213201e+00 -4.232389e+00 -4.253294e+00 -4.278986e+00 -4.308193e+00 -4.340861e+00 -4.379017e+00 -4.419280e+00 -4.466931e+00 -4.515441e+00 -4.572803e+00 -4.630031e+00 -4.696574e+00 -4.762521e+00 -4.836318e+00 -4.910242e+00 -4.987234e+00 -5.067634e+00 -5.141785e+00 -5.226372e+00 -5.293634e+00 -5.374014e+00 -5.445130e+00 -5.497714e+00 -5.529240e+00 -5.537280e+00 -5.534047e+00 -5.525160e+00 -5.535850e+00 -5.530390e+00 -5.537644e+00 -5.496335e+00 -5.458927e+00 -5.376426e+00 -5.305443e+00 -5.231331e+00 -5.148499e+00 -5.074628e+00 -4.990328e+00 -4.917901e+00 -4.837822e+00 -4.769530e+00 -4.697526e+00 -4.635786e+00 -4.573627e+00 -4.519891e+00 -4.467762e+00 -4.422610e+00 -4.379854e+00 -4.343300e+00 -4.308985e+00 -4.280733e+00 -4.253976e+00 -4.233589e+00 -4.213723e+00 -4.200723e+00 -4.187345e+00 -4.181280e+00 -4.174248e+00 
-4.150598e+00 -4.148779e+00 -4.155971e+00 -4.160739e+00 -4.174020e+00 -4.185851e+00 -4.205350e+00 -4.224882e+00 -4.251014e+00 -4.279017e+00 -4.312503e+00 -4.349832e+00 -4.391666e+00 -4.439173e+00 -4.490487e+00 -4.548810e+00 -4.610580e+00 -4.679724e+00 -4.752197e+00 -4.830817e+00 -4.912435e+00 -4.996956e+00 -5.082500e+00 -5.166440e+00 -5.244528e+00 -5.316107e+00 -5.361473e+00 -5.384624e+00 -5.399710e+00 -5.421793e+00 -5.460480e+00 -5.484194e+00 -5.494740e+00 -5.489371e+00 -5.453762e+00 -5.432076e+00 -5.385575e+00 -5.391946e+00 -5.355924e+00 -5.337949e+00 -5.266004e+00 -5.188734e+00 -5.111528e+00 -5.016913e+00 -4.940775e+00 -4.849005e+00 -4.777240e+00 -4.696201e+00 -4.631699e+00 -4.563352e+00 -4.507746e+00 -4.451598e+00 -4.405399e+00 -4.360089e+00 -4.323135e+00 -4.287161e+00 -4.258969e+00 -4.231028e+00 -4.210992e+00 -4.190126e+00 -4.177628e+00 -4.163255e+00 -4.157730e+00 -4.149609e+00 
-4.116879e+00 -4.115541e+00 -4.122674e+00 -4.127688e+00 -4.140577e+00 -4.152571e+00 -4.171330e+00 -4.191138e+00 -4.216213e+00 -4.244857e+00 -4.277051e+00 -4.315714e+00 -4.356161e+00 -4.406113e+00 -4.456141e+00 -4.518524e+00 -4.579375e+00 -4.654656e+00 -4.727020e+00 -4.813852e+00 -4.897368e+00 -4.990544e+00 -5.084584e+00 -5.172413e+00 -5.281776e+00 -5.347201e+00 -5.472895e+00 -5.607073e+00 -5.687707e+00 -5.716612e+00 -5.692238e+00 -5.630050e+00 -5.596669e+00 -5.629887e+00 -5.668165e+00 -5.729396e+00 -5.686822e+00 -5.633685e+00 -5.476093e+00 -5.364459e+00 -5.287673e+00 -5.178016e+00 -5.094500e+00 -4.990864e+00 -4.908117e+00 -4.813412e+00 -4.735982e+00 -4.654467e+00 -4.585943e+00 -4.518743e+00 -4.460694e+00 -4.406682e+00 -4.359264e+00 -4.316491e+00 -4.279166e+00 -4.245686e+00 -4.217650e+00 -4.191891e+00 -4.172284e+00 -4.153158e+00 -4.141162e+00 -4.128057e+00 -4.122954e+00 -4.115667e+00 
-4.086791e+00 -4.084198e+00 -4.091755e+00 -4.095307e+00 -4.108432e+00 -4.118825e+00 -4.137690e+00 -4.155863e+00 -4.181084e+00 -4.208215e+00 -4.240932e+00 -4.278446e+00 -4.320357e+00 -4.369913e+00 -4.423213e+00 -4.486560e+00 -4.553710e+00 -4.632191e+00 -4.715410e+00 -4.808850e+00 -4.909012e+00 -5.014384e+00 -5.128652e+00 -5.241851e+00 -5.362490e+00 -5.486529e+00 -5.529727e+00 -5.492347e+00 -5.445273e+00 -5.470220e+00 -5.583286e+00 -5.647981e+00 -5.686190e+00 -5.661673e+00 -5.572710e+00 -5.493267e+00 -5.405874e+00 -5.480432e+00 -5.494261e+00 -5.522922e+00 -5.409232e+00 -5.271568e+00 -5.174833e+00 -5.036985e+00 -4.946734e+00 -4.829195e+00 -4.745528e+00 -4.650539e+00 -4.577414e+00 -4.502448e+00 -4.441523e+00 -4.383134e+00 -4.334215e+00 -4.289058e+00 -4.251201e+00 -4.216419e+00 -4.188492e+00 -4.161912e+00 -4.142797e+00 -4.122956e+00 -4.111633e+00 -4.097707e+00 -4.093297e+00 -4.084984e+00 
-4.047706e+00 -4.045229e+00 -4.052868e+00 -4.056150e+00 -4.068841e+00 -4.078749e+00 -4.096619e+00 -4.114305e+00 -4.137962e+00 -4.164881e+00 -4.195507e+00 -4.233465e+00 -4.272846e+00 -4.324056e+00 -4.374470e+00 -4.441492e+00 -4.505338e+00 -4.590595e+00 -4.669494e+00 -4.773887e+00 -4.866797e+00 -4.986674e+00 -5.089371e+00 -5.208531e+00 -5.339019e+00 -5.316662e+00 -5.558401e+00 -5.926180e+00 -6.090176e+00 -6.101868e+00 -5.953865e+00 -5.666886e+00 -5.548709e+00 -5.658846e+00 -5.867324e+00 -6.117273e+00 -6.111465e+00 -5.991468e+00 -5.560005e+00 -5.333056e+00 -5.341697e+00 -5.206382e+00 -5.105434e+00 -4.980476e+00 -4.883354e+00 -4.770855e+00 -4.681145e+00 -4.589279e+00 -4.512429e+00 -4.441243e+00 -4.378610e+00 -4.324535e+00 -4.275286e+00 -4.234348e+00 -4.196996e+00 -4.165881e+00 -4.138902e+00 -4.115218e+00 -4.097216e+00 -4.079456e+00 -4.069200e+00 -4.056590e+00 -4.053038e+00 -4.045378e+00 
-4.012111e+00 -4.008314e+00 -4.016409e+00 -4.018038e+00 -4.030816e+00 -4.038818e+00 -4.056420e+00 -4.072052e+00 -4.095229e+00 -4.120087e+00 -4.150377e+00 -4.186487e+00 -4.226380e+00 -4.276366e+00 -4.329362e+00 -4.396561e+00 -4.467059e+00 -4.555103e+00 -4.648181e+00 -4.759019e+00 -4.880240e+00 -5.010315e+00 -5.164394e+00 -5.308016e+00 -5.559444e+00 -5.921429e+00 -5.878051e+00 -5.109648e+00 -3.092222e+00 -6.138489e-01 1.125419e+00 2.557810e+00 3.077982e+00 2.663784e+00 1.392362e+00 -4.626585e-01 -2.657567e+00 -4.825464e+00 -5.691822e+00 -6.002745e+00 -5.711943e+00 -5.349431e+00 -5.237206e+00 -5.033122e+00 -4.927115e+00 -4.782107e+00 -4.682552e+00 -4.576137e+00 -4.492529e+00 -4.414139e+00 -4.347863e+00 -4.290370e+00 -4.239529e+00 -4.197262e+00 -4.159563e+00 -4.128102e+00 -4.101530e+00 -4.077766e+00 -4.060597e+00 -4.042617e+00 -4.033362e+00 -4.020204e+00 -4.017616e+00 -4.009017e+00 
-3.968665e+00 -3.964474e+00 -3.972867e+00 -3.973537e+00 -3.985887e+00 -3.992544e+00 -4.008902e+00 -4.023008e+00 -4.044070e+00 -4.067481e+00 -4.094800e+00 -4.129923e+00 -4.166094e+00 -4.216194e+00 -4.264887e+00 -4.334463e+00 -4.400140e+00 -4.494818e+00 -4.581710e+00 -4.707083e+00 -4.813665e+00 -4.976634e+00 -5.078543e+00 -5.377624e+00 -5.262286e+00 -3.320549e+00 1.159005e+00 5.662402e+00 8.936129e+00 1.201215e+01 1.349533e+01 1.431180e+01 1.454677e+01 1.437766e+01 1.360425e+01 1.218119e+01 9.601501e+00 6.057970e+00 1.635477e+00 -3.155531e+00 -5.182714e+00 -5.353900e+00 -5.117130e+00 -4.960532e+00 -4.842453e+00 -4.704129e+00 -4.596332e+00 -4.493551e+00 -4.406454e+00 -4.334277e+00 -4.267482e+00 -4.216974e+00 -4.167166e+00 -4.131218e+00 -4.095271e+00 -4.068860e+00 -4.044307e+00 -4.024202e+00 -4.009038e+00 -3.993428e+00 -3.985968e+00 -3.974071e+00 -3.972907e+00 -3.964652e+00 
-3.928279e+00 -3.922652e+00 -3.931593e+00 -3.930339e+00 -3.942608e+00 -3.946947e+00 -3.962516e+00 -3.974002e+00 -3.993593e+00 -4.014171e+00 -4.039597e+00 -4.071793e+00 -4.106369e+00 -4.153777e+00 -4.202604e+00 -4.270771e+00 -4.340639e+00 -4.437532e+00 -4.536366e+00 -4.669062e+00 -4.807447e+00 -4.970701e+00 -5.058563e+00 -3.834117e+00 2.928185e-01 5.982604e+00 1.105204e+01 1.416164e+01 1.465451e+01 1.483576e+01 1.482541e+01 1.467672e+01 1.463095e+01 1.467121e+01 1.476018e+01 1.484015e+01 1.473071e+01 1.410550e+01 1.146521e+01 6.712515e+00 1.375616e+00 -3.442396e+00 -5.066711e+00 -4.980714e+00 -4.851886e+00 -4.698848e+00 -4.572522e+00 -4.463574e+00 -4.366576e+00 -4.290540e+00 -4.219921e+00 -4.168338e+00 -4.117486e+00 -4.082285e+00 -4.046631e+00 -4.021535e+00 -3.998024e+00 -3.978990e+00 -3.965263e+00 -3.950127e+00 -3.944205e+00 -3.932100e+00 -3.932329e+00 -3.923215e+00 
-3.881838e+00 -3.875134e+00 -3.884693e+00 -3.881611e+00 -3.893540e+00 -3.895461e+00 -3.909581e+00 -3.918226e+00 -3.935126e+00 -3.952634e+00 -3.974110e+00 -4.003289e+00 -4.032895e+00 -4.077938e+00 -4.121379e+00 -4.189277e+00 -4.254600e+00 -4.355382e+00 -4.454078e+00 -4.594092e+00 -4.738551e+00 -4.685802e+00 -2.410567e+00 3.620217e+00 1.002279e+01 1.346904e+01 1.424255e+01 1.440669e+01 1.421088e+01 1.412206e+01 1.415743e+01 1.420966e+01 1.422524e+01 1.420854e+01 1.413432e+01 1.409085e+01 1.413608e+01 1.428420e+01 1.431561e+01 1.372915e+01 1.074308e+01 4.284736e+00 -1.770621e+00 -4.566310e+00 -4.785005e+00 -4.603526e+00 -4.467035e+00 -4.355885e+00 -4.256397e+00 -4.189777e+00 -4.120557e+00 -4.079620e+00 -4.031765e+00 -4.005458e+00 -3.973210e+00 -3.954656e+00 -3.934513e+00 -3.919814e+00 -3.909198e+00 -3.896554e+00 -3.893322e+00 -3.882239e+00 -3.884596e+00 -3.875338e+00 
-3.837729e+00 -3.829385e+00 -3.839705e+00 -3.834327e+00 -3.846075e+00 -3.845158e+00 -3.857923e+00 -3.863274e+00 -3.877428e+00 -3.891207e+00 -3.908535e+00 -3.933459e+00 -3.958128e+00 -3.998343e+00 -4.037807e+00 -4.101379e+00 -4.165875e+00 -4.267561e+00 -4.362791e+00 -4.520295e+00 -4.404557e+00 -1.736428e+00 5.141258e+00 1.150367e+01 1.372686e+01 1.395767e+01 1.383632e+01 1.410366e+01 1.418934e+01 1.433233e+01 1.435048e+01 1.436475e+01 1.434878e+01 1.436336e+01 1.434226e+01 1.433169e+01 1.421627e+01 1.409729e+01 1.386451e+01 1.391266e+01 1.383811e+01 1.207220e+01 6.511568e+00 -9.716653e-01 -4.317485e+00 -4.579371e+00 -4.402812e+00 -4.302183e+00 -4.191897e+00 -4.123111e+00 -4.052115e+00 -4.012624e+00 -3.965265e+00 -3.942795e+00 -3.911957e+00 -3.897161e+00 -3.879052e+00 -3.866954e+00 -3.858689e+00 -3.847322e+00 -3.846425e+00 -3.835453e+00 -3.839841e+00 -3.829733e+00 
-3.790008e+00 -3.779719e+00 -3.791112e+00 -3.782861e+00 -3.794496e+00 -3.789899e+00 -3.801112e+00 -3.802084e+00 -3.812957e+00 -3.821754e+00 -3.833955e+00 -3.853359e+00 -3.871500e+00 -3.905974e+00 -3.938585e+00 -3.998229e+00 -4.055174e+00 -4.156758e+00 -4.249817e+00 -4.272944e+00 -1.622317e+00 5.725529e+00 1.199220e+01 1.366369e+01 1.366934e+01 1.380276e+01 1.387525e+01 1.397672e+01 1.394645e+01 1.397028e+01 1.396831e+01 1.399832e+01 1.398961e+01 1.399465e+01 1.396172e+01 1.395461e+01 1.394018e+01 1.395261e+01 1.391996e+01 1.384197e+01 1.374688e+01 1.372102e+01 1.250478e+01 6.550093e+00 -9.044504e-01 -4.146744e+00 -4.236093e+00 -4.150629e+00 -4.044958e+00 -3.999117e+00 -3.932662e+00 -3.909595e+00 -3.867826e+00 -3.857115e+00 -3.831640e+00 -3.824696e+00 -3.811523e+00 -3.804101e+00 -3.800247e+00 -3.791151e+00 -3.794007e+00 -3.783531e+00 -3.790890e+00 -3.779929e+00 
-3.743636e+00 -3.731363e+00 -3.743928e+00 -3.732881e+00 -3.744445e+00 -3.736372e+00 -3.745840e+00 -3.742781e+00 -3.749612e+00 -3.753875e+00 -3.759132e+00 -3.773208e+00 -3.781741e+00 -3.808877e+00 -3.832086e+00 -3.879956e+00 -3.934311e+00 -4.016596e+00 -4.110682e+00 -2.313870e+00 4.601539e+00 1.165591e+01 1.346115e+01 1.349614e+01 1.365810e+01 1.372647e+01 1.375532e+01 1.388813e+01 1.392768e+01 1.402877e+01 1.404164e+01 1.408694e+01 1.407147e+01 1.408646e+01 1.404560e+01 1.402787e+01 1.394541e+01 1.388510e+01 1.378042e+01 1.372090e+01 1.368898e+01 1.352163e+01 1.349894e+01 1.217056e+01 6.065989e+00 -1.590916e+00 -4.111698e+00 -4.045600e+00 -3.958127e+00 -3.899087e+00 -3.839771e+00 -3.820983e+00 -3.781806e+00 -3.780001e+00 -3.757079e+00 -3.757327e+00 -3.747461e+00 -3.744371e+00 -3.744152e+00 -3.737019e+00 -3.743328e+00 -3.733101e+00 -3.743377e+00 -3.731411e+00 
-3.696637e+00 -3.681384e+00 -3.695643e+00 -3.680537e+00 -3.692441e+00 -3.679273e+00 -3.687325e+00 -3.678207e+00 -3.681248e+00 -3.678572e+00 -3.677185e+00 -3.683217e+00 -3.683156e+00 -3.699887e+00 -3.715662e+00 -3.752310e+00 -3.782555e+00 -3.916434e+00 -3.304748e+00 2.634320e+00 1.060219e+01 1.328159e+01 1.336329e+01 1.351549e+01 1.351420e+01 1.363082e+01 1.365317e+01 1.374156e+01 1.373934e+01 1.379169e+01 1.378470e+01 1.381981e+01 1.380283e+01 1.381813e+01 1.378707e+01 1.378679e+01 1.374950e+01 1.373829e+01 1.368338e+01 1.364219e+01 1.355386e+01 1.351493e+01 1.338269e+01 1.330680e+01 1.132741e+01 3.559663e+00 -2.895283e+00 -3.917933e+00 -3.758126e+00 -3.757894e+00 -3.707068e+00 -3.708524e+00 -3.678153e+00 -3.689708e+00 -3.673988e+00 -3.682554e+00 -3.679260e+00 -3.680452e+00 -3.686122e+00 -3.680466e+00 -3.691756e+00 -3.681108e+00 -3.695333e+00 -3.681552e+00 
-3.649835e+00 -3.632074e+00 -3.648181e+00 -3.629613e+00 -3.641951e+00 -3.624491e+00 -3.630966e+00 -3.616975e+00 -3.615243e+00 -3.607579e+00 -3.596377e+00 -3.597630e+00 -3.581027e+00 -3.590969e+00 -3.584994e+00 -3.600756e+00 -3.608173e+00 -3.667548e+00 6.828175e-02 8.237809e+00 1.283860e+01 1.320698e+01 1.329651e+01 1.338839e+01 1.347463e+01 1.356237e+01 1.360688e+01 1.370407e+01 1.373155e+01 1.381162e+01 1.381719e+01 1.386555e+01 1.384696e+01 1.386537e+01 1.382303e+01 1.381117e+01 1.374572e+01 1.370333e+01 1.362889e+01 1.356275e+01 1.350607e+01 1.339585e+01 1.334693e+01 1.321208e+01 1.305416e+01 9.323510e+00 1.281627e+00 -3.544239e+00 -3.648298e+00 -3.612607e+00 -3.577583e+00 -3.599869e+00 -3.569024e+00 -3.600293e+00 -3.586969e+00 -3.607122e+00 -3.608739e+00 -3.615534e+00 -3.626681e+00 -3.623077e+00 -3.639344e+00 -3.628656e+00 -3.646945e+00 -3.631741e+00 
-3.605756e+00 -3.583884e+00 -3.602485e+00 -3.578594e+00 -3.592079e+00 -3.567978e+00 -3.573723e+00 -3.551854e+00 -3.546272e+00 -3.530037e+00 -3.509974e+00 -3.502443e+00 -3.472691e+00 -3.466185e+00 -3.468749e+00 -3.393520e+00 -3.612319e+00 -2.522583e+00 4.888117e+00 1.200174e+01 1.307862e+01 1.310630e+01 1.322243e+01 1.332059e+01 1.336504e+01 1.346373e+01 1.348699e+01 1.356986e+01 1.357411e+01 1.363475e+01 1.362590e+01 1.366713e+01 1.364528e+01 1.366722e+01 1.363182e+01 1.363557e+01 1.358829e+01 1.357366e+01 1.351236e+01 1.347320e+01 1.339723e+01 1.333101e+01 1.325133e+01 1.312633e+01 1.309234e+01 1.238067e+01 6.024579e+00 -2.023234e+00 -3.650521e+00 -3.403369e+00 -3.468735e+00 -3.485329e+00 -3.468514e+00 -3.512446e+00 -3.506655e+00 -3.534368e+00 -3.544122e+00 -3.553601e+00 -3.572398e+00 -3.568641e+00 -3.591314e+00 -3.578822e+00 -3.602135e+00 -3.583937e+00 
-3.560660e+00 -3.535610e+00 -3.556970e+00 -3.528785e+00 -3.543761e+00 -3.514222e+00 -3.519666e+00 -3.491554e+00 -3.482287e+00 -3.460436e+00 -3.429588e+00 -3.420687e+00 -3.366179e+00 -3.365708e+00 -3.326932e+00 -3.231939e+00 -3.475073e+00 3.441767e-01 8.874281e+00 1.298619e+01 1.293004e+01 1.311768e+01 1.316112e+01 1.327830e+01 1.333360e+01 1.343026e+01 1.346746e+01 1.355535e+01 1.357390e+01 1.364568e+01 1.364408e+01 1.369238e+01 1.366971e+01 1.369232e+01 1.364927e+01 1.364551e+01 1.358492e+01 1.355511e+01 1.348433e+01 1.343035e+01 1.335640e+01 1.327972e+01 1.318861e+01 1.312158e+01 1.294584e+01 1.301939e+01 9.995753e+00 1.589860e+00 -3.232736e+00 -3.284325e+00 -3.259189e+00 -3.375162e+00 -3.335265e+00 -3.416750e+00 -3.412845e+00 -3.454131e+00 -3.472174e+00 -3.486079e+00 -3.513314e+00 -3.510296e+00 -3.539963e+00 -3.526470e+00 -3.555182e+00 -3.534848e+00 
-3.521793e+00 -3.491574e+00 -3.516339e+00 -3.481617e+00 -3.499035e+00 -3.461134e+00 -3.467699e+00 -3.429284e+00 -3.417991e+00 -3.385650e+00 -3.343200e+00 -3.332932e+00 -3.234573e+00 -3.279314e+00 -3.080051e+00 -3.222756e+00 -2.563923e+00 4.343961e+00 1.175653e+01 1.291253e+01 1.283604e+01 1.302633e+01 1.307480e+01 1.319290e+01 1.323430e+01 1.333279e+01 1.335477e+01 1.343758e+01 1.344108e+01 1.350587e+01 1.349384e+01 1.354022e+01 1.351374e+01 1.354152e+01 1.350096e+01 1.351009e+01 1.345632e+01 1.344555e+01 1.337938e+01 1.334472e+01 1.326894e+01 1.320568e+01 1.312475e+01 1.303224e+01 1.293057e+01 1.287684e+01 1.229827e+01 5.476373e+00 -2.163443e+00 -3.422844e+00 -3.050714e+00 -3.326781e+00 -3.226415e+00 -3.343674e+00 -3.339870e+00 -3.387465e+00 -3.416119e+00 -3.429044e+00 -3.466523e+00 -3.460600e+00 -3.498336e+00 -3.481234e+00 -3.516014e+00 -3.491442e+00 
-3.480740e+00 -3.446723e+00 -3.475182e+00 -3.435299e+00 -3.455739e+00 -3.410801e+00 -3.419852e+00 -3.372294e+00 -3.362122e+00 -3.320073e+00 -3.272897e+00 -3.261906e+00 -3.132976e+00 -3.229461e+00 -2.885137e+00 -3.328437e+00 -9.672387e-01 7.570851e+00 1.275502e+01 1.274801e+01 1.291684e+01 1.299030e+01 1.308026e+01 1.317489e+01 1.322967e+01 1.332353e+01 1.335362e+01 1.343868e+01 1.344873e+01 1.351850e+01 1.350965e+01 1.355945e+01 1.353175e+01 1.355946e+01 1.351351e+01 1.351846e+01 1.345646e+01 1.343834e+01 1.336499e+01 1.332198e+01 1.324476e+01 1.316865e+01 1.310188e+01 1.296608e+01 1.296279e+01 1.265492e+01 1.294408e+01 8.700942e+00 -6.333992e-03 -3.349007e+00 -2.821142e+00 -3.207743e+00 -3.106057e+00 -3.241155e+00 -3.257163e+00 -3.305140e+00 -3.351570e+00 -3.362187e+00 -3.412748e+00 -3.404339e+00 -3.451340e+00 -3.431701e+00 -3.473079e+00 -3.445567e+00 
-3.449366e+00 -3.409544e+00 -3.442134e+00 -3.394898e+00 -3.419384e+00 -3.364343e+00 -3.378133e+00 -3.315959e+00 -3.312063e+00 -3.248354e+00 -3.209668e+00 -3.167194e+00 -3.047542e+00 -3.104238e+00 -2.757415e+00 -3.186931e+00 1.371525e+00 1.014164e+01 1.291537e+01 1.256544e+01 1.288292e+01 1.288948e+01 1.300726e+01 1.309089e+01 1.314132e+01 1.323488e+01 1.325395e+01 1.333822e+01 1.333729e+01 1.340599e+01 1.338913e+01 1.344051e+01 1.340886e+01 1.344265e+01 1.339641e+01 1.341265e+01 1.335219e+01 1.334994e+01 1.327688e+01 1.325208e+01 1.317267e+01 1.311325e+01 1.304875e+01 1.291570e+01 1.293893e+01 1.258951e+01 1.297674e+01 1.084246e+01 2.552888e+00 -3.003117e+00 -2.768802e+00 -3.062621e+00 -3.053033e+00 -3.151955e+00 -3.210878e+00 -3.241270e+00 -3.311697e+00 -3.312160e+00 -3.377515e+00 -3.362247e+00 -3.418933e+00 -3.393838e+00 -3.441915e+00 -3.409220e+00 
-3.414782e+00 -3.371030e+00 -3.407783e+00 -3.354972e+00 -3.383831e+00 -3.320235e+00 -3.340073e+00 -3.264086e+00 -3.270680e+00 -3.183380e+00 -3.166232e+00 -3.079639e+00 -3.011773e+00 -2.971310e+00 -2.774312e+00 -2.891954e+00 3.705583e+00 1.183736e+01 1.291542e+01 1.265557e+01 1.290148e+01 1.292223e+01 1.301735e+01 1.310743e+01 1.315007e+01 1.324811e+01 1.326571e+01 1.335388e+01 1.335383e+01 1.342588e+01 1.340936e+01 1.346259e+01 1.342910e+01 1.346268e+01 1.341181e+01 1.342612e+01 1.335834e+01 1.335414e+01 1.327119e+01 1.324803e+01 1.315406e+01 1.310623e+01 1.301324e+01 1.291944e+01 1.286637e+01 1.266007e+01 1.275423e+01 1.213656e+01 5.249825e+00 -2.416636e+00 -2.834575e+00 -2.874834e+00 -3.017864e+00 -3.039075e+00 -3.159160e+00 -3.161599e+00 -3.262145e+00 -3.250893e+00 -3.333268e+00 -3.312174e+00 -3.379363e+00 -3.350571e+00 -3.405602e+00 -3.369627e+00 
-3.393043e+00 -3.343768e+00 -3.384609e+00 -3.324784e+00 -3.358474e+00 -3.284659e+00 -3.311947e+00 -3.219287e+00 -3.239847e+00 -3.122045e+00 -3.135116e+00 -2.984501e+00 -2.991400e+00 -2.791353e+00 -2.808449e+00 -2.259217e+00 5.729719e+00 1.244109e+01 1.267136e+01 1.268127e+01 1.279192e+01 1.288314e+01 1.293435e+01 1.304715e+01 1.306874e+01 1.317555e+01 1.317966e+01 1.327134e+01 1.326165e+01 1.333580e+01 1.331279e+01 1.336936e+01 1.333226e+01 1.337210e+01 1.331981e+01 1.334425e+01 1.327562e+01 1.328616e+01 1.320019e+01 1.319798e+01 1.309442e+01 1.307981e+01 1.296046e+01 1.293400e+01 1.280154e+01 1.278139e+01 1.260488e+01 1.275683e+01 7.417803e+00 -1.646106e+00 -2.879592e+00 -2.738042e+00 -3.010733e+00 -2.963343e+00 -3.139814e+00 -3.112050e+00 -3.240558e+00 -3.214041e+00 -3.311844e+00 -3.281862e+00 -3.358338e+00 -3.323412e+00 -3.384548e+00 -3.343356e+00 
-3.367334e+00 -3.315003e+00 -3.359410e+00 -3.294922e+00 -3.332828e+00 -3.251129e+00 -3.285191e+00 -3.178333e+00 -3.212121e+00 -3.067070e+00 -3.108785e+00 -2.901707e+00 -2.974975e+00 -2.647009e+00 -2.828087e+00 -1.514035e+00 7.502066e+00 1.278905e+01 1.254460e+01 1.281644e+01 1.276897e+01 1.294799e+01 1.294170e+01 1.308596e+01 1.308662e+01 1.320592e+01 1.320310e+01 1.330048e+01 1.328899e+01 1.336594e+01 1.334211e+01 1.339955e+01 1.336059e+01 1.339972e+01 1.334349e+01 1.336650e+01 1.329118e+01 1.330153e+01 1.320483e+01 1.320779e+01 1.308540e+01 1.308978e+01 1.293271e+01 1.295808e+01 1.274329e+01 1.285057e+01 1.249528e+01 1.291395e+01 8.899439e+00 -8.095967e-01 -2.854530e+00 -2.629412e+00 -2.972750e+00 -2.880192e+00 -3.099794e+00 -3.049908e+00 -3.203234e+00 -3.166087e+00 -3.278403e+00 -3.243114e+00 -3.328430e+00 -3.290414e+00 -3.357270e+00 -3.313549e+00 
-3.357038e+00 -3.300685e+00 -3.347941e+00 -3.278514e+00 -3.320129e+00 -3.231323e+00 -3.271549e+00 -3.153207e+00 -3.198720e+00 -3.033680e+00 -3.098774e+00 -2.856444e+00 -2.975232e+00 -2.593552e+00 -2.850385e+00 -1.002901e+00 8.562244e+00 1.289335e+01 1.243646e+01 1.284432e+01 1.268755e+01 1.292685e+01 1.287234e+01 1.304061e+01 1.301881e+01 1.314762e+01 1.313264e+01 1.323412e+01 1.321510e+01 1.329473e+01 1.326620e+01 1.332706e+01 1.328557e+01 1.333014e+01 1.327294e+01 1.330422e+01 1.322837e+01 1.325068e+01 1.315191e+01 1.317241e+01 1.304294e+01 1.307530e+01 1.289935e+01 1.297346e+01 1.271568e+01 1.290272e+01 1.247571e+01 1.293589e+01 9.798110e+00 -1.819572e-01 -2.835654e+00 -2.600579e+00 -2.970623e+00 -2.852150e+00 -3.096925e+00 -3.028410e+00 -3.197918e+00 -3.149290e+00 -3.271333e+00 -3.228910e+00 -3.320173e+00 -3.277257e+00 -3.348016e+00 -3.300299e+00 
-3.342368e+00 -3.284957e+00 -3.333998e+00 -3.262497e+00 -3.306245e+00 -3.213394e+00 -3.257119e+00 -3.131003e+00 -3.183206e+00 -3.003448e+00 -3.081312e+00 -2.812629e+00 -2.951903e+00 -2.532877e+00 -2.799550e+00 -5.979142e-01 9.137038e+00 1.288995e+01 1.241930e+01 1.289861e+01 1.269485e+01 1.297665e+01 1.289576e+01 1.308373e+01 1.305095e+01 1.318838e+01 1.317004e+01 1.327524e+01 1.325584e+01 1.333672e+01 1.330825e+01 1.336860e+01 1.332623e+01 1.336883e+01 1.330908e+01 1.333746e+01 1.325694e+01 1.327668e+01 1.317031e+01 1.319091e+01 1.304890e+01 1.308791e+01 1.289036e+01 1.298258e+01 1.268947e+01 1.290214e+01 1.243548e+01 1.286165e+01 1.028631e+01 3.358465e-01 -2.721295e+00 -2.537505e+00 -2.919088e+00 -2.802891e+00 -3.063688e+00 -2.991051e+00 -3.172112e+00 -3.120507e+00 -3.249909e+00 -3.205981e+00 -3.301847e+00 -3.258179e+00 -3.331903e+00 -3.283545e+00 
-3.344610e+00 -3.285621e+00 -3.335300e+00 -3.262267e+00 -3.306986e+00 -3.212472e+00 -3.257866e+00 -3.129741e+00 -3.184955e+00 -3.002614e+00 -3.085718e+00 -2.814056e+00 -2.960450e+00 -2.540978e+00 -2.805742e+00 -4.798065e-01 9.314632e+00 1.286895e+01 1.238361e+01 1.287915e+01 1.265242e+01 1.294370e+01 1.284952e+01 1.304128e+01 1.300100e+01 1.313978e+01 1.311644e+01 1.322234e+01 1.319933e+01 1.328129e+01 1.325052e+01 1.331307e+01 1.326988e+01 1.331627e+01 1.325716e+01 1.329110e+01 1.321237e+01 1.323940e+01 1.313540e+01 1.316506e+01 1.302522e+01 1.307569e+01 1.287896e+01 1.298642e+01 1.269174e+01 1.292258e+01 1.245626e+01 1.288534e+01 1.049228e+01 4.809807e-01 -2.738448e+00 -2.561957e+00 -2.939647e+00 -2.816540e+00 -3.079100e+00 -2.999936e+00 -3.182917e+00 -3.126757e+00 -3.257445e+00 -3.210397e+00 -3.307071e+00 -3.261132e+00 -3.335427e+00 -3.285266e+00 