# vtk DataFile Version 2.0
Comment goes here
ASCII

DATASET STRUCTURED_POINTS
FIELD FieldData 1
TIME 1 1 double
0.92000000
DIMENSIONS    64   64   1

ORIGIN    0.000   0.000   0.000
SPACING   0.015625 0.015625   1.000

POINT_DATA   4096
SCALARS P double
LOOKUP_TABLE default

-4.245395e+00 -4.243907e+00 -4.248108e+00 -4.251170e+00 -4.257711e+00 -4.265321e+00 -4.273950e+00 -4.285972e+00 -4.296385e+00 -4.312530e+00 -4.324378e+00 -4.344179e+00 -4.357079e+00 -4.379876e+00 -4.393418e+00 -4.418358e+00 -4.432131e+00 -4.458185e+00 -4.471783e+00 -4.497792e+00 -4.510818e+00 -4.535570e+00 -4.547618e+00 -4.569972e+00 -4.580617e+00 -4.599632e+00 -4.608450e+00 -4.623425e+00 -4.629996e+00 -4.640372e+00 -4.644152e+00 -4.649450e+00 -4.649970e+00 -4.649982e+00 -4.647078e+00 -4.641884e+00 -4.635718e+00 -4.625650e+00 -4.616630e+00 -4.602124e+00 -4.590685e+00 -4.572216e+00 -4.558841e+00 -4.537175e+00 -4.522468e+00 -4.498594e+00 -4.483258e+00 -4.458224e+00 -4.442982e+00 -4.417796e+00 -4.403330e+00 -4.378918e+00 -4.365834e+00 -4.343028e+00 -4.331831e+00 -4.311360e+00 -4.302435e+00 -4.284923e+00 -4.278532e+00 -4.264499e+00 -4.260785e+00 -4.250648e+00 -4.249651e+00 -4.243728e+00 
-4.248877e+00 -4.247000e+00 -4.251503e+00 -4.254233e+00 -4.261173e+00 -4.268488e+00 -4.277646e+00 -4.289394e+00 -4.300495e+00 -4.316379e+00 -4.329090e+00 -4.348647e+00 -4.362575e+00 -4.385162e+00 -4.399842e+00 -4.424631e+00 -4.439522e+00 -4.465497e+00 -4.479966e+00 -4.505928e+00 -4.519235e+00 -4.543820e+00 -4.555112e+00 -4.576863e+00 -4.585237e+00 -4.602800e+00 -4.607521e+00 -4.620045e+00 -4.621043e+00 -4.628750e+00 -4.627213e+00 -4.631574e+00 -4.629187e+00 -4.631406e+00 -4.628769e+00 -4.628363e+00 -4.624478e+00 -4.619678e+00 -4.613111e+00 -4.602593e+00 -4.592943e+00 -4.576793e+00 -4.564587e+00 -4.543818e+00 -4.529945e+00 -4.505949e+00 -4.491302e+00 -4.465516e+00 -4.450887e+00 -4.424632e+00 -4.410707e+00 -4.385132e+00 -4.372506e+00 -4.348580e+00 -4.337755e+00 -4.316280e+00 -4.307650e+00 -4.289281e+00 -4.283127e+00 -4.268383e+00 -4.264876e+00 -4.254159e+00 -4.253367e+00 -4.246973e+00 
-4.242418e+00 -4.240866e+00 -4.245144e+00 -4.248175e+00 -4.254800e+00 -4.262426e+00 -4.271148e+00 -4.283254e+00 -4.293780e+00 -4.310101e+00 -4.322092e+00 -4.342186e+00 -4.355268e+00 -4.378493e+00 -4.392264e+00 -4.417765e+00 -4.431804e+00 -4.458519e+00 -4.472399e+00 -4.499092e+00 -4.512380e+00 -4.537732e+00 -4.549983e+00 -4.572760e+00 -4.583533e+00 -4.602799e+00 -4.611728e+00 -4.626909e+00 -4.633713e+00 -4.644334e+00 -4.648381e+00 -4.653824e+00 -4.654445e+00 -4.654404e+00 -4.651383e+00 -4.645985e+00 -4.639602e+00 -4.629344e+00 -4.620176e+00 -4.605531e+00 -4.593956e+00 -4.575193e+00 -4.561571e+00 -4.539426e+00 -4.524343e+00 -4.499885e+00 -4.484108e+00 -4.458483e+00 -4.442817e+00 -4.417101e+00 -4.402285e+00 -4.377433e+00 -4.364098e+00 -4.340947e+00 -4.329596e+00 -4.308863e+00 -4.299866e+00 -4.282157e+00 -4.275755e+00 -4.261571e+00 -4.257889e+00 -4.247635e+00 -4.246694e+00 -4.240681e+00 
-4.242780e+00 -4.240800e+00 -4.245424e+00 -4.248115e+00 -4.255190e+00 -4.262555e+00 -4.271873e+00 -4.283798e+00 -4.295108e+00 -4.311342e+00 -4.324349e+00 -4.344477e+00 -4.358827e+00 -4.382246e+00 -4.397513e+00 -4.423411e+00 -4.439065e+00 -4.466400e+00 -4.481778e+00 -4.509261e+00 -4.523534e+00 -4.549629e+00 -4.561793e+00 -4.584788e+00 -4.593712e+00 -4.611904e+00 -4.616478e+00 -4.628617e+00 -4.628350e+00 -4.634615e+00 -4.631492e+00 -4.634757e+00 -4.631821e+00 -4.634488e+00 -4.632750e+00 -4.634006e+00 -4.631506e+00 -4.628078e+00 -4.622066e+00 -4.611675e+00 -4.601731e+00 -4.584767e+00 -4.571806e+00 -4.549686e+00 -4.534876e+00 -4.509328e+00 -4.493732e+00 -4.466452e+00 -4.450971e+00 -4.423432e+00 -4.408817e+00 -4.382223e+00 -4.369095e+00 -4.344404e+00 -4.333258e+00 -4.311230e+00 -4.302433e+00 -4.283668e+00 -4.277465e+00 -4.262434e+00 -4.258959e+00 -4.248030e+00 -4.247320e+00 -4.240769e+00 
-4.233471e+00 -4.231720e+00 -4.236232e+00 -4.239159e+00 -4.246032e+00 -4.253691e+00 -4.262690e+00 -4.275030e+00 -4.285886e+00 -4.302717e+00 -4.315130e+00 -4.336092e+00 -4.349723e+00 -4.374234e+00 -4.388699e+00 -4.415913e+00 -4.430772e+00 -4.459535e+00 -4.474289e+00 -4.503129e+00 -4.517225e+00 -4.544452e+00 -4.557308e+00 -4.581334e+00 -4.592426e+00 -4.612310e+00 -4.621424e+00 -4.637132e+00 -4.644729e+00 -4.656227e+00 -4.661285e+00 -4.667267e+00 -4.668247e+00 -4.667997e+00 -4.664495e+00 -4.658306e+00 -4.651097e+00 -4.640228e+00 -4.630680e+00 -4.615829e+00 -4.603983e+00 -4.584383e+00 -4.570061e+00 -4.546412e+00 -4.530153e+00 -4.503863e+00 -4.486697e+00 -4.459242e+00 -4.442256e+00 -4.414921e+00 -4.399032e+00 -4.372860e+00 -4.358766e+00 -4.334591e+00 -4.322784e+00 -4.301278e+00 -4.292078e+00 -4.273788e+00 -4.267370e+00 -4.252743e+00 -4.249167e+00 -4.238566e+00 -4.237804e+00 -4.231518e+00 
-4.230557e+00 -4.228359e+00 -4.233228e+00 -4.235820e+00 -4.243157e+00 -4.250593e+00 -4.260214e+00 -4.272458e+00 -4.284163e+00 -4.301061e+00 -4.314629e+00 -4.335870e+00 -4.351040e+00 -4.376112e+00 -4.392542e+00 -4.420682e+00 -4.437885e+00 -4.468016e+00 -4.485281e+00 -4.515949e+00 -4.532276e+00 -4.561615e+00 -4.575720e+00 -4.601516e+00 -4.611882e+00 -4.631697e+00 -4.636350e+00 -4.647730e+00 -4.644121e+00 -4.646120e+00 -4.638515e+00 -4.638443e+00 -4.634023e+00 -4.637895e+00 -4.638859e+00 -4.644884e+00 -4.646434e+00 -4.646713e+00 -4.641859e+00 -4.631468e+00 -4.620604e+00 -4.601650e+00 -4.586942e+00 -4.561818e+00 -4.545000e+00 -4.516123e+00 -4.498544e+00 -4.468142e+00 -4.450903e+00 -4.420747e+00 -4.404727e+00 -4.376105e+00 -4.361970e+00 -4.335789e+00 -4.324015e+00 -4.300922e+00 -4.291816e+00 -4.272292e+00 -4.266019e+00 -4.250438e+00 -4.247052e+00 -4.235711e+00 -4.235181e+00 -4.228320e+00 
-4.218514e+00 -4.216410e+00 -4.221319e+00 -4.224032e+00 -4.231315e+00 -4.238974e+00 -4.248418e+00 -4.261079e+00 -4.272466e+00 -4.290080e+00 -4.303178e+00 -4.325536e+00 -4.340080e+00 -4.366738e+00 -4.382390e+00 -4.412559e+00 -4.428856e+00 -4.461271e+00 -4.477583e+00 -4.510363e+00 -4.525897e+00 -4.556567e+00 -4.570447e+00 -4.596487e+00 -4.607870e+00 -4.628150e+00 -4.636755e+00 -4.652867e+00 -4.662195e+00 -4.675924e+00 -4.683654e+00 -4.691025e+00 -4.692833e+00 -4.692027e+00 -4.687124e+00 -4.678734e+00 -4.669250e+00 -4.657120e+00 -4.647300e+00 -4.633253e+00 -4.621616e+00 -4.600746e+00 -4.585399e+00 -4.558955e+00 -4.540522e+00 -4.510875e+00 -4.491127e+00 -4.460425e+00 -4.441060e+00 -4.410942e+00 -4.393189e+00 -4.364807e+00 -4.349444e+00 -4.323594e+00 -4.311065e+00 -4.288316e+00 -4.278828e+00 -4.259611e+00 -4.253217e+00 -4.237878e+00 -4.234525e+00 -4.223357e+00 -4.222926e+00 -4.216182e+00 
-4.212159e+00 -4.209608e+00 -4.214853e+00 -4.217241e+00 -4.224957e+00 -4.232422e+00 -4.242458e+00 -4.255087e+00 -4.267319e+00 -4.285116e+00 -4.299445e+00 -4.322273e+00 -4.338597e+00 -4.366111e+00 -4.384254e+00 -4.415804e+00 -4.435387e+00 -4.469895e+00 -4.490164e+00 -4.525960e+00 -4.545647e+00 -4.580383e+00 -4.597787e+00 -4.628580e+00 -4.642038e+00 -4.665553e+00 -4.672433e+00 -4.683635e+00 -4.672210e+00 -4.662772e+00 -4.643882e+00 -4.634854e+00 -4.626947e+00 -4.633662e+00 -4.641709e+00 -4.659984e+00 -4.672349e+00 -4.681371e+00 -4.677611e+00 -4.665535e+00 -4.652067e+00 -4.629112e+00 -4.611231e+00 -4.580870e+00 -4.560769e+00 -4.526323e+00 -4.505572e+00 -4.470156e+00 -4.450142e+00 -4.415961e+00 -4.397765e+00 -4.366144e+00 -4.350496e+00 -4.322182e+00 -4.309510e+00 -4.284931e+00 -4.275427e+00 -4.254860e+00 -4.248551e+00 -4.232209e+00 -4.229017e+00 -4.217092e+00 -4.216881e+00 -4.209554e+00 
-4.197504e+00 -4.194860e+00 -4.200337e+00 -4.202667e+00 -4.210510e+00 -4.218045e+00 -4.228077e+00 -4.241034e+00 -4.253112e+00 -4.271659e+00 -4.285665e+00 -4.309849e+00 -4.325656e+00 -4.355292e+00 -4.372674e+00 -4.407169e+00 -4.425663e+00 -4.463729e+00 -4.482494e+00 -4.521723e+00 -4.539529e+00 -4.576001e+00 -4.591465e+00 -4.620286e+00 -4.631783e+00 -4.650433e+00 -4.654715e+00 -4.669260e+00 -4.682504e+00 -4.702618e+00 -4.717735e+00 -4.728688e+00 -4.732297e+00 -4.730173e+00 -4.721299e+00 -4.706427e+00 -4.690125e+00 -4.674924e+00 -4.666443e+00 -4.658461e+00 -4.649549e+00 -4.626707e+00 -4.610176e+00 -4.578883e+00 -4.556675e+00 -4.521582e+00 -4.497497e+00 -4.461811e+00 -4.438701e+00 -4.404517e+00 -4.384006e+00 -4.352534e+00 -4.335410e+00 -4.307302e+00 -4.293854e+00 -4.269472e+00 -4.259703e+00 -4.239281e+00 -4.233036e+00 -4.216767e+00 -4.213820e+00 -4.201891e+00 -4.201992e+00 -4.194599e+00 
-4.187553e+00 -4.184477e+00 -4.190240e+00 -4.192251e+00 -4.200444e+00 -4.207795e+00 -4.218305e+00 -4.231261e+00 -4.244065e+00 -4.262860e+00 -4.278033e+00 -4.302801e+00 -4.320496e+00 -4.351170e+00 -4.371514e+00 -4.407686e+00 -4.430557e+00 -4.471243e+00 -4.495901e+00 -4.539188e+00 -4.563866e+00 -4.606661e+00 -4.628709e+00 -4.667430e+00 -4.686134e+00 -4.717943e+00 -4.738190e+00 -4.756382e+00 -4.725302e+00 -4.683937e+00 -4.636864e+00 -4.605017e+00 -4.589436e+00 -4.602607e+00 -4.627775e+00 -4.677478e+00 -4.720239e+00 -4.750393e+00 -4.742219e+00 -4.718963e+00 -4.698543e+00 -4.668829e+00 -4.646170e+00 -4.607643e+00 -4.582899e+00 -4.539867e+00 -4.514496e+00 -4.471756e+00 -4.447718e+00 -4.408026e+00 -4.386771e+00 -4.351291e+00 -4.333622e+00 -4.302703e+00 -4.288930e+00 -4.262603e+00 -4.252709e+00 -4.230935e+00 -4.224722e+00 -4.207489e+00 -4.204682e+00 -4.192038e+00 -4.192346e+00 -4.184401e+00 
-4.170424e+00 -4.167008e+00 -4.173238e+00 -4.174922e+00 -4.183461e+00 -4.190610e+00 -4.201325e+00 -4.214374e+00 -4.227227e+00 -4.246648e+00 -4.261701e+00 -4.287933e+00 -4.305308e+00 -4.338628e+00 -4.358368e+00 -4.398661e+00 -4.420421e+00 -4.466725e+00 -4.489343e+00 -4.538943e+00 -4.560307e+00 -4.607163e+00 -4.625390e+00 -4.659013e+00 -4.673122e+00 -4.683556e+00 -4.667493e+00 -4.670801e+00 -4.694335e+00 -4.736371e+00 -4.774191e+00 -4.794312e+00 -4.801676e+00 -4.797168e+00 -4.777276e+00 -4.741545e+00 -4.701955e+00 -4.676089e+00 -4.676580e+00 -4.696717e+00 -4.699341e+00 -4.669413e+00 -4.650537e+00 -4.610305e+00 -4.580746e+00 -4.537141e+00 -4.505776e+00 -4.462862e+00 -4.434148e+00 -4.394460e+00 -4.370186e+00 -4.334800e+00 -4.315494e+00 -4.284680e+00 -4.270266e+00 -4.243999e+00 -4.234111e+00 -4.212319e+00 -4.206485e+00 -4.189143e+00 -4.186890e+00 -4.174042e+00 -4.174947e+00 -4.166715e+00 
-4.156760e+00 -4.152937e+00 -4.159380e+00 -4.160737e+00 -4.169486e+00 -4.176427e+00 -4.187403e+00 -4.200433e+00 -4.213722e+00 -4.233398e+00 -4.249306e+00 -4.276161e+00 -4.295232e+00 -4.329657e+00 -4.352579e+00 -4.394646e+00 -4.421905e+00 -4.470999e+00 -4.502134e+00 -4.556123e+00 -4.588486e+00 -4.642706e+00 -4.670032e+00 -4.719479e+00 -4.738849e+00 -4.787889e+00 -4.876256e+00 -4.942877e+00 -4.851284e+00 -4.712604e+00 -4.598129e+00 -4.513914e+00 -4.484588e+00 -4.510782e+00 -4.569579e+00 -4.698704e+00 -4.836145e+00 -4.924293e+00 -4.875458e+00 -4.792782e+00 -4.755926e+00 -4.722639e+00 -4.695484e+00 -4.644696e+00 -4.613797e+00 -4.557399e+00 -4.525165e+00 -4.472048e+00 -4.442122e+00 -4.395388e+00 -4.369925e+00 -4.329965e+00 -4.309760e+00 -4.276059e+00 -4.261106e+00 -4.233020e+00 -4.222912e+00 -4.199946e+00 -4.194122e+00 -4.175976e+00 -4.173871e+00 -4.160427e+00 -4.161543e+00 -4.152828e+00 
-4.137331e+00 -4.132857e+00 -4.140036e+00 -4.140693e+00 -4.150035e+00 -4.156344e+00 -4.167763e+00 -4.180430e+00 -4.194012e+00 -4.213915e+00 -4.229976e+00 -4.258116e+00 -4.277232e+00 -4.314638e+00 -4.337495e+00 -4.385021e+00 -4.411834e+00 -4.469665e+00 -4.498899e+00 -4.565252e+00 -4.592396e+00 -4.660180e+00 -4.682589e+00 -4.731998e+00 -4.775090e+00 -4.763438e+00 -4.662690e+00 -4.612168e+00 -4.665804e+00 -4.794288e+00 -4.911285e+00 -4.954142e+00 -4.968283e+00 -4.963879e+00 -4.913584e+00 -4.804564e+00 -4.677281e+00 -4.605923e+00 -4.645786e+00 -4.784481e+00 -4.826188e+00 -4.751976e+00 -4.719112e+00 -4.662568e+00 -4.616046e+00 -4.559561e+00 -4.515833e+00 -4.462541e+00 -4.425714e+00 -4.378808e+00 -4.349691e+00 -4.309680e+00 -4.287945e+00 -4.254215e+00 -4.239043e+00 -4.210865e+00 -4.201274e+00 -4.178115e+00 -4.173162e+00 -4.154712e+00 -4.153590e+00 -4.139720e+00 -4.141796e+00 -4.132534e+00 
-4.119908e+00 -4.115048e+00 -4.122361e+00 -4.122647e+00 -4.132014e+00 -4.138034e+00 -4.149384e+00 -4.161947e+00 -4.175455e+00 -4.195562e+00 -4.211795e+00 -4.240563e+00 -4.260652e+00 -4.299216e+00 -4.324896e+00 -4.374284e+00 -4.407453e+00 -4.468162e+00 -4.509627e+00 -4.579824e+00 -4.626944e+00 -4.697998e+00 -4.734951e+00 -4.791618e+00 -4.737036e+00 -4.797407e+00 -5.222128e+00 -5.549508e+00 -5.211177e+00 -4.671688e+00 -4.181719e+00 -3.648374e+00 -3.438506e+00 -3.616258e+00 -4.024699e+00 -4.627284e+00 -5.192273e+00 -5.488487e+00 -5.204019e+00 -4.823108e+00 -4.767608e+00 -4.798190e+00 -4.779373e+00 -4.702706e+00 -4.661590e+00 -4.582147e+00 -4.538178e+00 -4.470440e+00 -4.431193e+00 -4.375920e+00 -4.344530e+00 -4.299891e+00 -4.276637e+00 -4.240431e+00 -4.224463e+00 -4.194960e+00 -4.185102e+00 -4.161194e+00 -4.156299e+00 -4.137360e+00 -4.136457e+00 -4.122195e+00 -4.124529e+00 -4.114890e+00 
-4.098405e+00 -4.092527e+00 -4.100863e+00 -4.099965e+00 -4.110184e+00 -4.114948e+00 -4.126989e+00 -4.138430e+00 -4.152482e+00 -4.171986e+00 -4.188681e+00 -4.218022e+00 -4.238698e+00 -4.280050e+00 -4.306867e+00 -4.362755e+00 -4.397893e+00 -4.470789e+00 -4.513084e+00 -4.604446e+00 -4.640941e+00 -4.749713e+00 -4.752094e+00 -4.863319e+00 -5.104280e+00 -4.961179e+00 -3.426298e+00 -1.450198e+00 1.031425e+00 4.155104e+00 6.037145e+00 7.338858e+00 7.780796e+00 7.448547e+00 6.364689e+00 4.389081e+00 1.694622e+00 -9.440374e-01 -3.161307e+00 -4.992017e+00 -5.263503e+00 -4.914299e+00 -4.801816e+00 -4.744596e+00 -4.662637e+00 -4.589169e+00 -4.527463e+00 -4.458805e+00 -4.411107e+00 -4.354679e+00 -4.319595e+00 -4.274436e+00 -4.250297e+00 -4.213821e+00 -4.198514e+00 -4.168727e+00 -4.160241e+00 -4.135952e+00 -4.132641e+00 -4.113200e+00 -4.113838e+00 -4.098925e+00 -4.102648e+00 -4.092182e+00 
-4.077285e+00 -4.071018e+00 -4.079433e+00 -4.078054e+00 -4.088100e+00 -4.092393e+00 -4.103949e+00 -4.115091e+00 -4.128331e+00 -4.147916e+00 -4.163629e+00 -4.193645e+00 -4.213777e+00 -4.256556e+00 -4.284709e+00 -4.342960e+00 -4.383774e+00 -4.460452e+00 -4.517065e+00 -4.613026e+00 -4.690198e+00 -4.792368e+00 -4.921050e+00 -4.853153e+00 -2.784028e+00 9.022960e-01 5.745428e+00 9.765110e+00 1.164332e+01 1.345119e+01 1.408004e+01 1.427235e+01 1.433583e+01 1.429866e+01 1.411762e+01 1.352609e+01 1.217917e+01 9.982714e+00 6.178149e+00 1.465461e+00 -2.252422e+00 -4.705315e+00 -5.009436e+00 -4.802276e+00 -4.730803e+00 -4.614404e+00 -4.550269e+00 -4.465377e+00 -4.411085e+00 -4.346507e+00 -4.306695e+00 -4.257835e+00 -4.231162e+00 -4.193343e+00 -4.177003e+00 -4.146869e+00 -4.138216e+00 -4.113891e+00 -4.110838e+00 -4.091382e+00 -4.092425e+00 -4.077401e+00 -4.081511e+00 -4.070795e+00 
-4.054010e+00 -4.046334e+00 -4.056046e+00 -4.052902e+00 -4.064049e+00 -4.066249e+00 -4.078729e+00 -4.087608e+00 -4.101601e+00 -4.119152e+00 -4.135539e+00 -4.164582e+00 -4.185772e+00 -4.230162e+00 -4.261103e+00 -4.325705e+00 -4.373524e+00 -4.462416e+00 -4.531635e+00 -4.646877e+00 -4.717451e+00 -4.828863e+00 -3.737887e+00 2.735054e-02 5.671002e+00 1.050215e+01 1.297589e+01 1.413994e+01 1.407131e+01 1.386325e+01 1.375694e+01 1.360837e+01 1.360643e+01 1.360317e+01 1.373266e+01 1.384181e+01 1.408172e+01 1.399193e+01 1.321341e+01 1.117904e+01 6.742528e+00 6.771852e-01 -3.404369e+00 -4.726919e+00 -4.716115e+00 -4.607490e+00 -4.536922e+00 -4.445349e+00 -4.386098e+00 -4.317974e+00 -4.275635e+00 -4.225424e+00 -4.199235e+00 -4.160792e+00 -4.146608e+00 -4.115958e+00 -4.109965e+00 -4.085070e+00 -4.084564e+00 -4.064432e+00 -4.067687e+00 -4.051820e+00 -4.057783e+00 -4.045976e+00 
-4.029411e+00 -4.021293e+00 -4.031090e+00 -4.027244e+00 -4.038071e+00 -4.039445e+00 -4.051033e+00 -4.059209e+00 -4.071515e+00 -4.088884e+00 -4.102670e+00 -4.132555e+00 -4.150689e+00 -4.197228e+00 -4.226284e+00 -4.293762e+00 -4.341688e+00 -4.433548e+00 -4.495658e+00 -4.622078e+00 -4.581947e+00 -2.821217e+00 2.743845e+00 9.262698e+00 1.269581e+01 1.375842e+01 1.362520e+01 1.349371e+01 1.349242e+01 1.363457e+01 1.378467e+01 1.387171e+01 1.391209e+01 1.388030e+01 1.381020e+01 1.364812e+01 1.354205e+01 1.349178e+01 1.366327e+01 1.385323e+01 1.300224e+01 9.849620e+00 3.963471e+00 -2.128016e+00 -4.509438e+00 -4.607385e+00 -4.529708e+00 -4.445188e+00 -4.372384e+00 -4.300936e+00 -4.250752e+00 -4.199115e+00 -4.169385e+00 -4.131595e+00 -4.116455e+00 -4.086943e+00 -4.081241e+00 -4.057281e+00 -4.057506e+00 -4.037956e+00 -4.041977e+00 -4.026333e+00 -4.032917e+00 -4.020989e+00 
-4.004768e+00 -3.994885e+00 -4.006202e+00 -3.999968e+00 -4.012112e+00 -4.010381e+00 -4.023105e+00 -4.027475e+00 -4.040678e+00 -4.053837e+00 -4.068246e+00 -4.094451e+00 -4.113325e+00 -4.158809e+00 -4.190248e+00 -4.262103e+00 -4.317192e+00 -4.412392e+00 -4.512360e+00 -4.491569e+00 -2.184064e+00 4.165185e+00 1.057501e+01 1.328530e+01 1.350782e+01 1.339232e+01 1.348338e+01 1.368649e+01 1.369513e+01 1.369295e+01 1.366903e+01 1.363042e+01 1.363397e+01 1.362574e+01 1.366651e+01 1.367730e+01 1.370590e+01 1.365586e+01 1.350885e+01 1.342151e+01 1.348667e+01 1.337346e+01 1.136117e+01 5.175203e+00 -1.514151e+00 -4.332699e+00 -4.503701e+00 -4.400466e+00 -4.333635e+00 -4.261385e+00 -4.210312e+00 -4.157701e+00 -4.130529e+00 -4.091825e+00 -4.081121e+00 -4.050813e+00 -4.049566e+00 -4.024869e+00 -4.028826e+00 -4.008503e+00 -4.015453e+00 -3.998864e+00 -4.007729e+00 -3.994524e+00 
-3.977117e+00 -3.966669e+00 -3.978178e+00 -3.970868e+00 -3.982697e+00 -3.979506e+00 -3.991132e+00 -3.993987e+00 -4.004782e+00 -4.017117e+00 -4.027092e+00 -4.054460e+00 -4.066696e+00 -4.116057e+00 -4.141022e+00 -4.213658e+00 -4.264800e+00 -4.342085e+00 -4.349302e+00 -2.357690e+00 4.443147e+00 1.122210e+01 1.325255e+01 1.330487e+01 1.335825e+01 1.350602e+01 1.348855e+01 1.352104e+01 1.353236e+01 1.359938e+01 1.364923e+01 1.369360e+01 1.370904e+01 1.369758e+01 1.366664e+01 1.360861e+01 1.356413e+01 1.353304e+01 1.352569e+01 1.353648e+01 1.340552e+01 1.330691e+01 1.330091e+01 1.176796e+01 5.887855e+00 -1.478697e+00 -4.325310e+00 -4.383262e+00 -4.297741e+00 -4.224518e+00 -4.168034e+00 -4.116972e+00 -4.086589e+00 -4.051547e+00 -4.040798e+00 -4.013517e+00 -4.013674e+00 -3.990984e+00 -3.996545e+00 -3.977423e+00 -3.985706e+00 -3.969677e+00 -3.979504e+00 -3.966284e+00 
-3.951673e+00 -3.939230e+00 -3.952377e+00 -3.942125e+00 -3.955444e+00 -3.948083e+00 -3.961096e+00 -3.958295e+00 -3.970222e+00 -3.975394e+00 -3.985860e+00 -4.005266e+00 -4.016891e+00 -4.059673e+00 -4.081184e+00 -4.155809e+00 -4.174044e+00 -4.330534e+00 -3.126516e+00 3.388137e+00 1.095055e+01 1.323696e+01 1.327854e+01 1.339526e+01 1.340555e+01 1.344029e+01 1.347050e+01 1.355270e+01 1.356416e+01 1.359473e+01 1.359131e+01 1.359353e+01 1.359273e+01 1.359096e+01 1.359433e+01 1.358776e+01 1.357434e+01 1.354551e+01 1.348677e+01 1.344895e+01 1.341723e+01 1.340199e+01 1.331334e+01 1.326922e+01 1.173250e+01 4.570971e+00 -2.609102e+00 -4.336536e+00 -4.209527e+00 -4.171070e+00 -4.112707e+00 -4.063836e+00 -4.039977e+00 -4.003304e+00 -4.000623e+00 -3.971994e+00 -3.978961e+00 -3.955394e+00 -3.965951e+00 -3.946117e+00 -3.957928e+00 -3.941033e+00 -3.953406e+00 -3.938884e+00 
-3.921695e+00 -3.908511e+00 -3.922062e+00 -3.910205e+00 -3.923469e+00 -3.913640e+00 -3.925859e+00 -3.919976e+00 -3.929575e+00 -3.932189e+00 -3.936920e+00 -3.957640e+00 -3.956803e+00 -4.010001e+00 -4.013283e+00 -4.090656e+00 -4.151268e+00 -3.707487e+00 1.380361e+00 9.529344e+00 1.313436e+01 1.322728e+01 1.331169e+01 1.332541e+01 1.336633e+01 1.343179e+01 1.344332e+01 1.349228e+01 1.350448e+01 1.355186e+01 1.356913e+01 1.359938e+01 1.360086e+01 1.360149e+01 1.358097e+01 1.355755e+01 1.352613e+01 1.350111e+01 1.347074e+01 1.344542e+01 1.339645e+01 1.333535e+01 1.333696e+01 1.325147e+01 1.324442e+01 1.050595e+01 2.760608e+00 -3.331019e+00 -4.202803e+00 -4.078731e+00 -4.042130e+00 -4.004014e+00 -3.977666e+00 -3.950413e+00 -3.949752e+00 -3.926021e+00 -3.936508e+00 -3.915692e+00 -3.929192e+00 -3.911016e+00 -3.924869e+00 -3.908826e+00 -3.922532e+00 -3.908085e+00 
-3.896272e+00 -3.881108e+00 -3.896243e+00 -3.881130e+00 -3.895997e+00 -3.881137e+00 -3.895137e+00 -3.881771e+00 -3.893239e+00 -3.885268e+00 -3.891218e+00 -3.897983e+00 -3.896644e+00 -3.928393e+00 -3.942407e+00 -3.933812e+00 -4.170096e+00 -1.377112e+00 7.218627e+00 1.270947e+01 1.313273e+01 1.326417e+01 1.326055e+01 1.335125e+01 1.335867e+01 1.341940e+01 1.343162e+01 1.349059e+01 1.349627e+01 1.353361e+01 1.353117e+01 1.354896e+01 1.354214e+01 1.354788e+01 1.353594e+01 1.353121e+01 1.350682e+01 1.348968e+01 1.344733e+01 1.342431e+01 1.337717e+01 1.335881e+01 1.328562e+01 1.327767e+01 1.315427e+01 1.302079e+01 8.375302e+00 -4.896061e-01 -4.141718e+00 -3.972826e+00 -3.985625e+00 -3.932176e+00 -3.925915e+00 -3.892825e+00 -3.906276e+00 -3.880017e+00 -3.899965e+00 -3.878277e+00 -3.897683e+00 -3.879176e+00 -3.896714e+00 -3.880188e+00 -3.896346e+00 -3.880833e+00 
-3.865115e+00 -3.849067e+00 -3.864856e+00 -3.847570e+00 -3.862907e+00 -3.844259e+00 -3.858576e+00 -3.839415e+00 -3.850676e+00 -3.835318e+00 -3.837963e+00 -3.841424e+00 -3.819641e+00 -3.883069e+00 -3.790840e+00 -3.996799e+00 -3.371764e+00 3.197102e+00 1.127228e+01 1.325229e+01 1.317450e+01 1.325965e+01 1.327740e+01 1.332603e+01 1.334690e+01 1.340102e+01 1.341187e+01 1.346082e+01 1.346741e+01 1.350881e+01 1.351196e+01 1.353897e+01 1.353214e+01 1.353989e+01 1.352043e+01 1.351138e+01 1.348293e+01 1.346467e+01 1.343174e+01 1.340558e+01 1.336783e+01 1.332773e+01 1.329636e+01 1.325364e+01 1.319777e+01 1.319996e+01 1.189811e+01 4.612244e+00 -2.761249e+00 -4.063521e+00 -3.800396e+00 -3.875628e+00 -3.841574e+00 -3.828442e+00 -3.848702e+00 -3.826376e+00 -3.853755e+00 -3.834294e+00 -3.858274e+00 -3.841578e+00 -3.861720e+00 -3.846319e+00 -3.864015e+00 -3.848706e+00 
-3.840942e+00 -3.823275e+00 -3.840329e+00 -3.819934e+00 -3.836813e+00 -3.812885e+00 -3.829486e+00 -3.801647e+00 -3.816466e+00 -3.787561e+00 -3.793643e+00 -3.781366e+00 -3.744833e+00 -3.826970e+00 -3.580880e+00 -4.093014e+00 -1.026019e+00 7.861197e+00 1.310452e+01 1.304531e+01 1.318606e+01 1.321466e+01 1.325718e+01 1.331753e+01 1.333174e+01 1.339141e+01 1.339683e+01 1.345065e+01 1.344990e+01 1.348999e+01 1.348324e+01 1.350827e+01 1.349590e+01 1.350795e+01 1.348897e+01 1.348955e+01 1.346150e+01 1.345150e+01 1.341378e+01 1.339503e+01 1.335298e+01 1.332277e+01 1.328358e+01 1.321690e+01 1.322479e+01 1.301632e+01 1.324907e+01 9.071528e+00 3.315235e-02 -4.071889e+00 -3.673976e+00 -3.800177e+00 -3.780224e+00 -3.764950e+00 -3.804338e+00 -3.779401e+00 -3.817579e+00 -3.798098e+00 -3.827540e+00 -3.811557e+00 -3.834597e+00 -3.819539e+00 -3.839009e+00 -3.823203e+00 
-3.810321e+00 -3.791814e+00 -3.809632e+00 -3.786782e+00 -3.804613e+00 -3.775895e+00 -3.794325e+00 -3.757523e+00 -3.777072e+00 -3.730301e+00 -3.750072e+00 -3.698311e+00 -3.701481e+00 -3.687283e+00 -3.553328e+00 -3.701908e+00 2.320424e+00 1.095088e+01 1.330755e+01 1.303100e+01 1.322777e+01 1.321692e+01 1.326837e+01 1.331133e+01 1.332706e+01 1.338063e+01 1.338431e+01 1.343413e+01 1.343267e+01 1.347340e+01 1.346751e+01 1.349527e+01 1.348245e+01 1.349524e+01 1.347406e+01 1.347316e+01 1.344466e+01 1.343335e+01 1.339939e+01 1.337902e+01 1.334128e+01 1.330936e+01 1.327464e+01 1.322117e+01 1.321137e+01 1.307268e+01 1.322809e+01 1.184941e+01 3.887885e+00 -3.366254e+00 -3.736128e+00 -3.606480e+00 -3.747948e+00 -3.670944e+00 -3.756836e+00 -3.719871e+00 -3.772779e+00 -3.753421e+00 -3.788163e+00 -3.774364e+00 -3.799699e+00 -3.786286e+00 -3.807017e+00 -3.791709e+00 
-3.789185e+00 -3.769775e+00 -3.788189e+00 -3.763024e+00 -3.781847e+00 -3.748750e+00 -3.769452e+00 -3.724159e+00 -3.750526e+00 -3.684424e+00 -3.728184e+00 -3.621517e+00 -3.716833e+00 -3.511654e+00 -3.757218e+00 -2.603955e+00 6.029274e+00 1.276661e+01 1.319609e+01 1.309492e+01 1.318983e+01 1.322114e+01 1.324474e+01 1.330742e+01 1.330932e+01 1.337263e+01 1.336772e+01 1.342297e+01 1.341436e+01 1.345737e+01 1.344490e+01 1.347454e+01 1.345739e+01 1.347447e+01 1.345147e+01 1.345739e+01 1.342738e+01 1.342385e+01 1.338651e+01 1.337552e+01 1.333177e+01 1.331460e+01 1.326450e+01 1.324162e+01 1.318429e+01 1.316572e+01 1.307753e+01 1.313638e+01 7.381987e+00 -1.802730e+00 -3.810592e+00 -3.420188e+00 -3.725789e+00 -3.597077e+00 -3.721535e+00 -3.678429e+00 -3.740471e+00 -3.723600e+00 -3.760579e+00 -3.749628e+00 -3.775660e+00 -3.763907e+00 -3.785068e+00 -3.770118e+00 
-3.761480e+00 -3.741551e+00 -3.760529e+00 -3.733318e+00 -3.752850e+00 -3.715728e+00 -3.737710e+00 -3.684899e+00 -3.714914e+00 -3.632845e+00 -3.690061e+00 -3.541232e+00 -3.690682e+00 -3.349116e+00 -3.818789e+00 -9.868768e-01 9.017367e+00 1.338874e+01 1.301867e+01 1.323248e+01 1.315462e+01 1.326281e+01 1.323771e+01 1.331797e+01 1.330397e+01 1.337068e+01 1.335934e+01 1.341446e+01 1.340325e+01 1.344635e+01 1.343312e+01 1.346319e+01 1.344557e+01 1.346231e+01 1.343880e+01 1.344348e+01 1.341383e+01 1.340901e+01 1.337315e+01 1.336181e+01 1.331785e+01 1.330502e+01 1.324496e+01 1.324621e+01 1.313785e+01 1.321220e+01 1.292490e+01 1.334171e+01 1.006198e+01 3.507111e-01 -3.793622e+00 -3.336963e+00 -3.667501e+00 -3.538472e+00 -3.666953e+00 -3.633437e+00 -3.695214e+00 -3.686436e+00 -3.723013e+00 -3.717255e+00 -3.743320e+00 -3.734375e+00 -3.755878e+00 -3.741923e+00 
-3.745750e+00 -3.725795e+00 -3.744427e+00 -3.716334e+00 -3.735368e+00 -3.696760e+00 -3.717619e+00 -3.663119e+00 -3.690399e+00 -3.607596e+00 -3.657920e+00 -3.513594e+00 -3.643382e+00 -3.331952e+00 -3.726638e+00 7.165977e-01 1.087517e+01 1.348443e+01 1.297694e+01 1.327450e+01 1.313267e+01 1.327253e+01 1.322085e+01 1.331611e+01 1.328891e+01 1.336387e+01 1.334458e+01 1.340477e+01 1.338772e+01 1.343416e+01 1.341623e+01 1.344939e+01 1.342840e+01 1.344924e+01 1.342365e+01 1.343374e+01 1.340260e+01 1.340417e+01 1.336690e+01 1.336313e+01 1.331819e+01 1.331518e+01 1.325530e+01 1.327143e+01 1.316763e+01 1.327061e+01 1.300978e+01 1.344952e+01 1.192308e+01 2.394067e+00 -3.700044e+00 -3.386060e+00 -3.603402e+00 -3.534259e+00 -3.624553e+00 -3.618902e+00 -3.665728e+00 -3.670497e+00 -3.700750e+00 -3.701664e+00 -3.724978e+00 -3.719186e+00 -3.739492e+00 -3.726734e+00 
-3.723924e+00 -3.703799e+00 -3.722708e+00 -3.693437e+00 -3.712442e+00 -3.672059e+00 -3.691670e+00 -3.635983e+00 -3.657984e+00 -3.578766e+00 -3.610725e+00 -3.489901e+00 -3.558111e+00 -3.347385e+00 -3.530764e+00 2.412620e+00 1.216317e+01 1.337839e+01 1.301683e+01 1.329082e+01 1.314193e+01 1.329246e+01 1.322392e+01 1.332603e+01 1.328839e+01 1.336573e+01 1.334105e+01 1.340144e+01 1.338199e+01 1.342801e+01 1.340928e+01 1.344172e+01 1.342058e+01 1.344014e+01 1.341474e+01 1.342293e+01 1.339260e+01 1.339181e+01 1.335631e+01 1.334966e+01 1.330794e+01 1.330038e+01 1.324819e+01 1.325142e+01 1.317523e+01 1.322200e+01 1.308416e+01 1.325533e+01 1.283526e+01 4.255045e+00 -3.370215e+00 -3.425034e+00 -3.472943e+00 -3.521314e+00 -3.555867e+00 -3.594356e+00 -3.622040e+00 -3.644876e+00 -3.668556e+00 -3.677386e+00 -3.698652e+00 -3.696347e+00 -3.716259e+00 -3.704730e+00 
-3.716279e+00 -3.696673e+00 -3.714623e+00 -3.685670e+00 -3.703095e+00 -3.663708e+00 -3.679573e+00 -3.627790e+00 -3.639488e+00 -3.573847e+00 -3.575473e+00 -3.499377e+00 -3.475304e+00 -3.409595e+00 -3.308749e+00 3.784140e+00 1.290008e+01 1.326836e+01 1.308469e+01 1.326850e+01 1.315139e+01 1.328565e+01 1.321781e+01 1.332029e+01 1.327846e+01 1.335914e+01 1.333034e+01 1.339410e+01 1.337111e+01 1.342014e+01 1.339841e+01 1.343390e+01 1.341042e+01 1.343357e+01 1.340652e+01 1.341901e+01 1.338769e+01 1.339169e+01 1.335631e+01 1.335426e+01 1.331584e+01 1.331026e+01 1.327117e+01 1.326431e+01 1.323239e+01 1.322096e+01 1.322747e+01 1.315679e+01 1.332305e+01 5.741150e+00 -2.962965e+00 -3.493230e+00 -3.368007e+00 -3.541659e+00 -3.513162e+00 -3.597508e+00 -3.601224e+00 -3.641945e+00 -3.656013e+00 -3.672256e+00 -3.689431e+00 -3.690318e+00 -3.708335e+00 -3.698153e+00 
-3.703252e+00 -3.683469e+00 -3.701809e+00 -3.672164e+00 -3.689682e+00 -3.649580e+00 -3.664285e+00 -3.613344e+00 -3.619369e+00 -3.561444e+00 -3.541892e+00 -3.497864e+00 -3.400804e+00 -3.447170e+00 -3.097351e+00 4.678830e+00 1.324944e+01 1.319303e+01 1.316436e+01 1.326338e+01 1.317893e+01 1.329465e+01 1.322860e+01 1.332789e+01 1.328311e+01 1.336295e+01 1.333201e+01 1.339479e+01 1.337098e+01 1.341872e+01 1.339707e+01 1.343091e+01 1.340792e+01 1.342892e+01 1.340257e+01 1.341233e+01 1.338200e+01 1.338265e+01 1.334892e+01 1.334250e+01 1.330758e+01 1.329470e+01 1.326557e+01 1.324115e+01 1.324123e+01 1.317764e+01 1.328253e+01 1.306197e+01 1.349526e+01 6.689254e+00 -2.589049e+00 -3.499729e+00 -3.275060e+00 -3.532494e+00 -3.466139e+00 -3.582642e+00 -3.572907e+00 -3.626239e+00 -3.635908e+00 -3.657288e+00 -3.673324e+00 -3.676295e+00 -3.694306e+00 -3.684773e+00 
-3.705770e+00 -3.686458e+00 -3.703955e+00 -3.674989e+00 -3.691349e+00 -3.652489e+00 -3.665072e+00 -3.616714e+00 -3.617971e+00 -3.566025e+00 -3.534116e+00 -3.505434e+00 -3.372973e+00 -3.462009e+00 -2.998243e+00 4.966585e+00 1.327578e+01 1.312453e+01 1.316415e+01 1.323956e+01 1.317299e+01 1.328300e+01 1.322116e+01 1.332024e+01 1.327600e+01 1.335733e+01 1.332571e+01 1.339050e+01 1.336550e+01 1.341543e+01 1.339238e+01 1.342867e+01 1.340434e+01 1.342825e+01 1.340076e+01 1.341398e+01 1.338277e+01 1.338731e+01 1.335320e+01 1.335079e+01 1.331676e+01 1.330701e+01 1.328201e+01 1.325669e+01 1.326904e+01 1.319096e+01 1.332671e+01 1.305519e+01 1.354736e+01 6.990725e+00 -2.462007e+00 -3.518515e+00 -3.258941e+00 -3.546921e+00 -3.463581e+00 -3.592445e+00 -3.574863e+00 -3.633118e+00 -3.639006e+00 -3.662413e+00 -3.676464e+00 -3.680346e+00 -3.697170e+00 -3.688154e+00 