# vtk DataFile Version 2.0
Comment goes here
ASCII

DATASET STRUCTURED_POINTS
FIELD FieldData 1
TIME 1 1 double
0.53000000
DIMENSIONS    64   64   1

ORIGIN    0.000   0.000   0.000
SPACING   0.015625 0.015625   1.000

POINT_DATA   4096
SCALARS P double
LOOKUP_TABLE default

-4.416193e+00 -4.419441e+00 -4.422041e+00 -4.431149e+00 -4.439292e+00 -4.454262e+00 -4.467637e+00 -4.488292e+00 -4.506434e+00 -4.532319e+00 -4.554526e+00 -4.584778e+00 -4.610001e+00 -4.643230e+00 -4.669978e+00 -4.704170e+00 -4.730485e+00 -4.763011e+00 -4.786596e+00 -4.814394e+00 -4.832959e+00 -4.852996e+00 -4.864837e+00 -4.874896e+00 -4.879611e+00 -4.879265e+00 -4.878334e+00 -4.869664e+00 -4.866498e+00 -4.853880e+00 -4.853024e+00 -4.841857e+00 -4.847105e+00 -4.840968e+00 -4.852850e+00 -4.851389e+00 -4.866276e+00 -4.866037e+00 -4.878187e+00 -4.875084e+00 -4.879531e+00 -4.870710e+00 -4.864711e+00 -4.849184e+00 -4.832669e+00 -4.811134e+00 -4.786092e+00 -4.760333e+00 -4.729786e+00 -4.702023e+00 -4.669151e+00 -4.641536e+00 -4.609132e+00 -4.583461e+00 -4.553695e+00 -4.531315e+00 -4.505705e+00 -4.487554e+00 -4.467056e+00 -4.453756e+00 -4.438891e+00 -4.430853e+00 -4.421837e+00 -4.419344e+00 
-4.414917e+00 -4.417896e+00 -4.420738e+00 -4.429566e+00 -4.437927e+00 -4.452606e+00 -4.466158e+00 -4.486496e+00 -4.504747e+00 -4.530246e+00 -4.552443e+00 -4.582160e+00 -4.607163e+00 -4.639562e+00 -4.665718e+00 -4.698560e+00 -4.723642e+00 -4.753982e+00 -4.775286e+00 -4.799687e+00 -4.814387e+00 -4.829461e+00 -4.835335e+00 -4.838671e+00 -4.835178e+00 -4.826600e+00 -4.816005e+00 -4.798742e+00 -4.786446e+00 -4.767158e+00 -4.760088e+00 -4.746077e+00 -4.749382e+00 -4.744947e+00 -4.759431e+00 -4.763965e+00 -4.785313e+00 -4.794029e+00 -4.814643e+00 -4.821103e+00 -4.833756e+00 -4.833140e+00 -4.833930e+00 -4.824457e+00 -4.813027e+00 -4.795500e+00 -4.773989e+00 -4.750669e+00 -4.722432e+00 -4.696039e+00 -4.664616e+00 -4.637693e+00 -4.606188e+00 -4.580796e+00 -4.551609e+00 -4.529265e+00 -4.504066e+00 -4.485808e+00 -4.465638e+00 -4.452151e+00 -4.437575e+00 -4.429306e+00 -4.420561e+00 -4.417811e+00 
-4.411431e+00 -4.414628e+00 -4.417351e+00 -4.426487e+00 -4.434829e+00 -4.449939e+00 -4.463609e+00 -4.484562e+00 -4.503127e+00 -4.529513e+00 -4.552308e+00 -4.583305e+00 -4.609300e+00 -4.643529e+00 -4.671206e+00 -4.706617e+00 -4.733928e+00 -4.767781e+00 -4.792264e+00 -4.821314e+00 -4.840486e+00 -4.861475e+00 -4.873522e+00 -4.884063e+00 -4.888662e+00 -4.888335e+00 -4.887205e+00 -4.878256e+00 -4.874958e+00 -4.861788e+00 -4.860874e+00 -4.849177e+00 -4.854606e+00 -4.848222e+00 -4.860682e+00 -4.859123e+00 -4.874738e+00 -4.874399e+00 -4.887112e+00 -4.883919e+00 -4.888665e+00 -4.879703e+00 -4.873458e+00 -4.857569e+00 -4.840211e+00 -4.818023e+00 -4.791730e+00 -4.765109e+00 -4.733174e+00 -4.704490e+00 -4.670319e+00 -4.641857e+00 -4.608376e+00 -4.582007e+00 -4.551433e+00 -4.528523e+00 -4.502367e+00 -4.483833e+00 -4.463008e+00 -4.449440e+00 -4.434416e+00 -4.426195e+00 -4.417141e+00 -4.414532e+00 
-4.405417e+00 -4.408287e+00 -4.411385e+00 -4.420276e+00 -4.429053e+00 -4.444034e+00 -4.458208e+00 -4.479187e+00 -4.498342e+00 -4.524933e+00 -4.548408e+00 -4.579768e+00 -4.606485e+00 -4.641121e+00 -4.669415e+00 -4.705018e+00 -4.732510e+00 -4.765888e+00 -4.789529e+00 -4.816798e+00 -4.833234e+00 -4.850403e+00 -4.856823e+00 -4.860870e+00 -4.856361e+00 -4.846688e+00 -4.833739e+00 -4.813691e+00 -4.798827e+00 -4.776625e+00 -4.768171e+00 -4.752443e+00 -4.755868e+00 -4.751166e+00 -4.767428e+00 -4.773016e+00 -4.797582e+00 -4.808373e+00 -4.832316e+00 -4.840529e+00 -4.854921e+00 -4.854813e+00 -4.855399e+00 -4.845101e+00 -4.831831e+00 -4.812520e+00 -4.788171e+00 -4.762617e+00 -4.731236e+00 -4.702599e+00 -4.668257e+00 -4.639364e+00 -4.605465e+00 -4.578501e+00 -4.547540e+00 -4.524025e+00 -4.497636e+00 -4.478547e+00 -4.457670e+00 -4.443608e+00 -4.428689e+00 -4.420030e+00 -4.411202e+00 -4.408207e+00 
-4.396982e+00 -4.400009e+00 -4.403105e+00 -4.412304e+00 -4.421234e+00 -4.436740e+00 -4.451279e+00 -4.473098e+00 -4.492925e+00 -4.520805e+00 -4.545378e+00 -4.578631e+00 -4.607000e+00 -4.644307e+00 -4.674908e+00 -4.714127e+00 -4.744641e+00 -4.782717e+00 -4.810150e+00 -4.843259e+00 -4.864459e+00 -4.888588e+00 -4.901307e+00 -4.913444e+00 -4.917623e+00 -4.917354e+00 -4.915632e+00 -4.905934e+00 -4.902305e+00 -4.887211e+00 -4.885950e+00 -4.872384e+00 -4.878200e+00 -4.871218e+00 -4.885669e+00 -4.883980e+00 -4.902064e+00 -4.901346e+00 -4.915730e+00 -4.912179e+00 -4.917930e+00 -4.908544e+00 -4.901460e+00 -4.884418e+00 -4.864224e+00 -4.839905e+00 -4.809508e+00 -4.780084e+00 -4.743705e+00 -4.712073e+00 -4.673826e+00 -4.642707e+00 -4.605906e+00 -4.577390e+00 -4.544371e+00 -4.519858e+00 -4.492073e+00 -4.472400e+00 -4.450619e+00 -4.436261e+00 -4.420787e+00 -4.412024e+00 -4.402880e+00 -4.399917e+00 
-4.386074e+00 -4.388699e+00 -4.392313e+00 -4.401278e+00 -4.410864e+00 -4.426385e+00 -4.441763e+00 -4.463957e+00 -4.484886e+00 -4.513620e+00 -4.539647e+00 -4.574320e+00 -4.604552e+00 -4.643814e+00 -4.676625e+00 -4.718089e+00 -4.750850e+00 -4.790874e+00 -4.819854e+00 -4.853627e+00 -4.874316e+00 -4.896521e+00 -4.904681e+00 -4.910880e+00 -4.904437e+00 -4.892773e+00 -4.874272e+00 -4.847312e+00 -4.826063e+00 -4.796797e+00 -4.785282e+00 -4.765874e+00 -4.769391e+00 -4.764292e+00 -4.784327e+00 -4.792297e+00 -4.824539e+00 -4.840676e+00 -4.872747e+00 -4.885117e+00 -4.903017e+00 -4.903685e+00 -4.903250e+00 -4.890652e+00 -4.872825e+00 -4.849244e+00 -4.818359e+00 -4.787761e+00 -4.749436e+00 -4.715925e+00 -4.675351e+00 -4.642309e+00 -4.603443e+00 -4.573256e+00 -4.538714e+00 -4.512856e+00 -4.484131e+00 -4.463409e+00 -4.441190e+00 -4.426011e+00 -4.410478e+00 -4.401058e+00 -4.392119e+00 -4.388626e+00 
-4.372381e+00 -4.375076e+00 -4.378800e+00 -4.388023e+00 -4.397901e+00 -4.413967e+00 -4.429899e+00 -4.453069e+00 -4.474951e+00 -4.505273e+00 -4.532831e+00 -4.569902e+00 -4.602414e+00 -4.645094e+00 -4.681019e+00 -4.727104e+00 -4.763726e+00 -4.809696e+00 -4.843024e+00 -4.884029e+00 -4.909433e+00 -4.939907e+00 -4.953966e+00 -4.969345e+00 -4.972467e+00 -4.972134e+00 -4.969489e+00 -4.959304e+00 -4.955607e+00 -4.936051e+00 -4.933333e+00 -4.915281e+00 -4.920793e+00 -4.913700e+00 -4.932766e+00 -4.931714e+00 -4.955226e+00 -4.953389e+00 -4.970032e+00 -4.965450e+00 -4.973520e+00 -4.963499e+00 -4.954595e+00 -4.935388e+00 -4.909240e+00 -4.880682e+00 -4.842128e+00 -4.807208e+00 -4.762418e+00 -4.725212e+00 -4.679570e+00 -4.643626e+00 -4.601018e+00 -4.568759e+00 -4.531604e+00 -4.504395e+00 -4.473952e+00 -4.452419e+00 -4.429149e+00 -4.413519e+00 -4.397405e+00 -4.387761e+00 -4.378553e+00 -4.374990e+00 
-4.356256e+00 -4.358434e+00 -4.362832e+00 -4.371770e+00 -4.382511e+00 -4.398659e+00 -4.415732e+00 -4.439559e+00 -4.463026e+00 -4.494837e+00 -4.524648e+00 -4.564308e+00 -4.599981e+00 -4.646519e+00 -4.686676e+00 -4.737781e+00 -4.779613e+00 -4.831122e+00 -4.869954e+00 -4.915626e+00 -4.945023e+00 -4.977247e+00 -4.990201e+00 -5.002056e+00 -4.993515e+00 -4.980507e+00 -4.951121e+00 -4.908811e+00 -4.873454e+00 -4.829591e+00 -4.813511e+00 -4.788536e+00 -4.791601e+00 -4.786487e+00 -4.812122e+00 -4.823651e+00 -4.871329e+00 -4.899967e+00 -4.949544e+00 -4.970028e+00 -4.992336e+00 -4.992924e+00 -4.988856e+00 -4.970659e+00 -4.943377e+00 -4.911333e+00 -4.868203e+00 -4.828455e+00 -4.777959e+00 -4.736129e+00 -4.685219e+00 -4.645451e+00 -4.598744e+00 -4.563565e+00 -4.523624e+00 -4.494281e+00 -4.462204e+00 -4.439134e+00 -4.415110e+00 -4.398350e+00 -4.382091e+00 -4.371579e+00 -4.362620e+00 -4.358370e+00 
-4.336920e+00 -4.339041e+00 -4.343658e+00 -4.352732e+00 -4.363859e+00 -4.380475e+00 -4.398208e+00 -4.423033e+00 -4.447637e+00 -4.481220e+00 -4.512925e+00 -4.555397e+00 -4.594021e+00 -4.644683e+00 -4.689021e+00 -4.745837e+00 -4.792863e+00 -4.851893e+00 -4.896083e+00 -4.951050e+00 -4.984794e+00 -5.027354e+00 -5.044079e+00 -5.065827e+00 -5.066102e+00 -5.063994e+00 -5.060428e+00 -5.054257e+00 -5.053269e+00 -5.022761e+00 -5.014608e+00 -4.984792e+00 -4.985499e+00 -4.982485e+00 -5.013201e+00 -5.016444e+00 -5.052340e+00 -5.046485e+00 -5.061978e+00 -5.054365e+00 -5.068974e+00 -5.058624e+00 -5.045643e+00 -5.022660e+00 -4.984528e+00 -4.948014e+00 -4.894614e+00 -4.849789e+00 -4.790872e+00 -4.744247e+00 -4.686972e+00 -4.643419e+00 -4.592173e+00 -4.554386e+00 -4.511395e+00 -4.480431e+00 -4.446452e+00 -4.422444e+00 -4.397355e+00 -4.380068e+00 -4.363311e+00 -4.352494e+00 -4.343391e+00 -4.338963e+00 
-4.315133e+00 -4.316569e+00 -4.322020e+00 -4.330653e+00 -4.342799e+00 -4.359415e+00 -4.378492e+00 -4.404076e+00 -4.430617e+00 -4.466169e+00 -4.500810e+00 -4.547019e+00 -4.590110e+00 -4.646849e+00 -4.697786e+00 -4.763344e+00 -4.819596e+00 -4.889597e+00 -4.945602e+00 -5.011942e+00 -5.058541e+00 -5.109799e+00 -5.135273e+00 -5.160785e+00 -5.153570e+00 -5.148364e+00 -5.098357e+00 -5.018042e+00 -4.948276e+00 -4.874269e+00 -4.857504e+00 -4.828520e+00 -4.828763e+00 -4.825912e+00 -4.855313e+00 -4.866356e+00 -4.944777e+00 -5.006079e+00 -5.096992e+00 -5.132317e+00 -5.153398e+00 -5.148634e+00 -5.134248e+00 -5.102780e+00 -5.056561e+00 -5.008420e+00 -4.943366e+00 -4.887974e+00 -4.817562e+00 -4.762607e+00 -4.696085e+00 -4.646450e+00 -4.588721e+00 -4.546707e+00 -4.499681e+00 -4.465862e+00 -4.429716e+00 -4.403777e+00 -4.377808e+00 -4.359160e+00 -4.342336e+00 -4.330481e+00 -4.321786e+00 -4.316509e+00 
-4.289770e+00 -4.290957e+00 -4.296740e+00 -4.305279e+00 -4.317846e+00 -4.334716e+00 -4.354437e+00 -4.380898e+00 -4.408591e+00 -4.445972e+00 -4.482732e+00 -4.532086e+00 -4.578868e+00 -4.640464e+00 -4.697235e+00 -4.769834e+00 -4.834027e+00 -4.913856e+00 -4.978200e+00 -5.057605e+00 -5.108788e+00 -5.175124e+00 -5.197879e+00 -5.233846e+00 -5.224506e+00 -5.207093e+00 -5.202304e+00 -5.226126e+00 -5.242610e+00 -5.180518e+00 -5.153364e+00 -5.087478e+00 -5.063230e+00 -5.083948e+00 -5.149568e+00 -5.170292e+00 -5.239915e+00 -5.217284e+00 -5.205864e+00 -5.190372e+00 -5.232114e+00 -5.225332e+00 -5.201033e+00 -5.171180e+00 -5.107852e+00 -5.055652e+00 -4.975463e+00 -4.912562e+00 -4.830855e+00 -4.768717e+00 -4.694287e+00 -4.639449e+00 -4.576421e+00 -4.531213e+00 -4.480845e+00 -4.445271e+00 -4.407219e+00 -4.380374e+00 -4.353499e+00 -4.334357e+00 -4.317266e+00 -4.305070e+00 -4.296464e+00 -4.290889e+00 
-4.261854e+00 -4.262113e+00 -4.268892e+00 -4.276677e+00 -4.290336e+00 -4.306873e+00 -4.327964e+00 -4.354946e+00 -4.384658e+00 -4.424093e+00 -4.464143e+00 -4.518068e+00 -4.570355e+00 -4.640342e+00 -4.706135e+00 -4.792317e+00 -4.870646e+00 -4.969704e+00 -5.054898e+00 -5.156699e+00 -5.236051e+00 -5.321538e+00 -5.376002e+00 -5.425668e+00 -5.434628e+00 -5.486522e+00 -5.397359e+00 -5.200530e+00 -5.027696e+00 -4.891960e+00 -4.916166e+00 -4.905787e+00 -4.893054e+00 -4.902827e+00 -4.912781e+00 -4.881808e+00 -5.020401e+00 -5.185300e+00 -5.396340e+00 -5.457317e+00 -5.437952e+00 -5.409497e+00 -5.375565e+00 -5.315829e+00 -5.233063e+00 -5.155635e+00 -5.051713e+00 -4.970177e+00 -4.868075e+00 -4.793044e+00 -4.704180e+00 -4.640843e+00 -4.568832e+00 -4.518243e+00 -4.462917e+00 -4.424009e+00 -4.383670e+00 -4.354723e+00 -4.327205e+00 -4.306627e+00 -4.289818e+00 -4.276495e+00 -4.268629e+00 -4.262047e+00 
-4.230180e+00 -4.229900e+00 -4.237137e+00 -4.244445e+00 -4.258486e+00 -4.274872e+00 -4.296412e+00 -4.323947e+00 -4.354538e+00 -4.395702e+00 -4.437763e+00 -4.495131e+00 -4.551753e+00 -4.627484e+00 -4.701593e+00 -4.796542e+00 -4.888412e+00 -5.000414e+00 -5.102199e+00 -5.222899e+00 -5.310556e+00 -5.421407e+00 -5.455910e+00 -5.529678e+00 -5.475222e+00 -5.349734e+00 -5.331929e+00 -5.519612e+00 -5.622399e+00 -5.450680e+00 -5.361049e+00 -5.173219e+00 -5.040370e+00 -5.168368e+00 -5.350628e+00 -5.429457e+00 -5.613514e+00 -5.517460e+00 -5.338193e+00 -5.310367e+00 -5.496523e+00 -5.523856e+00 -5.460385e+00 -5.420918e+00 -5.306677e+00 -5.223515e+00 -5.096832e+00 -5.000493e+00 -4.883384e+00 -4.795990e+00 -4.697447e+00 -4.626664e+00 -4.548616e+00 -4.494338e+00 -4.435540e+00 -4.395066e+00 -4.353042e+00 -4.323487e+00 -4.295453e+00 -4.274568e+00 -4.257921e+00 -4.244274e+00 -4.236876e+00 -4.229845e+00 
-4.195801e+00 -4.194264e+00 -4.202658e+00 -4.208699e+00 -4.223789e+00 -4.239167e+00 -4.261846e+00 -4.289143e+00 -4.321409e+00 -4.363992e+00 -4.409108e+00 -4.471056e+00 -4.533562e+00 -4.619478e+00 -4.704500e+00 -4.818638e+00 -4.929235e+00 -5.072115e+00 -5.203440e+00 -5.362364e+00 -5.493734e+00 -5.629293e+00 -5.726733e+00 -5.753211e+00 -5.822521e+00 -6.177443e+00 -5.977974e+00 -4.955400e+00 -3.237354e+00 -1.189188e+00 3.504324e-01 1.415726e+00 1.814812e+00 1.431246e+00 3.810341e-01 -1.157391e+00 -3.193341e+00 -4.906850e+00 -5.968206e+00 -6.115831e+00 -5.837328e+00 -5.736018e+00 -5.725318e+00 -5.630491e+00 -5.487203e+00 -5.366967e+00 -5.198485e+00 -5.076086e+00 -4.926134e+00 -4.821351e+00 -4.702463e+00 -4.620972e+00 -4.532014e+00 -4.471625e+00 -4.407815e+00 -4.363988e+00 -4.320324e+00 -4.288866e+00 -4.260990e+00 -4.238836e+00 -4.223197e+00 -4.208452e+00 -4.202356e+00 -4.194174e+00 
-4.157769e+00 -4.155264e+00 -4.164276e+00 -4.169246e+00 -4.184608e+00 -4.199160e+00 -4.221867e+00 -4.249108e+00 -4.281529e+00 -4.325550e+00 -4.371858e+00 -4.437620e+00 -4.504343e+00 -4.597285e+00 -4.693151e+00 -4.817843e+00 -4.950380e+00 -5.106712e+00 -5.270320e+00 -5.445140e+00 -5.593734e+00 -5.751306e+00 -5.799872e+00 -6.024960e+00 -5.444704e+00 -3.188886e+00 6.709830e-01 5.134158e+00 8.735119e+00 1.130101e+01 1.295454e+01 1.379033e+01 1.398801e+01 1.379709e+01 1.297667e+01 1.129459e+01 8.812050e+00 5.298251e+00 7.836915e-01 -3.053165e+00 -5.515501e+00 -6.050041e+00 -5.797368e+00 -5.757725e+00 -5.579787e+00 -5.449790e+00 -5.260436e+00 -5.108319e+00 -4.942949e+00 -4.817538e+00 -4.687679e+00 -4.596366e+00 -4.500590e+00 -4.436757e+00 -4.369460e+00 -4.324932e+00 -4.280075e+00 -4.248715e+00 -4.221020e+00 -4.198926e+00 -4.184144e+00 -4.169123e+00 -4.164071e+00 -4.155225e+00 
-4.116950e+00 -4.112772e+00 -4.123108e+00 -4.126084e+00 -4.142336e+00 -4.154811e+00 -4.178143e+00 -4.203719e+00 -4.236939e+00 -4.280680e+00 -4.328969e+00 -4.397730e+00 -4.469583e+00 -4.572349e+00 -4.679305e+00 -4.826386e+00 -4.977474e+00 -5.174666e+00 -5.360492e+00 -5.587446e+00 -5.758142e+00 -5.958130e+00 -5.840980e+00 -3.849515e+00 1.101062e+00 6.885517e+00 1.110385e+01 1.363246e+01 1.462532e+01 1.481431e+01 1.494427e+01 1.491246e+01 1.485187e+01 1.490477e+01 1.494441e+01 1.477932e+01 1.465611e+01 1.369689e+01 1.116501e+01 6.984198e+00 1.130660e+00 -3.652098e+00 -5.813418e+00 -5.977310e+00 -5.740484e+00 -5.600300e+00 -5.353209e+00 -5.182588e+00 -4.974595e+00 -4.831056e+00 -4.677748e+00 -4.574533e+00 -4.468220e+00 -4.398309e+00 -4.327623e+00 -4.280423e+00 -4.235711e+00 -4.203154e+00 -4.177144e+00 -4.154251e+00 -4.141640e+00 -4.125696e+00 -4.122752e+00 -4.112635e+00 
-4.072951e+00 -4.067184e+00 -4.078382e+00 -4.079411e+00 -4.095814e+00 -4.106397e+00 -4.129158e+00 -4.153618e+00 -4.185747e+00 -4.230317e+00 -4.277795e+00 -4.350931e+00 -4.424497e+00 -4.536265e+00 -4.652230e+00 -4.809862e+00 -4.984592e+00 -5.180390e+00 -5.411375e+00 -5.609116e+00 -5.811653e+00 -5.306815e+00 -1.633132e+00 4.973530e+00 1.075055e+01 1.365565e+01 1.433666e+01 1.427909e+01 1.418641e+01 1.411535e+01 1.420542e+01 1.424788e+01 1.426531e+01 1.424476e+01 1.421049e+01 1.410454e+01 1.420094e+01 1.426699e+01 1.433674e+01 1.368708e+01 1.086877e+01 5.251495e+00 -1.639463e+00 -5.282944e+00 -5.771675e+00 -5.615375e+00 -5.397781e+00 -5.181561e+00 -4.974990e+00 -4.808369e+00 -4.645633e+00 -4.534566e+00 -4.420485e+00 -4.349790e+00 -4.275608e+00 -4.229709e+00 -4.184648e+00 -4.153335e+00 -4.128630e+00 -4.106271e+00 -4.095567e+00 -4.079356e+00 -4.078282e+00 -4.067168e+00 
-4.026357e+00 -4.018435e+00 -4.031143e+00 -4.029280e+00 -4.046352e+00 -4.053451e+00 -4.076100e+00 -4.096833e+00 -4.128356e+00 -4.169746e+00 -4.217076e+00 -4.289197e+00 -4.365242e+00 -4.480819e+00 -4.604012e+00 -4.774017e+00 -4.954950e+00 -5.182247e+00 -5.396084e+00 -5.646309e+00 -4.950096e+00 -2.260129e-01 7.377720e+00 1.233214e+01 1.371815e+01 1.377460e+01 1.377632e+01 1.398857e+01 1.421669e+01 1.434886e+01 1.446216e+01 1.449568e+01 1.450508e+01 1.449271e+01 1.446571e+01 1.434242e+01 1.422811e+01 1.399706e+01 1.378778e+01 1.378420e+01 1.370626e+01 1.235059e+01 7.400871e+00 3.274605e-02 -4.835889e+00 -5.651375e+00 -5.391204e+00 -5.191025e+00 -4.954846e+00 -4.779503e+00 -4.603893e+00 -4.482697e+00 -4.364174e+00 -4.288963e+00 -4.215534e+00 -4.168668e+00 -4.126838e+00 -4.095642e+00 -4.074871e+00 -4.052485e+00 -4.045511e+00 -4.028672e+00 -4.030719e+00 -4.018229e+00 
-3.977467e+00 -3.967117e+00 -3.981076e+00 -3.976052e+00 -3.993279e+00 -3.996876e+00 -4.018414e+00 -4.036187e+00 -4.065149e+00 -4.105951e+00 -4.149239e+00 -4.226143e+00 -4.296918e+00 -4.424535e+00 -4.541286e+00 -4.721393e+00 -4.898084e+00 -5.097783e+00 -5.369764e+00 -4.743273e+00 1.840477e-01 8.186447e+00 1.280774e+01 1.349834e+01 1.354101e+01 1.373527e+01 1.388644e+01 1.394470e+01 1.398053e+01 1.399252e+01 1.403385e+01 1.405013e+01 1.406223e+01 1.404855e+01 1.403591e+01 1.398817e+01 1.398300e+01 1.394019e+01 1.388093e+01 1.373713e+01 1.352660e+01 1.350423e+01 1.288171e+01 8.467351e+00 3.148383e-01 -4.713928e+00 -5.368631e+00 -5.094198e+00 -4.886108e+00 -4.715450e+00 -4.533603e+00 -4.421125e+00 -4.293337e+00 -4.224709e+00 -4.147966e+00 -4.105530e+00 -4.064881e+00 -4.036151e+00 -4.018468e+00 -3.996930e+00 -3.993375e+00 -3.976097e+00 -3.981131e+00 -3.967132e+00 
-3.926693e+00 -3.913677e+00 -3.929384e+00 -3.920504e+00 -3.938241e+00 -3.936790e+00 -3.957488e+00 -3.969139e+00 -3.995788e+00 -4.029784e+00 -4.069543e+00 -4.139245e+00 -4.206492e+00 -4.323484e+00 -4.438436e+00 -4.593521e+00 -4.766825e+00 -4.967933e+00 -4.893142e+00 -6.843422e-01 7.904910e+00 1.274157e+01 1.328306e+01 1.344920e+01 1.356778e+01 1.366943e+01 1.374485e+01 1.386945e+01 1.397861e+01 1.407181e+01 1.414044e+01 1.417982e+01 1.419036e+01 1.417931e+01 1.414285e+01 1.407176e+01 1.398321e+01 1.387395e+01 1.374766e+01 1.367595e+01 1.356305e+01 1.345462e+01 1.328264e+01 1.277180e+01 7.993005e+00 -4.747599e-01 -4.852018e+00 -4.985245e+00 -4.773438e+00 -4.599395e+00 -4.440136e+00 -4.323212e+00 -4.205009e+00 -4.136795e+00 -4.067217e+00 -4.027100e+00 -3.993680e+00 -3.966962e+00 -3.955911e+00 -3.935281e+00 -3.937223e+00 -3.919634e+00 -3.928887e+00 -3.913394e+00 
-3.874916e+00 -3.858459e+00 -3.875987e+00 -3.862421e+00 -3.880612e+00 -3.873374e+00 -3.892917e+00 -3.898432e+00 -3.921757e+00 -3.951579e+00 -3.984461e+00 -4.057063e+00 -4.109269e+00 -4.242832e+00 -4.320036e+00 -4.505176e+00 -4.581223e+00 -4.798501e+00 -2.023349e+00 6.063933e+00 1.228688e+01 1.322565e+01 1.329135e+01 1.342451e+01 1.348152e+01 1.360745e+01 1.368123e+01 1.375682e+01 1.379721e+01 1.383759e+01 1.386100e+01 1.388244e+01 1.388374e+01 1.388167e+01 1.386104e+01 1.383550e+01 1.379580e+01 1.375424e+01 1.367543e+01 1.360527e+01 1.347061e+01 1.341786e+01 1.327675e+01 1.319985e+01 1.231508e+01 6.302664e+00 -1.904691e+00 -4.759608e+00 -4.552136e+00 -4.488755e+00 -4.310403e+00 -4.237757e+00 -4.107601e+00 -4.056166e+00 -3.985297e+00 -3.951897e+00 -3.922940e+00 -3.898893e+00 -3.893800e+00 -3.873692e+00 -3.881124e+00 -3.862581e+00 -3.876209e+00 -3.858506e+00 
-3.822646e+00 -3.803042e+00 -3.822611e+00 -3.804300e+00 -3.823079e+00 -3.809320e+00 -3.827748e+00 -3.824879e+00 -3.844616e+00 -3.864465e+00 -3.889457e+00 -3.950333e+00 -3.986633e+00 -4.096815e+00 -4.154904e+00 -4.235329e+00 -4.424768e+00 -3.486827e+00 3.341766e+00 1.106496e+01 1.307512e+01 1.309396e+01 1.326311e+01 1.335992e+01 1.347053e+01 1.356831e+01 1.364506e+01 1.374024e+01 1.380570e+01 1.387920e+01 1.391673e+01 1.395545e+01 1.395502e+01 1.395565e+01 1.391771e+01 1.388031e+01 1.380704e+01 1.374341e+01 1.364518e+01 1.357363e+01 1.346844e+01 1.336861e+01 1.326212e+01 1.311394e+01 1.307822e+01 1.122393e+01 3.588780e+00 -3.379597e+00 -4.467533e+00 -4.236474e+00 -4.156296e+00 -4.090000e+00 -3.981826e+00 -3.943414e+00 -3.885094e+00 -3.859351e+00 -3.841553e+00 -3.821529e+00 -3.825781e+00 -3.807293e+00 -3.821920e+00 -3.803224e+00 -3.822073e+00 -3.802705e+00 
-3.770976e+00 -3.746939e+00 -3.769009e+00 -3.744395e+00 -3.764281e+00 -3.741896e+00 -3.759990e+00 -3.745981e+00 -3.763549e+00 -3.771022e+00 -3.790451e+00 -3.843523e+00 -3.864460e+00 -3.987711e+00 -4.008487e+00 -4.155667e+00 -4.341927e+00 -1.168554e-01 8.699719e+00 1.284041e+01 1.295785e+01 1.313572e+01 1.320308e+01 1.333420e+01 1.339283e+01 1.350084e+01 1.354984e+01 1.362839e+01 1.365701e+01 1.370887e+01 1.371876e+01 1.374914e+01 1.373915e+01 1.374875e+01 1.371799e+01 1.370780e+01 1.365466e+01 1.362694e+01 1.354470e+01 1.349937e+01 1.338424e+01 1.333261e+01 1.319035e+01 1.313796e+01 1.293621e+01 1.288533e+01 8.835573e+00 4.596935e-02 -4.302122e+00 -4.140205e+00 -4.006546e+00 -3.987362e+00 -3.869477e+00 -3.845769e+00 -3.795249e+00 -3.772955e+00 -3.766684e+00 -3.747131e+00 -3.761717e+00 -3.742463e+00 -3.765119e+00 -3.744630e+00 -3.769335e+00 -3.747000e+00 
-3.720788e+00 -3.693239e+00 -3.717630e+00 -3.687591e+00 -3.708473e+00 -3.678307e+00 -3.696038e+00 -3.671479e+00 -3.686468e+00 -3.681213e+00 -3.691416e+00 -3.735350e+00 -3.718266e+00 -3.865957e+00 -3.718304e+00 -4.079568e+00 -3.176167e+00 4.131310e+00 1.176638e+01 1.293441e+01 1.291433e+01 1.309297e+01 1.318286e+01 1.330346e+01 1.338559e+01 1.348749e+01 1.354714e+01 1.363489e+01 1.367500e+01 1.374229e+01 1.375846e+01 1.379934e+01 1.378730e+01 1.379958e+01 1.375849e+01 1.374316e+01 1.367463e+01 1.363672e+01 1.354570e+01 1.349047e+01 1.338298e+01 1.330801e+01 1.318104e+01 1.309972e+01 1.291894e+01 1.293714e+01 1.184733e+01 4.466615e+00 -3.010296e+00 -4.071252e+00 -3.685054e+00 -3.844608e+00 -3.702489e+00 -3.721464e+00 -3.683790e+00 -3.673534e+00 -3.682562e+00 -3.667344e+00 -3.693940e+00 -3.676118e+00 -3.707357e+00 -3.686524e+00 -3.717139e+00 -3.692919e+00 
-3.672895e+00 -3.640317e+00 -3.667748e+00 -3.630252e+00 -3.652977e+00 -3.611606e+00 -3.630378e+00 -3.588656e+00 -3.604386e+00 -3.572845e+00 -3.583695e+00 -3.590914e+00 -3.566260e+00 -3.689095e+00 -3.449245e+00 -3.996508e+00 -2.943346e-01 8.426293e+00 1.282395e+01 1.272749e+01 1.295541e+01 1.302937e+01 1.314376e+01 1.325067e+01 1.331556e+01 1.341651e+01 1.345477e+01 1.353614e+01 1.355317e+01 1.361254e+01 1.361079e+01 1.364982e+01 1.362956e+01 1.364967e+01 1.360998e+01 1.361212e+01 1.355118e+01 1.353564e+01 1.345120e+01 1.341618e+01 1.331035e+01 1.325061e+01 1.313762e+01 1.302913e+01 1.295132e+01 1.271882e+01 1.283426e+01 8.605723e+00 -2.384984e-01 -4.054979e+00 -3.485717e+00 -3.706111e+00 -3.584211e+00 -3.598349e+00 -3.593104e+00 -3.576310e+00 -3.608891e+00 -3.590104e+00 -3.632342e+00 -3.612129e+00 -3.653753e+00 -3.630404e+00 -3.668002e+00 -3.640344e+00 
-3.628593e+00 -3.592415e+00 -3.622184e+00 -3.578980e+00 -3.603107e+00 -3.553030e+00 -3.573033e+00 -3.517888e+00 -3.536540e+00 -3.483341e+00 -3.504893e+00 -3.474188e+00 -3.487925e+00 -3.534040e+00 -3.422091e+00 -3.713742e+00 2.540791e+00 1.111351e+01 1.296970e+01 1.267640e+01 1.296997e+01 1.301774e+01 1.314325e+01 1.324976e+01 1.332079e+01 1.342571e+01 1.346836e+01 1.355767e+01 1.357906e+01 1.364775e+01 1.364794e+01 1.369380e+01 1.367120e+01 1.369390e+01 1.364744e+01 1.364804e+01 1.357773e+01 1.355814e+01 1.346566e+01 1.342614e+01 1.331597e+01 1.324982e+01 1.313508e+01 1.301718e+01 1.295449e+01 1.267681e+01 1.293155e+01 1.125695e+01 2.834148e+00 -3.545185e+00 -3.374379e+00 -3.476702e+00 -3.468967e+00 -3.453636e+00 -3.497676e+00 -3.475282e+00 -3.533436e+00 -3.514399e+00 -3.571540e+00 -3.551446e+00 -3.602368e+00 -3.578287e+00 -3.621872e+00 -3.592219e+00 
-3.588114e+00 -3.547135e+00 -3.579993e+00 -3.529414e+00 -3.555602e+00 -3.493751e+00 -3.515511e+00 -3.440087e+00 -3.462397e+00 -3.370018e+00 -3.407045e+00 -3.287805e+00 -3.373119e+00 -3.170516e+00 -3.382951e+00 -2.312556e+00 5.827471e+00 1.220972e+01 1.273578e+01 1.269747e+01 1.288591e+01 1.298468e+01 1.307864e+01 1.319979e+01 1.324997e+01 1.335990e+01 1.338460e+01 1.347367e+01 1.347887e+01 1.354603e+01 1.353389e+01 1.358109e+01 1.355178e+01 1.358111e+01 1.353339e+01 1.354614e+01 1.347779e+01 1.347404e+01 1.338291e+01 1.336091e+01 1.324781e+01 1.320208e+01 1.307626e+01 1.298989e+01 1.288278e+01 1.270946e+01 1.272338e+01 1.226699e+01 6.002492e+00 -2.208813e+00 -3.427256e+00 -3.175865e+00 -3.394535e+00 -3.292728e+00 -3.415904e+00 -3.372025e+00 -3.465421e+00 -3.440510e+00 -3.516273e+00 -3.493646e+00 -3.555643e+00 -3.529240e+00 -3.579912e+00 -3.547063e+00 
-3.552886e+00 -3.508709e+00 -3.543310e+00 -3.487508e+00 -3.514514e+00 -3.444416e+00 -3.466680e+00 -3.377927e+00 -3.402356e+00 -3.287113e+00 -3.336126e+00 -3.173494e+00 -3.313792e+00 -3.006335e+00 -3.441883e+00 -1.054975e+00 8.463973e+00 1.278368e+01 1.253414e+01 1.283493e+01 1.284495e+01 1.303602e+01 1.307777e+01 1.322993e+01 1.326470e+01 1.338855e+01 1.340931e+01 1.350756e+01 1.351243e+01 1.358681e+01 1.357426e+01 1.362643e+01 1.359467e+01 1.362638e+01 1.357356e+01 1.358661e+01 1.351082e+01 1.350700e+01 1.340631e+01 1.338710e+01 1.325936e+01 1.322629e+01 1.306776e+01 1.302693e+01 1.282402e+01 1.281059e+01 1.248548e+01 1.270583e+01 8.617412e+00 -7.769143e-01 -3.403525e+00 -2.982930e+00 -3.306516e+00 -3.167102e+00 -3.334686e+00 -3.285281e+00 -3.401937e+00 -3.377462e+00 -3.466515e+00 -3.444386e+00 -3.514446e+00 -3.487570e+00 -3.543284e+00 -3.508739e+00 
-3.522756e+00 -3.474956e+00 -3.512036e+00 -3.450605e+00 -3.478830e+00 -3.400053e+00 -3.421856e+00 -3.319544e+00 -3.340223e+00 -3.204110e+00 -3.241436e+00 -3.051085e+00 -3.154800e+00 -2.830374e+00 -3.119481e+00 4.536778e-01 9.923327e+00 1.269852e+01 1.240504e+01 1.280139e+01 1.276620e+01 1.299717e+01 1.301335e+01 1.318144e+01 1.319900e+01 1.332899e+01 1.333606e+01 1.343609e+01 1.342962e+01 1.350472e+01 1.348368e+01 1.353806e+01 1.350129e+01 1.353821e+01 1.348361e+01 1.350521e+01 1.342957e+01 1.343711e+01 1.333628e+01 1.333090e+01 1.320001e+01 1.318503e+01 1.301615e+01 1.300470e+01 1.277313e+01 1.282099e+01 1.242537e+01 1.276596e+01 1.027479e+01 7.893621e-01 -3.160297e+00 -2.843599e+00 -3.165259e+00 -3.053586e+00 -3.241810e+00 -3.203107e+00 -3.338288e+00 -3.318083e+00 -3.420011e+00 -3.398948e+00 -3.477585e+00 -3.449959e+00 -3.511426e+00 -3.474745e+00 
-3.498911e+00 -3.448817e+00 -3.486521e+00 -3.421204e+00 -3.448724e+00 -3.363842e+00 -3.382777e+00 -3.271508e+00 -3.284870e+00 -3.138080e+00 -3.157917e+00 -2.965467e+00 -3.023534e+00 -2.746756e+00 -2.880525e+00 2.017539e+00 1.131945e+01 1.271652e+01 1.246781e+01 1.285724e+01 1.278817e+01 1.304392e+01 1.303533e+01 1.322165e+01 1.322734e+01 1.336877e+01 1.337131e+01 1.347901e+01 1.347121e+01 1.355172e+01 1.352987e+01 1.358770e+01 1.354901e+01 1.358757e+01 1.352921e+01 1.355127e+01 1.346983e+01 1.347805e+01 1.336910e+01 1.336689e+01 1.322413e+01 1.321809e+01 1.303080e+01 1.303748e+01 1.278187e+01 1.284705e+01 1.246040e+01 1.270967e+01 1.142563e+01 2.181874e+00 -2.957550e+00 -2.788637e+00 -3.050306e+00 -2.983719e+00 -3.167418e+00 -3.146155e+00 -3.288471e+00 -3.275383e+00 -3.384324e+00 -3.365829e+00 -3.449438e+00 -3.422170e+00 -3.486808e+00 -3.449107e+00 
-3.481305e+00 -3.429262e+00 -3.468612e+00 -3.400308e+00 -3.428330e+00 -3.339358e+00 -3.356615e+00 -3.240787e+00 -3.247431e+00 -3.099780e+00 -3.100774e+00 -2.928434e+00 -2.937026e+00 -2.758872e+00 -2.754337e+00 2.965449e+00 1.193274e+01 1.263025e+01 1.247234e+01 1.280866e+01 1.274995e+01 1.300083e+01 1.298579e+01 1.317446e+01 1.317145e+01 1.331451e+01 1.330883e+01 1.341698e+01 1.340214e+01 1.348303e+01 1.345591e+01 1.351525e+01 1.347349e+01 1.351547e+01 1.345617e+01 1.348373e+01 1.340286e+01 1.341827e+01 1.331041e+01 1.331647e+01 1.317458e+01 1.317696e+01 1.299141e+01 1.300293e+01 1.275928e+01 1.280691e+01 1.248689e+01 1.261149e+01 1.201768e+01 3.275542e+00 -2.700550e+00 -2.749245e+00 -2.916841e+00 -2.923721e+00 -3.089437e+00 -3.095739e+00 -3.240281e+00 -3.237791e+00 -3.352286e+00 -3.337456e+00 -3.425905e+00 -3.399279e+00 -3.467526e+00 -3.428938e+00 
-3.470623e+00 -3.417488e+00 -3.456441e+00 -3.386130e+00 -3.412664e+00 -3.320332e+00 -3.333787e+00 -3.212947e+00 -3.210290e+00 -3.057457e+00 -3.035361e+00 -2.866984e+00 -2.814519e+00 -2.686475e+00 -2.501915e+00 3.722197e+00 1.227555e+01 1.257690e+01 1.254493e+01 1.282795e+01 1.279203e+01 1.303819e+01 1.302249e+01 1.321669e+01 1.321102e+01 1.336004e+01 1.335349e+01 1.346634e+01 1.345187e+01 1.353603e+01 1.350927e+01 1.357037e+01 1.352794e+01 1.357021e+01 1.350870e+01 1.353550e+01 1.345081e+01 1.346532e+01 1.335213e+01 1.335828e+01 1.320994e+01 1.321389e+01 1.302318e+01 1.303427e+01 1.279858e+01 1.282420e+01 1.256910e+01 1.257936e+01 1.239303e+01 4.011742e+00 -2.548648e+00 -2.757291e+00 -2.845154e+00 -2.901658e+00 -3.049814e+00 -3.073142e+00 -3.216494e+00 -3.220194e+00 -3.336547e+00 -3.323825e+00 -3.413925e+00 -3.387741e+00 -3.456941e+00 -3.417958e+00 
-3.467025e+00 -3.413578e+00 -3.453553e+00 -3.382930e+00 -3.410368e+00 -3.318101e+00 -3.332263e+00 -3.212895e+00 -3.210567e+00 -3.063787e+00 -3.041380e+00 -2.893060e+00 -2.837785e+00 -2.769844e+00 -2.562529e+00 3.880879e+00 1.236680e+01 1.254330e+01 1.253039e+01 1.279268e+01 1.275815e+01 1.299821e+01 1.298075e+01 1.317200e+01 1.316354e+01 1.331024e+01 1.330032e+01 1.341122e+01 1.339342e+01 1.347638e+01 1.344710e+01 1.350823e+01 1.346470e+01 1.350847e+01 1.344750e+01 1.347714e+01 1.339443e+01 1.341255e+01 1.330238e+01 1.331208e+01 1.316737e+01 1.317368e+01 1.298712e+01 1.299735e+01 1.276757e+01 1.278242e+01 1.254186e+01 1.250623e+01 1.240080e+01 4.195577e+00 -2.496454e+00 -2.759853e+00 -2.808926e+00 -2.887355e+00 -3.026082e+00 -3.059080e+00 -3.201535e+00 -3.209466e+00 -3.327001e+00 -3.315937e+00 -3.407488e+00 -3.381765e+00 -3.452280e+00 -3.413212e+00 