# vtk DataFile Version 2.0
Comment goes here
ASCII

DATASET STRUCTURED_POINTS
FIELD FieldData 1
TIME 1 1 double
0.84000000
DIMENSIONS    64   64   1

ORIGIN    0.000   0.000   0.000
SPACING   0.015625 0.015625   1.000

POINT_DATA   4096
SCALARS P double
LOOKUP_TABLE default

-4.302066e+00 -4.307575e+00 -4.308080e+00 -4.320037e+00 -4.326625e+00 -4.345148e+00 -4.357774e+00 -4.382925e+00 -4.401579e+00 -4.433285e+00 -4.457961e+00 -4.495908e+00 -4.526533e+00 -4.570030e+00 -4.606355e+00 -4.654171e+00 -4.695626e+00 -4.745845e+00 -4.791383e+00 -4.841333e+00 -4.889305e+00 -4.935699e+00 -4.983836e+00 -5.023226e+00 -5.068780e+00 -5.098288e+00 -5.138376e+00 -5.156381e+00 -5.188546e+00 -5.194959e+00 -5.217777e+00 -5.213998e+00 -5.227022e+00 -5.214699e+00 -5.217347e+00 -5.197009e+00 -5.188103e+00 -5.159545e+00 -5.138433e+00 -5.102106e+00 -5.069685e+00 -5.027191e+00 -4.985633e+00 -4.939431e+00 -4.891802e+00 -4.844644e+00 -4.794291e+00 -4.748698e+00 -4.698663e+00 -4.656602e+00 -4.609292e+00 -4.572090e+00 -4.529206e+00 -4.497635e+00 -4.460266e+00 -4.434699e+00 -4.403455e+00 -4.384031e+00 -4.359192e+00 -4.345943e+00 -4.327573e+00 -4.320516e+00 -4.308554e+00 -4.307735e+00 
-4.305286e+00 -4.310078e+00 -4.311053e+00 -4.322231e+00 -4.329206e+00 -4.346872e+00 -4.359771e+00 -4.383959e+00 -4.402723e+00 -4.433327e+00 -4.457866e+00 -4.494531e+00 -4.524651e+00 -4.566629e+00 -4.601906e+00 -4.647889e+00 -4.687510e+00 -4.735459e+00 -4.778072e+00 -4.825126e+00 -4.868751e+00 -4.911367e+00 -4.953511e+00 -4.987992e+00 -5.026052e+00 -5.049559e+00 -5.081500e+00 -5.093242e+00 -5.118220e+00 -5.119917e+00 -5.138166e+00 -5.132507e+00 -5.144173e+00 -5.133143e+00 -5.137629e+00 -5.121836e+00 -5.117751e+00 -5.096452e+00 -5.082004e+00 -5.053951e+00 -5.028207e+00 -4.993217e+00 -4.957363e+00 -4.916973e+00 -4.873863e+00 -4.830721e+00 -4.783840e+00 -4.740773e+00 -4.693386e+00 -4.652751e+00 -4.607472e+00 -4.570936e+00 -4.529632e+00 -4.498219e+00 -4.462099e+00 -4.436360e+00 -4.406126e+00 -4.386321e+00 -4.362318e+00 -4.348556e+00 -4.330895e+00 -4.323239e+00 -4.311894e+00 -4.310414e+00 
-4.295911e+00 -4.301363e+00 -4.301923e+00 -4.313837e+00 -4.320475e+00 -4.339001e+00 -4.351676e+00 -4.376919e+00 -4.395643e+00 -4.427584e+00 -4.452382e+00 -4.490767e+00 -4.521606e+00 -4.565798e+00 -4.602468e+00 -4.651274e+00 -4.693241e+00 -4.744737e+00 -4.790985e+00 -4.842426e+00 -4.891352e+00 -4.939306e+00 -4.988707e+00 -5.029550e+00 -5.076727e+00 -5.107451e+00 -5.149399e+00 -5.168298e+00 -5.202144e+00 -5.208858e+00 -5.232761e+00 -5.228767e+00 -5.242317e+00 -5.229565e+00 -5.232250e+00 -5.211184e+00 -5.201616e+00 -5.171846e+00 -5.149409e+00 -5.111610e+00 -5.077659e+00 -5.033721e+00 -4.990594e+00 -4.943109e+00 -4.893965e+00 -4.845724e+00 -4.794005e+00 -4.747543e+00 -4.696368e+00 -4.653659e+00 -4.605469e+00 -4.567824e+00 -4.524320e+00 -4.492474e+00 -4.454710e+00 -4.428989e+00 -4.397529e+00 -4.378022e+00 -4.353097e+00 -4.339796e+00 -4.321422e+00 -4.314318e+00 -4.302397e+00 -4.301524e+00 
-4.293101e+00 -4.297786e+00 -4.298883e+00 -4.309994e+00 -4.317097e+00 -4.334796e+00 -4.347847e+00 -4.372255e+00 -4.391242e+00 -4.422361e+00 -4.447269e+00 -4.484867e+00 -4.515592e+00 -4.559043e+00 -4.595251e+00 -4.643338e+00 -4.684286e+00 -4.734974e+00 -4.779330e+00 -4.829611e+00 -4.875348e+00 -4.921305e+00 -4.965800e+00 -5.003117e+00 -5.043544e+00 -5.068644e+00 -5.102696e+00 -5.114452e+00 -5.141191e+00 -5.142272e+00 -5.162170e+00 -5.155797e+00 -5.168553e+00 -5.156569e+00 -5.161300e+00 -5.144520e+00 -5.140178e+00 -5.118095e+00 -5.102788e+00 -5.073560e+00 -5.045753e+00 -5.008823e+00 -4.970073e+00 -4.927254e+00 -4.881001e+00 -4.835412e+00 -4.785588e+00 -4.740401e+00 -4.690531e+00 -4.648262e+00 -4.601061e+00 -4.563384e+00 -4.520712e+00 -4.488572e+00 -4.451567e+00 -4.425400e+00 -4.394665e+00 -4.374614e+00 -4.350389e+00 -4.336474e+00 -4.318773e+00 -4.310997e+00 -4.299715e+00 -4.298119e+00 
-4.277443e+00 -4.282705e+00 -4.283438e+00 -4.295196e+00 -4.301972e+00 -4.320469e+00 -4.333273e+00 -4.358744e+00 -4.377651e+00 -4.410243e+00 -4.435375e+00 -4.475021e+00 -4.506467e+00 -4.552716e+00 -4.590390e+00 -4.642179e+00 -4.685650e+00 -4.741058e+00 -4.789398e+00 -4.845467e+00 -4.897194e+00 -4.950021e+00 -5.003179e+00 -5.048530e+00 -5.100715e+00 -5.135201e+00 -5.183157e+00 -5.205025e+00 -5.244339e+00 -5.251888e+00 -5.279005e+00 -5.274073e+00 -5.289130e+00 -5.275175e+00 -5.278189e+00 -5.255132e+00 -5.243541e+00 -5.209900e+00 -5.183016e+00 -5.140492e+00 -5.101759e+00 -5.053331e+00 -5.005383e+00 -4.953997e+00 -4.900195e+00 -4.848679e+00 -4.792775e+00 -4.743696e+00 -4.689056e+00 -4.644411e+00 -4.593582e+00 -4.554639e+00 -4.509297e+00 -4.476674e+00 -4.437763e+00 -4.411625e+00 -4.379563e+00 -4.359843e+00 -4.334700e+00 -4.321267e+00 -4.302918e+00 -4.295680e+00 -4.283908e+00 -4.282868e+00 
-4.268694e+00 -4.273132e+00 -4.274483e+00 -4.285404e+00 -4.292745e+00 -4.310433e+00 -4.323746e+00 -4.348494e+00 -4.367864e+00 -4.399898e+00 -4.425465e+00 -4.464816e+00 -4.496671e+00 -4.542990e+00 -4.581003e+00 -4.633302e+00 -4.676894e+00 -4.733221e+00 -4.781122e+00 -4.838246e+00 -4.888352e+00 -4.941638e+00 -4.991074e+00 -5.034827e+00 -5.080275e+00 -5.108918e+00 -5.147293e+00 -5.158157e+00 -5.188216e+00 -5.187582e+00 -5.211261e+00 -5.203631e+00 -5.218873e+00 -5.204775e+00 -5.209637e+00 -5.190621e+00 -5.185829e+00 -5.162730e+00 -5.146272e+00 -5.115052e+00 -5.082722e+00 -5.041613e+00 -4.996459e+00 -4.948287e+00 -4.895279e+00 -4.844426e+00 -4.788439e+00 -4.738841e+00 -4.683885e+00 -4.638329e+00 -4.587277e+00 -4.547388e+00 -4.502040e+00 -4.468549e+00 -4.429865e+00 -4.402942e+00 -4.371300e+00 -4.350843e+00 -4.326260e+00 -4.312095e+00 -4.294387e+00 -4.286394e+00 -4.275292e+00 -4.273460e+00 
-4.246673e+00 -4.251562e+00 -4.252602e+00 -4.264001e+00 -4.270993e+00 -4.289303e+00 -4.302267e+00 -4.327948e+00 -4.347066e+00 -4.380552e+00 -4.406123e+00 -4.447688e+00 -4.480027e+00 -4.529578e+00 -4.568827e+00 -4.625604e+00 -4.671504e+00 -4.733688e+00 -4.785394e+00 -4.849720e+00 -4.905871e+00 -4.967531e+00 -5.026691e+00 -5.080057e+00 -5.140957e+00 -5.181873e+00 -5.241582e+00 -5.269899e+00 -5.320198e+00 -5.328767e+00 -5.360674e+00 -5.352571e+00 -5.369598e+00 -5.354208e+00 -5.359040e+00 -5.333838e+00 -5.318931e+00 -5.277719e+00 -5.241128e+00 -5.189472e+00 -5.142321e+00 -5.085915e+00 -5.029618e+00 -4.971617e+00 -4.909661e+00 -4.852615e+00 -4.789437e+00 -4.735946e+00 -4.675392e+00 -4.627550e+00 -4.572327e+00 -4.531334e+00 -4.483029e+00 -4.449264e+00 -4.408590e+00 -4.381912e+00 -4.349001e+00 -4.329050e+00 -4.303689e+00 -4.290112e+00 -4.271926e+00 -4.264494e+00 -4.253063e+00 -4.251728e+00 
-4.232041e+00 -4.236026e+00 -4.237785e+00 -4.248278e+00 -4.255940e+00 -4.273407e+00 -4.287008e+00 -4.312010e+00 -4.331786e+00 -4.364895e+00 -4.391235e+00 -4.432909e+00 -4.466236e+00 -4.516611e+00 -4.557163e+00 -4.615726e+00 -4.663235e+00 -4.728356e+00 -4.781708e+00 -4.850055e+00 -4.907079e+00 -4.973122e+00 -5.030633e+00 -5.086488e+00 -5.140412e+00 -5.176114e+00 -5.221314e+00 -5.226835e+00 -5.260385e+00 -5.255772e+00 -5.287206e+00 -5.279146e+00 -5.299373e+00 -5.281260e+00 -5.284363e+00 -5.260465e+00 -5.255033e+00 -5.232789e+00 -5.217523e+00 -5.184683e+00 -5.143841e+00 -5.095252e+00 -5.038586e+00 -4.980815e+00 -4.916422e+00 -4.856675e+00 -4.790773e+00 -4.734166e+00 -4.671334e+00 -4.620860e+00 -4.564059e+00 -4.521075e+00 -4.471894e+00 -4.436670e+00 -4.395712e+00 -4.367933e+00 -4.335184e+00 -4.314331e+00 -4.289438e+00 -4.275034e+00 -4.257500e+00 -4.249239e+00 -4.238546e+00 -4.236343e+00 
-4.203703e+00 -4.207943e+00 -4.209463e+00 -4.220150e+00 -4.227409e+00 -4.245167e+00 -4.258230e+00 -4.283838e+00 -4.303042e+00 -4.337353e+00 -4.363272e+00 -4.407085e+00 -4.440403e+00 -4.494237e+00 -4.535491e+00 -4.599198e+00 -4.648397e+00 -4.720565e+00 -4.776830e+00 -4.854006e+00 -4.915737e+00 -4.991670e+00 -5.058015e+00 -5.123790e+00 -5.196897e+00 -5.245454e+00 -5.326548e+00 -5.370371e+00 -5.442611e+00 -5.451138e+00 -5.485942e+00 -5.466478e+00 -5.483306e+00 -5.468702e+00 -5.481916e+00 -5.459238e+00 -5.441010e+00 -5.384643e+00 -5.325346e+00 -5.257341e+00 -5.199189e+00 -5.130942e+00 -5.062498e+00 -4.995335e+00 -4.920951e+00 -4.856019e+00 -4.781933e+00 -4.722095e+00 -4.652973e+00 -4.600705e+00 -4.539383e+00 -4.495788e+00 -4.443589e+00 -4.408596e+00 -4.365796e+00 -4.338716e+00 -4.304967e+00 -4.284965e+00 -4.259616e+00 -4.246002e+00 -4.228304e+00 -4.220660e+00 -4.209902e+00 -4.208114e+00 
-4.183232e+00 -4.186457e+00 -4.188815e+00 -4.198466e+00 -4.206491e+00 -4.223284e+00 -4.237071e+00 -4.261920e+00 -4.281905e+00 -4.315855e+00 -4.342786e+00 -4.386907e+00 -4.421725e+00 -4.476914e+00 -4.520472e+00 -4.587088e+00 -4.639689e+00 -4.716926e+00 -4.777777e+00 -4.862719e+00 -4.929601e+00 -5.016135e+00 -5.085649e+00 -5.163682e+00 -5.231424e+00 -5.284849e+00 -5.340626e+00 -5.322485e+00 -5.352303e+00 -5.339635e+00 -5.390101e+00 -5.389669e+00 -5.421461e+00 -5.394699e+00 -5.386302e+00 -5.348063e+00 -5.340651e+00 -5.329128e+00 -5.329149e+00 -5.298760e+00 -5.238902e+00 -5.175890e+00 -5.099443e+00 -5.024931e+00 -4.943070e+00 -4.869516e+00 -4.789276e+00 -4.722775e+00 -4.649110e+00 -4.592293e+00 -4.528001e+00 -4.481448e+00 -4.427588e+00 -4.390693e+00 -4.347218e+00 -4.318863e+00 -4.285137e+00 -4.264175e+00 -4.239308e+00 -4.224838e+00 -4.207892e+00 -4.199373e+00 -4.189488e+00 -4.186754e+00 
-4.148843e+00 -4.152028e+00 -4.154256e+00 -4.163669e+00 -4.171216e+00 -4.187765e+00 -4.200738e+00 -4.225602e+00 -4.244534e+00 -4.279115e+00 -4.304967e+00 -4.350800e+00 -4.384849e+00 -4.443400e+00 -4.486896e+00 -4.559146e+00 -4.612630e+00 -4.698273e+00 -4.760597e+00 -4.856702e+00 -4.924552e+00 -5.023366e+00 -5.094374e+00 -5.179467e+00 -5.263602e+00 -5.308118e+00 -5.428490e+00 -5.520344e+00 -5.645026e+00 -5.648037e+00 -5.667767e+00 -5.605449e+00 -5.608565e+00 -5.607243e+00 -5.655586e+00 -5.659595e+00 -5.645799e+00 -5.550334e+00 -5.424459e+00 -5.327427e+00 -5.268711e+00 -5.186903e+00 -5.102020e+00 -5.024813e+00 -4.932055e+00 -4.856655e+00 -4.767166e+00 -4.698591e+00 -4.618032e+00 -4.560120e+00 -4.491171e+00 -4.444801e+00 -4.388149e+00 -4.352330e+00 -4.307462e+00 -4.280548e+00 -4.246370e+00 -4.226797e+00 -4.202026e+00 -4.188647e+00 -4.172033e+00 -4.164205e+00 -4.154652e+00 -4.152208e+00 
-4.122630e+00 -4.124642e+00 -4.127852e+00 -4.136017e+00 -4.144404e+00 -4.159742e+00 -4.173447e+00 -4.197299e+00 -4.216983e+00 -4.250979e+00 -4.277865e+00 -4.323868e+00 -4.359659e+00 -4.419643e+00 -4.466205e+00 -4.541947e+00 -4.600595e+00 -4.692942e+00 -4.763396e+00 -4.870779e+00 -4.950381e+00 -5.066766e+00 -5.151637e+00 -5.266848e+00 -5.357154e+00 -5.474344e+00 -5.550746e+00 -5.430998e+00 -5.414504e+00 -5.392968e+00 -5.506334e+00 -5.553749e+00 -5.619367e+00 -5.568945e+00 -5.506665e+00 -5.411862e+00 -5.389816e+00 -5.430729e+00 -5.514511e+00 -5.502443e+00 -5.381246e+00 -5.284056e+00 -5.177737e+00 -5.075115e+00 -4.969528e+00 -4.876628e+00 -4.777393e+00 -4.698481e+00 -4.611123e+00 -4.547218e+00 -4.474110e+00 -4.424292e+00 -4.365459e+00 -4.327676e+00 -4.281993e+00 -4.253909e+00 -4.219825e+00 -4.199419e+00 -4.175316e+00 -4.161158e+00 -4.145529e+00 -4.136824e+00 -4.128379e+00 -4.124903e+00 
-4.082787e+00 -4.084336e+00 -4.087588e+00 -4.094900e+00 -4.102739e+00 -4.117049e+00 -4.129586e+00 -4.152533e+00 -4.170500e+00 -4.204132e+00 -4.228988e+00 -4.275762e+00 -4.309690e+00 -4.372394e+00 -4.417968e+00 -4.499395e+00 -4.558488e+00 -4.660505e+00 -4.731780e+00 -4.853564e+00 -4.928220e+00 -5.063496e+00 -5.125835e+00 -5.252495e+00 -5.319732e+00 -5.271750e+00 -5.462909e+00 -5.741143e+00 -6.029803e+00 -6.004973e+00 -5.925003e+00 -5.699758e+00 -5.631903e+00 -5.697256e+00 -5.881391e+00 -6.011715e+00 -6.051152e+00 -5.819337e+00 -5.445108e+00 -5.298090e+00 -5.332670e+00 -5.253183e+00 -5.138203e+00 -5.057606e+00 -4.938308e+00 -4.849317e+00 -4.739857e+00 -4.659209e+00 -4.564607e+00 -4.500019e+00 -4.422435e+00 -4.373906e+00 -4.312901e+00 -4.277505e+00 -4.231279e+00 -4.205748e+00 -4.172112e+00 -4.153849e+00 -4.130680e+00 -4.117997e+00 -4.103417e+00 -4.095465e+00 -4.087912e+00 -4.084524e+00 
-4.051066e+00 -4.051222e+00 -4.055639e+00 -4.061387e+00 -4.070118e+00 -4.082827e+00 -4.095995e+00 -4.117480e+00 -4.135946e+00 -4.168486e+00 -4.194024e+00 -4.240392e+00 -4.275773e+00 -4.339275e+00 -4.387969e+00 -4.472324e+00 -4.537340e+00 -4.645878e+00 -4.727348e+00 -4.860598e+00 -4.953141e+00 -5.103617e+00 -5.198501e+00 -5.341291e+00 -5.474075e+00 -5.903461e+00 -5.975787e+00 -5.011785e+00 -3.347528e+00 -1.038687e+00 7.100475e-01 1.938415e+00 2.426426e+00 2.036886e+00 9.023256e-01 -8.550148e-01 -3.059196e+00 -4.816196e+00 -5.817654e+00 -5.971582e+00 -5.565998e+00 -5.358905e+00 -5.243247e+00 -5.103899e+00 -4.975086e+00 -4.862721e+00 -4.741741e+00 -4.650826e+00 -4.547978e+00 -4.477926e+00 -4.395668e+00 -4.344207e+00 -4.281030e+00 -4.244221e+00 -4.197427e+00 -4.171235e+00 -4.138056e+00 -4.119336e+00 -4.097247e+00 -4.083992e+00 -4.070809e+00 -4.062021e+00 -4.055944e+00 -4.051422e+00 
-4.006814e+00 -4.005927e+00 -4.010655e+00 -4.014733e+00 -4.022890e+00 -4.033515e+00 -4.045117e+00 -4.064396e+00 -4.080286e+00 -4.110932e+00 -4.133084e+00 -4.178554e+00 -4.210367e+00 -4.275017e+00 -4.321252e+00 -4.410163e+00 -4.475739e+00 -4.593321e+00 -4.679090e+00 -4.826795e+00 -4.916041e+00 -5.097122e+00 -5.126709e+00 -5.442737e+00 -5.153984e+00 -3.208781e+00 5.619733e-01 5.334300e+00 8.723045e+00 1.160885e+01 1.338572e+01 1.410113e+01 1.444520e+01 1.418185e+01 1.349639e+01 1.183711e+01 9.212469e+00 5.815224e+00 1.071679e+00 -3.109288e+00 -5.146468e+00 -5.417941e+00 -5.141213e+00 -5.073854e+00 -4.926555e+00 -4.816010e+00 -4.687773e+00 -4.590974e+00 -4.481969e+00 -4.411310e+00 -4.325415e+00 -4.277230e+00 -4.213099e+00 -4.180825e+00 -4.134890e+00 -4.112867e+00 -4.081482e+00 -4.065870e+00 -4.045890e+00 -4.034523e+00 -4.023351e+00 -4.015312e+00 -4.010871e+00 -4.006115e+00 
-3.970071e+00 -3.967485e+00 -3.973626e+00 -3.975702e+00 -3.984800e+00 -3.993276e+00 -4.005304e+00 -4.022479e+00 -4.038346e+00 -4.067141e+00 -4.089118e+00 -4.133194e+00 -4.165365e+00 -4.229296e+00 -4.277446e+00 -4.366733e+00 -4.436351e+00 -4.556644e+00 -4.647895e+00 -4.803736e+00 -4.905806e+00 -5.097977e+00 -5.094726e+00 -3.926191e+00 1.698682e-01 6.265837e+00 1.082397e+01 1.387351e+01 1.471031e+01 1.482425e+01 1.500373e+01 1.477477e+01 1.483020e+01 1.478373e+01 1.496020e+01 1.486676e+01 1.477147e+01 1.398327e+01 1.116688e+01 6.733766e+00 1.080214e+00 -3.501457e+00 -5.097308e+00 -5.071953e+00 -4.914159e+00 -4.800354e+00 -4.657793e+00 -4.562475e+00 -4.445801e+00 -4.373713e+00 -4.284269e+00 -4.234835e+00 -4.169411e+00 -4.136955e+00 -4.091181e+00 -4.069476e+00 -4.039248e+00 -4.023833e+00 -4.005617e+00 -3.994009e+00 -3.984863e+00 -3.976052e+00 -3.973620e+00 -3.967588e+00 
-3.922995e+00 -3.918607e+00 -3.925475e+00 -3.924862e+00 -3.933481e+00 -3.938553e+00 -3.948664e+00 -3.961944e+00 -3.974237e+00 -3.999005e+00 -4.015710e+00 -4.056269e+00 -4.081929e+00 -4.143979e+00 -4.185864e+00 -4.276433e+00 -4.344044e+00 -4.468869e+00 -4.575554e+00 -4.732722e+00 -4.887651e+00 -4.839085e+00 -2.286642e+00 3.892785e+00 9.850043e+00 1.354929e+01 1.439575e+01 1.441892e+01 1.429690e+01 1.411729e+01 1.426311e+01 1.421430e+01 1.431297e+01 1.422626e+01 1.424905e+01 1.413404e+01 1.424745e+01 1.438176e+01 1.441368e+01 1.381546e+01 1.063706e+01 4.454518e+00 -1.844974e+00 -4.682319e+00 -4.898399e+00 -4.719832e+00 -4.584513e+00 -4.469524e+00 -4.349302e+00 -4.280100e+00 -4.188832e+00 -4.147750e+00 -4.083579e+00 -4.059385e+00 -4.016649e+00 -4.001327e+00 -3.974782e+00 -3.963539e+00 -3.948972e+00 -3.939556e+00 -3.933640e+00 -3.925403e+00 -3.925541e+00 -3.918777e+00 
-3.882078e+00 -3.875569e+00 -3.884197e+00 -3.880996e+00 -3.890656e+00 -3.892859e+00 -3.903146e+00 -3.913506e+00 -3.925007e+00 -3.947037e+00 -3.962113e+00 -4.000155e+00 -4.024053e+00 -4.083185e+00 -4.124436e+00 -4.209971e+00 -4.277791e+00 -4.395521e+00 -4.495097e+00 -4.663540e+00 -4.472249e+00 -1.667770e+00 5.339617e+00 1.183394e+01 1.376035e+01 1.399797e+01 1.388844e+01 1.409638e+01 1.426653e+01 1.434849e+01 1.447149e+01 1.442387e+01 1.448655e+01 1.443063e+01 1.446482e+01 1.437029e+01 1.427974e+01 1.412264e+01 1.390397e+01 1.399337e+01 1.381992e+01 1.206625e+01 6.318951e+00 -8.981112e-01 -4.311443e+00 -4.671447e+00 -4.502588e+00 -4.409613e+00 -4.287499e+00 -4.220355e+00 -4.130178e+00 -4.089441e+00 -4.025943e+00 -4.003391e+00 -3.961931e+00 -3.948442e+00 -3.924071e+00 -3.913953e+00 -3.902142e+00 -3.892889e+00 -3.889891e+00 -3.880914e+00 -3.883793e+00 -3.875527e+00 
-3.834328e+00 -3.825083e+00 -3.835051e+00 -3.827978e+00 -3.837494e+00 -3.834769e+00 -3.843029e+00 -3.847493e+00 -3.854523e+00 -3.869843e+00 -3.877383e+00 -3.908197e+00 -3.921001e+00 -3.973112e+00 -3.999101e+00 -4.080702e+00 -4.129139e+00 -4.254024e+00 -4.366385e+00 -4.361210e+00 -1.244457e+00 6.278388e+00 1.210691e+01 1.373915e+01 1.368312e+01 1.386378e+01 1.394894e+01 1.400722e+01 1.401943e+01 1.398715e+01 1.404719e+01 1.401572e+01 1.406627e+01 1.401951e+01 1.404165e+01 1.399253e+01 1.401031e+01 1.400498e+01 1.396347e+01 1.388290e+01 1.372336e+01 1.372326e+01 1.255773e+01 7.094799e+00 -6.571667e-01 -4.276626e+00 -4.378587e+00 -4.267804e+00 -4.131341e+00 -4.089085e+00 -3.999457e+00 -3.978892e+00 -3.920776e+00 -3.912159e+00 -3.877037e+00 -3.872395e+00 -3.854187e+00 -3.849014e+00 -3.842735e+00 -3.835598e+00 -3.837269e+00 -3.828370e+00 -3.834927e+00 -3.825196e+00 
-3.790520e+00 -3.778580e+00 -3.790797e+00 -3.780364e+00 -3.791163e+00 -3.784620e+00 -3.792907e+00 -3.793425e+00 -3.798787e+00 -3.810490e+00 -3.814276e+00 -3.842027e+00 -3.849431e+00 -3.897472e+00 -3.919405e+00 -3.989185e+00 -4.041936e+00 -4.133030e+00 -4.241414e+00 -2.238974e+00 5.126592e+00 1.211789e+01 1.353422e+01 1.359346e+01 1.370432e+01 1.377951e+01 1.381044e+01 1.391423e+01 1.399416e+01 1.405544e+01 1.412517e+01 1.412651e+01 1.416202e+01 1.413005e+01 1.412645e+01 1.406463e+01 1.400208e+01 1.392108e+01 1.381977e+01 1.376936e+01 1.370832e+01 1.355937e+01 1.353045e+01 1.238527e+01 6.083892e+00 -1.623629e+00 -4.209726e+00 -4.165461e+00 -4.057900e+00 -4.002780e+00 -3.923504e+00 -3.902966e+00 -3.847130e+00 -3.843361e+00 -3.810392e+00 -3.809985e+00 -3.795241e+00 -3.792355e+00 -3.790230e+00 -3.783604e+00 -3.789418e+00 -3.779680e+00 -3.789942e+00 -3.778342e+00 
-3.744707e+00 -3.728958e+00 -3.743367e+00 -3.727794e+00 -3.739171e+00 -3.726087e+00 -3.732795e+00 -3.725289e+00 -3.725926e+00 -3.728002e+00 -3.722494e+00 -3.738467e+00 -3.730375e+00 -3.762478e+00 -3.759052e+00 -3.811625e+00 -3.794737e+00 -3.970382e+00 -2.926507e+00 3.349771e+00 1.088281e+01 1.332600e+01 1.337771e+01 1.355260e+01 1.354150e+01 1.367128e+01 1.370195e+01 1.377131e+01 1.379370e+01 1.381270e+01 1.384123e+01 1.383828e+01 1.385831e+01 1.383953e+01 1.384083e+01 1.381443e+01 1.379548e+01 1.377033e+01 1.371329e+01 1.366762e+01 1.356077e+01 1.352331e+01 1.339284e+01 1.330451e+01 1.148163e+01 4.304745e+00 -2.559508e+00 -4.003773e+00 -3.786442e+00 -3.821447e+00 -3.755044e+00 -3.769030e+00 -3.727519e+00 -3.742628e+00 -3.720544e+00 -3.730253e+00 -3.724554e+00 -3.726302e+00 -3.731798e+00 -3.726433e+00 -3.738493e+00 -3.727859e+00 -3.743019e+00 -3.728957e+00 
-3.699721e+00 -3.680538e+00 -3.697842e+00 -3.677913e+00 -3.691074e+00 -3.672863e+00 -3.679845e+00 -3.666877e+00 -3.665315e+00 -3.662640e+00 -3.650736e+00 -3.664477e+00 -3.644049e+00 -3.677246e+00 -3.659464e+00 -3.709048e+00 -3.707565e+00 -3.801996e+00 5.811573e-01 9.149642e+00 1.313145e+01 1.329190e+01 1.339568e+01 1.345881e+01 1.353655e+01 1.361315e+01 1.366160e+01 1.373890e+01 1.378719e+01 1.384069e+01 1.387712e+01 1.389601e+01 1.390829e+01 1.389744e+01 1.387963e+01 1.384366e+01 1.379315e+01 1.373900e+01 1.366966e+01 1.360456e+01 1.354628e+01 1.343962e+01 1.341285e+01 1.326530e+01 1.325033e+01 9.931632e+00 1.489782e+00 -3.673212e+00 -3.767500e+00 -3.715325e+00 -3.656259e+00 -3.677646e+00 -3.632394e+00 -3.661301e+00 -3.641009e+00 -3.658781e+00 -3.658492e+00 -3.663569e+00 -3.675354e+00 -3.670468e+00 -3.688357e+00 -3.676488e+00 -3.696559e+00 -3.680067e+00 
-3.658636e+00 -3.634544e+00 -3.655111e+00 -3.628811e+00 -3.643778e+00 -3.617449e+00 -3.624223e+00 -3.601183e+00 -3.596004e+00 -3.581346e+00 -3.559935e+00 -3.559219e+00 -3.522175e+00 -3.527193e+00 -3.507910e+00 -3.428044e+00 -3.635447e+00 -2.120374e+00 5.432499e+00 1.216092e+01 1.312479e+01 1.314262e+01 1.325457e+01 1.335670e+01 1.339890e+01 1.349929e+01 1.352732e+01 1.359913e+01 1.361638e+01 1.365708e+01 1.366756e+01 1.368563e+01 1.368503e+01 1.368605e+01 1.366913e+01 1.365759e+01 1.362073e+01 1.359826e+01 1.353629e+01 1.349597e+01 1.341079e+01 1.334896e+01 1.326184e+01 1.314736e+01 1.310750e+01 1.246810e+01 6.448729e+00 -1.573943e+00 -3.659032e+00 -3.419823e+00 -3.502342e+00 -3.533247e+00 -3.516553e+00 -3.562721e+00 -3.556375e+00 -3.582361e+00 -3.593588e+00 -3.600965e+00 -3.622472e+00 -3.616852e+00 -3.642591e+00 -3.628306e+00 -3.654506e+00 -3.634354e+00 
-3.614505e+00 -3.586143e+00 -3.610338e+00 -3.578491e+00 -3.596089e+00 -3.562798e+00 -3.570952e+00 -3.539775e+00 -3.533447e+00 -3.511013e+00 -3.482168e+00 -3.479118e+00 -3.418953e+00 -3.438391e+00 -3.363311e+00 -3.316908e+00 -3.428186e+00 1.225869e+00 9.806962e+00 1.310407e+01 1.295216e+01 1.318144e+01 1.320867e+01 1.333095e+01 1.338077e+01 1.347433e+01 1.351331e+01 1.359060e+01 1.361917e+01 1.367507e+01 1.368940e+01 1.371975e+01 1.371441e+01 1.372019e+01 1.369176e+01 1.367567e+01 1.362404e+01 1.358942e+01 1.352060e+01 1.346967e+01 1.339138e+01 1.332427e+01 1.322587e+01 1.318081e+01 1.297867e+01 1.313150e+01 1.061393e+01 2.246043e+00 -3.195784e+00 -3.342549e+00 -3.298398e+00 -3.431332e+00 -3.387240e+00 -3.468176e+00 -3.465302e+00 -3.502302e+00 -3.523713e+00 -3.533710e+00 -3.565096e+00 -3.558891e+00 -3.592691e+00 -3.576311e+00 -3.608764e+00 -3.585443e+00 
-3.580719e+00 -3.546541e+00 -3.575146e+00 -3.535916e+00 -3.557032e+00 -3.514129e+00 -3.524707e+00 -3.481221e+00 -3.474698e+00 -3.438463e+00 -3.400950e+00 -3.392078e+00 -3.291961e+00 -3.358946e+00 -3.116119e+00 -3.373975e+00 -2.304294e+00 4.983381e+00 1.206790e+01 1.294623e+01 1.289126e+01 1.305805e+01 1.311091e+01 1.322798e+01 1.326876e+01 1.336798e+01 1.339087e+01 1.346844e+01 1.347688e+01 1.353094e+01 1.352767e+01 1.356114e+01 1.354511e+01 1.356144e+01 1.352989e+01 1.353152e+01 1.348183e+01 1.346870e+01 1.339934e+01 1.336733e+01 1.328138e+01 1.322528e+01 1.313081e+01 1.304949e+01 1.293690e+01 1.289632e+01 1.244238e+01 6.003315e+00 -1.836846e+00 -3.490681e+00 -3.081039e+00 -3.380743e+00 -3.281051e+00 -3.394389e+00 -3.396134e+00 -3.436551e+00 -3.471392e+00 -3.478687e+00 -3.522163e+00 -3.512030e+00 -3.555273e+00 -3.534589e+00 -3.574248e+00 -3.546091e+00 
-3.539604e+00 -3.500475e+00 -3.533270e+00 -3.487360e+00 -3.512142e+00 -3.460045e+00 -3.474243e+00 -3.418213e+00 -3.415193e+00 -3.363146e+00 -3.326426e+00 -3.304451e+00 -3.187138e+00 -3.278103e+00 -2.918984e+00 -3.411432e+00 -2.584347e-01 8.407084e+00 1.285210e+01 1.268910e+01 1.293847e+01 1.300049e+01 1.310400e+01 1.320633e+01 1.326096e+01 1.335957e+01 1.338932e+01 1.347261e+01 1.348591e+01 1.354890e+01 1.354677e+01 1.358771e+01 1.356814e+01 1.358784e+01 1.354873e+01 1.354898e+01 1.348983e+01 1.347195e+01 1.339524e+01 1.335780e+01 1.326962e+01 1.320412e+01 1.311843e+01 1.299835e+01 1.297030e+01 1.267832e+01 1.296838e+01 9.364512e+00 6.704285e-01 -3.354580e+00 -2.839600e+00 -3.233701e+00 -3.153577e+00 -3.279270e+00 -3.309695e+00 -3.348762e+00 -3.405517e+00 -3.409659e+00 -3.468314e+00 -3.454970e+00 -3.508654e+00 -3.484646e+00 -3.531641e+00 -3.499618e+00 
-3.515120e+00 -3.469824e+00 -3.507890e+00 -3.454157e+00 -3.484291e+00 -3.421350e+00 -3.441967e+00 -3.369906e+00 -3.375913e+00 -3.298823e+00 -3.277374e+00 -3.213734e+00 -3.129687e+00 -3.142001e+00 -2.876858e+00 -3.172744e+00 2.150138e+00 1.063572e+01 1.292610e+01 1.257161e+01 1.289709e+01 1.291606e+01 1.302962e+01 1.312653e+01 1.317070e+01 1.327241e+01 1.328701e+01 1.337289e+01 1.337055e+01 1.343586e+01 1.342046e+01 1.346637e+01 1.343770e+01 1.346681e+01 1.342281e+01 1.343716e+01 1.337543e+01 1.337507e+01 1.329468e+01 1.327594e+01 1.318130e+01 1.313286e+01 1.304333e+01 1.292891e+01 1.291274e+01 1.259903e+01 1.292063e+01 1.116923e+01 3.099448e+00 -2.998434e+00 -2.881610e+00 -3.105526e+00 -3.131908e+00 -3.198259e+00 -3.275176e+00 -3.289652e+00 -3.372161e+00 -3.363777e+00 -3.438527e+00 -3.417358e+00 -3.481862e+00 -3.451896e+00 -3.506659e+00 -3.469090e+00 
-3.479142e+00 -3.428836e+00 -3.470997e+00 -3.410160e+00 -3.444447e+00 -3.370718e+00 -3.397164e+00 -3.307772e+00 -3.324689e+00 -3.217707e+00 -3.221605e+00 -3.100172e+00 -3.086385e+00 -2.962662e+00 -2.924689e+00 -2.727005e+00 4.742594e+00 1.208451e+01 1.274648e+01 1.264800e+01 1.284489e+01 1.292997e+01 1.300906e+01 1.313180e+01 1.316562e+01 1.328064e+01 1.329298e+01 1.338809e+01 1.338598e+01 1.345878e+01 1.344286e+01 1.349410e+01 1.346250e+01 1.349424e+01 1.344445e+01 1.345912e+01 1.338903e+01 1.338853e+01 1.329709e+01 1.328143e+01 1.316963e+01 1.313386e+01 1.300882e+01 1.293503e+01 1.282379e+01 1.265877e+01 1.263233e+01 1.221984e+01 5.952769e+00 -2.106722e+00 -2.914687e+00 -2.873490e+00 -3.078624e+00 -3.067059e+00 -3.213837e+00 -3.201902e+00 -3.318179e+00 -3.298950e+00 -3.392435e+00 -3.365575e+00 -3.441439e+00 -3.407414e+00 -3.469542e+00 -3.427968e+00 
-3.465261e+00 -3.409451e+00 -3.456873e+00 -3.389062e+00 -3.429477e+00 -3.345641e+00 -3.380846e+00 -3.275199e+00 -3.306922e+00 -3.171167e+00 -3.203797e+00 -3.025560e+00 -3.074689e+00 -2.821090e+00 -2.937094e+00 -2.010297e+00 6.683359e+00 1.255734e+01 1.254134e+01 1.271928e+01 1.275767e+01 1.291765e+01 1.293986e+01 1.308671e+01 1.309244e+01 1.321713e+01 1.321112e+01 1.331096e+01 1.329490e+01 1.337135e+01 1.334476e+01 1.340110e+01 1.336198e+01 1.340176e+01 1.334709e+01 1.337342e+01 1.329959e+01 1.331481e+01 1.321813e+01 1.322379e+01 1.310123e+01 1.309877e+01 1.294849e+01 1.294267e+01 1.275965e+01 1.278315e+01 1.251762e+01 1.278537e+01 8.117209e+00 -1.275003e+00 -3.016431e+00 -2.784265e+00 -3.088986e+00 -3.005158e+00 -3.200947e+00 -3.158053e+00 -3.301140e+00 -3.266628e+00 -3.375962e+00 -3.340265e+00 -3.426235e+00 -3.386100e+00 -3.455285e+00 -3.408504e+00 
-3.436470e+00 -3.376685e+00 -3.426987e+00 -3.353208e+00 -3.396605e+00 -3.303155e+00 -3.342932e+00 -3.221088e+00 -3.261925e+00 -3.097843e+00 -3.150689e+00 -2.921356e+00 -3.016272e+00 -2.668897e+00 -2.883921e+00 -1.041588e+00 8.396745e+00 1.274827e+01 1.240446e+01 1.279321e+01 1.269898e+01 1.294878e+01 1.291964e+01 1.310626e+01 1.309343e+01 1.323736e+01 1.322567e+01 1.333611e+01 1.331893e+01 1.340186e+01 1.337475e+01 1.343480e+01 1.339378e+01 1.343504e+01 1.337614e+01 1.340262e+01 1.332161e+01 1.333759e+01 1.322934e+01 1.324012e+01 1.309734e+01 1.311147e+01 1.292195e+01 1.295917e+01 1.269654e+01 1.281831e+01 1.240180e+01 1.283028e+01 9.440803e+00 -3.963268e-01 -2.959713e+00 -2.688054e+00 -3.034271e+00 -2.919989e+00 -3.151746e+00 -3.092275e+00 -3.258863e+00 -3.215889e+00 -3.339717e+00 -3.299385e+00 -3.394289e+00 -3.350978e+00 -3.425806e+00 -3.375950e+00 
-3.433908e+00 -3.370468e+00 -3.424821e+00 -3.346594e+00 -3.395106e+00 -3.295309e+00 -3.342734e+00 -3.210865e+00 -3.264489e+00 -3.083984e+00 -3.159372e+00 -2.904617e+00 -3.038468e+00 -2.663282e+00 -2.934735e+00 -4.766732e-01 9.410123e+00 1.284729e+01 1.237802e+01 1.284586e+01 1.266026e+01 1.295308e+01 1.287544e+01 1.308002e+01 1.304100e+01 1.319192e+01 1.316418e+01 1.327767e+01 1.324939e+01 1.333479e+01 1.329973e+01 1.336347e+01 1.331707e+01 1.336428e+01 1.330205e+01 1.333732e+01 1.325404e+01 1.328229e+01 1.317112e+01 1.319919e+01 1.304998e+01 1.309045e+01 1.288580e+01 1.296601e+01 1.267156e+01 1.285556e+01 1.239688e+01 1.282415e+01 1.032186e+01 3.512282e-01 -2.890261e+00 -2.659717e+00 -3.017978e+00 -2.893883e+00 -3.145347e+00 -3.072913e+00 -3.254501e+00 -3.202281e+00 -3.336091e+00 -3.289570e+00 -3.391098e+00 -3.343357e+00 -3.422938e+00 -3.369425e+00 
-3.414283e+00 -3.349025e+00 -3.404056e+00 -3.322708e+00 -3.371565e+00 -3.266406e+00 -3.314264e+00 -3.173272e+00 -3.227929e+00 -3.032360e+00 -3.109248e+00 -2.831987e+00 -2.962196e+00 -2.564619e+00 -2.792416e+00 3.879248e-02 9.906649e+00 1.276212e+01 1.232255e+01 1.284128e+01 1.263135e+01 1.296554e+01 1.287128e+01 1.310014e+01 1.305489e+01 1.321925e+01 1.319095e+01 1.331196e+01 1.328521e+01 1.337464e+01 1.334101e+01 1.340626e+01 1.335992e+01 1.340658e+01 1.334236e+01 1.337567e+01 1.328788e+01 1.331397e+01 1.319492e+01 1.322269e+01 1.306024e+01 1.310529e+01 1.287875e+01 1.297131e+01 1.264463e+01 1.284178e+01 1.235660e+01 1.273433e+01 1.074419e+01 8.532967e-01 -2.791830e+00 -2.622651e+00 -2.969326e+00 -2.851634e+00 -3.110497e+00 -3.035782e+00 -3.226062e+00 -3.171675e+00 -3.311886e+00 -3.264065e+00 -3.369710e+00 -3.321025e+00 -3.403073e+00 -3.348432e+00 
-3.423171e+00 -3.356937e+00 -3.413841e+00 -3.331764e+00 -3.383298e+00 -3.277558e+00 -3.329515e+00 -3.188019e+00 -3.249278e+00 -3.053459e+00 -3.141174e+00 -2.865245e+00 -3.011595e+00 -2.622693e+00 -2.862352e+00 1.373704e-01 1.013164e+01 1.280999e+01 1.235026e+01 1.286712e+01 1.263139e+01 1.296496e+01 1.285344e+01 1.307990e+01 1.302325e+01 1.318491e+01 1.314828e+01 1.326735e+01 1.323419e+01 1.332305e+01 1.328479e+01 1.335126e+01 1.330220e+01 1.335212e+01 1.328711e+01 1.332572e+01 1.323886e+01 1.327212e+01 1.315529e+01 1.319200e+01 1.303255e+01 1.308855e+01 1.286494e+01 1.297051e+01 1.264591e+01 1.285330e+01 1.237282e+01 1.272943e+01 1.090883e+01 1.030281e+00 -2.769240e+00 -2.630562e+00 -2.974490e+00 -2.859639e+00 -3.121523e+00 -3.044128e+00 -3.237256e+00 -3.179866e+00 -3.322083e+00 -3.271857e+00 -3.378972e+00 -3.328488e+00 -3.411842e+00 -3.355874e+00 