# vtk DataFile Version 2.0
Comment goes here
ASCII

DATASET STRUCTURED_POINTS
FIELD FieldData 1
TIME 1 1 double
0.19000000
DIMENSIONS    64   64   1

ORIGIN    0.000   0.000   0.000
SPACING   0.015625 0.015625   1.000

POINT_DATA   4096
SCALARS P double
LOOKUP_TABLE default

-4.582810e+00 -4.569160e+00 -4.564763e+00 -4.533432e+00 -4.510572e+00 -4.461706e+00 -4.419989e+00 -4.353737e+00 -4.292842e+00 -4.209516e+00 -4.129407e+00 -4.029721e+00 -3.930963e+00 -3.816336e+00 -3.700454e+00 -3.573343e+00 -3.443183e+00 -3.307361e+00 -3.167319e+00 -3.027985e+00 -2.883999e+00 -2.747641e+00 -2.606878e+00 -2.480836e+00 -2.351120e+00 -2.242936e+00 -2.132046e+00 -2.048736e+00 -1.963727e+00 -1.911094e+00 -1.857635e+00 -1.839631e+00 -1.821365e+00 -1.839545e+00 -1.857594e+00 -1.910841e+00 -1.963651e+00 -2.048329e+00 -2.131941e+00 -2.242390e+00 -2.350993e+00 -2.480166e+00 -2.606742e+00 -2.746863e+00 -2.883876e+00 -3.027126e+00 -3.167237e+00 -3.306455e+00 -3.443162e+00 -3.572433e+00 -3.700498e+00 -3.815467e+00 -3.931062e+00 -4.028933e+00 -4.129541e+00 -4.208841e+00 -4.292986e+00 -4.353197e+00 -4.420121e+00 -4.461314e+00 -4.510671e+00 -4.533195e+00 -4.564816e+00 -4.569081e+00 
-4.571602e+00 -4.557657e+00 -4.553682e+00 -4.522044e+00 -4.499577e+00 -4.450384e+00 -4.408994e+00 -4.342372e+00 -4.281679e+00 -4.197898e+00 -4.117784e+00 -4.017491e+00 -3.918410e+00 -3.802923e+00 -3.686280e+00 -3.557919e+00 -3.426434e+00 -3.288820e+00 -3.146785e+00 -3.004990e+00 -2.858293e+00 -2.718769e+00 -2.574654e+00 -2.444883e+00 -2.311448e+00 -2.199348e+00 -2.084856e+00 -1.997992e+00 -1.910066e+00 -1.854795e+00 -1.799587e+00 -1.780270e+00 -1.761709e+00 -1.780086e+00 -1.799346e+00 -1.854253e+00 -1.909595e+00 -1.997112e+00 -2.084171e+00 -2.198160e+00 -2.310567e+00 -2.443417e+00 -2.573609e+00 -2.717061e+00 -2.857129e+00 -3.003087e+00 -3.145558e+00 -3.286784e+00 -3.425203e+00 -3.555829e+00 -3.685095e+00 -3.800872e+00 -3.917316e+00 -4.015574e+00 -4.116815e+00 -4.196203e+00 -4.280866e+00 -4.340975e+00 -4.408362e+00 -4.449345e+00 -4.499144e+00 -4.521405e+00 -4.553462e+00 -4.557441e+00 
-4.602673e+00 -4.588894e+00 -4.584625e+00 -4.553156e+00 -4.530399e+00 -4.481341e+00 -4.439643e+00 -4.373070e+00 -4.312010e+00 -4.228134e+00 -4.147549e+00 -4.046965e+00 -3.947276e+00 -3.831286e+00 -3.713892e+00 -3.584860e+00 -3.452526e+00 -3.314187e+00 -3.171312e+00 -3.028911e+00 -2.881538e+00 -2.741706e+00 -2.597206e+00 -2.467524e+00 -2.333990e+00 -2.222310e+00 -2.107852e+00 -2.021557e+00 -1.933614e+00 -1.878906e+00 -1.823543e+00 -1.804709e+00 -1.785866e+00 -1.804620e+00 -1.823500e+00 -1.878647e+00 -1.933535e+00 -2.021144e+00 -2.107744e+00 -2.221758e+00 -2.333857e+00 -2.466844e+00 -2.597058e+00 -2.740916e+00 -2.881403e+00 -3.028035e+00 -3.171221e+00 -3.313260e+00 -3.452503e+00 -3.583928e+00 -3.713941e+00 -3.830397e+00 -3.947385e+00 -4.046161e+00 -4.147693e+00 -4.227447e+00 -4.312164e+00 -4.372522e+00 -4.439783e+00 -4.480944e+00 -4.530504e+00 -4.552916e+00 -4.584681e+00 -4.588814e+00 
-4.611375e+00 -4.597171e+00 -4.593473e+00 -4.561572e+00 -4.539351e+00 -4.489800e+00 -4.448509e+00 -4.381290e+00 -4.320355e+00 -4.235548e+00 -4.154591e+00 -4.052610e+00 -3.951793e+00 -3.833719e+00 -3.714176e+00 -3.582126e+00 -3.446397e+00 -3.303876e+00 -3.156220e+00 -3.008323e+00 -2.854774e+00 -2.708156e+00 -2.556283e+00 -2.418849e+00 -2.277291e+00 -2.157648e+00 -2.035446e+00 -1.942058e+00 -1.847780e+00 -1.787951e+00 -1.728650e+00 -1.707485e+00 -1.687716e+00 -1.707293e+00 -1.728400e+00 -1.787387e+00 -1.847294e+00 -1.941151e+00 -2.034742e+00 -2.156429e+00 -2.276382e+00 -2.417348e+00 -2.555194e+00 -2.706403e+00 -2.853554e+00 -3.006360e+00 -3.154937e+00 -3.301761e+00 -3.445115e+00 -3.579943e+00 -3.712948e+00 -3.831570e+00 -3.950661e+00 -4.050600e+00 -4.153589e+00 -4.233774e+00 -4.319515e+00 -4.379832e+00 -4.447855e+00 -4.488716e+00 -4.538903e+00 -4.560906e+00 -4.593246e+00 -4.596946e+00 
-4.662369e+00 -4.648216e+00 -4.644361e+00 -4.612529e+00 -4.590155e+00 -4.540608e+00 -4.499077e+00 -4.431657e+00 -4.370244e+00 -4.284850e+00 -4.202990e+00 -4.099844e+00 -3.997502e+00 -3.877524e+00 -3.755679e+00 -3.620925e+00 -3.482071e+00 -3.336137e+00 -3.184659e+00 -3.032909e+00 -2.875164e+00 -2.724656e+00 -2.568644e+00 -2.427701e+00 -2.282356e+00 -2.159792e+00 -2.034215e+00 -1.938556e+00 -1.841407e+00 -1.780136e+00 -1.718777e+00 -1.697297e+00 -1.676638e+00 -1.697198e+00 -1.718723e+00 -1.779855e+00 -1.841318e+00 -1.938122e+00 -2.034100e+00 -2.159222e+00 -2.282206e+00 -2.426998e+00 -2.568461e+00 -2.723830e+00 -2.874984e+00 -3.031981e+00 -3.184536e+00 -3.335144e+00 -3.482041e+00 -3.619922e+00 -3.755745e+00 -3.876570e+00 -3.997641e+00 -4.098989e+00 -4.203169e+00 -4.284127e+00 -4.370431e+00 -4.431086e+00 -4.499243e+00 -4.540198e+00 -4.590278e+00 -4.612283e+00 -4.644426e+00 -4.648134e+00 
-4.691104e+00 -4.676415e+00 -4.673325e+00 -4.640999e+00 -4.619411e+00 -4.569313e+00 -4.528445e+00 -4.460258e+00 -4.399130e+00 -4.312526e+00 -4.230205e+00 -4.125110e+00 -4.021116e+00 -3.898087e+00 -3.772945e+00 -3.633643e+00 -3.489472e+00 -3.337118e+00 -3.178079e+00 -3.017763e+00 -2.850157e+00 -2.688890e+00 -2.520908e+00 -2.367396e+00 -2.208743e+00 -2.073048e+00 -1.934435e+00 -1.827027e+00 -1.719141e+00 -1.649462e+00 -1.581378e+00 -1.556200e+00 -1.533851e+00 -1.555987e+00 -1.581103e+00 -1.648849e+00 -1.718624e+00 -1.826064e+00 -1.933698e+00 -2.071772e+00 -2.207780e+00 -2.365829e+00 -2.519726e+00 -2.687054e+00 -2.848817e+00 -3.015682e+00 -3.176674e+00 -3.334841e+00 -3.488086e+00 -3.631266e+00 -3.771630e+00 -3.895735e+00 -4.019909e+00 -4.122910e+00 -4.229138e+00 -4.310590e+00 -4.398232e+00 -4.458673e+00 -4.527745e+00 -4.568141e+00 -4.618931e+00 -4.640281e+00 -4.673081e+00 -4.676173e+00 
-4.762131e+00 -4.747406e+00 -4.744334e+00 -4.712080e+00 -4.690591e+00 -4.640530e+00 -4.599667e+00 -4.531239e+00 -4.469742e+00 -4.382286e+00 -4.298854e+00 -4.191907e+00 -4.085648e+00 -3.959402e+00 -3.830473e+00 -3.686364e+00 -3.536682e+00 -3.377974e+00 -3.211810e+00 -3.043981e+00 -2.868207e+00 -2.699004e+00 -2.522769e+00 -2.361864e+00 -2.195596e+00 -2.053511e+00 -1.907973e+00 -1.795266e+00 -1.681369e+00 -1.607996e+00 -1.535647e+00 -1.509224e+00 -1.485262e+00 -1.509101e+00 -1.535565e+00 -1.607666e+00 -1.681263e+00 -1.794796e+00 -1.907862e+00 -2.052920e+00 -2.195429e+00 -2.361131e+00 -2.522515e+00 -2.698122e+00 -2.867928e+00 -3.042964e+00 -3.211619e+00 -3.376861e+00 -3.536642e+00 -3.685231e+00 -3.830577e+00 -3.958332e+00 -4.085848e+00 -4.190962e+00 -4.299098e+00 -4.381504e+00 -4.469986e+00 -4.530633e+00 -4.599878e+00 -4.640102e+00 -4.690744e+00 -4.711826e+00 -4.744414e+00 -4.747322e+00 
-4.810989e+00 -4.795658e+00 -4.793605e+00 -4.760920e+00 -4.740639e+00 -4.690169e+00 -4.650521e+00 -4.581477e+00 -4.520839e+00 -4.432241e+00 -4.348755e+00 -4.239715e+00 -4.131784e+00 -4.001963e+00 -3.869006e+00 -3.719236e+00 -3.562574e+00 -3.395502e+00 -3.219054e+00 -3.039611e+00 -2.850046e+00 -2.665644e+00 -2.471955e+00 -2.292298e+00 -2.105716e+00 -1.943310e+00 -1.777384e+00 -1.646343e+00 -1.515672e+00 -1.429345e+00 -1.346576e+00 -1.314598e+00 -1.287968e+00 -1.314341e+00 -1.346241e+00 -1.428635e+00 -1.515102e+00 -1.645286e+00 -1.776622e+00 -1.941955e+00 -2.104692e+00 -2.290645e+00 -2.470621e+00 -2.663699e+00 -2.848492e+00 -3.037363e+00 -3.217446e+00 -3.392968e+00 -3.561030e+00 -3.716538e+00 -3.867566e+00 -3.999276e+00 -4.130466e+00 -4.237210e+00 -4.347586e+00 -4.430052e+00 -4.519852e+00 -4.579699e+00 -4.649749e+00 -4.688864e+00 -4.740109e+00 -4.760124e+00 -4.793335e+00 -4.795390e+00 
-4.902045e+00 -4.886635e+00 -4.884857e+00 -4.852420e+00 -4.832703e+00 -4.782597e+00 -4.743541e+00 -4.674612e+00 -4.614153e+00 -4.524895e+00 -4.440574e+00 -4.329436e+00 -4.218948e+00 -4.084899e+00 -3.946959e+00 -3.790313e+00 -3.625713e+00 -3.449009e+00 -3.261589e+00 -3.070216e+00 -2.867478e+00 -2.670001e+00 -2.463051e+00 -2.271465e+00 -2.073205e+00 -1.900737e+00 -1.724088e+00 -1.584302e+00 -1.443840e+00 -1.350960e+00 -1.261052e+00 -1.226561e+00 -1.197347e+00 -1.226375e+00 -1.260884e+00 -1.350519e+00 -1.443702e+00 -1.583780e+00 -1.724031e+00 -1.900145e+00 -2.073050e+00 -2.270707e+00 -2.462663e+00 -2.669047e+00 -2.866987e+00 -3.069069e+00 -3.261263e+00 -3.447699e+00 -3.625671e+00 -3.788965e+00 -3.947145e+00 -4.083646e+00 -4.219257e+00 -4.328363e+00 -4.440922e+00 -4.524035e+00 -4.614484e+00 -4.673966e+00 -4.743817e+00 -4.782152e+00 -4.832900e+00 -4.852161e+00 -4.884960e+00 -4.886550e+00 
-4.970869e+00 -4.954864e+00 -4.954424e+00 -4.921813e+00 -4.903964e+00 -4.853891e+00 -4.817044e+00 -4.748062e+00 -4.689694e+00 -4.599898e+00 -4.516759e+00 -4.404044e+00 -4.292743e+00 -4.155351e+00 -4.013408e+00 -3.850766e+00 -3.678019e+00 -3.491652e+00 -3.291476e+00 -3.085734e+00 -2.865306e+00 -2.647944e+00 -2.416998e+00 -2.198253e+00 -1.969693e+00 -1.766101e+00 -1.558114e+00 -1.390269e+00 -1.224632e+00 -1.112650e+00 -1.007612e+00 -9.652704e-01 -9.321668e-01 -9.649080e-01 -1.007122e+00 -1.111743e+00 -1.223972e+00 -1.389077e+00 -1.557394e+00 -1.764668e+00 -1.968655e+00 -2.196504e+00 -2.415420e+00 -2.645895e+00 -2.863368e+00 -3.083297e+00 -3.289544e+00 -3.488739e+00 -3.676271e+00 -3.847567e+00 -4.011820e+00 -4.152155e+00 -4.291284e+00 -4.401095e+00 -4.515450e+00 -4.597357e+00 -4.688580e+00 -4.746027e+00 -4.816169e+00 -4.852412e+00 -4.903363e+00 -4.920918e+00 -4.954119e+00 -4.954565e+00 
-5.081533e+00 -5.065481e+00 -5.065693e+00 -5.033770e+00 -5.017285e+00 -4.968362e+00 -4.933245e+00 -4.865391e+00 -4.808498e+00 -4.719061e+00 -4.636259e+00 -4.522102e+00 -4.408900e+00 -4.267052e+00 -4.119756e+00 -3.948573e+00 -3.765821e+00 -3.566317e+00 -3.350628e+00 -3.127401e+00 -2.886603e+00 -2.648504e+00 -2.397308e+00 -2.161060e+00 -1.917131e+00 -1.700350e+00 -1.478121e+00 -1.297761e+00 -1.117557e+00 -9.950600e-01 -8.787716e-01 -8.319202e-01 -7.948033e-01 -8.315582e-01 -8.783239e-01 -9.943462e-01 -1.117340e+00 -1.297189e+00 -1.478296e+00 -1.699855e+00 -1.917122e+00 -2.160296e+00 -2.396650e+00 -2.647463e+00 -2.885625e+00 -3.126091e+00 -3.350037e+00 -3.564673e+00 -3.765827e+00 -3.946866e+00 -4.120121e+00 -4.265525e+00 -4.409395e+00 -4.520861e+00 -4.636760e+00 -4.718116e+00 -4.808947e+00 -4.864713e+00 -4.933608e+00 -4.967913e+00 -5.017540e+00 -5.033515e+00 -5.065824e+00 -5.065399e+00 
-5.169589e+00 -5.153099e+00 -5.155009e+00 -5.123451e+00 -5.109781e+00 -5.061751e+00 -5.030452e+00 -4.963694e+00 -4.911134e+00 -4.822574e+00 -4.743588e+00 -4.629469e+00 -4.517944e+00 -4.374379e+00 -4.224624e+00 -4.048706e+00 -3.857668e+00 -3.648709e+00 -3.418445e+00 -3.178988e+00 -2.917884e+00 -2.656669e+00 -2.374666e+00 -2.099401e+00 -1.809905e+00 -1.544532e+00 -1.273473e+00 -1.050387e+00 -8.338301e-01 -6.848444e-01 -5.484313e-01 -4.916627e-01 -4.493171e-01 -4.910226e-01 -5.474797e-01 -6.835035e-01 -8.329786e-01 -1.049044e+00 -1.273053e+00 -1.543096e+00 -1.809071e+00 -2.097517e+00 -2.372662e+00 -2.654586e+00 -2.915180e+00 -3.176446e+00 -3.415997e+00 -3.645207e+00 -3.855731e+00 -4.044703e+00 -4.222907e+00 -4.370421e+00 -4.516316e+00 -4.625904e+00 -4.742085e+00 -4.819578e+00 -4.909839e+00 -4.961342e+00 -5.029434e+00 -5.060069e+00 -5.109085e+00 -5.122444e+00 -5.154656e+00 -5.152764e+00 
-5.298537e+00 -5.282138e+00 -5.285237e+00 -5.255176e+00 -5.244149e+00 -5.198709e+00 -5.171111e+00 -5.107502e+00 -5.058929e+00 -4.973185e+00 -4.897318e+00 -4.784256e+00 -4.673492e+00 -4.527229e+00 -4.374009e+00 -4.189492e+00 -3.988317e+00 -3.763417e+00 -3.513171e+00 -3.250060e+00 -2.956795e+00 -2.660689e+00 -2.346575e+00 -2.047084e+00 -1.742303e+00 -1.464929e+00 -1.178801e+00 -9.397701e-01 -7.019820e-01 -5.360416e-01 -3.815779e-01 -3.164568e-01 -2.676513e-01 -3.155568e-01 -3.802013e-01 -5.346089e-01 -7.015488e-01 -9.392653e-01 -1.179785e+00 -1.464876e+00 -1.742882e+00 -2.046266e+00 -2.345322e+00 -2.659525e+00 -2.954586e+00 -3.248648e+00 -3.512080e+00 -3.761140e+00 -3.988590e+00 -4.187161e+00 -4.374764e+00 -4.525308e+00 -4.674282e+00 -4.782824e+00 -4.898021e+00 -4.972176e+00 -5.059521e+00 -5.106825e+00 -5.171577e+00 -5.198283e+00 -5.244471e+00 -5.254944e+00 -5.285402e+00 -5.282064e+00 
-5.404045e+00 -5.387612e+00 -5.392730e+00 -5.363966e+00 -5.356982e+00 -5.313845e+00 -5.292465e+00 -5.231915e+00 -5.191451e+00 -5.109286e+00 -5.042371e+00 -4.933005e+00 -4.829843e+00 -4.686468e+00 -4.535981e+00 -4.351764e+00 -4.144640e+00 -3.914385e+00 -3.648683e+00 -3.368404e+00 -3.057364e+00 -2.743800e+00 -2.396799e+00 -2.041075e+00 -1.664740e+00 -1.307261e+00 -9.408610e-01 -6.360375e-01 -3.490060e-01 -1.505878e-01 2.625667e-02 1.008742e-01 1.559014e-01 1.023544e-01 2.865464e-02 -1.482051e-01 -3.476902e-01 -6.347445e-01 -9.415872e-01 -1.306177e+00 -1.664804e+00 -2.038687e+00 -2.393936e+00 -2.741903e+00 -3.052864e+00 -3.366280e+00 -3.645425e+00 -3.909776e+00 -4.142777e+00 -4.346374e+00 -4.534239e+00 -4.681376e+00 -4.827988e+00 -4.928635e+00 -5.040577e+00 -5.105748e+00 -5.189896e+00 -5.229212e+00 -5.291254e+00 -5.311950e+00 -5.356162e+00 -5.362846e+00 -5.392318e+00 -5.387242e+00 
-5.548334e+00 -5.532289e+00 -5.539308e+00 -5.513318e+00 -5.510872e+00 -5.472618e+00 -5.458111e+00 -5.404205e+00 -5.372203e+00 -5.297833e+00 -5.239839e+00 -5.138021e+00 -5.042764e+00 -4.903664e+00 -4.757592e+00 -4.569742e+00 -4.358903e+00 -4.113251e+00 -3.827254e+00 -3.522277e+00 -3.156970e+00 -2.772992e+00 -2.365451e+00 -1.977544e+00 -1.602581e+00 -1.251885e+00 -8.787882e-01 -5.546751e-01 -2.329446e-01 -3.302861e-03 2.054765e-01 2.975708e-01 3.641965e-01 3.002601e-01 2.099703e-01 1.518672e-04 -2.319417e-01 -5.549129e-01 -8.824011e-01 -1.253487e+00 -1.604996e+00 -1.975995e+00 -2.362826e+00 -2.771547e+00 -3.151294e+00 -3.521471e+00 -3.825370e+00 -4.109403e+00 -4.360285e+00 -4.566253e+00 -4.759140e+00 -4.901234e+00 -5.043934e+00 -5.136441e+00 -5.240745e+00 -5.296836e+00 -5.372940e+00 -5.403599e+00 -5.458690e+00 -5.472270e+00 -5.511272e+00 -5.513140e+00 -5.539512e+00 -5.532235e+00 
-5.667866e+00 -5.652600e+00 -5.661733e+00 -5.638489e+00 -5.641463e+00 -5.607608e+00 -5.602620e+00 -5.554864e+00 -5.537099e+00 -5.471284e+00 -5.432222e+00 -5.342240e+00 -5.268586e+00 -5.144112e+00 -5.015607e+00 -4.841814e+00 -4.632953e+00 -4.396140e+00 -4.089198e+00 -3.754662e+00 -3.384728e+00 -3.024664e+00 -2.606342e+00 -2.132280e+00 -1.629246e+00 -1.128832e+00 -6.064480e-01 -1.772748e-01 1.992904e-01 4.545780e-01 6.754611e-01 7.676255e-01 8.401329e-01 7.720045e-01 6.825702e-01 4.597583e-01 2.018018e-01 -1.772177e-01 -6.109642e-01 -1.129549e+00 -1.632037e+00 -2.127155e+00 -2.601658e+00 -3.023567e+00 -3.375219e+00 -3.755508e+00 -4.084960e+00 -4.388431e+00 -4.632391e+00 -4.833862e+00 -5.013987e+00 -5.137407e+00 -5.266274e+00 -5.336920e+00 -5.429927e+00 -5.467180e+00 -5.535162e+00 -5.551826e+00 -5.601158e+00 -5.605527e+00 -5.640498e+00 -5.637278e+00 -5.661256e+00 -5.652203e+00 
-5.822017e+00 -5.807685e+00 -5.819540e+00 -5.800873e+00 -5.810982e+00 -5.785259e+00 -5.791985e+00 -5.756383e+00 -5.754835e+00 -5.706350e+00 -5.688072e+00 -5.621203e+00 -5.572757e+00 -5.472512e+00 -5.369473e+00 -5.207287e+00 -5.013481e+00 -4.759623e+00 -4.442948e+00 -4.113451e+00 -3.635744e+00 -3.078349e+00 -2.495497e+00 -1.978766e+00 -1.563321e+00 -1.154003e+00 -6.575948e-01 -1.961927e-01 2.558649e-01 5.794544e-01 8.612206e-01 9.921366e-01 1.088673e+00 1.001284e+00 8.766330e-01 5.891631e-01 2.581536e-01 -1.998024e-01 -6.694086e-01 -1.161544e+00 -1.570588e+00 -1.972854e+00 -2.490142e+00 -3.075816e+00 -3.619285e+00 -4.117629e+00 -4.440868e+00 -4.750202e+00 -5.018990e+00 -5.201812e+00 -5.372211e+00 -5.469700e+00 -5.574097e+00 -5.619688e+00 -5.689038e+00 -5.705528e+00 -5.755683e+00 -5.755965e+00 -5.792684e+00 -5.785064e+00 -5.811469e+00 -5.800791e+00 -5.819787e+00 -5.807663e+00 
-5.949916e+00 -5.937811e+00 -5.951301e+00 -5.937465e+00 -5.954118e+00 -5.935650e+00 -5.955971e+00 -5.931175e+00 -5.953525e+00 -5.922946e+00 -5.943113e+00 -5.906422e+00 -5.911534e+00 -5.851860e+00 -5.800419e+00 -5.671764e+00 -5.487180e+00 -5.275047e+00 -4.874565e+00 -4.386279e+00 -3.915105e+00 -3.575555e+00 -3.103303e+00 -2.416168e+00 -1.694207e+00 -8.044916e-01 3.817186e-01 1.434554e+00 2.264754e+00 2.869311e+00 3.344006e+00 3.573680e+00 3.704266e+00 3.575170e+00 3.346827e+00 2.870857e+00 2.270166e+00 1.430467e+00 3.682552e-01 -8.093315e-01 -1.702928e+00 -2.399267e+00 -3.094791e+00 -3.576317e+00 -3.890351e+00 -4.401823e+00 -4.871159e+00 -5.254934e+00 -5.492539e+00 -5.659719e+00 -5.798273e+00 -5.843270e+00 -5.907874e+00 -5.900225e+00 -5.939902e+00 -5.918384e+00 -5.951061e+00 -5.927895e+00 -5.954224e+00 -5.933460e+00 -5.953011e+00 -5.936218e+00 -5.950767e+00 -5.937407e+00 
-6.105011e+00 -6.094809e+00 -6.111675e+00 -6.104712e+00 -6.131648e+00 -6.125333e+00 -6.164389e+00 -6.159591e+00 -6.211480e+00 -6.215516e+00 -6.280100e+00 -6.300386e+00 -6.365281e+00 -6.370093e+00 -6.370279e+00 -6.259819e+00 -6.085821e+00 -5.753547e+00 -5.377471e+00 -5.099912e+00 -4.322522e+00 -2.875615e+00 -8.113624e-01 1.591784e+00 3.686186e+00 5.256220e+00 6.857841e+00 8.022494e+00 8.687247e+00 9.116972e+00 9.410270e+00 9.522412e+00 9.586331e+00 9.510216e+00 9.391604e+00 9.107060e+00 8.702805e+00 8.032905e+00 6.880994e+00 5.276891e+00 3.676059e+00 1.603007e+00 -8.099475e-01 -2.861489e+00 -4.275802e+00 -5.129850e+00 -5.380829e+00 -5.720379e+00 -6.105488e+00 -6.253770e+00 -6.372487e+00 -6.368056e+00 -6.365508e+00 -6.299389e+00 -6.280765e+00 -6.215094e+00 -6.212423e+00 -6.159511e+00 -6.165244e+00 -6.125384e+00 -6.132240e+00 -6.104774e+00 -6.111968e+00 -6.094834e+00 
-6.233232e+00 -6.227626e+00 -6.244501e+00 -6.245162e+00 -6.278640e+00 -6.283105e+00 -6.339765e+00 -6.352235e+00 -6.442021e+00 -6.480361e+00 -6.617551e+00 -6.702267e+00 -6.873746e+00 -6.945586e+00 -7.021929e+00 -6.872640e+00 -6.668144e+00 -6.497703e+00 -5.448973e+00 -2.970242e+00 7.433825e-01 4.483336e+00 7.261493e+00 9.254940e+00 1.040005e+01 1.056884e+01 1.077508e+01 1.084665e+01 1.079907e+01 1.074436e+01 1.072379e+01 1.067218e+01 1.067978e+01 1.066276e+01 1.071142e+01 1.073684e+01 1.081398e+01 1.085719e+01 1.080846e+01 1.057784e+01 1.038640e+01 9.240314e+00 7.265691e+00 4.507979e+00 7.319587e-01 -3.053762e+00 -5.443240e+00 -6.427300e+00 -6.695536e+00 -6.861056e+00 -7.013085e+00 -6.935755e+00 -6.866295e+00 -6.695597e+00 -6.612915e+00 -6.475574e+00 -6.438997e+00 -6.348877e+00 -6.337791e+00 -6.280944e+00 -6.277457e+00 -6.243976e+00 -6.243950e+00 -6.227250e+00 
-6.376604e+00 -6.374644e+00 -6.394674e+00 -6.404827e+00 -6.451498e+00 -6.472037e+00 -6.556648e+00 -6.597973e+00 -6.738702e+00 -6.836977e+00 -7.056937e+00 -7.249405e+00 -7.508126e+00 -7.657738e+00 -7.706407e+00 -7.517186e+00 -6.923189e+00 -4.245197e+00 8.574483e-01 5.913614e+00 9.475216e+00 1.126009e+01 1.166475e+01 1.160460e+01 1.147749e+01 1.110420e+01 1.099194e+01 1.090555e+01 1.087592e+01 1.084000e+01 1.085400e+01 1.082468e+01 1.084808e+01 1.082116e+01 1.085116e+01 1.083791e+01 1.088687e+01 1.091208e+01 1.100924e+01 1.110436e+01 1.147502e+01 1.159730e+01 1.167540e+01 1.127377e+01 9.427960e+00 5.863020e+00 9.406717e-01 -4.163613e+00 -7.004578e+00 -7.528924e+00 -7.694003e+00 -7.658630e+00 -7.504160e+00 -7.248876e+00 -7.057181e+00 -6.837020e+00 -6.739994e+00 -6.598371e+00 -6.557785e+00 -6.472421e+00 -6.452209e+00 -6.405068e+00 -6.395000e+00 -6.374723e+00 
-6.495710e+00 -6.501918e+00 -6.518441e+00 -6.539733e+00 -6.590290e+00 -6.625341e+00 -6.728902e+00 -6.794115e+00 -6.987368e+00 -7.137983e+00 -7.466735e+00 -7.747643e+00 -8.126338e+00 -8.301147e+00 -8.299353e+00 -6.768410e+00 -1.811118e+00 4.958616e+00 1.002437e+01 1.209949e+01 1.234595e+01 1.204586e+01 1.173969e+01 1.154726e+01 1.151887e+01 1.141094e+01 1.143767e+01 1.139055e+01 1.138423e+01 1.133075e+01 1.133128e+01 1.128726e+01 1.130749e+01 1.128500e+01 1.132998e+01 1.132917e+01 1.139075e+01 1.139378e+01 1.144729e+01 1.141267e+01 1.151593e+01 1.154261e+01 1.173099e+01 1.204930e+01 1.231602e+01 1.209792e+01 1.007499e+01 4.939463e+00 -1.933378e+00 -6.774664e+00 -8.252356e+00 -8.289384e+00 -8.112920e+00 -7.740788e+00 -7.461200e+00 -7.133061e+00 -6.984190e+00 -6.790862e+00 -6.726953e+00 -6.623434e+00 -6.589193e+00 -6.538777e+00 -6.517955e+00 -6.501631e+00 
-6.612250e+00 -6.625288e+00 -6.642406e+00 -6.675982e+00 -6.740071e+00 -6.793213e+00 -6.933750e+00 -7.031127e+00 -7.302762e+00 -7.527265e+00 -7.973410e+00 -8.385671e+00 -8.817162e+00 -8.900243e+00 -6.982488e+00 5.582297e-02 8.398947e+00 1.237022e+01 1.304529e+01 1.270030e+01 1.242412e+01 1.230281e+01 1.221894e+01 1.207442e+01 1.197469e+01 1.177132e+01 1.168988e+01 1.156291e+01 1.152612e+01 1.145002e+01 1.145069e+01 1.140307e+01 1.142883e+01 1.140240e+01 1.145141e+01 1.145008e+01 1.153094e+01 1.156521e+01 1.169552e+01 1.177240e+01 1.197431e+01 1.207556e+01 1.221575e+01 1.231096e+01 1.240189e+01 1.269930e+01 1.304072e+01 1.233713e+01 8.351012e+00 1.483664e-01 -6.872785e+00 -8.896434e+00 -8.810284e+00 -8.382477e+00 -7.975446e+00 -7.527517e+00 -7.305279e+00 -7.032153e+00 -6.935303e+00 -6.793979e+00 -6.740819e+00 -6.676395e+00 -6.642693e+00 -6.625416e+00 
-6.714239e+00 -6.740331e+00 -6.747930e+00 -6.796976e+00 -6.857686e+00 -6.928810e+00 -7.081500e+00 -7.203918e+00 -7.528521e+00 -7.798079e+00 -8.354646e+00 -8.827176e+00 -9.323774e+00 -7.381487e+00 4.303483e-01 9.729663e+00 1.353427e+01 1.352353e+01 1.318366e+01 1.301767e+01 1.286464e+01 1.263699e+01 1.245948e+01 1.226369e+01 1.217588e+01 1.203404e+01 1.200087e+01 1.190442e+01 1.189003e+01 1.181752e+01 1.182209e+01 1.177118e+01 1.179831e+01 1.177074e+01 1.182250e+01 1.181748e+01 1.189256e+01 1.190576e+01 1.200331e+01 1.203515e+01 1.217361e+01 1.226400e+01 1.245303e+01 1.264016e+01 1.285365e+01 1.302495e+01 1.318552e+01 1.353047e+01 1.353194e+01 9.831221e+00 5.137653e-01 -7.422766e+00 -9.340381e+00 -8.823559e+00 -8.352222e+00 -7.792363e+00 -7.525958e+00 -7.200988e+00 -7.079965e+00 -6.927571e+00 -6.856931e+00 -6.796538e+00 -6.747638e+00 -6.740231e+00 
-6.790188e+00 -6.828684e+00 -6.829728e+00 -6.894560e+00 -6.961413e+00 -7.049693e+00 -7.239698e+00 -7.380334e+00 -7.811405e+00 -8.115538e+00 -8.827062e+00 -9.534895e+00 -8.797674e+00 -7.004733e-01 1.024607e+01 1.419870e+01 1.406673e+01 1.384130e+01 1.362297e+01 1.334614e+01 1.313270e+01 1.291439e+01 1.277298e+01 1.258022e+01 1.247275e+01 1.229214e+01 1.221660e+01 1.207872e+01 1.204027e+01 1.194486e+01 1.194207e+01 1.188179e+01 1.191101e+01 1.188179e+01 1.194279e+01 1.194535e+01 1.204212e+01 1.208003e+01 1.221808e+01 1.229358e+01 1.247155e+01 1.258233e+01 1.276885e+01 1.291832e+01 1.312395e+01 1.334893e+01 1.361989e+01 1.384507e+01 1.407361e+01 1.422993e+01 1.027609e+01 -7.449637e-01 -8.834390e+00 -9.534878e+00 -8.838630e+00 -8.117963e+00 -7.815873e+00 -7.382362e+00 -7.241148e+00 -7.050751e+00 -6.961775e+00 -6.895046e+00 -6.829789e+00 -6.828825e+00 
-6.872251e+00 -6.929532e+00 -6.912832e+00 -6.998631e+00 -7.049048e+00 -7.160345e+00 -7.341567e+00 -7.503013e+00 -7.958186e+00 -8.252126e+00 -9.056437e+00 -9.482912e+00 -3.959548e+00 8.270375e+00 1.469293e+01 1.465423e+01 1.445424e+01 1.412445e+01 1.386919e+01 1.360110e+01 1.340801e+01 1.315998e+01 1.300364e+01 1.279293e+01 1.269181e+01 1.252624e+01 1.247042e+01 1.234636e+01 1.232190e+01 1.223130e+01 1.223461e+01 1.217407e+01 1.220558e+01 1.217409e+01 1.223491e+01 1.223169e+01 1.232262e+01 1.234735e+01 1.247050e+01 1.252747e+01 1.268966e+01 1.279437e+01 1.299908e+01 1.316237e+01 1.340142e+01 1.360388e+01 1.386266e+01 1.412363e+01 1.443820e+01 1.464250e+01 1.465532e+01 8.172423e+00 -3.951047e+00 -9.407084e+00 -9.037437e+00 -8.238841e+00 -7.954287e+00 -7.501219e+00 -7.340649e+00 -7.160671e+00 -7.048945e+00 -6.999165e+00 -6.912894e+00 -6.929750e+00 
-6.900577e+00 -6.978526e+00 -6.941868e+00 -7.049836e+00 -7.082574e+00 -7.213921e+00 -7.399821e+00 -7.548725e+00 -8.140204e+00 -8.215869e+00 -9.809507e+00 -7.567006e+00 4.320628e+00 1.450706e+01 1.544492e+01 1.503651e+01 1.472241e+01 1.439414e+01 1.414710e+01 1.384063e+01 1.363989e+01 1.337888e+01 1.323029e+01 1.300885e+01 1.289955e+01 1.271157e+01 1.263701e+01 1.248859e+01 1.244949e+01 1.234174e+01 1.233861e+01 1.226942e+01 1.230217e+01 1.226956e+01 1.233886e+01 1.234227e+01 1.244985e+01 1.248959e+01 1.263675e+01 1.271291e+01 1.289774e+01 1.301071e+01 1.322670e+01 1.338159e+01 1.363487e+01 1.384422e+01 1.414364e+01 1.440133e+01 1.472078e+01 1.505658e+01 1.543715e+01 1.451427e+01 4.427295e+00 -7.500264e+00 -9.811585e+00 -8.219911e+00 -8.139738e+00 -7.550677e+00 -7.398565e+00 -7.214699e+00 -7.081705e+00 -7.050160e+00 -6.941455e+00 -6.978616e+00 
-6.966275e+00 -7.067620e+00 -7.004920e+00 -7.139898e+00 -7.138142e+00 -7.303999e+00 -7.443360e+00 -7.629263e+00 -8.187748e+00 -8.255656e+00 -9.995461e+00 -3.437741e+00 1.074178e+01 1.642202e+01 1.547555e+01 1.534217e+01 1.492420e+01 1.461455e+01 1.434535e+01 1.403603e+01 1.384184e+01 1.356797e+01 1.342208e+01 1.319233e+01 1.308973e+01 1.290448e+01 1.284009e+01 1.269677e+01 1.266613e+01 1.256116e+01 1.256298e+01 1.249393e+01 1.252875e+01 1.249409e+01 1.256302e+01 1.256172e+01 1.266606e+01 1.269779e+01 1.283944e+01 1.290589e+01 1.308791e+01 1.319416e+01 1.341901e+01 1.357029e+01 1.383777e+01 1.403830e+01 1.434049e+01 1.461505e+01 1.491642e+01 1.533882e+01 1.546441e+01 1.641958e+01 1.075720e+01 -3.426223e+00 -1.001297e+01 -8.280616e+00 -8.192039e+00 -7.637418e+00 -7.445129e+00 -7.307814e+00 -7.139305e+00 -7.141907e+00 -7.005540e+00 -7.068266e+00 
-6.950801e+00 -7.080110e+00 -6.982205e+00 -7.149717e+00 -7.085914e+00 -7.308648e+00 -7.311997e+00 -7.639981e+00 -7.846694e+00 -8.401071e+00 -8.823339e+00 2.636253e+00 1.503872e+01 1.651780e+01 1.573734e+01 1.549671e+01 1.513369e+01 1.477267e+01 1.453384e+01 1.419149e+01 1.400930e+01 1.371744e+01 1.357711e+01 1.333342e+01 1.322708e+01 1.302574e+01 1.295186e+01 1.279258e+01 1.275321e+01 1.263618e+01 1.263358e+01 1.255794e+01 1.259368e+01 1.255809e+01 1.263347e+01 1.263666e+01 1.275282e+01 1.279337e+01 1.295078e+01 1.302679e+01 1.322490e+01 1.333473e+01 1.357372e+01 1.371896e+01 1.400502e+01 1.419306e+01 1.452976e+01 1.477424e+01 1.513098e+01 1.549671e+01 1.573990e+01 1.650297e+01 1.510107e+01 2.740641e+00 -8.837021e+00 -8.423812e+00 -7.844628e+00 -7.645087e+00 -7.309440e+00 -7.309528e+00 -7.084201e+00 -7.149808e+00 -6.981405e+00 -7.080106e+00 
-7.007071e+00 -7.158674e+00 -7.032169e+00 -7.228139e+00 -7.111894e+00 -7.386011e+00 -7.267178e+00 -7.719827e+00 -7.605588e+00 -8.563373e+00 -7.193662e+00 7.475236e+00 1.688596e+01 1.630940e+01 1.608400e+01 1.556227e+01 1.534097e+01 1.488993e+01 1.469482e+01 1.431959e+01 1.415661e+01 1.384914e+01 1.371800e+01 1.346718e+01 1.336767e+01 1.316565e+01 1.309844e+01 1.294114e+01 1.290737e+01 1.279213e+01 1.279316e+01 1.271787e+01 1.275513e+01 1.271808e+01 1.279304e+01 1.279276e+01 1.290702e+01 1.294224e+01 1.309766e+01 1.316724e+01 1.336630e+01 1.346934e+01 1.371619e+01 1.385194e+01 1.415485e+01 1.432305e+01 1.469395e+01 1.489411e+01 1.534225e+01 1.556819e+01 1.609116e+01 1.632105e+01 1.690232e+01 7.479141e+00 -7.218400e+00 -8.575058e+00 -7.614698e+00 -7.730305e+00 -7.272693e+00 -7.392217e+00 -7.114877e+00 -7.231412e+00 -7.033510e+00 -7.159702e+00 
-6.963435e+00 -7.137629e+00 -6.979213e+00 -7.197098e+00 -7.021247e+00 -7.324558e+00 -7.083941e+00 -7.583246e+00 -7.227506e+00 -8.292435e+00 -4.911085e+00 1.119806e+01 1.751607e+01 1.624636e+01 1.633151e+01 1.559618e+01 1.548199e+01 1.495677e+01 1.480293e+01 1.439693e+01 1.424938e+01 1.392627e+01 1.379950e+01 1.353723e+01 1.343529e+01 1.322209e+01 1.314907e+01 1.298130e+01 1.294190e+01 1.281860e+01 1.281654e+01 1.273675e+01 1.277453e+01 1.273690e+01 1.281623e+01 1.281901e+01 1.294114e+01 1.298194e+01 1.314761e+01 1.322288e+01 1.343288e+01 1.353802e+01 1.379598e+01 1.392675e+01 1.424475e+01 1.439648e+01 1.479706e+01 1.495413e+01 1.547388e+01 1.558869e+01 1.631772e+01 1.622953e+01 1.748334e+01 1.121265e+01 -4.869562e+00 -8.275803e+00 -7.221278e+00 -7.579931e+00 -7.080847e+00 -7.323357e+00 -7.019296e+00 -7.196550e+00 -6.978266e+00 -7.137466e+00 
-7.018369e+00 -7.202309e+00 -7.031039e+00 -7.261513e+00 -7.062633e+00 -7.383130e+00 -7.097002e+00 -7.610489e+00 -7.198160e+00 -8.262732e+00 -3.573182e+00 1.336565e+01 1.794311e+01 1.634531e+01 1.655854e+01 1.565485e+01 1.561299e+01 1.501738e+01 1.489495e+01 1.446116e+01 1.432795e+01 1.399380e+01 1.387455e+01 1.360880e+01 1.351245e+01 1.330007e+01 1.323223e+01 1.306713e+01 1.303213e+01 1.291137e+01 1.291213e+01 1.283352e+01 1.287211e+01 1.283374e+01 1.291195e+01 1.291205e+01 1.303170e+01 1.306830e+01 1.323147e+01 1.330178e+01 1.351138e+01 1.361117e+01 1.387348e+01 1.399703e+01 1.432758e+01 1.446562e+01 1.489659e+01 1.502396e+01 1.561903e+01 1.566577e+01 1.657364e+01 1.636551e+01 1.797583e+01 1.342186e+01 -3.570799e+00 -8.289367e+00 -7.216634e+00 -7.625537e+00 -7.106334e+00 -7.391366e+00 -7.067218e+00 -7.265679e+00 -7.032962e+00 -7.203591e+00 
-6.963977e+00 -7.155284e+00 -6.972383e+00 -7.206457e+00 -6.985923e+00 -7.304269e+00 -6.979967e+00 -7.471610e+00 -7.010478e+00 -7.996035e+00 -2.896991e+00 1.394850e+01 1.789995e+01 1.631807e+01 1.655330e+01 1.564127e+01 1.561589e+01 1.501672e+01 1.490166e+01 1.446558e+01 1.433431e+01 1.399737e+01 1.387691e+01 1.360699e+01 1.350708e+01 1.328911e+01 1.321649e+01 1.304547e+01 1.300609e+01 1.288052e+01 1.287867e+01 1.279744e+01 1.283593e+01 1.279757e+01 1.287830e+01 1.288091e+01 1.300522e+01 1.304606e+01 1.321492e+01 1.328980e+01 1.350458e+01 1.360758e+01 1.387331e+01 1.399745e+01 1.432945e+01 1.446436e+01 1.489505e+01 1.501266e+01 1.560598e+01 1.563150e+01 1.653640e+01 1.629788e+01 1.786957e+01 1.394497e+01 -2.883853e+00 -7.992921e+00 -7.010697e+00 -7.469296e+00 -6.978153e+00 -7.302901e+00 -6.984225e+00 -7.205755e+00 -6.971463e+00 -7.155069e+00 