# vtk DataFile Version 2.0
Comment goes here
ASCII

DATASET STRUCTURED_POINTS
FIELD FieldData 1
TIME 1 1 double
0.68000000
DIMENSIONS    64   64   1

ORIGIN    0.000   0.000   0.000
SPACING   0.015625 0.015625   1.000

POINT_DATA   4096
SCALARS P double
LOOKUP_TABLE default

-4.363964e+00 -4.355376e+00 -4.359255e+00 -4.345900e+00 -4.345020e+00 -4.326851e+00 -4.320846e+00 -4.297697e+00 -4.286127e+00 -4.257780e+00 -4.240194e+00 -4.206504e+00 -4.182533e+00 -4.143621e+00 -4.113107e+00 -4.069608e+00 -4.032765e+00 -3.986091e+00 -3.943685e+00 -3.896198e+00 -3.849679e+00 -3.804612e+00 -3.756105e+00 -3.717087e+00 -3.669197e+00 -3.639439e+00 -3.594925e+00 -3.576476e+00 -3.538049e+00 -3.531717e+00 -3.502159e+00 -3.507992e+00 -3.489973e+00 -3.507373e+00 -3.502585e+00 -3.530033e+00 -3.538709e+00 -3.574157e+00 -3.595519e+00 -3.636991e+00 -3.669482e+00 -3.714962e+00 -3.756013e+00 -3.803126e+00 -3.849306e+00 -3.895489e+00 -3.943192e+00 -3.986133e+00 -4.032297e+00 -4.070259e+00 -4.112752e+00 -4.144683e+00 -4.182318e+00 -4.207766e+00 -4.240102e+00 -4.259054e+00 -4.286121e+00 -4.298831e+00 -4.320884e+00 -4.327733e+00 -4.345066e+00 -4.346457e+00 -4.359285e+00 -4.355566e+00 
-4.367786e+00 -4.358574e+00 -4.363301e+00 -4.349227e+00 -4.349079e+00 -4.330074e+00 -4.324630e+00 -4.300489e+00 -4.289224e+00 -4.259673e+00 -4.242022e+00 -4.206849e+00 -4.182298e+00 -4.141547e+00 -4.109761e+00 -4.063987e+00 -4.024985e+00 -3.975529e+00 -3.929888e+00 -3.879059e+00 -3.828107e+00 -3.779128e+00 -3.725035e+00 -3.681625e+00 -3.627341e+00 -3.593016e+00 -3.542050e+00 -3.519474e+00 -3.475610e+00 -3.466370e+00 -3.433289e+00 -3.438063e+00 -3.418856e+00 -3.437382e+00 -3.433725e+00 -3.464505e+00 -3.476268e+00 -3.516857e+00 -3.542575e+00 -3.590131e+00 -3.627386e+00 -3.678853e+00 -3.724398e+00 -3.776680e+00 -3.826768e+00 -3.876996e+00 -3.927959e+00 -3.973812e+00 -4.022647e+00 -4.062545e+00 -4.107217e+00 -4.140314e+00 -4.179744e+00 -4.205786e+00 -4.239632e+00 -4.258769e+00 -4.287144e+00 -4.299754e+00 -4.322975e+00 -4.329528e+00 -4.347930e+00 -4.348889e+00 -4.362713e+00 -4.358460e+00 
-4.370048e+00 -4.361399e+00 -4.365369e+00 -4.351987e+00 -4.351221e+00 -4.333049e+00 -4.327160e+00 -4.304000e+00 -4.292520e+00 -4.264101e+00 -4.246550e+00 -4.212656e+00 -4.188630e+00 -4.149294e+00 -4.118600e+00 -4.074375e+00 -4.037187e+00 -3.989441e+00 -3.946482e+00 -3.897609e+00 -3.850285e+00 -3.803661e+00 -3.754064e+00 -3.713566e+00 -3.664302e+00 -3.633396e+00 -3.587292e+00 -3.568147e+00 -3.528039e+00 -3.521455e+00 -3.490417e+00 -3.496483e+00 -3.477598e+00 -3.495773e+00 -3.490933e+00 -3.519540e+00 -3.528831e+00 -3.565551e+00 -3.587987e+00 -3.630703e+00 -3.664610e+00 -3.711279e+00 -3.753928e+00 -3.802110e+00 -3.849837e+00 -3.896917e+00 -3.945921e+00 -3.989555e+00 -4.036678e+00 -4.075126e+00 -4.118233e+00 -4.150461e+00 -4.188425e+00 -4.214014e+00 -4.246480e+00 -4.265456e+00 -4.292540e+00 -4.305194e+00 -4.327221e+00 -4.333973e+00 -4.351284e+00 -4.352568e+00 -4.365407e+00 -4.361597e+00 
-4.380130e+00 -4.370803e+00 -4.375744e+00 -4.361641e+00 -4.361779e+00 -4.342808e+00 -4.337681e+00 -4.313573e+00 -4.302607e+00 -4.272984e+00 -4.255553e+00 -4.220052e+00 -4.195575e+00 -4.154060e+00 -4.122117e+00 -4.074970e+00 -4.035473e+00 -3.983929e+00 -3.937309e+00 -3.883719e+00 -3.831113e+00 -3.778925e+00 -3.722301e+00 -3.675614e+00 -3.617821e+00 -3.580572e+00 -3.525343e+00 -3.500587e+00 -3.452452e+00 -3.442078e+00 -3.405616e+00 -3.410519e+00 -3.389600e+00 -3.409654e+00 -3.406254e+00 -3.439750e+00 -3.453430e+00 -3.497433e+00 -3.526174e+00 -3.577267e+00 -3.618049e+00 -3.672621e+00 -3.721689e+00 -3.776426e+00 -3.829671e+00 -3.881699e+00 -3.935204e+00 -3.982287e+00 -4.032933e+00 -4.073593e+00 -4.119378e+00 -4.152867e+00 -4.192851e+00 -4.219006e+00 -4.253027e+00 -4.272081e+00 -4.300425e+00 -4.312831e+00 -4.335954e+00 -4.342252e+00 -4.360587e+00 -4.361297e+00 -4.375136e+00 -4.370686e+00 
-4.388258e+00 -4.379424e+00 -4.383683e+00 -4.370237e+00 -4.369839e+00 -4.351692e+00 -4.346183e+00 -4.323049e+00 -4.311881e+00 -4.283332e+00 -4.265930e+00 -4.231522e+00 -4.207383e+00 -4.166868e+00 -4.135685e+00 -4.089339e+00 -4.051166e+00 -4.000177e+00 -3.955608e+00 -3.902434e+00 -3.852735e+00 -3.801196e+00 -3.748329e+00 -3.703133e+00 -3.649673e+00 -3.615192e+00 -3.564169e+00 -3.542914e+00 -3.497422e+00 -3.490010e+00 -3.454099e+00 -3.460797e+00 -3.439114e+00 -3.459770e+00 -3.454929e+00 -3.487302e+00 -3.498678e+00 -3.539391e+00 -3.565207e+00 -3.611708e+00 -3.650046e+00 -3.700347e+00 -3.748022e+00 -3.799467e+00 -3.852027e+00 -3.901824e+00 -3.954824e+00 -4.000538e+00 -4.050529e+00 -4.090413e+00 -4.135289e+00 -4.168367e+00 -4.207219e+00 -4.233179e+00 -4.265939e+00 -4.284930e+00 -4.311986e+00 -4.324427e+00 -4.346318e+00 -4.352740e+00 -4.369954e+00 -4.370889e+00 -4.383747e+00 -4.379645e+00 
-4.404693e+00 -4.395130e+00 -4.400530e+00 -4.386400e+00 -4.387157e+00 -4.368326e+00 -4.363897e+00 -4.339981e+00 -4.329689e+00 -4.300094e+00 -4.283197e+00 -4.247247e+00 -4.223026e+00 -4.180184e+00 -4.148058e+00 -4.098294e+00 -4.057970e+00 -4.002232e+00 -3.953857e+00 -3.894527e+00 -3.838824e+00 -3.779840e+00 -3.718251e+00 -3.664566e+00 -3.599504e+00 -3.555958e+00 -3.491386e+00 -3.461897e+00 -3.404242e+00 -3.391344e+00 -3.347319e+00 -3.352359e+00 -3.327716e+00 -3.351030e+00 -3.348440e+00 -3.387863e+00 -3.405980e+00 -3.457455e+00 -3.492928e+00 -3.551720e+00 -3.600132e+00 -3.661167e+00 -3.717661e+00 -3.777317e+00 -3.837130e+00 -3.892667e+00 -3.951357e+00 -4.000782e+00 -4.054998e+00 -4.097063e+00 -4.144914e+00 -4.179073e+00 -4.219958e+00 -4.246229e+00 -4.280400e+00 -4.299186e+00 -4.327307e+00 -4.339218e+00 -4.362033e+00 -4.367748e+00 -4.385880e+00 -4.386039e+00 -4.399882e+00 -4.395007e+00 
-4.418433e+00 -4.409277e+00 -4.414073e+00 -4.400565e+00 -4.400869e+00 -4.382883e+00 -4.378123e+00 -4.355236e+00 -4.344724e+00 -4.316246e+00 -4.299250e+00 -4.264336e+00 -4.240178e+00 -4.198054e+00 -4.166234e+00 -4.116595e+00 -4.076962e+00 -4.020536e+00 -3.973460e+00 -3.912650e+00 -3.859139e+00 -3.798484e+00 -3.740176e+00 -3.686091e+00 -3.625340e+00 -3.584375e+00 -3.524690e+00 -3.499927e+00 -3.444242e+00 -3.435241e+00 -3.389539e+00 -3.396994e+00 -3.369891e+00 -3.395259e+00 -3.391067e+00 -3.430796e+00 -3.446548e+00 -3.494517e+00 -3.526445e+00 -3.579380e+00 -3.625766e+00 -3.682450e+00 -3.739432e+00 -3.796540e+00 -3.857872e+00 -3.912292e+00 -3.972248e+00 -4.021413e+00 -4.076118e+00 -4.118286e+00 -4.165827e+00 -4.200157e+00 -4.240127e+00 -4.266518e+00 -4.299423e+00 -4.318260e+00 -4.344993e+00 -4.356917e+00 -4.378392e+00 -4.384132e+00 -4.401076e+00 -4.401331e+00 -4.414184e+00 -4.409535e+00 
-4.441151e+00 -4.431215e+00 -4.437382e+00 -4.423277e+00 -4.425087e+00 -4.406644e+00 -4.403424e+00 -4.380102e+00 -4.371021e+00 -4.341916e+00 -4.326056e+00 -4.289989e+00 -4.266431e+00 -4.222178e+00 -4.190116e+00 -4.136854e+00 -4.095723e+00 -4.033734e+00 -3.983287e+00 -3.914812e+00 -3.855106e+00 -3.784866e+00 -3.716252e+00 -3.650773e+00 -3.574267e+00 -3.519855e+00 -3.438662e+00 -3.400960e+00 -3.326234e+00 -3.309085e+00 -3.251635e+00 -3.256681e+00 -3.225696e+00 -3.254350e+00 -3.253729e+00 -3.303140e+00 -3.329467e+00 -3.393907e+00 -3.441516e+00 -3.513958e+00 -3.575544e+00 -3.646942e+00 -3.715582e+00 -3.782567e+00 -3.852890e+00 -3.913389e+00 -3.980088e+00 -4.032678e+00 -4.092037e+00 -4.135879e+00 -4.186335e+00 -4.221188e+00 -4.262842e+00 -4.288998e+00 -4.322860e+00 -4.340983e+00 -4.368353e+00 -4.379296e+00 -4.401369e+00 -4.406024e+00 -4.423696e+00 -4.422888e+00 -4.436681e+00 -4.431082e+00 
-4.460184e+00 -4.450535e+00 -4.456211e+00 -4.442696e+00 -4.444174e+00 -4.426649e+00 -4.423182e+00 -4.401067e+00 -4.391765e+00 -4.364023e+00 -4.347934e+00 -4.313131e+00 -4.289331e+00 -4.245847e+00 -4.213560e+00 -4.160044e+00 -4.118815e+00 -4.054954e+00 -4.004826e+00 -3.932440e+00 -3.874016e+00 -3.798315e+00 -3.732492e+00 -3.662868e+00 -3.590951e+00 -3.539474e+00 -3.467036e+00 -3.437903e+00 -3.364995e+00 -3.353513e+00 -3.289667e+00 -3.297202e+00 -3.260589e+00 -3.293949e+00 -3.292658e+00 -3.345391e+00 -3.369560e+00 -3.428978e+00 -3.470075e+00 -3.531885e+00 -3.591172e+00 -3.658050e+00 -3.730683e+00 -3.796326e+00 -3.871664e+00 -3.932729e+00 -4.002923e+00 -4.056800e+00 -4.117731e+00 -4.162773e+00 -4.213247e+00 -4.248904e+00 -4.289548e+00 -4.316103e+00 -4.348419e+00 -4.366637e+00 -4.392313e+00 -4.403168e+00 -4.423663e+00 -4.428167e+00 -4.444520e+00 -4.443608e+00 -4.456390e+00 -4.450839e+00 
-4.488847e+00 -4.478355e+00 -4.485705e+00 -4.471730e+00 -4.475183e+00 -4.457561e+00 -4.456258e+00 -4.434300e+00 -4.427206e+00 -4.399632e+00 -4.385602e+00 -4.350550e+00 -4.328418e+00 -4.283615e+00 -4.252313e+00 -4.195548e+00 -4.154229e+00 -4.084325e+00 -4.032337e+00 -3.950747e+00 -3.887275e+00 -3.799772e+00 -3.723303e+00 -3.639362e+00 -3.547551e+00 -3.475059e+00 -3.364576e+00 -3.313306e+00 -3.209661e+00 -3.187045e+00 -3.107864e+00 -3.113096e+00 -3.072293e+00 -3.108619e+00 -3.111932e+00 -3.175797e+00 -3.215739e+00 -3.300956e+00 -3.369549e+00 -3.466329e+00 -3.549613e+00 -3.635667e+00 -3.722178e+00 -3.798440e+00 -3.884057e+00 -3.950328e+00 -4.028010e+00 -4.083983e+00 -4.149493e+00 -4.194955e+00 -4.247647e+00 -4.282759e+00 -4.324138e+00 -4.349552e+00 -4.381901e+00 -4.398632e+00 -4.424193e+00 -4.433414e+00 -4.453984e+00 -4.456874e+00 -4.473665e+00 -4.471299e+00 -4.484946e+00 -4.478208e+00 
-4.512719e+00 -4.502334e+00 -4.509384e+00 -4.495957e+00 -4.499284e+00 -4.482717e+00 -4.481336e+00 -4.460929e+00 -4.453695e+00 -4.428038e+00 -4.413730e+00 -4.380652e+00 -4.358056e+00 -4.314741e+00 -4.282740e+00 -4.226141e+00 -4.183848e+00 -4.111554e+00 -4.058527e+00 -3.970330e+00 -3.906699e+00 -3.807141e+00 -3.732533e+00 -3.634755e+00 -3.545473e+00 -3.477512e+00 -3.390584e+00 -3.359727e+00 -3.258808e+00 -3.244717e+00 -3.146725e+00 -3.150905e+00 -3.097688e+00 -3.144348e+00 -3.152735e+00 -3.228309e+00 -3.268456e+00 -3.344529e+00 -3.395507e+00 -3.465439e+00 -3.544297e+00 -3.628751e+00 -3.728220e+00 -3.805782e+00 -3.902407e+00 -3.972071e+00 -4.055686e+00 -4.115106e+00 -4.182668e+00 -4.230515e+00 -4.282827e+00 -4.319209e+00 -4.358849e+00 -4.384722e+00 -4.414765e+00 -4.431435e+00 -4.454678e+00 -4.463545e+00 -4.482121e+00 -4.484543e+00 -4.499816e+00 -4.497029e+00 -4.509649e+00 -4.502686e+00 
-4.546599e+00 -4.535273e+00 -4.544383e+00 -4.530666e+00 -4.536562e+00 -4.520389e+00 -4.521977e+00 -4.502600e+00 -4.498598e+00 -4.474401e+00 -4.463415e+00 -4.431771e+00 -4.412374e+00 -4.369622e+00 -4.340486e+00 -4.282192e+00 -4.242233e+00 -4.164154e+00 -4.112461e+00 -4.013267e+00 -3.948219e+00 -3.834691e+00 -3.752676e+00 -3.641792e+00 -3.537305e+00 -3.434358e+00 -3.267772e+00 -3.194526e+00 -3.044085e+00 -3.020315e+00 -2.909270e+00 -2.916412e+00 -2.861459e+00 -2.907377e+00 -2.917550e+00 -2.997231e+00 -3.055916e+00 -3.171240e+00 -3.275528e+00 -3.420571e+00 -3.539621e+00 -3.640963e+00 -3.750117e+00 -3.835941e+00 -3.943215e+00 -4.014782e+00 -4.106478e+00 -4.164939e+00 -4.236101e+00 -4.282068e+00 -4.334717e+00 -4.368846e+00 -4.407276e+00 -4.430680e+00 -4.459150e+00 -4.473258e+00 -4.495224e+00 -4.501581e+00 -4.519490e+00 -4.519603e+00 -4.534932e+00 -4.530174e+00 -4.543578e+00 -4.535106e+00 
-4.574638e+00 -4.563128e+00 -4.572272e+00 -4.559002e+00 -4.565131e+00 -4.550183e+00 -4.552006e+00 -4.534707e+00 -4.530790e+00 -4.509470e+00 -4.498341e+00 -4.470102e+00 -4.450317e+00 -4.410915e+00 -4.381023e+00 -4.324970e+00 -4.283368e+00 -4.204449e+00 -4.149617e+00 -4.042544e+00 -3.974521e+00 -3.838593e+00 -3.758308e+00 -3.603433e+00 -3.479901e+00 -3.386951e+00 -3.302028e+00 -3.289261e+00 -3.144235e+00 -3.132019e+00 -2.965007e+00 -2.950190e+00 -2.866271e+00 -2.936845e+00 -2.976889e+00 -3.095092e+00 -3.167031e+00 -3.265067e+00 -3.308724e+00 -3.366262e+00 -3.473316e+00 -3.597741e+00 -3.748518e+00 -3.839623e+00 -3.967152e+00 -4.047158e+00 -4.145885e+00 -4.210821e+00 -4.282690e+00 -4.331839e+00 -4.382216e+00 -4.417383e+00 -4.452248e+00 -4.475619e+00 -4.500282e+00 -4.513812e+00 -4.532397e+00 -4.537882e+00 -4.553178e+00 -4.552309e+00 -4.565878e+00 -4.560213e+00 -4.572632e+00 -4.563520e+00 
-4.612492e+00 -4.599866e+00 -4.611552e+00 -4.598140e+00 -4.607556e+00 -4.593576e+00 -4.599347e+00 -4.584215e+00 -4.584819e+00 -4.566835e+00 -4.560687e+00 -4.536665e+00 -4.522167e+00 -4.487019e+00 -4.462572e+00 -4.408715e+00 -4.372763e+00 -4.289666e+00 -4.241040e+00 -4.118543e+00 -4.055350e+00 -3.898623e+00 -3.815562e+00 -3.672173e+00 -3.595193e+00 -3.437865e+00 -3.139174e+00 -3.029043e+00 -2.811600e+00 -2.815984e+00 -2.667057e+00 -2.678953e+00 -2.604656e+00 -2.661339e+00 -2.684528e+00 -2.765862e+00 -2.837761e+00 -2.984306e+00 -3.149441e+00 -3.413972e+00 -3.595550e+00 -3.685135e+00 -3.809507e+00 -3.904483e+00 -4.047380e+00 -4.123094e+00 -4.232855e+00 -4.291908e+00 -4.364983e+00 -4.408974e+00 -4.455598e+00 -4.486140e+00 -4.516232e+00 -4.535323e+00 -4.555888e+00 -4.565444e+00 -4.581143e+00 -4.583002e+00 -4.596713e+00 -4.592657e+00 -4.605867e+00 -4.597572e+00 -4.610729e+00 -4.599675e+00 
-4.643709e+00 -4.630437e+00 -4.642705e+00 -4.629511e+00 -4.639731e+00 -4.627102e+00 -4.633621e+00 -4.621224e+00 -4.622331e+00 -4.608621e+00 -4.602739e+00 -4.584476e+00 -4.570252e+00 -4.541894e+00 -4.517733e+00 -4.470554e+00 -4.433053e+00 -4.354152e+00 -4.297713e+00 -4.171944e+00 -4.096884e+00 -3.912956e+00 -3.855928e+00 -3.561109e+00 -3.321784e+00 -3.184309e+00 -3.203905e+00 -3.298849e+00 -3.082911e+00 -3.089830e+00 -2.761701e+00 -2.650867e+00 -2.499170e+00 -2.627916e+00 -2.781549e+00 -2.995116e+00 -3.146527e+00 -3.275841e+00 -3.209141e+00 -3.142217e+00 -3.299345e+00 -3.564436e+00 -3.835417e+00 -3.919884e+00 -4.085455e+00 -4.181387e+00 -4.293936e+00 -4.364784e+00 -4.434367e+00 -4.481050e+00 -4.521438e+00 -4.551129e+00 -4.574247e+00 -4.591811e+00 -4.606047e+00 -4.613993e+00 -4.624731e+00 -4.624896e+00 -4.635211e+00 -4.629424e+00 -4.640677e+00 -4.630779e+00 -4.643142e+00 -4.630838e+00 
-4.683692e+00 -4.668983e+00 -4.684381e+00 -4.671067e+00 -4.685398e+00 -4.674255e+00 -4.685842e+00 -4.676874e+00 -4.684046e+00 -4.676062e+00 -4.677306e+00 -4.667334e+00 -4.661211e+00 -4.643467e+00 -4.627726e+00 -4.590874e+00 -4.561151e+00 -4.482534e+00 -4.436528e+00 -4.281336e+00 -4.221701e+00 -3.968599e+00 -3.856811e+00 -3.705187e+00 -3.888506e+00 -3.601529e+00 -2.686524e+00 -1.948948e+00 -4.624967e-01 5.893021e-01 1.649878e+00 2.421963e+00 2.697978e+00 2.442130e+00 1.713893e+00 7.087649e-01 -4.997223e-01 -1.742162e+00 -2.634297e+00 -3.547601e+00 -3.885804e+00 -3.776522e+00 -3.841708e+00 -3.973551e+00 -4.208755e+00 -4.289967e+00 -4.425478e+00 -4.486033e+00 -4.551568e+00 -4.590949e+00 -4.619648e+00 -4.642099e+00 -4.654604e+00 -4.665536e+00 -4.672152e+00 -4.674320e+00 -4.680237e+00 -4.675415e+00 -4.683204e+00 -4.673180e+00 -4.683751e+00 -4.670414e+00 -4.683593e+00 -4.668765e+00 
-4.716718e+00 -4.700637e+00 -4.717479e+00 -4.703893e+00 -4.719897e+00 -4.710020e+00 -4.723119e+00 -4.717497e+00 -4.725759e+00 -4.723789e+00 -4.725873e+00 -4.724991e+00 -4.720405e+00 -4.714440e+00 -4.701800e+00 -4.677100e+00 -4.647712e+00 -4.578812e+00 -4.513751e+00 -4.371602e+00 -4.247914e+00 -4.063469e+00 -4.243785e+00 -3.323511e+00 -1.085273e+00 1.419951e+00 4.974376e+00 7.300486e+00 9.150426e+00 1.050407e+01 1.117435e+01 1.184786e+01 1.189559e+01 1.183267e+01 1.126403e+01 1.048015e+01 9.194841e+00 7.566361e+00 4.973340e+00 1.616624e+00 -1.041674e+00 -3.327126e+00 -4.196591e+00 -4.078828e+00 -4.233141e+00 -4.387276e+00 -4.511904e+00 -4.594968e+00 -4.653700e+00 -4.692567e+00 -4.710452e+00 -4.727447e+00 -4.727792e+00 -4.734497e+00 -4.730994e+00 -4.730093e+00 -4.728974e+00 -4.721400e+00 -4.725016e+00 -4.712280e+00 -4.720932e+00 -4.705047e+00 -4.717932e+00 -4.700990e+00 
-4.756369e+00 -4.738304e+00 -4.758959e+00 -4.744996e+00 -4.765976e+00 -4.757807e+00 -4.777127e+00 -4.775986e+00 -4.792017e+00 -4.798252e+00 -4.810198e+00 -4.822500e+00 -4.829961e+00 -4.843448e+00 -4.841614e+00 -4.841479e+00 -4.812511e+00 -4.761366e+00 -4.703656e+00 -4.527421e+00 -4.511315e+00 -3.581444e+00 -1.002563e+00 2.784310e+00 7.340462e+00 1.007611e+01 1.197069e+01 1.274395e+01 1.274972e+01 1.283727e+01 1.265381e+01 1.273745e+01 1.262670e+01 1.271462e+01 1.268332e+01 1.276054e+01 1.279030e+01 1.278188e+01 1.192560e+01 1.025865e+01 7.440291e+00 3.123674e+00 -7.923878e-01 -3.497400e+00 -4.491022e+00 -4.549600e+00 -4.688864e+00 -4.764006e+00 -4.800576e+00 -4.839395e+00 -4.832685e+00 -4.840970e+00 -4.823114e+00 -4.820121e+00 -4.805076e+00 -4.796137e+00 -4.788395e+00 -4.774278e+00 -4.774725e+00 -4.756576e+00 -4.764530e+00 -4.744260e+00 -4.758283e+00 -4.738060e+00 
-4.789455e+00 -4.768932e+00 -4.792312e+00 -4.777151e+00 -4.801080e+00 -4.793592e+00 -4.815531e+00 -4.817919e+00 -4.835718e+00 -4.849708e+00 -4.862633e+00 -4.888230e+00 -4.897610e+00 -4.928830e+00 -4.933174e+00 -4.946337e+00 -4.927030e+00 -4.879953e+00 -4.818575e+00 -4.511830e+00 -2.583594e+00 2.311229e+00 7.902257e+00 1.105904e+01 1.272411e+01 1.300188e+01 1.283772e+01 1.261291e+01 1.244396e+01 1.245090e+01 1.238298e+01 1.250169e+01 1.243663e+01 1.249177e+01 1.240181e+01 1.242802e+01 1.245920e+01 1.260757e+01 1.282280e+01 1.301040e+01 1.275267e+01 1.131081e+01 8.071727e+00 2.678400e+00 -2.402805e+00 -4.523785e+00 -4.822107e+00 -4.901832e+00 -4.941582e+00 -4.967902e+00 -4.950502e+00 -4.946928e+00 -4.909848e+00 -4.900085e+00 -4.869601e+00 -4.856430e+00 -4.839358e+00 -4.821424e+00 -4.817358e+00 -4.795303e+00 -4.801953e+00 -4.777904e+00 -4.792661e+00 -4.769142e+00 
-4.825842e+00 -4.802469e+00 -4.830419e+00 -4.814151e+00 -4.843858e+00 -4.837663e+00 -4.866770e+00 -4.873952e+00 -4.900998e+00 -4.924904e+00 -4.950847e+00 -4.993412e+00 -5.021143e+00 -5.078024e+00 -5.096279e+00 -5.149114e+00 -5.094199e+00 -5.129729e+00 -4.555071e+00 -1.173589e+00 5.111226e+00 1.045798e+01 1.294114e+01 1.305796e+01 1.285057e+01 1.267316e+01 1.273342e+01 1.283941e+01 1.282675e+01 1.290612e+01 1.282607e+01 1.289713e+01 1.282242e+01 1.288699e+01 1.283561e+01 1.288222e+01 1.283465e+01 1.283698e+01 1.271433e+01 1.267253e+01 1.284617e+01 1.305407e+01 1.292955e+01 1.069682e+01 5.335906e+00 -8.874254e-01 -4.440643e+00 -5.115169e+00 -5.078039e+00 -5.139029e+00 -5.086659e+00 -5.073924e+00 -5.014804e+00 -4.990784e+00 -4.946433e+00 -4.922606e+00 -4.898069e+00 -4.872061e+00 -4.864954e+00 -4.836303e+00 -4.842826e+00 -4.813347e+00 -4.829955e+00 -4.802205e+00 
-4.856997e+00 -4.829650e+00 -4.862110e+00 -4.843093e+00 -4.877597e+00 -4.870579e+00 -4.904039e+00 -4.913787e+00 -4.943557e+00 -4.976137e+00 -5.001753e+00 -5.062510e+00 -5.086328e+00 -5.168745e+00 -5.183699e+00 -5.242927e+00 -5.215751e+00 -4.583623e+00 -5.861987e-01 6.775717e+00 1.207568e+01 1.322318e+01 1.317323e+01 1.294611e+01 1.300648e+01 1.298544e+01 1.292161e+01 1.285506e+01 1.276134e+01 1.276240e+01 1.269273e+01 1.274585e+01 1.268890e+01 1.274204e+01 1.269898e+01 1.275460e+01 1.276644e+01 1.285341e+01 1.291895e+01 1.299283e+01 1.300652e+01 1.296224e+01 1.315418e+01 1.322337e+01 1.216373e+01 7.299445e+00 -2.033111e-01 -4.507128e+00 -5.244181e+00 -5.270523e+00 -5.215322e+00 -5.193697e+00 -5.103691e+00 -5.076150e+00 -5.009228e+00 -4.981838e+00 -4.946437e+00 -4.915672e+00 -4.905063e+00 -4.870965e+00 -4.877918e+00 -4.843043e+00 -4.862189e+00 -4.829595e+00 
-4.887098e+00 -4.855659e+00 -4.893499e+00 -4.871977e+00 -4.912912e+00 -4.905736e+00 -4.946775e+00 -4.960312e+00 -4.999514e+00 -5.042312e+00 -5.082490e+00 -5.160702e+00 -5.213356e+00 -5.310076e+00 -5.371004e+00 -5.447334e+00 -4.974179e+00 -7.530244e-01 7.481010e+00 1.253436e+01 1.338032e+01 1.325009e+01 1.326740e+01 1.317535e+01 1.310701e+01 1.303676e+01 1.301413e+01 1.303863e+01 1.300449e+01 1.305374e+01 1.299806e+01 1.305343e+01 1.299563e+01 1.304919e+01 1.300008e+01 1.304462e+01 1.300391e+01 1.303434e+01 1.300449e+01 1.303431e+01 1.309481e+01 1.317118e+01 1.324271e+01 1.324358e+01 1.336682e+01 1.270130e+01 7.767287e+00 -4.072299e-01 -4.870734e+00 -5.425499e+00 -5.361098e+00 -5.307052e+00 -5.208566e+00 -5.159370e+00 -5.079832e+00 -5.040258e+00 -4.998022e+00 -4.958329e+00 -4.946006e+00 -4.904281e+00 -4.912549e+00 -4.871129e+00 -4.893358e+00 -4.855384e+00 
-4.914417e+00 -4.877103e+00 -4.921714e+00 -4.895175e+00 -4.943532e+00 -4.932623e+00 -4.981116e+00 -4.993860e+00 -5.038539e+00 -5.087925e+00 -5.126259e+00 -5.226949e+00 -5.257181e+00 -5.398433e+00 -5.400801e+00 -5.404866e+00 -2.058926e+00 6.296713e+00 1.263638e+01 1.347844e+01 1.341173e+01 1.338018e+01 1.330628e+01 1.322183e+01 1.318374e+01 1.314590e+01 1.308408e+01 1.305905e+01 1.298647e+01 1.299425e+01 1.293034e+01 1.296740e+01 1.291594e+01 1.296589e+01 1.293190e+01 1.299133e+01 1.298703e+01 1.305848e+01 1.308139e+01 1.314911e+01 1.317915e+01 1.322686e+01 1.329620e+01 1.337995e+01 1.340402e+01 1.348149e+01 1.275457e+01 6.921964e+00 -1.669956e+00 -5.420522e+00 -5.459357e+00 -5.434060e+00 -5.273534e+00 -5.239107e+00 -5.129681e+00 -5.089203e+00 -5.038460e+00 -4.992117e+00 -4.980382e+00 -4.930709e+00 -4.942899e+00 -4.893909e+00 -4.921375e+00 -4.876672e+00 
-4.935803e+00 -4.892827e+00 -4.943672e+00 -4.912452e+00 -4.967873e+00 -4.953840e+00 -5.009862e+00 -5.023303e+00 -5.074734e+00 -5.134175e+00 -5.177776e+00 -5.301942e+00 -5.356015e+00 -5.471699e+00 -5.733179e+00 -3.980455e+00 4.382912e+00 1.203879e+01 1.363369e+01 1.353422e+01 1.353438e+01 1.343690e+01 1.341081e+01 1.334513e+01 1.329180e+01 1.325691e+01 1.320951e+01 1.321901e+01 1.317049e+01 1.320514e+01 1.315211e+01 1.319842e+01 1.314643e+01 1.319662e+01 1.315156e+01 1.320121e+01 1.316761e+01 1.321609e+01 1.320227e+01 1.325496e+01 1.328100e+01 1.334321e+01 1.339470e+01 1.343547e+01 1.351555e+01 1.353790e+01 1.361194e+01 1.228121e+01 4.715660e+00 -3.772085e+00 -5.713657e+00 -5.483254e+00 -5.353623e+00 -5.304129e+00 -5.178514e+00 -5.132307e+00 -5.075731e+00 -5.021110e+00 -5.010687e+00 -4.952304e+00 -4.968430e+00 -4.911611e+00 -4.943950e+00 -4.892564e+00 
-4.957949e+00 -4.907154e+00 -4.967162e+00 -4.928199e+00 -4.994388e+00 -4.972126e+00 -5.041021e+00 -5.046204e+00 -5.111571e+00 -5.166949e+00 -5.217686e+00 -5.357364e+00 -5.375375e+00 -5.576476e+00 -5.384714e+00 3.625376e-01 1.022209e+01 1.375926e+01 1.365204e+01 1.366139e+01 1.355887e+01 1.353103e+01 1.344305e+01 1.340379e+01 1.332959e+01 1.330765e+01 1.323388e+01 1.322867e+01 1.315697e+01 1.317315e+01 1.310993e+01 1.314612e+01 1.309488e+01 1.314542e+01 1.310951e+01 1.317172e+01 1.315515e+01 1.322792e+01 1.322972e+01 1.330815e+01 1.332312e+01 1.340475e+01 1.343417e+01 1.353129e+01 1.355161e+01 1.366519e+01 1.365548e+01 1.379767e+01 1.065319e+01 1.060721e+00 -5.270867e+00 -5.631713e+00 -5.354815e+00 -5.354411e+00 -5.208361e+00 -5.156954e+00 -5.106545e+00 -5.038451e+00 -5.038100e+00 -4.967235e+00 -4.992715e+00 -4.925569e+00 -4.966391e+00 -4.906328e+00 
-4.969602e+00 -4.911578e+00 -4.978642e+00 -4.932222e+00 -5.006607e+00 -4.976067e+00 -5.054068e+00 -5.051628e+00 -5.122093e+00 -5.183085e+00 -5.205446e+00 -5.432564e+00 -5.232333e+00 -5.972007e+00 -3.391600e+00 6.243254e+00 1.352579e+01 1.389988e+01 1.380795e+01 1.373287e+01 1.366506e+01 1.360531e+01 1.353671e+01 1.349969e+01 1.342844e+01 1.341513e+01 1.334941e+01 1.336192e+01 1.330116e+01 1.333296e+01 1.327579e+01 1.331984e+01 1.326761e+01 1.331909e+01 1.327455e+01 1.333129e+01 1.329802e+01 1.336052e+01 1.334370e+01 1.341432e+01 1.342030e+01 1.349914e+01 1.352634e+01 1.360411e+01 1.365493e+01 1.372672e+01 1.380543e+01 1.386561e+01 1.367425e+01 6.719088e+00 -3.215205e+00 -6.001598e+00 -5.240405e+00 -5.431778e+00 -5.213347e+00 -5.178755e+00 -5.127027e+00 -5.048765e+00 -5.056960e+00 -4.974575e+00 -5.008220e+00 -4.931551e+00 -4.979371e+00 -4.911390e+00 
-4.986276e+00 -4.919237e+00 -4.997085e+00 -4.940726e+00 -5.028892e+00 -4.985188e+00 -5.082995e+00 -5.060649e+00 -5.161985e+00 -5.191435e+00 -5.262230e+00 -5.445893e+00 -5.303787e+00 -6.008365e+00 1.361525e-01 1.056870e+01 1.436724e+01 1.383521e+01 1.393865e+01 1.378963e+01 1.371870e+01 1.366814e+01 1.356641e+01 1.354360e+01 1.344629e+01 1.344029e+01 1.335200e+01 1.336078e+01 1.328247e+01 1.330709e+01 1.324018e+01 1.328033e+01 1.322581e+01 1.327983e+01 1.323875e+01 1.330586e+01 1.327916e+01 1.335926e+01 1.334623e+01 1.343857e+01 1.343764e+01 1.354115e+01 1.355436e+01 1.366429e+01 1.370293e+01 1.378417e+01 1.391683e+01 1.382385e+01 1.433268e+01 1.095342e+01 7.397799e-01 -5.770649e+00 -5.268063e+00 -5.374934e+00 -5.249009e+00 -5.162245e+00 -5.155484e+00 -5.046870e+00 -5.079194e+00 -4.978131e+00 -5.026681e+00 -4.937260e+00 -4.996059e+00 -4.918185e+00 
-4.989068e+00 -4.914142e+00 -4.999234e+00 -4.933236e+00 -5.031118e+00 -4.972512e+00 -5.086371e+00 -5.035393e+00 -5.170257e+00 -5.130638e+00 -5.294084e+00 -5.265628e+00 -5.457620e+00 -5.072450e+00 4.773341e+00 1.355813e+01 1.436344e+01 1.400839e+01 1.398205e+01 1.388433e+01 1.377678e+01 1.374387e+01 1.363384e+01 1.362377e+01 1.352541e+01 1.353092e+01 1.344642e+01 1.346743e+01 1.339468e+01 1.342945e+01 1.336592e+01 1.341182e+01 1.335640e+01 1.341155e+01 1.336461e+01 1.342890e+01 1.339185e+01 1.346714e+01 1.344190e+01 1.353126e+01 1.351930e+01 1.362498e+01 1.362619e+01 1.374645e+01 1.376683e+01 1.389011e+01 1.396319e+01 1.402610e+01 1.430033e+01 1.372895e+01 5.402943e+00 -4.741715e+00 -5.510885e+00 -5.228289e+00 -5.314750e+00 -5.120370e+00 -5.179537e+00 -5.032549e+00 -5.090977e+00 -4.971805e+00 -5.033519e+00 -4.933130e+00 -5.000300e+00 -4.914146e+00 
-5.001164e+00 -4.917833e+00 -5.013264e+00 -4.937431e+00 -5.049190e+00 -4.975968e+00 -5.111872e+00 -5.033919e+00 -5.210669e+00 -5.109060e+00 -5.372136e+00 -5.163489e+00 -5.660931e+00 -3.588891e+00 8.297902e+00 1.465110e+01 1.428314e+01 1.424300e+01 1.401429e+01 1.399088e+01 1.380828e+01 1.380330e+01 1.365085e+01 1.365442e+01 1.352813e+01 1.353932e+01 1.343443e+01 1.345513e+01 1.336776e+01 1.340012e+01 1.332775e+01 1.337290e+01 1.331388e+01 1.337237e+01 1.332572e+01 1.339860e+01 1.336340e+01 1.345263e+01 1.342723e+01 1.353557e+01 1.351740e+01 1.364876e+01 1.363528e+01 1.379476e+01 1.378469e+01 1.397876e+01 1.397278e+01 1.422937e+01 1.419180e+01 1.469465e+01 8.984922e+00 -3.067244e+00 -5.700116e+00 -5.123194e+00 -5.375571e+00 -5.089282e+00 -5.207606e+00 -5.023352e+00 -5.108592e+00 -4.970057e+00 -5.046943e+00 -4.934361e+00 -5.012168e+00 -4.916876e+00 
-4.997505e+00 -4.907824e+00 -5.008618e+00 -4.924529e+00 -5.043688e+00 -4.957449e+00 -5.105361e+00 -5.004307e+00 -5.201862e+00 -5.056665e+00 -5.354940e+00 -5.065890e+00 -5.607004e+00 -1.648568e+00 1.093343e+01 1.480218e+01 1.410002e+01 1.433019e+01 1.397849e+01 1.405476e+01 1.382444e+01 1.385947e+01 1.369135e+01 1.371465e+01 1.358551e+01 1.360918e+01 1.350689e+01 1.353723e+01 1.345396e+01 1.349341e+01 1.342381e+01 1.347288e+01 1.341373e+01 1.347283e+01 1.342258e+01 1.349339e+01 1.345148e+01 1.353754e+01 1.350326e+01 1.361014e+01 1.358102e+01 1.371665e+01 1.368653e+01 1.386336e+01 1.382011e+01 1.406330e+01 1.397667e+01 1.435416e+01 1.411234e+01 1.488189e+01 1.150485e+01 -1.118399e+00 -5.650073e+00 -5.074397e+00 -5.369598e+00 -5.060515e+00 -5.208469e+00 -5.006759e+00 -5.109149e+00 -4.959065e+00 -5.045977e+00 -4.925462e+00 -5.009729e+00 -4.908130e+00 
-5.006776e+00 -4.911541e+00 -5.019606e+00 -4.929222e+00 -5.057628e+00 -4.962979e+00 -5.123307e+00 -5.010871e+00 -5.223227e+00 -5.068932e+00 -5.371159e+00 -5.118586e+00 -5.575916e+00 -1.466289e-01 1.270459e+01 1.498394e+01 1.419633e+01 1.446495e+01 1.402381e+01 1.413207e+01 1.384769e+01 1.389861e+01 1.369677e+01 1.372707e+01 1.357514e+01 1.360092e+01 1.348222e+01 1.351182e+01 1.341687e+01 1.345491e+01 1.337794e+01 1.342703e+01 1.336435e+01 1.342643e+01 1.337555e+01 1.345305e+01 1.341186e+01 1.350849e+01 1.347413e+01 1.359562e+01 1.356334e+01 1.371883e+01 1.368046e+01 1.388585e+01 1.382599e+01 1.411240e+01 1.399701e+01 1.443449e+01 1.417276e+01 1.493092e+01 1.306706e+01 4.349990e-01 -5.554172e+00 -5.133455e+00 -5.360852e+00 -5.069542e+00 -5.216641e+00 -5.007857e+00 -5.119054e+00 -4.959911e+00 -5.055100e+00 -4.927196e+00 -5.018433e+00 -4.910848e+00 
-4.999801e+00 -4.901708e+00 -5.011412e+00 -4.917129e+00 -5.047877e+00 -4.947557e+00 -5.111239e+00 -4.991937e+00 -5.205918e+00 -5.052445e+00 -5.335727e+00 -5.141077e+00 -5.467268e+00 7.725993e-01 1.344297e+01 1.486197e+01 1.415968e+01 1.445525e+01 1.400011e+01 1.414654e+01 1.384886e+01 1.392363e+01 1.371870e+01 1.376301e+01 1.361407e+01 1.364902e+01 1.353575e+01 1.357207e+01 1.348251e+01 1.352521e+01 1.345193e+01 1.350325e+01 1.344167e+01 1.350327e+01 1.345077e+01 1.352538e+01 1.348024e+01 1.357257e+01 1.353259e+01 1.365010e+01 1.361053e+01 1.376484e+01 1.371577e+01 1.392619e+01 1.384867e+01 1.414888e+01 1.400749e+01 1.445229e+01 1.418556e+01 1.482709e+01 1.379535e+01 1.444958e+00 -5.416023e+00 -5.174977e+00 -5.322710e+00 -5.067186e+00 -5.204142e+00 -4.998893e+00 -5.112545e+00 -4.951112e+00 -5.049502e+00 -4.918889e+00 -5.012383e+00 -4.902247e+00 
-5.007910e+00 -4.908382e+00 -5.020932e+00 -4.925382e+00 -5.059323e+00 -4.957810e+00 -5.124458e+00 -5.004458e+00 -5.217940e+00 -5.067600e+00 -5.332730e+00 -5.161757e+00 -5.393387e+00 1.072003e+00 1.360319e+01 1.480863e+01 1.418690e+01 1.448555e+01 1.402706e+01 1.417192e+01 1.385928e+01 1.393081e+01 1.371120e+01 1.375208e+01 1.359032e+01 1.362180e+01 1.349778e+01 1.353073e+01 1.343285e+01 1.347301e+01 1.339426e+01 1.344485e+01 1.338076e+01 1.344420e+01 1.339176e+01 1.347100e+01 1.342762e+01 1.352708e+01 1.348940e+01 1.361591e+01 1.357827e+01 1.374285e+01 1.369509e+01 1.391646e+01 1.383975e+01 1.414963e+01 1.400908e+01 1.445091e+01 1.418925e+01 1.475338e+01 1.393425e+01 1.740992e+00 -5.356013e+00 -5.202570e+00 -5.315726e+00 -5.078211e+00 -5.209116e+00 -5.005244e+00 -5.119519e+00 -4.956191e+00 -5.056601e+00 -4.923893e+00 -5.019711e+00 -4.907827e+00 