# vtk DataFile Version 2.0
Comment goes here
ASCII

DATASET STRUCTURED_POINTS
FIELD FieldData 1
TIME 1 1 double
0.25000000
DIMENSIONS    64   64   1

ORIGIN    0.000   0.000   0.000
SPACING   0.015625 0.015625   1.000

POINT_DATA   4096
SCALARS P double
LOOKUP_TABLE default

-4.589910e+00 -4.593850e+00 -4.604886e+00 -4.623524e+00 -4.649256e+00 -4.682167e+00 -4.722208e+00 -4.768615e+00 -4.822060e+00 -4.880628e+00 -4.945778e+00 -5.014318e+00 -5.088339e+00 -5.163453e+00 -5.242032e+00 -5.318811e+00 -5.395938e+00 -5.467878e+00 -5.536005e+00 -5.595479e+00 -5.646408e+00 -5.686052e+00 -5.712960e+00 -5.728163e+00 -5.728710e+00 -5.720612e+00 -5.699914e+00 -5.677083e+00 -5.647730e+00 -5.624092e+00 -5.600783e+00 -5.589180e+00 -5.582088e+00 -5.588895e+00 -5.600355e+00 -5.623204e+00 -5.646902e+00 -5.675565e+00 -5.698713e+00 -5.718496e+00 -5.727155e+00 -5.725578e+00 -5.711114e+00 -5.683166e+00 -5.644382e+00 -5.592455e+00 -5.533919e+00 -5.464864e+00 -5.393896e+00 -5.315934e+00 -5.240117e+00 -5.160817e+00 -5.086612e+00 -5.012001e+00 -4.944287e+00 -4.878684e+00 -4.820836e+00 -4.767079e+00 -4.721275e+00 -4.681060e+00 -4.648627e+00 -4.622857e+00 -4.604569e+00 -4.593627e+00 
-4.581975e+00 -4.586499e+00 -4.596749e+00 -4.616049e+00 -4.641028e+00 -4.674724e+00 -4.714058e+00 -4.761433e+00 -4.814248e+00 -4.874033e+00 -4.938684e+00 -5.008747e+00 -5.082476e+00 -5.159446e+00 -5.238029e+00 -5.316947e+00 -5.394454e+00 -5.468630e+00 -5.537524e+00 -5.598923e+00 -5.650855e+00 -5.691401e+00 -5.719074e+00 -5.733138e+00 -5.733234e+00 -5.720858e+00 -5.697062e+00 -5.666318e+00 -5.630564e+00 -5.596892e+00 -5.567305e+00 -5.548919e+00 -5.541281e+00 -5.548663e+00 -5.566905e+00 -5.596120e+00 -5.629876e+00 -5.665093e+00 -5.696242e+00 -5.719359e+00 -5.732462e+00 -5.731635e+00 -5.718533e+00 -5.690101e+00 -5.650655e+00 -5.597926e+00 -5.537675e+00 -5.467949e+00 -5.394890e+00 -5.316541e+00 -5.238648e+00 -5.159254e+00 -5.083174e+00 -5.008701e+00 -4.939373e+00 -4.874072e+00 -4.814862e+00 -4.761509e+00 -4.714551e+00 -4.674802e+00 -4.641371e+00 -4.616105e+00 -4.596924e+00 -4.586519e+00 
-4.577892e+00 -4.581934e+00 -4.593024e+00 -4.611921e+00 -4.637904e+00 -4.671272e+00 -4.711841e+00 -4.758990e+00 -4.813352e+00 -4.873065e+00 -4.939650e+00 -5.009865e+00 -5.085960e+00 -5.163379e+00 -5.244728e+00 -5.324436e+00 -5.404930e+00 -5.480206e+00 -5.551920e+00 -5.614597e+00 -5.668581e+00 -5.710424e+00 -5.738790e+00 -5.754260e+00 -5.753757e+00 -5.743624e+00 -5.719577e+00 -5.693266e+00 -5.660285e+00 -5.633792e+00 -5.608363e+00 -5.595539e+00 -5.587974e+00 -5.595276e+00 -5.607933e+00 -5.632932e+00 -5.659461e+00 -5.691747e+00 -5.718381e+00 -5.741454e+00 -5.752181e+00 -5.751598e+00 -5.736894e+00 -5.707456e+00 -5.666493e+00 -5.611493e+00 -5.549775e+00 -5.477119e+00 -5.402837e+00 -5.321497e+00 -5.242771e+00 -5.160694e+00 -5.084202e+00 -5.007511e+00 -4.938135e+00 -4.871096e+00 -4.812112e+00 -4.757439e+00 -4.710897e+00 -4.670157e+00 -4.637268e+00 -4.611249e+00 -4.592705e+00 -4.581710e+00 
-4.557833e+00 -4.562531e+00 -4.572900e+00 -4.592672e+00 -4.618147e+00 -4.652704e+00 -4.693067e+00 -4.741869e+00 -4.796473e+00 -4.858500e+00 -4.925961e+00 -4.999366e+00 -5.077178e+00 -5.158832e+00 -5.242911e+00 -5.327912e+00 -5.412187e+00 -5.493499e+00 -5.569787e+00 -5.638378e+00 -5.696987e+00 -5.743051e+00 -5.774739e+00 -5.790561e+00 -5.790128e+00 -5.774311e+00 -5.744610e+00 -5.705514e+00 -5.659192e+00 -5.614532e+00 -5.575174e+00 -5.550294e+00 -5.540132e+00 -5.550051e+00 -5.574685e+00 -5.613727e+00 -5.658377e+00 -5.704134e+00 -5.743633e+00 -5.772560e+00 -5.789188e+00 -5.788860e+00 -5.774090e+00 -5.741650e+00 -5.696769e+00 -5.637357e+00 -5.569989e+00 -5.492838e+00 -5.412705e+00 -5.327548e+00 -5.243613e+00 -5.158686e+00 -5.077946e+00 -4.999362e+00 -4.926702e+00 -4.858574e+00 -4.797122e+00 -4.741972e+00 -4.693582e+00 -4.652799e+00 -4.618501e+00 -4.592737e+00 -4.573080e+00 -4.562554e+00 
-4.541457e+00 -4.545803e+00 -4.557025e+00 -4.576661e+00 -4.603335e+00 -4.638014e+00 -4.680081e+00 -4.729375e+00 -4.786397e+00 -4.849463e+00 -4.920299e+00 -4.995514e+00 -5.077872e+00 -5.162320e+00 -5.252211e+00 -5.341079e+00 -5.432226e+00 -5.518254e+00 -5.601708e+00 -5.675110e+00 -5.739599e+00 -5.789275e+00 -5.823278e+00 -5.840331e+00 -5.836968e+00 -5.820461e+00 -5.785014e+00 -5.746912e+00 -5.701981e+00 -5.666583e+00 -5.635194e+00 -5.618970e+00 -5.610085e+00 -5.618817e+00 -5.634754e+00 -5.665844e+00 -5.701173e+00 -5.745415e+00 -5.783857e+00 -5.818096e+00 -5.835328e+00 -5.837419e+00 -5.821207e+00 -5.786053e+00 -5.737306e+00 -5.671761e+00 -5.599377e+00 -5.514943e+00 -5.429980e+00 -5.337950e+00 -5.250130e+00 -5.159486e+00 -5.076017e+00 -4.993053e+00 -4.918712e+00 -4.847423e+00 -4.785107e+00 -4.727780e+00 -4.679104e+00 -4.636874e+00 -4.602681e+00 -4.575978e+00 -4.556697e+00 -4.545576e+00 
-4.508813e+00 -4.513858e+00 -4.524399e+00 -4.545045e+00 -4.571384e+00 -4.607530e+00 -4.649784e+00 -4.701260e+00 -4.759261e+00 -4.825591e+00 -4.898552e+00 -4.978554e+00 -5.064590e+00 -5.155790e+00 -5.251286e+00 -5.349140e+00 -5.447994e+00 -5.545029e+00 -5.637966e+00 -5.723257e+00 -5.797824e+00 -5.857762e+00 -5.900240e+00 -5.922028e+00 -5.922558e+00 -5.900912e+00 -5.860149e+00 -5.803630e+00 -5.732254e+00 -5.659898e+00 -5.595651e+00 -5.553947e+00 -5.537322e+00 -5.553808e+00 -5.594947e+00 -5.659107e+00 -5.731181e+00 -5.801920e+00 -5.858833e+00 -5.898487e+00 -5.921201e+00 -5.919879e+00 -5.899332e+00 -5.856171e+00 -5.797584e+00 -5.722210e+00 -5.638304e+00 -5.544429e+00 -5.448704e+00 -5.348873e+00 -5.252171e+00 -5.155746e+00 -5.065503e+00 -4.978640e+00 -4.899395e+00 -4.825736e+00 -4.759975e+00 -4.701414e+00 -4.650337e+00 -4.607659e+00 -4.571759e+00 -4.545129e+00 -4.524587e+00 -4.513887e+00 
-4.479510e+00 -4.484369e+00 -4.495691e+00 -4.516448e+00 -4.544051e+00 -4.580691e+00 -4.624955e+00 -4.677522e+00 -4.738652e+00 -4.807008e+00 -4.884687e+00 -4.968100e+00 -5.060960e+00 -5.157454e+00 -5.262313e+00 -5.367704e+00 -5.478520e+00 -5.585164e+00 -5.691797e+00 -5.787422e+00 -5.874774e+00 -5.942725e+00 -5.991843e+00 -6.015397e+00 -6.009549e+00 -5.982221e+00 -5.921967e+00 -5.858141e+00 -5.789034e+00 -5.738470e+00 -5.700509e+00 -5.680553e+00 -5.669969e+00 -5.680810e+00 -5.700047e+00 -5.738081e+00 -5.788276e+00 -5.856815e+00 -5.921005e+00 -5.979327e+00 -6.007786e+00 -6.011999e+00 -5.989368e+00 -5.939056e+00 -5.872070e+00 -5.783641e+00 -5.689134e+00 -5.581457e+00 -5.476013e+00 -5.364245e+00 -5.260026e+00 -5.154369e+00 -5.058946e+00 -4.965465e+00 -4.882984e+00 -4.804858e+00 -4.737283e+00 -4.675864e+00 -4.623929e+00 -4.579519e+00 -4.543369e+00 -4.515750e+00 -4.495351e+00 -4.484138e+00 
-4.433548e+00 -4.439118e+00 -4.449741e+00 -4.471522e+00 -4.498825e+00 -4.537001e+00 -4.581633e+00 -4.636627e+00 -4.699219e+00 -4.771475e+00 -4.852293e+00 -4.941868e+00 -5.040276e+00 -5.146133e+00 -5.259765e+00 -5.378631e+00 -5.502132e+00 -5.626786e+00 -5.750071e+00 -5.867359e+00 -5.973973e+00 -6.063905e+00 -6.131733e+00 -6.171058e+00 -6.180176e+00 -6.154221e+00 -6.103372e+00 -6.023324e+00 -5.902394e+00 -5.768141e+00 -5.648305e+00 -5.568545e+00 -5.537565e+00 -5.568901e+00 -5.647145e+00 -5.767736e+00 -5.901018e+00 -6.021133e+00 -6.101522e+00 -6.150064e+00 -6.177861e+00 -6.168164e+00 -6.130289e+00 -6.062114e+00 -5.973759e+00 -5.866347e+00 -5.750719e+00 -5.626325e+00 -5.503203e+00 -5.378538e+00 -5.260956e+00 -5.146259e+00 -5.041410e+00 -4.942097e+00 -4.853282e+00 -4.771728e+00 -4.700020e+00 -4.636855e+00 -4.582233e+00 -4.537176e+00 -4.499222e+00 -4.471631e+00 -4.449938e+00 -4.439154e+00 
-4.390419e+00 -4.396005e+00 -4.407207e+00 -4.429285e+00 -4.457698e+00 -4.496587e+00 -4.543239e+00 -4.599686e+00 -4.665781e+00 -4.740773e+00 -4.827371e+00 -4.921768e+00 -5.029254e+00 -5.143084e+00 -5.270276e+00 -5.401429e+00 -5.544001e+00 -5.685939e+00 -5.833849e+00 -5.972161e+00 -6.106169e+00 -6.215263e+00 -6.304037e+00 -6.350197e+00 -6.352916e+00 -6.314411e+00 -6.199669e+00 -6.076997e+00 -5.960707e+00 -5.893634e+00 -5.865505e+00 -5.849483e+00 -5.837524e+00 -5.851318e+00 -5.865035e+00 -5.894088e+00 -5.960065e+00 -6.076597e+00 -6.199499e+00 -6.309751e+00 -6.350835e+00 -6.346057e+00 -6.300568e+00 -6.210954e+00 -6.102726e+00 -5.967709e+00 -5.830701e+00 -5.681617e+00 -5.541135e+00 -5.397476e+00 -5.267706e+00 -5.139645e+00 -5.027022e+00 -4.918905e+00 -4.825513e+00 -4.738491e+00 -4.664312e+00 -4.597961e+00 -4.542154e+00 -4.495387e+00 -4.456986e+00 -4.428578e+00 -4.406854e+00 -4.395772e+00 
-4.330285e+00 -4.336567e+00 -4.346955e+00 -4.369908e+00 -4.397837e+00 -4.438020e+00 -4.484891e+00 -4.543555e+00 -4.611182e+00 -4.690156e+00 -4.780488e+00 -4.881910e+00 -4.996588e+00 -5.122278e+00 -5.261785e+00 -5.411861e+00 -5.573826e+00 -5.743926e+00 -5.919800e+00 -6.096269e+00 -6.265837e+00 -6.419667e+00 -6.545702e+00 -6.632151e+00 -6.668987e+00 -6.646575e+00 -6.615262e+00 -6.533296e+00 -6.313624e+00 -6.028733e+00 -5.780644e+00 -5.615641e+00 -5.553374e+00 -5.617937e+00 -5.778413e+00 -6.030142e+00 -6.312494e+00 -6.531079e+00 -6.612814e+00 -6.636978e+00 -6.664085e+00 -6.628644e+00 -6.543147e+00 -6.417922e+00 -6.265929e+00 -6.095440e+00 -5.921152e+00 -5.743725e+00 -5.575529e+00 -5.412049e+00 -5.263427e+00 -5.122656e+00 -4.998011e+00 -4.882338e+00 -4.781644e+00 -4.690549e+00 -4.612071e+00 -4.543874e+00 -4.485531e+00 -4.438249e+00 -4.398248e+00 -4.370045e+00 -4.347156e+00 -4.336613e+00 
-4.272331e+00 -4.278873e+00 -4.289455e+00 -4.312796e+00 -4.341360e+00 -4.382234e+00 -4.430676e+00 -4.490766e+00 -4.561694e+00 -4.643613e+00 -4.740189e+00 -4.847377e+00 -4.973037e+00 -5.109346e+00 -5.267116e+00 -5.435577e+00 -5.626306e+00 -5.825949e+00 -6.044207e+00 -6.262785e+00 -6.488875e+00 -6.688960e+00 -6.876236e+00 -6.985276e+00 -7.046361e+00 -7.017344e+00 -6.754105e+00 -6.454846e+00 -6.229563e+00 -6.180929e+00 -6.257078e+00 -6.277163e+00 -6.257477e+00 -6.285546e+00 -6.256882e+00 -6.182340e+00 -6.228908e+00 -6.459234e+00 -6.756701e+00 -7.005033e+00 -7.042931e+00 -6.981097e+00 -6.870045e+00 -6.683872e+00 -6.484323e+00 -6.257268e+00 -6.040541e+00 -5.820691e+00 -5.623033e+00 -5.430933e+00 -5.264188e+00 -5.105456e+00 -4.970526e+00 -4.844256e+00 -4.738145e+00 -4.641209e+00 -4.560117e+00 -4.489000e+00 -4.429538e+00 -4.381032e+00 -4.340626e+00 -4.312099e+00 -4.289096e+00 -4.278645e+00 
-4.197292e+00 -4.204503e+00 -4.214011e+00 -4.237884e+00 -4.265472e+00 -4.306994e+00 -4.355039e+00 -4.416490e+00 -4.488408e+00 -4.573515e+00 -4.673750e+00 -4.787862e+00 -4.921854e+00 -5.071898e+00 -5.245754e+00 -5.439279e+00 -5.658270e+00 -5.899952e+00 -6.163547e+00 -6.445614e+00 -6.733892e+00 -7.015056e+00 -7.261239e+00 -7.448292e+00 -7.504116e+00 -7.445548e+00 -7.566200e+00 -7.644651e+00 -7.181672e+00 -6.396836e+00 -5.598626e+00 -4.900741e+00 -4.604035e+00 -4.907403e+00 -5.593427e+00 -6.405594e+00 -7.183992e+00 -7.646357e+00 -7.562510e+00 -7.414784e+00 -7.491002e+00 -7.448611e+00 -7.256886e+00 -7.013947e+00 -6.735592e+00 -6.445070e+00 -6.166478e+00 -5.900138e+00 -5.660979e+00 -5.439881e+00 -5.247970e+00 -5.072628e+00 -4.923583e+00 -4.788543e+00 -4.675052e+00 -4.574072e+00 -4.489352e+00 -4.416904e+00 -4.355688e+00 -4.307274e+00 -4.265876e+00 -4.238044e+00 -4.214205e+00 -4.204555e+00 
-4.123684e+00 -4.131446e+00 -4.140534e+00 -4.164761e+00 -4.192094e+00 -4.233967e+00 -4.282506e+00 -4.344814e+00 -4.418977e+00 -4.506461e+00 -4.612375e+00 -4.732259e+00 -4.878156e+00 -5.040681e+00 -5.237128e+00 -5.455361e+00 -5.714065e+00 -6.000959e+00 -6.328572e+00 -6.684467e+00 -7.064745e+00 -7.434217e+00 -7.797638e+00 -7.987101e+00 -8.258332e+00 -8.297118e+00 -6.930968e+00 -3.905943e+00 -1.798601e-02 3.642392e+00 6.462487e+00 8.178513e+00 8.756078e+00 8.183394e+00 6.458588e+00 3.602386e+00 -3.523720e-02 -3.896777e+00 -6.898032e+00 -8.247811e+00 -8.253208e+00 -7.992188e+00 -7.784530e+00 -7.427598e+00 -7.059831e+00 -6.676967e+00 -6.324859e+00 -5.994275e+00 -5.710401e+00 -5.449811e+00 -5.233735e+00 -5.036284e+00 -4.875293e+00 -4.728910e+00 -4.610127e+00 -4.503997e+00 -4.417310e+00 -4.343073e+00 -4.281343e+00 -4.232817e+00 -4.191363e+00 -4.164107e+00 -4.140182e+00 -4.131233e+00 
-4.033470e+00 -4.041887e+00 -4.049454e+00 -4.073675e+00 -4.099156e+00 -4.140575e+00 -4.187498e+00 -4.249514e+00 -4.323308e+00 -4.411972e+00 -4.520482e+00 -4.645573e+00 -4.799898e+00 -4.976223e+00 -5.191567e+00 -5.439394e+00 -5.734455e+00 -6.075530e+00 -6.464421e+00 -6.901225e+00 -7.358711e+00 -7.804059e+00 -8.202062e+00 -8.437098e+00 -7.217802e+00 -2.941577e+00 3.286996e+00 9.027738e+00 1.292104e+01 1.514124e+01 1.629958e+01 1.674072e+01 1.686143e+01 1.674997e+01 1.629376e+01 1.512308e+01 1.291237e+01 9.061125e+00 3.366897e+00 -2.898942e+00 -7.230491e+00 -8.465021e+00 -8.199374e+00 -7.801677e+00 -7.366852e+00 -6.900667e+00 -6.470384e+00 -6.076296e+00 -5.738408e+00 -5.440617e+00 -5.194302e+00 -4.977419e+00 -4.801831e+00 -4.646546e+00 -4.521832e+00 -4.412686e+00 -4.324226e+00 -4.250001e+00 -4.188096e+00 -4.140883e+00 -4.099514e+00 -4.073844e+00 -4.049622e+00 -4.041941e+00 
-3.943924e+00 -3.953239e+00 -3.959510e+00 -3.983925e+00 -4.007783e+00 -4.048869e+00 -4.094458e+00 -4.156131e+00 -4.230021e+00 -4.319481e+00 -4.431594e+00 -4.560925e+00 -4.726028e+00 -4.914166e+00 -5.153393e+00 -5.426942e+00 -5.766172e+00 -6.154352e+00 -6.605478e+00 -7.113818e+00 -7.611311e+00 -8.132307e+00 -8.206924e+00 -5.329911e+00 1.626875e+00 8.960910e+00 1.349255e+01 1.544985e+01 1.589275e+01 1.584926e+01 1.581096e+01 1.576290e+01 1.576077e+01 1.576662e+01 1.581208e+01 1.585280e+01 1.589620e+01 1.546435e+01 1.354783e+01 8.957372e+00 1.557629e+00 -5.343308e+00 -8.160064e+00 -8.115682e+00 -7.611720e+00 -7.102919e+00 -6.602779e+00 -6.145842e+00 -5.761845e+00 -5.420384e+00 -5.149234e+00 -4.909323e+00 -4.722700e+00 -4.557484e+00 -4.429157e+00 -4.317106e+00 -4.228328e+00 -4.154541e+00 -4.093340e+00 -4.047861e+00 -4.007108e+00 -3.983368e+00 -3.959193e+00 -3.953060e+00 
-3.839173e+00 -3.849196e+00 -3.853275e+00 -3.877009e+00 -3.897704e+00 -3.936824e+00 -3.978889e+00 -4.037797e+00 -4.108980e+00 -4.196161e+00 -4.308502e+00 -4.438857e+00 -4.610456e+00 -4.808027e+00 -5.064010e+00 -5.361960e+00 -5.729847e+00 -6.157419e+00 -6.640418e+00 -7.176818e+00 -7.685467e+00 -7.597389e+00 -3.896274e+00 4.494386e+00 1.173475e+01 1.450795e+01 1.490690e+01 1.489191e+01 1.503472e+01 1.527189e+01 1.556929e+01 1.573731e+01 1.581371e+01 1.573872e+01 1.557040e+01 1.526992e+01 1.504324e+01 1.488455e+01 1.493167e+01 1.448651e+01 1.168036e+01 4.584709e+00 -3.786073e+00 -7.600710e+00 -7.708170e+00 -7.177625e+00 -6.648794e+00 -6.159655e+00 -5.734181e+00 -5.364206e+00 -5.066761e+00 -4.809791e+00 -4.612292e+00 -4.440093e+00 -4.309703e+00 -4.196967e+00 -4.109737e+00 -4.038296e+00 -3.979348e+00 -3.937116e+00 -3.897963e+00 -3.877160e+00 -3.853391e+00 -3.849243e+00 
-3.734417e+00 -3.745745e+00 -3.747399e+00 -3.771078e+00 -3.788318e+00 -3.826137e+00 -3.864276e+00 -3.921071e+00 -3.989009e+00 -4.074377e+00 -4.186338e+00 -4.317420e+00 -4.495011e+00 -4.698700e+00 -4.970892e+00 -5.278843e+00 -5.672729e+00 -6.096481e+00 -6.597021e+00 -7.123693e+00 -7.203433e+00 -3.251621e+00 5.689377e+00 1.245164e+01 1.417654e+01 1.429879e+01 1.449155e+01 1.483699e+01 1.504366e+01 1.515596e+01 1.522753e+01 1.524716e+01 1.526715e+01 1.524813e+01 1.522974e+01 1.515667e+01 1.504910e+01 1.483429e+01 1.450310e+01 1.428226e+01 1.415380e+01 1.250075e+01 5.689818e+00 -3.346879e+00 -7.250562e+00 -7.113294e+00 -6.593783e+00 -6.086585e+00 -5.665761e+00 -5.271367e+00 -4.965193e+00 -4.693654e+00 -4.491112e+00 -4.314193e+00 -4.183839e+00 -4.072360e+00 -3.987453e+00 -3.919831e+00 -3.863333e+00 -3.825401e+00 -3.787782e+00 -3.770689e+00 -3.747156e+00 -3.745623e+00 
-3.617193e+00 -3.629407e+00 -3.627965e+00 -3.650287e+00 -3.662622e+00 -3.696770e+00 -3.728767e+00 -3.779761e+00 -3.841611e+00 -3.919914e+00 -4.028260e+00 -4.152989e+00 -4.332136e+00 -4.532451e+00 -4.808829e+00 -5.114666e+00 -5.497432e+00 -5.913042e+00 -6.379767e+00 -6.905154e+00 -4.011515e+00 5.041816e+00 1.237421e+01 1.384476e+01 1.399768e+01 1.426169e+01 1.442917e+01 1.455684e+01 1.470177e+01 1.483514e+01 1.498275e+01 1.505675e+01 1.510374e+01 1.505676e+01 1.498396e+01 1.483379e+01 1.470474e+01 1.455373e+01 1.443118e+01 1.425958e+01 1.398398e+01 1.385302e+01 1.235382e+01 5.049537e+00 -3.969073e+00 -6.890622e+00 -6.378712e+00 -5.917807e+00 -5.499685e+00 -5.118296e+00 -4.810740e+00 -4.534634e+00 -4.333422e+00 -4.154266e+00 -4.029030e+00 -3.920634e+00 -3.842030e+00 -3.780152e+00 -3.728980e+00 -3.696974e+00 -3.662722e+00 -3.650384e+00 -3.628004e+00 -3.629435e+00 
-3.499466e+00 -3.513458e+00 -3.508266e+00 -3.530275e+00 -3.536960e+00 -3.568727e+00 -3.593588e+00 -3.640396e+00 -3.694673e+00 -3.767855e+00 -3.870044e+00 -3.990169e+00 -4.165422e+00 -4.360814e+00 -4.629157e+00 -4.916124e+00 -5.281338e+00 -5.604289e+00 -6.220501e+00 -5.120232e+00 2.668611e+00 1.134395e+01 1.354812e+01 1.365583e+01 1.392670e+01 1.403926e+01 1.422792e+01 1.439316e+01 1.454373e+01 1.463841e+01 1.472138e+01 1.474869e+01 1.477578e+01 1.474893e+01 1.472264e+01 1.463843e+01 1.454587e+01 1.439197e+01 1.422946e+01 1.403742e+01 1.392091e+01 1.366521e+01 1.354418e+01 1.138231e+01 2.732159e+00 -5.081674e+00 -6.194888e+00 -5.590532e+00 -5.266498e+00 -4.907157e+00 -4.621060e+00 -4.355943e+00 -4.161214e+00 -3.987691e+00 -3.867898e+00 -3.766615e+00 -3.693576e+00 -3.639776e+00 -3.593025e+00 -3.568421e+00 -3.536680e+00 -3.530134e+00 -3.508150e+00 -3.513418e+00 
-3.373763e+00 -3.388997e+00 -3.379623e+00 -3.399793e+00 -3.399498e+00 -3.426094e+00 -3.441557e+00 -3.479655e+00 -3.523418e+00 -3.584389e+00 -3.677643e+00 -3.781340e+00 -3.950704e+00 -4.119074e+00 -4.373060e+00 -4.607922e+00 -4.908672e+00 -5.169113e+00 -5.489436e+00 -4.316840e-01 9.129596e+00 1.328476e+01 1.339635e+01 1.363709e+01 1.375848e+01 1.394539e+01 1.408171e+01 1.420723e+01 1.432932e+01 1.441948e+01 1.451586e+01 1.455306e+01 1.458812e+01 1.455286e+01 1.451603e+01 1.441864e+01 1.432916e+01 1.420601e+01 1.407941e+01 1.394559e+01 1.375094e+01 1.364173e+01 1.338748e+01 1.329013e+01 9.148742e+00 -4.261883e-01 -5.500594e+00 -5.188575e+00 -4.914380e+00 -4.613469e+00 -4.374362e+00 -4.120789e+00 -3.951010e+00 -3.782071e+00 -3.677670e+00 -3.584717e+00 -3.523318e+00 -3.479781e+00 -3.441423e+00 -3.426129e+00 -3.399388e+00 -3.399796e+00 -3.379562e+00 -3.388995e+00 
-3.247282e+00 -3.264811e+00 -3.250284e+00 -3.269977e+00 -3.261674e+00 -3.284971e+00 -3.289762e+00 -3.321795e+00 -3.353223e+00 -3.405673e+00 -3.486533e+00 -3.578498e+00 -3.731865e+00 -3.880689e+00 -4.083753e+00 -4.308578e+00 -4.389877e+00 -4.909436e+00 -3.129386e+00 5.312872e+00 1.227306e+01 1.318468e+01 1.326355e+01 1.346507e+01 1.363396e+01 1.377003e+01 1.392505e+01 1.403953e+01 1.416365e+01 1.423349e+01 1.431225e+01 1.433113e+01 1.436180e+01 1.433122e+01 1.431267e+01 1.423361e+01 1.416407e+01 1.403970e+01 1.392462e+01 1.377154e+01 1.363163e+01 1.347168e+01 1.326253e+01 1.319756e+01 1.225319e+01 5.290601e+00 -3.093607e+00 -4.876389e+00 -4.370347e+00 -4.297606e+00 -4.075497e+00 -3.877134e+00 -3.728829e+00 -3.577711e+00 -3.485648e+00 -3.405779e+00 -3.353083e+00 -3.322099e+00 -3.289833e+00 -3.285244e+00 -3.261769e+00 -3.270153e+00 -3.250341e+00 -3.264871e+00 
-3.119408e+00 -3.138706e+00 -3.118876e+00 -3.136641e+00 -3.119199e+00 -3.136553e+00 -3.128288e+00 -3.149924e+00 -3.165249e+00 -3.202109e+00 -3.266319e+00 -3.332907e+00 -3.471414e+00 -3.565286e+00 -3.757484e+00 -3.861993e+00 -3.958751e+00 -4.324321e+00 5.723761e-01 9.747035e+00 1.305588e+01 1.290466e+01 1.322073e+01 1.332811e+01 1.351093e+01 1.364368e+01 1.378492e+01 1.388755e+01 1.400040e+01 1.406515e+01 1.414482e+01 1.416346e+01 1.419661e+01 1.416327e+01 1.414440e+01 1.406456e+01 1.399915e+01 1.388675e+01 1.378196e+01 1.364312e+01 1.350532e+01 1.332743e+01 1.321252e+01 1.289945e+01 1.304374e+01 9.795073e+00 6.277164e-01 -4.341041e+00 -3.965597e+00 -3.860925e+00 -3.755493e+00 -3.563544e+00 -3.469655e+00 -3.332158e+00 -3.265243e+00 -3.201748e+00 -3.164506e+00 -3.149672e+00 -3.127759e+00 -3.136369e+00 -3.118858e+00 -3.136527e+00 -3.118708e+00 -3.138667e+00 
-2.990663e+00 -3.012753e+00 -2.986487e+00 -3.003795e+00 -2.976109e+00 -2.989751e+00 -2.967233e+00 -2.981890e+00 -2.979857e+00 -3.005899e+00 -3.052622e+00 -3.097529e+00 -3.224675e+00 -3.251740e+00 -3.470374e+00 -3.348719e+00 -3.703492e+00 -2.902594e+00 4.472673e+00 1.182744e+01 1.278208e+01 1.280055e+01 1.304894e+01 1.319413e+01 1.337408e+01 1.350136e+01 1.364935e+01 1.374317e+01 1.385906e+01 1.391168e+01 1.398897e+01 1.399753e+01 1.403270e+01 1.399761e+01 1.398897e+01 1.391190e+01 1.385877e+01 1.374365e+01 1.364831e+01 1.350259e+01 1.337178e+01 1.319648e+01 1.304510e+01 1.280087e+01 1.277216e+01 1.181247e+01 4.440645e+00 -2.920831e+00 -3.692061e+00 -3.350598e+00 -3.467181e+00 -3.253406e+00 -3.225246e+00 -3.099830e+00 -3.054142e+00 -3.007923e+00 -2.981161e+00 -2.983333e+00 -2.968124e+00 -2.990676e+00 -2.976647e+00 -3.004309e+00 -2.986739e+00 -3.012918e+00 
-2.869273e+00 -2.893705e+00 -2.861281e+00 -2.877047e+00 -2.838510e+00 -2.846534e+00 -2.807528e+00 -2.812184e+00 -2.787222e+00 -2.798343e+00 -2.814638e+00 -2.834828e+00 -2.920373e+00 -2.890374e+00 -3.065249e+00 -2.777012e+00 -3.235254e+00 -5.561564e-01 7.853827e+00 1.243491e+01 1.236355e+01 1.271670e+01 1.286055e+01 1.307018e+01 1.323185e+01 1.337558e+01 1.351791e+01 1.361250e+01 1.372576e+01 1.377636e+01 1.385444e+01 1.386125e+01 1.389821e+01 1.386109e+01 1.385384e+01 1.377589e+01 1.372438e+01 1.361181e+01 1.351547e+01 1.337474e+01 1.322824e+01 1.306881e+01 1.285625e+01 1.271308e+01 1.235929e+01 1.242499e+01 7.936187e+00 -4.505927e-01 -3.205243e+00 -2.758219e+00 -3.052888e+00 -2.883528e+00 -2.915475e+00 -2.832605e+00 -2.812470e+00 -2.797438e+00 -2.785942e+00 -2.811626e+00 -2.806667e+00 -2.846151e+00 -2.837966e+00 -2.876821e+00 -2.861018e+00 -2.893631e+00 
-2.746882e+00 -2.774444e+00 -2.734725e+00 -2.750215e+00 -2.699742e+00 -2.704301e+00 -2.647592e+00 -2.646106e+00 -2.596521e+00 -2.600321e+00 -2.583193e+00 -2.596481e+00 -2.633678e+00 -2.599508e+00 -2.706758e+00 -2.444014e+00 -2.850024e+00 1.680914e+00 9.932594e+00 1.239513e+01 1.215910e+01 1.261536e+01 1.271989e+01 1.295487e+01 1.311579e+01 1.325903e+01 1.340883e+01 1.349662e+01 1.361601e+01 1.365798e+01 1.373985e+01 1.373910e+01 1.378098e+01 1.373919e+01 1.373974e+01 1.365825e+01 1.361560e+01 1.349709e+01 1.340784e+01 1.325978e+01 1.311404e+01 1.295639e+01 1.271825e+01 1.262077e+01 1.216358e+01 1.242479e+01 9.994744e+00 1.687277e+00 -2.870296e+00 -2.448445e+00 -2.715156e+00 -2.605105e+00 -2.639989e+00 -2.602037e+00 -2.587774e+00 -2.604315e+00 -2.599369e+00 -2.648609e+00 -2.649251e+00 -2.705786e+00 -2.700661e+00 -2.751006e+00 -2.735139e+00 -2.774693e+00 
-2.642139e+00 -2.672424e+00 -2.626367e+00 -2.641023e+00 -2.579226e+00 -2.579388e+00 -2.504463e+00 -2.494911e+00 -2.417011e+00 -2.409741e+00 -2.347393e+00 -2.348981e+00 -2.304262e+00 -2.270016e+00 -2.200366e+00 -2.027862e+00 -1.886205e+00 4.104954e+00 1.099999e+01 1.204458e+01 1.201525e+01 1.241842e+01 1.257586e+01 1.280880e+01 1.299135e+01 1.313672e+01 1.329707e+01 1.338458e+01 1.350943e+01 1.354971e+01 1.363518e+01 1.363219e+01 1.367675e+01 1.363205e+01 1.363463e+01 1.354932e+01 1.350829e+01 1.338402e+01 1.329539e+01 1.313617e+01 1.298947e+01 1.280868e+01 1.257477e+01 1.242017e+01 1.201588e+01 1.205152e+01 1.097414e+01 4.099517e+00 -1.850743e+00 -2.009121e+00 -2.186571e+00 -2.263760e+00 -2.299316e+00 -2.347378e+00 -2.345324e+00 -2.409002e+00 -2.415633e+00 -2.494264e+00 -2.503432e+00 -2.578871e+00 -2.578544e+00 -2.640702e+00 -2.626032e+00 -2.672317e+00 
-2.535676e+00 -2.569033e+00 -2.515631e+00 -2.530049e+00 -2.455917e+00 -2.452756e+00 -2.358463e+00 -2.342849e+00 -2.235193e+00 -2.221222e+00 -2.112716e+00 -2.114389e+00 -1.991340e+00 -1.988892e+00 -1.755480e+00 -1.737465e+00 -8.828087e-01 6.244374e+00 1.152239e+01 1.177661e+01 1.201424e+01 1.227629e+01 1.251130e+01 1.270280e+01 1.291596e+01 1.304452e+01 1.322111e+01 1.329841e+01 1.343303e+01 1.346518e+01 1.355728e+01 1.354748e+01 1.359815e+01 1.354761e+01 1.355727e+01 1.346555e+01 1.343289e+01 1.329886e+01 1.322053e+01 1.304456e+01 1.291419e+01 1.270074e+01 1.250606e+01 1.226643e+01 1.199682e+01 1.173629e+01 1.145480e+01 6.238365e+00 -8.601260e-01 -1.749866e+00 -1.769742e+00 -2.002596e+00 -2.002734e+00 -2.123882e+00 -2.119631e+00 -2.226781e+00 -2.238959e+00 -2.345976e+00 -2.360502e+00 -2.454526e+00 -2.457017e+00 -2.530980e+00 -2.516124e+00 -2.569327e+00 
-2.456940e+00 -2.492955e+00 -2.433993e+00 -2.448230e+00 -2.364122e+00 -2.357937e+00 -2.247116e+00 -2.225172e+00 -2.090928e+00 -2.067292e+00 -1.917448e+00 -1.908465e+00 -1.722755e+00 -1.715836e+00 -1.386639e+00 -1.379695e+00 5.134124e-02 7.375782e+00 1.132663e+01 1.141573e+01 1.187907e+01 1.207292e+01 1.239818e+01 1.256578e+01 1.281889e+01 1.293939e+01 1.313522e+01 1.320895e+01 1.335336e+01 1.338301e+01 1.348052e+01 1.346810e+01 1.352209e+01 1.346798e+01 1.348005e+01 1.338265e+01 1.335246e+01 1.320843e+01 1.313405e+01 1.293887e+01 1.281805e+01 1.256594e+01 1.239968e+01 1.207652e+01 1.189106e+01 1.143550e+01 1.138879e+01 7.530735e+00 1.396201e-01 -1.377792e+00 -1.378282e+00 -1.717264e+00 -1.721257e+00 -1.909275e+00 -1.916490e+00 -2.067047e+00 -2.089745e+00 -2.224492e+00 -2.246025e+00 -2.357300e+00 -2.363352e+00 -2.447823e+00 -2.433607e+00 -2.492818e+00 
-2.374476e+00 -2.412952e+00 -2.347594e+00 -2.361220e+00 -2.266111e+00 -2.256122e+00 -2.127556e+00 -2.097989e+00 -1.935903e+00 -1.900662e+00 -1.709465e+00 -1.687619e+00 -1.445688e+00 -1.429690e+00 -1.032317e+00 -1.007684e+00 1.088128e+00 8.535996e+00 1.133558e+01 1.132043e+01 1.185919e+01 1.198460e+01 1.235939e+01 1.249348e+01 1.277438e+01 1.287812e+01 1.308988e+01 1.315370e+01 1.330781e+01 1.333035e+01 1.343455e+01 1.341634e+01 1.347610e+01 1.341656e+01 1.343478e+01 1.333099e+01 1.330826e+01 1.315472e+01 1.309056e+01 1.287933e+01 1.277529e+01 1.249435e+01 1.236058e+01 1.198399e+01 1.186172e+01 1.131794e+01 1.134980e+01 8.545034e+00 1.035873e+00 -1.059442e+00 -1.063759e+00 -1.452948e+00 -1.460547e+00 -1.698748e+00 -1.716556e+00 -1.906217e+00 -1.939426e+00 -2.100976e+00 -2.129446e+00 -2.257834e+00 -2.267160e+00 -2.362144e+00 -2.348078e+00 -2.413248e+00 
-2.327518e+00 -2.368038e+00 -2.298814e+00 -2.312604e+00 -2.210487e+00 -2.198731e+00 -2.058478e+00 -2.024768e+00 -1.844296e+00 -1.802446e+00 -1.585845e+00 -1.557369e+00 -1.289693e+00 -1.270662e+00 -8.679882e-01 -8.330980e-01 1.650487e+00 9.076606e+00 1.121758e+01 1.119494e+01 1.176876e+01 1.186879e+01 1.228369e+01 1.240131e+01 1.270894e+01 1.280448e+01 1.303183e+01 1.309163e+01 1.325437e+01 1.327453e+01 1.338349e+01 1.336308e+01 1.342557e+01 1.336296e+01 1.338307e+01 1.327414e+01 1.325355e+01 1.309094e+01 1.303060e+01 1.280335e+01 1.270718e+01 1.239923e+01 1.228054e+01 1.186373e+01 1.175962e+01 1.117788e+01 1.117752e+01 9.029421e+00 1.636158e+00 -8.344496e-01 -8.757940e-01 -1.274315e+00 -1.293014e+00 -1.559018e+00 -1.586307e+00 -1.802372e+00 -1.843485e+00 -2.024039e+00 -2.057443e+00 -2.198010e+00 -2.209696e+00 -2.312136e+00 -2.298406e+00 -2.367881e+00 
-2.274054e+00 -2.315958e+00 -2.242242e+00 -2.254880e+00 -2.144785e+00 -2.128868e+00 -1.975633e+00 -1.933603e+00 -1.733139e+00 -1.677145e+00 -1.432799e+00 -1.382655e+00 -1.084405e+00 -1.028437e+00 -6.074150e-01 -4.794665e-01 2.286771e+00 9.432890e+00 1.108888e+01 1.114861e+01 1.172118e+01 1.182682e+01 1.225714e+01 1.236707e+01 1.268824e+01 1.277627e+01 1.301284e+01 1.306679e+01 1.323568e+01 1.325120e+01 1.336472e+01 1.334043e+01 1.340699e+01 1.334073e+01 1.336518e+01 1.325214e+01 1.323669e+01 1.306846e+01 1.301466e+01 1.277894e+01 1.269139e+01 1.237137e+01 1.226288e+01 1.183482e+01 1.173321e+01 1.116841e+01 1.112081e+01 9.513049e+00 2.346829e+00 -4.760916e-01 -6.092962e-01 -1.034786e+00 -1.089967e+00 -1.388558e+00 -1.436907e+00 -1.681030e+00 -1.735656e+00 -1.936032e+00 -1.977169e+00 -2.130390e+00 -2.145709e+00 -2.255744e+00 -2.242687e+00 -2.316241e+00 
-2.261009e+00 -2.303940e+00 -2.228861e+00 -2.241971e+00 -2.129301e+00 -2.113342e+00 -1.955751e+00 -1.913295e+00 -1.706392e+00 -1.650306e+00 -1.398775e+00 -1.350850e+00 -1.049903e+00 -9.967998e-01 -5.842984e-01 -4.312538e-01 2.540430e+00 9.643750e+00 1.103911e+01 1.111833e+01 1.168208e+01 1.178032e+01 1.222062e+01 1.232246e+01 1.265433e+01 1.273781e+01 1.298176e+01 1.303367e+01 1.320685e+01 1.322149e+01 1.333719e+01 1.331216e+01 1.337962e+01 1.331203e+01 1.333678e+01 1.322107e+01 1.320603e+01 1.303287e+01 1.298044e+01 1.273637e+01 1.265220e+01 1.231976e+01 1.221690e+01 1.177519e+01 1.167555e+01 1.110994e+01 1.103179e+01 9.651116e+00 2.536802e+00 -4.554789e-01 -6.024068e-01 -1.008009e+00 -1.057783e+00 -1.354950e+00 -1.400939e+00 -1.650954e+00 -1.706151e+00 -1.912747e+00 -1.954887e+00 -2.112646e+00 -2.128550e+00 -2.241494e+00 -2.228457e+00 -2.303776e+00 
-2.239850e+00 -2.282930e+00 -2.206136e+00 -2.218173e+00 -2.102411e+00 -2.083755e+00 -1.921152e+00 -1.873512e+00 -1.658882e+00 -1.593579e+00 -1.330901e+00 -1.267092e+00 -9.518685e-01 -8.699899e-01 -4.409472e-01 -2.271692e-01 2.758079e+00 9.662287e+00 1.097119e+01 1.110064e+01 1.166307e+01 1.177819e+01 1.221965e+01 1.232583e+01 1.265896e+01 1.274245e+01 1.298745e+01 1.303800e+01 1.321222e+01 1.322522e+01 1.334217e+01 1.331566e+01 1.338473e+01 1.331599e+01 1.334271e+01 1.322627e+01 1.321344e+01 1.303994e+01 1.298966e+01 1.274563e+01 1.266268e+01 1.233095e+01 1.222568e+01 1.178654e+01 1.167170e+01 1.111265e+01 1.097543e+01 9.680552e+00 2.788954e+00 -2.120212e-01 -4.361903e-01 -8.703864e-01 -9.542315e-01 -1.270841e+00 -1.333848e+00 -1.596759e+00 -1.661002e+00 -1.875713e+00 -1.922551e+00 -2.085203e+00 -2.103287e+00 -2.219013e+00 -2.206565e+00 -2.283207e+00 