# vtk DataFile Version 2.0
Comment goes here
ASCII

DATASET STRUCTURED_POINTS
FIELD FieldData 1
TIME 1 1 double
0.54000000
DIMENSIONS    64   64   1

ORIGIN    0.000   0.000   0.000
SPACING   0.015625 0.015625   1.000

POINT_DATA   4096
SCALARS P double
LOOKUP_TABLE default

-4.428621e+00 -4.431064e+00 -4.437019e+00 -4.447732e+00 -4.461909e+00 -4.480937e+00 -4.503182e+00 -4.530467e+00 -4.560518e+00 -4.595783e+00 -4.633150e+00 -4.675759e+00 -4.719565e+00 -4.768336e+00 -4.817121e+00 -4.870139e+00 -4.921690e+00 -4.976149e+00 -5.027420e+00 -5.079612e+00 -5.126861e+00 -5.172457e+00 -5.211755e+00 -5.246575e+00 -5.274779e+00 -5.296131e+00 -5.312195e+00 -5.320403e+00 -5.326504e+00 -5.325566e+00 -5.327044e+00 -5.323108e+00 -5.325251e+00 -5.322419e+00 -5.326294e+00 -5.323652e+00 -5.325195e+00 -5.317648e+00 -5.310574e+00 -5.292968e+00 -5.273012e+00 -5.243396e+00 -5.209925e+00 -5.169550e+00 -5.125012e+00 -5.077126e+00 -5.025592e+00 -4.974116e+00 -4.919926e+00 -4.868524e+00 -4.815468e+00 -4.767077e+00 -4.718066e+00 -4.674792e+00 -4.631845e+00 -4.595054e+00 -4.559439e+00 -4.529937e+00 -4.502354e+00 -4.480577e+00 -4.461348e+00 -4.447522e+00 -4.436737e+00 -4.430995e+00 
-4.420214e+00 -4.422507e+00 -4.428434e+00 -4.438969e+00 -4.453084e+00 -4.471929e+00 -4.494097e+00 -4.521223e+00 -4.551218e+00 -4.586390e+00 -4.623781e+00 -4.666412e+00 -4.710405e+00 -4.759379e+00 -4.808627e+00 -4.862119e+00 -4.914548e+00 -4.969903e+00 -5.022631e+00 -5.076410e+00 -5.125894e+00 -5.174206e+00 -5.216787e+00 -5.256058e+00 -5.288983e+00 -5.317060e+00 -5.339658e+00 -5.356685e+00 -5.370668e+00 -5.378702e+00 -5.386502e+00 -5.387749e+00 -5.391024e+00 -5.387068e+00 -5.385814e+00 -5.376808e+00 -5.369509e+00 -5.354003e+00 -5.338364e+00 -5.314162e+00 -5.287867e+00 -5.253513e+00 -5.215996e+00 -5.172365e+00 -5.125425e+00 -5.075351e+00 -5.022408e+00 -4.969516e+00 -4.914478e+00 -4.862212e+00 -4.808636e+00 -4.759759e+00 -4.710441e+00 -4.666921e+00 -4.623815e+00 -4.586912e+00 -4.551240e+00 -4.521682e+00 -4.494107e+00 -4.472280e+00 -4.453086e+00 -4.439187e+00 -4.428433e+00 -4.422581e+00 
-4.421104e+00 -4.423509e+00 -4.429537e+00 -4.440256e+00 -4.454551e+00 -4.473663e+00 -4.496104e+00 -4.523599e+00 -4.553975e+00 -4.589643e+00 -4.627532e+00 -4.670808e+00 -4.715401e+00 -4.765166e+00 -4.815055e+00 -4.869426e+00 -4.922395e+00 -4.978542e+00 -5.031460e+00 -5.085557e+00 -5.134504e+00 -5.181983e+00 -5.222783e+00 -5.259124e+00 -5.288373e+00 -5.310524e+00 -5.326921e+00 -5.334971e+00 -5.340495e+00 -5.338598e+00 -5.339252e+00 -5.334518e+00 -5.336574e+00 -5.333783e+00 -5.338460e+00 -5.336563e+00 -5.339138e+00 -5.332070e+00 -5.325275e+00 -5.307211e+00 -5.286595e+00 -5.255817e+00 -5.220932e+00 -5.178994e+00 -5.132621e+00 -5.083037e+00 -5.029589e+00 -4.976507e+00 -4.920587e+00 -4.867823e+00 -4.813361e+00 -4.763922e+00 -4.713869e+00 -4.669855e+00 -4.626201e+00 -4.588926e+00 -4.552876e+00 -4.523077e+00 -4.495262e+00 -4.473308e+00 -4.453983e+00 -4.440050e+00 -4.429251e+00 -4.423441e+00 
-4.405247e+00 -4.407455e+00 -4.413527e+00 -4.424055e+00 -4.438392e+00 -4.457375e+00 -4.479902e+00 -4.507413e+00 -4.538004e+00 -4.573938e+00 -4.612296e+00 -4.656203e+00 -4.701669e+00 -4.752546e+00 -4.803872e+00 -4.859929e+00 -4.915039e+00 -4.973517e+00 -5.029352e+00 -5.086513e+00 -5.139140e+00 -5.190633e+00 -5.235856e+00 -5.277669e+00 -5.312353e+00 -5.342264e+00 -5.366051e+00 -5.384749e+00 -5.400515e+00 -5.410578e+00 -5.420343e+00 -5.422495e+00 -5.426656e+00 -5.421723e+00 -5.419550e+00 -5.408406e+00 -5.399170e+00 -5.381643e+00 -5.364564e+00 -5.338889e+00 -5.311148e+00 -5.274801e+00 -5.235069e+00 -5.188698e+00 -5.138718e+00 -5.085529e+00 -5.029178e+00 -4.973278e+00 -4.915003e+00 -4.860177e+00 -4.803896e+00 -4.753055e+00 -4.701705e+00 -4.656804e+00 -4.612321e+00 -4.574519e+00 -4.538013e+00 -4.507906e+00 -4.479898e+00 -4.457744e+00 -4.438383e+00 -4.424281e+00 -4.413520e+00 -4.407531e+00 
-4.398459e+00 -4.400741e+00 -4.406983e+00 -4.417696e+00 -4.432324e+00 -4.451647e+00 -4.474637e+00 -4.502718e+00 -4.534022e+00 -4.570853e+00 -4.610265e+00 -4.655505e+00 -4.702447e+00 -4.755190e+00 -4.808430e+00 -4.866930e+00 -4.924284e+00 -4.985675e+00 -5.043782e+00 -5.103910e+00 -5.158296e+00 -5.211878e+00 -5.257578e+00 -5.298998e+00 -5.331798e+00 -5.356738e+00 -5.374477e+00 -5.382010e+00 -5.385225e+00 -5.379548e+00 -5.376773e+00 -5.368984e+00 -5.370626e+00 -5.368096e+00 -5.375830e+00 -5.377111e+00 -5.383705e+00 -5.378667e+00 -5.372775e+00 -5.352957e+00 -5.330012e+00 -5.295285e+00 -5.255674e+00 -5.208647e+00 -5.156307e+00 -5.101304e+00 -5.041777e+00 -4.983650e+00 -4.922340e+00 -4.865376e+00 -4.806613e+00 -4.754001e+00 -4.700812e+00 -4.654599e+00 -4.608855e+00 -4.570172e+00 -4.532867e+00 -4.502222e+00 -4.473757e+00 -4.451309e+00 -4.431732e+00 -4.417499e+00 -4.406686e+00 -4.400677e+00 
-4.375151e+00 -4.377165e+00 -4.383519e+00 -4.393981e+00 -4.408721e+00 -4.427904e+00 -4.451078e+00 -4.479267e+00 -4.510965e+00 -4.548332e+00 -4.588540e+00 -4.634945e+00 -4.683323e+00 -4.738040e+00 -4.793604e+00 -4.854988e+00 -4.915736e+00 -4.980878e+00 -5.043459e+00 -5.108014e+00 -5.167659e+00 -5.226192e+00 -5.277350e+00 -5.324633e+00 -5.362863e+00 -5.396244e+00 -5.421575e+00 -5.443370e+00 -5.463304e+00 -5.479019e+00 -5.493999e+00 -5.498720e+00 -5.505372e+00 -5.497784e+00 -5.492997e+00 -5.476281e+00 -5.461548e+00 -5.439348e+00 -5.419610e+00 -5.391732e+00 -5.361502e+00 -5.321055e+00 -5.276633e+00 -5.224136e+00 -5.167378e+00 -5.107277e+00 -5.043405e+00 -4.981009e+00 -4.915771e+00 -4.855582e+00 -4.793654e+00 -4.738815e+00 -4.683354e+00 -4.635726e+00 -4.588542e+00 -4.549023e+00 -4.510942e+00 -4.479821e+00 -4.451043e+00 -4.428301e+00 -4.408688e+00 -4.394219e+00 -4.383499e+00 -4.377244e+00 
-4.360445e+00 -4.362481e+00 -4.369063e+00 -4.379676e+00 -4.394786e+00 -4.414330e+00 -4.438108e+00 -4.467004e+00 -4.499691e+00 -4.538289e+00 -4.580077e+00 -4.628457e+00 -4.679227e+00 -4.736912e+00 -4.795847e+00 -4.861434e+00 -4.926536e+00 -4.997251e+00 -5.064868e+00 -5.136155e+00 -5.200842e+00 -5.266253e+00 -5.321533e+00 -5.373398e+00 -5.413691e+00 -5.444978e+00 -5.467009e+00 -5.474013e+00 -5.470910e+00 -5.454797e+00 -5.441918e+00 -5.426292e+00 -5.426745e+00 -5.425104e+00 -5.440618e+00 -5.451528e+00 -5.469050e+00 -5.469962e+00 -5.465308e+00 -5.440363e+00 -5.412029e+00 -5.368923e+00 -5.319578e+00 -5.262641e+00 -5.198661e+00 -5.133483e+00 -5.062618e+00 -4.995308e+00 -4.924348e+00 -4.859998e+00 -4.793815e+00 -4.735830e+00 -4.677418e+00 -4.627634e+00 -4.578537e+00 -4.537668e+00 -4.498445e+00 -4.466549e+00 -4.437169e+00 -4.414019e+00 -4.394159e+00 -4.379494e+00 -4.368750e+00 -4.362422e+00 
-4.329664e+00 -4.331325e+00 -4.338084e+00 -4.348312e+00 -4.363553e+00 -4.382834e+00 -4.406795e+00 -4.435755e+00 -4.468866e+00 -4.508129e+00 -4.550865e+00 -4.600836e+00 -4.653441e+00 -4.713956e+00 -4.776025e+00 -4.845864e+00 -4.915757e+00 -4.992012e+00 -5.066170e+00 -5.143654e+00 -5.216061e+00 -5.287329e+00 -5.349730e+00 -5.406660e+00 -5.450691e+00 -5.488453e+00 -5.511891e+00 -5.535949e+00 -5.564458e+00 -5.595317e+00 -5.622534e+00 -5.633581e+00 -5.646659e+00 -5.632509e+00 -5.621270e+00 -5.591778e+00 -5.562039e+00 -5.530471e+00 -5.508821e+00 -5.481549e+00 -5.449256e+00 -5.401855e+00 -5.349338e+00 -5.285364e+00 -5.216121e+00 -5.143595e+00 -5.066339e+00 -4.992886e+00 -4.915898e+00 -4.847056e+00 -4.776100e+00 -4.715143e+00 -4.653449e+00 -4.601871e+00 -4.550818e+00 -4.508960e+00 -4.468784e+00 -4.436374e+00 -4.406705e+00 -4.383257e+00 -4.363477e+00 -4.348556e+00 -4.338041e+00 -4.331405e+00 
-4.306760e+00 -4.308365e+00 -4.315392e+00 -4.325671e+00 -4.341297e+00 -4.360863e+00 -4.385458e+00 -4.415134e+00 -4.449369e+00 -4.490050e+00 -4.534751e+00 -4.587186e+00 -4.643039e+00 -4.707513e+00 -4.774560e+00 -4.850417e+00 -4.927295e+00 -5.012276e+00 -5.095242e+00 -5.184658e+00 -5.266828e+00 -5.352845e+00 -5.424894e+00 -5.496587e+00 -5.550790e+00 -5.595980e+00 -5.633706e+00 -5.643959e+00 -5.624073e+00 -5.578520e+00 -5.536216e+00 -5.502028e+00 -5.500513e+00 -5.500365e+00 -5.534093e+00 -5.573509e+00 -5.621553e+00 -5.639285e+00 -5.632309e+00 -5.590046e+00 -5.549770e+00 -5.490747e+00 -5.422917e+00 -5.348816e+00 -5.264308e+00 -5.182132e+00 -5.092589e+00 -5.010617e+00 -4.924731e+00 -4.849224e+00 -4.772210e+00 -4.706602e+00 -4.640983e+00 -4.586478e+00 -4.533032e+00 -4.489507e+00 -4.448004e+00 -4.414733e+00 -4.384446e+00 -4.360587e+00 -4.340629e+00 -4.325509e+00 -4.315060e+00 -4.308311e+00 
-4.268549e+00 -4.269619e+00 -4.276886e+00 -4.286539e+00 -4.302248e+00 -4.321266e+00 -4.345905e+00 -4.375388e+00 -4.409870e+00 -4.451108e+00 -4.496646e+00 -4.550905e+00 -4.608732e+00 -4.676885e+00 -4.747742e+00 -4.829630e+00 -4.912941e+00 -5.006297e+00 -5.098947e+00 -5.197916e+00 -5.292727e+00 -5.386718e+00 -5.471102e+00 -5.545652e+00 -5.601483e+00 -5.642972e+00 -5.644412e+00 -5.656037e+00 -5.705158e+00 -5.782809e+00 -5.838677e+00 -5.863715e+00 -5.894084e+00 -5.862932e+00 -5.837394e+00 -5.778529e+00 -5.702175e+00 -5.648964e+00 -5.638092e+00 -5.630411e+00 -5.600808e+00 -5.539018e+00 -5.471753e+00 -5.385844e+00 -5.293495e+00 -5.199528e+00 -5.099455e+00 -5.008519e+00 -4.913193e+00 -4.831716e+00 -4.747809e+00 -4.678603e+00 -4.608671e+00 -4.552224e+00 -4.496505e+00 -4.452067e+00 -4.409690e+00 -4.376049e+00 -4.345728e+00 -4.321689e+00 -4.302108e+00 -4.286771e+00 -4.276810e+00 -4.269693e+00 
-4.237215e+00 -4.238101e+00 -4.245654e+00 -4.255158e+00 -4.271170e+00 -4.290249e+00 -4.315372e+00 -4.345387e+00 -4.380864e+00 -4.423463e+00 -4.471042e+00 -4.527971e+00 -4.589652e+00 -4.662447e+00 -4.739931e+00 -4.829408e+00 -4.923011e+00 -5.028353e+00 -5.135132e+00 -5.252442e+00 -5.363670e+00 -5.484054e+00 -5.583946e+00 -5.691815e+00 -5.763451e+00 -5.835820e+00 -5.935686e+00 -5.975536e+00 -5.907817e+00 -5.769748e+00 -5.639397e+00 -5.568381e+00 -5.572093e+00 -5.566439e+00 -5.635326e+00 -5.760179e+00 -5.903871e+00 -5.971958e+00 -5.935185e+00 -5.827494e+00 -5.764815e+00 -5.683161e+00 -5.581766e+00 -5.480063e+00 -5.360454e+00 -5.250762e+00 -5.131846e+00 -5.027386e+00 -4.919913e+00 -4.828627e+00 -4.737151e+00 -4.661762e+00 -4.587275e+00 -4.527393e+00 -4.469106e+00 -4.423004e+00 -4.379365e+00 -4.345043e+00 -4.314286e+00 -4.290012e+00 -4.270466e+00 -4.255019e+00 -4.245308e+00 -4.238055e+00 
-4.191795e+00 -4.191915e+00 -4.199780e+00 -4.208273e+00 -4.224245e+00 -4.242268e+00 -4.267123e+00 -4.296379e+00 -4.331643e+00 -4.374308e+00 -4.422230e+00 -4.480836e+00 -4.544200e+00 -4.621384e+00 -4.703021e+00 -4.800882e+00 -4.902620e+00 -5.021106e+00 -5.141855e+00 -5.275567e+00 -5.408182e+00 -5.542159e+00 -5.669230e+00 -5.777094e+00 -5.871789e+00 -5.915211e+00 -5.795144e+00 -5.705203e+00 -5.824869e+00 -6.075355e+00 -6.195968e+00 -6.240369e+00 -6.318847e+00 -6.241841e+00 -6.195772e+00 -6.070841e+00 -5.823781e+00 -5.698921e+00 -5.776192e+00 -5.886171e+00 -5.876510e+00 -5.769079e+00 -5.672353e+00 -5.545813e+00 -5.410078e+00 -5.280820e+00 -5.142700e+00 -5.025459e+00 -4.902887e+00 -4.804086e+00 -4.702988e+00 -4.623640e+00 -4.543993e+00 -4.482371e+00 -4.421924e+00 -4.375313e+00 -4.331305e+00 -4.297006e+00 -4.266812e+00 -4.242635e+00 -4.224010e+00 -4.208460e+00 -4.199654e+00 -4.191972e+00 
-4.151964e+00 -4.151698e+00 -4.159849e+00 -4.167852e+00 -4.183927e+00 -4.201583e+00 -4.226523e+00 -4.255867e+00 -4.291591e+00 -4.335249e+00 -4.384734e+00 -4.445842e+00 -4.513088e+00 -4.595126e+00 -4.684764e+00 -4.791087e+00 -4.907045e+00 -5.039574e+00 -5.181701e+00 -5.338200e+00 -5.495448e+00 -5.665258e+00 -5.806894e+00 -5.968886e+00 -5.997343e+00 -6.090981e+00 -6.452561e+00 -6.670472e+00 -6.414721e+00 -5.719642e+00 -4.806342e+00 -4.106361e+00 -3.896314e+00 -4.095761e+00 -4.784812e+00 -5.684846e+00 -6.401610e+00 -6.675474e+00 -6.454854e+00 -6.077890e+00 -6.007019e+00 -5.953111e+00 -5.802155e+00 -5.663840e+00 -5.490558e+00 -5.339064e+00 -5.177512e+00 -5.039882e+00 -4.903266e+00 -4.790815e+00 -4.681440e+00 -4.594635e+00 -4.510323e+00 -4.445357e+00 -4.382559e+00 -4.334857e+00 -4.289968e+00 -4.255578e+00 -4.225383e+00 -4.201387e+00 -4.183205e+00 -4.167738e+00 -4.159500e+00 -4.151661e+00 
-4.099879e+00 -4.098534e+00 -4.107087e+00 -4.113528e+00 -4.129366e+00 -4.145190e+00 -4.169356e+00 -4.196967e+00 -4.231673e+00 -4.274325e+00 -4.323153e+00 -4.385069e+00 -4.453074e+00 -4.539563e+00 -4.632938e+00 -4.750013e+00 -4.874591e+00 -5.026537e+00 -5.184223e+00 -5.366550e+00 -5.549196e+00 -5.738141e+00 -5.917908e+00 -6.075313e+00 -6.372638e+00 -6.337772e+00 -4.680150e+00 -1.729737e+00 1.692392e+00 5.178505e+00 7.629276e+00 9.029671e+00 9.608622e+00 9.058182e+00 7.671905e+00 5.223358e+00 1.782225e+00 -1.618564e+00 -4.588639e+00 -6.266887e+00 -6.402467e+00 -6.074847e+00 -5.922506e+00 -5.756068e+00 -5.551886e+00 -5.377908e+00 -5.184882e+00 -5.033307e+00 -4.874570e+00 -4.754140e+00 -4.632648e+00 -4.542103e+00 -4.452606e+00 -4.386596e+00 -4.322583e+00 -4.275197e+00 -4.231093e+00 -4.197427e+00 -4.168851e+00 -4.145410e+00 -4.128996e+00 -4.113618e+00 -4.106893e+00 -4.098557e+00 
-4.051818e+00 -4.049769e+00 -4.058617e+00 -4.064039e+00 -4.079668e+00 -4.094445e+00 -4.118012e+00 -4.144959e+00 -4.179054e+00 -4.221995e+00 -4.271059e+00 -4.334965e+00 -4.405729e+00 -4.496806e+00 -4.598238e+00 -4.723187e+00 -4.864575e+00 -5.027195e+00 -5.211569e+00 -5.405895e+00 -5.616533e+00 -5.820179e+00 -6.050526e+00 -6.150187e+00 -4.409653e+00 -1.748943e-01 5.448812e+00 1.013531e+01 1.297182e+01 1.479983e+01 1.542739e+01 1.561326e+01 1.578593e+01 1.562270e+01 1.543805e+01 1.479268e+01 1.306134e+01 1.027602e+01 5.564407e+00 -9.804809e-02 -4.432842e+00 -6.091266e+00 -6.027626e+00 -5.831283e+00 -5.608662e+00 -5.411431e+00 -5.206554e+00 -5.028700e+00 -4.860020e+00 -4.723053e+00 -4.594243e+00 -4.496263e+00 -4.402515e+00 -4.334462e+00 -4.268656e+00 -4.221633e+00 -4.177354e+00 -4.144719e+00 -4.116871e+00 -4.094293e+00 -4.078969e+00 -4.063953e+00 -4.058285e+00 -4.049741e+00 
-3.994111e+00 -3.990578e+00 -3.999962e+00 -4.003109e+00 -4.018262e+00 -4.030157e+00 -4.052271e+00 -4.076057e+00 -4.107964e+00 -4.148080e+00 -4.194887e+00 -4.257518e+00 -4.327264e+00 -4.420920e+00 -4.524112e+00 -4.659124e+00 -4.804600e+00 -4.987991e+00 -5.173353e+00 -5.394964e+00 -5.604236e+00 -5.817960e+00 -5.376612e+00 -2.044234e+00 4.483716e+00 1.046109e+01 1.380177e+01 1.497938e+01 1.501325e+01 1.495530e+01 1.478106e+01 1.468873e+01 1.472424e+01 1.468793e+01 1.478231e+01 1.494472e+01 1.503495e+01 1.498686e+01 1.379226e+01 1.049545e+01 4.677907e+00 -1.752004e+00 -5.362091e+00 -5.869718e+00 -5.608446e+00 -5.408879e+00 -5.172060e+00 -4.994811e+00 -4.803724e+00 -4.663021e+00 -4.523406e+00 -4.423118e+00 -4.326408e+00 -4.258635e+00 -4.193918e+00 -4.148539e+00 -4.107029e+00 -4.076160e+00 -4.051493e+00 -4.030108e+00 -4.017713e+00 -4.003034e+00 -3.999680e+00 -3.990546e+00 
-3.938629e+00 -3.933904e+00 -3.943662e+00 -3.945022e+00 -3.959611e+00 -3.969468e+00 -3.990062e+00 -4.012073e+00 -4.041730e+00 -4.081092e+00 -4.125695e+00 -4.189594e+00 -4.258912e+00 -4.356554e+00 -4.463723e+00 -4.603339e+00 -4.759480e+00 -4.937394e+00 -5.141416e+00 -5.337376e+00 -5.525358e+00 -4.654459e+00 7.746887e-02 7.476547e+00 1.261879e+01 1.426857e+01 1.440903e+01 1.432499e+01 1.438313e+01 1.462513e+01 1.480612e+01 1.491660e+01 1.498544e+01 1.491725e+01 1.480929e+01 1.461953e+01 1.438299e+01 1.430841e+01 1.437898e+01 1.428985e+01 1.275738e+01 7.641199e+00 1.144235e-01 -4.624874e+00 -5.524540e+00 -5.342698e+00 -5.137003e+00 -4.936770e+00 -4.753678e+00 -4.601856e+00 -4.458710e+00 -4.355435e+00 -4.255174e+00 -4.188936e+00 -4.123142e+00 -4.080750e+00 -4.040072e+00 -4.011898e+00 -3.989022e+00 -3.969370e+00 -3.959001e+00 -3.944966e+00 -3.943378e+00 -3.933886e+00 
-3.877031e+00 -3.870328e+00 -3.880843e+00 -3.879086e+00 -3.893004e+00 -3.898726e+00 -3.917119e+00 -3.934181e+00 -3.960172e+00 -3.994181e+00 -4.034244e+00 -4.093158e+00 -4.158486e+00 -4.252614e+00 -4.357101e+00 -4.496005e+00 -4.644393e+00 -4.830526e+00 -5.002859e+00 -5.228155e+00 -4.421733e+00 7.890701e-01 8.805887e+00 1.324920e+01 1.396633e+01 1.394172e+01 1.413121e+01 1.435539e+01 1.442238e+01 1.448451e+01 1.446297e+01 1.446293e+01 1.446612e+01 1.446242e+01 1.446507e+01 1.448268e+01 1.442789e+01 1.435701e+01 1.412752e+01 1.394321e+01 1.395973e+01 1.323316e+01 8.989736e+00 1.092721e+00 -4.341931e+00 -5.215373e+00 -4.992728e+00 -4.831822e+00 -4.642213e+00 -4.497985e+00 -4.356037e+00 -4.253685e+00 -4.157086e+00 -4.093358e+00 -4.032662e+00 -3.993874e+00 -3.958721e+00 -3.933695e+00 -3.915974e+00 -3.898269e+00 -3.892230e+00 -3.878775e+00 -3.880455e+00 -3.870218e+00 
-3.815705e+00 -3.807101e+00 -3.818224e+00 -3.813632e+00 -3.826730e+00 -3.829047e+00 -3.844960e+00 -3.858664e+00 -3.880396e+00 -3.912142e+00 -3.946456e+00 -4.005638e+00 -4.064472e+00 -4.161903e+00 -4.258638e+00 -4.399158e+00 -4.536255e+00 -4.698416e+00 -4.911938e+00 -4.438888e+00 4.471096e-01 8.616571e+00 1.306785e+01 1.360470e+01 1.375209e+01 1.394420e+01 1.403928e+01 1.412101e+01 1.419488e+01 1.431400e+01 1.439416e+01 1.445958e+01 1.448124e+01 1.445919e+01 1.439482e+01 1.431132e+01 1.419386e+01 1.411626e+01 1.403502e+01 1.394575e+01 1.376551e+01 1.360338e+01 1.315467e+01 8.813896e+00 5.588399e-01 -4.388363e+00 -4.903991e+00 -4.690333e+00 -4.526284e+00 -4.394402e+00 -4.251630e+00 -4.159835e+00 -4.060161e+00 -4.004889e+00 -3.943990e+00 -3.911930e+00 -3.879023e+00 -3.858617e+00 -3.844190e+00 -3.829025e+00 -3.826305e+00 -3.813610e+00 -3.818031e+00 -3.807090e+00 
-3.752788e+00 -3.741634e+00 -3.753880e+00 -3.745275e+00 -3.757699e+00 -3.754577e+00 -3.767697e+00 -3.774602e+00 -3.791061e+00 -3.814747e+00 -3.841339e+00 -3.890766e+00 -3.940486e+00 -4.022910e+00 -4.110794e+00 -4.222742e+00 -4.349798e+00 -4.498066e+00 -4.566954e+00 -9.812942e-01 7.504777e+00 1.272553e+01 1.331403e+01 1.354031e+01 1.366634e+01 1.377058e+01 1.388708e+01 1.401045e+01 1.407362e+01 1.414492e+01 1.415867e+01 1.418764e+01 1.418231e+01 1.418755e+01 1.415968e+01 1.414475e+01 1.407513e+01 1.401097e+01 1.388653e+01 1.377083e+01 1.366713e+01 1.353825e+01 1.332436e+01 1.277451e+01 7.696253e+00 -7.694519e-01 -4.534345e+00 -4.504216e+00 -4.352156e+00 -4.223906e+00 -4.110262e+00 -4.022455e+00 -3.938102e+00 -3.889506e+00 -3.838709e+00 -3.813272e+00 -3.788868e+00 -3.773287e+00 -3.766102e+00 -3.753589e+00 -3.756680e+00 -3.744671e+00 -3.753386e+00 -3.741431e+00 
-3.688149e+00 -3.674135e+00 -3.687485e+00 -3.674697e+00 -3.686364e+00 -3.678014e+00 -3.688033e+00 -3.689295e+00 -3.699646e+00 -3.718604e+00 -3.735423e+00 -3.782943e+00 -3.818269e+00 -3.902511e+00 -3.965440e+00 -4.092415e+00 -4.134506e+00 -4.465920e+00 -2.611490e+00 5.025622e+00 1.191863e+01 1.320988e+01 1.331003e+01 1.346381e+01 1.357009e+01 1.371105e+01 1.379433e+01 1.389553e+01 1.395655e+01 1.404290e+01 1.408368e+01 1.413319e+01 1.413373e+01 1.413295e+01 1.408371e+01 1.404198e+01 1.395603e+01 1.389451e+01 1.379385e+01 1.371238e+01 1.357400e+01 1.346725e+01 1.331496e+01 1.322447e+01 1.201225e+01 5.245394e+00 -2.489131e+00 -4.443239e+00 -4.115188e+00 -4.084318e+00 -3.955667e+00 -3.900285e+00 -3.813893e+00 -3.782706e+00 -3.733689e+00 -3.718825e+00 -3.698991e+00 -3.689477e+00 -3.687762e+00 -3.678078e+00 -3.686229e+00 -3.674694e+00 -3.687421e+00 -3.674126e+00 
-3.627341e+00 -3.610144e+00 -3.625180e+00 -3.607507e+00 -3.618896e+00 -3.603903e+00 -3.611121e+00 -3.604014e+00 -3.607905e+00 -3.616965e+00 -3.621828e+00 -3.657050e+00 -3.672967e+00 -3.732605e+00 -3.775092e+00 -3.817621e+00 -3.907534e+00 -3.811709e+00 1.559314e+00 9.977865e+00 1.302535e+01 1.298776e+01 1.323290e+01 1.333545e+01 1.347555e+01 1.357912e+01 1.367381e+01 1.377019e+01 1.382368e+01 1.389196e+01 1.390857e+01 1.394623e+01 1.393542e+01 1.394624e+01 1.390868e+01 1.389205e+01 1.382354e+01 1.377059e+01 1.367283e+01 1.358010e+01 1.347426e+01 1.333820e+01 1.322998e+01 1.299784e+01 1.301582e+01 1.013736e+01 1.823954e+00 -3.755582e+00 -3.936402e+00 -3.815968e+00 -3.773906e+00 -3.729444e+00 -3.667492e+00 -3.653404e+00 -3.617255e+00 -3.613833e+00 -3.604738e+00 -3.601668e+00 -3.609077e+00 -3.602317e+00 -3.617681e+00 -3.606595e+00 -3.624613e+00 -3.609847e+00 
-3.562862e+00 -3.541661e+00 -3.558607e+00 -3.535171e+00 -3.546416e+00 -3.523886e+00 -3.528235e+00 -3.512202e+00 -3.509101e+00 -3.509276e+00 -3.500853e+00 -3.529252e+00 -3.525378e+00 -3.571474e+00 -3.618691e+00 -3.548184e+00 -3.933245e+00 -1.556388e+00 6.718938e+00 1.243255e+01 1.292659e+01 1.303225e+01 1.317602e+01 1.330524e+01 1.340927e+01 1.353006e+01 1.360368e+01 1.370183e+01 1.374891e+01 1.382480e+01 1.384568e+01 1.389182e+01 1.388051e+01 1.389182e+01 1.384548e+01 1.382481e+01 1.374828e+01 1.370213e+01 1.360257e+01 1.353142e+01 1.340732e+01 1.330817e+01 1.316788e+01 1.303961e+01 1.289521e+01 1.248313e+01 6.913381e+00 -1.433214e+00 -3.904405e+00 -3.542057e+00 -3.608400e+00 -3.572094e+00 -3.523135e+00 -3.530697e+00 -3.501159e+00 -3.510262e+00 -3.509741e+00 -3.512618e+00 -3.528663e+00 -3.523962e+00 -3.546624e+00 -3.535127e+00 -3.558683e+00 -3.541632e+00 
-3.508139e+00 -3.483117e+00 -3.502493e+00 -3.473375e+00 -3.485328e+00 -3.455013e+00 -3.457815e+00 -3.431906e+00 -3.423207e+00 -3.412606e+00 -3.389399e+00 -3.410673e+00 -3.367750e+00 -3.422245e+00 -3.366317e+00 -3.339839e+00 -3.441603e+00 1.592591e+00 1.019234e+01 1.291460e+01 1.270156e+01 1.298626e+01 1.306154e+01 1.321629e+01 1.331292e+01 1.342795e+01 1.350046e+01 1.359325e+01 1.363409e+01 1.370240e+01 1.371261e+01 1.375506e+01 1.373813e+01 1.375504e+01 1.371208e+01 1.370239e+01 1.363291e+01 1.359338e+01 1.349862e+01 1.342859e+01 1.331116e+01 1.321848e+01 1.306182e+01 1.299209e+01 1.271007e+01 1.292651e+01 1.036660e+01 1.846473e+00 -3.383108e+00 -3.356863e+00 -3.339651e+00 -3.415101e+00 -3.353395e+00 -3.403129e+00 -3.382065e+00 -3.407375e+00 -3.419259e+00 -3.428511e+00 -3.455589e+00 -3.452905e+00 -3.484098e+00 -3.472219e+00 -3.501939e+00 -3.482748e+00 
-3.447860e+00 -3.417722e+00 -3.440040e+00 -3.403582e+00 -3.416673e+00 -3.376164e+00 -3.377773e+00 -3.338401e+00 -3.324034e+00 -3.298400e+00 -3.257681e+00 -3.274337e+00 -3.173698e+00 -3.290924e+00 -3.018117e+00 -3.385356e+00 -1.953182e+00 5.593065e+00 1.204231e+01 1.269397e+01 1.275048e+01 1.292482e+01 1.304117e+01 1.317675e+01 1.327063e+01 1.338836e+01 1.345147e+01 1.354872e+01 1.358345e+01 1.365780e+01 1.366561e+01 1.371390e+01 1.369376e+01 1.371411e+01 1.366539e+01 1.365842e+01 1.358286e+01 1.354973e+01 1.345029e+01 1.338949e+01 1.326842e+01 1.317639e+01 1.303715e+01 1.291701e+01 1.274766e+01 1.265485e+01 1.209991e+01 5.767641e+00 -1.895536e+00 -3.416833e+00 -3.019678e+00 -3.299509e+00 -3.178505e+00 -3.278056e+00 -3.261605e+00 -3.299859e+00 -3.326251e+00 -3.338681e+00 -3.378834e+00 -3.375996e+00 -3.417128e+00 -3.403364e+00 -3.440201e+00 -3.417632e+00 
-3.403055e+00 -3.368613e+00 -3.394079e+00 -3.351324e+00 -3.366579e+00 -3.317021e+00 -3.320026e+00 -3.267999e+00 -3.253821e+00 -3.211948e+00 -3.167693e+00 -3.170050e+00 -3.050088e+00 -3.185290e+00 -2.816469e+00 -3.384964e+00 -2.314403e-01 8.499135e+00 1.265399e+01 1.240241e+01 1.275376e+01 1.281628e+01 1.298196e+01 1.309762e+01 1.319721e+01 1.330886e+01 1.336932e+01 1.346323e+01 1.349240e+01 1.356379e+01 1.356526e+01 1.361290e+01 1.358896e+01 1.361282e+01 1.356423e+01 1.356354e+01 1.349025e+01 1.346283e+01 1.336606e+01 1.330838e+01 1.319325e+01 1.309723e+01 1.297918e+01 1.281632e+01 1.275932e+01 1.240305e+01 1.269946e+01 8.750422e+00 6.082543e-02 -3.291935e+00 -2.759887e+00 -3.148922e+00 -3.031372e+00 -3.155100e+00 -3.160651e+00 -3.204752e+00 -3.250561e+00 -3.263998e+00 -3.318290e+00 -3.314696e+00 -3.365640e+00 -3.350085e+00 -3.393659e+00 -3.368222e+00 
-3.350835e+00 -3.310619e+00 -3.339938e+00 -3.288785e+00 -3.306870e+00 -3.244648e+00 -3.250094e+00 -3.178148e+00 -3.166944e+00 -3.092072e+00 -3.054360e+00 -2.998058e+00 -2.900187e+00 -2.914833e+00 -2.627228e+00 -2.878435e+00 2.382723e+00 1.056416e+01 1.265041e+01 1.236891e+01 1.273618e+01 1.278564e+01 1.295307e+01 1.307107e+01 1.316369e+01 1.328274e+01 1.333511e+01 1.343617e+01 1.345922e+01 1.353708e+01 1.353432e+01 1.358758e+01 1.355949e+01 1.358802e+01 1.353424e+01 1.353840e+01 1.345897e+01 1.343835e+01 1.333452e+01 1.328557e+01 1.316237e+01 1.307371e+01 1.295018e+01 1.278573e+01 1.272949e+01 1.235984e+01 1.262533e+01 1.059915e+01 2.552763e+00 -2.844655e+00 -2.658300e+00 -2.916463e+00 -2.916410e+00 -2.999924e+00 -3.061614e+00 -3.092149e+00 -3.169842e+00 -3.177390e+00 -3.251181e+00 -3.243824e+00 -3.307259e+00 -3.288219e+00 -3.340059e+00 -3.310422e+00 
-3.318811e+00 -3.274328e+00 -3.306999e+00 -3.249529e+00 -3.270849e+00 -3.198774e+00 -3.208663e+00 -3.120640e+00 -3.117919e+00 -3.015507e+00 -2.998839e+00 -2.892054e+00 -2.856283e+00 -2.760686e+00 -2.674905e+00 -2.528925e+00 4.625482e+00 1.189812e+01 1.252971e+01 1.243463e+01 1.268106e+01 1.277075e+01 1.290095e+01 1.303184e+01 1.310742e+01 1.323081e+01 1.327319e+01 1.337518e+01 1.339116e+01 1.346885e+01 1.346079e+01 1.351469e+01 1.348331e+01 1.351455e+01 1.345936e+01 1.346840e+01 1.338815e+01 1.337433e+01 1.326826e+01 1.322931e+01 1.309980e+01 1.302902e+01 1.288838e+01 1.276495e+01 1.265570e+01 1.242181e+01 1.246053e+01 1.190841e+01 4.971009e+00 -2.372400e+00 -2.675582e+00 -2.731365e+00 -2.856475e+00 -2.881197e+00 -2.998422e+00 -3.010084e+00 -3.117254e+00 -3.117404e+00 -3.208089e+00 -3.196795e+00 -3.270467e+00 -3.248442e+00 -3.306811e+00 -3.273980e+00 
-3.277639e+00 -3.227727e+00 -3.264401e+00 -3.198924e+00 -3.223893e+00 -3.139175e+00 -3.153749e+00 -3.044465e+00 -3.050288e+00 -2.909689e+00 -2.913231e+00 -2.732632e+00 -2.752406e+00 -2.495664e+00 -2.574357e+00 -1.671381e+00 6.531314e+00 1.222842e+01 1.230312e+01 1.248291e+01 1.259308e+01 1.277244e+01 1.285600e+01 1.302185e+01 1.307792e+01 1.321848e+01 1.325070e+01 1.336290e+01 1.337279e+01 1.345760e+01 1.344528e+01 1.350472e+01 1.346936e+01 1.350539e+01 1.344545e+01 1.345967e+01 1.337315e+01 1.336656e+01 1.325128e+01 1.322412e+01 1.307877e+01 1.303049e+01 1.285725e+01 1.278780e+01 1.259543e+01 1.252089e+01 1.231211e+01 1.236813e+01 6.924432e+00 -1.584600e+00 -2.632346e+00 -2.506172e+00 -2.770925e+00 -2.733076e+00 -2.918524e+00 -2.907399e+00 -3.051499e+00 -3.042112e+00 -3.153894e+00 -3.137464e+00 -3.223832e+00 -3.197927e+00 -3.264347e+00 -3.227402e+00 
-3.260021e+00 -3.206819e+00 -3.246043e+00 -3.175547e+00 -3.203274e+00 -3.110155e+00 -3.128969e+00 -3.004945e+00 -3.019211e+00 -2.852362e+00 -2.875643e+00 -2.649117e+00 -2.718174e+00 -2.382554e+00 -2.579795e+00 -9.658758e-01 8.046492e+00 1.247589e+01 1.219089e+01 1.257286e+01 1.253859e+01 1.279285e+01 1.281635e+01 1.300973e+01 1.303895e+01 1.318919e+01 1.320807e+01 1.332317e+01 1.332561e+01 1.341107e+01 1.339425e+01 1.345433e+01 1.341629e+01 1.345416e+01 1.339258e+01 1.341055e+01 1.332212e+01 1.332220e+01 1.320238e+01 1.318753e+01 1.303025e+01 1.300685e+01 1.280284e+01 1.278759e+01 1.251628e+01 1.256316e+01 1.215287e+01 1.245741e+01 8.228387e+00 -9.074399e-01 -2.620090e+00 -2.405128e+00 -2.734613e+00 -2.654854e+00 -2.881751e+00 -2.852579e+00 -3.021306e+00 -3.003796e+00 -3.129669e+00 -3.109010e+00 -3.203498e+00 -3.174792e+00 -3.246104e+00 -3.206560e+00 
-3.232032e+00 -3.174985e+00 -3.217248e+00 -3.141061e+00 -3.171667e+00 -3.069591e+00 -3.092158e+00 -2.953597e+00 -2.974393e+00 -2.784276e+00 -2.820744e+00 -2.560766e+00 -2.655260e+00 -2.288939e+00 -2.514049e+00 -4.499447e-01 8.814096e+00 1.241512e+01 1.207376e+01 1.256576e+01 1.247313e+01 1.278875e+01 1.278167e+01 1.300568e+01 1.302061e+01 1.318684e+01 1.319877e+01 1.332319e+01 1.332178e+01 1.341341e+01 1.339385e+01 1.345848e+01 1.341770e+01 1.345933e+01 1.339425e+01 1.341604e+01 1.332268e+01 1.332790e+01 1.320041e+01 1.319418e+01 1.302336e+01 1.301648e+01 1.278621e+01 1.280424e+01 1.248092e+01 1.258692e+01 1.208946e+01 1.243443e+01 9.058781e+00 -2.660283e-01 -2.489761e+00 -2.280983e+00 -2.649198e+00 -2.555339e+00 -2.817769e+00 -2.779432e+00 -2.972439e+00 -2.949935e+00 -3.091000e+00 -3.067194e+00 -3.171061e+00 -3.139732e+00 -3.216993e+00 -3.174560e+00 
-3.229688e+00 -3.171362e+00 -3.214451e+00 -3.136162e+00 -3.167717e+00 -3.061697e+00 -3.085701e+00 -2.939576e+00 -2.962845e+00 -2.758784e+00 -2.799201e+00 -2.515661e+00 -2.611520e+00 -2.211817e+00 -2.399146e+00 2.061316e-02 9.346913e+00 1.240349e+01 1.206251e+01 1.259560e+01 1.245997e+01 1.280388e+01 1.276690e+01 1.300339e+01 1.300171e+01 1.317188e+01 1.317491e+01 1.329961e+01 1.329336e+01 1.338416e+01 1.336199e+01 1.342597e+01 1.338394e+01 1.342580e+01 1.336023e+01 1.338364e+01 1.328971e+01 1.329868e+01 1.316912e+01 1.317039e+01 1.299339e+01 1.300106e+01 1.275574e+01 1.280035e+01 1.244718e+01 1.259143e+01 1.205665e+01 1.240429e+01 9.555680e+00 1.481769e-01 -2.436453e+00 -2.247503e+00 -2.633326e+00 -2.530485e+00 -2.808956e+00 -2.763206e+00 -2.966763e+00 -2.940190e+00 -3.087276e+00 -3.061277e+00 -3.168354e+00 -3.135693e+00 -3.214677e+00 -3.171178e+00 
-3.216485e+00 -3.156800e+00 -3.201130e+00 -3.120931e+00 -3.153606e+00 -3.044929e+00 -3.070301e+00 -2.920662e+00 -2.946270e+00 -2.738393e+00 -2.783636e+00 -2.498902e+00 -2.604110e+00 -2.214267e+00 -2.409670e+00 1.113077e-01 9.466070e+00 1.236061e+01 1.202243e+01 1.257319e+01 1.243426e+01 1.279326e+01 1.275533e+01 1.300182e+01 1.300061e+01 1.317751e+01 1.318123e+01 1.331079e+01 1.330491e+01 1.339936e+01 1.337706e+01 1.344372e+01 1.340090e+01 1.344463e+01 1.337755e+01 1.340219e+01 1.330603e+01 1.331586e+01 1.318326e+01 1.318532e+01 1.300403e+01 1.301284e+01 1.276082e+01 1.280708e+01 1.244270e+01 1.258545e+01 1.203429e+01 1.235278e+01 9.666699e+00 3.164222e-01 -2.361501e+00 -2.199859e+00 -2.588347e+00 -2.491255e+00 -2.777095e+00 -2.732680e+00 -2.942942e+00 -2.916569e+00 -3.068583e+00 -3.042299e+00 -3.152767e+00 -3.119484e+00 -3.200789e+00 -3.156339e+00 