# vtk DataFile Version 2.0
Comment goes here
ASCII

DATASET STRUCTURED_POINTS
FIELD FieldData 1
TIME 1 1 double
0.16000000
DIMENSIONS    64   64   1

ORIGIN    0.000   0.000   0.000
SPACING   0.015625 0.015625   1.000

POINT_DATA   4096
SCALARS P double
LOOKUP_TABLE default

-4.828153e+00 -4.815168e+00 -4.799427e+00 -4.758229e+00 -4.713818e+00 -4.645388e+00 -4.573201e+00 -4.479172e+00 -4.380895e+00 -4.263655e+00 -4.141893e+00 -4.004701e+00 -3.863060e+00 -3.710122e+00 -3.553214e+00 -3.389681e+00 -3.223002e+00 -3.054845e+00 -2.884560e+00 -2.718328e+00 -2.551002e+00 -2.393503e+00 -2.235850e+00 -2.093852e+00 -1.952559e+00 -1.832557e+00 -1.714135e+00 -1.622164e+00 -1.532740e+00 -1.474055e+00 -1.418893e+00 -1.397352e+00 -1.380030e+00 -1.397266e+00 -1.418874e+00 -1.473796e+00 -1.532697e+00 -1.621723e+00 -1.714061e+00 -1.831927e+00 -1.952450e+00 -2.093032e+00 -2.235709e+00 -2.392505e+00 -2.550833e+00 -2.717175e+00 -2.884373e+00 -3.053574e+00 -3.222808e+00 -3.388340e+00 -3.553025e+00 -3.708771e+00 -3.862886e+00 -4.003405e+00 -4.141741e+00 -4.262483e+00 -4.380770e+00 -4.478186e+00 -4.573105e+00 -4.644643e+00 -4.713753e+00 -4.757765e+00 -4.799394e+00 -4.815011e+00 
-4.823859e+00 -4.811034e+00 -4.795048e+00 -4.753980e+00 -4.709367e+00 -4.640991e+00 -4.568663e+00 -4.474563e+00 -4.376208e+00 -4.258733e+00 -4.136937e+00 -3.999331e+00 -3.857672e+00 -3.704157e+00 -3.547230e+00 -3.383016e+00 -3.216331e+00 -3.047497e+00 -2.877286e+00 -2.710523e+00 -2.543461e+00 -2.385720e+00 -2.228621e+00 -2.086739e+00 -1.946298e+00 -1.826709e+00 -1.709317e+00 -1.617868e+00 -1.529440e+00 -1.471157e+00 -1.416745e+00 -1.395291e+00 -1.378335e+00 -1.395248e+00 -1.416811e+00 -1.471026e+00 -1.529571e+00 -1.617643e+00 -1.709509e+00 -1.826384e+00 -1.946554e+00 -2.086317e+00 -2.228948e+00 -2.385211e+00 -2.543862e+00 -2.709946e+00 -2.877760e+00 -3.046873e+00 -3.216868e+00 -3.382373e+00 -3.547810e+00 -3.703523e+00 -3.858269e+00 -3.998736e+00 -4.137514e+00 -4.258208e+00 -4.376728e+00 -4.474130e+00 -4.569091e+00 -4.640670e+00 -4.709671e+00 -4.753783e+00 -4.795205e+00 -4.810967e+00 
-4.856910e+00 -4.843732e+00 -4.827885e+00 -4.786200e+00 -4.741347e+00 -4.672108e+00 -4.599088e+00 -4.503877e+00 -4.404316e+00 -4.285468e+00 -4.161927e+00 -4.022660e+00 -3.878746e+00 -3.723264e+00 -3.563636e+00 -3.397139e+00 -3.227388e+00 -3.055954e+00 -2.882367e+00 -2.712691e+00 -2.541954e+00 -2.381013e+00 -2.219966e+00 -2.074695e+00 -1.930169e+00 -1.807250e+00 -1.685952e+00 -1.591634e+00 -1.499927e+00 -1.439692e+00 -1.383076e+00 -1.360957e+00 -1.343174e+00 -1.360873e+00 -1.383060e+00 -1.439437e+00 -1.499888e+00 -1.591197e+00 -1.685880e+00 -1.806621e+00 -1.930060e+00 -2.073870e+00 -2.219821e+00 -2.380003e+00 -2.541781e+00 -2.711520e+00 -2.882174e+00 -3.054658e+00 -3.227188e+00 -3.395768e+00 -3.563441e+00 -3.721880e+00 -3.878568e+00 -4.021331e+00 -4.161773e+00 -4.284264e+00 -4.404189e+00 -4.502865e+00 -4.598990e+00 -4.671342e+00 -4.741281e+00 -4.785723e+00 -4.827851e+00 -4.843570e+00 
-4.881353e+00 -4.868183e+00 -4.851949e+00 -4.809956e+00 -4.764440e+00 -4.694493e+00 -4.620500e+00 -4.524075e+00 -4.423169e+00 -4.302495e+00 -4.177170e+00 -4.035399e+00 -3.889214e+00 -3.730552e+00 -3.568172e+00 -3.397927e+00 -3.225035e+00 -3.049507e+00 -2.872582e+00 -2.698796e+00 -2.524813e+00 -2.360121e+00 -2.196224e+00 -2.047863e+00 -1.901082e+00 -1.775850e+00 -1.652924e+00 -1.557025e+00 -1.464256e+00 -1.403076e+00 -1.345906e+00 -1.323396e+00 -1.305545e+00 -1.323357e+00 -1.345976e+00 -1.402953e+00 -1.464389e+00 -1.556806e+00 -1.653114e+00 -1.775524e+00 -1.901332e+00 -2.047430e+00 -2.196546e+00 -2.359594e+00 -2.525216e+00 -2.698195e+00 -2.873067e+00 -3.048857e+00 -3.225592e+00 -3.397254e+00 -3.568781e+00 -3.729888e+00 -3.889845e+00 -4.034776e+00 -4.177785e+00 -4.301946e+00 -4.423726e+00 -4.523624e+00 -4.620958e+00 -4.694160e+00 -4.764766e+00 -4.809753e+00 -4.852118e+00 -4.868114e+00 
-4.943776e+00 -4.930015e+00 -4.913885e+00 -4.870768e+00 -4.824646e+00 -4.753030e+00 -4.677571e+00 -4.578873e+00 -4.475501e+00 -4.351871e+00 -4.223001e+00 -4.077518e+00 -3.926739e+00 -3.763583e+00 -3.595710e+00 -3.420225e+00 -3.241153e+00 -3.059749e+00 -2.876142e+00 -2.695987e+00 -2.514905e+00 -2.343483e+00 -2.172120e+00 -2.016869e+00 -1.862479e+00 -1.730628e+00 -1.600498e+00 -1.498953e+00 -1.400194e+00 -1.335156e+00 -1.274030e+00 -1.250110e+00 -1.230895e+00 -1.250033e+00 -1.274024e+00 -1.334916e+00 -1.400166e+00 -1.498530e+00 -1.600432e+00 -1.730000e+00 -1.862366e+00 -2.016028e+00 -2.171966e+00 -2.342437e+00 -2.514718e+00 -2.694760e+00 -2.875931e+00 -3.058380e+00 -3.240933e+00 -3.418764e+00 -3.595499e+00 -3.762098e+00 -3.926552e+00 -4.076085e+00 -4.222842e+00 -4.350571e+00 -4.475371e+00 -4.577779e+00 -4.677471e+00 -4.752202e+00 -4.824578e+00 -4.870253e+00 -4.913850e+00 -4.929840e+00 
-4.997506e+00 -4.983648e+00 -4.966981e+00 -4.923202e+00 -4.875990e+00 -4.803012e+00 -4.725811e+00 -4.624862e+00 -4.518951e+00 -4.391977e+00 -4.259624e+00 -4.109550e+00 -3.954248e+00 -3.785214e+00 -3.611777e+00 -3.429266e+00 -3.243738e+00 -3.054508e+00 -2.863881e+00 -2.675668e+00 -2.487540e+00 -2.308567e+00 -2.130765e+00 -1.969114e+00 -1.809348e+00 -1.672532e+00 -1.538218e+00 -1.433133e+00 -1.331357e+00 -1.264150e+00 -1.201213e+00 -1.176495e+00 -1.156765e+00 -1.176465e+00 -1.201295e+00 -1.264047e+00 -1.331500e+00 -1.432932e+00 -1.538404e+00 -1.672206e+00 -1.809582e+00 -1.968659e+00 -2.131073e+00 -2.308001e+00 -2.487943e+00 -2.675021e+00 -2.864385e+00 -3.053805e+00 -3.244332e+00 -3.428534e+00 -3.612444e+00 -3.784486e+00 -3.954953e+00 -4.108867e+00 -4.260320e+00 -4.391378e+00 -4.519585e+00 -4.624375e+00 -4.726334e+00 -4.802656e+00 -4.876361e+00 -4.922986e+00 -4.967174e+00 -4.983576e+00 
-5.090474e+00 -5.075736e+00 -5.059255e+00 -5.013855e+00 -4.965823e+00 -4.890429e+00 -4.811134e+00 -4.706834e+00 -4.597279e+00 -4.465843e+00 -4.328121e+00 -4.172322e+00 -4.009955e+00 -3.833873e+00 -3.651953e+00 -3.461157e+00 -3.266165e+00 -3.067662e+00 -2.866975e+00 -2.668817e+00 -2.470127e+00 -2.280701e+00 -2.091700e+00 -1.919244e+00 -1.747820e+00 -1.600430e+00 -1.454856e+00 -1.340586e+00 -1.229339e+00 -1.155753e+00 -1.086573e+00 -1.059425e+00 -1.037652e+00 -1.059361e+00 -1.086593e+00 -1.155547e+00 -1.229340e+00 -1.340198e+00 -1.454802e+00 -1.599814e+00 -1.747699e+00 -1.918378e+00 -2.091528e+00 -2.279593e+00 -2.469915e+00 -2.667498e+00 -2.866732e+00 -3.066167e+00 -3.265908e+00 -3.459539e+00 -3.651713e+00 -3.832210e+00 -4.009752e+00 -4.170707e+00 -4.327956e+00 -4.464372e+00 -4.597147e+00 -4.705595e+00 -4.811030e+00 -4.889494e+00 -4.965750e+00 -5.013274e+00 -5.059216e+00 -5.075539e+00 
-5.174526e+00 -5.159642e+00 -5.142496e+00 -5.096217e+00 -5.046766e+00 -4.969550e+00 -4.887890e+00 -4.780510e+00 -4.667375e+00 -4.531240e+00 -4.388446e+00 -4.226020e+00 -4.056892e+00 -3.872115e+00 -3.681698e+00 -3.480270e+00 -3.275198e+00 -3.064586e+00 -2.852671e+00 -2.641771e+00 -2.431582e+00 -2.230131e+00 -2.030601e+00 -1.848106e+00 -1.668021e+00 -1.513018e+00 -1.360752e+00 -1.241106e+00 -1.124942e+00 -1.048063e+00 -9.758144e-01 -9.475266e-01 -9.247569e-01 -9.475178e-01 -9.759296e-01 -1.048009e+00 -1.125114e+00 -1.240949e+00 -1.360929e+00 -1.512698e+00 -1.668215e+00 -1.847611e+00 -2.030876e+00 -2.229494e+00 -2.431978e+00 -2.641051e+00 -2.853205e+00 -3.063803e+00 -3.275851e+00 -3.479444e+00 -3.682455e+00 -3.871284e+00 -4.057718e+00 -4.225240e+00 -4.389277e+00 -4.530561e+00 -4.668137e+00 -4.779968e+00 -4.888519e+00 -4.969161e+00 -5.047211e+00 -5.095984e+00 -5.142726e+00 -5.159565e+00 
-5.299653e+00 -5.283541e+00 -5.266848e+00 -5.218508e+00 -5.168295e+00 -5.088057e+00 -5.003957e+00 -4.892326e+00 -4.774556e+00 -4.632613e+00 -4.482612e+00 -4.312528e+00 -4.133608e+00 -3.939172e+00 -3.736867e+00 -3.523886e+00 -3.305701e+00 -3.082102e+00 -2.856635e+00 -2.631999e+00 -2.407840e+00 -2.191956e+00 -1.977193e+00 -1.779279e+00 -1.582535e+00 -1.411795e+00 -1.242833e+00 -1.109121e+00 -9.786819e-01 -8.918974e-01 -8.102597e-01 -7.780981e-01 -7.523874e-01 -7.780636e-01 -8.103413e-01 -8.917617e-01 -9.787515e-01 -1.108814e+00 -1.242800e+00 -1.411214e+00 -1.582388e+00 -1.778380e+00 -1.976993e+00 -2.190752e+00 -2.407593e+00 -2.630553e+00 -2.856342e+00 -3.080428e+00 -3.305375e+00 -3.522034e+00 -3.736578e+00 -3.937237e+00 -4.133388e+00 -4.310633e+00 -4.482447e+00 -4.630884e+00 -4.774424e+00 -4.890873e+00 -5.003848e+00 -5.086963e+00 -5.168212e+00 -5.217831e+00 -5.266803e+00 -5.283312e+00 
-5.415377e+00 -5.399141e+00 -5.381722e+00 -5.332494e+00 -5.280727e+00 -5.198525e+00 -5.111714e+00 -4.996542e+00 -4.874437e+00 -4.726764e+00 -4.570319e+00 -4.391734e+00 -4.203894e+00 -3.997840e+00 -3.783981e+00 -3.556320e+00 -3.323998e+00 -3.083130e+00 -2.841269e+00 -2.597719e+00 -2.356155e+00 -2.122230e+00 -1.891619e+00 -1.679234e+00 -1.470117e+00 -1.289092e+00 -1.111056e+00 -9.704096e-01 -8.333550e-01 -7.424210e-01 -6.565559e-01 -6.230839e-01 -5.958684e-01 -6.231233e-01 -6.567632e-01 -7.424742e-01 -8.336092e-01 -9.703577e-01 -1.111216e+00 -1.288794e+00 -1.470210e+00 -1.678669e+00 -1.891818e+00 -2.121463e+00 -2.356530e+00 -2.596906e+00 -2.841850e+00 -3.082249e+00 -3.324722e+00 -3.555361e+00 -3.784867e+00 -3.996852e+00 -4.204904e+00 -4.390806e+00 -4.571356e+00 -4.725972e+00 -4.875393e+00 -4.995930e+00 -5.112498e+00 -5.198100e+00 -5.281278e+00 -5.332247e+00 -5.382005e+00 -5.399060e+00 
-5.574490e+00 -5.556612e+00 -5.540204e+00 -5.488604e+00 -5.436597e+00 -5.351038e+00 -5.261964e+00 -5.141981e+00 -5.014639e+00 -4.860127e+00 -4.694673e+00 -4.506682e+00 -4.305872e+00 -4.087479e+00 -3.857483e+00 -3.614540e+00 -3.364624e+00 -3.106243e+00 -2.847086e+00 -2.585617e+00 -2.327058e+00 -2.074454e+00 -1.824134e+00 -1.590490e+00 -1.357852e+00 -1.153668e+00 -9.510127e-01 -7.891593e-01 -6.309958e-01 -5.252626e-01 -4.257580e-01 -3.864922e-01 -3.551921e-01 -3.865171e-01 -4.259951e-01 -5.252661e-01 -6.312269e-01 -7.890394e-01 -9.510148e-01 -1.153167e+00 -1.357622e+00 -1.589548e+00 -1.823900e+00 -2.073091e+00 -2.326772e+00 -2.584029e+00 -2.846730e+00 -3.104339e+00 -3.364157e+00 -3.612360e+00 -3.857114e+00 -4.085150e+00 -4.305650e+00 -4.504382e+00 -4.694532e+00 -4.858031e+00 -5.014518e+00 -5.140229e+00 -5.261845e+00 -5.349730e+00 -5.436495e+00 -5.487799e+00 -5.540145e+00 -5.556341e+00 
-5.723266e+00 -5.705378e+00 -5.688308e+00 -5.636127e+00 -5.582765e+00 -5.495607e+00 -5.403952e+00 -5.280590e+00 -5.148666e+00 -4.987997e+00 -4.815132e+00 -4.617156e+00 -4.405469e+00 -4.172521e+00 -3.927873e+00 -3.665682e+00 -3.397109e+00 -3.115099e+00 -2.832731e+00 -2.543067e+00 -2.257850e+00 -1.977552e+00 -1.703051e+00 -1.448819e+00 -1.199369e+00 -9.825493e-01 -7.692865e-01 -6.000870e-01 -4.346796e-01 -3.250062e-01 -2.207786e-01 -1.805831e-01 -1.473645e-01 -1.807339e-01 -2.212410e-01 -3.252856e-01 -4.351685e-01 -6.002877e-01 -7.694109e-01 -9.823001e-01 -1.199189e+00 -1.448125e+00 -1.703102e+00 -1.976498e+00 -2.258170e+00 -2.542186e+00 -2.833419e+00 -3.114126e+00 -3.397885e+00 -3.664540e+00 -3.928925e+00 -4.171287e+00 -4.406760e+00 -4.616001e+00 -4.816487e+00 -4.987051e+00 -5.149906e+00 -5.279899e+00 -5.404952e+00 -5.495154e+00 -5.583457e+00 -5.635876e+00 -5.688659e+00 -5.705299e+00 
-5.917981e+00 -5.897985e+00 -5.882916e+00 -5.828308e+00 -5.776003e+00 -5.685629e+00 -5.592852e+00 -5.464707e+00 -5.327771e+00 -5.159813e+00 -4.976378e+00 -4.767676e+00 -4.539115e+00 -4.291210e+00 -4.024465e+00 -3.742454e+00 -3.449791e+00 -3.143402e+00 -2.839203e+00 -2.526690e+00 -2.223139e+00 -1.920353e+00 -1.621405e+00 -1.338328e+00 -1.055114e+00 -8.037556e-01 -5.538517e-01 -3.529249e-01 -1.570606e-01 -2.654455e-02 9.642932e-02 1.444923e-01 1.830260e-01 1.443376e-01 9.578761e-02 -2.679129e-02 -1.576973e-01 -3.532546e-01 -5.539063e-01 -8.034041e-01 -1.054572e+00 -1.337335e+00 -1.621181e+00 -1.918633e+00 -2.222815e+00 -2.525047e+00 -2.838824e+00 -3.141225e+00 -3.448970e+00 -3.739821e+00 -4.023970e+00 -4.288310e+00 -4.538956e+00 -4.764795e+00 -4.976323e+00 -5.157207e+00 -5.327679e+00 -5.462559e+00 -5.592708e+00 -5.684045e+00 -5.775858e+00 -5.827344e+00 -5.882826e+00 -5.897662e+00 
-6.100759e+00 -6.080986e+00 -6.065531e+00 -6.011098e+00 -5.958184e+00 -5.867341e+00 -5.772906e+00 -5.642573e+00 -5.501680e+00 -5.328245e+00 -5.137160e+00 -4.917834e+00 -4.676859e+00 -4.411665e+00 -4.127382e+00 -3.821060e+00 -3.505334e+00 -3.168419e+00 -2.832176e+00 -2.475934e+00 -2.129153e+00 -1.780841e+00 -1.442668e+00 -1.130531e+00 -8.263508e-01 -5.627741e-01 -3.048112e-01 -1.002069e-01 1.000067e-01 2.313760e-01 3.578757e-01 4.053763e-01 4.459703e-01 4.049347e-01 3.567063e-01 2.306521e-01 9.884880e-02 -1.010368e-01 -3.048658e-01 -5.625871e-01 -8.253654e-01 -1.129646e+00 -1.442531e+00 -1.778953e+00 -2.129280e+00 -2.475245e+00 -2.833247e+00 -3.167428e+00 -3.505964e+00 -3.819659e+00 -4.128640e+00 -4.410013e+00 -4.678607e+00 -4.916321e+00 -5.139012e+00 -5.327098e+00 -5.503331e+00 -5.641817e+00 -5.774193e+00 -5.866898e+00 -5.959047e+00 -6.010876e+00 -6.065960e+00 -6.080919e+00 
-6.331749e+00 -6.309418e+00 -6.297550e+00 -6.241110e+00 -6.191794e+00 -6.098670e+00 -6.005994e+00 -5.871885e+00 -5.727942e+00 -5.547803e+00 -5.345489e+00 -5.115129e+00 -4.852529e+00 -4.570646e+00 -4.255179e+00 -3.924113e+00 -3.573137e+00 -3.197915e+00 -2.832671e+00 -2.447730e+00 -2.088939e+00 -1.719811e+00 -1.354875e+00 -1.005939e+00 -6.525130e-01 -3.363079e-01 -2.304632e-02 2.291253e-01 4.719517e-01 6.300288e-01 7.803414e-01 8.370875e-01 8.837890e-01 8.365578e-01 7.786129e-01 6.294973e-01 4.702508e-01 2.275921e-01 -2.320257e-02 -3.361013e-01 -6.507546e-01 -1.005043e+00 -1.355105e+00 -1.716885e+00 -2.088425e+00 -2.446623e+00 -2.832654e+00 -3.195375e+00 -3.571170e+00 -3.920835e+00 -4.254551e+00 -4.566884e+00 -4.852670e+00 -5.111408e+00 -5.345663e+00 -5.544505e+00 -5.727893e+00 -5.869231e+00 -6.005776e+00 -6.096758e+00 -6.191547e+00 -6.239965e+00 -6.297396e+00 -6.309038e+00 
-6.548355e+00 -6.526627e+00 -6.514973e+00 -6.460070e+00 -6.411726e+00 -6.320364e+00 -6.228248e+00 -6.094777e+00 -5.949036e+00 -5.766164e+00 -5.557371e+00 -5.317741e+00 -5.042126e+00 -4.741227e+00 -4.406140e+00 -4.045079e+00 -3.669556e+00 -3.263064e+00 -2.859064e+00 -2.403290e+00 -1.969562e+00 -1.518655e+00 -1.083822e+00 -6.964893e-01 -3.246154e-01 -7.494735e-03 2.982701e-01 5.404027e-01 7.780073e-01 9.298424e-01 1.081355e+00 1.135678e+00 1.184570e+00 1.134258e+00 1.078215e+00 9.284159e-01 7.749730e-01 5.378840e-01 2.982862e-01 -7.124049e-03 -3.209652e-01 -6.958754e-01 -1.084187e+00 -1.513592e+00 -1.968546e+00 -2.404273e+00 -2.861959e+00 -3.262148e+00 -3.668893e+00 -4.043246e+00 -4.407753e+00 -4.738753e+00 -5.044727e+00 -5.315631e+00 -5.560024e+00 -5.764786e+00 -5.951259e+00 -6.094033e+00 -6.229881e+00 -6.320022e+00 -6.412770e+00 -6.459939e+00 -6.515477e+00 -6.526596e+00 
-6.814159e+00 -6.789636e+00 -6.783863e+00 -6.728206e+00 -6.687874e+00 -6.596428e+00 -6.512000e+00 -6.377324e+00 -6.234134e+00 -6.047006e+00 -5.829305e+00 -5.580837e+00 -5.279480e+00 -4.964450e+00 -4.585120e+00 -4.201476e+00 -3.770643e+00 -3.288911e+00 -2.837125e+00 -2.344955e+00 -1.935924e+00 -1.492602e+00 -1.039434e+00 -6.112787e-01 -1.632572e-01 2.418008e-01 6.371508e-01 9.559054e-01 1.252864e+00 1.433141e+00 1.611877e+00 1.674678e+00 1.728486e+00 1.672486e+00 1.607144e+00 1.433176e+00 1.248429e+00 9.506441e-01 6.364741e-01 2.427544e-01 -1.565008e-01 -6.122741e-01 -1.043162e+00 -1.484204e+00 -1.933255e+00 -2.347592e+00 -2.840226e+00 -3.285276e+00 -3.763986e+00 -4.197269e+00 -4.584973e+00 -4.959280e+00 -5.280688e+00 -5.575877e+00 -5.829968e+00 -6.042790e+00 -6.234076e+00 -6.374063e+00 -6.511563e+00 -6.594160e+00 -6.687407e+00 -6.726885e+00 -6.783582e+00 -6.789204e+00 
-7.062305e+00 -7.038962e+00 -7.034413e+00 -6.982385e+00 -6.945814e+00 -6.859767e+00 -6.780211e+00 -6.651513e+00 -6.511587e+00 -6.328637e+00 -6.109270e+00 -5.858782e+00 -5.547394e+00 -5.217103e+00 -4.818015e+00 -4.392383e+00 -3.943712e+00 -3.467410e+00 -2.997494e+00 -2.383446e+00 -1.829173e+00 -1.214080e+00 -6.096603e-01 -1.376911e-01 2.972029e-01 6.613046e-01 1.001904e+00 1.279129e+00 1.556364e+00 1.724741e+00 1.909042e+00 1.972942e+00 2.030739e+00 1.967221e+00 1.900395e+00 1.723470e+00 1.548586e+00 1.271558e+00 1.001273e+00 6.641021e-01 3.108876e-01 -1.423252e-01 -6.164520e-01 -1.194203e+00 -1.820127e+00 -2.394324e+00 -3.010708e+00 -3.465560e+00 -3.935177e+00 -4.389733e+00 -4.821434e+00 -5.212757e+00 -5.551849e+00 -5.855675e+00 -6.113209e+00 -6.327108e+00 -6.514533e+00 -6.651001e+00 -6.782182e+00 -6.859715e+00 -6.946987e+00 -6.982457e+00 -7.034955e+00 -7.039001e+00 
-7.357521e+00 -7.331813e+00 -7.336007e+00 -7.285875e+00 -7.264235e+00 -7.182215e+00 -7.121363e+00 -6.996532e+00 -6.872347e+00 -6.691471e+00 -6.474942e+00 -6.224719e+00 -5.892636e+00 -5.562532e+00 -5.103907e+00 -4.706889e+00 -4.170019e+00 -3.489127e+00 -2.877588e+00 -2.198091e+00 -1.814681e+00 -1.335613e+00 -7.428509e-01 -2.209559e-01 3.664253e-01 9.158219e-01 1.443445e+00 1.923476e+00 2.363297e+00 2.616117e+00 2.889733e+00 2.995115e+00 3.061470e+00 2.986235e+00 2.878367e+00 2.625670e+00 2.354758e+00 1.903199e+00 1.437506e+00 9.247812e-01 3.957462e-01 -2.350740e-01 -7.662226e-01 -1.299013e+00 -1.795478e+00 -2.222926e+00 -2.902143e+00 -3.478601e+00 -4.140437e+00 -4.701920e+00 -5.109892e+00 -5.554715e+00 -5.896940e+00 -6.217935e+00 -6.476283e+00 -6.686106e+00 -6.871932e+00 -6.992621e+00 -7.120360e+00 -7.179638e+00 -7.263330e+00 -7.284435e+00 -7.335504e+00 -7.331352e+00 
-7.631554e+00 -7.607914e+00 -7.614695e+00 -7.571011e+00 -7.557437e+00 -7.485871e+00 -7.437479e+00 -7.327503e+00 -7.217684e+00 -7.057204e+00 -6.855653e+00 -6.629266e+00 -6.304256e+00 -5.985764e+00 -5.499652e+00 -4.968390e+00 -4.393834e+00 -3.911400e+00 -3.418030e+00 -2.459289e+00 -1.583795e+00 -1.777228e-01 1.554729e+00 2.825134e+00 3.935404e+00 4.969201e+00 5.774468e+00 6.387040e+00 6.900735e+00 7.118358e+00 7.376712e+00 7.454272e+00 7.507029e+00 7.455121e+00 7.375998e+00 7.147275e+00 6.905084e+00 6.370584e+00 5.766739e+00 4.996061e+00 3.970534e+00 2.763331e+00 1.526372e+00 -8.587017e-02 -1.535374e+00 -2.525913e+00 -3.485726e+00 -3.894988e+00 -4.340332e+00 -4.965131e+00 -5.517120e+00 -5.976678e+00 -6.312368e+00 -6.624755e+00 -6.861331e+00 -7.056021e+00 -7.221300e+00 -7.327750e+00 -7.439592e+00 -7.486433e+00 -7.558568e+00 -7.571439e+00 -7.615183e+00 -7.608066e+00 
-7.944445e+00 -7.920441e+00 -7.938541e+00 -7.901592e+00 -7.912430e+00 -7.851696e+00 -7.840820e+00 -7.743833e+00 -7.678429e+00 -7.536438e+00 -7.375319e+00 -7.173983e+00 -6.858493e+00 -6.518176e+00 -5.913446e+00 -5.670724e+00 -4.901136e+00 -3.278470e+00 -8.897751e-01 2.528306e+00 4.982952e+00 6.910536e+00 8.684168e+00 9.495266e+00 9.819561e+00 1.003530e+01 1.005766e+01 9.950003e+00 9.928494e+00 9.774830e+00 9.763598e+00 9.684461e+00 9.699717e+00 9.691458e+00 9.768707e+00 9.797073e+00 9.935531e+00 9.948219e+00 1.004902e+01 1.005465e+01 9.819973e+00 9.420029e+00 8.679571e+00 6.976683e+00 4.955084e+00 2.401807e+00 -9.629589e-01 -3.215654e+00 -4.774253e+00 -5.674430e+00 -5.963943e+00 -6.504350e+00 -6.867293e+00 -7.164788e+00 -7.376037e+00 -7.529811e+00 -7.676459e+00 -7.739380e+00 -7.838559e+00 -7.849003e+00 -7.910782e+00 -7.900190e+00 -7.937713e+00 -7.920010e+00 
-8.234065e+00 -8.213669e+00 -8.235557e+00 -8.208349e+00 -8.232923e+00 -8.188052e+00 -8.201788e+00 -8.131942e+00 -8.103648e+00 -8.016889e+00 -7.915385e+00 -7.786457e+00 -7.492167e+00 -7.238156e+00 -6.356152e+00 -4.387655e+00 -1.398164e-01 5.016373e+00 8.175083e+00 1.072382e+01 1.182163e+01 1.171782e+01 1.173701e+01 1.139090e+01 1.100927e+01 1.066724e+01 1.041863e+01 1.016494e+01 1.006978e+01 9.913494e+00 9.897280e+00 9.817278e+00 9.844423e+00 9.822058e+00 9.900960e+00 9.926002e+00 1.007416e+01 1.016865e+01 1.041680e+01 1.067190e+01 1.100358e+01 1.136121e+01 1.174734e+01 1.172488e+01 1.177649e+01 1.067860e+01 8.239710e+00 5.164639e+00 -3.025842e-02 -4.452370e+00 -6.445763e+00 -7.215128e+00 -7.497038e+00 -7.781463e+00 -7.922055e+00 -8.017672e+00 -8.107173e+00 -8.133937e+00 -8.203453e+00 -8.189641e+00 -8.233655e+00 -8.209265e+00 -8.235831e+00 -8.213962e+00 
-8.544092e+00 -8.528444e+00 -8.561555e+00 -8.549024e+00 -8.607843e+00 -8.583675e+00 -8.663345e+00 -8.620279e+00 -8.692660e+00 -8.661280e+00 -8.668185e+00 -8.582756e+00 -8.249244e+00 -6.808690e+00 -1.585990e+00 5.331982e+00 1.003661e+01 1.303931e+01 1.345448e+01 1.300795e+01 1.263540e+01 1.188900e+01 1.161498e+01 1.125117e+01 1.104286e+01 1.082441e+01 1.071622e+01 1.054993e+01 1.050194e+01 1.036741e+01 1.035855e+01 1.027587e+01 1.030768e+01 1.027896e+01 1.036060e+01 1.037462e+01 1.050398e+01 1.055155e+01 1.071411e+01 1.082351e+01 1.104195e+01 1.123056e+01 1.161276e+01 1.188312e+01 1.262870e+01 1.299406e+01 1.351582e+01 1.307495e+01 9.976021e+00 5.230356e+00 -1.660674e+00 -6.761010e+00 -8.236817e+00 -8.571882e+00 -8.661909e+00 -8.653324e+00 -8.686563e+00 -8.615673e+00 -8.658913e+00 -8.581334e+00 -8.605245e+00 -8.547975e+00 -8.560396e+00 -8.528149e+00 
-8.833576e+00 -8.824680e+00 -8.861072e+00 -8.861741e+00 -8.939751e+00 -8.933643e+00 -9.054261e+00 -9.045627e+00 -9.187557e+00 -9.261136e+00 -9.365595e+00 -9.148511e+00 -6.481693e+00 9.251150e-01 9.211206e+00 1.393505e+01 1.455309e+01 1.400416e+01 1.341497e+01 1.284603e+01 1.263554e+01 1.224532e+01 1.208848e+01 1.174810e+01 1.152246e+01 1.121751e+01 1.103734e+01 1.079927e+01 1.070271e+01 1.054035e+01 1.051484e+01 1.042199e+01 1.045491e+01 1.042393e+01 1.051622e+01 1.054465e+01 1.070404e+01 1.080084e+01 1.103660e+01 1.121569e+01 1.152089e+01 1.173778e+01 1.208926e+01 1.223914e+01 1.262963e+01 1.282919e+01 1.343466e+01 1.399817e+01 1.452219e+01 1.392816e+01 9.234482e+00 1.009565e+00 -6.489194e+00 -9.158772e+00 -9.376824e+00 -9.267378e+00 -9.188901e+00 -9.050497e+00 -9.054295e+00 -8.936404e+00 -8.939567e+00 -8.863072e+00 -8.860944e+00 -8.825073e+00 
-9.110491e+00 -9.116618e+00 -9.156572e+00 -9.183745e+00 -9.297706e+00 -9.323666e+00 -9.541933e+00 -9.565045e+00 -9.902321e+00 -1.006787e+01 -1.018474e+01 -6.836131e+00 2.814481e+00 1.219706e+01 1.528216e+01 1.520372e+01 1.448481e+01 1.407065e+01 1.373288e+01 1.329300e+01 1.297303e+01 1.247558e+01 1.221583e+01 1.184560e+01 1.165263e+01 1.138663e+01 1.126574e+01 1.106925e+01 1.100847e+01 1.086553e+01 1.085508e+01 1.076553e+01 1.080370e+01 1.076671e+01 1.085590e+01 1.086793e+01 1.100927e+01 1.106971e+01 1.126553e+01 1.138441e+01 1.165273e+01 1.183852e+01 1.221658e+01 1.247226e+01 1.297649e+01 1.329365e+01 1.375013e+01 1.408726e+01 1.448198e+01 1.521642e+01 1.530112e+01 1.222956e+01 2.786766e+00 -6.824583e+00 -1.017739e+01 -1.005720e+01 -9.890287e+00 -9.561442e+00 -9.535170e+00 -9.322658e+00 -9.294544e+00 -9.183577e+00 -9.155355e+00 -9.116618e+00 
-9.379064e+00 -9.398956e+00 -9.436646e+00 -9.482003e+00 -9.615877e+00 -9.652718e+00 -9.930247e+00 -9.951066e+00 -1.038160e+01 -1.070556e+01 -8.464113e+00 1.598937e+00 1.299494e+01 1.623991e+01 1.559123e+01 1.523421e+01 1.475998e+01 1.428845e+01 1.385778e+01 1.338332e+01 1.309758e+01 1.269694e+01 1.248261e+01 1.213964e+01 1.194761e+01 1.165662e+01 1.150864e+01 1.127867e+01 1.119217e+01 1.102820e+01 1.100475e+01 1.090585e+01 1.094312e+01 1.090652e+01 1.100516e+01 1.102943e+01 1.119243e+01 1.127860e+01 1.150810e+01 1.165429e+01 1.194660e+01 1.213425e+01 1.248172e+01 1.269139e+01 1.309564e+01 1.337640e+01 1.385896e+01 1.428633e+01 1.474957e+01 1.524028e+01 1.559180e+01 1.623119e+01 1.299878e+01 1.688022e+00 -8.466081e+00 -1.071845e+01 -1.037132e+01 -9.958305e+00 -9.927005e+00 -9.655725e+00 -9.614428e+00 -9.483235e+00 -9.436033e+00 -9.399294e+00 
-9.587008e+00 -9.638663e+00 -9.657957e+00 -9.746993e+00 -9.888777e+00 -9.971982e+00 -1.034646e+01 -1.034859e+01 -1.126236e+01 -1.077559e+01 -1.500387e+00 1.214015e+01 1.679792e+01 1.632079e+01 1.586174e+01 1.535445e+01 1.486500e+01 1.440044e+01 1.403365e+01 1.358988e+01 1.328846e+01 1.286536e+01 1.262409e+01 1.227094e+01 1.208857e+01 1.181088e+01 1.168881e+01 1.147765e+01 1.141287e+01 1.126078e+01 1.124986e+01 1.115394e+01 1.119588e+01 1.115435e+01 1.125027e+01 1.126155e+01 1.141340e+01 1.147764e+01 1.168923e+01 1.180965e+01 1.208932e+01 1.226860e+01 1.262562e+01 1.286472e+01 1.329162e+01 1.359220e+01 1.403912e+01 1.440709e+01 1.486422e+01 1.535744e+01 1.585609e+01 1.630733e+01 1.676864e+01 1.212975e+01 -1.541021e+00 -1.074278e+01 -1.123408e+01 -1.035022e+01 -1.033900e+01 -9.974052e+00 -9.886655e+00 -9.748345e+00 -9.657389e+00 -9.639120e+00 
-9.810973e+00 -9.890883e+00 -9.891726e+00 -1.001487e+01 -1.016022e+01 -1.025022e+01 -1.072831e+01 -1.051015e+01 -1.204096e+01 -7.624085e+00 6.801458e+00 1.680720e+01 1.684080e+01 1.640019e+01 1.587474e+01 1.541700e+01 1.498720e+01 1.451464e+01 1.414803e+01 1.369929e+01 1.341500e+01 1.301991e+01 1.279689e+01 1.245632e+01 1.227611e+01 1.199034e+01 1.185726e+01 1.163053e+01 1.155260e+01 1.138796e+01 1.136889e+01 1.126674e+01 1.130768e+01 1.126686e+01 1.136891e+01 1.138801e+01 1.155240e+01 1.162977e+01 1.185661e+01 1.198830e+01 1.227503e+01 1.245295e+01 1.279547e+01 1.301626e+01 1.341298e+01 1.369601e+01 1.414551e+01 1.451386e+01 1.498101e+01 1.541943e+01 1.586734e+01 1.640257e+01 1.682099e+01 1.678557e+01 6.818026e+00 -7.580088e+00 -1.204475e+01 -1.051405e+01 -1.072641e+01 -1.025120e+01 -1.015846e+01 -1.001514e+01 -9.890842e+00 -9.890939e+00 
-9.922763e+00 -1.005290e+01 -9.999865e+00 -1.019266e+01 -1.025200e+01 -1.046051e+01 -1.075653e+01 -1.077920e+01 -1.177380e+01 -8.982594e-01 1.402097e+01 1.771758e+01 1.679786e+01 1.646179e+01 1.595733e+01 1.547250e+01 1.506884e+01 1.458800e+01 1.425373e+01 1.380787e+01 1.353036e+01 1.312900e+01 1.290387e+01 1.256035e+01 1.238673e+01 1.210635e+01 1.198660e+01 1.176867e+01 1.170377e+01 1.154569e+01 1.153547e+01 1.143503e+01 1.147968e+01 1.143518e+01 1.153575e+01 1.154595e+01 1.170425e+01 1.176866e+01 1.198724e+01 1.210597e+01 1.238769e+01 1.255997e+01 1.290534e+01 1.312975e+01 1.353247e+01 1.381051e+01 1.425600e+01 1.459264e+01 1.506900e+01 1.547733e+01 1.595618e+01 1.646768e+01 1.680012e+01 1.774373e+01 1.406641e+01 -8.509101e-01 -1.178134e+01 -1.079162e+01 -1.076283e+01 -1.046658e+01 -1.025458e+01 -1.019566e+01 -1.000091e+01 -1.005383e+01 
-1.008207e+01 -1.025952e+01 -1.015768e+01 -1.043362e+01 -1.038974e+01 -1.080316e+01 -1.078694e+01 -1.146142e+01 -1.073074e+01 4.736231e+00 1.744278e+01 1.757526e+01 1.699921e+01 1.646407e+01 1.606359e+01 1.552011e+01 1.516912e+01 1.466274e+01 1.434743e+01 1.389288e+01 1.362743e+01 1.323092e+01 1.301346e+01 1.267272e+01 1.249942e+01 1.221477e+01 1.208920e+01 1.186326e+01 1.179086e+01 1.162562e+01 1.161017e+01 1.150608e+01 1.154968e+01 1.150600e+01 1.161001e+01 1.162524e+01 1.179045e+01 1.186228e+01 1.208841e+01 1.221303e+01 1.249821e+01 1.267035e+01 1.301177e+01 1.322851e+01 1.362511e+01 1.389111e+01 1.434430e+01 1.466254e+01 1.516468e+01 1.552184e+01 1.605932e+01 1.646732e+01 1.699923e+01 1.758161e+01 1.748748e+01 4.815158e+00 -1.071360e+01 -1.146009e+01 -1.078497e+01 -1.080131e+01 -1.038763e+01 -1.043249e+01 -1.015654e+01 -1.025917e+01 
-1.010277e+01 -1.032704e+01 -1.016445e+01 -1.050706e+01 -1.034102e+01 -1.089404e+01 -1.056924e+01 -1.160047e+01 -8.370238e+00 9.464389e+00 1.827553e+01 1.712555e+01 1.710584e+01 1.633317e+01 1.610944e+01 1.549334e+01 1.520860e+01 1.468121e+01 1.439802e+01 1.393835e+01 1.368536e+01 1.328533e+01 1.307247e+01 1.273067e+01 1.256309e+01 1.228122e+01 1.216387e+01 1.194273e+01 1.187870e+01 1.171739e+01 1.170809e+01 1.160506e+01 1.165142e+01 1.160512e+01 1.170834e+01 1.171752e+01 1.187918e+01 1.194282e+01 1.216457e+01 1.228132e+01 1.256406e+01 1.273112e+01 1.307376e+01 1.328674e+01 1.368686e+01 1.394120e+01 1.439927e+01 1.468559e+01 1.520880e+01 1.549893e+01 1.610847e+01 1.634030e+01 1.710332e+01 1.713458e+01 1.826111e+01 9.421331e+00 -8.416033e+00 -1.161885e+01 -1.058248e+01 -1.090166e+01 -1.034647e+01 -1.051077e+01 -1.016662e+01 -1.032818e+01 
-1.020295e+01 -1.045530e+01 -1.026533e+01 -1.065414e+01 -1.043746e+01 -1.107323e+01 -1.066311e+01 -1.179083e+01 -6.946029e+00 1.221260e+01 1.880744e+01 1.712292e+01 1.734976e+01 1.637566e+01 1.623131e+01 1.554193e+01 1.528555e+01 1.473061e+01 1.445717e+01 1.398759e+01 1.373870e+01 1.333679e+01 1.312523e+01 1.278242e+01 1.261283e+01 1.232766e+01 1.220544e+01 1.197939e+01 1.190967e+01 1.174400e+01 1.173047e+01 1.162543e+01 1.167042e+01 1.162528e+01 1.173025e+01 1.174349e+01 1.190917e+01 1.197837e+01 1.220458e+01 1.232610e+01 1.261152e+01 1.278049e+01 1.312341e+01 1.333494e+01 1.373624e+01 1.398638e+01 1.445391e+01 1.473060e+01 1.528134e+01 1.554330e+01 1.622636e+01 1.637807e+01 1.734335e+01 1.712568e+01 1.879228e+01 1.221081e+01 -6.937583e+00 -1.177771e+01 -1.065606e+01 -1.106725e+01 -1.043386e+01 -1.065155e+01 -1.026376e+01 -1.045456e+01 
-1.015829e+01 -1.042171e+01 -1.021415e+01 -1.061261e+01 -1.037222e+01 -1.101481e+01 -1.060213e+01 -1.170302e+01 -6.524840e+00 1.265724e+01 1.855026e+01 1.689254e+01 1.724324e+01 1.626300e+01 1.618175e+01 1.548955e+01 1.526235e+01 1.470861e+01 1.445001e+01 1.398186e+01 1.373962e+01 1.333763e+01 1.312951e+01 1.278721e+01 1.262181e+01 1.233923e+01 1.222284e+01 1.200068e+01 1.193708e+01 1.177475e+01 1.176584e+01 1.166195e+01 1.170891e+01 1.166200e+01 1.176608e+01 1.177486e+01 1.193755e+01 1.200081e+01 1.222354e+01 1.233948e+01 1.262278e+01 1.278791e+01 1.313072e+01 1.333924e+01 1.374093e+01 1.398479e+01 1.445103e+01 1.471301e+01 1.526259e+01 1.549545e+01 1.618128e+01 1.627102e+01 1.724316e+01 1.690454e+01 1.855594e+01 1.269789e+01 -6.490747e+00 -1.169829e+01 -1.060614e+01 -1.101865e+01 -1.037663e+01 -1.061570e+01 -1.021634e+01 -1.042279e+01 