# vtk DataFile Version 2.0
Comment goes here
ASCII

DATASET STRUCTURED_POINTS
FIELD FieldData 1
TIME 1 1 double
1.58000000
DIMENSIONS    64   64   1

ORIGIN    0.000   0.000   0.000
SPACING   0.015625 0.015625   1.000

POINT_DATA   4096
SCALARS P double
LOOKUP_TABLE default

-3.970746e+00 -3.975000e+00 -3.969486e+00 -3.972238e+00 -3.965085e+00 -3.966181e+00 -3.957540e+00 -3.956828e+00 -3.946878e+00 -3.944241e+00 -3.933208e+00 -3.928592e+00 -3.916765e+00 -3.910197e+00 -3.897935e+00 -3.889533e+00 -3.877245e+00 -3.867214e+00 -3.855338e+00 -3.843959e+00 -3.832936e+00 -3.820571e+00 -3.810853e+00 -3.797960e+00 -3.790039e+00 -3.777181e+00 -3.771594e+00 -3.759426e+00 -3.756746e+00 -3.746009e+00 -3.746862e+00 -3.738374e+00 -3.743244e+00 -3.737666e+00 -3.746449e+00 -3.743990e+00 -3.755825e+00 -3.756324e+00 -3.769978e+00 -3.773227e+00 -3.787575e+00 -3.793377e+00 -3.807563e+00 -3.815583e+00 -3.829019e+00 -3.838761e+00 -3.851086e+00 -3.861959e+00 -3.872956e+00 -3.884353e+00 -3.893863e+00 -3.905235e+00 -3.913103e+00 -3.924011e+00 -3.930084e+00 -3.940214e+00 -3.944361e+00 -3.953516e+00 -3.955658e+00 -3.963718e+00 -3.963840e+00 -3.970722e+00 -3.968867e+00 -3.974489e+00 
-3.968554e+00 -3.972692e+00 -3.966360e+00 -3.968970e+00 -3.960829e+00 -3.961760e+00 -3.951942e+00 -3.951034e+00 -3.939694e+00 -3.936799e+00 -3.924134e+00 -3.919141e+00 -3.905413e+00 -3.898255e+00 -3.883797e+00 -3.874453e+00 -3.859666e+00 -3.848157e+00 -3.833491e+00 -3.819905e+00 -3.805858e+00 -3.790429e+00 -3.777578e+00 -3.760823e+00 -3.749906e+00 -3.732743e+00 -3.724724e+00 -3.708450e+00 -3.704446e+00 -3.690500e+00 -3.691440e+00 -3.681008e+00 -3.687324e+00 -3.681152e+00 -3.692608e+00 -3.690982e+00 -3.706626e+00 -3.709402e+00 -3.727698e+00 -3.734333e+00 -3.753507e+00 -3.763169e+00 -3.781712e+00 -3.793499e+00 -3.810460e+00 -3.823504e+00 -3.838458e+00 -3.851990e+00 -3.864831e+00 -3.878219e+00 -3.888948e+00 -3.901711e+00 -3.910321e+00 -3.922132e+00 -3.928582e+00 -3.939250e+00 -3.943490e+00 -3.952923e+00 -3.954929e+00 -3.963093e+00 -3.962887e+00 -3.969761e+00 -3.967409e+00 -3.972954e+00 
-3.972317e+00 -3.976639e+00 -3.971057e+00 -3.973886e+00 -3.966659e+00 -3.967834e+00 -3.959111e+00 -3.958472e+00 -3.948429e+00 -3.945847e+00 -3.934702e+00 -3.930108e+00 -3.918142e+00 -3.911550e+00 -3.899111e+00 -3.890625e+00 -3.878119e+00 -3.867930e+00 -3.855797e+00 -3.844187e+00 -3.832881e+00 -3.820236e+00 -3.810237e+00 -3.797058e+00 -3.788899e+00 -3.775789e+00 -3.770028e+00 -3.757639e+00 -3.754812e+00 -3.743833e+00 -3.744588e+00 -3.735871e+00 -3.740828e+00 -3.735117e+00 -3.744235e+00 -3.741715e+00 -3.754000e+00 -3.754440e+00 -3.768506e+00 -3.771739e+00 -3.786436e+00 -3.792367e+00 -3.806842e+00 -3.815135e+00 -3.828793e+00 -3.838880e+00 -3.851359e+00 -3.862570e+00 -3.873668e+00 -3.885344e+00 -3.894920e+00 -3.906490e+00 -3.914405e+00 -3.925435e+00 -3.931539e+00 -3.941738e+00 -3.945899e+00 -3.955094e+00 -3.957230e+00 -3.965323e+00 -3.965419e+00 -3.972341e+00 -3.970442e+00 -3.976117e+00 
-3.971898e+00 -3.976156e+00 -3.969700e+00 -3.972460e+00 -3.964190e+00 -3.965290e+00 -3.955335e+00 -3.954602e+00 -3.943105e+00 -3.940377e+00 -3.927518e+00 -3.922667e+00 -3.908681e+00 -3.901618e+00 -3.886814e+00 -3.877480e+00 -3.862238e+00 -3.850599e+00 -3.835356e+00 -3.821428e+00 -3.806679e+00 -3.790623e+00 -3.776954e+00 -3.759265e+00 -3.747443e+00 -3.729133e+00 -3.720231e+00 -3.702825e+00 -3.698233e+00 -3.683448e+00 -3.684252e+00 -3.673282e+00 -3.679911e+00 -3.673388e+00 -3.685596e+00 -3.683823e+00 -3.700658e+00 -3.703637e+00 -3.723401e+00 -3.730634e+00 -3.751155e+00 -3.761650e+00 -3.781141e+00 -3.793855e+00 -3.811332e+00 -3.825254e+00 -3.840414e+00 -3.854660e+00 -3.867546e+00 -3.881427e+00 -3.892146e+00 -3.905192e+00 -3.913784e+00 -3.925719e+00 -3.932150e+00 -3.942846e+00 -3.947058e+00 -3.956485e+00 -3.958442e+00 -3.966608e+00 -3.966327e+00 -3.973238e+00 -3.970788e+00 -3.976413e+00 
-3.977029e+00 -3.981557e+00 -3.975771e+00 -3.978839e+00 -3.971391e+00 -3.972814e+00 -3.963852e+00 -3.963443e+00 -3.953130e+00 -3.950726e+00 -3.939255e+00 -3.934747e+00 -3.922368e+00 -3.915719e+00 -3.902750e+00 -3.894013e+00 -3.880842e+00 -3.870166e+00 -3.857235e+00 -3.844899e+00 -3.832699e+00 -3.819160e+00 -3.808266e+00 -3.794180e+00 -3.785280e+00 -3.771413e+00 -3.765168e+00 -3.752164e+00 -3.748871e+00 -3.737136e+00 -3.737465e+00 -3.727985e+00 -3.733149e+00 -3.727058e+00 -3.737306e+00 -3.734672e+00 -3.748452e+00 -3.748673e+00 -3.764008e+00 -3.767093e+00 -3.782838e+00 -3.789169e+00 -3.804524e+00 -3.813714e+00 -3.828047e+00 -3.839261e+00 -3.852196e+00 -3.864493e+00 -3.875881e+00 -3.888424e+00 -3.898195e+00 -3.910357e+00 -3.918412e+00 -3.929789e+00 -3.935989e+00 -3.946368e+00 -3.950573e+00 -3.959864e+00 -3.961983e+00 -3.970158e+00 -3.970173e+00 -3.977207e+00 -3.975172e+00 -3.981007e+00 
-3.978561e+00 -3.983068e+00 -3.976362e+00 -3.979438e+00 -3.970915e+00 -3.972370e+00 -3.962155e+00 -3.961787e+00 -3.950001e+00 -3.947623e+00 -3.934401e+00 -3.929856e+00 -3.915379e+00 -3.908533e+00 -3.893053e+00 -3.883778e+00 -3.867623e+00 -3.855775e+00 -3.839355e+00 -3.824785e+00 -3.808593e+00 -3.791275e+00 -3.775914e+00 -3.756242e+00 -3.742483e+00 -3.721645e+00 -3.710696e+00 -3.690745e+00 -3.684824e+00 -3.668360e+00 -3.668914e+00 -3.657000e+00 -3.664275e+00 -3.657030e+00 -3.670729e+00 -3.668497e+00 -3.687863e+00 -3.691200e+00 -3.714300e+00 -3.722902e+00 -3.746409e+00 -3.758725e+00 -3.780164e+00 -3.794896e+00 -3.813306e+00 -3.829128e+00 -3.844575e+00 -3.860327e+00 -3.873219e+00 -3.888097e+00 -3.898762e+00 -3.912335e+00 -3.920889e+00 -3.933010e+00 -3.939415e+00 -3.950109e+00 -3.954274e+00 -3.963642e+00 -3.965503e+00 -3.973646e+00 -3.973211e+00 -3.980183e+00 -3.977528e+00 -3.983313e+00 
-3.984873e+00 -3.989763e+00 -3.983628e+00 -3.987122e+00 -3.979311e+00 -3.981184e+00 -3.971845e+00 -3.971860e+00 -3.961131e+00 -3.959070e+00 -3.947094e+00 -3.942779e+00 -3.929739e+00 -3.923044e+00 -3.909196e+00 -3.900064e+00 -3.885750e+00 -3.874227e+00 -3.859878e+00 -3.846201e+00 -3.832356e+00 -3.817104e+00 -3.804506e+00 -3.788702e+00 -3.778434e+00 -3.763301e+00 -3.756485e+00 -3.742741e+00 -3.738633e+00 -3.725503e+00 -3.724515e+00 -3.713380e+00 -3.718600e+00 -3.711997e+00 -3.724704e+00 -3.722237e+00 -3.739143e+00 -3.738812e+00 -3.756280e+00 -3.758638e+00 -3.776094e+00 -3.783166e+00 -3.800051e+00 -3.811069e+00 -3.826574e+00 -3.840007e+00 -3.853689e+00 -3.868027e+00 -3.879861e+00 -3.893947e+00 -3.904018e+00 -3.917152e+00 -3.925441e+00 -3.937321e+00 -3.943693e+00 -3.954277e+00 -3.958564e+00 -3.967937e+00 -3.970024e+00 -3.978284e+00 -3.978150e+00 -3.985347e+00 -3.983064e+00 -3.989165e+00 
-3.988488e+00 -3.993398e+00 -3.986306e+00 -3.989895e+00 -3.981004e+00 -3.983033e+00 -3.972465e+00 -3.972687e+00 -3.960523e+00 -3.958715e+00 -3.945019e+00 -3.940984e+00 -3.925836e+00 -3.919389e+00 -3.902931e+00 -3.893852e+00 -3.876317e+00 -3.864294e+00 -3.846033e+00 -3.830639e+00 -3.812167e+00 -3.792978e+00 -3.774979e+00 -3.752043e+00 -3.735144e+00 -3.709843e+00 -3.694834e+00 -3.670036e+00 -3.661691e+00 -3.642864e+00 -3.643279e+00 -3.630582e+00 -3.638926e+00 -3.630537e+00 -3.646236e+00 -3.642631e+00 -3.666081e+00 -3.669728e+00 -3.699199e+00 -3.710532e+00 -3.739382e+00 -3.754811e+00 -3.779207e+00 -3.797423e+00 -3.816870e+00 -3.835948e+00 -3.851458e+00 -3.869675e+00 -3.882364e+00 -3.898737e+00 -3.909255e+00 -3.923489e+00 -3.932006e+00 -3.944230e+00 -3.950640e+00 -3.961169e+00 -3.965293e+00 -3.974455e+00 -3.976177e+00 -3.984217e+00 -3.983534e+00 -3.990574e+00 -3.987585e+00 -3.993619e+00 
-3.995821e+00 -4.001256e+00 -3.994612e+00 -3.998765e+00 -3.990455e+00 -3.993034e+00 -3.983213e+00 -3.983911e+00 -3.972674e+00 -3.971197e+00 -3.958602e+00 -3.954675e+00 -3.940786e+00 -3.934149e+00 -3.919094e+00 -3.909494e+00 -3.893518e+00 -3.880761e+00 -3.864240e+00 -3.848382e+00 -3.831861e+00 -3.813614e+00 -3.798021e+00 -3.779176e+00 -3.766419e+00 -3.749425e+00 -3.742975e+00 -3.729516e+00 -3.724467e+00 -3.708904e+00 -3.703896e+00 -3.688904e+00 -3.693076e+00 -3.686278e+00 -3.704452e+00 -3.703757e+00 -3.727061e+00 -3.725326e+00 -3.745266e+00 -3.744728e+00 -3.764341e+00 -3.772918e+00 -3.792193e+00 -3.806724e+00 -3.824036e+00 -3.841429e+00 -3.856099e+00 -3.873830e+00 -3.886176e+00 -3.902599e+00 -3.913038e+00 -3.927448e+00 -3.936080e+00 -3.948451e+00 -3.955105e+00 -3.965751e+00 -3.970179e+00 -3.979485e+00 -3.981521e+00 -3.989789e+00 -3.989413e+00 -3.996791e+00 -3.994116e+00 -4.000594e+00 
-4.001575e+00 -4.007085e+00 -3.999454e+00 -4.003803e+00 -3.994442e+00 -3.997312e+00 -3.986344e+00 -3.987425e+00 -3.974879e+00 -3.973899e+00 -3.959720e+00 -3.956451e+00 -3.940554e+00 -3.934765e+00 -3.917100e+00 -3.908477e+00 -3.889089e+00 -3.877119e+00 -3.856222e+00 -3.840083e+00 -3.818262e+00 -3.796800e+00 -3.775229e+00 -3.747476e+00 -3.726595e+00 -3.694057e+00 -3.670422e+00 -3.635623e+00 -3.623127e+00 -3.602167e+00 -3.603703e+00 -3.592429e+00 -3.602623e+00 -3.592542e+00 -3.609550e+00 -3.601647e+00 -3.630518e+00 -3.633661e+00 -3.675869e+00 -3.693392e+00 -3.731327e+00 -3.751241e+00 -3.779187e+00 -3.803037e+00 -3.822770e+00 -3.847124e+00 -3.861866e+00 -3.883774e+00 -3.895804e+00 -3.914092e+00 -3.924366e+00 -3.939144e+00 -3.947716e+00 -3.959683e+00 -3.966219e+00 -3.976192e+00 -3.980333e+00 -3.988992e+00 -3.990537e+00 -3.998320e+00 -3.997267e+00 -4.004366e+00 -4.000872e+00 -4.007266e+00 
-4.009791e+00 -4.016012e+00 -4.008661e+00 -4.013775e+00 -4.004834e+00 -4.008451e+00 -3.998091e+00 -3.999813e+00 -3.988072e+00 -3.987518e+00 -3.974315e+00 -3.971107e+00 -3.956299e+00 -3.950004e+00 -3.933486e+00 -3.923532e+00 -3.905350e+00 -3.891037e+00 -3.871434e+00 -3.852245e+00 -3.831642e+00 -3.808187e+00 -3.787348e+00 -3.762863e+00 -3.744179e+00 -3.723856e+00 -3.722942e+00 -3.715635e+00 -3.711185e+00 -3.690740e+00 -3.672996e+00 -3.647059e+00 -3.645692e+00 -3.640692e+00 -3.672815e+00 -3.680505e+00 -3.718402e+00 -3.712829e+00 -3.732064e+00 -3.720614e+00 -3.742231e+00 -3.755484e+00 -3.778823e+00 -3.800184e+00 -3.820257e+00 -3.844480e+00 -3.860166e+00 -3.883228e+00 -3.895920e+00 -3.915546e+00 -3.926359e+00 -3.942106e+00 -3.951250e+00 -3.963761e+00 -3.970890e+00 -3.981150e+00 -3.985826e+00 -3.994713e+00 -3.996674e+00 -4.004766e+00 -4.004008e+00 -4.011558e+00 -4.008281e+00 -4.015273e+00 
-4.017635e+00 -4.024023e+00 -4.015652e+00 -4.021093e+00 -4.011159e+00 -4.015210e+00 -4.003858e+00 -4.006118e+00 -3.993305e+00 -3.993454e+00 -3.978955e+00 -3.976751e+00 -3.960216e+00 -3.955422e+00 -3.936481e+00 -3.928716e+00 -3.907054e+00 -3.895629e+00 -3.871056e+00 -3.854776e+00 -3.827844e+00 -3.804541e+00 -3.778514e+00 -3.744239e+00 -3.722823e+00 -3.680698e+00 -3.634845e+00 -3.574493e+00 -3.555467e+00 -3.536794e+00 -3.545130e+00 -3.544202e+00 -3.558389e+00 -3.545579e+00 -3.558567e+00 -3.537024e+00 -3.569610e+00 -3.568425e+00 -3.640611e+00 -3.676263e+00 -3.728868e+00 -3.751790e+00 -3.781576e+00 -3.814755e+00 -3.831893e+00 -3.864868e+00 -3.876972e+00 -3.904083e+00 -3.914796e+00 -3.935081e+00 -3.945189e+00 -3.959861e+00 -3.968827e+00 -3.979688e+00 -3.986655e+00 -3.995335e+00 -3.999632e+00 -4.007294e+00 -4.008618e+00 -4.015917e+00 -4.014311e+00 -4.021471e+00 -4.017217e+00 -4.024142e+00 
-4.026596e+00 -4.033938e+00 -4.025612e+00 -4.032092e+00 -4.022371e+00 -4.027456e+00 -4.016559e+00 -4.019738e+00 -4.007639e+00 -4.008458e+00 -3.994870e+00 -3.992888e+00 -3.977325e+00 -3.971958e+00 -3.953895e+00 -3.944145e+00 -3.923257e+00 -3.907493e+00 -3.883817e+00 -3.860012e+00 -3.833837e+00 -3.801331e+00 -3.772399e+00 -3.736994e+00 -3.697088e+00 -3.665285e+00 -3.691926e+00 -3.717451e+00 -3.723322e+00 -3.689892e+00 -3.629740e+00 -3.567242e+00 -3.543867e+00 -3.548637e+00 -3.621741e+00 -3.663247e+00 -3.740501e+00 -3.723903e+00 -3.721174e+00 -3.668048e+00 -3.691897e+00 -3.726261e+00 -3.758564e+00 -3.792210e+00 -3.816488e+00 -3.851989e+00 -3.867758e+00 -3.898816e+00 -3.911095e+00 -3.934596e+00 -3.945738e+00 -3.962251e+00 -3.972271e+00 -3.983907e+00 -3.991901e+00 -4.000839e+00 -4.005959e+00 -4.013793e+00 -4.015639e+00 -4.023263e+00 -4.021895e+00 -4.029615e+00 -4.025410e+00 -4.033120e+00 
-4.036336e+00 -4.044017e+00 -4.034618e+00 -4.041602e+00 -4.030974e+00 -4.036637e+00 -4.024987e+00 -4.028798e+00 -4.016010e+00 -4.017601e+00 -4.003211e+00 -4.002384e+00 -3.985643e+00 -3.982237e+00 -3.962293e+00 -3.955920e+00 -3.931888e+00 -3.921738e+00 -3.892311e+00 -3.877301e+00 -3.841230e+00 -3.819416e+00 -3.784777e+00 -3.740919e+00 -3.748505e+00 -3.707467e+00 -3.588374e+00 -3.444493e+00 -3.419957e+00 -3.427054e+00 -3.462921e+00 -3.502131e+00 -3.527610e+00 -3.508762e+00 -3.496745e+00 -3.432328e+00 -3.449369e+00 -3.426344e+00 -3.586484e+00 -3.690271e+00 -3.760643e+00 -3.763228e+00 -3.784501e+00 -3.837593e+00 -3.844809e+00 -3.892446e+00 -3.898715e+00 -3.932359e+00 -3.941336e+00 -3.962637e+00 -3.973292e+00 -3.986136e+00 -3.996373e+00 -4.004477e+00 -4.012494e+00 -4.018659e+00 -4.023356e+00 -4.029314e+00 -4.030328e+00 -4.036885e+00 -4.034418e+00 -4.041715e+00 -4.036299e+00 -4.044049e+00 
-4.045861e+00 -4.054817e+00 -4.045119e+00 -4.053509e+00 -4.042813e+00 -4.049898e+00 -4.038532e+00 -4.043669e+00 -4.031561e+00 -4.034266e+00 -4.020861e+00 -4.020767e+00 -4.005039e+00 -4.001616e+00 -3.982292e+00 -3.974216e+00 -3.950275e+00 -3.934576e+00 -3.905826e+00 -3.877187e+00 -3.844781e+00 -3.796695e+00 -3.767148e+00 -3.714111e+00 -3.576630e+00 -3.481796e+00 -3.623965e+00 -3.801581e+00 -3.864390e+00 -3.784180e+00 -3.575707e+00 -3.383846e+00 -3.282346e+00 -3.324678e+00 -3.526291e+00 -3.696704e+00 -3.902116e+00 -3.854370e+00 -3.719420e+00 -3.500984e+00 -3.544878e+00 -3.687610e+00 -3.745069e+00 -3.788635e+00 -3.817923e+00 -3.871394e+00 -3.882682e+00 -3.925199e+00 -3.935089e+00 -3.962125e+00 -3.973773e+00 -3.989019e+00 -4.000841e+00 -4.009407e+00 -4.019060e+00 -4.025026e+00 -4.030930e+00 -4.036769e+00 -4.038396e+00 -4.045212e+00 -4.042840e+00 -4.050816e+00 -4.045160e+00 -4.053941e+00 
-4.057121e+00 -4.066722e+00 -4.055846e+00 -4.065005e+00 -4.053492e+00 -4.061316e+00 -4.049516e+00 -4.055284e+00 -4.043046e+00 -4.046345e+00 -4.032889e+00 -4.033675e+00 -4.017645e+00 -4.016041e+00 -3.995943e+00 -3.991624e+00 -3.966253e+00 -3.957997e+00 -3.924317e+00 -3.911704e+00 -3.857571e+00 -3.851782e+00 -3.767348e+00 -3.689653e+00 -3.899522e+00 -3.941830e+00 -3.273729e+00 -2.028488e+00 -5.403859e-01 9.656192e-01 2.371281e+00 3.393397e+00 3.821200e+00 3.609832e+00 2.817304e+00 1.579702e+00 -6.065260e-02 -1.476408e+00 -3.007659e+00 -3.828536e+00 -3.946979e+00 -3.772762e+00 -3.750057e+00 -3.878882e+00 -3.863251e+00 -3.934400e+00 -3.931439e+00 -3.970189e+00 -3.978730e+00 -3.997341e+00 -4.010791e+00 -4.018167e+00 -4.031493e+00 -4.034029e+00 -4.044142e+00 -4.046015e+00 -4.051421e+00 -4.054822e+00 -4.055294e+00 -4.060943e+00 -4.057073e+00 -4.064780e+00 -4.057552e+00 -4.066648e+00 
-4.066924e+00 -4.078235e+00 -4.066548e+00 -4.077586e+00 -4.065594e+00 -4.075331e+00 -4.063587e+00 -4.071194e+00 -4.059677e+00 -4.064688e+00 -4.052561e+00 -4.054953e+00 -4.040391e+00 -4.040262e+00 -4.020684e+00 -4.017143e+00 -3.990137e+00 -3.979462e+00 -3.943948e+00 -3.916002e+00 -3.869847e+00 -3.790507e+00 -3.870274e+00 -3.750320e+00 -2.556794e+00 2.829743e-01 4.179999e+00 7.551702e+00 9.966841e+00 1.147183e+01 1.242130e+01 1.296401e+01 1.314228e+01 1.303958e+01 1.271570e+01 1.190704e+01 1.053469e+01 8.584298e+00 5.084041e+00 1.571877e+00 -1.589335e+00 -3.505033e+00 -3.854984e+00 -3.801128e+00 -3.826557e+00 -3.919330e+00 -3.909983e+00 -3.968582e+00 -3.973110e+00 -4.000074e+00 -4.013913e+00 -4.022840e+00 -4.038812e+00 -4.040217e+00 -4.053064e+00 -4.053543e+00 -4.060715e+00 -4.063420e+00 -4.064533e+00 -4.070343e+00 -4.066251e+00 -4.074834e+00 -4.066876e+00 -4.077358e+00 
-4.079112e+00 -4.091576e+00 -4.078510e+00 -4.090729e+00 -4.077973e+00 -4.088671e+00 -4.076878e+00 -4.085025e+00 -4.074142e+00 -4.079225e+00 -4.068103e+00 -4.070428e+00 -4.056631e+00 -4.057156e+00 -4.038067e+00 -4.036950e+00 -4.013184e+00 -4.007204e+00 -3.981312e+00 -3.959344e+00 -3.895800e+00 -3.928158e+00 -2.921753e+00 5.026530e-01 4.774346e+00 8.984642e+00 1.189850e+01 1.299645e+01 1.351253e+01 1.347720e+01 1.339185e+01 1.327341e+01 1.325869e+01 1.324854e+01 1.339556e+01 1.343864e+01 1.358321e+01 1.329173e+01 1.235587e+01 1.039525e+01 6.524728e+00 2.081528e+00 -2.082431e+00 -3.822239e+00 -3.925270e+00 -3.995871e+00 -3.985482e+00 -4.017072e+00 -4.031716e+00 -4.038656e+00 -4.059949e+00 -4.055502e+00 -4.075025e+00 -4.067826e+00 -4.081513e+00 -4.076877e+00 -4.083203e+00 -4.083312e+00 -4.082653e+00 -4.087583e+00 -4.081348e+00 -4.090144e+00 -4.080060e+00 -4.091393e+00 
-4.088752e+00 -4.103517e+00 -4.088886e+00 -4.103580e+00 -4.089718e+00 -4.102905e+00 -4.090786e+00 -4.101308e+00 -4.091215e+00 -4.098551e+00 -4.089521e+00 -4.094290e+00 -4.083419e+00 -4.087400e+00 -4.069870e+00 -4.074542e+00 -4.045657e+00 -4.050615e+00 -4.011277e+00 -4.017842e+00 -3.679326e+00 -1.596364e+00 3.326324e+00 9.163597e+00 1.227534e+01 1.318577e+01 1.331039e+01 1.300670e+01 1.298005e+01 1.295335e+01 1.302521e+01 1.304908e+01 1.310270e+01 1.305544e+01 1.305660e+01 1.295256e+01 1.299285e+01 1.295373e+01 1.324826e+01 1.329442e+01 1.266283e+01 1.048177e+01 5.382795e+00 9.073062e-03 -3.368927e+00 -4.023150e+00 -3.958218e+00 -4.030467e+00 -4.033952e+00 -4.046878e+00 -4.069975e+00 -4.062041e+00 -4.087489e+00 -4.075175e+00 -4.093804e+00 -4.085644e+00 -4.094494e+00 -4.093187e+00 -4.092973e+00 -4.098129e+00 -4.091018e+00 -4.101107e+00 -4.089487e+00 -4.102756e+00 
-4.101057e+00 -4.117755e+00 -4.101386e+00 -4.117906e+00 -4.103216e+00 -4.117764e+00 -4.105984e+00 -4.116961e+00 -4.108544e+00 -4.115043e+00 -4.108618e+00 -4.111410e+00 -4.102262e+00 -4.104522e+00 -4.085485e+00 -4.090680e+00 -4.066178e+00 -4.075062e+00 -4.096991e+00 -3.711444e+00 -5.944414e-01 5.777608e+00 1.079043e+01 1.292731e+01 1.327538e+01 1.297970e+01 1.305242e+01 1.312476e+01 1.327286e+01 1.327337e+01 1.331345e+01 1.326725e+01 1.329837e+01 1.326218e+01 1.331872e+01 1.327285e+01 1.329190e+01 1.316278e+01 1.305621e+01 1.294718e+01 1.312049e+01 1.319133e+01 1.209643e+01 8.096946e+00 1.299572e+00 -3.003341e+00 -4.026644e+00 -4.065668e+00 -4.103700e+00 -4.084364e+00 -4.121657e+00 -4.096645e+00 -4.126648e+00 -4.104513e+00 -4.123471e+00 -4.110199e+00 -4.117172e+00 -4.113946e+00 -4.110831e+00 -4.116043e+00 -4.105782e+00 -4.117041e+00 -4.102492e+00 -4.117494e+00 
-4.109945e+00 -4.129730e+00 -4.110728e+00 -4.130465e+00 -4.113699e+00 -4.131414e+00 -4.118558e+00 -4.132405e+00 -4.124609e+00 -4.133495e+00 -4.130276e+00 -4.135319e+00 -4.132475e+00 -4.138529e+00 -4.127004e+00 -4.140146e+00 -4.108838e+00 -4.131147e+00 -3.800331e+00 -3.575496e-01 6.708564e+00 1.206026e+01 1.319367e+01 1.309570e+01 1.309849e+01 1.314605e+01 1.317702e+01 1.308499e+01 1.310434e+01 1.305757e+01 1.310221e+01 1.307759e+01 1.312041e+01 1.307847e+01 1.310871e+01 1.305509e+01 1.310129e+01 1.307792e+01 1.315825e+01 1.318005e+01 1.311515e+01 1.316251e+01 1.322614e+01 1.273803e+01 9.008211e+00 2.056142e+00 -3.012318e+00 -4.076602e+00 -4.137067e+00 -4.094112e+00 -4.143083e+00 -4.101515e+00 -4.146097e+00 -4.111750e+00 -4.139503e+00 -4.120134e+00 -4.130156e+00 -4.125304e+00 -4.121730e+00 -4.127839e+00 -4.115417e+00 -4.128838e+00 -4.111486e+00 -4.129266e+00 
-4.121393e+00 -4.144203e+00 -4.122871e+00 -4.145425e+00 -4.127479e+00 -4.147367e+00 -4.135038e+00 -4.149583e+00 -4.144859e+00 -4.151731e+00 -4.154405e+00 -4.153925e+00 -4.155837e+00 -4.155542e+00 -4.131088e+00 -4.142210e+00 -4.065027e+00 -3.910958e+00 -9.212640e-01 6.592974e+00 1.210785e+01 1.318940e+01 1.314210e+01 1.318748e+01 1.322238e+01 1.314459e+01 1.319870e+01 1.318345e+01 1.326067e+01 1.324159e+01 1.329408e+01 1.325890e+01 1.329908e+01 1.325810e+01 1.329330e+01 1.324293e+01 1.325667e+01 1.319101e+01 1.317680e+01 1.314024e+01 1.316381e+01 1.320303e+01 1.311880e+01 1.317510e+01 1.286289e+01 9.159559e+00 1.329244e+00 -3.586206e+00 -4.231961e+00 -4.135376e+00 -4.193775e+00 -4.138936e+00 -4.184080e+00 -4.141396e+00 -4.167299e+00 -4.144450e+00 -4.150537e+00 -4.145721e+00 -4.137401e+00 -4.145405e+00 -4.128386e+00 -4.144509e+00 -4.123163e+00 -4.143935e+00 
-4.128893e+00 -4.155753e+00 -4.130402e+00 -4.157091e+00 -4.135630e+00 -4.159581e+00 -4.144699e+00 -4.162739e+00 -4.157526e+00 -4.166409e+00 -4.172735e+00 -4.172241e+00 -4.185364e+00 -4.186281e+00 -4.190838e+00 -4.212989e+00 -4.252349e+00 -2.214432e+00 5.169862e+00 1.206968e+01 1.331188e+01 1.325798e+01 1.327769e+01 1.319782e+01 1.321604e+01 1.317857e+01 1.320558e+01 1.314707e+01 1.317688e+01 1.312851e+01 1.316708e+01 1.312798e+01 1.316799e+01 1.312789e+01 1.316544e+01 1.312756e+01 1.316814e+01 1.314735e+01 1.318672e+01 1.318965e+01 1.318961e+01 1.320733e+01 1.320915e+01 1.321716e+01 1.314620e+01 1.273015e+01 8.083520e+00 1.161785e-01 -3.988284e+00 -4.141908e+00 -4.215276e+00 -4.133198e+00 -4.210776e+00 -4.147138e+00 -4.186064e+00 -4.156319e+00 -4.163908e+00 -4.159276e+00 -4.147849e+00 -4.158727e+00 -4.137225e+00 -4.157064e+00 -4.131093e+00 -4.155811e+00 
-4.138497e+00 -4.169718e+00 -4.141171e+00 -4.172095e+00 -4.148523e+00 -4.176265e+00 -4.161219e+00 -4.181380e+00 -4.180309e+00 -4.186625e+00 -4.206015e+00 -4.193582e+00 -4.231425e+00 -4.217883e+00 -4.217105e+00 -4.345966e+00 -3.582373e+00 2.535927e+00 1.054472e+01 1.333479e+01 1.328800e+01 1.329133e+01 1.326500e+01 1.325514e+01 1.327288e+01 1.323142e+01 1.327113e+01 1.323827e+01 1.329034e+01 1.325801e+01 1.330558e+01 1.326815e+01 1.330892e+01 1.326767e+01 1.330135e+01 1.325738e+01 1.327949e+01 1.323784e+01 1.324805e+01 1.322803e+01 1.323459e+01 1.325360e+01 1.322515e+01 1.327866e+01 1.323927e+01 1.333965e+01 1.253111e+01 5.751098e+00 -2.406448e+00 -4.312869e+00 -4.232417e+00 -4.175738e+00 -4.243877e+00 -4.173463e+00 -4.208578e+00 -4.178459e+00 -4.178975e+00 -4.178084e+00 -4.159153e+00 -4.174868e+00 -4.146880e+00 -4.171505e+00 -4.140305e+00 -4.169552e+00 
-4.144114e+00 -4.180380e+00 -4.146266e+00 -4.182397e+00 -4.153390e+00 -4.186585e+00 -4.166380e+00 -4.191542e+00 -4.186768e+00 -4.195110e+00 -4.215179e+00 -4.196861e+00 -4.240728e+00 -4.217683e+00 -4.184724e+00 -4.399567e+00 -9.676279e-01 8.165914e+00 1.317804e+01 1.326762e+01 1.339077e+01 1.328729e+01 1.332941e+01 1.325544e+01 1.328343e+01 1.322666e+01 1.325643e+01 1.320020e+01 1.323350e+01 1.318253e+01 1.322051e+01 1.317557e+01 1.321601e+01 1.317513e+01 1.321617e+01 1.318129e+01 1.322251e+01 1.319926e+01 1.323590e+01 1.322801e+01 1.324866e+01 1.325679e+01 1.326454e+01 1.329211e+01 1.327825e+01 1.334553e+01 1.336649e+01 1.047770e+01 2.030196e+00 -3.852088e+00 -4.397220e+00 -4.137951e+00 -4.291026e+00 -4.182436e+00 -4.227131e+00 -4.196319e+00 -4.190009e+00 -4.195585e+00 -4.167690e+00 -4.190169e+00 -4.154143e+00 -4.184681e+00 -4.146648e+00 -4.181155e+00 
-4.151120e+00 -4.193046e+00 -4.154709e+00 -4.196815e+00 -4.163875e+00 -4.203704e+00 -4.180245e+00 -4.211940e+00 -4.207693e+00 -4.217389e+00 -4.254921e+00 -4.210628e+00 -4.341025e+00 -4.172569e+00 -4.506582e+00 -3.790375e+00 3.341334e+00 1.175288e+01 1.357813e+01 1.332259e+01 1.340525e+01 1.333175e+01 1.335119e+01 1.330885e+01 1.333302e+01 1.328860e+01 1.332400e+01 1.328145e+01 1.332426e+01 1.328279e+01 1.332632e+01 1.328433e+01 1.332558e+01 1.328327e+01 1.332087e+01 1.327978e+01 1.331218e+01 1.327658e+01 1.330316e+01 1.328195e+01 1.330169e+01 1.330431e+01 1.330641e+01 1.334086e+01 1.331964e+01 1.340352e+01 1.333501e+01 1.328955e+01 7.051094e+00 -2.075980e+00 -4.673147e+00 -4.072192e+00 -4.347269e+00 -4.192992e+00 -4.241155e+00 -4.215256e+00 -4.195946e+00 -4.212086e+00 -4.172461e+00 -4.203927e+00 -4.159265e+00 -4.196913e+00 -4.152571e+00 -4.193070e+00 
-4.154729e+00 -4.202322e+00 -4.157148e+00 -4.205453e+00 -4.164993e+00 -4.212382e+00 -4.179938e+00 -4.220687e+00 -4.206589e+00 -4.223234e+00 -4.257966e+00 -4.197182e+00 -4.375082e+00 -4.064217e+00 -4.711112e+00 -1.616051e+00 8.107230e+00 1.360131e+01 1.336398e+01 1.346608e+01 1.339000e+01 1.336658e+01 1.336550e+01 1.331011e+01 1.333157e+01 1.327155e+01 1.330176e+01 1.324255e+01 1.327766e+01 1.322287e+01 1.326210e+01 1.321300e+01 1.325559e+01 1.321209e+01 1.325728e+01 1.322016e+01 1.326707e+01 1.323816e+01 1.328394e+01 1.326516e+01 1.330401e+01 1.329973e+01 1.332292e+01 1.335092e+01 1.332543e+01 1.345061e+01 1.325930e+01 1.370145e+01 1.062257e+01 1.245207e+00 -4.592065e+00 -4.151085e+00 -4.330262e+00 -4.242897e+00 -4.238715e+00 -4.248365e+00 -4.199548e+00 -4.235420e+00 -4.177858e+00 -4.221189e+00 -4.164638e+00 -4.210235e+00 -4.157201e+00 -4.203848e+00 
-4.158923e+00 -4.212827e+00 -4.162791e+00 -4.218475e+00 -4.171845e+00 -4.229492e+00 -4.187542e+00 -4.244381e+00 -4.213932e+00 -4.258114e+00 -4.262854e+00 -4.253493e+00 -4.372846e+00 -4.172633e+00 -4.688443e+00 1.379112e+00 1.126625e+01 1.384818e+01 1.331990e+01 1.352038e+01 1.341187e+01 1.341138e+01 1.340387e+01 1.336068e+01 1.338318e+01 1.333084e+01 1.336521e+01 1.331352e+01 1.335364e+01 1.330455e+01 1.334698e+01 1.330014e+01 1.334320e+01 1.329832e+01 1.334145e+01 1.329899e+01 1.334230e+01 1.330387e+01 1.334794e+01 1.331641e+01 1.336112e+01 1.334060e+01 1.338153e+01 1.338288e+01 1.340512e+01 1.347272e+01 1.340794e+01 1.371661e+01 1.310364e+01 5.108255e+00 -3.878211e+00 -4.350451e+00 -4.237123e+00 -4.307971e+00 -4.210106e+00 -4.275351e+00 -4.189435e+00 -4.250107e+00 -4.174669e+00 -4.231497e+00 -4.164909e+00 -4.219192e+00 -4.159689e+00 -4.213009e+00 
-4.160864e+00 -4.220049e+00 -4.162916e+00 -4.224965e+00 -4.169495e+00 -4.236696e+00 -4.181266e+00 -4.254896e+00 -4.200342e+00 -4.278153e+00 -4.233219e+00 -4.301917e+00 -4.299754e+00 -4.318257e+00 -4.390647e+00 4.131237e+00 1.313959e+01 1.382059e+01 1.345278e+01 1.353407e+01 1.345056e+01 1.341295e+01 1.341491e+01 1.334778e+01 1.337424e+01 1.330424e+01 1.333830e+01 1.327244e+01 1.331037e+01 1.325079e+01 1.329238e+01 1.323937e+01 1.328495e+01 1.323797e+01 1.328800e+01 1.324646e+01 1.330153e+01 1.326462e+01 1.332526e+01 1.329132e+01 1.335831e+01 1.332528e+01 1.340108e+01 1.336862e+01 1.345840e+01 1.342816e+01 1.355543e+01 1.350261e+01 1.376507e+01 8.241130e+00 -2.440910e+00 -4.554208e+00 -4.158797e+00 -4.388670e+00 -4.194188e+00 -4.317121e+00 -4.189824e+00 -4.275768e+00 -4.178875e+00 -4.248766e+00 -4.169284e+00 -4.231445e+00 -4.163075e+00 -4.222108e+00 
-4.162743e+00 -4.227450e+00 -4.166241e+00 -4.235257e+00 -4.173398e+00 -4.251539e+00 -4.183806e+00 -4.277556e+00 -4.196289e+00 -4.315904e+00 -4.207147e+00 -4.372929e+00 -4.201771e+00 -4.472922e+00 -3.628342e+00 6.490705e+00 1.383646e+01 1.366518e+01 1.363778e+01 1.352364e+01 1.353655e+01 1.344178e+01 1.347337e+01 1.339158e+01 1.342870e+01 1.335754e+01 1.339696e+01 1.333442e+01 1.337587e+01 1.331993e+01 1.336335e+01 1.331214e+01 1.335764e+01 1.330964e+01 1.335803e+01 1.331219e+01 1.336534e+01 1.332049e+01 1.338180e+01 1.333546e+01 1.341061e+01 1.335711e+01 1.345688e+01 1.338444e+01 1.353468e+01 1.341448e+01 1.369031e+01 1.341323e+01 1.408736e+01 1.065235e+01 -9.552497e-01 -4.627031e+00 -4.123050e+00 -4.412542e+00 -4.169220e+00 -4.326790e+00 -4.175521e+00 -4.280961e+00 -4.171440e+00 -4.252816e+00 -4.166184e+00 -4.235793e+00 -4.162879e+00 -4.227605e+00 
-4.163645e+00 -4.231721e+00 -4.164977e+00 -4.238403e+00 -4.169304e+00 -4.254928e+00 -4.175194e+00 -4.283868e+00 -4.178977e+00 -4.331396e+00 -4.170717e+00 -4.413148e+00 -4.120843e+00 -4.576967e+00 -2.747697e+00 8.459436e+00 1.412439e+01 1.347646e+01 1.373938e+01 1.346144e+01 1.356753e+01 1.341068e+01 1.347285e+01 1.336256e+01 1.340966e+01 1.332182e+01 1.336378e+01 1.328962e+01 1.333126e+01 1.326715e+01 1.331122e+01 1.325506e+01 1.330330e+01 1.325333e+01 1.330738e+01 1.326175e+01 1.332394e+01 1.327984e+01 1.335400e+01 1.330625e+01 1.339960e+01 1.333867e+01 1.346669e+01 1.337497e+01 1.357251e+01 1.341341e+01 1.376231e+01 1.344325e+01 1.413376e+01 1.185418e+01 6.335826e-02 -4.616358e+00 -4.180672e+00 -4.442526e+00 -4.188408e+00 -4.354791e+00 -4.185697e+00 -4.301428e+00 -4.178385e+00 -4.266931e+00 -4.170978e+00 -4.245344e+00 -4.165730e+00 -4.233988e+00 
-4.164090e+00 -4.235270e+00 -4.167119e+00 -4.244561e+00 -4.172500e+00 -4.264516e+00 -4.178255e+00 -4.298522e+00 -4.179387e+00 -4.354110e+00 -4.164020e+00 -4.447748e+00 -4.106179e+00 -4.617629e+00 -2.209154e+00 9.483130e+00 1.429322e+01 1.348747e+01 1.386042e+01 1.348394e+01 1.364053e+01 1.344381e+01 1.352538e+01 1.340341e+01 1.345800e+01 1.336977e+01 1.341526e+01 1.334456e+01 1.338817e+01 1.332783e+01 1.337250e+01 1.331857e+01 1.336582e+01 1.331569e+01 1.336731e+01 1.331884e+01 1.337795e+01 1.332827e+01 1.340039e+01 1.334388e+01 1.343877e+01 1.336400e+01 1.350031e+01 1.338547e+01 1.360012e+01 1.340511e+01 1.376439e+01 1.341800e+01 1.399542e+01 1.253951e+01 1.007917e+00 -4.428323e+00 -4.168868e+00 -4.391961e+00 -4.169653e+00 -4.337684e+00 -4.171560e+00 -4.293981e+00 -4.169538e+00 -4.263488e+00 -4.166196e+00 -4.244456e+00 -4.163929e+00 -4.235295e+00 
-4.164385e+00 -4.235802e+00 -4.165358e+00 -4.243211e+00 -4.168621e+00 -4.261647e+00 -4.171859e+00 -4.294655e+00 -4.169459e+00 -4.349927e+00 -4.148631e+00 -4.442218e+00 -4.084728e+00 -4.594630e+00 -1.989077e+00 9.750969e+00 1.420016e+01 1.340567e+01 1.382847e+01 1.343353e+01 1.361595e+01 1.340593e+01 1.349763e+01 1.336587e+01 1.342374e+01 1.332713e+01 1.337314e+01 1.329515e+01 1.333856e+01 1.327254e+01 1.331768e+01 1.326029e+01 1.330959e+01 1.325845e+01 1.331407e+01 1.326679e+01 1.333178e+01 1.328482e+01 1.336433e+01 1.331113e+01 1.341480e+01 1.334318e+01 1.349040e+01 1.337839e+01 1.360760e+01 1.341693e+01 1.379298e+01 1.346381e+01 1.403281e+01 1.283740e+01 1.323884e+00 -4.412955e+00 -4.217014e+00 -4.412653e+00 -4.194758e+00 -4.357621e+00 -4.186088e+00 -4.308255e+00 -4.178402e+00 -4.272841e+00 -4.171423e+00 -4.250092e+00 -4.166460e+00 -4.238095e+00 