# vtk DataFile Version 2.0
Comment goes here
ASCII

DATASET STRUCTURED_POINTS
FIELD FieldData 1
TIME 1 1 double
1.73000000
DIMENSIONS    64   64   1

ORIGIN    0.000   0.000   0.000
SPACING   0.015625 0.015625   1.000

POINT_DATA   4096
SCALARS P double
LOOKUP_TABLE default

-3.912656e+00 -3.909373e+00 -3.912270e+00 -3.911114e+00 -3.913915e+00 -3.915008e+00 -3.917573e+00 -3.920975e+00 -3.923213e+00 -3.928908e+00 -3.930782e+00 -3.938657e+00 -3.940187e+00 -3.950005e+00 -3.951239e+00 -3.962599e+00 -3.963570e+00 -3.975871e+00 -3.976549e+00 -3.988967e+00 -3.989231e+00 -4.000778e+00 -4.000445e+00 -4.010126e+00 -4.009046e+00 -4.016153e+00 -4.014339e+00 -4.018823e+00 -4.016575e+00 -4.019244e+00 -4.017171e+00 -4.019306e+00 -4.017974e+00 -4.020456e+00 -4.019873e+00 -4.022554e+00 -4.022077e+00 -4.023902e+00 -4.022730e+00 -4.022449e+00 -4.020276e+00 -4.017098e+00 -4.014215e+00 -4.008006e+00 -4.004942e+00 -3.996142e+00 -3.993367e+00 -3.982745e+00 -3.980571e+00 -3.968966e+00 -3.967559e+00 -3.955699e+00 -3.955119e+00 -3.943565e+00 -3.943800e+00 -3.932960e+00 -3.933952e+00 -3.924139e+00 -3.925793e+00 -3.917269e+00 -3.919465e+00 -3.912471e+00 -3.915065e+00 -3.909824e+00 
-3.912571e+00 -3.909873e+00 -3.912478e+00 -3.911928e+00 -3.914479e+00 -3.916189e+00 -3.918580e+00 -3.922589e+00 -3.924775e+00 -3.931035e+00 -3.933042e+00 -3.941403e+00 -3.943328e+00 -3.953516e+00 -3.955506e+00 -3.967112e+00 -3.969312e+00 -3.981788e+00 -3.984297e+00 -3.996991e+00 -3.999831e+00 -4.012070e+00 -4.015200e+00 -4.026415e+00 -4.029755e+00 -4.039567e+00 -4.042937e+00 -4.051118e+00 -4.054054e+00 -4.060343e+00 -4.062006e+00 -4.066087e+00 -4.065649e+00 -4.067325e+00 -4.064441e+00 -4.063723e+00 -4.058699e+00 -4.055776e+00 -4.049462e+00 -4.044519e+00 -4.037899e+00 -4.030974e+00 -4.024792e+00 -4.015967e+00 -4.010657e+00 -4.000247e+00 -3.995994e+00 -3.984529e+00 -3.981376e+00 -3.969458e+00 -3.967374e+00 -3.955548e+00 -3.954463e+00 -3.943156e+00 -3.942979e+00 -3.932515e+00 -3.933141e+00 -3.923780e+00 -3.925091e+00 -3.917067e+00 -3.918929e+00 -3.912468e+00 -3.914735e+00 -3.910055e+00 
-3.911649e+00 -3.908280e+00 -3.911258e+00 -3.910040e+00 -3.912908e+00 -3.913973e+00 -3.916589e+00 -3.920009e+00 -3.922278e+00 -3.928050e+00 -3.929940e+00 -3.937963e+00 -3.939500e+00 -3.949547e+00 -3.950787e+00 -3.962463e+00 -3.963450e+00 -3.976148e+00 -3.976856e+00 -3.989730e+00 -3.990038e+00 -4.002041e+00 -4.001754e+00 -4.011781e+00 -4.010717e+00 -4.017905e+00 -4.016028e+00 -4.020226e+00 -4.017803e+00 -4.019962e+00 -4.017716e+00 -4.019486e+00 -4.018168e+00 -4.020688e+00 -4.020341e+00 -4.023430e+00 -4.023222e+00 -4.025546e+00 -4.024422e+00 -4.024459e+00 -4.022093e+00 -4.018962e+00 -4.015821e+00 -4.009417e+00 -4.006156e+00 -3.997011e+00 -3.994117e+00 -3.983104e+00 -3.980863e+00 -3.968896e+00 -3.967451e+00 -3.955292e+00 -3.954693e+00 -3.942906e+00 -3.943143e+00 -3.932122e+00 -3.933140e+00 -3.923181e+00 -3.924885e+00 -3.916236e+00 -3.918502e+00 -3.911395e+00 -3.914073e+00 -3.908731e+00 
-3.910509e+00 -3.907646e+00 -3.910391e+00 -3.909727e+00 -3.912382e+00 -3.914055e+00 -3.916502e+00 -3.920577e+00 -3.922765e+00 -3.929217e+00 -3.931176e+00 -3.939869e+00 -3.941710e+00 -3.952365e+00 -3.954253e+00 -3.966432e+00 -3.968533e+00 -3.981632e+00 -3.984058e+00 -3.997346e+00 -4.000135e+00 -4.012864e+00 -4.016019e+00 -4.027604e+00 -4.031172e+00 -4.041331e+00 -4.045341e+00 -4.054009e+00 -4.058036e+00 -4.064891e+00 -4.067584e+00 -4.071999e+00 -4.071945e+00 -4.073542e+00 -4.070189e+00 -4.069060e+00 -4.062940e+00 -4.059589e+00 -4.052086e+00 -4.046950e+00 -4.039487e+00 -4.032436e+00 -4.025830e+00 -4.016732e+00 -4.011306e+00 -4.000441e+00 -3.996222e+00 -3.984209e+00 -3.981123e+00 -3.968669e+00 -3.966638e+00 -3.954348e+00 -3.953304e+00 -3.941618e+00 -3.941492e+00 -3.930718e+00 -3.931422e+00 -3.921798e+00 -3.923221e+00 -3.914960e+00 -3.916965e+00 -3.910285e+00 -3.912713e+00 -3.907834e+00 
-3.908621e+00 -3.904990e+00 -3.908217e+00 -3.906803e+00 -3.909881e+00 -3.910849e+00 -3.913619e+00 -3.917081e+00 -3.919444e+00 -3.925435e+00 -3.927366e+00 -3.935823e+00 -3.937367e+00 -3.948095e+00 -3.949338e+00 -3.961960e+00 -3.962977e+00 -3.976880e+00 -3.977670e+00 -3.991953e+00 -3.992397e+00 -4.005864e+00 -4.005734e+00 -4.016950e+00 -4.015970e+00 -4.023499e+00 -4.021466e+00 -4.024657e+00 -4.021600e+00 -4.021874e+00 -4.018940e+00 -4.019361e+00 -4.018062e+00 -4.020728e+00 -4.021267e+00 -4.025846e+00 -4.026690e+00 -4.030779e+00 -4.029822e+00 -4.030907e+00 -4.027800e+00 -4.024785e+00 -4.020755e+00 -4.013679e+00 -4.009815e+00 -3.999540e+00 -3.996328e+00 -3.984077e+00 -3.981670e+00 -3.968591e+00 -3.967044e+00 -3.953992e+00 -3.953338e+00 -3.940867e+00 -3.941109e+00 -3.929562e+00 -3.930659e+00 -3.920273e+00 -3.922131e+00 -3.913112e+00 -3.915595e+00 -3.908152e+00 -3.911085e+00 -3.905438e+00 
-3.906383e+00 -3.903169e+00 -3.906211e+00 -3.905298e+00 -3.908175e+00 -3.909751e+00 -3.912317e+00 -3.916505e+00 -3.918694e+00 -3.925521e+00 -3.927371e+00 -3.936729e+00 -3.938378e+00 -3.949989e+00 -3.951642e+00 -3.965012e+00 -3.966880e+00 -3.981283e+00 -3.983503e+00 -3.998024e+00 -4.000638e+00 -4.014335e+00 -4.017393e+00 -4.029610e+00 -4.033416e+00 -4.044102e+00 -4.049353e+00 -4.059064e+00 -4.065786e+00 -4.074098e+00 -4.079458e+00 -4.084739e+00 -4.085664e+00 -4.087025e+00 -4.082501e+00 -4.080216e+00 -4.071355e+00 -4.066898e+00 -4.056583e+00 -4.051233e+00 -4.042025e+00 -4.034938e+00 -4.027604e+00 -4.018009e+00 -4.012528e+00 -4.000684e+00 -3.996668e+00 -3.983476e+00 -3.980590e+00 -3.967019e+00 -3.965107e+00 -3.951886e+00 -3.950913e+00 -3.938490e+00 -3.938448e+00 -3.927080e+00 -3.927931e+00 -3.917795e+00 -3.919445e+00 -3.910716e+00 -3.913017e+00 -3.905895e+00 -3.908659e+00 -3.903371e+00 
-3.903564e+00 -3.899468e+00 -3.903138e+00 -3.901364e+00 -3.904813e+00 -3.905583e+00 -3.908622e+00 -3.912113e+00 -3.914630e+00 -3.920946e+00 -3.922924e+00 -3.932066e+00 -3.933584e+00 -3.945412e+00 -3.946610e+00 -3.960789e+00 -3.961804e+00 -3.977737e+00 -3.978619e+00 -3.995376e+00 -3.996037e+00 -4.012272e+00 -4.012466e+00 -4.026259e+00 -4.025577e+00 -4.034188e+00 -4.032120e+00 -4.033116e+00 -4.028545e+00 -4.024177e+00 -4.019330e+00 -4.016514e+00 -4.015106e+00 -4.018169e+00 -4.020906e+00 -4.029080e+00 -4.032775e+00 -4.040889e+00 -4.040260e+00 -4.043365e+00 -4.038231e+00 -4.035282e+00 -4.029322e+00 -4.020783e+00 -4.015941e+00 -4.003426e+00 -3.999861e+00 -3.985317e+00 -3.982759e+00 -3.967750e+00 -3.966077e+00 -3.951562e+00 -3.950813e+00 -3.937269e+00 -3.937506e+00 -3.925147e+00 -3.926372e+00 -3.915320e+00 -3.917446e+00 -3.907832e+00 -3.910697e+00 -3.902694e+00 -3.906079e+00 -3.899908e+00 
-3.900198e+00 -3.896407e+00 -3.899944e+00 -3.898596e+00 -3.901845e+00 -3.903214e+00 -3.905980e+00 -3.910283e+00 -3.912473e+00 -3.919824e+00 -3.921479e+00 -3.931836e+00 -3.933136e+00 -3.946231e+00 -3.947456e+00 -3.962725e+00 -3.964165e+00 -3.980687e+00 -3.982518e+00 -3.999041e+00 -4.001249e+00 -4.016409e+00 -4.018935e+00 -4.031781e+00 -4.035143e+00 -4.045920e+00 -4.052562e+00 -4.063990e+00 -4.076508e+00 -4.088195e+00 -4.099556e+00 -4.106783e+00 -4.109773e+00 -4.110562e+00 -4.103565e+00 -4.098384e+00 -4.083612e+00 -4.076529e+00 -4.060643e+00 -4.055790e+00 -4.043992e+00 -4.037613e+00 -4.029623e+00 -4.019346e+00 -4.014328e+00 -4.000739e+00 -3.997403e+00 -3.982181e+00 -3.979744e+00 -3.964385e+00 -3.962652e+00 -3.948048e+00 -3.947124e+00 -3.933664e+00 -3.933698e+00 -3.921508e+00 -3.922557e+00 -3.911701e+00 -3.913698e+00 -3.904282e+00 -3.907057e+00 -3.899258e+00 -3.902568e+00 -3.896631e+00 
-3.896482e+00 -3.891679e+00 -3.896030e+00 -3.893680e+00 -3.897695e+00 -3.898107e+00 -3.901547e+00 -3.904996e+00 -3.907719e+00 -3.914407e+00 -3.916404e+00 -3.926423e+00 -3.927821e+00 -3.941111e+00 -3.942131e+00 -3.958426e+00 -3.959304e+00 -3.978068e+00 -3.978954e+00 -3.999318e+00 -4.000220e+00 -4.020937e+00 -4.021695e+00 -4.040701e+00 -4.040790e+00 -4.052986e+00 -4.052091e+00 -4.048843e+00 -4.040780e+00 -4.025210e+00 -4.015149e+00 -4.005093e+00 -4.003028e+00 -4.007153e+00 -4.014953e+00 -4.031494e+00 -4.042938e+00 -4.059813e+00 -4.059567e+00 -4.065688e+00 -4.054854e+00 -4.051509e+00 -4.041764e+00 -4.030243e+00 -4.024429e+00 -4.007888e+00 -4.004413e+00 -3.986162e+00 -3.983687e+00 -3.965868e+00 -3.964070e+00 -3.947620e+00 -3.946691e+00 -3.931826e+00 -3.932009e+00 -3.918670e+00 -3.920064e+00 -3.908178e+00 -3.910705e+00 -3.900299e+00 -3.903749e+00 -3.894960e+00 -3.899041e+00 -3.892100e+00 
-3.891990e+00 -3.887331e+00 -3.891624e+00 -3.889576e+00 -3.893402e+00 -3.894366e+00 -3.897450e+00 -3.901785e+00 -3.903978e+00 -3.911944e+00 -3.913278e+00 -3.924950e+00 -3.925661e+00 -3.940824e+00 -3.941319e+00 -3.959345e+00 -3.960070e+00 -3.979786e+00 -3.981005e+00 -4.000617e+00 -4.002176e+00 -4.019461e+00 -4.020702e+00 -4.033783e+00 -4.034215e+00 -4.042510e+00 -4.048145e+00 -4.061996e+00 -4.087624e+00 -4.107714e+00 -4.132618e+00 -4.144023e+00 -4.150831e+00 -4.150523e+00 -4.138613e+00 -4.126160e+00 -4.098479e+00 -4.084438e+00 -4.057560e+00 -4.056844e+00 -4.042695e+00 -4.039371e+00 -4.031680e+00 -4.020249e+00 -4.017199e+00 -4.000399e+00 -3.998750e+00 -3.980201e+00 -3.978558e+00 -3.960629e+00 -3.959022e+00 -3.942672e+00 -3.941635e+00 -3.926982e+00 -3.926989e+00 -3.913869e+00 -3.915134e+00 -3.903414e+00 -3.905896e+00 -3.895589e+00 -3.899061e+00 -3.890331e+00 -3.894459e+00 -3.887586e+00 
-3.887427e+00 -3.881605e+00 -3.886943e+00 -3.883718e+00 -3.888553e+00 -3.888357e+00 -3.892364e+00 -3.895606e+00 -3.898591e+00 -3.905609e+00 -3.907556e+00 -3.918559e+00 -3.919652e+00 -3.934677e+00 -3.935257e+00 -3.954118e+00 -3.954563e+00 -3.976799e+00 -3.977387e+00 -4.002257e+00 -4.003197e+00 -4.030114e+00 -4.031685e+00 -4.060784e+00 -4.061875e+00 -4.086374e+00 -4.092820e+00 -4.082335e+00 -4.065676e+00 -4.021460e+00 -3.996970e+00 -3.971617e+00 -3.967366e+00 -3.974097e+00 -3.992515e+00 -4.028773e+00 -4.062819e+00 -4.099654e+00 -4.098815e+00 -4.106757e+00 -4.078638e+00 -4.073534e+00 -4.057324e+00 -4.039781e+00 -4.034842e+00 -4.011231e+00 -4.009452e+00 -3.985600e+00 -3.983709e+00 -3.962283e+00 -3.960239e+00 -3.941675e+00 -3.940316e+00 -3.924163e+00 -3.924154e+00 -3.909858e+00 -3.911452e+00 -3.898667e+00 -3.901770e+00 -3.890407e+00 -3.894712e+00 -3.884894e+00 -3.889990e+00 -3.881988e+00 
-3.881855e+00 -3.875935e+00 -3.881341e+00 -3.878205e+00 -3.882901e+00 -3.883125e+00 -3.886704e+00 -3.890854e+00 -3.893066e+00 -3.901625e+00 -3.902457e+00 -3.915705e+00 -3.915458e+00 -3.933317e+00 -3.932597e+00 -3.954439e+00 -3.953996e+00 -3.978402e+00 -3.978777e+00 -4.003217e+00 -4.004259e+00 -4.025013e+00 -4.024993e+00 -4.038413e+00 -4.029722e+00 -4.025460e+00 -4.015739e+00 -4.032075e+00 -4.091884e+00 -4.135472e+00 -4.191813e+00 -4.210776e+00 -4.222247e+00 -4.221146e+00 -4.200971e+00 -4.170235e+00 -4.112779e+00 -4.076975e+00 -4.026779e+00 -4.045912e+00 -4.035700e+00 -4.040775e+00 -4.035482e+00 -4.020332e+00 -4.022852e+00 -3.999633e+00 -4.001432e+00 -3.977530e+00 -3.976883e+00 -3.955609e+00 -3.953690e+00 -3.935525e+00 -3.933905e+00 -3.918200e+00 -3.917925e+00 -3.903959e+00 -3.905435e+00 -3.892795e+00 -3.895948e+00 -3.884560e+00 -3.889037e+00 -3.879082e+00 -3.884398e+00 -3.876229e+00 
-3.876513e+00 -3.869261e+00 -3.875995e+00 -3.871477e+00 -3.877470e+00 -3.876285e+00 -3.881086e+00 -3.883828e+00 -3.887140e+00 -3.894331e+00 -3.896102e+00 -3.908103e+00 -3.908584e+00 -3.925523e+00 -3.925233e+00 -3.946976e+00 -3.946473e+00 -3.972542e+00 -3.972125e+00 -4.001474e+00 -4.001544e+00 -4.033950e+00 -4.037010e+00 -4.082440e+00 -4.078889e+00 -4.146777e+00 -4.189296e+00 -4.170530e+00 -4.128945e+00 -4.003594e+00 -3.938915e+00 -3.886495e+00 -3.878286e+00 -3.889479e+00 -3.923449e+00 -4.005942e+00 -4.112652e+00 -4.201183e+00 -4.193373e+00 -4.187053e+00 -4.102294e+00 -4.093994e+00 -4.072097e+00 -4.042220e+00 -4.046599e+00 -4.010624e+00 -4.014254e+00 -3.982582e+00 -3.981595e+00 -3.956351e+00 -3.953336e+00 -3.933176e+00 -3.930729e+00 -3.913820e+00 -3.913328e+00 -3.898375e+00 -3.900212e+00 -3.886573e+00 -3.890517e+00 -3.878047e+00 -3.883593e+00 -3.872462e+00 -3.879009e+00 -3.869578e+00 
-3.869961e+00 -3.862249e+00 -3.869264e+00 -3.864482e+00 -3.870466e+00 -3.869413e+00 -3.873769e+00 -3.877296e+00 -3.879587e+00 -3.888514e+00 -3.888605e+00 -3.903554e+00 -3.901781e+00 -3.922951e+00 -3.920208e+00 -3.947115e+00 -3.944682e+00 -3.975829e+00 -3.974867e+00 -4.007022e+00 -4.008425e+00 -4.035627e+00 -4.041184e+00 -4.063653e+00 -4.037884e+00 -3.983313e+00 -3.890153e+00 -3.905962e+00 -4.073319e+00 -4.190979e+00 -4.321638e+00 -4.344754e+00 -4.348217e+00 -4.355014e+00 -4.330392e+00 -4.255146e+00 -4.123909e+00 -4.008661e+00 -3.900632e+00 -4.006794e+00 -4.035972e+00 -4.054534e+00 -4.048988e+00 -4.018006e+00 -4.034887e+00 -3.998739e+00 -4.006325e+00 -3.974410e+00 -3.973947e+00 -3.949133e+00 -3.945469e+00 -3.926210e+00 -3.922969e+00 -3.906910e+00 -3.905910e+00 -3.891459e+00 -3.893171e+00 -3.879641e+00 -3.883778e+00 -3.871099e+00 -3.877041e+00 -3.865496e+00 -3.872519e+00 -3.862588e+00 
-3.863937e+00 -3.854706e+00 -3.863378e+00 -3.856984e+00 -3.864600e+00 -3.861857e+00 -3.867774e+00 -3.869538e+00 -3.873278e+00 -3.880339e+00 -3.881738e+00 -3.894658e+00 -3.894050e+00 -3.913026e+00 -3.911251e+00 -3.936154e+00 -3.934064e+00 -3.964401e+00 -3.961759e+00 -3.994768e+00 -3.990580e+00 -4.018343e+00 -4.031983e+00 -4.082718e+00 -4.023824e+00 -4.248397e+00 -4.463054e+00 -4.458308e+00 -4.288161e+00 -3.647787e+00 -2.926782e+00 -2.333023e+00 -2.085032e+00 -2.245576e+00 -2.748637e+00 -3.502692e+00 -4.207187e+00 -4.517643e+00 -4.471406e+00 -4.350208e+00 -4.066553e+00 -4.071247e+00 -4.079858e+00 -4.021686e+00 -4.062074e+00 -4.004475e+00 -4.018099e+00 -3.977350e+00 -3.975128e+00 -3.947752e+00 -3.941329e+00 -3.921471e+00 -3.916567e+00 -3.900170e+00 -3.898780e+00 -3.883762e+00 -3.886018e+00 -3.871630e+00 -3.876882e+00 -3.863109e+00 -3.870476e+00 -3.857660e+00 -3.866260e+00 -3.854921e+00 
-3.856558e+00 -3.846352e+00 -3.855649e+00 -3.848433e+00 -3.856312e+00 -3.853150e+00 -3.858741e+00 -3.860865e+00 -3.863409e+00 -3.872133e+00 -3.871199e+00 -3.887698e+00 -3.883548e+00 -3.908508e+00 -3.902415e+00 -3.935683e+00 -3.929748e+00 -3.970174e+00 -3.966056e+00 -4.010761e+00 -4.010179e+00 -4.045172e+00 -4.091496e+00 -4.191274e+00 -4.180695e+00 -3.789234e+00 -1.984365e+00 8.196641e-01 3.452263e+00 5.877806e+00 7.750705e+00 8.850804e+00 9.256698e+00 9.018723e+00 8.067575e+00 6.399928e+00 4.070542e+00 1.403830e+00 -1.503955e+00 -3.642389e+00 -4.121985e+00 -4.153223e+00 -4.088328e+00 -3.995930e+00 -4.056895e+00 -4.000178e+00 -4.013260e+00 -3.971666e+00 -3.967114e+00 -3.940699e+00 -3.931845e+00 -3.913900e+00 -3.907232e+00 -3.892372e+00 -3.890134e+00 -3.875841e+00 -3.878030e+00 -3.863646e+00 -3.869354e+00 -3.855084e+00 -3.863195e+00 -3.849577e+00 -3.859028e+00 -3.846731e+00 
-3.849972e+00 -3.838038e+00 -3.849360e+00 -3.840282e+00 -3.850160e+00 -3.845019e+00 -3.852544e+00 -3.852568e+00 -3.856920e+00 -3.863333e+00 -3.864068e+00 -3.877759e+00 -3.875267e+00 -3.896423e+00 -3.892291e+00 -3.920668e+00 -3.916880e+00 -3.953437e+00 -3.948455e+00 -3.991722e+00 -3.964149e+00 -3.963508e+00 -4.075093e+00 -3.784688e+00 -1.476005e+00 3.003087e+00 7.350033e+00 1.059632e+01 1.266625e+01 1.353106e+01 1.394446e+01 1.402462e+01 1.405027e+01 1.405950e+01 1.395370e+01 1.373997e+01 1.298796e+01 1.126963e+01 8.055013e+00 4.087068e+00 -1.212826e-01 -3.452222e+00 -4.085082e+00 -3.967476e+00 -4.097564e+00 -4.004821e+00 -4.018699e+00 -3.973882e+00 -3.959489e+00 -3.936228e+00 -3.920862e+00 -3.905383e+00 -3.896025e+00 -3.882176e+00 -3.879714e+00 -3.865340e+00 -3.868628e+00 -3.853487e+00 -3.860905e+00 -3.845481e+00 -3.855539e+00 -3.840521e+00 -3.851990e+00 -3.838115e+00 
-3.841970e+00 -3.828374e+00 -3.840837e+00 -3.830122e+00 -3.840757e+00 -3.834257e+00 -3.841837e+00 -3.841255e+00 -3.844481e+00 -3.851848e+00 -3.849649e+00 -3.867047e+00 -3.859289e+00 -3.888230e+00 -3.876731e+00 -3.917428e+00 -3.906116e+00 -3.958029e+00 -3.948213e+00 -4.019367e+00 -3.976518e+00 -3.904958e+00 -2.246195e+00 2.114651e+00 7.180311e+00 1.143032e+01 1.336897e+01 1.364814e+01 1.373771e+01 1.350252e+01 1.339811e+01 1.331147e+01 1.329665e+01 1.331969e+01 1.336348e+01 1.351884e+01 1.368137e+01 1.376300e+01 1.346086e+01 1.223440e+01 8.443696e+00 3.052720e+00 -1.485736e+00 -3.815064e+00 -4.083434e+00 -4.030325e+00 -4.020243e+00 -3.970676e+00 -3.949531e+00 -3.928506e+00 -3.908126e+00 -3.896835e+00 -3.884459e+00 -3.873264e+00 -3.869745e+00 -3.856250e+00 -3.859799e+00 -3.844357e+00 -3.852747e+00 -3.836359e+00 -3.847706e+00 -3.831355e+00 -3.844206e+00 -3.828782e+00 
-3.834957e+00 -3.819403e+00 -3.834275e+00 -3.821420e+00 -3.834453e+00 -3.825668e+00 -3.835586e+00 -3.832631e+00 -3.838007e+00 -3.842877e+00 -3.842531e+00 -3.856826e+00 -3.850897e+00 -3.874555e+00 -3.866208e+00 -3.897184e+00 -3.893281e+00 -3.937139e+00 -3.950432e+00 -4.053113e+00 -3.760956e+00 -1.289171e+00 4.497556e+00 1.030768e+01 1.288847e+01 1.338779e+01 1.329876e+01 1.315663e+01 1.330361e+01 1.343517e+01 1.359563e+01 1.366204e+01 1.369704e+01 1.368583e+01 1.361549e+01 1.350729e+01 1.335438e+01 1.320556e+01 1.329951e+01 1.344178e+01 1.309987e+01 1.125090e+01 6.300844e+00 2.443304e-02 -3.553089e+00 -4.069642e+00 -3.998167e+00 -3.976834e+00 -3.923689e+00 -3.918372e+00 -3.887113e+00 -3.882024e+00 -3.867230e+00 -3.858032e+00 -3.855600e+00 -3.842129e+00 -3.848066e+00 -3.831720e+00 -3.842812e+00 -3.825083e+00 -3.839081e+00 -3.821148e+00 -3.836525e+00 -3.819330e+00 
-3.826588e+00 -3.808543e+00 -3.825267e+00 -3.809691e+00 -3.824277e+00 -3.812696e+00 -3.823508e+00 -3.818138e+00 -3.823036e+00 -3.826916e+00 -3.823504e+00 -3.840279e+00 -3.827097e+00 -3.859927e+00 -3.839331e+00 -3.888394e+00 -3.871004e+00 -3.926707e+00 -3.946033e+00 -3.759375e+00 -5.854528e-01 6.253534e+00 1.164637e+01 1.324561e+01 1.320577e+01 1.321748e+01 1.335617e+01 1.338739e+01 1.344940e+01 1.339107e+01 1.338291e+01 1.334894e+01 1.334756e+01 1.335458e+01 1.337189e+01 1.340796e+01 1.344141e+01 1.342533e+01 1.339196e+01 1.323005e+01 1.327646e+01 1.337114e+01 1.238930e+01 7.618436e+00 4.939851e-01 -3.341749e+00 -4.039536e+00 -3.952865e+00 -3.903432e+00 -3.906416e+00 -3.867017e+00 -3.871802e+00 -3.852673e+00 -3.847512e+00 -3.844459e+00 -3.831471e+00 -3.838643e+00 -3.821220e+00 -3.834231e+00 -3.814802e+00 -3.830887e+00 -3.810953e+00 -3.828401e+00 -3.808966e+00 
-3.819300e+00 -3.799057e+00 -3.818547e+00 -3.800502e+00 -3.817917e+00 -3.803659e+00 -3.817306e+00 -3.809277e+00 -3.816715e+00 -3.818339e+00 -3.816607e+00 -3.831534e+00 -3.818930e+00 -3.847306e+00 -3.828198e+00 -3.857022e+00 -3.841937e+00 -3.848818e+00 -3.684017e+00 -1.022242e+00 6.139919e+00 1.197883e+01 1.328333e+01 1.325543e+01 1.327876e+01 1.329934e+01 1.330071e+01 1.328453e+01 1.334321e+01 1.338963e+01 1.345663e+01 1.349138e+01 1.350881e+01 1.350261e+01 1.346630e+01 1.341781e+01 1.335742e+01 1.330614e+01 1.329739e+01 1.330954e+01 1.325995e+01 1.322855e+01 1.317511e+01 1.240652e+01 7.977860e+00 6.576656e-01 -3.553357e+00 -3.938461e+00 -3.850363e+00 -3.879065e+00 -3.836710e+00 -3.846111e+00 -3.829681e+00 -3.825315e+00 -3.826885e+00 -3.813041e+00 -3.824929e+00 -3.806009e+00 -3.823127e+00 -3.802005e+00 -3.821549e+00 -3.799814e+00 -3.820277e+00 -3.798880e+00 
-3.810881e+00 -3.787290e+00 -3.809500e+00 -3.787474e+00 -3.807585e+00 -3.788602e+00 -3.804666e+00 -3.791317e+00 -3.800088e+00 -3.796675e+00 -3.793262e+00 -3.806190e+00 -3.785043e+00 -3.821779e+00 -3.781515e+00 -3.849560e+00 -3.794590e+00 -3.908379e+00 -1.601889e+00 5.413345e+00 1.169627e+01 1.314330e+01 1.317542e+01 1.324854e+01 1.322343e+01 1.325828e+01 1.329405e+01 1.331795e+01 1.334486e+01 1.334108e+01 1.334512e+01 1.334094e+01 1.333939e+01 1.334484e+01 1.334461e+01 1.335269e+01 1.335061e+01 1.333677e+01 1.331642e+01 1.327336e+01 1.325457e+01 1.326340e+01 1.318430e+01 1.316586e+01 1.259822e+01 7.238222e+00 -8.372846e-01 -3.813291e+00 -3.750037e+00 -3.873203e+00 -3.803206e+00 -3.835809e+00 -3.813690e+00 -3.812541e+00 -3.815821e+00 -3.800132e+00 -3.815476e+00 -3.793817e+00 -3.814379e+00 -3.790534e+00 -3.813182e+00 -3.788734e+00 -3.812042e+00 -3.787730e+00 
-3.803513e+00 -3.777510e+00 -3.802749e+00 -3.777840e+00 -3.801254e+00 -3.778934e+00 -3.798601e+00 -3.781857e+00 -3.794057e+00 -3.788549e+00 -3.786783e+00 -3.802133e+00 -3.778133e+00 -3.824493e+00 -3.784185e+00 -3.834848e+00 -3.896726e+00 -3.365699e+00 2.766846e+00 1.069343e+01 1.319968e+01 1.315455e+01 1.324931e+01 1.323396e+01 1.326470e+01 1.327938e+01 1.329229e+01 1.330840e+01 1.333245e+01 1.336315e+01 1.338662e+01 1.341088e+01 1.341247e+01 1.341565e+01 1.339169e+01 1.337412e+01 1.333890e+01 1.331604e+01 1.329251e+01 1.327659e+01 1.325584e+01 1.321084e+01 1.322607e+01 1.310897e+01 1.324679e+01 1.175477e+01 5.093912e+00 -1.801906e+00 -3.861987e+00 -3.813246e+00 -3.778267e+00 -3.796823e+00 -3.786292e+00 -3.782654e+00 -3.795977e+00 -3.777578e+00 -3.800746e+00 -3.776592e+00 -3.802763e+00 -3.776810e+00 -3.803565e+00 -3.777165e+00 -3.803764e+00 -3.777378e+00 
-3.795432e+00 -3.765417e+00 -3.794254e+00 -3.764196e+00 -3.791700e+00 -3.762538e+00 -3.786928e+00 -3.761019e+00 -3.778266e+00 -3.760873e+00 -3.762625e+00 -3.764209e+00 -3.736019e+00 -3.769486e+00 -3.704512e+00 -3.728710e+00 -3.676745e+00 2.399062e-01 8.593008e+00 1.279852e+01 1.311409e+01 1.315069e+01 1.316779e+01 1.321593e+01 1.321316e+01 1.325426e+01 1.326035e+01 1.329262e+01 1.329673e+01 1.331607e+01 1.331215e+01 1.332561e+01 1.331669e+01 1.332858e+01 1.331665e+01 1.332493e+01 1.330848e+01 1.330715e+01 1.328217e+01 1.327385e+01 1.324253e+01 1.324939e+01 1.320167e+01 1.323006e+01 1.317331e+01 1.326073e+01 1.046170e+01 1.753528e+00 -3.832989e+00 -3.827871e+00 -3.780993e+00 -3.784233e+00 -3.781024e+00 -3.764859e+00 -3.787943e+00 -3.761205e+00 -3.791900e+00 -3.762464e+00 -3.794006e+00 -3.764338e+00 -3.795174e+00 -3.765575e+00 -3.795666e+00 -3.765924e+00 
-3.788256e+00 -3.755743e+00 -3.787645e+00 -3.754254e+00 -3.785505e+00 -3.751904e+00 -3.781128e+00 -3.749651e+00 -3.772801e+00 -3.750151e+00 -3.756171e+00 -3.761697e+00 -3.719333e+00 -3.811058e+00 -3.626831e+00 -3.988020e+00 -2.833991e+00 4.450335e+00 1.219986e+01 1.325808e+01 1.307141e+01 1.320963e+01 1.318621e+01 1.324096e+01 1.323687e+01 1.327748e+01 1.327431e+01 1.330954e+01 1.330978e+01 1.334341e+01 1.334207e+01 1.336812e+01 1.335688e+01 1.337004e+01 1.334664e+01 1.334755e+01 1.331734e+01 1.331178e+01 1.328256e+01 1.327381e+01 1.324637e+01 1.322753e+01 1.320632e+01 1.318346e+01 1.314844e+01 1.319318e+01 1.258189e+01 6.491123e+00 -1.501354e+00 -3.877863e+00 -3.625197e+00 -3.743360e+00 -3.739021e+00 -3.728856e+00 -3.768128e+00 -3.736315e+00 -3.777999e+00 -3.744888e+00 -3.782886e+00 -3.750944e+00 -3.785878e+00 -3.754464e+00 -3.787635e+00 -3.755927e+00 
-3.780975e+00 -3.744261e+00 -3.780373e+00 -3.741207e+00 -3.777798e+00 -3.735829e+00 -3.772393e+00 -3.728241e+00 -3.762030e+00 -3.719757e+00 -3.740748e+00 -3.718147e+00 -3.688572e+00 -3.761563e+00 -3.525719e+00 -4.023689e+00 -1.156730e-01 8.482916e+00 1.310459e+01 1.301539e+01 1.314271e+01 1.313925e+01 1.316386e+01 1.320822e+01 1.320058e+01 1.325074e+01 1.323797e+01 1.328155e+01 1.326758e+01 1.330125e+01 1.328505e+01 1.331103e+01 1.329248e+01 1.331318e+01 1.329194e+01 1.330769e+01 1.328241e+01 1.329227e+01 1.326149e+01 1.326600e+01 1.323193e+01 1.322998e+01 1.320380e+01 1.316582e+01 1.320396e+01 1.299716e+01 1.332185e+01 1.080257e+01 1.974157e+00 -3.775437e+00 -3.626829e+00 -3.704829e+00 -3.738557e+00 -3.698910e+00 -3.761013e+00 -3.715436e+00 -3.768772e+00 -3.729320e+00 -3.773802e+00 -3.738219e+00 -3.777539e+00 -3.743124e+00 -3.779972e+00 -3.744967e+00 
-3.774368e+00 -3.735375e+00 -3.774150e+00 -3.731459e+00 -3.771842e+00 -3.724326e+00 -3.766983e+00 -3.713572e+00 -3.758514e+00 -3.698808e+00 -3.743764e+00 -3.681301e+00 -3.713484e+00 -3.670971e+00 -3.623519e+00 -3.589291e+00 3.709541e+00 1.182513e+01 1.338344e+01 1.303818e+01 1.318405e+01 1.318275e+01 1.318745e+01 1.324232e+01 1.322189e+01 1.327913e+01 1.325681e+01 1.330661e+01 1.328719e+01 1.332895e+01 1.331030e+01 1.334291e+01 1.332082e+01 1.334356e+01 1.331591e+01 1.333023e+01 1.329792e+01 1.330702e+01 1.327183e+01 1.327791e+01 1.324018e+01 1.324225e+01 1.320546e+01 1.319943e+01 1.318206e+01 1.313183e+01 1.324666e+01 1.262581e+01 5.587100e+00 -2.724906e+00 -3.849536e+00 -3.570673e+00 -3.774301e+00 -3.650740e+00 -3.757640e+00 -3.691981e+00 -3.758869e+00 -3.714532e+00 -3.764174e+00 -3.727108e+00 -3.769187e+00 -3.733717e+00 -3.772681e+00 -3.736206e+00 
-3.768416e+00 -3.725704e+00 -3.768701e+00 -3.720622e+00 -3.766719e+00 -3.711000e+00 -3.762320e+00 -3.695302e+00 -3.755507e+00 -3.669828e+00 -3.748041e+00 -3.624561e+00 -3.750316e+00 -3.525075e+00 -3.808050e+00 -2.348522e+00 7.141360e+00 1.294458e+01 1.308712e+01 1.313202e+01 1.311005e+01 1.318682e+01 1.314758e+01 1.322778e+01 1.318657e+01 1.325718e+01 1.322074e+01 1.327845e+01 1.324692e+01 1.329249e+01 1.326379e+01 1.329987e+01 1.327191e+01 1.330115e+01 1.327195e+01 1.329623e+01 1.326361e+01 1.328439e+01 1.324596e+01 1.326528e+01 1.321867e+01 1.323992e+01 1.318138e+01 1.321284e+01 1.312804e+01 1.321705e+01 1.301487e+01 1.343806e+01 9.041572e+00 -8.681740e-01 -3.973686e+00 -3.449920e+00 -3.784279e+00 -3.608092e+00 -3.747311e+00 -3.670485e+00 -3.747161e+00 -3.700126e+00 -3.754290e+00 -3.715731e+00 -3.761108e+00 -3.723787e+00 -3.765896e+00 -3.726799e+00 
-3.762893e+00 -3.718565e+00 -3.763199e+00 -3.712185e+00 -3.760938e+00 -3.700252e+00 -3.756153e+00 -3.680636e+00 -3.749525e+00 -3.648427e+00 -3.745549e+00 -3.591036e+00 -3.766065e+00 -3.469668e+00 -3.906830e+00 -1.068181e+00 9.612413e+00 1.353957e+01 1.302167e+01 1.327807e+01 1.310971e+01 1.325263e+01 1.316188e+01 1.326801e+01 1.320525e+01 1.328797e+01 1.324084e+01 1.330575e+01 1.326865e+01 1.331984e+01 1.328801e+01 1.332806e+01 1.329715e+01 1.332807e+01 1.329512e+01 1.331957e+01 1.328306e+01 1.330453e+01 1.326296e+01 1.328553e+01 1.323531e+01 1.326569e+01 1.319836e+01 1.325598e+01 1.314475e+01 1.329676e+01 1.303100e+01 1.353785e+01 1.117782e+01 1.215008e+00 -3.898716e+00 -3.481259e+00 -3.750898e+00 -3.608778e+00 -3.728015e+00 -3.664685e+00 -3.734574e+00 -3.693308e+00 -3.745313e+00 -3.709082e+00 -3.754111e+00 -3.717353e+00 -3.759934e+00 -3.720263e+00 
-3.758860e+00 -3.711875e+00 -3.760011e+00 -3.705154e+00 -3.758522e+00 -3.692395e+00 -3.754589e+00 -3.671511e+00 -3.748816e+00 -3.638206e+00 -3.744516e+00 -3.583588e+00 -3.756965e+00 -3.488299e+00 -3.848254e+00 1.499069e-01 1.097298e+01 1.355149e+01 1.300187e+01 1.332051e+01 1.308114e+01 1.326469e+01 1.313400e+01 1.326063e+01 1.317573e+01 1.326947e+01 1.320855e+01 1.327987e+01 1.323296e+01 1.328819e+01 1.324917e+01 1.329295e+01 1.325749e+01 1.329342e+01 1.325816e+01 1.328930e+01 1.325126e+01 1.328055e+01 1.323652e+01 1.326764e+01 1.321325e+01 1.325275e+01 1.318001e+01 1.324472e+01 1.313281e+01 1.327438e+01 1.305494e+01 1.341671e+01 1.255638e+01 3.073654e+00 -3.724472e+00 -3.536111e+00 -3.681708e+00 -3.612009e+00 -3.695765e+00 -3.657122e+00 -3.717349e+00 -3.684433e+00 -3.734873e+00 -3.700908e+00 -3.747055e+00 -3.710023e+00 -3.754745e+00 -3.713462e+00 
-3.755121e+00 -3.707472e+00 -3.755821e+00 -3.699350e+00 -3.753317e+00 -3.684340e+00 -3.747377e+00 -3.660023e+00 -3.737265e+00 -3.622236e+00 -3.721804e+00 -3.564768e+00 -3.699862e+00 -3.481523e+00 -3.669503e+00 1.562587e+00 1.211677e+01 1.345298e+01 1.301810e+01 1.334033e+01 1.309109e+01 1.329675e+01 1.314846e+01 1.329023e+01 1.319436e+01 1.329676e+01 1.323003e+01 1.330647e+01 1.325669e+01 1.331525e+01 1.327472e+01 1.332041e+01 1.328360e+01 1.332006e+01 1.328311e+01 1.331395e+01 1.327425e+01 1.330351e+01 1.325853e+01 1.329089e+01 1.323713e+01 1.327896e+01 1.321179e+01 1.327428e+01 1.318896e+01 1.329133e+01 1.318789e+01 1.334127e+01 1.318441e+01 4.446523e+00 -3.474998e+00 -3.620912e+00 -3.605004e+00 -3.638470e+00 -3.667637e+00 -3.663928e+00 -3.705318e+00 -3.684713e+00 -3.728433e+00 -3.698968e+00 -3.742632e+00 -3.707169e+00 -3.750986e+00 -3.709939e+00 
-3.753592e+00 -3.704501e+00 -3.755246e+00 -3.696913e+00 -3.753820e+00 -3.682725e+00 -3.749198e+00 -3.660224e+00 -3.740247e+00 -3.627219e+00 -3.723051e+00 -3.583301e+00 -3.684068e+00 -3.539133e+00 -3.572829e+00 2.336900e+00 1.268934e+01 1.343616e+01 1.306537e+01 1.335291e+01 1.309231e+01 1.329926e+01 1.313307e+01 1.328020e+01 1.317141e+01 1.327795e+01 1.320254e+01 1.328182e+01 1.322594e+01 1.328667e+01 1.324181e+01 1.328982e+01 1.325022e+01 1.328980e+01 1.325128e+01 1.328609e+01 1.324536e+01 1.327894e+01 1.323293e+01 1.326895e+01 1.321483e+01 1.325721e+01 1.319453e+01 1.324597e+01 1.318604e+01 1.323526e+01 1.323343e+01 1.318635e+01 1.344413e+01 5.493428e+00 -3.153322e+00 -3.666766e+00 -3.517955e+00 -3.646609e+00 -3.635063e+00 -3.661094e+00 -3.691075e+00 -3.679675e+00 -3.721144e+00 -3.694152e+00 -3.738408e+00 -3.703036e+00 -3.748380e+00 -3.706440e+00 
-3.752339e+00 -3.703599e+00 -3.753172e+00 -3.694864e+00 -3.750455e+00 -3.678864e+00 -3.743591e+00 -3.653354e+00 -3.730318e+00 -3.615406e+00 -3.703616e+00 -3.563992e+00 -3.640408e+00 -3.511102e+00 -3.459934e+00 2.656667e+00 1.278531e+01 1.334780e+01 1.305390e+01 1.333536e+01 1.309566e+01 1.330697e+01 1.314642e+01 1.329767e+01 1.319110e+01 1.330013e+01 1.322634e+01 1.330696e+01 1.325261e+01 1.331391e+01 1.327032e+01 1.331809e+01 1.327919e+01 1.331761e+01 1.327922e+01 1.331222e+01 1.327142e+01 1.330322e+01 1.325749e+01 1.329252e+01 1.323946e+01 1.328203e+01 1.322213e+01 1.327334e+01 1.322196e+01 1.326101e+01 1.328731e+01 1.318657e+01 1.352857e+01 5.839907e+00 -3.031420e+00 -3.695788e+00 -3.497872e+00 -3.660002e+00 -3.630842e+00 -3.667656e+00 -3.690515e+00 -3.683052e+00 -3.721130e+00 -3.695877e+00 -3.738169e+00 -3.703756e+00 -3.747705e+00 -3.706374e+00 