# vtk DataFile Version 2.0
Comment goes here
ASCII

DATASET STRUCTURED_POINTS
FIELD FieldData 1
TIME 1 1 double
1.66000000
DIMENSIONS    64   64   1

ORIGIN    0.000   0.000   0.000
SPACING   0.015625 0.015625   1.000

POINT_DATA   4096
SCALARS P double
LOOKUP_TABLE default

-3.937779e+00 -3.938183e+00 -3.937666e+00 -3.939659e+00 -3.938606e+00 -3.942248e+00 -3.940620e+00 -3.945900e+00 -3.943733e+00 -3.950557e+00 -3.947973e+00 -3.956142e+00 -3.953338e+00 -3.962523e+00 -3.959743e+00 -3.969444e+00 -3.966915e+00 -3.976439e+00 -3.974306e+00 -3.982781e+00 -3.981059e+00 -3.987531e+00 -3.986137e+00 -3.989764e+00 -3.988626e+00 -3.988969e+00 -3.988188e+00 -3.985520e+00 -3.985518e+00 -3.980973e+00 -3.982489e+00 -3.977707e+00 -3.981334e+00 -3.977601e+00 -3.983109e+00 -3.980690e+00 -3.986876e+00 -3.985087e+00 -3.990431e+00 -3.988306e+00 -3.991863e+00 -3.988732e+00 -3.990399e+00 -3.986047e+00 -3.986252e+00 -3.980846e+00 -3.980199e+00 -3.974121e+00 -3.973185e+00 -3.966859e+00 -3.966035e+00 -3.959821e+00 -3.959324e+00 -3.953492e+00 -3.953371e+00 -3.948127e+00 -3.948318e+00 -3.943844e+00 -3.944213e+00 -3.940690e+00 -3.941076e+00 -3.938689e+00 -3.938923e+00 -3.937853e+00 
-3.937502e+00 -3.938457e+00 -3.937807e+00 -3.940361e+00 -3.939194e+00 -3.943395e+00 -3.941698e+00 -3.947515e+00 -3.945363e+00 -3.952671e+00 -3.950238e+00 -3.958803e+00 -3.956352e+00 -3.965807e+00 -3.963658e+00 -3.973488e+00 -3.971957e+00 -3.981498e+00 -3.980832e+00 -3.989328e+00 -3.989669e+00 -3.996404e+00 -3.997815e+00 -4.002316e+00 -4.004839e+00 -4.007023e+00 -4.010660e+00 -4.010769e+00 -4.015314e+00 -4.013625e+00 -4.018480e+00 -4.015182e+00 -4.019585e+00 -4.014943e+00 -4.018301e+00 -4.012739e+00 -4.014792e+00 -4.008816e+00 -4.009630e+00 -4.003589e+00 -4.003351e+00 -3.997273e+00 -3.996172e+00 -3.989951e+00 -3.988264e+00 -3.981875e+00 -3.979965e+00 -3.973518e+00 -3.971744e+00 -3.965432e+00 -3.964056e+00 -3.958076e+00 -3.957216e+00 -3.951739e+00 -3.951376e+00 -3.946556e+00 -3.946573e+00 -3.942563e+00 -3.942792e+00 -3.939762e+00 -3.940017e+00 -3.938145e+00 -3.938248e+00 -3.937712e+00 
-3.937269e+00 -3.937615e+00 -3.937148e+00 -3.939117e+00 -3.938090e+00 -3.941750e+00 -3.940121e+00 -3.945472e+00 -3.943274e+00 -3.950233e+00 -3.947589e+00 -3.955967e+00 -3.953080e+00 -3.962548e+00 -3.959674e+00 -3.969726e+00 -3.967109e+00 -3.977033e+00 -3.974835e+00 -3.983723e+00 -3.981975e+00 -3.988815e+00 -3.987432e+00 -3.991297e+00 -3.990174e+00 -3.990506e+00 -3.989684e+00 -3.986661e+00 -3.986517e+00 -3.981378e+00 -3.982786e+00 -3.977488e+00 -3.981272e+00 -3.977360e+00 -3.983335e+00 -3.981067e+00 -3.987789e+00 -3.986258e+00 -3.991869e+00 -3.989912e+00 -3.993403e+00 -3.990311e+00 -3.991739e+00 -3.987319e+00 -3.987260e+00 -3.981720e+00 -3.980852e+00 -3.974614e+00 -3.973515e+00 -3.967030e+00 -3.966101e+00 -3.959739e+00 -3.959190e+00 -3.953221e+00 -3.953096e+00 -3.947724e+00 -3.947948e+00 -3.943354e+00 -3.943782e+00 -3.940148e+00 -3.940606e+00 -3.938121e+00 -3.938429e+00 -3.937278e+00 
-3.936462e+00 -3.937308e+00 -3.936742e+00 -3.939259e+00 -3.938118e+00 -3.942376e+00 -3.940638e+00 -3.946627e+00 -3.944363e+00 -3.951978e+00 -3.949361e+00 -3.958376e+00 -3.955683e+00 -3.965720e+00 -3.963294e+00 -3.973796e+00 -3.971983e+00 -3.982207e+00 -3.981285e+00 -3.990364e+00 -3.990505e+00 -3.997613e+00 -3.998934e+00 -4.003561e+00 -4.006219e+00 -4.008412e+00 -4.012598e+00 -4.012853e+00 -4.018442e+00 -4.017001e+00 -4.022980e+00 -4.019667e+00 -4.024740e+00 -4.019584e+00 -4.022945e+00 -4.016509e+00 -4.018059e+00 -4.011294e+00 -4.011516e+00 -4.005117e+00 -4.004448e+00 -3.998332e+00 -3.996901e+00 -3.990732e+00 -3.988762e+00 -3.982374e+00 -3.980221e+00 -3.973690e+00 -3.971731e+00 -3.965263e+00 -3.963777e+00 -3.957599e+00 -3.956708e+00 -3.951012e+00 -3.950691e+00 -3.945643e+00 -3.945761e+00 -3.941525e+00 -3.941892e+00 -3.938646e+00 -3.939056e+00 -3.936990e+00 -3.937242e+00 -3.936547e+00 
-3.935728e+00 -3.935895e+00 -3.935583e+00 -3.937468e+00 -3.936528e+00 -3.940231e+00 -3.938603e+00 -3.944158e+00 -3.941869e+00 -3.949227e+00 -3.946399e+00 -3.955396e+00 -3.952250e+00 -3.962570e+00 -3.959394e+00 -3.970514e+00 -3.967604e+00 -3.978755e+00 -3.976337e+00 -3.986508e+00 -3.984671e+00 -3.992690e+00 -3.991360e+00 -3.996053e+00 -3.995031e+00 -3.995417e+00 -3.994514e+00 -3.990321e+00 -3.989619e+00 -3.982388e+00 -3.983252e+00 -3.976168e+00 -3.980383e+00 -3.975937e+00 -3.983543e+00 -3.981935e+00 -3.990587e+00 -3.990024e+00 -3.996508e+00 -3.995105e+00 -3.998240e+00 -3.995251e+00 -3.995824e+00 -3.991164e+00 -3.990258e+00 -3.984284e+00 -3.982743e+00 -3.976010e+00 -3.974430e+00 -3.967464e+00 -3.966232e+00 -3.959427e+00 -3.958736e+00 -3.952359e+00 -3.952232e+00 -3.946477e+00 -3.946811e+00 -3.941855e+00 -3.942469e+00 -3.938498e+00 -3.939181e+00 -3.936395e+00 -3.936933e+00 -3.935531e+00 
-3.934366e+00 -3.934977e+00 -3.934593e+00 -3.937015e+00 -3.935942e+00 -3.940292e+00 -3.938483e+00 -3.944801e+00 -3.942311e+00 -3.950535e+00 -3.947540e+00 -3.957467e+00 -3.954265e+00 -3.965502e+00 -3.962485e+00 -3.974396e+00 -3.971972e+00 -3.983653e+00 -3.982160e+00 -3.992490e+00 -3.992151e+00 -4.000016e+00 -4.001020e+00 -4.005757e+00 -4.008489e+00 -4.010451e+00 -4.015654e+00 -4.016235e+00 -4.024324e+00 -4.023760e+00 -4.032541e+00 -4.029450e+00 -4.036089e+00 -4.029767e+00 -4.032954e+00 -4.024305e+00 -4.024415e+00 -4.015725e+00 -4.014518e+00 -4.007523e+00 -4.006057e+00 -4.000104e+00 -3.998076e+00 -3.992164e+00 -3.989652e+00 -3.983323e+00 -3.980693e+00 -3.973993e+00 -3.971669e+00 -3.964878e+00 -3.963177e+00 -3.956591e+00 -3.955650e+00 -3.949505e+00 -3.949286e+00 -3.943772e+00 -3.944110e+00 -3.939409e+00 -3.940073e+00 -3.936380e+00 -3.937119e+00 -3.934648e+00 -3.935216e+00 -3.934185e+00 
-3.933128e+00 -3.932968e+00 -3.932941e+00 -3.934656e+00 -3.933881e+00 -3.937623e+00 -3.936012e+00 -3.941876e+00 -3.939436e+00 -3.947433e+00 -3.944284e+00 -3.954302e+00 -3.950683e+00 -3.962435e+00 -3.958684e+00 -3.971626e+00 -3.968130e+00 -3.981407e+00 -3.978518e+00 -3.990960e+00 -3.988916e+00 -3.999143e+00 -3.997966e+00 -4.004476e+00 -4.003852e+00 -4.004795e+00 -4.004040e+00 -3.997547e+00 -3.995372e+00 -3.983355e+00 -3.982334e+00 -3.971305e+00 -3.976037e+00 -3.970747e+00 -3.982002e+00 -3.982389e+00 -3.995685e+00 -3.997523e+00 -4.005670e+00 -4.005280e+00 -4.007070e+00 -4.004162e+00 -4.002776e+00 -3.997582e+00 -3.995100e+00 -3.988290e+00 -3.985641e+00 -3.978028e+00 -3.975693e+00 -3.967924e+00 -3.966223e+00 -3.958700e+00 -3.957804e+00 -3.950763e+00 -3.950667e+00 -3.944277e+00 -3.944829e+00 -3.939262e+00 -3.940221e+00 -3.935673e+00 -3.936764e+00 -3.933455e+00 -3.934406e+00 -3.932562e+00 
-3.931195e+00 -3.931405e+00 -3.931333e+00 -3.933561e+00 -3.932626e+00 -3.937062e+00 -3.935171e+00 -3.941938e+00 -3.939114e+00 -3.948229e+00 -3.944640e+00 -3.955956e+00 -3.951928e+00 -3.965052e+00 -3.961050e+00 -3.975246e+00 -3.971787e+00 -3.985904e+00 -3.983424e+00 -3.995901e+00 -3.994659e+00 -4.003763e+00 -4.003941e+00 -4.008441e+00 -4.010617e+00 -4.011209e+00 -4.017352e+00 -4.018447e+00 -4.031679e+00 -4.033842e+00 -4.048687e+00 -4.046848e+00 -4.056489e+00 -4.048005e+00 -4.050335e+00 -4.036751e+00 -4.033170e+00 -4.020376e+00 -4.016292e+00 -4.009051e+00 -4.006872e+00 -4.001969e+00 -3.999249e+00 -3.994124e+00 -3.990842e+00 -3.984700e+00 -3.981354e+00 -3.974376e+00 -3.971505e+00 -3.964184e+00 -3.962175e+00 -3.954945e+00 -3.953959e+00 -3.947117e+00 -3.947093e+00 -3.940856e+00 -3.941574e+00 -3.936145e+00 -3.937304e+00 -3.932907e+00 -3.934184e+00 -3.931067e+00 -3.932153e+00 -3.930573e+00 
-3.929444e+00 -3.928768e+00 -3.929191e+00 -3.930602e+00 -3.930103e+00 -3.933828e+00 -3.932276e+00 -3.938497e+00 -3.935860e+00 -3.944688e+00 -3.941065e+00 -3.952478e+00 -3.948119e+00 -3.961887e+00 -3.957183e+00 -3.972758e+00 -3.968209e+00 -3.984614e+00 -3.980784e+00 -3.996619e+00 -3.994075e+00 -4.007795e+00 -4.006934e+00 -4.017090e+00 -4.017620e+00 -4.021198e+00 -4.022137e+00 -4.011779e+00 -4.005957e+00 -3.983159e+00 -3.976227e+00 -3.956989e+00 -3.961698e+00 -3.955495e+00 -3.974436e+00 -3.980449e+00 -4.005007e+00 -4.012503e+00 -4.023210e+00 -4.023921e+00 -4.021033e+00 -4.017908e+00 -4.012498e+00 -4.006190e+00 -4.001366e+00 -3.993102e+00 -3.989076e+00 -3.980130e+00 -3.976877e+00 -3.968009e+00 -3.965730e+00 -3.957263e+00 -3.956140e+00 -3.948210e+00 -3.948226e+00 -3.940956e+00 -3.941892e+00 -3.935450e+00 -3.936970e+00 -3.931579e+00 -3.933311e+00 -3.929225e+00 -3.930817e+00 -3.928305e+00 
-3.926942e+00 -3.926525e+00 -3.926949e+00 -3.928813e+00 -3.928134e+00 -3.932573e+00 -3.930631e+00 -3.937893e+00 -3.934646e+00 -3.944883e+00 -3.940462e+00 -3.953643e+00 -3.948395e+00 -3.964178e+00 -3.958671e+00 -3.976240e+00 -3.971170e+00 -3.989073e+00 -3.985059e+00 -4.001095e+00 -3.998424e+00 -4.009713e+00 -4.008270e+00 -4.011788e+00 -4.011516e+00 -4.006606e+00 -4.010921e+00 -4.012392e+00 -4.036662e+00 -4.047096e+00 -4.075336e+00 -4.077830e+00 -4.092804e+00 -4.080545e+00 -4.080248e+00 -4.055319e+00 -4.042092e+00 -4.019989e+00 -4.010240e+00 -4.005707e+00 -4.005063e+00 -4.003691e+00 -4.000331e+00 -3.996910e+00 -3.992565e+00 -3.986667e+00 -3.982324e+00 -3.974805e+00 -3.971187e+00 -3.963032e+00 -3.960633e+00 -3.952483e+00 -3.951495e+00 -3.943689e+00 -3.944011e+00 -3.936769e+00 -3.938092e+00 -3.931641e+00 -3.933554e+00 -3.928156e+00 -3.930238e+00 -3.926188e+00 -3.928045e+00 -3.925655e+00 
-3.924668e+00 -3.923231e+00 -3.924321e+00 -3.925225e+00 -3.925166e+00 -3.928734e+00 -3.927326e+00 -3.933866e+00 -3.931012e+00 -3.940777e+00 -3.936525e+00 -3.949645e+00 -3.944223e+00 -3.960590e+00 -3.954416e+00 -3.973512e+00 -3.967182e+00 -3.987861e+00 -3.982182e+00 -4.002588e+00 -3.998748e+00 -4.017107e+00 -4.016627e+00 -4.033400e+00 -4.036128e+00 -4.049928e+00 -4.059892e+00 -4.044322e+00 -4.029321e+00 -3.980167e+00 -3.955409e+00 -3.919368e+00 -3.921956e+00 -3.915444e+00 -3.949931e+00 -3.971364e+00 -4.026029e+00 -4.047300e+00 -4.060248e+00 -4.059084e+00 -4.040367e+00 -4.036327e+00 -4.023830e+00 -4.015300e+00 -4.008139e+00 -3.997404e+00 -3.992303e+00 -3.981518e+00 -3.977358e+00 -3.967216e+00 -3.964267e+00 -3.954750e+00 -3.953405e+00 -3.944419e+00 -3.944698e+00 -3.936298e+00 -3.937877e+00 -3.930264e+00 -3.932651e+00 -3.926108e+00 -3.928792e+00 -3.923633e+00 -3.926155e+00 -3.922698e+00 
-3.921634e+00 -3.920286e+00 -3.921456e+00 -3.922689e+00 -3.922459e+00 -3.926699e+00 -3.924805e+00 -3.932480e+00 -3.928764e+00 -3.940243e+00 -3.934739e+00 -3.950211e+00 -3.943248e+00 -3.962530e+00 -3.954801e+00 -3.977090e+00 -3.969595e+00 -3.993188e+00 -3.986943e+00 -4.008954e+00 -4.004442e+00 -4.020476e+00 -4.017064e+00 -4.020045e+00 -4.013870e+00 -3.988998e+00 -3.976632e+00 -3.976453e+00 -4.028077e+00 -4.063993e+00 -4.123493e+00 -4.137732e+00 -4.160393e+00 -4.142235e+00 -4.136553e+00 -4.084118e+00 -4.044298e+00 -3.997785e+00 -3.976321e+00 -3.988637e+00 -4.001204e+00 -4.008582e+00 -4.003037e+00 -4.001957e+00 -3.995893e+00 -3.989718e+00 -3.983997e+00 -3.975247e+00 -3.970632e+00 -3.961171e+00 -3.958292e+00 -3.948923e+00 -3.948024e+00 -3.938985e+00 -3.939895e+00 -3.931345e+00 -3.933600e+00 -3.925787e+00 -3.928810e+00 -3.922062e+00 -3.925293e+00 -3.919970e+00 -3.922918e+00 -3.919392e+00 
-3.918837e+00 -3.916323e+00 -3.918364e+00 -3.918463e+00 -3.919076e+00 -3.922226e+00 -3.921119e+00 -3.927795e+00 -3.924762e+00 -3.935429e+00 -3.930417e+00 -3.945442e+00 -3.938613e+00 -3.958119e+00 -3.949857e+00 -3.973496e+00 -3.964350e+00 -3.990808e+00 -3.981601e+00 -4.007783e+00 -4.000485e+00 -4.022513e+00 -4.022168e+00 -4.046866e+00 -4.047936e+00 -4.098984e+00 -4.150638e+00 -4.133846e+00 -4.093102e+00 -3.970266e+00 -3.892101e+00 -3.825062e+00 -3.822178e+00 -3.816165e+00 -3.875791e+00 -3.938360e+00 -4.085004e+00 -4.144231e+00 -4.150243e+00 -4.127539e+00 -4.054878e+00 -4.051364e+00 -4.032776e+00 -4.019923e+00 -4.014063e+00 -3.999081e+00 -3.994409e+00 -3.981422e+00 -3.976346e+00 -3.965132e+00 -3.961231e+00 -3.950797e+00 -3.949203e+00 -3.939055e+00 -3.939853e+00 -3.930042e+00 -3.932670e+00 -3.923529e+00 -3.927222e+00 -3.919161e+00 -3.923209e+00 -3.916626e+00 -3.920445e+00 -3.915713e+00 
-3.915342e+00 -3.912669e+00 -3.914920e+00 -3.915121e+00 -3.915640e+00 -3.919299e+00 -3.917669e+00 -3.925461e+00 -3.921326e+00 -3.933953e+00 -3.927139e+00 -3.945174e+00 -3.935882e+00 -3.959495e+00 -3.948521e+00 -3.977109e+00 -3.965934e+00 -3.997700e+00 -3.988157e+00 -4.019794e+00 -4.013158e+00 -4.040107e+00 -4.037647e+00 -4.053922e+00 -4.044506e+00 -3.947459e+00 -3.850518e+00 -3.839710e+00 -3.974605e+00 -4.092364e+00 -4.228477e+00 -4.266112e+00 -4.288364e+00 -4.265633e+00 -4.259502e+00 -4.138115e+00 -4.020014e+00 -3.897388e+00 -3.847237e+00 -3.938683e+00 -4.016728e+00 -4.036667e+00 -4.012116e+00 -4.010509e+00 -4.002538e+00 -3.994187e+00 -3.986857e+00 -3.975422e+00 -3.969468e+00 -3.958084e+00 -3.954585e+00 -3.943795e+00 -3.943144e+00 -3.932664e+00 -3.934549e+00 -3.924360e+00 -3.928037e+00 -3.918460e+00 -3.923084e+00 -3.914571e+00 -3.919399e+00 -3.912400e+00 -3.916837e+00 -3.911782e+00 
-3.912034e+00 -3.908055e+00 -3.911398e+00 -3.910278e+00 -3.911885e+00 -3.914190e+00 -3.913643e+00 -3.920062e+00 -3.916984e+00 -3.928280e+00 -3.922448e+00 -3.939345e+00 -3.930812e+00 -3.953847e+00 -3.942936e+00 -3.972306e+00 -3.959263e+00 -3.994095e+00 -3.978602e+00 -4.013300e+00 -3.996060e+00 -4.013602e+00 -4.017578e+00 -4.025860e+00 -3.977238e+00 -4.163294e+00 -4.405749e+00 -4.428301e+00 -4.283622e+00 -3.753384e+00 -3.083503e+00 -2.543142e+00 -2.322614e+00 -2.438517e+00 -2.913351e+00 -3.514453e+00 -4.233747e+00 -4.466971e+00 -4.407254e+00 -4.255535e+00 -3.993468e+00 -4.017467e+00 -4.034413e+00 -4.010678e+00 -4.018688e+00 -3.996346e+00 -3.994477e+00 -3.980064e+00 -3.972847e+00 -3.961754e+00 -3.955871e+00 -3.945031e+00 -3.943078e+00 -3.931661e+00 -3.933462e+00 -3.921826e+00 -3.926181e+00 -3.915028e+00 -3.920674e+00 -3.910648e+00 -3.916598e+00 -3.908194e+00 -3.913754e+00 -3.907370e+00 
-3.908179e+00 -3.903692e+00 -3.907457e+00 -3.906062e+00 -3.907769e+00 -3.910213e+00 -3.909250e+00 -3.916523e+00 -3.912216e+00 -3.925507e+00 -3.917276e+00 -3.937796e+00 -3.925471e+00 -3.954067e+00 -3.938376e+00 -3.974946e+00 -3.957995e+00 -4.000677e+00 -3.985600e+00 -4.029947e+00 -4.018048e+00 -4.060459e+00 -4.068348e+00 -4.198345e+00 -4.258616e+00 -3.769470e+00 -2.157299e+00 3.601370e-01 3.024001e+00 5.343204e+00 7.238127e+00 8.370863e+00 8.783650e+00 8.546007e+00 7.608649e+00 5.972184e+00 3.545356e+00 1.089449e+00 -1.695048e+00 -3.580691e+00 -4.180590e+00 -4.183239e+00 -4.021069e+00 -4.004510e+00 -4.011663e+00 -3.999167e+00 -3.990691e+00 -3.974247e+00 -3.966301e+00 -3.952670e+00 -3.948240e+00 -3.936314e+00 -3.936182e+00 -3.924212e+00 -3.927734e+00 -3.915509e+00 -3.921368e+00 -3.909511e+00 -3.916418e+00 -3.905644e+00 -3.912628e+00 -3.903504e+00 -3.909897e+00 -3.902871e+00 
-3.904377e+00 -3.898488e+00 -3.903552e+00 -3.900661e+00 -3.903697e+00 -3.904498e+00 -3.904919e+00 -3.910372e+00 -3.907530e+00 -3.918812e+00 -3.912186e+00 -3.930505e+00 -3.920030e+00 -3.946467e+00 -3.932692e+00 -3.968591e+00 -3.951708e+00 -3.999751e+00 -3.975856e+00 -4.033371e+00 -3.980348e+00 -3.984612e+00 -4.060592e+00 -3.626497e+00 -1.796226e+00 2.646538e+00 7.235491e+00 1.022163e+01 1.251553e+01 1.344240e+01 1.390678e+01 1.402403e+01 1.406665e+01 1.403469e+01 1.395675e+01 1.361933e+01 1.284289e+01 1.109575e+01 7.898985e+00 3.969561e+00 -3.488510e-01 -3.188835e+00 -4.048860e+00 -4.001935e+00 -4.025575e+00 -3.992137e+00 -3.990506e+00 -3.980547e+00 -3.965170e+00 -3.957524e+00 -3.947137e+00 -3.936692e+00 -3.934493e+00 -3.921375e+00 -3.925296e+00 -3.911065e+00 -3.918336e+00 -3.904476e+00 -3.913011e+00 -3.900493e+00 -3.909017e+00 -3.898378e+00 -3.906176e+00 -3.897750e+00 
-3.900271e+00 -3.893422e+00 -3.899219e+00 -3.895484e+00 -3.898998e+00 -3.899254e+00 -3.899646e+00 -3.905244e+00 -3.901379e+00 -3.914179e+00 -3.904754e+00 -3.926976e+00 -3.910953e+00 -3.944704e+00 -3.922242e+00 -3.968612e+00 -3.942496e+00 -3.999629e+00 -3.976163e+00 -4.034412e+00 -4.000618e+00 -3.910237e+00 -2.497924e+00 2.218369e+00 7.204565e+00 1.108149e+01 1.343528e+01 1.364928e+01 1.380360e+01 1.357024e+01 1.345311e+01 1.334566e+01 1.333791e+01 1.333336e+01 1.341859e+01 1.352967e+01 1.374912e+01 1.375073e+01 1.343468e+01 1.206362e+01 8.520609e+00 3.391625e+00 -1.628017e+00 -3.713464e+00 -4.024676e+00 -4.018995e+00 -3.995849e+00 -3.969307e+00 -3.957173e+00 -3.942713e+00 -3.936617e+00 -3.925262e+00 -3.926209e+00 -3.912889e+00 -3.919286e+00 -3.904354e+00 -3.913628e+00 -3.898739e+00 -3.908870e+00 -3.895254e+00 -3.905051e+00 -3.893352e+00 -3.902195e+00 -3.892758e+00 
-3.896004e+00 -3.887742e+00 -3.894990e+00 -3.889630e+00 -3.894671e+00 -3.893003e+00 -3.895035e+00 -3.898355e+00 -3.896263e+00 -3.906336e+00 -3.898975e+00 -3.917661e+00 -3.904690e+00 -3.933241e+00 -3.916456e+00 -3.956238e+00 -3.939265e+00 -4.002235e+00 -3.989807e+00 -4.126889e+00 -3.778125e+00 -1.118440e+00 4.336737e+00 1.009236e+01 1.305094e+01 1.340392e+01 1.332790e+01 1.318658e+01 1.331657e+01 1.342802e+01 1.359357e+01 1.365305e+01 1.370196e+01 1.366506e+01 1.361154e+01 1.346750e+01 1.333367e+01 1.319443e+01 1.325880e+01 1.345272e+01 1.318083e+01 1.116494e+01 6.422452e+00 5.054446e-01 -3.456292e+00 -3.980639e+00 -3.974313e+00 -3.991635e+00 -3.950415e+00 -3.951634e+00 -3.933550e+00 -3.923284e+00 -3.922807e+00 -3.906372e+00 -3.915135e+00 -3.896811e+00 -3.909069e+00 -3.891530e+00 -3.904228e+00 -3.888683e+00 -3.900506e+00 -3.887312e+00 -3.897803e+00 -3.887020e+00 
-3.891735e+00 -3.881998e+00 -3.890379e+00 -3.883408e+00 -3.889543e+00 -3.886234e+00 -3.889080e+00 -3.891110e+00 -3.888933e+00 -3.898977e+00 -3.889302e+00 -3.911064e+00 -3.891090e+00 -3.928913e+00 -3.896935e+00 -3.955110e+00 -3.913616e+00 -3.993946e+00 -3.972331e+00 -3.775017e+00 -6.347195e-01 6.380116e+00 1.175094e+01 1.314772e+01 1.320291e+01 1.322635e+01 1.338016e+01 1.340067e+01 1.349177e+01 1.342286e+01 1.342552e+01 1.337356e+01 1.338489e+01 1.336971e+01 1.340641e+01 1.341706e+01 1.346197e+01 1.342494e+01 1.335858e+01 1.323366e+01 1.318006e+01 1.332867e+01 1.255447e+01 8.123119e+00 9.501331e-01 -3.131461e+00 -4.017423e+00 -3.941740e+00 -3.930244e+00 -3.923944e+00 -3.915069e+00 -3.909240e+00 -3.912736e+00 -3.897684e+00 -3.909523e+00 -3.890258e+00 -3.905008e+00 -3.885893e+00 -3.900482e+00 -3.883412e+00 -3.896678e+00 -3.882088e+00 -3.893783e+00 -3.881620e+00 
-3.887056e+00 -3.876036e+00 -3.885919e+00 -3.877265e+00 -3.885070e+00 -3.879579e+00 -3.884264e+00 -3.883607e+00 -3.883286e+00 -3.890165e+00 -3.882200e+00 -3.899840e+00 -3.882326e+00 -3.911577e+00 -3.888169e+00 -3.920392e+00 -3.899928e+00 -3.930419e+00 -3.706410e+00 -7.259432e-01 6.363454e+00 1.198667e+01 1.334096e+01 1.324978e+01 1.333542e+01 1.330582e+01 1.333471e+01 1.329515e+01 1.336283e+01 1.338875e+01 1.346514e+01 1.348389e+01 1.351333e+01 1.348942e+01 1.346519e+01 1.340246e+01 1.335049e+01 1.330400e+01 1.328809e+01 1.332502e+01 1.326564e+01 1.326473e+01 1.314595e+01 1.255805e+01 8.446906e+00 1.262979e+00 -3.386458e+00 -4.042784e+00 -3.929066e+00 -3.934196e+00 -3.913512e+00 -3.897930e+00 -3.907430e+00 -3.883446e+00 -3.902898e+00 -3.877919e+00 -3.898347e+00 -3.876008e+00 -3.894284e+00 -3.875420e+00 -3.891065e+00 -3.875304e+00 -3.888705e+00 -3.875472e+00 
-3.882669e+00 -3.869692e+00 -3.881146e+00 -3.869991e+00 -3.879730e+00 -3.871085e+00 -3.878011e+00 -3.873657e+00 -3.875443e+00 -3.878804e+00 -3.871343e+00 -3.888018e+00 -3.865399e+00 -3.902932e+00 -3.858980e+00 -3.928316e+00 -3.844720e+00 -3.962866e+00 -1.620730e+00 5.663537e+00 1.193987e+01 1.317863e+01 1.322809e+01 1.324104e+01 1.325184e+01 1.326572e+01 1.332385e+01 1.333093e+01 1.337887e+01 1.335919e+01 1.337840e+01 1.335670e+01 1.336868e+01 1.335588e+01 1.336789e+01 1.335930e+01 1.336150e+01 1.333832e+01 1.330476e+01 1.327051e+01 1.322789e+01 1.324347e+01 1.319043e+01 1.312434e+01 1.268159e+01 7.968362e+00 -2.702491e-01 -3.773588e+00 -3.820880e+00 -3.902019e+00 -3.879898e+00 -3.888980e+00 -3.898897e+00 -3.877162e+00 -3.900089e+00 -3.872310e+00 -3.895857e+00 -3.870774e+00 -3.891154e+00 -3.870295e+00 -3.887384e+00 -3.870022e+00 -3.884641e+00 -3.869785e+00 
-3.877703e+00 -3.863756e+00 -3.876623e+00 -3.863804e+00 -3.875337e+00 -3.864225e+00 -3.873306e+00 -3.865762e+00 -3.869580e+00 -3.869718e+00 -3.862604e+00 -3.878029e+00 -3.851894e+00 -3.890700e+00 -3.852315e+00 -3.883576e+00 -3.976458e+00 -3.028824e+00 3.339976e+00 1.084210e+01 1.318409e+01 1.315392e+01 1.327362e+01 1.323686e+01 1.330070e+01 1.328554e+01 1.332252e+01 1.331412e+01 1.335367e+01 1.336308e+01 1.339941e+01 1.340574e+01 1.341983e+01 1.340777e+01 1.339512e+01 1.336757e+01 1.333989e+01 1.331711e+01 1.329290e+01 1.328740e+01 1.325704e+01 1.322831e+01 1.321449e+01 1.311993e+01 1.322706e+01 1.217399e+01 6.109768e+00 -1.196345e+00 -3.893027e+00 -3.843757e+00 -3.882507e+00 -3.848775e+00 -3.888506e+00 -3.849685e+00 -3.889204e+00 -3.854193e+00 -3.886297e+00 -3.858530e+00 -3.883101e+00 -3.861430e+00 -3.880653e+00 -3.862983e+00 -3.878943e+00 -3.863615e+00 
-3.873207e+00 -3.857029e+00 -3.871808e+00 -3.855691e+00 -3.870041e+00 -3.854115e+00 -3.867272e+00 -3.852835e+00 -3.862363e+00 -3.853034e+00 -3.853177e+00 -3.856962e+00 -3.837575e+00 -3.864570e+00 -3.828037e+00 -3.833054e+00 -3.840753e+00 4.887485e-01 9.201220e+00 1.298847e+01 1.315397e+01 1.320682e+01 1.321093e+01 1.323785e+01 1.324923e+01 1.326996e+01 1.329386e+01 1.330707e+01 1.332896e+01 1.333004e+01 1.334180e+01 1.333742e+01 1.334249e+01 1.333765e+01 1.333732e+01 1.333166e+01 1.332144e+01 1.331181e+01 1.328453e+01 1.327645e+01 1.323573e+01 1.324783e+01 1.318671e+01 1.322702e+01 1.310666e+01 1.331707e+01 1.107403e+01 2.741865e+00 -3.570572e+00 -3.971745e+00 -3.883691e+00 -3.865337e+00 -3.900470e+00 -3.847166e+00 -3.894114e+00 -3.849344e+00 -3.886011e+00 -3.853697e+00 -3.880319e+00 -3.856576e+00 -3.876844e+00 -3.857815e+00 -3.874712e+00 -3.857835e+00 
-3.868205e+00 -3.851563e+00 -3.867485e+00 -3.849822e+00 -3.866099e+00 -3.847303e+00 -3.863396e+00 -3.844505e+00 -3.857768e+00 -3.843065e+00 -3.844362e+00 -3.849228e+00 -3.807386e+00 -3.887556e+00 -3.692064e+00 -4.053113e+00 -2.486808e+00 4.948712e+00 1.230319e+01 1.325821e+01 1.310316e+01 1.321922e+01 1.321689e+01 1.325103e+01 1.326973e+01 1.328663e+01 1.330391e+01 1.331598e+01 1.333309e+01 1.334536e+01 1.335886e+01 1.336622e+01 1.336889e+01 1.336655e+01 1.335588e+01 1.334569e+01 1.332563e+01 1.331478e+01 1.329116e+01 1.328263e+01 1.325589e+01 1.323984e+01 1.321801e+01 1.319136e+01 1.318846e+01 1.317681e+01 1.285070e+01 7.787216e+00 -6.042566e-01 -3.908734e+00 -3.799740e+00 -3.803238e+00 -3.873298e+00 -3.810099e+00 -3.877180e+00 -3.828764e+00 -3.873215e+00 -3.841427e+00 -3.870470e+00 -3.848296e+00 -3.869205e+00 -3.851421e+00 -3.868646e+00 -3.852239e+00 
-3.863640e+00 -3.844879e+00 -3.862775e+00 -3.841449e+00 -3.861065e+00 -3.836331e+00 -3.857947e+00 -3.829403e+00 -3.852054e+00 -3.821470e+00 -3.838809e+00 -3.819560e+00 -3.800124e+00 -3.863665e+00 -3.654191e+00 -4.115241e+00 4.836019e-01 9.269119e+00 1.325893e+01 1.302452e+01 1.319918e+01 1.316886e+01 1.320823e+01 1.323163e+01 1.323983e+01 1.326954e+01 1.327408e+01 1.329749e+01 1.330081e+01 1.331494e+01 1.331508e+01 1.332252e+01 1.331922e+01 1.332297e+01 1.331537e+01 1.331672e+01 1.330218e+01 1.330151e+01 1.327721e+01 1.327658e+01 1.324394e+01 1.324385e+01 1.321152e+01 1.318907e+01 1.320493e+01 1.304267e+01 1.335487e+01 1.159532e+01 3.136900e+00 -3.603261e+00 -3.981376e+00 -3.753755e+00 -3.923709e+00 -3.794463e+00 -3.887857e+00 -3.822114e+00 -3.872284e+00 -3.836900e+00 -3.866469e+00 -3.843950e+00 -3.864618e+00 -3.846639e+00 -3.864067e+00 -3.846690e+00 
-3.859011e+00 -3.840437e+00 -3.858970e+00 -3.836449e+00 -3.857890e+00 -3.830120e+00 -3.855661e+00 -3.820681e+00 -3.852203e+00 -3.806713e+00 -3.847350e+00 -3.786552e+00 -3.839205e+00 -3.762104e+00 -3.805498e+00 -3.452026e+00 4.298904e+00 1.208011e+01 1.338342e+01 1.309291e+01 1.321206e+01 1.321152e+01 1.322187e+01 1.326129e+01 1.325708e+01 1.329300e+01 1.328887e+01 1.331611e+01 1.331399e+01 1.333409e+01 1.333173e+01 1.334470e+01 1.333834e+01 1.334403e+01 1.333160e+01 1.333184e+01 1.331363e+01 1.331185e+01 1.328844e+01 1.328704e+01 1.325641e+01 1.325701e+01 1.321448e+01 1.322744e+01 1.315862e+01 1.321184e+01 1.307437e+01 1.300358e+01 7.063813e+00 -1.950341e+00 -4.129645e+00 -3.629014e+00 -3.927773e+00 -3.757048e+00 -3.871626e+00 -3.807358e+00 -3.857500e+00 -3.828916e+00 -3.855536e+00 -3.838355e+00 -3.856701e+00 -3.841993e+00 -3.858157e+00 -3.842360e+00 
-3.854600e+00 -3.834414e+00 -3.854603e+00 -3.828784e+00 -3.853263e+00 -3.819857e+00 -3.850685e+00 -3.805780e+00 -3.847684e+00 -3.781834e+00 -3.848285e+00 -3.734550e+00 -3.870538e+00 -3.618555e+00 -3.988286e+00 -1.865321e+00 8.011417e+00 1.313571e+01 1.306480e+01 1.318689e+01 1.313887e+01 1.321841e+01 1.318720e+01 1.325164e+01 1.322710e+01 1.327728e+01 1.325931e+01 1.329578e+01 1.328253e+01 1.330738e+01 1.329633e+01 1.331280e+01 1.330199e+01 1.331304e+01 1.330058e+01 1.330829e+01 1.329190e+01 1.329786e+01 1.327504e+01 1.328166e+01 1.324956e+01 1.326227e+01 1.321344e+01 1.325029e+01 1.315353e+01 1.329853e+01 1.299658e+01 1.366411e+01 1.037429e+01 3.824987e-01 -4.198431e+00 -3.604267e+00 -3.927506e+00 -3.753756e+00 -3.860708e+00 -3.806082e+00 -3.847498e+00 -3.826749e+00 -3.847861e+00 -3.835202e+00 -3.850787e+00 -3.837990e+00 -3.853279e+00 -3.837472e+00 
-3.850898e+00 -3.831547e+00 -3.851611e+00 -3.825409e+00 -3.850691e+00 -3.815643e+00 -3.848515e+00 -3.800263e+00 -3.846713e+00 -3.774580e+00 -3.852592e+00 -3.726336e+00 -3.897686e+00 -3.619421e+00 -4.112852e+00 -4.826940e-01 1.036092e+01 1.364935e+01 1.306220e+01 1.333409e+01 1.315469e+01 1.328563e+01 1.320612e+01 1.329126e+01 1.324648e+01 1.330551e+01 1.327738e+01 1.331849e+01 1.329972e+01 1.332826e+01 1.331414e+01 1.333327e+01 1.332000e+01 1.333183e+01 1.331696e+01 1.332374e+01 1.330610e+01 1.331033e+01 1.328875e+01 1.329301e+01 1.326425e+01 1.327387e+01 1.322890e+01 1.326299e+01 1.317257e+01 1.329572e+01 1.305667e+01 1.348265e+01 1.204479e+01 2.867469e+00 -3.942708e+00 -3.708158e+00 -3.844303e+00 -3.782205e+00 -3.823900e+00 -3.813454e+00 -3.828372e+00 -3.827579e+00 -3.836731e+00 -3.833830e+00 -3.843679e+00 -3.835824e+00 -3.848346e+00 -3.834938e+00 
-3.847198e+00 -3.826832e+00 -3.848029e+00 -3.819555e+00 -3.846692e+00 -3.808280e+00 -3.843328e+00 -3.791091e+00 -3.838526e+00 -3.764118e+00 -3.835866e+00 -3.719329e+00 -3.852589e+00 -3.640632e+00 -3.958801e+00 9.677787e-01 1.161487e+01 1.354570e+01 1.303970e+01 1.333257e+01 1.312371e+01 1.328227e+01 1.317886e+01 1.328033e+01 1.321983e+01 1.328913e+01 1.325012e+01 1.329810e+01 1.327133e+01 1.330447e+01 1.328467e+01 1.330762e+01 1.329126e+01 1.330745e+01 1.329199e+01 1.330387e+01 1.328732e+01 1.329662e+01 1.327743e+01 1.328564e+01 1.326245e+01 1.327223e+01 1.324278e+01 1.326292e+01 1.322007e+01 1.327824e+01 1.320262e+01 1.334910e+01 1.323478e+01 5.199852e+00 -3.527401e+00 -3.819426e+00 -3.735174e+00 -3.812832e+00 -3.779760e+00 -3.821139e+00 -3.808013e+00 -3.828120e+00 -3.826077e+00 -3.831884e+00 -3.837290e+00 -3.832770e+00 -3.843872e+00 -3.831093e+00 
-3.845101e+00 -3.825873e+00 -3.846301e+00 -3.818309e+00 -3.844911e+00 -3.806722e+00 -3.840639e+00 -3.789477e+00 -3.832467e+00 -3.764217e+00 -3.818278e+00 -3.728634e+00 -3.794135e+00 -3.685841e+00 -3.748219e+00 2.531143e+00 1.267915e+01 1.343816e+01 1.311015e+01 1.335458e+01 1.315860e+01 1.331855e+01 1.320410e+01 1.331209e+01 1.324206e+01 1.331572e+01 1.327087e+01 1.332134e+01 1.329134e+01 1.332601e+01 1.330442e+01 1.332801e+01 1.331036e+01 1.332602e+01 1.330950e+01 1.331970e+01 1.330293e+01 1.330958e+01 1.329215e+01 1.329612e+01 1.327870e+01 1.327965e+01 1.326640e+01 1.326219e+01 1.326900e+01 1.324788e+01 1.333045e+01 1.322494e+01 1.358334e+01 6.638654e+00 -3.106662e+00 -3.918799e+00 -3.668764e+00 -3.852408e+00 -3.750657e+00 -3.836353e+00 -3.794325e+00 -3.833599e+00 -3.818861e+00 -3.833474e+00 -3.832985e+00 -3.832797e+00 -3.841007e+00 -3.830470e+00 
-3.842926e+00 -3.822895e+00 -3.844205e+00 -3.814817e+00 -3.842497e+00 -3.802778e+00 -3.837261e+00 -3.785766e+00 -3.826280e+00 -3.763547e+00 -3.802906e+00 -3.740635e+00 -3.746678e+00 -3.741122e+00 -3.591267e+00 3.410603e+00 1.314586e+01 1.336056e+01 1.315124e+01 1.333178e+01 1.315244e+01 1.330393e+01 1.318491e+01 1.329565e+01 1.321897e+01 1.329672e+01 1.324636e+01 1.330041e+01 1.326619e+01 1.330380e+01 1.327923e+01 1.330560e+01 1.328633e+01 1.330512e+01 1.328829e+01 1.330203e+01 1.328605e+01 1.329613e+01 1.328082e+01 1.328694e+01 1.327486e+01 1.327342e+01 1.327453e+01 1.325381e+01 1.329960e+01 1.322116e+01 1.340375e+01 1.313414e+01 1.369949e+01 7.661951e+00 -2.618038e+00 -3.931932e+00 -3.590370e+00 -3.859316e+00 -3.715439e+00 -3.837472e+00 -3.778085e+00 -3.832388e+00 -3.810891e+00 -3.831506e+00 -3.828644e+00 -3.830520e+00 -3.838233e+00 -3.827899e+00 
-3.842966e+00 -3.823934e+00 -3.844310e+00 -3.815892e+00 -3.842547e+00 -3.803833e+00 -3.836774e+00 -3.786589e+00 -3.823681e+00 -3.763782e+00 -3.793042e+00 -3.740096e+00 -3.712465e+00 -3.741479e+00 -3.478863e+00 3.767218e+00 1.324083e+01 1.330392e+01 1.317327e+01 1.333441e+01 1.317464e+01 1.332330e+01 1.320744e+01 1.331831e+01 1.324164e+01 1.331934e+01 1.326897e+01 1.332253e+01 1.328866e+01 1.332551e+01 1.330136e+01 1.332654e+01 1.330740e+01 1.332435e+01 1.330729e+01 1.331851e+01 1.330225e+01 1.330932e+01 1.329415e+01 1.329684e+01 1.328591e+01 1.328013e+01 1.328506e+01 1.325676e+01 1.331426e+01 1.321777e+01 1.343075e+01 1.311923e+01 1.373124e+01 7.973026e+00 -2.467589e+00 -3.957280e+00 -3.590271e+00 -3.875946e+00 -3.717121e+00 -3.846232e+00 -3.779214e+00 -3.836823e+00 -3.811372e+00 -3.833853e+00 -3.828765e+00 -3.831951e+00 -3.838242e+00 -3.828996e+00 