# vtk DataFile Version 2.0
Comment goes here
ASCII

DATASET STRUCTURED_POINTS
FIELD FieldData 1
TIME 1 1 double
1.72000000
DIMENSIONS    64   64   1

ORIGIN    0.000   0.000   0.000
SPACING   0.015625 0.015625   1.000

POINT_DATA   4096
SCALARS P double
LOOKUP_TABLE default

-3.917607e+00 -3.914139e+00 -3.917192e+00 -3.915900e+00 -3.919022e+00 -3.920037e+00 -3.923085e+00 -3.926472e+00 -3.929349e+00 -3.935097e+00 -3.937762e+00 -3.945758e+00 -3.948219e+00 -3.958222e+00 -3.960511e+00 -3.972107e+00 -3.974231e+00 -3.986795e+00 -3.988682e+00 -4.001362e+00 -4.002837e+00 -4.014614e+00 -4.015432e+00 -4.025285e+00 -4.025236e+00 -4.032449e+00 -4.031505e+00 -4.036040e+00 -4.034480e+00 -4.037183e+00 -4.035592e+00 -4.037789e+00 -4.036685e+00 -4.039293e+00 -4.038640e+00 -4.041533e+00 -4.040670e+00 -4.042776e+00 -4.040916e+00 -4.040922e+00 -4.037792e+00 -4.034832e+00 -4.030780e+00 -4.024674e+00 -4.020299e+00 -4.011474e+00 -4.007326e+00 -3.996567e+00 -3.993036e+00 -3.981211e+00 -3.978531e+00 -3.966399e+00 -3.964683e+00 -3.952829e+00 -3.952097e+00 -3.940951e+00 -3.941163e+00 -3.931050e+00 -3.932121e+00 -3.923313e+00 -3.925120e+00 -3.917867e+00 -3.920261e+00 -3.914795e+00 
-3.917325e+00 -3.914528e+00 -3.917402e+00 -3.916801e+00 -3.919799e+00 -3.921511e+00 -3.924525e+00 -3.928593e+00 -3.931578e+00 -3.937957e+00 -3.940939e+00 -3.949478e+00 -3.952553e+00 -3.962977e+00 -3.966277e+00 -3.978171e+00 -3.981819e+00 -3.994630e+00 -3.998683e+00 -4.011750e+00 -4.016173e+00 -4.028818e+00 -4.033500e+00 -4.045145e+00 -4.049929e+00 -4.060180e+00 -4.064803e+00 -4.073403e+00 -4.077308e+00 -4.083954e+00 -4.086205e+00 -4.090557e+00 -4.090254e+00 -4.092112e+00 -4.088863e+00 -4.088232e+00 -4.082342e+00 -4.079392e+00 -4.071777e+00 -4.066686e+00 -4.058457e+00 -4.051273e+00 -4.043316e+00 -4.034145e+00 -4.027021e+00 -4.016211e+00 -4.010209e+00 -3.998324e+00 -3.993563e+00 -3.981233e+00 -3.977731e+00 -3.965519e+00 -3.963236e+00 -3.951580e+00 -3.950436e+00 -3.939664e+00 -3.939553e+00 -3.929925e+00 -3.930722e+00 -3.922470e+00 -3.924031e+00 -3.917382e+00 -3.919548e+00 -3.914722e+00 
-3.916490e+00 -3.912933e+00 -3.916070e+00 -3.914713e+00 -3.917907e+00 -3.918891e+00 -3.921995e+00 -3.925399e+00 -3.928314e+00 -3.934140e+00 -3.936827e+00 -3.944976e+00 -3.947453e+00 -3.957693e+00 -3.960002e+00 -3.971923e+00 -3.974081e+00 -3.987054e+00 -3.988996e+00 -4.002143e+00 -4.003691e+00 -4.015934e+00 -4.016827e+00 -4.027035e+00 -4.027027e+00 -4.034322e+00 -4.033337e+00 -4.037578e+00 -4.035868e+00 -4.038050e+00 -4.036320e+00 -4.038139e+00 -4.037075e+00 -4.039710e+00 -4.039296e+00 -4.042595e+00 -4.041984e+00 -4.044608e+00 -4.042766e+00 -4.043116e+00 -4.039757e+00 -4.036861e+00 -4.032512e+00 -4.026215e+00 -4.021604e+00 -4.012429e+00 -4.008126e+00 -3.996965e+00 -3.993337e+00 -3.981137e+00 -3.978395e+00 -3.965952e+00 -3.964199e+00 -3.952102e+00 -3.951361e+00 -3.940025e+00 -3.940259e+00 -3.929992e+00 -3.931111e+00 -3.922173e+00 -3.924051e+00 -3.916680e+00 -3.919160e+00 -3.913588e+00 
-3.915032e+00 -3.912064e+00 -3.915084e+00 -3.914367e+00 -3.917473e+00 -3.919147e+00 -3.922220e+00 -3.926356e+00 -3.929347e+00 -3.935923e+00 -3.938865e+00 -3.947742e+00 -3.950746e+00 -3.961643e+00 -3.964865e+00 -3.977338e+00 -3.980924e+00 -3.994359e+00 -3.998381e+00 -4.012041e+00 -4.016478e+00 -4.029616e+00 -4.034402e+00 -4.046437e+00 -4.051544e+00 -4.062187e+00 -4.067563e+00 -4.076715e+00 -4.081828e+00 -4.089087e+00 -4.092461e+00 -4.097163e+00 -4.097293e+00 -4.099078e+00 -4.095352e+00 -4.094309e+00 -4.087236e+00 -4.083842e+00 -4.074888e+00 -4.069574e+00 -4.060344e+00 -4.052994e+00 -4.044477e+00 -4.034997e+00 -4.027654e+00 -4.016360e+00 -4.010321e+00 -3.997867e+00 -3.993128e+00 -3.980248e+00 -3.976775e+00 -3.964090e+00 -3.961837e+00 -3.949796e+00 -3.948701e+00 -3.937615e+00 -3.937587e+00 -3.927691e+00 -3.928608e+00 -3.920115e+00 -3.921827e+00 -3.914956e+00 -3.917290e+00 -3.912262e+00 
-3.913131e+00 -3.909299e+00 -3.912697e+00 -3.911135e+00 -3.914551e+00 -3.915432e+00 -3.918703e+00 -3.922148e+00 -3.925172e+00 -3.931222e+00 -3.933970e+00 -3.942567e+00 -3.945079e+00 -3.956021e+00 -3.958372e+00 -3.971269e+00 -3.973513e+00 -3.987725e+00 -3.989822e+00 -4.004415e+00 -4.006188e+00 -4.019929e+00 -4.021072e+00 -4.032495e+00 -4.032650e+00 -4.040295e+00 -4.039206e+00 -4.042413e+00 -4.040136e+00 -4.040400e+00 -4.038098e+00 -4.038534e+00 -4.037580e+00 -4.040314e+00 -4.040792e+00 -4.045568e+00 -4.045947e+00 -4.050407e+00 -4.048640e+00 -4.050131e+00 -4.045914e+00 -4.043192e+00 -4.037834e+00 -4.030877e+00 -4.025544e+00 -4.015217e+00 -4.010486e+00 -3.998050e+00 -3.994161e+00 -3.980809e+00 -3.977893e+00 -3.964520e+00 -3.962661e+00 -3.949849e+00 -3.949082e+00 -3.937195e+00 -3.937492e+00 -3.926778e+00 -3.928048e+00 -3.918722e+00 -3.920821e+00 -3.913099e+00 -3.915842e+00 -3.909952e+00 
-3.910440e+00 -3.907113e+00 -3.910442e+00 -3.909468e+00 -3.912804e+00 -3.914379e+00 -3.917576e+00 -3.921829e+00 -3.924828e+00 -3.931787e+00 -3.934632e+00 -3.944189e+00 -3.947025e+00 -3.958893e+00 -3.961926e+00 -3.975600e+00 -3.979025e+00 -3.993765e+00 -3.997684e+00 -4.012569e+00 -4.016960e+00 -4.031067e+00 -4.035907e+00 -4.048608e+00 -4.054140e+00 -4.065407e+00 -4.072264e+00 -4.082625e+00 -4.090698e+00 -4.099519e+00 -4.105760e+00 -4.111341e+00 -4.112568e+00 -4.114118e+00 -4.109225e+00 -4.107037e+00 -4.097033e+00 -4.092501e+00 -4.080378e+00 -4.074784e+00 -4.063460e+00 -4.055989e+00 -4.046462e+00 -4.036404e+00 -4.028801e+00 -4.016469e+00 -4.010497e+00 -3.996824e+00 -3.992202e+00 -3.978179e+00 -3.974781e+00 -3.961149e+00 -3.958950e+00 -3.946162e+00 -3.945151e+00 -3.933464e+00 -3.933593e+00 -3.923180e+00 -3.924340e+00 -3.915373e+00 -3.917399e+00 -3.910077e+00 -3.912765e+00 -3.907318e+00 
-3.907514e+00 -3.903197e+00 -3.907058e+00 -3.905119e+00 -3.908926e+00 -3.909598e+00 -3.913157e+00 -3.916628e+00 -3.919827e+00 -3.926211e+00 -3.929034e+00 -3.938338e+00 -3.940866e+00 -3.952946e+00 -3.955314e+00 -3.969822e+00 -3.972151e+00 -3.988459e+00 -3.990771e+00 -4.007903e+00 -4.010053e+00 -4.026621e+00 -4.028267e+00 -4.042323e+00 -4.042916e+00 -4.051678e+00 -4.050601e+00 -4.051533e+00 -4.047818e+00 -4.043380e+00 -4.039437e+00 -4.036588e+00 -4.035746e+00 -4.038750e+00 -4.041417e+00 -4.049710e+00 -4.052792e+00 -4.061461e+00 -4.059858e+00 -4.063591e+00 -4.057135e+00 -4.054584e+00 -4.047091e+00 -4.038676e+00 -4.032160e+00 -4.019539e+00 -4.014262e+00 -3.999458e+00 -3.995257e+00 -3.979899e+00 -3.976736e+00 -3.961835e+00 -3.959799e+00 -3.945863e+00 -3.945043e+00 -3.932303e+00 -3.932707e+00 -3.921294e+00 -3.922830e+00 -3.912880e+00 -3.915372e+00 -3.907066e+00 -3.910280e+00 -3.903842e+00 
-3.903554e+00 -3.899636e+00 -3.903477e+00 -3.902056e+00 -3.905774e+00 -3.907137e+00 -3.910539e+00 -3.914910e+00 -3.917913e+00 -3.925412e+00 -3.928071e+00 -3.938653e+00 -3.941166e+00 -3.954549e+00 -3.957213e+00 -3.972807e+00 -3.975910e+00 -3.992768e+00 -3.996455e+00 -4.013315e+00 -4.017496e+00 -4.033031e+00 -4.037555e+00 -4.050904e+00 -4.056257e+00 -4.067759e+00 -4.076404e+00 -4.088878e+00 -4.103244e+00 -4.115632e+00 -4.128199e+00 -4.135658e+00 -4.139168e+00 -4.140125e+00 -4.132851e+00 -4.127842e+00 -4.111605e+00 -4.104389e+00 -4.085955e+00 -4.080743e+00 -4.066239e+00 -4.059314e+00 -4.048689e+00 -4.037813e+00 -4.030376e+00 -4.016208e+00 -4.010732e+00 -3.994973e+00 -3.990695e+00 -3.974850e+00 -3.971578e+00 -3.956546e+00 -3.954379e+00 -3.940546e+00 -3.939618e+00 -3.927103e+00 -3.927451e+00 -3.916312e+00 -3.917848e+00 -3.908184e+00 -3.910714e+00 -3.902702e+00 -3.905966e+00 -3.899854e+00 
-3.899637e+00 -3.894583e+00 -3.899155e+00 -3.896613e+00 -3.901012e+00 -3.901306e+00 -3.905290e+00 -3.908710e+00 -3.912140e+00 -3.918902e+00 -3.921779e+00 -3.931987e+00 -3.934443e+00 -3.948041e+00 -3.950305e+00 -3.967013e+00 -3.969319e+00 -3.988562e+00 -3.991047e+00 -4.011890e+00 -4.014532e+00 -4.035668e+00 -4.038198e+00 -4.057572e+00 -4.059196e+00 -4.071695e+00 -4.071706e+00 -4.068126e+00 -4.060833e+00 -4.045112e+00 -4.036635e+00 -4.026582e+00 -4.025603e+00 -4.029335e+00 -4.036954e+00 -4.053254e+00 -4.063727e+00 -4.081676e+00 -4.080256e+00 -4.087507e+00 -4.074986e+00 -4.072178e+00 -4.060624e+00 -4.049187e+00 -4.041390e+00 -4.024620e+00 -4.019138e+00 -4.000489e+00 -3.996134e+00 -3.977846e+00 -3.974388e+00 -3.957457e+00 -3.955134e+00 -3.939805e+00 -3.938876e+00 -3.925100e+00 -3.925656e+00 -3.913366e+00 -3.915311e+00 -3.904532e+00 -3.907633e+00 -3.898506e+00 -3.902446e+00 -3.895206e+00 
-3.894413e+00 -3.889600e+00 -3.894220e+00 -3.892078e+00 -3.896384e+00 -3.897330e+00 -3.901048e+00 -3.905457e+00 -3.908454e+00 -3.916593e+00 -3.918925e+00 -3.930866e+00 -3.932806e+00 -3.948313e+00 -3.950305e+00 -3.968704e+00 -3.971226e+00 -3.991281e+00 -3.994581e+00 -4.014457e+00 -4.018273e+00 -4.035810e+00 -4.039301e+00 -4.052825e+00 -4.055516e+00 -4.064601e+00 -4.072819e+00 -4.088791e+00 -4.117263e+00 -4.138385e+00 -4.164877e+00 -4.176056e+00 -4.183719e+00 -4.183491e+00 -4.171772e+00 -4.159861e+00 -4.130260e+00 -4.115923e+00 -4.084819e+00 -4.083575e+00 -4.065883e+00 -4.061706e+00 -4.050786e+00 -4.038541e+00 -4.032713e+00 -4.015223e+00 -4.011231e+00 -3.992082e+00 -3.988495e+00 -3.970044e+00 -3.966860e+00 -3.950064e+00 -3.947786e+00 -3.932754e+00 -3.931826e+00 -3.918378e+00 -3.918984e+00 -3.906975e+00 -3.909042e+00 -3.898475e+00 -3.901750e+00 -3.892788e+00 -3.896912e+00 -3.889840e+00 
-3.889545e+00 -3.883429e+00 -3.889030e+00 -3.885574e+00 -3.890824e+00 -3.890478e+00 -3.895053e+00 -3.898246e+00 -3.901960e+00 -3.909052e+00 -3.911906e+00 -3.923128e+00 -3.925325e+00 -3.940729e+00 -3.942629e+00 -3.962025e+00 -3.964018e+00 -3.986898e+00 -3.989283e+00 -4.014791e+00 -4.017821e+00 -4.045238e+00 -4.049176e+00 -4.078777e+00 -4.082073e+00 -4.107601e+00 -4.114378e+00 -4.102474e+00 -4.085554e+00 -4.041171e+00 -4.020272e+00 -3.995513e+00 -3.993654e+00 -3.999115e+00 -4.016761e+00 -4.051235e+00 -4.083300e+00 -4.122957e+00 -4.121046e+00 -4.131255e+00 -4.100701e+00 -4.096131e+00 -4.077889e+00 -4.060256e+00 -4.052877e+00 -4.028769e+00 -4.024542e+00 -4.000054e+00 -3.995956e+00 -3.973885e+00 -3.969968e+00 -3.950801e+00 -3.947927e+00 -3.931226e+00 -3.930052e+00 -3.915260e+00 -3.916011e+00 -3.902775e+00 -3.905322e+00 -3.893545e+00 -3.897545e+00 -3.887347e+00 -3.892353e+00 -3.884009e+00 
-3.883117e+00 -3.877003e+00 -3.882766e+00 -3.879501e+00 -3.884684e+00 -3.884868e+00 -3.889069e+00 -3.893293e+00 -3.896279e+00 -3.905042e+00 -3.906836e+00 -3.920423e+00 -3.921382e+00 -3.939689e+00 -3.940497e+00 -3.962822e+00 -3.964321e+00 -3.989106e+00 -3.991886e+00 -4.016450e+00 -4.020206e+00 -4.040878e+00 -4.043344e+00 -4.057009e+00 -4.050550e+00 -4.046184e+00 -4.039716e+00 -4.061627e+00 -4.126738e+00 -4.171887e+00 -4.229673e+00 -4.246396e+00 -4.258998e+00 -4.257728e+00 -4.239656e+00 -4.211121e+00 -4.151428e+00 -4.114572e+00 -4.055496e+00 -4.074007e+00 -4.059796e+00 -4.063366e+00 -4.054121e+00 -4.037870e+00 -4.037281e+00 -4.013283e+00 -4.012573e+00 -3.988019e+00 -3.985358e+00 -3.963533e+00 -3.960030e+00 -3.941414e+00 -3.938583e+00 -3.922508e+00 -3.921352e+00 -3.907068e+00 -3.907950e+00 -3.895021e+00 -3.897831e+00 -3.886169e+00 -3.890519e+00 -3.880305e+00 -3.885679e+00 -3.877274e+00 
-3.877356e+00 -3.869753e+00 -3.876803e+00 -3.871998e+00 -3.878442e+00 -3.877056e+00 -3.882442e+00 -3.885097e+00 -3.889147e+00 -3.896395e+00 -3.899085e+00 -3.911320e+00 -3.912939e+00 -3.930331e+00 -3.931426e+00 -3.953872e+00 -3.955013e+00 -3.982006e+00 -3.983532e+00 -4.013802e+00 -4.016302e+00 -4.049132e+00 -4.055580e+00 -4.101144e+00 -4.102188e+00 -4.174752e+00 -4.215682e+00 -4.190537e+00 -4.143185e+00 -4.018330e+00 -3.964359e+00 -3.915687e+00 -3.913170e+00 -3.920851e+00 -3.951565e+00 -4.025556e+00 -4.126870e+00 -4.225136e+00 -4.218826e+00 -4.217081e+00 -4.127448e+00 -4.118631e+00 -4.095333e+00 -4.065023e+00 -4.066137e+00 -4.029126e+00 -4.029620e+00 -3.996934e+00 -3.993318e+00 -3.967200e+00 -3.962076e+00 -3.941174e+00 -3.937102e+00 -3.919561e+00 -3.917877e+00 -3.902374e+00 -3.903397e+00 -3.889264e+00 -3.892713e+00 -3.879787e+00 -3.885104e+00 -3.873545e+00 -3.880081e+00 -3.870255e+00 
-3.869852e+00 -3.861884e+00 -3.869296e+00 -3.864325e+00 -3.870805e+00 -3.869666e+00 -3.874617e+00 -3.878203e+00 -3.881205e+00 -3.890369e+00 -3.891332e+00 -3.906719e+00 -3.906053e+00 -3.927852e+00 -3.926578e+00 -3.954213e+00 -3.953813e+00 -3.985528e+00 -3.987431e+00 -4.019498e+00 -4.024534e+00 -4.050701e+00 -4.058934e+00 -4.082096e+00 -4.057134e+00 -3.995542e+00 -3.905500e+00 -3.939849e+00 -4.120497e+00 -4.240267e+00 -4.368738e+00 -4.381683e+00 -4.385336e+00 -4.391343e+00 -4.376012e+00 -4.310220e+00 -4.178425e+00 -4.058023e+00 -3.925106e+00 -4.031676e+00 -4.061345e+00 -4.076664e+00 -4.065721e+00 -4.033530e+00 -4.047299e+00 -4.010488e+00 -4.015507e+00 -3.982905e+00 -3.980426e+00 -3.955030e+00 -3.949830e+00 -3.930134e+00 -3.925761e+00 -3.909368e+00 -3.907578e+00 -3.892842e+00 -3.894060e+00 -3.880252e+00 -3.884148e+00 -3.871181e+00 -3.877093e+00 -3.865251e+00 -3.872417e+00 -3.862196e+00 
-3.863281e+00 -3.853625e+00 -3.862682e+00 -3.855923e+00 -3.864024e+00 -3.861006e+00 -3.867513e+00 -3.869125e+00 -3.873583e+00 -3.880651e+00 -3.882949e+00 -3.896083e+00 -3.896619e+00 -3.916092e+00 -3.915750e+00 -3.941554e+00 -3.941159e+00 -3.972910e+00 -3.972130e+00 -4.006779e+00 -4.004748e+00 -4.032508e+00 -4.050203e+00 -4.095948e+00 -4.051564e+00 -4.300180e+00 -4.509323e+00 -4.472583e+00 -4.250829e+00 -3.556653e+00 -2.795004e+00 -2.169754e+00 -1.912191e+00 -2.072273e+00 -2.604719e+00 -3.390985e+00 -4.151925e+00 -4.533501e+00 -4.511716e+00 -4.396875e+00 -4.096001e+00 -4.093966e+00 -4.107169e+00 -4.049111e+00 -4.083568e+00 -4.023794e+00 -4.033225e+00 -3.990946e+00 -3.985653e+00 -3.957179e+00 -3.948446e+00 -3.927736e+00 -3.921145e+00 -3.904062e+00 -3.901507e+00 -3.885911e+00 -3.887435e+00 -3.872529e+00 -3.877399e+00 -3.863133e+00 -3.870393e+00 -3.857098e+00 -3.865802e+00 -3.854002e+00 
-3.854904e+00 -3.844345e+00 -3.854095e+00 -3.846593e+00 -3.854977e+00 -3.851649e+00 -3.857790e+00 -3.859925e+00 -3.863077e+00 -3.872050e+00 -3.871826e+00 -3.888873e+00 -3.885608e+00 -3.911466e+00 -3.906576e+00 -3.941072e+00 -3.936979e+00 -3.978630e+00 -3.977834e+00 -4.022413e+00 -4.027865e+00 -4.057994e+00 -4.108118e+00 -4.218610e+00 -4.197300e+00 -3.724556e+00 -1.833384e+00 1.040213e+00 3.780657e+00 6.231731e+00 8.090959e+00 9.179291e+00 9.583048e+00 9.356629e+00 8.419460e+00 6.792756e+00 4.435802e+00 1.693241e+00 -1.286474e+00 -3.550821e+00 -4.137796e+00 -4.178577e+00 -4.098286e+00 -4.006182e+00 -4.066065e+00 -4.009425e+00 -4.019905e+00 -3.977468e+00 -3.970971e+00 -3.943911e+00 -3.933651e+00 -3.915333e+00 -3.907672e+00 -3.892574e+00 -3.889686e+00 -3.875180e+00 -3.877016e+00 -3.862381e+00 -3.867990e+00 -3.853412e+00 -3.861630e+00 -3.847657e+00 -3.857371e+00 -3.844701e+00 
-3.847635e+00 -3.835176e+00 -3.846971e+00 -3.837421e+00 -3.847822e+00 -3.842299e+00 -3.850392e+00 -3.850163e+00 -3.855166e+00 -3.861491e+00 -3.863040e+00 -3.876848e+00 -3.875461e+00 -3.897032e+00 -3.894400e+00 -3.923751e+00 -3.921775e+00 -3.960461e+00 -3.957021e+00 -4.004295e+00 -3.976631e+00 -3.978997e+00 -4.083685e+00 -3.721607e+00 -1.395907e+00 3.175511e+00 7.593939e+00 1.076232e+01 1.280238e+01 1.361180e+01 1.399274e+01 1.405457e+01 1.407838e+01 1.408891e+01 1.400176e+01 1.382176e+01 1.311642e+01 1.146659e+01 8.326429e+00 4.331654e+00 4.882945e-02 -3.356446e+00 -4.109764e+00 -4.011859e+00 -4.121500e+00 -4.022521e+00 -4.031734e+00 -3.985081e+00 -3.967536e+00 -3.943161e+00 -3.925437e+00 -3.909090e+00 -3.898088e+00 -3.883566e+00 -3.880058e+00 -3.865131e+00 -3.867852e+00 -3.852198e+00 -3.859420e+00 -3.843479e+00 -3.853615e+00 -3.838061e+00 -3.849800e+00 -3.835382e+00 
-3.838652e+00 -3.824560e+00 -3.837557e+00 -3.826406e+00 -3.837565e+00 -3.830760e+00 -3.838833e+00 -3.838154e+00 -3.841845e+00 -3.849412e+00 -3.847680e+00 -3.865683e+00 -3.858441e+00 -3.888558e+00 -3.877651e+00 -3.920384e+00 -3.909841e+00 -3.964888e+00 -3.957476e+00 -4.031466e+00 -4.001817e+00 -3.910949e+00 -2.231619e+00 2.272947e+00 7.389139e+00 1.152301e+01 1.343957e+01 1.367553e+01 1.374049e+01 1.350232e+01 1.340504e+01 1.332496e+01 1.331134e+01 1.333244e+01 1.336925e+01 1.351342e+01 1.367818e+01 1.378170e+01 1.352041e+01 1.236021e+01 8.694170e+00 3.278955e+00 -1.419043e+00 -3.800137e+00 -4.090271e+00 -4.039050e+00 -4.024331e+00 -3.972729e+00 -3.949853e+00 -3.928111e+00 -3.906608e+00 -3.895172e+00 -3.882029e+00 -3.870817e+00 -3.866839e+00 -3.853266e+00 -3.856648e+00 -3.841002e+00 -3.849480e+00 -3.832756e+00 -3.844392e+00 -3.827602e+00 -3.840879e+00 -3.824960e+00 
-3.830825e+00 -3.814614e+00 -3.830076e+00 -3.816605e+00 -3.830197e+00 -3.820888e+00 -3.831319e+00 -3.827975e+00 -3.833849e+00 -3.838492e+00 -3.838745e+00 -3.852960e+00 -3.847971e+00 -3.871683e+00 -3.864962e+00 -3.896361e+00 -3.894929e+00 -3.940786e+00 -3.956445e+00 -4.067435e+00 -3.773388e+00 -1.230299e+00 4.574888e+00 1.035187e+01 1.294684e+01 1.339632e+01 1.329023e+01 1.317115e+01 1.333171e+01 1.347058e+01 1.362809e+01 1.369242e+01 1.372663e+01 1.371772e+01 1.365031e+01 1.354954e+01 1.339055e+01 1.323654e+01 1.330946e+01 1.345619e+01 1.317033e+01 1.137750e+01 6.510353e+00 1.743245e-01 -3.532242e+00 -4.065505e+00 -4.002961e+00 -3.983134e+00 -3.927494e+00 -3.921598e+00 -3.888055e+00 -3.882177e+00 -3.865928e+00 -3.856165e+00 -3.852937e+00 -3.839020e+00 -3.844668e+00 -3.827862e+00 -3.839043e+00 -3.820783e+00 -3.835127e+00 -3.816589e+00 -3.832468e+00 -3.814621e+00 
-3.821566e+00 -3.802821e+00 -3.820196e+00 -3.803967e+00 -3.819116e+00 -3.807014e+00 -3.818260e+00 -3.812595e+00 -3.817781e+00 -3.821697e+00 -3.818451e+00 -3.835704e+00 -3.822615e+00 -3.856588e+00 -3.835852e+00 -3.887514e+00 -3.868386e+00 -3.930624e+00 -3.942015e+00 -3.764952e+00 -5.855520e-01 6.338030e+00 1.174888e+01 1.326799e+01 1.320496e+01 1.323643e+01 1.337924e+01 1.340421e+01 1.346025e+01 1.339972e+01 1.339141e+01 1.335880e+01 1.335687e+01 1.336418e+01 1.337933e+01 1.341576e+01 1.344952e+01 1.344324e+01 1.341174e+01 1.326044e+01 1.328735e+01 1.338612e+01 1.245821e+01 7.717953e+00 5.893681e-01 -3.310750e+00 -4.042348e+00 -3.946856e+00 -3.898071e+00 -3.901019e+00 -3.861084e+00 -3.866445e+00 -3.846861e+00 -3.842117e+00 -3.838832e+00 -3.825980e+00 -3.833212e+00 -3.815637e+00 -3.828982e+00 -3.809159e+00 -3.825776e+00 -3.805274e+00 -3.823369e+00 -3.803263e+00 
-3.813362e+00 -3.792279e+00 -3.812520e+00 -3.793664e+00 -3.811692e+00 -3.796722e+00 -3.810793e+00 -3.802215e+00 -3.809876e+00 -3.811137e+00 -3.809529e+00 -3.824167e+00 -3.811966e+00 -3.839778e+00 -3.822269e+00 -3.849828e+00 -3.839176e+00 -3.844221e+00 -3.678031e+00 -1.012904e+00 6.130155e+00 1.197250e+01 1.329663e+01 1.326737e+01 1.330361e+01 1.331053e+01 1.331240e+01 1.329958e+01 1.336230e+01 1.341220e+01 1.347937e+01 1.351537e+01 1.353215e+01 1.352802e+01 1.349067e+01 1.344494e+01 1.337989e+01 1.332831e+01 1.331168e+01 1.332433e+01 1.327333e+01 1.323891e+01 1.316345e+01 1.245020e+01 8.117816e+00 7.512367e-01 -3.542388e+00 -3.952343e+00 -3.851918e+00 -3.878429e+00 -3.833247e+00 -3.841516e+00 -3.824027e+00 -3.819345e+00 -3.820545e+00 -3.806512e+00 -3.818532e+00 -3.799270e+00 -3.816881e+00 -3.795219e+00 -3.815477e+00 -3.793042e+00 -3.814319e+00 -3.792120e+00 
-3.804214e+00 -3.779644e+00 -3.802676e+00 -3.779696e+00 -3.800450e+00 -3.780636e+00 -3.797087e+00 -3.783141e+00 -3.791987e+00 -3.788316e+00 -3.784696e+00 -3.797721e+00 -3.776382e+00 -3.813428e+00 -3.773752e+00 -3.842679e+00 -3.788814e+00 -3.913308e+00 -1.644060e+00 5.396664e+00 1.171552e+01 1.314288e+01 1.318244e+01 1.325241e+01 1.322781e+01 1.326724e+01 1.330392e+01 1.332761e+01 1.335283e+01 1.334883e+01 1.335188e+01 1.334863e+01 1.334602e+01 1.335282e+01 1.335114e+01 1.336157e+01 1.335840e+01 1.334961e+01 1.332758e+01 1.328912e+01 1.326523e+01 1.327423e+01 1.320050e+01 1.317535e+01 1.263804e+01 7.273930e+00 -8.364002e-01 -3.806338e+00 -3.732359e+00 -3.863559e+00 -3.792166e+00 -3.826720e+00 -3.804326e+00 -3.804166e+00 -3.807400e+00 -3.792093e+00 -3.807759e+00 -3.785967e+00 -3.807186e+00 -3.782824e+00 -3.806336e+00 -3.781117e+00 -3.805370e+00 -3.780138e+00 
-3.795878e+00 -3.768789e+00 -3.795003e+00 -3.769020e+00 -3.793150e+00 -3.769865e+00 -3.789873e+00 -3.772394e+00 -3.784423e+00 -3.778511e+00 -3.775986e+00 -3.791158e+00 -3.766121e+00 -3.811769e+00 -3.771583e+00 -3.819335e+00 -3.884637e+00 -3.369969e+00 2.694988e+00 1.062948e+01 1.319162e+01 1.315132e+01 1.325360e+01 1.323849e+01 1.327569e+01 1.328755e+01 1.330315e+01 1.332022e+01 1.334625e+01 1.337889e+01 1.340263e+01 1.342858e+01 1.342930e+01 1.343433e+01 1.340843e+01 1.339267e+01 1.335377e+01 1.333175e+01 1.330331e+01 1.328792e+01 1.326311e+01 1.321785e+01 1.322756e+01 1.311127e+01 1.325823e+01 1.176067e+01 5.165972e+00 -1.754420e+00 -3.862866e+00 -3.798600e+00 -3.767816e+00 -3.784838e+00 -3.774685e+00 -3.771666e+00 -3.785263e+00 -3.767241e+00 -3.791116e+00 -3.766801e+00 -3.794014e+00 -3.767480e+00 -3.795437e+00 -3.768182e+00 -3.796003e+00 -3.768603e+00 
-3.787286e+00 -3.755926e+00 -3.785834e+00 -3.754425e+00 -3.782724e+00 -3.752307e+00 -3.777088e+00 -3.750170e+00 -3.767226e+00 -3.749248e+00 -3.750084e+00 -3.751513e+00 -3.722121e+00 -3.754801e+00 -3.691746e+00 -3.708806e+00 -3.683606e+00 1.430578e-01 8.533359e+00 1.280620e+01 1.311139e+01 1.315157e+01 1.316792e+01 1.321675e+01 1.321467e+01 1.325765e+01 1.326423e+01 1.329744e+01 1.330097e+01 1.332113e+01 1.331629e+01 1.333104e+01 1.332090e+01 1.333460e+01 1.332112e+01 1.333192e+01 1.331362e+01 1.331561e+01 1.328807e+01 1.328266e+01 1.324746e+01 1.325569e+01 1.320380e+01 1.323347e+01 1.316195e+01 1.326159e+01 1.047257e+01 1.704357e+00 -3.840999e+00 -3.805817e+00 -3.770258e+00 -3.771366e+00 -3.768802e+00 -3.753789e+00 -3.776876e+00 -3.750706e+00 -3.782040e+00 -3.752378e+00 -3.785034e+00 -3.754606e+00 -3.786764e+00 -3.756089e+00 -3.787524e+00 -3.756526e+00 
-3.779162e+00 -3.745232e+00 -3.778425e+00 -3.743597e+00 -3.775783e+00 -3.740842e+00 -3.770452e+00 -3.737947e+00 -3.760578e+00 -3.737571e+00 -3.741601e+00 -3.747828e+00 -3.701653e+00 -3.794368e+00 -3.607604e+00 -3.960377e+00 -2.864060e+00 4.285158e+00 1.209935e+01 1.326010e+01 1.305545e+01 1.320741e+01 1.318326e+01 1.324223e+01 1.324073e+01 1.328251e+01 1.328126e+01 1.331791e+01 1.331915e+01 1.335454e+01 1.335306e+01 1.338090e+01 1.336847e+01 1.338345e+01 1.335785e+01 1.336045e+01 1.332692e+01 1.332267e+01 1.328930e+01 1.328156e+01 1.324987e+01 1.323187e+01 1.320646e+01 1.318555e+01 1.314831e+01 1.320019e+01 1.257456e+01 6.485929e+00 -1.469402e+00 -3.859256e+00 -3.599263e+00 -3.725923e+00 -3.719506e+00 -3.713171e+00 -3.752786e+00 -3.722229e+00 -3.765304e+00 -3.732113e+00 -3.771884e+00 -3.739179e+00 -3.775944e+00 -3.743409e+00 -3.778311e+00 -3.745287e+00 
-3.771608e+00 -3.733105e+00 -3.770628e+00 -3.729609e+00 -3.767276e+00 -3.723477e+00 -3.760605e+00 -3.714847e+00 -3.748289e+00 -3.705094e+00 -3.723973e+00 -3.702075e+00 -3.666985e+00 -3.743865e+00 -3.496708e+00 -4.006625e+00 -2.165748e-01 8.381400e+00 1.308191e+01 1.299694e+01 1.313441e+01 1.312964e+01 1.315897e+01 1.320356e+01 1.319830e+01 1.324968e+01 1.323788e+01 1.328277e+01 1.326867e+01 1.330373e+01 1.328672e+01 1.331438e+01 1.329453e+01 1.331729e+01 1.329428e+01 1.331251e+01 1.328494e+01 1.329753e+01 1.326380e+01 1.327065e+01 1.323296e+01 1.323214e+01 1.320240e+01 1.316327e+01 1.319936e+01 1.298489e+01 1.332327e+01 1.074848e+01 1.894376e+00 -3.783657e+00 -3.601004e+00 -3.696161e+00 -3.720891e+00 -3.686345e+00 -3.747139e+00 -3.702570e+00 -3.757031e+00 -3.717021e+00 -3.763353e+00 -3.726558e+00 -3.767846e+00 -3.731916e+00 -3.770624e+00 -3.733937e+00 
-3.764149e+00 -3.723328e+00 -3.763811e+00 -3.719200e+00 -3.760922e+00 -3.711477e+00 -3.754910e+00 -3.699815e+00 -3.744422e+00 -3.684026e+00 -3.726049e+00 -3.666090e+00 -3.688627e+00 -3.658629e+00 -3.582383e+00 -3.616582e+00 3.487425e+00 1.170094e+01 1.338489e+01 1.301548e+01 1.317725e+01 1.317378e+01 1.318371e+01 1.324016e+01 1.322240e+01 1.328147e+01 1.326050e+01 1.331220e+01 1.329315e+01 1.333685e+01 1.331762e+01 1.335217e+01 1.332858e+01 1.335323e+01 1.332316e+01 1.333929e+01 1.330362e+01 1.331432e+01 1.327497e+01 1.328234e+01 1.323997e+01 1.324276e+01 1.320134e+01 1.319460e+01 1.317416e+01 1.311792e+01 1.323469e+01 1.256698e+01 5.530710e+00 -2.721621e+00 -3.811113e+00 -3.548186e+00 -3.749272e+00 -3.630644e+00 -3.739129e+00 -3.674393e+00 -3.744003e+00 -3.699033e+00 -3.751509e+00 -3.713181e+00 -3.757880e+00 -3.720863e+00 -3.762152e+00 -3.723968e+00 
-3.758152e+00 -3.713159e+00 -3.757988e+00 -3.707469e+00 -3.755097e+00 -3.696766e+00 -3.749210e+00 -3.679526e+00 -3.740054e+00 -3.652195e+00 -3.728702e+00 -3.605465e+00 -3.723816e+00 -3.507931e+00 -3.766087e+00 -2.435531e+00 6.931703e+00 1.288223e+01 1.307679e+01 1.310162e+01 1.309843e+01 1.317075e+01 1.313882e+01 1.321912e+01 1.318098e+01 1.325303e+01 1.321773e+01 1.327717e+01 1.324561e+01 1.329301e+01 1.326351e+01 1.330160e+01 1.327222e+01 1.330374e+01 1.327253e+01 1.329937e+01 1.326411e+01 1.328758e+01 1.324577e+01 1.326761e+01 1.321690e+01 1.324007e+01 1.317717e+01 1.320933e+01 1.312129e+01 1.320862e+01 1.300864e+01 1.342392e+01 8.975989e+00 -9.369858e-01 -3.948188e+00 -3.432451e+00 -3.765675e+00 -3.590533e+00 -3.732260e+00 -3.654328e+00 -3.734316e+00 -3.685484e+00 -3.742847e+00 -3.702279e+00 -3.750501e+00 -3.711089e+00 -3.755667e+00 -3.714403e+00 
-3.751924e+00 -3.705325e+00 -3.752140e+00 -3.698641e+00 -3.749329e+00 -3.685864e+00 -3.743470e+00 -3.664854e+00 -3.735061e+00 -3.630751e+00 -3.728122e+00 -3.571323e+00 -3.743270e+00 -3.449257e+00 -3.872660e+00 -1.227534e+00 9.407647e+00 1.351688e+01 1.301389e+01 1.326169e+01 1.310104e+01 1.324390e+01 1.315632e+01 1.326484e+01 1.320351e+01 1.328885e+01 1.324223e+01 1.330957e+01 1.327223e+01 1.332568e+01 1.329285e+01 1.333503e+01 1.330232e+01 1.333530e+01 1.329969e+01 1.332614e+01 1.328604e+01 1.330942e+01 1.326327e+01 1.328761e+01 1.323182e+01 1.326369e+01 1.318981e+01 1.324819e+01 1.312970e+01 1.328045e+01 1.300787e+01 1.350887e+01 1.109116e+01 1.113379e+00 -3.866784e+00 -3.452979e+00 -3.727354e+00 -3.584307e+00 -3.709239e+00 -3.643960e+00 -3.718918e+00 -3.675527e+00 -3.731761e+00 -3.693421e+00 -3.741950e+00 -3.703096e+00 -3.748608e+00 -3.706793e+00 
-3.748033e+00 -3.698318e+00 -3.748708e+00 -3.690830e+00 -3.746289e+00 -3.676645e+00 -3.740916e+00 -3.653560e+00 -3.733081e+00 -3.617106e+00 -3.725833e+00 -3.558183e+00 -3.733735e+00 -3.457281e+00 -3.816436e+00 -3.877610e-02 1.078039e+01 1.352668e+01 1.297532e+01 1.329890e+01 1.306223e+01 1.324948e+01 1.312111e+01 1.325089e+01 1.316740e+01 1.326386e+01 1.320347e+01 1.327718e+01 1.323002e+01 1.328749e+01 1.324756e+01 1.329362e+01 1.325662e+01 1.329501e+01 1.325754e+01 1.329138e+01 1.325037e+01 1.328258e+01 1.323463e+01 1.326885e+01 1.320936e+01 1.325219e+01 1.317289e+01 1.324157e+01 1.312113e+01 1.326870e+01 1.303772e+01 1.341228e+01 1.249908e+01 2.935778e+00 -3.712059e+00 -3.506337e+00 -3.665707e+00 -3.588267e+00 -3.680960e+00 -3.637543e+00 -3.704138e+00 -3.667689e+00 -3.722915e+00 -3.686010e+00 -3.735905e+00 -3.696202e+00 -3.743967e+00 -3.700070e+00 
-3.743744e+00 -3.693469e+00 -3.744393e+00 -3.684950e+00 -3.741434e+00 -3.668844e+00 -3.734673e+00 -3.642587e+00 -3.723495e+00 -3.601708e+00 -3.707053e+00 -3.539378e+00 -3.685214e+00 -3.448204e+00 -3.659032e+00 1.327447e+00 1.195407e+01 1.344844e+01 1.299425e+01 1.333221e+01 1.307661e+01 1.329064e+01 1.314031e+01 1.328747e+01 1.319092e+01 1.329719e+01 1.322997e+01 1.330942e+01 1.325887e+01 1.331998e+01 1.327812e+01 1.332612e+01 1.328727e+01 1.332594e+01 1.328613e+01 1.331914e+01 1.327560e+01 1.330706e+01 1.325704e+01 1.329172e+01 1.323139e+01 1.327590e+01 1.319997e+01 1.326613e+01 1.316848e+01 1.327744e+01 1.315491e+01 1.332410e+01 1.311740e+01 4.276436e+00 -3.471538e+00 -3.584557e+00 -3.587294e+00 -3.610014e+00 -3.650386e+00 -3.640848e+00 -3.689812e+00 -3.665367e+00 -3.714593e+00 -3.682171e+00 -3.730062e+00 -3.692016e+00 -3.739235e+00 -3.695690e+00 
-3.742501e+00 -3.690405e+00 -3.743678e+00 -3.681950e+00 -3.741357e+00 -3.666100e+00 -3.735453e+00 -3.640906e+00 -3.724993e+00 -3.603694e+00 -3.706634e+00 -3.553052e+00 -3.668750e+00 -3.497529e+00 -3.567082e+00 2.074310e+00 1.252613e+01 1.342473e+01 1.302602e+01 1.333743e+01 1.306763e+01 1.328589e+01 1.311731e+01 1.327059e+01 1.316142e+01 1.327188e+01 1.319633e+01 1.327854e+01 1.322217e+01 1.328542e+01 1.323953e+01 1.328999e+01 1.324875e+01 1.329091e+01 1.325006e+01 1.328768e+01 1.324378e+01 1.328046e+01 1.323017e+01 1.326971e+01 1.320973e+01 1.325642e+01 1.318546e+01 1.324294e+01 1.317060e+01 1.322976e+01 1.320784e+01 1.317896e+01 1.339926e+01 5.322040e+00 -3.158271e+00 -3.629574e+00 -3.501835e+00 -3.618996e+00 -3.620318e+00 -3.639409e+00 -3.677758e+00 -3.661690e+00 -3.708983e+00 -3.678441e+00 -3.727017e+00 -3.688607e+00 -3.737347e+00 -3.692520e+00 
-3.740836e+00 -3.689332e+00 -3.741636e+00 -3.680160e+00 -3.738514e+00 -3.662958e+00 -3.730970e+00 -3.635269e+00 -3.717024e+00 -3.593696e+00 -3.690468e+00 -3.536200e+00 -3.630602e+00 -3.472613e+00 -3.463644e+00 2.387856e+00 1.264190e+01 1.334812e+01 1.302323e+01 1.333014e+01 1.307838e+01 1.330206e+01 1.313706e+01 1.329524e+01 1.318698e+01 1.330049e+01 1.322577e+01 1.330967e+01 1.325432e+01 1.331830e+01 1.327325e+01 1.332340e+01 1.328239e+01 1.332307e+01 1.328173e+01 1.331698e+01 1.327223e+01 1.330634e+01 1.325538e+01 1.329296e+01 1.323292e+01 1.327867e+01 1.320917e+01 1.326516e+01 1.319980e+01 1.324750e+01 1.325249e+01 1.316877e+01 1.347811e+01 5.661643e+00 -3.043438e+00 -3.658544e+00 -3.480186e+00 -3.630461e+00 -3.613958e+00 -3.643796e+00 -3.675114e+00 -3.663165e+00 -3.707238e+00 -3.678689e+00 -3.725485e+00 -3.688297e+00 -3.735823e+00 -3.691858e+00 