# vtk DataFile Version 2.0
Comment goes here
ASCII

DATASET STRUCTURED_POINTS
FIELD FieldData 1
TIME 1 1 double
1.84000000
DIMENSIONS    64   64   1

ORIGIN    0.000   0.000   0.000
SPACING   0.015625 0.015625   1.000

POINT_DATA   4096
SCALARS P double
LOOKUP_TABLE default

-3.862881e+00 -3.865408e+00 -3.862476e+00 -3.864818e+00 -3.860394e+00 -3.862446e+00 -3.856637e+00 -3.858273e+00 -3.851235e+00 -3.852318e+00 -3.844269e+00 -3.844660e+00 -3.835893e+00 -3.835464e+00 -3.826344e+00 -3.824981e+00 -3.815915e+00 -3.813528e+00 -3.804920e+00 -3.801467e+00 -3.793671e+00 -3.789199e+00 -3.782485e+00 -3.777187e+00 -3.771724e+00 -3.765970e+00 -3.761837e+00 -3.756150e+00 -3.753404e+00 -3.748391e+00 -3.747239e+00 -3.743503e+00 -3.744294e+00 -3.742155e+00 -3.745082e+00 -3.744340e+00 -3.749263e+00 -3.749419e+00 -3.756048e+00 -3.756720e+00 -3.764780e+00 -3.765797e+00 -3.774961e+00 -3.776247e+00 -3.786089e+00 -3.787623e+00 -3.797661e+00 -3.799456e+00 -3.809219e+00 -3.811283e+00 -3.820352e+00 -3.822662e+00 -3.830688e+00 -3.833187e+00 -3.839901e+00 -3.842524e+00 -3.847736e+00 -3.850421e+00 -3.854017e+00 -3.856720e+00 -3.858652e+00 -3.861339e+00 -3.861607e+00 -3.864241e+00 
-3.864141e+00 -3.866699e+00 -3.862669e+00 -3.865006e+00 -3.859298e+00 -3.861326e+00 -3.854014e+00 -3.855603e+00 -3.846798e+00 -3.847779e+00 -3.837658e+00 -3.837822e+00 -3.826649e+00 -3.825743e+00 -3.813877e+00 -3.811602e+00 -3.799479e+00 -3.795516e+00 -3.783603e+00 -3.777679e+00 -3.766420e+00 -3.758455e+00 -3.748233e+00 -3.738530e+00 -3.729698e+00 -3.719090e+00 -3.712075e+00 -3.701857e+00 -3.697239e+00 -3.688831e+00 -3.687214e+00 -3.681652e+00 -3.683501e+00 -3.681187e+00 -3.686695e+00 -3.687397e+00 -3.696367e+00 -3.699386e+00 -3.711175e+00 -3.715588e+00 -3.729223e+00 -3.734181e+00 -3.748631e+00 -3.753606e+00 -3.767953e+00 -3.772720e+00 -3.786258e+00 -3.790771e+00 -3.803020e+00 -3.807290e+00 -3.817953e+00 -3.821986e+00 -3.830886e+00 -3.834676e+00 -3.841712e+00 -3.845254e+00 -3.850381e+00 -3.853683e+00 -3.856898e+00 -3.859984e+00 -3.861314e+00 -3.864214e+00 -3.863704e+00 -3.866438e+00 
-3.863722e+00 -3.866288e+00 -3.863316e+00 -3.865710e+00 -3.861231e+00 -3.863349e+00 -3.857468e+00 -3.859183e+00 -3.852049e+00 -3.853221e+00 -3.845049e+00 -3.845533e+00 -3.836613e+00 -3.836269e+00 -3.826967e+00 -3.825662e+00 -3.816394e+00 -3.814017e+00 -3.805205e+00 -3.801693e+00 -3.793720e+00 -3.789114e+00 -3.782288e+00 -3.776800e+00 -3.771319e+00 -3.765360e+00 -3.761283e+00 -3.755406e+00 -3.752685e+00 -3.747500e+00 -3.746282e+00 -3.742460e+00 -3.743177e+00 -3.741107e+00 -3.744026e+00 -3.743423e+00 -3.748365e+00 -3.748590e+00 -3.755251e+00 -3.755926e+00 -3.764097e+00 -3.765125e+00 -3.774499e+00 -3.775811e+00 -3.785924e+00 -3.787487e+00 -3.797796e+00 -3.799614e+00 -3.809604e+00 -3.811685e+00 -3.820922e+00 -3.823244e+00 -3.831383e+00 -3.833891e+00 -3.840674e+00 -3.843301e+00 -3.848550e+00 -3.851241e+00 -3.854851e+00 -3.857565e+00 -3.859493e+00 -3.862198e+00 -3.862449e+00 -3.865111e+00 
-3.866055e+00 -3.868659e+00 -3.864571e+00 -3.866995e+00 -3.861215e+00 -3.863378e+00 -3.855966e+00 -3.857744e+00 -3.848793e+00 -3.850024e+00 -3.839688e+00 -3.840162e+00 -3.828688e+00 -3.828133e+00 -3.815872e+00 -3.813942e+00 -3.801348e+00 -3.797628e+00 -3.785211e+00 -3.779290e+00 -3.767554e+00 -3.759200e+00 -3.748564e+00 -3.738013e+00 -3.728794e+00 -3.717002e+00 -3.709582e+00 -3.698182e+00 -3.693226e+00 -3.684052e+00 -3.682200e+00 -3.676391e+00 -3.678096e+00 -3.675946e+00 -3.681488e+00 -3.682655e+00 -3.692003e+00 -3.695691e+00 -3.708237e+00 -3.713331e+00 -3.727889e+00 -3.733325e+00 -3.748693e+00 -3.753932e+00 -3.769053e+00 -3.773947e+00 -3.788040e+00 -3.792605e+00 -3.805192e+00 -3.809470e+00 -3.820301e+00 -3.824311e+00 -3.833268e+00 -3.837012e+00 -3.844041e+00 -3.847524e+00 -3.852614e+00 -3.855858e+00 -3.859024e+00 -3.862065e+00 -3.863343e+00 -3.866223e+00 -3.865661e+00 -3.868404e+00 
-3.866248e+00 -3.868930e+00 -3.865840e+00 -3.868389e+00 -3.863753e+00 -3.866069e+00 -3.859979e+00 -3.861933e+00 -3.854521e+00 -3.855967e+00 -3.847429e+00 -3.848203e+00 -3.838820e+00 -3.838744e+00 -3.828883e+00 -3.827768e+00 -3.817869e+00 -3.815531e+00 -3.806068e+00 -3.802374e+00 -3.793821e+00 -3.788785e+00 -3.781582e+00 -3.775477e+00 -3.769958e+00 -3.763348e+00 -3.759546e+00 -3.753097e+00 -3.750510e+00 -3.744748e+00 -3.743263e+00 -3.739121e+00 -3.739552e+00 -3.737771e+00 -3.740699e+00 -3.740639e+00 -3.745652e+00 -3.746079e+00 -3.752771e+00 -3.753389e+00 -3.761876e+00 -3.762932e+00 -3.772979e+00 -3.774390e+00 -3.785382e+00 -3.787047e+00 -3.798220e+00 -3.800117e+00 -3.810812e+00 -3.812951e+00 -3.822695e+00 -3.825056e+00 -3.833526e+00 -3.836057e+00 -3.843036e+00 -3.845678e+00 -3.851028e+00 -3.853733e+00 -3.857376e+00 -3.860116e+00 -3.862029e+00 -3.864783e+00 -3.864981e+00 -3.867723e+00 
-3.869858e+00 -3.872549e+00 -3.868356e+00 -3.870950e+00 -3.865044e+00 -3.867470e+00 -3.859881e+00 -3.862035e+00 -3.852814e+00 -3.854547e+00 -3.843800e+00 -3.844910e+00 -3.832835e+00 -3.833026e+00 -3.819952e+00 -3.818792e+00 -3.805196e+00 -3.802083e+00 -3.788577e+00 -3.782785e+00 -3.770036e+00 -3.760949e+00 -3.749491e+00 -3.737103e+00 -3.727139e+00 -3.712635e+00 -3.704321e+00 -3.690143e+00 -3.684484e+00 -3.673693e+00 -3.671412e+00 -3.665239e+00 -3.666585e+00 -3.664869e+00 -3.670294e+00 -3.672465e+00 -3.682522e+00 -3.687734e+00 -3.702012e+00 -3.708695e+00 -3.725283e+00 -3.731694e+00 -3.749053e+00 -3.754757e+00 -3.771517e+00 -3.776619e+00 -3.791841e+00 -3.796496e+00 -3.809730e+00 -3.814025e+00 -3.825146e+00 -3.829110e+00 -3.838136e+00 -3.841781e+00 -3.848766e+00 -3.852119e+00 -3.857115e+00 -3.860228e+00 -3.863284e+00 -3.866223e+00 -3.867391e+00 -3.870219e+00 -3.869552e+00 -3.872308e+00 
-3.870469e+00 -3.873340e+00 -3.870062e+00 -3.872872e+00 -3.867992e+00 -3.870642e+00 -3.864228e+00 -3.866593e+00 -3.858740e+00 -3.860665e+00 -3.851532e+00 -3.852825e+00 -3.842661e+00 -3.843085e+00 -3.832250e+00 -3.831512e+00 -3.820475e+00 -3.818246e+00 -3.807559e+00 -3.803550e+00 -3.793839e+00 -3.787977e+00 -3.779965e+00 -3.772640e+00 -3.767065e+00 -3.759235e+00 -3.756370e+00 -3.749049e+00 -3.746978e+00 -3.739989e+00 -3.737691e+00 -3.732686e+00 -3.732327e+00 -3.731404e+00 -3.734558e+00 -3.736011e+00 -3.741226e+00 -3.741907e+00 -3.748328e+00 -3.748500e+00 -3.757453e+00 -3.758586e+00 -3.769937e+00 -3.771607e+00 -3.784334e+00 -3.786227e+00 -3.799028e+00 -3.801091e+00 -3.813034e+00 -3.815290e+00 -3.825873e+00 -3.828311e+00 -3.837295e+00 -3.839866e+00 -3.847132e+00 -3.849787e+00 -3.855271e+00 -3.857984e+00 -3.861658e+00 -3.864426e+00 -3.866297e+00 -3.869119e+00 -3.869220e+00 -3.872086e+00 
-3.875502e+00 -3.878312e+00 -3.873986e+00 -3.876824e+00 -3.870769e+00 -3.873580e+00 -3.865782e+00 -3.868486e+00 -3.858926e+00 -3.861410e+00 -3.850102e+00 -3.852194e+00 -3.839240e+00 -3.840643e+00 -3.826297e+00 -3.826493e+00 -3.811235e+00 -3.809363e+00 -3.793969e+00 -3.788766e+00 -3.774284e+00 -3.764309e+00 -3.751672e+00 -3.736182e+00 -3.725295e+00 -3.705721e+00 -3.695671e+00 -3.675892e+00 -3.669111e+00 -3.655794e+00 -3.653157e+00 -3.647019e+00 -3.647651e+00 -3.646856e+00 -3.651381e+00 -3.655092e+00 -3.665962e+00 -3.674001e+00 -3.691734e+00 -3.701621e+00 -3.721718e+00 -3.729530e+00 -3.750294e+00 -3.756446e+00 -3.775908e+00 -3.781207e+00 -3.798148e+00 -3.802930e+00 -3.817028e+00 -3.821369e+00 -3.832786e+00 -3.836685e+00 -3.845701e+00 -3.849177e+00 -3.856016e+00 -3.859140e+00 -3.863946e+00 -3.866826e+00 -3.869690e+00 -3.872444e+00 -3.873433e+00 -3.876160e+00 -3.875334e+00 -3.878094e+00 
-3.876395e+00 -3.879524e+00 -3.876003e+00 -3.879176e+00 -3.873996e+00 -3.877122e+00 -3.870309e+00 -3.873270e+00 -3.864859e+00 -3.867498e+00 -3.857571e+00 -3.859670e+00 -3.848409e+00 -3.849651e+00 -3.837380e+00 -3.837316e+00 -3.824516e+00 -3.822566e+00 -3.809857e+00 -3.805414e+00 -3.793600e+00 -3.786329e+00 -3.776581e+00 -3.766989e+00 -3.761060e+00 -3.751081e+00 -3.751216e+00 -3.743407e+00 -3.743131e+00 -3.733558e+00 -3.728638e+00 -3.720964e+00 -3.718379e+00 -3.719924e+00 -3.724486e+00 -3.730257e+00 -3.736243e+00 -3.736697e+00 -3.741378e+00 -3.739538e+00 -3.749044e+00 -3.750666e+00 -3.764396e+00 -3.766734e+00 -3.782637e+00 -3.784983e+00 -3.800513e+00 -3.802871e+00 -3.816679e+00 -3.819145e+00 -3.830845e+00 -3.833415e+00 -3.843012e+00 -3.845634e+00 -3.853206e+00 -3.855851e+00 -3.861452e+00 -3.864138e+00 -3.867805e+00 -3.870576e+00 -3.872352e+00 -3.875244e+00 -3.875190e+00 -3.878213e+00 
-3.882906e+00 -3.885860e+00 -3.881400e+00 -3.884544e+00 -3.878370e+00 -3.881663e+00 -3.873701e+00 -3.877100e+00 -3.867228e+00 -3.870683e+00 -3.858767e+00 -3.862183e+00 -3.848140e+00 -3.851290e+00 -3.835185e+00 -3.837544e+00 -3.819748e+00 -3.820222e+00 -3.801678e+00 -3.798251e+00 -3.780806e+00 -3.770417e+00 -3.756416e+00 -3.736235e+00 -3.725224e+00 -3.696753e+00 -3.682679e+00 -3.650888e+00 -3.642469e+00 -3.626256e+00 -3.624559e+00 -3.620640e+00 -3.620109e+00 -3.620962e+00 -3.621796e+00 -3.626826e+00 -3.637654e+00 -3.650738e+00 -3.676278e+00 -3.693235e+00 -3.718546e+00 -3.727359e+00 -3.753585e+00 -3.759523e+00 -3.783098e+00 -3.788490e+00 -3.807697e+00 -3.812736e+00 -3.827689e+00 -3.832184e+00 -3.843675e+00 -3.847507e+00 -3.856271e+00 -3.859474e+00 -3.865977e+00 -3.868711e+00 -3.873192e+00 -3.875675e+00 -3.878247e+00 -3.880689e+00 -3.881421e+00 -3.883973e+00 -3.882929e+00 -3.885672e+00 
-3.884029e+00 -3.887477e+00 -3.883676e+00 -3.887313e+00 -3.881818e+00 -3.885561e+00 -3.878344e+00 -3.882092e+00 -3.873086e+00 -3.876705e+00 -3.865856e+00 -3.869123e+00 -3.856477e+00 -3.858997e+00 -3.844787e+00 -3.845898e+00 -3.830579e+00 -3.829309e+00 -3.813503e+00 -3.808643e+00 -3.793183e+00 -3.783672e+00 -3.770100e+00 -3.756152e+00 -3.747543e+00 -3.733013e+00 -3.742808e+00 -3.738638e+00 -3.744597e+00 -3.728981e+00 -3.714909e+00 -3.697719e+00 -3.688352e+00 -3.697191e+00 -3.708410e+00 -3.727617e+00 -3.736899e+00 -3.734011e+00 -3.730785e+00 -3.721118e+00 -3.731730e+00 -3.736554e+00 -3.754783e+00 -3.758642e+00 -3.780484e+00 -3.783568e+00 -3.803454e+00 -3.806274e+00 -3.822530e+00 -3.825351e+00 -3.838240e+00 -3.841027e+00 -3.851154e+00 -3.853823e+00 -3.861603e+00 -3.864169e+00 -3.869802e+00 -3.872373e+00 -3.875952e+00 -3.878659e+00 -3.880260e+00 -3.883195e+00 -3.882908e+00 -3.886109e+00 
-3.891942e+00 -3.895063e+00 -3.890494e+00 -3.893995e+00 -3.887793e+00 -3.891636e+00 -3.883662e+00 -3.887844e+00 -3.877843e+00 -3.882411e+00 -3.870025e+00 -3.875037e+00 -3.859875e+00 -3.865299e+00 -3.847033e+00 -3.852543e+00 -3.831107e+00 -3.835682e+00 -3.811814e+00 -3.812830e+00 -3.789628e+00 -3.781257e+00 -3.765867e+00 -3.739262e+00 -3.733965e+00 -3.691719e+00 -3.665061e+00 -3.602840e+00 -3.592359e+00 -3.576781e+00 -3.581954e+00 -3.588155e+00 -3.586479e+00 -3.589402e+00 -3.577458e+00 -3.579591e+00 -3.585438e+00 -3.607417e+00 -3.655547e+00 -3.691675e+00 -3.721118e+00 -3.725551e+00 -3.760846e+00 -3.764413e+00 -3.794067e+00 -3.799738e+00 -3.821455e+00 -3.827285e+00 -3.842553e+00 -3.847497e+00 -3.858424e+00 -3.862194e+00 -3.870238e+00 -3.872973e+00 -3.878858e+00 -3.880930e+00 -3.884920e+00 -3.886754e+00 -3.888923e+00 -3.890869e+00 -3.891259e+00 -3.893537e+00 -3.892211e+00 -3.894910e+00 
-3.893326e+00 -3.897155e+00 -3.893054e+00 -3.897248e+00 -3.891487e+00 -3.895970e+00 -3.888448e+00 -3.893159e+00 -3.883657e+00 -3.888530e+00 -3.876767e+00 -3.881640e+00 -3.867412e+00 -3.871860e+00 -3.855216e+00 -3.858344e+00 -3.839682e+00 -3.839979e+00 -3.819849e+00 -3.815147e+00 -3.793963e+00 -3.781524e+00 -3.760469e+00 -3.738104e+00 -3.713360e+00 -3.683918e+00 -3.726166e+00 -3.748031e+00 -3.776564e+00 -3.744649e+00 -3.696864e+00 -3.643267e+00 -3.611630e+00 -3.642900e+00 -3.682249e+00 -3.747208e+00 -3.771000e+00 -3.749727e+00 -3.712104e+00 -3.673175e+00 -3.690799e+00 -3.713967e+00 -3.740654e+00 -3.745964e+00 -3.779555e+00 -3.783337e+00 -3.809694e+00 -3.813154e+00 -3.831912e+00 -3.835346e+00 -3.848942e+00 -3.852083e+00 -3.862326e+00 -3.864995e+00 -3.872735e+00 -3.875061e+00 -3.880579e+00 -3.882858e+00 -3.886233e+00 -3.888746e+00 -3.890057e+00 -3.892980e+00 -3.892354e+00 -3.895745e+00 
-3.902394e+00 -3.905727e+00 -3.901088e+00 -3.904996e+00 -3.898922e+00 -3.903337e+00 -3.895641e+00 -3.900598e+00 -3.890868e+00 -3.896542e+00 -3.884135e+00 -3.890819e+00 -3.874898e+00 -3.882908e+00 -3.862504e+00 -3.872035e+00 -3.846009e+00 -3.856934e+00 -3.824226e+00 -3.834969e+00 -3.798350e+00 -3.800377e+00 -3.780630e+00 -3.744885e+00 -3.776663e+00 -3.725306e+00 -3.648435e+00 -3.491102e+00 -3.481368e+00 -3.491037e+00 -3.525014e+00 -3.566319e+00 -3.566851e+00 -3.568912e+00 -3.515510e+00 -3.494713e+00 -3.471791e+00 -3.507076e+00 -3.637767e+00 -3.739789e+00 -3.749033e+00 -3.717131e+00 -3.772619e+00 -3.770890e+00 -3.809049e+00 -3.817494e+00 -3.840772e+00 -3.848973e+00 -3.862827e+00 -3.868760e+00 -3.877801e+00 -3.881420e+00 -3.888017e+00 -3.889875e+00 -3.894827e+00 -3.895753e+00 -3.899125e+00 -3.899910e+00 -3.901594e+00 -3.902795e+00 -3.902754e+00 -3.904650e+00 -3.902959e+00 -3.905608e+00 
-3.904150e+00 -3.908433e+00 -3.904017e+00 -3.908853e+00 -3.902939e+00 -3.908243e+00 -3.900664e+00 -3.906440e+00 -3.896765e+00 -3.903103e+00 -3.890686e+00 -3.897633e+00 -3.881805e+00 -3.889065e+00 -3.869535e+00 -3.876033e+00 -3.853243e+00 -3.856872e+00 -3.831545e+00 -3.829124e+00 -3.800507e+00 -3.786755e+00 -3.760934e+00 -3.726782e+00 -3.615698e+00 -3.514981e+00 -3.671068e+00 -3.827316e+00 -3.942871e+00 -3.859397e+00 -3.682786e+00 -3.489714e+00 -3.383826e+00 -3.484970e+00 -3.632873e+00 -3.865783e+00 -3.956010e+00 -3.847152e+00 -3.655732e+00 -3.508660e+00 -3.578022e+00 -3.698218e+00 -3.735169e+00 -3.725641e+00 -3.785071e+00 -3.789068e+00 -3.822933e+00 -3.827412e+00 -3.846678e+00 -3.851282e+00 -3.863925e+00 -3.867642e+00 -3.877144e+00 -3.879640e+00 -3.887006e+00 -3.888736e+00 -3.894001e+00 -3.895657e+00 -3.898708e+00 -3.900823e+00 -3.901694e+00 -3.904532e+00 -3.903412e+00 -3.907016e+00 
-3.913904e+00 -3.917559e+00 -3.912863e+00 -3.917254e+00 -3.911504e+00 -3.916472e+00 -3.909484e+00 -3.915071e+00 -3.906294e+00 -3.912823e+00 -3.901276e+00 -3.909356e+00 -3.893680e+00 -3.904069e+00 -3.882622e+00 -3.896152e+00 -3.866377e+00 -3.884840e+00 -3.840123e+00 -3.868561e+00 -3.797458e+00 -3.838481e+00 -3.778934e+00 -3.712035e+00 -3.944007e+00 -3.954643e+00 -3.420995e+00 -2.057781e+00 -6.393561e-01 8.339675e-01 2.176499e+00 3.106467e+00 3.471517e+00 3.139357e+00 2.276357e+00 8.686091e-01 -4.641776e-01 -1.990469e+00 -3.437605e+00 -4.030859e+00 -3.870222e+00 -3.631379e+00 -3.769662e+00 -3.782461e+00 -3.826168e+00 -3.848652e+00 -3.868795e+00 -3.882154e+00 -3.890469e+00 -3.897706e+00 -3.902626e+00 -3.905555e+00 -3.909886e+00 -3.909982e+00 -3.913874e+00 -3.912803e+00 -3.915610e+00 -3.914750e+00 -3.915951e+00 -3.916103e+00 -3.915543e+00 -3.916985e+00 -3.914798e+00 -3.917462e+00 
-3.916184e+00 -3.921045e+00 -3.916264e+00 -3.921830e+00 -3.915934e+00 -3.922062e+00 -3.914864e+00 -3.921635e+00 -3.912459e+00 -3.920245e+00 -3.907875e+00 -3.917231e+00 -3.900120e+00 -3.911261e+00 -3.888359e+00 -3.900213e+00 -3.872376e+00 -3.882231e+00 -3.852206e+00 -3.856893e+00 -3.814882e+00 -3.808083e+00 -3.863606e+00 -3.748772e+00 -2.719586e+00 3.642239e-01 4.032696e+00 7.516713e+00 9.997178e+00 1.146798e+01 1.246583e+01 1.292483e+01 1.308501e+01 1.294237e+01 1.245845e+01 1.150791e+01 1.017648e+01 7.606788e+00 4.026391e+00 6.313365e-01 -2.153858e+00 -3.759086e+00 -3.835150e+00 -3.667054e+00 -3.799038e+00 -3.817649e+00 -3.849260e+00 -3.856035e+00 -3.868342e+00 -3.875355e+00 -3.883664e+00 -3.888278e+00 -3.895990e+00 -3.897795e+00 -3.904682e+00 -3.905071e+00 -3.910145e+00 -3.910609e+00 -3.913277e+00 -3.914710e+00 -3.914946e+00 -3.917651e+00 -3.915789e+00 -3.919693e+00 
-3.925907e+00 -3.930135e+00 -3.925299e+00 -3.930325e+00 -3.925074e+00 -3.930548e+00 -3.924815e+00 -3.930709e+00 -3.923867e+00 -3.930657e+00 -3.921339e+00 -3.930076e+00 -3.916288e+00 -3.928207e+00 -3.908225e+00 -3.923866e+00 -3.896838e+00 -3.917739e+00 -3.872706e+00 -3.916693e+00 -3.773836e+00 -3.921720e+00 -3.130252e+00 4.432199e-01 4.473887e+00 8.975877e+00 1.190452e+01 1.297311e+01 1.356314e+01 1.350563e+01 1.346883e+01 1.332771e+01 1.331584e+01 1.333485e+01 1.343060e+01 1.354980e+01 1.357310e+01 1.306553e+01 1.199254e+01 9.550521e+00 5.056637e+00 4.115077e-01 -2.713667e+00 -3.844571e+00 -3.851971e+00 -3.909662e+00 -3.916735e+00 -3.933302e+00 -3.928108e+00 -3.934949e+00 -3.932976e+00 -3.933700e+00 -3.935559e+00 -3.932175e+00 -3.935594e+00 -3.931112e+00 -3.933844e+00 -3.930515e+00 -3.931381e+00 -3.930205e+00 -3.928998e+00 -3.930059e+00 -3.927123e+00 -3.930038e+00 
-3.928860e+00 -3.934551e+00 -3.929236e+00 -3.935658e+00 -3.929954e+00 -3.936802e+00 -3.930634e+00 -3.938004e+00 -3.930522e+00 -3.939187e+00 -3.928382e+00 -3.939917e+00 -3.922524e+00 -3.938563e+00 -3.911339e+00 -3.931181e+00 -3.895520e+00 -3.915103e+00 -3.892458e+00 -3.913650e+00 -3.592498e+00 -1.644283e+00 2.897242e+00 9.016070e+00 1.216313e+01 1.313674e+01 1.333431e+01 1.300757e+01 1.300585e+01 1.296183e+01 1.305080e+01 1.305217e+01 1.309808e+01 1.305696e+01 1.304005e+01 1.297756e+01 1.300754e+01 1.302209e+01 1.336377e+01 1.318889e+01 1.211800e+01 9.150854e+00 3.563332e+00 -1.421108e+00 -3.637386e+00 -3.950874e+00 -3.905455e+00 -3.903791e+00 -3.894139e+00 -3.906201e+00 -3.906762e+00 -3.912664e+00 -3.918776e+00 -3.918482e+00 -3.925845e+00 -3.923390e+00 -3.928856e+00 -3.927234e+00 -3.929557e+00 -3.930019e+00 -3.929305e+00 -3.931965e+00 -3.928930e+00 -3.933383e+00 
-3.937593e+00 -3.942903e+00 -3.937621e+00 -3.943605e+00 -3.938888e+00 -3.944852e+00 -3.940954e+00 -3.946625e+00 -3.943029e+00 -3.948969e+00 -3.943784e+00 -3.951857e+00 -3.941519e+00 -3.954275e+00 -3.936343e+00 -3.952355e+00 -3.939035e+00 -3.945337e+00 -3.986594e+00 -3.757347e+00 -9.390950e-01 5.430977e+00 1.052071e+01 1.286818e+01 1.325270e+01 1.298912e+01 1.302893e+01 1.312196e+01 1.328224e+01 1.328637e+01 1.333979e+01 1.329437e+01 1.332184e+01 1.329756e+01 1.333110e+01 1.329634e+01 1.328718e+01 1.311927e+01 1.305367e+01 1.293188e+01 1.323565e+01 1.299809e+01 1.099670e+01 5.996822e+00 -5.153398e-01 -3.627943e+00 -4.018803e+00 -4.006327e+00 -3.971842e+00 -3.974641e+00 -3.965187e+00 -3.961864e+00 -3.963595e+00 -3.953815e+00 -3.959057e+00 -3.948954e+00 -3.952837e+00 -3.946078e+00 -3.946862e+00 -3.944310e+00 -3.942153e+00 -3.943247e+00 -3.939058e+00 -3.942781e+00 
-3.941318e+00 -3.948339e+00 -3.942068e+00 -3.949614e+00 -3.944128e+00 -3.951529e+00 -3.947172e+00 -3.954270e+00 -3.950392e+00 -3.958233e+00 -3.952091e+00 -3.963976e+00 -3.949210e+00 -3.970565e+00 -3.937128e+00 -3.968822e+00 -3.903579e+00 -3.930993e+00 -3.756685e+00 -7.952214e-01 6.033994e+00 1.175099e+01 1.307903e+01 1.309054e+01 1.301839e+01 1.313487e+01 1.315007e+01 1.307729e+01 1.309531e+01 1.305275e+01 1.309679e+01 1.307169e+01 1.310715e+01 1.307176e+01 1.309214e+01 1.305172e+01 1.309246e+01 1.306910e+01 1.315418e+01 1.311513e+01 1.303104e+01 1.306051e+01 1.317200e+01 1.196538e+01 6.619590e+00 -2.815708e-01 -3.617063e+00 -3.903574e+00 -3.894140e+00 -3.931324e+00 -3.928941e+00 -3.936630e+00 -3.945700e+00 -3.939510e+00 -3.950668e+00 -3.942485e+00 -3.949702e+00 -3.944813e+00 -3.946774e+00 -3.946210e+00 -3.943896e+00 -3.946965e+00 -3.941960e+00 -3.947542e+00 
-3.947944e+00 -3.955245e+00 -3.948827e+00 -3.956412e+00 -3.951911e+00 -3.958542e+00 -3.956897e+00 -3.961640e+00 -3.963038e+00 -3.966055e+00 -3.968301e+00 -3.972818e+00 -3.967780e+00 -3.982365e+00 -3.953299e+00 -3.982855e+00 -3.931104e+00 -3.827408e+00 -1.259698e+00 6.022952e+00 1.183740e+01 1.316451e+01 1.309167e+01 1.316676e+01 1.318439e+01 1.313339e+01 1.316996e+01 1.317540e+01 1.324736e+01 1.324099e+01 1.329091e+01 1.326414e+01 1.329712e+01 1.326318e+01 1.328701e+01 1.323670e+01 1.324503e+01 1.316102e+01 1.316949e+01 1.310580e+01 1.317528e+01 1.315521e+01 1.308237e+01 1.310624e+01 1.208578e+01 6.788654e+00 -7.835155e-01 -3.916111e+00 -3.968137e+00 -3.991574e+00 -3.989021e+00 -3.982944e+00 -3.992835e+00 -3.970992e+00 -3.983331e+00 -3.964149e+00 -3.971149e+00 -3.960213e+00 -3.960900e+00 -3.957619e+00 -3.953698e+00 -3.955907e+00 -3.949480e+00 -3.955085e+00 
-3.952471e+00 -3.961729e+00 -3.953634e+00 -3.962912e+00 -3.957222e+00 -3.965207e+00 -3.963186e+00 -3.968766e+00 -3.971050e+00 -3.974439e+00 -3.978942e+00 -3.985220e+00 -3.982295e+00 -4.007844e+00 -3.980778e+00 -4.042250e+00 -4.060637e+00 -2.771186e+00 3.957871e+00 1.156643e+01 1.331579e+01 1.322554e+01 1.321753e+01 1.317312e+01 1.315343e+01 1.315748e+01 1.316168e+01 1.312958e+01 1.314594e+01 1.311310e+01 1.314147e+01 1.311202e+01 1.314163e+01 1.310945e+01 1.313756e+01 1.310432e+01 1.313962e+01 1.311087e+01 1.315274e+01 1.312291e+01 1.313627e+01 1.310915e+01 1.317328e+01 1.308206e+01 1.316675e+01 1.183116e+01 5.043485e+00 -1.909072e+00 -3.933657e+00 -3.976753e+00 -3.965718e+00 -3.960105e+00 -3.982062e+00 -3.958579e+00 -3.980130e+00 -3.961203e+00 -3.971816e+00 -3.962779e+00 -3.963587e+00 -3.962806e+00 -3.957428e+00 -3.962109e+00 -3.953725e+00 -3.961557e+00 
-3.955907e+00 -3.966604e+00 -3.957809e+00 -3.968163e+00 -3.962844e+00 -3.970924e+00 -3.971200e+00 -3.974591e+00 -3.982965e+00 -3.979388e+00 -3.996762e+00 -3.988491e+00 -4.004685e+00 -4.016664e+00 -3.976567e+00 -4.119840e+00 -3.607057e+00 1.877918e+00 9.721407e+00 1.307412e+01 1.323971e+01 1.322339e+01 1.320711e+01 1.321472e+01 1.322093e+01 1.320472e+01 1.322847e+01 1.321896e+01 1.325826e+01 1.324413e+01 1.328103e+01 1.325674e+01 1.328683e+01 1.325386e+01 1.327780e+01 1.323501e+01 1.325332e+01 1.320253e+01 1.322185e+01 1.318372e+01 1.321068e+01 1.320243e+01 1.319633e+01 1.323831e+01 1.323638e+01 1.333773e+01 1.075155e+01 2.443561e+00 -3.720894e+00 -4.116878e+00 -4.028033e+00 -4.004473e+00 -4.032517e+00 -3.980516e+00 -4.008557e+00 -3.975033e+00 -3.986603e+00 -3.972273e+00 -3.971403e+00 -3.969708e+00 -3.962055e+00 -3.967577e+00 -3.957187e+00 -3.966430e+00 
-3.961205e+00 -3.974106e+00 -3.962719e+00 -3.974968e+00 -3.967695e+00 -3.977203e+00 -3.976719e+00 -3.980247e+00 -3.990541e+00 -3.983785e+00 -4.008097e+00 -3.991308e+00 -4.015706e+00 -4.028950e+00 -3.936163e+00 -4.242283e+00 -2.012363e+00 6.884546e+00 1.301693e+01 1.319487e+01 1.330216e+01 1.323370e+01 1.325546e+01 1.321579e+01 1.321630e+01 1.319504e+01 1.320039e+01 1.317344e+01 1.318713e+01 1.315809e+01 1.317986e+01 1.315080e+01 1.317703e+01 1.314730e+01 1.317641e+01 1.314699e+01 1.318002e+01 1.315278e+01 1.318724e+01 1.316185e+01 1.318958e+01 1.316699e+01 1.319760e+01 1.317370e+01 1.317774e+01 1.318561e+01 1.278166e+01 7.392617e+00 -9.443503e-01 -4.047329e+00 -3.992691e+00 -3.966560e+00 -4.033851e+00 -3.970633e+00 -4.014002e+00 -3.979262e+00 -3.992728e+00 -3.981391e+00 -3.977714e+00 -3.979688e+00 -3.968220e+00 -3.976957e+00 -3.962962e+00 -3.974838e+00 
-3.960704e+00 -3.976597e+00 -3.963614e+00 -3.978589e+00 -3.970205e+00 -3.981962e+00 -3.981468e+00 -3.985421e+00 -3.999609e+00 -3.986358e+00 -4.028585e+00 -3.981008e+00 -4.072386e+00 -3.972105e+00 -4.117187e+00 -3.903477e+00 2.191769e+00 1.074421e+01 1.341554e+01 1.326374e+01 1.330190e+01 1.327234e+01 1.326851e+01 1.326220e+01 1.326334e+01 1.325246e+01 1.326565e+01 1.325233e+01 1.327580e+01 1.325791e+01 1.328473e+01 1.326050e+01 1.328682e+01 1.325651e+01 1.328129e+01 1.324584e+01 1.326929e+01 1.323218e+01 1.325586e+01 1.322553e+01 1.324950e+01 1.323170e+01 1.325220e+01 1.323818e+01 1.329277e+01 1.320340e+01 1.344454e+01 1.200116e+01 3.601263e+00 -3.667658e+00 -4.218108e+00 -3.933980e+00 -4.097283e+00 -3.967725e+00 -4.029510e+00 -3.981205e+00 -3.994073e+00 -3.983180e+00 -3.975403e+00 -3.980925e+00 -3.965643e+00 -3.978130e+00 -3.961235e+00 -3.976467e+00 
-3.966747e+00 -3.984980e+00 -3.968367e+00 -3.985602e+00 -3.973924e+00 -3.988012e+00 -3.984856e+00 -3.990250e+00 -4.005044e+00 -3.986943e+00 -4.044798e+00 -3.962761e+00 -4.132704e+00 -3.871662e+00 -4.355625e+00 -2.593174e+00 6.711103e+00 1.341539e+01 1.338569e+01 1.334344e+01 1.332167e+01 1.329735e+01 1.328515e+01 1.326146e+01 1.325570e+01 1.323262e+01 1.323494e+01 1.320885e+01 1.321946e+01 1.319157e+01 1.320984e+01 1.318157e+01 1.320598e+01 1.317791e+01 1.320735e+01 1.318034e+01 1.321408e+01 1.318924e+01 1.322494e+01 1.320365e+01 1.323678e+01 1.322327e+01 1.324974e+01 1.325543e+01 1.326037e+01 1.331627e+01 1.329319e+01 1.322000e+01 7.195220e+00 -1.945918e+00 -4.435280e+00 -3.857660e+00 -4.145157e+00 -3.974177e+00 -4.047167e+00 -4.001644e+00 -4.006051e+00 -4.002831e+00 -3.985634e+00 -3.997183e+00 -3.974506e+00 -3.991110e+00 -3.968680e+00 -3.986812e+00 
-3.962275e+00 -3.984959e+00 -3.965894e+00 -3.987721e+00 -3.972811e+00 -3.992666e+00 -3.984344e+00 -3.997898e+00 -4.004211e+00 -3.997428e+00 -4.043472e+00 -3.971780e+00 -4.137734e+00 -3.855416e+00 -4.417765e+00 -2.002950e-02 9.928341e+00 1.364689e+01 1.324345e+01 1.342828e+01 1.330349e+01 1.334769e+01 1.330420e+01 1.331024e+01 1.329761e+01 1.328894e+01 1.329271e+01 1.327737e+01 1.329165e+01 1.327159e+01 1.329193e+01 1.326741e+01 1.329098e+01 1.326243e+01 1.328794e+01 1.325650e+01 1.328357e+01 1.325171e+01 1.327986e+01 1.325211e+01 1.327810e+01 1.326167e+01 1.327422e+01 1.328888e+01 1.325160e+01 1.337807e+01 1.311910e+01 1.373543e+01 1.092168e+01 1.046258e+00 -4.431704e+00 -3.851821e+00 -4.110099e+00 -3.971132e+00 -4.016237e+00 -3.996894e+00 -3.983495e+00 -3.997477e+00 -3.969891e+00 -3.992415e+00 -3.963730e+00 -3.987606e+00 -3.961520e+00 -3.984928e+00 
-3.969136e+00 -3.993822e+00 -3.970425e+00 -3.994730e+00 -3.974880e+00 -3.998948e+00 -3.983364e+00 -4.005146e+00 -3.998837e+00 -4.009114e+00 -4.031413e+00 -3.996968e+00 -4.116824e+00 -3.923813e+00 -4.384893e+00 2.341989e+00 1.233160e+01 1.384849e+01 1.327708e+01 1.349013e+01 1.332693e+01 1.336221e+01 1.331178e+01 1.330142e+01 1.328534e+01 1.326284e+01 1.326134e+01 1.323474e+01 1.324295e+01 1.321503e+01 1.323148e+01 1.320355e+01 1.322725e+01 1.319999e+01 1.323029e+01 1.320427e+01 1.324069e+01 1.321658e+01 1.325801e+01 1.323701e+01 1.328104e+01 1.326777e+01 1.330866e+01 1.332055e+01 1.333596e+01 1.343456e+01 1.333778e+01 1.373439e+01 1.262139e+01 3.725784e+00 -4.125175e+00 -4.057606e+00 -4.068947e+00 -4.063254e+00 -4.021049e+00 -4.048410e+00 -3.997229e+00 -4.030391e+00 -3.983726e+00 -4.014996e+00 -3.975485e+00 -4.003720e+00 -3.970796e+00 -3.996724e+00 
-3.961627e+00 -3.991253e+00 -3.965463e+00 -3.995201e+00 -3.971140e+00 -4.003296e+00 -3.978711e+00 -4.015713e+00 -3.988333e+00 -4.032315e+00 -4.001364e+00 -4.051726e+00 -4.023874e+00 -4.071661e+00 -3.992193e+00 4.300234e+00 1.318077e+01 1.369053e+01 1.340979e+01 1.348289e+01 1.338061e+01 1.339073e+01 1.335111e+01 1.334270e+01 1.332859e+01 1.331320e+01 1.331320e+01 1.329408e+01 1.330391e+01 1.328181e+01 1.329875e+01 1.327366e+01 1.329580e+01 1.326782e+01 1.329424e+01 1.326394e+01 1.329464e+01 1.326293e+01 1.329838e+01 1.326603e+01 1.330661e+01 1.327403e+01 1.332000e+01 1.328909e+01 1.334168e+01 1.331838e+01 1.338720e+01 1.335207e+01 1.352431e+01 6.405285e+00 -3.366223e+00 -4.130881e+00 -3.890768e+00 -4.066486e+00 -3.938614e+00 -4.036382e+00 -3.952414e+00 -4.017014e+00 -3.956632e+00 -4.003805e+00 -3.958108e+00 -3.995427e+00 -3.959376e+00 -3.991322e+00 
-3.969487e+00 -3.999777e+00 -3.970176e+00 -4.001353e+00 -3.972426e+00 -4.008410e+00 -3.974983e+00 -4.022230e+00 -3.974550e+00 -4.046477e+00 -3.962200e+00 -4.091782e+00 -3.910495e+00 -4.194140e+00 -3.405001e+00 6.371029e+00 1.380754e+01 1.347370e+01 1.353258e+01 1.343014e+01 1.341640e+01 1.336855e+01 1.335311e+01 1.331884e+01 1.331048e+01 1.327989e+01 1.327949e+01 1.325000e+01 1.325778e+01 1.322898e+01 1.324487e+01 1.321683e+01 1.324053e+01 1.321339e+01 1.324481e+01 1.321869e+01 1.325829e+01 1.323298e+01 1.328197e+01 1.325627e+01 1.331777e+01 1.328882e+01 1.337145e+01 1.333262e+01 1.346005e+01 1.339008e+01 1.363199e+01 1.343822e+01 1.402837e+01 7.881043e+00 -2.953187e+00 -4.324096e+00 -3.923626e+00 -4.170545e+00 -3.966153e+00 -4.097169e+00 -3.976748e+00 -4.055187e+00 -3.976491e+00 -4.029107e+00 -3.973423e+00 -4.012783e+00 -3.970680e+00 -4.003435e+00 
-3.960575e+00 -3.994716e+00 -3.964331e+00 -3.999617e+00 -3.968505e+00 -4.010421e+00 -3.971473e+00 -4.029647e+00 -3.968368e+00 -4.063743e+00 -3.945954e+00 -4.129490e+00 -3.868124e+00 -4.272944e+00 -3.024260e+00 7.433958e+00 1.405795e+01 1.342916e+01 1.364963e+01 1.343468e+01 1.347366e+01 1.339382e+01 1.339248e+01 1.335485e+01 1.334994e+01 1.332437e+01 1.332533e+01 1.330227e+01 1.331090e+01 1.328719e+01 1.330288e+01 1.327727e+01 1.329893e+01 1.327093e+01 1.329808e+01 1.326768e+01 1.330100e+01 1.326784e+01 1.330950e+01 1.327137e+01 1.332656e+01 1.327651e+01 1.335892e+01 1.327913e+01 1.342595e+01 1.326966e+01 1.357726e+01 1.321320e+01 1.390586e+01 8.802660e+00 -2.319708e+00 -4.247360e+00 -3.807236e+00 -4.125861e+00 -3.891953e+00 -4.064337e+00 -3.930145e+00 -4.030585e+00 -3.946440e+00 -4.011077e+00 -3.953524e+00 -3.999983e+00 -3.957330e+00 -3.994834e+00 
-3.969359e+00 -4.001898e+00 -3.969747e+00 -4.003816e+00 -3.970881e+00 -4.012204e+00 -3.970428e+00 -4.029550e+00 -3.962153e+00 -4.062584e+00 -3.929990e+00 -4.128212e+00 -3.834175e+00 -4.266990e+00 -2.843176e+00 7.759834e+00 1.401445e+01 1.335554e+01 1.364069e+01 1.339509e+01 1.346204e+01 1.336419e+01 1.337318e+01 1.332270e+01 1.332099e+01 1.328507e+01 1.328622e+01 1.325496e+01 1.326295e+01 1.323361e+01 1.324946e+01 1.322130e+01 1.324509e+01 1.321791e+01 1.324984e+01 1.322351e+01 1.326454e+01 1.323837e+01 1.329089e+01 1.326231e+01 1.333230e+01 1.329431e+01 1.339772e+01 1.333182e+01 1.351076e+01 1.336513e+01 1.372405e+01 1.334993e+01 1.410491e+01 9.231925e+00 -2.154166e+00 -4.337521e+00 -3.872828e+00 -4.197820e+00 -3.942786e+00 -4.114157e+00 -3.967083e+00 -4.064547e+00 -3.972772e+00 -4.034415e+00 -3.972142e+00 -4.016092e+00 -3.970330e+00 -4.005824e+00 