# vtk DataFile Version 2.0
Comment goes here
ASCII

DATASET STRUCTURED_POINTS
FIELD FieldData 1
TIME 1 1 double
1.64000000
DIMENSIONS    64   64   1

ORIGIN    0.000   0.000   0.000
SPACING   0.015625 0.015625   1.000

POINT_DATA   4096
SCALARS P double
LOOKUP_TABLE default

-3.947505e+00 -3.949584e+00 -3.947176e+00 -3.950040e+00 -3.946727e+00 -3.950352e+00 -3.946167e+00 -3.950469e+00 -3.945505e+00 -3.950343e+00 -3.944763e+00 -3.949927e+00 -3.943959e+00 -3.949163e+00 -3.943074e+00 -3.947933e+00 -3.941979e+00 -3.946000e+00 -3.940375e+00 -3.942980e+00 -3.937786e+00 -3.938401e+00 -3.933689e+00 -3.931898e+00 -3.927777e+00 -3.923517e+00 -3.920296e+00 -3.914043e+00 -3.912353e+00 -3.905206e+00 -3.906001e+00 -3.899437e+00 -3.903528e+00 -3.898698e+00 -3.905994e+00 -3.903113e+00 -3.912399e+00 -3.910866e+00 -3.920440e+00 -3.919487e+00 -3.928052e+00 -3.927185e+00 -3.934167e+00 -3.933169e+00 -3.938552e+00 -3.937404e+00 -3.941480e+00 -3.940260e+00 -3.943408e+00 -3.942214e+00 -3.944752e+00 -3.943662e+00 -3.945772e+00 -3.944850e+00 -3.946574e+00 -3.945889e+00 -3.947173e+00 -3.946816e+00 -3.947556e+00 -3.947641e+00 -3.947724e+00 -3.948374e+00 -3.947697e+00 -3.949022e+00 
-3.946732e+00 -3.949151e+00 -3.946407e+00 -3.949604e+00 -3.945928e+00 -3.949869e+00 -3.945306e+00 -3.949892e+00 -3.944553e+00 -3.949614e+00 -3.943691e+00 -3.948980e+00 -3.942740e+00 -3.947923e+00 -3.941678e+00 -3.946325e+00 -3.940389e+00 -3.943982e+00 -3.938619e+00 -3.940608e+00 -3.936020e+00 -3.935964e+00 -3.932342e+00 -3.930102e+00 -3.927726e+00 -3.923606e+00 -3.922883e+00 -3.917546e+00 -3.918863e+00 -3.912989e+00 -3.916416e+00 -3.910478e+00 -3.915750e+00 -3.910113e+00 -3.916779e+00 -3.911823e+00 -3.919335e+00 -3.915410e+00 -3.923144e+00 -3.920386e+00 -3.927643e+00 -3.925855e+00 -3.932050e+00 -3.930891e+00 -3.935796e+00 -3.934969e+00 -3.938709e+00 -3.938034e+00 -3.940911e+00 -3.940316e+00 -3.942619e+00 -3.942096e+00 -3.943995e+00 -3.943578e+00 -3.945105e+00 -3.944865e+00 -3.945951e+00 -3.945994e+00 -3.946523e+00 -3.946978e+00 -3.946825e+00 -3.947827e+00 -3.946882e+00 -3.948552e+00 
-3.947580e+00 -3.949645e+00 -3.947246e+00 -3.950128e+00 -3.946807e+00 -3.950485e+00 -3.946272e+00 -3.950670e+00 -3.945656e+00 -3.950634e+00 -3.944981e+00 -3.950333e+00 -3.944271e+00 -3.949701e+00 -3.943503e+00 -3.948613e+00 -3.942545e+00 -3.946817e+00 -3.941084e+00 -3.943909e+00 -3.938622e+00 -3.939392e+00 -3.934601e+00 -3.932863e+00 -3.928657e+00 -3.924289e+00 -3.920929e+00 -3.914345e+00 -3.912414e+00 -3.904759e+00 -3.905341e+00 -3.898334e+00 -3.902514e+00 -3.897530e+00 -3.905300e+00 -3.902526e+00 -3.912432e+00 -3.911050e+00 -3.921059e+00 -3.920182e+00 -3.928908e+00 -3.928073e+00 -3.935035e+00 -3.934061e+00 -3.939340e+00 -3.938211e+00 -3.942158e+00 -3.940943e+00 -3.943972e+00 -3.942760e+00 -3.945211e+00 -3.944076e+00 -3.946137e+00 -3.945146e+00 -3.946859e+00 -3.946090e+00 -3.947391e+00 -3.946947e+00 -3.947721e+00 -3.947726e+00 -3.947847e+00 -3.948432e+00 -3.947790e+00 -3.949073e+00 
-3.946921e+00 -3.949312e+00 -3.946582e+00 -3.949822e+00 -3.946118e+00 -3.950186e+00 -3.945546e+00 -3.950353e+00 -3.944885e+00 -3.950267e+00 -3.944161e+00 -3.949869e+00 -3.943394e+00 -3.949075e+00 -3.942555e+00 -3.947728e+00 -3.941489e+00 -3.945553e+00 -3.939870e+00 -3.942164e+00 -3.937244e+00 -3.937220e+00 -3.933268e+00 -3.930768e+00 -3.928130e+00 -3.923612e+00 -3.922860e+00 -3.917278e+00 -3.918991e+00 -3.913102e+00 -3.917174e+00 -3.911130e+00 -3.916938e+00 -3.910832e+00 -3.917781e+00 -3.912090e+00 -3.919769e+00 -3.915250e+00 -3.923258e+00 -3.920349e+00 -3.927934e+00 -3.926337e+00 -3.932703e+00 -3.931869e+00 -3.936732e+00 -3.936203e+00 -3.939764e+00 -3.939276e+00 -3.941944e+00 -3.941403e+00 -3.943544e+00 -3.942961e+00 -3.944776e+00 -3.944219e+00 -3.945737e+00 -3.945316e+00 -3.946449e+00 -3.946302e+00 -3.946907e+00 -3.947189e+00 -3.947119e+00 -3.947984e+00 -3.947111e+00 -3.948692e+00 
-3.947790e+00 -3.949806e+00 -3.947441e+00 -3.950370e+00 -3.947028e+00 -3.950866e+00 -3.946571e+00 -3.951255e+00 -3.946090e+00 -3.951494e+00 -3.945620e+00 -3.951538e+00 -3.945189e+00 -3.951311e+00 -3.944774e+00 -3.950655e+00 -3.944225e+00 -3.949273e+00 -3.943192e+00 -3.946700e+00 -3.941119e+00 -3.942384e+00 -3.937368e+00 -3.935839e+00 -3.931424e+00 -3.926791e+00 -3.923060e+00 -3.915433e+00 -3.912643e+00 -3.903231e+00 -3.902913e+00 -3.894366e+00 -3.898735e+00 -3.893314e+00 -3.902735e+00 -3.900483e+00 -3.912572e+00 -3.911766e+00 -3.923170e+00 -3.922495e+00 -3.931614e+00 -3.930854e+00 -3.937666e+00 -3.936767e+00 -3.941681e+00 -3.940629e+00 -3.944160e+00 -3.942982e+00 -3.945642e+00 -3.944387e+00 -3.946572e+00 -3.945302e+00 -3.947224e+00 -3.946017e+00 -3.947707e+00 -3.946675e+00 -3.948039e+00 -3.947321e+00 -3.948204e+00 -3.947959e+00 -3.948202e+00 -3.948588e+00 -3.948054e+00 -3.949205e+00 
-3.947264e+00 -3.949590e+00 -3.946897e+00 -3.950215e+00 -3.946464e+00 -3.950777e+00 -3.945993e+00 -3.951236e+00 -3.945515e+00 -3.951544e+00 -3.945069e+00 -3.951637e+00 -3.944684e+00 -3.951402e+00 -3.944313e+00 -3.950608e+00 -3.943738e+00 -3.948835e+00 -3.942482e+00 -3.945463e+00 -3.939835e+00 -3.939873e+00 -3.935175e+00 -3.931986e+00 -3.928651e+00 -3.923044e+00 -3.922040e+00 -3.915893e+00 -3.918575e+00 -3.912985e+00 -3.918722e+00 -3.912757e+00 -3.919795e+00 -3.912648e+00 -3.920009e+00 -3.912422e+00 -3.920197e+00 -3.914189e+00 -3.922802e+00 -3.919701e+00 -3.928160e+00 -3.927163e+00 -3.933937e+00 -3.933931e+00 -3.938655e+00 -3.938827e+00 -3.941947e+00 -3.941872e+00 -3.944066e+00 -3.943630e+00 -3.945428e+00 -3.944697e+00 -3.946353e+00 -3.945481e+00 -3.947005e+00 -3.946186e+00 -3.947436e+00 -3.946879e+00 -3.947658e+00 -3.947571e+00 -3.947682e+00 -3.948256e+00 -3.947538e+00 -3.948931e+00 
-3.948088e+00 -3.950008e+00 -3.947711e+00 -3.950707e+00 -3.947344e+00 -3.951436e+00 -3.947016e+00 -3.952169e+00 -3.946763e+00 -3.952876e+00 -3.946633e+00 -3.953513e+00 -3.946666e+00 -3.953981e+00 -3.946836e+00 -3.954067e+00 -3.946964e+00 -3.953378e+00 -3.946634e+00 -3.951343e+00 -3.945208e+00 -3.947369e+00 -3.941998e+00 -3.941003e+00 -3.936417e+00 -3.931651e+00 -3.927619e+00 -3.918159e+00 -3.913441e+00 -3.900106e+00 -3.897117e+00 -3.885101e+00 -3.889424e+00 -3.883415e+00 -3.896545e+00 -3.896088e+00 -3.913213e+00 -3.913834e+00 -3.927835e+00 -3.927270e+00 -3.936580e+00 -3.935834e+00 -3.942056e+00 -3.941307e+00 -3.945457e+00 -3.944611e+00 -3.947378e+00 -3.946338e+00 -3.948346e+00 -3.947063e+00 -3.948799e+00 -3.947304e+00 -3.949015e+00 -3.947420e+00 -3.949108e+00 -3.947594e+00 -3.949099e+00 -3.947883e+00 -3.948981e+00 -3.948285e+00 -3.948757e+00 -3.948783e+00 -3.948448e+00 -3.949362e+00 
-3.947703e+00 -3.949906e+00 -3.947290e+00 -3.950700e+00 -3.946904e+00 -3.951561e+00 -3.946584e+00 -3.952466e+00 -3.946379e+00 -3.953385e+00 -3.946353e+00 -3.954256e+00 -3.946556e+00 -3.954938e+00 -3.946941e+00 -3.955105e+00 -3.947220e+00 -3.954122e+00 -3.946688e+00 -3.950960e+00 -3.944179e+00 -3.944374e+00 -3.938372e+00 -3.933684e+00 -3.928796e+00 -3.920477e+00 -3.918216e+00 -3.910841e+00 -3.915586e+00 -3.911709e+00 -3.921311e+00 -3.916566e+00 -3.925950e+00 -3.916922e+00 -3.924280e+00 -3.912328e+00 -3.919278e+00 -3.909986e+00 -3.919787e+00 -3.916989e+00 -3.927624e+00 -3.928231e+00 -3.935757e+00 -3.937477e+00 -3.941757e+00 -3.943244e+00 -3.945438e+00 -3.946069e+00 -3.947399e+00 -3.947092e+00 -3.948339e+00 -3.947303e+00 -3.948757e+00 -3.947316e+00 -3.948911e+00 -3.947408e+00 -3.948898e+00 -3.947655e+00 -3.948744e+00 -3.948051e+00 -3.948470e+00 -3.948570e+00 -3.948110e+00 -3.949192e+00 
-3.948408e+00 -3.950166e+00 -3.947988e+00 -3.951050e+00 -3.947685e+00 -3.952103e+00 -3.947539e+00 -3.953324e+00 -3.947603e+00 -3.954704e+00 -3.947947e+00 -3.956206e+00 -3.948629e+00 -3.957703e+00 -3.949617e+00 -3.958887e+00 -3.950679e+00 -3.959173e+00 -3.951276e+00 -3.957764e+00 -3.950642e+00 -3.954088e+00 -3.948189e+00 -3.948329e+00 -3.943892e+00 -3.940140e+00 -3.937336e+00 -3.925570e+00 -3.916909e+00 -3.894949e+00 -3.884256e+00 -3.864564e+00 -3.867574e+00 -3.861304e+00 -3.882527e+00 -3.887759e+00 -3.916491e+00 -3.920383e+00 -3.938222e+00 -3.936544e+00 -3.944262e+00 -3.943277e+00 -3.947884e+00 -3.947477e+00 -3.950334e+00 -3.950005e+00 -3.951602e+00 -3.950950e+00 -3.951983e+00 -3.950752e+00 -3.951857e+00 -3.950030e+00 -3.951502e+00 -3.949280e+00 -3.951053e+00 -3.948761e+00 -3.950555e+00 -3.948547e+00 -3.950019e+00 -3.948620e+00 -3.949461e+00 -3.948935e+00 -3.948911e+00 -3.949458e+00 
-3.948161e+00 -3.950156e+00 -3.947682e+00 -3.951168e+00 -3.947357e+00 -3.952421e+00 -3.947234e+00 -3.953924e+00 -3.947384e+00 -3.955680e+00 -3.947907e+00 -3.957652e+00 -3.948905e+00 -3.959688e+00 -3.950375e+00 -3.961384e+00 -3.952001e+00 -3.961866e+00 -3.952853e+00 -3.959533e+00 -3.951120e+00 -3.951987e+00 -3.944124e+00 -3.936626e+00 -3.928749e+00 -3.913396e+00 -3.905852e+00 -3.895117e+00 -3.904514e+00 -3.907189e+00 -3.926256e+00 -3.926605e+00 -3.940383e+00 -3.928029e+00 -3.933379e+00 -3.910929e+00 -3.913259e+00 -3.896388e+00 -3.909018e+00 -3.909351e+00 -3.925904e+00 -3.930356e+00 -3.938796e+00 -3.943730e+00 -3.946611e+00 -3.950293e+00 -3.950604e+00 -3.952263e+00 -3.952144e+00 -3.951887e+00 -3.952372e+00 -3.950730e+00 -3.952025e+00 -3.949618e+00 -3.951461e+00 -3.948867e+00 -3.950813e+00 -3.948522e+00 -3.950124e+00 -3.948530e+00 -3.949425e+00 -3.948829e+00 -3.948756e+00 -3.949376e+00 
-3.948672e+00 -3.950180e+00 -3.948192e+00 -3.951289e+00 -3.947969e+00 -3.952747e+00 -3.948053e+00 -3.954591e+00 -3.948518e+00 -3.956855e+00 -3.949465e+00 -3.959531e+00 -3.950984e+00 -3.962475e+00 -3.953046e+00 -3.965239e+00 -3.955320e+00 -3.966865e+00 -3.957001e+00 -3.965921e+00 -3.956956e+00 -3.961640e+00 -3.954750e+00 -3.956588e+00 -3.952235e+00 -3.953869e+00 -3.960014e+00 -3.948291e+00 -3.932003e+00 -3.889292e+00 -3.855882e+00 -3.818214e+00 -3.815888e+00 -3.811085e+00 -3.850397e+00 -3.873301e+00 -3.931527e+00 -3.942731e+00 -3.963524e+00 -3.954413e+00 -3.953392e+00 -3.952235e+00 -3.953866e+00 -3.954434e+00 -3.955707e+00 -3.956571e+00 -3.956588e+00 -3.956847e+00 -3.956490e+00 -3.955483e+00 -3.955760e+00 -3.953432e+00 -3.954716e+00 -3.951491e+00 -3.953559e+00 -3.950050e+00 -3.952394e+00 -3.949193e+00 -3.951278e+00 -3.948856e+00 -3.950256e+00 -3.948947e+00 -3.949372e+00 -3.949399e+00 
-3.948552e+00 -3.950229e+00 -3.947987e+00 -3.951488e+00 -3.947735e+00 -3.953203e+00 -3.947846e+00 -3.955436e+00 -3.948410e+00 -3.958248e+00 -3.949575e+00 -3.961658e+00 -3.951531e+00 -3.965557e+00 -3.954409e+00 -3.969532e+00 -3.958012e+00 -3.972577e+00 -3.961345e+00 -3.972602e+00 -3.962091e+00 -3.965753e+00 -3.956222e+00 -3.945253e+00 -3.934032e+00 -3.899435e+00 -3.870450e+00 -3.848087e+00 -3.869802e+00 -3.895073e+00 -3.939128e+00 -3.955616e+00 -3.977327e+00 -3.958989e+00 -3.956450e+00 -3.907131e+00 -3.891059e+00 -3.854515e+00 -3.875961e+00 -3.892311e+00 -3.926688e+00 -3.938681e+00 -3.945587e+00 -3.955685e+00 -3.954457e+00 -3.961432e+00 -3.958053e+00 -3.960926e+00 -3.958570e+00 -3.958001e+00 -3.957627e+00 -3.954793e+00 -3.956182e+00 -3.952181e+00 -3.954645e+00 -3.950384e+00 -3.953147e+00 -3.949336e+00 -3.951742e+00 -3.948892e+00 -3.950474e+00 -3.948930e+00 -3.949395e+00 -3.949382e+00 
-3.948794e+00 -3.949949e+00 -3.948236e+00 -3.951301e+00 -3.948105e+00 -3.953213e+00 -3.948455e+00 -3.955782e+00 -3.949382e+00 -3.959122e+00 -3.951040e+00 -3.963308e+00 -3.953595e+00 -3.968253e+00 -3.957067e+00 -3.973415e+00 -3.961012e+00 -3.977237e+00 -3.964073e+00 -3.976492e+00 -3.963885e+00 -3.967962e+00 -3.959266e+00 -3.960190e+00 -3.948216e+00 -3.968931e+00 -4.017479e+00 -4.023454e+00 -3.993311e+00 -3.892922e+00 -3.789356e+00 -3.707982e+00 -3.691035e+00 -3.692143e+00 -3.770335e+00 -3.848659e+00 -3.993157e+00 -4.021575e+00 -4.030028e+00 -3.985186e+00 -3.950710e+00 -3.955520e+00 -3.957138e+00 -3.960282e+00 -3.961141e+00 -3.964454e+00 -3.962364e+00 -3.964507e+00 -3.962025e+00 -3.961469e+00 -3.960665e+00 -3.957448e+00 -3.958757e+00 -3.953863e+00 -3.956660e+00 -3.951259e+00 -3.954597e+00 -3.949653e+00 -3.952703e+00 -3.948867e+00 -3.951066e+00 -3.948720e+00 -3.949748e+00 -3.949094e+00 
-3.948781e+00 -3.950010e+00 -3.948113e+00 -3.951509e+00 -3.947943e+00 -3.953708e+00 -3.948309e+00 -3.956746e+00 -3.949302e+00 -3.960779e+00 -3.951119e+00 -3.965938e+00 -3.954080e+00 -3.972225e+00 -3.958577e+00 -3.979350e+00 -3.964801e+00 -3.986445e+00 -3.972020e+00 -3.991500e+00 -3.977839e+00 -3.990625e+00 -3.981352e+00 -3.975466e+00 -3.976609e+00 -3.886897e+00 -3.769250e+00 -3.702036e+00 -3.764922e+00 -3.868069e+00 -3.981791e+00 -4.041443e+00 -4.073413e+00 -4.044889e+00 -4.022928e+00 -3.902034e+00 -3.817587e+00 -3.721248e+00 -3.774900e+00 -3.863991e+00 -3.956771e+00 -3.974126e+00 -3.960545e+00 -3.977425e+00 -3.966578e+00 -3.978291e+00 -3.968468e+00 -3.972220e+00 -3.966931e+00 -3.965034e+00 -3.964126e+00 -3.959029e+00 -3.961187e+00 -3.954629e+00 -3.958407e+00 -3.951688e+00 -3.955833e+00 -3.949909e+00 -3.953515e+00 -3.949004e+00 -3.951523e+00 -3.948773e+00 -3.949928e+00 -3.949113e+00 
-3.948674e+00 -3.949380e+00 -3.948024e+00 -3.950948e+00 -3.947987e+00 -3.953293e+00 -3.948607e+00 -3.956603e+00 -3.950002e+00 -3.961124e+00 -3.952408e+00 -3.967113e+00 -3.956164e+00 -3.974735e+00 -3.961536e+00 -3.983743e+00 -3.968172e+00 -3.992336e+00 -3.973872e+00 -3.993372e+00 -3.972502e+00 -3.969627e+00 -3.964983e+00 -3.941788e+00 -3.859667e+00 -3.936228e+00 -4.170485e+00 -4.290345e+00 -4.233317e+00 -3.902554e+00 -3.402548e+00 -2.977012e+00 -2.790939e+00 -2.883727e+00 -3.272475e+00 -3.718346e+00 -4.227455e+00 -4.315320e+00 -4.215708e+00 -4.008767e+00 -3.860265e+00 -3.921316e+00 -3.959651e+00 -3.964230e+00 -3.967797e+00 -3.975688e+00 -3.969581e+00 -3.975541e+00 -3.969161e+00 -3.969159e+00 -3.966931e+00 -3.961848e+00 -3.963777e+00 -3.955980e+00 -3.960366e+00 -3.952023e+00 -3.957093e+00 -3.949678e+00 -3.954188e+00 -3.948502e+00 -3.951776e+00 -3.948158e+00 -3.949928e+00 -3.948467e+00 
-3.948725e+00 -3.949384e+00 -3.947949e+00 -3.951056e+00 -3.947870e+00 -3.953668e+00 -3.948484e+00 -3.957467e+00 -3.949857e+00 -3.962761e+00 -3.952197e+00 -3.969867e+00 -3.955963e+00 -3.978987e+00 -3.961974e+00 -3.990077e+00 -3.971266e+00 -4.002597e+00 -3.983557e+00 -4.014600e+00 -3.992480e+00 -4.024776e+00 -4.007728e+00 -4.071963e+00 -4.213681e+00 -3.898828e+00 -2.565154e+00 -4.535282e-01 1.852511e+00 3.942521e+00 5.826152e+00 7.005667e+00 7.438706e+00 7.200714e+00 6.254957e+00 4.611927e+00 2.364897e+00 2.538417e-01 -2.208115e+00 -3.702094e+00 -4.162866e+00 -4.112082e+00 -3.968778e+00 -3.997831e+00 -3.980459e+00 -4.000978e+00 -3.982181e+00 -3.985027e+00 -3.977266e+00 -3.971705e+00 -3.971626e+00 -3.962507e+00 -3.966828e+00 -3.956342e+00 -3.962593e+00 -3.952379e+00 -3.958725e+00 -3.949996e+00 -3.955288e+00 -3.948723e+00 -3.952417e+00 -3.948262e+00 -3.950215e+00 -3.948483e+00 
-3.948176e+00 -3.948386e+00 -3.947434e+00 -3.950067e+00 -3.947480e+00 -3.952703e+00 -3.948318e+00 -3.956602e+00 -3.950061e+00 -3.962186e+00 -3.953040e+00 -3.969993e+00 -3.957917e+00 -3.980709e+00 -3.965677e+00 -3.995410e+00 -3.977038e+00 -4.015255e+00 -3.989900e+00 -4.031829e+00 -3.981180e+00 -3.966750e+00 -4.053262e+00 -3.699496e+00 -2.108499e+00 1.886226e+00 6.380072e+00 9.458584e+00 1.184710e+01 1.297310e+01 1.360321e+01 1.383428e+01 1.389249e+01 1.384932e+01 1.372085e+01 1.321002e+01 1.224880e+01 1.036655e+01 7.019166e+00 3.236762e+00 -8.548752e-01 -3.313009e+00 -4.025454e+00 -3.991598e+00 -3.975769e+00 -3.995868e+00 -3.978408e+00 -3.993104e+00 -3.978919e+00 -3.978684e+00 -3.975035e+00 -3.965649e+00 -3.969814e+00 -3.956861e+00 -3.964515e+00 -3.951679e+00 -3.959651e+00 -3.948902e+00 -3.955494e+00 -3.947586e+00 -3.952179e+00 -3.947183e+00 -3.949744e+00 -3.947459e+00 
-3.948201e+00 -3.948237e+00 -3.947340e+00 -3.949918e+00 -3.947364e+00 -3.952718e+00 -3.948197e+00 -3.957023e+00 -3.949815e+00 -3.963360e+00 -3.952334e+00 -3.972336e+00 -3.956230e+00 -3.984491e+00 -3.962881e+00 -4.000214e+00 -3.975468e+00 -4.019433e+00 -3.997331e+00 -4.035869e+00 -3.995500e+00 -3.944541e+00 -2.688239e+00 1.778968e+00 6.602184e+00 1.053126e+01 1.313202e+01 1.350272e+01 1.375549e+01 1.357270e+01 1.342414e+01 1.329738e+01 1.328780e+01 1.328005e+01 1.340198e+01 1.351188e+01 1.376379e+01 1.364566e+01 1.325240e+01 1.168433e+01 7.973584e+00 3.110261e+00 -1.833353e+00 -3.757391e+00 -3.996720e+00 -4.038233e+00 -4.001372e+00 -3.995349e+00 -3.989129e+00 -3.975160e+00 -3.979141e+00 -3.963702e+00 -3.972549e+00 -3.956410e+00 -3.966888e+00 -3.951901e+00 -3.961539e+00 -3.949284e+00 -3.956774e+00 -3.947886e+00 -3.952893e+00 -3.947312e+00 -3.950033e+00 -3.947418e+00 
-3.947103e+00 -3.946890e+00 -3.946304e+00 -3.948472e+00 -3.946415e+00 -3.951081e+00 -3.947349e+00 -3.955146e+00 -3.949119e+00 -3.961277e+00 -3.952024e+00 -3.970238e+00 -3.957061e+00 -3.983034e+00 -3.966622e+00 -4.002478e+00 -3.984972e+00 -4.041487e+00 -4.025725e+00 -4.144918e+00 -3.789564e+00 -1.217961e+00 4.061820e+00 9.875770e+00 1.296024e+01 1.336997e+01 1.335741e+01 1.314308e+01 1.320612e+01 1.327704e+01 1.343812e+01 1.350348e+01 1.356023e+01 1.351495e+01 1.347009e+01 1.330903e+01 1.322822e+01 1.312101e+01 1.328318e+01 1.342632e+01 1.307705e+01 1.097104e+01 6.092340e+00 4.263474e-01 -3.457770e+00 -4.009624e+00 -3.987590e+00 -4.022066e+00 -3.993819e+00 -3.987653e+00 -3.985180e+00 -3.965726e+00 -3.976330e+00 -3.954454e+00 -3.968505e+00 -3.949171e+00 -3.961726e+00 -3.946872e+00 -3.956170e+00 -3.945967e+00 -3.951921e+00 -3.945757e+00 -3.948934e+00 -3.946046e+00 
-3.946947e+00 -3.946463e+00 -3.946070e+00 -3.947864e+00 -3.946229e+00 -3.950412e+00 -3.947243e+00 -3.954632e+00 -3.948911e+00 -3.961313e+00 -3.951008e+00 -3.971473e+00 -3.953485e+00 -3.986171e+00 -3.957633e+00 -4.006864e+00 -3.970613e+00 -4.038683e+00 -4.032514e+00 -3.782760e+00 -6.547151e-01 6.242794e+00 1.153753e+01 1.307132e+01 1.324889e+01 1.317208e+01 1.330213e+01 1.333288e+01 1.344570e+01 1.339028e+01 1.339461e+01 1.333631e+01 1.335426e+01 1.332993e+01 1.338269e+01 1.337795e+01 1.343122e+01 1.335585e+01 1.327134e+01 1.315350e+01 1.314240e+01 1.329227e+01 1.247679e+01 8.192386e+00 1.057246e+00 -3.099172e+00 -4.036108e+00 -3.983923e+00 -3.999756e+00 -3.970532e+00 -3.983684e+00 -3.960900e+00 -3.977380e+00 -3.953665e+00 -3.970854e+00 -3.949522e+00 -3.963807e+00 -3.947410e+00 -3.957476e+00 -3.946351e+00 -3.952513e+00 -3.945870e+00 -3.949038e+00 -3.945871e+00 
-3.945206e+00 -3.944856e+00 -3.944446e+00 -3.945996e+00 -3.944631e+00 -3.948047e+00 -3.945522e+00 -3.951523e+00 -3.946831e+00 -3.957196e+00 -3.948334e+00 -3.965911e+00 -3.950659e+00 -3.977583e+00 -3.957575e+00 -3.989250e+00 -3.970774e+00 -4.006566e+00 -3.765555e+00 -5.712941e-01 6.547322e+00 1.203030e+01 1.333104e+01 1.321249e+01 1.328799e+01 1.326872e+01 1.330779e+01 1.324086e+01 1.329468e+01 1.329531e+01 1.337074e+01 1.337808e+01 1.341650e+01 1.338296e+01 1.337565e+01 1.330611e+01 1.328645e+01 1.324563e+01 1.326584e+01 1.330123e+01 1.323672e+01 1.326821e+01 1.317310e+01 1.262468e+01 8.625381e+00 1.518468e+00 -3.297469e+00 -4.093684e+00 -4.024881e+00 -3.984563e+00 -3.995409e+00 -3.954637e+00 -3.981246e+00 -3.945468e+00 -3.971006e+00 -3.943325e+00 -3.962366e+00 -3.943309e+00 -3.955500e+00 -3.943667e+00 -3.950486e+00 -3.943961e+00 -3.947140e+00 -3.944275e+00 
-3.944637e+00 -3.944029e+00 -3.943886e+00 -3.944736e+00 -3.944247e+00 -3.946353e+00 -3.945450e+00 -3.949450e+00 -3.947071e+00 -3.955040e+00 -3.948221e+00 -3.964653e+00 -3.947214e+00 -3.979846e+00 -3.941478e+00 -4.001461e+00 -3.918003e+00 -3.980145e+00 -1.506006e+00 5.917507e+00 1.206210e+01 1.320818e+01 1.323088e+01 1.323394e+01 1.326342e+01 1.324080e+01 1.330254e+01 1.329643e+01 1.335609e+01 1.333041e+01 1.335883e+01 1.332751e+01 1.334984e+01 1.332529e+01 1.334950e+01 1.332688e+01 1.333804e+01 1.329961e+01 1.326988e+01 1.323779e+01 1.320841e+01 1.323948e+01 1.318250e+01 1.315090e+01 1.274370e+01 8.361693e+00 1.469809e-01 -3.798248e+00 -3.978277e+00 -3.962369e+00 -3.977910e+00 -3.954538e+00 -3.981208e+00 -3.946574e+00 -3.974389e+00 -3.944320e+00 -3.964841e+00 -3.944095e+00 -3.956597e+00 -3.944119e+00 -3.950630e+00 -3.944001e+00 -3.946773e+00 -3.943880e+00 
-3.942241e+00 -3.942358e+00 -3.941698e+00 -3.942600e+00 -3.942051e+00 -3.943371e+00 -3.942925e+00 -3.945148e+00 -3.943549e+00 -3.948926e+00 -3.942238e+00 -3.956622e+00 -3.937202e+00 -3.969812e+00 -3.940379e+00 -3.970644e+00 -4.070827e+00 -2.763018e+00 3.896283e+00 1.116461e+01 1.322713e+01 1.318589e+01 1.328619e+01 1.322978e+01 1.328925e+01 1.326008e+01 1.330119e+01 1.327091e+01 1.331189e+01 1.329980e+01 1.334213e+01 1.333248e+01 1.335851e+01 1.333452e+01 1.333945e+01 1.330462e+01 1.329970e+01 1.327670e+01 1.327286e+01 1.327311e+01 1.324681e+01 1.324105e+01 1.321724e+01 1.316346e+01 1.320313e+01 1.238116e+01 6.709196e+00 -9.008775e-01 -3.991507e+00 -3.899042e+00 -3.988625e+00 -3.920492e+00 -3.980125e+00 -3.927426e+00 -3.970402e+00 -3.934105e+00 -3.960400e+00 -3.938741e+00 -3.952586e+00 -3.941175e+00 -3.947264e+00 -3.942119e+00 -3.943976e+00 -3.942326e+00 
-3.940994e+00 -3.941076e+00 -3.940585e+00 -3.940613e+00 -3.941238e+00 -3.940469e+00 -3.942728e+00 -3.940991e+00 -3.944611e+00 -3.943201e+00 -3.945555e+00 -3.949872e+00 -3.943133e+00 -3.965594e+00 -3.943284e+00 -3.972316e+00 -3.902936e+00 9.935148e-01 9.699989e+00 1.311397e+01 1.320505e+01 1.324596e+01 1.324175e+01 1.325101e+01 1.326968e+01 1.326553e+01 1.329846e+01 1.329234e+01 1.332632e+01 1.331223e+01 1.333659e+01 1.331778e+01 1.333607e+01 1.331701e+01 1.333031e+01 1.331115e+01 1.331336e+01 1.329337e+01 1.327655e+01 1.326778e+01 1.323637e+01 1.325934e+01 1.319778e+01 1.326189e+01 1.313040e+01 1.337748e+01 1.156109e+01 3.587255e+00 -3.314588e+00 -4.071051e+00 -3.966693e+00 -3.945485e+00 -3.992465e+00 -3.930985e+00 -3.978609e+00 -3.935339e+00 -3.963411e+00 -3.939641e+00 -3.952867e+00 -3.941639e+00 -3.946414e+00 -3.942030e+00 -3.942762e+00 -3.941654e+00 
-3.938092e+00 -3.939649e+00 -3.938000e+00 -3.938528e+00 -3.938693e+00 -3.937245e+00 -3.939946e+00 -3.935809e+00 -3.940913e+00 -3.934914e+00 -3.937598e+00 -3.939257e+00 -3.912985e+00 -3.972937e+00 -3.797004e+00 -4.144794e+00 -2.136601e+00 5.788005e+00 1.257832e+01 1.326280e+01 1.317857e+01 1.323926e+01 1.325241e+01 1.325419e+01 1.328102e+01 1.327252e+01 1.329889e+01 1.328626e+01 1.331277e+01 1.330231e+01 1.332759e+01 1.331604e+01 1.333391e+01 1.331672e+01 1.332461e+01 1.330403e+01 1.330459e+01 1.328881e+01 1.328377e+01 1.327695e+01 1.326097e+01 1.325779e+01 1.323599e+01 1.323706e+01 1.321848e+01 1.325608e+01 1.304115e+01 8.685118e+00 4.903144e-02 -3.978359e+00 -3.918414e+00 -3.899960e+00 -3.978273e+00 -3.907036e+00 -3.967975e+00 -3.924953e+00 -3.954903e+00 -3.935314e+00 -3.946476e+00 -3.939688e+00 -3.941702e+00 -3.940856e+00 -3.939186e+00 -3.940546e+00 
-3.935987e+00 -3.937994e+00 -3.936146e+00 -3.935998e+00 -3.937091e+00 -3.933414e+00 -3.938902e+00 -3.929738e+00 -3.941629e+00 -3.924790e+00 -3.943645e+00 -3.923069e+00 -3.932826e+00 -3.958659e+00 -3.838047e+00 -4.134464e+00 1.190135e+00 1.009015e+01 1.338799e+01 1.309583e+01 1.326587e+01 1.321568e+01 1.325667e+01 1.325652e+01 1.327458e+01 1.327824e+01 1.329606e+01 1.329561e+01 1.331406e+01 1.330732e+01 1.332331e+01 1.331195e+01 1.332500e+01 1.331154e+01 1.332071e+01 1.330671e+01 1.330889e+01 1.329620e+01 1.328796e+01 1.328174e+01 1.326288e+01 1.326767e+01 1.323988e+01 1.324362e+01 1.323860e+01 1.316168e+01 1.337391e+01 1.219237e+01 4.158955e+00 -3.296446e+00 -4.170832e+00 -3.826990e+00 -4.041934e+00 -3.894049e+00 -3.982036e+00 -3.924236e+00 -3.955830e+00 -3.936310e+00 -3.944242e+00 -3.940231e+00 -3.939044e+00 -3.940645e+00 -3.936768e+00 -3.939614e+00 
-3.932954e+00 -3.937169e+00 -3.933456e+00 -3.934457e+00 -3.934471e+00 -3.930750e+00 -3.936511e+00 -3.924760e+00 -3.941079e+00 -3.913534e+00 -3.952034e+00 -3.890727e+00 -3.978565e+00 -3.844080e+00 -4.032400e+00 -3.118290e+00 5.228581e+00 1.258067e+01 1.339346e+01 1.318591e+01 1.326240e+01 1.325193e+01 1.326439e+01 1.327498e+01 1.328302e+01 1.328842e+01 1.329906e+01 1.329752e+01 1.331082e+01 1.330518e+01 1.331943e+01 1.331041e+01 1.332263e+01 1.331008e+01 1.331845e+01 1.330413e+01 1.330841e+01 1.329575e+01 1.329490e+01 1.328667e+01 1.327637e+01 1.327596e+01 1.324857e+01 1.327110e+01 1.320256e+01 1.329516e+01 1.310488e+01 1.325967e+01 8.109100e+00 -1.158330e+00 -4.344913e+00 -3.725243e+00 -4.047182e+00 -3.873822e+00 -3.966984e+00 -3.921278e+00 -3.943323e+00 -3.936689e+00 -3.935878e+00 -3.940874e+00 -3.933517e+00 -3.940902e+00 -3.932887e+00 -3.939360e+00 
-3.930110e+00 -3.935353e+00 -3.930916e+00 -3.931860e+00 -3.931819e+00 -3.926974e+00 -3.933445e+00 -3.918622e+00 -3.937999e+00 -3.901110e+00 -3.953253e+00 -3.857276e+00 -4.008151e+00 -3.729631e+00 -4.213950e+00 -1.115671e+00 8.973998e+00 1.338536e+01 1.311119e+01 1.328025e+01 1.320750e+01 1.327120e+01 1.324829e+01 1.328226e+01 1.327503e+01 1.329329e+01 1.329454e+01 1.330190e+01 1.330804e+01 1.330731e+01 1.331560e+01 1.330939e+01 1.331821e+01 1.330878e+01 1.331670e+01 1.330575e+01 1.331094e+01 1.330008e+01 1.330049e+01 1.329244e+01 1.328546e+01 1.328588e+01 1.326309e+01 1.329057e+01 1.321810e+01 1.335718e+01 1.307114e+01 1.372049e+01 1.119077e+01 1.519070e+00 -4.302651e+00 -3.770546e+00 -4.027041e+00 -3.892838e+00 -3.951252e+00 -3.929509e+00 -3.932276e+00 -3.940063e+00 -3.928414e+00 -3.941862e+00 -3.928426e+00 -3.940598e+00 -3.929246e+00 -3.938231e+00 
-3.927549e+00 -3.935376e+00 -3.928488e+00 -3.931367e+00 -3.929048e+00 -3.926154e+00 -3.929886e+00 -3.917891e+00 -3.933544e+00 -3.901825e+00 -3.950172e+00 -3.864541e+00 -4.020651e+00 -3.765976e+00 -4.310078e+00 5.413713e-01 1.120963e+01 1.374005e+01 1.313603e+01 1.339494e+01 1.322786e+01 1.332021e+01 1.326410e+01 1.330660e+01 1.328600e+01 1.330592e+01 1.330024e+01 1.330718e+01 1.330942e+01 1.330856e+01 1.331521e+01 1.330922e+01 1.331770e+01 1.330800e+01 1.331672e+01 1.330467e+01 1.331301e+01 1.329999e+01 1.330726e+01 1.329419e+01 1.329834e+01 1.328774e+01 1.328309e+01 1.328773e+01 1.325409e+01 1.332032e+01 1.318650e+01 1.346053e+01 1.259706e+01 4.374681e+00 -3.789147e+00 -3.930662e+00 -3.909908e+00 -3.943163e+00 -3.909326e+00 -3.948460e+00 -3.914209e+00 -3.948381e+00 -3.919429e+00 -3.945845e+00 -3.923353e+00 -3.942501e+00 -3.925944e+00 -3.938984e+00 
-3.924587e+00 -3.933621e+00 -3.925806e+00 -3.929241e+00 -3.925775e+00 -3.923761e+00 -3.924505e+00 -3.915814e+00 -3.922456e+00 -3.902507e+00 -3.923308e+00 -3.877454e+00 -3.945642e+00 -3.828396e+00 -4.064126e+00 2.262460e+00 1.234253e+01 1.358306e+01 1.315987e+01 1.337794e+01 1.322377e+01 1.332056e+01 1.325790e+01 1.330838e+01 1.328020e+01 1.330739e+01 1.329545e+01 1.330837e+01 1.330562e+01 1.330906e+01 1.331185e+01 1.330894e+01 1.331506e+01 1.330790e+01 1.331599e+01 1.330584e+01 1.331527e+01 1.330254e+01 1.331357e+01 1.329760e+01 1.331189e+01 1.329106e+01 1.331235e+01 1.328541e+01 1.332226e+01 1.328909e+01 1.337239e+01 1.329269e+01 1.359218e+01 6.923888e+00 -3.143242e+00 -4.052808e+00 -3.799242e+00 -3.980437e+00 -3.863027e+00 -3.960375e+00 -3.892402e+00 -3.951902e+00 -3.908073e+00 -3.946328e+00 -3.916877e+00 -3.941761e+00 -3.921863e+00 -3.937643e+00 
-3.923250e+00 -3.934423e+00 -3.924270e+00 -3.929765e+00 -3.923455e+00 -3.924546e+00 -3.920028e+00 -3.918214e+00 -3.911850e+00 -3.910693e+00 -3.893916e+00 -3.904632e+00 -3.853999e+00 -3.915492e+00 -3.739082e+00 4.092945e+00 1.324723e+01 1.342346e+01 1.327676e+01 1.337147e+01 1.326995e+01 1.333803e+01 1.328058e+01 1.332393e+01 1.329306e+01 1.331747e+01 1.330267e+01 1.331373e+01 1.330925e+01 1.331137e+01 1.331359e+01 1.330965e+01 1.331609e+01 1.330776e+01 1.331709e+01 1.330529e+01 1.331752e+01 1.330210e+01 1.331868e+01 1.329743e+01 1.332227e+01 1.328965e+01 1.333318e+01 1.327767e+01 1.336801e+01 1.326017e+01 1.347754e+01 1.321580e+01 1.381007e+01 8.252548e+00 -2.576748e+00 -4.130704e+00 -3.771259e+00 -4.021604e+00 -3.845547e+00 -3.980712e+00 -3.883718e+00 -3.962023e+00 -3.903787e+00 -3.951525e+00 -3.914539e+00 -3.944514e+00 -3.920315e+00 -3.939123e+00 
-3.921159e+00 -3.932837e+00 -3.922482e+00 -3.928174e+00 -3.921263e+00 -3.923151e+00 -3.916140e+00 -3.917983e+00 -3.902936e+00 -3.915056e+00 -3.870098e+00 -3.924615e+00 -3.784641e+00 -3.984294e+00 -3.490427e+00 5.132370e+00 1.361484e+01 1.332826e+01 1.335746e+01 1.334421e+01 1.328625e+01 1.332924e+01 1.327915e+01 1.331979e+01 1.328777e+01 1.331497e+01 1.329752e+01 1.331225e+01 1.330519e+01 1.331053e+01 1.331059e+01 1.330922e+01 1.331412e+01 1.330785e+01 1.331645e+01 1.330609e+01 1.331866e+01 1.330353e+01 1.332245e+01 1.329903e+01 1.333082e+01 1.329014e+01 1.335111e+01 1.327282e+01 1.340341e+01 1.323880e+01 1.353548e+01 1.315715e+01 1.382078e+01 9.201584e+00 -1.956279e+00 -4.102520e+00 -3.705767e+00 -4.018975e+00 -3.810623e+00 -3.979755e+00 -3.865734e+00 -3.960522e+00 -3.894343e+00 -3.949823e+00 -3.909333e+00 -3.942848e+00 -3.917220e+00 -3.937523e+00 
-3.921589e+00 -3.934146e+00 -3.922565e+00 -3.929327e+00 -3.920950e+00 -3.924377e+00 -3.914984e+00 -3.919604e+00 -3.899298e+00 -3.917758e+00 -3.858597e+00 -3.930094e+00 -3.748510e+00 -3.996637e+00 -3.351495e+00 5.511451e+00 1.365518e+01 1.327316e+01 1.338299e+01 1.333819e+01 1.330431e+01 1.333667e+01 1.329230e+01 1.332824e+01 1.329730e+01 1.332120e+01 1.330407e+01 1.331601e+01 1.330942e+01 1.331246e+01 1.331326e+01 1.331000e+01 1.331581e+01 1.330786e+01 1.331751e+01 1.330555e+01 1.331945e+01 1.330271e+01 1.332342e+01 1.329814e+01 1.333254e+01 1.328910e+01 1.335493e+01 1.327115e+01 1.341322e+01 1.323534e+01 1.355843e+01 1.315080e+01 1.385280e+01 9.491068e+00 -1.776629e+00 -4.120024e+00 -3.723262e+00 -4.037073e+00 -3.820651e+00 -3.991255e+00 -3.871285e+00 -3.967297e+00 -3.897425e+00 -3.953869e+00 -3.911038e+00 -3.945389e+00 -3.918132e+00 -3.939249e+00 