# vtk DataFile Version 2.0
Comment goes here
ASCII

DATASET STRUCTURED_POINTS
FIELD FieldData 1
TIME 1 1 double
1.74000000
DIMENSIONS    64   64   1

ORIGIN    0.000   0.000   0.000
SPACING   0.015625 0.015625   1.000

POINT_DATA   4096
SCALARS P double
LOOKUP_TABLE default

-3.907127e+00 -3.904284e+00 -3.906840e+00 -3.906029e+00 -3.908274e+00 -3.909604e+00 -3.911413e+00 -3.914933e+00 -3.916229e+00 -3.921913e+00 -3.922676e+00 -3.930407e+00 -3.930676e+00 -3.940221e+00 -3.940072e+00 -3.951042e+00 -3.950551e+00 -3.962366e+00 -3.961561e+00 -3.973431e+00 -3.972268e+00 -3.983244e+00 -3.981625e+00 -3.990754e+00 -3.988601e+00 -3.995207e+00 -3.992575e+00 -3.996612e+00 -3.993801e+00 -3.996044e+00 -3.993661e+00 -3.995349e+00 -3.993980e+00 -3.995968e+00 -3.995652e+00 -3.997788e+00 -3.997893e+00 -3.999166e+00 -3.998883e+00 -3.998143e+00 -3.997144e+00 -3.993698e+00 -3.992223e+00 -3.985992e+00 -3.984497e+00 -3.975917e+00 -3.974784e+00 -3.964583e+00 -3.964033e+00 -3.952993e+00 -3.953110e+00 -3.941904e+00 -3.942681e+00 -3.931822e+00 -3.933198e+00 -3.923061e+00 -3.924949e+00 -3.915819e+00 -3.918112e+00 -3.910234e+00 -3.912809e+00 -3.906406e+00 -3.909128e+00 -3.904410e+00 
-3.907243e+00 -3.904882e+00 -3.907016e+00 -3.906706e+00 -3.908558e+00 -3.910400e+00 -3.911875e+00 -3.915903e+00 -3.916960e+00 -3.923120e+00 -3.923794e+00 -3.931933e+00 -3.932334e+00 -3.942177e+00 -3.942472e+00 -3.953612e+00 -3.953984e+00 -3.965875e+00 -3.966478e+00 -3.978471e+00 -3.979403e+00 -3.990827e+00 -3.992137e+00 -4.002435e+00 -4.004131e+00 -4.012958e+00 -4.014956e+00 -4.022141e+00 -4.024082e+00 -4.029448e+00 -4.030593e+00 -4.033890e+00 -4.033485e+00 -4.034559e+00 -4.032292e+00 -4.031197e+00 -4.027368e+00 -4.024332e+00 -4.019705e+00 -4.014921e+00 -4.010326e+00 -4.003806e+00 -3.999822e+00 -3.991597e+00 -3.988511e+00 -3.978835e+00 -3.976719e+00 -3.966063e+00 -3.964871e+00 -3.953787e+00 -3.953428e+00 -3.942421e+00 -3.942788e+00 -3.932258e+00 -3.933242e+00 -3.923499e+00 -3.924989e+00 -3.916283e+00 -3.918165e+00 -3.910724e+00 -3.912877e+00 -3.906923e+00 -3.909213e+00 -3.904959e+00 
-3.906277e+00 -3.903356e+00 -3.905985e+00 -3.905118e+00 -3.907422e+00 -3.908728e+00 -3.910579e+00 -3.914119e+00 -3.915437e+00 -3.921197e+00 -3.921964e+00 -3.929841e+00 -3.930100e+00 -3.939869e+00 -3.939704e+00 -3.950981e+00 -3.950477e+00 -3.962675e+00 -3.961867e+00 -3.974174e+00 -3.973017e+00 -3.984429e+00 -3.982820e+00 -3.992277e+00 -3.990116e+00 -3.996793e+00 -3.994089e+00 -3.997846e+00 -3.994853e+00 -3.996597e+00 -3.994021e+00 -3.995351e+00 -3.993980e+00 -3.996008e+00 -3.995928e+00 -3.998457e+00 -3.998845e+00 -4.000578e+00 -4.000366e+00 -3.999902e+00 -3.998743e+00 -3.995323e+00 -3.993630e+00 -3.987206e+00 -3.985556e+00 -3.976649e+00 -3.975440e+00 -3.964874e+00 -3.964297e+00 -3.952920e+00 -3.953031e+00 -3.941549e+00 -3.942330e+00 -3.931257e+00 -3.932650e+00 -3.922347e+00 -3.924269e+00 -3.915005e+00 -3.917350e+00 -3.909356e+00 -3.912000e+00 -3.905493e+00 -3.908292e+00 -3.903481e+00 
-3.905517e+00 -3.902998e+00 -3.905260e+00 -3.904843e+00 -3.906788e+00 -3.908598e+00 -3.910117e+00 -3.914213e+00 -3.915260e+00 -3.921612e+00 -3.922222e+00 -3.930690e+00 -3.930982e+00 -3.941290e+00 -3.941446e+00 -3.953160e+00 -3.953379e+00 -3.965897e+00 -3.966348e+00 -3.978935e+00 -3.979734e+00 -3.991638e+00 -3.992880e+00 -4.003512e+00 -4.005332e+00 -4.014432e+00 -4.016950e+00 -4.024519e+00 -4.027430e+00 -4.033278e+00 -4.035367e+00 -4.038945e+00 -4.038882e+00 -4.039837e+00 -4.037120e+00 -4.035588e+00 -4.030764e+00 -4.027313e+00 -4.021672e+00 -4.016739e+00 -4.011482e+00 -4.004895e+00 -4.000639e+00 -3.992204e+00 -3.989117e+00 -3.979044e+00 -3.977042e+00 -3.965885e+00 -3.964815e+00 -3.953229e+00 -3.952959e+00 -3.941512e+00 -3.941941e+00 -3.931049e+00 -3.932091e+00 -3.922049e+00 -3.923616e+00 -3.914655e+00 -3.916642e+00 -3.908973e+00 -3.911257e+00 -3.905093e+00 -3.907530e+00 -3.903086e+00 
-3.903726e+00 -3.900563e+00 -3.903417e+00 -3.902372e+00 -3.904861e+00 -3.906084e+00 -3.908064e+00 -3.911653e+00 -3.913037e+00 -3.919017e+00 -3.919790e+00 -3.928092e+00 -3.928313e+00 -3.938743e+00 -3.938521e+00 -3.950712e+00 -3.950156e+00 -3.963517e+00 -3.962683e+00 -3.976348e+00 -3.975201e+00 -3.988017e+00 -3.986444e+00 -3.997030e+00 -3.994876e+00 -4.001862e+00 -3.998986e+00 -4.001767e+00 -3.998127e+00 -3.998027e+00 -3.994691e+00 -3.994699e+00 -3.993280e+00 -3.995473e+00 -3.996281e+00 -4.000265e+00 -4.001753e+00 -4.005112e+00 -4.005132e+00 -4.005572e+00 -4.003771e+00 -4.000403e+00 -3.997940e+00 -3.990857e+00 -3.988737e+00 -3.978763e+00 -3.977369e+00 -3.965646e+00 -3.965023e+00 -3.952615e+00 -3.952722e+00 -3.940416e+00 -3.941214e+00 -3.929512e+00 -3.930956e+00 -3.920169e+00 -3.922194e+00 -3.912536e+00 -3.915042e+00 -3.906706e+00 -3.909559e+00 -3.902740e+00 -3.905779e+00 -3.900685e+00 
-3.902062e+00 -3.899210e+00 -3.901745e+00 -3.901093e+00 -3.903238e+00 -3.904961e+00 -3.906580e+00 -3.910792e+00 -3.911821e+00 -3.918542e+00 -3.919016e+00 -3.928142e+00 -3.928198e+00 -3.939454e+00 -3.939306e+00 -3.952209e+00 -3.952090e+00 -3.965921e+00 -3.966024e+00 -3.979859e+00 -3.980314e+00 -3.993182e+00 -3.994143e+00 -4.005345e+00 -4.007198e+00 -4.016669e+00 -4.020170e+00 -4.028532e+00 -4.033863e+00 -4.040987e+00 -4.045559e+00 -4.049915e+00 -4.050738e+00 -4.051371e+00 -4.047496e+00 -4.044736e+00 -4.037386e+00 -4.032859e+00 -4.024821e+00 -4.019777e+00 -4.013168e+00 -4.006680e+00 -4.002009e+00 -3.993212e+00 -3.990296e+00 -3.979361e+00 -3.977718e+00 -3.965475e+00 -3.964709e+00 -3.952076e+00 -3.951989e+00 -3.939659e+00 -3.940194e+00 -3.928595e+00 -3.929734e+00 -3.919118e+00 -3.920827e+00 -3.911371e+00 -3.913568e+00 -3.905446e+00 -3.908002e+00 -3.901412e+00 -3.904157e+00 -3.899322e+00 
-3.899472e+00 -3.895878e+00 -3.899136e+00 -3.897761e+00 -3.900581e+00 -3.901630e+00 -3.903838e+00 -3.907472e+00 -3.908964e+00 -3.915272e+00 -3.916038e+00 -3.925013e+00 -3.925138e+00 -3.936637e+00 -3.936273e+00 -3.949972e+00 -3.949278e+00 -3.964599e+00 -3.963673e+00 -3.979720e+00 -3.978559e+00 -3.994029e+00 -3.992539e+00 -4.005571e+00 -4.003565e+00 -4.011547e+00 -4.008672e+00 -4.009363e+00 -4.004258e+00 -3.999614e+00 -3.994174e+00 -3.990977e+00 -3.989273e+00 -3.991944e+00 -3.994977e+00 -4.002555e+00 -4.007006e+00 -4.014053e+00 -4.014490e+00 -4.016619e+00 -4.012974e+00 -4.009559e+00 -4.005372e+00 -3.996880e+00 -3.994014e+00 -3.981938e+00 -3.980427e+00 -3.966572e+00 -3.966007e+00 -3.951816e+00 -3.951965e+00 -3.938313e+00 -3.939134e+00 -3.926450e+00 -3.927962e+00 -3.916430e+00 -3.918617e+00 -3.908346e+00 -3.911124e+00 -3.902236e+00 -3.905455e+00 -3.898115e+00 -3.901577e+00 -3.895995e+00 
-3.896886e+00 -3.893487e+00 -3.896478e+00 -3.895416e+00 -3.897902e+00 -3.899436e+00 -3.901230e+00 -3.905562e+00 -3.906569e+00 -3.913807e+00 -3.914055e+00 -3.924161e+00 -3.923815e+00 -3.936537e+00 -3.935865e+00 -3.950662e+00 -3.949959e+00 -3.965932e+00 -3.965422e+00 -3.981311e+00 -3.981092e+00 -3.995461e+00 -3.995624e+00 -4.007400e+00 -4.008529e+00 -4.017855e+00 -4.022315e+00 -4.031831e+00 -4.042421e+00 -4.052624e+00 -4.062917e+00 -4.069186e+00 -4.071913e+00 -4.071832e+00 -4.065397e+00 -4.059532e+00 -4.046602e+00 -4.039530e+00 -4.026794e+00 -4.022448e+00 -4.013919e+00 -4.008380e+00 -4.003532e+00 -3.994278e+00 -3.992146e+00 -3.979650e+00 -3.978899e+00 -3.964769e+00 -3.964590e+00 -3.950269e+00 -3.950446e+00 -3.936798e+00 -3.937425e+00 -3.924829e+00 -3.926054e+00 -3.914641e+00 -3.916534e+00 -3.906376e+00 -3.908890e+00 -3.900100e+00 -3.903088e+00 -3.895846e+00 -3.899092e+00 -3.893635e+00 
-3.893529e+00 -3.889277e+00 -3.893158e+00 -3.891252e+00 -3.894584e+00 -3.895312e+00 -3.897869e+00 -3.901484e+00 -3.903130e+00 -3.909816e+00 -3.910539e+00 -3.920375e+00 -3.920296e+00 -3.933216e+00 -3.932553e+00 -3.948298e+00 -3.947291e+00 -3.965345e+00 -3.964158e+00 -3.983687e+00 -3.982387e+00 -4.002169e+00 -4.000779e+00 -4.018759e+00 -4.017204e+00 -4.028479e+00 -4.027048e+00 -4.023878e+00 -4.015642e+00 -4.000008e+00 -3.988787e+00 -3.978276e+00 -3.975436e+00 -3.979445e+00 -3.987712e+00 -4.003940e+00 -4.016437e+00 -4.031372e+00 -4.032185e+00 -4.036594e+00 -4.027579e+00 -4.023663e+00 -4.015982e+00 -4.004682e+00 -4.001198e+00 -3.985376e+00 -3.984319e+00 -3.967033e+00 -3.966869e+00 -3.950094e+00 -3.950359e+00 -3.934941e+00 -3.935745e+00 -3.921858e+00 -3.923410e+00 -3.910982e+00 -3.913375e+00 -3.902334e+00 -3.905507e+00 -3.895881e+00 -3.899651e+00 -3.891576e+00 -3.895683e+00 -3.889383e+00 
-3.890025e+00 -3.885802e+00 -3.889494e+00 -3.887773e+00 -3.890797e+00 -3.891954e+00 -3.894040e+00 -3.898414e+00 -3.899407e+00 -3.907245e+00 -3.907154e+00 -3.918538e+00 -3.917561e+00 -3.932305e+00 -3.930802e+00 -3.948331e+00 -3.946713e+00 -3.965918e+00 -3.964470e+00 -3.983573e+00 -3.982293e+00 -3.998951e+00 -3.997490e+00 -4.009536e+00 -4.007514e+00 -4.014181e+00 -4.016978e+00 -4.027458e+00 -4.050015e+00 -4.068209e+00 -4.091816e+00 -4.102658e+00 -4.109016e+00 -4.107600e+00 -4.095718e+00 -4.081878e+00 -4.056365e+00 -4.042623e+00 -4.020974e+00 -4.021149e+00 -4.011193e+00 -4.009109e+00 -4.005173e+00 -3.995106e+00 -3.995310e+00 -3.979861e+00 -3.981030e+00 -3.963761e+00 -3.964530e+00 -3.947766e+00 -3.948163e+00 -3.932842e+00 -3.933399e+00 -3.919645e+00 -3.920846e+00 -3.908518e+00 -3.910598e+00 -3.899591e+00 -3.902536e+00 -3.892878e+00 -3.896498e+00 -3.888357e+00 -3.892353e+00 -3.886001e+00 
-3.885954e+00 -3.880752e+00 -3.885540e+00 -3.882824e+00 -3.886906e+00 -3.887082e+00 -3.890146e+00 -3.893594e+00 -3.895446e+00 -3.902479e+00 -3.903089e+00 -3.913898e+00 -3.913430e+00 -3.928037e+00 -3.926811e+00 -3.945032e+00 -3.943402e+00 -3.964801e+00 -3.963003e+00 -3.986890e+00 -3.985073e+00 -4.010874e+00 -4.009378e+00 -4.036978e+00 -4.035485e+00 -4.057884e+00 -4.064811e+00 -4.055937e+00 -4.040809e+00 -3.996940e+00 -3.969333e+00 -3.942720e+00 -3.936348e+00 -3.943778e+00 -3.963491e+00 -4.001167e+00 -4.037209e+00 -4.069407e+00 -4.068868e+00 -4.073454e+00 -4.047986e+00 -4.042553e+00 -4.028670e+00 -4.011811e+00 -4.009729e+00 -3.987368e+00 -3.988566e+00 -3.966118e+00 -3.966994e+00 -3.946926e+00 -3.947267e+00 -3.929945e+00 -3.930518e+00 -3.915476e+00 -3.916934e+00 -3.903636e+00 -3.906252e+00 -3.894377e+00 -3.898095e+00 -3.887572e+00 -3.892133e+00 -3.883091e+00 -3.888132e+00 -3.880836e+00 
-3.881563e+00 -3.876148e+00 -3.880880e+00 -3.878136e+00 -3.881981e+00 -3.882445e+00 -3.885006e+00 -3.889211e+00 -3.890227e+00 -3.898633e+00 -3.898056e+00 -3.910946e+00 -3.909012e+00 -3.926351e+00 -3.923568e+00 -3.944828e+00 -3.941828e+00 -3.965746e+00 -3.962985e+00 -3.987170e+00 -3.984671e+00 -4.005263e+00 -4.002092e+00 -4.014686e+00 -4.003933e+00 -3.998997e+00 -3.985596e+00 -3.993919e+00 -4.047577e+00 -4.088969e+00 -4.144699e+00 -4.165370e+00 -4.176567e+00 -4.173857e+00 -4.151531e+00 -4.116758e+00 -4.060944e+00 -4.026783e+00 -3.987961e+00 -4.008626e+00 -4.002919e+00 -4.009843e+00 -4.008973e+00 -3.995650e+00 -4.001709e+00 -3.980158e+00 -3.984981e+00 -3.962595e+00 -3.964512e+00 -3.944549e+00 -3.944726e+00 -3.927654e+00 -3.927660e+00 -3.912866e+00 -3.913769e+00 -3.900589e+00 -3.902824e+00 -3.890897e+00 -3.894430e+00 -3.883711e+00 -3.888238e+00 -3.878915e+00 -3.883997e+00 -3.876410e+00 
-3.876859e+00 -3.870319e+00 -3.876396e+00 -3.872480e+00 -3.877635e+00 -3.876903e+00 -3.880699e+00 -3.883710e+00 -3.885843e+00 -3.893083e+00 -3.893471e+00 -3.905273e+00 -3.904131e+00 -3.920601e+00 -3.918408e+00 -3.939397e+00 -3.936676e+00 -3.961732e+00 -3.958692e+00 -3.986908e+00 -3.983631e+00 -4.015013e+00 -4.013305e+00 -4.056959e+00 -4.047276e+00 -4.107652e+00 -4.153783e+00 -4.143326e+00 -4.110685e+00 -3.986161e+00 -3.910638e+00 -3.852682e+00 -3.838595e+00 -3.852536e+00 -3.891260e+00 -3.983764e+00 -4.096203e+00 -4.170084e+00 -4.157511e+00 -4.144414e+00 -4.065708e+00 -4.059304e+00 -4.039120e+00 -4.010779e+00 -4.018919e+00 -3.985133e+00 -3.992631e+00 -3.963010e+00 -3.965417e+00 -3.941921e+00 -3.941682e+00 -3.922981e+00 -3.922678e+00 -3.906996e+00 -3.908052e+00 -3.894161e+00 -3.897009e+00 -3.884327e+00 -3.888813e+00 -3.877236e+00 -3.882928e+00 -3.872642e+00 -3.879009e+00 -3.870368e+00 
-3.871647e+00 -3.864544e+00 -3.870786e+00 -3.866497e+00 -3.871572e+00 -3.870838e+00 -3.874164e+00 -3.877782e+00 -3.878914e+00 -3.887657e+00 -3.886416e+00 -3.900892e+00 -3.897527e+00 -3.917975e+00 -3.913229e+00 -3.939311e+00 -3.934199e+00 -3.964749e+00 -3.960034e+00 -3.992364e+00 -3.988815e+00 -4.017152e+00 -4.018479e+00 -4.039567e+00 -4.014946e+00 -3.968151e+00 -3.871037e+00 -3.861217e+00 -4.011813e+00 -4.128567e+00 -4.264328e+00 -4.298664e+00 -4.304171e+00 -4.308054e+00 -4.273512e+00 -4.183597e+00 -4.048021e+00 -3.941053e+00 -3.866882e+00 -3.975020e+00 -4.002126e+00 -4.023283e+00 -4.023597e+00 -3.994952e+00 -4.015207e+00 -3.981017e+00 -3.991765e+00 -3.961662e+00 -3.963924e+00 -3.940579e+00 -3.939100e+00 -3.920957e+00 -3.919358e+00 -3.904164e+00 -3.904293e+00 -3.890574e+00 -3.892950e+00 -3.880105e+00 -3.884495e+00 -3.872501e+00 -3.878348e+00 -3.867491e+00 -3.874136e+00 -3.864875e+00 
-3.866420e+00 -3.858026e+00 -3.865899e+00 -3.860236e+00 -3.866913e+00 -3.864741e+00 -3.869598e+00 -3.871724e+00 -3.874263e+00 -3.881432e+00 -3.881442e+00 -3.894181e+00 -3.891922e+00 -3.910393e+00 -3.906654e+00 -3.930670e+00 -3.926323e+00 -3.955350e+00 -3.950212e+00 -3.981776e+00 -3.974500e+00 -4.002271e+00 -4.009445e+00 -4.062994e+00 -3.983098e+00 -4.173102e+00 -4.398849e+00 -4.435199e+00 -4.323448e+00 -3.749996e+00 -3.086991e+00 -2.534122e+00 -2.299294e+00 -2.456001e+00 -2.920852e+00 -3.622202e+00 -4.259555e+00 -4.491847e+00 -4.410574e+00 -4.278855e+00 -4.019935e+00 -4.037848e+00 -4.041220e+00 -3.984254e+00 -4.031118e+00 -3.977400e+00 -3.996360e+00 -3.958487e+00 -3.960433e+00 -3.935181e+00 -3.931935e+00 -3.913698e+00 -3.911111e+00 -3.895987e+00 -3.896167e+00 -3.882214e+00 -3.885400e+00 -3.871979e+00 -3.877627e+00 -3.864788e+00 -3.872122e+00 -3.860227e+00 -3.868462e+00 -3.858019e+00 
-3.860480e+00 -3.851040e+00 -3.859428e+00 -3.852865e+00 -3.859758e+00 -3.857051e+00 -3.861608e+00 -3.863900e+00 -3.865362e+00 -3.873885e+00 -3.871782e+00 -3.887653e+00 -3.882160e+00 -3.906054e+00 -3.898286e+00 -3.930165e+00 -3.921843e+00 -3.961056e+00 -3.952772e+00 -3.998007e+00 -3.989385e+00 -4.030342e+00 -4.066605e+00 -4.152749e+00 -4.161095e+00 -3.854718e+00 -2.162356e+00 5.398581e-01 3.037578e+00 5.416305e+00 7.298881e+00 8.412320e+00 8.820381e+00 8.564495e+00 7.591814e+00 5.873583e+00 3.584591e+00 1.034787e+00 -1.766510e+00 -3.746131e+00 -4.100094e+00 -4.113941e+00 -4.067301e+00 -3.977855e+00 -4.039474e+00 -3.984683e+00 -4.001258e+00 -3.961951e+00 -3.960381e+00 -3.935590e+00 -3.929007e+00 -3.912091e+00 -3.907040e+00 -3.892877e+00 -3.891673e+00 -3.877969e+00 -3.880671e+00 -3.866903e+00 -3.872675e+00 -3.859100e+00 -3.866909e+00 -3.854060e+00 -3.862930e+00 -3.851433e+00 
-3.854856e+00 -3.843931e+00 -3.854269e+00 -3.846101e+00 -3.854925e+00 -3.850522e+00 -3.856945e+00 -3.857465e+00 -3.860647e+00 -3.867259e+00 -3.866668e+00 -3.880233e+00 -3.876122e+00 -3.896798e+00 -3.890633e+00 -3.918050e+00 -3.911938e+00 -3.946672e+00 -3.939808e+00 -3.979950e+00 -3.952682e+00 -3.951408e+00 -4.068463e+00 -3.848334e+00 -1.586091e+00 2.771099e+00 7.033270e+00 1.036792e+01 1.248536e+01 1.341812e+01 1.387824e+01 1.398359e+01 1.401302e+01 1.401672e+01 1.388270e+01 1.361781e+01 1.280996e+01 1.100907e+01 7.694958e+00 3.760641e+00 -3.337382e-01 -3.553731e+00 -4.052846e+00 -3.910231e+00 -4.061985e+00 -3.978396e+00 -3.999126e+00 -3.957757e+00 -3.948122e+00 -3.927089e+00 -3.915161e+00 -3.901288e+00 -3.894294e+00 -3.881617e+00 -3.880634e+00 -3.867217e+00 -3.871247e+00 -3.857017e+00 -3.864583e+00 -3.850113e+00 -3.859862e+00 -3.845855e+00 -3.856689e+00 -3.843852e+00 
-3.848311e+00 -3.835717e+00 -3.847083e+00 -3.837266e+00 -3.846809e+00 -3.840984e+00 -3.847527e+00 -3.847270e+00 -3.849530e+00 -3.856740e+00 -3.853622e+00 -3.870253e+00 -3.861570e+00 -3.888998e+00 -3.876547e+00 -3.914817e+00 -3.902516e+00 -3.951122e+00 -3.938976e+00 -4.007690e+00 -3.951936e+00 -3.905788e+00 -2.284868e+00 1.923343e+00 6.920968e+00 1.129482e+01 1.327408e+01 1.360613e+01 1.373549e+01 1.350793e+01 1.339667e+01 1.329894e+01 1.328384e+01 1.330738e+01 1.336205e+01 1.353222e+01 1.369025e+01 1.373394e+01 1.337518e+01 1.206427e+01 8.127640e+00 2.768090e+00 -1.574642e+00 -3.821571e+00 -4.067551e+00 -4.014411e+00 -4.011249e+00 -3.965379e+00 -3.947638e+00 -3.928277e+00 -3.910167e+00 -3.899522e+00 -3.888651e+00 -3.877749e+00 -3.875096e+00 -3.861907e+00 -3.865745e+00 -3.850793e+00 -3.858976e+00 -3.843299e+00 -3.854052e+00 -3.838594e+00 -3.850579e+00 -3.836151e+00 
-3.842417e+00 -3.828112e+00 -3.841756e+00 -3.830065e+00 -3.841902e+00 -3.834092e+00 -3.842891e+00 -3.840619e+00 -3.844940e+00 -3.850134e+00 -3.848672e+00 -3.862935e+00 -3.855549e+00 -3.878896e+00 -3.868347e+00 -3.898694e+00 -3.891687e+00 -3.933739e+00 -3.944244e+00 -4.039330e+00 -3.749605e+00 -1.358255e+00 4.392483e+00 1.024757e+01 1.282140e+01 1.337847e+01 1.331418e+01 1.314305e+01 1.327181e+01 1.339040e+01 1.355406e+01 1.362160e+01 1.365806e+01 1.364194e+01 1.356803e+01 1.344928e+01 1.330831e+01 1.317147e+01 1.329364e+01 1.342666e+01 1.300467e+01 1.107470e+01 6.039316e+00 -1.469705e-01 -3.571662e+00 -4.064374e+00 -3.988744e+00 -3.966988e+00 -3.918414e+00 -3.914774e+00 -3.886932e+00 -3.883208e+00 -3.870615e+00 -3.862246e+00 -3.861040e+00 -3.848235e+00 -3.854579e+00 -3.839000e+00 -3.849851e+00 -3.833079e+00 -3.846367e+00 -3.829563e+00 -3.843927e+00 -3.827966e+00 
-3.835422e+00 -3.818723e+00 -3.834088e+00 -3.819773e+00 -3.833111e+00 -3.822554e+00 -3.832310e+00 -3.827553e+00 -3.831632e+00 -3.835532e+00 -3.831518e+00 -3.847539e+00 -3.833890e+00 -3.864947e+00 -3.844141e+00 -3.889677e+00 -3.873928e+00 -3.922335e+00 -3.950775e+00 -3.755155e+00 -5.908506e-01 6.153310e+00 1.152022e+01 1.321766e+01 1.321053e+01 1.319443e+01 1.332577e+01 1.336500e+01 1.343694e+01 1.338205e+01 1.337577e+01 1.333900e+01 1.333942e+01 1.334477e+01 1.336541e+01 1.339991e+01 1.343174e+01 1.340066e+01 1.336172e+01 1.318931e+01 1.325905e+01 1.334540e+01 1.229183e+01 7.491496e+00 3.866370e-01 -3.370213e+00 -4.033047e+00 -3.957549e+00 -3.909687e+00 -3.913390e+00 -3.875866e+00 -3.880223e+00 -3.862329e+00 -3.856662e+00 -3.854229e+00 -3.841078e+00 -3.848226e+00 -3.831124e+00 -3.843546e+00 -3.824883e+00 -3.839964e+00 -3.821125e+00 -3.837316e+00 -3.819169e+00 
-3.829380e+00 -3.810724e+00 -3.828660e+00 -3.812137e+00 -3.828168e+00 -3.815220e+00 -3.827750e+00 -3.820664e+00 -3.827292e+00 -3.829373e+00 -3.827034e+00 -3.841965e+00 -3.828493e+00 -3.856771e+00 -3.835418e+00 -3.864692e+00 -3.844091e+00 -3.852817e+00 -3.688577e+00 -1.020998e+00 6.159626e+00 1.198943e+01 1.326762e+01 1.323921e+01 1.324876e+01 1.328570e+01 1.328833e+01 1.326694e+01 1.332102e+01 1.336110e+01 1.342815e+01 1.345979e+01 1.347856e+01 1.346847e+01 1.343417e+01 1.338170e+01 1.332859e+01 1.327868e+01 1.327952e+01 1.329034e+01 1.323818e+01 1.321105e+01 1.318075e+01 1.234770e+01 7.810344e+00 5.585516e-01 -3.559837e+00 -3.924916e+00 -3.849985e+00 -3.882537e+00 -3.843671e+00 -3.854447e+00 -3.839792e+00 -3.835518e+00 -3.837881e+00 -3.824126e+00 -3.835907e+00 -3.817510e+00 -3.833814e+00 -3.813668e+00 -3.831933e+00 -3.811514e+00 -3.830447e+00 -3.810569e+00 
-3.822142e+00 -3.800381e+00 -3.820870e+00 -3.800623e+00 -3.819250e+00 -3.801813e+00 -3.816760e+00 -3.804500e+00 -3.812631e+00 -3.809609e+00 -3.806018e+00 -3.818476e+00 -3.797209e+00 -3.832631e+00 -3.791181e+00 -3.856399e+00 -3.799291e+00 -3.895879e+00 -1.548211e+00 5.444560e+00 1.168485e+01 1.314786e+01 1.316978e+01 1.324552e+01 1.322034e+01 1.324800e+01 1.328263e+01 1.330612e+01 1.333629e+01 1.333234e+01 1.333879e+01 1.333255e+01 1.333321e+01 1.333587e+01 1.333789e+01 1.334187e+01 1.334081e+01 1.331937e+01 1.330022e+01 1.325126e+01 1.323864e+01 1.324583e+01 1.316101e+01 1.314664e+01 1.254495e+01 7.215200e+00 -8.214785e-01 -3.819941e+00 -3.773422e+00 -3.887869e+00 -3.820535e+00 -3.850754e+00 -3.829597e+00 -3.826719e+00 -3.830379e+00 -3.813892e+00 -3.828808e+00 -3.807327e+00 -3.826762e+00 -3.803847e+00 -3.824919e+00 -3.801901e+00 -3.823416e+00 -3.800821e+00 
-3.816085e+00 -3.792144e+00 -3.815388e+00 -3.792505e+00 -3.814255e+00 -3.793736e+00 -3.812249e+00 -3.796833e+00 -3.808594e+00 -3.803660e+00 -3.802287e+00 -3.817340e+00 -3.794154e+00 -3.839914e+00 -3.798986e+00 -3.850185e+00 -3.908262e+00 -3.337534e+00 2.877546e+00 1.077579e+01 1.320917e+01 1.316014e+01 1.324480e+01 1.322845e+01 1.325211e+01 1.326938e+01 1.328012e+01 1.329386e+01 1.331626e+01 1.334303e+01 1.336683e+01 1.338760e+01 1.339099e+01 1.339074e+01 1.336995e+01 1.334946e+01 1.331960e+01 1.329548e+01 1.327806e+01 1.326103e+01 1.324417e+01 1.319928e+01 1.322074e+01 1.310245e+01 1.323184e+01 1.176397e+01 5.039992e+00 -1.838918e+00 -3.863480e+00 -3.835567e+00 -3.796198e+00 -3.815294e+00 -3.805458e+00 -3.799921e+00 -3.813509e+00 -3.794160e+00 -3.816492e+00 -3.792581e+00 -3.817116e+00 -3.792267e+00 -3.816957e+00 -3.792196e+00 -3.816578e+00 -3.792130e+00 
-3.808898e+00 -3.781362e+00 -3.807984e+00 -3.780408e+00 -3.806064e+00 -3.779193e+00 -3.802305e+00 -3.778209e+00 -3.795029e+00 -3.778578e+00 -3.781014e+00 -3.782397e+00 -3.755497e+00 -3.788663e+00 -3.721074e+00 -3.752510e+00 -3.664592e+00 3.778416e-01 8.686594e+00 1.279698e+01 1.311808e+01 1.315250e+01 1.316943e+01 1.321650e+01 1.321315e+01 1.325099e+01 1.325700e+01 1.328719e+01 1.329296e+01 1.331039e+01 1.330861e+01 1.331946e+01 1.331290e+01 1.332145e+01 1.331206e+01 1.331612e+01 1.330222e+01 1.329571e+01 1.327397e+01 1.326131e+01 1.323496e+01 1.323929e+01 1.319686e+01 1.322305e+01 1.318320e+01 1.326119e+01 1.046649e+01 1.844546e+00 -3.819398e+00 -3.866576e+00 -3.801616e+00 -3.806577e+00 -3.803107e+00 -3.783797e+00 -3.807268e+00 -3.779020e+00 -3.808754e+00 -3.779550e+00 -3.809166e+00 -3.780839e+00 -3.809291e+00 -3.781667e+00 -3.809247e+00 -3.781825e+00 
-3.803011e+00 -3.773197e+00 -3.802515e+00 -3.771846e+00 -3.800978e+00 -3.769920e+00 -3.797759e+00 -3.768281e+00 -3.791276e+00 -3.769447e+00 -3.777313e+00 -3.781640e+00 -3.743501e+00 -3.832441e+00 -3.650067e+00 -4.018828e+00 -2.777930e+00 4.677633e+00 1.232115e+01 1.325377e+01 1.309190e+01 1.321242e+01 1.319090e+01 1.323952e+01 1.323328e+01 1.327133e+01 1.326690e+01 1.329906e+01 1.329901e+01 1.332907e+01 1.332878e+01 1.335128e+01 1.334238e+01 1.335215e+01 1.333236e+01 1.333028e+01 1.330501e+01 1.329717e+01 1.327361e+01 1.326296e+01 1.324111e+01 1.322049e+01 1.320555e+01 1.317884e+01 1.315053e+01 1.318136e+01 1.260072e+01 6.552300e+00 -1.506650e+00 -3.905638e+00 -3.666365e+00 -3.769003e+00 -3.769992e+00 -3.752685e+00 -3.792427e+00 -3.758354e+00 -3.798171e+00 -3.765332e+00 -3.800491e+00 -3.770097e+00 -3.801899e+00 -3.772682e+00 -3.802755e+00 -3.773581e+00 
-3.796272e+00 -3.762846e+00 -3.796102e+00 -3.760316e+00 -3.794497e+00 -3.755855e+00 -3.790708e+00 -3.749490e+00 -3.782844e+00 -3.742337e+00 -3.765427e+00 -3.741768e+00 -3.719282e+00 -3.785310e+00 -3.565359e+00 -4.038803e+00 3.623761e-02 8.640205e+00 1.313583e+01 1.303623e+01 1.315433e+01 1.315162e+01 1.317164e+01 1.321484e+01 1.320525e+01 1.325280e+01 1.323979e+01 1.328062e+01 1.326783e+01 1.329865e+01 1.328447e+01 1.330723e+01 1.329126e+01 1.330825e+01 1.329004e+01 1.330160e+01 1.327984e+01 1.328528e+01 1.325880e+01 1.325955e+01 1.323064e+01 1.322665e+01 1.320559e+01 1.316894e+01 1.321053e+01 1.301431e+01 1.332607e+01 1.091272e+01 2.120975e+00 -3.768078e+00 -3.679222e+00 -3.720842e+00 -3.770940e+00 -3.720304e+00 -3.784931e+00 -3.736987e+00 -3.788443e+00 -3.749880e+00 -3.791121e+00 -3.757755e+00 -3.793540e+00 -3.761935e+00 -3.795346e+00 -3.763451e+00 
-3.790844e+00 -3.755333e+00 -3.790785e+00 -3.751716e+00 -3.789258e+00 -3.745396e+00 -3.785950e+00 -3.735858e+00 -3.780195e+00 -3.722384e+00 -3.770316e+00 -3.705151e+00 -3.749675e+00 -3.690251e+00 -3.681828e+00 -3.539346e+00 4.003155e+00 1.198613e+01 1.338099e+01 1.306669e+01 1.319354e+01 1.319430e+01 1.319361e+01 1.324534e+01 1.322281e+01 1.327644e+01 1.325361e+01 1.329963e+01 1.328084e+01 1.331875e+01 1.330185e+01 1.333071e+01 1.331150e+01 1.333066e+01 1.330704e+01 1.331806e+01 1.329093e+01 1.329713e+01 1.326803e+01 1.327168e+01 1.324055e+01 1.324112e+01 1.321068e+01 1.320591e+01 1.319131e+01 1.315320e+01 1.325552e+01 1.272063e+01 5.721209e+00 -2.703888e+00 -3.911925e+00 -3.601799e+00 -3.813351e+00 -3.680917e+00 -3.786238e+00 -3.719329e+00 -3.781971e+00 -3.739175e+00 -3.784086e+00 -3.749634e+00 -3.787179e+00 -3.754774e+00 -3.789590e+00 -3.756419e+00 
-3.785070e+00 -3.746541e+00 -3.785928e+00 -3.742276e+00 -3.785149e+00 -3.734140e+00 -3.782744e+00 -3.720572e+00 -3.779104e+00 -3.697654e+00 -3.776954e+00 -3.654360e+00 -3.789163e+00 -3.552244e+00 -3.868692e+00 -2.210847e+00 7.425659e+00 1.302523e+01 1.309891e+01 1.316931e+01 1.312573e+01 1.320699e+01 1.316040e+01 1.323911e+01 1.319557e+01 1.326296e+01 1.322643e+01 1.328060e+01 1.325031e+01 1.329229e+01 1.326573e+01 1.329804e+01 1.327293e+01 1.329812e+01 1.327245e+01 1.329237e+01 1.326409e+01 1.328036e+01 1.324724e+01 1.326235e+01 1.322202e+01 1.324006e+01 1.318806e+01 1.321870e+01 1.313823e+01 1.323255e+01 1.302370e+01 1.347292e+01 9.188156e+00 -7.342045e-01 -4.019519e+00 -3.479801e+00 -3.815302e+00 -3.637032e+00 -3.771655e+00 -3.696991e+00 -3.767832e+00 -3.724263e+00 -3.772783e+00 -3.738055e+00 -3.778343e+00 -3.744957e+00 -3.782548e+00 -3.747477e+00 
-3.780551e+00 -3.740525e+00 -3.781032e+00 -3.734655e+00 -3.779586e+00 -3.724043e+00 -3.776372e+00 -3.706602e+00 -3.772366e+00 -3.677407e+00 -3.772840e+00 -3.623473e+00 -3.801713e+00 -3.504224e+00 -3.961043e+00 -8.350690e-01 9.893245e+00 1.357219e+01 1.303398e+01 1.330029e+01 1.312319e+01 1.326449e+01 1.317122e+01 1.327261e+01 1.320952e+01 1.328726e+01 1.324085e+01 1.330109e+01 1.326552e+01 1.331238e+01 1.328296e+01 1.331893e+01 1.329141e+01 1.331845e+01 1.329000e+01 1.331075e+01 1.327996e+01 1.329790e+01 1.326333e+01 1.328253e+01 1.324067e+01 1.326800e+01 1.321038e+01 1.326599e+01 1.316528e+01 1.331831e+01 1.306247e+01 1.357561e+01 1.132822e+01 1.407337e+00 -3.943713e+00 -3.526500e+00 -3.785161e+00 -3.647069e+00 -3.755949e+00 -3.697296e+00 -3.758370e+00 -3.721651e+00 -3.766328e+00 -3.734399e+00 -3.773295e+00 -3.740684e+00 -3.778032e+00 -3.742502e+00 
-3.776372e+00 -3.734383e+00 -3.778180e+00 -3.728762e+00 -3.777970e+00 -3.718094e+00 -3.776034e+00 -3.700494e+00 -3.773169e+00 -3.671990e+00 -3.773134e+00 -3.624115e+00 -3.792438e+00 -3.537949e+00 -3.897285e+00 4.301688e-01 1.123467e+01 1.358286e+01 1.303784e+01 1.334752e+01 1.310750e+01 1.328392e+01 1.315271e+01 1.327327e+01 1.318855e+01 1.327707e+01 1.321708e+01 1.328380e+01 1.323856e+01 1.328952e+01 1.325292e+01 1.329246e+01 1.326015e+01 1.329169e+01 1.326041e+01 1.328689e+01 1.325386e+01 1.327820e+01 1.324053e+01 1.326637e+01 1.322012e+01 1.325380e+01 1.319155e+01 1.324914e+01 1.315118e+01 1.328166e+01 1.308308e+01 1.341968e+01 1.266301e+01 3.336764e+00 -3.733282e+00 -3.583912e+00 -3.703208e+00 -3.649791e+00 -3.717482e+00 -3.688569e+00 -3.737591e+00 -3.711693e+00 -3.753709e+00 -3.725452e+00 -3.764925e+00 -3.732972e+00 -3.772166e+00 -3.735756e+00 
-3.773440e+00 -3.730741e+00 -3.774303e+00 -3.723321e+00 -3.772542e+00 -3.710107e+00 -3.767903e+00 -3.688964e+00 -3.759555e+00 -3.656307e+00 -3.745974e+00 -3.607091e+00 -3.724897e+00 -3.537653e+00 -3.690737e+00 1.910896e+00 1.234029e+01 1.345979e+01 1.305449e+01 1.335158e+01 1.311367e+01 1.330534e+01 1.316199e+01 1.329443e+01 1.320129e+01 1.329675e+01 1.323216e+01 1.330301e+01 1.325556e+01 1.330930e+01 1.327169e+01 1.331300e+01 1.327996e+01 1.331229e+01 1.328022e+01 1.330702e+01 1.327353e+01 1.329870e+01 1.326163e+01 1.328955e+01 1.324600e+01 1.328246e+01 1.322899e+01 1.328385e+01 1.321822e+01 1.330696e+01 1.323558e+01 1.335767e+01 1.328790e+01 4.750893e+00 -3.466449e+00 -3.678907e+00 -3.629160e+00 -3.683349e+00 -3.692573e+00 -3.700449e+00 -3.728528e+00 -3.715636e+00 -3.749707e+00 -3.726149e+00 -3.762365e+00 -3.731980e+00 -3.769724e+00 -3.733486e+00 
-3.771507e+00 -3.727905e+00 -3.773848e+00 -3.721601e+00 -3.773683e+00 -3.709915e+00 -3.770877e+00 -3.691545e+00 -3.764119e+00 -3.665150e+00 -3.748777e+00 -3.632099e+00 -3.708800e+00 -3.606940e+00 -3.585468e+00 2.727889e+00 1.291024e+01 1.344982e+01 1.312168e+01 1.337201e+01 1.312753e+01 1.331615e+01 1.315605e+01 1.329269e+01 1.318663e+01 1.328613e+01 1.321265e+01 1.328649e+01 1.323271e+01 1.328872e+01 1.324649e+01 1.329000e+01 1.325373e+01 1.328872e+01 1.325444e+01 1.328437e+01 1.324906e+01 1.327730e+01 1.323838e+01 1.326827e+01 1.322367e+01 1.325836e+01 1.320905e+01 1.324941e+01 1.320955e+01 1.324024e+01 1.327099e+01 1.319032e+01 1.350699e+01 5.797976e+00 -3.122379e+00 -3.722172e+00 -3.538218e+00 -3.689148e+00 -3.655644e+00 -3.695386e+00 -3.710911e+00 -3.708722e+00 -3.740012e+00 -3.719929e+00 -3.756523e+00 -3.726947e+00 -3.766148e+00 -3.729596e+00 
-3.770866e+00 -3.727325e+00 -3.771852e+00 -3.719370e+00 -3.769828e+00 -3.705364e+00 -3.764099e+00 -3.683455e+00 -3.752068e+00 -3.651566e+00 -3.725675e+00 -3.610504e+00 -3.658616e+00 -3.576258e+00 -3.460483e+00 3.056529e+00 1.298047e+01 1.334783e+01 1.310104e+01 1.334270e+01 1.312263e+01 1.331402e+01 1.316188e+01 1.330149e+01 1.319908e+01 1.330024e+01 1.322924e+01 1.330385e+01 1.325216e+01 1.330844e+01 1.326796e+01 1.331123e+01 1.327625e+01 1.331044e+01 1.327706e+01 1.330589e+01 1.327152e+01 1.329898e+01 1.326154e+01 1.329167e+01 1.324956e+01 1.328581e+01 1.324110e+01 1.328269e+01 1.325367e+01 1.327578e+01 1.333673e+01 1.320494e+01 1.359863e+01 6.151270e+00 -2.994050e+00 -3.753868e+00 -3.522651e+00 -3.706423e+00 -3.655213e+00 -3.705429e+00 -3.713486e+00 -3.714864e+00 -3.742433e+00 -3.723708e+00 -3.758053e+00 -3.729080e+00 -3.766638e+00 -3.730374e+00 