# vtk DataFile Version 2.0
Comment goes here
ASCII

DATASET STRUCTURED_POINTS
FIELD FieldData 1
TIME 1 1 double
1.44000000
DIMENSIONS    64   64   1

ORIGIN    0.000   0.000   0.000
SPACING   0.015625 0.015625   1.000

POINT_DATA   4096
SCALARS P double
LOOKUP_TABLE default

-4.033360e+00 -4.033352e+00 -4.033587e+00 -4.036667e+00 -4.038257e+00 -4.044507e+00 -4.047344e+00 -4.056781e+00 -4.060781e+00 -4.073340e+00 -4.078437e+00 -4.093938e+00 -4.100061e+00 -4.118167e+00 -4.125185e+00 -4.145342e+00 -4.153001e+00 -4.174376e+00 -4.182249e+00 -4.203706e+00 -4.211220e+00 -4.231381e+00 -4.237959e+00 -4.255391e+00 -4.260688e+00 -4.274216e+00 -4.278337e+00 -4.287368e+00 -4.290891e+00 -4.295565e+00 -4.299236e+00 -4.300087e+00 -4.304315e+00 -4.301834e+00 -4.306394e+00 -4.300783e+00 -4.304804e+00 -4.295946e+00 -4.298155e+00 -4.285847e+00 -4.285085e+00 -4.269499e+00 -4.265272e+00 -4.247193e+00 -4.239790e+00 -4.220380e+00 -4.210649e+00 -4.191091e+00 -4.180108e+00 -4.161366e+00 -4.150156e+00 -4.132897e+00 -4.122279e+00 -4.106916e+00 -4.097459e+00 -4.084243e+00 -4.076295e+00 -4.065403e+00 -4.059138e+00 -4.050725e+00 -4.046190e+00 -4.040417e+00 -4.037573e+00 -4.034605e+00 
-4.029995e+00 -4.030416e+00 -4.031054e+00 -4.034612e+00 -4.036621e+00 -4.043383e+00 -4.046706e+00 -4.056686e+00 -4.061318e+00 -4.074462e+00 -4.080453e+00 -4.096618e+00 -4.104052e+00 -4.122989e+00 -4.131927e+00 -4.153245e+00 -4.163655e+00 -4.186781e+00 -4.198459e+00 -4.222607e+00 -4.235148e+00 -4.259305e+00 -4.272142e+00 -4.295072e+00 -4.307571e+00 -4.327822e+00 -4.339335e+00 -4.355288e+00 -4.365145e+00 -4.375249e+00 -4.382796e+00 -4.386148e+00 -4.390890e+00 -4.387387e+00 -4.388853e+00 -4.378876e+00 -4.376611e+00 -4.360971e+00 -4.354951e+00 -4.335007e+00 -4.325785e+00 -4.303175e+00 -4.291516e+00 -4.267780e+00 -4.254548e+00 -4.230960e+00 -4.217074e+00 -4.194604e+00 -4.180931e+00 -4.160252e+00 -4.147501e+00 -4.129020e+00 -4.117685e+00 -4.101618e+00 -4.091991e+00 -4.078444e+00 -4.070656e+00 -4.059700e+00 -4.053770e+00 -4.045485e+00 -4.041360e+00 -4.035851e+00 -4.033433e+00 -4.030825e+00 
-4.031145e+00 -4.031073e+00 -4.031367e+00 -4.034405e+00 -4.036050e+00 -4.042294e+00 -4.045180e+00 -4.054664e+00 -4.058716e+00 -4.071394e+00 -4.076562e+00 -4.092274e+00 -4.098504e+00 -4.116928e+00 -4.124106e+00 -4.144699e+00 -4.152572e+00 -4.174497e+00 -4.182616e+00 -4.204706e+00 -4.212445e+00 -4.233260e+00 -4.239964e+00 -4.257971e+00 -4.263240e+00 -4.277137e+00 -4.281088e+00 -4.290209e+00 -4.293544e+00 -4.298141e+00 -4.301775e+00 -4.302502e+00 -4.306891e+00 -4.304282e+00 -4.309173e+00 -4.303462e+00 -4.307929e+00 -4.298983e+00 -4.301603e+00 -4.289078e+00 -4.288478e+00 -4.272464e+00 -4.268100e+00 -4.249478e+00 -4.241706e+00 -4.221766e+00 -4.211551e+00 -4.191551e+00 -4.180078e+00 -4.161004e+00 -4.149370e+00 -4.131875e+00 -4.120934e+00 -4.105405e+00 -4.095736e+00 -4.082398e+00 -4.074337e+00 -4.063346e+00 -4.057044e+00 -4.048543e+00 -4.044025e+00 -4.038170e+00 -4.035373e+00 -4.032329e+00 
-4.025506e+00 -4.025819e+00 -4.026553e+00 -4.030039e+00 -4.032106e+00 -4.038861e+00 -4.042201e+00 -4.052265e+00 -4.056887e+00 -4.070229e+00 -4.076208e+00 -4.092703e+00 -4.100158e+00 -4.119566e+00 -4.128601e+00 -4.150530e+00 -4.161145e+00 -4.185021e+00 -4.197027e+00 -4.222082e+00 -4.235066e+00 -4.260346e+00 -4.273738e+00 -4.298100e+00 -4.311303e+00 -4.333323e+00 -4.345736e+00 -4.363544e+00 -4.374400e+00 -4.385763e+00 -4.394118e+00 -4.397800e+00 -4.403105e+00 -4.399172e+00 -4.400900e+00 -4.389819e+00 -4.387223e+00 -4.369870e+00 -4.362975e+00 -4.341140e+00 -4.330986e+00 -4.306758e+00 -4.294235e+00 -4.269289e+00 -4.255238e+00 -4.230792e+00 -4.216141e+00 -4.193077e+00 -4.178738e+00 -4.157655e+00 -4.144378e+00 -4.125628e+00 -4.113928e+00 -4.097678e+00 -4.087843e+00 -4.074159e+00 -4.066298e+00 -4.055222e+00 -4.049320e+00 -4.040914e+00 -4.036881e+00 -4.031247e+00 -4.028949e+00 -4.026217e+00 
-4.024490e+00 -4.024215e+00 -4.024698e+00 -4.027597e+00 -4.029405e+00 -4.035616e+00 -4.038643e+00 -4.048251e+00 -4.052447e+00 -4.065463e+00 -4.070825e+00 -4.087148e+00 -4.093684e+00 -4.113048e+00 -4.120698e+00 -4.142597e+00 -4.151126e+00 -4.174716e+00 -4.183614e+00 -4.207652e+00 -4.216121e+00 -4.238984e+00 -4.246114e+00 -4.265957e+00 -4.271120e+00 -4.286189e+00 -4.289498e+00 -4.298777e+00 -4.301373e+00 -4.305629e+00 -4.309110e+00 -4.309433e+00 -4.314338e+00 -4.311309e+00 -4.317243e+00 -4.311238e+00 -4.317185e+00 -4.308112e+00 -4.312179e+00 -4.299094e+00 -4.299041e+00 -4.281660e+00 -4.276824e+00 -4.256462e+00 -4.247480e+00 -4.225888e+00 -4.214129e+00 -4.192799e+00 -4.179791e+00 -4.159746e+00 -4.146809e+00 -4.128640e+00 -4.116730e+00 -4.100733e+00 -4.090440e+00 -4.076757e+00 -4.068374e+00 -4.057099e+00 -4.050709e+00 -4.041949e+00 -4.037501e+00 -4.031397e+00 -4.028760e+00 -4.025481e+00 
-4.016547e+00 -4.016621e+00 -4.017560e+00 -4.020881e+00 -4.023068e+00 -4.029784e+00 -4.033153e+00 -4.043362e+00 -4.047941e+00 -4.061664e+00 -4.067581e+00 -4.084728e+00 -4.092180e+00 -4.112524e+00 -4.121706e+00 -4.144842e+00 -4.155833e+00 -4.181166e+00 -4.193805e+00 -4.220582e+00 -4.234424e+00 -4.261828e+00 -4.276271e+00 -4.303459e+00 -4.318011e+00 -4.343807e+00 -4.358105e+00 -4.380300e+00 -4.393434e+00 -4.407651e+00 -4.417677e+00 -4.421866e+00 -4.428360e+00 -4.423478e+00 -4.426013e+00 -4.412647e+00 -4.409340e+00 -4.388133e+00 -4.379012e+00 -4.352956e+00 -4.340822e+00 -4.313237e+00 -4.299020e+00 -4.271730e+00 -4.256054e+00 -4.230014e+00 -4.213817e+00 -4.189666e+00 -4.173977e+00 -4.152165e+00 -4.137836e+00 -4.118607e+00 -4.106193e+00 -4.089621e+00 -4.079397e+00 -4.065468e+00 -4.057493e+00 -4.046189e+00 -4.040378e+00 -4.031732e+00 -4.027915e+00 -4.022021e+00 -4.019993e+00 -4.016996e+00 
-4.013383e+00 -4.012738e+00 -4.013558e+00 -4.016182e+00 -4.018265e+00 -4.024369e+00 -4.027609e+00 -4.037364e+00 -4.041754e+00 -4.055268e+00 -4.060888e+00 -4.078167e+00 -4.085144e+00 -4.106024e+00 -4.114425e+00 -4.138480e+00 -4.148140e+00 -4.174551e+00 -4.184889e+00 -4.212321e+00 -4.222234e+00 -4.248805e+00 -4.256843e+00 -4.280198e+00 -4.285156e+00 -4.302523e+00 -4.304251e+00 -4.313222e+00 -4.313845e+00 -4.317083e+00 -4.320243e+00 -4.319867e+00 -4.325810e+00 -4.321924e+00 -4.329671e+00 -4.323101e+00 -4.332009e+00 -4.323360e+00 -4.330786e+00 -4.317197e+00 -4.318226e+00 -4.298139e+00 -4.292251e+00 -4.268529e+00 -4.257133e+00 -4.232585e+00 -4.217918e+00 -4.194373e+00 -4.178602e+00 -4.157037e+00 -4.141843e+00 -4.122671e+00 -4.109145e+00 -4.092470e+00 -4.081188e+00 -4.066997e+00 -4.058153e+00 -4.046441e+00 -4.039983e+00 -4.030802e+00 -4.026543e+00 -4.020015e+00 -4.017703e+00 -4.014010e+00 
-4.003169e+00 -4.002831e+00 -4.004117e+00 -4.007127e+00 -4.009508e+00 -4.016104e+00 -4.019496e+00 -4.029868e+00 -4.034327e+00 -4.048580e+00 -4.054309e+00 -4.072414e+00 -4.079740e+00 -4.101481e+00 -4.110764e+00 -4.135691e+00 -4.147159e+00 -4.174585e+00 -4.188132e+00 -4.217242e+00 -4.232322e+00 -4.262490e+00 -4.278330e+00 -4.309452e+00 -4.325748e+00 -4.357653e+00 -4.374943e+00 -4.406175e+00 -4.423830e+00 -4.443308e+00 -4.455762e+00 -4.459781e+00 -4.468018e+00 -4.461548e+00 -4.466545e+00 -4.449927e+00 -4.445522e+00 -4.417131e+00 -4.402697e+00 -4.368884e+00 -4.353694e+00 -4.320884e+00 -4.304388e+00 -4.273927e+00 -4.255862e+00 -4.227794e+00 -4.209212e+00 -4.183693e+00 -4.165922e+00 -4.143206e+00 -4.127289e+00 -4.107490e+00 -4.094042e+00 -4.077099e+00 -4.066361e+00 -4.052137e+00 -4.044075e+00 -4.032466e+00 -4.026877e+00 -4.017873e+00 -4.014463e+00 -4.008155e+00 -4.006605e+00 -4.003169e+00 
-3.997844e+00 -3.996607e+00 -3.997951e+00 -4.000100e+00 -4.002573e+00 -4.008417e+00 -4.011908e+00 -4.021743e+00 -4.026296e+00 -4.040369e+00 -4.046193e+00 -4.064664e+00 -4.072087e+00 -4.094960e+00 -4.104293e+00 -4.131300e+00 -4.142588e+00 -4.173007e+00 -4.185676e+00 -4.218119e+00 -4.230644e+00 -4.262995e+00 -4.272930e+00 -4.302417e+00 -4.307284e+00 -4.329393e+00 -4.327555e+00 -4.333823e+00 -4.329169e+00 -4.329746e+00 -4.332781e+00 -4.331983e+00 -4.340123e+00 -4.334478e+00 -4.344395e+00 -4.336208e+00 -4.350244e+00 -4.344456e+00 -4.359861e+00 -4.347158e+00 -4.349730e+00 -4.324127e+00 -4.315889e+00 -4.286211e+00 -4.270397e+00 -4.241331e+00 -4.221828e+00 -4.195295e+00 -4.175232e+00 -4.151829e+00 -4.133325e+00 -4.113041e+00 -4.097287e+00 -4.079885e+00 -4.067354e+00 -4.052596e+00 -4.043283e+00 -4.031030e+00 -4.024655e+00 -4.014902e+00 -4.011064e+00 -4.003924e+00 -4.002192e+00 -3.997870e+00 
-3.985496e+00 -3.984500e+00 -3.986326e+00 -3.988800e+00 -3.991471e+00 -3.997779e+00 -4.001174e+00 -4.011649e+00 -4.015840e+00 -4.030720e+00 -4.036008e+00 -4.055360e+00 -4.062265e+00 -4.085893e+00 -4.095052e+00 -4.122406e+00 -4.134334e+00 -4.164468e+00 -4.179194e+00 -4.210931e+00 -4.227664e+00 -4.260360e+00 -4.277664e+00 -4.312739e+00 -4.330256e+00 -4.369822e+00 -4.390921e+00 -4.442514e+00 -4.470461e+00 -4.499249e+00 -4.513511e+00 -4.512786e+00 -4.522024e+00 -4.513554e+00 -4.526885e+00 -4.508238e+00 -4.503000e+00 -4.460791e+00 -4.431543e+00 -4.383338e+00 -4.365517e+00 -4.326132e+00 -4.307698e+00 -4.274251e+00 -4.253017e+00 -4.223094e+00 -4.201096e+00 -4.174221e+00 -4.153527e+00 -4.129923e+00 -4.111872e+00 -4.091578e+00 -4.076833e+00 -4.059605e+00 -4.048324e+00 -4.033842e+00 -4.025836e+00 -4.013881e+00 -4.008762e+00 -3.999278e+00 -3.996574e+00 -3.989664e+00 -3.988891e+00 -3.984783e+00 
-3.977976e+00 -3.975851e+00 -3.977964e+00 -3.979339e+00 -3.982332e+00 -3.987650e+00 -3.991383e+00 -4.001098e+00 -4.005666e+00 -4.020207e+00 -4.025983e+00 -4.045715e+00 -4.053333e+00 -4.078500e+00 -4.088714e+00 -4.119324e+00 -4.132665e+00 -4.168236e+00 -4.184422e+00 -4.223573e+00 -4.240684e+00 -4.281106e+00 -4.295052e+00 -4.334880e+00 -4.341221e+00 -4.376389e+00 -4.367116e+00 -4.360719e+00 -4.340634e+00 -4.334955e+00 -4.341076e+00 -4.343853e+00 -4.357849e+00 -4.348035e+00 -4.357430e+00 -4.342028e+00 -4.363234e+00 -4.369042e+00 -4.406348e+00 -4.400498e+00 -4.402733e+00 -4.363021e+00 -4.349384e+00 -4.309424e+00 -4.285674e+00 -4.250586e+00 -4.223490e+00 -4.193693e+00 -4.167462e+00 -4.142393e+00 -4.119478e+00 -4.098342e+00 -4.079873e+00 -4.061936e+00 -4.048104e+00 -4.032850e+00 -4.023284e+00 -4.010443e+00 -4.004507e+00 -3.994036e+00 -3.991022e+00 -3.983049e+00 -3.982288e+00 -3.977067e+00 
-3.963766e+00 -3.961760e+00 -3.964401e+00 -3.965986e+00 -3.969088e+00 -3.974809e+00 -3.978173e+00 -3.988567e+00 -3.992252e+00 -4.007765e+00 -4.012170e+00 -4.033038e+00 -4.038948e+00 -4.065039e+00 -4.073535e+00 -4.104161e+00 -4.116309e+00 -4.149997e+00 -4.166211e+00 -4.200605e+00 -4.219725e+00 -4.252823e+00 -4.271456e+00 -4.308002e+00 -4.323456e+00 -4.363276e+00 -4.385520e+00 -4.492780e+00 -4.551479e+00 -4.596523e+00 -4.604297e+00 -4.577817e+00 -4.579614e+00 -4.571320e+00 -4.615053e+00 -4.607090e+00 -4.606113e+00 -4.532435e+00 -4.452693e+00 -4.374749e+00 -4.366080e+00 -4.323105e+00 -4.305066e+00 -4.271567e+00 -4.245682e+00 -4.214986e+00 -4.188052e+00 -4.160049e+00 -4.135428e+00 -4.111119e+00 -4.090399e+00 -4.069902e+00 -4.053704e+00 -4.036469e+00 -4.024776e+00 -4.010190e+00 -4.002563e+00 -3.990258e+00 -3.986035e+00 -3.975930e+00 -3.974384e+00 -3.966629e+00 -3.967064e+00 -3.961970e+00 
-3.954026e+00 -3.950614e+00 -3.953825e+00 -3.954002e+00 -3.957674e+00 -3.962048e+00 -3.965968e+00 -3.975189e+00 -3.979465e+00 -3.994184e+00 -3.999357e+00 -4.020181e+00 -4.027299e+00 -4.054772e+00 -4.065300e+00 -4.099869e+00 -4.115300e+00 -4.156998e+00 -4.178009e+00 -4.225380e+00 -4.250191e+00 -4.299607e+00 -4.321387e+00 -4.375292e+00 -4.391615e+00 -4.476496e+00 -4.455152e+00 -4.394036e+00 -4.322628e+00 -4.304913e+00 -4.333450e+00 -4.361066e+00 -4.393883e+00 -4.372621e+00 -4.365019e+00 -4.314531e+00 -4.336793e+00 -4.385221e+00 -4.494957e+00 -4.518453e+00 -4.501705e+00 -4.414743e+00 -4.389794e+00 -4.334967e+00 -4.297186e+00 -4.256389e+00 -4.218184e+00 -4.186236e+00 -4.151803e+00 -4.126126e+00 -4.097834e+00 -4.076636e+00 -4.055269e+00 -4.037279e+00 -4.022463e+00 -4.006915e+00 -3.997669e+00 -3.984229e+00 -3.979388e+00 -3.968035e+00 -3.966486e+00 -3.957409e+00 -3.958186e+00 -3.951719e+00 
-3.938372e+00 -3.934861e+00 -3.938704e+00 -3.938874e+00 -3.942626e+00 -3.947258e+00 -3.950574e+00 -3.960496e+00 -3.963343e+00 -3.979328e+00 -3.982153e+00 -4.004744e+00 -4.008642e+00 -4.037905e+00 -4.044633e+00 -4.079834e+00 -4.091452e+00 -4.130451e+00 -4.148351e+00 -4.186089e+00 -4.209252e+00 -4.236509e+00 -4.258385e+00 -4.296422e+00 -4.300465e+00 -4.277258e+00 -4.275259e+00 -4.570791e+00 -4.747354e+00 -4.817791e+00 -4.773574e+00 -4.634246e+00 -4.584687e+00 -4.592155e+00 -4.749431e+00 -4.816688e+00 -4.854075e+00 -4.687174e+00 -4.405952e+00 -4.255726e+00 -4.334871e+00 -4.314693e+00 -4.295199e+00 -4.269034e+00 -4.232910e+00 -4.202685e+00 -4.168570e+00 -4.139267e+00 -4.109745e+00 -4.084981e+00 -4.061189e+00 -4.041124e+00 -4.023509e+00 -4.006846e+00 -3.995123e+00 -3.980739e+00 -3.974084e+00 -3.961456e+00 -3.958804e+00 -3.947893e+00 -3.948173e+00 -3.939242e+00 -3.941489e+00 -3.934982e+00 
-3.926436e+00 -3.921210e+00 -3.925968e+00 -3.924357e+00 -3.928939e+00 -3.931751e+00 -3.935787e+00 -3.943918e+00 -3.947423e+00 -3.961786e+00 -3.965393e+00 -3.986838e+00 -3.992058e+00 -4.021404e+00 -4.030708e+00 -4.069008e+00 -4.085450e+00 -4.133986e+00 -4.160381e+00 -4.217916e+00 -4.254967e+00 -4.309513e+00 -4.341489e+00 -4.385210e+00 -4.449142e+00 -4.762870e+00 -4.701015e+00 -4.216223e+00 -3.037358e+00 -1.526802e+00 -1.395733e-01 9.522391e-01 1.408277e+00 1.236582e+00 4.168192e-01 -7.833544e-01 -2.412082e+00 -3.759928e+00 -4.613196e+00 -4.874261e+00 -4.720269e+00 -4.442038e+00 -4.406606e+00 -4.354303e+00 -4.291014e+00 -4.250662e+00 -4.198412e+00 -4.167863e+00 -4.123617e+00 -4.099561e+00 -4.065364e+00 -4.045472e+00 -4.021608e+00 -4.004298e+00 -3.989425e+00 -3.973860e+00 -3.966039e+00 -3.951972e+00 -3.949297e+00 -3.936844e+00 -3.937698e+00 -3.927171e+00 -3.930267e+00 -3.922109e+00 
-3.909892e+00 -3.904196e+00 -3.909790e+00 -3.907778e+00 -3.912538e+00 -3.915279e+00 -3.918609e+00 -3.927333e+00 -3.928947e+00 -3.944932e+00 -3.945161e+00 -3.969483e+00 -3.969689e+00 -4.002879e+00 -4.005750e+00 -4.047434e+00 -4.056629e+00 -4.104935e+00 -4.123685e+00 -4.171124e+00 -4.200598e+00 -4.199173e+00 -4.242866e+00 -4.362193e+00 -4.313291e+00 -2.835423e+00 7.660254e-01 4.478741e+00 7.821563e+00 1.023330e+01 1.172528e+01 1.267574e+01 1.300664e+01 1.287403e+01 1.225992e+01 1.105431e+01 8.857616e+00 6.072168e+00 2.121818e+00 -1.715071e+00 -3.912434e+00 -4.383119e+00 -4.304303e+00 -4.280215e+00 -4.216841e+00 -4.183091e+00 -4.140886e+00 -4.107969e+00 -4.073433e+00 -4.048631e+00 -4.021649e+00 -4.003430e+00 -3.984709e+00 -3.969711e+00 -3.958731e+00 -3.945021e+00 -3.940346e+00 -3.927393e+00 -3.927344e+00 -3.915346e+00 -3.918392e+00 -3.907838e+00 -3.912714e+00 -3.904221e+00 
-3.895878e+00 -3.888158e+00 -3.895071e+00 -3.890873e+00 -3.896736e+00 -3.897107e+00 -3.901260e+00 -3.907425e+00 -3.909561e+00 -3.922776e+00 -3.923369e+00 -3.944686e+00 -3.945616e+00 -3.975821e+00 -3.980841e+00 -4.021368e+00 -4.035538e+00 -4.091027e+00 -4.120197e+00 -4.196684e+00 -4.256785e+00 -4.324473e+00 -4.302622e+00 -2.954425e+00 6.971133e-01 5.644947e+00 1.022590e+01 1.271407e+01 1.391325e+01 1.424463e+01 1.419343e+01 1.416169e+01 1.411812e+01 1.413949e+01 1.420916e+01 1.425052e+01 1.408190e+01 1.352906e+01 1.144035e+01 7.852347e+00 3.093119e+00 -1.517561e+00 -4.114502e+00 -4.386257e+00 -4.258704e+00 -4.220573e+00 -4.158259e+00 -4.133551e+00 -4.078480e+00 -4.058948e+00 -4.018891e+00 -4.001969e+00 -3.976962e+00 -3.961135e+00 -3.948099e+00 -3.932731e+00 -3.928201e+00 -3.913378e+00 -3.914462e+00 -3.900591e+00 -3.905128e+00 -3.892710e+00 -3.899137e+00 -3.888733e+00 
-3.879098e+00 -3.870333e+00 -3.878426e+00 -3.873161e+00 -3.879516e+00 -3.879136e+00 -3.882757e+00 -3.889018e+00 -3.889075e+00 -3.904010e+00 -3.900318e+00 -3.925897e+00 -3.919807e+00 -3.957367e+00 -3.952801e+00 -4.002727e+00 -4.005976e+00 -4.070058e+00 -4.086745e+00 -4.187078e+00 -4.209944e+00 -3.972115e+00 -1.297695e+00 4.195086e+00 9.687494e+00 1.282173e+01 1.381986e+01 1.377131e+01 1.359731e+01 1.352450e+01 1.350794e+01 1.353209e+01 1.354207e+01 1.354207e+01 1.352578e+01 1.352728e+01 1.358202e+01 1.374557e+01 1.384127e+01 1.353846e+01 1.144993e+01 6.776727e+00 6.665822e-01 -3.181470e+00 -4.162894e+00 -4.140335e+00 -4.102938e+00 -4.059643e+00 -4.021040e+00 -3.998256e+00 -3.967678e+00 -3.954716e+00 -3.935388e+00 -3.923951e+00 -3.915099e+00 -3.902578e+00 -3.901547e+00 -3.888081e+00 -3.892167e+00 -3.878613e+00 -3.885701e+00 -3.872921e+00 -3.881470e+00 -3.870267e+00 
-3.863258e+00 -3.852202e+00 -3.862078e+00 -3.854229e+00 -3.862006e+00 -3.858691e+00 -3.863228e+00 -3.866151e+00 -3.866407e+00 -3.877422e+00 -3.873112e+00 -3.893565e+00 -3.886545e+00 -3.916312e+00 -3.912220e+00 -3.950533e+00 -3.956934e+00 -4.013552e+00 -4.030072e+00 -4.153045e+00 -3.643783e+00 -2.466354e-01 6.614336e+00 1.183268e+01 1.344169e+01 1.344802e+01 1.337422e+01 1.346825e+01 1.365519e+01 1.379563e+01 1.384433e+01 1.388760e+01 1.388041e+01 1.389274e+01 1.386353e+01 1.383393e+01 1.370243e+01 1.356792e+01 1.336355e+01 1.340800e+01 1.353430e+01 1.286189e+01 9.275028e+00 2.661026e+00 -2.741081e+00 -4.103118e+00 -4.098684e+00 -4.086863e+00 -4.013271e+00 -4.001037e+00 -3.955174e+00 -3.942626e+00 -3.919442e+00 -3.905664e+00 -3.897885e+00 -3.882650e+00 -3.884330e+00 -3.868397e+00 -3.875441e+00 -3.859700e+00 -3.869520e+00 -3.854686e+00 -3.865639e+00 -3.852338e+00 
-3.846950e+00 -3.834047e+00 -3.845620e+00 -3.835684e+00 -3.844582e+00 -3.839270e+00 -3.843934e+00 -3.845631e+00 -3.844216e+00 -3.856072e+00 -3.847028e+00 -3.872552e+00 -3.856329e+00 -3.898119e+00 -3.880285e+00 -3.937365e+00 -3.930406e+00 -3.990204e+00 -4.016410e+00 -3.622778e+00 1.688991e-01 7.270717e+00 1.236600e+01 1.344079e+01 1.339625e+01 1.341560e+01 1.351847e+01 1.351999e+01 1.349852e+01 1.349015e+01 1.347811e+01 1.349161e+01 1.348485e+01 1.349745e+01 1.348441e+01 1.350363e+01 1.350080e+01 1.355073e+01 1.352853e+01 1.352626e+01 1.337948e+01 1.341234e+01 1.311839e+01 1.004464e+01 3.048883e+00 -2.549832e+00 -4.039529e+00 -3.994583e+00 -3.941035e+00 -3.930668e+00 -3.893042e+00 -3.893343e+00 -3.873927e+00 -3.868556e+00 -3.864431e+00 -3.853026e+00 -3.858413e+00 -3.843687e+00 -3.854118e+00 -3.838230e+00 -3.850977e+00 -3.835227e+00 -3.848672e+00 -3.833925e+00 
-3.829716e+00 -3.814350e+00 -3.828215e+00 -3.815333e+00 -3.826094e+00 -3.817294e+00 -3.823132e+00 -3.820835e+00 -3.819321e+00 -3.826681e+00 -3.815451e+00 -3.835201e+00 -3.814690e+00 -3.845170e+00 -3.825056e+00 -3.852430e+00 -3.853733e+00 -3.866880e+00 -3.689219e+00 -4.475148e-01 7.281438e+00 1.240054e+01 1.321376e+01 1.324231e+01 1.336489e+01 1.337393e+01 1.341218e+01 1.346660e+01 1.354069e+01 1.361567e+01 1.365065e+01 1.369499e+01 1.368935e+01 1.370400e+01 1.366382e+01 1.364723e+01 1.356365e+01 1.352031e+01 1.342536e+01 1.342019e+01 1.338731e+01 1.336660e+01 1.325048e+01 1.314747e+01 1.022866e+01 2.708747e+00 -3.125269e+00 -4.055594e+00 -3.922082e+00 -3.916724e+00 -3.869558e+00 -3.861768e+00 -3.847216e+00 -3.835547e+00 -3.838907e+00 -3.823159e+00 -3.835285e+00 -3.817524e+00 -3.833281e+00 -3.815086e+00 -3.831950e+00 -3.814156e+00 -3.830867e+00 -3.813988e+00 
-3.814607e+00 -3.796420e+00 -3.812663e+00 -3.796318e+00 -3.809226e+00 -3.796457e+00 -3.803832e+00 -3.797626e+00 -3.796028e+00 -3.801115e+00 -3.786021e+00 -3.808952e+00 -3.777098e+00 -3.824647e+00 -3.781570e+00 -3.859256e+00 -3.822418e+00 -3.944452e+00 -1.555800e+00 5.740580e+00 1.210784e+01 1.321055e+01 1.324078e+01 1.332730e+01 1.332788e+01 1.337090e+01 1.339795e+01 1.342313e+01 1.342140e+01 1.343926e+01 1.342954e+01 1.344974e+01 1.343570e+01 1.345499e+01 1.343483e+01 1.345485e+01 1.343001e+01 1.345237e+01 1.341271e+01 1.341698e+01 1.334983e+01 1.333928e+01 1.330869e+01 1.322711e+01 1.301413e+01 9.029669e+00 8.018957e-01 -3.558027e+00 -3.782459e+00 -3.837546e+00 -3.789787e+00 -3.819120e+00 -3.801814e+00 -3.802657e+00 -3.808961e+00 -3.796112e+00 -3.812622e+00 -3.794718e+00 -3.814471e+00 -3.795136e+00 -3.815335e+00 -3.795860e+00 -3.815415e+00 -3.796324e+00 
-3.796636e+00 -3.775957e+00 -3.795013e+00 -3.775391e+00 -3.790838e+00 -3.773940e+00 -3.783284e+00 -3.772352e+00 -3.771090e+00 -3.771833e+00 -3.752923e+00 -3.773786e+00 -3.730133e+00 -3.775888e+00 -3.719177e+00 -3.747241e+00 -3.802804e+00 -3.273814e+00 3.035855e+00 1.084758e+01 1.319096e+01 1.313957e+01 1.323719e+01 1.324078e+01 1.331329e+01 1.333996e+01 1.338183e+01 1.342813e+01 1.346428e+01 1.351737e+01 1.353241e+01 1.357198e+01 1.356034e+01 1.358005e+01 1.354254e+01 1.354216e+01 1.348220e+01 1.346847e+01 1.340284e+01 1.339228e+01 1.334149e+01 1.332309e+01 1.327022e+01 1.324481e+01 1.323683e+01 1.263688e+01 6.891112e+00 -1.081051e+00 -3.841790e+00 -3.747158e+00 -3.753179e+00 -3.751505e+00 -3.759532e+00 -3.749892e+00 -3.773467e+00 -3.755291e+00 -3.783318e+00 -3.762437e+00 -3.789766e+00 -3.768514e+00 -3.793907e+00 -3.772769e+00 -3.796190e+00 -3.775184e+00 
-3.783443e+00 -3.758993e+00 -3.781164e+00 -3.756541e+00 -3.775520e+00 -3.752067e+00 -3.765337e+00 -3.746160e+00 -3.748519e+00 -3.740022e+00 -3.721782e+00 -3.735639e+00 -3.682536e+00 -3.731329e+00 -3.644395e+00 -3.682834e+00 -3.676135e+00 -8.991917e-02 8.476855e+00 1.294221e+01 1.312736e+01 1.318310e+01 1.320677e+01 1.326191e+01 1.327511e+01 1.332141e+01 1.333042e+01 1.336822e+01 1.336388e+01 1.339549e+01 1.338211e+01 1.341041e+01 1.339027e+01 1.341524e+01 1.338831e+01 1.341010e+01 1.337585e+01 1.339320e+01 1.334871e+01 1.335543e+01 1.329998e+01 1.329562e+01 1.323940e+01 1.322998e+01 1.313752e+01 1.321444e+01 1.109593e+01 3.158882e+00 -3.253314e+00 -3.852237e+00 -3.680996e+00 -3.741906e+00 -3.732584e+00 -3.724622e+00 -3.754722e+00 -3.731911e+00 -3.766940e+00 -3.742568e+00 -3.774881e+00 -3.751085e+00 -3.780110e+00 -3.756545e+00 -3.782987e+00 -3.759086e+00 
-3.765640e+00 -3.738869e+00 -3.764287e+00 -3.736095e+00 -3.758574e+00 -3.730042e+00 -3.747117e+00 -3.721427e+00 -3.727057e+00 -3.712435e+00 -3.692562e+00 -3.710193e+00 -3.631284e+00 -3.736491e+00 -3.515317e+00 -3.854203e+00 -2.886229e+00 4.031629e+00 1.182268e+01 1.316763e+01 1.303326e+01 1.316654e+01 1.317946e+01 1.323821e+01 1.326932e+01 1.331876e+01 1.334065e+01 1.339169e+01 1.340421e+01 1.345329e+01 1.345157e+01 1.349088e+01 1.347174e+01 1.349725e+01 1.346067e+01 1.347228e+01 1.342151e+01 1.342245e+01 1.336558e+01 1.335966e+01 1.330616e+01 1.328692e+01 1.324396e+01 1.319326e+01 1.319623e+01 1.304546e+01 1.300539e+01 7.952645e+00 -7.019156e-01 -3.790441e+00 -3.514414e+00 -3.646072e+00 -3.662380e+00 -3.655058e+00 -3.709860e+00 -3.683376e+00 -3.732909e+00 -3.706876e+00 -3.747501e+00 -3.723006e+00 -3.757285e+00 -3.732960e+00 -3.763252e+00 -3.737982e+00 
-3.755052e+00 -3.723909e+00 -3.752972e+00 -3.718544e+00 -3.745963e+00 -3.708380e+00 -3.732481e+00 -3.693468e+00 -3.709125e+00 -3.675099e+00 -3.667757e+00 -3.660562e+00 -3.584676e+00 -3.681559e+00 -3.372908e+00 -3.873531e+00 -6.328869e-01 8.035817e+00 1.306904e+01 1.291429e+01 1.313761e+01 1.310650e+01 1.317971e+01 1.321491e+01 1.323528e+01 1.328455e+01 1.328434e+01 1.333148e+01 1.331920e+01 1.336053e+01 1.334034e+01 1.337612e+01 1.334970e+01 1.338038e+01 1.334771e+01 1.337341e+01 1.333373e+01 1.335338e+01 1.330570e+01 1.331596e+01 1.326206e+01 1.325703e+01 1.320838e+01 1.316654e+01 1.316163e+01 1.298587e+01 1.322114e+01 1.120570e+01 2.885690e+00 -3.490001e+00 -3.653367e+00 -3.569976e+00 -3.690870e+00 -3.619427e+00 -3.708071e+00 -3.661804e+00 -3.723560e+00 -3.690867e+00 -3.736860e+00 -3.709276e+00 -3.746777e+00 -3.719885e+00 -3.752894e+00 -3.724465e+00 
-3.738518e+00 -3.705515e+00 -3.737948e+00 -3.699899e+00 -3.731732e+00 -3.688001e+00 -3.718593e+00 -3.669396e+00 -3.695730e+00 -3.644241e+00 -3.656975e+00 -3.616641e+00 -3.585676e+00 -3.606416e+00 -3.420132e+00 -3.615084e+00 2.684997e+00 1.117100e+01 1.332416e+01 1.289478e+01 1.314949e+01 1.311686e+01 1.317939e+01 1.322685e+01 1.324354e+01 1.330405e+01 1.330552e+01 1.336432e+01 1.335747e+01 1.340978e+01 1.339388e+01 1.343653e+01 1.340967e+01 1.344121e+01 1.340267e+01 1.342363e+01 1.337451e+01 1.338690e+01 1.332986e+01 1.333569e+01 1.327299e+01 1.327185e+01 1.320386e+01 1.319399e+01 1.312299e+01 1.310171e+01 1.303048e+01 1.295072e+01 6.596918e+00 -2.260674e+00 -3.732572e+00 -3.390563e+00 -3.664568e+00 -3.538797e+00 -3.668825e+00 -3.613937e+00 -3.689148e+00 -3.657078e+00 -3.708975e+00 -3.682938e+00 -3.724095e+00 -3.697913e+00 -3.733902e+00 -3.704994e+00 
-3.731195e+00 -3.693868e+00 -3.729896e+00 -3.685316e+00 -3.722703e+00 -3.668855e+00 -3.708684e+00 -3.642853e+00 -3.686248e+00 -3.604524e+00 -3.654005e+00 -3.549289e+00 -3.615401e+00 -3.465768e+00 -3.597611e+00 -2.884122e+00 5.938143e+00 1.272385e+01 1.309500e+01 1.298016e+01 1.309348e+01 1.311848e+01 1.314409e+01 1.320802e+01 1.320121e+01 1.326836e+01 1.324952e+01 1.330929e+01 1.328465e+01 1.333544e+01 1.330676e+01 1.334964e+01 1.331688e+01 1.335319e+01 1.331544e+01 1.334611e+01 1.330201e+01 1.332744e+01 1.327518e+01 1.329561e+01 1.323289e+01 1.325075e+01 1.317257e+01 1.320013e+01 1.308531e+01 1.318043e+01 1.292969e+01 1.337942e+01 9.410486e+00 -3.097620e-01 -3.785535e+00 -3.335722e+00 -3.668563e+00 -3.519035e+00 -3.661715e+00 -3.602932e+00 -3.680766e+00 -3.648385e+00 -3.701276e+00 -3.674681e+00 -3.716995e+00 -3.689240e+00 -3.726924e+00 -3.695223e+00 
-3.717109e+00 -3.678766e+00 -3.717668e+00 -3.670178e+00 -3.711843e+00 -3.652268e+00 -3.699164e+00 -3.622690e+00 -3.679036e+00 -3.576876e+00 -3.652917e+00 -3.505182e+00 -3.633658e+00 -3.379743e+00 -3.683349e+00 -1.928888e+00 8.261367e+00 1.336095e+01 1.300881e+01 1.316575e+01 1.308017e+01 1.319339e+01 1.315036e+01 1.325017e+01 1.321856e+01 1.330386e+01 1.327724e+01 1.334869e+01 1.332327e+01 1.338232e+01 1.335427e+01 1.340186e+01 1.336795e+01 1.340502e+01 1.336326e+01 1.339141e+01 1.334102e+01 1.336267e+01 1.330312e+01 1.332156e+01 1.325022e+01 1.327156e+01 1.317889e+01 1.322219e+01 1.307675e+01 1.321053e+01 1.289857e+01 1.336836e+01 1.152447e+01 1.904375e+00 -3.684071e+00 -3.346329e+00 -3.595528e+00 -3.494272e+00 -3.610821e+00 -3.574895e+00 -3.644524e+00 -3.623415e+00 -3.674405e+00 -3.653401e+00 -3.696188e+00 -3.670979e+00 -3.710131e+00 -3.679043e+00 
-3.713710e+00 -3.671773e+00 -3.713400e+00 -3.660469e+00 -3.706557e+00 -3.638732e+00 -3.692896e+00 -3.603559e+00 -3.672097e+00 -3.549429e+00 -3.645731e+00 -3.465903e+00 -3.624164e+00 -3.328779e+00 -3.649093e+00 -7.372310e-01 9.934377e+00 1.342970e+01 1.289869e+01 1.321684e+01 1.302129e+01 1.320064e+01 1.310710e+01 1.323249e+01 1.317401e+01 1.326897e+01 1.322462e+01 1.329902e+01 1.326055e+01 1.332026e+01 1.328338e+01 1.333236e+01 1.329418e+01 1.333515e+01 1.329345e+01 1.332839e+01 1.328119e+01 1.331180e+01 1.325688e+01 1.328523e+01 1.321938e+01 1.325038e+01 1.316705e+01 1.321576e+01 1.309733e+01 1.321087e+01 1.300602e+01 1.331451e+01 1.269050e+01 3.625545e+00 -3.538525e+00 -3.430623e+00 -3.541567e+00 -3.518586e+00 -3.589205e+00 -3.581617e+00 -3.635421e+00 -3.624276e+00 -3.669972e+00 -3.651753e+00 -3.693231e+00 -3.667669e+00 -3.707274e+00 -3.674079e+00 
-3.703224e+00 -3.661392e+00 -3.704761e+00 -3.650569e+00 -3.699390e+00 -3.628383e+00 -3.687039e+00 -3.591519e+00 -3.667431e+00 -3.534253e+00 -3.641206e+00 -3.447505e+00 -3.613019e+00 -3.317483e+00 -3.598101e+00 3.294418e-01 1.113254e+01 1.343922e+01 1.291735e+01 1.329295e+01 1.303589e+01 1.325996e+01 1.312675e+01 1.327761e+01 1.320042e+01 1.330982e+01 1.325864e+01 1.334202e+01 1.330226e+01 1.336771e+01 1.333099e+01 1.338285e+01 1.334388e+01 1.338489e+01 1.334047e+01 1.337312e+01 1.332150e+01 1.334860e+01 1.328853e+01 1.331329e+01 1.324307e+01 1.326960e+01 1.318716e+01 1.322218e+01 1.312858e+01 1.318153e+01 1.309730e+01 1.315437e+01 1.315211e+01 4.997142e+00 -3.193409e+00 -3.476992e+00 -3.428047e+00 -3.518351e+00 -3.534265e+00 -3.567456e+00 -3.602806e+00 -3.607784e+00 -3.647664e+00 -3.636486e+00 -3.676629e+00 -3.654355e+00 -3.694287e+00 -3.662502e+00 
-3.704368e+00 -3.660048e+00 -3.704723e+00 -3.647164e+00 -3.698110e+00 -3.622563e+00 -3.684391e+00 -3.582880e+00 -3.662843e+00 -3.522888e+00 -3.631991e+00 -3.436261e+00 -3.587282e+00 -3.320528e+00 -3.506854e+00 9.727107e-01 1.170486e+01 1.338296e+01 1.289505e+01 1.328387e+01 1.300131e+01 1.324559e+01 1.309019e+01 1.325167e+01 1.315991e+01 1.327317e+01 1.321168e+01 1.329568e+01 1.324816e+01 1.331344e+01 1.327146e+01 1.332405e+01 1.328272e+01 1.332633e+01 1.328248e+01 1.331976e+01 1.327117e+01 1.330428e+01 1.324920e+01 1.328002e+01 1.321740e+01 1.324736e+01 1.317952e+01 1.320703e+01 1.315029e+01 1.315601e+01 1.317617e+01 1.305297e+01 1.336117e+01 5.981685e+00 -2.870598e+00 -3.535466e+00 -3.363050e+00 -3.544442e+00 -3.517778e+00 -3.580404e+00 -3.601068e+00 -3.615124e+00 -3.649986e+00 -3.640884e+00 -3.679483e+00 -3.656689e+00 -3.696484e+00 -3.663012e+00 
-3.698386e+00 -3.655365e+00 -3.700301e+00 -3.643718e+00 -3.695072e+00 -3.620029e+00 -3.682622e+00 -3.580814e+00 -3.662114e+00 -3.520694e+00 -3.631059e+00 -3.433518e+00 -3.579746e+00 -3.318955e+00 -3.463537e+00 1.235282e+00 1.189629e+01 1.336147e+01 1.291962e+01 1.330897e+01 1.302763e+01 1.327973e+01 1.311950e+01 1.328800e+01 1.319412e+01 1.331280e+01 1.325221e+01 1.334034e+01 1.329518e+01 1.336321e+01 1.332332e+01 1.337684e+01 1.333604e+01 1.337846e+01 1.333305e+01 1.336721e+01 1.331520e+01 1.334396e+01 1.328423e+01 1.331031e+01 1.324269e+01 1.326763e+01 1.319623e+01 1.321612e+01 1.316319e+01 1.314935e+01 1.319781e+01 1.301792e+01 1.341058e+01 6.288316e+00 -2.744151e+00 -3.538608e+00 -3.326913e+00 -3.535696e+00 -3.494866e+00 -3.568583e+00 -3.584368e+00 -3.603759e+00 -3.637120e+00 -3.631135e+00 -3.669432e+00 -3.648780e+00 -3.688666e+00 -3.656827e+00 