# vtk DataFile Version 2.0
Comment goes here
ASCII

DATASET STRUCTURED_POINTS
FIELD FieldData 1
TIME 1 1 double
1.97000000
DIMENSIONS    64   64   1

ORIGIN    0.000   0.000   0.000
SPACING   0.015625 0.015625   1.000

POINT_DATA   4096
SCALARS P double
LOOKUP_TABLE default

-3.814224e+00 -3.812467e+00 -3.814802e+00 -3.814332e+00 -3.816540e+00 -3.817576e+00 -3.819453e+00 -3.822151e+00 -3.823568e+00 -3.827993e+00 -3.828918e+00 -3.835012e+00 -3.835520e+00 -3.843070e+00 -3.843333e+00 -3.851933e+00 -3.852180e+00 -3.861214e+00 -3.861667e+00 -3.870337e+00 -3.871131e+00 -3.878554e+00 -3.879674e+00 -3.885061e+00 -3.886335e+00 -3.889207e+00 -3.890404e+00 -3.890789e+00 -3.891817e+00 -3.890344e+00 -3.891446e+00 -3.889151e+00 -3.890700e+00 -3.888413e+00 -3.890348e+00 -3.888170e+00 -3.889804e+00 -3.887310e+00 -3.887800e+00 -3.884663e+00 -3.883539e+00 -3.879769e+00 -3.877057e+00 -3.872835e+00 -3.868938e+00 -3.864461e+00 -3.859979e+00 -3.855394e+00 -3.850957e+00 -3.846349e+00 -3.842488e+00 -3.837892e+00 -3.834963e+00 -3.830395e+00 -3.828574e+00 -3.824069e+00 -3.823375e+00 -3.819019e+00 -3.819359e+00 -3.815302e+00 -3.816503e+00 -3.812956e+00 -3.814793e+00 -3.812006e+00 
-3.817440e+00 -3.815855e+00 -3.817283e+00 -3.817018e+00 -3.818268e+00 -3.819528e+00 -3.820405e+00 -3.823315e+00 -3.823700e+00 -3.828277e+00 -3.828157e+00 -3.834278e+00 -3.833759e+00 -3.841131e+00 -3.840427e+00 -3.848572e+00 -3.847958e+00 -3.856223e+00 -3.855964e+00 -3.863598e+00 -3.863865e+00 -3.870167e+00 -3.870991e+00 -3.875516e+00 -3.876809e+00 -3.879520e+00 -3.881163e+00 -3.882367e+00 -3.884236e+00 -3.884287e+00 -3.886152e+00 -3.885227e+00 -3.886824e+00 -3.885038e+00 -3.886229e+00 -3.883779e+00 -3.884567e+00 -3.881708e+00 -3.882077e+00 -3.878957e+00 -3.878727e+00 -3.875317e+00 -3.874275e+00 -3.870528e+00 -3.868616e+00 -3.864562e+00 -3.861954e+00 -3.857682e+00 -3.854734e+00 -3.850339e+00 -3.847465e+00 -3.843011e+00 -3.840575e+00 -3.836105e+00 -3.834352e+00 -3.829923e+00 -3.828970e+00 -3.824685e+00 -3.824531e+00 -3.820554e+00 -3.821098e+00 -3.817652e+00 -3.818721e+00 -3.816069e+00 
-3.813650e+00 -3.811764e+00 -3.814223e+00 -3.813644e+00 -3.815954e+00 -3.816917e+00 -3.818866e+00 -3.821543e+00 -3.822992e+00 -3.827465e+00 -3.828376e+00 -3.834604e+00 -3.835052e+00 -3.842829e+00 -3.842996e+00 -3.851913e+00 -3.852048e+00 -3.861467e+00 -3.861826e+00 -3.870901e+00 -3.871662e+00 -3.879443e+00 -3.880622e+00 -3.886245e+00 -3.887659e+00 -3.890576e+00 -3.891910e+00 -3.892102e+00 -3.893144e+00 -3.891294e+00 -3.892330e+00 -3.889704e+00 -3.891316e+00 -3.888952e+00 -3.891151e+00 -3.889071e+00 -3.890994e+00 -3.888531e+00 -3.889141e+00 -3.885905e+00 -3.884700e+00 -3.880803e+00 -3.877880e+00 -3.873572e+00 -3.869403e+00 -3.864888e+00 -3.860127e+00 -3.855532e+00 -3.850853e+00 -3.846239e+00 -3.842198e+00 -3.837582e+00 -3.834546e+00 -3.829936e+00 -3.828078e+00 -3.823505e+00 -3.822836e+00 -3.818387e+00 -3.818800e+00 -3.814628e+00 -3.815936e+00 -3.812259e+00 -3.814222e+00 -3.811301e+00 
-3.816316e+00 -3.814477e+00 -3.816143e+00 -3.815675e+00 -3.817124e+00 -3.818268e+00 -3.819277e+00 -3.822194e+00 -3.822623e+00 -3.827364e+00 -3.827186e+00 -3.833651e+00 -3.832971e+00 -3.840870e+00 -3.839925e+00 -3.848740e+00 -3.847853e+00 -3.856841e+00 -3.856350e+00 -3.864611e+00 -3.864763e+00 -3.871433e+00 -3.872291e+00 -3.876847e+00 -3.878309e+00 -3.880835e+00 -3.882785e+00 -3.883880e+00 -3.886251e+00 -3.886405e+00 -3.888775e+00 -3.887904e+00 -3.889699e+00 -3.887665e+00 -3.888697e+00 -3.885763e+00 -3.886302e+00 -3.883034e+00 -3.883345e+00 -3.880062e+00 -3.879911e+00 -3.876473e+00 -3.875467e+00 -3.871718e+00 -3.869688e+00 -3.865621e+00 -3.862736e+00 -3.858439e+00 -3.855125e+00 -3.850690e+00 -3.847454e+00 -3.842934e+00 -3.840211e+00 -3.835636e+00 -3.833714e+00 -3.829132e+00 -3.828137e+00 -3.823649e+00 -3.823567e+00 -3.819347e+00 -3.820053e+00 -3.816339e+00 -3.817627e+00 -3.814701e+00 
-3.811931e+00 -3.809646e+00 -3.812488e+00 -3.811567e+00 -3.814198e+00 -3.814925e+00 -3.817099e+00 -3.819697e+00 -3.821246e+00 -3.825852e+00 -3.826720e+00 -3.833339e+00 -3.833597e+00 -3.842057e+00 -3.841908e+00 -3.851797e+00 -3.851550e+00 -3.862165e+00 -3.862188e+00 -3.872538e+00 -3.873156e+00 -3.882077e+00 -3.883439e+00 -3.889833e+00 -3.891742e+00 -3.894837e+00 -3.896698e+00 -3.896254e+00 -3.897302e+00 -3.894097e+00 -3.894741e+00 -3.890932e+00 -3.892665e+00 -3.890144e+00 -3.893305e+00 -3.891749e+00 -3.894726e+00 -3.892421e+00 -3.893419e+00 -3.889792e+00 -3.888281e+00 -3.883938e+00 -3.880316e+00 -3.875745e+00 -3.870712e+00 -3.866114e+00 -3.860485e+00 -3.855892e+00 -3.850466e+00 -3.845856e+00 -3.841269e+00 -3.836608e+00 -3.833255e+00 -3.828524e+00 -3.826566e+00 -3.821789e+00 -3.821207e+00 -3.816473e+00 -3.817118e+00 -3.812594e+00 -3.814235e+00 -3.810159e+00 -3.812513e+00 -3.809176e+00 
-3.814057e+00 -3.811680e+00 -3.813851e+00 -3.812946e+00 -3.814822e+00 -3.815700e+00 -3.817000e+00 -3.819898e+00 -3.820432e+00 -3.825477e+00 -3.825182e+00 -3.832334e+00 -3.831307e+00 -3.840291e+00 -3.838806e+00 -3.849044e+00 -3.847526e+00 -3.858088e+00 -3.857042e+00 -3.866698e+00 -3.866558e+00 -3.874025e+00 -3.874945e+00 -3.879427e+00 -3.881212e+00 -3.883070e+00 -3.885580e+00 -3.886322e+00 -3.889901e+00 -3.890536e+00 -3.894248e+00 -3.893758e+00 -3.896014e+00 -3.893413e+00 -3.893842e+00 -3.889610e+00 -3.889360e+00 -3.885098e+00 -3.885355e+00 -3.881867e+00 -3.882057e+00 -3.878679e+00 -3.877868e+00 -3.874160e+00 -3.871916e+00 -3.867842e+00 -3.864350e+00 -3.860024e+00 -3.855901e+00 -3.851411e+00 -3.847385e+00 -3.842755e+00 -3.839423e+00 -3.834649e+00 -3.832380e+00 -3.827491e+00 -3.826422e+00 -3.821521e+00 -3.821605e+00 -3.816883e+00 -3.817939e+00 -3.813665e+00 -3.815422e+00 -3.811921e+00 
-3.809081e+00 -3.806085e+00 -3.809606e+00 -3.808068e+00 -3.811274e+00 -3.811555e+00 -3.814139e+00 -3.816551e+00 -3.818292e+00 -3.823065e+00 -3.823865e+00 -3.831097e+00 -3.831010e+00 -3.840601e+00 -3.839847e+00 -3.851408e+00 -3.850384e+00 -3.863124e+00 -3.862389e+00 -3.875069e+00 -3.875269e+00 -3.886317e+00 -3.887962e+00 -3.895865e+00 -3.898886e+00 -3.902503e+00 -3.905819e+00 -3.904194e+00 -3.905121e+00 -3.898718e+00 -3.897783e+00 -3.891128e+00 -3.892740e+00 -3.890314e+00 -3.895839e+00 -3.896239e+00 -3.901775e+00 -3.899941e+00 -3.901643e+00 -3.896859e+00 -3.894537e+00 -3.889206e+00 -3.884181e+00 -3.879195e+00 -3.872562e+00 -3.867957e+00 -3.860767e+00 -3.856299e+00 -3.849568e+00 -3.845041e+00 -3.839532e+00 -3.834835e+00 -3.830973e+00 -3.826055e+00 -3.823968e+00 -3.818846e+00 -3.818450e+00 -3.813224e+00 -3.814299e+00 -3.809161e+00 -3.811401e+00 -3.806627e+00 -3.809676e+00 -3.805604e+00 
-3.810652e+00 -3.807393e+00 -3.810401e+00 -3.808755e+00 -3.811348e+00 -3.811737e+00 -3.813540e+00 -3.816325e+00 -3.817061e+00 -3.822496e+00 -3.822033e+00 -3.830193e+00 -3.828591e+00 -3.839268e+00 -3.836831e+00 -3.849404e+00 -3.846704e+00 -3.859991e+00 -3.857839e+00 -3.870036e+00 -3.869285e+00 -3.878204e+00 -3.879254e+00 -3.883249e+00 -3.885502e+00 -3.885292e+00 -3.888200e+00 -3.887837e+00 -3.893857e+00 -3.896317e+00 -3.903272e+00 -3.904390e+00 -3.907577e+00 -3.903854e+00 -3.902315e+00 -3.894892e+00 -3.892367e+00 -3.886039e+00 -3.886592e+00 -3.883402e+00 -3.884757e+00 -3.881832e+00 -3.881653e+00 -3.878088e+00 -3.875551e+00 -3.871497e+00 -3.866918e+00 -3.862600e+00 -3.857037e+00 -3.852533e+00 -3.847149e+00 -3.842409e+00 -3.838077e+00 -3.833033e+00 -3.830228e+00 -3.824878e+00 -3.823733e+00 -3.818185e+00 -3.818581e+00 -3.813060e+00 -3.814717e+00 -3.809545e+00 -3.812087e+00 -3.807655e+00 
-3.805135e+00 -3.801049e+00 -3.805613e+00 -3.803104e+00 -3.807204e+00 -3.806745e+00 -3.809983e+00 -3.812012e+00 -3.814082e+00 -3.818968e+00 -3.819697e+00 -3.827686e+00 -3.827070e+00 -3.838207e+00 -3.836455e+00 -3.850446e+00 -3.848024e+00 -3.864030e+00 -3.861749e+00 -3.878166e+00 -3.877247e+00 -3.891777e+00 -3.893614e+00 -3.904097e+00 -3.909294e+00 -3.914469e+00 -3.922058e+00 -3.918984e+00 -3.919530e+00 -3.905738e+00 -3.899221e+00 -3.885591e+00 -3.885867e+00 -3.884815e+00 -3.896283e+00 -3.903312e+00 -3.914940e+00 -3.914072e+00 -3.916516e+00 -3.908068e+00 -3.903536e+00 -3.896303e+00 -3.888796e+00 -3.883438e+00 -3.874273e+00 -3.870062e+00 -3.860460e+00 -3.856464e+00 -3.847781e+00 -3.843532e+00 -3.836718e+00 -3.832042e+00 -3.827523e+00 -3.822363e+00 -3.820182e+00 -3.814562e+00 -3.814524e+00 -3.808569e+00 -3.810342e+00 -3.804285e+00 -3.807456e+00 -3.801631e+00 -3.805743e+00 -3.800559e+00 
-3.806108e+00 -3.801528e+00 -3.805804e+00 -3.803008e+00 -3.806705e+00 -3.806263e+00 -3.808874e+00 -3.811325e+00 -3.812438e+00 -3.818233e+00 -3.817588e+00 -3.827006e+00 -3.824563e+00 -3.837571e+00 -3.833607e+00 -3.849649e+00 -3.844877e+00 -3.862562e+00 -3.858275e+00 -3.875000e+00 -3.872993e+00 -3.884795e+00 -3.886337e+00 -3.889007e+00 -3.892204e+00 -3.885967e+00 -3.887010e+00 -3.882840e+00 -3.893817e+00 -3.902613e+00 -3.917910e+00 -3.924471e+00 -3.929691e+00 -3.923579e+00 -3.916009e+00 -3.900210e+00 -3.891033e+00 -3.880324e+00 -3.883252e+00 -3.883104e+00 -3.887875e+00 -3.886298e+00 -3.887616e+00 -3.884175e+00 -3.881201e+00 -3.877155e+00 -3.870644e+00 -3.866458e+00 -3.858445e+00 -3.854080e+00 -3.846525e+00 -3.841759e+00 -3.835934e+00 -3.830583e+00 -3.827062e+00 -3.821086e+00 -3.819930e+00 -3.813463e+00 -3.814411e+00 -3.807738e+00 -3.810348e+00 -3.803870e+00 -3.807609e+00 -3.801811e+00 
-3.800174e+00 -3.794523e+00 -3.800585e+00 -3.796645e+00 -3.802050e+00 -3.800436e+00 -3.804662e+00 -3.805977e+00 -3.808591e+00 -3.813389e+00 -3.814096e+00 -3.822837e+00 -3.821522e+00 -3.834502e+00 -3.831272e+00 -3.848469e+00 -3.843740e+00 -3.864460e+00 -3.859207e+00 -3.881418e+00 -3.877695e+00 -3.897622e+00 -3.898768e+00 -3.912968e+00 -3.921228e+00 -3.930998e+00 -3.952404e+00 -3.950448e+00 -3.950746e+00 -3.918928e+00 -3.893563e+00 -3.861201e+00 -3.856048e+00 -3.860553e+00 -3.888295e+00 -3.917359e+00 -3.944255e+00 -3.944017e+00 -3.944995e+00 -3.924079e+00 -3.913262e+00 -3.903438e+00 -3.892163e+00 -3.887298e+00 -3.874572e+00 -3.871946e+00 -3.858833e+00 -3.856019e+00 -3.844624e+00 -3.840961e+00 -3.832492e+00 -3.827919e+00 -3.822694e+00 -3.817229e+00 -3.815100e+00 -3.808802e+00 -3.809398e+00 -3.802431e+00 -3.805269e+00 -3.797926e+00 -3.802455e+00 -3.795151e+00 -3.800788e+00 -3.794027e+00 
-3.800469e+00 -3.794005e+00 -3.800110e+00 -3.795609e+00 -3.800930e+00 -3.799147e+00 -3.803005e+00 -3.804709e+00 -3.806502e+00 -3.812425e+00 -3.811684e+00 -3.822430e+00 -3.818904e+00 -3.834797e+00 -3.828574e+00 -3.849393e+00 -3.841149e+00 -3.865642e+00 -3.857191e+00 -3.882112e+00 -3.877212e+00 -3.895767e+00 -3.899222e+00 -3.900058e+00 -3.907707e+00 -3.884515e+00 -3.871916e+00 -3.853526e+00 -3.875596e+00 -3.906208e+00 -3.944670e+00 -3.967582e+00 -3.977734e+00 -3.965987e+00 -3.940666e+00 -3.901317e+00 -3.871607e+00 -3.850696e+00 -3.865987e+00 -3.880797e+00 -3.894209e+00 -3.894397e+00 -3.898131e+00 -3.893789e+00 -3.889924e+00 -3.885814e+00 -3.875699e+00 -3.872002e+00 -3.859826e+00 -3.855984e+00 -3.845079e+00 -3.840500e+00 -3.832603e+00 -3.826942e+00 -3.822591e+00 -3.815799e+00 -3.814833e+00 -3.807112e+00 -3.809005e+00 -3.800742e+00 -3.804806e+00 -3.796518e+00 -3.802010e+00 -3.794300e+00 
-3.794328e+00 -3.786514e+00 -3.794647e+00 -3.788677e+00 -3.795922e+00 -3.792579e+00 -3.798252e+00 -3.798338e+00 -3.801833e+00 -3.806129e+00 -3.806974e+00 -3.816210e+00 -3.814115e+00 -3.828952e+00 -3.823805e+00 -3.844803e+00 -3.836670e+00 -3.863902e+00 -3.853356e+00 -3.884760e+00 -3.874443e+00 -3.902793e+00 -3.900397e+00 -3.916753e+00 -3.921892e+00 -3.943976e+00 -4.013971e+00 -4.031545e+00 -4.035513e+00 -3.955384e+00 -3.865888e+00 -3.779291e+00 -3.757045e+00 -3.778197e+00 -3.853651e+00 -3.958075e+00 -4.026794e+00 -4.019478e+00 -4.004816e+00 -3.939546e+00 -3.910667e+00 -3.904073e+00 -3.889946e+00 -3.888517e+00 -3.871515e+00 -3.873411e+00 -3.855172e+00 -3.854624e+00 -3.839628e+00 -3.836816e+00 -3.826491e+00 -3.822041e+00 -3.816256e+00 -3.810385e+00 -3.808621e+00 -3.801421e+00 -3.803072e+00 -3.794744e+00 -3.799144e+00 -3.790065e+00 -3.796502e+00 -3.787194e+00 -3.794934e+00 -3.786025e+00 
-3.793828e+00 -3.784768e+00 -3.793422e+00 -3.786476e+00 -3.794112e+00 -3.790245e+00 -3.795977e+00 -3.796240e+00 -3.799217e+00 -3.804708e+00 -3.804165e+00 -3.815951e+00 -3.811279e+00 -3.830265e+00 -3.821081e+00 -3.847822e+00 -3.834163e+00 -3.868440e+00 -3.851783e+00 -3.891233e+00 -3.878145e+00 -3.914231e+00 -3.922718e+00 -3.927380e+00 -3.962846e+00 -3.893711e+00 -3.813703e+00 -3.739443e+00 -3.792513e+00 -3.900750e+00 -4.006582e+00 -4.073582e+00 -4.096115e+00 -4.071022e+00 -3.995714e+00 -3.887623e+00 -3.789452e+00 -3.739709e+00 -3.812542e+00 -3.892787e+00 -3.922639e+00 -3.913675e+00 -3.917555e+00 -3.907939e+00 -3.902372e+00 -3.898817e+00 -3.881653e+00 -3.879591e+00 -3.860337e+00 -3.857847e+00 -3.841993e+00 -3.837978e+00 -3.827457e+00 -3.821486e+00 -3.816408e+00 -3.808532e+00 -3.808216e+00 -3.798799e+00 -3.802271e+00 -3.791868e+00 -3.798094e+00 -3.787374e+00 -3.795349e+00 -3.785056e+00 
-3.787776e+00 -3.777055e+00 -3.787978e+00 -3.779206e+00 -3.788981e+00 -3.783134e+00 -3.790878e+00 -3.788988e+00 -3.793866e+00 -3.796973e+00 -3.798282e+00 -3.807383e+00 -3.804635e+00 -3.820755e+00 -3.813594e+00 -3.838206e+00 -3.825963e+00 -3.861459e+00 -3.842672e+00 -3.889861e+00 -3.864696e+00 -3.909497e+00 -3.902135e+00 -3.902140e+00 -3.847175e+00 -3.893969e+00 -4.147650e+00 -4.284240e+00 -4.315772e+00 -4.074174e+00 -3.683615e+00 -3.288693e+00 -3.146996e+00 -3.288999e+00 -3.646713e+00 -4.097304e+00 -4.309111e+00 -4.244472e+00 -4.139405e+00 -3.911687e+00 -3.833277e+00 -3.880909e+00 -3.880742e+00 -3.885029e+00 -3.862739e+00 -3.876136e+00 -3.849478e+00 -3.851881e+00 -3.832450e+00 -3.830172e+00 -3.818288e+00 -3.813779e+00 -3.807931e+00 -3.801509e+00 -3.800645e+00 -3.792273e+00 -3.795572e+00 -3.785455e+00 -3.792075e+00 -3.780702e+00 -3.789746e+00 -3.777791e+00 -3.788351e+00 -3.776592e+00 
-3.786330e+00 -3.773796e+00 -3.785893e+00 -3.775545e+00 -3.786385e+00 -3.779402e+00 -3.787871e+00 -3.785620e+00 -3.790565e+00 -3.794590e+00 -3.794876e+00 -3.806819e+00 -3.801393e+00 -3.822901e+00 -3.810685e+00 -3.843463e+00 -3.822785e+00 -3.868890e+00 -3.837192e+00 -3.899025e+00 -3.859550e+00 -3.940228e+00 -3.946137e+00 -3.996920e+00 -4.201203e+00 -3.914998e+00 -2.893428e+00 -7.986529e-01 1.315069e+00 3.304006e+00 5.063498e+00 6.204336e+00 6.580800e+00 6.187031e+00 5.049225e+00 3.216937e+00 1.446138e+00 -8.788337e-01 -3.103851e+00 -3.988286e+00 -4.071077e+00 -3.956638e+00 -3.941135e+00 -3.919708e+00 -3.915022e+00 -3.918264e+00 -3.886404e+00 -3.889114e+00 -3.858105e+00 -3.858412e+00 -3.835844e+00 -3.832839e+00 -3.819551e+00 -3.813154e+00 -3.807958e+00 -3.798568e+00 -3.799808e+00 -3.788091e+00 -3.794128e+00 -3.780887e+00 -3.790248e+00 -3.776339e+00 -3.787734e+00 -3.774046e+00 
-3.780727e+00 -3.766192e+00 -3.780786e+00 -3.768237e+00 -3.781423e+00 -3.772047e+00 -3.782699e+00 -3.777809e+00 -3.784774e+00 -3.785715e+00 -3.787977e+00 -3.795928e+00 -3.792870e+00 -3.808787e+00 -3.800239e+00 -3.825997e+00 -3.811002e+00 -3.853696e+00 -3.826336e+00 -3.902665e+00 -3.839220e+00 -3.941217e+00 -3.988153e+00 -3.672868e+00 -2.541934e+00 1.626148e+00 5.857539e+00 9.140154e+00 1.166657e+01 1.285594e+01 1.358768e+01 1.380148e+01 1.388144e+01 1.379022e+01 1.352094e+01 1.284514e+01 1.171919e+01 8.955406e+00 5.590893e+00 1.749308e+00 -2.136818e+00 -3.777511e+00 -3.928332e+00 -3.886525e+00 -3.840790e+00 -3.888090e+00 -3.844704e+00 -3.845604e+00 -3.822560e+00 -3.818804e+00 -3.807047e+00 -3.802164e+00 -3.797255e+00 -3.790249e+00 -3.791024e+00 -3.781215e+00 -3.786941e+00 -3.774506e+00 -3.784197e+00 -3.769835e+00 -3.782367e+00 -3.766980e+00 -3.781242e+00 -3.765786e+00 
-3.778156e+00 -3.761115e+00 -3.777720e+00 -3.762785e+00 -3.777929e+00 -3.766459e+00 -3.778801e+00 -3.772491e+00 -3.780519e+00 -3.781427e+00 -3.783563e+00 -3.793995e+00 -3.788856e+00 -3.811160e+00 -3.797550e+00 -3.834288e+00 -3.809131e+00 -3.864565e+00 -3.814814e+00 -3.896343e+00 -3.779664e+00 -3.880881e+00 -3.117777e+00 1.504088e+00 5.930291e+00 1.012043e+01 1.297461e+01 1.341977e+01 1.379974e+01 1.362306e+01 1.351057e+01 1.336646e+01 1.335766e+01 1.337421e+01 1.350578e+01 1.368948e+01 1.379351e+01 1.348833e+01 1.301135e+01 1.047602e+01 6.030151e+00 1.022981e+00 -2.829723e+00 -3.890541e+00 -3.920116e+00 -3.956902e+00 -3.887261e+00 -3.899017e+00 -3.850016e+00 -3.854409e+00 -3.824413e+00 -3.822453e+00 -3.807528e+00 -3.800244e+00 -3.796523e+00 -3.784914e+00 -3.789306e+00 -3.774466e+00 -3.784516e+00 -3.767571e+00 -3.781341e+00 -3.763356e+00 -3.779311e+00 -3.761291e+00 
-3.773391e+00 -3.753972e+00 -3.773283e+00 -3.755759e+00 -3.773458e+00 -3.759220e+00 -3.773898e+00 -3.764633e+00 -3.774651e+00 -3.772209e+00 -3.775965e+00 -3.781759e+00 -3.778487e+00 -3.792296e+00 -3.783305e+00 -3.803175e+00 -3.791516e+00 -3.824937e+00 -3.813681e+00 -3.929670e+00 -3.642642e+00 -1.368545e+00 3.197778e+00 9.472798e+00 1.288671e+01 1.331002e+01 1.338530e+01 1.314772e+01 1.318267e+01 1.325814e+01 1.340619e+01 1.347223e+01 1.351621e+01 1.347371e+01 1.339645e+01 1.327542e+01 1.319172e+01 1.319094e+01 1.339018e+01 1.334203e+01 1.259834e+01 9.223181e+00 3.574660e+00 -1.568221e+00 -3.761353e+00 -3.931829e+00 -3.861991e+00 -3.822648e+00 -3.806281e+00 -3.797754e+00 -3.790574e+00 -3.786256e+00 -3.783378e+00 -3.776438e+00 -3.779546e+00 -3.768119e+00 -3.777237e+00 -3.761790e+00 -3.775671e+00 -3.757428e+00 -3.774559e+00 -3.754791e+00 -3.773809e+00 -3.753668e+00 
-3.769525e+00 -3.746840e+00 -3.769140e+00 -3.748231e+00 -3.768988e+00 -3.751292e+00 -3.768963e+00 -3.756473e+00 -3.769069e+00 -3.764462e+00 -3.769699e+00 -3.776163e+00 -3.772374e+00 -3.792857e+00 -3.780971e+00 -3.817585e+00 -3.801446e+00 -3.859416e+00 -3.834919e+00 -3.769751e+00 -1.162429e+00 5.596233e+00 1.101524e+01 1.287520e+01 1.322771e+01 1.321934e+01 1.322832e+01 1.333370e+01 1.343155e+01 1.341342e+01 1.341299e+01 1.337508e+01 1.337892e+01 1.337963e+01 1.340837e+01 1.342832e+01 1.342197e+01 1.332611e+01 1.321813e+01 1.316202e+01 1.315267e+01 1.303004e+01 1.123896e+01 5.533400e+00 -9.392658e-01 -3.761787e+00 -3.892506e+00 -3.896577e+00 -3.831151e+00 -3.838184e+00 -3.804407e+00 -3.802313e+00 -3.789574e+00 -3.780430e+00 -3.781308e+00 -3.766441e+00 -3.776475e+00 -3.757433e+00 -3.773461e+00 -3.751775e+00 -3.771513e+00 -3.748463e+00 -3.770268e+00 -3.746910e+00 
-3.765962e+00 -3.740470e+00 -3.765684e+00 -3.741752e+00 -3.765329e+00 -3.744474e+00 -3.764729e+00 -3.749137e+00 -3.763671e+00 -3.756291e+00 -3.762111e+00 -3.765826e+00 -3.760873e+00 -3.774516e+00 -3.762215e+00 -3.769135e+00 -3.759373e+00 -3.715019e+00 -3.609979e+00 -1.152306e+00 5.570725e+00 1.162231e+01 1.323355e+01 1.319630e+01 1.317971e+01 1.324286e+01 1.325595e+01 1.322139e+01 1.324528e+01 1.326955e+01 1.331918e+01 1.334614e+01 1.336006e+01 1.334679e+01 1.331437e+01 1.327316e+01 1.324067e+01 1.322409e+01 1.324560e+01 1.322462e+01 1.316204e+01 1.316943e+01 1.321858e+01 1.160805e+01 5.768163e+00 -1.134269e+00 -3.557117e+00 -3.722029e+00 -3.752434e+00 -3.763789e+00 -3.765278e+00 -3.768142e+00 -3.765585e+00 -3.760686e+00 -3.766197e+00 -3.752816e+00 -3.766664e+00 -3.747074e+00 -3.766726e+00 -3.743388e+00 -3.766530e+00 -3.741261e+00 -3.766245e+00 -3.740333e+00 
-3.760700e+00 -3.731248e+00 -3.760453e+00 -3.732075e+00 -3.759931e+00 -3.733920e+00 -3.758800e+00 -3.737303e+00 -3.756560e+00 -3.743050e+00 -3.752781e+00 -3.752143e+00 -3.748543e+00 -3.765111e+00 -3.751359e+00 -3.783494e+00 -3.783642e+00 -3.819408e+00 -1.734258e+00 5.032735e+00 1.149623e+01 1.318945e+01 1.315531e+01 1.320116e+01 1.320190e+01 1.323562e+01 1.324068e+01 1.329227e+01 1.331720e+01 1.333657e+01 1.333859e+01 1.334207e+01 1.333633e+01 1.334207e+01 1.333334e+01 1.333461e+01 1.330666e+01 1.327811e+01 1.322568e+01 1.320655e+01 1.318003e+01 1.317625e+01 1.316373e+01 1.310364e+01 1.170075e+01 5.234745e+00 -1.689281e+00 -3.895358e+00 -3.780245e+00 -3.799675e+00 -3.771580e+00 -3.767038e+00 -3.763931e+00 -3.751796e+00 -3.761918e+00 -3.742459e+00 -3.761460e+00 -3.736828e+00 -3.761231e+00 -3.733608e+00 -3.761032e+00 -3.731905e+00 -3.760862e+00 -3.731195e+00 
-3.758632e+00 -3.725899e+00 -3.758222e+00 -3.726289e+00 -3.757365e+00 -3.727575e+00 -3.755670e+00 -3.730596e+00 -3.752391e+00 -3.736930e+00 -3.746525e+00 -3.749174e+00 -3.738932e+00 -3.769431e+00 -3.745024e+00 -3.785528e+00 -3.857626e+00 -3.368995e+00 2.497759e+00 1.042200e+01 1.310814e+01 1.315084e+01 1.319271e+01 1.319624e+01 1.319140e+01 1.322578e+01 1.322167e+01 1.323895e+01 1.324066e+01 1.326690e+01 1.327363e+01 1.329702e+01 1.328955e+01 1.329607e+01 1.326982e+01 1.326364e+01 1.323402e+01 1.322985e+01 1.321066e+01 1.320249e+01 1.317517e+01 1.315095e+01 1.316932e+01 1.304822e+01 1.310674e+01 1.041284e+01 3.026265e+00 -2.963884e+00 -3.870534e+00 -3.768995e+00 -3.751914e+00 -3.760512e+00 -3.745949e+00 -3.743993e+00 -3.751834e+00 -3.734502e+00 -3.755845e+00 -3.729852e+00 -3.757758e+00 -3.727622e+00 -3.758533e+00 -3.726531e+00 -3.758745e+00 -3.726014e+00 
-3.752013e+00 -3.714900e+00 -3.752044e+00 -3.714812e+00 -3.751323e+00 -3.714684e+00 -3.749265e+00 -3.715031e+00 -3.744568e+00 -3.716972e+00 -3.734611e+00 -3.722454e+00 -3.715615e+00 -3.730477e+00 -3.691480e+00 -3.699102e+00 -3.661537e+00 3.744348e-01 8.540710e+00 1.267179e+01 1.307012e+01 1.313113e+01 1.313548e+01 1.319096e+01 1.318219e+01 1.323327e+01 1.322309e+01 1.327278e+01 1.326604e+01 1.330195e+01 1.328823e+01 1.331264e+01 1.329235e+01 1.331087e+01 1.328379e+01 1.329593e+01 1.325783e+01 1.326072e+01 1.321274e+01 1.321857e+01 1.317260e+01 1.318941e+01 1.313475e+01 1.318100e+01 1.306259e+01 1.293397e+01 9.048026e+00 9.511430e-02 -3.792032e+00 -3.638144e+00 -3.736788e+00 -3.712892e+00 -3.730899e+00 -3.715659e+00 -3.739525e+00 -3.713630e+00 -3.745349e+00 -3.713181e+00 -3.748558e+00 -3.713645e+00 -3.750382e+00 -3.714282e+00 -3.751457e+00 -3.714738e+00 
-3.751618e+00 -3.710804e+00 -3.751175e+00 -3.709787e+00 -3.750020e+00 -3.708521e+00 -3.747603e+00 -3.707817e+00 -3.742451e+00 -3.710001e+00 -3.730519e+00 -3.722165e+00 -3.700215e+00 -3.766181e+00 -3.616854e+00 -3.906461e+00 -2.926925e+00 4.334929e+00 1.221901e+01 1.323149e+01 1.300506e+01 1.318590e+01 1.312656e+01 1.320397e+01 1.317039e+01 1.322671e+01 1.320124e+01 1.324434e+01 1.322387e+01 1.326212e+01 1.324331e+01 1.327546e+01 1.325086e+01 1.327393e+01 1.324068e+01 1.325712e+01 1.321878e+01 1.323405e+01 1.319291e+01 1.320791e+01 1.315697e+01 1.317427e+01 1.310348e+01 1.314524e+01 1.296135e+01 1.320655e+01 1.194658e+01 4.534188e+00 -2.314643e+00 -3.929480e+00 -3.622739e+00 -3.758793e+00 -3.711834e+00 -3.718111e+00 -3.737455e+00 -3.709849e+00 -3.746006e+00 -3.709365e+00 -3.749374e+00 -3.710321e+00 -3.750883e+00 -3.711091e+00 -3.751530e+00 -3.711270e+00 
-3.743873e+00 -3.698782e+00 -3.744353e+00 -3.697432e+00 -3.743815e+00 -3.694502e+00 -3.741716e+00 -3.690122e+00 -3.736475e+00 -3.685541e+00 -3.723212e+00 -3.688002e+00 -3.684734e+00 -3.733713e+00 -3.551363e+00 -3.984938e+00 2.234450e-01 8.646286e+00 1.300815e+01 1.305246e+01 1.309276e+01 1.313964e+01 1.312780e+01 1.319526e+01 1.316767e+01 1.323403e+01 1.320394e+01 1.326347e+01 1.323441e+01 1.328319e+01 1.325226e+01 1.329133e+01 1.325663e+01 1.328892e+01 1.324868e+01 1.327587e+01 1.322803e+01 1.325125e+01 1.319642e+01 1.321859e+01 1.316253e+01 1.317943e+01 1.313468e+01 1.311744e+01 1.314115e+01 1.295604e+01 1.327728e+01 9.441858e+00 6.581272e-01 -4.002490e+00 -3.535447e+00 -3.729081e+00 -3.680459e+00 -3.682158e+00 -3.717854e+00 -3.681554e+00 -3.730608e+00 -3.687662e+00 -3.736654e+00 -3.693065e+00 -3.740242e+00 -3.696687e+00 -3.742528e+00 -3.698552e+00 
-3.745200e+00 -3.696279e+00 -3.744850e+00 -3.693413e+00 -3.743734e+00 -3.688433e+00 -3.741616e+00 -3.681039e+00 -3.737894e+00 -3.671168e+00 -3.730716e+00 -3.661424e+00 -3.712321e+00 -3.669223e+00 -3.640786e+00 -3.619824e+00 3.837369e+00 1.210186e+01 1.339598e+01 1.301479e+01 1.315017e+01 1.315741e+01 1.313851e+01 1.320687e+01 1.316221e+01 1.323190e+01 1.318753e+01 1.324739e+01 1.320743e+01 1.325851e+01 1.322114e+01 1.326483e+01 1.322588e+01 1.326340e+01 1.321993e+01 1.325409e+01 1.320515e+01 1.323946e+01 1.318390e+01 1.322003e+01 1.315607e+01 1.319242e+01 1.312682e+01 1.314765e+01 1.312497e+01 1.303476e+01 1.332733e+01 1.173662e+01 4.034131e+00 -3.458448e+00 -3.747426e+00 -3.631015e+00 -3.738581e+00 -3.657841e+00 -3.737977e+00 -3.675551e+00 -3.739995e+00 -3.686374e+00 -3.742194e+00 -3.692741e+00 -3.743866e+00 -3.696108e+00 -3.744869e+00 -3.697189e+00 
-3.736766e+00 -3.684365e+00 -3.737786e+00 -3.681603e+00 -3.737750e+00 -3.675356e+00 -3.736710e+00 -3.664294e+00 -3.735051e+00 -3.645029e+00 -3.735102e+00 -3.608119e+00 -3.747796e+00 -3.521482e+00 -3.816500e+00 -2.093674e+00 7.262534e+00 1.290567e+01 1.308991e+01 1.314398e+01 1.308704e+01 1.318541e+01 1.311944e+01 1.321774e+01 1.315628e+01 1.324259e+01 1.318816e+01 1.326106e+01 1.321231e+01 1.327291e+01 1.322650e+01 1.327746e+01 1.323009e+01 1.327466e+01 1.322326e+01 1.326448e+01 1.320622e+01 1.324702e+01 1.317977e+01 1.322326e+01 1.314580e+01 1.319383e+01 1.310511e+01 1.315936e+01 1.305570e+01 1.313474e+01 1.296748e+01 1.317610e+01 7.792336e+00 -2.084365e+00 -3.846229e+00 -3.500382e+00 -3.736290e+00 -3.599720e+00 -3.718868e+00 -3.640745e+00 -3.721262e+00 -3.661786e+00 -3.726608e+00 -3.673867e+00 -3.731260e+00 -3.680808e+00 -3.734630e+00 -3.684116e+00 
-3.739777e+00 -3.683984e+00 -3.739546e+00 -3.679272e+00 -3.738469e+00 -3.670481e+00 -3.736752e+00 -3.655703e+00 -3.735544e+00 -3.630120e+00 -3.740428e+00 -3.580065e+00 -3.776437e+00 -3.459954e+00 -3.951205e+00 -6.544116e-01 1.004546e+01 1.359328e+01 1.299876e+01 1.328118e+01 1.308096e+01 1.323460e+01 1.312024e+01 1.323629e+01 1.315155e+01 1.324460e+01 1.317633e+01 1.325187e+01 1.319427e+01 1.325719e+01 1.320551e+01 1.325984e+01 1.320946e+01 1.325872e+01 1.320572e+01 1.325390e+01 1.319505e+01 1.324659e+01 1.317826e+01 1.323785e+01 1.315537e+01 1.322956e+01 1.312761e+01 1.323086e+01 1.309710e+01 1.328035e+01 1.304139e+01 1.355305e+01 1.020102e+01 -2.640975e-01 -3.860858e+00 -3.498182e+00 -3.755961e+00 -3.602973e+00 -3.733997e+00 -3.646008e+00 -3.732526e+00 -3.666837e+00 -3.735036e+00 -3.677885e+00 -3.737505e+00 -3.683514e+00 -3.739111e+00 -3.685366e+00 
-3.731286e+00 -3.673438e+00 -3.732725e+00 -3.669580e+00 -3.732900e+00 -3.660950e+00 -3.732005e+00 -3.645808e+00 -3.730776e+00 -3.620289e+00 -3.732917e+00 -3.575728e+00 -3.755583e+00 -3.491939e+00 -3.871393e+00 5.059871e-01 1.118186e+01 1.353741e+01 1.299352e+01 1.331414e+01 1.306509e+01 1.325687e+01 1.311129e+01 1.324954e+01 1.314834e+01 1.325524e+01 1.317721e+01 1.326273e+01 1.319783e+01 1.326816e+01 1.320979e+01 1.326972e+01 1.321272e+01 1.326658e+01 1.320654e+01 1.325860e+01 1.319140e+01 1.324630e+01 1.316739e+01 1.323089e+01 1.313399e+01 1.321500e+01 1.308919e+01 1.320770e+01 1.302757e+01 1.323974e+01 1.292734e+01 1.339458e+01 1.177722e+01 1.402384e+00 -3.764590e+00 -3.487878e+00 -3.699868e+00 -3.572919e+00 -3.698237e+00 -3.618069e+00 -3.707801e+00 -3.644087e+00 -3.716933e+00 -3.659746e+00 -3.723747e+00 -3.668877e+00 -3.728396e+00 -3.673208e+00 
-3.735982e+00 -3.675726e+00 -3.735762e+00 -3.669775e+00 -3.734288e+00 -3.658704e+00 -3.731294e+00 -3.640621e+00 -3.726136e+00 -3.612231e+00 -3.717699e+00 -3.568844e+00 -3.704800e+00 -3.508544e+00 -3.686228e+00 1.989858e+00 1.235421e+01 1.345172e+01 1.302413e+01 1.333230e+01 1.307349e+01 1.327766e+01 1.311338e+01 1.325993e+01 1.314528e+01 1.325589e+01 1.316922e+01 1.325611e+01 1.318598e+01 1.325734e+01 1.319627e+01 1.325801e+01 1.320011e+01 1.325717e+01 1.319753e+01 1.325496e+01 1.318913e+01 1.325265e+01 1.317551e+01 1.325218e+01 1.315693e+01 1.325736e+01 1.313451e+01 1.327851e+01 1.311233e+01 1.334104e+01 1.309661e+01 1.348759e+01 1.267620e+01 2.509139e+00 -3.694284e+00 -3.574796e+00 -3.691680e+00 -3.608834e+00 -3.707714e+00 -3.637294e+00 -3.720086e+00 -3.656605e+00 -3.727831e+00 -3.668651e+00 -3.732428e+00 -3.675251e+00 -3.734952e+00 -3.677477e+00 
-3.728216e+00 -3.667545e+00 -3.729834e+00 -3.663149e+00 -3.729815e+00 -3.653537e+00 -3.727819e+00 -3.637497e+00 -3.722383e+00 -3.613646e+00 -3.708645e+00 -3.583024e+00 -3.670211e+00 -3.560188e+00 -3.548837e+00 2.835307e+00 1.287270e+01 1.339764e+01 1.306935e+01 1.333309e+01 1.308190e+01 1.328595e+01 1.311371e+01 1.326747e+01 1.314586e+01 1.326347e+01 1.317201e+01 1.326470e+01 1.319075e+01 1.326655e+01 1.320163e+01 1.326647e+01 1.320423e+01 1.326311e+01 1.319832e+01 1.325626e+01 1.318404e+01 1.324667e+01 1.316149e+01 1.323581e+01 1.313042e+01 1.322626e+01 1.309152e+01 1.322367e+01 1.305206e+01 1.323589e+01 1.303897e+01 1.324339e+01 1.301046e+01 3.447463e+00 -3.441444e+00 -3.571780e+00 -3.601464e+00 -3.586021e+00 -3.664775e+00 -3.613618e+00 -3.694078e+00 -3.636616e+00 -3.709780e+00 -3.652650e+00 -3.719083e+00 -3.662557e+00 -3.724817e+00 -3.667341e+00 
-3.734589e+00 -3.672817e+00 -3.734342e+00 -3.666450e+00 -3.732560e+00 -3.654705e+00 -3.728491e+00 -3.636025e+00 -3.719662e+00 -3.608774e+00 -3.698149e+00 -3.574641e+00 -3.637473e+00 -3.552712e+00 -3.446933e+00 3.161643e+00 1.299060e+01 1.333254e+01 1.307191e+01 1.332187e+01 1.308322e+01 1.328656e+01 1.311410e+01 1.326757e+01 1.314381e+01 1.326005e+01 1.316691e+01 1.325780e+01 1.318321e+01 1.325761e+01 1.319324e+01 1.325764e+01 1.319709e+01 1.325690e+01 1.319489e+01 1.325556e+01 1.318724e+01 1.325498e+01 1.317486e+01 1.325731e+01 1.315839e+01 1.326607e+01 1.314027e+01 1.328754e+01 1.313024e+01 1.332540e+01 1.315663e+01 1.333039e+01 1.324369e+01 3.817893e+00 -3.372132e+00 -3.628903e+00 -3.608419e+00 -3.620817e+00 -3.683936e+00 -3.637299e+00 -3.712009e+00 -3.653876e+00 -3.724289e+00 -3.665632e+00 -3.730343e+00 -3.672398e+00 -3.733386e+00 -3.674709e+00 