# vtk DataFile Version 2.0
Comment goes here
ASCII

DATASET STRUCTURED_POINTS
FIELD FieldData 1
TIME 1 1 double
1.29000000
DIMENSIONS    64   64   1

ORIGIN    0.000   0.000   0.000
SPACING   0.015625 0.015625   1.000

POINT_DATA   4096
SCALARS P double
LOOKUP_TABLE default

-4.092856e+00 -4.100640e+00 -4.091378e+00 -4.094480e+00 -4.083615e+00 -4.081958e+00 -4.069515e+00 -4.063094e+00 -4.049094e+00 -4.038000e+00 -4.022524e+00 -4.006970e+00 -3.990245e+00 -3.970569e+00 -3.953043e+00 -3.929708e+00 -3.912092e+00 -3.885667e+00 -3.868918e+00 -3.840070e+00 -3.825299e+00 -3.794822e+00 -3.783143e+00 -3.752022e+00 -3.744376e+00 -3.713842e+00 -3.710855e+00 -3.682379e+00 -3.684329e+00 -3.659574e+00 -3.666515e+00 -3.647246e+00 -3.658994e+00 -3.646702e+00 -3.662569e+00 -3.658019e+00 -3.676739e+00 -3.679960e+00 -3.700074e+00 -3.710658e+00 -3.730915e+00 -3.748166e+00 -3.767586e+00 -3.790474e+00 -3.808291e+00 -3.835508e+00 -3.851135e+00 -3.881202e+00 -3.894211e+00 -3.925611e+00 -3.935728e+00 -3.967024e+00 -3.974125e+00 -4.004067e+00 -4.008173e+00 -4.035749e+00 -4.037007e+00 -4.061451e+00 -4.060098e+00 -4.080855e+00 -4.077170e+00 -4.093850e+00 -4.088106e+00 -4.100435e+00 
-4.091665e+00 -4.099078e+00 -4.089677e+00 -4.092344e+00 -4.081180e+00 -4.079035e+00 -4.066093e+00 -4.059129e+00 -4.044370e+00 -4.032656e+00 -4.016085e+00 -3.999786e+00 -3.981537e+00 -3.960905e+00 -3.941330e+00 -3.916689e+00 -3.896417e+00 -3.868138e+00 -3.848092e+00 -3.816602e+00 -3.797935e+00 -3.763820e+00 -3.747807e+00 -3.712018e+00 -3.699928e+00 -3.664003e+00 -3.657015e+00 -3.623146e+00 -3.622276e+00 -3.593071e+00 -3.598973e+00 -3.576948e+00 -3.589669e+00 -3.576699e+00 -3.595472e+00 -3.592402e+00 -3.615622e+00 -3.622217e+00 -3.647749e+00 -3.662949e+00 -3.688624e+00 -3.710910e+00 -3.735017e+00 -3.762731e+00 -3.784198e+00 -3.815651e+00 -3.833937e+00 -3.867466e+00 -3.882356e+00 -3.916402e+00 -3.927850e+00 -3.961033e+00 -3.969092e+00 -4.000272e+00 -4.005080e+00 -4.033377e+00 -4.035150e+00 -4.059923e+00 -4.058938e+00 -4.079741e+00 -4.076296e+00 -4.092827e+00 -4.087201e+00 -4.099249e+00 
-4.095996e+00 -4.103846e+00 -4.094541e+00 -4.097676e+00 -4.086792e+00 -4.085131e+00 -4.072678e+00 -4.066214e+00 -4.052185e+00 -4.041007e+00 -4.025448e+00 -4.009762e+00 -3.992858e+00 -3.972998e+00 -3.955161e+00 -3.931578e+00 -3.913505e+00 -3.886749e+00 -3.869424e+00 -3.840139e+00 -3.824753e+00 -3.793721e+00 -3.781511e+00 -3.749736e+00 -3.741770e+00 -3.710542e+00 -3.707506e+00 -3.678342e+00 -3.680445e+00 -3.655015e+00 -3.662238e+00 -3.642374e+00 -3.654531e+00 -3.641834e+00 -3.658218e+00 -3.653482e+00 -3.672721e+00 -3.675950e+00 -3.696520e+00 -3.707342e+00 -3.728025e+00 -3.745786e+00 -3.765615e+00 -3.789216e+00 -3.807387e+00 -3.835402e+00 -3.851283e+00 -3.882134e+00 -3.895280e+00 -3.927379e+00 -3.937523e+00 -3.969403e+00 -3.976447e+00 -4.006853e+00 -4.010847e+00 -4.038778e+00 -4.039897e+00 -4.064606e+00 -4.063109e+00 -4.084062e+00 -4.080246e+00 -4.097070e+00 -4.091219e+00 -4.103651e+00 
-4.098172e+00 -4.105691e+00 -4.096229e+00 -4.098950e+00 -4.087790e+00 -4.085642e+00 -4.072739e+00 -4.065713e+00 -4.050975e+00 -4.039140e+00 -4.022497e+00 -4.006021e+00 -3.987511e+00 -3.966649e+00 -3.946531e+00 -3.921591e+00 -3.900437e+00 -3.871729e+00 -3.850480e+00 -3.818314e+00 -3.798243e+00 -3.763041e+00 -3.745622e+00 -3.708207e+00 -3.694915e+00 -3.656878e+00 -3.649053e+00 -3.612873e+00 -3.611726e+00 -3.580434e+00 -3.586687e+00 -3.563099e+00 -3.576726e+00 -3.562867e+00 -3.582998e+00 -3.579798e+00 -3.604714e+00 -3.611960e+00 -3.639309e+00 -3.655804e+00 -3.683067e+00 -3.707010e+00 -3.732257e+00 -3.761790e+00 -3.783933e+00 -3.817181e+00 -3.835775e+00 -3.870920e+00 -3.885862e+00 -3.921254e+00 -3.932584e+00 -3.966823e+00 -3.974653e+00 -4.006627e+00 -4.011142e+00 -4.040020e+00 -4.041475e+00 -4.066669e+00 -4.065374e+00 -4.086484e+00 -4.082767e+00 -4.099522e+00 -4.093685e+00 -4.105893e+00 
-4.105428e+00 -4.113477e+00 -4.104049e+00 -4.107284e+00 -4.096360e+00 -4.094695e+00 -4.082238e+00 -4.075653e+00 -4.061576e+00 -4.050147e+00 -4.034382e+00 -4.018305e+00 -4.000900e+00 -3.980494e+00 -3.961733e+00 -3.937418e+00 -3.917937e+00 -3.890201e+00 -3.871054e+00 -3.840457e+00 -3.823084e+00 -3.790349e+00 -3.776401e+00 -3.742598e+00 -3.733600e+00 -3.700235e+00 -3.697107e+00 -3.665871e+00 -3.668502e+00 -3.640983e+00 -3.649065e+00 -3.627319e+00 -3.640733e+00 -3.626795e+00 -3.644821e+00 -3.639540e+00 -3.660391e+00 -3.663607e+00 -3.685514e+00 -3.697013e+00 -3.718972e+00 -3.738343e+00 -3.759453e+00 -3.785320e+00 -3.804614e+00 -3.835147e+00 -3.851825e+00 -3.885109e+00 -3.898667e+00 -3.932907e+00 -3.943119e+00 -3.976759e+00 -3.983608e+00 -4.015392e+00 -4.019025e+00 -4.048000e+00 -4.048677e+00 -4.074161e+00 -4.072214e+00 -4.093737e+00 -4.089514e+00 -4.106755e+00 -4.100578e+00 -4.113308e+00 
-4.111180e+00 -4.118913e+00 -4.109341e+00 -4.112175e+00 -4.101054e+00 -4.098910e+00 -4.086139e+00 -4.078992e+00 -4.064377e+00 -4.052297e+00 -4.035605e+00 -4.018772e+00 -3.999832e+00 -3.978519e+00 -3.957366e+00 -3.931868e+00 -3.908915e+00 -3.879444e+00 -3.855639e+00 -3.822252e+00 -3.799135e+00 -3.761845e+00 -3.741372e+00 -3.700626e+00 -3.684733e+00 -3.642165e+00 -3.632449e+00 -3.591207e+00 -3.589434e+00 -3.553686e+00 -3.560746e+00 -3.533914e+00 -3.549480e+00 -3.533746e+00 -3.556684e+00 -3.553167e+00 -3.581663e+00 -3.590344e+00 -3.621682e+00 -3.641069e+00 -3.671750e+00 -3.699240e+00 -3.726811e+00 -3.760207e+00 -3.783645e+00 -3.820677e+00 -3.839812e+00 -3.878310e+00 -3.893295e+00 -3.931422e+00 -3.942468e+00 -3.978804e+00 -3.986138e+00 -4.019654e+00 -4.023546e+00 -4.053532e+00 -4.054314e+00 -4.080301e+00 -4.078356e+00 -4.100041e+00 -4.095757e+00 -4.112934e+00 -4.106660e+00 -4.119179e+00 
-4.121177e+00 -4.129554e+00 -4.119945e+00 -4.123359e+00 -4.112427e+00 -4.110774e+00 -4.098406e+00 -4.091638e+00 -4.077613e+00 -4.065783e+00 -4.049826e+00 -4.033113e+00 -4.015006e+00 -3.993714e+00 -3.973465e+00 -3.947970e+00 -3.926032e+00 -3.896710e+00 -3.874196e+00 -3.841415e+00 -3.820204e+00 -3.784502e+00 -3.767093e+00 -3.729626e+00 -3.718604e+00 -3.681457e+00 -3.678475e+00 -3.643831e+00 -3.647640e+00 -3.616402e+00 -3.625902e+00 -3.600594e+00 -3.616162e+00 -3.600081e+00 -3.621257e+00 -3.615181e+00 -3.638953e+00 -3.641979e+00 -3.665905e+00 -3.678313e+00 -3.702364e+00 -3.724772e+00 -3.748241e+00 -3.778395e+00 -3.799806e+00 -3.834971e+00 -3.853104e+00 -3.890727e+00 -3.904981e+00 -3.942923e+00 -3.953182e+00 -3.989778e+00 -3.996212e+00 -4.030247e+00 -4.033185e+00 -4.063825e+00 -4.063686e+00 -4.090385e+00 -4.087621e+00 -4.110031e+00 -4.105084e+00 -4.122976e+00 -4.116230e+00 -4.129437e+00 
-4.130657e+00 -4.138713e+00 -4.129004e+00 -4.132028e+00 -4.121044e+00 -4.118924e+00 -4.106492e+00 -4.099176e+00 -4.084949e+00 -4.072494e+00 -4.055987e+00 -4.038599e+00 -4.019276e+00 -3.997288e+00 -3.974750e+00 -3.948506e+00 -3.922786e+00 -3.892416e+00 -3.864368e+00 -3.829538e+00 -3.801156e+00 -3.761063e+00 -3.735326e+00 -3.689430e+00 -3.669199e+00 -3.618961e+00 -3.605673e+00 -3.555444e+00 -3.552514e+00 -3.509356e+00 -3.518072e+00 -3.486228e+00 -3.505093e+00 -3.486286e+00 -3.513515e+00 -3.509212e+00 -3.543477e+00 -3.554652e+00 -3.593142e+00 -3.617879e+00 -3.654394e+00 -3.687751e+00 -3.718853e+00 -3.758651e+00 -3.783819e+00 -3.827069e+00 -3.846807e+00 -3.890648e+00 -3.905557e+00 -3.947869e+00 -3.958391e+00 -3.997802e+00 -4.004302e+00 -4.039991e+00 -4.042855e+00 -4.074355e+00 -4.074037e+00 -4.101087e+00 -4.098084e+00 -4.120538e+00 -4.115338e+00 -4.133094e+00 -4.126122e+00 -4.139084e+00 
-4.143246e+00 -4.152080e+00 -4.142264e+00 -4.145960e+00 -4.135130e+00 -4.133539e+00 -4.121497e+00 -4.114518e+00 -4.100858e+00 -4.088498e+00 -4.072632e+00 -4.055053e+00 -4.036314e+00 -4.013822e+00 -3.991680e+00 -3.964626e+00 -3.939068e+00 -3.907669e+00 -3.879708e+00 -3.843934e+00 -3.816057e+00 -3.775910e+00 -3.752125e+00 -3.708713e+00 -3.693853e+00 -3.650759e+00 -3.649224e+00 -3.610444e+00 -3.616819e+00 -3.579758e+00 -3.590838e+00 -3.559129e+00 -3.577583e+00 -3.558483e+00 -3.585457e+00 -3.578970e+00 -3.607595e+00 -3.609778e+00 -3.635472e+00 -3.648068e+00 -3.674886e+00 -3.702725e+00 -3.730239e+00 -3.767726e+00 -3.792796e+00 -3.835471e+00 -3.855933e+00 -3.900247e+00 -3.915449e+00 -3.958824e+00 -3.968971e+00 -4.009701e+00 -4.015334e+00 -4.052383e+00 -4.054142e+00 -4.086929e+00 -4.085470e+00 -4.113694e+00 -4.109650e+00 -4.133162e+00 -4.127104e+00 -4.145816e+00 -4.138216e+00 -4.152046e+00 
-4.156500e+00 -4.165004e+00 -4.155151e+00 -4.158477e+00 -4.147805e+00 -4.145774e+00 -4.134045e+00 -4.126528e+00 -4.113220e+00 -4.100237e+00 -4.084518e+00 -4.066314e+00 -4.047084e+00 -4.024134e+00 -4.000210e+00 -3.973063e+00 -3.943639e+00 -3.912516e+00 -3.877969e+00 -3.842133e+00 -3.805068e+00 -3.762283e+00 -3.727972e+00 -3.675205e+00 -3.648945e+00 -3.586679e+00 -3.566413e+00 -3.500319e+00 -3.495279e+00 -3.440936e+00 -3.453477e+00 -3.415421e+00 -3.439716e+00 -3.416241e+00 -3.448661e+00 -3.441948e+00 -3.484174e+00 -3.499291e+00 -3.550804e+00 -3.585781e+00 -3.631615e+00 -3.673277e+00 -3.708742e+00 -3.758348e+00 -3.785172e+00 -3.837917e+00 -3.858021e+00 -3.909602e+00 -3.924185e+00 -3.972153e+00 -3.981831e+00 -4.025117e+00 -4.030349e+00 -4.068611e+00 -4.069927e+00 -4.103133e+00 -4.101166e+00 -4.129386e+00 -4.124809e+00 -4.148115e+00 -4.141567e+00 -4.159993e+00 -4.152010e+00 -4.165526e+00 
-4.171549e+00 -4.180984e+00 -4.170960e+00 -4.175088e+00 -4.164566e+00 -4.163153e+00 -4.151865e+00 -4.144702e+00 -4.132038e+00 -4.119046e+00 -4.104009e+00 -4.085329e+00 -4.066558e+00 -4.042561e+00 -4.018551e+00 -3.989661e+00 -3.959343e+00 -3.925636e+00 -3.889391e+00 -3.850143e+00 -3.811052e+00 -3.764842e+00 -3.729348e+00 -3.676203e+00 -3.652933e+00 -3.600076e+00 -3.605486e+00 -3.565252e+00 -3.577548e+00 -3.531348e+00 -3.542011e+00 -3.497228e+00 -3.517877e+00 -3.495581e+00 -3.534721e+00 -3.531067e+00 -3.568601e+00 -3.567900e+00 -3.591081e+00 -3.598952e+00 -3.628883e+00 -3.667922e+00 -3.702902e+00 -3.752631e+00 -3.784017e+00 -3.838256e+00 -3.862155e+00 -3.916095e+00 -3.932305e+00 -3.982966e+00 -3.992541e+00 -4.038444e+00 -4.042605e+00 -4.083186e+00 -4.083045e+00 -4.118211e+00 -4.114747e+00 -4.144597e+00 -4.138673e+00 -4.163350e+00 -4.155697e+00 -4.175306e+00 -4.166509e+00 -4.181073e+00 
-4.188461e+00 -4.197575e+00 -4.187574e+00 -4.191389e+00 -4.181276e+00 -4.179477e+00 -4.168999e+00 -4.161302e+00 -4.149792e+00 -4.136102e+00 -4.122342e+00 -4.102921e+00 -4.085030e+00 -4.060606e+00 -4.036104e+00 -4.007739e+00 -3.974070e+00 -3.942597e+00 -3.898529e+00 -3.863322e+00 -3.811674e+00 -3.768617e+00 -3.719858e+00 -3.659592e+00 -3.629180e+00 -3.549538e+00 -3.513171e+00 -3.415880e+00 -3.406713e+00 -3.336981e+00 -3.359926e+00 -3.317873e+00 -3.351691e+00 -3.321214e+00 -3.356736e+00 -3.341807e+00 -3.391900e+00 -3.412318e+00 -3.491290e+00 -3.549622e+00 -3.609488e+00 -3.658421e+00 -3.696826e+00 -3.761524e+00 -3.788636e+00 -3.855739e+00 -3.875544e+00 -3.937728e+00 -3.951697e+00 -4.006581e+00 -4.015067e+00 -4.062587e+00 -4.066003e+00 -4.106809e+00 -4.105881e+00 -4.140655e+00 -4.136308e+00 -4.165572e+00 -4.158752e+00 -4.182849e+00 -4.174402e+00 -4.193518e+00 -4.184128e+00 -4.198300e+00 
-4.205816e+00 -4.216031e+00 -4.205800e+00 -4.210598e+00 -4.200668e+00 -4.199660e+00 -4.189761e+00 -4.182536e+00 -4.171919e+00 -4.158222e+00 -4.145448e+00 -4.125376e+00 -4.108138e+00 -4.082243e+00 -4.057418e+00 -4.026483e+00 -3.990817e+00 -3.955101e+00 -3.906988e+00 -3.864963e+00 -3.807498e+00 -3.754557e+00 -3.698150e+00 -3.628150e+00 -3.580163e+00 -3.506111e+00 -3.540797e+00 -3.517834e+00 -3.544522e+00 -3.481744e+00 -3.480926e+00 -3.402631e+00 -3.417733e+00 -3.395879e+00 -3.466732e+00 -3.480864e+00 -3.539690e+00 -3.530243e+00 -3.529454e+00 -3.509675e+00 -3.543946e+00 -3.614541e+00 -3.665770e+00 -3.734328e+00 -3.776451e+00 -3.847673e+00 -3.875811e+00 -3.942843e+00 -3.959398e+00 -4.019062e+00 -4.026993e+00 -4.078668e+00 -4.080243e+00 -4.124393e+00 -4.121310e+00 -4.158681e+00 -4.152293e+00 -4.183571e+00 -4.174997e+00 -4.200703e+00 -4.190855e+00 -4.211327e+00 -4.200913e+00 -4.216289e+00 
-4.226036e+00 -4.236002e+00 -4.225809e+00 -4.230431e+00 -4.221145e+00 -4.219879e+00 -4.211347e+00 -4.203610e+00 -4.195168e+00 -4.180580e+00 -4.170730e+00 -4.149453e+00 -4.135438e+00 -4.108509e+00 -4.085958e+00 -4.055392e+00 -4.018486e+00 -3.986814e+00 -3.929898e+00 -3.898679e+00 -3.821334e+00 -3.786800e+00 -3.707698e+00 -3.642521e+00 -3.632625e+00 -3.535248e+00 -3.449840e+00 -3.276845e+00 -3.259075e+00 -3.173688e+00 -3.228852e+00 -3.199133e+00 -3.252199e+00 -3.210777e+00 -3.236496e+00 -3.193047e+00 -3.236436e+00 -3.258359e+00 -3.411331e+00 -3.540361e+00 -3.616591e+00 -3.647260e+00 -3.678377e+00 -3.771710e+00 -3.795468e+00 -3.884731e+00 -3.903291e+00 -3.978921e+00 -3.992322e+00 -4.054437e+00 -4.061490e+00 -4.112644e+00 -4.113516e+00 -4.156128e+00 -4.151971e+00 -4.187717e+00 -4.179983e+00 -4.209890e+00 -4.199943e+00 -4.224615e+00 -4.213571e+00 -4.233332e+00 -4.222038e+00 -4.236974e+00 
-4.245454e+00 -4.256702e+00 -4.246210e+00 -4.252071e+00 -4.243013e+00 -4.242835e+00 -4.235104e+00 -4.228113e+00 -4.221032e+00 -4.206607e+00 -4.198475e+00 -4.176555e+00 -4.164029e+00 -4.135492e+00 -4.113067e+00 -4.079668e+00 -4.040022e+00 -4.003328e+00 -3.939747e+00 -3.898775e+00 -3.811930e+00 -3.757833e+00 -3.672572e+00 -3.573263e+00 -3.427223e+00 -3.278365e+00 -3.433056e+00 -3.519178e+00 -3.580740e+00 -3.476449e+00 -3.419999e+00 -3.237897e+00 -3.210606e+00 -3.208755e+00 -3.377213e+00 -3.468374e+00 -3.596330e+00 -3.563239e+00 -3.441789e+00 -3.294566e+00 -3.351014e+00 -3.544597e+00 -3.638040e+00 -3.720949e+00 -3.778975e+00 -3.874421e+00 -3.904826e+00 -3.988533e+00 -4.002840e+00 -4.072378e+00 -4.076572e+00 -4.133614e+00 -4.130911e+00 -4.177829e+00 -4.170389e+00 -4.209202e+00 -4.198710e+00 -4.230838e+00 -4.218667e+00 -4.245040e+00 -4.232275e+00 -4.253462e+00 -4.240922e+00 -4.257173e+00 
-4.268333e+00 -4.279522e+00 -4.268977e+00 -4.274949e+00 -4.266650e+00 -4.266506e+00 -4.260605e+00 -4.253239e+00 -4.249411e+00 -4.233835e+00 -4.230722e+00 -4.206648e+00 -4.200929e+00 -4.169528e+00 -4.154689e+00 -4.119244e+00 -4.084539e+00 -4.050716e+00 -3.981025e+00 -3.957053e+00 -3.835011e+00 -3.836056e+00 -3.655670e+00 -3.587814e+00 -3.746185e+00 -3.672109e+00 -3.289357e+00 -2.431120e+00 -1.249347e+00 2.772066e-01 1.349655e+00 2.207794e+00 2.567915e+00 2.396210e+00 1.745703e+00 7.568459e-01 -6.744190e-01 -1.879992e+00 -3.043426e+00 -3.686699e+00 -3.772364e+00 -3.618808e+00 -3.604973e+00 -3.793542e+00 -3.811562e+00 -3.932637e+00 -3.949873e+00 -4.038993e+00 -4.053197e+00 -4.120191e+00 -4.125795e+00 -4.178238e+00 -4.175427e+00 -4.218124e+00 -4.209224e+00 -4.244841e+00 -4.232302e+00 -4.262199e+00 -4.247979e+00 -4.272886e+00 -4.258390e+00 -4.278707e+00 -4.264907e+00 -4.280757e+00 
-4.289389e+00 -4.302052e+00 -4.291093e+00 -4.298655e+00 -4.290574e+00 -4.291993e+00 -4.287118e+00 -4.280999e+00 -4.279195e+00 -4.264165e+00 -4.264086e+00 -4.239531e+00 -4.237255e+00 -4.204361e+00 -4.191584e+00 -4.154037e+00 -4.116976e+00 -4.080104e+00 -4.000314e+00 -3.968796e+00 -3.827678e+00 -3.802546e+00 -3.750946e+00 -3.531352e+00 -2.525592e+00 2.518628e-01 3.772542e+00 6.894745e+00 8.997669e+00 1.069214e+01 1.171766e+01 1.223041e+01 1.251777e+01 1.235234e+01 1.203853e+01 1.118421e+01 9.726462e+00 7.853036e+00 4.575001e+00 1.318862e+00 -1.534044e+00 -3.357783e+00 -3.756713e+00 -3.730480e+00 -3.797433e+00 -3.941473e+00 -3.962438e+00 -4.065039e+00 -4.070999e+00 -4.148802e+00 -4.146141e+00 -4.206268e+00 -4.197166e+00 -4.244806e+00 -4.231282e+00 -4.270054e+00 -4.254040e+00 -4.286047e+00 -4.269179e+00 -4.295642e+00 -4.279148e+00 -4.300806e+00 -4.285556e+00 -4.302757e+00 
-4.313935e+00 -4.326899e+00 -4.315626e+00 -4.323824e+00 -4.316343e+00 -4.318402e+00 -4.315454e+00 -4.309440e+00 -4.311610e+00 -4.295372e+00 -4.302368e+00 -4.274382e+00 -4.283462e+00 -4.244267e+00 -4.247740e+00 -4.201606e+00 -4.184217e+00 -4.140325e+00 -4.075840e+00 -4.043824e+00 -3.883620e+00 -3.921644e+00 -2.877985e+00 1.014871e+00 4.861844e+00 8.720434e+00 1.155942e+01 1.284366e+01 1.335569e+01 1.326005e+01 1.332138e+01 1.313873e+01 1.320557e+01 1.313469e+01 1.331449e+01 1.328670e+01 1.338551e+01 1.308353e+01 1.199388e+01 9.999213e+00 6.536897e+00 2.400764e+00 -1.796627e+00 -3.679790e+00 -3.896655e+00 -4.014888e+00 -4.032999e+00 -4.125105e+00 -4.145075e+00 -4.209216e+00 -4.213214e+00 -4.262303e+00 -4.253588e+00 -4.293759e+00 -4.277670e+00 -4.311771e+00 -4.292446e+00 -4.321591e+00 -4.301694e+00 -4.326450e+00 -4.307557e+00 -4.328330e+00 -4.311367e+00 -4.328341e+00 
-4.335942e+00 -4.350577e+00 -4.338662e+00 -4.348933e+00 -4.341464e+00 -4.345823e+00 -4.343912e+00 -4.339996e+00 -4.344824e+00 -4.329786e+00 -4.341704e+00 -4.313285e+00 -4.329474e+00 -4.288309e+00 -4.298724e+00 -4.251492e+00 -4.235869e+00 -4.195220e+00 -4.119517e+00 -4.095542e+00 -3.566139e+00 -8.054830e-01 3.972239e+00 9.453940e+00 1.229788e+01 1.308822e+01 1.316260e+01 1.289805e+01 1.289065e+01 1.277599e+01 1.286401e+01 1.281207e+01 1.289840e+01 1.281969e+01 1.287423e+01 1.277455e+01 1.286061e+01 1.284098e+01 1.312057e+01 1.314224e+01 1.269889e+01 1.069927e+01 6.004366e+00 8.880796e-01 -3.026857e+00 -4.082499e+00 -4.078279e+00 -4.182361e+00 -4.172494e+00 -4.250843e+00 -4.239114e+00 -4.297420e+00 -4.280194e+00 -4.325138e+00 -4.303703e+00 -4.340370e+00 -4.317219e+00 -4.347902e+00 -4.325141e+00 -4.350998e+00 -4.329953e+00 -4.351782e+00 -4.333219e+00 -4.351478e+00 
-4.360840e+00 -4.376324e+00 -4.363634e+00 -4.375376e+00 -4.367911e+00 -4.374022e+00 -4.373384e+00 -4.370785e+00 -4.379227e+00 -4.363757e+00 -4.383567e+00 -4.350883e+00 -4.382190e+00 -4.330253e+00 -4.366841e+00 -4.300324e+00 -4.327779e+00 -4.266817e+00 -4.255512e+00 -3.451856e+00 5.204522e-01 7.057014e+00 1.142634e+01 1.300660e+01 1.312416e+01 1.293320e+01 1.290230e+01 1.302338e+01 1.315760e+01 1.315235e+01 1.323653e+01 1.316231e+01 1.323304e+01 1.316259e+01 1.323868e+01 1.315914e+01 1.317195e+01 1.302891e+01 1.291614e+01 1.282954e+01 1.304416e+01 1.308813e+01 1.228816e+01 9.111935e+00 2.552068e+00 -2.494728e+00 -4.074226e+00 -4.239266e+00 -4.280530e+00 -4.327215e+00 -4.326074e+00 -4.366157e+00 -4.346840e+00 -4.382158e+00 -4.355066e+00 -4.386718e+00 -4.358044e+00 -4.385954e+00 -4.358877e+00 -4.383160e+00 -4.359018e+00 -4.380142e+00 -4.359439e+00 -4.377790e+00 
-4.382825e+00 -4.400163e+00 -4.386421e+00 -4.400876e+00 -4.392815e+00 -4.402355e+00 -4.402128e+00 -4.403117e+00 -4.414158e+00 -4.401144e+00 -4.427740e+00 -4.394195e+00 -4.438355e+00 -4.380746e+00 -4.433966e+00 -4.363515e+00 -4.406659e+00 -4.345218e+00 -3.393771e+00 1.294573e+00 8.425409e+00 1.260571e+01 1.322474e+01 1.316620e+01 1.303649e+01 1.311988e+01 1.309285e+01 1.301496e+01 1.302012e+01 1.294488e+01 1.299198e+01 1.293340e+01 1.299291e+01 1.293211e+01 1.299062e+01 1.293357e+01 1.300769e+01 1.298474e+01 1.308420e+01 1.309166e+01 1.307033e+01 1.308820e+01 1.318408e+01 1.302175e+01 1.029442e+01 4.018323e+00 -2.180429e+00 -4.212144e+00 -4.302992e+00 -4.371352e+00 -4.353154e+00 -4.403612e+00 -4.378117e+00 -4.416246e+00 -4.385061e+00 -4.417710e+00 -4.385537e+00 -4.413899e+00 -4.384043e+00 -4.408631e+00 -4.382375e+00 -4.404024e+00 -4.381679e+00 -4.401107e+00 
-4.406564e+00 -4.425433e+00 -4.410294e+00 -4.427384e+00 -4.418199e+00 -4.431291e+00 -4.430563e+00 -4.435337e+00 -4.447629e+00 -4.436876e+00 -4.469068e+00 -4.432545e+00 -4.491363e+00 -4.419266e+00 -4.502681e+00 -4.394096e+00 -4.498605e+00 -3.796231e+00 9.366845e-01 8.724460e+00 1.286198e+01 1.329750e+01 1.318371e+01 1.321820e+01 1.317989e+01 1.313668e+01 1.312906e+01 1.313916e+01 1.319370e+01 1.317850e+01 1.323829e+01 1.319279e+01 1.324805e+01 1.319103e+01 1.323810e+01 1.317226e+01 1.319324e+01 1.311919e+01 1.311972e+01 1.308145e+01 1.314637e+01 1.316796e+01 1.316193e+01 1.321589e+01 1.319299e+01 1.095729e+01 3.706003e+00 -2.691663e+00 -4.443291e+00 -4.490914e+00 -4.456606e+00 -4.486179e+00 -4.447647e+00 -4.478714e+00 -4.435637e+00 -4.465663e+00 -4.424866e+00 -4.451709e+00 -4.416297e+00 -4.439834e+00 -4.410085e+00 -4.431313e+00 -4.406655e+00 -4.426551e+00 
-4.427361e+00 -4.448184e+00 -4.431384e+00 -4.451954e+00 -4.440976e+00 -4.459157e+00 -4.456967e+00 -4.468055e+00 -4.480790e+00 -4.475721e+00 -4.514427e+00 -4.477316e+00 -4.556586e+00 -4.466895e+00 -4.581797e+00 -4.455407e+00 -4.391236e+00 -3.516162e-01 8.020224e+00 1.291379e+01 1.332511e+01 1.337050e+01 1.329002e+01 1.327108e+01 1.319994e+01 1.319482e+01 1.316694e+01 1.312052e+01 1.312425e+01 1.306858e+01 1.309886e+01 1.304676e+01 1.309123e+01 1.304304e+01 1.309406e+01 1.305506e+01 1.311297e+01 1.309410e+01 1.315309e+01 1.315676e+01 1.318620e+01 1.321138e+01 1.324619e+01 1.330803e+01 1.326653e+01 1.326121e+01 1.025199e+01 2.416703e+00 -3.623621e+00 -4.579982e+00 -4.485208e+00 -4.520904e+00 -4.487086e+00 -4.513647e+00 -4.469731e+00 -4.498297e+00 -4.454406e+00 -4.480362e+00 -4.442377e+00 -4.465112e+00 -4.433522e+00 -4.454450e+00 -4.428288e+00 -4.448845e+00 
-4.448489e+00 -4.471482e+00 -4.452680e+00 -4.477223e+00 -4.463595e+00 -4.487798e+00 -4.482141e+00 -4.501210e+00 -4.510115e+00 -4.513527e+00 -4.550571e+00 -4.517329e+00 -4.604373e+00 -4.507886e+00 -4.644638e+00 -4.554244e+00 -2.225985e+00 5.795816e+00 1.256580e+01 1.352404e+01 1.334510e+01 1.341434e+01 1.330961e+01 1.332648e+01 1.328068e+01 1.326166e+01 1.325424e+01 1.323684e+01 1.326372e+01 1.323701e+01 1.327734e+01 1.323823e+01 1.328076e+01 1.323470e+01 1.327336e+01 1.322500e+01 1.325491e+01 1.321123e+01 1.323819e+01 1.321573e+01 1.325825e+01 1.326375e+01 1.330012e+01 1.331788e+01 1.338223e+01 1.336920e+01 1.316763e+01 8.983052e+00 4.770955e-02 -4.540570e+00 -4.573974e+00 -4.597215e+00 -4.541814e+00 -4.573961e+00 -4.510552e+00 -4.542763e+00 -4.487601e+00 -4.514106e+00 -4.470396e+00 -4.492495e+00 -4.457930e+00 -4.478487e+00 -4.450430e+00 -4.471669e+00 
-4.466942e+00 -4.491760e+00 -4.470632e+00 -4.499338e+00 -4.482210e+00 -4.513549e+00 -4.502905e+00 -4.532869e+00 -4.535739e+00 -4.553570e+00 -4.588729e+00 -4.565493e+00 -4.684610e+00 -4.544743e+00 -4.897709e+00 -4.264482e+00 2.278715e+00 1.111412e+01 1.365256e+01 1.352836e+01 1.347358e+01 1.343999e+01 1.338314e+01 1.334874e+01 1.330716e+01 1.327185e+01 1.325495e+01 1.320804e+01 1.321345e+01 1.316288e+01 1.318675e+01 1.313942e+01 1.317583e+01 1.313510e+01 1.317929e+01 1.314900e+01 1.319816e+01 1.318277e+01 1.323250e+01 1.323310e+01 1.327683e+01 1.329062e+01 1.333830e+01 1.335554e+01 1.341476e+01 1.338652e+01 1.355750e+01 1.275513e+01 5.472151e+00 -2.792768e+00 -4.811934e+00 -4.573490e+00 -4.604367e+00 -4.610788e+00 -4.546921e+00 -4.578128e+00 -4.517692e+00 -4.542643e+00 -4.496414e+00 -4.516238e+00 -4.480528e+00 -4.499522e+00 -4.470454e+00 -4.491612e+00 
-4.484332e+00 -4.511642e+00 -4.488228e+00 -4.522001e+00 -4.500821e+00 -4.540754e+00 -4.523143e+00 -4.566776e+00 -4.558060e+00 -4.595726e+00 -4.614707e+00 -4.608369e+00 -4.727081e+00 -4.520109e+00 -5.043584e+00 -2.065929e+00 7.200567e+00 1.346923e+01 1.354476e+01 1.361799e+01 1.348230e+01 1.349837e+01 1.342519e+01 1.341055e+01 1.337908e+01 1.334797e+01 1.334509e+01 1.331105e+01 1.332963e+01 1.329313e+01 1.332368e+01 1.328448e+01 1.331988e+01 1.328026e+01 1.331615e+01 1.327962e+01 1.331408e+01 1.328570e+01 1.332113e+01 1.330766e+01 1.334867e+01 1.335301e+01 1.339543e+01 1.341619e+01 1.345731e+01 1.350864e+01 1.349361e+01 1.369980e+01 1.046729e+01 1.181829e+00 -4.765016e+00 -4.670506e+00 -4.626379e+00 -4.668169e+00 -4.571196e+00 -4.613732e+00 -4.542126e+00 -4.567927e+00 -4.518638e+00 -4.536808e+00 -4.500333e+00 -4.518219e+00 -4.488571e+00 -4.510188e+00 
-4.499526e+00 -4.528094e+00 -4.502016e+00 -4.539997e+00 -4.513888e+00 -4.562239e+00 -4.535601e+00 -4.595009e+00 -4.568369e+00 -4.637294e+00 -4.615732e+00 -4.678930e+00 -4.692139e+00 -4.662802e+00 -4.788630e+00 2.244142e+00 1.147622e+01 1.397084e+01 1.350836e+01 1.365954e+01 1.352491e+01 1.351159e+01 1.346155e+01 1.341193e+01 1.339032e+01 1.333506e+01 1.333079e+01 1.327486e+01 1.328508e+01 1.323235e+01 1.325521e+01 1.320911e+01 1.324199e+01 1.320495e+01 1.324516e+01 1.321951e+01 1.326472e+01 1.325236e+01 1.330010e+01 1.330115e+01 1.334981e+01 1.336232e+01 1.341510e+01 1.343691e+01 1.349454e+01 1.353698e+01 1.357740e+01 1.376351e+01 1.328394e+01 5.588088e+00 -3.618086e+00 -5.009704e+00 -4.570728e+00 -4.770785e+00 -4.590031e+00 -4.657310e+00 -4.570520e+00 -4.594387e+00 -4.544044e+00 -4.557038e+00 -4.521389e+00 -4.535675e+00 -4.506138e+00 -4.526505e+00 
-4.512503e+00 -4.543338e+00 -4.515346e+00 -4.558523e+00 -4.528083e+00 -4.586054e+00 -4.550572e+00 -4.628288e+00 -4.582032e+00 -4.691574e+00 -4.618347e+00 -4.794973e+00 -4.642348e+00 -5.009743e+00 -3.885704e+00 6.333097e+00 1.367239e+01 1.387695e+01 1.371435e+01 1.367320e+01 1.361651e+01 1.355398e+01 1.353142e+01 1.346933e+01 1.346444e+01 1.340681e+01 1.341516e+01 1.336371e+01 1.338328e+01 1.333714e+01 1.336478e+01 1.332310e+01 1.335560e+01 1.331898e+01 1.335403e+01 1.332445e+01 1.336121e+01 1.334158e+01 1.338105e+01 1.337413e+01 1.341858e+01 1.342417e+01 1.347692e+01 1.348874e+01 1.356379e+01 1.356148e+01 1.370675e+01 1.360910e+01 1.403172e+01 9.385071e+00 -1.160338e+00 -5.182866e+00 -4.517673e+00 -4.812529e+00 -4.599817e+00 -4.673388e+00 -4.588848e+00 -4.605877e+00 -4.560969e+00 -4.568201e+00 -4.536134e+00 -4.547531e+00 -4.519534e+00 -4.539660e+00 
-4.523818e+00 -4.554896e+00 -4.524626e+00 -4.570784e+00 -4.535809e+00 -4.600310e+00 -4.556536e+00 -4.646776e+00 -4.584344e+00 -4.719657e+00 -4.609596e+00 -4.850267e+00 -4.594528e+00 -5.162124e+00 -2.295377e+00 9.383676e+00 1.433613e+01 1.374805e+01 1.385651e+01 1.364397e+01 1.366943e+01 1.354024e+01 1.355114e+01 1.345212e+01 1.346041e+01 1.337896e+01 1.338993e+01 1.332097e+01 1.333801e+01 1.327993e+01 1.330455e+01 1.325735e+01 1.328938e+01 1.325373e+01 1.329212e+01 1.326906e+01 1.331253e+01 1.330298e+01 1.335033e+01 1.335408e+01 1.340531e+01 1.342005e+01 1.347966e+01 1.349789e+01 1.358285e+01 1.357691e+01 1.375276e+01 1.359840e+01 1.413134e+01 1.213068e+01 1.734392e+00 -5.110792e+00 -4.658396e+00 -4.807747e+00 -4.666602e+00 -4.683845e+00 -4.628506e+00 -4.619603e+00 -4.587467e+00 -4.581746e+00 -4.555123e+00 -4.560092e+00 -4.533866e+00 -4.551415e+00 
-4.532025e+00 -4.564714e+00 -4.533590e+00 -4.583558e+00 -4.546077e+00 -4.616905e+00 -4.568678e+00 -4.668120e+00 -4.599344e+00 -4.745360e+00 -4.630532e+00 -4.871796e+00 -4.634547e+00 -5.127617e+00 -4.648985e-01 1.153729e+01 1.444009e+01 1.373482e+01 1.398319e+01 1.366695e+01 1.375875e+01 1.358095e+01 1.362307e+01 1.350496e+01 1.353030e+01 1.344329e+01 1.346512e+01 1.339730e+01 1.342146e+01 1.336679e+01 1.339497e+01 1.335032e+01 1.338223e+01 1.334664e+01 1.338157e+01 1.335585e+01 1.339356e+01 1.337959e+01 1.342050e+01 1.342029e+01 1.346532e+01 1.347970e+01 1.353135e+01 1.355851e+01 1.362711e+01 1.365745e+01 1.377932e+01 1.377208e+01 1.406391e+01 1.372885e+01 4.282521e+00 -4.816667e+00 -4.818919e+00 -4.734991e+00 -4.720341e+00 -4.659880e+00 -4.651406e+00 -4.613313e+00 -4.600277e+00 -4.582829e+00 -4.564373e+00 -4.564894e+00 -4.542016e+00 -4.558768e+00 
-4.538918e+00 -4.570915e+00 -4.538335e+00 -4.589222e+00 -4.549134e+00 -4.622096e+00 -4.570504e+00 -4.671784e+00 -4.601558e+00 -4.742061e+00 -4.640846e+00 -4.839397e+00 -4.687719e+00 -4.979627e+00 1.208981e+00 1.295703e+01 1.432826e+01 1.373951e+01 1.398493e+01 1.364949e+01 1.376385e+01 1.355805e+01 1.361562e+01 1.347556e+01 1.350797e+01 1.340463e+01 1.342797e+01 1.334786e+01 1.337084e+01 1.330773e+01 1.333460e+01 1.328580e+01 1.331806e+01 1.328272e+01 1.332041e+01 1.329882e+01 1.334135e+01 1.333434e+01 1.338081e+01 1.338931e+01 1.343871e+01 1.346423e+01 1.351576e+01 1.356258e+01 1.361523e+01 1.369662e+01 1.374466e+01 1.390346e+01 1.389951e+01 1.428792e+01 6.144902e+00 -4.305452e+00 -4.966379e+00 -4.666440e+00 -4.790907e+00 -4.648764e+00 -4.688886e+00 -4.617940e+00 -4.622576e+00 -4.590844e+00 -4.578832e+00 -4.572790e+00 -4.551894e+00 -4.565779e+00 
-4.542075e+00 -4.575239e+00 -4.542832e+00 -4.595808e+00 -4.555383e+00 -4.630976e+00 -4.579373e+00 -4.682004e+00 -4.615554e+00 -4.747890e+00 -4.668484e+00 -4.815924e+00 -4.759317e+00 -4.831164e+00 2.245189e+00 1.368633e+01 1.430820e+01 1.382029e+01 1.403971e+01 1.369486e+01 1.382350e+01 1.360040e+01 1.367203e+01 1.352353e+01 1.356579e+01 1.346112e+01 1.349139e+01 1.341372e+01 1.344143e+01 1.338169e+01 1.341096e+01 1.336436e+01 1.339641e+01 1.336104e+01 1.339600e+01 1.337207e+01 1.340997e+01 1.339920e+01 1.343996e+01 1.344509e+01 1.348782e+01 1.351328e+01 1.355468e+01 1.361094e+01 1.364065e+01 1.375809e+01 1.373929e+01 1.400802e+01 1.379997e+01 1.448303e+01 7.419752e+00 -3.746002e+00 -5.017375e+00 -4.580999e+00 -4.811287e+00 -4.615166e+00 -4.695772e+00 -4.604460e+00 -4.625063e+00 -4.585890e+00 -4.580495e+00 -4.572113e+00 -4.554040e+00 -4.567836e+00 
-4.544059e+00 -4.576166e+00 -4.542954e+00 -4.595182e+00 -4.553728e+00 -4.628555e+00 -4.575925e+00 -4.676745e+00 -4.610589e+00 -4.736002e+00 -4.664042e+00 -4.783261e+00 -4.764055e+00 -4.725208e+00 2.641144e+00 1.383200e+01 1.420612e+01 1.379810e+01 1.399302e+01 1.366594e+01 1.378992e+01 1.356712e+01 1.363752e+01 1.348393e+01 1.352460e+01 1.341319e+01 1.344110e+01 1.335672e+01 1.338200e+01 1.331690e+01 1.334473e+01 1.329522e+01 1.332769e+01 1.329237e+01 1.332988e+01 1.330880e+01 1.335099e+01 1.334507e+01 1.339096e+01 1.340195e+01 1.344960e+01 1.348154e+01 1.352640e+01 1.359136e+01 1.361986e+01 1.375480e+01 1.372074e+01 1.403357e+01 1.377359e+01 1.455003e+01 7.807599e+00 -3.604997e+00 -5.067955e+00 -4.589741e+00 -4.840771e+00 -4.624768e+00 -4.713521e+00 -4.612911e+00 -4.636175e+00 -4.592300e+00 -4.587490e+00 -4.576470e+00 -4.558199e+00 -4.570375e+00 