# vtk DataFile Version 2.0
Comment goes here
ASCII

DATASET STRUCTURED_POINTS
FIELD FieldData 1
TIME 1 1 double
1.70000000
DIMENSIONS    64   64   1

ORIGIN    0.000   0.000   0.000
SPACING   0.015625 0.015625   1.000

POINT_DATA   4096
SCALARS P double
LOOKUP_TABLE default

-3.924643e+00 -3.921676e+00 -3.924338e+00 -3.923571e+00 -3.926377e+00 -3.927940e+00 -3.930770e+00 -3.934732e+00 -3.937516e+00 -3.943864e+00 -3.946596e+00 -3.955211e+00 -3.957938e+00 -3.968559e+00 -3.971345e+00 -3.983521e+00 -3.986388e+00 -3.999437e+00 -4.002304e+00 -4.015298e+00 -4.017947e+00 -4.029782e+00 -4.031893e+00 -4.041480e+00 -4.042754e+00 -4.049343e+00 -4.049671e+00 -4.053250e+00 -4.052854e+00 -4.054362e+00 -4.053778e+00 -4.054681e+00 -4.054364e+00 -4.055736e+00 -4.055580e+00 -4.057433e+00 -4.056723e+00 -4.058065e+00 -4.055991e+00 -4.055507e+00 -4.051824e+00 -4.048599e+00 -4.043721e+00 -4.037518e+00 -4.032136e+00 -4.023339e+00 -4.018100e+00 -4.007466e+00 -4.002845e+00 -3.991222e+00 -3.987516e+00 -3.975650e+00 -3.973002e+00 -3.961469e+00 -3.959910e+00 -3.949129e+00 -3.948612e+00 -3.938900e+00 -3.939326e+00 -3.930950e+00 -3.932185e+00 -3.925388e+00 -3.927271e+00 -3.922284e+00 
-3.924170e+00 -3.921943e+00 -3.924565e+00 -3.924556e+00 -3.927386e+00 -3.929708e+00 -3.932663e+00 -3.937361e+00 -3.940430e+00 -3.947454e+00 -3.950705e+00 -3.959899e+00 -3.963471e+00 -3.974544e+00 -3.978607e+00 -3.991118e+00 -3.995811e+00 -4.009162e+00 -4.014532e+00 -4.028002e+00 -4.033964e+00 -4.046805e+00 -4.053164e+00 -4.064735e+00 -4.071223e+00 -4.081093e+00 -4.087323e+00 -4.095231e+00 -4.100524e+00 -4.106200e+00 -4.109508e+00 -4.112701e+00 -4.113043e+00 -4.113686e+00 -4.110607e+00 -4.108827e+00 -4.102605e+00 -4.098649e+00 -4.090236e+00 -4.084316e+00 -4.074929e+00 -4.067101e+00 -4.057758e+00 -4.048131e+00 -4.039527e+00 -4.028444e+00 -4.020993e+00 -4.009002e+00 -4.002911e+00 -3.990623e+00 -3.985962e+00 -3.973919e+00 -3.970660e+00 -3.959278e+00 -3.957328e+00 -3.946916e+00 -3.946143e+00 -3.936941e+00 -3.937191e+00 -3.929416e+00 -3.930519e+00 -3.924386e+00 -3.926167e+00 -3.921887e+00 
-3.923482e+00 -3.920425e+00 -3.923167e+00 -3.922335e+00 -3.925206e+00 -3.926741e+00 -3.929615e+00 -3.933600e+00 -3.936408e+00 -3.942844e+00 -3.945585e+00 -3.954366e+00 -3.957096e+00 -3.967973e+00 -3.970769e+00 -3.983297e+00 -3.986197e+00 -3.999687e+00 -4.002621e+00 -4.016116e+00 -4.018869e+00 -4.031202e+00 -4.033433e+00 -4.043398e+00 -4.044766e+00 -4.051444e+00 -4.051784e+00 -4.055051e+00 -4.054557e+00 -4.055503e+00 -4.054835e+00 -4.055298e+00 -4.055064e+00 -4.056390e+00 -4.056487e+00 -4.058685e+00 -4.058210e+00 -4.060040e+00 -4.057944e+00 -4.057801e+00 -4.053835e+00 -4.050686e+00 -4.045456e+00 -4.039081e+00 -4.033415e+00 -4.024287e+00 -4.018857e+00 -4.007838e+00 -4.003097e+00 -3.991111e+00 -3.987330e+00 -3.975161e+00 -3.972472e+00 -3.960698e+00 -3.959131e+00 -3.948160e+00 -3.947667e+00 -3.937801e+00 -3.938278e+00 -3.929769e+00 -3.931076e+00 -3.924161e+00 -3.926129e+00 -3.921035e+00 
-3.921778e+00 -3.919385e+00 -3.922141e+00 -3.922021e+00 -3.924938e+00 -3.927232e+00 -3.930219e+00 -3.934996e+00 -3.938039e+00 -3.945277e+00 -3.948454e+00 -3.958009e+00 -3.961479e+00 -3.973056e+00 -3.977021e+00 -3.990149e+00 -3.994781e+00 -4.008804e+00 -4.014175e+00 -4.028293e+00 -4.034340e+00 -4.047732e+00 -4.054307e+00 -4.066322e+00 -4.073281e+00 -4.083586e+00 -4.090739e+00 -4.099222e+00 -4.105889e+00 -4.112142e+00 -4.116702e+00 -4.120145e+00 -4.120994e+00 -4.121437e+00 -4.117883e+00 -4.115575e+00 -4.108079e+00 -4.103587e+00 -4.093675e+00 -4.087468e+00 -4.076908e+00 -4.068882e+00 -4.058821e+00 -4.048885e+00 -4.039941e+00 -4.028397e+00 -4.020831e+00 -4.008305e+00 -4.002200e+00 -3.989394e+00 -3.984756e+00 -3.972265e+00 -3.969049e+00 -3.957301e+00 -3.955420e+00 -3.944705e+00 -3.944036e+00 -3.934573e+00 -3.934960e+00 -3.926949e+00 -3.928214e+00 -3.921861e+00 -3.923813e+00 -3.919333e+00 
-3.919989e+00 -3.916657e+00 -3.919644e+00 -3.918609e+00 -3.921678e+00 -3.923118e+00 -3.926127e+00 -3.930167e+00 -3.933045e+00 -3.939730e+00 -3.942488e+00 -3.951756e+00 -3.954478e+00 -3.966116e+00 -3.968923e+00 -3.982506e+00 -3.985485e+00 -4.000313e+00 -4.003439e+00 -4.018486e+00 -4.021556e+00 -4.035487e+00 -4.038113e+00 -4.049371e+00 -4.051069e+00 -4.058128e+00 -4.058520e+00 -4.060696e+00 -4.059792e+00 -4.058690e+00 -4.057632e+00 -4.056519e+00 -4.056538e+00 -4.057724e+00 -4.058756e+00 -4.062227e+00 -4.062681e+00 -4.066266e+00 -4.064106e+00 -4.065113e+00 -4.060111e+00 -4.057183e+00 -4.050773e+00 -4.043799e+00 -4.037264e+00 -4.027047e+00 -4.021079e+00 -4.008835e+00 -4.003766e+00 -3.990664e+00 -3.986675e+00 -3.973597e+00 -3.970791e+00 -3.958312e+00 -3.956721e+00 -3.945199e+00 -3.944778e+00 -3.934460e+00 -3.935098e+00 -3.926196e+00 -3.927729e+00 -3.920457e+00 -3.922689e+00 -3.917273e+00 
-3.916992e+00 -3.914246e+00 -3.917286e+00 -3.916920e+00 -3.920027e+00 -3.922237e+00 -3.925293e+00 -3.930210e+00 -3.933194e+00 -3.940847e+00 -3.943854e+00 -3.954133e+00 -3.957366e+00 -3.969973e+00 -3.973699e+00 -3.988106e+00 -3.992571e+00 -4.007995e+00 -4.013322e+00 -4.028777e+00 -4.034921e+00 -4.049402e+00 -4.056261e+00 -4.069055e+00 -4.076753e+00 -4.087777e+00 -4.096778e+00 -4.106553e+00 -4.116544e+00 -4.124295e+00 -4.131994e+00 -4.136081e+00 -4.138193e+00 -4.138112e+00 -4.133412e+00 -4.129711e+00 -4.119079e+00 -4.113258e+00 -4.099797e+00 -4.093189e+00 -4.080156e+00 -4.071942e+00 -4.060540e+00 -4.050032e+00 -4.040580e+00 -4.028058e+00 -4.020407e+00 -4.006739e+00 -4.000689e+00 -3.986810e+00 -3.982247e+00 -3.968862e+00 -3.965734e+00 -3.953273e+00 -3.951525e+00 -3.940229e+00 -3.939764e+00 -3.929796e+00 -3.930462e+00 -3.921983e+00 -3.923584e+00 -3.916785e+00 -3.919097e+00 -3.914204e+00 
-3.914146e+00 -3.910328e+00 -3.913752e+00 -3.912344e+00 -3.915763e+00 -3.917004e+00 -3.920246e+00 -3.924333e+00 -3.927318e+00 -3.934373e+00 -3.937128e+00 -3.947165e+00 -3.949821e+00 -3.962694e+00 -3.965447e+00 -3.980779e+00 -3.983814e+00 -4.000911e+00 -4.004299e+00 -4.022080e+00 -4.025685e+00 -4.042631e+00 -4.046032e+00 -4.060080e+00 -4.062534e+00 -4.070802e+00 -4.071454e+00 -4.071243e+00 -4.069130e+00 -4.063102e+00 -4.060780e+00 -4.056041e+00 -4.056477e+00 -4.057444e+00 -4.060737e+00 -4.067292e+00 -4.070318e+00 -4.078005e+00 -4.075739e+00 -4.079056e+00 -4.071470e+00 -4.068821e+00 -4.059968e+00 -4.051658e+00 -4.043680e+00 -4.031284e+00 -4.024586e+00 -4.010066e+00 -4.004578e+00 -3.989531e+00 -3.985249e+00 -3.970673e+00 -3.967685e+00 -3.954089e+00 -3.952460e+00 -3.940080e+00 -3.939788e+00 -3.928760e+00 -3.929683e+00 -3.920145e+00 -3.922083e+00 -3.914216e+00 -3.916919e+00 -3.910949e+00 
-3.909820e+00 -3.906490e+00 -3.910004e+00 -3.909204e+00 -3.912632e+00 -3.914649e+00 -3.917826e+00 -3.922892e+00 -3.925774e+00 -3.934012e+00 -3.936711e+00 -3.948078e+00 -3.950865e+00 -3.965074e+00 -3.968331e+00 -3.984774e+00 -3.988880e+00 -4.006569e+00 -4.011730e+00 -4.029341e+00 -4.035478e+00 -4.051591e+00 -4.058488e+00 -4.072117e+00 -4.080151e+00 -4.091551e+00 -4.102956e+00 -4.115116e+00 -4.132048e+00 -4.143297e+00 -4.157754e+00 -4.163233e+00 -4.167930e+00 -4.166706e+00 -4.159745e+00 -4.152821e+00 -4.135580e+00 -4.126777e+00 -4.106234e+00 -4.099838e+00 -4.083000e+00 -4.075215e+00 -4.062174e+00 -4.050879e+00 -4.041196e+00 -4.026972e+00 -4.019602e+00 -4.003997e+00 -3.998228e+00 -3.982643e+00 -3.978241e+00 -3.963531e+00 -3.960518e+00 -3.947056e+00 -3.945483e+00 -3.933384e+00 -3.933219e+00 -3.922536e+00 -3.923637e+00 -3.914467e+00 -3.916607e+00 -3.909123e+00 -3.912021e+00 -3.906468e+00 
-3.905952e+00 -3.901390e+00 -3.905491e+00 -3.903480e+00 -3.907436e+00 -3.908307e+00 -3.911897e+00 -3.915952e+00 -3.919069e+00 -3.926542e+00 -3.929230e+00 -3.940247e+00 -3.942697e+00 -3.957215e+00 -3.959734e+00 -3.977463e+00 -3.980386e+00 -4.000687e+00 -4.004271e+00 -4.026072e+00 -4.030392e+00 -4.052205e+00 -4.056961e+00 -4.076606e+00 -4.080674e+00 -4.092977e+00 -4.095003e+00 -4.090009e+00 -4.084448e+00 -4.066826e+00 -4.060754e+00 -4.048361e+00 -4.049303e+00 -4.050062e+00 -4.058371e+00 -4.071985e+00 -4.082129e+00 -4.099114e+00 -4.096564e+00 -4.103669e+00 -4.089396e+00 -4.086689e+00 -4.073322e+00 -4.062190e+00 -4.052534e+00 -4.036169e+00 -4.029003e+00 -4.010775e+00 -4.005004e+00 -3.987109e+00 -3.982497e+00 -3.965924e+00 -3.962664e+00 -3.947676e+00 -3.945975e+00 -3.932543e+00 -3.932443e+00 -3.920516e+00 -3.921882e+00 -3.911494e+00 -3.914062e+00 -3.905358e+00 -3.908793e+00 -3.902010e+00 
-3.900308e+00 -3.896092e+00 -3.900333e+00 -3.898825e+00 -3.902757e+00 -3.904381e+00 -3.907757e+00 -3.912894e+00 -3.915619e+00 -3.924548e+00 -3.926738e+00 -3.939541e+00 -3.941553e+00 -3.957998e+00 -3.960397e+00 -3.979797e+00 -3.983209e+00 -4.004295e+00 -4.009114e+00 -4.030001e+00 -4.036027e+00 -4.054474e+00 -4.060809e+00 -4.074917e+00 -4.081071e+00 -4.090075e+00 -4.101991e+00 -4.118563e+00 -4.150758e+00 -4.170736e+00 -4.199623e+00 -4.207744e+00 -4.217087e+00 -4.213666e+00 -4.202792e+00 -4.188449e+00 -4.157191e+00 -4.140828e+00 -4.105918e+00 -4.103356e+00 -4.082517e+00 -4.077221e+00 -4.063071e+00 -4.050508e+00 -4.041855e+00 -4.024597e+00 -4.018455e+00 -3.999718e+00 -3.994630e+00 -3.976607e+00 -3.972414e+00 -3.956032e+00 -3.953070e+00 -3.938455e+00 -3.937036e+00 -3.924024e+00 -3.924240e+00 -3.912694e+00 -3.914413e+00 -3.904342e+00 -3.907275e+00 -3.898842e+00 -3.902613e+00 -3.896104e+00 
-3.895450e+00 -3.889819e+00 -3.894906e+00 -3.891978e+00 -3.896714e+00 -3.896947e+00 -3.901027e+00 -3.904866e+00 -3.908134e+00 -3.915965e+00 -3.918462e+00 -3.930562e+00 -3.932550e+00 -3.949018e+00 -3.950943e+00 -3.971620e+00 -3.974015e+00 -3.998350e+00 -4.001744e+00 -4.028694e+00 -4.033651e+00 -4.062176e+00 -4.069151e+00 -4.099411e+00 -4.106419e+00 -4.132832e+00 -4.141797e+00 -4.127481e+00 -4.111478e+00 -4.064869e+00 -4.048353e+00 -4.021056e+00 -4.022544e+00 -4.023181e+00 -4.041358e+00 -4.070708e+00 -4.101868e+00 -4.141409e+00 -4.137680e+00 -4.148535e+00 -4.115024e+00 -4.110807e+00 -4.090272e+00 -4.073244e+00 -4.063387e+00 -4.039945e+00 -4.033678e+00 -4.009793e+00 -4.004169e+00 -3.982581e+00 -3.977525e+00 -3.958734e+00 -3.954989e+00 -3.938604e+00 -3.936737e+00 -3.922247e+00 -3.922416e+00 -3.909501e+00 -3.911526e+00 -3.900106e+00 -3.903608e+00 -3.893810e+00 -3.898320e+00 -3.890419e+00 
-3.888571e+00 -3.883060e+00 -3.888379e+00 -3.885760e+00 -3.890466e+00 -3.891347e+00 -3.895057e+00 -3.900041e+00 -3.902555e+00 -3.912161e+00 -3.913555e+00 -3.928088e+00 -3.928806e+00 -3.948182e+00 -3.949062e+00 -3.972574e+00 -3.974702e+00 -4.000766e+00 -4.005035e+00 -4.030947e+00 -4.037219e+00 -4.059361e+00 -4.065163e+00 -4.080124e+00 -4.078339e+00 -4.072616e+00 -4.071028e+00 -4.096809e+00 -4.168094e+00 -4.212298e+00 -4.272375e+00 -4.283218e+00 -4.298145e+00 -4.291795e+00 -4.276779e+00 -4.245626e+00 -4.183165e+00 -4.143471e+00 -4.076083e+00 -4.093629e+00 -4.076180e+00 -4.077810e+00 -4.064040e+00 -4.047840e+00 -4.043581e+00 -4.020450e+00 -4.017359e+00 -3.993627e+00 -3.989616e+00 -3.968413e+00 -3.964191e+00 -3.946067e+00 -3.942845e+00 -3.927211e+00 -3.925804e+00 -3.911957e+00 -3.912625e+00 -3.900152e+00 -3.902727e+00 -3.891553e+00 -3.895621e+00 -3.885931e+00 -3.890966e+00 -3.883124e+00 
-3.882766e+00 -3.875641e+00 -3.882126e+00 -3.877843e+00 -3.883688e+00 -3.882872e+00 -3.887643e+00 -3.890933e+00 -3.894372e+00 -3.902358e+00 -3.904474e+00 -3.917620e+00 -3.918746e+00 -3.937325e+00 -3.938077e+00 -3.962110e+00 -3.963205e+00 -3.992236e+00 -3.994364e+00 -4.026881e+00 -4.031343e+00 -4.065814e+00 -4.076521e+00 -4.122546e+00 -4.130754e+00 -4.208784e+00 -4.251815e+00 -4.219510e+00 -4.167344e+00 -4.040458e+00 -3.997325e+00 -3.947972e+00 -3.952121e+00 -3.951113e+00 -3.980871e+00 -4.041883e+00 -4.140969e+00 -4.244251e+00 -4.235846e+00 -4.236547e+00 -4.141020e+00 -4.132454e+00 -4.107307e+00 -4.078174e+00 -4.075623e+00 -4.039631e+00 -4.037647e+00 -4.005773e+00 -4.000641e+00 -3.975075e+00 -3.968947e+00 -3.948391e+00 -3.943599e+00 -3.926297e+00 -3.924059e+00 -3.908775e+00 -3.909332e+00 -3.895452e+00 -3.898465e+00 -3.885848e+00 -3.890718e+00 -3.879531e+00 -3.885586e+00 -3.876188e+00 
-3.874820e+00 -3.867457e+00 -3.874349e+00 -3.870030e+00 -3.875912e+00 -3.875483e+00 -3.879770e+00 -3.884137e+00 -3.886426e+00 -3.896473e+00 -3.896698e+00 -3.913109e+00 -3.911746e+00 -3.934752e+00 -3.932979e+00 -3.962024e+00 -3.961693e+00 -3.994960e+00 -3.998148e+00 -4.031823e+00 -4.039800e+00 -4.068123e+00 -4.079534e+00 -4.107196e+00 -4.088992e+00 -4.016946e+00 -3.932169e+00 -3.983335e+00 -4.177284e+00 -4.296495e+00 -4.423078e+00 -4.421493e+00 -4.427487e+00 -4.424799e+00 -4.421397e+00 -4.355568e+00 -4.219400e+00 -4.093529e+00 -3.937389e+00 -4.045961e+00 -4.078755e+00 -4.088802e+00 -4.070157e+00 -4.039768e+00 -4.048779e+00 -4.014305e+00 -4.016976e+00 -3.985713e+00 -3.982419e+00 -3.957753e+00 -3.952423e+00 -3.933216e+00 -3.928926e+00 -3.912947e+00 -3.911245e+00 -3.896915e+00 -3.898140e+00 -3.884762e+00 -3.888555e+00 -3.876057e+00 -3.881749e+00 -3.870421e+00 -3.877257e+00 -3.867595e+00 
-3.868135e+00 -3.858952e+00 -3.867387e+00 -3.861142e+00 -3.868549e+00 -3.866081e+00 -3.871834e+00 -3.874040e+00 -3.877701e+00 -3.885445e+00 -3.886921e+00 -3.900901e+00 -3.900601e+00 -3.921269e+00 -3.920075e+00 -3.947729e+00 -3.946495e+00 -3.981109e+00 -3.979775e+00 -4.018184e+00 -4.016964e+00 -4.047058e+00 -4.069340e+00 -4.109254e+00 -4.083383e+00 -4.359985e+00 -4.573184e+00 -4.503092e+00 -4.221895e+00 -3.470797e+00 -2.670523e+00 -2.014545e+00 -1.750429e+00 -1.903726e+00 -2.467437e+00 -3.264651e+00 -4.094422e+00 -4.545978e+00 -4.534974e+00 -4.423185e+00 -4.105523e+00 -4.100870e+00 -4.118859e+00 -4.064059e+00 -4.091070e+00 -4.032741e+00 -4.039516e+00 -3.998255e+00 -3.991885e+00 -3.963956e+00 -3.954572e+00 -3.934072e+00 -3.927023e+00 -3.910012e+00 -3.907114e+00 -3.891595e+00 -3.892818e+00 -3.878066e+00 -3.882616e+00 -3.868603e+00 -3.875484e+00 -3.862533e+00 -3.870780e+00 -3.859397e+00 
-3.859374e+00 -3.849421e+00 -3.858563e+00 -3.851715e+00 -3.859373e+00 -3.856754e+00 -3.862050e+00 -3.864967e+00 -3.867144e+00 -3.877008e+00 -3.875657e+00 -3.893770e+00 -3.889199e+00 -3.916394e+00 -3.910068e+00 -3.946259e+00 -3.941019e+00 -3.984561e+00 -3.984322e+00 -4.030063e+00 -4.039816e+00 -4.070237e+00 -4.119844e+00 -4.255462e+00 -4.239126e+00 -3.655823e+00 -1.692742e+00 1.226748e+00 4.097834e+00 6.565780e+00 8.411912e+00 9.485988e+00 9.885852e+00 9.664781e+00 8.733887e+00 7.147166e+00 4.736321e+00 1.948899e+00 -1.074853e+00 -3.444180e+00 -4.152798e+00 -4.190770e+00 -4.086025e+00 -4.004443e+00 -4.059726e+00 -4.008497e+00 -4.017614e+00 -3.976601e+00 -3.970660e+00 -3.944059e+00 -3.934712e+00 -3.916717e+00 -3.909815e+00 -3.895034e+00 -3.892649e+00 -3.878480e+00 -3.880568e+00 -3.866313e+00 -3.871950e+00 -3.857811e+00 -3.865861e+00 -3.852387e+00 -3.861766e+00 -3.849651e+00 
-3.851906e+00 -3.839931e+00 -3.851040e+00 -3.842005e+00 -3.851606e+00 -3.846608e+00 -3.853798e+00 -3.854092e+00 -3.858100e+00 -3.864958e+00 -3.865431e+00 -3.879848e+00 -3.877284e+00 -3.899756e+00 -3.895733e+00 -3.926833e+00 -3.922922e+00 -3.965332e+00 -3.958902e+00 -4.013301e+00 -3.982062e+00 -3.993598e+00 -4.088922e+00 -3.624632e+00 -1.356762e+00 3.325155e+00 7.865124e+00 1.091497e+01 1.295349e+01 1.370104e+01 1.405586e+01 1.409722e+01 1.412188e+01 1.412532e+01 1.405602e+01 1.389063e+01 1.322375e+01 1.163972e+01 8.566815e+00 4.529994e+00 1.931270e-01 -3.202742e+00 -4.116008e+00 -4.041690e+00 -4.124075e+00 -4.025508e+00 -4.035143e+00 -3.989730e+00 -3.972699e+00 -3.948742e+00 -3.930939e+00 -3.914482e+00 -3.903361e+00 -3.888602e+00 -3.885031e+00 -3.869961e+00 -3.872603e+00 -3.856977e+00 -3.864031e+00 -3.848285e+00 -3.858126e+00 -3.842902e+00 -3.854209e+00 -3.840216e+00 
-3.842656e+00 -3.829172e+00 -3.841466e+00 -3.830968e+00 -3.841274e+00 -3.835164e+00 -3.842225e+00 -3.842297e+00 -3.844781e+00 -3.853190e+00 -3.849969e+00 -3.868983e+00 -3.859769e+00 -3.891256e+00 -3.877534e+00 -3.922369e+00 -3.907972e+00 -3.965987e+00 -3.956070e+00 -4.030244e+00 -4.014403e+00 -3.904120e+00 -2.253571e+00 2.461235e+00 7.630274e+00 1.159093e+01 1.354173e+01 1.371978e+01 1.376711e+01 1.352232e+01 1.343320e+01 1.335404e+01 1.334326e+01 1.335732e+01 1.339023e+01 1.351772e+01 1.368397e+01 1.379490e+01 1.355698e+01 1.244225e+01 8.951009e+00 3.528749e+00 -1.373145e+00 -3.750335e+00 -4.077562e+00 -4.033731e+00 -4.020070e+00 -3.967064e+00 -3.947680e+00 -3.925388e+00 -3.906363e+00 -3.894993e+00 -3.883397e+00 -3.872385e+00 -3.869322e+00 -3.855991e+00 -3.859837e+00 -3.844501e+00 -3.853103e+00 -3.836778e+00 -3.848267e+00 -3.831962e+00 -3.844873e+00 -3.829509e+00 
-3.834541e+00 -3.818853e+00 -3.833556e+00 -3.820624e+00 -3.833304e+00 -3.824508e+00 -3.833879e+00 -3.830981e+00 -3.835657e+00 -3.840626e+00 -3.839561e+00 -3.853927e+00 -3.847511e+00 -3.871243e+00 -3.862866e+00 -3.894713e+00 -3.890634e+00 -3.939335e+00 -3.948580e+00 -4.069775e+00 -3.764599e+00 -1.134332e+00 4.627176e+00 1.036572e+01 1.303769e+01 1.342016e+01 1.329669e+01 1.320432e+01 1.337724e+01 1.351824e+01 1.367341e+01 1.373143e+01 1.376594e+01 1.375357e+01 1.368856e+01 1.358897e+01 1.342264e+01 1.326650e+01 1.330930e+01 1.346824e+01 1.323355e+01 1.145064e+01 6.715967e+00 3.857748e-01 -3.491499e+00 -4.033712e+00 -4.002036e+00 -3.985416e+00 -3.932640e+00 -3.926907e+00 -3.893361e+00 -3.886720e+00 -3.870616e+00 -3.860111e+00 -3.857181e+00 -3.842829e+00 -3.848693e+00 -3.831787e+00 -3.842985e+00 -3.824893e+00 -3.839031e+00 -3.820847e+00 -3.836313e+00 -3.818932e+00 
-3.825183e+00 -3.807060e+00 -3.823629e+00 -3.808053e+00 -3.822233e+00 -3.810804e+00 -3.820908e+00 -3.815931e+00 -3.819768e+00 -3.824389e+00 -3.819479e+00 -3.837475e+00 -3.822063e+00 -3.857010e+00 -3.832192e+00 -3.886125e+00 -3.857893e+00 -3.927585e+00 -3.917813e+00 -3.751396e+00 -5.895677e-01 6.426027e+00 1.185457e+01 1.327408e+01 1.320400e+01 1.326358e+01 1.341451e+01 1.343195e+01 1.348635e+01 1.342071e+01 1.341456e+01 1.337927e+01 1.337835e+01 1.338170e+01 1.339532e+01 1.342774e+01 1.345925e+01 1.345817e+01 1.341948e+01 1.328274e+01 1.327575e+01 1.338473e+01 1.253243e+01 7.862671e+00 7.390053e-01 -3.247371e+00 -4.043250e+00 -3.932853e+00 -3.893748e+00 -3.895494e+00 -3.859636e+00 -3.865381e+00 -3.847884e+00 -3.843349e+00 -3.841227e+00 -3.828500e+00 -3.836306e+00 -3.818948e+00 -3.832437e+00 -3.812974e+00 -3.829409e+00 -3.809390e+00 -3.827051e+00 -3.807514e+00 
-3.816614e+00 -3.796142e+00 -3.815539e+00 -3.797285e+00 -3.814282e+00 -3.799860e+00 -3.812706e+00 -3.804552e+00 -3.810788e+00 -3.812211e+00 -3.809009e+00 -3.823245e+00 -3.809421e+00 -3.835747e+00 -3.817007e+00 -3.841711e+00 -3.830656e+00 -3.834090e+00 -3.651700e+00 -9.590828e-01 6.126588e+00 1.194649e+01 1.330791e+01 1.327339e+01 1.333761e+01 1.332642e+01 1.333446e+01 1.332344e+01 1.339247e+01 1.344243e+01 1.351119e+01 1.354474e+01 1.356185e+01 1.355593e+01 1.351752e+01 1.347164e+01 1.340067e+01 1.334937e+01 1.332071e+01 1.333689e+01 1.327898e+01 1.324513e+01 1.313387e+01 1.249467e+01 8.288321e+00 9.065534e-01 -3.517217e+00 -3.980685e+00 -3.862935e+00 -3.886890e+00 -3.838847e+00 -3.844835e+00 -3.827830e+00 -3.821663e+00 -3.823800e+00 -3.809034e+00 -3.821694e+00 -3.802272e+00 -3.820110e+00 -3.798668e+00 -3.818790e+00 -3.796801e+00 -3.817657e+00 -3.796022e+00 
-3.807561e+00 -3.783649e+00 -3.805762e+00 -3.783449e+00 -3.803127e+00 -3.783968e+00 -3.799183e+00 -3.785860e+00 -3.793309e+00 -3.790162e+00 -3.785005e+00 -3.798239e+00 -3.775263e+00 -3.811763e+00 -3.770068e+00 -3.837718e+00 -3.777296e+00 -3.908142e+00 -1.688934e+00 5.384346e+00 1.174238e+01 1.313329e+01 1.318989e+01 1.325116e+01 1.323463e+01 1.327887e+01 1.332119e+01 1.334334e+01 1.337054e+01 1.336379e+01 1.336835e+01 1.336275e+01 1.336072e+01 1.336534e+01 1.336276e+01 1.337211e+01 1.336652e+01 1.336003e+01 1.333269e+01 1.329846e+01 1.326560e+01 1.327372e+01 1.320844e+01 1.316650e+01 1.267290e+01 7.404320e+00 -7.688702e-01 -3.786111e+00 -3.718508e+00 -3.859193e+00 -3.789774e+00 -3.826711e+00 -3.805954e+00 -3.805967e+00 -3.810327e+00 -3.794878e+00 -3.811090e+00 -3.789376e+00 -3.810659e+00 -3.786638e+00 -3.809856e+00 -3.785157e+00 -3.808853e+00 -3.784239e+00 
-3.798821e+00 -3.772482e+00 -3.797755e+00 -3.772490e+00 -3.795476e+00 -3.772844e+00 -3.791466e+00 -3.774523e+00 -3.784856e+00 -3.779208e+00 -3.774625e+00 -3.789292e+00 -3.762005e+00 -3.804963e+00 -3.763757e+00 -3.802940e+00 -3.874788e+00 -3.321048e+00 2.685205e+00 1.055009e+01 1.316197e+01 1.313462e+01 1.325191e+01 1.323784e+01 1.328956e+01 1.329673e+01 1.332024e+01 1.333607e+01 1.336719e+01 1.339883e+01 1.342488e+01 1.344932e+01 1.345059e+01 1.345439e+01 1.342731e+01 1.341100e+01 1.336832e+01 1.334628e+01 1.331164e+01 1.329702e+01 1.326614e+01 1.322118e+01 1.322289e+01 1.310837e+01 1.327015e+01 1.183939e+01 5.368232e+00 -1.618502e+00 -3.870617e+00 -3.796241e+00 -3.770259e+00 -3.782587e+00 -3.776172e+00 -3.771000e+00 -3.786995e+00 -3.768162e+00 -3.793251e+00 -3.768919e+00 -3.796522e+00 -3.770415e+00 -3.798228e+00 -3.771621e+00 -3.798949e+00 -3.772285e+00 
-3.790491e+00 -3.759864e+00 -3.788724e+00 -3.758018e+00 -3.785134e+00 -3.755380e+00 -3.778824e+00 -3.752528e+00 -3.768091e+00 -3.750633e+00 -3.749960e+00 -3.751443e+00 -3.721422e+00 -3.752116e+00 -3.693839e+00 -3.699935e+00 -3.708149e+00 6.320652e-02 8.536501e+00 1.282423e+01 1.309967e+01 1.315098e+01 1.316685e+01 1.321640e+01 1.321861e+01 1.326276e+01 1.327346e+01 1.330593e+01 1.331201e+01 1.333050e+01 1.332724e+01 1.334029e+01 1.333084e+01 1.334316e+01 1.332932e+01 1.333955e+01 1.331967e+01 1.332238e+01 1.329166e+01 1.328748e+01 1.324766e+01 1.325604e+01 1.319966e+01 1.323053e+01 1.313860e+01 1.327208e+01 1.054752e+01 1.773576e+00 -3.839534e+00 -3.815370e+00 -3.774927e+00 -3.775097e+00 -3.773672e+00 -3.756826e+00 -3.781114e+00 -3.754042e+00 -3.785837e+00 -3.756098e+00 -3.788626e+00 -3.758608e+00 -3.790260e+00 -3.760227e+00 -3.790916e+00 -3.760644e+00 
-3.781983e+00 -3.748991e+00 -3.781142e+00 -3.747185e+00 -3.778145e+00 -3.744021e+00 -3.772137e+00 -3.740433e+00 -3.761117e+00 -3.738938e+00 -3.740208e+00 -3.747210e+00 -3.696935e+00 -3.789593e+00 -3.597461e+00 -3.944188e+00 -2.851897e+00 4.166375e+00 1.199695e+01 1.325335e+01 1.303453e+01 1.319909e+01 1.317840e+01 1.324086e+01 1.324672e+01 1.328796e+01 1.329265e+01 1.332839e+01 1.333372e+01 1.336801e+01 1.336880e+01 1.339537e+01 1.338374e+01 1.339757e+01 1.337138e+01 1.337310e+01 1.333750e+01 1.333251e+01 1.329596e+01 1.328743e+01 1.325267e+01 1.323317e+01 1.320655e+01 1.318257e+01 1.315407e+01 1.319642e+01 1.259509e+01 6.677265e+00 -1.324279e+00 -3.846518e+00 -3.593376e+00 -3.717138e+00 -3.717710e+00 -3.709518e+00 -3.752797e+00 -3.721898e+00 -3.766421e+00 -3.733724e+00 -3.773760e+00 -3.741921e+00 -3.778342e+00 -3.746794e+00 -3.781022e+00 -3.748987e+00 
-3.774786e+00 -3.737127e+00 -3.773470e+00 -3.733204e+00 -3.769589e+00 -3.726469e+00 -3.762147e+00 -3.717069e+00 -3.748739e+00 -3.706404e+00 -3.722826e+00 -3.702436e+00 -3.663329e+00 -3.743774e+00 -3.488535e+00 -4.010019e+00 -2.478255e-01 8.371912e+00 1.307506e+01 1.297162e+01 1.312717e+01 1.311857e+01 1.315556e+01 1.319910e+01 1.319922e+01 1.325032e+01 1.324254e+01 1.328665e+01 1.327528e+01 1.330911e+01 1.329387e+01 1.332021e+01 1.330135e+01 1.332301e+01 1.330024e+01 1.331780e+01 1.328967e+01 1.330202e+01 1.326690e+01 1.327350e+01 1.323389e+01 1.323211e+01 1.320082e+01 1.315960e+01 1.319614e+01 1.297488e+01 1.333808e+01 1.084867e+01 1.956130e+00 -3.786680e+00 -3.620848e+00 -3.699257e+00 -3.730045e+00 -3.689600e+00 -3.752406e+00 -3.706299e+00 -3.761002e+00 -3.721126e+00 -3.766932e+00 -3.730881e+00 -3.771308e+00 -3.736298e+00 -3.773989e+00 -3.738220e+00 
-3.767023e+00 -3.727345e+00 -3.766699e+00 -3.723103e+00 -3.763595e+00 -3.715095e+00 -3.757095e+00 -3.703025e+00 -3.745741e+00 -3.686835e+00 -3.725834e+00 -3.668968e+00 -3.685534e+00 -3.663878e+00 -3.572901e+00 -3.639976e+00 3.339838e+00 1.160345e+01 1.338261e+01 1.299699e+01 1.316993e+01 1.316544e+01 1.318127e+01 1.323846e+01 1.322604e+01 1.328502e+01 1.326848e+01 1.331953e+01 1.330371e+01 1.334642e+01 1.332922e+01 1.336258e+01 1.333996e+01 1.336338e+01 1.333331e+01 1.334819e+01 1.331162e+01 1.332090e+01 1.327997e+01 1.328552e+01 1.324128e+01 1.324169e+01 1.319797e+01 1.318889e+01 1.316324e+01 1.310855e+01 1.320034e+01 1.257810e+01 5.660628e+00 -2.614037e+00 -3.808493e+00 -3.533024e+00 -3.746819e+00 -3.626077e+00 -3.738135e+00 -3.674173e+00 -3.744396e+00 -3.700910e+00 -3.752947e+00 -3.716183e+00 -3.760051e+00 -3.724489e+00 -3.764791e+00 -3.727905e+00 
-3.761377e+00 -3.717362e+00 -3.760896e+00 -3.711163e+00 -3.757471e+00 -3.699769e+00 -3.750787e+00 -3.681669e+00 -3.740469e+00 -3.653389e+00 -3.727337e+00 -3.605993e+00 -3.719603e+00 -3.509732e+00 -3.757004e+00 -2.473289e+00 6.843891e+00 1.284713e+01 1.306163e+01 1.307801e+01 1.308803e+01 1.315724e+01 1.313312e+01 1.321237e+01 1.317958e+01 1.325109e+01 1.321966e+01 1.327834e+01 1.324955e+01 1.329591e+01 1.326834e+01 1.330529e+01 1.327722e+01 1.330768e+01 1.327727e+01 1.330318e+01 1.326825e+01 1.329081e+01 1.324896e+01 1.326961e+01 1.321869e+01 1.324022e+01 1.317709e+01 1.320797e+01 1.311890e+01 1.320960e+01 1.300291e+01 1.345310e+01 9.108937e+00 -8.286409e-01 -3.967729e+00 -3.433823e+00 -3.772782e+00 -3.593954e+00 -3.736082e+00 -3.658541e+00 -3.737495e+00 -3.690072e+00 -3.746057e+00 -3.707016e+00 -3.753832e+00 -3.715806e+00 -3.759024e+00 -3.718944e+00 
-3.754955e+00 -3.709681e+00 -3.755310e+00 -3.702909e+00 -3.752457e+00 -3.689922e+00 -3.746398e+00 -3.668649e+00 -3.737672e+00 -3.634421e+00 -3.730381e+00 -3.575639e+00 -3.745637e+00 -3.457377e+00 -3.877622e+00 -1.320899e+00 9.316786e+00 1.351515e+01 1.301230e+01 1.325456e+01 1.309740e+01 1.323941e+01 1.315542e+01 1.326430e+01 1.320656e+01 1.329196e+01 1.324854e+01 1.331540e+01 1.328059e+01 1.333313e+01 1.330208e+01 1.334309e+01 1.331145e+01 1.334306e+01 1.330790e+01 1.333273e+01 1.329255e+01 1.331386e+01 1.326726e+01 1.328876e+01 1.323235e+01 1.326026e+01 1.318549e+01 1.323861e+01 1.311806e+01 1.326215e+01 1.298496e+01 1.347572e+01 1.112943e+01 1.228029e+00 -3.862648e+00 -3.454961e+00 -3.723976e+00 -3.585614e+00 -3.707547e+00 -3.646125e+00 -3.718855e+00 -3.678552e+00 -3.732954e+00 -3.697077e+00 -3.744038e+00 -3.707167e+00 -3.751292e+00 -3.711089e+00 
-3.751331e+00 -3.702714e+00 -3.751733e+00 -3.694643e+00 -3.748819e+00 -3.679664e+00 -3.742720e+00 -3.655550e+00 -3.733917e+00 -3.617829e+00 -3.725407e+00 -3.557507e+00 -3.731661e+00 -3.455744e+00 -3.811817e+00 -1.276783e-01 1.068928e+01 1.350672e+01 1.295610e+01 1.328133e+01 1.304914e+01 1.323722e+01 1.311364e+01 1.324381e+01 1.316451e+01 1.326087e+01 1.320389e+01 1.327703e+01 1.323251e+01 1.328909e+01 1.325116e+01 1.329616e+01 1.326070e+01 1.329800e+01 1.326174e+01 1.329440e+01 1.325440e+01 1.328515e+01 1.323818e+01 1.327027e+01 1.321203e+01 1.325157e+01 1.317423e+01 1.323792e+01 1.312077e+01 1.326068e+01 1.303672e+01 1.339741e+01 1.255538e+01 3.093456e+00 -3.702299e+00 -3.515548e+00 -3.663104e+00 -3.594118e+00 -3.681018e+00 -3.642786e+00 -3.705779e+00 -3.672882e+00 -3.725514e+00 -3.691181e+00 -3.739035e+00 -3.701254e+00 -3.747309e+00 -3.704872e+00 
-3.746935e+00 -3.698106e+00 -3.747817e+00 -3.689496e+00 -3.744957e+00 -3.673187e+00 -3.738250e+00 -3.646635e+00 -3.727250e+00 -3.605417e+00 -3.711461e+00 -3.542772e+00 -3.691561e+00 -3.451487e+00 -3.670448e+00 1.218412e+00 1.188712e+01 1.344744e+01 1.298544e+01 1.332885e+01 1.307183e+01 1.328860e+01 1.313950e+01 1.328809e+01 1.319374e+01 1.330045e+01 1.323556e+01 1.331470e+01 1.326619e+01 1.332647e+01 1.328620e+01 1.333301e+01 1.329529e+01 1.333247e+01 1.329339e+01 1.332451e+01 1.328140e+01 1.331031e+01 1.326065e+01 1.329163e+01 1.323193e+01 1.327089e+01 1.319645e+01 1.325406e+01 1.316008e+01 1.325526e+01 1.314300e+01 1.328893e+01 1.312917e+01 4.427966e+00 -3.457591e+00 -3.597908e+00 -3.583365e+00 -3.616641e+00 -3.648391e+00 -3.645501e+00 -3.689562e+00 -3.669619e+00 -3.715703e+00 -3.686498e+00 -3.732156e+00 -3.696510e+00 -3.742001e+00 -3.700303e+00 
-3.745851e+00 -3.694924e+00 -3.746792e+00 -3.685837e+00 -3.744017e+00 -3.669119e+00 -3.737484e+00 -3.642756e+00 -3.726341e+00 -3.603981e+00 -3.707612e+00 -3.551233e+00 -3.670872e+00 -3.493095e+00 -3.576173e+00 1.953645e+00 1.244745e+01 1.340961e+01 1.300171e+01 1.332254e+01 1.305228e+01 1.327470e+01 1.310873e+01 1.326370e+01 1.315779e+01 1.326863e+01 1.319608e+01 1.327791e+01 1.322404e+01 1.328648e+01 1.324261e+01 1.329206e+01 1.325248e+01 1.329350e+01 1.325408e+01 1.329037e+01 1.324785e+01 1.328273e+01 1.323400e+01 1.327078e+01 1.321297e+01 1.325509e+01 1.318768e+01 1.323737e+01 1.317150e+01 1.321696e+01 1.320812e+01 1.315511e+01 1.340343e+01 5.487505e+00 -3.122519e+00 -3.638322e+00 -3.495010e+00 -3.625517e+00 -3.618169e+00 -3.645216e+00 -3.678384e+00 -3.667274e+00 -3.711161e+00 -3.683891e+00 -3.730005e+00 -3.693871e+00 -3.740678e+00 -3.697485e+00 
-3.744093e+00 -3.694077e+00 -3.745162e+00 -3.684808e+00 -3.742194e+00 -3.667394e+00 -3.734806e+00 -3.639373e+00 -3.721247e+00 -3.597319e+00 -3.695813e+00 -3.539072e+00 -3.639078e+00 -3.474306e+00 -3.481343e+00 2.264980e+00 1.258074e+01 1.334733e+01 1.301121e+01 1.332773e+01 1.307272e+01 1.330082e+01 1.313612e+01 1.329632e+01 1.318972e+01 1.330387e+01 1.323116e+01 1.331483e+01 1.326134e+01 1.332452e+01 1.328099e+01 1.332995e+01 1.329007e+01 1.332923e+01 1.328871e+01 1.332197e+01 1.327784e+01 1.330921e+01 1.325891e+01 1.329247e+01 1.323358e+01 1.327317e+01 1.320617e+01 1.325250e+01 1.319291e+01 1.322544e+01 1.324404e+01 1.313846e+01 1.347663e+01 5.818722e+00 -3.016942e+00 -3.673265e+00 -3.478131e+00 -3.638670e+00 -3.612332e+00 -3.649394e+00 -3.674917e+00 -3.667923e+00 -3.708354e+00 -3.683295e+00 -3.727597e+00 -3.692964e+00 -3.738630e+00 -3.696598e+00 