# vtk DataFile Version 2.0
Comment goes here
ASCII

DATASET STRUCTURED_POINTS
FIELD FieldData 1
TIME 1 1 double
1.13000000
DIMENSIONS    64   64   1

ORIGIN    0.000   0.000   0.000
SPACING   0.015625 0.015625   1.000

POINT_DATA   4096
SCALARS P double
LOOKUP_TABLE default

-4.166033e+00 -4.166649e+00 -4.168480e+00 -4.173424e+00 -4.178501e+00 -4.187917e+00 -4.196137e+00 -4.210126e+00 -4.221427e+00 -4.239999e+00 -4.254343e+00 -4.277362e+00 -4.294688e+00 -4.321790e+00 -4.341929e+00 -4.372423e+00 -4.394988e+00 -4.427764e+00 -4.452036e+00 -4.485544e+00 -4.510435e+00 -4.542792e+00 -4.566950e+00 -4.596208e+00 -4.618264e+00 -4.642741e+00 -4.661591e+00 -4.680046e+00 -4.694931e+00 -4.706467e+00 -4.716744e+00 -4.720679e+00 -4.725794e+00 -4.721885e+00 -4.721538e+00 -4.710124e+00 -4.704271e+00 -4.686182e+00 -4.674931e+00 -4.651209e+00 -4.634740e+00 -4.606565e+00 -4.585437e+00 -4.554396e+00 -4.529782e+00 -4.497721e+00 -4.471254e+00 -4.439913e+00 -4.413308e+00 -4.384046e+00 -4.358778e+00 -4.332488e+00 -4.309649e+00 -4.286824e+00 -4.267124e+00 -4.247989e+00 -4.231828e+00 -4.216479e+00 -4.204026e+00 -4.192521e+00 -4.183796e+00 -4.176210e+00 -4.171138e+00 -4.167582e+00 
-4.170727e+00 -4.171674e+00 -4.174229e+00 -4.179568e+00 -4.185381e+00 -4.195213e+00 -4.204199e+00 -4.218573e+00 -4.230680e+00 -4.249557e+00 -4.264745e+00 -4.287938e+00 -4.306126e+00 -4.333223e+00 -4.354184e+00 -4.384457e+00 -4.407686e+00 -4.439983e+00 -4.464566e+00 -4.497262e+00 -4.521817e+00 -4.552874e+00 -4.575661e+00 -4.602864e+00 -4.622082e+00 -4.643447e+00 -4.657712e+00 -4.671983e+00 -4.680935e+00 -4.688120e+00 -4.692873e+00 -4.694339e+00 -4.696544e+00 -4.693573e+00 -4.693740e+00 -4.686204e+00 -4.683098e+00 -4.669758e+00 -4.661500e+00 -4.641578e+00 -4.627337e+00 -4.601535e+00 -4.581860e+00 -4.551945e+00 -4.528353e+00 -4.496516e+00 -4.470933e+00 -4.439256e+00 -4.413541e+00 -4.383667e+00 -4.359330e+00 -4.332363e+00 -4.310474e+00 -4.287047e+00 -4.268283e+00 -4.248700e+00 -4.233432e+00 -4.217819e+00 -4.206209e+00 -4.194625e+00 -4.186693e+00 -4.179195e+00 -4.174876e+00 -4.171546e+00 
-4.162272e+00 -4.162812e+00 -4.164713e+00 -4.169594e+00 -4.174734e+00 -4.184121e+00 -4.192400e+00 -4.206421e+00 -4.217788e+00 -4.236485e+00 -4.250924e+00 -4.274196e+00 -4.291673e+00 -4.319184e+00 -4.339563e+00 -4.370633e+00 -4.393548e+00 -4.427055e+00 -4.451790e+00 -4.486133e+00 -4.511582e+00 -4.544805e+00 -4.569576e+00 -4.599676e+00 -4.622377e+00 -4.647683e+00 -4.667230e+00 -4.686558e+00 -4.702254e+00 -4.714633e+00 -4.725633e+00 -4.730014e+00 -4.735422e+00 -4.731284e+00 -4.730703e+00 -4.718468e+00 -4.712068e+00 -4.692951e+00 -4.681148e+00 -4.656468e+00 -4.639470e+00 -4.610371e+00 -4.588629e+00 -4.556720e+00 -4.531390e+00 -4.498576e+00 -4.471361e+00 -4.439424e+00 -4.412130e+00 -4.382436e+00 -4.356603e+00 -4.330025e+00 -4.306772e+00 -4.283766e+00 -4.263800e+00 -4.244554e+00 -4.228251e+00 -4.212826e+00 -4.200327e+00 -4.188757e+00 -4.180051e+00 -4.172397e+00 -4.167380e+00 -4.163749e+00 
-4.163105e+00 -4.163938e+00 -4.166616e+00 -4.171873e+00 -4.177797e+00 -4.187619e+00 -4.196712e+00 -4.211203e+00 -4.223442e+00 -4.242622e+00 -4.258022e+00 -4.281766e+00 -4.300317e+00 -4.328270e+00 -4.349827e+00 -4.381295e+00 -4.405417e+00 -4.439250e+00 -4.465048e+00 -4.499567e+00 -4.525618e+00 -4.558666e+00 -4.583103e+00 -4.612279e+00 -4.633049e+00 -4.656069e+00 -4.671320e+00 -4.686428e+00 -4.695248e+00 -4.702095e+00 -4.706119e+00 -4.706985e+00 -4.708981e+00 -4.706016e+00 -4.706888e+00 -4.699756e+00 -4.697520e+00 -4.683931e+00 -4.675578e+00 -4.654227e+00 -4.638944e+00 -4.611128e+00 -4.589897e+00 -4.557907e+00 -4.532595e+00 -4.498917e+00 -4.471694e+00 -4.438542e+00 -4.411419e+00 -4.380470e+00 -4.355026e+00 -4.327344e+00 -4.304662e+00 -4.280797e+00 -4.261524e+00 -4.241688e+00 -4.226148e+00 -4.210383e+00 -4.198679e+00 -4.186981e+00 -4.179076e+00 -4.171469e+00 -4.167246e+00 -4.163799e+00 
-4.150985e+00 -4.151281e+00 -4.153404e+00 -4.158074e+00 -4.163405e+00 -4.172677e+00 -4.181124e+00 -4.195209e+00 -4.206755e+00 -4.225798e+00 -4.240493e+00 -4.264496e+00 -4.282400e+00 -4.311120e+00 -4.332192e+00 -4.365002e+00 -4.388952e+00 -4.424691e+00 -4.450822e+00 -4.487732e+00 -4.514871e+00 -4.550737e+00 -4.577363e+00 -4.609967e+00 -4.634573e+00 -4.662299e+00 -4.683871e+00 -4.705885e+00 -4.724210e+00 -4.739494e+00 -4.753013e+00 -4.759019e+00 -4.765409e+00 -4.760502e+00 -4.759005e+00 -4.743919e+00 -4.735563e+00 -4.713082e+00 -4.699597e+00 -4.672085e+00 -4.653604e+00 -4.621718e+00 -4.598166e+00 -4.563604e+00 -4.536069e+00 -4.500970e+00 -4.471434e+00 -4.437714e+00 -4.408300e+00 -4.377338e+00 -4.349790e+00 -4.322385e+00 -4.297896e+00 -4.274388e+00 -4.253642e+00 -4.234096e+00 -4.217396e+00 -4.201766e+00 -4.189158e+00 -4.177404e+00 -4.168781e+00 -4.160924e+00 -4.156097e+00 -4.152233e+00 
-4.147849e+00 -4.148427e+00 -4.151367e+00 -4.156417e+00 -4.162560e+00 -4.172312e+00 -4.181593e+00 -4.196260e+00 -4.208716e+00 -4.228442e+00 -4.244197e+00 -4.268989e+00 -4.288187e+00 -4.317811e+00 -4.340486e+00 -4.374333e+00 -4.400202e+00 -4.437140e+00 -4.465386e+00 -4.503640e+00 -4.532781e+00 -4.569976e+00 -4.597939e+00 -4.631343e+00 -4.655660e+00 -4.682458e+00 -4.700199e+00 -4.717305e+00 -4.725329e+00 -4.730613e+00 -4.732102e+00 -4.730941e+00 -4.732157e+00 -4.729412e+00 -4.732409e+00 -4.727098e+00 -4.727709e+00 -4.714153e+00 -4.705610e+00 -4.680831e+00 -4.663057e+00 -4.630706e+00 -4.606028e+00 -4.569620e+00 -4.540650e+00 -4.503182e+00 -4.472554e+00 -4.436449e+00 -4.406456e+00 -4.373414e+00 -4.345757e+00 -4.316732e+00 -4.292494e+00 -4.267848e+00 -4.247607e+00 -4.227345e+00 -4.211314e+00 -4.195302e+00 -4.183463e+00 -4.171571e+00 -4.163768e+00 -4.155950e+00 -4.151959e+00 -4.148267e+00 
-4.132179e+00 -4.132024e+00 -4.134542e+00 -4.138792e+00 -4.144442e+00 -4.153435e+00 -4.162127e+00 -4.176218e+00 -4.187996e+00 -4.207503e+00 -4.222532e+00 -4.247651e+00 -4.266156e+00 -4.296832e+00 -4.318964e+00 -4.354695e+00 -4.380325e+00 -4.419925e+00 -4.448412e+00 -4.489832e+00 -4.519884e+00 -4.560341e+00 -4.590136e+00 -4.626822e+00 -4.654489e+00 -4.685851e+00 -4.710266e+00 -4.736810e+00 -4.760303e+00 -4.782071e+00 -4.801359e+00 -4.811322e+00 -4.819768e+00 -4.813241e+00 -4.809271e+00 -4.787714e+00 -4.774665e+00 -4.745433e+00 -4.729214e+00 -4.697483e+00 -4.677109e+00 -4.640509e+00 -4.614045e+00 -4.574852e+00 -4.543385e+00 -4.504384e+00 -4.470676e+00 -4.434013e+00 -4.400873e+00 -4.367904e+00 -4.337436e+00 -4.308794e+00 -4.282273e+00 -4.258066e+00 -4.236100e+00 -4.216165e+00 -4.198901e+00 -4.183006e+00 -4.170315e+00 -4.158295e+00 -4.149898e+00 -4.141707e+00 -4.137268e+00 -4.132995e+00 
-4.124973e+00 -4.125097e+00 -4.128465e+00 -4.133103e+00 -4.139566e+00 -4.149085e+00 -4.158586e+00 -4.173372e+00 -4.186027e+00 -4.206422e+00 -4.222523e+00 -4.248744e+00 -4.268692e+00 -4.300711e+00 -4.324856e+00 -4.362230e+00 -4.390593e+00 -4.432258e+00 -4.464196e+00 -4.508271e+00 -4.542247e+00 -4.586028e+00 -4.619774e+00 -4.660155e+00 -4.691046e+00 -4.725012e+00 -4.748877e+00 -4.770821e+00 -4.775785e+00 -4.775221e+00 -4.768996e+00 -4.761825e+00 -4.760621e+00 -4.758924e+00 -4.767543e+00 -4.768745e+00 -4.777890e+00 -4.766355e+00 -4.756873e+00 -4.724384e+00 -4.701366e+00 -4.660778e+00 -4.630051e+00 -4.586408e+00 -4.551418e+00 -4.508062e+00 -4.472030e+00 -4.431516e+00 -4.397110e+00 -4.361097e+00 -4.330140e+00 -4.299348e+00 -4.272871e+00 -4.247308e+00 -4.225743e+00 -4.205055e+00 -4.188430e+00 -4.172192e+00 -4.160288e+00 -4.148183e+00 -4.140655e+00 -4.132538e+00 -4.128996e+00 -4.124905e+00 
-4.105923e+00 -4.105038e+00 -4.108169e+00 -4.111688e+00 -4.117783e+00 -4.126200e+00 -4.135166e+00 -4.149042e+00 -4.160999e+00 -4.180905e+00 -4.196186e+00 -4.222623e+00 -4.241715e+00 -4.274960e+00 -4.298343e+00 -4.338183e+00 -4.366045e+00 -4.411378e+00 -4.443243e+00 -4.491625e+00 -4.526037e+00 -4.573559e+00 -4.608133e+00 -4.650348e+00 -4.682265e+00 -4.717055e+00 -4.742522e+00 -4.774351e+00 -4.807302e+00 -4.843689e+00 -4.876383e+00 -4.895771e+00 -4.908214e+00 -4.898477e+00 -4.888124e+00 -4.851851e+00 -4.827147e+00 -4.784933e+00 -4.766042e+00 -4.731752e+00 -4.710973e+00 -4.667219e+00 -4.636801e+00 -4.590431e+00 -4.552589e+00 -4.507911e+00 -4.467558e+00 -4.426875e+00 -4.388094e+00 -4.352582e+00 -4.317927e+00 -4.287881e+00 -4.258619e+00 -4.233746e+00 -4.210269e+00 -4.190035e+00 -4.172210e+00 -4.156104e+00 -4.143516e+00 -4.131199e+00 -4.123311e+00 -4.114663e+00 -4.110920e+00 -4.106024e+00 
-4.094586e+00 -4.093963e+00 -4.097979e+00 -4.101869e+00 -4.108753e+00 -4.117716e+00 -4.127398e+00 -4.142060e+00 -4.154744e+00 -4.175728e+00 -4.191924e+00 -4.219753e+00 -4.240240e+00 -4.275205e+00 -4.300856e+00 -4.342811e+00 -4.374212e+00 -4.422291e+00 -4.459160e+00 -4.511406e+00 -4.552089e+00 -4.605210e+00 -4.647074e+00 -4.697324e+00 -4.738957e+00 -4.785851e+00 -4.827967e+00 -4.865573e+00 -4.860411e+00 -4.839233e+00 -4.810502e+00 -4.786605e+00 -4.778895e+00 -4.780546e+00 -4.803018e+00 -4.824991e+00 -4.860644e+00 -4.858596e+00 -4.842567e+00 -4.789064e+00 -4.754659e+00 -4.700688e+00 -4.660525e+00 -4.606571e+00 -4.562677e+00 -4.511287e+00 -4.467545e+00 -4.421269e+00 -4.380834e+00 -4.341247e+00 -4.305980e+00 -4.273364e+00 -4.244115e+00 -4.217857e+00 -4.194796e+00 -4.173960e+00 -4.156823e+00 -4.140562e+00 -4.128841e+00 -4.116586e+00 -4.109664e+00 -4.101169e+00 -4.098420e+00 -4.093726e+00 
-4.072433e+00 -4.070430e+00 -4.074464e+00 -4.076792e+00 -4.083471e+00 -4.090823e+00 -4.100030e+00 -4.113226e+00 -4.125158e+00 -4.145107e+00 -4.160309e+00 -4.187945e+00 -4.207286e+00 -4.243422e+00 -4.267923e+00 -4.312958e+00 -4.343414e+00 -4.396704e+00 -4.433071e+00 -4.491909e+00 -4.532571e+00 -4.591114e+00 -4.632808e+00 -4.682330e+00 -4.721993e+00 -4.755642e+00 -4.768461e+00 -4.798817e+00 -4.850066e+00 -4.923940e+00 -4.991247e+00 -5.033263e+00 -5.052796e+00 -5.037056e+00 -5.011119e+00 -4.938418e+00 -4.880691e+00 -4.810424e+00 -4.795499e+00 -4.775416e+00 -4.761867e+00 -4.704353e+00 -4.668077e+00 -4.610729e+00 -4.562102e+00 -4.509972e+00 -4.459334e+00 -4.413811e+00 -4.367075e+00 -4.328860e+00 -4.288781e+00 -4.257581e+00 -4.225080e+00 -4.199939e+00 -4.174935e+00 -4.154758e+00 -4.136646e+00 -4.120542e+00 -4.108486e+00 -4.095912e+00 -4.089020e+00 -4.079782e+00 -4.077209e+00 -4.071416e+00 
-4.056991e+00 -4.055190e+00 -4.060161e+00 -4.062782e+00 -4.070207e+00 -4.078064e+00 -4.087815e+00 -4.101848e+00 -4.114187e+00 -4.135388e+00 -4.151065e+00 -4.180378e+00 -4.200680e+00 -4.238855e+00 -4.265485e+00 -4.312871e+00 -4.347462e+00 -4.403668e+00 -4.446725e+00 -4.509917e+00 -4.559293e+00 -4.624827e+00 -4.675543e+00 -4.735717e+00 -4.787048e+00 -4.852856e+00 -4.960999e+00 -5.062345e+00 -5.021837e+00 -4.924734e+00 -4.831799e+00 -4.766539e+00 -4.745302e+00 -4.754717e+00 -4.805053e+00 -4.888736e+00 -5.014604e+00 -5.050673e+00 -4.995552e+00 -4.869586e+00 -4.810962e+00 -4.743413e+00 -4.692213e+00 -4.626196e+00 -4.570253e+00 -4.509027e+00 -4.455004e+00 -4.401847e+00 -4.353807e+00 -4.310524e+00 -4.270138e+00 -4.236267e+00 -4.203972e+00 -4.177813e+00 -4.153358e+00 -4.133063e+00 -4.115772e+00 -4.099921e+00 -4.088885e+00 -4.076635e+00 -4.070872e+00 -4.061908e+00 -4.060482e+00 -4.054896e+00 
-4.032175e+00 -4.028530e+00 -4.033859e+00 -4.034345e+00 -4.041783e+00 -4.047330e+00 -4.056683e+00 -4.068416e+00 -4.079918e+00 -4.099145e+00 -4.113573e+00 -4.141767e+00 -4.160497e+00 -4.199258e+00 -4.224147e+00 -4.275000e+00 -4.307940e+00 -4.371574e+00 -4.413517e+00 -4.487833e+00 -4.536928e+00 -4.613897e+00 -4.664443e+00 -4.727206e+00 -4.798250e+00 -4.817209e+00 -4.751062e+00 -4.734313e+00 -4.826823e+00 -5.014839e+00 -5.182301e+00 -5.274809e+00 -5.300398e+00 -5.277550e+00 -5.220980e+00 -5.050642e+00 -4.884872e+00 -4.737415e+00 -4.763920e+00 -4.844767e+00 -4.864538e+00 -4.757749e+00 -4.706332e+00 -4.634604e+00 -4.566287e+00 -4.506568e+00 -4.440690e+00 -4.390288e+00 -4.333250e+00 -4.292833e+00 -4.246464e+00 -4.215016e+00 -4.179245e+00 -4.154778e+00 -4.128679e+00 -4.109276e+00 -4.091554e+00 -4.075854e+00 -4.065102e+00 -4.052367e+00 -4.047235e+00 -4.037248e+00 -4.036534e+00 -4.029477e+00 
-4.012810e+00 -4.009205e+00 -4.015575e+00 -4.016157e+00 -4.024310e+00 -4.030209e+00 -4.039871e+00 -4.052415e+00 -4.063808e+00 -4.084460e+00 -4.098514e+00 -4.128754e+00 -4.147345e+00 -4.188525e+00 -4.214576e+00 -4.267745e+00 -4.304792e+00 -4.370430e+00 -4.420886e+00 -4.498150e+00 -4.559163e+00 -4.642209e+00 -4.700280e+00 -4.758525e+00 -4.763684e+00 -4.823809e+00 -5.211027e+00 -5.603550e+00 -5.405084e+00 -4.917546e+00 -4.362808e+00 -3.807214e+00 -3.562493e+00 -3.706689e+00 -4.142524e+00 -4.750354e+00 -5.363280e+00 -5.585410e+00 -5.315665e+00 -4.886814e+00 -4.789068e+00 -4.765397e+00 -4.716694e+00 -4.638282e+00 -4.566366e+00 -4.494322e+00 -4.427707e+00 -4.367007e+00 -4.310362e+00 -4.264181e+00 -4.218334e+00 -4.184869e+00 -4.149652e+00 -4.125270e+00 -4.099915e+00 -4.081397e+00 -4.064691e+00 -4.049942e+00 -4.040442e+00 -4.028414e+00 -4.024662e+00 -4.015076e+00 -4.015745e+00 -4.008844e+00 
-3.985992e+00 -3.979997e+00 -3.987165e+00 -3.984929e+00 -3.993380e+00 -3.996091e+00 -4.005461e+00 -4.014565e+00 -4.025019e+00 -4.042234e+00 -4.054708e+00 -4.082070e+00 -4.098524e+00 -4.138543e+00 -4.161994e+00 -4.217861e+00 -4.251916e+00 -4.327027e+00 -4.374702e+00 -4.469654e+00 -4.529211e+00 -4.636750e+00 -4.675064e+00 -4.783399e+00 -5.047586e+00 -4.972658e+00 -3.557332e+00 -1.605383e+00 1.044890e+00 4.153348e+00 6.239784e+00 7.702783e+00 8.200746e+00 7.931862e+00 6.860306e+00 4.852707e+00 2.041516e+00 -6.879745e-01 -3.143559e+00 -4.926441e+00 -5.212890e+00 -4.835673e+00 -4.710865e+00 -4.650340e+00 -4.547121e+00 -4.486011e+00 -4.401548e+00 -4.347591e+00 -4.279627e+00 -4.238608e+00 -4.186222e+00 -4.156496e+00 -4.118245e+00 -4.096181e+00 -4.070083e+00 -4.052622e+00 -4.036513e+00 -4.021801e+00 -4.013569e+00 -4.000783e+00 -3.998528e+00 -3.987553e+00 -3.989659e+00 -3.980840e+00 
-3.963093e+00 -3.956808e+00 -3.965220e+00 -3.962684e+00 -3.971894e+00 -3.974597e+00 -3.984053e+00 -3.993787e+00 -4.003462e+00 -4.022272e+00 -4.033034e+00 -4.063072e+00 -4.077244e+00 -4.120544e+00 -4.142506e+00 -4.200699e+00 -4.236974e+00 -4.311078e+00 -4.368679e+00 -4.460715e+00 -4.540495e+00 -4.662811e+00 -4.775426e+00 -4.715282e+00 -3.427923e+00 2.266853e-01 5.572598e+00 9.598078e+00 1.193536e+01 1.372698e+01 1.437624e+01 1.466175e+01 1.469391e+01 1.468496e+01 1.451146e+01 1.394844e+01 1.262604e+01 1.037160e+01 6.446443e+00 1.506898e+00 -2.433692e+00 -4.490038e+00 -4.792370e+00 -4.645755e+00 -4.535857e+00 -4.452834e+00 -4.373878e+00 -4.305775e+00 -4.241784e+00 -4.195566e+00 -4.144847e+00 -4.115473e+00 -4.077975e+00 -4.058390e+00 -4.033130e+00 -4.018281e+00 -4.003413e+00 -3.990656e+00 -3.984013e+00 -3.972382e+00 -3.971882e+00 -3.961374e+00 -3.965220e+00 -3.956376e+00 
-3.935188e+00 -3.925925e+00 -3.935684e+00 -3.929586e+00 -3.939468e+00 -3.937984e+00 -3.947305e+00 -3.952203e+00 -3.960824e+00 -3.974189e+00 -3.982960e+00 -4.007216e+00 -4.018583e+00 -4.056800e+00 -4.075117e+00 -4.132018e+00 -4.162773e+00 -4.245844e+00 -4.296248e+00 -4.411754e+00 -4.505482e+00 -4.624076e+00 -4.137135e+00 -5.689161e-01 4.917084e+00 9.801498e+00 1.310672e+01 1.432387e+01 1.440825e+01 1.422411e+01 1.404165e+01 1.393023e+01 1.389170e+01 1.390793e+01 1.401125e+01 1.414561e+01 1.439370e+01 1.429328e+01 1.355296e+01 1.120908e+01 6.742912e+00 8.459226e-01 -3.548617e+00 -4.557103e+00 -4.490813e+00 -4.424505e+00 -4.329758e+00 -4.271260e+00 -4.196503e+00 -4.158277e+00 -4.102087e+00 -4.077896e+00 -4.039049e+00 -4.022242e+00 -3.998080e+00 -3.984207e+00 -3.971632e+00 -3.958582e+00 -3.954639e+00 -3.941826e+00 -3.943981e+00 -3.931625e+00 -3.937826e+00 -3.926562e+00 
-3.909397e+00 -3.899257e+00 -3.910618e+00 -3.903514e+00 -3.914378e+00 -3.912167e+00 -3.921524e+00 -3.926528e+00 -3.933751e+00 -3.948749e+00 -3.954094e+00 -3.982125e+00 -3.987703e+00 -4.031567e+00 -4.042684e+00 -4.103892e+00 -4.130319e+00 -4.206979e+00 -4.265268e+00 -4.353664e+00 -4.418369e+00 -3.331702e+00 1.256192e+00 8.151682e+00 1.273797e+01 1.391388e+01 1.385076e+01 1.375676e+01 1.374456e+01 1.389904e+01 1.402994e+01 1.415447e+01 1.417681e+01 1.416392e+01 1.407710e+01 1.391667e+01 1.378871e+01 1.370837e+01 1.386471e+01 1.397163e+01 1.314832e+01 9.564485e+00 3.231846e+00 -2.239014e+00 -4.309132e+00 -4.352009e+00 -4.279253e+00 -4.201442e+00 -4.135581e+00 -4.096815e+00 -4.042494e+00 -4.024651e+00 -3.985838e+00 -3.975917e+00 -3.952369e+00 -3.943624e+00 -3.932581e+00 -3.922649e+00 -3.920822e+00 -3.909513e+00 -3.913992e+00 -3.901985e+00 -3.910448e+00 -3.898759e+00 
-3.881566e+00 -3.867886e+00 -3.881254e+00 -3.869875e+00 -3.881896e+00 -3.874510e+00 -3.883977e+00 -3.882691e+00 -3.888736e+00 -3.895996e+00 -3.898785e+00 -3.917081e+00 -3.919155e+00 -3.950820e+00 -3.958082e+00 -4.007271e+00 -4.025414e+00 -4.107192e+00 -4.134443e+00 -4.252073e+00 -2.829849e+00 2.563474e+00 9.464012e+00 1.302611e+01 1.367552e+01 1.362344e+01 1.365558e+01 1.386965e+01 1.389858e+01 1.391723e+01 1.387225e+01 1.385703e+01 1.383790e+01 1.384590e+01 1.386667e+01 1.388762e+01 1.390518e+01 1.384923e+01 1.368948e+01 1.358808e+01 1.360825e+01 1.337207e+01 1.112218e+01 4.760003e+00 -1.863185e+00 -4.164632e+00 -4.222301e+00 -4.148387e+00 -4.071176e+00 -4.044585e+00 -3.987314e+00 -3.975843e+00 -3.939118e+00 -3.931867e+00 -3.912524e+00 -3.904183e+00 -3.897937e+00 -3.887042e+00 -3.889830e+00 -3.876727e+00 -3.885293e+00 -3.870902e+00 -3.882801e+00 -3.868183e+00 
-3.853777e+00 -3.838300e+00 -3.853832e+00 -3.840315e+00 -3.853843e+00 -3.844426e+00 -3.854323e+00 -3.851873e+00 -3.856431e+00 -3.864687e+00 -3.862611e+00 -3.886005e+00 -3.877794e+00 -3.920633e+00 -3.910717e+00 -3.975708e+00 -3.974362e+00 -4.056340e+00 -4.103987e+00 -3.143563e+00 2.558497e+00 1.020936e+01 1.332058e+01 1.345077e+01 1.353278e+01 1.364038e+01 1.365151e+01 1.368435e+01 1.369777e+01 1.377547e+01 1.381622e+01 1.388026e+01 1.388233e+01 1.388378e+01 1.383682e+01 1.378067e+01 1.372057e+01 1.367832e+01 1.366162e+01 1.365359e+01 1.352641e+01 1.344773e+01 1.338303e+01 1.141392e+01 4.783396e+00 -1.997773e+00 -4.091551e+00 -4.048990e+00 -3.976023e+00 -3.964513e+00 -3.903960e+00 -3.911227e+00 -3.871488e+00 -3.877863e+00 -3.858600e+00 -3.858205e+00 -3.854157e+00 -3.847201e+00 -3.853054e+00 -3.841385e+00 -3.853148e+00 -3.838631e+00 -3.853518e+00 -3.837764e+00 
-3.827370e+00 -3.807912e+00 -3.826208e+00 -3.807843e+00 -3.823184e+00 -3.807778e+00 -3.818224e+00 -3.808311e+00 -3.811581e+00 -3.810310e+00 -3.804603e+00 -3.814751e+00 -3.801669e+00 -3.822559e+00 -3.812801e+00 -3.838774e+00 -3.846398e+00 -3.918904e+00 -3.412780e+00 1.281312e+00 9.212010e+00 1.312066e+01 1.338465e+01 1.341010e+01 1.350895e+01 1.353417e+01 1.357851e+01 1.366366e+01 1.368277e+01 1.372633e+01 1.371463e+01 1.373308e+01 1.371730e+01 1.372867e+01 1.371533e+01 1.371616e+01 1.368780e+01 1.365732e+01 1.358388e+01 1.353487e+01 1.348399e+01 1.344564e+01 1.334358e+01 1.330157e+01 1.109676e+01 3.752531e+00 -2.751462e+00 -4.027470e+00 -3.878555e+00 -3.895575e+00 -3.837005e+00 -3.849389e+00 -3.817968e+00 -3.825512e+00 -3.815105e+00 -3.813743e+00 -3.817852e+00 -3.808822e+00 -3.821623e+00 -3.807366e+00 -3.824820e+00 -3.807370e+00 -3.826838e+00 -3.807724e+00 
-3.798682e+00 -3.776180e+00 -3.797384e+00 -3.775273e+00 -3.793031e+00 -3.773468e+00 -3.785505e+00 -3.771768e+00 -3.774809e+00 -3.771839e+00 -3.761752e+00 -3.776289e+00 -3.749932e+00 -3.789223e+00 -3.748261e+00 -3.822842e+00 -3.755516e+00 -3.900427e+00 -4.596379e-01 7.721078e+00 1.280540e+01 1.328603e+01 1.338055e+01 1.339306e+01 1.344952e+01 1.350857e+01 1.353250e+01 1.358472e+01 1.359755e+01 1.365524e+01 1.366487e+01 1.370952e+01 1.369856e+01 1.371116e+01 1.367542e+01 1.365815e+01 1.361121e+01 1.358542e+01 1.354161e+01 1.350998e+01 1.344981e+01 1.338142e+01 1.336843e+01 1.324520e+01 1.320180e+01 9.764219e+00 1.400832e+00 -3.534557e+00 -3.756329e+00 -3.802128e+00 -3.726109e+00 -3.777844e+00 -3.737288e+00 -3.765749e+00 -3.755887e+00 -3.763704e+00 -3.772021e+00 -3.766354e+00 -3.784002e+00 -3.770234e+00 -3.792164e+00 -3.773605e+00 -3.796970e+00 -3.775670e+00 
-3.775134e+00 -3.748441e+00 -3.773233e+00 -3.745938e+00 -3.766437e+00 -3.740336e+00 -3.753854e+00 -3.731977e+00 -3.734016e+00 -3.721317e+00 -3.705335e+00 -3.708154e+00 -3.669328e+00 -3.685570e+00 -3.645525e+00 -3.608103e+00 -3.742555e+00 -2.624361e+00 4.403487e+00 1.158596e+01 1.317032e+01 1.316429e+01 1.328561e+01 1.332181e+01 1.339337e+01 1.344179e+01 1.347736e+01 1.353917e+01 1.355049e+01 1.359851e+01 1.358972e+01 1.362128e+01 1.360145e+01 1.362001e+01 1.359216e+01 1.359644e+01 1.355592e+01 1.354103e+01 1.348420e+01 1.345308e+01 1.339831e+01 1.335435e+01 1.330382e+01 1.323211e+01 1.324209e+01 1.266837e+01 7.088562e+00 -9.837644e-01 -3.825281e+00 -3.666247e+00 -3.664920e+00 -3.700413e+00 -3.679678e+00 -3.705922e+00 -3.710764e+00 -3.715331e+00 -3.735792e+00 -3.726480e+00 -3.753579e+00 -3.736351e+00 -3.765506e+00 -3.743587e+00 -3.772554e+00 -3.747668e+00 
-3.746787e+00 -3.715636e+00 -3.744109e+00 -3.711124e+00 -3.735245e+00 -3.702038e+00 -3.719220e+00 -3.688941e+00 -3.694205e+00 -3.673039e+00 -3.657790e+00 -3.656447e+00 -3.610517e+00 -3.636850e+00 -3.577446e+00 -3.564339e+00 -3.667708e+00 7.757701e-01 9.537478e+00 1.310213e+01 1.306948e+01 1.321300e+01 1.324431e+01 1.331655e+01 1.335085e+01 1.341767e+01 1.343511e+01 1.349604e+01 1.350024e+01 1.355541e+01 1.354919e+01 1.359136e+01 1.357063e+01 1.359264e+01 1.355637e+01 1.355854e+01 1.351159e+01 1.349990e+01 1.344736e+01 1.342205e+01 1.336303e+01 1.331785e+01 1.325992e+01 1.320857e+01 1.310415e+01 1.314565e+01 1.117876e+01 3.129316e+00 -3.234974e+00 -3.646038e+00 -3.508120e+00 -3.632093e+00 -3.594204e+00 -3.641779e+00 -3.653547e+00 -3.662628e+00 -3.692453e+00 -3.683099e+00 -3.717984e+00 -3.699115e+00 -3.734321e+00 -3.709835e+00 -3.743606e+00 -3.715279e+00 
-3.727487e+00 -3.692304e+00 -3.725153e+00 -3.686960e+00 -3.715124e+00 -3.674981e+00 -3.695719e+00 -3.656488e+00 -3.663367e+00 -3.632638e+00 -3.610930e+00 -3.608956e+00 -3.523146e+00 -3.603395e+00 -3.360105e+00 -3.663992e+00 -2.465822e+00 4.723951e+00 1.207572e+01 1.310633e+01 1.298999e+01 1.315176e+01 1.317848e+01 1.326677e+01 1.330022e+01 1.337232e+01 1.338866e+01 1.345466e+01 1.345355e+01 1.350779e+01 1.349184e+01 1.353229e+01 1.350509e+01 1.353225e+01 1.349512e+01 1.350862e+01 1.346053e+01 1.345893e+01 1.340028e+01 1.338296e+01 1.332072e+01 1.328452e+01 1.322573e+01 1.315905e+01 1.311537e+01 1.300313e+01 1.285810e+01 7.554657e+00 -9.150150e-01 -3.763058e+00 -3.323420e+00 -3.579770e+00 -3.523293e+00 -3.580246e+00 -3.609798e+00 -3.612649e+00 -3.658832e+00 -3.643751e+00 -3.690268e+00 -3.667224e+00 -3.710678e+00 -3.682770e+00 -3.722726e+00 -3.690977e+00 
-3.700796e+00 -3.659945e+00 -3.696936e+00 -3.651252e+00 -3.684115e+00 -3.633715e+00 -3.660625e+00 -3.607085e+00 -3.622681e+00 -3.572410e+00 -3.561918e+00 -3.537723e+00 -3.455050e+00 -3.537088e+00 -3.210350e+00 -3.703269e+00 -5.395125e-02 8.639874e+00 1.302957e+01 1.283581e+01 1.307589e+01 1.309091e+01 1.317473e+01 1.324137e+01 1.327352e+01 1.334856e+01 1.335602e+01 1.342560e+01 1.341841e+01 1.347816e+01 1.345990e+01 1.350652e+01 1.347685e+01 1.350799e+01 1.346656e+01 1.348246e+01 1.343058e+01 1.343287e+01 1.337254e+01 1.335982e+01 1.329432e+01 1.325836e+01 1.320217e+01 1.311737e+01 1.312048e+01 1.287605e+01 1.318230e+01 1.083875e+01 2.208602e+00 -3.492966e+00 -3.269459e+00 -3.463072e+00 -3.476051e+00 -3.504298e+00 -3.568545e+00 -3.558841e+00 -3.623645e+00 -3.602174e+00 -3.659713e+00 -3.632293e+00 -3.682974e+00 -3.651025e+00 -3.696246e+00 -3.659956e+00 
-3.686949e+00 -3.642772e+00 -3.684623e+00 -3.634211e+00 -3.672537e+00 -3.614993e+00 -3.648950e+00 -3.584122e+00 -3.610163e+00 -3.541060e+00 -3.549202e+00 -3.490501e+00 -3.451093e+00 -3.457044e+00 -3.261858e+00 -3.458842e+00 2.735773e+00 1.108822e+01 1.311818e+01 1.278321e+01 1.305236e+01 1.306803e+01 1.313975e+01 1.322084e+01 1.323935e+01 1.332446e+01 1.332161e+01 1.339751e+01 1.338149e+01 1.344418e+01 1.341765e+01 1.346663e+01 1.343069e+01 1.346684e+01 1.342129e+01 1.344535e+01 1.338909e+01 1.340127e+01 1.333383e+01 1.333372e+01 1.325743e+01 1.324141e+01 1.316422e+01 1.311709e+01 1.307108e+01 1.293517e+01 1.305243e+01 1.242851e+01 5.544470e+00 -2.497854e+00 -3.412324e+00 -3.279029e+00 -3.479644e+00 -3.420562e+00 -3.543569e+00 -3.508009e+00 -3.596744e+00 -3.566289e+00 -3.636380e+00 -3.604890e+00 -3.663568e+00 -3.628915e+00 -3.680048e+00 -3.641113e+00 
-3.663262e+00 -3.612897e+00 -3.658600e+00 -3.599813e+00 -3.642983e+00 -3.573260e+00 -3.614845e+00 -3.530947e+00 -3.571522e+00 -3.469454e+00 -3.510788e+00 -3.385701e+00 -3.438112e+00 -3.276837e+00 -3.388064e+00 -2.728099e+00 5.957856e+00 1.269319e+01 1.295223e+01 1.290093e+01 1.300393e+01 1.307836e+01 1.310914e+01 1.321007e+01 1.321109e+01 1.330721e+01 1.329424e+01 1.337708e+01 1.335530e+01 1.342354e+01 1.339399e+01 1.344779e+01 1.340954e+01 1.344954e+01 1.340130e+01 1.342895e+01 1.336965e+01 1.338692e+01 1.331528e+01 1.332364e+01 1.323784e+01 1.323842e+01 1.313603e+01 1.313328e+01 1.300452e+01 1.302450e+01 1.280904e+01 1.299986e+01 8.476203e+00 -9.571497e-01 -3.483638e+00 -3.139584e+00 -3.471231e+00 -3.351337e+00 -3.518991e+00 -3.463132e+00 -3.571276e+00 -3.532045e+00 -3.612595e+00 -3.575682e+00 -3.640957e+00 -3.601647e+00 -3.657494e+00 -3.613553e+00 
-3.655788e+00 -3.603518e+00 -3.653812e+00 -3.591765e+00 -3.640810e+00 -3.565402e+00 -3.615694e+00 -3.521504e+00 -3.576792e+00 -3.454879e+00 -3.524419e+00 -3.357010e+00 -3.471061e+00 -3.205530e+00 -3.471819e+00 -1.867137e+00 7.988913e+00 1.315588e+01 1.285274e+01 1.304875e+01 1.297668e+01 1.312964e+01 1.309220e+01 1.322465e+01 1.319351e+01 1.330422e+01 1.327364e+01 1.336396e+01 1.333096e+01 1.340336e+01 1.336565e+01 1.342277e+01 1.337835e+01 1.342271e+01 1.336945e+01 1.340336e+01 1.333872e+01 1.336453e+01 1.328546e+01 1.330629e+01 1.320853e+01 1.323016e+01 1.310492e+01 1.314380e+01 1.296473e+01 1.308350e+01 1.274384e+01 1.320724e+01 1.063245e+01 7.039373e-01 -3.479510e+00 -3.124673e+00 -3.438946e+00 -3.314559e+00 -3.487547e+00 -3.430352e+00 -3.546085e+00 -3.506375e+00 -3.593415e+00 -3.556072e+00 -3.626603e+00 -3.586627e+00 -3.646936e+00 -3.601871e+00 
-3.636483e+00 -3.578522e+00 -3.631359e+00 -3.561671e+00 -3.613898e+00 -3.527475e+00 -3.582716e+00 -3.471755e+00 -3.535724e+00 -3.387272e+00 -3.472307e+00 -3.262544e+00 -3.400727e+00 -3.073446e+00 -3.353099e+00 -5.733954e-01 9.681610e+00 1.315512e+01 1.269876e+01 1.307170e+01 1.290175e+01 1.312886e+01 1.304930e+01 1.321319e+01 1.316407e+01 1.328959e+01 1.325085e+01 1.334910e+01 1.331237e+01 1.338983e+01 1.335048e+01 1.341131e+01 1.336590e+01 1.341323e+01 1.335884e+01 1.339575e+01 1.332949e+01 1.335961e+01 1.327773e+01 1.330591e+01 1.320240e+01 1.323732e+01 1.310095e+01 1.316359e+01 1.296822e+01 1.311926e+01 1.279341e+01 1.321673e+01 1.188681e+01 2.005231e+00 -3.448931e+00 -3.157543e+00 -3.412116e+00 -3.302234e+00 -3.466538e+00 -3.409808e+00 -3.528414e+00 -3.485562e+00 -3.577133e+00 -3.535896e+00 -3.610363e+00 -3.566247e+00 -3.629669e+00 -3.579976e+00 
-3.636009e+00 -3.578150e+00 -3.634403e+00 -3.564017e+00 -3.620961e+00 -3.532527e+00 -3.594931e+00 -3.479705e+00 -3.555103e+00 -3.398995e+00 -3.501840e+00 -3.282008e+00 -3.442868e+00 -3.119370e+00 -3.401890e+00 2.566030e-01 1.083760e+01 1.328036e+01 1.275764e+01 1.317593e+01 1.292531e+01 1.318822e+01 1.305849e+01 1.324176e+01 1.316430e+01 1.329961e+01 1.324451e+01 1.334781e+01 1.330090e+01 1.338129e+01 1.333494e+01 1.339816e+01 1.334749e+01 1.339770e+01 1.333889e+01 1.337976e+01 1.330900e+01 1.334453e+01 1.325715e+01 1.329272e+01 1.318204e+01 1.322645e+01 1.308191e+01 1.315206e+01 1.295676e+01 1.308662e+01 1.281699e+01 1.305861e+01 1.247225e+01 3.168291e+00 -3.196899e+00 -3.170894e+00 -3.321379e+00 -3.290437e+00 -3.425469e+00 -3.393613e+00 -3.505914e+00 -3.471727e+00 -3.563603e+00 -3.525833e+00 -3.602319e+00 -3.559798e+00 -3.625682e+00 -3.576724e+00 
-3.622450e+00 -3.560311e+00 -3.617109e+00 -3.541277e+00 -3.598616e+00 -3.502790e+00 -3.565489e+00 -3.439944e+00 -3.515046e+00 -3.345078e+00 -3.443929e+00 -3.209439e+00 -3.348293e+00 -3.028546e+00 -3.212651e+00 9.053647e-01 1.128453e+01 1.312167e+01 1.267546e+01 1.311774e+01 1.286543e+01 1.315691e+01 1.301995e+01 1.322035e+01 1.313969e+01 1.328415e+01 1.322857e+01 1.333687e+01 1.329071e+01 1.337409e+01 1.332889e+01 1.339405e+01 1.334448e+01 1.339601e+01 1.333802e+01 1.338006e+01 1.330982e+01 1.334704e+01 1.325986e+01 1.329839e+01 1.318779e+01 1.323665e+01 1.309435e+01 1.316673e+01 1.298736e+01 1.309474e+01 1.289926e+01 1.300065e+01 1.286618e+01 4.023898e+00 -3.011530e+00 -3.216653e+00 -3.275275e+00 -3.300275e+00 -3.411718e+00 -3.390464e+00 -3.498596e+00 -3.463930e+00 -3.556512e+00 -3.515833e+00 -3.593776e+00 -3.547873e+00 -3.614963e+00 -3.562337e+00 
-3.629201e+00 -3.569359e+00 -3.627739e+00 -3.554344e+00 -3.614117e+00 -3.521017e+00 -3.587561e+00 -3.465164e+00 -3.546395e+00 -3.380372e+00 -3.488285e+00 -3.260362e+00 -3.407701e+00 -3.105528e+00 -3.270914e+00 1.095988e+00 1.157080e+01 1.320776e+01 1.275845e+01 1.319182e+01 1.291414e+01 1.320533e+01 1.304787e+01 1.324884e+01 1.315450e+01 1.329927e+01 1.323476e+01 1.334317e+01 1.329093e+01 1.337441e+01 1.332481e+01 1.339030e+01 1.333733e+01 1.338966e+01 1.332883e+01 1.337220e+01 1.329924e+01 1.333819e+01 1.324807e+01 1.328845e+01 1.317446e+01 1.322451e+01 1.307880e+01 1.314887e+01 1.296933e+01 1.306071e+01 1.288183e+01 1.292048e+01 1.289907e+01 4.290500e+00 -2.910486e+00 -3.210271e+00 -3.233622e+00 -3.291758e+00 -3.392019e+00 -3.384296e+00 -3.488825e+00 -3.460838e+00 -3.552423e+00 -3.515722e+00 -3.593701e+00 -3.550633e+00 -3.618303e+00 -3.568060e+00 