# vtk DataFile Version 2.0
Comment goes here
ASCII

DATASET STRUCTURED_POINTS
FIELD FieldData 1
TIME 1 1 double
0.40000000
DIMENSIONS    64   64   1

ORIGIN    0.000   0.000   0.000
SPACING   0.015625 0.015625   1.000

POINT_DATA   4096
VECTORS u double

0.000134 -0.000000 0.000000 0.027754 0.000000 0.000000 0.055296 0.000000 0.000000 0.082674 0.000000 0.000000 0.109795 0.000000 0.000000 0.136545 0.000000 0.000000 0.162804 0.000000 0.000000 0.188388 0.000000 0.000000 0.213161 0.000000 0.000000 0.236816 0.000000 0.000000 0.259219 0.000000 0.000000 0.279897 0.000000 0.000000 0.298744 0.000000 0.000000 0.315096 0.000000 0.000000 0.328903 0.000000 0.000000 0.339323 0.000000 0.000000 0.346397 0.000000 0.000000 0.349171 0.000000 0.000000 0.347820 0.000000 0.000000 0.341420 0.000000 0.000000 0.330339 0.000000 0.000000 0.313919 0.000000 0.000000 0.292803 0.000000 0.000000 0.266911 0.000000 0.000000 0.237267 0.000000 0.000000 0.204635 0.000000 0.000000 0.170431 0.000000 0.000000 0.136172 0.000000 0.000000 0.103273 0.000000 0.000000 0.073121 0.000000 0.000000 0.046126 0.000000 0.000000 0.022138 0.000000 0.000000 -0.000098 0.000000 0.000000 -0.022376 0.000000 0.000000 -0.046299 0.000000 0.000000 -0.073319 0.000000 0.000000 -0.103402 0.000000 0.000000 -0.136318 0.000000 0.000000 -0.170526 0.000000 0.000000 -0.204745 0.000000 0.000000 -0.237359 0.000000 0.000000 -0.267007 0.000000 0.000000 -0.292910 0.000000 0.000000 -0.314011 0.000000 0.000000 -0.330455 -0.000000 0.000000 -0.341504 -0.000000 0.000000 -0.347927 -0.000000 0.000000 -0.349233 -0.000000 0.000000 -0.346475 -0.000000 0.000000 -0.339350 -0.000000 0.000000 -0.328934 -0.000000 0.000000 -0.315077 -0.000000 0.000000 -0.298717 -0.000000 0.000000 -0.279825 -0.000000 0.000000 -0.259130 -0.000000 0.000000 -0.236690 -0.000000 0.000000 -0.213014 -0.000000 0.000000 -0.188212 -0.000000 0.000000 -0.162606 -0.000000 0.000000 -0.136327 -0.000000 0.000000 -0.109558 -0.000000 0.000000 -0.082428 -0.000000 0.000000 -0.055035 -0.000000 0.000000 -0.027493 -0.000000 0.000000 
0.000153 -0.027623 0.000000 0.027818 -0.027581 0.000000 0.055404 -0.027460 0.000000 0.082836 -0.027249 0.000000 0.110007 -0.026935 0.000000 0.136825 -0.026505 0.000000 0.163148 -0.025922 0.000000 0.188820 -0.025179 0.000000 0.213671 -0.024214 0.000000 0.237434 -0.023029 0.000000 0.259928 -0.021541 0.000000 0.280729 -0.019763 0.000000 0.299674 -0.017599 0.000000 0.316153 -0.015080 0.000000 0.330055 -0.012114 0.000000 0.340591 -0.008747 0.000000 0.347746 -0.004924 0.000000 0.350604 -0.000711 0.000000 0.349301 0.003875 0.000000 0.342930 0.008740 0.000000 0.331834 0.013751 0.000000 0.315350 0.018768 0.000000 0.294114 0.023504 0.000000 0.268027 0.027768 0.000000 0.238122 0.031138 0.000000 0.205164 0.033418 0.000000 0.170600 0.034232 0.000000 0.135998 0.033579 0.000000 0.102824 0.031526 0.000000 0.072542 0.028574 0.000000 0.045584 0.025491 0.000000 0.021809 0.023112 0.000000 -0.000111 0.022257 0.000000 -0.022076 0.023101 0.000000 -0.045782 0.025472 0.000000 -0.072766 0.028551 0.000000 -0.102974 0.031500 0.000000 -0.136167 0.033562 0.000000 -0.170715 0.034213 0.000000 -0.205294 0.033416 0.000000 -0.238233 0.031131 0.000000 -0.268142 0.027775 0.000000 -0.294240 0.023502 0.000000 -0.315460 0.018773 0.000000 -0.331969 0.013746 0.000000 -0.343028 0.008736 0.000000 -0.349423 0.003865 0.000000 -0.350677 -0.000726 0.000000 -0.347832 -0.004941 0.000000 -0.340622 -0.008770 0.000000 -0.330087 -0.012137 0.000000 -0.316130 -0.015109 0.000000 -0.299640 -0.017626 0.000000 -0.280645 -0.019793 0.000000 -0.259824 -0.021568 0.000000 -0.237288 -0.023058 0.000000 -0.213501 -0.024239 0.000000 -0.188617 -0.025204 0.000000 -0.162920 -0.025942 0.000000 -0.136576 -0.026524 0.000000 -0.109736 -0.026950 0.000000 -0.082553 -0.027261 0.000000 -0.055107 -0.027468 0.000000 -0.027519 -0.027585 0.000000 
0.000139 -0.055337 0.000000 0.027901 -0.055251 0.000000 0.055592 -0.055017 0.000000 0.083137 -0.054603 0.000000 0.110440 -0.053990 0.000000 0.137406 -0.053141 0.000000 0.163904 -0.051995 0.000000 0.189768 -0.050523 0.000000 0.214844 -0.048614 0.000000 0.238840 -0.046257 0.000000 0.261603 -0.043295 0.000000 0.282665 -0.039746 0.000000 0.301902 -0.035424 0.000000 0.318646 -0.030381 0.000000 0.332837 -0.024438 0.000000 0.343614 -0.017690 0.000000 0.351022 -0.010014 0.000000 0.354071 -0.001556 0.000000 0.352952 0.007675 0.000000 0.346680 0.017467 0.000000 0.335645 0.027580 0.000000 0.319102 0.037720 0.000000 0.297713 0.047322 0.000000 0.271313 0.055992 0.000000 0.240942 0.062863 0.000000 0.207361 0.067522 0.000000 0.172033 0.069166 0.000000 0.136647 0.067776 0.000000 0.102738 0.063457 0.000000 0.071994 0.057240 0.000000 0.044888 0.050732 0.000000 0.021358 0.045695 0.000000 -0.000103 0.043886 0.000000 -0.021605 0.045671 0.000000 -0.045066 0.050690 0.000000 -0.072195 0.057191 0.000000 -0.102859 0.063401 0.000000 -0.136787 0.067741 0.000000 -0.172115 0.069127 0.000000 -0.207461 0.067519 0.000000 -0.241026 0.062849 0.000000 -0.271405 0.056007 0.000000 -0.297822 0.047318 0.000000 -0.319195 0.037728 0.000000 -0.335769 0.027568 0.000000 -0.346767 0.017454 0.000000 -0.353067 0.007649 0.000000 -0.354136 -0.001591 0.000000 -0.351105 -0.010055 0.000000 -0.343643 -0.017745 0.000000 -0.332870 -0.024492 0.000000 -0.318627 -0.030448 0.000000 -0.301874 -0.035485 0.000000 -0.282591 -0.039816 0.000000 -0.261511 -0.043357 0.000000 -0.238710 -0.046323 0.000000 -0.214691 -0.048671 0.000000 -0.189586 -0.050580 0.000000 -0.163699 -0.052042 0.000000 -0.137182 -0.053184 0.000000 -0.110196 -0.054022 0.000000 -0.082883 -0.054629 0.000000 -0.055323 -0.055034 0.000000 -0.027632 -0.055260 0.000000 
0.000162 -0.083156 0.000000 0.028100 -0.083034 0.000000 0.055971 -0.082696 0.000000 0.083722 -0.082097 0.000000 0.111243 -0.081204 0.000000 0.138476 -0.079969 0.000000 0.165257 -0.078284 0.000000 0.191467 -0.076119 0.000000 0.216900 -0.073286 0.000000 0.241320 -0.069788 0.000000 0.264504 -0.065365 0.000000 0.286046 -0.060062 0.000000 0.305745 -0.053580 0.000000 0.322993 -0.046014 0.000000 0.337658 -0.037082 0.000000 0.348927 -0.026932 0.000000 0.356794 -0.015381 0.000000 0.360283 -0.002641 0.000000 0.359564 0.011266 0.000000 0.353608 0.026048 0.000000 0.342809 0.041329 0.000000 0.326309 0.056700 0.000000 0.304785 0.071293 0.000000 0.277937 0.084538 0.000000 0.246820 0.095090 0.000000 0.212153 0.102327 0.000000 0.175462 0.104946 0.000000 0.138630 0.102874 0.000000 0.103336 0.096178 0.000000 0.071645 0.086424 0.000000 0.044100 0.076128 0.000000 0.020776 0.068102 0.000000 -0.000123 0.065220 0.000000 -0.021064 0.068064 0.000000 -0.044310 0.076061 0.000000 -0.071875 0.086344 0.000000 -0.103470 0.096092 0.000000 -0.138785 0.102818 0.000000 -0.175549 0.104888 0.000000 -0.212263 0.102327 0.000000 -0.246916 0.095075 0.000000 -0.278044 0.084571 0.000000 -0.304918 0.071293 0.000000 -0.326423 0.056720 0.000000 -0.342960 0.041318 0.000000 -0.353715 0.026034 0.000000 -0.359703 0.011234 0.000000 -0.360364 -0.002688 0.000000 -0.356891 -0.015435 0.000000 -0.348963 -0.027006 0.000000 -0.337694 -0.037153 0.000000 -0.322971 -0.046104 0.000000 -0.305709 -0.053662 0.000000 -0.285958 -0.060157 0.000000 -0.264391 -0.065448 0.000000 -0.241165 -0.069878 0.000000 -0.216717 -0.073363 0.000000 -0.191251 -0.076196 0.000000 -0.165014 -0.078347 0.000000 -0.138212 -0.080027 0.000000 -0.110955 -0.081249 0.000000 -0.083422 -0.082134 0.000000 -0.055655 -0.082719 0.000000 -0.027783 -0.083046 0.000000 
0.000151 -0.111220 0.000000 0.028292 -0.111059 0.000000 0.056377 -0.110639 0.000000 0.084369 -0.109875 0.000000 0.112160 -0.108744 0.000000 0.139707 -0.107155 0.000000 0.166845 -0.104986 0.000000 0.193462 -0.102166 0.000000 0.219351 -0.098466 0.000000 0.244268 -0.093861 0.000000 0.267997 -0.088021 0.000000 0.290102 -0.080988 0.000000 0.310414 -0.072370 0.000000 0.328269 -0.062294 0.000000 0.343600 -0.050372 0.000000 0.355517 -0.036826 0.000000 0.364104 -0.021370 0.000000 0.368284 -0.004326 0.000000 0.368318 0.014350 0.000000 0.363039 0.034222 0.000000 0.352908 0.054879 0.000000 0.336883 0.075744 0.000000 0.315670 0.095694 0.000000 0.288776 0.113957 0.000000 0.257250 0.128648 0.000000 0.221722 0.138880 0.000000 0.183683 0.142689 0.000000 0.145193 0.139902 0.000000 0.107975 0.130441 0.000000 0.074576 0.116476 0.000000 0.045585 0.101602 0.000000 0.021377 0.089918 0.000000 -0.000122 0.085725 0.000000 -0.021657 0.089858 0.000000 -0.045780 0.101500 0.000000 -0.074783 0.116352 0.000000 -0.108070 0.130311 0.000000 -0.145310 0.139820 0.000000 -0.183719 0.142604 0.000000 -0.221790 0.138886 0.000000 -0.257310 0.128630 0.000000 -0.288855 0.114009 0.000000 -0.315790 0.095696 0.000000 -0.336982 0.075771 0.000000 -0.353058 0.054860 0.000000 -0.363138 0.034197 0.000000 -0.368457 0.014298 0.000000 -0.368359 -0.004402 0.000000 -0.364201 -0.021455 0.000000 -0.355551 -0.036942 0.000000 -0.343636 -0.050485 0.000000 -0.328248 -0.062433 0.000000 -0.310380 -0.072498 0.000000 -0.290020 -0.081133 0.000000 -0.267892 -0.088150 0.000000 -0.244124 -0.093998 0.000000 -0.219180 -0.098584 0.000000 -0.193263 -0.102283 0.000000 -0.166618 -0.105081 0.000000 -0.139463 -0.107243 0.000000 -0.111891 -0.108812 0.000000 -0.084092 -0.109930 0.000000 -0.056084 -0.110673 0.000000 -0.027999 -0.111078 0.000000 
0.000181 -0.139448 0.000000 0.028563 -0.139260 0.000000 0.056897 -0.138772 0.000000 0.085177 -0.137880 0.000000 0.113276 -0.136543 0.000000 0.141204 -0.134654 0.000000 0.168745 -0.132039 0.000000 0.195858 -0.128625 0.000000 0.222259 -0.124092 0.000000 0.247784 -0.118434 0.000000 0.272129 -0.111200 0.000000 0.294950 -0.102479 0.000000 0.315984 -0.091747 0.000000 0.334674 -0.079200 0.000000 0.350878 -0.064330 0.000000 0.363807 -0.047436 0.000000 0.373502 -0.028148 0.000000 0.378923 -0.006855 0.000000 0.380328 0.016510 0.000000 0.376443 0.041458 0.000000 0.367757 0.067486 0.000000 0.352946 0.093938 0.000000 0.332753 0.119400 0.000000 0.306321 0.142959 0.000000 0.274690 0.162144 0.000000 0.238264 0.175893 0.000000 0.198532 0.181475 0.000000 0.157750 0.178582 0.000000 0.117680 0.166795 0.000000 0.081497 0.148814 0.000000 0.049776 0.129326 0.000000 0.023351 0.113810 0.000000 -0.000152 0.108254 0.000000 -0.023685 0.113721 0.000000 -0.050008 0.129187 0.000000 -0.081733 0.148634 0.000000 -0.117771 0.166620 0.000000 -0.157871 0.178468 0.000000 -0.198548 0.181367 0.000000 -0.238325 0.175918 0.000000 -0.274751 0.162139 0.000000 -0.306409 0.143051 0.000000 -0.332904 0.119420 0.000000 -0.353069 0.093988 0.000000 -0.367949 0.067474 0.000000 -0.376570 0.041434 0.000000 -0.380505 0.016455 0.000000 -0.379022 -0.006944 0.000000 -0.373622 -0.028243 0.000000 -0.363853 -0.047571 0.000000 -0.350919 -0.064455 0.000000 -0.334649 -0.079360 0.000000 -0.315936 -0.091890 0.000000 -0.294847 -0.102645 0.000000 -0.271995 -0.111344 0.000000 -0.247607 -0.118590 0.000000 -0.222046 -0.124224 0.000000 -0.195613 -0.128758 0.000000 -0.168468 -0.132147 0.000000 -0.140907 -0.134754 0.000000 -0.112952 -0.136620 0.000000 -0.084843 -0.137942 0.000000 -0.056544 -0.138812 0.000000 -0.028211 -0.139281 0.000000 
0.000173 -0.167995 0.000000 0.028774 -0.167775 0.000000 0.057337 -0.167252 0.000000 0.085885 -0.166254 0.000000 0.114278 -0.164771 0.000000 0.142567 -0.162624 0.000000 0.170504 -0.159639 0.000000 0.198090 -0.155680 0.000000 0.225007 -0.150393 0.000000 0.251118 -0.143732 0.000000 0.276112 -0.135187 0.000000 0.299649 -0.124842 0.000000 0.321518 -0.112095 0.000000 0.341145 -0.097188 0.000000 0.358504 -0.079505 0.000000 0.372761 -0.059450 0.000000 0.384111 -0.036485 0.000000 0.391398 -0.011152 0.000000 0.395005 0.016830 0.000000 0.393422 0.046794 0.000000 0.387193 0.078376 0.000000 0.374635 0.110747 0.000000 0.356528 0.142319 0.000000 0.331600 0.172021 0.000000 0.300938 0.196704 0.000000 0.264648 0.215038 0.000000 0.224003 0.223203 0.000000 0.181256 0.220754 0.000000 0.137835 0.206695 0.000000 0.097515 0.184380 0.000000 0.060680 0.159748 0.000000 0.028940 0.139847 0.000000 -0.000159 0.132761 0.000000 -0.029264 0.139714 0.000000 -0.060898 0.159549 0.000000 -0.097722 0.184115 0.000000 -0.137859 0.206449 0.000000 -0.181325 0.220597 0.000000 -0.223930 0.223058 0.000000 -0.264641 0.215088 0.000000 -0.300941 0.196714 0.000000 -0.331648 0.172162 0.000000 -0.356673 0.142356 0.000000 -0.374745 0.110816 0.000000 -0.387400 0.078362 0.000000 -0.393547 0.046752 0.000000 -0.395194 0.016750 0.000000 -0.391496 -0.011284 0.000000 -0.384235 -0.036625 0.000000 -0.372803 -0.059645 0.000000 -0.358542 -0.079689 0.000000 -0.341116 -0.097416 0.000000 -0.321465 -0.112299 0.000000 -0.299547 -0.125075 0.000000 -0.275976 -0.135391 0.000000 -0.250946 -0.143947 0.000000 -0.224799 -0.150577 0.000000 -0.197856 -0.155861 0.000000 -0.170237 -0.159788 0.000000 -0.142284 -0.162759 0.000000 -0.113967 -0.164875 0.000000 -0.085568 -0.166337 0.000000 -0.057000 -0.167305 0.000000 -0.028440 -0.167803 0.000000 
0.000211 -0.196662 0.000000 0.028998 -0.196424 0.000000 0.057754 -0.195883 0.000000 0.086538 -0.194820 0.000000 0.115181 -0.193225 0.000000 0.143800 -0.190880 0.000000 0.172081 -0.187562 0.000000 0.200113 -0.183128 0.000000 0.227488 -0.177121 0.000000 0.254188 -0.169539 0.000000 0.279801 -0.159731 0.000000 0.304154 -0.147885 0.000000 0.326953 -0.133242 0.000000 0.347841 -0.116186 0.000000 0.366739 -0.095946 0.000000 0.383029 -0.073043 0.000000 0.396856 -0.046785 0.000000 0.407146 -0.017749 0.000000 0.414221 0.014486 0.000000 0.416340 0.049270 0.000000 0.414046 0.086272 0.000000 0.405070 0.124602 0.000000 0.390335 0.162435 0.000000 0.367830 0.198550 0.000000 0.338701 0.229095 0.000000 0.302482 0.252828 0.000000 0.260424 0.264867 0.000000 0.214857 0.264751 0.000000 0.166814 0.250536 0.000000 0.120865 0.225969 0.000000 0.076817 0.197902 0.000000 0.037313 0.174648 0.000000 -0.000198 0.166457 0.000000 -0.037689 0.174460 0.000000 -0.077069 0.197645 0.000000 -0.121087 0.225596 0.000000 -0.166787 0.250222 0.000000 -0.214910 0.264538 0.000000 -0.260283 0.264684 0.000000 -0.302430 0.252929 0.000000 -0.338678 0.229145 0.000000 -0.367866 0.198783 0.000000 -0.390517 0.162517 0.000000 -0.405200 0.124714 0.000000 -0.414316 0.086276 0.000000 -0.416509 0.049228 0.000000 -0.414473 0.014405 0.000000 -0.407290 -0.017904 0.000000 -0.397021 -0.046936 0.000000 -0.383095 -0.073264 0.000000 -0.366786 -0.096143 0.000000 -0.347808 -0.116436 0.000000 -0.326880 -0.133459 0.000000 -0.304020 -0.148134 0.000000 -0.279621 -0.159945 0.000000 -0.253965 -0.169767 0.000000 -0.227221 -0.177314 0.000000 -0.199817 -0.183320 0.000000 -0.171746 -0.187719 0.000000 -0.143448 -0.191024 0.000000 -0.114797 -0.193335 0.000000 -0.086148 -0.194909 0.000000 -0.057341 -0.195940 0.000000 -0.028589 -0.196454 0.000000 
0.000206 -0.225581 0.000000 0.029078 -0.225318 0.000000 0.057921 -0.224792 0.000000 0.086837 -0.223681 0.000000 0.115615 -0.222034 0.000000 0.144446 -0.219524 0.000000 0.172944 -0.215953 0.000000 0.201289 -0.211087 0.000000 0.229006 -0.204468 0.000000 0.256175 -0.196044 0.000000 0.282378 -0.185153 0.000000 0.307541 -0.171994 0.000000 0.331479 -0.155782 0.000000 0.353914 -0.136975 0.000000 0.374982 -0.114693 0.000000 0.394053 -0.089567 0.000000 0.411477 -0.060603 0.000000 0.425951 -0.028517 0.000000 0.437832 0.007636 0.000000 0.444896 0.046970 0.000000 0.447591 0.089645 0.000000 0.443051 0.134458 0.000000 0.432304 0.179560 0.000000 0.412713 0.223655 0.000000 0.386030 0.262053 0.000000 0.351357 0.293315 0.000000 0.309622 0.310827 0.000000 0.262677 0.314364 0.000000 0.210308 0.300687 0.000000 0.157603 0.274377 0.000000 0.103228 0.243299 0.000000 0.051378 0.216861 0.000000 -0.000203 0.207763 0.000000 -0.051700 0.216585 0.000000 -0.103445 0.242947 0.000000 -0.157765 0.273833 0.000000 -0.210155 0.300272 0.000000 -0.262668 0.314093 0.000000 -0.309313 0.310579 0.000000 -0.351177 0.293484 0.000000 -0.385895 0.262150 0.000000 -0.412659 0.224000 0.000000 -0.432479 0.179690 0.000000 -0.443149 0.134615 0.000000 -0.447895 0.089670 0.000000 -0.445073 0.046910 0.000000 -0.438117 0.007531 0.000000 -0.426111 -0.028736 0.000000 -0.411657 -0.060820 0.000000 -0.394125 -0.089880 0.000000 -0.375024 -0.114976 0.000000 -0.353874 -0.137322 0.000000 -0.331391 -0.156087 0.000000 -0.307398 -0.172333 0.000000 -0.282185 -0.185446 0.000000 -0.255947 -0.196347 0.000000 -0.228732 -0.204725 0.000000 -0.200994 -0.211336 0.000000 -0.172609 -0.216158 0.000000 -0.144101 -0.219708 0.000000 -0.115237 -0.222175 0.000000 -0.086458 -0.223794 0.000000 -0.057518 -0.224864 0.000000 -0.028681 -0.225355 0.000000 
0.000253 -0.254420 0.000000 0.029077 -0.254139 0.000000 0.057870 -0.253643 0.000000 0.086775 -0.252514 0.000000 0.115532 -0.250834 0.000000 0.144417 -0.248208 0.000000 0.172955 -0.244405 0.000000 0.201458 -0.239190 0.000000 0.229354 -0.232006 0.000000 0.256919 -0.222911 0.000000 0.283670 -0.211097 0.000000 0.309830 -0.196986 0.000000 0.335194 -0.179615 0.000000 0.359874 -0.159690 0.000000 0.383954 -0.136085 0.000000 0.407149 -0.109538 0.000000 0.429558 -0.078682 0.000000 0.449910 -0.044105 0.000000 0.468108 -0.004459 0.000000 0.481446 0.039511 0.000000 0.490238 0.088117 0.000000 0.490668 0.139889 0.000000 0.484487 0.192773 0.000000 0.467945 0.244825 0.000000 0.443212 0.290451 0.000000 0.408295 0.329235 0.000000 0.364727 0.353547 0.000000 0.314484 0.364064 0.000000 0.256318 0.355611 0.000000 0.196429 0.333050 0.000000 0.131130 0.304127 0.000000 0.066389 0.278079 0.000000 -0.000243 0.269535 0.000000 -0.066699 0.277703 0.000000 -0.131353 0.303710 0.000000 -0.196554 0.332306 0.000000 -0.255992 0.355125 0.000000 -0.314457 0.363696 0.000000 -0.364276 0.353193 0.000000 -0.407990 0.329511 0.000000 -0.442980 0.290628 0.000000 -0.467795 0.245367 0.000000 -0.484678 0.193007 0.000000 -0.490741 0.140130 0.000000 -0.490621 0.088200 0.000000 -0.481691 0.039451 0.000000 -0.468500 -0.004558 0.000000 -0.450167 -0.044364 0.000000 -0.429824 -0.078922 0.000000 -0.407285 -0.109897 0.000000 -0.384026 -0.136393 0.000000 -0.359841 -0.160069 0.000000 -0.335080 -0.179935 0.000000 -0.309645 -0.197341 0.000000 -0.283411 -0.211396 0.000000 -0.256618 -0.223220 0.000000 -0.228993 -0.232266 0.000000 -0.201076 -0.239443 0.000000 -0.172527 -0.244613 0.000000 -0.143979 -0.248395 0.000000 -0.115060 -0.250978 0.000000 -0.086302 -0.252629 0.000000 -0.057372 -0.253717 0.000000 -0.028587 -0.254178 0.000000 
0.000250 -0.283245 0.000000 0.028823 -0.282935 0.000000 0.057350 -0.282491 0.000000 0.086035 -0.281344 0.000000 0.114530 -0.279675 0.000000 0.143242 -0.276947 0.000000 0.171568 -0.272994 0.000000 0.200011 -0.267485 0.000000 0.227898 -0.259928 0.000000 0.255754 -0.250360 0.000000 0.283121 -0.238065 0.000000 0.310503 -0.223519 0.000000 0.337898 -0.205826 0.000000 0.365618 -0.185734 0.000000 0.394015 -0.161967 0.000000 0.422660 -0.135171 0.000000 0.451664 -0.103364 0.000000 0.479051 -0.067067 0.000000 0.504316 -0.023899 0.000000 0.523819 0.024839 0.000000 0.537483 0.080423 0.000000 0.541015 0.140209 0.000000 0.536536 0.202283 0.000000 0.519647 0.264930 0.000000 0.495429 0.321702 0.000000 0.461886 0.371800 0.000000 0.420450 0.404638 0.000000 0.371443 0.422773 0.000000 0.310688 0.418742 0.000000 0.244975 0.399565 0.000000 0.167205 0.373340 0.000000 0.086250 0.348234 0.000000 -0.000218 0.340851 0.000000 -0.086337 0.347696 0.000000 -0.167332 0.372802 0.000000 -0.244960 0.398471 0.000000 -0.310120 0.418175 0.000000 -0.371442 0.422378 0.000000 -0.419722 0.404112 0.000000 -0.461341 0.372187 0.000000 -0.494963 0.321955 0.000000 -0.519261 0.265699 0.000000 -0.536696 0.202636 0.000000 -0.540989 0.140558 0.000000 -0.537907 0.080620 0.000000 -0.524078 0.024789 0.000000 -0.504765 -0.023993 0.000000 -0.479360 -0.067413 0.000000 -0.451974 -0.103702 0.000000 -0.422834 -0.135678 0.000000 -0.394099 -0.162419 0.000000 -0.365592 -0.186269 0.000000 -0.337769 -0.206284 0.000000 -0.310306 -0.224002 0.000000 -0.282839 -0.238473 0.000000 -0.255439 -0.250764 0.000000 -0.227519 -0.260267 0.000000 -0.199621 -0.267802 0.000000 -0.171130 -0.273255 0.000000 -0.142803 -0.277174 0.000000 -0.114056 -0.279852 0.000000 -0.085566 -0.281481 0.000000 -0.056856 -0.282580 0.000000 -0.028339 -0.282980 0.000000 
0.000307 -0.311582 0.000000 0.028376 -0.311239 0.000000 0.056382 -0.310855 0.000000 0.084578 -0.309694 0.000000 0.112541 -0.308041 0.000000 0.140796 -0.305246 0.000000 0.168643 -0.301174 0.000000 0.196793 -0.295520 0.000000 0.224513 -0.287749 0.000000 0.252662 -0.278135 0.000000 0.280821 -0.265846 0.000000 0.309973 -0.251763 0.000000 0.340188 -0.234730 0.000000 0.372288 -0.215807 0.000000 0.406376 -0.193127 0.000000 0.442237 -0.167187 0.000000 0.478918 -0.135073 0.000000 0.514109 -0.096756 0.000000 0.545755 -0.049227 0.000000 0.569707 0.006344 0.000000 0.585760 0.070921 0.000000 0.588892 0.140836 0.000000 0.584445 0.214142 0.000000 0.566907 0.285932 0.000000 0.541654 0.348213 0.000000 0.503825 0.404214 0.000000 0.457952 0.443989 0.000000 0.405177 0.473826 0.000000 0.339953 0.482079 0.000000 0.271798 0.476534 0.000000 0.187093 0.462852 0.000000 0.097797 0.445501 0.000000 -0.000241 0.442122 0.000000 -0.097666 0.444816 0.000000 -0.187198 0.462334 0.000000 -0.271593 0.475095 0.000000 -0.338861 0.481607 0.000000 -0.405332 0.473298 0.000000 -0.457126 0.443093 0.000000 -0.503080 0.404752 0.000000 -0.540983 0.348547 0.000000 -0.566230 0.287100 0.000000 -0.584567 0.214735 0.000000 -0.588692 0.141341 0.000000 -0.586235 0.071289 0.000000 -0.570051 0.006309 0.000000 -0.546346 -0.049275 0.000000 -0.514598 -0.097155 0.000000 -0.479384 -0.135448 0.000000 -0.442555 -0.167772 0.000000 -0.406542 -0.193635 0.000000 -0.372307 -0.216399 0.000000 -0.340041 -0.235221 0.000000 -0.309728 -0.252271 0.000000 -0.280450 -0.266263 0.000000 -0.252245 -0.278541 0.000000 -0.224013 -0.288085 0.000000 -0.196281 -0.295832 0.000000 -0.168079 -0.301430 0.000000 -0.140235 -0.305469 0.000000 -0.111945 -0.308215 0.000000 -0.083992 -0.309829 0.000000 -0.055773 -0.310944 0.000000 -0.027779 -0.311284 0.000000 
0.000307 -0.339399 0.000000 0.027560 -0.339010 0.000000 0.054713 -0.338693 0.000000 0.082110 -0.337503 0.000000 0.109181 -0.335893 0.000000 0.136686 -0.333049 0.000000 0.163723 -0.328991 0.000000 0.191391 -0.323355 0.000000 0.218818 -0.315797 0.000000 0.247393 -0.306669 0.000000 0.276751 -0.295376 0.000000 0.308416 -0.282885 0.000000 0.342684 -0.268141 0.000000 0.380522 -0.251923 0.000000 0.422015 -0.231916 0.000000 0.466038 -0.207713 0.000000 0.510839 -0.175237 0.000000 0.552192 -0.133904 0.000000 0.587034 -0.079497 0.000000 0.610168 -0.015165 0.000000 0.621359 0.061238 0.000000 0.617291 0.141524 0.000000 0.603040 0.224268 0.000000 0.571827 0.307721 0.000000 0.539145 0.384784 0.000000 0.502503 0.455502 0.000000 0.465732 0.503286 0.000000 0.423209 0.540771 0.000000 0.363170 0.552121 0.000000 0.297654 0.552425 0.000000 0.206690 0.547341 0.000000 0.109486 0.535568 0.000000 -0.000121 0.536314 0.000000 -0.108651 0.534653 0.000000 -0.206609 0.546729 0.000000 -0.297111 0.550134 0.000000 -0.361589 0.551914 0.000000 -0.423915 0.540642 0.000000 -0.464629 0.501860 0.000000 -0.501483 0.456044 0.000000 -0.538182 0.385105 0.000000 -0.570625 0.309283 0.000000 -0.603190 0.225098 0.000000 -0.616887 0.142226 0.000000 -0.621820 0.061979 0.000000 -0.610472 -0.015100 0.000000 -0.587605 -0.079445 0.000000 -0.552730 -0.134375 0.000000 -0.511346 -0.175745 0.000000 -0.466434 -0.208520 0.000000 -0.422225 -0.232667 0.000000 -0.380591 -0.252770 0.000000 -0.342548 -0.268863 0.000000 -0.308181 -0.283593 0.000000 -0.276363 -0.295956 0.000000 -0.246965 -0.307201 0.000000 -0.218296 -0.316231 0.000000 -0.190865 -0.323737 0.000000 -0.163142 -0.329301 0.000000 -0.136116 -0.333308 0.000000 -0.108577 -0.336095 0.000000 -0.081521 -0.337654 0.000000 -0.054100 -0.338793 0.000000 -0.026963 -0.339060 0.000000 
0.000373 -0.366105 0.000000 0.026442 -0.365644 0.000000 0.052379 -0.365405 0.000000 0.078597 -0.364162 0.000000 0.104428 -0.362616 0.000000 0.130822 -0.359788 0.000000 0.156788 -0.355879 0.000000 0.183773 -0.350615 0.000000 0.210935 -0.343751 0.000000 0.240186 -0.336067 0.000000 0.271359 -0.326869 0.000000 0.306560 -0.317696 0.000000 0.346143 -0.306836 0.000000 0.391269 -0.295138 0.000000 0.440993 -0.278643 0.000000 0.493388 -0.256011 0.000000 0.543764 -0.221227 0.000000 0.587005 -0.172950 0.000000 0.616875 -0.107203 0.000000 0.629906 -0.027982 0.000000 0.626155 0.063799 0.000000 0.603479 0.159155 0.000000 0.579574 0.259605 0.000000 0.547684 0.349827 0.000000 0.515220 0.417537 0.000000 0.468017 0.477628 0.000000 0.420833 0.523283 0.000000 0.371819 0.576387 0.000000 0.310311 0.607634 0.000000 0.255870 0.633014 0.000000 0.175392 0.651020 0.000000 0.094284 0.652313 0.000000 -0.000054 0.660258 0.000000 -0.092624 0.651304 0.000000 -0.175468 0.650794 0.000000 -0.254849 0.630075 0.000000 -0.306979 0.608411 0.000000 -0.373283 0.576338 0.000000 -0.420310 0.520661 0.000000 -0.467086 0.478305 0.000000 -0.514399 0.417689 0.000000 -0.546027 0.352108 0.000000 -0.579739 0.260997 0.000000 -0.602615 0.159971 0.000000 -0.626491 0.064874 0.000000 -0.630273 -0.027906 0.000000 -0.617479 -0.107018 0.000000 -0.587744 -0.173415 0.000000 -0.544456 -0.221744 0.000000 -0.494006 -0.256892 0.000000 -0.441355 -0.279478 0.000000 -0.391442 -0.296076 0.000000 -0.346018 -0.307631 0.000000 -0.306282 -0.318456 0.000000 -0.270864 -0.327479 0.000000 -0.239625 -0.336608 0.000000 -0.210254 -0.344185 0.000000 -0.183086 -0.350986 0.000000 -0.156043 -0.356180 0.000000 -0.130095 -0.360034 0.000000 -0.103674 -0.362810 0.000000 -0.077865 -0.364305 0.000000 -0.051630 -0.365502 0.000000 -0.025711 -0.365692 0.000000 
0.000375 -0.391552 0.000000 0.024854 -0.391017 0.000000 0.049144 -0.390849 0.000000 0.073807 -0.389551 0.000000 0.097959 -0.388118 0.000000 0.122954 -0.385409 0.000000 0.147516 -0.381943 0.000000 0.173789 -0.377502 0.000000 0.200719 -0.372210 0.000000 0.231157 -0.367093 0.000000 0.264885 -0.361750 0.000000 0.304775 -0.357669 0.000000 0.351001 -0.352850 0.000000 0.404228 -0.346773 0.000000 0.462250 -0.334035 0.000000 0.520195 -0.310484 0.000000 0.571058 -0.268854 0.000000 0.606409 -0.207015 0.000000 0.620597 -0.122399 0.000000 0.610952 -0.024445 0.000000 0.581950 0.087666 0.000000 0.541919 0.188105 0.000000 0.495875 0.280063 0.000000 0.426694 0.372075 0.000000 0.375938 0.464450 0.000000 0.346189 0.549889 0.000000 0.335347 0.599485 0.000000 0.314413 0.651294 0.000000 0.267891 0.668070 0.000000 0.220104 0.687343 0.000000 0.144274 0.708926 0.000000 0.077139 0.711014 0.000000 0.000429 0.723222 0.000000 -0.073149 0.710067 0.000000 -0.143173 0.708954 0.000000 -0.219023 0.681645 0.000000 -0.264509 0.670348 0.000000 -0.317362 0.653973 0.000000 -0.333901 0.595663 0.000000 -0.345008 0.550133 0.000000 -0.376554 0.464046 0.000000 -0.424570 0.374623 0.000000 -0.496552 0.281686 0.000000 -0.541102 0.188979 0.000000 -0.582079 0.089636 0.000000 -0.611082 -0.024113 0.000000 -0.620751 -0.121974 0.000000 -0.606953 -0.207398 0.000000 -0.571592 -0.269484 0.000000 -0.520821 -0.311621 0.000000 -0.462654 -0.335232 0.000000 -0.404498 -0.348107 0.000000 -0.350944 -0.354023 0.000000 -0.304563 -0.358747 0.000000 -0.264417 -0.362612 0.000000 -0.230616 -0.367812 0.000000 -0.200033 -0.372770 0.000000 -0.173098 -0.377947 0.000000 -0.146758 -0.382292 0.000000 -0.122218 -0.385677 0.000000 -0.097194 -0.388325 0.000000 -0.073067 -0.389697 0.000000 -0.048389 -0.390947 0.000000 -0.024118 -0.391063 0.000000 
0.000445 -0.415077 0.000000 0.022872 -0.414413 0.000000 0.045072 -0.414358 0.000000 0.067723 -0.412977 0.000000 0.089819 -0.411763 0.000000 0.113033 -0.409345 0.000000 0.136006 -0.406714 0.000000 0.161445 -0.403818 0.000000 0.188397 -0.401119 0.000000 0.220418 -0.400234 0.000000 0.257546 -0.400488 0.000000 0.302967 -0.403812 0.000000 0.356512 -0.406289 0.000000 0.417530 -0.406387 0.000000 0.481027 -0.394610 0.000000 0.538679 -0.364819 0.000000 0.578679 -0.307441 0.000000 0.593139 -0.222489 0.000000 0.574231 -0.111747 0.000000 0.531770 0.010665 0.000000 0.464977 0.132832 0.000000 0.382915 0.245230 0.000000 0.341254 0.374830 0.000000 0.331053 0.469763 0.000000 0.317458 0.498042 0.000000 0.284527 0.518219 0.000000 0.237418 0.555060 0.000000 0.181360 0.643844 0.000000 0.139514 0.701942 0.000000 0.083188 0.756631 0.000000 0.046907 0.793986 0.000000 0.018551 0.796158 0.000000 0.001531 0.810546 0.000000 -0.014546 0.794906 0.000000 -0.041792 0.796668 0.000000 -0.084163 0.751411 0.000000 -0.138444 0.706750 0.000000 -0.183399 0.645730 0.000000 -0.235617 0.548307 0.000000 -0.281379 0.520958 0.000000 -0.322527 0.497251 0.000000 -0.330753 0.472106 0.000000 -0.341565 0.377529 0.000000 -0.381527 0.245498 0.000000 -0.464656 0.134853 0.000000 -0.532264 0.010766 0.000000 -0.574088 -0.111146 0.000000 -0.593662 -0.222574 0.000000 -0.579246 -0.307877 0.000000 -0.539449 -0.365831 0.000000 -0.481576 -0.395801 0.000000 -0.417918 -0.407786 0.000000 -0.356475 -0.407565 0.000000 -0.302705 -0.404983 0.000000 -0.256943 -0.401426 0.000000 -0.219708 -0.400992 0.000000 -0.187510 -0.401703 0.000000 -0.160553 -0.404261 0.000000 -0.135049 -0.407059 0.000000 -0.112110 -0.409597 0.000000 -0.088881 -0.411961 0.000000 -0.066822 -0.413111 0.000000 -0.044168 -0.414451 0.000000 -0.021992 -0.414456 0.000000 