# vtk DataFile Version 2.0
Comment goes here
ASCII

DATASET STRUCTURED_POINTS
FIELD FieldData 1
TIME 1 1 double
0.11000000
DIMENSIONS    64   64   1

ORIGIN    0.000   0.000   0.000
SPACING   0.015625 0.015625   1.000

POINT_DATA   4096
VECTORS u double

-0.000006 -0.000000 0.000000 0.045432 0.000000 0.000000 0.090758 -0.000000 0.000000 0.135817 0.000000 0.000000 0.180536 0.000000 0.000000 0.224658 0.000000 0.000000 0.268150 0.000000 0.000000 0.310619 0.000000 0.000000 0.352070 0.000000 0.000000 0.391939 0.000000 0.000000 0.430275 0.000000 0.000000 0.466323 0.000000 0.000000 0.500187 0.000000 0.000000 0.530904 0.000000 0.000000 0.558648 0.000000 0.000000 0.582253 0.000000 0.000000 0.601970 -0.000000 0.000000 0.616456 -0.000000 0.000000 0.626038 -0.000000 0.000000 0.629255 -0.000000 0.000000 0.626504 -0.000000 0.000000 0.616301 -0.000000 0.000000 0.599107 0.000000 0.000000 0.573551 -0.000000 0.000000 0.540175 0.000000 0.000000 0.497905 -0.000000 0.000000 0.447440 0.000000 0.000000 0.388285 -0.000000 0.000000 0.321541 -0.000000 0.000000 0.247678 -0.000000 0.000000 0.168402 -0.000000 0.000000 0.085179 -0.000000 0.000000 0.000007 -0.000000 0.000000 -0.085126 -0.000000 0.000000 -0.168388 -0.000000 0.000000 -0.247630 -0.000000 0.000000 -0.321528 -0.000000 0.000000 -0.388248 -0.000000 0.000000 -0.447427 -0.000000 0.000000 -0.497883 -0.000000 0.000000 -0.540164 -0.000000 0.000000 -0.573546 -0.000000 0.000000 -0.599098 -0.000000 0.000000 -0.616310 -0.000000 0.000000 -0.626499 -0.000000 0.000000 -0.629275 0.000000 0.000000 -0.626036 0.000000 0.000000 -0.616481 0.000000 0.000000 -0.601972 0.000000 0.000000 -0.582279 0.000000 0.000000 -0.558653 0.000000 0.000000 -0.530928 -0.000000 0.000000 -0.500194 -0.000000 0.000000 -0.466343 -0.000000 0.000000 -0.430284 -0.000000 0.000000 -0.391954 -0.000000 0.000000 -0.352080 -0.000000 0.000000 -0.310631 -0.000000 0.000000 -0.268162 -0.000000 0.000000 -0.224665 -0.000000 0.000000 -0.180547 -0.000000 0.000000 -0.135821 0.000000 0.000000 -0.090770 -0.000000 0.000000 -0.045435 0.000000 0.000000 
-0.000009 -0.045434 0.000000 0.045479 -0.045382 0.000000 0.090862 -0.045192 0.000000 0.135977 -0.044889 0.000000 0.180768 -0.044421 0.000000 0.224962 -0.043807 0.000000 0.268551 -0.042981 0.000000 0.311115 -0.041960 0.000000 0.352691 -0.040660 0.000000 0.392684 -0.039103 0.000000 0.431177 -0.037192 0.000000 0.467378 -0.034956 0.000000 0.501427 -0.032291 0.000000 0.532328 -0.029231 0.000000 0.560279 -0.025675 0.000000 0.584093 -0.021661 0.000000 0.604030 -0.017101 0.000000 0.618744 -0.012034 0.000000 0.628550 -0.006400 0.000000 0.631999 -0.000233 0.000000 0.629458 0.006477 0.000000 0.619463 0.013699 0.000000 0.602431 0.021375 0.000000 0.577007 0.029466 0.000000 0.543681 0.037823 0.000000 0.501380 0.046368 0.000000 0.450754 0.054810 0.000000 0.391313 0.062949 0.000000 0.324131 0.070304 0.000000 0.249716 0.076570 0.000000 0.169796 0.081249 0.000000 0.085887 0.084197 0.000000 0.000009 0.085152 0.000000 -0.085828 0.084197 0.000000 -0.169778 0.081252 0.000000 -0.249662 0.076570 0.000000 -0.324113 0.070309 0.000000 -0.391270 0.062949 0.000000 -0.450738 0.054817 0.000000 -0.501354 0.046369 0.000000 -0.543667 0.037832 0.000000 -0.576999 0.029467 0.000000 -0.602421 0.021382 0.000000 -0.619470 0.013700 0.000000 -0.629452 0.006482 0.000000 -0.632017 -0.000231 0.000000 -0.628547 -0.006397 0.000000 -0.618769 -0.012032 0.000000 -0.604031 -0.017101 0.000000 -0.584119 -0.021659 0.000000 -0.560283 -0.025676 0.000000 -0.532353 -0.029229 0.000000 -0.501435 -0.032293 0.000000 -0.467400 -0.034955 0.000000 -0.431188 -0.037194 0.000000 -0.392703 -0.039102 0.000000 -0.352705 -0.040662 0.000000 -0.311131 -0.041959 0.000000 -0.268567 -0.042983 0.000000 -0.224975 -0.043807 0.000000 -0.180785 -0.044422 0.000000 -0.135988 -0.044889 0.000000 -0.090880 -0.045193 0.000000 -0.045490 -0.045382 0.000000 
-0.000006 -0.090969 0.000000 0.045674 -0.090871 0.000000 0.091252 -0.090497 0.000000 0.136588 -0.089906 0.000000 0.181617 -0.088985 0.000000 0.226098 -0.087783 0.000000 0.269998 -0.086153 0.000000 0.312941 -0.084140 0.000000 0.354927 -0.081568 0.000000 0.395406 -0.078485 0.000000 0.434422 -0.074695 0.000000 0.471224 -0.070250 0.000000 0.505912 -0.064949 0.000000 0.537520 -0.058851 0.000000 0.566218 -0.051766 0.000000 0.590825 -0.043752 0.000000 0.611594 -0.034651 0.000000 0.627150 -0.024520 0.000000 0.637823 -0.013255 0.000000 0.642098 -0.000908 0.000000 0.640366 0.012536 0.000000 0.631060 0.027027 0.000000 0.614612 0.042455 0.000000 0.589536 0.058750 0.000000 0.556313 0.075627 0.000000 0.513734 0.092927 0.000000 0.462435 0.110068 0.000000 0.401837 0.126623 0.000000 0.333069 0.141597 0.000000 0.256677 0.154335 0.000000 0.174536 0.163829 0.000000 0.088275 0.169787 0.000000 0.000006 0.171715 0.000000 -0.088220 0.169787 0.000000 -0.174524 0.163834 0.000000 -0.256627 0.154336 0.000000 -0.333055 0.141608 0.000000 -0.401798 0.126624 0.000000 -0.462421 0.110084 0.000000 -0.513711 0.092930 0.000000 -0.556301 0.075645 0.000000 -0.589532 0.058754 0.000000 -0.614604 0.042471 0.000000 -0.631071 0.027031 0.000000 -0.640361 0.012548 0.000000 -0.642121 -0.000905 0.000000 -0.637822 -0.013249 0.000000 -0.627178 -0.024516 0.000000 -0.611596 -0.034649 0.000000 -0.590853 -0.043748 0.000000 -0.566223 -0.051767 0.000000 -0.537545 -0.058848 0.000000 -0.505920 -0.064952 0.000000 -0.471245 -0.070247 0.000000 -0.434432 -0.074698 0.000000 -0.395422 -0.078483 0.000000 -0.354938 -0.081572 0.000000 -0.312952 -0.084138 0.000000 -0.270010 -0.086156 0.000000 -0.226105 -0.087782 0.000000 -0.181629 -0.088987 0.000000 -0.136592 -0.089905 0.000000 -0.091263 -0.090498 0.000000 -0.045676 -0.090871 0.000000 
-0.000009 -0.136784 0.000000 0.045951 -0.136640 0.000000 0.091828 -0.136107 0.000000 0.137489 -0.135254 0.000000 0.182891 -0.133930 0.000000 0.227795 -0.132189 0.000000 0.272194 -0.129824 0.000000 0.315701 -0.126888 0.000000 0.358347 -0.123125 0.000000 0.399558 -0.118598 0.000000 0.439413 -0.113010 0.000000 0.477124 -0.106446 0.000000 0.512827 -0.098586 0.000000 0.545512 -0.089536 0.000000 0.575377 -0.078980 0.000000 0.601204 -0.067037 0.000000 0.623252 -0.053426 0.000000 0.640117 -0.038263 0.000000 0.652109 -0.021348 0.000000 0.657681 -0.002776 0.000000 0.657176 0.017516 0.000000 0.648967 0.039452 0.000000 0.633405 0.062899 0.000000 0.608902 0.087764 0.000000 0.575824 0.113626 0.000000 0.532836 0.140246 0.000000 0.480467 0.166706 0.000000 0.418074 0.192315 0.000000 0.346805 0.215465 0.000000 0.267341 0.235103 0.000000 0.181761 0.249651 0.000000 0.091908 0.258728 0.000000 0.000008 0.261648 0.000000 -0.091844 0.258727 0.000000 -0.181744 0.249659 0.000000 -0.267282 0.235101 0.000000 -0.346787 0.215481 0.000000 -0.418026 0.192315 0.000000 -0.480448 0.166729 0.000000 -0.532807 0.140249 0.000000 -0.575810 0.113652 0.000000 -0.608895 0.087770 0.000000 -0.633395 0.062922 0.000000 -0.648979 0.039458 0.000000 -0.657170 0.017532 0.000000 -0.657705 -0.002771 0.000000 -0.652106 -0.021340 0.000000 -0.640145 -0.038258 0.000000 -0.623252 -0.053426 0.000000 -0.601233 -0.067033 0.000000 -0.575381 -0.078984 0.000000 -0.545538 -0.089532 0.000000 -0.512834 -0.098592 0.000000 -0.477147 -0.106443 0.000000 -0.439425 -0.113017 0.000000 -0.399577 -0.118596 0.000000 -0.358362 -0.123132 0.000000 -0.315716 -0.126888 0.000000 -0.272211 -0.129830 0.000000 -0.227807 -0.132189 0.000000 -0.182909 -0.133934 0.000000 -0.137500 -0.135254 0.000000 -0.091846 -0.136109 0.000000 -0.045961 -0.136640 0.000000 
-0.000006 -0.182882 0.000000 0.046351 -0.182708 0.000000 0.092638 -0.182035 0.000000 0.138766 -0.180969 0.000000 0.184683 -0.179291 0.000000 0.230205 -0.177086 0.000000 0.275300 -0.174059 0.000000 0.319642 -0.170293 0.000000 0.363219 -0.165426 0.000000 0.405523 -0.159551 0.000000 0.446576 -0.152261 0.000000 0.485649 -0.143664 0.000000 0.522822 -0.133337 0.000000 0.557124 -0.121402 0.000000 0.588712 -0.107458 0.000000 0.616366 -0.091627 0.000000 0.640335 -0.073563 0.000000 0.659156 -0.053376 0.000000 0.673156 -0.030819 0.000000 0.680654 -0.005975 0.000000 0.682007 0.021251 0.000000 0.675377 0.050798 0.000000 0.661089 0.082520 0.000000 0.637277 0.116331 0.000000 0.604246 0.151693 0.000000 0.560394 0.188284 0.000000 0.506226 0.224830 0.000000 0.440979 0.260285 0.000000 0.365954 0.292330 0.000000 0.282011 0.319379 0.000000 0.191589 0.339262 0.000000 0.096801 0.351540 0.000000 0.000004 0.355467 0.000000 -0.096741 0.351539 0.000000 -0.191580 0.339272 0.000000 -0.281955 0.319378 0.000000 -0.365940 0.292352 0.000000 -0.440933 0.260286 0.000000 -0.506208 0.224865 0.000000 -0.560369 0.188291 0.000000 -0.604232 0.151733 0.000000 -0.637277 0.116339 0.000000 -0.661081 0.082554 0.000000 -0.675397 0.050805 0.000000 -0.682003 0.021274 0.000000 -0.680685 -0.005968 0.000000 -0.673155 -0.030808 0.000000 -0.659190 -0.053370 0.000000 -0.640337 -0.073561 0.000000 -0.616398 -0.091619 0.000000 -0.588717 -0.107462 0.000000 -0.557151 -0.121395 0.000000 -0.522831 -0.133343 0.000000 -0.485671 -0.143656 0.000000 -0.446587 -0.152268 0.000000 -0.405538 -0.159546 0.000000 -0.363231 -0.165433 0.000000 -0.319651 -0.170289 0.000000 -0.275312 -0.174064 0.000000 -0.230210 -0.177083 0.000000 -0.184695 -0.179295 0.000000 -0.138768 -0.180968 0.000000 -0.092649 -0.182037 0.000000 -0.046351 -0.182708 0.000000 
-0.000010 -0.229485 0.000000 0.046799 -0.229283 0.000000 0.093567 -0.228522 0.000000 0.140234 -0.227299 0.000000 0.186776 -0.225370 0.000000 0.233028 -0.222805 0.000000 0.278989 -0.219260 0.000000 0.324335 -0.214807 0.000000 0.369091 -0.209006 0.000000 0.412725 -0.201954 0.000000 0.455303 -0.193137 0.000000 0.496049 -0.182692 0.000000 0.535087 -0.170060 0.000000 0.571385 -0.155426 0.000000 0.605136 -0.138222 0.000000 0.635056 -0.118660 0.000000 0.661404 -0.096216 0.000000 0.682650 -0.071084 0.000000 0.699084 -0.042846 0.000000 0.708934 -0.011627 0.000000 0.712458 0.022792 0.000000 0.707655 0.060370 0.000000 0.694699 0.100999 0.000000 0.671500 0.144608 0.000000 0.638207 0.190509 0.000000 0.593015 0.238266 0.000000 0.536360 0.286120 0.000000 0.467452 0.332587 0.000000 0.387763 0.374433 0.000000 0.298470 0.409467 0.000000 0.202444 0.434861 0.000000 0.102145 0.450313 0.000000 0.000004 0.455190 0.000000 -0.102078 0.450311 0.000000 -0.202432 0.434872 0.000000 -0.298402 0.409461 0.000000 -0.387743 0.374459 0.000000 -0.467391 0.332584 0.000000 -0.536337 0.286165 0.000000 -0.592983 0.238273 0.000000 -0.638192 0.190561 0.000000 -0.671502 0.144618 0.000000 -0.694691 0.101042 0.000000 -0.707679 0.060380 0.000000 -0.712453 0.022820 0.000000 -0.708970 -0.011619 0.000000 -0.699081 -0.042835 0.000000 -0.682687 -0.071076 0.000000 -0.661403 -0.096217 0.000000 -0.635090 -0.118652 0.000000 -0.605139 -0.138231 0.000000 -0.571414 -0.155419 0.000000 -0.535095 -0.170073 0.000000 -0.496073 -0.182687 0.000000 -0.455316 -0.193150 0.000000 -0.412744 -0.201952 0.000000 -0.369107 -0.209018 0.000000 -0.324349 -0.214806 0.000000 -0.279007 -0.219270 0.000000 -0.233039 -0.222806 0.000000 -0.186795 -0.225377 0.000000 -0.140242 -0.227300 0.000000 -0.093587 -0.228526 0.000000 -0.046807 -0.229283 0.000000 
-0.000005 -0.276487 0.000000 0.047314 -0.276285 0.000000 0.094623 -0.275470 0.000000 0.141919 -0.274178 0.000000 0.189178 -0.272085 0.000000 0.236317 -0.269299 0.000000 0.283300 -0.265366 0.000000 0.329898 -0.260395 0.000000 0.376074 -0.253816 0.000000 0.421394 -0.245763 0.000000 0.465840 -0.235585 0.000000 0.508725 -0.223448 0.000000 0.550081 -0.208673 0.000000 0.588940 -0.191451 0.000000 0.625421 -0.171129 0.000000 0.658242 -0.147894 0.000000 0.687630 -0.121157 0.000000 0.711949 -0.091057 0.000000 0.731492 -0.057103 0.000000 0.744232 -0.019348 0.000000 0.750408 0.022530 0.000000 0.747631 0.068557 0.000000 0.735995 0.118674 0.000000 0.712968 0.172822 0.000000 0.678660 0.230179 0.000000 0.630993 0.290131 0.000000 0.570560 0.350393 0.000000 0.496618 0.408882 0.000000 0.411057 0.461311 0.000000 0.315478 0.504698 0.000000 0.213317 0.535587 0.000000 0.107367 0.553980 0.000000 -0.000004 0.559690 0.000000 -0.107306 0.553976 0.000000 -0.213319 0.535596 0.000000 -0.315411 0.504688 0.000000 -0.411043 0.461341 0.000000 -0.496555 0.408880 0.000000 -0.570536 0.350457 0.000000 -0.630967 0.290147 0.000000 -0.678647 0.230252 0.000000 -0.712980 0.172838 0.000000 -0.735989 0.118732 0.000000 -0.747667 0.068568 0.000000 -0.750405 0.022565 0.000000 -0.744280 -0.019340 0.000000 -0.731491 -0.057091 0.000000 -0.711996 -0.091048 0.000000 -0.687632 -0.121158 0.000000 -0.658282 -0.147883 0.000000 -0.625428 -0.171138 0.000000 -0.588971 -0.191439 0.000000 -0.550092 -0.208685 0.000000 -0.508747 -0.223436 0.000000 -0.465853 -0.235597 0.000000 -0.421409 -0.245754 0.000000 -0.376088 -0.253827 0.000000 -0.329905 -0.260389 0.000000 -0.283313 -0.265375 0.000000 -0.236319 -0.269296 0.000000 -0.189190 -0.272091 0.000000 -0.141917 -0.274176 0.000000 -0.094634 -0.275473 0.000000 -0.047311 -0.276285 0.000000 
-0.000010 -0.324111 0.000000 0.047817 -0.323911 0.000000 0.095676 -0.323127 0.000000 0.143619 -0.321855 0.000000 0.191656 -0.319768 0.000000 0.239749 -0.316927 0.000000 0.287895 -0.312842 0.000000 0.335887 -0.307582 0.000000 0.383725 -0.300502 0.000000 0.430959 -0.291720 0.000000 0.477618 -0.280467 0.000000 0.522954 -0.266934 0.000000 0.567058 -0.250276 0.000000 0.608861 -0.230766 0.000000 0.648531 -0.207524 0.000000 0.684669 -0.180869 0.000000 0.717488 -0.149923 0.000000 0.745220 -0.114946 0.000000 0.768022 -0.075129 0.000000 0.783664 -0.030543 0.000000 0.792142 0.019393 0.000000 0.790754 0.074783 0.000000 0.779389 0.135662 0.000000 0.755267 0.201943 0.000000 0.718507 0.272484 0.000000 0.667004 0.346366 0.000000 0.601630 0.420495 0.000000 0.521905 0.492089 0.000000 0.430216 0.555573 0.000000 0.328688 0.607207 0.000000 0.221275 0.642972 0.000000 0.111011 0.663634 0.000000 -0.000007 0.669863 0.000000 -0.110947 0.663626 0.000000 -0.221278 0.642977 0.000000 -0.328605 0.607185 0.000000 -0.430193 0.555603 0.000000 -0.521818 0.492077 0.000000 -0.601601 0.420577 0.000000 -0.666976 0.346384 0.000000 -0.718501 0.272574 0.000000 -0.755291 0.201961 0.000000 -0.779390 0.135730 0.000000 -0.790805 0.074796 0.000000 -0.792141 0.019432 0.000000 -0.783722 -0.030533 0.000000 -0.768017 -0.075119 0.000000 -0.745272 -0.114935 0.000000 -0.717485 -0.149931 0.000000 -0.684710 -0.180856 0.000000 -0.648533 -0.207542 0.000000 -0.608892 -0.230754 0.000000 -0.567067 -0.250297 0.000000 -0.522977 -0.266926 0.000000 -0.477633 -0.280488 0.000000 -0.430976 -0.291717 0.000000 -0.383744 -0.300522 0.000000 -0.335899 -0.307582 0.000000 -0.287915 -0.312857 0.000000 -0.239758 -0.316928 0.000000 -0.191677 -0.319779 0.000000 -0.143625 -0.321856 0.000000 -0.095696 -0.323132 0.000000 -0.047822 -0.323912 0.000000 
-0.000005 -0.372125 0.000000 0.048299 -0.371971 0.000000 0.096680 -0.371272 0.000000 0.145279 -0.370158 0.000000 0.194108 -0.368216 0.000000 0.243245 -0.365538 0.000000 0.292647 -0.361504 0.000000 0.342240 -0.356226 0.000000 0.391938 -0.348888 0.000000 0.441430 -0.339656 0.000000 0.490618 -0.327580 0.000000 0.538887 -0.312887 0.000000 0.586170 -0.294580 0.000000 0.631497 -0.272925 0.000000 0.674878 -0.246937 0.000000 0.714904 -0.216852 0.000000 0.751664 -0.181707 0.000000 0.783151 -0.141591 0.000000 0.809424 -0.095547 0.000000 0.827730 -0.043468 0.000000 0.837960 0.015440 0.000000 0.836822 0.081310 0.000000 0.824182 0.154161 0.000000 0.796830 0.233704 0.000000 0.755240 0.318441 0.000000 0.697436 0.407007 0.000000 0.625098 0.495492 0.000000 0.538324 0.580296 0.000000 0.440378 0.654528 0.000000 0.333952 0.713639 0.000000 0.223370 0.753263 0.000000 0.111563 0.775262 0.000000 -0.000022 0.781649 0.000000 -0.111515 0.775247 0.000000 -0.223400 0.753254 0.000000 -0.333873 0.713604 0.000000 -0.440368 0.654553 0.000000 -0.538230 0.580288 0.000000 -0.625067 0.495616 0.000000 -0.697425 0.407047 0.000000 -0.755244 0.318567 0.000000 -0.796877 0.233727 0.000000 -0.824190 0.154245 0.000000 -0.836892 0.081318 0.000000 -0.837962 0.015483 0.000000 -0.827806 -0.043464 0.000000 -0.809422 -0.095542 0.000000 -0.783216 -0.141581 0.000000 -0.751664 -0.181720 0.000000 -0.714954 -0.216834 0.000000 -0.674886 -0.246956 0.000000 -0.631532 -0.272904 0.000000 -0.586185 -0.294600 0.000000 -0.538909 -0.312870 0.000000 -0.490635 -0.327598 0.000000 -0.441441 -0.339644 0.000000 -0.391955 -0.348904 0.000000 -0.342243 -0.356218 0.000000 -0.292662 -0.361516 0.000000 -0.243243 -0.365534 0.000000 -0.194120 -0.368224 0.000000 -0.145272 -0.370156 0.000000 -0.096690 -0.371276 0.000000 -0.048290 -0.371971 0.000000 
-0.000011 -0.420700 0.000000 0.048671 -0.420596 0.000000 0.097490 -0.420107 0.000000 0.146677 -0.419283 0.000000 0.196278 -0.417735 0.000000 0.246463 -0.415466 0.000000 0.297209 -0.411836 0.000000 0.348506 -0.406872 0.000000 0.400295 -0.399692 0.000000 0.452260 -0.390400 0.000000 0.504356 -0.377924 0.000000 0.555867 -0.362486 0.000000 0.606803 -0.342886 0.000000 0.655997 -0.319473 0.000000 0.703495 -0.290931 0.000000 0.747617 -0.257655 0.000000 0.788313 -0.218170 0.000000 0.823224 -0.172706 0.000000 0.851962 -0.119708 0.000000 0.871343 -0.059079 0.000000 0.880739 0.010301 0.000000 0.876463 0.088562 0.000000 0.858463 0.175654 0.000000 0.823809 0.270884 0.000000 0.773854 0.371878 0.000000 0.707369 0.476508 0.000000 0.627178 0.579607 0.000000 0.534183 0.676810 0.000000 0.432438 0.759945 0.000000 0.324955 0.824216 0.000000 0.215825 0.865361 0.000000 0.107326 0.887026 0.000000 -0.000038 0.892941 0.000000 -0.107301 0.887003 0.000000 -0.215872 0.865335 0.000000 -0.324861 0.824153 0.000000 -0.432423 0.759960 0.000000 -0.534043 0.676776 0.000000 -0.627149 0.579772 0.000000 -0.707378 0.476561 0.000000 -0.773891 0.372025 0.000000 -0.823894 0.270907 0.000000 -0.858491 0.175745 0.000000 -0.876563 0.088568 0.000000 -0.880743 0.010346 0.000000 -0.871439 -0.059073 0.000000 -0.851951 -0.119710 0.000000 -0.823293 -0.172693 0.000000 -0.788301 -0.218193 0.000000 -0.747665 -0.257635 0.000000 -0.703495 -0.290963 0.000000 -0.656029 -0.319455 0.000000 -0.606816 -0.342920 0.000000 -0.555889 -0.362476 0.000000 -0.504376 -0.377956 0.000000 -0.452274 -0.390397 0.000000 -0.400319 -0.399720 0.000000 -0.348514 -0.406875 0.000000 -0.297233 -0.411857 0.000000 -0.246467 -0.415470 0.000000 -0.196301 -0.417749 0.000000 -0.146679 -0.419286 0.000000 -0.097512 -0.420114 0.000000 -0.048671 -0.420597 0.000000 
-0.000003 -0.469467 0.000000 0.048892 -0.469472 0.000000 0.097994 -0.469279 0.000000 0.147653 -0.468946 0.000000 0.197928 -0.468002 0.000000 0.249147 -0.466469 0.000000 0.301243 -0.463547 0.000000 0.354384 -0.459312 0.000000 0.408403 -0.452642 0.000000 0.463168 -0.443717 0.000000 0.518445 -0.431187 0.000000 0.573695 -0.415335 0.000000 0.628633 -0.394709 0.000000 0.682216 -0.369617 0.000000 0.734086 -0.338557 0.000000 0.782469 -0.301670 0.000000 0.826843 -0.257314 0.000000 0.864245 -0.205239 0.000000 0.893880 -0.143666 0.000000 0.911498 -0.072245 0.000000 0.916464 0.010319 0.000000 0.904721 0.103586 0.000000 0.876898 0.206816 0.000000 0.830276 0.318313 0.000000 0.767752 0.434881 0.000000 0.689307 0.553683 0.000000 0.599785 0.668678 0.000000 0.501363 0.775036 0.000000 0.399144 0.863756 0.000000 0.296001 0.930252 0.000000 0.194853 0.970892 0.000000 0.096457 0.991125 0.000000 -0.000068 0.996276 0.000000 -0.096480 0.991080 0.000000 -0.194966 0.970814 0.000000 -0.295932 0.930155 0.000000 -0.399181 0.863735 0.000000 -0.501212 0.775013 0.000000 -0.599752 0.668951 0.000000 -0.689367 0.553790 0.000000 -0.767810 0.435083 0.000000 -0.830397 0.318327 0.000000 -0.876939 0.206914 0.000000 -0.904849 0.103569 0.000000 -0.916468 0.010358 0.000000 -0.911621 -0.072256 0.000000 -0.893869 -0.143687 0.000000 -0.864331 -0.205230 0.000000 -0.826835 -0.257349 0.000000 -0.782526 -0.301640 0.000000 -0.734096 -0.338591 0.000000 -0.682253 -0.369584 0.000000 -0.628655 -0.394740 0.000000 -0.573716 -0.415310 0.000000 -0.518470 -0.431214 0.000000 -0.463175 -0.443701 0.000000 -0.408425 -0.452663 0.000000 -0.354381 -0.459304 0.000000 -0.301260 -0.463563 0.000000 -0.249137 -0.466467 0.000000 -0.197939 -0.468012 0.000000 -0.147639 -0.468946 0.000000 -0.098002 -0.469284 0.000000 -0.048877 -0.469472 0.000000 
-0.000011 -0.518468 0.000000 0.048860 -0.518593 0.000000 0.098017 -0.518867 0.000000 0.147956 -0.519217 0.000000 0.198757 -0.519229 0.000000 0.250920 -0.518781 0.000000 0.304368 -0.517073 0.000000 0.359405 -0.514032 0.000000 0.415863 -0.508476 0.000000 0.473631 -0.500441 0.000000 0.532512 -0.488451 0.000000 0.591787 -0.472674 0.000000 0.651227 -0.451408 0.000000 0.709338 -0.424927 0.000000 0.765698 -0.391184 0.000000 0.817793 -0.350412 0.000000 0.864606 -0.299946 0.000000 0.902248 -0.239743 0.000000 0.928780 -0.166961 0.000000 0.939477 -0.081664 0.000000 0.933056 0.017078 0.000000 0.905607 0.128128 0.000000 0.859302 0.250099 0.000000 0.793642 0.380030 0.000000 0.714539 0.512847 0.000000 0.623968 0.644475 0.000000 0.528754 0.767551 0.000000 0.431564 0.877450 0.000000 0.337264 0.965308 0.000000 0.247283 1.028507 0.000000 0.162033 1.064904 0.000000 0.080201 1.081947 0.000000 -0.000093 1.085879 0.000000 -0.080285 1.081901 0.000000 -0.162180 1.064787 0.000000 -0.247222 1.028367 0.000000 -0.337319 0.965240 0.000000 -0.431295 0.877347 0.000000 -0.528725 0.767927 0.000000 -0.624097 0.644620 0.000000 -0.714665 0.513055 0.000000 -0.793830 0.380036 0.000000 -0.859371 0.250197 0.000000 -0.905779 0.128096 0.000000 -0.933058 0.017118 0.000000 -0.939630 -0.081671 0.000000 -0.928748 -0.166999 0.000000 -0.902330 -0.239727 0.000000 -0.864571 -0.299998 0.000000 -0.817839 -0.350374 0.000000 -0.765695 -0.391236 0.000000 -0.709367 -0.424897 0.000000 -0.651247 -0.451458 0.000000 -0.591805 -0.472661 0.000000 -0.532543 -0.488496 0.000000 -0.473640 -0.500442 0.000000 -0.415895 -0.508514 0.000000 -0.359408 -0.514040 0.000000 -0.304397 -0.517101 0.000000 -0.250919 -0.518790 0.000000 -0.198782 -0.519247 0.000000 -0.147952 -0.519224 0.000000 -0.098039 -0.518876 0.000000 -0.048856 -0.518596 0.000000 
-0.000001 -0.567183 0.000000 0.048494 -0.567499 0.000000 0.097372 -0.568374 0.000000 0.147293 -0.569686 0.000000 0.198366 -0.570966 0.000000 0.251304 -0.572080 0.000000 0.305988 -0.572032 0.000000 0.362959 -0.570807 0.000000 0.421922 -0.566868 0.000000 0.482989 -0.560366 0.000000 0.545683 -0.549343 0.000000 0.609470 -0.534049 0.000000 0.673538 -0.512259 0.000000 0.736459 -0.484088 0.000000 0.796771 -0.447013 0.000000 0.851628 -0.400577 0.000000 0.898596 -0.341769 0.000000 0.932492 -0.269414 0.000000 0.950608 -0.180896 0.000000 0.946555 -0.076521 0.000000 0.920605 0.044189 0.000000 0.870804 0.177340 0.000000 0.802128 0.318780 0.000000 0.715325 0.463075 0.000000 0.619363 0.604556 0.000000 0.518385 0.739469 0.000000 0.421567 0.861082 0.000000 0.331604 0.966526 0.000000 0.252329 1.048037 0.000000 0.182577 1.105483 0.000000 0.119330 1.137975 0.000000 0.059332 1.153251 0.000000 -0.000059 1.156761 0.000000 -0.059409 1.153168 0.000000 -0.119589 1.137751 0.000000 -0.182661 1.105294 0.000000 -0.252652 1.047807 0.000000 -0.331316 0.966419 0.000000 -0.421453 0.861754 0.000000 -0.518597 0.739729 0.000000 -0.619461 0.604816 0.000000 -0.715491 0.463034 0.000000 -0.802191 0.318863 0.000000 -0.870996 0.177256 0.000000 -0.920588 0.044209 0.000000 -0.946753 -0.076565 0.000000 -0.950572 -0.180987 0.000000 -0.932592 -0.269407 0.000000 -0.898566 -0.341840 0.000000 -0.851682 -0.400516 0.000000 -0.796788 -0.447064 0.000000 -0.736493 -0.484032 0.000000 -0.673577 -0.512302 0.000000 -0.609486 -0.534014 0.000000 -0.545722 -0.549379 0.000000 -0.482989 -0.560349 0.000000 -0.421950 -0.566896 0.000000 -0.362947 -0.570802 0.000000 -0.306006 -0.572052 0.000000 -0.251285 -0.572081 0.000000 -0.198375 -0.570979 0.000000 -0.147270 -0.569689 0.000000 -0.097375 -0.568381 0.000000 -0.048469 -0.567500 0.000000 
-0.000010 -0.615432 0.000000 0.047670 -0.615966 0.000000 0.095831 -0.617667 0.000000 0.145366 -0.620211 0.000000 0.196365 -0.623239 0.000000 0.249852 -0.626403 0.000000 0.305625 -0.628728 0.000000 0.364511 -0.629966 0.000000 0.426132 -0.628506 0.000000 0.490690 -0.624203 0.000000 0.557666 -0.614933 0.000000 0.626175 -0.600529 0.000000 0.695333 -0.578396 0.000000 0.762655 -0.548160 0.000000 0.826326 -0.506353 0.000000 0.881601 -0.452236 0.000000 0.924915 -0.380810 0.000000 0.949128 -0.291754 0.000000 0.949944 -0.181023 0.000000 0.922882 -0.051662 0.000000 0.868771 0.092829 0.000000 0.787207 0.246605 0.000000 0.688074 0.405577 0.000000 0.578361 0.562796 0.000000 0.472525 0.709787 0.000000 0.375088 0.842271 0.000000 0.293625 0.954333 0.000000 0.225722 1.046688 0.000000 0.170904 1.114334 0.000000 0.125354 1.161506 0.000000 0.083705 1.188150 0.000000 0.042526 1.201336 0.000000 -0.000100 1.204620 0.000000 -0.042812 1.201431 0.000000 -0.084221 1.188039 0.000000 -0.125819 1.161431 0.000000 -0.171457 1.113895 0.000000 -0.224906 1.046148 0.000000 -0.293259 0.955208 0.000000 -0.375412 0.842628 0.000000 -0.472692 0.709949 0.000000 -0.578563 0.562766 0.000000 -0.688116 0.405702 0.000000 -0.787420 0.246493 0.000000 -0.868721 0.092875 0.000000 -0.923132 -0.051687 0.000000 -0.949859 -0.181160 0.000000 -0.949199 -0.291734 0.000000 -0.924833 -0.380907 0.000000 -0.881626 -0.452152 0.000000 -0.826325 -0.506425 0.000000 -0.762675 -0.548107 0.000000 -0.695373 -0.578465 0.000000 -0.626184 -0.600516 0.000000 -0.557715 -0.614994 0.000000 -0.490691 -0.624213 0.000000 -0.426175 -0.628555 0.000000 -0.364506 -0.629984 0.000000 -0.305659 -0.628764 0.000000 -0.249844 -0.626421 0.000000 -0.196391 -0.623261 0.000000 -0.145356 -0.620223 0.000000 -0.095852 -0.617677 0.000000 -0.047659 -0.615970 0.000000 
0.000003 -0.662512 0.000000 0.046260 -0.663340 0.000000 0.093127 -0.666070 0.000000 0.141722 -0.670220 0.000000 0.192173 -0.675452 0.000000 0.245804 -0.681340 0.000000 0.302384 -0.686691 0.000000 0.363047 -0.691314 0.000000 0.427304 -0.693047 0.000000 0.495573 -0.691900 0.000000 0.566966 -0.684828 0.000000 0.640626 -0.671717 0.000000 0.714574 -0.648740 0.000000 0.786066 -0.615080 0.000000 0.850813 -0.565958 0.000000 0.903280 -0.499166 0.000000 0.936313 -0.409296 0.000000 0.941645 -0.294443 0.000000 0.915957 -0.154650 0.000000 0.853268 0.004652 0.000000 0.762577 0.179864 0.000000 0.654095 0.358038 0.000000 0.542281 0.527627 0.000000 0.430508 0.678624 0.000000 0.332208 0.807828 0.000000 0.249488 0.918369 0.000000 0.187283 1.010449 0.000000 0.138679 1.089248 0.000000 0.102091 1.148405 0.000000 0.074214 1.192682 0.000000 0.049275 1.220802 0.000000 0.025409 1.237055 0.000000 0.000019 1.242100 0.000000 -0.025757 1.237289 0.000000 -0.050086 1.220758 0.000000 -0.075088 1.192530 0.000000 -0.103253 1.146895 0.000000 -0.137256 1.088221 0.000000 -0.186260 1.012259 0.000000 -0.250217 0.919162 0.000000 -0.332348 0.807967 0.000000 -0.430447 0.678459 0.000000 -0.542274 0.527720 0.000000 -0.654249 0.357860 0.000000 -0.762380 0.179922 0.000000 -0.853577 0.004573 0.000000 -0.915862 -0.154920 0.000000 -0.941740 -0.294433 0.000000 -0.936245 -0.409413 0.000000 -0.903308 -0.499025 0.000000 -0.850859 -0.566015 0.000000 -0.786093 -0.614983 0.000000 -0.714652 -0.648792 0.000000 -0.640634 -0.671673 0.000000 -0.567027 -0.684872 0.000000 -0.495561 -0.691888 0.000000 -0.427340 -0.693080 0.000000 -0.363022 -0.691318 0.000000 -0.302400 -0.686714 0.000000 -0.245772 -0.681349 0.000000 -0.192176 -0.675467 0.000000 -0.141688 -0.670228 0.000000 -0.093124 -0.666078 0.000000 -0.046225 -0.663343 0.000000 
-0.000007 -0.707917 0.000000 0.044111 -0.709090 0.000000 0.088952 -0.713129 0.000000 0.135984 -0.719257 0.000000 0.185238 -0.727320 0.000000 0.238584 -0.736614 0.000000 0.295554 -0.745971 0.000000 0.357867 -0.754886 0.000000 0.424761 -0.761032 0.000000 0.496930 -0.763865 0.000000 0.573212 -0.759986 0.000000 0.652118 -0.748138 0.000000 0.731149 -0.723836 0.000000 0.805144 -0.684399 0.000000 0.868468 -0.623566 0.000000 0.910841 -0.537736 0.000000 0.923968 -0.419175 0.000000 0.897417 -0.271398 0.000000 0.830526 -0.092646 0.000000 0.732510 0.101719 0.000000 0.614825 0.292002 0.000000 0.483140 0.466901 0.000000 0.357509 0.629164 0.000000 0.250053 0.772869 0.000000 0.174859 0.890808 0.000000 0.122847 0.987196 0.000000 0.090428 1.065141 0.000000 0.062880 1.131880 0.000000 0.039221 1.178800 0.000000 0.023676 1.214323 0.000000 0.012971 1.236954 0.000000 0.006902 1.250591 0.000000 0.000299 1.255786 0.000000 -0.006897 1.251537 0.000000 -0.013574 1.237371 0.000000 -0.025401 1.214597 0.000000 -0.041008 1.176062 0.000000 -0.060045 1.129155 0.000000 -0.089291 1.068168 0.000000 -0.124699 0.988716 0.000000 -0.175230 0.890179 0.000000 -0.249877 0.772692 0.000000 -0.357354 0.629505 0.000000 -0.483082 0.466599 0.000000 -0.614359 0.292203 0.000000 -0.732840 0.101794 0.000000 -0.830291 -0.092998 0.000000 -0.897427 -0.271351 0.000000 -0.923826 -0.419340 0.000000 -0.910813 -0.537537 0.000000 -0.868514 -0.623640 0.000000 -0.805156 -0.684315 0.000000 -0.731241 -0.723923 0.000000 -0.652119 -0.748141 0.000000 -0.573292 -0.760068 0.000000 -0.496921 -0.763900 0.000000 -0.424820 -0.761094 0.000000 -0.357853 -0.754925 0.000000 -0.295594 -0.746014 0.000000 -0.238568 -0.736645 0.000000 -0.185263 -0.727346 0.000000 -0.135967 -0.719276 0.000000 -0.088968 -0.713140 0.000000 -0.044093 -0.709097 0.000000 