# vtk DataFile Version 2.0
Comment goes here
ASCII

DATASET STRUCTURED_POINTS
FIELD FieldData 1
TIME 1 1 double
0.99000000
DIMENSIONS    64   64   1

ORIGIN    0.000   0.000   0.000
SPACING   0.015625 0.015625   1.000

POINT_DATA   4096
VECTORS u double

0.000227 0.000000 0.000000 0.007948 0.000000 0.000000 0.015351 0.000000 0.000000 0.022564 0.000000 0.000000 0.029183 0.000000 0.000000 0.035260 0.000000 0.000000 0.040488 0.000000 0.000000 0.044836 0.000000 0.000000 0.048117 0.000000 0.000000 0.050208 0.000000 0.000000 0.051073 0.000000 0.000000 0.050487 0.000000 0.000000 0.048618 0.000000 0.000000 0.045111 0.000000 0.000000 0.040421 0.000000 0.000000 0.034031 0.000000 0.000000 0.026777 0.000000 0.000000 0.017940 0.000000 0.000000 0.008823 0.000000 0.000000 -0.001519 0.000000 0.000000 -0.011291 0.000000 0.000000 -0.021660 0.000000 0.000000 -0.030427 0.000000 0.000000 -0.038914 0.000000 0.000000 -0.044760 0.000000 0.000000 -0.049310 0.000000 0.000000 -0.050439 0.000000 0.000000 -0.049349 0.000000 0.000000 -0.044649 0.000000 0.000000 -0.037327 0.000000 0.000000 -0.027174 0.000000 0.000000 -0.014985 0.000000 0.000000 -0.001832 0.000000 0.000000 0.011811 0.000000 0.000000 0.024052 0.000000 0.000000 0.035062 0.000000 0.000000 0.042847 0.000000 0.000000 0.048402 0.000000 0.000000 0.050078 0.000000 0.000000 0.049479 0.000000 0.000000 0.045418 0.000000 0.000000 0.039680 0.000000 0.000000 0.031526 0.000000 0.000000 0.022552 0.000000 0.000000 0.012400 0.000000 0.000000 0.002270 0.000000 0.000000 -0.007921 0.000000 0.000000 -0.017404 0.000000 0.000000 -0.026129 0.000000 0.000000 -0.033672 0.000000 0.000000 -0.039981 0.000000 0.000000 -0.044845 0.000000 0.000000 -0.048303 0.000000 0.000000 -0.050230 0.000000 0.000000 -0.050803 0.000000 0.000000 -0.049896 0.000000 0.000000 -0.047829 0.000000 0.000000 -0.044434 0.000000 0.000000 -0.040149 0.000000 0.000000 -0.034763 0.000000 0.000000 -0.028787 0.000000 0.000000 -0.021990 0.000000 0.000000 -0.014913 0.000000 0.000000 -0.007330 0.000000 0.000000 
0.000252 -0.007639 0.000000 0.007985 -0.007562 0.000000 0.015403 -0.007308 0.000000 0.022626 -0.006916 0.000000 0.029260 -0.006348 0.000000 0.035343 -0.005652 0.000000 0.040587 -0.004788 0.000000 0.044936 -0.003815 0.000000 0.048233 -0.002686 0.000000 0.050316 -0.001478 0.000000 0.051196 -0.000139 0.000000 0.050589 0.001228 0.000000 0.048727 0.002688 0.000000 0.045183 0.004098 0.000000 0.040486 0.005540 0.000000 0.034035 0.006822 0.000000 0.026745 0.008046 0.000000 0.017820 0.008977 0.000000 0.008628 0.009729 0.000000 -0.001835 0.010057 0.000000 -0.011726 0.010071 0.000000 -0.022244 0.009568 0.000000 -0.031165 0.008627 0.000000 -0.039810 0.007167 0.000000 -0.045811 0.005198 0.000000 -0.050479 0.002839 0.000000 -0.051695 0.000020 0.000000 -0.050604 -0.002895 0.000000 -0.045844 -0.006011 0.000000 -0.038341 -0.008737 0.000000 -0.027943 -0.011171 0.000000 -0.015417 -0.012671 0.000000 -0.001892 -0.013398 0.000000 0.012129 -0.012942 0.000000 0.024728 -0.011626 0.000000 0.036014 -0.009398 0.000000 0.044012 -0.006670 0.000000 0.049659 -0.003615 0.000000 0.051358 -0.000539 0.000000 0.050685 0.002330 0.000000 0.046501 0.004899 0.000000 0.040602 0.006946 0.000000 0.032272 0.008564 0.000000 0.023130 0.009563 0.000000 0.012812 0.010141 0.000000 0.002555 0.010160 0.000000 -0.007764 0.009837 0.000000 -0.017323 0.009104 0.000000 -0.026135 0.008134 0.000000 -0.033710 0.006926 0.000000 -0.040071 0.005587 0.000000 -0.044937 0.004161 0.000000 -0.048421 0.002692 0.000000 -0.050334 0.001250 0.000000 -0.050916 -0.000167 0.000000 -0.049989 -0.001487 0.000000 -0.047921 -0.002731 0.000000 -0.044505 -0.003840 0.000000 -0.040213 -0.004836 0.000000 -0.034806 -0.005681 0.000000 -0.028821 -0.006386 0.000000 -0.022006 -0.006937 0.000000 -0.014916 -0.007330 0.000000 -0.007319 -0.007570 0.000000 
0.000242 -0.015304 0.000000 0.008100 -0.015151 0.000000 0.015637 -0.014641 0.000000 0.022991 -0.013857 0.000000 0.029752 -0.012717 0.000000 0.035983 -0.011327 0.000000 0.041368 -0.009593 0.000000 0.045890 -0.007646 0.000000 0.049350 -0.005380 0.000000 0.051641 -0.002963 0.000000 0.052709 -0.000273 0.000000 0.052351 0.002469 0.000000 0.050708 0.005406 0.000000 0.047453 0.008242 0.000000 0.043005 0.011148 0.000000 0.036875 0.013740 0.000000 0.029861 0.016216 0.000000 0.021263 0.018117 0.000000 0.012361 0.019654 0.000000 0.002193 0.020354 0.000000 -0.007429 0.020410 0.000000 -0.017747 0.019439 0.000000 -0.026491 0.017566 0.000000 -0.035120 0.014646 0.000000 -0.041150 0.010669 0.000000 -0.046090 0.005884 0.000000 -0.047654 0.000126 0.000000 -0.047157 -0.005851 0.000000 -0.043038 -0.012263 0.000000 -0.036291 -0.017901 0.000000 -0.026633 -0.022924 0.000000 -0.014818 -0.026051 0.000000 -0.001996 -0.027546 0.000000 0.011384 -0.026620 0.000000 0.023272 -0.023885 0.000000 0.033914 -0.019285 0.000000 0.041197 -0.013645 0.000000 0.046268 -0.007346 0.000000 0.047413 -0.001026 0.000000 0.046395 0.004857 0.000000 0.041955 0.010082 0.000000 0.035981 0.014230 0.000000 0.027673 0.017472 0.000000 0.018652 0.019460 0.000000 0.008546 0.020575 0.000000 -0.001486 0.020576 0.000000 -0.011499 0.019878 0.000000 -0.020794 0.018371 0.000000 -0.029271 0.016387 0.000000 -0.036581 0.013936 0.000000 -0.042622 0.011227 0.000000 -0.047239 0.008350 0.000000 -0.050437 0.005397 0.000000 -0.052125 0.002495 0.000000 -0.052465 -0.000345 0.000000 -0.051339 -0.002995 0.000000 -0.049070 -0.005484 0.000000 -0.045481 -0.007708 0.000000 -0.041023 -0.009698 0.000000 -0.035464 -0.011392 0.000000 -0.029338 -0.012801 0.000000 -0.022386 -0.013905 0.000000 -0.015171 -0.014686 0.000000 -0.007448 -0.015168 0.000000 
0.000283 -0.023187 0.000000 0.008291 -0.022957 0.000000 0.015977 -0.022200 0.000000 0.023483 -0.021032 0.000000 0.030402 -0.019339 0.000000 0.036794 -0.017269 0.000000 0.042355 -0.014696 0.000000 0.047054 -0.011796 0.000000 0.050712 -0.008436 0.000000 0.053199 -0.004838 0.000000 0.054491 -0.000850 0.000000 0.054347 0.003229 0.000000 0.052947 0.007586 0.000000 0.049916 0.011801 0.000000 0.045716 0.016118 0.000000 0.039797 0.019966 0.000000 0.033012 0.023657 0.000000 0.024584 0.026477 0.000000 0.015853 0.028799 0.000000 0.005769 0.029847 0.000000 -0.003787 0.030011 0.000000 -0.014163 0.028629 0.000000 -0.023005 0.025999 0.000000 -0.031900 0.021827 0.000000 -0.038248 0.016169 0.000000 -0.043689 0.009343 0.000000 -0.045779 0.001086 0.000000 -0.045884 -0.007511 0.000000 -0.042319 -0.016877 0.000000 -0.036007 -0.025142 0.000000 -0.026671 -0.032644 0.000000 -0.014978 -0.037308 0.000000 -0.002217 -0.039600 0.000000 0.011177 -0.038210 0.000000 0.022988 -0.034156 0.000000 0.033465 -0.027323 0.000000 0.040426 -0.019024 0.000000 0.045077 -0.009831 0.000000 0.045707 -0.000665 0.000000 0.044185 0.007788 0.000000 0.039242 0.015313 0.000000 0.032877 0.021228 0.000000 0.024260 0.025893 0.000000 0.015054 0.028690 0.000000 0.004861 0.030279 0.000000 -0.005164 0.030204 0.000000 -0.015093 0.029145 0.000000 -0.024242 0.026877 0.000000 -0.032533 0.023921 0.000000 -0.039615 0.020277 0.000000 -0.045421 0.016244 0.000000 -0.049775 0.011977 0.000000 -0.052730 0.007579 0.000000 -0.054153 0.003277 0.000000 -0.054262 -0.000953 0.000000 -0.052890 -0.004882 0.000000 -0.050413 -0.008589 0.000000 -0.046605 -0.011887 0.000000 -0.041962 -0.014853 0.000000 -0.036211 -0.017366 0.000000 -0.029921 -0.019465 0.000000 -0.022798 -0.021103 0.000000 -0.015433 -0.022268 0.000000 -0.007552 -0.022983 0.000000 
0.000289 -0.031147 0.000000 0.008551 -0.030845 0.000000 0.016481 -0.029832 0.000000 0.024250 -0.028283 0.000000 0.031433 -0.026028 0.000000 0.038116 -0.023280 0.000000 0.043972 -0.019853 0.000000 0.049010 -0.016002 0.000000 0.053006 -0.011526 0.000000 0.055897 -0.006742 0.000000 0.057579 -0.001421 0.000000 0.057916 0.004012 0.000000 0.056965 0.009838 0.000000 0.054492 0.015473 0.000000 0.050802 0.021266 0.000000 0.045509 0.026444 0.000000 0.039293 0.031429 0.000000 0.031524 0.035276 0.000000 0.023411 0.038469 0.000000 0.013966 0.039995 0.000000 0.005039 0.040342 0.000000 -0.004820 0.038657 0.000000 -0.013135 0.035302 0.000000 -0.021814 0.029889 0.000000 -0.028004 0.022458 0.000000 -0.033812 0.013415 0.000000 -0.036480 0.002321 0.000000 -0.037782 -0.009312 0.000000 -0.035625 -0.022140 0.000000 -0.031035 -0.033549 0.000000 -0.023469 -0.043954 0.000000 -0.013490 -0.050504 0.000000 -0.002455 -0.053701 0.000000 0.009363 -0.051825 0.000000 0.019463 -0.046173 0.000000 0.028395 -0.036723 0.000000 0.033732 -0.025257 0.000000 0.037122 -0.012627 0.000000 0.036644 -0.000134 0.000000 0.034532 0.011323 0.000000 0.029234 0.021390 0.000000 0.022901 0.029212 0.000000 0.014497 0.035296 0.000000 0.005680 0.038858 0.000000 -0.003976 0.040792 0.000000 -0.013464 0.040530 0.000000 -0.022726 0.038956 0.000000 -0.031303 0.035811 0.000000 -0.038912 0.031760 0.000000 -0.045436 0.026824 0.000000 -0.050606 0.021387 0.000000 -0.054439 0.015659 0.000000 -0.056833 0.009775 0.000000 -0.057785 0.004027 0.000000 -0.057415 -0.001608 0.000000 -0.055626 -0.006844 0.000000 -0.052749 -0.011770 0.000000 -0.048576 -0.016158 0.000000 -0.043600 -0.020092 0.000000 -0.037530 -0.023434 0.000000 -0.030954 -0.026214 0.000000 -0.023549 -0.028393 0.000000 -0.015929 -0.029933 0.000000 -0.007788 -0.030884 0.000000 
0.000351 -0.039525 0.000000 0.008890 -0.039149 0.000000 0.017094 -0.037899 0.000000 0.025148 -0.035984 0.000000 0.032625 -0.033205 0.000000 0.039618 -0.029807 0.000000 0.045806 -0.025590 0.000000 0.051195 -0.020829 0.000000 0.055573 -0.015323 0.000000 0.058870 -0.009412 0.000000 0.060993 -0.002869 0.000000 0.061796 0.003843 0.000000 0.061349 0.011010 0.000000 0.059400 0.017964 0.000000 0.056271 0.025101 0.000000 0.051542 0.031476 0.000000 0.045927 0.037642 0.000000 0.038732 0.042358 0.000000 0.031224 0.046357 0.000000 0.022308 0.048220 0.000000 0.013923 0.048797 0.000000 0.004447 0.046803 0.000000 -0.003519 0.042993 0.000000 -0.012168 0.036695 0.000000 -0.018441 0.028168 0.000000 -0.024858 0.017819 0.000000 -0.028312 0.005057 0.000000 -0.030840 -0.008366 0.000000 -0.030081 -0.023624 0.000000 -0.026971 -0.037298 0.000000 -0.020973 -0.050189 0.000000 -0.012395 -0.058322 0.000000 -0.002797 -0.062453 0.000000 0.007738 -0.060128 0.000000 0.016481 -0.053187 0.000000 0.024131 -0.041592 0.000000 0.028171 -0.027751 0.000000 0.030401 -0.012743 0.000000 0.028857 0.001925 0.000000 0.025960 0.015198 0.000000 0.020011 0.026944 0.000000 0.013398 0.035966 0.000000 0.004926 0.043114 0.000000 -0.003725 0.047163 0.000000 -0.013033 0.049423 0.000000 -0.022079 0.048954 0.000000 -0.030786 0.046984 0.000000 -0.038790 0.043063 0.000000 -0.045778 0.038054 0.000000 -0.051689 0.031971 0.000000 -0.056249 0.025248 0.000000 -0.059487 0.018203 0.000000 -0.061321 0.010924 0.000000 -0.061726 0.003860 0.000000 -0.060866 -0.003112 0.000000 -0.058592 -0.009548 0.000000 -0.055295 -0.015639 0.000000 -0.050702 -0.021037 0.000000 -0.045367 -0.025899 0.000000 -0.038935 -0.030012 0.000000 -0.032048 -0.033445 0.000000 -0.024325 -0.036129 0.000000 -0.016424 -0.038030 0.000000 -0.007994 -0.039201 0.000000 
0.000377 -0.048032 0.000000 0.009278 -0.047587 0.000000 0.017834 -0.046090 0.000000 0.026263 -0.043815 0.000000 0.034124 -0.040499 0.000000 0.041534 -0.036460 0.000000 0.048158 -0.031430 0.000000 0.054037 -0.025769 0.000000 0.058921 -0.019200 0.000000 0.062812 -0.012163 0.000000 0.065530 -0.004348 0.000000 0.067058 0.003656 0.000000 0.067311 0.012234 0.000000 0.066241 0.020551 0.000000 0.063940 0.029124 0.000000 0.060257 0.036788 0.000000 0.055627 0.044240 0.000000 0.049640 0.049979 0.000000 0.043316 0.054893 0.000000 0.035736 0.057296 0.000000 0.028764 0.058203 0.000000 0.020663 0.056099 0.000000 0.014246 0.051917 0.000000 0.006751 0.044810 0.000000 0.001673 0.035148 0.000000 -0.004475 0.023286 0.000000 -0.008189 0.008303 0.000000 -0.012498 -0.007542 0.000000 -0.014306 -0.026009 0.000000 -0.014745 -0.042657 0.000000 -0.012783 -0.058530 0.000000 -0.008359 -0.068680 0.000000 -0.003096 -0.073834 0.000000 0.003370 -0.071104 0.000000 0.007907 -0.062566 0.000000 0.011874 -0.048412 0.000000 0.012467 -0.031528 0.000000 0.012310 -0.013313 0.000000 0.009123 0.004307 0.000000 0.005878 0.020168 0.000000 0.000184 0.033952 0.000000 -0.005500 0.044297 0.000000 -0.012825 0.052420 0.000000 -0.020162 0.056817 0.000000 -0.028034 0.059146 0.000000 -0.035799 0.058283 0.000000 -0.043099 0.055667 0.000000 -0.049965 0.050803 0.000000 -0.055699 0.044658 0.000000 -0.060617 0.037295 0.000000 -0.064109 0.029185 0.000000 -0.066482 0.020731 0.000000 -0.067431 0.012014 0.000000 -0.067086 0.003571 0.000000 -0.065501 -0.004742 0.000000 -0.062581 -0.012415 0.000000 -0.058694 -0.019660 0.000000 -0.053546 -0.026086 0.000000 -0.047726 -0.031859 0.000000 -0.040818 -0.036753 0.000000 -0.033521 -0.040823 0.000000 -0.025383 -0.044016 0.000000 -0.017119 -0.046263 0.000000 -0.008313 -0.047659 0.000000 
0.000466 -0.057116 0.000000 0.009747 -0.056606 0.000000 0.018678 -0.054884 0.000000 0.027502 -0.052274 0.000000 0.035774 -0.048476 0.000000 0.043624 -0.043841 0.000000 0.050720 -0.038093 0.000000 0.057113 -0.031593 0.000000 0.062556 -0.024098 0.000000 0.067064 -0.016020 0.000000 0.070453 -0.007115 0.000000 0.072729 0.002062 0.000000 0.073795 0.011827 0.000000 0.073628 0.021335 0.000000 0.072313 0.031085 0.000000 0.069702 0.039789 0.000000 0.066247 0.048259 0.000000 0.061496 0.054670 0.000000 0.056525 0.060261 0.000000 0.050310 0.062771 0.000000 0.044810 0.063869 0.000000 0.038086 0.061322 0.000000 0.033068 0.056906 0.000000 0.026555 0.049268 0.000000 0.022282 0.039393 0.000000 0.015796 0.027681 0.000000 0.011363 0.013080 0.000000 0.005199 -0.002249 0.000000 0.000872 -0.021377 0.000000 -0.002657 -0.038821 0.000000 -0.004596 -0.056575 0.000000 -0.004242 -0.068009 0.000000 -0.003478 -0.074182 0.000000 -0.001267 -0.071130 0.000000 -0.000851 -0.061692 0.000000 -0.000409 -0.046152 0.000000 -0.002710 -0.028187 0.000000 -0.005025 -0.009399 0.000000 -0.009736 0.008356 0.000000 -0.013751 0.024136 0.000000 -0.019936 0.038323 0.000000 -0.025254 0.048976 0.000000 -0.031791 0.057775 0.000000 -0.038036 0.062373 0.000000 -0.044544 0.065060 0.000000 -0.050963 0.064019 0.000000 -0.056810 0.061150 0.000000 -0.062337 0.055662 0.000000 -0.066731 0.048706 0.000000 -0.070430 0.040381 0.000000 -0.072767 0.031113 0.000000 -0.074084 0.021525 0.000000 -0.074074 0.011528 0.000000 -0.072839 0.001930 0.000000 -0.070474 -0.007617 0.000000 -0.066813 -0.016356 0.000000 -0.062292 -0.024674 0.000000 -0.056527 -0.032004 0.000000 -0.050187 -0.038627 0.000000 -0.042762 -0.044216 0.000000 -0.035027 -0.048880 0.000000 -0.026445 -0.052531 0.000000 -0.017794 -0.055100 0.000000 -0.008591 -0.056697 0.000000 
0.000520 -0.066370 0.000000 0.010230 -0.065800 0.000000 0.019588 -0.063844 0.000000 0.028856 -0.060911 0.000000 0.037603 -0.056621 0.000000 0.045956 -0.051406 0.000000 0.053606 -0.044920 0.000000 0.060608 -0.037605 0.000000 0.066714 -0.029151 0.000000 0.071989 -0.020060 0.000000 0.076185 -0.010012 0.000000 0.079451 0.000314 0.000000 0.081517 0.011335 0.000000 0.082633 0.022033 0.000000 0.082564 0.033049 0.000000 0.081588 0.042854 0.000000 0.079688 0.052446 0.000000 0.076939 0.059702 0.000000 0.073916 0.066079 0.000000 0.070049 0.069010 0.000000 0.067040 0.070427 0.000000 0.062963 0.067841 0.000000 0.061096 0.063448 0.000000 0.057364 0.055597 0.000000 0.056423 0.045907 0.000000 0.052057 0.034205 0.000000 0.048727 0.018900 0.000000 0.040275 0.002948 0.000000 0.031751 -0.018153 0.000000 0.021800 -0.037189 0.000000 0.012031 -0.056944 0.000000 0.004197 -0.069798 0.000000 -0.003708 -0.076809 0.000000 -0.009738 -0.073731 0.000000 -0.017759 -0.063424 0.000000 -0.024675 -0.046554 0.000000 -0.033462 -0.026911 0.000000 -0.039895 -0.006287 0.000000 -0.046627 0.013033 0.000000 -0.049737 0.030368 0.000000 -0.053845 0.045455 0.000000 -0.056277 0.056153 0.000000 -0.059985 0.065203 0.000000 -0.063432 0.069569 0.000000 -0.067131 0.072073 0.000000 -0.071228 0.070549 0.000000 -0.074604 0.067041 0.000000 -0.078216 0.060724 0.000000 -0.080547 0.052751 0.000000 -0.082646 0.043331 0.000000 -0.083327 0.032839 0.000000 -0.083318 0.022038 0.000000 -0.082019 0.010770 0.000000 -0.079696 -0.000029 0.000000 -0.076341 -0.010769 0.000000 -0.071788 -0.020598 0.000000 -0.066501 -0.029946 0.000000 -0.060001 -0.038191 0.000000 -0.053056 -0.045624 0.000000 -0.045021 -0.051913 0.000000 -0.036788 -0.057140 0.000000 -0.027691 -0.061249 0.000000 -0.018606 -0.064118 0.000000 -0.008948 -0.065918 0.000000 
0.000644 -0.076295 0.000000 0.010788 -0.075674 0.000000 0.020575 -0.073510 0.000000 0.030300 -0.070289 0.000000 0.039531 -0.065576 0.000000 0.048409 -0.059844 0.000000 0.056636 -0.052744 0.000000 0.064281 -0.044701 0.000000 0.071101 -0.035479 0.000000 0.077197 -0.025492 0.000000 0.082305 -0.014577 0.000000 0.086643 -0.003269 0.000000 0.089899 0.008645 0.000000 0.092411 0.020287 0.000000 0.093888 0.032130 0.000000 0.094666 0.042665 0.000000 0.094686 0.052908 0.000000 0.094005 0.060441 0.000000 0.093212 0.067151 0.000000 0.091645 0.069647 0.000000 0.091088 0.070956 0.000000 0.089490 0.067266 0.000000 0.090109 0.062504 0.000000 0.088560 0.053942 0.000000 0.089448 0.044700 0.000000 0.084489 0.035376 0.000000 0.080438 0.024862 0.000000 0.069476 0.014726 0.000000 0.057653 -0.002902 0.000000 0.043632 -0.019100 0.000000 0.027544 -0.038972 0.000000 0.012513 -0.052271 0.000000 -0.003916 -0.060247 0.000000 -0.018155 -0.057079 0.000000 -0.033815 -0.046755 0.000000 -0.046771 -0.030449 0.000000 -0.059668 -0.012967 0.000000 -0.068849 0.003765 0.000000 -0.077118 0.018198 0.000000 -0.080962 0.031354 0.000000 -0.086063 0.044863 0.000000 -0.087566 0.055115 0.000000 -0.089436 0.064930 0.000000 -0.090832 0.069518 0.000000 -0.091989 0.072857 0.000000 -0.093774 0.071492 0.000000 -0.094669 0.068138 0.000000 -0.096038 0.061606 0.000000 -0.096142 0.053136 0.000000 -0.096231 0.043161 0.000000 -0.095045 0.031785 0.000000 -0.093367 0.020217 0.000000 -0.090603 0.007906 0.000000 -0.086967 -0.003748 0.000000 -0.082503 -0.015525 0.000000 -0.076933 -0.026196 0.000000 -0.070811 -0.036460 0.000000 -0.063517 -0.045449 0.000000 -0.055927 -0.053608 0.000000 -0.047256 -0.060484 0.000000 -0.038505 -0.066209 0.000000 -0.028884 -0.070714 0.000000 -0.019354 -0.073843 0.000000 -0.009240 -0.075822 0.000000 
0.000736 -0.086398 0.000000 0.011308 -0.085732 0.000000 0.021530 -0.083356 0.000000 0.031698 -0.079866 0.000000 0.041436 -0.074730 0.000000 0.050832 -0.068511 0.000000 0.059682 -0.060792 0.000000 0.067992 -0.052071 0.000000 0.075602 -0.042067 0.000000 0.082603 -0.031264 0.000000 0.088743 -0.019458 0.000000 0.094354 -0.007280 0.000000 0.098967 0.005567 0.000000 0.103247 0.018044 0.000000 0.106455 0.030795 0.000000 0.109527 0.042057 0.000000 0.111588 0.053107 0.000000 0.113591 0.061176 0.000000 0.115045 0.068439 0.000000 0.116348 0.071134 0.000000 0.118459 0.072582 0.000000 0.119867 0.068820 0.000000 0.124315 0.064378 0.000000 0.126201 0.056258 0.000000 0.132932 0.049978 0.000000 0.133776 0.043215 0.000000 0.134165 0.033913 0.000000 0.120447 0.025734 0.000000 0.102647 0.007690 0.000000 0.079098 -0.007080 0.000000 0.050992 -0.025825 0.000000 0.024446 -0.038337 0.000000 -0.003763 -0.046141 0.000000 -0.029134 -0.043832 0.000000 -0.057013 -0.034807 0.000000 -0.081346 -0.020701 0.000000 -0.104594 -0.004834 0.000000 -0.120389 0.011163 0.000000 -0.130693 0.025145 0.000000 -0.130252 0.039313 0.000000 -0.129470 0.052059 0.000000 -0.125585 0.059526 0.000000 -0.123687 0.068468 0.000000 -0.121782 0.072122 0.000000 -0.119594 0.075015 0.000000 -0.118981 0.073229 0.000000 -0.116907 0.069305 0.000000 -0.116076 0.062197 0.000000 -0.113510 0.052944 0.000000 -0.111480 0.042235 0.000000 -0.108031 0.029976 0.000000 -0.104489 0.017595 0.000000 -0.099973 0.004370 0.000000 -0.094837 -0.008128 0.000000 -0.089103 -0.020802 0.000000 -0.082376 -0.032290 0.000000 -0.075347 -0.043362 0.000000 -0.067163 -0.053074 0.000000 -0.058909 -0.061885 0.000000 -0.049543 -0.069334 0.000000 -0.040277 -0.075512 0.000000 -0.030100 -0.080401 0.000000 -0.020136 -0.083762 0.000000 -0.009557 -0.085916 0.000000 
0.000905 -0.097159 0.000000 0.011872 -0.096467 0.000000 0.022495 -0.093900 0.000000 0.033089 -0.090195 0.000000 0.043304 -0.084711 0.000000 0.053224 -0.078090 0.000000 0.062683 -0.069904 0.000000 0.071692 -0.060621 0.000000 0.080120 -0.050091 0.000000 0.088109 -0.038632 0.000000 0.095389 -0.026328 0.000000 0.102418 -0.013494 0.000000 0.108630 -0.000248 0.000000 0.114846 0.012799 0.000000 0.120146 0.025850 0.000000 0.125548 0.037532 0.000000 0.129960 0.048844 0.000000 0.134262 0.056984 0.000000 0.137898 0.064394 0.000000 0.141130 0.066234 0.000000 0.145171 0.067436 0.000000 0.148597 0.061409 0.000000 0.154865 0.056170 0.000000 0.159658 0.045325 0.000000 0.167643 0.037126 0.000000 0.163235 0.034143 0.000000 0.160570 0.038191 0.000000 0.143890 0.046245 0.000000 0.125445 0.038447 0.000000 0.102536 0.032555 0.000000 0.069717 0.015680 0.000000 0.035830 0.002483 0.000000 -0.003038 -0.006666 0.000000 -0.038820 -0.003829 0.000000 -0.075670 0.005457 0.000000 -0.105282 0.017132 0.000000 -0.129230 0.026076 0.000000 -0.144905 0.029864 0.000000 -0.154999 0.028062 0.000000 -0.157092 0.030131 0.000000 -0.162664 0.040195 0.000000 -0.159358 0.049333 0.000000 -0.155021 0.061127 0.000000 -0.151643 0.065425 0.000000 -0.147125 0.070056 0.000000 -0.144743 0.068805 0.000000 -0.140477 0.065233 0.000000 -0.137479 0.058209 0.000000 -0.132474 0.048540 0.000000 -0.127994 0.037683 0.000000 -0.122134 0.024794 0.000000 -0.116334 0.012159 0.000000 -0.109828 -0.001746 0.000000 -0.102919 -0.014618 0.000000 -0.095740 -0.027986 0.000000 -0.087729 -0.039951 0.000000 -0.079707 -0.051673 0.000000 -0.070603 -0.061887 0.000000 -0.061657 -0.071228 0.000000 -0.051615 -0.079116 0.000000 -0.041841 -0.085652 0.000000 -0.031145 -0.090855 0.000000 -0.020771 -0.094386 0.000000 -0.009765 -0.096694 0.000000 
0.001049 -0.108034 0.000000 0.012323 -0.107321 0.000000 0.023280 -0.104573 0.000000 0.034195 -0.100676 0.000000 0.044845 -0.094864 0.000000 0.055176 -0.087889 0.000000 0.065236 -0.079261 0.000000 0.074850 -0.069507 0.000000 0.084131 -0.058484 0.000000 0.093076 -0.046534 0.000000 0.101589 -0.033767 0.000000 0.110118 -0.020521 0.000000 0.118031 -0.006861 0.000000 0.126382 0.006528 0.000000 0.133665 0.020093 0.000000 0.141524 0.032243 0.000000 0.147494 0.044392 0.000000 0.153791 0.053237 0.000000 0.157720 0.061571 0.000000 0.161998 0.063861 0.000000 0.165536 0.065115 0.000000 0.169232 0.059126 0.000000 0.176084 0.053317 0.000000 0.179292 0.043479 0.000000 0.194051 0.046401 0.000000 0.204723 0.050288 0.000000 0.215229 0.053257 0.000000 0.195666 0.060859 0.000000 0.170527 0.049044 0.000000 0.136589 0.048648 0.000000 0.088944 0.040881 0.000000 0.045230 0.034418 0.000000 -0.001537 0.028509 0.000000 -0.044330 0.028799 0.000000 -0.092430 0.031654 0.000000 -0.135455 0.032860 0.000000 -0.173573 0.034789 0.000000 -0.199996 0.036932 0.000000 -0.212035 0.037333 0.000000 -0.200694 0.046978 0.000000 -0.190234 0.054325 0.000000 -0.179313 0.051883 0.000000 -0.175132 0.060753 0.000000 -0.172100 0.064225 0.000000 -0.166641 0.068115 0.000000 -0.165248 0.066581 0.000000 -0.160139 0.062041 0.000000 -0.156961 0.054194 0.000000 -0.150283 0.043459 0.000000 -0.144188 0.031895 0.000000 -0.136082 0.018316 0.000000 -0.128142 0.005289 0.000000 -0.119578 -0.009045 0.000000 -0.110776 -0.022216 0.000000 -0.102106 -0.035992 0.000000 -0.092688 -0.048323 0.000000 -0.083703 -0.060489 0.000000 -0.073616 -0.071124 0.000000 -0.064060 -0.080873 0.000000 -0.053335 -0.089151 0.000000 -0.043149 -0.095982 0.000000 -0.031969 -0.101471 0.000000 -0.021280 -0.105142 0.000000 -0.009913 -0.107592 0.000000 
0.001272 -0.119395 0.000000 0.012754 -0.118697 0.000000 0.023943 -0.115772 0.000000 0.035104 -0.111761 0.000000 0.046091 -0.105693 0.000000 0.056792 -0.098481 0.000000 0.067364 -0.089577 0.000000 0.077593 -0.079516 0.000000 0.087678 -0.068317 0.000000 0.097665 -0.056090 0.000000 0.107440 -0.043370 0.000000 0.117624 -0.029936 0.000000 0.127351 -0.016512 0.000000 0.137879 -0.002835 0.000000 0.147176 0.010708 0.000000 0.156908 0.023703 0.000000 0.163944 0.036577 0.000000 0.170324 0.046759 0.000000 0.173297 0.056187 0.000000 0.175490 0.058417 0.000000 0.177450 0.060203 0.000000 0.179464 0.050862 0.000000 0.185786 0.046110 0.000000 0.198878 0.027357 0.000000 0.212804 0.011695 0.000000 0.197868 0.012965 0.000000 0.189745 0.047248 0.000000 0.169511 0.090948 0.000000 0.159809 0.097523 0.000000 0.150675 0.114138 0.000000 0.114744 0.107039 0.000000 0.067557 0.092965 0.000000 0.002879 0.082894 0.000000 -0.057737 0.087065 0.000000 -0.114269 0.096582 0.000000 -0.151253 0.098275 0.000000 -0.168323 0.090617 0.000000 -0.176378 0.068326 0.000000 -0.182366 0.028760 0.000000 -0.188959 0.008331 0.000000 -0.208091 0.018814 0.000000 -0.201859 0.034231 0.000000 -0.187689 0.053915 0.000000 -0.183823 0.056934 0.000000 -0.178581 0.063204 0.000000 -0.178922 0.062303 0.000000 -0.175544 0.056945 0.000000 -0.173446 0.048352 0.000000 -0.166771 0.035768 0.000000 -0.159608 0.023482 0.000000 -0.149753 0.008747 0.000000 -0.139644 -0.004345 0.000000 -0.128953 -0.019112 0.000000 -0.118123 -0.032091 0.000000 -0.107815 -0.046074 0.000000 -0.096954 -0.058354 0.000000 -0.086947 -0.070745 0.000000 -0.075939 -0.081530 0.000000 -0.065794 -0.091509 0.000000 -0.054492 -0.100027 0.000000 -0.043962 -0.107018 0.000000 -0.032416 -0.112724 0.000000 -0.021501 -0.116442 0.000000 -0.009885 -0.119023 0.000000 
0.001481 -0.130673 0.000000 0.012969 -0.129993 0.000000 0.024222 -0.126923 0.000000 0.035398 -0.122823 0.000000 0.046581 -0.116552 0.000000 0.057395 -0.109162 0.000000 0.068384 -0.100062 0.000000 0.078958 -0.089822 0.000000 0.089815 -0.078556 0.000000 0.100592 -0.066295 0.000000 0.111652 -0.053726 0.000000 0.123269 -0.040432 0.000000 0.134716 -0.027117 0.000000 0.147042 -0.013297 0.000000 0.157529 0.001064 0.000000 0.168018 0.015475 0.000000 0.173454 0.030977 0.000000 0.177620 0.043884 0.000000 0.174710 0.056405 0.000000 0.173293 0.059708 0.000000 0.168659 0.061141 0.000000 0.169979 0.050790 0.000000 0.170843 0.033903 0.000000 0.160360 0.016462 0.000000 0.176357 0.047412 0.000000 0.222898 0.073346 0.000000 0.249129 0.081614 0.000000 0.225026 0.090795 0.000000 0.190954 0.067880 0.000000 0.155415 0.093713 0.000000 0.111399 0.124000 0.000000 0.069130 0.146283 0.000000 0.006922 0.153803 0.000000 -0.048878 0.145947 0.000000 -0.099419 0.125170 0.000000 -0.146225 0.086914 0.000000 -0.187625 0.059915 0.000000 -0.228450 0.050975 0.000000 -0.257952 0.049913 0.000000 -0.233577 0.072702 0.000000 -0.182622 0.067226 0.000000 -0.164367 0.031481 0.000000 -0.169202 0.042717 0.000000 -0.173496 0.055118 0.000000 -0.167367 0.063214 0.000000 -0.174475 0.063545 0.000000 -0.175707 0.056565 0.000000 -0.179397 0.045421 0.000000 -0.175840 0.029621 0.000000 -0.170299 0.014877 0.000000 -0.160270 -0.001648 0.000000 -0.148894 -0.015511 0.000000 -0.136613 -0.030567 0.000000 -0.123856 -0.043354 0.000000 -0.112135 -0.057160 0.000000 -0.099775 -0.069191 0.000000 -0.088954 -0.081504 0.000000 -0.077024 -0.092277 0.000000 -0.066521 -0.102319 0.000000 -0.054720 -0.110983 0.000000 -0.044075 -0.118058 0.000000 -0.032296 -0.123932 0.000000 -0.021369 -0.127673 0.000000 -0.009676 -0.130364 0.000000 
0.001758 -0.142040 0.000000 0.013056 -0.141438 0.000000 0.024174 -0.138201 0.000000 0.035197 -0.134120 0.000000 0.046376 -0.127690 0.000000 0.057174 -0.120284 0.000000 0.068375 -0.111140 0.000000 0.079229 -0.100947 0.000000 0.090649 -0.089951 0.000000 0.102239 -0.077927 0.000000 0.114353 -0.066047 0.000000 0.127416 -0.053000 0.000000 0.140168 -0.040285 0.000000 0.153819 -0.025647 0.000000 0.164386 -0.010268 0.000000 0.173649 0.007777 0.000000 0.175119 0.026975 0.000000 0.173119 0.045503 0.000000 0.162407 0.060514 0.000000 0.153486 0.064468 0.000000 0.147085 0.063517 0.000000 0.141085 0.048678 0.000000 0.153846 0.055730 0.000000 0.218013 0.021842 0.000000 0.231001 -0.050844 0.000000 0.207058 -0.059807 0.000000 0.132074 0.045120 0.000000 0.082093 0.149123 0.000000 0.035837 0.167134 0.000000 -0.006296 0.193693 0.000000 -0.018289 0.193323 0.000000 -0.012419 0.197441 0.000000 0.002777 0.200902 0.000000 0.022506 0.193406 0.000000 0.029564 0.193929 0.000000 0.021188 0.186481 0.000000 -0.020121 0.172841 0.000000 -0.073005 0.138653 0.000000 -0.153885 0.033888 0.000000 -0.239261 -0.066999 0.000000 -0.251469 -0.050396 0.000000 -0.239930 0.020810 0.000000 -0.169658 0.063043 0.000000 -0.150185 0.055100 0.000000 -0.145347 0.064182 0.000000 -0.154201 0.070643 0.000000 -0.161943 0.061867 0.000000 -0.173192 0.048485 0.000000 -0.176244 0.026670 0.000000 -0.174749 0.007911 0.000000 -0.166519 -0.012658 0.000000 -0.155031 -0.028001 0.000000 -0.141723 -0.044150 0.000000 -0.127469 -0.056569 0.000000 -0.114421 -0.070155 0.000000 -0.100813 -0.081535 0.000000 -0.089248 -0.093496 0.000000 -0.076643 -0.103963 0.000000 -0.065917 -0.113813 0.000000 -0.053866 -0.122473 0.000000 -0.043281 -0.129441 0.000000 -0.031506 -0.135431 0.000000 -0.020756 -0.139062 0.000000 -0.009205 -0.141873 0.000000 