# vtk DataFile Version 2.0
Comment goes here
ASCII

DATASET STRUCTURED_POINTS
FIELD FieldData 1
TIME 1 1 double
0.01000000
DIMENSIONS    64   64   1

ORIGIN    0.000   0.000   0.000
SPACING   0.015625 0.015625   1.000

POINT_DATA   4096
VECTORS u double

0.000002 0.000000 0.000000 0.010557 0.000000 0.000000 0.021261 0.000000 0.000000 0.032057 0.000000 0.000000 0.043287 0.000000 0.000000 0.054715 0.000000 0.000000 0.066855 -0.000000 0.000000 0.079317 -0.000000 0.000000 0.092757 -0.000000 0.000000 0.106661 -0.000000 0.000000 0.121782 -0.000000 0.000000 0.137522 -0.000000 0.000000 0.154669 0.000000 0.000000 0.172568 0.000000 0.000000 0.191975 0.000000 0.000000 0.212179 0.000000 0.000000 0.233805 0.000000 0.000000 0.256054 -0.000000 0.000000 0.279276 -0.000000 0.000000 0.302490 -0.000000 0.000000 0.325521 0.000000 0.000000 0.347068 -0.000000 0.000000 0.366017 0.000000 0.000000 0.380649 -0.000000 0.000000 0.388360 0.000000 0.000000 0.387226 -0.000000 0.000000 0.373131 0.000000 0.000000 0.344929 -0.000000 0.000000 0.299705 0.000000 0.000000 0.238600 -0.000000 0.000000 0.167136 0.000000 0.000000 0.086425 -0.000000 0.000000 -0.000011 0.000000 0.000000 -0.086463 -0.000000 0.000000 -0.167152 -0.000000 0.000000 -0.238599 0.000000 0.000000 -0.299696 -0.000000 0.000000 -0.344900 0.000000 0.000000 -0.373121 -0.000000 0.000000 -0.387209 0.000000 0.000000 -0.388361 0.000000 0.000000 -0.380644 0.000000 0.000000 -0.366022 -0.000000 0.000000 -0.347069 -0.000000 0.000000 -0.325527 -0.000000 0.000000 -0.302492 -0.000000 0.000000 -0.279280 0.000000 0.000000 -0.256057 -0.000000 0.000000 -0.233806 -0.000000 0.000000 -0.212180 -0.000000 0.000000 -0.191974 -0.000000 0.000000 -0.172570 -0.000000 0.000000 -0.154667 -0.000000 0.000000 -0.137523 0.000000 0.000000 -0.121779 0.000000 0.000000 -0.106662 0.000000 0.000000 -0.092753 0.000000 0.000000 -0.079318 0.000000 0.000000 -0.066851 0.000000 0.000000 -0.054716 0.000000 0.000000 -0.043283 0.000000 0.000000 -0.032058 -0.000000 0.000000 -0.021258 -0.000000 0.000000 -0.010558 -0.000000 0.000000 
0.000001 -0.010558 0.000000 0.010478 -0.010630 0.000000 0.021104 -0.010750 0.000000 0.031818 -0.011013 0.000000 0.042969 -0.011329 0.000000 0.054309 -0.011784 0.000000 0.066368 -0.012301 0.000000 0.078736 -0.012951 0.000000 0.092090 -0.013672 0.000000 0.105895 -0.014513 0.000000 0.120928 -0.015430 0.000000 0.136569 -0.016443 0.000000 0.153632 -0.017523 0.000000 0.171449 -0.018653 0.000000 0.190793 -0.019805 0.000000 0.210966 -0.020915 0.000000 0.232594 -0.021938 0.000000 0.254933 -0.022736 0.000000 0.278324 -0.023218 0.000000 0.301880 -0.023122 0.000000 0.325472 -0.022289 0.000000 0.347853 -0.020248 0.000000 0.368205 -0.016791 0.000000 0.384566 -0.011172 0.000000 0.395261 -0.003289 0.000000 0.397370 0.007614 0.000000 0.388472 0.021149 0.000000 0.365639 0.036713 0.000000 0.326111 0.053164 0.000000 0.270427 0.066285 0.000000 0.192459 0.076088 0.000000 0.100210 0.083574 0.000000 -0.000009 0.086444 0.000000 -0.100247 0.083570 0.000000 -0.192482 0.076068 0.000000 -0.270421 0.066272 0.000000 -0.326093 0.053150 0.000000 -0.365612 0.036712 0.000000 -0.388465 0.021154 0.000000 -0.397364 0.007620 0.000000 -0.395269 -0.003283 0.000000 -0.384565 -0.011169 0.000000 -0.368211 -0.016788 0.000000 -0.347850 -0.020248 0.000000 -0.325474 -0.022288 0.000000 -0.301876 -0.023123 0.000000 -0.278322 -0.023218 0.000000 -0.254930 -0.022737 0.000000 -0.232591 -0.021938 0.000000 -0.210964 -0.020916 0.000000 -0.190789 -0.019805 0.000000 -0.171449 -0.018653 0.000000 -0.153629 -0.017523 0.000000 -0.136570 -0.016444 0.000000 -0.120926 -0.015430 0.000000 -0.105897 -0.014513 0.000000 -0.092088 -0.013672 0.000000 -0.078738 -0.012951 0.000000 -0.066366 -0.012301 0.000000 -0.054312 -0.011784 0.000000 -0.042967 -0.011329 0.000000 -0.031821 -0.011013 0.000000 -0.021103 -0.010750 0.000000 -0.010481 -0.010630 0.000000 
0.000002 -0.020958 0.000000 0.010365 -0.021103 0.000000 0.020878 -0.021340 0.000000 0.031478 -0.021865 0.000000 0.042516 -0.022491 0.000000 0.053742 -0.023399 0.000000 0.065688 -0.024427 0.000000 0.077947 -0.025722 0.000000 0.091195 -0.027159 0.000000 0.104903 -0.028838 0.000000 0.119852 -0.030674 0.000000 0.135429 -0.032704 0.000000 0.152460 -0.034880 0.000000 0.170287 -0.037161 0.000000 0.189712 -0.039516 0.000000 0.210046 -0.041801 0.000000 0.231984 -0.043968 0.000000 0.254774 -0.045730 0.000000 0.278889 -0.046947 0.000000 0.303417 -0.047148 0.000000 0.328394 -0.045973 0.000000 0.352565 -0.042733 0.000000 0.375091 -0.036713 0.000000 0.394150 -0.027057 0.000000 0.407150 -0.012805 0.000000 0.411673 0.006789 0.000000 0.402245 0.031731 0.000000 0.376945 0.062361 0.000000 0.329216 0.095212 0.000000 0.261390 0.133652 0.000000 0.184322 0.170217 0.000000 0.096739 0.192469 0.000000 -0.000014 0.200457 0.000000 -0.096796 0.192473 0.000000 -0.184346 0.170174 0.000000 -0.261384 0.133611 0.000000 -0.329196 0.095191 0.000000 -0.376898 0.062372 0.000000 -0.402229 0.031752 0.000000 -0.411656 0.006804 0.000000 -0.407153 -0.012799 0.000000 -0.394148 -0.027058 0.000000 -0.375099 -0.036715 0.000000 -0.352568 -0.042738 0.000000 -0.328401 -0.045974 0.000000 -0.303421 -0.047151 0.000000 -0.278893 -0.046946 0.000000 -0.254777 -0.045732 0.000000 -0.231984 -0.043966 0.000000 -0.210047 -0.041801 0.000000 -0.189711 -0.039515 0.000000 -0.170288 -0.037160 0.000000 -0.152457 -0.034879 0.000000 -0.135429 -0.032704 0.000000 -0.119848 -0.030673 0.000000 -0.104904 -0.028838 0.000000 -0.091191 -0.027159 0.000000 -0.077947 -0.025722 0.000000 -0.065685 -0.024426 0.000000 -0.053743 -0.023399 0.000000 -0.042512 -0.022491 0.000000 -0.031479 -0.021865 0.000000 -0.020875 -0.021340 0.000000 -0.010366 -0.021103 0.000000 
0.000001 -0.031290 0.000000 0.010096 -0.031506 0.000000 0.020343 -0.031863 0.000000 0.030667 -0.032650 0.000000 0.041435 -0.033593 0.000000 0.052373 -0.034957 0.000000 0.064045 -0.036506 0.000000 0.076003 -0.038457 0.000000 0.088974 -0.040628 0.000000 0.102380 -0.043170 0.000000 0.117062 -0.045956 0.000000 0.132362 -0.049052 0.000000 0.149175 -0.052381 0.000000 0.166813 -0.055905 0.000000 0.186152 -0.059564 0.000000 0.206514 -0.063186 0.000000 0.228665 -0.066666 0.000000 0.251954 -0.069641 0.000000 0.276907 -0.071860 0.000000 0.302855 -0.072627 0.000000 0.329889 -0.071437 0.000000 0.357115 -0.066944 0.000000 0.383884 -0.058376 0.000000 0.408477 -0.043231 0.000000 0.429113 -0.020812 0.000000 0.441902 0.012519 0.000000 0.444017 0.055877 0.000000 0.429005 0.109742 0.000000 0.397171 0.168719 0.000000 0.345430 0.211179 0.000000 0.251484 0.240738 0.000000 0.130518 0.267910 0.000000 -0.000004 0.279980 0.000000 -0.130597 0.267902 0.000000 -0.251553 0.240656 0.000000 -0.345401 0.211122 0.000000 -0.397099 0.168665 0.000000 -0.428936 0.109746 0.000000 -0.444007 0.055912 0.000000 -0.441911 0.012543 0.000000 -0.429136 -0.020790 0.000000 -0.408485 -0.043223 0.000000 -0.383895 -0.058368 0.000000 -0.357112 -0.066946 0.000000 -0.329889 -0.071436 0.000000 -0.302849 -0.072631 0.000000 -0.276903 -0.071862 0.000000 -0.251950 -0.069646 0.000000 -0.228660 -0.066668 0.000000 -0.206512 -0.063190 0.000000 -0.186148 -0.059565 0.000000 -0.166814 -0.055907 0.000000 -0.149172 -0.052382 0.000000 -0.132364 -0.049053 0.000000 -0.117060 -0.045956 0.000000 -0.102383 -0.043170 0.000000 -0.088972 -0.040628 0.000000 -0.076006 -0.038458 0.000000 -0.064043 -0.036505 0.000000 -0.052377 -0.034957 0.000000 -0.041433 -0.033593 0.000000 -0.030670 -0.032650 0.000000 -0.020341 -0.031863 0.000000 -0.010099 -0.031506 0.000000 
0.000002 -0.041153 0.000000 0.009792 -0.041445 0.000000 0.019735 -0.041911 0.000000 0.029749 -0.042957 0.000000 0.040209 -0.044198 0.000000 0.050830 -0.046009 0.000000 0.062188 -0.048057 0.000000 0.073824 -0.050651 0.000000 0.086483 -0.053536 0.000000 0.099576 -0.056926 0.000000 0.113970 -0.060656 0.000000 0.129003 -0.064817 0.000000 0.145606 -0.069332 0.000000 0.163104 -0.074137 0.000000 0.182431 -0.079217 0.000000 0.202944 -0.084314 0.000000 0.225529 -0.089407 0.000000 0.249580 -0.093973 0.000000 0.275903 -0.097848 0.000000 0.303839 -0.100130 0.000000 0.334072 -0.100232 0.000000 0.365618 -0.096728 0.000000 0.398790 -0.088075 0.000000 0.431691 -0.072286 0.000000 0.462852 -0.046229 0.000000 0.488240 -0.008115 0.000000 0.499113 0.044628 0.000000 0.488950 0.109207 0.000000 0.428713 0.178787 0.000000 0.329756 0.279339 0.000000 0.237242 0.385129 0.000000 0.133811 0.443957 0.000000 -0.000014 0.461572 0.000000 -0.133945 0.444022 0.000000 -0.237318 0.384979 0.000000 -0.329722 0.279156 0.000000 -0.428635 0.178726 0.000000 -0.488815 0.109280 0.000000 -0.499078 0.044726 0.000000 -0.488237 -0.008067 0.000000 -0.462871 -0.046225 0.000000 -0.431704 -0.072298 0.000000 -0.398808 -0.088087 0.000000 -0.365628 -0.096744 0.000000 -0.334082 -0.100237 0.000000 -0.303844 -0.100137 0.000000 -0.275906 -0.097846 0.000000 -0.249582 -0.093974 0.000000 -0.225528 -0.089403 0.000000 -0.202944 -0.084314 0.000000 -0.182428 -0.079214 0.000000 -0.163105 -0.074136 0.000000 -0.145603 -0.069329 0.000000 -0.129004 -0.064816 0.000000 -0.113966 -0.060654 0.000000 -0.099576 -0.056926 0.000000 -0.086479 -0.053535 0.000000 -0.073825 -0.050651 0.000000 -0.062184 -0.048056 0.000000 -0.050831 -0.046009 0.000000 -0.040205 -0.044198 0.000000 -0.029750 -0.042957 0.000000 -0.019731 -0.041911 0.000000 -0.009793 -0.041445 0.000000 
0.000001 -0.050875 0.000000 0.009338 -0.051239 0.000000 0.018831 -0.051819 0.000000 0.028379 -0.053124 0.000000 0.038382 -0.054674 0.000000 0.048515 -0.056936 0.000000 0.059402 -0.059500 0.000000 0.070524 -0.062752 0.000000 0.082698 -0.066380 0.000000 0.095260 -0.070657 0.000000 0.109171 -0.075383 0.000000 0.123687 -0.080688 0.000000 0.139856 -0.086482 0.000000 0.156928 -0.092730 0.000000 0.175975 -0.099403 0.000000 0.196325 -0.106284 0.000000 0.219007 -0.113303 0.000000 0.243514 -0.120015 0.000000 0.270751 -0.126119 0.000000 0.300473 -0.130796 0.000000 0.333295 -0.133216 0.000000 0.369278 -0.131662 0.000000 0.408336 -0.124449 0.000000 0.450304 -0.107294 0.000000 0.493060 -0.077361 0.000000 0.531498 -0.023742 0.000000 0.556921 0.055167 0.000000 0.552199 0.180142 0.000000 0.548131 0.327913 0.000000 0.522203 0.402650 0.000000 0.381553 0.436684 0.000000 0.183310 0.505166 0.000000 0.000186 0.547735 0.000000 -0.183473 0.505206 0.000000 -0.381893 0.436433 0.000000 -0.522070 0.402438 0.000000 -0.547840 0.327758 0.000000 -0.552000 0.180189 0.000000 -0.556947 0.055334 0.000000 -0.531599 -0.023664 0.000000 -0.493142 -0.077324 0.000000 -0.450327 -0.107286 0.000000 -0.408351 -0.124444 0.000000 -0.369268 -0.131671 0.000000 -0.333287 -0.133220 0.000000 -0.300461 -0.130808 0.000000 -0.270741 -0.126123 0.000000 -0.243508 -0.120024 0.000000 -0.219000 -0.113306 0.000000 -0.196323 -0.106289 0.000000 -0.175970 -0.099405 0.000000 -0.156929 -0.092733 0.000000 -0.139853 -0.086483 0.000000 -0.123689 -0.080690 0.000000 -0.109169 -0.075383 0.000000 -0.095263 -0.070657 0.000000 -0.082697 -0.066380 0.000000 -0.070528 -0.062752 0.000000 -0.059401 -0.059500 0.000000 -0.048518 -0.056936 0.000000 -0.038381 -0.054674 0.000000 -0.028382 -0.053124 0.000000 -0.018830 -0.051819 0.000000 -0.009342 -0.051239 0.000000 
0.000002 -0.059833 0.000000 0.008848 -0.060276 0.000000 0.017850 -0.060951 0.000000 0.026894 -0.062508 0.000000 0.036397 -0.064334 0.000000 0.046004 -0.067029 0.000000 0.056372 -0.070066 0.000000 0.066944 -0.073947 0.000000 0.078578 -0.078272 0.000000 0.090573 -0.083399 0.000000 0.103938 -0.089083 0.000000 0.117904 -0.095502 0.000000 0.133565 -0.102572 0.000000 0.150183 -0.110257 0.000000 0.168877 -0.118614 0.000000 0.189044 -0.127346 0.000000 0.211797 -0.136597 0.000000 0.236764 -0.145717 0.000000 0.265121 -0.154806 0.000000 0.296740 -0.162674 0.000000 0.333201 -0.169037 0.000000 0.374368 -0.171768 0.000000 0.423065 -0.169101 0.000000 0.478228 -0.157009 0.000000 0.543293 -0.127423 0.000000 0.607083 -0.071977 0.000000 0.658657 0.023926 0.000000 0.663142 0.117998 0.000000 0.513291 0.208784 0.000000 0.194514 0.445917 0.000000 -0.084776 0.724022 0.000000 -0.129805 0.825324 0.000000 0.000247 0.828354 0.000000 0.129796 0.826102 0.000000 0.084126 0.723576 0.000000 -0.194795 0.445103 0.000000 -0.513028 0.208656 0.000000 -0.662923 0.118387 0.000000 -0.658668 0.024325 0.000000 -0.607186 -0.071872 0.000000 -0.543369 -0.127497 0.000000 -0.478271 -0.157089 0.000000 -0.423101 -0.169146 0.000000 -0.374387 -0.171807 0.000000 -0.333213 -0.169044 0.000000 -0.296746 -0.162683 0.000000 -0.265122 -0.154799 0.000000 -0.236765 -0.145716 0.000000 -0.211793 -0.136588 0.000000 -0.189044 -0.127343 0.000000 -0.168872 -0.118608 0.000000 -0.150183 -0.110254 0.000000 -0.133560 -0.102568 0.000000 -0.117904 -0.095500 0.000000 -0.103933 -0.089081 0.000000 -0.090574 -0.083398 0.000000 -0.078574 -0.078270 0.000000 -0.066944 -0.073947 0.000000 -0.056368 -0.070066 0.000000 -0.046005 -0.067028 0.000000 -0.036393 -0.064334 0.000000 -0.026895 -0.062508 0.000000 -0.017847 -0.060951 0.000000 -0.008849 -0.060276 0.000000 
0.000001 -0.068572 0.000000 0.008221 -0.069088 0.000000 0.016600 -0.069865 0.000000 0.024996 -0.071670 0.000000 0.033861 -0.073784 0.000000 0.042783 -0.076911 0.000000 0.052484 -0.080440 0.000000 0.062319 -0.084959 0.000000 0.073246 -0.090010 0.000000 0.084448 -0.096016 0.000000 0.097068 -0.102713 0.000000 0.110197 -0.110315 0.000000 0.125101 -0.118762 0.000000 0.140886 -0.128042 0.000000 0.158885 -0.138264 0.000000 0.178342 -0.149204 0.000000 0.200635 -0.161022 0.000000 0.225305 -0.173339 0.000000 0.253795 -0.186096 0.000000 0.286243 -0.198877 0.000000 0.324199 -0.210844 0.000000 0.369161 -0.221526 0.000000 0.422552 -0.228309 0.000000 0.487819 -0.227521 0.000000 0.554335 -0.206216 0.000000 0.582959 -0.139107 0.000000 0.442081 -0.000891 0.000000 -0.041777 0.325509 0.000000 -0.732411 0.796541 0.000000 -1.149128 1.000717 0.000000 -1.033641 0.761003 0.000000 -0.563930 0.420144 0.000000 -0.000128 0.288134 0.000000 0.564099 0.421327 0.000000 1.033715 0.761024 0.000000 1.148947 0.999593 0.000000 0.732546 0.795887 0.000000 0.041755 0.325829 0.000000 -0.442424 -0.000403 0.000000 -0.583359 -0.138963 0.000000 -0.554537 -0.206239 0.000000 -0.487805 -0.227554 0.000000 -0.422526 -0.228328 0.000000 -0.369113 -0.221558 0.000000 -0.324162 -0.210860 0.000000 -0.286217 -0.198899 0.000000 -0.253774 -0.186105 0.000000 -0.225297 -0.173352 0.000000 -0.200626 -0.161026 0.000000 -0.178342 -0.149211 0.000000 -0.158881 -0.138266 0.000000 -0.140889 -0.128045 0.000000 -0.125099 -0.118762 0.000000 -0.110202 -0.110316 0.000000 -0.097067 -0.102713 0.000000 -0.084453 -0.096017 0.000000 -0.073245 -0.090010 0.000000 -0.062323 -0.084958 0.000000 -0.052482 -0.080439 0.000000 -0.042787 -0.076911 0.000000 -0.033860 -0.073783 0.000000 -0.025000 -0.071670 0.000000 -0.016598 -0.069865 0.000000 -0.008224 -0.069088 0.000000 
0.000002 -0.076278 0.000000 0.007555 -0.076875 0.000000 0.015268 -0.077727 0.000000 0.022976 -0.079769 0.000000 0.031156 -0.082121 0.000000 0.039348 -0.085651 0.000000 0.048325 -0.089602 0.000000 0.057373 -0.094710 0.000000 0.067521 -0.100402 0.000000 0.077870 -0.107221 0.000000 0.089640 -0.114831 0.000000 0.101856 -0.123534 0.000000 0.115838 -0.133261 0.000000 0.130681 -0.144041 0.000000 0.147715 -0.156071 0.000000 0.166287 -0.169097 0.000000 0.187662 -0.183559 0.000000 0.211691 -0.198877 0.000000 0.239584 -0.215745 0.000000 0.271990 -0.233078 0.000000 0.310506 -0.251956 0.000000 0.356405 -0.270121 0.000000 0.412721 -0.287760 0.000000 0.470614 -0.288792 0.000000 0.479020 -0.222563 0.000000 0.234304 0.040277 0.000000 -0.470867 0.648662 0.000000 -1.335906 1.292490 0.000000 -1.577363 1.316135 0.000000 -1.127560 0.747146 0.000000 -0.575378 0.138824 0.000000 -0.216618 -0.208188 0.000000 -0.000119 -0.299675 0.000000 0.216925 -0.207742 0.000000 0.576207 0.138728 0.000000 1.128221 0.746272 0.000000 1.577538 1.315848 0.000000 1.335260 1.293357 0.000000 0.470420 0.649438 0.000000 -0.234169 0.040240 0.000000 -0.479027 -0.223051 0.000000 -0.470632 -0.289100 0.000000 -0.412756 -0.287838 0.000000 -0.356420 -0.270171 0.000000 -0.310508 -0.251940 0.000000 -0.271988 -0.233072 0.000000 -0.239575 -0.215720 0.000000 -0.211686 -0.198864 0.000000 -0.187652 -0.183542 0.000000 -0.166284 -0.169088 0.000000 -0.147706 -0.156061 0.000000 -0.130680 -0.144036 0.000000 -0.115831 -0.133256 0.000000 -0.101855 -0.123532 0.000000 -0.089634 -0.114829 0.000000 -0.077871 -0.107220 0.000000 -0.067516 -0.100401 0.000000 -0.057374 -0.094709 0.000000 -0.048321 -0.089602 0.000000 -0.039349 -0.085651 0.000000 -0.031152 -0.082121 0.000000 -0.022977 -0.079769 0.000000 -0.015265 -0.077727 0.000000 -0.007556 -0.076875 0.000000 
0.000001 -0.083682 0.000000 0.006772 -0.084354 0.000000 0.013706 -0.085286 0.000000 0.020602 -0.087558 0.000000 0.027979 -0.090156 0.000000 0.035302 -0.094080 0.000000 0.043425 -0.098465 0.000000 0.051519 -0.104154 0.000000 0.060735 -0.110507 0.000000 0.070018 -0.118136 0.000000 0.080754 -0.126699 0.000000 0.091768 -0.136513 0.000000 0.104594 -0.147588 0.000000 0.118076 -0.159918 0.000000 0.133828 -0.173870 0.000000 0.150854 -0.189152 0.000000 0.170854 -0.206426 0.000000 0.193120 -0.225262 0.000000 0.219589 -0.246395 0.000000 0.250004 -0.269798 0.000000 0.286814 -0.295258 0.000000 0.330006 -0.323741 0.000000 0.377161 -0.342519 0.000000 0.389071 -0.293820 0.000000 0.152263 0.030095 0.000000 -0.594482 0.810780 0.000000 -1.499704 1.569319 0.000000 -1.596305 1.432005 0.000000 -0.917451 0.588195 0.000000 -0.313218 -0.001268 0.000000 -0.029658 -0.149940 0.000000 0.026518 -0.155116 0.000000 -0.000045 -0.145410 0.000000 -0.026429 -0.155000 0.000000 0.029964 -0.150271 0.000000 0.313269 -0.001738 0.000000 0.916936 0.588847 0.000000 1.595801 1.432947 0.000000 1.500118 1.569026 0.000000 0.594970 0.810484 0.000000 -0.152093 0.030224 0.000000 -0.388641 -0.293824 0.000000 -0.376876 -0.342540 0.000000 -0.329862 -0.323806 0.000000 -0.286720 -0.295292 0.000000 -0.249969 -0.269833 0.000000 -0.219563 -0.246407 0.000000 -0.193119 -0.225276 0.000000 -0.170849 -0.206428 0.000000 -0.150861 -0.189157 0.000000 -0.133827 -0.173870 0.000000 -0.118084 -0.159920 0.000000 -0.104594 -0.147587 0.000000 -0.091775 -0.136513 0.000000 -0.080755 -0.126697 0.000000 -0.070024 -0.118135 0.000000 -0.060735 -0.110506 0.000000 -0.051524 -0.104153 0.000000 -0.043424 -0.098464 0.000000 -0.035306 -0.094080 0.000000 -0.027978 -0.090155 0.000000 -0.020605 -0.087558 0.000000 -0.013705 -0.085286 0.000000 -0.006775 -0.084354 0.000000 
0.000002 -0.089825 0.000000 0.005951 -0.090581 0.000000 0.012064 -0.091557 0.000000 0.018106 -0.094042 0.000000 0.024633 -0.096820 0.000000 0.031039 -0.101097 0.000000 0.038251 -0.105819 0.000000 0.045331 -0.112020 0.000000 0.053539 -0.118901 0.000000 0.061679 -0.127240 0.000000 0.071263 -0.136581 0.000000 0.080967 -0.147374 0.000000 0.092433 -0.159569 0.000000 0.104399 -0.173275 0.000000 0.118481 -0.188849 0.000000 0.133732 -0.206124 0.000000 0.151552 -0.225826 0.000000 0.171721 -0.247612 0.000000 0.195035 -0.272628 0.000000 0.222944 -0.300302 0.000000 0.254576 -0.331958 0.000000 0.291054 -0.360469 0.000000 0.313468 -0.346824 0.000000 0.164067 -0.063894 0.000000 -0.500135 0.760990 0.000000 -1.425159 1.692244 0.000000 -1.586580 1.650485 0.000000 -0.853831 0.710237 0.000000 -0.265624 0.033048 0.000000 -0.090533 -0.140647 0.000000 -0.046988 -0.200912 0.000000 -0.025699 -0.237801 0.000000 -0.000036 -0.246728 0.000000 0.025729 -0.237750 0.000000 0.047028 -0.200969 0.000000 0.090331 -0.140700 0.000000 0.265292 0.033316 0.000000 0.854337 0.710175 0.000000 1.587299 1.650269 0.000000 1.424714 1.692452 0.000000 0.499517 0.760561 0.000000 -0.164297 -0.064317 0.000000 -0.313522 -0.346617 0.000000 -0.291076 -0.360327 0.000000 -0.254546 -0.331833 0.000000 -0.222921 -0.300229 0.000000 -0.195006 -0.272570 0.000000 -0.171707 -0.247579 0.000000 -0.151533 -0.225800 0.000000 -0.133726 -0.206109 0.000000 -0.118469 -0.188838 0.000000 -0.104397 -0.173269 0.000000 -0.092424 -0.159565 0.000000 -0.080966 -0.147372 0.000000 -0.071256 -0.136580 0.000000 -0.061679 -0.127240 0.000000 -0.053534 -0.118901 0.000000 -0.045332 -0.112020 0.000000 -0.038247 -0.105819 0.000000 -0.031040 -0.101097 0.000000 -0.024630 -0.096821 0.000000 -0.018108 -0.094042 0.000000 -0.012061 -0.091557 0.000000 -0.005952 -0.090581 0.000000 
0.000001 -0.095585 0.000000 0.005040 -0.096417 0.000000 0.010245 -0.097442 0.000000 0.015339 -0.100127 0.000000 0.020924 -0.103089 0.000000 0.026303 -0.107698 0.000000 0.032502 -0.112758 0.000000 0.038436 -0.119442 0.000000 0.045515 -0.126855 0.000000 0.052339 -0.135859 0.000000 0.060620 -0.145987 0.000000 0.068779 -0.157683 0.000000 0.078693 -0.171021 0.000000 0.088795 -0.185966 0.000000 0.100978 -0.203203 0.000000 0.113878 -0.222223 0.000000 0.129364 -0.244414 0.000000 0.146313 -0.268744 0.000000 0.166820 -0.297619 0.000000 0.189742 -0.329340 0.000000 0.217104 -0.363368 0.000000 0.236933 -0.382632 0.000000 0.191632 -0.215532 0.000000 -0.290859 0.519784 0.000000 -1.181080 1.619321 0.000000 -1.570405 1.897224 0.000000 -0.927798 0.997991 0.000000 -0.255278 0.111049 0.000000 -0.068472 -0.175104 0.000000 -0.007389 -0.219903 0.000000 0.013009 -0.214774 0.000000 0.011310 -0.202068 0.000000 0.000002 -0.196837 0.000000 -0.011301 -0.202064 0.000000 -0.012972 -0.214874 0.000000 0.007320 -0.220001 0.000000 0.068420 -0.175159 0.000000 0.255327 0.110939 0.000000 0.927534 0.998649 0.000000 1.569967 1.898266 0.000000 1.181576 1.619235 0.000000 0.291707 0.519214 0.000000 -0.191275 -0.215761 0.000000 -0.236875 -0.382782 0.000000 -0.217070 -0.363448 0.000000 -0.189772 -0.329373 0.000000 -0.166833 -0.297621 0.000000 -0.146345 -0.268748 0.000000 -0.129377 -0.244409 0.000000 -0.113900 -0.222222 0.000000 -0.100986 -0.203199 0.000000 -0.088811 -0.185964 0.000000 -0.078697 -0.171018 0.000000 -0.068789 -0.157681 0.000000 -0.060622 -0.145984 0.000000 -0.052346 -0.135857 0.000000 -0.045515 -0.126853 0.000000 -0.038441 -0.119440 0.000000 -0.032501 -0.112756 0.000000 -0.026307 -0.107697 0.000000 -0.020922 -0.103088 0.000000 -0.015342 -0.100127 0.000000 -0.010243 -0.097442 0.000000 -0.005043 -0.096417 0.000000 
0.000001 -0.099907 0.000000 0.004094 -0.100825 0.000000 0.008354 -0.101856 0.000000 0.012460 -0.104720 0.000000 0.017063 -0.107785 0.000000 0.021370 -0.112676 0.000000 0.026507 -0.117952 0.000000 0.031234 -0.125033 0.000000 0.037122 -0.132804 0.000000 0.042547 -0.142346 0.000000 0.049438 -0.153021 0.000000 0.055933 -0.165446 0.000000 0.064150 -0.179585 0.000000 0.072218 -0.195560 0.000000 0.082224 -0.213932 0.000000 0.092521 -0.234510 0.000000 0.105029 -0.258261 0.000000 0.118490 -0.285067 0.000000 0.134084 -0.316057 0.000000 0.153153 -0.350586 0.000000 0.164069 -0.379150 0.000000 0.172040 -0.334996 0.000000 -0.081689 0.180968 0.000000 -0.836229 1.308817 0.000000 -1.471426 2.040535 0.000000 -1.093150 1.438963 0.000000 -0.322440 0.335359 0.000000 -0.052435 -0.149089 0.000000 -0.004813 -0.214841 0.000000 -0.001522 -0.222129 0.000000 -0.004555 -0.219611 0.000000 -0.003771 -0.224793 0.000000 -0.000034 -0.224116 0.000000 0.003696 -0.224777 0.000000 0.004480 -0.219590 0.000000 0.001343 -0.222092 0.000000 0.004603 -0.214691 0.000000 0.052126 -0.148939 0.000000 0.322016 0.335629 0.000000 1.093660 1.438410 0.000000 1.473011 2.038820 0.000000 0.837017 1.308534 0.000000 0.082167 0.181966 0.000000 -0.171594 -0.334531 0.000000 -0.163871 -0.378937 0.000000 -0.153050 -0.350466 0.000000 -0.134026 -0.315996 0.000000 -0.118469 -0.285034 0.000000 -0.105005 -0.258245 0.000000 -0.092516 -0.234500 0.000000 -0.082210 -0.213928 0.000000 -0.072216 -0.195558 0.000000 -0.064141 -0.179586 0.000000 -0.055933 -0.165447 0.000000 -0.049432 -0.153023 0.000000 -0.042548 -0.142347 0.000000 -0.037118 -0.132806 0.000000 -0.031236 -0.125034 0.000000 -0.026504 -0.117954 0.000000 -0.021371 -0.112676 0.000000 -0.017060 -0.107787 0.000000 -0.012462 -0.104721 0.000000 -0.008351 -0.101856 0.000000 -0.004096 -0.100825 0.000000 
0.000001 -0.103775 0.000000 0.003091 -0.104770 0.000000 0.006350 -0.105808 0.000000 0.009409 -0.108836 0.000000 0.012968 -0.111998 0.000000 0.016137 -0.117143 0.000000 0.020145 -0.122622 0.000000 0.023584 -0.130057 0.000000 0.028201 -0.138167 0.000000 0.032122 -0.148175 0.000000 0.037519 -0.159373 0.000000 0.042215 -0.172395 0.000000 0.048579 -0.187305 0.000000 0.054449 -0.204040 0.000000 0.062028 -0.223506 0.000000 0.069548 -0.245028 0.000000 0.078798 -0.270383 0.000000 0.088411 -0.297800 0.000000 0.099901 -0.332282 0.000000 0.112190 -0.359325 0.000000 0.112108 -0.382255 0.000000 0.061748 -0.136874 0.000000 -0.459647 0.792737 0.000000 -1.197190 1.909521 0.000000 -1.244980 1.876242 0.000000 -0.503544 0.748238 0.000000 -0.040124 -0.042724 0.000000 0.008552 -0.206578 0.000000 0.023200 -0.226017 0.000000 0.015530 -0.220162 0.000000 0.014402 -0.212525 0.000000 0.007268 -0.206589 0.000000 0.000018 -0.204304 0.000000 -0.007238 -0.206578 0.000000 -0.014343 -0.212520 0.000000 -0.015454 -0.220124 0.000000 -0.023053 -0.225941 0.000000 -0.008207 -0.206474 0.000000 0.040632 -0.042885 0.000000 0.504560 0.747271 0.000000 1.244675 1.875878 0.000000 1.194414 1.910058 0.000000 0.457820 0.792850 0.000000 -0.062573 -0.136744 0.000000 -0.112497 -0.381991 0.000000 -0.112402 -0.359218 0.000000 -0.100007 -0.332203 0.000000 -0.088487 -0.297769 0.000000 -0.078835 -0.270362 0.000000 -0.069584 -0.245016 0.000000 -0.062043 -0.223498 0.000000 -0.054469 -0.204033 0.000000 -0.048586 -0.187301 0.000000 -0.042226 -0.172389 0.000000 -0.037522 -0.159370 0.000000 -0.032130 -0.148171 0.000000 -0.028202 -0.138165 0.000000 -0.023589 -0.130054 0.000000 -0.020144 -0.122621 0.000000 -0.016140 -0.117141 0.000000 -0.012967 -0.111997 0.000000 -0.009412 -0.108835 0.000000 -0.006348 -0.105808 0.000000 -0.003093 -0.104770 0.000000 
0.000001 -0.106092 0.000000 0.002060 -0.107173 0.000000 0.004288 -0.108174 0.000000 0.006270 -0.111339 0.000000 0.008756 -0.114513 0.000000 0.010746 -0.119852 0.000000 0.013593 -0.125400 0.000000 0.015690 -0.133089 0.000000 0.019004 -0.141342 0.000000 0.021342 -0.151664 0.000000 0.025219 -0.163113 0.000000 0.028001 -0.176506 0.000000 0.032504 -0.191820 0.000000 0.036017 -0.209009 0.000000 0.041235 -0.229030 0.000000 0.045643 -0.251280 0.000000 0.052225 -0.277124 0.000000 0.056203 -0.306170 0.000000 0.067927 -0.339836 0.000000 0.059776 -0.362794 0.000000 0.071890 -0.328708 0.000000 -0.159258 0.236759 0.000000 -0.800825 1.439906 0.000000 -1.257354 2.094151 0.000000 -0.780808 1.346890 0.000000 -0.116199 0.234107 0.000000 0.019056 -0.176738 0.000000 0.035498 -0.212414 0.000000 0.025593 -0.221819 0.000000 0.017846 -0.213331 0.000000 0.009696 -0.211350 0.000000 0.004502 -0.210409 0.000000 -0.000023 -0.209609 0.000000 -0.004571 -0.210416 0.000000 -0.009742 -0.211374 0.000000 -0.017940 -0.213382 0.000000 -0.025645 -0.221939 0.000000 -0.035613 -0.212624 0.000000 -0.019119 -0.177138 0.000000 0.115658 0.234367 0.000000 0.779484 1.348966 0.000000 1.256331 2.095389 0.000000 0.800125 1.438953 0.000000 0.158534 0.235786 0.000000 -0.072049 -0.329108 0.000000 -0.059939 -0.362957 0.000000 -0.067956 -0.339911 0.000000 -0.056241 -0.306206 0.000000 -0.052221 -0.277148 0.000000 -0.045651 -0.251292 0.000000 -0.041226 -0.229043 0.000000 -0.036019 -0.209016 0.000000 -0.032497 -0.191829 0.000000 -0.028003 -0.176510 0.000000 -0.025214 -0.163120 0.000000 -0.021344 -0.151667 0.000000 -0.019001 -0.141347 0.000000 -0.015692 -0.133091 0.000000 -0.013590 -0.125403 0.000000 -0.010748 -0.119854 0.000000 -0.008754 -0.114515 0.000000 -0.006272 -0.111340 0.000000 -0.004286 -0.108174 0.000000 -0.002063 -0.107174 0.000000 
0.000001 -0.107897 0.000000 0.001010 -0.109057 0.000000 0.002183 -0.110018 0.000000 0.003069 -0.113304 0.000000 0.004456 -0.116474 0.000000 0.005250 -0.121980 0.000000 0.006908 -0.127566 0.000000 0.007642 -0.135469 0.000000 0.009627 -0.143820 0.000000 0.010352 -0.154390 0.000000 0.012677 -0.166032 0.000000 0.013508 -0.179680 0.000000 0.016075 -0.195321 0.000000 0.017239 -0.212771 0.000000 0.019756 -0.233132 0.000000 0.021446 -0.256018 0.000000 0.023819 -0.280943 0.000000 0.024448 -0.313501 0.000000 0.030084 -0.335855 0.000000 0.009686 -0.363288 0.000000 0.000438 -0.163222 0.000000 -0.421610 0.735841 0.000000 -1.008535 1.890833 0.000000 -1.011076 1.889503 0.000000 -0.352869 0.735087 0.000000 0.039835 -0.051626 0.000000 0.040767 -0.194420 0.000000 0.051838 -0.213114 0.000000 0.034126 -0.208365 0.000000 0.027310 -0.204265 0.000000 0.017439 -0.199180 0.000000 0.009009 -0.196870 0.000000 0.000011 -0.195232 0.000000 -0.009004 -0.196859 0.000000 -0.017423 -0.199151 0.000000 -0.027331 -0.204222 0.000000 -0.034164 -0.208269 0.000000 -0.052005 -0.212999 0.000000 -0.041073 -0.194156 0.000000 -0.040574 -0.051332 0.000000 0.352626 0.735204 0.000000 1.012407 1.889417 0.000000 1.009856 1.890647 0.000000 0.422212 0.735430 0.000000 -0.000184 -0.163519 0.000000 -0.009646 -0.363311 0.000000 -0.030073 -0.335900 0.000000 -0.024475 -0.313504 0.000000 -0.023833 -0.280952 0.000000 -0.021471 -0.256011 0.000000 -0.019767 -0.233130 0.000000 -0.017255 -0.212762 0.000000 -0.016080 -0.195317 0.000000 -0.013517 -0.179673 0.000000 -0.012679 -0.166028 0.000000 -0.010357 -0.154384 0.000000 -0.009626 -0.143817 0.000000 -0.007645 -0.135465 0.000000 -0.006906 -0.127565 0.000000 -0.005252 -0.121977 0.000000 -0.004453 -0.116473 0.000000 -0.003071 -0.113302 0.000000 -0.002181 -0.110017 0.000000 -0.001011 -0.109057 0.000000 