# vtk DataFile Version 2.0
Comment goes here
ASCII

DATASET STRUCTURED_POINTS
FIELD FieldData 1
TIME 1 1 double
0.51000000
DIMENSIONS    64   64   1

ORIGIN    0.000   0.000   0.000
SPACING   0.015625 0.015625   1.000

POINT_DATA   4096
VECTORS u double

0.000574 -0.000000 0.000000 -0.016450 0.000000 0.000000 -0.033587 0.000000 0.000000 -0.050783 0.000000 0.000000 -0.068232 0.000000 0.000000 -0.085797 0.000000 0.000000 -0.103712 0.000000 0.000000 -0.121733 0.000000 0.000000 -0.140127 0.000000 0.000000 -0.158512 0.000000 0.000000 -0.177189 0.000000 0.000000 -0.195605 0.000000 0.000000 -0.214094 0.000000 0.000000 -0.231908 0.000000 0.000000 -0.249415 0.000000 0.000000 -0.265664 0.000000 0.000000 -0.281051 0.000000 0.000000 -0.294431 0.000000 0.000000 -0.306212 0.000000 0.000000 -0.315083 0.000000 0.000000 -0.321416 0.000000 0.000000 -0.323791 0.000000 0.000000 -0.322469 0.000000 0.000000 -0.316036 0.000000 0.000000 -0.304612 0.000000 0.000000 -0.286999 0.000000 0.000000 -0.263297 0.000000 0.000000 -0.232877 0.000000 0.000000 -0.196120 0.000000 0.000000 -0.153379 0.000000 0.000000 -0.105608 0.000000 0.000000 -0.054289 0.000000 0.000000 -0.000914 0.000000 0.000000 0.052312 0.000000 0.000000 0.103864 0.000000 0.000000 0.151585 0.000000 0.000000 0.194598 0.000000 0.000000 0.231395 0.000000 0.000000 0.262077 0.000000 0.000000 0.285887 0.000000 0.000000 0.303722 0.000000 0.000000 0.315302 0.000000 0.000000 0.321908 0.000000 0.000000 0.323417 0.000000 0.000000 0.321168 0.000000 0.000000 0.315036 0.000000 0.000000 0.306255 0.000000 0.000000 0.294668 0.000000 0.000000 0.281353 0.000000 0.000000 0.266141 0.000000 0.000000 0.249939 0.000000 0.000000 0.232582 -0.000000 0.000000 0.214800 0.000000 0.000000 0.196437 -0.000000 0.000000 0.178041 -0.000000 0.000000 0.159467 -0.000000 0.000000 0.141092 -0.000000 0.000000 0.122780 -0.000000 0.000000 0.104759 -0.000000 0.000000 0.086911 -0.000000 0.000000 0.069335 -0.000000 0.000000 0.051940 -0.000000 0.000000 0.034723 -0.000000 0.000000 0.017628 -0.000000 0.000000 
0.000658 0.017039 0.000000 -0.016354 0.017080 0.000000 -0.033484 0.017166 0.000000 -0.050682 0.017323 0.000000 -0.068145 0.017507 0.000000 -0.085739 0.017740 0.000000 -0.103701 0.017968 0.000000 -0.121790 0.018208 0.000000 -0.140274 0.018390 0.000000 -0.158776 0.018531 0.000000 -0.177588 0.018547 0.000000 -0.196168 0.018452 0.000000 -0.214830 0.018152 0.000000 -0.232841 0.017661 0.000000 -0.250539 0.016878 0.000000 -0.266990 0.015818 0.000000 -0.282549 0.014384 0.000000 -0.296098 0.012581 0.000000 -0.307989 0.010326 0.000000 -0.316947 0.007602 0.000000 -0.323282 0.004354 0.000000 -0.325620 0.000527 0.000000 -0.324167 -0.003877 0.000000 -0.317554 -0.008928 0.000000 -0.305878 -0.014518 0.000000 -0.287985 -0.020658 0.000000 -0.263986 -0.027061 0.000000 -0.233305 -0.033588 0.000000 -0.196336 -0.039749 0.000000 -0.153465 -0.045256 0.000000 -0.105629 -0.049545 0.000000 -0.054309 -0.052347 0.000000 -0.000962 -0.053300 0.000000 0.052238 -0.052389 0.000000 0.103789 -0.049637 0.000000 0.151580 -0.045367 0.000000 0.194722 -0.039905 0.000000 0.231738 -0.033740 0.000000 0.262678 -0.027246 0.000000 0.286788 -0.020823 0.000000 0.304900 -0.014708 0.000000 0.316733 -0.009093 0.000000 0.323516 -0.004058 0.000000 0.325159 0.000370 0.000000 0.322951 0.004190 0.000000 0.316821 0.007457 0.000000 0.307963 0.010184 0.000000 0.296275 0.012451 0.000000 0.282808 0.014264 0.000000 0.267437 0.015707 0.000000 0.251053 0.016779 0.000000 0.233521 0.017569 0.000000 0.215565 0.018073 0.000000 0.197045 0.018379 0.000000 0.178507 0.018485 0.000000 0.159814 0.018475 0.000000 0.141340 0.018343 0.000000 0.122954 0.018166 0.000000 0.104878 0.017935 0.000000 0.086995 0.017712 0.000000 0.069400 0.017486 0.000000 0.051999 0.017306 0.000000 0.034785 0.017156 0.000000 0.017701 0.017075 0.000000 
0.000580 0.034055 0.000000 -0.016400 0.034142 0.000000 -0.033505 0.034328 0.000000 -0.050701 0.034660 0.000000 -0.068190 0.035057 0.000000 -0.085855 0.035556 0.000000 -0.103936 0.036051 0.000000 -0.122206 0.036573 0.000000 -0.140938 0.036986 0.000000 -0.159759 0.037314 0.000000 -0.178966 0.037392 0.000000 -0.198010 0.037242 0.000000 -0.217211 0.036674 0.000000 -0.235809 0.035709 0.000000 -0.254152 0.034149 0.000000 -0.271259 0.032011 0.000000 -0.287507 0.029108 0.000000 -0.301700 0.025439 0.000000 -0.314235 0.020849 0.000000 -0.323734 0.015294 0.000000 -0.330572 0.008672 0.000000 -0.333254 0.000885 0.000000 -0.332061 -0.008066 0.000000 -0.325517 -0.018289 0.000000 -0.313772 -0.029569 0.000000 -0.295599 -0.041892 0.000000 -0.271129 -0.054680 0.000000 -0.239736 -0.067650 0.000000 -0.201833 -0.079840 0.000000 -0.157809 -0.090707 0.000000 -0.108631 -0.099156 0.000000 -0.055848 -0.104667 0.000000 -0.000955 -0.106547 0.000000 0.053780 -0.104751 0.000000 0.106817 -0.099343 0.000000 0.155950 -0.090934 0.000000 0.200272 -0.080158 0.000000 0.238228 -0.067956 0.000000 0.269898 -0.055050 0.000000 0.294484 -0.042221 0.000000 0.312887 -0.029945 0.000000 0.324796 -0.018617 0.000000 0.331512 -0.008426 0.000000 0.332902 0.000565 0.000000 0.330341 0.008338 0.000000 0.323714 0.014988 0.000000 0.314299 0.020546 0.000000 0.301965 0.025155 0.000000 0.287832 0.028839 0.000000 0.271763 0.031755 0.000000 0.254700 0.033915 0.000000 0.236508 0.035488 0.000000 0.217941 0.036477 0.000000 0.198864 0.037058 0.000000 0.179840 0.037231 0.000000 0.160733 0.037167 0.000000 0.141921 0.036860 0.000000 0.123271 0.036462 0.000000 0.104999 0.035959 0.000000 0.086983 0.035479 0.000000 0.069307 0.034996 0.000000 0.051871 0.034615 0.000000 0.034654 0.034298 0.000000 0.017590 0.034127 0.000000 
0.000675 0.051029 0.000000 -0.016245 0.051165 0.000000 -0.033310 0.051468 0.000000 -0.050503 0.052007 0.000000 -0.068045 0.052661 0.000000 -0.085838 0.053486 0.000000 -0.104134 0.054320 0.000000 -0.122727 0.055209 0.000000 -0.141890 0.055942 0.000000 -0.161270 0.056560 0.000000 -0.181152 0.056798 0.000000 -0.200994 0.056697 0.000000 -0.221089 0.055950 0.000000 -0.240675 0.054602 0.000000 -0.260053 0.052327 0.000000 -0.278229 0.049173 0.000000 -0.295518 0.044824 0.000000 -0.310703 0.039309 0.000000 -0.324107 0.032361 0.000000 -0.334326 0.023938 0.000000 -0.341659 0.013873 0.000000 -0.344586 0.002016 0.000000 -0.343335 -0.011614 0.000000 -0.336412 -0.027218 0.000000 -0.323972 -0.044437 0.000000 -0.304800 -0.063301 0.000000 -0.279111 -0.082923 0.000000 -0.246367 -0.102884 0.000000 -0.207065 -0.121677 0.000000 -0.161689 -0.138458 0.000000 -0.111187 -0.151505 0.000000 -0.057168 -0.160024 0.000000 -0.001045 -0.162929 0.000000 0.054912 -0.160160 0.000000 0.109207 -0.151806 0.000000 0.159677 -0.138822 0.000000 0.205377 -0.122183 0.000000 0.244752 -0.103366 0.000000 0.277785 -0.083502 0.000000 0.303602 -0.063812 0.000000 0.323004 -0.045019 0.000000 0.335614 -0.027717 0.000000 0.342704 -0.012164 0.000000 0.344162 0.001540 0.000000 0.341353 0.013378 0.000000 0.334243 0.023499 0.000000 0.324113 0.031933 0.000000 0.310925 0.038918 0.000000 0.295815 0.044465 0.000000 0.278722 0.048839 0.000000 0.260611 0.052034 0.000000 0.241402 0.054329 0.000000 0.221871 0.055717 0.000000 0.201917 0.056480 0.000000 0.182117 0.056616 0.000000 0.162352 0.056394 0.000000 0.143000 0.055805 0.000000 0.123932 0.055088 0.000000 0.105351 0.054222 0.000000 0.087132 0.053404 0.000000 0.069337 0.052598 0.000000 0.051855 0.051959 0.000000 0.034645 0.051437 0.000000 0.017624 0.051149 0.000000 
0.000598 0.067924 0.000000 -0.016233 0.068127 0.000000 -0.033231 0.068587 0.000000 -0.050413 0.069395 0.000000 -0.068014 0.070391 0.000000 -0.085974 0.071645 0.000000 -0.104554 0.072940 0.000000 -0.123582 0.074330 0.000000 -0.143332 0.075529 0.000000 -0.163473 0.076576 0.000000 -0.184281 0.077116 0.000000 -0.205218 0.077179 0.000000 -0.226555 0.076355 0.000000 -0.247506 0.074673 0.000000 -0.268351 0.071703 0.000000 -0.288030 0.067475 0.000000 -0.306858 0.061582 0.000000 -0.323496 0.054028 0.000000 -0.338303 0.044473 0.000000 -0.349691 0.032846 0.000000 -0.358040 0.018932 0.000000 -0.361607 0.002561 0.000000 -0.360737 -0.016240 0.000000 -0.353744 -0.037652 0.000000 -0.340888 -0.061181 0.000000 -0.320867 -0.086753 0.000000 -0.293940 -0.113114 0.000000 -0.259513 -0.139696 0.000000 -0.218133 -0.164518 0.000000 -0.170327 -0.186586 0.000000 -0.117099 -0.203676 0.000000 -0.060209 -0.214808 0.000000 -0.001086 -0.218627 0.000000 0.057851 -0.215003 0.000000 0.115066 -0.204108 0.000000 0.168273 -0.187104 0.000000 0.216463 -0.165233 0.000000 0.257940 -0.140364 0.000000 0.292691 -0.113900 0.000000 0.319758 -0.087441 0.000000 0.340028 -0.061957 0.000000 0.353070 -0.038317 0.000000 0.360230 -0.016974 0.000000 0.361330 0.001917 0.000000 0.357865 0.018257 0.000000 0.349756 0.032228 0.000000 0.338433 0.043864 0.000000 0.323847 0.053453 0.000000 0.307257 0.061042 0.000000 0.288615 0.066959 0.000000 0.268975 0.071235 0.000000 0.248279 0.074228 0.000000 0.227358 0.075961 0.000000 0.206138 0.076811 0.000000 0.185221 0.076796 0.000000 0.164506 0.076284 0.000000 0.144373 0.075280 0.000000 0.124697 0.074110 0.000000 0.105666 0.072759 0.000000 0.087146 0.071493 0.000000 0.069173 0.070273 0.000000 0.051621 0.069306 0.000000 0.034417 0.068529 0.000000 0.017458 0.068097 0.000000 
0.000707 0.084720 0.000000 -0.015992 0.084994 0.000000 -0.032894 0.085648 0.000000 -0.050053 0.086790 0.000000 -0.067732 0.088222 0.000000 -0.085911 0.090026 0.000000 -0.104870 0.091928 0.000000 -0.124473 0.093987 0.000000 -0.145001 0.095833 0.000000 -0.166147 0.097509 0.000000 -0.188172 0.098543 0.000000 -0.210545 0.098971 0.000000 -0.233501 0.098238 0.000000 -0.256236 0.096398 0.000000 -0.278978 0.092852 0.000000 -0.300625 0.087679 0.000000 -0.321420 0.080290 0.000000 -0.339960 0.070754 0.000000 -0.356506 0.058556 0.000000 -0.369378 0.043676 0.000000 -0.378835 0.025790 0.000000 -0.383026 0.004713 0.000000 -0.382195 -0.019477 0.000000 -0.374557 -0.047066 0.000000 -0.360391 -0.077314 0.000000 -0.338336 -0.110249 0.000000 -0.308894 -0.144277 0.000000 -0.271686 -0.178691 0.000000 -0.227536 -0.210863 0.000000 -0.177163 -0.239492 0.000000 -0.121508 -0.261624 0.000000 -0.062469 -0.276037 0.000000 -0.001224 -0.280988 0.000000 0.059813 -0.276312 0.000000 0.119234 -0.262229 0.000000 0.174893 -0.240219 0.000000 0.225720 -0.211851 0.000000 0.270015 -0.179594 0.000000 0.307566 -0.145319 0.000000 0.337162 -0.111150 0.000000 0.359466 -0.078331 0.000000 0.373825 -0.047919 0.000000 0.381612 -0.020424 0.000000 0.382690 0.003905 0.000000 0.378585 0.024952 0.000000 0.369388 0.042930 0.000000 0.356581 0.057842 0.000000 0.340275 0.070094 0.000000 0.321798 0.079697 0.000000 0.301210 0.087121 0.000000 0.279627 0.092371 0.000000 0.257056 0.095945 0.000000 0.234379 0.097857 0.000000 0.211562 0.098617 0.000000 0.189234 0.098249 0.000000 0.167320 0.097243 0.000000 0.146201 0.095614 0.000000 0.125762 0.093794 0.000000 0.106170 0.091773 0.000000 0.087281 0.089897 0.000000 0.069097 0.088123 0.000000 0.051474 0.086715 0.000000 0.034297 0.085599 0.000000 0.017437 0.084969 0.000000 
0.000627 0.101353 0.000000 -0.015893 0.101728 0.000000 -0.032655 0.102648 0.000000 -0.049764 0.104233 0.000000 -0.067510 0.106249 0.000000 -0.085931 0.108783 0.000000 -0.105319 0.111503 0.000000 -0.125594 0.114461 0.000000 -0.147029 0.117202 0.000000 -0.169359 0.119748 0.000000 -0.192817 0.121514 0.000000 -0.216891 0.122508 0.000000 -0.241773 0.122046 0.000000 -0.266649 0.120150 0.000000 -0.291702 0.116092 0.000000 -0.315775 0.109917 0.000000 -0.339088 0.100917 0.000000 -0.360090 0.089114 0.000000 -0.379065 0.073891 0.000000 -0.394038 0.055175 0.000000 -0.405367 0.032580 0.000000 -0.410782 0.005921 0.000000 -0.410726 -0.024709 0.000000 -0.403063 -0.059456 0.000000 -0.388256 -0.097402 0.000000 -0.364927 -0.138250 0.000000 -0.333572 -0.179763 0.000000 -0.293667 -0.221054 0.000000 -0.246101 -0.259041 0.000000 -0.191665 -0.292613 0.000000 -0.131411 -0.318369 0.000000 -0.067581 -0.335092 0.000000 -0.001320 -0.340909 0.000000 0.064696 -0.335460 0.000000 0.128996 -0.319188 0.000000 0.189287 -0.293590 0.000000 0.244301 -0.260354 0.000000 0.292068 -0.222209 0.000000 0.332351 -0.181047 0.000000 0.363865 -0.139342 0.000000 0.387474 -0.098620 0.000000 0.402491 -0.060463 0.000000 0.410306 -0.025839 0.000000 0.410659 0.004944 0.000000 0.405301 0.031558 0.000000 0.394270 0.054232 0.000000 0.379320 0.072977 0.000000 0.360596 0.088235 0.000000 0.339617 0.100107 0.000000 0.316497 0.109131 0.000000 0.292454 0.115389 0.000000 0.267545 0.119476 0.000000 0.242698 0.121456 0.000000 0.217923 0.121956 0.000000 0.193868 0.121039 0.000000 0.170490 0.119317 0.000000 0.148167 0.116837 0.000000 0.126795 0.114142 0.000000 0.106514 0.111240 0.000000 0.087176 0.108566 0.000000 0.068739 0.106080 0.000000 0.051036 0.104107 0.000000 0.033903 0.102565 0.000000 0.017178 0.101687 0.000000 
0.000756 0.117791 0.000000 -0.015513 0.118276 0.000000 -0.032075 0.119518 0.000000 -0.049092 0.121645 0.000000 -0.066895 0.124389 0.000000 -0.085581 0.127836 0.000000 -0.105466 0.131591 0.000000 -0.126523 0.135697 0.000000 -0.149029 0.139598 0.000000 -0.172758 0.143298 0.000000 -0.197923 0.146075 0.000000 -0.224030 0.147927 0.000000 -0.251239 0.147996 0.000000 -0.278733 0.146327 0.000000 -0.306660 0.141979 0.000000 -0.333830 0.135066 0.000000 -0.360405 0.124605 0.000000 -0.384735 0.110731 0.000000 -0.406978 0.092503 0.000000 -0.424967 0.069978 0.000000 -0.438824 0.042534 0.000000 -0.446041 0.010072 0.000000 -0.446790 -0.027197 0.000000 -0.438706 -0.069536 0.000000 -0.422164 -0.115450 0.000000 -0.395411 -0.164933 0.000000 -0.359496 -0.215537 0.000000 -0.314483 -0.266162 0.000000 -0.262038 -0.312865 0.000000 -0.203226 -0.354182 0.000000 -0.138821 -0.385708 0.000000 -0.071409 -0.406127 0.000000 -0.001502 -0.413265 0.000000 0.068112 -0.406628 0.000000 0.136096 -0.386819 0.000000 0.200588 -0.355523 0.000000 0.260134 -0.314631 0.000000 0.312887 -0.267644 0.000000 0.358262 -0.217117 0.000000 0.394323 -0.166272 0.000000 0.421361 -0.116956 0.000000 0.438107 -0.070752 0.000000 0.446298 -0.028592 0.000000 0.445877 0.008910 0.000000 0.438677 0.041341 0.000000 0.425149 0.068911 0.000000 0.407173 0.091516 0.000000 0.385202 0.109798 0.000000 0.360914 0.123795 0.000000 0.334553 0.134285 0.000000 0.307449 0.141323 0.000000 0.279691 0.145701 0.000000 0.252264 0.147479 0.000000 0.225187 0.147446 0.000000 0.199132 0.145682 0.000000 0.174069 0.142944 0.000000 0.150370 0.139310 0.000000 0.127942 0.135447 0.000000 0.106892 0.131391 0.000000 0.087067 0.127671 0.000000 0.068372 0.124264 0.000000 0.050617 0.121551 0.000000 0.033579 0.119457 0.000000 0.017056 0.118245 0.000000 
0.000668 0.133922 0.000000 -0.015266 0.134559 0.000000 -0.031545 0.136227 0.000000 -0.048405 0.139053 0.000000 -0.066210 0.142738 0.000000 -0.085136 0.147354 0.000000 -0.105510 0.152445 0.000000 -0.127383 0.158024 0.000000 -0.151011 0.163436 0.000000 -0.176240 0.168641 0.000000 -0.203241 0.172786 0.000000 -0.231586 0.175824 0.000000 -0.261384 0.176749 0.000000 -0.291889 0.175571 0.000000 -0.323197 0.171188 0.000000 -0.354155 0.163662 0.000000 -0.384870 0.151822 0.000000 -0.413566 0.135687 0.000000 -0.440343 0.114123 0.000000 -0.462560 0.087020 0.000000 -0.480393 0.053654 0.000000 -0.490475 0.013887 0.000000 -0.493345 -0.032044 0.000000 -0.485852 -0.084082 0.000000 -0.468797 -0.140697 0.000000 -0.440905 -0.200919 0.000000 -0.402821 -0.260691 0.000000 -0.353963 -0.318513 0.000000 -0.296012 -0.370298 0.000000 -0.230036 -0.415830 0.000000 -0.157148 -0.450186 0.000000 -0.080901 -0.472412 0.000000 -0.001634 -0.480431 0.000000 0.077271 -0.473058 0.000000 0.154217 -0.451663 0.000000 0.227247 -0.417628 0.000000 0.294219 -0.372653 0.000000 0.352596 -0.320337 0.000000 0.401750 -0.262484 0.000000 0.439910 -0.202441 0.000000 0.468170 -0.142404 0.000000 0.485443 -0.085399 0.000000 0.493062 -0.033609 0.000000 0.490646 0.012564 0.000000 0.480519 0.052287 0.000000 0.463094 0.085736 0.000000 0.440817 0.112924 0.000000 0.414323 0.134494 0.000000 0.385609 0.150756 0.000000 0.355076 0.162596 0.000000 0.324137 0.170251 0.000000 0.292951 0.174661 0.000000 0.262479 0.175960 0.000000 0.232766 0.175088 0.000000 0.204445 0.172157 0.000000 0.177505 0.168079 0.000000 0.152284 0.162964 0.000000 0.128702 0.157620 0.000000 0.106820 0.152115 0.000000 0.086484 0.147085 0.000000 0.067537 0.142530 0.000000 0.049766 0.138900 0.000000 0.032879 0.136127 0.000000 0.016632 0.134510 0.000000 
0.000819 0.149689 0.000000 -0.014650 0.150489 0.000000 -0.030528 0.152657 0.000000 -0.047125 0.156309 0.000000 -0.064851 0.161120 0.000000 -0.083961 0.167136 0.000000 -0.104806 0.173838 0.000000 -0.127509 0.181198 0.000000 -0.152329 0.188455 0.000000 -0.179180 0.195528 0.000000 -0.208230 0.201421 0.000000 -0.239126 0.206070 0.000000 -0.271994 0.208299 0.000000 -0.306174 0.208139 0.000000 -0.341807 0.204245 0.000000 -0.377774 0.196739 0.000000 -0.414178 0.184016 0.000000 -0.449082 0.166203 0.000000 -0.482389 0.141497 0.000000 -0.511021 0.110028 0.000000 -0.534650 0.070450 0.000000 -0.549420 0.023023 0.000000 -0.555194 -0.031820 0.000000 -0.548612 -0.094083 0.000000 -0.529812 -0.160397 0.000000 -0.495780 -0.230910 0.000000 -0.448438 -0.302479 0.000000 -0.389363 -0.372971 0.000000 -0.322682 -0.436791 0.000000 -0.249437 -0.493047 0.000000 -0.169556 -0.534843 0.000000 -0.087466 -0.561641 0.000000 -0.001780 -0.571438 0.000000 0.083414 -0.562480 0.000000 0.166323 -0.536795 0.000000 0.246386 -0.495525 0.000000 0.320968 -0.439980 0.000000 0.388298 -0.375175 0.000000 0.447389 -0.304431 0.000000 0.494675 -0.232692 0.000000 0.529205 -0.162489 0.000000 0.548196 -0.095644 0.000000 0.554795 -0.033795 0.000000 0.549574 0.021453 0.000000 0.534673 0.068893 0.000000 0.511506 0.108613 0.000000 0.482798 0.140287 0.000000 0.449790 0.165006 0.000000 0.414899 0.183043 0.000000 0.378691 0.195757 0.000000 0.342796 0.203449 0.000000 0.307310 0.207360 0.000000 0.273217 0.207664 0.000000 0.240465 0.205480 0.000000 0.209637 0.200942 0.000000 0.180675 0.195105 0.000000 0.153859 0.188113 0.000000 0.129102 0.180911 0.000000 0.106403 0.173609 0.000000 0.085605 0.166955 0.000000 0.066477 0.160982 0.000000 0.048788 0.156209 0.000000 0.032164 0.152591 0.000000 0.016319 0.150457 0.000000 
0.000717 0.164891 0.000000 -0.014139 0.165906 0.000000 -0.029466 0.168702 0.000000 -0.045660 0.173376 0.000000 -0.063166 0.179575 0.000000 -0.082335 0.187309 0.000000 -0.103521 0.195992 0.000000 -0.126952 0.205547 0.000000 -0.152869 0.215108 0.000000 -0.181306 0.224542 0.000000 -0.212418 0.232732 0.000000 -0.246028 0.239587 0.000000 -0.282273 0.243798 0.000000 -0.320745 0.245385 0.000000 -0.361573 0.242788 0.000000 -0.403874 0.236033 0.000000 -0.447570 0.223131 0.000000 -0.490665 0.203898 0.000000 -0.532631 0.176062 0.000000 -0.569611 0.139281 0.000000 -0.600940 0.092052 0.000000 -0.620941 0.034431 0.000000 -0.630273 -0.032852 0.000000 -0.623261 -0.109464 0.000000 -0.601789 -0.193529 0.000000 -0.566383 -0.282293 0.000000 -0.517045 -0.367107 0.000000 -0.452480 -0.444268 0.000000 -0.376984 -0.510225 0.000000 -0.291487 -0.568956 0.000000 -0.197359 -0.612157 0.000000 -0.101697 -0.640188 0.000000 -0.001782 -0.651311 0.000000 0.097487 -0.641161 0.000000 0.194040 -0.614635 0.000000 0.288326 -0.572272 0.000000 0.375671 -0.514565 0.000000 0.451986 -0.446758 0.000000 0.515910 -0.368861 0.000000 0.564903 -0.284257 0.000000 0.601266 -0.195924 0.000000 0.622967 -0.110988 0.000000 0.630080 -0.034987 0.000000 0.621668 0.032686 0.000000 0.601380 0.090355 0.000000 0.570669 0.137611 0.000000 0.533494 0.174640 0.000000 0.491818 0.202393 0.000000 0.448657 0.221855 0.000000 0.405074 0.234699 0.000000 0.362787 0.241632 0.000000 0.322013 0.244241 0.000000 0.283583 0.242805 0.000000 0.247379 0.238667 0.000000 0.213805 0.231946 0.000000 0.182729 0.223858 0.000000 0.154303 0.214538 0.000000 0.128415 0.205076 0.000000 0.104971 0.195612 0.000000 0.083810 0.187011 0.000000 0.064612 0.179347 0.000000 0.047132 0.173213 0.000000 0.030904 0.168596 0.000000 0.015606 0.165855 0.000000 
0.000892 0.179434 0.000000 -0.013129 0.180672 0.000000 -0.027687 0.184178 0.000000 -0.043259 0.190009 0.000000 -0.060334 0.197795 0.000000 -0.079356 0.207492 0.000000 -0.100698 0.218454 0.000000 -0.124693 0.230545 0.000000 -0.151601 0.242809 0.000000 -0.181600 0.255077 0.000000 -0.214911 0.266144 0.000000 -0.251583 0.275924 0.000000 -0.291900 0.283016 0.000000 -0.335738 0.287439 0.000000 -0.383388 0.287373 0.000000 -0.434086 0.282736 0.000000 -0.487721 0.270808 0.000000 -0.541842 0.251264 0.000000 -0.595443 0.220442 0.000000 -0.643456 0.178337 0.000000 -0.684130 0.121780 0.000000 -0.710663 0.052356 0.000000 -0.722603 -0.029500 0.000000 -0.716165 -0.122567 0.000000 -0.690444 -0.217274 0.000000 -0.638394 -0.315653 0.000000 -0.563944 -0.416382 0.000000 -0.475674 -0.513032 0.000000 -0.386800 -0.597784 0.000000 -0.295533 -0.672672 0.000000 -0.197961 -0.724633 0.000000 -0.102664 -0.757219 0.000000 -0.001528 -0.770622 0.000000 0.098661 -0.758301 0.000000 0.194837 -0.727634 0.000000 0.292303 -0.677155 0.000000 0.385886 -0.603641 0.000000 0.475869 -0.515414 0.000000 0.562119 -0.417348 0.000000 0.635925 -0.318048 0.000000 0.690024 -0.220552 0.000000 0.715942 -0.124458 0.000000 0.722049 -0.032496 0.000000 0.711363 0.050153 0.000000 0.684363 0.119891 0.000000 0.644395 0.176499 0.000000 0.596212 0.219137 0.000000 0.542899 0.249842 0.000000 0.488795 0.269787 0.000000 0.435273 0.281627 0.000000 0.384676 0.286511 0.000000 0.337104 0.286563 0.000000 0.293383 0.282298 0.000000 0.253145 0.275258 0.000000 0.216563 0.265592 0.000000 0.183320 0.254608 0.000000 0.153360 0.242427 0.000000 0.126501 0.230243 0.000000 0.102501 0.218214 0.000000 0.081191 0.207313 0.000000 0.062138 0.197660 0.000000 0.045089 0.189917 0.000000 0.029477 0.184118 0.000000 0.014947 0.180644 0.000000 
0.000771 0.192967 0.000000 -0.012174 0.194484 0.000000 -0.025712 0.198832 0.000000 -0.040411 0.206023 0.000000 -0.056775 0.215672 0.000000 -0.075367 0.227673 0.000000 -0.096551 0.241329 0.000000 -0.120812 0.256450 0.000000 -0.148424 0.272016 0.000000 -0.179792 0.287853 0.000000 -0.215238 0.302715 0.000000 -0.255175 0.316575 0.000000 -0.300061 0.327952 0.000000 -0.350260 0.336874 0.000000 -0.406047 0.341136 0.000000 -0.467041 0.340366 0.000000 -0.532406 0.330886 0.000000 -0.599552 0.311619 0.000000 -0.665721 0.277675 0.000000 -0.724604 0.227969 0.000000 -0.772430 0.159260 0.000000 -0.799158 0.072904 0.000000 -0.806143 -0.027350 0.000000 -0.780262 -0.141622 0.000000 -0.729969 -0.271299 0.000000 -0.668822 -0.408793 0.000000 -0.594189 -0.529828 0.000000 -0.500657 -0.621412 0.000000 -0.402350 -0.690365 0.000000 -0.298995 -0.757794 0.000000 -0.192467 -0.805026 0.000000 -0.097788 -0.836621 0.000000 -0.000821 -0.852636 0.000000 0.095086 -0.837526 0.000000 0.190608 -0.808278 0.000000 0.296419 -0.763321 0.000000 0.402064 -0.698131 0.000000 0.501305 -0.622991 0.000000 0.590680 -0.528917 0.000000 0.664470 -0.412163 0.000000 0.729859 -0.275940 0.000000 0.780107 -0.143014 0.000000 0.805536 -0.030409 0.000000 0.800925 0.070372 0.000000 0.773216 0.157323 0.000000 0.726337 0.225762 0.000000 0.667166 0.276136 0.000000 0.601218 0.309810 0.000000 0.534052 0.329481 0.000000 0.468623 0.338818 0.000000 0.407670 0.339802 0.000000 0.351788 0.335534 0.000000 0.301645 0.326763 0.000000 0.256717 0.315488 0.000000 0.216825 0.301771 0.000000 0.181380 0.287060 0.000000 0.150026 0.271357 0.000000 0.122430 0.255935 0.000000 0.098151 0.240921 0.000000 0.076983 0.227374 0.000000 0.058352 0.215449 0.000000 0.042007 0.205874 0.000000 0.027265 0.198737 0.000000 0.013753 0.194440 0.000000 
0.000966 0.205361 0.000000 -0.010557 0.207156 0.000000 -0.022720 0.212415 0.000000 -0.036168 0.221071 0.000000 -0.051427 0.232751 0.000000 -0.069168 0.247267 0.000000 -0.089772 0.263899 0.000000 -0.113891 0.282418 0.000000 -0.141876 0.301790 0.000000 -0.174427 0.321892 0.000000 -0.212072 0.341526 0.000000 -0.255692 0.360747 0.000000 -0.306034 0.378100 0.000000 -0.363939 0.393426 0.000000 -0.429706 0.404155 0.000000 -0.502851 0.409095 0.000000 -0.581798 0.403319 0.000000 -0.662370 0.384579 0.000000 -0.740191 0.345495 0.000000 -0.805344 0.285046 0.000000 -0.851658 0.196333 0.000000 -0.864977 0.086068 0.000000 -0.848356 -0.048396 0.000000 -0.806523 -0.198740 0.000000 -0.735973 -0.328715 0.000000 -0.614866 -0.451433 0.000000 -0.460182 -0.584547 0.000000 -0.312678 -0.704871 0.000000 -0.212154 -0.799446 0.000000 -0.140002 -0.882555 0.000000 -0.075915 -0.925840 0.000000 -0.037571 -0.948865 0.000000 0.000849 -0.963496 0.000000 0.038371 -0.949730 0.000000 0.077950 -0.928967 0.000000 0.139956 -0.888611 0.000000 0.210740 -0.808526 0.000000 0.312081 -0.704031 0.000000 0.455406 -0.580513 0.000000 0.609716 -0.457227 0.000000 0.738160 -0.336190 0.000000 0.807168 -0.200135 0.000000 0.845974 -0.053314 0.000000 0.866095 0.082474 0.000000 0.851658 0.194479 0.000000 0.806396 0.282549 0.000000 0.741287 0.344257 0.000000 0.663678 0.382956 0.000000 0.583363 0.402382 0.000000 0.504370 0.408009 0.000000 0.431442 0.403346 0.000000 0.365628 0.392589 0.000000 0.307880 0.377369 0.000000 0.257548 0.360078 0.000000 0.214025 0.340929 0.000000 0.176418 0.321406 0.000000 0.143900 0.301378 0.000000 0.115946 0.282118 0.000000 0.091804 0.263661 0.000000 0.071216 0.247112 0.000000 0.053421 0.232636 0.000000 0.038174 0.221005 0.000000 0.024670 0.212372 0.000000 0.012529 0.207138 0.000000 
0.000822 0.216053 0.000000 -0.008935 0.218170 0.000000 -0.019360 0.224444 0.000000 -0.031176 0.234730 0.000000 -0.044890 0.248671 0.000000 -0.061316 0.266017 0.000000 -0.080819 0.286052 0.000000 -0.104291 0.308555 0.000000 -0.132177 0.332552 0.000000 -0.165564 0.358049 0.000000 -0.205278 0.383980 0.000000 -0.252719 0.410538 0.000000 -0.308953 0.436200 0.000000 -0.375193 0.460546 0.000000 -0.451301 0.480048 0.000000 -0.536455 0.492458 0.000000 -0.626553 0.490405 0.000000 -0.716076 0.470012 0.000000 -0.795180 0.420650 0.000000 -0.852148 0.339436 0.000000 -0.873348 0.218892 0.000000 -0.846500 0.069602 0.000000 -0.775558 -0.085804 0.000000 -0.618234 -0.254005 0.000000 -0.413372 -0.462957 0.000000 -0.241085 -0.684584 0.000000 -0.119759 -0.832016 0.000000 -0.030277 -0.869440 0.000000 0.000860 -0.863042 0.000000 0.010163 -0.894033 0.000000 0.023930 -0.907457 0.000000 0.014468 -0.913385 0.000000 0.002424 -0.928578 0.000000 -0.009439 -0.914627 0.000000 -0.019233 -0.909863 0.000000 -0.005935 -0.896111 0.000000 -0.002977 -0.870255 0.000000 0.027821 -0.867657 0.000000 0.121808 -0.826552 0.000000 0.241155 -0.694917 0.000000 0.415275 -0.473392 0.000000 0.615109 -0.250828 0.000000 0.770537 -0.089336 0.000000 0.848784 0.064688 0.000000 0.873325 0.217021 0.000000 0.853328 0.336133 0.000000 0.796883 0.418854 0.000000 0.717852 0.467734 0.000000 0.628849 0.488789 0.000000 0.538426 0.490739 0.000000 0.453479 0.478544 0.000000 0.377058 0.459096 0.000000 0.310882 0.434843 0.000000 0.254486 0.409343 0.000000 0.207072 0.382901 0.000000 0.167319 0.357185 0.000000 0.133933 0.331830 0.000000 0.106058 0.308032 0.000000 0.082556 0.285652 0.000000 0.063069 0.265756 0.000000 0.046590 0.248491 0.000000 0.032893 0.234625 0.000000 0.021022 0.224382 0.000000 0.010622 0.218145 0.000000 
0.001026 0.224917 0.000000 -0.006500 0.227338 0.000000 -0.014695 0.234657 0.000000 -0.024338 0.246601 0.000000 -0.035915 0.262891 0.000000 -0.050372 0.283197 0.000000 -0.068096 0.306874 0.000000 -0.090243 0.333775 0.000000 -0.117438 0.363063 0.000000 -0.151236 0.394993 0.000000 -0.192821 0.428681 0.000000 -0.244168 0.464423 0.000000 -0.306460 0.500575 0.000000 -0.381063 0.535774 0.000000 -0.466580 0.565416 0.000000 -0.560714 0.584346 0.000000 -0.655576 0.582940 0.000000 -0.740950 0.553206 0.000000 -0.801911 0.481567 0.000000 -0.818509 0.363215 0.000000 -0.771327 0.190684 0.000000 -0.626397 -0.011723 0.000000 -0.407522 -0.276661 0.000000 -0.202359 -0.560926 0.000000 -0.049298 -0.705864 0.000000 0.015250 -0.745047 0.000000 0.001949 -0.795355 0.000000 0.000900 -0.825490 0.000000 0.009968 -0.839886 0.000000 0.027746 -0.905624 0.000000 0.031801 -0.930145 0.000000 0.026459 -0.927359 0.000000 0.002394 -0.939589 0.000000 -0.020420 -0.928074 0.000000 -0.028366 -0.932472 0.000000 -0.021231 -0.904867 0.000000 -0.005249 -0.842282 0.000000 -0.000031 -0.828817 0.000000 0.003936 -0.793847 0.000000 -0.010973 -0.750693 0.000000 0.043867 -0.710144 0.000000 0.194278 -0.555398 0.000000 0.399811 -0.286989 0.000000 0.622536 -0.020314 0.000000 0.768272 0.189936 0.000000 0.816844 0.358990 0.000000 0.802346 0.479733 0.000000 0.741512 0.550990 0.000000 0.657383 0.581808 0.000000 0.562408 0.583379 0.000000 0.468849 0.564714 0.000000 0.383203 0.535186 0.000000 0.308813 0.499940 0.000000 0.246458 0.463888 0.000000 0.195166 0.428096 0.000000 0.153579 0.394545 0.000000 0.119760 0.362639 0.000000 0.092574 0.333496 0.000000 0.070358 0.306650 0.000000 0.052632 0.283077 0.000000 0.038085 0.262812 0.000000 0.026503 0.246573 0.000000 0.016781 0.234643 0.000000 0.008600 0.227337 0.000000 