# vtk DataFile Version 2.0
Comment goes here
ASCII

DATASET STRUCTURED_POINTS
FIELD FieldData 1
TIME 1 1 double
0.53000000
DIMENSIONS    64   64   1

ORIGIN    0.000   0.000   0.000
SPACING   0.015625 0.015625   1.000

POINT_DATA   4096
VECTORS u double

0.000702 -0.000000 0.000000 -0.014979 -0.000000 0.000000 -0.030750 -0.000000 0.000000 -0.046740 -0.000000 0.000000 -0.062976 0.000000 0.000000 -0.079624 0.000000 0.000000 -0.096638 0.000000 0.000000 -0.114198 0.000000 0.000000 -0.132176 0.000000 0.000000 -0.150736 0.000000 0.000000 -0.169662 0.000000 0.000000 -0.189056 0.000000 0.000000 -0.208614 0.000000 0.000000 -0.228325 0.000000 0.000000 -0.247801 0.000000 0.000000 -0.266855 0.000000 0.000000 -0.285033 0.000000 0.000000 -0.301898 0.000000 0.000000 -0.316969 0.000000 0.000000 -0.329478 0.000000 0.000000 -0.338979 0.000000 0.000000 -0.344329 0.000000 0.000000 -0.345220 0.000000 0.000000 -0.340204 0.000000 0.000000 -0.329278 0.000000 0.000000 -0.310964 0.000000 0.000000 -0.285782 0.000000 0.000000 -0.252676 0.000000 0.000000 -0.212886 0.000000 0.000000 -0.166189 0.000000 0.000000 -0.114568 0.000000 0.000000 -0.058765 0.000000 0.000000 -0.001272 0.000000 0.000000 0.056510 0.000000 0.000000 0.112144 0.000000 0.000000 0.164130 0.000000 0.000000 0.210796 0.000000 0.000000 0.250953 0.000000 0.000000 0.284157 0.000000 0.000000 0.309639 0.000000 0.000000 0.328170 0.000000 0.000000 0.339295 0.000000 0.000000 0.344608 0.000000 0.000000 0.343831 0.000000 0.000000 0.338807 0.000000 0.000000 0.329368 0.000000 0.000000 0.317168 0.000000 0.000000 0.302138 0.000000 0.000000 0.285538 0.000000 0.000000 0.267395 -0.000000 0.000000 0.248553 -0.000000 0.000000 0.229114 -0.000000 0.000000 0.209562 -0.000000 0.000000 0.190042 -0.000000 0.000000 0.170763 -0.000000 0.000000 0.151874 -0.000000 0.000000 0.133393 -0.000000 0.000000 0.115448 -0.000000 0.000000 0.097940 -0.000000 0.000000 0.080954 -0.000000 0.000000 0.064336 -0.000000 0.000000 0.048120 -0.000000 0.000000 0.032143 -0.000000 0.000000 0.016383 -0.000000 0.000000 
0.000731 0.015681 0.000000 -0.014925 0.015726 0.000000 -0.030673 0.015880 0.000000 -0.046648 0.016113 0.000000 -0.062880 0.016442 0.000000 -0.079539 0.016831 0.000000 -0.096581 0.017287 0.000000 -0.114193 0.017769 0.000000 -0.132246 0.018269 0.000000 -0.150910 0.018743 0.000000 -0.169969 0.019160 0.000000 -0.189531 0.019476 0.000000 -0.209288 0.019635 0.000000 -0.229237 0.019594 0.000000 -0.248980 0.019265 0.000000 -0.268341 0.018616 0.000000 -0.286852 0.017522 0.000000 -0.304089 0.015968 0.000000 -0.319542 0.013790 0.000000 -0.332472 0.011005 0.000000 -0.342373 0.007425 0.000000 -0.348153 0.003120 0.000000 -0.349404 -0.002062 0.000000 -0.344741 -0.007971 0.000000 -0.334044 -0.014620 0.000000 -0.315862 -0.021748 0.000000 -0.290629 -0.029144 0.000000 -0.257256 -0.036448 0.000000 -0.216957 -0.043243 0.000000 -0.169498 -0.049159 0.000000 -0.116919 -0.053712 0.000000 -0.060005 -0.056648 0.000000 -0.001328 -0.057637 0.000000 0.057639 -0.056708 0.000000 0.114389 -0.053810 0.000000 0.167339 -0.049326 0.000000 0.214773 -0.043411 0.000000 0.255449 -0.036681 0.000000 0.288931 -0.029343 0.000000 0.314475 -0.022007 0.000000 0.332887 -0.014828 0.000000 0.343795 -0.008219 0.000000 0.348770 -0.002268 0.000000 0.347644 0.002901 0.000000 0.342203 0.007232 0.000000 0.332374 0.010819 0.000000 0.319761 0.013615 0.000000 0.304356 0.015815 0.000000 0.287388 0.017371 0.000000 0.268917 0.018492 0.000000 0.249770 0.019141 0.000000 0.230066 0.019495 0.000000 0.210278 0.019536 0.000000 0.190562 0.019400 0.000000 0.171115 0.019084 0.000000 0.152096 0.018685 0.000000 0.133511 0.018213 0.000000 0.115494 0.017727 0.000000 0.097935 0.017247 0.000000 0.080922 0.016802 0.000000 0.064294 0.016417 0.000000 0.048084 0.016096 0.000000 0.032123 0.015868 0.000000 0.016385 0.015721 0.000000 
0.000708 0.031310 0.000000 -0.014870 0.031404 0.000000 -0.030552 0.031724 0.000000 -0.046480 0.032207 0.000000 -0.062692 0.032891 0.000000 -0.079370 0.033701 0.000000 -0.096477 0.034653 0.000000 -0.114208 0.035664 0.000000 -0.132441 0.036717 0.000000 -0.151353 0.037723 0.000000 -0.170724 0.038621 0.000000 -0.190672 0.039320 0.000000 -0.210874 0.039705 0.000000 -0.231332 0.039692 0.000000 -0.251626 0.039104 0.000000 -0.271579 0.037871 0.000000 -0.290690 0.035748 0.000000 -0.308526 0.032690 0.000000 -0.324541 0.028384 0.000000 -0.337957 0.022831 0.000000 -0.348253 0.015680 0.000000 -0.354248 0.007031 0.000000 -0.355579 -0.003411 0.000000 -0.350724 -0.015360 0.000000 -0.339682 -0.028879 0.000000 -0.320892 -0.043415 0.000000 -0.294946 -0.058607 0.000000 -0.260751 -0.073672 0.000000 -0.219662 -0.087757 0.000000 -0.171450 -0.100038 0.000000 -0.118181 -0.109493 0.000000 -0.060623 -0.115591 0.000000 -0.001334 -0.117644 0.000000 0.058267 -0.115716 0.000000 0.115649 -0.109700 0.000000 0.169320 -0.100384 0.000000 0.217506 -0.088111 0.000000 0.258998 -0.074158 0.000000 0.293298 -0.059025 0.000000 0.319561 -0.043956 0.000000 0.338588 -0.029320 0.000000 0.349824 -0.015883 0.000000 0.355001 -0.003849 0.000000 0.353768 0.006567 0.000000 0.348121 0.015270 0.000000 0.337872 0.022442 0.000000 0.324779 0.028019 0.000000 0.308796 0.032373 0.000000 0.291230 0.035438 0.000000 0.272151 0.037618 0.000000 0.252409 0.038851 0.000000 0.232152 0.039492 0.000000 0.211850 0.039504 0.000000 0.191687 0.039164 0.000000 0.171849 0.038466 0.000000 0.152516 0.037604 0.000000 0.133678 0.036602 0.000000 0.115480 0.035576 0.000000 0.097796 0.034572 0.000000 0.080717 0.033641 0.000000 0.064067 0.032839 0.000000 0.047874 0.032172 0.000000 0.031959 0.031698 0.000000 0.016288 0.031392 0.000000 
0.000744 0.046839 0.000000 -0.014702 0.046987 0.000000 -0.030268 0.047490 0.000000 -0.046115 0.048253 0.000000 -0.062294 0.049332 0.000000 -0.079010 0.050615 0.000000 -0.096232 0.052125 0.000000 -0.114182 0.053733 0.000000 -0.132735 0.055414 0.000000 -0.152096 0.057026 0.000000 -0.172034 0.058479 0.000000 -0.192688 0.059626 0.000000 -0.213715 0.060295 0.000000 -0.235136 0.060345 0.000000 -0.256497 0.059511 0.000000 -0.277636 0.057680 0.000000 -0.298002 0.054469 0.000000 -0.317172 0.049819 0.000000 -0.334521 0.043221 0.000000 -0.349281 0.034717 0.000000 -0.360806 0.023717 0.000000 -0.367937 0.010446 0.000000 -0.370138 -0.005586 0.000000 -0.365920 -0.023868 0.000000 -0.355120 -0.044453 0.000000 -0.336156 -0.066484 0.000000 -0.309573 -0.089285 0.000000 -0.274124 -0.111732 0.000000 -0.231241 -0.132544 0.000000 -0.180645 -0.150641 0.000000 -0.124598 -0.164539 0.000000 -0.063956 -0.173494 0.000000 -0.001454 -0.176528 0.000000 0.061383 -0.173692 0.000000 0.121847 -0.164864 0.000000 0.178340 -0.151182 0.000000 0.228921 -0.133089 0.000000 0.272257 -0.112473 0.000000 0.307824 -0.089905 0.000000 0.334754 -0.067296 0.000000 0.353990 -0.045091 0.000000 0.364990 -0.024632 0.000000 0.369576 -0.006213 0.000000 0.367469 0.009781 0.000000 0.360723 0.023127 0.000000 0.349242 0.034161 0.000000 0.334825 0.042692 0.000000 0.317506 0.049364 0.000000 0.298613 0.054016 0.000000 0.278281 0.057313 0.000000 0.257351 0.059140 0.000000 0.236030 0.060055 0.000000 0.214760 0.060001 0.000000 0.193776 0.059400 0.000000 0.173227 0.058255 0.000000 0.153331 0.056856 0.000000 0.134042 0.055249 0.000000 0.115525 0.053609 0.000000 0.097621 0.052010 0.000000 0.080429 0.050531 0.000000 0.063739 0.049260 0.000000 0.047581 0.048204 0.000000 0.031745 0.047455 0.000000 0.016192 0.046971 0.000000 
0.000727 0.062204 0.000000 -0.014531 0.062416 0.000000 -0.029934 0.063136 0.000000 -0.045663 0.064234 0.000000 -0.061793 0.065786 0.000000 -0.078551 0.067639 0.000000 -0.095925 0.069825 0.000000 -0.114161 0.072168 0.000000 -0.133141 0.074632 0.000000 -0.153092 0.077022 0.000000 -0.173775 0.079213 0.000000 -0.195352 0.081001 0.000000 -0.217449 0.082153 0.000000 -0.240113 0.082474 0.000000 -0.262833 0.081604 0.000000 -0.285476 0.079376 0.000000 -0.307399 0.075284 0.000000 -0.328200 0.069209 0.000000 -0.347127 0.060493 0.000000 -0.363386 0.049116 0.000000 -0.376207 0.034336 0.000000 -0.384293 0.016362 0.000000 -0.387082 -0.005428 0.000000 -0.382812 -0.030378 0.000000 -0.371473 -0.058643 0.000000 -0.351221 -0.088961 0.000000 -0.322898 -0.120639 0.000000 -0.285306 -0.152005 0.000000 -0.240226 -0.181236 0.000000 -0.187398 -0.206681 0.000000 -0.129119 -0.226182 0.000000 -0.066260 -0.238735 0.000000 -0.001526 -0.242983 0.000000 0.063589 -0.239017 0.000000 0.126255 -0.226656 0.000000 0.185060 -0.207458 0.000000 0.237881 -0.182029 0.000000 0.283490 -0.153061 0.000000 0.321190 -0.121522 0.000000 0.349887 -0.090122 0.000000 0.370441 -0.059557 0.000000 0.381942 -0.031469 0.000000 0.386624 -0.006328 0.000000 0.383872 0.015420 0.000000 0.376206 0.033497 0.000000 0.363384 0.048340 0.000000 0.347487 0.059755 0.000000 0.328565 0.068585 0.000000 0.308045 0.074664 0.000000 0.286146 0.078880 0.000000 0.263709 0.081102 0.000000 0.241027 0.082083 0.000000 0.218506 0.081758 0.000000 0.196452 0.080697 0.000000 0.174970 0.078911 0.000000 0.154330 0.076789 0.000000 0.134439 0.074408 0.000000 0.115496 0.071997 0.000000 0.097296 0.069668 0.000000 0.079951 0.067522 0.000000 0.063211 0.065686 0.000000 0.047102 0.064165 0.000000 0.031379 0.063088 0.000000 0.015990 0.062393 0.000000 
0.000771 0.077361 0.000000 -0.014230 0.077647 0.000000 -0.029405 0.078621 0.000000 -0.044969 0.080112 0.000000 -0.061021 0.082221 0.000000 -0.077825 0.084748 0.000000 -0.095382 0.087735 0.000000 -0.113980 0.090948 0.000000 -0.133497 0.094344 0.000000 -0.154203 0.097660 0.000000 -0.175840 0.100739 0.000000 -0.198611 0.103300 0.000000 -0.222106 0.105056 0.000000 -0.246411 0.105729 0.000000 -0.270967 0.104874 0.000000 -0.295672 0.102245 0.000000 -0.319817 0.097193 0.000000 -0.343007 0.089547 0.000000 -0.364378 0.078407 0.000000 -0.383116 0.063798 0.000000 -0.398250 0.044624 0.000000 -0.408482 0.021321 0.000000 -0.412942 -0.007068 0.000000 -0.409941 -0.039477 0.000000 -0.399161 -0.076044 0.000000 -0.378766 -0.115058 0.000000 -0.349572 -0.155200 0.000000 -0.309859 -0.194404 0.000000 -0.261576 -0.230452 0.000000 -0.204332 -0.261748 0.000000 -0.140879 -0.285677 0.000000 -0.072345 -0.301087 0.000000 -0.001710 -0.306376 0.000000 0.069347 -0.301473 0.000000 0.137680 -0.286335 0.000000 0.201748 -0.262808 0.000000 0.259009 -0.231520 0.000000 0.307928 -0.195782 0.000000 0.347735 -0.156302 0.000000 0.377354 -0.116548 0.000000 0.398121 -0.077147 0.000000 0.409053 -0.040815 0.000000 0.412560 -0.008143 0.000000 0.408109 0.020199 0.000000 0.398367 0.043616 0.000000 0.383210 0.062881 0.000000 0.364865 0.077511 0.000000 0.343487 0.088805 0.000000 0.320582 0.096434 0.000000 0.296457 0.101650 0.000000 0.271948 0.104259 0.000000 0.247433 0.105258 0.000000 0.223259 0.104576 0.000000 0.199813 0.102936 0.000000 0.177127 0.100377 0.000000 0.155538 0.097387 0.000000 0.134884 0.094082 0.000000 0.115408 0.090752 0.000000 0.096842 0.087555 0.000000 0.079316 0.084616 0.000000 0.062527 0.082109 0.000000 0.046498 0.080036 0.000000 0.030938 0.078567 0.000000 0.015777 0.077623 0.000000 
0.000758 0.092211 0.000000 -0.013919 0.092591 0.000000 -0.028806 0.093876 0.000000 -0.044157 0.095849 0.000000 -0.060101 0.098643 0.000000 -0.076944 0.102001 0.000000 -0.094707 0.105979 0.000000 -0.113716 0.110282 0.000000 -0.133860 0.114856 0.000000 -0.155442 0.119365 0.000000 -0.178196 0.123621 0.000000 -0.202362 0.127267 0.000000 -0.227503 0.129953 0.000000 -0.253757 0.131335 0.000000 -0.280503 0.130865 0.000000 -0.307718 0.128226 0.000000 -0.334556 0.122619 0.000000 -0.360715 0.113770 0.000000 -0.385074 0.100602 0.000000 -0.406856 0.082988 0.000000 -0.424753 0.059702 0.000000 -0.437300 0.031054 0.000000 -0.443439 -0.003968 0.000000 -0.440922 -0.044159 0.000000 -0.429660 -0.089819 0.000000 -0.407085 -0.138551 0.000000 -0.374528 -0.189546 0.000000 -0.330669 -0.240000 0.000000 -0.278338 -0.286763 0.000000 -0.217116 -0.327378 0.000000 -0.149541 -0.358168 0.000000 -0.076855 -0.377905 0.000000 -0.001840 -0.384676 0.000000 0.073668 -0.378407 0.000000 0.146131 -0.359057 0.000000 0.214472 -0.328787 0.000000 0.275747 -0.288208 0.000000 0.328865 -0.241787 0.000000 0.372729 -0.190948 0.000000 0.405778 -0.140509 0.000000 0.428804 -0.091256 0.000000 0.440118 -0.045908 0.000000 0.443239 -0.005385 0.000000 0.436995 0.029613 0.000000 0.425007 0.058396 0.000000 0.407015 0.081843 0.000000 0.385655 0.099478 0.000000 0.361259 0.112868 0.000000 0.335385 0.121694 0.000000 0.308562 0.127513 0.000000 0.281531 0.130126 0.000000 0.254831 0.130772 0.000000 0.228692 0.129378 0.000000 0.203606 0.126828 0.000000 0.179508 0.123186 0.000000 0.156805 0.119032 0.000000 0.135259 0.114538 0.000000 0.115156 0.110040 0.000000 0.096164 0.105759 0.000000 0.078431 0.101837 0.000000 0.061593 0.098504 0.000000 0.045670 0.095754 0.000000 0.030316 0.093809 0.000000 0.015443 0.092560 0.000000 
0.000811 0.106722 0.000000 -0.013445 0.107211 0.000000 -0.027953 0.108859 0.000000 -0.043013 0.111407 0.000000 -0.058787 0.115008 0.000000 -0.075631 0.119354 0.000000 -0.093583 0.124507 0.000000 -0.113022 0.130101 0.000000 -0.133833 0.136070 0.000000 -0.156379 0.141997 0.000000 -0.180370 0.147659 0.000000 -0.206117 0.152607 0.000000 -0.233151 0.156451 0.000000 -0.261699 0.158728 0.000000 -0.291106 0.158835 0.000000 -0.321430 0.156299 0.000000 -0.351776 0.150190 0.000000 -0.381843 0.140066 0.000000 -0.410391 0.124548 0.000000 -0.436523 0.103477 0.000000 -0.458656 0.075068 0.000000 -0.475211 0.040006 0.000000 -0.484585 -0.003445 0.000000 -0.484757 -0.053255 0.000000 -0.474895 -0.109881 0.000000 -0.452911 -0.170191 0.000000 -0.420177 -0.231615 0.000000 -0.373532 -0.290594 0.000000 -0.315949 -0.344005 0.000000 -0.246819 -0.390544 0.000000 -0.169890 -0.425939 0.000000 -0.087303 -0.448788 0.000000 -0.002037 -0.456899 0.000000 0.083757 -0.449443 0.000000 0.166089 -0.427139 0.000000 0.243912 -0.392424 0.000000 0.313142 -0.345913 0.000000 0.371701 -0.292765 0.000000 0.418171 -0.233215 0.000000 0.451477 -0.172623 0.000000 0.474075 -0.111487 0.000000 0.483930 -0.055250 0.000000 0.484564 -0.005020 0.000000 0.475016 0.038431 0.000000 0.459141 0.073595 0.000000 0.436870 0.102233 0.000000 0.411190 0.123267 0.000000 0.382581 0.139075 0.000000 0.352782 0.149131 0.000000 0.322443 0.155504 0.000000 0.292273 0.157990 0.000000 0.262915 0.158097 0.000000 0.234456 0.155801 0.000000 0.207486 0.152120 0.000000 0.181790 0.147179 0.000000 0.157860 0.141636 0.000000 0.135340 0.135731 0.000000 0.114576 0.129847 0.000000 0.095147 0.124280 0.000000 0.077229 0.119188 0.000000 0.060386 0.114870 0.000000 0.044634 0.111313 0.000000 0.029569 0.108794 0.000000 0.015076 0.107181 0.000000 
0.000800 0.120732 0.000000 -0.012940 0.121355 0.000000 -0.026981 0.123444 0.000000 -0.041670 0.126683 0.000000 -0.057209 0.131261 0.000000 -0.074005 0.136797 0.000000 -0.092122 0.143371 0.000000 -0.111986 0.150532 0.000000 -0.133497 0.158213 0.000000 -0.157065 0.165901 0.000000 -0.182413 0.173358 0.000000 -0.209915 0.180048 0.000000 -0.239125 0.185535 0.000000 -0.270368 0.189291 0.000000 -0.302993 0.190597 0.000000 -0.337210 0.188896 0.000000 -0.371977 0.183031 0.000000 -0.407200 0.172385 0.000000 -0.441156 0.155282 0.000000 -0.473148 0.131253 0.000000 -0.500754 0.098390 0.000000 -0.522335 0.056984 0.000000 -0.535632 0.005578 0.000000 -0.537546 -0.053849 0.000000 -0.527677 -0.121665 0.000000 -0.501460 -0.193269 0.000000 -0.461010 -0.268924 0.000000 -0.405533 -0.344227 0.000000 -0.340903 -0.413476 0.000000 -0.265972 -0.473437 0.000000 -0.182975 -0.517684 0.000000 -0.094359 -0.545758 0.000000 -0.002115 -0.555736 0.000000 0.090712 -0.546533 0.000000 0.179000 -0.519212 0.000000 0.263100 -0.475840 0.000000 0.338246 -0.415997 0.000000 0.404051 -0.346816 0.000000 0.458859 -0.270725 0.000000 0.500083 -0.196413 0.000000 0.527213 -0.123708 0.000000 0.536789 -0.056398 0.000000 0.535905 0.003529 0.000000 0.522211 0.055036 0.000000 0.501435 0.096542 0.000000 0.473597 0.129794 0.000000 0.442087 0.153768 0.000000 0.408051 0.171276 0.000000 0.373076 0.181831 0.000000 0.338328 0.188022 0.000000 0.304231 0.189655 0.000000 0.271676 0.188589 0.000000 0.240489 0.184807 0.000000 0.211359 0.179494 0.000000 0.183880 0.172812 0.000000 0.158599 0.165482 0.000000 0.135035 0.157822 0.000000 0.113570 0.150232 0.000000 0.093698 0.143107 0.000000 0.075611 0.136598 0.000000 0.058803 0.131099 0.000000 0.043283 0.126571 0.000000 0.028580 0.123367 0.000000 0.014554 0.121319 0.000000 
0.000862 0.134216 0.000000 -0.012221 0.134993 0.000000 -0.025655 0.137589 0.000000 -0.039839 0.141635 0.000000 -0.055019 0.147344 0.000000 -0.071651 0.154267 0.000000 -0.089826 0.162488 0.000000 -0.110026 0.171476 0.000000 -0.132157 0.181149 0.000000 -0.156712 0.190913 0.000000 -0.183409 0.200509 0.000000 -0.212765 0.209319 0.000000 -0.244333 0.216904 0.000000 -0.278648 0.222596 0.000000 -0.315066 0.225676 0.000000 -0.353980 0.225283 0.000000 -0.394324 0.220181 0.000000 -0.435944 0.209245 0.000000 -0.476978 0.190495 0.000000 -0.516238 0.163074 0.000000 -0.550937 0.124255 0.000000 -0.578780 0.074884 0.000000 -0.596575 0.011765 0.000000 -0.601672 -0.061210 0.000000 -0.591649 -0.145966 0.000000 -0.565714 -0.236858 0.000000 -0.527021 -0.327543 0.000000 -0.468009 -0.410701 0.000000 -0.394184 -0.483565 0.000000 -0.305210 -0.548472 0.000000 -0.207487 -0.597552 0.000000 -0.106302 -0.629649 0.000000 -0.002049 -0.641970 0.000000 0.102746 -0.630558 0.000000 0.203423 -0.599527 0.000000 0.302237 -0.551671 0.000000 0.391454 -0.486864 0.000000 0.466675 -0.413377 0.000000 0.524113 -0.329246 0.000000 0.563789 -0.240977 0.000000 0.591234 -0.148192 0.000000 0.600769 -0.063943 0.000000 0.597168 0.009558 0.000000 0.578854 0.072902 0.000000 0.552019 0.122208 0.000000 0.517036 0.161581 0.000000 0.478253 0.188814 0.000000 0.437115 0.208086 0.000000 0.395667 0.218854 0.000000 0.355337 0.224348 0.000000 0.316471 0.224642 0.000000 0.280127 0.221839 0.000000 0.245824 0.216118 0.000000 0.214348 0.208729 0.000000 0.184993 0.199939 0.000000 0.158377 0.190481 0.000000 0.133814 0.180760 0.000000 0.111740 0.171183 0.000000 0.091526 0.162239 0.000000 0.073387 0.154083 0.000000 0.056738 0.147199 0.000000 0.041579 0.141536 0.000000 0.027379 0.137523 0.000000 0.013960 0.134961 0.000000 
0.000850 0.146913 0.000000 -0.011432 0.147872 0.000000 -0.024115 0.151062 0.000000 -0.037655 0.156048 0.000000 -0.052335 0.163073 0.000000 -0.068671 0.171603 0.000000 -0.086778 0.181746 0.000000 -0.107202 0.192863 0.000000 -0.129877 0.204899 0.000000 -0.155377 0.217154 0.000000 -0.183492 0.229410 0.000000 -0.214856 0.240972 0.000000 -0.249178 0.251419 0.000000 -0.287141 0.260024 0.000000 -0.328272 0.265929 0.000000 -0.373117 0.268154 0.000000 -0.420496 0.264995 0.000000 -0.470425 0.255040 0.000000 -0.520100 0.235576 0.000000 -0.568683 0.205211 0.000000 -0.611241 0.160932 0.000000 -0.646049 0.102622 0.000000 -0.667735 0.028469 0.000000 -0.672531 -0.058775 0.000000 -0.659777 -0.157623 0.000000 -0.619073 -0.257897 0.000000 -0.554265 -0.366629 0.000000 -0.470973 -0.477065 0.000000 -0.386731 -0.576275 0.000000 -0.297297 -0.660134 0.000000 -0.201466 -0.716593 0.000000 -0.104198 -0.751195 0.000000 -0.001598 -0.764784 0.000000 0.101518 -0.752005 0.000000 0.197943 -0.718703 0.000000 0.294847 -0.663870 0.000000 0.384659 -0.580434 0.000000 0.470153 -0.479476 0.000000 0.549881 -0.367839 0.000000 0.616635 -0.263533 0.000000 0.660241 -0.160688 0.000000 0.671522 -0.062331 0.000000 0.668646 0.025443 0.000000 0.646076 0.100185 0.000000 0.612484 0.158360 0.000000 0.569611 0.203560 0.000000 0.521508 0.233689 0.000000 0.471779 0.253862 0.000000 0.421959 0.263609 0.000000 0.374649 0.267219 0.000000 0.329782 0.264864 0.000000 0.288766 0.259236 0.000000 0.250757 0.250586 0.000000 0.216551 0.240325 0.000000 0.185145 0.228783 0.000000 0.157118 0.216661 0.000000 0.131581 0.204458 0.000000 0.108960 0.192520 0.000000 0.088500 0.181460 0.000000 0.070420 0.171387 0.000000 0.054052 0.162906 0.000000 0.039386 0.155930 0.000000 0.025821 0.150986 0.000000 0.013150 0.147835 0.000000 
0.000922 0.158798 0.000000 -0.010351 0.159958 0.000000 -0.022074 0.163812 0.000000 -0.034751 0.169855 0.000000 -0.048711 0.178360 0.000000 -0.064515 0.188710 0.000000 -0.082314 0.201019 0.000000 -0.102722 0.214575 0.000000 -0.125704 0.229324 0.000000 -0.151974 0.244528 0.000000 -0.181370 0.259989 0.000000 -0.214795 0.275005 0.000000 -0.252020 0.289189 0.000000 -0.294110 0.301691 0.000000 -0.340580 0.311652 0.000000 -0.392257 0.317507 0.000000 -0.447705 0.317488 0.000000 -0.506608 0.308849 0.000000 -0.565594 0.288753 0.000000 -0.622146 0.254215 0.000000 -0.670681 0.201622 0.000000 -0.706541 0.131378 0.000000 -0.723440 0.038247 0.000000 -0.716403 -0.069168 0.000000 -0.678843 -0.199424 0.000000 -0.623579 -0.342371 0.000000 -0.563561 -0.475643 0.000000 -0.477522 -0.578235 0.000000 -0.377500 -0.657241 0.000000 -0.268484 -0.733736 0.000000 -0.165563 -0.790651 0.000000 -0.080867 -0.829516 0.000000 -0.000459 -0.847686 0.000000 0.080537 -0.830099 0.000000 0.163886 -0.792857 0.000000 0.266647 -0.738386 0.000000 0.374994 -0.662170 0.000000 0.476463 -0.578599 0.000000 0.556744 -0.475728 0.000000 0.619464 -0.351337 0.000000 0.679659 -0.203080 0.000000 0.714800 -0.072348 0.000000 0.724692 0.035005 0.000000 0.706796 0.129063 0.000000 0.672445 0.198673 0.000000 0.623638 0.252557 0.000000 0.567441 0.286646 0.000000 0.508430 0.307635 0.000000 0.449457 0.315984 0.000000 0.394092 0.316525 0.000000 0.342264 0.310525 0.000000 0.295922 0.300864 0.000000 0.253718 0.288334 0.000000 0.216627 0.274341 0.000000 0.183136 0.259371 0.000000 0.153846 0.244046 0.000000 0.127534 0.228918 0.000000 0.104619 0.214264 0.000000 0.084175 0.200778 0.000000 0.066409 0.188531 0.000000 0.050572 0.178233 0.000000 0.036627 0.169767 0.000000 0.023924 0.163759 0.000000 0.012212 0.159932 0.000000 
0.000904 0.169475 0.000000 -0.009142 0.170869 0.000000 -0.019677 0.175463 0.000000 -0.031259 0.182684 0.000000 -0.044243 0.192836 0.000000 -0.059256 0.205206 0.000000 -0.076473 0.219953 0.000000 -0.096604 0.236253 0.000000 -0.119673 0.254151 0.000000 -0.146551 0.272820 0.000000 -0.177243 0.292231 0.000000 -0.212853 0.311622 0.000000 -0.253471 0.330733 0.000000 -0.300256 0.348584 0.000000 -0.353064 0.364076 0.000000 -0.412397 0.375279 0.000000 -0.476652 0.379346 0.000000 -0.544654 0.372929 0.000000 -0.611070 0.351114 0.000000 -0.672824 0.310297 0.000000 -0.718774 0.245327 0.000000 -0.746826 0.155381 0.000000 -0.743077 0.038331 0.000000 -0.709821 -0.103373 0.000000 -0.650780 -0.250447 0.000000 -0.534793 -0.373179 0.000000 -0.372298 -0.512686 0.000000 -0.212382 -0.663126 0.000000 -0.113411 -0.785314 0.000000 -0.056096 -0.872071 0.000000 -0.015651 -0.904209 0.000000 -0.001481 -0.916299 0.000000 0.001167 -0.926189 0.000000 0.005380 -0.916351 0.000000 0.017754 -0.904813 0.000000 0.056624 -0.874978 0.000000 0.110430 -0.790251 0.000000 0.210068 -0.661225 0.000000 0.363324 -0.510840 0.000000 0.530858 -0.386448 0.000000 0.654828 -0.256023 0.000000 0.707193 -0.107365 0.000000 0.743522 0.033447 0.000000 0.746189 0.152432 0.000000 0.720057 0.241519 0.000000 0.674254 0.308563 0.000000 0.612815 0.348897 0.000000 0.546669 0.371846 0.000000 0.478491 0.377947 0.000000 0.414489 0.374412 0.000000 0.354901 0.363033 0.000000 0.302294 0.347781 0.000000 0.255312 0.329881 0.000000 0.214846 0.310907 0.000000 0.179110 0.291564 0.000000 0.148521 0.272263 0.000000 0.121562 0.253686 0.000000 0.098547 0.235879 0.000000 0.078356 0.219670 0.000000 0.061157 0.204989 0.000000 0.046095 0.192688 0.000000 0.033114 0.182578 0.000000 0.021499 0.175402 0.000000 0.010968 0.170838 0.000000 
0.000984 0.178908 0.000000 -0.007548 0.180540 0.000000 -0.016604 0.185929 0.000000 -0.026766 0.194421 0.000000 -0.038442 0.206357 0.000000 -0.052282 0.220940 0.000000 -0.068532 0.238367 0.000000 -0.087975 0.257775 0.000000 -0.110746 0.279272 0.000000 -0.137915 0.302097 0.000000 -0.169636 0.326291 0.000000 -0.207382 0.351233 0.000000 -0.251294 0.376592 0.000000 -0.302948 0.401284 0.000000 -0.361749 0.423793 0.000000 -0.428227 0.441095 0.000000 -0.499219 0.449744 0.000000 -0.572257 0.443266 0.000000 -0.639164 0.416924 0.000000 -0.692417 0.361919 0.000000 -0.719034 0.275624 0.000000 -0.708771 0.155681 0.000000 -0.652887 0.001242 0.000000 -0.531535 -0.161465 0.000000 -0.327241 -0.374452 0.000000 -0.122263 -0.620854 0.000000 0.009413 -0.798054 0.000000 0.081183 -0.837122 0.000000 0.075801 -0.813527 0.000000 0.046204 -0.831496 0.000000 0.032937 -0.845267 0.000000 0.021806 -0.846334 0.000000 0.001436 -0.854546 0.000000 -0.016913 -0.846687 0.000000 -0.030035 -0.844101 0.000000 -0.041929 -0.831062 0.000000 -0.076519 -0.815614 0.000000 -0.080448 -0.831494 0.000000 -0.007140 -0.796518 0.000000 0.121655 -0.642840 0.000000 0.326508 -0.379414 0.000000 0.524804 -0.161041 0.000000 0.652024 -0.003991 0.000000 0.707686 0.152528 0.000000 0.720197 0.270608 0.000000 0.694313 0.359800 0.000000 0.641016 0.414231 0.000000 0.574653 0.441959 0.000000 0.501188 0.448164 0.000000 0.430562 0.440115 0.000000 0.363686 0.422719 0.000000 0.305132 0.400453 0.000000 0.253218 0.375782 0.000000 0.209487 0.350542 0.000000 0.171604 0.325696 0.000000 0.140008 0.301594 0.000000 0.112766 0.278892 0.000000 0.090062 0.257470 0.000000 0.070568 0.238168 0.000000 0.054340 0.220791 0.000000 0.040457 0.206276 0.000000 0.028781 0.194364 0.000000 0.018586 0.185905 0.000000 0.009531 0.180527 0.000000 
0.000952 0.186554 0.000000 -0.005767 0.188457 0.000000 -0.013021 0.194681 0.000000 -0.021431 0.204522 0.000000 -0.031409 0.218352 0.000000 -0.043679 0.235296 0.000000 -0.058512 0.255646 0.000000 -0.076854 0.278467 0.000000 -0.098923 0.304092 0.000000 -0.126079 0.331710 0.000000 -0.158654 0.361698 0.000000 -0.198397 0.393281 0.000000 -0.245669 0.426299 0.000000 -0.301702 0.459039 0.000000 -0.365925 0.489356 0.000000 -0.436741 0.512749 0.000000 -0.510224 0.523376 0.000000 -0.579030 0.512874 0.000000 -0.631797 0.471274 0.000000 -0.655533 0.390167 0.000000 -0.627653 0.261681 0.000000 -0.543919 0.089234 0.000000 -0.366971 -0.138905 0.000000 -0.145629 -0.429019 0.000000 0.020356 -0.659719 0.000000 0.066916 -0.709833 0.000000 0.010006 -0.716132 0.000000 -0.037325 -0.729513 0.000000 -0.036985 -0.750335 0.000000 -0.009314 -0.829208 0.000000 0.007094 -0.879811 0.000000 0.014372 -0.884798 0.000000 0.001250 -0.887470 0.000000 -0.012590 -0.884880 0.000000 -0.005346 -0.879798 0.000000 0.013802 -0.828494 0.000000 0.042159 -0.751731 0.000000 0.039216 -0.730604 0.000000 0.001554 -0.712944 0.000000 -0.067860 -0.720097 0.000000 -0.033544 -0.659172 0.000000 0.136795 -0.432880 0.000000 0.359778 -0.149435 0.000000 0.538934 0.084259 0.000000 0.625879 0.254892 0.000000 0.656413 0.387744 0.000000 0.632607 0.468557 0.000000 0.581265 0.511674 0.000000 0.512040 0.522038 0.000000 0.439328 0.511914 0.000000 0.368064 0.488463 0.000000 0.304206 0.458249 0.000000 0.247829 0.425526 0.000000 0.200731 0.392522 0.000000 0.160777 0.361043 0.000000 0.128288 0.331101 0.000000 0.101012 0.303632 0.000000 0.078974 0.278077 0.000000 0.060555 0.255392 0.000000 0.045717 0.235101 0.000000 0.033390 0.218246 0.000000 0.023394 0.204449 0.000000 0.014947 0.194651 0.000000 0.007684 0.188440 0.000000 
0.001036 0.192358 0.000000 -0.003523 0.194513 0.000000 -0.008622 0.201593 0.000000 -0.014866 0.212808 0.000000 -0.022725 0.228605 0.000000 -0.032909 0.248044 0.000000 -0.045831 0.271542 0.000000 -0.062494 0.298186 0.000000 -0.083354 0.328497 0.000000 -0.109956 0.361829 0.000000 -0.142850 0.398608 0.000000 -0.183985 0.438248 0.000000 -0.233453 0.479897 0.000000 -0.292250 0.521540 0.000000 -0.357947 0.558833 0.000000 -0.427612 0.585394 0.000000 -0.492250 0.592034 0.000000 -0.541999 0.564840 0.000000 -0.557432 0.493427 0.000000 -0.522262 0.357775 0.000000 -0.413486 0.164010 0.000000 -0.232498 -0.105001 0.000000 -0.022870 -0.397048 0.000000 0.089862 -0.548791 0.000000 0.068003 -0.586996 0.000000 0.075723 -0.610504 0.000000 0.173044 -0.693813 0.000000 0.273761 -0.790131 0.000000 0.339934 -0.841539 0.000000 0.327467 -0.875575 0.000000 0.237238 -0.868952 0.000000 0.124268 -0.840490 0.000000 0.003338 -0.827585 0.000000 -0.119700 -0.840090 0.000000 -0.230010 -0.870493 0.000000 -0.320946 -0.878567 0.000000 -0.327936 -0.841027 0.000000 -0.273846 -0.790888 0.000000 -0.168927 -0.689442 0.000000 -0.075057 -0.607742 0.000000 -0.068552 -0.584069 0.000000 -0.087042 -0.554363 0.000000 0.016644 -0.406130 0.000000 0.229135 -0.113574 0.000000 0.409304 0.153129 0.000000 0.522633 0.353071 0.000000 0.557009 0.489379 0.000000 0.543788 0.562526 0.000000 0.493565 0.590102 0.000000 0.430009 0.584091 0.000000 0.359910 0.557841 0.000000 0.294709 0.520688 0.000000 0.235606 0.479257 0.000000 0.186370 0.437594 0.000000 0.145068 0.398139 0.000000 0.112284 0.361359 0.000000 0.085596 0.328206 0.000000 0.064773 0.297927 0.000000 0.048051 0.271425 0.000000 0.035120 0.247956 0.000000 0.024885 0.228598 0.000000 0.016999 0.212806 0.000000 0.010720 0.201615 0.000000 0.005604 0.194522 0.000000 