# vtk DataFile Version 2.0
Comment goes here
ASCII

DATASET STRUCTURED_POINTS
FIELD FieldData 1
TIME 1 1 double
0.83000000
DIMENSIONS    64   64   1

ORIGIN    0.000   0.000   0.000
SPACING   0.015625 0.015625   1.000

POINT_DATA   4096
VECTORS u double

0.001534 0.000000 0.000000 -0.005183 0.000000 0.000000 -0.011891 0.000000 0.000000 -0.019100 0.000000 0.000000 -0.026549 0.000000 0.000000 -0.034817 0.000000 0.000000 -0.043546 0.000000 0.000000 -0.053336 0.000000 0.000000 -0.063755 0.000000 0.000000 -0.075359 0.000000 0.000000 -0.087673 0.000000 0.000000 -0.101127 0.000000 0.000000 -0.115243 0.000000 0.000000 -0.130224 0.000000 0.000000 -0.145632 0.000000 0.000000 -0.161339 0.000000 0.000000 -0.176983 0.000000 0.000000 -0.192019 0.000000 0.000000 -0.206199 0.000000 0.000000 -0.218522 0.000000 0.000000 -0.228893 0.000000 0.000000 -0.235920 0.000000 0.000000 -0.239696 0.000000 0.000000 -0.238671 0.000000 0.000000 -0.233130 0.000000 0.000000 -0.221771 0.000000 0.000000 -0.205062 0.000000 0.000000 -0.182402 0.000000 0.000000 -0.154458 0.000000 0.000000 -0.121568 0.000000 0.000000 -0.084680 0.000000 0.000000 -0.044925 0.000000 0.000000 -0.003591 0.000000 0.000000 0.037859 0.000000 0.000000 0.077940 0.000000 0.000000 0.115395 0.000000 0.000000 0.148910 0.000000 0.000000 0.177745 0.000000 0.000000 0.201124 0.000000 0.000000 0.218855 0.000000 0.000000 0.230862 0.000000 0.000000 0.237349 0.000000 0.000000 0.238881 0.000000 0.000000 0.235855 0.000000 0.000000 0.229202 0.000000 0.000000 0.219365 0.000000 0.000000 0.207325 0.000000 0.000000 0.193496 0.000000 0.000000 0.178692 0.000000 0.000000 0.163258 0.000000 0.000000 0.147758 0.000000 0.000000 0.132458 0.000000 0.000000 0.117672 0.000000 0.000000 0.103590 0.000000 0.000000 0.090324 0.000000 0.000000 0.077990 0.000000 0.000000 0.066568 0.000000 0.000000 0.056091 0.000000 0.000000 0.046475 0.000000 0.000000 0.037659 0.000000 0.000000 0.029556 0.000000 0.000000 0.021997 0.000000 0.000000 0.014944 0.000000 0.000000 0.008107 0.000000 0.000000 
0.001593 0.006645 0.000000 -0.005102 0.006712 0.000000 -0.011790 0.006959 0.000000 -0.018983 0.007329 0.000000 -0.026422 0.007859 0.000000 -0.034689 0.008498 0.000000 -0.043426 0.009260 0.000000 -0.053237 0.010105 0.000000 -0.063687 0.011011 0.000000 -0.075340 0.011959 0.000000 -0.087713 0.012884 0.000000 -0.101253 0.013785 0.000000 -0.115457 0.014549 0.000000 -0.130569 0.015194 0.000000 -0.146098 0.015557 0.000000 -0.161987 0.015676 0.000000 -0.177789 0.015340 0.000000 -0.193067 0.014608 0.000000 -0.207449 0.013251 0.000000 -0.220076 0.011347 0.000000 -0.230701 0.008699 0.000000 -0.238087 0.005402 0.000000 -0.242169 0.001375 0.000000 -0.241510 -0.003283 0.000000 -0.236284 -0.008450 0.000000 -0.225185 -0.014034 0.000000 -0.208651 -0.019685 0.000000 -0.185945 -0.025302 0.000000 -0.157788 -0.030417 0.000000 -0.124364 -0.034889 0.000000 -0.086773 -0.038321 0.000000 -0.046094 -0.040545 0.000000 -0.003765 -0.041392 0.000000 0.038691 -0.040765 0.000000 0.079716 -0.038768 0.000000 0.117916 -0.035485 0.000000 0.152006 -0.031175 0.000000 0.181120 -0.026107 0.000000 0.204588 -0.020555 0.000000 0.222208 -0.014869 0.000000 0.233982 -0.009247 0.000000 0.240197 -0.004010 0.000000 0.241374 0.000747 0.000000 0.238061 0.004840 0.000000 0.231054 0.008245 0.000000 0.220966 0.010938 0.000000 0.208626 0.012935 0.000000 0.194590 0.014317 0.000000 0.179553 0.015119 0.000000 0.163956 0.015467 0.000000 0.148284 0.015400 0.000000 0.132860 0.015043 0.000000 0.117956 0.014434 0.000000 0.103784 0.013674 0.000000 0.090445 0.012800 0.000000 0.078053 0.011878 0.000000 0.066593 0.010950 0.000000 0.056086 0.010046 0.000000 0.046460 0.009216 0.000000 0.037636 0.008459 0.000000 0.029543 0.007831 0.000000 0.021993 0.007306 0.000000 0.014960 0.006945 0.000000 0.008142 0.006705 0.000000 
0.001546 0.013244 0.000000 -0.005063 0.013383 0.000000 -0.011666 0.013881 0.000000 -0.018786 0.014633 0.000000 -0.026156 0.015706 0.000000 -0.034375 0.017004 0.000000 -0.043070 0.018548 0.000000 -0.052869 0.020261 0.000000 -0.063316 0.022103 0.000000 -0.075000 0.024026 0.000000 -0.087415 0.025913 0.000000 -0.101026 0.027744 0.000000 -0.115318 0.029316 0.000000 -0.130528 0.030641 0.000000 -0.146178 0.031418 0.000000 -0.162169 0.031691 0.000000 -0.178099 0.031080 0.000000 -0.193435 0.029660 0.000000 -0.207907 0.027009 0.000000 -0.220489 0.023252 0.000000 -0.231100 0.018011 0.000000 -0.238280 0.011468 0.000000 -0.242187 0.003423 0.000000 -0.241159 -0.005885 0.000000 -0.235595 -0.016326 0.000000 -0.224083 -0.027633 0.000000 -0.207189 -0.039240 0.000000 -0.184281 -0.050864 0.000000 -0.156037 -0.061581 0.000000 -0.122860 -0.071015 0.000000 -0.085608 -0.078270 0.000000 -0.045521 -0.083008 0.000000 -0.003789 -0.084785 0.000000 0.038051 -0.083480 0.000000 0.078524 -0.079226 0.000000 0.116388 -0.072290 0.000000 0.150273 -0.063204 0.000000 0.179487 -0.052582 0.000000 0.203181 -0.041087 0.000000 0.221190 -0.029394 0.000000 0.233381 -0.017989 0.000000 0.239949 -0.007393 0.000000 0.241485 0.002136 0.000000 0.238345 0.010320 0.000000 0.231527 0.017095 0.000000 0.221442 0.022428 0.000000 0.209130 0.026375 0.000000 0.194994 0.029074 0.000000 0.179882 0.030635 0.000000 0.164147 0.031269 0.000000 0.148360 0.031096 0.000000 0.132806 0.030329 0.000000 0.117791 0.029076 0.000000 0.103524 0.027511 0.000000 0.090103 0.025731 0.000000 0.077662 0.023851 0.000000 0.066162 0.021967 0.000000 0.055652 0.020134 0.000000 0.046028 0.018450 0.000000 0.037243 0.016917 0.000000 0.029190 0.015643 0.000000 0.021708 0.014583 0.000000 0.014744 0.013850 0.000000 0.008011 0.013367 0.000000 
0.001621 0.019719 0.000000 -0.004854 0.019925 0.000000 -0.011326 0.020682 0.000000 -0.018336 0.021818 0.000000 -0.025610 0.023447 0.000000 -0.033771 0.025413 0.000000 -0.042433 0.027754 0.000000 -0.052252 0.030351 0.000000 -0.062749 0.033142 0.000000 -0.074549 0.036058 0.000000 -0.087113 0.038910 0.000000 -0.100949 0.041687 0.000000 -0.115492 0.044051 0.000000 -0.131042 0.046055 0.000000 -0.147040 0.047198 0.000000 -0.163474 0.047597 0.000000 -0.179831 0.046607 0.000000 -0.195691 0.044416 0.000000 -0.210634 0.040305 0.000000 -0.223777 0.034540 0.000000 -0.234872 0.026491 0.000000 -0.242597 0.016489 0.000000 -0.246975 0.004254 0.000000 -0.246416 -0.009875 0.000000 -0.241286 -0.025526 0.000000 -0.230074 -0.042439 0.000000 -0.213420 -0.059486 0.000000 -0.190406 -0.076455 0.000000 -0.161761 -0.091838 0.000000 -0.127691 -0.105318 0.000000 -0.089210 -0.115660 0.000000 -0.047603 -0.122364 0.000000 -0.004184 -0.124965 0.000000 0.039340 -0.123078 0.000000 0.081421 -0.117105 0.000000 0.120609 -0.107234 0.000000 0.155526 -0.094274 0.000000 0.185304 -0.079015 0.000000 0.209226 -0.062258 0.000000 0.227171 -0.045069 0.000000 0.239116 -0.028006 0.000000 0.245360 -0.012114 0.000000 0.246430 0.002351 0.000000 0.242850 0.014798 0.000000 0.235472 0.025148 0.000000 0.224892 0.033335 0.000000 0.212008 0.039383 0.000000 0.197375 0.043565 0.000000 0.181739 0.045966 0.000000 0.165555 0.046989 0.000000 0.149334 0.046740 0.000000 0.133417 0.045613 0.000000 0.118076 0.043716 0.000000 0.103549 0.041362 0.000000 0.089917 0.038662 0.000000 0.077324 0.035819 0.000000 0.065721 0.032960 0.000000 0.055158 0.030180 0.000000 0.045527 0.027626 0.000000 0.036772 0.025298 0.000000 0.028787 0.023365 0.000000 0.021398 0.021752 0.000000 0.014552 0.020642 0.000000 0.007947 0.019903 0.000000 
0.001584 0.026045 0.000000 -0.004688 0.026330 0.000000 -0.010962 0.027363 0.000000 -0.017799 0.028917 0.000000 -0.024912 0.031141 0.000000 -0.032965 0.033827 0.000000 -0.041536 0.037028 0.000000 -0.051337 0.040577 0.000000 -0.061840 0.044401 0.000000 -0.073734 0.048390 0.000000 -0.086418 0.052312 0.000000 -0.100466 0.056124 0.000000 -0.115253 0.059409 0.000000 -0.131124 0.062188 0.000000 -0.147479 0.063851 0.000000 -0.164309 0.064482 0.000000 -0.181096 0.063296 0.000000 -0.197347 0.060463 0.000000 -0.212708 0.055096 0.000000 -0.226100 0.047490 0.000000 -0.237461 0.036830 0.000000 -0.245119 0.023571 0.000000 -0.249441 0.007243 0.000000 -0.248385 -0.011575 0.000000 -0.242756 -0.032668 0.000000 -0.230731 -0.055499 0.000000 -0.213254 -0.078908 0.000000 -0.189580 -0.102523 0.000000 -0.160432 -0.124296 0.000000 -0.126476 -0.143566 0.000000 -0.088200 -0.158357 0.000000 -0.047243 -0.168033 0.000000 -0.004405 -0.171729 0.000000 0.038509 -0.169086 0.000000 0.080049 -0.160494 0.000000 0.119080 -0.146396 0.000000 0.154016 -0.127898 0.000000 0.184367 -0.106281 0.000000 0.209032 -0.082955 0.000000 0.227946 -0.059284 0.000000 0.240729 -0.036178 0.000000 0.247553 -0.014707 0.000000 0.249106 0.004646 0.000000 0.245592 0.021278 0.000000 0.238249 0.035053 0.000000 0.227382 0.045892 0.000000 0.214219 0.053893 0.000000 0.199141 0.059343 0.000000 0.183092 0.062454 0.000000 0.166454 0.063674 0.000000 0.149820 0.063234 0.000000 0.133527 0.061587 0.000000 0.117851 0.058943 0.000000 0.103065 0.055670 0.000000 0.089211 0.051956 0.000000 0.076484 0.048048 0.000000 0.064779 0.044133 0.000000 0.054202 0.040327 0.000000 0.044580 0.036836 0.000000 0.035910 0.033657 0.000000 0.028027 0.031017 0.000000 0.020795 0.028818 0.000000 0.014117 0.027302 0.000000 0.007709 0.026298 0.000000 
0.001675 0.032116 0.000000 -0.004330 0.032471 0.000000 -0.010341 0.033793 0.000000 -0.016950 0.035769 0.000000 -0.023858 0.038613 0.000000 -0.031767 0.042036 0.000000 -0.040233 0.046126 0.000000 -0.050017 0.050655 0.000000 -0.060552 0.055539 0.000000 -0.072585 0.060636 0.000000 -0.085466 0.065642 0.000000 -0.099835 0.070522 0.000000 -0.114998 0.074710 0.000000 -0.131381 0.078281 0.000000 -0.148288 0.080383 0.000000 -0.165813 0.081214 0.000000 -0.183295 0.079644 0.000000 -0.200377 0.076027 0.000000 -0.216506 0.069058 0.000000 -0.230775 0.059293 0.000000 -0.242885 0.045510 0.000000 -0.251361 0.028469 0.000000 -0.256382 0.007520 0.000000 -0.256036 -0.016561 0.000000 -0.251158 -0.043180 0.000000 -0.239752 -0.071941 0.000000 -0.223052 -0.100637 0.000000 -0.199611 -0.129276 0.000000 -0.170066 -0.154942 0.000000 -0.134693 -0.177551 0.000000 -0.094298 -0.194893 0.000000 -0.050780 -0.206159 0.000000 -0.005055 -0.210717 0.000000 0.040717 -0.207532 0.000000 0.084989 -0.197676 0.000000 0.126288 -0.181200 0.000000 0.162912 -0.159561 0.000000 0.193948 -0.134031 0.000000 0.218617 -0.105837 0.000000 0.237104 -0.076766 0.000000 0.249330 -0.047613 0.000000 0.255586 -0.020491 0.000000 0.256396 0.004312 0.000000 0.252201 0.025655 0.000000 0.243997 0.043358 0.000000 0.232327 0.057365 0.000000 0.218263 0.067624 0.000000 0.202357 0.074692 0.000000 0.185474 0.078653 0.000000 0.168095 0.080260 0.000000 0.150779 0.079668 0.000000 0.133907 0.077582 0.000000 0.117737 0.074178 0.000000 0.102562 0.070002 0.000000 0.088407 0.065243 0.000000 0.075477 0.060251 0.000000 0.063649 0.055243 0.000000 0.053035 0.050379 0.000000 0.043446 0.045917 0.000000 0.034877 0.041850 0.000000 0.027148 0.038480 0.000000 0.020118 0.035662 0.000000 0.013676 0.033728 0.000000 0.007527 0.032436 0.000000 
0.001647 0.037902 0.000000 -0.004016 0.038345 0.000000 -0.009688 0.039983 0.000000 -0.016001 0.042434 0.000000 -0.022625 0.045959 0.000000 -0.030332 0.050202 0.000000 -0.038616 0.055278 0.000000 -0.048334 0.060896 0.000000 -0.058832 0.066970 0.000000 -0.070974 0.073304 0.000000 -0.084000 0.079562 0.000000 -0.098682 0.085655 0.000000 -0.114207 0.090956 0.000000 -0.131130 0.095479 0.000000 -0.148640 0.098282 0.000000 -0.166921 0.099489 0.000000 -0.185229 0.097860 0.000000 -0.203198 0.093673 0.000000 -0.220266 0.085494 0.000000 -0.235326 0.073869 0.000000 -0.248249 0.057416 0.000000 -0.257024 0.037069 0.000000 -0.262351 0.011919 0.000000 -0.261378 -0.016799 0.000000 -0.255815 -0.048952 0.000000 -0.242789 -0.083604 0.000000 -0.224172 -0.119049 0.000000 -0.198961 -0.155509 0.000000 -0.168030 -0.189214 0.000000 -0.132759 -0.219334 0.000000 -0.092637 -0.242270 0.000000 -0.050282 -0.257277 0.000000 -0.005439 -0.263226 0.000000 0.039398 -0.259130 0.000000 0.082707 -0.246066 0.000000 0.123821 -0.224318 0.000000 0.160578 -0.195559 0.000000 0.193028 -0.161986 0.000000 0.219580 -0.126110 0.000000 0.240357 -0.089997 0.000000 0.254215 -0.054660 0.000000 0.261308 -0.021773 0.000000 0.262711 0.008030 0.000000 0.258208 0.033678 0.000000 0.249656 0.054927 0.000000 0.237132 0.071625 0.000000 0.222239 0.083863 0.000000 0.205349 0.092132 0.000000 0.187552 0.096715 0.000000 0.169310 0.098369 0.000000 0.151220 0.097423 0.000000 0.133713 0.094628 0.000000 0.116994 0.090288 0.000000 0.101432 0.085000 0.000000 0.086955 0.079042 0.000000 0.073862 0.072805 0.000000 0.061918 0.066574 0.000000 0.051329 0.060531 0.000000 0.041798 0.054994 0.000000 0.033402 0.049954 0.000000 0.025871 0.045776 0.000000 0.019120 0.042290 0.000000 0.012971 0.039894 0.000000 0.007157 0.038299 0.000000 
0.001756 0.043289 0.000000 -0.003471 0.043806 0.000000 -0.008714 0.045778 0.000000 -0.014640 0.048706 0.000000 -0.020905 0.052944 0.000000 -0.028334 0.058027 0.000000 -0.036386 0.064129 0.000000 -0.045986 0.070872 0.000000 -0.056433 0.078179 0.000000 -0.068669 0.085804 0.000000 -0.081877 0.093350 0.000000 -0.096918 0.100729 0.000000 -0.112913 0.107157 0.000000 -0.130514 0.112714 0.000000 -0.148823 0.116174 0.000000 -0.168136 0.117803 0.000000 -0.187556 0.115921 0.000000 -0.206861 0.111065 0.000000 -0.225223 0.101186 0.000000 -0.241739 0.087275 0.000000 -0.255883 0.067208 0.000000 -0.265964 0.042572 0.000000 -0.272260 0.011874 0.000000 -0.272314 -0.023097 0.000000 -0.267860 -0.061768 0.000000 -0.255980 -0.103584 0.000000 -0.239687 -0.144466 0.000000 -0.216039 -0.185418 0.000000 -0.184965 -0.221145 0.000000 -0.147012 -0.252944 0.000000 -0.102799 -0.277370 0.000000 -0.055996 -0.293356 0.000000 -0.006256 -0.300397 0.000000 0.043357 -0.295679 0.000000 0.091329 -0.282099 0.000000 0.136657 -0.259071 0.000000 0.176513 -0.228768 0.000000 0.209495 -0.193033 0.000000 0.234905 -0.153166 0.000000 0.254059 -0.111401 0.000000 0.266727 -0.068565 0.000000 0.272966 -0.028987 0.000000 0.273213 0.007413 0.000000 0.267683 0.038710 0.000000 0.257747 0.064434 0.000000 0.243875 0.084782 0.000000 0.227501 0.099407 0.000000 0.209214 0.109379 0.000000 0.190088 0.114693 0.000000 0.170669 0.116592 0.000000 0.151568 0.115264 0.000000 0.133229 0.111807 0.000000 0.115857 0.106459 0.000000 0.099811 0.100041 0.000000 0.085002 0.092813 0.000000 0.071722 0.085288 0.000000 0.059707 0.077776 0.000000 0.049166 0.070499 0.000000 0.039770 0.063843 0.000000 0.031604 0.057777 0.000000 0.024363 0.052763 0.000000 0.017968 0.048563 0.000000 0.012213 0.045690 0.000000 0.006825 0.043760 0.000000 
0.001733 0.048198 0.000000 -0.002974 0.048815 0.000000 -0.007700 0.051152 0.000000 -0.013161 0.054625 0.000000 -0.018969 0.059652 0.000000 -0.026043 0.065682 0.000000 -0.033756 0.072931 0.000000 -0.043172 0.080943 0.000000 -0.053458 0.089652 0.000000 -0.065744 0.098748 0.000000 -0.079048 0.107811 0.000000 -0.094458 0.116691 0.000000 -0.110913 0.124552 0.000000 -0.129315 0.131389 0.000000 -0.148568 0.135903 0.000000 -0.169204 0.138223 0.000000 -0.190110 0.136585 0.000000 -0.211213 0.131340 0.000000 -0.231463 0.120371 0.000000 -0.249873 0.104529 0.000000 -0.265864 0.081642 0.000000 -0.277058 0.053446 0.000000 -0.284372 0.018269 0.000000 -0.283422 -0.021199 0.000000 -0.277833 -0.065286 0.000000 -0.261988 -0.111777 0.000000 -0.240141 -0.158990 0.000000 -0.210896 -0.210232 0.000000 -0.175960 -0.258240 0.000000 -0.138801 -0.301500 0.000000 -0.096342 -0.333286 0.000000 -0.053332 -0.353819 0.000000 -0.006512 -0.362579 0.000000 0.040069 -0.356715 0.000000 0.084496 -0.339365 0.000000 0.128145 -0.309502 0.000000 0.167450 -0.268397 0.000000 0.203710 -0.220378 0.000000 0.234717 -0.170674 0.000000 0.260460 -0.121819 0.000000 0.276966 -0.073568 0.000000 0.284503 -0.028260 0.000000 0.285707 0.013314 0.000000 0.279094 0.049145 0.000000 0.268024 0.078736 0.000000 0.252259 0.101870 0.000000 0.233982 0.118523 0.000000 0.213763 0.129546 0.000000 0.192828 0.135261 0.000000 0.171875 0.136889 0.000000 0.151440 0.134863 0.000000 0.132112 0.130338 0.000000 0.113932 0.123706 0.000000 0.097391 0.115855 0.000000 0.082205 0.107131 0.000000 0.068804 0.098101 0.000000 0.056735 0.089130 0.000000 0.046339 0.080467 0.000000 0.037123 0.072556 0.000000 0.029286 0.065361 0.000000 0.022394 0.059413 0.000000 0.016449 0.054441 0.000000 0.011157 0.051036 0.000000 0.006284 0.048756 0.000000 
0.001862 0.052547 0.000000 -0.002197 0.053239 0.000000 -0.006277 0.055965 0.000000 -0.011141 0.059974 0.000000 -0.016374 0.065826 0.000000 -0.022965 0.072814 0.000000 -0.030238 0.081258 0.000000 -0.039351 0.090574 0.000000 -0.049412 0.100750 0.000000 -0.061662 0.111394 0.000000 -0.075068 0.122065 0.000000 -0.090839 0.132594 0.000000 -0.107876 0.142014 0.000000 -0.127202 0.150368 0.000000 -0.147671 0.156063 0.000000 -0.169917 0.159345 0.000000 -0.192679 0.157930 0.000000 -0.215960 0.152417 0.000000 -0.238335 0.139846 0.000000 -0.258927 0.121677 0.000000 -0.276405 0.094392 0.000000 -0.288782 0.061079 0.000000 -0.295797 0.018238 0.000000 -0.294225 -0.029636 0.000000 -0.287084 -0.083201 0.000000 -0.270442 -0.141276 0.000000 -0.254011 -0.195557 0.000000 -0.230629 -0.249599 0.000000 -0.196616 -0.293240 0.000000 -0.153763 -0.332562 0.000000 -0.104277 -0.362839 0.000000 -0.056959 -0.383186 0.000000 -0.006738 -0.393798 0.000000 0.042794 -0.386686 0.000000 0.091380 -0.370175 0.000000 0.141567 -0.342025 0.000000 0.186836 -0.304333 0.000000 0.222416 -0.260300 0.000000 0.248383 -0.209917 0.000000 0.270203 -0.153650 0.000000 0.286791 -0.092608 0.000000 0.296085 -0.037728 0.000000 0.297662 0.012822 0.000000 0.291109 0.056393 0.000000 0.278877 0.091269 0.000000 0.261442 0.118825 0.000000 0.241069 0.137903 0.000000 0.218614 0.150533 0.000000 0.195566 0.156580 0.000000 0.172694 0.157980 0.000000 0.150696 0.155027 0.000000 0.130125 0.149315 0.000000 0.111059 0.141181 0.000000 0.093928 0.131767 0.000000 0.078415 0.121399 0.000000 0.064913 0.110759 0.000000 0.052907 0.100241 0.000000 0.042737 0.090111 0.000000 0.033844 0.080897 0.000000 0.026446 0.072506 0.000000 0.020050 0.065599 0.000000 0.014678 0.059800 0.000000 0.009990 0.055856 0.000000 0.005757 0.053183 0.000000 
0.001842 0.056152 0.000000 -0.001476 0.056954 0.000000 -0.004813 0.060096 0.000000 -0.008990 0.064722 0.000000 -0.013528 0.071475 0.000000 -0.019542 0.079546 0.000000 -0.026230 0.089317 0.000000 -0.034948 0.100117 0.000000 -0.044627 0.111963 0.000000 -0.056781 0.124404 0.000000 -0.070162 0.136988 0.000000 -0.086330 0.149499 0.000000 -0.103943 0.160915 0.000000 -0.124424 0.171184 0.000000 -0.146332 0.178618 0.000000 -0.170699 0.183231 0.000000 -0.195820 0.182629 0.000000 -0.222036 0.176996 0.000000 -0.247170 0.163338 0.000000 -0.270578 0.142598 0.000000 -0.289942 0.111496 0.000000 -0.302940 0.072839 0.000000 -0.309468 0.023712 0.000000 -0.303028 -0.029912 0.000000 -0.291727 -0.089069 0.000000 -0.262393 -0.144851 0.000000 -0.226223 -0.198803 0.000000 -0.182427 -0.267626 0.000000 -0.138021 -0.335106 0.000000 -0.103189 -0.393839 0.000000 -0.067377 -0.430091 0.000000 -0.038772 -0.451358 0.000000 -0.005415 -0.462332 0.000000 0.026916 -0.454832 0.000000 0.056718 -0.438137 0.000000 0.092932 -0.404959 0.000000 0.129771 -0.349247 0.000000 0.172286 -0.281925 0.000000 0.217922 -0.218461 0.000000 0.262667 -0.160227 0.000000 0.291020 -0.099449 0.000000 0.304095 -0.039131 0.000000 0.310805 0.018289 0.000000 0.304666 0.067930 0.000000 0.292098 0.108403 0.000000 0.272949 0.139678 0.000000 0.249949 0.161352 0.000000 0.224806 0.175049 0.000000 0.198892 0.181181 0.000000 0.173636 0.181758 0.000000 0.149527 0.177432 0.000000 0.127459 0.169976 0.000000 0.107230 0.159903 0.000000 0.089474 0.148499 0.000000 0.073556 0.136146 0.000000 0.060046 0.123609 0.000000 0.048130 0.111306 0.000000 0.038325 0.099530 0.000000 0.029823 0.088847 0.000000 0.022998 0.079155 0.000000 0.017177 0.071181 0.000000 0.012492 0.064502 0.000000 0.008490 0.059957 0.000000 0.004998 0.056884 0.000000 
0.001990 0.059021 0.000000 -0.000422 0.059894 0.000000 -0.002851 0.063479 0.000000 -0.006164 0.068690 0.000000 -0.009844 0.076378 0.000000 -0.015090 0.085516 0.000000 -0.021038 0.096664 0.000000 -0.029172 0.108970 0.000000 -0.038351 0.122583 0.000000 -0.050262 0.136929 0.000000 -0.063608 0.151614 0.000000 -0.080134 0.166375 0.000000 -0.098496 0.180108 0.000000 -0.120247 0.192758 0.000000 -0.143942 0.202339 0.000000 -0.170577 0.208832 0.000000 -0.198265 0.209266 0.000000 -0.227039 0.203768 0.000000 -0.254092 0.188388 0.000000 -0.278218 0.164449 0.000000 -0.295762 0.126755 0.000000 -0.304235 0.080605 0.000000 -0.300740 0.018326 0.000000 -0.281432 -0.047377 0.000000 -0.248756 -0.123837 0.000000 -0.201225 -0.206779 0.000000 -0.177108 -0.275523 0.000000 -0.155392 -0.337801 0.000000 -0.117507 -0.372477 0.000000 -0.070043 -0.403206 0.000000 -0.025998 -0.427256 0.000000 -0.010069 -0.445148 0.000000 -0.001840 -0.459486 0.000000 0.004143 -0.448819 0.000000 0.019147 -0.436191 0.000000 0.059078 -0.415079 0.000000 0.107133 -0.383686 0.000000 0.144158 -0.348451 0.000000 0.169531 -0.300298 0.000000 0.203804 -0.226748 0.000000 0.246233 -0.134035 0.000000 0.280613 -0.057513 0.000000 0.300655 0.012251 0.000000 0.304184 0.075101 0.000000 0.296920 0.122985 0.000000 0.279682 0.160974 0.000000 0.256504 0.186046 0.000000 0.229537 0.201589 0.000000 0.201312 0.207751 0.000000 0.173524 0.207345 0.000000 0.147251 0.201203 0.000000 0.123409 0.191613 0.000000 0.101964 0.179166 0.000000 0.083465 0.165442 0.000000 0.067227 0.150827 0.000000 0.053759 0.136184 0.000000 0.042116 0.121963 0.000000 0.032813 0.108419 0.000000 0.024914 0.096223 0.000000 0.018831 0.085151 0.000000 0.013787 0.076105 0.000000 0.009958 0.068488 0.000000 0.006824 0.063350 0.000000 0.004237 0.059831 0.000000 
0.001969 0.060810 0.000000 0.000549 0.061795 0.000000 -0.000877 0.065839 0.000000 -0.003236 0.071714 0.000000 -0.005928 0.080402 0.000000 -0.010302 0.090741 0.000000 -0.015338 0.103399 0.000000 -0.022776 0.117430 0.000000 -0.031258 0.133053 0.000000 -0.042848 0.149661 0.000000 -0.055984 0.166861 0.000000 -0.072897 0.184387 0.000000 -0.091920 0.201028 0.000000 -0.115112 0.216630 0.000000 -0.140563 0.228947 0.000000 -0.169627 0.237554 0.000000 -0.199541 0.239091 0.000000 -0.230483 0.232822 0.000000 -0.257777 0.214518 0.000000 -0.280750 0.184268 0.000000 -0.292119 0.137513 0.000000 -0.291820 0.077817 0.000000 -0.273392 0.000908 0.000000 -0.232962 -0.081896 0.000000 -0.193131 -0.169276 0.000000 -0.114530 -0.216499 0.000000 -0.021004 -0.244636 0.000000 0.086081 -0.327226 0.000000 0.148408 -0.420456 0.000000 0.141693 -0.485349 0.000000 0.117251 -0.490065 0.000000 0.060989 -0.475516 0.000000 0.004123 -0.476544 0.000000 -0.053807 -0.475819 0.000000 -0.111054 -0.493072 0.000000 -0.143453 -0.492944 0.000000 -0.153097 -0.434327 0.000000 -0.100796 -0.344323 0.000000 0.003588 -0.278106 0.000000 0.112660 -0.236929 0.000000 0.184895 -0.176258 0.000000 0.224664 -0.093553 0.000000 0.268607 -0.005282 0.000000 0.287801 0.071665 0.000000 0.290603 0.132905 0.000000 0.280736 0.180094 0.000000 0.259493 0.211496 0.000000 0.232764 0.230242 0.000000 0.202677 0.237194 0.000000 0.172724 0.235818 0.000000 0.144098 0.227547 0.000000 0.118437 0.215264 0.000000 0.095543 0.199847 0.000000 0.076315 0.183235 0.000000 0.059668 0.165852 0.000000 0.046367 0.148721 0.000000 0.035031 0.132251 0.000000 0.026405 0.116731 0.000000 0.019196 0.102830 0.000000 0.014014 0.090282 0.000000 0.009839 0.080054 0.000000 0.006993 0.071465 0.000000 0.004810 0.065678 0.000000 0.003225 0.061717 0.000000 
0.002134 0.061697 0.000000 0.001891 0.062741 0.000000 0.001654 0.067263 0.000000 0.000457 0.073741 0.000000 -0.001046 0.083444 0.000000 -0.004309 0.094926 0.000000 -0.008223 0.109139 0.000000 -0.014716 0.124890 0.000000 -0.022333 0.142654 0.000000 -0.033401 0.161655 0.000000 -0.046294 0.181663 0.000000 -0.063503 0.202311 0.000000 -0.083335 0.222323 0.000000 -0.107897 0.241400 0.000000 -0.135172 0.256854 0.000000 -0.166011 0.267811 0.000000 -0.197116 0.270122 0.000000 -0.227274 0.262004 0.000000 -0.250545 0.238655 0.000000 -0.263944 0.198791 0.000000 -0.259008 0.137825 0.000000 -0.233298 0.061878 0.000000 -0.178916 -0.040533 0.000000 -0.092137 -0.127639 0.000000 0.036111 -0.242269 0.000000 0.188771 -0.378906 0.000000 0.244983 -0.476134 0.000000 0.280223 -0.507213 0.000000 0.228973 -0.428089 0.000000 0.130800 -0.372049 0.000000 0.079362 -0.346552 0.000000 0.027666 -0.332020 0.000000 0.005344 -0.344691 0.000000 -0.016234 -0.333643 0.000000 -0.065213 -0.346545 0.000000 -0.117252 -0.373036 0.000000 -0.216197 -0.426343 0.000000 -0.271651 -0.505135 0.000000 -0.257888 -0.513754 0.000000 -0.212646 -0.408056 0.000000 -0.062470 -0.246040 0.000000 0.073595 -0.141225 0.000000 0.168308 -0.050886 0.000000 0.222587 0.053105 0.000000 0.253191 0.130050 0.000000 0.260695 0.192084 0.000000 0.250443 0.234018 0.000000 0.228472 0.258405 0.000000 0.199751 0.267790 0.000000 0.168936 0.265924 0.000000 0.138749 0.255491 0.000000 0.111379 0.240168 0.000000 0.087195 0.221288 0.000000 0.067189 0.201316 0.000000 0.050284 0.180775 0.000000 0.037232 0.160822 0.000000 0.026440 0.141925 0.000000 0.018678 0.124253 0.000000 0.012425 0.108614 0.000000 0.008361 0.094508 0.000000 0.005298 0.083125 0.000000 0.003637 0.073517 0.000000 0.002612 0.067119 0.000000 0.002214 0.062672 0.000000 
0.002106 0.061133 0.000000 0.003089 0.062274 0.000000 0.004103 0.067273 0.000000 0.004129 0.074414 0.000000 0.003918 0.085168 0.000000 0.001855 0.097918 0.000000 -0.000777 0.113806 0.000000 -0.006219 0.131540 0.000000 -0.012757 0.151738 0.000000 -0.023216 0.173622 0.000000 -0.035607 0.196962 0.000000 -0.053026 0.221427 0.000000 -0.073248 0.245422 0.000000 -0.098810 0.268468 0.000000 -0.126816 0.287062 0.000000 -0.157825 0.299498 0.000000 -0.187035 0.300354 0.000000 -0.211857 0.286252 0.000000 -0.223771 0.251188 0.000000 -0.219492 0.192732 0.000000 -0.183799 0.106867 0.000000 -0.126220 -0.002275 0.000000 -0.012343 -0.140253 0.000000 0.134142 -0.296922 0.000000 0.209970 -0.450184 0.000000 0.161597 -0.425371 0.000000 0.029280 -0.336088 0.000000 -0.076294 -0.311217 0.000000 -0.155938 -0.271032 0.000000 -0.137582 -0.335737 0.000000 -0.089539 -0.386931 0.000000 -0.040123 -0.401498 0.000000 0.002863 -0.432644 0.000000 0.046443 -0.405263 0.000000 0.093130 -0.392054 0.000000 0.148446 -0.341960 0.000000 0.160953 -0.279927 0.000000 0.096088 -0.302632 0.000000 -0.019480 -0.337112 0.000000 -0.184499 -0.432347 0.000000 -0.229736 -0.462499 0.000000 -0.155946 -0.324332 0.000000 -0.008305 -0.154274 0.000000 0.109437 -0.013218 0.000000 0.172443 0.094797 0.000000 0.213351 0.182842 0.000000 0.222026 0.243719 0.000000 0.212285 0.280934 0.000000 0.189561 0.296730 0.000000 0.160800 0.296820 0.000000 0.130655 0.285104 0.000000 0.102503 0.266818 0.000000 0.077324 0.244036 0.000000 0.056847 0.220146 0.000000 0.039689 0.195809 0.000000 0.027084 0.172566 0.000000 0.016873 0.150806 0.000000 0.010163 0.130745 0.000000 0.004949 0.113146 0.000000 0.002158 0.097409 0.000000 0.000290 0.084778 0.000000 -0.000083 0.074151 0.000000 0.000111 0.067101 0.000000 0.000963 0.062196 0.000000 
0.002279 0.059571 0.000000 0.004655 0.060743 0.000000 0.007091 0.066224 0.000000 0.008540 0.073926 0.000000 0.009835 0.085718 0.000000 0.009226 0.099621 0.000000 0.008128 0.117212 0.000000 0.004026 0.136870 0.000000 -0.001202 0.159652 0.000000 -0.010780 0.184505 0.000000 -0.022528 0.211474 0.000000 -0.039883 0.239952 0.000000 -0.060351 0.268107 0.000000 -0.086250 0.294969 0.000000 -0.114133 0.315868 0.000000 -0.143107 0.328029 0.000000 -0.167109 0.324154 0.000000 -0.181008 0.298740 0.000000 -0.174718 0.246290 0.000000 -0.143149 0.158819 0.000000 -0.074539 0.044553 0.000000 0.023645 -0.109578 0.000000 0.143246 -0.300895 0.000000 0.149399 -0.349952 0.000000 0.026599 -0.269723 0.000000 -0.080483 -0.198216 0.000000 -0.028990 -0.238243 0.000000 0.082475 -0.321995 0.000000 0.175083 -0.366802 0.000000 0.231113 -0.438447 0.000000 0.172353 -0.444011 0.000000 0.109269 -0.424422 0.000000 0.011213 -0.431256 0.000000 -0.084086 -0.423910 0.000000 -0.153750 -0.448547 0.000000 -0.206449 -0.440859 0.000000 -0.165251 -0.373985 0.000000 -0.074804 -0.324702 0.000000 0.049521 -0.233167 0.000000 0.092918 -0.197800 0.000000 -0.014910 -0.274592 0.000000 -0.149169 -0.362656 0.000000 -0.157511 -0.316269 0.000000 -0.042856 -0.127643 0.000000 0.059293 0.026136 0.000000 0.133378 0.142502 0.000000 0.169929 0.235084 0.000000 0.179592 0.290869 0.000000 0.168467 0.319275 0.000000 0.145652 0.324831 0.000000 0.117900 0.313789 0.000000 0.090162 0.293499 0.000000 0.064784 0.266944 0.000000 0.044131 0.238951 0.000000 0.027074 0.210537 0.000000 0.015106 0.183638 0.000000 0.005778 0.158847 0.000000 0.000357 0.136177 0.000000 -0.003527 0.116618 0.000000 -0.004806 0.099168 0.000000 -0.005237 0.085367 0.000000 -0.004120 0.073696 0.000000 -0.002519 0.066072 0.000000 -0.000248 0.060677 0.000000 