# vtk DataFile Version 2.0
Comment goes here
ASCII

DATASET STRUCTURED_POINTS
FIELD FieldData 1
TIME 1 1 double
1.95000000
DIMENSIONS    64   64   1

ORIGIN    0.000   0.000   0.000
SPACING   0.015625 0.015625   1.000

POINT_DATA   4096
VECTORS u double

0.001823 -0.000000 0.000000 0.001367 -0.000000 0.000000 0.001083 -0.000000 0.000000 0.000286 -0.000000 0.000000 -0.000501 -0.000000 0.000000 -0.002094 -0.000000 0.000000 -0.003823 -0.000000 0.000000 -0.006577 -0.000000 0.000000 -0.009577 -0.000000 0.000000 -0.013708 -0.000000 0.000000 -0.018143 -0.000000 0.000000 -0.023664 -0.000000 0.000000 -0.029470 -0.000000 0.000000 -0.036135 -0.000000 0.000000 -0.042969 -0.000000 0.000000 -0.050242 -0.000000 0.000000 -0.057454 -0.000000 0.000000 -0.064508 -0.000000 0.000000 -0.071161 -0.000000 0.000000 -0.076943 -0.000000 0.000000 -0.081899 -0.000000 0.000000 -0.085267 -0.000000 0.000000 -0.087360 -0.000000 0.000000 -0.087292 -0.000000 0.000000 -0.085568 -0.000000 0.000000 -0.081389 -0.000000 0.000000 -0.075356 -0.000000 0.000000 -0.066920 -0.000000 0.000000 -0.056714 -0.000000 0.000000 -0.044510 -0.000000 0.000000 -0.030999 -0.000000 0.000000 -0.016265 -0.000000 0.000000 -0.001114 -0.000000 0.000000 0.014188 -0.000000 0.000000 0.028808 -0.000000 0.000000 0.042549 -0.000000 0.000000 0.054732 -0.000000 0.000000 0.065365 -0.000000 0.000000 0.074008 -0.000000 0.000000 0.080792 -0.000000 0.000000 0.085507 -0.000000 0.000000 0.088308 -0.000000 0.000000 0.089178 -0.000000 0.000000 0.088290 -0.000000 0.000000 0.085778 -0.000000 0.000000 0.081870 -0.000000 0.000000 0.076779 -0.000000 0.000000 0.070810 -0.000000 0.000000 0.064163 -0.000000 0.000000 0.057208 -0.000000 0.000000 0.050060 -0.000000 0.000000 0.043110 -0.000000 0.000000 0.036359 -0.000000 0.000000 0.030173 -0.000000 0.000000 0.024451 -0.000000 0.000000 0.019490 -0.000000 0.000000 0.015133 -0.000000 0.000000 0.011563 -0.000000 0.000000 0.008629 -0.000000 0.000000 0.006367 -0.000000 0.000000 0.004689 -0.000000 0.000000 0.003457 -0.000000 0.000000 0.002702 -0.000000 0.000000 0.002096 -0.000000 0.000000 
0.001669 0.000364 0.000000 0.001256 0.000370 0.000000 0.001026 0.000541 0.000000 0.000273 0.000792 0.000000 -0.000461 0.001190 0.000000 -0.002011 0.001661 0.000000 -0.003689 0.002241 0.000000 -0.006401 0.002877 0.000000 -0.009358 0.003566 0.000000 -0.013450 0.004283 0.000000 -0.017854 0.004978 0.000000 -0.023341 0.005663 0.000000 -0.029132 0.006236 0.000000 -0.035772 0.006750 0.000000 -0.042612 0.007053 0.000000 -0.049868 0.007243 0.000000 -0.057107 0.007133 0.000000 -0.064152 0.006853 0.000000 -0.070844 0.006217 0.000000 -0.076620 0.005369 0.000000 -0.081607 0.004162 0.000000 -0.084962 0.002730 0.000000 -0.087050 0.001012 0.000000 -0.086948 -0.000896 0.000000 -0.085162 -0.002951 0.000000 -0.080927 -0.005106 0.000000 -0.074799 -0.007234 0.000000 -0.066320 -0.009321 0.000000 -0.056066 -0.011205 0.000000 -0.043904 -0.012857 0.000000 -0.030464 -0.014122 0.000000 -0.015869 -0.014942 0.000000 -0.000880 -0.015227 0.000000 0.014265 -0.014961 0.000000 0.028736 -0.014181 0.000000 0.042400 -0.012962 0.000000 0.054528 -0.011408 0.000000 0.065197 -0.009638 0.000000 0.073868 -0.007714 0.000000 0.080745 -0.005750 0.000000 0.085502 -0.003758 0.000000 0.088375 -0.001835 0.000000 0.089256 0.000009 0.000000 0.088379 0.001700 0.000000 0.085839 0.003210 0.000000 0.081881 0.004499 0.000000 0.076737 0.005530 0.000000 0.070683 0.006308 0.000000 0.063981 0.006801 0.000000 0.056936 0.007052 0.000000 0.049746 0.007049 0.000000 0.042726 0.006851 0.000000 0.035954 0.006469 0.000000 0.029726 0.005954 0.000000 0.024006 0.005341 0.000000 0.019031 0.004659 0.000000 0.014694 0.003963 0.000000 0.011132 0.003252 0.000000 0.008232 0.002598 0.000000 0.005994 0.001970 0.000000 0.004359 0.001455 0.000000 0.003162 0.000993 0.000000 0.002455 0.000680 0.000000 0.001890 0.000439 0.000000 
0.001776 0.000633 0.000000 0.001528 0.000643 0.000000 0.001458 0.000983 0.000000 0.000869 0.001487 0.000000 0.000302 0.002283 0.000000 -0.001082 0.003228 0.000000 -0.002586 0.004390 0.000000 -0.005133 0.005669 0.000000 -0.007909 0.007049 0.000000 -0.011842 0.008496 0.000000 -0.016064 0.009891 0.000000 -0.021408 0.011279 0.000000 -0.027028 0.012431 0.000000 -0.033552 0.013480 0.000000 -0.040247 0.014096 0.000000 -0.047427 0.014495 0.000000 -0.054568 0.014284 0.000000 -0.061587 0.013737 0.000000 -0.068247 0.012468 0.000000 -0.074055 0.010763 0.000000 -0.079095 0.008342 0.000000 -0.082546 0.005443 0.000000 -0.084786 0.001986 0.000000 -0.084852 -0.001887 0.000000 -0.083324 -0.006021 0.000000 -0.079341 -0.010364 0.000000 -0.073553 -0.014607 0.000000 -0.065385 -0.018733 0.000000 -0.055452 -0.022417 0.000000 -0.043522 -0.025602 0.000000 -0.030227 -0.028034 0.000000 -0.015676 -0.029584 0.000000 -0.000663 -0.030134 0.000000 0.014485 -0.029616 0.000000 0.028906 -0.028136 0.000000 0.042388 -0.025792 0.000000 0.054248 -0.022797 0.000000 0.064555 -0.019340 0.000000 0.072883 -0.015547 0.000000 0.079407 -0.011634 0.000000 0.083919 -0.007630 0.000000 0.086565 -0.003754 0.000000 0.087327 -0.000004 0.000000 0.086342 0.003417 0.000000 0.083757 0.006498 0.000000 0.079767 0.009102 0.000000 0.074610 0.011198 0.000000 0.068577 0.012757 0.000000 0.061887 0.013746 0.000000 0.054912 0.014235 0.000000 0.047769 0.014211 0.000000 0.040861 0.013792 0.000000 0.034175 0.013000 0.000000 0.028094 0.011948 0.000000 0.022493 0.010695 0.000000 0.017686 0.009312 0.000000 0.013489 0.007898 0.000000 0.010105 0.006461 0.000000 0.007356 0.005139 0.000000 0.005294 0.003873 0.000000 0.003814 0.002832 0.000000 0.002789 0.001904 0.000000 0.002238 0.001272 0.000000 0.001840 0.000786 0.000000 
0.001570 0.000677 0.000000 0.001570 0.000688 0.000000 0.001766 0.001199 0.000000 0.001426 0.001948 0.000000 0.001130 0.003142 0.000000 -0.000005 0.004549 0.000000 -0.001235 0.006292 0.000000 -0.003535 0.008200 0.000000 -0.006044 0.010275 0.000000 -0.009743 0.012438 0.000000 -0.013720 0.014544 0.000000 -0.018853 0.016627 0.000000 -0.024272 0.018379 0.000000 -0.030626 0.019969 0.000000 -0.037190 0.020929 0.000000 -0.044256 0.021563 0.000000 -0.051355 0.021293 0.000000 -0.058327 0.020533 0.000000 -0.065041 0.018685 0.000000 -0.070867 0.016217 0.000000 -0.076035 0.012653 0.000000 -0.079553 0.008421 0.000000 -0.081937 0.003319 0.000000 -0.082090 -0.002358 0.000000 -0.080659 -0.008462 0.000000 -0.076770 -0.014877 0.000000 -0.071045 -0.021191 0.000000 -0.063031 -0.027423 0.000000 -0.053259 -0.033068 0.000000 -0.041648 -0.038083 0.000000 -0.028699 -0.041968 0.000000 -0.014589 -0.044506 0.000000 -0.000022 -0.045388 0.000000 0.014673 -0.044530 0.000000 0.028633 -0.042084 0.000000 0.041729 -0.038303 0.000000 0.053216 -0.033575 0.000000 0.063302 -0.028273 0.000000 0.071427 -0.022565 0.000000 0.077875 -0.016786 0.000000 0.082293 -0.010917 0.000000 0.084914 -0.005243 0.000000 0.085606 0.000232 0.000000 0.084550 0.005270 0.000000 0.081864 0.009785 0.000000 0.077731 0.013646 0.000000 0.072448 0.016720 0.000000 0.066246 0.019030 0.000000 0.059450 0.020466 0.000000 0.052350 0.021171 0.000000 0.045167 0.021100 0.000000 0.038225 0.020445 0.000000 0.031583 0.019235 0.000000 0.025566 0.017636 0.000000 0.020087 0.015749 0.000000 0.015424 0.013662 0.000000 0.011408 0.011545 0.000000 0.008220 0.009385 0.000000 0.005689 0.007410 0.000000 0.003854 0.005512 0.000000 0.002613 0.003960 0.000000 0.001829 0.002569 0.000000 0.001529 0.001629 0.000000 0.001376 0.000902 0.000000 
0.001631 0.000439 0.000000 0.001986 0.000448 0.000000 0.002539 0.001128 0.000000 0.002557 0.002122 0.000000 0.002632 0.003714 0.000000 0.001858 0.005593 0.000000 0.001015 0.007921 0.000000 -0.000924 0.010478 0.000000 -0.003036 0.013257 0.000000 -0.006382 0.016171 0.000000 -0.009965 0.019001 0.000000 -0.014775 0.021831 0.000000 -0.019828 0.024204 0.000000 -0.025912 0.026397 0.000000 -0.032170 0.027726 0.000000 -0.039047 0.028660 0.000000 -0.045936 0.028355 0.000000 -0.052818 0.027423 0.000000 -0.059453 0.025008 0.000000 -0.065294 0.021757 0.000000 -0.070540 0.017028 0.000000 -0.074178 0.011345 0.000000 -0.076809 0.004523 0.000000 -0.077208 -0.003166 0.000000 -0.076213 -0.011341 0.000000 -0.072771 -0.019977 0.000000 -0.067716 -0.028346 0.000000 -0.060411 -0.036519 0.000000 -0.051411 -0.043799 0.000000 -0.040463 -0.050162 0.000000 -0.027951 -0.055093 0.000000 -0.014043 -0.058261 0.000000 0.000519 -0.059397 0.000000 0.015169 -0.058271 0.000000 0.028927 -0.055191 0.000000 0.041523 -0.050375 0.000000 0.052272 -0.044370 0.000000 0.061513 -0.037551 0.000000 0.068855 -0.030121 0.000000 0.074629 -0.022500 0.000000 0.078631 -0.014669 0.000000 0.080928 -0.007067 0.000000 0.081493 0.000360 0.000000 0.080320 0.007159 0.000000 0.077600 0.013317 0.000000 0.073420 0.018519 0.000000 0.068102 0.022684 0.000000 0.061898 0.025754 0.000000 0.055091 0.027642 0.000000 0.048067 0.028518 0.000000 0.040946 0.028336 0.000000 0.034178 0.027376 0.000000 0.027696 0.025659 0.000000 0.021943 0.023444 0.000000 0.016707 0.020837 0.000000 0.012370 0.017992 0.000000 0.008654 0.015102 0.000000 0.005825 0.012180 0.000000 0.003623 0.009505 0.000000 0.002156 0.006949 0.000000 0.001256 0.004858 0.000000 0.000837 0.002988 0.000000 0.000881 0.001724 0.000000 0.001088 0.000745 0.000000 
0.001370 -0.000222 0.000000 0.002155 -0.000221 0.000000 0.003161 0.000629 0.000000 0.003609 0.001855 0.000000 0.004153 0.003840 0.000000 0.003813 0.006167 0.000000 0.003451 0.009074 0.000000 0.001946 0.012250 0.000000 0.000317 0.015733 0.000000 -0.002609 0.019368 0.000000 -0.005732 0.022937 0.000000 -0.010155 0.026490 0.000000 -0.014807 0.029517 0.000000 -0.020566 0.032311 0.000000 -0.026529 0.034064 0.000000 -0.033171 0.035329 0.000000 -0.039918 0.035064 0.000000 -0.046677 0.034050 0.000000 -0.053354 0.031161 0.000000 -0.059194 0.027304 0.000000 -0.064651 0.021536 0.000000 -0.068391 0.014690 0.000000 -0.071308 0.006349 0.000000 -0.071859 -0.002954 0.000000 -0.071050 -0.012899 0.000000 -0.067754 -0.023374 0.000000 -0.062762 -0.033551 0.000000 -0.055693 -0.043727 0.000000 -0.046996 -0.053017 0.000000 -0.036752 -0.061543 0.000000 -0.025070 -0.068387 0.000000 -0.012196 -0.072976 0.000000 0.001330 -0.074601 0.000000 0.014942 -0.072939 0.000000 0.027667 -0.068437 0.000000 0.039398 -0.061648 0.000000 0.049388 -0.053565 0.000000 0.058230 -0.044856 0.000000 0.065292 -0.035682 0.000000 0.071017 -0.026561 0.000000 0.074959 -0.017215 0.000000 0.077309 -0.008106 0.000000 0.077848 0.000840 0.000000 0.076612 0.009164 0.000000 0.073781 0.016684 0.000000 0.069381 0.023144 0.000000 0.063877 0.028242 0.000000 0.057407 0.032041 0.000000 0.050445 0.034297 0.000000 0.043253 0.035316 0.000000 0.036101 0.034988 0.000000 0.029341 0.033695 0.000000 0.022981 0.031471 0.000000 0.017409 0.028624 0.000000 0.012428 0.025322 0.000000 0.008401 0.021715 0.000000 0.005029 0.018090 0.000000 0.002587 0.014416 0.000000 0.000781 0.011079 0.000000 -0.000264 0.007879 0.000000 -0.000743 0.005280 0.000000 -0.000731 0.002944 0.000000 -0.000253 0.001378 0.000000 0.000385 0.000152 0.000000 
0.001383 -0.001331 0.000000 0.002677 -0.001344 0.000000 0.004200 -0.000327 0.000000 0.005162 0.001130 0.000000 0.006245 0.003510 0.000000 0.006430 0.006295 0.000000 0.006635 0.009788 0.000000 0.005665 0.013612 0.000000 0.004628 0.017811 0.000000 0.002235 0.022220 0.000000 -0.000289 0.026547 0.000000 -0.004209 0.030907 0.000000 -0.008287 0.034615 0.000000 -0.013607 0.038119 0.000000 -0.019065 0.040331 0.000000 -0.025371 0.042049 0.000000 -0.031735 0.041862 0.000000 -0.038288 0.040859 0.000000 -0.044756 0.037524 0.000000 -0.050515 0.033054 0.000000 -0.055975 0.026226 0.000000 -0.059745 0.018001 0.000000 -0.062887 0.007990 0.000000 -0.063604 -0.003424 0.000000 -0.063298 -0.015446 0.000000 -0.060531 -0.028264 0.000000 -0.056629 -0.040406 0.000000 -0.050953 -0.052285 0.000000 -0.043913 -0.062740 0.000000 -0.035222 -0.072089 0.000000 -0.024506 -0.079649 0.000000 -0.011943 -0.084661 0.000000 0.001851 -0.086534 0.000000 0.015664 -0.084608 0.000000 0.028159 -0.079646 0.000000 0.038893 -0.072097 0.000000 0.047239 -0.063202 0.000000 0.054369 -0.053454 0.000000 0.059953 -0.042908 0.000000 0.064642 -0.032168 0.000000 0.068181 -0.020961 0.000000 0.070343 -0.009957 0.000000 0.071020 0.001057 0.000000 0.069868 0.011226 0.000000 0.067184 0.020548 0.000000 0.062829 0.028423 0.000000 0.057329 0.034657 0.000000 0.050877 0.039186 0.000000 0.043895 0.041796 0.000000 0.036813 0.042862 0.000000 0.029755 0.042248 0.000000 0.023259 0.040496 0.000000 0.017149 0.037591 0.000000 0.011980 0.033998 0.000000 0.007378 0.029846 0.000000 0.003844 0.025390 0.000000 0.000930 0.020916 0.000000 -0.000980 0.016428 0.000000 -0.002293 0.012356 0.000000 -0.002800 0.008474 0.000000 -0.002777 0.005324 0.000000 -0.002238 0.002498 0.000000 -0.001259 0.000609 0.000000 -0.000106 -0.000878 0.000000 
0.001061 -0.003005 0.000000 0.002922 -0.003038 0.000000 0.005041 -0.001855 0.000000 0.006570 -0.000190 0.000000 0.008276 0.002572 0.000000 0.009038 0.005776 0.000000 0.009898 0.009839 0.000000 0.009513 0.014258 0.000000 0.009153 0.019163 0.000000 0.007342 0.024285 0.000000 0.005490 0.029380 0.000000 0.002124 0.034488 0.000000 -0.001335 0.038915 0.000000 -0.006167 0.043089 0.000000 -0.011127 0.045828 0.000000 -0.017049 0.048000 0.000000 -0.023115 0.047980 0.000000 -0.029420 0.047070 0.000000 -0.035867 0.043389 0.000000 -0.041539 0.038523 0.000000 -0.047290 0.030766 0.000000 -0.051138 0.021602 0.000000 -0.054766 0.010208 0.000000 -0.055655 -0.002544 0.000000 -0.055568 -0.015971 0.000000 -0.052849 -0.030042 0.000000 -0.048601 -0.043129 0.000000 -0.042805 -0.056443 0.000000 -0.035857 -0.068748 0.000000 -0.028377 -0.080950 0.000000 -0.019419 -0.091665 0.000000 -0.009140 -0.099333 0.000000 0.002332 -0.102208 0.000000 0.013866 -0.099247 0.000000 0.024183 -0.091666 0.000000 0.033235 -0.080729 0.000000 0.040389 -0.069041 0.000000 0.047303 -0.057570 0.000000 0.053021 -0.045955 0.000000 0.058118 -0.034789 0.000000 0.061940 -0.022916 0.000000 0.064527 -0.010944 0.000000 0.065404 0.001315 0.000000 0.064313 0.012999 0.000000 0.061581 0.023724 0.000000 0.056914 0.032999 0.000000 0.051166 0.040195 0.000000 0.044307 0.045474 0.000000 0.037115 0.048361 0.000000 0.029814 0.049456 0.000000 0.022750 0.048542 0.000000 0.016331 0.046301 0.000000 0.010447 0.042749 0.000000 0.005613 0.038395 0.000000 0.001415 0.033458 0.000000 -0.001620 0.028164 0.000000 -0.004024 0.022914 0.000000 -0.005356 0.017638 0.000000 -0.006111 0.012899 0.000000 -0.006019 0.008364 0.000000 -0.005423 0.004717 0.000000 -0.004292 0.001425 0.000000 -0.002738 -0.000754 0.000000 -0.001008 -0.002489 0.000000 
0.001026 -0.005261 0.000000 0.003489 -0.005324 0.000000 0.006221 -0.003975 0.000000 0.008361 -0.002106 0.000000 0.010714 0.001043 0.000000 0.012110 0.004674 0.000000 0.013665 0.009313 0.000000 0.013943 0.014357 0.000000 0.014328 0.019982 0.000000 0.013197 0.025883 0.000000 0.012126 0.031764 0.000000 0.009429 0.037732 0.000000 0.006752 0.042906 0.000000 0.002530 0.047910 0.000000 -0.001696 0.051213 0.000000 -0.007120 0.054038 0.000000 -0.012569 0.054233 0.000000 -0.018518 0.053611 0.000000 -0.024528 0.049643 0.000000 -0.029953 0.044477 0.000000 -0.035494 0.035825 0.000000 -0.039106 0.025477 0.000000 -0.042727 0.012508 0.000000 -0.043328 -0.002622 0.000000 -0.043398 -0.018253 0.000000 -0.040726 -0.035231 0.000000 -0.037943 -0.050451 0.000000 -0.034813 -0.065029 0.000000 -0.031473 -0.077167 0.000000 -0.027666 -0.088526 0.000000 -0.020813 -0.098887 0.000000 -0.010697 -0.106412 0.000000 0.002232 -0.109540 0.000000 0.015100 -0.106459 0.000000 0.025600 -0.099016 0.000000 0.032680 -0.088303 0.000000 0.036050 -0.077270 0.000000 0.039422 -0.066086 0.000000 0.042407 -0.053722 0.000000 0.046155 -0.041086 0.000000 0.050235 -0.027370 0.000000 0.053398 -0.013421 0.000000 0.055255 0.001271 0.000000 0.054834 0.015048 0.000000 0.052687 0.027947 0.000000 0.048275 0.038838 0.000000 0.042589 0.047263 0.000000 0.035784 0.053238 0.000000 0.028545 0.056289 0.000000 0.021415 0.057227 0.000000 0.014489 0.055731 0.000000 0.008467 0.052799 0.000000 0.002955 0.048309 0.000000 -0.001302 0.043030 0.000000 -0.004965 0.037078 0.000000 -0.007331 0.030830 0.000000 -0.009123 0.024652 0.000000 -0.009765 0.018515 0.000000 -0.009890 0.013019 0.000000 -0.009126 0.007786 0.000000 -0.007912 0.003597 0.000000 -0.006141 -0.000188 0.000000 -0.003984 -0.002675 0.000000 -0.001642 -0.004677 0.000000 
0.000643 -0.008136 0.000000 0.003740 -0.008232 0.000000 0.007139 -0.006727 0.000000 0.009914 -0.004683 0.000000 0.012977 -0.001177 0.000000 0.015025 0.002826 0.000000 0.017348 0.008006 0.000000 0.018305 0.013595 0.000000 0.019515 0.019909 0.000000 0.019080 0.026488 0.000000 0.018866 0.033149 0.000000 0.016854 0.039861 0.000000 0.015014 0.045814 0.000000 0.011424 0.051537 0.000000 0.007928 0.055479 0.000000 0.003037 0.058873 0.000000 -0.001897 0.059378 0.000000 -0.007435 0.059030 0.000000 -0.013268 0.054824 0.000000 -0.018399 0.049488 0.000000 -0.024254 0.039919 0.000000 -0.027750 0.028836 0.000000 -0.032241 0.014430 0.000000 -0.032998 -0.001873 0.000000 -0.033431 -0.018573 0.000000 -0.030660 -0.035497 0.000000 -0.026054 -0.049042 0.000000 -0.020753 -0.062913 0.000000 -0.015639 -0.075896 0.000000 -0.013303 -0.091610 0.000000 -0.010148 -0.108634 0.000000 -0.005421 -0.122378 0.000000 0.001658 -0.128005 0.000000 0.008830 -0.122614 0.000000 0.014296 -0.109246 0.000000 0.018095 -0.091179 0.000000 0.020196 -0.075782 0.000000 0.025118 -0.063927 0.000000 0.030320 -0.052688 0.000000 0.035770 -0.042617 0.000000 0.040776 -0.030159 0.000000 0.045130 -0.015964 0.000000 0.047625 -0.000121 0.000000 0.047515 0.015566 0.000000 0.045517 0.030283 0.000000 0.040640 0.043097 0.000000 0.034636 0.052685 0.000000 0.027203 0.059519 0.000000 0.019693 0.062730 0.000000 0.012306 0.063512 0.000000 0.005444 0.061490 0.000000 -0.000362 0.057835 0.000000 -0.005488 0.052518 0.000000 -0.009191 0.046316 0.000000 -0.012269 0.039487 0.000000 -0.013914 0.032322 0.000000 -0.015034 0.025348 0.000000 -0.014912 0.018405 0.000000 -0.014347 0.012260 0.000000 -0.012842 0.006386 0.000000 -0.010953 0.001732 0.000000 -0.008485 -0.002503 0.000000 -0.005673 -0.005253 0.000000 -0.002674 -0.007499 0.000000 
0.000560 -0.011675 0.000000 0.004266 -0.011820 0.000000 0.008288 -0.010148 0.000000 0.011685 -0.007943 0.000000 0.015417 -0.004069 0.000000 0.018128 0.000302 0.000000 0.021191 0.006034 0.000000 0.022864 0.012191 0.000000 0.024897 0.019207 0.000000 0.025227 0.026532 0.000000 0.025911 0.033990 0.000000 0.024681 0.041584 0.000000 0.023785 0.048335 0.000000 0.020934 0.054996 0.000000 0.018377 0.059601 0.000000 0.014102 0.063862 0.000000 0.010044 0.064704 0.000000 0.004975 0.064982 0.000000 -0.000084 0.060608 0.000000 -0.004730 0.055463 0.000000 -0.009884 0.045176 0.000000 -0.012495 0.033464 0.000000 -0.016241 0.017756 0.000000 -0.015332 -0.001432 0.000000 -0.014044 -0.020591 0.000000 -0.008405 -0.042608 0.000000 -0.004769 -0.060357 0.000000 -0.004742 -0.075444 0.000000 -0.008002 -0.084618 0.000000 -0.014773 -0.094017 0.000000 -0.016463 -0.106769 0.000000 -0.011148 -0.118218 0.000000 0.000327 -0.123791 0.000000 0.011549 -0.119097 0.000000 0.018568 -0.108281 0.000000 0.017986 -0.094203 0.000000 0.010540 -0.084293 0.000000 0.007535 -0.076210 0.000000 0.007446 -0.064374 0.000000 0.011715 -0.051541 0.000000 0.019889 -0.036730 0.000000 0.027367 -0.020270 0.000000 0.032907 -0.001114 0.000000 0.034836 0.017156 0.000000 0.034375 0.034822 0.000000 0.030169 0.049719 0.000000 0.024272 0.060701 0.000000 0.016955 0.068181 0.000000 0.009338 0.071186 0.000000 0.002245 0.071476 0.000000 -0.004386 0.068399 0.000000 -0.009583 0.063730 0.000000 -0.014155 0.057138 0.000000 -0.017063 0.049811 0.000000 -0.019424 0.041802 0.000000 -0.020226 0.033595 0.000000 -0.020594 0.025649 0.000000 -0.019662 0.017828 0.000000 -0.018377 0.010949 0.000000 -0.016129 0.004392 0.000000 -0.013571 -0.000760 0.000000 -0.010428 -0.005468 0.000000 -0.006990 -0.008485 0.000000 -0.003365 -0.010992 0.000000 
0.000123 -0.015767 0.000000 0.004435 -0.015960 0.000000 0.009096 -0.014146 0.000000 0.013099 -0.011812 0.000000 0.017530 -0.007621 0.000000 0.020877 -0.002949 0.000000 0.024730 0.003269 0.000000 0.027084 0.009889 0.000000 0.030008 0.017547 0.000000 0.031057 0.025474 0.000000 0.032713 0.033695 0.000000 0.032209 0.041987 0.000000 0.032310 0.049561 0.000000 0.030135 0.056945 0.000000 0.028508 0.062310 0.000000 0.024819 0.067205 0.000000 0.021535 0.068505 0.000000 0.017027 0.069157 0.000000 0.012564 0.064529 0.000000 0.008765 0.059289 0.000000 0.003880 0.047684 0.000000 0.002523 0.035193 0.000000 -0.002443 0.017267 0.000000 -0.001087 -0.004070 0.000000 -0.001189 -0.025500 0.000000 0.003086 -0.044772 0.000000 0.011993 -0.052705 0.000000 0.022167 -0.059680 0.000000 0.029604 -0.065865 0.000000 0.024231 -0.083149 0.000000 0.014934 -0.112259 0.000000 0.005425 -0.139168 0.000000 -0.001718 -0.150703 0.000000 -0.008848 -0.140855 0.000000 -0.016212 -0.115682 0.000000 -0.023294 -0.083152 0.000000 -0.028707 -0.065331 0.000000 -0.021650 -0.060833 0.000000 -0.012051 -0.056868 0.000000 -0.004162 -0.055060 0.000000 0.004314 -0.045812 0.000000 0.013958 -0.028981 0.000000 0.021094 -0.007590 0.000000 0.024149 0.014098 0.000000 0.024834 0.034950 0.000000 0.020242 0.053200 0.000000 0.014199 0.065900 0.000000 0.006104 0.074453 0.000000 -0.001694 0.077439 0.000000 -0.008918 0.077236 0.000000 -0.015270 0.073319 0.000000 -0.019937 0.067604 0.000000 -0.023873 0.059998 0.000000 -0.025903 0.051585 0.000000 -0.027473 0.042650 0.000000 -0.027306 0.033492 0.000000 -0.026865 0.024784 0.000000 -0.025012 0.016188 0.000000 -0.022964 0.008727 0.000000 -0.019895 0.001580 0.000000 -0.016639 -0.003969 0.000000 -0.012776 -0.009084 0.000000 -0.008694 -0.012316 0.000000 -0.004424 -0.015049 0.000000 
-0.000003 -0.020534 0.000000 0.004815 -0.020794 0.000000 0.009996 -0.018813 0.000000 0.014525 -0.016377 0.000000 0.019533 -0.011848 0.000000 0.023463 -0.006898 0.000000 0.027986 -0.000173 0.000000 0.031000 0.006913 0.000000 0.034703 0.015235 0.000000 0.036488 0.023826 0.000000 0.039027 0.032838 0.000000 0.039299 0.041988 0.000000 0.040357 0.050409 0.000000 0.038920 0.058797 0.000000 0.038295 0.064917 0.000000 0.035191 0.070835 0.000000 0.032963 0.072496 0.000000 0.028880 0.073953 0.000000 0.025699 0.068870 0.000000 0.022721 0.064148 0.000000 0.019815 0.051417 0.000000 0.021109 0.039787 0.000000 0.018751 0.021366 0.000000 0.024865 -0.002685 0.000000 0.033537 -0.024765 0.000000 0.052982 -0.055790 0.000000 0.064891 -0.079438 0.000000 0.062616 -0.093056 0.000000 0.048727 -0.086682 0.000000 0.021594 -0.079346 0.000000 0.002666 -0.087963 0.000000 -0.004137 -0.101566 0.000000 -0.003865 -0.109518 0.000000 -0.004658 -0.104603 0.000000 -0.007820 -0.093835 0.000000 -0.024317 -0.081709 0.000000 -0.053413 -0.085938 0.000000 -0.065870 -0.092866 0.000000 -0.068262 -0.081861 0.000000 -0.059388 -0.067907 0.000000 -0.037065 -0.054851 0.000000 -0.017010 -0.037050 0.000000 -0.002685 -0.011306 0.000000 0.005440 0.013416 0.000000 0.010123 0.038730 0.000000 0.007379 0.060353 0.000000 0.001659 0.074839 0.000000 -0.005924 0.084074 0.000000 -0.013719 0.086208 0.000000 -0.020234 0.085053 0.000000 -0.026062 0.079418 0.000000 -0.029748 0.072332 0.000000 -0.032846 0.063104 0.000000 -0.033831 0.053411 0.000000 -0.034503 0.043205 0.000000 -0.033362 0.032986 0.000000 -0.032088 0.023355 0.000000 -0.029386 0.013927 0.000000 -0.026614 0.005832 0.000000 -0.022829 -0.001933 0.000000 -0.018953 -0.007878 0.000000 -0.014485 -0.013413 0.000000 -0.009860 -0.016837 0.000000 -0.005057 -0.019808 0.000000 
-0.000477 -0.025640 0.000000 0.004802 -0.025959 0.000000 0.010473 -0.023855 0.000000 0.015462 -0.021349 0.000000 0.021035 -0.016559 0.000000 0.025465 -0.011402 0.000000 0.030672 -0.004268 0.000000 0.034245 0.003171 0.000000 0.038770 0.012058 0.000000 0.041153 0.021150 0.000000 0.044630 0.030884 0.000000 0.045483 0.040658 0.000000 0.047523 0.049940 0.000000 0.046565 0.059007 0.000000 0.046879 0.066039 0.000000 0.044112 0.072537 0.000000 0.042821 0.074817 0.000000 0.039206 0.076422 0.000000 0.037519 0.070687 0.000000 0.036537 0.065173 0.000000 0.036949 0.049296 0.000000 0.044210 0.036257 0.000000 0.042633 0.013511 0.000000 0.054740 -0.018856 0.000000 0.057240 -0.053617 0.000000 0.060041 -0.076126 0.000000 0.076619 -0.062339 0.000000 0.110105 -0.043516 0.000000 0.144675 -0.024843 0.000000 0.145910 -0.037087 0.000000 0.117412 -0.086528 0.000000 0.063774 -0.132637 0.000000 -0.005573 -0.150182 0.000000 -0.074929 -0.136900 0.000000 -0.129100 -0.096023 0.000000 -0.154607 -0.037559 0.000000 -0.150126 -0.023778 0.000000 -0.116631 -0.045984 0.000000 -0.087776 -0.063350 0.000000 -0.080028 -0.086258 0.000000 -0.070718 -0.088190 0.000000 -0.050159 -0.063361 0.000000 -0.029873 -0.030039 0.000000 -0.016794 0.001289 0.000000 -0.006424 0.033011 0.000000 -0.007886 0.061665 0.000000 -0.012437 0.079203 0.000000 -0.020168 0.089831 0.000000 -0.027373 0.091749 0.000000 -0.033265 0.089578 0.000000 -0.038234 0.082832 0.000000 -0.040743 0.074388 0.000000 -0.042861 0.064081 0.000000 -0.042552 0.053242 0.000000 -0.042270 0.042181 0.000000 -0.039947 0.031076 0.000000 -0.037817 0.020808 0.000000 -0.034126 0.010714 0.000000 -0.030623 0.002170 0.000000 -0.026046 -0.006081 0.000000 -0.021561 -0.012313 0.000000 -0.016466 -0.018178 0.000000 -0.011323 -0.021744 0.000000 -0.006006 -0.024905 0.000000 
-0.000637 -0.031342 0.000000 0.004922 -0.031744 0.000000 0.010885 -0.029473 0.000000 0.016177 -0.026938 0.000000 0.022105 -0.021851 0.000000 0.026906 -0.016535 0.000000 0.032571 -0.008952 0.000000 0.036601 -0.001185 0.000000 0.041691 0.008326 0.000000 0.044602 0.017966 0.000000 0.048714 0.028509 0.000000 0.050110 0.039095 0.000000 0.052801 0.049326 0.000000 0.052317 0.059441 0.000000 0.053322 0.067371 0.000000 0.050845 0.074894 0.000000 0.050526 0.077401 0.000000 0.046926 0.079254 0.000000 0.047085 0.071540 0.000000 0.046692 0.064718 0.000000 0.051699 0.043744 0.000000 0.065889 0.034102 0.000000 0.069333 0.010837 0.000000 0.087418 -0.017292 0.000000 0.123632 -0.030066 0.000000 0.189393 -0.075169 0.000000 0.214218 -0.129502 0.000000 0.203171 -0.161111 0.000000 0.174968 -0.122487 0.000000 0.152066 -0.052083 0.000000 0.119474 -0.005828 0.000000 0.064710 0.021418 0.000000 -0.004021 0.029186 0.000000 -0.070956 0.018924 0.000000 -0.133745 -0.014157 0.000000 -0.171890 -0.060682 0.000000 -0.189804 -0.123914 0.000000 -0.217257 -0.155216 0.000000 -0.232735 -0.118464 0.000000 -0.211760 -0.084965 0.000000 -0.149840 -0.084720 0.000000 -0.105852 -0.077894 0.000000 -0.073362 -0.044670 0.000000 -0.050665 -0.010033 0.000000 -0.029757 0.029822 0.000000 -0.025912 0.066366 0.000000 -0.029387 0.087120 0.000000 -0.034846 0.099011 0.000000 -0.040991 0.099305 0.000000 -0.044934 0.095913 0.000000 -0.048563 0.086896 0.000000 -0.049537 0.076960 0.000000 -0.050474 0.064913 0.000000 -0.048982 0.052819 0.000000 -0.047743 0.040600 0.000000 -0.044489 0.028532 0.000000 -0.041601 0.017533 0.000000 -0.037185 0.006733 0.000000 -0.033099 -0.002248 0.000000 -0.027975 -0.010994 0.000000 -0.023054 -0.017458 0.000000 -0.017554 -0.023652 0.000000 -0.012079 -0.027297 0.000000 -0.006448 -0.030654 0.000000 
-0.001120 -0.037010 0.000000 0.004627 -0.037481 0.000000 0.010798 -0.035110 0.000000 0.016281 -0.032570 0.000000 0.022498 -0.027288 0.000000 0.027537 -0.021867 0.000000 0.033625 -0.013962 0.000000 0.037943 -0.005949 0.000000 0.043606 0.004056 0.000000 0.046796 0.014127 0.000000 0.051569 0.025376 0.000000 0.053107 0.036570 0.000000 0.056415 0.047734 0.000000 0.055783 0.058487 0.000000 0.057252 0.067511 0.000000 0.054284 0.075333 0.000000 0.054493 0.078736 0.000000 0.050311 0.079862 0.000000 0.052433 0.070921 0.000000 0.053467 0.060559 0.000000 0.068797 0.030100 0.000000 0.098096 0.018623 0.000000 0.119374 -0.008019 0.000000 0.180771 -0.073156 0.000000 0.206370 -0.155592 0.000000 0.199333 -0.166712 0.000000 0.098067 -0.076116 0.000000 -0.017862 -0.004266 0.000000 -0.094957 0.026262 0.000000 -0.124618 0.018407 0.000000 -0.112652 0.000828 0.000000 -0.070082 -0.009142 0.000000 -0.001276 -0.014516 0.000000 0.063866 -0.007177 0.000000 0.111266 0.004912 0.000000 0.115361 0.018501 0.000000 0.083719 0.021588 0.000000 0.011717 -0.003052 0.000000 -0.097915 -0.068847 0.000000 -0.183188 -0.169153 0.000000 -0.231264 -0.194098 0.000000 -0.221928 -0.139839 0.000000 -0.142503 -0.085226 0.000000 -0.100582 -0.042316 0.000000 -0.062693 0.008258 0.000000 -0.052179 0.061295 0.000000 -0.050971 0.088137 0.000000 -0.053814 0.101435 0.000000 -0.057009 0.101838 0.000000 -0.058292 0.097151 0.000000 -0.060077 0.087435 0.000000 -0.058944 0.076299 0.000000 -0.058732 0.063526 0.000000 -0.055663 0.050511 0.000000 -0.053573 0.037688 0.000000 -0.049134 0.024935 0.000000 -0.045558 0.013505 0.000000 -0.040276 0.002212 0.000000 -0.035657 -0.007040 0.000000 -0.029936 -0.016126 0.000000 -0.024634 -0.022734 0.000000 -0.018746 -0.029153 0.000000 -0.013010 -0.032850 0.000000 -0.007129 -0.036347 0.000000 