# vtk DataFile Version 2.0
Comment goes here
ASCII

DATASET STRUCTURED_POINTS
FIELD FieldData 1
TIME 1 1 double
1.34000000
DIMENSIONS    64   64   1

ORIGIN    0.000   0.000   0.000
SPACING   0.015625 0.015625   1.000

POINT_DATA   4096
VECTORS u double

0.001876 0.000000 0.000000 0.000174 0.000000 0.000000 -0.001908 0.000000 0.000000 -0.004043 0.000000 0.000000 -0.006914 0.000000 0.000000 -0.010061 0.000000 0.000000 -0.014242 0.000000 0.000000 -0.018870 0.000000 0.000000 -0.024739 0.000000 0.000000 -0.031136 0.000000 0.000000 -0.038854 0.000000 0.000000 -0.047042 0.000000 0.000000 -0.056468 0.000000 0.000000 -0.066124 0.000000 0.000000 -0.076740 0.000000 0.000000 -0.087120 0.000000 0.000000 -0.097979 0.000000 0.000000 -0.107908 0.000000 0.000000 -0.117654 0.000000 0.000000 -0.125607 0.000000 0.000000 -0.132614 0.000000 0.000000 -0.136935 0.000000 0.000000 -0.139575 0.000000 0.000000 -0.138797 0.000000 0.000000 -0.135779 0.000000 0.000000 -0.128949 0.000000 0.000000 -0.119599 0.000000 0.000000 -0.106483 0.000000 0.000000 -0.090917 0.000000 0.000000 -0.072160 0.000000 0.000000 -0.051486 0.000000 0.000000 -0.028840 0.000000 0.000000 -0.005340 0.000000 0.000000 0.018342 0.000000 0.000000 0.041534 0.000000 0.000000 0.062992 0.000000 0.000000 0.082849 0.000000 0.000000 0.099466 0.000000 0.000000 0.113914 0.000000 0.000000 0.124274 0.000000 0.000000 0.132403 0.000000 0.000000 0.136251 0.000000 0.000000 0.138161 0.000000 0.000000 0.136168 0.000000 0.000000 0.132769 0.000000 0.000000 0.126270 0.000000 0.000000 0.119018 0.000000 0.000000 0.109677 -0.000000 0.000000 0.100234 -0.000000 0.000000 0.089700 -0.000000 0.000000 0.079612 -0.000000 0.000000 0.069261 -0.000000 0.000000 0.059739 -0.000000 0.000000 0.050538 -0.000000 0.000000 0.042361 -0.000000 0.000000 0.034848 -0.000000 0.000000 0.028378 -0.000000 0.000000 0.022704 -0.000000 0.000000 0.017947 -0.000000 0.000000 0.013960 -0.000000 0.000000 0.010649 -0.000000 0.000000 0.007974 -0.000000 0.000000 0.005656 -0.000000 0.000000 0.003769 -0.000000 0.000000 
0.001832 0.001797 0.000000 0.000165 0.001892 0.000000 -0.001878 0.002109 0.000000 -0.003980 0.002503 0.000000 -0.006811 0.003009 0.000000 -0.009928 0.003664 0.000000 -0.014074 0.004404 0.000000 -0.018677 0.005249 0.000000 -0.024518 0.006133 0.000000 -0.030900 0.007057 0.000000 -0.038603 0.007953 0.000000 -0.046792 0.008807 0.000000 -0.056224 0.009541 0.000000 -0.065900 0.010136 0.000000 -0.076549 0.010498 0.000000 -0.086972 0.010619 0.000000 -0.097896 0.010394 0.000000 -0.107884 0.009837 0.000000 -0.117721 0.008850 0.000000 -0.125733 0.007480 0.000000 -0.132838 0.005664 0.000000 -0.137187 0.003480 0.000000 -0.139899 0.000931 0.000000 -0.139095 -0.001898 0.000000 -0.136088 -0.004924 0.000000 -0.129173 -0.008090 0.000000 -0.119768 -0.011233 0.000000 -0.106546 -0.014341 0.000000 -0.090909 -0.017161 0.000000 -0.072095 -0.019716 0.000000 -0.051396 -0.021660 0.000000 -0.028772 -0.023073 0.000000 -0.005291 -0.023591 0.000000 0.018332 -0.023437 0.000000 0.041527 -0.022325 0.000000 0.062962 -0.020657 0.000000 0.082894 -0.018237 0.000000 0.099541 -0.015532 0.000000 0.114114 -0.012404 0.000000 0.124505 -0.009245 0.000000 0.132735 -0.005988 0.000000 0.136566 -0.002879 0.000000 0.138510 0.000041 0.000000 0.136456 0.002696 0.000000 0.133024 0.004949 0.000000 0.126448 0.006875 0.000000 0.119121 0.008297 0.000000 0.109711 0.009392 0.000000 0.100181 0.009989 0.000000 0.089601 0.010311 0.000000 0.079437 0.010219 0.000000 0.069065 0.009937 0.000000 0.059488 0.009361 0.000000 0.050287 0.008689 0.000000 0.042082 0.007845 0.000000 0.034582 0.006992 0.000000 0.028108 0.006072 0.000000 0.022457 0.005216 0.000000 0.017712 0.004372 0.000000 0.013755 0.003649 0.000000 0.010469 0.002993 0.000000 0.007826 0.002497 0.000000 0.005541 0.002103 0.000000 0.003688 0.001890 0.000000 
0.001888 0.003522 0.000000 0.000378 0.003710 0.000000 -0.001517 0.004145 0.000000 -0.003464 0.004934 0.000000 -0.006152 0.005949 0.000000 -0.009117 0.007262 0.000000 -0.013126 0.008749 0.000000 -0.017586 0.010445 0.000000 -0.023301 0.012223 0.000000 -0.029555 0.014085 0.000000 -0.037147 0.015892 0.000000 -0.045231 0.017621 0.000000 -0.054572 0.019108 0.000000 -0.064173 0.020326 0.000000 -0.074755 0.021072 0.000000 -0.085133 0.021347 0.000000 -0.096006 0.020912 0.000000 -0.105971 0.019826 0.000000 -0.115760 0.017848 0.000000 -0.123753 0.015116 0.000000 -0.130799 0.011454 0.000000 -0.135130 0.007061 0.000000 -0.137789 0.001908 0.000000 -0.137002 -0.003811 0.000000 -0.134022 -0.009922 0.000000 -0.127240 -0.016320 0.000000 -0.118037 -0.022627 0.000000 -0.105112 -0.028859 0.000000 -0.089830 -0.034451 0.000000 -0.071358 -0.039513 0.000000 -0.050997 -0.043323 0.000000 -0.028612 -0.046105 0.000000 -0.005374 -0.047105 0.000000 0.018079 -0.046818 0.000000 0.041016 -0.044630 0.000000 0.062206 -0.041367 0.000000 0.081796 -0.036579 0.000000 0.098140 -0.031220 0.000000 0.112401 -0.024964 0.000000 0.122579 -0.018621 0.000000 0.130652 -0.012061 0.000000 0.134415 -0.005774 0.000000 0.136334 0.000110 0.000000 0.134298 0.005486 0.000000 0.130904 0.010008 0.000000 0.124368 0.013903 0.000000 0.117099 0.016737 0.000000 0.107729 0.018940 0.000000 0.098268 0.020110 0.000000 0.087735 0.020744 0.000000 0.077656 0.020536 0.000000 0.067350 0.019949 0.000000 0.057880 0.018778 0.000000 0.048770 0.017406 0.000000 0.040691 0.015705 0.000000 0.033307 0.013975 0.000000 0.026972 0.012126 0.000000 0.021455 0.010395 0.000000 0.016859 0.008702 0.000000 0.013046 0.007243 0.000000 0.009914 0.005929 0.000000 0.007422 0.004928 0.000000 0.005290 0.004138 0.000000 0.003593 0.003709 0.000000 
0.001855 0.005012 0.000000 0.000570 0.005297 0.000000 -0.001100 0.005951 0.000000 -0.002823 0.007138 0.000000 -0.005291 0.008663 0.000000 -0.008042 0.010638 0.000000 -0.011843 0.012874 0.000000 -0.016108 0.015424 0.000000 -0.021639 0.018102 0.000000 -0.027732 0.020903 0.000000 -0.035179 0.023629 0.000000 -0.043155 0.026233 0.000000 -0.052411 0.028483 0.000000 -0.061975 0.030319 0.000000 -0.072548 0.031458 0.000000 -0.082967 0.031871 0.000000 -0.093914 0.031232 0.000000 -0.103979 0.029592 0.000000 -0.113904 0.026632 0.000000 -0.122002 0.022519 0.000000 -0.129195 0.017041 0.000000 -0.133563 0.010470 0.000000 -0.136318 0.002802 0.000000 -0.135468 -0.005665 0.000000 -0.132512 -0.014686 0.000000 -0.125632 -0.024074 0.000000 -0.116449 -0.033361 0.000000 -0.103523 -0.042549 0.000000 -0.088389 -0.050915 0.000000 -0.070133 -0.058548 0.000000 -0.050105 -0.064406 0.000000 -0.028113 -0.068697 0.000000 -0.005300 -0.070282 0.000000 0.017713 -0.069826 0.000000 0.040267 -0.066453 0.000000 0.061090 -0.061437 0.000000 0.080473 -0.054170 0.000000 0.096613 -0.046138 0.000000 0.110889 -0.036843 0.000000 0.120981 -0.027496 0.000000 0.129165 -0.017824 0.000000 0.132854 -0.008561 0.000000 0.134847 0.000158 0.000000 0.132709 0.008126 0.000000 0.129289 0.014879 0.000000 0.122637 0.020681 0.000000 0.115265 0.024936 0.000000 0.105803 0.028223 0.000000 0.096225 0.029983 0.000000 0.085655 0.030922 0.000000 0.075501 0.030604 0.000000 0.065227 0.029713 0.000000 0.055753 0.027942 0.000000 0.046738 0.025877 0.000000 0.038730 0.023309 0.000000 0.031491 0.020711 0.000000 0.025290 0.017924 0.000000 0.019953 0.015329 0.000000 0.015535 0.012780 0.000000 0.011925 0.010594 0.000000 0.008997 0.008617 0.000000 0.006721 0.007120 0.000000 0.004809 0.005932 0.000000 0.003334 0.005292 0.000000 
0.001926 0.006286 0.000000 0.000984 0.006664 0.000000 -0.000357 0.007538 0.000000 -0.001740 0.009125 0.000000 -0.003889 0.011168 0.000000 -0.006309 0.013814 0.000000 -0.009805 0.016815 0.000000 -0.013761 0.020240 0.000000 -0.019014 0.023846 0.000000 -0.024836 0.027625 0.000000 -0.032048 0.031315 0.000000 -0.039813 0.034853 0.000000 -0.048893 0.037928 0.000000 -0.058324 0.040463 0.000000 -0.068790 0.042065 0.000000 -0.079153 0.042713 0.000000 -0.090050 0.041924 0.000000 -0.100104 0.039816 0.000000 -0.109987 0.035871 0.000000 -0.118050 0.030407 0.000000 -0.125136 0.023016 0.000000 -0.129386 0.014184 0.000000 -0.131953 0.003813 0.000000 -0.130952 -0.007617 0.000000 -0.127891 -0.019758 0.000000 -0.121077 -0.032383 0.000000 -0.112206 -0.044736 0.000000 -0.099839 -0.056919 0.000000 -0.085503 -0.067841 0.000000 -0.068070 -0.077798 0.000000 -0.048884 -0.085343 0.000000 -0.027529 -0.090910 0.000000 -0.005333 -0.092930 0.000000 0.017184 -0.092385 0.000000 0.039080 -0.088007 0.000000 0.059212 -0.081573 0.000000 0.077769 -0.072102 0.000000 0.093148 -0.061636 0.000000 0.106815 -0.049332 0.000000 0.116505 -0.036898 0.000000 0.124561 -0.023934 0.000000 0.128238 -0.011456 0.000000 0.130366 0.000255 0.000000 0.128347 0.011043 0.000000 0.125089 0.020080 0.000000 0.118527 0.027928 0.000000 0.111261 0.033571 0.000000 0.101851 0.037980 0.000000 0.092352 0.040258 0.000000 0.081845 0.041467 0.000000 0.071796 0.040965 0.000000 0.061638 0.039697 0.000000 0.052326 0.037266 0.000000 0.043494 0.034429 0.000000 0.035711 0.030952 0.000000 0.028713 0.027415 0.000000 0.022787 0.023664 0.000000 0.017737 0.020150 0.000000 0.013627 0.016730 0.000000 0.010332 0.013781 0.000000 0.007731 0.011132 0.000000 0.005787 0.009116 0.000000 0.004207 0.007526 0.000000 0.003072 0.006663 0.000000 
0.001903 0.007100 0.000000 0.001367 0.007580 0.000000 0.000431 0.008674 0.000000 -0.000547 0.010669 0.000000 -0.002299 0.013231 0.000000 -0.004325 0.016554 0.000000 -0.007444 0.020326 0.000000 -0.011034 0.024632 0.000000 -0.015943 0.029177 0.000000 -0.021453 0.033937 0.000000 -0.028380 0.038606 0.000000 -0.035919 0.043078 0.000000 -0.044805 0.046993 0.000000 -0.054129 0.050216 0.000000 -0.064523 0.052287 0.000000 -0.074916 0.053131 0.000000 -0.085872 0.052183 0.000000 -0.096059 0.049528 0.000000 -0.106094 0.044578 0.000000 -0.114287 0.037668 0.000000 -0.121527 0.028377 0.000000 -0.125752 0.017287 0.000000 -0.128361 0.004369 0.000000 -0.127107 -0.009727 0.000000 -0.123931 -0.024561 0.000000 -0.116789 -0.039760 0.000000 -0.107803 -0.054600 0.000000 -0.095357 -0.069251 0.000000 -0.081305 -0.082684 0.000000 -0.064437 -0.095167 0.000000 -0.046166 -0.104946 0.000000 -0.025938 -0.112247 0.000000 -0.005014 -0.114995 0.000000 0.016229 -0.114239 0.000000 0.036927 -0.108481 0.000000 0.056038 -0.100127 0.000000 0.073941 -0.088107 0.000000 0.088884 -0.075184 0.000000 0.102604 -0.060200 0.000000 0.112261 -0.045241 0.000000 0.120658 -0.029557 0.000000 0.124339 -0.014366 0.000000 0.126744 0.000049 0.000000 0.124669 0.013403 0.000000 0.121470 0.024698 0.000000 0.114806 0.034509 0.000000 0.107427 0.041612 0.000000 0.097935 0.047132 0.000000 0.088284 0.049989 0.000000 0.077774 0.051478 0.000000 0.067648 0.050811 0.000000 0.057590 0.049183 0.000000 0.048328 0.046085 0.000000 0.039698 0.042493 0.000000 0.032091 0.038089 0.000000 0.025375 0.033634 0.000000 0.019726 0.028901 0.000000 0.015013 0.024489 0.000000 0.011247 0.020185 0.000000 0.008324 0.016491 0.000000 0.006105 0.013163 0.000000 0.004553 0.010644 0.000000 0.003375 0.008647 0.000000 0.002642 0.007574 0.000000 
0.001994 0.007561 0.000000 0.001972 0.008136 0.000000 0.001530 0.009452 0.000000 0.001065 0.011856 0.000000 -0.000205 0.014946 0.000000 -0.001729 0.018959 0.000000 -0.004386 0.023523 0.000000 -0.007502 0.028740 0.000000 -0.011987 0.034265 0.000000 -0.017080 0.040061 0.000000 -0.023644 0.045782 0.000000 -0.030859 0.051278 0.000000 -0.039475 0.056138 0.000000 -0.048599 0.060181 0.000000 -0.058838 0.062852 0.000000 -0.069160 0.064062 0.000000 -0.080059 0.063066 0.000000 -0.090239 0.060038 0.000000 -0.100216 0.054099 0.000000 -0.108313 0.045840 0.000000 -0.115309 0.034481 0.000000 -0.119168 0.021018 0.000000 -0.121219 0.005167 0.000000 -0.119348 -0.012046 0.000000 -0.115570 -0.030076 0.000000 -0.108118 -0.048511 0.000000 -0.099424 -0.066168 0.000000 -0.087947 -0.083417 0.000000 -0.075496 -0.098761 0.000000 -0.060346 -0.112936 0.000000 -0.043760 -0.123842 0.000000 -0.024725 -0.132062 0.000000 -0.004825 -0.135097 0.000000 0.015604 -0.134326 0.000000 0.035089 -0.127816 0.000000 0.052757 -0.118587 0.000000 0.068896 -0.104947 0.000000 0.082200 -0.090299 0.000000 0.094793 -0.072710 0.000000 0.103879 -0.054952 0.000000 0.112453 -0.036013 0.000000 0.116494 -0.017541 0.000000 0.119499 -0.000074 0.000000 0.117873 0.016317 0.000000 0.115120 0.029942 0.000000 0.108688 0.041970 0.000000 0.101508 0.050443 0.000000 0.092096 0.057123 0.000000 0.082535 0.060420 0.000000 0.072103 0.062103 0.000000 0.062099 0.061148 0.000000 0.052208 0.059017 0.000000 0.043165 0.055158 0.000000 0.034812 0.050666 0.000000 0.027530 0.045274 0.000000 0.021185 0.039780 0.000000 0.015944 0.034027 0.000000 0.011668 0.028629 0.000000 0.008364 0.023419 0.000000 0.005918 0.018923 0.000000 0.004189 0.014903 0.000000 0.003135 0.011847 0.000000 0.002457 0.009437 0.000000 0.002233 0.008134 0.000000 
0.001983 0.007361 0.000000 0.002527 0.008044 0.000000 0.002649 0.009582 0.000000 0.002751 0.012404 0.000000 0.002036 0.016025 0.000000 0.001073 0.020735 0.000000 -0.001047 0.026099 0.000000 -0.003629 0.032234 0.000000 -0.007612 0.038754 0.000000 -0.012229 0.045594 0.000000 -0.018357 0.052385 0.000000 -0.025204 0.058909 0.000000 -0.033493 0.064733 0.000000 -0.042418 0.069579 0.000000 -0.052489 0.072848 0.000000 -0.062824 0.074352 0.000000 -0.073745 0.073262 0.000000 -0.084124 0.069685 0.000000 -0.094279 0.062652 0.000000 -0.102594 0.052761 0.000000 -0.109796 0.039232 0.000000 -0.113606 0.023197 0.000000 -0.115704 0.004548 0.000000 -0.113309 -0.015375 0.000000 -0.109232 -0.035791 0.000000 -0.100995 -0.055906 0.000000 -0.091672 -0.074770 0.000000 -0.079547 -0.093180 0.000000 -0.067090 -0.110286 0.000000 -0.052735 -0.126903 0.000000 -0.037799 -0.140568 0.000000 -0.021060 -0.151183 0.000000 -0.003873 -0.155324 0.000000 0.013854 -0.154152 0.000000 0.030731 -0.145633 0.000000 0.046393 -0.133935 0.000000 0.061359 -0.117550 0.000000 0.074298 -0.101080 0.000000 0.087486 -0.081879 0.000000 0.096973 -0.062901 0.000000 0.106430 -0.042171 0.000000 0.110589 -0.021413 0.000000 0.114172 -0.001331 0.000000 0.112495 0.017782 0.000000 0.109838 0.033884 0.000000 0.103269 0.048122 0.000000 0.095862 0.058204 0.000000 0.086351 0.066104 0.000000 0.076524 0.069981 0.000000 0.066122 0.071914 0.000000 0.056005 0.070707 0.000000 0.046300 0.068117 0.000000 0.037360 0.063481 0.000000 0.029329 0.058128 0.000000 0.022340 0.051716 0.000000 0.016420 0.045220 0.000000 0.011608 0.038418 0.000000 0.007821 0.032069 0.000000 0.005029 0.025935 0.000000 0.003111 0.020666 0.000000 0.001934 0.015945 0.000000 0.001429 0.012376 0.000000 0.001318 0.009549 0.000000 0.001653 0.008036 0.000000 
0.002100 0.006688 0.000000 0.003298 0.007470 0.000000 0.004046 0.009228 0.000000 0.004807 0.012468 0.000000 0.004709 0.016624 0.000000 0.004400 0.022042 0.000000 0.002880 0.028225 0.000000 0.000928 0.035304 0.000000 -0.002490 0.042866 0.000000 -0.006538 0.050807 0.000000 -0.012170 0.058757 0.000000 -0.018565 0.066414 0.000000 -0.026479 0.073352 0.000000 -0.035134 0.079177 0.000000 -0.045011 0.083258 0.000000 -0.055299 0.085318 0.000000 -0.066224 0.084366 0.000000 -0.076711 0.080572 0.000000 -0.086930 0.072569 0.000000 -0.095238 0.061357 0.000000 -0.102193 0.045493 0.000000 -0.105447 0.026926 0.000000 -0.106523 0.004871 0.000000 -0.102766 -0.018518 0.000000 -0.096997 -0.042390 0.000000 -0.087412 -0.066071 0.000000 -0.078091 -0.087616 0.000000 -0.067750 -0.107998 0.000000 -0.058529 -0.125573 0.000000 -0.047532 -0.142227 0.000000 -0.035396 -0.155517 0.000000 -0.019987 -0.165989 0.000000 -0.003300 -0.170012 0.000000 0.014332 -0.168930 0.000000 0.029961 -0.160355 0.000000 0.043341 -0.149215 0.000000 0.054855 -0.132852 0.000000 0.064366 -0.116426 0.000000 0.075389 -0.095384 0.000000 0.084213 -0.073896 0.000000 0.094813 -0.049629 0.000000 0.100275 -0.025284 0.000000 0.105253 -0.001980 0.000000 0.104460 0.020652 0.000000 0.102479 0.039168 0.000000 0.096114 0.055946 0.000000 0.088799 0.067361 0.000000 0.079210 0.076461 0.000000 0.069321 0.080649 0.000000 0.058906 0.082623 0.000000 0.048846 0.080970 0.000000 0.039325 0.077662 0.000000 0.030640 0.072129 0.000000 0.022980 0.065686 0.000000 0.016418 0.058184 0.000000 0.010999 0.050512 0.000000 0.006729 0.042625 0.000000 0.003521 0.035208 0.000000 0.001335 0.028130 0.000000 0.000036 0.022018 0.000000 -0.000507 0.016585 0.000000 -0.000375 0.012463 0.000000 0.000153 0.009212 0.000000 0.001136 0.007469 0.000000 
0.002106 0.005200 0.000000 0.003984 0.006097 0.000000 0.005411 0.008072 0.000000 0.006864 0.011741 0.000000 0.007440 0.016432 0.000000 0.007831 0.022564 0.000000 0.006978 0.029571 0.000000 0.005720 0.037604 0.000000 0.002949 0.046221 0.000000 -0.000449 0.055275 0.000000 -0.005483 0.064412 0.000000 -0.011341 0.073217 0.000000 -0.018771 0.081302 0.000000 -0.027115 0.088112 0.000000 -0.036722 0.093013 0.000000 -0.047057 0.095564 0.000000 -0.058022 0.094674 0.000000 -0.068961 0.090392 0.000000 -0.079537 0.081179 0.000000 -0.088491 0.068024 0.000000 -0.095993 0.049441 0.000000 -0.099573 0.027528 0.000000 -0.101227 0.001868 0.000000 -0.096965 -0.024901 0.000000 -0.091318 -0.051145 0.000000 -0.080700 -0.074812 0.000000 -0.069622 -0.094432 0.000000 -0.056598 -0.112742 0.000000 -0.045358 -0.130504 0.000000 -0.034306 -0.150036 0.000000 -0.024174 -0.168112 0.000000 -0.012691 -0.183278 0.000000 -0.001040 -0.189643 0.000000 0.011582 -0.187414 0.000000 0.022375 -0.174642 0.000000 0.032682 -0.158828 0.000000 0.043136 -0.138575 0.000000 0.053941 -0.121614 0.000000 0.067810 -0.101727 0.000000 0.078296 -0.082326 0.000000 0.090441 -0.058233 0.000000 0.095487 -0.031852 0.000000 0.101042 -0.005515 0.000000 0.099732 0.020555 0.000000 0.097428 0.042229 0.000000 0.090535 0.061802 0.000000 0.082414 0.075108 0.000000 0.072473 0.085582 0.000000 0.061893 0.090286 0.000000 0.051423 0.092389 0.000000 0.041083 0.090288 0.000000 0.031795 0.086323 0.000000 0.023242 0.079826 0.000000 0.016023 0.072350 0.000000 0.009888 0.063697 0.000000 0.005031 0.054908 0.000000 0.001359 0.045896 0.000000 -0.001225 0.037463 0.000000 -0.002735 0.029420 0.000000 -0.003381 0.022509 0.000000 -0.003224 0.016356 0.000000 -0.002427 0.011716 0.000000 -0.001201 0.008038 0.000000 0.000454 0.006090 0.000000 
0.002257 0.003158 0.000000 0.004870 0.004164 0.000000 0.006999 0.006347 0.000000 0.009203 0.010440 0.000000 0.010478 0.015657 0.000000 0.011637 0.022504 0.000000 0.011482 0.030336 0.000000 0.010992 0.039333 0.000000 0.008907 0.049034 0.000000 0.006234 0.059239 0.000000 0.001831 0.069649 0.000000 -0.003437 0.079702 0.000000 -0.010388 0.089126 0.000000 -0.018426 0.097129 0.000000 -0.027873 0.103200 0.000000 -0.038355 0.106618 0.000000 -0.049634 0.106270 0.000000 -0.061183 0.102087 0.000000 -0.072432 0.092099 0.000000 -0.082015 0.077813 0.000000 -0.089863 0.056575 0.000000 -0.093149 0.032160 0.000000 -0.093569 0.002263 0.000000 -0.086977 -0.028427 0.000000 -0.077044 -0.058655 0.000000 -0.061858 -0.087767 0.000000 -0.049531 -0.111718 0.000000 -0.040424 -0.132262 0.000000 -0.036565 -0.147865 0.000000 -0.032429 -0.163412 0.000000 -0.026542 -0.177131 0.000000 -0.014919 -0.189123 0.000000 -0.000176 -0.194285 0.000000 0.016420 -0.192345 0.000000 0.028021 -0.181454 0.000000 0.035625 -0.169976 0.000000 0.039185 -0.154111 0.000000 0.042096 -0.141100 0.000000 0.051084 -0.119740 0.000000 0.061179 -0.096526 0.000000 0.077677 -0.066820 0.000000 0.086570 -0.035885 0.000000 0.094699 -0.006225 0.000000 0.094542 0.024266 0.000000 0.092691 0.048365 0.000000 0.085295 0.070961 0.000000 0.076471 0.085423 0.000000 0.065702 0.096982 0.000000 0.054412 0.101699 0.000000 0.043507 0.103433 0.000000 0.032918 0.100598 0.000000 0.023705 0.095502 0.000000 0.015365 0.087901 0.000000 0.008582 0.079040 0.000000 0.002963 0.069175 0.000000 -0.001268 0.059042 0.000000 -0.004271 0.048881 0.000000 -0.006152 0.039302 0.000000 -0.006934 0.030286 0.000000 -0.006856 0.022507 0.000000 -0.005962 0.015630 0.000000 -0.004438 0.010440 0.000000 -0.002488 0.006332 0.000000 -0.000105 0.004163 0.000000 
0.002287 0.000224 0.000000 0.005620 0.001355 0.000000 0.008464 0.003740 0.000000 0.011414 0.008262 0.000000 0.013408 0.013998 0.000000 0.015351 0.021560 0.000000 0.015934 0.030216 0.000000 0.016264 0.040178 0.000000 0.014936 0.050979 0.000000 0.013084 0.062351 0.000000 0.009422 0.074083 0.000000 0.004876 0.085436 0.000000 -0.001459 0.096290 0.000000 -0.009097 0.105596 0.000000 -0.018265 0.112942 0.000000 -0.028999 0.117325 0.000000 -0.040561 0.117501 0.000000 -0.053230 0.113190 0.000000 -0.065277 0.102011 0.000000 -0.076472 0.085455 0.000000 -0.085270 0.060576 0.000000 -0.089576 0.031234 0.000000 -0.091476 -0.004304 0.000000 -0.084322 -0.041427 0.000000 -0.077109 -0.076264 0.000000 -0.062994 -0.102326 0.000000 -0.047218 -0.115865 0.000000 -0.028922 -0.125708 0.000000 -0.014909 -0.138499 0.000000 -0.005881 -0.160059 0.000000 -0.001299 -0.185623 0.000000 0.002152 -0.209645 0.000000 0.004716 -0.220982 0.000000 0.009126 -0.215611 0.000000 0.009988 -0.193847 0.000000 0.012997 -0.169992 0.000000 0.018360 -0.145046 0.000000 0.030303 -0.133513 0.000000 0.049939 -0.120810 0.000000 0.064422 -0.108920 0.000000 0.081552 -0.083624 0.000000 0.086769 -0.048874 0.000000 0.095178 -0.013487 0.000000 0.093987 0.022563 0.000000 0.091069 0.051476 0.000000 0.082575 0.078023 0.000000 0.071655 0.094701 0.000000 0.059939 0.107641 0.000000 0.046955 0.112481 0.000000 0.035620 0.113884 0.000000 0.024291 0.110090 0.000000 0.015196 0.103876 0.000000 0.006940 0.094949 0.000000 0.000644 0.084752 0.000000 -0.004408 0.073547 0.000000 -0.007976 0.062142 0.000000 -0.010208 0.050780 0.000000 -0.011371 0.040126 0.000000 -0.011335 0.030124 0.000000 -0.010536 0.021537 0.000000 -0.008843 0.013938 0.000000 -0.006607 0.008241 0.000000 -0.003895 0.003705 0.000000 -0.000805 0.001345 0.000000 
0.002482 -0.003266 0.000000 0.006535 -0.002012 0.000000 0.010060 0.000553 0.000000 0.013767 0.005496 0.000000 0.016455 0.011720 0.000000 0.019209 0.019978 0.000000 0.020516 0.029423 0.000000 0.021709 0.040331 0.000000 0.021137 0.052214 0.000000 0.020151 0.064753 0.000000 0.017222 0.077858 0.000000 0.013390 0.090583 0.000000 0.007584 0.103098 0.000000 0.000180 0.113935 0.000000 -0.009040 0.123102 0.000000 -0.020470 0.128913 0.000000 -0.033095 0.130501 0.000000 -0.047523 0.126803 0.000000 -0.061496 0.115341 0.000000 -0.074466 0.097806 0.000000 -0.084532 0.069679 0.000000 -0.088487 0.038365 0.000000 -0.088795 -0.002992 0.000000 -0.077459 -0.042795 0.000000 -0.057385 -0.079983 0.000000 -0.026559 -0.117657 0.000000 -0.004840 -0.145790 0.000000 0.002244 -0.164571 0.000000 -0.003438 -0.170905 0.000000 -0.010609 -0.177022 0.000000 -0.013552 -0.185164 0.000000 -0.007182 -0.195138 0.000000 0.004994 -0.201260 0.000000 0.020507 -0.197616 0.000000 0.026658 -0.185326 0.000000 0.027170 -0.178348 0.000000 0.017483 -0.171416 0.000000 0.008478 -0.172679 0.000000 0.013833 -0.153860 0.000000 0.029325 -0.128139 0.000000 0.062772 -0.089167 0.000000 0.080999 -0.049511 0.000000 0.094593 -0.013443 0.000000 0.095339 0.028375 0.000000 0.093135 0.059777 0.000000 0.083136 0.090374 0.000000 0.070135 0.108059 0.000000 0.056263 0.121682 0.000000 0.041283 0.126018 0.000000 0.028634 0.126097 0.000000 0.016352 0.121021 0.000000 0.006991 0.112853 0.000000 -0.001267 0.102453 0.000000 -0.007149 0.090387 0.000000 -0.011649 0.077796 0.000000 -0.014511 0.064842 0.000000 -0.015974 0.052276 0.000000 -0.016363 0.040428 0.000000 -0.015522 0.029451 0.000000 -0.013966 0.020015 0.000000 -0.011502 0.011702 0.000000 -0.008541 0.005492 0.000000 -0.005103 0.000529 0.000000 -0.001302 -0.002019 0.000000 
0.002550 -0.007613 0.000000 0.007242 -0.006224 0.000000 0.011402 -0.003492 0.000000 0.015796 0.001868 0.000000 0.019137 0.008556 0.000000 0.022661 0.017499 0.000000 0.024673 0.027715 0.000000 0.026738 0.039557 0.000000 0.026940 0.052538 0.000000 0.026896 0.066265 0.000000 0.024762 0.080844 0.000000 0.021787 0.095074 0.000000 0.016589 0.109500 0.000000 0.009564 0.122220 0.000000 0.000356 0.133592 0.000000 -0.011790 0.141381 0.000000 -0.025298 0.144554 0.000000 -0.041828 0.141592 0.000000 -0.056707 0.128955 0.000000 -0.071713 0.108490 0.000000 -0.079904 0.074596 0.000000 -0.082318 0.035497 0.000000 -0.079122 -0.015332 0.000000 -0.059818 -0.072838 0.000000 -0.050512 -0.127165 0.000000 -0.037535 -0.154870 0.000000 -0.017161 -0.144668 0.000000 0.020379 -0.127110 0.000000 0.060405 -0.125646 0.000000 0.080473 -0.149945 0.000000 0.078871 -0.189050 0.000000 0.056176 -0.228191 0.000000 0.017228 -0.248671 0.000000 -0.020244 -0.237274 0.000000 -0.052981 -0.200510 0.000000 -0.063567 -0.160817 0.000000 -0.054767 -0.126354 0.000000 -0.018023 -0.129863 0.000000 0.025636 -0.141656 0.000000 0.045619 -0.157859 0.000000 0.064351 -0.135299 0.000000 0.066623 -0.080695 0.000000 0.085544 -0.027826 0.000000 0.092377 0.024021 0.000000 0.092461 0.063679 0.000000 0.084007 0.101022 0.000000 0.068459 0.121574 0.000000 0.053865 0.136493 0.000000 0.035989 0.140109 0.000000 0.022333 0.138814 0.000000 0.008553 0.131733 0.000000 -0.001143 0.121495 0.000000 -0.009511 0.109088 0.000000 -0.015073 0.095134 0.000000 -0.018907 0.080910 0.000000 -0.021128 0.066467 0.000000 -0.021672 0.052632 0.000000 -0.021346 0.039674 0.000000 -0.019599 0.027727 0.000000 -0.017354 0.017517 0.000000 -0.014081 0.008513 0.000000 -0.010471 0.001842 0.000000 -0.006318 -0.003533 0.000000 -0.001890 -0.006239 0.000000 
0.002795 -0.012398 0.000000 0.008057 -0.010865 0.000000 0.012746 -0.008001 0.000000 0.017774 -0.002239 0.000000 0.021674 0.004855 0.000000 0.025940 0.014442 0.000000 0.028580 0.025347 0.000000 0.031515 0.038064 0.000000 0.032427 0.052056 0.000000 0.033326 0.066930 0.000000 0.031911 0.082967 0.000000 0.029694 0.098756 0.000000 0.024927 0.115321 0.000000 0.017886 0.130168 0.000000 0.008201 0.144455 0.000000 -0.005537 0.154567 0.000000 -0.021037 0.160539 0.000000 -0.040687 0.158212 0.000000 -0.058089 0.145226 0.000000 -0.074151 0.121003 0.000000 -0.080396 0.080284 0.000000 -0.074839 0.037584 0.000000 -0.065832 -0.025492 0.000000 -0.039487 -0.071405 0.000000 0.016022 -0.102266 0.000000 0.091875 -0.151009 0.000000 0.122777 -0.203704 0.000000 0.120861 -0.242137 0.000000 0.121699 -0.230999 0.000000 0.111966 -0.195488 0.000000 0.092696 -0.160867 0.000000 0.062128 -0.133495 0.000000 0.016907 -0.124840 0.000000 -0.025374 -0.127408 0.000000 -0.062367 -0.142003 0.000000 -0.081023 -0.176562 0.000000 -0.094029 -0.216960 0.000000 -0.097621 -0.253082 0.000000 -0.103481 -0.217502 0.000000 -0.089277 -0.166854 0.000000 -0.014387 -0.110171 0.000000 0.040660 -0.070704 0.000000 0.071742 -0.039197 0.000000 0.084389 0.021458 0.000000 0.093197 0.068147 0.000000 0.087223 0.114375 0.000000 0.070891 0.138200 0.000000 0.054667 0.154153 0.000000 0.034136 0.157551 0.000000 0.018476 0.153533 0.000000 0.002841 0.144497 0.000000 -0.007688 0.130917 0.000000 -0.016518 0.116383 0.000000 -0.021886 0.099784 0.000000 -0.025268 0.083851 0.000000 -0.026836 0.067606 0.000000 -0.026596 0.052494 0.000000 -0.025541 0.038356 0.000000 -0.023004 0.025459 0.000000 -0.020094 0.014497 0.000000 -0.016127 0.004819 0.000000 -0.011924 -0.002272 0.000000 -0.007171 -0.008053 0.000000 -0.002186 -0.010887 0.000000 
0.002913 -0.017857 0.000000 0.008585 -0.016175 0.000000 0.013672 -0.013209 0.000000 0.019182 -0.007060 0.000000 0.023514 0.000390 0.000000 0.028392 0.010593 0.000000 0.031548 0.022140 0.000000 0.035263 0.035709 0.000000 0.036795 0.050727 0.000000 0.038604 0.066782 0.000000 0.037814 0.084476 0.000000 0.036405 0.102058 0.000000 0.031916 0.121308 0.000000 0.025043 0.138946 0.000000 0.014701 0.157016 0.000000 -0.000156 0.170619 0.000000 -0.017233 0.179704 0.000000 -0.038911 0.178644 0.000000 -0.055135 0.162419 0.000000 -0.069188 0.130797 0.000000 -0.058412 0.075284 0.000000 -0.036150 0.020933 0.000000 0.022766 -0.050685 0.000000 0.113226 -0.154691 0.000000 0.150855 -0.258526 0.000000 0.131505 -0.261625 0.000000 0.059808 -0.173654 0.000000 -0.023321 -0.126032 0.000000 -0.069308 -0.116752 0.000000 -0.094831 -0.120942 0.000000 -0.092365 -0.139211 0.000000 -0.061764 -0.152401 0.000000 -0.015709 -0.161169 0.000000 0.038338 -0.158000 0.000000 0.075846 -0.144861 0.000000 0.101185 -0.129155 0.000000 0.088315 -0.109755 0.000000 0.051327 -0.120410 0.000000 -0.023142 -0.150001 0.000000 -0.109894 -0.246953 0.000000 -0.137139 -0.265236 0.000000 -0.118289 -0.166824 0.000000 -0.030614 -0.071555 0.000000 0.038743 0.002566 0.000000 0.070061 0.060845 0.000000 0.080190 0.123329 0.000000 0.067237 0.154129 0.000000 0.055565 0.173248 0.000000 0.032990 0.176301 0.000000 0.016343 0.170109 0.000000 -0.001351 0.157897 0.000000 -0.013161 0.140854 0.000000 -0.022451 0.123286 0.000000 -0.028104 0.103884 0.000000 -0.030848 0.085860 0.000000 -0.032055 0.067795 0.000000 -0.030856 0.051337 0.000000 -0.029258 0.036082 0.000000 -0.025852 0.022280 0.000000 -0.022432 0.010640 0.000000 -0.017787 0.000343 0.000000 -0.013147 -0.007114 0.000000 -0.007876 -0.013271 0.000000 -0.002494 -0.016206 0.000000 