# vtk DataFile Version 2.0
Comment goes here
ASCII

DATASET STRUCTURED_POINTS
FIELD FieldData 1
TIME 1 1 double
1.61000000
DIMENSIONS    64   64   1

ORIGIN    0.000   0.000   0.000
SPACING   0.015625 0.015625   1.000

POINT_DATA   4096
VECTORS u double

0.001634 0.000000 0.000000 0.000836 0.000000 0.000000 0.000052 0.000000 0.000000 -0.001134 0.000000 0.000000 -0.002626 0.000000 0.000000 -0.004725 -0.000000 0.000000 -0.007418 0.000000 0.000000 -0.010856 -0.000000 0.000000 -0.015110 -0.000000 0.000000 -0.020147 -0.000000 0.000000 -0.026120 -0.000000 0.000000 -0.032776 -0.000000 0.000000 -0.040345 -0.000000 0.000000 -0.048328 -0.000000 0.000000 -0.057023 0.000000 0.000000 -0.065673 0.000000 0.000000 -0.074640 0.000000 0.000000 -0.082927 0.000000 0.000000 -0.090959 0.000000 0.000000 -0.097568 0.000000 0.000000 -0.103253 0.000000 0.000000 -0.106785 0.000000 0.000000 -0.108762 0.000000 0.000000 -0.108028 0.000000 0.000000 -0.105305 0.000000 0.000000 -0.099618 0.000000 0.000000 -0.091817 0.000000 0.000000 -0.081164 0.000000 0.000000 -0.068633 0.000000 0.000000 -0.053726 0.000000 0.000000 -0.037550 0.000000 0.000000 -0.019873 0.000000 0.000000 -0.001895 0.000000 0.000000 0.016347 0.000000 0.000000 0.033785 0.000000 0.000000 0.050180 0.000000 0.000000 0.064920 0.000000 0.000000 0.077600 0.000000 0.000000 0.088233 0.000000 0.000000 0.096212 0.000000 0.000000 0.102124 0.000000 0.000000 0.105193 0.000000 0.000000 0.106415 0.000000 0.000000 0.104990 0.000000 0.000000 0.102117 0.000000 0.000000 0.097113 0.000000 0.000000 0.091186 0.000000 0.000000 0.083831 0.000000 0.000000 0.076123 0.000000 0.000000 0.067713 0.000000 0.000000 0.059479 0.000000 0.000000 0.051156 -0.000000 0.000000 0.043430 0.000000 0.000000 0.036040 0.000000 0.000000 0.029524 0.000000 0.000000 0.023566 0.000000 0.000000 0.018607 0.000000 0.000000 0.014251 0.000000 0.000000 0.010877 0.000000 0.000000 0.008014 0.000000 0.000000 0.005998 0.000000 0.000000 0.004311 0.000000 0.000000 0.003245 0.000000 0.000000 0.002273 0.000000 0.000000 
0.001524 0.000718 0.000000 0.000758 0.000791 0.000000 0.000017 0.000985 0.000000 -0.001138 0.001339 0.000000 -0.002586 0.001795 0.000000 -0.004655 0.002396 0.000000 -0.007308 0.003065 0.000000 -0.010720 0.003846 0.000000 -0.014942 0.004646 0.000000 -0.019960 0.005505 0.000000 -0.025914 0.006314 0.000000 -0.032563 0.007112 0.000000 -0.040136 0.007776 0.000000 -0.048130 0.008339 0.000000 -0.056860 0.008673 0.000000 -0.065543 0.008809 0.000000 -0.074580 0.008627 0.000000 -0.082918 0.008160 0.000000 -0.091052 0.007320 0.000000 -0.097716 0.006147 0.000000 -0.103511 0.004608 0.000000 -0.107080 0.002754 0.000000 -0.109141 0.000622 0.000000 -0.108398 -0.001729 0.000000 -0.105692 -0.004205 0.000000 -0.099933 -0.006744 0.000000 -0.092073 -0.009227 0.000000 -0.081298 -0.011592 0.000000 -0.068664 -0.013719 0.000000 -0.053647 -0.015541 0.000000 -0.037387 -0.016926 0.000000 -0.019650 -0.017827 0.000000 -0.001622 -0.018110 0.000000 0.016649 -0.017840 0.000000 0.034137 -0.016916 0.000000 0.050568 -0.015568 0.000000 0.065387 -0.013710 0.000000 0.078111 -0.011657 0.000000 0.088828 -0.009306 0.000000 0.096813 -0.006945 0.000000 0.102764 -0.004491 0.000000 0.105777 -0.002146 0.000000 0.106975 0.000101 0.000000 0.105445 0.002149 0.000000 0.102498 0.003938 0.000000 0.097373 0.005466 0.000000 0.091347 0.006641 0.000000 0.083883 0.007532 0.000000 0.076078 0.008059 0.000000 0.067586 0.008322 0.000000 0.059277 0.008279 0.000000 0.050903 0.008024 0.000000 0.043131 0.007558 0.000000 0.035718 0.006953 0.000000 0.029184 0.006237 0.000000 0.023225 0.005458 0.000000 0.018270 0.004658 0.000000 0.013928 0.003865 0.000000 0.010574 0.003119 0.000000 0.007734 0.002439 0.000000 0.005749 0.001851 0.000000 0.004091 0.001377 0.000000 0.003062 0.001019 0.000000 0.002121 0.000805 0.000000 
0.001635 0.001364 0.000000 0.001043 0.001507 0.000000 0.000472 0.001895 0.000000 -0.000507 0.002603 0.000000 -0.001785 0.003518 0.000000 -0.003676 0.004722 0.000000 -0.006158 0.006065 0.000000 -0.009394 0.007633 0.000000 -0.013449 0.009240 0.000000 -0.018299 0.010972 0.000000 -0.024097 0.012603 0.000000 -0.030599 0.014222 0.000000 -0.038035 0.015567 0.000000 -0.045914 0.016724 0.000000 -0.054537 0.017413 0.000000 -0.063145 0.017720 0.000000 -0.072107 0.017375 0.000000 -0.080410 0.016471 0.000000 -0.088491 0.014798 0.000000 -0.095149 0.012460 0.000000 -0.100900 0.009364 0.000000 -0.104481 0.005629 0.000000 -0.106513 0.001318 0.000000 -0.105819 -0.003448 0.000000 -0.103147 -0.008465 0.000000 -0.097530 -0.013620 0.000000 -0.089843 -0.018634 0.000000 -0.079355 -0.023408 0.000000 -0.067040 -0.027652 0.000000 -0.052378 -0.031277 0.000000 -0.036466 -0.033997 0.000000 -0.019025 -0.035764 0.000000 -0.001303 -0.036299 0.000000 0.016699 -0.035759 0.000000 0.033825 -0.033919 0.000000 0.049887 -0.031251 0.000000 0.064243 -0.027543 0.000000 0.076541 -0.023441 0.000000 0.086840 -0.018703 0.000000 0.094517 -0.013936 0.000000 0.100233 -0.008963 0.000000 0.103121 -0.004211 0.000000 0.104253 0.000332 0.000000 0.102728 0.004477 0.000000 0.099809 0.008072 0.000000 0.094748 0.011151 0.000000 0.088792 0.013490 0.000000 0.081418 0.015269 0.000000 0.073706 0.016296 0.000000 0.065323 0.016801 0.000000 0.057127 0.016683 0.000000 0.048882 0.016146 0.000000 0.041244 0.015185 0.000000 0.033979 0.013947 0.000000 0.027598 0.012493 0.000000 0.021800 0.010914 0.000000 0.017011 0.009298 0.000000 0.012837 0.007696 0.000000 0.009655 0.006194 0.000000 0.006987 0.004824 0.000000 0.005175 0.003643 0.000000 0.003688 0.002687 0.000000 0.002832 0.001970 0.000000 0.002063 0.001539 0.000000 
0.001524 0.001738 0.000000 0.001166 0.001955 0.000000 0.000849 0.002535 0.000000 0.000107 0.003596 0.000000 -0.000916 0.004965 0.000000 -0.002571 0.006769 0.000000 -0.004802 0.008783 0.000000 -0.007810 0.011136 0.000000 -0.011629 0.013551 0.000000 -0.016274 0.016153 0.000000 -0.021872 0.018614 0.000000 -0.028210 0.021051 0.000000 -0.035511 0.023091 0.000000 -0.043292 0.024841 0.000000 -0.051871 0.025904 0.000000 -0.060465 0.026379 0.000000 -0.069489 0.025892 0.000000 -0.077857 0.024544 0.000000 -0.086090 0.022059 0.000000 -0.092853 0.018557 0.000000 -0.098793 0.013941 0.000000 -0.102459 0.008367 0.000000 -0.104639 0.001959 0.000000 -0.103965 -0.005094 0.000000 -0.101355 -0.012494 0.000000 -0.095703 -0.020048 0.000000 -0.088023 -0.027402 0.000000 -0.077519 -0.034394 0.000000 -0.065265 -0.040696 0.000000 -0.050718 -0.046116 0.000000 -0.035004 -0.050280 0.000000 -0.017803 -0.052990 0.000000 -0.000377 -0.053834 0.000000 0.017321 -0.052968 0.000000 0.034110 -0.050104 0.000000 0.049840 -0.045986 0.000000 0.063892 -0.040364 0.000000 0.075889 -0.034253 0.000000 0.085988 -0.027282 0.000000 0.093408 -0.020339 0.000000 0.098999 -0.013095 0.000000 0.101655 -0.006166 0.000000 0.102682 0.000495 0.000000 0.100941 0.006594 0.000000 0.097896 0.011918 0.000000 0.092648 0.016482 0.000000 0.086554 0.019972 0.000000 0.079049 0.022618 0.000000 0.071229 0.024154 0.000000 0.062794 0.024901 0.000000 0.054558 0.024720 0.000000 0.046345 0.023907 0.000000 0.038750 0.022461 0.000000 0.031592 0.020599 0.000000 0.025329 0.018416 0.000000 0.019694 0.016045 0.000000 0.015081 0.013621 0.000000 0.011105 0.011221 0.000000 0.008137 0.008969 0.000000 0.005686 0.006919 0.000000 0.004109 0.005150 0.000000 0.002850 0.003720 0.000000 0.002238 0.002645 0.000000 0.001701 0.002002 0.000000 
0.001638 0.001898 0.000000 0.001646 0.002182 0.000000 0.001699 0.002954 0.000000 0.001329 0.004368 0.000000 0.000677 0.006196 0.000000 -0.000601 0.008608 0.000000 -0.002461 0.011303 0.000000 -0.005095 0.014460 0.000000 -0.008553 0.017704 0.000000 -0.012845 0.021215 0.000000 -0.018112 0.024540 0.000000 -0.024144 0.027861 0.000000 -0.031171 0.030649 0.000000 -0.038721 0.033085 0.000000 -0.047110 0.034586 0.000000 -0.055568 0.035339 0.000000 -0.064490 0.034767 0.000000 -0.072806 0.033072 0.000000 -0.080991 0.029794 0.000000 -0.087738 0.025162 0.000000 -0.093617 0.018970 0.000000 -0.097246 0.011476 0.000000 -0.099321 0.002824 0.000000 -0.098601 -0.006733 0.000000 -0.095940 -0.016727 0.000000 -0.090405 -0.026951 0.000000 -0.082975 -0.036819 0.000000 -0.072995 -0.046167 0.000000 -0.061421 -0.054453 0.000000 -0.047662 -0.061538 0.000000 -0.032727 -0.066912 0.000000 -0.016157 -0.070392 0.000000 0.000646 -0.071423 0.000000 0.017802 -0.070246 0.000000 0.033823 -0.066438 0.000000 0.048705 -0.061033 0.000000 0.061705 -0.053591 0.000000 0.072702 -0.045537 0.000000 0.081921 -0.036222 0.000000 0.088698 -0.026947 0.000000 0.093921 -0.017211 0.000000 0.096380 -0.007894 0.000000 0.097382 0.001046 0.000000 0.095673 0.009264 0.000000 0.092721 0.016365 0.000000 0.087571 0.022493 0.000000 0.081585 0.027089 0.000000 0.074199 0.030594 0.000000 0.066501 0.032551 0.000000 0.058222 0.033472 0.000000 0.050151 0.033132 0.000000 0.042152 0.031954 0.000000 0.034783 0.029939 0.000000 0.027896 0.027368 0.000000 0.021920 0.024391 0.000000 0.016600 0.021162 0.000000 0.012318 0.017886 0.000000 0.008684 0.014641 0.000000 0.006072 0.011612 0.000000 0.003977 0.008852 0.000000 0.002766 0.006480 0.000000 0.001866 0.004559 0.000000 0.001622 0.003118 0.000000 0.001447 0.002253 0.000000 
0.001524 0.001539 0.000000 0.001951 0.001894 0.000000 0.002448 0.002852 0.000000 0.002503 0.004617 0.000000 0.002302 0.006895 0.000000 0.001452 0.009908 0.000000 0.000044 0.013277 0.000000 -0.002169 0.017229 0.000000 -0.005191 0.021300 0.000000 -0.009088 0.025712 0.000000 -0.013966 0.029912 0.000000 -0.019666 0.034110 0.000000 -0.026396 0.037668 0.000000 -0.033720 0.040780 0.000000 -0.041953 0.042751 0.000000 -0.050322 0.043758 0.000000 -0.059260 0.043130 0.000000 -0.067618 0.041044 0.000000 -0.075965 0.036991 0.000000 -0.082814 0.031183 0.000000 -0.088907 0.023449 0.000000 -0.092586 0.014071 0.000000 -0.094798 0.003315 0.000000 -0.094012 -0.008475 0.000000 -0.091337 -0.020690 0.000000 -0.085677 -0.033013 0.000000 -0.078187 -0.044812 0.000000 -0.068181 -0.055949 0.000000 -0.056783 -0.066029 0.000000 -0.043457 -0.074809 0.000000 -0.029190 -0.081785 0.000000 -0.013429 -0.086364 0.000000 0.002431 -0.087793 0.000000 0.018662 -0.086144 0.000000 0.033669 -0.081007 0.000000 0.047648 -0.073868 0.000000 0.059820 -0.064361 0.000000 0.070148 -0.054470 0.000000 0.078950 -0.043278 0.000000 0.085279 -0.032338 0.000000 0.090338 -0.020777 0.000000 0.092474 -0.009628 0.000000 0.093412 0.001201 0.000000 0.091446 0.011255 0.000000 0.088392 0.020021 0.000000 0.083043 0.027619 0.000000 0.076914 0.033343 0.000000 0.069417 0.037702 0.000000 0.061613 0.040131 0.000000 0.053344 0.041251 0.000000 0.045276 0.040790 0.000000 0.037414 0.039275 0.000000 0.030184 0.036717 0.000000 0.023543 0.033463 0.000000 0.017828 0.029712 0.000000 0.012835 0.025647 0.000000 0.008901 0.021536 0.000000 0.005643 0.017467 0.000000 0.003432 0.013676 0.000000 0.001735 0.010226 0.000000 0.000951 0.007261 0.000000 0.000461 0.004864 0.000000 0.000653 0.003064 0.000000 0.000892 0.001985 0.000000 
0.001642 0.000840 0.000000 0.002595 0.001258 0.000000 0.003631 0.002402 0.000000 0.004224 0.004514 0.000000 0.004570 0.007247 0.000000 0.004271 0.010867 0.000000 0.003416 0.014924 0.000000 0.001759 0.019694 0.000000 -0.000718 0.024623 0.000000 -0.004080 0.029989 0.000000 -0.008449 0.035118 0.000000 -0.013673 0.040291 0.000000 -0.019975 0.044703 0.000000 -0.026927 0.048642 0.000000 -0.034857 0.051188 0.000000 -0.042990 0.052646 0.000000 -0.051758 0.052063 0.000000 -0.059992 0.049777 0.000000 -0.068229 0.044990 0.000000 -0.074958 0.038104 0.000000 -0.080843 0.028742 0.000000 -0.084258 0.017366 0.000000 -0.086050 0.004250 0.000000 -0.084847 -0.010193 0.000000 -0.081722 -0.025063 0.000000 -0.075877 -0.040102 0.000000 -0.068579 -0.054314 0.000000 -0.059485 -0.067570 0.000000 -0.049487 -0.079176 0.000000 -0.037879 -0.089132 0.000000 -0.025233 -0.096940 0.000000 -0.010623 -0.102013 0.000000 0.004277 -0.103513 0.000000 0.019758 -0.101484 0.000000 0.033470 -0.095425 0.000000 0.045823 -0.087184 0.000000 0.055869 -0.076091 0.000000 0.064167 -0.064667 0.000000 0.071373 -0.051354 0.000000 0.076722 -0.038335 0.000000 0.081523 -0.024405 0.000000 0.083678 -0.010968 0.000000 0.084933 0.002074 0.000000 0.083274 0.014283 0.000000 0.080569 0.024769 0.000000 0.075482 0.033972 0.000000 0.069590 0.040715 0.000000 0.062304 0.045894 0.000000 0.054687 0.048624 0.000000 0.046654 0.049809 0.000000 0.038815 0.049062 0.000000 0.031266 0.047046 0.000000 0.024357 0.043809 0.000000 0.018115 0.039724 0.000000 0.012814 0.035100 0.000000 0.008284 0.030089 0.000000 0.004835 0.025078 0.000000 0.002077 0.020110 0.000000 0.000388 0.015520 0.000000 -0.000793 0.011333 0.000000 -0.001042 0.007755 0.000000 -0.001014 0.004856 0.000000 -0.000284 0.002687 0.000000 0.000475 0.001382 0.000000 
0.001524 -0.000581 0.000000 0.003039 -0.000095 0.000000 0.004672 0.001223 0.000000 0.005840 0.003678 0.000000 0.006797 0.006848 0.000000 0.007088 0.011062 0.000000 0.006858 0.015789 0.000000 0.005799 0.021362 0.000000 0.003949 0.027139 0.000000 0.001167 0.033443 0.000000 -0.002609 0.039505 0.000000 -0.007316 0.045636 0.000000 -0.013119 0.050923 0.000000 -0.019678 0.055662 0.000000 -0.027280 0.058814 0.000000 -0.035197 0.060660 0.000000 -0.043865 0.060133 0.000000 -0.052061 0.057516 0.000000 -0.060407 0.051956 0.000000 -0.067165 0.043798 0.000000 -0.073236 0.032749 0.000000 -0.076568 0.019278 0.000000 -0.078437 0.003904 0.000000 -0.076962 -0.012804 0.000000 -0.073648 -0.029660 0.000000 -0.067473 -0.046155 0.000000 -0.059820 -0.061204 0.000000 -0.050359 -0.075041 0.000000 -0.040381 -0.087635 0.000000 -0.029596 -0.099063 0.000000 -0.018391 -0.109041 0.000000 -0.005665 -0.115874 0.000000 0.007058 -0.118175 0.000000 0.020466 -0.115338 0.000000 0.031971 -0.107072 0.000000 0.042574 -0.096266 0.000000 0.051155 -0.082705 0.000000 0.058625 -0.069974 0.000000 0.065538 -0.055833 0.000000 0.070471 -0.042489 0.000000 0.075280 -0.027733 0.000000 0.077099 -0.013038 0.000000 0.078484 0.001605 0.000000 0.076569 0.015619 0.000000 0.073844 0.027813 0.000000 0.068585 0.038598 0.000000 0.062544 0.046522 0.000000 0.055215 0.052605 0.000000 0.047490 0.055781 0.000000 0.039575 0.057123 0.000000 0.031791 0.056178 0.000000 0.024519 0.053733 0.000000 0.017859 0.049868 0.000000 0.012022 0.045005 0.000000 0.007134 0.039542 0.000000 0.003094 0.033626 0.000000 0.000164 0.027744 0.000000 -0.002058 0.021914 0.000000 -0.003173 0.016546 0.000000 -0.003801 0.011655 0.000000 -0.003457 0.007481 0.000000 -0.002873 0.004106 0.000000 -0.001551 0.001575 0.000000 -0.000236 0.000059 0.000000 
0.001644 -0.002434 0.000000 0.003793 -0.001890 0.000000 0.006080 -0.000399 0.000000 0.007903 0.002390 0.000000 0.009532 0.005999 0.000000 0.010508 0.010805 0.000000 0.010974 0.016213 0.000000 0.010623 0.022603 0.000000 0.009482 0.029255 0.000000 0.007408 0.036548 0.000000 0.004320 0.043601 0.000000 0.000274 0.050801 0.000000 -0.004921 0.057064 0.000000 -0.010932 0.062802 0.000000 -0.018080 0.066708 0.000000 -0.025621 0.069232 0.000000 -0.034024 0.068927 0.000000 -0.041995 0.066319 0.000000 -0.050158 0.060094 0.000000 -0.056657 0.050933 0.000000 -0.062316 0.038144 0.000000 -0.065036 0.022567 0.000000 -0.065935 0.004644 0.000000 -0.063329 -0.014982 0.000000 -0.058636 -0.034552 0.000000 -0.051314 -0.053930 0.000000 -0.043393 -0.071428 0.000000 -0.035545 -0.087009 0.000000 -0.028520 -0.099939 0.000000 -0.021525 -0.111122 0.000000 -0.013561 -0.120871 0.000000 -0.002528 -0.127461 0.000000 0.009439 -0.129645 0.000000 0.022678 -0.126397 0.000000 0.032612 -0.117532 0.000000 0.040469 -0.106368 0.000000 0.044907 -0.092142 0.000000 0.048356 -0.079050 0.000000 0.052517 -0.063200 0.000000 0.056353 -0.048077 0.000000 0.061781 -0.031033 0.000000 0.064455 -0.014171 0.000000 0.066939 0.002604 0.000000 0.065858 0.018922 0.000000 0.063849 0.032753 0.000000 0.059038 0.045271 0.000000 0.053338 0.054085 0.000000 0.046283 0.060949 0.000000 0.038771 0.064264 0.000000 0.031161 0.065508 0.000000 0.023651 0.064118 0.000000 0.016797 0.060977 0.000000 0.010546 0.056306 0.000000 0.005236 0.050450 0.000000 0.000886 0.044028 0.000000 -0.002555 0.037058 0.000000 -0.004862 0.030230 0.000000 -0.006454 0.023447 0.000000 -0.006909 0.017263 0.000000 -0.006903 0.011617 0.000000 -0.005894 0.006827 0.000000 -0.004682 0.002950 0.000000 -0.002704 0.000049 0.000000 -0.000764 -0.001693 0.000000 
0.001522 -0.005138 0.000000 0.004309 -0.004531 0.000000 0.007279 -0.002887 0.000000 0.009764 0.000226 0.000000 0.012102 0.004243 0.000000 0.013776 0.009620 0.000000 0.014992 0.015674 0.000000 0.015375 0.022854 0.000000 0.015025 0.030354 0.000000 0.013700 0.038605 0.000000 0.011415 0.046639 0.000000 0.008087 0.054877 0.000000 0.003637 0.062129 0.000000 -0.001768 0.068821 0.000000 -0.008340 0.073503 0.000000 -0.015488 0.076604 0.000000 -0.023608 0.076507 0.000000 -0.031446 0.073650 0.000000 -0.039646 0.066618 0.000000 -0.046124 0.055955 0.000000 -0.051993 0.041128 0.000000 -0.054501 0.022897 0.000000 -0.055612 0.002197 0.000000 -0.052589 -0.020103 0.000000 -0.047778 -0.041675 0.000000 -0.040335 -0.061397 0.000000 -0.031581 -0.076973 0.000000 -0.021848 -0.089915 0.000000 -0.013245 -0.101655 0.000000 -0.006901 -0.114021 0.000000 -0.001319 -0.128038 0.000000 0.005809 -0.138875 0.000000 0.013016 -0.143381 0.000000 0.021772 -0.138511 0.000000 0.027272 -0.124863 0.000000 0.032409 -0.108561 0.000000 0.035299 -0.090592 0.000000 0.039274 -0.077584 0.000000 0.044790 -0.063830 0.000000 0.048771 -0.051753 0.000000 0.054420 -0.035835 0.000000 0.056465 -0.018196 0.000000 0.059258 0.000202 0.000000 0.057697 0.018709 0.000000 0.055583 0.034633 0.000000 0.050496 0.049109 0.000000 0.044437 0.059277 0.000000 0.037366 0.067173 0.000000 0.029631 0.070902 0.000000 0.022262 0.072243 0.000000 0.014833 0.070543 0.000000 0.008421 0.066837 0.000000 0.002545 0.061428 0.000000 -0.002189 0.054665 0.000000 -0.005962 0.047333 0.000000 -0.008759 0.039374 0.000000 -0.010381 0.031643 0.000000 -0.011310 0.023961 0.000000 -0.011045 0.016995 0.000000 -0.010382 0.010640 0.000000 -0.008661 0.005261 0.000000 -0.006807 0.000916 0.000000 -0.004137 -0.002343 0.000000 -0.001564 -0.004289 0.000000 
0.001644 -0.008307 0.000000 0.005089 -0.007647 0.000000 0.008746 -0.005854 0.000000 0.011925 -0.002433 0.000000 0.014982 0.001987 0.000000 0.017406 0.007915 0.000000 0.019394 0.014614 0.000000 0.020587 0.022571 0.000000 0.021065 0.030930 0.000000 0.020594 0.040158 0.000000 0.019164 0.049214 0.000000 0.016681 0.058579 0.000000 0.013037 0.066919 0.000000 0.008372 0.074779 0.000000 0.002422 0.080428 0.000000 -0.004221 0.084500 0.000000 -0.012043 0.084885 0.000000 -0.019664 0.082357 0.000000 -0.027816 0.074772 0.000000 -0.034100 0.063280 0.000000 -0.039590 0.046521 0.000000 -0.041280 0.026186 0.000000 -0.040815 0.002732 0.000000 -0.035744 -0.022816 0.000000 -0.027655 -0.046806 0.000000 -0.016064 -0.070126 0.000000 -0.005136 -0.089915 0.000000 0.001568 -0.105345 0.000000 0.003540 -0.114887 0.000000 0.001267 -0.123049 0.000000 0.000456 -0.133581 0.000000 0.005937 -0.141797 0.000000 0.014644 -0.145607 0.000000 0.026404 -0.140652 0.000000 0.031335 -0.128170 0.000000 0.032295 -0.114395 0.000000 0.026993 -0.099007 0.000000 0.022597 -0.088542 0.000000 0.023262 -0.072698 0.000000 0.027180 -0.057707 0.000000 0.036837 -0.038726 0.000000 0.042011 -0.019009 0.000000 0.047088 0.001372 0.000000 0.046913 0.022597 0.000000 0.045642 0.039954 0.000000 0.040810 0.056416 0.000000 0.034833 0.067215 0.000000 0.027809 0.075755 0.000000 0.020060 0.079368 0.000000 0.012933 0.080306 0.000000 0.005701 0.077959 0.000000 -0.000227 0.073266 0.000000 -0.005646 0.066916 0.000000 -0.009738 0.058956 0.000000 -0.012864 0.050598 0.000000 -0.014954 0.041478 0.000000 -0.015838 0.032781 0.000000 -0.016055 0.024111 0.000000 -0.015035 0.016334 0.000000 -0.013684 0.009232 0.000000 -0.011229 0.003253 0.000000 -0.008716 -0.001574 0.000000 -0.005344 -0.005194 0.000000 -0.002124 -0.007351 0.000000 
0.001519 -0.012351 0.000000 0.005583 -0.011632 0.000000 0.009907 -0.009723 0.000000 0.013742 -0.006010 0.000000 0.017509 -0.001238 0.000000 0.020652 0.005208 0.000000 0.023429 0.012493 0.000000 0.025420 0.021183 0.000000 0.026787 0.030348 0.000000 0.027187 0.040506 0.000000 0.026739 0.050552 0.000000 0.025158 0.061003 0.000000 0.022519 0.070437 0.000000 0.018678 0.079436 0.000000 0.013583 0.086096 0.000000 0.007486 0.091069 0.000000 0.000114 0.091950 0.000000 -0.007422 0.089424 0.000000 -0.015634 0.081054 0.000000 -0.022050 0.067729 0.000000 -0.027804 0.048308 0.000000 -0.029014 0.024122 0.000000 -0.029140 -0.003339 0.000000 -0.023145 -0.033264 0.000000 -0.015937 -0.061355 0.000000 -0.007492 -0.083916 0.000000 0.003457 -0.094604 0.000000 0.017211 -0.098591 0.000000 0.028370 -0.101355 0.000000 0.029421 -0.110937 0.000000 0.026257 -0.132707 0.000000 0.022966 -0.153063 0.000000 0.018718 -0.163849 0.000000 0.017717 -0.155201 0.000000 0.012075 -0.130753 0.000000 0.009560 -0.104220 0.000000 0.006210 -0.080894 0.000000 0.010555 -0.073852 0.000000 0.019640 -0.068413 0.000000 0.024482 -0.065329 0.000000 0.032527 -0.050666 0.000000 0.035132 -0.028447 0.000000 0.040776 -0.004700 0.000000 0.039640 0.020156 0.000000 0.037911 0.040735 0.000000 0.032546 0.059917 0.000000 0.025493 0.072278 0.000000 0.018347 0.081946 0.000000 0.009944 0.085778 0.000000 0.003095 0.086602 0.000000 -0.004139 0.083703 0.000000 -0.009502 0.078184 0.000000 -0.014431 0.070939 0.000000 -0.017807 0.061884 0.000000 -0.020182 0.052549 0.000000 -0.021517 0.042348 0.000000 -0.021568 0.032745 0.000000 -0.021056 0.023158 0.000000 -0.019219 0.014624 0.000000 -0.017187 0.006835 0.000000 -0.013973 0.000292 0.000000 -0.010821 -0.004969 0.000000 -0.006749 -0.008936 0.000000 -0.002915 -0.011277 0.000000 
0.001639 -0.016805 0.000000 0.006274 -0.016036 0.000000 0.011202 -0.014013 0.000000 0.015661 -0.010035 0.000000 0.020081 -0.004923 0.000000 0.023938 0.001994 0.000000 0.027459 0.009846 0.000000 0.030273 0.019212 0.000000 0.032501 0.029164 0.000000 0.033828 0.040207 0.000000 0.034345 0.051243 0.000000 0.033739 0.062799 0.000000 0.032070 0.073399 0.000000 0.029098 0.083715 0.000000 0.024727 0.091620 0.000000 0.019117 0.097968 0.000000 0.011840 0.099793 0.000000 0.004168 0.098106 0.000000 -0.004656 0.089400 0.000000 -0.011353 0.075450 0.000000 -0.017178 0.053486 0.000000 -0.017276 0.027522 0.000000 -0.014904 -0.003137 0.000000 -0.006218 -0.036019 0.000000 0.008852 -0.062460 0.000000 0.032586 -0.089520 0.000000 0.052978 -0.114617 0.000000 0.058739 -0.130258 0.000000 0.052544 -0.127097 0.000000 0.033659 -0.120935 0.000000 0.018213 -0.127125 0.000000 0.014421 -0.134257 0.000000 0.016843 -0.140358 0.000000 0.025326 -0.134010 0.000000 0.021964 -0.120013 0.000000 0.013426 -0.108529 0.000000 -0.006427 -0.100002 0.000000 -0.021519 -0.101972 0.000000 -0.023369 -0.086625 0.000000 -0.013489 -0.070593 0.000000 0.010828 -0.049376 0.000000 0.023056 -0.027257 0.000000 0.032052 -0.003136 0.000000 0.032795 0.025463 0.000000 0.031898 0.047048 0.000000 0.026020 0.068834 0.000000 0.018244 0.081414 0.000000 0.010441 0.091304 0.000000 0.001302 0.094620 0.000000 -0.005646 0.094389 0.000000 -0.013041 0.090556 0.000000 -0.017986 0.083558 0.000000 -0.022520 0.075221 0.000000 -0.025205 0.064708 0.000000 -0.026868 0.054308 0.000000 -0.027449 0.042863 0.000000 -0.026688 0.032319 0.000000 -0.025466 0.021762 0.000000 -0.022842 0.012466 0.000000 -0.020169 0.003986 0.000000 -0.016241 -0.003113 0.000000 -0.012505 -0.008798 0.000000 -0.007789 -0.013100 0.000000 -0.003397 -0.015619 0.000000 
0.001514 -0.022021 0.000000 0.006625 -0.021195 0.000000 0.012071 -0.019111 0.000000 0.017058 -0.014889 0.000000 0.022052 -0.009514 0.000000 0.026528 -0.002170 0.000000 0.030740 0.006157 0.000000 0.034298 0.016140 0.000000 0.037385 0.026793 0.000000 0.039589 0.038662 0.000000 0.041152 0.050641 0.000000 0.041513 0.063279 0.000000 0.041003 0.075078 0.000000 0.038938 0.086779 0.000000 0.035581 0.096077 0.000000 0.030477 0.103956 0.000000 0.023638 0.106899 0.000000 0.015670 0.105919 0.000000 0.006708 0.096575 0.000000 -0.000372 0.080251 0.000000 -0.005054 0.054231 0.000000 -0.002156 0.021847 0.000000 0.001920 -0.014397 0.000000 0.019044 -0.057020 0.000000 0.032313 -0.100160 0.000000 0.035091 -0.128042 0.000000 0.041767 -0.120757 0.000000 0.067305 -0.098157 0.000000 0.101766 -0.076274 0.000000 0.112592 -0.076606 0.000000 0.104046 -0.113468 0.000000 0.073276 -0.151693 0.000000 0.024248 -0.174755 0.000000 -0.022742 -0.160322 0.000000 -0.062910 -0.118853 0.000000 -0.075063 -0.075829 0.000000 -0.069325 -0.045949 0.000000 -0.035030 -0.056909 0.000000 -0.004588 -0.076442 0.000000 -0.001302 -0.099527 0.000000 0.003958 -0.087211 0.000000 0.006915 -0.049671 0.000000 0.021998 -0.014439 0.000000 0.025116 0.020310 0.000000 0.025199 0.047510 0.000000 0.020106 0.073571 0.000000 0.010379 0.087858 0.000000 0.002655 0.098888 0.000000 -0.007886 0.101865 0.000000 -0.014688 0.100945 0.000000 -0.022359 0.096043 0.000000 -0.026820 0.087663 0.000000 -0.030821 0.078158 0.000000 -0.032790 0.066231 0.000000 -0.033566 0.054794 0.000000 -0.033395 0.042168 0.000000 -0.031704 0.030761 0.000000 -0.029799 0.019312 0.000000 -0.026346 0.009328 0.000000 -0.023086 0.000234 0.000000 -0.018460 -0.007372 0.000000 -0.014213 -0.013421 0.000000 -0.008909 -0.018044 0.000000 -0.004046 -0.020705 0.000000 
0.001624 -0.027475 0.000000 0.007084 -0.026593 0.000000 0.012909 -0.024446 0.000000 0.018316 -0.020016 0.000000 0.023751 -0.014393 0.000000 0.028769 -0.006694 0.000000 0.033547 0.002076 0.000000 0.037806 0.012567 0.000000 0.041635 0.023873 0.000000 0.044696 0.036439 0.000000 0.047177 0.049318 0.000000 0.048464 0.062948 0.000000 0.048911 0.075975 0.000000 0.047597 0.089137 0.000000 0.044853 0.100080 0.000000 0.039882 0.109911 0.000000 0.032633 0.114600 0.000000 0.023791 0.115036 0.000000 0.013169 0.105442 0.000000 0.005696 0.087211 0.000000 0.001628 0.055269 0.000000 0.010511 0.020548 0.000000 0.021711 -0.024336 0.000000 0.037260 -0.066413 0.000000 0.069532 -0.078507 0.000000 0.136604 -0.098974 0.000000 0.178370 -0.146832 0.000000 0.162784 -0.190257 0.000000 0.144922 -0.172384 0.000000 0.128730 -0.123215 0.000000 0.109216 -0.087809 0.000000 0.069744 -0.054460 0.000000 0.017645 -0.044340 0.000000 -0.036095 -0.046851 0.000000 -0.079777 -0.067692 0.000000 -0.101201 -0.102114 0.000000 -0.112680 -0.140035 0.000000 -0.113671 -0.166710 0.000000 -0.126834 -0.120353 0.000000 -0.104737 -0.079139 0.000000 -0.039166 -0.057592 0.000000 -0.004411 -0.045297 0.000000 0.010551 -0.021338 0.000000 0.017524 0.022261 0.000000 0.022699 0.052058 0.000000 0.018082 0.083654 0.000000 0.007837 0.098865 0.000000 -0.000728 0.109569 0.000000 -0.013019 0.111963 0.000000 -0.020434 0.108862 0.000000 -0.029036 0.102687 0.000000 -0.033385 0.092020 0.000000 -0.037272 0.081191 0.000000 -0.038682 0.067453 0.000000 -0.038776 0.054912 0.000000 -0.037954 0.041000 0.000000 -0.035455 0.028724 0.000000 -0.032982 0.016404 0.000000 -0.028808 0.005752 0.000000 -0.025094 -0.003900 0.000000 -0.019891 -0.011986 0.000000 -0.015274 -0.018349 0.000000 -0.009516 -0.023268 0.000000 -0.004320 -0.026042 0.000000 
0.001505 -0.033425 0.000000 0.007161 -0.032480 0.000000 0.013200 -0.030343 0.000000 0.018866 -0.025731 0.000000 0.024574 -0.019967 0.000000 0.029967 -0.011967 0.000000 0.035155 -0.002879 0.000000 0.039938 0.008052 0.000000 0.044381 0.019902 0.000000 0.048110 0.033120 0.000000 0.051428 0.046873 0.000000 0.053432 0.061545 0.000000 0.054829 0.075946 0.000000 0.054075 0.090837 0.000000 0.052077 0.103793 0.000000 0.047204 0.116176 0.000000 0.040049 0.122989 0.000000 0.030461 0.125383 0.000000 0.019981 0.114671 0.000000 0.012565 0.091791 0.000000 0.017879 0.049416 0.000000 0.038710 0.001765 0.000000 0.071499 -0.041146 0.000000 0.150499 -0.104840 0.000000 0.190850 -0.199504 0.000000 0.179070 -0.236880 0.000000 0.114285 -0.146938 0.000000 0.006305 -0.064708 0.000000 -0.056187 -0.042220 0.000000 -0.090913 -0.040900 0.000000 -0.091914 -0.054483 0.000000 -0.069284 -0.060122 0.000000 -0.019900 -0.068915 0.000000 0.033017 -0.062900 0.000000 0.070173 -0.053747 0.000000 0.084060 -0.042927 0.000000 0.067564 -0.033480 0.000000 0.027791 -0.042755 0.000000 -0.046097 -0.085376 0.000000 -0.110116 -0.187195 0.000000 -0.134902 -0.187537 0.000000 -0.114826 -0.099388 0.000000 -0.046489 -0.036373 0.000000 -0.006302 0.008163 0.000000 0.007967 0.046953 0.000000 0.012675 0.088434 0.000000 0.001721 0.106667 0.000000 -0.004368 0.119743 0.000000 -0.018250 0.121570 0.000000 -0.025825 0.116962 0.000000 -0.035073 0.108994 0.000000 -0.039528 0.095899 0.000000 -0.043014 0.083454 0.000000 -0.044075 0.067736 0.000000 -0.043286 0.054066 0.000000 -0.041954 0.038846 0.000000 -0.038557 0.025790 0.000000 -0.035633 0.012666 0.000000 -0.030749 0.001440 0.000000 -0.026700 -0.008684 0.000000 -0.021001 -0.017192 0.000000 -0.016145 -0.023796 0.000000 -0.010058 -0.028998 0.000000 -0.004672 -0.031844 0.000000 