# vtk DataFile Version 2.0
Comment goes here
ASCII

DATASET STRUCTURED_POINTS
FIELD FieldData 1
TIME 1 1 double
1.82000000
DIMENSIONS    64   64   1

ORIGIN    0.000   0.000   0.000
SPACING   0.015625 0.015625   1.000

POINT_DATA   4096
VECTORS u double

0.001382 0.000000 0.000000 0.002533 -0.000000 0.000000 0.003871 -0.000000 0.000000 0.004686 -0.000000 0.000000 0.005412 -0.000000 0.000000 0.005402 -0.000000 0.000000 0.005050 -0.000000 0.000000 0.003809 -0.000000 0.000000 0.002018 -0.000000 0.000000 -0.000722 -0.000000 0.000000 -0.004145 -0.000000 0.000000 -0.008454 -0.000000 0.000000 -0.013475 -0.000000 0.000000 -0.019163 -0.000000 0.000000 -0.025464 -0.000000 0.000000 -0.032043 -0.000000 0.000000 -0.038992 -0.000000 0.000000 -0.045667 -0.000000 0.000000 -0.052340 -0.000000 0.000000 -0.058081 -0.000000 0.000000 -0.063360 -0.000000 0.000000 -0.067046 -0.000000 0.000000 -0.069801 -0.000000 0.000000 -0.070438 0.000000 0.000000 -0.069756 0.000000 0.000000 -0.066696 0.000000 0.000000 -0.062101 0.000000 0.000000 -0.055212 0.000000 0.000000 -0.046822 0.000000 0.000000 -0.036569 0.000000 0.000000 -0.025193 0.000000 0.000000 -0.012729 0.000000 0.000000 0.000072 0.000000 0.000000 0.012931 0.000000 0.000000 0.025128 0.000000 0.000000 0.036419 0.000000 0.000000 0.046249 0.000000 0.000000 0.054586 0.000000 0.000000 0.061084 0.000000 0.000000 0.065888 0.000000 0.000000 0.068812 0.000000 0.000000 0.070084 0.000000 0.000000 0.069647 0.000000 0.000000 0.067751 0.000000 0.000000 0.064498 0.000000 0.000000 0.060105 0.000000 0.000000 0.054855 0.000000 0.000000 0.048876 0.000000 0.000000 0.042609 0.000000 0.000000 0.036048 0.000000 0.000000 0.029732 0.000000 0.000000 0.023504 0.000000 0.000000 0.017940 0.000000 0.000000 0.012731 0.000000 0.000000 0.008456 0.000000 0.000000 0.004666 0.000000 0.000000 0.001928 0.000000 0.000000 -0.000322 0.000000 0.000000 -0.001538 0.000000 0.000000 -0.002370 0.000000 0.000000 -0.002290 0.000000 0.000000 -0.002007 0.000000 0.000000 -0.001013 0.000000 0.000000 -0.000046 0.000000 0.000000 
0.001190 -0.001290 0.000000 0.002370 -0.001244 0.000000 0.003749 -0.001076 0.000000 0.004593 -0.000771 0.000000 0.005363 -0.000358 0.000000 0.005380 0.000181 0.000000 0.005072 0.000797 0.000000 0.003853 0.001516 0.000000 0.002101 0.002266 0.000000 -0.000624 0.003081 0.000000 -0.004020 0.003866 0.000000 -0.008324 0.004665 0.000000 -0.013340 0.005355 0.000000 -0.019038 0.005995 0.000000 -0.025366 0.006440 0.000000 -0.031968 0.006764 0.000000 -0.038985 0.006812 0.000000 -0.045697 0.006674 0.000000 -0.052477 0.006207 0.000000 -0.058262 0.005510 0.000000 -0.063672 0.004483 0.000000 -0.067397 0.003221 0.000000 -0.070272 0.001696 0.000000 -0.070922 -0.000023 0.000000 -0.070303 -0.001871 0.000000 -0.067204 -0.003827 0.000000 -0.062579 -0.005742 0.000000 -0.055587 -0.007640 0.000000 -0.047080 -0.009322 0.000000 -0.036685 -0.010815 0.000000 -0.025156 -0.011920 0.000000 -0.012547 -0.012632 0.000000 0.000410 -0.012830 0.000000 0.013406 -0.012528 0.000000 0.025747 -0.011744 0.000000 0.037159 -0.010560 0.000000 0.047106 -0.009083 0.000000 0.055521 -0.007417 0.000000 0.062080 -0.005651 0.000000 0.066890 -0.003864 0.000000 0.069801 -0.002098 0.000000 0.071003 -0.000417 0.000000 0.070499 0.001166 0.000000 0.068477 0.002574 0.000000 0.065127 0.003823 0.000000 0.060580 0.004821 0.000000 0.055223 0.005614 0.000000 0.049092 0.006123 0.000000 0.042725 0.006414 0.000000 0.036038 0.006438 0.000000 0.029643 0.006272 0.000000 0.023324 0.005896 0.000000 0.017706 0.005387 0.000000 0.012443 0.004742 0.000000 0.008138 0.004032 0.000000 0.004326 0.003264 0.000000 0.001579 0.002494 0.000000 -0.000673 0.001733 0.000000 -0.001880 0.001024 0.000000 -0.002698 0.000376 0.000000 -0.002598 -0.000181 0.000000 -0.002293 -0.000638 0.000000 -0.001269 -0.000980 0.000000 -0.000275 -0.001198 0.000000 
0.001356 -0.002645 0.000000 0.002716 -0.002559 0.000000 0.004270 -0.002223 0.000000 0.005300 -0.001614 0.000000 0.006250 -0.000787 0.000000 0.006461 0.000291 0.000000 0.006340 0.001527 0.000000 0.005326 0.002970 0.000000 0.003771 0.004477 0.000000 0.001256 0.006121 0.000000 -0.001937 0.007700 0.000000 -0.006035 0.009320 0.000000 -0.010848 0.010713 0.000000 -0.016356 0.012026 0.000000 -0.022492 0.012931 0.000000 -0.028937 0.013619 0.000000 -0.035782 0.013729 0.000000 -0.042384 0.013492 0.000000 -0.049024 0.012564 0.000000 -0.054754 0.011195 0.000000 -0.060074 0.009135 0.000000 -0.063808 0.006601 0.000000 -0.066674 0.003525 0.000000 -0.067419 0.000030 0.000000 -0.066914 -0.003718 0.000000 -0.064036 -0.007723 0.000000 -0.059691 -0.011617 0.000000 -0.053077 -0.015499 0.000000 -0.044990 -0.018901 0.000000 -0.035057 -0.021925 0.000000 -0.023961 -0.024139 0.000000 -0.011773 -0.025565 0.000000 0.000792 -0.025952 0.000000 0.013378 -0.025337 0.000000 0.025262 -0.023753 0.000000 0.036169 -0.021359 0.000000 0.045560 -0.018362 0.000000 0.053447 -0.014974 0.000000 0.059518 -0.011368 0.000000 0.063961 -0.007721 0.000000 0.066591 -0.004113 0.000000 0.067652 -0.000698 0.000000 0.067057 0.002526 0.000000 0.065062 0.005372 0.000000 0.061738 0.007897 0.000000 0.057304 0.009905 0.000000 0.052034 0.011488 0.000000 0.046055 0.012498 0.000000 0.039817 0.013054 0.000000 0.033306 0.013082 0.000000 0.027074 0.012714 0.000000 0.020950 0.011936 0.000000 0.015523 0.010881 0.000000 0.010466 0.009568 0.000000 0.006366 0.008118 0.000000 0.002763 0.006560 0.000000 0.000224 0.004998 0.000000 -0.001823 0.003459 0.000000 -0.002828 0.002026 0.000000 -0.003451 0.000718 0.000000 -0.003158 -0.000405 0.000000 -0.002667 -0.001329 0.000000 -0.001461 -0.002018 0.000000 -0.000286 -0.002459 0.000000 
0.001131 -0.004291 0.000000 0.002727 -0.004159 0.000000 0.004537 -0.003660 0.000000 0.005807 -0.002750 0.000000 0.007023 -0.001520 0.000000 0.007480 0.000090 0.000000 0.007635 0.001932 0.000000 0.006868 0.004085 0.000000 0.005591 0.006336 0.000000 0.003314 0.008790 0.000000 0.000384 0.011156 0.000000 -0.003498 0.013576 0.000000 -0.008090 0.015676 0.000000 -0.013426 0.017639 0.000000 -0.019415 0.019021 0.000000 -0.025750 0.020054 0.000000 -0.032552 0.020259 0.000000 -0.039114 0.019916 0.000000 -0.045831 0.018576 0.000000 -0.051589 0.016560 0.000000 -0.057095 0.013537 0.000000 -0.060915 0.009821 0.000000 -0.064035 0.005306 0.000000 -0.064903 0.000217 0.000000 -0.064650 -0.005254 0.000000 -0.061910 -0.011051 0.000000 -0.057765 -0.016701 0.000000 -0.051292 -0.022340 0.000000 -0.043352 -0.027342 0.000000 -0.033586 -0.031844 0.000000 -0.022620 -0.035204 0.000000 -0.010601 -0.037385 0.000000 0.001838 -0.037980 0.000000 0.014239 -0.036998 0.000000 0.025925 -0.034535 0.000000 0.036566 -0.030859 0.000000 0.045656 -0.026362 0.000000 0.053211 -0.021375 0.000000 0.058950 -0.016164 0.000000 0.063063 -0.010937 0.000000 0.065397 -0.005789 0.000000 0.066188 -0.000883 0.000000 0.065369 0.003756 0.000000 0.063143 0.007893 0.000000 0.059647 0.011581 0.000000 0.055003 0.014525 0.000000 0.049601 0.016863 0.000000 0.043458 0.018340 0.000000 0.037144 0.019164 0.000000 0.030550 0.019181 0.000000 0.024319 0.018628 0.000000 0.018210 0.017448 0.000000 0.012863 0.015871 0.000000 0.007909 0.013899 0.000000 0.003955 0.011735 0.000000 0.000518 0.009406 0.000000 -0.001829 0.007080 0.000000 -0.003672 0.004785 0.000000 -0.004459 0.002652 0.000000 -0.004858 0.000706 0.000000 -0.004334 -0.000965 0.000000 -0.003611 -0.002336 0.000000 -0.002166 -0.003362 0.000000 -0.000757 -0.004014 0.000000 
0.001274 -0.006129 0.000000 0.003241 -0.005965 0.000000 0.005424 -0.005303 0.000000 0.007076 -0.004100 0.000000 0.008678 -0.002460 0.000000 0.009535 -0.000321 0.000000 0.010094 0.002140 0.000000 0.009747 0.005015 0.000000 0.008891 0.008030 0.000000 0.007046 0.011327 0.000000 0.004542 0.014512 0.000000 0.001083 0.017794 0.000000 -0.003097 0.020641 0.000000 -0.008049 0.023351 0.000000 -0.013666 0.025255 0.000000 -0.019687 0.026756 0.000000 -0.026180 0.027093 0.000000 -0.032519 0.026771 0.000000 -0.039004 0.025039 0.000000 -0.044635 0.022459 0.000000 -0.050000 0.018461 0.000000 -0.053786 0.013540 0.000000 -0.056888 0.007513 0.000000 -0.057842 0.000646 0.000000 -0.057771 -0.006711 0.000000 -0.055343 -0.014608 0.000000 -0.051711 -0.022235 0.000000 -0.045959 -0.029912 0.000000 -0.038894 -0.036607 0.000000 -0.030104 -0.042657 0.000000 -0.020027 -0.047124 0.000000 -0.008835 -0.050023 0.000000 0.002900 -0.050792 0.000000 0.014544 -0.049425 0.000000 0.025349 -0.046081 0.000000 0.034936 -0.041089 0.000000 0.042836 -0.035008 0.000000 0.049252 -0.028269 0.000000 0.053997 -0.021220 0.000000 0.057395 -0.014169 0.000000 0.059258 -0.007238 0.000000 0.059840 -0.000669 0.000000 0.058922 0.005571 0.000000 0.056778 0.011094 0.000000 0.053349 0.016037 0.000000 0.048876 0.019950 0.000000 0.043603 0.023033 0.000000 0.037658 0.024955 0.000000 0.031529 0.025962 0.000000 0.025180 0.025907 0.000000 0.019210 0.025054 0.000000 0.013408 0.023393 0.000000 0.008394 0.021182 0.000000 0.003800 0.018476 0.000000 0.000229 0.015508 0.000000 -0.002818 0.012344 0.000000 -0.004762 0.009188 0.000000 -0.006207 0.006089 0.000000 -0.006592 0.003212 0.000000 -0.006601 0.000592 0.000000 -0.005686 -0.001652 0.000000 -0.004586 -0.003497 0.000000 -0.002762 -0.004872 0.000000 -0.000984 -0.005755 0.000000 
0.001010 -0.008517 0.000000 0.003396 -0.008309 0.000000 0.006023 -0.007495 0.000000 0.008103 -0.006003 0.000000 0.010171 -0.003978 0.000000 0.011472 -0.001326 0.000000 0.012522 0.001720 0.000000 0.012631 0.005289 0.000000 0.012284 0.009037 0.000000 0.010895 0.013138 0.000000 0.008896 0.017119 0.000000 0.005864 0.021215 0.000000 0.002142 0.024808 0.000000 -0.002442 0.028207 0.000000 -0.007702 0.030659 0.000000 -0.013449 0.032568 0.000000 -0.019737 0.033091 0.000000 -0.025910 0.032740 0.000000 -0.032378 0.030693 0.000000 -0.037940 0.027555 0.000000 -0.043478 0.022688 0.000000 -0.047286 0.016709 0.000000 -0.050710 0.009362 0.000000 -0.051789 0.001100 0.000000 -0.052088 -0.007752 0.000000 -0.049888 -0.017111 0.000000 -0.046622 -0.026085 0.000000 -0.041214 -0.035157 0.000000 -0.034566 -0.043198 0.000000 -0.026402 -0.050711 0.000000 -0.016933 -0.056473 0.000000 -0.006501 -0.060312 0.000000 0.004568 -0.061359 0.000000 0.015447 -0.059447 0.000000 0.025481 -0.054927 0.000000 0.034237 -0.048347 0.000000 0.041294 -0.040677 0.000000 0.046945 -0.032536 0.000000 0.051009 -0.024308 0.000000 0.053827 -0.016199 0.000000 0.055221 -0.008234 0.000000 0.055495 -0.000547 0.000000 0.054348 0.006818 0.000000 0.052003 0.013467 0.000000 0.048448 0.019483 0.000000 0.043776 0.024272 0.000000 0.038403 0.028081 0.000000 0.032301 0.030414 0.000000 0.026142 0.031642 0.000000 0.019762 0.031500 0.000000 0.013884 0.030400 0.000000 0.008213 0.028264 0.000000 0.003421 0.025479 0.000000 -0.000903 0.022064 0.000000 -0.004150 0.018354 0.000000 -0.006836 0.014397 0.000000 -0.008393 0.010469 0.000000 -0.009431 0.006615 0.000000 -0.009399 0.003046 0.000000 -0.008987 -0.000200 0.000000 -0.007646 -0.002981 0.000000 -0.006126 -0.005260 0.000000 -0.003875 -0.006964 0.000000 -0.001680 -0.008051 0.000000 
0.001133 -0.011205 0.000000 0.004038 -0.010979 0.000000 0.007194 -0.010010 0.000000 0.009811 -0.008248 0.000000 0.012431 -0.005829 0.000000 0.014303 -0.002672 0.000000 0.015941 0.000980 0.000000 0.016659 0.005253 0.000000 0.016934 0.009766 0.000000 0.016184 0.014716 0.000000 0.014826 0.019543 0.000000 0.012436 0.024548 0.000000 0.009344 0.028948 0.000000 0.005363 0.033195 0.000000 0.000686 0.036261 0.000000 -0.004538 0.038792 0.000000 -0.010314 0.039554 0.000000 -0.016065 0.039412 0.000000 -0.022085 0.037069 0.000000 -0.027308 0.033559 0.000000 -0.032448 0.027807 0.000000 -0.035965 0.020772 0.000000 -0.039086 0.012016 0.000000 -0.039938 0.002024 0.000000 -0.040179 -0.008611 0.000000 -0.038062 -0.020075 0.000000 -0.035422 -0.030909 0.000000 -0.031204 -0.041968 0.000000 -0.026294 -0.051419 0.000000 -0.020195 -0.060290 0.000000 -0.012584 -0.067025 0.000000 -0.003747 -0.071523 0.000000 0.006146 -0.072740 0.000000 0.015774 -0.070338 0.000000 0.024223 -0.064871 0.000000 0.030934 -0.056902 0.000000 0.035608 -0.047715 0.000000 0.039081 -0.037984 0.000000 0.041491 -0.028102 0.000000 0.043375 -0.018380 0.000000 0.044467 -0.008907 0.000000 0.044876 0.000204 0.000000 0.044013 0.009063 0.000000 0.042172 0.016994 0.000000 0.038985 0.024264 0.000000 0.034740 0.029995 0.000000 0.029658 0.034508 0.000000 0.023876 0.037216 0.000000 0.018010 0.038501 0.000000 0.011972 0.038164 0.000000 0.006480 0.036603 0.000000 0.001242 0.033856 0.000000 -0.003058 0.030298 0.000000 -0.006863 0.026047 0.000000 -0.009547 0.021441 0.000000 -0.011669 0.016588 0.000000 -0.012638 0.011783 0.000000 -0.013105 0.007095 0.000000 -0.012493 0.002768 0.000000 -0.011526 -0.001161 0.000000 -0.009628 -0.004514 0.000000 -0.007576 -0.007268 0.000000 -0.004791 -0.009318 0.000000 -0.002079 -0.010640 0.000000 
0.000823 -0.014633 0.000000 0.004279 -0.014369 0.000000 0.008017 -0.013268 0.000000 0.011203 -0.011241 0.000000 0.014441 -0.008470 0.000000 0.016912 -0.004836 0.000000 0.019218 -0.000636 0.000000 0.020569 0.004295 0.000000 0.021562 0.009512 0.000000 0.021465 0.015246 0.000000 0.020851 0.020866 0.000000 0.019103 0.026697 0.000000 0.016734 0.031881 0.000000 0.013338 0.036865 0.000000 0.009295 0.040560 0.000000 0.004562 0.043569 0.000000 -0.000739 0.044618 0.000000 -0.006090 0.044512 0.000000 -0.011842 0.041936 0.000000 -0.016710 0.037918 0.000000 -0.021819 0.031345 0.000000 -0.025026 0.023346 0.000000 -0.028372 0.013336 0.000000 -0.029097 0.002193 0.000000 -0.029666 -0.009629 0.000000 -0.027691 -0.021868 0.000000 -0.025431 -0.032943 0.000000 -0.021560 -0.044284 0.000000 -0.017254 -0.054206 0.000000 -0.012579 -0.064421 0.000000 -0.006577 -0.072922 0.000000 0.000174 -0.079043 0.000000 0.008153 -0.080880 0.000000 0.015750 -0.077523 0.000000 0.022250 -0.070087 0.000000 0.027135 -0.059732 0.000000 0.030173 -0.048825 0.000000 0.032510 -0.038418 0.000000 0.034104 -0.028603 0.000000 0.035335 -0.019174 0.000000 0.036006 -0.009734 0.000000 0.036456 -0.000094 0.000000 0.035701 0.009522 0.000000 0.034003 0.018495 0.000000 0.031010 0.026915 0.000000 0.026726 0.033600 0.000000 0.021705 0.038945 0.000000 0.015830 0.042061 0.000000 0.010030 0.043546 0.000000 0.004053 0.043031 0.000000 -0.001225 0.041130 0.000000 -0.006179 0.037801 0.000000 -0.010093 0.033584 0.000000 -0.013436 0.028553 0.000000 -0.015611 0.023160 0.000000 -0.017171 0.017488 0.000000 -0.017566 0.011905 0.000000 -0.017438 0.006470 0.000000 -0.016235 0.001467 0.000000 -0.014678 -0.003065 0.000000 -0.012198 -0.006932 0.000000 -0.009575 -0.010097 0.000000 -0.006222 -0.012461 0.000000 -0.002956 -0.013975 0.000000 
0.000927 -0.018439 0.000000 0.004981 -0.018173 0.000000 0.009334 -0.016934 0.000000 0.013146 -0.014673 0.000000 0.017038 -0.011538 0.000000 0.020190 -0.007449 0.000000 0.023209 -0.002677 0.000000 0.025310 0.002909 0.000000 0.027082 0.008871 0.000000 0.027799 0.015427 0.000000 0.028017 0.021904 0.000000 0.027124 0.028665 0.000000 0.025605 0.034713 0.000000 0.023062 0.040633 0.000000 0.019852 0.045037 0.000000 0.015923 0.048826 0.000000 0.011431 0.050206 0.000000 0.006827 0.050515 0.000000 0.001922 0.047689 0.000000 -0.002185 0.043536 0.000000 -0.006316 0.036123 0.000000 -0.008645 0.027325 0.000000 -0.010941 0.016088 0.000000 -0.010604 0.003318 0.000000 -0.010224 -0.010018 0.000000 -0.007176 -0.024310 0.000000 -0.005155 -0.037039 0.000000 -0.003126 -0.050144 0.000000 -0.002392 -0.060400 0.000000 -0.002324 -0.070968 0.000000 -0.000342 -0.079778 0.000000 0.003405 -0.086253 0.000000 0.009777 -0.088317 0.000000 0.015701 -0.084434 0.000000 0.019540 -0.076256 0.000000 0.020436 -0.064826 0.000000 0.018516 -0.053090 0.000000 0.016633 -0.041915 0.000000 0.015693 -0.030927 0.000000 0.016276 -0.020283 0.000000 0.017805 -0.010027 0.000000 0.019610 0.000509 0.000000 0.020199 0.011516 0.000000 0.020070 0.021685 0.000000 0.018134 0.031541 0.000000 0.014799 0.039300 0.000000 0.010378 0.045404 0.000000 0.005017 0.048891 0.000000 -0.000317 0.050279 0.000000 -0.005820 0.049420 0.000000 -0.010539 0.046835 0.000000 -0.014899 0.042724 0.000000 -0.018132 0.037556 0.000000 -0.020782 0.031564 0.000000 -0.022209 0.025176 0.000000 -0.023040 0.018543 0.000000 -0.022683 0.012050 0.000000 -0.021843 0.005764 0.000000 -0.019923 0.000009 0.000000 -0.017698 -0.005198 0.000000 -0.014549 -0.009617 0.000000 -0.011301 -0.013245 0.000000 -0.007321 -0.015938 0.000000 -0.003457 -0.017685 0.000000 
0.000565 -0.023071 0.000000 0.005225 -0.022776 0.000000 0.010218 -0.021434 0.000000 0.014662 -0.018945 0.000000 0.019247 -0.015514 0.000000 0.023083 -0.011007 0.000000 0.026879 -0.005756 0.000000 0.029730 0.000422 0.000000 0.032377 0.007022 0.000000 0.033903 0.014312 0.000000 0.035083 0.021542 0.000000 0.035029 0.029108 0.000000 0.034523 0.035943 0.000000 0.032801 0.042618 0.000000 0.030589 0.047699 0.000000 0.027430 0.051990 0.000000 0.023849 0.053715 0.000000 0.020003 0.054020 0.000000 0.015874 0.050948 0.000000 0.012675 0.046156 0.000000 0.009095 0.037805 0.000000 0.007860 0.027972 0.000000 0.005583 0.015295 0.000000 0.006623 0.001477 0.000000 0.006776 -0.013057 0.000000 0.009678 -0.026937 0.000000 0.011413 -0.036993 0.000000 0.014022 -0.047047 0.000000 0.014994 -0.055008 0.000000 0.012691 -0.066471 0.000000 0.011209 -0.078651 0.000000 0.009944 -0.089161 0.000000 0.011403 -0.093176 0.000000 0.012338 -0.087287 0.000000 0.011722 -0.074821 0.000000 0.009219 -0.058708 0.000000 0.004966 -0.045022 0.000000 0.002592 -0.035595 0.000000 0.001740 -0.028245 0.000000 0.001698 -0.021286 0.000000 0.002792 -0.013069 0.000000 0.005554 -0.002489 0.000000 0.007050 0.009063 0.000000 0.007803 0.020559 0.000000 0.006806 0.032186 0.000000 0.003737 0.041355 0.000000 -0.000313 0.048727 0.000000 -0.005651 0.052756 0.000000 -0.010751 0.054383 0.000000 -0.016020 0.053253 0.000000 -0.020334 0.050209 0.000000 -0.024171 0.045395 0.000000 -0.026808 0.039466 0.000000 -0.028752 0.032630 0.000000 -0.029471 0.025418 0.000000 -0.029533 0.017962 0.000000 -0.028435 0.010708 0.000000 -0.026840 0.003710 0.000000 -0.024198 -0.002678 0.000000 -0.021267 -0.008439 0.000000 -0.017439 -0.013328 0.000000 -0.013541 -0.017325 0.000000 -0.008921 -0.020305 0.000000 -0.004443 -0.022223 0.000000 
0.000650 -0.028107 0.000000 0.005889 -0.027826 0.000000 0.011485 -0.026371 0.000000 0.016549 -0.023702 0.000000 0.021793 -0.019959 0.000000 0.026328 -0.015081 0.000000 0.030874 -0.009324 0.000000 0.034531 -0.002588 0.000000 0.038037 0.004698 0.000000 0.040487 0.012721 0.000000 0.042634 0.020778 0.000000 0.043614 0.029225 0.000000 0.044157 0.036941 0.000000 0.043554 0.044567 0.000000 0.042444 0.050408 0.000000 0.040445 0.055566 0.000000 0.038025 0.057633 0.000000 0.035358 0.058490 0.000000 0.032594 0.055017 0.000000 0.030699 0.050315 0.000000 0.028965 0.040938 0.000000 0.029346 0.030838 0.000000 0.029238 0.017325 0.000000 0.032437 0.002124 0.000000 0.035352 -0.013073 0.000000 0.043006 -0.028947 0.000000 0.046659 -0.041384 0.000000 0.046691 -0.053725 0.000000 0.040155 -0.059069 0.000000 0.027542 -0.067184 0.000000 0.017605 -0.077031 0.000000 0.011312 -0.086447 0.000000 0.011929 -0.090711 0.000000 0.011973 -0.084753 0.000000 0.007602 -0.073137 0.000000 -0.002446 -0.058070 0.000000 -0.017270 -0.046463 0.000000 -0.028018 -0.038689 0.000000 -0.032289 -0.030033 0.000000 -0.030925 -0.021335 0.000000 -0.025225 -0.013883 0.000000 -0.018577 -0.003748 0.000000 -0.014247 0.009267 0.000000 -0.010143 0.021929 0.000000 -0.009130 0.035606 0.000000 -0.010655 0.046419 0.000000 -0.013782 0.054792 0.000000 -0.018480 0.059329 0.000000 -0.022893 0.060647 0.000000 -0.027517 0.059003 0.000000 -0.031005 0.054987 0.000000 -0.034018 0.049198 0.000000 -0.035724 0.042137 0.000000 -0.036767 0.034227 0.000000 -0.036550 0.025957 0.000000 -0.035737 0.017507 0.000000 -0.033763 0.009356 0.000000 -0.031371 0.001527 0.000000 -0.027943 -0.005564 0.000000 -0.024307 -0.011957 0.000000 -0.019783 -0.017344 0.000000 -0.015256 -0.021763 0.000000 -0.010010 -0.025036 0.000000 -0.004950 -0.027170 0.000000 
0.000235 -0.033910 0.000000 0.006028 -0.033611 0.000000 0.012208 -0.032094 0.000000 0.017861 -0.029253 0.000000 0.023758 -0.025293 0.000000 0.028960 -0.020088 0.000000 0.034280 -0.013958 0.000000 0.038708 -0.006740 0.000000 0.043147 0.001066 0.000000 0.046483 0.009715 0.000000 0.049740 0.018415 0.000000 0.051704 0.027584 0.000000 0.053533 0.036003 0.000000 0.053974 0.044332 0.000000 0.054288 0.050808 0.000000 0.053341 0.056409 0.000000 0.052413 0.058802 0.000000 0.050829 0.059451 0.000000 0.049566 0.055606 0.000000 0.049182 0.049785 0.000000 0.048841 0.039158 0.000000 0.051671 0.027699 0.000000 0.051558 0.012204 0.000000 0.056395 -0.004637 0.000000 0.058433 -0.023626 0.000000 0.063229 -0.038244 0.000000 0.064871 -0.040678 0.000000 0.069767 -0.040544 0.000000 0.070315 -0.035859 0.000000 0.057615 -0.043921 0.000000 0.042639 -0.062421 0.000000 0.024972 -0.083485 0.000000 0.011749 -0.093837 0.000000 -0.002173 -0.082960 0.000000 -0.016967 -0.060402 0.000000 -0.031373 -0.033836 0.000000 -0.045260 -0.019450 0.000000 -0.049394 -0.020576 0.000000 -0.048549 -0.025338 0.000000 -0.049834 -0.028351 0.000000 -0.047589 -0.025417 0.000000 -0.038745 -0.013467 0.000000 -0.032327 0.000629 0.000000 -0.026564 0.015443 0.000000 -0.023383 0.032698 0.000000 -0.024502 0.046007 0.000000 -0.027004 0.056553 0.000000 -0.031616 0.061867 0.000000 -0.035605 0.063420 0.000000 -0.039665 0.061365 0.000000 -0.042443 0.056710 0.000000 -0.044528 0.050113 0.000000 -0.045346 0.042214 0.000000 -0.045366 0.033456 0.000000 -0.044231 0.024388 0.000000 -0.042451 0.015176 0.000000 -0.039610 0.006343 0.000000 -0.036364 -0.002110 0.000000 -0.032156 -0.009743 0.000000 -0.027787 -0.016599 0.000000 -0.022578 -0.022379 0.000000 -0.017418 -0.027097 0.000000 -0.011564 -0.030611 0.000000 -0.005935 -0.032884 0.000000 
0.000301 -0.040070 0.000000 0.006530 -0.039799 0.000000 0.013174 -0.038204 0.000000 0.019314 -0.035252 0.000000 0.025747 -0.031057 0.000000 0.031538 -0.025602 0.000000 0.037517 -0.019072 0.000000 0.042679 -0.011456 0.000000 0.047935 -0.003077 0.000000 0.052179 0.006128 0.000000 0.056430 0.015557 0.000000 0.059507 0.025432 0.000000 0.062501 0.034672 0.000000 0.064278 0.043812 0.000000 0.065897 0.051042 0.000000 0.066464 0.057441 0.000000 0.066915 0.060145 0.000000 0.066844 0.061337 0.000000 0.067128 0.056663 0.000000 0.068194 0.051039 0.000000 0.070335 0.038449 0.000000 0.074900 0.028121 0.000000 0.077643 0.012602 0.000000 0.083534 -0.004751 0.000000 0.090541 -0.019907 0.000000 0.111406 -0.035384 0.000000 0.122825 -0.047922 0.000000 0.123065 -0.059170 0.000000 0.106715 -0.046917 0.000000 0.073183 -0.039508 0.000000 0.043443 -0.044388 0.000000 0.019625 -0.055556 0.000000 0.009159 -0.063565 0.000000 -0.002614 -0.056037 0.000000 -0.021074 -0.043936 0.000000 -0.047445 -0.029777 0.000000 -0.081899 -0.028443 0.000000 -0.102981 -0.035400 0.000000 -0.106688 -0.029594 0.000000 -0.098615 -0.022295 0.000000 -0.080674 -0.024972 0.000000 -0.065230 -0.019011 0.000000 -0.057134 -0.002913 0.000000 -0.046037 0.012986 0.000000 -0.040088 0.033544 0.000000 -0.039844 0.050040 0.000000 -0.041523 0.061907 0.000000 -0.045813 0.067929 0.000000 -0.048904 0.068696 0.000000 -0.052089 0.065841 0.000000 -0.053623 0.059849 0.000000 -0.054516 0.052101 0.000000 -0.054077 0.042974 0.000000 -0.052949 0.033112 0.000000 -0.050714 0.023042 0.000000 -0.047965 0.012886 0.000000 -0.044207 0.003270 0.000000 -0.040180 -0.005927 0.000000 -0.035225 -0.014142 0.000000 -0.030232 -0.021535 0.000000 -0.024418 -0.027712 0.000000 -0.018752 -0.032776 0.000000 -0.012395 -0.036520 0.000000 -0.006322 -0.038969 0.000000 
-0.000161 -0.046762 0.000000 0.006436 -0.046485 0.000000 0.013467 -0.044878 0.000000 0.020018 -0.041826 0.000000 0.026915 -0.037517 0.000000 0.033218 -0.031857 0.000000 0.039809 -0.025099 0.000000 0.045624 -0.017158 0.000000 0.051707 -0.008434 0.000000 0.056772 0.001220 0.000000 0.062123 0.011088 0.000000 0.066200 0.021513 0.000000 0.070621 0.031231 0.000000 0.073551 0.040936 0.000000 0.076927 0.048623 0.000000 0.078639 0.055391 0.000000 0.081048 0.058422 0.000000 0.081769 0.059238 0.000000 0.084029 0.054255 0.000000 0.086047 0.046579 0.000000 0.090723 0.032453 0.000000 0.099993 0.020391 0.000000 0.102250 0.003570 0.000000 0.115170 -0.017535 0.000000 0.120347 -0.051497 0.000000 0.120398 -0.070528 0.000000 0.111485 -0.052337 0.000000 0.125707 -0.024434 0.000000 0.147581 0.014023 0.000000 0.141876 0.019351 0.000000 0.118180 -0.008863 0.000000 0.068545 -0.049201 0.000000 0.006324 -0.071598 0.000000 -0.058170 -0.052727 0.000000 -0.105758 -0.015571 0.000000 -0.128016 0.026990 0.000000 -0.128402 0.036086 0.000000 -0.105545 0.004213 0.000000 -0.091291 -0.029704 0.000000 -0.105767 -0.054365 0.000000 -0.111745 -0.058801 0.000000 -0.092527 -0.037006 0.000000 -0.077670 -0.018564 0.000000 -0.065071 -0.001603 0.000000 -0.054952 0.026504 0.000000 -0.054912 0.047442 0.000000 -0.056426 0.062522 0.000000 -0.060774 0.069248 0.000000 -0.063364 0.069696 0.000000 -0.065380 0.066084 0.000000 -0.065761 0.059136 0.000000 -0.065104 0.050568 0.000000 -0.063433 0.040648 0.000000 -0.060923 0.030093 0.000000 -0.057605 0.019404 0.000000 -0.053764 0.008669 0.000000 -0.049109 -0.001442 0.000000 -0.044251 -0.011093 0.000000 -0.038573 -0.019691 0.000000 -0.032955 -0.027406 0.000000 -0.026574 -0.033860 0.000000 -0.020431 -0.039121 0.000000 -0.013628 -0.043041 0.000000 -0.007165 -0.045579 0.000000 
-0.000117 -0.053671 0.000000 0.006632 -0.053427 0.000000 0.013841 -0.051785 0.000000 0.020602 -0.048701 0.000000 0.027759 -0.044257 0.000000 0.034386 -0.038496 0.000000 0.041379 -0.031479 0.000000 0.047678 -0.023353 0.000000 0.054356 -0.014224 0.000000 0.060107 -0.004289 0.000000 0.066283 0.006128 0.000000 0.071311 0.016934 0.000000 0.076795 0.027321 0.000000 0.081025 0.037507 0.000000 0.085614 0.045953 0.000000 0.088946 0.053320 0.000000 0.092352 0.057015 0.000000 0.094396 0.058355 0.000000 0.096877 0.052385 0.000000 0.099005 0.044346 0.000000 0.105666 0.024503 0.000000 0.116521 0.016594 0.000000 0.122098 -0.002576 0.000000 0.123067 -0.022848 0.000000 0.133970 -0.025135 0.000000 0.195836 -0.026522 0.000000 0.225440 -0.053231 0.000000 0.202412 -0.095265 0.000000 0.166061 -0.063086 0.000000 0.142625 -0.010107 0.000000 0.113985 0.028942 0.000000 0.066591 0.056300 0.000000 0.000472 0.063150 0.000000 -0.067695 0.056045 0.000000 -0.117222 0.025910 0.000000 -0.150461 -0.007134 0.000000 -0.160230 -0.050914 0.000000 -0.180628 -0.072511 0.000000 -0.202755 -0.029371 0.000000 -0.175357 -0.001841 0.000000 -0.120616 -0.038213 0.000000 -0.104422 -0.053085 0.000000 -0.103548 -0.030369 0.000000 -0.083121 -0.009733 0.000000 -0.067581 0.023385 0.000000 -0.068463 0.051514 0.000000 -0.069952 0.067769 0.000000 -0.074993 0.074867 0.000000 -0.076412 0.073302 0.000000 -0.077125 0.068239 0.000000 -0.075715 0.059574 0.000000 -0.073378 0.049772 0.000000 -0.070186 0.038794 0.000000 -0.066353 0.027285 0.000000 -0.061923 0.015883 0.000000 -0.057176 0.004390 0.000000 -0.051732 -0.006244 0.000000 -0.046283 -0.016463 0.000000 -0.040060 -0.025437 0.000000 -0.034068 -0.033533 0.000000 -0.027326 -0.040236 0.000000 -0.020949 -0.045723 0.000000 -0.013913 -0.049785 0.000000 -0.007292 -0.052436 0.000000 
-0.000611 -0.060686 0.000000 0.006176 -0.060443 0.000000 0.013419 -0.058849 0.000000 0.020267 -0.055744 0.000000 0.027527 -0.051301 0.000000 0.034351 -0.045478 0.000000 0.041598 -0.038391 0.000000 0.048250 -0.030134 0.000000 0.055412 -0.020863 0.000000 0.061704 -0.010707 0.000000 0.068681 -0.000117 0.000000 0.074458 0.011001 0.000000 0.081126 0.021518 0.000000 0.086270 0.032117 0.000000 0.092394 0.040701 0.000000 0.096419 0.048652 0.000000 0.101370 0.052972 0.000000 0.102310 0.054714 0.000000 0.105655 0.049646 0.000000 0.103246 0.037790 0.000000 0.114805 0.014937 0.000000 0.132541 0.003958 0.000000 0.141533 -0.002976 0.000000 0.196105 -0.029407 0.000000 0.226414 -0.124266 0.000000 0.213396 -0.161998 0.000000 0.134397 -0.058913 0.000000 0.028032 0.034945 0.000000 -0.052067 0.073810 0.000000 -0.078263 0.071427 0.000000 -0.083243 0.067171 0.000000 -0.056877 0.064311 0.000000 -0.011031 0.062688 0.000000 0.035710 0.064967 0.000000 0.064058 0.067195 0.000000 0.061197 0.069997 0.000000 0.036820 0.066252 0.000000 -0.022232 0.046738 0.000000 -0.113944 -0.034975 0.000000 -0.170202 -0.136504 0.000000 -0.197679 -0.129736 0.000000 -0.181932 -0.054074 0.000000 -0.120942 -0.039865 0.000000 -0.103913 -0.037569 0.000000 -0.081868 0.011846 0.000000 -0.081986 0.049813 0.000000 -0.084755 0.069053 0.000000 -0.089438 0.075708 0.000000 -0.090358 0.071828 0.000000 -0.088919 0.065387 0.000000 -0.086010 0.055390 0.000000 -0.081557 0.045039 0.000000 -0.077028 0.033623 0.000000 -0.071686 0.021829 0.000000 -0.066243 0.010227 0.000000 -0.060526 -0.001522 0.000000 -0.054347 -0.012334 0.000000 -0.048307 -0.022766 0.000000 -0.041585 -0.031906 0.000000 -0.035260 -0.040140 0.000000 -0.028223 -0.046978 0.000000 -0.021688 -0.052533 0.000000 -0.014514 -0.056698 0.000000 -0.007831 -0.059375 0.000000 