# vtk DataFile Version 2.0
Comment goes here
ASCII

DATASET STRUCTURED_POINTS
FIELD FieldData 1
TIME 1 1 double
1.43000000
DIMENSIONS    64   64   1

ORIGIN    0.000   0.000   0.000
SPACING   0.015625 0.015625   1.000

POINT_DATA   4096
VECTORS u double

0.001627 0.000000 0.000000 0.001799 0.000000 0.000000 0.002130 0.000000 0.000000 0.001827 0.000000 0.000000 0.001432 0.000000 0.000000 0.000089 0.000000 0.000000 -0.001575 0.000000 0.000000 -0.004422 0.000000 0.000000 -0.007767 0.000000 0.000000 -0.012418 0.000000 0.000000 -0.017662 0.000000 0.000000 -0.024176 0.000000 0.000000 -0.031256 0.000000 0.000000 -0.039379 0.000000 0.000000 -0.047876 0.000000 0.000000 -0.056967 0.000000 0.000000 -0.066061 0.000000 0.000000 -0.075080 0.000000 0.000000 -0.083569 0.000000 0.000000 -0.091146 0.000000 0.000000 -0.097590 0.000000 0.000000 -0.102227 0.000000 0.000000 -0.105200 0.000000 0.000000 -0.105565 0.000000 0.000000 -0.103961 0.000000 0.000000 -0.099182 0.000000 0.000000 -0.092443 0.000000 0.000000 -0.082326 0.000000 0.000000 -0.070580 0.000000 0.000000 -0.055762 0.000000 0.000000 -0.039973 0.000000 0.000000 -0.022024 0.000000 0.000000 -0.004063 0.000000 0.000000 0.014656 0.000000 0.000000 0.032300 0.000000 0.000000 0.049185 0.000000 0.000000 0.064097 0.000000 0.000000 0.077045 0.000000 0.000000 0.087521 0.000000 0.000000 0.095353 0.000000 0.000000 0.100651 0.000000 0.000000 0.103147 0.000000 0.000000 0.103404 0.000000 0.000000 0.101130 0.000000 0.000000 0.097165 0.000000 0.000000 0.091259 0.000000 0.000000 0.084342 0.000000 0.000000 0.076238 -0.000000 0.000000 0.067806 -0.000000 0.000000 0.058942 -0.000000 0.000000 0.050333 -0.000000 0.000000 0.041914 -0.000000 0.000000 0.034172 0.000000 0.000000 0.027039 0.000000 0.000000 0.020829 0.000000 0.000000 0.015429 0.000000 0.000000 0.011042 0.000000 0.000000 0.007470 0.000000 0.000000 0.004872 0.000000 0.000000 0.002940 0.000000 0.000000 0.001851 0.000000 0.000000 0.001168 0.000000 0.000000 0.001132 0.000000 0.000000 0.001173 0.000000 0.000000 
0.001797 -0.000313 0.000000 0.002021 -0.000252 0.000000 0.002411 -0.000014 0.000000 0.002162 0.000349 0.000000 0.001825 0.000869 0.000000 0.000543 0.001503 0.000000 -0.001061 0.002255 0.000000 -0.003836 0.003096 0.000000 -0.007117 0.003998 0.000000 -0.011681 0.004947 0.000000 -0.016852 0.005879 0.000000 -0.023260 0.006797 0.000000 -0.030252 0.007601 0.000000 -0.038243 0.008310 0.000000 -0.046628 0.008794 0.000000 -0.055556 0.009092 0.000000 -0.064500 0.009056 0.000000 -0.073319 0.008754 0.000000 -0.081607 0.008033 0.000000 -0.088953 0.007010 0.000000 -0.095147 0.005540 0.000000 -0.099546 0.003805 0.000000 -0.102261 0.001669 0.000000 -0.102445 -0.000620 0.000000 -0.100674 -0.003191 0.000000 -0.095880 -0.005759 0.000000 -0.089206 -0.008428 0.000000 -0.079344 -0.010932 0.000000 -0.067991 -0.013282 0.000000 -0.053712 -0.015304 0.000000 -0.038571 -0.016869 0.000000 -0.021331 -0.017955 0.000000 -0.004117 -0.018340 0.000000 0.013847 -0.018181 0.000000 0.030775 -0.017265 0.000000 0.046975 -0.015899 0.000000 0.061333 -0.013930 0.000000 0.073820 -0.011712 0.000000 0.084034 -0.009154 0.000000 0.091738 -0.006565 0.000000 0.097076 -0.003897 0.000000 0.099710 -0.001376 0.000000 0.100190 0.001008 0.000000 0.098191 0.003119 0.000000 0.094505 0.004935 0.000000 0.088904 0.006412 0.000000 0.082247 0.007511 0.000000 0.074421 0.008268 0.000000 0.066208 0.008648 0.000000 0.057574 0.008736 0.000000 0.049143 0.008514 0.000000 0.040907 0.008081 0.000000 0.033310 0.007438 0.000000 0.026320 0.006671 0.000000 0.020229 0.005805 0.000000 0.014942 0.004894 0.000000 0.010654 0.003980 0.000000 0.007170 0.003085 0.000000 0.004657 0.002265 0.000000 0.002797 0.001510 0.000000 0.001781 0.000886 0.000000 0.001158 0.000360 0.000000 0.001187 -0.000003 0.000000 0.001283 -0.000248 0.000000 
0.001635 -0.000739 0.000000 0.002007 -0.000614 0.000000 0.002545 -0.000141 0.000000 0.002442 0.000586 0.000000 0.002256 0.001619 0.000000 0.001114 0.002885 0.000000 -0.000337 0.004379 0.000000 -0.002985 0.006056 0.000000 -0.006122 0.007845 0.000000 -0.010581 0.009735 0.000000 -0.015629 0.011579 0.000000 -0.021973 0.013400 0.000000 -0.028885 0.014983 0.000000 -0.036870 0.016376 0.000000 -0.045243 0.017313 0.000000 -0.054244 0.017871 0.000000 -0.063264 0.017763 0.000000 -0.072244 0.017108 0.000000 -0.080704 0.015634 0.000000 -0.088283 0.013540 0.000000 -0.094727 0.010593 0.000000 -0.099394 0.007114 0.000000 -0.102397 0.002899 0.000000 -0.102827 -0.001587 0.000000 -0.101326 -0.006566 0.000000 -0.096692 -0.011468 0.000000 -0.090190 -0.016536 0.000000 -0.080326 -0.021215 0.000000 -0.068943 -0.025633 0.000000 -0.054453 -0.029420 0.000000 -0.039074 -0.032380 0.000000 -0.021472 -0.034454 0.000000 -0.003906 -0.035178 0.000000 0.014453 -0.034892 0.000000 0.031709 -0.033128 0.000000 0.048198 -0.030558 0.000000 0.062726 -0.026845 0.000000 0.075285 -0.022702 0.000000 0.085436 -0.017918 0.000000 0.092970 -0.013042 0.000000 0.098061 -0.007972 0.000000 0.100382 -0.003114 0.000000 0.100553 0.001518 0.000000 0.098206 0.005685 0.000000 0.094231 0.009287 0.000000 0.088318 0.012258 0.000000 0.081435 0.014483 0.000000 0.073373 0.016040 0.000000 0.065011 0.016847 0.000000 0.056236 0.017065 0.000000 0.047734 0.016667 0.000000 0.039448 0.015833 0.000000 0.031847 0.014587 0.000000 0.024882 0.013080 0.000000 0.018842 0.011378 0.000000 0.013634 0.009576 0.000000 0.009433 0.007771 0.000000 0.006064 0.005997 0.000000 0.003662 0.004374 0.000000 0.001937 0.002876 0.000000 0.001047 0.001639 0.000000 0.000569 0.000593 0.000000 0.000735 -0.000125 0.000000 0.000978 -0.000610 0.000000 
0.001818 -0.001342 0.000000 0.002435 -0.001162 0.000000 0.003232 -0.000449 0.000000 0.003376 0.000638 0.000000 0.003454 0.002197 0.000000 0.002566 0.004097 0.000000 0.001381 0.006354 0.000000 -0.001003 0.008881 0.000000 -0.003873 0.011594 0.000000 -0.008062 0.014455 0.000000 -0.012850 0.017271 0.000000 -0.018922 0.020052 0.000000 -0.025590 0.022499 0.000000 -0.033312 0.024668 0.000000 -0.041460 0.026168 0.000000 -0.050211 0.027113 0.000000 -0.059014 0.027055 0.000000 -0.067748 0.026194 0.000000 -0.075970 0.024072 0.000000 -0.083289 0.021034 0.000000 -0.089438 0.016651 0.000000 -0.093826 0.011475 0.000000 -0.096497 0.005102 0.000000 -0.096702 -0.001690 0.000000 -0.094990 -0.009326 0.000000 -0.090375 -0.016895 0.000000 -0.084070 -0.024794 0.000000 -0.074688 -0.032179 0.000000 -0.064123 -0.039155 0.000000 -0.050602 -0.045173 0.000000 -0.036438 -0.049850 0.000000 -0.020030 -0.053123 0.000000 -0.003748 -0.054265 0.000000 0.013362 -0.053796 0.000000 0.029368 -0.051010 0.000000 0.044612 -0.046916 0.000000 0.058070 -0.041016 0.000000 0.069679 -0.034422 0.000000 0.079240 -0.026840 0.000000 0.086414 -0.019190 0.000000 0.091461 -0.011309 0.000000 0.093880 -0.003869 0.000000 0.094317 0.003185 0.000000 0.092281 0.009441 0.000000 0.088651 0.014823 0.000000 0.083095 0.019208 0.000000 0.076533 0.022456 0.000000 0.068813 0.024691 0.000000 0.060740 0.025785 0.000000 0.052286 0.026014 0.000000 0.044060 0.025303 0.000000 0.036083 0.023967 0.000000 0.028759 0.022003 0.000000 0.022096 0.019677 0.000000 0.016335 0.017053 0.000000 0.011421 0.014303 0.000000 0.007499 0.011549 0.000000 0.004412 0.008856 0.000000 0.002284 0.006392 0.000000 0.000828 0.004125 0.000000 0.000206 0.002254 0.000000 -0.000016 0.000672 0.000000 0.000411 -0.000411 0.000000 0.000903 -0.001148 0.000000 
0.001661 -0.002271 0.000000 0.002619 -0.002028 0.000000 0.003763 -0.001082 0.000000 0.004247 0.000365 0.000000 0.004681 0.002430 0.000000 0.004130 0.004958 0.000000 0.003309 0.007948 0.000000 0.001253 0.011310 0.000000 -0.001257 0.014904 0.000000 -0.005143 0.018712 0.000000 -0.009598 0.022440 0.000000 -0.015419 0.026140 0.000000 -0.021816 0.029373 0.000000 -0.029379 0.032246 0.000000 -0.037364 0.034211 0.000000 -0.046085 0.035426 0.000000 -0.054873 0.035300 0.000000 -0.063728 0.034064 0.000000 -0.072095 0.031175 0.000000 -0.079670 0.027007 0.000000 -0.086096 0.021130 0.000000 -0.090822 0.014172 0.000000 -0.093858 0.005775 0.000000 -0.094431 -0.003094 0.000000 -0.093161 -0.012893 0.000000 -0.088909 -0.022387 0.000000 -0.083085 -0.032223 0.000000 -0.073955 -0.041162 0.000000 -0.063692 -0.049719 0.000000 -0.050201 -0.057105 0.000000 -0.036110 -0.062952 0.000000 -0.019596 -0.067145 0.000000 -0.003267 -0.068570 0.000000 0.013957 -0.068008 0.000000 0.029987 -0.064379 0.000000 0.045216 -0.059260 0.000000 0.058538 -0.051912 0.000000 0.069873 -0.043872 0.000000 0.079021 -0.034653 0.000000 0.085648 -0.025263 0.000000 0.090130 -0.015439 0.000000 0.091962 -0.005970 0.000000 0.091923 0.003118 0.000000 0.089396 0.011351 0.000000 0.085432 0.018473 0.000000 0.079522 0.024376 0.000000 0.072758 0.028765 0.000000 0.064834 0.031832 0.000000 0.056685 0.033374 0.000000 0.048184 0.033745 0.000000 0.040003 0.032871 0.000000 0.032122 0.031134 0.000000 0.024947 0.028574 0.000000 0.018493 0.025504 0.000000 0.012959 0.022054 0.000000 0.008328 0.018412 0.000000 0.004684 0.014780 0.000000 0.001922 0.011211 0.000000 0.000102 0.007958 0.000000 -0.001012 0.004955 0.000000 -0.001311 0.002483 0.000000 -0.001187 0.000388 0.000000 -0.000429 -0.001043 0.000000 0.000407 -0.002017 0.000000 
0.001862 -0.003555 0.000000 0.003237 -0.003264 0.000000 0.004823 -0.002076 0.000000 0.005727 -0.000279 0.000000 0.006612 0.002314 0.000000 0.006492 0.005468 0.000000 0.006132 0.009231 0.000000 0.004519 0.013447 0.000000 0.002471 0.017990 0.000000 -0.000968 0.022796 0.000000 -0.004980 0.027548 0.000000 -0.010368 0.032271 0.000000 -0.016367 0.036459 0.000000 -0.023535 0.040215 0.000000 -0.031192 0.042874 0.000000 -0.039574 0.044622 0.000000 -0.048099 0.044699 0.000000 -0.056660 0.043416 0.000000 -0.064764 0.040014 0.000000 -0.072028 0.035036 0.000000 -0.078071 0.027803 0.000000 -0.082386 0.019237 0.000000 -0.084843 0.008712 0.000000 -0.084946 -0.002388 0.000000 -0.083113 -0.014848 0.000000 -0.078658 -0.026971 0.000000 -0.072889 -0.039748 0.000000 -0.064360 -0.051572 0.000000 -0.055471 -0.062909 0.000000 -0.043581 -0.072756 0.000000 -0.031594 -0.080456 0.000000 -0.016980 -0.085965 0.000000 -0.002680 -0.087817 0.000000 0.012625 -0.087050 0.000000 0.026637 -0.082269 0.000000 0.039734 -0.075467 0.000000 0.051190 -0.065673 0.000000 0.060844 -0.054904 0.000000 0.069067 -0.042615 0.000000 0.075280 -0.030299 0.000000 0.079899 -0.017623 0.000000 0.082044 -0.005662 0.000000 0.082550 0.005751 0.000000 0.080540 0.015932 0.000000 0.077093 0.024697 0.000000 0.071662 0.031883 0.000000 0.065296 0.037143 0.000000 0.057789 0.040763 0.000000 0.049983 0.042435 0.000000 0.041884 0.042696 0.000000 0.034058 0.041365 0.000000 0.026600 0.039023 0.000000 0.019821 0.035633 0.000000 0.013816 0.031665 0.000000 0.008713 0.027218 0.000000 0.004545 0.022577 0.000000 0.001350 0.017955 0.000000 -0.000951 0.013438 0.000000 -0.002321 0.009327 0.000000 -0.002986 0.005538 0.000000 -0.002840 0.002429 0.000000 -0.002283 -0.000210 0.000000 -0.001086 -0.002005 0.000000 0.000171 -0.003237 0.000000 
0.001707 -0.005337 0.000000 0.003593 -0.004989 0.000000 0.005700 -0.003572 0.000000 0.007117 -0.001425 0.000000 0.008544 0.001665 0.000000 0.008943 0.005438 0.000000 0.009146 0.009921 0.000000 0.008055 0.014972 0.000000 0.006583 0.020390 0.000000 0.003653 0.026162 0.000000 0.000201 0.031839 0.000000 -0.004729 0.037528 0.000000 -0.010238 0.042540 0.000000 -0.017061 0.047070 0.000000 -0.024369 0.050251 0.000000 -0.032592 0.052333 0.000000 -0.040982 0.052386 0.000000 -0.049620 0.050729 0.000000 -0.057836 0.046543 0.000000 -0.065395 0.040314 0.000000 -0.071746 0.031488 0.000000 -0.076484 0.020945 0.000000 -0.079362 0.008336 0.000000 -0.079952 -0.004824 0.000000 -0.078727 -0.019181 0.000000 -0.074874 -0.032611 0.000000 -0.069995 -0.046521 0.000000 -0.061930 -0.058580 0.000000 -0.053564 -0.070498 0.000000 -0.041759 -0.080982 0.000000 -0.030051 -0.089553 0.000000 -0.015598 -0.096059 0.000000 -0.001649 -0.098175 0.000000 0.013382 -0.097325 0.000000 0.027066 -0.091488 0.000000 0.039894 -0.083813 0.000000 0.051066 -0.073021 0.000000 0.060224 -0.061748 0.000000 0.067687 -0.049088 0.000000 0.072845 -0.036095 0.000000 0.076400 -0.022203 0.000000 0.077580 -0.008621 0.000000 0.077415 0.004623 0.000000 0.074753 0.016808 0.000000 0.070956 0.027351 0.000000 0.065130 0.036173 0.000000 0.058606 0.042638 0.000000 0.050928 0.047146 0.000000 0.043126 0.049279 0.000000 0.035080 0.049670 0.000000 0.027420 0.048154 0.000000 0.020219 0.045371 0.000000 0.013747 0.041358 0.000000 0.008151 0.036612 0.000000 0.003457 0.031325 0.000000 -0.000214 0.025775 0.000000 -0.002941 0.020276 0.000000 -0.004706 0.014881 0.000000 -0.005581 0.009993 0.000000 -0.005706 0.005474 0.000000 -0.005057 0.001779 0.000000 -0.003970 -0.001366 0.000000 -0.002268 -0.003497 0.000000 -0.000493 -0.004964 0.000000 
0.001931 -0.007641 0.000000 0.004366 -0.007258 0.000000 0.007062 -0.005600 0.000000 0.009035 -0.003123 0.000000 0.011071 0.000488 0.000000 0.012045 0.004866 0.000000 0.012882 0.010119 0.000000 0.012389 0.016010 0.000000 0.011563 0.022391 0.000000 0.009244 0.029177 0.000000 0.006417 0.035930 0.000000 0.002079 0.042710 0.000000 -0.002880 0.048790 0.000000 -0.009178 0.054346 0.000000 -0.016071 0.058405 0.000000 -0.023881 0.061236 0.000000 -0.032010 0.061727 0.000000 -0.040334 0.060270 0.000000 -0.048329 0.055789 0.000000 -0.055530 0.048946 0.000000 -0.061390 0.038891 0.000000 -0.065442 0.026853 0.000000 -0.067175 0.012180 0.000000 -0.066613 -0.003023 0.000000 -0.063752 -0.019926 0.000000 -0.058776 -0.035703 0.000000 -0.052895 -0.052693 0.000000 -0.045081 -0.068002 0.000000 -0.038983 -0.083080 0.000000 -0.029989 -0.096269 0.000000 -0.022184 -0.106616 0.000000 -0.010969 -0.114368 0.000000 -0.000265 -0.116798 0.000000 0.011799 -0.115765 0.000000 0.022115 -0.108780 0.000000 0.031053 -0.099467 0.000000 0.038801 -0.086004 0.000000 0.044929 -0.071526 0.000000 0.051254 -0.055236 0.000000 0.056686 -0.039012 0.000000 0.061360 -0.022358 0.000000 0.063704 -0.006676 0.000000 0.064890 0.008577 0.000000 0.063282 0.022390 0.000000 0.060349 0.034321 0.000000 0.055215 0.044233 0.000000 0.049154 0.051345 0.000000 0.041946 0.056244 0.000000 0.034479 0.058282 0.000000 0.026871 0.058402 0.000000 0.019599 0.056225 0.000000 0.012902 0.052695 0.000000 0.006917 0.047701 0.000000 0.001897 0.041956 0.000000 -0.002234 0.035583 0.000000 -0.005289 0.028975 0.000000 -0.007418 0.022447 0.000000 -0.008564 0.016078 0.000000 -0.008837 0.010327 0.000000 -0.008362 0.005015 0.000000 -0.007122 0.000693 0.000000 -0.005460 -0.003000 0.000000 -0.003178 -0.005481 0.000000 -0.000847 -0.007212 0.000000 
0.001780 -0.010551 0.000000 0.004847 -0.010120 0.000000 0.008193 -0.008240 0.000000 0.010804 -0.005434 0.000000 0.013525 -0.001346 0.000000 0.015162 0.003627 0.000000 0.016732 0.009577 0.000000 0.016933 0.016291 0.000000 0.016885 0.023536 0.000000 0.015278 0.031308 0.000000 0.013246 0.039004 0.000000 0.009591 0.046825 0.000000 0.005375 0.053796 0.000000 -0.000355 0.060262 0.000000 -0.006663 0.064954 0.000000 -0.014135 0.068271 0.000000 -0.021950 0.068839 0.000000 -0.030250 0.067049 0.000000 -0.038249 0.061739 0.000000 -0.045696 0.053374 0.000000 -0.051734 0.041399 0.000000 -0.056069 0.026730 0.000000 -0.057893 0.009507 0.000000 -0.057575 -0.008247 0.000000 -0.055079 -0.027018 0.000000 -0.050868 -0.043468 0.000000 -0.046560 -0.060216 0.000000 -0.039253 -0.072492 0.000000 -0.033448 -0.085590 0.000000 -0.024080 -0.097780 0.000000 -0.016813 -0.108573 0.000000 -0.006814 -0.117978 0.000000 0.001886 -0.120943 0.000000 0.011941 -0.119706 0.000000 0.020589 -0.110741 0.000000 0.028707 -0.100498 0.000000 0.036478 -0.086897 0.000000 0.042491 -0.074201 0.000000 0.047922 -0.060845 0.000000 0.051489 -0.046201 0.000000 0.054208 -0.029221 0.000000 0.055269 -0.012152 0.000000 0.055948 0.005045 0.000000 0.053866 0.021349 0.000000 0.050953 0.035417 0.000000 0.045633 0.047368 0.000000 0.039647 0.055907 0.000000 0.032402 0.061821 0.000000 0.025069 0.064353 0.000000 0.017647 0.064551 0.000000 0.010662 0.062124 0.000000 0.004397 0.058053 0.000000 -0.001129 0.052363 0.000000 -0.005531 0.045763 0.000000 -0.009079 0.038510 0.000000 -0.011421 0.030959 0.000000 -0.012906 0.023551 0.000000 -0.013320 0.016301 0.000000 -0.012935 0.009791 0.000000 -0.011750 0.003760 0.000000 -0.009862 -0.001123 0.000000 -0.007524 -0.005311 0.000000 -0.004607 -0.008109 0.000000 -0.001631 -0.010073 0.000000 
0.002031 -0.014120 0.000000 0.005716 -0.013670 0.000000 0.009735 -0.011557 0.000000 0.012977 -0.008455 0.000000 0.016413 -0.003870 0.000000 0.018716 0.001660 0.000000 0.021052 0.008348 0.000000 0.021964 0.015857 0.000000 0.022724 0.024046 0.000000 0.021862 0.032816 0.000000 0.020631 0.041618 0.000000 0.017712 0.050581 0.000000 0.014199 0.058736 0.000000 0.009118 0.066384 0.000000 0.003300 0.072185 0.000000 -0.003684 0.076523 0.000000 -0.011277 0.077842 0.000000 -0.019224 0.076569 0.000000 -0.027079 0.071234 0.000000 -0.033988 0.062430 0.000000 -0.039257 0.049265 0.000000 -0.042105 0.033012 0.000000 -0.041330 0.013686 0.000000 -0.037967 -0.005837 0.000000 -0.030979 -0.026633 0.000000 -0.022798 -0.044222 0.000000 -0.013241 -0.064308 0.000000 -0.004098 -0.081114 0.000000 -0.002708 -0.098253 0.000000 0.000369 -0.112904 0.000000 -0.001201 -0.123882 0.000000 0.001879 -0.133066 0.000000 0.004607 -0.135552 0.000000 0.009426 -0.134468 0.000000 0.011405 -0.125546 0.000000 0.010992 -0.115355 0.000000 0.011153 -0.099788 0.000000 0.010679 -0.082971 0.000000 0.015314 -0.064234 0.000000 0.022744 -0.045297 0.000000 0.030090 -0.026138 0.000000 0.034756 -0.008416 0.000000 0.038963 0.009980 0.000000 0.039380 0.027385 0.000000 0.038213 0.042554 0.000000 0.034189 0.055539 0.000000 0.028859 0.064577 0.000000 0.022222 0.070822 0.000000 0.015200 0.073037 0.000000 0.008224 0.072809 0.000000 0.001615 0.069475 0.000000 -0.004111 0.064486 0.000000 -0.009094 0.057629 0.000000 -0.012832 0.049907 0.000000 -0.015714 0.041473 0.000000 -0.017324 0.032802 0.000000 -0.018095 0.024345 0.000000 -0.017772 0.016106 0.000000 -0.016677 0.008756 0.000000 -0.014788 0.001942 0.000000 -0.012217 -0.003533 0.000000 -0.009218 -0.008254 0.000000 -0.005640 -0.011374 0.000000 -0.002036 -0.013599 0.000000 
0.001890 -0.018303 0.000000 0.006247 -0.017824 0.000000 0.010964 -0.015502 0.000000 0.014894 -0.012112 0.000000 0.019083 -0.007084 0.000000 0.022123 -0.001012 0.000000 0.025298 0.006329 0.000000 0.027021 0.014620 0.000000 0.028717 0.023638 0.000000 0.028737 0.033401 0.000000 0.028517 0.043154 0.000000 0.026506 0.053258 0.000000 0.024012 0.062390 0.000000 0.019772 0.071161 0.000000 0.014872 0.077757 0.000000 0.008546 0.082848 0.000000 0.001672 0.084379 0.000000 -0.005844 0.082851 0.000000 -0.013152 0.076503 0.000000 -0.019633 0.065552 0.000000 -0.024093 0.049517 0.000000 -0.025831 0.028803 0.000000 -0.023032 0.005369 0.000000 -0.017753 -0.018598 0.000000 -0.008788 -0.042187 0.000000 -0.001446 -0.061206 0.000000 0.003906 -0.078916 0.000000 0.012232 -0.083025 0.000000 0.015280 -0.090057 0.000000 0.021231 -0.099287 0.000000 0.018719 -0.110083 0.000000 0.016084 -0.123786 0.000000 0.009415 -0.128491 0.000000 0.004262 -0.126504 0.000000 -0.001224 -0.112307 0.000000 -0.004275 -0.100246 0.000000 -0.001683 -0.086584 0.000000 0.000956 -0.078363 0.000000 0.005051 -0.072910 0.000000 0.007722 -0.060977 0.000000 0.010321 -0.041233 0.000000 0.014177 -0.021024 0.000000 0.020167 0.000420 0.000000 0.022083 0.022098 0.000000 0.023007 0.040609 0.000000 0.020217 0.056722 0.000000 0.016045 0.067874 0.000000 0.010041 0.075480 0.000000 0.003576 0.078351 0.000000 -0.002900 0.078136 0.000000 -0.009044 0.074459 0.000000 -0.014112 0.068761 0.000000 -0.018502 0.061084 0.000000 -0.021409 0.052384 0.000000 -0.023570 0.043002 0.000000 -0.024271 0.033339 0.000000 -0.024264 0.023999 0.000000 -0.023049 0.014883 0.000000 -0.021186 0.006808 0.000000 -0.018473 -0.000701 0.000000 -0.015172 -0.006693 0.000000 -0.011424 -0.011888 0.000000 -0.007154 -0.015291 0.000000 -0.002855 -0.017745 0.000000 
0.002170 -0.023223 0.000000 0.007116 -0.022744 0.000000 0.012500 -0.020204 0.000000 0.017041 -0.016574 0.000000 0.021965 -0.011099 0.000000 0.025673 -0.004556 0.000000 0.029678 0.003450 0.000000 0.032146 0.012438 0.000000 0.034763 0.022331 0.000000 0.035600 0.033015 0.000000 0.036333 0.043848 0.000000 0.035164 0.055086 0.000000 0.033534 0.065471 0.000000 0.030083 0.075524 0.000000 0.025817 0.083411 0.000000 0.020182 0.089723 0.000000 0.013676 0.092232 0.000000 0.006914 0.091393 0.000000 0.000050 0.085023 0.000000 -0.004938 0.073372 0.000000 -0.007582 0.055463 0.000000 -0.005389 0.031951 0.000000 0.003664 0.005608 0.000000 0.016512 -0.020081 0.000000 0.035517 -0.042940 0.000000 0.053485 -0.056916 0.000000 0.078341 -0.077986 0.000000 0.096155 -0.092488 0.000000 0.087518 -0.107252 0.000000 0.075934 -0.116343 0.000000 0.051178 -0.118735 0.000000 0.032277 -0.123762 0.000000 0.014238 -0.123730 0.000000 -0.000600 -0.123829 0.000000 -0.020067 -0.117010 0.000000 -0.043552 -0.114896 0.000000 -0.060671 -0.105018 0.000000 -0.075126 -0.089705 0.000000 -0.070412 -0.071001 0.000000 -0.050736 -0.050567 0.000000 -0.033250 -0.032592 0.000000 -0.021125 -0.018263 0.000000 -0.007059 0.002074 0.000000 0.000825 0.024545 0.000000 0.005673 0.044420 0.000000 0.006091 0.062501 0.000000 0.003535 0.074753 0.000000 -0.001117 0.083291 0.000000 -0.006949 0.085977 0.000000 -0.012774 0.085429 0.000000 -0.018442 0.080688 0.000000 -0.022917 0.073944 0.000000 -0.026709 0.064926 0.000000 -0.028903 0.054974 0.000000 -0.030342 0.044335 0.000000 -0.030253 0.033496 0.000000 -0.029480 0.023124 0.000000 -0.027480 0.013028 0.000000 -0.024874 0.004180 0.000000 -0.021435 -0.004072 0.000000 -0.017442 -0.010582 0.000000 -0.013037 -0.016272 0.000000 -0.008118 -0.019942 0.000000 -0.003213 -0.022643 0.000000 
0.002051 -0.028632 0.000000 0.007591 -0.028154 0.000000 0.013600 -0.025427 0.000000 0.018761 -0.021577 0.000000 0.024388 -0.015716 0.000000 0.028794 -0.008725 0.000000 0.033631 -0.000145 0.000000 0.036917 0.009535 0.000000 0.040523 0.020184 0.000000 0.042316 0.031831 0.000000 0.044196 0.043591 0.000000 0.044106 0.056056 0.000000 0.043763 0.067471 0.000000 0.041495 0.078878 0.000000 0.038677 0.087657 0.000000 0.034392 0.094989 0.000000 0.029661 0.097648 0.000000 0.024693 0.096477 0.000000 0.020291 0.088355 0.000000 0.018197 0.073184 0.000000 0.019456 0.049968 0.000000 0.027278 0.017557 0.000000 0.044589 -0.016532 0.000000 0.067181 -0.050451 0.000000 0.098052 -0.079160 0.000000 0.112660 -0.104029 0.000000 0.115069 -0.121585 0.000000 0.123495 -0.092202 0.000000 0.126496 -0.069837 0.000000 0.134618 -0.062948 0.000000 0.117075 -0.066425 0.000000 0.081687 -0.086846 0.000000 0.026872 -0.095613 0.000000 -0.030524 -0.092198 0.000000 -0.075328 -0.069355 0.000000 -0.101085 -0.059642 0.000000 -0.097879 -0.055011 0.000000 -0.088191 -0.068621 0.000000 -0.086448 -0.097300 0.000000 -0.091459 -0.098139 0.000000 -0.092383 -0.070844 0.000000 -0.076844 -0.047215 0.000000 -0.051047 -0.021530 0.000000 -0.035038 0.009366 0.000000 -0.022195 0.035343 0.000000 -0.016180 0.058860 0.000000 -0.014541 0.075082 0.000000 -0.016554 0.085963 0.000000 -0.020627 0.090009 0.000000 -0.025115 0.089630 0.000000 -0.029918 0.084602 0.000000 -0.033349 0.077027 0.000000 -0.036413 0.067070 0.000000 -0.037559 0.056017 0.000000 -0.038206 0.044353 0.000000 -0.037073 0.032477 0.000000 -0.035473 0.021226 0.000000 -0.032511 0.010277 0.000000 -0.029118 0.000762 0.000000 -0.024843 -0.008133 0.000000 -0.020142 -0.015091 0.000000 -0.015025 -0.021212 0.000000 -0.009468 -0.025115 0.000000 -0.003937 -0.028032 0.000000 
0.002357 -0.034751 0.000000 0.008328 -0.034294 0.000000 0.014865 -0.031374 0.000000 0.020487 -0.027361 0.000000 0.026743 -0.021132 0.000000 0.031689 -0.013798 0.000000 0.037302 -0.004673 0.000000 0.041236 0.005545 0.000000 0.045775 0.016932 0.000000 0.048326 0.029342 0.000000 0.051245 0.042057 0.000000 0.052006 0.055520 0.000000 0.052713 0.068082 0.000000 0.051415 0.080610 0.000000 0.049631 0.090514 0.000000 0.046655 0.098740 0.000000 0.043181 0.101931 0.000000 0.040474 0.100762 0.000000 0.038162 0.091519 0.000000 0.040373 0.074206 0.000000 0.045641 0.046382 0.000000 0.062576 0.006818 0.000000 0.092599 -0.034295 0.000000 0.127977 -0.073544 0.000000 0.168055 -0.088418 0.000000 0.202922 -0.073933 0.000000 0.266774 -0.088821 0.000000 0.304030 -0.103914 0.000000 0.269489 -0.118374 0.000000 0.230343 -0.106922 0.000000 0.170367 -0.065804 0.000000 0.107069 -0.033559 0.000000 0.034332 -0.011519 0.000000 -0.047446 -0.021630 0.000000 -0.109528 -0.046449 0.000000 -0.174306 -0.092345 0.000000 -0.220488 -0.117911 0.000000 -0.251056 -0.101137 0.000000 -0.254148 -0.067734 0.000000 -0.201022 -0.044632 0.000000 -0.154655 -0.047207 0.000000 -0.129208 -0.059599 0.000000 -0.095876 -0.039731 0.000000 -0.069513 -0.004307 0.000000 -0.050087 0.025562 0.000000 -0.036914 0.054847 0.000000 -0.031136 0.075127 0.000000 -0.029747 0.089377 0.000000 -0.031826 0.094538 0.000000 -0.034848 0.094720 0.000000 -0.038608 0.088922 0.000000 -0.041210 0.080439 0.000000 -0.043529 0.069136 0.000000 -0.043944 0.056767 0.000000 -0.043885 0.043849 0.000000 -0.042004 0.030764 0.000000 -0.039705 0.018562 0.000000 -0.036028 0.006673 0.000000 -0.031985 -0.003488 0.000000 -0.027083 -0.013049 0.000000 -0.021810 -0.020400 0.000000 -0.016168 -0.026946 0.000000 -0.010103 -0.031030 0.000000 -0.004119 -0.034162 0.000000 
0.002279 -0.041079 0.000000 0.008611 -0.040663 0.000000 0.015546 -0.037586 0.000000 0.021560 -0.033455 0.000000 0.028308 -0.026917 0.000000 0.033744 -0.019284 0.000000 0.040007 -0.009692 0.000000 0.044581 0.001062 0.000000 0.049968 0.013095 0.000000 0.053344 0.026361 0.000000 0.057341 0.039910 0.000000 0.059174 0.054588 0.000000 0.061298 0.068062 0.000000 0.061533 0.081960 0.000000 0.061931 0.092417 0.000000 0.061550 0.101438 0.000000 0.062030 0.103829 0.000000 0.064138 0.101496 0.000000 0.068766 0.088456 0.000000 0.079163 0.065705 0.000000 0.093757 0.027765 0.000000 0.123536 -0.029401 0.000000 0.167086 -0.081933 0.000000 0.229811 -0.125908 0.000000 0.322221 -0.154105 0.000000 0.351242 -0.202748 0.000000 0.308864 -0.222694 0.000000 0.212154 -0.094917 0.000000 0.104673 0.003851 0.000000 0.043794 0.036175 0.000000 -0.006209 0.056848 0.000000 -0.015147 0.049189 0.000000 0.000336 0.058902 0.000000 0.013397 0.051661 0.000000 0.024722 0.057506 0.000000 -0.010714 0.051318 0.000000 -0.065542 0.021739 0.000000 -0.157277 -0.034961 0.000000 -0.249027 -0.147335 0.000000 -0.298540 -0.197633 0.000000 -0.310129 -0.142658 0.000000 -0.241403 -0.105994 0.000000 -0.172326 -0.081225 0.000000 -0.128614 -0.036423 0.000000 -0.095241 0.002744 0.000000 -0.069939 0.039909 0.000000 -0.055741 0.067914 0.000000 -0.048731 0.086654 0.000000 -0.047148 0.095110 0.000000 -0.047344 0.096411 0.000000 -0.049530 0.090963 0.000000 -0.050430 0.081949 0.000000 -0.051869 0.069803 0.000000 -0.051028 0.056373 0.000000 -0.050220 0.042413 0.000000 -0.047292 0.028298 0.000000 -0.044264 0.015250 0.000000 -0.039716 0.002557 0.000000 -0.035016 -0.008182 0.000000 -0.029432 -0.018308 0.000000 -0.023618 -0.026006 0.000000 -0.017461 -0.032918 0.000000 -0.010963 -0.037164 0.000000 -0.004577 -0.040493 0.000000 
0.002599 -0.047939 0.000000 0.009051 -0.047561 0.000000 0.016211 -0.044323 0.000000 0.022381 -0.040124 0.000000 0.029484 -0.033316 0.000000 0.035159 -0.025497 0.000000 0.041970 -0.015510 0.000000 0.046892 -0.004416 0.000000 0.053041 0.008169 0.000000 0.056876 0.021970 0.000000 0.061828 0.036228 0.000000 0.064280 0.051563 0.000000 0.067575 0.065722 0.000000 0.068873 0.079977 0.000000 0.070955 0.090498 0.000000 0.072872 0.098641 0.000000 0.076463 0.099343 0.000000 0.083501 0.094026 0.000000 0.093866 0.076494 0.000000 0.113030 0.049216 0.000000 0.133320 0.002009 0.000000 0.183767 -0.066511 0.000000 0.247480 -0.140570 0.000000 0.302079 -0.228679 0.000000 0.232328 -0.209850 0.000000 0.075490 -0.060576 0.000000 -0.100082 0.050267 0.000000 -0.192131 0.100276 0.000000 -0.156530 0.049985 0.000000 -0.113082 0.003960 0.000000 -0.057451 -0.006863 0.000000 -0.030615 -0.040105 0.000000 -0.013757 -0.040063 0.000000 0.000281 -0.046015 0.000000 0.024391 -0.022338 0.000000 0.071752 -0.002080 0.000000 0.139473 0.028651 0.000000 0.185319 0.082348 0.000000 0.167388 0.073530 0.000000 0.048252 0.016471 0.000000 -0.106606 -0.104345 0.000000 -0.212363 -0.197402 0.000000 -0.228452 -0.152520 0.000000 -0.171178 -0.081393 0.000000 -0.131517 -0.033113 0.000000 -0.097141 0.015347 0.000000 -0.076456 0.053919 0.000000 -0.064195 0.080784 0.000000 -0.058458 0.093151 0.000000 -0.055924 0.097103 0.000000 -0.055887 0.092008 0.000000 -0.055497 0.082778 0.000000 -0.055953 0.069734 0.000000 -0.054416 0.055118 0.000000 -0.053080 0.040113 0.000000 -0.049617 0.024808 0.000000 -0.046162 0.010986 0.000000 -0.041155 -0.002575 0.000000 -0.036087 -0.013772 0.000000 -0.030151 -0.024446 0.000000 -0.024056 -0.032371 0.000000 -0.017667 -0.039601 0.000000 -0.010966 -0.043915 0.000000 -0.004432 -0.047404 0.000000 