# vtk DataFile Version 2.0
Comment goes here
ASCII

DATASET STRUCTURED_POINTS
FIELD FieldData 1
TIME 1 1 double
1.92000000
DIMENSIONS    64   64   1

ORIGIN    0.000   0.000   0.000
SPACING   0.015625 0.015625   1.000

POINT_DATA   4096
VECTORS u double

0.001755 -0.000000 0.000000 0.000950 -0.000000 0.000000 0.000360 -0.000000 0.000000 -0.000777 -0.000000 0.000000 -0.001906 -0.000000 0.000000 -0.003837 -0.000000 0.000000 -0.005946 -0.000000 0.000000 -0.009040 -0.000000 0.000000 -0.012455 -0.000000 0.000000 -0.016932 -0.000000 0.000000 -0.021805 -0.000000 0.000000 -0.027671 -0.000000 0.000000 -0.033916 -0.000000 0.000000 -0.040908 -0.000000 0.000000 -0.048149 -0.000000 0.000000 -0.055699 -0.000000 0.000000 -0.063237 -0.000000 0.000000 -0.070479 -0.000000 0.000000 -0.077319 -0.000000 0.000000 -0.083153 -0.000000 0.000000 -0.088102 -0.000000 0.000000 -0.091346 -0.000000 0.000000 -0.093205 -0.000000 0.000000 -0.092815 -0.000000 0.000000 -0.090629 -0.000000 0.000000 -0.085940 -0.000000 0.000000 -0.079262 -0.000000 0.000000 -0.070170 -0.000000 0.000000 -0.059217 -0.000000 0.000000 -0.046271 -0.000000 0.000000 -0.032005 -0.000000 0.000000 -0.016500 -0.000000 0.000000 -0.000655 -0.000000 0.000000 0.015413 -0.000000 0.000000 0.030631 -0.000000 0.000000 0.045102 -0.000000 0.000000 0.057765 -0.000000 0.000000 0.069051 -0.000000 0.000000 0.078043 -0.000000 0.000000 0.085353 -0.000000 0.000000 0.090280 -0.000000 0.000000 0.093437 -0.000000 0.000000 0.094396 -0.000000 0.000000 0.093671 -0.000000 0.000000 0.091148 -0.000000 0.000000 0.087215 -0.000000 0.000000 0.082037 -0.000000 0.000000 0.075880 -0.000000 0.000000 0.069093 -0.000000 0.000000 0.061825 -0.000000 0.000000 0.054501 -0.000000 0.000000 0.047157 -0.000000 0.000000 0.040208 -0.000000 0.000000 0.033585 -0.000000 0.000000 0.027653 -0.000000 0.000000 0.022244 -0.000000 0.000000 0.017669 -0.000000 0.000000 0.013660 -0.000000 0.000000 0.010501 -0.000000 0.000000 0.007821 -0.000000 0.000000 0.005908 -0.000000 0.000000 0.004285 -0.000000 0.000000 0.003277 -0.000000 0.000000 0.002304 -0.000000 0.000000 
0.001589 0.000677 0.000000 0.000820 0.000698 0.000000 0.000277 0.000863 0.000000 -0.000823 0.001133 0.000000 -0.001905 0.001530 0.000000 -0.003802 0.002020 0.000000 -0.005866 0.002602 0.000000 -0.008931 0.003255 0.000000 -0.012310 0.003946 0.000000 -0.016764 0.004675 0.000000 -0.021615 0.005369 0.000000 -0.027467 0.006055 0.000000 -0.033712 0.006619 0.000000 -0.040702 0.007116 0.000000 -0.047969 0.007396 0.000000 -0.055530 0.007544 0.000000 -0.063125 0.007390 0.000000 -0.070388 0.007041 0.000000 -0.077307 0.006337 0.000000 -0.083166 0.005392 0.000000 -0.088197 0.004097 0.000000 -0.091457 0.002551 0.000000 -0.093365 0.000734 0.000000 -0.092963 -0.001288 0.000000 -0.090760 -0.003437 0.000000 -0.086016 -0.005683 0.000000 -0.079253 -0.007885 0.000000 -0.070079 -0.010023 0.000000 -0.059027 -0.011949 0.000000 -0.046028 -0.013606 0.000000 -0.031718 -0.014885 0.000000 -0.016214 -0.015675 0.000000 -0.000380 -0.015957 0.000000 0.015675 -0.015643 0.000000 0.030883 -0.014844 0.000000 0.045385 -0.013567 0.000000 0.058083 -0.011975 0.000000 0.069448 -0.010139 0.000000 0.078495 -0.008151 0.000000 0.085880 -0.006119 0.000000 0.090832 -0.004042 0.000000 0.094010 -0.002058 0.000000 0.094945 -0.000117 0.000000 0.094174 0.001624 0.000000 0.091585 0.003228 0.000000 0.087551 0.004555 0.000000 0.082285 0.005668 0.000000 0.076002 0.006472 0.000000 0.069129 0.007027 0.000000 0.061743 0.007296 0.000000 0.054350 0.007334 0.000000 0.046914 0.007147 0.000000 0.039922 0.006786 0.000000 0.033241 0.006277 0.000000 0.027292 0.005671 0.000000 0.021856 0.004992 0.000000 0.017286 0.004292 0.000000 0.013276 0.003584 0.000000 0.010138 0.002920 0.000000 0.007474 0.002297 0.000000 0.005594 0.001768 0.000000 0.003998 0.001315 0.000000 0.003032 0.000990 0.000000 0.002092 0.000761 0.000000 
0.001713 0.001272 0.000000 0.001118 0.001311 0.000000 0.000741 0.001643 0.000000 -0.000185 0.002182 0.000000 -0.001096 0.002978 0.000000 -0.002816 0.003961 0.000000 -0.004703 0.005130 0.000000 -0.007592 0.006444 0.000000 -0.010789 0.007833 0.000000 -0.015072 0.009305 0.000000 -0.019743 0.010703 0.000000 -0.025438 0.012097 0.000000 -0.031514 0.013235 0.000000 -0.038376 0.014257 0.000000 -0.045499 0.014829 0.000000 -0.052972 0.015155 0.000000 -0.060461 0.014857 0.000000 -0.067685 0.014182 0.000000 -0.074551 0.012778 0.000000 -0.080423 0.010890 0.000000 -0.085466 0.008291 0.000000 -0.088793 0.005168 0.000000 -0.090788 0.001506 0.000000 -0.090518 -0.002605 0.000000 -0.088496 -0.006946 0.000000 -0.083976 -0.011507 0.000000 -0.077497 -0.015937 0.000000 -0.068639 -0.020226 0.000000 -0.057915 -0.024051 0.000000 -0.045220 -0.027309 0.000000 -0.031147 -0.029814 0.000000 -0.015820 -0.031338 0.000000 -0.000110 -0.031889 0.000000 0.015801 -0.031263 0.000000 0.030812 -0.029710 0.000000 0.045029 -0.027199 0.000000 0.057363 -0.024063 0.000000 0.068339 -0.020412 0.000000 0.077011 -0.016432 0.000000 0.084078 -0.012337 0.000000 0.088796 -0.008131 0.000000 0.091809 -0.004113 0.000000 0.092653 -0.000163 0.000000 0.091833 0.003361 0.000000 0.089230 0.006623 0.000000 0.085208 0.009300 0.000000 0.079959 0.011548 0.000000 0.073723 0.013156 0.000000 0.066890 0.014260 0.000000 0.059585 0.014779 0.000000 0.052263 0.014829 0.000000 0.044946 0.014428 0.000000 0.038060 0.013673 0.000000 0.031530 0.012630 0.000000 0.025718 0.011385 0.000000 0.020453 0.010006 0.000000 0.016038 0.008580 0.000000 0.012209 0.007148 0.000000 0.009235 0.005802 0.000000 0.006753 0.004544 0.000000 0.005038 0.003476 0.000000 0.003620 0.002562 0.000000 0.002818 0.001906 0.000000 0.002053 0.001443 0.000000 
0.001501 0.001612 0.000000 0.001148 0.001670 0.000000 0.001032 0.002166 0.000000 0.000349 0.002970 0.000000 -0.000296 0.004161 0.000000 -0.001776 0.005628 0.000000 -0.003397 0.007377 0.000000 -0.006053 0.009341 0.000000 -0.008994 0.011426 0.000000 -0.013062 0.013629 0.000000 -0.017506 0.015736 0.000000 -0.023019 0.017827 0.000000 -0.028920 0.019556 0.000000 -0.035648 0.021101 0.000000 -0.042677 0.021992 0.000000 -0.050081 0.022506 0.000000 -0.057577 0.022103 0.000000 -0.064801 0.021131 0.000000 -0.071779 0.019075 0.000000 -0.077712 0.016306 0.000000 -0.082944 0.012466 0.000000 -0.086370 0.007873 0.000000 -0.088565 0.002460 0.000000 -0.088398 -0.003579 0.000000 -0.086509 -0.009979 0.000000 -0.082073 -0.016683 0.000000 -0.075647 -0.023223 0.000000 -0.066884 -0.029604 0.000000 -0.056232 -0.035368 0.000000 -0.043731 -0.040374 0.000000 -0.029840 -0.044285 0.000000 -0.014781 -0.046712 0.000000 0.000675 -0.047578 0.000000 0.016312 -0.046565 0.000000 0.031026 -0.044072 0.000000 0.044990 -0.040118 0.000000 0.057045 -0.035285 0.000000 0.067849 -0.029786 0.000000 0.076323 -0.023890 0.000000 0.083289 -0.017904 0.000000 0.087865 -0.011773 0.000000 0.090795 -0.005914 0.000000 0.091511 -0.000141 0.000000 0.090555 0.005047 0.000000 0.087802 0.009853 0.000000 0.083577 0.013826 0.000000 0.078160 0.017152 0.000000 0.071704 0.019541 0.000000 0.064730 0.021166 0.000000 0.057258 0.021922 0.000000 0.049868 0.021973 0.000000 0.042480 0.021350 0.000000 0.035616 0.020202 0.000000 0.029121 0.018620 0.000000 0.023412 0.016747 0.000000 0.018270 0.014672 0.000000 0.014021 0.012536 0.000000 0.010373 0.010387 0.000000 0.007606 0.008376 0.000000 0.005339 0.006494 0.000000 0.003855 0.004901 0.000000 0.002670 0.003535 0.000000 0.002112 0.002558 0.000000 0.001588 0.001866 0.000000 
0.001586 0.001712 0.000000 0.001599 0.001781 0.000000 0.001846 0.002442 0.000000 0.001531 0.003510 0.000000 0.001260 0.005103 0.000000 0.000154 0.007062 0.000000 -0.001082 0.009406 0.000000 -0.003363 0.012041 0.000000 -0.005915 0.014842 0.000000 -0.009620 0.017817 0.000000 -0.013683 0.020660 0.000000 -0.018866 0.023511 0.000000 -0.024422 0.025864 0.000000 -0.030880 0.028014 0.000000 -0.037627 0.029261 0.000000 -0.044845 0.030055 0.000000 -0.052152 0.029577 0.000000 -0.059286 0.028384 0.000000 -0.066186 0.025690 0.000000 -0.072123 0.022055 0.000000 -0.077390 0.016949 0.000000 -0.080898 0.010789 0.000000 -0.083241 0.003534 0.000000 -0.083246 -0.004661 0.000000 -0.081645 -0.013272 0.000000 -0.077563 -0.022368 0.000000 -0.071655 -0.031126 0.000000 -0.063547 -0.039641 0.000000 -0.053613 -0.047204 0.000000 -0.041838 -0.053701 0.000000 -0.028496 -0.058764 0.000000 -0.013836 -0.061853 0.000000 0.001390 -0.062981 0.000000 0.016754 -0.061615 0.000000 0.031042 -0.058389 0.000000 0.044361 -0.053218 0.000000 0.055554 -0.046922 0.000000 0.065507 -0.039690 0.000000 0.073181 -0.031872 0.000000 0.079569 -0.023880 0.000000 0.083763 -0.015636 0.000000 0.086480 -0.007758 0.000000 0.087112 0.000076 0.000000 0.086124 0.007069 0.000000 0.083375 0.013602 0.000000 0.079147 0.018941 0.000000 0.073727 0.023421 0.000000 0.067279 0.026586 0.000000 0.060319 0.028706 0.000000 0.052913 0.029642 0.000000 0.045607 0.029607 0.000000 0.038379 0.028680 0.000000 0.031692 0.027032 0.000000 0.025448 0.024833 0.000000 0.019999 0.022236 0.000000 0.015175 0.019398 0.000000 0.011240 0.016477 0.000000 0.007947 0.013563 0.000000 0.005522 0.010835 0.000000 0.003624 0.008295 0.000000 0.002492 0.006145 0.000000 0.001677 0.004305 0.000000 0.001474 0.002989 0.000000 0.001316 0.002054 0.000000 
0.001323 0.001329 0.000000 0.001764 0.001410 0.000000 0.002461 0.002234 0.000000 0.002576 0.003556 0.000000 0.002768 0.005538 0.000000 0.002090 0.007970 0.000000 0.001327 0.010895 0.000000 -0.000532 0.014173 0.000000 -0.002615 0.017682 0.000000 -0.005921 0.021397 0.000000 -0.009548 0.024982 0.000000 -0.014378 0.028566 0.000000 -0.019569 0.031570 0.000000 -0.025751 0.034305 0.000000 -0.032254 0.035957 0.000000 -0.039297 0.037031 0.000000 -0.046525 0.036544 0.000000 -0.053600 0.035166 0.000000 -0.060612 0.031911 0.000000 -0.066596 0.027510 0.000000 -0.072143 0.021241 0.000000 -0.075778 0.013724 0.000000 -0.078462 0.004808 0.000000 -0.078624 -0.005176 0.000000 -0.077246 -0.015662 0.000000 -0.073305 -0.026672 0.000000 -0.067459 -0.037239 0.000000 -0.059530 -0.047647 0.000000 -0.049773 -0.057077 0.000000 -0.038545 -0.065492 0.000000 -0.025797 -0.072288 0.000000 -0.011951 -0.076597 0.000000 0.002491 -0.078168 0.000000 0.017045 -0.076217 0.000000 0.030505 -0.071679 0.000000 0.043135 -0.064630 0.000000 0.053662 -0.056431 0.000000 0.063261 -0.047413 0.000000 0.070605 -0.037951 0.000000 0.076874 -0.028486 0.000000 0.080897 -0.018684 0.000000 0.083583 -0.009264 0.000000 0.084105 0.000215 0.000000 0.082984 0.008784 0.000000 0.080074 0.016830 0.000000 0.075565 0.023474 0.000000 0.069923 0.029020 0.000000 0.063151 0.032949 0.000000 0.056003 0.035532 0.000000 0.048374 0.036634 0.000000 0.041007 0.036508 0.000000 0.033738 0.035264 0.000000 0.027148 0.033132 0.000000 0.021046 0.030313 0.000000 0.015830 0.027021 0.000000 0.011285 0.023431 0.000000 0.007680 0.019763 0.000000 0.004753 0.016105 0.000000 0.002714 0.012698 0.000000 0.001225 0.009524 0.000000 0.000508 0.006848 0.000000 0.000117 0.004553 0.000000 0.000343 0.002919 0.000000 0.000613 0.001753 0.000000 
0.001368 0.000561 0.000000 0.002329 0.000642 0.000000 0.003550 0.001631 0.000000 0.004192 0.003204 0.000000 0.004926 0.005588 0.000000 0.004788 0.008503 0.000000 0.004589 0.012029 0.000000 0.003278 0.015983 0.000000 0.001775 0.020231 0.000000 -0.000989 0.024749 0.000000 -0.004041 0.029117 0.000000 -0.008366 0.033533 0.000000 -0.013021 0.037237 0.000000 -0.018772 0.040698 0.000000 -0.024821 0.042807 0.000000 -0.031545 0.044327 0.000000 -0.038443 0.043881 0.000000 -0.045325 0.042471 0.000000 -0.052155 0.038686 0.000000 -0.058053 0.033586 0.000000 -0.063561 0.026131 0.000000 -0.067168 0.017108 0.000000 -0.069927 0.006380 0.000000 -0.070113 -0.005877 0.000000 -0.068963 -0.018590 0.000000 -0.065334 -0.032155 0.000000 -0.060234 -0.044901 0.000000 -0.053504 -0.057328 0.000000 -0.045232 -0.068189 0.000000 -0.035624 -0.077677 0.000000 -0.024054 -0.085358 0.000000 -0.010910 -0.090141 0.000000 0.003355 -0.091977 0.000000 0.017659 -0.089628 0.000000 0.030457 -0.084479 0.000000 0.041821 -0.076375 0.000000 0.050532 -0.067048 0.000000 0.058467 -0.056633 0.000000 0.064388 -0.045485 0.000000 0.069867 -0.034173 0.000000 0.073600 -0.022345 0.000000 0.076312 -0.010967 0.000000 0.077055 0.000674 0.000000 0.076151 0.011101 0.000000 0.073444 0.021021 0.000000 0.069029 0.029092 0.000000 0.063428 0.035834 0.000000 0.056662 0.040506 0.000000 0.049521 0.043483 0.000000 0.041962 0.044638 0.000000 0.034707 0.044243 0.000000 0.027659 0.042539 0.000000 0.021335 0.039725 0.000000 0.015602 0.036151 0.000000 0.010779 0.031996 0.000000 0.006705 0.027548 0.000000 0.003570 0.023009 0.000000 0.001164 0.018529 0.000000 -0.000370 0.014363 0.000000 -0.001324 0.010502 0.000000 -0.001527 0.007253 0.000000 -0.001386 0.004469 0.000000 -0.000648 0.002493 0.000000 0.000145 0.001074 0.000000 
0.001048 -0.000856 0.000000 0.002581 -0.000772 0.000000 0.004397 0.000371 0.000000 0.005612 0.002179 0.000000 0.006966 0.004942 0.000000 0.007407 0.008307 0.000000 0.007855 0.012405 0.000000 0.007123 0.016987 0.000000 0.006282 0.021950 0.000000 0.004081 0.027213 0.000000 0.001676 0.032359 0.000000 -0.002132 0.037547 0.000000 -0.006208 0.041975 0.000000 -0.011527 0.046105 0.000000 -0.017135 0.048730 0.000000 -0.023548 0.050653 0.000000 -0.030221 0.050325 0.000000 -0.036931 0.048878 0.000000 -0.043819 0.044639 0.000000 -0.049681 0.038916 0.000000 -0.055553 0.030356 0.000000 -0.059247 0.020090 0.000000 -0.062550 0.007753 0.000000 -0.062901 -0.006140 0.000000 -0.062044 -0.020441 0.000000 -0.058521 -0.035401 0.000000 -0.053186 -0.049069 0.000000 -0.046350 -0.062649 0.000000 -0.038013 -0.074958 0.000000 -0.029408 -0.086670 0.000000 -0.019213 -0.097001 0.000000 -0.008030 -0.104006 0.000000 0.004310 -0.106737 0.000000 0.016685 -0.103319 0.000000 0.027624 -0.095841 0.000000 0.037598 -0.084706 0.000000 0.045237 -0.073076 0.000000 0.052980 -0.061269 0.000000 0.058853 -0.049352 0.000000 0.064526 -0.037698 0.000000 0.068276 -0.025129 0.000000 0.071269 -0.012719 0.000000 0.072087 0.000376 0.000000 0.071166 0.012395 0.000000 0.068379 0.023953 0.000000 0.063597 0.033490 0.000000 0.057734 0.041387 0.000000 0.050498 0.046857 0.000000 0.043120 0.050233 0.000000 0.035274 0.051448 0.000000 0.027983 0.050810 0.000000 0.020948 0.048636 0.000000 0.014821 0.045190 0.000000 0.009369 0.040869 0.000000 0.004928 0.035918 0.000000 0.001313 0.030640 0.000000 -0.001327 0.025304 0.000000 -0.003181 0.020045 0.000000 -0.004166 0.015186 0.000000 -0.004534 0.010681 0.000000 -0.004168 0.006911 0.000000 -0.003441 0.003674 0.000000 -0.002127 0.001388 0.000000 -0.000757 -0.000263 0.000000 
0.001051 -0.002776 0.000000 0.003201 -0.002707 0.000000 0.005639 -0.001400 0.000000 0.007482 0.000635 0.000000 0.009488 0.003793 0.000000 0.010581 0.007615 0.000000 0.011722 0.012313 0.000000 0.011670 0.017556 0.000000 0.011561 0.023273 0.000000 0.010053 0.029355 0.000000 0.008399 0.035330 0.000000 0.005262 0.041418 0.000000 0.001917 0.046632 0.000000 -0.002802 0.051625 0.000000 -0.007754 0.054828 0.000000 -0.013693 0.057413 0.000000 -0.019844 0.057264 0.000000 -0.026233 0.056070 0.000000 -0.032771 0.051435 0.000000 -0.038416 0.045319 0.000000 -0.044091 0.035697 0.000000 -0.047533 0.024105 0.000000 -0.050682 0.010033 0.000000 -0.050583 -0.006383 0.000000 -0.049486 -0.022970 0.000000 -0.045632 -0.041013 0.000000 -0.041047 -0.057072 0.000000 -0.036360 -0.072500 0.000000 -0.031171 -0.085131 0.000000 -0.026251 -0.096477 0.000000 -0.018581 -0.106736 0.000000 -0.008310 -0.113665 0.000000 0.004720 -0.116691 0.000000 0.017655 -0.112943 0.000000 0.027994 -0.105393 0.000000 0.035528 -0.093988 0.000000 0.039220 -0.082430 0.000000 0.043654 -0.070249 0.000000 0.047097 -0.057031 0.000000 0.052036 -0.043596 0.000000 0.056285 -0.029088 0.000000 0.060175 -0.014778 0.000000 0.062039 0.000778 0.000000 0.061919 0.014808 0.000000 0.059745 0.028590 0.000000 0.055220 0.039738 0.000000 0.049441 0.048933 0.000000 0.042183 0.055119 0.000000 0.034777 0.058706 0.000000 0.027005 0.059775 0.000000 0.019867 0.058569 0.000000 0.013146 0.055700 0.000000 0.007403 0.051304 0.000000 0.002470 0.046045 0.000000 -0.001427 0.040052 0.000000 -0.004408 0.033803 0.000000 -0.006427 0.027504 0.000000 -0.007608 0.021368 0.000000 -0.007952 0.015716 0.000000 -0.007654 0.010504 0.000000 -0.006657 0.006159 0.000000 -0.005286 0.002428 0.000000 -0.003357 -0.000191 0.000000 -0.001363 -0.002100 0.000000 
0.000672 -0.005419 0.000000 0.003469 -0.005360 0.000000 0.006580 -0.003909 0.000000 0.009072 -0.001669 0.000000 0.011789 0.001843 0.000000 0.013548 0.006073 0.000000 0.015453 0.011316 0.000000 0.016084 0.017148 0.000000 0.016789 0.023567 0.000000 0.015967 0.030375 0.000000 0.015151 0.037150 0.000000 0.012669 0.044028 0.000000 0.010128 0.050039 0.000000 0.005983 0.055776 0.000000 0.001711 0.059621 0.000000 -0.003783 0.062743 0.000000 -0.009495 0.062866 0.000000 -0.015585 0.061805 0.000000 -0.022057 0.056822 0.000000 -0.027516 0.050236 0.000000 -0.033650 0.039473 0.000000 -0.037032 0.026680 0.000000 -0.041202 0.010803 0.000000 -0.041287 -0.007335 0.000000 -0.040789 -0.025392 0.000000 -0.037209 -0.043841 0.000000 -0.031468 -0.058341 0.000000 -0.025010 -0.072525 0.000000 -0.017912 -0.085067 0.000000 -0.014097 -0.099260 0.000000 -0.009236 -0.114942 0.000000 -0.003520 -0.127307 0.000000 0.004716 -0.132702 0.000000 0.012940 -0.126593 0.000000 0.019122 -0.113714 0.000000 0.024167 -0.095932 0.000000 0.026908 -0.081202 0.000000 0.032885 -0.069146 0.000000 0.037995 -0.057734 0.000000 0.043926 -0.046886 0.000000 0.048371 -0.033268 0.000000 0.053134 -0.018473 0.000000 0.055381 -0.001368 0.000000 0.055399 0.014689 0.000000 0.053322 0.030652 0.000000 0.048226 0.043794 0.000000 0.042098 0.054424 0.000000 0.034107 0.061520 0.000000 0.026387 0.065410 0.000000 0.018255 0.066358 0.000000 0.011136 0.064669 0.000000 0.004546 0.061100 0.000000 -0.000850 0.055866 0.000000 -0.005296 0.049699 0.000000 -0.008635 0.042796 0.000000 -0.010943 0.035639 0.000000 -0.012305 0.028505 0.000000 -0.012751 0.021570 0.000000 -0.012411 0.015231 0.000000 -0.011384 0.009386 0.000000 -0.009711 0.004543 0.000000 -0.007644 0.000374 0.000000 -0.005055 -0.002535 0.000000 -0.002397 -0.004670 0.000000 
0.000633 -0.008643 0.000000 0.004058 -0.008615 0.000000 0.007803 -0.007003 0.000000 0.010940 -0.004575 0.000000 0.014334 -0.000683 0.000000 0.016781 0.003951 0.000000 0.019428 0.009776 0.000000 0.020801 0.016219 0.000000 0.022321 0.023390 0.000000 0.022286 0.030993 0.000000 0.022344 0.038629 0.000000 0.020661 0.046441 0.000000 0.019012 0.053317 0.000000 0.015610 0.060042 0.000000 0.012179 0.064594 0.000000 0.007277 0.068619 0.000000 0.002266 0.069066 0.000000 -0.003445 0.068632 0.000000 -0.009401 0.063366 0.000000 -0.014575 0.056912 0.000000 -0.020305 0.045213 0.000000 -0.023107 0.031657 0.000000 -0.026697 0.014288 0.000000 -0.025255 -0.006796 0.000000 -0.022830 -0.027048 0.000000 -0.016008 -0.050334 0.000000 -0.009834 -0.069272 0.000000 -0.007416 -0.086056 0.000000 -0.007525 -0.096044 0.000000 -0.012585 -0.105152 0.000000 -0.013409 -0.117314 0.000000 -0.008243 -0.127617 0.000000 0.003846 -0.133151 0.000000 0.015567 -0.127349 0.000000 0.022213 -0.116620 0.000000 0.022167 -0.101773 0.000000 0.015479 -0.091148 0.000000 0.014292 -0.081335 0.000000 0.015139 -0.068071 0.000000 0.021441 -0.053972 0.000000 0.029387 -0.038296 0.000000 0.037390 -0.021788 0.000000 0.042342 -0.001488 0.000000 0.044213 0.016868 0.000000 0.043402 0.035764 0.000000 0.038697 0.050962 0.000000 0.032547 0.063053 0.000000 0.024382 0.070830 0.000000 0.016508 0.074558 0.000000 0.008449 0.075026 0.000000 0.001550 0.072279 0.000000 -0.004572 0.067686 0.000000 -0.009410 0.061145 0.000000 -0.013140 0.053830 0.000000 -0.015758 0.045699 0.000000 -0.017263 0.037473 0.000000 -0.017868 0.029313 0.000000 -0.017523 0.021474 0.000000 -0.016453 0.014349 0.000000 -0.014687 0.007804 0.000000 -0.012333 0.002419 0.000000 -0.009584 -0.002228 0.000000 -0.006356 -0.005438 0.000000 -0.003057 -0.007828 0.000000 
0.000201 -0.012535 0.000000 0.004256 -0.012529 0.000000 0.008651 -0.010791 0.000000 0.012422 -0.008201 0.000000 0.016522 -0.003998 0.000000 0.019633 0.000979 0.000000 0.023071 0.007295 0.000000 0.025149 0.014254 0.000000 0.027557 0.022082 0.000000 0.028253 0.030353 0.000000 0.029278 0.038776 0.000000 0.028311 0.047360 0.000000 0.027652 0.055089 0.000000 0.024881 0.062610 0.000000 0.022352 0.067954 0.000000 0.017916 0.072656 0.000000 0.013580 0.073587 0.000000 0.008193 0.073471 0.000000 0.002574 0.067952 0.000000 -0.002127 0.061140 0.000000 -0.008057 0.048005 0.000000 -0.009972 0.033073 0.000000 -0.015274 0.012950 0.000000 -0.013417 -0.011203 0.000000 -0.012719 -0.034639 0.000000 -0.008525 -0.056836 0.000000 0.000116 -0.066933 0.000000 0.010550 -0.074834 0.000000 0.020773 -0.079898 0.000000 0.017827 -0.093375 0.000000 0.012012 -0.119285 0.000000 0.005239 -0.144562 0.000000 0.002131 -0.156513 0.000000 -0.001219 -0.144960 0.000000 -0.005944 -0.120313 0.000000 -0.009941 -0.089199 0.000000 -0.013667 -0.073327 0.000000 -0.004980 -0.068805 0.000000 0.003786 -0.064883 0.000000 0.011249 -0.061134 0.000000 0.017494 -0.049218 0.000000 0.027165 -0.031428 0.000000 0.033238 -0.008191 0.000000 0.035645 0.013629 0.000000 0.035715 0.036168 0.000000 0.030221 0.054649 0.000000 0.023673 0.068738 0.000000 0.014414 0.077560 0.000000 0.006168 0.081344 0.000000 -0.002245 0.081316 0.000000 -0.008974 0.077689 0.000000 -0.014704 0.072061 0.000000 -0.018965 0.064434 0.000000 -0.021901 0.056047 0.000000 -0.023758 0.046919 0.000000 -0.024347 0.037749 0.000000 -0.024154 0.028764 0.000000 -0.022916 0.020155 0.000000 -0.021083 0.012395 0.000000 -0.018505 0.005266 0.000000 -0.015445 -0.000560 0.000000 -0.011970 -0.005603 0.000000 -0.008084 -0.009062 0.000000 -0.004125 -0.011659 0.000000 
0.000124 -0.017023 0.000000 0.004708 -0.017065 0.000000 0.009639 -0.015169 0.000000 0.013963 -0.012446 0.000000 0.018655 -0.007894 0.000000 0.022380 -0.002597 0.000000 0.026500 0.004260 0.000000 0.029274 0.011733 0.000000 0.032470 0.020285 0.000000 0.033943 0.029272 0.000000 0.035853 0.038570 0.000000 0.035707 0.048067 0.000000 0.035982 0.056748 0.000000 0.033982 0.065342 0.000000 0.032350 0.071558 0.000000 0.028473 0.077391 0.000000 0.024884 0.078789 0.000000 0.019704 0.079638 0.000000 0.014712 0.073686 0.000000 0.010225 0.067542 0.000000 0.005258 0.053059 0.000000 0.004788 0.038874 0.000000 0.001015 0.017733 0.000000 0.006480 -0.009351 0.000000 0.014961 -0.031939 0.000000 0.034389 -0.063169 0.000000 0.049350 -0.088347 0.000000 0.050177 -0.106714 0.000000 0.041736 -0.103320 0.000000 0.017767 -0.096391 0.000000 0.000052 -0.104726 0.000000 -0.005849 -0.117735 0.000000 -0.000085 -0.126693 0.000000 0.004180 -0.119274 0.000000 0.002145 -0.107898 0.000000 -0.012664 -0.094051 0.000000 -0.039224 -0.096109 0.000000 -0.048075 -0.098788 0.000000 -0.048336 -0.084300 0.000000 -0.035410 -0.067681 0.000000 -0.014860 -0.054213 0.000000 0.003924 -0.037531 0.000000 0.015336 -0.009968 0.000000 0.021652 0.014390 0.000000 0.024626 0.041188 0.000000 0.019921 0.063004 0.000000 0.013134 0.078860 0.000000 0.003547 0.088336 0.000000 -0.004952 0.091216 0.000000 -0.013148 0.090168 0.000000 -0.019440 0.084738 0.000000 -0.024414 0.077677 0.000000 -0.027856 0.068342 0.000000 -0.029834 0.058623 0.000000 -0.030792 0.048144 0.000000 -0.030438 0.037869 0.000000 -0.029408 0.027882 0.000000 -0.027329 0.018403 0.000000 -0.024763 0.009937 0.000000 -0.021465 0.002166 0.000000 -0.017772 -0.004116 0.000000 -0.013680 -0.009589 0.000000 -0.009236 -0.013283 0.000000 -0.004725 -0.016113 0.000000 
-0.000348 -0.021969 0.000000 0.004734 -0.022044 0.000000 0.010173 -0.020046 0.000000 0.015001 -0.017217 0.000000 0.020269 -0.012414 0.000000 0.024544 -0.006866 0.000000 0.029355 0.000401 0.000000 0.032739 0.008284 0.000000 0.036766 0.017412 0.000000 0.038887 0.026970 0.000000 0.041753 0.037013 0.000000 0.042222 0.047231 0.000000 0.043509 0.056814 0.000000 0.041970 0.066242 0.000000 0.041277 0.073464 0.000000 0.037555 0.080122 0.000000 0.034735 0.082355 0.000000 0.029491 0.083643 0.000000 0.025424 0.077431 0.000000 0.021942 0.070594 0.000000 0.019170 0.053443 0.000000 0.023592 0.037315 0.000000 0.019434 0.011258 0.000000 0.032085 -0.025148 0.000000 0.036678 -0.062548 0.000000 0.038213 -0.091225 0.000000 0.049237 -0.082722 0.000000 0.076665 -0.067220 0.000000 0.112814 -0.047488 0.000000 0.118493 -0.051691 0.000000 0.101294 -0.095669 0.000000 0.057028 -0.144425 0.000000 -0.002224 -0.166541 0.000000 -0.062139 -0.147189 0.000000 -0.106212 -0.103470 0.000000 -0.120921 -0.047830 0.000000 -0.112138 -0.037916 0.000000 -0.075894 -0.059694 0.000000 -0.051479 -0.077548 0.000000 -0.048059 -0.094610 0.000000 -0.044367 -0.088551 0.000000 -0.023146 -0.061624 0.000000 -0.005282 -0.025919 0.000000 0.004512 0.004339 0.000000 0.012593 0.037899 0.000000 0.008202 0.066141 0.000000 0.001696 0.085113 0.000000 -0.008897 0.095646 0.000000 -0.017403 0.098039 0.000000 -0.025491 0.095804 0.000000 -0.031198 0.088955 0.000000 -0.035233 0.080477 0.000000 -0.037796 0.069855 0.000000 -0.038582 0.058984 0.000000 -0.038616 0.047523 0.000000 -0.037124 0.036364 0.000000 -0.035238 0.025656 0.000000 -0.032188 0.015511 0.000000 -0.028879 0.006531 0.000000 -0.024788 -0.001725 0.000000 -0.020466 -0.008345 0.000000 -0.015730 -0.014139 0.000000 -0.010746 -0.018016 0.000000 -0.005693 -0.021019 0.000000 
-0.000459 -0.027450 0.000000 0.004931 -0.027586 0.000000 0.010680 -0.025436 0.000000 0.015846 -0.022542 0.000000 0.021489 -0.017436 0.000000 0.026176 -0.011683 0.000000 0.031467 -0.003935 0.000000 0.035361 0.004322 0.000000 0.039986 0.014137 0.000000 0.042703 0.024286 0.000000 0.046252 0.035235 0.000000 0.047347 0.046311 0.000000 0.049324 0.057001 0.000000 0.048322 0.067575 0.000000 0.048232 0.075973 0.000000 0.044747 0.083932 0.000000 0.042397 0.086853 0.000000 0.036798 0.088949 0.000000 0.033354 0.081235 0.000000 0.029643 0.073796 0.000000 0.029844 0.051408 0.000000 0.039338 0.038611 0.000000 0.038825 0.009240 0.000000 0.053686 -0.026595 0.000000 0.085600 -0.038067 0.000000 0.152600 -0.075728 0.000000 0.187830 -0.126799 0.000000 0.176706 -0.170291 0.000000 0.153015 -0.145148 0.000000 0.133593 -0.084871 0.000000 0.111115 -0.043262 0.000000 0.062485 -0.014218 0.000000 -0.002660 -0.007526 0.000000 -0.066419 -0.015286 0.000000 -0.122114 -0.049116 0.000000 -0.150456 -0.088125 0.000000 -0.162553 -0.141135 0.000000 -0.181268 -0.159446 0.000000 -0.195662 -0.112135 0.000000 -0.163044 -0.074794 0.000000 -0.102002 -0.079125 0.000000 -0.063938 -0.076616 0.000000 -0.039794 -0.037625 0.000000 -0.021571 -0.003485 0.000000 -0.004161 0.037497 0.000000 -0.005154 0.073901 0.000000 -0.011519 0.095960 0.000000 -0.021589 0.107435 0.000000 -0.029596 0.107810 0.000000 -0.036623 0.103963 0.000000 -0.041221 0.094481 0.000000 -0.044015 0.084274 0.000000 -0.045460 0.071691 0.000000 -0.045115 0.059443 0.000000 -0.044198 0.046686 0.000000 -0.041764 0.034491 0.000000 -0.039112 0.022946 0.000000 -0.035320 0.012044 0.000000 -0.031414 0.002537 0.000000 -0.026760 -0.006247 0.000000 -0.021986 -0.013173 0.000000 -0.016828 -0.019308 0.000000 -0.011494 -0.023320 0.000000 -0.006105 -0.026512 0.000000 
-0.000944 -0.033005 0.000000 0.004684 -0.033183 0.000000 0.010665 -0.030961 0.000000 0.016083 -0.028026 0.000000 0.022032 -0.022744 0.000000 0.027030 -0.016844 0.000000 0.032758 -0.008784 0.000000 0.037028 -0.000235 0.000000 0.042243 0.010070 0.000000 0.045342 0.020704 0.000000 0.049587 0.032368 0.000000 0.050919 0.044159 0.000000 0.053561 0.055839 0.000000 0.052417 0.067334 0.000000 0.052786 0.077040 0.000000 0.048523 0.085956 0.000000 0.046436 0.090304 0.000000 0.039308 0.092686 0.000000 0.037070 0.084586 0.000000 0.033288 0.074104 0.000000 0.043237 0.043748 0.000000 0.067205 0.028335 0.000000 0.082921 -0.003090 0.000000 0.146235 -0.071924 0.000000 0.182005 -0.161461 0.000000 0.182155 -0.193455 0.000000 0.102108 -0.106828 0.000000 -0.003334 -0.032406 0.000000 -0.074609 -0.004374 0.000000 -0.104209 -0.009791 0.000000 -0.099168 -0.024561 0.000000 -0.065050 -0.030650 0.000000 -0.004397 -0.037637 0.000000 0.053722 -0.027736 0.000000 0.091334 -0.019432 0.000000 0.090454 -0.007391 0.000000 0.059031 -0.007104 0.000000 -0.006176 -0.026584 0.000000 -0.107324 -0.095773 0.000000 -0.169408 -0.188270 0.000000 -0.202308 -0.187658 0.000000 -0.179015 -0.123832 0.000000 -0.100956 -0.068286 0.000000 -0.065983 -0.031294 0.000000 -0.031069 0.021483 0.000000 -0.025505 0.073498 0.000000 -0.028876 0.101547 0.000000 -0.037813 0.113723 0.000000 -0.043944 0.113074 0.000000 -0.049178 0.107429 0.000000 -0.052380 0.096347 0.000000 -0.053407 0.084716 0.000000 -0.053844 0.070954 0.000000 -0.052024 0.057722 0.000000 -0.050272 0.044172 0.000000 -0.046673 0.031278 0.000000 -0.043308 0.019212 0.000000 -0.038644 0.007812 0.000000 -0.034168 -0.002029 0.000000 -0.028899 -0.011153 0.000000 -0.023706 -0.018277 0.000000 -0.018130 -0.024630 0.000000 -0.012500 -0.028739 0.000000 -0.006820 -0.032054 0.000000 