# vtk DataFile Version 2.0
Comment goes here
ASCII

DATASET STRUCTURED_POINTS
FIELD FieldData 1
TIME 1 1 double
1.42000000
DIMENSIONS    64   64   1

ORIGIN    0.000   0.000   0.000
SPACING   0.015625 0.015625   1.000

POINT_DATA   4096
VECTORS u double

0.001980 0.000000 0.000000 0.001427 0.000000 0.000000 0.001071 0.000000 0.000000 0.000038 0.000000 0.000000 -0.001048 0.000000 0.000000 -0.003125 0.000000 0.000000 -0.005484 0.000000 0.000000 -0.009068 0.000000 0.000000 -0.013110 0.000000 0.000000 -0.018492 0.000000 0.000000 -0.024422 0.000000 0.000000 -0.031645 0.000000 0.000000 -0.039381 0.000000 0.000000 -0.048162 0.000000 0.000000 -0.057254 0.000000 0.000000 -0.066912 0.000000 0.000000 -0.076496 0.000000 0.000000 -0.085938 0.000000 0.000000 -0.094761 0.000000 0.000000 -0.102558 0.000000 0.000000 -0.109118 0.000000 0.000000 -0.113708 0.000000 0.000000 -0.116526 0.000000 0.000000 -0.116523 0.000000 0.000000 -0.114448 0.000000 0.000000 -0.108951 0.000000 0.000000 -0.101404 0.000000 0.000000 -0.090226 0.000000 0.000000 -0.077347 0.000000 0.000000 -0.061176 0.000000 0.000000 -0.043977 0.000000 0.000000 -0.024483 0.000000 0.000000 -0.004938 0.000000 0.000000 0.015382 0.000000 0.000000 0.034647 0.000000 0.000000 0.053047 0.000000 0.000000 0.069464 0.000000 0.000000 0.083716 0.000000 0.000000 0.095445 0.000000 0.000000 0.104289 0.000000 0.000000 0.110497 0.000000 0.000000 0.113671 0.000000 0.000000 0.114459 0.000000 0.000000 0.112527 0.000000 0.000000 0.108730 0.000000 0.000000 0.102862 0.000000 0.000000 0.095803 0.000000 0.000000 0.087484 -0.000000 0.000000 0.078675 -0.000000 0.000000 0.069404 -0.000000 0.000000 0.060256 -0.000000 0.000000 0.051294 -0.000000 0.000000 0.042913 -0.000000 0.000000 0.035149 -0.000000 0.000000 0.028248 0.000000 0.000000 0.022167 0.000000 0.000000 0.017067 0.000000 0.000000 0.012788 0.000000 0.000000 0.009477 0.000000 0.000000 0.006828 0.000000 0.000000 0.005033 0.000000 0.000000 0.003629 0.000000 0.000000 0.002897 0.000000 0.000000 0.002216 0.000000 0.000000 
0.002167 0.000394 0.000000 0.001667 0.000454 0.000000 0.001368 0.000694 0.000000 0.000391 0.001059 0.000000 -0.000638 0.001582 0.000000 -0.002654 0.002218 0.000000 -0.004954 0.002971 0.000000 -0.008467 0.003813 0.000000 -0.012446 0.004712 0.000000 -0.017743 0.005656 0.000000 -0.023604 0.006577 0.000000 -0.030723 0.007480 0.000000 -0.038376 0.008258 0.000000 -0.047028 0.008936 0.000000 -0.056014 0.009375 0.000000 -0.065514 0.009621 0.000000 -0.074955 0.009513 0.000000 -0.084205 0.009132 0.000000 -0.092833 0.008310 0.000000 -0.100406 0.007179 0.000000 -0.106723 0.005575 0.000000 -0.111082 0.003704 0.000000 -0.113645 0.001407 0.000000 -0.113466 -0.001039 0.000000 -0.111224 -0.003786 0.000000 -0.105710 -0.006522 0.000000 -0.098226 -0.009362 0.000000 -0.087295 -0.012029 0.000000 -0.074806 -0.014525 0.000000 -0.059167 -0.016685 0.000000 -0.042619 -0.018346 0.000000 -0.023837 -0.019520 0.000000 -0.005044 -0.019933 0.000000 0.014512 -0.019792 0.000000 0.033063 -0.018833 0.000000 0.050774 -0.017408 0.000000 0.066651 -0.015334 0.000000 0.080449 -0.012991 0.000000 0.091940 -0.010287 0.000000 0.100670 -0.007526 0.000000 0.106941 -0.004691 0.000000 0.110267 -0.001981 0.000000 0.111292 0.000572 0.000000 0.109646 0.002865 0.000000 0.106132 0.004833 0.000000 0.100573 0.006463 0.000000 0.093772 0.007689 0.000000 0.085731 0.008564 0.000000 0.077135 0.009040 0.000000 0.068092 0.009210 0.000000 0.059114 0.009055 0.000000 0.050332 0.008672 0.000000 0.042088 0.008072 0.000000 0.034465 0.007332 0.000000 0.027677 0.006491 0.000000 0.021706 0.005590 0.000000 0.016702 0.004689 0.000000 0.012510 0.003795 0.000000 0.009281 0.002980 0.000000 0.006702 0.002222 0.000000 0.004980 0.001599 0.000000 0.003636 0.001068 0.000000 0.002969 0.000707 0.000000 0.002342 0.000458 0.000000 
0.001989 0.000675 0.000000 0.001635 0.000798 0.000000 0.001486 0.001276 0.000000 0.000651 0.002006 0.000000 -0.000226 0.003045 0.000000 -0.002106 0.004316 0.000000 -0.004256 0.005813 0.000000 -0.007649 0.007492 0.000000 -0.011489 0.009276 0.000000 -0.016691 0.011157 0.000000 -0.022438 0.012980 0.000000 -0.029506 0.014772 0.000000 -0.037092 0.016305 0.000000 -0.045757 0.017638 0.000000 -0.054746 0.018486 0.000000 -0.064340 0.018941 0.000000 -0.073875 0.018691 0.000000 -0.083304 0.017878 0.000000 -0.092120 0.016202 0.000000 -0.099941 0.013890 0.000000 -0.106520 0.010676 0.000000 -0.111153 0.006922 0.000000 -0.114007 0.002384 0.000000 -0.114070 -0.002421 0.000000 -0.112094 -0.007756 0.000000 -0.106728 -0.012998 0.000000 -0.099407 -0.018415 0.000000 -0.088454 -0.023420 0.000000 -0.075918 -0.028128 0.000000 -0.060037 -0.032187 0.000000 -0.043217 -0.035330 0.000000 -0.024028 -0.037575 0.000000 -0.004834 -0.038350 0.000000 0.015168 -0.038107 0.000000 0.034096 -0.036261 0.000000 0.052140 -0.033588 0.000000 0.068226 -0.029676 0.000000 0.082124 -0.025290 0.000000 0.093574 -0.020220 0.000000 0.102147 -0.015000 0.000000 0.108179 -0.009597 0.000000 0.111195 -0.004351 0.000000 0.111906 0.000622 0.000000 0.109903 0.005160 0.000000 0.106084 0.009073 0.000000 0.100197 0.012359 0.000000 0.093147 0.014842 0.000000 0.084849 0.016637 0.000000 0.076080 0.017640 0.000000 0.066873 0.018021 0.000000 0.057801 0.017760 0.000000 0.048949 0.017026 0.000000 0.040684 0.015867 0.000000 0.033069 0.014411 0.000000 0.026318 0.012759 0.000000 0.020414 0.010975 0.000000 0.015489 0.009196 0.000000 0.011403 0.007421 0.000000 0.008281 0.005808 0.000000 0.005832 0.004301 0.000000 0.004234 0.003066 0.000000 0.003031 0.002011 0.000000 0.002501 0.001294 0.000000 0.002020 0.000802 0.000000 
0.002188 0.000779 0.000000 0.002080 0.000957 0.000000 0.002190 0.001678 0.000000 0.001603 0.002771 0.000000 0.000987 0.004340 0.000000 -0.000642 0.006249 0.000000 -0.002530 0.008514 0.000000 -0.005665 0.011045 0.000000 -0.009248 0.013754 0.000000 -0.014193 0.016605 0.000000 -0.019695 0.019392 0.000000 -0.026511 0.022134 0.000000 -0.033874 0.024509 0.000000 -0.042301 0.026591 0.000000 -0.051093 0.027958 0.000000 -0.060466 0.028749 0.000000 -0.069816 0.028477 0.000000 -0.079031 0.027378 0.000000 -0.087639 0.024947 0.000000 -0.095230 0.021578 0.000000 -0.101536 0.016786 0.000000 -0.105913 0.011191 0.000000 -0.108447 0.004325 0.000000 -0.108292 -0.002952 0.000000 -0.106102 -0.011128 0.000000 -0.100739 -0.019209 0.000000 -0.093598 -0.027636 0.000000 -0.083087 -0.035517 0.000000 -0.071344 -0.042942 0.000000 -0.056381 -0.049386 0.000000 -0.040750 -0.054356 0.000000 -0.022717 -0.057903 0.000000 -0.004781 -0.059129 0.000000 0.013995 -0.058722 0.000000 0.031716 -0.055805 0.000000 0.048544 -0.051538 0.000000 0.063629 -0.045318 0.000000 0.076620 -0.038339 0.000000 0.087558 -0.030310 0.000000 0.095818 -0.022132 0.000000 0.101866 -0.013739 0.000000 0.105017 -0.005708 0.000000 0.106018 0.001864 0.000000 0.104340 0.008686 0.000000 0.100858 0.014539 0.000000 0.095319 0.019401 0.000000 0.088562 0.023036 0.000000 0.080584 0.025631 0.000000 0.072066 0.027017 0.000000 0.063152 0.027488 0.000000 0.054319 0.026979 0.000000 0.045748 0.025789 0.000000 0.037728 0.023952 0.000000 0.030391 0.021698 0.000000 0.023896 0.019146 0.000000 0.018268 0.016420 0.000000 0.013606 0.013700 0.000000 0.009790 0.011003 0.000000 0.006934 0.008552 0.000000 0.004746 0.006269 0.000000 0.003412 0.004400 0.000000 0.002463 0.002802 0.000000 0.002193 0.001718 0.000000 0.001961 0.000971 0.000000 
0.002014 0.000556 0.000000 0.002247 0.000796 0.000000 0.002706 0.001753 0.000000 0.002457 0.003209 0.000000 0.002197 0.005290 0.000000 0.000899 0.007833 0.000000 -0.000631 0.010837 0.000000 -0.003450 0.014211 0.000000 -0.006686 0.017803 0.000000 -0.011347 0.021604 0.000000 -0.016538 0.025298 0.000000 -0.023133 0.028952 0.000000 -0.030257 0.032095 0.000000 -0.038563 0.034857 0.000000 -0.047231 0.036651 0.000000 -0.056620 0.037663 0.000000 -0.065998 0.037256 0.000000 -0.075382 0.035702 0.000000 -0.084174 0.032400 0.000000 -0.092060 0.027787 0.000000 -0.098672 0.021359 0.000000 -0.103407 0.013833 0.000000 -0.106317 0.004763 0.000000 -0.106525 -0.004766 0.000000 -0.104769 -0.015310 0.000000 -0.099743 -0.025502 0.000000 -0.093068 -0.036066 0.000000 -0.082774 -0.045674 0.000000 -0.071308 -0.054834 0.000000 -0.056312 -0.062781 0.000000 -0.040687 -0.068994 0.000000 -0.022450 -0.073544 0.000000 -0.004365 -0.075061 0.000000 0.014635 -0.074604 0.000000 0.032493 -0.070810 0.000000 0.049397 -0.065501 0.000000 0.064440 -0.057752 0.000000 0.077212 -0.049218 0.000000 0.087796 -0.039418 0.000000 0.095542 -0.029309 0.000000 0.101063 -0.018796 0.000000 0.103642 -0.008503 0.000000 0.104171 0.001299 0.000000 0.101995 0.010321 0.000000 0.098148 0.018093 0.000000 0.092225 0.024655 0.000000 0.085215 0.029577 0.000000 0.076989 0.033134 0.000000 0.068339 0.035072 0.000000 0.059330 0.035769 0.000000 0.050490 0.035164 0.000000 0.041971 0.033617 0.000000 0.034058 0.031223 0.000000 0.026893 0.028242 0.000000 0.020595 0.024882 0.000000 0.015223 0.021265 0.000000 0.010820 0.017673 0.000000 0.007311 0.014093 0.000000 0.004753 0.010851 0.000000 0.002897 0.007823 0.000000 0.001883 0.005349 0.000000 0.001274 0.003230 0.000000 0.001337 0.001796 0.000000 0.001446 0.000808 0.000000 
0.002231 -0.000022 0.000000 0.002883 0.000266 0.000000 0.003786 0.001469 0.000000 0.003958 0.003280 0.000000 0.004149 0.005897 0.000000 0.003278 0.009076 0.000000 0.002202 0.012863 0.000000 -0.000186 0.017101 0.000000 -0.002976 0.021651 0.000000 -0.007212 0.026457 0.000000 -0.011986 0.031178 0.000000 -0.018181 0.035853 0.000000 -0.024946 0.039938 0.000000 -0.032902 0.043566 0.000000 -0.041292 0.046015 0.000000 -0.050398 0.047516 0.000000 -0.059568 0.047238 0.000000 -0.068719 0.045555 0.000000 -0.077304 0.041626 0.000000 -0.084936 0.036076 0.000000 -0.091210 0.028133 0.000000 -0.095583 0.018836 0.000000 -0.097943 0.007443 0.000000 -0.097707 -0.004500 0.000000 -0.095395 -0.017911 0.000000 -0.090148 -0.030909 0.000000 -0.083508 -0.044605 0.000000 -0.073736 -0.057278 0.000000 -0.063593 -0.069404 0.000000 -0.050075 -0.080007 0.000000 -0.036486 -0.088218 0.000000 -0.020056 -0.094225 0.000000 -0.003942 -0.096213 0.000000 0.013190 -0.095581 0.000000 0.029121 -0.090567 0.000000 0.043960 -0.083484 0.000000 0.057283 -0.073133 0.000000 0.068458 -0.061695 0.000000 0.078266 -0.048640 0.000000 0.085682 -0.035398 0.000000 0.091441 -0.021840 0.000000 0.094393 -0.008816 0.000000 0.095490 0.003512 0.000000 0.093843 0.014709 0.000000 0.090479 0.024309 0.000000 0.085006 0.032334 0.000000 0.078327 0.038272 0.000000 0.070466 0.042507 0.000000 0.062082 0.044676 0.000000 0.053416 0.045337 0.000000 0.044861 0.044338 0.000000 0.036712 0.042221 0.000000 0.029137 0.039030 0.000000 0.022379 0.035161 0.000000 0.016470 0.030817 0.000000 0.011529 0.026194 0.000000 0.007549 0.021612 0.000000 0.004481 0.017071 0.000000 0.002359 0.012966 0.000000 0.000941 0.009139 0.000000 0.000367 0.006022 0.000000 0.000189 0.003348 0.000000 0.000691 0.001546 0.000000 0.001222 0.000293 0.000000 
0.002060 -0.001105 0.000000 0.003224 -0.000759 0.000000 0.004656 0.000678 0.000000 0.005340 0.002847 0.000000 0.006074 0.005970 0.000000 0.005716 0.009780 0.000000 0.005198 0.014301 0.000000 0.003317 0.019389 0.000000 0.001086 0.024829 0.000000 -0.002668 0.030613 0.000000 -0.006914 0.036267 0.000000 -0.012696 0.041912 0.000000 -0.019018 0.046817 0.000000 -0.026691 0.051204 0.000000 -0.034796 0.054147 0.000000 -0.043819 0.055939 0.000000 -0.052930 0.055576 0.000000 -0.062240 0.053437 0.000000 -0.071013 0.048618 0.000000 -0.079019 0.041693 0.000000 -0.085664 0.032005 0.000000 -0.090518 0.020566 0.000000 -0.093337 0.006888 0.000000 -0.093612 -0.007315 0.000000 -0.091914 -0.022869 0.000000 -0.087251 -0.037388 0.000000 -0.081513 -0.052478 0.000000 -0.072185 -0.065589 0.000000 -0.062560 -0.078495 0.000000 -0.049014 -0.089887 0.000000 -0.035563 -0.099012 0.000000 -0.019069 -0.106089 0.000000 -0.003063 -0.108308 0.000000 0.014045 -0.107667 0.000000 0.029908 -0.101580 0.000000 0.044675 -0.093663 0.000000 0.057898 -0.082251 0.000000 0.068657 -0.070201 0.000000 0.077778 -0.056642 0.000000 0.084158 -0.042483 0.000000 0.088902 -0.027507 0.000000 0.090900 -0.012552 0.000000 0.091308 0.001848 0.000000 0.088979 0.015332 0.000000 0.085189 0.026931 0.000000 0.079254 0.036806 0.000000 0.072317 0.044117 0.000000 0.064203 0.049379 0.000000 0.055722 0.052121 0.000000 0.047030 0.052989 0.000000 0.038554 0.051869 0.000000 0.030592 0.049341 0.000000 0.023259 0.045556 0.000000 0.016854 0.040909 0.000000 0.011309 0.035732 0.000000 0.006826 0.030186 0.000000 0.003288 0.024722 0.000000 0.000729 0.019283 0.000000 -0.000910 0.014391 0.000000 -0.001801 0.009814 0.000000 -0.001873 0.006102 0.000000 -0.001527 0.002906 0.000000 -0.000515 0.000763 0.000000 0.000534 -0.000733 0.000000 
0.002298 -0.002712 0.000000 0.004018 -0.002330 0.000000 0.006047 -0.000647 0.000000 0.007292 0.001862 0.000000 0.008639 0.005520 0.000000 0.008855 0.009952 0.000000 0.008965 0.015262 0.000000 0.007670 0.021212 0.000000 0.006066 0.027637 0.000000 0.002894 0.034457 0.000000 -0.000761 0.041205 0.000000 -0.005998 0.047956 0.000000 -0.011824 0.053934 0.000000 -0.019040 0.059344 0.000000 -0.026805 0.063143 0.000000 -0.035502 0.065649 0.000000 -0.044443 0.065659 0.000000 -0.053542 0.063638 0.000000 -0.062197 0.058405 0.000000 -0.069960 0.050726 0.000000 -0.076220 0.039632 0.000000 -0.080517 0.026509 0.000000 -0.082301 0.010538 0.000000 -0.081551 -0.005924 0.000000 -0.078303 -0.024272 0.000000 -0.072582 -0.041310 0.000000 -0.065862 -0.059671 0.000000 -0.056666 -0.076230 0.000000 -0.049192 -0.092575 0.000000 -0.038126 -0.107004 0.000000 -0.028351 -0.118164 0.000000 -0.014834 -0.126725 0.000000 -0.001910 -0.129327 0.000000 0.012374 -0.128552 0.000000 0.025090 -0.121197 0.000000 0.036159 -0.111475 0.000000 0.046308 -0.097115 0.000000 0.054209 -0.081575 0.000000 0.062456 -0.064140 0.000000 0.069220 -0.046521 0.000000 0.075198 -0.028582 0.000000 0.078399 -0.011222 0.000000 0.080110 0.005433 0.000000 0.078787 0.020828 0.000000 0.075727 0.034034 0.000000 0.070383 0.045206 0.000000 0.063753 0.053323 0.000000 0.055993 0.059102 0.000000 0.047705 0.061849 0.000000 0.039346 0.062505 0.000000 0.031143 0.060776 0.000000 0.023599 0.057516 0.000000 0.016670 0.052768 0.000000 0.010777 0.047111 0.000000 0.005740 0.040844 0.000000 0.001830 0.034216 0.000000 -0.001143 0.027709 0.000000 -0.003108 0.021268 0.000000 -0.004159 0.015496 0.000000 -0.004462 0.010103 0.000000 -0.003944 0.005748 0.000000 -0.003024 0.001989 0.000000 -0.001426 -0.000515 0.000000 0.000184 -0.002282 0.000000 
0.002129 -0.004938 0.000000 0.004491 -0.004508 0.000000 0.007182 -0.002596 0.000000 0.009073 0.000254 0.000000 0.011113 0.004406 0.000000 0.011992 0.009454 0.000000 0.012832 0.015487 0.000000 0.012218 0.022287 0.000000 0.011376 0.029604 0.000000 0.008884 0.037441 0.000000 0.005986 0.045159 0.000000 0.001376 0.052974 0.000000 -0.003770 0.059858 0.000000 -0.010505 0.066185 0.000000 -0.017780 0.070609 0.000000 -0.026260 0.073576 0.000000 -0.035018 0.073616 0.000000 -0.044247 0.071191 0.000000 -0.053066 0.065036 0.000000 -0.061252 0.055716 0.000000 -0.067866 0.042562 0.000000 -0.072637 0.026647 0.000000 -0.074677 0.007922 0.000000 -0.074332 -0.011312 0.000000 -0.071541 -0.031837 0.000000 -0.066627 -0.049830 0.000000 -0.061592 -0.068395 0.000000 -0.052978 -0.082259 0.000000 -0.045853 -0.097035 0.000000 -0.034154 -0.110728 0.000000 -0.024524 -0.122305 0.000000 -0.011625 -0.132530 0.000000 -0.000078 -0.135515 0.000000 0.012836 -0.134668 0.000000 0.024544 -0.125365 0.000000 0.035307 -0.114880 0.000000 0.045904 -0.100301 0.000000 0.053812 -0.086349 0.000000 0.061194 -0.071653 0.000000 0.066018 -0.055226 0.000000 0.070072 -0.036685 0.000000 0.071937 -0.017464 0.000000 0.072997 0.001459 0.000000 0.071054 0.019715 0.000000 0.067785 0.035335 0.000000 0.062068 0.048781 0.000000 0.055284 0.058507 0.000000 0.047313 0.065427 0.000000 0.038971 0.068768 0.000000 0.030657 0.069551 0.000000 0.022604 0.067616 0.000000 0.015388 0.063814 0.000000 0.008824 0.058378 0.000000 0.003476 0.051839 0.000000 -0.001035 0.044679 0.000000 -0.004282 0.037069 0.000000 -0.006639 0.029660 0.000000 -0.007900 0.022300 0.000000 -0.008302 0.015745 0.000000 -0.007906 0.009599 0.000000 -0.006736 0.004664 0.000000 -0.005141 0.000388 0.000000 -0.002896 -0.002445 0.000000 -0.000633 -0.004456 0.000000 
0.002391 -0.007836 0.000000 0.005386 -0.007383 0.000000 0.008771 -0.005230 0.000000 0.011306 -0.002069 0.000000 0.014073 0.002602 0.000000 0.015623 0.008233 0.000000 0.017231 0.015037 0.000000 0.017319 0.022668 0.000000 0.017269 0.030971 0.000000 0.015494 0.039847 0.000000 0.013358 0.048713 0.000000 0.009429 0.057712 0.000000 0.004913 0.065815 0.000000 -0.001265 0.073355 0.000000 -0.008165 0.078898 0.000000 -0.016296 0.082887 0.000000 -0.024996 0.083646 0.000000 -0.034065 0.081685 0.000000 -0.042954 0.075409 0.000000 -0.050854 0.065527 0.000000 -0.056961 0.051018 0.000000 -0.060580 0.033320 0.000000 -0.060355 0.012232 0.000000 -0.057383 -0.009060 0.000000 -0.050434 -0.031976 0.000000 -0.041907 -0.051259 0.000000 -0.031767 -0.073320 0.000000 -0.021091 -0.091970 0.000000 -0.018028 -0.111400 0.000000 -0.011649 -0.128333 0.000000 -0.010166 -0.140692 0.000000 -0.003566 -0.151171 0.000000 0.002331 -0.153788 0.000000 0.010262 -0.153174 0.000000 0.015739 -0.143668 0.000000 0.018479 -0.132835 0.000000 0.022353 -0.115620 0.000000 0.024219 -0.096864 0.000000 0.031362 -0.076346 0.000000 0.040234 -0.055399 0.000000 0.049015 -0.034501 0.000000 0.054421 -0.014147 0.000000 0.058698 0.006316 0.000000 0.059016 0.026041 0.000000 0.057099 0.043019 0.000000 0.052372 0.057707 0.000000 0.045888 0.068079 0.000000 0.038257 0.075414 0.000000 0.029953 0.078504 0.000000 0.021888 0.078872 0.000000 0.014024 0.076045 0.000000 0.007213 0.071296 0.000000 0.001077 0.064680 0.000000 -0.003693 0.056970 0.000000 -0.007603 0.048602 0.000000 -0.010168 0.039820 0.000000 -0.011841 0.031327 0.000000 -0.012391 0.022931 0.000000 -0.012090 0.015502 0.000000 -0.010999 0.008537 0.000000 -0.009136 0.002983 0.000000 -0.006875 -0.001851 0.000000 -0.003951 -0.005023 0.000000 -0.001047 -0.007306 0.000000 
0.002229 -0.011372 0.000000 0.005919 -0.010887 0.000000 0.010026 -0.008516 0.000000 0.013269 -0.005048 0.000000 0.016807 0.000089 0.000000 0.019106 0.006296 0.000000 0.021560 0.013791 0.000000 0.022456 0.022249 0.000000 0.023332 0.031430 0.000000 0.022411 0.041352 0.000000 0.021251 0.051225 0.000000 0.018165 0.061419 0.000000 0.014592 0.070552 0.000000 0.009134 0.079263 0.000000 0.003007 0.085640 0.000000 -0.004667 0.090408 0.000000 -0.012891 0.091385 0.000000 -0.021825 0.089148 0.000000 -0.030512 0.081824 0.000000 -0.038372 0.069724 0.000000 -0.044087 0.052288 0.000000 -0.047065 0.030041 0.000000 -0.045258 0.004725 0.000000 -0.040829 -0.021233 0.000000 -0.032051 -0.047313 0.000000 -0.024308 -0.068497 0.000000 -0.018491 -0.089211 0.000000 -0.008842 -0.095998 0.000000 -0.004390 -0.106477 0.000000 0.005274 -0.118589 0.000000 0.006543 -0.130387 0.000000 0.008638 -0.145027 0.000000 0.006455 -0.149344 0.000000 0.005755 -0.148076 0.000000 0.005113 -0.133582 0.000000 0.006185 -0.121494 0.000000 0.013246 -0.106041 0.000000 0.018329 -0.095358 0.000000 0.024839 -0.087667 0.000000 0.028829 -0.072879 0.000000 0.033138 -0.050872 0.000000 0.037712 -0.027147 0.000000 0.043365 -0.003136 0.000000 0.044808 0.021313 0.000000 0.044449 0.041979 0.000000 0.040516 0.059992 0.000000 0.034708 0.072622 0.000000 0.027342 0.081362 0.000000 0.019243 0.085137 0.000000 0.011420 0.085480 0.000000 0.003798 0.082290 0.000000 -0.002519 0.076761 0.000000 -0.008189 0.069284 0.000000 -0.012225 0.060518 0.000000 -0.015475 0.051155 0.000000 -0.017186 0.041307 0.000000 -0.018102 0.031883 0.000000 -0.017786 0.022549 0.000000 -0.016713 0.014352 0.000000 -0.014802 0.006646 0.000000 -0.012193 0.000540 0.000000 -0.009173 -0.004797 0.000000 -0.005532 -0.008273 0.000000 -0.001915 -0.010798 0.000000 
0.002516 -0.015669 0.000000 0.006825 -0.015181 0.000000 0.011633 -0.012580 0.000000 0.015515 -0.008850 0.000000 0.019816 -0.003236 0.000000 0.022803 0.003481 0.000000 0.026101 0.011687 0.000000 0.027747 0.020896 0.000000 0.029539 0.031016 0.000000 0.029415 0.041927 0.000000 0.029172 0.052958 0.000000 0.026866 0.064372 0.000000 0.024067 0.074847 0.000000 0.019265 0.084939 0.000000 0.013593 0.092699 0.000000 0.006372 0.098785 0.000000 -0.001788 0.100804 0.000000 -0.010329 0.099306 0.000000 -0.018988 0.091956 0.000000 -0.025805 0.079103 0.000000 -0.030150 0.059711 0.000000 -0.029721 0.034491 0.000000 -0.022192 0.005996 0.000000 -0.010888 -0.022267 0.000000 0.007335 -0.048497 0.000000 0.024856 -0.064818 0.000000 0.050268 -0.088787 0.000000 0.070392 -0.106071 0.000000 0.064092 -0.125516 0.000000 0.058309 -0.139266 0.000000 0.038347 -0.144056 0.000000 0.024678 -0.151083 0.000000 0.011076 -0.150904 0.000000 0.000524 -0.151832 0.000000 -0.013998 -0.144099 0.000000 -0.032930 -0.140967 0.000000 -0.044072 -0.127764 0.000000 -0.055230 -0.108457 0.000000 -0.046526 -0.086845 0.000000 -0.024729 -0.063699 0.000000 -0.005227 -0.043385 0.000000 0.007545 -0.024374 0.000000 0.020574 -0.000779 0.000000 0.027601 0.024957 0.000000 0.030469 0.047311 0.000000 0.029145 0.067448 0.000000 0.024321 0.081253 0.000000 0.017793 0.090879 0.000000 0.009852 0.094426 0.000000 0.002329 0.094317 0.000000 -0.005115 0.089985 0.000000 -0.011046 0.083283 0.000000 -0.016276 0.074386 0.000000 -0.019711 0.064256 0.000000 -0.022308 0.053563 0.000000 -0.023281 0.042447 0.000000 -0.023449 0.031928 0.000000 -0.022366 0.021542 0.000000 -0.020539 0.012518 0.000000 -0.017898 0.004017 0.000000 -0.014571 -0.002647 0.000000 -0.010876 -0.008513 0.000000 -0.006551 -0.012281 0.000000 -0.002302 -0.015067 0.000000 
0.002372 -0.020499 0.000000 0.007314 -0.020005 0.000000 0.012790 -0.017206 0.000000 0.017329 -0.013231 0.000000 0.022369 -0.007198 0.000000 0.026084 0.000011 0.000000 0.030239 0.008846 0.000000 0.032719 0.018811 0.000000 0.035510 0.029762 0.000000 0.036330 0.041719 0.000000 0.037212 0.053774 0.000000 0.035920 0.066524 0.000000 0.034319 0.078153 0.000000 0.030536 0.089737 0.000000 0.026096 0.098532 0.000000 0.019900 0.105788 0.000000 0.013100 0.108086 0.000000 0.005840 0.106349 0.000000 -0.000965 0.097301 0.000000 -0.005487 0.080886 0.000000 -0.006530 0.056203 0.000000 -0.001046 0.022083 0.000000 0.014193 -0.014108 0.000000 0.034634 -0.050761 0.000000 0.065428 -0.083056 0.000000 0.081354 -0.111429 0.000000 0.085947 -0.134747 0.000000 0.097539 -0.109822 0.000000 0.101275 -0.094394 0.000000 0.113386 -0.092845 0.000000 0.099601 -0.096757 0.000000 0.070799 -0.117756 0.000000 0.022896 -0.125189 0.000000 -0.027407 -0.123002 0.000000 -0.064871 -0.100129 0.000000 -0.085920 -0.091420 0.000000 -0.077370 -0.083741 0.000000 -0.065465 -0.092904 0.000000 -0.060238 -0.118168 0.000000 -0.063152 -0.114179 0.000000 -0.060446 -0.083147 0.000000 -0.043425 -0.052948 0.000000 -0.019069 -0.023192 0.000000 -0.004150 0.011418 0.000000 0.006129 0.040435 0.000000 0.009830 0.066140 0.000000 0.008518 0.083974 0.000000 0.004071 0.095831 0.000000 -0.002651 0.100601 0.000000 -0.009248 0.100447 0.000000 -0.016165 0.095665 0.000000 -0.021302 0.087923 0.000000 -0.025973 0.077949 0.000000 -0.028488 0.066550 0.000000 -0.030352 0.054725 0.000000 -0.030336 0.042449 0.000000 -0.029679 0.030968 0.000000 -0.027647 0.019639 0.000000 -0.025008 0.009884 0.000000 -0.021520 0.000677 0.000000 -0.017446 -0.006482 0.000000 -0.013013 -0.012816 0.000000 -0.008007 -0.016847 0.000000 -0.003096 -0.019865 0.000000 
0.002680 -0.026079 0.000000 0.008103 -0.025599 0.000000 0.014160 -0.022595 0.000000 0.019210 -0.018429 0.000000 0.024925 -0.011991 0.000000 0.029224 -0.004390 0.000000 0.034191 0.005052 0.000000 0.037349 0.015625 0.000000 0.041090 0.027405 0.000000 0.042670 0.040226 0.000000 0.044569 0.053368 0.000000 0.044068 0.067264 0.000000 0.043413 0.080230 0.000000 0.040419 0.093162 0.000000 0.036750 0.103335 0.000000 0.031495 0.111781 0.000000 0.025466 0.114863 0.000000 0.019921 0.113372 0.000000 0.014597 0.103283 0.000000 0.013928 0.084668 0.000000 0.016680 0.055270 0.000000 0.031279 0.013768 0.000000 0.059561 -0.029684 0.000000 0.093321 -0.073503 0.000000 0.133170 -0.095216 0.000000 0.167486 -0.085337 0.000000 0.235291 -0.104972 0.000000 0.281705 -0.121399 0.000000 0.250178 -0.141363 0.000000 0.216950 -0.137592 0.000000 0.158854 -0.101469 0.000000 0.100833 -0.074378 0.000000 0.032764 -0.052697 0.000000 -0.044157 -0.064065 0.000000 -0.100056 -0.085586 0.000000 -0.162551 -0.128469 0.000000 -0.203052 -0.148219 0.000000 -0.230734 -0.125589 0.000000 -0.225461 -0.089158 0.000000 -0.169372 -0.063491 0.000000 -0.120614 -0.063112 0.000000 -0.093627 -0.065751 0.000000 -0.061495 -0.040054 0.000000 -0.035220 -0.000241 0.000000 -0.018315 0.033331 0.000000 -0.007906 0.065059 0.000000 -0.005609 0.087012 0.000000 -0.007236 0.102049 0.000000 -0.012555 0.107745 0.000000 -0.018153 0.107830 0.000000 -0.024436 0.102038 0.000000 -0.029033 0.093091 0.000000 -0.033162 0.081572 0.000000 -0.035085 0.068635 0.000000 -0.036305 0.055411 0.000000 -0.035589 0.041775 0.000000 -0.034222 0.029239 0.000000 -0.031475 0.016870 0.000000 -0.028144 0.006392 0.000000 -0.024007 -0.003545 0.000000 -0.019308 -0.011154 0.000000 -0.014312 -0.017952 0.000000 -0.008743 -0.022198 0.000000 -0.003332 -0.025445 0.000000 
0.002572 -0.031933 0.000000 0.008417 -0.031485 0.000000 0.014934 -0.028313 0.000000 0.020439 -0.023996 0.000000 0.026703 -0.017212 0.000000 0.031550 -0.009255 0.000000 0.037218 0.000720 0.000000 0.041064 0.011912 0.000000 0.045693 0.024441 0.000000 0.048118 0.038240 0.000000 0.051102 0.052376 0.000000 0.051625 0.067680 0.000000 0.052312 0.081803 0.000000 0.050661 0.096401 0.000000 0.048929 0.107456 0.000000 0.045854 0.117072 0.000000 0.043281 0.119660 0.000000 0.041956 0.117218 0.000000 0.042927 0.103294 0.000000 0.050117 0.078803 0.000000 0.062090 0.038852 0.000000 0.089892 -0.020798 0.000000 0.131709 -0.076150 0.000000 0.192594 -0.124369 0.000000 0.289218 -0.157222 0.000000 0.326331 -0.213551 0.000000 0.288746 -0.248965 0.000000 0.202084 -0.124709 0.000000 0.100717 -0.029639 0.000000 0.046903 -0.001521 0.000000 -0.002234 0.019361 0.000000 -0.010613 0.008334 0.000000 0.002965 0.019801 0.000000 0.013557 0.009817 0.000000 0.024772 0.018265 0.000000 -0.011498 0.011576 0.000000 -0.061364 -0.015557 0.000000 -0.152092 -0.070495 0.000000 -0.235368 -0.179531 0.000000 -0.280567 -0.219025 0.000000 -0.285814 -0.158891 0.000000 -0.211164 -0.112066 0.000000 -0.140049 -0.081599 0.000000 -0.094590 -0.031762 0.000000 -0.062318 0.013121 0.000000 -0.039187 0.053434 0.000000 -0.028489 0.083304 0.000000 -0.024699 0.102777 0.000000 -0.026778 0.111518 0.000000 -0.029973 0.112328 0.000000 -0.035065 0.106545 0.000000 -0.038277 0.096649 0.000000 -0.041726 0.084001 0.000000 -0.042550 0.069693 0.000000 -0.043070 0.055229 0.000000 -0.041353 0.040365 0.000000 -0.039225 0.026853 0.000000 -0.035598 0.013561 0.000000 -0.031549 0.002417 0.000000 -0.026694 -0.008158 0.000000 -0.021386 -0.016176 0.000000 -0.015827 -0.023382 0.000000 -0.009755 -0.027828 0.000000 -0.003885 -0.031288 0.000000 
0.002887 -0.038382 0.000000 0.008926 -0.037961 0.000000 0.015744 -0.034616 0.000000 0.021480 -0.030197 0.000000 0.028170 -0.023102 0.000000 0.033334 -0.014905 0.000000 0.039615 -0.004462 0.000000 0.043879 0.007151 0.000000 0.049321 0.020351 0.000000 0.052248 0.034816 0.000000 0.056199 0.049861 0.000000 0.057306 0.066054 0.000000 0.059079 0.081195 0.000000 0.058302 0.096546 0.000000 0.058002 0.108142 0.000000 0.056861 0.117429 0.000000 0.056987 0.118762 0.000000 0.060267 0.113725 0.000000 0.066704 0.095122 0.000000 0.083178 0.065505 0.000000 0.102074 0.015496 0.000000 0.152457 -0.055851 0.000000 0.219661 -0.132387 0.000000 0.281842 -0.231012 0.000000 0.222442 -0.228953 0.000000 0.079532 -0.084865 0.000000 -0.093403 0.019275 0.000000 -0.184728 0.066629 0.000000 -0.148447 0.013819 0.000000 -0.108807 -0.034641 0.000000 -0.054087 -0.043954 0.000000 -0.028443 -0.079577 0.000000 -0.011320 -0.076867 0.000000 0.002783 -0.085873 0.000000 0.025978 -0.060531 0.000000 0.072942 -0.042333 0.000000 0.138553 -0.007625 0.000000 0.183237 0.048415 0.000000 0.163271 0.039317 0.000000 0.043978 -0.013045 0.000000 -0.105431 -0.132515 0.000000 -0.202931 -0.211517 0.000000 -0.207436 -0.156629 0.000000 -0.143425 -0.077971 0.000000 -0.100730 -0.022071 0.000000 -0.067116 0.031229 0.000000 -0.048759 0.072523 0.000000 -0.039281 0.100338 0.000000 -0.037372 0.113020 0.000000 -0.038074 0.116117 0.000000 -0.041310 0.110342 0.000000 -0.043530 0.099752 0.000000 -0.046198 0.085845 0.000000 -0.046483 0.069978 0.000000 -0.046504 0.054213 0.000000 -0.044287 0.037930 0.000000 -0.041673 0.023484 0.000000 -0.037560 0.009194 0.000000 -0.033057 -0.002512 0.000000 -0.027799 -0.013708 0.000000 -0.022123 -0.022021 0.000000 -0.016269 -0.029583 0.000000 -0.009911 -0.034140 0.000000 -0.003825 -0.037772 0.000000 