# vtk DataFile Version 2.0
Comment goes here
ASCII

DATASET STRUCTURED_POINTS
FIELD FieldData 1
TIME 1 1 double
1.49000000
DIMENSIONS    64   64   1

ORIGIN    0.000   0.000   0.000
SPACING   0.015625 0.015625   1.000

POINT_DATA   4096
VECTORS u double

0.000251 0.000000 0.000000 0.003464 0.000000 0.000000 0.007155 0.000000 0.000000 0.009921 0.000000 0.000000 0.012894 0.000000 0.000000 0.014657 0.000000 0.000000 0.016368 0.000000 0.000000 0.016654 0.000000 0.000000 0.016662 0.000000 0.000000 0.015130 0.000000 0.000000 0.013159 0.000000 0.000000 0.009667 0.000000 0.000000 0.005672 0.000000 0.000000 0.000347 0.000000 0.000000 -0.005415 0.000000 0.000000 -0.012117 0.000000 0.000000 -0.019042 0.000000 0.000000 -0.026310 0.000000 0.000000 -0.033456 0.000000 0.000000 -0.040183 0.000000 0.000000 -0.046385 0.000000 0.000000 -0.051327 0.000000 0.000000 -0.055397 0.000000 0.000000 -0.057424 0.000000 0.000000 -0.058398 0.000000 0.000000 -0.056736 0.000000 0.000000 -0.054043 0.000000 0.000000 -0.048440 0.000000 0.000000 -0.042031 0.000000 0.000000 -0.032874 0.000000 0.000000 -0.023388 0.000000 0.000000 -0.011846 0.000000 0.000000 -0.000739 0.000000 0.000000 0.011299 0.000000 0.000000 0.022012 0.000000 0.000000 0.032442 0.000000 0.000000 0.040866 0.000000 0.000000 0.048098 0.000000 0.000000 0.053054 0.000000 0.000000 0.056379 0.000000 0.000000 0.057537 0.000000 0.000000 0.057016 0.000000 0.000000 0.054708 0.000000 0.000000 0.050958 0.000000 0.000000 0.045975 0.000000 0.000000 0.039987 0.000000 0.000000 0.033409 0.000000 0.000000 0.026359 0.000000 0.000000 0.019354 0.000000 0.000000 0.012385 0.000000 0.000000 0.006002 0.000000 0.000000 0.000042 0.000000 0.000000 -0.004935 0.000000 0.000000 -0.009271 0.000000 0.000000 -0.012385 0.000000 0.000000 -0.014816 0.000000 0.000000 -0.015930 0.000000 0.000000 -0.016466 0.000000 0.000000 -0.015713 0.000000 0.000000 -0.014598 0.000000 0.000000 -0.012317 0.000000 0.000000 -0.009964 0.000000 0.000000 -0.006633 0.000000 0.000000 -0.003562 0.000000 0.000000 
0.000341 -0.003513 0.000000 0.003606 -0.003452 0.000000 0.007356 -0.003229 0.000000 0.010178 -0.002869 0.000000 0.013213 -0.002368 0.000000 0.015040 -0.001737 0.000000 0.016819 -0.000998 0.000000 0.017178 -0.000147 0.000000 0.017261 0.000762 0.000000 0.015816 0.001752 0.000000 0.013927 0.002731 0.000000 0.010538 0.003743 0.000000 0.006633 0.004660 0.000000 0.001429 0.005544 0.000000 -0.004236 0.006232 0.000000 -0.010796 0.006813 0.000000 -0.017609 0.007096 0.000000 -0.024710 0.007207 0.000000 -0.031723 0.006937 0.000000 -0.038251 0.006464 0.000000 -0.044285 0.005572 0.000000 -0.049003 0.004506 0.000000 -0.052873 0.003049 0.000000 -0.054688 0.001500 0.000000 -0.055479 -0.000344 0.000000 -0.053706 -0.002177 0.000000 -0.050963 -0.004148 0.000000 -0.045485 -0.006006 0.000000 -0.039310 -0.007783 0.000000 -0.030612 -0.009321 0.000000 -0.021695 -0.010514 0.000000 -0.010882 -0.011324 0.000000 -0.000554 -0.011572 0.000000 0.010677 -0.011375 0.000000 0.020621 -0.010572 0.000000 0.030389 -0.009427 0.000000 0.038267 -0.007828 0.000000 0.045138 -0.006094 0.000000 0.049877 -0.004140 0.000000 0.053142 -0.002241 0.000000 0.054361 -0.000319 0.000000 0.053966 0.001414 0.000000 0.051871 0.003029 0.000000 0.048328 0.004367 0.000000 0.043602 0.005486 0.000000 0.037839 0.006283 0.000000 0.031500 0.006814 0.000000 0.024661 0.007028 0.000000 0.017857 0.006987 0.000000 0.011071 0.006676 0.000000 0.004851 0.006171 0.000000 -0.000955 0.005468 0.000000 -0.005799 0.004657 0.000000 -0.010010 0.003725 0.000000 -0.013014 0.002772 0.000000 -0.015343 0.001772 0.000000 -0.016366 0.000825 0.000000 -0.016819 -0.000108 0.000000 -0.015990 -0.000934 0.000000 -0.014807 -0.001698 0.000000 -0.012458 -0.002317 0.000000 -0.010047 -0.002842 0.000000 -0.006655 -0.003201 0.000000 -0.003531 -0.003442 0.000000 
0.000254 -0.007137 0.000000 0.003669 -0.007016 0.000000 0.007572 -0.006572 0.000000 0.010544 -0.005857 0.000000 0.013739 -0.004862 0.000000 0.015719 -0.003605 0.000000 0.017665 -0.002138 0.000000 0.018181 -0.000443 0.000000 0.018438 0.001362 0.000000 0.017147 0.003334 0.000000 0.015432 0.005278 0.000000 0.012180 0.007294 0.000000 0.008434 0.009110 0.000000 0.003332 0.010869 0.000000 -0.002210 0.012224 0.000000 -0.008727 0.013374 0.000000 -0.015477 0.013914 0.000000 -0.022615 0.014113 0.000000 -0.029645 0.013541 0.000000 -0.036304 0.012562 0.000000 -0.042451 0.010752 0.000000 -0.047388 0.008589 0.000000 -0.051483 0.005685 0.000000 -0.053586 0.002605 0.000000 -0.054713 -0.000982 0.000000 -0.053252 -0.004516 0.000000 -0.050889 -0.008221 0.000000 -0.045639 -0.011653 0.000000 -0.039705 -0.014873 0.000000 -0.030999 -0.017615 0.000000 -0.022029 -0.019730 0.000000 -0.010950 -0.021140 0.000000 -0.000344 -0.021559 0.000000 0.011216 -0.021175 0.000000 0.021407 -0.019713 0.000000 0.031295 -0.017646 0.000000 0.039160 -0.014748 0.000000 0.045828 -0.011610 0.000000 0.050279 -0.008004 0.000000 0.053156 -0.004484 0.000000 0.053976 -0.000824 0.000000 0.053200 0.002489 0.000000 0.050746 0.005638 0.000000 0.046912 0.008269 0.000000 0.041930 0.010489 0.000000 0.035982 0.012102 0.000000 0.029503 0.013178 0.000000 0.022579 0.013644 0.000000 0.015738 0.013590 0.000000 0.008957 0.013005 0.000000 0.002783 0.012026 0.000000 -0.002949 0.010650 0.000000 -0.007690 0.009054 0.000000 -0.011778 0.007215 0.000000 -0.014645 0.005333 0.000000 -0.016825 0.003352 0.000000 -0.017694 0.001477 0.000000 -0.017988 -0.000377 0.000000 -0.017000 -0.002012 0.000000 -0.015659 -0.003531 0.000000 -0.013154 -0.004760 0.000000 -0.010588 -0.005803 0.000000 -0.007043 -0.006516 0.000000 -0.003768 -0.006996 0.000000 
0.000348 -0.010949 0.000000 0.004008 -0.010770 0.000000 0.008178 -0.010104 0.000000 0.011404 -0.009036 0.000000 0.014878 -0.007543 0.000000 0.017130 -0.005663 0.000000 0.019376 -0.003460 0.000000 0.020189 -0.000920 0.000000 0.020767 0.001796 0.000000 0.019797 0.004758 0.000000 0.018417 0.007698 0.000000 0.015503 0.010741 0.000000 0.012091 0.013509 0.000000 0.007328 0.016187 0.000000 0.002100 0.018290 0.000000 -0.004095 0.020080 0.000000 -0.010567 0.020985 0.000000 -0.017410 0.021376 0.000000 -0.024194 0.020625 0.000000 -0.030573 0.019270 0.000000 -0.036484 0.016656 0.000000 -0.041141 0.013538 0.000000 -0.044998 0.009246 0.000000 -0.046857 0.004730 0.000000 -0.047818 -0.000678 0.000000 -0.046292 -0.006001 0.000000 -0.044035 -0.011761 0.000000 -0.039147 -0.017190 0.000000 -0.033862 -0.022422 0.000000 -0.026128 -0.026998 0.000000 -0.018383 -0.030563 0.000000 -0.008722 -0.033009 0.000000 0.000348 -0.033739 0.000000 0.010361 -0.033126 0.000000 0.019011 -0.030650 0.000000 0.027515 -0.027180 0.000000 0.034157 -0.022362 0.000000 0.039900 -0.017213 0.000000 0.043694 -0.011467 0.000000 0.046196 -0.005939 0.000000 0.046879 -0.000363 0.000000 0.046093 0.004644 0.000000 0.043830 0.009317 0.000000 0.040197 0.013182 0.000000 0.035543 0.016416 0.000000 0.029902 0.018710 0.000000 0.023784 0.020217 0.000000 0.017216 0.020792 0.000000 0.010739 0.020610 0.000000 0.004333 0.019631 0.000000 -0.001478 0.018078 0.000000 -0.006832 0.015941 0.000000 -0.011214 0.013486 0.000000 -0.014936 0.010681 0.000000 -0.017456 0.007819 0.000000 -0.019292 0.004821 0.000000 -0.019833 0.001989 0.000000 -0.019812 -0.000802 0.000000 -0.018519 -0.003263 0.000000 -0.016891 -0.005544 0.000000 -0.014102 -0.007389 0.000000 -0.011273 -0.008952 0.000000 -0.007460 -0.010021 0.000000 -0.003936 -0.010740 0.000000 
0.000267 -0.015081 0.000000 0.004264 -0.014845 0.000000 0.008785 -0.013967 0.000000 0.012355 -0.012557 0.000000 0.016198 -0.010589 0.000000 0.018811 -0.008104 0.000000 0.021452 -0.005197 0.000000 0.022646 -0.001834 0.000000 0.023645 0.001754 0.000000 0.023070 0.005684 0.000000 0.022124 0.009571 0.000000 0.019599 0.013620 0.000000 0.016608 0.017285 0.000000 0.012188 0.020859 0.000000 0.007326 0.023647 0.000000 0.001383 0.026041 0.000000 -0.004822 0.027229 0.000000 -0.011548 0.027741 0.000000 -0.018195 0.026705 0.000000 -0.024610 0.024851 0.000000 -0.030529 0.021320 0.000000 -0.035373 0.017103 0.000000 -0.039425 0.011401 0.000000 -0.041635 0.005424 0.000000 -0.043089 -0.001547 0.000000 -0.042115 -0.008298 0.000000 -0.040682 -0.015367 0.000000 -0.036474 -0.021826 0.000000 -0.032030 -0.027892 0.000000 -0.024765 -0.033094 0.000000 -0.017469 -0.037135 0.000000 -0.007913 -0.039871 0.000000 0.001056 -0.040642 0.000000 0.011050 -0.039838 0.000000 0.019530 -0.036866 0.000000 0.027641 -0.032792 0.000000 0.033696 -0.027134 0.000000 0.038544 -0.021147 0.000000 0.041411 -0.014300 0.000000 0.042934 -0.007669 0.000000 0.042786 -0.000721 0.000000 0.041332 0.005538 0.000000 0.038547 0.011533 0.000000 0.034569 0.016556 0.000000 0.029682 0.020785 0.000000 0.023932 0.023860 0.000000 0.017803 0.025864 0.000000 0.011305 0.026689 0.000000 0.004983 0.026473 0.000000 -0.001210 0.025223 0.000000 -0.006746 0.023191 0.000000 -0.011781 0.020386 0.000000 -0.015810 0.017159 0.000000 -0.019152 0.013457 0.000000 -0.021279 0.009689 0.000000 -0.022712 0.005729 0.000000 -0.022852 0.001997 0.000000 -0.022433 -0.001691 0.000000 -0.020750 -0.004933 0.000000 -0.018743 -0.007948 0.000000 -0.015584 -0.010378 0.000000 -0.012397 -0.012445 0.000000 -0.008230 -0.013853 0.000000 -0.004364 -0.014804 0.000000 
0.000367 -0.019577 0.000000 0.004776 -0.019288 0.000000 0.009741 -0.018195 0.000000 0.013738 -0.016449 0.000000 0.018052 -0.013999 0.000000 0.021124 -0.010917 0.000000 0.024276 -0.007295 0.000000 0.025973 -0.003113 0.000000 0.027527 0.001372 0.000000 0.027498 0.006279 0.000000 0.027138 0.011169 0.000000 0.025185 0.016258 0.000000 0.022779 0.020920 0.000000 0.018924 0.025468 0.000000 0.014604 0.029095 0.000000 0.009176 0.032228 0.000000 0.003431 0.033916 0.000000 -0.002849 0.034749 0.000000 -0.009116 0.033688 0.000000 -0.015120 0.031605 0.000000 -0.020663 0.027419 0.000000 -0.025041 0.022434 0.000000 -0.028631 0.015508 0.000000 -0.030298 0.008394 0.000000 -0.031273 -0.000198 0.000000 -0.029903 -0.008408 0.000000 -0.028340 -0.017402 0.000000 -0.024450 -0.025843 0.000000 -0.020987 -0.034131 0.000000 -0.015399 -0.041558 0.000000 -0.010375 -0.047415 0.000000 -0.003462 -0.051535 0.000000 0.002618 -0.052701 0.000000 0.009728 -0.051600 0.000000 0.015316 -0.047241 0.000000 0.020850 -0.041347 0.000000 0.024681 -0.033264 0.000000 0.027958 -0.024927 0.000000 0.029840 -0.015858 0.000000 0.030952 -0.007314 0.000000 0.030767 0.001239 0.000000 0.029431 0.008884 0.000000 0.027108 0.016079 0.000000 0.023522 0.022047 0.000000 0.019219 0.027053 0.000000 0.013981 0.030589 0.000000 0.008420 0.032844 0.000000 0.002484 0.033612 0.000000 -0.003287 0.033125 0.000000 -0.008888 0.031360 0.000000 -0.013862 0.028649 0.000000 -0.018291 0.025005 0.000000 -0.021745 0.020856 0.000000 -0.024485 0.016149 0.000000 -0.026041 0.011379 0.000000 -0.026901 0.006394 0.000000 -0.026493 0.001710 0.000000 -0.025546 -0.002904 0.000000 -0.023351 -0.006953 0.000000 -0.020862 -0.010711 0.000000 -0.017227 -0.013735 0.000000 -0.013599 -0.016305 0.000000 -0.008984 -0.018054 0.000000 -0.004701 -0.019237 0.000000 
0.000295 -0.024557 0.000000 0.005193 -0.024219 0.000000 0.010671 -0.022930 0.000000 0.015170 -0.020868 0.000000 0.020028 -0.017975 0.000000 0.023639 -0.014328 0.000000 0.027386 -0.010046 0.000000 0.029670 -0.005084 0.000000 0.031876 0.000229 0.000000 0.032478 0.006073 0.000000 0.032816 0.011884 0.000000 0.031514 0.017979 0.000000 0.029812 0.023546 0.000000 0.026576 0.029034 0.000000 0.022907 0.033395 0.000000 0.017995 0.037214 0.000000 0.012787 0.039255 0.000000 0.006860 0.040288 0.000000 0.000994 0.038975 0.000000 -0.004829 0.036399 0.000000 -0.010073 0.031241 0.000000 -0.014400 0.025071 0.000000 -0.017834 0.016658 0.000000 -0.019657 0.008067 0.000000 -0.021029 -0.001942 0.000000 -0.020314 -0.011232 0.000000 -0.020155 -0.020819 0.000000 -0.017604 -0.029179 0.000000 -0.015937 -0.036943 0.000000 -0.011528 -0.043706 0.000000 -0.007651 -0.049073 0.000000 -0.001344 -0.052864 0.000000 0.004137 -0.053832 0.000000 0.010781 -0.052537 0.000000 0.015657 -0.047988 0.000000 0.020102 -0.042156 0.000000 0.022554 -0.034242 0.000000 0.023822 -0.026306 0.000000 0.023798 -0.017294 0.000000 0.023092 -0.008597 0.000000 0.021605 0.000800 0.000000 0.019486 0.009198 0.000000 0.016684 0.017442 0.000000 0.012964 0.024445 0.000000 0.008679 0.030326 0.000000 0.003600 0.034660 0.000000 -0.001680 0.037361 0.000000 -0.007279 0.038395 0.000000 -0.012610 0.037844 0.000000 -0.017728 0.035799 0.000000 -0.022150 0.032594 0.000000 -0.025984 0.028269 0.000000 -0.028815 0.023353 0.000000 -0.030903 0.017753 0.000000 -0.031810 0.012105 0.000000 -0.032014 0.006181 0.000000 -0.030970 0.000642 0.000000 -0.029399 -0.004834 0.000000 -0.026605 -0.009617 0.000000 -0.023541 -0.014072 0.000000 -0.019350 -0.017642 0.000000 -0.015193 -0.020688 0.000000 -0.010058 -0.022751 0.000000 -0.005277 -0.024155 0.000000 
0.000406 -0.030047 0.000000 0.005825 -0.029663 0.000000 0.011876 -0.028172 0.000000 0.016921 -0.025807 0.000000 0.022396 -0.022468 0.000000 0.026606 -0.018275 0.000000 0.031038 -0.013325 0.000000 0.033994 -0.007603 0.000000 0.036965 -0.001436 0.000000 0.038317 0.005339 0.000000 0.039485 0.012133 0.000000 0.038990 0.019262 0.000000 0.038141 0.025858 0.000000 0.035722 0.032373 0.000000 0.032863 0.037675 0.000000 0.028714 0.042348 0.000000 0.024210 0.045052 0.000000 0.018960 0.046542 0.000000 0.013709 0.045377 0.000000 0.008573 0.042672 0.000000 0.004043 0.036990 0.000000 0.000683 0.030196 0.000000 -0.001635 0.020765 0.000000 -0.002035 0.011588 0.000000 -0.001914 0.000459 0.000000 0.000382 -0.009282 0.000000 0.001896 -0.020111 0.000000 0.004961 -0.030060 0.000000 0.005527 -0.040207 0.000000 0.007017 -0.049844 0.000000 0.006500 -0.057599 0.000000 0.007523 -0.063323 0.000000 0.007244 -0.064827 0.000000 0.008178 -0.063120 0.000000 0.007348 -0.056562 0.000000 0.006806 -0.048243 0.000000 0.005236 -0.036984 0.000000 0.004129 -0.026171 0.000000 0.003203 -0.015127 0.000000 0.002877 -0.005121 0.000000 0.002152 0.004845 0.000000 0.000818 0.013804 0.000000 -0.000566 0.022601 0.000000 -0.003246 0.030052 0.000000 -0.006270 0.036416 0.000000 -0.010317 0.040948 0.000000 -0.014622 0.043723 0.000000 -0.019282 0.044542 0.000000 -0.023797 0.043573 0.000000 -0.028036 0.040901 0.000000 -0.031678 0.036906 0.000000 -0.034658 0.031669 0.000000 -0.036702 0.025775 0.000000 -0.037965 0.019144 0.000000 -0.038093 0.012489 0.000000 -0.037522 0.005554 0.000000 -0.035738 -0.000905 0.000000 -0.033463 -0.007269 0.000000 -0.029986 -0.012811 0.000000 -0.026292 -0.017965 0.000000 -0.021478 -0.022083 0.000000 -0.016752 -0.025598 0.000000 -0.011038 -0.027970 0.000000 -0.005727 -0.029590 0.000000 
0.000352 -0.036109 0.000000 0.006345 -0.035689 0.000000 0.013002 -0.034026 0.000000 0.018646 -0.031388 0.000000 0.024778 -0.027660 0.000000 0.029647 -0.022970 0.000000 0.034822 -0.017434 0.000000 0.038524 -0.011010 0.000000 0.042342 -0.004094 0.000000 0.044538 0.003553 0.000000 0.046653 0.011211 0.000000 0.047081 0.019322 0.000000 0.047244 0.026814 0.000000 0.045776 0.034313 0.000000 0.043930 0.040403 0.000000 0.040687 0.045867 0.000000 0.037140 0.049008 0.000000 0.032694 0.050789 0.000000 0.028379 0.049362 0.000000 0.024000 0.046065 0.000000 0.020611 0.039131 0.000000 0.018162 0.030749 0.000000 0.017320 0.019377 0.000000 0.017778 0.008346 0.000000 0.018489 -0.004360 0.000000 0.020520 -0.015042 0.000000 0.019612 -0.025397 0.000000 0.019896 -0.032810 0.000000 0.016612 -0.038999 0.000000 0.015556 -0.044679 0.000000 0.012730 -0.049578 0.000000 0.012089 -0.053608 0.000000 0.010039 -0.054488 0.000000 0.009407 -0.052641 0.000000 0.006727 -0.046615 0.000000 0.003988 -0.040044 0.000000 -0.000184 -0.031566 0.000000 -0.005544 -0.024272 0.000000 -0.010381 -0.016042 0.000000 -0.014030 -0.007546 0.000000 -0.016469 0.002859 0.000000 -0.017938 0.011916 0.000000 -0.018999 0.021506 0.000000 -0.020795 0.030150 0.000000 -0.022865 0.037397 0.000000 -0.025959 0.043011 0.000000 -0.029241 0.046327 0.000000 -0.032997 0.047570 0.000000 -0.036550 0.046598 0.000000 -0.039880 0.043680 0.000000 -0.042592 0.039216 0.000000 -0.044632 0.033293 0.000000 -0.045754 0.026660 0.000000 -0.046076 0.019144 0.000000 -0.045307 0.011663 0.000000 -0.043843 0.003826 0.000000 -0.041217 -0.003418 0.000000 -0.038131 -0.010586 0.000000 -0.033890 -0.016788 0.000000 -0.029477 -0.022580 0.000000 -0.023978 -0.027182 0.000000 -0.018613 -0.031128 0.000000 -0.012275 -0.033777 0.000000 -0.006375 -0.035599 0.000000 
0.000476 -0.042768 0.000000 0.007018 -0.042312 0.000000 0.014290 -0.040473 0.000000 0.020518 -0.037583 0.000000 0.027332 -0.033469 0.000000 0.032864 -0.028319 0.000000 0.038828 -0.022202 0.000000 0.043307 -0.015123 0.000000 0.048049 -0.007450 0.000000 0.051154 0.001028 0.000000 0.054323 0.009591 0.000000 0.055786 0.018671 0.000000 0.057100 0.027163 0.000000 0.056757 0.035687 0.000000 0.056095 0.042765 0.000000 0.054007 0.049137 0.000000 0.051614 0.053044 0.000000 0.048325 0.055304 0.000000 0.045159 0.054071 0.000000 0.042110 0.050440 0.000000 0.040217 0.042828 0.000000 0.039859 0.033487 0.000000 0.041560 0.021148 0.000000 0.045220 0.010419 0.000000 0.049346 -0.002283 0.000000 0.055513 -0.010404 0.000000 0.059436 -0.019488 0.000000 0.063277 -0.027061 0.000000 0.059461 -0.035867 0.000000 0.052939 -0.045962 0.000000 0.041092 -0.054133 0.000000 0.029386 -0.060633 0.000000 0.015497 -0.062144 0.000000 0.003248 -0.059808 0.000000 -0.011066 -0.051143 0.000000 -0.023885 -0.041333 0.000000 -0.035525 -0.027452 0.000000 -0.044120 -0.015975 0.000000 -0.048220 -0.006642 0.000000 -0.048265 0.000967 0.000000 -0.047928 0.008753 0.000000 -0.047431 0.016334 0.000000 -0.044828 0.025458 0.000000 -0.044120 0.033919 0.000000 -0.043531 0.041581 0.000000 -0.044401 0.047324 0.000000 -0.045907 0.050761 0.000000 -0.047953 0.051852 0.000000 -0.050233 0.050456 0.000000 -0.052219 0.046942 0.000000 -0.053853 0.041658 0.000000 -0.054740 0.034831 0.000000 -0.054849 0.027219 0.000000 -0.054133 0.018697 0.000000 -0.052404 0.010256 0.000000 -0.050010 0.001465 0.000000 -0.046500 -0.006617 0.000000 -0.042597 -0.014596 0.000000 -0.037568 -0.021464 0.000000 -0.032450 -0.027877 0.000000 -0.026255 -0.032947 0.000000 -0.020274 -0.037302 0.000000 -0.013309 -0.040208 0.000000 -0.006849 -0.042217 0.000000 
0.000455 -0.049976 0.000000 0.007553 -0.049503 0.000000 0.015421 -0.047525 0.000000 0.022241 -0.044430 0.000000 0.029724 -0.040006 0.000000 0.035938 -0.034466 0.000000 0.042700 -0.027878 0.000000 0.048000 -0.020231 0.000000 0.053707 -0.011940 0.000000 0.057803 -0.002722 0.000000 0.062129 0.006579 0.000000 0.064771 0.016545 0.000000 0.067429 0.025844 0.000000 0.068452 0.035319 0.000000 0.069305 0.043152 0.000000 0.068762 0.050348 0.000000 0.068048 0.054690 0.000000 0.066479 0.057244 0.000000 0.065278 0.055578 0.000000 0.064278 0.051007 0.000000 0.065270 0.041382 0.000000 0.067887 0.029405 0.000000 0.074403 0.014016 0.000000 0.081458 0.000560 0.000000 0.089322 -0.014654 0.000000 0.096644 -0.025132 0.000000 0.094882 -0.033161 0.000000 0.090992 -0.032835 0.000000 0.077796 -0.028661 0.000000 0.066573 -0.026311 0.000000 0.052105 -0.026026 0.000000 0.037588 -0.028013 0.000000 0.019588 -0.028350 0.000000 0.003335 -0.026078 0.000000 -0.014622 -0.019482 0.000000 -0.029726 -0.015585 0.000000 -0.044480 -0.011331 0.000000 -0.062277 -0.011577 0.000000 -0.075881 -0.011897 0.000000 -0.083280 -0.007838 0.000000 -0.084959 0.002025 0.000000 -0.081611 0.008816 0.000000 -0.076203 0.018195 0.000000 -0.072202 0.028852 0.000000 -0.068558 0.037677 0.000000 -0.066878 0.045387 0.000000 -0.065811 0.049880 0.000000 -0.065849 0.051896 0.000000 -0.066212 0.050864 0.000000 -0.066559 0.047300 0.000000 -0.066702 0.041737 0.000000 -0.066171 0.034289 0.000000 -0.065016 0.026053 0.000000 -0.063050 0.016699 0.000000 -0.060202 0.007539 0.000000 -0.056720 -0.002077 0.000000 -0.052227 -0.010830 0.000000 -0.047400 -0.019518 0.000000 -0.041523 -0.026935 0.000000 -0.035633 -0.033893 0.000000 -0.028715 -0.039358 0.000000 -0.022083 -0.044074 0.000000 -0.014489 -0.047202 0.000000 -0.007453 -0.049384 0.000000 
0.000597 -0.057774 0.000000 0.008150 -0.057278 0.000000 0.016553 -0.055161 0.000000 0.023874 -0.051886 0.000000 0.031983 -0.047167 0.000000 0.038804 -0.041295 0.000000 0.046346 -0.034264 0.000000 0.052412 -0.026130 0.000000 0.059103 -0.017254 0.000000 0.064174 -0.007394 0.000000 0.069719 0.002623 0.000000 0.073586 0.013372 0.000000 0.077721 0.023481 0.000000 0.080266 0.033811 0.000000 0.082873 0.042455 0.000000 0.084181 0.050395 0.000000 0.085506 0.055327 0.000000 0.086106 0.058073 0.000000 0.087191 0.056272 0.000000 0.088745 0.050447 0.000000 0.092548 0.039218 0.000000 0.099022 0.024355 0.000000 0.110106 0.007578 0.000000 0.122002 -0.004501 0.000000 0.133588 -0.017469 0.000000 0.147444 -0.015964 0.000000 0.158862 -0.013837 0.000000 0.168482 -0.009975 0.000000 0.157946 -0.011447 0.000000 0.135858 -0.020270 0.000000 0.103191 -0.025148 0.000000 0.066992 -0.028116 0.000000 0.026916 -0.027891 0.000000 -0.010680 -0.025598 0.000000 -0.050599 -0.018082 0.000000 -0.085555 -0.011474 0.000000 -0.114257 0.005098 0.000000 -0.134833 0.015426 0.000000 -0.139738 0.014362 0.000000 -0.132580 0.010045 0.000000 -0.128993 0.007084 0.000000 -0.125175 0.007579 0.000000 -0.112562 0.016049 0.000000 -0.104031 0.026273 0.000000 -0.096227 0.036257 0.000000 -0.090364 0.044577 0.000000 -0.086435 0.049732 0.000000 -0.083474 0.052252 0.000000 -0.081831 0.051166 0.000000 -0.080104 0.047433 0.000000 -0.078702 0.041271 0.000000 -0.076624 0.033145 0.000000 -0.074180 0.024097 0.000000 -0.070982 0.013883 0.000000 -0.067028 0.003926 0.000000 -0.062538 -0.006510 0.000000 -0.057100 -0.015937 0.000000 -0.051451 -0.025300 0.000000 -0.044784 -0.033231 0.000000 -0.038228 -0.040684 0.000000 -0.030656 -0.046497 0.000000 -0.023481 -0.051528 0.000000 -0.015330 -0.054838 0.000000 -0.007824 -0.057161 0.000000 
0.000627 -0.065950 0.000000 0.008576 -0.065459 0.000000 0.017419 -0.063249 0.000000 0.025184 -0.059860 0.000000 0.033826 -0.054936 0.000000 0.041208 -0.048829 0.000000 0.049453 -0.041486 0.000000 0.056265 -0.032988 0.000000 0.063899 -0.023702 0.000000 0.069970 -0.013338 0.000000 0.076771 -0.002833 0.000000 0.081987 0.008543 0.000000 0.087783 0.019164 0.000000 0.092169 0.030167 0.000000 0.096966 0.039237 0.000000 0.100788 0.047715 0.000000 0.104933 0.052765 0.000000 0.108809 0.055558 0.000000 0.113325 0.052938 0.000000 0.118896 0.045651 0.000000 0.127515 0.031105 0.000000 0.140048 0.011847 0.000000 0.161535 -0.008964 0.000000 0.180012 -0.022922 0.000000 0.203539 -0.040096 0.000000 0.222942 -0.050405 0.000000 0.216183 -0.054198 0.000000 0.198191 -0.031919 0.000000 0.161363 0.003963 0.000000 0.134918 0.028445 0.000000 0.111151 0.042840 0.000000 0.077212 0.048262 0.000000 0.030471 0.049323 0.000000 -0.016322 0.051437 0.000000 -0.058879 0.055392 0.000000 -0.084582 0.048073 0.000000 -0.107887 0.037948 0.000000 -0.147896 0.013904 0.000000 -0.181599 -0.014150 0.000000 -0.195598 -0.018584 0.000000 -0.192989 -0.005379 0.000000 -0.175486 -0.007614 0.000000 -0.156016 -0.002949 0.000000 -0.142626 0.012517 0.000000 -0.129784 0.024010 0.000000 -0.120095 0.035595 0.000000 -0.111565 0.042990 0.000000 -0.105153 0.047291 0.000000 -0.100312 0.047494 0.000000 -0.095879 0.044171 0.000000 -0.092268 0.038257 0.000000 -0.088125 0.029767 0.000000 -0.084051 0.020410 0.000000 -0.079287 0.009547 0.000000 -0.074063 -0.000905 0.000000 -0.068385 -0.012004 0.000000 -0.061934 -0.021917 0.000000 -0.055384 -0.031835 0.000000 -0.047915 -0.040159 0.000000 -0.040680 -0.048021 0.000000 -0.032486 -0.054105 0.000000 -0.024792 -0.059400 0.000000 -0.016150 -0.062859 0.000000 -0.008222 -0.065311 0.000000 
0.000791 -0.074571 0.000000 0.008947 -0.074071 0.000000 0.018083 -0.071769 0.000000 0.026106 -0.068293 0.000000 0.035151 -0.063192 0.000000 0.042913 -0.056922 0.000000 0.051753 -0.049320 0.000000 0.059138 -0.040576 0.000000 0.067640 -0.030959 0.000000 0.074564 -0.020266 0.000000 0.082598 -0.009394 0.000000 0.089088 0.002360 0.000000 0.096623 0.013299 0.000000 0.102936 0.024628 0.000000 0.110204 0.033836 0.000000 0.116876 0.042428 0.000000 0.124430 0.047305 0.000000 0.132057 0.049682 0.000000 0.140595 0.046186 0.000000 0.150101 0.036257 0.000000 0.162471 0.018067 0.000000 0.180459 -0.009665 0.000000 0.208212 -0.032387 0.000000 0.228327 -0.046504 0.000000 0.239065 -0.060398 0.000000 0.253824 -0.028608 0.000000 0.281307 0.010915 0.000000 0.315579 0.044845 0.000000 0.300786 0.051826 0.000000 0.247238 0.029941 0.000000 0.182277 0.032557 0.000000 0.110015 0.052564 0.000000 0.034633 0.065643 0.000000 -0.042429 0.063751 0.000000 -0.115587 0.050178 0.000000 -0.183974 0.037534 0.000000 -0.242557 0.068412 0.000000 -0.268666 0.089138 0.000000 -0.254284 0.062064 0.000000 -0.214252 0.021435 0.000000 -0.213466 -0.013027 0.000000 -0.220249 -0.029394 0.000000 -0.193655 -0.016812 0.000000 -0.174729 0.000041 0.000000 -0.160663 0.013726 0.000000 -0.145444 0.026358 0.000000 -0.134067 0.034789 0.000000 -0.123714 0.041000 0.000000 -0.116295 0.041893 0.000000 -0.109105 0.039389 0.000000 -0.103360 0.033516 0.000000 -0.097255 0.024928 0.000000 -0.091566 0.015260 0.000000 -0.085445 0.003895 0.000000 -0.079041 -0.006976 0.000000 -0.072422 -0.018639 0.000000 -0.065104 -0.028938 0.000000 -0.057895 -0.039319 0.000000 -0.049792 -0.047935 0.000000 -0.042100 -0.056114 0.000000 -0.033452 -0.062385 0.000000 -0.025448 -0.067863 0.000000 -0.016479 -0.071408 0.000000 -0.008326 -0.073938 0.000000 
0.000893 -0.083222 0.000000 0.009115 -0.082751 0.000000 0.018354 -0.080408 0.000000 0.026496 -0.076928 0.000000 0.035744 -0.071744 0.000000 0.043751 -0.065432 0.000000 0.052986 -0.057710 0.000000 0.060815 -0.048874 0.000000 0.070000 -0.039128 0.000000 0.077674 -0.028295 0.000000 0.086820 -0.017357 0.000000 0.094566 -0.005482 0.000000 0.103881 0.005316 0.000000 0.112312 0.016586 0.000000 0.122368 0.025297 0.000000 0.132468 0.033489 0.000000 0.143996 0.037584 0.000000 0.156440 0.039393 0.000000 0.169154 0.034894 0.000000 0.183715 0.023775 0.000000 0.198947 0.000748 0.000000 0.225487 -0.033895 0.000000 0.266379 -0.056832 0.000000 0.293996 -0.053775 0.000000 0.347482 -0.065594 0.000000 0.390654 -0.092647 0.000000 0.353289 -0.115953 0.000000 0.286149 -0.051398 0.000000 0.217500 0.072304 0.000000 0.145985 0.146954 0.000000 0.087559 0.180063 0.000000 0.039755 0.195906 0.000000 0.014541 0.201767 0.000000 -0.011673 0.201657 0.000000 -0.043043 0.196937 0.000000 -0.091667 0.175043 0.000000 -0.158176 0.122639 0.000000 -0.208374 0.025631 0.000000 -0.267966 -0.068564 0.000000 -0.305905 -0.059402 0.000000 -0.293662 0.000617 0.000000 -0.241272 -0.027424 0.000000 -0.215662 -0.048469 0.000000 -0.207760 -0.020476 0.000000 -0.192422 -0.005275 0.000000 -0.176065 0.008999 0.000000 -0.159519 0.021259 0.000000 -0.145288 0.029520 0.000000 -0.134372 0.032885 0.000000 -0.123618 0.031235 0.000000 -0.115266 0.026408 0.000000 -0.106464 0.017973 0.000000 -0.098920 0.008600 0.000000 -0.091031 -0.002978 0.000000 -0.083367 -0.013927 0.000000 -0.075661 -0.025941 0.000000 -0.067491 -0.036444 0.000000 -0.059626 -0.047147 0.000000 -0.050963 -0.055953 0.000000 -0.042894 -0.064360 0.000000 -0.033909 -0.070758 0.000000 -0.025709 -0.076373 0.000000 -0.016564 -0.079981 0.000000 -0.008319 -0.082582 0.000000 
0.001080 -0.092005 0.000000 0.009090 -0.091532 0.000000 0.018190 -0.089149 0.000000 0.026169 -0.085683 0.000000 0.035389 -0.080447 0.000000 0.043342 -0.074164 0.000000 0.052750 -0.066384 0.000000 0.060699 -0.057591 0.000000 0.070360 -0.047819 0.000000 0.078440 -0.037086 0.000000 0.088514 -0.026286 0.000000 0.097194 -0.014701 0.000000 0.108142 -0.004446 0.000000 0.118465 0.006141 0.000000 0.131206 0.013680 0.000000 0.144602 0.020800 0.000000 0.160178 0.023333 0.000000 0.177064 0.024523 0.000000 0.194642 0.018910 0.000000 0.212320 0.006464 0.000000 0.229973 -0.023704 0.000000 0.265363 -0.077097 0.000000 0.319402 -0.100896 0.000000 0.362818 -0.127608 0.000000 0.328003 -0.157056 0.000000 0.185084 -0.034415 0.000000 -0.003950 0.115419 0.000000 -0.142709 0.180634 0.000000 -0.192044 0.191989 0.000000 -0.177330 0.159883 0.000000 -0.126591 0.138787 0.000000 -0.075022 0.125583 0.000000 -0.020605 0.117071 0.000000 0.031415 0.121336 0.000000 0.086326 0.130173 0.000000 0.145342 0.152667 0.000000 0.188357 0.185118 0.000000 0.171340 0.198928 0.000000 0.089025 0.159595 0.000000 -0.084094 0.047131 0.000000 -0.219750 -0.077660 0.000000 -0.255168 -0.107393 0.000000 -0.250442 -0.050324 0.000000 -0.213803 -0.023200 0.000000 -0.209695 -0.017969 0.000000 -0.189678 -0.006545 0.000000 -0.173363 0.004013 0.000000 -0.158069 0.015852 0.000000 -0.145787 0.020223 0.000000 -0.132993 0.020283 0.000000 -0.122314 0.016362 0.000000 -0.111520 0.008581 0.000000 -0.102195 -0.000173 0.000000 -0.093068 -0.011658 0.000000 -0.084362 -0.022346 0.000000 -0.076043 -0.034515 0.000000 -0.067320 -0.044973 0.000000 -0.059213 -0.055847 0.000000 -0.050294 -0.064668 0.000000 -0.042199 -0.073168 0.000000 -0.033165 -0.079569 0.000000 -0.025078 -0.085208 0.000000 -0.016025 -0.088799 0.000000 -0.007973 -0.091396 0.000000 