# vtk DataFile Version 2.0
Comment goes here
ASCII

DATASET STRUCTURED_POINTS
FIELD FieldData 1
TIME 1 1 double
1.91000000
DIMENSIONS    64   64   1

ORIGIN    0.000   0.000   0.000
SPACING   0.015625 0.015625   1.000

POINT_DATA   4096
VECTORS u double

0.001732 -0.000000 0.000000 0.000917 -0.000000 0.000000 0.000317 -0.000000 0.000000 -0.000826 -0.000000 0.000000 -0.001977 -0.000000 0.000000 -0.003912 -0.000000 0.000000 -0.006055 -0.000000 0.000000 -0.009154 -0.000000 0.000000 -0.012616 -0.000000 0.000000 -0.017100 -0.000000 0.000000 -0.022030 -0.000000 0.000000 -0.027906 -0.000000 0.000000 -0.034215 -0.000000 0.000000 -0.041218 -0.000000 0.000000 -0.048522 -0.000000 0.000000 -0.056084 -0.000000 0.000000 -0.063676 -0.000000 0.000000 -0.070921 -0.000000 0.000000 -0.077797 -0.000000 0.000000 -0.083621 -0.000000 0.000000 -0.088579 -0.000000 0.000000 -0.091795 -0.000000 0.000000 -0.093630 -0.000000 0.000000 -0.093195 -0.000000 0.000000 -0.090958 -0.000000 0.000000 -0.086211 -0.000000 0.000000 -0.079463 -0.000000 0.000000 -0.070310 -0.000000 0.000000 -0.059288 -0.000000 0.000000 -0.046291 -0.000000 0.000000 -0.031970 -0.000000 0.000000 -0.016428 -0.000000 0.000000 -0.000549 -0.000000 0.000000 0.015549 -0.000000 0.000000 0.030784 -0.000000 0.000000 0.045285 -0.000000 0.000000 0.057957 -0.000000 0.000000 0.069274 -0.000000 0.000000 0.078266 -0.000000 0.000000 0.085603 -0.000000 0.000000 0.090523 -0.000000 0.000000 0.093695 -0.000000 0.000000 0.094644 -0.000000 0.000000 0.093918 -0.000000 0.000000 0.091385 -0.000000 0.000000 0.087435 -0.000000 0.000000 0.082251 -0.000000 0.000000 0.076061 -0.000000 0.000000 0.069275 -0.000000 0.000000 0.061964 -0.000000 0.000000 0.054647 -0.000000 0.000000 0.047254 -0.000000 0.000000 0.040317 -0.000000 0.000000 0.033645 -0.000000 0.000000 0.027730 -0.000000 0.000000 0.022274 -0.000000 0.000000 0.017718 -0.000000 0.000000 0.013669 -0.000000 0.000000 0.010528 -0.000000 0.000000 0.007815 -0.000000 0.000000 0.005916 -0.000000 0.000000 0.004269 -0.000000 0.000000 0.003271 -0.000000 0.000000 0.002281 -0.000000 0.000000 
0.001562 0.000682 0.000000 0.000780 0.000708 0.000000 0.000226 0.000871 0.000000 -0.000884 0.001147 0.000000 -0.001989 0.001543 0.000000 -0.003894 0.002039 0.000000 -0.005995 0.002621 0.000000 -0.009070 0.003281 0.000000 -0.012498 0.003973 0.000000 -0.016966 0.004707 0.000000 -0.021877 0.005403 0.000000 -0.027747 0.006092 0.000000 -0.034060 0.006656 0.000000 -0.041071 0.007154 0.000000 -0.048410 0.007433 0.000000 -0.055993 0.007577 0.000000 -0.063654 0.007419 0.000000 -0.070933 0.007061 0.000000 -0.077905 0.006350 0.000000 -0.083767 0.005391 0.000000 -0.088828 0.004087 0.000000 -0.092074 0.002526 0.000000 -0.093983 0.000700 0.000000 -0.093546 -0.001336 0.000000 -0.091312 -0.003492 0.000000 -0.086513 -0.005747 0.000000 -0.079687 -0.007950 0.000000 -0.070438 -0.010088 0.000000 -0.059296 -0.012010 0.000000 -0.046206 -0.013659 0.000000 -0.031792 -0.014931 0.000000 -0.016191 -0.015711 0.000000 -0.000256 -0.015988 0.000000 0.015891 -0.015666 0.000000 0.031178 -0.014868 0.000000 0.045755 -0.013586 0.000000 0.058497 -0.011994 0.000000 0.069910 -0.010154 0.000000 0.078965 -0.008164 0.000000 0.086368 -0.006129 0.000000 0.091303 -0.004046 0.000000 0.094474 -0.002060 0.000000 0.095381 -0.000112 0.000000 0.094584 0.001629 0.000000 0.091968 0.003242 0.000000 0.087895 0.004567 0.000000 0.082609 0.005687 0.000000 0.076277 0.006488 0.000000 0.069393 0.007049 0.000000 0.061951 0.007314 0.000000 0.054556 0.007355 0.000000 0.047062 0.007165 0.000000 0.040075 0.006804 0.000000 0.033338 0.006294 0.000000 0.027400 0.005685 0.000000 0.021913 0.005006 0.000000 0.017356 0.004303 0.000000 0.013302 0.003595 0.000000 0.010178 0.002927 0.000000 0.007479 0.002306 0.000000 0.005609 0.001773 0.000000 0.003987 0.001323 0.000000 0.003026 0.000994 0.000000 0.002067 0.000769 0.000000 
0.001693 0.001287 0.000000 0.001087 0.001336 0.000000 0.000701 0.001664 0.000000 -0.000232 0.002215 0.000000 -0.001164 0.003010 0.000000 -0.002889 0.004006 0.000000 -0.004811 0.005176 0.000000 -0.007704 0.006503 0.000000 -0.010949 0.007895 0.000000 -0.015239 0.009379 0.000000 -0.019969 0.010781 0.000000 -0.025675 0.012183 0.000000 -0.031817 0.013325 0.000000 -0.038691 0.014350 0.000000 -0.045881 0.014922 0.000000 -0.053366 0.015244 0.000000 -0.060913 0.014940 0.000000 -0.068142 0.014251 0.000000 -0.075047 0.012834 0.000000 -0.080909 0.010924 0.000000 -0.085959 0.008307 0.000000 -0.089257 0.005155 0.000000 -0.091225 0.001472 0.000000 -0.090904 -0.002670 0.000000 -0.088823 -0.007033 0.000000 -0.084238 -0.011625 0.000000 -0.077679 -0.016076 0.000000 -0.068754 -0.020392 0.000000 -0.057953 -0.024232 0.000000 -0.045205 -0.027504 0.000000 -0.031076 -0.030016 0.000000 -0.015718 -0.031536 0.000000 0.000020 -0.032081 0.000000 0.015953 -0.031434 0.000000 0.030975 -0.029864 0.000000 0.045217 -0.027319 0.000000 0.057555 -0.024155 0.000000 0.068562 -0.020468 0.000000 0.077231 -0.016458 0.000000 0.084327 -0.012338 0.000000 0.089036 -0.008107 0.000000 0.092067 -0.004078 0.000000 0.092898 -0.000110 0.000000 0.092079 0.003413 0.000000 0.089465 0.006690 0.000000 0.085425 0.009359 0.000000 0.080171 0.011618 0.000000 0.073903 0.013216 0.000000 0.067071 0.014326 0.000000 0.059722 0.014837 0.000000 0.052410 0.014889 0.000000 0.045042 0.014481 0.000000 0.038171 0.013724 0.000000 0.031590 0.012675 0.000000 0.025796 0.011425 0.000000 0.020484 0.010044 0.000000 0.016089 0.008611 0.000000 0.012219 0.007178 0.000000 0.009264 0.005823 0.000000 0.006748 0.004568 0.000000 0.005048 0.003492 0.000000 0.003606 0.002583 0.000000 0.002813 0.001919 0.000000 0.002031 0.001464 0.000000 
0.001479 0.001627 0.000000 0.001113 0.001700 0.000000 0.000985 0.002190 0.000000 0.000293 0.003012 0.000000 -0.000376 0.004200 0.000000 -0.001863 0.005686 0.000000 -0.003522 0.007437 0.000000 -0.006186 0.009419 0.000000 -0.009179 0.011508 0.000000 -0.013259 0.013727 0.000000 -0.017766 0.015839 0.000000 -0.023298 0.017940 0.000000 -0.029272 0.019673 0.000000 -0.036024 0.021218 0.000000 -0.043129 0.022108 0.000000 -0.050558 0.022609 0.000000 -0.058126 0.022195 0.000000 -0.065369 0.021194 0.000000 -0.072404 0.019116 0.000000 -0.078341 0.016304 0.000000 -0.083604 0.012435 0.000000 -0.087013 0.007791 0.000000 -0.089206 0.002348 0.000000 -0.088999 -0.003738 0.000000 -0.087072 -0.010159 0.000000 -0.082575 -0.016891 0.000000 -0.076078 -0.023434 0.000000 -0.067234 -0.029814 0.000000 -0.056479 -0.035558 0.000000 -0.043881 -0.040536 0.000000 -0.029872 -0.044418 0.000000 -0.014712 -0.046807 0.000000 0.000852 -0.047660 0.000000 0.016583 -0.046621 0.000000 0.031377 -0.044132 0.000000 0.045417 -0.040167 0.000000 0.057510 -0.035339 0.000000 0.068357 -0.029830 0.000000 0.076826 -0.023930 0.000000 0.083803 -0.017935 0.000000 0.088346 -0.011786 0.000000 0.091263 -0.005922 0.000000 0.091942 -0.000124 0.000000 0.090958 0.005062 0.000000 0.088175 0.009895 0.000000 0.083910 0.013861 0.000000 0.078474 0.017210 0.000000 0.071969 0.019588 0.000000 0.064986 0.021229 0.000000 0.057458 0.021976 0.000000 0.050069 0.022035 0.000000 0.042624 0.021403 0.000000 0.035769 0.020256 0.000000 0.029216 0.018669 0.000000 0.023521 0.016791 0.000000 0.018326 0.014713 0.000000 0.014093 0.012568 0.000000 0.010400 0.010420 0.000000 0.007648 0.008397 0.000000 0.005345 0.006521 0.000000 0.003874 0.004915 0.000000 0.002662 0.003558 0.000000 0.002111 0.002569 0.000000 0.001567 0.001890 0.000000 
0.001572 0.001741 0.000000 0.001574 0.001830 0.000000 0.001811 0.002484 0.000000 0.001492 0.003576 0.000000 0.001197 0.005166 0.000000 0.000089 0.007152 0.000000 -0.001185 0.009499 0.000000 -0.003469 0.012160 0.000000 -0.006072 0.014969 0.000000 -0.009783 0.017967 0.000000 -0.013912 0.020820 0.000000 -0.019106 0.023689 0.000000 -0.024736 0.026050 0.000000 -0.031210 0.028207 0.000000 -0.038034 0.029456 0.000000 -0.045268 0.030240 0.000000 -0.052643 0.029751 0.000000 -0.059786 0.028529 0.000000 -0.066730 0.025807 0.000000 -0.072655 0.022124 0.000000 -0.077928 0.016979 0.000000 -0.081395 0.010757 0.000000 -0.083695 0.003458 0.000000 -0.083628 -0.004804 0.000000 -0.081938 -0.013457 0.000000 -0.077762 -0.022620 0.000000 -0.071739 -0.031416 0.000000 -0.063538 -0.039990 0.000000 -0.053500 -0.047585 0.000000 -0.041672 -0.054111 0.000000 -0.028278 -0.059185 0.000000 -0.013618 -0.062259 0.000000 0.001604 -0.063376 0.000000 0.016950 -0.061959 0.000000 0.031213 -0.058698 0.000000 0.044536 -0.053453 0.000000 0.055715 -0.047095 0.000000 0.065698 -0.039784 0.000000 0.073364 -0.031903 0.000000 0.079792 -0.023858 0.000000 0.083974 -0.015567 0.000000 0.086720 -0.007673 0.000000 0.087339 0.000195 0.000000 0.086360 0.007180 0.000000 0.083601 0.013738 0.000000 0.079359 0.019060 0.000000 0.073937 0.023559 0.000000 0.067455 0.026704 0.000000 0.060503 0.028836 0.000000 0.053049 0.029754 0.000000 0.045758 0.029723 0.000000 0.038476 0.028782 0.000000 0.031810 0.027132 0.000000 0.025511 0.024922 0.000000 0.020085 0.022316 0.000000 0.015209 0.019472 0.000000 0.011298 0.016537 0.000000 0.007960 0.013623 0.000000 0.005557 0.010878 0.000000 0.003624 0.008343 0.000000 0.002509 0.006176 0.000000 0.001668 0.004346 0.000000 0.001475 0.003015 0.000000 0.001300 0.002096 0.000000 
0.001308 0.001352 0.000000 0.001737 0.001461 0.000000 0.002423 0.002272 0.000000 0.002531 0.003625 0.000000 0.002698 0.005603 0.000000 0.002016 0.008068 0.000000 0.001212 0.010994 0.000000 -0.000653 0.014306 0.000000 -0.002791 0.017822 0.000000 -0.006108 0.021566 0.000000 -0.009805 0.025161 0.000000 -0.014654 0.028765 0.000000 -0.019927 0.031777 0.000000 -0.026135 0.034516 0.000000 -0.032726 0.036166 0.000000 -0.039799 0.037218 0.000000 -0.047110 0.036713 0.000000 -0.054207 0.035281 0.000000 -0.061281 0.031986 0.000000 -0.067265 0.027501 0.000000 -0.072837 0.021174 0.000000 -0.076438 0.013559 0.000000 -0.079103 0.004581 0.000000 -0.079201 -0.005495 0.000000 -0.077764 -0.016025 0.000000 -0.073742 -0.027090 0.000000 -0.067804 -0.037658 0.000000 -0.059782 -0.048053 0.000000 -0.049897 -0.057424 0.000000 -0.038569 -0.065758 0.000000 -0.025684 -0.072472 0.000000 -0.011750 -0.076688 0.000000 0.002796 -0.078227 0.000000 0.017426 -0.076230 0.000000 0.030950 -0.071718 0.000000 0.043646 -0.064669 0.000000 0.054190 -0.056501 0.000000 0.063817 -0.047479 0.000000 0.071121 -0.038024 0.000000 0.077385 -0.028544 0.000000 0.081345 -0.018715 0.000000 0.084017 -0.009287 0.000000 0.084491 0.000237 0.000000 0.083349 0.008800 0.000000 0.080412 0.016896 0.000000 0.075869 0.023524 0.000000 0.070217 0.029113 0.000000 0.063398 0.033023 0.000000 0.056252 0.035636 0.000000 0.048566 0.036720 0.000000 0.041209 0.036608 0.000000 0.033879 0.035351 0.000000 0.027305 0.033221 0.000000 0.021141 0.030394 0.000000 0.015945 0.027093 0.000000 0.011344 0.023500 0.000000 0.007759 0.019816 0.000000 0.004783 0.016161 0.000000 0.002763 0.012734 0.000000 0.001235 0.009569 0.000000 0.000533 0.006871 0.000000 0.000114 0.004592 0.000000 0.000349 0.002937 0.000000 0.000599 0.001793 0.000000 
0.001363 0.000602 0.000000 0.002316 0.000716 0.000000 0.003526 0.001691 0.000000 0.004165 0.003301 0.000000 0.004874 0.005681 0.000000 0.004737 0.008637 0.000000 0.004497 0.012168 0.000000 0.003186 0.016163 0.000000 0.001626 0.020424 0.000000 -0.001143 0.024980 0.000000 -0.004269 0.029366 0.000000 -0.008606 0.033812 0.000000 -0.013349 0.037531 0.000000 -0.019120 0.041006 0.000000 -0.025264 0.043119 0.000000 -0.032009 0.044624 0.000000 -0.038992 0.044159 0.000000 -0.045884 0.042700 0.000000 -0.052765 0.038865 0.000000 -0.058641 0.033679 0.000000 -0.064137 0.026153 0.000000 -0.067673 0.017023 0.000000 -0.070344 0.006220 0.000000 -0.070403 -0.006144 0.000000 -0.069094 -0.018916 0.000000 -0.065300 -0.032579 0.000000 -0.059997 -0.045376 0.000000 -0.053110 -0.057898 0.000000 -0.044677 -0.068798 0.000000 -0.035022 -0.078324 0.000000 -0.023434 -0.086003 0.000000 -0.010403 -0.090738 0.000000 0.003742 -0.092552 0.000000 0.017897 -0.090113 0.000000 0.030554 -0.084918 0.000000 0.041858 -0.076692 0.000000 0.050516 -0.067266 0.000000 0.058482 -0.056714 0.000000 0.064397 -0.045471 0.000000 0.069956 -0.034083 0.000000 0.073685 -0.022200 0.000000 0.076465 -0.010819 0.000000 0.077205 0.000863 0.000000 0.076340 0.011259 0.000000 0.073638 0.021218 0.000000 0.069224 0.029255 0.000000 0.063638 0.036030 0.000000 0.056839 0.040669 0.000000 0.049719 0.043668 0.000000 0.042106 0.044796 0.000000 0.034878 0.044410 0.000000 0.027767 0.042686 0.000000 0.021472 0.039869 0.000000 0.015675 0.036282 0.000000 0.010881 0.032113 0.000000 0.006748 0.027658 0.000000 0.003642 0.023098 0.000000 0.001185 0.018619 0.000000 -0.000323 0.014426 0.000000 -0.001317 0.010573 0.000000 -0.001500 0.007297 0.000000 -0.001388 0.004530 0.000000 -0.000637 0.002529 0.000000 0.000138 0.001136 0.000000 
0.001045 -0.000826 0.000000 0.002568 -0.000702 0.000000 0.004373 0.000423 0.000000 0.005584 0.002277 0.000000 0.006912 0.005031 0.000000 0.007353 0.008445 0.000000 0.007758 0.012545 0.000000 0.007025 0.017177 0.000000 0.006123 0.022151 0.000000 0.003914 0.027461 0.000000 0.001431 0.032624 0.000000 -0.002396 0.037846 0.000000 -0.006566 0.042290 0.000000 -0.011916 0.046430 0.000000 -0.017626 0.049055 0.000000 -0.024074 0.050947 0.000000 -0.030841 0.050589 0.000000 -0.037572 0.049053 0.000000 -0.044519 0.044742 0.000000 -0.050360 0.038874 0.000000 -0.056229 0.030206 0.000000 -0.059840 0.019765 0.000000 -0.063072 0.007310 0.000000 -0.063290 -0.006745 0.000000 -0.062320 -0.021127 0.000000 -0.058668 -0.036187 0.000000 -0.053212 -0.049848 0.000000 -0.046265 -0.063372 0.000000 -0.037762 -0.075513 0.000000 -0.029064 -0.087001 0.000000 -0.018720 -0.097091 0.000000 -0.007525 -0.103864 0.000000 0.004851 -0.106527 0.000000 0.017212 -0.103043 0.000000 0.028143 -0.095679 0.000000 0.038148 -0.084630 0.000000 0.045758 -0.073126 0.000000 0.053496 -0.061360 0.000000 0.059262 -0.049497 0.000000 0.064902 -0.037832 0.000000 0.068540 -0.025224 0.000000 0.071536 -0.012807 0.000000 0.072311 0.000363 0.000000 0.071404 0.012367 0.000000 0.068623 0.024012 0.000000 0.063835 0.033524 0.000000 0.057993 0.041498 0.000000 0.050722 0.046942 0.000000 0.043369 0.050369 0.000000 0.035466 0.051561 0.000000 0.028200 0.050947 0.000000 0.021097 0.048758 0.000000 0.014996 0.045314 0.000000 0.009474 0.040984 0.000000 0.005060 0.036020 0.000000 0.001380 0.030740 0.000000 -0.001235 0.025379 0.000000 -0.003144 0.020126 0.000000 -0.004105 0.015236 0.000000 -0.004518 0.010746 0.000000 -0.004132 0.006942 0.000000 -0.003437 0.003729 0.000000 -0.002112 0.001411 0.000000 -0.000761 -0.000207 0.000000 
0.001060 -0.002726 0.000000 0.003203 -0.002612 0.000000 0.005630 -0.001326 0.000000 0.007474 0.000762 0.000000 0.009454 0.003913 0.000000 0.010553 0.007792 0.000000 0.011649 0.012496 0.000000 0.011603 0.017798 0.000000 0.011429 0.023534 0.000000 0.009920 0.029672 0.000000 0.008180 0.035676 0.000000 0.005033 0.041809 0.000000 0.001583 0.047051 0.000000 -0.003157 0.052066 0.000000 -0.008226 0.055277 0.000000 -0.014188 0.057839 0.000000 -0.020445 0.057657 0.000000 -0.026838 0.056378 0.000000 -0.033428 0.051652 0.000000 -0.039026 0.045389 0.000000 -0.044655 0.035633 0.000000 -0.047968 0.023867 0.000000 -0.050952 0.009670 0.000000 -0.050631 -0.006896 0.000000 -0.049262 -0.023538 0.000000 -0.045115 -0.041687 0.000000 -0.040147 -0.057779 0.000000 -0.035140 -0.073348 0.000000 -0.029651 -0.086000 0.000000 -0.024677 -0.097366 0.000000 -0.017084 -0.107542 0.000000 -0.007223 -0.114309 0.000000 0.005385 -0.117289 0.000000 0.017852 -0.113405 0.000000 0.027765 -0.105855 0.000000 0.035114 -0.094307 0.000000 0.038722 -0.082614 0.000000 0.043228 -0.070218 0.000000 0.046718 -0.056877 0.000000 0.051848 -0.043361 0.000000 0.056121 -0.028834 0.000000 0.060151 -0.014590 0.000000 0.062030 0.000996 0.000000 0.062006 0.014947 0.000000 0.059874 0.028787 0.000000 0.055382 0.039884 0.000000 0.049654 0.049143 0.000000 0.042368 0.055293 0.000000 0.035011 0.058925 0.000000 0.027175 0.059965 0.000000 0.020081 0.058779 0.000000 0.013283 0.055889 0.000000 0.007580 0.051491 0.000000 0.002568 0.046219 0.000000 -0.001292 0.040207 0.000000 -0.004345 0.033952 0.000000 -0.006331 0.027622 0.000000 -0.007572 0.021489 0.000000 -0.007886 0.015799 0.000000 -0.007635 0.010601 0.000000 -0.006614 0.006216 0.000000 -0.005275 0.002510 0.000000 -0.003332 -0.000146 0.000000 -0.001357 -0.002020 0.000000 
0.000684 -0.005386 0.000000 0.003475 -0.005272 0.000000 0.006574 -0.003848 0.000000 0.009068 -0.001546 0.000000 0.011757 0.001953 0.000000 0.013524 0.006250 0.000000 0.015382 0.011496 0.000000 0.016021 0.017397 0.000000 0.016659 0.023834 0.000000 0.015837 0.030709 0.000000 0.014933 0.037511 0.000000 0.012437 0.044444 0.000000 0.009789 0.050480 0.000000 0.005616 0.056239 0.000000 0.001228 0.060086 0.000000 -0.004301 0.063165 0.000000 -0.010116 0.063238 0.000000 -0.016219 0.062036 0.000000 -0.022740 0.056930 0.000000 -0.028146 0.050101 0.000000 -0.034233 0.039149 0.000000 -0.037460 0.026063 0.000000 -0.041480 0.009973 0.000000 -0.041322 -0.008436 0.000000 -0.040639 -0.026644 0.000000 -0.036896 -0.045301 0.000000 -0.031070 -0.059822 0.000000 -0.024506 -0.073869 0.000000 -0.017169 -0.085976 0.000000 -0.013242 -0.099569 0.000000 -0.008159 -0.114545 0.000000 -0.002572 -0.126333 0.000000 0.005580 -0.131602 0.000000 0.013647 -0.125422 0.000000 0.019717 -0.112941 0.000000 0.024817 -0.095587 0.000000 0.027525 -0.081241 0.000000 0.033460 -0.069356 0.000000 0.038340 -0.058117 0.000000 0.044154 -0.047235 0.000000 0.048359 -0.033527 0.000000 0.053154 -0.018716 0.000000 0.055365 -0.001493 0.000000 0.055451 0.014522 0.000000 0.053440 0.030636 0.000000 0.048384 0.043744 0.000000 0.042332 0.054512 0.000000 0.034322 0.061584 0.000000 0.026661 0.065562 0.000000 0.018468 0.066491 0.000000 0.011396 0.064840 0.000000 0.004725 0.061260 0.000000 -0.000632 0.056028 0.000000 -0.005163 0.049857 0.000000 -0.008468 0.042933 0.000000 -0.010856 0.035778 0.000000 -0.012187 0.028607 0.000000 -0.012701 0.021682 0.000000 -0.012332 0.015298 0.000000 -0.011357 0.009473 0.000000 -0.009661 0.004583 0.000000 -0.007629 0.000446 0.000000 -0.005026 -0.002507 0.000000 -0.002388 -0.004599 0.000000 
0.000661 -0.008589 0.000000 0.004081 -0.008502 0.000000 0.007814 -0.006919 0.000000 0.010958 -0.004422 0.000000 0.014324 -0.000543 0.000000 0.016784 0.004167 0.000000 0.019383 0.009999 0.000000 0.020771 0.016520 0.000000 0.022220 0.023719 0.000000 0.022194 0.031399 0.000000 0.022156 0.039076 0.000000 0.020470 0.046952 0.000000 0.018702 0.053872 0.000000 0.015286 0.060627 0.000000 0.011719 0.065194 0.000000 0.006800 0.069183 0.000000 0.001660 0.069575 0.000000 -0.004048 0.069002 0.000000 -0.010077 0.063580 0.000000 -0.015201 0.056882 0.000000 -0.020885 0.044946 0.000000 -0.023562 0.031114 0.000000 -0.026971 0.013533 0.000000 -0.025277 -0.007738 0.000000 -0.022571 -0.027964 0.000000 -0.015390 -0.051256 0.000000 -0.008563 -0.070170 0.000000 -0.005454 -0.087249 0.000000 -0.004894 -0.097263 0.000000 -0.009735 -0.106376 0.000000 -0.010730 -0.118211 0.000000 -0.006507 -0.128048 0.000000 0.004798 -0.133509 0.000000 0.015662 -0.127542 0.000000 0.021424 -0.117024 0.000000 0.021142 -0.102116 0.000000 0.014565 -0.091258 0.000000 0.013658 -0.081033 0.000000 0.014779 -0.067571 0.000000 0.021540 -0.053380 0.000000 0.029465 -0.037834 0.000000 0.037587 -0.021596 0.000000 0.042438 -0.001302 0.000000 0.044391 0.016872 0.000000 0.043602 0.035854 0.000000 0.038918 0.050993 0.000000 0.032845 0.063205 0.000000 0.024625 0.070964 0.000000 0.016828 0.074778 0.000000 0.008676 0.075231 0.000000 0.001844 0.072523 0.000000 -0.004381 0.067917 0.000000 -0.009166 0.061379 0.000000 -0.012996 0.054055 0.000000 -0.015572 0.045900 0.000000 -0.017167 0.037671 0.000000 -0.017735 0.029467 0.000000 -0.017464 0.021635 0.000000 -0.016361 0.014455 0.000000 -0.014651 0.007930 0.000000 -0.012271 0.002488 0.000000 -0.009559 -0.002126 0.000000 -0.006313 -0.005388 0.000000 -0.003035 -0.007730 0.000000 
0.000232 -0.012501 0.000000 0.004284 -0.012426 0.000000 0.008667 -0.010726 0.000000 0.012449 -0.008056 0.000000 0.016519 -0.003873 0.000000 0.019649 0.001191 0.000000 0.023036 0.007509 0.000000 0.025135 0.014560 0.000000 0.027471 0.022411 0.000000 0.028182 0.030773 0.000000 0.029114 0.039235 0.000000 0.028148 0.047898 0.000000 0.027378 0.055664 0.000000 0.024593 0.063222 0.000000 0.021943 0.068572 0.000000 0.017481 0.073224 0.000000 0.013028 0.074087 0.000000 0.007613 0.073773 0.000000 0.001908 0.068083 0.000000 -0.002794 0.060909 0.000000 -0.008737 0.047510 0.000000 -0.010561 0.032148 0.000000 -0.015774 0.011688 0.000000 -0.013626 -0.012836 0.000000 -0.012766 -0.036531 0.000000 -0.008622 -0.059309 0.000000 -0.000418 -0.069758 0.000000 0.009797 -0.077538 0.000000 0.020285 -0.081695 0.000000 0.017612 -0.093732 0.000000 0.012541 -0.117773 0.000000 0.005888 -0.141861 0.000000 0.003197 -0.153771 0.000000 0.000189 -0.142048 0.000000 -0.004274 -0.118421 0.000000 -0.007710 -0.088728 0.000000 -0.011201 -0.073757 0.000000 -0.002597 -0.069570 0.000000 0.005621 -0.065999 0.000000 0.012590 -0.061921 0.000000 0.018117 -0.049573 0.000000 0.027761 -0.031689 0.000000 0.033656 -0.008297 0.000000 0.036006 0.013358 0.000000 0.036094 0.036109 0.000000 0.030569 0.054502 0.000000 0.024081 0.068805 0.000000 0.014745 0.077601 0.000000 0.006561 0.081511 0.000000 -0.001954 0.081475 0.000000 -0.008624 0.077896 0.000000 -0.014464 0.072270 0.000000 -0.018675 0.064644 0.000000 -0.021721 0.056262 0.000000 -0.023537 0.047103 0.000000 -0.024227 0.037941 0.000000 -0.023998 0.028904 0.000000 -0.022845 0.020309 0.000000 -0.020979 0.012486 0.000000 -0.018464 0.005383 0.000000 -0.015375 -0.000510 0.000000 -0.011942 -0.005511 0.000000 -0.008038 -0.009032 0.000000 -0.004099 -0.011573 0.000000 
0.000171 -0.016971 0.000000 0.004754 -0.016937 0.000000 0.009673 -0.015085 0.000000 0.014013 -0.012274 0.000000 0.018673 -0.007743 0.000000 0.022424 -0.002350 0.000000 0.026491 0.004513 0.000000 0.029295 0.012086 0.000000 0.032417 0.020672 0.000000 0.033917 0.029756 0.000000 0.035730 0.039110 0.000000 0.035604 0.048688 0.000000 0.035760 0.057427 0.000000 0.033773 0.066063 0.000000 0.031994 0.072305 0.000000 0.028118 0.078098 0.000000 0.024343 0.079444 0.000000 0.019130 0.080122 0.000000 0.013914 0.073986 0.000000 0.009312 0.067527 0.000000 0.004141 0.052714 0.000000 0.003426 0.038151 0.000000 -0.000508 0.016597 0.000000 0.004830 -0.010746 0.000000 0.012961 -0.032967 0.000000 0.032274 -0.063603 0.000000 0.048091 -0.088588 0.000000 0.050123 -0.107951 0.000000 0.042989 -0.105079 0.000000 0.019758 -0.098633 0.000000 0.001847 -0.106487 0.000000 -0.005312 -0.118704 0.000000 0.000840 -0.127810 0.000000 0.005270 -0.120072 0.000000 0.002187 -0.109124 0.000000 -0.012517 -0.095188 0.000000 -0.038110 -0.096371 0.000000 -0.046168 -0.097856 0.000000 -0.045595 -0.082758 0.000000 -0.031601 -0.065876 0.000000 -0.011542 -0.053004 0.000000 0.006700 -0.037135 0.000000 0.017227 -0.009548 0.000000 0.023158 0.014434 0.000000 0.025792 0.041291 0.000000 0.020791 0.063006 0.000000 0.013936 0.079029 0.000000 0.004083 0.088483 0.000000 -0.004385 0.091478 0.000000 -0.012786 0.090416 0.000000 -0.019014 0.085033 0.000000 -0.024139 0.077967 0.000000 -0.027522 0.068636 0.000000 -0.029626 0.058918 0.000000 -0.030538 0.048406 0.000000 -0.030294 0.038132 0.000000 -0.029224 0.028085 0.000000 -0.027239 0.018615 0.000000 -0.024636 0.010074 0.000000 -0.021407 0.002326 0.000000 -0.017684 -0.004034 0.000000 -0.013637 -0.009463 0.000000 -0.009173 -0.013231 0.000000 -0.004684 -0.016000 0.000000 
-0.000297 -0.021939 0.000000 0.004786 -0.021928 0.000000 0.010213 -0.019984 0.000000 0.015063 -0.017056 0.000000 0.020296 -0.012284 0.000000 0.024607 -0.006627 0.000000 0.029361 0.000638 0.000000 0.032788 0.008634 0.000000 0.036739 0.017789 0.000000 0.038903 0.027460 0.000000 0.041678 0.037548 0.000000 0.042187 0.047868 0.000000 0.043376 0.057494 0.000000 0.041864 0.066988 0.000000 0.041055 0.074227 0.000000 0.037317 0.080875 0.000000 0.034314 0.083075 0.000000 0.028918 0.084202 0.000000 0.024521 0.077900 0.000000 0.020647 0.070682 0.000000 0.017385 0.053396 0.000000 0.021230 0.036798 0.000000 0.016525 0.010284 0.000000 0.029408 -0.026305 0.000000 0.034395 -0.063975 0.000000 0.035400 -0.094439 0.000000 0.043771 -0.087606 0.000000 0.068409 -0.072436 0.000000 0.103484 -0.051331 0.000000 0.109183 -0.052591 0.000000 0.094505 -0.092702 0.000000 0.053411 -0.140854 0.000000 -0.001490 -0.164354 0.000000 -0.057568 -0.143395 0.000000 -0.098180 -0.100634 0.000000 -0.110344 -0.048431 0.000000 -0.101095 -0.040106 0.000000 -0.065422 -0.062086 0.000000 -0.043036 -0.080566 0.000000 -0.041655 -0.095974 0.000000 -0.039918 -0.087874 0.000000 -0.018661 -0.060458 0.000000 -0.001509 -0.024756 0.000000 0.007298 0.004793 0.000000 0.014831 0.038477 0.000000 0.009868 0.066358 0.000000 0.003042 0.085512 0.000000 -0.007981 0.095922 0.000000 -0.016608 0.098380 0.000000 -0.024979 0.096104 0.000000 -0.030680 0.089250 0.000000 -0.034896 0.080777 0.000000 -0.037412 0.070131 0.000000 -0.038340 0.059278 0.000000 -0.038328 0.047771 0.000000 -0.036961 0.036627 0.000000 -0.035034 0.025848 0.000000 -0.032089 0.015721 0.000000 -0.028740 0.006654 0.000000 -0.024728 -0.001570 0.000000 -0.020372 -0.008280 0.000000 -0.015687 -0.014022 0.000000 -0.010680 -0.017985 0.000000 -0.005650 -0.020917 0.000000 
-0.000390 -0.027407 0.000000 0.005001 -0.027446 0.000000 0.010737 -0.025361 0.000000 0.015927 -0.022357 0.000000 0.021535 -0.017287 0.000000 0.026263 -0.011415 0.000000 0.031498 -0.003669 0.000000 0.035444 0.004709 0.000000 0.039996 0.014557 0.000000 0.042773 0.024817 0.000000 0.046241 0.035826 0.000000 0.047400 0.046991 0.000000 0.049288 0.057750 0.000000 0.048347 0.068383 0.000000 0.048112 0.076851 0.000000 0.044634 0.084839 0.000000 0.041939 0.087843 0.000000 0.036133 0.089915 0.000000 0.031967 0.082258 0.000000 0.027621 0.074663 0.000000 0.026880 0.052131 0.000000 0.035011 0.039012 0.000000 0.033538 0.008418 0.000000 0.047053 -0.028616 0.000000 0.076280 -0.038959 0.000000 0.142641 -0.072980 0.000000 0.180517 -0.121597 0.000000 0.168797 -0.167664 0.000000 0.145413 -0.145853 0.000000 0.126737 -0.089654 0.000000 0.107239 -0.050715 0.000000 0.061330 -0.022709 0.000000 -0.002317 -0.016832 0.000000 -0.064554 -0.023382 0.000000 -0.116811 -0.056348 0.000000 -0.142412 -0.092273 0.000000 -0.153124 -0.141294 0.000000 -0.169998 -0.155915 0.000000 -0.184099 -0.106525 0.000000 -0.148449 -0.068994 0.000000 -0.088272 -0.075998 0.000000 -0.053160 -0.075543 0.000000 -0.032585 -0.035507 0.000000 -0.015977 -0.001906 0.000000 0.000188 0.038721 0.000000 -0.002090 0.074795 0.000000 -0.009084 0.096878 0.000000 -0.020106 0.108133 0.000000 -0.028386 0.108476 0.000000 -0.035941 0.104487 0.000000 -0.040582 0.094950 0.000000 -0.043627 0.084700 0.000000 -0.045032 0.072080 0.000000 -0.044840 0.059834 0.000000 -0.043874 0.047027 0.000000 -0.041569 0.034838 0.000000 -0.038872 0.023213 0.000000 -0.035191 0.012322 0.000000 -0.031243 0.002713 0.000000 -0.026676 -0.006042 0.000000 -0.021866 -0.013075 0.000000 -0.016764 -0.019156 0.000000 -0.011406 -0.023268 0.000000 -0.006043 -0.026383 0.000000 
-0.000874 -0.032984 0.000000 0.004760 -0.033054 0.000000 0.010726 -0.030910 0.000000 0.016178 -0.027854 0.000000 0.022085 -0.022620 0.000000 0.027140 -0.016590 0.000000 0.032803 -0.008543 0.000000 0.037148 0.000136 0.000000 0.042284 0.010461 0.000000 0.045474 0.021216 0.000000 0.049644 0.032921 0.000000 0.051080 0.044820 0.000000 0.053659 0.056548 0.000000 0.052606 0.068164 0.000000 0.052862 0.077940 0.000000 0.048559 0.087049 0.000000 0.046085 0.091576 0.000000 0.038465 0.094174 0.000000 0.035244 0.086413 0.000000 0.030171 0.075769 0.000000 0.038810 0.046006 0.000000 0.060708 0.030139 0.000000 0.074105 -0.001758 0.000000 0.137224 -0.069047 0.000000 0.176283 -0.159563 0.000000 0.178424 -0.198676 0.000000 0.105114 -0.113763 0.000000 0.003504 -0.037332 0.000000 -0.066158 -0.009271 0.000000 -0.094554 -0.014416 0.000000 -0.092104 -0.027295 0.000000 -0.061586 -0.031299 0.000000 -0.005602 -0.038469 0.000000 0.048431 -0.028901 0.000000 0.082032 -0.022776 0.000000 0.079519 -0.012118 0.000000 0.049548 -0.012520 0.000000 -0.012938 -0.031111 0.000000 -0.110255 -0.102116 0.000000 -0.165083 -0.191801 0.000000 -0.193038 -0.183162 0.000000 -0.165807 -0.116145 0.000000 -0.089229 -0.061939 0.000000 -0.057647 -0.027980 0.000000 -0.024381 0.024591 0.000000 -0.020363 0.075630 0.000000 -0.025092 0.103528 0.000000 -0.035393 0.115224 0.000000 -0.042210 0.114215 0.000000 -0.048199 0.108300 0.000000 -0.051588 0.096935 0.000000 -0.052945 0.085228 0.000000 -0.053372 0.071344 0.000000 -0.051732 0.058120 0.000000 -0.049927 0.044500 0.000000 -0.046475 0.031625 0.000000 -0.043054 0.019471 0.000000 -0.038517 0.008092 0.000000 -0.033990 -0.001861 0.000000 -0.028819 -0.010947 0.000000 -0.023583 -0.018192 0.000000 -0.018070 -0.024482 0.000000 -0.012411 -0.028706 0.000000 -0.006758 -0.031933 0.000000 