# vtk DataFile Version 2.0
Comment goes here
ASCII

DATASET STRUCTURED_POINTS
FIELD FieldData 1
TIME 1 1 double
1.96000000
DIMENSIONS    64   64   1

ORIGIN    0.000   0.000   0.000
SPACING   0.015625 0.015625   1.000

POINT_DATA   4096
VECTORS u double

0.001820 -0.000000 0.000000 0.001548 -0.000000 0.000000 0.001436 -0.000000 0.000000 0.000821 -0.000000 0.000000 0.000214 -0.000000 0.000000 -0.001195 -0.000000 0.000000 -0.002735 -0.000000 0.000000 -0.005301 -0.000000 0.000000 -0.008105 -0.000000 0.000000 -0.012046 -0.000000 0.000000 -0.016281 -0.000000 0.000000 -0.021614 -0.000000 0.000000 -0.027225 -0.000000 0.000000 -0.033714 -0.000000 0.000000 -0.040373 -0.000000 0.000000 -0.047492 -0.000000 0.000000 -0.054570 -0.000000 0.000000 -0.061512 -0.000000 0.000000 -0.068094 -0.000000 0.000000 -0.073826 -0.000000 0.000000 -0.078795 -0.000000 0.000000 -0.082195 -0.000000 0.000000 -0.084401 -0.000000 0.000000 -0.084456 -0.000000 0.000000 -0.082948 -0.000000 0.000000 -0.078984 -0.000000 0.000000 -0.073253 -0.000000 0.000000 -0.065112 -0.000000 0.000000 -0.055266 -0.000000 0.000000 -0.043416 -0.000000 0.000000 -0.030287 -0.000000 0.000000 -0.015942 -0.000000 0.000000 -0.001164 -0.000000 0.000000 0.013739 -0.000000 0.000000 0.028019 -0.000000 0.000000 0.041373 -0.000000 0.000000 0.053268 -0.000000 0.000000 0.063552 -0.000000 0.000000 0.071973 -0.000000 0.000000 0.078474 -0.000000 0.000000 0.083040 -0.000000 0.000000 0.085643 -0.000000 0.000000 0.086435 -0.000000 0.000000 0.085443 -0.000000 0.000000 0.082919 -0.000000 0.000000 0.078998 -0.000000 0.000000 0.073949 -0.000000 0.000000 0.068046 -0.000000 0.000000 0.061486 -0.000000 0.000000 0.054658 -0.000000 0.000000 0.047627 -0.000000 0.000000 0.040845 -0.000000 0.000000 0.034233 -0.000000 0.000000 0.028238 -0.000000 0.000000 0.022667 -0.000000 0.000000 0.017908 -0.000000 0.000000 0.013707 -0.000000 0.000000 0.010340 -0.000000 0.000000 0.007564 -0.000000 0.000000 0.005499 -0.000000 0.000000 0.003981 -0.000000 0.000000 0.002941 -0.000000 0.000000 0.002347 -0.000000 0.000000 0.001928 -0.000000 0.000000 
0.001670 0.000190 0.000000 0.001442 0.000192 0.000000 0.001384 0.000363 0.000000 0.000816 0.000611 0.000000 0.000262 0.001008 0.000000 -0.001101 0.001474 0.000000 -0.002590 0.002053 0.000000 -0.005111 0.002685 0.000000 -0.007870 0.003372 0.000000 -0.011769 0.004088 0.000000 -0.015971 0.004784 0.000000 -0.021265 0.005472 0.000000 -0.026860 0.006050 0.000000 -0.033317 0.006574 0.000000 -0.039979 0.006889 0.000000 -0.047075 0.007099 0.000000 -0.054175 0.007010 0.000000 -0.061102 0.006762 0.000000 -0.067715 0.006157 0.000000 -0.073437 0.005351 0.000000 -0.078429 0.004184 0.000000 -0.081812 0.002803 0.000000 -0.084004 0.001131 0.000000 -0.084024 -0.000727 0.000000 -0.082448 -0.002736 0.000000 -0.078430 -0.004847 0.000000 -0.072605 -0.006936 0.000000 -0.064431 -0.008994 0.000000 -0.054546 -0.010848 0.000000 -0.042755 -0.012489 0.000000 -0.029717 -0.013737 0.000000 -0.015534 -0.014562 0.000000 -0.000941 -0.014840 0.000000 0.013781 -0.014591 0.000000 0.027889 -0.013817 0.000000 0.041149 -0.012624 0.000000 0.052972 -0.011089 0.000000 0.063285 -0.009353 0.000000 0.071728 -0.007461 0.000000 0.078323 -0.005534 0.000000 0.082933 -0.003584 0.000000 0.085615 -0.001698 0.000000 0.086425 0.000100 0.000000 0.085452 0.001758 0.000000 0.082907 0.003223 0.000000 0.078944 0.004485 0.000000 0.073850 0.005476 0.000000 0.067868 0.006232 0.000000 0.061259 0.006694 0.000000 0.054347 0.006929 0.000000 0.047281 0.006906 0.000000 0.040433 0.006697 0.000000 0.033805 0.006304 0.000000 0.027771 0.005783 0.000000 0.022206 0.005165 0.000000 0.017435 0.004480 0.000000 0.013258 0.003784 0.000000 0.009901 0.003071 0.000000 0.007162 0.002420 0.000000 0.005123 0.001792 0.000000 0.003650 0.001279 0.000000 0.002646 0.000817 0.000000 0.002102 0.000506 0.000000 0.001725 0.000263 0.000000 
0.001772 0.000282 0.000000 0.001707 0.000286 0.000000 0.001808 0.000627 0.000000 0.001402 0.001122 0.000000 0.001015 0.001916 0.000000 -0.000185 0.002852 0.000000 -0.001499 0.004010 0.000000 -0.003857 0.005281 0.000000 -0.006434 0.006658 0.000000 -0.010175 0.008101 0.000000 -0.014194 0.009497 0.000000 -0.019345 0.010889 0.000000 -0.024766 0.012051 0.000000 -0.031106 0.013119 0.000000 -0.037619 0.013759 0.000000 -0.044638 0.014196 0.000000 -0.051635 0.014027 0.000000 -0.058536 0.013541 0.000000 -0.065115 0.012335 0.000000 -0.070869 0.010714 0.000000 -0.075919 0.008375 0.000000 -0.079399 0.005575 0.000000 -0.081756 0.002212 0.000000 -0.081950 -0.001556 0.000000 -0.080648 -0.005594 0.000000 -0.076889 -0.009843 0.000000 -0.071420 -0.013999 0.000000 -0.063557 -0.018059 0.000000 -0.054000 -0.021676 0.000000 -0.042433 -0.024829 0.000000 -0.029531 -0.027222 0.000000 -0.015375 -0.028776 0.000000 -0.000740 -0.029314 0.000000 0.014004 -0.028830 0.000000 0.028083 -0.027368 0.000000 0.041172 -0.025083 0.000000 0.052742 -0.022137 0.000000 0.062692 -0.018756 0.000000 0.070798 -0.015038 0.000000 0.077028 -0.011205 0.000000 0.081393 -0.007292 0.000000 0.083835 -0.003491 0.000000 0.084522 0.000163 0.000000 0.083431 0.003518 0.000000 0.080836 0.006508 0.000000 0.076837 0.009057 0.000000 0.071727 0.011076 0.000000 0.065766 0.012591 0.000000 0.059167 0.013521 0.000000 0.052327 0.013978 0.000000 0.045305 0.013914 0.000000 0.038573 0.013476 0.000000 0.032029 0.012661 0.000000 0.026146 0.011598 0.000000 0.020697 0.010336 0.000000 0.016097 0.008948 0.000000 0.012057 0.007534 0.000000 0.008878 0.006096 0.000000 0.006288 0.004778 0.000000 0.004426 0.003512 0.000000 0.003105 0.002477 0.000000 0.002272 0.001547 0.000000 0.001883 0.000921 0.000000 0.001671 0.000432 0.000000 
0.001569 0.000154 0.000000 0.001752 0.000156 0.000000 0.002119 0.000668 0.000000 0.001963 0.001404 0.000000 0.001848 0.002595 0.000000 0.000900 0.003988 0.000000 -0.000138 0.005725 0.000000 -0.002247 0.007620 0.000000 -0.004553 0.009691 0.000000 -0.008054 0.011847 0.000000 -0.011821 0.013954 0.000000 -0.016755 0.016044 0.000000 -0.021965 0.017810 0.000000 -0.028124 0.019427 0.000000 -0.034494 0.020422 0.000000 -0.041387 0.021115 0.000000 -0.048328 0.020907 0.000000 -0.055168 0.020242 0.000000 -0.061787 0.018490 0.000000 -0.067549 0.016154 0.000000 -0.072714 0.012715 0.000000 -0.076256 0.008641 0.000000 -0.078752 0.003681 0.000000 -0.079033 -0.001835 0.000000 -0.077831 -0.007797 0.000000 -0.074174 -0.014076 0.000000 -0.068782 -0.020268 0.000000 -0.061092 -0.026413 0.000000 -0.051723 -0.031972 0.000000 -0.040503 -0.036958 0.000000 -0.027980 -0.040795 0.000000 -0.014295 -0.043353 0.000000 -0.000140 -0.044219 0.000000 0.014120 -0.043415 0.000000 0.027709 -0.040984 0.000000 0.040384 -0.037283 0.000000 0.051563 -0.032610 0.000000 0.061275 -0.027409 0.000000 0.069172 -0.021797 0.000000 0.075325 -0.016129 0.000000 0.079601 -0.010391 0.000000 0.082023 -0.004826 0.000000 0.082649 0.000504 0.000000 0.081497 0.005444 0.000000 0.078811 0.009816 0.000000 0.074681 0.013594 0.000000 0.069454 0.016547 0.000000 0.063339 0.018791 0.000000 0.056644 0.020134 0.000000 0.049693 0.020792 0.000000 0.042641 0.020660 0.000000 0.035886 0.019974 0.000000 0.029395 0.018731 0.000000 0.023584 0.017114 0.000000 0.018266 0.015215 0.000000 0.013814 0.013120 0.000000 0.009961 0.011003 0.000000 0.006983 0.008841 0.000000 0.004615 0.006873 0.000000 0.002982 0.004974 0.000000 0.001903 0.003432 0.000000 0.001312 0.002039 0.000000 0.001174 0.001108 0.000000 0.001209 0.000375 0.000000 
0.001623 -0.000261 0.000000 0.002159 -0.000265 0.000000 0.002882 0.000416 0.000000 0.003081 0.001393 0.000000 0.003337 0.002979 0.000000 0.002747 0.004838 0.000000 0.002096 0.007157 0.000000 0.000349 0.009696 0.000000 -0.001557 0.012465 0.000000 -0.004705 0.015369 0.000000 -0.008073 0.018197 0.000000 -0.012680 0.021033 0.000000 -0.017514 0.023421 0.000000 -0.023399 0.025648 0.000000 -0.029449 0.027021 0.000000 -0.036145 0.028029 0.000000 -0.042862 0.027808 0.000000 -0.049604 0.027000 0.000000 -0.056135 0.024715 0.000000 -0.061906 0.021640 0.000000 -0.067151 0.017083 0.000000 -0.070817 0.011613 0.000000 -0.073578 0.004989 0.000000 -0.074119 -0.002477 0.000000 -0.073390 -0.010452 0.000000 -0.070201 -0.018892 0.000000 -0.065520 -0.027082 0.000000 -0.058556 -0.035118 0.000000 -0.049985 -0.042265 0.000000 -0.039425 -0.048572 0.000000 -0.027333 -0.053429 0.000000 -0.013827 -0.056616 0.000000 0.000352 -0.057730 0.000000 0.014596 -0.056679 0.000000 0.028015 -0.053632 0.000000 0.040204 -0.048937 0.000000 0.050662 -0.043028 0.000000 0.059517 -0.036365 0.000000 0.066635 -0.029088 0.000000 0.072085 -0.021633 0.000000 0.075939 -0.013989 0.000000 0.078011 -0.006539 0.000000 0.078505 0.000689 0.000000 0.077220 0.007356 0.000000 0.074497 0.013324 0.000000 0.070318 0.018414 0.000000 0.065055 0.022418 0.000000 0.058945 0.025401 0.000000 0.052241 0.027167 0.000000 0.045376 0.027981 0.000000 0.038389 0.027721 0.000000 0.031820 0.026722 0.000000 0.025490 0.024963 0.000000 0.019953 0.022728 0.000000 0.014878 0.020106 0.000000 0.010760 0.017252 0.000000 0.007206 0.014365 0.000000 0.004590 0.011443 0.000000 0.002549 0.008779 0.000000 0.001285 0.006224 0.000000 0.000545 0.004147 0.000000 0.000319 0.002276 0.000000 0.000524 0.001024 0.000000 0.000916 0.000038 0.000000 
0.001363 -0.001089 0.000000 0.002329 -0.001104 0.000000 0.003505 -0.000253 0.000000 0.004134 0.000950 0.000000 0.004859 0.002928 0.000000 0.004704 0.005228 0.000000 0.004537 0.008123 0.000000 0.003226 0.011274 0.000000 0.001808 0.014745 0.000000 -0.000913 0.018363 0.000000 -0.003811 0.021928 0.000000 -0.008020 0.025485 0.000000 -0.012439 0.028529 0.000000 -0.017982 0.031362 0.000000 -0.023719 0.033168 0.000000 -0.030160 0.034527 0.000000 -0.036713 0.034366 0.000000 -0.043312 0.033515 0.000000 -0.049863 0.030792 0.000000 -0.055617 0.027170 0.000000 -0.061058 0.021626 0.000000 -0.064821 0.015068 0.000000 -0.067863 0.006983 0.000000 -0.068563 -0.002023 0.000000 -0.068029 -0.011715 0.000000 -0.065001 -0.021946 0.000000 -0.060407 -0.031912 0.000000 -0.053707 -0.041948 0.000000 -0.045483 -0.051103 0.000000 -0.035666 -0.059611 0.000000 -0.024451 -0.066394 0.000000 -0.012016 -0.071039 0.000000 0.001084 -0.072642 0.000000 0.014251 -0.071077 0.000000 0.026601 -0.066592 0.000000 0.037887 -0.059931 0.000000 0.047565 -0.051923 0.000000 0.055996 -0.043381 0.000000 0.062832 -0.034365 0.000000 0.068231 -0.025434 0.000000 0.072039 -0.016316 0.000000 0.074169 -0.007391 0.000000 0.074648 0.001294 0.000000 0.073312 0.009452 0.000000 0.070488 0.016719 0.000000 0.066105 0.023035 0.000000 0.060669 0.027919 0.000000 0.054314 0.031606 0.000000 0.047468 0.033704 0.000000 0.040458 0.034643 0.000000 0.033454 0.034215 0.000000 0.026912 0.032873 0.000000 0.020717 0.030598 0.000000 0.015376 0.027726 0.000000 0.010565 0.024408 0.000000 0.006768 0.020792 0.000000 0.003565 0.017172 0.000000 0.001342 0.013497 0.000000 -0.000298 0.010177 0.000000 -0.001137 0.006978 0.000000 -0.001454 0.004399 0.000000 -0.001247 0.002060 0.000000 -0.000609 0.000511 0.000000 0.000215 -0.000724 0.000000 
0.001368 -0.002374 0.000000 0.002840 -0.002407 0.000000 0.004530 -0.001389 0.000000 0.005669 0.000039 0.000000 0.006932 0.002409 0.000000 0.007299 0.005160 0.000000 0.007701 0.008635 0.000000 0.006923 0.012425 0.000000 0.006102 0.016604 0.000000 0.003915 0.020988 0.000000 0.001625 0.025304 0.000000 -0.002075 0.029662 0.000000 -0.005904 0.033384 0.000000 -0.010999 0.036928 0.000000 -0.016208 0.039199 0.000000 -0.022300 0.041023 0.000000 -0.028444 0.040960 0.000000 -0.034820 0.040150 0.000000 -0.041140 0.037020 0.000000 -0.046805 0.032835 0.000000 -0.052244 0.026287 0.000000 -0.056041 0.018418 0.000000 -0.059338 0.008731 0.000000 -0.060228 -0.002312 0.000000 -0.060262 -0.014015 0.000000 -0.057806 -0.026514 0.000000 -0.054387 -0.038376 0.000000 -0.049120 -0.050042 0.000000 -0.042609 -0.060307 0.000000 -0.034345 -0.069603 0.000000 -0.024081 -0.077079 0.000000 -0.011910 -0.082151 0.000000 0.001513 -0.083997 0.000000 0.014937 -0.082197 0.000000 0.027115 -0.077268 0.000000 0.037432 -0.069901 0.000000 0.045490 -0.061137 0.000000 0.052179 -0.051633 0.000000 0.057529 -0.041323 0.000000 0.061827 -0.030840 0.000000 0.065218 -0.019928 0.000000 0.067112 -0.009149 0.000000 0.067720 0.001546 0.000000 0.066446 0.011516 0.000000 0.063764 0.020531 0.000000 0.059429 0.028233 0.000000 0.053997 0.034209 0.000000 0.047680 0.038602 0.000000 0.040820 0.041023 0.000000 0.033945 0.041995 0.000000 0.027042 0.041267 0.000000 0.020786 0.039459 0.000000 0.014847 0.036499 0.000000 0.009927 0.032880 0.000000 0.005498 0.028714 0.000000 0.002205 0.024253 0.000000 -0.000539 0.019791 0.000000 -0.002223 0.015306 0.000000 -0.003371 0.011258 0.000000 -0.003670 0.007380 0.000000 -0.003487 0.004257 0.000000 -0.002754 0.001430 0.000000 -0.001617 -0.000438 0.000000 -0.000281 -0.001934 0.000000 
0.001047 -0.004210 0.000000 0.003082 -0.004265 0.000000 0.005367 -0.003082 0.000000 0.007071 -0.001452 0.000000 0.008956 0.001298 0.000000 0.009899 0.004459 0.000000 0.010957 0.008499 0.000000 0.010767 0.012873 0.000000 0.010628 0.017753 0.000000 0.009030 0.022839 0.000000 0.007423 0.027918 0.000000 0.004290 0.033015 0.000000 0.001096 0.037453 0.000000 -0.003489 0.041666 0.000000 -0.008176 0.044469 0.000000 -0.013856 0.046763 0.000000 -0.019672 0.046887 0.000000 -0.025772 0.046212 0.000000 -0.032038 0.042777 0.000000 -0.037590 0.038274 0.000000 -0.043294 0.030861 0.000000 -0.047159 0.022162 0.000000 -0.050930 0.011171 0.000000 -0.051998 -0.001099 0.000000 -0.052255 -0.014137 0.000000 -0.049850 -0.027821 0.000000 -0.046097 -0.040599 0.000000 -0.040738 -0.053725 0.000000 -0.034385 -0.065879 0.000000 -0.027393 -0.078138 0.000000 -0.018969 -0.088829 0.000000 -0.009142 -0.096633 0.000000 0.001878 -0.099489 0.000000 0.012948 -0.096679 0.000000 0.022883 -0.089087 0.000000 0.031442 -0.078306 0.000000 0.038267 -0.066670 0.000000 0.044698 -0.055420 0.000000 0.050195 -0.044013 0.000000 0.054913 -0.033123 0.000000 0.058631 -0.021601 0.000000 0.060968 -0.009893 0.000000 0.061802 0.001960 0.000000 0.060609 0.013408 0.000000 0.057894 0.023736 0.000000 0.053273 0.032802 0.000000 0.047610 0.039668 0.000000 0.040919 0.044783 0.000000 0.033869 0.047439 0.000000 0.026809 0.048421 0.000000 0.019921 0.047374 0.000000 0.013771 0.045068 0.000000 0.008076 0.041458 0.000000 0.003512 0.037075 0.000000 -0.000499 0.032130 0.000000 -0.003279 0.026829 0.000000 -0.005504 0.021600 0.000000 -0.006603 0.016330 0.000000 -0.007188 0.011624 0.000000 -0.006884 0.007094 0.000000 -0.006128 0.003482 0.000000 -0.004802 0.000190 0.000000 -0.003091 -0.001962 0.000000 -0.001181 -0.003709 0.000000 
0.001002 -0.006637 0.000000 0.003635 -0.006727 0.000000 0.006529 -0.005378 0.000000 0.008838 -0.003550 0.000000 0.011368 -0.000419 0.000000 0.012940 0.003159 0.000000 0.014693 0.007767 0.000000 0.015163 0.012754 0.000000 0.015773 0.018341 0.000000 0.014856 0.024193 0.000000 0.014040 0.030044 0.000000 0.011581 0.035989 0.000000 0.009189 0.041163 0.000000 0.005226 0.046200 0.000000 0.001303 0.049566 0.000000 -0.003859 0.052518 0.000000 -0.009014 0.052876 0.000000 -0.014731 0.052516 0.000000 -0.020513 0.048839 0.000000 -0.025788 0.044091 0.000000 -0.031245 0.035855 0.000000 -0.034855 0.026055 0.000000 -0.038631 0.013571 0.000000 -0.039426 -0.000986 0.000000 -0.039923 -0.016163 0.000000 -0.037617 -0.032672 0.000000 -0.035476 -0.047487 0.000000 -0.032857 -0.061755 0.000000 -0.030226 -0.073652 0.000000 -0.026920 -0.085018 0.000000 -0.020570 -0.095329 0.000000 -0.010856 -0.102998 0.000000 0.001660 -0.106088 0.000000 0.014105 -0.103202 0.000000 0.024280 -0.095762 0.000000 0.030903 -0.085284 0.000000 0.033954 -0.074393 0.000000 0.036765 -0.063561 0.000000 0.039484 -0.051538 0.000000 0.042715 -0.039276 0.000000 0.046674 -0.025982 0.000000 0.049528 -0.012320 0.000000 0.051356 0.001905 0.000000 0.050831 0.015424 0.000000 0.048717 0.027868 0.000000 0.044385 0.038517 0.000000 0.038801 0.046563 0.000000 0.032215 0.052343 0.000000 0.025135 0.055134 0.000000 0.018295 0.055943 0.000000 0.011561 0.054304 0.000000 0.005845 0.051304 0.000000 0.000534 0.046758 0.000000 -0.003430 0.041455 0.000000 -0.006898 0.035505 0.000000 -0.008995 0.029258 0.000000 -0.010605 0.023114 0.000000 -0.011006 0.016990 0.000000 -0.010962 0.011540 0.000000 -0.009985 0.006319 0.000000 -0.008612 0.002175 0.000000 -0.006649 -0.001606 0.000000 -0.004338 -0.004059 0.000000 -0.001820 -0.006072 0.000000 
0.000619 -0.009664 0.000000 0.003880 -0.009792 0.000000 0.007437 -0.008285 0.000000 0.010374 -0.006291 0.000000 0.013611 -0.002805 0.000000 0.015832 0.001134 0.000000 0.018353 0.006276 0.000000 0.019501 0.011794 0.000000 0.020939 0.018061 0.000000 0.020723 0.024573 0.000000 0.020773 0.031193 0.000000 0.019012 0.037865 0.000000 0.017473 0.043808 0.000000 0.014166 0.049552 0.000000 0.010999 0.053554 0.000000 0.006407 0.057080 0.000000 0.001809 0.057759 0.000000 -0.003446 0.057710 0.000000 -0.008989 0.053833 0.000000 -0.013912 0.049006 0.000000 -0.019609 0.039928 0.000000 -0.023052 0.029548 0.000000 -0.027639 0.015743 0.000000 -0.028560 0.000193 0.000000 -0.029377 -0.015946 0.000000 -0.026883 -0.032268 0.000000 -0.022824 -0.045359 0.000000 -0.017998 -0.058975 0.000000 -0.013681 -0.071815 0.000000 -0.011967 -0.087795 0.000000 -0.009526 -0.104893 0.000000 -0.005402 -0.118863 0.000000 0.000987 -0.124450 0.000000 0.007466 -0.119298 0.000000 0.012367 -0.105884 0.000000 0.015473 -0.087980 0.000000 0.017129 -0.072532 0.000000 0.021396 -0.060951 0.000000 0.026393 -0.049964 0.000000 0.031425 -0.040314 0.000000 0.036463 -0.028414 0.000000 0.040583 -0.014574 0.000000 0.043131 0.000657 0.000000 0.042993 0.016046 0.000000 0.041079 0.030181 0.000000 0.036357 0.042718 0.000000 0.030501 0.051838 0.000000 0.023358 0.058448 0.000000 0.016051 0.061359 0.000000 0.009013 0.061996 0.000000 0.002377 0.059824 0.000000 -0.003079 0.056095 0.000000 -0.007979 0.050733 0.000000 -0.011361 0.044507 0.000000 -0.014226 0.037695 0.000000 -0.015587 0.030536 0.000000 -0.016514 0.023611 0.000000 -0.016144 0.016687 0.000000 -0.015406 0.010603 0.000000 -0.013685 0.004744 0.000000 -0.011638 0.000146 0.000000 -0.008980 -0.004084 0.000000 -0.006018 -0.006791 0.000000 -0.002848 -0.009050 0.000000 
0.000526 -0.013365 0.000000 0.004388 -0.013545 0.000000 0.008561 -0.011872 0.000000 0.012113 -0.009725 0.000000 0.016014 -0.005877 0.000000 0.018890 -0.001583 0.000000 0.022148 0.004098 0.000000 0.024007 0.010168 0.000000 0.026269 0.017119 0.000000 0.026814 0.024359 0.000000 0.027769 0.031754 0.000000 0.026792 0.039289 0.000000 0.026215 0.046009 0.000000 0.023656 0.052674 0.000000 0.021466 0.057325 0.000000 0.017517 0.061708 0.000000 0.013865 0.062729 0.000000 0.009134 0.063314 0.000000 0.004483 0.059304 0.000000 0.000141 0.054711 0.000000 -0.004710 0.044995 0.000000 -0.007146 0.034084 0.000000 -0.010894 0.019080 0.000000 -0.010082 0.000752 0.000000 -0.009216 -0.017840 0.000000 -0.003868 -0.039226 0.000000 -0.001004 -0.056373 0.000000 -0.001554 -0.070897 0.000000 -0.005844 -0.079683 0.000000 -0.013292 -0.089173 0.000000 -0.015638 -0.101894 0.000000 -0.010997 -0.113512 0.000000 -0.000413 -0.118955 0.000000 0.009924 -0.114582 0.000000 0.016299 -0.103769 0.000000 0.015027 -0.090046 0.000000 0.007070 -0.080316 0.000000 0.003209 -0.072825 0.000000 0.002767 -0.061567 0.000000 0.006293 -0.049346 0.000000 0.014516 -0.035140 0.000000 0.021765 -0.018988 0.000000 0.027494 -0.000506 0.000000 0.029512 0.017476 0.000000 0.029249 0.034504 0.000000 0.025348 0.049095 0.000000 0.019681 0.059561 0.000000 0.012793 0.066792 0.000000 0.005435 0.069479 0.000000 -0.001209 0.069617 0.000000 -0.007579 0.066396 0.000000 -0.012368 0.061660 0.000000 -0.016694 0.055040 0.000000 -0.019250 0.047702 0.000000 -0.021389 0.039732 0.000000 -0.021891 0.031546 0.000000 -0.022063 0.023671 0.000000 -0.020877 0.015882 0.000000 -0.019420 0.009081 0.000000 -0.016957 0.002552 0.000000 -0.014244 -0.002529 0.000000 -0.010916 -0.007226 0.000000 -0.007333 -0.010192 0.000000 -0.003542 -0.012709 0.000000 
0.000089 -0.017594 0.000000 0.004546 -0.017826 0.000000 0.009352 -0.016010 0.000000 0.013499 -0.013744 0.000000 0.018093 -0.009582 0.000000 0.021595 -0.005001 0.000000 0.025639 0.001159 0.000000 0.028172 0.007673 0.000000 0.031325 0.015253 0.000000 0.032587 0.023072 0.000000 0.034519 0.031215 0.000000 0.034274 0.039420 0.000000 0.034705 0.046945 0.000000 0.032845 0.054301 0.000000 0.031614 0.059693 0.000000 0.028301 0.064681 0.000000 0.025489 0.066142 0.000000 0.021419 0.067093 0.000000 0.017494 0.062826 0.000000 0.014155 0.058198 0.000000 0.009775 0.047216 0.000000 0.008760 0.035732 0.000000 0.003972 0.018679 0.000000 0.005287 -0.001485 0.000000 0.004842 -0.022161 0.000000 0.009148 -0.040480 0.000000 0.017771 -0.047673 0.000000 0.027690 -0.054135 0.000000 0.034047 -0.060077 0.000000 0.027722 -0.078002 0.000000 0.017155 -0.107188 0.000000 0.006382 -0.134087 0.000000 -0.002395 -0.145371 0.000000 -0.011148 -0.136011 0.000000 -0.019883 -0.110987 0.000000 -0.028378 -0.078751 0.000000 -0.034692 -0.060715 0.000000 -0.028712 -0.056647 0.000000 -0.019239 -0.053048 0.000000 -0.011674 -0.052063 0.000000 -0.002722 -0.043886 0.000000 0.006829 -0.027552 0.000000 0.014320 -0.007090 0.000000 0.017686 0.014292 0.000000 0.018724 0.034346 0.000000 0.014644 0.052286 0.000000 0.008981 0.064393 0.000000 0.001491 0.072694 0.000000 -0.005935 0.075360 0.000000 -0.012594 0.075010 0.000000 -0.018616 0.070984 0.000000 -0.022810 0.065210 0.000000 -0.026462 0.057614 0.000000 -0.028106 0.049202 0.000000 -0.029435 0.040336 0.000000 -0.028952 0.031210 0.000000 -0.028306 0.022598 0.000000 -0.026193 0.014044 0.000000 -0.023972 0.006682 0.000000 -0.020688 -0.000431 0.000000 -0.017283 -0.005894 0.000000 -0.013240 -0.010995 0.000000 -0.009020 -0.014165 0.000000 -0.004593 -0.016909 0.000000 
-0.000048 -0.022504 0.000000 0.004905 -0.022807 0.000000 0.010221 -0.020825 0.000000 0.014882 -0.018466 0.000000 0.020045 -0.013974 0.000000 0.024118 -0.009129 0.000000 0.028825 -0.002478 0.000000 0.032007 0.004482 0.000000 0.035933 0.012704 0.000000 0.037921 0.021164 0.000000 0.040733 0.030067 0.000000 0.041256 0.039103 0.000000 0.042652 0.047438 0.000000 0.041534 0.055765 0.000000 0.041343 0.061869 0.000000 0.038653 0.067833 0.000000 0.037012 0.069611 0.000000 0.033474 0.071310 0.000000 0.031071 0.066568 0.000000 0.028773 0.062430 0.000000 0.026738 0.050390 0.000000 0.028698 0.039887 0.000000 0.026825 0.022553 0.000000 0.033109 -0.000117 0.000000 0.041485 -0.021701 0.000000 0.060878 -0.052155 0.000000 0.071915 -0.074914 0.000000 0.069219 -0.087173 0.000000 0.053806 -0.079715 0.000000 0.025720 -0.072281 0.000000 0.005834 -0.080555 0.000000 -0.002463 -0.093962 0.000000 -0.004405 -0.101425 0.000000 -0.007327 -0.097094 0.000000 -0.012081 -0.086539 0.000000 -0.029926 -0.075236 0.000000 -0.060123 -0.079982 0.000000 -0.074144 -0.088278 0.000000 -0.077137 -0.078605 0.000000 -0.069579 -0.065862 0.000000 -0.046814 -0.053643 0.000000 -0.026648 -0.036031 0.000000 -0.011570 -0.011363 0.000000 -0.002784 0.013072 0.000000 0.002537 0.037547 0.000000 0.000694 0.058839 0.000000 -0.004428 0.072714 0.000000 -0.011080 0.081708 0.000000 -0.018358 0.083564 0.000000 -0.024119 0.082298 0.000000 -0.029540 0.076612 0.000000 -0.032669 0.069506 0.000000 -0.035451 0.060336 0.000000 -0.036019 0.050675 0.000000 -0.036437 0.040578 0.000000 -0.034972 0.030417 0.000000 -0.033491 0.020912 0.000000 -0.030531 0.011548 0.000000 -0.027589 0.003576 0.000000 -0.023593 -0.004138 0.000000 -0.019574 -0.009978 0.000000 -0.014933 -0.015489 0.000000 -0.010179 -0.018838 0.000000 -0.005228 -0.021818 0.000000 
-0.000521 -0.027727 0.000000 0.004877 -0.028095 0.000000 0.010672 -0.025987 0.000000 0.015776 -0.023568 0.000000 0.021493 -0.018818 0.000000 0.026050 -0.013781 0.000000 0.031433 -0.006729 0.000000 0.035157 0.000565 0.000000 0.039899 0.009339 0.000000 0.042472 0.018273 0.000000 0.046217 0.027879 0.000000 0.047317 0.037501 0.000000 0.049697 0.046668 0.000000 0.049076 0.055610 0.000000 0.049853 0.062574 0.000000 0.047576 0.069012 0.000000 0.046970 0.071321 0.000000 0.044083 0.073033 0.000000 0.043395 0.067527 0.000000 0.043383 0.062531 0.000000 0.045011 0.047291 0.000000 0.053201 0.035645 0.000000 0.052360 0.014268 0.000000 0.064310 -0.016145 0.000000 0.066003 -0.049930 0.000000 0.069074 -0.070910 0.000000 0.085997 -0.056014 0.000000 0.120177 -0.036026 0.000000 0.153708 -0.016578 0.000000 0.153677 -0.030030 0.000000 0.122304 -0.079005 0.000000 0.066278 -0.123848 0.000000 -0.005525 -0.140507 0.000000 -0.077323 -0.128335 0.000000 -0.134343 -0.088389 0.000000 -0.163217 -0.030708 0.000000 -0.160775 -0.016498 0.000000 -0.129436 -0.039634 0.000000 -0.100294 -0.057612 0.000000 -0.092459 -0.082386 0.000000 -0.082086 -0.086816 0.000000 -0.061905 -0.062795 0.000000 -0.041022 -0.030954 0.000000 -0.026949 0.000185 0.000000 -0.015755 0.030868 0.000000 -0.015965 0.059251 0.000000 -0.019594 0.076167 0.000000 -0.026037 0.086624 0.000000 -0.032486 0.088399 0.000000 -0.037413 0.086193 0.000000 -0.041852 0.079534 0.000000 -0.043711 0.071121 0.000000 -0.045459 0.060964 0.000000 -0.044700 0.050188 0.000000 -0.044145 0.039289 0.000000 -0.041488 0.028264 0.000000 -0.039148 0.018156 0.000000 -0.035199 0.008141 0.000000 -0.031531 -0.000256 0.000000 -0.026750 -0.008446 0.000000 -0.022132 -0.014555 0.000000 -0.016874 -0.020390 0.000000 -0.011615 -0.023869 0.000000 -0.006163 -0.027040 0.000000 
-0.000692 -0.033544 0.000000 0.004972 -0.033999 0.000000 0.011045 -0.031724 0.000000 0.016439 -0.029287 0.000000 0.022499 -0.024248 0.000000 0.027410 -0.019069 0.000000 0.033237 -0.011584 0.000000 0.037400 -0.003984 0.000000 0.042691 0.005388 0.000000 0.045772 0.014846 0.000000 0.050133 0.025223 0.000000 0.051758 0.035623 0.000000 0.054778 0.045679 0.000000 0.054629 0.055609 0.000000 0.056128 0.063370 0.000000 0.054196 0.070716 0.000000 0.054713 0.073104 0.000000 0.051995 0.074885 0.000000 0.053498 0.067268 0.000000 0.054284 0.060814 0.000000 0.060942 0.040573 0.000000 0.076250 0.032538 0.000000 0.080606 0.011443 0.000000 0.098942 -0.013761 0.000000 0.134851 -0.026465 0.000000 0.199431 -0.072149 0.000000 0.221314 -0.126017 0.000000 0.209710 -0.154884 0.000000 0.179741 -0.113216 0.000000 0.155878 -0.040878 0.000000 0.120789 0.006845 0.000000 0.065582 0.033868 0.000000 -0.003870 0.042176 0.000000 -0.071423 0.031724 0.000000 -0.135530 -0.000645 0.000000 -0.176414 -0.048804 0.000000 -0.196379 -0.113764 0.000000 -0.227317 -0.148760 0.000000 -0.243761 -0.115581 0.000000 -0.226591 -0.084070 0.000000 -0.165032 -0.084197 0.000000 -0.120603 -0.077095 0.000000 -0.086707 -0.046320 0.000000 -0.062872 -0.012195 0.000000 -0.041124 0.026564 0.000000 -0.035507 0.062678 0.000000 -0.037792 0.082785 0.000000 -0.041410 0.094600 0.000000 -0.046563 0.094940 0.000000 -0.049271 0.091664 0.000000 -0.052248 0.082910 0.000000 -0.052484 0.073113 0.000000 -0.053004 0.061326 0.000000 -0.051050 0.049361 0.000000 -0.049527 0.037365 0.000000 -0.045947 0.025420 0.000000 -0.042853 0.014622 0.000000 -0.038190 0.003931 0.000000 -0.033948 -0.004872 0.000000 -0.028632 -0.013536 0.000000 -0.023588 -0.019854 0.000000 -0.017937 -0.026007 0.000000 -0.012357 -0.029549 0.000000 -0.006604 -0.032912 0.000000 
-0.001172 -0.039303 0.000000 0.004659 -0.039833 0.000000 0.010923 -0.037454 0.000000 0.016484 -0.035022 0.000000 0.022817 -0.029790 0.000000 0.027941 -0.024519 0.000000 0.034177 -0.016719 0.000000 0.038600 -0.008889 0.000000 0.044449 0.000967 0.000000 0.047782 0.010830 0.000000 0.052791 0.021894 0.000000 0.054541 0.032856 0.000000 0.058175 0.043797 0.000000 0.057901 0.054260 0.000000 0.059900 0.063007 0.000000 0.057586 0.070428 0.000000 0.058753 0.073522 0.000000 0.055703 0.074248 0.000000 0.059363 0.065237 0.000000 0.061785 0.055087 0.000000 0.078679 0.025325 0.000000 0.108672 0.015980 0.000000 0.130323 -0.008425 0.000000 0.189980 -0.070390 0.000000 0.212901 -0.150418 0.000000 0.203834 -0.157373 0.000000 0.097932 -0.066292 0.000000 -0.019851 0.005547 0.000000 -0.098891 0.037254 0.000000 -0.128110 0.028923 0.000000 -0.115124 0.011290 0.000000 -0.071260 0.000811 0.000000 -0.001445 -0.003501 0.000000 0.064647 0.003324 0.000000 0.113833 0.016602 0.000000 0.118920 0.030141 0.000000 0.087768 0.034405 0.000000 0.013950 0.007749 0.000000 -0.097936 -0.058338 0.000000 -0.189524 -0.161115 0.000000 -0.241257 -0.192805 0.000000 -0.235593 -0.141120 0.000000 -0.156779 -0.088685 0.000000 -0.113782 -0.045399 0.000000 -0.075523 0.003504 0.000000 -0.063292 0.055919 0.000000 -0.060541 0.082069 0.000000 -0.061069 0.095395 0.000000 -0.062991 0.096260 0.000000 -0.062799 0.091877 0.000000 -0.063790 0.082747 0.000000 -0.061834 0.071877 0.000000 -0.061145 0.059530 0.000000 -0.057595 0.046711 0.000000 -0.055207 0.034187 0.000000 -0.050447 0.021590 0.000000 -0.046673 0.010399 0.000000 -0.041155 -0.000764 0.000000 -0.036397 -0.009814 0.000000 -0.030498 -0.018806 0.000000 -0.025092 -0.025250 0.000000 -0.019069 -0.031622 0.000000 -0.013248 -0.035202 0.000000 -0.007264 -0.038704 0.000000 