# vtk DataFile Version 2.0
Comment goes here
ASCII

DATASET STRUCTURED_POINTS
FIELD FieldData 1
TIME 1 1 double
0.40000000
DIMENSIONS    64   64   1

ORIGIN    0.000   0.000   0.000
SPACING   0.015625 0.015625   1.000

POINT_DATA   4096
SCALARS uMag double
LOOKUP_TABLE default

1.344053e-04 2.775405e-02 5.529614e-02 8.267413e-02 1.097946e-01 1.365445e-01 1.628039e-01 1.883882e-01 2.131611e-01 2.368160e-01 2.592190e-01 2.798971e-01 2.987443e-01 3.150960e-01 3.289034e-01 3.393231e-01 3.463972e-01 3.491712e-01 3.478196e-01 3.414203e-01 3.303386e-01 3.139187e-01 2.928031e-01 2.669112e-01 2.372672e-01 2.046353e-01 1.704312e-01 1.361721e-01 1.032734e-01 7.312079e-02 4.612554e-02 2.213816e-02 9.752425e-05 2.237586e-02 4.629900e-02 7.331905e-02 1.034016e-01 1.363185e-01 1.705261e-01 2.047448e-01 2.373590e-01 2.670072e-01 2.929099e-01 3.140109e-01 3.304554e-01 3.415036e-01 3.479275e-01 3.492331e-01 3.464753e-01 3.393502e-01 3.289344e-01 3.150768e-01 2.987173e-01 2.798251e-01 2.591305e-01 2.366898e-01 2.130137e-01 1.882122e-01 1.626058e-01 1.363273e-01 1.095580e-01 8.242777e-02 5.503549e-02 2.749262e-02 
2.762376e-02 3.917345e-02 6.183611e-02 8.720253e-02 1.132566e-01 1.393688e-01 1.651943e-01 1.904917e-01 2.150387e-01 2.385482e-01 2.608191e-01 2.814237e-01 3.001903e-01 3.165119e-01 3.302776e-01 3.407029e-01 3.477806e-01 3.506049e-01 3.493228e-01 3.430410e-01 3.321192e-01 3.159079e-01 2.950519e-01 2.694620e-01 2.401497e-01 2.078682e-01 1.740009e-01 1.400825e-01 1.075484e-01 7.796640e-02 5.222719e-02 3.177715e-02 2.225728e-02 3.195317e-02 5.239110e-02 7.816696e-02 1.076840e-01 1.402421e-01 1.741093e-01 2.079955e-01 2.402588e-01 2.695769e-01 2.951776e-01 3.160178e-01 3.322534e-01 3.431391e-01 3.494446e-01 3.506774e-01 3.478672e-01 3.407348e-01 3.303105e-01 3.164907e-01 3.001578e-01 2.813422e-01 2.607175e-01 2.384056e-01 2.148720e-01 1.902937e-01 1.649729e-01 1.391273e-01 1.129972e-01 8.693786e-02 6.157312e-02 3.896419e-02 
5.533712e-02 6.189634e-02 7.821360e-02 9.946431e-02 1.229303e-01 1.473238e-01 1.719533e-01 1.963782e-01 2.202752e-01 2.432784e-01 2.651614e-01 2.854457e-01 3.039735e-01 3.200909e-01 3.337329e-01 3.440689e-01 3.511651e-01 3.540746e-01 3.530353e-01 3.471202e-01 3.367759e-01 3.213236e-01 3.014501e-01 2.770302e-01 2.490076e-01 2.180773e-01 1.854168e-01 1.525319e-01 1.207554e-01 9.197622e-02 6.773986e-02 5.043966e-02 4.388565e-02 5.052383e-02 6.782630e-02 9.210285e-02 1.208292e-01 1.526415e-01 1.854783e-01 2.181717e-01 2.490857e-01 2.771232e-01 3.015571e-01 3.214174e-01 3.368986e-01 3.472061e-01 3.531499e-01 3.541399e-01 3.512491e-01 3.441005e-01 3.337695e-01 3.200781e-01 3.039528e-01 2.853822e-01 2.650807e-01 2.431635e-01 2.201388e-01 1.962175e-01 1.717722e-01 1.471308e-01 1.227253e-01 9.926712e-02 7.803471e-02 6.178360e-02 
8.315629e-02 8.765998e-02 9.985636e-02 1.172573e-01 1.377287e-01 1.599083e-01 1.828612e-01 2.060428e-01 2.289463e-01 2.512083e-01 2.724607e-01 2.922840e-01 3.104047e-01 3.262544e-01 3.396878e-01 3.499651e-01 3.571254e-01 3.602931e-01 3.597408e-01 3.545665e-01 3.452912e-01 3.311988e-01 3.130123e-01 2.905098e-01 2.645033e-01 2.355409e-01 2.044515e-01 1.726305e-01 1.411685e-01 1.122595e-01 8.797882e-02 7.120081e-02 6.522009e-02 7.124880e-02 8.802615e-02 1.123448e-01 1.412081e-01 1.727220e-01 2.044967e-01 2.356404e-01 2.645878e-01 2.906214e-01 3.131412e-01 3.313140e-01 3.454398e-01 3.546718e-01 3.598780e-01 3.603739e-01 3.572251e-01 3.500068e-01 3.397315e-01 3.262448e-01 3.103825e-01 2.922168e-01 2.723715e-01 2.510842e-01 2.287973e-01 2.058710e-01 1.826687e-01 1.597085e-01 1.375226e-01 1.170695e-01 9.969888e-02 8.757069e-02 
1.112205e-01 1.146064e-01 1.241747e-01 1.385303e-01 1.562214e-01 1.760690e-01 1.971270e-01 2.187820e-01 2.404382e-01 2.616803e-01 2.820817e-01 3.011949e-01 3.187386e-01 3.341276e-01 3.472723e-01 3.574195e-01 3.647303e-01 3.683091e-01 3.685975e-01 3.646489e-01 3.571495e-01 3.452928e-01 3.298563e-01 3.104478e-01 2.876244e-01 2.616262e-01 2.325935e-01 2.016274e-01 1.693325e-01 1.383048e-01 1.113598e-01 9.242428e-02 8.572556e-02 9.243052e-02 1.113467e-01 1.383122e-01 1.692928e-01 2.016549e-01 2.325701e-01 2.616871e-01 2.876699e-01 3.105400e-01 3.299712e-01 3.453954e-01 3.572950e-01 3.647446e-01 3.687346e-01 3.683853e-01 3.648323e-01 3.574649e-01 3.473243e-01 3.341329e-01 3.187344e-01 3.011550e-01 2.820219e-01 2.615957e-01 2.403304e-01 2.186606e-01 1.969865e-01 1.759288e-01 1.560759e-01 1.384054e-01 1.240724e-01 1.145523e-01 
1.394479e-01 1.421593e-01 1.499835e-01 1.620675e-01 1.774133e-01 1.951156e-01 2.142640e-01 2.343174e-01 2.545539e-01 2.746338e-01 2.939725e-01 3.122457e-01 3.290338e-01 3.439177e-01 3.567266e-01 3.668870e-01 3.745613e-01 3.789852e-01 3.806865e-01 3.787190e-01 3.738977e-01 3.652328e-01 3.535268e-01 3.380380e-01 3.189752e-01 2.961560e-01 2.689757e-01 2.382789e-01 2.041304e-01 1.696684e-01 1.385750e-01 1.161808e-01 1.082538e-01 1.161615e-01 1.385284e-01 1.696246e-01 2.040393e-01 2.382735e-01 2.689157e-01 2.962196e-01 3.190252e-01 3.381571e-01 3.536755e-01 3.653648e-01 3.740847e-01 3.788429e-01 3.808602e-01 3.790860e-01 3.746884e-01 3.669492e-01 3.567896e-01 3.439298e-01 3.290281e-01 3.122033e-01 2.939028e-01 2.745407e-01 2.544328e-01 2.341862e-01 2.141129e-01 1.949700e-01 1.772653e-01 1.619453e-01 1.498863e-01 1.421095e-01 
1.679948e-01 1.702248e-01 1.768076e-01 1.871271e-01 2.005220e-01 2.162676e-01 2.335731e-01 2.519437e-01 2.706404e-01 2.893428e-01 3.074300e-01 3.246157e-01 3.404980e-01 3.547185e-01 3.672146e-01 3.774720e-01 3.858402e-01 3.915566e-01 3.953637e-01 3.961948e-01 3.950461e-01 3.906617e-01 3.838846e-01 3.735634e-01 3.595219e-01 3.409986e-01 3.162228e-01 2.856325e-01 2.484373e-01 2.085787e-01 1.708842e-01 1.428095e-01 1.327613e-01 1.427458e-01 1.707758e-01 2.084413e-01 2.482470e-01 2.855554e-01 3.160690e-01 3.410247e-01 3.595300e-01 3.736710e-01 3.840326e-01 3.907860e-01 3.952457e-01 3.963141e-01 3.955489e-01 3.916589e-01 3.859764e-01 3.775444e-01 3.672907e-01 3.547532e-01 3.405161e-01 3.246103e-01 3.073980e-01 2.893000e-01 2.705697e-01 2.518718e-01 2.334799e-01 2.161832e-01 2.004304e-01 1.870561e-01 1.767487e-01 1.701963e-01 
1.966617e-01 1.985533e-01 2.042197e-01 2.131751e-01 2.249500e-01 2.389844e-01 2.545414e-01 2.712584e-01 2.883099e-01 3.055402e-01 3.221838e-01 3.382004e-01 3.530606e-01 3.667326e-01 3.790823e-01 3.899310e-01 3.996045e-01 4.075330e-01 4.144747e-01 4.192447e-01 4.229381e-01 4.238016e-01 4.227841e-01 4.179964e-01 4.089047e-01 3.942298e-01 3.714503e-01 3.409640e-01 3.009901e-01 2.562622e-01 2.122877e-01 1.785897e-01 1.664576e-01 1.784849e-01 2.121395e-01 2.560383e-01 3.007143e-01 3.408323e-01 3.712206e-01 3.942548e-01 4.089141e-01 4.181387e-01 4.229835e-01 4.239585e-01 4.232033e-01 4.194080e-01 4.147231e-01 4.076833e-01 3.997860e-01 3.900379e-01 3.791773e-01 3.667800e-01 3.530743e-01 3.381892e-01 3.221339e-01 3.054818e-01 2.882177e-01 2.711696e-01 2.544308e-01 2.388878e-01 2.248486e-01 2.130984e-01 2.041579e-01 1.985237e-01 
2.255816e-01 2.271863e-01 2.321343e-01 2.399459e-01 2.503314e-01 2.627837e-01 2.766677e-01 2.916759e-01 3.070028e-01 3.225813e-01 3.376667e-01 3.523684e-01 3.662600e-01 3.794958e-01 3.921302e-01 4.041039e-01 4.159157e-01 4.269042e-01 4.378986e-01 4.473683e-01 4.564802e-01 4.630044e-01 4.681119e-01 4.694180e-01 4.665730e-01 4.576958e-01 4.387249e-01 4.096632e-01 3.669363e-01 3.164191e-01 2.642924e-01 2.228645e-01 2.077633e-01 2.226702e-01 2.640531e-01 3.160286e-01 3.665089e-01 4.094495e-01 4.383307e-01 4.576659e-01 4.665163e-01 4.695358e-01 4.683230e-01 4.631440e-01 4.567825e-01 4.475381e-01 4.381822e-01 4.270784e-01 4.161258e-01 4.042437e-01 3.922535e-01 3.795846e-01 3.663104e-01 3.524096e-01 3.376660e-01 3.225850e-01 3.069699e-01 2.916531e-01 2.766186e-01 2.627479e-01 2.502829e-01 2.399136e-01 2.321039e-01 2.271732e-01 
2.544202e-01 2.557974e-01 2.601605e-01 2.670080e-01 2.761615e-01 2.871647e-01 2.994114e-01 3.127256e-01 3.262363e-01 3.401417e-01 3.535969e-01 3.671491e-01 3.802852e-01 3.937137e-01 4.073570e-01 4.216265e-01 4.367047e-01 4.520667e-01 4.681288e-01 4.830645e-01 4.980940e-01 5.102200e-01 5.214301e-01 5.281207e-01 5.299047e-01 5.245006e-01 5.079578e-01 4.810855e-01 4.383582e-01 3.866607e-01 3.311919e-01 2.858939e-01 2.695353e-01 2.856003e-01 3.308983e-01 3.860844e-01 4.377734e-01 4.807889e-01 5.073882e-01 5.244360e-01 5.298069e-01 5.282400e-01 5.216936e-01 5.103558e-01 4.984859e-01 4.833038e-01 4.685224e-01 4.523477e-01 4.370093e-01 4.218511e-01 4.075280e-01 3.938375e-01 3.803353e-01 3.671829e-01 3.535676e-01 3.401175e-01 3.261682e-01 3.126728e-01 2.993339e-01 2.871064e-01 2.760957e-01 2.669631e-01 2.601226e-01 2.557805e-01 
2.832449e-01 2.843989e-01 2.882533e-01 2.942050e-01 3.022175e-01 3.117977e-01 3.224303e-01 3.339953e-01 3.456875e-01 3.578972e-01 3.699088e-01 3.825865e-01 3.956511e-01 4.100898e-01 4.260065e-01 4.437487e-01 4.633410e-01 4.837227e-01 5.048818e-01 5.244078e-01 5.434663e-01 5.588883e-01 5.734017e-01 5.832845e-01 5.907130e-01 5.929366e-01 5.835325e-01 5.627670e-01 5.214137e-01 4.686838e-01 4.090721e-01 3.587563e-01 3.408508e-01 3.582549e-01 4.086335e-01 4.677440e-01 5.206196e-01 5.624695e-01 5.826429e-01 5.927556e-01 5.904606e-01 5.832903e-01 5.736758e-01 5.589503e-01 5.439149e-01 5.246637e-01 5.053350e-01 4.840773e-01 4.637178e-01 4.440688e-01 4.262558e-01 4.103094e-01 3.957790e-01 3.827098e-01 3.699558e-01 3.579554e-01 3.456927e-01 3.340159e-01 3.224182e-01 3.117987e-01 3.022018e-01 2.941993e-01 2.882427e-01 2.843958e-01 
3.115821e-01 3.125297e-01 3.159271e-01 3.210360e-01 3.279551e-01 3.361527e-01 3.451756e-01 3.550488e-01 3.649733e-01 3.757620e-01 3.866972e-01 3.993346e-01 4.133110e-01 4.303150e-01 4.499332e-01 4.727839e-01 4.976010e-01 5.231350e-01 5.479705e-01 5.697425e-01 5.900373e-01 6.054983e-01 6.224405e-01 6.349335e-01 6.439261e-01 6.459327e-01 6.378448e-01 6.234416e-01 5.898880e-01 5.485967e-01 4.992347e-01 4.561094e-01 4.421219e-01 4.554122e-01 4.987941e-01 5.472458e-01 5.888734e-01 6.231411e-01 6.366281e-01 6.456888e-01 6.435428e-01 6.348562e-01 6.227595e-01 6.054222e-01 5.905541e-01 5.700855e-01 5.485640e-01 5.236896e-01 4.981521e-01 4.732889e-01 4.503012e-01 4.306287e-01 4.134693e-01 3.994646e-01 3.867146e-01 3.757823e-01 3.649312e-01 3.550247e-01 3.451240e-01 3.361204e-01 3.279152e-01 3.210119e-01 3.159060e-01 3.125210e-01 
3.393994e-01 3.401284e-01 3.430838e-01 3.473472e-01 3.531924e-01 3.600064e-01 3.674786e-01 3.757509e-01 3.841991e-01 3.940163e-01 4.047688e-01 4.185026e-01 4.351229e-01 4.563576e-01 4.815408e-01 5.102311e-01 5.400602e-01 5.681955e-01 5.923921e-01 6.103565e-01 6.243698e-01 6.333062e-01 6.433925e-01 6.493678e-01 6.623719e-01 6.782267e-01 6.857139e-01 6.866874e-01 6.608561e-01 6.275118e-01 5.850664e-01 5.466441e-01 5.363139e-01 5.455813e-01 5.844655e-01 6.252378e-01 6.598149e-01 6.870208e-01 6.839180e-01 6.778359e-01 6.617746e-01 6.490520e-01 6.438227e-01 6.330704e-01 6.249014e-01 6.106588e-01 5.929514e-01 5.688292e-01 5.407042e-01 5.109216e-01 4.820876e-01 4.568829e-01 4.354614e-01 4.188084e-01 4.049280e-01 3.941627e-01 3.842588e-01 3.758125e-01 3.674975e-01 3.600301e-01 3.531978e-01 3.473552e-01 3.430851e-01 3.401302e-01 
3.661048e-01 3.665993e-01 3.691404e-01 3.725477e-01 3.773537e-01 3.828338e-01 3.888860e-01 3.958578e-01 4.033092e-01 4.130748e-01 4.248286e-01 4.414865e-01 4.625620e-01 4.901001e-01 5.216482e-01 5.558540e-01 5.870442e-01 6.119529e-01 6.261209e-01 6.305277e-01 6.293970e-01 6.241128e-01 6.350599e-01 6.498740e-01 6.631657e-01 6.687064e-01 6.715099e-01 6.859093e-01 6.822838e-01 6.827711e-01 6.742328e-01 6.590912e-01 6.602579e-01 6.578571e-01 6.740339e-01 6.796638e-01 6.814688e-01 6.866628e-01 6.691402e-01 6.685396e-01 6.626240e-01 6.497122e-01 6.357806e-01 6.234868e-01 6.298412e-01 6.308905e-01 6.266840e-01 6.127934e-01 5.878800e-01 5.568081e-01 5.224003e-01 4.908032e-01 4.629962e-01 4.418399e-01 4.249825e-01 4.131893e-01 4.033231e-01 3.958680e-01 3.888615e-01 3.828175e-01 3.773322e-01 3.725338e-01 3.691302e-01 3.665944e-01 
3.915525e-01 3.918057e-01 3.939263e-01 3.964816e-01 4.002891e-01 4.045466e-01 4.094401e-01 4.155838e-01 4.228813e-01 4.338094e-01 4.483606e-01 4.699097e-01 4.976998e-01 5.325895e-01 5.703108e-01 6.058075e-01 6.311811e-01 6.407707e-01 6.325518e-01 6.114412e-01 5.885160e-01 5.736373e-01 5.694971e-01 5.661339e-01 5.975314e-01 6.497884e-01 6.869060e-01 7.232143e-01 7.197799e-01 7.217243e-01 7.234581e-01 7.151863e-01 7.232226e-01 7.138250e-01 7.232666e-01 7.159684e-01 7.206464e-01 7.269111e-01 6.828649e-01 6.493669e-01 5.976047e-01 5.662174e-01 5.708861e-01 5.731533e-01 5.889404e-01 6.115571e-01 6.326209e-01 6.414095e-01 6.319326e-01 6.069286e-01 5.713393e-01 5.336635e-01 4.984917e-01 4.705936e-01 4.487804e-01 4.341310e-01 4.230489e-01 4.157005e-01 4.094933e-01 4.045791e-01 4.003037e-01 3.964878e-01 3.939300e-01 3.918062e-01 
4.150771e-01 4.150441e-01 4.168023e-01 4.184934e-01 4.214451e-01 4.246639e-01 4.288517e-01 4.348951e-01 4.431594e-01 4.569146e-01 4.761514e-01 5.048299e-01 5.405289e-01 5.826501e-01 6.221772e-01 6.505907e-01 6.552784e-01 6.334948e-01 5.850035e-01 5.318770e-01 4.835780e-01 4.547103e-01 5.069046e-01 5.746944e-01 5.906144e-01 5.911905e-01 6.037043e-01 6.688996e-01 7.156720e-01 7.611904e-01 7.953699e-01 7.963739e-01 8.105475e-01 7.950390e-01 7.977629e-01 7.561098e-01 7.201824e-01 6.712688e-01 5.967881e-01 5.920906e-01 5.926906e-01 5.764390e-01 5.091118e-01 4.536876e-01 4.838287e-01 5.323726e-01 5.847482e-01 6.340142e-01 6.559832e-01 6.517955e-01 6.233574e-01 5.839050e-01 5.414648e-01 5.056102e-01 4.766163e-01 4.572374e-01 4.433118e-01 4.349761e-01 4.288772e-01 4.246630e-01 4.214403e-01 4.184804e-01 4.167976e-01 4.150388e-01 
4.364164e-01 4.361186e-01 4.375263e-01 4.384445e-01 4.406954e-01 4.432299e-01 4.472889e-01 4.542036e-01 4.648053e-01 4.831932e-01 5.091499e-01 5.464591e-01 5.903161e-01 6.358789e-01 6.688234e-01 6.734692e-01 6.379980e-01 5.630745e-01 4.692575e-01 3.916455e-01 3.898782e-01 4.238556e-01 4.191725e-01 4.428403e-01 5.236440e-01 6.299614e-01 7.078297e-01 7.630798e-01 7.777663e-01 7.929451e-01 7.787569e-01 7.584117e-01 7.563210e-01 7.552577e-01 7.842864e-01 7.905787e-01 7.815056e-01 7.658154e-01 6.980517e-01 6.370432e-01 5.273909e-01 4.428348e-01 4.180251e-01 4.246875e-01 3.916582e-01 3.919238e-01 4.677768e-01 5.626061e-01 6.380772e-01 6.744880e-01 6.702230e-01 6.376228e-01 5.918192e-01 5.477757e-01 5.100524e-01 4.838329e-01 4.651801e-01 4.544142e-01 4.473961e-01 4.432628e-01 4.407094e-01 4.384323e-01 4.375219e-01 4.361108e-01 
4.548730e-01 4.542393e-01 4.554331e-01 4.556117e-01 4.575094e-01 4.597268e-01 4.645147e-01 4.733758e-01 4.879085e-01 5.127556e-01 5.469430e-01 5.934567e-01 6.424962e-01 6.836832e-01 6.934075e-01 6.519929e-01 5.522470e-01 4.158927e-01 2.987241e-01 2.904640e-01 3.023039e-01 3.205294e-01 4.657866e-01 6.434174e-01 7.407431e-01 7.687912e-01 7.344225e-01 7.026668e-01 7.017275e-01 7.132936e-01 7.064361e-01 7.049597e-01 7.021349e-01 7.018760e-01 7.110068e-01 7.102144e-01 6.983262e-01 7.157893e-01 7.221874e-01 7.725016e-01 7.514812e-01 6.366049e-01 4.655203e-01 3.237483e-01 3.004741e-01 2.926513e-01 2.973575e-01 4.144255e-01 5.517338e-01 6.523915e-01 6.944567e-01 6.853205e-01 6.440374e-01 5.948673e-01 5.479469e-01 5.134589e-01 4.883409e-01 4.736035e-01 4.646435e-01 4.597575e-01 4.575294e-01 4.555950e-01 4.554302e-01 4.542298e-01 
4.700433e-01 4.691417e-01 4.701851e-01 4.698568e-01 4.717149e-01 4.742368e-01 4.805737e-01 4.926579e-01 5.124917e-01 5.453382e-01 5.882836e-01 6.424364e-01 6.904435e-01 7.128539e-01 6.770510e-01 5.620161e-01 3.818964e-01 2.047406e-01 1.556726e-01 1.854956e-01 3.765445e-01 6.225852e-01 7.389921e-01 6.807322e-01 6.072079e-01 5.670185e-01 5.516549e-01 5.971015e-01 6.629872e-01 7.205038e-01 7.484394e-01 7.664838e-01 7.703423e-01 7.647758e-01 7.510389e-01 7.163772e-01 6.568561e-01 6.152176e-01 5.461396e-01 5.575721e-01 6.199034e-01 6.796823e-01 7.396770e-01 6.221214e-01 3.821687e-01 1.891633e-01 1.501343e-01 2.016319e-01 3.800123e-01 5.616000e-01 6.779589e-01 7.149526e-01 6.926937e-01 6.445669e-01 5.898808e-01 5.464404e-01 5.131894e-01 4.930096e-01 4.807655e-01 4.742677e-01 4.717225e-01 4.698126e-01 4.701628e-01 4.691193e-01 
4.811955e-01 4.799373e-01 4.810684e-01 4.803269e-01 4.827200e-01 4.859999e-01 4.950356e-01 5.113093e-01 5.379560e-01 5.795502e-01 6.306587e-01 6.883798e-01 7.238283e-01 7.070611e-01 5.961582e-01 3.855501e-01 1.401696e-01 5.559041e-02 2.451242e-01 5.088671e-01 6.864672e-01 6.631757e-01 5.338231e-01 4.545433e-01 5.019503e-01 5.800064e-01 6.293791e-01 6.721276e-01 6.985819e-01 7.149713e-01 7.219614e-01 7.275056e-01 7.277654e-01 7.265012e-01 7.221424e-01 7.134091e-01 6.937691e-01 6.859358e-01 6.279642e-01 5.703820e-01 5.105464e-01 4.584387e-01 5.351528e-01 6.579789e-01 6.887549e-01 5.135899e-01 2.441325e-01 5.923161e-02 1.374865e-01 3.837537e-01 5.953996e-01 7.082040e-01 7.256741e-01 6.904827e-01 6.324168e-01 5.808159e-01 5.388449e-01 5.117813e-01 4.953417e-01 4.860919e-01 4.827807e-01 4.803079e-01 4.810655e-01 4.799215e-01 
4.877293e-01 4.862378e-01 4.875987e-01 4.868337e-01 4.902311e-01 4.950618e-01 5.076490e-01 5.292531e-01 5.632931e-01 6.137465e-01 6.698573e-01 7.238031e-01 7.303144e-01 6.489385e-01 4.423473e-01 1.700433e-01 1.641058e-01 3.461677e-01 5.740710e-01 6.827455e-01 5.999501e-01 5.226914e-01 5.484113e-01 6.140394e-01 6.392117e-01 6.341119e-01 6.266072e-01 6.341564e-01 6.508812e-01 6.737492e-01 6.907005e-01 7.045328e-01 7.075269e-01 7.041466e-01 6.905021e-01 6.738080e-01 6.482333e-01 6.405083e-01 6.273527e-01 6.294914e-01 6.453478e-01 6.175074e-01 5.534488e-01 5.222431e-01 5.981880e-01 6.845230e-01 5.757957e-01 3.513399e-01 1.669538e-01 1.700579e-01 4.415540e-01 6.504031e-01 7.328164e-01 7.265950e-01 6.721984e-01 6.153266e-01 5.643710e-01 5.297531e-01 5.079403e-01 4.950871e-01 4.902267e-01 4.867503e-01 4.875509e-01 4.861974e-01 
4.888475e-01 4.870499e-01 4.889769e-01 4.883681e-01 4.935390e-01 5.003038e-01 5.176924e-01 5.448306e-01 5.872033e-01 6.447689e-01 7.021350e-01 7.422249e-01 7.006392e-01 5.370389e-01 2.739523e-01 2.910344e-01 4.335464e-01 5.887870e-01 6.957217e-01 6.620595e-01 6.549019e-01 6.952690e-01 6.997874e-01 6.680585e-01 6.373963e-01 6.253471e-01 6.203557e-01 6.257907e-01 6.300978e-01 6.372467e-01 6.409987e-01 6.458067e-01 6.456912e-01 6.457560e-01 6.406386e-01 6.379602e-01 6.287857e-01 6.293853e-01 6.219010e-01 6.222284e-01 6.410182e-01 6.698953e-01 7.041939e-01 6.978665e-01 6.573407e-01 6.643722e-01 6.950204e-01 5.950766e-01 4.367367e-01 2.939704e-01 2.717293e-01 5.362541e-01 7.021653e-01 7.448478e-01 7.048362e-01 6.467085e-01 5.886959e-01 5.456089e-01 5.182223e-01 5.004771e-01 4.936434e-01 4.883487e-01 4.889684e-01 4.870268e-01 
4.837379e-01 4.818195e-01 4.845772e-01 4.847018e-01 4.923075e-01 5.018934e-01 5.248829e-01 5.582058e-01 6.084108e-01 6.712946e-01 7.224496e-01 7.374982e-01 6.294969e-01 4.007122e-01 3.967453e-01 5.164256e-01 5.816067e-01 7.381224e-01 7.854554e-01 7.973043e-01 7.998526e-01 7.590764e-01 7.172321e-01 6.812378e-01 6.480184e-01 6.189934e-01 5.951395e-01 5.824809e-01 5.765472e-01 5.794702e-01 5.825259e-01 5.880421e-01 5.882045e-01 5.881641e-01 5.823348e-01 5.802276e-01 5.760420e-01 5.842271e-01 5.965697e-01 6.179178e-01 6.505362e-01 6.825346e-01 7.195172e-01 7.604718e-01 8.005657e-01 8.000096e-01 7.839353e-01 7.408848e-01 5.839678e-01 5.161004e-01 3.984035e-01 4.009308e-01 6.312783e-01 7.402085e-01 7.252748e-01 6.730762e-01 6.097568e-01 5.587662e-01 5.252270e-01 5.019006e-01 4.922755e-01 4.845833e-01 4.844991e-01 4.817635e-01 
4.715883e-01 4.695837e-01 4.736059e-01 4.748957e-01 4.858831e-01 4.986681e-01 5.284953e-01 5.670067e-01 6.257089e-01 6.885099e-01 7.298613e-01 7.100815e-01 5.347625e-01 4.656061e-01 6.091519e-01 5.932636e-01 7.533606e-01 9.139759e-01 8.941401e-01 8.697467e-01 8.123622e-01 7.627124e-01 7.103421e-01 6.591043e-01 6.142708e-01 5.816355e-01 5.564057e-01 5.416607e-01 5.302423e-01 5.254722e-01 5.208735e-01 5.207705e-01 5.188970e-01 5.209584e-01 5.207979e-01 5.261995e-01 5.302547e-01 5.427979e-01 5.577561e-01 5.812999e-01 6.163279e-01 6.604164e-01 7.126245e-01 7.650372e-01 8.135660e-01 8.729298e-01 8.955162e-01 9.180733e-01 7.587490e-01 5.955415e-01 6.117657e-01 4.693632e-01 5.373159e-01 7.135692e-01 7.338951e-01 6.910929e-01 6.277387e-01 5.680011e-01 5.291422e-01 4.988793e-01 4.859748e-01 4.748625e-01 4.735707e-01 4.695505e-01 
4.515205e-01 4.497066e-01 4.554630e-01 4.588258e-01 4.741557e-01 4.912357e-01 5.287747e-01 5.727215e-01 6.396551e-01 7.006684e-01 7.283626e-01 6.829213e-01 5.048482e-01 7.129198e-01 6.572235e-01 7.022541e-01 9.833367e-01 9.753875e-01 9.106382e-01 8.533449e-01 7.891404e-01 7.271777e-01 6.704417e-01 6.221552e-01 5.802996e-01 5.453166e-01 5.151727e-01 4.926448e-01 4.745654e-01 4.641711e-01 4.560294e-01 4.538439e-01 4.513955e-01 4.540220e-01 4.560407e-01 4.647177e-01 4.747641e-01 4.933255e-01 5.162579e-01 5.454613e-01 5.818115e-01 6.231254e-01 6.719388e-01 7.286230e-01 7.901192e-01 8.550036e-01 9.111810e-01 9.771309e-01 9.855660e-01 7.033576e-01 6.575668e-01 7.136041e-01 5.060916e-01 6.841595e-01 7.313832e-01 7.021154e-01 6.408910e-01 5.731890e-01 5.290230e-01 4.912196e-01 4.740615e-01 4.586926e-01 4.553518e-01 4.496439e-01 
4.229633e-01 4.216430e-01 4.297239e-01 4.362811e-01 4.570298e-01 4.794825e-01 5.255585e-01 5.738288e-01 6.507987e-01 7.007826e-01 7.349370e-01 6.301919e-01 6.918833e-01 7.909720e-01 6.432736e-01 9.188803e-01 1.045174e+00 9.350787e-01 8.712085e-01 7.990045e-01 7.322647e-01 6.746302e-01 6.220068e-01 5.759073e-01 5.346105e-01 4.997088e-01 4.687648e-01 4.439614e-01 4.220167e-01 4.064049e-01 3.931795e-01 3.871160e-01 3.833188e-01 3.872805e-01 3.932650e-01 4.068646e-01 4.223681e-01 4.445174e-01 4.697754e-01 5.001221e-01 5.360595e-01 5.770761e-01 6.237294e-01 6.765776e-01 7.340627e-01 8.017101e-01 8.738444e-01 9.392856e-01 1.050688e+00 9.298506e-01 6.485188e-01 7.870904e-01 6.968287e-01 6.366702e-01 7.406976e-01 7.032932e-01 6.524189e-01 5.745527e-01 5.258525e-01 4.795545e-01 4.569432e-01 4.361855e-01 4.296162e-01 4.215912e-01 
3.853215e-01 3.849600e-01 3.961631e-01 4.074838e-01 4.348193e-01 4.642675e-01 5.191626e-01 5.722211e-01 6.601021e-01 6.980117e-01 7.574303e-01 6.228773e-01 8.728765e-01 7.393597e-01 7.305997e-01 1.090826e+00 9.629933e-01 8.890063e-01 7.943401e-01 7.336642e-01 6.679273e-01 6.171839e-01 5.691278e-01 5.282112e-01 4.904396e-01 4.560440e-01 4.238480e-01 3.951372e-01 3.689529e-01 3.484583e-01 3.314892e-01 3.226363e-01 3.180629e-01 3.227585e-01 3.315913e-01 3.487707e-01 3.692874e-01 3.955057e-01 4.246290e-01 4.564467e-01 4.915342e-01 5.291097e-01 5.704763e-01 6.186772e-01 6.696334e-01 7.360224e-01 7.972301e-01 8.937243e-01 9.690545e-01 1.102630e+00 7.409619e-01 7.375519e-01 8.790684e-01 6.326439e-01 7.591728e-01 6.990039e-01 6.603250e-01 5.725812e-01 5.190902e-01 4.642565e-01 4.346189e-01 4.073611e-01 3.960165e-01 3.849001e-01 
3.387141e-01 3.400647e-01 3.554169e-01 3.738756e-01 4.087300e-01 4.481661e-01 5.098601e-01 5.736047e-01 6.631026e-01 7.156837e-01 7.668023e-01 7.468979e-01 8.962492e-01 7.307432e-01 8.782547e-01 1.063751e+00 8.563571e-01 8.073991e-01 7.116167e-01 6.591713e-01 6.008393e-01 5.571969e-01 5.158633e-01 4.789133e-01 4.441810e-01 4.107499e-01 3.787197e-01 3.482996e-01 3.195140e-01 2.950085e-01 2.741712e-01 2.620418e-01 2.564027e-01 2.621455e-01 2.743072e-01 2.952585e-01 3.198599e-01 3.485917e-01 3.793696e-01 4.111065e-01 4.450568e-01 4.796085e-01 5.169142e-01 5.582252e-01 6.020475e-01 6.603228e-01 7.132652e-01 8.083253e-01 8.588563e-01 1.064048e+00 8.878582e-01 7.298849e-01 8.840814e-01 7.429214e-01 7.601601e-01 7.136812e-01 6.611759e-01 5.731068e-01 5.091015e-01 4.478488e-01 4.082840e-01 3.736414e-01 3.551869e-01 3.399762e-01 
2.832573e-01 2.872429e-01 3.083155e-01 3.365581e-01 3.799157e-01 4.313968e-01 4.978783e-01 5.756579e-01 6.600375e-01 7.449307e-01 7.707902e-01 8.765636e-01 8.479205e-01 7.648155e-01 9.696816e-01 9.322774e-01 7.798088e-01 7.148613e-01 6.374403e-01 5.872394e-01 5.400399e-01 5.011508e-01 4.667437e-01 4.333455e-01 4.023811e-01 3.698722e-01 3.382220e-01 3.057045e-01 2.743155e-01 2.455750e-01 2.208686e-01 2.051913e-01 1.984664e-01 2.052706e-01 2.210174e-01 2.457474e-01 2.746218e-01 3.058890e-01 3.386971e-01 3.700901e-01 4.029506e-01 4.337164e-01 4.673605e-01 5.016247e-01 5.406666e-01 5.875148e-01 6.380575e-01 7.140362e-01 7.804366e-01 9.291363e-01 9.774062e-01 7.712913e-01 8.451785e-01 8.739268e-01 7.680403e-01 7.455515e-01 6.597568e-01 5.759911e-01 4.975746e-01 4.313001e-01 3.795940e-01 3.363843e-01 3.081140e-01 2.871655e-01 
2.201488e-01 2.283611e-01 2.578214e-01 2.989710e-01 3.521759e-01 4.164306e-01 4.880443e-01 5.786591e-01 6.633788e-01 7.735705e-01 8.057095e-01 9.371379e-01 8.448735e-01 8.435540e-01 9.798005e-01 8.087677e-01 7.149986e-01 6.298714e-01 5.743548e-01 5.231540e-01 4.873336e-01 4.512715e-01 4.234722e-01 3.924649e-01 3.648706e-01 3.332173e-01 3.023969e-01 2.686179e-01 2.353360e-01 2.026355e-01 1.735310e-01 1.532218e-01 1.447971e-01 1.532951e-01 1.737016e-01 2.027643e-01 2.355970e-01 2.686985e-01 3.026755e-01 3.332059e-01 3.650312e-01 3.923244e-01 4.233397e-01 4.507954e-01 4.866589e-01 5.218973e-01 5.728167e-01 6.271457e-01 7.123828e-01 8.044569e-01 9.786613e-01 8.476793e-01 8.486859e-01 9.389287e-01 8.059515e-01 7.741950e-01 6.630437e-01 5.784102e-01 4.873926e-01 4.159106e-01 3.515889e-01 2.985460e-01 2.574639e-01 2.281893e-01 
1.505094e-01 1.658135e-01 2.081126e-01 2.646391e-01 3.283168e-01 4.034460e-01 4.808358e-01 5.788152e-01 6.712752e-01 7.888383e-01 8.540928e-01 9.330621e-01 8.393475e-01 8.865492e-01 8.999299e-01 7.077932e-01 6.509524e-01 5.607727e-01 5.229535e-01 4.724502e-01 4.461720e-01 4.123236e-01 3.900008e-01 3.609027e-01 3.363186e-01 3.053227e-01 2.752642e-01 2.401233e-01 2.049238e-01 1.678461e-01 1.332284e-01 1.059015e-01 9.430369e-02 1.059930e-01 1.334632e-01 1.679780e-01 2.052015e-01 2.401818e-01 2.754714e-01 3.052264e-01 3.362851e-01 3.605243e-01 3.894909e-01 4.114107e-01 4.448831e-01 4.706778e-01 5.206562e-01 5.582033e-01 6.482278e-01 7.065836e-01 8.988955e-01 8.868167e-01 8.367770e-01 9.302894e-01 8.544726e-01 7.883570e-01 6.710639e-01 5.781602e-01 4.802577e-01 4.027852e-01 3.277711e-01 2.641485e-01 2.077442e-01 1.655924e-01 
7.646071e-02 1.070941e-01 1.682389e-01 2.398104e-01 3.121575e-01 3.945666e-01 4.768388e-01 5.776457e-01 6.796272e-01 7.945929e-01 8.910838e-01 9.056097e-01 8.298251e-01 9.009790e-01 8.215349e-01 6.556931e-01 6.074396e-01 5.197290e-01 4.907154e-01 4.409149e-01 4.202209e-01 3.874379e-01 3.684836e-01 3.403459e-01 3.176162e-01 2.869792e-01 2.574472e-01 2.214548e-01 1.848935e-01 1.442364e-01 1.038398e-01 6.604449e-02 4.653149e-02 6.615669e-02 1.040970e-01 1.443286e-01 1.851059e-01 2.214080e-01 2.574742e-01 2.866521e-01 3.172159e-01 3.394987e-01 3.672903e-01 3.856927e-01 4.177680e-01 4.378946e-01 4.866589e-01 5.157108e-01 6.023892e-01 6.533304e-01 8.182755e-01 9.038198e-01 8.318498e-01 9.044758e-01 8.932119e-01 7.941952e-01 6.798603e-01 5.767952e-01 4.763025e-01 3.936965e-01 3.115109e-01 2.390969e-01 1.676877e-01 1.066337e-01 
2.547559e-04 7.676154e-02 1.520231e-01 2.306640e-01 3.066618e-01 3.917573e-01 4.763325e-01 5.780429e-01 6.850822e-01 7.987678e-01 9.098169e-01 9.008577e-01 8.399310e-01 9.156568e-01 7.919284e-01 6.408568e-01 5.910941e-01 5.053993e-01 4.788405e-01 4.297094e-01 4.110030e-01 3.788189e-01 3.611466e-01 3.334787e-01 3.115043e-01 2.810232e-01 2.517010e-01 2.153115e-01 1.781545e-01 1.358720e-01 9.247898e-02 4.643375e-02 1.775215e-04 4.662871e-02 9.282063e-02 1.360155e-01 1.784338e-01 2.153275e-01 2.517982e-01 2.807757e-01 3.111830e-01 3.327220e-01 3.600355e-01 3.771668e-01 4.086010e-01 4.267571e-01 4.746648e-01 5.012662e-01 5.852010e-01 6.374075e-01 7.853761e-01 9.181750e-01 8.443489e-01 8.997782e-01 9.111587e-01 7.975372e-01 6.848387e-01 5.767714e-01 4.756299e-01 3.907436e-01 3.059922e-01 2.299147e-01 1.514655e-01 7.615889e-02 
7.646071e-02 1.070941e-01 1.682389e-01 2.398104e-01 3.121575e-01 3.945666e-01 4.768388e-01 5.776457e-01 6.796272e-01 7.945929e-01 8.910838e-01 9.056097e-01 8.298251e-01 9.009790e-01 8.215349e-01 6.556931e-01 6.074396e-01 5.197290e-01 4.907154e-01 4.409149e-01 4.202209e-01 3.874379e-01 3.684836e-01 3.403459e-01 3.176162e-01 2.869792e-01 2.574472e-01 2.214548e-01 1.848935e-01 1.442364e-01 1.038398e-01 6.604449e-02 4.653149e-02 6.615669e-02 1.040970e-01 1.443286e-01 1.851059e-01 2.214080e-01 2.574742e-01 2.866521e-01 3.172159e-01 3.394987e-01 3.672903e-01 3.856927e-01 4.177680e-01 4.378946e-01 4.866589e-01 5.157108e-01 6.023892e-01 6.533304e-01 8.182755e-01 9.038198e-01 8.318498e-01 9.044758e-01 8.932119e-01 7.941952e-01 6.798603e-01 5.767952e-01 4.763025e-01 3.936965e-01 3.115109e-01 2.390969e-01 1.676877e-01 1.066337e-01 
1.505094e-01 1.658135e-01 2.081126e-01 2.646391e-01 3.283168e-01 4.034460e-01 4.808358e-01 5.788152e-01 6.712752e-01 7.888383e-01 8.540928e-01 9.330621e-01 8.393475e-01 8.865492e-01 8.999299e-01 7.077932e-01 6.509524e-01 5.607727e-01 5.229535e-01 4.724502e-01 4.461720e-01 4.123236e-01 3.900008e-01 3.609027e-01 3.363186e-01 3.053227e-01 2.752642e-01 2.401233e-01 2.049238e-01 1.678461e-01 1.332284e-01 1.059015e-01 9.430369e-02 1.059930e-01 1.334632e-01 1.679780e-01 2.052015e-01 2.401818e-01 2.754714e-01 3.052264e-01 3.362851e-01 3.605243e-01 3.894909e-01 4.114107e-01 4.448831e-01 4.706778e-01 5.206562e-01 5.582033e-01 6.482278e-01 7.065836e-01 8.988955e-01 8.868167e-01 8.367770e-01 9.302894e-01 8.544726e-01 7.883570e-01 6.710639e-01 5.781602e-01 4.802577e-01 4.027852e-01 3.277711e-01 2.641485e-01 2.077442e-01 1.655924e-01 