# vtk DataFile Version 2.0
Comment goes here
ASCII

DATASET STRUCTURED_POINTS
FIELD FieldData 1
TIME 1 1 double
0.50000000
DIMENSIONS    64   64   1

ORIGIN    0.000   0.000   0.000
SPACING   0.015625 0.015625   1.000

POINT_DATA   4096
SCALARS uMag double
LOOKUP_TABLE default

5.401902e-04 1.561534e-02 3.176534e-02 4.804860e-02 6.439220e-02 8.091268e-02 9.752970e-02 1.142893e-01 1.311287e-01 1.479658e-01 1.647898e-01 1.813319e-01 1.976717e-01 2.133067e-01 2.284413e-01 2.423172e-01 2.552815e-01 2.663320e-01 2.759369e-01 2.828979e-01 2.877191e-01 2.890885e-01 2.873980e-01 2.813503e-01 2.710914e-01 2.555484e-01 2.346612e-01 2.079115e-01 1.753544e-01 1.374132e-01 9.469401e-02 4.871409e-02 7.290945e-04 4.707665e-02 9.328943e-02 1.359182e-01 1.740948e-01 2.066623e-01 2.336010e-01 2.545940e-01 2.702570e-01 2.807033e-01 2.868082e-01 2.887396e-01 2.873883e-01 2.828244e-01 2.758682e-01 2.665030e-01 2.554624e-01 2.426988e-01 2.288465e-01 2.138647e-01 1.982685e-01 1.820341e-01 1.655432e-01 1.487828e-01 1.320050e-01 1.151946e-01 9.849772e-02 8.188231e-02 6.542344e-02 4.906013e-02 3.283356e-02 1.664754e-02 
1.614362e-02 2.241312e-02 3.560819e-02 5.070548e-02 6.645148e-02 8.264257e-02 9.906958e-02 1.157406e-01 1.325514e-01 1.494215e-01 1.663153e-01 1.829709e-01 1.994499e-01 2.152532e-01 2.305721e-01 2.446472e-01 2.578141e-01 2.690705e-01 2.788692e-01 2.860209e-01 2.910060e-01 2.925358e-01 2.909762e-01 2.850681e-01 2.749487e-01 2.596078e-01 2.390254e-01 2.128159e-01 1.812036e-01 1.450050e-01 1.057405e-01 6.817469e-02 4.790184e-02 6.693285e-02 1.043931e-01 1.434809e-01 1.798827e-01 2.114870e-01 2.378790e-01 2.585642e-01 2.740224e-01 2.843330e-01 2.902973e-01 2.921046e-01 2.905958e-01 2.858763e-01 2.787382e-01 2.691894e-01 2.579579e-01 2.450039e-01 2.309720e-01 2.158199e-01 2.000769e-01 1.837175e-01 1.671338e-01 1.503165e-01 1.335230e-01 1.167506e-01 1.001532e-01 8.373021e-02 6.759841e-02 5.181346e-02 3.670982e-02 2.325974e-02 
3.228501e-02 3.589539e-02 4.541559e-02 5.813086e-02 7.241660e-02 8.769204e-02 1.035307e-01 1.198532e-01 1.364641e-01 1.532796e-01 1.701974e-01 1.869759e-01 2.036141e-01 2.196321e-01 2.351670e-01 2.494617e-01 2.628229e-01 2.742197e-01 2.841231e-01 2.912799e-01 2.962528e-01 2.976779e-01 2.960671e-01 2.901439e-01 2.802378e-01 2.654721e-01 2.460595e-01 2.219670e-01 1.937793e-01 1.630795e-01 1.323930e-01 1.075398e-01 9.704966e-02 1.068054e-01 1.314331e-01 1.618193e-01 1.926792e-01 2.207983e-01 2.450689e-01 2.645553e-01 2.794303e-01 2.895204e-01 2.954827e-01 2.973453e-01 2.959192e-01 2.912150e-01 2.840497e-01 2.743909e-01 2.629982e-01 2.498348e-01 2.355637e-01 2.201730e-01 2.041966e-01 1.876519e-01 1.709273e-01 1.540589e-01 1.373022e-01 1.207033e-01 1.044346e-01 8.857103e-02 7.332342e-02 5.895280e-02 4.615801e-02 3.634661e-02 
4.837995e-02 5.086974e-02 5.807462e-02 6.864835e-02 8.134113e-02 9.553594e-02 1.106681e-01 1.266161e-01 1.430678e-01 1.599594e-01 1.770867e-01 1.942445e-01 2.113392e-01 2.279151e-01 2.440346e-01 2.589382e-01 2.728877e-01 2.848232e-01 2.952077e-01 3.027469e-01 3.080338e-01 3.096853e-01 3.082886e-01 3.026281e-01 2.931733e-01 2.792733e-01 2.613779e-01 2.399391e-01 2.159007e-01 1.913967e-01 1.688458e-01 1.525274e-01 1.462136e-01 1.519765e-01 1.680781e-01 1.902443e-01 2.148679e-01 2.387611e-01 2.603651e-01 2.783015e-01 2.922978e-01 3.019379e-01 3.076170e-01 3.092832e-01 3.076136e-01 3.026147e-01 2.950636e-01 2.849391e-01 2.730201e-01 2.592797e-01 2.444235e-01 2.284563e-01 2.119501e-01 1.949538e-01 1.778756e-01 1.607986e-01 1.439834e-01 1.275377e-01 1.116465e-01 9.647065e-02 8.228090e-02 6.946052e-02 5.875344e-02 5.124281e-02 
6.451381e-02 6.647303e-02 7.231733e-02 8.132518e-02 9.265901e-02 1.058313e-01 1.202607e-01 1.358342e-01 1.521399e-01 1.691522e-01 1.865401e-01 2.041582e-01 2.217709e-01 2.389788e-01 2.557119e-01 2.712356e-01 2.857287e-01 2.980932e-01 3.088059e-01 3.164504e-01 3.217712e-01 3.232215e-01 3.216899e-01 3.159220e-01 3.068003e-01 2.939845e-01 2.783484e-01 2.608985e-01 2.426643e-01 2.258202e-01 2.116226e-01 2.023450e-01 1.989127e-01 2.019657e-01 2.111395e-01 2.249381e-01 2.419311e-01 2.599374e-01 2.775598e-01 2.931783e-01 3.060741e-01 3.153731e-01 3.211208e-01 3.229440e-01 3.214307e-01 3.164158e-01 3.087219e-01 2.982664e-01 2.858910e-01 2.715838e-01 2.560872e-01 2.394707e-01 2.223159e-01 2.047618e-01 1.872083e-01 1.698328e-01 1.528823e-01 1.365500e-01 1.210188e-01 1.065213e-01 9.334307e-02 8.187973e-02 7.276555e-02 6.670257e-02 
8.053785e-02 8.215635e-02 8.714530e-02 9.508564e-02 1.054227e-01 1.178350e-01 1.317668e-01 1.471727e-01 1.635459e-01 1.809317e-01 1.988541e-01 2.172423e-01 2.357033e-01 2.538917e-01 2.716064e-01 2.881245e-01 3.035549e-01 3.167563e-01 3.282120e-01 3.364199e-01 3.422082e-01 3.439620e-01 3.427347e-01 3.373325e-01 3.288714e-01 3.172945e-01 3.036978e-01 2.896407e-01 2.761503e-01 2.653152e-01 2.572178e-01 2.526592e-01 2.510521e-01 2.523546e-01 2.568828e-01 2.645476e-01 2.755581e-01 2.887224e-01 3.029470e-01 3.164642e-01 3.281016e-01 3.367438e-01 3.420787e-01 3.436324e-01 3.417712e-01 3.363200e-01 3.280472e-01 3.168668e-01 3.036705e-01 2.884350e-01 2.719800e-01 2.543858e-01 2.362917e-01 2.178888e-01 1.995996e-01 1.816838e-01 1.643803e-01 1.479678e-01 1.326067e-01 1.185864e-01 1.061526e-01 9.566188e-02 8.759623e-02 8.238199e-02 
9.658425e-02 9.803950e-02 1.025697e-01 1.098788e-01 1.196237e-01 1.315999e-01 1.453126e-01 1.607872e-01 1.774425e-01 1.954057e-01 2.140351e-01 2.333680e-01 2.527932e-01 2.720888e-01 2.908337e-01 3.084081e-01 3.247628e-01 3.387627e-01 3.508749e-01 3.594152e-01 3.654345e-01 3.669641e-01 3.655778e-01 3.598790e-01 3.516883e-01 3.414240e-01 3.306930e-01 3.215590e-01 3.143861e-01 3.106789e-01 3.089177e-01 3.088148e-01 3.088318e-01 3.086115e-01 3.088222e-01 3.101628e-01 3.141678e-01 3.209202e-01 3.302528e-01 3.407993e-01 3.511010e-01 3.594703e-01 3.650310e-01 3.668062e-01 3.650919e-01 3.594502e-01 3.507899e-01 3.389453e-01 3.249173e-01 3.087150e-01 2.911834e-01 2.725026e-01 2.532871e-01 2.338660e-01 2.146214e-01 1.959556e-01 1.780674e-01 1.613456e-01 1.459146e-01 1.321070e-01 1.201232e-01 1.102508e-01 1.028641e-01 9.817977e-02 
1.124450e-01 1.137787e-01 1.180451e-01 1.250130e-01 1.344802e-01 1.463425e-01 1.601435e-01 1.760011e-01 1.932450e-01 2.121061e-01 2.317627e-01 2.523703e-01 2.731081e-01 2.938678e-01 3.140619e-01 3.331375e-01 3.509703e-01 3.663917e-01 3.798896e-01 3.896372e-01 3.967998e-01 3.992658e-01 3.988350e-01 3.941459e-01 3.872345e-01 3.785697e-01 3.695810e-01 3.629721e-01 3.590435e-01 3.593937e-01 3.615482e-01 3.643543e-01 3.655255e-01 3.642249e-01 3.616436e-01 3.590478e-01 3.590846e-01 3.624463e-01 3.692351e-01 3.779307e-01 3.866264e-01 3.937400e-01 3.982022e-01 3.990921e-01 3.963532e-01 3.896104e-01 3.797167e-01 3.664973e-01 3.510791e-01 3.333987e-01 3.144262e-01 2.942956e-01 2.736780e-01 2.529418e-01 2.324684e-01 2.127676e-01 1.940040e-01 1.766787e-01 1.608647e-01 1.469477e-01 1.350617e-01 1.254441e-01 1.183772e-01 1.139373e-01 
1.282329e-01 1.295513e-01 1.338162e-01 1.407708e-01 1.503561e-01 1.624891e-01 1.767746e-01 1.933754e-01 2.115487e-01 2.316175e-01 2.525614e-01 2.747066e-01 2.969521e-01 3.194520e-01 3.413121e-01 3.622787e-01 3.819422e-01 3.992956e-01 4.146664e-01 4.259889e-01 4.346455e-01 4.377361e-01 4.379087e-01 4.329734e-01 4.261227e-01 4.186283e-01 4.125858e-01 4.110734e-01 4.126477e-01 4.182491e-01 4.240890e-01 4.290872e-01 4.310059e-01 4.290340e-01 4.244443e-01 4.181928e-01 4.132342e-01 4.109428e-01 4.126506e-01 4.181801e-01 4.256907e-01 4.327747e-01 4.373629e-01 4.378197e-01 4.343325e-01 4.261732e-01 4.146352e-01 3.995102e-01 3.821252e-01 3.625268e-01 3.416424e-01 3.197543e-01 2.973834e-01 2.750697e-01 2.530532e-01 2.320240e-01 2.120552e-01 1.937868e-01 1.772420e-01 1.628527e-01 1.507236e-01 1.410262e-01 1.340217e-01 1.296442e-01 
1.437132e-01 1.450249e-01 1.493885e-01 1.565179e-01 1.664550e-01 1.791365e-01 1.941881e-01 2.118339e-01 2.312246e-01 2.528034e-01 2.753424e-01 2.993649e-01 3.235492e-01 3.482970e-01 3.725671e-01 3.962852e-01 4.189781e-01 4.395812e-01 4.583927e-01 4.730325e-01 4.849019e-01 4.908235e-01 4.936600e-01 4.914681e-01 4.875912e-01 4.822187e-01 4.759602e-01 4.733327e-01 4.741200e-01 4.804543e-01 4.879247e-01 4.945822e-01 4.973824e-01 4.946326e-01 4.885869e-01 4.807469e-01 4.752366e-01 4.734141e-01 4.760434e-01 4.815858e-01 4.870994e-01 4.913356e-01 4.930146e-01 4.909624e-01 4.844827e-01 4.731547e-01 4.582805e-01 4.396946e-01 4.191311e-01 3.964814e-01 3.729454e-01 3.486400e-01 3.241086e-01 2.998543e-01 2.760151e-01 2.533833e-01 2.319230e-01 2.124202e-01 1.948208e-01 1.796409e-01 1.669378e-01 1.568611e-01 1.496514e-01 1.451470e-01 
1.588858e-01 1.602750e-01 1.649723e-01 1.725652e-01 1.832475e-01 1.968694e-01 2.131286e-01 2.322185e-01 2.532310e-01 2.766905e-01 3.011864e-01 3.275201e-01 3.541002e-01 3.818475e-01 4.093395e-01 4.371508e-01 4.642095e-01 4.899172e-01 5.138501e-01 5.334082e-01 5.498662e-01 5.584172e-01 5.634806e-01 5.601637e-01 5.539599e-01 5.476145e-01 5.437120e-01 5.468861e-01 5.524220e-01 5.615686e-01 5.689969e-01 5.745975e-01 5.768909e-01 5.746501e-01 5.699189e-01 5.622597e-01 5.544881e-01 5.475467e-01 5.441279e-01 5.467972e-01 5.534296e-01 5.601969e-01 5.627860e-01 5.589741e-01 5.496704e-01 5.338762e-01 5.140333e-01 4.902168e-01 4.645287e-01 4.373345e-01 4.096761e-01 3.819986e-01 3.544453e-01 3.277088e-01 3.015554e-01 2.769385e-01 2.536121e-01 2.324982e-01 2.134816e-01 1.971279e-01 1.835216e-01 1.727477e-01 1.651226e-01 1.603410e-01 
1.735270e-01 1.749924e-01 1.800805e-01 1.882676e-01 1.998536e-01 2.146187e-01 2.322774e-01 2.530347e-01 2.758766e-01 3.014935e-01 3.282974e-01 3.574689e-01 3.872738e-01 4.191276e-01 4.515225e-01 4.852787e-01 5.191682e-01 5.521870e-01 5.835839e-01 6.098301e-01 6.317879e-01 6.441214e-01 6.513177e-01 6.513134e-01 6.510322e-01 6.478689e-01 6.383833e-01 6.321586e-01 6.311190e-01 6.393604e-01 6.496356e-01 6.589238e-01 6.632920e-01 6.590690e-01 6.510115e-01 6.408832e-01 6.343454e-01 6.329550e-01 6.379060e-01 6.458947e-01 6.502959e-01 6.516684e-01 6.504975e-01 6.448544e-01 6.314696e-01 6.101596e-01 5.837027e-01 5.523285e-01 5.195033e-01 4.854280e-01 4.519831e-01 4.193922e-01 3.878365e-01 3.578743e-01 3.289290e-01 3.019949e-01 2.765114e-01 2.535467e-01 2.328347e-01 2.150524e-01 2.002638e-01 1.885549e-01 1.802970e-01 1.750926e-01 
1.874014e-01 1.890106e-01 1.947159e-01 2.037538e-01 2.166303e-01 2.329046e-01 2.524239e-01 2.752554e-01 3.004273e-01 3.287094e-01 3.584945e-01 3.914136e-01 4.256169e-01 4.633417e-01 5.025407e-01 5.449759e-01 5.878921e-01 6.310751e-01 6.712785e-01 7.053126e-01 7.324815e-01 7.453760e-01 7.529005e-01 7.423922e-01 7.252810e-01 7.115909e-01 7.073542e-01 7.180408e-01 7.290102e-01 7.417277e-01 7.492598e-01 7.534151e-01 7.554835e-01 7.532673e-01 7.506169e-01 7.437929e-01 7.338063e-01 7.190636e-01 7.060135e-01 7.080118e-01 7.241396e-01 7.430490e-01 7.516892e-01 7.468899e-01 7.325819e-01 7.061005e-01 6.719672e-01 6.314979e-01 5.885565e-01 5.451298e-01 5.029472e-01 4.633238e-01 4.258388e-01 3.913818e-01 3.586804e-01 3.287683e-01 3.006501e-01 2.754065e-01 2.526655e-01 2.330854e-01 2.168341e-01 2.038940e-01 1.948312e-01 1.890627e-01 
2.003495e-01 2.020971e-01 2.084443e-01 2.184128e-01 2.326578e-01 2.505578e-01 2.720243e-01 2.970949e-01 3.247786e-01 3.561474e-01 3.895579e-01 4.273551e-01 4.676452e-01 5.134012e-01 5.622862e-01 6.158309e-01 6.704660e-01 7.239943e-01 7.721227e-01 8.088374e-01 8.324592e-01 8.338383e-01 8.209431e-01 8.012467e-01 7.972130e-01 7.947045e-01 7.754976e-01 7.637744e-01 7.700581e-01 7.963055e-01 8.242614e-01 8.453982e-01 8.549959e-01 8.449492e-01 8.258214e-01 8.002086e-01 7.765295e-01 7.626299e-01 7.695898e-01 7.883680e-01 7.977631e-01 8.040846e-01 8.196500e-01 8.354684e-01 8.321969e-01 8.089330e-01 7.726044e-01 7.240319e-01 6.711628e-01 6.160191e-01 5.629720e-01 5.136894e-01 4.682618e-01 4.277135e-01 3.901269e-01 3.565629e-01 3.253099e-01 2.975212e-01 2.724831e-01 2.509228e-01 2.329930e-01 2.186546e-01 2.086197e-01 2.021812e-01 
2.117676e-01 2.136982e-01 2.208931e-01 2.319995e-01 2.479804e-01 2.678329e-01 2.917644e-01 3.195544e-01 3.505439e-01 3.858903e-01 4.243335e-01 4.687544e-01 5.173671e-01 5.737775e-01 6.344214e-01 7.009938e-01 7.658644e-01 8.271293e-01 8.733036e-01 9.013926e-01 9.027143e-01 8.751004e-01 8.466872e-01 7.801551e-01 7.032265e-01 6.816649e-01 7.344045e-01 8.113598e-01 8.571728e-01 8.786476e-01 8.860543e-01 8.848720e-01 8.833955e-01 8.833984e-01 8.858098e-01 8.802618e-01 8.620189e-01 8.071368e-01 7.282026e-01 6.788023e-01 7.077339e-01 7.836222e-01 8.434178e-01 8.777620e-01 9.029758e-01 9.013157e-01 8.744643e-01 8.273178e-01 7.669554e-01 7.011428e-01 6.349398e-01 5.736339e-01 5.174264e-01 4.684904e-01 4.242623e-01 3.857326e-01 3.505551e-01 3.195703e-01 2.918804e-01 2.679524e-01 2.481244e-01 2.321188e-01 2.209859e-01 2.137458e-01 
2.216563e-01 2.237642e-01 2.318097e-01 2.440887e-01 2.618210e-01 2.836911e-01 3.101354e-01 3.408855e-01 3.755077e-01 4.156809e-01 4.602781e-01 5.132281e-01 5.722904e-01 6.414943e-01 7.153378e-01 7.930306e-01 8.635180e-01 9.179518e-01 9.432871e-01 9.293585e-01 8.725827e-01 7.595673e-01 6.186388e-01 5.772199e-01 6.601586e-01 7.459619e-01 7.665527e-01 8.046309e-01 8.436659e-01 8.490436e-01 8.693945e-01 8.838745e-01 8.801673e-01 8.827158e-01 8.683572e-01 8.446053e-01 8.431447e-01 8.047615e-01 7.622765e-01 7.461210e-01 6.758682e-01 5.792582e-01 6.135506e-01 7.590233e-01 8.708392e-01 9.262622e-01 9.432092e-01 9.169674e-01 8.642731e-01 7.932933e-01 7.163610e-01 6.420598e-01 5.730811e-01 5.136716e-01 4.607757e-01 4.160064e-01 3.758594e-01 3.411778e-01 3.104287e-01 2.839529e-01 2.620476e-01 2.442723e-01 2.319336e-01 2.238298e-01 
2.289381e-01 2.312373e-01 2.402937e-01 2.538892e-01 2.737155e-01 2.979150e-01 3.275429e-01 3.619430e-01 4.015543e-01 4.480115e-01 5.011117e-01 5.647414e-01 6.365445e-01 7.190342e-01 8.032628e-01 8.841621e-01 9.411641e-01 9.618690e-01 9.179445e-01 8.088732e-01 6.036432e-01 4.437263e-01 5.161561e-01 6.028435e-01 6.543639e-01 7.202641e-01 7.530192e-01 8.242700e-01 8.752840e-01 8.710371e-01 8.814861e-01 8.917842e-01 8.851397e-01 8.908549e-01 8.814517e-01 8.677714e-01 8.706240e-01 8.254674e-01 7.564933e-01 7.153253e-01 6.631918e-01 6.000328e-01 5.164081e-01 4.444372e-01 6.031351e-01 8.027446e-01 9.176523e-01 9.603791e-01 9.417235e-01 8.839702e-01 8.035436e-01 7.187628e-01 6.363558e-01 5.643050e-01 5.007555e-01 4.476694e-01 4.013324e-01 3.618385e-01 3.275269e-01 2.979899e-01 2.738082e-01 2.540048e-01 2.403738e-01 2.312878e-01 
2.339520e-01 2.364425e-01 2.465195e-01 2.614458e-01 2.833849e-01 3.100085e-01 3.429645e-01 3.814839e-01 4.266463e-01 4.806514e-01 5.432362e-01 6.190869e-01 7.031088e-01 7.964837e-01 8.826098e-01 9.489951e-01 9.643511e-01 8.996705e-01 7.287903e-01 4.449037e-01 2.838074e-01 4.333962e-01 5.349613e-01 6.384572e-01 7.639254e-01 9.088789e-01 9.946966e-01 1.021329e+00 9.710978e-01 8.905183e-01 8.200180e-01 7.721255e-01 7.497261e-01 7.707850e-01 8.206655e-01 8.906045e-01 9.673987e-01 1.007497e+00 9.926718e-01 9.047910e-01 7.694775e-01 6.386217e-01 5.344605e-01 4.436251e-01 2.829628e-01 4.358367e-01 7.251540e-01 8.960792e-01 9.633243e-01 9.489658e-01 8.837067e-01 7.975684e-01 7.041882e-01 6.197923e-01 5.436637e-01 4.808760e-01 4.267163e-01 3.815580e-01 3.429933e-01 3.101017e-01 2.834491e-01 2.615419e-01 2.465733e-01 2.364827e-01 
2.351126e-01 2.377750e-01 2.489478e-01 2.652764e-01 2.896159e-01 3.189742e-01 3.561028e-01 3.996451e-01 4.522472e-01 5.154231e-01 5.900702e-01 6.785766e-01 7.741851e-01 8.704897e-01 9.436440e-01 9.667135e-01 8.941854e-01 6.915087e-01 3.398141e-01 1.605146e-01 4.199415e-01 5.581089e-01 7.779456e-01 1.005604e+00 1.126612e+00 1.139078e+00 1.040474e+00 9.148805e-01 8.008639e-01 7.208955e-01 6.718510e-01 6.489777e-01 6.389155e-01 6.489292e-01 6.738580e-01 7.228721e-01 8.022412e-01 9.023780e-01 1.029539e+00 1.133565e+00 1.126340e+00 1.003244e+00 7.746305e-01 5.636061e-01 4.162706e-01 1.681858e-01 3.339709e-01 6.876099e-01 8.912725e-01 9.646673e-01 9.421925e-01 8.695282e-01 7.734385e-01 6.780253e-01 5.895134e-01 5.150490e-01 4.518888e-01 3.995089e-01 3.560056e-01 3.190481e-01 2.896860e-01 2.654123e-01 2.490308e-01 2.378368e-01 
2.333744e-01 2.362182e-01 2.485416e-01 2.662906e-01 2.931307e-01 3.253945e-01 3.670290e-01 4.162256e-01 4.768356e-01 5.501496e-01 6.360534e-01 7.360256e-01 8.352019e-01 9.236631e-01 9.596350e-01 9.113543e-01 7.193194e-01 3.558127e-01 1.013064e-01 4.411529e-01 6.618415e-01 9.293315e-01 1.135324e+00 1.137296e+00 1.028968e+00 9.142847e-01 8.215815e-01 7.586654e-01 7.002836e-01 6.491873e-01 6.072418e-01 5.812088e-01 5.699983e-01 5.815573e-01 6.092459e-01 6.504779e-01 7.011369e-01 7.525475e-01 8.156870e-01 9.103702e-01 1.026366e+00 1.133559e+00 1.130855e+00 9.349246e-01 6.643362e-01 4.460480e-01 1.115734e-01 3.466160e-01 7.123914e-01 9.092779e-01 9.599042e-01 9.248418e-01 8.363085e-01 7.368323e-01 6.362263e-01 5.501282e-01 4.764741e-01 4.159656e-01 3.667027e-01 3.252594e-01 2.929996e-01 2.662829e-01 2.485209e-01 2.362318e-01 
2.267086e-01 2.296846e-01 2.430808e-01 2.622175e-01 2.916521e-01 3.270241e-01 3.738871e-01 4.294994e-01 4.998569e-01 5.840755e-01 6.827331e-01 7.908879e-01 8.898917e-01 9.545079e-01 9.415982e-01 8.026843e-01 4.866378e-01 1.667772e-01 4.963786e-01 7.624904e-01 9.882643e-01 1.105473e+00 1.045964e+00 9.487600e-01 8.760968e-01 8.188452e-01 7.497018e-01 6.794199e-01 6.125911e-01 5.607607e-01 5.221694e-01 5.012541e-01 4.927091e-01 5.016397e-01 5.237729e-01 5.613028e-01 6.128221e-01 6.741156e-01 7.439990e-01 8.152147e-01 8.739918e-01 9.448143e-01 1.040182e+00 1.105357e+00 9.896267e-01 7.641730e-01 5.007352e-01 1.673160e-01 4.752636e-01 7.928797e-01 9.346748e-01 9.508611e-01 8.878913e-01 7.901702e-01 6.821888e-01 5.839402e-01 4.996116e-01 4.295136e-01 3.738514e-01 3.271915e-01 2.917770e-01 2.624243e-01 2.432046e-01 2.297749e-01 
2.170125e-01 2.201347e-01 2.347065e-01 2.552283e-01 2.874274e-01 3.260407e-01 3.785821e-01 4.409972e-01 5.214574e-01 6.164086e-01 7.249707e-01 8.377949e-01 9.231061e-01 9.575131e-01 8.768558e-01 6.593900e-01 3.113017e-01 5.386226e-01 8.256296e-01 9.630455e-01 1.017694e+00 9.677812e-01 9.051818e-01 8.430471e-01 7.684484e-01 7.025210e-01 6.407542e-01 5.915247e-01 5.451122e-01 5.081443e-01 4.773750e-01 4.595855e-01 4.519587e-01 4.598290e-01 4.783783e-01 5.082148e-01 5.450193e-01 5.884720e-01 6.376660e-01 6.994790e-01 7.656663e-01 8.387035e-01 8.988879e-01 9.627583e-01 1.013899e+00 9.622216e-01 8.234667e-01 5.436694e-01 3.047539e-01 6.567483e-01 8.779854e-01 9.572658e-01 9.225074e-01 8.373613e-01 7.239481e-01 6.156001e-01 5.204078e-01 4.402921e-01 3.779118e-01 3.257172e-01 2.871782e-01 2.551799e-01 2.346684e-01 2.201491e-01 
2.019747e-01 2.051705e-01 2.205998e-01 2.422964e-01 2.768660e-01 3.185509e-01 3.766462e-01 4.459162e-01 5.369102e-01 6.421673e-01 7.608632e-01 8.746817e-01 9.479972e-01 9.430582e-01 8.354636e-01 5.239392e-01 5.161839e-01 8.587802e-01 8.929834e-01 9.172816e-01 8.994676e-01 8.602563e-01 8.000370e-01 7.388997e-01 6.836027e-01 6.351552e-01 5.843838e-01 5.372609e-01 4.913814e-01 4.546217e-01 4.248521e-01 4.081026e-01 4.010678e-01 4.081667e-01 4.253596e-01 4.542490e-01 4.909008e-01 5.347452e-01 5.817664e-01 6.326961e-01 6.813668e-01 7.365328e-01 7.962837e-01 8.584676e-01 8.971474e-01 9.176626e-01 8.917081e-01 8.578136e-01 5.304055e-01 5.079164e-01 8.270432e-01 9.388874e-01 9.452191e-01 8.740240e-01 7.605240e-01 6.424208e-01 5.370027e-01 4.462427e-01 3.768636e-01 3.189537e-01 2.771930e-01 2.426782e-01 2.208493e-01 2.053292e-01 
1.846700e-01 1.879440e-01 2.042885e-01 2.270341e-01 2.639868e-01 3.085301e-01 3.724210e-01 4.481105e-01 5.503300e-01 6.643554e-01 7.932586e-01 9.065612e-01 9.601122e-01 9.488592e-01 7.534173e-01 5.088608e-01 8.785524e-01 8.498670e-01 8.246541e-01 8.488422e-01 8.184241e-01 7.698583e-01 7.158557e-01 6.672125e-01 6.157138e-01 5.703079e-01 5.241155e-01 4.848882e-01 4.467076e-01 4.167690e-01 3.914787e-01 3.773261e-01 3.710174e-01 3.772659e-01 3.916299e-01 4.162313e-01 4.461049e-01 4.830012e-01 5.220661e-01 5.677743e-01 6.128132e-01 6.637188e-01 7.110157e-01 7.652967e-01 8.132877e-01 8.461943e-01 8.230630e-01 8.411677e-01 8.737894e-01 5.106809e-01 7.528878e-01 9.444400e-01 9.503440e-01 9.008665e-01 7.887434e-01 6.617687e-01 5.484479e-01 4.470902e-01 3.717456e-01 3.083396e-01 2.639452e-01 2.271894e-01 2.044174e-01 1.880488e-01 
1.627195e-01 1.659904e-01 1.826553e-01 2.059910e-01 2.441244e-01 2.906999e-01 3.584867e-01 4.395976e-01 5.506702e-01 6.727137e-01 8.091399e-01 9.243452e-01 9.563613e-01 9.635532e-01 6.269319e-01 8.212280e-01 9.029239e-01 7.456271e-01 8.116656e-01 7.864314e-01 7.500724e-01 7.035139e-01 6.558428e-01 6.114732e-01 5.672888e-01 5.267425e-01 4.843001e-01 4.457196e-01 4.078920e-01 3.775071e-01 3.522290e-01 3.379206e-01 3.317121e-01 3.377885e-01 3.521811e-01 3.769293e-01 4.072840e-01 4.443402e-01 4.828163e-01 5.251521e-01 5.654582e-01 6.097265e-01 6.531051e-01 7.012956e-01 7.467841e-01 7.844391e-01 8.104690e-01 7.500207e-01 9.008746e-01 8.284258e-01 6.157188e-01 9.531981e-01 9.524116e-01 9.220955e-01 8.084397e-01 6.727478e-01 5.510013e-01 4.402467e-01 3.591600e-01 2.915534e-01 2.449045e-01 2.067482e-01 1.831945e-01 1.662997e-01 
1.402973e-01 1.435427e-01 1.603510e-01 1.839024e-01 2.226053e-01 2.703605e-01 3.412186e-01 4.260934e-01 5.469677e-01 6.721431e-01 8.289361e-01 9.198411e-01 1.009477e+00 9.144563e-01 6.665498e-01 9.948424e-01 7.593029e-01 7.750618e-01 7.792894e-01 7.481123e-01 7.055821e-01 6.608199e-01 6.149697e-01 5.728898e-01 5.284777e-01 4.876005e-01 4.453457e-01 4.082199e-01 3.724062e-01 3.442248e-01 3.206867e-01 3.075182e-01 3.016243e-01 3.073152e-01 3.204365e-01 3.435267e-01 3.715968e-01 4.068220e-01 4.436682e-01 4.855739e-01 5.258532e-01 5.699760e-01 6.107464e-01 6.563782e-01 6.990830e-01 7.416087e-01 7.697042e-01 7.684039e-01 7.497877e-01 9.932951e-01 6.748658e-01 9.063409e-01 1.000404e+00 9.086257e-01 8.236063e-01 6.689486e-01 5.457803e-01 4.259366e-01 3.416065e-01 2.711389e-01 2.234494e-01 1.847545e-01 1.609935e-01 1.439113e-01 
1.151282e-01 1.183061e-01 1.345438e-01 1.576588e-01 1.949970e-01 2.423751e-01 3.123176e-01 3.989956e-01 5.233338e-01 6.525438e-01 8.238716e-01 8.997027e-01 1.041575e+00 8.405974e-01 9.093679e-01 9.526557e-01 7.050782e-01 8.010877e-01 7.467899e-01 7.291719e-01 6.763491e-01 6.369572e-01 5.890028e-01 5.465539e-01 5.009252e-01 4.585372e-01 4.150924e-01 3.759001e-01 3.385698e-01 3.084400e-01 2.836711e-01 2.693852e-01 2.632737e-01 2.691920e-01 2.834011e-01 3.078747e-01 3.379305e-01 3.749919e-01 4.140237e-01 4.574678e-01 4.995227e-01 5.452812e-01 5.869962e-01 6.349938e-01 6.732653e-01 7.256587e-01 7.417470e-01 7.945591e-01 6.986112e-01 9.429730e-01 9.201158e-01 8.213194e-01 1.023216e+00 8.897064e-01 8.192811e-01 6.515688e-01 5.239425e-01 4.005836e-01 3.140568e-01 2.442318e-01 1.966825e-01 1.591313e-01 1.356282e-01 1.188995e-01 
9.187207e-02 9.490602e-02 1.100939e-01 1.321526e-01 1.666969e-01 2.124646e-01 2.782988e-01 3.662198e-01 4.868025e-01 6.285355e-01 7.926441e-01 9.115287e-01 1.007967e+00 8.336468e-01 1.024449e+00 8.575807e-01 7.866594e-01 8.162427e-01 7.596086e-01 7.285747e-01 6.737133e-01 6.284855e-01 5.772583e-01 5.296730e-01 4.800737e-01 4.332351e-01 3.868339e-01 3.449861e-01 3.061473e-01 2.746401e-01 2.490375e-01 2.340351e-01 2.277008e-01 2.337812e-01 2.486028e-01 2.739304e-01 3.052573e-01 3.438711e-01 3.854259e-01 4.317381e-01 4.780880e-01 5.276346e-01 5.743500e-01 6.252391e-01 6.688517e-01 7.221843e-01 7.497909e-01 8.018530e-01 7.671353e-01 8.314477e-01 1.031120e+00 8.245695e-01 9.817710e-01 9.048110e-01 7.907945e-01 6.308165e-01 4.897139e-01 3.697306e-01 2.814501e-01 2.154208e-01 1.692343e-01 1.342730e-01 1.116488e-01 9.575325e-02 
6.833908e-02 7.137422e-02 8.520848e-02 1.057449e-01 1.359539e-01 1.779047e-01 2.357165e-01 3.198745e-01 4.292028e-01 5.777775e-01 7.231849e-01 8.960127e-01 9.443923e-01 9.063997e-01 1.002682e+00 7.902349e-01 8.464361e-01 8.177296e-01 7.790161e-01 7.335656e-01 6.805565e-01 6.286500e-01 5.742718e-01 5.205495e-01 4.669423e-01 4.148396e-01 3.647700e-01 3.182619e-01 2.757419e-01 2.398011e-01 2.106951e-01 1.926365e-01 1.853728e-01 1.923836e-01 2.102350e-01 2.391745e-01 2.749479e-01 3.174324e-01 3.637275e-01 4.139201e-01 4.657428e-01 5.195522e-01 5.729273e-01 6.273569e-01 6.789389e-01 7.312132e-01 7.764337e-01 8.114672e-01 8.418225e-01 7.802000e-01 9.885588e-01 8.970668e-01 9.188709e-01 8.980894e-01 7.290701e-01 5.854772e-01 4.357314e-01 3.256034e-01 2.403210e-01 1.817072e-01 1.391090e-01 1.082538e-01 8.708704e-02 7.239413e-02 
4.847481e-02 5.135881e-02 6.357339e-02 8.192452e-02 1.070545e-01 1.432789e-01 1.917178e-01 2.675592e-01 3.650566e-01 5.111552e-01 6.513724e-01 8.486269e-01 9.002867e-01 9.644183e-01 9.567836e-01 8.189746e-01 8.855055e-01 8.296724e-01 8.035433e-01 7.451038e-01 6.943111e-01 6.332770e-01 5.760315e-01 5.149214e-01 4.572193e-01 3.992344e-01 3.452925e-01 2.939685e-01 2.476552e-01 2.070198e-01 1.737517e-01 1.517700e-01 1.430622e-01 1.514407e-01 1.731311e-01 2.062809e-01 2.467129e-01 2.930807e-01 3.442052e-01 3.983697e-01 4.562039e-01 5.143249e-01 5.755075e-01 6.334568e-01 6.953476e-01 7.475279e-01 8.094314e-01 8.386331e-01 9.041770e-01 8.340778e-01 9.501277e-01 9.662993e-01 9.066336e-01 8.645842e-01 6.651099e-01 5.242432e-01 3.752810e-01 2.759857e-01 1.983966e-01 1.486425e-01 1.114910e-01 8.543474e-02 6.626013e-02 5.286467e-02 
2.997497e-02 3.349603e-02 4.520320e-02 6.216257e-02 8.283282e-02 1.128213e-01 1.517394e-01 2.151171e-01 3.002821e-01 4.320362e-01 5.798598e-01 7.775393e-01 9.198131e-01 1.019222e+00 9.335034e-01 8.932144e-01 9.291610e-01 8.642128e-01 8.333074e-01 7.654111e-01 7.121734e-01 6.434586e-01 5.826768e-01 5.152218e-01 4.538553e-01 3.906365e-01 3.330705e-01 2.766687e-01 2.257793e-01 1.786129e-01 1.383686e-01 1.085101e-01 9.625388e-02 1.080423e-01 1.375312e-01 1.777343e-01 2.246681e-01 2.756767e-01 3.318367e-01 3.896350e-01 4.526239e-01 5.143408e-01 5.816517e-01 6.429219e-01 7.116848e-01 7.656494e-01 8.337548e-01 8.658583e-01 9.294287e-01 8.959390e-01 9.259047e-01 1.017659e+00 9.286347e-01 7.863764e-01 5.905041e-01 4.422066e-01 3.094655e-01 2.226213e-01 1.581122e-01 1.178049e-01 8.712638e-02 6.551500e-02 4.797705e-02 3.514383e-02 
1.466340e-02 1.938072e-02 3.150384e-02 4.739282e-02 6.445163e-02 8.864449e-02 1.193845e-01 1.694862e-01 2.432023e-01 3.543495e-01 5.115436e-01 6.956850e-01 9.348828e-01 1.035183e+00 9.121687e-01 9.270842e-01 9.281542e-01 8.762497e-01 8.414460e-01 7.730789e-01 7.189860e-01 6.466581e-01 5.842566e-01 5.130358e-01 4.496343e-01 3.831143e-01 3.233103e-01 2.636037e-01 2.095799e-01 1.573857e-01 1.103385e-01 6.940147e-02 4.892253e-02 6.875037e-02 1.093777e-01 1.565475e-01 2.085745e-01 2.628595e-01 3.224442e-01 3.826812e-01 4.492181e-01 5.133287e-01 5.848519e-01 6.483881e-01 7.213898e-01 7.771576e-01 8.459860e-01 8.825672e-01 9.312373e-01 9.314606e-01 9.053554e-01 1.029126e+00 9.396466e-01 7.024433e-01 5.233902e-01 3.647803e-01 2.536737e-01 1.779307e-01 1.270616e-01 9.476496e-02 6.997622e-02 5.188706e-02 3.556624e-02 2.228505e-02 
1.665733e-03 1.294900e-02 2.702387e-02 4.327452e-02 5.946973e-02 8.185405e-02 1.098724e-01 1.546231e-01 2.243951e-01 3.263131e-01 4.900851e-01 6.686955e-01 9.524721e-01 1.049618e+00 9.109497e-01 9.480704e-01 9.393670e-01 8.908457e-01 8.531218e-01 7.829497e-01 7.270435e-01 6.525084e-01 5.886398e-01 5.156120e-01 4.510444e-01 3.830581e-01 3.221840e-01 2.609542e-01 2.054104e-01 1.506774e-01 9.973007e-02 4.945972e-02 6.182410e-04 4.837932e-02 9.847256e-02 1.495834e-01 2.041002e-01 2.598482e-01 3.208367e-01 3.820024e-01 4.497788e-01 5.147949e-01 5.877173e-01 6.523164e-01 7.268378e-01 7.839735e-01 8.537204e-01 8.934198e-01 9.392055e-01 9.509262e-01 9.050023e-01 1.047173e+00 9.629454e-01 6.777740e-01 5.026153e-01 3.362715e-01 2.342909e-01 1.621499e-01 1.167484e-01 8.710448e-02 6.426312e-02 4.708201e-02 3.069924e-02 1.609805e-02 
1.466340e-02 1.938072e-02 3.150384e-02 4.739282e-02 6.445163e-02 8.864449e-02 1.193845e-01 1.694862e-01 2.432023e-01 3.543495e-01 5.115436e-01 6.956850e-01 9.348828e-01 1.035183e+00 9.121687e-01 9.270842e-01 9.281542e-01 8.762497e-01 8.414460e-01 7.730789e-01 7.189860e-01 6.466581e-01 5.842566e-01 5.130358e-01 4.496343e-01 3.831143e-01 3.233103e-01 2.636037e-01 2.095799e-01 1.573857e-01 1.103385e-01 6.940147e-02 4.892253e-02 6.875037e-02 1.093777e-01 1.565475e-01 2.085745e-01 2.628595e-01 3.224442e-01 3.826812e-01 4.492181e-01 5.133287e-01 5.848519e-01 6.483881e-01 7.213898e-01 7.771576e-01 8.459860e-01 8.825672e-01 9.312373e-01 9.314606e-01 9.053554e-01 1.029126e+00 9.396466e-01 7.024433e-01 5.233902e-01 3.647803e-01 2.536737e-01 1.779307e-01 1.270616e-01 9.476496e-02 6.997622e-02 5.188706e-02 3.556624e-02 2.228505e-02 
2.997497e-02 3.349603e-02 4.520320e-02 6.216257e-02 8.283282e-02 1.128213e-01 1.517394e-01 2.151171e-01 3.002821e-01 4.320362e-01 5.798598e-01 7.775393e-01 9.198131e-01 1.019222e+00 9.335034e-01 8.932144e-01 9.291610e-01 8.642128e-01 8.333074e-01 7.654111e-01 7.121734e-01 6.434586e-01 5.826768e-01 5.152218e-01 4.538553e-01 3.906365e-01 3.330705e-01 2.766687e-01 2.257793e-01 1.786129e-01 1.383686e-01 1.085101e-01 9.625388e-02 1.080423e-01 1.375312e-01 1.777343e-01 2.246681e-01 2.756767e-01 3.318367e-01 3.896350e-01 4.526239e-01 5.143408e-01 5.816517e-01 6.429219e-01 7.116848e-01 7.656494e-01 8.337548e-01 8.658583e-01 9.294287e-01 8.959390e-01 9.259047e-01 1.017659e+00 9.286347e-01 7.863764e-01 5.905041e-01 4.422066e-01 3.094655e-01 2.226213e-01 1.581122e-01 1.178049e-01 8.712638e-02 6.551500e-02 4.797705e-02 3.514383e-02 