# vtk DataFile Version 2.0
Comment goes here
ASCII

DATASET STRUCTURED_POINTS
FIELD FieldData 1
TIME 1 1 double
0.06000000
DIMENSIONS    64   64   1

ORIGIN    0.000   0.000   0.000
SPACING   0.015625 0.015625   1.000

POINT_DATA   4096
SCALARS uMag double
LOOKUP_TABLE default

5.881667e-06 5.481085e-02 1.098698e-01 1.653054e-01 2.214376e-01 2.782413e-01 3.360672e-01 3.946946e-01 4.544338e-01 5.148257e-01 5.760486e-01 6.373506e-01 6.986693e-01 7.588940e-01 8.176105e-01 8.732832e-01 9.250660e-01 9.709643e-01 1.009704e+00 1.038887e+00 1.056968e+00 1.061363e+00 1.050621e+00 1.022384e+00 9.758407e-01 9.094578e-01 8.236838e-01 7.186000e-01 5.964905e-01 4.597447e-01 3.122807e-01 1.577953e-01 3.197338e-05 1.577572e-01 3.123286e-01 4.597015e-01 5.965055e-01 7.185520e-01 8.236676e-01 9.094180e-01 9.758103e-01 1.022370e+00 1.050590e+00 1.061377e+00 1.056942e+00 1.038915e+00 1.009684e+00 9.709961e-01 9.250536e-01 8.733112e-01 8.176046e-01 7.589159e-01 6.986689e-01 6.373672e-01 5.760525e-01 5.148381e-01 4.544409e-01 3.947043e-01 3.360765e-01 2.782492e-01 2.214483e-01 1.653123e-01 1.098814e-01 5.481740e-02 
5.481412e-02 7.753213e-02 1.227971e-01 1.741919e-01 2.281691e-01 2.836797e-01 3.406363e-01 3.986863e-01 4.580104e-01 5.181411e-01 5.791982e-01 6.404371e-01 7.017816e-01 7.621015e-01 8.210267e-01 8.769387e-01 9.291181e-01 9.753910e-01 1.014713e+00 1.044395e+00 1.063221e+00 1.068242e+00 1.058371e+00 1.030945e+00 9.854409e-01 9.202753e-01 8.360760e-01 7.333438e-01 6.148399e-01 4.843006e-01 3.486203e-01 2.226445e-01 1.577762e-01 2.225962e-01 3.486447e-01 4.842338e-01 6.148352e-01 7.332728e-01 8.360411e-01 9.202177e-01 9.853962e-01 1.030924e+00 1.058334e+00 1.068257e+00 1.063198e+00 1.044434e+00 1.014705e+00 9.754374e-01 9.291225e-01 8.769828e-01 8.210380e-01 7.621384e-01 7.017961e-01 6.404657e-01 5.792132e-01 5.181620e-01 4.580247e-01 3.987011e-01 3.406494e-01 2.836899e-01 2.281809e-01 1.741991e-01 1.228074e-01 7.753652e-02 
1.094241e-01 1.224134e-01 1.550946e-01 1.983297e-01 2.471545e-01 2.992737e-01 3.539027e-01 4.103192e-01 4.685156e-01 5.278949e-01 5.885287e-01 6.496301e-01 7.111020e-01 7.718385e-01 8.314165e-01 8.883247e-01 9.417110e-01 9.896129e-01 1.030744e+00 1.062736e+00 1.084033e+00 1.092078e+00 1.085438e+00 1.061809e+00 1.020484e+00 9.600980e-01 8.815190e-01 7.855741e-01 6.761609e-01 5.591195e-01 4.454390e-01 3.544994e-01 3.173407e-01 3.544700e-01 4.454770e-01 5.590663e-01 6.761733e-01 7.855131e-01 8.814977e-01 9.600481e-01 1.020450e+00 1.061796e+00 1.085405e+00 1.092098e+00 1.084005e+00 1.062770e+00 1.030723e+00 9.896470e-01 9.416992e-01 8.883526e-01 8.314122e-01 7.718595e-01 7.111036e-01 6.496456e-01 5.885347e-01 5.279065e-01 4.685245e-01 4.103283e-01 3.539133e-01 2.992811e-01 2.471656e-01 1.983357e-01 1.551039e-01 1.224164e-01 
1.635759e-01 1.725758e-01 1.971294e-01 2.327860e-01 2.756929e-01 3.234738e-01 3.748848e-01 4.289950e-01 4.855266e-01 5.438270e-01 6.038388e-01 6.647798e-01 7.265101e-01 7.879279e-01 8.486442e-01 9.070991e-01 9.625670e-01 1.012928e+00 1.057140e+00 1.092520e+00 1.117887e+00 1.130216e+00 1.128544e+00 1.110084e+00 1.074592e+00 1.020654e+00 9.496161e-01 8.634243e-01 7.669636e-01 6.676415e-01 5.768566e-01 5.107346e-01 4.858478e-01 5.106875e-01 5.768765e-01 6.675562e-01 7.669540e-01 8.633231e-01 9.495648e-01 1.020570e+00 1.074534e+00 1.110063e+00 1.128500e+00 1.130247e+00 1.117863e+00 1.092573e+00 1.057136e+00 1.012983e+00 9.625770e-01 9.071456e-01 8.486609e-01 7.879635e-01 7.265285e-01 6.648051e-01 6.038561e-01 5.438440e-01 4.855416e-01 4.290058e-01 3.748975e-01 3.234803e-01 2.757030e-01 2.327895e-01 1.971359e-01 1.725771e-01 
2.170767e-01 2.239748e-01 2.434476e-01 2.732582e-01 3.108203e-01 3.542010e-01 4.021452e-01 4.536249e-01 5.082591e-01 5.653016e-01 6.246621e-01 6.855220e-01 7.477412e-01 8.102536e-01 8.726399e-01 9.334763e-01 9.919077e-01 1.046081e+00 1.094664e+00 1.135382e+00 1.166581e+00 1.185737e+00 1.191295e+00 1.180943e+00 1.154044e+00 1.109541e+00 1.049207e+00 9.746595e-01 8.911910e-01 8.062681e-01 7.306543e-01 6.774274e-01 6.578733e-01 6.773847e-01 7.306853e-01 8.061841e-01 8.911891e-01 9.745504e-01 1.049158e+00 1.109450e+00 1.153998e+00 1.180938e+00 1.191257e+00 1.185784e+00 1.166549e+00 1.135435e+00 1.094643e+00 1.046121e+00 9.918992e-01 9.335031e-01 8.726415e-01 8.102713e-01 7.477494e-01 6.855345e-01 6.246741e-01 5.653112e-01 5.082728e-01 4.536328e-01 4.021592e-01 3.542075e-01 3.108325e-01 2.732629e-01 2.434555e-01 2.239766e-01 
2.695807e-01 2.752365e-01 2.913800e-01 3.169393e-01 3.501227e-01 3.896220e-01 4.342735e-01 4.832109e-01 5.359437e-01 5.918020e-01 6.506042e-01 7.116079e-01 7.746423e-01 8.387107e-01 9.034360e-01 9.674123e-01 1.029922e+00 1.088993e+00 1.143560e+00 1.190948e+00 1.229913e+00 1.257054e+00 1.271316e+00 1.269116e+00 1.250597e+00 1.214409e+00 1.163344e+00 1.101599e+00 1.034160e+00 9.665192e-01 9.055119e-01 8.619546e-01 8.455299e-01 8.618664e-01 9.055354e-01 9.663951e-01 1.034127e+00 1.101414e+00 1.163228e+00 1.214245e+00 1.250509e+00 1.269113e+00 1.271262e+00 1.257128e+00 1.229889e+00 1.191034e+00 1.143568e+00 1.089064e+00 1.029947e+00 9.674614e-01 9.034648e-01 8.387419e-01 7.746682e-01 7.116264e-01 6.506250e-01 5.918119e-01 5.359597e-01 4.832155e-01 4.342853e-01 3.896236e-01 3.501308e-01 3.169395e-01 2.913843e-01 2.752364e-01 
3.208767e-01 3.257071e-01 3.395906e-01 3.620341e-01 3.918084e-01 4.280563e-01 4.698675e-01 5.165089e-01 5.675807e-01 6.224224e-01 6.809336e-01 7.423690e-01 8.066528e-01 8.728357e-01 9.405979e-01 1.008694e+00 1.076320e+00 1.141832e+00 1.203772e+00 1.259940e+00 1.308132e+00 1.345376e+00 1.368952e+00 1.376006e+00 1.365909e+00 1.339672e+00 1.302261e+00 1.255149e+00 1.202043e+00 1.146020e+00 1.091334e+00 1.048219e+00 1.030848e+00 1.048135e+00 1.091367e+00 1.145880e+00 1.201977e+00 1.254902e+00 1.302097e+00 1.339456e+00 1.365844e+00 1.376046e+00 1.368914e+00 1.345493e+00 1.308096e+00 1.260027e+00 1.203755e+00 1.141878e+00 1.076322e+00 1.008715e+00 9.406123e-01 8.728475e-01 8.066730e-01 7.423778e-01 6.809554e-01 6.224303e-01 5.676014e-01 5.165162e-01 4.698855e-01 4.280625e-01 3.918222e-01 3.620384e-01 3.395983e-01 3.257087e-01 
3.704905e-01 3.747931e-01 3.870811e-01 4.073112e-01 4.344892e-01 4.682319e-01 5.077344e-01 5.525741e-01 6.023351e-01 6.565729e-01 7.151522e-01 7.775156e-01 8.435899e-01 9.126066e-01 9.843110e-01 1.057598e+00 1.131809e+00 1.205247e+00 1.276639e+00 1.343058e+00 1.402246e+00 1.448915e+00 1.480279e+00 1.490640e+00 1.483042e+00 1.458571e+00 1.426221e+00 1.397854e+00 1.372918e+00 1.342121e+00 1.298767e+00 1.255515e+00 1.235869e+00 1.255204e+00 1.298760e+00 1.341920e+00 1.372781e+00 1.397419e+00 1.425858e+00 1.458175e+00 1.482916e+00 1.490747e+00 1.480230e+00 1.449100e+00 1.402239e+00 1.343200e+00 1.276681e+00 1.205334e+00 1.131865e+00 1.057644e+00 9.843595e-01 9.126279e-01 8.436249e-01 7.775231e-01 7.151757e-01 6.565735e-01 6.023505e-01 5.525719e-01 5.077442e-01 4.682290e-01 4.344951e-01 4.073090e-01 3.870840e-01 3.747922e-01 
4.181769e-01 4.220910e-01 4.332743e-01 4.518868e-01 4.771739e-01 5.090033e-01 5.467947e-01 5.902734e-01 6.392135e-01 6.932192e-01 7.523704e-01 8.161108e-01 8.846294e-01 9.571818e-01 1.033762e+00 1.113401e+00 1.195475e+00 1.278536e+00 1.360535e+00 1.438399e+00 1.506942e+00 1.559634e+00 1.589310e+00 1.594220e+00 1.578968e+00 1.560177e+00 1.553700e+00 1.552500e+00 1.549362e+00 1.533087e+00 1.498483e+00 1.460292e+00 1.442592e+00 1.460061e+00 1.498534e+00 1.532889e+00 1.549090e+00 1.551830e+00 1.553119e+00 1.559625e+00 1.578964e+00 1.594491e+00 1.589344e+00 1.559922e+00 1.506916e+00 1.438529e+00 1.360540e+00 1.278572e+00 1.195504e+00 1.113409e+00 1.033800e+00 9.571860e-01 8.846675e-01 8.161172e-01 7.524042e-01 6.932273e-01 6.392415e-01 5.902815e-01 5.468163e-01 5.090101e-01 4.771887e-01 4.518914e-01 4.332819e-01 4.220926e-01 
4.633113e-01 4.670040e-01 4.773933e-01 4.949362e-01 5.188708e-01 5.494340e-01 5.860415e-01 6.287685e-01 6.773578e-01 7.317337e-01 7.919532e-01 8.577764e-01 9.294159e-01 1.006467e+00 1.089004e+00 1.176376e+00 1.267988e+00 1.362187e+00 1.456120e+00 1.544113e+00 1.617595e+00 1.663756e+00 1.676295e+00 1.656236e+00 1.630418e+00 1.607276e+00 1.606610e+00 1.650088e+00 1.701069e+00 1.722769e+00 1.717581e+00 1.705816e+00 1.698675e+00 1.704704e+00 1.717666e+00 1.722711e+00 1.700408e+00 1.648937e+00 1.605596e+00 1.606485e+00 1.630498e+00 1.656859e+00 1.676414e+00 1.664162e+00 1.617660e+00 1.544321e+00 1.456250e+00 1.362276e+00 1.268100e+00 1.176406e+00 1.089075e+00 1.006470e+00 9.294560e-01 8.577690e-01 7.919749e-01 7.317241e-01 6.773695e-01 6.287601e-01 5.860480e-01 5.494280e-01 5.188743e-01 4.949326e-01 4.773949e-01 4.670028e-01 
5.056178e-01 5.091359e-01 5.190231e-01 5.358300e-01 5.589136e-01 5.886509e-01 6.246302e-01 6.670352e-01 7.158408e-01 7.710047e-01 8.329317e-01 9.013351e-01 9.769347e-01 1.059243e+00 1.148921e+00 1.245216e+00 1.347612e+00 1.453576e+00 1.557352e+00 1.648821e+00 1.710078e+00 1.723719e+00 1.686968e+00 1.628971e+00 1.586446e+00 1.629504e+00 1.738616e+00 1.811755e+00 1.845516e+00 1.871970e+00 1.907808e+00 1.946266e+00 1.960697e+00 1.945383e+00 1.908165e+00 1.871607e+00 1.844292e+00 1.810404e+00 1.737067e+00 1.629282e+00 1.587505e+00 1.630033e+00 1.687471e+00 1.724342e+00 1.710084e+00 1.648943e+00 1.557417e+00 1.453562e+00 1.347692e+00 1.245202e+00 1.148993e+00 1.059244e+00 9.769938e-01 9.013445e-01 8.329770e-01 7.710164e-01 7.158740e-01 6.670459e-01 6.246533e-01 5.886591e-01 5.589281e-01 5.358352e-01 5.190302e-01 5.091376e-01 
5.443244e-01 5.477932e-01 5.573386e-01 5.737882e-01 5.963683e-01 6.258048e-01 6.615726e-01 7.042484e-01 7.537015e-01 8.103154e-01 8.744269e-01 9.462214e-01 1.026422e+00 1.115086e+00 1.212854e+00 1.319324e+00 1.432994e+00 1.549095e+00 1.655997e+00 1.733746e+00 1.751811e+00 1.694043e+00 1.590883e+00 1.532766e+00 1.609193e+00 1.711149e+00 1.777799e+00 1.862002e+00 1.971930e+00 2.078556e+00 2.155050e+00 2.210147e+00 2.228478e+00 2.207427e+00 2.157834e+00 2.078101e+00 1.970039e+00 1.859851e+00 1.777599e+00 1.713858e+00 1.611098e+00 1.534639e+00 1.591660e+00 1.694709e+00 1.752002e+00 1.733929e+00 1.656310e+00 1.549138e+00 1.433170e+00 1.319315e+00 1.212931e+00 1.115061e+00 1.026452e+00 9.461972e-01 8.744377e-01 8.102970e-01 7.537054e-01 7.042362e-01 6.615743e-01 6.257975e-01 5.963691e-01 5.737845e-01 5.573390e-01 5.477921e-01 
5.791517e-01 5.825748e-01 5.919843e-01 6.082701e-01 6.307185e-01 6.601551e-01 6.961789e-01 7.394569e-01 7.900942e-01 8.484902e-01 9.154427e-01 9.910019e-01 1.076709e+00 1.172247e+00 1.279214e+00 1.395974e+00 1.519726e+00 1.639419e+00 1.733058e+00 1.764510e+00 1.691553e+00 1.531670e+00 1.421949e+00 1.473154e+00 1.575847e+00 1.683120e+00 1.816765e+00 1.977678e+00 2.108446e+00 2.201612e+00 2.264710e+00 2.313579e+00 2.330403e+00 2.309526e+00 2.268143e+00 2.202842e+00 2.106639e+00 1.976048e+00 1.821019e+00 1.687061e+00 1.576396e+00 1.474646e+00 1.422880e+00 1.532854e+00 1.691364e+00 1.764280e+00 1.733235e+00 1.639288e+00 1.519878e+00 1.395951e+00 1.279324e+00 1.172262e+00 1.076785e+00 9.910238e-01 9.154935e-01 8.485091e-01 7.901273e-01 7.394709e-01 6.961998e-01 6.601646e-01 6.307307e-01 6.082755e-01 5.919899e-01 5.825766e-01 
6.092174e-01 6.127000e-01 6.220528e-01 6.384549e-01 6.609843e-01 6.908353e-01 7.273921e-01 7.717853e-01 8.238962e-01 8.846906e-01 9.547775e-01 1.034879e+00 1.126412e+00 1.229734e+00 1.345764e+00 1.472046e+00 1.600250e+00 1.709611e+00 1.761795e+00 1.700010e+00 1.492302e+00 1.283720e+00 1.275435e+00 1.389077e+00 1.487278e+00 1.661543e+00 1.888668e+00 2.062699e+00 2.173845e+00 2.255785e+00 2.333609e+00 2.393968e+00 2.412579e+00 2.392489e+00 2.333585e+00 2.256492e+00 2.173592e+00 2.064518e+00 1.894080e+00 1.658325e+00 1.486936e+00 1.389994e+00 1.273327e+00 1.282738e+00 1.493128e+00 1.699698e+00 1.762382e+00 1.709550e+00 1.600405e+00 1.471982e+00 1.345784e+00 1.229679e+00 1.126403e+00 1.034841e+00 9.547673e-01 8.846683e-01 8.238897e-01 7.717734e-01 7.273888e-01 6.908296e-01 6.609828e-01 6.384526e-01 6.220523e-01 6.126994e-01 
6.342891e-01 6.378128e-01 6.472662e-01 6.638938e-01 6.867822e-01 7.172344e-01 7.546845e-01 8.003919e-01 8.543993e-01 9.177373e-01 9.914820e-01 1.076139e+00 1.174173e+00 1.284786e+00 1.409637e+00 1.541115e+00 1.663973e+00 1.741358e+00 1.716707e+00 1.514293e+00 1.179946e+00 1.040953e+00 1.112298e+00 1.195117e+00 1.452580e+00 1.749597e+00 1.944104e+00 2.110768e+00 2.248561e+00 2.332819e+00 2.382954e+00 2.408393e+00 2.411344e+00 2.407753e+00 2.381800e+00 2.332559e+00 2.248819e+00 2.111478e+00 1.947853e+00 1.748448e+00 1.452812e+00 1.191189e+00 1.108284e+00 1.040388e+00 1.180866e+00 1.512778e+00 1.717049e+00 1.741243e+00 1.664179e+00 1.541179e+00 1.409765e+00 1.284848e+00 1.174248e+00 1.076179e+00 9.915250e-01 9.177619e-01 8.544237e-01 8.004070e-01 7.546982e-01 7.172434e-01 6.867894e-01 6.638987e-01 6.472693e-01 6.378143e-01 
6.534479e-01 6.570987e-01 6.666860e-01 6.837444e-01 7.071073e-01 7.384667e-01 7.769481e-01 8.243578e-01 8.803487e-01 9.467037e-01 1.024056e+00 1.113824e+00 1.217905e+00 1.335804e+00 1.466309e+00 1.597013e+00 1.697917e+00 1.720465e+00 1.586311e+00 1.209252e+00 8.617320e-01 8.181585e-01 8.347623e-01 1.253302e+00 1.789506e+00 2.103338e+00 2.253980e+00 2.294531e+00 2.279919e+00 2.253851e+00 2.239265e+00 2.234368e+00 2.231077e+00 2.234058e+00 2.238833e+00 2.253510e+00 2.280308e+00 2.292102e+00 2.256274e+00 2.105357e+00 1.787730e+00 1.250224e+00 8.376018e-01 8.190576e-01 8.636946e-01 1.210226e+00 1.586337e+00 1.720559e+00 1.697699e+00 1.596903e+00 1.466175e+00 1.335725e+00 1.217839e+00 1.113784e+00 1.024026e+00 9.466865e-01 8.803351e-01 8.243522e-01 7.769424e-01 7.384660e-01 7.071052e-01 6.837451e-01 6.666854e-01 6.570991e-01 
6.665765e-01 6.703291e-01 6.801743e-01 6.977262e-01 7.217695e-01 7.541438e-01 7.939040e-01 8.430975e-01 9.013149e-01 9.706213e-01 1.051791e+00 1.146122e+00 1.256210e+00 1.378654e+00 1.511848e+00 1.630021e+00 1.695115e+00 1.651282e+00 1.377021e+00 9.007879e-01 6.616379e-01 4.675677e-01 1.097086e+00 1.991689e+00 2.362588e+00 2.372696e+00 2.266420e+00 2.182386e+00 2.130481e+00 2.103719e+00 2.090806e+00 2.085602e+00 2.082174e+00 2.085345e+00 2.090543e+00 2.103090e+00 2.131024e+00 2.180343e+00 2.267220e+00 2.372088e+00 2.358045e+00 1.992448e+00 1.101789e+00 4.688849e-01 6.616066e-01 9.009555e-01 1.377659e+00 1.652107e+00 1.695349e+00 1.630288e+00 1.511948e+00 1.378750e+00 1.256249e+00 1.146161e+00 1.051806e+00 9.706398e-01 9.013199e-01 8.431078e-01 7.939054e-01 7.541497e-01 7.217697e-01 6.977294e-01 6.801742e-01 6.703301e-01 
6.728201e-01 6.767363e-01 6.868575e-01 7.050452e-01 7.298337e-01 7.634231e-01 8.045022e-01 8.557089e-01 9.160471e-01 9.885460e-01 1.073045e+00 1.172079e+00 1.286474e+00 1.412015e+00 1.541442e+00 1.639358e+00 1.661651e+00 1.555717e+00 1.151843e+00 7.903681e-01 4.113692e-01 8.036666e-01 2.099917e+00 2.572975e+00 2.485250e+00 2.275898e+00 2.132607e+00 2.038378e+00 1.977147e+00 1.936075e+00 1.911166e+00 1.897977e+00 1.893134e+00 1.897819e+00 1.911172e+00 1.935611e+00 1.977561e+00 2.037248e+00 2.132882e+00 2.276658e+00 2.484217e+00 2.574445e+00 2.099684e+00 8.008602e-01 4.118205e-01 7.916795e-01 1.152379e+00 1.554962e+00 1.660969e+00 1.639027e+00 1.541226e+00 1.411922e+00 1.286402e+00 1.172058e+00 1.073020e+00 9.885481e-01 9.160379e-01 8.557167e-01 8.044995e-01 7.634307e-01 7.298333e-01 7.050503e-01 6.868577e-01 6.767381e-01 
6.722465e-01 6.763079e-01 6.868109e-01 7.056896e-01 7.313895e-01 7.662772e-01 8.088391e-01 8.620964e-01 9.246067e-01 1.000162e+00 1.087717e+00 1.190638e+00 1.308096e+00 1.432315e+00 1.555680e+00 1.618713e+00 1.629455e+00 1.423819e+00 1.112842e+00 8.085941e-01 2.882877e-01 1.882458e+00 2.694337e+00 2.632312e+00 2.333656e+00 2.091386e+00 1.942756e+00 1.851953e+00 1.799539e+00 1.768596e+00 1.750968e+00 1.741843e+00 1.738476e+00 1.741692e+00 1.750985e+00 1.768165e+00 1.799790e+00 1.851268e+00 1.942739e+00 2.091818e+00 2.333119e+00 2.634959e+00 2.696778e+00 1.882116e+00 2.883854e-01 8.071184e-01 1.113035e+00 1.424282e+00 1.629551e+00 1.618712e+00 1.555611e+00 1.432277e+00 1.308039e+00 1.190620e+00 1.087681e+00 1.000157e+00 9.245848e-01 8.620957e-01 8.088259e-01 7.662778e-01 7.313819e-01 7.056903e-01 6.868075e-01 6.763082e-01 
6.641705e-01 6.684129e-01 6.793363e-01 6.990082e-01 7.257026e-01 7.620055e-01 8.060962e-01 8.614593e-01 9.259928e-01 1.004521e+00 1.094373e+00 1.200844e+00 1.318450e+00 1.440864e+00 1.550366e+00 1.592721e+00 1.592592e+00 1.376641e+00 1.189998e+00 6.970529e-01 1.221505e+00 2.589154e+00 2.799152e+00 2.470999e+00 2.103440e+00 1.889409e+00 1.763927e+00 1.690513e+00 1.643889e+00 1.612161e+00 1.591356e+00 1.579054e+00 1.575011e+00 1.578960e+00 1.591433e+00 1.611892e+00 1.644077e+00 1.690171e+00 1.763940e+00 1.889664e+00 2.103229e+00 2.471427e+00 2.799085e+00 2.589867e+00 1.223702e+00 6.994240e-01 1.190776e+00 1.377053e+00 1.593337e+00 1.592924e+00 1.550520e+00 1.440942e+00 1.318481e+00 1.200893e+00 1.094382e+00 1.004556e+00 9.259985e-01 8.614853e-01 8.061008e-01 7.620230e-01 7.257060e-01 6.990184e-01 6.793381e-01 6.684163e-01 
6.488945e-01 6.533184e-01 6.647768e-01 6.853336e-01 7.132099e-01 7.510464e-01 7.968400e-01 8.543741e-01 9.209225e-01 1.002407e+00 1.093844e+00 1.204046e+00 1.318248e+00 1.442398e+00 1.526965e+00 1.586020e+00 1.543241e+00 1.488853e+00 1.287317e+00 6.955572e-01 2.008461e+00 2.850418e+00 2.676468e+00 2.219821e+00 1.886415e+00 1.706410e+00 1.600007e+00 1.535685e+00 1.493945e+00 1.465136e+00 1.446349e+00 1.435072e+00 1.431539e+00 1.434991e+00 1.446404e+00 1.464926e+00 1.494059e+00 1.535476e+00 1.600000e+00 1.706529e+00 1.886293e+00 2.219819e+00 2.676201e+00 2.847861e+00 2.005300e+00 6.926884e-01 1.282419e+00 1.487838e+00 1.542160e+00 1.585183e+00 1.526539e+00 1.442169e+00 1.318080e+00 1.203976e+00 1.093764e+00 1.002383e+00 9.208802e-01 8.543650e-01 7.968162e-01 7.510428e-01 7.131968e-01 6.853323e-01 6.647709e-01 6.533181e-01 
6.259843e-01 6.306114e-01 6.427030e-01 6.642610e-01 6.935055e-01 7.329779e-01 7.806720e-01 8.402863e-01 9.089887e-01 9.928203e-01 1.085869e+00 1.197883e+00 1.308852e+00 1.430661e+00 1.497670e+00 1.572140e+00 1.529841e+00 1.591047e+00 1.363719e+00 1.108372e+00 2.484151e+00 2.844176e+00 2.462363e+00 1.980375e+00 1.703334e+00 1.547406e+00 1.457753e+00 1.398532e+00 1.357730e+00 1.326432e+00 1.304940e+00 1.291223e+00 1.287089e+00 1.291171e+00 1.304997e+00 1.326297e+00 1.357806e+00 1.398401e+00 1.457730e+00 1.547414e+00 1.703200e+00 1.980271e+00 2.462208e+00 2.843658e+00 2.484438e+00 1.101456e+00 1.365368e+00 1.594645e+00 1.529182e+00 1.572051e+00 1.497514e+00 1.430745e+00 1.308843e+00 1.197961e+00 1.085884e+00 9.928773e-01 9.090041e-01 8.403252e-01 7.806838e-01 7.330028e-01 6.935132e-01 6.642750e-01 6.427067e-01 6.306159e-01 
5.959874e-01 6.008507e-01 6.137403e-01 6.364841e-01 6.673878e-01 7.087048e-01 7.586208e-01 8.203623e-01 8.915402e-01 9.772731e-01 1.072516e+00 1.184526e+00 1.295223e+00 1.409962e+00 1.479185e+00 1.553286e+00 1.585961e+00 1.653023e+00 1.357596e+00 1.546027e+00 2.674618e+00 2.702922e+00 2.220683e+00 1.773905e+00 1.546201e+00 1.407415e+00 1.327903e+00 1.269570e+00 1.228658e+00 1.195770e+00 1.173410e+00 1.158845e+00 1.154642e+00 1.158809e+00 1.173458e+00 1.195691e+00 1.228732e+00 1.269542e+00 1.327961e+00 1.407576e+00 1.546346e+00 1.774356e+00 2.221382e+00 2.704443e+00 2.677403e+00 1.551399e+00 1.367270e+00 1.654092e+00 1.584853e+00 1.553550e+00 1.479019e+00 1.410015e+00 1.295122e+00 1.184519e+00 1.072453e+00 9.772619e-01 8.915011e-01 8.203546e-01 7.585969e-01 7.087005e-01 6.673741e-01 6.364821e-01 6.137341e-01 6.008502e-01 
5.587572e-01 5.638971e-01 5.777874e-01 6.019510e-01 6.348758e-01 6.782772e-01 7.308064e-01 7.946905e-01 8.687409e-01 9.558594e-01 1.053997e+00 1.164526e+00 1.277983e+00 1.384254e+00 1.469932e+00 1.542994e+00 1.677228e+00 1.750863e+00 1.384326e+00 1.868051e+00 2.692329e+00 2.508941e+00 1.993668e+00 1.608086e+00 1.411598e+00 1.286800e+00 1.211450e+00 1.152124e+00 1.108176e+00 1.071359e+00 1.045638e+00 1.028605e+00 1.023660e+00 1.028577e+00 1.045666e+00 1.071292e+00 1.108197e+00 1.152065e+00 1.211412e+00 1.286782e+00 1.411491e+00 1.608035e+00 1.993455e+00 2.508574e+00 2.691466e+00 1.869254e+00 1.385327e+00 1.745761e+00 1.676014e+00 1.543250e+00 1.469941e+00 1.384400e+00 1.278012e+00 1.164617e+00 1.054030e+00 9.559207e-01 8.687670e-01 7.947317e-01 7.308244e-01 6.783038e-01 6.348869e-01 6.019660e-01 5.777927e-01 5.639019e-01 
5.150530e-01 5.205638e-01 5.357321e-01 5.616999e-01 5.971076e-01 6.430283e-01 6.985859e-01 7.648995e-01 8.420393e-01 9.305853e-01 1.031538e+00 1.140686e+00 1.256810e+00 1.357737e+00 1.457679e+00 1.539982e+00 1.740754e+00 1.852540e+00 1.501562e+00 2.068539e+00 2.612450e+00 2.298909e+00 1.795646e+00 1.469778e+00 1.293188e+00 1.178986e+00 1.103773e+00 1.042122e+00 9.942577e-01 9.536919e-01 9.249939e-01 9.059523e-01 9.004130e-01 9.059402e-01 9.250271e-01 9.536744e-01 9.943028e-01 1.042142e+00 1.103799e+00 1.179068e+00 1.293164e+00 1.469836e+00 1.795395e+00 2.298508e+00 2.610601e+00 2.065049e+00 1.494141e+00 1.848202e+00 1.741218e+00 1.539868e+00 1.457772e+00 1.357716e+00 1.256810e+00 1.140679e+00 1.031519e+00 9.305780e-01 8.420200e-01 7.648941e-01 6.985717e-01 6.430251e-01 5.970987e-01 5.616985e-01 5.357279e-01 5.205634e-01 
4.650082e-01 4.710081e-01 4.878510e-01 5.161410e-01 5.546468e-01 6.036317e-01 6.627138e-01 7.318224e-01 8.122559e-01 9.024751e-01 1.006020e+00 1.114647e+00 1.232657e+00 1.332586e+00 1.440224e+00 1.536476e+00 1.758823e+00 1.900040e+00 1.624186e+00 2.155048e+00 2.469772e+00 2.088639e+00 1.626980e+00 1.352298e+00 1.189950e+00 1.083872e+00 1.006108e+00 9.410077e-01 8.872286e-01 8.414064e-01 8.078841e-01 7.857399e-01 7.790381e-01 7.857262e-01 8.078935e-01 8.413786e-01 8.872295e-01 9.409969e-01 1.006088e+00 1.083910e+00 1.189928e+00 1.352420e+00 1.627007e+00 2.089074e+00 2.470100e+00 2.155615e+00 1.621261e+00 1.900825e+00 1.760190e+00 1.536292e+00 1.440417e+00 1.332626e+00 1.232775e+00 1.114708e+00 1.006083e+00 9.025202e-01 8.122916e-01 7.318535e-01 6.627353e-01 6.036524e-01 5.546595e-01 5.161531e-01 4.878571e-01 4.710121e-01 
4.095309e-01 4.162423e-01 4.353092e-01 4.666951e-01 5.090523e-01 5.618506e-01 6.249283e-01 6.973854e-01 7.811529e-01 8.736380e-01 9.793549e-01 1.089024e+00 1.208294e+00 1.311797e+00 1.423229e+00 1.533559e+00 1.756515e+00 1.916069e+00 1.731981e+00 2.167217e+00 2.296924e+00 1.892785e+00 1.485594e+00 1.250766e+00 1.100153e+00 9.987086e-01 9.171422e-01 8.473842e-01 7.869496e-01 7.352260e-01 6.963443e-01 6.707212e-01 6.627188e-01 6.707215e-01 6.963663e-01 7.352360e-01 7.869775e-01 8.474209e-01 9.171611e-01 9.987793e-01 1.100169e+00 1.250881e+00 1.485687e+00 1.893134e+00 2.297645e+00 2.168858e+00 1.735890e+00 1.919480e+00 1.757333e+00 1.533885e+00 1.423453e+00 1.311852e+00 1.208356e+00 1.089029e+00 9.793723e-01 8.736376e-01 7.811581e-01 6.973855e-01 6.249302e-01 5.618514e-01 5.090531e-01 4.666960e-01 4.353096e-01 4.162427e-01 
3.489977e-01 3.567501e-01 3.789101e-01 4.144789e-01 4.617004e-01 5.191728e-01 5.867763e-01 6.630951e-01 7.502559e-01 8.455078e-01 9.531595e-01 1.065154e+00 1.185692e+00 1.295708e+00 1.409653e+00 1.531482e+00 1.745383e+00 1.927598e+00 1.837915e+00 2.132979e+00 2.114898e+00 1.717987e+00 1.369059e+00 1.164907e+00 1.024560e+00 9.248893e-01 8.385860e-01 7.628352e-01 6.942545e-01 6.348615e-01 5.885604e-01 5.579399e-01 5.479224e-01 5.579333e-01 5.885575e-01 6.348519e-01 6.942442e-01 7.628432e-01 8.385741e-01 9.249365e-01 1.024578e+00 1.165023e+00 1.369174e+00 1.718198e+00 2.115265e+00 2.133460e+00 1.840643e+00 1.929781e+00 1.746618e+00 1.532436e+00 1.410106e+00 1.295915e+00 1.185833e+00 1.065212e+00 9.532172e-01 8.455298e-01 7.502846e-01 6.631067e-01 5.867928e-01 5.191803e-01 4.617104e-01 4.144837e-01 3.789152e-01 3.567518e-01 
2.843908e-01 2.937730e-01 3.203652e-01 3.616530e-01 4.148976e-01 4.779259e-01 5.504002e-01 6.309554e-01 7.213613e-01 8.197059e-01 9.290013e-01 1.044091e+00 1.165983e+00 1.283274e+00 1.399033e+00 1.526730e+00 1.723968e+00 1.929525e+00 1.922934e+00 2.068231e+00 1.937257e+00 1.567413e+00 1.273617e+00 1.092857e+00 9.615160e-01 8.613161e-01 7.701924e-01 6.875264e-01 6.102154e-01 5.417433e-01 4.863350e-01 4.489919e-01 4.362670e-01 4.490002e-01 4.863510e-01 5.417682e-01 6.102343e-01 6.875667e-01 7.702046e-01 8.613624e-01 9.615134e-01 1.092871e+00 1.273546e+00 1.567222e+00 1.936822e+00 2.067280e+00 1.921195e+00 1.927901e+00 1.723199e+00 1.526398e+00 1.398909e+00 1.283233e+00 1.166003e+00 1.044099e+00 9.290368e-01 8.197201e-01 7.213914e-01 6.309680e-01 5.504228e-01 4.779357e-01 4.149135e-01 3.616596e-01 3.203741e-01 2.937755e-01 
2.162834e-01 2.284134e-01 2.617820e-01 3.109065e-01 3.714673e-01 4.407226e-01 5.182155e-01 6.030424e-01 6.964763e-01 7.978738e-01 9.086499e-01 1.026916e+00 1.150288e+00 1.273951e+00 1.390664e+00 1.517777e+00 1.691970e+00 1.917810e+00 1.985485e+00 1.996399e+00 1.779424e+00 1.445483e+00 1.198872e+00 1.036074e+00 9.121289e-01 8.102625e-01 7.143995e-01 6.243842e-01 5.375919e-01 4.581160e-01 3.904238e-01 3.427805e-01 3.255783e-01 3.427760e-01 3.904083e-01 4.581108e-01 5.375676e-01 6.243892e-01 7.143741e-01 8.102842e-01 9.121140e-01 1.036120e+00 1.198885e+00 1.445591e+00 1.779485e+00 1.996605e+00 1.984795e+00 1.916483e+00 1.690974e+00 1.517111e+00 1.390427e+00 1.273802e+00 1.150247e+00 1.026866e+00 9.086440e-01 7.978472e-01 6.964773e-01 6.030255e-01 5.182180e-01 4.407112e-01 3.714701e-01 3.108992e-01 2.617841e-01 2.284106e-01 
1.456623e-01 1.630721e-01 2.072397e-01 2.665744e-01 3.351493e-01 4.105619e-01 4.925606e-01 5.811376e-01 6.770089e-01 7.809870e-01 8.928891e-01 1.013827e+00 1.138506e+00 1.266872e+00 1.384027e+00 1.507071e+00 1.657751e+00 1.900841e+00 2.030070e+00 1.933191e+00 1.652726e+00 1.353755e+00 1.143229e+00 9.935874e-01 8.752993e-01 7.715285e-01 6.718049e-01 5.751236e-01 4.795349e-01 3.883303e-01 3.054514e-01 2.418363e-01 2.165776e-01 2.418569e-01 3.054694e-01 3.883721e-01 4.795568e-01 5.751769e-01 6.718309e-01 7.715919e-01 8.753393e-01 9.936635e-01 1.143311e+00 1.353865e+00 1.652966e+00 1.933630e+00 2.031637e+00 1.903074e+00 1.659079e+00 1.507708e+00 1.384396e+00 1.267054e+00 1.138649e+00 1.013906e+00 8.929742e-01 7.810336e-01 6.770690e-01 5.811691e-01 4.926058e-01 4.105846e-01 3.351839e-01 2.665908e-01 2.072636e-01 1.630800e-01 
7.325541e-02 1.036233e-01 1.646345e-01 2.350077e-01 3.106130e-01 3.908355e-01 4.761270e-01 5.673419e-01 6.648977e-01 7.706436e-01 8.833767e-01 1.006162e+00 1.131965e+00 1.263469e+00 1.381473e+00 1.501841e+00 1.637208e+00 1.893711e+00 2.060716e+00 1.891296e+00 1.571240e+00 1.297244e+00 1.109595e+00 9.681335e-01 8.533417e-01 7.481342e-01 6.457028e-01 5.441816e-01 4.417843e-01 3.403599e-01 2.411928e-01 1.527681e-01 1.080246e-01 1.527601e-01 2.411590e-01 3.403513e-01 4.417447e-01 5.441742e-01 6.456560e-01 7.481195e-01 8.532761e-01 9.680821e-01 1.109469e+00 1.297068e+00 1.570932e+00 1.890745e+00 2.060068e+00 1.893258e+00 1.637005e+00 1.501699e+00 1.381329e+00 1.263337e+00 1.131883e+00 1.006077e+00 8.833361e-01 7.705890e-01 6.648778e-01 5.673048e-01 4.761171e-01 3.908087e-01 3.106079e-01 2.349871e-01 1.646318e-01 1.036098e-01 
1.863132e-05 7.324503e-02 1.473850e-01 2.232374e-01 3.017506e-01 3.838113e-01 4.702790e-01 5.624283e-01 6.605324e-01 7.668838e-01 8.798548e-01 1.003272e+00 1.129439e+00 1.262045e+00 1.380439e+00 1.500150e+00 1.630548e+00 1.892403e+00 2.071122e+00 1.875439e+00 1.542204e+00 1.277219e+00 1.097545e+00 9.588814e-01 8.453594e-01 7.396271e-01 6.363119e-01 5.330381e-01 4.281458e-01 3.225525e-01 2.154911e-01 1.079997e-01 1.193624e-05 1.080495e-01 2.155152e-01 3.226062e-01 4.281719e-01 5.330994e-01 6.363446e-01 7.396995e-01 8.454050e-01 9.589677e-01 1.097594e+00 1.277306e+00 1.542119e+00 1.875337e+00 2.070051e+00 1.890221e+00 1.629176e+00 1.499688e+00 1.380320e+00 1.262057e+00 1.129513e+00 1.003335e+00 8.799390e-01 7.669367e-01 6.606015e-01 5.624673e-01 4.703336e-01 3.838405e-01 3.017953e-01 2.232608e-01 1.474241e-01 7.326579e-02 
7.325541e-02 1.036233e-01 1.646345e-01 2.350077e-01 3.106130e-01 3.908355e-01 4.761270e-01 5.673419e-01 6.648977e-01 7.706436e-01 8.833767e-01 1.006162e+00 1.131965e+00 1.263469e+00 1.381473e+00 1.501841e+00 1.637208e+00 1.893711e+00 2.060716e+00 1.891296e+00 1.571240e+00 1.297244e+00 1.109595e+00 9.681335e-01 8.533417e-01 7.481342e-01 6.457028e-01 5.441816e-01 4.417843e-01 3.403599e-01 2.411928e-01 1.527681e-01 1.080246e-01 1.527601e-01 2.411590e-01 3.403513e-01 4.417447e-01 5.441742e-01 6.456560e-01 7.481195e-01 8.532761e-01 9.680821e-01 1.109469e+00 1.297068e+00 1.570932e+00 1.890745e+00 2.060068e+00 1.893258e+00 1.637005e+00 1.501699e+00 1.381329e+00 1.263337e+00 1.131883e+00 1.006077e+00 8.833361e-01 7.705890e-01 6.648778e-01 5.673048e-01 4.761171e-01 3.908087e-01 3.106079e-01 2.349871e-01 1.646318e-01 1.036098e-01 
1.456623e-01 1.630721e-01 2.072397e-01 2.665744e-01 3.351493e-01 4.105619e-01 4.925606e-01 5.811376e-01 6.770089e-01 7.809870e-01 8.928891e-01 1.013827e+00 1.138506e+00 1.266872e+00 1.384027e+00 1.507071e+00 1.657751e+00 1.900841e+00 2.030070e+00 1.933191e+00 1.652726e+00 1.353755e+00 1.143229e+00 9.935874e-01 8.752993e-01 7.715285e-01 6.718049e-01 5.751236e-01 4.795349e-01 3.883303e-01 3.054514e-01 2.418363e-01 2.165776e-01 2.418569e-01 3.054694e-01 3.883721e-01 4.795568e-01 5.751769e-01 6.718309e-01 7.715919e-01 8.753393e-01 9.936635e-01 1.143311e+00 1.353865e+00 1.652966e+00 1.933630e+00 2.031637e+00 1.903074e+00 1.659079e+00 1.507708e+00 1.384396e+00 1.267054e+00 1.138649e+00 1.013906e+00 8.929742e-01 7.810336e-01 6.770690e-01 5.811691e-01 4.926058e-01 4.105846e-01 3.351839e-01 2.665908e-01 2.072636e-01 1.630800e-01 