# vtk DataFile Version 2.0
Comment goes here
ASCII

DATASET STRUCTURED_POINTS
FIELD FieldData 1
TIME 1 1 double
1.90000000
DIMENSIONS    64   64   1

ORIGIN    0.000   0.000   0.000
SPACING   0.015625 0.015625   1.000

POINT_DATA   4096
SCALARS uMag double
LOOKUP_TABLE default

1.727051e-03 9.639314e-04 4.089499e-04 6.780130e-04 1.794296e-03 3.672152e-03 5.792110e-03 8.835393e-03 1.228585e-02 1.671716e-02 2.164769e-02 2.747613e-02 3.379572e-02 4.075982e-02 4.808169e-02 5.561140e-02 6.322476e-02 7.044582e-02 7.734106e-02 8.314678e-02 8.811966e-02 9.132461e-02 9.316989e-02 9.273312e-02 9.050541e-02 8.577257e-02 7.904266e-02 6.992665e-02 5.893895e-02 4.600726e-02 3.174525e-02 1.629404e-02 4.934443e-04 1.550154e-02 3.065113e-02 4.505574e-02 5.764705e-02 6.888394e-02 7.780735e-02 8.508321e-02 8.995091e-02 9.307898e-02 9.399342e-02 9.323971e-02 9.069403e-02 8.672708e-02 8.155220e-02 7.535539e-02 6.859712e-02 6.128702e-02 5.401320e-02 4.662799e-02 3.974639e-02 3.308847e-02 2.723600e-02 2.180127e-02 1.731168e-02 1.329086e-02 1.021752e-02 7.539799e-03 5.706840e-03 4.100802e-03 3.163662e-03 2.221164e-03 
1.676973e-03 1.053730e-03 8.780062e-04 1.330447e-03 2.355002e-03 4.178734e-03 6.301775e-03 9.353635e-03 1.281159e-02 1.725778e-02 2.218736e-02 2.802126e-02 3.433188e-02 4.128599e-02 4.859766e-02 5.610182e-02 6.371435e-02 7.090012e-02 7.781455e-02 8.358697e-02 8.860425e-02 9.179335e-02 9.370391e-02 9.328509e-02 9.113899e-02 8.648266e-02 7.988533e-02 7.098251e-02 6.033854e-02 4.804512e-02 3.498759e-02 2.244290e-02 1.589891e-02 2.226763e-02 3.450234e-02 4.765311e-02 5.960193e-02 7.047043e-02 7.915613e-02 8.628544e-02 9.103129e-02 9.407063e-02 9.490446e-02 9.406993e-02 9.146730e-02 8.741943e-02 8.220506e-02 7.593216e-02 6.914565e-02 6.176879e-02 5.447059e-02 4.702768e-02 4.011844e-02 3.340779e-02 2.751919e-02 2.203174e-02 1.749538e-02 1.341923e-02 1.029102e-02 7.558873e-03 5.674265e-03 4.029862e-03 3.069271e-03 2.132521e-03 
2.063897e-03 1.683635e-03 1.757793e-03 2.130796e-03 3.083658e-03 4.739166e-03 6.834450e-03 9.798082e-03 1.319760e-02 1.754310e-02 2.233799e-02 2.801758e-02 3.410019e-02 4.083193e-02 4.782697e-02 5.504701e-02 6.228297e-02 6.915247e-02 7.568795e-02 8.117180e-02 8.589848e-02 8.892683e-02 9.076215e-02 9.046133e-02 8.862175e-02 8.456593e-02 7.886730e-02 7.129582e-02 6.243511e-02 5.261659e-02 4.298457e-02 3.512060e-02 3.202662e-02 3.517262e-02 4.287512e-02 5.257396e-02 6.207520e-02 7.112257e-02 7.846548e-02 8.466634e-02 8.879521e-02 9.150967e-02 9.221967e-02 9.144096e-02 8.900458e-02 8.521489e-02 8.029999e-02 7.436332e-02 6.790461e-02 6.086213e-02 5.385518e-02 4.669484e-02 4.000271e-02 3.349411e-02 2.773090e-02 2.235428e-02 1.785078e-02 1.380131e-02 1.063044e-02 7.869633e-03 5.910534e-03 4.243842e-03 3.261085e-03 2.400818e-03 
2.080251e-03 1.938593e-03 2.304035e-03 2.908956e-03 4.067035e-03 5.800182e-03 8.015138e-03 1.101855e-02 1.445074e-02 1.877754e-02 2.348784e-02 2.905446e-02 3.492521e-02 4.143138e-02 4.810676e-02 5.499647e-02 6.185863e-02 6.833666e-02 7.453254e-02 7.965335e-02 8.418749e-02 8.701981e-02 8.892629e-02 8.877256e-02 8.738594e-02 8.402398e-02 7.935938e-02 7.331614e-02 6.649530e-02 5.948755e-02 5.324280e-02 4.876694e-02 4.737697e-02 4.921878e-02 5.393406e-02 6.042854e-02 6.730270e-02 7.434691e-02 8.018258e-02 8.535027e-02 8.871269e-02 9.097464e-02 9.140854e-02 9.051697e-02 8.812096e-02 8.440833e-02 7.970369e-02 7.393599e-02 6.774176e-02 6.089042e-02 5.411923e-02 4.711851e-02 4.058032e-02 3.416120e-02 2.844403e-02 2.306745e-02 1.850090e-02 1.436663e-02 1.104700e-02 8.149488e-03 6.009293e-03 4.224669e-03 3.135200e-03 2.302218e-03 
2.200056e-03 2.313922e-03 2.982889e-03 3.781485e-03 5.180962e-03 7.008939e-03 9.395676e-03 1.243943e-02 1.592258e-02 2.019274e-02 2.476172e-02 3.011772e-02 3.560652e-02 4.171030e-02 4.775654e-02 5.404846e-02 6.008658e-02 6.582040e-02 7.112648e-02 7.548630e-02 7.928486e-02 8.159034e-02 8.323407e-02 8.320020e-02 8.244663e-02 8.039039e-02 7.771945e-02 7.453334e-02 7.111487e-02 6.793734e-02 6.533626e-02 6.357939e-02 6.328820e-02 6.409425e-02 6.626042e-02 6.922400e-02 7.248824e-02 7.622992e-02 7.934818e-02 8.257945e-02 8.466153e-02 8.630176e-02 8.656704e-02 8.588507e-02 8.395812e-02 8.085617e-02 7.687101e-02 7.182773e-02 6.635017e-02 6.016244e-02 5.396198e-02 4.746426e-02 4.128480e-02 3.516178e-02 2.957851e-02 2.428879e-02 1.965705e-02 1.543598e-02 1.190722e-02 8.816375e-03 6.403293e-03 4.416283e-03 3.127179e-03 2.274741e-03 
1.703000e-03 2.165221e-03 3.228292e-03 4.329670e-03 6.095322e-03 8.183802e-03 1.089382e-02 1.414019e-02 1.783148e-02 2.218707e-02 2.676064e-02 3.201291e-02 3.723397e-02 4.298729e-02 4.847366e-02 5.414971e-02 5.939720e-02 6.430455e-02 6.876456e-02 7.226339e-02 7.545532e-02 7.719920e-02 7.881594e-02 7.895883e-02 7.898633e-02 7.816534e-02 7.717687e-02 7.632723e-02 7.565630e-02 7.577935e-02 7.635845e-02 7.700923e-02 7.770027e-02 7.763971e-02 7.762999e-02 7.758776e-02 7.790318e-02 7.914312e-02 8.021044e-02 8.197917e-02 8.289270e-02 8.389465e-02 8.380907e-02 8.309901e-02 8.145028e-02 7.870311e-02 7.531438e-02 7.078457e-02 6.594198e-02 6.024804e-02 5.454301e-02 4.840350e-02 4.249986e-02 3.654443e-02 3.100821e-02 2.569418e-02 2.091758e-02 1.652176e-02 1.271828e-02 9.367734e-03 6.611298e-03 4.336516e-03 2.678331e-03 1.636196e-03 
1.406328e-03 2.417930e-03 3.892661e-03 5.291021e-03 7.419900e-03 9.779950e-03 1.286109e-02 1.635943e-02 2.034335e-02 2.485224e-02 2.950304e-02 3.470035e-02 3.963933e-02 4.501857e-02 4.974904e-02 5.464519e-02 5.863135e-02 6.233380e-02 6.515990e-02 6.716346e-02 6.874417e-02 6.915791e-02 6.991214e-02 6.986988e-02 7.076073e-02 7.207623e-02 7.431524e-02 7.776715e-02 8.133553e-02 8.529603e-02 8.877676e-02 9.109193e-02 9.242851e-02 9.160744e-02 8.986618e-02 8.679096e-02 8.336949e-02 8.054178e-02 7.781188e-02 7.676300e-02 7.589367e-02 7.621194e-02 7.622768e-02 7.624344e-02 7.577048e-02 7.433324e-02 7.238297e-02 6.917445e-02 6.553276e-02 6.086321e-02 5.592498e-02 5.040259e-02 4.482453e-02 3.909114e-02 3.352079e-02 2.811345e-02 2.305593e-02 1.836261e-02 1.414566e-02 1.040632e-02 7.191032e-03 4.509034e-03 2.333649e-03 8.523752e-04 
1.597666e-03 2.827996e-03 4.477775e-03 6.070736e-03 8.520869e-03 1.115665e-02 1.465606e-02 1.846721e-02 2.285369e-02 2.761303e-02 3.250774e-02 3.776752e-02 4.263178e-02 4.774600e-02 5.193029e-02 5.610197e-02 5.898613e-02 6.143952e-02 6.272751e-02 6.310715e-02 6.325347e-02 6.232077e-02 6.274993e-02 6.285491e-02 6.504654e-02 6.824978e-02 7.229942e-02 7.789106e-02 8.376596e-02 9.095174e-02 9.791318e-02 1.030272e-01 1.054928e-01 1.033437e-01 9.875196e-02 9.198033e-02 8.552674e-02 8.067825e-02 7.645089e-02 7.426991e-02 7.207047e-02 7.167178e-02 7.128625e-02 7.146955e-02 7.177228e-02 7.121936e-02 7.052794e-02 6.836610e-02 6.581684e-02 6.196223e-02 5.768984e-02 5.261467e-02 4.727742e-02 4.164347e-02 3.599044e-02 3.042425e-02 2.508310e-02 2.008740e-02 1.550091e-02 1.143181e-02 7.852506e-03 4.918036e-03 2.422221e-03 9.745248e-04 
3.315730e-03 4.429449e-03 5.996500e-03 7.659658e-03 1.029214e-02 1.315779e-02 1.705885e-02 2.122860e-02 2.610363e-02 3.124274e-02 3.653699e-02 4.205489e-02 4.701493e-02 5.209014e-02 5.581084e-02 5.943608e-02 6.102981e-02 6.219664e-02 6.119760e-02 5.936287e-02 5.646154e-02 5.267689e-02 5.074624e-02 4.980571e-02 5.322474e-02 6.012404e-02 6.911075e-02 8.029105e-02 9.004607e-02 9.973117e-02 1.082882e-01 1.140252e-01 1.169313e-01 1.141964e-01 1.086747e-01 9.958997e-02 8.996262e-02 8.091609e-02 7.194725e-02 6.591435e-02 6.145078e-02 6.039810e-02 6.065229e-02 6.257536e-02 6.539263e-02 6.733310e-02 6.909513e-02 6.896382e-02 6.795663e-02 6.529058e-02 6.164765e-02 5.700808e-02 5.166030e-02 4.593385e-02 3.990192e-02 3.393861e-02 2.805911e-02 2.255256e-02 1.742627e-02 1.289966e-02 8.925315e-03 5.811162e-03 3.446070e-03 2.773788e-03 
5.902861e-03 6.714852e-03 7.952741e-03 9.444426e-03 1.205562e-02 1.499512e-02 1.921333e-02 2.366581e-02 2.903851e-02 3.453470e-02 4.032574e-02 4.612226e-02 5.137717e-02 5.647137e-02 6.003614e-02 6.319327e-02 6.387799e-02 6.381413e-02 6.087784e-02 5.678952e-02 5.110425e-02 4.440428e-02 4.124542e-02 4.077116e-02 4.750822e-02 5.777149e-02 6.701727e-02 7.747992e-02 8.701484e-02 9.931246e-02 1.130465e-01 1.240413e-01 1.292509e-01 1.237457e-01 1.126593e-01 9.723857e-02 8.461421e-02 7.596220e-02 6.862024e-02 6.347012e-02 5.739088e-02 5.479032e-02 5.377741e-02 5.583270e-02 6.033651e-02 6.412594e-02 6.814335e-02 6.972578e-02 7.014451e-02 6.843188e-02 6.534314e-02 6.099049e-02 5.563058e-02 4.976112e-02 4.342215e-02 3.709908e-02 3.081251e-02 2.491256e-02 1.944084e-02 1.468096e-02 1.063317e-02 7.753732e-03 5.899076e-03 5.589743e-03 
9.122493e-03 9.879066e-03 1.085806e-02 1.215375e-02 1.456927e-02 1.747890e-02 2.189602e-02 2.662868e-02 3.252577e-02 3.850619e-02 4.494427e-02 5.127871e-02 5.707292e-02 6.258736e-02 6.629053e-02 6.953275e-02 6.956231e-02 6.896058e-02 6.407492e-02 5.834270e-02 4.873588e-02 3.783883e-02 2.851990e-02 2.477144e-02 3.478491e-02 5.280373e-02 7.006117e-02 8.698419e-02 9.684923e-02 1.061290e-01 1.177003e-01 1.270203e-01 1.323922e-01 1.271471e-01 1.175940e-01 1.027463e-01 9.077737e-02 8.025430e-02 6.723468e-02 5.561346e-02 4.607148e-02 4.158216e-02 4.068262e-02 4.597432e-02 5.521782e-02 6.311661e-02 7.042899e-02 7.441990e-02 7.609013e-02 7.522594e-02 7.212027e-02 6.766926e-02 6.171311e-02 5.528615e-02 4.817732e-02 4.115497e-02 3.415116e-02 2.763770e-02 2.167506e-02 1.662444e-02 1.255710e-02 1.001280e-02 8.673442e-03 8.748128e-03 
1.307690e-02 1.365739e-02 1.430022e-02 1.525051e-02 1.729136e-02 1.994278e-02 2.436687e-02 2.918022e-02 3.550110e-02 4.181230e-02 4.889526e-02 5.564106e-02 6.209490e-02 6.792269e-02 7.205852e-02 7.529420e-02 7.517104e-02 7.393192e-02 6.773273e-02 6.027772e-02 4.734254e-02 3.247414e-02 1.760867e-02 1.806831e-02 3.903535e-02 6.096185e-02 7.115477e-02 7.934991e-02 8.445844e-02 9.427077e-02 1.153334e-01 1.372209e-01 1.486330e-01 1.370668e-01 1.148236e-01 8.693753e-02 7.335753e-02 6.892709e-02 6.609654e-02 6.283698e-02 5.203345e-02 4.094310e-02 3.294839e-02 3.664314e-02 4.966528e-02 6.129195e-02 7.200029e-02 7.820444e-02 8.114747e-02 8.093920e-02 7.789107e-02 7.327474e-02 6.689853e-02 5.997421e-02 5.233670e-02 4.476517e-02 3.732071e-02 3.042227e-02 2.429263e-02 1.927036e-02 1.552343e-02 1.347337e-02 1.255104e-02 1.277888e-02 
1.757418e-02 1.813401e-02 1.848378e-02 1.911112e-02 2.062386e-02 2.288621e-02 2.708582e-02 3.189125e-02 3.855129e-02 4.526095e-02 5.306339e-02 6.046033e-02 6.777183e-02 7.435325e-02 7.920285e-02 8.311825e-02 8.313755e-02 8.228473e-02 7.505028e-02 6.769927e-02 5.219975e-02 3.752906e-02 1.561647e-02 1.304551e-02 3.591040e-02 7.097374e-02 1.002865e-01 1.192568e-01 1.141749e-01 1.011954e-01 1.058994e-01 1.172620e-01 1.262116e-01 1.185500e-01 1.081178e-01 9.526644e-02 1.023030e-01 1.059123e-01 9.190837e-02 7.032965e-02 5.261560e-02 3.721513e-02 1.892985e-02 2.632091e-02 4.771067e-02 6.539362e-02 7.945148e-02 8.786174e-02 9.098333e-02 9.078098e-02 8.666891e-02 8.120817e-02 7.357937e-02 6.563249e-02 5.693473e-02 4.847488e-02 4.030847e-02 3.288554e-02 2.654138e-02 2.163866e-02 1.835677e-02 1.698144e-02 1.660627e-02 1.719584e-02 
2.260381e-02 2.303926e-02 2.307670e-02 2.330413e-02 2.421603e-02 2.589669e-02 2.964229e-02 3.415789e-02 4.094883e-02 4.779023e-02 5.619883e-02 6.397622e-02 7.215644e-02 7.918681e-02 8.498375e-02 8.921390e-02 8.996722e-02 8.893048e-02 8.149483e-02 7.311349e-02 5.566493e-02 4.192881e-02 1.915359e-02 4.016333e-02 7.334583e-02 1.025480e-01 9.967157e-02 9.846141e-02 1.102529e-01 1.143538e-01 1.249220e-01 1.423938e-01 1.566049e-01 1.458940e-01 1.320168e-01 1.122562e-01 1.010335e-01 8.542842e-02 9.035339e-02 1.037629e-01 9.510760e-02 6.178953e-02 2.409007e-02 8.660035e-03 4.085891e-02 6.631266e-02 8.486663e-02 9.553620e-02 9.912509e-02 9.870963e-02 9.383218e-02 8.751990e-02 7.904766e-02 7.023603e-02 6.090147e-02 5.179241e-02 4.330259e-02 3.565196e-02 2.946929e-02 2.495751e-02 2.229675e-02 2.149449e-02 2.149176e-02 2.224241e-02 
2.809502e-02 2.850985e-02 2.821164e-02 2.803701e-02 2.817207e-02 2.911587e-02 3.205612e-02 3.606817e-02 4.273847e-02 4.965892e-02 5.862386e-02 6.693518e-02 7.607558e-02 8.395265e-02 9.084339e-02 9.605156e-02 9.748405e-02 9.696743e-02 8.825292e-02 7.940386e-02 5.832732e-02 5.145482e-02 3.263432e-02 5.311894e-02 8.023102e-02 1.520541e-01 2.095391e-01 2.299296e-01 1.992193e-01 1.505529e-01 1.154935e-01 6.467070e-02 2.228978e-02 6.887612e-02 1.266846e-01 1.643216e-01 2.005346e-01 2.199419e-01 2.013121e-01 1.506932e-01 1.066402e-01 8.760727e-02 4.459636e-02 1.337962e-02 3.878212e-02 7.448159e-02 9.678628e-02 1.093989e-01 1.115263e-01 1.099155e-01 1.027117e-01 9.478003e-02 8.454553e-02 7.439638e-02 6.396589e-02 5.399385e-02 4.504220e-02 3.722643e-02 3.136148e-02 2.757906e-02 2.583458e-02 2.593803e-02 2.651598e-02 2.765359e-02 
3.373212e-02 3.404737e-02 3.344621e-02 3.284621e-02 3.223900e-02 3.235112e-02 3.430385e-02 3.751343e-02 4.375399e-02 5.041099e-02 5.968845e-02 6.815838e-02 7.809479e-02 8.633724e-02 9.436139e-02 9.995161e-02 1.027704e-01 1.019436e-01 9.363621e-02 8.134313e-02 5.989229e-02 6.519607e-02 6.855913e-02 1.465033e-01 2.328156e-01 2.674695e-01 1.601374e-01 4.025737e-02 5.938633e-02 8.649192e-02 8.869540e-02 6.426048e-02 3.584757e-02 5.009062e-02 7.572670e-02 6.972966e-02 4.304731e-02 3.808910e-02 1.547876e-01 2.519973e-01 2.569830e-01 1.890931e-01 9.790840e-02 5.796009e-02 3.309632e-02 7.820463e-02 1.063309e-01 1.201732e-01 1.212251e-01 1.179925e-01 1.091913e-01 9.977428e-02 8.856426e-02 7.737065e-02 6.646795e-02 5.594678e-02 4.700079e-02 3.932741e-02 3.408654e-02 3.112059e-02 3.021165e-02 3.096154e-02 3.193165e-02 3.326744e-02 
3.968898e-02 3.997035e-02 3.900735e-02 3.796327e-02 3.642452e-02 3.554135e-02 3.605715e-02 3.809363e-02 4.341916e-02 4.956089e-02 5.896627e-02 6.761728e-02 7.841108e-02 8.741723e-02 9.681384e-02 1.037163e-01 1.081313e-01 1.077188e-01 9.717063e-02 7.587390e-02 4.191934e-02 6.947203e-02 1.297605e-01 1.907105e-01 9.619289e-02 8.491466e-02 1.617862e-01 1.063124e-01 5.101860e-02 7.781748e-02 9.602986e-02 1.094237e-01 1.225954e-01 1.175706e-01 1.074243e-01 7.721883e-02 5.035346e-02 1.009590e-01 1.495861e-01 9.898145e-02 8.924596e-02 2.440528e-01 2.110995e-01 1.307221e-01 5.299126e-02 8.578537e-02 1.202979e-01 1.349319e-01 1.321136e-01 1.265140e-01 1.144963e-01 1.031815e-01 9.032296e-02 7.788123e-02 6.631809e-02 5.529692e-02 4.650753e-02 3.939900e-02 3.525813e-02 3.374404e-02 3.408754e-02 3.587945e-02 3.743383e-02 3.915568e-02 
4.523336e-02 4.543529e-02 4.419488e-02 4.273531e-02 4.039675e-02 3.854752e-02 3.757165e-02 3.821042e-02 4.223010e-02 4.752626e-02 5.673344e-02 6.529973e-02 7.666706e-02 8.609224e-02 9.646472e-02 1.041657e-01 1.103778e-01 1.109891e-01 1.030747e-01 7.332547e-02 2.214346e-02 6.232497e-02 8.212517e-02 3.881501e-02 1.116914e-01 4.497118e-03 1.770155e-01 3.257057e-01 3.152798e-01 2.468913e-01 1.599087e-01 8.720739e-02 4.561095e-02 1.124059e-01 1.951177e-01 2.714806e-01 3.515656e-01 3.512330e-01 2.250554e-01 4.007066e-02 1.263851e-01 2.787505e-02 1.533724e-01 2.057355e-01 1.335956e-01 9.234306e-02 1.299569e-01 1.413277e-01 1.359068e-01 1.287055e-01 1.158405e-01 1.035627e-01 9.049069e-02 7.732250e-02 6.583868e-02 5.466271e-02 4.642403e-02 4.011582e-02 3.715548e-02 3.691329e-02 3.823131e-02 4.073178e-02 4.270032e-02 4.464402e-02 
5.089984e-02 5.104824e-02 4.947292e-02 4.758856e-02 4.431474e-02 4.138872e-02 3.848842e-02 3.723318e-02 3.915217e-02 4.305692e-02 5.189235e-02 6.042167e-02 7.301340e-02 8.383576e-02 9.670104e-02 1.075108e-01 1.182590e-01 1.227154e-01 1.202787e-01 7.081333e-02 3.351594e-02 1.848126e-02 3.834165e-02 1.063648e-02 1.583069e-01 3.239387e-01 3.210407e-01 2.532224e-01 1.535820e-01 1.078102e-01 8.360901e-02 7.265404e-02 7.064843e-02 8.508472e-02 1.105987e-01 1.543484e-01 2.065713e-01 3.017202e-01 3.730639e-01 3.941136e-01 1.966904e-01 3.950592e-02 6.521972e-02 6.924092e-02 1.489832e-01 9.271650e-02 1.301649e-01 1.434711e-01 1.328486e-01 1.265868e-01 1.124915e-01 9.976391e-02 8.630920e-02 7.236221e-02 6.108039e-02 5.004895e-02 4.292302e-02 3.837303e-02 3.744015e-02 3.929257e-02 4.198568e-02 4.550569e-02 4.799429e-02 5.025967e-02 
5.547844e-02 5.557384e-02 5.379791e-02 5.157591e-02 4.758687e-02 4.374605e-02 3.906784e-02 3.589229e-02 3.525615e-02 3.762926e-02 4.608658e-02 5.538720e-02 6.989657e-02 8.372644e-02 9.914970e-02 1.133140e-01 1.240549e-01 1.305621e-01 1.418059e-01 4.835931e-02 4.358915e-02 1.691012e-02 6.525810e-02 1.817897e-01 2.321160e-01 1.907767e-01 1.286278e-01 9.834892e-02 3.990823e-02 3.483099e-02 7.353246e-02 9.814208e-02 1.073357e-01 1.061972e-01 9.204753e-02 7.547727e-02 6.670570e-02 1.106360e-01 1.547902e-01 2.482496e-01 3.121271e-01 2.294803e-01 4.351502e-02 4.196316e-02 3.908969e-02 4.497058e-02 9.184104e-02 1.174401e-01 1.142800e-01 1.179610e-01 1.074879e-01 9.584274e-02 8.277098e-02 6.805244e-02 5.696661e-02 4.608183e-02 3.999270e-02 3.722205e-02 3.801494e-02 4.150932e-02 4.519743e-02 4.940236e-02 5.228637e-02 5.475348e-02 
5.995578e-02 5.997695e-02 5.798339e-02 5.544644e-02 5.075655e-02 4.603199e-02 3.942917e-02 3.395567e-02 2.962681e-02 2.949143e-02 3.813941e-02 4.932996e-02 6.877672e-02 8.880251e-02 1.124030e-01 1.379997e-01 1.625376e-01 1.886398e-01 1.184621e-01 3.718632e-02 3.755663e-02 2.760745e-02 1.132376e-01 1.301361e-01 1.329941e-01 1.454116e-01 1.215696e-01 6.955092e-02 1.495229e-02 5.446728e-02 9.162465e-02 1.091902e-01 1.149907e-01 1.102859e-01 9.170513e-02 6.155706e-02 1.657260e-02 6.947426e-02 1.286638e-01 1.750979e-01 1.844301e-01 1.946991e-01 1.672036e-01 5.740706e-02 3.785468e-02 3.532747e-02 1.133915e-01 1.521015e-01 1.206101e-01 1.238168e-01 1.084788e-01 9.316891e-02 7.787175e-02 6.000807e-02 4.848765e-02 3.758075e-02 3.350178e-02 3.416943e-02 3.774162e-02 4.350229e-02 4.837303e-02 5.332103e-02 5.656789e-02 5.919856e-02 
6.264903e-02 6.265726e-02 6.062799e-02 5.793600e-02 5.285486e-02 4.754368e-02 3.945661e-02 3.205928e-02 2.355147e-02 2.095648e-02 3.153831e-02 4.803939e-02 7.465641e-02 1.048911e-01 1.382879e-01 1.759988e-01 2.037441e-01 1.601893e-01 1.940397e-02 8.340596e-02 1.685598e-02 1.051674e-02 7.132965e-02 1.230138e-01 1.388923e-01 1.265748e-01 1.056534e-01 8.570179e-02 5.943479e-02 5.699499e-02 7.829066e-02 9.513410e-02 1.018193e-01 9.437232e-02 7.338697e-02 4.571693e-02 4.080956e-02 7.001552e-02 1.028141e-01 1.356886e-01 1.570802e-01 1.423690e-01 1.039577e-01 5.015143e-02 1.972873e-02 1.133361e-01 2.851173e-02 1.518842e-01 1.562406e-01 1.583589e-01 1.303451e-01 1.048505e-01 8.212036e-02 5.829991e-02 4.352676e-02 3.102598e-02 2.764285e-02 3.140533e-02 3.703539e-02 4.440328e-02 5.009598e-02 5.550417e-02 5.904873e-02 6.178330e-02 
6.502956e-02 6.495423e-02 6.294710e-02 6.016593e-02 5.494479e-02 4.926699e-02 4.019653e-02 3.119470e-02 1.796194e-02 1.028663e-02 2.628212e-02 4.827210e-02 8.249518e-02 1.184409e-01 1.565586e-01 1.991153e-01 2.145025e-01 7.885361e-02 1.011870e-01 2.639148e-02 5.492515e-02 3.251560e-02 8.077654e-02 1.173604e-01 1.297839e-01 1.301847e-01 1.085181e-01 8.417901e-02 6.237652e-02 6.190350e-02 7.607742e-02 8.650233e-02 9.081939e-02 8.504281e-02 7.143710e-02 5.399448e-02 5.401720e-02 7.847809e-02 1.116258e-01 1.405244e-01 1.475412e-01 1.411873e-01 1.141231e-01 6.220323e-02 7.106282e-02 2.540853e-02 1.292333e-01 7.307380e-02 1.830827e-01 1.778641e-01 1.542896e-01 1.155335e-01 8.810561e-02 5.528608e-02 3.640020e-02 2.050776e-02 1.972583e-02 2.895965e-02 3.726922e-02 4.601735e-02 5.234061e-02 5.787612e-02 6.151753e-02 6.414792e-02 
6.503034e-02 6.500603e-02 6.324958e-02 6.063402e-02 5.568855e-02 5.007693e-02 4.085818e-02 3.124302e-02 1.537950e-02 6.035540e-04 2.718664e-02 5.351487e-02 9.321673e-02 1.359648e-01 1.723710e-01 2.586627e-01 2.020522e-01 9.053484e-02 1.007119e-01 1.049551e-01 9.579441e-02 6.440134e-02 8.754912e-02 1.210834e-01 1.304236e-01 1.275745e-01 1.114794e-01 9.400483e-02 7.222919e-02 5.947888e-02 5.857575e-02 6.233280e-02 6.502402e-02 6.096948e-02 5.554684e-02 5.518805e-02 7.105017e-02 9.439164e-02 1.177791e-01 1.384036e-01 1.452774e-01 1.421477e-01 1.074772e-01 7.724283e-02 5.673074e-02 1.271249e-01 9.620968e-02 1.263108e-01 1.500840e-01 2.328132e-01 1.701764e-01 1.278567e-01 9.722275e-02 5.840148e-02 3.544453e-02 1.343837e-02 1.254115e-02 2.629164e-02 3.630853e-02 4.564352e-02 5.233897e-02 5.778373e-02 6.150017e-02 6.402965e-02 
6.454489e-02 6.447383e-02 6.311877e-02 6.078709e-02 5.662563e-02 5.142273e-02 4.323584e-02 3.390095e-02 2.008101e-02 1.208666e-02 3.369995e-02 6.160327e-02 1.100094e-01 1.553094e-01 2.053182e-01 2.845539e-01 3.286028e-02 1.813613e-01 1.036609e-01 1.934766e-01 9.146176e-02 7.662241e-02 9.680532e-02 1.188340e-01 1.236898e-01 1.206118e-01 1.030030e-01 8.465068e-02 6.277592e-02 4.983601e-02 4.611702e-02 4.754133e-02 4.962861e-02 4.739266e-02 4.655106e-02 5.073744e-02 6.735440e-02 9.039385e-02 1.134509e-01 1.333764e-01 1.405538e-01 1.369706e-01 1.165074e-01 8.675327e-02 7.090670e-02 1.844575e-01 1.374399e-01 1.699428e-01 1.940961e-02 2.544464e-01 1.916734e-01 1.410278e-01 1.064372e-01 5.993338e-02 3.377547e-02 5.451180e-03 1.230591e-02 2.761146e-02 3.848653e-02 4.697766e-02 5.342736e-02 5.805667e-02 6.147527e-02 6.354755e-02 
6.130900e-02 6.140567e-02 6.072598e-02 5.906238e-02 5.619614e-02 5.196622e-02 4.577532e-02 3.755991e-02 2.810674e-02 2.211317e-02 4.411225e-02 6.788039e-02 1.306737e-01 1.562262e-01 2.579959e-01 2.378990e-01 1.472469e-01 7.247820e-02 2.652792e-01 1.347048e-01 7.206444e-02 7.125072e-02 9.753847e-02 1.157195e-01 1.176099e-01 1.130746e-01 9.726651e-02 8.126400e-02 6.019835e-02 4.408363e-02 3.158299e-02 2.674103e-02 2.716732e-02 2.847947e-02 3.593739e-02 4.879439e-02 6.794709e-02 8.957254e-02 1.091034e-01 1.267957e-01 1.343968e-01 1.346949e-01 1.181265e-01 8.781464e-02 7.203772e-02 1.114387e-01 2.796606e-01 6.889682e-02 1.852498e-01 2.058403e-01 2.562601e-01 1.451610e-01 1.263432e-01 6.615202e-02 4.074864e-02 1.213653e-02 1.714865e-02 2.822943e-02 3.900255e-02 4.591395e-02 5.187266e-02 5.550479e-02 5.856320e-02 6.021995e-02 
5.746694e-02 5.767798e-02 5.791150e-02 5.713571e-02 5.619158e-02 5.332808e-02 5.025759e-02 4.340231e-02 3.887190e-02 3.138085e-02 5.098211e-02 6.908745e-02 1.354738e-01 1.478283e-01 2.762958e-01 1.161852e-01 2.107907e-01 1.584246e-01 2.564729e-01 6.885364e-02 2.960891e-02 6.650195e-02 8.969300e-02 1.076605e-01 1.054952e-01 1.002001e-01 8.375664e-02 6.827710e-02 4.814124e-02 3.315582e-02 2.007468e-02 1.496941e-02 1.607296e-02 1.894729e-02 2.738570e-02 3.992928e-02 5.687508e-02 7.662017e-02 9.425679e-02 1.110167e-01 1.178680e-01 1.199780e-01 1.016331e-01 7.850234e-02 2.217020e-02 4.860794e-02 2.481542e-01 2.032265e-01 2.139299e-01 7.926565e-02 2.685013e-01 1.376687e-01 1.258078e-01 6.336967e-02 4.185313e-02 1.969867e-02 2.874490e-02 3.422193e-02 4.333683e-02 4.711876e-02 5.161317e-02 5.340902e-02 5.557886e-02 5.642196e-02 
5.084655e-02 5.147052e-02 5.293995e-02 5.362929e-02 5.506925e-02 5.434377e-02 5.473801e-02 5.010920e-02 4.976109e-02 4.183389e-02 5.783466e-02 7.369223e-02 1.335745e-01 1.646903e-01 2.643740e-01 6.227209e-02 1.451202e-01 2.814141e-01 2.137761e-01 3.187094e-02 2.578190e-02 7.480848e-02 9.067655e-02 1.027564e-01 9.753808e-02 9.037286e-02 7.491485e-02 6.100441e-02 4.333010e-02 2.975774e-02 1.528250e-02 5.507009e-03 4.919809e-03 1.329500e-02 2.420749e-02 3.719062e-02 5.211392e-02 6.939948e-02 8.506503e-02 1.009937e-01 1.101108e-01 1.154265e-01 1.059297e-01 8.743866e-02 4.269366e-02 2.439478e-02 1.993416e-01 3.047418e-01 1.143532e-01 9.132566e-02 2.655827e-01 1.816301e-01 1.202126e-01 7.346228e-02 4.860786e-02 3.234623e-02 3.946602e-02 3.995673e-02 4.630999e-02 4.676246e-02 4.913307e-02 4.888342e-02 4.982135e-02 4.983552e-02 
4.359646e-02 4.476978e-02 4.779726e-02 5.033719e-02 5.443993e-02 5.626695e-02 5.990739e-02 5.798163e-02 6.018380e-02 5.237908e-02 6.017064e-02 7.339098e-02 1.084618e-01 1.899871e-01 2.173532e-01 1.255691e-01 6.031351e-02 2.821444e-01 1.677452e-01 6.074175e-02 9.137649e-02 9.641119e-02 1.067773e-01 1.035483e-01 9.464878e-02 8.207800e-02 6.618054e-02 5.138158e-02 3.550609e-02 2.340370e-02 1.180618e-02 5.394165e-03 5.547740e-03 1.063161e-02 1.808073e-02 2.825815e-02 4.054534e-02 5.590014e-02 7.117701e-02 8.720827e-02 1.004591e-01 1.091447e-01 1.134668e-01 1.016716e-01 9.870601e-02 7.223834e-02 1.525442e-01 2.781008e-01 7.659631e-02 1.671582e-01 2.104096e-01 1.987136e-01 8.651368e-02 7.067347e-02 4.818535e-02 4.339628e-02 4.920731e-02 4.790480e-02 5.047043e-02 4.796633e-02 4.732680e-02 4.470397e-02 4.381212e-02 4.271582e-02 
3.398835e-02 3.615476e-02 4.117099e-02 4.627249e-02 5.306195e-02 5.815876e-02 6.437874e-02 6.664258e-02 7.009529e-02 6.665899e-02 6.554483e-02 7.206724e-02 7.151513e-02 1.840985e-01 1.817761e-01 1.529428e-01 8.132234e-02 2.366111e-01 1.519250e-01 1.154298e-01 1.356189e-01 1.237656e-01 1.246499e-01 1.090215e-01 9.603181e-02 7.811047e-02 6.213865e-02 4.657554e-02 3.313310e-02 2.247755e-02 1.416941e-02 9.799795e-03 9.213682e-03 1.182100e-02 1.684591e-02 2.478829e-02 3.500713e-02 4.872833e-02 6.419726e-02 8.141947e-02 9.954839e-02 1.140410e-01 1.294429e-01 1.294234e-01 1.373808e-01 1.173554e-01 1.331630e-01 2.469668e-01 1.289513e-01 1.737744e-01 1.559832e-01 1.857262e-01 6.931935e-02 7.781162e-02 5.703107e-02 6.046591e-02 5.929703e-02 5.743942e-02 5.442117e-02 4.964155e-02 4.490801e-02 3.974594e-02 3.604047e-02 3.346759e-02 
2.400544e-02 2.790759e-02 3.544402e-02 4.330638e-02 5.235643e-02 6.046829e-02 6.834829e-02 7.484154e-02 7.863933e-02 8.178778e-02 7.514470e-02 8.128899e-02 5.170295e-02 1.451307e-01 1.448143e-01 1.406083e-01 9.501896e-02 2.086772e-01 1.575807e-01 1.675933e-01 1.729981e-01 1.574675e-01 1.462435e-01 1.223259e-01 1.035301e-01 8.033258e-02 6.260101e-02 4.472368e-02 3.197598e-02 2.089184e-02 1.415906e-02 9.409055e-03 7.870959e-03 8.079513e-03 1.112420e-02 1.816331e-02 2.831127e-02 4.274457e-02 6.045259e-02 8.111417e-02 1.047001e-01 1.276525e-01 1.518750e-01 1.691283e-01 1.833397e-01 1.882049e-01 1.706847e-01 2.255303e-01 1.267194e-01 1.382668e-01 1.381182e-01 1.342739e-01 4.036117e-02 7.205411e-02 5.761680e-02 6.941423e-02 6.385089e-02 6.326890e-02 5.601390e-02 5.030179e-02 4.206079e-02 3.491261e-02 2.807213e-02 2.374942e-02 
1.274954e-02 1.975542e-02 3.021496e-02 4.067494e-02 5.132528e-02 6.184355e-02 7.061250e-02 8.053845e-02 8.419627e-02 9.320398e-02 8.309823e-02 9.384654e-02 4.642392e-02 9.791153e-02 1.216846e-01 9.695250e-02 5.677510e-02 1.918142e-01 1.707609e-01 2.045242e-01 1.937233e-01 1.788298e-01 1.575860e-01 1.300651e-01 1.068612e-01 8.095531e-02 6.210354e-02 4.315288e-02 3.112963e-02 2.000066e-02 1.427913e-02 9.069154e-03 7.008674e-03 5.282370e-03 6.965453e-03 1.342766e-02 2.329288e-02 3.789730e-02 5.624058e-02 7.880656e-02 1.042029e-01 1.321684e-01 1.582696e-01 1.855691e-01 1.966136e-01 2.163106e-01 1.754392e-01 2.080035e-01 6.828459e-02 8.788539e-02 1.236016e-01 8.374541e-02 2.888452e-02 8.080210e-02 6.625632e-02 8.179469e-02 7.072694e-02 7.057973e-02 5.929903e-02 5.277223e-02 4.130584e-02 3.232401e-02 2.155793e-02 1.377793e-02 
5.364295e-03 1.668149e-02 2.874364e-02 4.018079e-02 5.135804e-02 6.266232e-02 7.169940e-02 8.285261e-02 8.645496e-02 9.785417e-02 8.665611e-02 1.005279e-01 4.766977e-02 7.303825e-02 1.093918e-01 6.899658e-02 2.278852e-02 1.800424e-01 1.731908e-01 2.166479e-01 2.017864e-01 1.882708e-01 1.639479e-01 1.356161e-01 1.107631e-01 8.390855e-02 6.429812e-02 4.465110e-02 3.233267e-02 2.062706e-02 1.458568e-02 8.436845e-03 5.270998e-03 3.571415e-04 4.585770e-03 1.305585e-02 2.410572e-02 3.980153e-02 5.936602e-02 8.358674e-02 1.106799e-01 1.415823e-01 1.696423e-01 2.016916e-01 2.130452e-01 2.375596e-01 1.888050e-01 2.036323e-01 5.560578e-03 6.709388e-02 1.253151e-01 4.798558e-02 2.001228e-02 7.922883e-02 6.412504e-02 8.187699e-02 6.952038e-02 7.023344e-02 5.808004e-02 5.173871e-02 3.947837e-02 3.011241e-02 1.773929e-02 7.002057e-03 
1.274954e-02 1.975542e-02 3.021496e-02 4.067494e-02 5.132528e-02 6.184355e-02 7.061250e-02 8.053845e-02 8.419627e-02 9.320398e-02 8.309823e-02 9.384654e-02 4.642392e-02 9.791153e-02 1.216846e-01 9.695250e-02 5.677510e-02 1.918142e-01 1.707609e-01 2.045242e-01 1.937233e-01 1.788298e-01 1.575860e-01 1.300651e-01 1.068612e-01 8.095531e-02 6.210354e-02 4.315288e-02 3.112963e-02 2.000066e-02 1.427913e-02 9.069154e-03 7.008674e-03 5.282370e-03 6.965453e-03 1.342766e-02 2.329288e-02 3.789730e-02 5.624058e-02 7.880656e-02 1.042029e-01 1.321684e-01 1.582696e-01 1.855691e-01 1.966136e-01 2.163106e-01 1.754392e-01 2.080035e-01 6.828459e-02 8.788539e-02 1.236016e-01 8.374541e-02 2.888452e-02 8.080210e-02 6.625632e-02 8.179469e-02 7.072694e-02 7.057973e-02 5.929903e-02 5.277223e-02 4.130584e-02 3.232401e-02 2.155793e-02 1.377793e-02 
2.400544e-02 2.790759e-02 3.544402e-02 4.330638e-02 5.235643e-02 6.046829e-02 6.834829e-02 7.484154e-02 7.863933e-02 8.178778e-02 7.514470e-02 8.128899e-02 5.170295e-02 1.451307e-01 1.448143e-01 1.406083e-01 9.501896e-02 2.086772e-01 1.575807e-01 1.675933e-01 1.729981e-01 1.574675e-01 1.462435e-01 1.223259e-01 1.035301e-01 8.033258e-02 6.260101e-02 4.472368e-02 3.197598e-02 2.089184e-02 1.415906e-02 9.409055e-03 7.870959e-03 8.079513e-03 1.112420e-02 1.816331e-02 2.831127e-02 4.274457e-02 6.045259e-02 8.111417e-02 1.047001e-01 1.276525e-01 1.518750e-01 1.691283e-01 1.833397e-01 1.882049e-01 1.706847e-01 2.255303e-01 1.267194e-01 1.382668e-01 1.381182e-01 1.342739e-01 4.036117e-02 7.205411e-02 5.761680e-02 6.941423e-02 6.385089e-02 6.326890e-02 5.601390e-02 5.030179e-02 4.206079e-02 3.491261e-02 2.807213e-02 2.374942e-02 