# vtk DataFile Version 2.0
Comment goes here
ASCII

DATASET STRUCTURED_POINTS
FIELD FieldData 1
TIME 1 1 double
1.68000000
DIMENSIONS    64   64   1

ORIGIN    0.000   0.000   0.000
SPACING   0.015625 0.015625   1.000

POINT_DATA   4096
SCALARS uMag double
LOOKUP_TABLE default

1.705621e-03 7.976569e-04 1.653701e-04 1.160614e-03 2.437367e-03 4.690233e-03 7.104196e-03 1.069179e-02 1.460901e-02 1.977229e-02 2.536174e-02 3.210372e-02 3.926267e-02 4.727877e-02 5.556523e-02 6.419278e-02 7.278997e-02 8.100819e-02 8.875798e-02 9.527670e-02 1.008165e-01 1.042746e-01 1.062785e-01 1.055238e-01 1.029877e-01 9.735071e-02 8.982320e-02 7.929206e-02 6.700399e-02 5.228905e-02 3.626245e-02 1.886487e-02 9.865609e-04 1.687606e-02 3.416089e-02 5.010772e-02 6.454945e-02 7.680575e-02 8.698538e-02 9.471453e-02 1.001121e-01 1.032079e-01 1.039824e-01 1.028452e-01 9.967173e-02 9.511698e-02 8.904576e-02 8.218620e-02 7.445130e-02 6.649911e-02 5.830059e-02 5.035503e-02 4.268063e-02 3.557588e-02 2.910119e-02 2.334051e-02 1.840613e-02 1.416762e-02 1.080989e-02 7.994942e-03 6.003829e-03 4.302947e-03 3.288284e-03 2.249228e-03 
1.953336e-03 1.232834e-03 1.053279e-03 1.569759e-03 2.740995e-03 4.880203e-03 7.290890e-03 1.083459e-02 1.474664e-02 1.986302e-02 2.542680e-02 3.209724e-02 3.920332e-02 4.711354e-02 5.531693e-02 6.380101e-02 7.228340e-02 8.032306e-02 8.792623e-02 9.424118e-02 9.960771e-02 1.028608e-01 1.046885e-01 1.037830e-01 1.011393e-01 9.552496e-02 8.812232e-02 7.800930e-02 6.637710e-02 5.288147e-02 3.875346e-02 2.530087e-02 1.789005e-02 2.402443e-02 3.704147e-02 5.086778e-02 6.403225e-02 7.548805e-02 8.520518e-02 9.272113e-02 9.807313e-02 1.012526e-01 1.021814e-01 1.012479e-01 9.829928e-02 9.397264e-02 8.812811e-02 8.147631e-02 7.393742e-02 6.615353e-02 5.810703e-02 5.028319e-02 4.271342e-02 3.568318e-02 2.926783e-02 2.353838e-02 1.862392e-02 1.438185e-02 1.101487e-02 8.177091e-03 6.166605e-03 4.451107e-03 3.439312e-03 2.431623e-03 
2.163726e-03 1.742167e-03 1.932148e-03 2.541137e-03 3.758278e-03 5.817462e-03 8.271137e-03 1.180098e-02 1.570983e-02 2.080692e-02 2.628726e-02 3.289449e-02 3.982710e-02 4.761505e-02 5.556711e-02 6.387607e-02 7.206730e-02 7.991167e-02 8.725375e-02 9.341995e-02 9.866049e-02 1.019148e-01 1.038827e-01 1.032545e-01 1.011408e-01 9.619422e-02 8.977888e-02 8.082674e-02 7.072481e-02 5.922074e-02 4.789752e-02 3.858367e-02 3.452139e-02 3.814856e-02 4.716719e-02 5.817173e-02 6.933304e-02 7.920396e-02 8.769112e-02 9.415423e-02 9.871109e-02 1.012872e-01 1.017926e-01 1.006291e-01 9.755628e-02 9.324876e-02 8.747751e-02 8.097157e-02 7.360005e-02 6.599448e-02 5.812611e-02 5.045071e-02 4.301514e-02 3.606874e-02 2.971618e-02 2.399385e-02 1.906565e-02 1.476210e-02 1.132020e-02 8.384152e-03 6.280925e-03 4.496437e-03 3.458008e-03 2.506609e-03 
2.517583e-03 2.326283e-03 2.792287e-03 3.492486e-03 4.880957e-03 6.922919e-03 9.506152e-03 1.302205e-02 1.697670e-02 2.200690e-02 2.740051e-02 3.383357e-02 4.052301e-02 4.799866e-02 5.555387e-02 6.341000e-02 7.108321e-02 7.836808e-02 8.513856e-02 9.071875e-02 9.544334e-02 9.822424e-02 9.989594e-02 9.913151e-02 9.720363e-02 9.284225e-02 8.756136e-02 8.058398e-02 7.330818e-02 6.590454e-02 5.937042e-02 5.501096e-02 5.328744e-02 5.511317e-02 5.956929e-02 6.577514e-02 7.287122e-02 7.964961e-02 8.603408e-02 9.113826e-02 9.495340e-02 9.724651e-02 9.777089e-02 9.689259e-02 9.423017e-02 9.045328e-02 8.525031e-02 7.932307e-02 7.252011e-02 6.542124e-02 5.801986e-02 5.071069e-02 4.358639e-02 3.683684e-02 3.062500e-02 2.493383e-02 1.999146e-02 1.558600e-02 1.201736e-02 8.909363e-03 6.642608e-03 4.719840e-03 3.612891e-03 2.701545e-03 
2.495989e-03 2.564177e-03 3.369741e-03 4.321589e-03 6.032811e-03 8.255358e-03 1.110101e-02 1.475398e-02 1.884511e-02 2.392380e-02 2.925512e-02 3.558697e-02 4.196862e-02 4.914879e-02 5.614655e-02 6.350534e-02 7.042973e-02 7.707353e-02 8.305335e-02 8.801319e-02 9.217617e-02 9.466179e-02 9.639079e-02 9.606672e-02 9.521012e-02 9.234778e-02 8.923782e-02 8.472705e-02 8.016900e-02 7.551664e-02 7.138767e-02 6.891292e-02 6.794159e-02 6.934546e-02 7.228510e-02 7.630210e-02 8.093907e-02 8.504003e-02 8.904374e-02 9.193250e-02 9.408981e-02 9.521082e-02 9.500406e-02 9.389883e-02 9.125900e-02 8.783120e-02 8.309044e-02 7.774096e-02 7.154068e-02 6.500606e-02 5.813615e-02 5.123857e-02 4.446190e-02 3.791347e-02 3.183262e-02 2.613441e-02 2.112813e-02 1.655355e-02 1.278291e-02 9.421269e-03 6.896237e-03 4.740883e-03 3.457473e-03 2.523971e-03 
2.364588e-03 2.758543e-03 3.969084e-03 5.178110e-03 7.274462e-03 9.712451e-03 1.291836e-02 1.674970e-02 2.109206e-02 2.624123e-02 3.160943e-02 3.781350e-02 4.393093e-02 5.070822e-02 5.709664e-02 6.374000e-02 6.973593e-02 7.538910e-02 8.025176e-02 8.410127e-02 8.721729e-02 8.877327e-02 8.989734e-02 8.926179e-02 8.870750e-02 8.678558e-02 8.557164e-02 8.428088e-02 8.403765e-02 8.486647e-02 8.579652e-02 8.734083e-02 8.777540e-02 8.799817e-02 8.720679e-02 8.622741e-02 8.560879e-02 8.520616e-02 8.604238e-02 8.688001e-02 8.798327e-02 8.877755e-02 8.870983e-02 8.820418e-02 8.635507e-02 8.391284e-02 8.021841e-02 7.588673e-02 7.067614e-02 6.496968e-02 5.883628e-02 5.246429e-02 4.609451e-02 3.974674e-02 3.375770e-02 2.798019e-02 2.281953e-02 1.797275e-02 1.389478e-02 1.017211e-02 7.280453e-03 4.775031e-03 3.188247e-03 2.148030e-03 
1.818379e-03 2.702158e-03 4.352771e-03 5.876935e-03 8.403709e-03 1.116251e-02 1.481323e-02 1.896632e-02 2.366820e-02 2.905500e-02 3.456040e-02 4.080019e-02 4.669318e-02 5.317884e-02 5.887055e-02 6.479257e-02 6.959082e-02 7.408406e-02 7.740565e-02 7.988607e-02 8.162471e-02 8.227008e-02 8.314434e-02 8.313938e-02 8.446827e-02 8.525507e-02 8.760307e-02 8.960781e-02 9.193320e-02 9.450421e-02 9.626740e-02 9.834260e-02 9.891665e-02 9.912217e-02 9.797868e-02 9.612961e-02 9.406665e-02 9.110561e-02 8.916636e-02 8.675290e-02 8.530835e-02 8.434630e-02 8.324448e-02 8.270301e-02 8.123352e-02 7.971851e-02 7.711152e-02 7.393729e-02 6.986947e-02 6.511717e-02 5.982229e-02 5.402498e-02 4.808337e-02 4.191825e-02 3.598720e-02 3.007793e-02 2.470835e-02 1.953266e-02 1.509368e-02 1.096319e-02 7.641684e-03 4.717113e-03 2.611209e-03 1.206313e-03 
1.841281e-03 3.199380e-03 5.148516e-03 6.904539e-03 9.826130e-03 1.286768e-02 1.701432e-02 2.149661e-02 2.667981e-02 3.234322e-02 3.815928e-02 4.448416e-02 5.034245e-02 5.656159e-02 6.170073e-02 6.684821e-02 7.045932e-02 7.358733e-02 7.515151e-02 7.582256e-02 7.567083e-02 7.463344e-02 7.433582e-02 7.365494e-02 7.526358e-02 7.695680e-02 8.129143e-02 8.713706e-02 9.473538e-02 1.042329e-01 1.120575e-01 1.187617e-01 1.207880e-01 1.194614e-01 1.135754e-01 1.053074e-01 9.623398e-02 8.761934e-02 8.236041e-02 7.825102e-02 7.630320e-02 7.552692e-02 7.504991e-02 7.574337e-02 7.572998e-02 7.582450e-02 7.490111e-02 7.317530e-02 7.046911e-02 6.671570e-02 6.223145e-02 5.691064e-02 5.124665e-02 4.510306e-02 3.904792e-02 3.284234e-02 2.710463e-02 2.146968e-02 1.655920e-02 1.194557e-02 8.142364e-03 4.801816e-03 2.130064e-03 1.794037e-04 
3.035054e-03 4.343802e-03 6.219509e-03 8.060336e-03 1.123762e-02 1.453991e-02 1.916355e-02 2.404793e-02 2.976897e-02 3.586347e-02 4.210113e-02 4.873438e-02 5.469100e-02 6.089416e-02 6.555894e-02 7.010254e-02 7.239248e-02 7.404284e-02 7.327313e-02 7.152664e-02 6.846237e-02 6.506526e-02 6.347537e-02 6.369987e-02 6.884555e-02 7.569255e-02 8.557043e-02 9.462433e-02 1.026508e-01 1.112337e-01 1.175163e-01 1.234659e-01 1.252572e-01 1.242933e-01 1.191477e-01 1.117972e-01 1.032918e-01 9.323642e-02 8.566431e-02 7.700998e-02 7.130703e-02 6.813730e-02 6.637033e-02 6.776570e-02 6.906794e-02 7.114322e-02 7.228768e-02 7.235793e-02 7.126526e-02 6.864947e-02 6.504112e-02 6.019747e-02 5.478265e-02 4.860846e-02 4.238076e-02 3.582780e-02 2.969220e-02 2.357985e-02 1.820957e-02 1.316338e-02 8.978137e-03 5.485542e-03 2.839765e-03 2.225949e-03 
5.434305e-03 6.580905e-03 8.190485e-03 9.934161e-03 1.319152e-02 1.661638e-02 2.168536e-02 2.690914e-02 3.325607e-02 3.978015e-02 4.662709e-02 5.362096e-02 5.995095e-02 6.623934e-02 7.076082e-02 7.483020e-02 7.610716e-02 7.637259e-02 7.340848e-02 6.913490e-02 6.290642e-02 5.647612e-02 5.268059e-02 5.195353e-02 5.790796e-02 6.485011e-02 7.500977e-02 8.765190e-02 1.017899e-01 1.202412e-01 1.352366e-01 1.475550e-01 1.512343e-01 1.477531e-01 1.351631e-01 1.176054e-01 9.751013e-02 8.001212e-02 7.057349e-02 6.296125e-02 5.915699e-02 5.722979e-02 5.692016e-02 6.060138e-02 6.455602e-02 6.897348e-02 7.251879e-02 7.422489e-02 7.454992e-02 7.276360e-02 6.966917e-02 6.498444e-02 5.947105e-02 5.299635e-02 4.633280e-02 3.924075e-02 3.254703e-02 2.586127e-02 1.998252e-02 1.454058e-02 1.010219e-02 6.797494e-03 4.727047e-03 4.817262e-03 
8.606541e-03 9.573629e-03 1.077924e-02 1.226008e-02 1.532631e-02 1.872336e-02 2.407610e-02 2.961372e-02 3.654578e-02 4.360102e-02 5.111451e-02 5.870276e-02 6.556050e-02 7.229995e-02 7.691416e-02 8.094442e-02 8.140755e-02 8.054503e-02 7.511235e-02 6.768955e-02 5.639098e-02 4.418360e-02 3.512771e-02 3.658868e-02 5.196142e-02 7.122370e-02 9.000191e-02 1.027027e-01 1.093185e-01 1.197929e-01 1.282250e-01 1.375632e-01 1.406327e-01 1.380738e-01 1.280876e-01 1.155843e-01 1.010604e-01 8.645576e-02 7.780920e-02 6.253485e-02 5.123007e-02 4.480667e-02 4.278774e-02 4.959645e-02 5.748736e-02 6.567175e-02 7.250202e-02 7.636437e-02 7.830654e-02 7.740223e-02 7.477339e-02 7.016458e-02 6.447558e-02 5.761621e-02 5.047691e-02 4.280522e-02 3.556782e-02 2.833936e-02 2.204929e-02 1.637796e-02 1.195828e-02 9.169602e-03 7.717084e-03 8.143722e-03 
1.249478e-02 1.337389e-02 1.422924e-02 1.538534e-02 1.811045e-02 2.128562e-02 2.680603e-02 3.250624e-02 4.005794e-02 4.756349e-02 5.591136e-02 6.407640e-02 7.175131e-02 7.899319e-02 8.408397e-02 8.819107e-02 8.822201e-02 8.636051e-02 7.869118e-02 6.822377e-02 5.205017e-02 3.391131e-02 1.945165e-02 2.559146e-02 4.799845e-02 6.370942e-02 7.868230e-02 9.830429e-02 1.130731e-01 1.362467e-01 1.543179e-01 1.678521e-01 1.711791e-01 1.656367e-01 1.476456e-01 1.213729e-01 8.611670e-02 6.377149e-02 5.383990e-02 4.376081e-02 4.042283e-02 3.181302e-02 2.971489e-02 4.066893e-02 5.419186e-02 6.577670e-02 7.588445e-02 8.139862e-02 8.444462e-02 8.398928e-02 8.127410e-02 7.637727e-02 7.009093e-02 6.257822e-02 5.470946e-02 4.630920e-02 3.843213e-02 3.065306e-02 2.401735e-02 1.830347e-02 1.415901e-02 1.211204e-02 1.126593e-02 1.204946e-02 
1.701740e-02 1.781442e-02 1.827368e-02 1.903803e-02 2.117670e-02 2.392623e-02 2.930336e-02 3.502627e-02 4.301245e-02 5.098433e-02 6.010384e-02 6.904146e-02 7.760431e-02 8.575935e-02 9.158146e-02 9.639002e-02 9.645021e-02 9.428452e-02 8.483918e-02 7.171061e-02 5.040396e-02 2.668760e-02 1.323448e-02 3.835755e-02 7.720347e-02 1.190873e-01 1.429197e-01 1.456376e-01 1.242965e-01 1.176769e-01 1.166592e-01 1.201883e-01 1.202588e-01 1.164940e-01 1.064478e-01 9.727641e-02 8.560895e-02 9.466391e-02 1.063782e-01 8.717981e-02 6.184099e-02 2.959993e-02 6.005721e-03 2.346568e-02 4.725792e-02 6.489250e-02 7.929172e-02 8.704349e-02 9.120950e-02 9.111789e-02 8.817842e-02 8.281815e-02 7.585482e-02 6.757169e-02 5.896778e-02 4.980619e-02 4.135513e-02 3.310225e-02 2.629240e-02 2.076356e-02 1.712970e-02 1.587095e-02 1.553070e-02 1.660250e-02 
2.209653e-02 2.283668e-02 2.293323e-02 2.328119e-02 2.476367e-02 2.690006e-02 3.196438e-02 3.746286e-02 4.585407e-02 5.410155e-02 6.413453e-02 7.370658e-02 8.345410e-02 9.243785e-02 9.939508e-02 1.048508e-01 1.051923e-01 1.024602e-01 9.060669e-02 7.395420e-02 4.769137e-02 3.321398e-02 5.020913e-02 8.057522e-02 1.133458e-01 1.282316e-01 1.517902e-01 2.024973e-01 2.202058e-01 2.179557e-01 1.969675e-01 1.652543e-01 1.415694e-01 1.508291e-01 1.757460e-01 1.964660e-01 1.848843e-01 1.684099e-01 1.220177e-01 8.719048e-02 9.030126e-02 6.366451e-02 3.197604e-02 9.121211e-03 4.152353e-02 6.451039e-02 8.373852e-02 9.394517e-02 9.889987e-02 9.913585e-02 9.541962e-02 8.937179e-02 8.132276e-02 7.206991e-02 6.254787e-02 5.256258e-02 4.355845e-02 3.496038e-02 2.819881e-02 2.319407e-02 2.035322e-02 2.004048e-02 2.025029e-02 2.166446e-02 
2.760343e-02 2.831598e-02 2.802011e-02 2.794751e-02 2.858386e-02 2.993451e-02 3.425033e-02 3.926868e-02 4.767727e-02 5.609387e-02 6.677169e-02 7.708271e-02 8.784827e-02 9.802231e-02 1.061175e-01 1.128277e-01 1.137907e-01 1.111534e-01 9.778595e-02 7.882869e-02 5.402210e-02 6.821451e-02 1.080053e-01 1.515495e-01 2.303589e-01 3.218786e-01 3.415549e-01 3.107511e-01 2.134058e-01 1.409088e-01 8.679076e-02 3.765349e-02 1.472057e-02 3.836770e-02 7.334012e-02 1.303547e-01 1.786708e-01 2.404137e-01 2.823609e-01 2.576915e-01 1.935374e-01 1.171370e-01 8.013486e-02 3.972255e-02 3.738853e-02 6.483311e-02 8.816652e-02 1.011996e-01 1.068592e-01 1.071557e-01 1.026567e-01 9.567793e-02 8.658205e-02 7.622231e-02 6.584662e-02 5.501300e-02 4.557040e-02 3.675022e-02 3.025390e-02 2.600186e-02 2.407106e-02 2.468097e-02 2.539595e-02 2.715405e-02 
3.342190e-02 3.408174e-02 3.339700e-02 3.285950e-02 3.261823e-02 3.301731e-02 3.639162e-02 4.057964e-02 4.889402e-02 5.714204e-02 6.858115e-02 7.931486e-02 9.142615e-02 1.024714e-01 1.122316e-01 1.199463e-01 1.220938e-01 1.195748e-01 1.043251e-01 8.397078e-02 7.109034e-02 1.261049e-01 1.986706e-01 2.938226e-01 3.264663e-01 2.068266e-01 3.116837e-02 1.154059e-01 1.725502e-01 1.701934e-01 1.364978e-01 1.017882e-01 7.033066e-02 7.279831e-02 1.001089e-01 1.424414e-01 1.515774e-01 1.330512e-01 5.407477e-02 1.120473e-01 2.446448e-01 2.417064e-01 1.602546e-01 9.242624e-02 4.342755e-02 6.267475e-02 8.974935e-02 1.075156e-01 1.136400e-01 1.148093e-01 1.089140e-01 1.009728e-01 9.044173e-02 7.883721e-02 6.754130e-02 5.590640e-02 4.621977e-02 3.750437e-02 3.169504e-02 2.867138e-02 2.792042e-02 2.957778e-02 3.083618e-02 3.294755e-02 
3.932146e-02 3.999235e-02 3.890840e-02 3.796929e-02 3.671847e-02 3.609698e-02 3.802389e-02 4.103999e-02 4.860761e-02 5.643035e-02 6.808197e-02 7.923485e-02 9.210616e-02 1.042837e-01 1.149590e-01 1.239974e-01 1.266939e-01 1.239795e-01 1.080205e-01 8.404429e-02 9.075004e-02 1.806657e-01 2.293558e-01 1.539224e-01 5.494700e-02 1.706337e-01 1.145515e-01 3.147010e-02 1.543162e-01 2.001429e-01 1.709130e-01 1.232104e-01 1.024337e-01 1.438003e-01 2.124712e-01 2.441583e-01 2.358189e-01 1.221858e-01 2.373731e-02 1.444779e-01 9.189056e-02 9.454214e-02 1.937746e-01 1.719165e-01 7.606035e-02 6.768098e-02 9.061253e-02 1.119140e-01 1.191854e-01 1.207332e-01 1.142274e-01 1.052011e-01 9.359649e-02 8.064598e-02 6.855229e-02 5.609017e-02 4.627176e-02 3.783987e-02 3.294549e-02 3.136430e-02 3.182500e-02 3.452112e-02 3.630780e-02 3.881030e-02 
4.516650e-02 4.578229e-02 4.430114e-02 4.289890e-02 4.064074e-02 3.886272e-02 3.915707e-02 4.055143e-02 4.713969e-02 5.403257e-02 6.602847e-02 7.709924e-02 9.112588e-02 1.036133e-01 1.156999e-01 1.246892e-01 1.288452e-01 1.267447e-01 1.152281e-01 1.028650e-01 1.512981e-01 1.817537e-01 6.689000e-02 9.127243e-02 5.249275e-02 1.499296e-01 3.109231e-01 3.776202e-01 3.152560e-01 2.386718e-01 1.778108e-01 1.280999e-01 1.083712e-01 1.478200e-01 2.146585e-01 2.794933e-01 3.541650e-01 4.236304e-01 4.137476e-01 2.549478e-01 2.768912e-02 9.799293e-02 1.074911e-02 1.454534e-01 1.195792e-01 6.238690e-02 8.377414e-02 1.145639e-01 1.216417e-01 1.254525e-01 1.173782e-01 1.072379e-01 9.427072e-02 7.979185e-02 6.702835e-02 5.388190e-02 4.436253e-02 3.682552e-02 3.349494e-02 3.388584e-02 3.574221e-02 3.949968e-02 4.180224e-02 4.463488e-02 
5.063046e-02 5.129003e-02 4.942802e-02 4.770885e-02 4.439282e-02 4.157091e-02 3.977153e-02 3.922479e-02 4.386758e-02 4.944361e-02 6.106292e-02 7.214400e-02 8.643371e-02 9.974816e-02 1.111166e-01 1.202461e-01 1.212211e-01 1.164195e-01 1.069460e-01 1.048424e-01 1.110709e-01 2.919823e-02 5.853737e-02 3.645563e-02 2.464801e-01 2.993779e-01 2.437228e-01 1.636619e-01 7.207199e-02 4.825709e-02 6.472968e-02 8.016691e-02 8.890815e-02 9.213430e-02 9.014456e-02 8.718851e-02 1.061415e-01 1.841372e-01 2.828796e-01 3.705176e-01 3.504886e-01 1.577411e-01 4.265635e-02 3.437676e-03 1.055365e-01 5.014013e-02 7.395298e-02 1.083717e-01 1.200298e-01 1.256289e-01 1.184607e-01 1.079308e-01 9.424535e-02 7.825101e-02 6.468552e-02 5.068968e-02 4.135646e-02 3.496250e-02 3.341154e-02 3.597970e-02 3.920925e-02 4.403499e-02 4.684425e-02 5.006195e-02 
5.558168e-02 5.618971e-02 5.398055e-02 5.189017e-02 4.759140e-02 4.366324e-02 3.967761e-02 3.672557e-02 3.898013e-02 4.269266e-02 5.442229e-02 6.549786e-02 8.107223e-02 9.455046e-02 1.059764e-01 1.109335e-01 1.068423e-01 8.635144e-02 5.278546e-02 3.778761e-02 1.486982e-02 1.506732e-02 5.137365e-02 1.728121e-01 1.993784e-01 1.615423e-01 1.406493e-01 1.108683e-01 4.362027e-02 4.860840e-02 1.015870e-01 1.356689e-01 1.510993e-01 1.449683e-01 1.205274e-01 7.979074e-02 6.035901e-02 1.113806e-01 1.525869e-01 1.842855e-01 2.376873e-01 2.738910e-01 1.580487e-01 8.185061e-03 5.326842e-02 6.582725e-02 6.097451e-02 1.190939e-01 1.191961e-01 1.260192e-01 1.179750e-01 1.057656e-01 9.158354e-02 7.347235e-02 5.948950e-02 4.466179e-02 3.614148e-02 3.187800e-02 3.291759e-02 3.798470e-02 4.257490e-02 4.830544e-02 5.154171e-02 5.500048e-02 
5.964726e-02 6.032653e-02 5.782165e-02 5.559102e-02 5.037941e-02 4.570310e-02 3.933768e-02 3.399021e-02 3.253359e-02 3.395718e-02 4.576611e-02 5.786887e-02 7.519417e-02 9.152725e-02 1.035311e-01 1.139220e-01 1.112547e-01 1.127919e-01 1.001825e-01 3.017290e-02 6.312863e-02 6.772579e-02 1.046590e-01 1.432582e-01 1.587768e-01 1.418760e-01 9.497773e-02 5.592551e-02 3.744797e-02 6.197532e-02 9.461088e-02 1.118810e-01 1.208253e-01 1.133768e-01 9.426390e-02 6.167332e-02 2.615820e-02 4.808675e-02 1.005160e-01 1.511422e-01 1.745182e-01 1.675242e-01 1.822688e-01 6.658478e-02 1.825916e-02 9.009353e-02 4.972180e-02 1.224006e-01 1.062187e-01 1.242836e-01 1.173854e-01 1.067308e-01 9.129454e-02 7.074447e-02 5.487774e-02 3.814293e-02 2.939677e-02 2.762678e-02 3.150144e-02 3.918651e-02 4.505597e-02 5.166643e-02 5.529856e-02 5.904246e-02 
6.272051e-02 6.336891e-02 6.066924e-02 5.828772e-02 5.237890e-02 4.704103e-02 3.851452e-02 3.067371e-02 2.453949e-02 2.345245e-02 3.745374e-02 5.331903e-02 7.434862e-02 9.679702e-02 1.129593e-01 1.308005e-01 1.489486e-01 1.479382e-01 8.219200e-03 1.056246e-01 4.040272e-02 2.180034e-02 6.659834e-02 1.057914e-01 1.198397e-01 1.208798e-01 1.017096e-01 7.896995e-02 5.254722e-02 5.890404e-02 9.094424e-02 1.122713e-01 1.234573e-01 1.151936e-01 9.356525e-02 6.054919e-02 4.431752e-02 7.346350e-02 1.073754e-01 1.313285e-01 1.488904e-01 1.469803e-01 1.483121e-01 7.738068e-02 3.652598e-02 9.957936e-02 6.218151e-02 1.555738e-01 1.450624e-01 1.362873e-01 1.256017e-01 1.076894e-01 9.132748e-02 6.674573e-02 4.943993e-02 3.001879e-02 2.112118e-02 2.330002e-02 3.055975e-02 4.044360e-02 4.731177e-02 5.440238e-02 5.829411e-02 6.210348e-02 
6.446749e-02 6.520648e-02 6.241039e-02 6.016619e-02 5.379812e-02 4.837601e-02 3.808396e-02 2.877766e-02 1.648848e-02 1.228059e-02 3.162660e-02 5.140898e-02 7.681798e-02 1.018663e-01 1.209116e-01 1.415862e-01 1.935677e-01 1.003619e-01 1.224502e-01 2.253012e-02 8.398652e-02 5.848098e-02 8.534433e-02 1.101935e-01 1.240974e-01 1.210283e-01 1.016467e-01 8.465779e-02 7.126267e-02 6.920006e-02 7.988874e-02 8.612336e-02 9.165350e-02 8.652259e-02 7.836932e-02 6.890566e-02 7.034447e-02 8.801734e-02 1.116851e-01 1.375112e-01 1.524772e-01 1.511240e-01 1.386162e-01 8.681087e-02 8.403595e-02 4.017744e-02 1.705176e-01 2.171617e-02 1.771609e-01 1.732674e-01 1.542491e-01 1.245838e-01 1.026898e-01 7.065223e-02 4.937122e-02 2.437284e-02 1.131754e-02 1.847323e-02 2.917824e-02 4.087843e-02 4.852503e-02 5.593527e-02 5.998409e-02 6.384819e-02 
6.481454e-02 6.556949e-02 6.287911e-02 6.084420e-02 5.445610e-02 4.922809e-02 3.805913e-02 2.832840e-02 1.048667e-02 6.246938e-03 3.165711e-02 5.678774e-02 8.356975e-02 1.190157e-01 1.257598e-01 1.957273e-01 2.216296e-01 7.708713e-02 1.072729e-01 1.403807e-01 6.918799e-02 8.491500e-02 9.379510e-02 1.198766e-01 1.225968e-01 1.242709e-01 1.072585e-01 9.089522e-02 6.984505e-02 5.960774e-02 6.440985e-02 7.025088e-02 7.596304e-02 7.137190e-02 6.446714e-02 6.026970e-02 7.047620e-02 9.429022e-02 1.180997e-01 1.395691e-01 1.509715e-01 1.538269e-01 1.354147e-01 1.007539e-01 5.583136e-02 1.811563e-01 3.534448e-02 1.735320e-01 9.656890e-02 2.209732e-01 1.563560e-01 1.287027e-01 1.066250e-01 7.247375e-02 4.998819e-02 2.179337e-02 3.076683e-03 1.651604e-02 2.937153e-02 4.136696e-02 4.932399e-02 5.646933e-02 6.051196e-02 6.417312e-02 
6.355865e-02 6.441998e-02 6.199666e-02 6.046153e-02 5.450453e-02 5.006083e-02 3.911915e-02 3.063159e-02 1.392985e-02 1.540739e-02 3.818285e-02 6.488450e-02 9.556473e-02 1.366808e-01 1.394462e-01 2.546162e-01 7.996581e-02 1.976185e-01 8.852713e-02 2.004618e-01 7.282002e-02 9.280160e-02 1.036063e-01 1.214032e-01 1.233245e-01 1.202176e-01 1.034905e-01 8.807164e-02 6.873199e-02 5.561137e-02 4.997822e-02 4.714608e-02 4.935388e-02 4.776762e-02 5.019041e-02 5.747360e-02 7.240800e-02 9.395008e-02 1.151241e-01 1.347591e-01 1.467768e-01 1.456497e-01 1.328313e-01 9.016206e-02 6.119370e-02 1.549677e-01 1.948158e-01 1.427191e-01 7.995243e-02 2.366120e-01 1.874813e-01 1.387847e-01 1.203166e-01 7.803265e-02 5.543953e-02 2.479874e-02 1.077387e-02 1.794855e-02 3.068364e-02 4.163021e-02 4.935326e-02 5.581941e-02 5.960188e-02 6.294721e-02 
6.065664e-02 6.161663e-02 5.979121e-02 5.893634e-02 5.413306e-02 5.084701e-02 4.165297e-02 3.516395e-02 2.373639e-02 2.615552e-02 4.828369e-02 7.038417e-02 1.127140e-01 1.349996e-01 1.877716e-01 2.540909e-01 1.115573e-01 9.890863e-02 2.782736e-01 1.506410e-01 8.589306e-02 7.733042e-02 1.034268e-01 1.165400e-01 1.159172e-01 1.129782e-01 9.595974e-02 8.140856e-02 6.007879e-02 4.513970e-02 3.527293e-02 3.138853e-02 3.311092e-02 3.213873e-02 3.599588e-02 4.645630e-02 6.347818e-02 8.589433e-02 1.060528e-01 1.251363e-01 1.351308e-01 1.381937e-01 1.232039e-01 9.262122e-02 7.028036e-02 9.785936e-02 2.832409e-01 7.722787e-02 2.256144e-01 1.399058e-01 2.362791e-01 1.354852e-01 1.331988e-01 8.112132e-02 6.021237e-02 2.948760e-02 1.992446e-02 2.198913e-02 3.315349e-02 4.167636e-02 4.868842e-02 5.389863e-02 5.723027e-02 6.002428e-02 
5.609112e-02 5.720726e-02 5.622444e-02 5.631403e-02 5.331659e-02 5.153474e-02 4.531753e-02 4.065797e-02 3.426425e-02 3.441896e-02 5.691994e-02 7.092686e-02 1.261722e-01 1.181160e-01 2.246924e-01 1.588990e-01 2.154072e-01 1.298749e-01 2.889906e-01 7.116620e-02 5.339400e-02 6.999523e-02 8.932555e-02 1.084857e-01 1.042720e-01 1.017227e-01 8.472200e-02 7.205268e-02 5.231451e-02 3.867739e-02 2.496213e-02 1.654255e-02 1.533120e-02 1.775401e-02 2.706561e-02 4.079765e-02 5.696074e-02 7.676471e-02 9.451921e-02 1.122046e-01 1.218162e-01 1.268859e-01 1.123699e-01 9.398700e-02 3.252564e-02 4.254281e-02 2.507404e-01 2.682664e-01 1.946402e-01 5.350472e-02 2.378440e-01 1.317137e-01 1.309624e-01 8.027762e-02 6.118037e-02 3.444494e-02 2.986149e-02 2.890944e-02 3.736559e-02 4.242071e-02 4.777115e-02 5.114068e-02 5.353342e-02 5.555350e-02 
4.986693e-02 5.123935e-02 5.157690e-02 5.291333e-02 5.259714e-02 5.260405e-02 5.052084e-02 4.732902e-02 4.569151e-02 4.215488e-02 6.292827e-02 7.087128e-02 1.291551e-01 1.160802e-01 2.067086e-01 6.416963e-02 1.765536e-01 2.673800e-01 2.432018e-01 2.688016e-02 7.315507e-03 7.489069e-02 8.408247e-02 1.023160e-01 9.376095e-02 9.059216e-02 7.323471e-02 6.185833e-02 4.305066e-02 3.111221e-02 1.696926e-02 8.777726e-03 5.362808e-03 9.544814e-03 1.884098e-02 3.209524e-02 4.679840e-02 6.508795e-02 8.159456e-02 9.882150e-02 1.096341e-01 1.171861e-01 1.097686e-01 9.385050e-02 5.242311e-02 1.905636e-02 1.891644e-01 3.230174e-01 8.693592e-02 1.308582e-01 2.100397e-01 1.661114e-01 1.164870e-01 8.440187e-02 5.883193e-02 4.018804e-02 3.765283e-02 3.545841e-02 4.119743e-02 4.289973e-02 4.602611e-02 4.720627e-02 4.832168e-02 4.938025e-02 
4.214761e-02 4.387331e-02 4.589693e-02 4.877200e-02 5.163848e-02 5.359224e-02 5.574047e-02 5.392741e-02 5.561034e-02 4.901006e-02 6.275157e-02 6.713816e-02 1.098959e-01 1.346971e-01 1.700107e-01 8.191806e-02 7.843993e-02 2.758383e-01 1.982103e-01 6.052417e-02 7.889337e-02 9.316434e-02 9.630623e-02 1.008579e-01 8.917216e-02 8.128734e-02 6.414492e-02 5.267363e-02 3.620838e-02 2.642440e-02 1.418460e-02 8.052026e-03 3.195091e-03 8.927082e-03 1.644702e-02 2.750923e-02 3.966073e-02 5.531188e-02 7.097002e-02 8.769794e-02 1.023231e-01 1.126641e-01 1.186452e-01 1.082308e-01 1.026852e-01 6.450297e-02 1.450650e-01 3.028049e-01 9.685016e-02 1.789391e-01 1.608554e-01 1.819685e-01 8.349316e-02 7.907304e-02 5.070894e-02 4.538490e-02 4.425482e-02 4.323434e-02 4.544620e-02 4.446360e-02 4.434897e-02 4.303779e-02 4.211788e-02 4.190883e-02 
3.305172e-02 3.544722e-02 3.982153e-02 4.463548e-02 5.104936e-02 5.515383e-02 6.125904e-02 6.142985e-02 6.574325e-02 5.861808e-02 6.377546e-02 5.887254e-02 7.778596e-02 1.276673e-01 1.382967e-01 9.781265e-02 3.396245e-02 2.242307e-01 1.874996e-01 1.126453e-01 1.327166e-01 1.189348e-01 1.186586e-01 1.058711e-01 9.196178e-02 7.627691e-02 5.941693e-02 4.552973e-02 3.113853e-02 2.178077e-02 1.231627e-02 8.361602e-03 5.605831e-03 8.443227e-03 1.320913e-02 2.221157e-02 3.309851e-02 4.771563e-02 6.424888e-02 8.244129e-02 1.022205e-01 1.185675e-01 1.367995e-01 1.398925e-01 1.521717e-01 1.328983e-01 1.520896e-01 2.585248e-01 1.507861e-01 1.715684e-01 1.302111e-01 1.604583e-01 5.544601e-02 7.026220e-02 4.588262e-02 5.205829e-02 4.983601e-02 5.045856e-02 4.868992e-02 4.597192e-02 4.219050e-02 3.845028e-02 3.485714e-02 3.311013e-02 
2.291970e-02 2.645752e-02 3.382283e-02 4.076633e-02 5.043847e-02 5.652696e-02 6.573975e-02 6.812474e-02 7.470204e-02 6.989212e-02 7.121644e-02 6.114536e-02 5.845926e-02 1.027156e-01 1.076024e-01 9.793328e-02 2.482501e-02 1.756675e-01 1.728013e-01 1.491989e-01 1.704244e-01 1.471545e-01 1.418614e-01 1.157609e-01 9.934252e-02 7.554123e-02 5.881222e-02 4.123704e-02 2.884800e-02 1.863394e-02 1.171109e-02 7.984976e-03 6.175956e-03 7.863713e-03 1.123095e-02 1.863424e-02 2.863712e-02 4.267095e-02 6.029734e-02 8.062265e-02 1.045825e-01 1.277329e-01 1.531166e-01 1.712315e-01 1.875807e-01 1.937164e-01 1.793232e-01 2.379170e-01 1.351833e-01 1.324483e-01 1.331569e-01 1.157633e-01 2.795186e-02 5.806475e-02 4.201699e-02 5.763994e-02 5.375908e-02 5.647861e-02 5.117742e-02 4.765522e-02 4.037584e-02 3.449986e-02 2.752103e-02 2.362528e-02 
1.219900e-02 1.826450e-02 2.924776e-02 3.808335e-02 5.011354e-02 5.761590e-02 6.870930e-02 7.283170e-02 8.065713e-02 7.854122e-02 7.806846e-02 6.786373e-02 4.794676e-02 6.074842e-02 8.272797e-02 8.811031e-02 1.454598e-02 1.319388e-01 1.744408e-01 1.782048e-01 1.954980e-01 1.683208e-01 1.585140e-01 1.248022e-01 1.062828e-01 7.704248e-02 6.017642e-02 3.945179e-02 2.817330e-02 1.619120e-02 1.053959e-02 5.349171e-03 3.596891e-03 5.253883e-03 9.039566e-03 1.655575e-02 2.695144e-02 4.146734e-02 6.024205e-02 8.279913e-02 1.090873e-01 1.377358e-01 1.657422e-01 1.946863e-01 2.088712e-01 2.302743e-01 1.918684e-01 2.207750e-01 7.324551e-02 8.933977e-02 1.252779e-01 6.598292e-02 1.162897e-02 5.685984e-02 4.406405e-02 6.406152e-02 5.722820e-02 6.115526e-02 5.296052e-02 4.902465e-02 3.906899e-02 3.162548e-02 2.117129e-02 1.414823e-02 
4.112844e-03 1.429888e-02 2.742443e-02 3.708502e-02 5.001566e-02 5.809447e-02 6.993005e-02 7.486226e-02 8.340679e-02 8.287711e-02 8.274315e-02 7.489572e-02 5.135696e-02 3.842929e-02 6.206871e-02 7.884467e-02 4.987344e-03 1.069468e-01 1.664858e-01 1.831018e-01 2.003275e-01 1.740871e-01 1.631024e-01 1.275296e-01 1.084196e-01 7.745299e-02 6.060690e-02 3.876517e-02 2.795107e-02 1.527336e-02 1.017750e-02 3.901247e-03 1.453135e-03 2.981886e-03 7.287458e-03 1.488989e-02 2.536253e-02 4.005684e-02 5.921381e-02 8.262327e-02 1.097520e-01 1.404143e-01 1.693556e-01 2.021012e-01 2.155258e-01 2.415817e-01 1.953651e-01 2.088882e-01 3.145823e-04 6.309566e-02 1.236360e-01 3.225157e-02 1.035114e-03 5.550514e-02 4.377942e-02 6.529170e-02 5.773080e-02 6.226418e-02 5.325232e-02 4.932132e-02 3.848994e-02 3.052719e-02 1.844074e-02 8.713804e-03 
1.219900e-02 1.826450e-02 2.924776e-02 3.808335e-02 5.011354e-02 5.761590e-02 6.870930e-02 7.283170e-02 8.065713e-02 7.854122e-02 7.806846e-02 6.786373e-02 4.794676e-02 6.074842e-02 8.272797e-02 8.811031e-02 1.454598e-02 1.319388e-01 1.744408e-01 1.782048e-01 1.954980e-01 1.683208e-01 1.585140e-01 1.248022e-01 1.062828e-01 7.704248e-02 6.017642e-02 3.945179e-02 2.817330e-02 1.619120e-02 1.053959e-02 5.349171e-03 3.596891e-03 5.253883e-03 9.039566e-03 1.655575e-02 2.695144e-02 4.146734e-02 6.024205e-02 8.279913e-02 1.090873e-01 1.377358e-01 1.657422e-01 1.946863e-01 2.088712e-01 2.302743e-01 1.918684e-01 2.207750e-01 7.324551e-02 8.933977e-02 1.252779e-01 6.598292e-02 1.162897e-02 5.685984e-02 4.406405e-02 6.406152e-02 5.722820e-02 6.115526e-02 5.296052e-02 4.902465e-02 3.906899e-02 3.162548e-02 2.117129e-02 1.414823e-02 
2.291970e-02 2.645752e-02 3.382283e-02 4.076633e-02 5.043847e-02 5.652696e-02 6.573975e-02 6.812474e-02 7.470204e-02 6.989212e-02 7.121644e-02 6.114536e-02 5.845926e-02 1.027156e-01 1.076024e-01 9.793328e-02 2.482501e-02 1.756675e-01 1.728013e-01 1.491989e-01 1.704244e-01 1.471545e-01 1.418614e-01 1.157609e-01 9.934252e-02 7.554123e-02 5.881222e-02 4.123704e-02 2.884800e-02 1.863394e-02 1.171109e-02 7.984976e-03 6.175956e-03 7.863713e-03 1.123095e-02 1.863424e-02 2.863712e-02 4.267095e-02 6.029734e-02 8.062265e-02 1.045825e-01 1.277329e-01 1.531166e-01 1.712315e-01 1.875807e-01 1.937164e-01 1.793232e-01 2.379170e-01 1.351833e-01 1.324483e-01 1.331569e-01 1.157633e-01 2.795186e-02 5.806475e-02 4.201699e-02 5.763994e-02 5.375908e-02 5.647861e-02 5.117742e-02 4.765522e-02 4.037584e-02 3.449986e-02 2.752103e-02 2.362528e-02 