# vtk DataFile Version 2.0
Comment goes here
ASCII

DATASET STRUCTURED_POINTS
FIELD FieldData 1
TIME 1 1 double
1.81000000
DIMENSIONS    64   64   1

ORIGIN    0.000   0.000   0.000
SPACING   0.015625 0.015625   1.000

POINT_DATA   4096
SCALARS uMag double
LOOKUP_TABLE default

1.140180e-03 2.529844e-03 4.120000e-03 5.166589e-03 6.146155e-03 6.358527e-03 6.257512e-03 5.226320e-03 3.680675e-03 1.133944e-03 2.056408e-03 6.193183e-03 1.100274e-02 1.654746e-02 2.266915e-02 2.913952e-02 3.595371e-02 4.256391e-02 4.916011e-02 5.488628e-02 6.016194e-02 6.389101e-02 6.672901e-02 6.747143e-02 6.696424e-02 6.407590e-02 5.974117e-02 5.308736e-02 4.502024e-02 3.505701e-02 2.404046e-02 1.191207e-02 5.130816e-04 1.299996e-02 2.481674e-02 3.571210e-02 4.516775e-02 5.310938e-02 5.925802e-02 6.370674e-02 6.633044e-02 6.732309e-02 6.665661e-02 6.458074e-02 6.118244e-02 5.671122e-02 5.140170e-02 4.543698e-02 3.918915e-02 3.271906e-02 2.648998e-02 2.041067e-02 1.498582e-02 9.967831e-03 5.869678e-03 2.299822e-03 2.346051e-04 2.248399e-03 3.241896e-03 3.829025e-03 3.514364e-03 2.985439e-03 1.748167e-03 5.372511e-04 
1.803334e-03 2.799759e-03 4.214827e-03 5.181984e-03 6.136477e-03 6.350740e-03 6.321308e-03 5.446673e-03 4.306215e-03 3.134660e-03 4.124375e-03 7.498425e-03 1.199036e-02 1.736677e-02 2.336042e-02 2.972807e-02 3.646607e-02 4.298373e-02 4.954117e-02 5.518205e-02 6.045708e-02 6.412030e-02 6.699273e-02 6.770624e-02 6.726349e-02 6.440789e-02 6.019064e-02 5.370086e-02 4.592994e-02 3.651330e-02 2.651946e-02 1.692915e-02 1.248485e-02 1.808642e-02 2.772139e-02 3.764792e-02 4.659830e-02 5.423196e-02 6.020664e-02 6.452436e-02 6.707597e-02 6.799191e-02 6.729367e-02 6.515839e-02 6.175250e-02 5.723411e-02 5.193403e-02 4.593883e-02 3.971202e-02 3.323229e-02 2.703367e-02 2.097191e-02 1.559789e-02 1.065987e-02 6.717230e-03 3.610955e-03 2.354008e-03 3.018803e-03 3.685091e-03 4.171053e-03 3.854169e-03 3.393297e-03 2.351297e-03 1.635007e-03 
3.328981e-03 4.085728e-03 5.271454e-03 6.152580e-03 7.099945e-03 7.422210e-03 7.626010e-03 7.199553e-03 6.770748e-03 6.485107e-03 7.283944e-03 9.678251e-03 1.328973e-02 1.800934e-02 2.335707e-02 2.921309e-02 3.536200e-02 4.141299e-02 4.742593e-02 5.266575e-02 5.751247e-02 6.092353e-02 6.360751e-02 6.435180e-02 6.411680e-02 6.175706e-02 5.831955e-02 5.301679e-02 4.682050e-02 3.962516e-02 3.258903e-02 2.701462e-02 2.508433e-02 2.790503e-02 3.384195e-02 4.095210e-02 4.779041e-02 5.383322e-02 5.860823e-02 6.209858e-02 6.410715e-02 6.477607e-02 6.400752e-02 6.202384e-02 5.885203e-02 5.471236e-02 4.981265e-02 4.429575e-02 3.853626e-02 3.255659e-02 2.683301e-02 2.126553e-02 1.636585e-02 1.196531e-02 8.573303e-03 6.135382e-03 4.948147e-03 4.802632e-03 4.795451e-03 4.918851e-03 4.474454e-03 4.076141e-03 3.334568e-03 3.056526e-03 
5.101633e-03 5.605501e-03 6.497292e-03 7.194265e-03 8.084943e-03 8.476653e-03 8.951538e-03 8.983227e-03 9.238304e-03 9.673489e-03 1.084165e-02 1.304104e-02 1.610534e-02 2.019810e-02 2.482425e-02 3.001464e-02 3.544241e-02 4.082620e-02 4.619697e-02 5.083343e-02 5.522968e-02 5.822843e-02 6.078424e-02 6.147817e-02 6.155983e-02 5.970804e-02 5.719012e-02 5.322890e-02 4.887893e-02 4.424660e-02 4.019074e-02 3.755649e-02 3.691621e-02 3.857995e-02 4.194863e-02 4.633936e-02 5.089679e-02 5.516274e-02 5.864878e-02 6.120901e-02 6.261996e-02 6.293825e-02 6.205547e-02 6.010699e-02 5.715636e-02 5.329248e-02 4.881476e-02 4.370788e-02 3.845689e-02 3.294417e-02 2.773238e-02 2.263873e-02 1.820483e-02 1.425115e-02 1.120086e-02 8.965108e-03 7.576416e-03 6.959657e-03 6.485880e-03 6.332971e-03 5.819222e-03 5.527023e-03 5.018234e-03 4.914747e-03 
7.188074e-03 7.674296e-03 8.465484e-03 9.109123e-03 1.002147e-02 1.057784e-02 1.137978e-02 1.190591e-02 1.275859e-02 1.374708e-02 1.521121e-02 1.731666e-02 1.987756e-02 2.324614e-02 2.682968e-02 3.099366e-02 3.510084e-02 3.931628e-02 4.328697e-02 4.676957e-02 4.995394e-02 5.207525e-02 5.398356e-02 5.449168e-02 5.494631e-02 5.414603e-02 5.344265e-02 5.216291e-02 5.098691e-02 4.996705e-02 4.912612e-02 4.888124e-02 4.903558e-02 4.977889e-02 5.083143e-02 5.211079e-02 5.335419e-02 5.457787e-02 5.557600e-02 5.637096e-02 5.671536e-02 5.662738e-02 5.579802e-02 5.436976e-02 5.216691e-02 4.929728e-02 4.588803e-02 4.192352e-02 3.778212e-02 3.334869e-02 2.909718e-02 2.487829e-02 2.111655e-02 1.769573e-02 1.486261e-02 1.259661e-02 1.081550e-02 9.646583e-03 8.614924e-03 8.079416e-03 7.398635e-03 7.149221e-03 6.821253e-03 6.909058e-03 
9.767088e-03 1.012588e-02 1.073490e-02 1.122440e-02 1.208386e-02 1.270167e-02 1.377266e-02 1.468560e-02 1.608986e-02 1.759694e-02 1.952581e-02 2.183142e-02 2.433755e-02 2.732977e-02 3.021588e-02 3.346407e-02 3.634903e-02 3.925942e-02 4.174177e-02 4.377861e-02 4.562466e-02 4.657222e-02 4.782466e-02 4.798869e-02 4.889310e-02 4.902583e-02 4.995688e-02 5.093728e-02 5.246102e-02 5.466571e-02 5.675772e-02 5.872803e-02 5.965434e-02 5.955454e-02 5.848574e-02 5.693413e-02 5.535857e-02 5.417685e-02 5.334032e-02 5.277604e-02 5.226032e-02 5.179627e-02 5.101213e-02 4.998643e-02 4.853674e-02 4.654224e-02 4.423969e-02 4.131341e-02 3.828037e-02 3.479113e-02 3.139987e-02 2.784672e-02 2.455695e-02 2.141231e-02 1.861685e-02 1.622413e-02 1.414587e-02 1.263920e-02 1.129195e-02 1.056083e-02 9.821983e-03 9.624015e-03 9.393315e-03 9.533961e-03 
1.271038e-02 1.310183e-02 1.368001e-02 1.416035e-02 1.505195e-02 1.581989e-02 1.718086e-02 1.851676e-02 2.045630e-02 2.251394e-02 2.495143e-02 2.761170e-02 3.023706e-02 3.309718e-02 3.541612e-02 3.786253e-02 3.930862e-02 4.066379e-02 4.082903e-02 4.063370e-02 3.966007e-02 3.817959e-02 3.722277e-02 3.617200e-02 3.734156e-02 3.939525e-02 4.371109e-02 4.917435e-02 5.479849e-02 6.069365e-02 6.527824e-02 6.873654e-02 7.005675e-02 6.924318e-02 6.639665e-02 6.195294e-02 5.664929e-02 5.143217e-02 4.689449e-02 4.360495e-02 4.171118e-02 4.112456e-02 4.118344e-02 4.185663e-02 4.247436e-02 4.274142e-02 4.262592e-02 4.169477e-02 4.032414e-02 3.819616e-02 3.573763e-02 3.283293e-02 2.978534e-02 2.665992e-02 2.357847e-02 2.077330e-02 1.814231e-02 1.610561e-02 1.428921e-02 1.326434e-02 1.239954e-02 1.224105e-02 1.212585e-02 1.239972e-02 
1.634848e-02 1.664855e-02 1.709781e-02 1.744378e-02 1.826780e-02 1.903953e-02 2.059084e-02 2.220132e-02 2.461641e-02 2.713406e-02 3.013581e-02 3.319578e-02 3.618600e-02 3.911381e-02 4.130454e-02 4.323450e-02 4.377762e-02 4.381283e-02 4.207536e-02 3.962788e-02 3.578183e-02 3.132766e-02 2.759646e-02 2.480026e-02 2.661611e-02 3.085824e-02 3.764655e-02 4.564821e-02 5.364686e-02 6.273702e-02 7.049365e-02 7.650137e-02 7.865805e-02 7.642538e-02 7.052545e-02 6.227049e-02 5.362945e-02 4.613900e-02 4.012423e-02 3.556922e-02 3.274808e-02 3.208493e-02 3.291557e-02 3.517048e-02 3.794499e-02 4.028954e-02 4.232072e-02 4.307439e-02 4.316398e-02 4.205240e-02 4.030624e-02 3.779348e-02 3.487971e-02 3.169279e-02 2.839315e-02 2.529474e-02 2.233511e-02 2.001086e-02 1.797982e-02 1.684535e-02 1.596577e-02 1.584470e-02 1.578230e-02 1.607329e-02 
2.040806e-02 2.075319e-02 2.117571e-02 2.150428e-02 2.230853e-02 2.315061e-02 2.487774e-02 2.679739e-02 2.967023e-02 3.272649e-02 3.635343e-02 4.001893e-02 4.356667e-02 4.694145e-02 4.932668e-02 5.128262e-02 5.130048e-02 5.063726e-02 4.723483e-02 4.299368e-02 3.579094e-02 2.762974e-02 1.750019e-02 7.121112e-03 1.044754e-02 2.272085e-02 3.492831e-02 4.754751e-02 5.734411e-02 6.756206e-02 7.589657e-02 8.222733e-02 8.449158e-02 8.164771e-02 7.448033e-02 6.384195e-02 5.198703e-02 4.076989e-02 3.031188e-02 2.121156e-02 1.538366e-02 1.501265e-02 1.988096e-02 2.712527e-02 3.448867e-02 4.048103e-02 4.532160e-02 4.813080e-02 4.947770e-02 4.917607e-02 4.764349e-02 4.511300e-02 4.181631e-02 3.815500e-02 3.421715e-02 3.050362e-02 2.693058e-02 2.413067e-02 2.174825e-02 2.046484e-02 1.956896e-02 1.955711e-02 1.962684e-02 2.005706e-02 
2.525353e-02 2.551789e-02 2.582190e-02 2.599857e-02 2.667938e-02 2.742437e-02 2.920733e-02 3.125002e-02 3.449048e-02 3.792796e-02 4.217329e-02 4.634545e-02 5.056936e-02 5.436175e-02 5.723590e-02 5.927286e-02 5.931107e-02 5.817130e-02 5.405938e-02 4.881377e-02 4.015282e-02 3.120276e-02 1.960613e-02 1.289239e-02 1.698740e-02 2.899111e-02 3.799005e-02 4.780770e-02 5.509415e-02 6.531554e-02 7.664362e-02 8.674987e-02 9.049504e-02 8.460868e-02 7.161270e-02 5.481891e-02 4.013181e-02 3.055298e-02 2.356140e-02 1.719809e-02 9.886706e-03 5.781443e-04 1.116635e-02 2.201258e-02 3.286666e-02 4.146451e-02 4.863353e-02 5.297615e-02 5.540210e-02 5.565942e-02 5.433999e-02 5.174352e-02 4.820710e-02 4.418569e-02 3.985965e-02 3.575940e-02 3.187644e-02 2.886054e-02 2.638160e-02 2.509673e-02 2.426682e-02 2.433132e-02 2.447106e-02 2.492329e-02 
3.053323e-02 3.084048e-02 3.108553e-02 3.119373e-02 3.174498e-02 3.242044e-02 3.418147e-02 3.634054e-02 3.986344e-02 4.373018e-02 4.859186e-02 5.346641e-02 5.849824e-02 6.312174e-02 6.676960e-02 6.957793e-02 7.010065e-02 6.953701e-02 6.557027e-02 6.106468e-02 5.325997e-02 4.706634e-02 4.026793e-02 3.979306e-02 4.422792e-02 5.707284e-02 6.571940e-02 7.260485e-02 7.046699e-02 6.950262e-02 7.409198e-02 8.131352e-02 8.491403e-02 7.922683e-02 6.713437e-02 5.203039e-02 4.456390e-02 4.586073e-02 4.492979e-02 4.094865e-02 3.379927e-02 2.576021e-02 2.432090e-02 2.875488e-02 3.940668e-02 4.920047e-02 5.752403e-02 6.281403e-02 6.533598e-02 6.553311e-02 6.357485e-02 6.032905e-02 5.589817e-02 5.105689e-02 4.589537e-02 4.111593e-02 3.667864e-02 3.334752e-02 3.072553e-02 2.951859e-02 2.884822e-02 2.915124e-02 2.948975e-02 3.011970e-02 
3.654372e-02 3.677116e-02 3.688464e-02 3.679478e-02 3.712802e-02 3.756377e-02 3.917777e-02 4.123634e-02 4.491812e-02 4.899310e-02 5.441640e-02 5.979256e-02 6.569168e-02 7.094845e-02 7.559607e-02 7.894515e-02 8.042796e-02 8.018303e-02 7.717459e-02 7.351011e-02 6.764961e-02 6.540646e-02 6.166257e-02 6.565262e-02 7.143943e-02 8.132289e-02 8.297844e-02 8.707172e-02 8.449036e-02 7.571831e-02 7.531427e-02 8.456879e-02 9.060032e-02 7.862646e-02 5.811864e-02 4.459954e-02 5.220581e-02 5.834356e-02 5.921014e-02 6.258008e-02 6.013544e-02 4.854679e-02 4.140941e-02 3.854684e-02 4.548276e-02 5.544265e-02 6.489006e-02 7.101591e-02 7.388824e-02 7.400454e-02 7.168642e-02 6.789239e-02 6.290174e-02 5.745465e-02 5.182421e-02 4.664265e-02 4.199665e-02 3.859458e-02 3.605208e-02 3.500229e-02 3.452154e-02 3.498280e-02 3.544748e-02 3.612837e-02 
4.292727e-02 4.318552e-02 4.319067e-02 4.295734e-02 4.301452e-02 4.319562e-02 4.450541e-02 4.638408e-02 5.001899e-02 5.425089e-02 6.009295e-02 6.607457e-02 7.282399e-02 7.908321e-02 8.484155e-02 8.946210e-02 9.208828e-02 9.325549e-02 9.143721e-02 8.983005e-02 8.697223e-02 8.881779e-02 9.001018e-02 9.568090e-02 1.051240e-01 1.296485e-01 1.425214e-01 1.448598e-01 1.215161e-01 8.457403e-02 5.832408e-02 5.055255e-02 5.378891e-02 4.547607e-02 3.877511e-02 5.210077e-02 8.774029e-02 1.143401e-01 1.189502e-01 1.120810e-01 9.547049e-02 7.876929e-02 6.903298e-02 5.794408e-02 5.972737e-02 6.865498e-02 7.762694e-02 8.397810e-02 8.578379e-02 8.506400e-02 8.131259e-02 7.632942e-02 7.008158e-02 6.360685e-02 5.712093e-02 5.136494e-02 4.639588e-02 4.300258e-02 4.064813e-02 3.999369e-02 3.989887e-02 4.076001e-02 4.151196e-02 4.241825e-02 
4.980933e-02 4.998553e-02 4.983783e-02 4.934826e-02 4.906928e-02 4.883935e-02 4.972735e-02 5.119169e-02 5.461816e-02 5.872612e-02 6.487167e-02 7.117226e-02 7.877560e-02 8.571014e-02 9.278628e-02 9.819556e-02 1.025518e-01 1.042414e-01 1.046432e-01 1.039327e-01 1.051140e-01 1.132331e-01 1.164810e-01 1.304541e-01 1.444827e-01 1.516896e-01 1.344694e-01 1.438648e-01 1.672793e-01 1.613435e-01 1.312916e-01 8.886479e-02 6.805745e-02 7.729014e-02 1.140030e-01 1.457839e-01 1.519512e-01 1.221342e-01 1.054814e-01 1.276249e-01 1.365087e-01 1.112739e-01 9.357762e-02 7.718726e-02 7.070655e-02 7.890351e-02 8.833887e-02 9.490814e-02 9.613578e-02 9.444464e-02 8.966966e-02 8.359122e-02 7.655173e-02 6.930235e-02 6.240697e-02 5.636981e-02 5.142353e-02 4.823031e-02 4.621081e-02 4.593506e-02 4.618936e-02 4.731752e-02 4.827297e-02 4.926948e-02 
5.690725e-02 5.709277e-02 5.678798e-02 5.607698e-02 5.537150e-02 5.468834e-02 5.493235e-02 5.582432e-02 5.868770e-02 6.245295e-02 6.853914e-02 7.504301e-02 8.322219e-02 9.099915e-02 9.916690e-02 1.060247e-01 1.116709e-01 1.149445e-01 1.159167e-01 1.160790e-01 1.196256e-01 1.314877e-01 1.397334e-01 1.420007e-01 1.540872e-01 2.164520e-01 2.463071e-01 2.358664e-01 1.874874e-01 1.554670e-01 1.323036e-01 1.057469e-01 8.531025e-02 1.041905e-01 1.311677e-01 1.598339e-01 1.737286e-01 2.021294e-01 2.162382e-01 1.927501e-01 1.429838e-01 1.314453e-01 1.248246e-01 9.812668e-02 8.303530e-02 9.309746e-02 1.020106e-01 1.089716e-01 1.078704e-01 1.044442e-01 9.752235e-02 8.977922e-02 8.139767e-02 7.312968e-02 6.565190e-02 5.942030e-02 5.463000e-02 5.199226e-02 5.061690e-02 5.112155e-02 5.200369e-02 5.368540e-02 5.501114e-02 5.626601e-02 
6.407938e-02 6.418247e-02 6.371240e-02 6.269793e-02 6.154434e-02 6.028514e-02 5.978713e-02 5.987874e-02 6.196978e-02 6.505796e-02 7.086215e-02 7.719651e-02 8.580915e-02 9.396329e-02 1.031969e-01 1.106807e-01 1.180119e-01 1.207618e-01 1.235833e-01 1.191230e-01 1.286375e-01 1.479084e-01 1.593715e-01 2.152769e-01 2.707776e-01 2.709578e-01 1.435385e-01 5.311634e-02 1.063687e-01 1.228052e-01 1.234448e-01 9.933515e-02 7.604759e-02 8.871295e-02 1.117875e-01 1.133511e-01 9.622482e-02 6.536103e-02 1.110883e-01 2.116025e-01 2.415157e-01 2.038857e-01 1.441316e-01 1.259536e-01 9.570906e-02 1.047681e-01 1.146899e-01 1.207527e-01 1.177380e-01 1.120952e-01 1.036533e-01 9.441998e-02 8.537949e-02 7.645280e-02 6.891496e-02 6.280449e-02 5.845955e-02 5.647641e-02 5.576822e-02 5.692238e-02 5.832655e-02 6.038370e-02 6.199368e-02 6.337324e-02 
7.120695e-02 7.128837e-02 7.063397e-02 6.934187e-02 6.765504e-02 6.578630e-02 6.432060e-02 6.342204e-02 6.427095e-02 6.625878e-02 7.113583e-02 7.676034e-02 8.512288e-02 9.320374e-02 1.026785e-01 1.108876e-01 1.185624e-01 1.222573e-01 1.223465e-01 1.127840e-01 1.219439e-01 1.534577e-01 1.947764e-01 2.166650e-01 9.062422e-02 1.147297e-01 2.239960e-01 1.652121e-01 6.994440e-02 4.203488e-02 4.382463e-02 2.318016e-02 2.556013e-02 4.818997e-02 6.880224e-02 5.418009e-02 4.916708e-02 1.396800e-01 2.047205e-01 1.504533e-01 4.078481e-02 2.117952e-01 2.121608e-01 1.673609e-01 1.037949e-01 1.162977e-01 1.255842e-01 1.311312e-01 1.244422e-01 1.160056e-01 1.056001e-01 9.477063e-02 8.513869e-02 7.577990e-02 6.847723e-02 6.305210e-02 5.966651e-02 5.904166e-02 5.950336e-02 6.181133e-02 6.404112e-02 6.673914e-02 6.876826e-02 7.039775e-02 
7.781046e-02 7.781651e-02 7.701609e-02 7.541524e-02 7.322638e-02 7.068957e-02 6.820078e-02 6.614139e-02 6.549085e-02 6.601707e-02 6.955012e-02 7.399265e-02 8.164984e-02 8.902805e-02 9.786079e-02 1.055462e-01 1.120065e-01 1.136493e-01 1.119247e-01 8.016015e-02 1.032446e-01 1.282963e-01 8.278941e-02 8.486069e-02 1.933958e-01 1.077019e-01 1.161885e-01 2.539862e-01 2.580017e-01 2.160819e-01 1.744866e-01 1.525905e-01 1.465282e-01 1.712814e-01 2.110927e-01 2.548142e-01 3.108908e-01 3.101877e-01 2.024931e-01 7.536208e-02 1.939315e-01 1.027310e-01 1.194045e-01 2.224114e-01 1.626696e-01 1.279846e-01 1.322054e-01 1.339530e-01 1.246801e-01 1.142795e-01 1.038131e-01 9.253024e-02 8.355845e-02 7.450481e-02 6.802311e-02 6.364731e-02 6.135376e-02 6.203426e-02 6.351972e-02 6.672713e-02 6.962335e-02 7.275662e-02 7.513339e-02 7.689767e-02 
8.402451e-02 8.396980e-02 8.300531e-02 8.112143e-02 7.840222e-02 7.522262e-02 7.159869e-02 6.829008e-02 6.572194e-02 6.427737e-02 6.555427e-02 6.763165e-02 7.335335e-02 7.808087e-02 8.453552e-02 8.931418e-02 9.296011e-02 9.526422e-02 9.649697e-02 4.360403e-02 9.324765e-02 1.404379e-02 1.186198e-01 1.052616e-01 6.515269e-02 2.386084e-01 2.487512e-01 1.986288e-01 1.571840e-01 1.538500e-01 1.625222e-01 1.681680e-01 1.715154e-01 1.755874e-01 1.782954e-01 1.960578e-01 2.098577e-01 2.603725e-01 3.085663e-01 3.301776e-01 1.425227e-01 1.049469e-01 1.531398e-01 3.020246e-02 1.545779e-01 1.014893e-01 1.190720e-01 1.213547e-01 1.113448e-01 1.001687e-01 9.188694e-02 8.147485e-02 7.460448e-02 6.704322e-02 6.244168e-02 6.045062e-02 6.020880e-02 6.317530e-02 6.625743e-02 7.079860e-02 7.458785e-02 7.829959e-02 8.107939e-02 8.301444e-02 
8.900729e-02 8.889756e-02 8.786813e-02 8.574973e-02 8.261414e-02 7.884575e-02 7.413681e-02 6.956899e-02 6.485277e-02 6.116791e-02 5.942633e-02 5.850923e-02 6.141203e-02 6.296716e-02 6.554532e-02 6.777389e-02 6.266599e-02 7.273332e-02 9.782625e-02 3.583974e-02 4.316634e-02 1.088573e-01 2.029650e-02 1.051119e-01 1.496284e-01 1.125538e-01 4.436884e-02 1.161642e-02 4.906710e-02 1.047531e-01 1.571807e-01 1.897589e-01 2.033605e-01 1.959299e-01 1.684490e-01 1.298924e-01 7.721028e-02 4.995621e-02 7.709046e-02 1.699923e-01 2.348752e-01 1.851173e-01 2.804804e-02 1.291614e-01 3.407060e-02 3.915354e-02 6.737852e-02 8.172976e-02 7.899360e-02 7.528519e-02 7.374223e-02 6.722659e-02 6.423595e-02 5.933657e-02 5.701293e-02 5.772450e-02 5.933294e-02 6.424519e-02 6.859750e-02 7.408994e-02 7.859774e-02 8.267694e-02 8.582267e-02 8.785188e-02 
9.322097e-02 9.300934e-02 9.191448e-02 8.958960e-02 8.612042e-02 8.188431e-02 7.624231e-02 7.062062e-02 6.377528e-02 5.781990e-02 5.219119e-02 4.679682e-02 4.496319e-02 3.987928e-02 3.923980e-02 4.709075e-02 6.626050e-02 1.209275e-01 9.415447e-02 2.436082e-02 6.831028e-02 8.300715e-02 5.434585e-02 4.368050e-02 5.215304e-02 7.933310e-02 4.734357e-02 2.914882e-02 8.499360e-02 1.336087e-01 1.740316e-01 1.948709e-01 2.032747e-01 1.961610e-01 1.747755e-01 1.391188e-01 8.780980e-02 1.641373e-02 4.420413e-02 9.648319e-02 8.779970e-02 9.410363e-02 1.154734e-01 1.558776e-02 4.934501e-02 2.220936e-02 8.424931e-02 1.254175e-01 7.123329e-02 5.126375e-02 4.695373e-02 4.249311e-02 4.469767e-02 4.472644e-02 4.659103e-02 5.227776e-02 5.688329e-02 6.447896e-02 7.044500e-02 7.694410e-02 8.218213e-02 8.652592e-02 8.996018e-02 9.198290e-02 
9.549887e-02 9.527231e-02 9.428976e-02 9.192187e-02 8.837151e-02 8.389598e-02 7.762391e-02 7.125258e-02 6.245084e-02 5.453647e-02 4.410558e-02 3.362522e-02 2.456656e-02 1.928348e-02 4.018125e-02 8.535242e-02 1.392891e-01 1.447404e-01 2.572149e-02 2.729809e-03 9.205210e-02 6.480053e-02 6.649765e-02 9.194794e-02 8.960469e-02 8.450680e-02 8.102186e-02 8.853730e-02 1.022612e-01 1.253679e-01 1.549209e-01 1.740297e-01 1.823556e-01 1.735754e-01 1.521630e-01 1.205440e-01 9.299917e-02 7.490605e-02 7.592175e-02 8.889897e-02 1.002873e-01 9.819944e-02 7.067625e-02 3.922533e-02 8.932091e-02 2.638189e-02 2.153696e-02 1.335361e-01 1.320143e-01 8.614304e-02 5.116749e-02 2.876636e-02 2.789890e-02 3.159144e-02 3.724373e-02 4.762901e-02 5.455236e-02 6.393589e-02 7.111218e-02 7.811136e-02 8.394428e-02 8.835549e-02 9.208497e-02 9.407972e-02 
9.666400e-02 9.631125e-02 9.547367e-02 9.309167e-02 8.969480e-02 8.517465e-02 7.879838e-02 7.218033e-02 6.238262e-02 5.379338e-02 3.970604e-02 2.715833e-02 5.701581e-03 2.383990e-02 5.858505e-02 1.341963e-01 1.942894e-01 7.906540e-02 3.881684e-02 6.227613e-02 1.339390e-01 9.386122e-02 8.482414e-02 9.466367e-02 1.046057e-01 1.088837e-01 9.675561e-02 9.660981e-02 1.064373e-01 1.247282e-01 1.455010e-01 1.574705e-01 1.627603e-01 1.560175e-01 1.417632e-01 1.193644e-01 9.999155e-02 9.096301e-02 9.980063e-02 1.214275e-01 1.257758e-01 1.225763e-01 1.224936e-01 1.020953e-01 1.651914e-01 1.157762e-01 6.187944e-02 3.616767e-02 1.801370e-01 1.445466e-01 8.133984e-02 3.801206e-02 1.355643e-02 1.660917e-02 2.872857e-02 4.473340e-02 5.421431e-02 6.463627e-02 7.275032e-02 7.959494e-02 8.568700e-02 8.972099e-02 9.348799e-02 9.519106e-02 
9.532699e-02 9.503224e-02 9.460737e-02 9.252554e-02 8.973486e-02 8.562165e-02 7.988903e-02 7.367662e-02 6.422680e-02 5.624019e-02 4.172235e-02 3.362209e-02 2.470350e-02 5.902203e-02 9.361663e-02 2.323350e-01 1.842817e-01 5.958970e-02 1.891394e-02 1.987091e-01 1.874135e-01 1.278516e-01 1.191194e-01 1.232902e-01 1.226173e-01 1.210226e-01 1.130281e-01 1.093547e-01 1.065167e-01 1.105849e-01 1.196671e-01 1.261256e-01 1.293635e-01 1.239939e-01 1.152581e-01 1.044287e-01 1.014702e-01 1.071635e-01 1.177025e-01 1.323382e-01 1.377569e-01 1.411784e-01 1.251208e-01 1.099486e-01 1.431913e-01 2.303571e-01 5.989825e-02 1.057050e-01 1.049125e-01 2.165142e-01 1.168081e-01 5.950534e-02 2.834211e-02 1.249147e-02 2.614578e-02 4.257877e-02 5.384428e-02 6.369458e-02 7.251814e-02 7.863742e-02 8.490733e-02 8.839695e-02 9.221965e-02 9.367017e-02 
9.263834e-02 9.225932e-02 9.233087e-02 9.060364e-02 8.881567e-02 8.530757e-02 8.106704e-02 7.554767e-02 6.810576e-02 6.123584e-02 4.994705e-02 4.781885e-02 5.064017e-02 9.094677e-02 1.472813e-01 2.844699e-01 4.354627e-02 8.426769e-02 2.259896e-01 2.509216e-01 1.752300e-01 1.303532e-01 1.262035e-01 1.239585e-01 1.231630e-01 1.187122e-01 1.072414e-01 9.981009e-02 9.410039e-02 9.532898e-02 1.004435e-01 1.038747e-01 1.058694e-01 1.018711e-01 9.672568e-02 9.054136e-02 9.111459e-02 1.000146e-01 1.136034e-01 1.301276e-01 1.383510e-01 1.393005e-01 1.340865e-01 1.275979e-01 1.556786e-01 2.491431e-01 2.881536e-01 3.752584e-02 6.528912e-02 2.483667e-01 1.789009e-01 8.479445e-02 5.736781e-02 2.905442e-02 3.808984e-02 4.770087e-02 5.941855e-02 6.623557e-02 7.477583e-02 7.886697e-02 8.457048e-02 8.676939e-02 9.018497e-02 9.098617e-02 
8.714387e-02 8.696462e-02 8.787519e-02 8.700096e-02 8.683546e-02 8.461580e-02 8.287370e-02 7.873855e-02 7.507613e-02 6.915817e-02 6.500952e-02 6.141138e-02 8.276047e-02 9.880430e-02 2.203027e-01 2.475426e-01 1.208227e-01 8.710313e-02 3.418473e-01 1.955339e-01 1.545980e-01 1.215238e-01 1.218715e-01 1.226212e-01 1.187056e-01 1.136319e-01 1.022179e-01 9.341381e-02 8.314821e-02 7.822559e-02 7.637570e-02 7.591212e-02 7.616598e-02 7.372901e-02 7.284821e-02 7.390385e-02 8.121291e-02 9.404880e-02 1.077269e-01 1.224600e-01 1.300367e-01 1.332602e-01 1.255676e-01 1.150600e-01 1.361787e-01 1.757582e-01 3.525426e-01 1.795880e-01 1.674862e-01 1.423755e-01 2.550030e-01 9.667033e-02 8.686237e-02 3.744164e-02 5.028092e-02 5.052083e-02 6.376426e-02 6.662974e-02 7.483634e-02 7.655432e-02 8.146804e-02 8.226270e-02 8.516500e-02 8.539489e-02 
8.021390e-02 8.016264e-02 8.207827e-02 8.225718e-02 8.419415e-02 8.354385e-02 8.506954e-02 8.219261e-02 8.356185e-02 7.656667e-02 8.179741e-02 6.951630e-02 1.107672e-01 1.015595e-01 2.714832e-01 1.177821e-01 1.444314e-01 2.441656e-01 3.069103e-01 1.460223e-01 1.123861e-01 9.778182e-02 9.977286e-02 1.051658e-01 1.011515e-01 9.647564e-02 8.483833e-02 7.594758e-02 6.569629e-02 6.074491e-02 5.819714e-02 5.721196e-02 5.716899e-02 5.524878e-02 5.519624e-02 5.699306e-02 6.421519e-02 7.631301e-02 8.940285e-02 1.027979e-01 1.097863e-01 1.118813e-01 1.008840e-01 9.262567e-02 8.768829e-02 1.337713e-01 2.800867e-01 3.569918e-01 8.905129e-02 2.623311e-02 2.718871e-01 1.079780e-01 9.952097e-02 4.807353e-02 6.769703e-02 6.024488e-02 7.354423e-02 7.127379e-02 7.763492e-02 7.595583e-02 7.897543e-02 7.761807e-02 7.934908e-02 7.859031e-02 
7.052891e-02 7.097515e-02 7.427589e-02 7.622298e-02 8.078250e-02 8.262943e-02 8.771032e-02 8.719025e-02 9.297482e-02 8.633070e-02 9.689054e-02 8.003589e-02 1.247198e-01 1.241923e-01 2.801268e-01 3.837811e-02 6.199140e-02 3.617193e-01 2.405842e-01 1.133355e-01 6.126593e-02 7.181557e-02 7.459385e-02 8.628125e-02 8.255622e-02 8.006816e-02 6.991622e-02 6.260067e-02 5.220523e-02 4.607883e-02 4.050281e-02 3.763867e-02 3.645037e-02 3.564785e-02 3.805728e-02 4.300257e-02 5.193797e-02 6.360581e-02 7.551334e-02 8.691152e-02 9.409369e-02 9.576588e-02 8.668280e-02 7.154797e-02 3.806076e-02 9.867376e-02 1.852555e-01 4.013378e-01 5.577712e-02 1.129758e-01 2.704923e-01 1.626233e-01 1.081498e-01 6.856204e-02 8.195227e-02 7.130711e-02 8.146273e-02 7.573906e-02 7.878967e-02 7.414622e-02 7.433807e-02 7.078733e-02 7.081169e-02 6.907653e-02 
5.952860e-02 6.067549e-02 6.570563e-02 6.996409e-02 7.737601e-02 8.231015e-02 9.053535e-02 9.323261e-02 1.016554e-01 9.745379e-02 1.075908e-01 9.176232e-02 1.190154e-01 1.536747e-01 2.386691e-01 9.810934e-02 7.273034e-02 3.400869e-01 1.399359e-01 6.328352e-02 7.009688e-03 4.322398e-02 5.740165e-02 6.527301e-02 6.283075e-02 5.938438e-02 5.062554e-02 4.456116e-02 3.619578e-02 3.198553e-02 2.772874e-02 2.576656e-02 2.468443e-02 2.366662e-02 2.507766e-02 2.822658e-02 3.505277e-02 4.403492e-02 5.465726e-02 6.392998e-02 7.292213e-02 7.317898e-02 7.263052e-02 4.778191e-02 3.254141e-02 5.781364e-02 1.076770e-01 3.326390e-01 1.670331e-01 1.669195e-01 1.903779e-01 1.857232e-01 9.493520e-02 8.733901e-02 9.150309e-02 8.536117e-02 8.913941e-02 8.235029e-02 8.053407e-02 7.350725e-02 6.985050e-02 6.388966e-02 6.144177e-02 5.842703e-02 
4.623827e-02 4.857377e-02 5.581566e-02 6.318905e-02 7.344964e-02 8.215999e-02 9.270241e-02 9.997499e-02 1.091405e-01 1.114395e-01 1.171489e-01 1.109153e-01 1.092715e-01 1.663001e-01 1.723502e-01 1.328970e-01 1.394458e-01 2.622569e-01 8.580364e-02 5.491268e-02 4.738301e-02 4.406169e-02 5.596757e-02 5.211118e-02 4.880553e-02 4.277750e-02 3.576771e-02 3.129907e-02 2.508594e-02 2.215055e-02 1.749034e-02 1.502537e-02 1.322236e-02 1.302789e-02 1.586110e-02 1.950433e-02 2.563861e-02 3.261336e-02 4.234023e-02 5.139010e-02 6.358806e-02 6.915034e-02 7.849895e-02 6.930686e-02 6.903758e-02 6.661463e-02 7.102009e-02 2.651201e-01 2.251899e-01 1.454447e-01 1.184872e-01 1.890525e-01 9.785885e-02 1.169914e-01 1.032713e-01 1.042058e-01 9.704114e-02 9.103357e-02 8.239456e-02 7.387614e-02 6.513063e-02 5.675135e-02 5.059698e-02 4.588694e-02 
3.210539e-02 3.667747e-02 4.698889e-02 5.801558e-02 7.081757e-02 8.328682e-02 9.530774e-02 1.075707e-01 1.164619e-01 1.277889e-01 1.286673e-01 1.405059e-01 1.169807e-01 1.763328e-01 1.135766e-01 1.176431e-01 1.627457e-01 1.845942e-01 6.064257e-02 8.143412e-02 8.043395e-02 7.405748e-02 6.990318e-02 5.547576e-02 4.511948e-02 3.234746e-02 2.359402e-02 1.796005e-02 1.399741e-02 1.342229e-02 1.082510e-02 9.548382e-03 7.747741e-03 6.971588e-03 8.145796e-03 9.236502e-03 1.322592e-02 1.949203e-02 3.037304e-02 4.357520e-02 6.040298e-02 7.713077e-02 9.386559e-02 1.079049e-01 1.117088e-01 1.259982e-01 9.326288e-02 1.992459e-01 1.820470e-01 1.065376e-01 6.968700e-02 1.572972e-01 8.927362e-02 1.279922e-01 1.075788e-01 1.154613e-01 1.006191e-01 9.633786e-02 8.228748e-02 7.326367e-02 6.007095e-02 4.973016e-02 3.939080e-02 3.253472e-02 
1.668908e-02 2.516021e-02 3.913848e-02 5.348412e-02 6.802254e-02 8.324049e-02 9.588538e-02 1.117508e-01 1.198847e-01 1.378950e-01 1.349745e-01 1.594437e-01 1.223745e-01 1.697368e-01 5.597057e-02 8.046697e-02 1.353471e-01 1.246251e-01 7.103035e-02 1.155366e-01 1.024333e-01 9.757043e-02 8.073956e-02 6.218821e-02 4.528707e-02 2.803709e-02 1.658750e-02 8.737249e-03 7.118890e-03 8.856467e-03 6.985580e-03 5.588234e-03 2.827547e-03 3.259985e-03 5.679048e-03 5.681652e-03 7.104006e-03 1.269975e-02 2.351236e-02 4.010269e-02 5.797897e-02 8.200209e-02 9.948028e-02 1.259060e-01 1.259148e-01 1.504649e-01 9.676437e-02 1.466585e-01 1.240215e-01 7.657843e-02 3.871869e-02 1.361597e-01 9.645433e-02 1.441935e-01 1.177670e-01 1.284951e-01 1.067448e-01 1.032048e-01 8.444157e-02 7.497234e-02 5.788995e-02 4.582853e-02 3.056871e-02 1.967576e-02 
5.435223e-03 2.064164e-02 3.693728e-02 5.274185e-02 6.796211e-02 8.427309e-02 9.722041e-02 1.146309e-01 1.226903e-01 1.436901e-01 1.398516e-01 1.697945e-01 1.290423e-01 1.698686e-01 1.651215e-03 5.819922e-02 1.292295e-01 8.175677e-02 6.711645e-02 1.215001e-01 1.068581e-01 1.045104e-01 8.462715e-02 6.592678e-02 4.692801e-02 2.855940e-02 1.538840e-02 3.555111e-03 2.069658e-03 6.393138e-03 5.646284e-03 4.709482e-03 1.033968e-03 9.018342e-04 2.883039e-03 9.706176e-04 2.996108e-03 1.266577e-02 2.485509e-02 4.407775e-02 6.321159e-02 9.091667e-02 1.097664e-01 1.414926e-01 1.414594e-01 1.695032e-01 1.075676e-01 1.237551e-01 8.809835e-02 5.291951e-02 2.265995e-02 1.251928e-01 9.732422e-02 1.468472e-01 1.179116e-01 1.296300e-01 1.059408e-01 1.029786e-01 8.302553e-02 7.369837e-02 5.553552e-02 4.302681e-02 2.566488e-02 1.143559e-02 
1.668908e-02 2.516021e-02 3.913848e-02 5.348412e-02 6.802254e-02 8.324049e-02 9.588538e-02 1.117508e-01 1.198847e-01 1.378950e-01 1.349745e-01 1.594437e-01 1.223745e-01 1.697368e-01 5.597057e-02 8.046697e-02 1.353471e-01 1.246251e-01 7.103035e-02 1.155366e-01 1.024333e-01 9.757043e-02 8.073956e-02 6.218821e-02 4.528707e-02 2.803709e-02 1.658750e-02 8.737249e-03 7.118890e-03 8.856467e-03 6.985580e-03 5.588234e-03 2.827547e-03 3.259985e-03 5.679048e-03 5.681652e-03 7.104006e-03 1.269975e-02 2.351236e-02 4.010269e-02 5.797897e-02 8.200209e-02 9.948028e-02 1.259060e-01 1.259148e-01 1.504649e-01 9.676437e-02 1.466585e-01 1.240215e-01 7.657843e-02 3.871869e-02 1.361597e-01 9.645433e-02 1.441935e-01 1.177670e-01 1.284951e-01 1.067448e-01 1.032048e-01 8.444157e-02 7.497234e-02 5.788995e-02 4.582853e-02 3.056871e-02 1.967576e-02 
3.210539e-02 3.667747e-02 4.698889e-02 5.801558e-02 7.081757e-02 8.328682e-02 9.530774e-02 1.075707e-01 1.164619e-01 1.277889e-01 1.286673e-01 1.405059e-01 1.169807e-01 1.763328e-01 1.135766e-01 1.176431e-01 1.627457e-01 1.845942e-01 6.064257e-02 8.143412e-02 8.043395e-02 7.405748e-02 6.990318e-02 5.547576e-02 4.511948e-02 3.234746e-02 2.359402e-02 1.796005e-02 1.399741e-02 1.342229e-02 1.082510e-02 9.548382e-03 7.747741e-03 6.971588e-03 8.145796e-03 9.236502e-03 1.322592e-02 1.949203e-02 3.037304e-02 4.357520e-02 6.040298e-02 7.713077e-02 9.386559e-02 1.079049e-01 1.117088e-01 1.259982e-01 9.326288e-02 1.992459e-01 1.820470e-01 1.065376e-01 6.968700e-02 1.572972e-01 8.927362e-02 1.279922e-01 1.075788e-01 1.154613e-01 1.006191e-01 9.633786e-02 8.228748e-02 7.326367e-02 6.007095e-02 4.973016e-02 3.939080e-02 3.253472e-02 