# vtk DataFile Version 2.0
Comment goes here
ASCII

DATASET STRUCTURED_POINTS
FIELD FieldData 1
TIME 1 1 double
0.36000000
DIMENSIONS    64   64   1

ORIGIN    0.000   0.000   0.000
SPACING   0.015625 0.015625   1.000

POINT_DATA   4096
SCALARS uMag double
LOOKUP_TABLE default

1.325370e-04 3.350556e-02 6.691649e-02 1.002793e-01 1.336998e-01 1.669864e-01 2.002469e-01 2.331779e-01 2.658181e-01 2.977621e-01 3.288878e-01 3.587209e-01 3.868689e-01 4.128607e-01 4.359145e-01 4.557002e-01 4.709290e-01 4.816502e-01 4.859720e-01 4.846898e-01 4.752703e-01 4.597362e-01 4.349954e-01 4.047775e-01 3.656995e-01 3.233895e-01 2.745801e-01 2.262219e-01 1.753569e-01 1.284657e-01 8.244397e-02 4.073300e-02 1.632416e-04 4.066651e-02 8.273469e-02 1.283911e-01 1.755623e-01 2.261681e-01 2.746909e-01 3.234034e-01 3.657469e-01 4.048929e-01 4.350313e-01 4.599355e-01 4.753203e-01 4.849223e-01 4.860321e-01 4.818656e-01 4.709797e-01 4.558624e-01 4.359338e-01 4.129494e-01 3.868399e-01 3.587288e-01 3.288018e-01 2.976919e-01 2.656749e-01 2.330392e-01 2.000533e-01 1.667936e-01 1.334673e-01 1.000493e-01 6.665967e-02 3.325663e-02 
3.338136e-02 4.729507e-02 7.476445e-02 1.056707e-01 1.377812e-01 1.702704e-01 2.029963e-01 2.355528e-01 2.679189e-01 2.996612e-01 3.306324e-01 3.603528e-01 3.884091e-01 4.143399e-01 4.373377e-01 4.570966e-01 4.722987e-01 4.830265e-01 4.873678e-01 4.861439e-01 4.768300e-01 4.614448e-01 4.369476e-01 4.070225e-01 3.683690e-01 3.265471e-01 2.783821e-01 2.307690e-01 1.809828e-01 1.355311e-01 9.253558e-02 5.762362e-02 4.070008e-02 5.756380e-02 9.278727e-02 1.354421e-01 1.811774e-01 2.306975e-01 2.784856e-01 3.265461e-01 3.684071e-01 4.071316e-01 4.369769e-01 4.616445e-01 4.768790e-01 4.863799e-01 4.874318e-01 4.832461e-01 4.723561e-01 4.572626e-01 4.373644e-01 4.144320e-01 3.883873e-01 3.603641e-01 3.305536e-01 2.995950e-01 2.677835e-01 2.354197e-01 2.028121e-01 1.700861e-01 1.375627e-01 1.054577e-01 7.454151e-02 4.712322e-02 
6.673944e-02 7.469477e-02 9.451506e-02 1.204888e-01 1.494905e-01 1.799421e-01 2.112705e-01 2.428346e-01 2.745080e-01 3.057408e-01 3.363936e-01 3.658798e-01 3.938595e-01 4.197431e-01 4.428533e-01 4.627293e-01 4.782331e-01 4.892820e-01 4.941605e-01 4.935594e-01 4.850853e-01 4.707331e-01 4.474003e-01 4.189156e-01 3.816370e-01 3.414064e-01 2.945980e-01 2.483992e-01 2.002113e-01 1.569249e-01 1.184276e-01 9.061753e-02 8.029429e-02 9.055121e-02 1.186266e-01 1.567966e-01 2.004015e-01 2.482892e-01 2.947118e-01 3.413884e-01 3.816822e-01 4.190389e-01 4.474339e-01 4.709581e-01 4.851373e-01 4.938152e-01 4.942275e-01 4.895125e-01 4.782946e-01 4.629006e-01 4.428855e-01 4.198382e-01 3.938443e-01 3.658939e-01 3.363221e-01 3.056784e-01 2.743810e-01 2.427075e-01 2.110977e-01 1.797692e-01 1.492923e-01 1.203031e-01 9.434091e-02 7.458658e-02 
1.001091e-01 1.055963e-01 1.204282e-01 1.417624e-01 1.671503e-01 1.949348e-01 2.242851e-01 2.543750e-01 2.849567e-01 3.153626e-01 3.454291e-01 3.744734e-01 4.021868e-01 4.278901e-01 4.509788e-01 4.709124e-01 4.866656e-01 4.980932e-01 5.036242e-01 5.039081e-01 4.966883e-01 4.839438e-01 4.626089e-01 4.365288e-01 4.018750e-01 3.645147e-01 3.204140e-01 2.766970e-01 2.306948e-01 1.889919e-01 1.530185e-01 1.275931e-01 1.192740e-01 1.275117e-01 1.531654e-01 1.888096e-01 2.308722e-01 2.765176e-01 3.205280e-01 3.644469e-01 4.019074e-01 4.366551e-01 4.626326e-01 4.841982e-01 4.967432e-01 5.041928e-01 5.037054e-01 4.983439e-01 4.867470e-01 4.710965e-01 4.510321e-01 4.279943e-01 4.021923e-01 3.744963e-01 3.453783e-01 3.153113e-01 2.848521e-01 2.542636e-01 2.241392e-01 1.947859e-01 1.669883e-01 1.416142e-01 1.203023e-01 1.055243e-01 
1.333820e-01 1.375775e-01 1.492776e-01 1.670353e-01 1.891415e-01 2.142220e-01 2.414157e-01 2.698134e-01 2.991091e-01 3.285048e-01 3.578675e-01 3.863523e-01 4.137823e-01 4.392738e-01 4.624731e-01 4.825906e-01 4.989839e-01 5.112268e-01 5.182209e-01 5.203458e-01 5.157358e-01 5.062105e-01 4.886674e-01 4.670330e-01 4.366151e-01 4.035669e-01 3.622994e-01 3.201358e-01 2.738532e-01 2.304129e-01 1.926994e-01 1.654427e-01 1.570225e-01 1.653375e-01 1.928094e-01 2.301573e-01 2.740228e-01 3.198657e-01 3.624285e-01 4.034470e-01 4.366563e-01 4.672037e-01 4.886991e-01 5.065340e-01 5.158000e-01 5.206774e-01 5.183146e-01 5.115004e-01 4.990812e-01 4.827853e-01 4.625448e-01 4.393853e-01 4.138074e-01 3.863833e-01 3.578368e-01 3.284640e-01 2.990253e-01 2.697164e-01 2.412932e-01 2.140934e-01 1.890083e-01 1.669146e-01 1.491819e-01 1.375243e-01 
1.666117e-01 1.700237e-01 1.796427e-01 1.947399e-01 2.141028e-01 2.367084e-01 2.617702e-01 2.883984e-01 3.162622e-01 3.444831e-01 3.729434e-01 4.006851e-01 4.276206e-01 4.527516e-01 4.759073e-01 4.962081e-01 5.132977e-01 5.266880e-01 5.356333e-01 5.404400e-01 5.395293e-01 5.345849e-01 5.224880e-01 5.069674e-01 4.827170e-01 4.556504e-01 4.187896e-01 3.793090e-01 3.323187e-01 2.846288e-01 2.410954e-01 2.077636e-01 1.975284e-01 2.076275e-01 2.411672e-01 2.842882e-01 3.324945e-01 3.789162e-01 4.189318e-01 4.554298e-01 4.827324e-01 5.071795e-01 5.225073e-01 5.349924e-01 5.396110e-01 5.408355e-01 5.357635e-01 5.269979e-01 5.134348e-01 4.964212e-01 4.760148e-01 4.528744e-01 4.276774e-01 4.007276e-01 3.729428e-01 3.444581e-01 3.162097e-01 2.883232e-01 2.616817e-01 2.366078e-01 2.140054e-01 1.946491e-01 1.795755e-01 1.699857e-01 
1.995869e-01 2.024912e-01 2.106662e-01 2.238012e-01 2.409653e-01 2.614477e-01 2.845547e-01 3.094675e-01 3.358692e-01 3.628195e-01 3.902644e-01 4.171117e-01 4.434696e-01 4.681596e-01 4.914171e-01 5.121329e-01 5.306236e-01 5.460599e-01 5.585825e-01 5.679422e-01 5.733725e-01 5.758335e-01 5.723233e-01 5.661176e-01 5.503365e-01 5.312319e-01 4.980884e-01 4.588143e-01 4.071453e-01 3.519545e-01 2.996030e-01 2.580750e-01 2.452020e-01 2.579011e-01 2.996321e-01 3.514880e-01 4.073105e-01 4.582535e-01 4.982447e-01 5.308901e-01 5.503455e-01 5.664741e-01 5.723589e-01 5.763955e-01 5.734820e-01 5.684171e-01 5.587463e-01 5.463995e-01 5.307955e-01 5.123575e-01 4.915580e-01 4.682916e-01 4.435575e-01 4.171663e-01 3.902927e-01 3.628100e-01 3.358437e-01 3.094107e-01 2.844920e-01 2.613676e-01 2.408921e-01 2.237297e-01 2.106159e-01 2.024620e-01 
2.323339e-01 2.348876e-01 2.420163e-01 2.536789e-01 2.690885e-01 2.877827e-01 3.091368e-01 3.324229e-01 3.573407e-01 3.829291e-01 4.091885e-01 4.349717e-01 4.605561e-01 4.847529e-01 5.081367e-01 5.296744e-01 5.501762e-01 5.688826e-01 5.864221e-01 6.023412e-01 6.161007e-01 6.279956e-01 6.348907e-01 6.391683e-01 6.334864e-01 6.234148e-01 5.969096e-01 5.630946e-01 5.101189e-01 4.469861e-01 3.816621e-01 3.262618e-01 3.082786e-01 3.260321e-01 3.815954e-01 4.463685e-01 5.103341e-01 5.623216e-01 5.971024e-01 6.228503e-01 6.333736e-01 6.396904e-01 6.348911e-01 6.287370e-01 6.162689e-01 6.029246e-01 5.866781e-01 5.692760e-01 5.504257e-01 5.299206e-01 5.083306e-01 4.848946e-01 4.606820e-01 4.350374e-01 4.092502e-01 3.829377e-01 3.573490e-01 3.323912e-01 3.091085e-01 2.877309e-01 2.690464e-01 2.536316e-01 2.419860e-01 2.348684e-01 
2.645303e-01 2.668423e-01 2.731830e-01 2.837265e-01 2.977159e-01 3.149034e-01 3.346729e-01 3.564066e-01 3.797998e-01 4.039099e-01 4.288137e-01 4.533566e-01 4.780989e-01 5.018770e-01 5.258797e-01 5.490650e-01 5.732182e-01 5.971746e-01 6.227481e-01 6.481065e-01 6.739340e-01 6.982192e-01 7.189195e-01 7.367917e-01 7.435723e-01 7.466423e-01 7.258862e-01 6.922365e-01 6.329755e-01 5.630067e-01 4.890082e-01 4.241226e-01 4.029579e-01 4.238450e-01 4.887969e-01 5.621445e-01 6.331783e-01 6.911808e-01 7.261302e-01 7.457551e-01 7.433226e-01 7.377346e-01 7.189054e-01 6.992208e-01 6.741654e-01 6.487803e-01 6.230923e-01 5.976004e-01 5.735472e-01 5.493302e-01 5.261334e-01 5.020354e-01 4.782680e-01 4.534397e-01 4.289081e-01 4.039369e-01 3.798345e-01 3.563937e-01 3.346669e-01 3.148693e-01 2.976915e-01 2.836928e-01 2.731630e-01 2.668284e-01 
2.961271e-01 2.982619e-01 3.039946e-01 3.136644e-01 3.264912e-01 3.423883e-01 3.607207e-01 3.809591e-01 4.028010e-01 4.253424e-01 4.487745e-01 4.720372e-01 4.960313e-01 5.198709e-01 5.453316e-01 5.717997e-01 6.016205e-01 6.337751e-01 6.700367e-01 7.077969e-01 7.470242e-01 7.841983e-01 8.171658e-01 8.451025e-01 8.617408e-01 8.712728e-01 8.588243e-01 8.432140e-01 7.946340e-01 7.243262e-01 6.388821e-01 5.569050e-01 5.290284e-01 5.565369e-01 6.382573e-01 7.232350e-01 7.950988e-01 8.418514e-01 8.592951e-01 8.698317e-01 8.609396e-01 8.465161e-01 8.169929e-01 7.854231e-01 7.474123e-01 7.085953e-01 6.706004e-01 6.342842e-01 6.021040e-01 5.721060e-01 5.456663e-01 5.200454e-01 4.962422e-01 4.721330e-01 4.488998e-01 4.253896e-01 4.028673e-01 3.809735e-01 3.607468e-01 3.423826e-01 3.264943e-01 3.136525e-01 3.039909e-01 2.982562e-01 
3.266934e-01 3.287063e-01 3.339345e-01 3.428969e-01 3.547025e-01 3.694382e-01 3.863656e-01 4.050918e-01 4.252576e-01 4.461053e-01 4.679428e-01 4.899911e-01 5.136061e-01 5.383911e-01 5.669426e-01 5.990067e-01 6.377578e-01 6.812939e-01 7.317766e-01 7.832104e-01 8.367186e-01 8.837328e-01 9.270311e-01 9.621923e-01 9.878344e-01 1.018083e+00 1.014738e+00 9.930496e-01 9.361055e-01 8.757069e-01 8.098277e-01 7.428978e-01 7.231087e-01 7.425899e-01 8.087967e-01 8.742914e-01 9.366613e-01 9.913266e-01 1.015597e+00 1.015776e+00 9.865027e-01 9.646910e-01 9.266505e-01 8.850834e-01 8.372177e-01 7.839812e-01 7.325376e-01 6.818525e-01 6.384242e-01 5.993919e-01 5.674000e-01 5.386251e-01 5.138840e-01 4.901221e-01 4.681022e-01 4.461738e-01 4.253434e-01 4.051216e-01 3.864052e-01 3.694448e-01 3.547154e-01 3.428936e-01 3.339363e-01 3.287037e-01 
3.560660e-01 3.579791e-01 3.627779e-01 3.711275e-01 3.820157e-01 3.956563e-01 4.112179e-01 4.284096e-01 4.468888e-01 4.660542e-01 4.865096e-01 5.078585e-01 5.321696e-01 5.597429e-01 5.940267e-01 6.353358e-01 6.866632e-01 7.454048e-01 8.110643e-01 8.755270e-01 9.364582e-01 9.856127e-01 1.025885e+00 1.056573e+00 1.080883e+00 1.089584e+00 1.084882e+00 1.118777e+00 1.115681e+00 1.074964e+00 1.012464e+00 9.418094e-01 9.239524e-01 9.415038e-01 1.010086e+00 1.073793e+00 1.117296e+00 1.116458e+00 1.086608e+00 1.086345e+00 1.078017e+00 1.060146e+00 1.025162e+00 9.867982e-01 9.373348e-01 8.762980e-01 8.122252e-01 7.461010e-01 6.875975e-01 6.358401e-01 5.946194e-01 5.600412e-01 5.325066e-01 5.080241e-01 4.867017e-01 4.661516e-01 4.470039e-01 4.284699e-01 4.112866e-01 3.956915e-01 3.820529e-01 3.711447e-01 3.627935e-01 3.579840e-01 
3.837258e-01 3.855683e-01 3.899516e-01 3.977372e-01 4.077023e-01 4.202518e-01 4.343638e-01 4.499762e-01 4.666878e-01 4.843058e-01 5.037138e-01 5.253092e-01 5.518896e-01 5.848510e-01 6.282845e-01 6.827647e-01 7.502316e-01 8.251386e-01 9.034653e-01 9.705141e-01 1.025150e+00 1.053566e+00 1.076536e+00 1.080713e+00 1.098106e+00 1.174318e+00 1.203802e+00 1.184666e+00 1.154233e+00 1.147872e+00 1.186317e+00 1.197933e+00 1.214354e+00 1.198201e+00 1.184268e+00 1.148057e+00 1.155405e+00 1.180659e+00 1.205371e+00 1.169822e+00 1.096198e+00 1.086653e+00 1.075453e+00 1.053844e+00 1.026159e+00 9.708265e-01 9.048567e-01 8.259444e-01 7.514964e-01 6.835317e-01 6.291299e-01 5.853345e-01 5.523530e-01 5.255594e-01 5.039491e-01 4.844315e-01 4.668114e-01 4.500441e-01 4.344322e-01 4.202897e-01 4.077390e-01 3.977562e-01 3.899673e-01 3.855739e-01 
4.093838e-01 4.111501e-01 4.151214e-01 4.223288e-01 4.313582e-01 4.427721e-01 4.554275e-01 4.694698e-01 4.846364e-01 5.011493e-01 5.205779e-01 5.440944e-01 5.757514e-01 6.177160e-01 6.747138e-01 7.463852e-01 8.315815e-01 9.200072e-01 9.989490e-01 1.050563e+00 1.069970e+00 1.059158e+00 1.038886e+00 1.047621e+00 1.070647e+00 1.039340e+00 1.009394e+00 1.051552e+00 1.163713e+00 1.248509e+00 1.302747e+00 1.296748e+00 1.301273e+00 1.298114e+00 1.301116e+00 1.252071e+00 1.163608e+00 1.048198e+00 1.011165e+00 1.038453e+00 1.075266e+00 1.052922e+00 1.038413e+00 1.057968e+00 1.071681e+00 1.050545e+00 1.000581e+00 9.209473e-01 8.330947e-01 7.474028e-01 6.757651e-01 6.183882e-01 5.763376e-01 5.444516e-01 5.208776e-01 5.013345e-01 4.847982e-01 4.695767e-01 4.555238e-01 4.428381e-01 4.314152e-01 4.223656e-01 4.151481e-01 4.111620e-01 
4.324779e-01 4.341801e-01 4.376963e-01 4.443012e-01 4.523068e-01 4.625537e-01 4.736882e-01 4.863034e-01 5.001935e-01 5.164372e-01 5.371766e-01 5.649835e-01 6.047292e-01 6.597529e-01 7.338210e-01 8.246783e-01 9.244181e-01 1.014523e+00 1.070785e+00 1.071315e+00 1.021923e+00 9.412193e-01 8.936456e-01 8.262502e-01 7.594752e-01 9.038910e-01 1.136488e+00 1.253850e+00 1.256559e+00 1.232820e+00 1.211666e+00 1.182035e+00 1.179679e+00 1.183202e+00 1.209361e+00 1.234934e+00 1.257233e+00 1.248776e+00 1.148322e+00 8.998289e-01 7.660573e-01 8.218741e-01 8.944598e-01 9.365762e-01 1.023340e+00 1.070238e+00 1.072071e+00 1.015621e+00 9.262756e-01 8.262294e-01 7.352905e-01 6.608102e-01 6.055451e-01 5.655093e-01 5.375475e-01 5.166653e-01 5.003554e-01 4.864073e-01 4.737677e-01 4.626088e-01 4.523502e-01 4.443306e-01 4.377164e-01 4.341896e-01 
4.526276e-01 4.542436e-01 4.572587e-01 4.631841e-01 4.700976e-01 4.791257e-01 4.888264e-01 5.002686e-01 5.136079e-01 5.307555e-01 5.549962e-01 5.898807e-01 6.417735e-01 7.134394e-01 8.075837e-01 9.154930e-01 1.020119e+00 1.088053e+00 1.082009e+00 9.855188e-01 8.355537e-01 6.874228e-01 5.975896e-01 6.948938e-01 1.012770e+00 1.191628e+00 1.173423e+00 1.110314e+00 1.062740e+00 1.105516e+00 1.172427e+00 1.204200e+00 1.226981e+00 1.204734e+00 1.170509e+00 1.104873e+00 1.069816e+00 1.103228e+00 1.179631e+00 1.194156e+00 1.010064e+00 6.968685e-01 5.969916e-01 6.826607e-01 8.369216e-01 9.842049e-01 1.082139e+00 1.088820e+00 1.021717e+00 9.172803e-01 8.092882e-01 7.148533e-01 6.428513e-01 5.906516e-01 5.555222e-01 5.311089e-01 5.138418e-01 5.004293e-01 4.889373e-01 4.792066e-01 4.701552e-01 4.632253e-01 4.572847e-01 4.542566e-01 
4.692982e-01 4.708282e-01 4.732799e-01 4.784826e-01 4.842307e-01 4.921018e-01 5.005092e-01 5.113284e-01 5.249615e-01 5.447000e-01 5.745619e-01 6.197191e-01 6.865940e-01 7.775770e-01 8.901337e-01 1.007840e+00 1.096122e+00 1.105225e+00 9.832800e-01 7.506894e-01 4.894451e-01 4.092215e-01 7.057361e-01 1.063016e+00 1.094847e+00 9.838714e-01 9.736402e-01 1.054680e+00 1.106299e+00 1.153656e+00 1.189986e+00 1.192608e+00 1.204715e+00 1.192480e+00 1.188435e+00 1.151962e+00 1.116336e+00 1.047382e+00 9.730455e-01 9.907656e-01 1.090844e+00 1.069092e+00 7.079210e-01 4.129389e-01 4.880177e-01 7.481803e-01 9.816826e-01 1.105905e+00 1.097797e+00 1.010227e+00 8.923282e-01 7.794867e-01 6.879865e-01 6.207203e-01 5.751943e-01 5.451106e-01 5.251951e-01 5.114765e-01 5.005898e-01 4.921573e-01 4.842619e-01 4.785061e-01 4.732924e-01 4.708351e-01 
4.820953e-01 4.835177e-01 4.853431e-01 4.897536e-01 4.942945e-01 5.010770e-01 5.084796e-01 5.192917e-01 5.343987e-01 5.583856e-01 5.964148e-01 6.542754e-01 7.390197e-01 8.489388e-01 9.765258e-01 1.088345e+00 1.132521e+00 1.029986e+00 7.369246e-01 3.419783e-01 3.023565e-01 7.134217e-01 1.029542e+00 1.058121e+00 9.850393e-01 1.026764e+00 1.062542e+00 1.068825e+00 1.065317e+00 1.086234e+00 1.118436e+00 1.134787e+00 1.149097e+00 1.134456e+00 1.118356e+00 1.084859e+00 1.070158e+00 1.065039e+00 1.062174e+00 1.032238e+00 9.825231e-01 1.060262e+00 1.031841e+00 7.178780e-01 3.030646e-01 3.355399e-01 7.316057e-01 1.028346e+00 1.132940e+00 1.090562e+00 9.789882e-01 8.513611e-01 7.408963e-01 6.557019e-01 5.973467e-01 5.590115e-01 5.347583e-01 5.195186e-01 5.085964e-01 5.011512e-01 4.943295e-01 4.897774e-01 4.853531e-01 4.835234e-01 
4.905757e-01 4.918843e-01 4.930537e-01 4.966713e-01 5.000511e-01 5.059876e-01 5.128218e-01 5.245499e-01 5.423547e-01 5.725294e-01 6.205826e-01 6.933288e-01 7.959385e-01 9.226885e-01 1.053885e+00 1.139710e+00 1.096466e+00 8.220130e-01 3.231008e-01 2.069343e-01 6.721507e-01 1.007424e+00 1.106294e+00 1.081656e+00 1.060543e+00 1.031531e+00 9.997774e-01 1.004336e+00 1.017809e+00 1.044714e+00 1.071269e+00 1.082418e+00 1.093032e+00 1.082124e+00 1.071740e+00 1.043802e+00 1.021386e+00 1.002879e+00 9.981837e-01 1.035275e+00 1.060100e+00 1.083372e+00 1.107567e+00 1.008000e+00 6.723899e-01 2.104035e-01 3.162630e-01 8.195053e-01 1.096618e+00 1.142006e+00 1.056622e+00 9.254047e-01 7.980679e-01 6.949392e-01 6.216210e-01 5.732113e-01 5.427210e-01 5.247630e-01 5.129062e-01 5.060291e-01 5.000530e-01 4.966699e-01 4.930453e-01 4.918811e-01 
4.944120e-01 4.956071e-01 4.960911e-01 4.989367e-01 5.012186e-01 5.065758e-01 5.132835e-01 5.267552e-01 5.483157e-01 5.859786e-01 6.453049e-01 7.331049e-01 8.526552e-01 9.893708e-01 1.112909e+00 1.144790e+00 9.727020e-01 4.877466e-01 1.932318e-01 5.891429e-01 9.849139e-01 1.193901e+00 1.184174e+00 1.117222e+00 1.040695e+00 9.968042e-01 9.692989e-01 9.597130e-01 9.593428e-01 9.719086e-01 9.897448e-01 9.996950e-01 1.008295e+00 9.995098e-01 9.903717e-01 9.714211e-01 9.612730e-01 9.595028e-01 9.689702e-01 9.990994e-01 1.041011e+00 1.119855e+00 1.186125e+00 1.196013e+00 9.874291e-01 5.921313e-01 1.979054e-01 4.833601e-01 9.710761e-01 1.146904e+00 1.116303e+00 9.929183e-01 8.555594e-01 7.353130e-01 6.467581e-01 5.869294e-01 5.488343e-01 5.270457e-01 5.133937e-01 5.066160e-01 5.012055e-01 4.989176e-01 4.960679e-01 4.955957e-01 
4.932440e-01 4.943231e-01 4.941847e-01 4.963603e-01 4.977888e-01 5.029801e-01 5.102140e-01 5.263664e-01 5.527200e-01 5.990160e-01 6.700768e-01 7.725675e-01 9.056127e-01 1.045278e+00 1.142907e+00 1.100774e+00 7.410461e-01 3.407630e-01 5.298810e-01 9.092652e-01 1.268734e+00 1.284282e+00 1.183012e+00 1.077938e+00 9.988634e-01 9.416153e-01 9.043205e-01 8.926681e-01 8.932337e-01 9.041858e-01 9.178307e-01 9.247650e-01 9.311736e-01 9.246715e-01 9.184813e-01 9.040089e-01 8.946298e-01 8.928697e-01 9.041666e-01 9.429882e-01 9.990625e-01 1.079084e+00 1.183628e+00 1.284147e+00 1.269840e+00 9.129993e-01 5.315317e-01 3.367393e-01 7.376766e-01 1.101456e+00 1.145754e+00 1.048585e+00 9.085169e-01 7.748372e-01 6.716019e-01 6.000241e-01 5.532671e-01 5.266625e-01 5.103106e-01 5.029969e-01 4.977493e-01 4.963172e-01 4.941438e-01 4.943024e-01 
4.868346e-01 4.878416e-01 4.871649e-01 4.888760e-01 4.897180e-01 4.952388e-01 5.034865e-01 5.230892e-01 5.545002e-01 6.097663e-01 6.911843e-01 8.061300e-01 9.472904e-01 1.078255e+00 1.142254e+00 9.833133e-01 5.605212e-01 5.298422e-01 7.882710e-01 1.234326e+00 1.382125e+00 1.242275e+00 1.131691e+00 1.020192e+00 9.413916e-01 8.858825e-01 8.520358e-01 8.340584e-01 8.265366e-01 8.265210e-01 8.314527e-01 8.335328e-01 8.374853e-01 8.335001e-01 8.319929e-01 8.265430e-01 8.275013e-01 8.345748e-01 8.524820e-01 8.871824e-01 9.421771e-01 1.021720e+00 1.133229e+00 1.243376e+00 1.382908e+00 1.241079e+00 7.967889e-01 5.357545e-01 5.639089e-01 9.854620e-01 1.147047e+00 1.082930e+00 9.511274e-01 8.089721e-01 6.930236e-01 6.109356e-01 5.551121e-01 5.233894e-01 5.035575e-01 4.952107e-01 4.896330e-01 4.887905e-01 4.870941e-01 4.878046e-01 
4.747858e-01 4.757449e-01 4.747657e-01 4.763079e-01 4.771053e-01 4.835232e-01 4.935598e-01 5.171798e-01 5.540653e-01 6.179829e-01 7.086631e-01 8.332561e-01 9.794623e-01 1.092090e+00 1.127601e+00 8.330047e-01 6.344997e-01 7.182028e-01 1.079546e+00 1.434690e+00 1.326662e+00 1.186022e+00 1.060157e+00 9.570323e-01 8.826584e-01 8.281225e-01 7.913051e-01 7.687579e-01 7.562517e-01 7.506333e-01 7.502494e-01 7.489449e-01 7.511217e-01 7.489426e-01 7.506874e-01 7.507324e-01 7.569672e-01 7.692578e-01 7.917508e-01 8.291373e-01 8.833042e-01 9.580856e-01 1.060805e+00 1.186378e+00 1.325854e+00 1.435292e+00 1.083895e+00 7.238215e-01 6.361341e-01 8.297037e-01 1.130072e+00 1.096239e+00 9.832109e-01 8.362435e-01 7.106414e-01 6.192787e-01 5.547673e-01 5.175320e-01 4.936588e-01 4.834986e-01 4.770151e-01 4.762102e-01 4.746852e-01 4.757015e-01 
4.569075e-01 4.579340e-01 4.569882e-01 4.588981e-01 4.603543e-01 4.684916e-01 4.810245e-01 5.092646e-01 5.511731e-01 6.234113e-01 7.192914e-01 8.533729e-01 9.908774e-01 1.097272e+00 1.061083e+00 7.927199e-01 7.581974e-01 9.086721e-01 1.343324e+00 1.435329e+00 1.238068e+00 1.111561e+00 9.871042e-01 8.959284e-01 8.256698e-01 7.731870e-01 7.347204e-01 7.059915e-01 6.858521e-01 6.713336e-01 6.635370e-01 6.574815e-01 6.576488e-01 6.574834e-01 6.638454e-01 6.714432e-01 6.863653e-01 7.064641e-01 7.352508e-01 7.740822e-01 8.264679e-01 8.969260e-01 9.880733e-01 1.111957e+00 1.238522e+00 1.434841e+00 1.345452e+00 9.058872e-01 7.506831e-01 7.912317e-01 1.063842e+00 1.102166e+00 9.943978e-01 8.561592e-01 7.209994e-01 6.244711e-01 5.516924e-01 5.094539e-01 4.810024e-01 4.683574e-01 4.601822e-01 4.587330e-01 4.568645e-01 4.578675e-01 
4.326180e-01 4.338182e-01 4.334539e-01 4.364254e-01 4.396202e-01 4.503574e-01 4.664431e-01 4.993950e-01 5.462381e-01 6.249956e-01 7.235190e-01 8.646181e-01 9.859025e-01 1.097321e+00 9.766414e-01 8.757631e-01 8.680817e-01 1.101859e+00 1.458775e+00 1.313292e+00 1.157252e+00 1.024909e+00 9.192820e-01 8.330784e-01 7.688388e-01 7.155694e-01 6.744238e-01 6.404990e-01 6.148129e-01 5.945869e-01 5.819205e-01 5.727787e-01 5.715606e-01 5.727818e-01 5.821396e-01 5.946905e-01 6.151995e-01 6.409319e-01 6.749765e-01 7.165085e-01 7.699319e-01 8.346052e-01 9.213729e-01 1.027298e+00 1.161868e+00 1.318350e+00 1.470549e+00 1.116304e+00 8.726222e-01 8.826005e-01 9.848808e-01 1.105091e+00 9.907251e-01 8.680795e-01 7.256249e-01 6.262509e-01 5.468952e-01 4.996483e-01 4.664711e-01 4.502412e-01 4.394599e-01 4.362593e-01 4.333290e-01 4.337491e-01 
4.017772e-01 4.033968e-01 4.044191e-01 4.095869e-01 4.160671e-01 4.307596e-01 4.518701e-01 4.897366e-01 5.420091e-01 6.247399e-01 7.264101e-01 8.678514e-01 9.822931e-01 1.085401e+00 9.540020e-01 9.376768e-01 9.834319e-01 1.261768e+00 1.421925e+00 1.193130e+00 1.079389e+00 9.450261e-01 8.556161e-01 7.739278e-01 7.135626e-01 6.596437e-01 6.159813e-01 5.769691e-01 5.452832e-01 5.184813e-01 5.000983e-01 4.871380e-01 4.843715e-01 4.871105e-01 5.001876e-01 5.184777e-01 5.454383e-01 5.771586e-01 6.162321e-01 6.601209e-01 7.140618e-01 7.746386e-01 8.563183e-01 9.457225e-01 1.080139e+00 1.193939e+00 1.423976e+00 1.269141e+00 9.835511e-01 9.405920e-01 9.603892e-01 1.088161e+00 9.847757e-01 8.695193e-01 7.276594e-01 6.253093e-01 5.422730e-01 4.896712e-01 4.516955e-01 4.304811e-01 4.157970e-01 4.093373e-01 4.042429e-01 4.033010e-01 
3.636869e-01 3.660293e-01 3.695508e-01 3.783859e-01 3.901275e-01 4.102656e-01 4.379766e-01 4.805100e-01 5.385653e-01 6.217072e-01 7.277317e-01 8.607110e-01 9.839408e-01 1.061353e+00 1.011940e+00 9.925053e-01 1.066497e+00 1.338208e+00 1.307204e+00 1.100543e+00 9.945938e-01 8.722435e-01 7.911606e-01 7.148803e-01 6.567084e-01 6.025321e-01 5.566172e-01 5.140997e-01 4.780462e-01 4.467648e-01 4.242248e-01 4.085417e-01 4.045833e-01 4.085107e-01 4.242602e-01 4.467448e-01 4.781291e-01 5.142555e-01 5.568459e-01 6.030343e-01 6.573047e-01 7.158820e-01 7.922336e-01 8.738354e-01 9.959187e-01 1.103200e+00 1.309585e+00 1.347951e+00 1.068891e+00 9.881831e-01 1.012968e+00 1.061056e+00 9.854204e-01 8.617336e-01 7.287205e-01 6.220327e-01 5.386944e-01 4.803344e-01 4.377415e-01 4.099422e-01 3.898319e-01 3.781164e-01 3.693628e-01 3.659270e-01 
3.184786e-01 3.220696e-01 3.296777e-01 3.443156e-01 3.638117e-01 3.914029e-01 4.273133e-01 4.749438e-01 5.388013e-01 6.211094e-01 7.311612e-01 8.542763e-01 9.918595e-01 1.053079e+00 1.093669e+00 1.085328e+00 1.164444e+00 1.344545e+00 1.184582e+00 1.025898e+00 9.129719e-01 8.083918e-01 7.301587e-01 6.604529e-01 6.028385e-01 5.493622e-01 5.012512e-01 4.558296e-01 4.152221e-01 3.790297e-01 3.514496e-01 3.322306e-01 3.267509e-01 3.321561e-01 3.513669e-01 3.788657e-01 4.150699e-01 4.556831e-01 5.010807e-01 5.493138e-01 6.027306e-01 6.605527e-01 7.300476e-01 8.085933e-01 9.123602e-01 1.026288e+00 1.183401e+00 1.352479e+00 1.177137e+00 1.088486e+00 1.093166e+00 1.053717e+00 9.941521e-01 8.554737e-01 7.319269e-01 6.210973e-01 5.385887e-01 4.744856e-01 4.268484e-01 3.909068e-01 3.633837e-01 3.439520e-01 3.294264e-01 3.219361e-01 
2.657997e-01 2.714264e-01 2.852914e-01 3.084066e-01 3.382143e-01 3.750626e-01 4.199493e-01 4.729022e-01 5.412791e-01 6.225108e-01 7.329310e-01 8.492892e-01 9.932397e-01 1.061903e+00 1.148008e+00 1.155308e+00 1.216290e+00 1.272030e+00 1.068918e+00 9.514716e-01 8.350777e-01 7.476161e-01 6.712551e-01 6.080936e-01 5.509221e-01 4.988651e-01 4.491757e-01 4.020358e-01 3.577779e-01 3.176153e-01 2.852898e-01 2.625723e-01 2.554639e-01 2.624949e-01 2.851768e-01 3.174317e-01 3.575625e-01 4.018093e-01 4.488758e-01 4.986272e-01 5.505734e-01 6.078895e-01 6.708757e-01 7.475656e-01 8.346446e-01 9.519298e-01 1.068487e+00 1.272702e+00 1.220656e+00 1.158214e+00 1.150076e+00 1.064964e+00 9.960259e-01 8.504239e-01 7.332136e-01 6.220793e-01 5.406465e-01 4.721432e-01 4.192308e-01 3.743917e-01 3.376461e-01 3.079468e-01 2.849704e-01 2.712587e-01 
2.064979e-01 2.155087e-01 2.387736e-01 2.734950e-01 3.157083e-01 3.628938e-01 4.165845e-01 4.749705e-01 5.464667e-01 6.278087e-01 7.357342e-01 8.515184e-01 9.943801e-01 1.089116e+00 1.176636e+00 1.173886e+00 1.203336e+00 1.169293e+00 9.804880e-01 8.830250e-01 7.715947e-01 6.955965e-01 6.219203e-01 5.640378e-01 5.073851e-01 4.568169e-01 4.057013e-01 3.569870e-01 3.087278e-01 2.637465e-01 2.249077e-01 1.966573e-01 1.868787e-01 1.965405e-01 2.247133e-01 2.634593e-01 3.083655e-01 3.565506e-01 4.051359e-01 4.561719e-01 5.065643e-01 5.631393e-01 6.208814e-01 6.946310e-01 7.708723e-01 8.830380e-01 9.823844e-01 1.172850e+00 1.208013e+00 1.176019e+00 1.179379e+00 1.092764e+00 9.958864e-01 8.519020e-01 7.351648e-01 6.269028e-01 5.453948e-01 4.739407e-01 4.156185e-01 3.620531e-01 3.149816e-01 2.729154e-01 2.383490e-01 2.152842e-01 
1.412171e-01 1.564132e-01 1.937907e-01 2.429248e-01 2.980260e-01 3.550669e-01 4.161704e-01 4.794574e-01 5.526695e-01 6.351517e-01 7.388924e-01 8.583861e-01 9.966043e-01 1.124757e+00 1.205166e+00 1.210477e+00 1.199247e+00 1.082762e+00 9.247273e-01 8.267998e-01 7.238155e-01 6.529079e-01 5.823264e-01 5.278612e-01 4.719923e-01 4.227080e-01 3.706929e-01 3.209309e-01 2.692849e-01 2.197171e-01 1.733674e-01 1.371176e-01 1.228438e-01 1.369797e-01 1.731353e-01 2.193893e-01 2.688406e-01 3.203542e-01 3.698914e-01 4.216635e-01 4.705725e-01 5.260138e-01 5.799649e-01 6.499310e-01 7.204313e-01 8.228808e-01 9.215779e-01 1.080064e+00 1.200340e+00 1.212082e+00 1.205616e+00 1.125363e+00 9.956606e-01 8.571493e-01 7.371368e-01 6.334874e-01 5.509978e-01 4.780137e-01 4.148509e-01 3.539619e-01 2.970561e-01 2.421416e-01 1.931706e-01 1.560587e-01 
7.177541e-02 1.008533e-01 1.580552e-01 2.212892e-01 2.865802e-01 3.506697e-01 4.165963e-01 4.830775e-01 5.568983e-01 6.401695e-01 7.399971e-01 8.624756e-01 9.950656e-01 1.144199e+00 1.213623e+00 1.233437e+00 1.198251e+00 1.026903e+00 8.949232e-01 7.913983e-01 6.960027e-01 6.267729e-01 5.587415e-01 5.060992e-01 4.508357e-01 4.022817e-01 3.495530e-01 2.988360e-01 2.442887e-01 1.903029e-01 1.353927e-01 8.596321e-02 6.060465e-02 8.576965e-02 1.351245e-01 1.899542e-01 2.438329e-01 2.982280e-01 3.487251e-01 4.011402e-01 4.493133e-01 5.039862e-01 5.560831e-01 6.231558e-01 6.918813e-01 7.860958e-01 8.900400e-01 1.021804e+00 1.196879e+00 1.234881e+00 1.213377e+00 1.143323e+00 9.932725e-01 8.606335e-01 7.378577e-01 6.383029e-01 5.550734e-01 4.815579e-01 4.152000e-01 3.495169e-01 2.855417e-01 2.204283e-01 1.572946e-01 1.003155e-01 
4.262193e-04 7.219552e-02 1.437393e-01 2.135468e-01 2.828709e-01 3.496524e-01 4.173445e-01 4.851577e-01 5.592361e-01 6.432115e-01 7.416361e-01 8.660247e-01 9.962478e-01 1.153410e+00 1.214345e+00 1.229418e+00 1.188704e+00 1.004750e+00 8.828449e-01 7.774224e-01 6.851157e-01 6.163687e-01 5.493728e-01 4.973473e-01 4.423834e-01 3.941348e-01 3.412463e-01 2.902853e-01 2.347633e-01 1.791052e-01 1.201647e-01 6.074166e-02 1.276875e-04 6.046742e-02 1.198483e-01 1.787083e-01 2.342303e-01 2.895638e-01 3.402342e-01 3.927213e-01 4.404443e-01 4.946361e-01 5.458512e-01 6.115549e-01 6.793955e-01 7.700216e-01 8.755425e-01 9.967857e-01 1.185334e+00 1.230160e+00 1.213544e+00 1.152017e+00 9.939249e-01 8.637177e-01 7.390870e-01 6.410229e-01 5.571365e-01 4.834192e-01 4.157577e-01 3.483407e-01 2.816842e-01 2.125437e-01 1.428020e-01 7.135342e-02 
7.177541e-02 1.008533e-01 1.580552e-01 2.212892e-01 2.865802e-01 3.506697e-01 4.165963e-01 4.830775e-01 5.568983e-01 6.401695e-01 7.399971e-01 8.624756e-01 9.950656e-01 1.144199e+00 1.213623e+00 1.233437e+00 1.198251e+00 1.026903e+00 8.949232e-01 7.913983e-01 6.960027e-01 6.267729e-01 5.587415e-01 5.060992e-01 4.508357e-01 4.022817e-01 3.495530e-01 2.988360e-01 2.442887e-01 1.903029e-01 1.353927e-01 8.596321e-02 6.060465e-02 8.576965e-02 1.351245e-01 1.899542e-01 2.438329e-01 2.982280e-01 3.487251e-01 4.011402e-01 4.493133e-01 5.039862e-01 5.560831e-01 6.231558e-01 6.918813e-01 7.860958e-01 8.900400e-01 1.021804e+00 1.196879e+00 1.234881e+00 1.213377e+00 1.143323e+00 9.932725e-01 8.606335e-01 7.378577e-01 6.383029e-01 5.550734e-01 4.815579e-01 4.152000e-01 3.495169e-01 2.855417e-01 2.204283e-01 1.572946e-01 1.003155e-01 
1.412171e-01 1.564132e-01 1.937907e-01 2.429248e-01 2.980260e-01 3.550669e-01 4.161704e-01 4.794574e-01 5.526695e-01 6.351517e-01 7.388924e-01 8.583861e-01 9.966043e-01 1.124757e+00 1.205166e+00 1.210477e+00 1.199247e+00 1.082762e+00 9.247273e-01 8.267998e-01 7.238155e-01 6.529079e-01 5.823264e-01 5.278612e-01 4.719923e-01 4.227080e-01 3.706929e-01 3.209309e-01 2.692849e-01 2.197171e-01 1.733674e-01 1.371176e-01 1.228438e-01 1.369797e-01 1.731353e-01 2.193893e-01 2.688406e-01 3.203542e-01 3.698914e-01 4.216635e-01 4.705725e-01 5.260138e-01 5.799649e-01 6.499310e-01 7.204313e-01 8.228808e-01 9.215779e-01 1.080064e+00 1.200340e+00 1.212082e+00 1.205616e+00 1.125363e+00 9.956606e-01 8.571493e-01 7.371368e-01 6.334874e-01 5.509978e-01 4.780137e-01 4.148509e-01 3.539619e-01 2.970561e-01 2.421416e-01 1.931706e-01 1.560587e-01 