# vtk DataFile Version 2.0
Comment goes here
ASCII

DATASET STRUCTURED_POINTS
FIELD FieldData 1
TIME 1 1 double
1.80000000
DIMENSIONS    64   64   1

ORIGIN    0.000   0.000   0.000
SPACING   0.015625 0.015625   1.000

POINT_DATA   4096
SCALARS uMag double
LOOKUP_TABLE default

8.803422e-04 2.456623e-03 4.253340e-03 5.478571e-03 6.667290e-03 7.048782e-03 7.156901e-03 6.283551e-03 4.943354e-03 2.540785e-03 4.528682e-04 4.462489e-03 9.090777e-03 1.452962e-02 2.049383e-02 2.688448e-02 3.357499e-02 4.013673e-02 4.665452e-02 5.236856e-02 5.762361e-02 6.138203e-02 6.426914e-02 6.508724e-02 6.470550e-02 6.194195e-02 5.780382e-02 5.132290e-02 4.350534e-02 3.375781e-02 2.302161e-02 1.114681e-02 9.822693e-04 1.318156e-02 2.469433e-02 3.527710e-02 4.442555e-02 5.204911e-02 5.790002e-02 6.205880e-02 6.441642e-02 6.518081e-02 6.430209e-02 6.207865e-02 5.853687e-02 5.400136e-02 4.862172e-02 4.266787e-02 3.641851e-02 3.002122e-02 2.384848e-02 1.788950e-02 1.256614e-02 7.702594e-03 3.739271e-03 3.464216e-04 2.029438e-03 3.853083e-03 4.671348e-03 5.062539e-03 4.560844e-03 3.835649e-03 2.402756e-03 9.990872e-04 
1.861870e-03 2.856380e-03 4.413800e-03 5.541505e-03 6.691680e-03 7.066910e-03 7.230196e-03 6.475954e-03 5.420194e-03 3.827394e-03 3.509953e-03 6.043127e-03 1.016765e-02 1.535475e-02 2.114764e-02 2.740059e-02 3.398553e-02 4.042660e-02 4.687466e-02 5.247507e-02 5.769409e-02 6.135729e-02 6.424176e-02 6.500405e-02 6.465680e-02 6.191105e-02 5.788234e-02 5.157863e-02 4.408788e-02 3.494625e-02 2.531711e-02 1.613975e-02 1.223555e-02 1.795241e-02 2.731323e-02 3.689116e-02 4.549789e-02 5.278818e-02 5.846098e-02 6.249590e-02 6.480354e-02 6.551914e-02 6.464121e-02 6.239382e-02 5.887750e-02 5.432989e-02 4.898996e-02 4.303764e-02 3.683766e-02 3.046140e-02 2.435048e-02 1.844756e-02 1.322857e-02 8.542444e-03 4.967001e-03 2.885011e-03 3.213981e-03 4.446545e-03 5.082835e-03 5.415401e-03 4.924523e-03 4.269774e-03 3.017647e-03 2.049030e-03 
3.633682e-03 4.347449e-03 5.593949e-03 6.586089e-03 7.687614e-03 8.131208e-03 8.481090e-03 8.095168e-03 7.646197e-03 6.998393e-03 7.166491e-03 8.824539e-03 1.190750e-02 1.630462e-02 2.137756e-02 2.707775e-02 3.304770e-02 3.901398e-02 4.491339e-02 5.012024e-02 5.492205e-02 5.834966e-02 6.106865e-02 6.187998e-02 6.176584e-02 5.952113e-02 5.627683e-02 5.112931e-02 4.516286e-02 3.815385e-02 3.135289e-02 2.602049e-02 2.433517e-02 2.732461e-02 3.323742e-02 4.020236e-02 4.682829e-02 5.260327e-02 5.711410e-02 6.032704e-02 6.208145e-02 6.253008e-02 6.155772e-02 5.944160e-02 5.614101e-02 5.196075e-02 4.701678e-02 4.154376e-02 3.582436e-02 2.996703e-02 2.437064e-02 1.901757e-02 1.437085e-02 1.037449e-02 7.548368e-03 5.985949e-03 5.622615e-03 5.970552e-03 6.084453e-03 6.150715e-03 5.581520e-03 5.014894e-03 4.069260e-03 3.577912e-03 
5.641979e-03 6.098851e-03 7.001283e-03 7.768919e-03 8.767921e-03 9.242745e-03 9.815430e-03 9.829346e-03 1.001805e-02 1.013966e-02 1.089304e-02 1.253565e-02 1.510214e-02 1.878785e-02 2.305396e-02 2.799955e-02 3.316788e-02 3.839898e-02 4.358090e-02 4.812627e-02 5.240288e-02 5.536279e-02 5.788265e-02 5.859089e-02 5.873990e-02 5.696771e-02 5.463329e-02 5.085170e-02 4.680326e-02 4.248382e-02 3.879753e-02 3.650883e-02 3.606723e-02 3.778198e-02 4.099698e-02 4.513921e-02 4.941174e-02 5.336564e-02 5.659159e-02 5.889313e-02 6.009772e-02 6.024955e-02 5.922139e-02 5.720715e-02 5.418775e-02 5.035220e-02 4.589416e-02 4.090167e-02 3.576394e-02 3.045230e-02 2.545835e-02 2.067795e-02 1.660921e-02 1.315496e-02 1.068640e-02 9.132140e-03 8.314661e-03 8.082419e-03 7.763782e-03 7.603560e-03 7.000402e-03 6.563438e-03 5.875477e-03 5.611430e-03 
7.939449e-03 8.376150e-03 9.145790e-03 9.819864e-03 1.079074e-02 1.137988e-02 1.223109e-02 1.269606e-02 1.347908e-02 1.421863e-02 1.541581e-02 1.711510e-02 1.928916e-02 2.226099e-02 2.546919e-02 2.933253e-02 3.312552e-02 3.713622e-02 4.086686e-02 4.422888e-02 4.726604e-02 4.934712e-02 5.122952e-02 5.177430e-02 5.233908e-02 5.163382e-02 5.113141e-02 4.997187e-02 4.898106e-02 4.807279e-02 4.733991e-02 4.721240e-02 4.743653e-02 4.829801e-02 4.938753e-02 5.066986e-02 5.184181e-02 5.289253e-02 5.370715e-02 5.425150e-02 5.437621e-02 5.409605e-02 5.309511e-02 5.159585e-02 4.932609e-02 4.650746e-02 4.315542e-02 3.935015e-02 3.538597e-02 3.121249e-02 2.725100e-02 2.339649e-02 2.003585e-02 1.708220e-02 1.472913e-02 1.295097e-02 1.158311e-02 1.072222e-02 9.869795e-03 9.382575e-03 8.665328e-03 8.311791e-03 7.835451e-03 7.794434e-03 
1.071891e-02 1.103635e-02 1.160768e-02 1.210842e-02 1.298990e-02 1.360926e-02 1.469375e-02 1.552249e-02 1.685640e-02 1.814879e-02 1.988711e-02 2.187534e-02 2.409383e-02 2.673805e-02 2.928424e-02 3.220766e-02 3.473359e-02 3.736541e-02 3.949627e-02 4.130964e-02 4.285122e-02 4.363786e-02 4.469816e-02 4.477757e-02 4.567766e-02 4.583699e-02 4.697686e-02 4.816865e-02 5.005139e-02 5.260756e-02 5.500630e-02 5.723430e-02 5.821707e-02 5.812187e-02 5.686444e-02 5.506785e-02 5.321011e-02 5.171477e-02 5.067962e-02 4.990015e-02 4.927217e-02 4.873856e-02 4.790687e-02 4.695117e-02 4.555657e-02 4.374322e-02 4.161633e-02 3.895874e-02 3.620413e-02 3.305297e-02 3.001344e-02 2.685042e-02 2.395765e-02 2.122779e-02 1.883404e-02 1.682068e-02 1.507147e-02 1.381138e-02 1.262881e-02 1.195212e-02 1.119366e-02 1.091457e-02 1.055933e-02 1.060029e-02 
1.387139e-02 1.422079e-02 1.474368e-02 1.521080e-02 1.608755e-02 1.681820e-02 1.815575e-02 1.937874e-02 2.124318e-02 2.310248e-02 2.540095e-02 2.780547e-02 3.023367e-02 3.281279e-02 3.488097e-02 3.704046e-02 3.817991e-02 3.925116e-02 3.905146e-02 3.858132e-02 3.721015e-02 3.548591e-02 3.423467e-02 3.307789e-02 3.432974e-02 3.651610e-02 4.113750e-02 4.670981e-02 5.242303e-02 5.828680e-02 6.276843e-02 6.620140e-02 6.744825e-02 6.675674e-02 6.397614e-02 5.964159e-02 5.436400e-02 4.904126e-02 4.441110e-02 4.088630e-02 3.884987e-02 3.818013e-02 3.820773e-02 3.902935e-02 3.978772e-02 4.031875e-02 4.046076e-02 3.983568e-02 3.877665e-02 3.697149e-02 3.484138e-02 3.226431e-02 2.954581e-02 2.674207e-02 2.398026e-02 2.147196e-02 1.912462e-02 1.731449e-02 1.568085e-02 1.474396e-02 1.389670e-02 1.369038e-02 1.347401e-02 1.366796e-02 
1.769382e-02 1.796198e-02 1.834903e-02 1.867704e-02 1.946462e-02 2.018345e-02 2.168830e-02 2.317515e-02 2.551430e-02 2.785017e-02 3.075031e-02 3.360276e-02 3.646816e-02 3.918316e-02 4.121809e-02 4.293694e-02 4.327328e-02 4.309604e-02 4.105743e-02 3.836873e-02 3.402947e-02 2.918090e-02 2.463001e-02 2.120572e-02 2.277458e-02 2.719575e-02 3.443148e-02 4.279084e-02 5.114761e-02 6.056144e-02 6.847445e-02 7.462611e-02 7.665827e-02 7.437450e-02 6.817059e-02 5.957117e-02 5.050890e-02 4.258155e-02 3.639105e-02 3.165381e-02 2.895978e-02 2.859529e-02 2.978493e-02 3.255791e-02 3.571672e-02 3.846416e-02 4.082401e-02 4.188783e-02 4.227029e-02 4.143266e-02 3.995849e-02 3.770524e-02 3.505297e-02 3.211630e-02 2.907457e-02 2.621259e-02 2.349467e-02 2.136188e-02 1.949736e-02 1.844506e-02 1.758659e-02 1.743322e-02 1.728433e-02 1.751619e-02 
2.195978e-02 2.227475e-02 2.262489e-02 2.292373e-02 2.366927e-02 2.443481e-02 2.608883e-02 2.786085e-02 3.064429e-02 3.351199e-02 3.705130e-02 4.052632e-02 4.399513e-02 4.719539e-02 4.950705e-02 5.131068e-02 5.125285e-02 5.046800e-02 4.697400e-02 4.266427e-02 3.531963e-02 2.716156e-02 1.657476e-02 5.017512e-03 8.354041e-03 2.141359e-02 3.349103e-02 4.572373e-02 5.501613e-02 6.478298e-02 7.256149e-02 7.856536e-02 8.049282e-02 7.782451e-02 7.079287e-02 6.038045e-02 4.853975e-02 3.726733e-02 2.685458e-02 1.741306e-02 1.132463e-02 1.176872e-02 1.788164e-02 2.580839e-02 3.349730e-02 3.968088e-02 4.469608e-02 4.763045e-02 4.914445e-02 4.898739e-02 4.763549e-02 4.527807e-02 4.218187e-02 3.871650e-02 3.500495e-02 3.150402e-02 2.817232e-02 2.557126e-02 2.337832e-02 2.220073e-02 2.134819e-02 2.132450e-02 2.132004e-02 2.170402e-02 
2.697696e-02 2.722274e-02 2.745067e-02 2.760174e-02 2.821293e-02 2.887871e-02 3.057476e-02 3.246477e-02 3.561047e-02 3.886465e-02 4.303860e-02 4.704648e-02 5.123593e-02 5.490658e-02 5.778705e-02 5.976094e-02 5.985737e-02 5.874982e-02 5.478806e-02 4.978585e-02 4.152141e-02 3.340443e-02 2.304064e-02 1.791806e-02 2.026114e-02 3.050331e-02 3.844580e-02 4.775751e-02 5.446321e-02 6.426160e-02 7.503594e-02 8.476768e-02 8.789860e-02 8.190476e-02 6.848955e-02 5.124283e-02 3.604263e-02 2.657072e-02 2.020212e-02 1.500052e-02 9.645623e-03 6.060306e-03 1.369684e-02 2.344345e-02 3.381462e-02 4.208677e-02 4.911667e-02 5.334607e-02 5.576929e-02 5.604205e-02 5.479814e-02 5.229721e-02 4.889455e-02 4.501847e-02 4.087903e-02 3.695811e-02 3.329504e-02 3.045711e-02 2.815487e-02 2.696790e-02 2.617868e-02 2.624171e-02 2.631453e-02 2.673731e-02 
3.245420e-02 3.274740e-02 3.291130e-02 3.299295e-02 3.346507e-02 3.405294e-02 3.571167e-02 3.770073e-02 4.111142e-02 4.477731e-02 4.956174e-02 5.426715e-02 5.928295e-02 6.379875e-02 6.750897e-02 7.029082e-02 7.099034e-02 7.053184e-02 6.695819e-02 6.286650e-02 5.596863e-02 5.089527e-02 4.558386e-02 4.587066e-02 5.001668e-02 6.204812e-02 6.918348e-02 7.443001e-02 7.017124e-02 6.729341e-02 6.996654e-02 7.589719e-02 7.847811e-02 7.315376e-02 6.143496e-02 4.678928e-02 4.030399e-02 4.448488e-02 4.609834e-02 4.440029e-02 3.864249e-02 3.174423e-02 3.064520e-02 3.329839e-02 4.241351e-02 5.107894e-02 5.885619e-02 6.372977e-02 6.607727e-02 6.616291e-02 6.420222e-02 6.100093e-02 5.667608e-02 5.196639e-02 4.699658e-02 4.240561e-02 3.821351e-02 3.507999e-02 3.265816e-02 3.156229e-02 3.094063e-02 3.125052e-02 3.152394e-02 3.213238e-02 
3.862227e-02 3.884863e-02 3.887811e-02 3.877176e-02 3.902162e-02 3.937684e-02 4.088268e-02 4.277098e-02 4.633247e-02 5.020326e-02 5.554991e-02 6.076699e-02 6.667168e-02 7.185836e-02 7.662119e-02 8.002354e-02 8.178663e-02 8.179933e-02 7.939485e-02 7.643962e-02 7.190638e-02 7.107778e-02 6.905555e-02 7.340335e-02 7.899464e-02 8.846710e-02 8.976853e-02 9.428511e-02 9.112254e-02 8.074954e-02 7.722948e-02 8.351632e-02 8.719197e-02 7.533771e-02 5.550639e-02 4.531465e-02 5.658818e-02 6.432935e-02 6.459015e-02 6.813291e-02 6.607492e-02 5.534595e-02 4.927542e-02 4.532883e-02 5.060390e-02 5.881376e-02 6.726930e-02 7.269661e-02 7.518456e-02 7.507635e-02 7.264906e-02 6.884831e-02 6.391163e-02 5.856946e-02 5.311151e-02 4.810376e-02 4.369756e-02 4.048107e-02 3.813007e-02 3.718395e-02 3.674621e-02 3.722245e-02 3.762367e-02 3.829794e-02 
4.518492e-02 4.544971e-02 4.536883e-02 4.512742e-02 4.510190e-02 4.520900e-02 4.640831e-02 4.811050e-02 5.160932e-02 5.561548e-02 6.136103e-02 6.716665e-02 7.392101e-02 8.011605e-02 8.603314e-02 9.074632e-02 9.378245e-02 9.530365e-02 9.440122e-02 9.373793e-02 9.285420e-02 9.655584e-02 1.002670e-01 1.066562e-01 1.168898e-01 1.419747e-01 1.530191e-01 1.530080e-01 1.261337e-01 8.611770e-02 5.587775e-02 4.318906e-02 4.290526e-02 3.482764e-02 2.965648e-02 4.871856e-02 8.833317e-02 1.191372e-01 1.266589e-01 1.224965e-01 1.061356e-01 8.884733e-02 7.966643e-02 6.682125e-02 6.662970e-02 7.316754e-02 8.068589e-02 8.603596e-02 8.726849e-02 8.623374e-02 8.231441e-02 7.731164e-02 7.112044e-02 6.476739e-02 5.849010e-02 5.293792e-02 4.825234e-02 4.506597e-02 4.292027e-02 4.236937e-02 4.231099e-02 4.318585e-02 4.386673e-02 4.477146e-02 
5.220521e-02 5.240237e-02 5.216519e-02 5.168189e-02 5.131982e-02 5.103046e-02 5.180986e-02 5.310288e-02 5.638639e-02 6.025714e-02 6.629467e-02 7.241344e-02 8.002614e-02 8.692588e-02 9.419863e-02 9.979542e-02 1.046599e-01 1.069255e-01 1.084695e-01 1.091567e-01 1.127746e-01 1.232778e-01 1.296236e-01 1.433735e-01 1.573950e-01 1.638897e-01 1.473260e-01 1.618212e-01 1.877606e-01 1.800701e-01 1.441456e-01 9.456485e-02 6.418986e-02 7.681297e-02 1.210841e-01 1.607173e-01 1.712743e-01 1.405424e-01 1.172775e-01 1.370340e-01 1.464946e-01 1.223058e-01 1.064137e-01 8.805083e-02 7.958465e-02 8.493798e-02 9.232884e-02 9.763918e-02 9.802027e-02 9.593694e-02 9.087899e-02 8.475487e-02 7.773487e-02 7.059722e-02 6.391399e-02 5.807893e-02 5.342736e-02 5.043474e-02 4.861894e-02 4.844100e-02 4.872362e-02 4.987362e-02 5.075466e-02 5.176406e-02 
5.945057e-02 5.966834e-02 5.927277e-02 5.858488e-02 5.780360e-02 5.708191e-02 5.722843e-02 5.795895e-02 6.067158e-02 6.417957e-02 7.012585e-02 7.642220e-02 8.459055e-02 9.234354e-02 1.007474e-01 1.078731e-01 1.142094e-01 1.182718e-01 1.208792e-01 1.228909e-01 1.298149e-01 1.447152e-01 1.571131e-01 1.594257e-01 1.736104e-01 2.369964e-01 2.625586e-01 2.497186e-01 1.990021e-01 1.695114e-01 1.473032e-01 1.238904e-01 1.072331e-01 1.208974e-01 1.430228e-01 1.709148e-01 1.814404e-01 2.110377e-01 2.287031e-01 2.112079e-01 1.618292e-01 1.471502e-01 1.416007e-01 1.118777e-01 9.382828e-02 1.003281e-01 1.065053e-01 1.119475e-01 1.097787e-01 1.059183e-01 9.867801e-02 9.090467e-02 8.257831e-02 7.445696e-02 6.725921e-02 6.127091e-02 5.683063e-02 5.440597e-02 5.323611e-02 5.382406e-02 5.471247e-02 5.640907e-02 5.764408e-02 5.891645e-02 
6.673292e-02 6.688417e-02 6.631807e-02 6.534450e-02 6.411603e-02 6.283885e-02 6.225231e-02 6.219433e-02 6.413546e-02 6.694726e-02 7.259438e-02 7.869508e-02 8.729483e-02 9.545088e-02 1.049723e-01 1.128664e-01 1.210420e-01 1.249694e-01 1.297327e-01 1.279269e-01 1.408988e-01 1.633701e-01 1.776834e-01 2.330529e-01 2.839804e-01 2.729601e-01 1.384015e-01 6.146603e-02 1.235629e-01 1.414861e-01 1.407043e-01 1.112334e-01 8.599569e-02 1.004455e-01 1.305216e-01 1.352482e-01 1.174596e-01 8.087163e-02 1.020300e-01 2.028918e-01 2.469730e-01 2.198754e-01 1.625358e-01 1.419451e-01 1.081658e-01 1.136316e-01 1.200056e-01 1.243887e-01 1.199577e-01 1.138240e-01 1.049356e-01 9.563836e-02 8.663347e-02 7.784052e-02 7.061402e-02 6.475116e-02 6.078366e-02 5.901039e-02 5.850290e-02 5.973808e-02 6.113654e-02 6.321865e-02 6.472917e-02 6.614119e-02 
7.395968e-02 7.410502e-02 7.335127e-02 7.212490e-02 7.037196e-02 6.851982e-02 6.698700e-02 6.597062e-02 6.667922e-02 6.838384e-02 7.306774e-02 7.842750e-02 8.673287e-02 9.483861e-02 1.046177e-01 1.133585e-01 1.220193e-01 1.271427e-01 1.296203e-01 1.234078e-01 1.367228e-01 1.692206e-01 2.063326e-01 2.200352e-01 8.759514e-02 1.261176e-01 2.316716e-01 1.676367e-01 7.498927e-02 6.017438e-02 6.170454e-02 2.957439e-02 2.126779e-02 5.726623e-02 8.885227e-02 7.678651e-02 6.440373e-02 1.406403e-01 2.128872e-01 1.685807e-01 3.043344e-02 2.020883e-01 2.184760e-01 1.811193e-01 1.153863e-01 1.253203e-01 1.305650e-01 1.345890e-01 1.264753e-01 1.176105e-01 1.068155e-01 9.593559e-02 8.641695e-02 7.722321e-02 7.032778e-02 6.518890e-02 6.222824e-02 6.180401e-02 6.243888e-02 6.480252e-02 6.698821e-02 6.970410e-02 7.160917e-02 7.327793e-02 
8.063384e-02 8.072108e-02 7.981310e-02 7.829896e-02 7.604289e-02 7.354863e-02 7.100536e-02 6.885039e-02 6.807899e-02 6.830558e-02 7.164258e-02 7.576817e-02 8.337602e-02 9.077630e-02 9.998347e-02 1.082593e-01 1.157432e-01 1.187980e-01 1.192786e-01 9.263112e-02 1.211684e-01 1.399427e-01 8.233108e-02 9.213343e-02 1.994922e-01 1.132909e-01 1.154271e-01 2.492412e-01 2.540602e-01 2.153636e-01 1.857936e-01 1.746482e-01 1.732085e-01 1.944174e-01 2.257402e-01 2.609213e-01 3.123608e-01 3.123708e-01 2.106157e-01 8.167606e-02 1.984150e-01 1.199310e-01 1.101811e-01 2.285680e-01 1.732083e-01 1.375364e-01 1.372419e-01 1.375372e-01 1.267887e-01 1.159866e-01 1.051250e-01 9.371341e-02 8.488131e-02 7.595586e-02 6.994279e-02 6.585646e-02 6.401747e-02 6.489503e-02 6.653882e-02 6.980605e-02 7.263872e-02 7.580348e-02 7.804101e-02 7.986033e-02 
8.688020e-02 8.692743e-02 8.584706e-02 8.408258e-02 8.129913e-02 7.821027e-02 7.455404e-02 7.121188e-02 6.856363e-02 6.686305e-02 6.794539e-02 6.969608e-02 7.529715e-02 8.004434e-02 8.670525e-02 9.188713e-02 9.555265e-02 9.776586e-02 9.642450e-02 4.981654e-02 1.012483e-01 1.625600e-02 1.238846e-01 1.134742e-01 5.810128e-02 2.266219e-01 2.349222e-01 1.874098e-01 1.516812e-01 1.539223e-01 1.697742e-01 1.792636e-01 1.843741e-01 1.866803e-01 1.853618e-01 1.969577e-01 2.062729e-01 2.522878e-01 2.966854e-01 3.200059e-01 1.427152e-01 1.097420e-01 1.648561e-01 2.925694e-02 1.568546e-01 1.088328e-01 1.216508e-01 1.227676e-01 1.123771e-01 1.012613e-01 9.308750e-02 8.262762e-02 7.606708e-02 6.867827e-02 6.464208e-02 6.295330e-02 6.314715e-02 6.626448e-02 6.942893e-02 7.400430e-02 7.767519e-02 8.141768e-02 8.402621e-02 8.602753e-02 
9.188129e-02 9.189158e-02 9.073428e-02 8.875988e-02 8.555263e-02 8.190827e-02 7.717454e-02 7.261597e-02 6.787079e-02 6.396537e-02 6.211141e-02 6.081893e-02 6.360522e-02 6.491107e-02 6.738500e-02 6.863564e-02 6.095926e-02 6.482436e-02 8.015588e-02 3.433047e-02 3.332703e-02 1.141054e-01 2.887703e-02 9.140554e-02 1.371742e-01 1.003125e-01 3.498612e-02 4.912638e-03 5.634058e-02 1.139003e-01 1.704166e-01 2.058142e-01 2.208806e-01 2.125496e-01 1.825193e-01 1.394496e-01 8.375261e-02 4.641062e-02 6.653655e-02 1.542663e-01 2.194960e-01 1.736038e-01 3.260371e-02 1.381230e-01 3.580804e-02 3.771146e-02 6.067290e-02 7.739573e-02 7.665308e-02 7.457618e-02 7.434888e-02 6.810773e-02 6.571760e-02 6.104283e-02 5.935912e-02 6.036108e-02 6.237661e-02 6.742484e-02 7.181275e-02 7.735210e-02 8.170924e-02 8.583629e-02 8.878831e-02 9.089949e-02 
9.604290e-02 9.597641e-02 9.473793e-02 9.259710e-02 8.904456e-02 8.499546e-02 7.933220e-02 7.382343e-02 6.702044e-02 6.102435e-02 5.546795e-02 4.989116e-02 4.781687e-02 4.168561e-02 3.838832e-02 3.846242e-02 5.115259e-02 1.041324e-01 8.911278e-02 1.420944e-02 7.179425e-02 8.694945e-02 4.685916e-02 3.898439e-02 4.817646e-02 7.406995e-02 4.068864e-02 3.891112e-02 9.618026e-02 1.434544e-01 1.838320e-01 2.043093e-01 2.129838e-01 2.055329e-01 1.843293e-01 1.484972e-01 9.838061e-02 2.860899e-02 3.236601e-02 8.672643e-02 7.779505e-02 8.079453e-02 9.999487e-02 2.798499e-02 5.797600e-02 1.775723e-02 8.293894e-02 1.141202e-01 5.654043e-02 4.185602e-02 4.370564e-02 4.223944e-02 4.626581e-02 4.709034e-02 4.957692e-02 5.543837e-02 6.022245e-02 6.786087e-02 7.372168e-02 8.025630e-02 8.527490e-02 8.967646e-02 9.288001e-02 9.500092e-02 
9.827595e-02 9.821194e-02 9.707059e-02 9.491572e-02 9.126480e-02 8.702283e-02 8.071573e-02 7.453975e-02 6.584014e-02 5.807257e-02 4.807147e-02 3.780695e-02 2.834193e-02 1.578286e-02 2.850480e-02 6.931748e-02 1.226525e-01 1.380686e-01 3.045887e-02 4.839354e-03 9.389282e-02 7.162785e-02 6.846289e-02 9.012998e-02 8.650396e-02 8.572979e-02 8.492923e-02 9.436987e-02 1.102671e-01 1.343364e-01 1.651749e-01 1.848011e-01 1.936699e-01 1.844986e-01 1.626185e-01 1.298603e-01 1.013020e-01 8.119319e-02 7.979834e-02 8.905093e-02 9.712315e-02 9.745368e-02 7.466645e-02 5.537703e-02 1.057741e-01 1.853654e-02 1.484493e-02 1.313023e-01 1.189283e-01 7.384253e-02 4.042926e-02 2.287691e-02 2.818008e-02 3.459914e-02 4.081822e-02 5.118224e-02 5.804960e-02 6.742999e-02 7.439658e-02 8.144801e-02 8.701182e-02 9.149682e-02 9.496642e-02 9.707200e-02 
9.929371e-02 9.912970e-02 9.811063e-02 9.598582e-02 9.245582e-02 8.824618e-02 8.179131e-02 7.552009e-02 6.583603e-02 5.774662e-02 4.448561e-02 3.314570e-02 1.411886e-02 1.499541e-02 4.414218e-02 1.156571e-01 1.863888e-01 8.726736e-02 3.498001e-02 6.999643e-02 1.442385e-01 1.036407e-01 9.196068e-02 9.798079e-02 1.070062e-01 1.116998e-01 1.016171e-01 1.038453e-01 1.153674e-01 1.332251e-01 1.536149e-01 1.647662e-01 1.700523e-01 1.631463e-01 1.494794e-01 1.274270e-01 1.081632e-01 9.715560e-02 1.030775e-01 1.225314e-01 1.272634e-01 1.243431e-01 1.267726e-01 1.106532e-01 1.827000e-01 1.291054e-01 5.402486e-02 4.128295e-02 1.739123e-01 1.338917e-01 6.967927e-02 2.772966e-02 5.993894e-03 2.262436e-02 3.374073e-02 4.906034e-02 5.793253e-02 6.826002e-02 7.597597e-02 8.288201e-02 8.863186e-02 9.275709e-02 9.622782e-02 9.805965e-02 
9.784416e-02 9.775096e-02 9.713076e-02 9.533726e-02 9.239091e-02 8.865124e-02 8.279488e-02 7.706755e-02 6.767976e-02 6.051033e-02 4.675741e-02 3.981280e-02 2.716653e-02 5.517388e-02 8.145208e-02 2.158411e-01 1.918939e-01 5.372349e-02 2.095987e-02 2.093878e-01 1.962034e-01 1.394928e-01 1.285082e-01 1.289901e-01 1.263616e-01 1.251207e-01 1.175645e-01 1.146839e-01 1.129604e-01 1.175504e-01 1.273294e-01 1.337572e-01 1.372387e-01 1.314577e-01 1.224512e-01 1.106298e-01 1.065245e-01 1.106623e-01 1.202104e-01 1.339997e-01 1.391737e-01 1.431148e-01 1.293564e-01 1.167312e-01 1.558487e-01 2.437862e-01 6.995397e-02 9.768219e-02 1.062930e-01 2.087223e-01 1.047146e-01 5.033109e-02 2.103282e-02 2.001782e-02 3.195024e-02 4.750427e-02 5.774563e-02 6.745985e-02 7.573644e-02 8.192023e-02 8.778538e-02 9.136855e-02 9.486249e-02 9.644476e-02 
9.491510e-02 9.475722e-02 9.461164e-02 9.321043e-02 9.122382e-02 8.816306e-02 8.370533e-02 7.883837e-02 7.126856e-02 6.557701e-02 5.431157e-02 5.337581e-02 4.920205e-02 8.880407e-02 1.295748e-01 2.771561e-01 5.735664e-02 8.645254e-02 2.255517e-01 2.634155e-01 1.831960e-01 1.419909e-01 1.344736e-01 1.302317e-01 1.278069e-01 1.232069e-01 1.121421e-01 1.055422e-01 1.006811e-01 1.018360e-01 1.068012e-01 1.095391e-01 1.114602e-01 1.071615e-01 1.022601e-01 9.578522e-02 9.579097e-02 1.033245e-01 1.158452e-01 1.316391e-01 1.399843e-01 1.414387e-01 1.378566e-01 1.341672e-01 1.668152e-01 2.607825e-01 2.987686e-01 2.803639e-02 6.403598e-02 2.491372e-01 1.678353e-01 7.920685e-02 5.274728e-02 3.497541e-02 4.344972e-02 5.292682e-02 6.326552e-02 6.996240e-02 7.781761e-02 8.198600e-02 8.723315e-02 8.953561e-02 9.259590e-02 9.353936e-02 
8.924525e-02 8.928697e-02 8.997965e-02 8.945112e-02 8.908682e-02 8.736589e-02 8.538406e-02 8.204417e-02 7.814654e-02 7.381045e-02 6.900859e-02 6.787818e-02 8.054123e-02 1.000280e-01 2.016552e-01 2.547435e-01 1.143360e-01 7.999859e-02 3.542325e-01 2.091433e-01 1.662188e-01 1.314197e-01 1.300830e-01 1.281705e-01 1.230657e-01 1.176620e-01 1.061923e-01 9.780024e-02 8.811014e-02 8.353907e-02 8.214719e-02 8.150465e-02 8.182582e-02 7.884987e-02 7.757592e-02 7.758292e-02 8.394019e-02 9.579721e-02 1.088685e-01 1.233331e-01 1.308465e-01 1.345876e-01 1.283649e-01 1.199861e-01 1.470063e-01 1.872399e-01 3.644413e-01 1.856099e-01 1.620995e-01 1.513371e-01 2.466401e-01 9.071001e-02 8.377791e-02 4.201131e-02 5.533429e-02 5.594659e-02 6.772827e-02 7.045437e-02 7.788754e-02 7.963773e-02 8.404686e-02 8.491224e-02 8.743124e-02 8.778555e-02 
8.200157e-02 8.217161e-02 8.386912e-02 8.440287e-02 8.614098e-02 8.600456e-02 8.726579e-02 8.523131e-02 8.625676e-02 8.099789e-02 8.534622e-02 7.567000e-02 1.101355e-01 9.932377e-02 2.582721e-01 1.335128e-01 1.461023e-01 2.399609e-01 3.216946e-01 1.547014e-01 1.252896e-01 1.060398e-01 1.064414e-01 1.098923e-01 1.049159e-01 1.002837e-01 8.867876e-02 8.038570e-02 7.056950e-02 6.571839e-02 6.309618e-02 6.153007e-02 6.131133e-02 5.893888e-02 5.882904e-02 6.006737e-02 6.666320e-02 7.799381e-02 9.037296e-02 1.035982e-01 1.102493e-01 1.130528e-01 1.026421e-01 9.712942e-02 9.774483e-02 1.430994e-01 2.919081e-01 3.618711e-01 8.828657e-02 2.905187e-02 2.656545e-01 9.799373e-02 9.927422e-02 5.178537e-02 7.245970e-02 6.511193e-02 7.720053e-02 7.479991e-02 8.044876e-02 7.877304e-02 8.129697e-02 7.998479e-02 8.132366e-02 8.067581e-02 
7.209060e-02 7.273206e-02 7.584667e-02 7.812533e-02 8.256524e-02 8.487051e-02 8.982644e-02 9.000786e-02 9.569499e-02 9.040601e-02 1.008674e-01 8.504137e-02 1.272174e-01 1.144782e-01 2.729346e-01 4.182345e-02 7.393352e-02 3.633028e-01 2.539548e-01 1.210935e-01 7.254673e-02 7.827797e-02 7.843526e-02 8.953922e-02 8.486313e-02 8.292467e-02 7.264822e-02 6.598795e-02 5.587008e-02 5.010029e-02 4.476132e-02 4.166490e-02 4.035209e-02 3.889553e-02 4.077515e-02 4.483711e-02 5.302254e-02 6.419946e-02 7.542467e-02 8.680893e-02 9.321342e-02 9.550331e-02 8.549649e-02 7.330607e-02 4.398993e-02 1.075172e-01 1.972346e-01 4.073360e-01 5.551604e-02 1.026483e-01 2.696909e-01 1.491790e-01 1.111472e-01 7.046407e-02 8.700636e-02 7.575012e-02 8.524649e-02 7.918306e-02 8.165004e-02 7.686992e-02 7.658894e-02 7.299430e-02 7.261636e-02 7.093984e-02 
6.073553e-02 6.204468e-02 6.694384e-02 7.149271e-02 7.891106e-02 8.419225e-02 9.249866e-02 9.561856e-02 1.042692e-01 1.007372e-01 1.116012e-01 9.509457e-02 1.238412e-01 1.410978e-01 2.385536e-01 8.764288e-02 7.101354e-02 3.444874e-01 1.508751e-01 7.035185e-02 9.153745e-03 4.529620e-02 5.603620e-02 6.622103e-02 6.317052e-02 6.134258e-02 5.272113e-02 4.781897e-02 3.973744e-02 3.584203e-02 3.140685e-02 2.891048e-02 2.746288e-02 2.591756e-02 2.711232e-02 2.979976e-02 3.600079e-02 4.452730e-02 5.417600e-02 6.321832e-02 7.090130e-02 7.120724e-02 6.850912e-02 4.410616e-02 2.361524e-02 6.274163e-02 1.161810e-01 3.416124e-01 1.582142e-01 1.577503e-01 1.961487e-01 1.754032e-01 1.000722e-01 8.881564e-02 9.641529e-02 8.903016e-02 9.274959e-02 8.543526e-02 8.325599e-02 7.596470e-02 7.190281e-02 6.580550e-02 6.295628e-02 5.993822e-02 
4.717862e-02 4.961414e-02 5.681508e-02 6.440316e-02 7.485249e-02 8.373662e-02 9.462765e-02 1.019278e-01 1.116972e-01 1.137549e-01 1.208955e-01 1.125027e-01 1.149508e-01 1.544676e-01 1.750850e-01 1.238283e-01 1.294432e-01 2.668383e-01 9.275000e-02 5.406051e-02 3.884744e-02 3.708657e-02 5.007697e-02 4.932127e-02 4.650437e-02 4.293266e-02 3.645558e-02 3.363555e-02 2.771771e-02 2.529493e-02 2.054762e-02 1.777581e-02 1.555962e-02 1.467024e-02 1.699221e-02 2.019309e-02 2.572324e-02 3.229188e-02 4.098388e-02 4.948424e-02 6.039325e-02 6.516983e-02 7.312176e-02 6.223212e-02 6.131872e-02 6.111395e-02 7.255835e-02 2.716220e-01 2.222263e-01 1.441665e-01 1.257534e-01 1.840457e-01 1.021575e-01 1.183710e-01 1.080315e-01 1.074213e-01 1.006450e-01 9.389001e-02 8.510860e-02 7.616164e-02 6.711429e-02 5.847699e-02 5.194523e-02 4.713674e-02 
3.267166e-02 3.727640e-02 4.770385e-02 5.889472e-02 7.210620e-02 8.461159e-02 9.725161e-02 1.092429e-01 1.190822e-01 1.295788e-01 1.323997e-01 1.418980e-01 1.235063e-01 1.724884e-01 1.202521e-01 1.161575e-01 1.592130e-01 1.845280e-01 5.758525e-02 7.112405e-02 7.176882e-02 6.467786e-02 6.272886e-02 4.925243e-02 4.036298e-02 2.969683e-02 2.250983e-02 1.971652e-02 1.661566e-02 1.666136e-02 1.360402e-02 1.176465e-02 9.265630e-03 7.975613e-03 9.015070e-03 9.973583e-03 1.316586e-02 1.838650e-02 2.803303e-02 4.012329e-02 5.609789e-02 7.153541e-02 8.779973e-02 9.994576e-02 1.039386e-01 1.161721e-01 8.539828e-02 1.973782e-01 1.861966e-01 1.115494e-01 7.415551e-02 1.627011e-01 9.647443e-02 1.328410e-01 1.131926e-01 1.193128e-01 1.044563e-01 9.926608e-02 8.505893e-02 7.546849e-02 6.200344e-02 5.127519e-02 4.055262e-02 3.345826e-02 
1.692482e-02 2.536362e-02 3.966110e-02 5.411867e-02 6.922492e-02 8.435476e-02 9.776888e-02 1.131496e-01 1.223621e-01 1.392879e-01 1.383496e-01 1.613288e-01 1.289879e-01 1.747494e-01 5.990427e-02 8.359296e-02 1.420088e-01 1.148158e-01 6.220627e-02 1.030757e-01 9.435910e-02 8.818029e-02 7.396584e-02 5.505293e-02 3.979571e-02 2.307666e-02 1.334283e-02 9.448021e-03 9.572708e-03 1.182931e-02 9.341358e-03 7.474706e-03 3.818165e-03 3.473387e-03 6.001037e-03 6.278030e-03 7.023016e-03 1.098178e-02 2.086721e-02 3.634343e-02 5.383233e-02 7.657377e-02 9.400664e-02 1.186770e-01 1.189951e-01 1.414461e-01 8.840606e-02 1.410103e-01 1.333816e-01 8.360305e-02 3.876756e-02 1.474644e-01 1.051936e-01 1.507918e-01 1.232623e-01 1.323847e-01 1.103839e-01 1.059474e-01 8.707665e-02 7.699926e-02 5.972156e-02 4.720606e-02 3.163437e-02 2.039498e-02 
5.112145e-03 2.058234e-02 3.737741e-02 5.330386e-02 6.917484e-02 8.538150e-02 9.918466e-02 1.160750e-01 1.253238e-01 1.452255e-01 1.435076e-01 1.725213e-01 1.365542e-01 1.799433e-01 1.678553e-02 6.627698e-02 1.419633e-01 6.433476e-02 5.571379e-02 1.076367e-01 9.804687e-02 9.447226e-02 7.743745e-02 5.812464e-02 4.085771e-02 2.235418e-02 1.043263e-02 1.206875e-03 5.810120e-03 9.717071e-03 8.072950e-03 6.558532e-03 2.070705e-03 5.673723e-04 3.279784e-03 2.176863e-03 1.158771e-03 9.904427e-03 2.160351e-02 3.974463e-02 5.859478e-02 8.495192e-02 1.037773e-01 1.336764e-01 1.338214e-01 1.595686e-01 9.773800e-02 1.128915e-01 1.032836e-01 6.314388e-02 9.773025e-03 1.405176e-01 1.074003e-01 1.547966e-01 1.239314e-01 1.340349e-01 1.098561e-01 1.059428e-01 8.581247e-02 7.582165e-02 5.744303e-02 4.442506e-02 2.676185e-02 1.214828e-02 
1.692482e-02 2.536362e-02 3.966110e-02 5.411867e-02 6.922492e-02 8.435476e-02 9.776888e-02 1.131496e-01 1.223621e-01 1.392879e-01 1.383496e-01 1.613288e-01 1.289879e-01 1.747494e-01 5.990427e-02 8.359296e-02 1.420088e-01 1.148158e-01 6.220627e-02 1.030757e-01 9.435910e-02 8.818029e-02 7.396584e-02 5.505293e-02 3.979571e-02 2.307666e-02 1.334283e-02 9.448021e-03 9.572708e-03 1.182931e-02 9.341358e-03 7.474706e-03 3.818165e-03 3.473387e-03 6.001037e-03 6.278030e-03 7.023016e-03 1.098178e-02 2.086721e-02 3.634343e-02 5.383233e-02 7.657377e-02 9.400664e-02 1.186770e-01 1.189951e-01 1.414461e-01 8.840606e-02 1.410103e-01 1.333816e-01 8.360305e-02 3.876756e-02 1.474644e-01 1.051936e-01 1.507918e-01 1.232623e-01 1.323847e-01 1.103839e-01 1.059474e-01 8.707665e-02 7.699926e-02 5.972156e-02 4.720606e-02 3.163437e-02 2.039498e-02 
3.267166e-02 3.727640e-02 4.770385e-02 5.889472e-02 7.210620e-02 8.461159e-02 9.725161e-02 1.092429e-01 1.190822e-01 1.295788e-01 1.323997e-01 1.418980e-01 1.235063e-01 1.724884e-01 1.202521e-01 1.161575e-01 1.592130e-01 1.845280e-01 5.758525e-02 7.112405e-02 7.176882e-02 6.467786e-02 6.272886e-02 4.925243e-02 4.036298e-02 2.969683e-02 2.250983e-02 1.971652e-02 1.661566e-02 1.666136e-02 1.360402e-02 1.176465e-02 9.265630e-03 7.975613e-03 9.015070e-03 9.973583e-03 1.316586e-02 1.838650e-02 2.803303e-02 4.012329e-02 5.609789e-02 7.153541e-02 8.779973e-02 9.994576e-02 1.039386e-01 1.161721e-01 8.539828e-02 1.973782e-01 1.861966e-01 1.115494e-01 7.415551e-02 1.627011e-01 9.647443e-02 1.328410e-01 1.131926e-01 1.193128e-01 1.044563e-01 9.926608e-02 8.505893e-02 7.546849e-02 6.200344e-02 5.127519e-02 4.055262e-02 3.345826e-02 