# vtk DataFile Version 2.0
Comment goes here
ASCII

DATASET STRUCTURED_POINTS
FIELD FieldData 1
TIME 1 1 double
0.45000000
DIMENSIONS    64   64   1

ORIGIN    0.000   0.000   0.000
SPACING   0.015625 0.015625   1.000

POINT_DATA   4096
SCALARS uMag double
LOOKUP_TABLE default

2.789043e-04 2.605674e-03 4.919241e-03 7.101107e-03 9.270103e-03 1.116831e-02 1.305567e-02 1.453078e-02 1.599857e-02 1.690344e-02 1.780313e-02 1.796970e-02 1.812533e-02 1.734787e-02 1.653618e-02 1.455981e-02 1.250226e-02 9.040241e-03 5.443978e-03 2.724465e-04 5.012816e-03 1.180900e-02 1.844232e-02 2.602509e-02 3.265376e-02 3.893716e-02 4.286164e-02 4.458523e-02 4.248341e-02 3.680822e-02 2.717170e-02 1.459973e-02 3.353942e-04 1.403467e-02 2.653696e-02 3.628495e-02 4.193920e-02 4.412452e-02 4.242516e-02 3.853904e-02 3.231625e-02 2.568863e-02 1.819318e-02 1.154468e-02 4.849805e-03 4.468805e-04 5.517092e-03 9.109104e-03 1.248033e-02 1.451465e-02 1.641577e-02 1.718831e-02 1.790667e-02 1.770241e-02 1.749123e-02 1.654056e-02 1.560340e-02 1.408831e-02 1.259152e-02 1.066470e-02 8.754571e-03 6.556209e-03 4.372095e-03 2.040012e-03 
2.340278e-03 3.487368e-03 5.395071e-03 7.402881e-03 9.442299e-03 1.126026e-02 1.305355e-02 1.446159e-02 1.583278e-02 1.666513e-02 1.745730e-02 1.754407e-02 1.759028e-02 1.674192e-02 1.585514e-02 1.387601e-02 1.189399e-02 8.776396e-03 6.195159e-03 5.293969e-03 8.601081e-03 1.455250e-02 2.075361e-02 2.795364e-02 3.420234e-02 4.013484e-02 4.374252e-02 4.530688e-02 4.328571e-02 3.810645e-02 2.970121e-02 1.997730e-02 1.432126e-02 1.957039e-02 2.911176e-02 3.759714e-02 4.273747e-02 4.483973e-02 4.329749e-02 3.972665e-02 3.385971e-02 2.761070e-02 2.050425e-02 1.429392e-02 8.452954e-03 5.224436e-03 6.210272e-03 8.821778e-03 1.185920e-02 1.382391e-02 1.572919e-02 1.657838e-02 1.736846e-02 1.727367e-02 1.714288e-02 1.629956e-02 1.543536e-02 1.401752e-02 1.258879e-02 1.075929e-02 8.933813e-03 6.878510e-03 4.897074e-03 3.084362e-03 
4.638460e-03 5.321629e-03 6.694650e-03 8.376613e-03 1.017687e-02 1.182709e-02 1.347200e-02 1.474115e-02 1.597897e-02 1.666208e-02 1.731753e-02 1.724850e-02 1.718141e-02 1.622983e-02 1.535825e-02 1.352125e-02 1.201680e-02 1.000235e-02 9.446033e-03 1.068363e-02 1.408189e-02 1.936479e-02 2.494463e-02 3.144064e-02 3.697664e-02 4.222942e-02 4.529773e-02 4.671132e-02 4.523535e-02 4.163815e-02 3.636940e-02 3.123836e-02 2.903147e-02 3.098984e-02 3.588209e-02 4.118157e-02 4.470371e-02 4.625217e-02 4.486062e-02 4.181869e-02 3.664355e-02 3.109549e-02 2.470017e-02 1.910867e-02 1.392024e-02 1.056240e-02 9.370649e-03 9.982288e-03 1.194087e-02 1.344361e-02 1.521338e-02 1.605283e-02 1.695148e-02 1.697245e-02 1.700322e-02 1.629919e-02 1.559042e-02 1.431063e-02 1.302842e-02 1.135731e-02 9.713461e-03 7.923409e-03 6.305690e-03 5.070341e-03 
7.036821e-03 7.509720e-03 8.442667e-03 9.744853e-03 1.116160e-02 1.251732e-02 1.383067e-02 1.481556e-02 1.570647e-02 1.607346e-02 1.635421e-02 1.595738e-02 1.556085e-02 1.440493e-02 1.350165e-02 1.203116e-02 1.150342e-02 1.148315e-02 1.330689e-02 1.658955e-02 2.087320e-02 2.631859e-02 3.155778e-02 3.732456e-02 4.176954e-02 4.579671e-02 4.767563e-02 4.854145e-02 4.771931e-02 4.651315e-02 4.538530e-02 4.456765e-02 4.444053e-02 4.441431e-02 4.499165e-02 4.612375e-02 4.719506e-02 4.807647e-02 4.722882e-02 4.536359e-02 4.143425e-02 3.696107e-02 3.130493e-02 2.603917e-02 2.067449e-02 1.640301e-02 1.314430e-02 1.137069e-02 1.135398e-02 1.190526e-02 1.331949e-02 1.420212e-02 1.531358e-02 1.566756e-02 1.603383e-02 1.570690e-02 1.532123e-02 1.439380e-02 1.340382e-02 1.207676e-02 1.074076e-02 9.357536e-03 8.135645e-03 7.332925e-03 
9.384148e-03 9.739713e-03 1.038025e-02 1.135667e-02 1.240801e-02 1.342014e-02 1.436362e-02 1.497421e-02 1.546535e-02 1.541407e-02 1.529004e-02 1.450801e-02 1.386993e-02 1.265726e-02 1.215861e-02 1.169207e-02 1.282190e-02 1.481854e-02 1.820818e-02 2.251163e-02 2.723577e-02 3.265549e-02 3.747552e-02 4.243031e-02 4.568752e-02 4.835930e-02 4.897010e-02 4.943349e-02 4.991440e-02 5.206540e-02 5.568114e-02 5.879888e-02 6.031377e-02 5.871132e-02 5.536898e-02 5.176690e-02 4.942312e-02 4.898653e-02 4.853959e-02 4.791503e-02 4.536427e-02 4.204670e-02 3.721111e-02 3.234410e-02 2.699499e-02 2.227181e-02 1.797621e-02 1.462746e-02 1.258574e-02 1.149330e-02 1.190844e-02 1.240454e-02 1.358610e-02 1.419127e-02 1.495747e-02 1.504268e-02 1.508871e-02 1.457060e-02 1.396711e-02 1.302325e-02 1.204208e-02 1.103632e-02 1.013874e-02 9.608137e-03 
1.189853e-02 1.217509e-02 1.253464e-02 1.317647e-02 1.376423e-02 1.431915e-02 1.469034e-02 1.474098e-02 1.456128e-02 1.387512e-02 1.307913e-02 1.178872e-02 1.090273e-02 1.004784e-02 1.071867e-02 1.225940e-02 1.537439e-02 1.921124e-02 2.374103e-02 2.889963e-02 3.399902e-02 3.953475e-02 4.400074e-02 4.817737e-02 4.996865e-02 5.069511e-02 4.907702e-02 4.836765e-02 5.022990e-02 5.672277e-02 6.597239e-02 7.337276e-02 7.656851e-02 7.335861e-02 6.575527e-02 5.654943e-02 4.977259e-02 4.792250e-02 4.864331e-02 5.022125e-02 4.965370e-02 4.777092e-02 4.372774e-02 3.918903e-02 3.371972e-02 2.860655e-02 2.345056e-02 1.895629e-02 1.506957e-02 1.199399e-02 1.038128e-02 9.720514e-03 1.055525e-02 1.142542e-02 1.272150e-02 1.348885e-02 1.418496e-02 1.434795e-02 1.431458e-02 1.395541e-02 1.343755e-02 1.290307e-02 1.233404e-02 1.207001e-02 
1.431242e-02 1.450917e-02 1.462802e-02 1.492348e-02 1.504206e-02 1.505257e-02 1.478182e-02 1.412905e-02 1.320063e-02 1.177929e-02 1.043476e-02 8.999204e-03 8.928708e-03 9.911647e-03 1.276501e-02 1.619341e-02 2.041023e-02 2.488990e-02 2.959378e-02 3.464743e-02 3.939849e-02 4.436056e-02 4.796717e-02 5.096682e-02 5.110435e-02 4.985947e-02 4.615860e-02 4.479803e-02 4.926345e-02 6.095001e-02 7.574680e-02 8.689201e-02 9.154500e-02 8.694195e-02 7.561440e-02 6.093318e-02 4.889237e-02 4.441164e-02 4.577525e-02 4.937600e-02 5.081818e-02 5.053218e-02 4.768041e-02 4.397325e-02 3.907186e-02 3.430552e-02 2.924606e-02 2.459254e-02 2.006329e-02 1.591003e-02 1.239208e-02 9.541455e-03 8.479759e-03 8.539876e-03 1.001361e-02 1.135753e-02 1.281865e-02 1.374992e-02 1.443518e-02 1.473141e-02 1.476157e-02 1.469861e-02 1.446546e-02 1.442673e-02 
1.692253e-02 1.705419e-02 1.688859e-02 1.679415e-02 1.631129e-02 1.563343e-02 1.446845e-02 1.287123e-02 1.087000e-02 8.550218e-03 6.914298e-03 6.878586e-03 9.668317e-03 1.342762e-02 1.797412e-02 2.246466e-02 2.699842e-02 3.150076e-02 3.578908e-02 4.041811e-02 4.452690e-02 4.898635e-02 5.186922e-02 5.401213e-02 5.255750e-02 4.888543e-02 4.164078e-02 3.790504e-02 4.507465e-02 6.307431e-02 8.412853e-02 9.940309e-02 1.056293e-01 9.956300e-02 8.415379e-02 6.331958e-02 4.484184e-02 3.755915e-02 4.128329e-02 4.838009e-02 5.231468e-02 5.357229e-02 5.159746e-02 4.857440e-02 4.417464e-02 4.003510e-02 3.539936e-02 3.117172e-02 2.663024e-02 2.219579e-02 1.764077e-02 1.315466e-02 9.270706e-03 6.379843e-03 6.376935e-03 8.057910e-03 1.046559e-02 1.249599e-02 1.413732e-02 1.533997e-02 1.605720e-02 1.659860e-02 1.674651e-02 1.698453e-02 
1.936868e-02 1.940168e-02 1.893160e-02 1.835139e-02 1.718473e-02 1.564550e-02 1.345188e-02 1.071102e-02 7.663241e-03 5.190874e-03 6.534656e-03 1.061203e-02 1.591626e-02 2.114025e-02 2.631396e-02 3.091878e-02 3.504386e-02 3.875624e-02 4.197147e-02 4.536025e-02 4.815725e-02 5.130283e-02 5.271584e-02 5.333168e-02 5.005197e-02 4.443466e-02 3.494430e-02 3.104374e-02 4.290776e-02 6.573627e-02 9.052022e-02 1.079262e-01 1.150455e-01 1.081754e-01 9.065840e-02 6.624472e-02 4.290001e-02 3.091898e-02 3.473631e-02 4.394085e-02 4.986734e-02 5.285304e-02 5.243847e-02 5.085138e-02 4.776582e-02 4.494457e-02 4.153437e-02 3.840907e-02 3.464621e-02 3.066131e-02 2.599761e-02 2.094335e-02 1.564108e-02 1.033808e-02 6.040649e-03 4.512974e-03 7.185362e-03 1.033540e-02 1.314645e-02 1.539500e-02 1.697062e-02 1.819602e-02 1.881682e-02 1.934810e-02 
2.198686e-02 2.193129e-02 2.108464e-02 1.995022e-02 1.793476e-02 1.536898e-02 1.186883e-02 7.741480e-03 3.842721e-03 5.521564e-03 1.159269e-02 1.805489e-02 2.476181e-02 3.075202e-02 3.625122e-02 4.064535e-02 4.423249e-02 4.715712e-02 4.931833e-02 5.183137e-02 5.346143e-02 5.592213e-02 5.643443e-02 5.651312e-02 5.212815e-02 4.472742e-02 3.161610e-02 2.428515e-02 3.977381e-02 6.736686e-02 9.607740e-02 1.158575e-01 1.239489e-01 1.162893e-01 9.648256e-02 6.834937e-02 4.012107e-02 2.437638e-02 3.152858e-02 4.426277e-02 5.204664e-02 5.605213e-02 5.624317e-02 5.547593e-02 5.310540e-02 5.141204e-02 4.886884e-02 4.680040e-02 4.380316e-02 4.038869e-02 3.592535e-02 3.059736e-02 2.455476e-02 1.794912e-02 1.140540e-02 5.162570e-03 3.148984e-03 7.343901e-03 1.157078e-02 1.514128e-02 1.773463e-02 1.981238e-02 2.097838e-02 2.188414e-02 
2.438092e-02 2.418353e-02 2.289717e-02 2.104592e-02 1.803166e-02 1.419677e-02 9.225189e-03 3.682101e-03 4.878616e-03 1.212484e-02 2.020229e-02 2.806711e-02 3.564403e-02 4.207385e-02 4.763816e-02 5.181911e-02 5.513092e-02 5.777786e-02 5.973765e-02 6.201898e-02 6.311608e-02 6.467614e-02 6.312463e-02 6.081037e-02 5.384123e-02 4.525627e-02 3.306097e-02 3.004193e-02 4.634925e-02 7.187498e-02 9.895235e-02 1.173348e-01 1.251314e-01 1.178719e-01 9.942358e-02 7.316813e-02 4.694117e-02 3.078338e-02 3.345025e-02 4.489252e-02 5.382737e-02 6.022003e-02 6.297072e-02 6.420625e-02 6.279585e-02 6.163106e-02 5.928273e-02 5.744565e-02 5.466615e-02 5.156600e-02 4.727709e-02 4.191724e-02 3.543046e-02 2.798977e-02 2.009478e-02 1.203570e-02 4.579703e-03 3.138849e-03 8.951900e-03 1.402026e-02 1.787004e-02 2.094575e-02 2.281313e-02 2.414988e-02 
2.688570e-02 2.655723e-02 2.475018e-02 2.211356e-02 1.794456e-02 1.271675e-02 6.076895e-03 2.317469e-03 1.088521e-02 2.015385e-02 2.976620e-02 3.866805e-02 4.706250e-02 5.380775e-02 5.993107e-02 6.458775e-02 6.918883e-02 7.357622e-02 7.782571e-02 8.302575e-02 8.621808e-02 9.037496e-02 9.009443e-02 8.861671e-02 8.056261e-02 6.927794e-02 5.254560e-02 4.313689e-02 5.374117e-02 7.847671e-02 1.066819e-01 1.257351e-01 1.339482e-01 1.265389e-01 1.074838e-01 8.054813e-02 5.484108e-02 4.428046e-02 5.325587e-02 6.892421e-02 8.055598e-02 8.801058e-02 9.025384e-02 8.999192e-02 8.611257e-02 8.273803e-02 7.742420e-02 7.328733e-02 6.867182e-02 6.431757e-02 5.948354e-02 5.361110e-02 4.679733e-02 3.858429e-02 2.968635e-02 2.015432e-02 1.088136e-02 2.017037e-03 5.791283e-03 1.255831e-02 1.778167e-02 2.201897e-02 2.466342e-02 2.652479e-02 
2.916619e-02 2.864593e-02 2.622831e-02 2.261469e-02 1.711716e-02 1.025483e-02 1.988480e-03 8.105669e-03 1.874490e-02 2.969220e-02 4.050128e-02 5.034500e-02 5.942169e-02 6.700565e-02 7.462129e-02 8.178251e-02 9.037234e-02 1.000551e-01 1.106170e-01 1.223070e-01 1.312824e-01 1.391122e-01 1.381771e-01 1.335336e-01 1.228124e-01 1.118898e-01 9.760279e-02 8.901001e-02 9.032247e-02 9.992657e-02 1.162940e-01 1.278684e-01 1.338877e-01 1.287047e-01 1.167102e-01 1.021707e-01 9.178182e-02 9.133261e-02 9.914411e-02 1.113774e-01 1.224504e-01 1.324956e-01 1.383603e-01 1.387092e-01 1.313192e-01 1.221854e-01 1.102794e-01 9.990213e-02 8.984667e-02 8.154645e-02 7.411499e-02 6.675496e-02 5.907658e-02 5.017549e-02 4.035780e-02 2.963113e-02 1.874036e-02 8.082356e-03 1.570482e-03 1.015447e-02 1.698782e-02 2.255288e-02 2.615771e-02 2.862402e-02 
3.151148e-02 3.081618e-02 2.772955e-02 2.311261e-02 1.621354e-02 7.735398e-03 2.945971e-03 1.423049e-02 2.651513e-02 3.881340e-02 5.070536e-02 6.144122e-02 7.192261e-02 8.153604e-02 9.340745e-02 1.063174e-01 1.238542e-01 1.435252e-01 1.654953e-01 1.882763e-01 2.053223e-01 2.222871e-01 2.288046e-01 2.288197e-01 2.159026e-01 1.941365e-01 1.625949e-01 1.370574e-01 1.256424e-01 1.297372e-01 1.458913e-01 1.579144e-01 1.644357e-01 1.590888e-01 1.465668e-01 1.332914e-01 1.280491e-01 1.401182e-01 1.643601e-01 1.926300e-01 2.146074e-01 2.275611e-01 2.296996e-01 2.220212e-01 2.056775e-01 1.884143e-01 1.652322e-01 1.435359e-01 1.232759e-01 1.060982e-01 9.276636e-02 8.117896e-02 7.144144e-02 6.115563e-02 5.049071e-02 3.869389e-02 2.650943e-02 1.421716e-02 2.811884e-03 7.596818e-03 1.604439e-02 2.303380e-02 2.763947e-02 3.078819e-02 
3.378054e-02 3.286044e-02 2.901259e-02 2.323309e-02 1.480774e-02 4.683534e-03 8.009682e-03 2.120807e-02 3.493496e-02 4.859944e-02 6.150801e-02 7.390937e-02 8.706355e-02 1.017298e-01 1.218013e-01 1.462776e-01 1.784891e-01 2.142817e-01 2.520682e-01 2.883145e-01 3.164993e-01 3.364052e-01 3.313334e-01 3.135845e-01 2.924719e-01 2.739910e-01 2.471382e-01 2.229814e-01 2.054605e-01 1.902422e-01 1.821326e-01 1.759095e-01 1.766018e-01 1.770334e-01 1.814684e-01 1.932115e-01 2.083628e-01 2.280448e-01 2.494647e-01 2.708037e-01 2.896658e-01 3.111960e-01 3.319165e-01 3.359312e-01 3.169885e-01 2.888747e-01 2.519199e-01 2.146715e-01 1.780208e-01 1.462220e-01 1.211888e-01 1.013079e-01 8.647164e-02 7.341732e-02 6.112071e-02 4.826883e-02 3.478181e-02 2.103749e-02 7.868065e-03 4.419363e-03 1.462884e-02 2.316579e-02 2.892488e-02 3.283643e-02 
3.613807e-02 3.502205e-02 3.042815e-02 2.357249e-02 1.380032e-02 3.442710e-03 1.281807e-02 2.737058e-02 4.229110e-02 5.721828e-02 7.172437e-02 8.728744e-02 1.063221e-01 1.305785e-01 1.654770e-01 2.073070e-01 2.607493e-01 3.139942e-01 3.672317e-01 4.084200e-01 4.264642e-01 4.420798e-01 4.416330e-01 4.273165e-01 3.946543e-01 3.398160e-01 2.744626e-01 2.246939e-01 2.029658e-01 2.103691e-01 2.312962e-01 2.429164e-01 2.497440e-01 2.439231e-01 2.308148e-01 2.168231e-01 2.081162e-01 2.276403e-01 2.722626e-01 3.336650e-01 3.904049e-01 4.257452e-01 4.443108e-01 4.414075e-01 4.267218e-01 4.093658e-01 3.669735e-01 3.147110e-01 2.602943e-01 2.074095e-01 1.648015e-01 1.300512e-01 1.055964e-01 8.659951e-02 7.120826e-02 5.672399e-02 4.204700e-02 2.707601e-02 1.256408e-02 2.328297e-03 1.345703e-02 2.344055e-02 3.029376e-02 3.498101e-02 
3.877357e-02 3.744644e-02 3.204209e-02 2.407266e-02 1.306408e-02 5.194321e-03 1.789608e-02 3.387645e-02 5.011656e-02 6.709507e-02 8.453733e-02 1.064859e-01 1.358239e-01 1.764683e-01 2.325443e-01 2.978548e-01 3.723849e-01 4.387004e-01 4.903781e-01 5.189126e-01 5.272950e-01 5.079207e-01 4.272520e-01 3.260471e-01 2.858816e-01 2.804930e-01 2.750471e-01 2.510562e-01 2.323013e-01 2.252111e-01 2.281232e-01 2.269389e-01 2.315449e-01 2.278034e-01 2.251973e-01 2.287030e-01 2.350865e-01 2.513497e-01 2.633923e-01 2.738975e-01 2.872232e-01 3.250927e-01 4.266655e-01 5.065502e-01 5.272510e-01 5.204720e-01 4.899327e-01 4.399963e-01 3.722295e-01 2.983119e-01 2.322340e-01 1.759883e-01 1.350921e-01 1.055015e-01 8.374041e-02 6.622306e-02 4.957722e-02 3.329039e-02 1.741537e-02 3.855407e-03 1.257261e-02 2.390537e-02 3.188599e-02 3.739820e-02 
4.155943e-02 4.006234e-02 3.400041e-02 2.521693e-02 1.378840e-02 8.983531e-03 2.254297e-02 3.936955e-02 5.710914e-02 7.703115e-02 9.990836e-02 1.329149e-01 1.793021e-01 2.438319e-01 3.266241e-01 4.125686e-01 4.980491e-01 5.482073e-01 5.721827e-01 5.268806e-01 4.054855e-01 2.778024e-01 2.498819e-01 2.154041e-01 1.780864e-01 1.854932e-01 2.006093e-01 2.207503e-01 2.376637e-01 2.440960e-01 2.587066e-01 2.610323e-01 2.672316e-01 2.617921e-01 2.568447e-01 2.436679e-01 2.327377e-01 2.208380e-01 2.006039e-01 1.873536e-01 1.831903e-01 2.196165e-01 2.476394e-01 2.783293e-01 4.013420e-01 5.279862e-01 5.706642e-01 5.495033e-01 4.979076e-01 4.132882e-01 3.264145e-01 2.433429e-01 1.786563e-01 1.318384e-01 9.906155e-02 7.597284e-02 5.641370e-02 3.856439e-02 2.181857e-02 7.562368e-03 1.294905e-02 2.492448e-02 3.376876e-02 3.998624e-02 
4.511664e-02 4.348708e-02 3.673478e-02 2.725124e-02 1.554419e-02 1.259856e-02 2.703253e-02 4.519973e-02 6.564568e-02 9.099947e-02 1.234031e-01 1.739874e-01 2.442629e-01 3.374837e-01 4.429622e-01 5.330607e-01 5.900620e-01 5.665904e-01 4.453978e-01 2.606771e-01 1.801280e-01 1.258082e-01 1.312333e-01 1.443109e-01 1.588221e-01 2.145410e-01 2.616684e-01 3.045078e-01 3.140233e-01 3.054706e-01 2.918243e-01 2.634297e-01 2.590014e-01 2.643256e-01 2.902798e-01 3.102370e-01 3.098246e-01 2.991224e-01 2.609754e-01 2.204740e-01 1.573898e-01 1.413804e-01 1.312858e-01 1.281154e-01 1.774962e-01 2.600649e-01 4.420996e-01 5.675606e-01 5.899519e-01 5.337622e-01 4.436180e-01 3.372089e-01 2.438267e-01 1.726418e-01 1.222123e-01 8.948406e-02 6.454729e-02 4.405274e-02 2.602335e-02 1.115480e-02 1.454315e-02 2.688949e-02 3.646121e-02 4.339222e-02 
4.873306e-02 4.699859e-02 3.986579e-02 3.014888e-02 1.908696e-02 1.726114e-02 3.172321e-02 5.069948e-02 7.486602e-02 1.078308e-01 1.546149e-01 2.301151e-01 3.297629e-01 4.514819e-01 5.592984e-01 6.049263e-01 5.493169e-01 3.397570e-01 1.355724e-01 7.354691e-02 6.789437e-02 1.029567e-01 2.249270e-01 3.771574e-01 4.821437e-01 5.090422e-01 4.926480e-01 4.350758e-01 3.575053e-01 2.861520e-01 2.135697e-01 1.492897e-01 1.270290e-01 1.483050e-01 2.093756e-01 2.868206e-01 3.562308e-01 4.272055e-01 4.792879e-01 5.108235e-01 4.927829e-01 3.782430e-01 2.287598e-01 1.010137e-01 6.859686e-02 7.419870e-02 1.354643e-01 3.373244e-01 5.482955e-01 6.050431e-01 5.593244e-01 4.508320e-01 3.297569e-01 2.291009e-01 1.537153e-01 1.063053e-01 7.361840e-02 4.929256e-02 3.037818e-02 1.564541e-02 1.784497e-02 2.966430e-02 3.951968e-02 4.687598e-02 
5.352545e-02 5.177579e-02 4.420626e-02 3.433799e-02 2.305712e-02 2.084250e-02 3.526269e-02 5.602809e-02 8.650657e-02 1.318842e-01 2.002469e-01 3.077227e-01 4.370245e-01 5.670529e-01 6.267947e-01 5.377917e-01 2.990396e-01 6.093331e-02 3.091220e-02 1.211585e-01 3.063351e-01 4.725640e-01 5.833110e-01 5.822695e-01 4.965781e-01 4.139137e-01 3.334144e-01 2.629313e-01 2.074806e-01 1.682672e-01 1.370143e-01 1.140567e-01 1.088950e-01 1.140224e-01 1.357280e-01 1.692432e-01 2.090330e-01 2.616452e-01 3.244796e-01 4.018597e-01 4.955049e-01 5.788731e-01 5.840762e-01 4.721870e-01 3.073472e-01 1.221897e-01 3.099291e-02 5.806263e-02 2.967143e-01 5.348718e-01 6.276240e-01 5.661097e-01 4.366759e-01 3.062999e-01 1.988602e-01 1.300052e-01 8.494158e-02 5.445834e-02 3.376210e-02 1.932667e-02 2.183133e-02 3.380380e-02 4.381898e-02 5.162678e-02 
5.782789e-02 5.601446e-02 4.843149e-02 3.881034e-02 2.801792e-02 2.567955e-02 3.954341e-02 6.148858e-02 1.000906e-01 1.607602e-01 2.561215e-01 3.985336e-01 5.465019e-01 6.552058e-01 5.813942e-01 3.092165e-01 5.262041e-02 1.319498e-01 2.693341e-01 4.737689e-01 5.653803e-01 5.232903e-01 4.357187e-01 3.377354e-01 2.766268e-01 2.527627e-01 2.269621e-01 1.970784e-01 1.636964e-01 1.298001e-01 9.555003e-02 6.622145e-02 5.580930e-02 6.543131e-02 9.402634e-02 1.303557e-01 1.656079e-01 1.973259e-01 2.227170e-01 2.445387e-01 2.748051e-01 3.328643e-01 4.320801e-01 5.186890e-01 5.639287e-01 4.743465e-01 2.697964e-01 1.322772e-01 5.010667e-02 3.062040e-01 5.773843e-01 6.509647e-01 5.466308e-01 3.981439e-01 2.555722e-01 1.591144e-01 9.838838e-02 5.959796e-02 3.766598e-02 2.406398e-02 2.675109e-02 3.824038e-02 4.802754e-02 5.585397e-02 
6.332954e-02 6.158897e-02 5.393183e-02 4.458319e-02 3.288118e-02 2.870235e-02 4.000088e-02 6.408028e-02 1.147394e-01 1.982299e-01 3.278238e-01 5.079720e-01 6.577443e-01 6.683841e-01 3.776018e-01 8.426305e-02 2.349647e-01 3.867846e-01 4.900925e-01 4.805483e-01 3.711934e-01 2.974737e-01 2.738579e-01 2.521029e-01 2.187978e-01 1.866506e-01 1.541490e-01 1.237251e-01 9.816790e-02 7.749161e-02 6.199017e-02 5.046431e-02 4.822187e-02 5.061905e-02 6.200682e-02 7.842393e-02 9.903120e-02 1.229224e-01 1.504232e-01 1.809872e-01 2.187757e-01 2.504434e-01 2.728349e-01 2.943269e-01 3.668221e-01 4.776602e-01 4.883423e-01 3.872529e-01 2.360675e-01 8.364561e-02 3.791687e-01 6.623561e-01 6.528435e-01 5.056606e-01 3.262556e-01 1.965538e-01 1.132106e-01 6.247994e-02 3.822326e-02 2.730454e-02 3.168503e-02 4.395673e-02 5.348817e-02 6.139199e-02 
6.711370e-02 6.525482e-02 5.806176e-02 4.915896e-02 3.745506e-02 3.232491e-02 4.058693e-02 6.652660e-02 1.327581e-01 2.397445e-01 4.064884e-01 6.112455e-01 7.270684e-01 5.297516e-01 1.357136e-01 3.290344e-01 3.940452e-01 4.202628e-01 3.363235e-01 2.687972e-01 2.346313e-01 2.165335e-01 1.950091e-01 1.747634e-01 1.579634e-01 1.444719e-01 1.275882e-01 1.076735e-01 8.665794e-02 6.645933e-02 5.011303e-02 3.769806e-02 3.460491e-02 3.774534e-02 5.016325e-02 6.707013e-02 8.709898e-02 1.069829e-01 1.258378e-01 1.420414e-01 1.581044e-01 1.728632e-01 1.938929e-01 2.147463e-01 2.325200e-01 2.672157e-01 3.329577e-01 4.189858e-01 3.961799e-01 3.317852e-01 1.348997e-01 5.254317e-01 7.243642e-01 6.123383e-01 4.061329e-01 2.380604e-01 1.309031e-01 6.445903e-02 3.847394e-02 3.101973e-02 3.643644e-02 4.858393e-02 5.767385e-02 6.506310e-02 
7.156790e-02 6.977123e-02 6.320360e-02 5.499430e-02 4.261024e-02 3.501094e-02 3.359457e-02 6.189521e-02 1.484181e-01 2.850201e-01 4.870314e-01 7.419721e-01 7.245670e-01 2.104957e-01 4.061854e-01 3.699999e-01 3.118833e-01 2.475766e-01 1.977128e-01 1.913119e-01 1.701659e-01 1.682367e-01 1.663501e-01 1.616425e-01 1.475516e-01 1.307300e-01 1.110273e-01 9.082488e-02 7.261269e-02 5.646247e-02 4.508090e-02 3.674399e-02 3.506133e-02 3.704200e-02 4.540857e-02 5.696877e-02 7.267179e-02 9.015521e-02 1.098269e-01 1.290333e-01 1.476515e-01 1.605687e-01 1.661726e-01 1.669615e-01 1.686518e-01 1.902369e-01 1.954105e-01 2.452378e-01 3.090797e-01 3.726393e-01 4.101569e-01 2.040495e-01 7.122175e-01 7.386138e-01 4.881095e-01 2.848338e-01 1.483223e-01 6.095236e-02 3.161904e-02 3.366538e-02 4.154625e-02 5.426898e-02 6.275591e-02 6.952691e-02 
7.251507e-02 7.046337e-02 6.522196e-02 5.749520e-02 4.602672e-02 3.631719e-02 2.451444e-02 5.875104e-02 1.705418e-01 3.298830e-01 5.848134e-01 8.512155e-01 4.332461e-01 4.231850e-01 3.835067e-01 2.275331e-01 1.926924e-01 1.640103e-01 1.489791e-01 1.491304e-01 1.516238e-01 1.556276e-01 1.526535e-01 1.466108e-01 1.359216e-01 1.232020e-01 1.075261e-01 9.030753e-02 7.330553e-02 5.739369e-02 4.540941e-02 3.682117e-02 3.471702e-02 3.697939e-02 4.559337e-02 5.762352e-02 7.335852e-02 8.991778e-02 1.070784e-01 1.223036e-01 1.359178e-01 1.456171e-01 1.521992e-01 1.544916e-01 1.503042e-01 1.474815e-01 1.454439e-01 1.602093e-01 1.870297e-01 2.236503e-01 3.771139e-01 4.229576e-01 4.212576e-01 8.442259e-01 5.821837e-01 3.255582e-01 1.692054e-01 5.782950e-02 2.280031e-02 3.525125e-02 4.525235e-02 5.678121e-02 6.483366e-02 7.021082e-02 
7.315657e-02 7.105259e-02 6.777079e-02 6.117096e-02 5.235825e-02 4.075583e-02 9.597908e-03 4.726190e-02 1.918794e-01 3.492624e-01 7.238846e-01 8.155861e-01 2.332729e-01 5.099469e-01 1.685895e-01 1.770582e-01 1.405656e-01 1.395895e-01 1.360404e-01 1.484054e-01 1.489541e-01 1.536799e-01 1.497434e-01 1.440156e-01 1.311755e-01 1.167669e-01 9.968775e-02 8.292066e-02 6.739499e-02 5.389004e-02 4.409968e-02 3.730388e-02 3.561246e-02 3.740105e-02 4.419855e-02 5.394608e-02 6.733366e-02 8.249903e-02 9.932111e-02 1.159549e-01 1.310634e-01 1.432917e-01 1.494931e-01 1.529144e-01 1.480496e-01 1.471892e-01 1.337614e-01 1.361506e-01 1.362481e-01 1.724192e-01 1.637827e-01 5.026038e-01 2.463706e-01 8.004111e-01 7.252211e-01 3.493692e-01 1.937148e-01 4.849055e-02 7.093059e-03 3.911336e-02 5.144956e-02 6.025488e-02 6.732035e-02 7.074898e-02 
6.855094e-02 6.626046e-02 6.569709e-02 6.001664e-02 5.661952e-02 4.196553e-02 2.053866e-02 4.908862e-02 2.055278e-01 3.866156e-01 8.181412e-01 5.327095e-01 5.522722e-01 3.461105e-01 2.211249e-01 2.003247e-01 1.646599e-01 1.667779e-01 1.612126e-01 1.660575e-01 1.628862e-01 1.607926e-01 1.512628e-01 1.406509e-01 1.258359e-01 1.109909e-01 9.469304e-02 7.929815e-02 6.490560e-02 5.255183e-02 4.335018e-02 3.714917e-02 3.545840e-02 3.713188e-02 4.332833e-02 5.241922e-02 6.478857e-02 7.886318e-02 9.439549e-02 1.102477e-01 1.254786e-01 1.397880e-01 1.506039e-01 1.597438e-01 1.615772e-01 1.641681e-01 1.583614e-01 1.619189e-01 1.587636e-01 1.886826e-01 2.141046e-01 3.238719e-01 5.598228e-01 4.941369e-01 8.098817e-01 3.921804e-01 2.091401e-01 5.384533e-02 1.925745e-02 3.957609e-02 5.547844e-02 5.883310e-02 6.515228e-02 6.588946e-02 
6.259444e-02 6.045875e-02 6.343747e-02 5.998584e-02 6.468140e-02 4.985508e-02 4.864764e-02 5.193476e-02 1.749818e-01 4.327699e-01 7.793471e-01 3.017331e-01 5.664988e-01 1.554543e-01 2.773361e-01 1.987702e-01 2.122399e-01 1.980124e-01 1.987992e-01 1.937310e-01 1.851856e-01 1.747188e-01 1.595818e-01 1.440272e-01 1.254786e-01 1.078516e-01 8.968199e-02 7.365096e-02 5.926492e-02 4.773834e-02 3.928547e-02 3.388098e-02 3.230453e-02 3.375744e-02 3.911331e-02 4.737649e-02 5.894738e-02 7.303833e-02 8.923074e-02 1.070672e-01 1.249977e-01 1.432764e-01 1.589951e-01 1.739818e-01 1.843553e-01 1.926723e-01 1.973540e-01 1.953229e-01 2.084879e-01 1.911460e-01 2.687765e-01 1.511796e-01 5.429342e-01 2.895592e-01 7.639720e-01 4.384021e-01 1.746316e-01 5.496786e-02 4.626269e-02 4.744553e-02 6.346107e-02 5.876816e-02 6.283385e-02 6.006342e-02 
5.076477e-02 4.966772e-02 5.638855e-02 5.794558e-02 6.881894e-02 6.302792e-02 7.126328e-02 7.841468e-02 1.447771e-01 4.550537e-01 6.438998e-01 3.806437e-01 4.255863e-01 1.814499e-01 2.795617e-01 2.338707e-01 2.606905e-01 2.448327e-01 2.428958e-01 2.273097e-01 2.119985e-01 1.922401e-01 1.708961e-01 1.490299e-01 1.267578e-01 1.062609e-01 8.675145e-02 7.004709e-02 5.536119e-02 4.375223e-02 3.497069e-02 2.936966e-02 2.753956e-02 2.914030e-02 3.466823e-02 4.321360e-02 5.490675e-02 6.933029e-02 8.618934e-02 1.054578e-01 1.261410e-01 1.483230e-01 1.702940e-01 1.917743e-01 2.115626e-01 2.272082e-01 2.429772e-01 2.455344e-01 2.624050e-01 2.379680e-01 2.869411e-01 1.988830e-01 4.168046e-01 3.825860e-01 6.362337e-01 4.587709e-01 1.408895e-01 7.770383e-02 6.802225e-02 6.052207e-02 6.710616e-02 5.648139e-02 5.548155e-02 4.913774e-02 
3.691180e-02 3.818994e-02 4.832126e-02 5.749733e-02 7.028265e-02 7.914706e-02 8.305954e-02 9.947444e-02 9.491027e-02 3.719188e-01 4.697890e-01 4.674217e-01 2.866180e-01 2.908040e-01 3.059867e-01 2.986809e-01 3.084016e-01 2.926586e-01 2.822988e-01 2.596202e-01 2.374161e-01 2.108245e-01 1.842897e-01 1.576807e-01 1.319641e-01 1.084730e-01 8.675889e-02 6.827859e-02 5.211013e-02 3.926911e-02 2.904590e-02 2.221894e-02 1.959867e-02 2.177706e-02 2.848796e-02 3.844206e-02 5.140103e-02 6.736891e-02 8.600347e-02 1.076071e-01 1.312348e-01 1.570268e-01 1.836902e-01 2.105500e-01 2.370992e-01 2.598991e-01 2.824011e-01 2.937334e-01 3.089323e-01 3.018211e-01 3.069565e-01 3.011311e-01 2.769494e-01 4.708173e-01 4.684736e-01 3.715990e-01 8.984851e-02 9.770226e-02 8.014792e-02 7.727049e-02 6.839424e-02 5.607981e-02 4.713774e-02 3.753124e-02 
1.899758e-02 2.597856e-02 4.021770e-02 5.860937e-02 7.104075e-02 9.533569e-02 9.286631e-02 1.242388e-01 5.667180e-02 2.105327e-01 3.974342e-01 4.064173e-01 1.397910e-01 3.202226e-01 2.908937e-01 3.302353e-01 3.258756e-01 3.198438e-01 3.025848e-01 2.783742e-01 2.515879e-01 2.214645e-01 1.916906e-01 1.620810e-01 1.342765e-01 1.089313e-01 8.606186e-02 6.657175e-02 4.954597e-02 3.569332e-02 2.390261e-02 1.492580e-02 1.044817e-02 1.422134e-02 2.318119e-02 3.475504e-02 4.877398e-02 6.565985e-02 8.530760e-02 1.081627e-01 1.336348e-01 1.616676e-01 1.913659e-01 2.217136e-01 2.518890e-01 2.796918e-01 3.037926e-01 3.226234e-01 3.276350e-01 3.341835e-01 2.901087e-01 3.225265e-01 1.284635e-01 4.004413e-01 3.972594e-01 2.110598e-01 5.464049e-02 1.236874e-01 9.011366e-02 9.387116e-02 6.880539e-02 5.713611e-02 3.850258e-02 2.492307e-02 
9.253919e-04 1.968902e-02 3.605767e-02 5.815414e-02 6.960569e-02 9.955493e-02 9.382186e-02 1.325362e-01 4.089523e-02 5.826053e-02 3.729841e-01 3.874829e-01 1.198214e-01 3.569223e-01 3.094983e-01 3.588669e-01 3.445346e-01 3.377897e-01 3.159305e-01 2.894589e-01 2.601156e-01 2.281551e-01 1.968271e-01 1.660198e-01 1.372389e-01 1.110735e-01 8.747647e-02 6.730824e-02 4.957829e-02 3.495695e-02 2.202705e-02 1.100438e-02 4.651592e-04 9.874435e-03 2.110357e-02 3.385809e-02 4.867122e-02 6.628218e-02 8.660195e-02 1.102064e-01 1.364712e-01 1.654905e-01 1.963394e-01 2.282412e-01 2.601792e-01 2.905638e-01 3.168199e-01 3.404201e-01 3.461885e-01 3.634420e-01 3.107451e-01 3.628014e-01 1.157891e-01 3.811414e-01 3.772895e-01 5.589251e-02 3.681390e-02 1.308186e-01 9.062364e-02 9.781797e-02 6.710306e-02 5.657955e-02 3.403790e-02 1.826440e-02 
1.899758e-02 2.597856e-02 4.021770e-02 5.860937e-02 7.104075e-02 9.533569e-02 9.286631e-02 1.242388e-01 5.667180e-02 2.105327e-01 3.974342e-01 4.064173e-01 1.397910e-01 3.202226e-01 2.908937e-01 3.302353e-01 3.258756e-01 3.198438e-01 3.025848e-01 2.783742e-01 2.515879e-01 2.214645e-01 1.916906e-01 1.620810e-01 1.342765e-01 1.089313e-01 8.606186e-02 6.657175e-02 4.954597e-02 3.569332e-02 2.390261e-02 1.492580e-02 1.044817e-02 1.422134e-02 2.318119e-02 3.475504e-02 4.877398e-02 6.565985e-02 8.530760e-02 1.081627e-01 1.336348e-01 1.616676e-01 1.913659e-01 2.217136e-01 2.518890e-01 2.796918e-01 3.037926e-01 3.226234e-01 3.276350e-01 3.341835e-01 2.901087e-01 3.225265e-01 1.284635e-01 4.004413e-01 3.972594e-01 2.110598e-01 5.464049e-02 1.236874e-01 9.011366e-02 9.387116e-02 6.880539e-02 5.713611e-02 3.850258e-02 2.492307e-02 
3.691180e-02 3.818994e-02 4.832126e-02 5.749733e-02 7.028265e-02 7.914706e-02 8.305954e-02 9.947444e-02 9.491027e-02 3.719188e-01 4.697890e-01 4.674217e-01 2.866180e-01 2.908040e-01 3.059867e-01 2.986809e-01 3.084016e-01 2.926586e-01 2.822988e-01 2.596202e-01 2.374161e-01 2.108245e-01 1.842897e-01 1.576807e-01 1.319641e-01 1.084730e-01 8.675889e-02 6.827859e-02 5.211013e-02 3.926911e-02 2.904590e-02 2.221894e-02 1.959867e-02 2.177706e-02 2.848796e-02 3.844206e-02 5.140103e-02 6.736891e-02 8.600347e-02 1.076071e-01 1.312348e-01 1.570268e-01 1.836902e-01 2.105500e-01 2.370992e-01 2.598991e-01 2.824011e-01 2.937334e-01 3.089323e-01 3.018211e-01 3.069565e-01 3.011311e-01 2.769494e-01 4.708173e-01 4.684736e-01 3.715990e-01 8.984851e-02 9.770226e-02 8.014792e-02 7.727049e-02 6.839424e-02 5.607981e-02 4.713774e-02 3.753124e-02 