# vtk DataFile Version 2.0
Comment goes here
ASCII

DATASET STRUCTURED_POINTS
FIELD FieldData 1
TIME 1 1 double
1.27000000
DIMENSIONS    64   64   1

ORIGIN    0.000   0.000   0.000
SPACING   0.015625 0.015625   1.000

POINT_DATA   4096
SCALARS uMag double
LOOKUP_TABLE default

5.155752e-04 5.305308e-03 9.528585e-03 1.386115e-02 1.728396e-02 2.054244e-02 2.259823e-02 2.423706e-02 2.444884e-02 2.404617e-02 2.207936e-02 1.940274e-02 1.513221e-02 1.021639e-02 3.804877e-03 2.970506e-03 1.099833e-02 1.886005e-02 2.758167e-02 3.538705e-02 4.353159e-02 4.990592e-02 5.602320e-02 5.960523e-02 6.232866e-02 6.203807e-02 6.034918e-02 5.558247e-02 4.904228e-02 3.988202e-02 2.896654e-02 1.657660e-02 3.058653e-03 1.018149e-02 2.351188e-02 3.476003e-02 4.521098e-02 5.236009e-02 5.833370e-02 6.058361e-02 6.173693e-02 5.939338e-02 5.632320e-02 5.041752e-02 4.431953e-02 3.627393e-02 2.861342e-02 1.992995e-02 1.213432e-02 4.128784e-03 2.644317e-03 9.009884e-03 1.398879e-02 1.815946e-02 2.096880e-02 2.276509e-02 2.337057e-02 2.291515e-02 2.154395e-02 1.918088e-02 1.624405e-02 1.246786e-02 8.495520e-03 3.894345e-03 
4.625130e-03 6.958972e-03 1.047343e-02 1.445047e-02 1.769748e-02 2.083310e-02 2.283110e-02 2.443280e-02 2.466424e-02 2.430184e-02 2.245871e-02 1.996403e-02 1.607895e-02 1.190490e-02 7.741459e-03 7.900821e-03 1.343148e-02 2.050916e-02 2.877207e-02 3.632767e-02 4.430023e-02 5.052613e-02 5.658912e-02 6.006909e-02 6.281721e-02 6.249027e-02 6.091300e-02 5.626112e-02 5.002272e-02 4.137096e-02 3.137971e-02 2.108641e-02 1.371211e-02 1.682941e-02 2.678061e-02 3.674873e-02 4.652600e-02 5.325981e-02 5.905113e-02 6.112911e-02 6.226827e-02 5.987083e-02 5.686200e-02 5.100231e-02 4.502162e-02 3.714545e-02 2.970034e-02 2.144428e-02 1.430590e-02 8.350125e-03 7.195686e-03 1.089544e-02 1.502218e-02 1.878688e-02 2.140010e-02 2.307348e-02 2.363938e-02 2.316797e-02 2.184026e-02 1.954349e-02 1.674131e-02 1.317467e-02 9.601135e-03 5.997393e-03 
9.275913e-03 1.061565e-02 1.313249e-02 1.641910e-02 1.926854e-02 2.217652e-02 2.407027e-02 2.570480e-02 2.607048e-02 2.600196e-02 2.460867e-02 2.280762e-02 1.994932e-02 1.727041e-02 1.489844e-02 1.488881e-02 1.769345e-02 2.265143e-02 2.910719e-02 3.543581e-02 4.226515e-02 4.766098e-02 5.302075e-02 5.608365e-02 5.868181e-02 5.858835e-02 5.764342e-02 5.418411e-02 4.961237e-02 4.344745e-02 3.661892e-02 3.074799e-02 2.715039e-02 2.848778e-02 3.351703e-02 3.985347e-02 4.676296e-02 5.158250e-02 5.600300e-02 5.730821e-02 5.810292e-02 5.579372e-02 5.313756e-02 4.796243e-02 4.278389e-02 3.603053e-02 2.977807e-02 2.324911e-02 1.810019e-02 1.488599e-02 1.437880e-02 1.642286e-02 1.894725e-02 2.165777e-02 2.352359e-02 2.473492e-02 2.499414e-02 2.437716e-02 2.302968e-02 2.083690e-02 1.829756e-02 1.518299e-02 1.237130e-02 9.943484e-03 
1.417959e-02 1.501557e-02 1.676256e-02 1.927497e-02 2.158692e-02 2.410694e-02 2.580572e-02 2.739499e-02 2.790511e-02 2.814594e-02 2.731190e-02 2.627333e-02 2.450398e-02 2.306623e-02 2.185086e-02 2.212410e-02 2.380293e-02 2.715352e-02 3.169262e-02 3.650322e-02 4.188667e-02 4.613514e-02 5.064296e-02 5.302538e-02 5.546935e-02 5.542989e-02 5.521318e-02 5.295438e-02 5.033364e-02 4.695755e-02 4.341023e-02 4.104602e-02 3.936868e-02 4.006595e-02 4.200896e-02 4.493479e-02 4.871109e-02 5.119034e-02 5.410157e-02 5.440706e-02 5.491812e-02 5.264012e-02 5.051508e-02 4.616378e-02 4.205967e-02 3.674861e-02 3.197246e-02 2.735924e-02 2.382259e-02 2.191414e-02 2.130033e-02 2.232354e-02 2.358200e-02 2.521711e-02 2.628323e-02 2.693686e-02 2.688456e-02 2.612109e-02 2.484420e-02 2.285564e-02 2.074364e-02 1.821557e-02 1.619097e-02 1.454087e-02 
1.926989e-02 1.985265e-02 2.109693e-02 2.300665e-02 2.481360e-02 2.697758e-02 2.848565e-02 3.011076e-02 3.084860e-02 3.157543e-02 3.146132e-02 3.138228e-02 3.075778e-02 3.048216e-02 3.012666e-02 3.062121e-02 3.138698e-02 3.316184e-02 3.516782e-02 3.757935e-02 4.011528e-02 4.201329e-02 4.427274e-02 4.504361e-02 4.664013e-02 4.669929e-02 4.779972e-02 4.821633e-02 4.918407e-02 5.038048e-02 5.101096e-02 5.224808e-02 5.204668e-02 5.225992e-02 5.124671e-02 5.022571e-02 4.924679e-02 4.768251e-02 4.743279e-02 4.594929e-02 4.599538e-02 4.440002e-02 4.371374e-02 4.160624e-02 3.981997e-02 3.737232e-02 3.501891e-02 3.298603e-02 3.109300e-02 3.023825e-02 2.949031e-02 2.975436e-02 2.983204e-02 3.034083e-02 3.040175e-02 3.032343e-02 2.977512e-02 2.876332e-02 2.748078e-02 2.567660e-02 2.397106e-02 2.197641e-02 2.057704e-02 1.943585e-02 
2.483224e-02 2.520824e-02 2.605926e-02 2.742109e-02 2.873065e-02 3.047613e-02 3.174016e-02 3.331552e-02 3.423795e-02 3.536472e-02 3.591562e-02 3.663525e-02 3.699121e-02 3.759197e-02 3.796580e-02 3.872739e-02 3.913511e-02 3.996825e-02 4.017217e-02 4.052924e-02 4.034297e-02 3.968732e-02 3.941824e-02 3.807887e-02 3.858381e-02 3.821912e-02 4.035237e-02 4.279922e-02 4.686268e-02 5.198232e-02 5.628266e-02 6.061730e-02 6.176040e-02 6.166268e-02 5.833878e-02 5.402139e-02 4.906165e-02 4.391648e-02 4.102879e-02 3.787391e-02 3.780176e-02 3.709648e-02 3.830630e-02 3.876614e-02 3.953995e-02 3.987245e-02 3.963988e-02 3.949135e-02 3.860199e-02 3.821951e-02 3.724072e-02 3.687057e-02 3.606485e-02 3.564234e-02 3.488923e-02 3.415763e-02 3.322320e-02 3.201841e-02 3.082801e-02 2.926075e-02 2.801265e-02 2.651485e-02 2.564938e-02 2.486414e-02 
3.068729e-02 3.094232e-02 3.151036e-02 3.247097e-02 3.336144e-02 3.477873e-02 3.582733e-02 3.743418e-02 3.858483e-02 4.022800e-02 4.152020e-02 4.316879e-02 4.458539e-02 4.619974e-02 4.744615e-02 4.875762e-02 4.915249e-02 4.950453e-02 4.815712e-02 4.659035e-02 4.291628e-02 3.867227e-02 3.324180e-02 2.706554e-02 2.322767e-02 2.133544e-02 2.599903e-02 3.387241e-02 4.322425e-02 5.377554e-02 6.181800e-02 6.908096e-02 7.123872e-02 7.102118e-02 6.557849e-02 5.814195e-02 4.814099e-02 3.754947e-02 2.860585e-02 2.154525e-02 2.191486e-02 2.560034e-02 3.167797e-02 3.745894e-02 4.187735e-02 4.567453e-02 4.740293e-02 4.883087e-02 4.844856e-02 4.815924e-02 4.663115e-02 4.546099e-02 4.361178e-02 4.215629e-02 4.044371e-02 3.895511e-02 3.751147e-02 3.604440e-02 3.487108e-02 3.349623e-02 3.263274e-02 3.155114e-02 3.111163e-02 3.060541e-02 
3.718785e-02 3.731289e-02 3.763919e-02 3.821960e-02 3.871620e-02 3.977448e-02 4.057237e-02 4.212246e-02 4.342221e-02 4.544614e-02 4.736364e-02 4.973829e-02 5.206922e-02 5.444886e-02 5.648887e-02 5.819500e-02 5.875976e-02 5.875583e-02 5.647898e-02 5.355105e-02 4.752780e-02 4.085593e-02 3.157511e-02 2.161178e-02 1.165561e-02 4.535044e-03 1.301211e-02 2.459049e-02 3.632764e-02 5.031314e-02 6.161404e-02 7.198652e-02 7.558380e-02 7.515626e-02 6.747172e-02 5.725867e-02 4.380663e-02 3.059192e-02 1.796633e-02 6.012404e-03 9.456701e-03 2.039056e-02 3.039836e-02 3.983363e-02 4.663045e-02 5.255497e-02 5.561788e-02 5.794221e-02 5.789206e-02 5.751010e-02 5.555417e-02 5.368578e-02 5.104409e-02 4.873583e-02 4.629831e-02 4.419750e-02 4.241380e-02 4.077712e-02 3.972207e-02 3.856825e-02 3.810430e-02 3.738578e-02 3.731953e-02 3.701547e-02 
4.406175e-02 4.410547e-02 4.423643e-02 4.452171e-02 4.466672e-02 4.543612e-02 4.598780e-02 4.753434e-02 4.897643e-02 5.145488e-02 5.403186e-02 5.726559e-02 6.064289e-02 6.404318e-02 6.718418e-02 6.976684e-02 7.105577e-02 7.150869e-02 6.913198e-02 6.609417e-02 5.893541e-02 5.197958e-02 4.138774e-02 3.335151e-02 2.564568e-02 2.552306e-02 2.705423e-02 3.325178e-02 3.945944e-02 5.167889e-02 6.213822e-02 7.311585e-02 7.686396e-02 7.687556e-02 6.891949e-02 5.945479e-02 4.662678e-02 3.724153e-02 2.791122e-02 2.488208e-02 2.580670e-02 3.415306e-02 4.225138e-02 5.204768e-02 5.875392e-02 6.529530e-02 6.827691e-02 7.061326e-02 7.003095e-02 6.901485e-02 6.612691e-02 6.324934e-02 5.953727e-02 5.620990e-02 5.289558e-02 5.010168e-02 4.789969e-02 4.606520e-02 4.508842e-02 4.413975e-02 4.403350e-02 4.364812e-02 4.391278e-02 4.379940e-02 
5.166825e-02 5.160701e-02 5.156199e-02 5.154895e-02 5.135945e-02 5.181155e-02 5.208377e-02 5.354398e-02 5.503350e-02 5.783388e-02 6.094502e-02 6.486400e-02 6.918228e-02 7.339106e-02 7.760936e-02 8.082398e-02 8.296374e-02 8.362700e-02 8.153115e-02 7.833628e-02 7.102768e-02 6.482815e-02 5.554009e-02 5.240164e-02 4.882048e-02 5.206732e-02 5.147710e-02 5.154718e-02 4.765248e-02 5.031701e-02 5.646789e-02 6.742244e-02 7.192827e-02 7.196641e-02 6.332794e-02 5.644945e-02 4.958422e-02 5.047903e-02 4.849807e-02 5.014156e-02 4.958340e-02 5.420381e-02 5.836527e-02 6.600136e-02 7.173909e-02 7.780283e-02 8.070116e-02 8.265522e-02 8.171520e-02 7.997513e-02 7.635450e-02 7.254059e-02 6.797521e-02 6.378101e-02 5.980681e-02 5.647930e-02 5.403540e-02 5.211076e-02 5.130704e-02 5.058549e-02 5.084391e-02 5.074559e-02 5.130842e-02 5.133008e-02 
5.967267e-02 5.953646e-02 5.933180e-02 5.905452e-02 5.852807e-02 5.867892e-02 5.862348e-02 5.999114e-02 6.144878e-02 6.458395e-02 6.819358e-02 7.289700e-02 7.826035e-02 8.354336e-02 8.917185e-02 9.356785e-02 9.719234e-02 9.906537e-02 9.824432e-02 9.655127e-02 9.066803e-02 8.766794e-02 8.207499e-02 8.517188e-02 8.734939e-02 9.706834e-02 9.847946e-02 9.294636e-02 7.666826e-02 6.274619e-02 5.320510e-02 5.527519e-02 5.682203e-02 5.835117e-02 5.557809e-02 6.216488e-02 7.167460e-02 8.763042e-02 9.243377e-02 9.402749e-02 8.852315e-02 8.702167e-02 8.604198e-02 8.932300e-02 9.169754e-02 9.592570e-02 9.707515e-02 9.785685e-02 9.558118e-02 9.260705e-02 8.771028e-02 8.263990e-02 7.694051e-02 7.171405e-02 6.696611e-02 6.306439e-02 6.037080e-02 5.839026e-02 5.779210e-02 5.734168e-02 5.798682e-02 5.820059e-02 5.907031e-02 5.924662e-02 
6.836641e-02 6.812648e-02 6.776958e-02 6.720876e-02 6.634864e-02 6.616116e-02 6.573461e-02 6.693341e-02 6.824976e-02 7.162039e-02 7.559948e-02 8.099325e-02 8.733752e-02 9.358801e-02 1.007086e-01 1.060768e-01 1.114661e-01 1.140467e-01 1.149220e-01 1.137179e-01 1.095309e-01 1.084093e-01 1.049689e-01 1.127223e-01 1.145640e-01 1.238444e-01 1.236519e-01 1.221424e-01 1.088074e-01 8.823198e-02 6.509012e-02 4.947143e-02 4.400532e-02 4.681393e-02 5.558141e-02 7.841569e-02 9.778982e-02 1.138678e-01 1.138649e-01 1.168755e-01 1.138201e-01 1.126791e-01 1.089574e-01 1.094036e-01 1.101447e-01 1.125532e-01 1.130180e-01 1.124074e-01 1.092291e-01 1.048743e-01 9.887192e-02 9.255597e-02 8.586207e-02 7.973400e-02 7.437925e-02 7.007153e-02 6.728257e-02 6.536410e-02 6.505146e-02 6.489864e-02 6.593384e-02 6.642581e-02 6.757792e-02 6.786487e-02 
7.738454e-02 7.705305e-02 7.654647e-02 7.569016e-02 7.446081e-02 7.388457e-02 7.298451e-02 7.392312e-02 7.492961e-02 7.844951e-02 8.263969e-02 8.871767e-02 9.600423e-02 1.033556e-01 1.121198e-01 1.187971e-01 1.262499e-01 1.301375e-01 1.328740e-01 1.330201e-01 1.303475e-01 1.319904e-01 1.309841e-01 1.430195e-01 1.514374e-01 1.773161e-01 1.859707e-01 1.733395e-01 1.411104e-01 1.046224e-01 6.793784e-02 3.388296e-02 9.191033e-03 1.564954e-02 4.685994e-02 8.596701e-02 1.229043e-01 1.606479e-01 1.717783e-01 1.687440e-01 1.500544e-01 1.382640e-01 1.321200e-01 1.296372e-01 1.278314e-01 1.296791e-01 1.289480e-01 1.274997e-01 1.230312e-01 1.172940e-01 1.099208e-01 1.022050e-01 9.439095e-02 8.727207e-02 8.132161e-02 7.664567e-02 7.387648e-02 7.213818e-02 7.224805e-02 7.250420e-02 7.402567e-02 7.486433e-02 7.635095e-02 7.678275e-02 
8.686994e-02 8.641901e-02 8.576033e-02 8.457774e-02 8.296698e-02 8.194922e-02 8.051164e-02 8.110785e-02 8.165895e-02 8.525803e-02 8.947627e-02 9.624162e-02 1.043568e-01 1.128506e-01 1.233175e-01 1.311423e-01 1.409320e-01 1.451616e-01 1.501961e-01 1.492359e-01 1.491368e-01 1.509646e-01 1.523432e-01 1.726335e-01 1.733512e-01 1.774392e-01 1.626360e-01 1.790902e-01 1.952436e-01 1.827610e-01 1.484603e-01 8.810766e-02 2.164121e-02 4.975110e-02 1.144009e-01 1.618228e-01 1.810612e-01 1.685256e-01 1.409360e-01 1.527706e-01 1.629544e-01 1.603893e-01 1.496086e-01 1.431013e-01 1.414294e-01 1.425710e-01 1.430620e-01 1.408143e-01 1.359661e-01 1.288721e-01 1.203563e-01 1.113670e-01 1.025307e-01 9.463968e-02 8.822472e-02 8.340765e-02 8.078722e-02 7.937360e-02 7.996485e-02 8.067018e-02 8.267281e-02 8.384042e-02 8.563726e-02 8.618264e-02 
9.646010e-02 9.588071e-02 9.507248e-02 9.351017e-02 9.147453e-02 8.989890e-02 8.779734e-02 8.785990e-02 8.771218e-02 9.115933e-02 9.507656e-02 1.023152e-01 1.109139e-01 1.203134e-01 1.320775e-01 1.406165e-01 1.519253e-01 1.556499e-01 1.609364e-01 1.578637e-01 1.570801e-01 1.599700e-01 1.609904e-01 1.739081e-01 1.854311e-01 2.419052e-01 2.489399e-01 2.185685e-01 1.926183e-01 1.726182e-01 1.610914e-01 1.466775e-01 1.354482e-01 1.322215e-01 1.382672e-01 1.444514e-01 1.557903e-01 1.904032e-01 2.217371e-01 2.228034e-01 1.745552e-01 1.458780e-01 1.472575e-01 1.434718e-01 1.398769e-01 1.457987e-01 1.490216e-01 1.488998e-01 1.448106e-01 1.374727e-01 1.284015e-01 1.184173e-01 1.088754e-01 1.003120e-01 9.371744e-02 8.892750e-02 8.676675e-02 8.588830e-02 8.722143e-02 8.853692e-02 9.118374e-02 9.276829e-02 9.495958e-02 9.565082e-02 
1.060766e-01 1.053497e-01 1.043841e-01 1.024091e-01 9.992963e-02 9.772835e-02 9.488316e-02 9.430287e-02 9.324898e-02 9.644894e-02 9.970600e-02 1.074310e-01 1.160405e-01 1.263851e-01 1.388642e-01 1.477220e-01 1.599325e-01 1.615132e-01 1.671683e-01 1.583856e-01 1.638205e-01 1.645960e-01 1.918490e-01 2.576603e-01 2.842903e-01 2.446606e-01 1.112225e-01 1.116113e-01 1.418827e-01 1.518900e-01 1.524196e-01 1.354409e-01 1.304728e-01 1.347462e-01 1.556965e-01 1.627422e-01 1.571815e-01 1.213117e-01 8.864389e-02 1.967388e-01 2.507244e-01 2.316891e-01 1.779572e-01 1.406468e-01 1.360273e-01 1.423520e-01 1.499567e-01 1.514114e-01 1.491488e-01 1.424761e-01 1.335641e-01 1.235413e-01 1.136638e-01 1.050968e-01 9.854338e-02 9.419225e-02 9.261381e-02 9.246210e-02 9.455854e-02 9.653562e-02 9.979642e-02 1.017943e-01 1.043449e-01 1.051658e-01 
1.153962e-01 1.144895e-01 1.133833e-01 1.109125e-01 1.079769e-01 1.049854e-01 1.013163e-01 9.980741e-02 9.761072e-02 1.001378e-01 1.022305e-01 1.098488e-01 1.175812e-01 1.278265e-01 1.395091e-01 1.466864e-01 1.575388e-01 1.543226e-01 1.571567e-01 1.404116e-01 1.508069e-01 1.715636e-01 2.476563e-01 1.990112e-01 5.993524e-02 1.881257e-01 2.695223e-01 1.718577e-01 1.084638e-01 8.473010e-02 7.919360e-02 6.206885e-02 4.390196e-02 4.948596e-02 7.248593e-02 7.625856e-02 9.396870e-02 1.703601e-01 2.614933e-01 2.269521e-01 6.385902e-02 1.392555e-01 2.028026e-01 1.585780e-01 1.185341e-01 1.241880e-01 1.375722e-01 1.422595e-01 1.437240e-01 1.393345e-01 1.325537e-01 1.234828e-01 1.145861e-01 1.065485e-01 1.008849e-01 9.735907e-02 9.695809e-02 9.781177e-02 1.010397e-01 1.038348e-01 1.079031e-01 1.103805e-01 1.133819e-01 1.143420e-01 
1.240749e-01 1.229894e-01 1.217420e-01 1.187617e-01 1.153741e-01 1.115328e-01 1.069946e-01 1.044176e-01 1.008478e-01 1.024807e-01 1.027378e-01 1.099850e-01 1.154018e-01 1.250492e-01 1.335259e-01 1.381671e-01 1.457066e-01 1.383939e-01 1.385220e-01 1.154591e-01 1.461778e-01 1.707896e-01 9.414030e-02 1.636022e-01 2.229896e-01 1.219189e-01 1.812680e-01 2.943702e-01 2.668281e-01 2.460846e-01 2.096802e-01 1.918929e-01 1.848495e-01 1.844312e-01 2.026141e-01 2.288948e-01 2.603921e-01 2.829353e-01 2.024243e-01 9.699076e-02 2.131526e-01 2.045666e-01 3.352011e-02 1.370533e-01 1.264611e-01 1.117370e-01 1.221259e-01 1.249150e-01 1.270786e-01 1.265955e-01 1.232728e-01 1.182440e-01 1.116752e-01 1.059783e-01 1.017663e-01 9.980826e-02 1.006917e-01 1.027564e-01 1.070438e-01 1.106834e-01 1.154678e-01 1.184191e-01 1.218084e-01 1.229054e-01 
1.318780e-01 1.305631e-01 1.292182e-01 1.256442e-01 1.218724e-01 1.170168e-01 1.116896e-01 1.077157e-01 1.027501e-01 1.028394e-01 1.007392e-01 1.063408e-01 1.077179e-01 1.141353e-01 1.163858e-01 1.146682e-01 1.196353e-01 1.090688e-01 1.076314e-01 6.857939e-02 9.205483e-02 5.567458e-02 1.797348e-01 1.374386e-01 1.049760e-01 2.540144e-01 2.634124e-01 2.185365e-01 2.240269e-01 2.100839e-01 2.164104e-01 2.116008e-01 2.171877e-01 2.121211e-01 2.143425e-01 2.007172e-01 2.030841e-01 2.060542e-01 2.453027e-01 2.634553e-01 1.429190e-01 8.417619e-02 2.004857e-01 1.059683e-01 5.314407e-02 5.654997e-02 9.103809e-02 1.003270e-01 1.022401e-01 1.009534e-01 1.025947e-01 1.029509e-01 1.020525e-01 1.002194e-01 9.939011e-02 9.969266e-02 1.027594e-01 1.062556e-01 1.119667e-01 1.164909e-01 1.221273e-01 1.255355e-01 1.293638e-01 1.305612e-01 
1.382023e-01 1.366939e-01 1.352796e-01 1.311577e-01 1.270840e-01 1.212302e-01 1.152269e-01 1.097603e-01 1.033854e-01 1.015322e-01 9.627323e-02 9.918405e-02 9.346247e-02 9.460594e-02 8.579759e-02 7.985709e-02 9.462184e-02 1.011927e-01 8.984505e-02 3.752850e-02 5.751245e-02 1.592277e-01 3.861181e-02 1.145370e-01 1.607654e-01 9.843433e-02 3.663441e-02 4.869709e-02 1.122569e-01 1.522520e-01 1.973222e-01 2.202551e-01 2.349139e-01 2.247603e-01 2.039380e-01 1.596832e-01 1.143518e-01 5.908604e-02 1.893271e-02 7.486665e-02 1.400829e-01 1.352434e-01 2.261124e-02 1.466802e-01 1.114071e-01 6.414659e-02 9.770307e-02 1.041736e-01 9.095427e-02 7.127939e-02 6.823976e-02 7.845343e-02 8.622446e-02 9.191701e-02 9.545066e-02 9.894644e-02 1.040872e-01 1.090473e-01 1.158901e-01 1.212143e-01 1.274942e-01 1.313172e-01 1.354725e-01 1.367739e-01 
1.429704e-01 1.412172e-01 1.398126e-01 1.351131e-01 1.309308e-01 1.240143e-01 1.177047e-01 1.105242e-01 1.033070e-01 9.877682e-02 9.061285e-02 8.862739e-02 7.355419e-02 6.396627e-02 4.292808e-02 5.366249e-02 1.241516e-01 1.701643e-01 9.646269e-02 4.432121e-02 9.815589e-02 4.215383e-02 5.495812e-02 3.326501e-02 3.784436e-02 4.617061e-02 2.060648e-02 7.147387e-02 1.318353e-01 1.732531e-01 2.096531e-01 2.242502e-01 2.352447e-01 2.276047e-01 2.151464e-01 1.827419e-01 1.419105e-01 8.753598e-02 3.416148e-02 4.627181e-02 3.956235e-02 2.600823e-02 5.952700e-02 7.126136e-03 7.832293e-02 5.935837e-02 1.001623e-01 1.786239e-01 1.636881e-01 9.627860e-02 4.040064e-02 3.848438e-02 6.208633e-02 7.850797e-02 8.953513e-02 9.671161e-02 1.046891e-01 1.108961e-01 1.189263e-01 1.248007e-01 1.316457e-01 1.357106e-01 1.401310e-01 1.414334e-01 
1.453902e-01 1.434785e-01 1.421658e-01 1.370559e-01 1.329891e-01 1.252315e-01 1.190436e-01 1.103299e-01 1.029637e-01 9.553154e-02 8.506078e-02 7.655832e-02 5.004927e-02 2.404957e-02 4.421679e-02 1.140669e-01 2.349110e-01 1.913920e-01 1.574026e-02 5.459866e-02 8.773474e-02 4.750193e-02 5.935227e-02 7.630446e-02 7.615306e-02 8.719456e-02 9.613974e-02 1.168973e-01 1.324705e-01 1.562255e-01 1.819115e-01 1.972535e-01 2.073420e-01 2.008612e-01 1.883663e-01 1.651713e-01 1.428105e-01 1.262367e-01 1.091839e-01 9.492268e-02 8.135794e-02 8.084744e-02 7.145760e-02 5.367741e-02 7.438560e-02 6.754838e-02 7.469935e-03 1.252995e-01 2.492380e-01 1.777188e-01 8.115656e-02 9.589225e-03 3.700721e-02 6.686397e-02 8.457976e-02 9.523812e-02 1.051185e-01 1.120977e-01 1.206499e-01 1.267824e-01 1.338100e-01 1.379927e-01 1.424926e-01 1.437880e-01 
1.456219e-01 1.435330e-01 1.424292e-01 1.370267e-01 1.334111e-01 1.250220e-01 1.196414e-01 1.095812e-01 1.034440e-01 9.294550e-02 8.323302e-02 6.732059e-02 4.277770e-02 3.458118e-02 1.158504e-01 2.238356e-01 2.852125e-01 4.129724e-02 2.450937e-02 1.569235e-01 1.375016e-01 1.346217e-01 1.161458e-01 1.196398e-01 1.165212e-01 1.198198e-01 1.096957e-01 1.197294e-01 1.310870e-01 1.512289e-01 1.701176e-01 1.806476e-01 1.877984e-01 1.829631e-01 1.745545e-01 1.574768e-01 1.388390e-01 1.254194e-01 1.162343e-01 1.224719e-01 1.238577e-01 1.282190e-01 1.283521e-01 1.441416e-01 1.470123e-01 1.865600e-01 7.109096e-02 3.226936e-02 2.218293e-01 2.947040e-01 1.527097e-01 6.898359e-02 4.037329e-02 6.211938e-02 8.457451e-02 9.613873e-02 1.072125e-01 1.138267e-01 1.222052e-01 1.279371e-01 1.346690e-01 1.385899e-01 1.429132e-01 1.440201e-01 
1.428072e-01 1.406890e-01 1.399451e-01 1.346201e-01 1.318421e-01 1.234369e-01 1.195839e-01 1.090090e-01 1.054679e-01 9.284696e-02 8.748229e-02 6.755278e-02 6.634534e-02 8.913610e-02 2.029598e-01 3.302240e-01 1.433847e-01 8.292400e-02 1.561756e-01 2.554776e-01 1.756428e-01 1.724479e-01 1.488872e-01 1.492929e-01 1.380519e-01 1.375702e-01 1.286893e-01 1.299125e-01 1.265698e-01 1.331874e-01 1.405820e-01 1.468990e-01 1.514598e-01 1.486608e-01 1.441204e-01 1.366701e-01 1.310696e-01 1.313782e-01 1.321092e-01 1.374746e-01 1.414415e-01 1.492779e-01 1.573499e-01 1.653542e-01 1.811911e-01 2.158310e-01 2.506586e-01 2.399604e-02 4.305006e-02 3.345046e-01 2.514006e-01 1.227413e-01 7.517460e-02 7.124297e-02 8.959640e-02 9.940974e-02 1.097943e-01 1.151864e-01 1.224127e-01 1.272757e-01 1.331334e-01 1.365460e-01 1.404015e-01 1.412672e-01 
1.374037e-01 1.353125e-01 1.350877e-01 1.302351e-01 1.287372e-01 1.210448e-01 1.194286e-01 1.093078e-01 1.093965e-01 9.576803e-02 9.742801e-02 7.679887e-02 1.031542e-01 1.267645e-01 3.084914e-01 2.700828e-01 7.932145e-02 6.779842e-02 3.237724e-01 2.429826e-01 1.937649e-01 1.743863e-01 1.572261e-01 1.508218e-01 1.403245e-01 1.339082e-01 1.205512e-01 1.165152e-01 1.111716e-01 1.154505e-01 1.200342e-01 1.244317e-01 1.274336e-01 1.254393e-01 1.222644e-01 1.172360e-01 1.135468e-01 1.161158e-01 1.208912e-01 1.321986e-01 1.410676e-01 1.507343e-01 1.597814e-01 1.695140e-01 1.931083e-01 2.089851e-01 3.262753e-01 1.988015e-01 1.122536e-01 1.996371e-01 3.660902e-01 1.673535e-01 1.280427e-01 9.156455e-02 1.040747e-01 1.082253e-01 1.156209e-01 1.186530e-01 1.232345e-01 1.264193e-01 1.304790e-01 1.328153e-01 1.357123e-01 1.360689e-01 
1.286270e-01 1.267682e-01 1.272786e-01 1.235540e-01 1.237991e-01 1.179879e-01 1.191062e-01 1.111134e-01 1.150739e-01 1.024920e-01 1.119852e-01 9.247976e-02 1.439369e-01 1.656261e-01 3.770041e-01 9.591542e-02 8.223807e-02 3.034737e-01 3.251294e-01 2.245652e-01 1.768822e-01 1.635696e-01 1.477525e-01 1.441042e-01 1.338833e-01 1.270883e-01 1.149878e-01 1.081767e-01 9.849185e-02 9.619439e-02 9.419993e-02 9.501999e-02 9.593356e-02 9.540103e-02 9.530678e-02 9.606437e-02 9.869165e-02 1.059158e-01 1.134582e-01 1.238976e-01 1.324055e-01 1.416509e-01 1.481016e-01 1.596198e-01 1.705151e-01 2.134212e-01 2.787616e-01 4.024286e-01 2.717081e-02 7.757204e-02 3.752553e-01 2.412273e-01 1.558998e-01 1.150425e-01 1.181703e-01 1.176795e-01 1.211214e-01 1.218035e-01 1.229139e-01 1.240406e-01 1.255834e-01 1.264332e-01 1.279261e-01 1.276069e-01 
1.172267e-01 1.157661e-01 1.172433e-01 1.154468e-01 1.178994e-01 1.153548e-01 1.193770e-01 1.153696e-01 1.219915e-01 1.131549e-01 1.244649e-01 1.153401e-01 1.614735e-01 2.357785e-01 3.485294e-01 1.360513e-01 9.483272e-02 4.336538e-01 2.505693e-01 2.076641e-01 1.421105e-01 1.379774e-01 1.272132e-01 1.228125e-01 1.161853e-01 1.073776e-01 9.653495e-02 8.827243e-02 7.955754e-02 7.679992e-02 7.460811e-02 7.501285e-02 7.532129e-02 7.502849e-02 7.496029e-02 7.606636e-02 7.874703e-02 8.589472e-02 9.397780e-02 1.046838e-01 1.136849e-01 1.211444e-01 1.264783e-01 1.320661e-01 1.386883e-01 1.776733e-01 2.021667e-01 4.024398e-01 2.320349e-01 1.475999e-01 2.384137e-01 3.217955e-01 1.513046e-01 1.507702e-01 1.280920e-01 1.327704e-01 1.274318e-01 1.271877e-01 1.233130e-01 1.219677e-01 1.200281e-01 1.186792e-01 1.181221e-01 1.167291e-01 
1.026177e-01 1.017957e-01 1.045517e-01 1.056504e-01 1.106899e-01 1.128642e-01 1.193356e-01 1.213629e-01 1.277550e-01 1.270395e-01 1.288033e-01 1.375285e-01 1.383075e-01 2.754613e-01 2.136767e-01 1.763395e-01 2.709686e-01 3.819091e-01 1.595306e-01 1.414159e-01 9.932390e-02 9.731564e-02 1.017008e-01 9.759503e-02 9.680779e-02 8.866232e-02 8.162152e-02 7.359583e-02 6.550047e-02 6.034757e-02 5.549512e-02 5.357228e-02 5.254967e-02 5.302581e-02 5.474679e-02 5.852413e-02 6.335315e-02 7.077423e-02 7.816505e-02 8.618549e-02 9.328534e-02 9.712160e-02 1.002636e-01 9.663456e-02 1.021975e-01 1.186945e-01 1.662852e-01 3.093315e-01 3.872738e-01 9.283855e-02 8.214971e-02 3.515549e-01 1.641247e-01 1.792850e-01 1.354974e-01 1.471745e-01 1.328860e-01 1.324364e-01 1.233677e-01 1.192355e-01 1.132459e-01 1.090033e-01 1.057690e-01 1.028530e-01 
8.574952e-02 8.588121e-02 9.035750e-02 9.554488e-02 1.035772e-01 1.117785e-01 1.205437e-01 1.300506e-01 1.360553e-01 1.459918e-01 1.406493e-01 1.635701e-01 1.413125e-01 2.848219e-01 1.084185e-01 1.484307e-01 3.374202e-01 2.799136e-01 9.910748e-02 6.737182e-02 5.275822e-02 5.126686e-02 7.314140e-02 6.759501e-02 7.251654e-02 6.403572e-02 6.081072e-02 5.364599e-02 4.862233e-02 4.441562e-02 4.090028e-02 3.917280e-02 3.810755e-02 3.851337e-02 3.974248e-02 4.276404e-02 4.629220e-02 5.183688e-02 5.749194e-02 6.348288e-02 6.907247e-02 7.086840e-02 7.161986e-02 6.187242e-02 5.791394e-02 5.085493e-02 1.153255e-01 1.973600e-01 3.958993e-01 9.557461e-02 9.180297e-02 2.935352e-01 1.805087e-01 1.729375e-01 1.415699e-01 1.539306e-01 1.389833e-01 1.363738e-01 1.242968e-01 1.164556e-01 1.066589e-01 9.859030e-02 9.212890e-02 8.698549e-02 
6.635781e-02 6.779310e-02 7.470797e-02 8.508905e-02 9.644540e-02 1.108570e-01 1.217847e-01 1.378434e-01 1.442719e-01 1.618029e-01 1.553480e-01 1.820328e-01 1.626452e-01 2.614536e-01 5.873285e-02 1.331462e-01 2.939852e-01 2.028580e-01 6.630007e-02 3.830626e-02 2.777731e-02 3.318046e-02 5.278647e-02 4.604655e-02 5.188623e-02 4.451199e-02 4.512742e-02 4.005814e-02 3.774245e-02 3.340791e-02 2.939773e-02 2.593724e-02 2.390283e-02 2.467107e-02 2.709537e-02 3.114656e-02 3.463127e-02 3.841192e-02 4.148837e-02 4.442439e-02 4.774446e-02 4.938215e-02 4.948714e-02 4.452926e-02 2.790491e-02 1.327750e-02 5.935226e-02 1.070616e-01 3.054966e-01 1.594384e-01 1.264149e-01 2.096958e-01 1.843095e-01 1.588796e-01 1.542777e-01 1.592848e-01 1.480641e-01 1.399608e-01 1.265979e-01 1.139121e-01 1.007705e-01 8.790394e-02 7.757969e-02 6.907002e-02 
4.543487e-02 4.902618e-02 5.956594e-02 7.610626e-02 9.069551e-02 1.106225e-01 1.233974e-01 1.443673e-01 1.519675e-01 1.734048e-01 1.689104e-01 1.882525e-01 1.672739e-01 1.930081e-01 4.734155e-02 1.198572e-01 2.246042e-01 1.365910e-01 5.467525e-02 7.191377e-02 4.939803e-02 5.627404e-02 4.675494e-02 3.785002e-02 3.345519e-02 2.551845e-02 2.758597e-02 2.503645e-02 2.614069e-02 2.335076e-02 2.078935e-02 1.714830e-02 1.499443e-02 1.576964e-02 1.819040e-02 2.162239e-02 2.347749e-02 2.472724e-02 2.493337e-02 2.618181e-02 3.019401e-02 3.742561e-02 4.512763e-02 5.454228e-02 5.577035e-02 5.959706e-02 6.911485e-02 6.939152e-02 2.071370e-01 1.767217e-01 1.327067e-01 1.541842e-01 2.014413e-01 1.607269e-01 1.776182e-01 1.650622e-01 1.587096e-01 1.423707e-01 1.292505e-01 1.114071e-01 9.600342e-02 7.811592e-02 6.372331e-02 5.040312e-02 
2.319852e-02 3.102683e-02 4.704602e-02 6.956966e-02 8.686161e-02 1.106011e-01 1.250391e-01 1.489529e-01 1.587395e-01 1.818163e-01 1.829878e-01 1.949891e-01 1.790557e-01 1.446183e-01 5.763106e-02 1.479607e-01 1.276561e-01 7.745127e-02 5.475794e-02 9.489106e-02 6.953462e-02 7.531143e-02 4.902691e-02 3.957453e-02 2.127252e-02 1.301704e-02 1.587039e-02 1.743804e-02 2.123823e-02 1.915251e-02 1.652173e-02 1.096395e-02 6.907002e-03 8.353385e-03 1.272228e-02 1.695025e-02 1.827176e-02 1.735058e-02 1.381922e-02 1.253331e-02 2.021497e-02 3.447788e-02 5.136415e-02 6.788824e-02 8.280682e-02 8.496057e-02 9.171455e-02 4.637875e-02 1.132300e-01 1.827621e-01 1.092047e-01 8.870057e-02 2.249968e-01 1.722872e-01 2.024075e-01 1.714537e-01 1.688710e-01 1.448496e-01 1.323044e-01 1.102204e-01 9.341126e-02 7.130536e-02 5.309863e-02 3.305185e-02 
3.389255e-03 2.173486e-02 4.192742e-02 6.719929e-02 8.541121e-02 1.104581e-01 1.252959e-01 1.500688e-01 1.604139e-01 1.836299e-01 1.868846e-01 1.952944e-01 1.810012e-01 1.109344e-01 4.350206e-02 1.425802e-01 6.938022e-02 4.719972e-02 5.769370e-02 1.047936e-01 7.995791e-02 8.461830e-02 5.380513e-02 4.385916e-02 1.887020e-02 8.424934e-03 6.834180e-03 1.194763e-02 1.741673e-02 1.608352e-02 1.400425e-02 8.019559e-03 2.138467e-03 4.969238e-03 1.024552e-02 1.439990e-02 1.504271e-02 1.281448e-02 6.145838e-03 4.216794e-03 1.878789e-02 3.624624e-02 5.646002e-02 7.480650e-02 9.431333e-02 9.570645e-02 1.042872e-01 4.459261e-02 4.809957e-02 1.765569e-01 9.483541e-02 4.673112e-02 2.281685e-01 1.754744e-01 2.097665e-01 1.727181e-01 1.715298e-01 1.449172e-01 1.327518e-01 1.092420e-01 9.208329e-02 6.841618e-02 4.863181e-02 2.411064e-02 
2.319852e-02 3.102683e-02 4.704602e-02 6.956966e-02 8.686161e-02 1.106011e-01 1.250391e-01 1.489529e-01 1.587395e-01 1.818163e-01 1.829878e-01 1.949891e-01 1.790557e-01 1.446183e-01 5.763106e-02 1.479607e-01 1.276561e-01 7.745127e-02 5.475794e-02 9.489106e-02 6.953462e-02 7.531143e-02 4.902691e-02 3.957453e-02 2.127252e-02 1.301704e-02 1.587039e-02 1.743804e-02 2.123823e-02 1.915251e-02 1.652173e-02 1.096395e-02 6.907002e-03 8.353385e-03 1.272228e-02 1.695025e-02 1.827176e-02 1.735058e-02 1.381922e-02 1.253331e-02 2.021497e-02 3.447788e-02 5.136415e-02 6.788824e-02 8.280682e-02 8.496057e-02 9.171455e-02 4.637875e-02 1.132300e-01 1.827621e-01 1.092047e-01 8.870057e-02 2.249968e-01 1.722872e-01 2.024075e-01 1.714537e-01 1.688710e-01 1.448496e-01 1.323044e-01 1.102204e-01 9.341126e-02 7.130536e-02 5.309863e-02 3.305185e-02 
4.543487e-02 4.902618e-02 5.956594e-02 7.610626e-02 9.069551e-02 1.106225e-01 1.233974e-01 1.443673e-01 1.519675e-01 1.734048e-01 1.689104e-01 1.882525e-01 1.672739e-01 1.930081e-01 4.734155e-02 1.198572e-01 2.246042e-01 1.365910e-01 5.467525e-02 7.191377e-02 4.939803e-02 5.627404e-02 4.675494e-02 3.785002e-02 3.345519e-02 2.551845e-02 2.758597e-02 2.503645e-02 2.614069e-02 2.335076e-02 2.078935e-02 1.714830e-02 1.499443e-02 1.576964e-02 1.819040e-02 2.162239e-02 2.347749e-02 2.472724e-02 2.493337e-02 2.618181e-02 3.019401e-02 3.742561e-02 4.512763e-02 5.454228e-02 5.577035e-02 5.959706e-02 6.911485e-02 6.939152e-02 2.071370e-01 1.767217e-01 1.327067e-01 1.541842e-01 2.014413e-01 1.607269e-01 1.776182e-01 1.650622e-01 1.587096e-01 1.423707e-01 1.292505e-01 1.114071e-01 9.600342e-02 7.811592e-02 6.372331e-02 5.040312e-02 