# vtk DataFile Version 2.0
Comment goes here
ASCII

DATASET STRUCTURED_POINTS
FIELD FieldData 1
TIME 1 1 double
0.26000000
DIMENSIONS    64   64   1

ORIGIN    0.000   0.000   0.000
SPACING   0.015625 0.015625   1.000

POINT_DATA   4096
SCALARS uMag double
LOOKUP_TABLE default

2.837247e-04 2.128553e-02 4.294740e-02 6.481050e-02 8.695386e-02 1.094635e-01 1.323960e-01 1.558067e-01 1.797037e-01 2.041019e-01 2.289301e-01 2.541473e-01 2.795654e-01 3.050614e-01 3.302857e-01 3.549895e-01 3.786103e-01 4.007120e-01 4.204728e-01 4.372083e-01 4.498304e-01 4.574030e-01 4.586679e-01 4.525817e-01 4.379844e-01 4.140822e-01 3.802574e-01 3.364488e-01 2.830197e-01 2.209898e-01 1.517605e-01 7.743507e-02 4.297927e-04 7.663469e-02 1.509331e-01 2.202774e-01 2.822796e-01 3.358579e-01 3.796416e-01 4.136064e-01 4.375269e-01 4.522211e-01 4.583763e-01 4.571653e-01 4.496948e-01 4.371001e-01 4.204782e-01 4.007337e-01 3.787411e-01 3.551338e-01 3.305259e-01 3.053151e-01 2.798987e-01 2.544934e-01 2.293396e-01 2.045223e-01 1.801731e-01 1.562838e-01 1.329099e-01 1.099811e-01 8.749804e-02 6.535384e-02 4.350913e-02 2.184135e-02 
2.156490e-02 3.032785e-02 4.809545e-02 6.835321e-02 8.964653e-02 1.116451e-01 1.342385e-01 1.574252e-01 1.811678e-01 2.054760e-01 2.302615e-01 2.554883e-01 2.809697e-01 3.065837e-01 3.320042e-01 3.569687e-01 3.809662e-01 4.035196e-01 4.238916e-01 4.413135e-01 4.548187e-01 4.633234e-01 4.657307e-01 4.607704e-01 4.474692e-01 4.247604e-01 3.921777e-01 3.495373e-01 2.973593e-01 2.373128e-01 1.723470e-01 1.100842e-01 7.703592e-02 1.095584e-01 1.716697e-01 2.367065e-01 2.967084e-01 3.490355e-01 3.916342e-01 4.243602e-01 4.470761e-01 4.604676e-01 4.654914e-01 4.631235e-01 4.547171e-01 4.412230e-01 4.239096e-01 4.035393e-01 3.810884e-01 3.570925e-01 3.322170e-01 3.068009e-01 2.812602e-01 2.557851e-01 2.306164e-01 2.058373e-01 1.815736e-01 1.578354e-01 1.346810e-01 1.120875e-01 9.010840e-02 6.880374e-02 4.853564e-02 3.067168e-02 
4.303743e-02 4.801857e-02 6.081579e-02 7.783150e-02 9.708596e-02 1.177304e-01 1.393981e-01 1.619224e-01 1.852079e-01 2.091999e-01 2.338066e-01 2.589687e-01 2.845096e-01 3.103164e-01 3.360657e-01 3.615382e-01 3.861981e-01 4.096436e-01 4.310610e-01 4.497833e-01 4.646957e-01 4.748416e-01 4.789081e-01 4.758078e-01 4.643570e-01 4.438094e-01 4.137197e-01 3.744675e-01 3.272344e-01 2.746489e-01 2.214836e-01 1.775172e-01 1.591759e-01 1.771489e-01 2.209148e-01 2.740589e-01 3.265739e-01 3.739331e-01 4.131183e-01 4.433568e-01 4.639044e-01 4.754493e-01 4.786212e-01 4.745968e-01 4.645620e-01 4.496666e-01 4.310644e-01 4.096579e-01 3.863232e-01 3.616756e-01 3.362973e-01 3.105621e-01 2.848313e-01 2.593042e-01 2.342007e-01 2.096049e-01 1.856554e-01 1.623752e-01 1.398774e-01 1.182043e-01 9.756452e-02 7.827708e-02 6.120614e-02 4.826331e-02 
6.429929e-02 6.775602e-02 7.737901e-02 9.140385e-02 1.083293e-01 1.272512e-01 1.476500e-01 1.692542e-01 1.918876e-01 2.154596e-01 2.398559e-01 2.650185e-01 2.907896e-01 3.170763e-01 3.436098e-01 3.701928e-01 3.963710e-01 4.217416e-01 4.455827e-01 4.671666e-01 4.854709e-01 4.993730e-01 5.076777e-01 5.089815e-01 5.023037e-01 4.864354e-01 4.611907e-01 4.265931e-01 3.840128e-01 3.372799e-01 2.921260e-01 2.577399e-01 2.445486e-01 2.574851e-01 2.917336e-01 3.368331e-01 3.834820e-01 4.261937e-01 4.606683e-01 4.860851e-01 5.019268e-01 5.086854e-01 5.074544e-01 4.991591e-01 4.853743e-01 4.670565e-01 4.455927e-01 4.217410e-01 3.964752e-01 3.702960e-01 3.437980e-01 3.172710e-01 2.910506e-01 2.652890e-01 2.401762e-01 2.157879e-01 1.922502e-01 1.696192e-01 1.480324e-01 1.276232e-01 1.086937e-01 9.172734e-02 7.764068e-02 6.790427e-02 
8.527525e-02 8.791218e-02 9.554718e-02 1.072610e-01 1.220838e-01 1.392568e-01 1.582901e-01 1.788454e-01 2.007407e-01 2.238306e-01 2.480283e-01 2.732622e-01 2.994261e-01 3.264631e-01 3.541570e-01 3.823937e-01 4.107330e-01 4.388804e-01 4.660354e-01 4.915629e-01 5.142175e-01 5.329225e-01 5.461009e-01 5.524068e-01 5.504134e-01 5.392908e-01 5.187557e-01 4.899964e-01 4.552474e-01 4.179688e-01 3.827238e-01 3.564928e-01 3.467521e-01 3.562712e-01 3.824345e-01 4.175563e-01 4.547460e-01 4.895962e-01 5.181535e-01 5.388929e-01 5.499682e-01 5.520411e-01 5.458296e-01 5.326490e-01 5.140889e-01 4.914190e-01 4.660304e-01 4.388731e-01 4.108397e-01 3.825117e-01 3.543626e-01 3.266867e-01 2.997144e-01 2.735683e-01 2.483794e-01 2.241939e-01 2.011309e-01 1.792372e-01 1.586885e-01 1.396384e-01 1.224426e-01 1.075682e-01 9.578138e-02 8.803902e-02 
1.058052e-01 1.079704e-01 1.143167e-01 1.243601e-01 1.374687e-01 1.531041e-01 1.708470e-01 1.903972e-01 2.115731e-01 2.342461e-01 2.583529e-01 2.838633e-01 3.107420e-01 3.390015e-01 3.685401e-01 3.993180e-01 4.310200e-01 4.633844e-01 4.956875e-01 5.272324e-01 5.567581e-01 5.829782e-01 6.042826e-01 6.188738e-01 6.255589e-01 6.225615e-01 6.101065e-01 5.871716e-01 5.551332e-01 5.201523e-01 4.880936e-01 4.657309e-01 4.578508e-01 4.655440e-01 4.879564e-01 5.198621e-01 5.547690e-01 5.869461e-01 6.095408e-01 6.222860e-01 6.252073e-01 6.185642e-01 6.040970e-01 5.827206e-01 5.566686e-01 5.270784e-01 4.956750e-01 4.633441e-01 4.310834e-01 3.993818e-01 3.686777e-01 3.391538e-01 3.109465e-01 2.840859e-01 2.586108e-01 2.345178e-01 2.118645e-01 1.906921e-01 1.711435e-01 1.533866e-01 1.377282e-01 1.245779e-01 1.144773e-01 1.080557e-01 
1.258105e-01 1.276509e-01 1.331200e-01 1.419362e-01 1.537178e-01 1.680752e-01 1.847298e-01 2.034098e-01 2.240249e-01 2.464480e-01 2.707258e-01 2.968642e-01 3.249713e-01 3.551541e-01 3.874562e-01 4.219736e-01 4.584597e-01 4.967709e-01 5.360680e-01 5.756618e-01 6.138987e-01 6.492947e-01 6.795151e-01 7.024086e-01 7.157228e-01 7.180383e-01 7.088366e-01 6.914279e-01 6.702208e-01 6.475831e-01 6.247243e-01 6.066136e-01 5.998899e-01 6.064408e-01 6.247882e-01 6.473649e-01 6.699660e-01 6.912313e-01 7.080682e-01 7.176824e-01 7.152877e-01 7.019846e-01 6.792822e-01 6.489524e-01 6.137749e-01 5.754716e-01 5.360415e-01 4.967341e-01 4.585311e-01 4.220657e-01 3.876179e-01 3.553459e-01 3.252074e-01 2.971271e-01 2.710143e-01 2.467532e-01 2.243392e-01 2.037258e-01 1.850364e-01 1.683632e-01 1.539732e-01 1.421467e-01 1.332704e-01 1.277299e-01 
1.450880e-01 1.467308e-01 1.515907e-01 1.595463e-01 1.703293e-01 1.837164e-01 1.995106e-01 2.175475e-01 2.378004e-01 2.602378e-01 2.850073e-01 3.122418e-01 3.422146e-01 3.751867e-01 4.114071e-01 4.510887e-01 4.941426e-01 5.404084e-01 5.890117e-01 6.390575e-01 6.885103e-01 7.355214e-01 7.771260e-01 8.107250e-01 8.344223e-01 8.462915e-01 8.492643e-01 8.374875e-01 8.116563e-01 7.867530e-01 7.694088e-01 7.612135e-01 7.594617e-01 7.610761e-01 7.697847e-01 7.867181e-01 8.116219e-01 8.375479e-01 8.483115e-01 8.460379e-01 8.341457e-01 8.103180e-01 7.770274e-01 7.351669e-01 6.884177e-01 6.388361e-01 5.889462e-01 5.403160e-01 4.941348e-01 4.511017e-01 4.114681e-01 3.752832e-01 3.423413e-01 3.124025e-01 2.851865e-01 2.604412e-01 2.380106e-01 2.177672e-01 1.997228e-01 1.839193e-01 1.705070e-01 1.596935e-01 1.516942e-01 1.467853e-01 
1.635398e-01 1.650300e-01 1.694732e-01 1.768058e-01 1.868863e-01 1.995684e-01 2.148001e-01 2.324705e-01 2.527230e-01 2.755892e-01 3.014470e-01 3.305459e-01 3.634441e-01 4.005707e-01 4.424272e-01 4.893710e-01 5.413681e-01 5.982488e-01 6.588093e-01 7.218129e-01 7.843781e-01 8.437042e-01 8.954527e-01 9.353039e-01 9.595524e-01 9.655586e-01 9.525855e-01 9.377951e-01 9.383455e-01 9.478145e-01 9.518924e-01 9.490862e-01 9.472097e-01 9.490528e-01 9.528755e-01 9.479960e-01 9.387116e-01 9.378299e-01 9.508649e-01 9.650410e-01 9.592456e-01 9.346939e-01 8.953191e-01 8.432400e-01 7.842372e-01 7.215719e-01 6.587317e-01 5.981915e-01 5.413851e-01 4.894432e-01 4.425322e-01 4.007292e-01 3.636170e-01 3.307587e-01 3.016636e-01 2.758289e-01 2.529565e-01 2.327093e-01 2.150210e-01 1.997757e-01 1.870620e-01 1.769493e-01 1.695718e-01 1.650817e-01 
1.809163e-01 1.823317e-01 1.864921e-01 1.934436e-01 2.030638e-01 2.153467e-01 2.302972e-01 2.479590e-01 2.685865e-01 2.924078e-01 3.199987e-01 3.518617e-01 3.888274e-01 4.315578e-01 4.807999e-01 5.369288e-01 5.999412e-01 6.692277e-01 7.430786e-01 8.191910e-01 8.929529e-01 9.599257e-01 1.012135e+00 1.044387e+00 1.052388e+00 1.045285e+00 1.048223e+00 1.036871e+00 1.012483e+00 1.026765e+00 1.075609e+00 1.121611e+00 1.139956e+00 1.121840e+00 1.077325e+00 1.027107e+00 1.013255e+00 1.036887e+00 1.045236e+00 1.044759e+00 1.052640e+00 1.043743e+00 1.012244e+00 9.594284e-01 8.927897e-01 8.188988e-01 7.428956e-01 6.690889e-01 5.998279e-01 5.368930e-01 4.807684e-01 4.315961e-01 3.888688e-01 3.519567e-01 3.200972e-01 2.925421e-01 2.687198e-01 2.481095e-01 2.304377e-01 2.154856e-01 2.031814e-01 1.935423e-01 1.865594e-01 1.823676e-01 
1.970965e-01 1.984509e-01 2.024545e-01 2.091741e-01 2.185773e-01 2.307080e-01 2.457324e-01 2.637731e-01 2.853492e-01 3.108259e-01 3.411642e-01 3.770613e-01 4.197667e-01 4.700874e-01 5.289770e-01 5.966792e-01 6.728091e-01 7.560165e-01 8.430878e-01 9.296783e-01 1.007826e+00 1.068561e+00 1.099911e+00 1.091998e+00 1.048738e+00 9.716994e-01 8.811629e-01 9.037746e-01 1.035920e+00 1.154923e+00 1.216669e+00 1.220190e+00 1.211610e+00 1.220905e+00 1.218930e+00 1.155260e+00 1.038283e+00 9.018867e-01 8.760064e-01 9.717711e-01 1.050071e+00 1.091292e+00 1.100030e+00 1.068000e+00 1.007554e+00 9.294210e-01 8.428943e-01 7.559691e-01 6.727582e-01 5.967531e-01 5.290310e-01 4.702228e-01 4.198826e-01 3.772256e-01 3.413122e-01 3.109995e-01 2.855068e-01 2.639387e-01 2.458783e-01 2.308468e-01 2.186905e-01 2.092672e-01 2.025167e-01 1.984838e-01 
2.117745e-01 2.131360e-01 2.170728e-01 2.237746e-01 2.331836e-01 2.455112e-01 2.609764e-01 2.799369e-01 3.030831e-01 3.311100e-01 3.652644e-01 4.066088e-01 4.566474e-01 5.163219e-01 5.865075e-01 6.668286e-01 7.560701e-01 8.506219e-01 9.446838e-01 1.028486e+00 1.087046e+00 1.102941e+00 1.052090e+00 9.262414e-01 7.434277e-01 7.066239e-01 9.372010e-01 1.090769e+00 1.092656e+00 1.112259e+00 1.158128e+00 1.159453e+00 1.147797e+00 1.160531e+00 1.158353e+00 1.112155e+00 1.096423e+00 1.085749e+00 9.343773e-01 7.151550e-01 7.476371e-01 9.255282e-01 1.052530e+00 1.102410e+00 1.086527e+00 1.028144e+00 9.442526e-01 8.504440e-01 7.558226e-01 6.667541e-01 5.863934e-01 5.163135e-01 4.566224e-01 4.066498e-01 3.653008e-01 3.311872e-01 3.031576e-01 2.800323e-01 2.610640e-01 2.456024e-01 2.332595e-01 2.238400e-01 2.171165e-01 2.131597e-01 
2.248220e-01 2.261950e-01 2.301805e-01 2.369918e-01 2.466583e-01 2.594587e-01 2.758208e-01 2.962357e-01 3.217816e-01 3.533556e-01 3.927266e-01 4.410904e-01 5.003026e-01 5.709939e-01 6.535929e-01 7.463381e-01 8.456665e-01 9.442054e-01 1.029409e+00 1.082550e+00 1.075455e+00 9.793783e-01 7.721678e-01 5.350527e-01 6.360408e-01 8.742818e-01 9.762628e-01 1.015374e+00 1.041339e+00 1.103927e+00 1.163992e+00 1.175297e+00 1.171704e+00 1.176167e+00 1.162595e+00 1.102145e+00 1.044982e+00 1.011237e+00 9.767999e-01 8.852919e-01 6.335307e-01 5.302132e-01 7.712106e-01 9.787714e-01 1.074587e+00 1.082279e+00 1.028970e+00 9.441587e-01 8.455416e-01 7.464256e-01 6.536282e-01 5.711248e-01 5.003924e-01 4.412197e-01 3.928264e-01 3.534718e-01 3.218774e-01 2.963368e-01 2.759052e-01 2.595401e-01 2.467227e-01 2.370456e-01 2.302156e-01 2.262139e-01 
2.358540e-01 2.373124e-01 2.414358e-01 2.486053e-01 2.588024e-01 2.725452e-01 2.903335e-01 3.130092e-01 3.418774e-01 3.782762e-01 4.242156e-01 4.811652e-01 5.507359e-01 6.330094e-01 7.268425e-01 8.277542e-01 9.279570e-01 1.012007e+00 1.058366e+00 1.032422e+00 8.994413e-01 6.376256e-01 3.428157e-01 5.266128e-01 7.764274e-01 8.735762e-01 1.002212e+00 1.173431e+00 1.268615e+00 1.256515e+00 1.154642e+00 1.044215e+00 9.972810e-01 1.044584e+00 1.154975e+00 1.254018e+00 1.268112e+00 1.169228e+00 9.999445e-01 8.811000e-01 7.725673e-01 5.262494e-01 3.426131e-01 6.374748e-01 8.976785e-01 1.031827e+00 1.057458e+00 1.011673e+00 9.275395e-01 8.276029e-01 7.266742e-01 6.329665e-01 5.506924e-01 4.811835e-01 4.242351e-01 3.783277e-01 3.419281e-01 3.130751e-01 2.903941e-01 2.726086e-01 2.588551e-01 2.486508e-01 2.414661e-01 2.373289e-01 
2.447774e-01 2.463314e-01 2.507332e-01 2.584231e-01 2.694750e-01 2.845326e-01 3.043597e-01 3.299985e-01 3.632340e-01 4.055518e-01 4.594326e-01 5.259527e-01 6.064160e-01 6.990074e-01 8.000610e-01 9.000754e-01 9.838981e-01 1.026106e+00 9.920998e-01 8.435577e-01 5.574709e-01 1.966670e-01 4.117896e-01 7.153510e-01 9.030688e-01 1.150853e+00 1.392631e+00 1.410083e+00 1.243421e+00 1.050681e+00 9.016468e-01 8.150428e-01 7.863003e-01 8.153776e-01 9.025875e-01 1.050121e+00 1.240946e+00 1.405178e+00 1.387484e+00 1.158223e+00 9.031059e-01 7.113252e-01 4.135966e-01 1.999593e-01 5.564577e-01 8.429196e-01 9.912364e-01 1.025776e+00 9.836289e-01 9.000834e-01 8.000919e-01 6.991276e-01 6.065176e-01 5.260674e-01 4.595196e-01 4.056333e-01 3.632946e-01 3.300541e-01 3.044025e-01 2.845721e-01 2.695052e-01 2.584486e-01 2.507496e-01 2.463404e-01 
2.510850e-01 2.528235e-01 2.576275e-01 2.661713e-01 2.784646e-01 2.954883e-01 3.180868e-01 3.477498e-01 3.864495e-01 4.360295e-01 4.987961e-01 5.754170e-01 6.654283e-01 7.646202e-01 8.640208e-01 9.477930e-01 9.909429e-01 9.579354e-01 8.143334e-01 5.325721e-01 1.577710e-01 2.871209e-01 6.727835e-01 9.350470e-01 1.203250e+00 1.365949e+00 1.302407e+00 1.135458e+00 9.925383e-01 8.835223e-01 7.982813e-01 7.415786e-01 7.212693e-01 7.418835e-01 7.987077e-01 8.832419e-01 9.907942e-01 1.132089e+00 1.298533e+00 1.371413e+00 1.203395e+00 9.301990e-01 6.764072e-01 2.892153e-01 1.558430e-01 5.308750e-01 8.128905e-01 9.569787e-01 9.901846e-01 9.473231e-01 8.637397e-01 7.644952e-01 6.654028e-01 5.754539e-01 4.988642e-01 4.361124e-01 3.865323e-01 3.478306e-01 3.181581e-01 2.955526e-01 2.785167e-01 2.662131e-01 2.576553e-01 2.528381e-01 
2.547916e-01 2.567480e-01 2.621526e-01 2.718065e-01 2.857893e-01 3.052919e-01 3.314081e-01 3.658460e-01 4.109595e-01 4.683749e-01 5.403335e-01 6.256927e-01 7.220843e-01 8.201922e-01 9.055781e-01 9.532220e-01 9.314127e-01 8.037457e-01 5.510869e-01 2.391836e-01 1.919757e-01 6.205897e-01 9.152519e-01 1.117547e+00 1.254997e+00 1.216902e+00 1.125057e+00 1.012119e+00 8.873464e-01 7.767437e-01 6.921620e-01 6.412659e-01 6.236565e-01 6.414250e-01 6.923073e-01 7.762706e-01 8.855815e-01 1.009779e+00 1.122046e+00 1.217866e+00 1.254270e+00 1.115791e+00 9.171001e-01 6.205611e-01 1.949486e-01 2.342886e-01 5.486710e-01 8.023995e-01 9.306756e-01 9.528369e-01 9.054435e-01 8.201769e-01 7.221566e-01 6.257825e-01 5.404318e-01 4.684550e-01 4.110244e-01 3.658928e-01 3.314424e-01 3.053169e-01 2.858076e-01 2.718202e-01 2.621615e-01 2.567527e-01 
2.552049e-01 2.574884e-01 2.636814e-01 2.748907e-01 2.910850e-01 3.138719e-01 3.443402e-01 3.846194e-01 4.369650e-01 5.028301e-01 5.833119e-01 6.752197e-01 7.720720e-01 8.598016e-01 9.152278e-01 9.100215e-01 8.076705e-01 5.931294e-01 3.335626e-01 1.987343e-01 5.335418e-01 8.771735e-01 9.713289e-01 1.097733e+00 1.146633e+00 1.089224e+00 9.942451e-01 8.818498e-01 7.845406e-01 7.031621e-01 6.423990e-01 6.037914e-01 5.906808e-01 6.038229e-01 6.422452e-01 7.026036e-01 7.831304e-01 8.802004e-01 9.922810e-01 1.089360e+00 1.146160e+00 1.095745e+00 9.697660e-01 8.729264e-01 5.266734e-01 1.890484e-01 3.305225e-01 5.909624e-01 8.060767e-01 9.087102e-01 9.145247e-01 8.594144e-01 7.720097e-01 6.752958e-01 5.834876e-01 5.030211e-01 4.371528e-01 3.847804e-01 3.444740e-01 3.139778e-01 2.911664e-01 2.749501e-01 2.637202e-01 2.575078e-01 
2.525502e-01 2.552331e-01 2.624938e-01 2.756446e-01 2.946133e-01 3.212863e-01 3.567866e-01 4.033756e-01 4.631649e-01 5.366468e-01 6.236578e-01 7.171937e-01 8.072982e-01 8.724677e-01 8.861656e-01 8.154437e-01 6.441159e-01 4.010100e-01 2.974755e-01 4.123080e-01 8.117403e-01 8.659452e-01 9.055543e-01 1.051338e+00 1.044266e+00 9.817658e-01 8.966220e-01 8.063005e-01 7.185500e-01 6.425745e-01 5.840215e-01 5.476660e-01 5.350636e-01 5.476351e-01 5.837830e-01 6.420942e-01 7.174316e-01 8.052423e-01 8.952583e-01 9.816856e-01 1.044391e+00 1.051539e+00 9.089560e-01 8.716238e-01 8.159425e-01 4.133899e-01 3.008915e-01 4.017389e-01 6.437398e-01 8.145431e-01 8.854914e-01 8.719778e-01 8.071075e-01 7.171489e-01 6.237361e-01 5.367531e-01 4.632824e-01 4.034723e-01 3.568655e-01 3.213435e-01 2.946559e-01 2.756738e-01 2.625129e-01 2.552423e-01 
2.458851e-01 2.490939e-01 2.576768e-01 2.732883e-01 2.956027e-01 3.269278e-01 3.680915e-01 4.215739e-01 4.887292e-01 5.689177e-01 6.597449e-01 7.501492e-01 8.259019e-01 8.604390e-01 8.232907e-01 6.982347e-01 4.757769e-01 3.858066e-01 3.605217e-01 6.946557e-01 8.612988e-01 7.477693e-01 9.002647e-01 9.753708e-01 9.488064e-01 8.901602e-01 8.113372e-01 7.311877e-01 6.583973e-01 5.969989e-01 5.509293e-01 5.218757e-01 5.121451e-01 5.218051e-01 5.506525e-01 5.965446e-01 6.574836e-01 7.302178e-01 8.099553e-01 8.890159e-01 9.470083e-01 9.725560e-01 8.973937e-01 7.457913e-01 8.645368e-01 7.017993e-01 3.650220e-01 3.864527e-01 4.737588e-01 6.959726e-01 8.218988e-01 8.596376e-01 8.256796e-01 7.502557e-01 6.600507e-01 5.692853e-01 4.890911e-01 4.218875e-01 3.683467e-01 3.271246e-01 2.957499e-01 2.733922e-01 2.577438e-01 2.491266e-01 
2.357879e-01 2.396336e-01 2.498837e-01 2.684276e-01 2.946426e-01 3.311295e-01 3.782439e-01 4.384828e-01 5.119847e-01 5.966143e-01 6.873070e-01 7.687053e-01 8.238038e-01 8.218325e-01 7.383333e-01 5.772292e-01 4.105810e-01 4.155092e-01 5.299148e-01 8.669902e-01 7.394038e-01 7.043723e-01 8.753844e-01 8.865389e-01 8.668650e-01 8.047517e-01 7.397338e-01 6.707500e-01 6.085751e-01 5.543550e-01 5.133614e-01 4.872594e-01 4.785190e-01 4.871909e-01 5.131179e-01 5.540189e-01 6.079078e-01 6.701136e-01 7.388396e-01 8.040588e-01 8.660801e-01 8.854297e-01 8.746181e-01 7.011786e-01 7.335388e-01 8.608940e-01 5.259087e-01 4.115690e-01 4.056647e-01 5.734969e-01 7.355340e-01 8.199956e-01 8.228167e-01 7.682865e-01 6.872733e-01 5.967646e-01 5.122127e-01 4.387092e-01 3.784429e-01 3.312867e-01 2.947633e-01 2.685133e-01 2.499402e-01 2.396611e-01 
2.210677e-01 2.256731e-01 2.378528e-01 2.597687e-01 2.902735e-01 3.323179e-01 3.854516e-01 4.522279e-01 5.310350e-01 6.182531e-01 7.061863e-01 7.750083e-01 8.094663e-01 7.703499e-01 6.668895e-01 4.891040e-01 4.922873e-01 4.769191e-01 7.573351e-01 8.465886e-01 5.933910e-01 7.137103e-01 8.103257e-01 8.133613e-01 7.843756e-01 7.316585e-01 6.749923e-01 6.181350e-01 5.670085e-01 5.230303e-01 4.898673e-01 4.685988e-01 4.616181e-01 4.685469e-01 4.896925e-01 5.227968e-01 5.665624e-01 6.176818e-01 6.743784e-01 7.311167e-01 7.839549e-01 8.131253e-01 8.116133e-01 7.171339e-01 5.971612e-01 8.482905e-01 7.566611e-01 4.758721e-01 4.928298e-01 4.877723e-01 6.650349e-01 7.691796e-01 8.089056e-01 7.750557e-01 7.065574e-01 6.187956e-01 5.315945e-01 4.527368e-01 3.858737e-01 3.326494e-01 2.905239e-01 2.599475e-01 2.379695e-01 2.257305e-01 
2.028815e-01 2.083592e-01 2.227868e-01 2.484370e-01 2.835394e-01 3.313085e-01 3.902308e-01 4.629982e-01 5.455115e-01 6.335994e-01 7.156799e-01 7.710433e-01 7.845060e-01 7.181114e-01 6.115996e-01 4.806730e-01 5.595761e-01 6.089045e-01 8.710328e-01 7.109705e-01 5.431142e-01 7.183984e-01 7.399070e-01 7.463798e-01 7.109602e-01 6.672523e-01 6.192781e-01 5.716918e-01 5.282478e-01 4.898618e-01 4.607765e-01 4.417030e-01 4.355955e-01 4.416421e-01 4.605954e-01 4.896209e-01 5.278006e-01 5.711775e-01 6.184910e-01 6.662886e-01 7.095386e-01 7.444431e-01 7.369056e-01 7.152612e-01 5.390261e-01 7.065385e-01 8.702055e-01 6.103073e-01 5.595234e-01 4.771089e-01 6.075313e-01 7.149556e-01 7.827520e-01 7.702970e-01 7.156059e-01 6.338897e-01 5.459504e-01 4.634555e-01 3.906421e-01 3.316470e-01 2.838062e-01 2.486335e-01 2.229192e-01 2.084255e-01 
1.800081e-01 1.864262e-01 2.032146e-01 2.326433e-01 2.721913e-01 3.253507e-01 3.894234e-01 4.674088e-01 5.523397e-01 6.407164e-01 7.160247e-01 7.619407e-01 7.578525e-01 6.873423e-01 5.824365e-01 5.461550e-01 5.755568e-01 7.299223e-01 8.552914e-01 5.995322e-01 5.852083e-01 6.885122e-01 6.866830e-01 6.867875e-01 6.501402e-01 6.137151e-01 5.718568e-01 5.319531e-01 4.946588e-01 4.619219e-01 4.369495e-01 4.205360e-01 4.153439e-01 4.205260e-01 4.368949e-01 4.618718e-01 4.945376e-01 5.318571e-01 5.717210e-01 6.136140e-01 6.501119e-01 6.868673e-01 6.872295e-01 6.896086e-01 5.874676e-01 6.026273e-01 8.577301e-01 7.263558e-01 5.680475e-01 5.424676e-01 5.779320e-01 6.845584e-01 7.563409e-01 7.615514e-01 7.162923e-01 6.413399e-01 5.530744e-01 4.681175e-01 3.900412e-01 3.258530e-01 2.725858e-01 2.329356e-01 2.034131e-01 1.865268e-01 
1.545470e-01 1.619184e-01 1.811082e-01 2.141078e-01 2.577563e-01 3.157534e-01 3.844001e-01 4.670715e-01 5.539373e-01 6.433296e-01 7.131060e-01 7.563379e-01 7.415897e-01 6.896357e-01 5.964777e-01 6.402109e-01 6.379605e-01 8.209630e-01 7.790156e-01 5.486537e-01 6.274793e-01 6.476448e-01 6.510764e-01 6.351414e-01 6.030980e-01 5.676673e-01 5.308166e-01 4.938073e-01 4.598632e-01 4.289892e-01 4.057423e-01 3.899911e-01 3.852464e-01 3.899469e-01 4.056272e-01 4.288284e-01 4.595959e-01 4.934476e-01 5.303058e-01 5.668783e-01 6.020425e-01 6.333400e-01 6.490418e-01 6.444159e-01 6.275082e-01 5.484782e-01 7.825133e-01 8.302077e-01 6.401629e-01 6.390216e-01 5.926610e-01 6.866485e-01 7.396611e-01 7.557573e-01 7.132808e-01 6.439716e-01 5.547381e-01 4.678767e-01 3.851239e-01 3.163616e-01 2.582506e-01 2.144874e-01 1.813752e-01 1.620576e-01 
1.257744e-01 1.340064e-01 1.552281e-01 1.908828e-01 2.374159e-01 2.986828e-01 3.705191e-01 4.564430e-01 5.447431e-01 6.352647e-01 7.022555e-01 7.469130e-01 7.310728e-01 6.993637e-01 6.287871e-01 6.873046e-01 6.931466e-01 8.267603e-01 7.001039e-01 5.583946e-01 6.452339e-01 6.195665e-01 6.268024e-01 5.960150e-01 5.676071e-01 5.303429e-01 4.958336e-01 4.595097e-01 4.270598e-01 3.971850e-01 3.748862e-01 3.596997e-01 3.551889e-01 3.597162e-01 3.749053e-01 3.972322e-01 4.271066e-01 4.595676e-01 4.958668e-01 5.302141e-01 5.671822e-01 5.946665e-01 6.238936e-01 6.132414e-01 6.334284e-01 5.397318e-01 6.848389e-01 8.305449e-01 6.970188e-01 6.806104e-01 6.224508e-01 6.945117e-01 7.287880e-01 7.462108e-01 7.026116e-01 6.360898e-01 5.457634e-01 4.574357e-01 3.714163e-01 2.994362e-01 2.380348e-01 1.913647e-01 1.555745e-01 1.341915e-01 
9.703654e-02 1.058422e-01 1.283201e-01 1.651068e-01 2.128452e-01 2.754396e-01 3.491233e-01 4.371555e-01 5.276116e-01 6.207500e-01 6.907913e-01 7.424293e-01 7.391692e-01 7.270083e-01 6.872648e-01 7.307356e-01 7.636621e-01 8.360169e-01 6.752496e-01 6.048224e-01 6.539430e-01 6.145980e-01 6.143563e-01 5.733964e-01 5.437951e-01 5.017567e-01 4.658738e-01 4.265118e-01 3.924834e-01 3.604843e-01 3.369435e-01 3.205663e-01 3.158501e-01 3.205426e-01 3.368917e-01 3.604221e-01 3.924128e-01 4.264363e-01 4.658358e-01 5.016752e-01 5.437672e-01 5.731323e-01 6.138977e-01 6.133388e-01 6.515586e-01 6.036203e-01 6.747170e-01 8.333002e-01 7.610161e-01 7.222305e-01 6.807347e-01 7.229979e-01 7.379698e-01 7.426300e-01 6.918643e-01 6.221250e-01 5.290662e-01 4.385043e-01 3.503229e-01 2.764557e-01 2.136943e-01 1.657868e-01 1.288269e-01 1.061239e-01 
6.852553e-02 7.748842e-02 9.990426e-02 1.354998e-01 1.817636e-01 2.425422e-01 3.153020e-01 4.026423e-01 4.942263e-01 5.893211e-01 6.656573e-01 7.257131e-01 7.415822e-01 7.428090e-01 7.311958e-01 7.478076e-01 7.865652e-01 7.880169e-01 6.473384e-01 6.319099e-01 6.497713e-01 6.165857e-01 6.050096e-01 5.601996e-01 5.257489e-01 4.793785e-01 4.393328e-01 3.960540e-01 3.585337e-01 3.235750e-01 2.975856e-01 2.796117e-01 2.742976e-01 2.796290e-01 2.976180e-01 3.236499e-01 3.586546e-01 3.962534e-01 4.396397e-01 4.798109e-01 5.263659e-01 5.610390e-01 6.061433e-01 6.185805e-01 6.534493e-01 6.424289e-01 6.566860e-01 7.896144e-01 7.879737e-01 7.455915e-01 7.278462e-01 7.412013e-01 7.419129e-01 7.269614e-01 6.674616e-01 5.911952e-01 4.960556e-01 4.042785e-01 3.167393e-01 2.437586e-01 1.827839e-01 1.363279e-01 1.005374e-01 7.785668e-02 
4.424581e-02 5.257123e-02 7.299621e-02 1.046458e-01 1.465139e-01 2.021670e-01 2.710129e-01 3.547009e-01 4.462700e-01 5.429428e-01 6.290513e-01 7.003872e-01 7.413218e-01 7.558962e-01 7.654344e-01 7.548121e-01 7.883288e-01 7.523990e-01 6.632777e-01 6.876188e-01 6.682786e-01 6.409960e-01 6.101281e-01 5.625907e-01 5.181071e-01 4.662962e-01 4.185755e-01 3.691899e-01 3.252217e-01 2.846270e-01 2.535624e-01 2.319317e-01 2.252820e-01 2.319173e-01 2.535396e-01 2.846314e-01 3.252695e-01 3.693241e-01 4.188360e-01 4.667166e-01 5.187389e-01 5.634002e-01 6.109968e-01 6.415284e-01 6.675667e-01 6.839955e-01 6.543036e-01 7.504834e-01 8.008915e-01 7.656818e-01 7.709364e-01 7.603095e-01 7.452762e-01 7.041318e-01 6.324679e-01 5.459557e-01 4.489098e-01 3.569595e-01 2.729506e-01 2.038040e-01 1.478993e-01 1.057927e-01 7.390764e-02 5.313397e-02 
2.451238e-02 3.153178e-02 4.826635e-02 7.366772e-02 1.084916e-01 1.557529e-01 2.171148e-01 2.932731e-01 3.818048e-01 4.778975e-01 5.738666e-01 6.583619e-01 7.267913e-01 7.625110e-01 7.941027e-01 7.797801e-01 7.887303e-01 7.103710e-01 6.606398e-01 7.086517e-01 6.760882e-01 6.565989e-01 6.125065e-01 5.652781e-01 5.114680e-01 4.559616e-01 4.001964e-01 3.453590e-01 2.940524e-01 2.472972e-01 2.094003e-01 1.827111e-01 1.737715e-01 1.826836e-01 2.093523e-01 2.472860e-01 2.940795e-01 3.455012e-01 4.004657e-01 4.564667e-01 5.122436e-01 5.664656e-01 6.140592e-01 6.583854e-01 6.773627e-01 7.083930e-01 6.611319e-01 7.096476e-01 7.924719e-01 7.864573e-01 8.008730e-01 7.680274e-01 7.319324e-01 6.629488e-01 5.779368e-01 4.814124e-01 3.848329e-01 2.958539e-01 2.193187e-01 1.576220e-01 1.100779e-01 7.499762e-02 4.935387e-02 3.225316e-02 
1.166902e-02 1.651800e-02 2.825352e-02 4.616607e-02 7.252315e-02 1.094422e-01 1.608999e-01 2.266469e-01 3.094671e-01 4.026567e-01 5.068898e-01 6.040960e-01 6.981041e-01 7.554043e-01 8.026771e-01 7.843465e-01 7.697100e-01 6.876447e-01 6.675565e-01 7.201243e-01 6.879212e-01 6.732333e-01 6.205773e-01 5.730430e-01 5.110734e-01 4.519964e-01 3.885028e-01 3.281018e-01 2.688266e-01 2.144477e-01 1.668103e-01 1.310218e-01 1.174463e-01 1.310016e-01 1.667864e-01 2.144985e-01 2.689505e-01 3.284017e-01 3.889836e-01 4.528180e-01 5.122523e-01 5.748504e-01 6.229859e-01 6.766921e-01 6.921181e-01 7.259955e-01 6.726497e-01 6.856124e-01 7.679484e-01 7.870887e-01 8.082845e-01 7.618289e-01 7.043827e-01 6.097748e-01 5.118885e-01 4.069402e-01 3.131365e-01 2.297555e-01 1.635540e-01 1.116938e-01 7.445654e-02 4.781266e-02 2.965550e-02 1.752151e-02 
4.087783e-03 7.049318e-03 1.462466e-02 2.613706e-02 4.513787e-02 7.265123e-02 1.150786e-01 1.711366e-01 2.487089e-01 3.392172e-01 4.506204e-01 5.595811e-01 6.756598e-01 7.538940e-01 8.158623e-01 7.996127e-01 7.709185e-01 6.899630e-01 6.869514e-01 7.352972e-01 6.998277e-01 6.852230e-01 6.260361e-01 5.778419e-01 5.100434e-01 4.488241e-01 3.799230e-01 3.160259e-01 2.508543e-01 1.905172e-01 1.330189e-01 8.388336e-02 5.955481e-02 8.371536e-02 1.327960e-01 1.903554e-01 2.507168e-01 3.160248e-01 3.800146e-01 4.491582e-01 5.105666e-01 5.787390e-01 6.271865e-01 6.867219e-01 7.012659e-01 7.361198e-01 6.857627e-01 6.862459e-01 7.728068e-01 8.058381e-01 8.223992e-01 7.613229e-01 6.824393e-01 5.658638e-01 4.560298e-01 3.439384e-01 2.527109e-01 1.745519e-01 1.179610e-01 7.509370e-02 4.721822e-02 2.792105e-02 1.618189e-02 8.290901e-03 
8.491269e-04 3.146517e-03 9.006812e-03 1.750746e-02 3.316765e-02 5.625163e-02 9.464394e-02 1.462229e-01 2.213596e-01 3.102435e-01 4.238666e-01 5.366390e-01 6.597634e-01 7.445664e-01 8.084366e-01 7.907222e-01 7.542975e-01 6.770154e-01 6.807218e-01 7.296059e-01 6.991259e-01 6.862469e-01 6.273158e-01 5.795077e-01 5.105477e-01 4.486686e-01 3.780696e-01 3.127448e-01 2.452710e-01 1.821818e-01 1.195815e-01 5.957717e-02 4.516544e-05 5.953204e-02 1.195474e-01 1.822579e-01 2.454296e-01 3.131164e-01 3.786373e-01 4.496276e-01 5.118874e-01 5.815222e-01 6.299642e-01 6.898807e-01 7.035701e-01 7.349002e-01 6.867678e-01 6.804115e-01 7.550065e-01 7.927725e-01 8.130283e-01 7.503438e-01 6.659352e-01 5.425639e-01 4.292788e-01 3.150736e-01 2.255812e-01 1.498902e-01 9.779816e-02 5.897006e-02 3.551849e-02 1.957387e-02 1.086816e-02 4.885486e-03 
4.087783e-03 7.049318e-03 1.462466e-02 2.613706e-02 4.513787e-02 7.265123e-02 1.150786e-01 1.711366e-01 2.487089e-01 3.392172e-01 4.506204e-01 5.595811e-01 6.756598e-01 7.538940e-01 8.158623e-01 7.996127e-01 7.709185e-01 6.899630e-01 6.869514e-01 7.352972e-01 6.998277e-01 6.852230e-01 6.260361e-01 5.778419e-01 5.100434e-01 4.488241e-01 3.799230e-01 3.160259e-01 2.508543e-01 1.905172e-01 1.330189e-01 8.388336e-02 5.955481e-02 8.371536e-02 1.327960e-01 1.903554e-01 2.507168e-01 3.160248e-01 3.800146e-01 4.491582e-01 5.105666e-01 5.787390e-01 6.271865e-01 6.867219e-01 7.012659e-01 7.361198e-01 6.857627e-01 6.862459e-01 7.728068e-01 8.058381e-01 8.223992e-01 7.613229e-01 6.824393e-01 5.658638e-01 4.560298e-01 3.439384e-01 2.527109e-01 1.745519e-01 1.179610e-01 7.509370e-02 4.721822e-02 2.792105e-02 1.618189e-02 8.290901e-03 
1.166902e-02 1.651800e-02 2.825352e-02 4.616607e-02 7.252315e-02 1.094422e-01 1.608999e-01 2.266469e-01 3.094671e-01 4.026567e-01 5.068898e-01 6.040960e-01 6.981041e-01 7.554043e-01 8.026771e-01 7.843465e-01 7.697100e-01 6.876447e-01 6.675565e-01 7.201243e-01 6.879212e-01 6.732333e-01 6.205773e-01 5.730430e-01 5.110734e-01 4.519964e-01 3.885028e-01 3.281018e-01 2.688266e-01 2.144477e-01 1.668103e-01 1.310218e-01 1.174463e-01 1.310016e-01 1.667864e-01 2.144985e-01 2.689505e-01 3.284017e-01 3.889836e-01 4.528180e-01 5.122523e-01 5.748504e-01 6.229859e-01 6.766921e-01 6.921181e-01 7.259955e-01 6.726497e-01 6.856124e-01 7.679484e-01 7.870887e-01 8.082845e-01 7.618289e-01 7.043827e-01 6.097748e-01 5.118885e-01 4.069402e-01 3.131365e-01 2.297555e-01 1.635540e-01 1.116938e-01 7.445654e-02 4.781266e-02 2.965550e-02 1.752151e-02 