# vtk DataFile Version 2.0
Comment goes here
ASCII

DATASET STRUCTURED_POINTS
FIELD FieldData 1
TIME 1 1 double
0.16000000
DIMENSIONS    64   64   1

ORIGIN    0.000   0.000   0.000
SPACING   0.015625 0.015625   1.000

POINT_DATA   4096
SCALARS uMag double
LOOKUP_TABLE default

1.945780e-05 1.884406e-03 3.897533e-03 5.920556e-03 8.362419e-03 1.084244e-02 1.400281e-02 1.723482e-02 2.138408e-02 2.563229e-02 3.098202e-02 3.642561e-02 4.306203e-02 4.971336e-02 5.750830e-02 6.511495e-02 7.363022e-02 8.158461e-02 8.999654e-02 9.728490e-02 1.043618e-01 1.095846e-01 1.137496e-01 1.152403e-01 1.147528e-01 1.108370e-01 1.041598e-01 9.365908e-02 8.012701e-02 6.315457e-02 4.378129e-02 2.234564e-02 7.868514e-06 2.234704e-02 4.376721e-02 6.315642e-02 8.011792e-02 9.366218e-02 1.041588e-01 1.108427e-01 1.147622e-01 1.152498e-01 1.137695e-01 1.095980e-01 1.043898e-01 9.730073e-02 9.002804e-02 8.160043e-02 7.365997e-02 6.512814e-02 5.753152e-02 4.972173e-02 4.307520e-02 3.642759e-02 3.098319e-02 2.562705e-02 2.137293e-02 1.722230e-02 1.398045e-02 1.082344e-02 8.331161e-03 5.896691e-03 3.860577e-03 1.857934e-03 
1.871170e-03 2.668105e-03 4.312042e-03 6.221415e-03 8.570050e-03 1.103325e-02 1.415064e-02 1.739587e-02 2.152408e-02 2.580142e-02 3.114734e-02 3.663134e-02 4.328290e-02 4.998586e-02 5.781952e-02 6.549293e-02 7.407651e-02 8.211920e-02 9.063366e-02 9.803639e-02 1.052482e-01 1.106078e-01 1.149285e-01 1.165691e-01 1.162508e-01 1.125134e-01 1.060653e-01 9.588144e-02 8.284042e-02 6.672131e-02 4.897109e-02 3.155444e-02 2.234635e-02 3.153483e-02 4.893103e-02 6.669604e-02 8.280319e-02 9.585771e-02 1.060377e-01 1.124938e-01 1.162364e-01 1.165559e-01 1.149281e-01 1.106018e-01 1.052601e-01 9.803715e-02 9.065410e-02 8.212547e-02 7.410106e-02 6.550335e-02 5.784431e-02 4.999924e-02 4.330512e-02 3.664667e-02 3.116543e-02 2.581778e-02 2.153748e-02 1.741244e-02 1.415958e-02 1.104940e-02 8.575329e-03 6.236574e-03 4.314804e-03 2.679048e-03 
3.680394e-03 4.188840e-03 5.365258e-03 7.025189e-03 9.168695e-03 1.154342e-02 1.457997e-02 1.780901e-02 2.192853e-02 2.624013e-02 3.163371e-02 3.719815e-02 4.394707e-02 5.077539e-02 5.874968e-02 6.658776e-02 7.534468e-02 8.357710e-02 9.228132e-02 9.987785e-02 1.072788e-01 1.128244e-01 1.173385e-01 1.191932e-01 1.191521e-01 1.158144e-01 1.099797e-01 1.007865e-01 8.928404e-02 7.565755e-02 6.177634e-02 5.025860e-02 4.543205e-02 5.026136e-02 6.176593e-02 7.566232e-02 8.927535e-02 1.007916e-01 1.099788e-01 1.158210e-01 1.191620e-01 1.192026e-01 1.173595e-01 1.128374e-01 1.073082e-01 9.989350e-02 9.231401e-02 8.359308e-02 7.537516e-02 6.660159e-02 5.877306e-02 5.078493e-02 4.396001e-02 3.720182e-02 3.163465e-02 2.623702e-02 2.191761e-02 1.779909e-02 1.455888e-02 1.152784e-02 9.141054e-03 7.007191e-03 5.339461e-03 4.178133e-03 
5.318505e-03 5.733219e-03 6.599416e-03 8.076297e-03 9.986339e-03 1.230463e-02 1.522319e-02 1.848894e-02 2.258065e-02 2.699897e-02 3.244590e-02 3.817783e-02 4.506061e-02 5.211491e-02 6.030449e-02 6.842706e-02 7.747900e-02 8.605185e-02 9.512286e-02 1.031054e-01 1.109274e-01 1.168881e-01 1.218612e-01 1.241780e-01 1.246985e-01 1.220527e-01 1.172031e-01 1.094621e-01 1.000685e-01 8.948189e-02 7.945588e-02 7.202183e-02 6.908847e-02 7.201468e-02 7.942763e-02 8.946528e-02 1.000330e-01 1.094422e-01 1.171747e-01 1.220340e-01 1.246843e-01 1.241642e-01 1.218627e-01 1.168815e-01 1.109425e-01 1.031065e-01 9.514699e-02 8.606005e-02 7.750725e-02 6.844135e-02 6.033274e-02 5.213406e-02 4.508615e-02 3.820028e-02 3.246733e-02 2.702284e-02 2.259746e-02 1.851227e-02 1.523536e-02 1.232553e-02 9.994208e-03 8.092456e-03 6.603422e-03 5.740069e-03 
6.772637e-03 7.154072e-03 7.845800e-03 9.194624e-03 1.092647e-02 1.319006e-02 1.602218e-02 1.932744e-02 2.343607e-02 2.798668e-02 3.355722e-02 3.951748e-02 4.663276e-02 5.401321e-02 6.253641e-02 7.106775e-02 8.052356e-02 8.953804e-02 9.901910e-02 1.073914e-01 1.155490e-01 1.217848e-01 1.270137e-01 1.295962e-01 1.305400e-01 1.286171e-01 1.250240e-01 1.193261e-01 1.128564e-01 1.061183e-01 1.002184e-01 9.630956e-02 9.472882e-02 9.631450e-02 1.002107e-01 1.061292e-01 1.128477e-01 1.193370e-01 1.250230e-01 1.286264e-01 1.305516e-01 1.296057e-01 1.270382e-01 1.217969e-01 1.155826e-01 1.074066e-01 9.905537e-02 8.955468e-02 8.055602e-02 7.108370e-02 6.255992e-02 5.402646e-02 4.664472e-02 3.952630e-02 3.355745e-02 2.798990e-02 2.342614e-02 1.932486e-02 1.600498e-02 1.318291e-02 1.090662e-02 9.186210e-03 7.831106e-03 7.150035e-03 
7.882361e-03 8.278882e-03 8.848149e-03 1.017875e-02 1.178258e-02 1.409382e-02 1.686955e-02 2.031783e-02 2.447336e-02 2.926378e-02 3.500004e-02 4.129275e-02 4.869568e-02 5.648969e-02 6.540344e-02 7.439904e-02 8.429857e-02 9.376969e-02 1.036756e-01 1.124259e-01 1.209348e-01 1.274475e-01 1.329881e-01 1.358964e-01 1.374064e-01 1.364023e-01 1.343765e-01 1.310736e-01 1.278064e-01 1.248643e-01 1.225623e-01 1.213716e-01 1.207340e-01 1.213693e-01 1.225389e-01 1.248568e-01 1.277712e-01 1.310608e-01 1.343470e-01 1.363863e-01 1.373938e-01 1.358820e-01 1.329944e-01 1.274399e-01 1.209569e-01 1.124278e-01 1.037071e-01 9.378210e-02 8.433385e-02 7.442157e-02 6.543792e-02 5.652076e-02 4.872710e-02 4.132932e-02 3.502770e-02 2.930186e-02 2.449686e-02 2.035327e-02 1.688820e-02 1.412286e-02 1.179556e-02 1.019815e-02 8.854833e-03 8.285810e-03 
8.694588e-03 9.104762e-03 9.636621e-03 1.098524e-02 1.255653e-02 1.494814e-02 1.774827e-02 2.137159e-02 2.564862e-02 3.072761e-02 3.671379e-02 4.342303e-02 5.121765e-02 5.955015e-02 6.896531e-02 7.855542e-02 8.895157e-02 9.890252e-02 1.090863e-01 1.179394e-01 1.262730e-01 1.323557e-01 1.373311e-01 1.396950e-01 1.410904e-01 1.407776e-01 1.407054e-01 1.408411e-01 1.421715e-01 1.443883e-01 1.466111e-01 1.486080e-01 1.490323e-01 1.486145e-01 1.466029e-01 1.444062e-01 1.421616e-01 1.408629e-01 1.407059e-01 1.407937e-01 1.411074e-01 1.397051e-01 1.373628e-01 1.323662e-01 1.263146e-01 1.179540e-01 1.091284e-01 9.892083e-02 8.898643e-02 7.857566e-02 6.898761e-02 5.957022e-02 5.122683e-02 4.344064e-02 3.671282e-02 3.074110e-02 2.564156e-02 2.138045e-02 1.773880e-02 1.495287e-02 1.254767e-02 1.098706e-02 9.631124e-03 9.105127e-03 
8.990722e-03 9.464691e-03 9.970062e-03 1.144792e-02 1.303870e-02 1.564672e-02 1.853775e-02 2.248307e-02 2.696295e-02 3.248056e-02 3.881450e-02 4.606851e-02 5.434225e-02 6.326071e-02 7.317278e-02 8.322290e-02 9.388401e-02 1.038881e-01 1.137953e-01 1.220398e-01 1.294650e-01 1.343936e-01 1.382634e-01 1.397512e-01 1.410765e-01 1.418751e-01 1.445431e-01 1.489915e-01 1.555185e-01 1.629730e-01 1.693777e-01 1.741209e-01 1.754142e-01 1.741203e-01 1.693539e-01 1.629740e-01 1.554821e-01 1.489933e-01 1.445150e-01 1.418685e-01 1.410707e-01 1.397379e-01 1.382795e-01 1.343849e-01 1.294989e-01 1.220436e-01 1.138374e-01 1.039078e-01 9.392859e-02 8.325915e-02 7.321456e-02 6.331050e-02 5.438046e-02 4.612560e-02 3.885033e-02 3.253767e-02 2.699631e-02 2.253360e-02 1.856663e-02 1.568572e-02 1.306022e-02 1.147231e-02 9.981611e-03 9.472966e-03 
8.899394e-03 9.416994e-03 9.997253e-03 1.164031e-02 1.337741e-02 1.625202e-02 1.934414e-02 2.366321e-02 2.842932e-02 3.444775e-02 4.119252e-02 4.907316e-02 5.786712e-02 6.745287e-02 7.783276e-02 8.832856e-02 9.901943e-02 1.087540e-01 1.176885e-01 1.243397e-01 1.293043e-01 1.310805e-01 1.314650e-01 1.297951e-01 1.295185e-01 1.314024e-01 1.384779e-01 1.500893e-01 1.646809e-01 1.796456e-01 1.916270e-01 1.998574e-01 2.022282e-01 1.998617e-01 1.916134e-01 1.796686e-01 1.646683e-01 1.501338e-01 1.384858e-01 1.314379e-01 1.295491e-01 1.298065e-01 1.315085e-01 1.310866e-01 1.293575e-01 1.243534e-01 1.177363e-01 1.087755e-01 9.905457e-02 8.835624e-02 7.784939e-02 6.748340e-02 5.786957e-02 4.910260e-02 4.118980e-02 3.447426e-02 2.842910e-02 2.368699e-02 1.934984e-02 1.627310e-02 1.338747e-02 1.165644e-02 1.000569e-02 9.423380e-03 
8.140003e-03 8.779644e-03 9.453105e-03 1.140311e-02 1.334740e-02 1.663819e-02 2.001481e-02 2.487164e-02 3.005057e-02 3.675444e-02 4.408543e-02 5.275098e-02 6.221516e-02 7.244580e-02 8.318349e-02 9.361858e-02 1.035451e-01 1.116391e-01 1.177301e-01 1.204369e-01 1.203440e-01 1.164461e-01 1.113235e-01 1.054734e-01 1.043757e-01 1.101481e-01 1.251525e-01 1.463014e-01 1.693622e-01 1.909319e-01 2.071370e-01 2.177730e-01 2.208176e-01 2.177660e-01 2.071063e-01 1.909359e-01 1.693264e-01 1.463374e-01 1.251350e-01 1.101734e-01 1.043873e-01 1.054609e-01 1.113511e-01 1.164303e-01 1.203908e-01 1.204426e-01 1.177806e-01 1.116698e-01 1.035980e-01 9.367624e-02 8.322970e-02 7.252157e-02 6.225789e-02 5.283227e-02 4.412976e-02 3.683048e-02 3.009635e-02 2.493518e-02 2.005779e-02 1.668559e-02 1.338213e-02 1.143295e-02 9.473632e-03 8.790149e-03 
6.955173e-03 7.699984e-03 8.649730e-03 1.098088e-02 1.331777e-02 1.709135e-02 2.089023e-02 2.635774e-02 3.203213e-02 3.950833e-02 4.743595e-02 5.695945e-02 6.697739e-02 7.780679e-02 8.852728e-02 9.854174e-02 1.069263e-01 1.125637e-01 1.146001e-01 1.119630e-01 1.044003e-01 9.113662e-02 7.461078e-02 5.764232e-02 5.404613e-02 7.184501e-02 1.031837e-01 1.383884e-01 1.710884e-01 1.990428e-01 2.186917e-01 2.311000e-01 2.345532e-01 2.310847e-01 2.186583e-01 1.990502e-01 1.710691e-01 1.384678e-01 1.032038e-01 7.194845e-02 5.410587e-02 5.763211e-02 7.463832e-02 9.110062e-02 1.044434e-01 1.119651e-01 1.146332e-01 1.125843e-01 1.069481e-01 9.858050e-02 8.852559e-02 7.785075e-02 6.696533e-02 5.699995e-02 4.743129e-02 3.954610e-02 3.204599e-02 2.639754e-02 2.092410e-02 1.713488e-02 1.336375e-02 1.102199e-02 8.688556e-03 7.719643e-03 
5.012490e-03 6.043618e-03 7.421243e-03 1.030998e-02 1.311553e-02 1.745621e-02 2.175090e-02 2.794375e-02 3.428177e-02 4.273514e-02 5.157929e-02 6.222581e-02 7.321021e-02 8.478821e-02 9.575692e-02 1.051466e-01 1.118088e-01 1.144753e-01 1.118123e-01 1.035494e-01 8.878866e-02 6.873657e-02 4.456230e-02 2.575528e-02 3.961708e-02 7.364506e-02 1.097497e-01 1.452825e-01 1.753489e-01 1.999640e-01 2.160160e-01 2.259465e-01 2.283915e-01 2.259001e-01 2.159571e-01 1.999314e-01 1.753242e-01 1.453552e-01 1.097521e-01 7.375834e-02 3.963043e-02 2.571565e-02 4.445811e-02 6.861495e-02 8.874962e-02 1.035397e-01 1.118224e-01 1.145094e-01 1.118497e-01 1.052358e-01 9.579326e-02 8.489383e-02 7.324922e-02 6.232454e-02 5.162943e-02 4.281689e-02 3.433925e-02 2.800578e-02 2.180759e-02 1.750074e-02 1.316546e-02 1.034055e-02 7.457985e-03 6.057476e-03 
2.703580e-03 4.211013e-03 6.450002e-03 9.920907e-03 1.337656e-02 1.830570e-02 2.326291e-02 3.031592e-02 3.747975e-02 4.718851e-02 5.709446e-02 6.930923e-02 8.142579e-02 9.445541e-02 1.062033e-01 1.165279e-01 1.239599e-01 1.284343e-01 1.297821e-01 1.302216e-01 1.296361e-01 1.321051e-01 1.360384e-01 1.446501e-01 1.553641e-01 1.692516e-01 1.824058e-01 1.953695e-01 2.038359e-01 2.097365e-01 2.107107e-01 2.109645e-01 2.099056e-01 2.108587e-01 2.106119e-01 2.096452e-01 2.038196e-01 1.953794e-01 1.823822e-01 1.693149e-01 1.553367e-01 1.446695e-01 1.359162e-01 1.319245e-01 1.294436e-01 1.301469e-01 1.296811e-01 1.283936e-01 1.238964e-01 1.165743e-01 1.061513e-01 9.450703e-02 8.138876e-02 6.934570e-02 5.709004e-02 4.722362e-02 3.751771e-02 3.036564e-02 2.333957e-02 1.837505e-02 1.347923e-02 1.000366e-02 6.559075e-03 4.277221e-03 
3.133604e-04 3.101010e-03 6.311249e-03 1.009017e-02 1.413280e-02 1.948861e-02 2.516742e-02 3.309073e-02 4.141418e-02 5.276210e-02 6.468205e-02 7.961262e-02 9.507234e-02 1.123869e-01 1.298781e-01 1.480029e-01 1.666673e-01 1.868769e-01 2.086430e-01 2.325572e-01 2.551918e-01 2.779133e-01 2.943600e-01 3.068601e-01 3.114743e-01 3.094785e-01 2.981935e-01 2.802662e-01 2.537505e-01 2.239805e-01 1.921147e-01 1.678076e-01 1.572019e-01 1.675894e-01 1.919866e-01 2.238154e-01 2.537885e-01 2.802383e-01 2.981768e-01 3.095671e-01 3.114926e-01 3.069794e-01 2.943196e-01 2.777513e-01 2.549091e-01 2.325395e-01 2.085364e-01 1.868340e-01 1.665837e-01 1.481097e-01 1.298637e-01 1.124954e-01 9.509340e-02 7.968709e-02 6.472886e-02 5.280677e-02 4.147023e-02 3.311423e-02 2.522023e-02 1.950154e-02 1.417984e-02 1.010082e-02 6.354947e-03 3.112425e-03 
3.484135e-03 4.472907e-03 7.589187e-03 1.120962e-02 1.578783e-02 2.157617e-02 2.827040e-02 3.752042e-02 4.770560e-02 6.201100e-02 7.759608e-02 9.846490e-02 1.213177e-01 1.499692e-01 1.818130e-01 2.192856e-01 2.614183e-01 3.061200e-01 3.528005e-01 3.983153e-01 4.393293e-01 4.763709e-01 4.999949e-01 5.128850e-01 5.100226e-01 4.920491e-01 4.571127e-01 4.087972e-01 3.457666e-01 2.750161e-01 1.984817e-01 1.271963e-01 8.904936e-02 1.267543e-01 1.983113e-01 2.748040e-01 3.458805e-01 4.085636e-01 4.569728e-01 4.921423e-01 5.100490e-01 5.131608e-01 5.000341e-01 4.761229e-01 4.388816e-01 3.982521e-01 3.526847e-01 3.059226e-01 2.611154e-01 2.193172e-01 1.816944e-01 1.499857e-01 1.212689e-01 9.844498e-02 7.760105e-02 6.200823e-02 4.777254e-02 3.756291e-02 2.838682e-02 2.166118e-02 1.593029e-02 1.131933e-02 7.730248e-03 4.565298e-03 
7.041591e-03 7.518084e-03 1.028770e-02 1.350157e-02 1.856548e-02 2.460248e-02 3.264298e-02 4.345759e-02 5.683320e-02 7.589473e-02 9.918683e-02 1.314760e-01 1.707096e-01 2.212488e-01 2.803613e-01 3.491437e-01 4.236337e-01 5.013261e-01 5.799801e-01 6.493425e-01 7.025358e-01 7.389715e-01 7.477332e-01 7.385995e-01 7.105910e-01 6.652385e-01 6.023752e-01 5.264122e-01 4.350614e-01 3.350096e-01 2.276084e-01 1.164961e-01 2.315079e-02 1.162862e-01 2.277276e-01 3.349078e-01 4.352841e-01 5.260214e-01 6.021895e-01 6.654132e-01 7.106907e-01 7.390340e-01 7.479091e-01 7.385028e-01 7.017873e-01 6.495327e-01 5.801298e-01 5.011503e-01 4.232063e-01 3.492239e-01 2.803092e-01 2.212689e-01 1.707322e-01 1.314281e-01 9.920795e-02 7.581993e-02 5.684229e-02 4.338494e-02 3.264318e-02 2.454935e-02 1.856622e-02 1.347301e-02 1.029276e-02 7.509429e-03 
1.034451e-02 1.070287e-02 1.316850e-02 1.617244e-02 2.178581e-02 2.847023e-02 3.867536e-02 5.269732e-02 7.200737e-02 1.008327e-01 1.387765e-01 1.932631e-01 2.608915e-01 3.481006e-01 4.464438e-01 5.568880e-01 6.704501e-01 7.716164e-01 8.569662e-01 9.143387e-01 9.502781e-01 9.719597e-01 9.623643e-01 9.344164e-01 8.865699e-01 8.179763e-01 7.311864e-01 6.320905e-01 5.186360e-01 4.024487e-01 2.891139e-01 1.877078e-01 1.396261e-01 1.883063e-01 2.895359e-01 4.026195e-01 5.192069e-01 6.311185e-01 7.304195e-01 8.182411e-01 8.869990e-01 9.351968e-01 9.623251e-01 9.707571e-01 9.488277e-01 9.146041e-01 8.576400e-01 7.711896e-01 6.694614e-01 5.569403e-01 4.463974e-01 3.480095e-01 2.609101e-01 1.931145e-01 1.388009e-01 1.007559e-01 7.208136e-02 5.271311e-02 3.878589e-02 2.854364e-02 2.189779e-02 1.625543e-02 1.324753e-02 1.074272e-02 
1.329035e-02 1.375791e-02 1.633394e-02 1.957193e-02 2.627248e-02 3.410537e-02 4.793978e-02 6.699082e-02 9.689485e-02 1.418056e-01 2.053150e-01 2.940663e-01 4.046930e-01 5.383903e-01 6.808386e-01 8.233969e-01 9.431817e-01 1.039131e+00 1.119032e+00 1.155604e+00 1.149976e+00 1.111182e+00 1.022680e+00 9.231648e-01 8.272153e-01 7.330612e-01 6.412840e-01 5.583543e-01 4.774373e-01 4.012526e-01 3.397080e-01 2.950481e-01 2.798654e-01 2.969288e-01 3.410823e-01 4.018567e-01 4.772431e-01 5.572832e-01 6.407092e-01 7.331081e-01 8.284742e-01 9.239465e-01 1.021025e+00 1.107910e+00 1.147346e+00 1.156923e+00 1.121083e+00 1.038646e+00 9.413520e-01 8.234203e-01 6.810510e-01 5.382462e-01 4.048154e-01 2.938411e-01 2.052643e-01 1.415459e-01 9.676699e-02 6.677618e-02 4.781713e-02 3.397247e-02 2.619259e-02 1.951032e-02 1.629907e-02 1.374172e-02 
1.540035e-02 1.612770e-02 1.872008e-02 2.251567e-02 3.048240e-02 4.048603e-02 5.992283e-02 8.838314e-02 1.360120e-01 2.087683e-01 3.112644e-01 4.494976e-01 6.109249e-01 7.901323e-01 9.510484e-01 1.091392e+00 1.186887e+00 1.200006e+00 1.139439e+00 1.005701e+00 8.619441e-01 7.540513e-01 6.388551e-01 5.281432e-01 4.366252e-01 3.730378e-01 3.351223e-01 3.231159e-01 3.286409e-01 3.295845e-01 3.354759e-01 3.366122e-01 3.390250e-01 3.395644e-01 3.352216e-01 3.287470e-01 3.277687e-01 3.220257e-01 3.360302e-01 3.726896e-01 4.358570e-01 5.251043e-01 6.323220e-01 7.499065e-01 8.612205e-01 1.008372e+00 1.143743e+00 1.198768e+00 1.182607e+00 1.091464e+00 9.517754e-01 7.897228e-01 6.110106e-01 4.491593e-01 3.112636e-01 2.086476e-01 1.360388e-01 8.837119e-02 5.994037e-02 4.050186e-02 3.047862e-02 2.252086e-02 1.871129e-02 1.612632e-02 
1.585056e-02 1.718865e-02 2.019038e-02 2.555238e-02 3.598703e-02 5.008510e-02 7.898935e-02 1.222714e-01 1.978996e-01 3.098309e-01 4.642755e-01 6.552599e-01 8.565203e-01 1.036528e+00 1.147335e+00 1.150892e+00 9.950562e-01 7.507916e-01 5.205065e-01 3.275973e-01 1.887172e-01 2.254497e-01 3.501753e-01 4.076983e-01 4.577564e-01 4.875888e-01 4.881131e-01 4.756482e-01 4.337662e-01 3.864781e-01 3.420733e-01 3.037660e-01 2.942443e-01 3.059144e-01 3.404979e-01 3.835653e-01 4.357018e-01 4.727285e-01 4.845197e-01 4.893772e-01 4.622449e-01 4.060187e-01 3.465447e-01 2.262471e-01 1.993627e-01 3.321752e-01 5.223403e-01 7.478159e-01 9.883220e-01 1.150542e+00 1.149627e+00 1.035899e+00 8.565151e-01 6.547796e-01 4.639498e-01 3.093449e-01 1.975236e-01 1.219107e-01 7.869812e-02 4.988883e-02 3.581641e-02 2.546181e-02 2.011411e-02 1.716008e-02 
1.495567e-02 1.720886e-02 2.069680e-02 2.836188e-02 4.130059e-02 6.126487e-02 1.030444e-01 1.689694e-01 2.837868e-01 4.484023e-01 6.575021e-01 8.819681e-01 1.056393e+00 1.103698e+00 9.191652e-01 5.694809e-01 2.106619e-01 1.493512e-01 3.719896e-01 5.683329e-01 6.916258e-01 8.158185e-01 8.884849e-01 8.652601e-01 8.388311e-01 7.754157e-01 6.891204e-01 5.914762e-01 4.790920e-01 3.759158e-01 2.803318e-01 2.035161e-01 1.759322e-01 2.046127e-01 2.815129e-01 3.738980e-01 4.801795e-01 5.912711e-01 6.870096e-01 7.731723e-01 8.403349e-01 8.637247e-01 8.845677e-01 8.115403e-01 6.915723e-01 5.729028e-01 3.704063e-01 1.386423e-01 2.142269e-01 5.690313e-01 9.258624e-01 1.102333e+00 1.055253e+00 8.810624e-01 6.571993e-01 4.483208e-01 2.837219e-01 1.689392e-01 1.028777e-01 6.114237e-02 4.108475e-02 2.820103e-02 2.054356e-02 1.712820e-02 
1.060439e-02 1.467474e-02 1.895748e-02 3.046991e-02 4.722397e-02 7.667188e-02 1.384975e-01 2.360463e-01 4.019274e-01 6.182304e-01 8.552261e-01 1.029095e+00 1.004581e+00 6.711387e-01 1.511685e-01 2.616913e-01 5.775358e-01 8.010819e-01 9.676549e-01 1.074419e+00 1.063704e+00 1.015510e+00 8.820670e-01 7.361847e-01 6.209529e-01 5.076612e-01 4.151259e-01 3.282172e-01 2.545033e-01 1.944181e-01 1.400698e-01 9.917965e-02 8.433342e-02 9.950630e-02 1.413085e-01 1.933488e-01 2.544884e-01 3.292408e-01 4.139310e-01 5.043422e-01 6.197320e-01 7.344562e-01 8.805666e-01 1.015659e+00 1.066707e+00 1.077809e+00 9.707994e-01 7.918834e-01 5.747880e-01 2.671696e-01 1.584099e-01 6.712879e-01 1.001619e+00 1.027632e+00 8.538261e-01 6.172370e-01 4.012062e-01 2.355672e-01 1.380870e-01 7.646885e-02 4.700167e-02 3.033350e-02 1.882250e-02 1.459134e-02 
5.123598e-03 1.247598e-02 1.836424e-02 3.453998e-02 5.391794e-02 9.473757e-02 1.798405e-01 3.148814e-01 5.328539e-01 7.838547e-01 9.767728e-01 9.470675e-01 5.363917e-01 1.911149e-01 6.009717e-01 8.487876e-01 1.076509e+00 1.126644e+00 1.047809e+00 8.911606e-01 6.898753e-01 5.393852e-01 3.904426e-01 3.047300e-01 2.491065e-01 2.042831e-01 1.752548e-01 1.458819e-01 1.214062e-01 1.012625e-01 8.225646e-02 6.815878e-02 6.451025e-02 6.820815e-02 8.288748e-02 1.006434e-01 1.214973e-01 1.458544e-01 1.739847e-01 2.027807e-01 2.490150e-01 3.049544e-01 3.900117e-01 5.394851e-01 6.896269e-01 8.907711e-01 1.049291e+00 1.123796e+00 1.076814e+00 8.580303e-01 6.028508e-01 1.948249e-01 5.304998e-01 9.447774e-01 9.761264e-01 7.840255e-01 5.327464e-01 3.148174e-01 1.794223e-01 9.438211e-02 5.343731e-02 3.412597e-02 1.799703e-02 1.219177e-02 
5.540199e-03 1.039389e-02 1.721497e-02 3.611968e-02 5.718348e-02 1.139213e-01 2.309816e-01 4.084556e-01 6.765690e-01 9.110531e-01 9.438577e-01 5.497551e-01 3.459039e-01 8.056834e-01 1.003015e+00 1.070443e+00 9.691730e-01 7.192753e-01 4.909927e-01 3.052485e-01 2.012604e-01 1.809230e-01 1.645071e-01 1.568673e-01 1.526564e-01 1.351974e-01 1.176272e-01 9.496383e-02 7.547080e-02 6.008177e-02 4.829742e-02 3.990829e-02 3.846496e-02 3.989345e-02 4.869303e-02 5.968833e-02 7.555135e-02 9.462482e-02 1.168249e-01 1.346048e-01 1.532355e-01 1.574809e-01 1.639323e-01 1.800729e-01 2.004061e-01 3.052578e-01 4.910507e-01 7.202858e-01 9.656833e-01 1.071374e+00 9.971784e-01 7.956738e-01 3.442721e-01 5.486631e-01 9.414829e-01 9.089917e-01 6.758560e-01 4.081646e-01 2.307131e-01 1.138669e-01 5.700137e-02 3.584818e-02 1.694171e-02 1.005314e-02 
1.529409e-02 1.477337e-02 2.224923e-02 4.139564e-02 6.165337e-02 1.357013e-01 2.825506e-01 4.928782e-01 7.866095e-01 9.534114e-01 6.997043e-01 3.421745e-01 9.055265e-01 9.961535e-01 8.998329e-01 6.549392e-01 3.908049e-01 1.944788e-01 1.374163e-01 1.283707e-01 1.247791e-01 1.262993e-01 1.176053e-01 1.101271e-01 1.086431e-01 1.001129e-01 9.229126e-02 7.997496e-02 6.861482e-02 5.796189e-02 5.067027e-02 4.497085e-02 4.436537e-02 4.494129e-02 5.082020e-02 5.765423e-02 6.867462e-02 7.957300e-02 9.202466e-02 9.990918e-02 1.090325e-01 1.099669e-01 1.168644e-01 1.255412e-01 1.245731e-01 1.290793e-01 1.370923e-01 1.955291e-01 3.879510e-01 6.563583e-01 8.984511e-01 9.868801e-01 9.067141e-01 3.394591e-01 7.035293e-01 9.537971e-01 7.860056e-01 4.926121e-01 2.818561e-01 1.351398e-01 6.105448e-02 4.083889e-02 2.195322e-02 1.446454e-02 
3.051245e-02 2.382693e-02 3.180401e-02 4.075302e-02 5.342882e-02 1.493292e-01 3.279107e-01 5.721524e-01 9.128346e-01 9.349153e-01 2.895741e-01 9.267728e-01 9.499902e-01 6.684374e-01 4.116782e-01 1.918390e-01 1.188497e-01 6.653519e-02 6.481448e-02 8.163665e-02 1.054218e-01 1.277494e-01 1.358729e-01 1.326747e-01 1.264513e-01 1.118064e-01 9.718443e-02 7.973002e-02 6.512007e-02 5.215582e-02 4.365400e-02 3.740793e-02 3.645366e-02 3.736630e-02 4.374701e-02 5.194099e-02 6.513909e-02 7.944693e-02 9.702680e-02 1.116088e-01 1.265705e-01 1.325204e-01 1.355972e-01 1.274426e-01 1.055175e-01 8.187416e-02 6.416580e-02 6.644274e-02 1.179045e-01 1.936779e-01 4.163377e-01 6.664331e-01 9.481755e-01 9.313583e-01 2.915734e-01 9.311786e-01 9.100538e-01 5.729444e-01 3.282620e-01 1.497910e-01 5.340191e-02 4.016998e-02 3.140013e-02 2.349356e-02 
4.026581e-02 2.972050e-02 3.979318e-02 3.880355e-02 4.710008e-02 1.680154e-01 3.690080e-01 6.300716e-01 1.005892e+00 5.874174e-01 8.198047e-01 9.796078e-01 5.294193e-01 2.871112e-01 1.415086e-01 7.722126e-02 4.963305e-02 3.421074e-02 6.270993e-02 9.002515e-02 1.157631e-01 1.304849e-01 1.343717e-01 1.286284e-01 1.201023e-01 1.060611e-01 9.311176e-02 7.848113e-02 6.667037e-02 5.574766e-02 4.868436e-02 4.329250e-02 4.243751e-02 4.325553e-02 4.873544e-02 5.559814e-02 6.668852e-02 7.828019e-02 9.303939e-02 1.058953e-01 1.200966e-01 1.284807e-01 1.340977e-01 1.303264e-01 1.156722e-01 9.042408e-02 6.261925e-02 3.482984e-02 4.913595e-02 7.670178e-02 1.423687e-01 2.863038e-01 5.242163e-01 9.772705e-01 8.212442e-01 5.846930e-01 1.003074e+00 6.285510e-01 3.683993e-01 1.676073e-01 4.701947e-02 3.844456e-02 3.966191e-02 2.961804e-02 
5.254450e-02 3.812795e-02 5.279418e-02 3.199756e-02 2.067132e-02 1.670291e-01 3.400004e-01 6.897669e-01 1.007685e+00 3.167872e-01 1.035808e+00 4.494643e-01 2.399726e-01 1.275082e-01 1.006057e-01 7.588211e-02 7.928721e-02 7.481713e-02 9.035435e-02 1.041417e-01 1.270198e-01 1.403228e-01 1.450568e-01 1.388787e-01 1.276351e-01 1.109796e-01 9.467576e-02 7.767781e-02 6.382211e-02 5.170060e-02 4.373804e-02 3.803463e-02 3.693205e-02 3.800267e-02 4.376828e-02 5.160101e-02 6.381293e-02 7.754985e-02 9.458848e-02 1.108632e-01 1.275424e-01 1.388058e-01 1.448197e-01 1.402226e-01 1.266966e-01 1.042116e-01 8.998726e-02 7.478603e-02 7.928174e-02 7.574398e-02 1.014080e-01 1.265914e-01 2.395790e-01 4.439475e-01 1.030402e+00 3.163744e-01 1.001557e+00 6.901040e-01 3.422549e-01 1.681610e-01 2.077449e-02 3.114778e-02 5.228019e-02 3.788213e-02 
5.430992e-02 3.740833e-02 5.551925e-02 1.515188e-02 1.894674e-03 1.796547e-01 3.166037e-01 7.713580e-01 8.045662e-01 7.233036e-01 8.037215e-01 1.912039e-01 2.260212e-01 1.507292e-01 1.561918e-01 1.509932e-01 1.565106e-01 1.531432e-01 1.578048e-01 1.617165e-01 1.689100e-01 1.682630e-01 1.606481e-01 1.459468e-01 1.280473e-01 1.084456e-01 9.042427e-02 7.377989e-02 6.054894e-02 4.957645e-02 4.239819e-02 3.739531e-02 3.637508e-02 3.736752e-02 4.240229e-02 4.950099e-02 6.051221e-02 7.368453e-02 9.031570e-02 1.083488e-01 1.278867e-01 1.458744e-01 1.603874e-01 1.681942e-01 1.685967e-01 1.616781e-01 1.574697e-01 1.528062e-01 1.561602e-01 1.501160e-01 1.558008e-01 1.486558e-01 2.235865e-01 1.857880e-01 7.952352e-01 7.237007e-01 7.971967e-01 7.697218e-01 3.175629e-01 1.805429e-01 2.232557e-03 1.471474e-02 5.510032e-02 3.725205e-02 
5.210182e-02 3.749723e-02 5.502001e-02 2.744034e-02 1.088442e-02 1.634476e-01 2.851253e-01 7.006108e-01 5.612008e-01 8.962384e-01 4.444819e-01 3.099675e-01 2.451431e-01 2.430995e-01 2.331266e-01 2.393379e-01 2.370459e-01 2.372493e-01 2.313211e-01 2.250532e-01 2.144851e-01 2.007564e-01 1.814260e-01 1.597131e-01 1.358655e-01 1.130447e-01 9.174649e-02 7.322693e-02 5.768518e-02 4.510755e-02 3.600087e-02 2.980045e-02 2.811355e-02 2.978842e-02 3.599715e-02 4.508147e-02 5.764173e-02 7.319801e-02 9.164292e-02 1.130162e-01 1.357096e-01 1.596963e-01 1.812054e-01 2.007260e-01 2.142484e-01 2.250485e-01 2.312214e-01 2.372642e-01 2.372559e-01 2.395268e-01 2.338275e-01 2.433828e-01 2.459122e-01 3.140308e-01 4.439401e-01 8.887868e-01 5.530210e-01 6.987290e-01 2.859466e-01 1.636772e-01 1.053581e-02 2.712168e-02 5.468255e-02 3.736535e-02 
3.944744e-02 3.197317e-02 4.663955e-02 4.958876e-02 3.044145e-02 1.288233e-01 2.368098e-01 5.055337e-01 5.510910e-01 6.772278e-01 1.587410e-01 3.364416e-01 2.516604e-01 3.159934e-01 2.966960e-01 3.159031e-01 3.030142e-01 3.061571e-01 2.924382e-01 2.815946e-01 2.582978e-01 2.336959e-01 2.020129e-01 1.718651e-01 1.407064e-01 1.139508e-01 8.947271e-02 6.973574e-02 5.299758e-02 4.002156e-02 3.007904e-02 2.335350e-02 2.117792e-02 2.333349e-02 3.002799e-02 3.998447e-02 5.289597e-02 6.969208e-02 8.931329e-02 1.138958e-01 1.404945e-01 1.717982e-01 2.017578e-01 2.335994e-01 2.580396e-01 2.814693e-01 2.922716e-01 3.060117e-01 3.031000e-01 3.159531e-01 2.974325e-01 3.170653e-01 2.541437e-01 3.397594e-01 1.614737e-01 6.793725e-01 5.533938e-01 5.091450e-01 2.397776e-01 1.293057e-01 2.921230e-02 4.847876e-02 4.594365e-02 3.150679e-02 
2.167882e-02 2.540882e-02 3.592340e-02 6.196132e-02 4.262205e-02 9.097537e-02 1.619246e-01 3.045731e-01 5.753240e-01 4.568942e-01 1.109652e-01 3.598874e-01 2.924650e-01 3.865953e-01 3.513964e-01 3.741236e-01 3.504043e-01 3.544331e-01 3.344286e-01 3.197761e-01 2.874834e-01 2.557858e-01 2.163403e-01 1.814126e-01 1.461613e-01 1.173724e-01 9.091385e-02 7.010099e-02 5.172483e-02 3.726313e-02 2.476372e-02 1.507278e-02 1.048370e-02 1.508707e-02 2.472694e-02 3.728485e-02 5.165245e-02 7.012232e-02 9.079554e-02 1.173840e-01 1.460003e-01 1.814082e-01 2.161535e-01 2.557561e-01 2.873203e-01 3.197422e-01 3.343812e-01 3.544202e-01 3.505494e-01 3.741563e-01 3.517134e-01 3.864638e-01 2.925146e-01 3.585946e-01 1.113511e-01 4.577851e-01 5.807828e-01 3.051349e-01 1.614180e-01 8.883423e-02 4.139944e-02 6.102559e-02 3.541008e-02 2.496406e-02 
3.328083e-04 2.204214e-02 3.165842e-02 6.661024e-02 4.762653e-02 6.173820e-02 8.239776e-02 2.257205e-01 5.963615e-01 3.235011e-01 8.701776e-02 3.407910e-01 2.927556e-01 3.983988e-01 3.622699e-01 3.884078e-01 3.627021e-01 3.682500e-01 3.470850e-01 3.321874e-01 2.975173e-01 2.637295e-01 2.214263e-01 1.843804e-01 1.470725e-01 1.170054e-01 8.945078e-02 6.810941e-02 4.925993e-02 3.458819e-02 2.152403e-02 1.049597e-02 4.462788e-05 1.047142e-02 2.142307e-02 3.456483e-02 4.912581e-02 6.808068e-02 8.927186e-02 1.169598e-01 1.468516e-01 1.843091e-01 2.211819e-01 2.636235e-01 2.972966e-01 3.320675e-01 3.469918e-01 3.681861e-01 3.629065e-01 3.885979e-01 3.630164e-01 3.990981e-01 2.940419e-01 3.416904e-01 8.869844e-02 3.206524e-01 5.903939e-01 2.220407e-01 8.080879e-02 6.150697e-02 4.720760e-02 6.584105e-02 3.099334e-02 2.131272e-02 
2.167882e-02 2.540882e-02 3.592340e-02 6.196132e-02 4.262205e-02 9.097537e-02 1.619246e-01 3.045731e-01 5.753240e-01 4.568942e-01 1.109652e-01 3.598874e-01 2.924650e-01 3.865953e-01 3.513964e-01 3.741236e-01 3.504043e-01 3.544331e-01 3.344286e-01 3.197761e-01 2.874834e-01 2.557858e-01 2.163403e-01 1.814126e-01 1.461613e-01 1.173724e-01 9.091385e-02 7.010099e-02 5.172483e-02 3.726313e-02 2.476372e-02 1.507278e-02 1.048370e-02 1.508707e-02 2.472694e-02 3.728485e-02 5.165245e-02 7.012232e-02 9.079554e-02 1.173840e-01 1.460003e-01 1.814082e-01 2.161535e-01 2.557561e-01 2.873203e-01 3.197422e-01 3.343812e-01 3.544202e-01 3.505494e-01 3.741563e-01 3.517134e-01 3.864638e-01 2.925146e-01 3.585946e-01 1.113511e-01 4.577851e-01 5.807828e-01 3.051349e-01 1.614180e-01 8.883423e-02 4.139944e-02 6.102559e-02 3.541008e-02 2.496406e-02 
3.944744e-02 3.197317e-02 4.663955e-02 4.958876e-02 3.044145e-02 1.288233e-01 2.368098e-01 5.055337e-01 5.510910e-01 6.772278e-01 1.587410e-01 3.364416e-01 2.516604e-01 3.159934e-01 2.966960e-01 3.159031e-01 3.030142e-01 3.061571e-01 2.924382e-01 2.815946e-01 2.582978e-01 2.336959e-01 2.020129e-01 1.718651e-01 1.407064e-01 1.139508e-01 8.947271e-02 6.973574e-02 5.299758e-02 4.002156e-02 3.007904e-02 2.335350e-02 2.117792e-02 2.333349e-02 3.002799e-02 3.998447e-02 5.289597e-02 6.969208e-02 8.931329e-02 1.138958e-01 1.404945e-01 1.717982e-01 2.017578e-01 2.335994e-01 2.580396e-01 2.814693e-01 2.922716e-01 3.060117e-01 3.031000e-01 3.159531e-01 2.974325e-01 3.170653e-01 2.541437e-01 3.397594e-01 1.614737e-01 6.793725e-01 5.533938e-01 5.091450e-01 2.397776e-01 1.293057e-01 2.921230e-02 4.847876e-02 4.594365e-02 3.150679e-02 