# vtk DataFile Version 2.0
Comment goes here
ASCII

DATASET STRUCTURED_POINTS
FIELD FieldData 1
TIME 1 1 double
0.65000000
DIMENSIONS    64   64   1

ORIGIN    0.000   0.000   0.000
SPACING   0.015625 0.015625   1.000

POINT_DATA   4096
SCALARS uMag double
LOOKUP_TABLE default

2.718234e-04 2.089503e-02 4.148184e-02 6.178051e-02 8.184334e-02 1.013610e-01 1.204087e-01 1.385839e-01 1.559989e-01 1.721131e-01 1.871073e-01 2.002512e-01 2.118493e-01 2.209307e-01 2.280124e-01 2.318466e-01 2.332897e-01 2.308159e-01 2.257739e-01 2.164196e-01 2.047216e-01 1.888614e-01 1.714346e-01 1.507796e-01 1.298828e-01 1.075125e-01 8.648336e-02 6.615723e-02 4.836831e-02 3.290758e-02 1.993428e-02 9.289293e-03 6.320959e-04 9.875969e-03 2.099762e-02 3.323187e-02 4.895753e-02 6.616478e-02 8.659068e-02 1.073520e-01 1.297078e-01 1.506524e-01 1.712083e-01 1.888702e-01 2.045718e-01 2.165549e-01 2.257189e-01 2.310117e-01 2.332865e-01 2.320279e-01 2.279999e-01 2.210371e-01 2.117740e-01 2.002448e-01 1.869348e-01 1.719789e-01 1.557162e-01 1.383260e-01 1.200217e-01 1.009987e-01 8.137231e-02 6.134337e-02 4.095678e-02 2.041893e-02 
2.065877e-02 2.935830e-02 4.627705e-02 6.504733e-02 8.427882e-02 1.032871e-01 1.219793e-01 1.399089e-01 1.571339e-01 1.731191e-01 1.880131e-01 2.011032e-01 2.126706e-01 2.217612e-01 2.288788e-01 2.327801e-01 2.343258e-01 2.319674e-01 2.270856e-01 2.178698e-01 2.063568e-01 1.906103e-01 1.733241e-01 1.526946e-01 1.318056e-01 1.093357e-01 8.815896e-02 6.769663e-02 4.981026e-02 3.455017e-02 2.218731e-02 1.342140e-02 9.606567e-03 1.378740e-02 2.309037e-02 3.479330e-02 5.034212e-02 6.763896e-02 8.823086e-02 1.091237e-01 1.316007e-01 1.525285e-01 1.730671e-01 1.905867e-01 2.061754e-01 2.179768e-01 2.270028e-01 2.321408e-01 2.343028e-01 2.329471e-01 2.288558e-01 2.218616e-01 2.125931e-01 2.010976e-01 1.878446e-01 1.729906e-01 1.568597e-01 1.396608e-01 1.216054e-01 1.029398e-01 8.383020e-02 6.464051e-02 4.581524e-02 2.902756e-02 
4.135021e-02 4.626113e-02 5.834417e-02 7.395394e-02 9.113887e-02 1.087704e-01 1.264650e-01 1.436701e-01 1.603369e-01 1.759246e-01 1.905229e-01 2.034513e-01 2.149447e-01 2.241013e-01 2.313805e-01 2.356003e-01 2.375788e-01 2.358205e-01 2.316678e-01 2.233285e-01 2.128050e-01 1.981205e-01 1.819189e-01 1.623082e-01 1.422479e-01 1.203776e-01 9.928748e-02 7.861432e-02 5.982788e-02 4.365834e-02 3.031601e-02 2.151082e-02 1.793374e-02 2.159768e-02 3.085817e-02 4.356638e-02 6.010262e-02 7.829260e-02 9.921303e-02 1.200301e-01 1.419869e-01 1.621283e-01 1.816683e-01 1.981488e-01 2.126626e-01 2.235018e-01 2.316327e-01 2.360486e-01 2.375986e-01 2.358037e-01 2.313900e-01 2.242223e-01 2.148895e-01 2.034564e-01 1.903700e-01 1.758026e-01 1.600767e-01 1.434306e-01 1.261106e-01 1.084426e-01 9.072943e-02 7.359870e-02 5.798279e-02 4.605346e-02 
6.205896e-02 6.537442e-02 7.424749e-02 8.683301e-02 1.015996e-01 1.174122e-01 1.336897e-01 1.498347e-01 1.656563e-01 1.806452e-01 1.947865e-01 2.074739e-01 2.188534e-01 2.281153e-01 2.356451e-01 2.403419e-01 2.429791e-01 2.420837e-01 2.390090e-01 2.318565e-01 2.227186e-01 2.093248e-01 1.944738e-01 1.758426e-01 1.565047e-01 1.348130e-01 1.132834e-01 9.184340e-02 7.177504e-02 5.468993e-02 4.062478e-02 3.200715e-02 2.856633e-02 3.189230e-02 4.083404e-02 5.424975e-02 7.178943e-02 9.120001e-02 1.130398e-01 1.342625e-01 1.561533e-01 1.755936e-01 1.941787e-01 2.093498e-01 2.225527e-01 2.320403e-01 2.389647e-01 2.423214e-01 2.430030e-01 2.405553e-01 2.356699e-01 2.282494e-01 2.188211e-01 2.074960e-01 1.946613e-01 1.805450e-01 1.654289e-01 1.496241e-01 1.333776e-01 1.171268e-01 1.012529e-01 8.654595e-02 7.397779e-02 6.523451e-02 
8.285165e-02 8.529305e-02 9.207286e-02 1.022133e-01 1.146745e-01 1.285317e-01 1.431710e-01 1.580141e-01 1.727698e-01 1.869745e-01 2.005168e-01 2.128807e-01 2.241170e-01 2.335424e-01 2.414480e-01 2.468750e-01 2.505125e-01 2.509978e-01 2.496278e-01 2.444990e-01 2.376891e-01 2.267187e-01 2.143871e-01 1.979592e-01 1.803991e-01 1.596612e-01 1.378394e-01 1.149558e-01 9.163746e-02 7.066969e-02 5.223811e-02 4.041721e-02 3.553581e-02 4.010637e-02 5.215827e-02 6.975839e-02 9.127533e-02 1.138298e-01 1.373227e-01 1.588454e-01 1.799378e-01 1.977107e-01 2.141142e-01 2.268730e-01 2.376067e-01 2.448210e-01 2.496767e-01 2.513361e-01 2.506153e-01 2.471490e-01 2.415314e-01 2.337097e-01 2.241266e-01 2.129222e-01 2.004244e-01 1.868909e-01 1.725742e-01 1.578261e-01 1.428988e-01 1.282831e-01 1.143838e-01 1.019801e-01 9.186621e-02 8.519048e-02 
1.036350e-01 1.055263e-01 1.108679e-01 1.191243e-01 1.295869e-01 1.415954e-01 1.545689e-01 1.680361e-01 1.816208e-01 1.949639e-01 2.078378e-01 2.198699e-01 2.309821e-01 2.406749e-01 2.491067e-01 2.555171e-01 2.604770e-01 2.627584e-01 2.635941e-01 2.609957e-01 2.570982e-01 2.489253e-01 2.395126e-01 2.251868e-01 2.092217e-01 1.887123e-01 1.657967e-01 1.408265e-01 1.143996e-01 9.054060e-02 6.917900e-02 5.555734e-02 4.987464e-02 5.504666e-02 6.880656e-02 8.917099e-02 1.137399e-01 1.392111e-01 1.650338e-01 1.876070e-01 2.086655e-01 2.249439e-01 2.392354e-01 2.491810e-01 2.570359e-01 2.614010e-01 2.636755e-01 2.631521e-01 2.606260e-01 2.558344e-01 2.492458e-01 2.408834e-01 2.310503e-01 2.199532e-01 2.078027e-01 1.949234e-01 1.814815e-01 1.678943e-01 1.543552e-01 1.413988e-01 1.293585e-01 1.189446e-01 1.107126e-01 1.054510e-01 
1.244882e-01 1.259856e-01 1.302734e-01 1.370339e-01 1.457949e-01 1.561008e-01 1.674600e-01 1.795158e-01 1.918692e-01 2.042668e-01 2.164054e-01 2.280600e-01 2.390475e-01 2.490784e-01 2.581866e-01 2.658726e-01 2.725731e-01 2.772970e-01 2.811518e-01 2.821972e-01 2.825014e-01 2.787401e-01 2.740172e-01 2.638203e-01 2.515887e-01 2.332788e-01 2.108546e-01 1.839091e-01 1.516911e-01 1.199988e-01 8.942795e-02 6.821739e-02 5.916266e-02 6.746097e-02 8.876322e-02 1.179842e-01 1.505678e-01 1.815640e-01 2.096950e-01 2.318281e-01 2.509048e-01 2.637603e-01 2.738671e-01 2.793383e-01 2.826524e-01 2.828817e-01 2.814300e-01 2.778627e-01 2.728673e-01 2.662804e-01 2.584221e-01 2.493329e-01 2.391804e-01 2.281724e-01 2.164199e-01 2.042545e-01 1.917764e-01 1.794091e-01 1.672962e-01 1.559471e-01 1.456188e-01 1.368967e-01 1.301570e-01 1.259299e-01 
1.452291e-01 1.464362e-01 1.499148e-01 1.554869e-01 1.628174e-01 1.716312e-01 1.815044e-01 1.922312e-01 2.033887e-01 2.148793e-01 2.263151e-01 2.376779e-01 2.486591e-01 2.592622e-01 2.693552e-01 2.788177e-01 2.878638e-01 2.958729e-01 3.036802e-01 3.094502e-01 3.150852e-01 3.166651e-01 3.176349e-01 3.117492e-01 3.034688e-01 2.863668e-01 2.628851e-01 2.327968e-01 1.961781e-01 1.605345e-01 1.252652e-01 1.002859e-01 8.946030e-02 9.928508e-02 1.243033e-01 1.579299e-01 1.948082e-01 2.297476e-01 2.613182e-01 2.845384e-01 3.027180e-01 3.119849e-01 3.176011e-01 3.176017e-01 3.153644e-01 3.103422e-01 3.040887e-01 2.965689e-01 2.882930e-01 2.793268e-01 2.697192e-01 2.596062e-01 2.489047e-01 2.378709e-01 2.264240e-01 2.149387e-01 2.033745e-01 1.921878e-01 1.814072e-01 1.715328e-01 1.626957e-01 1.553917e-01 1.498319e-01 1.463970e-01 
1.659335e-01 1.669004e-01 1.697390e-01 1.743214e-01 1.804411e-01 1.879246e-01 1.964468e-01 2.059064e-01 2.159150e-01 2.264980e-01 2.372488e-01 2.483358e-01 2.593955e-01 2.707294e-01 2.821073e-01 2.938262e-01 3.059096e-01 3.181760e-01 3.311260e-01 3.431616e-01 3.558024e-01 3.648859e-01 3.738345e-01 3.753936e-01 3.749623e-01 3.638185e-01 3.462819e-01 3.184578e-01 2.757663e-01 2.282715e-01 1.761710e-01 1.346294e-01 1.158718e-01 1.331716e-01 1.746766e-01 2.247780e-01 2.739696e-01 3.143880e-01 3.442269e-01 3.616289e-01 3.740219e-01 3.763320e-01 3.741515e-01 3.665557e-01 3.565557e-01 3.445380e-01 3.319307e-01 3.191419e-01 3.066034e-01 2.944689e-01 2.826278e-01 2.711412e-01 2.597366e-01 2.485767e-01 2.374282e-01 2.266057e-01 2.159641e-01 2.059157e-01 1.964097e-01 1.878780e-01 1.803712e-01 1.742663e-01 1.696877e-01 1.668768e-01 
1.863277e-01 1.871056e-01 1.894162e-01 1.931822e-01 1.982685e-01 2.046048e-01 2.119238e-01 2.202543e-01 2.292226e-01 2.390216e-01 2.492247e-01 2.602535e-01 2.716997e-01 2.842701e-01 2.976137e-01 3.126177e-01 3.289420e-01 3.471130e-01 3.668401e-01 3.871387e-01 4.085472e-01 4.268238e-01 4.455626e-01 4.550745e-01 4.638086e-01 4.568082e-01 4.385722e-01 4.052500e-01 3.580347e-01 3.108258e-01 2.575211e-01 2.138718e-01 1.938927e-01 2.121457e-01 2.555541e-01 3.066483e-01 3.565230e-01 4.003849e-01 4.358008e-01 4.541516e-01 4.628408e-01 4.569685e-01 4.461106e-01 4.290878e-01 4.095645e-01 3.888263e-01 3.679618e-01 3.483259e-01 3.299539e-01 3.134818e-01 2.983986e-01 2.848668e-01 2.722379e-01 2.606395e-01 2.495450e-01 2.392395e-01 2.293722e-01 2.203455e-01 2.119587e-01 2.046168e-01 1.982474e-01 1.931636e-01 1.893905e-01 1.870945e-01 
2.064703e-01 2.070747e-01 2.089571e-01 2.120192e-01 2.162344e-01 2.215584e-01 2.278286e-01 2.351348e-01 2.431882e-01 2.522922e-01 2.621014e-01 2.732488e-01 2.854190e-01 2.996897e-01 3.157408e-01 3.349753e-01 3.567875e-01 3.822281e-01 4.101780e-01 4.400758e-01 4.711161e-01 4.995232e-01 5.276130e-01 5.461828e-01 5.645051e-01 5.649877e-01 5.654203e-01 5.513004e-01 5.042124e-01 4.429284e-01 3.647025e-01 2.959186e-01 2.651159e-01 2.934822e-01 3.614092e-01 4.377362e-01 5.030591e-01 5.453452e-01 5.627387e-01 5.621271e-01 5.627497e-01 5.497370e-01 5.287107e-01 5.027791e-01 4.729572e-01 4.423440e-01 4.119839e-01 3.837984e-01 3.582452e-01 3.360485e-01 3.167790e-01 3.004130e-01 2.861052e-01 2.737309e-01 2.625274e-01 2.525987e-01 2.434279e-01 2.353085e-01 2.279411e-01 2.216389e-01 2.162722e-01 2.120465e-01 2.089635e-01 2.070798e-01 
2.260071e-01 2.264731e-01 2.279857e-01 2.304544e-01 2.339106e-01 2.383647e-01 2.437117e-01 2.501443e-01 2.574315e-01 2.660498e-01 2.757513e-01 2.874638e-01 3.010294e-01 3.179876e-01 3.380689e-01 3.632793e-01 3.924300e-01 4.273058e-01 4.648647e-01 5.057999e-01 5.461036e-01 5.841310e-01 6.208312e-01 6.457549e-01 6.788578e-01 6.882421e-01 6.791581e-01 6.397366e-01 5.868122e-01 5.540850e-01 5.089340e-01 4.605813e-01 4.362627e-01 4.584751e-01 5.051354e-01 5.489583e-01 5.882234e-01 6.333998e-01 6.752675e-01 6.851205e-01 6.773915e-01 6.511976e-01 6.216644e-01 5.874719e-01 5.481277e-01 5.081951e-01 4.672433e-01 4.292909e-01 3.945241e-01 3.648237e-01 3.396062e-01 3.190839e-01 3.020427e-01 2.881974e-01 2.763768e-01 2.665166e-01 2.577926e-01 2.504186e-01 2.438994e-01 2.385067e-01 2.339932e-01 2.305150e-01 2.280133e-01 2.264889e-01 
2.449623e-01 2.452886e-01 2.465057e-01 2.484520e-01 2.512822e-01 2.549796e-01 2.595682e-01 2.652701e-01 2.720090e-01 2.803798e-01 2.903754e-01 3.031772e-01 3.189719e-01 3.396581e-01 3.651714e-01 3.977310e-01 4.356015e-01 4.802521e-01 5.269288e-01 5.758957e-01 6.209313e-01 6.622493e-01 6.966706e-01 7.220538e-01 7.438881e-01 7.356254e-01 7.679271e-01 8.096597e-01 7.749384e-01 7.115398e-01 6.401011e-01 5.868446e-01 5.687198e-01 5.844925e-01 6.332985e-01 7.071265e-01 7.781698e-01 8.017435e-01 7.686863e-01 7.341543e-01 7.393223e-01 7.304208e-01 6.982111e-01 6.656361e-01 6.240384e-01 5.784339e-01 5.301305e-01 4.825454e-01 4.382760e-01 3.996089e-01 3.670921e-01 3.410278e-01 3.202351e-01 3.041218e-01 2.911784e-01 2.810126e-01 2.725077e-01 2.656736e-01 2.598615e-01 2.552142e-01 2.514370e-01 2.485681e-01 2.465698e-01 2.453227e-01 
2.629255e-01 2.631416e-01 2.640932e-01 2.655931e-01 2.678622e-01 2.709121e-01 2.748379e-01 2.799712e-01 2.863556e-01 2.948147e-01 3.056107e-01 3.202750e-01 3.394414e-01 3.652955e-01 3.979903e-01 4.394888e-01 4.868930e-01 5.407581e-01 5.925446e-01 6.438248e-01 6.818454e-01 7.161420e-01 7.353420e-01 7.433203e-01 7.970184e-01 8.423823e-01 8.053690e-01 7.645599e-01 7.307129e-01 7.351564e-01 7.823946e-01 8.178806e-01 8.316844e-01 8.189514e-01 7.809021e-01 7.370636e-01 7.322099e-01 7.552325e-01 8.090221e-01 8.483862e-01 8.022022e-01 7.538142e-01 7.344046e-01 7.169054e-01 6.845771e-01 6.458040e-01 5.964243e-01 5.436539e-01 4.905310e-01 4.422350e-01 4.007105e-01 3.673374e-01 3.412054e-01 3.216250e-01 3.066846e-01 2.956665e-01 2.869955e-01 2.804898e-01 2.752068e-01 2.712067e-01 2.680572e-01 2.657379e-01 2.641750e-01 2.631842e-01 
2.798588e-01 2.799510e-01 2.807001e-01 2.817967e-01 2.836205e-01 2.861181e-01 2.895604e-01 2.943166e-01 3.006836e-01 3.096810e-01 3.220025e-01 3.395032e-01 3.633588e-01 3.958233e-01 4.369851e-01 4.876074e-01 5.427864e-01 5.996258e-01 6.468985e-01 6.827830e-01 6.992152e-01 7.063308e-01 7.043568e-01 7.272728e-01 6.793387e-01 6.000454e-01 5.688512e-01 6.720079e-01 7.623349e-01 8.165580e-01 8.031347e-01 7.751787e-01 7.591938e-01 7.760775e-01 8.021936e-01 8.213362e-01 7.670804e-01 6.644171e-01 5.801536e-01 6.079664e-01 6.926761e-01 7.324067e-01 7.090592e-01 7.034105e-01 7.027840e-01 6.835353e-01 6.506447e-01 6.022839e-01 5.466389e-01 4.907565e-01 4.401704e-01 3.983994e-01 3.655562e-01 3.412837e-01 3.233950e-01 3.108297e-01 3.015418e-01 2.950282e-01 2.900731e-01 2.865311e-01 2.839025e-01 2.820049e-01 2.808226e-01 2.800134e-01 
2.953278e-01 2.953227e-01 2.958811e-01 2.966270e-01 2.980340e-01 3.000653e-01 3.030931e-01 3.076608e-01 3.142500e-01 3.242641e-01 3.387920e-01 3.600958e-01 3.898796e-01 4.299203e-01 4.800457e-01 5.377844e-01 5.953815e-01 6.438140e-01 6.678856e-01 6.684885e-01 6.342544e-01 6.112823e-01 5.596604e-01 4.431933e-01 4.522098e-01 7.049070e-01 8.193016e-01 7.877359e-01 7.396354e-01 7.085071e-01 6.600289e-01 6.441038e-01 6.332946e-01 6.443249e-01 6.567153e-01 7.037678e-01 7.512397e-01 7.824124e-01 8.347531e-01 7.084121e-01 4.589588e-01 4.308773e-01 5.640557e-01 6.003824e-01 6.362191e-01 6.678735e-01 6.715058e-01 6.469009e-01 5.999237e-01 5.420152e-01 4.841468e-01 4.334376e-01 3.927265e-01 3.624372e-01 3.405300e-01 3.256855e-01 3.152690e-01 3.084918e-01 3.036785e-01 3.005282e-01 2.983487e-01 2.968546e-01 2.960164e-01 2.953901e-01 
3.091880e-01 3.090619e-01 3.094873e-01 3.099019e-01 3.109964e-01 3.126357e-01 3.154413e-01 3.200437e-01 3.272869e-01 3.389136e-01 3.565396e-01 3.827580e-01 4.195421e-01 4.677842e-01 5.253897e-01 5.855133e-01 6.334254e-01 6.528098e-01 6.252560e-01 5.526447e-01 4.590818e-01 3.622334e-01 3.075725e-01 5.652530e-01 7.602119e-01 7.115178e-01 5.798599e-01 5.328898e-01 5.888191e-01 6.856072e-01 7.303080e-01 7.545727e-01 7.541271e-01 7.538873e-01 7.276883e-01 6.786539e-01 6.047624e-01 5.256759e-01 5.819069e-01 7.217488e-01 7.611300e-01 5.881982e-01 3.046330e-01 3.475534e-01 4.545602e-01 5.485046e-01 6.242989e-01 6.538271e-01 6.365985e-01 5.897827e-01 5.298459e-01 4.721291e-01 4.231030e-01 3.858509e-01 3.588289e-01 3.408124e-01 3.286404e-01 3.211367e-01 3.162106e-01 3.132315e-01 3.114047e-01 3.101902e-01 3.096615e-01 3.091467e-01 
3.210148e-01 3.207909e-01 3.210880e-01 3.212108e-01 3.220020e-01 3.233258e-01 3.259571e-01 3.308104e-01 3.389282e-01 3.526976e-01 3.739527e-01 4.057377e-01 4.497624e-01 5.047557e-01 5.660472e-01 6.173022e-01 6.378666e-01 5.966523e-01 4.870887e-01 3.234552e-01 1.811232e-01 2.904199e-01 6.238176e-01 6.807612e-01 5.643743e-01 4.907822e-01 5.530578e-01 6.483704e-01 6.738022e-01 6.913445e-01 6.905365e-01 6.911666e-01 6.874888e-01 6.895304e-01 6.889269e-01 6.859355e-01 6.833901e-01 6.359215e-01 5.578168e-01 5.112223e-01 5.594527e-01 6.909509e-01 6.319054e-01 3.027113e-01 1.770988e-01 3.170967e-01 4.830856e-01 5.960243e-01 6.398038e-01 6.217425e-01 5.708858e-01 5.099152e-01 4.539600e-01 4.094426e-01 3.766460e-01 3.548972e-01 3.404674e-01 3.320147e-01 3.267960e-01 3.239511e-01 3.224322e-01 3.215023e-01 3.212675e-01 3.208748e-01 
3.304961e-01 3.301473e-01 3.303788e-01 3.302181e-01 3.308152e-01 3.318754e-01 3.345355e-01 3.398282e-01 3.492455e-01 3.656229e-01 3.911411e-01 4.289072e-01 4.797561e-01 5.393235e-01 5.969686e-01 6.271825e-01 5.926679e-01 4.652869e-01 2.363356e-01 4.599328e-02 3.014611e-01 6.033902e-01 6.551470e-01 5.481241e-01 5.641379e-01 5.912052e-01 5.959741e-01 5.986699e-01 6.118478e-01 6.455482e-01 6.700742e-01 6.908343e-01 6.938084e-01 6.895949e-01 6.702334e-01 6.417306e-01 6.169980e-01 5.949975e-01 5.953549e-01 6.055811e-01 5.677991e-01 5.567816e-01 6.608909e-01 6.126546e-01 3.199569e-01 5.257833e-02 2.227929e-01 4.583344e-01 5.911007e-01 6.304470e-01 6.018993e-01 5.454997e-01 4.850356e-01 4.337208e-01 3.946832e-01 3.684820e-01 3.512419e-01 3.413348e-01 3.355768e-01 3.326160e-01 3.313228e-01 3.305459e-01 3.305825e-01 3.302387e-01 
3.372480e-01 3.367942e-01 3.369835e-01 3.365892e-01 3.370301e-01 3.379218e-01 3.406696e-01 3.466353e-01 3.574504e-01 3.768795e-01 4.065204e-01 4.501830e-01 5.058371e-01 5.651225e-01 6.098156e-01 5.972805e-01 4.827982e-01 2.263977e-01 1.122655e-01 3.086200e-01 5.423634e-01 6.828391e-01 6.387469e-01 6.215741e-01 6.064447e-01 5.680806e-01 5.692536e-01 5.881031e-01 6.004797e-01 6.165480e-01 6.236844e-01 6.312357e-01 6.312831e-01 6.301917e-01 6.240403e-01 6.138391e-01 6.031632e-01 5.859873e-01 5.691460e-01 5.776900e-01 6.073673e-01 6.260664e-01 6.431360e-01 6.891462e-01 5.583935e-01 3.201319e-01 1.242190e-01 2.136061e-01 4.753521e-01 5.980819e-01 6.136340e-01 5.713465e-01 5.115183e-01 4.555078e-01 4.105219e-01 3.800452e-01 3.596803e-01 3.482413e-01 3.417850e-01 3.386651e-01 3.375455e-01 3.368977e-01 3.371812e-01 3.368765e-01 
3.407282e-01 3.401563e-01 3.403967e-01 3.398117e-01 3.402653e-01 3.410628e-01 3.441623e-01 3.509122e-01 3.634893e-01 3.859868e-01 4.198090e-01 4.682212e-01 5.263944e-01 5.788712e-01 5.993639e-01 5.264390e-01 3.077474e-01 1.993645e-01 3.213139e-01 4.659546e-01 6.977047e-01 7.335972e-01 6.738625e-01 6.251602e-01 5.838156e-01 5.614806e-01 5.495940e-01 5.470532e-01 5.512458e-01 5.667394e-01 5.788696e-01 5.915463e-01 5.935701e-01 5.910706e-01 5.797977e-01 5.656591e-01 5.532850e-01 5.473220e-01 5.497294e-01 5.673159e-01 5.871031e-01 6.281689e-01 6.766137e-01 7.361074e-01 7.109942e-01 4.822621e-01 3.268634e-01 2.083235e-01 2.984732e-01 5.244904e-01 6.027349e-01 5.862026e-01 5.334949e-01 4.749265e-01 4.248972e-01 3.898783e-01 3.662211e-01 3.527691e-01 3.454350e-01 3.418453e-01 3.408008e-01 3.401013e-01 3.405845e-01 3.402266e-01 
3.406302e-01 3.399636e-01 3.403496e-01 3.396949e-01 3.403474e-01 3.412434e-01 3.449253e-01 3.527380e-01 3.671365e-01 3.930268e-01 4.299293e-01 4.828732e-01 5.384523e-01 5.800623e-01 5.658551e-01 4.180700e-01 2.818814e-01 3.698894e-01 4.110825e-01 6.838835e-01 8.257128e-01 7.405676e-01 6.706851e-01 6.088860e-01 5.665931e-01 5.304530e-01 5.163195e-01 5.127324e-01 5.144943e-01 5.214375e-01 5.254885e-01 5.308378e-01 5.310607e-01 5.305376e-01 5.262509e-01 5.209432e-01 5.159060e-01 5.134645e-01 5.169222e-01 5.344604e-01 5.684686e-01 6.118083e-01 6.727876e-01 7.410848e-01 8.298842e-01 7.036480e-01 4.251780e-01 3.784362e-01 2.896889e-01 4.111070e-01 5.668153e-01 5.862633e-01 5.457670e-01 4.899805e-01 4.356346e-01 3.972589e-01 3.701973e-01 3.546955e-01 3.462868e-01 3.420034e-01 3.408736e-01 3.399404e-01 3.405161e-01 3.400152e-01 
3.361553e-01 3.354287e-01 3.361369e-01 3.356035e-01 3.368153e-01 3.380771e-01 3.428601e-01 3.519147e-01 3.686564e-01 3.975444e-01 4.374026e-01 4.927169e-01 5.439779e-01 5.683893e-01 5.244023e-01 3.405328e-01 4.335111e-01 4.078712e-01 5.872668e-01 8.713157e-01 8.029936e-01 7.094654e-01 6.378783e-01 5.748700e-01 5.306409e-01 4.997451e-01 4.814426e-01 4.714164e-01 4.675252e-01 4.705656e-01 4.732656e-01 4.783223e-01 4.785832e-01 4.783223e-01 4.741470e-01 4.708319e-01 4.688973e-01 4.728072e-01 4.824513e-01 5.029169e-01 5.325569e-01 5.776040e-01 6.385416e-01 7.109900e-01 8.003176e-01 8.787652e-01 6.065928e-01 4.104836e-01 4.388045e-01 3.432111e-01 5.255576e-01 5.768336e-01 5.530772e-01 5.011582e-01 4.441238e-01 4.022193e-01 3.720294e-01 3.538930e-01 3.442168e-01 3.387270e-01 3.372542e-01 3.357478e-01 3.362414e-01 3.354423e-01 
3.271388e-01 3.264091e-01 3.276906e-01 3.276077e-01 3.299339e-01 3.320415e-01 3.387100e-01 3.493870e-01 3.691367e-01 4.009896e-01 4.430215e-01 5.019895e-01 5.416328e-01 5.693334e-01 4.602321e-01 4.612915e-01 4.776566e-01 4.720733e-01 8.196234e-01 8.782758e-01 7.526138e-01 6.728157e-01 5.968799e-01 5.404522e-01 4.985968e-01 4.663197e-01 4.460060e-01 4.324550e-01 4.243478e-01 4.210126e-01 4.182992e-01 4.186524e-01 4.176614e-01 4.186785e-01 4.189311e-01 4.213616e-01 4.253874e-01 4.338151e-01 4.471506e-01 4.691240e-01 5.005258e-01 5.436153e-01 5.987577e-01 6.752569e-01 7.527238e-01 8.800469e-01 8.369362e-01 4.828192e-01 4.847589e-01 4.767229e-01 4.587506e-01 5.771901e-01 5.517209e-01 5.112881e-01 4.507781e-01 4.061031e-01 3.729206e-01 3.514614e-01 3.401410e-01 3.326439e-01 3.303331e-01 3.276864e-01 3.277547e-01 3.263960e-01 
3.126032e-01 3.120052e-01 3.142090e-01 3.151212e-01 3.193202e-01 3.230679e-01 3.326639e-01 3.455457e-01 3.693468e-01 4.035813e-01 4.486612e-01 5.091884e-01 5.389663e-01 5.741974e-01 4.531154e-01 5.960240e-01 4.919281e-01 6.394100e-01 9.449119e-01 8.046813e-01 7.133426e-01 6.177020e-01 5.557262e-01 5.001080e-01 4.621034e-01 4.306832e-01 4.083667e-01 3.909804e-01 3.785481e-01 3.711454e-01 3.656941e-01 3.643178e-01 3.628291e-01 3.644358e-01 3.662606e-01 3.716743e-01 3.794676e-01 3.923512e-01 4.095326e-01 4.331310e-01 4.639690e-01 5.030681e-01 5.574245e-01 6.198812e-01 7.129887e-01 8.024455e-01 9.478514e-01 6.534976e-01 4.943438e-01 5.933993e-01 4.546732e-01 5.801829e-01 5.509741e-01 5.179480e-01 4.564057e-01 4.080893e-01 3.727723e-01 3.471811e-01 3.337732e-01 3.233694e-01 3.194915e-01 3.150200e-01 3.141561e-01 3.119321e-01 
2.926454e-01 2.923456e-01 2.959866e-01 2.986942e-01 3.059001e-01 3.124027e-01 3.264721e-01 3.420639e-01 3.718397e-01 4.060268e-01 4.590188e-01 5.095009e-01 5.532441e-01 5.494612e-01 5.515859e-01 6.012251e-01 5.111275e-01 8.028215e-01 9.012761e-01 7.252096e-01 6.521747e-01 5.658560e-01 5.102562e-01 4.620061e-01 4.263060e-01 3.957126e-01 3.717142e-01 3.514699e-01 3.351887e-01 3.230696e-01 3.135634e-01 3.088987e-01 3.064390e-01 3.089613e-01 3.138926e-01 3.234427e-01 3.358102e-01 3.525853e-01 3.727894e-01 3.979363e-01 4.283254e-01 4.653593e-01 5.130008e-01 5.700982e-01 6.545322e-01 7.300841e-01 9.029806e-01 8.221519e-01 5.138020e-01 5.953301e-01 5.741595e-01 5.649385e-01 5.723462e-01 5.201242e-01 4.678165e-01 4.106519e-01 3.752434e-01 3.435798e-01 3.274383e-01 3.125806e-01 3.059497e-01 2.985058e-01 2.958665e-01 2.922412e-01 
2.663535e-01 2.666638e-01 2.724031e-01 2.780972e-01 2.895843e-01 3.004992e-01 3.202662e-01 3.399338e-01 3.761759e-01 4.105858e-01 4.726736e-01 5.118804e-01 5.817093e-01 5.379636e-01 6.543641e-01 5.908064e-01 5.844471e-01 9.042391e-01 7.934974e-01 6.721527e-01 5.858248e-01 5.175498e-01 4.646797e-01 4.229705e-01 3.889498e-01 3.596398e-01 3.344117e-01 3.119767e-01 2.926098e-01 2.771657e-01 2.649273e-01 2.582736e-01 2.551950e-01 2.583231e-01 2.651316e-01 2.774437e-01 2.930145e-01 3.128038e-01 3.352561e-01 3.614010e-01 3.908091e-01 4.261109e-01 4.679570e-01 5.229671e-01 5.911244e-01 6.830669e-01 8.018442e-01 9.329851e-01 6.006488e-01 5.859057e-01 6.746650e-01 5.530366e-01 5.941533e-01 5.183931e-01 4.780164e-01 4.133162e-01 3.780562e-01 3.405865e-01 3.205242e-01 3.002551e-01 2.892868e-01 2.777015e-01 2.721330e-01 2.664952e-01 
2.342633e-01 2.356080e-01 2.443873e-01 2.547089e-01 2.720318e-01 2.894344e-01 3.158990e-01 3.415631e-01 3.835393e-01 4.207394e-01 4.881669e-01 5.249755e-01 6.089052e-01 5.723301e-01 7.061339e-01 6.159252e-01 6.850243e-01 8.979074e-01 6.838465e-01 6.179214e-01 5.203473e-01 4.714187e-01 4.200852e-01 3.860242e-01 3.533548e-01 3.259068e-01 2.998199e-01 2.758271e-01 2.535816e-01 2.345506e-01 2.188362e-01 2.093598e-01 2.053314e-01 2.093245e-01 2.188464e-01 2.345828e-01 2.536946e-01 2.762219e-01 3.003140e-01 3.269814e-01 3.546918e-01 3.880895e-01 4.225724e-01 4.747348e-01 5.238786e-01 6.229488e-01 6.874760e-01 9.125021e-01 7.109401e-01 6.080432e-01 6.887157e-01 5.715071e-01 6.076231e-01 5.260591e-01 4.889200e-01 4.213932e-01 3.836437e-01 3.413639e-01 3.154263e-01 2.888427e-01 2.714286e-01 2.541727e-01 2.439995e-01 2.353996e-01 
1.959234e-01 1.989707e-01 2.120950e-01 2.291398e-01 2.537268e-01 2.796146e-01 3.127014e-01 3.460623e-01 3.909556e-01 4.341927e-01 4.983859e-01 5.445891e-01 6.163869e-01 6.244705e-01 6.787922e-01 6.132321e-01 7.245585e-01 7.986389e-01 5.976535e-01 5.522379e-01 4.634615e-01 4.241939e-01 3.793162e-01 3.496240e-01 3.198509e-01 2.936417e-01 2.676273e-01 2.423555e-01 2.179449e-01 1.958126e-01 1.770039e-01 1.648605e-01 1.599038e-01 1.647676e-01 1.768890e-01 1.956475e-01 2.178140e-01 2.423098e-01 2.676787e-01 2.938618e-01 3.203484e-01 3.501390e-01 3.803061e-01 4.245117e-01 4.642660e-01 5.503055e-01 5.966974e-01 7.941045e-01 7.503409e-01 6.211435e-01 6.627194e-01 6.219890e-01 6.129797e-01 5.449873e-01 4.973276e-01 4.337449e-01 3.897381e-01 3.450828e-01 3.114696e-01 2.786072e-01 2.527396e-01 2.284094e-01 2.115403e-01 1.987019e-01 
1.524692e-01 1.582940e-01 1.777336e-01 2.039134e-01 2.368960e-01 2.725116e-01 3.116763e-01 3.535303e-01 3.996262e-01 4.511321e-01 5.091304e-01 5.714511e-01 6.262886e-01 6.802169e-01 6.681518e-01 6.654051e-01 7.600484e-01 6.908815e-01 5.484146e-01 4.889371e-01 4.205518e-01 3.822660e-01 3.457154e-01 3.183450e-01 2.918726e-01 2.666150e-01 2.409884e-01 2.145627e-01 1.880053e-01 1.622948e-01 1.393327e-01 1.231598e-01 1.165972e-01 1.229729e-01 1.390840e-01 1.619012e-01 1.876630e-01 2.140957e-01 2.406314e-01 2.659947e-01 2.914541e-01 3.171934e-01 3.448535e-01 3.795334e-01 4.182775e-01 4.824974e-01 5.444405e-01 6.807363e-01 7.715277e-01 6.777458e-01 6.683299e-01 6.819398e-01 6.239744e-01 5.708518e-01 5.064244e-01 4.491152e-01 3.969225e-01 3.514966e-01 3.095459e-01 2.709589e-01 2.354419e-01 2.029316e-01 1.769568e-01 1.579389e-01 
1.042816e-01 1.150097e-01 1.439348e-01 1.813974e-01 2.229365e-01 2.678772e-01 3.119066e-01 3.612758e-01 4.074873e-01 4.663468e-01 5.182477e-01 5.938116e-01 6.372218e-01 7.173083e-01 6.753621e-01 7.033908e-01 7.376321e-01 5.844950e-01 5.067045e-01 4.323750e-01 3.871447e-01 3.470780e-01 3.195606e-01 2.927122e-01 2.698673e-01 2.448543e-01 2.200304e-01 1.924696e-01 1.642522e-01 1.350205e-01 1.074327e-01 8.565069e-02 7.639767e-02 8.535663e-02 1.070703e-01 1.344326e-01 1.637280e-01 1.916340e-01 2.192626e-01 2.434615e-01 2.685033e-01 2.900390e-01 3.168062e-01 3.418049e-01 3.817808e-01 4.231431e-01 4.989592e-01 5.744905e-01 7.361937e-01 7.095997e-01 6.794559e-01 7.194695e-01 6.366931e-01 5.923042e-01 5.149491e-01 4.632780e-01 4.039450e-01 3.585112e-01 3.091828e-01 2.659245e-01 2.211264e-01 1.801994e-01 1.429145e-01 1.145318e-01 
5.303568e-02 7.445375e-02 1.168831e-01 1.653737e-01 2.135773e-01 2.652431e-01 3.122583e-01 3.666507e-01 4.124345e-01 4.761622e-01 5.238021e-01 6.075081e-01 6.455102e-01 7.327934e-01 6.706437e-01 6.989431e-01 6.962220e-01 5.188649e-01 4.802874e-01 3.959155e-01 3.667102e-01 3.246223e-01 3.034025e-01 2.767116e-01 2.563739e-01 2.315504e-01 2.072682e-01 1.788937e-01 1.492982e-01 1.169267e-01 8.419735e-02 5.367924e-02 3.763726e-02 5.320094e-02 8.375034e-02 1.162084e-01 1.487070e-01 1.778640e-01 2.063139e-01 2.297309e-01 2.544886e-01 2.731548e-01 2.995235e-01 3.179075e-01 3.594897e-01 3.852308e-01 4.700405e-01 5.088875e-01 6.903087e-01 7.064068e-01 6.766731e-01 7.336984e-01 6.458720e-01 6.050187e-01 5.200103e-01 4.721577e-01 4.081694e-01 3.631924e-01 3.089702e-01 2.628572e-01 2.113784e-01 1.638834e-01 1.154921e-01 7.366476e-02 
6.230777e-04 5.355282e-02 1.059350e-01 1.596045e-01 2.105111e-01 2.647470e-01 3.129916e-01 3.693239e-01 4.153910e-01 4.811597e-01 5.285743e-01 6.158290e-01 6.557696e-01 7.461947e-01 6.844884e-01 7.167181e-01 6.933166e-01 5.049519e-01 4.754917e-01 3.856679e-01 3.609890e-01 3.173254e-01 2.981083e-01 2.710275e-01 2.515968e-01 2.266105e-01 2.025874e-01 1.738229e-01 1.437794e-01 1.101321e-01 7.500368e-02 3.798208e-02 2.446365e-04 3.729108e-02 7.448363e-02 1.093347e-01 1.431153e-01 1.726739e-01 2.014839e-01 2.245529e-01 2.493896e-01 2.670089e-01 2.935979e-01 3.098280e-01 3.526912e-01 3.738532e-01 4.635345e-01 4.931530e-01 6.848719e-01 7.252287e-01 6.901585e-01 7.451278e-01 6.557236e-01 6.126729e-01 5.245657e-01 4.768536e-01 4.109797e-01 3.657268e-01 3.096263e-01 2.623122e-01 2.082732e-01 1.580882e-01 1.044382e-01 5.251175e-02 
5.303568e-02 7.445375e-02 1.168831e-01 1.653737e-01 2.135773e-01 2.652431e-01 3.122583e-01 3.666507e-01 4.124345e-01 4.761622e-01 5.238021e-01 6.075081e-01 6.455102e-01 7.327934e-01 6.706437e-01 6.989431e-01 6.962220e-01 5.188649e-01 4.802874e-01 3.959155e-01 3.667102e-01 3.246223e-01 3.034025e-01 2.767116e-01 2.563739e-01 2.315504e-01 2.072682e-01 1.788937e-01 1.492982e-01 1.169267e-01 8.419735e-02 5.367924e-02 3.763726e-02 5.320094e-02 8.375034e-02 1.162084e-01 1.487070e-01 1.778640e-01 2.063139e-01 2.297309e-01 2.544886e-01 2.731548e-01 2.995235e-01 3.179075e-01 3.594897e-01 3.852308e-01 4.700405e-01 5.088875e-01 6.903087e-01 7.064068e-01 6.766731e-01 7.336984e-01 6.458720e-01 6.050187e-01 5.200103e-01 4.721577e-01 4.081694e-01 3.631924e-01 3.089702e-01 2.628572e-01 2.113784e-01 1.638834e-01 1.154921e-01 7.366476e-02 
1.042816e-01 1.150097e-01 1.439348e-01 1.813974e-01 2.229365e-01 2.678772e-01 3.119066e-01 3.612758e-01 4.074873e-01 4.663468e-01 5.182477e-01 5.938116e-01 6.372218e-01 7.173083e-01 6.753621e-01 7.033908e-01 7.376321e-01 5.844950e-01 5.067045e-01 4.323750e-01 3.871447e-01 3.470780e-01 3.195606e-01 2.927122e-01 2.698673e-01 2.448543e-01 2.200304e-01 1.924696e-01 1.642522e-01 1.350205e-01 1.074327e-01 8.565069e-02 7.639767e-02 8.535663e-02 1.070703e-01 1.344326e-01 1.637280e-01 1.916340e-01 2.192626e-01 2.434615e-01 2.685033e-01 2.900390e-01 3.168062e-01 3.418049e-01 3.817808e-01 4.231431e-01 4.989592e-01 5.744905e-01 7.361937e-01 7.095997e-01 6.794559e-01 7.194695e-01 6.366931e-01 5.923042e-01 5.149491e-01 4.632780e-01 4.039450e-01 3.585112e-01 3.091828e-01 2.659245e-01 2.211264e-01 1.801994e-01 1.429145e-01 1.145318e-01 