# vtk DataFile Version 2.0
Comment goes here
ASCII

DATASET STRUCTURED_POINTS
FIELD FieldData 1
TIME 1 1 double
1.97000000
DIMENSIONS    64   64   1

ORIGIN    0.000   0.000   0.000
SPACING   0.015625 0.015625   1.000

POINT_DATA   4096
SCALARS uMag double
LOOKUP_TABLE default

1.795920e-03 1.720020e-03 1.795914e-03 1.378917e-03 9.664389e-04 2.416449e-04 1.579319e-03 3.940136e-03 6.535489e-03 1.026818e-02 1.429298e-02 1.941883e-02 2.482699e-02 3.111865e-02 3.759631e-02 4.454412e-02 5.148178e-02 5.829582e-02 6.480306e-02 7.047198e-02 7.545676e-02 7.887755e-02 8.120504e-02 8.137884e-02 8.010001e-02 7.635418e-02 7.094729e-02 6.311409e-02 5.365643e-02 4.218223e-02 2.947049e-02 1.554190e-02 1.175600e-03 1.329640e-02 2.719900e-02 4.013602e-02 5.170982e-02 6.162050e-02 6.979381e-02 7.599138e-02 8.038980e-02 8.277832e-02 8.348232e-02 8.237335e-02 7.983311e-02 7.588973e-02 7.088839e-02 6.504450e-02 5.858238e-02 5.187694e-02 4.498168e-02 3.836661e-02 3.191343e-02 2.611212e-02 2.071469e-02 1.616045e-02 1.213954e-02 8.980209e-03 6.386423e-03 4.527271e-03 3.190718e-03 2.352448e-03 1.940895e-03 1.719648e-03 
1.648249e-03 1.617089e-03 1.756387e-03 1.438404e-03 1.302235e-03 1.280762e-03 2.336361e-03 4.488447e-03 7.043214e-03 1.070783e-02 1.470136e-02 1.977068e-02 2.513623e-02 3.135955e-02 3.778232e-02 4.464519e-02 5.151962e-02 5.823637e-02 6.467710e-02 7.024758e-02 7.516651e-02 7.850472e-02 8.077196e-02 8.090412e-02 7.959342e-02 7.589670e-02 7.056898e-02 6.299498e-02 5.393336e-02 4.322863e-02 3.181293e-02 2.071680e-02 1.445130e-02 1.945903e-02 3.018639e-02 4.171581e-02 5.248115e-02 6.196980e-02 6.986746e-02 7.597472e-02 8.030216e-02 8.271656e-02 8.342376e-02 8.235919e-02 7.984543e-02 7.593087e-02 7.096252e-02 6.512840e-02 5.869975e-02 5.199055e-02 4.512472e-02 3.849625e-02 3.206360e-02 2.623886e-02 2.084849e-02 1.625707e-02 1.222556e-02 9.010131e-03 6.383829e-03 4.447424e-03 3.059816e-03 2.150839e-03 1.726799e-03 1.519825e-03 
1.748605e-03 1.879285e-03 2.179470e-03 2.088156e-03 2.328859e-03 2.564491e-03 3.616904e-03 5.467743e-03 7.909597e-03 1.137577e-02 1.520301e-02 2.008541e-02 2.520099e-02 3.120340e-02 3.729941e-02 4.390107e-02 5.040940e-02 5.684775e-02 6.295171e-02 6.828167e-02 7.299133e-02 7.622009e-02 7.852479e-02 7.881108e-02 7.791022e-02 7.478714e-02 7.035779e-02 6.393218e-02 5.639618e-02 4.768984e-02 3.899490e-02 3.169778e-02 2.846276e-02 3.109977e-02 3.803397e-02 4.672578e-02 5.544756e-02 6.335458e-02 7.007554e-02 7.525130e-02 7.898269e-02 8.096491e-02 8.150260e-02 8.037650e-02 7.796027e-02 7.421878e-02 6.947820e-02 6.393325e-02 5.776740e-02 5.137170e-02 4.474459e-02 3.838829e-02 3.213577e-02 2.649917e-02 2.121163e-02 1.670066e-02 1.268543e-02 9.434189e-03 6.733796e-03 4.655235e-03 3.119696e-03 2.045552e-03 1.571114e-03 1.462168e-03 
1.599510e-03 1.969078e-03 2.480709e-03 2.648541e-03 3.281436e-03 3.857090e-03 5.212755e-03 7.051562e-03 9.535859e-03 1.284125e-02 1.654022e-02 2.118037e-02 2.601210e-02 3.167868e-02 3.735924e-02 4.353430e-02 4.954953e-02 5.550768e-02 6.112845e-02 6.600493e-02 7.035445e-02 7.328293e-02 7.547295e-02 7.578370e-02 7.515526e-02 7.261739e-02 6.911188e-02 6.422196e-02 5.878293e-02 5.309183e-02 4.796974e-02 4.434445e-02 4.294399e-02 4.432740e-02 4.795845e-02 5.320346e-02 5.901267e-02 6.483215e-02 7.003732e-02 7.427996e-02 7.739506e-02 7.909403e-02 7.951811e-02 7.845218e-02 7.619601e-02 7.268833e-02 6.823866e-02 6.299765e-02 5.715753e-02 5.106159e-02 4.472816e-02 3.860920e-02 3.257325e-02 2.706853e-02 2.189387e-02 1.738405e-02 1.336685e-02 9.980676e-03 7.164094e-03 4.828590e-03 3.065282e-03 1.632648e-03 9.381361e-04 1.020536e-03 
1.892501e-03 2.543715e-03 3.253794e-03 3.678362e-03 4.627539e-03 5.462478e-03 7.117331e-03 9.020362e-03 1.161688e-02 1.480223e-02 1.836575e-02 2.272373e-02 2.714033e-02 3.235145e-02 3.734914e-02 4.289925e-02 4.804138e-02 5.325607e-02 5.797490e-02 6.211909e-02 6.579040e-02 6.824513e-02 7.031117e-02 7.079536e-02 7.096132e-02 6.968343e-02 6.814797e-02 6.574539e-02 6.318553e-02 6.050707e-02 5.812485e-02 5.653220e-02 5.598069e-02 5.676428e-02 5.860650e-02 6.126727e-02 6.422468e-02 6.725799e-02 7.006738e-02 7.237393e-02 7.423199e-02 7.511429e-02 7.529575e-02 7.427227e-02 7.239610e-02 6.942776e-02 6.561934e-02 6.110821e-02 5.592719e-02 5.053104e-02 4.473589e-02 3.914750e-02 3.346288e-02 2.825002e-02 2.322101e-02 1.875163e-02 1.468827e-02 1.112529e-02 8.109949e-03 5.451269e-03 3.384971e-03 1.529872e-03 2.867831e-04 1.011948e-03 
2.433337e-03 3.234332e-03 4.041497e-03 4.678265e-03 5.924709e-03 7.045181e-03 9.092698e-03 1.120552e-02 1.409433e-02 1.730836e-02 2.092091e-02 2.507759e-02 2.920930e-02 3.395747e-02 3.830845e-02 4.313248e-02 4.732756e-02 5.161218e-02 5.526410e-02 5.843252e-02 6.121865e-02 6.294316e-02 6.465220e-02 6.505420e-02 6.565036e-02 6.533867e-02 6.528460e-02 6.530202e-02 6.579301e-02 6.706016e-02 6.847408e-02 6.991283e-02 7.049536e-02 7.034756e-02 6.942861e-02 6.849037e-02 6.783263e-02 6.803137e-02 6.868524e-02 6.966261e-02 7.064661e-02 7.115902e-02 7.127174e-02 7.047731e-02 6.903954e-02 6.666010e-02 6.353145e-02 5.974120e-02 5.525895e-02 5.051713e-02 4.528983e-02 4.015642e-02 3.483314e-02 2.981839e-02 2.492912e-02 2.041080e-02 1.629687e-02 1.250397e-02 9.315879e-03 6.362715e-03 4.105599e-03 2.139648e-03 1.105628e-03 1.675810e-03 
3.754115e-03 4.648333e-03 5.492462e-03 6.302580e-03 7.752954e-03 9.118073e-03 1.151937e-02 1.388331e-02 1.712548e-02 2.048608e-02 2.425735e-02 2.834036e-02 3.225261e-02 3.660113e-02 4.021669e-02 4.423797e-02 4.714365e-02 5.020971e-02 5.216863e-02 5.383310e-02 5.497704e-02 5.536804e-02 5.631909e-02 5.657099e-02 5.829344e-02 6.007926e-02 6.325608e-02 6.695295e-02 7.084894e-02 7.478904e-02 7.799993e-02 8.038123e-02 8.134018e-02 8.091221e-02 7.914733e-02 7.648543e-02 7.328275e-02 7.032089e-02 6.766501e-02 6.570691e-02 6.478204e-02 6.415884e-02 6.419329e-02 6.387135e-02 6.349973e-02 6.242276e-02 6.067122e-02 5.830309e-02 5.499327e-02 5.136408e-02 4.690203e-02 4.241050e-02 3.743296e-02 3.260394e-02 2.771896e-02 2.303794e-02 1.870294e-02 1.455291e-02 1.105547e-02 7.747414e-03 5.282635e-03 3.353519e-03 2.566822e-03 3.115775e-03 
5.617121e-03 6.464269e-03 7.211798e-03 8.097826e-03 9.671105e-03 1.122987e-02 1.398685e-02 1.661580e-02 2.030593e-02 2.388682e-02 2.800301e-02 3.212688e-02 3.607935e-02 4.015538e-02 4.331409e-02 4.663158e-02 4.844255e-02 5.030220e-02 5.055222e-02 5.056652e-02 4.980357e-02 4.853792e-02 4.836963e-02 4.805614e-02 5.019642e-02 5.312499e-02 5.763575e-02 6.376988e-02 7.082804e-02 7.953539e-02 8.764937e-02 9.405241e-02 9.645097e-02 9.455651e-02 8.885717e-02 8.120000e-02 7.352884e-02 6.768367e-02 6.314630e-02 6.030768e-02 5.867689e-02 5.783240e-02 5.799625e-02 5.830145e-02 5.894099e-02 5.914994e-02 5.872652e-02 5.769828e-02 5.551844e-02 5.285825e-02 4.912013e-02 4.510859e-02 4.045167e-02 3.567907e-02 3.080628e-02 2.590023e-02 2.139805e-02 1.691851e-02 1.322675e-02 9.715124e-03 7.234993e-03 5.506898e-03 4.795881e-03 5.223425e-03 
8.192799e-03 9.067086e-03 9.720393e-03 1.064404e-02 1.222379e-02 1.390967e-02 1.692671e-02 1.982624e-02 2.397551e-02 2.789279e-02 3.247260e-02 3.685411e-02 4.104279e-02 4.512673e-02 4.803474e-02 5.091637e-02 5.170511e-02 5.245774e-02 5.064816e-02 4.859837e-02 4.470316e-02 4.031827e-02 3.719923e-02 3.515086e-02 3.866620e-02 4.538975e-02 5.502360e-02 6.577793e-02 7.554912e-02 8.531254e-02 9.372716e-02 9.995850e-02 1.024240e-01 1.005812e-01 9.507204e-02 8.698674e-02 7.796348e-02 6.954579e-02 6.101257e-02 5.387214e-02 4.922855e-02 4.664738e-02 4.718569e-02 4.912856e-02 5.242756e-02 5.544628e-02 5.752159e-02 5.871457e-02 5.804960e-02 5.659346e-02 5.346760e-02 4.981080e-02 4.516082e-02 4.019382e-02 3.500018e-02 2.962817e-02 2.469773e-02 1.972529e-02 1.569353e-02 1.192950e-02 9.413270e-03 7.881617e-03 7.313665e-03 7.851004e-03 
1.134941e-02 1.216460e-02 1.263338e-02 1.350411e-02 1.499442e-02 1.670484e-02 1.991424e-02 2.299820e-02 2.761566e-02 3.182131e-02 3.697042e-02 4.161183e-02 4.625976e-02 5.042454e-02 5.344240e-02 5.606540e-02 5.631736e-02 5.628611e-02 5.292127e-02 4.927527e-02 4.244984e-02 3.513344e-02 2.831817e-02 2.379807e-02 2.824887e-02 3.684634e-02 4.585521e-02 5.690368e-02 6.843896e-02 8.421834e-02 1.009999e-01 1.148931e-01 1.203039e-01 1.155534e-01 1.024970e-01 8.529270e-02 7.036444e-02 6.035793e-02 5.209386e-02 4.641491e-02 4.141761e-02 3.797652e-02 3.825527e-02 4.151366e-02 4.712893e-02 5.287953e-02 5.723234e-02 6.044212e-02 6.113390e-02 6.062928e-02 5.806279e-02 5.457381e-02 4.997528e-02 4.473025e-02 3.932767e-02 3.350602e-02 2.830364e-02 2.294914e-02 1.876523e-02 1.492938e-02 1.250428e-02 1.117111e-02 1.062852e-02 1.116306e-02 
1.521479e-02 1.605588e-02 1.634575e-02 1.713373e-02 1.839933e-02 2.003400e-02 2.325787e-02 2.647188e-02 3.147684e-02 3.604377e-02 4.181090e-02 4.692903e-02 5.220979e-02 5.681228e-02 6.023709e-02 6.308278e-02 6.322077e-02 6.300455e-02 5.862312e-02 5.411270e-02 4.470976e-02 3.465096e-02 2.097867e-02 5.242981e-03 1.551042e-02 3.570392e-02 5.226536e-02 6.619949e-02 7.458622e-02 8.479439e-02 9.771796e-02 1.089249e-01 1.137296e-01 1.099908e-01 9.986620e-02 8.637626e-02 7.613487e-02 6.915926e-02 5.848081e-02 4.682461e-02 3.440173e-02 2.354535e-02 2.161629e-02 2.970428e-02 4.162293e-02 5.245961e-02 6.022013e-02 6.585530e-02 6.770736e-02 6.783899e-02 6.522344e-02 6.143191e-02 5.627679e-02 5.035125e-02 4.428382e-02 3.774707e-02 3.200517e-02 2.616013e-02 2.174871e-02 1.789589e-02 1.564386e-02 1.466202e-02 1.431602e-02 1.504657e-02 
1.959446e-02 2.039164e-02 2.044718e-02 2.108495e-02 2.205602e-02 2.349898e-02 2.663266e-02 2.981365e-02 3.514132e-02 3.990138e-02 4.630707e-02 5.174084e-02 5.777855e-02 6.267904e-02 6.676649e-02 6.976415e-02 7.019212e-02 6.990042e-02 6.503531e-02 6.029366e-02 4.924339e-02 3.925297e-02 2.267154e-02 1.223453e-02 2.213907e-02 3.962331e-02 4.900615e-02 5.899652e-02 6.642564e-02 7.868504e-02 1.030046e-01 1.282586e-01 1.391513e-01 1.308428e-01 1.078282e-01 8.078448e-02 6.894028e-02 6.338677e-02 5.601795e-02 5.286127e-02 4.314771e-02 2.605816e-02 9.548704e-03 1.801062e-02 3.585531e-02 5.201423e-02 6.290937e-02 7.090125e-02 7.391337e-02 7.450867e-02 7.201148e-02 6.781547e-02 6.235394e-02 5.574883e-02 4.928266e-02 4.211704e-02 3.608884e-02 2.990717e-02 2.548099e-02 2.174186e-02 1.970219e-02 1.898824e-02 1.871889e-02 1.953134e-02 
2.465735e-02 2.548360e-02 2.528039e-02 2.573799e-02 2.624923e-02 2.737330e-02 3.013704e-02 3.314833e-02 3.857080e-02 4.351556e-02 5.046730e-02 5.638663e-02 6.321834e-02 6.876152e-02 7.367239e-02 7.728692e-02 7.831499e-02 7.848214e-02 7.383814e-02 6.997365e-02 5.974463e-02 5.406662e-02 4.231518e-02 4.168777e-02 5.298895e-02 8.409893e-02 1.056104e-01 1.112902e-01 9.387800e-02 7.168635e-02 7.325168e-02 8.590169e-02 9.308147e-02 8.969866e-02 8.048794e-02 7.727759e-02 9.986802e-02 1.174288e-01 1.140846e-01 1.016632e-01 7.682800e-02 5.038307e-02 2.364533e-02 1.716875e-02 3.678976e-02 5.759938e-02 7.133843e-02 8.092756e-02 8.408164e-02 8.428871e-02 8.081426e-02 7.556151e-02 6.897861e-02 6.130080e-02 5.395878e-02 4.600495e-02 3.951205e-02 3.305420e-02 2.868876e-02 2.530948e-02 2.369244e-02 2.352144e-02 2.352042e-02 2.460638e-02 
3.002307e-02 3.081824e-02 3.033626e-02 3.056600e-02 3.059230e-02 3.129523e-02 3.358808e-02 3.621503e-02 4.160937e-02 4.645624e-02 5.389978e-02 5.996549e-02 6.762004e-02 7.338555e-02 7.925302e-02 8.299837e-02 8.489778e-02 8.508504e-02 8.102525e-02 7.813499e-02 6.977488e-02 7.139457e-02 6.379942e-02 7.518454e-02 8.816792e-02 1.024129e-01 1.071580e-01 1.317829e-01 1.610576e-01 1.611830e-01 1.441400e-01 1.329844e-01 1.305160e-01 1.429621e-01 1.596206e-01 1.716620e-01 1.696538e-01 1.441765e-01 1.232632e-01 1.308481e-01 1.264934e-01 9.613190e-02 6.105889e-02 3.748831e-02 3.850392e-02 6.181261e-02 7.791516e-02 8.927259e-02 9.294700e-02 9.260883e-02 8.870923e-02 8.233466e-02 7.516477e-02 6.645714e-02 5.866594e-02 5.003263e-02 4.339218e-02 3.679485e-02 3.267002e-02 2.966976e-02 2.842722e-02 2.864733e-02 2.879946e-02 3.004372e-02 
3.596590e-02 3.679284e-02 3.597594e-02 3.595617e-02 3.530518e-02 3.545580e-02 3.689305e-02 3.890643e-02 4.383032e-02 4.843923e-02 5.605280e-02 6.235482e-02 7.062874e-02 7.696063e-02 8.364673e-02 8.795806e-02 9.055426e-02 9.069077e-02 8.690500e-02 8.403968e-02 7.941703e-02 9.162200e-02 9.191865e-02 1.099297e-01 1.461813e-01 2.185239e-01 2.572835e-01 2.607226e-01 2.107752e-01 1.619176e-01 1.233906e-01 8.058201e-02 5.498545e-02 8.505546e-02 1.385248e-01 1.846125e-01 2.268945e-01 2.747889e-01 2.761479e-01 2.521354e-01 1.961319e-01 1.539611e-01 1.102269e-01 7.629194e-02 5.768843e-02 7.441038e-02 9.112300e-02 1.021571e-01 1.044826e-01 1.025272e-01 9.669048e-02 8.871111e-02 8.008138e-02 7.021845e-02 6.162935e-02 5.244586e-02 4.569464e-02 3.932640e-02 3.573440e-02 3.358824e-02 3.301567e-02 3.396488e-02 3.443465e-02 3.601225e-02 
4.184452e-02 4.265275e-02 4.152205e-02 4.122127e-02 3.992147e-02 3.944509e-02 3.996880e-02 4.113262e-02 4.542875e-02 4.941500e-02 5.709764e-02 6.313047e-02 7.198573e-02 7.813843e-02 8.563726e-02 8.943252e-02 9.291978e-02 9.184762e-02 8.906954e-02 8.570356e-02 9.048355e-02 1.190102e-01 1.396739e-01 2.080577e-01 2.616716e-01 2.555368e-01 1.143659e-01 2.494015e-02 1.116344e-01 1.356884e-01 1.189129e-01 7.321825e-02 8.937850e-03 6.650130e-02 1.182905e-01 1.267617e-01 1.003498e-01 2.224602e-02 1.119092e-01 2.495802e-01 3.142186e-01 2.840074e-01 1.920195e-01 1.349693e-01 8.811953e-02 8.995647e-02 1.034662e-01 1.124683e-01 1.138674e-01 1.096549e-01 1.031235e-01 9.347283e-02 8.435910e-02 7.339869e-02 6.460424e-02 5.495021e-02 4.842333e-02 4.234101e-02 3.937983e-02 3.796760e-02 3.795544e-02 3.943964e-02 4.013668e-02 4.193772e-02 
4.809380e-02 4.893831e-02 4.741780e-02 4.684395e-02 4.470533e-02 4.351693e-02 4.267884e-02 4.270139e-02 4.565397e-02 4.867832e-02 5.579019e-02 6.154207e-02 7.049105e-02 7.698650e-02 8.482989e-02 8.904600e-02 9.279497e-02 9.042226e-02 8.699223e-02 7.510028e-02 8.853544e-02 1.202025e-01 1.521562e-01 1.666389e-01 4.573347e-02 1.081331e-01 1.798480e-01 9.167795e-02 3.489563e-02 1.040700e-01 1.077522e-01 8.791364e-02 8.235678e-02 9.847317e-02 1.095477e-01 9.801365e-02 3.221127e-02 9.305208e-02 1.742753e-01 1.378205e-01 3.893178e-02 2.427768e-01 2.716900e-01 2.082171e-01 1.346279e-01 1.091048e-01 1.197231e-01 1.234214e-01 1.210098e-01 1.144309e-01 1.056032e-01 9.479321e-02 8.459484e-02 7.307584e-02 6.408750e-02 5.460328e-02 4.870899e-02 4.372269e-02 4.191057e-02 4.188770e-02 4.272291e-02 4.506538e-02 4.608054e-02 4.824116e-02 
5.377692e-02 5.462168e-02 5.277939e-02 5.191910e-02 4.902885e-02 4.709074e-02 4.490768e-02 4.357326e-02 4.502108e-02 4.663756e-02 5.314754e-02 5.813021e-02 6.731414e-02 7.327816e-02 8.132122e-02 8.382983e-02 8.734978e-02 8.106516e-02 7.850605e-02 5.725377e-02 7.906374e-02 6.845739e-02 4.954618e-02 5.920609e-02 1.230818e-01 3.086543e-02 1.631946e-01 3.108226e-01 2.953861e-01 2.382435e-01 1.866626e-01 1.478577e-01 1.303077e-01 1.580542e-01 2.091643e-01 2.658855e-01 3.310840e-01 3.412960e-01 2.163810e-01 4.994436e-02 1.479261e-01 6.213346e-02 1.551668e-01 2.321127e-01 2.067518e-01 1.382514e-01 1.329723e-01 1.261371e-01 1.223236e-01 1.131483e-01 1.054243e-01 9.377066e-02 8.413589e-02 7.209194e-02 6.355429e-02 5.419365e-02 4.919082e-02 4.522531e-02 4.455044e-02 4.567953e-02 4.723708e-02 5.023882e-02 5.152655e-02 5.395313e-02 
5.952936e-02 6.041895e-02 5.818126e-02 5.709505e-02 5.332025e-02 5.067123e-02 4.675322e-02 4.384615e-02 4.281544e-02 4.241907e-02 4.734727e-02 5.149682e-02 6.049654e-02 6.719609e-02 7.518708e-02 7.894280e-02 8.167714e-02 7.579422e-02 7.708478e-02 4.745945e-02 3.905229e-02 1.329617e-02 4.613092e-02 3.410277e-02 1.289757e-01 2.595005e-01 2.560079e-01 1.991801e-01 1.171528e-01 9.712266e-02 1.110821e-01 1.164337e-01 1.211100e-01 1.197939e-01 1.239133e-01 1.349359e-01 1.653788e-01 2.459797e-01 3.069696e-01 3.286314e-01 1.606677e-01 8.601677e-02 7.586214e-02 5.990039e-02 1.494032e-01 1.498597e-01 1.257179e-01 1.164045e-01 1.092090e-01 1.031050e-01 9.582916e-02 8.592565e-02 7.686131e-02 6.561155e-02 5.808183e-02 5.008846e-02 4.687799e-02 4.520538e-02 4.627527e-02 4.920648e-02 5.163052e-02 5.549968e-02 5.703658e-02 5.979530e-02 
6.413779e-02 6.506043e-02 6.254718e-02 6.125308e-02 5.674828e-02 5.340858e-02 4.787563e-02 4.327895e-02 3.960492e-02 3.673938e-02 4.040403e-02 4.415279e-02 5.445434e-02 6.268531e-02 7.132172e-02 7.344099e-02 7.134265e-02 5.054915e-02 4.910146e-02 4.964821e-02 1.199336e-02 2.616662e-02 2.163666e-02 1.179574e-01 1.764339e-01 1.345370e-01 9.188809e-02 6.526298e-02 1.461010e-02 6.485126e-02 1.234879e-01 1.556592e-01 1.699857e-01 1.590353e-01 1.326474e-01 8.845148e-02 4.571175e-02 7.337292e-02 1.154984e-01 1.873013e-01 2.501447e-01 1.387072e-01 2.845237e-02 4.898610e-02 1.283599e-02 4.224531e-02 5.190818e-02 6.911753e-02 8.357862e-02 8.657775e-02 8.647393e-02 7.840917e-02 7.075612e-02 5.952071e-02 5.283811e-02 4.573327e-02 4.429135e-02 4.470918e-02 4.739933e-02 5.184971e-02 5.503989e-02 5.960799e-02 6.139802e-02 6.442187e-02 
6.844840e-02 6.942847e-02 6.659950e-02 6.521987e-02 5.997863e-02 5.618439e-02 4.891745e-02 4.282446e-02 3.556649e-02 2.941283e-02 3.055262e-02 3.430775e-02 4.714930e-02 5.980655e-02 7.253197e-02 8.397333e-02 9.530346e-02 9.767254e-02 8.101064e-02 2.609668e-02 2.552216e-02 1.418712e-02 5.352300e-02 9.755159e-02 9.824233e-02 9.422122e-02 6.971796e-02 3.274810e-02 5.057347e-02 9.131206e-02 1.289740e-01 1.448423e-01 1.537766e-01 1.446846e-01 1.275031e-01 9.249349e-02 4.420139e-02 2.612607e-02 8.487626e-02 1.343410e-01 1.570862e-01 1.509071e-01 7.859167e-02 1.518842e-02 2.107732e-02 1.960236e-02 5.922130e-02 7.864460e-02 7.150969e-02 7.435748e-02 7.324044e-02 6.597628e-02 5.878576e-02 4.776535e-02 4.277669e-02 3.809333e-02 3.979972e-02 4.374011e-02 4.836181e-02 5.463768e-02 5.846349e-02 6.371471e-02 6.560157e-02 6.885283e-02 
7.105417e-02 7.211718e-02 6.915169e-02 6.776523e-02 6.204082e-02 5.792228e-02 4.922216e-02 4.180796e-02 3.087917e-02 2.088864e-02 2.011388e-02 2.856803e-02 4.706643e-02 6.864001e-02 8.615061e-02 1.097514e-01 1.243276e-01 9.165678e-02 3.691640e-03 5.631160e-02 9.566837e-03 1.463093e-02 2.958826e-02 7.832147e-02 9.519985e-02 9.263133e-02 8.000347e-02 7.406713e-02 6.897338e-02 8.507473e-02 1.158532e-01 1.339869e-01 1.441291e-01 1.334719e-01 1.132772e-01 8.085092e-02 6.022511e-02 6.689057e-02 8.666392e-02 1.115293e-01 1.225274e-01 1.003272e-01 5.262618e-02 3.797714e-03 2.026711e-02 7.161248e-02 3.189740e-02 9.061060e-02 1.086700e-01 9.303911e-02 8.128590e-02 6.814329e-02 5.451427e-02 4.022580e-02 3.346858e-02 2.991034e-02 3.439291e-02 4.172128e-02 4.802031e-02 5.585292e-02 6.022602e-02 6.602473e-02 6.803567e-02 7.147343e-02 
7.297690e-02 7.411286e-02 7.104017e-02 6.980976e-02 6.378523e-02 5.975617e-02 4.998952e-02 4.217659e-02 2.788305e-02 1.486408e-02 9.680717e-03 2.499330e-02 4.691235e-02 7.023239e-02 8.565559e-02 1.116221e-01 1.478882e-01 7.365155e-02 6.786189e-02 1.819757e-02 8.999432e-02 6.072754e-02 6.790876e-02 8.721895e-02 1.017507e-01 1.041741e-01 9.067900e-02 8.109500e-02 7.951785e-02 8.854829e-02 1.058888e-01 1.137303e-01 1.201877e-01 1.127892e-01 1.030329e-01 8.497134e-02 7.583563e-02 8.139600e-02 1.007488e-01 1.222363e-01 1.252102e-01 1.115527e-01 8.711322e-02 6.666260e-02 1.168729e-01 6.090234e-02 9.578575e-02 7.754519e-02 1.478507e-01 8.710813e-02 7.710698e-02 6.119247e-02 4.723642e-02 2.889314e-02 2.152967e-02 2.111323e-02 2.998651e-02 4.122302e-02 4.869430e-02 5.768325e-02 6.216819e-02 6.819857e-02 7.006705e-02 7.352685e-02 
7.275621e-02 7.403820e-02 7.111284e-02 7.021637e-02 6.432033e-02 6.068972e-02 5.056762e-02 4.304870e-02 2.701397e-02 1.545456e-02 1.187997e-02 3.357545e-02 5.614242e-02 8.927010e-02 9.917065e-02 1.668397e-01 1.916625e-01 4.350503e-02 6.591373e-02 1.513272e-01 1.276683e-01 1.069192e-01 9.953715e-02 1.103364e-01 1.134246e-01 1.135669e-01 1.011656e-01 9.098307e-02 7.890540e-02 7.616069e-02 8.453965e-02 8.971997e-02 9.554498e-02 8.936305e-02 8.349993e-02 7.574638e-02 8.071673e-02 9.592251e-02 1.114721e-01 1.280758e-01 1.287967e-01 1.254464e-01 9.759926e-02 9.836651e-02 8.096294e-02 1.835231e-01 6.965409e-02 6.414036e-02 2.014562e-01 1.483335e-01 8.471910e-02 7.601220e-02 4.986065e-02 2.779695e-02 1.152454e-02 1.265118e-02 2.520159e-02 3.982912e-02 4.788818e-02 5.764654e-02 6.207024e-02 6.815767e-02 6.987596e-02 7.331932e-02 
7.151039e-02 7.289215e-02 7.025025e-02 6.984740e-02 6.449626e-02 6.166268e-02 5.206078e-02 4.575487e-02 3.046122e-02 2.394477e-02 2.372125e-02 4.512718e-02 6.915813e-02 1.089259e-01 1.146061e-01 2.193166e-01 7.398199e-02 1.603388e-01 1.141513e-01 2.440548e-01 1.229165e-01 1.217785e-01 1.067532e-01 1.151510e-01 1.126312e-01 1.105311e-01 9.558242e-02 8.376334e-02 7.042589e-02 6.489648e-02 6.737893e-02 6.825118e-02 7.256149e-02 6.894290e-02 6.879447e-02 6.818704e-02 7.663608e-02 9.273008e-02 1.088088e-01 1.258166e-01 1.296687e-01 1.283253e-01 1.130605e-01 1.120190e-01 9.472589e-02 2.343428e-01 1.296515e-01 1.711759e-01 8.521413e-02 2.218155e-01 9.778359e-02 9.635629e-02 5.744711e-02 3.273215e-02 1.183475e-02 1.458560e-02 2.633945e-02 4.156654e-02 4.911234e-02 5.846372e-02 6.224704e-02 6.778399e-02 6.903608e-02 7.218035e-02 
6.789592e-02 6.949804e-02 6.749107e-02 6.788187e-02 6.375940e-02 6.218266e-02 5.435807e-02 4.987008e-02 3.790152e-02 3.475179e-02 3.791664e-02 5.425428e-02 8.535244e-02 1.116963e-01 1.546844e-01 2.331799e-01 8.632615e-02 5.642630e-02 3.139684e-01 1.942139e-01 1.167071e-01 9.780525e-02 1.043714e-01 1.093922e-01 1.075528e-01 1.040316e-01 8.925814e-02 7.730890e-02 6.058151e-02 5.065588e-02 4.728020e-02 4.595552e-02 4.984244e-02 4.822081e-02 5.185614e-02 5.781211e-02 7.030244e-02 8.851574e-02 1.031024e-01 1.191573e-01 1.235216e-01 1.235781e-01 1.131887e-01 9.047342e-02 1.079399e-01 1.703040e-01 3.222483e-01 5.513819e-02 1.138698e-01 2.496969e-01 1.707204e-01 1.013199e-01 7.822682e-02 4.081778e-02 2.531932e-02 2.329902e-02 3.033836e-02 4.353583e-02 4.964901e-02 5.774469e-02 6.052644e-02 6.514537e-02 6.581695e-02 6.857010e-02 
6.303546e-02 6.481752e-02 6.372888e-02 6.507162e-02 6.283323e-02 6.271073e-02 5.779864e-02 5.491830e-02 4.747758e-02 4.445375e-02 5.090420e-02 5.856348e-02 1.001509e-01 9.835739e-02 1.955793e-01 1.650172e-01 1.766370e-01 1.308382e-01 3.221011e-01 1.075518e-01 8.489409e-02 6.913927e-02 8.399863e-02 9.660241e-02 9.254253e-02 9.023538e-02 7.463342e-02 6.364865e-02 4.686833e-02 3.725051e-02 3.174917e-02 2.958300e-02 3.332812e-02 3.359446e-02 3.908860e-02 4.698613e-02 5.833640e-02 7.537346e-02 8.776190e-02 1.033821e-01 1.056731e-01 1.082058e-01 8.973627e-02 7.160247e-02 7.217276e-02 8.294190e-02 2.982236e-01 1.733941e-01 1.935955e-01 1.264463e-01 2.196570e-01 9.069231e-02 9.218854e-02 4.370577e-02 3.808159e-02 3.333386e-02 3.960173e-02 4.811159e-02 5.245158e-02 5.780399e-02 5.906993e-02 6.198815e-02 6.175052e-02 6.376005e-02 
5.586009e-02 5.799071e-02 5.827962e-02 6.099250e-02 6.144619e-02 6.322156e-02 6.231870e-02 6.108299e-02 5.896260e-02 5.437370e-02 6.385284e-02 6.162360e-02 1.104006e-01 9.040360e-02 2.037194e-01 5.988559e-02 1.566506e-01 2.771036e-01 2.712686e-01 5.267663e-02 2.546777e-02 5.700683e-02 6.662706e-02 8.564361e-02 7.917628e-02 7.778322e-02 6.242557e-02 5.299616e-02 3.622492e-02 2.651537e-02 1.752016e-02 1.451698e-02 1.878908e-02 2.151311e-02 2.851147e-02 3.844187e-02 4.884854e-02 6.493620e-02 7.529390e-02 9.053459e-02 9.291187e-02 9.863858e-02 8.003860e-02 6.741720e-02 1.465547e-02 4.663443e-02 2.355956e-01 2.933840e-01 1.247117e-01 3.213743e-02 2.204894e-01 1.046927e-01 9.913457e-02 5.263095e-02 5.253540e-02 4.488728e-02 5.075107e-02 5.349008e-02 5.566600e-02 5.720177e-02 5.646382e-02 5.702612e-02 5.556518e-02 5.659322e-02 
4.743826e-02 5.001632e-02 5.216924e-02 5.649564e-02 6.022658e-02 6.395644e-02 6.740464e-02 6.761051e-02 7.014768e-02 6.401866e-02 7.308072e-02 6.494015e-02 1.042879e-01 1.071838e-01 1.807868e-01 4.001820e-02 6.397908e-02 2.867044e-01 2.016177e-01 4.492043e-02 4.874604e-02 6.476798e-02 7.140611e-02 8.024602e-02 7.113165e-02 6.617322e-02 5.074552e-02 4.127371e-02 2.573157e-02 1.735497e-02 7.454435e-03 5.551681e-03 1.099415e-02 1.450943e-02 1.985870e-02 2.820525e-02 3.567806e-02 4.950551e-02 5.842920e-02 7.309090e-02 7.782625e-02 8.595371e-02 7.711544e-02 6.826029e-02 5.202492e-02 4.821703e-02 1.786887e-01 2.741291e-01 4.177748e-02 6.275822e-02 1.826085e-01 1.196638e-01 9.316118e-02 5.942044e-02 6.261772e-02 5.605719e-02 6.137318e-02 5.973280e-02 5.953214e-02 5.702516e-02 5.390670e-02 5.154935e-02 4.848525e-02 4.816934e-02 
3.709514e-02 4.043309e-02 4.504867e-02 5.147654e-02 5.878125e-02 6.480683e-02 7.226772e-02 7.468864e-02 8.060960e-02 7.547271e-02 8.080610e-02 6.854845e-02 8.371403e-02 1.110591e-01 1.376415e-01 6.409963e-02 8.911035e-03 2.294471e-01 1.637769e-01 8.443828e-02 1.001985e-01 8.856112e-02 9.119573e-02 8.271472e-02 7.185203e-02 5.992730e-02 4.542204e-02 3.439661e-02 2.127137e-02 1.346987e-02 3.943127e-03 2.270798e-03 7.368071e-03 1.126685e-02 1.495389e-02 2.183270e-02 2.739763e-02 3.925624e-02 4.880449e-02 6.347371e-02 7.475236e-02 8.609342e-02 9.363500e-02 9.006484e-02 9.629276e-02 7.561632e-02 1.451845e-01 2.397044e-01 2.488857e-02 8.673065e-02 1.346873e-01 1.224450e-01 8.151906e-02 6.821132e-02 7.344458e-02 6.945404e-02 7.223391e-02 6.717236e-02 6.388956e-02 5.743741e-02 5.142340e-02 4.558543e-02 4.021391e-02 3.796450e-02 
2.589454e-02 3.070037e-02 3.859718e-02 4.731583e-02 5.801122e-02 6.610445e-02 7.687826e-02 8.165939e-02 9.041744e-02 8.837558e-02 9.227150e-02 8.140434e-02 7.716369e-02 9.840502e-02 9.778731e-02 6.535244e-02 3.434074e-02 1.659453e-01 1.392689e-01 1.155171e-01 1.365191e-01 1.167719e-01 1.147215e-01 9.283282e-02 7.966706e-02 5.955530e-02 4.550942e-02 3.081220e-02 2.033528e-02 1.195999e-02 6.930811e-03 5.224294e-03 6.759837e-03 8.249941e-03 9.042574e-03 1.317698e-02 1.802499e-02 2.872349e-02 4.226350e-02 5.801375e-02 7.849664e-02 9.434407e-02 1.171056e-01 1.228496e-01 1.422805e-01 1.268410e-01 1.431264e-01 1.712457e-01 5.013844e-02 8.034649e-02 9.617500e-02 1.005082e-01 6.394896e-02 7.472673e-02 8.091404e-02 8.019980e-02 7.964069e-02 7.275814e-02 6.663625e-02 5.736154e-02 4.875122e-02 3.967762e-02 3.161950e-02 2.683645e-02 
1.371128e-02 2.141252e-02 3.306838e-02 4.388038e-02 5.700492e-02 6.667706e-02 7.942152e-02 8.619292e-02 9.640513e-02 9.774969e-02 1.006122e-01 9.448895e-02 7.796502e-02 8.102068e-02 5.742601e-02 4.897435e-02 4.337436e-02 1.035550e-01 1.312891e-01 1.392344e-01 1.580445e-01 1.362054e-01 1.297952e-01 1.008534e-01 8.579388e-02 6.062054e-02 4.695652e-02 2.979484e-02 2.139777e-02 1.253195e-02 9.642303e-03 7.142809e-03 7.378785e-03 7.241046e-03 6.064876e-03 7.127098e-03 1.213671e-02 2.185285e-02 3.857619e-02 5.474422e-02 8.015229e-02 9.855891e-02 1.272257e-01 1.383601e-01 1.580569e-01 1.481614e-01 1.332608e-01 1.219171e-01 4.705335e-02 5.542485e-02 6.676223e-02 8.328725e-02 6.837962e-02 9.165906e-02 9.151748e-02 9.166603e-02 8.674380e-02 7.848270e-02 6.976406e-02 5.850647e-02 4.771474e-02 3.589198e-02 2.469676e-02 1.562111e-02 
5.074268e-03 1.752924e-02 3.139064e-02 4.306497e-02 5.713824e-02 6.737980e-02 8.093443e-02 8.851608e-02 9.952392e-02 1.025287e-01 1.056992e-01 1.029106e-01 8.341001e-02 7.866466e-02 2.038259e-02 3.247257e-02 4.845875e-02 6.770357e-02 1.230364e-01 1.441471e-01 1.634243e-01 1.426902e-01 1.352721e-01 1.045844e-01 8.897162e-02 6.211351e-02 4.848766e-02 3.023870e-02 2.233967e-02 1.295861e-02 1.038712e-02 7.271361e-03 6.839366e-03 5.608485e-03 2.707502e-03 1.342089e-03 1.108792e-02 2.131193e-02 4.047910e-02 5.743128e-02 8.551012e-02 1.056423e-01 1.372528e-01 1.511136e-01 1.714268e-01 1.624982e-01 1.358711e-01 9.623002e-02 4.708816e-02 3.968720e-02 4.036788e-02 7.999622e-02 7.140651e-02 9.802580e-02 9.371012e-02 9.432695e-02 8.768027e-02 7.920982e-02 6.968409e-02 5.793140e-02 4.647863e-02 3.372466e-02 2.111294e-02 8.282773e-03 
1.371128e-02 2.141252e-02 3.306838e-02 4.388038e-02 5.700492e-02 6.667706e-02 7.942152e-02 8.619292e-02 9.640513e-02 9.774969e-02 1.006122e-01 9.448895e-02 7.796502e-02 8.102068e-02 5.742601e-02 4.897435e-02 4.337436e-02 1.035550e-01 1.312891e-01 1.392344e-01 1.580445e-01 1.362054e-01 1.297952e-01 1.008534e-01 8.579388e-02 6.062054e-02 4.695652e-02 2.979484e-02 2.139777e-02 1.253195e-02 9.642303e-03 7.142809e-03 7.378785e-03 7.241046e-03 6.064876e-03 7.127098e-03 1.213671e-02 2.185285e-02 3.857619e-02 5.474422e-02 8.015229e-02 9.855891e-02 1.272257e-01 1.383601e-01 1.580569e-01 1.481614e-01 1.332608e-01 1.219171e-01 4.705335e-02 5.542485e-02 6.676223e-02 8.328725e-02 6.837962e-02 9.165906e-02 9.151748e-02 9.166603e-02 8.674380e-02 7.848270e-02 6.976406e-02 5.850647e-02 4.771474e-02 3.589198e-02 2.469676e-02 1.562111e-02 
2.589454e-02 3.070037e-02 3.859718e-02 4.731583e-02 5.801122e-02 6.610445e-02 7.687826e-02 8.165939e-02 9.041744e-02 8.837558e-02 9.227150e-02 8.140434e-02 7.716369e-02 9.840502e-02 9.778731e-02 6.535244e-02 3.434074e-02 1.659453e-01 1.392689e-01 1.155171e-01 1.365191e-01 1.167719e-01 1.147215e-01 9.283282e-02 7.966706e-02 5.955530e-02 4.550942e-02 3.081220e-02 2.033528e-02 1.195999e-02 6.930811e-03 5.224294e-03 6.759837e-03 8.249941e-03 9.042574e-03 1.317698e-02 1.802499e-02 2.872349e-02 4.226350e-02 5.801375e-02 7.849664e-02 9.434407e-02 1.171056e-01 1.228496e-01 1.422805e-01 1.268410e-01 1.431264e-01 1.712457e-01 5.013844e-02 8.034649e-02 9.617500e-02 1.005082e-01 6.394896e-02 7.472673e-02 8.091404e-02 8.019980e-02 7.964069e-02 7.275814e-02 6.663625e-02 5.736154e-02 4.875122e-02 3.967762e-02 3.161950e-02 2.683645e-02 