# vtk DataFile Version 2.0
Comment goes here
ASCII

DATASET STRUCTURED_POINTS
FIELD FieldData 1
TIME 1 1 double
1.65000000
DIMENSIONS    64   64   1

ORIGIN    0.000   0.000   0.000
SPACING   0.015625 0.015625   1.000

POINT_DATA   4096
SCALARS uMag double
LOOKUP_TABLE default

1.756198e-03 2.788621e-04 9.817689e-04 2.868544e-03 4.805605e-03 7.616910e-03 1.072563e-02 1.487270e-02 1.951438e-02 2.523593e-02 3.156519e-02 3.885328e-02 4.674079e-02 5.526801e-02 6.423054e-02 7.329709e-02 8.246062e-02 9.099395e-02 9.912914e-02 1.057765e-01 1.114446e-01 1.147818e-01 1.165950e-01 1.154234e-01 1.123567e-01 1.059922e-01 9.763220e-02 8.608084e-02 7.274127e-02 5.675479e-02 3.953872e-02 2.068436e-02 1.537018e-03 1.785407e-02 3.643017e-02 5.382631e-02 6.952294e-02 8.299860e-02 9.432639e-02 1.029175e-01 1.092580e-01 1.127957e-01 1.142162e-01 1.131248e-01 1.102609e-01 1.054406e-01 9.936535e-02 9.203057e-02 8.404251e-02 7.549296e-02 6.687055e-02 5.826838e-02 5.007036e-02 4.229008e-02 3.524469e-02 2.881333e-02 2.329337e-02 1.840185e-02 1.445821e-02 1.101356e-02 8.437939e-03 6.131351e-03 4.527419e-03 2.903617e-03 
2.209513e-03 1.412698e-03 1.793433e-03 3.306140e-03 5.161815e-03 7.918022e-03 1.101904e-02 1.515197e-02 1.979113e-02 2.549530e-02 3.180881e-02 3.905926e-02 4.691123e-02 5.537299e-02 6.427934e-02 7.325126e-02 8.234053e-02 9.075397e-02 9.880116e-02 1.053127e-01 1.108852e-01 1.140888e-01 1.158132e-01 1.145490e-01 1.114466e-01 1.051184e-01 9.690065e-02 8.570204e-02 7.295530e-02 5.805149e-02 4.263201e-02 2.767251e-02 1.931523e-02 2.592005e-02 4.013413e-02 5.549026e-02 7.000937e-02 8.276998e-02 9.369012e-02 1.020630e-01 1.083421e-01 1.118821e-01 1.133880e-01 1.123857e-01 1.096516e-01 1.049471e-01 9.899932e-02 9.177971e-02 8.389828e-02 7.544760e-02 6.690430e-02 5.837480e-02 5.022661e-02 4.248818e-02 3.546461e-02 2.904552e-02 2.352398e-02 1.862288e-02 1.466397e-02 1.120343e-02 8.616533e-03 6.313929e-03 4.733388e-03 3.190155e-03 
3.075438e-03 2.682167e-03 3.096267e-03 4.342268e-03 6.099913e-03 8.768327e-03 1.185364e-02 1.597346e-02 2.058281e-02 2.626661e-02 3.248938e-02 3.967174e-02 4.735318e-02 5.568194e-02 6.434170e-02 7.311939e-02 8.191414e-02 9.010140e-02 9.786432e-02 1.041816e-01 1.095753e-01 1.127239e-01 1.145099e-01 1.134792e-01 1.108381e-01 1.052008e-01 9.799457e-02 8.812153e-02 7.712389e-02 6.457826e-02 5.243824e-02 4.226358e-02 3.777678e-02 4.149675e-02 5.096138e-02 6.295369e-02 7.500826e-02 8.594397e-02 9.542517e-02 1.026859e-01 1.081510e-01 1.111293e-01 1.122937e-01 1.111458e-01 1.083928e-01 1.037999e-01 9.801217e-02 9.102024e-02 8.336312e-02 7.515428e-02 6.682138e-02 5.848556e-02 5.048968e-02 4.286772e-02 3.592157e-02 2.953906e-02 2.402506e-02 1.910044e-02 1.510469e-02 1.160306e-02 8.984378e-03 6.691924e-03 5.162758e-03 3.790424e-03 
3.937759e-03 3.758368e-03 4.294640e-03 5.499981e-03 7.293845e-03 9.950144e-03 1.309794e-02 1.724285e-02 2.187334e-02 2.754152e-02 3.368510e-02 4.075341e-02 4.822497e-02 5.631009e-02 6.462882e-02 7.303184e-02 8.138678e-02 8.910375e-02 9.639704e-02 1.022302e-01 1.072328e-01 1.100218e-01 1.116477e-01 1.105935e-01 1.082512e-01 1.032623e-01 9.721986e-02 8.924311e-02 8.097692e-02 7.232310e-02 6.486641e-02 5.957079e-02 5.751479e-02 5.955683e-02 6.456666e-02 7.191078e-02 7.998705e-02 8.797504e-02 9.537762e-02 1.012549e-01 1.059293e-01 1.084640e-01 1.095503e-01 1.084919e-01 1.060225e-01 1.017965e-01 9.643809e-02 8.991101e-02 8.268963e-02 7.491474e-02 6.693739e-02 5.892358e-02 5.115809e-02 4.371095e-02 3.685921e-02 3.050920e-02 2.497164e-02 1.997586e-02 1.588401e-02 1.227680e-02 9.564822e-03 7.229944e-03 5.712540e-03 4.464681e-03 
4.562096e-03 4.563333e-03 5.291191e-03 6.607899e-03 8.571116e-03 1.133856e-02 1.464282e-02 1.890346e-02 2.360850e-02 2.932588e-02 3.538513e-02 4.236454e-02 4.954017e-02 5.734816e-02 6.514510e-02 7.306864e-02 8.071654e-02 8.779764e-02 9.431970e-02 9.950605e-02 1.039082e-01 1.063295e-01 1.078962e-01 1.071915e-01 1.057843e-01 1.023122e-01 9.849125e-02 9.330628e-02 8.822047e-02 8.294309e-02 7.855036e-02 7.564978e-02 7.455000e-02 7.600983e-02 7.895151e-02 8.351672e-02 8.838013e-02 9.324197e-02 9.782136e-02 1.013446e-01 1.043259e-01 1.057336e-01 1.062494e-01 1.050703e-01 1.027864e-01 9.901958e-02 9.421047e-02 8.834854e-02 8.174597e-02 7.459085e-02 6.712412e-02 5.955037e-02 5.210576e-02 4.487526e-02 3.814121e-02 3.180396e-02 2.621335e-02 2.108850e-02 1.683848e-02 1.305202e-02 1.017111e-02 7.720933e-03 6.144755e-03 4.955728e-03 
4.816181e-03 4.990873e-03 5.985106e-03 7.511101e-03 9.773580e-03 1.276084e-02 1.635346e-02 2.082131e-02 2.572645e-02 3.156030e-02 3.763714e-02 4.455138e-02 5.148233e-02 5.896713e-02 6.621636e-02 7.352151e-02 8.034624e-02 8.655240e-02 9.210862e-02 9.632617e-02 9.988300e-02 1.015585e-01 1.027634e-01 1.019721e-01 1.010744e-01 9.868426e-02 9.673881e-02 9.450256e-02 9.338128e-02 9.306213e-02 9.351623e-02 9.445695e-02 9.484769e-02 9.525430e-02 9.469756e-02 9.464231e-02 9.457670e-02 9.539513e-02 9.695011e-02 9.844092e-02 1.002791e-01 1.010354e-01 1.015102e-01 1.005713e-01 9.886405e-02 9.584268e-02 9.186334e-02 8.689753e-02 8.109783e-02 7.471825e-02 6.785315e-02 6.078551e-02 5.367040e-02 4.664164e-02 3.997264e-02 3.357797e-02 2.784584e-02 2.249475e-02 1.798318e-02 1.391147e-02 1.075256e-02 8.076546e-03 6.337373e-03 5.114264e-03 
4.627540e-03 5.031131e-03 6.391856e-03 8.233486e-03 1.090006e-02 1.421818e-02 1.820206e-02 2.299539e-02 2.820112e-02 3.427662e-02 4.044874e-02 4.741059e-02 5.410962e-02 6.132992e-02 6.792024e-02 7.455019e-02 8.025733e-02 8.535890e-02 8.946382e-02 9.233765e-02 9.453463e-02 9.521958e-02 9.600336e-02 9.562453e-02 9.628203e-02 9.652286e-02 9.818635e-02 9.985955e-02 1.021645e-01 1.044785e-01 1.065337e-01 1.083824e-01 1.090318e-01 1.093045e-01 1.079034e-01 1.064133e-01 1.038860e-01 1.014709e-01 9.945218e-02 9.748469e-02 9.676569e-02 9.586768e-02 9.564374e-02 9.483287e-02 9.374573e-02 9.179783e-02 8.895262e-02 8.524109e-02 8.052195e-02 7.513614e-02 6.902790e-02 6.253342e-02 5.578758e-02 4.892482e-02 4.228490e-02 3.574723e-02 2.979992e-02 2.412328e-02 1.926086e-02 1.480294e-02 1.125990e-02 8.243071e-03 6.210066e-03 4.853246e-03 
3.907911e-03 4.657005e-03 6.525755e-03 8.747728e-03 1.191007e-02 1.561273e-02 2.009662e-02 2.528402e-02 3.093293e-02 3.733351e-02 4.376999e-02 5.086211e-02 5.749453e-02 6.449850e-02 7.053848e-02 7.645646e-02 8.103778e-02 8.486504e-02 8.737563e-02 8.860532e-02 8.924416e-02 8.857368e-02 8.871509e-02 8.818405e-02 8.960853e-02 9.113221e-02 9.461867e-02 9.931262e-02 1.059420e-01 1.140872e-01 1.220110e-01 1.283954e-01 1.307478e-01 1.296011e-01 1.236840e-01 1.163014e-01 1.075079e-01 1.006388e-01 9.579254e-02 9.227158e-02 9.083932e-02 8.937909e-02 8.934188e-02 8.903318e-02 8.894823e-02 8.826949e-02 8.675324e-02 8.442839e-02 8.086010e-02 7.650913e-02 7.112437e-02 6.515154e-02 5.867352e-02 5.186766e-02 4.512804e-02 3.832272e-02 3.203499e-02 2.592052e-02 2.059807e-02 1.565843e-02 1.162399e-02 8.156704e-03 5.673096e-03 4.044930e-03 
2.729777e-03 4.092702e-03 6.582415e-03 9.220114e-03 1.290066e-02 1.703105e-02 2.206410e-02 2.773333e-02 3.391207e-02 4.077732e-02 4.759601e-02 5.500528e-02 6.169261e-02 6.868229e-02 7.422717e-02 7.956038e-02 8.286092e-02 8.528513e-02 8.561844e-02 8.460330e-02 8.260958e-02 7.975005e-02 7.861430e-02 7.860304e-02 8.274303e-02 8.892029e-02 9.796195e-02 1.071401e-01 1.158425e-01 1.242424e-01 1.314428e-01 1.371734e-01 1.392910e-01 1.384838e-01 1.329536e-01 1.260197e-01 1.164494e-01 1.071588e-01 9.851380e-02 9.031406e-02 8.528349e-02 8.169153e-02 8.096389e-02 8.146705e-02 8.281728e-02 8.419826e-02 8.456333e-02 8.409961e-02 8.195942e-02 7.875484e-02 7.414348e-02 6.860754e-02 6.233533e-02 5.544004e-02 4.850521e-02 4.129445e-02 3.457638e-02 2.792072e-02 2.206639e-02 1.657591e-02 1.198272e-02 7.992987e-03 4.882364e-03 2.731111e-03 
1.739605e-03 3.928213e-03 6.890881e-03 9.798776e-03 1.393241e-02 1.842304e-02 2.403563e-02 3.018155e-02 3.700030e-02 4.437526e-02 5.176112e-02 5.957616e-02 6.656446e-02 7.365542e-02 7.896712e-02 8.381113e-02 8.601687e-02 8.702723e-02 8.520207e-02 8.176449e-02 7.712714e-02 7.194383e-02 7.001450e-02 7.036698e-02 7.637098e-02 8.352352e-02 9.201186e-02 1.020518e-01 1.144214e-01 1.306248e-01 1.472402e-01 1.604067e-01 1.653968e-01 1.619424e-01 1.484967e-01 1.313852e-01 1.118008e-01 9.818967e-02 8.929985e-02 8.277295e-02 7.912606e-02 7.503574e-02 7.457997e-02 7.572590e-02 7.857893e-02 8.185000e-02 8.403788e-02 8.532827e-02 8.446610e-02 8.227003e-02 7.822960e-02 7.295878e-02 6.668781e-02 5.953401e-02 5.223364e-02 4.448574e-02 3.721849e-02 2.994616e-02 2.349697e-02 1.744562e-02 1.228677e-02 7.840766e-03 4.083387e-03 1.161711e-03 
3.211150e-03 5.091734e-03 7.889674e-03 1.078459e-02 1.515165e-02 1.990636e-02 2.603130e-02 3.266975e-02 4.015008e-02 4.814501e-02 5.619492e-02 6.462974e-02 7.209483e-02 7.961675e-02 8.493977e-02 8.970856e-02 9.102850e-02 9.093325e-02 8.671716e-02 8.044143e-02 7.147289e-02 6.183175e-02 5.632311e-02 5.761197e-02 6.902287e-02 8.574455e-02 1.037653e-01 1.178452e-01 1.270512e-01 1.369609e-01 1.476986e-01 1.572717e-01 1.614079e-01 1.593558e-01 1.489212e-01 1.368215e-01 1.208649e-01 1.076722e-01 9.517938e-02 8.122740e-02 7.133201e-02 6.471027e-02 6.392512e-02 6.766537e-02 7.350410e-02 8.018168e-02 8.486412e-02 8.820223e-02 8.864408e-02 8.722366e-02 8.358887e-02 7.826753e-02 7.183006e-02 6.416954e-02 5.638172e-02 4.794227e-02 4.005681e-02 3.210296e-02 2.505055e-02 1.847501e-02 1.284989e-02 8.206938e-03 4.362701e-03 2.557562e-03 
6.424441e-03 7.739557e-03 9.912032e-03 1.239766e-02 1.667835e-02 2.145199e-02 2.798876e-02 3.500446e-02 4.319183e-02 5.177542e-02 6.065584e-02 6.975445e-02 7.798168e-02 8.605674e-02 9.176340e-02 9.662028e-02 9.737860e-02 9.622724e-02 8.964437e-02 8.022366e-02 6.674133e-02 5.240346e-02 4.598174e-02 5.128298e-02 6.966991e-02 8.487573e-02 9.399526e-02 1.040296e-01 1.165837e-01 1.391310e-01 1.671381e-01 1.891131e-01 1.974713e-01 1.904553e-01 1.661691e-01 1.337783e-01 9.746096e-02 8.081513e-02 7.532469e-02 7.272096e-02 6.974889e-02 5.985695e-02 5.768363e-02 6.208436e-02 7.067970e-02 8.033779e-02 8.741735e-02 9.266167e-02 9.414936e-02 9.333504e-02 8.979098e-02 8.421501e-02 7.734177e-02 6.899948e-02 6.054518e-02 5.131472e-02 4.272934e-02 3.409466e-02 2.646506e-02 1.951497e-02 1.365273e-02 9.333995e-03 6.297160e-03 5.839566e-03 
1.039167e-02 1.137319e-02 1.287818e-02 1.475934e-02 1.858774e-02 2.314567e-02 2.986641e-02 3.717567e-02 4.598318e-02 5.520273e-02 6.492848e-02 7.487685e-02 8.399783e-02 9.299607e-02 9.939337e-02 1.049389e-01 1.056599e-01 1.042380e-01 9.579160e-02 8.373598e-02 6.450067e-02 4.219560e-02 2.519125e-02 3.742777e-02 6.867180e-02 1.094942e-01 1.411967e-01 1.525112e-01 1.426247e-01 1.363642e-01 1.425702e-01 1.521210e-01 1.570010e-01 1.532564e-01 1.393316e-01 1.272119e-01 1.132487e-01 1.145011e-01 1.079821e-01 8.663864e-02 6.055267e-02 4.343590e-02 4.138927e-02 5.291975e-02 6.793019e-02 8.281254e-02 9.277627e-02 9.967681e-02 1.018923e-01 1.009887e-01 9.721727e-02 9.085661e-02 8.335294e-02 7.402556e-02 6.480832e-02 5.465664e-02 4.535231e-02 3.604494e-02 2.792152e-02 2.078675e-02 1.500917e-02 1.147855e-02 9.503634e-03 9.806499e-03 
1.506144e-02 1.580453e-02 1.671317e-02 1.786252e-02 2.094929e-02 2.493927e-02 3.159831e-02 3.895185e-02 4.833425e-02 5.805060e-02 6.874972e-02 7.950665e-02 8.983491e-02 9.984468e-02 1.074196e-01 1.138548e-01 1.149385e-01 1.131740e-01 1.022330e-01 8.593290e-02 5.814663e-02 2.411662e-02 1.462072e-02 5.823772e-02 1.029296e-01 1.233998e-01 1.248899e-01 1.454644e-01 1.714507e-01 1.908891e-01 2.072269e-01 2.082870e-01 2.009684e-01 1.988316e-01 1.947938e-01 1.740572e-01 1.350264e-01 1.039332e-01 8.060803e-02 8.488267e-02 8.579871e-02 5.190860e-02 2.602110e-02 3.785748e-02 6.210918e-02 8.383454e-02 9.789379e-02 1.073503e-01 1.102872e-01 1.094543e-01 1.050569e-01 9.774996e-02 8.926457e-02 7.878104e-02 6.861487e-02 5.748729e-02 4.743652e-02 3.755923e-02 2.908818e-02 2.210770e-02 1.683709e-02 1.449387e-02 1.356256e-02 1.442636e-02 
2.016284e-02 2.074778e-02 2.111814e-02 2.156083e-02 2.366951e-02 2.684407e-02 3.305942e-02 4.026579e-02 4.999166e-02 6.016940e-02 7.171934e-02 8.340110e-02 9.490361e-02 1.062279e-01 1.151006e-01 1.229231e-01 1.247649e-01 1.231733e-01 1.103322e-01 9.018215e-02 5.445378e-02 2.345139e-02 4.621144e-02 8.957738e-02 1.530560e-01 2.480112e-01 2.988410e-01 3.025707e-01 2.477676e-01 1.821580e-01 1.274033e-01 7.374594e-02 4.018042e-02 5.856141e-02 1.017562e-01 1.596754e-01 2.074077e-01 2.475138e-01 2.450986e-01 2.083777e-01 1.299730e-01 6.016012e-02 2.645375e-02 1.613422e-02 5.523570e-02 8.658834e-02 1.054766e-01 1.167779e-01 1.203983e-01 1.186111e-01 1.134810e-01 1.046085e-01 9.507358e-02 8.315371e-02 7.201472e-02 5.984695e-02 4.908807e-02 3.874685e-02 3.010496e-02 2.360398e-02 1.919186e-02 1.814957e-02 1.813057e-02 1.945857e-02 
2.569377e-02 2.611995e-02 2.600875e-02 2.571904e-02 2.673391e-02 2.877159e-02 3.419010e-02 4.085277e-02 5.075577e-02 6.111071e-02 7.357457e-02 8.599161e-02 9.899292e-02 1.116032e-01 1.224303e-01 1.319186e-01 1.352828e-01 1.342350e-01 1.184341e-01 9.224252e-02 4.635545e-02 6.479748e-02 1.348990e-01 2.453796e-01 3.159007e-01 2.692993e-01 1.205734e-01 8.151073e-02 1.299402e-01 1.588337e-01 1.495941e-01 1.282862e-01 1.066729e-01 1.086079e-01 1.253037e-01 1.443951e-01 1.316045e-01 9.789939e-02 6.396210e-02 1.672531e-01 2.529802e-01 2.073656e-01 1.113205e-01 3.614318e-02 3.794010e-02 8.237202e-02 1.091389e-01 1.257516e-01 1.303391e-01 1.284671e-01 1.219404e-01 1.113354e-01 1.002356e-01 8.665292e-02 7.435202e-02 6.112681e-02 4.971515e-02 3.914003e-02 3.062987e-02 2.510615e-02 2.195869e-02 2.231776e-02 2.316209e-02 2.489959e-02 
3.133590e-02 3.165198e-02 3.107450e-02 3.012053e-02 2.992043e-02 3.067220e-02 3.480554e-02 4.063399e-02 5.031432e-02 6.074151e-02 7.384864e-02 8.707999e-02 1.012941e-01 1.154248e-01 1.277796e-01 1.390565e-01 1.433928e-01 1.417305e-01 1.224103e-01 8.456512e-02 4.267849e-02 1.260503e-01 2.193574e-01 2.000044e-01 6.560577e-02 1.266347e-01 1.337939e-01 6.058359e-02 1.162213e-01 1.740327e-01 1.869977e-01 1.653369e-01 1.620574e-01 1.854154e-01 2.241117e-01 2.304222e-01 1.829357e-01 9.593479e-02 6.795050e-02 1.327165e-01 7.626484e-02 1.109844e-01 1.775873e-01 1.117299e-01 3.485940e-02 7.481472e-02 1.114392e-01 1.321565e-01 1.398184e-01 1.369222e-01 1.298102e-01 1.170670e-01 1.045919e-01 8.919371e-02 7.573885e-02 6.147516e-02 4.944952e-02 3.885056e-02 3.072154e-02 2.657716e-02 2.492040e-02 2.664998e-02 2.830262e-02 3.044142e-02 
3.702760e-02 3.719837e-02 3.621059e-02 3.458331e-02 3.318334e-02 3.244407e-02 3.491190e-02 3.936772e-02 4.850815e-02 5.857740e-02 7.233738e-02 8.601828e-02 1.017698e-01 1.170137e-01 1.315582e-01 1.441891e-01 1.505952e-01 1.496882e-01 1.287482e-01 8.863658e-02 9.969113e-02 1.721433e-01 1.070893e-01 6.532963e-02 6.418333e-02 1.082492e-01 2.796140e-01 3.919548e-01 3.549034e-01 2.660600e-01 1.770650e-01 9.826340e-02 5.857783e-02 1.270011e-01 2.122188e-01 3.057424e-01 3.918778e-01 4.592060e-01 4.096268e-01 2.421290e-01 3.087007e-02 8.037187e-02 3.345693e-02 1.184737e-01 7.568822e-02 5.431718e-02 1.048006e-01 1.383792e-01 1.489607e-01 1.466983e-01 1.377229e-01 1.223218e-01 1.078234e-01 9.014677e-02 7.542770e-02 6.009125e-02 4.763933e-02 3.739408e-02 3.016690e-02 2.797320e-02 2.808859e-02 3.112867e-02 3.355610e-02 3.601896e-02 
4.241207e-02 4.248986e-02 4.109988e-02 3.890098e-02 3.625644e-02 3.403306e-02 3.432479e-02 3.703571e-02 4.506878e-02 5.470708e-02 6.891221e-02 8.338032e-02 1.003861e-01 1.173785e-01 1.327358e-01 1.467567e-01 1.513053e-01 1.475671e-01 1.201422e-01 6.930934e-02 1.098824e-01 5.693152e-02 4.093398e-02 4.627386e-02 2.569681e-01 3.539486e-01 3.216258e-01 2.413894e-01 1.310615e-01 6.562097e-02 3.385762e-02 3.789831e-02 4.701155e-02 5.998607e-02 7.297536e-02 1.020765e-01 1.553185e-01 2.529456e-01 3.534205e-01 4.217733e-01 3.770227e-01 1.677831e-01 1.409935e-02 9.857043e-03 7.833649e-02 3.037606e-02 9.596110e-02 1.353484e-01 1.549517e-01 1.528644e-01 1.439975e-01 1.265229e-01 1.101816e-01 9.030480e-02 7.402784e-02 5.760258e-02 4.453923e-02 3.490869e-02 2.889024e-02 2.905959e-02 3.104318e-02 3.532739e-02 3.849904e-02 4.128830e-02 
4.736466e-02 4.729746e-02 4.559673e-02 4.284609e-02 3.910633e-02 3.537587e-02 3.324376e-02 3.359445e-02 4.004171e-02 4.891259e-02 6.383506e-02 7.911140e-02 9.818437e-02 1.165920e-01 1.336943e-01 1.458195e-01 1.482351e-01 1.345886e-01 9.618325e-02 3.700980e-02 2.153950e-02 3.633978e-03 8.374882e-02 2.298662e-01 2.584131e-01 2.143563e-01 1.759148e-01 1.445657e-01 8.403824e-02 4.307064e-02 5.849072e-02 9.079121e-02 1.062022e-01 1.037547e-01 8.706581e-02 7.139842e-02 9.088791e-02 1.469747e-01 1.904317e-01 2.324901e-01 2.936064e-01 3.107408e-01 1.996148e-01 2.638747e-02 4.716486e-02 4.389854e-02 8.300463e-02 1.501465e-01 1.676292e-01 1.628532e-01 1.516525e-01 1.298779e-01 1.116316e-01 8.847740e-02 7.083224e-02 5.303930e-02 3.963929e-02 3.109389e-02 2.711240e-02 3.005881e-02 3.398940e-02 3.927810e-02 4.313149e-02 4.611107e-02 
5.155594e-02 5.140890e-02 4.942903e-02 4.628383e-02 4.151329e-02 3.649184e-02 3.160259e-02 2.917519e-02 3.329610e-02 4.169679e-02 5.813329e-02 7.559950e-02 9.812794e-02 1.207399e-01 1.405346e-01 1.579479e-01 1.603430e-01 1.669399e-01 1.246900e-01 2.722736e-02 8.053173e-02 8.930722e-02 1.603974e-01 1.928325e-01 1.912549e-01 1.790573e-01 1.368366e-01 8.841373e-02 2.995102e-02 2.708274e-02 5.994110e-02 7.949037e-02 8.832469e-02 8.199182e-02 6.435650e-02 2.945218e-02 1.462367e-02 7.948593e-02 1.431056e-01 1.934813e-01 2.184240e-01 2.096841e-01 2.369052e-01 1.369414e-01 5.601655e-02 9.448157e-02 4.985884e-02 1.577576e-01 1.698807e-01 1.697052e-01 1.573767e-01 1.355852e-01 1.144941e-01 8.827115e-02 6.792301e-02 4.813375e-02 3.341428e-02 2.600436e-02 2.455447e-02 3.055079e-02 3.638882e-02 4.255526e-02 4.703112e-02 5.018610e-02 
5.480122e-02 5.452260e-02 5.241147e-02 4.894248e-02 4.345615e-02 3.735801e-02 2.992546e-02 2.426837e-02 2.526673e-02 3.387046e-02 5.303826e-02 7.439584e-02 1.018222e-01 1.314108e-01 1.574648e-01 1.819956e-01 2.016204e-01 1.867816e-01 2.610457e-02 1.340216e-01 7.218755e-02 6.241878e-02 1.087113e-01 1.479971e-01 1.542856e-01 1.453430e-01 1.211436e-01 9.379301e-02 5.447087e-02 3.408060e-02 5.698736e-02 7.908449e-02 8.999987e-02 8.248728e-02 6.151045e-02 3.134753e-02 4.144640e-02 8.745108e-02 1.232308e-01 1.490272e-01 1.694638e-01 1.644707e-01 1.664364e-01 1.327341e-01 3.207503e-02 1.124545e-01 9.148705e-02 1.637825e-01 2.079834e-01 1.789815e-01 1.677564e-01 1.398301e-01 1.182698e-01 8.733420e-02 6.494534e-02 4.238765e-02 2.612388e-02 2.002089e-02 2.235170e-02 3.104356e-02 3.857283e-02 4.516769e-02 5.015814e-02 5.329465e-02 
5.689616e-02 5.656167e-02 5.440357e-02 5.083333e-02 4.487986e-02 3.815891e-02 2.851260e-02 1.957911e-02 1.595902e-02 2.636939e-02 5.067802e-02 7.616725e-02 1.107507e-01 1.449904e-01 1.775718e-01 2.033718e-01 2.339695e-01 9.687869e-02 1.513417e-01 5.148244e-02 3.775949e-02 5.944925e-02 1.041910e-01 1.382296e-01 1.464855e-01 1.414145e-01 1.167313e-01 9.081279e-02 6.326202e-02 4.997674e-02 5.503476e-02 6.179761e-02 6.712497e-02 6.262715e-02 5.469614e-02 4.874385e-02 5.887972e-02 8.950558e-02 1.201499e-01 1.494391e-01 1.642001e-01 1.627542e-01 1.513426e-01 1.183654e-01 1.859331e-02 2.908260e-02 1.912388e-01 5.013311e-02 2.254259e-01 2.184397e-01 1.911816e-01 1.585237e-01 1.312162e-01 9.287939e-02 6.624928e-02 3.893164e-02 1.899860e-02 1.280796e-02 2.026409e-02 3.115875e-02 4.009894e-02 4.687059e-02 5.222863e-02 5.529040e-02 
5.759408e-02 5.717874e-02 5.518317e-02 5.165024e-02 4.572131e-02 3.879733e-02 2.805455e-02 1.681318e-02 6.138822e-03 2.202224e-02 5.086374e-02 8.040497e-02 1.178303e-01 1.596214e-01 1.789231e-01 2.551256e-01 2.264621e-01 1.181193e-01 1.380405e-01 9.688003e-02 3.048660e-02 7.550991e-02 1.015364e-01 1.354942e-01 1.385489e-01 1.368992e-01 1.174083e-01 9.709608e-02 6.948597e-02 4.906754e-02 4.314619e-02 4.646562e-02 5.126345e-02 4.804901e-02 4.379277e-02 4.901394e-02 6.822877e-02 9.821593e-02 1.236998e-01 1.457840e-01 1.586339e-01 1.612398e-01 1.479427e-01 1.169260e-01 1.905655e-02 1.394750e-01 4.788620e-02 2.077240e-01 1.082247e-01 2.586798e-01 2.032794e-01 1.696023e-01 1.410419e-01 9.841047e-02 6.849300e-02 3.797490e-02 1.465059e-02 6.453295e-03 2.010101e-02 3.131552e-02 4.115893e-02 4.752804e-02 5.309383e-02 5.586691e-02 
5.690818e-02 5.649128e-02 5.481791e-02 5.160345e-02 4.619459e-02 3.967100e-02 2.923143e-02 1.790994e-02 5.237241e-03 2.236637e-02 5.489454e-02 8.665894e-02 1.318858e-01 1.764191e-01 2.000173e-01 2.925818e-01 6.490842e-02 2.211186e-01 7.433619e-02 1.534704e-01 4.265252e-02 7.638889e-02 1.092537e-01 1.313000e-01 1.349733e-01 1.305032e-01 1.116988e-01 9.226178e-02 6.760685e-02 4.837467e-02 3.536250e-02 2.959905e-02 3.056031e-02 3.086973e-02 3.607479e-02 4.971969e-02 6.924049e-02 9.529215e-02 1.193461e-01 1.405859e-01 1.545002e-01 1.544032e-01 1.445800e-01 1.022753e-01 4.834980e-02 1.035454e-01 1.730967e-01 1.611285e-01 1.284856e-01 2.486825e-01 2.465726e-01 1.727061e-01 1.583483e-01 1.042897e-01 7.367739e-02 3.948683e-02 1.631011e-02 6.299034e-03 2.193215e-02 3.176588e-02 4.176512e-02 4.731427e-02 5.277151e-02 5.513719e-02 
5.453337e-02 5.415236e-02 5.306798e-02 5.039916e-02 4.614146e-02 4.049315e-02 3.188385e-02 2.213839e-02 1.552400e-02 2.645297e-02 6.162653e-02 9.032498e-02 1.513335e-01 1.713748e-01 2.548560e-01 2.538665e-01 1.627382e-01 1.191974e-01 2.400325e-01 1.022796e-01 5.593492e-02 7.742684e-02 1.096107e-01 1.277289e-01 1.271504e-01 1.227399e-01 1.047553e-01 8.770695e-02 6.390304e-02 4.451843e-02 2.678428e-02 1.636619e-02 1.496949e-02 1.830470e-02 2.826817e-02 4.559189e-02 6.604565e-02 9.010252e-02 1.118764e-01 1.307437e-01 1.431489e-01 1.459941e-01 1.335787e-01 1.034635e-01 4.425408e-02 5.837126e-02 2.297760e-01 9.387381e-02 2.605326e-01 1.034016e-01 2.825128e-01 1.729663e-01 1.672514e-01 1.093992e-01 7.631780e-02 4.277569e-02 2.147242e-02 1.261845e-02 2.508528e-02 3.214940e-02 4.159129e-02 4.584244e-02 5.092854e-02 5.271817e-02 
5.073255e-02 5.047881e-02 5.021820e-02 4.844125e-02 4.599201e-02 4.179140e-02 3.632991e-02 2.851395e-02 2.569772e-02 3.020884e-02 6.381346e-02 8.818226e-02 1.565552e-01 1.543870e-01 2.756812e-01 1.376183e-01 2.476207e-01 1.501933e-01 2.422958e-01 3.899336e-02 1.997152e-02 8.343577e-02 1.028926e-01 1.217456e-01 1.173670e-01 1.121202e-01 9.430590e-02 7.863133e-02 5.722739e-02 4.057690e-02 2.322739e-02 1.055970e-02 1.818674e-03 1.261751e-02 2.531710e-02 4.179808e-02 6.015341e-02 8.086828e-02 1.013834e-01 1.187965e-01 1.325856e-01 1.362106e-01 1.288005e-01 1.054553e-01 4.686378e-02 1.989954e-02 1.883005e-01 2.743563e-01 1.846840e-01 1.070645e-01 2.698253e-01 1.942560e-01 1.554538e-01 1.121768e-01 7.267440e-02 4.551649e-02 2.738411e-02 2.103948e-02 2.980811e-02 3.365115e-02 4.129595e-02 4.381717e-02 4.796884e-02 4.901092e-02 
4.519330e-02 4.520864e-02 4.610609e-02 4.559687e-02 4.558043e-02 4.331250e-02 4.163330e-02 3.577209e-02 3.590870e-02 3.553651e-02 6.338826e-02 8.973669e-02 1.513681e-01 1.727630e-01 2.466239e-01 9.608968e-02 1.808818e-01 2.662625e-01 2.083449e-01 2.466069e-02 4.952351e-02 9.639559e-02 1.078968e-01 1.191065e-01 1.107317e-01 1.030614e-01 8.536445e-02 7.077150e-02 5.151429e-02 3.719865e-02 2.205146e-02 1.267110e-02 7.432647e-03 1.342001e-02 2.347105e-02 3.726966e-02 5.350990e-02 7.137304e-02 9.057032e-02 1.067488e-01 1.226406e-01 1.281478e-01 1.307658e-01 1.095627e-01 9.016968e-02 3.021235e-02 1.419180e-01 3.031149e-01 1.059897e-01 2.117597e-01 2.189793e-01 2.317350e-01 1.276593e-01 1.151189e-01 6.501388e-02 4.906796e-02 3.237515e-02 2.880922e-02 3.378573e-02 3.514793e-02 4.003742e-02 4.072394e-02 4.342767e-02 4.363210e-02 
3.837421e-02 3.881855e-02 4.117356e-02 4.237890e-02 4.513379e-02 4.528137e-02 4.708678e-02 4.349947e-02 4.473108e-02 4.034319e-02 5.516947e-02 8.347073e-02 1.200512e-01 2.020604e-01 2.044867e-01 1.424947e-01 9.472242e-02 2.715858e-01 1.865366e-01 8.405729e-02 1.157264e-01 1.202306e-01 1.257079e-01 1.214515e-01 1.095824e-01 9.616633e-02 7.830493e-02 6.291645e-02 4.590371e-02 3.353580e-02 2.168714e-02 1.541776e-02 1.231225e-02 1.552845e-02 2.241526e-02 3.302287e-02 4.691994e-02 6.254941e-02 8.144035e-02 9.795667e-02 1.175485e-01 1.272780e-01 1.412059e-01 1.303219e-01 1.347733e-01 9.656594e-02 1.272370e-01 2.773920e-01 1.827292e-01 2.390041e-01 1.692412e-01 2.223223e-01 9.177978e-02 1.048341e-01 5.169713e-02 5.014495e-02 3.589406e-02 3.680020e-02 3.778625e-02 3.773365e-02 3.879305e-02 3.757298e-02 3.802128e-02 3.718882e-02 
3.008341e-02 3.128845e-02 3.557685e-02 3.901864e-02 4.467716e-02 4.767078e-02 5.240450e-02 5.210348e-02 5.408898e-02 4.947975e-02 5.007421e-02 6.777708e-02 7.580016e-02 1.879655e-01 1.836049e-01 1.634190e-01 8.584261e-02 2.349703e-01 1.879273e-01 1.423582e-01 1.644628e-01 1.491684e-01 1.472794e-01 1.291548e-01 1.133455e-01 9.332766e-02 7.487419e-02 5.756738e-02 4.219671e-02 3.032927e-02 2.076764e-02 1.554180e-02 1.313021e-02 1.499303e-02 2.004757e-02 2.881695e-02 4.122558e-02 5.621256e-02 7.512727e-02 9.422965e-02 1.169884e-01 1.352964e-01 1.566147e-01 1.652169e-01 1.773446e-01 1.736073e-01 1.656798e-01 2.667711e-01 2.081345e-01 1.894278e-01 1.558503e-01 1.734500e-01 7.878528e-02 9.014599e-02 4.332169e-02 5.200816e-02 3.946166e-02 4.414242e-02 4.081369e-02 4.031361e-02 3.701131e-02 3.414023e-02 3.151387e-02 2.948042e-02 
2.090287e-02 2.336922e-02 3.010876e-02 3.606873e-02 4.421098e-02 4.991396e-02 5.657227e-02 5.973726e-02 6.203243e-02 6.098841e-02 5.375853e-02 6.059941e-02 4.397317e-02 1.431192e-01 1.602292e-01 1.581727e-01 8.970054e-02 2.167924e-01 1.936145e-01 1.937293e-01 2.027853e-01 1.818407e-01 1.694729e-01 1.416454e-01 1.208094e-01 9.462648e-02 7.475739e-02 5.463195e-02 3.995523e-02 2.729853e-02 1.891447e-02 1.328256e-02 1.089093e-02 1.208638e-02 1.645088e-02 2.482367e-02 3.656052e-02 5.228807e-02 7.153987e-02 9.430389e-02 1.191460e-01 1.462666e-01 1.708148e-01 1.967885e-01 2.081602e-01 2.310493e-01 2.017518e-01 2.691118e-01 1.615129e-01 1.373783e-01 1.618924e-01 1.205571e-01 6.529083e-02 6.336019e-02 3.061133e-02 5.042587e-02 4.126074e-02 4.928326e-02 4.291478e-02 4.249010e-02 3.538599e-02 3.116505e-02 2.489277e-02 2.123055e-02 
1.099238e-02 1.597741e-02 2.574468e-02 3.397885e-02 4.388217e-02 5.158705e-02 5.932437e-02 6.517318e-02 6.742859e-02 7.022476e-02 5.899447e-02 6.209966e-02 2.113526e-02 7.836966e-02 1.479951e-01 1.300196e-01 5.432218e-02 2.110248e-01 2.098356e-01 2.330565e-01 2.273285e-01 2.052044e-01 1.839968e-01 1.512218e-01 1.263283e-01 9.643049e-02 7.529563e-02 5.313472e-02 3.865389e-02 2.486103e-02 1.674207e-02 9.584642e-03 6.362392e-03 7.569994e-03 1.266991e-02 2.204695e-02 3.379931e-02 5.085899e-02 7.030977e-02 9.635441e-02 1.220428e-01 1.558939e-01 1.810244e-01 2.183080e-01 2.259889e-01 2.606713e-01 2.136284e-01 2.516353e-01 9.777782e-02 1.008723e-01 1.581811e-01 6.602622e-02 4.692638e-02 4.086678e-02 2.475719e-02 5.256206e-02 4.418735e-02 5.381282e-02 4.478334e-02 4.444332e-02 3.438635e-02 2.922214e-02 1.920453e-02 1.312430e-02 
3.329688e-03 1.247163e-02 2.405311e-02 3.325495e-02 4.376982e-02 5.223753e-02 6.032344e-02 6.728232e-02 6.958457e-02 7.436106e-02 6.228140e-02 6.693933e-02 1.770195e-02 3.395312e-02 1.361336e-01 1.125077e-01 1.810944e-02 2.015189e-01 2.093722e-01 2.432760e-01 2.337471e-01 2.129890e-01 1.890260e-01 1.551338e-01 1.288481e-01 9.775792e-02 7.609456e-02 5.313694e-02 3.858347e-02 2.421455e-02 1.600074e-02 7.673522e-03 2.598603e-03 4.140174e-03 1.054379e-02 2.070097e-02 3.258345e-02 5.025331e-02 6.983230e-02 9.708145e-02 1.231129e-01 1.592956e-01 1.847188e-01 2.258466e-01 2.324371e-01 2.708322e-01 2.180184e-01 2.446645e-01 5.702531e-02 8.462930e-02 1.609287e-01 2.589817e-02 3.860706e-02 2.834716e-02 2.140343e-02 5.193105e-02 4.429843e-02 5.448663e-02 4.488964e-02 4.466134e-02 3.373898e-02 2.828447e-02 1.662497e-02 8.570920e-03 
1.099238e-02 1.597741e-02 2.574468e-02 3.397885e-02 4.388217e-02 5.158705e-02 5.932437e-02 6.517318e-02 6.742859e-02 7.022476e-02 5.899447e-02 6.209966e-02 2.113526e-02 7.836966e-02 1.479951e-01 1.300196e-01 5.432218e-02 2.110248e-01 2.098356e-01 2.330565e-01 2.273285e-01 2.052044e-01 1.839968e-01 1.512218e-01 1.263283e-01 9.643049e-02 7.529563e-02 5.313472e-02 3.865389e-02 2.486103e-02 1.674207e-02 9.584642e-03 6.362392e-03 7.569994e-03 1.266991e-02 2.204695e-02 3.379931e-02 5.085899e-02 7.030977e-02 9.635441e-02 1.220428e-01 1.558939e-01 1.810244e-01 2.183080e-01 2.259889e-01 2.606713e-01 2.136284e-01 2.516353e-01 9.777782e-02 1.008723e-01 1.581811e-01 6.602622e-02 4.692638e-02 4.086678e-02 2.475719e-02 5.256206e-02 4.418735e-02 5.381282e-02 4.478334e-02 4.444332e-02 3.438635e-02 2.922214e-02 1.920453e-02 1.312430e-02 
2.090287e-02 2.336922e-02 3.010876e-02 3.606873e-02 4.421098e-02 4.991396e-02 5.657227e-02 5.973726e-02 6.203243e-02 6.098841e-02 5.375853e-02 6.059941e-02 4.397317e-02 1.431192e-01 1.602292e-01 1.581727e-01 8.970054e-02 2.167924e-01 1.936145e-01 1.937293e-01 2.027853e-01 1.818407e-01 1.694729e-01 1.416454e-01 1.208094e-01 9.462648e-02 7.475739e-02 5.463195e-02 3.995523e-02 2.729853e-02 1.891447e-02 1.328256e-02 1.089093e-02 1.208638e-02 1.645088e-02 2.482367e-02 3.656052e-02 5.228807e-02 7.153987e-02 9.430389e-02 1.191460e-01 1.462666e-01 1.708148e-01 1.967885e-01 2.081602e-01 2.310493e-01 2.017518e-01 2.691118e-01 1.615129e-01 1.373783e-01 1.618924e-01 1.205571e-01 6.529083e-02 6.336019e-02 3.061133e-02 5.042587e-02 4.126074e-02 4.928326e-02 4.291478e-02 4.249010e-02 3.538599e-02 3.116505e-02 2.489277e-02 2.123055e-02 