# vtk DataFile Version 2.0
Comment goes here
ASCII

DATASET STRUCTURED_POINTS
FIELD FieldData 1
TIME 1 1 double
1.44000000
DIMENSIONS    64   64   1

ORIGIN    0.000   0.000   0.000
SPACING   0.015625 0.015625   1.000

POINT_DATA   4096
SCALARS uMag double
LOOKUP_TABLE default

1.244730e-03 2.130066e-03 3.174566e-03 3.588380e-03 3.909179e-03 3.288611e-03 2.345480e-03 2.236932e-04 2.402055e-03 6.333423e-03 1.086948e-02 1.668871e-02 2.309409e-02 3.057300e-02 3.846258e-02 4.700188e-02 5.559904e-02 6.420898e-02 7.236779e-02 7.973886e-02 8.607757e-02 9.077117e-02 9.392041e-02 9.465380e-02 9.354750e-02 8.947792e-02 8.357218e-02 7.449649e-02 6.390079e-02 5.040134e-02 3.602248e-02 1.956836e-02 3.178758e-03 1.399403e-02 3.003495e-02 4.545138e-02 5.886729e-02 7.053590e-02 7.975191e-02 8.658008e-02 9.094612e-02 9.275732e-02 9.245350e-02 8.982440e-02 8.565896e-02 7.970197e-02 7.289386e-02 6.499373e-02 5.691299e-02 4.844795e-02 4.036102e-02 3.247831e-02 2.536707e-02 1.885862e-02 1.334030e-02 8.616402e-03 4.947125e-03 2.076212e-03 2.033940e-04 1.017844e-03 1.384883e-03 1.355854e-03 6.751934e-04 7.801645e-05 
1.742713e-03 2.536576e-03 3.524996e-03 3.934554e-03 4.299638e-03 3.819436e-03 3.242234e-03 2.507926e-03 3.715912e-03 7.012411e-03 1.130466e-02 1.690085e-02 2.313587e-02 3.039758e-02 3.807902e-02 4.634994e-02 5.467417e-02 6.295726e-02 7.077752e-02 7.778640e-02 8.375180e-02 8.810873e-02 9.093108e-02 9.146323e-02 9.022477e-02 8.625073e-02 8.061363e-02 7.212554e-02 6.242493e-02 5.027256e-02 3.786080e-02 2.499930e-02 1.708745e-02 2.120427e-02 3.254509e-02 4.555554e-02 5.744517e-02 6.806902e-02 7.662610e-02 8.308986e-02 8.735544e-02 8.925202e-02 8.918031e-02 8.688128e-02 8.308782e-02 7.754761e-02 7.112654e-02 6.363113e-02 5.588947e-02 4.776693e-02 3.994832e-02 3.232893e-02 2.541537e-02 1.909618e-02 1.372040e-02 9.139602e-03 5.604443e-03 2.959481e-03 1.547124e-03 1.411509e-03 1.469969e-03 1.416523e-03 9.512532e-04 9.769614e-04 
2.500683e-03 3.103182e-03 3.918105e-03 4.288884e-03 4.739814e-03 4.553345e-03 4.635794e-03 4.901943e-03 6.441099e-03 9.423158e-03 1.343878e-02 1.877350e-02 2.474729e-02 3.178409e-02 3.918261e-02 4.722285e-02 5.525843e-02 6.332412e-02 7.090621e-02 7.776667e-02 8.362482e-02 8.797543e-02 9.090685e-02 9.164385e-02 9.080035e-02 8.729759e-02 8.239085e-02 7.473922e-02 6.624720e-02 5.573159e-02 4.574079e-02 3.662969e-02 3.217118e-02 3.458673e-02 4.203414e-02 5.225969e-02 6.221651e-02 7.152330e-02 7.903658e-02 8.470495e-02 8.833081e-02 8.974030e-02 8.935265e-02 8.683703e-02 8.299539e-02 7.745715e-02 7.116299e-02 6.380698e-02 5.626761e-02 4.833965e-02 4.072146e-02 3.329003e-02 2.653188e-02 2.036172e-02 1.508786e-02 1.061995e-02 7.158332e-03 4.614531e-03 3.109235e-03 2.490518e-03 2.202805e-03 2.127556e-03 1.887749e-03 2.037258e-03 
3.763384e-03 4.302623e-03 4.995768e-03 5.351341e-03 5.929749e-03 6.084033e-03 6.760626e-03 7.639303e-03 9.542031e-03 1.243699e-02 1.626542e-02 2.121868e-02 2.677581e-02 3.326854e-02 4.004480e-02 4.735638e-02 5.456717e-02 6.173691e-02 6.834265e-02 7.423498e-02 7.910087e-02 8.261247e-02 8.480459e-02 8.517180e-02 8.429725e-02 8.139851e-02 7.779707e-02 7.235397e-02 6.708086e-02 6.078748e-02 5.566876e-02 5.146577e-02 4.959112e-02 5.061624e-02 5.362471e-02 5.877007e-02 6.414414e-02 6.984827e-02 7.476550e-02 7.881963e-02 8.165643e-02 8.289624e-02 8.285432e-02 8.098201e-02 7.801432e-02 7.346281e-02 6.817024e-02 6.183921e-02 5.520321e-02 4.815949e-02 4.123806e-02 3.446168e-02 2.815783e-02 2.238475e-02 1.732344e-02 1.299242e-02 9.492042e-03 6.777301e-03 4.867801e-03 3.714860e-03 3.045880e-03 2.944915e-03 2.916427e-03 3.291967e-03 
5.279668e-03 5.702586e-03 6.216789e-03 6.511907e-03 7.178542e-03 7.628486e-03 8.832634e-03 1.028180e-02 1.268909e-02 1.583182e-02 1.973233e-02 2.454721e-02 2.978928e-02 3.584873e-02 4.199691e-02 4.863556e-02 5.500490e-02 6.136870e-02 6.709829e-02 7.225862e-02 7.648755e-02 7.963565e-02 8.175882e-02 8.241900e-02 8.231445e-02 8.049170e-02 7.852479e-02 7.482950e-02 7.177224e-02 6.783344e-02 6.514667e-02 6.306752e-02 6.216325e-02 6.291034e-02 6.424239e-02 6.721650e-02 7.015056e-02 7.367580e-02 7.655841e-02 7.888585e-02 8.030730e-02 8.053772e-02 7.997961e-02 7.792718e-02 7.522258e-02 7.112003e-02 6.652023e-02 6.093205e-02 5.507717e-02 4.877740e-02 4.249810e-02 3.628108e-02 3.037100e-02 2.488683e-02 1.994467e-02 1.561956e-02 1.198878e-02 9.045986e-03 6.847848e-03 5.409024e-03 4.578490e-03 4.464258e-03 4.498357e-03 4.914374e-03 
7.268881e-03 7.699828e-03 8.137548e-03 8.420404e-03 9.177350e-03 9.873831e-03 1.152158e-02 1.344011e-02 1.636438e-02 1.983342e-02 2.398693e-02 2.878831e-02 3.386366e-02 3.948272e-02 4.496262e-02 5.067234e-02 5.583910e-02 6.078499e-02 6.483580e-02 6.823229e-02 7.054443e-02 7.197906e-02 7.250559e-02 7.225396e-02 7.189317e-02 7.106129e-02 7.144312e-02 7.162541e-02 7.369970e-02 7.534151e-02 7.757542e-02 7.913018e-02 7.965320e-02 7.966902e-02 7.799225e-02 7.636359e-02 7.371968e-02 7.182108e-02 7.023766e-02 6.970845e-02 6.978931e-02 6.989909e-02 7.022819e-02 6.956178e-02 6.862221e-02 6.639759e-02 6.359164e-02 5.975180e-02 5.531172e-02 5.031483e-02 4.492850e-02 3.946104e-02 3.392513e-02 2.865997e-02 2.365271e-02 1.912151e-02 1.511666e-02 1.172356e-02 9.056032e-03 7.238663e-03 6.211098e-03 6.132266e-03 6.291411e-03 6.863597e-03 
9.699061e-03 1.005705e-02 1.035085e-02 1.056185e-02 1.133564e-02 1.219977e-02 1.421279e-02 1.655710e-02 1.999011e-02 2.386339e-02 2.834513e-02 3.327909e-02 3.826798e-02 4.356964e-02 4.839929e-02 5.322884e-02 5.714937e-02 6.068370e-02 6.308170e-02 6.486921e-02 6.567967e-02 6.607537e-02 6.618151e-02 6.636638e-02 6.738211e-02 6.840688e-02 7.122435e-02 7.306925e-02 7.689111e-02 8.001332e-02 8.384498e-02 8.691709e-02 8.804910e-02 8.796953e-02 8.503474e-02 8.208550e-02 7.788403e-02 7.459480e-02 7.125865e-02 6.854281e-02 6.628269e-02 6.460833e-02 6.410636e-02 6.338422e-02 6.328655e-02 6.229444e-02 6.100873e-02 5.870333e-02 5.565059e-02 5.186662e-02 4.738804e-02 4.259693e-02 3.744805e-02 3.234924e-02 2.731747e-02 2.259576e-02 1.834143e-02 1.463649e-02 1.173864e-02 9.757444e-03 8.688560e-03 8.616001e-03 8.785530e-03 9.369029e-03 
1.270966e-02 1.309789e-02 1.332212e-02 1.349760e-02 1.426888e-02 1.523099e-02 1.753019e-02 2.022319e-02 2.418675e-02 2.852214e-02 3.353123e-02 3.881298e-02 4.406636e-02 4.936595e-02 5.394355e-02 5.816448e-02 6.104786e-02 6.308989e-02 6.340335e-02 6.262045e-02 6.023008e-02 5.728757e-02 5.388763e-02 5.169936e-02 5.165497e-02 5.409553e-02 6.066033e-02 6.841902e-02 7.893475e-02 8.828678e-02 9.655291e-02 1.025451e-01 1.046308e-01 1.039723e-01 9.854215e-02 9.142701e-02 8.124238e-02 7.106833e-02 6.124130e-02 5.429469e-02 5.029376e-02 4.921506e-02 5.123085e-02 5.367042e-02 5.696395e-02 5.916902e-02 6.044628e-02 6.040229e-02 5.883600e-02 5.628079e-02 5.239132e-02 4.798390e-02 4.278912e-02 3.749089e-02 3.203833e-02 2.681175e-02 2.201628e-02 1.780049e-02 1.452060e-02 1.234181e-02 1.125055e-02 1.131169e-02 1.160703e-02 1.234247e-02 
1.627722e-02 1.661249e-02 1.669840e-02 1.677640e-02 1.747140e-02 1.845766e-02 2.095877e-02 2.394630e-02 2.838685e-02 3.318717e-02 3.870334e-02 4.437820e-02 4.987773e-02 5.521264e-02 5.947149e-02 6.303523e-02 6.471663e-02 6.505869e-02 6.304941e-02 5.939435e-02 5.382270e-02 4.784451e-02 4.260007e-02 4.108726e-02 4.446801e-02 5.096631e-02 6.088167e-02 6.783986e-02 7.728250e-02 8.610864e-02 9.526872e-02 1.033250e-01 1.062325e-01 1.052420e-01 9.760842e-02 8.920926e-02 7.874984e-02 6.991092e-02 6.124910e-02 5.267489e-02 4.426726e-02 3.935488e-02 3.998376e-02 4.344803e-02 4.939081e-02 5.461881e-02 5.862204e-02 6.094278e-02 6.111727e-02 5.985707e-02 5.677458e-02 5.279969e-02 4.775898e-02 4.233938e-02 3.668019e-02 3.108353e-02 2.599610e-02 2.146542e-02 1.805801e-02 1.582827e-02 1.478469e-02 1.489981e-02 1.521417e-02 1.597296e-02 
2.053247e-02 2.090233e-02 2.088918e-02 2.087983e-02 2.144978e-02 2.235871e-02 2.494527e-02 2.809257e-02 3.297801e-02 3.822236e-02 4.439616e-02 5.063715e-02 5.676560e-02 6.256628e-02 6.716043e-02 7.079341e-02 7.215014e-02 7.168252e-02 6.806469e-02 6.184246e-02 5.220615e-02 4.038738e-02 2.694861e-02 1.879178e-02 2.441960e-02 3.738694e-02 5.530789e-02 7.102361e-02 8.565415e-02 9.816529e-02 1.075811e-01 1.157229e-01 1.181720e-01 1.168320e-01 1.082890e-01 9.838389e-02 8.406161e-02 6.894825e-02 5.188114e-02 3.553189e-02 2.113232e-02 1.562402e-02 2.392824e-02 3.520511e-02 4.662013e-02 5.600468e-02 6.245322e-02 6.672631e-02 6.775396e-02 6.710481e-02 6.395864e-02 5.979113e-02 5.422056e-02 4.820718e-02 4.187510e-02 3.561218e-02 2.997385e-02 2.502270e-02 2.143384e-02 1.925531e-02 1.838179e-02 1.876555e-02 1.925113e-02 2.019439e-02 
2.535048e-02 2.567988e-02 2.550362e-02 2.534918e-02 2.572330e-02 2.649200e-02 2.907586e-02 3.233294e-02 3.759781e-02 4.329410e-02 5.009806e-02 5.696478e-02 6.369518e-02 7.000524e-02 7.482484e-02 7.840631e-02 7.910625e-02 7.731462e-02 7.140734e-02 6.155024e-02 4.709472e-02 2.821629e-02 6.308672e-03 1.647633e-02 3.955578e-02 5.793458e-02 7.345834e-02 7.752737e-02 8.145396e-02 8.793718e-02 9.449140e-02 1.046178e-01 1.075917e-01 1.045645e-01 9.130461e-02 8.068667e-02 6.951921e-02 6.387507e-02 6.034421e-02 5.095738e-02 3.373260e-02 1.718351e-02 4.901121e-03 2.315444e-02 3.953660e-02 5.373140e-02 6.343489e-02 7.021687e-02 7.281457e-02 7.304896e-02 7.033308e-02 6.612035e-02 6.038462e-02 5.390658e-02 4.720898e-02 4.043368e-02 3.452616e-02 2.932400e-02 2.575647e-02 2.367514e-02 2.296101e-02 2.349402e-02 2.404855e-02 2.506156e-02 
3.090871e-02 3.126767e-02 3.093795e-02 3.062350e-02 3.072433e-02 3.121343e-02 3.362232e-02 3.675271e-02 4.225925e-02 4.822330e-02 5.567507e-02 6.314406e-02 7.071363e-02 7.778388e-02 8.338845e-02 8.763645e-02 8.871856e-02 8.707003e-02 8.057393e-02 6.969383e-02 5.355261e-02 3.506446e-02 2.959444e-02 4.664448e-02 7.288779e-02 9.398011e-02 1.232575e-01 1.423405e-01 1.399640e-01 1.315343e-01 1.138604e-01 1.057760e-01 9.977668e-02 9.791645e-02 9.568576e-02 1.053398e-01 1.124520e-01 1.168262e-01 1.069030e-01 8.312355e-02 6.312755e-02 4.970258e-02 3.396934e-02 3.526056e-02 4.599317e-02 6.034016e-02 7.071118e-02 7.855732e-02 8.131482e-02 8.162087e-02 7.831628e-02 7.348452e-02 6.688857e-02 5.957656e-02 5.212019e-02 4.468052e-02 3.838354e-02 3.302100e-02 2.959902e-02 2.790487e-02 2.758225e-02 2.854989e-02 2.934183e-02 3.059029e-02 
3.689552e-02 3.722572e-02 3.668370e-02 3.615836e-02 3.590420e-02 3.605033e-02 3.816651e-02 4.111049e-02 4.676193e-02 5.302399e-02 6.111272e-02 6.934652e-02 7.781695e-02 8.588900e-02 9.233517e-02 9.739017e-02 9.875747e-02 9.703237e-02 8.972512e-02 7.781376e-02 6.296695e-02 5.632116e-02 7.582454e-02 1.089862e-01 1.480512e-01 1.715714e-01 1.788456e-01 1.654425e-01 1.548668e-01 1.539132e-01 1.340137e-01 1.043126e-01 7.054030e-02 6.883798e-02 9.154194e-02 1.155061e-01 1.166686e-01 1.166187e-01 1.351012e-01 1.434951e-01 1.340596e-01 1.144577e-01 8.293839e-02 6.496637e-02 5.857769e-02 6.687595e-02 7.650307e-02 8.505952e-02 8.866699e-02 8.910664e-02 8.581906e-02 8.041072e-02 7.337673e-02 6.528832e-02 5.738978e-02 4.938201e-02 4.294719e-02 3.751974e-02 3.436120e-02 3.300357e-02 3.300762e-02 3.427653e-02 3.521886e-02 3.661002e-02 
4.356940e-02 4.391643e-02 4.315010e-02 4.238113e-02 4.168189e-02 4.132243e-02 4.293185e-02 4.534448e-02 5.087920e-02 5.702716e-02 6.558405e-02 7.421830e-02 8.354643e-02 9.238589e-02 9.981294e-02 1.058075e-01 1.080308e-01 1.074650e-01 1.011131e-01 9.242323e-02 8.319993e-02 9.257775e-02 1.293080e-01 1.752205e-01 2.143945e-01 2.396570e-01 3.002595e-01 3.340413e-01 3.000420e-01 2.514650e-01 1.814811e-01 1.104983e-01 4.136223e-02 5.176929e-02 1.174382e-01 1.915997e-01 2.485088e-01 2.749429e-01 2.763624e-01 2.244717e-01 1.847301e-01 1.684604e-01 1.316539e-01 1.010753e-01 8.233715e-02 7.930023e-02 8.509527e-02 9.307140e-02 9.635175e-02 9.672022e-02 9.260961e-02 8.642692e-02 7.841498e-02 6.943792e-02 6.089920e-02 5.243203e-02 4.599183e-02 4.089100e-02 3.835321e-02 3.781533e-02 3.845365e-02 4.033847e-02 4.158592e-02 4.326482e-02 
5.037390e-02 5.070756e-02 4.966477e-02 4.861710e-02 4.736598e-02 4.642661e-02 4.733042e-02 4.909268e-02 5.428938e-02 6.030978e-02 6.925400e-02 7.854104e-02 8.883881e-02 9.899560e-02 1.077484e-01 1.155065e-01 1.195085e-01 1.217079e-01 1.196052e-01 1.194069e-01 1.244603e-01 1.580985e-01 2.150798e-01 2.855933e-01 3.745831e-01 4.149872e-01 3.811424e-01 2.313691e-01 1.162194e-01 8.583422e-02 9.279525e-02 9.020119e-02 9.603787e-02 9.132612e-02 9.527790e-02 8.712954e-02 9.028009e-02 1.633824e-01 2.856854e-01 3.563144e-01 3.492967e-01 2.810177e-01 2.135521e-01 1.631720e-01 1.256825e-01 1.030990e-01 9.827168e-02 1.017199e-01 1.042239e-01 1.036615e-01 9.929105e-02 9.211212e-02 8.356287e-02 7.362878e-02 6.473024e-02 5.581418e-02 4.955820e-02 4.480509e-02 4.292718e-02 4.310384e-02 4.429699e-02 4.668357e-02 4.817876e-02 5.008742e-02 
5.766053e-02 5.799103e-02 5.664693e-02 5.527699e-02 5.339576e-02 5.172026e-02 5.170646e-02 5.240277e-02 5.690485e-02 6.214194e-02 7.113649e-02 8.028299e-02 9.119098e-02 1.016638e-01 1.112161e-01 1.196341e-01 1.250148e-01 1.301099e-01 1.335821e-01 1.448788e-01 1.616394e-01 2.229122e-01 3.051327e-01 3.870269e-01 3.131718e-01 9.065524e-02 1.281145e-01 2.370088e-01 1.851578e-01 1.265550e-01 7.026655e-02 3.451904e-02 1.550859e-02 8.402863e-03 3.160118e-02 8.433452e-02 1.590824e-01 2.218486e-01 1.989464e-01 6.276835e-02 1.374420e-01 2.860978e-01 2.835573e-01 2.094422e-01 1.636568e-01 1.244961e-01 1.090022e-01 1.079900e-01 1.084890e-01 1.076738e-01 1.023015e-01 9.444238e-02 8.506929e-02 7.440317e-02 6.526946e-02 5.638078e-02 5.082181e-02 4.720080e-02 4.657421e-02 4.807970e-02 5.013676e-02 5.330099e-02 5.514728e-02 5.737647e-02 
6.461225e-02 6.495205e-02 6.326877e-02 6.158139e-02 5.894312e-02 5.646851e-02 5.521924e-02 5.462858e-02 5.793242e-02 6.217326e-02 7.084064e-02 8.001908e-02 9.139011e-02 1.028600e-01 1.133799e-01 1.237365e-01 1.320981e-01 1.429042e-01 1.583969e-01 1.859296e-01 2.287833e-01 3.264855e-01 3.420559e-01 1.833596e-01 1.089725e-01 2.012268e-01 7.799848e-02 1.515992e-01 2.516511e-01 2.116223e-01 1.640051e-01 9.343815e-02 5.967150e-02 9.468194e-02 1.663591e-01 2.314242e-01 2.705063e-01 2.340097e-01 9.460228e-02 1.207689e-01 1.901767e-01 3.742057e-02 1.961673e-01 2.385209e-01 1.965480e-01 1.486175e-01 1.217976e-01 1.148718e-01 1.132783e-01 1.104952e-01 1.049457e-01 9.604149e-02 8.639209e-02 7.486532e-02 6.569073e-02 5.676966e-02 5.201307e-02 4.952799e-02 5.014585e-02 5.288503e-02 5.574795e-02 5.962357e-02 6.180183e-02 6.433910e-02 
7.166711e-02 7.197925e-02 6.992972e-02 6.787525e-02 6.443875e-02 6.104970e-02 5.841482e-02 5.613722e-02 5.786296e-02 6.026513e-02 6.823574e-02 7.628907e-02 8.765870e-02 9.829314e-02 1.086041e-01 1.179330e-01 1.266617e-01 1.385308e-01 1.610728e-01 1.878330e-01 2.479222e-01 2.257934e-01 3.489792e-02 1.599470e-01 1.139805e-01 1.393415e-01 2.998640e-01 2.857335e-01 2.330544e-01 2.132804e-01 1.895997e-01 1.681691e-01 1.628519e-01 1.679041e-01 1.940036e-01 2.189161e-01 2.515427e-01 2.950371e-01 3.313999e-01 2.801952e-01 8.036347e-02 1.314760e-01 7.783990e-02 1.103108e-01 1.760966e-01 1.502101e-01 1.209182e-01 1.151141e-01 1.104230e-01 1.073191e-01 1.005559e-01 9.137979e-02 8.168343e-02 6.988464e-02 6.134700e-02 5.336465e-02 5.046806e-02 5.034152e-02 5.291715e-02 5.746626e-02 6.133261e-02 6.606287e-02 6.858686e-02 7.143130e-02 
7.779027e-02 7.814285e-02 7.571981e-02 7.338251e-02 6.904268e-02 6.477427e-02 6.036880e-02 5.617038e-02 5.540699e-02 5.539385e-02 6.170545e-02 6.849913e-02 7.902423e-02 8.934416e-02 9.815500e-02 1.068466e-01 1.129837e-01 1.191822e-01 1.333599e-01 1.355089e-01 1.014446e-01 4.278709e-02 1.267782e-01 1.281663e-02 1.733135e-01 2.258788e-01 1.469539e-01 5.762816e-02 4.726912e-02 9.690812e-02 1.332439e-01 1.530305e-01 1.631164e-01 1.573792e-01 1.439205e-01 1.081182e-01 6.844511e-02 4.456248e-02 1.008496e-01 1.775016e-01 2.212658e-01 1.129360e-01 7.773202e-02 7.083848e-02 6.261422e-02 1.059973e-01 9.531506e-02 1.041005e-01 1.050543e-01 1.004689e-01 9.477412e-02 8.538345e-02 7.627962e-02 6.416761e-02 5.611316e-02 4.896380e-02 4.791614e-02 5.026648e-02 5.477026e-02 6.109014e-02 6.593257e-02 7.150491e-02 7.438737e-02 7.757227e-02 
8.349011e-02 8.379396e-02 8.098452e-02 7.831604e-02 7.309560e-02 6.791072e-02 6.171468e-02 5.536817e-02 5.180293e-02 4.848613e-02 5.299764e-02 5.746071e-02 6.746377e-02 7.573134e-02 8.280216e-02 8.777436e-02 8.523018e-02 7.701423e-02 4.999614e-02 2.448887e-02 2.880614e-02 4.550358e-02 3.445603e-02 1.291975e-01 1.266427e-01 1.054936e-01 8.249993e-02 3.042951e-02 5.339177e-02 1.209258e-01 1.666072e-01 1.917407e-01 2.021736e-01 1.951188e-01 1.756208e-01 1.328194e-01 7.174276e-02 1.302215e-02 7.812411e-02 1.057028e-01 1.080339e-01 1.258387e-01 6.462047e-02 5.080658e-02 2.916849e-02 3.831765e-02 3.139515e-02 7.959899e-02 8.307656e-02 8.192998e-02 7.753643e-02 6.952910e-02 6.284096e-02 5.124315e-02 4.526313e-02 4.063611e-02 4.322933e-02 4.951888e-02 5.642016e-02 6.472033e-02 7.049266e-02 7.681168e-02 7.995179e-02 8.335408e-02 
8.762222e-02 8.800257e-02 8.485400e-02 8.205745e-02 7.595680e-02 7.013189e-02 6.191345e-02 5.359267e-02 4.609251e-02 3.864176e-02 3.950669e-02 4.126048e-02 4.949780e-02 5.692422e-02 5.959794e-02 6.593429e-02 5.628126e-02 4.892332e-02 5.728523e-02 8.278200e-03 9.384004e-03 2.634279e-02 2.522880e-02 5.722165e-02 7.644810e-02 7.697743e-02 5.946641e-02 6.034075e-02 8.274206e-02 1.100161e-01 1.401284e-01 1.596691e-01 1.698052e-01 1.631234e-01 1.463268e-01 1.175765e-01 8.793575e-02 6.921700e-02 6.567437e-02 7.694514e-02 9.544409e-02 8.431973e-02 5.410427e-02 3.992497e-02 5.339015e-02 2.616595e-02 3.448728e-02 6.795887e-02 5.541995e-02 5.886597e-02 5.965969e-02 5.553106e-02 5.022237e-02 3.872784e-02 3.290059e-02 3.055865e-02 3.679443e-02 4.734892e-02 5.649488e-02 6.671831e-02 7.337797e-02 8.044034e-02 8.385198e-02 8.752882e-02 
9.074664e-02 9.107401e-02 8.761689e-02 8.466664e-02 7.781943e-02 7.144418e-02 6.142489e-02 5.137564e-02 3.992443e-02 2.780680e-02 2.463878e-02 2.445687e-02 3.360509e-02 4.146830e-02 4.372797e-02 5.378880e-02 7.117715e-02 1.037429e-01 6.693062e-03 6.246629e-02 7.471494e-02 9.194382e-02 7.862571e-02 9.656918e-02 9.720770e-02 9.865850e-02 8.672084e-02 7.334734e-02 8.238693e-02 1.081023e-01 1.379692e-01 1.573539e-01 1.669333e-01 1.611130e-01 1.447476e-01 1.173982e-01 8.901245e-02 7.866544e-02 9.034695e-02 1.062278e-01 1.131034e-01 1.045909e-01 9.556378e-02 6.583701e-02 1.232814e-01 1.045041e-02 3.103887e-02 1.265176e-01 1.030008e-01 5.194566e-02 4.227836e-02 3.764174e-02 3.449099e-02 2.157524e-02 1.631586e-02 1.968449e-02 3.161854e-02 4.657264e-02 5.747303e-02 6.902684e-02 7.620883e-02 8.360664e-02 8.707986e-02 9.077934e-02 
9.176806e-02 9.220305e-02 8.856600e-02 8.579026e-02 7.840914e-02 7.209034e-02 6.055379e-02 5.003746e-02 3.466860e-02 1.993920e-02 6.699312e-03 1.210846e-02 2.133840e-02 3.381392e-02 3.493275e-02 6.242176e-02 1.549198e-01 9.562093e-02 9.279651e-02 6.961671e-02 1.943485e-01 1.033195e-01 1.080553e-01 1.154405e-01 1.218827e-01 1.160515e-01 1.084277e-01 9.934682e-02 9.840543e-02 1.016101e-01 1.135558e-01 1.219400e-01 1.282816e-01 1.250876e-01 1.182099e-01 1.081128e-01 1.020490e-01 1.037519e-01 1.107096e-01 1.188076e-01 1.262659e-01 1.229207e-01 1.088962e-01 9.049484e-02 1.627760e-01 1.424994e-01 8.477595e-02 1.301986e-02 1.722665e-01 1.135079e-01 6.535761e-02 5.271684e-02 4.001420e-02 2.322628e-02 9.299420e-03 1.232318e-02 2.719459e-02 4.508768e-02 5.703666e-02 6.951508e-02 7.703652e-02 8.465405e-02 8.813920e-02 9.188766e-02 
9.127483e-02 9.168285e-02 8.798781e-02 8.542668e-02 7.785719e-02 7.185638e-02 5.951435e-02 4.948138e-02 3.222198e-02 2.143936e-02 1.244957e-02 2.988821e-02 3.538713e-02 6.139823e-02 5.757525e-02 1.300093e-01 1.997687e-01 7.178772e-02 4.440790e-02 2.429044e-01 1.724387e-01 1.206561e-01 1.197642e-01 1.296006e-01 1.276836e-01 1.224964e-01 1.087200e-01 9.426719e-02 8.628731e-02 8.671846e-02 9.703778e-02 1.049241e-01 1.108973e-01 1.082372e-01 1.020972e-01 9.358510e-02 9.037260e-02 9.726502e-02 1.105579e-01 1.241303e-01 1.329237e-01 1.315711e-01 1.239182e-01 1.167401e-01 1.453913e-01 2.575309e-01 1.033442e-01 1.302352e-01 9.229923e-02 1.933767e-01 7.473664e-02 6.767365e-02 4.821227e-02 3.486172e-02 2.305729e-02 2.132167e-02 3.087778e-02 4.694082e-02 5.849815e-02 7.045203e-02 7.773776e-02 8.489226e-02 8.810796e-02 9.155745e-02 
8.838459e-02 8.891614e-02 8.539679e-02 8.345131e-02 7.621479e-02 7.130565e-02 5.919039e-02 5.135191e-02 3.518918e-02 3.255627e-02 2.943971e-02 4.918578e-02 5.107204e-02 8.750422e-02 6.479299e-02 2.085980e-01 8.057817e-02 1.590115e-01 1.791787e-01 3.035370e-01 1.545911e-01 1.323093e-01 1.239955e-01 1.298007e-01 1.291943e-01 1.219785e-01 1.098235e-01 9.586957e-02 8.423538e-02 7.551865e-02 7.478954e-02 7.474969e-02 7.787895e-02 7.727102e-02 7.808860e-02 7.978162e-02 8.632345e-02 9.734588e-02 1.105414e-01 1.223607e-01 1.317273e-01 1.315061e-01 1.294104e-01 1.159165e-01 1.509985e-01 2.216348e-01 3.100494e-01 3.972277e-02 8.493318e-02 2.347970e-01 1.318574e-01 9.593902e-02 7.690231e-02 5.534498e-02 4.456823e-02 3.561386e-02 3.907012e-02 4.985777e-02 5.979896e-02 7.016858e-02 7.672755e-02 8.302792e-02 8.576169e-02 8.882655e-02 
8.367926e-02 8.424694e-02 8.118019e-02 8.000917e-02 7.381756e-02 7.038215e-02 5.993805e-02 5.481096e-02 4.262098e-02 4.490324e-02 4.712138e-02 6.599734e-02 7.391507e-02 1.090878e-01 1.009363e-01 2.309640e-01 9.336205e-02 3.745585e-02 3.709323e-01 2.426274e-01 1.511756e-01 1.069616e-01 1.205045e-01 1.204801e-01 1.194326e-01 1.113056e-01 9.671947e-02 8.173718e-02 6.746097e-02 5.810630e-02 5.675445e-02 5.706994e-02 6.023569e-02 5.960304e-02 6.020584e-02 6.201103e-02 6.926735e-02 8.200992e-02 9.652312e-02 1.107580e-01 1.200324e-01 1.235004e-01 1.201398e-01 1.098812e-01 1.394353e-01 1.626917e-01 3.623215e-01 1.592995e-01 1.805737e-01 1.352936e-01 1.847766e-01 8.903386e-02 9.770990e-02 6.376292e-02 6.019222e-02 4.670319e-02 4.934927e-02 5.449213e-02 6.258482e-02 7.010434e-02 7.540811e-02 8.010777e-02 8.203090e-02 8.433506e-02 
7.659782e-02 7.729996e-02 7.504164e-02 7.504833e-02 7.076093e-02 6.933877e-02 6.197799e-02 5.939693e-02 5.187621e-02 5.425296e-02 6.046802e-02 7.087110e-02 9.213430e-02 9.762063e-02 1.405555e-01 1.576641e-01 1.844019e-01 1.523430e-01 4.034590e-01 1.534685e-01 1.224084e-01 8.068648e-02 9.838250e-02 1.058672e-01 1.034009e-01 9.825876e-02 8.469878e-02 7.243835e-02 5.807213e-02 4.694822e-02 4.006443e-02 3.590839e-02 3.700783e-02 3.775008e-02 4.228572e-02 4.896265e-02 5.901021e-02 7.213354e-02 8.493372e-02 9.822105e-02 1.057167e-01 1.113726e-01 1.029929e-01 9.763364e-02 9.194952e-02 1.220537e-01 3.156258e-01 3.388472e-01 1.230120e-01 1.206644e-02 1.993238e-01 8.575155e-02 1.129235e-01 7.270206e-02 7.505006e-02 5.865766e-02 6.119143e-02 6.083248e-02 6.632036e-02 6.999465e-02 7.320963e-02 7.565350e-02 7.627815e-02 7.755657e-02 
6.768150e-02 6.853440e-02 6.758428e-02 6.908606e-02 6.777618e-02 6.862135e-02 6.583648e-02 6.502343e-02 6.284107e-02 6.196405e-02 7.094024e-02 6.795463e-02 9.788117e-02 6.724723e-02 1.399907e-01 4.778259e-02 1.575381e-01 3.141996e-01 3.398725e-01 7.747182e-02 5.540966e-02 6.491098e-02 7.561029e-02 9.319724e-02 8.555409e-02 8.266170e-02 6.726318e-02 5.669315e-02 4.186543e-02 3.243261e-02 2.605735e-02 2.343531e-02 2.494832e-02 2.526063e-02 2.844000e-02 3.372569e-02 4.230279e-02 5.474623e-02 6.643356e-02 7.991329e-02 8.668517e-02 9.349410e-02 8.292705e-02 7.452187e-02 3.234988e-02 7.668749e-02 2.232179e-01 3.896517e-01 1.680002e-02 8.900876e-02 1.863343e-01 1.040562e-01 1.121678e-01 7.875567e-02 8.116756e-02 6.691461e-02 6.991722e-02 6.679468e-02 6.992086e-02 6.989559e-02 7.053498e-02 7.023504e-02 6.911188e-02 6.900765e-02 
5.671934e-02 5.777730e-02 5.864994e-02 6.207204e-02 6.463610e-02 6.791982e-02 7.026122e-02 7.075714e-02 7.311049e-02 6.899363e-02 7.752325e-02 6.531021e-02 9.151860e-02 5.849123e-02 1.317634e-01 7.338490e-03 9.244102e-02 3.305735e-01 2.533320e-01 4.576262e-02 3.328798e-02 6.478268e-02 6.593786e-02 8.195064e-02 7.046615e-02 6.806451e-02 5.301293e-02 4.515699e-02 3.189187e-02 2.436623e-02 1.625151e-02 1.193754e-02 1.192256e-02 1.340129e-02 1.827623e-02 2.483773e-02 3.260550e-02 4.333312e-02 5.321576e-02 6.541060e-02 7.345501e-02 8.089534e-02 7.816477e-02 6.627223e-02 3.855706e-02 3.471334e-02 1.463846e-01 3.627564e-01 1.183886e-01 1.326527e-01 1.205215e-01 1.157487e-01 8.873736e-02 7.976678e-02 8.125854e-02 7.537977e-02 7.780105e-02 7.427533e-02 7.415132e-02 7.080670e-02 6.792203e-02 6.440210e-02 6.069346e-02 5.871235e-02 
4.421013e-02 4.570701e-02 4.928546e-02 5.514702e-02 6.232829e-02 6.806595e-02 7.550209e-02 7.728900e-02 8.364805e-02 7.786484e-02 8.543091e-02 6.823081e-02 8.571827e-02 6.089338e-02 1.093204e-01 2.116110e-02 6.025070e-02 2.662585e-01 2.081075e-01 7.860872e-02 9.365704e-02 8.595156e-02 8.493713e-02 8.176580e-02 6.781714e-02 5.865062e-02 4.288908e-02 3.371406e-02 2.103575e-02 1.491682e-02 7.810912e-03 5.785385e-03 6.502380e-03 7.178667e-03 9.869770e-03 1.431715e-02 2.037827e-02 3.009483e-02 4.056260e-02 5.364644e-02 6.671721e-02 7.808193e-02 8.931901e-02 8.651341e-02 9.205018e-02 7.229944e-02 1.131709e-01 2.777489e-01 1.707611e-01 1.238160e-01 7.639592e-02 1.086742e-01 5.969078e-02 7.682808e-02 7.875983e-02 8.229917e-02 8.308183e-02 8.064342e-02 7.715907e-02 7.150684e-02 6.492535e-02 5.825752e-02 5.139443e-02 4.709292e-02 
3.029612e-02 3.242978e-02 3.971016e-02 4.839890e-02 6.013859e-02 6.799708e-02 7.960412e-02 8.258926e-02 9.210231e-02 8.615670e-02 9.332424e-02 7.463947e-02 8.282787e-02 6.060243e-02 8.016678e-02 2.647338e-02 5.389156e-02 1.865166e-01 1.653912e-01 1.062774e-01 1.353305e-01 1.108220e-01 1.085936e-01 8.676193e-02 7.197627e-02 5.324974e-02 3.838902e-02 2.610840e-02 1.573924e-02 1.020584e-02 4.325970e-03 2.299033e-03 1.915246e-03 3.627512e-03 6.130268e-03 9.531934e-03 1.415010e-02 2.240919e-02 3.364348e-02 4.782041e-02 6.569420e-02 8.265770e-02 1.031610e-01 1.146425e-01 1.284746e-01 1.289053e-01 1.214888e-01 2.131750e-01 1.540102e-01 9.910952e-02 6.683593e-02 9.728035e-02 5.188748e-02 8.397280e-02 8.155623e-02 9.163512e-02 8.871048e-02 8.754672e-02 8.046924e-02 7.324241e-02 6.297806e-02 5.336127e-02 4.262452e-02 3.505582e-02 
1.547006e-02 1.966451e-02 3.241898e-02 4.391352e-02 5.922317e-02 6.858366e-02 8.290812e-02 8.693003e-02 9.842635e-02 9.341174e-02 1.004797e-01 8.333435e-02 8.453551e-02 5.993861e-02 5.109828e-02 1.592613e-02 6.137333e-02 9.080123e-02 1.362021e-01 1.218043e-01 1.580050e-01 1.282996e-01 1.260590e-01 9.408879e-02 7.933205e-02 5.348990e-02 3.945315e-02 2.278584e-02 1.404407e-02 6.194212e-03 2.556740e-03 5.100092e-04 1.279840e-03 1.424006e-03 1.955692e-03 4.261930e-03 9.740773e-03 1.882122e-02 3.238637e-02 4.891420e-02 7.029834e-02 9.276772e-02 1.175304e-01 1.403562e-01 1.541067e-01 1.678135e-01 1.309623e-01 1.587422e-01 1.087259e-01 6.103835e-02 4.508748e-02 1.022410e-01 5.871339e-02 9.709844e-02 8.563427e-02 9.890780e-02 9.198718e-02 9.172270e-02 8.193378e-02 7.390374e-02 6.103679e-02 4.939733e-02 3.521402e-02 2.377082e-02 
2.026009e-03 1.200442e-02 2.903649e-02 4.183540e-02 5.852278e-02 6.841980e-02 8.372700e-02 8.812016e-02 1.004544e-01 9.590141e-02 1.034631e-01 8.750702e-02 8.751813e-02 6.244351e-02 3.380915e-02 7.840791e-03 6.199382e-02 5.804584e-03 1.196063e-01 1.240242e-01 1.633779e-01 1.336643e-01 1.312562e-01 9.604071e-02 8.113509e-02 5.262808e-02 3.895046e-02 2.063354e-02 1.289535e-02 4.186240e-03 2.321253e-03 2.439619e-04 1.346427e-03 1.436176e-03 1.192964e-03 1.337970e-03 7.133579e-03 1.607249e-02 3.013683e-02 4.723788e-02 6.961097e-02 9.391277e-02 1.198592e-01 1.466490e-01 1.600267e-01 1.787209e-01 1.330857e-01 1.322110e-01 8.052190e-02 2.770425e-02 3.085960e-02 1.038283e-01 6.177624e-02 1.024446e-01 8.773242e-02 1.020350e-01 9.372582e-02 9.378919e-02 8.303234e-02 7.473634e-02 6.089333e-02 4.847524e-02 3.272574e-02 1.873904e-02 
1.547006e-02 1.966451e-02 3.241898e-02 4.391352e-02 5.922317e-02 6.858366e-02 8.290812e-02 8.693003e-02 9.842635e-02 9.341174e-02 1.004797e-01 8.333435e-02 8.453551e-02 5.993861e-02 5.109828e-02 1.592613e-02 6.137333e-02 9.080123e-02 1.362021e-01 1.218043e-01 1.580050e-01 1.282996e-01 1.260590e-01 9.408879e-02 7.933205e-02 5.348990e-02 3.945315e-02 2.278584e-02 1.404407e-02 6.194212e-03 2.556740e-03 5.100092e-04 1.279840e-03 1.424006e-03 1.955692e-03 4.261930e-03 9.740773e-03 1.882122e-02 3.238637e-02 4.891420e-02 7.029834e-02 9.276772e-02 1.175304e-01 1.403562e-01 1.541067e-01 1.678135e-01 1.309623e-01 1.587422e-01 1.087259e-01 6.103835e-02 4.508748e-02 1.022410e-01 5.871339e-02 9.709844e-02 8.563427e-02 9.890780e-02 9.198718e-02 9.172270e-02 8.193378e-02 7.390374e-02 6.103679e-02 4.939733e-02 3.521402e-02 2.377082e-02 
3.029612e-02 3.242978e-02 3.971016e-02 4.839890e-02 6.013859e-02 6.799708e-02 7.960412e-02 8.258926e-02 9.210231e-02 8.615670e-02 9.332424e-02 7.463947e-02 8.282787e-02 6.060243e-02 8.016678e-02 2.647338e-02 5.389156e-02 1.865166e-01 1.653912e-01 1.062774e-01 1.353305e-01 1.108220e-01 1.085936e-01 8.676193e-02 7.197627e-02 5.324974e-02 3.838902e-02 2.610840e-02 1.573924e-02 1.020584e-02 4.325970e-03 2.299033e-03 1.915246e-03 3.627512e-03 6.130268e-03 9.531934e-03 1.415010e-02 2.240919e-02 3.364348e-02 4.782041e-02 6.569420e-02 8.265770e-02 1.031610e-01 1.146425e-01 1.284746e-01 1.289053e-01 1.214888e-01 2.131750e-01 1.540102e-01 9.910952e-02 6.683593e-02 9.728035e-02 5.188748e-02 8.397280e-02 8.155623e-02 9.163512e-02 8.871048e-02 8.754672e-02 8.046924e-02 7.324241e-02 6.297806e-02 5.336127e-02 4.262452e-02 3.505582e-02 