# vtk DataFile Version 2.0
Comment goes here
ASCII

DATASET STRUCTURED_POINTS
DIMENSIONS    64   64   1

ORIGIN    0.000   0.000   0.000
SPACING   0.0158730.015873   1.000

POINT_DATA   4096
SCALARS Concentration double
LOOKUP_TABLE default

1.098675e-05 1.020406e-05 1.068744e-05 1.374619e-05 2.099684e-05 3.400017e-05 5.379069e-05 8.046460e-05 1.129772e-04 1.492200e-04 1.863473e-04 2.212499e-04 2.510469e-04 2.734855e-04 2.871825e-04 2.916926e-04 2.874272e-04 2.754714e-04 2.573515e-04 2.348012e-04 2.095575e-04 1.832083e-04 1.570938e-04 1.322604e-04 1.094573e-04 8.916312e-05 7.163356e-05 5.695824e-05 4.512107e-05 3.605786e-05 2.970942e-05 2.609939e-05 2.592071e-05 3.042359e-05 4.035493e-05 5.646218e-05 7.933846e-05 1.092251e-04 1.458056e-04 1.880367e-04 2.340674e-04 2.812864e-04 3.265135e-04 3.663222e-04 3.974458e-04 4.171975e-04 4.238277e-04 4.167547e-04 3.966300e-04 3.652345e-04 3.252307e-04 2.798214e-04 2.323681e-04 1.860259e-04 1.434378e-04 1.065196e-04 7.635276e-05 5.319109e-05 3.657152e-05 2.550717e-05 1.872776e-05 1.492486e-05 1.296859e-05 1.219116e-05 
1.083764e-05 9.955896e-06 1.086285e-05 1.542159e-05 2.582259e-05 4.401857e-05 7.106899e-05 1.066498e-04 1.489136e-04 1.947410e-04 2.402856e-04 2.816404e-04 3.154475e-04 3.393293e-04 3.520868e-04 3.536784e-04 3.450347e-04 3.277804e-04 3.039313e-04 2.756168e-04 2.448605e-04 2.134300e-04 1.827535e-04 1.538936e-04 1.275629e-04 1.041667e-04 8.386031e-05 6.660981e-05 5.225091e-05 4.054060e-05 3.120107e-05 2.396251e-05 1.868509e-05 1.550040e-05 1.465190e-05 1.651397e-05 2.156051e-05 3.029441e-05 4.313773e-05 6.029423e-05 8.160761e-05 1.064480e-04 1.336607e-04 1.616029e-04 1.882781e-04 2.115529e-04 2.294251e-04 2.402916e-04 2.431693e-04 2.378274e-04 2.248098e-04 2.053500e-04 1.811956e-04 1.543768e-04 1.269559e-04 1.007926e-04 7.735743e-05 5.761361e-05 4.197901e-05 3.036909e-05 2.230761e-05 1.708340e-05 1.393526e-05 1.225409e-05 
1.072879e-05 1.006742e-05 1.225470e-05 1.993601e-05 3.598782e-05 6.263097e-05 1.005580e-04 1.484404e-04 2.030006e-04 2.595979e-04 3.131076e-04 3.588211e-04 3.931461e-04 4.139928e-04 4.208341e-04 4.145097e-04 3.968724e-04 3.703804e-04 3.377130e-04 3.014613e-04 2.639126e-04 2.269296e-04 1.919076e-04 1.597908e-04 1.311261e-04 1.061361e-04 8.479658e-05 6.691070e-05 5.217279e-05 4.022018e-05 3.067270e-05 2.316170e-05 1.735422e-05 1.302298e-05 1.005028e-05 8.426898e-06 8.260187e-06 9.765843e-06 1.323714e-05 1.898801e-05 2.727174e-05 3.818533e-05 5.157700e-05 6.697942e-05 8.359041e-05 1.003150e-04 1.158699e-04 1.289377e-04 1.383418e-04 1.432129e-04 1.431120e-04 1.380914e-04 1.286813e-04 1.158087e-04 1.006651e-04 8.454518e-05 6.868287e-05 5.410962e-05 4.155412e-05 3.139647e-05 2.368090e-05 1.818332e-05 1.453767e-05 1.236390e-05 
1.051795e-05 1.033878e-05 1.460863e-05 2.698854e-05 5.108570e-05 8.913648e-05 1.409455e-04 2.035427e-04 2.716655e-04 3.388364e-04 3.986403e-04 4.458272e-04 4.770071e-04 4.908726e-04 4.880207e-04 4.705139e-04 4.413323e-04 4.038412e-04 3.613530e-04 3.168196e-04 2.726559e-04 2.306748e-04 1.921051e-04 1.576611e-04 1.276388e-04 1.020184e-04 8.056097e-05 6.289059e-05 4.856071e-05 3.710315e-05 2.806235e-05 2.101689e-05 1.558803e-05 1.146593e-05 8.415186e-06 6.272386e-06 4.954266e-06 4.462519e-06 4.881923e-06 6.367239e-06 9.114823e-06 1.331750e-05 1.910598e-05 2.648553e-05 3.528140e-05 4.510805e-05 5.537440e-05 6.533076e-05 7.415322e-05 8.105203e-05 8.538398e-05 8.674724e-05 8.504056e-05 8.047637e-05 7.354637e-05 6.494702e-05 5.547863e-05 4.593575e-05 3.700660e-05 2.919780e-05 2.279589e-05 1.787534e-05 1.438537e-05 1.240186e-05 
1.014802e-05 1.086394e-05 1.834606e-05 3.751161e-05 7.261174e-05 1.254060e-04 1.940454e-04 2.731449e-04 3.549343e-04 4.309718e-04 4.938175e-04 5.382209e-04 5.616434e-04 5.641646e-04 5.479603e-04 5.165774e-04 4.741988e-04 4.250262e-04 3.728402e-04 3.207458e-04 2.710750e-04 2.254052e-04 1.846508e-04 1.491905e-04 1.190027e-04 9.379097e-05 7.309121e-05 5.635521e-05 4.301216e-05 3.251049e-05 2.434363e-05 1.806339e-05 1.328307e-05 9.683163e-06 7.007411e-06 5.057268e-06 3.691502e-06 2.826590e-06 2.437275e-06 2.555279e-06 3.263081e-06 4.679460e-06 6.934673e-06 1.013580e-05 1.432635e-05 1.944785e-05 2.531297e-05 3.159938e-05 3.786984e-05 4.361831e-05 4.833541e-05 5.158142e-05 5.305266e-05 5.262827e-05 5.038830e-05 4.660013e-05 4.167603e-05 3.611012e-05 3.040622e-05 2.500945e-05 2.025453e-05 1.634746e-05 1.344817e-05 1.224850e-05 
9.591279e-06 1.182811e-05 2.411056e-05 5.280932e-05 1.024987e-04 1.736371e-04 2.616922e-04 3.580227e-04 4.519864e-04 5.333674e-04 5.943243e-04 6.304396e-04 6.408400e-04 6.276208e-04 5.949032e-04 5.478264e-04 4.916779e-04 4.312675e-04 3.705589e-04 3.125252e-04 2.591685e-04 2.116398e-04 1.704080e-04 1.354388e-04 1.063584e-04 8.259117e-05 6.346480e-05 4.828689e-05 3.639494e-05 2.718636e-05 2.013307e-05 1.478572e-05 1.077158e-05 7.787224e-06 5.589143e-06 3.987406e-06 2.839346e-06 2.044721e-06 1.542796e-06 1.310876e-06 1.362990e-06 1.746604e-06 2.535005e-06 3.813461e-06 5.658817e-06 8.114417e-06 1.116470e-05 1.471550e-05 1.858633e-05 2.251885e-05 2.620268e-05 2.931510e-05 3.156768e-05 3.275075e-05 3.276679e-05 3.164602e-05 2.954100e-05 2.670144e-05 2.343425e-05 2.005630e-05 1.685060e-05 1.404572e-05 1.192240e-05 1.180438e-05 
8.843040e-06 1.350842e-05 3.276941e-05 7.450576e-05 1.429206e-04 2.359361e-04 3.450857e-04 4.577171e-04 5.603009e-04 6.414982e-04 6.941010e-04 7.156081e-04 7.076818e-04 6.749557e-04 6.236613e-04 5.604056e-04 4.912752e-04 4.213047e-04 3.542625e-04 2.926686e-04 2.379536e-04 1.906835e-04 1.507958e-04 1.178133e-04 9.101963e-05 6.959200e-05 5.269428e-05 3.953653e-05 2.940867e-05 2.169547e-05 1.587903e-05 1.153367e-05 8.318790e-06 5.961951e-06 4.246852e-06 3.007841e-06 2.120636e-06 1.494825e-06 1.068483e-06 8.048766e-07 6.907999e-07 7.355805e-07 9.693504e-07 1.438935e-06 2.199981e-06 3.304811e-06 4.786936e-06 6.644744e-06 8.828158e-06 1.123234e-05 1.370156e-05 1.604425e-05 1.805753e-05 1.955693e-05 2.040547e-05 2.053621e-05 1.996335e-05 1.877967e-05 1.714064e-05 1.523856e-05 1.327366e-05 1.144331e-05 1.008201e-05 1.099228e-05 
7.913706e-06 1.629296e-05 4.545065e-05 1.045313e-04 1.961356e-04 3.139697e-04 4.443025e-04 5.700410e-04 6.753224e-04 7.489060e-04 7.856365e-04 7.861328e-04 7.553487e-04 7.007189e-04 6.304408e-04 5.521881e-04 4.723379e-04 3.956515e-04 3.252863e-04 2.630060e-04 2.094812e-04 1.646013e-04 1.277525e-04 9.804319e-05 7.446855e-05 5.602393e-05 4.177398e-05 3.088950e-05 2.266156e-05 1.650094e-05 1.192899e-05 8.564572e-06 6.112790e-06 4.341662e-06 3.069404e-06 2.160197e-06 1.513922e-06 1.057969e-06 7.411461e-07 5.295632e-07 4.042337e-07 3.599677e-07 4.048732e-07 5.595252e-07 8.547179e-07 1.326862e-06 2.010626e-06 2.929311e-06 4.084521e-06 5.447511e-06 6.954864e-06 8.510606e-06 9.995513e-06 1.128261e-05 1.225621e-05 1.283063e-05 1.296476e-05 1.266918e-05 1.200418e-05 1.106931e-05 9.988439e-06 8.910987e-06 8.173299e-06 9.745854e-06 
6.819532e-06 2.070826e-05 6.357962e-05 1.450683e-04 2.642434e-04 4.085369e-04 5.578066e-04 6.907278e-04 7.904238e-04 8.475596e-04 8.606904e-04 8.346606e-04 7.781466e-04 7.012404e-04 6.135913e-04 5.232720e-04 4.362965e-04 3.566168e-04 2.864007e-04 2.264333e-04 1.765309e-04 1.359038e-04 1.034429e-04 7.792533e-05 5.815004e-05 4.301705e-05 3.156643e-05 2.298976e-05 1.662486e-05 1.194130e-05 8.522024e-06 6.044596e-06 4.267347e-06 3.003121e-06 2.107194e-06 1.474281e-06 1.028520e-06 7.157671e-07 4.979215e-07 3.489666e-07 2.524658e-07 2.002290e-07 1.918188e-07 2.344362e-07 3.425771e-07 5.367674e-07 8.407786e-07 1.277062e-06 1.860723e-06 2.593026e-06 3.455971e-06 4.409651e-06 5.393737e-06 6.333566e-06 7.150181e-06 7.772542e-06 8.149435e-06 8.258478e-06 8.110177e-06 7.746221e-06 7.234315e-06 6.677326e-06 6.364857e-06 7.992810e-06 
5.573235e-06 2.745722e-05 8.890494e-05 1.984312e-04 3.488427e-04 5.190799e-04 6.820302e-04 8.133162e-04 8.972374e-04 9.286192e-04 9.113507e-04 8.552221e-04 7.725355e-04 6.754020e-04 5.740545e-04 4.761101e-04 3.865287e-04 3.079795e-04 2.413788e-04 1.864409e-04 1.421521e-04 1.071366e-04 7.991132e-05 5.904751e-05 4.326019e-05 3.144718e-05 2.269569e-05 1.627014e-05 1.159053e-05 8.207753e-06 5.779252e-06 4.047537e-06 2.825379e-06 1.969926e-06 1.372180e-06 9.549995e-07 6.641736e-07 4.618315e-07 3.217114e-07 2.258746e-07 1.625493e-07 1.248630e-07 1.102638e-07 1.204100e-07 1.612409e-07 2.428498e-07 3.787333e-07 5.840515e-07 8.727576e-07 1.253826e-06 1.727238e-06 2.280724e-06 2.888342e-06 3.511720e-06 4.104222e-06 4.617532e-06 5.009464e-06 5.251347e-06 5.333343e-06 5.266564e-06 5.083035e-06 4.845221e-06 4.739751e-06 5.634922e-06 
4.175132e-06 3.747047e-05 1.235015e-04 2.668600e-04 4.505918e-04 6.432007e-04 8.111373e-04 9.293872e-04 9.864062e-04 9.835589e-04 9.312753e-04 8.443374e-04 7.379160e-04 6.250243e-04 5.153639e-04 4.152015e-04 3.278472e-04 2.543784e-04 1.943748e-04 1.465414e-04 1.091769e-04 8.048899e-05 5.878613e-05 4.257624e-05 3.060337e-05 2.184634e-05 1.549685e-05 1.092867e-05 7.665062e-06 5.348366e-06 3.713586e-06 2.566824e-06 1.771173e-06 1.223670e-06 8.468325e-07 5.873917e-07 4.089373e-07 2.867128e-07 2.039917e-07 1.495978e-07 1.162505e-07 9.951826e-08 9.723526e-08 1.092750e-07 1.375669e-07 1.861975e-07 2.613777e-07 3.710209e-07 5.237139e-07 7.270029e-07 9.851490e-07 1.296781e-06 1.653074e-06 2.037120e-06 2.424981e-06 2.788532e-06 3.099706e-06 3.335342e-06 3.481557e-06 3.536675e-06 3.512410e-06 3.433849e-06 3.310890e-06 2.518753e-06 
2.608948e-06 5.197494e-05 1.697332e-04 3.522114e-04 5.687090e-04 7.762834e-04 9.370992e-04 1.029231e-03 1.048726e-03 1.005494e-03 9.168809e-04 8.018260e-04 6.769549e-04 5.547291e-04 4.431524e-04 3.463837e-04 2.657135e-04 2.005535e-04 1.492594e-04 1.097333e-04 7.981602e-05 5.751261e-05 4.109949e-05 2.915505e-05 2.054628e-05 1.439383e-05 1.002939e-05 6.953728e-06 4.799083e-06 3.297772e-06 2.256922e-06 1.539069e-06 1.049918e-06 7.196034e-07 4.963735e-07 3.458399e-07 2.453786e-07 1.803204e-07 1.413749e-07 1.228711e-07 1.215290e-07 1.355759e-07 1.641116e-07 2.066880e-07 2.631021e-07 3.333972e-07 4.180216e-07 5.180259e-07 6.351259e-07 7.714509e-07 9.288709e-07 1.107945e-06 1.306720e-06 1.519753e-06 1.737776e-06 1.948320e-06 2.137355e-06 2.291717e-06 2.401791e-06 2.463604e-06 2.478032e-06 2.428521e-06 2.044805e-06 -1.615593e-06 
8.541565e-07 7.258265e-05 2.301523e-04 4.555428e-04 7.004775e-04 9.113473e-04 1.050187e-03 1.102946e-03 1.076540e-03 9.904672e-04 8.681999e-04 7.310882e-04 5.953172e-04 4.712627e-04 3.642503e-04 2.758779e-04 2.053574e-04 1.506138e-04 1.090667e-04 7.811960e-05 5.542623e-05 3.900348e-05 2.725097e-05 1.892059e-05 1.306412e-05 8.975965e-06 6.139786e-06 4.182850e-06 2.839131e-06 1.920566e-06 1.295303e-06 8.717911e-07 5.890955e-07 4.029288e-07 2.812774e-07 2.040684e-07 1.592695e-07 1.403381e-07 1.445014e-07 1.714881e-07 2.224556e-07 2.989680e-07 4.019950e-07 5.310036e-07 6.832898e-07 8.537186e-07 1.034992e-06 1.218448e-06 1.395243e-06 1.557631e-06 1.700004e-06 1.819393e-06 1.915307e-06 1.988987e-06 2.042361e-06 2.077096e-06 2.094093e-06 2.093620e-06 2.075962e-06 2.041704e-06 1.985758e-06 1.835381e-06 8.871691e-07 -7.221606e-06 
-1.062733e-06 1.013970e-04 3.073046e-04 5.766048e-04 8.408572e-04 1.039260e-03 1.139922e-03 1.141852e-03 1.065133e-03 9.383916e-04 7.891570e-04 6.387296e-04 5.008147e-04 3.824051e-04 2.855722e-04 2.093073e-04 1.510073e-04 1.075014e-04 7.566902e-05 5.275351e-05 3.647837e-05 2.504903e-05 1.709826e-05 1.161125e-05 7.849991e-06 5.286475e-06 3.547896e-06 2.373877e-06 1.584194e-06 1.055058e-06 7.020372e-07 4.681184e-07 3.167974e-07 2.226355e-07 1.684805e-07 1.456039e-07 1.513549e-07 1.876748e-07 2.599602e-07 3.758802e-07 5.438813e-07 7.712829e-07 1.062067e-06 1.414679e-06 1.820321e-06 2.262245e-06 2.716452e-06 3.153904e-06 3.544006e-06 3.858740e-06 4.076615e-06 4.185600e-06 4.184423e-06 4.082027e-06 3.895430e-06 3.646579e-06 3.358980e-06 3.054810e-06 2.752794e-06 2.465566e-06 2.184359e-06 1.751189e-06 -2.076546e-07 -1.507841e-05 
-2.944335e-06 1.411218e-04 4.034093e-04 7.132909e-04 9.823347e-04 1.149408e-03 1.196437e-03 1.140002e-03 1.013818e-03 8.533836e-04 6.871272e-04 5.335571e-04 4.021383e-04 2.957120e-04 2.130537e-04 1.509156e-04 1.054004e-04 7.275110e-05 4.972568e-05 3.371144e-05 2.269979e-05 1.519870e-05 1.012835e-05 6.722844e-06 4.447581e-06 2.934127e-06 1.931181e-06 1.268800e-06 8.329035e-07 5.474392e-07 3.621165e-07 2.442565e-07 1.746564e-07 1.421606e-07 1.421334e-07 1.773979e-07 2.573900e-07 3.975863e-07 6.185525e-07 9.440479e-07 1.397816e-06 1.999038e-06 2.756903e-06 3.665221e-06 4.698392e-06 5.810028e-06 6.935205e-06 7.996566e-06 8.913541e-06 9.613123e-06 1.004011e-05 1.016475e-05 9.986293e-06 9.531894e-06 8.851313e-06 8.008790e-06 7.073849e-06 6.112747e-06 5.181536e-06 4.318498e-06 3.513035e-06 2.470642e-06 -1.232023e-06 -2.646703e-05 
-4.183420e-06 1.951362e-04 5.198841e-04 8.611312e-04 1.115147e-03 1.230842e-03 1.212049e-03 1.095459e-03 9.264070e-04 7.433218e-04 5.718147e-04 4.251476e-04 3.074624e-04 2.173821e-04 1.508781e-04 1.031483e-04 6.965192e-05 4.656186e-05 3.087260e-05 2.033476e-05 1.332255e-05 8.691165e-06 5.650510e-06 3.663731e-06 2.370504e-06 1.531350e-06 9.883832e-07 6.382666e-07 4.138889e-07 2.721409e-07 1.859160e-07 1.392668e-07 1.261977e-07 1.490349e-07 2.179721e-07 3.536862e-07 5.882735e-07 9.655377e-07 1.539470e-06 2.369841e-06 3.514265e-06 5.016927e-06 6.895339e-06 9.127618e-06 1.164353e-05 1.432248e-05 1.700056e-05 1.948672e-05 2.158619e-05 2.312668e-05 2.398266e-05 2.409256e-05 2.346580e-05 2.217856e-05 2.035996e-05 1.817169e-05 1.578567e-05 1.336343e-05 1.103977e-05 8.906428e-06 6.954564e-06 4.665696e-06 -2.045850e-06 -4.337360e-05 
-3.365445e-06 2.674681e-04 6.567111e-04 1.012964e-03 1.227993e-03 1.273809e-03 1.182778e-03 1.011018e-03 8.108713e-04 6.186626e-04 4.536758e-04 3.223171e-04 2.232472e-04 1.515040e-04 1.011458e-04 6.664682e-05 4.345900e-05 2.810603e-05 1.806001e-05 1.154712e-05 7.355075e-06 4.671777e-06 2.961431e-06 1.874685e-06 1.185835e-06 7.501513e-07 4.754893e-07 3.037294e-07 1.988520e-07 1.394253e-07 1.141135e-07 1.197882e-07 1.641587e-07 2.687425e-07 4.696689e-07 8.239392e-07 1.413098e-06 2.344379e-06 3.746833e-06 5.760180e-06 8.515182e-06 1.210649e-05 1.656159e-05 2.181222e-05 2.767580e-05 3.385419e-05 3.995396e-05 4.552746e-05 5.012908e-05 5.337627e-05 5.500340e-05 5.489783e-05 5.311132e-05 4.984578e-05 4.541768e-05 4.020947e-05 3.461795e-05 2.900830e-05 2.367890e-05 1.882964e-05 1.446075e-05 9.682223e-06 -2.234385e-06 -6.866879e-05 
2.309503e-06 3.625626e-04 8.116814e-04 1.158955e-03 1.309267e-03 1.271448e-03 1.109414e-03 8.941038e-04 6.781794e-04 4.907448e-04 3.422481e-04 2.318489e-04 1.535040e-04 9.981817e-05 6.400001e-05 4.058889e-05 2.552737e-05 1.595443e-05 9.925810e-06 6.155357e-06 3.809082e-06 2.354234e-06 1.454293e-06 8.984835e-07 5.556799e-07 3.448554e-07 2.164953e-07 1.411622e-07 1.027033e-07 9.451170e-08 1.180516e-07 1.842425e-07 3.225620e-07 5.915362e-07 1.081670e-06 1.929456e-06 3.325865e-06 5.518012e-06 8.798518e-06 1.347778e-05 1.983720e-05 2.806650e-05 3.819437e-05 5.002748e-05 6.311510e-05 7.675453e-05 9.004505e-05 1.019869e-04 1.116101e-04 1.181088e-04 1.209553e-04 1.199700e-04 1.153359e-04 1.075562e-04 9.736798e-05 8.563206e-05 7.321901e-05 6.091218e-05 4.933670e-05 3.890138e-05 2.962708e-05 2.000559e-05 -8.647780e-07 -1.061471e-04 
1.774172e-05 4.847174e-04 9.796324e-04 1.287126e-03 1.348724e-03 1.221296e-03 9.978432e-04 7.557644e-04 5.405293e-04 3.699671e-04 2.447773e-04 1.577585e-04 9.964354e-05 6.197492e-05 3.810205e-05 2.322584e-05 1.407174e-05 8.490428e-06 5.109714e-06 3.071070e-06 1.845170e-06 1.109116e-06 6.674366e-07 4.024853e-07 2.438693e-07 1.499736e-07 9.711364e-08 7.357491e-08 7.689036e-08 1.134508e-07 2.003938e-07 3.720380e-07 7.014898e-07 1.325572e-06 2.452025e-06 4.389341e-06 7.563800e-06 1.251980e-05 1.989168e-05 3.033753e-05 4.443240e-05 6.253007e-05 8.461580e-05 1.101835e-04 1.381745e-04 1.670081e-04 1.947158e-04 2.191673e-04 2.383508e-04 2.506552e-04 2.550968e-04 2.514466e-04 2.402358e-04 2.226457e-04 2.003103e-04 1.750759e-04 1.487646e-04 1.229791e-04 9.896638e-05 7.751792e-05 5.868700e-05 3.994150e-05 3.905693e-06 -1.602112e-04 
5.061272e-05 6.370729e-04 1.151886e-03 1.384524e-03 1.339341e-03 1.126219e-03 8.584025e-04 6.089243e-04 4.093683e-04 2.642713e-04 1.654454e-04 1.012094e-04 6.085800e-05 3.613833e-05 2.127025e-05 1.244513e-05 7.255239e-06 4.222016e-06 2.455969e-06 1.429689e-06 8.335833e-07 4.871454e-07 2.856114e-07 1.684490e-07 1.010710e-07 6.457856e-08 5.056497e-08 5.941417e-08 1.013668e-07 2.002071e-07 4.005364e-07 7.838603e-07 1.515037e-06 2.895824e-06 5.380913e-06 9.638570e-06 1.658189e-05 2.736121e-05 4.329349e-05 6.571098e-05 9.572817e-05 1.339508e-04 1.801788e-04 2.331735e-04 2.905660e-04 3.489601e-04 4.042468e-04 4.520937e-04 4.885257e-04 5.104861e-04 5.162640e-04 5.057057e-04 4.801774e-04 4.422990e-04 3.955176e-04 3.436129e-04 2.902269e-04 2.384901e-04 1.907761e-04 1.485377e-04 1.118589e-04 7.653219e-05 1.541829e-05 -2.348993e-04 
1.116862e-04 8.201451e-04 1.316183e-03 1.439005e-03 1.278979e-03 9.944306e-04 7.043239e-04 4.662623e-04 2.936717e-04 1.782695e-04 1.053153e-04 6.100185e-05 3.484559e-05 1.971852e-05 1.109337e-05 6.221844e-06 3.486393e-06 1.955034e-06 1.098502e-06 6.190564e-07 3.501655e-07 1.989854e-07 1.138871e-07 6.640243e-08 4.150892e-08 3.300576e-08 4.251955e-08 8.181377e-08 1.787686e-07 3.879542e-07 8.084711e-07 1.619603e-06 3.175652e-06 6.115044e-06 1.139425e-05 2.040551e-05 3.502901e-05 5.759864e-05 9.073431e-05 1.370111e-04 1.984723e-04 2.760453e-04 3.689726e-04 4.744011e-04 5.872741e-04 7.006187e-04 8.062389e-04 8.957237e-04 9.615913e-04 9.983461e-04 1.003238e-03 9.765810e-04 9.215799e-04 8.437410e-04 7.499961e-04 6.477343e-04 5.439122e-04 4.443742e-04 3.534324e-04 2.736178e-04 2.049956e-04 1.406722e-04 3.932717e-05 -3.319750e-04 
2.142386e-04 1.030089e-03 1.457426e-03 1.441427e-03 1.171389e-03 8.384351e-04 5.495604e-04 3.382238e-04 1.988794e-04 1.131592e-04 6.290135e-05 3.441020e-05 1.863107e-05 1.002822e-05 5.384202e-06 2.891091e-06 1.555609e-06 8.399903e-07 4.556713e-07 2.485382e-07 1.364259e-07 7.554748e-08 4.267630e-08 2.592879e-08 2.051811e-08 2.800801e-08 5.909904e-08 1.411410e-07 3.324282e-07 7.461567e-07 1.589889e-06 3.240426e-06 6.429633e-06 1.245755e-05 2.326150e-05 4.163416e-05 7.130031e-05 1.168093e-04 1.831572e-04 2.750936e-04 3.961485e-04 5.475150e-04 7.270164e-04 9.284376e-04 1.141472e-03 1.352429e-03 1.545683e-03 1.705645e-03 1.818902e-03 1.876110e-03 1.873261e-03 1.812086e-03 1.699565e-03 1.546690e-03 1.366761e-03 1.173587e-03 9.798777e-04 7.960669e-04 6.296375e-04 4.847718e-04 3.613545e-04 2.482976e-04 8.460884e-05 -4.480440e-04 
3.721430e-04 1.257154e-03 1.559450e-03 1.387807e-03 1.026159e-03 6.730453e-04 4.064988e-04 2.316426e-04 1.266855e-04 6.733236e-05 3.510898e-05 1.809078e-05 9.263233e-06 4.733575e-06 2.421828e-06 1.243576e-06 6.420064e-07 3.336500e-07 1.747185e-07 9.228709e-08 4.930511e-08 2.696101e-08 1.594180e-08 1.246395e-08 1.743537e-08 3.885623e-08 9.921991e-08 2.514437e-07 6.085377e-07 1.393888e-06 3.024044e-06 6.259711e-06 1.255616e-05 2.446334e-05 4.576236e-05 8.184995e-05 1.398298e-04 2.282266e-04 3.561743e-04 5.320269e-04 7.614971e-04 1.045618e-03 1.378979e-03 1.748731e-03 2.134798e-03 2.511469e-03 2.850257e-03 3.123568e-03 3.308517e-03 3.390123e-03 3.363283e-03 3.233158e-03 3.013985e-03 2.726647e-03 2.395535e-03 2.045332e-03 1.698267e-03 1.372174e-03 1.079459e-03 8.266712e-04 6.131310e-04 4.214052e-04 1.646240e-04 -5.711754e-04 
5.964387e-04 1.485041e-03 1.607733e-03 1.280848e-03 8.574334e-04 5.128753e-04 2.841228e-04 1.492630e-04 7.561861e-05 3.740440e-05 1.823556e-05 8.825590e-06 4.263670e-06 2.064612e-06 1.005164e-06 4.930959e-07 2.441111e-07 1.220968e-07 6.178623e-08 3.175853e-08 1.684652e-08 9.846626e-09 7.822091e-09 1.108563e-08 2.475100e-08 6.456111e-08 1.712049e-07 4.407298e-07 1.082422e-06 2.519230e-06 5.554062e-06 1.166313e-05 2.363267e-05 4.628189e-05 8.672459e-05 1.550131e-04 2.641963e-04 4.296367e-04 6.673488e-04 9.913292e-04 1.410151e-03 1.923427e-03 2.518971e-03 3.171525e-03 3.843687e-03 4.489235e-03 5.058491e-03 5.504820e-03 5.791071e-03 5.894697e-03 5.810589e-03 5.551159e-03 5.143787e-03 4.626309e-03 4.041500e-03 3.431631e-03 2.833952e-03 2.277661e-03 1.782428e-03 1.357957e-03 1.002228e-03 6.885366e-04 2.979349e-04 -6.781510e-04 
8.908334e-04 1.691880e-03 1.592608e-03 1.130241e-03 6.815552e-04 3.699370e-04 1.870630e-04 9.017645e-05 4.213410e-05 1.931904e-05 8.775010e-06 3.976987e-06 1.808320e-06 8.282475e-07 3.832254e-07 1.794803e-07 8.521112e-08 4.109564e-08 2.026640e-08 1.049161e-08 6.271547e-09 5.440715e-09 8.069469e-09 1.721958e-08 4.272374e-08 1.116724e-07 2.936822e-07 7.557850e-07 1.870076e-06 4.405467e-06 9.848143e-06 2.095128e-05 4.285167e-05 8.432773e-05 1.582853e-04 2.827795e-04 4.809087e-04 7.793112e-04 1.204918e-03 1.780034e-03 2.516376e-03 3.409238e-03 4.433243e-03 5.541067e-03 6.666019e-03 7.728532e-03 8.645706e-03 9.342268e-03 9.760897e-03 9.869955e-03 9.667203e-03 9.178957e-03 8.455084e-03 7.561062e-03 6.568743e-03 5.547528e-03 4.557301e-03 3.643898e-03 2.837161e-03 2.150651e-03 1.579615e-03 1.084278e-03 5.084280e-04 -7.339279e-04 
1.247340e-03 1.853261e-03 1.512106e-03 9.514034e-04 5.141872e-04 2.519517e-04 1.156904e-04 5.091711e-05 2.183620e-05 9.239859e-06 3.894952e-06 1.647704e-06 7.033654e-07 3.041724e-07 1.336222e-07 5.975343e-08 2.728862e-08 1.287416e-08 6.574314e-09 4.226001e-09 4.340725e-09 7.062747e-09 1.445915e-08 3.269316e-08 7.855683e-08 1.967921e-07 5.023941e-07 1.275084e-06 3.150465e-06 7.470123e-06 1.687421e-05 3.629609e-05 7.485706e-05 1.479741e-04 2.782299e-04 4.969042e-04 8.434142e-04 1.362224e-03 2.096779e-03 3.080813e-03 4.328370e-03 5.824664e-03 7.520237e-03 9.330462e-03 1.114145e-02 1.282195e-02 1.423956e-02 1.527823e-02 1.585400e-02 1.592599e-02 1.550066e-02 1.462896e-02 1.339720e-02 1.191379e-02 1.029447e-02 8.648618e-03 7.068694e-03 5.623773e-03 4.357189e-03 3.286732e-03 2.402632e-03 1.647326e-03 8.242185e-04 -6.947758e-04 
1.643784e-03 1.947043e-03 1.373452e-03 7.627839e-04 3.676484e-04 1.617748e-04 6.708714e-05 2.680855e-05 1.049604e-05 4.078243e-06 1.588410e-06 6.249237e-07 2.497621e-07 1.018120e-07 4.246190e-08 1.821188e-08 8.191744e-09 4.191120e-09 3.057814e-09 3.851704e-09 6.941992e-09 1.415159e-08 3.008062e-08 6.598127e-08 1.502458e-07 3.558210e-07 8.680127e-07 2.139709e-06 5.215083e-06 1.233996e-05 2.801286e-05 6.072492e-05 1.260819e-04 2.502009e-04 4.711973e-04 8.413509e-04 1.425529e-03 2.295209e-03 3.517628e-03 5.141061e-03 7.178822e-03 9.595746e-03 1.230097e-02 1.514985e-02 1.795597e-02 2.051182e-02 2.261481e-02 2.409408e-02 2.483313e-02 2.478438e-02 2.397322e-02 2.249131e-02 2.048104e-02 1.811441e-02 1.557043e-02 1.301480e-02 1.058479e-02 8.380430e-03 6.462001e-03 4.851214e-03 3.529804e-03 2.416794e-03 1.274902e-03 -5.156235e-04 
2.044821e-03 1.958854e-03 1.192435e-03 5.823732e-04 2.491988e-04 9.796816e-05 3.648519e-05 1.315874e-05 4.674673e-06 1.658057e-06 5.935282e-07 2.162253e-07 8.066577e-08 3.097015e-08 1.233613e-08 5.264069e-09 2.748469e-09 2.366710e-09 3.585626e-09 7.008988e-09 1.455650e-08 3.051886e-08 6.422995e-08 1.366428e-07 2.969742e-07 6.650724e-07 1.536127e-06 3.624343e-06 8.584781e-06 2.002706e-05 4.530079e-05 9.844098e-05 2.051921e-04 4.082545e-04 7.696695e-04 1.373730e-03 2.323398e-03 3.729367e-03 5.691483e-03 8.274793e-03 1.148505e-02 1.524981e-02 1.941096e-02 2.373194e-02 2.792008e-02 3.166060e-02 3.465654e-02 3.666758e-02 3.754097e-02 3.722940e-02 3.579317e-02 3.338722e-02 3.023598e-02 2.660136e-02 2.274957e-02 1.892227e-02 1.531564e-02 1.206911e-02 9.263011e-03 6.921581e-03 5.013112e-03 3.426729e-03 1.887025e-03 -1.605774e-04 
2.407261e-03 1.886579e-03 9.905218e-04 4.244031e-04 1.606825e-04 5.619109e-05 1.869177e-05 6.045690e-06 1.935122e-06 6.220318e-07 2.032599e-07 6.818471e-08 2.367564e-08 8.617902e-09 3.456481e-09 1.870085e-09 1.921006e-09 3.349338e-09 6.928999e-09 1.473404e-08 3.120536e-08 6.553266e-08 1.367920e-07 2.854428e-07 6.003074e-07 1.283839e-06 2.809759e-06 6.290184e-06 1.427614e-05 3.235644e-05 7.205315e-05 1.556460e-04 3.241247e-04 6.449099e-04 1.215326e-03 2.166425e-03 3.655812e-03 5.848661e-03 8.887223e-03 1.285344e-02 1.773305e-02 2.339084e-02 2.956524e-02 3.588569e-02 4.191112e-02 4.718311e-02 5.128423e-02 5.389161e-02 5.481675e-02 5.402557e-02 5.163627e-02 4.789650e-02 4.314507e-02 3.776533e-02 3.213861e-02 2.660457e-02 2.143361e-02 1.681297e-02 1.284521e-02 9.554232e-03 6.888239e-03 4.699197e-03 2.678120e-03 3.860493e-04 
2.688951e-03 1.742142e-03 7.904214e-04 2.972074e-04 9.947423e-05 3.087048e-05 9.134335e-06 2.633447e-06 7.534974e-07 2.175032e-07 6.427634e-08 1.971220e-08 6.398440e-09 2.365140e-09 1.326636e-09 1.595457e-09 3.065985e-09 6.594823e-09 1.433307e-08 3.086981e-08 6.567412e-08 1.380472e-07 2.872047e-07 5.933340e-07 1.223280e-06 2.533432e-06 5.306051e-06 1.128694e-05 2.435895e-05 5.293219e-05 1.144029e-04 2.427713e-04 5.011003e-04 9.922384e-04 1.863109e-03 3.309954e-03 5.565225e-03 8.866286e-03 1.340752e-02 1.928429e-02 2.644258e-02 3.464893e-02 4.349118e-02 5.241279e-02 6.077523e-02 6.793695e-02 7.333480e-02 7.655425e-02 7.737777e-02 7.580468e-02 7.204121e-02 6.646376e-02 5.956319e-02 5.187988e-02 4.394063e-02 3.620642e-02 2.903716e-02 2.267538e-02 1.724658e-02 1.276953e-02 9.163998e-03 6.236810e-03 3.650258e-03 1.111742e-03 
2.859008e-03 1.549604e-03 6.114230e-04 2.028039e-04 6.024316e-05 1.662726e-05 4.374891e-06 1.120311e-06 2.844917e-07 7.296449e-08 1.926640e-08 5.387566e-09 1.761093e-09 9.873211e-10 1.329621e-09 2.722708e-09 6.020568e-09 1.333437e-08 2.921413e-08 6.317479e-08 1.347908e-07 2.838156e-07 5.902205e-07 1.214173e-06 2.477327e-06 5.032587e-06 1.022747e-05 2.088913e-05 4.299381e-05 8.906752e-05 1.846717e-04 3.798800e-04 7.685488e-04 1.502225e-03 2.793824e-03 4.925707e-03 8.227425e-03 1.302684e-02 1.957827e-02 2.798204e-02 3.811680e-02 4.960576e-02 6.182977e-02 7.398730e-02 8.518980e-02 9.457368e-02 1.014088e-01 1.051863e-01 1.056736e-01 1.029308e-01 9.728855e-02 8.929285e-02 7.962754e-02 6.902738e-02 5.819555e-02 4.773702e-02 3.811516e-02 2.963343e-02 2.243885e-02 1.653828e-02 1.181300e-02 8.016209e-03 4.784636e-03 1.973967e-03 
2.906294e-03 1.339895e-03 4.660158e-04 1.381145e-04 3.685451e-05 9.144395e-06 2.157874e-06 4.933091e-07 1.111878e-07 2.519357e-08 5.914102e-09 1.600561e-09 7.965271e-10 1.102666e-09 2.338746e-09 5.276451e-09 1.187692e-08 2.643323e-08 5.807530e-08 1.258946e-07 2.692081e-07 5.678183e-07 1.181589e-06 2.427352e-06 4.928664e-06 9.910186e-06 1.978445e-05 3.933434e-05 7.809398e-05 1.550502e-04 3.075812e-04 6.076828e-04 1.190587e-03 2.271527e-03 4.145820e-03 7.202127e-03 1.188710e-02 1.863349e-02 2.775808e-02 3.935139e-02 5.319079e-02 6.870583e-02 8.501081e-02 1.010001e-01 1.154857e-01 1.273487e-01 1.356781e-01 1.398756e-01 1.397143e-01 1.353474e-01 1.272694e-01 1.162379e-01 1.031704e-01 8.903161e-02 7.472985e-02 6.103407e-02 4.852224e-02 3.756179e-02 2.831756e-02 2.077580e-02 1.476826e-02 9.985972e-03 6.040240e-03 2.906121e-03 
2.843284e-03 1.143786e-03 3.587960e-04 9.717237e-05 2.382506e-05 5.438002e-06 1.178005e-06 2.460189e-07 5.030812e-08 1.029470e-08 2.264930e-09 8.058362e-10 9.277617e-10 1.948215e-09 4.450416e-09 1.015573e-08 2.292214e-08 5.109441e-08 1.124168e-07 2.440388e-07 5.225363e-07 1.103329e-06 2.297146e-06 4.716531e-06 9.554089e-06 1.910855e-05 3.777867e-05 7.394230e-05 1.434993e-04 2.764789e-04 5.291047e-04 1.005238e-03 1.893752e-03 3.487028e-03 6.177275e-03 1.047253e-02 1.694490e-02 2.613231e-02 3.840308e-02 5.381411e-02 7.200511e-02 9.216668e-02 1.130984e-01 1.333466e-01 1.513908e-01 1.658389e-01 1.755968e-01 1.799890e-01 1.788180e-01 1.723615e-01 1.613124e-01 1.466751e-01 1.296332e-01 1.114096e-01 9.313907e-02 7.576893e-02 5.999892e-02 4.626096e-02 3.473268e-02 2.537075e-02 1.794710e-02 1.208474e-02 7.370436e-03 3.831122e-03 
2.713862e-03 9.721553e-04 2.799496e-04 7.051652e-05 1.618811e-05 3.471177e-06 7.074017e-07 1.390755e-07 2.684633e-08 5.289863e-09 1.305920e-09 8.698722e-10 1.584136e-09 3.595998e-09 8.288477e-09 1.893615e-08 4.275183e-08 9.531206e-08 2.097354e-07 4.553503e-07 9.749915e-07 2.058205e-06 4.282439e-06 8.780853e-06 1.774248e-05 3.533359e-05 6.937447e-05 1.343568e-04 2.568060e-04 4.846539e-04 9.032499e-04 1.661872e-03 3.015894e-03 5.345405e-03 9.150292e-03 1.506046e-02 2.376572e-02 3.589083e-02 5.182842e-02 7.156882e-02 9.457971e-02 1.197806e-01 1.456300e-01 1.703083e-01 1.919544e-01 2.089047e-01 2.198933e-01 2.241860e-01 2.216373e-01 2.126737e-01 1.982114e-01 1.795237e-01 1.580798e-01 1.353760e-01 1.127846e-01 9.143800e-02 7.215958e-02 5.544366e-02 4.147507e-02 3.017311e-02 2.124274e-02 1.423800e-02 8.719406e-03 4.676862e-03 
2.543029e-03 8.176495e-04 2.172834e-04 5.117652e-05 1.107154e-05 2.250005e-06 4.371382e-07 8.275800e-08 1.576146e-08 3.315352e-09 1.173879e-09 1.336324e-09 2.793073e-09 6.423895e-09 1.480974e-08 3.380189e-08 7.622681e-08 1.697327e-07 3.729987e-07 8.086012e-07 1.728422e-06 3.641345e-06 7.557698e-06 1.544787e-05 3.108554e-05 6.156654e-05 1.199889e-04 2.300801e-04 4.340010e-04 8.051472e-04 1.468443e-03 2.631107e-03 4.626463e-03 7.930843e-03 1.315646e-02 2.104892e-02 3.239711e-02 4.788277e-02 6.788640e-02 9.229562e-02 1.203767e-01 1.507597e-01 1.815563e-01 2.105862e-01 2.356612e-01 2.548658e-01 2.667843e-01 2.706457e-01 2.663773e-01 2.545721e-01 2.363830e-01 2.133623e-01 1.872704e-01 1.598800e-01 1.328007e-01 1.073473e-01 8.446275e-02 6.469801e-02 4.823857e-02 3.495983e-02 2.449634e-02 1.633481e-02 1.000033e-02 5.382096e-03 