# vtk DataFile Version 2.0
Comment goes here
ASCII

DATASET STRUCTURED_POINTS
DIMENSIONS    64   64   1

ORIGIN    0.000   0.000   0.000
SPACING   0.0158730.015873   1.000

POINT_DATA   4096
SCALARS Concentration double
LOOKUP_TABLE default

2.626241e-06 2.570381e-06 3.673330e-06 6.779100e-06 1.266068e-05 2.165619e-05 3.340736e-05 4.683400e-05 6.035788e-05 7.227871e-05 8.115880e-05 8.609644e-05 8.683105e-05 8.368894e-05 7.742159e-05 6.900147e-05 5.943131e-05 4.960096e-05 4.020422e-05 3.171072e-05 2.437912e-05 1.829476e-05 1.341716e-05 9.626467e-06 6.762770e-06 4.655373e-06 3.142251e-06 2.081039e-06 1.353685e-06 8.668226e-07 5.496769e-07 3.508947e-07 2.366202e-07 1.903757e-07 2.053626e-07 2.839079e-07 4.361234e-07 6.775269e-07 1.025427e-06 1.494063e-06 2.088906e-06 2.801095e-06 3.603441e-06 4.449526e-06 5.277043e-06 6.015453e-06 6.596788e-06 6.967243e-06 7.096703e-06 6.983788e-06 6.655233e-06 6.160084e-06 5.560551e-06 4.921971e-06 4.304110e-06 3.755071e-06 3.308042e-06 2.980271e-06 2.773457e-06 2.674962e-06 2.659902e-06 2.695531e-06 2.765331e-06 3.209232e-06 
2.404196e-06 2.535236e-06 4.429850e-06 9.359377e-06 1.837074e-05 3.174018e-05 4.866353e-05 6.734211e-05 8.541689e-05 1.005563e-04 1.109770e-04 1.157501e-04 1.148499e-04 1.089976e-04 9.939007e-05 8.740941e-05 7.438044e-05 6.140921e-05 4.930592e-05 3.857694e-05 2.946251e-05 2.199735e-05 1.607627e-05 1.151308e-05 8.087183e-06 5.576367e-06 3.777018e-06 2.514441e-06 1.646070e-06 1.060198e-06 6.722826e-07 4.202768e-07 2.598589e-07 1.619683e-07 1.085268e-07 8.951800e-08 1.015895e-07 1.468648e-07 2.316632e-07 3.648105e-07 5.553294e-07 8.095288e-07 1.127843e-06 1.502106e-06 1.914122e-06 2.336295e-06 2.734657e-06 3.073914e-06 3.323487e-06 3.463054e-06 3.486178e-06 3.401147e-06 3.228969e-06 2.999242e-06 2.745090e-06 2.498321e-06 2.285611e-06 2.125973e-06 2.029388e-06 1.996319e-06 2.018132e-06 2.080902e-06 2.207534e-06 3.032168e-06 
2.198253e-06 2.838208e-06 6.306577e-06 1.445006e-05 2.853162e-05 4.846285e-05 7.253510e-05 9.778083e-05 1.207695e-04 1.384821e-04 1.489535e-04 1.515316e-04 1.467732e-04 1.361005e-04 1.213722e-04 1.044923e-04 8.712811e-05 7.055645e-05 5.562143e-05 4.277138e-05 3.213862e-05 2.363296e-05 1.702908e-05 1.203747e-05 8.355504e-06 5.699904e-06 3.824133e-06 2.524856e-06 1.641372e-06 1.051089e-06 6.632919e-07 4.126310e-07 2.530089e-07 1.531820e-07 9.258944e-08 5.813466e-08 4.225753e-08 4.162104e-08 5.620697e-08 8.857884e-08 1.430687e-07 2.246950e-07 3.377391e-07 4.840895e-07 6.616638e-07 8.633632e-07 1.077011e-06 1.286540e-06 1.474354e-06 1.624387e-06 1.725123e-06 1.771791e-06 1.767191e-06 1.721018e-06 1.647954e-06 1.565095e-06 1.489298e-06 1.434896e-06 1.411964e-06 1.425182e-06 1.473510e-06 1.554460e-06 1.721384e-06 2.790977e-06 
1.967257e-06 3.470135e-06 9.467011e-06 2.252605e-05 4.396095e-05 7.285421e-05 1.060090e-04 1.388176e-04 1.665771e-04 1.856792e-04 1.942921e-04 1.924441e-04 1.816459e-04 1.642880e-04 1.430291e-04 1.203207e-04 9.811937e-05 7.777843e-05 6.007204e-05 4.529699e-05 3.340440e-05 2.412829e-05 1.709232e-05 1.188817e-05 8.126272e-06 5.463808e-06 3.616128e-06 2.357270e-06 1.514351e-06 9.591725e-07 5.992266e-07 3.693598e-07 2.246122e-07 1.347702e-07 7.993303e-08 4.723560e-08 2.867681e-08 1.964931e-08 1.799278e-08 2.339715e-08 3.698571e-08 6.091796e-08 9.788106e-08 1.504010e-07 2.200023e-07 3.063583e-07 4.066658e-07 5.154957e-07 6.252870e-07 7.274802e-07 8.140711e-07 8.792079e-07 9.204161e-07 9.391363e-07 9.404686e-07 9.322352e-07 9.236232e-07 9.237009e-07 9.400404e-07 9.775958e-07 1.038270e-06 1.125914e-06 1.312121e-06 2.475356e-06 
1.706373e-06 4.621250e-06 1.456894e-05 3.492313e-05 6.665383e-05 1.072680e-04 1.513132e-04 1.920695e-04 2.235253e-04 2.418237e-04 2.458059e-04 2.367250e-04 2.174595e-04 1.915950e-04 1.626443e-04 1.335352e-04 1.063775e-04 8.244884e-05 6.231761e-05 4.602514e-05 3.327231e-05 2.357857e-05 1.640037e-05 1.120915e-05 7.535116e-06 4.986150e-06 3.250200e-06 2.088299e-06 1.323258e-06 8.273037e-07 5.105329e-07 3.110742e-07 1.871785e-07 1.112478e-07 6.534144e-08 3.799082e-08 2.202570e-08 1.311041e-08 8.799214e-09 7.955142e-09 1.040474e-08 1.671856e-08 2.802061e-08 4.574830e-08 7.131773e-08 1.057010e-07 1.489854e-07 2.000344e-07 2.563882e-07 3.144980e-07 3.702992e-07 4.200162e-07 4.610011e-07 4.923852e-07 5.153721e-07 5.331054e-07 5.501583e-07 5.717688e-07 6.029675e-07 6.477500e-07 7.088073e-07 7.928732e-07 9.755884e-07 2.064580e-06 
1.404720e-06 6.593689e-06 2.259208e-05 5.349511e-05 9.916289e-05 1.544220e-04 2.106540e-04 2.586818e-04 2.914558e-04 3.055476e-04 3.012547e-04 2.817007e-04 2.515175e-04 2.156059e-04 1.782529e-04 1.426729e-04 1.109073e-04 8.395881e-05 6.203840e-05 4.483312e-05 3.174070e-05 2.204681e-05 1.504293e-05 1.009362e-05 6.666461e-06 4.337392e-06 2.781949e-06 1.760019e-06 1.098896e-06 6.774218e-07 4.124670e-07 2.481360e-07 1.475512e-07 8.676912e-08 5.048158e-08 2.907870e-08 1.662807e-08 9.540258e-09 5.713946e-09 4.008191e-09 3.931279e-09 5.464200e-09 8.953881e-09 1.502227e-08 2.444886e-08 3.800271e-08 5.622821e-08 7.922195e-08 1.064660e-07 1.367893e-07 1.685074e-07 1.997397e-07 2.288436e-07 2.548588e-07 2.778423e-07 2.990021e-07 3.205935e-07 3.455999e-07 3.772600e-07 4.185476e-07 4.720720e-07 5.447427e-07 6.989932e-07 1.513442e-06 
1.041520e-06 9.844459e-06 3.492184e-05 8.066076e-05 1.444982e-04 2.170858e-04 2.857204e-04 3.387597e-04 3.688628e-04 3.741066e-04 3.572331e-04 3.238831e-04 2.806913e-04 2.338044e-04 1.880271e-04 1.465434e-04 1.110360e-04 8.201136e-05 5.918145e-05 4.180636e-05 2.895792e-05 1.969615e-05 1.317100e-05 8.668386e-06 5.619993e-06 3.592122e-06 2.265043e-06 1.409815e-06 8.666071e-07 5.263084e-07 3.159172e-07 1.874846e-07 1.100887e-07 6.401891e-08 3.689731e-08 2.111510e-08 1.206612e-08 7.011633e-09 4.367331e-09 3.266404e-09 3.298934e-09 4.360255e-09 6.561520e-09 1.016840e-08 1.554247e-08 2.306799e-08 3.305808e-08 4.564851e-08 6.070311e-08 7.776495e-08 9.608645e-08 1.147552e-07 1.329042e-07 1.499646e-07 1.658985e-07 1.813481e-07 1.976584e-07 2.167570e-07 2.409098e-07 2.724054e-07 3.134325e-07 3.682622e-07 4.627106e-07 7.337719e-07 
5.887094e-07 1.505690e-05 5.346421e-05 1.194423e-04 2.059619e-04 2.976834e-04 3.771519e-04 4.308673e-04 4.525712e-04 4.433109e-04 4.093384e-04 3.593025e-04 3.018255e-04 2.439699e-04 1.906113e-04 1.444817e-04 1.065830e-04 7.672221e-05 5.401152e-05 3.725752e-05 2.522398e-05 1.678390e-05 1.098939e-05 7.087646e-06 4.506736e-06 2.827366e-06 1.751227e-06 1.071478e-06 6.479006e-07 3.873404e-07 2.290288e-07 1.339869e-07 7.765464e-08 4.467149e-08 2.557784e-08 1.470462e-08 8.722457e-09 5.740645e-09 4.758413e-09 5.333878e-09 7.380636e-09 1.103231e-08 1.653719e-08 2.416199e-08 3.409767e-08 4.637153e-08 6.077715e-08 7.683723e-08 9.381288e-08 1.107671e-07 1.266818e-07 1.406166e-07 1.518877e-07 1.602367e-07 1.659564e-07 1.699448e-07 1.736728e-07 1.790632e-07 1.882928e-07 2.035231e-07 2.263862e-07 2.547477e-07 2.428705e-07 -4.291686e-07 
2.035082e-08 2.323839e-05 8.076519e-05 1.734293e-04 2.868315e-04 3.977414e-04 4.839464e-04 5.316124e-04 5.376313e-04 5.077343e-04 4.526063e-04 3.840391e-04 3.122481e-04 2.445924e-04 1.854108e-04 1.365144e-04 9.792976e-05 6.862379e-05 4.707783e-05 3.167778e-05 2.094037e-05 1.361753e-05 8.721769e-06 5.507268e-06 3.431339e-06 2.111070e-06 1.283281e-06 7.711690e-07 4.583332e-07 2.695191e-07 1.568726e-07 9.042991e-08 5.176117e-08 2.957925e-08 1.710574e-08 1.044809e-08 7.498317e-09 7.286342e-09 9.608180e-09 1.480388e-08 2.359522e-08 3.691936e-08 5.572087e-08 8.069523e-08 1.120105e-07 1.490635e-07 1.903402e-07 2.334423e-07 2.753055e-07 3.125901e-07 3.421720e-07 3.616367e-07 3.696715e-07 3.662810e-07 3.527915e-07 3.316620e-07 3.061531e-07 2.799254e-07 2.566294e-07 2.394385e-07 2.295365e-07 2.127140e-07 1.705146e-08 -2.221770e-06 
-6.707334e-07 3.584869e-05 1.201136e-04 2.466184e-04 3.898563e-04 5.172139e-04 6.029053e-04 6.354444e-04 6.175291e-04 5.612438e-04 4.821833e-04 3.948725e-04 3.102859e-04 2.352096e-04 1.727603e-04 1.233986e-04 8.597573e-05 5.858046e-05 3.911838e-05 2.564824e-05 1.653717e-05 1.049952e-05 6.571639e-06 4.058760e-06 2.475623e-06 1.492276e-06 8.894953e-07 5.245492e-07 3.061761e-07 1.769702e-07 1.013624e-07 5.763096e-08 3.276853e-08 1.904328e-08 1.204786e-08 9.580732e-09 1.093363e-08 1.654252e-08 2.783087e-08 4.710318e-08 7.736255e-08 1.219496e-07 1.839490e-07 2.653920e-07 3.663806e-07 4.843466e-07 6.136928e-07 7.460106e-07 8.709441e-07 9.775896e-07 1.056157e-06 1.099533e-06 1.104385e-06 1.071600e-06 1.005970e-06 9.152880e-07 8.090611e-07 6.971671e-07 5.886542e-07 4.906093e-07 4.046328e-07 2.956435e-07 -2.207486e-07 -5.006314e-06 
-1.450108e-06 5.496526e-05 1.755957e-04 3.430749e-04 5.165622e-04 6.537653e-04 7.282649e-04 7.348039e-04 6.847844e-04 5.978232e-04 4.941404e-04 3.899185e-04 2.956587e-04 2.165709e-04 1.539163e-04 1.065127e-04 7.198627e-05 4.763431e-05 3.092657e-05 1.973620e-05 1.239868e-05 7.677632e-06 4.691314e-06 2.831262e-06 1.688980e-06 9.965889e-07 5.819681e-07 3.365045e-07 1.927622e-07 1.094892e-07 6.180589e-08 3.493593e-08 2.036385e-08 1.339206e-08 1.187401e-08 1.567179e-08 2.646083e-08 4.783705e-08 8.551248e-08 1.473526e-07 2.429821e-07 3.827193e-07 5.757369e-07 8.275949e-07 1.137588e-06 1.496604e-06 1.886254e-06 2.279842e-06 2.645308e-06 2.949724e-06 3.164412e-06 3.269548e-06 3.257203e-06 3.132191e-06 2.910667e-06 2.616954e-06 2.279448e-06 1.926500e-06 1.582981e-06 1.267456e-06 9.849334e-07 6.656404e-07 -4.240577e-07 -9.295774e-06 
-2.207192e-06 8.349425e-05 2.520521e-04 4.663670e-04 6.664075e-04 8.021617e-04 8.516866e-04 8.207311e-04 7.319220e-04 6.125780e-04 4.862611e-04 3.690935e-04 2.696330e-04 1.905661e-04 1.308599e-04 8.761637e-05 5.736604e-05 3.681985e-05 2.321474e-05 1.440316e-05 8.806500e-06 5.313025e-06 3.166141e-06 1.865323e-06 1.087271e-06 6.274162e-07 3.586317e-07 2.031757e-07 1.142000e-07 6.387040e-08 3.590669e-08 2.102371e-08 1.436696e-08 1.412847e-08 2.105803e-08 3.879495e-08 7.461481e-08 1.404853e-07 2.540176e-07 4.387086e-07 7.227452e-07 1.135741e-06 1.703199e-06 2.439233e-06 3.338974e-06 4.372748e-06 5.484229e-06 6.594074e-06 7.609219e-06 8.436322e-06 8.996535e-06 9.238227e-06 9.144768e-06 8.735795e-06 8.062100e-06 7.195771e-06 6.218136e-06 5.208126e-06 4.233023e-06 3.341660e-06 2.550544e-06 1.732671e-06 -4.165060e-07 -1.584199e-05 
-2.676563e-06 1.254353e-04 3.548676e-04 6.187454e-04 8.359007e-04 9.539680e-04 9.627640e-04 8.839496e-04 7.526933e-04 6.027188e-04 4.586052e-04 3.342631e-04 2.348716e-04 1.599163e-04 1.059480e-04 6.853755e-05 4.341547e-05 2.699483e-05 1.650855e-05 9.946352e-06 5.912385e-06 3.471569e-06 2.015536e-06 1.158039e-06 6.589195e-07 3.715219e-07 2.077080e-07 1.152688e-07 6.371233e-08 3.552463e-08 2.093211e-08 1.492488e-08 1.602168e-08 2.623707e-08 5.179787e-08 1.052645e-07 2.084217e-07 3.956147e-07 7.164864e-07 1.236472e-06 2.033080e-06 3.186308e-06 4.762841e-06 6.795788e-06 9.264192e-06 1.207820e-05 1.507587e-05 1.803532e-05 2.070211e-05 2.282699e-05 2.420593e-05 2.471312e-05 2.431951e-05 2.309322e-05 2.118307e-05 1.879014e-05 1.613468e-05 1.342532e-05 1.083560e-05 8.488428e-06 6.430689e-06 4.438571e-06 2.602462e-07 -2.585963e-05 
-2.226229e-06 1.861905e-04 4.894992e-04 8.000897e-04 1.017870e-03 1.097769e-03 1.050123e-03 9.163137e-04 7.433133e-04 5.682757e-04 4.136719e-04 2.890020e-04 1.949891e-04 1.276932e-04 8.149891e-05 5.086569e-05 3.113148e-05 1.872780e-05 1.109508e-05 6.483952e-06 3.742897e-06 2.136644e-06 1.207336e-06 6.758387e-07 3.750356e-07 2.064454e-07 1.128527e-07 6.147634e-08 3.385865e-08 1.995661e-08 1.486294e-08 1.733141e-08 3.025448e-08 6.293255e-08 1.342798e-07 2.791353e-07 5.563448e-07 1.057644e-06 1.914552e-06 3.298898e-06 5.411829e-06 8.457245e-06 1.259925e-05 1.790898e-05 2.431257e-05 3.155583e-05 3.920087e-05 4.666317e-05 5.328684e-05 5.844433e-05 6.163835e-05 6.258231e-05 6.124112e-05 5.782495e-05 5.274076e-05 4.651601e-05 3.971328e-05 3.285371e-05 2.636104e-05 2.052793e-05 1.547099e-05 1.079411e-05 2.626247e-06 -4.147797e-05 
6.488591e-07 2.728520e-04 6.606344e-04 1.006729e-03 1.201148e-03 1.220088e-03 1.103056e-03 9.123655e-04 7.034092e-04 5.123213e-04 3.560718e-04 2.379923e-04 1.539137e-04 9.678646e-05 5.941686e-05 3.572616e-05 2.109705e-05 1.226291e-05 7.029381e-06 3.979898e-06 2.228566e-06 1.235520e-06 6.787934e-07 3.698434e-07 1.999838e-07 1.074265e-07 5.751492e-08 3.114337e-08 1.817221e-08 1.390298e-08 1.756396e-08 3.256917e-08 6.993241e-08 1.553133e-07 3.379634e-07 7.069449e-07 1.411522e-06 2.682996e-06 4.850744e-06 8.341351e-06 1.364812e-05 2.126161e-05 3.156161e-05 4.468569e-05 6.040473e-05 7.804477e-05 9.649086e-05 1.142909e-04 1.298498e-04 1.416773e-04 1.486316e-04 1.501034e-04 1.460990e-04 1.372078e-04 1.244715e-04 1.091920e-04 9.272487e-05 7.629995e-05 6.089565e-05 4.717005e-05 3.538383e-05 2.481735e-05 8.751213e-06 -6.642709e-05 
9.326127e-06 3.942990e-04 8.708956e-04 1.230364e-03 1.370955e-03 1.307045e-03 1.113443e-03 8.706376e-04 6.363900e-04 4.405802e-04 2.917498e-04 1.861966e-04 1.152135e-04 6.945188e-05 4.094500e-05 2.368289e-05 1.347484e-05 7.558059e-06 4.186741e-06 2.293877e-06 1.244602e-06 6.694255e-07 3.572352e-07 1.892825e-07 9.967295e-08 5.230578e-08 2.772025e-08 1.581704e-08 1.209966e-08 1.619713e-08 3.227003e-08 7.200110e-08 1.639808e-07 3.712326e-07 8.133683e-07 1.705386e-06 3.405880e-06 6.467443e-06 1.167140e-05 2.002017e-05 3.265775e-05 5.069830e-05 7.496733e-05 1.056952e-04 1.422377e-04 1.829153e-04 2.250508e-04 2.652397e-04 2.998209e-04 3.254536e-04 3.396682e-04 3.412609e-04 3.304459e-04 3.087453e-04 2.786606e-04 2.432202e-04 2.055080e-04 1.682677e-04 1.336366e-04 1.030131e-04 7.692990e-05 5.404134e-05 2.256198e-05 -1.067258e-04 
3.065460e-05 5.607925e-04 1.119106e-03 1.457442e-03 1.510211e-03 1.346602e-03 1.077558e-03 7.943202e-04 5.490609e-04 3.604699e-04 2.269346e-04 1.380136e-04 8.155608e-05 4.704607e-05 2.659237e-05 1.477378e-05 8.087654e-06 4.371725e-06 2.337373e-06 1.237835e-06 6.500742e-07 3.388791e-07 1.754928e-07 9.036149e-08 4.636056e-08 2.395662e-08 1.321430e-08 9.782603e-09 1.342229e-08 2.863449e-08 6.792348e-08 1.601090e-07 3.723535e-07 8.503139e-07 1.869498e-06 3.923024e-06 7.829301e-06 1.484165e-05 2.671804e-05 4.569037e-05 7.426886e-05 1.148423e-04 1.690922e-04 2.373195e-04 3.178547e-04 4.067546e-04 4.979498e-04 5.838997e-04 6.566655e-04 7.091778e-04 7.364044e-04 7.361447e-04 7.092811e-04 6.594622e-04 5.923377e-04 5.145540e-04 4.327432e-04 3.526979e-04 2.788403e-04 2.139820e-04 1.591275e-04 1.117235e-04 5.109795e-05 -1.707624e-04 
7.695771e-05 7.826586e-04 1.398334e-03 1.669425e-03 1.601822e-03 1.331003e-03 9.972665e-04 6.910185e-04 4.505021e-04 2.797864e-04 1.670783e-04 9.662538e-05 5.442366e-05 2.998913e-05 1.622544e-05 8.645078e-06 4.547049e-06 2.365584e-06 1.219272e-06 6.234373e-07 3.165820e-07 1.597969e-07 8.024226e-08 4.014974e-08 2.017351e-08 1.066813e-08 7.393137e-09 9.948542e-09 2.247185e-08 5.720808e-08 1.430764e-07 3.449990e-07 8.121658e-07 1.865160e-06 4.108790e-06 8.620594e-06 1.717862e-05 3.248605e-05 5.829987e-05 9.933355e-05 1.608022e-04 2.475398e-04 3.627461e-04 5.065914e-04 6.750503e-04 8.593817e-04 1.046575e-03 1.220837e-03 1.365894e-03 1.467615e-03 1.516341e-03 1.508387e-03 1.446394e-03 1.338528e-03 1.196815e-03 1.035041e-03 8.667029e-04 7.033906e-04 5.537790e-04 4.232270e-04 3.134918e-04 2.197577e-04 1.063134e-04 -2.678073e-04 
1.677340e-04 1.067719e-03 1.694223e-03 1.844352e-03 1.631688e-03 1.258798e-03 8.801843e-04 5.715517e-04 3.504547e-04 2.053645e-04 1.160519e-04 6.368353e-05 3.412065e-05 1.792697e-05 9.268541e-06 4.728871e-06 2.386395e-06 1.193378e-06 5.922769e-07 2.920904e-07 1.432811e-07 6.996988e-08 3.405669e-08 1.660555e-08 8.386948e-09 5.295980e-09 6.605561e-09 1.547814e-08 4.243073e-08 1.140496e-07 2.921000e-07 7.153625e-07 1.700279e-06 3.921316e-06 8.647005e-06 1.812519e-05 3.603987e-05 6.794458e-05 1.214765e-04 2.060882e-04 3.320449e-04 5.085759e-04 7.413406e-04 1.029702e-03 1.364568e-03 1.727609e-03 2.092418e-03 2.427684e-03 2.701843e-03 2.888196e-03 2.969293e-03 2.939574e-03 2.805744e-03 2.584950e-03 2.301358e-03 1.982032e-03 1.653016e-03 1.336305e-03 1.048062e-03 7.979824e-04 5.889268e-04 4.120326e-04 2.074037e-04 -4.039806e-04 
3.298151e-04 1.417480e-03 1.984366e-03 1.959824e-03 1.591846e-03 1.135843e-03 7.386021e-04 4.480295e-04 2.576158e-04 1.420540e-04 7.577657e-05 3.936674e-05 2.002250e-05 1.001177e-05 4.938052e-06 2.408895e-06 1.164763e-06 5.592074e-07 2.669523e-07 1.268550e-07 6.006099e-08 2.836013e-08 1.339566e-08 6.463401e-09 3.669084e-09 3.970808e-09 9.310231e-09 2.744076e-08 7.986072e-08 2.202076e-07 5.741288e-07 1.425461e-06 3.417003e-06 7.907703e-06 1.744417e-05 3.651098e-05 7.240030e-05 1.359976e-04 2.420917e-04 4.087046e-04 6.549921e-04 9.975705e-04 1.445664e-03 1.996086e-03 2.629514e-03 3.309518e-03 3.985288e-03 4.597995e-03 5.089669e-03 5.412607e-03 5.537141e-03 5.455984e-03 5.184344e-03 4.756098e-03 4.217200e-03 3.618023e-03 3.006260e-03 2.421589e-03 1.892649e-03 1.436126e-03 1.056350e-03 7.376059e-04 3.833825e-04 -5.753420e-04 
5.945378e-04 1.822745e-03 2.239584e-03 1.997142e-03 1.482903e-03 9.747849e-04 5.873323e-04 3.316811e-04 1.782863e-04 9.224471e-05 4.632810e-05 2.273181e-05 1.095220e-05 5.202073e-06 2.443624e-06 1.138079e-06 5.265820e-07 2.424448e-07 1.112154e-07 5.088141e-08 2.323696e-08 1.061186e-08 4.902417e-09 2.510304e-09 2.215563e-09 4.887765e-09 1.535467e-08 4.856859e-08 1.453729e-07 4.089584e-07 1.084199e-06 2.727588e-06 6.591108e-06 1.530006e-05 3.375462e-05 7.052449e-05 1.394210e-04 2.608332e-04 4.620800e-04 7.758668e-04 1.236103e-03 1.870968e-03 2.694108e-03 3.695939e-03 4.837682e-03 6.050615e-03 7.241925e-03 8.306754e-03 9.144185e-03 9.673582e-03 9.847529e-03 9.658489e-03 9.138020e-03 8.349295e-03 7.375149e-03 6.304618e-03 5.220752e-03 4.191679e-03 3.265754e-03 2.470339e-03 1.811530e-03 1.262646e-03 6.752643e-04 -7.591841e-04 
9.909983e-04 2.260083e-03 2.427624e-03 1.945730e-03 1.314908e-03 7.929816e-04 4.409873e-04 2.310082e-04 1.156922e-04 5.599466e-05 2.640444e-05 1.220662e-05 5.559043e-06 2.503428e-06 1.118137e-06 4.964786e-07 2.195603e-07 9.684611e-08 4.265517e-08 1.877629e-08 8.269629e-09 3.665065e-09 1.719595e-09 1.197018e-09 2.258812e-09 7.399553e-09 2.543867e-08 8.302972e-08 2.540671e-07 7.286183e-07 1.964103e-06 5.006640e-06 1.219529e-05 2.839624e-05 6.265636e-05 1.306807e-04 2.575346e-04 4.797649e-04 8.455823e-04 1.411547e-03 2.234634e-03 3.359775e-03 4.804739e-03 6.545956e-03 8.509742e-03 1.057285e-02 1.257413e-02 1.433607e-02 1.569200e-02 1.651288e-02 1.672758e-02 1.633236e-02 1.538791e-02 1.400570e-02 1.232756e-02 1.050321e-02 8.670388e-03 6.940661e-03 5.391965e-03 4.067158e-03 2.974167e-03 2.069766e-03 1.136799e-03 -9.064110e-04 
1.535849e-03 2.691058e-03 2.519105e-03 1.806578e-03 1.106094e-03 6.092683e-04 3.114122e-04 1.507301e-04 7.007974e-05 3.162555e-05 1.396156e-05 6.065600e-06 2.605307e-06 1.110302e-06 4.707874e-07 1.990410e-07 8.404477e-08 3.548737e-08 1.499835e-08 6.350334e-09 2.700864e-09 1.182548e-09 6.588049e-10 9.439713e-10 3.074904e-09 1.142385e-08 4.070120e-08 1.360165e-07 4.250990e-07 1.242922e-06 3.407653e-06 8.803641e-06 2.162217e-05 5.052002e-05 1.115335e-04 2.322915e-04 4.564338e-04 8.467371e-04 1.484591e-03 2.463322e-03 3.873835e-03 5.783309e-03 8.210584e-03 1.110448e-02 1.433215e-02 1.768318e-02 2.089127e-02 2.367067e-02 2.575994e-02 2.696349e-02 2.718148e-02 2.642207e-02 2.479435e-02 2.248499e-02 1.972503e-02 1.675441e-02 1.379121e-02 1.100996e-02 8.530849e-03 6.418128e-03 4.681233e-03 3.253339e-03 1.832436e-03 -9.392184e-04 
2.222037e-03 3.065867e-03 2.494496e-03 1.593410e-03 8.796025e-04 4.404311e-04 2.059612e-04 9.171861e-05 3.943362e-05 1.653452e-05 6.812626e-06 2.774131e-06 1.121320e-06 4.514116e-07 1.814502e-07 7.296457e-08 2.939341e-08 1.187456e-08 4.814559e-09 1.961848e-09 8.122426e-10 3.820299e-10 3.787291e-10 1.117601e-09 4.410943e-09 1.708624e-08 6.234590e-08 2.129516e-07 6.796450e-07 2.026374e-06 5.652316e-06 1.480633e-05 3.668756e-05 8.607539e-05 1.902704e-04 3.959621e-04 7.761122e-04 1.434182e-03 2.501796e-03 4.126060e-03 6.444771e-03 9.551683e-03 1.345856e-02 1.806415e-02 2.314079e-02 2.834601e-02 3.326045e-02 3.744615e-02 4.051324e-02 4.218072e-02 4.231791e-02 4.095883e-02 3.828784e-02 3.460215e-02 3.026064e-02 2.563063e-02 2.104222e-02 1.675692e-02 1.295240e-02 9.721127e-03 7.073145e-03 4.909735e-03 2.831279e-03 -7.580955e-04 
3.010529e-03 3.331847e-03 2.350110e-03 1.330793e-03 6.589337e-04 2.983663e-04 1.270157e-04 5.179565e-05 2.050471e-05 7.957967e-06 3.050182e-06 1.160968e-06 4.406382e-07 1.672815e-07 6.366427e-08 2.432916e-08 9.346065e-09 3.611910e-09 1.405509e-09 5.535471e-10 2.330476e-10 1.606739e-10 3.723693e-10 1.495002e-09 6.202178e-09 2.452827e-08 9.129262e-08 3.182969e-07 1.036900e-06 3.152468e-06 8.948960e-06 2.378084e-05 5.949231e-05 1.402912e-04 3.108162e-04 6.468878e-04 1.265739e-03 2.331153e-03 4.047323e-03 6.636056e-03 1.029588e-02 1.514803e-02 2.118100e-02 2.820937e-02 3.586160e-02 4.360563e-02 5.081123e-02 5.683841e-02 6.113377e-02 6.331437e-02 6.322187e-02 6.093705e-02 5.675435e-02 5.112470e-02 4.458085e-02 3.766092e-02 3.084392e-02 2.450582e-02 1.889908e-02 1.415167e-02 1.027266e-02 7.122361e-03 4.196434e-03 -2.598386e-04 
3.829452e-03 3.445388e-03 2.100862e-03 1.049354e-03 4.634458e-04 1.886896e-04 7.271740e-05 2.701206e-05 9.799226e-06 3.505414e-06 1.245446e-06 4.418372e-07 1.571234e-07 5.616478e-08 2.021897e-08 7.339497e-09 2.688568e-09 9.945371e-10 3.727046e-10 1.460140e-10 7.838384e-11 1.281955e-10 4.775333e-10 2.029929e-09 8.480697e-09 3.388043e-08 1.280119e-07 4.544065e-07 1.508916e-06 4.675391e-06 1.350702e-05 3.642827e-05 9.208787e-05 2.185105e-04 4.857842e-04 1.012254e-03 1.979059e-03 3.635499e-03 6.285850e-03 1.025052e-02 1.580149e-02 2.308216e-02 3.203060e-02 4.232926e-02 5.339992e-02 6.445238e-02 7.458140e-02 8.289399e-02 8.864123e-02 9.132783e-02 9.077821e-02 8.714825e-02 8.088385e-02 7.263868e-02 6.317014e-02 5.323455e-02 4.349962e-02 3.448542e-02 2.653743e-02 1.982646e-02 1.435820e-02 9.942629e-03 5.970314e-03 6.358270e-04 
4.583454e-03 3.383945e-03 1.778310e-03 7.793940e-04 3.052000e-04 1.110361e-04 3.849792e-05 1.294965e-05 4.281560e-06 1.405033e-06 4.609269e-07 1.519496e-07 5.052051e-08 1.698163e-08 5.779185e-09 1.992816e-09 6.966603e-10 2.475976e-10 9.184392e-11 4.389239e-11 5.489052e-11 1.714892e-10 6.786904e-10 2.795235e-09 1.144557e-08 4.551209e-08 1.729809e-07 6.216787e-07 2.097424e-06 6.612011e-06 1.942725e-05 5.318248e-05 1.359571e-04 3.250036e-04 7.259629e-04 1.516387e-03 2.965542e-03 5.438639e-03 9.371824e-03 1.520926e-02 2.330555e-02 3.381194e-02 4.657589e-02 6.108559e-02 7.648144e-02 9.163987e-02 1.053160e-01 1.163180e-01 1.236777e-01 1.267866e-01 1.254706e-01 1.199952e-01 1.110032e-01 9.940213e-02 8.622568e-02 7.249625e-02 5.911021e-02 4.676125e-02 3.590582e-02 2.676415e-02 1.933521e-02 1.336952e-02 8.158027e-03 1.957787e-03 
5.172769e-03 3.154011e-03 1.424066e-03 5.448072e-04 1.879939e-04 6.070686e-05 1.880491e-05 5.688704e-06 1.703276e-06 5.098802e-07 1.537413e-07 4.693742e-08 1.455887e-08 4.596811e-09 1.478711e-09 4.848193e-10 1.624700e-10 5.728747e-11 2.651429e-11 3.118430e-11 8.464169e-11 2.892461e-10 1.060719e-09 4.050334e-09 1.574446e-08 6.082541e-08 2.286344e-07 8.225889e-07 2.799676e-06 8.941657e-06 2.666142e-05 7.402906e-05 1.914591e-04 4.615575e-04 1.037126e-03 2.174190e-03 4.257966e-03 7.803794e-03 1.341390e-02 2.168032e-02 3.304350e-02 4.763758e-02 6.516612e-02 8.484903e-02 1.054637e-01 1.254780e-01 1.432497e-01 1.572535e-01 1.662919e-01 1.696532e-01 1.671915e-01 1.593201e-01 1.469237e-01 1.312122e-01 1.135440e-01 9.525175e-02 7.749720e-02 6.117468e-02 4.686754e-02 3.485034e-02 2.511093e-02 1.733161e-02 1.071238e-02 3.662576e-03 
5.517558e-03 2.791686e-03 1.080424e-03 3.592091e-04 1.085985e-04 3.091428e-05 8.490271e-06 2.291280e-06 6.163664e-07 1.671139e-07 4.604260e-08 1.296268e-08 3.741289e-09 1.108491e-09 3.372585e-10 1.056696e-10 3.530464e-11 1.641910e-11 2.075862e-11 5.495286e-11 1.709594e-10 5.536495e-10 1.855295e-09 6.448652e-09 2.310949e-08 8.407781e-08 3.043223e-07 1.074189e-06 3.636510e-06 1.165886e-05 3.508408e-05 9.853291e-05 2.576216e-04 6.265739e-04 1.417422e-03 2.984946e-03 5.859610e-03 1.074234e-02 1.843525e-02 2.969883e-02 4.505517e-02 6.458620e-02 8.778822e-02 1.135327e-01 1.401531e-01 1.656417e-01 1.879156e-01 2.050988e-01 2.157689e-01 2.191328e-01 2.151046e-01 2.042828e-01 1.878347e-01 1.673139e-01 1.444436e-01 1.209031e-01 9.815026e-02 7.730168e-02 5.907955e-02 4.381499e-02 3.147865e-02 2.167623e-02 1.352481e-02 5.629449e-03 
5.580356e-03 2.354912e-03 7.812235e-04 2.252717e-04 5.944166e-05 1.482959e-05 3.582771e-06 8.544464e-07 2.043893e-07 4.968645e-08 1.239934e-08 3.197914e-09 8.553525e-10 2.375004e-10 6.865839e-11 2.154729e-11 1.018863e-11 1.439618e-11 3.925710e-11 1.194801e-10 3.679116e-10 1.140132e-09 3.578903e-09 1.146292e-08 3.760663e-08 1.260028e-07 4.266029e-07 1.436262e-06 4.724550e-06 1.494173e-05 4.483924e-05 1.264526e-04 3.330791e-04 8.162273e-04 1.858118e-03 3.931087e-03 7.738182e-03 1.419858e-02 2.434396e-02 3.911787e-02 5.911270e-02 8.431635e-02 1.139513e-01 1.464634e-01 1.796716e-01 2.110427e-01 2.380299e-01 2.584076e-01 2.705490e-01 2.736087e-01 2.675940e-01 2.533212e-01 2.322717e-01 2.063731e-01 1.777422e-01 1.484309e-01 1.202136e-01 9.444331e-02 7.198679e-02 5.322963e-02 3.811722e-02 2.617005e-02 1.642630e-02 7.675594e-03 
5.379191e-03 1.909547e-03 5.459620e-04 1.370437e-04 3.160379e-05 6.897988e-06 1.457915e-06 3.043188e-07 6.388255e-08 1.371253e-08 3.052700e-09 7.120513e-10 1.749778e-10 4.552146e-11 1.317055e-11 6.300879e-12 9.916292e-12 2.807657e-11 8.592183e-11 2.628784e-10 7.989797e-10 2.417123e-09 7.306723e-09 2.217728e-08 6.790481e-08 2.103118e-07 6.578799e-07 2.064248e-06 6.421987e-06 1.953049e-05 5.723916e-05 1.596506e-04 4.197202e-04 1.030762e-03 2.353236e-03 4.991054e-03 9.840286e-03 1.806237e-02 3.093878e-02 4.960240e-02 7.469925e-02 1.060819e-01 1.426401e-01 1.823325e-01 2.224144e-01 2.598013e-01 2.914816e-01 3.149003e-01 3.282561e-01 3.306842e-01 3.223138e-01 3.042031e-01 2.781673e-01 2.465250e-01 2.118015e-01 1.764338e-01 1.425216e-01 1.116572e-01 8.484962e-02 6.253097e-02 4.461049e-02 3.051454e-02 1.920105e-02 9.589154e-03 
4.986566e-03 1.513928e-03 3.787881e-04 8.395177e-05 1.713046e-05 3.301310e-06 6.130083e-07 1.116947e-07 2.034632e-08 3.780198e-09 7.312859e-10 1.500867e-10 3.322820e-11 8.436485e-12 3.922537e-12 6.693763e-12 1.956335e-11 6.055287e-11 1.864951e-10 5.683670e-10 1.714052e-09 5.119883e-09 1.517050e-08 4.468376e-08 1.311484e-07 3.844053e-07 1.126268e-06 3.293729e-06 9.569433e-06 2.740234e-05 7.655250e-05 2.063851e-04 5.317346e-04 1.291441e-03 2.928316e-03 6.183562e-03 1.215302e-02 2.224642e-02 3.799677e-02 6.071892e-02 9.109295e-02 1.288052e-01 1.723778e-01 2.192527e-01 2.661075e-01 3.093116e-01 3.454118e-01 3.715559e-01 3.858023e-01 3.872955e-01 3.763063e-01 3.541464e-01 3.229703e-01 2.854894e-01 2.446371e-01 2.032322e-01 1.636931e-01 1.278418e-01 9.681616e-02 7.108069e-02 5.049481e-02 3.438209e-02 2.161572e-02 1.117200e-02 
4.513973e-03 1.207290e-03 2.720784e-04 5.480224e-05 1.018621e-05 1.783910e-06 2.990365e-07 4.865598e-08 7.797254e-09 1.252256e-09 2.060725e-10 3.579219e-11 7.073992e-12 2.661024e-12 4.440717e-12 1.321254e-11 4.135393e-11 1.285541e-10 3.950147e-10 1.199168e-09 3.596429e-09 1.065749e-08 3.121630e-08 9.042417e-08 2.592085e-07 7.357455e-07 2.068159e-06 5.752778e-06 1.579914e-05 4.266665e-05 1.126450e-04 2.886938e-04 7.129941e-04 1.675058e-03 3.703055e-03 7.671233e-03 1.485961e-02 2.689799e-02 4.553361e-02 7.222517e-02 1.076580e-01 1.513410e-01 2.014392e-01 2.549085e-01 3.078949e-01 3.562747e-01 3.962051e-01 4.245811e-01 4.393522e-01 4.396885e-01 4.260056e-01 3.998603e-01 3.637304e-01 3.206992e-01 2.740837e-01 2.270584e-01 1.823335e-01 1.419345e-01 1.071053e-01 7.832386e-02 5.538689e-02 3.751153e-02 2.348926e-02 1.228190e-02 
4.023387e-03 9.715148e-04 2.018276e-04 3.784316e-05 6.577553e-06 1.078163e-06 1.687507e-07 2.547633e-08 3.745385e-09 5.419982e-10 7.837766e-11 1.178014e-11 2.595681e-12 2.935197e-12 8.516591e-12 2.686852e-11 8.425563e-11 2.610954e-10 7.989752e-10 2.413478e-09 7.194379e-09 2.115732e-08 6.136689e-08 1.755109e-07 4.948107e-07 1.374492e-06 3.759072e-06 1.010867e-05 2.667409e-05 6.885829e-05 1.731934e-04 4.223269e-04 9.928169e-04 2.230004e-03 4.747937e-03 9.539620e-03 1.803302e-02 3.201867e-02 5.338548e-02 8.367053e-02 1.235293e-01 1.723048e-01 2.278626e-01 2.867647e-01 3.447290e-01 3.972361e-01 4.401296e-01 4.701022e-01 4.850200e-01 4.840830e-01 4.678393e-01 4.380657e-01 3.975277e-01 3.496367e-01 2.980438e-01 2.462274e-01 1.971398e-01 1.529670e-01 1.150258e-01 8.378557e-02 5.897105e-02 3.969832e-02 2.469025e-02 1.284768e-02 
3.503547e-03 7.706290e-04 1.486501e-04 2.614765e-05 4.289722e-06 6.660629e-07 9.890320e-08 1.415835e-08 1.967696e-09 2.674430e-10 3.600717e-11 5.296561e-12 2.241401e-12 5.205982e-12 1.635410e-11 5.163046e-11 1.611369e-10 4.965326e-10 1.509852e-09 4.528276e-09 1.338782e-08 3.899559e-08 1.118345e-07 3.155588e-07 8.753154e-07 2.384407e-06 6.370283e-06 1.666345e-05 4.258433e-05 1.060255e-04 2.563138e-04 5.992431e-04 1.348883e-03 2.906498e-03 5.964039e-03 1.160924e-02 2.137168e-02 3.713434e-02 6.084923e-02 9.406601e-02 1.373833e-01 1.900068e-01 2.495870e-01 3.124127e-01 3.739050e-01 4.292640e-01 4.741057e-01 5.049725e-01 5.196694e-01 5.174264e-01 4.989068e-01 4.660764e-01 4.219438e-01 3.701907e-01 3.147350e-01 2.592869e-01 2.069719e-01 1.600778e-01 1.199507e-01 8.702625e-02 6.095126e-02 4.075364e-02 2.510736e-02 1.285900e-02 