# vtk DataFile Version 2.0
Comment goes here
ASCII

DATASET STRUCTURED_POINTS
DIMENSIONS    64   64   1

ORIGIN    0.000   0.000   0.000
SPACING   0.0158730.015873   1.000

POINT_DATA   4096
SCALARS Concentration double
LOOKUP_TABLE default

1.892968e-14 4.099510e-14 4.192258e-14 2.942007e-14 1.605870e-14 7.260297e-15 2.823127e-15 9.680101e-16 2.979099e-16 8.337832e-17 2.143775e-17 5.104379e-18 1.132823e-18 2.355922e-19 4.611985e-20 8.530943e-21 1.495924e-21 2.493779e-22 3.962069e-23 6.012474e-24 8.731069e-25 1.211929e-25 1.425066e-26 -7.522927e-27 -3.828710e-26 -1.023125e-25 1.051874e-25 3.777062e-24 3.212138e-23 2.040039e-22 1.204529e-21 7.960922e-21 6.723541e-20 5.953825e-19 4.422376e-18 2.731044e-17 1.390587e-16 5.754638e-16 1.909357e-15 5.064945e-15 1.091543e-14 1.960650e-14 3.015559e-14 4.071083e-14 4.929324e-14 5.451320e-14 5.589104e-14 5.375644e-14 4.892550e-14 4.236905e-14 3.498902e-14 2.752303e-14 2.053921e-14 1.445576e-14 9.536072e-15 5.865274e-15 3.351520e-15 1.776071e-15 8.728487e-16 3.992497e-16 1.754394e-16 9.529390e-17 3.448054e-17 -4.655072e-15 
9.117589e-14 1.873430e-13 1.828722e-13 1.232630e-13 6.493314e-14 2.844057e-14 1.074760e-14 3.590973e-15 1.079337e-15 2.956125e-16 7.450732e-17 1.741719e-17 3.800194e-18 7.779386e-19 1.500696e-19 2.738150e-20 4.740467e-21 7.808790e-22 1.226859e-22 1.842386e-23 2.649520e-24 3.657366e-25 5.148493e-26 4.054708e-26 3.471176e-25 3.106945e-24 2.472716e-23 1.745512e-22 1.100699e-21 6.348445e-21 3.542026e-20 2.125314e-19 1.576477e-18 1.269342e-17 8.970180e-17 5.389524e-16 2.698718e-15 1.104162e-14 3.632131e-14 9.567403e-14 2.049734e-13 3.663896e-13 5.613838e-13 7.558619e-13 9.138542e-13 1.010357e-12 1.036835e-12 9.992034e-13 9.119836e-13 7.924382e-13 6.567020e-13 5.181978e-13 3.875995e-13 2.731026e-13 1.801158e-13 1.106072e-13 6.302555e-14 3.326971e-14 1.626867e-14 7.377421e-15 3.108665e-15 1.206862e-15 -2.430669e-16 -2.724572e-14 
4.290723e-13 8.216025e-13 7.603473e-13 4.898665e-13 2.480608e-13 1.049004e-13 3.840898e-14 1.247073e-14 3.651544e-15 9.763670e-16 2.406966e-16 5.512411e-17 1.180028e-17 2.373104e-18 4.502494e-19 8.088371e-20 1.380002e-20 2.242182e-21 3.477373e-22 5.158441e-23 7.332953e-24 1.002722e-24 1.602256e-25 3.598481e-25 3.660491e-24 3.492607e-23 2.975099e-22 2.259799e-21 1.540437e-20 9.625600e-20 5.791531e-19 3.676294e-18 2.779595e-17 2.230634e-16 1.567755e-15 9.365168e-15 4.661065e-14 1.894724e-13 6.189167e-13 1.618071e-12 3.439763e-12 6.101458e-12 9.280085e-12 1.240954e-11 1.491003e-11 1.639276e-11 1.673953e-11 1.606173e-11 1.460230e-11 1.264170e-11 1.043802e-11 8.204143e-12 6.108818e-12 4.281331e-12 2.805868e-12 1.710542e-12 9.667221e-13 5.057245e-13 2.449031e-13 1.099162e-13 4.580801e-14 1.767851e-14 2.864917e-15 -1.293662e-13 
1.952262e-12 3.446906e-12 3.005349e-12 1.842165e-12 8.934017e-13 3.636377e-13 1.286620e-13 4.049966e-14 1.152838e-14 3.003678e-15 7.230014e-16 1.619607e-16 3.396548e-17 6.701059e-18 1.248822e-18 2.206041e-19 3.704890e-20 5.930704e-21 9.069593e-22 1.327657e-22 1.863794e-23 2.530922e-24 5.777651e-25 3.193389e-24 3.566599e-23 3.628597e-22 3.309380e-21 2.703585e-20 1.989819e-19 1.344251e-18 8.697887e-18 5.826535e-17 4.487033e-16 3.589055e-15 2.509080e-14 1.490323e-13 7.372801e-13 2.977662e-12 9.658038e-12 2.505713e-11 5.284697e-11 9.300657e-11 1.404006e-10 1.864404e-10 2.225919e-10 2.433479e-10 2.472593e-10 2.362046e-10 2.138923e-10 1.844854e-10 1.517580e-10 1.187971e-10 8.804327e-11 6.136240e-11 3.995152e-11 2.417083e-11 1.354346e-11 7.018426e-12 3.364342e-12 1.493766e-12 6.155598e-13 2.355453e-13 6.695963e-14 -5.852489e-13 
8.580220e-12 1.379890e-11 1.125508e-11 6.530170e-12 3.020815e-12 1.179487e-12 4.021176e-13 1.224058e-13 3.379668e-14 8.562969e-15 2.008770e-15 4.393923e-16 9.012878e-17 1.741804e-17 3.183928e-18 5.523330e-19 9.119128e-20 1.436470e-20 2.163583e-21 3.121882e-22 4.323656e-23 5.891828e-24 2.754020e-24 2.677124e-23 3.201889e-22 3.470459e-21 3.386097e-20 2.971732e-19 2.357449e-18 1.717716e-17 1.191736e-16 8.403894e-16 6.586473e-15 5.250894e-14 3.651650e-13 2.156831e-12 1.060644e-11 4.255926e-11 1.370597e-10 3.528419e-10 7.381900e-10 1.288829e-09 1.930841e-09 2.546020e-09 3.020472e-09 3.283629e-09 3.320056e-09 3.158000e-09 2.848708e-09 2.448215e-09 2.006608e-09 1.564549e-09 1.154141e-09 7.999039e-10 5.173372e-10 3.105719e-10 1.724995e-10 8.853111e-11 4.199745e-11 1.844148e-11 7.511904e-12 2.843333e-12 9.194277e-13 -2.518979e-12 
3.639070e-11 5.254430e-11 3.977493e-11 2.172128e-11 9.542507e-12 3.561304e-12 1.166289e-12 3.423945e-13 9.147522e-14 2.248877e-14 5.131184e-15 1.093911e-15 2.190887e-16 4.140721e-17 7.412701e-18 1.260962e-18 2.043797e-19 3.163823e-20 4.687336e-21 6.658504e-22 9.089567e-23 1.288604e-23 1.628094e-23 2.066395e-22 2.627096e-21 3.031093e-20 3.160710e-19 2.975891e-18 2.539724e-17 1.990882e-16 1.476739e-15 1.093669e-14 8.716912e-14 6.926362e-13 4.792174e-12 2.814906e-11 1.376088e-10 5.486024e-10 1.754090e-09 4.480211e-09 9.296588e-09 1.610010e-08 2.393518e-08 3.133865e-08 3.694410e-08 3.994080e-08 4.019066e-08 3.807046e-08 3.421579e-08 2.930481e-08 2.393568e-08 1.859095e-08 1.365165e-08 9.409014e-09 6.044537e-09 3.600250e-09 1.981865e-09 1.007139e-09 4.726898e-10 2.052201e-10 8.260543e-11 3.089653e-11 1.034055e-11 -1.010801e-11 
1.486417e-10 1.895180e-10 1.319764e-10 6.742674e-11 2.799939e-11 9.949434e-12 3.119621e-12 8.807187e-13 2.270864e-13 5.404295e-14 1.196716e-14 2.481521e-15 4.843491e-16 8.936275e-17 1.564067e-17 2.604745e-18 4.138197e-19 6.285940e-20 9.147413e-21 1.277490e-21 1.718254e-22 2.825768e-23 1.008723e-22 1.447852e-21 1.951565e-20 2.394573e-19 2.665362e-18 2.687918e-17 2.462690e-16 2.071420e-15 1.637913e-14 1.271084e-13 1.029599e-12 8.154512e-12 5.613909e-11 3.279900e-10 1.594089e-09 6.314276e-09 2.004353e-08 5.078576e-08 1.045051e-07 1.794991e-07 2.647840e-07 3.442364e-07 4.032711e-07 4.336237e-07 4.343246e-07 4.097958e-07 3.670399e-07 3.133606e-07 2.551221e-07 1.974337e-07 1.443387e-07 9.893589e-08 6.313283e-08 3.730565e-08 2.035042e-08 1.023799e-08 4.752952e-09 2.039695e-09 8.110775e-10 2.995984e-10 1.007401e-10 -3.602373e-11 
5.823150e-10 6.438134e-10 4.085837e-10 1.940395e-10 7.578866e-11 2.553864e-11 7.640085e-12 2.067829e-12 5.131479e-13 1.179162e-13 2.528148e-14 5.087844e-15 9.657677e-16 1.736019e-16 2.965057e-17 4.825504e-18 7.501441e-19 1.116249e-19 1.592941e-20 2.183704e-21 2.898447e-22 7.115416e-23 5.889463e-22 9.096666e-21 1.298014e-19 1.691645e-18 2.006896e-17 2.163683e-16 2.123194e-15 1.910845e-14 1.605956e-13 1.303059e-12 1.072056e-11 8.464289e-11 5.799544e-10 3.370826e-09 1.628984e-08 6.411394e-08 2.020416e-07 5.077729e-07 1.036005e-06 1.764601e-06 2.582655e-06 3.333954e-06 3.881690e-06 4.152054e-06 4.140660e-06 3.892670e-06 3.475764e-06 2.959070e-06 2.402184e-06 1.852813e-06 1.348892e-06 9.196682e-07 5.829705e-07 3.417516e-07 1.847268e-07 9.198867e-08 4.223375e-08 1.791091e-08 7.034082e-09 2.565020e-09 8.572148e-10 -9.957292e-11 
2.171147e-09 2.044104e-09 1.170944e-09 5.135479e-10 1.877177e-10 5.973544e-11 1.698878e-11 4.394013e-12 1.046376e-12 2.315369e-13 4.794238e-14 9.341331e-15 1.720481e-15 3.006507e-16 5.000390e-17 7.936505e-18 1.204847e-18 1.752974e-19 2.448602e-20 3.289180e-21 4.343823e-22 2.267252e-22 3.090354e-21 5.056778e-20 7.626797e-19 1.054030e-17 1.330243e-16 1.529773e-15 1.603472e-14 1.539404e-13 1.370964e-12 1.160526e-11 9.692533e-11 7.630544e-10 5.205138e-09 3.010520e-08 1.446901e-07 5.659034e-07 1.770331e-06 4.412422e-06 8.924481e-06 1.507174e-05 2.188518e-05 2.805420e-05 3.246823e-05 3.455837e-05 3.432665e-05 3.216852e-05 2.864883e-05 2.433385e-05 1.970749e-05 1.515698e-05 1.099296e-05 7.457261e-06 4.696664e-06 2.731706e-06 1.463087e-06 7.211107e-07 3.273723e-07 1.371744e-07 5.319311e-08 1.914320e-08 6.330842e-09 -9.009906e-11 
7.605676e-09 6.002737e-09 3.075921e-09 1.238009e-09 4.214196e-10 1.261158e-10 3.397340e-11 8.369061e-12 1.906618e-12 4.050783e-13 8.078158e-14 1.519896e-14 2.709280e-15 4.591232e-16 7.418188e-17 1.145593e-17 1.694533e-18 2.405249e-19 3.281457e-20 4.310932e-21 5.834592e-22 8.292402e-22 1.420644e-20 2.448397e-19 3.895417e-18 5.696371e-17 7.629059e-16 9.332133e-15 1.041562e-13 1.063054e-12 9.999711e-12 8.811239e-11 7.466995e-10 5.863828e-09 3.984139e-08 2.293970e-07 1.096819e-06 4.263624e-06 1.324066e-05 3.272258e-05 6.559468e-05 1.098181e-04 1.582028e-04 2.014064e-04 2.317729e-04 2.455866e-04 2.431108e-04 2.272569e-04 2.020158e-04 1.713252e-04 1.385298e-04 1.063145e-04 7.686386e-05 5.190567e-05 3.249200e-05 1.875429e-05 9.954114e-06 4.855888e-06 2.179701e-06 9.022949e-07 3.454218e-07 1.226556e-07 4.006352e-08 1.289382e-09 
2.456084e-08 1.608246e-08 7.317119e-09 2.687746e-09 8.481570e-10 2.377609e-10 6.044873e-11 1.413533e-11 3.070922e-12 6.245351e-13 1.195958e-13 2.166580e-14 3.727230e-15 6.108313e-16 9.561686e-17 1.432884e-17 2.059689e-18 2.844777e-19 3.780995e-20 4.848394e-21 7.359896e-22 2.948990e-21 5.604814e-20 1.013612e-18 1.696382e-17 2.616875e-16 3.706937e-15 4.805890e-14 5.689360e-13 6.148656e-12 6.086800e-11 5.569247e-10 4.786943e-09 3.752292e-08 2.541191e-07 1.457489e-06 6.936032e-06 2.680496e-05 8.263655e-05 2.024550e-04 4.021052e-04 6.672475e-04 9.536334e-04 1.206024e-03 1.380647e-03 1.457390e-03 1.439062e-03 1.343221e-03 1.193137e-03 1.011492e-03 8.175060e-04 6.267425e-04 4.521421e-04 3.041942e-04 1.893820e-04 1.085273e-04 5.710004e-05 2.757467e-05 1.223929e-05 5.005216e-06 1.891519e-06 6.626293e-07 2.135774e-07 1.174443e-08 
7.132822e-08 3.864771e-08 1.553982e-08 5.187912e-09 1.511991e-09 3.956382e-10 9.461482e-11 2.093308e-11 4.322850e-12 8.388490e-13 1.537628e-13 2.673607e-14 4.425032e-15 6.991200e-16 1.056950e-16 1.532233e-17 2.133737e-18 2.858799e-19 3.690299e-20 4.613159e-21 9.742354e-22 9.224442e-21 1.859178e-19 3.513355e-18 6.159714e-17 9.980067e-16 1.488358e-14 2.035097e-13 2.542458e-12 2.894944e-11 3.002695e-10 2.844627e-09 2.479117e-08 1.941851e-07 1.312308e-06 7.504945e-06 3.557501e-05 1.367442e-04 4.185251e-04 1.016167e-03 1.998906e-03 3.286787e-03 4.660579e-03 5.857425e-03 6.675846e-03 7.027970e-03 6.931614e-03 6.470574e-03 5.753146e-03 4.884174e-03 3.952822e-03 3.032510e-03 2.186345e-03 1.467398e-03 9.095283e-04 5.178904e-04 2.702587e-04 1.292510e-04 5.674250e-05 2.292737e-05 8.553767e-06 2.956242e-06 9.398908e-07 6.308073e-08 
1.811401e-07 8.171465e-08 2.901263e-08 8.784400e-09 2.358453e-09 5.744465e-10 1.288383e-10 2.688694e-11 5.261085e-12 9.709581e-13 1.697970e-13 2.824162e-14 4.481434e-15 6.801931e-16 9.896592e-17 1.382910e-17 1.858942e-18 2.407261e-19 3.007046e-20 3.671846e-21 1.499124e-21 2.422479e-20 5.085631e-19 9.983356e-18 1.822373e-16 3.081190e-15 4.805017e-14 6.880926e-13 9.007766e-12 1.073294e-10 1.159623e-09 1.133206e-08 1.001094e-07 7.850057e-07 5.303570e-06 3.029113e-05 1.432005e-04 5.478952e-04 1.665046e-03 4.004615e-03 7.797126e-03 1.269914e-02 1.786685e-02 2.232992e-02 2.536826e-02 2.668083e-02 2.634146e-02 2.465226e-02 2.199857e-02 1.875410e-02 1.524074e-02 1.173146e-02 8.473050e-03 5.684667e-03 3.513689e-03 1.990463e-03 1.031221e-03 4.887504e-04 2.123281e-04 8.479799e-05 3.123994e-05 1.065335e-05 3.340768e-06 2.476643e-07 
3.918190e-07 1.492366e-07 4.694373e-08 1.289428e-08 3.185638e-09 7.209190e-10 1.512845e-10 2.969867e-11 5.490017e-12 9.605532e-13 1.597152e-13 2.532125e-14 3.838221e-15 5.575491e-16 7.776783e-17 1.043322e-17 1.348285e-18 1.680564e-19 2.023093e-20 2.446062e-21 2.538621e-21 5.247270e-20 1.134557e-18 2.294643e-17 4.323210e-16 7.557536e-15 1.220511e-13 1.812202e-12 2.460897e-11 3.039006e-10 3.392284e-09 3.401447e-08 3.045054e-07 2.397398e-06 1.623855e-05 9.285347e-05 4.386226e-04 1.672400e-03 5.047456e-03 1.201640e-02 2.313344e-02 3.729266e-02 5.205862e-02 6.475592e-02 7.346007e-02 7.738427e-02 7.671999e-02 7.224469e-02 6.495514e-02 5.583243e-02 4.574486e-02 3.546521e-02 2.574800e-02 1.731742e-02 1.069826e-02 6.039788e-03 3.110511e-03 1.462369e-03 6.291008e-04 2.484551e-04 9.041786e-05 3.043298e-05 9.414124e-06 7.399556e-07 
7.100264e-07 2.325663e-07 6.523734e-08 1.629306e-08 3.705016e-09 7.782835e-10 1.525510e-10 2.810768e-11 4.895644e-12 8.096322e-13 1.275860e-13 1.921423e-14 2.772080e-15 3.839254e-16 5.113453e-17 6.559535e-18 8.115316e-19 9.694512e-20 1.120020e-20 1.412195e-21 4.167588e-21 9.473502e-20 2.089043e-18 4.311790e-17 8.298909e-16 1.483550e-14 2.452216e-13 3.729148e-12 5.187968e-11 6.560699e-10 7.487604e-09 7.650139e-08 6.934953e-07 5.500925e-06 3.748046e-05 2.151822e-04 1.017947e-03 3.872884e-03 1.160919e-02 2.732389e-02 5.192208e-02 8.272835e-02 1.145141e-01 1.418466e-01 1.609488e-01 1.702774e-01 1.701189e-01 1.618454e-01 1.472656e-01 1.282172e-01 1.063999e-01 8.344184e-02 6.112159e-02 4.133319e-02 2.557770e-02 1.441336e-02 7.386605e-03 3.447111e-03 1.469078e-03 5.738919e-04 2.063374e-04 6.855108e-05 2.091799e-05 1.710073e-06 
1.077899e-06 3.089188e-07 7.783942e-08 1.773110e-08 3.714575e-09 7.240164e-10 1.323908e-10 2.285272e-11 3.741797e-12 5.833765e-13 8.687537e-14 1.238918e-14 1.695615e-15 2.231266e-16 2.827514e-17 3.455314e-18 4.076871e-19 4.649360e-20 5.138972e-21 7.953238e-22 6.298070e-21 1.484158e-19 3.315124e-18 6.934120e-17 1.353265e-15 2.454314e-14 4.117830e-13 6.358734e-12 8.984604e-11 1.153838e-09 1.336469e-08 1.383794e-07 1.267691e-06 1.013555e-05 6.950877e-05 4.008997e-04 1.900008e-03 7.213497e-03 2.146253e-02 4.986495e-02 9.333196e-02 1.466484e-01 2.008939e-01 2.474595e-01 2.806696e-01 2.982499e-01 3.005025e-01 2.892098e-01 2.667847e-01 2.357609e-01 1.985940e-01 1.578645e-01 1.168558e-01 7.952874e-02 4.931251e-02 2.773230e-02 1.413588e-02 6.543674e-03 2.760557e-03 1.065819e-03 3.782867e-04 1.239562e-04 3.728430e-05 3.138789e-06 
1.386842e-06 3.525297e-07 8.029552e-08 1.673010e-08 3.231994e-09 5.843876e-10 9.958642e-11 1.607925e-11 2.470039e-12 3.622148e-13 5.084450e-14 6.847463e-15 8.864664e-16 1.104994e-16 1.328141e-17 1.541196e-18 1.728541e-19 1.875626e-20 1.983432e-21 5.452064e-22 8.788028e-21 2.102776e-19 4.738520e-18 1.000184e-16 1.970353e-15 3.608172e-14 6.114102e-13 9.537430e-12 1.361465e-10 1.766381e-09 2.066372e-08 2.159405e-07 1.993904e-06 1.604500e-05 1.106150e-04 6.402290e-04 3.036962e-03 1.149488e-02 3.390953e-02 7.764722e-02 1.428677e-01 2.208817e-01 2.987644e-01 3.651565e-01 4.131695e-01 4.402479e-01 4.467357e-01 4.345048e-01 4.060719e-01 3.641111e-01 3.112890e-01 2.507480e-01 1.874322e-01 1.282143e-01 7.952349e-02 4.454383e-02 2.253575e-02 1.032639e-02 4.303571e-03 1.639021e-03 5.732399e-04 1.849610e-04 5.475683e-05 4.718644e-06 
1.536815e-06 3.498756e-07 7.237519e-08 1.382234e-08 2.463801e-09 4.131038e-10 6.553817e-11 9.883024e-12 1.421738e-12 1.956865e-13 2.583268e-14 3.277405e-15 4.003089e-16 4.714237e-17 5.359701e-18 5.889462e-19 6.261134e-20 6.446152e-21 6.596014e-22 5.105334e-22 1.148751e-20 2.771507e-19 6.287227e-18 1.336116e-16 2.650404e-15 4.887760e-14 8.341661e-13 1.310618e-11 1.884430e-10 2.462362e-09 2.900502e-08 3.050693e-07 2.832738e-06 2.290091e-05 1.584473e-04 9.189120e-04 4.356890e-03 1.642076e-02 4.797206e-02 1.081225e-01 1.952928e-01 2.966307e-01 3.954640e-01 4.786575e-01 5.391518e-01 5.747655e-01 5.860525e-01 5.747634e-01 5.430644e-01 4.931493e-01 4.271250e-01 3.479315e-01 2.619607e-01 1.795677e-01 1.110363e-01 6.173544e-02 3.089659e-02 1.396943e-02 5.734109e-03 2.148264e-03 7.384953e-04 2.340864e-04 6.806453e-05 5.979076e-06 
1.490946e-06 3.059750e-07 5.765952e-08 1.010543e-08 1.662015e-09 2.582182e-10 3.808975e-11 5.355798e-12 7.201464e-13 9.283921e-14 1.150001e-14 1.371245e-15 1.576375e-16 1.749512e-17 1.876707e-18 1.947815e-19 1.957806e-20 1.907998e-21 2.004800e-22 5.685519e-22 1.421875e-20 3.451273e-19 7.873940e-18 1.682908e-16 3.357548e-15 6.227571e-14 1.068947e-12 1.689108e-11 2.442318e-10 3.208838e-09 3.799525e-08 4.015398e-07 3.743755e-06 3.036416e-05 2.105605e-04 1.222081e-03 5.785215e-03 2.169033e-02 6.269937e-02 1.389794e-01 2.462542e-01 3.672422e-01 4.822308e-01 5.774354e-01 6.465566e-01 6.883006e-01 7.036011e-01 6.940362e-01 6.612097e-01 6.064372e-01 5.306102e-01 4.356736e-01 3.291270e-01 2.251038e-01 1.381490e-01 7.590527e-02 3.742014e-02 1.662834e-02 6.698154e-03 2.460269e-03 8.287284e-04 2.573373e-04 7.330464e-05 6.543199e-06 
1.285025e-06 2.386472e-07 4.103216e-08 6.600543e-09 1.000969e-09 1.439218e-10 1.970692e-11 2.578815e-12 3.234177e-13 3.896403e-14 4.518218e-15 5.051150e-16 5.451884e-17 5.688102e-18 5.742710e-19 5.615718e-20 5.323533e-21 4.903938e-22 6.728949e-23 6.500263e-22 1.673690e-20 4.085421e-19 9.372276e-18 2.014154e-16 4.040296e-15 7.534257e-14 1.300083e-12 2.064976e-11 3.000768e-10 3.961435e-09 4.711605e-08 4.999192e-07 4.676354e-06 3.802218e-05 2.640675e-04 1.532749e-03 7.240045e-03 2.698975e-02 7.716617e-02 1.681692e-01 2.923220e-01 4.281662e-01 5.539729e-01 6.563211e-01 7.302283e-01 7.754618e-01 7.933593e-01 7.853377e-01 7.524322e-01 6.949590e-01 6.122334e-01 5.046839e-01 3.807567e-01 2.585086e-01 1.566441e-01 8.462733e-02 4.090204e-02 1.778496e-02 7.001895e-03 2.512054e-03 8.263110e-04 2.505754e-04 6.973089e-05 6.308513e-06 
9.961063e-07 1.677072e-07 2.631339e-08 3.881929e-09 5.420223e-10 7.198825e-11 9.130287e-12 1.109295e-12 1.294367e-13 1.453552e-14 1.573742e-15 1.645191e-16 1.662790e-17 1.626600e-18 1.541596e-19 1.416717e-20 1.263465e-21 1.103101e-22 3.522087e-23 7.181315e-22 1.869415e-20 4.591191e-19 1.059622e-17 2.290742e-16 4.621980e-15 8.668264e-14 1.504090e-12 2.401865e-11 3.508296e-10 4.653911e-09 5.559894e-08 5.922410e-07 5.557513e-06 4.529204e-05 3.149943e-04 1.828300e-03 8.616950e-03 3.194121e-02 9.034284e-02 1.936406e-01 3.304737e-01 4.759826e-01 6.076064e-01 7.130352e-01 7.887387e-01 8.353802e-01 8.545548e-01 8.475038e-01 8.147715e-01 7.557334e-01 6.680550e-01 5.505183e-01 4.126904e-01 2.766216e-01 1.645967e-01 8.697782e-02 4.101131e-02 1.736961e-02 6.655410e-03 2.323190e-03 7.435861e-04 2.194855e-04 5.949229e-05 5.444532e-06 
7.012764e-07 1.070385e-07 1.530826e-08 2.067314e-09 2.651549e-10 3.244506e-11 3.800889e-12 4.275049e-13 4.627241e-14 4.829047e-15 4.866966e-16 4.743587e-17 4.476282e-18 4.093865e-19 3.631987e-20 3.128202e-21 2.617839e-22 2.220905e-23 2.858394e-23 7.475572e-22 1.962309e-20 4.855006e-19 1.128675e-17 2.457493e-16 4.993166e-15 9.428328e-14 1.646797e-12 2.646484e-11 3.889019e-10 5.188271e-09 6.230540e-08 6.667185e-07 6.279742e-06 5.132350e-05 3.576239e-04 2.076850e-03 9.772995e-03 3.605008e-02 1.009685e-01 2.131090e-01 3.576986e-01 5.076946e-01 6.408500e-01 7.463514e-01 8.218894e-01 8.686379e-01 8.882023e-01 8.815966e-01 8.489567e-01 7.888517e-01 6.974350e-01 5.720795e-01 4.239468e-01 2.790180e-01 1.621458e-01 8.337475e-02 3.816660e-02 1.567436e-02 5.820795e-03 1.969296e-03 6.111397e-04 1.750120e-04 4.606749e-05 4.259153e-06 
4.516976e-07 6.240162e-08 8.114859e-09 1.000208e-09 1.174604e-10 1.319614e-11 1.422837e-12 1.476198e-13 1.476857e-14 1.427258e-15 1.334381e-16 1.208417e-17 1.061167e-18 9.044579e-20 7.488401e-21 6.027046e-22 4.721410e-23 4.457846e-24 2.580221e-23 7.163466e-22 1.898572e-20 4.741713e-19 1.112647e-17 2.444942e-16 5.012699e-15 9.549145e-14 1.682285e-12 2.726034e-11 4.037824e-10 5.427265e-09 6.562815e-08 7.066367e-07 6.690546e-06 5.491427e-05 3.839255e-04 2.234120e-03 1.051352e-02 3.866412e-02 1.074669e-01 2.239455e-01 3.708443e-01 5.204461e-01 6.517103e-01 7.552815e-01 8.295697e-01 8.757880e-01 8.952988e-01 8.888317e-01 8.561840e-01 7.952820e-01 7.010646e-01 5.700246e-01 4.155236e-01 2.671162e-01 1.508264e-01 7.509792e-02 3.322366e-02 1.317430e-02 4.722937e-03 1.543002e-03 4.627029e-04 1.281494e-04 3.266394e-05 3.049112e-06 
2.675285e-07 3.334392e-08 3.927849e-09 4.400498e-10 4.711276e-11 4.838300e-12 4.780359e-13 4.555011e-14 4.194091e-15 3.737816e-16 3.228697e-17 2.706285e-18 2.203395e-19 1.744061e-20 1.343115e-21 1.007033e-22 7.378141e-24 1.241433e-24 2.155213e-23 6.108712e-22 1.638724e-20 4.142545e-19 9.838789e-18 2.188215e-16 4.540443e-15 8.752745e-14 1.560113e-12 2.557158e-11 3.830011e-10 5.203178e-09 6.355645e-08 6.907334e-07 6.594235e-06 5.451665e-05 3.835565e-04 2.243293e-03 1.059119e-02 3.897140e-02 1.079513e-01 2.232049e-01 3.666190e-01 5.114005e-01 6.381855e-01 7.386313e-01 8.112135e-01 8.567334e-01 8.761083e-01 8.697429e-01 8.371576e-01 7.758282e-01 6.799250e-01 5.458049e-01 3.895326e-01 2.433996e-01 1.329105e-01 6.379889e-02 2.716543e-02 1.036116e-02 3.573039e-03 1.123511e-03 3.245484e-04 8.668357e-05 2.133904e-05 2.011724e-06 
1.461248e-07 1.635160e-08 1.735725e-09 1.757979e-10 1.706503e-11 1.593281e-12 1.434799e-13 1.249086e-14 1.053189e-15 8.614008e-17 6.843085e-18 5.285955e-19 3.974002e-20 2.910173e-21 2.077321e-22 1.446332e-23 9.984247e-25 5.694496e-25 1.533685e-23 4.416751e-22 1.202415e-20 3.085342e-19 7.439662e-18 1.680183e-16 3.540690e-15 6.932829e-14 1.255256e-12 2.090026e-11 3.179696e-10 4.387069e-09 5.440694e-08 6.000420e-07 5.808822e-06 4.865045e-05 3.463884e-04 2.047659e-03 9.755904e-03 3.614744e-02 1.005224e-01 2.079872e-01 3.417654e-01 4.775161e-01 5.976402e-01 6.941340e-01 7.648782e-01 8.098781e-01 8.294386e-01 8.235851e-01 7.915955e-01 7.307118e-01 6.349197e-01 5.013038e-01 3.487714e-01 2.109158e-01 1.109266e-01 5.113864e-02 2.088423e-02 7.636867e-03 2.525694e-03 7.622291e-04 2.115511e-04 5.435696e-05 1.289448e-05 1.229175e-06 
7.367875e-08 7.353528e-09 6.986162e-10 6.352991e-11 5.553662e-12 4.682871e-13 3.819023e-14 3.018922e-15 2.317350e-16 1.729886e-17 1.257389e-18 8.908479e-20 6.157526e-21 4.155369e-22 2.739681e-23 1.765990e-24 1.199952e-25 2.895683e-25 8.733220e-24 2.556707e-22 7.077242e-21 1.847330e-19 4.533513e-18 1.042551e-16 2.238288e-15 4.467490e-14 8.250065e-13 1.401857e-11 2.177840e-10 3.070208e-09 3.892812e-08 4.391971e-07 4.351743e-06 3.728468e-05 2.711603e-04 1.634933e-03 7.933050e-03 2.988649e-02 8.434870e-02 1.767903e-01 2.940682e-01 4.157975e-01 5.263065e-01 6.174615e-01 6.860631e-01 7.309853e-01 7.516919e-01 7.476659e-01 7.178759e-01 6.595070e-01 5.669954e-01 4.389511e-01 2.966524e-01 1.730209e-01 8.736152e-02 3.856807e-02 1.506630e-02 5.269162e-03 1.667442e-03 4.819389e-04 1.282564e-04 3.164356e-05 7.220855e-06 6.975958e-07 
3.427020e-08 3.024525e-09 2.549631e-10 2.064089e-11 1.611536e-12 1.217471e-13 8.923686e-15 6.359722e-16 4.414802e-17 2.989512e-18 1.977129e-19 1.278372e-20 8.087948e-22 5.010590e-23 3.041378e-24 1.810740e-25 1.425066e-26 1.225627e-25 3.830149e-24 1.140698e-22 3.214119e-21 8.545778e-20 2.137870e-18 5.015869e-17 1.099687e-15 2.243709e-14 4.240412e-13 7.383481e-12 1.177121e-10 1.705761e-09 2.227351e-08 2.593597e-07 2.658967e-06 2.357719e-05 1.770836e-04 1.100596e-03 5.496105e-03 2.128257e-02 6.168247e-02 1.326720e-01 2.262136e-01 3.273766e-01 4.232584e-01 5.058710e-01 5.708933e-01 6.158572e-01 6.390893e-01 6.392207e-01 6.146816e-01 5.626241e-01 4.783933e-01 3.625404e-01 2.374861e-01 1.333017e-01 6.449140e-02 2.721710e-02 1.015405e-02 3.391362e-03 1.025482e-03 2.834901e-04 7.225048e-05 1.709611e-05 3.748598e-06 3.682756e-07 
1.467244e-08 1.132633e-09 8.381331e-11 5.977755e-12 4.126794e-13 2.766974e-14 1.806743e-15 1.151456e-16 7.175359e-18 4.378563e-19 2.619638e-20 1.538178e-21 8.871123e-23 5.028504e-24 2.802911e-25 1.540383e-26 2.045452e-27 4.089345e-26 1.304809e-24 3.955201e-23 1.135165e-21 3.076953e-20 7.854872e-19 1.882605e-17 4.221469e-16 8.821441e-15 1.710176e-13 3.060110e-12 5.023982e-11 7.515478e-10 1.015992e-08 1.229015e-07 1.314361e-06 1.217043e-05 9.523075e-05 6.153670e-04 3.189976e-03 1.281004e-02 3.849123e-02 8.584493e-02 1.515856e-01 2.267512e-01 3.022433e-01 3.712562e-01 4.290666e-01 4.721998e-01 4.978758e-01 5.037185e-01 4.874034e-01 4.459289e-01 3.756218e-01 2.787080e-01 1.768813e-01 9.549219e-02 4.424302e-02 1.784095e-02 6.354160e-03 2.025942e-03 5.851405e-04 1.546565e-04 3.773194e-05 8.559156e-06 1.802535e-06 1.809119e-07 
5.762380e-09 3.837400e-10 2.459465e-11 1.525721e-12 9.201902e-14 5.414969e-15 3.118046e-16 1.760988e-17 9.773440e-19 5.338583e-20 2.873598e-21 1.525676e-22 7.995477e-24 4.138005e-25 2.115662e-26 1.077660e-27 3.732336e-28 1.092711e-26 3.550365e-25 1.095833e-23 3.205232e-22 8.862705e-21 2.310474e-19 5.662009e-18 1.299956e-16 2.785794e-15 5.548661e-14 1.022213e-12 1.732135e-11 2.682146e-10 3.766262e-09 4.752026e-08 5.327682e-07 5.180352e-06 4.246828e-05 2.869579e-04 1.553275e-03 6.508274e-03 2.040768e-02 4.752757e-02 8.753989e-02 1.363372e-01 1.887423e-01 2.400443e-01 2.862077e-01 3.236589e-01 3.491285e-01 3.595791e-01 3.520655e-01 3.234080e-01 2.706945e-01 1.969743e-01 1.212212e-01 6.298608e-02 2.796479e-02 1.078200e-02 3.668246e-03 1.117175e-03 3.083673e-04 7.796122e-05 1.821498e-05 3.962359e-06 8.016728e-07 8.266834e-08 
2.066258e-09 1.166309e-10 6.366188e-12 3.381093e-13 1.755786e-14 8.950307e-16 4.493139e-17 2.227077e-18 1.092175e-19 5.307800e-21 2.559245e-22 1.225260e-23 5.827217e-25 2.753489e-26 1.292650e-27 6.216893e-29 7.197357e-29 2.403046e-27 7.948237e-26 2.498984e-24 7.452523e-23 2.103228e-21 5.602809e-20 1.404864e-18 3.305248e-17 7.270793e-16 1.489484e-14 2.828765e-13 4.954543e-12 7.954891e-11 1.162552e-09 1.533483e-08 1.807208e-07 1.850891e-06 1.594917e-05 1.130828e-04 6.415099e-04 2.815653e-03 9.252510e-03 2.260428e-02 4.363506e-02 7.111349e-02 1.027959e-01 1.361224e-01 1.684059e-01 1.968337e-01 2.184821e-01 2.303604e-01 2.294230e-01 2.125581e-01 1.773937e-01 1.268601e-01 7.581796e-02 3.796516e-02 1.617370e-02 5.970193e-03 1.942863e-03 5.659264e-04 1.494704e-04 3.618809e-05 8.105519e-06 1.692466e-06 3.292474e-07 3.511938e-08 
6.724916e-10 3.145917e-11 1.431860e-12 6.384922e-14 2.805256e-15 1.220065e-16 5.272844e-18 2.271276e-19 9.773190e-21 4.207337e-22 1.813666e-23 7.830856e-25 3.385933e-26 1.465279e-27 6.342149e-29 3.083789e-30 1.277633e-29 4.471261e-28 1.505357e-26 4.821799e-25 1.466428e-23 4.225130e-22 1.150527e-20 2.953054e-19 7.123216e-18 1.609431e-16 3.393457e-15 6.648958e-14 1.204791e-12 2.007708e-11 3.057029e-10 4.220585e-09 5.234933e-08 5.655296e-07 5.131033e-06 3.824911e-05 2.279090e-04 1.050410e-03 3.627183e-03 9.323352e-03 1.892324e-02 3.238515e-02 4.906669e-02 6.792364e-02 8.756186e-02 1.062387e-01 1.218835e-01 1.321442e-01 1.344442e-01 1.261189e-01 1.052689e-01 7.412526e-02 4.308189e-02 2.081807e-02 8.522195e-03 3.016464e-03 9.404868e-04 2.624468e-04 6.643427e-05 1.542719e-05 3.317544e-06 6.658513e-07 1.247111e-07 1.386502e-08 
1.982902e-10 7.518786e-12 2.794445e-13 1.025157e-14 3.737055e-16 1.362068e-17 4.990525e-19 1.846024e-20 6.914248e-22 2.626110e-23 1.011597e-24 3.948526e-26 1.559153e-27 6.215643e-29 2.497637e-30 1.579132e-31 2.134310e-30 7.596957e-29 2.587155e-27 8.396918e-26 2.591974e-24 7.592694e-23 2.105633e-21 5.514013e-20 1.359623e-18 3.146824e-17 6.812562e-16 1.374124e-14 2.570895e-13 4.438867e-12 7.031181e-11 1.014736e-09 1.323371e-08 1.507189e-07 1.439768e-06 1.128844e-05 7.070306e-05 3.425671e-04 1.244909e-03 3.373055e-03 7.213998e-03 1.299691e-02 2.069532e-02 3.003527e-02 4.046666e-02 5.112718e-02 6.082317e-02 6.803329e-02 7.094185e-02 6.758476e-02 5.655371e-02 3.926269e-02 2.221350e-02 1.036976e-02 4.084453e-03 1.388356e-03 4.154048e-04 1.112460e-04 2.703710e-05 6.032610e-06 1.247665e-06 2.411000e-07 4.354521e-08 5.087796e-09 
5.841573e-11 1.900212e-12 6.030005e-14 1.875763e-15 5.753722e-17 1.752721e-18 5.346075e-20 1.647309e-21 5.172401e-23 1.666831e-24 5.537153e-26 1.898137e-27 6.700847e-29 2.426117e-30 9.024601e-32 2.511711e-32 7.561011e-31 2.540407e-29 8.226825e-28 2.559001e-26 7.621608e-25 2.166790e-23 5.861874e-22 1.504291e-20 3.649817e-19 8.343194e-18 1.790067e-16 3.589798e-15 6.697415e-14 1.156313e-12 1.836140e-11 2.662266e-10 3.493962e-09 4.024248e-08 3.913349e-07 3.140467e-06 2.023421e-05 1.014014e-04 3.836790e-04 1.090233e-03 2.453067e-03 4.653291e-03 7.795042e-03 1.187738e-02 1.675277e-02 2.208190e-02 2.729451e-02 3.156279e-02 3.380127e-02 3.276573e-02 2.753643e-02 1.888930e-02 1.043336e-02 4.721553e-03 1.796018e-03 5.884481e-04 1.695704e-04 4.372752e-05 1.023573e-05 2.200731e-06 4.388959e-07 8.185137e-08 1.428542e-08 1.744964e-09 
1.791586e-11 5.485088e-13 1.622393e-14 4.648394e-16 1.294042e-17 3.513387e-19 9.348774e-21 2.453896e-22 6.409003e-24 1.684252e-25 4.513394e-27 1.250642e-28 3.624976e-30 1.105782e-31 4.434152e-33 2.826683e-32 8.652640e-31 2.582450e-29 7.463081e-28 2.082392e-26 5.593386e-25 1.441837e-23 3.555437e-22 8.358832e-21 1.866948e-19 3.946451e-18 7.863027e-17 1.470052e-15 2.566085e-14 4.158755e-13 6.217452e-12 8.510596e-11 1.057166e-09 1.163392e-08 1.097056e-07 8.651862e-07 5.547897e-06 2.803425e-05 1.085339e-04 3.203446e-04 7.549976e-04 1.505304e-03 2.651480e-03 4.242148e-03 6.267055e-03 8.624249e-03 1.108553e-02 1.326481e-02 1.460220e-02 1.441553e-02 1.218401e-02 8.284327e-03 4.488718e-03 1.980359e-03 7.317620e-04 2.324138e-04 6.484539e-05 1.618014e-05 3.663789e-06 7.620211e-07 1.470441e-07 2.654429e-08 4.488229e-09 5.639546e-10 
5.257572e-12 1.542708e-13 4.368728e-15 1.195581e-16 3.166351e-18 8.127621e-20 2.025773e-21 4.914341e-23 1.164091e-24 2.704981e-26 6.208086e-28 1.421427e-29 3.293319e-31 7.913656e-33 1.666134e-33 4.213873e-32 1.173426e-30 3.166539e-29 8.262547e-28 2.080093e-26 5.040422e-25 1.172658e-23 2.612299e-22 5.555940e-21 1.124623e-19 2.159134e-18 3.916859e-17 6.686051e-16 1.068938e-14 1.592249e-13 2.196657e-12 2.787744e-11 3.229132e-10 3.344338e-09 3.005274e-08 2.288505e-07 1.437016e-06 7.223185e-06 2.832512e-05 8.628434e-05 2.122925e-04 4.441357e-04 8.219316e-04 1.380329e-03 2.135761e-03 3.068886e-03 4.103159e-03 5.081840e-03 5.751723e-03 5.784612e-03 4.921788e-03 3.326059e-03 1.775336e-03 7.674105e-04 2.768981e-04 8.569124e-05 2.326205e-05 5.641809e-06 1.240943e-06 2.506129e-07 4.694859e-08 8.227902e-09 1.351328e-09 1.726901e-10 