# vtk DataFile Version 2.0
Comment goes here
ASCII

DATASET STRUCTURED_POINTS
DIMENSIONS    64   64   1

ORIGIN    0.000   0.000   0.000
SPACING   0.0158730.015873   1.000

POINT_DATA   4096
SCALARS Concentration double
LOOKUP_TABLE default

7.278029e-09 3.084856e-08 8.936950e-08 1.727882e-07 2.555727e-07 3.118343e-07 3.280707e-07 3.062207e-07 2.586360e-07 2.005219e-07 1.442659e-07 9.713205e-08 6.161440e-08 3.702518e-08 2.117222e-08 1.156451e-08 6.052905e-09 3.044086e-09 1.474425e-09 6.891952e-10 3.114469e-10 1.362770e-10 5.781654e-11 2.381218e-11 9.530801e-12 3.710628e-12 1.406215e-12 5.186106e-13 1.851699e-13 6.180977e-14 1.470726e-14 -7.849017e-15 -2.908807e-14 -6.527492e-14 -1.316159e-13 -2.479370e-13 -4.391028e-13 -7.317339e-13 -1.146330e-12 -1.685180e-12 -2.319229e-12 -2.979971e-12 -3.563157e-12 -3.947509e-12 -4.023956e-12 -3.721987e-12 -3.013309e-12 -1.870997e-12 -1.626782e-13 2.545644e-12 7.308545e-12 1.629644e-11 3.354539e-11 6.605243e-11 1.252839e-10 2.290834e-10 4.038237e-10 6.864553e-10 1.125881e-09 1.782803e-09 2.726736e-09 4.028983e-09 5.787593e-09 9.366917e-09 
5.405989e-09 6.000772e-08 1.829079e-07 3.475204e-07 4.999813e-07 5.925247e-07 6.058622e-07 5.503201e-07 4.529772e-07 3.427707e-07 2.410452e-07 1.588583e-07 9.877338e-08 5.825601e-08 3.273788e-08 1.759493e-08 9.072329e-09 4.499975e-09 2.152111e-09 9.943815e-10 4.446669e-10 1.927427e-10 8.109103e-11 3.315460e-11 1.318741e-11 5.107865e-12 1.928244e-12 7.100249e-13 2.552329e-13 8.970518e-14 3.101277e-14 1.093328e-14 5.117714e-15 7.607815e-15 2.551817e-14 8.733985e-14 2.669708e-13 7.280156e-13 1.787659e-12 3.983502e-12 8.103213e-12 1.511995e-11 2.598836e-11 4.130974e-11 6.095656e-11 8.381065e-11 1.077670e-10 1.300707e-10 1.479223e-10 1.591819e-10 1.629764e-10 1.600918e-10 1.531668e-10 1.468343e-10 1.480333e-10 1.666905e-10 2.168747e-10 3.183567e-10 4.983047e-10 7.925825e-10 1.245466e-09 1.901845e-09 2.732855e-09 2.753097e-09 
4.699648e-09 1.260305e-07 3.775334e-07 6.908871e-07 9.566221e-07 1.092797e-06 1.079181e-06 9.485257e-07 7.568295e-07 5.560720e-07 3.802735e-07 2.440588e-07 1.479741e-07 8.520882e-08 4.680546e-08 2.461561e-08 1.243275e-08 6.046576e-09 2.838048e-09 1.288100e-09 5.662944e-10 2.415187e-10 1.000581e-10 4.031431e-11 1.581359e-11 6.044758e-12 2.253674e-12 8.204086e-13 2.924556e-13 1.037186e-13 4.014994e-14 2.471395e-14 3.851467e-14 1.065929e-13 3.248298e-13 9.525122e-13 2.603970e-12 6.577674e-12 1.531095e-11 3.282781e-11 6.488130e-11 1.183886e-10 1.998710e-10 3.130219e-10 4.561007e-10 6.202604e-10 7.898212e-10 9.448298e-10 1.065291e-09 1.135716e-09 1.148512e-09 1.105222e-09 1.015535e-09 8.947310e-10 7.606726e-10 6.313794e-10 5.238669e-10 4.544259e-10 4.400912e-10 5.006277e-10 6.585323e-10 9.100097e-10 7.723594e-10 -7.658941e-09 
4.817672e-09 2.645868e-07 7.626734e-07 1.335840e-06 1.773467e-06 1.947258e-06 1.852706e-06 1.572271e-06 1.213643e-06 8.641865e-07 5.736634e-07 3.579174e-07 2.112485e-07 1.185663e-07 6.355538e-08 3.265293e-08 1.612803e-08 7.677948e-09 3.530792e-09 1.571416e-09 6.779931e-10 2.839937e-10 1.156382e-10 4.582481e-11 1.769093e-11 6.659724e-12 2.447051e-12 8.794816e-13 3.128060e-13 1.190416e-13 6.929094e-14 9.560071e-14 2.355512e-13 7.195565e-13 2.223618e-12 6.516118e-12 1.774138e-11 4.457782e-11 1.031435e-10 2.197069e-10 4.312032e-10 7.810067e-10 1.308352e-09 2.032620e-09 2.937359e-09 3.961191e-09 5.001591e-09 5.932821e-09 6.633270e-09 7.013187e-09 7.033706e-09 6.711756e-09 6.110997e-09 5.323517e-09 4.448983e-09 3.577181e-09 2.777351e-09 2.094926e-09 1.554213e-09 1.164234e-09 9.197478e-10 7.136106e-10 -1.039412e-09 -2.757452e-08 
6.262362e-09 5.483120e-07 1.503255e-06 2.507371e-06 3.180642e-06 3.347420e-06 3.061176e-06 2.502965e-06 1.865484e-06 1.285020e-06 8.266244e-07 5.005671e-07 2.871602e-07 1.568618e-07 8.193425e-08 4.106651e-08 1.980897e-08 9.218793e-09 4.148165e-09 1.808061e-09 7.646205e-10 3.141730e-10 1.255807e-10 4.888646e-11 1.855220e-11 6.869966e-12 2.485978e-12 8.852342e-13 3.272671e-13 1.716968e-13 2.199991e-13 5.037623e-13 1.428547e-12 4.503445e-12 1.400268e-11 4.100409e-11 1.112875e-10 2.783992e-10 6.407903e-10 1.356871e-09 2.645631e-09 4.757927e-09 7.910447e-09 1.219215e-08 1.747438e-08 2.336689e-08 2.925227e-08 3.440078e-08 3.813293e-08 3.997512e-08 3.975749e-08 3.762741e-08 3.398507e-08 2.937175e-08 2.435007e-08 1.940797e-08 1.490302e-08 1.104748e-08 7.924215e-09 5.518331e-09 3.736710e-09 2.187243e-09 -3.366546e-09 -7.058904e-08 
1.201551e-08 1.117714e-06 2.886869e-06 4.562802e-06 5.510851e-06 5.543331e-06 4.860499e-06 3.820713e-06 2.744017e-06 1.825153e-06 1.135757e-06 6.664141e-07 3.709918e-07 1.969317e-07 1.000869e-07 4.886834e-08 2.298846e-08 1.044431e-08 4.592405e-09 1.957816e-09 8.104987e-10 3.262681e-10 1.278677e-10 4.883968e-11 1.819831e-11 6.622383e-12 2.362037e-12 8.502944e-13 3.864332e-13 4.248045e-13 9.847850e-13 2.698876e-12 8.110104e-12 2.603949e-11 8.130608e-11 2.378807e-10 6.437085e-10 1.603699e-09 3.672967e-09 7.733439e-09 1.498362e-08 2.676165e-08 4.416668e-08 6.754661e-08 9.603415e-08 1.273613e-07 1.581095e-07 1.843798e-07 2.026789e-07 2.107202e-07 2.078796e-07 1.951916e-07 1.749482e-07 1.500797e-07 1.235276e-07 9.776709e-08 7.455033e-08 5.486061e-08 3.901619e-08 2.684701e-08 1.783997e-08 1.065035e-08 -5.629933e-09 -1.693193e-07 
3.549164e-08 2.238445e-06 5.394803e-06 8.038694e-06 9.210555e-06 8.829288e-06 7.404196e-06 5.582959e-06 3.855839e-06 2.471673e-06 1.485169e-06 8.429210e-07 4.546139e-07 2.341289e-07 1.155990e-07 5.490047e-08 2.514937e-08 1.113858e-08 4.779242e-09 1.990068e-09 8.053983e-10 3.172183e-10 1.217341e-10 4.556363e-11 1.664964e-11 5.950754e-12 2.107351e-12 8.366378e-13 6.916643e-13 1.562520e-12 4.569869e-12 1.356864e-11 4.243462e-11 1.382350e-10 4.331337e-10 1.266261e-09 3.417469e-09 8.482215e-09 1.933766e-08 4.049817e-08 7.799470e-08 1.383860e-07 2.267729e-07 3.442284e-07 4.856119e-07 6.389082e-07 7.867820e-07 9.101241e-07 9.924654e-07 1.023742e-06 1.002204e-06 9.340429e-07 8.311707e-07 7.081045e-07 5.789632e-07 4.552986e-07 3.450264e-07 2.523523e-07 1.783682e-07 1.219492e-07 8.055383e-08 4.932665e-08 -1.869009e-10 -4.008108e-07 
1.263488e-07 4.399569e-06 9.795738e-06 1.368946e-05 1.482508e-05 1.350321e-05 1.080247e-05 7.795392e-06 5.166406e-06 3.185383e-06 1.844720e-06 1.010911e-06 5.272936e-07 2.630254e-07 1.259582e-07 5.809387e-08 2.587476e-08 1.115457e-08 4.663417e-09 1.893897e-09 7.482360e-10 2.879380e-10 1.080485e-10 3.957590e-11 1.416587e-11 4.979673e-12 1.811026e-12 1.040481e-12 1.959178e-12 6.202472e-12 1.997096e-11 6.277751e-11 2.030954e-10 6.699268e-10 2.105783e-09 6.153186e-09 1.657005e-08 4.099209e-08 9.306483e-08 1.939411e-07 3.714060e-07 6.548802e-07 1.065928e-06 1.606494e-06 2.249549e-06 2.937264e-06 3.589433e-06 4.120478e-06 4.459457e-06 4.566161e-06 4.438229e-06 4.107999e-06 3.631551e-06 3.074462e-06 2.498723e-06 1.953748e-06 1.472363e-06 1.071053e-06 7.529591e-07 5.119836e-07 3.365162e-07 2.084964e-07 5.190821e-08 -9.392694e-07 
4.421970e-07 8.471477e-06 1.725100e-05 2.249249e-05 2.293817e-05 1.979283e-05 1.506642e-05 1.038115e-05 6.588070e-06 3.898990e-06 2.172029e-06 1.147131e-06 5.776373e-07 2.785960e-07 1.291796e-07 5.776392e-08 2.497409e-08 1.046274e-08 4.255362e-09 1.682909e-09 6.480691e-10 2.433007e-10 8.914311e-11 3.190737e-11 1.117927e-11 3.901663e-12 1.654893e-12 2.029864e-12 6.511472e-12 2.341295e-11 8.025054e-11 2.650114e-10 8.835947e-10 2.947307e-09 9.293527e-09 2.715455e-08 7.300487e-08 1.801124e-07 4.074269e-07 8.452769e-07 1.610369e-06 2.823006e-06 4.565910e-06 6.835309e-06 9.504667e-06 1.232201e-05 1.495009e-05 1.704001e-05 1.831348e-05 1.862516e-05 1.798608e-05 1.654514e-05 1.454085e-05 1.224243e-05 9.898059e-06 7.700973e-06 5.775862e-06 4.181938e-06 2.926151e-06 1.980123e-06 1.295475e-06 8.060575e-07 3.054508e-07 -2.150696e-06 
1.421623e-06 1.593623e-05 2.939884e-05 3.558255e-05 3.404891e-05 2.775139e-05 2.004875e-05 1.315913e-05 7.979114e-06 4.523461e-06 2.419176e-06 1.228988e-06 5.963274e-07 2.775818e-07 1.244027e-07 5.383893e-08 2.255665e-08 9.168115e-09 3.621534e-09 1.392453e-09 5.218206e-10 1.908163e-10 6.815644e-11 2.380649e-11 8.173991e-12 2.948584e-12 2.010546e-12 5.339146e-12 2.115051e-11 8.135240e-11 2.938219e-10 1.014223e-09 3.474414e-09 1.170817e-08 3.704250e-08 1.082914e-07 2.908590e-07 7.161048e-07 1.614992e-06 3.337579e-06 6.329002e-06 1.103607e-05 1.774576e-05 2.640109e-05 3.647442e-05 4.697518e-05 5.661940e-05 6.411667e-05 6.847556e-05 6.922206e-05 6.646619e-05 6.081486e-05 5.318200e-05 4.456908e-05 3.587946e-05 2.780231e-05 2.077122e-05 1.498150e-05 1.044183e-05 7.037099e-06 4.584810e-06 2.854733e-06 1.286333e-06 -4.726226e-06 
4.146055e-06 2.917553e-05 4.835376e-05 5.407326e-05 4.838332e-05 3.714191e-05 2.540166e-05 1.584491e-05 9.159547e-06 4.963614e-06 2.543291e-06 1.240376e-06 5.788305e-07 2.595543e-07 1.122242e-07 4.692132e-08 1.901601e-08 7.485339e-09 2.866768e-09 1.069797e-09 3.894819e-10 1.384930e-10 4.814601e-11 1.639330e-11 5.563597e-12 2.385418e-12 3.657419e-12 1.474900e-11 6.366997e-11 2.576231e-10 9.746323e-10 3.500476e-09 1.228678e-08 4.180272e-08 1.327523e-07 3.885782e-07 1.043471e-06 2.565646e-06 5.772633e-06 1.189102e-05 2.245713e-05 3.897349e-05 6.233828e-05 9.221974e-05 1.266587e-04 1.621528e-04 1.942906e-04 2.187549e-04 2.323448e-04 2.336658e-04 2.232904e-04 2.034113e-04 1.771758e-04 1.479498e-04 1.187161e-04 9.171319e-05 6.832123e-05 4.913494e-05 3.414217e-05 2.293343e-05 1.488832e-05 9.262120e-06 4.561720e-06 -9.784331e-06 
1.098593e-05 5.173793e-05 7.652574e-05 7.873859e-05 6.566683e-05 4.734800e-05 3.057799e-05 1.808464e-05 9.944585e-06 5.140319e-06 2.518194e-06 1.176646e-06 5.270422e-07 2.272217e-07 9.460163e-08 3.814021e-08 1.492445e-08 5.679140e-09 2.104978e-09 7.610282e-10 2.686981e-10 9.274572e-11 3.132983e-11 1.040225e-11 3.618179e-12 2.550204e-12 8.178543e-12 3.861520e-11 1.753084e-10 7.404856e-10 2.918470e-09 1.085614e-08 3.894307e-08 1.337130e-07 4.264403e-07 1.250764e-06 3.360788e-06 8.258651e-06 1.855118e-05 3.811334e-05 7.173020e-05 1.239659e-04 1.973523e-04 2.904768e-04 3.968646e-04 5.054055e-04 6.024547e-04 6.749756e-04 7.136148e-04 7.146621e-04 6.803692e-04 6.177616e-04 5.365599e-04 4.469641e-04 3.578938e-04 2.759666e-04 2.052081e-04 1.473028e-04 1.021393e-04 6.843655e-05 4.429977e-05 2.751827e-05 1.426160e-05 -1.872685e-05 
2.655088e-05 8.840635e-05 1.161579e-04 1.095738e-04 8.492298e-05 5.736181e-05 3.489613e-05 1.952287e-05 1.018925e-05 5.012837e-06 2.342961e-06 1.046698e-06 4.490963e-07 1.857816e-07 7.433377e-08 2.884214e-08 1.087616e-08 3.993274e-09 1.429763e-09 4.998702e-10 1.708452e-10 5.713984e-11 1.872872e-11 6.099240e-12 2.464700e-12 3.945965e-12 1.854749e-11 9.339637e-11 4.404469e-10 1.930220e-09 7.881502e-09 3.022180e-08 1.105178e-07 3.828306e-07 1.226751e-06 3.608019e-06 9.707712e-06 2.385787e-05 5.353596e-05 1.097626e-04 2.059663e-04 3.546528e-04 5.622448e-04 8.238315e-04 1.120361e-03 1.420247e-03 1.685553e-03 1.880789e-03 1.981219e-03 1.977871e-03 1.878014e-03 1.701616e-03 1.475575e-03 1.227729e-03 9.822212e-04 7.568568e-04 5.624181e-04 4.033777e-04 2.793717e-04 1.868752e-04 1.206961e-04 7.485322e-05 4.002449e-05 -3.243059e-05 
5.873763e-05 1.447869e-04 1.685369e-04 1.453335e-04 1.043961e-04 6.589273e-05 3.767050e-05 1.988977e-05 9.830461e-06 4.593012e-06 2.043734e-06 8.710819e-07 3.572637e-07 1.415198e-07 5.430684e-08 2.023873e-08 7.340170e-09 2.595259e-09 8.958763e-10 3.023101e-10 9.983011e-11 3.229367e-11 1.026484e-11 3.367125e-12 2.147911e-12 7.369141e-12 3.985137e-11 2.080874e-10 1.012116e-09 4.574787e-09 1.924325e-08 7.570469e-08 2.815121e-07 9.833680e-07 3.167125e-06 9.345195e-06 2.519045e-05 6.194316e-05 1.389091e-04 2.843121e-04 5.321055e-04 9.131849e-04 1.442197e-03 2.104601e-03 2.850376e-03 3.599021e-03 4.255715e-03 4.733366e-03 4.972718e-03 4.953920e-03 4.696860e-03 4.251959e-03 3.685890e-03 3.067107e-03 2.454767e-03 1.892533e-03 1.406976e-03 1.009296e-03 6.988236e-04 4.670296e-04 3.011509e-04 1.864803e-04 1.017319e-04 -4.924210e-05 
1.192967e-04 2.261327e-04 2.329724e-04 1.832300e-04 1.216957e-04 7.160623e-05 3.838015e-05 1.908075e-05 8.910427e-06 3.944871e-06 1.667428e-06 6.765755e-07 2.646838e-07 1.001852e-07 3.679510e-08 1.314359e-08 4.575422e-09 1.554743e-09 5.164178e-10 1.678693e-10 5.345787e-11 1.669735e-11 5.162538e-12 1.882322e-12 2.716107e-12 1.404878e-11 8.005930e-11 4.289736e-10 2.139607e-09 9.918449e-09 4.274401e-08 1.717295e-07 6.476760e-07 2.279883e-06 7.379459e-06 2.184699e-05 5.900343e-05 1.451785e-04 3.253664e-04 6.648047e-04 1.240964e-03 2.122709e-03 3.339990e-03 4.855202e-03 6.550701e-03 8.242128e-03 9.716117e-03 1.077975e-02 1.130430e-02 1.124925e-02 1.066160e-02 9.654721e-03 8.376932e-03 6.980057e-03 5.595571e-03 4.321217e-03 3.217385e-03 2.310557e-03 1.600617e-03 1.069438e-03 6.888371e-04 4.259415e-04 2.354646e-04 -6.151085e-05 
2.229954e-04 3.353194e-04 3.058543e-04 2.190118e-04 1.342041e-04 7.344673e-05 3.682252e-05 1.719708e-05 7.570323e-06 3.168592e-06 1.269365e-06 4.892394e-07 1.821623e-07 6.574177e-08 2.305950e-08 7.878736e-09 2.627060e-09 8.561824e-10 2.730951e-10 8.534809e-11 2.615979e-11 7.880291e-12 2.411065e-12 1.288546e-12 4.295547e-12 2.577245e-11 1.507615e-10 8.242669e-10 4.195335e-09 1.984480e-08 8.718507e-08 3.561827e-07 1.358882e-06 4.814995e-06 1.565344e-05 4.647501e-05 1.257048e-04 3.093494e-04 6.925531e-04 1.411994e-03 2.627702e-03 4.478376e-03 7.018567e-03 1.016174e-02 1.365852e-02 1.712795e-02 2.013643e-02 2.229736e-02 2.335662e-02 2.323761e-02 2.203742e-02 1.998409e-02 1.737454e-02 1.451338e-02 1.166632e-02 9.033654e-03 6.742231e-03 4.850975e-03 3.364264e-03 2.248318e-03 1.447072e-03 8.935800e-04 4.983545e-04 -5.131087e-05 
3.844985e-04 4.703401e-04 3.802624e-04 2.475739e-04 1.396858e-04 7.094462e-05 3.319209e-05 1.452789e-05 6.014392e-06 2.374324e-06 8.994055e-07 3.285177e-07 1.161555e-07 3.988083e-08 1.333051e-08 4.347162e-09 1.385489e-09 4.321891e-10 1.321144e-10 3.961707e-11 1.166609e-11 3.392764e-12 1.103276e-12 1.307169e-12 7.130440e-12 4.496536e-11 2.677480e-10 1.488112e-09 7.699108e-09 3.700712e-08 1.650548e-07 6.831127e-07 2.629588e-06 9.365686e-06 3.054839e-05 9.086941e-05 2.459140e-04 6.046988e-04 1.351023e-03 2.745972e-03 5.090187e-03 8.636639e-03 1.347267e-02 1.941812e-02 2.599292e-02 3.248282e-02 3.808849e-02 4.210661e-02 4.408037e-02 4.387531e-02 4.166904e-02 3.787381e-02 3.302695e-02 2.768342e-02 2.233348e-02 1.735415e-02 1.299212e-02 9.370178e-03 6.508287e-03 4.351554e-03 2.799032e-03 1.725944e-03 9.680917e-04 1.257599e-05 
6.128519e-04 6.222427e-04 4.465949e-04 2.640613e-04 1.369178e-04 6.438887e-05 2.804563e-05 1.147629e-05 4.457137e-06 1.655549e-06 5.915702e-07 2.042903e-07 6.843237e-08 2.230164e-08 7.088024e-09 2.201361e-09 6.691911e-10 1.993868e-10 5.829429e-11 1.674031e-11 4.728820e-12 1.341330e-12 5.869075e-13 1.771893e-12 1.157528e-11 7.464199e-11 4.509964e-10 2.541973e-09 1.333181e-08 6.491868e-08 2.930006e-07 1.224771e-06 4.746160e-06 1.696492e-05 5.544294e-05 1.650161e-04 4.462253e-04 1.094941e-03 2.438102e-03 4.933586e-03 9.097874e-03 1.534982e-02 2.380883e-02 3.413087e-02 4.546951e-02 5.660149e-02 6.618309e-02 7.304785e-02 7.644580e-02 7.615832e-02 7.247603e-02 6.607305e-02 5.783292e-02 4.867841e-02 3.943916e-02 3.076991e-02 2.311603e-02 1.671605e-02 1.162946e-02 7.779371e-03 5.000279e-03 3.078050e-03 1.732326e-03 1.732414e-04 
9.048804e-04 7.747354e-04 4.943708e-04 2.651725e-04 1.261048e-04 5.478385e-05 2.215968e-05 8.455866e-06 3.073004e-06 1.071223e-06 3.601655e-07 1.173039e-07 3.713773e-08 1.146107e-08 3.455668e-09 1.019876e-09 2.950808e-10 8.380428e-11 2.338750e-11 6.419659e-12 1.739233e-12 5.050476e-13 4.668784e-13 2.607295e-12 1.802461e-11 1.180658e-10 7.230735e-10 4.128095e-09 2.191327e-08 1.078954e-07 4.917406e-07 2.071627e-06 8.066849e-06 2.889665e-05 9.449233e-05 2.810126e-04 7.582133e-04 1.853782e-03 4.107607e-03 8.262308e-03 1.513402e-02 2.535363e-02 3.905060e-02 5.561557e-02 7.367004e-02 9.128681e-02 1.063936e-01 1.172183e-01 1.226329e-01 1.223087e-01 1.166755e-01 1.067368e-01 9.382067e-02 7.933533e-02 6.457594e-02 5.059685e-02 3.814691e-02 2.765713e-02 1.926902e-02 1.289222e-02 8.277684e-03 5.084550e-03 2.865665e-03 4.770971e-04 
1.240216e-03 9.063706e-04 5.148401e-04 2.501978e-04 1.088949e-04 4.359242e-05 1.633132e-05 5.795511e-06 1.965461e-06 6.412745e-07 2.023392e-07 6.199340e-08 1.850364e-08 5.394593e-09 1.539499e-09 4.308035e-10 1.183810e-10 3.198166e-11 8.502815e-12 2.227206e-12 5.818181e-13 2.081977e-13 5.349678e-13 3.777577e-12 2.675826e-11 1.778765e-10 1.104338e-09 6.385533e-09 3.429395e-08 1.706137e-07 7.844105e-07 3.326548e-06 1.300153e-05 4.662528e-05 1.523900e-04 4.522970e-04 1.216091e-03 2.958376e-03 6.513270e-03 1.300266e-02 2.361964e-02 3.922950e-02 5.991408e-02 8.466439e-02 1.113903e-01 1.372787e-01 1.593797e-01 1.752146e-01 1.832226e-01 1.829475e-01 1.749688e-01 1.606559e-01 1.418441e-01 1.205193e-01 9.855876e-02 7.754632e-02 5.865962e-02 4.262335e-02 2.972431e-02 1.987998e-02 1.274278e-02 7.805138e-03 4.397620e-03 9.582555e-04 
1.581025e-03 9.952336e-04 5.035362e-04 2.213553e-04 8.796067e-05 3.235750e-05 1.119496e-05 3.683749e-06 1.162416e-06 3.539654e-07 1.045210e-07 3.004411e-08 8.432616e-09 2.316791e-09 6.243154e-10 1.652808e-10 4.304480e-11 1.104005e-11 2.791090e-12 6.970196e-13 1.808673e-13 1.246671e-13 6.890089e-13 5.225071e-12 3.768910e-11 2.544780e-10 1.603228e-09 9.396908e-09 5.109039e-08 2.569171e-07 1.191666e-06 5.086340e-06 1.994680e-05 7.158228e-05 2.337177e-04 6.918155e-04 1.851934e-03 4.477883e-03 9.783733e-03 1.935865e-02 3.482496e-02 5.726202e-02 8.660024e-02 1.212696e-01 1.582993e-01 1.938595e-01 2.240493e-01 2.456590e-01 2.566934e-01 2.565661e-01 2.459953e-01 2.267039e-01 2.010408e-01 1.716111e-01 1.409601e-01 1.113230e-01 8.444012e-02 6.144791e-02 4.285835e-02 2.862924e-02 1.830444e-02 1.117048e-02 6.281456e-03 1.620150e-03 
1.878138e-03 1.024803e-03 4.617658e-04 1.832456e-04 6.629603e-05 2.234107e-05 7.115230e-06 2.163980e-06 6.333582e-07 1.794471e-07 4.944322e-08 1.329639e-08 3.500032e-09 9.039203e-10 2.294676e-10 5.734605e-11 1.412566e-11 3.432958e-12 8.239317e-13 1.965875e-13 5.759373e-14 1.150085e-13 8.721910e-13 6.814040e-12 5.005191e-11 3.437963e-10 2.201430e-09 1.309992e-08 7.220934e-08 3.675125e-07 1.721630e-06 7.402138e-06 2.914420e-05 1.047043e-04 3.415798e-04 1.008366e-03 2.686836e-03 6.454196e-03 1.398487e-02 2.740213e-02 4.876798e-02 7.930096e-02 1.186307e-01 1.644546e-01 2.127914e-01 2.587467e-01 2.974993e-01 3.251776e-01 3.394115e-01 3.395001e-01 3.262647e-01 3.017163e-01 2.686568e-01 2.302919e-01 1.898775e-01 1.503982e-01 1.142844e-01 8.320405e-02 5.797795e-02 3.863944e-02 2.461577e-02 1.495128e-02 8.377624e-03 2.422058e-03 
2.082551e-03 9.888432e-04 3.963816e-04 1.416136e-04 4.649086e-05 1.430089e-05 4.177464e-06 1.170104e-06 3.165524e-07 8.317383e-08 2.131707e-08 5.347497e-09 1.316546e-09 3.188064e-10 7.606411e-11 1.790606e-11 4.163632e-12 9.571649e-13 2.178263e-13 5.042705e-14 2.448017e-14 1.246373e-13 1.039404e-12 8.301319e-12 6.217910e-11 4.352575e-10 2.838193e-09 1.718117e-08 9.621445e-08 4.966263e-07 2.354247e-06 1.021445e-05 4.044107e-05 1.456473e-04 4.752911e-04 1.400515e-03 3.716679e-03 8.872479e-03 1.906620e-02 3.698784e-02 6.509904e-02 1.046306e-01 1.547343e-01 2.122207e-01 2.720358e-01 3.282729e-01 3.753255e-01 4.088149e-01 4.261056e-01 4.264093e-01 4.105936e-01 3.808468e-01 3.403086e-01 2.927137e-01 2.420286e-01 1.920546e-01 1.460157e-01 1.062122e-01 7.384028e-02 4.903205e-02 3.108530e-02 1.876965e-02 1.046310e-02 3.278097e-03 
2.158567e-03 8.933722e-04 3.178887e-04 1.018889e-04 3.023173e-05 8.453560e-06 2.255643e-06 5.795657e-07 1.443792e-07 3.505535e-08 8.329675e-09 1.943228e-09 4.462193e-10 1.010603e-10 2.261089e-11 5.003920e-12 1.096454e-12 2.380762e-13 5.139046e-14 1.241540e-14 1.666904e-14 1.326399e-13 1.147347e-12 9.362804e-12 7.161683e-11 5.117820e-10 3.404980e-09 2.101389e-08 1.198321e-07 6.288628e-07 3.024518e-06 1.327689e-05 5.299329e-05 1.917782e-04 6.273520e-04 1.848604e-03 4.893593e-03 1.162375e-02 2.479572e-02 4.765698e-02 8.298279e-02 1.318593e-01 1.927900e-01 2.615981e-01 3.321805e-01 3.977647e-01 4.521722e-01 4.907205e-01 5.106391e-01 5.110780e-01 4.928786e-01 4.582714e-01 4.105917e-01 3.540047e-01 2.931599e-01 2.327113e-01 1.767423e-01 1.282424e-01 8.880987e-02 5.866916e-02 3.696311e-02 2.215863e-02 1.226930e-02 4.071967e-03 
2.093719e-03 7.549086e-04 2.376263e-04 6.802417e-05 1.815447e-05 4.592428e-06 1.114082e-06 2.614188e-07 5.971927e-08 1.334785e-08 2.930273e-09 6.337550e-10 1.353584e-10 2.860297e-11 5.988689e-12 1.243758e-12 2.564466e-13 5.253927e-14 1.082615e-14 3.562013e-15 1.434830e-14 1.310053e-13 1.161690e-12 9.692081e-12 7.579591e-11 5.537387e-10 3.765391e-09 2.373856e-08 1.381680e-07 7.391394e-07 3.617229e-06 1.611672e-05 6.507102e-05 2.374224e-04 7.809855e-04 2.307862e-03 6.109567e-03 1.447185e-02 3.070417e-02 5.856045e-02 1.010174e-01 1.588690e-01 2.298551e-01 3.087970e-01 3.886577e-01 4.620113e-01 5.223493e-01 5.648860e-01 5.868281e-01 5.872727e-01 5.669542e-01 5.280132e-01 4.738475e-01 4.089624e-01 3.386587e-01 2.684524e-01 2.033006e-01 1.468744e-01 1.011382e-01 6.635998e-02 4.148512e-02 2.465724e-02 1.353981e-02 4.683972e-03 
1.901770e-03 5.957493e-04 1.650758e-04 4.196758e-05 1.001610e-05 2.279178e-06 4.999910e-07 1.066109e-07 2.223200e-08 4.555657e-09 9.206828e-10 1.840309e-10 3.646280e-11 7.173367e-12 1.403032e-12 2.730845e-13 5.293150e-14 1.023112e-14 2.079576e-15 1.584685e-15 1.234770e-14 1.180700e-13 1.071090e-12 9.140613e-12 7.313948e-11 5.468163e-10 3.805344e-09 2.454775e-08 1.461311e-07 7.988741e-07 3.989918e-06 1.810626e-05 7.424204e-05 2.742414e-04 9.106868e-04 2.708713e-03 7.195429e-03 1.704993e-02 3.608066e-02 6.846255e-02 1.172662e-01 1.829042e-01 2.623387e-01 3.494863e-01 4.365697e-01 5.157462e-01 5.803919e-01 6.257636e-01 6.491048e-01 6.494388e-01 6.273125e-01 5.846726e-01 5.248900e-01 4.527608e-01 3.742214e-01 2.956341e-01 2.227821e-01 1.599291e-01 1.092969e-01 7.110177e-02 4.403632e-02 2.591369e-02 1.409040e-02 5.021229e-03 
1.617968e-03 4.381462e-04 1.061648e-04 2.380159e-05 5.044494e-06 1.025708e-06 2.022249e-07 3.896412e-08 7.380602e-09 1.380641e-09 2.559384e-10 4.714142e-11 8.644662e-12 1.580566e-12 2.884410e-13 5.257693e-14 9.577455e-15 1.751086e-15 4.037787e-16 1.003728e-15 9.831110e-15 9.650252e-14 8.951161e-13 7.814336e-12 6.399655e-11 4.899218e-10 3.492257e-09 2.307978e-08 1.407530e-07 7.880349e-07 4.027705e-06 1.867978e-05 7.811256e-05 2.934416e-04 9.880521e-04 2.970463e-03 7.949664e-03 1.891547e-02 4.006876e-02 7.589598e-02 1.294886e-01 2.008883e-01 2.864004e-01 3.792511e-01 4.711745e-01 5.541307e-01 6.215226e-01 6.687066e-01 6.929498e-01 6.931446e-01 6.695787e-01 6.239460e-01 5.595674e-01 4.815403e-01 3.964436e-01 3.114414e-01 2.330221e-01 1.658669e-01 1.122772e-01 7.228833e-02 4.428479e-02 2.576498e-02 1.385195e-02 5.040406e-03 
1.288806e-03 2.994406e-04 6.290596e-05 1.232915e-05 2.301027e-06 4.148084e-07 7.297888e-08 1.262702e-08 2.161031e-09 3.674190e-10 6.226059e-11 1.054034e-11 1.785790e-12 3.031446e-13 5.159827e-14 8.809680e-15 1.509371e-15 2.644381e-16 1.051272e-16 6.810063e-16 7.127161e-15 7.146647e-14 6.772392e-13 6.045368e-12 5.066401e-11 3.971894e-10 2.901261e-09 1.965890e-08 1.229719e-07 7.063085e-07 3.702998e-06 1.760618e-05 7.538475e-05 2.893022e-04 9.921053e-04 3.027872e-03 8.198557e-03 1.967024e-02 4.187829e-02 7.949415e-02 1.356056e-01 2.100069e-01 2.986064e-01 3.942617e-01 4.885040e-01 5.732760e-01 6.420643e-01 6.902858e-01 7.151453e-01 7.153156e-01 6.907656e-01 6.429296e-01 5.751263e-01 4.928210e-01 4.032528e-01 3.142981e-01 2.329516e-01 1.640602e-01 1.097803e-01 6.982906e-02 4.224794e-02 2.426886e-02 1.288300e-02 4.755581e-03 
9.602948e-04 1.895091e-04 3.415382e-05 5.790984e-06 9.422728e-07 1.492132e-07 2.323346e-08 3.584478e-09 5.510894e-10 8.478575e-11 1.309269e-11 2.033426e-12 3.180405e-13 5.013003e-14 7.964981e-15 1.275588e-15 2.061027e-16 3.679368e-17 4.472265e-17 4.423026e-16 4.736136e-15 4.828973e-14 4.662264e-13 4.247294e-12 3.637812e-11 2.918293e-10 2.183699e-09 1.517316e-08 9.741317e-08 5.746710e-07 3.096096e-06 1.513023e-05 6.656691e-05 2.620337e-04 9.189496e-04 2.858886e-03 7.864503e-03 1.910530e-02 4.105176e-02 7.841755e-02 1.342975e-01 2.084496e-01 2.967490e-01 3.920823e-01 4.860837e-01 5.708243e-01 6.398648e-01 6.885756e-01 7.139629e-01 7.143705e-01 6.894054e-01 6.402807e-01 5.704150e-01 4.857377e-01 3.941459e-01 3.040749e-01 2.227511e-01 1.548845e-01 1.022547e-01 6.414967e-02 3.827463e-02 2.168066e-02 1.134948e-02 4.229896e-03 
6.686653e-04 1.107668e-04 1.692420e-05 2.453463e-06 3.440605e-07 4.734020e-08 6.459698e-09 8.812394e-10 1.209110e-10 1.675506e-11 2.351299e-12 3.346636e-13 4.833997e-14 7.085490e-15 1.053334e-15 1.587004e-16 2.440464e-17 6.037715e-18 2.640434e-17 2.835245e-16 3.012754e-15 3.073958e-14 2.990400e-13 2.758473e-12 2.401108e-11 1.963186e-10 1.500755e-09 1.067459e-08 7.027776e-08 4.258148e-07 2.359398e-06 1.187100e-05 5.381007e-05 2.179877e-04 7.845104e-04 2.496869e-03 7.004420e-03 1.729618e-02 3.765851e-02 7.268725e-02 1.254959e-01 1.960404e-01 2.805602e-01 3.723946e-01 4.635955e-01 5.465004e-01 6.147199e-01 6.634537e-01 6.893628e-01 6.903551e-01 6.656498e-01 6.163077e-01 5.459706e-01 4.611133e-01 3.702286e-01 2.820772e-01 2.037852e-01 1.396160e-01 9.077864e-02 5.608092e-02 3.295334e-02 1.838575e-02 9.480468e-03 3.555664e-03 
4.358094e-04 6.002299e-05 7.702360e-06 9.447973e-07 1.128585e-07 1.332251e-08 1.572881e-09 1.875174e-10 2.273921e-11 2.818455e-12 3.580059e-13 4.663827e-14 6.227376e-15 8.510290e-16 1.188079e-16 1.693486e-17 2.696365e-18 2.690927e-18 2.252393e-17 2.200309e-16 2.156518e-15 2.084696e-14 1.961851e-13 1.777943e-12 1.537947e-11 1.260350e-10 9.720649e-10 7.012319e-09 4.702427e-08 2.912806e-07 1.655272e-06 8.565545e-06 4.002967e-05 1.671774e-04 6.187588e-04 2.019863e-03 5.795110e-03 1.459256e-02 3.230709e-02 6.324532e-02 1.105142e-01 1.744472e-01 2.519907e-01 3.373214e-01 4.232147e-01 5.024337e-01 5.686547e-01 6.168295e-01 6.431660e-01 6.450601e-01 6.213419e-01 5.729984e-01 5.039972e-01 4.213732e-01 3.340571e-01 2.508231e-01 1.783436e-01 1.201698e-01 7.682700e-02 4.667278e-02 2.697798e-02 1.481086e-02 7.515388e-03 2.830738e-03 
2.696537e-04 3.107488e-05 3.367995e-06 3.501294e-07 3.547442e-08 3.554137e-09 3.570476e-10 3.644355e-11 3.823407e-12 4.159081e-13 4.713698e-14 5.570793e-15 6.849887e-16 8.727998e-17 1.147869e-17 1.610331e-18 7.172977e-19 4.146877e-18 3.400941e-17 2.840421e-16 2.394482e-15 2.026326e-14 1.707199e-13 1.417618e-12 1.147894e-11 8.970307e-11 6.700128e-10 4.740978e-09 3.151778e-08 1.952898e-07 1.118900e-06 5.879674e-06 2.809694e-05 1.203887e-04 4.569315e-04 1.527808e-03 4.482596e-03 1.152130e-02 2.598416e-02 5.172125e-02 9.174976e-02 1.468470e-01 2.148761e-01 2.911337e-01 3.693846e-01 4.430073e-01 5.058383e-01 5.525978e-01 5.790199e-01 5.819766e-01 5.599417e-01 5.138998e-01 4.481811e-01 3.702834e-01 2.893038e-01 2.136629e-01 1.492581e-01 9.875628e-02 6.199553e-02 3.699379e-02 2.101464e-02 1.134303e-02 5.659438e-03 2.138761e-03 
1.680411e-04 1.705716e-05 1.635646e-06 1.500512e-07 1.331448e-08 1.155195e-09 9.917534e-11 8.542676e-12 7.502726e-13 6.835886e-14 6.563635e-15 6.710244e-16 7.321234e-17 8.484627e-18 1.054353e-18 2.904088e-19 1.255458e-18 9.588535e-18 7.385382e-17 5.664030e-16 4.323029e-15 3.279380e-14 2.465926e-13 1.830350e-12 1.333504e-11 9.470426e-11 6.505667e-10 4.287147e-09 2.687138e-08 1.588121e-07 8.772307e-07 4.487893e-06 2.106537e-05 8.943058e-05 3.387703e-04 1.136613e-03 3.359294e-03 8.721442e-03 1.990627e-02 4.015127e-02 7.223368e-02 1.173020e-01 1.741770e-01 2.394184e-01 3.079811e-01 3.740682e-01 4.318567e-01 4.759699e-01 5.017678e-01 5.056898e-01 4.859481e-01 4.435798e-01 3.832019e-01 3.125068e-01 2.403540e-01 1.744226e-01 1.196039e-01 7.765211e-02 4.784046e-02 2.803005e-02 1.564452e-02 8.300612e-03 4.070326e-03 1.538418e-03 
1.068024e-04 1.007885e-05 9.000261e-07 7.676208e-08 6.299579e-09 5.007677e-10 3.882090e-11 2.958242e-12 2.238741e-13 1.706510e-14 1.335577e-15 1.098854e-16 9.732212e-18 9.486267e-19 1.506042e-19 4.009636e-19 2.955919e-18 2.216791e-17 1.644507e-16 1.205348e-15 8.719212e-15 6.215067e-14 4.355765e-13 2.992685e-12 2.008221e-11 1.310177e-10 8.265704e-10 5.011900e-09 2.901006e-08 1.591135e-07 8.203833e-07 3.942430e-06 1.749697e-05 7.095441e-05 2.599606e-04 8.528718e-04 2.488086e-03 6.426793e-03 1.469028e-02 2.982887e-02 5.423401e-02 8.924920e-02 1.345119e-01 1.877946e-01 2.453088e-01 3.022481e-01 3.533532e-01 3.933893e-01 4.175687e-01 4.221038e-01 4.050973e-01 3.676566e-01 3.144825e-01 2.530557e-01 1.915436e-01 1.365663e-01 9.192366e-02 5.857030e-02 3.542207e-02 2.038495e-02 1.118308e-02 5.834178e-03 2.811743e-03 1.057291e-03 
6.577331e-05 5.849615e-06 4.945594e-07 4.003498e-08 3.120195e-09 2.351824e-10 1.721298e-11 1.228225e-12 8.583591e-14 5.911131e-15 4.047491e-16 2.794571e-17 1.989983e-18 1.649320e-19 1.244192e-19 8.390998e-19 6.186682e-18 4.502625e-17 3.227179e-16 2.275003e-15 1.574995e-14 1.068818e-13 7.093658e-13 4.591917e-12 2.889831e-11 1.761445e-10 1.035390e-09 5.840499e-09 3.144357e-08 1.605932e-07 7.729790e-07 3.481321e-06 1.455856e-05 5.607749e-05 1.971156e-04 6.268072e-04 1.790006e-03 4.568174e-03 1.040248e-02 2.119079e-02 3.886663e-02 6.477711e-02 9.912272e-02 1.406719e-01 1.867955e-01 2.337338e-01 2.769802e-01 3.117105e-01 3.332860e-01 3.379586e-01 3.238851e-01 2.922121e-01 2.474559e-01 1.964750e-01 1.463791e-01 1.025627e-01 6.778913e-02 4.240564e-02 2.518633e-02 1.424335e-02 7.683907e-03 3.943086e-03 1.868055e-03 6.960871e-04 