# vtk DataFile Version 2.0
Comment goes here
ASCII

DATASET STRUCTURED_POINTS
DIMENSIONS    64   64   1

ORIGIN    0.000   0.000   0.000
SPACING   0.0158730.015873   1.000

POINT_DATA   4096
SCALARS Concentration double
LOOKUP_TABLE default

8.696114e-07 9.823207e-07 1.856566e-06 3.923371e-06 7.426511e-06 1.222808e-05 1.777096e-05 2.322178e-05 2.771791e-05 3.060408e-05 3.157254e-05 3.067984e-05 2.826568e-05 2.482415e-05 2.087604e-05 1.687395e-05 1.315109e-05 9.909639e-06 7.236141e-06 5.130596e-06 3.538156e-06 2.376663e-06 1.556979e-06 9.958379e-07 6.224182e-07 3.804531e-07 2.275784e-07 1.332970e-07 7.649237e-08 4.304336e-08 2.380535e-08 1.303847e-08 7.270064e-09 4.613333e-09 4.136462e-09 5.576121e-09 9.195628e-09 1.568381e-08 2.604916e-08 4.146204e-08 6.301173e-08 9.137802e-08 1.264660e-07 1.671038e-07 2.109335e-07 2.546062e-07 2.943196e-07 3.266126e-07 3.492169e-07 3.617088e-07 3.657431e-07 3.647866e-07 3.634378e-07 3.665499e-07 3.784116e-07 4.021735e-07 4.395759e-07 4.909095e-07 5.550582e-07 6.294779e-07 7.100574e-07 7.913297e-07 8.748367e-07 1.128052e-06 
7.536736e-07 1.068227e-06 2.608336e-06 6.034884e-06 1.163024e-05 1.902853e-05 2.723826e-05 3.493930e-05 4.089025e-05 4.426116e-05 4.478365e-05 4.271193e-05 3.865856e-05 3.338944e-05 2.764567e-05 2.202737e-05 1.694409e-05 1.261786e-05 9.117644e-06 6.405928e-06 4.383650e-06 2.926128e-06 1.907724e-06 1.216154e-06 7.588094e-07 4.637794e-07 2.778679e-07 1.632987e-07 9.418392e-08 5.333672e-08 2.967150e-08 1.622609e-08 8.728220e-09 4.665422e-09 2.607043e-09 1.786237e-09 1.874865e-09 2.854782e-09 4.944927e-09 8.548389e-09 1.418805e-08 2.240747e-08 3.362916e-08 4.798612e-08 6.516924e-08 8.435167e-08 1.042485e-07 1.233377e-07 1.402136e-07 1.539842e-07 1.645941e-07 1.729641e-07 1.808994e-07 1.907942e-07 2.052249e-07 2.265433e-07 2.565560e-07 2.963168e-07 3.460001e-07 4.047876e-07 4.707608e-07 5.416949e-07 6.310029e-07 1.011605e-06 
6.495766e-07 1.406420e-06 4.193035e-06 9.952043e-06 1.887588e-05 3.009132e-05 4.186200e-05 5.216722e-05 5.933679e-05 6.246946e-05 6.153050e-05 5.718249e-05 5.048176e-05 4.257074e-05 3.444950e-05 2.685420e-05 2.023023e-05 1.476856e-05 1.047227e-05 7.227400e-06 4.863106e-06 3.195116e-06 2.052416e-06 1.290449e-06 7.949493e-07 4.802126e-07 2.846735e-07 1.657152e-07 9.478170e-08 5.329017e-08 2.946568e-08 1.602849e-08 8.575145e-09 4.514473e-09 2.354518e-09 1.256165e-09 7.736900e-10 7.041538e-10 1.005252e-09 1.752556e-09 3.113921e-09 5.323149e-09 8.639547e-09 1.328750e-08 1.938157e-08 2.685584e-08 3.542640e-08 4.461547e-08 5.385164e-08 6.263437e-08 7.072287e-08 7.829288e-08 8.600927e-08 9.498867e-08 1.066614e-07 1.225712e-07 1.441611e-07 1.725812e-07 2.085269e-07 2.520941e-07 3.027035e-07 3.603285e-07 4.452573e-07 8.578669e-07 
5.344039e-07 2.056002e-06 6.898925e-06 1.631146e-05 3.014799e-05 4.660925e-05 6.282586e-05 7.587943e-05 8.370845e-05 8.555048e-05 8.188025e-05 7.401555e-05 6.362155e-05 5.229081e-05 4.128277e-05 3.142593e-05 2.314065e-05 1.652765e-05 1.147631e-05 7.762695e-06 5.123732e-06 3.304968e-06 2.085993e-06 1.289758e-06 7.819453e-07 4.652492e-07 2.718681e-07 1.561263e-07 8.816281e-08 4.897812e-08 2.678029e-08 1.441738e-08 7.641969e-09 3.988494e-09 2.052394e-09 1.047818e-09 5.470337e-10 3.287327e-10 2.935157e-10 4.195903e-10 7.409460e-10 1.335546e-09 2.314095e-09 3.802529e-09 5.915178e-09 8.721168e-09 1.221322e-08 1.629292e-08 2.078637e-08 2.549708e-08 3.029009e-08 3.518749e-08 4.044767e-08 4.660262e-08 5.443984e-08 6.493145e-08 7.912644e-08 9.802525e-08 1.224497e-07 1.529141e-07 1.895791e-07 2.335269e-07 3.047029e-07 6.486007e-07 
4.043791e-07 3.218280e-06 1.137129e-05 2.634011e-05 4.716350e-05 7.048519e-05 9.183879e-05 1.072903e-04 1.145933e-04 1.135062e-04 1.054033e-04 9.254417e-05 7.734784e-05 6.187912e-05 4.760004e-05 3.534096e-05 2.540598e-05 1.773157e-05 1.204222e-05 7.973796e-06 5.156504e-06 3.261437e-06 2.020102e-06 1.226656e-06 7.309218e-07 4.277373e-07 2.460115e-07 1.391491e-07 7.744475e-08 4.243273e-08 2.289781e-08 1.217415e-08 6.378949e-09 3.295873e-09 1.682368e-09 8.546145e-10 4.451206e-10 2.638369e-10 2.211471e-10 2.868972e-10 4.695677e-10 8.055243e-10 1.351591e-09 2.176288e-09 3.347069e-09 4.913438e-09 6.889103e-09 9.239397e-09 1.188180e-08 1.470595e-08 1.761445e-08 2.057877e-08 2.369750e-08 2.724139e-08 3.167164e-08 3.762511e-08 4.586761e-08 5.722258e-08 7.248275e-08 9.231176e-08 1.171911e-07 1.481054e-07 1.950384e-07 3.484371e-07 
2.572173e-07 5.220667e-06 1.859037e-05 4.177082e-05 7.215058e-05 1.039413e-04 1.306154e-04 1.473054e-04 1.520531e-04 1.457296e-04 1.310970e-04 1.116373e-04 9.060020e-05 7.045795e-05 5.274316e-05 3.814716e-05 2.674120e-05 1.821687e-05 1.208706e-05 7.826325e-06 4.953410e-06 3.068870e-06 1.863438e-06 1.110136e-06 6.494766e-07 3.734442e-07 2.111866e-07 1.175303e-07 6.440316e-08 3.476510e-08 1.849470e-08 9.701059e-09 5.021386e-09 2.571064e-09 1.313805e-09 6.940226e-10 4.261789e-10 3.783399e-10 5.102563e-10 8.414152e-10 1.433462e-09 2.376685e-09 3.773914e-09 5.718597e-09 8.267619e-09 1.141333e-08 1.506226e-08 1.902905e-08 2.305201e-08 2.683240e-08 3.009281e-08 3.264458e-08 3.445028e-08 3.566770e-08 3.666556e-08 3.800815e-08 4.041223e-08 4.468414e-08 5.164493e-08 6.204380e-08 7.641070e-08 9.416982e-08 1.018789e-07 -1.031280e-07 
9.429340e-08 8.576983e-06 2.998886e-05 6.493239e-05 1.078088e-04 1.493097e-04 1.805426e-04 1.961620e-04 1.953305e-04 1.808326e-04 1.573414e-04 1.297573e-04 1.021072e-04 7.708578e-05 5.608155e-05 3.946381e-05 2.694360e-05 1.789469e-05 1.158689e-05 7.328338e-06 4.534640e-06 2.749055e-06 1.634736e-06 9.545200e-07 5.477523e-07 3.091589e-07 1.717392e-07 9.395101e-08 5.064091e-08 2.690775e-08 1.410131e-08 7.295269e-09 3.737338e-09 1.918240e-09 1.032941e-09 6.779425e-10 6.859389e-10 1.043969e-09 1.858017e-09 3.338562e-09 5.787021e-09 9.566476e-09 1.504534e-08 2.251190e-08 3.207072e-08 4.354512e-08 5.641755e-08 6.983658e-08 8.270476e-08 9.383814e-08 1.021661e-07 1.069257e-07 1.078054e-07 1.050067e-07 9.921610e-08 9.150079e-08 8.315957e-08 7.556283e-08 7.000860e-08 6.758705e-08 6.878179e-08 6.949887e-08 1.303214e-08 -7.984154e-07 
-7.711503e-08 1.407932e-05 4.760307e-05 9.881963e-05 1.571801e-04 2.087059e-04 2.422665e-04 2.530650e-04 2.426280e-04 2.165906e-04 1.819766e-04 1.451130e-04 1.105602e-04 8.091451e-05 5.713463e-05 3.906619e-05 2.594507e-05 1.677936e-05 1.059027e-05 6.535115e-06 3.949128e-06 2.340128e-06 1.361363e-06 7.782869e-07 4.376349e-07 2.422224e-07 1.320464e-07 7.094054e-08 3.757893e-08 1.963972e-08 1.013778e-08 5.185658e-09 2.665853e-09 1.459320e-09 1.020316e-09 1.160951e-09 1.957926e-09 3.737655e-09 7.101119e-09 1.295016e-08 2.247197e-08 3.703780e-08 5.798599e-08 8.629282e-08 1.221837e-07 1.647847e-07 2.119360e-07 2.602714e-07 3.055990e-07 3.435311e-07 3.702242e-07 3.830516e-07 3.810422e-07 3.649925e-07 3.372461e-07 3.012249e-07 2.608425e-07 2.199395e-07 1.818369e-07 1.490030e-07 1.221434e-07 9.079698e-08 -7.522410e-08 -1.868840e-06 
-2.461410e-07 2.293040e-05 7.424209e-05 1.470868e-04 2.233637e-04 2.835529e-04 3.152148e-04 3.158723e-04 2.910197e-04 2.500503e-04 2.025250e-04 1.559118e-04 1.148373e-04 8.135657e-05 5.567901e-05 3.694341e-05 2.383577e-05 1.499205e-05 9.212059e-06 5.539889e-06 3.265602e-06 1.889362e-06 1.074106e-06 6.005905e-07 3.305754e-07 1.792394e-07 9.579363e-08 5.049236e-08 2.626510e-08 1.350009e-08 6.883976e-09 3.537898e-09 1.958571e-09 1.442098e-09 1.803712e-09 3.306154e-09 6.721492e-09 1.349051e-08 2.591896e-08 4.731500e-08 8.193511e-08 1.345969e-07 2.098695e-07 3.108772e-07 4.379303e-07 5.873546e-07 7.509580e-07 9.164696e-07 1.069036e-06 1.193531e-06 1.277147e-06 1.311636e-06 1.294633e-06 1.229803e-06 1.125840e-06 9.946817e-07 8.494139e-07 7.023486e-07 5.636065e-07 4.402203e-07 3.343003e-07 2.244721e-07 -1.409864e-07 -3.503872e-06 
-4.051120e-07 3.693535e-05 1.136520e-04 2.139021e-04 3.090320e-04 3.739766e-04 3.971385e-04 3.809316e-04 3.365754e-04 2.778331e-04 2.165478e-04 1.606756e-04 1.142318e-04 7.822257e-05 5.181267e-05 3.331409e-05 2.085365e-05 1.273994e-05 7.611775e-06 4.455563e-06 2.558982e-06 1.443889e-06 8.012638e-07 4.377197e-07 2.355816e-07 1.249996e-07 6.542799e-08 3.380601e-08 1.726440e-08 8.752787e-09 4.487140e-09 2.504103e-09 1.907595e-09 2.551556e-09 4.993931e-09 1.075017e-08 2.277899e-08 4.616018e-08 8.880887e-08 1.619232e-07 2.797281e-07 4.580581e-07 7.115199e-07 1.049423e-06 1.471266e-06 1.963078e-06 2.496051e-06 3.028503e-06 3.511287e-06 3.895667e-06 4.141802e-06 4.225719e-06 4.143043e-06 3.908762e-06 3.553377e-06 3.116705e-06 2.640982e-06 2.164796e-06 1.718847e-06 1.323627e-06 9.860589e-07 6.655604e-07 -9.403485e-08 -6.015308e-06 
-5.418287e-07 5.877970e-05 1.706284e-04 3.035884e-04 4.157346e-04 4.781531e-04 4.838031e-04 4.431799e-04 3.747468e-04 2.966214e-04 2.220810e-04 1.585506e-04 1.086274e-04 7.178802e-05 4.595374e-05 2.859193e-05 1.734064e-05 1.027612e-05 5.962301e-06 3.392829e-06 1.896282e-06 1.042249e-06 5.639269e-07 3.006377e-07 1.580389e-07 8.197346e-08 4.198199e-08 2.125427e-08 1.068203e-08 5.433248e-09 3.036186e-09 2.368597e-09 3.282910e-09 6.732706e-09 1.524838e-08 3.407355e-08 7.288996e-08 1.480395e-07 2.847585e-07 5.184501e-07 8.936036e-07 1.458962e-06 2.258238e-06 3.317184e-06 4.629688e-06 6.147109e-06 7.775280e-06 9.382089e-06 1.081554e-05 1.192877e-05 1.260593e-05 1.278244e-05 1.245460e-05 1.167688e-05 1.054857e-05 9.193901e-06 7.741008e-06 6.304061e-06 4.971441e-06 3.800143e-06 2.810207e-06 1.924238e-06 3.224374e-07 -1.001381e-05 
-5.527417e-07 9.241831e-05 2.509947e-04 4.199762e-04 5.430333e-04 5.917533e-04 5.689802e-04 4.965880e-04 4.010052e-04 3.037529e-04 2.180550e-04 1.495288e-04 9.856216e-05 6.276279e-05 3.876828e-05 2.330748e-05 1.367645e-05 7.851006e-06 4.417782e-06 2.440783e-06 1.325890e-06 7.090122e-07 3.735969e-07 1.941446e-07 9.957193e-08 5.043557e-08 2.525655e-08 1.254844e-08 6.295784e-09 3.467213e-09 2.721935e-09 3.875407e-09 8.129668e-09 1.918329e-08 4.507824e-08 1.018011e-07 2.185341e-07 4.442546e-07 8.541761e-07 1.553047e-06 2.671155e-06 4.349016e-06 6.709064e-06 9.817247e-06 1.364305e-05 1.803058e-05 2.269336e-05 2.724055e-05 3.123278e-05 3.425603e-05 3.599540e-05 3.628981e-05 3.515460e-05 3.276843e-05 2.943085e-05 2.550356e-05 2.135031e-05 1.728797e-05 1.355571e-05 1.030253e-05 7.579469e-06 5.231220e-06 1.743721e-06 -1.678846e-05 
6.206308e-08 1.435704e-04 3.613148e-04 5.654260e-04 6.875945e-04 7.076801e-04 6.448754e-04 5.349587e-04 4.116420e-04 2.977931e-04 2.045833e-04 1.345085e-04 8.515427e-05 5.216376e-05 3.104340e-05 1.800662e-05 1.020794e-05 5.668557e-06 3.089301e-06 1.654989e-06 8.726924e-07 4.534725e-07 2.324232e-07 1.175976e-07 5.877893e-08 2.904952e-08 1.423364e-08 7.012726e-09 3.745366e-09 2.846899e-09 4.125468e-09 8.906297e-09 2.151352e-08 5.280206e-08 1.256628e-07 2.852342e-07 6.136260e-07 1.248159e-06 2.398678e-06 4.355396e-06 7.475638e-06 1.213876e-05 1.866554e-05 2.721175e-05 3.766076e-05 4.955064e-05 6.206960e-05 7.413792e-05 8.456806e-05 9.226815e-05 9.643781e-05 9.670598e-05 9.317848e-05 8.638969e-05 7.717898e-05 6.652893e-05 5.540580e-05 4.463393e-05 3.482089e-05 2.633223e-05 1.928423e-05 1.334637e-05 5.611708e-06 -2.894646e-05 
2.937732e-06 2.202327e-04 5.081728e-04 7.395586e-04 8.424626e-04 8.163146e-04 7.030516e-04 5.529834e-04 4.045589e-04 2.789293e-04 1.830237e-04 1.151601e-04 6.989786e-05 4.112123e-05 2.353932e-05 1.315318e-05 7.193185e-06 3.858498e-06 2.033843e-06 1.055081e-06 5.393640e-07 2.720040e-07 1.354439e-07 6.664584e-08 3.243176e-08 1.563783e-08 7.546173e-09 3.868415e-09 2.732048e-09 3.868598e-09 8.726749e-09 2.181694e-08 5.508275e-08 1.373717e-07 3.292689e-07 7.500012e-07 1.615998e-06 3.288036e-06 6.314743e-06 1.144950e-05 1.961045e-05 3.175672e-05 4.867432e-05 7.070038e-05 9.745394e-05 1.276655e-04 1.591894e-04 1.892385e-04 2.148107e-04 2.332109e-04 2.425365e-04 2.420006e-04 2.320200e-04 2.140630e-04 1.903179e-04 1.632779e-04 1.353463e-04 1.085347e-04 8.429276e-05 6.346291e-05 4.628514e-05 3.203264e-05 1.497952e-05 -5.121341e-05 
1.224027e-05 3.329748e-04 6.968564e-04 9.378624e-04 9.968194e-04 9.064253e-04 7.357728e-04 5.473440e-04 3.798375e-04 2.490534e-04 1.557700e-04 9.361843e-05 5.437984e-05 3.067095e-05 1.686024e-05 9.061240e-06 4.773147e-06 2.469639e-06 1.257298e-06 6.307487e-07 3.121913e-07 1.526073e-07 7.373845e-08 3.524704e-08 1.668948e-08 7.877828e-09 3.864959e-09 2.459731e-09 3.209468e-09 7.470449e-09 1.979982e-08 5.193929e-08 1.338624e-07 3.371653e-07 8.122715e-07 1.854863e-06 4.000528e-06 8.138909e-06 1.561578e-05 2.826547e-05 4.829958e-05 7.798994e-05 1.191366e-04 1.724006e-04 2.366736e-04 3.087097e-04 3.832119e-04 4.534511e-04 5.123234e-04 5.536000e-04 5.730492e-04 5.691429e-04 5.431924e-04 4.989244e-04 4.416557e-04 3.773042e-04 3.114717e-04 2.487675e-04 1.924455e-04 1.443325e-04 1.048799e-04 7.249499e-05 3.590322e-05 -9.097546e-05 
3.677459e-05 4.945980e-04 9.293855e-04 1.150527e-03 1.136543e-03 9.667535e-04 7.375351e-04 5.175775e-04 3.398972e-04 2.114745e-04 1.258106e-04 7.208031e-05 3.999374e-05 2.158705e-05 1.137631e-05 5.870966e-06 2.974290e-06 1.482189e-06 7.277826e-07 3.526017e-07 1.687545e-07 7.986076e-08 3.740071e-08 1.735150e-08 8.004209e-09 3.767454e-09 2.135338e-09 2.400562e-09 5.579982e-09 1.574846e-08 4.395115e-08 1.180142e-07 3.083973e-07 7.824449e-07 1.891945e-06 4.327345e-06 9.335888e-06 1.898067e-05 3.636416e-05 6.568066e-05 1.119291e-04 1.801527e-04 2.742018e-04 3.952235e-04 5.402859e-04 7.016447e-04 8.670662e-04 1.021338e-03 1.148712e-03 1.235697e-03 1.273485e-03 1.259383e-03 1.196966e-03 1.095007e-03 9.655694e-04 8.218108e-04 6.759867e-04 5.380270e-04 4.148122e-04 3.100793e-04 2.246042e-04 1.550058e-04 7.962717e-05 -1.577274e-04 
9.243891e-05 7.186189e-04 1.202070e-03 1.361999e-03 1.245769e-03 9.880686e-04 7.064146e-04 4.664231e-04 2.891465e-04 1.703103e-04 9.616644e-05 5.241477e-05 2.772586e-05 1.429554e-05 7.209821e-06 3.566983e-06 1.735210e-06 8.316093e-07 3.932768e-07 1.837650e-07 8.493486e-08 3.886536e-08 1.762296e-08 7.935170e-09 3.599007e-09 1.830752e-09 1.668160e-09 3.660653e-09 1.093432e-08 3.275748e-08 9.364002e-08 2.555818e-07 6.751074e-07 1.722187e-06 4.174376e-06 9.554215e-06 2.060212e-05 4.182787e-05 7.996643e-05 1.440392e-04 2.446612e-04 3.923297e-04 5.947286e-04 8.535282e-04 1.161585e-03 1.501610e-03 1.847120e-03 2.165870e-03 2.425119e-03 2.597466e-03 2.665736e-03 2.625703e-03 2.486097e-03 2.266141e-03 1.991457e-03 1.689485e-03 1.385431e-03 1.099443e-03 8.452507e-04 6.300861e-04 4.551678e-04 3.136550e-04 1.656420e-04 -2.603047e-04 
2.040296e-04 1.016141e-03 1.503142e-03 1.551798e-03 1.309411e-03 9.652549e-04 6.448208e-04 3.994825e-04 2.331785e-04 1.297118e-04 6.935897e-05 3.588710e-05 1.806154e-05 8.879018e-06 4.277924e-06 2.025590e-06 9.447045e-07 4.347768e-07 1.977514e-07 8.900077e-08 3.967626e-08 1.753531e-08 7.693283e-09 3.374496e-09 1.571743e-09 1.122598e-09 2.132262e-09 6.625446e-09 2.137171e-08 6.569550e-08 1.910295e-07 5.284684e-07 1.408127e-06 3.606406e-06 8.752951e-06 2.002806e-05 4.312876e-05 8.737099e-05 1.665531e-04 2.989607e-04 5.057980e-04 8.075644e-04 1.218538e-03 1.740430e-03 2.357076e-03 3.032250e-03 3.712122e-03 4.332505e-03 4.829483e-03 5.150809e-03 5.265119e-03 5.166721e-03 4.875061e-03 4.429474e-03 3.880997e-03 3.283423e-03 2.685570e-03 2.126012e-03 1.630656e-03 1.212781e-03 8.741329e-04 6.016230e-04 3.253746e-04 -4.009959e-04 
4.048186e-04 1.391132e-03 1.811366e-03 1.696937e-03 1.316222e-03 8.988484e-04 5.593476e-04 3.242179e-04 1.777113e-04 9.312795e-05 4.704548e-05 2.305676e-05 1.101795e-05 5.154245e-06 2.368062e-06 1.071327e-06 4.782751e-07 2.110648e-07 9.220429e-08 3.991940e-08 1.714455e-08 7.311482e-09 3.106511e-09 1.354137e-09 7.671155e-10 1.125262e-09 3.501393e-09 1.215215e-08 4.040081e-08 1.264785e-07 3.733124e-07 1.045088e-06 2.805022e-06 7.204486e-06 1.749219e-05 3.997963e-05 8.590471e-05 1.735014e-04 3.295124e-04 5.889352e-04 9.916729e-04 1.575300e-03 2.364450e-03 3.359021e-03 4.524819e-03 5.790437e-03 7.052912e-03 8.192064e-03 9.090574e-03 9.654819e-03 9.831136e-03 9.613635e-03 9.042237e-03 8.192356e-03 7.159543e-03 6.043126e-03 4.932323e-03 3.896952e-03 2.983358e-03 2.214731e-03 1.593363e-03 1.095627e-03 6.057430e-04 -5.666751e-04 
7.322350e-04 1.834954e-03 2.096694e-03 1.775861e-03 1.261669e-03 7.954713e-04 4.596522e-04 2.485262e-04 1.275581e-04 6.280528e-05 2.990024e-05 1.384842e-05 6.269918e-06 2.785626e-06 1.218201e-06 5.256890e-07 2.242980e-07 9.477964e-08 3.971619e-08 1.652124e-08 6.828688e-09 2.809147e-09 1.164658e-09 5.508799e-10 5.612564e-10 1.615083e-09 5.988416e-09 2.161052e-08 7.333592e-08 2.334701e-07 6.990006e-07 1.978637e-06 5.344858e-06 1.375679e-05 3.339126e-05 7.618165e-05 1.632198e-04 3.284098e-04 6.209005e-04 1.104071e-03 1.848770e-03 2.919666e-03 4.356010e-03 6.151119e-03 8.237065e-03 1.048107e-02 1.269745e-02 1.467418e-02 1.620849e-02 1.714255e-02 1.739033e-02 1.694938e-02 1.589585e-02 1.436556e-02 1.252707e-02 1.055349e-02 8.599033e-03 6.783437e-03 5.185474e-03 3.843813e-03 2.761212e-03 1.897439e-03 1.071175e-03 -7.189524e-04 
1.218810e-03 2.321897e-03 2.323733e-03 1.773186e-03 1.149698e-03 6.668729e-04 3.566019e-04 1.792755e-04 8.590298e-05 3.962800e-05 1.773348e-05 7.743304e-06 3.314323e-06 1.395671e-06 5.799051e-07 2.383042e-07 9.703371e-08 3.920866e-08 1.574092e-08 6.284716e-09 2.498083e-09 9.933950e-10 4.170057e-10 2.853474e-10 6.563513e-10 2.542570e-09 9.970672e-09 3.685048e-08 1.274647e-07 4.126791e-07 1.253309e-06 3.586527e-06 9.747704e-06 2.513479e-05 6.097327e-05 1.388101e-04 2.964030e-04 5.937879e-04 1.116821e-03 1.974330e-03 3.285180e-03 5.153875e-03 7.637695e-03 1.071323e-02 1.425329e-02 1.802446e-02 2.171031e-02 2.495780e-02 2.743640e-02 2.889552e-02 2.920592e-02 2.837614e-02 2.654191e-02 2.393368e-02 2.083227e-02 1.752321e-02 1.425909e-02 1.123505e-02 8.578613e-03 6.351516e-03 4.556871e-03 3.129953e-03 1.802177e-03 -7.873841e-04 
1.879382e-03 2.808039e-03 2.458010e-03 1.683970e-03 9.926591e-04 5.277066e-04 2.601862e-04 1.212043e-04 5.404527e-05 2.328973e-05 9.769779e-06 4.011866e-06 1.619754e-06 6.451978e-07 2.542542e-07 9.933928e-08 3.854803e-08 1.487661e-08 5.715981e-09 2.188552e-09 8.366805e-10 3.257326e-10 1.610310e-10 2.432221e-10 9.272747e-10 3.937166e-09 1.588846e-08 5.999804e-08 2.116059e-07 6.971279e-07 2.148692e-06 6.218259e-06 1.700833e-05 4.394600e-05 1.065605e-04 2.420742e-04 5.150922e-04 1.027083e-03 1.920921e-03 3.374153e-03 5.575495e-03 8.683475e-03 1.277341e-02 1.778630e-02 2.349706e-02 2.951681e-02 3.533512e-02 4.039605e-02 4.419068e-02 4.634369e-02 4.667333e-02 4.521217e-02 4.218720e-02 3.796789e-02 3.299722e-02 2.772190e-02 2.253521e-02 1.773997e-02 1.353340e-02 1.001019e-02 7.173785e-03 4.925572e-03 2.888511e-03 -6.708701e-04 
2.697886e-03 3.235388e-03 2.473834e-03 1.516063e-03 8.091591e-04 3.926155e-04 1.777801e-04 7.645156e-05 3.161336e-05 1.268560e-05 4.974088e-06 1.915980e-06 7.280217e-07 2.737686e-07 1.021449e-07 3.788895e-08 1.399419e-08 5.152826e-09 1.893263e-09 6.948601e-10 2.563913e-10 1.036569e-10 8.979656e-11 2.921171e-10 1.323555e-09 5.831315e-09 2.409560e-08 9.297913e-08 3.346061e-07 1.122630e-06 3.514554e-06 1.029388e-05 2.835676e-05 7.346958e-05 1.781830e-04 4.040952e-04 8.570398e-04 1.701022e-03 3.163016e-03 5.518795e-03 9.052326e-03 1.398913e-02 2.041546e-02 2.820538e-02 3.698144e-02 4.612844e-02 5.486532e-02 6.236261e-02 6.787878e-02 7.088291e-02 7.113578e-02 6.871360e-02 6.397414e-02 5.747849e-02 4.989009e-02 4.187374e-02 3.401298e-02 2.675666e-02 2.039696e-02 1.507365e-02 1.079091e-02 7.405954e-03 4.415751e-03 -2.512987e-04 
3.618791e-03 3.541808e-03 2.361576e-03 1.289428e-03 6.202916e-04 2.734580e-04 1.132208e-04 4.476256e-05 1.710039e-05 6.368002e-06 2.326901e-06 8.385493e-07 2.991932e-07 1.060132e-07 3.739104e-08 1.315083e-08 4.618566e-09 1.621329e-09 5.693777e-10 2.004535e-10 7.271484e-11 3.821368e-11 8.187732e-11 3.786901e-10 1.813746e-09 8.198460e-09 3.466428e-08 1.367495e-07 5.025171e-07 1.718534e-06 5.470119e-06 1.623253e-05 4.508646e-05 1.172735e-04 2.847806e-04 6.453275e-04 1.365102e-03 2.698031e-03 4.989018e-03 8.646715e-03 1.407674e-02 2.157948e-02 3.123357e-02 4.279894e-02 5.567466e-02 6.893477e-02 8.144309e-02 9.202470e-02 9.965511e-02 1.036236e-01 1.036361e-01 9.983839e-02 9.276368e-02 8.322152e-02 7.215800e-02 6.051691e-02 4.912593e-02 3.862240e-02 2.942198e-02 2.172377e-02 1.553362e-02 1.065434e-02 6.445676e-03 5.801608e-04 
4.548253e-03 3.674977e-03 2.131766e-03 1.032292e-03 4.453236e-04 1.774668e-04 6.685738e-05 2.419069e-05 8.502648e-06 2.927652e-06 9.937817e-07 3.341586e-07 1.117093e-07 3.723085e-08 1.239646e-08 4.129941e-09 1.378244e-09 4.610948e-10 1.547856e-10 5.254388e-11 2.040975e-11 2.241294e-11 9.327158e-11 4.789169e-10 2.358962e-09 1.091091e-08 4.719405e-08 1.903899e-07 7.148156e-07 2.493806e-06 8.079035e-06 2.432040e-05 6.820969e-05 1.783946e-04 4.344012e-04 9.848650e-04 2.080127e-03 4.097304e-03 7.538648e-03 1.298313e-02 2.098174e-02 3.190812e-02 4.579952e-02 6.223717e-02 8.031109e-02 9.869266e-02 1.158073e-01 1.300714e-01 1.401397e-01 1.451101e-01 1.446453e-01 1.389915e-01 1.289025e-01 1.154914e-01 1.000467e-01 8.385073e-02 6.802926e-02 5.345172e-02 4.068748e-02 3.001047e-02 2.142979e-02 1.468442e-02 8.993179e-03 1.889071e-03 
5.367624e-03 3.606516e-03 1.814173e-03 7.750660e-04 2.981214e-04 1.067783e-04 3.640163e-05 1.199275e-05 3.860618e-06 1.224247e-06 3.847615e-07 1.203912e-07 3.763049e-08 1.177873e-08 3.698607e-09 1.166518e-09 3.698371e-10 1.179369e-10 3.791394e-11 1.275845e-11 7.289493e-12 2.071712e-11 1.091740e-10 5.788809e-10 2.908638e-09 1.373715e-08 6.073040e-08 2.504718e-07 9.609983e-07 3.422258e-06 1.129488e-05 3.453634e-05 9.796801e-05 2.581105e-04 6.313885e-04 1.434516e-03 3.029398e-03 5.953845e-03 1.090997e-02 1.868388e-02 2.998898e-02 4.525749e-02 6.443475e-02 8.684347e-02 1.111706e-01 1.355949e-01 1.580327e-01 1.764471e-01 1.891548e-01 1.950673e-01 1.938244e-01 1.858049e-01 1.720231e-01 1.539418e-01 1.332432e-01 1.116004e-01 9.048647e-02 7.104432e-02 5.402639e-02 3.979690e-02 2.836983e-02 1.941212e-02 1.200472e-02 3.665856e-03 
5.957789e-03 3.341490e-03 1.451589e-03 5.439113e-04 1.853349e-04 5.927441e-05 1.817148e-05 5.419666e-06 1.589687e-06 4.622466e-07 1.340334e-07 3.892132e-08 1.135319e-08 3.333574e-09 9.866299e-10 2.945785e-10 8.876477e-11 2.701722e-11 8.412907e-12 3.273919e-12 4.809063e-12 2.295501e-11 1.259877e-10 6.723888e-10 3.417925e-09 1.640747e-08 7.393660e-08 3.112950e-07 1.219824e-06 4.434565e-06 1.492040e-05 4.639511e-05 1.333380e-04 3.545941e-04 8.731121e-04 1.991612e-03 4.212241e-03 8.272099e-03 1.511500e-02 2.576638e-02 4.110933e-02 6.160600e-02 8.704505e-02 1.164020e-01 1.478682e-01 1.790534e-01 2.073169e-01 2.301514e-01 2.455428e-01 2.522369e-01 2.498782e-01 2.390059e-01 2.209239e-01 1.974772e-01 1.707779e-01 1.429304e-01 1.157952e-01 9.082394e-02 6.897749e-02 5.072341e-02 3.608112e-02 2.463816e-02 1.534472e-02 5.807714e-03 
6.228290e-03 2.919467e-03 1.090042e-03 3.559213e-04 1.066760e-04 3.024189e-05 8.277271e-06 2.219864e-06 5.897510e-07 1.564626e-07 4.169446e-08 1.120544e-08 3.045184e-09 8.381456e-10 2.338239e-10 6.613475e-11 1.897017e-11 5.555152e-12 1.838031e-12 1.528995e-12 5.444680e-12 2.784147e-11 1.472939e-10 7.695563e-10 3.891190e-09 1.878086e-08 8.567296e-08 3.666675e-07 1.463901e-06 5.426992e-06 1.861319e-05 5.890431e-05 1.717809e-04 4.620292e-04 1.147450e-03 2.632893e-03 5.586985e-03 1.098119e-02 2.003739e-02 3.404428e-02 5.405107e-02 8.051022e-02 1.129823e-01 1.500094e-01 1.892087e-01 2.275694e-01 2.618760e-01 2.891638e-01 3.071176e-01 3.143520e-01 3.105438e-01 2.964122e-01 2.735655e-01 2.442453e-01 2.110138e-01 1.764316e-01 1.427744e-01 1.118273e-01 8.477752e-02 6.220322e-02 4.412670e-02 3.004860e-02 1.879594e-02 8.123235e-03 
6.142560e-03 2.406025e-03 7.685300e-04 2.172971e-04 5.686528e-05 1.417471e-05 3.434907e-06 8.216229e-07 1.962468e-07 4.720951e-08 1.150748e-08 2.853338e-09 7.212649e-10 1.860290e-10 4.895498e-11 1.314118e-11 3.615742e-12 1.103587e-12 7.177774e-13 1.942087e-12 8.325176e-12 3.873228e-11 1.869769e-10 9.165433e-10 4.462409e-09 2.115703e-08 9.615481e-08 4.139222e-07 1.672392e-06 6.297135e-06 2.197300e-05 7.074394e-05 2.095402e-04 5.709394e-04 1.432714e-03 3.312888e-03 7.065608e-03 1.392253e-02 2.540916e-02 4.309028e-02 6.816863e-02 1.010439e-01 1.409829e-01 1.860249e-01 2.331617e-01 2.787425e-01 3.189925e-01 3.505282e-01 3.707796e-01 3.782686e-01 3.727278e-01 3.550645e-01 3.271901e-01 2.917416e-01 2.517342e-01 2.101940e-01 1.698244e-01 1.327549e-01 1.004038e-01 7.345802e-02 5.193445e-02 3.523804e-02 2.207767e-02 1.036188e-02 
5.731017e-03 1.877028e-03 5.115849e-04 1.246907e-04 2.831055e-05 6.154714e-06 1.307917e-06 2.761771e-07 5.871245e-08 1.269362e-08 2.810707e-09 6.400687e-10 1.501569e-10 3.628241e-11 9.020513e-12 2.315645e-12 6.623716e-13 4.025761e-13 1.000232e-12 3.827563e-12 1.550728e-11 6.471675e-11 2.786097e-10 1.232436e-09 5.534962e-09 2.480708e-08 1.089422e-07 4.610998e-07 1.855315e-06 7.019263e-06 2.475212e-05 8.079210e-05 2.428253e-04 6.705878e-04 1.701963e-03 3.970789e-03 8.523469e-03 1.686221e-02 3.082548e-02 5.225403e-02 8.248659e-02 1.218343e-01 1.692255e-01 2.221598e-01 2.769902e-01 3.294438e-01 3.752295e-01 4.106003e-01 4.327827e-01 4.402406e-01 4.327755e-01 4.114789e-01 3.785524e-01 3.370142e-01 2.903228e-01 2.419637e-01 1.950626e-01 1.520852e-01 1.146693e-01 8.359478e-02 5.885737e-02 3.975527e-02 2.488099e-02 1.226207e-02 
5.087454e-03 1.400705e-03 3.268155e-04 6.874135e-05 1.351598e-05 2.548706e-06 4.705462e-07 8.660037e-08 1.614462e-08 3.090401e-09 6.135872e-10 1.271073e-10 2.751887e-11 6.218385e-12 1.469050e-12 3.915499e-13 2.327960e-13 5.827633e-13 2.172215e-12 8.359151e-12 3.229080e-11 1.255936e-10 4.944052e-10 1.976751e-09 8.022608e-09 3.284692e-08 1.341452e-07 5.386441e-07 2.094749e-06 7.780022e-06 2.726212e-05 8.921699e-05 2.704529e-04 7.547776e-04 1.934518e-03 4.551195e-03 9.833387e-03 1.954255e-02 3.581750e-02 6.075980e-02 9.582636e-02 1.412226e-01 1.955302e-01 2.557183e-01 3.175343e-01 3.761358e-01 4.267789e-01 4.654132e-01 4.891055e-01 4.962835e-01 4.868191e-01 4.619748e-01 4.242228e-01 3.769429e-01 3.240170e-01 2.693688e-01 2.165206e-01 1.682439e-01 1.263623e-01 9.171744e-02 6.425915e-02 4.316647e-02 2.691648e-02 1.360507e-02 
4.349497e-03 1.023414e-03 2.076117e-04 3.820176e-05 6.572536e-06 1.080836e-06 1.731029e-07 2.749322e-08 4.411962e-09 7.290902e-10 1.262536e-10 2.320271e-11 4.551109e-12 9.554429e-13 2.313063e-13 1.333678e-13 3.424715e-13 1.280508e-12 4.889735e-12 1.855365e-11 6.992711e-11 2.622747e-10 9.813427e-10 3.671918e-09 1.376100e-08 5.162898e-08 1.932437e-07 7.166048e-07 2.607021e-06 9.197487e-06 3.109150e-05 9.957479e-05 2.991888e-04 8.339134e-04 2.140596e-03 5.049675e-03 1.094209e-02 2.179897e-02 4.001622e-02 6.791977e-02 1.070666e-01 1.575662e-01 2.176948e-01 2.839603e-01 3.515898e-01 4.152591e-01 4.698472e-01 5.110533e-01 5.358126e-01 5.425214e-01 5.311111e-01 5.029968e-01 4.609014e-01 4.085432e-01 3.501993e-01 2.901930e-01 2.323928e-01 1.798192e-01 1.344256e-01 9.706837e-02 6.762072e-02 4.513166e-02 2.796872e-02 1.426028e-02 
3.668875e-03 7.635860e-04 1.392719e-04 2.317491e-05 3.604497e-06 5.331029e-07 7.605247e-08 1.061184e-08 1.471070e-09 2.065148e-10 3.005216e-11 4.650479e-12 7.844471e-13 1.562938e-13 7.774291e-14 1.977065e-13 7.445929e-13 2.853663e-12 1.083530e-11 4.070011e-11 1.512666e-10 5.565031e-10 2.027704e-09 7.321183e-09 2.619988e-08 9.288726e-08 3.257060e-07 1.125787e-06 3.815623e-06 1.259173e-05 4.012035e-05 1.223137e-04 3.536423e-04 9.581813e-04 2.410415e-03 5.606555e-03 1.203117e-02 2.380805e-02 4.349673e-02 7.356517e-02 1.156335e-01 1.697473e-01 2.339787e-01 3.045226e-01 3.762440e-01 4.434740e-01 5.008082e-01 5.437438e-01 5.690949e-01 5.752143e-01 5.620711e-01 5.312094e-01 4.855763e-01 4.291942e-01 3.666843e-01 3.026993e-01 2.413710e-01 1.858826e-01 1.382420e-01 9.926687e-02 6.872569e-02 4.553742e-02 2.798243e-02 1.421150e-02 
3.072175e-03 5.823492e-04 9.821559e-05 1.522131e-05 2.210691e-06 3.049864e-07 4.038624e-08 5.180380e-09 6.497753e-10 8.061988e-11 1.005441e-11 1.291458e-12 1.823450e-13 5.299642e-14 1.098697e-13 4.124750e-13 1.588611e-12 6.056790e-12 2.281351e-11 8.485925e-11 3.116265e-10 1.129435e-09 4.038457e-09 1.423867e-08 4.946270e-08 1.690837e-07 5.676934e-07 1.866824e-06 5.989649e-06 1.865740e-05 5.608446e-05 1.615886e-04 4.429807e-04 1.145759e-03 2.776209e-03 6.270738e-03 1.315877e-02 2.560866e-02 4.621960e-02 7.748895e-02 1.210470e-01 1.769177e-01 2.431072e-01 3.156965e-01 3.893979e-01 4.583680e-01 5.170288e-01 5.607236e-01 5.861502e-01 5.916017e-01 5.770634e-01 5.441855e-01 4.961076e-01 4.371040e-01 3.720598e-01 3.058524e-01 2.427599e-01 1.860187e-01 1.376051e-01 9.824504e-02 6.758575e-02 4.443246e-02 2.701940e-02 1.353701e-02 
2.507097e-03 4.370428e-04 6.876754e-05 1.002563e-05 1.376536e-06 1.799952e-07 2.260084e-08 2.743248e-09 3.237927e-10 3.739638e-11 4.260158e-12 4.874141e-13 6.954670e-14 6.078518e-14 2.126798e-13 8.206918e-13 3.139983e-12 1.186113e-11 4.420665e-11 1.624650e-10 5.883858e-10 2.098323e-09 7.362198e-09 2.538632e-08 8.591417e-08 2.848791e-07 9.235120e-07 2.918891e-06 8.964147e-06 2.663997e-05 7.624532e-05 2.090325e-04 5.457888e-04 1.349704e-03 3.146086e-03 6.880806e-03 1.406956e-02 2.683511e-02 4.770624e-02 7.911115e-02 1.226455e-01 1.783527e-01 2.443039e-01 3.166575e-01 3.901756e-01 4.590103e-01 5.175221e-01 5.609558e-01 5.859088e-01 5.906122e-01 5.750593e-01 5.409912e-01 4.917057e-01 4.316629e-01 3.659093e-01 2.994176e-01 2.364759e-01 1.802527e-01 1.326057e-01 9.412284e-02 6.432504e-02 4.193429e-02 2.518967e-02 1.236821e-02 