# vtk DataFile Version 2.0
Comment goes here
ASCII

DATASET STRUCTURED_POINTS
DIMENSIONS    64   64   1

ORIGIN    0.000   0.000   0.000
SPACING   0.0158730.015873   1.000

POINT_DATA   4096
SCALARS Concentration double
LOOKUP_TABLE default

1.836931e-07 2.948782e-07 7.421711e-07 1.635899e-06 2.939535e-06 4.447139e-06 5.855110e-06 6.877925e-06 7.342284e-06 7.222163e-06 6.616105e-06 5.692356e-06 4.630972e-06 3.582095e-06 2.646458e-06 1.874596e-06 1.277194e-06 8.392568e-07 5.331274e-07 3.280445e-07 1.958611e-07 1.136383e-07 6.415404e-08 3.528040e-08 1.891807e-08 9.899674e-09 5.059207e-09 2.526578e-09 1.233675e-09 5.892324e-10 2.754490e-10 1.262565e-10 5.719553e-11 2.746880e-11 1.858483e-11 2.421922e-11 4.597457e-11 9.197461e-11 1.767995e-10 3.214729e-10 5.522403e-10 8.970392e-10 1.379211e-09 2.009360e-09 2.778144e-09 3.654419e-09 4.593329e-09 5.556719e-09 6.543748e-09 7.624510e-09 8.966586e-09 1.084567e-08 1.363660e-08 1.778752e-08 2.378402e-08 3.210998e-08 4.320805e-08 5.743732e-08 7.502092e-08 9.597193e-08 1.199878e-07 1.463910e-07 1.759832e-07 2.531619e-07 
1.463710e-07 3.957790e-07 1.224973e-06 2.796005e-06 4.990635e-06 7.412744e-06 9.546654e-06 1.095901e-05 1.143432e-05 1.100038e-05 9.865420e-06 8.318644e-06 6.640310e-06 5.045875e-06 3.666787e-06 2.557958e-06 1.718524e-06 1.114952e-06 7.001776e-07 4.264633e-07 2.523652e-07 1.453131e-07 8.152246e-08 4.461130e-08 2.383660e-08 1.244683e-08 6.356617e-09 3.177185e-09 1.555138e-09 7.458202e-10 3.506199e-10 1.616382e-10 7.301357e-11 3.239449e-11 1.452917e-11 7.737318e-12 7.387637e-12 1.291839e-11 2.674252e-11 5.406305e-11 1.029126e-10 1.838210e-10 3.086062e-10 4.880749e-10 7.290170e-10 1.031725e-09 1.390005e-09 1.795750e-09 2.249196e-09 2.774065e-09 3.434641e-09 4.350582e-09 5.705596e-09 7.747933e-09 1.078278e-08 1.515786e-08 2.124326e-08 2.940445e-08 3.996531e-08 5.315532e-08 6.904094e-08 8.759647e-08 1.117304e-07 1.985812e-07 
1.171248e-07 6.452179e-07 2.182473e-06 4.920970e-06 8.536809e-06 1.228507e-05 1.532614e-05 1.705486e-05 1.726755e-05 1.613868e-05 1.407754e-05 1.155904e-05 8.995274e-06 6.671231e-06 4.736661e-06 3.231905e-06 2.125928e-06 1.351810e-06 8.328424e-07 4.981410e-07 2.897540e-07 1.641505e-07 9.068929e-08 4.891770e-08 2.578741e-08 1.329736e-08 6.712410e-09 3.319317e-09 1.608957e-09 7.649025e-10 3.568245e-10 1.634206e-10 7.348748e-11 3.251008e-11 1.435479e-11 6.851298e-12 4.734190e-12 6.326594e-12 1.215512e-11 2.452699e-11 4.749700e-11 8.680826e-11 1.494594e-10 2.426633e-10 3.722103e-10 5.406541e-10 7.462000e-10 9.834745e-10 1.247249e-09 1.539548e-09 1.879544e-09 2.314617e-09 2.930455e-09 3.858264e-09 5.277865e-09 7.416187e-09 1.054082e-08 1.494774e-08 2.094093e-08 2.880050e-08 3.874179e-08 5.100108e-08 6.812004e-08 1.257092e-07 
9.043696e-08 1.120233e-06 3.879843e-06 8.516466e-06 1.427903e-05 1.984149e-05 2.391594e-05 2.574136e-05 2.523942e-05 2.287352e-05 1.937094e-05 1.546080e-05 1.170895e-05 8.460364e-06 5.858699e-06 3.902834e-06 2.508945e-06 1.560598e-06 9.413840e-07 5.517799e-07 3.147895e-07 1.750514e-07 9.500697e-08 5.038199e-08 2.613071e-08 1.326659e-08 6.598305e-09 3.217114e-09 1.538606e-09 7.222075e-10 3.329129e-10 1.508442e-10 6.734871e-11 3.004891e-11 1.443350e-11 9.787227e-12 1.260532e-11 2.386452e-11 4.827095e-11 9.436657e-11 1.746441e-10 3.048943e-10 5.021479e-10 7.809702e-10 1.148550e-09 1.599828e-09 2.114477e-09 2.657538e-09 3.184763e-09 3.652435e-09 4.030048e-09 4.313344e-09 4.535127e-09 4.772064e-09 5.146911e-09 5.826673e-09 7.017632e-09 8.957698e-09 1.190520e-08 1.612114e-08 2.183745e-08 2.916488e-08 3.710816e-08 2.300534e-08 
6.714873e-08 1.986667e-06 6.807617e-06 1.443136e-05 2.329380e-05 3.116744e-05 3.621404e-05 3.762506e-05 3.566155e-05 3.128520e-05 2.568210e-05 1.989518e-05 1.464215e-05 1.029334e-05 6.942782e-06 4.509608e-06 2.829543e-06 1.719502e-06 1.014299e-06 5.818848e-07 3.251856e-07 1.772838e-07 9.440387e-08 4.915475e-08 2.505011e-08 1.250509e-08 6.119542e-09 2.937607e-09 1.384130e-09 6.405508e-10 2.914661e-10 1.308142e-10 5.876253e-11 2.857986e-11 2.009830e-11 2.764704e-11 5.576861e-11 1.193743e-10 2.463087e-10 4.803886e-10 8.824419e-10 1.526433e-09 2.488260e-09 3.826844e-09 5.560524e-09 7.645319e-09 9.963418e-09 1.232887e-08 1.451268e-08 1.628306e-08 1.745097e-08 1.790929e-08 1.765570e-08 1.679511e-08 1.552381e-08 1.410204e-08 1.282360e-08 1.198968e-08 1.188993e-08 1.278731e-08 1.486779e-08 1.768254e-08 1.245505e-08 -1.290885e-07 
4.647450e-08 3.525522e-06 1.174265e-05 2.390628e-05 3.701842e-05 4.756375e-05 5.315048e-05 5.319521e-05 4.864762e-05 4.124182e-05 3.276442e-05 2.459761e-05 1.756667e-05 1.199819e-05 7.871799e-06 4.978987e-06 3.045348e-06 1.805828e-06 1.040417e-06 5.835007e-07 3.190631e-07 1.703400e-07 8.889670e-08 4.539842e-08 2.270815e-08 1.113422e-08 5.355334e-09 2.528396e-09 1.172557e-09 5.347547e-10 2.407031e-10 1.086316e-10 5.315178e-11 3.797425e-11 5.444281e-11 1.159984e-10 2.628765e-10 5.745511e-10 1.186764e-09 2.306947e-09 4.217716e-09 7.255686e-09 1.175565e-08 1.796045e-08 2.591295e-08 3.536226e-08 4.572238e-08 5.611227e-08 6.548184e-08 7.279839e-08 7.724478e-08 7.837493e-08 7.618635e-08 7.109659e-08 6.383966e-08 5.531839e-08 4.645414e-08 3.806744e-08 3.080647e-08 2.511604e-08 2.113563e-08 1.722943e-08 -9.634318e-09 -3.632498e-07 
2.104637e-08 6.204133e-06 1.987633e-05 3.867214e-05 5.724934e-05 7.043910e-05 7.552062e-05 7.265735e-05 6.398850e-05 5.232931e-05 4.016616e-05 2.917694e-05 2.018937e-05 1.337818e-05 8.525741e-06 5.244164e-06 3.122649e-06 1.804529e-06 1.014202e-06 5.553872e-07 2.967960e-07 1.549876e-07 7.918086e-08 3.961591e-08 1.942810e-08 9.346322e-09 4.413711e-09 2.047503e-09 9.340923e-10 4.206328e-10 1.901703e-10 9.341685e-11 6.642585e-11 9.623304e-11 2.133546e-10 5.097949e-10 1.180057e-09 2.584847e-09 5.327928e-09 1.032005e-08 1.878491e-08 3.215279e-08 5.180329e-08 7.866659e-08 1.127643e-07 1.528346e-07 1.962035e-07 2.390145e-07 2.768140e-07 3.053636e-07 3.214605e-07 3.235370e-07 3.118868e-07 2.884847e-07 2.564882e-07 2.195865e-07 1.813682e-07 1.448439e-07 1.121824e-07 8.463718e-08 6.238001e-08 4.137052e-08 -2.715829e-08 -7.387902e-07 
-3.029818e-08 1.079234e-05 3.298090e-05 6.102716e-05 8.606165e-05 1.011090e-04 1.037526e-04 9.574598e-05 8.104400e-05 6.381728e-05 4.724545e-05 3.315295e-05 2.219305e-05 1.424592e-05 8.805955e-06 5.260063e-06 3.045086e-06 1.712645e-06 9.377716e-07 5.007936e-07 2.612234e-07 1.332676e-07 6.657125e-08 3.259298e-08 1.565334e-08 7.380100e-09 3.418222e-09 1.556890e-09 6.995672e-10 3.151490e-10 1.542548e-10 1.086545e-10 1.536635e-10 3.469626e-10 8.675240e-10 2.123092e-09 4.934595e-09 1.080235e-08 2.221456e-08 4.288738e-08 7.774985e-08 1.324575e-07 2.122959e-07 3.205463e-07 4.566747e-07 6.149476e-07 7.841126e-07 9.485299e-07 1.090672e-06 1.194399e-06 1.248107e-06 1.246873e-06 1.193062e-06 1.095344e-06 9.665762e-07 8.211876e-07 6.727733e-07 5.323554e-07 4.075106e-07 3.022539e-07 2.169441e-07 1.421498e-07 -2.033745e-08 -1.380054e-06 
-1.430184e-07 1.854764e-05 5.360156e-05 9.384302e-05 1.256011e-04 1.404846e-04 1.376283e-04 1.215555e-04 9.869078e-05 7.468873e-05 5.323750e-05 3.602759e-05 2.329406e-05 1.446263e-05 8.658366e-06 5.015244e-06 2.818711e-06 1.540810e-06 8.208540e-07 4.269215e-07 2.170871e-07 1.080619e-07 5.271523e-08 2.522510e-08 1.185002e-08 5.469116e-09 2.482047e-09 1.110319e-09 4.959317e-10 2.378294e-10 1.628473e-10 2.249549e-10 5.014268e-10 1.293734e-09 3.332121e-09 8.212911e-09 1.911542e-08 4.181322e-08 8.581523e-08 1.651957e-07 2.983934e-07 5.061816e-07 8.073573e-07 1.212537e-06 1.717546e-06 2.298709e-06 2.912366e-06 3.499815e-06 3.997107e-06 4.347241e-06 4.511340e-06 4.475707e-06 4.253043e-06 3.878019e-06 3.398997e-06 2.868446e-06 2.334452e-06 1.834915e-06 1.394924e-06 1.026857e-06 7.311625e-07 4.847219e-07 8.501165e-08 -2.573135e-06 
-3.275792e-07 3.150073e-05 8.524078e-05 1.404335e-04 1.777107e-04 1.886685e-04 1.760122e-04 1.484480e-04 1.153675e-04 8.375100e-05 5.737299e-05 3.737935e-05 2.330444e-05 1.397260e-05 8.089057e-06 4.536747e-06 2.471834e-06 1.311386e-06 6.787816e-07 3.433531e-07 1.699731e-07 8.244719e-08 3.922666e-08 1.832265e-08 8.408923e-09 3.794794e-09 1.686767e-09 7.449030e-10 3.454666e-10 2.194140e-10 2.924325e-10 6.534308e-10 1.696742e-09 4.552700e-09 1.186516e-08 2.936635e-08 6.842753e-08 1.496074e-07 3.065609e-07 5.886862e-07 1.059940e-06 1.791097e-06 2.844124e-06 4.250412e-06 5.988451e-06 7.969125e-06 1.003632e-05 1.198638e-05 1.360324e-05 1.470039e-05 1.515748e-05 1.494157e-05 1.410820e-05 1.278370e-05 1.113577e-05 9.340976e-06 7.557220e-06 5.905739e-06 4.464002e-06 3.267477e-06 2.314517e-06 1.544699e-06 5.183489e-07 -4.973005e-06 
-4.110887e-07 5.286751e-05 1.324622e-04 2.042053e-04 2.433826e-04 2.445189e-04 2.166723e-04 1.741028e-04 1.292439e-04 8.982404e-05 5.902807e-05 3.695893e-05 2.218111e-05 1.282164e-05 7.166449e-06 3.885694e-06 2.049293e-06 1.053631e-06 5.291092e-07 2.599399e-07 1.251023e-07 5.905119e-08 2.736513e-08 1.246081e-08 5.579821e-09 2.459936e-09 1.073102e-09 4.799139e-10 2.719530e-10 3.255961e-10 7.434253e-10 1.983218e-09 5.429042e-09 1.484579e-08 3.900408e-08 9.688283e-08 2.260473e-07 4.941706e-07 1.011437e-06 1.938317e-06 3.480251e-06 5.860651e-06 9.268695e-06 1.378883e-05 1.933111e-05 2.558907e-05 3.204866e-05 3.805715e-05 4.293932e-05 4.613001e-05 4.728507e-05 4.634005e-05 4.350425e-05 3.919821e-05 3.395767e-05 2.833233e-05 2.280284e-05 1.772961e-05 1.333520e-05 9.713694e-06 6.850304e-06 4.582385e-06 1.916642e-06 -9.971714e-06 
3.841036e-07 8.757690e-05 2.007897e-04 2.880202e-04 3.220834e-04 3.052948e-04 2.562932e-04 1.957513e-04 1.385085e-04 9.197377e-05 5.786971e-05 3.475816e-05 2.004544e-05 1.115220e-05 6.008231e-06 3.144376e-06 1.602708e-06 7.973543e-07 3.879006e-07 1.848134e-07 8.634946e-08 3.960808e-08 1.785336e-08 7.914623e-09 3.453917e-09 1.487765e-09 6.447957e-10 3.234398e-10 3.167145e-10 7.085122e-10 2.010604e-09 5.721749e-09 1.612513e-08 4.470560e-08 1.182642e-07 2.947787e-07 6.888387e-07 1.506254e-06 3.080491e-06 5.893679e-06 1.055648e-05 1.772179e-05 2.792413e-05 4.136892e-05 5.773190e-05 7.604857e-05 9.476022e-05 1.119355e-04 1.256230e-04 1.342374e-04 1.368697e-04 1.334350e-04 1.246312e-04 1.117395e-04 9.633731e-05 8.000697e-05 6.410538e-05 4.962820e-05 3.717116e-05 2.696565e-05 1.894418e-05 1.267485e-05 5.894896e-06 -2.021357e-05 
4.319713e-06 1.428136e-04 2.962305e-04 3.932506e-04 4.110809e-04 3.665347e-04 2.907628e-04 2.105987e-04 1.417266e-04 8.973324e-05 5.395269e-05 3.102765e-05 1.716395e-05 9.174616e-06 4.756227e-06 2.398600e-06 1.179682e-06 5.670160e-07 2.668166e-07 1.231011e-07 5.575543e-08 2.481702e-08 1.086536e-08 4.683151e-09 1.990137e-09 8.414141e-10 3.820531e-10 2.856516e-10 5.682025e-10 1.705339e-09 5.220878e-09 1.539561e-08 4.434604e-08 1.243615e-07 3.310143e-07 8.278450e-07 1.937755e-06 4.239174e-06 8.665073e-06 1.655507e-05 2.958847e-05 4.953116e-05 7.778031e-05 1.147833e-04 1.595049e-04 2.091623e-04 2.594017e-04 3.049473e-04 3.405834e-04 3.621933e-04 3.675569e-04 3.566923e-04 3.316868e-04 2.961178e-04 2.542682e-04 2.103524e-04 1.679239e-04 1.295417e-04 9.669389e-05 6.991140e-05 4.895875e-05 3.273781e-05 1.620586e-05 -4.006299e-05 
1.663764e-05 2.283241e-04 4.242428e-04 5.186179e-04 5.049864e-04 4.223170e-04 3.157547e-04 2.163666e-04 1.381809e-04 8.324387e-05 4.773227e-05 2.623249e-05 1.389339e-05 7.122327e-06 3.546719e-06 1.720651e-06 8.152125e-07 3.779520e-07 1.717602e-07 7.662039e-08 3.359076e-08 1.448728e-08 6.152130e-09 2.575007e-09 1.066522e-09 4.527990e-10 2.587995e-10 3.971432e-10 1.210417e-09 4.010697e-09 1.274093e-08 3.857112e-08 1.131097e-07 3.202931e-07 8.571816e-07 2.150461e-06 5.041870e-06 1.103547e-05 2.254651e-05 4.301946e-05 7.672837e-05 1.280940e-04 2.004938e-04 2.947834e-04 4.079907e-04 5.327405e-04 6.578189e-04 7.699137e-04 8.561288e-04 9.065597e-04 9.161887e-04 8.856031e-04 8.204467e-04 7.298966e-04 6.246847e-04 5.152052e-04 4.100996e-04 3.154961e-04 2.348727e-04 1.693749e-04 1.183136e-04 7.905959e-05 4.084025e-05 -7.552105e-05 
4.761151e-05 3.560579e-04 5.880607e-04 6.590623e-04 5.957753e-04 4.659885e-04 3.275340e-04 2.118266e-04 1.280910e-04 7.326356e-05 3.998061e-05 2.095578e-05 1.060569e-05 5.204614e-06 2.485092e-06 1.157770e-06 5.275173e-07 2.355182e-07 1.032013e-07 4.444309e-08 1.883096e-08 7.857860e-09 3.232114e-09 1.312862e-09 5.341765e-10 2.497126e-10 2.588616e-10 7.318570e-10 2.597454e-09 8.956184e-09 2.918098e-08 9.023304e-08 2.685457e-07 7.666124e-07 2.061143e-06 5.184743e-06 1.217227e-05 2.664969e-05 5.441249e-05 1.036677e-04 1.844930e-04 3.071372e-04 4.791480e-04 7.018982e-04 9.676355e-04 1.258356e-03 1.547391e-03 1.803677e-03 1.997693e-03 2.107341e-03 2.122111e-03 2.044452e-03 1.888253e-03 1.675180e-03 1.430093e-03 1.176761e-03 9.347283e-04 7.176909e-04 5.332789e-04 3.838398e-04 2.676187e-04 1.787341e-04 9.537156e-05 -1.327477e-04 
1.146322e-04 5.386247e-04 7.865094e-04 8.050516e-04 6.735082e-04 4.913117e-04 3.238068e-04 1.971675e-04 1.126276e-04 6.102587e-05 3.162635e-05 1.577745e-05 7.615112e-06 3.570515e-06 1.631665e-06 7.286992e-07 3.187487e-07 1.368144e-07 5.771162e-08 2.395506e-08 9.794821e-09 3.948730e-09 1.571300e-09 6.204751e-10 2.573154e-10 1.742881e-10 3.887200e-10 1.435434e-09 5.362535e-09 1.893397e-08 6.293571e-08 1.980049e-07 5.963848e-07 1.713534e-06 4.623836e-06 1.165407e-05 2.738156e-05 5.993499e-05 1.222372e-04 2.324467e-04 4.126115e-04 6.847539e-04 1.064456e-03 1.553316e-03 2.132811e-03 2.762339e-03 3.383208e-03 3.928299e-03 4.334956e-03 4.557414e-03 4.575241e-03 4.395713e-03 4.050100e-03 3.585601e-03 3.055550e-03 2.510429e-03 1.991424e-03 1.527169e-03 1.133424e-03 8.148083e-04 5.673581e-04 3.788160e-04 2.075309e-04 -2.142461e-04 
2.431983e-04 7.861875e-04 1.011793e-03 9.428073e-04 7.278182e-04 4.938105e-04 3.043690e-04 1.740560e-04 9.369766e-05 4.798405e-05 2.356370e-05 1.116449e-05 5.128530e-06 2.292955e-06 1.000961e-06 4.277387e-07 1.793082e-07 7.386571e-08 2.994581e-08 1.196194e-08 4.712743e-09 1.832964e-09 7.052906e-10 2.739690e-10 1.334651e-10 1.914280e-10 6.867940e-10 2.759752e-09 1.056687e-08 3.799375e-08 1.283884e-07 4.096617e-07 1.245653e-06 3.596519e-06 9.729243e-06 2.454764e-05 5.767218e-05 1.261108e-04 2.567268e-04 4.869290e-04 8.615664e-04 1.424548e-03 2.205554e-03 3.204889e-03 4.381708e-03 5.651124e-03 6.893339e-03 7.973765e-03 8.768931e-03 9.190737e-03 9.202279e-03 8.821535e-03 8.113226e-03 7.172486e-03 6.105527e-03 5.012166e-03 3.973448e-03 3.045506e-03 2.259077e-03 1.622986e-03 1.129196e-03 7.539191e-04 4.223028e-04 -3.122783e-04 
4.652384e-04 1.101921e-03 1.248077e-03 1.055814e-03 7.499638e-04 4.719536e-04 2.713226e-04 1.453414e-04 7.354878e-05 3.551405e-05 1.648758e-05 7.402865e-06 3.229586e-06 1.374090e-06 5.718918e-07 2.334052e-07 9.360091e-08 3.694384e-08 1.437106e-08 5.515793e-09 2.090792e-09 7.836054e-10 2.923126e-10 1.178856e-10 9.675014e-11 2.894720e-10 1.229705e-09 5.100812e-09 1.987991e-08 7.260064e-08 2.487908e-07 8.030872e-07 2.460098e-06 7.127180e-06 1.930593e-05 4.871007e-05 1.143178e-04 2.494805e-04 5.064488e-04 9.572043e-04 1.686776e-03 2.776503e-03 4.278438e-03 6.187159e-03 8.419039e-03 1.080894e-02 1.312941e-02 1.512944e-02 1.658269e-02 1.733128e-02 1.731323e-02 1.656751e-02 1.521780e-02 1.344208e-02 1.143721e-02 9.387403e-03 7.441968e-03 5.704363e-03 4.231372e-03 3.039426e-03 2.113820e-03 1.411497e-03 8.058237e-04 -4.004423e-04 
8.133824e-04 1.476986e-03 1.471848e-03 1.127627e-03 7.349582e-04 4.277742e-04 2.287374e-04 1.144663e-04 5.430925e-05 2.466396e-05 1.079900e-05 4.584309e-06 1.895226e-06 7.657514e-07 3.032500e-07 1.179815e-07 4.518083e-08 1.705684e-08 6.356235e-09 2.340520e-09 8.524013e-10 3.077475e-10 1.130715e-10 5.773196e-11 1.112504e-10 4.761860e-10 2.134032e-09 9.027908e-09 3.574785e-08 1.324248e-07 4.594733e-07 1.497811e-06 4.615129e-06 1.339973e-05 3.630581e-05 9.150546e-05 2.142999e-04 4.662454e-04 9.428097e-04 1.773799e-03 3.109861e-03 5.091169e-03 7.801448e-03 1.121933e-02 1.518495e-02 1.939824e-02 2.345621e-02 2.692242e-02 2.941008e-02 3.065537e-02 3.056149e-02 2.920440e-02 2.680339e-02 2.366841e-02 2.014016e-02 1.653684e-02 1.311674e-02 1.005967e-02 7.465230e-03 5.363271e-03 3.729393e-03 2.490755e-03 1.445384e-03 -4.263209e-04 
1.310974e-03 1.886825e-03 1.654722e-03 1.145475e-03 6.831172e-04 3.666530e-04 1.818173e-04 8.475520e-05 3.759844e-05 1.601665e-05 6.597190e-06 2.641529e-06 1.032517e-06 3.953234e-07 1.486635e-07 5.503141e-08 2.008859e-08 7.241897e-09 2.581260e-09 9.105614e-10 3.182599e-10 1.110436e-10 4.315595e-11 4.272546e-11 1.609498e-10 7.718160e-10 3.548292e-09 1.527643e-08 6.144325e-08 2.307953e-07 8.102456e-07 2.664860e-06 8.251312e-06 2.398937e-05 6.496081e-05 1.634132e-04 3.815316e-04 8.267039e-04 1.663427e-03 3.111850e-03 5.422075e-03 8.819091e-03 1.342555e-02 1.918392e-02 2.580740e-02 3.278484e-02 3.944796e-02 4.508720e-02 4.908501e-02 5.102962e-02 5.078040e-02 4.847272e-02 4.446861e-02 3.927249e-02 3.343658e-02 2.747709e-02 2.181497e-02 1.674572e-02 1.243568e-02 8.937503e-03 6.214421e-03 4.150878e-03 2.442477e-03 -3.097858e-04 
1.959672e-03 2.290924e-03 1.768672e-03 1.103675e-03 6.004262e-04 2.962463e-04 1.358059e-04 5.879020e-05 2.431271e-05 9.687854e-06 3.743932e-06 1.410410e-06 5.200271e-07 1.882617e-07 6.709205e-08 2.358598e-08 8.192874e-09 2.815801e-09 9.585616e-10 3.235162e-10 1.084956e-10 3.727334e-11 1.969246e-11 4.849699e-11 2.401422e-10 1.199108e-09 5.626282e-09 2.465914e-08 1.008036e-07 3.840925e-07 1.364524e-06 4.527356e-06 1.408309e-05 4.098679e-05 1.108814e-04 2.782482e-04 6.472220e-04 1.395565e-03 2.791581e-03 5.187615e-03 8.973827e-03 1.448682e-02 2.188813e-02 3.104857e-02 4.148353e-02 5.237367e-02 6.267835e-02 7.131601e-02 7.736313e-02 8.021815e-02 7.969117e-02 7.600494e-02 6.971833e-02 6.160113e-02 5.249467e-02 4.318825e-02 3.433039e-02 2.638194e-02 1.960779e-02 1.409767e-02 9.801228e-03 6.545857e-03 3.896738e-03 4.841058e-05 
2.728649e-03 2.637602e-03 1.792563e-03 1.005695e-03 4.974673e-04 2.248475e-04 9.496112e-05 3.804887e-05 1.462237e-05 5.433822e-06 1.964735e-06 6.945673e-07 2.409858e-07 8.230974e-08 2.774237e-08 9.245020e-09 3.050803e-09 9.981469e-10 3.240958e-10 1.045478e-10 3.375546e-11 1.241577e-11 1.420616e-11 6.417775e-11 3.456583e-10 1.769596e-09 8.473455e-09 3.784597e-08 1.574104e-07 6.090184e-07 2.191243e-06 7.338880e-06 2.294465e-05 6.686772e-05 1.807537e-04 4.524666e-04 1.048292e-03 2.248367e-03 4.468372e-03 8.242254e-03 1.414345e-02 2.264152e-02 3.392260e-02 4.773020e-02 6.329033e-02 7.936317e-02 9.442214e-02 1.069170e-01 1.155506e-01 1.194986e-01 1.185228e-01 1.129639e-01 1.036320e-01 9.163282e-02 7.817586e-02 6.440302e-02 5.126248e-02 3.943846e-02 2.933405e-02 2.109590e-02 1.466147e-02 9.786857e-03 5.881072e-03 7.457049e-04 
3.550422e-03 2.873771e-03 1.718069e-03 8.639731e-04 3.871393e-04 1.596790e-04 6.189416e-05 2.287049e-05 8.139730e-06 2.811933e-06 9.484713e-07 3.138049e-07 1.022059e-07 3.286309e-08 1.045527e-08 3.297089e-09 1.032053e-09 3.210144e-10 9.930821e-11 3.061536e-11 9.700085e-12 5.087105e-12 1.498909e-11 8.445352e-11 4.711413e-10 2.467275e-09 1.206773e-08 5.499548e-08 2.330452e-07 9.167964e-07 3.345286e-06 1.132384e-05 3.562347e-05 1.040625e-04 2.813029e-04 7.028251e-04 1.622383e-03 3.461409e-03 6.833512e-03 1.250726e-02 2.127885e-02 3.375887e-02 5.012268e-02 6.990807e-02 9.194353e-02 1.144523e-01 1.353179e-01 1.524443e-01 1.641154e-01 1.692685e-01 1.676259e-01 1.596753e-01 1.465232e-01 1.296705e-01 1.107649e-01 9.137622e-02 7.282539e-02 5.608278e-02 4.173539e-02 3.001190e-02 2.084219e-02 1.389806e-02 8.411875e-03 1.847359e-03 
4.327235e-03 2.957483e-03 1.552836e-03 6.973444e-04 2.818579e-04 1.056275e-04 3.741840e-05 1.269992e-05 4.170394e-06 1.334745e-06 4.186959e-07 1.292895e-07 3.943319e-08 1.191093e-08 3.570381e-09 1.063818e-09 3.154581e-10 9.318532e-11 2.744614e-11 8.111453e-12 2.748467e-12 3.355140e-12 1.748424e-11 1.055084e-10 6.037470e-10 3.234830e-09 1.617740e-08 7.531492e-08 3.256137e-07 1.304514e-06 4.835436e-06 1.657174e-05 5.254822e-05 1.541210e-04 4.172449e-04 1.041751e-03 2.398179e-03 5.092977e-03 9.991481e-03 1.814776e-02 3.060920e-02 4.811511e-02 7.076980e-02 9.780627e-02 1.275403e-01 1.575531e-01 1.850624e-01 2.073855e-01 2.223766e-01 2.287417e-01 2.261806e-01 2.153488e-01 1.976763e-01 1.750969e-01 1.497475e-01 1.236882e-01 9.867993e-02 7.604171e-02 5.659260e-02 4.067139e-02 2.820727e-02 1.877673e-02 1.142182e-02 3.355043e-03 
4.948569e-03 2.869435e-03 1.319508e-03 5.267894e-04 1.911076e-04 6.474881e-05 2.086303e-05 6.475211e-06 1.953929e-06 5.772652e-07 1.678663e-07 4.824471e-08 1.374689e-08 3.892999e-09 1.097738e-09 3.086449e-10 8.662016e-11 2.428380e-11 6.810700e-12 1.962741e-12 9.581435e-13 3.132865e-12 1.983315e-11 1.235847e-10 7.241629e-10 3.971473e-09 2.032344e-08 9.675891e-08 4.273510e-07 1.746305e-06 6.587437e-06 2.290344e-05 7.336695e-05 2.165334e-04 5.883096e-04 1.470508e-03 3.381105e-03 7.156031e-03 1.396383e-02 2.518620e-02 4.213296e-02 6.563624e-02 9.564640e-02 1.309810e-01 1.693356e-01 2.075722e-01 2.422105e-01 2.699877e-01 2.883562e-01 2.958221e-01 2.920824e-01 2.779681e-01 2.552355e-01 2.262609e-01 1.936962e-01 1.601352e-01 1.278345e-01 9.851708e-02 7.327907e-02 5.259595e-02 3.640259e-02 2.417047e-02 1.474462e-02 5.185942e-03 
5.315971e-03 2.619384e-03 1.050651e-03 3.708543e-04 1.200537e-04 3.656387e-05 1.065830e-05 3.010031e-06 8.309541e-07 2.257382e-07 6.065222e-08 1.617951e-08 4.297551e-09 1.139094e-09 3.017722e-10 7.999873e-11 2.123825e-11 5.650252e-12 1.513362e-12 4.600708e-13 5.433353e-13 3.152149e-12 2.117636e-11 1.351743e-10 8.106136e-10 4.550802e-09 2.383995e-08 1.161557e-07 5.246471e-07 2.189790e-06 8.421234e-06 2.976744e-05 9.657127e-05 2.875790e-04 7.861364e-04 1.971759e-03 4.537403e-03 9.587631e-03 1.863643e-02 3.342050e-02 5.550362e-02 8.575490e-02 1.238758e-01 1.681625e-01 2.156075e-01 2.623199e-01 3.041388e-01 3.372754e-01 3.588436e-01 3.671961e-01 3.620447e-01 3.443865e-01 3.162816e-01 2.805311e-01 2.403019e-01 1.987448e-01 1.586498e-01 1.221864e-01 9.076157e-02 6.500576e-02 4.486091e-02 2.968336e-02 1.812008e-02 7.172560e-03 
5.367933e-03 2.244891e-03 7.811328e-04 2.421745e-04 6.948283e-05 1.889753e-05 4.952751e-06 1.265636e-06 3.180849e-07 7.912952e-08 1.957831e-08 4.834984e-09 1.194884e-09 2.960552e-10 7.363609e-11 1.840085e-11 4.621970e-12 1.167974e-12 3.032742e-13 1.309670e-13 4.415196e-13 3.075751e-12 2.119036e-11 1.380649e-10 8.461323e-10 4.859185e-09 2.605362e-08 1.299433e-07 6.006336e-07 2.563483e-06 1.006628e-05 3.625140e-05 1.194228e-04 3.598742e-04 9.926243e-04 2.504884e-03 5.783086e-03 1.222664e-02 2.372051e-02 4.236494e-02 6.995222e-02 1.073241e-01 1.538453e-01 2.072100e-01 2.636674e-01 3.185894e-01 3.671999e-01 4.052734e-01 4.296676e-01 4.386319e-01 4.319014e-01 4.106130e-01 3.770881e-01 3.345147e-01 2.865568e-01 2.369250e-01 1.889615e-01 1.453036e-01 1.076829e-01 7.688655e-02 5.285486e-02 3.481638e-02 2.122318e-02 9.087232e-03 
5.096778e-03 1.802511e-03 5.404290e-04 1.460384e-04 3.684487e-05 8.880343e-06 2.077640e-06 4.773411e-07 1.086195e-07 2.463390e-08 5.593524e-09 1.275761e-09 2.929157e-10 6.779835e-11 1.583257e-11 3.731612e-12 8.878077e-13 2.140002e-13 5.855474e-14 6.562910e-14 4.007201e-13 2.887772e-12 2.007262e-11 1.325743e-10 8.267731e-10 4.843815e-09 2.653914e-08 1.353936e-07 6.404147e-07 2.796544e-06 1.122664e-05 4.126685e-05 1.383989e-04 4.232821e-04 1.181479e-03 3.008092e-03 6.986041e-03 1.481483e-02 2.875228e-02 5.125018e-02 8.429453e-02 1.286445e-01 1.832704e-01 2.452326e-01 3.100511e-01 3.724250e-01 4.270614e-01 4.694022e-01 4.961288e-01 5.054263e-01 4.970473e-01 4.722298e-01 4.335052e-01 3.844042e-01 3.290601e-01 2.717324e-01 2.163112e-01 1.658941e-01 1.225221e-01 8.711704e-02 5.959429e-02 3.903859e-02 2.371414e-02 1.068658e-02 
4.552023e-03 1.354250e-03 3.472411e-04 8.110292e-05 1.783540e-05 3.775950e-06 7.819884e-07 1.603012e-07 3.281272e-08 6.749627e-09 1.401427e-09 2.945513e-10 6.277310e-11 1.357496e-11 2.979250e-12 6.633706e-13 1.499505e-13 3.551650e-14 1.621414e-14 5.832785e-14 3.938940e-13 2.738171e-12 1.865705e-11 1.226078e-10 7.684767e-10 4.555383e-09 2.536681e-08 1.319229e-07 6.373214e-07 2.845410e-06 1.168136e-05 4.388158e-05 1.501521e-04 4.673463e-04 1.323720e-03 3.409643e-03 7.986831e-03 1.703246e-02 3.315006e-02 5.911072e-02 9.705943e-02 1.476451e-01 2.094395e-01 2.789018e-01 3.508979e-01 4.195586e-01 4.791861e-01 5.249838e-01 5.535149e-01 5.629153e-01 5.529330e-01 5.248643e-01 4.814050e-01 4.263918e-01 3.644016e-01 3.002196e-01 2.382529e-01 1.820164e-01 1.338091e-01 9.463693e-02 6.435156e-02 4.187600e-02 2.529911e-02 1.176354e-02 
3.829376e-03 9.536646e-04 2.077682e-04 4.161889e-05 7.906377e-06 1.455851e-06 2.641665e-07 4.784338e-08 8.733665e-09 1.618339e-09 3.058049e-10 5.907661e-11 1.167792e-11 2.361435e-12 4.880061e-13 1.029939e-13 2.254695e-14 7.193320e-15 1.434974e-14 7.793303e-14 4.723783e-13 2.952177e-12 1.864794e-11 1.168007e-10 7.129616e-10 4.181295e-09 2.329500e-08 1.221655e-07 5.984275e-07 2.719318e-06 1.138958e-05 4.370188e-05 1.527305e-04 4.847180e-04 1.396231e-03 3.646907e-03 8.636925e-03 1.856781e-02 3.632968e-02 6.496126e-02 1.067389e-01 1.622141e-01 2.296215e-01 3.049264e-01 3.824731e-01 4.559569e-01 5.193824e-01 5.677800e-01 5.976172e-01 6.069660e-01 5.955357e-01 5.646434e-01 5.171215e-01 4.570955e-01 3.895670e-01 3.198106e-01 2.526880e-01 1.920474e-01 1.403549e-01 9.862266e-02 6.658840e-02 4.299804e-02 2.578686e-02 1.219166e-02 
3.049373e-03 6.357555e-04 1.175702e-04 2.013392e-05 3.283729e-06 5.209631e-07 8.181713e-08 1.291137e-08 2.072993e-09 3.418527e-10 5.825528e-11 1.028624e-11 1.881727e-12 3.559444e-13 6.945043e-14 1.410853e-14 3.871750e-15 5.824238e-15 2.719729e-14 1.421179e-13 7.601409e-13 4.156712e-12 2.318367e-11 1.308052e-10 7.370516e-10 4.086198e-09 2.196386e-08 1.129608e-07 5.495459e-07 2.503925e-06 1.059115e-05 4.125327e-05 1.468605e-04 4.749913e-04 1.391881e-03 3.690045e-03 8.847976e-03 1.920892e-02 3.785878e-02 6.803217e-02 1.121166e-01 1.706196e-01 2.415668e-01 3.206051e-01 4.017406e-01 4.783829e-01 5.443312e-01 5.944751e-01 6.251697e-01 6.343833e-01 6.217458e-01 5.885730e-01 5.378322e-01 4.739413e-01 4.023115e-01 3.286507e-01 2.581755e-01 1.949401e-01 1.414525e-01 9.863422e-02 6.605594e-02 4.228114e-02 2.512694e-02 1.194912e-02 
2.332634e-03 4.131774e-04 6.576096e-05 9.731141e-06 1.370306e-06 1.871008e-07 2.520144e-08 3.406265e-09 4.698855e-10 6.719252e-11 1.007996e-11 1.596502e-12 2.670556e-13 4.699633e-14 8.729483e-15 2.129600e-15 2.761249e-15 1.229790e-14 6.112385e-14 3.045611e-13 1.518326e-12 7.592244e-12 3.814728e-11 1.925443e-10 9.730481e-10 4.890658e-09 2.421467e-08 1.167763e-07 5.420406e-07 2.393682e-06 9.947877e-06 3.851922e-05 1.377145e-04 4.498105e-04 1.332706e-03 3.572235e-03 8.653473e-03 1.895574e-02 3.763916e-02 6.803714e-02 1.126243e-01 1.719448e-01 2.439933e-01 3.243305e-01 4.068480e-01 4.848337e-01 5.519627e-01 6.029885e-01 6.341120e-01 6.431430e-01 6.295965e-01 5.947838e-01 5.418278e-01 4.754542e-01 4.014567e-01 3.258877e-01 2.541764e-01 1.904197e-01 1.370209e-01 9.471115e-02 6.285277e-02 3.983966e-02 2.342292e-02 1.111751e-02 
1.778764e-03 2.790017e-04 3.975328e-05 5.277848e-06 6.644255e-07 8.043069e-08 9.485703e-09 1.105366e-09 1.294036e-10 1.552529e-11 1.951590e-12 2.622919e-13 3.816764e-14 6.059034e-15 1.247226e-15 1.341366e-15 5.825937e-15 2.867509e-14 1.406051e-13 6.835777e-13 3.296261e-12 1.577381e-11 7.493153e-11 3.532445e-10 1.650371e-09 7.619901e-09 3.460774e-08 1.536280e-07 6.612916e-07 2.735436e-06 1.076979e-05 3.996859e-05 1.385014e-04 4.429201e-04 1.295017e-03 3.445346e-03 8.317565e-03 1.820721e-02 3.619016e-02 6.555197e-02 1.087908e-01 1.665588e-01 2.370241e-01 3.159399e-01 3.973545e-01 4.746310e-01 5.414148e-01 5.923296e-01 6.233787e-01 6.321665e-01 6.180736e-01 5.824202e-01 5.285077e-01 4.613588e-01 3.870724e-01 3.118979e-01 2.412872e-01 1.791937e-01 1.277756e-01 8.749947e-02 5.751087e-02 3.607656e-02 2.095412e-02 9.859958e-03 
1.360646e-03 1.961524e-04 2.592845e-05 3.206006e-06 3.758391e-07 4.219768e-08 4.576764e-09 4.835896e-10 5.026444e-11 5.205476e-12 5.469028e-13 5.976944e-14 7.022954e-15 1.008508e-15 6.571041e-16 2.654321e-15 1.302290e-14 6.363161e-14 3.073716e-13 1.467038e-12 6.915708e-12 3.218258e-11 1.477258e-10 6.680871e-10 2.971606e-09 1.296694e-08 5.531873e-08 2.296890e-07 9.230452e-07 3.566738e-06 1.315445e-05 4.593468e-05 1.505962e-04 4.596048e-04 1.295982e-03 3.356355e-03 7.949730e-03 1.718313e-02 3.389645e-02 6.117044e-02 1.014346e-01 1.554815e-01 2.218200e-01 2.966522e-01 3.744506e-01 4.488638e-01 5.136288e-01 5.632797e-01 5.936175e-01 6.020329e-01 5.877837e-01 5.522228e-01 4.988289e-01 4.328572e-01 3.605671e-01 2.882006e-01 2.210163e-01 1.626467e-01 1.148975e-01 7.793994e-02 5.073336e-02 3.148693e-02 1.804786e-02 8.368130e-03 
1.011791e-03 1.355337e-04 1.681178e-05 1.962256e-06 2.178683e-07 2.319425e-08 2.382503e-09 2.374100e-10 2.307133e-11 2.199873e-12 2.075299e-13 1.962733e-14 1.941030e-15 4.142397e-16 1.123844e-15 5.445979e-15 2.654758e-14 1.277822e-13 6.066511e-13 2.838627e-12 1.307975e-11 5.928571e-11 2.639897e-10 1.152901e-09 4.927935e-09 2.056282e-08 8.349559e-08 3.286536e-07 1.248348e-06 4.551802e-06 1.583911e-05 5.226247e-05 1.624060e-04 4.725201e-04 1.280135e-03 3.210789e-03 7.421709e-03 1.576469e-02 3.074681e-02 5.513619e-02 9.121401e-02 1.399039e-01 2.001377e-01 2.687252e-01 3.407569e-01 4.103483e-01 4.714655e-01 5.186423e-01 5.475359e-01 5.553712e-01 5.413276e-01 5.068113e-01 4.554418e-01 3.925880e-01 3.244779e-01 2.571222e-01 1.953837e-01 1.424343e-01 9.966754e-02 6.696938e-02 4.317050e-02 2.650251e-02 1.497800e-02 6.814279e-03 