# vtk DataFile Version 2.0
Comment goes here
ASCII

DATASET STRUCTURED_POINTS
DIMENSIONS    64   64   1

ORIGIN    0.000   0.000   0.000
SPACING   0.0158730.015873   1.000

POINT_DATA   4096
SCALARS Concentration double
LOOKUP_TABLE default

2.964503e-05 2.974385e-05 3.009020e-05 3.135028e-05 3.489818e-05 4.252303e-05 5.605751e-05 7.698837e-05 1.061219e-04 1.433703e-04 1.876958e-04 2.372140e-04 2.894224e-04 3.415009e-04 3.906273e-04 4.342594e-04 4.703525e-04 4.974989e-04 5.149915e-04 5.228260e-04 5.216626e-04 5.127682e-04 4.979601e-04 4.795670e-04 4.604174e-04 4.438570e-04 4.337896e-04 4.347253e-04 4.518081e-04 4.907966e-04 5.580673e-04 6.621283e-04 8.363738e-04 1.116939e-03 1.505056e-03 1.993043e-03 2.562264e-03 3.182582e-03 3.813743e-03 4.408798e-03 4.919197e-03 5.300788e-03 5.519665e-03 5.556773e-03 5.410383e-03 5.095976e-03 4.643623e-03 4.093421e-03 3.489900e-03 2.876444e-03 2.290614e-03 1.760997e-03 1.305804e-03 9.330919e-04 6.422326e-04 4.261121e-04 2.735744e-04 1.716988e-04 1.076539e-04 7.000127e-05 4.944039e-05 3.905319e-05 3.407212e-05 2.999189e-05 
3.105706e-05 3.164536e-05 3.197904e-05 3.333648e-05 3.773782e-05 4.752768e-05 6.489403e-05 9.140270e-05 1.276425e-04 1.730537e-04 2.259654e-04 2.838155e-04 3.434896e-04 4.017042e-04 4.553633e-04 5.018402e-04 5.391607e-04 5.660848e-04 5.821003e-04 5.873527e-04 5.825332e-04 5.687511e-04 5.474076e-04 5.200857e-04 4.884647e-04 4.542638e-04 4.192152e-04 3.850657e-04 3.536027e-04 3.267019e-04 3.064367e-04 2.957531e-04 3.047324e-04 3.497943e-04 4.436429e-04 5.975351e-04 8.188247e-04 1.108570e-03 1.459671e-03 1.856038e-03 2.273176e-03 2.680322e-03 3.043948e-03 3.332069e-03 3.518621e-03 3.587074e-03 3.532597e-03 3.362408e-03 3.094300e-03 2.753719e-03 2.370009e-03 1.972548e-03 1.587408e-03 1.234996e-03 9.288755e-04 6.757061e-04 4.760943e-04 3.260119e-04 2.184521e-04 1.450264e-04 9.729403e-05 6.768088e-05 4.954441e-05 2.998451e-05 
3.418788e-05 3.490947e-05 3.522985e-05 3.735260e-05 4.413466e-05 5.850945e-05 8.287092e-05 1.185402e-04 1.654386e-04 2.220377e-04 2.855744e-04 3.524597e-04 4.187724e-04 4.807364e-04 5.351046e-04 5.794120e-04 6.120888e-04 6.324550e-04 6.406250e-04 6.373577e-04 6.238845e-04 6.017379e-04 5.725993e-04 5.381741e-04 5.000987e-04 4.598785e-04 4.188545e-04 3.781937e-04 3.388990e-04 3.018365e-04 2.677880e-04 2.376404e-04 2.136582e-04 2.005191e-04 2.042106e-04 2.322859e-04 2.930473e-04 3.941982e-04 5.411197e-04 7.350728e-04 9.717256e-04 1.240417e-03 1.524468e-03 1.802656e-03 2.051689e-03 2.249290e-03 2.377316e-03 2.424322e-03 2.387066e-03 2.270713e-03 2.087757e-03 1.855924e-03 1.595522e-03 1.326739e-03 1.067332e-03 8.310199e-04 6.267166e-04 4.585494e-04 3.265126e-04 2.275120e-04 1.565514e-04 1.077781e-04 7.424190e-05 3.199312e-05 
3.890411e-05 3.899833e-05 3.906205e-05 4.240375e-05 5.275652e-05 7.352268e-05 1.070221e-04 1.539339e-04 2.130814e-04 2.815973e-04 3.553941e-04 4.297967e-04 5.001853e-04 5.625271e-04 6.137330e-04 6.518235e-04 6.759283e-04 6.861626e-04 6.834318e-04 6.692061e-04 6.453007e-04 6.136824e-04 5.763152e-04 5.350463e-04 4.915323e-04 4.471976e-04 4.032209e-04 3.605406e-04 3.198745e-04 2.817487e-04 2.465341e-04 2.145075e-04 1.860646e-04 1.622328e-04 1.448491e-04 1.368374e-04 1.423262e-04 1.664555e-04 2.147880e-04 2.923316e-04 4.022966e-04 5.448211e-04 7.159739e-04 9.073343e-04 1.106363e-03 1.297611e-03 1.464611e-03 1.592130e-03 1.668350e-03 1.686552e-03 1.645976e-03 1.551734e-03 1.413819e-03 1.245465e-03 1.061199e-03 8.749435e-04 6.984804e-04 5.404670e-04 4.060658e-04 2.971293e-04 2.127878e-04 1.501261e-04 1.030487e-04 3.653648e-05 
4.467094e-05 4.337349e-05 4.316993e-05 4.854956e-05 6.404441e-05 9.326122e-05 1.380121e-04 1.978193e-04 2.699368e-04 3.498456e-04 4.320442e-04 5.109087e-04 5.814334e-04 6.397410e-04 6.833288e-04 7.110822e-04 7.231164e-04 7.205192e-04 7.050570e-04 6.788921e-04 6.443392e-04 6.036764e-04 5.590115e-04 5.121993e-04 4.648008e-04 4.180747e-04 3.729903e-04 3.302555e-04 2.903517e-04 2.535715e-04 2.200573e-04 1.898375e-04 1.628626e-04 1.392092e-04 1.192260e-04 1.036935e-04 9.405214e-05 9.256613e-05 1.023330e-04 1.270507e-04 1.704979e-04 2.357560e-04 3.242882e-04 4.350706e-04 5.640050e-04 7.038192e-04 8.445705e-04 9.747327e-04 1.082701e-03 1.158441e-03 1.194948e-03 1.189246e-03 1.142716e-03 1.060738e-03 9.517305e-04 8.258235e-04 6.934147e-04 5.638833e-04 4.446453e-04 3.406533e-04 2.543287e-04 1.856500e-04 1.298602e-04 4.344091e-05 
5.067233e-05 4.746784e-05 4.740441e-05 5.613452e-05 7.878585e-05 1.187400e-04 1.767091e-04 2.504536e-04 3.352079e-04 4.246219e-04 5.118982e-04 5.908272e-04 6.565253e-04 7.058094e-04 7.372400e-04 7.509215e-04 7.481630e-04 7.310926e-04 7.022908e-04 6.644830e-04 6.203082e-04 5.721629e-04 5.221119e-04 4.718520e-04 4.227131e-04 3.756852e-04 3.314590e-04 2.904729e-04 2.529611e-04 2.189978e-04 1.885375e-04 1.614491e-04 1.375394e-04 1.166274e-04 9.859510e-05 8.346478e-05 7.153358e-05 6.352628e-05 6.072923e-05 6.504760e-05 7.892038e-05 1.050429e-04 1.458875e-04 2.030744e-04 2.767064e-04 3.648299e-04 4.631838e-04 5.653614e-04 6.634177e-04 7.488503e-04 8.137838e-04 8.521267e-04 8.604681e-04 8.385383e-04 7.891521e-04 7.176687e-04 6.310984e-04 5.370464e-04 4.426962e-04 3.540026e-04 2.751770e-04 2.082438e-04 1.497201e-04 5.192578e-05 
5.603442e-05 5.083526e-05 5.183798e-05 6.575376e-05 9.794873e-05 1.509567e-04 2.236489e-04 3.113928e-04 4.070755e-04 5.025700e-04 5.901783e-04 6.637136e-04 7.190823e-04 7.543906e-04 7.696987e-04 7.665746e-04 7.475840e-04 7.158116e-04 6.744697e-04 6.266132e-04 5.749588e-04 5.217910e-04 4.689346e-04 4.177723e-04 3.692897e-04 3.241342e-04 2.826772e-04 2.450739e-04 2.113177e-04 1.812854e-04 1.547752e-04 1.315390e-04 1.113191e-04 9.384939e-05 7.885990e-05 6.613479e-05 5.557239e-05 4.726657e-05 4.160525e-05 3.936624e-05 4.177441e-05 5.047393e-05 6.737366e-05 9.434606e-05 1.327999e-04 1.831946e-04 2.446045e-04 3.144553e-04 3.885382e-04 4.613515e-04 5.267433e-04 5.787514e-04 6.124795e-04 6.248330e-04 6.149649e-04 5.843457e-04 5.364583e-04 4.761934e-04 4.090819e-04 3.405146e-04 2.750655e-04 2.157216e-04 1.599559e-04 6.085767e-05 
6.001973e-05 5.325865e-05 5.680747e-05 7.823137e-05 1.225764e-04 1.906903e-04 2.787581e-04 3.792043e-04 4.824895e-04 5.790988e-04 6.611420e-04 7.232768e-04 7.629448e-04 7.800857e-04 7.765532e-04 7.554356e-04 7.204253e-04 6.753144e-04 6.236418e-04 5.684823e-04 5.123515e-04 4.571930e-04 4.044199e-04 3.549851e-04 3.094625e-04 2.681286e-04 2.310366e-04 1.980803e-04 1.690458e-04 1.436528e-04 1.215864e-04 1.025233e-04 8.618073e-05 7.226616e-05 6.046073e-05 5.048681e-05 4.213008e-05 3.527282e-05 2.994284e-05 2.637676e-05 2.508611e-05 2.690292e-05 3.297271e-05 4.466243e-05 6.336401e-05 9.020028e-05 1.256745e-04 1.693363e-04 2.195551e-04 2.734818e-04 3.272492e-04 3.764040e-04 4.165053e-04 4.437781e-04 4.556879e-04 4.513184e-04 4.314771e-04 3.985131e-04 3.558981e-04 3.076621e-04 2.577728e-04 2.092717e-04 1.602687e-04 6.904209e-05 
6.214388e-05 5.479211e-05 6.290840e-05 9.455820e-05 1.536450e-04 2.382801e-04 3.411096e-04 4.512962e-04 5.571820e-04 6.486526e-04 7.186237e-04 7.635348e-04 7.830534e-04 7.793180e-04 7.560308e-04 7.176160e-04 6.685618e-04 6.129764e-04 5.543416e-04 4.954190e-04 4.382620e-04 3.842896e-04 3.343904e-04 2.890332e-04 2.483710e-04 2.123321e-04 1.806936e-04 1.531398e-04 1.293057e-04 1.088085e-04 9.126983e-05 7.633499e-05 6.372621e-05 5.315712e-05 4.430742e-05 3.690238e-05 3.071777e-05 2.558909e-05 2.142958e-05 1.826042e-05 1.625253e-05 1.577237e-05 1.741589e-05 2.200791e-05 3.054280e-05 4.405043e-05 6.338894e-05 8.899096e-05 1.206142e-04 1.571618e-04 1.966359e-04 2.362644e-04 2.728025e-04 3.029666e-04 3.239186e-04 3.337032e-04 3.315459e-04 3.179502e-04 2.945777e-04 2.639433e-04 2.289645e-04 1.921776e-04 1.521361e-04 7.545783e-05 
6.220892e-05 5.574902e-05 7.095340e-05 1.157939e-04 1.918847e-04 2.933941e-04 4.087294e-04 5.238878e-04 6.258998e-04 7.052366e-04 7.568011e-04 7.797070e-04 7.763224e-04 7.510516e-04 7.091999e-04 6.560988e-04 5.965374e-04 5.344694e-04 4.729259e-04 4.140622e-04 3.592776e-04 3.093632e-04 2.646495e-04 2.251381e-04 1.906101e-04 1.607114e-04 1.350161e-04 1.130713e-04 9.442737e-05 7.865717e-05 6.536808e-05 5.421313e-05 4.494219e-05 3.729738e-05 3.098579e-05 2.576391e-05 2.143462e-05 1.784568e-05 1.489273e-05 1.252987e-05 1.078971e-05 9.812430e-06 9.878255e-06 1.143212e-05 1.508401e-05 2.156737e-05 3.164324e-05 4.595035e-05 6.481988e-05 8.809113e-05 1.149767e-04 1.440243e-04 1.732060e-04 2.001385e-04 2.224028e-04 2.379040e-04 2.451986e-04 2.437167e-04 2.338356e-04 2.167869e-04 1.943972e-04 1.684801e-04 1.379732e-04 7.939101e-05 
6.027209e-05 5.665897e-05 8.191001e-05 1.429409e-04 2.375774e-04 3.548172e-04 4.785073e-04 5.921697e-04 6.828719e-04 7.431503e-04 7.710679e-04 7.690585e-04 7.422968e-04 6.971460e-04 6.399706e-04 5.763902e-04 5.109214e-04 4.469011e-04 3.865842e-04 3.313248e-04 2.817823e-04 2.381151e-04 2.001448e-04 1.674858e-04 1.396406e-04 1.160676e-04 9.622578e-05 7.960204e-05 6.572678e-05 5.418089e-05 4.459792e-05 3.666816e-05 3.018302e-05 2.492663e-05 2.065080e-05 1.715593e-05 1.428419e-05 1.191377e-05 9.955851e-06 8.355849e-06 7.100882e-06 6.234500e-06 5.877951e-06 6.253793e-06 7.703419e-06 1.068642e-05 1.574890e-05 2.345188e-05 3.426023e-05 4.840601e-05 6.575351e-05 8.570196e-05 1.071605e-04 1.286188e-04 1.483140e-04 1.644706e-04 1.755687e-04 1.805835e-04 1.791453e-04 1.715823e-04 1.588186e-04 1.419702e-04 1.203766e-04 8.046804e-05 
5.657839e-05 5.821623e-05 9.682791e-05 1.767952e-04 2.903486e-04 4.203022e-04 5.462621e-04 6.506833e-04 7.224868e-04 7.578323e-04 7.588555e-04 7.315097e-04 6.834176e-04 6.222240e-04 5.545839e-04 4.857070e-04 4.192955e-04 3.577102e-04 3.022370e-04 2.533688e-04 2.110574e-04 1.749172e-04 1.443768e-04 1.187860e-04 9.748480e-05 7.984661e-05 6.530066e-05 5.334218e-05 4.353409e-05 3.550385e-05 2.893839e-05 2.358258e-05 1.927450e-05 1.584541e-05 1.309928e-05 1.088344e-05 9.080352e-06 7.600874e-06 6.379366e-06 5.371547e-06 4.556006e-06 3.940479e-06 3.573499e-06 3.560551e-06 4.081398e-06 5.402112e-06 7.872850e-06 1.190203e-05 1.790084e-05 2.619921e-05 3.694439e-05 5.000307e-05 6.489387e-05 8.077582e-05 9.650840e-05 1.107827e-04 1.223036e-04 1.299892e-04 1.331429e-04 1.315605e-04 1.255326e-04 1.156274e-04 1.016121e-04 7.861029e-05 
5.148452e-05 6.123629e-05 1.167583e-04 2.177785e-04 3.489806e-04 4.865314e-04 6.070032e-04 6.939120e-04 7.400966e-04 7.466655e-04 7.202169e-04 6.698434e-04 6.047913e-04 5.330362e-04 4.606717e-04 3.918595e-04 3.290895e-04 2.735611e-04 2.255657e-04 1.848132e-04 1.506830e-04 1.224010e-04 9.915593e-05 8.016945e-05 6.473389e-05 5.222827e-05 4.212113e-05 3.396584e-05 2.739202e-05 2.209566e-05 1.782965e-05 1.439894e-05 1.168623e-05 9.568172e-06 7.900025e-06 6.572540e-06 5.503930e-06 4.633520e-06 3.917068e-06 3.323886e-06 2.836153e-06 2.451049e-06 2.186424e-06 2.090295e-06 2.253297e-06 2.821301e-06 4.003190e-06 6.067041e-06 9.318062e-06 1.405441e-05 2.050270e-05 2.874262e-05 3.863694e-05 4.978723e-05 6.153340e-05 7.300735e-05 8.323789e-05 9.129035e-05 9.641277e-05 9.815609e-05 9.643204e-05 9.144303e-05 8.336232e-05 7.394032e-05 
4.539571e-05 6.662829e-05 1.426615e-04 2.657577e-04 4.112813e-04 5.492338e-04 6.553993e-04 7.170248e-04 7.328127e-04 7.095660e-04 6.580159e-04 5.894188e-04 5.134719e-04 4.374353e-04 3.660803e-04 3.020755e-04 2.465236e-04 1.994802e-04 1.603761e-04 1.283267e-04 1.023377e-04 8.143019e-05 6.470846e-05 5.138979e-05 4.081122e-05 3.242346e-05 2.577855e-05 2.051536e-05 1.634517e-05 1.303862e-05 1.041469e-05 8.334550e-06 6.718948e-06 5.483526e-06 4.528410e-06 3.780539e-06 3.186777e-06 2.708699e-06 2.318796e-06 1.997947e-06 1.734212e-06 1.523231e-06 1.370725e-06 1.297590e-06 1.347666e-06 1.597328e-06 2.164527e-06 3.213293e-06 4.948660e-06 7.597320e-06 1.137186e-05 1.642092e-05 2.277343e-05 3.028968e-05 3.863461e-05 4.728566e-05 5.558128e-05 6.280569e-05 6.829525e-05 7.154389e-05 7.228083e-05 7.049968e-05 6.668059e-05 6.666680e-05 
3.873064e-05 7.538339e-05 1.752958e-04 3.198690e-04 4.740511e-04 6.034909e-04 6.864261e-04 7.166582e-04 7.001258e-04 6.491966e-04 5.776312e-04 4.974110e-04 4.173855e-04 3.431743e-04 2.777169e-04 2.220237e-04 1.758804e-04 1.383982e-04 1.083962e-04 8.464084e-05 6.597831e-05 5.139675e-05 4.004466e-05 3.122547e-05 2.438049e-05 1.906795e-05 1.494195e-05 1.173356e-05 9.234682e-06 7.284762e-06 5.760485e-06 4.569774e-06 3.662834e-06 2.986018e-06 2.475179e-06 2.085043e-06 1.783827e-06 1.549321e-06 1.366065e-06 1.223408e-06 1.114348e-06 1.035281e-06 9.869534e-07 9.770289e-07 1.024619e-06 1.166714e-06 1.465627e-06 2.015396e-06 2.943932e-06 4.407118e-06 6.571718e-06 9.586158e-06 1.354199e-05 1.843298e-05 2.412215e-05 3.032775e-05 3.663682e-05 4.254858e-05 4.754271e-05 5.115929e-05 5.307386e-05 5.317677e-05 5.206948e-05 5.696751e-05 
3.192441e-05 8.857133e-05 2.150804e-04 3.783686e-04 5.331925e-04 6.442357e-04 6.961114e-04 6.915864e-04 6.441905e-04 5.707124e-04 4.861969e-04 4.017191e-04 3.241277e-04 2.567955e-04 2.006698e-04 1.552338e-04 1.192319e-04 9.114883e-05 6.948806e-05 5.291139e-05 4.029084e-05 3.071160e-05 2.345097e-05 1.794835e-05 1.377436e-05 1.060302e-05 8.188222e-06 6.344859e-06 4.933926e-06 3.851099e-06 3.018248e-06 2.378589e-06 1.903511e-06 1.562099e-06 1.316857e-06 1.142851e-06 1.023790e-06 9.491831e-07 9.122315e-07 9.082422e-07 9.335055e-07 9.847068e-07 1.059095e-06 1.155740e-06 1.278222e-06 1.438964e-06 1.664929e-06 2.003755e-06 2.528417e-06 3.337804e-06 4.550364e-06 6.288846e-06 8.656194e-06 1.170561e-05 1.541085e-05 1.964490e-05 2.417492e-05 2.867879e-05 3.278327e-05 3.611798e-05 3.837522e-05 3.939051e-05 3.961412e-05 4.488076e-05 
2.547730e-05 1.073307e-04 2.619289e-04 4.385500e-04 5.839957e-04 6.669055e-04 6.822513e-04 6.431164e-04 5.696654e-04 4.810468e-04 3.915204e-04 3.097745e-04 2.398978e-04 1.828457e-04 1.377704e-04 1.029936e-04 7.661602e-05 5.684689e-05 4.214904e-05 3.127557e-05 2.325185e-05 1.733497e-05 1.296829e-05 9.739553e-06 7.345782e-06 5.565343e-06 4.236550e-06 3.241577e-06 2.494531e-06 1.932702e-06 1.510336e-06 1.195283e-06 9.737899e-07 8.319084e-07 7.519847e-07 7.246743e-07 7.460858e-07 8.154973e-07 9.333778e-07 1.099611e-06 1.311972e-06 1.565052e-06 1.849901e-06 2.154756e-06 2.467148e-06 2.777588e-06 3.084718e-06 3.401356e-06 3.760244e-06 4.217658e-06 4.852718e-06 5.760359e-06 7.037028e-06 8.759980e-06 1.096342e-05 1.361681e-05 1.661166e-05 1.976237e-05 2.282358e-05 2.552207e-05 2.759396e-05 2.881502e-05 2.912206e-05 3.020951e-05 
2.005578e-05 1.328307e-04 3.150620e-04 4.967719e-04 6.216103e-04 6.681635e-04 6.449421e-04 5.750812e-04 4.830961e-04 3.878659e-04 3.009066e-04 2.275120e-04 1.687952e-04 1.235605e-04 8.963685e-05 6.467458e-05 4.654446e-05 3.348746e-05 2.412990e-05 1.743768e-05 1.265128e-05 9.222002e-06 6.757704e-06 4.979997e-06 3.692008e-06 2.754799e-06 2.070447e-06 1.570014e-06 1.205004e-06 9.412749e-07 7.548878e-07 6.303631e-07 5.657260e-07 5.622848e-07 6.197767e-07 7.442167e-07 9.453565e-07 1.234029e-06 1.619242e-06 2.105138e-06 2.688143e-06 3.354846e-06 4.081147e-06 4.833217e-06 5.570560e-06 6.251195e-06 6.838577e-06 7.309450e-06 7.661432e-06 7.918738e-06 8.134293e-06 8.386583e-06 8.770275e-06 9.380771e-06 1.029453e-05 1.154868e-05 1.312462e-05 1.494034e-05 1.685457e-05 1.868128e-05 2.019803e-05 2.106686e-05 2.024585e-05 1.244623e-05 
1.664593e-05 1.661765e-04 3.728198e-04 5.486431e-04 6.416730e-04 6.465573e-04 5.867808e-04 4.933810e-04 3.919400e-04 2.984109e-04 2.201477e-04 1.587201e-04 1.125961e-04 7.902442e-05 5.511332e-05 3.833034e-05 2.665878e-05 1.858263e-05 1.300414e-05 9.147855e-06 6.474821e-06 4.614253e-06 3.312552e-06 2.396776e-06 1.749178e-06 1.289780e-06 9.645949e-07 7.376452e-07 5.854567e-07 4.931414e-07 4.518608e-07 4.588567e-07 5.258462e-07 6.745295e-07 9.268481e-07 1.311420e-06 1.859949e-06 2.602426e-06 3.561228e-06 4.744683e-06 6.141113e-06 7.714612e-06 9.403817e-06 1.112457e-05 1.277680e-05 1.425506e-05 1.546161e-05 1.632002e-05 1.678737e-05 1.686286e-05 1.659111e-05 1.605903e-05 1.538597e-05 1.470774e-05 1.415645e-05 1.383909e-05 1.381852e-05 1.410085e-05 1.463145e-05 1.529556e-05 1.588946e-05 1.585818e-05 1.258470e-05 -9.256442e-06 
1.674162e-05 2.082247e-04 4.325195e-04 5.893996e-04 6.410138e-04 6.029601e-04 5.126399e-04 4.051291e-04 3.034332e-04 2.184823e-04 1.528916e-04 1.048750e-04 7.099574e-05 4.769038e-05 3.192759e-05 2.137725e-05 1.435423e-05 9.686647e-06 6.580102e-06 4.504858e-06 3.111115e-06 2.169068e-06 1.528047e-06 1.089356e-06 7.885895e-07 5.843345e-07 4.510657e-07 3.746481e-07 3.492602e-07 3.750389e-07 4.567356e-07 6.061876e-07 8.592511e-07 1.275510e-06 1.916678e-06 2.854448e-06 4.163124e-06 5.909032e-06 8.137362e-06 1.085811e-05 1.403366e-05 1.757083e-05 2.132021e-05 2.508419e-05 2.863385e-05 3.173286e-05 3.416511e-05 3.576165e-05 3.642263e-05 3.613078e-05 3.495402e-05 3.303714e-05 3.058359e-05 2.783022e-05 2.501822e-05 2.236456e-05 2.003740e-05 1.813891e-05 1.669609e-05 1.564948e-05 1.477365e-05 1.313582e-05 5.777722e-06 -3.601482e-05 
2.251530e-05 2.592902e-04 4.904234e-04 6.144732e-04 6.183111e-04 5.406581e-04 4.290105e-04 3.175665e-04 2.235481e-04 1.517861e-04 1.004923e-04 6.542982e-05 4.218045e-05 2.707087e-05 1.737152e-05 1.118445e-05 7.244429e-06 4.730568e-06 3.119278e-06 2.079845e-06 1.404335e-06 9.621515e-07 6.712669e-07 4.803900e-07 3.582187e-07 2.873069e-07 2.608858e-07 2.813500e-07 3.592787e-07 5.123235e-07 7.649859e-07 1.155324e-06 1.770002e-06 2.747558e-06 4.230684e-06 6.378989e-06 9.352097e-06 1.328558e-05 1.826179e-05 2.427992e-05 3.123110e-05 3.888501e-05 4.689318e-05 5.481147e-05 6.214074e-05 6.838032e-05 7.308654e-05 7.592654e-05 7.671851e-05 7.545197e-05 7.228535e-05 6.752215e-05 6.157062e-05 5.489369e-05 4.795707e-05 4.118225e-05 3.490992e-05 2.937646e-05 2.470125e-05 2.086421e-05 1.755529e-05 1.322845e-05 -3.879264e-07 -6.896586e-05 
3.687558e-05 3.187549e-04 5.418968e-04 6.202031e-04 5.745388e-04 4.650029e-04 3.430247e-04 2.369824e-04 1.562713e-04 9.975375e-05 6.231173e-05 3.841553e-05 2.353411e-05 1.440493e-05 8.847867e-06 5.472466e-06 3.417836e-06 2.160591e-06 1.385764e-06 9.046486e-07 6.042490e-07 4.168579e-07 3.020904e-07 2.366160e-07 2.088165e-07 2.168161e-07 2.688703e-07 3.850691e-07 5.990031e-07 9.584188e-07 1.526934e-06 2.398972e-06 3.770700e-06 5.946105e-06 9.234279e-06 1.397232e-05 2.048661e-05 2.903938e-05 3.976603e-05 5.261380e-05 6.729479e-05 8.326659e-05 9.975015e-05 1.157877e-04 1.303362e-04 1.423823e-04 1.510625e-04 1.557663e-04 1.562075e-04 1.524506e-04 1.448916e-04 1.341972e-04 1.212158e-04 1.068749e-04 9.208260e-05 7.764355e-05 6.420012e-05 5.219963e-05 4.188085e-05 3.324093e-05 2.578598e-05 1.702088e-05 -5.826597e-06 -1.087734e-04 
6.328464e-05 3.846477e-04 5.818249e-04 6.045732e-04 5.130564e-04 3.826531e-04 2.613567e-04 1.678828e-04 1.033411e-04 6.181785e-05 3.632730e-05 2.115217e-05 1.228744e-05 7.160667e-06 4.205109e-06 2.497893e-06 1.506318e-06 9.263307e-07 5.852406e-07 3.850849e-07 2.703399e-07 2.097930e-07 1.866442e-07 1.936388e-07 2.317596e-07 3.119878e-07 4.599000e-07 7.222796e-07 1.173818e-06 1.922015e-06 3.113719e-06 4.966454e-06 7.907266e-06 1.257773e-05 1.961966e-05 2.971673e-05 4.350857e-05 6.147577e-05 8.381039e-05 1.102958e-04 1.402240e-04 1.723759e-04 2.050811e-04 2.363569e-04 2.641122e-04 2.863852e-04 3.015769e-04 3.086407e-04 3.071988e-04 2.975666e-04 2.806874e-04 2.579912e-04 2.312070e-04 2.021604e-04 1.725861e-04 1.439802e-04 1.175039e-04 9.393979e-05 7.368445e-05 5.670838e-05 4.217253e-05 2.616502e-05 -9.940767e-06 -1.548893e-04 
1.052248e-04 4.533340e-04 6.053051e-04 5.678042e-04 4.392517e-04 3.005385e-04 1.892564e-04 1.125835e-04 6.445055e-05 3.600534e-05 1.984379e-05 1.088360e-05 5.982278e-06 3.314672e-06 1.861070e-06 1.064950e-06 6.265340e-07 3.853879e-07 2.560052e-07 1.931912e-07 1.737008e-07 1.866698e-07 2.290121e-07 3.041774e-07 4.241266e-07 6.153318e-07 9.297549e-07 1.460553e-06 2.359779e-06 3.854333e-06 6.265023e-06 1.007037e-05 1.616891e-05 2.586801e-05 4.045083e-05 6.125191e-05 8.947323e-05 1.259455e-04 1.708709e-04 2.235987e-04 2.824922e-04 3.449328e-04 4.074833e-04 4.662035e-04 5.170731e-04 5.564593e-04 5.815493e-04 5.906793e-04 5.835047e-04 5.609943e-04 5.252542e-04 4.792253e-04 4.263065e-04 3.699701e-04 3.134224e-04 2.593495e-04 2.097675e-04 1.659717e-04 1.285512e-04 9.735389e-05 7.093079e-05 4.332005e-05 -1.134551e-05 -2.046972e-04 
1.652911e-04 5.195005e-04 6.085447e-04 5.126110e-04 3.597532e-04 2.247778e-04 1.299338e-04 7.128094e-05 3.779908e-05 1.964806e-05 1.012250e-05 5.215368e-06 2.707793e-06 1.427031e-06 7.704463e-07 4.333078e-07 2.629792e-07 1.838076e-07 1.593256e-07 1.734942e-07 2.215157e-07 3.055483e-07 4.333313e-07 6.194860e-07 8.907654e-07 1.297893e-06 1.937183e-06 2.983483e-06 4.731411e-06 7.638209e-06 1.237392e-05 1.994907e-05 3.219352e-05 5.168214e-05 8.088642e-05 1.223140e-04 1.781284e-04 2.496715e-04 3.369717e-04 4.383483e-04 5.502212e-04 6.672062e-04 7.825168e-04 8.886352e-04 9.781518e-04 1.044639e-03 1.083413e-03 1.092065e-03 1.070675e-03 1.021701e-03 9.495672e-04 8.600518e-04 7.595695e-04 6.544734e-04 5.504673e-04 4.521903e-04 3.629977e-04 2.849200e-04 2.187360e-04 1.639708e-04 1.181362e-04 7.238964e-05 -7.567468e-06 -2.528149e-04 
2.440471e-04 5.766071e-04 5.897791e-04 4.439785e-04 2.813589e-04 1.598058e-04 8.441633e-05 4.251935e-05 2.079697e-05 1.001870e-05 4.808395e-06 2.321981e-06 1.139572e-06 5.767059e-07 3.101948e-07 1.895762e-07 1.462867e-07 1.511323e-07 1.947893e-07 2.790887e-07 4.133452e-07 6.132152e-07 9.014096e-07 1.311172e-06 1.895455e-06 2.747266e-06 4.038706e-06 6.085006e-06 9.432866e-06 1.496362e-05 2.401640e-05 3.864177e-05 6.244965e-05 1.003444e-04 1.569095e-04 2.366775e-04 3.433712e-04 4.789822e-04 6.428696e-04 8.311017e-04 1.036238e-03 1.247675e-03 1.452549e-03 1.637094e-03 1.788227e-03 1.895096e-03 1.950357e-03 1.950957e-03 1.898336e-03 1.798042e-03 1.658865e-03 1.491654e-03 1.308022e-03 1.119137e-03 9.347500e-04 7.625535e-04 6.078879e-04 4.737558e-04 3.610214e-04 2.685001e-04 1.919842e-04 1.186956e-04 5.202124e-06 -2.909259e-04 
3.389561e-04 6.178683e-04 5.499469e-04 3.684269e-04 2.099292e-04 1.079162e-04 5.186028e-05 2.387372e-05 1.072203e-05 4.767053e-06 2.124964e-06 9.625971e-07 4.529122e-07 2.328900e-07 1.464252e-07 1.287989e-07 1.566095e-07 2.268129e-07 3.485037e-07 5.402763e-07 8.300937e-07 1.256490e-06 1.871242e-06 2.745384e-06 3.983531e-06 5.756287e-06 8.365941e-06 1.236247e-05 1.871880e-05 2.905814e-05 4.593842e-05 7.335640e-05 1.182157e-04 1.895537e-04 2.955417e-04 4.440489e-04 6.411814e-04 8.895661e-04 1.186768e-03 1.524268e-03 1.887335e-03 2.255951e-03 2.606717e-03 2.915445e-03 3.160007e-03 3.322965e-03 3.393560e-03 3.368763e-03 3.253292e-03 3.058651e-03 2.801414e-03 2.501070e-03 2.177795e-03 1.850451e-03 1.535054e-03 1.243840e-03 9.849218e-04 7.624525e-04 5.770716e-04 4.261901e-04 3.028382e-04 1.890004e-04 3.218508e-05 -3.084670e-04 
4.438176e-04 6.376413e-04 4.928524e-04 2.928943e-04 1.495279e-04 6.930243e-05 3.017116e-05 1.263745e-05 5.188066e-06 2.121111e-06 8.787619e-07 3.803393e-07 1.859328e-07 1.215214e-07 1.218423e-07 1.675124e-07 2.611563e-07 4.194896e-07 6.720991e-07 1.063238e-06 1.655137e-06 2.532333e-06 3.807521e-06 5.631592e-06 8.215121e-06 1.187704e-05 1.714789e-05 2.496509e-05 3.699437e-05 5.609056e-05 8.691500e-05 1.369397e-04 2.189647e-04 3.490982e-04 5.413002e-04 8.086653e-04 1.160700e-03 1.600236e-03 2.120777e-03 2.705024e-03 3.325145e-03 3.944920e-03 4.523488e-03 5.020080e-03 5.398890e-03 5.633299e-03 5.708779e-03 5.624114e-03 5.390857e-03 5.031250e-03 4.575051e-03 4.055808e-03 3.507181e-03 2.959786e-03 2.438898e-03 1.963181e-03 1.544376e-03 1.187777e-03 8.931262e-04 6.552657e-04 4.629237e-04 2.912756e-04 7.980038e-05 -2.942815e-04 
5.490955e-04 6.328823e-04 4.246568e-04 2.235148e-04 1.020249e-04 4.252263e-05 1.671837e-05 6.348957e-06 2.375022e-06 8.936947e-07 3.514610e-07 1.607432e-07 1.076866e-07 1.194979e-07 1.782883e-07 2.913187e-07 4.827160e-07 7.938512e-07 1.287858e-06 2.056694e-06 3.230081e-06 4.986066e-06 7.563733e-06 1.128117e-05 1.656822e-05 2.403674e-05 3.463286e-05 4.994137e-05 7.272846e-05 1.077982e-04 1.632419e-04 2.524253e-04 3.983274e-04 6.286812e-04 9.662204e-04 1.431760e-03 2.039265e-03 2.790494e-03 3.670719e-03 4.646830e-03 5.668618e-03 6.673261e-03 7.592294e-03 8.359809e-03 8.920410e-03 9.235624e-03 9.287839e-03 9.081344e-03 8.640561e-03 8.005985e-03 7.228622e-03 6.363861e-03 5.465672e-03 4.581843e-03 3.750721e-03 2.999594e-03 2.344598e-03 1.791777e-03 1.338733e-03 9.759071e-04 6.855376e-04 4.341242e-04 1.550629e-04 -2.389990e-04 
6.433023e-04 6.042071e-04 3.527513e-04 1.646272e-04 6.722926e-05 2.520018e-05 8.944889e-06 3.079814e-06 1.053606e-06 3.735041e-07 1.555469e-07 1.017140e-07 1.185979e-07 1.855564e-07 3.127058e-07 5.305908e-07 8.919116e-07 1.479219e-06 2.416972e-06 3.887684e-06 6.152055e-06 9.572937e-06 1.464346e-05 2.202234e-05 3.258757e-05 4.753805e-05 6.860740e-05 9.850528e-05 1.417579e-04 2.061591e-04 3.050951e-04 4.613617e-04 7.147486e-04 1.111203e-03 1.685724e-03 2.469776e-03 3.482546e-03 4.721951e-03 6.158040e-03 7.730896e-03 9.354057e-03 1.092315e-02 1.232813e-02 1.346686e-02 1.425744e-02 1.464744e-02 1.461877e-02 1.418782e-02 1.340136e-02 1.232919e-02 1.105496e-02 9.666460e-03 8.246949e-03 6.868218e-03 5.586209e-03 4.439165e-03 3.448055e-03 2.618641e-03 1.944319e-03 1.408417e-03 9.837039e-04 6.258082e-04 2.645865e-04 -1.375505e-04 
7.152445e-04 5.561224e-04 2.842970e-04 1.182918e-04 4.344762e-05 1.472689e-05 4.750665e-06 1.499502e-06 4.829062e-07 1.790134e-07 1.050929e-07 1.187018e-07 1.880200e-07 3.228231e-07 5.580933e-07 9.560350e-07 1.616837e-06 2.696302e-06 4.430822e-06 7.170704e-06 1.142262e-05 1.790143e-05 2.759153e-05 4.182040e-05 6.235594e-05 9.156256e-05 1.326992e-04 1.905259e-04 2.725041e-04 3.910263e-04 5.673287e-04 8.383548e-04 1.270013e-03 1.935000e-03 2.883678e-03 4.160987e-03 5.791170e-03 7.763239e-03 1.002131e-02 1.246283e-02 1.494588e-02 1.730460e-02 1.936952e-02 2.098894e-02 2.204723e-02 2.247741e-02 2.226643e-02 2.145325e-02 2.012071e-02 1.838321e-02 1.637213e-02 1.422129e-02 1.205432e-02 9.975122e-03 8.062240e-03 6.367036e-03 4.915108e-03 3.709975e-03 2.737692e-03 1.970681e-03 1.368367e-03 8.729583e-04 4.133278e-04 8.968369e-06 
7.565781e-04 4.962250e-04 2.248712e-04 8.441370e-05 2.823855e-05 8.785854e-06 2.631008e-06 7.912341e-07 2.634384e-07 1.281311e-07 1.235224e-07 1.870170e-07 3.216316e-07 5.633925e-07 9.808032e-07 1.687728e-06 2.866292e-06 4.801039e-06 7.927100e-06 1.289544e-05 2.065789e-05 3.257355e-05 5.053759e-05 7.713468e-05 1.158288e-04 1.712274e-04 2.495200e-04 3.593045e-04 5.132120e-04 7.310413e-04 1.045634e-03 1.513896e-03 2.238677e-03 3.328218e-03 4.849485e-03 6.862451e-03 9.394071e-03 1.241614e-02 1.583196e-02 1.947576e-02 2.312629e-02 2.653220e-02 2.944404e-02 3.164618e-02 3.298285e-02 3.337429e-02 3.282169e-02 3.140134e-02 2.925046e-02 2.654752e-02 2.349034e-02 2.027509e-02 1.707868e-02 1.404615e-02 1.128377e-02 8.857673e-03 6.796982e-03 5.099844e-03 3.740600e-03 2.675804e-03 1.846772e-03 1.179460e-03 6.036448e-04 1.928381e-04 
7.639250e-04 4.335192e-04 1.776415e-04 6.135617e-05 1.910958e-05 5.615234e-06 1.631423e-06 5.067840e-07 2.032239e-07 1.458527e-07 1.886083e-07 3.124828e-07 5.483620e-07 9.662995e-07 1.688037e-06 2.913843e-06 4.964832e-06 8.345413e-06 1.383209e-05 2.259552e-05 3.636253e-05 5.762327e-05 8.988738e-05 1.379927e-04 2.084795e-04 3.100720e-04 4.543819e-04 6.570964e-04 9.401788e-04 1.336069e-03 1.895674e-03 2.703510e-03 3.906751e-03 5.652326e-03 8.023328e-03 1.109236e-02 1.488183e-02 1.933328e-02 2.429049e-02 2.950138e-02 3.464020e-02 3.934617e-02 4.327029e-02 4.612058e-02 4.769726e-02 4.791267e-02 4.679466e-02 4.447499e-02 4.116654e-02 3.713398e-02 3.266231e-02 2.802785e-02 2.347454e-02 1.919775e-02 1.533637e-02 1.197237e-02 9.136371e-03 6.817052e-03 4.971617e-03 3.534829e-03 2.424611e-03 1.548241e-03 8.380428e-04 4.013193e-04 
7.496207e-04 3.752621e-04 1.412131e-04 4.563061e-05 1.352414e-05 3.885043e-06 1.163311e-06 4.121619e-07 2.176168e-07 2.077969e-07 3.033300e-07 5.174490e-07 9.145262e-07 1.616354e-06 2.830190e-06 4.896760e-06 8.364122e-06 1.409689e-05 2.343286e-05 3.840065e-05 6.201254e-05 9.864493e-05 1.545162e-04 2.382702e-04 3.616799e-04 5.405170e-04 7.957156e-04 1.155130e-03 1.656515e-03 2.352897e-03 3.322373e-03 4.685616e-03 6.635630e-03 9.353825e-03 1.293653e-02 1.746001e-02 2.292767e-02 2.923180e-02 3.613449e-02 4.327372e-02 5.019636e-02 5.641227e-02 6.145837e-02 6.495885e-02 6.667047e-02 6.650609e-02 6.453531e-02 6.096525e-02 5.610693e-02 5.033383e-02 4.403913e-02 3.759683e-02 3.133119e-02 2.549665e-02 2.026892e-02 1.574611e-02 1.195768e-02 8.877974e-03 6.440958e-03 4.553259e-03 3.104338e-03 1.981260e-03 1.117887e-03 6.204367e-04 
7.256016e-04 3.229342e-04 1.122495e-04 3.424749e-05 9.843209e-06 2.876328e-06 9.515803e-07 4.130532e-07 2.800538e-07 3.140833e-07 4.833437e-07 8.350311e-07 1.481094e-06 2.622489e-06 4.599023e-06 7.969765e-06 1.363609e-05 2.302421e-05 3.834852e-05 6.298015e-05 1.019472e-04 1.625910e-04 2.553981e-04 3.950219e-04 6.015087e-04 9.017659e-04 1.331392e-03 1.937165e-03 2.780812e-03 3.945221e-03 5.544923e-03 7.743228e-03 1.077781e-02 1.485752e-02 2.008365e-02 2.652089e-02 3.413255e-02 4.273713e-02 5.198963e-02 6.139435e-02 7.035069e-02 7.822450e-02 8.443041e-02 8.850775e-02 9.017584e-02 8.936058e-02 8.619106e-02 8.097091e-02 7.413186e-02 6.617831e-02 5.763129e-02 4.897873e-02 4.063707e-02 3.292711e-02 2.606432e-02 2.016230e-02 1.524576e-02 1.126919e-02 8.136874e-03 5.721007e-03 3.878147e-03 2.473378e-03 1.435478e-03 8.368049e-04 