# vtk DataFile Version 2.0
fMag
ASCII
DATASET UNSTRUCTURED_GRID

FIELD FieldData 1
TIME 1 1 double
0.00100000
POINTS 64 float
2.499271577017736e-01 5.000509699741692e-01 0.000000000000000e+00
2.588846479084230e-01 5.063262338436874e-01 0.000000000000000e+00
2.675553897753049e-01 5.126111435923303e-01 0.000000000000000e+00
2.759987388328801e-01 5.188185372036199e-01 0.000000000000000e+00
2.842136518824351e-01 5.248879113867143e-01 0.000000000000000e+00
2.923355235001712e-01 5.308545515162768e-01 0.000000000000000e+00
3.004195802279864e-01 5.366161305722186e-01 0.000000000000000e+00
3.084621844979822e-01 5.421474017716739e-01 0.000000000000000e+00
3.164427522577805e-01 5.474715597285466e-01 0.000000000000000e+00
3.243806849083570e-01 5.527125512244934e-01 0.000000000000000e+00
3.322362029994739e-01 5.578115914565795e-01 0.000000000000000e+00
3.400005958654084e-01 5.627572425511143e-01 0.000000000000000e+00
3.476882687702568e-01 5.675815670025417e-01 0.000000000000000e+00
3.553799625608542e-01 5.722964727743564e-01 0.000000000000000e+00
3.630692871844477e-01 5.768236871469740e-01 0.000000000000000e+00
3.707588438842438e-01 5.811446384904799e-01 0.000000000000000e+00
3.784756350799119e-01 5.852829410992004e-01 0.000000000000000e+00
3.862376795218389e-01 5.892077385807177e-01 0.000000000000000e+00
3.940029188239197e-01 5.928553618007300e-01 0.000000000000000e+00
4.017592990684739e-01 5.962275577233270e-01 0.000000000000000e+00
4.095327931780430e-01 5.993670426312092e-01 0.000000000000000e+00
4.173332808271417e-01 6.022654721267747e-01 0.000000000000000e+00
4.251369559151785e-01 6.049006322458705e-01 0.000000000000000e+00
4.329469862877329e-01 6.072789902078563e-01 0.000000000000000e+00
4.407892024026883e-01 6.094199925008480e-01 0.000000000000000e+00
4.486570978118157e-01 6.112935296575281e-01 0.000000000000000e+00
4.565284725304583e-01 6.128907274641356e-01 0.000000000000000e+00
4.644061171530068e-01 6.142176148593061e-01 0.000000000000000e+00
4.723087369878441e-01 6.152804464353937e-01 0.000000000000000e+00
4.802191881512473e-01 6.160697316444873e-01 0.000000000000000e+00
4.881274246035101e-01 6.165930780778578e-01 0.000000000000000e+00
4.960390118311774e-01 6.168554156206859e-01 0.000000000000000e+00
5.039609881688226e-01 6.168554156206859e-01 0.000000000000000e+00
5.118725753964899e-01 6.165930780778578e-01 0.000000000000000e+00
5.197808118487527e-01 6.160697316444873e-01 0.000000000000000e+00
5.276912630121561e-01 6.152804464353937e-01 0.000000000000000e+00
5.355938828469927e-01 6.142176148593061e-01 0.000000000000000e+00
5.434715274695416e-01 6.128907274641358e-01 0.000000000000000e+00
5.513429021881840e-01 6.112935296575281e-01 0.000000000000000e+00
5.592107975973118e-01 6.094199925008480e-01 0.000000000000000e+00
5.670530137122670e-01 6.072789902078563e-01 0.000000000000000e+00
5.748630440848213e-01 6.049006322458707e-01 0.000000000000000e+00
5.826667191728582e-01 6.022654721267747e-01 0.000000000000000e+00
5.904672068219572e-01 5.993670426312090e-01 0.000000000000000e+00
5.982407009315261e-01 5.962275577233270e-01 0.000000000000000e+00
6.059970811760804e-01 5.928553618007297e-01 0.000000000000000e+00
6.137623204781613e-01 5.892077385807177e-01 0.000000000000000e+00
6.215243649200880e-01 5.852829410992004e-01 0.000000000000000e+00
6.292411561157562e-01 5.811446384904799e-01 0.000000000000000e+00
6.369307128155522e-01 5.768236871469742e-01 0.000000000000000e+00
6.446200374391458e-01 5.722964727743566e-01 0.000000000000000e+00
6.523117312297433e-01 5.675815670025416e-01 0.000000000000000e+00
6.599994041345911e-01 5.627572425511143e-01 0.000000000000000e+00
6.677637970005262e-01 5.578115914565795e-01 0.000000000000000e+00
6.756193150916430e-01 5.527125512244935e-01 0.000000000000000e+00
6.835572477422196e-01 5.474715597285466e-01 0.000000000000000e+00
6.915378155020178e-01 5.421474017716735e-01 0.000000000000000e+00
6.995804197720136e-01 5.366161305722188e-01 0.000000000000000e+00
7.076644764998288e-01 5.308545515162768e-01 0.000000000000000e+00
7.157863481175650e-01 5.248879113867142e-01 0.000000000000000e+00
7.240012611671197e-01 5.188185372036203e-01 0.000000000000000e+00
7.324446102246952e-01 5.126111435923305e-01 0.000000000000000e+00
7.411153520915772e-01 5.063262338436872e-01 0.000000000000000e+00
7.500728422982266e-01 5.000509699741692e-01 0.000000000000000e+00

POINT_DATA   64
SCALARS fMag double
LOOKUP_TABLE default

1.649487e+04 
3.473062e+03 
2.848334e+03 
8.932087e+02 
1.082653e+03 
3.365871e+03 
4.334397e+03 
3.461151e+03 
2.215354e+03 
1.974593e+03 
2.069959e+03 
2.028359e+03 
2.636722e+03 
3.647172e+03 
4.156033e+03 
4.354783e+03 
4.889654e+03 
5.408801e+03 
5.326590e+03 
4.983110e+03 
4.943810e+03 
5.043703e+03 
4.962265e+03 
4.924109e+03 
5.108950e+03 
5.213974e+03 
5.141283e+03 
5.096889e+03 
5.088106e+03 
5.008647e+03 
4.926543e+03 
4.913112e+03 
4.913112e+03 
4.926543e+03 
5.008647e+03 
5.088106e+03 
5.096889e+03 
5.141283e+03 
5.213974e+03 
5.108950e+03 
4.924109e+03 
4.962265e+03 
5.043703e+03 
4.943810e+03 
4.983110e+03 
5.326590e+03 
5.408801e+03 
4.889654e+03 
4.354783e+03 
4.156033e+03 
3.647172e+03 
2.636722e+03 
2.028359e+03 
2.069959e+03 
1.974593e+03 
2.215354e+03 
3.461151e+03 
4.334397e+03 
3.365871e+03 
1.082653e+03 
8.932087e+02 
2.848334e+03 
3.473062e+03 
1.649487e+04 
