# vtk DataFile Version 2.0
fMag
ASCII
DATASET UNSTRUCTURED_GRID

FIELD FieldData 1
TIME 1 1 double
0.00250000
POINTS 64 float
2.499706700695762e-01 5.000731930814316e-01 0.000000000000000e+00
2.592340686129738e-01 5.036207651009794e-01 0.000000000000000e+00
2.681167783745147e-01 5.075619592610667e-01 0.000000000000000e+00
2.767125401463418e-01 5.114914173165472e-01 0.000000000000000e+00
2.849977127381800e-01 5.150501465764932e-01 0.000000000000000e+00
2.932581897961029e-01 5.184315761532492e-01 0.000000000000000e+00
3.014056208927166e-01 5.215760687335079e-01 0.000000000000000e+00
3.093427525037970e-01 5.245235142024030e-01 0.000000000000000e+00
3.170566370081566e-01 5.274023126288068e-01 0.000000000000000e+00
3.248466575506385e-01 5.304131512771114e-01 0.000000000000000e+00
3.325938252428931e-01 5.333450926955684e-01 0.000000000000000e+00
3.402719848970329e-01 5.361189812969844e-01 0.000000000000000e+00
3.479702788415303e-01 5.387421101606560e-01 0.000000000000000e+00
3.557907191031378e-01 5.412294677614810e-01 0.000000000000000e+00
3.635679236055384e-01 5.434812399114815e-01 0.000000000000000e+00
3.712643891934878e-01 5.455185973606079e-01 0.000000000000000e+00
3.789802924103659e-01 5.475081308412926e-01 0.000000000000000e+00
3.867943841360350e-01 5.495332336604527e-01 0.000000000000000e+00
3.945462148264621e-01 5.513951028884697e-01 0.000000000000000e+00
4.022365543714038e-01 5.530824276236220e-01 0.000000000000000e+00
4.100294138726807e-01 5.547146212931089e-01 0.000000000000000e+00
4.179322864050461e-01 5.561625583269132e-01 0.000000000000000e+00
4.257815107648018e-01 5.573365006927762e-01 0.000000000000000e+00
4.335915703099292e-01 5.582720299175440e-01 0.000000000000000e+00
4.415144837586475e-01 5.591130094837191e-01 0.000000000000000e+00
4.494340292975039e-01 5.598936904933768e-01 0.000000000000000e+00
4.572508331208517e-01 5.605329534680396e-01 0.000000000000000e+00
4.650042949433730e-01 5.610607431138565e-01 0.000000000000000e+00
4.728085143968097e-01 5.615953679858396e-01 0.000000000000000e+00
4.805954659359051e-01 5.620191067180395e-01 0.000000000000000e+00
4.883413957022797e-01 5.622693740131388e-01 0.000000000000000e+00
4.960943553607317e-01 5.623606558472608e-01 0.000000000000000e+00
5.039056446392682e-01 5.623606558472608e-01 0.000000000000000e+00
5.116586042977204e-01 5.622693740131388e-01 0.000000000000000e+00
5.194045340640950e-01 5.620191067180395e-01 0.000000000000000e+00
5.271914856031904e-01 5.615953679858400e-01 0.000000000000000e+00
5.349957050566261e-01 5.610607431138563e-01 0.000000000000000e+00
5.427491668791484e-01 5.605329534680396e-01 0.000000000000000e+00
5.505659707024961e-01 5.598936904933767e-01 0.000000000000000e+00
5.584855162413528e-01 5.591130094837191e-01 0.000000000000000e+00
5.664084296900708e-01 5.582720299175439e-01 0.000000000000000e+00
5.742184892351980e-01 5.573365006927763e-01 0.000000000000000e+00
5.820677135949539e-01 5.561625583269133e-01 0.000000000000000e+00
5.899705861273195e-01 5.547146212931088e-01 0.000000000000000e+00
5.977634456285962e-01 5.530824276236223e-01 0.000000000000000e+00
6.054537851735384e-01 5.513951028884695e-01 0.000000000000000e+00
6.132056158639652e-01 5.495332336604528e-01 0.000000000000000e+00
6.210197075896343e-01 5.475081308412927e-01 0.000000000000000e+00
6.287356108065120e-01 5.455185973606080e-01 0.000000000000000e+00
6.364320763944615e-01 5.434812399114816e-01 0.000000000000000e+00
6.442092808968618e-01 5.412294677614811e-01 0.000000000000000e+00
6.520297211584695e-01 5.387421101606561e-01 0.000000000000000e+00
6.597280151029670e-01 5.361189812969842e-01 0.000000000000000e+00
6.674061747571070e-01 5.333450926955681e-01 0.000000000000000e+00
6.751533424493612e-01 5.304131512771117e-01 0.000000000000000e+00
6.829433629918433e-01 5.274023126288073e-01 0.000000000000000e+00
6.906572474962033e-01 5.245235142024022e-01 0.000000000000000e+00
6.985943791072828e-01 5.215760687335087e-01 0.000000000000000e+00
7.067418102038968e-01 5.184315761532492e-01 0.000000000000000e+00
7.150022872618199e-01 5.150501465764928e-01 0.000000000000000e+00
7.232874598536577e-01 5.114914173165476e-01 0.000000000000000e+00
7.318832216254852e-01 5.075619592610675e-01 0.000000000000000e+00
7.407659313870261e-01 5.036207651009791e-01 0.000000000000000e+00
7.500293299304239e-01 5.000731930814316e-01 0.000000000000000e+00

POINT_DATA   64
SCALARS fMag double
LOOKUP_TABLE default

1.230709e+04 
8.057797e+03 
3.868973e+03 
2.842262e+03 
4.216352e+03 
3.568650e+03 
2.157434e+03 
5.672235e+01 
7.715648e+02 
7.425844e+02 
2.317811e+03 
3.001484e+03 
3.540699e+03 
3.913307e+03 
3.171407e+03 
1.398188e+03 
8.473684e+02 
2.045665e+03 
2.492486e+03 
2.385846e+03 
3.499225e+03 
4.517608e+03 
3.918534e+03 
2.409138e+03 
1.761570e+03 
2.092687e+03 
1.675175e+03 
1.075850e+03 
1.871811e+03 
2.856369e+03 
2.713384e+03 
2.067278e+03 
2.067278e+03 
2.713384e+03 
2.856369e+03 
1.871811e+03 
1.075850e+03 
1.675175e+03 
2.092687e+03 
1.761570e+03 
2.409138e+03 
3.918534e+03 
4.517608e+03 
3.499225e+03 
2.385846e+03 
2.492486e+03 
2.045665e+03 
8.473684e+02 
1.398188e+03 
3.171407e+03 
3.913307e+03 
3.540699e+03 
3.001484e+03 
2.317811e+03 
7.425844e+02 
7.715648e+02 
5.672235e+01 
2.157434e+03 
3.568650e+03 
4.216352e+03 
2.842262e+03 
3.868973e+03 
8.057797e+03 
1.230709e+04 
