# vtk DataFile Version 2.0
fX_Lag
ASCII
DATASET UNSTRUCTURED_GRID

FIELD FieldData 1
TIME 1 1 double
0.00000000
POINTS 64 float
2.500000000000000e-01 5.000000000000000e-01 0.000000000000000e+00
2.579365079365079e-01 5.078105316200554e-01 0.000000000000000e+00
2.658730158730159e-01 5.153691106072058e-01 0.000000000000000e+00
2.738095238095238e-01 5.226757369614512e-01 0.000000000000000e+00
2.817460317460317e-01 5.297304106827916e-01 0.000000000000000e+00
2.896825396825397e-01 5.365331317712270e-01 0.000000000000000e+00
2.976190476190476e-01 5.430839002267573e-01 0.000000000000000e+00
3.055555555555556e-01 5.493827160493827e-01 0.000000000000000e+00
3.134920634920635e-01 5.554295792391031e-01 0.000000000000000e+00
3.214285714285714e-01 5.612244897959183e-01 0.000000000000000e+00
3.293650793650794e-01 5.667674477198287e-01 0.000000000000000e+00
3.373015873015873e-01 5.720584530108339e-01 0.000000000000000e+00
3.452380952380952e-01 5.770975056689343e-01 0.000000000000000e+00
3.531746031746031e-01 5.818846056941295e-01 0.000000000000000e+00
3.611111111111111e-01 5.864197530864197e-01 0.000000000000000e+00
3.690476190476191e-01 5.907029478458050e-01 0.000000000000000e+00
3.769841269841270e-01 5.947341899722852e-01 0.000000000000000e+00
3.849206349206349e-01 5.985134794658604e-01 0.000000000000000e+00
3.928571428571428e-01 6.020408163265306e-01 0.000000000000000e+00
4.007936507936508e-01 6.053162005542958e-01 0.000000000000000e+00
4.087301587301587e-01 6.083396321491560e-01 0.000000000000000e+00
4.166666666666666e-01 6.111111111111112e-01 0.000000000000000e+00
4.246031746031746e-01 6.136306374401612e-01 0.000000000000000e+00
4.325396825396826e-01 6.158982111363064e-01 0.000000000000000e+00
4.404761904761905e-01 6.179138321995465e-01 0.000000000000000e+00
4.484126984126984e-01 6.196775006298816e-01 0.000000000000000e+00
4.563492063492063e-01 6.211892164273116e-01 0.000000000000000e+00
4.642857142857143e-01 6.224489795918368e-01 0.000000000000000e+00
4.722222222222222e-01 6.234567901234568e-01 0.000000000000000e+00
4.801587301587301e-01 6.242126480221718e-01 0.000000000000000e+00
4.880952380952381e-01 6.247165532879818e-01 0.000000000000000e+00
4.960317460317460e-01 6.249685059208869e-01 0.000000000000000e+00
5.039682539682540e-01 6.249685059208869e-01 0.000000000000000e+00
5.119047619047619e-01 6.247165532879818e-01 0.000000000000000e+00
5.198412698412698e-01 6.242126480221718e-01 0.000000000000000e+00
5.277777777777778e-01 6.234567901234568e-01 0.000000000000000e+00
5.357142857142857e-01 6.224489795918368e-01 0.000000000000000e+00
5.436507936507936e-01 6.211892164273116e-01 0.000000000000000e+00
5.515873015873016e-01 6.196775006298816e-01 0.000000000000000e+00
5.595238095238095e-01 6.179138321995465e-01 0.000000000000000e+00
5.674603174603174e-01 6.158982111363064e-01 0.000000000000000e+00
5.753968253968254e-01 6.136306374401612e-01 0.000000000000000e+00
5.833333333333333e-01 6.111111111111112e-01 0.000000000000000e+00
5.912698412698413e-01 6.083396321491560e-01 0.000000000000000e+00
5.992063492063492e-01 6.053162005542958e-01 0.000000000000000e+00
6.071428571428571e-01 6.020408163265306e-01 0.000000000000000e+00
6.150793650793651e-01 5.985134794658604e-01 0.000000000000000e+00
6.230158730158730e-01 5.947341899722852e-01 0.000000000000000e+00
6.309523809523809e-01 5.907029478458050e-01 0.000000000000000e+00
6.388888888888888e-01 5.864197530864198e-01 0.000000000000000e+00
6.468253968253967e-01 5.818846056941295e-01 0.000000000000000e+00
6.547619047619048e-01 5.770975056689343e-01 0.000000000000000e+00
6.626984126984127e-01 5.720584530108340e-01 0.000000000000000e+00
6.706349206349206e-01 5.667674477198287e-01 0.000000000000000e+00
6.785714285714286e-01 5.612244897959184e-01 0.000000000000000e+00
6.865079365079365e-01 5.554295792391031e-01 0.000000000000000e+00
6.944444444444444e-01 5.493827160493827e-01 0.000000000000000e+00
7.023809523809523e-01 5.430839002267573e-01 0.000000000000000e+00
7.103174603174602e-01 5.365331317712271e-01 0.000000000000000e+00
7.182539682539683e-01 5.297304106827917e-01 0.000000000000000e+00
7.261904761904762e-01 5.226757369614513e-01 0.000000000000000e+00
7.341269841269841e-01 5.153691106072059e-01 0.000000000000000e+00
7.420634920634921e-01 5.078105316200554e-01 0.000000000000000e+00
7.500000000000000e-01 5.000000000000000e-01 0.000000000000000e+00

POINT_DATA   64
SCALARS fX_Lag double
LOOKUP_TABLE default

0 
0 
0 
0 
0 
0 
0 
0 
0 
0 
0 
0 
0 
0 
0 
0 
0 
0 
0 
0 
0 
0 
0 
0 
0 
0 
0 
0 
0 
0 
0 
0 
0 
0 
0 
0 
0 
0 
0 
0 
0 
0 
0 
0 
0 
0 
0 
0 
0 
0 
0 
0 
0 
0 
0 
0 
0 
0 
0 
0 
0 
0 
0 
0 
