# vtk DataFile Version 2.0
fX_Lag
ASCII
DATASET UNSTRUCTURED_GRID

FIELD FieldData 1
TIME 1 1 double
0.00050000
POINTS 64 float
2.499493082846519e-01 5.000224322962932e-01 0.000000000000000e+00
2.584281522340525e-01 5.071608550665943e-01 0.000000000000000e+00
2.667900433459648e-01 5.141448953172028e-01 0.000000000000000e+00
2.750355946368601e-01 5.209683747564144e-01 0.000000000000000e+00
2.831395021416535e-01 5.276396810917713e-01 0.000000000000000e+00
2.911148162305544e-01 5.342059294217386e-01 0.000000000000000e+00
2.990224770748772e-01 5.406041618828451e-01 0.000000000000000e+00
3.068892295416745e-01 5.467998104707426e-01 0.000000000000000e+00
3.147221372313486e-01 5.527875082725597e-01 0.000000000000000e+00
3.225442967842790e-01 5.585658728329891e-01 0.000000000000000e+00
3.303517475908536e-01 5.641055127789043e-01 0.000000000000000e+00
3.381561802654937e-01 5.694013481384569e-01 0.000000000000000e+00
3.459624111955333e-01 5.744646866041810e-01 0.000000000000000e+00
3.537832488028445e-01 5.793018978626437e-01 0.000000000000000e+00
3.616138914406055e-01 5.838948936106382e-01 0.000000000000000e+00
3.694541299480532e-01 5.882391170159604e-01 0.000000000000000e+00
3.773121082017642e-01 5.923378225232149e-01 0.000000000000000e+00
3.851893167087190e-01 5.961760266224224e-01 0.000000000000000e+00
3.930704829555074e-01 5.997428617558904e-01 0.000000000000000e+00
4.009560215521730e-01 6.030462267297039e-01 0.000000000000000e+00
4.088524539067176e-01 6.060960817508283e-01 0.000000000000000e+00
4.167592465560607e-01 6.088947068320466e-01 0.000000000000000e+00
4.246683275226031e-01 6.114381960656498e-01 0.000000000000000e+00
4.325796119605682e-01 6.137277630389529e-01 0.000000000000000e+00
4.404988304670193e-01 6.157675800510943e-01 0.000000000000000e+00
4.484252031969903e-01 6.175516217922065e-01 0.000000000000000e+00
4.563528003411617e-01 6.190775323737445e-01 0.000000000000000e+00
4.642819842005998e-01 6.203466632730678e-01 0.000000000000000e+00
4.722174940125160e-01 6.213609962138225e-01 0.000000000000000e+00
4.801551076244121e-01 6.221193266508350e-01 0.000000000000000e+00
4.880919747741946e-01 6.226235621717953e-01 0.000000000000000e+00
4.960296712720136e-01 6.228753199298103e-01 0.000000000000000e+00
5.039703287279864e-01 6.228753199298103e-01 0.000000000000000e+00
5.119080252258053e-01 6.226235621717953e-01 0.000000000000000e+00
5.198448923755880e-01 6.221193266508350e-01 0.000000000000000e+00
5.277825059874840e-01 6.213609962138225e-01 0.000000000000000e+00
5.357180157993999e-01 6.203466632730678e-01 0.000000000000000e+00
5.436471996588382e-01 6.190775323737445e-01 0.000000000000000e+00
5.515747968030097e-01 6.175516217922065e-01 0.000000000000000e+00
5.595011695329808e-01 6.157675800510943e-01 0.000000000000000e+00
5.674203880394317e-01 6.137277630389529e-01 0.000000000000000e+00
5.753316724773966e-01 6.114381960656498e-01 0.000000000000000e+00
5.832407534439393e-01 6.088947068320466e-01 0.000000000000000e+00
5.911475460932826e-01 6.060960817508282e-01 0.000000000000000e+00
5.990439784478269e-01 6.030462267297039e-01 0.000000000000000e+00
6.069295170444926e-01 5.997428617558904e-01 0.000000000000000e+00
6.148106832912812e-01 5.961760266224224e-01 0.000000000000000e+00
6.226878917982359e-01 5.923378225232149e-01 0.000000000000000e+00
6.305458700519468e-01 5.882391170159604e-01 0.000000000000000e+00
6.383861085593945e-01 5.838948936106383e-01 0.000000000000000e+00
6.462167511971554e-01 5.793018978626437e-01 0.000000000000000e+00
6.540375888044666e-01 5.744646866041810e-01 0.000000000000000e+00
6.618438197345060e-01 5.694013481384570e-01 0.000000000000000e+00
6.696482524091463e-01 5.641055127789043e-01 0.000000000000000e+00
6.774557032157210e-01 5.585658728329893e-01 0.000000000000000e+00
6.852778627686513e-01 5.527875082725597e-01 0.000000000000000e+00
6.931107704583254e-01 5.467998104707424e-01 0.000000000000000e+00
7.009775229251226e-01 5.406041618828452e-01 0.000000000000000e+00
7.088851837694455e-01 5.342059294217387e-01 0.000000000000000e+00
7.168604978583465e-01 5.276396810917714e-01 0.000000000000000e+00
7.249644053631397e-01 5.209683747564147e-01 0.000000000000000e+00
7.332099566540350e-01 5.141448953172030e-01 0.000000000000000e+00
7.415718477659474e-01 5.071608550665944e-01 0.000000000000000e+00
7.500506917153481e-01 5.000224322962933e-01 0.000000000000000e+00

POINT_DATA   64
SCALARS fX_Lag double
LOOKUP_TABLE default

9.174226e+03 
9.530311e+02 
1.163050e+03 
7.584058e+02 
7.271142e+02 
1.588597e+03 
2.407954e+03 
2.687674e+03 
2.861028e+03 
3.036160e+03 
3.058385e+03 
2.923764e+03 
2.807409e+03 
2.755629e+03 
2.672326e+03 
2.570115e+03 
2.487057e+03 
2.353751e+03 
2.152173e+03 
1.946571e+03 
1.770302e+03 
1.613818e+03 
1.456770e+03 
1.302090e+03 
1.158709e+03 
1.011175e+03 
8.530311e+02 
6.944792e+02 
5.384104e+02 
3.827338e+02 
2.280266e+02 
7.572501e+01 
-7.572501e+01 
-2.280266e+02 
-3.827338e+02 
-5.384104e+02 
-6.944792e+02 
-8.530311e+02 
-1.011175e+03 
-1.158709e+03 
-1.302090e+03 
-1.456770e+03 
-1.613818e+03 
-1.770302e+03 
-1.946571e+03 
-2.152173e+03 
-2.353751e+03 
-2.487057e+03 
-2.570115e+03 
-2.672326e+03 
-2.755629e+03 
-2.807409e+03 
-2.923764e+03 
-3.058385e+03 
-3.036160e+03 
-2.861028e+03 
-2.687674e+03 
-2.407954e+03 
-1.588597e+03 
-7.271142e+02 
-7.584058e+02 
-1.163050e+03 
-9.530311e+02 
-9.174226e+03 
