# vtk DataFile Version 2.0
fY_Lag
ASCII
DATASET UNSTRUCTURED_GRID

FIELD FieldData 1
TIME 1 1 double
0.00300000
POINTS 64 float
2.499725712341292e-01 5.000631271842352e-01 0.000000000000000e+00
2.591689142129162e-01 5.024679161048521e-01 0.000000000000000e+00
2.680740731492678e-01 5.053820887630204e-01 0.000000000000000e+00
2.766897771202482e-01 5.083185947259210e-01 0.000000000000000e+00
2.849073766019261e-01 5.108318176737214e-01 0.000000000000000e+00
2.930785697256840e-01 5.131150875920963e-01 0.000000000000000e+00
3.010956143573294e-01 5.151317390653488e-01 0.000000000000000e+00
3.088677388604033e-01 5.169358489445129e-01 0.000000000000000e+00
3.164212834723594e-01 5.186719564778397e-01 0.000000000000000e+00
3.241373025369871e-01 5.205690957448511e-01 0.000000000000000e+00
3.318310777043147e-01 5.224015554301277e-01 0.000000000000000e+00
3.394506301861285e-01 5.240831051705652e-01 0.000000000000000e+00
3.470965833329719e-01 5.256323905094314e-01 0.000000000000000e+00
3.548563327283132e-01 5.270821360177634e-01 0.000000000000000e+00
3.625214929542561e-01 5.283286408702234e-01 0.000000000000000e+00
3.700621561896920e-01 5.294037236651148e-01 0.000000000000000e+00
3.776338311795564e-01 5.305004747334087e-01 0.000000000000000e+00
3.853571113743101e-01 5.316737941235482e-01 0.000000000000000e+00
3.930119175797394e-01 5.327005305166516e-01 0.000000000000000e+00
4.005999603012811e-01 5.335658191600424e-01 0.000000000000000e+00
4.083398859699746e-01 5.343933308610193e-01 0.000000000000000e+00
4.162407057513207e-01 5.350688702537824e-01 0.000000000000000e+00
4.240913913272035e-01 5.355004129948412e-01 0.000000000000000e+00
4.319169610742553e-01 5.357282199723505e-01 0.000000000000000e+00
4.399294697975104e-01 5.359205466319455e-01 0.000000000000000e+00
4.479891412565857e-01 5.361573181738782e-01 0.000000000000000e+00
4.559520614477330e-01 5.363276290119633e-01 0.000000000000000e+00
4.638641440306880e-01 5.364576947480117e-01 0.000000000000000e+00
4.718716963488792e-01 5.366933772129652e-01 0.000000000000000e+00
4.798984230013268e-01 5.369096234214317e-01 0.000000000000000e+00
4.879009062548592e-01 5.370120493942429e-01 0.000000000000000e+00
4.959357064121138e-01 5.370147961648922e-01 0.000000000000000e+00
5.040642935878861e-01 5.370147961648922e-01 0.000000000000000e+00
5.120990937451410e-01 5.370120493942429e-01 0.000000000000000e+00
5.201015769986733e-01 5.369096234214316e-01 0.000000000000000e+00
5.281283036511206e-01 5.366933772129654e-01 0.000000000000000e+00
5.361358559693111e-01 5.364576947480116e-01 0.000000000000000e+00
5.440479385522672e-01 5.363276290119633e-01 0.000000000000000e+00
5.520108587434144e-01 5.361573181738780e-01 0.000000000000000e+00
5.600705302024900e-01 5.359205466319455e-01 0.000000000000000e+00
5.680830389257445e-01 5.357282199723503e-01 0.000000000000000e+00
5.759086086727966e-01 5.355004129948414e-01 0.000000000000000e+00
5.837592942486796e-01 5.350688702537825e-01 0.000000000000000e+00
5.916601140300254e-01 5.343933308610193e-01 0.000000000000000e+00
5.994000396987186e-01 5.335658191600426e-01 0.000000000000000e+00
6.069880824202613e-01 5.327005305166514e-01 0.000000000000000e+00
6.146428886256902e-01 5.316737941235484e-01 0.000000000000000e+00
6.223661688204437e-01 5.305004747334088e-01 0.000000000000000e+00
6.299378438103079e-01 5.294037236651148e-01 0.000000000000000e+00
6.374785070457438e-01 5.283286408702232e-01 0.000000000000000e+00
6.451436672716864e-01 5.270821360177635e-01 0.000000000000000e+00
6.529034166670279e-01 5.256323905094316e-01 0.000000000000000e+00
6.605493698138712e-01 5.240831051705649e-01 0.000000000000000e+00
6.681689222956853e-01 5.224015554301272e-01 0.000000000000000e+00
6.758626974630125e-01 5.205690957448514e-01 0.000000000000000e+00
6.835787165276402e-01 5.186719564778403e-01 0.000000000000000e+00
6.911322611395969e-01 5.169358489445122e-01 0.000000000000000e+00
6.989043856426698e-01 5.151317390653495e-01 0.000000000000000e+00
7.069214302743158e-01 5.131150875920962e-01 0.000000000000000e+00
7.150926233980738e-01 5.108318176737211e-01 0.000000000000000e+00
7.233102228797512e-01 5.083185947259211e-01 0.000000000000000e+00
7.319259268507319e-01 5.053820887630212e-01 0.000000000000000e+00
7.408310857870839e-01 5.024679161048519e-01 0.000000000000000e+00
7.500274287658709e-01 5.000631271842352e-01 0.000000000000000e+00

POINT_DATA   64
SCALARS fY_Lag double
LOOKUP_TABLE default

-9.043643e+03 
7.975471e+03 
3.565667e+03 
-3.496018e+03 
-4.871161e+03 
-4.023542e+03 
-2.636306e+03 
-3.530936e+02 
7.117125e+02 
-5.970458e+02 
-2.054980e+03 
-2.355422e+03 
-2.526667e+03 
-2.869973e+03 
-2.100137e+03 
-3.137648e+02 
-1.124563e+02 
-1.700227e+03 
-2.244477e+03 
-2.006538e+03 
-2.983882e+03 
-4.012731e+03 
-3.262798e+03 
-1.197015e+03 
-1.503296e+02 
-6.357330e+02 
-2.217002e+02 
6.574593e+02 
-2.891332e+02 
-1.698985e+03 
-1.552347e+03 
-5.607329e+02 
-5.607329e+02 
-1.552347e+03 
-1.698985e+03 
-2.891332e+02 
6.574593e+02 
-2.217002e+02 
-6.357330e+02 
-1.503296e+02 
-1.197015e+03 
-3.262798e+03 
-4.012731e+03 
-2.983882e+03 
-2.006538e+03 
-2.244477e+03 
-1.700227e+03 
-1.124563e+02 
-3.137648e+02 
-2.100137e+03 
-2.869973e+03 
-2.526667e+03 
-2.355422e+03 
-2.054980e+03 
-5.970458e+02 
7.117125e+02 
-3.530936e+02 
-2.636306e+03 
-4.023542e+03 
-4.871161e+03 
-3.496018e+03 
3.565667e+03 
7.975471e+03 
-9.043643e+03 
