# vtk DataFile Version 2.0
Comment goes here
ASCII

DATASET STRUCTURED_POINTS
FIELD FieldData 1
TIME 1 1 double
0.74000000
DIMENSIONS    64   64   1

ORIGIN    0.000   0.000   0.000
SPACING   0.015625 0.015625   1.000

POINT_DATA   4096
SCALARS Concentration double
LOOKUP_TABLE default

9.969203e-01 9.968395e-01 9.965889e-01 9.961653e-01 9.955628e-01 9.947727e-01 9.937832e-01 9.925798e-01 9.911447e-01 9.894554e-01 9.874844e-01 9.851952e-01 9.825422e-01 9.794641e-01 9.758856e-01 9.717092e-01 9.668247e-01 9.610999e-01 9.544054e-01 9.466062e-01 9.376106e-01 9.273590e-01 9.158995e-01 9.033569e-01 8.900168e-01 8.762501e-01 8.625739e-01 8.495405e-01 8.377722e-01 8.278462e-01 8.203006e-01 8.155582e-01 8.139105e-01 8.154973e-01 8.201864e-01 8.276897e-01 8.375837e-01 8.493337e-01 8.623593e-01 8.760384e-01 8.898151e-01 9.031690e-01 9.157275e-01 9.272010e-01 9.374652e-01 9.464699e-01 9.542769e-01 9.609768e-01 9.667068e-01 9.715959e-01 9.757775e-01 9.793615e-01 9.824460e-01 9.851060e-01 9.874029e-01 9.893820e-01 9.910798e-01 9.925235e-01 9.937355e-01 9.947334e-01 9.955319e-01 9.961424e-01 9.965738e-01 9.968320e-01 
9.967381e-01 9.966534e-01 9.963906e-01 9.959466e-01 9.953156e-01 9.944889e-01 9.934550e-01 9.921996e-01 9.907053e-01 9.889498e-01 9.869062e-01 9.845383e-01 9.818009e-01 9.786324e-01 9.749573e-01 9.706770e-01 9.656797e-01 9.598306e-01 9.529969e-01 9.450385e-01 9.358582e-01 9.253883e-01 9.136694e-01 9.008174e-01 8.871128e-01 8.729210e-01 8.587596e-01 8.451976e-01 8.328882e-01 8.224542e-01 8.144851e-01 8.094598e-01 8.077063e-01 8.093877e-01 8.143503e-01 8.222711e-01 8.326698e-01 8.449613e-01 8.585178e-01 8.726863e-01 8.868922e-01 9.006144e-01 9.134851e-01 9.252201e-01 9.357041e-01 9.448944e-01 9.528610e-01 9.597003e-01 9.655548e-01 9.705568e-01 9.748424e-01 9.785232e-01 9.816984e-01 9.844432e-01 9.868191e-01 9.888714e-01 9.906358e-01 9.921394e-01 9.934039e-01 9.944468e-01 9.952824e-01 9.959220e-01 9.963744e-01 9.966454e-01 
9.961845e-01 9.960879e-01 9.957883e-01 9.952825e-01 9.945651e-01 9.936278e-01 9.924595e-01 9.910467e-01 9.893729e-01 9.874172e-01 9.851539e-01 9.825483e-01 9.795559e-01 9.761151e-01 9.721497e-01 9.675578e-01 9.622236e-01 9.560043e-01 9.487582e-01 9.403300e-01 9.306064e-01 9.194963e-01 9.070178e-01 8.932597e-01 8.784854e-01 8.630481e-01 8.474745e-01 8.323788e-01 8.185024e-01 8.065977e-01 7.974032e-01 7.915587e-01 7.894999e-01 7.914539e-01 7.972081e-01 8.063364e-01 8.181967e-01 8.320563e-01 8.471533e-01 8.627457e-01 8.782091e-01 8.930120e-01 9.067977e-01 9.192986e-01 9.304269e-01 9.401626e-01 9.486001e-01 9.558523e-01 9.620773e-01 9.674163e-01 9.720140e-01 9.759857e-01 9.794340e-01 9.824348e-01 9.850499e-01 9.873232e-01 9.892896e-01 9.909743e-01 9.923981e-01 9.935772e-01 9.945252e-01 9.952530e-01 9.957688e-01 9.960783e-01 
9.952367e-01 9.951202e-01 9.947581e-01 9.941478e-01 9.932841e-01 9.921592e-01 9.907631e-01 9.890831e-01 9.871048e-01 9.848091e-01 9.821730e-01 9.791638e-01 9.757395e-01 9.718387e-01 9.673847e-01 9.622714e-01 9.563777e-01 9.495491e-01 9.416305e-01 9.324439e-01 9.218512e-01 9.097237e-01 8.960437e-01 8.808539e-01 8.643878e-01 8.469751e-01 8.291610e-01 8.116278e-01 7.952566e-01 7.810047e-01 7.698517e-01 7.626954e-01 7.601473e-01 7.625370e-01 7.695578e-01 7.806155e-01 7.948077e-01 8.111642e-01 8.287100e-01 8.465624e-01 8.640214e-01 8.805347e-01 8.957663e-01 9.094787e-01 9.216304e-01 9.322381e-01 9.414355e-01 9.493604e-01 9.561949e-01 9.620935e-01 9.672132e-01 9.716743e-01 9.755842e-01 9.790186e-01 9.820396e-01 9.846883e-01 9.869975e-01 9.889898e-01 9.906838e-01 9.920939e-01 9.932325e-01 9.941097e-01 9.947330e-01 9.951078e-01 
9.938571e-01 9.937122e-01 9.932607e-01 9.925006e-01 9.914273e-01 9.900335e-01 9.883105e-01 9.862470e-01 9.838309e-01 9.810461e-01 9.778735e-01 9.742835e-01 9.702382e-01 9.656775e-01 9.605262e-01 9.546740e-01 9.479951e-01 9.403217e-01 9.314846e-01 9.212779e-01 9.095344e-01 8.960774e-01 8.808438e-01 8.638133e-01 8.451763e-01 8.252240e-01 8.045209e-01 7.838279e-01 7.642033e-01 7.468711e-01 7.331339e-01 7.242399e-01 7.210421e-01 7.240081e-01 7.327049e-01 7.463072e-01 7.635597e-01 7.831736e-01 8.038958e-01 8.246650e-01 8.446917e-01 8.634013e-01 8.804926e-01 8.957707e-01 9.092584e-01 9.210195e-01 9.312376e-01 9.400804e-01 9.477593e-01 9.544428e-01 9.603021e-01 9.654617e-01 9.700334e-01 9.740915e-01 9.776967e-01 9.808857e-01 9.836883e-01 9.861227e-01 9.882049e-01 9.899465e-01 9.913586e-01 9.924498e-01 9.932273e-01 9.936956e-01 
9.919956e-01 9.918130e-01 9.912437e-01 9.902858e-01 9.889354e-01 9.871860e-01 9.850301e-01 9.824581e-01 9.794609e-01 9.760259e-01 9.721392e-01 9.677760e-01 9.629045e-01 9.574684e-01 9.513963e-01 9.445766e-01 9.368820e-01 9.281330e-01 9.181485e-01 9.066945e-01 8.935749e-01 8.785598e-01 8.615356e-01 8.424049e-01 8.213031e-01 7.984618e-01 7.744596e-01 7.501329e-01 7.267391e-01 7.058093e-01 6.890347e-01 6.780879e-01 6.741212e-01 6.777661e-01 6.884399e-01 7.050312e-01 7.258569e-01 7.492464e-01 7.736245e-01 7.977288e-01 8.206804e-01 8.418861e-01 8.610993e-01 8.781803e-01 8.932318e-01 9.063694e-01 9.178337e-01 9.278215e-01 9.365747e-01 9.442730e-01 9.511003e-01 9.571820e-01 9.626321e-01 9.675199e-01 9.719029e-01 9.758113e-01 9.792699e-01 9.822915e-01 9.848886e-01 9.870694e-01 9.888433e-01 9.902177e-01 9.911988e-01 9.917909e-01 
9.895918e-01 9.893621e-01 9.886445e-01 9.874378e-01 9.857385e-01 9.835407e-01 9.808380e-01 9.776227e-01 9.738888e-01 9.696279e-01 9.648323e-01 9.594835e-01 9.535587e-01 9.470080e-01 9.397690e-01 9.317330e-01 9.227771e-01 9.127153e-01 9.013616e-01 8.884577e-01 8.737856e-01 8.570631e-01 8.381310e-01 8.168078e-01 7.931694e-01 7.673660e-01 7.399714e-01 7.118707e-01 6.845112e-01 6.597425e-01 6.396864e-01 6.265028e-01 6.216948e-01 6.260783e-01 6.389021e-01 6.587206e-01 6.833590e-01 7.107247e-01 7.389051e-01 7.664453e-01 7.924010e-01 8.161781e-01 8.376059e-01 8.566046e-01 8.733655e-01 8.880520e-01 9.009619e-01 9.123138e-01 9.223770e-01 9.313345e-01 9.393786e-01 9.466287e-01 9.531970e-01 9.591430e-01 9.645177e-01 9.693420e-01 9.736343e-01 9.774007e-01 9.806494e-01 9.833853e-01 9.856158e-01 9.873471e-01 9.885848e-01 9.893326e-01 
9.865793e-01 9.862925e-01 9.853948e-01 9.838855e-01 9.817614e-01 9.790169e-01 9.756463e-01 9.716432e-01 9.670048e-01 9.617269e-01 9.558086e-01 9.492398e-01 9.420091e-01 9.340776e-01 9.253978e-01 9.158707e-01 9.053870e-01 8.937623e-01 8.808166e-01 8.662753e-01 8.499107e-01 8.313952e-01 8.105367e-01 7.870695e-01 7.610136e-01 7.324154e-01 7.018280e-01 6.701494e-01 6.389901e-01 6.104924e-01 5.872113e-01 5.718091e-01 5.661636e-01 5.712773e-01 5.862270e-01 6.092127e-01 6.375516e-01 6.687313e-01 7.005216e-01 7.313042e-01 7.601015e-01 7.863328e-01 8.099241e-01 8.308536e-01 8.494037e-01 8.657731e-01 8.803120e-01 8.932476e-01 9.048689e-01 9.153510e-01 9.248864e-01 9.335792e-01 9.415330e-01 9.487910e-01 9.553939e-01 9.613499e-01 9.666693e-01 9.713507e-01 9.753979e-01 9.788123e-01 9.816001e-01 9.837663e-01 9.853164e-01 9.862538e-01 
9.828875e-01 9.825333e-01 9.814225e-01 9.795548e-01 9.769267e-01 9.735325e-01 9.693661e-01 9.644218e-01 9.586985e-01 9.521960e-01 9.449205e-01 9.368710e-01 9.280506e-01 9.184364e-01 9.080026e-01 8.966688e-01 8.843498e-01 8.708741e-01 8.560796e-01 8.396872e-01 8.214762e-01 8.010869e-01 7.783206e-01 7.528407e-01 7.246408e-01 6.936531e-01 6.603893e-01 6.256991e-01 5.912811e-01 5.595043e-01 5.333154e-01 5.158787e-01 5.094559e-01 5.152392e-01 5.321281e-01 5.579631e-01 5.895538e-01 6.240128e-01 6.588497e-01 6.923622e-01 7.235978e-01 7.520085e-01 7.776273e-01 8.004603e-01 8.208722e-01 8.390706e-01 8.554470e-01 8.702188e-01 8.836843e-01 8.959968e-01 9.073388e-01 9.177880e-01 9.274304e-01 9.362860e-01 9.443801e-01 9.517050e-01 9.582619e-01 9.640415e-01 9.690435e-01 9.732672e-01 9.767177e-01 9.794005e-01 9.813211e-01 9.824833e-01 
9.784458e-01 9.780138e-01 9.766563e-01 9.743734e-01 9.711603e-01 9.670105e-01 9.619158e-01 9.558696e-01 9.488707e-01 9.409215e-01 9.320342e-01 9.222179e-01 9.114927e-01 8.998568e-01 8.873139e-01 8.738126e-01 8.593029e-01 8.436374e-01 8.266848e-01 8.081729e-01 7.879064e-01 7.655096e-01 7.408121e-01 7.134259e-01 6.833572e-01 6.504180e-01 6.151019e-01 5.781846e-01 5.413875e-01 5.072012e-01 4.788477e-01 4.598741e-01 4.528507e-01 4.591388e-01 4.774711e-01 5.054120e-01 5.393803e-01 5.762410e-01 6.133351e-01 6.489540e-01 6.821936e-01 7.125104e-01 7.400443e-01 7.647931e-01 7.871916e-01 8.074191e-01 8.258963e-01 8.428092e-01 8.584552e-01 8.729520e-01 8.864613e-01 8.990222e-01 9.106939e-01 9.214645e-01 9.313387e-01 9.402903e-01 9.483103e-01 9.553823e-01 9.615032e-01 9.666718e-01 9.708939e-01 9.741769e-01 9.765274e-01 9.779503e-01 
9.731840e-01 9.726637e-01 9.710259e-01 9.682706e-01 9.643910e-01 9.593782e-01 9.532196e-01 9.459054e-01 9.374311e-01 9.277990e-01 9.170251e-01 9.051288e-01 8.921484e-01 8.781087e-01 8.630498e-01 8.469589e-01 8.298296e-01 8.115482e-01 7.920208e-01 7.709919e-01 7.483081e-01 7.236015e-01 6.967821e-01 6.674486e-01 6.357316e-01 6.013433e-01 5.647881e-01 5.267026e-01 4.886855e-01 4.532102e-01 4.236121e-01 4.037130e-01 3.962998e-01 4.028946e-01 4.220571e-01 4.511830e-01 4.864117e-01 5.245247e-01 5.628075e-01 5.997144e-01 6.344564e-01 6.664629e-01 6.959477e-01 7.227904e-01 7.474670e-01 7.700745e-01 7.910446e-01 8.105100e-01 8.287604e-01 8.458680e-01 8.619661e-01 8.770460e-01 8.911307e-01 9.041694e-01 9.161405e-01 9.269977e-01 9.367212e-01 9.452898e-01 9.526996e-01 9.589524e-01 9.640569e-01 9.680248e-01 9.708649e-01 9.725845e-01 
9.670365e-01 9.664176e-01 9.644660e-01 9.611818e-01 9.565544e-01 9.505710e-01 9.432117e-01 9.344600e-01 9.243036e-01 9.127410e-01 8.997889e-01 8.854757e-01 8.698602e-01 8.529983e-01 8.349727e-01 8.158178e-01 7.955737e-01 7.741653e-01 7.515341e-01 7.274484e-01 7.018147e-01 6.743024e-01 6.449748e-01 6.134461e-01 5.800431e-01 5.443992e-01 5.071531e-01 4.688867e-01 4.309971e-01 3.957636e-01 3.663800e-01 3.466317e-01 3.392168e-01 3.457405e-01 3.646749e-01 3.935342e-01 4.284849e-01 4.665025e-01 5.049524e-01 5.425823e-01 5.786449e-01 6.124014e-01 6.440816e-01 6.733849e-01 7.008257e-01 7.263349e-01 7.503328e-01 7.728758e-01 7.942387e-01 8.144501e-01 8.336100e-01 8.516595e-01 8.685772e-01 8.842670e-01 8.986761e-01 9.117357e-01 9.234156e-01 9.336928e-01 9.425658e-01 9.500440e-01 9.561421e-01 9.608794e-01 9.642683e-01 9.663204e-01 
9.599411e-01 9.592132e-01 9.569143e-01 9.530446e-01 9.475880e-01 9.405263e-01 9.318280e-01 9.214660e-01 9.094141e-01 8.956626e-01 8.802243e-01 8.631360e-01 8.444779e-01 8.243414e-01 8.028552e-01 7.801027e-01 7.561639e-01 7.309950e-01 7.045557e-01 6.766437e-01 6.472333e-01 6.161009e-01 5.835270e-01 5.492133e-01 5.139950e-01 4.775035e-01 4.404906e-01 4.033814e-01 3.670655e-01 3.334417e-01 3.053781e-01 2.865349e-01 2.793794e-01 2.855941e-01 3.035502e-01 3.310409e-01 3.643707e-01 4.008806e-01 4.381107e-01 4.754964e-01 5.124684e-01 5.481150e-01 5.825762e-01 6.150615e-01 6.460731e-01 6.752967e-01 7.030887e-01 7.294077e-01 7.545140e-01 7.784057e-01 8.011588e-01 8.226713e-01 8.428759e-01 8.616280e-01 8.788386e-01 8.944150e-01 9.083163e-01 9.205219e-01 9.310367e-01 9.398837e-01 9.470874e-01 9.526788e-01 9.566759e-01 9.590962e-01 
9.518448e-01 9.509970e-01 9.483164e-01 9.438032e-01 9.374343e-01 9.291842e-01 9.190053e-01 9.068550e-01 8.926863e-01 8.764760e-01 8.582289e-01 8.379897e-01 8.158642e-01 7.919825e-01 7.665196e-01 7.396043e-01 7.113337e-01 6.816827e-01 6.505974e-01 6.179294e-01 5.837575e-01 5.480887e-01 5.116042e-01 4.740291e-01 4.366307e-01 3.989058e-01 3.620330e-01 3.268487e-01 2.936436e-01 2.635419e-01 2.386829e-01 2.221765e-01 2.158192e-01 2.212509e-01 2.368644e-01 2.611298e-01 2.909238e-01 3.243762e-01 3.595043e-01 3.966508e-01 4.349407e-01 4.728975e-01 5.105970e-01 5.468794e-01 5.823774e-01 6.162965e-01 6.488114e-01 6.797471e-01 7.093160e-01 7.375230e-01 7.644307e-01 7.899200e-01 8.138824e-01 8.361248e-01 8.565186e-01 8.749420e-01 8.913431e-01 9.057066e-01 9.180485e-01 9.284119e-01 9.368358e-01 9.433680e-01 9.480338e-01 9.508588e-01 
9.427025e-01 9.417226e-01 9.386227e-01 9.334035e-01 9.260331e-01 9.164776e-01 9.046679e-01 8.905415e-01 8.740228e-01 8.550708e-01 8.336797e-01 8.099043e-01 7.838808e-01 7.557797e-01 7.258151e-01 6.941390e-01 6.608287e-01 6.258455e-01 5.890987e-01 5.505347e-01 5.103824e-01 4.690986e-01 4.275825e-01 3.856398e-01 3.461581e-01 3.083871e-01 2.730957e-01 2.412584e-01 2.122108e-01 1.862556e-01 1.648250e-01 1.506631e-01 1.451129e-01 1.498200e-01 1.631223e-01 1.839782e-01 2.097112e-01 2.391084e-01 2.706190e-01 3.060042e-01 3.443422e-01 3.844083e-01 4.264064e-01 4.676338e-01 5.087246e-01 5.485452e-01 5.869267e-01 6.234965e-01 6.583809e-01 6.916111e-01 7.232678e-01 7.532568e-01 7.814505e-01 8.076175e-01 8.315864e-01 8.532018e-01 8.723956e-01 8.891602e-01 9.035255e-01 9.155624e-01 9.253287e-01 9.328943e-01 9.382937e-01 9.415624e-01 
9.324868e-01 9.313605e-01 9.277973e-01 9.218002e-01 9.133272e-01 9.023350e-01 8.887281e-01 8.724196e-01 8.532982e-01 8.313024e-01 8.064176e-01 7.787130e-01 7.483653e-01 7.155792e-01 6.805901e-01 6.435343e-01 6.044123e-01 5.631695e-01 5.196757e-01 4.741135e-01 4.268978e-01 3.793389e-01 3.333973e-01 2.884864e-01 2.469005e-01 2.074581e-01 1.711662e-01 1.415405e-01 1.178306e-01 9.883816e-02 8.421566e-02 7.496336e-02 7.141615e-02 7.438598e-02 8.304710e-02 9.732436e-02 1.160891e-01 1.397766e-01 1.687128e-01 2.049082e-01 2.449390e-01 2.871684e-01 3.319317e-01 3.774025e-01 4.247934e-01 4.716557e-01 5.170144e-01 5.603337e-01 6.014680e-01 6.405002e-01 6.775217e-01 7.125263e-01 7.454140e-01 7.759321e-01 8.038760e-01 8.290434e-01 8.513444e-01 8.707753e-01 8.873803e-01 9.012655e-01 9.125109e-01 9.212149e-01 9.274213e-01 9.311781e-01 
9.211880e-01 9.198969e-01 9.158161e-01 9.089535e-01 8.992558e-01 8.866719e-01 8.710748e-01 8.523516e-01 8.303502e-01 8.049918e-01 7.762604e-01 7.442502e-01 7.091876e-01 6.712887e-01 6.307684e-01 5.876736e-01 5.418905e-01 4.933728e-01 4.421038e-01 3.886438e-01 3.339293e-01 2.800215e-01 2.276868e-01 1.771017e-01 1.347476e-01 1.011042e-01 7.462697e-02 5.648156e-02 4.510960e-02 3.855385e-02 3.495177e-02 3.314870e-02 3.265767e-02 3.302383e-02 3.469478e-02 3.817749e-02 4.466682e-02 5.557058e-02 7.291205e-02 9.916796e-02 1.328801e-01 1.749840e-01 2.251534e-01 2.775000e-01 3.313120e-01 3.855671e-01 4.388004e-01 4.899288e-01 5.383553e-01 5.840609e-01 6.271104e-01 6.676374e-01 7.056425e-01 7.409041e-01 7.732039e-01 8.022881e-01 8.280279e-01 8.504166e-01 8.695052e-01 8.854406e-01 8.983257e-01 9.082927e-01 9.153948e-01 9.196936e-01 
9.088295e-01 9.073498e-01 9.026827e-01 8.948444e-01 8.837712e-01 8.694073e-01 8.515903e-01 8.301843e-01 8.049940e-01 7.759345e-01 7.430036e-01 7.063303e-01 6.661987e-01 6.227690e-01 5.761778e-01 5.262836e-01 4.728517e-01 4.160058e-01 3.560423e-01 2.941369e-01 2.308943e-01 1.693927e-01 1.175522e-01 7.734538e-02 5.273671e-02 4.252562e-02 4.195556e-02 4.617022e-02 5.175867e-02 5.733302e-02 6.190471e-02 6.479624e-02 6.609824e-02 6.503631e-02 6.245747e-02 5.803915e-02 5.264922e-02 4.673471e-02 4.203653e-02 4.218106e-02 5.196119e-02 7.546598e-02 1.147645e-01 1.660997e-01 2.271195e-01 2.902537e-01 3.519352e-01 4.118550e-01 4.686480e-01 5.220338e-01 5.718837e-01 6.184617e-01 6.619972e-01 7.023485e-01 7.393656e-01 7.727294e-01 8.022618e-01 8.279331e-01 8.497867e-01 8.680118e-01 8.827302e-01 8.941135e-01 9.022207e-01 9.071285e-01 
8.954662e-01 8.937670e-01 8.884254e-01 8.794719e-01 8.668342e-01 8.504591e-01 8.301476e-01 8.057517e-01 7.770374e-01 7.439392e-01 7.064918e-01 6.648721e-01 6.194013e-01 5.700752e-01 5.168416e-01 4.592700e-01 3.970811e-01 3.307806e-01 2.609840e-01 1.894835e-01 1.236355e-01 7.361475e-02 4.787990e-02 4.437884e-02 5.660471e-02 7.520839e-02 9.356427e-02 1.075235e-01 1.163600e-01 1.213641e-01 1.237501e-01 1.246731e-01 1.252525e-01 1.249471e-01 1.244662e-01 1.223522e-01 1.175092e-01 1.084893e-01 9.474353e-02 7.649073e-02 5.766562e-02 4.461026e-02 4.696577e-02 7.119638e-02 1.196569e-01 1.845994e-01 2.557668e-01 3.257615e-01 3.921013e-01 4.543148e-01 5.118628e-01 5.650767e-01 6.145032e-01 6.602125e-01 7.022261e-01 7.401949e-01 7.738683e-01 8.031720e-01 8.281092e-01 8.489066e-01 8.656930e-01 8.786818e-01 8.879315e-01 8.935324e-01 
8.812047e-01 8.792470e-01 8.731212e-01 8.628802e-01 8.484477e-01 8.297864e-01 8.066621e-01 7.789370e-01 7.463491e-01 7.088932e-01 6.666641e-01 6.198762e-01 5.688349e-01 5.131657e-01 4.525693e-01 3.862483e-01 3.141135e-01 2.374888e-01 1.591333e-01 9.114117e-02 5.112514e-02 4.500227e-02 6.529851e-02 9.678698e-02 1.267635e-01 1.491572e-01 1.644862e-01 1.745770e-01 1.807808e-01 1.841646e-01 1.857031e-01 1.862106e-01 1.866156e-01 1.865691e-01 1.865145e-01 1.851927e-01 1.818277e-01 1.752718e-01 1.654335e-01 1.502402e-01 1.279557e-01 9.835815e-02 6.694812e-02 4.561014e-02 4.961920e-02 8.720468e-02 1.535926e-01 2.317124e-01 3.083780e-01 3.805522e-01 4.469059e-01 5.074591e-01 5.632247e-01 6.145080e-01 6.617359e-01 7.045817e-01 7.427278e-01 7.760298e-01 8.044012e-01 8.280966e-01 8.472275e-01 8.620496e-01 8.726088e-01 8.790061e-01 
8.661929e-01 8.639290e-01 8.568858e-01 8.451499e-01 8.286494e-01 8.073823e-01 7.810870e-01 7.496719e-01 7.128689e-01 6.707948e-01 6.236230e-01 5.715821e-01 5.148281e-01 4.524132e-01 3.836997e-01 3.076864e-01 2.252422e-01 1.411870e-01 7.271971e-02 4.372751e-02 5.707499e-02 9.379972e-02 1.334968e-01 1.687679e-01 1.982307e-01 2.203137e-01 2.351648e-01 2.438064e-01 2.480348e-01 2.494615e-01 2.495063e-01 2.490871e-01 2.491464e-01 2.494140e-01 2.501944e-01 2.502867e-01 2.488600e-01 2.443888e-01 2.359271e-01 2.210173e-01 1.988779e-01 1.700183e-01 1.355098e-01 9.631394e-02 5.910761e-02 4.336414e-02 6.915274e-02 1.352923e-01 2.189049e-01 3.012661e-01 3.773497e-01 4.460297e-01 5.085428e-01 5.655418e-01 6.180532e-01 6.659374e-01 7.088188e-01 7.464690e-01 7.786403e-01 8.055925e-01 8.273842e-01 8.443059e-01 8.563737e-01 8.636912e-01 
8.506409e-01 8.480150e-01 8.399018e-01 8.264364e-01 8.075648e-01 7.833487e-01 7.535122e-01 7.180676e-01 6.767604e-01 6.299220e-01 5.777787e-01 5.205039e-01 4.579294e-01 3.881386e-01 3.105409e-01 2.245919e-01 1.360706e-01 6.536501e-02 4.372499e-02 6.901997e-02 1.150495e-01 1.623465e-01 2.042175e-01 2.402477e-01 2.692486e-01 2.900110e-01 3.035336e-01 3.111226e-01 3.146664e-01 3.156501e-01 3.155140e-01 3.150274e-01 3.150264e-01 3.153062e-01 3.160670e-01 3.162814e-01 3.152858e-01 3.115351e-01 3.039942e-01 2.904304e-01 2.697908e-01 2.415117e-01 2.061753e-01 1.650780e-01 1.183941e-01 7.185566e-02 4.403743e-02 6.178985e-02 1.296279e-01 2.174774e-01 3.036142e-01 3.810975e-01 4.509772e-01 5.137985e-01 5.715791e-01 6.245537e-01 6.723283e-01 7.146302e-01 7.509428e-01 7.815191e-01 8.063051e-01 8.256178e-01 8.394155e-01 8.477926e-01 
8.347962e-01 8.317465e-01 8.223962e-01 8.069477e-01 7.853844e-01 7.578663e-01 7.241245e-01 6.843452e-01 6.383162e-01 5.866939e-01 5.297117e-01 4.674199e-01 3.991493e-01 3.217724e-01 2.349370e-01 1.421186e-01 6.595021e-02 4.384147e-02 7.418069e-02 1.260434e-01 1.790481e-01 2.285125e-01 2.712209e-01 3.067749e-01 3.352619e-01 3.560725e-01 3.699993e-01 3.780745e-01 3.820133e-01 3.832142e-01 3.831667e-01 3.826830e-01 3.826356e-01 3.828860e-01 3.835582e-01 3.836542e-01 3.824573e-01 3.784033e-01 3.703676e-01 3.564757e-01 3.358733e-01 3.080250e-01 2.731778e-01 2.313910e-01 1.825786e-01 1.297920e-01 7.735092e-02 4.443018e-02 6.211367e-02 1.352903e-01 2.274959e-01 3.140857e-01 3.915783e-01 4.601626e-01 5.229855e-01 5.809263e-01 6.336127e-01 6.807802e-01 7.215303e-01 7.560787e-01 7.841959e-01 8.062017e-01 8.219658e-01 8.315535e-01 
8.189630e-01 8.154245e-01 8.046688e-01 7.869885e-01 7.624310e-01 7.312968e-01 6.933518e-01 6.490518e-01 5.982332e-01 5.420657e-01 4.806051e-01 4.139015e-01 3.403420e-01 2.550415e-01 1.607078e-01 7.548339e-02 4.323921e-02 7.053352e-02 1.255026e-01 1.837573e-01 2.381470e-01 2.876634e-01 3.306722e-01 3.667997e-01 3.958060e-01 4.174690e-01 4.325235e-01 4.418968e-01 4.471103e-01 4.494076e-01 4.501896e-01 4.502140e-01 4.502981e-01 4.503561e-01 4.504617e-01 4.497167e-01 4.474442e-01 4.421928e-01 4.328962e-01 4.179767e-01 3.966192e-01 3.682041e-01 3.327480e-01 2.905187e-01 2.416430e-01 1.876950e-01 1.296725e-01 7.419416e-02 4.336908e-02 7.051234e-02 1.528847e-01 2.463739e-01 3.318846e-01 4.060601e-01 4.733843e-01 5.360277e-01 5.934116e-01 6.455196e-01 6.908755e-01 7.296677e-01 7.614027e-01 7.863776e-01 8.043330e-01 8.152783e-01 
8.034642e-01 7.993736e-01 7.870577e-01 7.669250e-01 7.391178e-01 7.041165e-01 6.617578e-01 6.128473e-01 5.572786e-01 4.968981e-01 4.313603e-01 3.608006e-01 2.824688e-01 1.890178e-01 9.590956e-02 4.472431e-02 5.987338e-02 1.140088e-01 1.744998e-01 2.333165e-01 2.877816e-01 3.375003e-01 3.811374e-01 4.182983e-01 4.487613e-01 4.723365e-01 4.895884e-01 5.012180e-01 5.085005e-01 5.125121e-01 5.145411e-01 5.153189e-01 5.156236e-01 5.154178e-01 5.147358e-01 5.127536e-01 5.088012e-01 5.015626e-01 4.900746e-01 4.730390e-01 4.498330e-01 4.199300e-01 3.834214e-01 3.405141e-01 2.914711e-01 2.375211e-01 1.791810e-01 1.187851e-01 6.319012e-02 4.343393e-02 8.927051e-02 1.801793e-01 2.736790e-01 3.528729e-01 4.239864e-01 4.908455e-01 5.525752e-01 6.095476e-01 6.595687e-01 7.027743e-01 7.383450e-01 7.665150e-01 7.868576e-01 7.992928e-01 
7.886568e-01 7.839568e-01 7.699623e-01 7.472167e-01 7.159991e-01 6.769946e-01 6.301663e-01 5.767356e-01 5.166702e-01 4.527534e-01 3.837953e-01 3.110385e-01 2.275327e-01 1.301739e-01 5.593432e-02 4.621506e-02 9.310033e-02 1.538002e-01 2.142988e-01 2.724384e-01 3.267247e-01 3.766914e-01 4.214376e-01 4.603476e-01 4.930491e-01 5.192609e-01 5.393496e-01 5.538235e-01 5.637248e-01 5.699617e-01 5.736610e-01 5.754863e-01 5.761221e-01 5.755648e-01 5.738225e-01 5.701869e-01 5.640415e-01 5.542457e-01 5.399671e-01 5.201542e-01 4.943499e-01 4.621834e-01 4.238906e-01 3.798101e-01 3.304836e-01 2.767701e-01 2.190943e-01 1.588418e-01 9.770032e-02 4.831005e-02 5.256529e-02 1.220015e-01 2.184894e-01 3.032252e-01 3.764792e-01 4.470094e-01 5.124485e-01 5.739693e-01 6.285093e-01 6.761121e-01 7.156120e-01 7.470940e-01 7.699571e-01 7.839707e-01 
7.748862e-01 7.695437e-01 7.538211e-01 7.283981e-01 6.937474e-01 6.507379e-01 5.995673e-01 5.418093e-01 4.776371e-01 4.108137e-01 3.390135e-01 2.659941e-01 1.761760e-01 8.252857e-02 4.034076e-02 6.574765e-02 1.228083e-01 1.838877e-01 2.428756e-01 3.001624e-01 3.542855e-01 4.050098e-01 4.513210e-01 4.925065e-01 5.280125e-01 5.573994e-01 5.808233e-01 5.985795e-01 6.114813e-01 6.202632e-01 6.258763e-01 6.289047e-01 6.299320e-01 6.289792e-01 6.260352e-01 6.205066e-01 6.118433e-01 5.990892e-01 5.815613e-01 5.584378e-01 5.294588e-01 4.944482e-01 4.538339e-01 4.081310e-01 3.580291e-01 3.044920e-01 2.477296e-01 1.891883e-01 1.281574e-01 7.050398e-02 3.958685e-02 7.613941e-02 1.667275e-01 2.573381e-01 3.316486e-01 4.054701e-01 4.741695e-01 5.397984e-01 5.986288e-01 6.504473e-01 6.938370e-01 7.286258e-01 7.540498e-01 7.696738e-01 
7.624979e-01 7.565105e-01 7.390866e-01 7.110364e-01 6.730772e-01 6.262076e-01 5.709804e-01 5.090835e-01 4.412516e-01 3.715070e-01 2.976233e-01 2.243486e-01 1.325093e-01 5.356934e-02 4.091304e-02 8.785507e-02 1.441568e-01 2.035809e-01 2.607885e-01 3.172838e-01 3.715449e-01 4.233104e-01 4.715404e-01 5.153012e-01 5.538892e-01 5.866670e-01 6.135993e-01 6.347789e-01 6.508039e-01 6.622391e-01 6.698576e-01 6.741538e-01 6.755996e-01 6.742322e-01 6.700261e-01 6.625076e-01 6.512058e-01 6.353458e-01 6.143954e-01 5.877468e-01 5.553340e-01 5.171654e-01 4.738883e-01 4.261658e-01 3.749637e-01 3.212556e-01 2.654036e-01 2.087094e-01 1.498234e-01 9.295821e-02 4.268546e-02 5.024610e-02 1.242788e-01 2.159620e-01 2.918770e-01 3.676322e-01 4.392804e-01 5.082345e-01 5.709925e-01 6.266384e-01 6.737191e-01 7.116592e-01 7.395747e-01 7.567692e-01 
7.518065e-01 7.452103e-01 7.262059e-01 6.957225e-01 6.547591e-01 6.043795e-01 5.456098e-01 4.799715e-01 4.092039e-01 3.364837e-01 2.617251e-01 1.865489e-01 9.905447e-02 4.035356e-02 5.016558e-02 1.025012e-01 1.574755e-01 2.141187e-01 2.700285e-01 3.257628e-01 3.804536e-01 4.334305e-01 4.837059e-01 5.300829e-01 5.717376e-01 6.078314e-01 6.381595e-01 6.626305e-01 6.816529e-01 6.956350e-01 7.051823e-01 7.106978e-01 7.125497e-01 7.107829e-01 7.053626e-01 6.959219e-01 6.820730e-01 6.632078e-01 6.389391e-01 6.088447e-01 5.730360e-01 5.316876e-01 4.856601e-01 4.357358e-01 3.831716e-01 3.288798e-01 2.736816e-01 2.181676e-01 1.620474e-01 1.063421e-01 5.287264e-02 3.814971e-02 9.260455e-02 1.800966e-01 2.586519e-01 3.347726e-01 4.089731e-01 4.804104e-01 5.465960e-01 6.055455e-01 6.559529e-01 6.967428e-01 7.269543e-01 7.455993e-01 
7.431053e-01 7.359774e-01 7.156077e-01 6.830267e-01 6.395199e-01 5.861682e-01 5.245077e-01 4.557569e-01 3.827782e-01 3.074705e-01 2.325342e-01 1.549054e-01 7.546046e-02 3.447276e-02 6.145342e-02 1.121531e-01 1.656350e-01 2.191297e-01 2.736728e-01 3.285796e-01 3.836940e-01 4.377730e-01 4.899314e-01 5.386545e-01 5.830491e-01 6.220729e-01 6.553933e-01 6.827539e-01 7.044078e-01 7.206252e-01 7.318678e-01 7.384553e-01 7.406653e-01 7.385444e-01 7.320522e-01 7.209130e-01 7.048157e-01 6.832934e-01 6.560875e-01 6.229272e-01 5.840834e-01 5.398545e-01 4.913105e-01 4.392990e-01 3.854035e-01 3.304317e-01 2.757621e-01 2.213348e-01 1.680576e-01 1.143376e-01 6.401719e-02 3.358449e-02 7.071468e-02 1.507848e-01 2.314307e-01 3.074380e-01 3.837751e-01 4.571919e-01 5.262604e-01 5.879517e-01 6.411859e-01 6.843967e-01 7.165863e-01 7.364826e-01 
7.366511e-01 7.291062e-01 7.076784e-01 6.734780e-01 6.280351e-01 5.724366e-01 5.086469e-01 4.376438e-01 3.631280e-01 2.861340e-01 2.111472e-01 1.327348e-01 6.049591e-02 3.306441e-02 7.023713e-02 1.180294e-01 1.693804e-01 2.203819e-01 2.738548e-01 3.281563e-01 3.837034e-01 4.387047e-01 4.924043e-01 5.429984e-01 5.895628e-01 6.308852e-01 6.665431e-01 6.961528e-01 7.198531e-01 7.378086e-01 7.503712e-01 7.577932e-01 7.602824e-01 7.578826e-01 7.505526e-01 7.380852e-01 7.202318e-01 6.966317e-01 6.671262e-01 6.315539e-01 5.903106e-01 5.437803e-01 4.932088e-01 4.394756e-01 3.844625e-01 3.288711e-01 2.746181e-01 2.211977e-01 1.703920e-01 1.193878e-01 7.223259e-02 3.339713e-02 5.725325e-02 1.300519e-01 2.105794e-01 2.867804e-01 3.646266e-01 4.396490e-01 5.108939e-01 5.746739e-01 6.300645e-01 6.751291e-01 7.088448e-01 7.297082e-01 
7.326623e-01 7.248518e-01 7.027514e-01 6.675245e-01 6.208662e-01 5.638681e-01 4.987735e-01 4.264287e-01 3.509749e-01 2.731094e-01 1.979696e-01 1.204454e-01 5.294638e-02 3.366605e-02 7.506426e-02 1.211918e-01 1.708200e-01 2.202521e-01 2.730028e-01 3.269230e-01 3.827491e-01 4.383378e-01 4.930256e-01 5.448101e-01 5.927591e-01 6.355430e-01 6.726898e-01 7.037303e-01 7.287341e-01 7.477963e-01 7.612004e-01 7.691542e-01 7.718217e-01 7.692423e-01 7.613761e-01 7.480586e-01 7.290826e-01 7.041531e-01 6.731775e-01 6.360601e-01 5.932804e-01 5.452711e-01 4.933983e-01 4.385557e-01 3.828301e-01 3.268647e-01 2.729217e-01 2.202981e-01 1.711834e-01 1.223079e-01 7.677512e-02 3.431961e-02 5.015461e-02 1.179716e-01 1.969962e-01 2.737218e-01 3.524643e-01 4.286178e-01 5.012275e-01 5.663414e-01 6.230975e-01 6.693405e-01 7.040296e-01 7.255119e-01 
7.313016e-01 7.233977e-01 7.010633e-01 6.654816e-01 6.184022e-01 5.609239e-01 4.953763e-01 4.225797e-01 3.467677e-01 2.685761e-01 1.932305e-01 1.162782e-01 5.053318e-02 3.409495e-02 7.687646e-02 1.224581e-01 1.713159e-01 2.201161e-01 2.725627e-01 3.263291e-01 3.822492e-01 4.380436e-01 4.930817e-01 5.452842e-01 5.937168e-01 6.370067e-01 6.746653e-01 7.061946e-01 7.316420e-01 7.510799e-01 7.647697e-01 7.729036e-01 7.756316e-01 7.729910e-01 7.649430e-01 7.513366e-01 7.319791e-01 7.065965e-01 6.751178e-01 6.374680e-01 5.941552e-01 5.456270e-01 4.932944e-01 4.380536e-01 3.820717e-01 3.259675e-01 2.721361e-01 2.198076e-01 1.713044e-01 1.232324e-01 7.822093e-02 3.480134e-02 4.785311e-02 1.138357e-01 1.921136e-01 2.691987e-01 3.482835e-01 4.248617e-01 4.979299e-01 5.635012e-01 6.207209e-01 6.673674e-01 7.023888e-01 7.240828e-01 
7.326623e-01 7.248518e-01 7.027514e-01 6.675245e-01 6.208662e-01 5.638681e-01 4.987735e-01 4.264287e-01 3.509749e-01 2.731094e-01 1.979696e-01 1.204454e-01 5.294638e-02 3.366605e-02 7.506426e-02 1.211918e-01 1.708200e-01 2.202521e-01 2.730028e-01 3.269230e-01 3.827491e-01 4.383378e-01 4.930256e-01 5.448101e-01 5.927591e-01 6.355430e-01 6.726898e-01 7.037303e-01 7.287341e-01 7.477963e-01 7.612004e-01 7.691542e-01 7.718217e-01 7.692423e-01 7.613761e-01 7.480586e-01 7.290826e-01 7.041531e-01 6.731775e-01 6.360601e-01 5.932804e-01 5.452711e-01 4.933983e-01 4.385557e-01 3.828301e-01 3.268647e-01 2.729217e-01 2.202981e-01 1.711834e-01 1.223079e-01 7.677512e-02 3.431961e-02 5.015461e-02 1.179716e-01 1.969962e-01 2.737218e-01 3.524643e-01 4.286178e-01 5.012275e-01 5.663414e-01 6.230975e-01 6.693405e-01 7.040296e-01 7.255119e-01 
7.366511e-01 7.291062e-01 7.076784e-01 6.734780e-01 6.280351e-01 5.724366e-01 5.086469e-01 4.376438e-01 3.631280e-01 2.861340e-01 2.111472e-01 1.327348e-01 6.049591e-02 3.306441e-02 7.023713e-02 1.180294e-01 1.693804e-01 2.203819e-01 2.738548e-01 3.281563e-01 3.837034e-01 4.387047e-01 4.924043e-01 5.429984e-01 5.895628e-01 6.308852e-01 6.665431e-01 6.961528e-01 7.198531e-01 7.378086e-01 7.503712e-01 7.577932e-01 7.602824e-01 7.578826e-01 7.505526e-01 7.380852e-01 7.202318e-01 6.966317e-01 6.671262e-01 6.315539e-01 5.903106e-01 5.437803e-01 4.932088e-01 4.394756e-01 3.844625e-01 3.288711e-01 2.746181e-01 2.211977e-01 1.703920e-01 1.193878e-01 7.223259e-02 3.339713e-02 5.725325e-02 1.300519e-01 2.105794e-01 2.867804e-01 3.646266e-01 4.396490e-01 5.108939e-01 5.746739e-01 6.300645e-01 6.751291e-01 7.088448e-01 7.297082e-01 