# vtk DataFile Version 2.0
Comment goes here
ASCII

DATASET STRUCTURED_POINTS
FIELD FieldData 1
TIME 1 1 double
0.61000000
DIMENSIONS    64   64   1

ORIGIN    0.000   0.000   0.000
SPACING   0.015625 0.015625   1.000

POINT_DATA   4096
SCALARS Concentration double
LOOKUP_TABLE default

9.989703e-01 9.989211e-01 9.987695e-01 9.985105e-01 9.981358e-01 9.976342e-01 9.969920e-01 9.961933e-01 9.952201e-01 9.940524e-01 9.926669e-01 9.910363e-01 9.891265e-01 9.868945e-01 9.842855e-01 9.812312e-01 9.776500e-01 9.734498e-01 9.685363e-01 9.628243e-01 9.562563e-01 9.488189e-01 9.405644e-01 9.316194e-01 9.221951e-01 9.125758e-01 9.031078e-01 8.941718e-01 8.861570e-01 8.794375e-01 8.743474e-01 8.711613e-01 8.700709e-01 8.711520e-01 8.743315e-01 8.794184e-01 8.861357e-01 8.941494e-01 9.030844e-01 9.125499e-01 9.221676e-01 9.315881e-01 9.405305e-01 9.487806e-01 9.562146e-01 9.627788e-01 9.684880e-01 9.733993e-01 9.775984e-01 9.811797e-01 9.842351e-01 9.868462e-01 9.890811e-01 9.909945e-01 9.926292e-01 9.940191e-01 9.951913e-01 9.961690e-01 9.969719e-01 9.976181e-01 9.981233e-01 9.985014e-01 9.987636e-01 9.989183e-01 
9.988980e-01 9.988458e-01 9.986847e-01 9.984096e-01 9.980120e-01 9.974802e-01 9.968000e-01 9.959552e-01 9.949275e-01 9.936965e-01 9.922389e-01 9.905272e-01 9.885271e-01 9.861947e-01 9.834739e-01 9.802933e-01 9.765682e-01 9.722014e-01 9.670921e-01 9.611467e-01 9.542992e-01 9.465274e-01 9.378769e-01 9.284706e-01 9.185218e-01 9.083242e-01 8.982414e-01 8.886811e-01 8.800654e-01 8.728087e-01 8.672864e-01 8.638162e-01 8.626251e-01 8.637992e-01 8.672557e-01 8.727713e-01 8.800234e-01 8.886379e-01 8.981981e-01 9.082800e-01 9.184783e-01 9.284255e-01 9.378313e-01 9.464792e-01 9.542490e-01 9.610937e-01 9.670371e-01 9.721449e-01 9.765111e-01 9.802368e-01 9.834188e-01 9.861421e-01 9.884776e-01 9.904818e-01 9.921980e-01 9.936604e-01 9.948962e-01 9.959288e-01 9.967782e-01 9.974627e-01 9.979985e-01 9.983999e-01 9.986784e-01 9.988427e-01 
9.986771e-01 9.986156e-01 9.984257e-01 9.981018e-01 9.976343e-01 9.970105e-01 9.962148e-01 9.952296e-01 9.940357e-01 9.926119e-01 9.909345e-01 9.889755e-01 9.866996e-01 9.840611e-01 9.809993e-01 9.774354e-01 9.732737e-01 9.684020e-01 9.626992e-01 9.560475e-01 9.483548e-01 9.395732e-01 9.297289e-01 9.189348e-01 9.074115e-01 8.954811e-01 8.835597e-01 8.721362e-01 8.617308e-01 8.528788e-01 8.460814e-01 8.417753e-01 8.402876e-01 8.417343e-01 8.460054e-01 8.527842e-01 8.616232e-01 8.720273e-01 8.834528e-01 8.953789e-01 9.073176e-01 9.188463e-01 9.296472e-01 9.394942e-01 9.482785e-01 9.559716e-01 9.626240e-01 9.683270e-01 9.731997e-01 9.773631e-01 9.809296e-01 9.839949e-01 9.866379e-01 9.889190e-01 9.908837e-01 9.925672e-01 9.939970e-01 9.951970e-01 9.961878e-01 9.969890e-01 9.976177e-01 9.980898e-01 9.984179e-01 9.986117e-01 
9.982935e-01 9.982160e-01 9.979766e-01 9.975689e-01 9.969814e-01 9.961994e-01 9.952050e-01 9.939787e-01 9.924992e-01 9.907444e-01 9.886896e-01 9.863063e-01 9.835577e-01 9.803946e-01 9.767495e-01 9.725304e-01 9.676237e-01 9.618907e-01 9.551770e-01 9.473238e-01 9.381967e-01 9.277063e-01 9.158483e-01 9.027213e-01 8.885598e-01 8.737351e-01 8.587524e-01 8.442378e-01 8.308759e-01 8.194072e-01 8.105339e-01 8.048768e-01 8.029114e-01 8.047936e-01 8.103771e-01 8.192106e-01 8.306509e-01 8.440116e-01 8.585315e-01 8.735288e-01 8.883754e-01 9.025555e-01 9.157025e-01 9.275728e-01 9.380743e-01 9.472075e-01 9.550660e-01 9.617833e-01 9.675200e-01 9.724307e-01 9.766544e-01 9.803049e-01 9.834744e-01 9.862303e-01 9.886214e-01 9.906844e-01 9.924475e-01 9.939351e-01 9.951691e-01 9.961707e-01 9.969593e-01 9.975529e-01 9.979663e-01 9.982109e-01 
9.977240e-01 9.976231e-01 9.973114e-01 9.967809e-01 9.960179e-01 9.950045e-01 9.937195e-01 9.921404e-01 9.902433e-01 9.880044e-01 9.853979e-01 9.823945e-01 9.789555e-01 9.750267e-01 9.705305e-01 9.653563e-01 9.593628e-01 9.523744e-01 9.441890e-01 9.345919e-01 9.233925e-01 9.104479e-01 8.957196e-01 8.792928e-01 8.614322e-01 8.425806e-01 8.233688e-01 8.046090e-01 7.871881e-01 7.721212e-01 7.603797e-01 7.528365e-01 7.502025e-01 7.526881e-01 7.600984e-01 7.717692e-01 7.867842e-01 8.042043e-01 8.229731e-01 8.422136e-01 8.611095e-01 8.790091e-01 8.954773e-01 9.102325e-01 9.232012e-01 9.344151e-01 9.440246e-01 9.522184e-01 9.592147e-01 9.652155e-01 9.703972e-01 9.749018e-01 9.788399e-01 9.822893e-01 9.853037e-01 9.879217e-01 9.901720e-01 9.920805e-01 9.936702e-01 9.949652e-01 9.959877e-01 9.967591e-01 9.972972e-01 9.976161e-01 
9.969370e-01 9.968044e-01 9.963947e-01 9.956980e-01 9.946970e-01 9.933700e-01 9.916912e-01 9.896340e-01 9.871710e-01 9.842764e-01 9.809230e-01 9.770805e-01 9.727075e-01 9.677431e-01 9.620958e-01 9.556297e-01 9.481666e-01 9.394818e-01 9.293137e-01 9.173781e-01 9.034198e-01 8.872376e-01 8.687614e-01 8.480725e-01 8.254799e-01 8.015202e-01 7.769765e-01 7.528896e-01 7.304022e-01 7.109089e-01 6.957066e-01 6.859233e-01 6.825055e-01 6.856893e-01 6.952584e-01 7.103480e-01 7.297547e-01 7.522416e-01 7.763384e-01 8.009283e-01 8.249660e-01 8.476271e-01 8.683878e-01 8.869105e-01 9.031338e-01 9.171175e-01 9.290748e-01 9.392581e-01 9.479566e-01 9.554317e-01 9.619094e-01 9.675691e-01 9.725470e-01 9.769346e-01 9.807925e-01 9.841620e-01 9.870725e-01 9.895511e-01 9.916231e-01 9.933157e-01 9.946553e-01 9.956678e-01 9.963752e-01 9.967948e-01 
9.958935e-01 9.957200e-01 9.951834e-01 9.942714e-01 9.929624e-01 9.912293e-01 9.890405e-01 9.863640e-01 9.831678e-01 9.794235e-01 9.751019e-01 9.701714e-01 9.645868e-01 9.582778e-01 9.511346e-01 9.429893e-01 9.336140e-01 9.227249e-01 9.099907e-01 8.950524e-01 8.775922e-01 8.573600e-01 8.342798e-01 8.084500e-01 7.802716e-01 7.503881e-01 7.197755e-01 6.897127e-01 6.614973e-01 6.369089e-01 6.175995e-01 6.050683e-01 6.006852e-01 6.047307e-01 6.169431e-01 6.360941e-01 6.605516e-01 6.887643e-01 7.188266e-01 7.495007e-01 7.795124e-01 8.077997e-01 8.337425e-01 8.568917e-01 8.771848e-01 8.946827e-01 9.096536e-01 9.224114e-01 9.333216e-01 9.427151e-01 9.508775e-01 9.580387e-01 9.643664e-01 9.699714e-01 9.749230e-01 9.792667e-01 9.830328e-01 9.862504e-01 9.889471e-01 9.911550e-01 9.929053e-01 9.942302e-01 9.951568e-01 9.957069e-01 
9.945485e-01 9.943238e-01 9.936285e-01 9.924469e-01 9.907520e-01 9.885102e-01 9.856822e-01 9.822296e-01 9.781143e-01 9.733044e-01 9.677682e-01 9.614719e-01 9.543648e-01 9.463641e-01 9.373359e-01 9.270715e-01 9.152857e-01 9.016250e-01 8.856893e-01 8.670495e-01 8.453474e-01 8.203146e-01 7.919106e-01 7.602961e-01 7.259820e-01 6.897266e-01 6.526682e-01 6.162599e-01 5.819958e-01 5.522484e-01 5.290353e-01 5.140185e-01 5.087865e-01 5.135791e-01 5.281658e-01 5.511666e-01 5.807188e-01 6.149698e-01 6.513506e-01 6.884862e-01 7.249455e-01 7.594207e-01 7.911945e-01 8.196852e-01 8.447945e-01 8.665441e-01 8.852272e-01 9.011962e-01 9.148868e-01 9.266988e-01 9.369876e-01 9.460410e-01 9.540672e-01 9.612020e-01 9.675267e-01 9.730927e-01 9.779319e-01 9.820763e-01 9.855562e-01 9.884098e-01 9.906749e-01 9.923912e-01 9.935925e-01 9.943062e-01 
9.928524e-01 9.925654e-01 9.916766e-01 9.901665e-01 9.880012e-01 9.851391e-01 9.815314e-01 9.771312e-01 9.718929e-01 9.657797e-01 9.587559e-01 9.507839e-01 9.418047e-01 9.317182e-01 9.203595e-01 9.074720e-01 8.927073e-01 8.756359e-01 8.557982e-01 8.327240e-01 8.060525e-01 7.755578e-01 7.413074e-01 7.035779e-01 6.630972e-01 6.207006e-01 5.778608e-01 5.362044e-01 4.968380e-01 4.622748e-01 4.347338e-01 4.164861e-01 4.100316e-01 4.159309e-01 4.336331e-01 4.609399e-01 4.952504e-01 5.345710e-01 5.761369e-01 6.190694e-01 6.617935e-01 7.024985e-01 7.404293e-01 7.747644e-01 8.053365e-01 8.320574e-01 8.551821e-01 8.750634e-01 8.921746e-01 9.069758e-01 9.198967e-01 9.312898e-01 9.414103e-01 9.504263e-01 9.584357e-01 9.654989e-01 9.716509e-01 9.769277e-01 9.813641e-01 9.850058e-01 9.878989e-01 9.900927e-01 9.916289e-01 9.925422e-01 
9.907521e-01 9.903912e-01 9.892723e-01 9.873715e-01 9.846467e-01 9.810467e-01 9.765107e-01 9.709820e-01 9.644044e-01 9.567354e-01 9.479325e-01 9.379526e-01 9.267241e-01 9.141241e-01 8.999499e-01 8.838898e-01 8.655353e-01 8.443838e-01 8.199475e-01 7.917534e-01 7.595123e-01 7.231081e-01 6.827999e-01 6.390702e-01 5.928380e-01 5.450237e-01 4.971942e-01 4.507695e-01 4.068987e-01 3.689877e-01 3.394006e-01 3.199672e-01 3.131331e-01 3.193537e-01 3.381607e-01 3.674644e-01 4.050007e-01 4.487810e-01 4.950796e-01 5.430734e-01 5.913932e-01 6.378995e-01 6.818275e-01 7.221695e-01 7.586190e-01 7.908972e-01 8.191432e-01 8.436343e-01 8.648371e-01 8.832415e-01 8.993465e-01 9.135668e-01 9.262112e-01 9.374876e-01 9.475158e-01 9.563697e-01 9.640890e-01 9.707166e-01 9.762925e-01 9.808729e-01 9.845134e-01 9.872754e-01 9.892102e-01 9.903609e-01 
9.881928e-01 9.877461e-01 9.863601e-01 9.840057e-01 9.806311e-01 9.761736e-01 9.705583e-01 9.637157e-01 9.555768e-01 9.460899e-01 9.352026e-01 9.228624e-01 9.089792e-01 8.934004e-01 8.758777e-01 8.560406e-01 8.334238e-01 8.074837e-01 7.777135e-01 7.437052e-01 7.052723e-01 6.624844e-01 6.158001e-01 5.659486e-01 5.141493e-01 4.610675e-01 4.093867e-01 3.613917e-01 3.169123e-01 2.780022e-01 2.461550e-01 2.237162e-01 2.153824e-01 2.229796e-01 2.447578e-01 2.763998e-01 3.148641e-01 3.591816e-01 4.070008e-01 4.589749e-01 5.127932e-01 5.648589e-01 6.148219e-01 6.614126e-01 7.041697e-01 7.426185e-01 7.766774e-01 8.065182e-01 8.325239e-01 8.552093e-01 8.751055e-01 8.926890e-01 9.083246e-01 9.222688e-01 9.346703e-01 9.456222e-01 9.551732e-01 9.633760e-01 9.702790e-01 9.759512e-01 9.804606e-01 9.838829e-01 9.862808e-01 9.877075e-01 
9.851174e-01 9.845735e-01 9.828843e-01 9.800151e-01 9.759029e-01 9.704720e-01 9.636306e-01 9.552941e-01 9.453764e-01 9.338141e-01 9.205397e-01 9.054869e-01 8.885402e-01 8.695105e-01 8.480966e-01 8.238670e-01 7.963084e-01 7.648537e-01 7.290408e-01 6.885203e-01 6.432577e-01 5.934458e-01 5.398090e-01 4.834082e-01 4.257822e-01 3.679370e-01 3.120215e-01 2.590331e-01 2.107876e-01 1.730885e-01 1.474394e-01 1.311159e-01 1.253196e-01 1.305003e-01 1.463178e-01 1.716753e-01 2.085421e-01 2.567176e-01 3.097621e-01 3.661615e-01 4.247955e-01 4.825161e-01 5.388116e-01 5.921491e-01 6.418331e-01 6.871114e-01 7.277011e-01 7.636196e-01 7.951654e-01 8.228187e-01 8.471259e-01 8.686185e-01 8.877197e-01 9.047429e-01 9.198718e-01 9.332270e-01 9.448694e-01 9.548673e-01 9.632797e-01 9.701928e-01 9.756889e-01 9.798611e-01 9.827850e-01 9.845252e-01 
9.814687e-01 9.808170e-01 9.787915e-01 9.753517e-01 9.704220e-01 9.639128e-01 9.557120e-01 9.457173e-01 9.338204e-01 9.199416e-01 9.039917e-01 8.858838e-01 8.654683e-01 8.425098e-01 8.166476e-01 7.873843e-01 7.541640e-01 7.164114e-01 6.737053e-01 6.257830e-01 5.726236e-01 5.145512e-01 4.521622e-01 3.871397e-01 3.210143e-01 2.528488e-01 1.897710e-01 1.388668e-01 1.016020e-01 7.756665e-02 6.433778e-02 5.708258e-02 5.469814e-02 5.672415e-02 6.383814e-02 7.708165e-02 1.000496e-01 1.370793e-01 1.878916e-01 2.513326e-01 3.201615e-01 3.861776e-01 4.508647e-01 5.127684e-01 5.706571e-01 6.239233e-01 6.719788e-01 7.148567e-01 7.527371e-01 7.860860e-01 8.154489e-01 8.414106e-01 8.644576e-01 8.849671e-01 9.031684e-01 9.192175e-01 9.331952e-01 9.451910e-01 9.552797e-01 9.635690e-01 9.701590e-01 9.751626e-01 9.786698e-01 9.807578e-01 
9.771849e-01 9.764161e-01 9.740254e-01 9.699668e-01 9.641516e-01 9.564753e-01 9.468032e-01 9.350123e-01 9.209663e-01 9.045640e-01 8.856857e-01 8.642177e-01 8.399646e-01 8.126397e-01 7.818118e-01 7.469202e-01 7.073693e-01 6.625888e-01 6.122160e-01 5.559875e-01 4.938738e-01 4.259171e-01 3.528988e-01 2.763792e-01 2.004434e-01 1.316800e-01 8.488129e-02 6.090263e-02 5.067472e-02 4.915708e-02 5.203030e-02 5.542940e-02 5.690863e-02 5.545378e-02 5.225776e-02 4.955338e-02 5.042402e-02 6.039901e-02 8.392551e-02 1.300074e-01 1.986866e-01 2.744989e-01 3.507142e-01 4.232606e-01 4.911129e-01 5.535559e-01 6.100409e-01 6.606723e-01 7.056252e-01 7.453416e-01 7.803578e-01 8.113081e-01 8.387405e-01 8.631071e-01 8.846881e-01 9.036866e-01 9.202090e-01 9.343753e-01 9.462807e-01 9.560604e-01 9.638349e-01 9.697396e-01 9.738795e-01 9.763453e-01 
9.722034e-01 9.713100e-01 9.685313e-01 9.638167e-01 9.570651e-01 9.481575e-01 9.369347e-01 9.232499e-01 9.069323e-01 8.878518e-01 8.658475e-01 8.407679e-01 8.123618e-01 7.802765e-01 7.440096e-01 7.029266e-01 6.564220e-01 6.039399e-01 5.452035e-01 4.799206e-01 4.079321e-01 3.293324e-01 2.451770e-01 1.613949e-01 9.558107e-02 6.056848e-02 5.345361e-02 6.332723e-02 7.973426e-02 9.311033e-02 1.009842e-01 1.052436e-01 1.067162e-01 1.054509e-01 1.015706e-01 9.384957e-02 8.052883e-02 6.411931e-02 5.380399e-02 5.998605e-02 9.397431e-02 1.586239e-01 2.419506e-01 3.257100e-01 4.043292e-01 4.769719e-01 5.426292e-01 6.016789e-01 6.543540e-01 7.010479e-01 7.422762e-01 7.786873e-01 8.109010e-01 8.394426e-01 8.646578e-01 8.868062e-01 9.060312e-01 9.224933e-01 9.363155e-01 9.476671e-01 9.566919e-01 9.635497e-01 9.683603e-01 9.712273e-01 
9.664517e-01 9.654278e-01 9.622435e-01 9.568464e-01 9.491245e-01 9.389467e-01 9.261284e-01 9.104972e-01 8.918401e-01 8.699907e-01 8.447321e-01 8.158669e-01 7.830700e-01 7.459237e-01 7.038420e-01 6.561496e-01 6.022389e-01 5.416484e-01 4.741474e-01 3.993802e-01 3.170981e-01 2.278332e-01 1.390598e-01 7.463625e-02 5.437401e-02 6.726489e-02 9.474048e-02 1.185429e-01 1.371043e-01 1.494444e-01 1.564079e-01 1.600807e-01 1.612790e-01 1.603464e-01 1.570566e-01 1.501005e-01 1.380102e-01 1.196386e-01 9.568902e-02 6.812705e-02 5.440267e-02 7.300763e-02 1.358155e-01 2.236835e-01 3.130749e-01 3.961975e-01 4.713355e-01 5.390983e-01 5.998582e-01 6.539583e-01 7.018102e-01 7.440555e-01 7.813526e-01 8.143089e-01 8.433357e-01 8.687654e-01 8.907868e-01 9.096151e-01 9.254089e-01 9.383788e-01 9.486939e-01 9.565395e-01 9.620476e-01 9.653333e-01 
9.598572e-01 9.586981e-01 9.550964e-01 9.490016e-01 9.402951e-01 9.288385e-01 9.144233e-01 8.968510e-01 8.758588e-01 8.512341e-01 8.226877e-01 7.899602e-01 7.526385e-01 7.102247e-01 6.620677e-01 6.074464e-01 5.458457e-01 4.768600e-01 4.003417e-01 3.155947e-01 2.229537e-01 1.299869e-01 6.638016e-02 5.579735e-02 8.463861e-02 1.246841e-01 1.586875e-01 1.827397e-01 1.998653e-01 2.097621e-01 2.143901e-01 2.162430e-01 2.167743e-01 2.164692e-01 2.149088e-01 2.103040e-01 2.006828e-01 1.836125e-01 1.593871e-01 1.257568e-01 8.590320e-02 5.625679e-02 6.495257e-02 1.263648e-01 2.191493e-01 3.124802e-01 3.974264e-01 4.740448e-01 5.431444e-01 6.049164e-01 6.597090e-01 7.080493e-01 7.506413e-01 7.881512e-01 8.210716e-01 8.498207e-01 8.746487e-01 8.958419e-01 9.136040e-01 9.281949e-01 9.398094e-01 9.486571e-01 9.548775e-01 9.585929e-01 
9.523344e-01 9.510359e-01 9.470065e-01 9.402038e-01 9.305095e-01 9.177861e-01 9.018050e-01 8.823432e-01 8.590800e-01 8.317470e-01 7.999602e-01 7.633849e-01 7.214937e-01 6.737179e-01 6.193394e-01 5.576752e-01 4.883198e-01 4.110704e-01 3.255361e-01 2.311296e-01 1.330638e-01 6.413304e-02 5.707297e-02 9.656186e-02 1.471919e-01 1.921818e-01 2.264207e-01 2.487923e-01 2.628718e-01 2.700665e-01 2.729574e-01 2.737232e-01 2.738904e-01 2.738918e-01 2.733277e-01 2.704595e-01 2.634354e-01 2.494183e-01 2.270689e-01 1.932281e-01 1.486949e-01 9.836250e-02 5.789948e-02 6.259491e-02 1.297923e-01 2.278418e-01 3.222325e-01 4.078513e-01 4.852314e-01 5.547676e-01 6.166256e-01 6.712117e-01 7.191981e-01 7.613116e-01 7.981161e-01 8.301416e-01 8.577131e-01 8.812096e-01 9.008903e-01 9.170719e-01 9.299740e-01 9.398262e-01 9.467678e-01 9.509216e-01 
9.438089e-01 9.423655e-01 9.378974e-01 9.303786e-01 9.197013e-01 9.057418e-01 8.882592e-01 8.670114e-01 8.416129e-01 8.117297e-01 7.768569e-01 7.365667e-01 6.901891e-01 6.370797e-01 5.764932e-01 5.077994e-01 4.309181e-01 3.456916e-01 2.512441e-01 1.498907e-01 6.939226e-02 5.421568e-02 9.764658e-02 1.578968e-01 2.139289e-01 2.592828e-01 2.923329e-01 3.134459e-01 3.257581e-01 3.313039e-01 3.329693e-01 3.328988e-01 3.327807e-01 3.330092e-01 3.332067e-01 3.315690e-01 3.261430e-01 3.139259e-01 2.929331e-01 2.602972e-01 2.154508e-01 1.599411e-01 9.961780e-02 5.504349e-02 6.755921e-02 1.462957e-01 2.472341e-01 3.419704e-01 4.273837e-01 5.044620e-01 5.733781e-01 6.342044e-01 6.875686e-01 7.342130e-01 7.747783e-01 8.099329e-01 8.400949e-01 8.657622e-01 8.872595e-01 9.049675e-01 9.191256e-01 9.299758e-01 9.376447e-01 9.422451e-01 
9.342026e-01 9.326054e-01 9.276784e-01 9.194231e-01 9.077567e-01 8.925866e-01 8.736723e-01 8.507601e-01 8.233944e-01 7.911629e-01 7.534108e-01 7.095948e-01 6.588665e-01 6.005196e-01 5.338053e-01 4.582613e-01 3.743271e-01 2.817525e-01 1.788457e-01 8.512000e-02 5.029060e-02 8.951099e-02 1.560335e-01 2.214590e-01 2.783019e-01 3.232885e-01 3.555207e-01 3.758674e-01 3.872796e-01 3.921508e-01 3.934257e-01 3.931368e-01 3.929510e-01 3.932047e-01 3.935692e-01 3.923207e-01 3.875373e-01 3.762486e-01 3.560910e-01 3.242440e-01 2.796985e-01 2.233250e-01 1.581488e-01 9.167160e-02 5.052730e-02 8.230715e-02 1.747120e-01 2.777715e-01 3.705121e-01 4.545468e-01 5.302935e-01 5.972601e-01 6.559025e-01 7.069488e-01 7.510937e-01 7.891788e-01 8.217351e-01 8.494091e-01 8.726031e-01 8.917680e-01 9.071551e-01 9.190066e-01 9.274195e-01 9.324829e-01 
9.234788e-01 9.217130e-01 9.162926e-01 9.072603e-01 8.945778e-01 8.782072e-01 8.579270e-01 8.334877e-01 8.043594e-01 7.700464e-01 7.297064e-01 6.826768e-01 6.278686e-01 5.645666e-01 4.920013e-01 4.099202e-01 3.199498e-01 2.199872e-01 1.166034e-01 5.240894e-02 7.111128e-02 1.398624e-01 2.132045e-01 2.807136e-01 3.378430e-01 3.825898e-01 4.146869e-01 4.353119e-01 4.470650e-01 4.523545e-01 4.540036e-01 4.539592e-01 4.538583e-01 4.540016e-01 4.540946e-01 4.524799e-01 4.472768e-01 4.356746e-01 4.152829e-01 3.835722e-01 3.392855e-01 2.826438e-01 2.155983e-01 1.426989e-01 7.333804e-02 5.160757e-02 1.130479e-01 2.156567e-01 3.158491e-01 4.057877e-01 4.880484e-01 5.608774e-01 6.245266e-01 6.797205e-01 7.271487e-01 7.678854e-01 8.025783e-01 8.320593e-01 8.568144e-01 8.773688e-01 8.939717e-01 9.068471e-01 9.160392e-01 9.215943e-01 
9.116244e-01 9.096659e-01 9.036916e-01 8.938021e-01 8.800277e-01 8.624147e-01 8.407871e-01 8.149186e-01 7.842044e-01 7.480595e-01 7.054177e-01 6.554941e-01 5.969040e-01 5.289907e-01 4.508862e-01 3.627727e-01 2.673870e-01 1.612753e-01 7.187768e-02 5.340619e-02 1.127531e-01 1.900403e-01 2.655816e-01 3.335561e-01 3.909101e-01 4.360264e-01 4.689643e-01 4.908037e-01 5.038735e-01 5.104302e-01 5.131201e-01 5.137553e-01 5.138923e-01 5.137896e-01 5.131960e-01 5.105573e-01 5.041027e-01 4.912171e-01 4.696543e-01 4.371285e-01 3.924979e-01 3.356813e-01 2.682321e-01 1.930749e-01 1.157526e-01 5.466160e-02 6.952771e-02 1.570545e-01 2.629993e-01 3.582808e-01 4.464469e-01 5.248209e-01 5.931253e-01 6.521904e-01 7.026050e-01 7.457275e-01 7.823219e-01 8.134423e-01 8.396643e-01 8.615891e-01 8.794452e-01 8.934139e-01 9.034583e-01 9.095579e-01 
8.987170e-01 8.965298e-01 8.899081e-01 8.790308e-01 8.640258e-01 8.450600e-01 8.220367e-01 7.947836e-01 7.626353e-01 7.249208e-01 6.803268e-01 6.279557e-01 5.660489e-01 4.943252e-01 4.112814e-01 3.192174e-01 2.181378e-01 1.136317e-01 5.097300e-02 7.760590e-02 1.560397e-01 2.356533e-01 3.115559e-01 3.794360e-01 4.370946e-01 4.832060e-01 5.177582e-01 5.416603e-01 5.568634e-01 5.653968e-01 5.696526e-01 5.712999e-01 5.717866e-01 5.713383e-01 5.697399e-01 5.655572e-01 5.571497e-01 5.421596e-01 5.185654e-01 4.844418e-01 4.388246e-01 3.817107e-01 3.142939e-01 2.387986e-01 1.591982e-01 8.019956e-02 5.013662e-02 1.099031e-01 2.134655e-01 3.144517e-01 4.063162e-01 4.896233e-01 5.618111e-01 6.243154e-01 6.772946e-01 7.224683e-01 7.607091e-01 7.933156e-01 8.209557e-01 8.442917e-01 8.635034e-01 8.786945e-01 8.897117e-01 8.964398e-01 
8.848955e-01 8.824257e-01 8.750221e-01 8.629612e-01 8.465038e-01 8.259757e-01 8.014080e-01 7.727161e-01 7.392056e-01 7.001202e-01 6.539053e-01 5.995350e-01 5.348995e-01 4.601509e-01 3.731600e-01 2.787925e-01 1.734290e-01 7.889555e-02 5.109879e-02 1.101642e-01 1.924125e-01 2.733717e-01 3.486856e-01 4.168779e-01 4.753322e-01 5.231818e-01 5.600868e-01 5.867271e-01 6.046816e-01 6.156988e-01 6.219091e-01 6.248134e-01 6.257367e-01 6.248658e-01 6.220274e-01 6.159154e-01 6.050518e-01 5.873378e-01 5.610338e-01 5.245745e-01 4.772367e-01 4.193359e-01 3.516025e-01 2.767046e-01 1.956756e-01 1.134760e-01 5.208305e-02 7.609564e-02 1.687401e-01 2.736796e-01 3.675653e-01 4.548064e-01 5.301587e-01 5.955636e-01 6.507028e-01 6.976184e-01 7.373176e-01 7.713390e-01 8.004457e-01 8.253315e-01 8.460957e-01 8.627174e-01 8.748897e-01 8.823676e-01 
8.704348e-01 8.676159e-01 8.592610e-01 8.457633e-01 8.275532e-01 8.051552e-01 7.787862e-01 7.484908e-01 7.136020e-01 6.732848e-01 6.258025e-01 5.699409e-01 5.034348e-01 4.265815e-01 3.374145e-01 2.417237e-01 1.354644e-01 5.771002e-02 6.465150e-02 1.414333e-01 2.222508e-01 3.031340e-01 3.777005e-01 4.462115e-01 5.058951e-01 5.559235e-01 5.956797e-01 6.255114e-01 6.466315e-01 6.604777e-01 6.689004e-01 6.732265e-01 6.746400e-01 6.732957e-01 6.690544e-01 6.607515e-01 6.470802e-01 6.262155e-01 5.967315e-01 5.574177e-01 5.078998e-01 4.487469e-01 3.806894e-01 3.064606e-01 2.256109e-01 1.449870e-01 6.708556e-02 5.628600e-02 1.310274e-01 2.359292e-01 3.310748e-01 4.205921e-01 4.983020e-01 5.657829e-01 6.225895e-01 6.708879e-01 7.118951e-01 7.473307e-01 7.780499e-01 8.047223e-01 8.273271e-01 8.456613e-01 8.592250e-01 8.676061e-01 
8.556905e-01 8.524468e-01 8.429451e-01 8.277108e-01 8.073788e-01 7.827090e-01 7.541664e-01 7.219735e-01 6.855669e-01 6.440620e-01 5.956253e-01 5.388130e-01 4.713891e-01 3.934650e-01 3.040198e-01 2.082491e-01 1.060880e-01 4.897713e-02 8.278291e-02 1.654185e-01 2.447508e-01 3.240691e-01 3.981832e-01 4.672150e-01 5.285758e-01 5.811762e-01 6.241421e-01 6.574591e-01 6.819879e-01 6.988523e-01 7.096260e-01 7.154584e-01 7.173897e-01 7.155444e-01 7.098137e-01 6.991755e-01 6.824984e-01 6.582282e-01 6.252570e-01 5.827243e-01 5.306418e-01 4.698348e-01 4.013592e-01 3.276757e-01 2.486824e-01 1.693235e-01 8.607439e-02 4.845851e-02 1.015939e-01 2.014066e-01 2.970571e-01 3.870994e-01 4.661921e-01 5.347652e-01 5.926648e-01 6.419931e-01 6.842292e-01 7.211859e-01 7.537819e-01 7.825866e-01 8.074095e-01 8.278043e-01 8.430400e-01 8.525026e-01 
8.411522e-01 8.374086e-01 8.265641e-01 8.092874e-01 7.864443e-01 7.590579e-01 7.279001e-01 6.934182e-01 6.552475e-01 6.124917e-01 5.633448e-01 5.060643e-01 4.386210e-01 3.604258e-01 2.719554e-01 1.762002e-01 8.287459e-02 4.858226e-02 1.010559e-01 1.821240e-01 2.604990e-01 3.376917e-01 4.115125e-01 4.811180e-01 5.443529e-01 5.996441e-01 6.459317e-01 6.828008e-01 7.107865e-01 7.307010e-01 7.438449e-01 7.511957e-01 7.536445e-01 7.512929e-01 7.440537e-01 7.310496e-01 7.113190e-01 6.835737e-01 6.470193e-01 6.011209e-01 5.463092e-01 4.836124e-01 4.146165e-01 3.413327e-01 2.646686e-01 1.862362e-01 1.049212e-01 4.905941e-02 7.891739e-02 1.697887e-01 2.657940e-01 3.548725e-01 4.342148e-01 5.027435e-01 5.610794e-01 6.110784e-01 6.545251e-01 6.931906e-01 7.280092e-01 7.593520e-01 7.868089e-01 8.096298e-01 8.268239e-01 8.375465e-01 
8.273606e-01 8.230567e-01 8.107115e-01 7.911388e-01 7.654492e-01 7.349412e-01 7.007374e-01 6.635541e-01 6.233223e-01 5.792132e-01 5.295821e-01 4.724481e-01 4.060256e-01 3.289647e-01 2.427794e-01 1.485878e-01 6.591759e-02 5.233267e-02 1.153348e-01 1.922606e-01 2.693498e-01 3.446186e-01 4.183807e-01 4.887390e-01 5.539744e-01 6.119825e-01 6.615515e-01 7.018833e-01 7.332151e-01 7.560710e-01 7.714945e-01 7.803032e-01 7.832449e-01 7.804053e-01 7.717098e-01 7.564191e-01 7.337269e-01 7.025944e-01 6.625117e-01 6.132378e-01 5.555899e-01 4.907595e-01 4.208735e-01 3.475411e-01 2.726966e-01 1.956471e-01 1.188525e-01 5.376111e-02 6.331824e-02 1.439860e-01 2.384890e-01 3.251610e-01 4.031093e-01 4.703999e-01 5.284114e-01 5.787560e-01 6.234366e-01 6.640517e-01 7.014615e-01 7.357405e-01 7.662105e-01 7.917733e-01 8.111632e-01 8.232902e-01 
8.149248e-01 8.100335e-01 7.961153e-01 7.741226e-01 7.454059e-01 7.115314e-01 6.739879e-01 6.337860e-01 5.912246e-01 5.456350e-01 4.956437e-01 4.391760e-01 3.746227e-01 3.001420e-01 2.173676e-01 1.268998e-01 5.466971e-02 5.708654e-02 1.245508e-01 1.976113e-01 2.728732e-01 3.467627e-01 4.206348e-01 4.918654e-01 5.590243e-01 6.195525e-01 6.721322e-01 7.156154e-01 7.499896e-01 7.755164e-01 7.930092e-01 8.031409e-01 8.065265e-01 8.032404e-01 7.932147e-01 7.758362e-01 7.504379e-01 7.162022e-01 6.728744e-01 6.204592e-01 5.601180e-01 4.931661e-01 4.221845e-01 3.485752e-01 2.749734e-01 1.999256e-01 1.271970e-01 5.883665e-02 5.326236e-02 1.237942e-01 2.147464e-01 2.981416e-01 3.733846e-01 4.386426e-01 4.957883e-01 5.463175e-01 5.923134e-01 6.351099e-01 6.753974e-01 7.128848e-01 7.465963e-01 7.750702e-01 7.967715e-01 8.103688e-01 
8.044359e-01 7.989820e-01 7.835568e-01 7.592340e-01 7.275783e-01 6.903934e-01 6.495116e-01 6.062347e-01 5.612555e-01 5.141371e-01 4.638410e-01 4.083276e-01 3.460664e-01 2.749251e-01 1.960520e-01 1.103232e-01 4.774893e-02 6.138622e-02 1.298096e-01 2.000124e-01 2.731778e-01 3.459866e-01 4.199387e-01 4.919840e-01 5.608246e-01 6.235274e-01 6.786902e-01 7.248623e-01 7.618283e-01 7.896267e-01 8.088778e-01 8.201323e-01 8.238920e-01 8.202250e-01 8.090644e-01 7.899039e-01 7.621928e-01 7.252980e-01 6.791802e-01 6.240425e-01 5.613419e-01 4.924971e-01 4.204654e-01 3.466058e-01 2.739745e-01 2.011761e-01 1.314344e-01 6.290038e-02 4.700979e-02 1.082667e-01 1.948097e-01 2.745515e-01 3.464359e-01 4.093033e-01 4.653165e-01 5.159781e-01 5.633278e-01 6.083860e-01 6.516004e-01 6.922917e-01 7.291880e-01 7.604865e-01 7.844115e-01 7.994161e-01 
7.964519e-01 7.905232e-01 7.738258e-01 7.475287e-01 7.133655e-01 6.733280e-01 6.295289e-01 5.835207e-01 5.363448e-01 4.878175e-01 4.372135e-01 3.826223e-01 3.224830e-01 2.545677e-01 1.792709e-01 9.821747e-02 4.372189e-02 6.461011e-02 1.324141e-01 2.008219e-01 2.722061e-01 3.442539e-01 4.182128e-01 4.908937e-01 5.610011e-01 6.253497e-01 6.824683e-01 7.306754e-01 7.696076e-01 7.991301e-01 8.197177e-01 8.318257e-01 8.358685e-01 8.319093e-01 8.198814e-01 7.993602e-01 7.698856e-01 7.309632e-01 6.827202e-01 6.255059e-01 5.610021e-01 4.907153e-01 4.178532e-01 3.438417e-01 2.718656e-01 2.009070e-01 1.330618e-01 6.573052e-02 4.324057e-02 9.676564e-02 1.789563e-01 2.553696e-01 3.240854e-01 3.848092e-01 4.397878e-01 4.906312e-01 5.392477e-01 5.863723e-01 6.321917e-01 6.756860e-01 7.153279e-01 7.490369e-01 7.748468e-01 7.910401e-01 
7.914297e-01 7.851813e-01 7.676275e-01 7.399982e-01 7.041354e-01 6.621515e-01 6.163438e-01 5.684347e-01 5.197073e-01 4.701728e-01 4.193342e-01 3.654072e-01 3.067782e-01 2.411957e-01 1.684429e-01 9.075864e-02 4.149356e-02 6.637584e-02 1.334228e-01 2.008922e-01 2.710831e-01 3.426491e-01 4.165645e-01 4.896378e-01 5.605372e-01 6.259244e-01 6.842817e-01 7.337768e-01 7.739544e-01 8.045682e-01 8.260018e-01 8.386497e-01 8.428706e-01 8.387265e-01 8.261489e-01 8.047651e-01 7.741723e-01 7.339635e-01 6.843734e-01 6.258429e-01 5.602012e-01 4.890168e-01 4.156471e-01 3.416025e-01 2.700535e-01 2.003409e-01 1.335136e-01 6.730725e-02 4.114318e-02 8.959392e-02 1.686074e-01 2.426829e-01 3.091464e-01 3.683799e-01 4.226374e-01 4.736414e-01 5.231738e-01 5.717639e-01 6.193987e-01 6.648240e-01 7.063390e-01 7.416816e-01 7.687625e-01 7.857551e-01 
7.896973e-01 7.833340e-01 7.654720e-01 7.373635e-01 7.008884e-01 6.582035e-01 6.116701e-01 5.630736e-01 5.137794e-01 4.638732e-01 4.129327e-01 3.592286e-01 3.011144e-01 2.363474e-01 1.644953e-01 8.810235e-02 4.082681e-02 6.709856e-02 1.338309e-01 2.009828e-01 2.707316e-01 3.421218e-01 4.160034e-01 4.892019e-01 5.603576e-01 6.260875e-01 6.848548e-01 7.347787e-01 7.753728e-01 8.063532e-01 8.280718e-01 8.409022e-01 8.451834e-01 8.409761e-01 8.282117e-01 8.065361e-01 7.755661e-01 7.349253e-01 6.848842e-01 6.259150e-01 5.598946e-01 4.884152e-01 4.148784e-01 3.408379e-01 2.694422e-01 2.001856e-01 1.337009e-01 6.794086e-02 4.050157e-02 8.699261e-02 1.647621e-01 2.380266e-01 3.037184e-01 3.624569e-01 4.164799e-01 4.675646e-01 5.174398e-01 5.665682e-01 6.148614e-01 6.609854e-01 7.031759e-01 7.391077e-01 7.666464e-01 7.839273e-01 
7.914297e-01 7.851813e-01 7.676275e-01 7.399982e-01 7.041354e-01 6.621515e-01 6.163438e-01 5.684347e-01 5.197073e-01 4.701728e-01 4.193342e-01 3.654072e-01 3.067782e-01 2.411957e-01 1.684429e-01 9.075864e-02 4.149356e-02 6.637584e-02 1.334228e-01 2.008922e-01 2.710831e-01 3.426491e-01 4.165645e-01 4.896378e-01 5.605372e-01 6.259244e-01 6.842817e-01 7.337768e-01 7.739544e-01 8.045682e-01 8.260018e-01 8.386497e-01 8.428706e-01 8.387265e-01 8.261489e-01 8.047651e-01 7.741723e-01 7.339635e-01 6.843734e-01 6.258429e-01 5.602012e-01 4.890168e-01 4.156471e-01 3.416025e-01 2.700535e-01 2.003409e-01 1.335136e-01 6.730725e-02 4.114318e-02 8.959392e-02 1.686074e-01 2.426829e-01 3.091464e-01 3.683799e-01 4.226374e-01 4.736414e-01 5.231738e-01 5.717639e-01 6.193987e-01 6.648240e-01 7.063390e-01 7.416816e-01 7.687625e-01 7.857551e-01 
7.964519e-01 7.905232e-01 7.738258e-01 7.475287e-01 7.133655e-01 6.733280e-01 6.295289e-01 5.835207e-01 5.363448e-01 4.878175e-01 4.372135e-01 3.826223e-01 3.224830e-01 2.545677e-01 1.792709e-01 9.821747e-02 4.372189e-02 6.461011e-02 1.324141e-01 2.008219e-01 2.722061e-01 3.442539e-01 4.182128e-01 4.908937e-01 5.610011e-01 6.253497e-01 6.824683e-01 7.306754e-01 7.696076e-01 7.991301e-01 8.197177e-01 8.318257e-01 8.358685e-01 8.319093e-01 8.198814e-01 7.993602e-01 7.698856e-01 7.309632e-01 6.827202e-01 6.255059e-01 5.610021e-01 4.907153e-01 4.178532e-01 3.438417e-01 2.718656e-01 2.009070e-01 1.330618e-01 6.573052e-02 4.324057e-02 9.676564e-02 1.789563e-01 2.553696e-01 3.240854e-01 3.848092e-01 4.397878e-01 4.906312e-01 5.392477e-01 5.863723e-01 6.321917e-01 6.756860e-01 7.153279e-01 7.490369e-01 7.748468e-01 7.910401e-01 