# vtk DataFile Version 2.0
Comment goes here
ASCII

DATASET STRUCTURED_POINTS
FIELD FieldData 1
TIME 1 1 double
0.43000000
DIMENSIONS    64   64   1

ORIGIN    0.000   0.000   0.000
SPACING   0.015625 0.015625   1.000

POINT_DATA   4096
SCALARS Concentration double
LOOKUP_TABLE default

9.999205e-01 9.999138e-01 9.998933e-01 9.998574e-01 9.998033e-01 9.997272e-01 9.996245e-01 9.994897e-01 9.993164e-01 9.990977e-01 9.988258e-01 9.984925e-01 9.980883e-01 9.976024e-01 9.970216e-01 9.963289e-01 9.955006e-01 9.945035e-01 9.932923e-01 9.918077e-01 9.899748e-01 9.877008e-01 9.848787e-01 9.813942e-01 9.771481e-01 9.720871e-01 9.662557e-01 9.598461e-01 9.532398e-01 9.470022e-01 9.418182e-01 9.383639e-01 9.371461e-01 9.383596e-01 9.418103e-01 9.469911e-01 9.532274e-01 9.598335e-01 9.662444e-01 9.720773e-01 9.771399e-01 9.813873e-01 9.848726e-01 9.876951e-01 9.899691e-01 9.918019e-01 9.932864e-01 9.944977e-01 9.954950e-01 9.963235e-01 9.970167e-01 9.975979e-01 9.980844e-01 9.984891e-01 9.988230e-01 9.990953e-01 9.993145e-01 9.994882e-01 9.996234e-01 9.997264e-01 9.998026e-01 9.998570e-01 9.998931e-01 9.999137e-01 
9.999067e-01 9.998990e-01 9.998752e-01 9.998336e-01 9.997711e-01 9.996835e-01 9.995657e-01 9.994114e-01 9.992140e-01 9.989658e-01 9.986589e-01 9.982846e-01 9.978335e-01 9.972948e-01 9.966555e-01 9.958986e-01 9.950005e-01 9.939259e-01 9.926284e-01 9.910468e-01 9.891034e-01 9.867009e-01 9.837264e-01 9.800564e-01 9.755807e-01 9.702332e-01 9.640480e-01 9.572159e-01 9.501343e-01 9.434096e-01 9.377916e-01 9.340334e-01 9.327056e-01 9.340284e-01 9.377823e-01 9.433966e-01 9.501200e-01 9.572014e-01 9.640350e-01 9.702220e-01 9.755714e-01 9.800486e-01 9.837193e-01 9.866942e-01 9.890966e-01 9.910399e-01 9.926214e-01 9.939190e-01 9.949937e-01 9.958921e-01 9.966495e-01 9.972894e-01 9.978288e-01 9.982806e-01 9.986555e-01 9.989630e-01 9.992117e-01 9.994096e-01 9.995643e-01 9.996825e-01 9.997704e-01 9.998331e-01 9.998749e-01 9.998988e-01 
9.998625e-01 9.998514e-01 9.998174e-01 9.997579e-01 9.996690e-01 9.995450e-01 9.993792e-01 9.991637e-01 9.988901e-01 9.985494e-01 9.981323e-01 9.976293e-01 9.970308e-01 9.963263e-01 9.955035e-01 9.945463e-01 9.934308e-01 9.921183e-01 9.905585e-01 9.886850e-01 9.864127e-01 9.836320e-01 9.802117e-01 9.760022e-01 9.708585e-01 9.646753e-01 9.574531e-01 9.493743e-01 9.408798e-01 9.326965e-01 9.257706e-01 9.210924e-01 9.194305e-01 9.210850e-01 9.257570e-01 9.326777e-01 9.408594e-01 9.493538e-01 9.574350e-01 9.646598e-01 9.708457e-01 9.759913e-01 9.802018e-01 9.836223e-01 9.864027e-01 9.886746e-01 9.905477e-01 9.921075e-01 9.934202e-01 9.945363e-01 9.954942e-01 9.963179e-01 9.970235e-01 9.976230e-01 9.981270e-01 9.985450e-01 9.988866e-01 9.991610e-01 9.993771e-01 9.995434e-01 9.996678e-01 9.997571e-01 9.998169e-01 9.998512e-01 
9.997792e-01 9.997619e-01 9.997088e-01 9.996162e-01 9.994784e-01 9.992872e-01 9.990329e-01 9.987049e-01 9.982914e-01 9.977810e-01 9.971623e-01 9.964245e-01 9.955576e-01 9.945520e-01 9.933977e-01 9.920804e-01 9.905779e-01 9.888471e-01 9.868339e-01 9.844653e-01 9.816457e-01 9.782474e-01 9.741109e-01 9.690433e-01 9.628419e-01 9.553331e-01 9.464544e-01 9.363653e-01 9.255669e-01 9.149793e-01 9.058766e-01 8.996559e-01 8.974312e-01 8.996440e-01 9.058553e-01 9.149501e-01 9.255357e-01 9.363343e-01 9.464276e-01 9.553103e-01 9.628233e-01 9.690271e-01 9.740957e-01 9.782321e-01 9.816295e-01 9.844481e-01 9.868161e-01 9.888291e-01 9.905601e-01 9.920635e-01 9.933819e-01 9.945379e-01 9.955452e-01 9.964138e-01 9.971533e-01 9.977737e-01 9.982855e-01 9.987002e-01 9.990293e-01 9.992845e-01 9.994764e-01 9.996149e-01 9.997080e-01 9.997616e-01 
9.996417e-01 9.996143e-01 9.995303e-01 9.993844e-01 9.991676e-01 9.988683e-01 9.984721e-01 9.979638e-01 9.973270e-01 9.965462e-01 9.956067e-01 9.944963e-01 9.932047e-01 9.917246e-01 9.900500e-01 9.881725e-01 9.860747e-01 9.837115e-01 9.810273e-01 9.779440e-01 9.743573e-01 9.701174e-01 9.650294e-01 9.588423e-01 9.512726e-01 9.420474e-01 9.310071e-01 9.182627e-01 9.043784e-01 8.905252e-01 8.784281e-01 8.700649e-01 8.670538e-01 8.700463e-01 8.783950e-01 8.904801e-01 9.043309e-01 9.182160e-01 9.309674e-01 9.420140e-01 9.512455e-01 9.588182e-01 9.650062e-01 9.700930e-01 9.743308e-01 9.779156e-01 9.809973e-01 9.836812e-01 9.860446e-01 9.881439e-01 9.900234e-01 9.917007e-01 9.931837e-01 9.944782e-01 9.955916e-01 9.965337e-01 9.973170e-01 9.979559e-01 9.984661e-01 9.988637e-01 9.991644e-01 9.993821e-01 9.995289e-01 9.996137e-01 
9.994280e-01 9.993854e-01 9.992546e-01 9.990277e-01 9.986918e-01 9.982292e-01 9.976194e-01 9.968400e-01 9.958682e-01 9.946824e-01 9.932637e-01 9.915971e-01 9.896733e-01 9.874888e-01 9.850460e-01 9.823477e-01 9.793892e-01 9.761295e-01 9.725183e-01 9.684796e-01 9.639053e-01 9.586252e-01 9.524052e-01 9.449239e-01 9.357961e-01 9.246186e-01 9.110949e-01 8.952508e-01 8.776944e-01 8.598804e-01 8.440866e-01 8.330394e-01 8.290339e-01 8.330113e-01 8.440365e-01 8.598127e-01 8.776241e-01 8.951824e-01 9.110379e-01 9.245711e-01 9.357579e-01 9.448890e-01 9.523702e-01 9.585870e-01 9.638627e-01 9.684333e-01 9.724691e-01 9.760795e-01 9.793394e-01 9.823003e-01 9.850019e-01 9.874492e-01 9.896385e-01 9.915673e-01 9.932387e-01 9.946619e-01 9.958517e-01 9.968270e-01 9.976094e-01 9.982217e-01 9.986864e-01 9.990241e-01 9.992523e-01 9.993843e-01 
9.991093e-01 9.990445e-01 9.988457e-01 9.985014e-01 9.979926e-01 9.972939e-01 9.963754e-01 9.952051e-01 9.937506e-01 9.919820e-01 9.898739e-01 9.874082e-01 9.845767e-01 9.813829e-01 9.778434e-01 9.739815e-01 9.698183e-01 9.653297e-01 9.604836e-01 9.552178e-01 9.494330e-01 9.429430e-01 9.354754e-01 9.266295e-01 9.159014e-01 9.027307e-01 8.866458e-01 8.675461e-01 8.460455e-01 8.238814e-01 8.039407e-01 7.898301e-01 7.846746e-01 7.897889e-01 8.038678e-01 8.237833e-01 8.459448e-01 8.674495e-01 8.865669e-01 9.026655e-01 9.158489e-01 9.265800e-01 9.354237e-01 9.428844e-01 9.493661e-01 9.551443e-01 9.604048e-01 9.652492e-01 9.697380e-01 9.739051e-01 9.777723e-01 9.813191e-01 9.845206e-01 9.873603e-01 9.898337e-01 9.919491e-01 9.937241e-01 9.951843e-01 9.963594e-01 9.972819e-01 9.979840e-01 9.984955e-01 9.988420e-01 9.990428e-01 
9.986496e-01 9.985536e-01 9.982594e-01 9.977506e-01 9.969998e-01 9.959709e-01 9.946213e-01 9.929054e-01 9.907776e-01 9.881961e-01 9.851260e-01 9.815449e-01 9.774460e-01 9.728441e-01 9.677783e-01 9.623057e-01 9.564932e-01 9.503573e-01 9.439030e-01 9.371012e-01 9.298789e-01 9.220426e-01 9.132869e-01 9.031257e-01 8.909241e-01 8.759442e-01 8.575058e-01 8.353394e-01 8.100068e-01 7.834852e-01 7.592682e-01 7.419180e-01 7.355218e-01 7.418593e-01 7.591648e-01 7.833474e-01 8.098671e-01 8.352072e-01 8.574000e-01 8.758573e-01 8.908539e-01 9.030568e-01 9.132117e-01 9.219546e-01 9.297765e-01 9.369876e-01 9.437805e-01 9.502320e-01 9.563678e-01 9.621863e-01 9.676672e-01 9.727445e-01 9.773584e-01 9.814700e-01 9.850632e-01 9.881447e-01 9.907364e-01 9.928731e-01 9.945965e-01 9.959524e-01 9.969865e-01 9.977415e-01 9.982538e-01 9.985510e-01 
9.980063e-01 9.978681e-01 9.974443e-01 9.967123e-01 9.956336e-01 9.941574e-01 9.922242e-01 9.897699e-01 9.867304e-01 9.830475e-01 9.786726e-01 9.735768e-01 9.677553e-01 9.612393e-01 9.541010e-01 9.464502e-01 9.384270e-01 9.301234e-01 9.216100e-01 9.129118e-01 9.040067e-01 8.947007e-01 8.846634e-01 8.733181e-01 8.598931e-01 8.434666e-01 8.231328e-01 7.984310e-01 7.698132e-01 7.394276e-01 7.112920e-01 6.908894e-01 6.832964e-01 6.908087e-01 7.111503e-01 7.392403e-01 7.696250e-01 7.982552e-01 8.229951e-01 8.433537e-01 8.598015e-01 8.732241e-01 8.845569e-01 8.945726e-01 9.038550e-01 9.127425e-01 9.214258e-01 9.299345e-01 9.382371e-01 9.462691e-01 9.539321e-01 9.610877e-01 9.676220e-01 9.734631e-01 9.785775e-01 9.829698e-01 9.866682e-01 9.897212e-01 9.921869e-01 9.941296e-01 9.956136e-01 9.966986e-01 9.974359e-01 9.978641e-01 
9.971313e-01 9.969375e-01 9.963434e-01 9.953178e-01 9.938081e-01 9.917442e-01 9.890440e-01 9.856192e-01 9.813804e-01 9.762468e-01 9.701504e-01 9.630534e-01 9.549529e-01 9.459050e-01 9.360280e-01 9.255098e-01 9.145958e-01 9.035026e-01 8.924010e-01 8.813944e-01 8.705361e-01 8.596372e-01 8.483523e-01 8.360080e-01 8.216935e-01 8.043060e-01 7.827127e-01 7.562637e-01 7.252456e-01 6.918870e-01 6.605838e-01 6.376069e-01 6.289680e-01 6.374980e-01 6.603937e-01 6.916378e-01 7.249981e-01 7.560358e-01 7.825385e-01 8.041624e-01 8.215765e-01 8.358824e-01 8.482055e-01 8.594571e-01 8.703194e-01 8.811517e-01 8.921345e-01 9.032283e-01 9.143186e-01 9.252445e-01 9.357800e-01 9.456817e-01 9.547567e-01 9.628858e-01 9.700104e-01 9.761325e-01 9.812892e-01 9.855478e-01 9.889895e-01 9.917036e-01 9.937789e-01 9.952980e-01 9.963312e-01 9.969317e-01 
9.959723e-01 9.957076e-01 9.948961e-01 9.934959e-01 9.914362e-01 9.886228e-01 9.849443e-01 9.802806e-01 9.745093e-01 9.675194e-01 9.592170e-01 9.495532e-01 9.385285e-01 9.262356e-01 9.128571e-01 8.986889e-01 8.841182e-01 8.695300e-01 8.552536e-01 8.414724e-01 8.283434e-01 8.156699e-01 8.030994e-01 7.898502e-01 7.748825e-01 7.569496e-01 7.347257e-01 7.074308e-01 6.751634e-01 6.401650e-01 6.069991e-01 5.824273e-01 5.731127e-01 5.822860e-01 6.067522e-01 6.398428e-01 6.748446e-01 7.071408e-01 7.345100e-01 7.567693e-01 7.747365e-01 7.896875e-01 8.029066e-01 8.154299e-01 8.280486e-01 8.411400e-01 8.548832e-01 8.691459e-01 8.837268e-01 8.983120e-01 9.125030e-01 9.259156e-01 9.382471e-01 9.493126e-01 9.590164e-01 9.673559e-01 9.743791e-01 9.801790e-01 9.848669e-01 9.885653e-01 9.913950e-01 9.934678e-01 9.948788e-01 9.956994e-01 
9.944738e-01 9.941211e-01 9.930401e-01 9.911755e-01 9.884344e-01 9.846920e-01 9.798008e-01 9.736001e-01 9.659256e-01 9.566277e-01 9.455802e-01 9.327226e-01 9.180637e-01 9.017513e-01 8.840549e-01 8.654163e-01 8.463949e-01 8.275823e-01 8.095207e-01 7.924668e-01 7.766954e-01 7.619803e-01 7.479912e-01 7.338262e-01 7.183257e-01 7.001261e-01 6.777620e-01 6.504469e-01 6.180802e-01 5.828649e-01 5.493052e-01 5.242798e-01 5.147348e-01 5.240988e-01 5.489890e-01 5.824537e-01 6.176758e-01 6.500881e-01 6.775068e-01 6.999042e-01 7.181471e-01 7.336215e-01 7.477484e-01 7.616765e-01 7.763124e-01 7.920327e-01 8.090281e-01 8.270673e-01 8.458649e-01 8.649011e-01 8.835679e-01 9.013085e-01 9.176733e-01 9.323881e-01 9.453014e-01 9.564006e-01 9.657451e-01 9.734596e-01 9.796941e-01 9.846129e-01 9.883779e-01 9.911371e-01 9.930165e-01 9.941100e-01 
9.925781e-01 9.921193e-01 9.907132e-01 9.882886e-01 9.847262e-01 9.798641e-01 9.735111e-01 9.654566e-01 9.554849e-01 9.434003e-01 9.290391e-01 9.123342e-01 8.933126e-01 8.722062e-01 8.493982e-01 8.255194e-01 8.013248e-01 7.776307e-01 7.552011e-01 7.343603e-01 7.155128e-01 6.983237e-01 6.824944e-01 6.669759e-01 6.505535e-01 6.318958e-01 6.095250e-01 5.828599e-01 5.515803e-01 5.178331e-01 4.857869e-01 4.619102e-01 4.528128e-01 4.616905e-01 4.853994e-01 5.173252e-01 5.510773e-01 5.824283e-01 6.092372e-01 6.316232e-01 6.503367e-01 6.667240e-01 6.822097e-01 6.979703e-01 7.150449e-01 7.338241e-01 7.545740e-01 7.769666e-01 8.006318e-01 8.248372e-01 8.487484e-01 8.716105e-01 8.927857e-01 9.118814e-01 9.286620e-01 9.430933e-01 9.552416e-01 9.652677e-01 9.733681e-01 9.797585e-01 9.846509e-01 9.882377e-01 9.906820e-01 9.921046e-01 
9.902255e-01 9.896419e-01 9.878534e-01 9.847705e-01 9.802432e-01 9.740661e-01 9.659966e-01 9.557641e-01 9.430932e-01 9.277344e-01 9.094862e-01 8.882843e-01 8.641941e-01 8.375672e-01 8.089320e-01 7.791491e-01 7.491714e-01 7.200557e-01 6.927108e-01 6.675503e-01 6.450390e-01 6.246536e-01 6.063294e-01 5.889168e-01 5.711642e-01 5.517188e-01 5.291582e-01 5.034610e-01 4.740025e-01 4.428984e-01 4.138053e-01 3.922998e-01 3.841755e-01 3.920395e-01 4.133388e-01 4.422755e-01 4.733813e-01 5.029808e-01 5.288958e-01 5.514028e-01 5.708968e-01 5.885990e-01 6.059999e-01 6.242658e-01 6.444916e-01 6.669205e-01 6.919495e-01 7.192369e-01 7.483058e-01 7.782832e-01 8.080998e-01 8.367958e-01 8.635080e-01 8.876915e-01 9.089918e-01 9.273318e-01 9.427747e-01 9.555175e-01 9.658105e-01 9.739293e-01 9.801461e-01 9.847050e-01 9.878134e-01 9.896231e-01 
9.873543e-01 9.866269e-01 9.843986e-01 9.805588e-01 9.749236e-01 9.672374e-01 9.571989e-01 9.444680e-01 9.287009e-01 9.095902e-01 8.868990e-01 8.605862e-01 8.307805e-01 7.980020e-01 7.629457e-01 7.267437e-01 6.905226e-01 6.555662e-01 6.228333e-01 5.927819e-01 5.660075e-01 5.415906e-01 5.197016e-01 4.989776e-01 4.783719e-01 4.570170e-01 4.337763e-01 4.094886e-01 3.828778e-01 3.559025e-01 3.314455e-01 3.136503e-01 3.070757e-01 3.133741e-01 3.309341e-01 3.551962e-01 3.821384e-01 4.089985e-01 4.336170e-01 4.566533e-01 4.780208e-01 4.985466e-01 5.193402e-01 5.412249e-01 5.654043e-01 5.920835e-01 6.219450e-01 6.545894e-01 6.894766e-01 7.256776e-01 7.619118e-01 7.970317e-01 8.299123e-01 8.598317e-01 8.862688e-01 9.090770e-01 9.282958e-01 9.441553e-01 9.569642e-01 9.670656e-01 9.748022e-01 9.804773e-01 9.843490e-01 9.866037e-01 
9.839003e-01 9.830101e-01 9.802846e-01 9.755902e-01 9.687063e-01 9.593210e-01 9.470672e-01 9.315237e-01 9.122721e-01 8.889409e-01 8.612693e-01 8.292618e-01 7.931503e-01 7.536631e-01 7.116869e-01 6.686340e-01 6.257609e-01 5.845489e-01 5.458593e-01 5.103268e-01 4.782526e-01 4.480978e-01 4.212515e-01 3.967610e-01 3.734830e-01 3.502301e-01 3.258354e-01 3.024830e-01 2.782276e-01 2.549874e-01 2.352191e-01 2.212991e-01 2.163792e-01 2.210395e-01 2.346976e-01 2.542176e-01 2.773534e-01 3.020860e-01 3.259789e-01 3.498807e-01 3.730009e-01 3.961321e-01 4.208018e-01 4.477528e-01 4.775912e-01 5.095853e-01 5.448722e-01 5.834325e-01 6.245583e-01 6.673779e-01 7.104563e-01 7.524901e-01 7.920914e-01 8.283341e-01 8.604913e-01 8.883065e-01 9.117720e-01 9.311390e-01 9.467797e-01 9.591117e-01 9.685593e-01 9.754921e-01 9.802252e-01 9.829825e-01 
9.797984e-01 9.787257e-01 9.754444e-01 9.697965e-01 9.615230e-01 9.502491e-01 9.355347e-01 9.168641e-01 8.937359e-01 8.657117e-01 8.325203e-01 7.942513e-01 7.512761e-01 7.045854e-01 6.552401e-01 6.049598e-01 5.549870e-01 5.070374e-01 4.617874e-01 4.198887e-01 3.820770e-01 3.462126e-01 3.136589e-01 2.830287e-01 2.533302e-01 2.259774e-01 2.003032e-01 1.786292e-01 1.581591e-01 1.399011e-01 1.255835e-01 1.159130e-01 1.127059e-01 1.157220e-01 1.251546e-01 1.393572e-01 1.574420e-01 1.783550e-01 2.005150e-01 2.254369e-01 2.526954e-01 2.821533e-01 3.131933e-01 3.459670e-01 3.813577e-01 4.191110e-01 4.607146e-01 5.057769e-01 5.536384e-01 6.035145e-01 6.538121e-01 7.032039e-01 7.500193e-01 7.931424e-01 8.315876e-01 8.649508e-01 8.931377e-01 9.164060e-01 9.351944e-01 9.500032e-01 9.613515e-01 9.696829e-01 9.753761e-01 9.786941e-01 
9.749856e-01 9.737091e-01 9.698094e-01 9.631032e-01 9.532927e-01 9.399321e-01 9.224999e-01 9.003664e-01 8.729406e-01 8.397098e-01 8.004246e-01 7.553019e-01 7.049106e-01 6.505166e-01 5.933604e-01 5.353449e-01 4.777141e-01 4.225021e-01 3.699796e-01 3.215827e-01 2.764308e-01 2.310680e-01 1.903775e-01 1.573232e-01 1.292178e-01 1.070311e-01 9.056186e-02 7.958652e-02 7.177568e-02 6.639419e-02 6.284177e-02 6.061480e-02 5.993307e-02 6.055155e-02 6.265810e-02 6.625894e-02 7.163754e-02 7.953793e-02 9.048807e-02 1.064533e-01 1.287862e-01 1.564601e-01 1.898956e-01 2.306612e-01 2.755693e-01 3.207851e-01 3.688895e-01 4.211373e-01 4.762832e-01 5.337523e-01 5.917676e-01 6.489505e-01 7.034691e-01 7.540193e-01 7.993397e-01 8.388243e-01 8.722460e-01 8.998375e-01 9.221099e-01 9.396528e-01 9.530999e-01 9.629768e-01 9.697341e-01 9.736745e-01 
9.694075e-01 9.679023e-01 9.633121e-01 9.554282e-01 9.439139e-01 9.282423e-01 9.077986e-01 8.818146e-01 8.496019e-01 8.105765e-01 7.645587e-01 7.119637e-01 6.535912e-01 5.909901e-01 5.254528e-01 4.590869e-01 3.932258e-01 3.303319e-01 2.689785e-01 2.104217e-01 1.588940e-01 1.166600e-01 8.855805e-02 7.458636e-02 7.065367e-02 7.415202e-02 8.161946e-02 9.027385e-02 9.827194e-02 1.046550e-01 1.090425e-01 1.112791e-01 1.120757e-01 1.112923e-01 1.091505e-01 1.048236e-01 9.851446e-02 9.048081e-02 8.177640e-02 7.421971e-02 7.074383e-02 7.425415e-02 8.819100e-02 1.162914e-01 1.580532e-01 2.095156e-01 2.678273e-01 3.288144e-01 3.917130e-01 4.573573e-01 5.236981e-01 5.892466e-01 6.519751e-01 7.105192e-01 7.633335e-01 8.095786e-01 8.488233e-01 8.812269e-01 9.073697e-01 9.279391e-01 9.437074e-01 9.552946e-01 9.632335e-01 9.678665e-01 
9.630288e-01 9.612646e-01 9.558968e-01 9.466919e-01 9.332750e-01 9.150239e-01 8.912162e-01 8.609126e-01 8.233322e-01 7.778309e-01 7.243907e-01 6.636990e-01 5.967776e-01 5.253446e-01 4.506240e-01 3.749950e-01 3.000404e-01 2.274679e-01 1.587287e-01 1.049498e-01 7.519754e-02 6.762585e-02 7.903418e-02 1.019779e-01 1.289918e-01 1.546924e-01 1.743360e-01 1.866201e-01 1.939612e-01 1.977646e-01 1.996251e-01 2.001569e-01 2.004646e-01 2.001882e-01 1.998268e-01 1.981737e-01 1.944295e-01 1.867536e-01 1.740540e-01 1.549587e-01 1.296973e-01 1.022517e-01 7.923265e-02 6.789026e-02 7.473339e-02 1.041476e-01 1.575825e-01 2.258747e-01 2.985261e-01 3.731933e-01 4.487489e-01 5.234780e-01 5.950197e-01 6.621192e-01 7.230420e-01 7.767358e-01 8.224844e-01 8.602809e-01 8.907623e-01 9.147089e-01 9.330647e-01 9.465587e-01 9.558198e-01 9.612301e-01 
9.558445e-01 9.537830e-01 9.475287e-01 9.368248e-01 9.212591e-01 9.000953e-01 8.724875e-01 8.372910e-01 7.936583e-01 7.409277e-01 6.793809e-01 6.100209e-01 5.339340e-01 4.526260e-01 3.675466e-01 2.814726e-01 1.965835e-01 1.226894e-01 7.606820e-02 6.578181e-02 8.643264e-02 1.261585e-01 1.707162e-01 2.080098e-01 2.352229e-01 2.568639e-01 2.729928e-01 2.821847e-01 2.870081e-01 2.888235e-01 2.892102e-01 2.888462e-01 2.888195e-01 2.889157e-01 2.894490e-01 2.892119e-01 2.873779e-01 2.821782e-01 2.725150e-01 2.571286e-01 2.360469e-01 2.084038e-01 1.712274e-01 1.268217e-01 8.677008e-02 6.585227e-02 7.560180e-02 1.214462e-01 1.951587e-01 2.796733e-01 3.655643e-01 4.506476e-01 5.320594e-01 6.083375e-01 6.779417e-01 7.397683e-01 7.927738e-01 8.366451e-01 8.720341e-01 8.997893e-01 9.210607e-01 9.367034e-01 9.474605e-01 9.537532e-01 
9.478948e-01 9.454886e-01 9.382135e-01 9.257939e-01 9.077812e-01 8.833031e-01 8.513779e-01 8.106216e-01 7.601981e-01 6.994808e-01 6.292436e-01 5.507454e-01 4.645438e-01 3.721373e-01 2.758031e-01 1.805791e-01 1.015572e-01 6.505563e-02 7.711542e-02 1.229029e-01 1.792708e-01 2.305172e-01 2.740517e-01 3.103810e-01 3.375654e-01 3.576709e-01 3.709301e-01 3.776134e-01 3.800799e-01 3.799397e-01 3.788483e-01 3.776049e-01 3.772572e-01 3.776754e-01 3.790327e-01 3.802084e-01 3.802943e-01 3.775773e-01 3.706692e-01 3.579369e-01 3.381658e-01 3.106681e-01 2.745074e-01 2.309974e-01 1.800183e-01 1.238360e-01 7.767390e-02 6.479136e-02 1.006012e-01 1.787614e-01 2.738009e-01 3.702046e-01 4.626161e-01 5.489856e-01 6.277263e-01 6.982709e-01 7.592990e-01 8.099872e-01 8.509502e-01 8.830279e-01 9.076121e-01 9.256968e-01 9.381622e-01 9.454673e-01 
9.392740e-01 9.364650e-01 9.280088e-01 9.136171e-01 8.928071e-01 8.645460e-01 8.277116e-01 7.806640e-01 7.227104e-01 6.533283e-01 5.740265e-01 4.859658e-01 3.886483e-01 2.840520e-01 1.785995e-01 9.325997e-02 6.273007e-02 9.246280e-02 1.540091e-01 2.184753e-01 2.769121e-01 3.294438e-01 3.731306e-01 4.079980e-01 4.336209e-01 4.520446e-01 4.638252e-01 4.697730e-01 4.717836e-01 4.713285e-01 4.699670e-01 4.685753e-01 4.681358e-01 4.686318e-01 4.700925e-01 4.714916e-01 4.718974e-01 4.697662e-01 4.637314e-01 4.522526e-01 4.340458e-01 4.082914e-01 3.736177e-01 3.299742e-01 2.778337e-01 2.195432e-01 1.551019e-01 9.333860e-02 6.289130e-02 9.219925e-02 1.769193e-01 2.821235e-01 3.866926e-01 4.841679e-01 5.724821e-01 6.521186e-01 7.218492e-01 7.800896e-01 8.273498e-01 8.643339e-01 8.926911e-01 9.135606e-01 9.279839e-01 9.364561e-01 
9.301423e-01 9.268611e-01 9.170424e-01 9.003977e-01 8.764055e-01 8.438606e-01 8.015179e-01 7.474725e-01 6.813975e-01 6.028398e-01 5.144066e-01 4.163484e-01 3.066741e-01 1.922118e-01 9.589371e-02 6.190452e-02 1.005673e-01 1.694684e-01 2.407671e-01 3.072269e-01 3.663363e-01 4.177946e-01 4.608044e-01 4.955322e-01 5.216209e-01 5.402613e-01 5.521280e-01 5.584075e-01 5.607034e-01 5.605063e-01 5.592948e-01 5.580194e-01 5.575869e-01 5.580560e-01 5.593688e-01 5.605984e-01 5.607727e-01 5.584376e-01 5.521608e-01 5.404667e-01 5.219776e-01 4.958849e-01 4.613514e-01 4.184400e-01 3.673040e-01 3.083180e-01 2.420135e-01 1.707899e-01 1.016748e-01 6.207078e-02 9.478263e-02 1.903156e-01 3.046311e-01 4.143626e-01 5.127669e-01 6.016024e-01 6.805918e-01 7.469887e-01 8.012544e-01 8.437422e-01 8.763675e-01 9.004020e-01 9.170580e-01 9.268726e-01 
9.207198e-01 9.169025e-01 9.055507e-01 8.863910e-01 8.588507e-01 8.215530e-01 7.730964e-01 7.114265e-01 6.367688e-01 5.487822e-01 4.515550e-01 3.433538e-01 2.220081e-01 1.119156e-01 6.070452e-02 9.588291e-02 1.685412e-01 2.445179e-01 3.161009e-01 3.818073e-01 4.405564e-01 4.922139e-01 5.356470e-01 5.710059e-01 5.980767e-01 6.178666e-01 6.310620e-01 6.388843e-01 6.426950e-01 6.438598e-01 6.436878e-01 6.430977e-01 6.428734e-01 6.431215e-01 6.437346e-01 6.439206e-01 6.427563e-01 6.389535e-01 6.311727e-01 6.180985e-01 5.984483e-01 5.714551e-01 5.363023e-01 4.930181e-01 4.416444e-01 3.830555e-01 3.175433e-01 2.460838e-01 1.700747e-01 9.702898e-02 6.073706e-02 1.106164e-01 2.200998e-01 3.414219e-01 4.500091e-01 5.476508e-01 6.361042e-01 7.111128e-01 7.729916e-01 8.215737e-01 8.589227e-01 8.864778e-01 9.056206e-01 9.169410e-01 
9.112760e-01 9.068683e-01 8.938393e-01 8.719562e-01 8.405840e-01 7.982128e-01 7.432617e-01 6.737121e-01 5.904752e-01 4.934080e-01 3.890438e-01 2.691628e-01 1.452702e-01 6.556672e-02 8.066336e-02 1.516627e-01 2.294948e-01 3.043158e-01 3.745344e-01 4.395872e-01 4.982155e-01 5.501588e-01 5.946005e-01 6.315110e-01 6.606858e-01 6.827782e-01 6.984052e-01 7.086691e-01 7.147305e-01 7.178350e-01 7.191303e-01 7.194857e-01 7.195675e-01 7.195034e-01 7.191666e-01 7.178883e-01 7.148032e-01 7.087735e-01 6.985717e-01 6.830466e-01 6.610846e-01 6.320266e-01 5.953131e-01 5.510424e-01 4.993499e-01 4.408982e-01 3.760439e-01 3.059292e-01 2.310897e-01 1.530736e-01 8.169300e-02 6.509493e-02 1.435644e-01 2.671746e-01 3.874252e-01 4.923693e-01 5.900051e-01 6.736349e-01 7.433690e-01 7.984127e-01 8.407947e-01 8.721449e-01 8.939758e-01 9.069400e-01 
9.021139e-01 8.970795e-01 8.822816e-01 8.575555e-01 8.222024e-01 7.746363e-01 7.130721e-01 6.358108e-01 5.442697e-01 4.392637e-01 3.287052e-01 1.990432e-01 8.890325e-02 6.184351e-02 1.232767e-01 1.989069e-01 2.750024e-01 3.471024e-01 4.157264e-01 4.797049e-01 5.383946e-01 5.911927e-01 6.372610e-01 6.763675e-01 7.082348e-01 7.332899e-01 7.520142e-01 7.653367e-01 7.742281e-01 7.797679e-01 7.829286e-01 7.844798e-01 7.849618e-01 7.844966e-01 7.829644e-01 7.798250e-01 7.743139e-01 7.654645e-01 7.522075e-01 7.335741e-01 7.086380e-01 6.768954e-01 6.379664e-01 5.920679e-01 5.394899e-01 4.809788e-01 4.171882e-01 3.486888e-01 2.766277e-01 2.005463e-01 1.249100e-01 6.253007e-02 8.790460e-02 1.970799e-01 3.268833e-01 4.384292e-01 5.440620e-01 6.360242e-01 7.134203e-01 7.750354e-01 8.225662e-01 8.578561e-01 8.824915e-01 8.971877e-01 
8.935575e-01 8.878859e-01 8.713013e-01 8.437379e-01 8.044237e-01 7.517978e-01 6.837537e-01 5.994606e-01 4.998290e-01 3.893843e-01 2.711386e-01 1.429929e-01 6.222090e-02 8.403112e-02 1.588068e-01 2.318460e-01 3.042757e-01 3.737294e-01 4.404680e-01 5.037854e-01 5.627624e-01 6.167700e-01 6.648362e-01 7.065436e-01 7.414809e-01 7.698368e-01 7.919485e-01 8.085443e-01 8.204257e-01 8.285048e-01 8.336015e-01 8.363811e-01 8.372787e-01 8.363974e-01 8.336366e-01 8.285619e-01 8.205119e-01 8.086698e-01 7.921292e-01 7.700894e-01 7.418249e-01 7.069903e-01 6.654180e-01 6.174895e-01 5.636561e-01 5.048349e-01 4.416913e-01 3.751028e-01 3.057525e-01 2.334616e-01 1.603821e-01 8.533687e-02 6.197377e-02 1.414325e-01 2.698387e-01 3.893052e-01 5.001624e-01 6.000785e-01 6.843953e-01 7.524207e-01 8.049562e-01 8.441598e-01 8.715908e-01 8.880336e-01 
8.859325e-01 8.796511e-01 8.613668e-01 8.311299e-01 7.881208e-01 7.308424e-01 6.569419e-01 5.665584e-01 4.600315e-01 3.459664e-01 2.204749e-01 1.030252e-01 5.845942e-02 1.110946e-01 1.819695e-01 2.520966e-01 3.201109e-01 3.870647e-01 4.520739e-01 5.149273e-01 5.744293e-01 6.298380e-01 6.800287e-01 7.243955e-01 7.623886e-01 7.939922e-01 8.193962e-01 8.391490e-01 8.538999e-01 8.644056e-01 8.713521e-01 8.752999e-01 8.765947e-01 8.753140e-01 8.713820e-01 8.644535e-01 8.539690e-01 8.392451e-01 8.195257e-01 7.941636e-01 7.626104e-01 7.246748e-01 6.803826e-01 6.302703e-01 5.749665e-01 5.155626e-01 4.528285e-01 3.879297e-01 3.210683e-01 2.531600e-01 1.829760e-01 1.120742e-01 5.858457e-02 1.017659e-01 2.196196e-01 3.462970e-01 4.606766e-01 5.674021e-01 6.577916e-01 7.316403e-01 7.888011e-01 8.316618e-01 8.617311e-01 8.798361e-01 
8.795535e-01 8.727287e-01 8.529437e-01 8.203588e-01 7.741567e-01 7.128523e-01 6.341201e-01 5.385439e-01 4.271825e-01 3.096165e-01 1.814467e-01 7.824330e-02 6.694044e-02 1.319653e-01 1.964984e-01 2.624725e-01 3.265181e-01 3.911129e-01 4.547129e-01 5.173493e-01 5.774552e-01 6.342652e-01 6.864255e-01 7.332202e-01 7.739368e-01 8.084144e-01 8.367006e-01 8.591969e-01 8.764261e-01 8.890153e-01 8.975444e-01 9.024853e-01 9.041176e-01 9.024945e-01 8.975630e-01 8.890433e-01 8.764618e-01 8.592402e-01 8.367479e-01 8.084652e-01 7.739868e-01 7.332678e-01 6.864743e-01 6.343132e-01 5.775216e-01 5.174310e-01 4.548399e-01 3.912808e-01 3.267426e-01 2.627501e-01 1.968354e-01 1.325045e-01 6.752503e-02 7.770030e-02 1.808358e-01 3.098308e-01 4.278120e-01 5.394200e-01 6.350879e-01 7.137790e-01 7.749625e-01 8.209882e-01 8.533762e-01 8.729479e-01 
8.747097e-01 8.674525e-01 8.464833e-01 8.120497e-01 7.633809e-01 6.989385e-01 6.166706e-01 5.170529e-01 4.029682e-01 2.821299e-01 1.557292e-01 6.623863e-02 7.749547e-02 1.436193e-01 2.039285e-01 2.659444e-01 3.270972e-01 3.899486e-01 4.526062e-01 5.152165e-01 5.759133e-01 6.339160e-01 6.876743e-01 7.364049e-01 7.792614e-01 8.159852e-01 8.465095e-01 8.711272e-01 8.902640e-01 9.044513e-01 9.141916e-01 9.198896e-01 9.217785e-01 9.198927e-01 9.141967e-01 9.044561e-01 8.902614e-01 8.711119e-01 8.464691e-01 8.159104e-01 7.791370e-01 7.362194e-01 6.874206e-01 6.335856e-01 5.755218e-01 5.147664e-01 4.521449e-01 3.894940e-01 3.267256e-01 2.656790e-01 2.039051e-01 1.438574e-01 7.818118e-02 6.607027e-02 1.551549e-01 2.820525e-01 4.034815e-01 5.178847e-01 6.177020e-01 6.999503e-01 7.642804e-01 8.127532e-01 8.469690e-01 8.676983e-01 
8.716533e-01 8.641141e-01 8.423790e-01 8.067485e-01 7.565092e-01 6.900420e-01 6.056134e-01 5.033666e-01 3.879636e-01 2.645831e-01 1.410600e-01 6.167330e-02 8.561848e-02 1.490464e-01 2.071694e-01 2.663356e-01 3.257674e-01 3.874959e-01 4.496410e-01 5.122881e-01 5.734047e-01 6.322017e-01 6.869935e-01 7.369694e-01 7.811857e-01 8.193338e-01 8.512714e-01 8.772273e-01 8.975650e-01 9.127573e-01 9.232581e-01 9.294304e-01 9.314795e-01 9.294284e-01 9.232518e-01 9.127426e-01 8.975313e-01 8.771649e-01 8.511619e-01 8.191613e-01 7.809270e-01 7.366049e-01 6.865085e-01 6.315817e-01 5.726637e-01 5.114311e-01 4.487311e-01 3.865677e-01 3.249454e-01 2.656613e-01 2.068438e-01 1.489936e-01 8.607605e-02 6.132821e-02 1.402467e-01 2.642455e-01 3.883858e-01 5.041658e-01 6.066829e-01 6.911069e-01 7.574692e-01 8.075006e-01 8.428999e-01 8.643777e-01 
8.705884e-01 8.629491e-01 8.409425e-01 8.048869e-01 7.540890e-01 6.868950e-01 6.016933e-01 4.984886e-01 3.826100e-01 2.581628e-01 1.359709e-01 6.079064e-02 8.906638e-02 1.508682e-01 2.081327e-01 2.661845e-01 3.249976e-01 3.863423e-01 4.483172e-01 5.109943e-01 5.722640e-01 6.313435e-01 6.864975e-01 7.369063e-01 7.815941e-01 8.202342e-01 8.526599e-01 8.790775e-01 8.998294e-01 9.153679e-01 9.261305e-01 9.324658e-01 9.345699e-01 9.324618e-01 9.261200e-01 9.153460e-01 8.997843e-01 8.789981e-01 8.525255e-01 8.200266e-01 7.812876e-01 7.364784e-01 6.859308e-01 6.306213e-01 5.713997e-01 5.099936e-01 4.472477e-01 3.852416e-01 3.240023e-01 2.653313e-01 2.076294e-01 1.506057e-01 8.932129e-02 6.030805e-02 1.350436e-01 2.577841e-01 3.830431e-01 4.993104e-01 6.027932e-01 6.879875e-01 7.550737e-01 8.056572e-01 8.414761e-01 8.632190e-01 
8.716533e-01 8.641141e-01 8.423790e-01 8.067485e-01 7.565092e-01 6.900420e-01 6.056134e-01 5.033666e-01 3.879636e-01 2.645831e-01 1.410600e-01 6.167330e-02 8.561848e-02 1.490464e-01 2.071694e-01 2.663356e-01 3.257674e-01 3.874959e-01 4.496410e-01 5.122881e-01 5.734047e-01 6.322017e-01 6.869935e-01 7.369694e-01 7.811857e-01 8.193338e-01 8.512714e-01 8.772273e-01 8.975650e-01 9.127573e-01 9.232581e-01 9.294304e-01 9.314795e-01 9.294284e-01 9.232518e-01 9.127426e-01 8.975313e-01 8.771649e-01 8.511619e-01 8.191613e-01 7.809270e-01 7.366049e-01 6.865085e-01 6.315817e-01 5.726637e-01 5.114311e-01 4.487311e-01 3.865677e-01 3.249454e-01 2.656613e-01 2.068438e-01 1.489936e-01 8.607605e-02 6.132821e-02 1.402467e-01 2.642455e-01 3.883858e-01 5.041658e-01 6.066829e-01 6.911069e-01 7.574692e-01 8.075006e-01 8.428999e-01 8.643777e-01 
8.747097e-01 8.674525e-01 8.464833e-01 8.120497e-01 7.633809e-01 6.989385e-01 6.166706e-01 5.170529e-01 4.029682e-01 2.821299e-01 1.557292e-01 6.623863e-02 7.749547e-02 1.436193e-01 2.039285e-01 2.659444e-01 3.270972e-01 3.899486e-01 4.526062e-01 5.152165e-01 5.759133e-01 6.339160e-01 6.876743e-01 7.364049e-01 7.792614e-01 8.159852e-01 8.465095e-01 8.711272e-01 8.902640e-01 9.044513e-01 9.141916e-01 9.198896e-01 9.217785e-01 9.198927e-01 9.141967e-01 9.044561e-01 8.902614e-01 8.711119e-01 8.464691e-01 8.159104e-01 7.791370e-01 7.362194e-01 6.874206e-01 6.335856e-01 5.755218e-01 5.147664e-01 4.521449e-01 3.894940e-01 3.267256e-01 2.656790e-01 2.039051e-01 1.438574e-01 7.818118e-02 6.607027e-02 1.551549e-01 2.820525e-01 4.034815e-01 5.178847e-01 6.177020e-01 6.999503e-01 7.642804e-01 8.127532e-01 8.469690e-01 8.676983e-01 