# vtk DataFile Version 2.0
Comment goes here
ASCII

DATASET STRUCTURED_POINTS
FIELD FieldData 1
TIME 1 1 double
0.12000000
DIMENSIONS    64   64   1

ORIGIN    0.000   0.000   0.000
SPACING   0.015625 0.015625   1.000

POINT_DATA   4096
SCALARS Concentration double
LOOKUP_TABLE default

1.000000e+00 1.000000e+00 1.000000e+00 1.000000e+00 1.000000e+00 1.000000e+00 1.000000e+00 1.000000e+00 1.000000e+00 1.000000e+00 1.000000e+00 9.999999e-01 9.999998e-01 9.999996e-01 9.999992e-01 9.999983e-01 9.999967e-01 9.999938e-01 9.999888e-01 9.999802e-01 9.999656e-01 9.999408e-01 9.998988e-01 9.998274e-01 9.997066e-01 9.995044e-01 9.991747e-01 9.986627e-01 9.979253e-01 9.969763e-01 9.959436e-01 9.950927e-01 9.947471e-01 9.950926e-01 9.959435e-01 9.969762e-01 9.979252e-01 9.986627e-01 9.991747e-01 9.995044e-01 9.997066e-01 9.998274e-01 9.998988e-01 9.999408e-01 9.999656e-01 9.999802e-01 9.999888e-01 9.999938e-01 9.999967e-01 9.999983e-01 9.999992e-01 9.999996e-01 9.999998e-01 9.999999e-01 1.000000e+00 1.000000e+00 1.000000e+00 1.000000e+00 1.000000e+00 1.000000e+00 1.000000e+00 1.000000e+00 1.000000e+00 1.000000e+00 
1.000000e+00 1.000000e+00 1.000000e+00 1.000000e+00 1.000000e+00 1.000000e+00 1.000000e+00 1.000000e+00 1.000000e+00 1.000000e+00 9.999999e-01 9.999999e-01 9.999997e-01 9.999993e-01 9.999986e-01 9.999972e-01 9.999946e-01 9.999902e-01 9.999828e-01 9.999705e-01 9.999503e-01 9.999172e-01 9.998628e-01 9.997735e-01 9.996268e-01 9.993871e-01 9.990041e-01 9.984176e-01 9.975816e-01 9.965127e-01 9.953539e-01 9.944010e-01 9.940141e-01 9.944009e-01 9.953539e-01 9.965126e-01 9.975816e-01 9.984176e-01 9.990041e-01 9.993871e-01 9.996268e-01 9.997736e-01 9.998628e-01 9.999172e-01 9.999503e-01 9.999705e-01 9.999828e-01 9.999902e-01 9.999946e-01 9.999972e-01 9.999986e-01 9.999993e-01 9.999997e-01 9.999999e-01 9.999999e-01 1.000000e+00 1.000000e+00 1.000000e+00 1.000000e+00 1.000000e+00 1.000000e+00 1.000000e+00 1.000000e+00 1.000000e+00 
1.000000e+00 1.000000e+00 1.000000e+00 1.000000e+00 1.000000e+00 1.000000e+00 1.000000e+00 1.000000e+00 1.000000e+00 9.999999e-01 9.999998e-01 9.999996e-01 9.999991e-01 9.999981e-01 9.999961e-01 9.999925e-01 9.999862e-01 9.999759e-01 9.999596e-01 9.999340e-01 9.998941e-01 9.998322e-01 9.997366e-01 9.995888e-01 9.993594e-01 9.990033e-01 9.984572e-01 9.976469e-01 9.965167e-01 9.950918e-01 9.935595e-01 9.923040e-01 9.917945e-01 9.923039e-01 9.935594e-01 9.950917e-01 9.965167e-01 9.976469e-01 9.984572e-01 9.990033e-01 9.993594e-01 9.995888e-01 9.997366e-01 9.998322e-01 9.998941e-01 9.999340e-01 9.999596e-01 9.999759e-01 9.999862e-01 9.999925e-01 9.999961e-01 9.999981e-01 9.999991e-01 9.999996e-01 9.999998e-01 9.999999e-01 1.000000e+00 1.000000e+00 1.000000e+00 1.000000e+00 1.000000e+00 1.000000e+00 1.000000e+00 1.000000e+00 
1.000000e+00 1.000000e+00 1.000000e+00 1.000000e+00 1.000000e+00 1.000000e+00 1.000000e+00 1.000000e+00 9.999999e-01 9.999998e-01 9.999995e-01 9.999988e-01 9.999974e-01 9.999945e-01 9.999891e-01 9.999796e-01 9.999637e-01 9.999388e-01 9.999009e-01 9.998445e-01 9.997607e-01 9.996372e-01 9.994569e-01 9.991936e-01 9.988073e-01 9.982380e-01 9.974022e-01 9.962028e-01 9.945681e-01 9.925366e-01 9.903686e-01 9.885976e-01 9.878786e-01 9.885974e-01 9.903685e-01 9.925364e-01 9.945680e-01 9.962027e-01 9.974023e-01 9.982381e-01 9.988074e-01 9.991937e-01 9.994569e-01 9.996373e-01 9.997608e-01 9.998445e-01 9.999009e-01 9.999388e-01 9.999637e-01 9.999796e-01 9.999891e-01 9.999945e-01 9.999974e-01 9.999988e-01 9.999995e-01 9.999998e-01 9.999999e-01 1.000000e+00 1.000000e+00 1.000000e+00 1.000000e+00 1.000000e+00 1.000000e+00 1.000000e+00 
1.000000e+00 1.000000e+00 1.000000e+00 1.000000e+00 1.000000e+00 1.000000e+00 1.000000e+00 9.999999e-01 9.999998e-01 9.999994e-01 9.999986e-01 9.999966e-01 9.999927e-01 9.999849e-01 9.999709e-01 9.999469e-01 9.999083e-01 9.998498e-01 9.997647e-01 9.996439e-01 9.994725e-01 9.992311e-01 9.988958e-01 9.984312e-01 9.977847e-01 9.968771e-01 9.955988e-01 9.938215e-01 9.914506e-01 9.885404e-01 9.854525e-01 9.829335e-01 9.819094e-01 9.829333e-01 9.854522e-01 9.885401e-01 9.914504e-01 9.938215e-01 9.955990e-01 9.968773e-01 9.977849e-01 9.984315e-01 9.988959e-01 9.992312e-01 9.994725e-01 9.996439e-01 9.997647e-01 9.998498e-01 9.999083e-01 9.999469e-01 9.999709e-01 9.999849e-01 9.999927e-01 9.999966e-01 9.999986e-01 9.999994e-01 9.999998e-01 9.999999e-01 1.000000e+00 1.000000e+00 1.000000e+00 1.000000e+00 1.000000e+00 1.000000e+00 
1.000000e+00 1.000000e+00 1.000000e+00 1.000000e+00 1.000000e+00 1.000000e+00 9.999999e-01 9.999998e-01 9.999994e-01 9.999983e-01 9.999960e-01 9.999909e-01 9.999805e-01 9.999608e-01 9.999260e-01 9.998683e-01 9.997787e-01 9.996475e-01 9.994642e-01 9.992155e-01 9.988788e-01 9.984247e-01 9.978226e-01 9.970289e-01 9.959781e-01 9.945708e-01 9.926673e-01 9.901001e-01 9.867432e-01 9.826674e-01 9.783612e-01 9.748496e-01 9.734188e-01 9.748490e-01 9.783605e-01 9.826667e-01 9.867429e-01 9.901002e-01 9.926677e-01 9.945714e-01 9.959787e-01 9.970294e-01 9.978230e-01 9.984249e-01 9.988789e-01 9.992155e-01 9.994642e-01 9.996475e-01 9.997787e-01 9.998683e-01 9.999260e-01 9.999608e-01 9.999805e-01 9.999909e-01 9.999960e-01 9.999983e-01 9.999994e-01 9.999998e-01 9.999999e-01 1.000000e+00 1.000000e+00 1.000000e+00 1.000000e+00 1.000000e+00 
1.000000e+00 1.000000e+00 1.000000e+00 1.000000e+00 1.000000e+00 9.999999e-01 9.999998e-01 9.999994e-01 9.999982e-01 9.999956e-01 9.999894e-01 9.999764e-01 9.999505e-01 9.999028e-01 9.998207e-01 9.996887e-01 9.994900e-01 9.992087e-01 9.988309e-01 9.983402e-01 9.977067e-01 9.968869e-01 9.958475e-01 9.945407e-01 9.928924e-01 9.907846e-01 9.880448e-01 9.844594e-01 9.798606e-01 9.743325e-01 9.685122e-01 9.637652e-01 9.618268e-01 9.637641e-01 9.685108e-01 9.743312e-01 9.798601e-01 9.844597e-01 9.880458e-01 9.907860e-01 9.928937e-01 9.945417e-01 9.958481e-01 9.968872e-01 9.977068e-01 9.983403e-01 9.988308e-01 9.992087e-01 9.994899e-01 9.996886e-01 9.998207e-01 9.999028e-01 9.999505e-01 9.999764e-01 9.999894e-01 9.999956e-01 9.999982e-01 9.999994e-01 9.999998e-01 9.999999e-01 1.000000e+00 1.000000e+00 1.000000e+00 1.000000e+00 
1.000000e+00 1.000000e+00 1.000000e+00 1.000000e+00 9.999999e-01 9.999998e-01 9.999994e-01 9.999983e-01 9.999954e-01 9.999886e-01 9.999734e-01 9.999417e-01 9.998804e-01 9.997702e-01 9.995856e-01 9.992974e-01 9.988769e-01 9.983010e-01 9.975555e-01 9.966276e-01 9.954850e-01 9.940640e-01 9.923383e-01 9.902659e-01 9.877721e-01 9.847245e-01 9.809170e-01 9.760828e-01 9.700009e-01 9.627633e-01 9.551715e-01 9.489829e-01 9.464525e-01 9.489809e-01 9.551689e-01 9.627608e-01 9.700002e-01 9.760837e-01 9.809194e-01 9.847274e-01 9.877746e-01 9.902677e-01 9.923393e-01 9.940644e-01 9.954851e-01 9.966275e-01 9.975553e-01 9.983008e-01 9.988767e-01 9.992973e-01 9.995856e-01 9.997702e-01 9.998804e-01 9.999417e-01 9.999734e-01 9.999886e-01 9.999954e-01 9.999983e-01 9.999994e-01 9.999998e-01 9.999999e-01 1.000000e+00 1.000000e+00 1.000000e+00 
1.000000e+00 1.000000e+00 1.000000e+00 1.000000e+00 9.999998e-01 9.999995e-01 9.999985e-01 9.999957e-01 9.999887e-01 9.999722e-01 9.999361e-01 9.998627e-01 9.997242e-01 9.994816e-01 9.990864e-01 9.984869e-01 9.976384e-01 9.965136e-01 9.951083e-01 9.934280e-01 9.914521e-01 9.890876e-01 9.863329e-01 9.831676e-01 9.795276e-01 9.752708e-01 9.701557e-01 9.638541e-01 9.560810e-01 9.469304e-01 9.373791e-01 9.296090e-01 9.264333e-01 9.296053e-01 9.373745e-01 9.469262e-01 9.560803e-01 9.638565e-01 9.701608e-01 9.752764e-01 9.795322e-01 9.831706e-01 9.863344e-01 9.890880e-01 9.914518e-01 9.934274e-01 9.951076e-01 9.965130e-01 9.976380e-01 9.984867e-01 9.990863e-01 9.994816e-01 9.997242e-01 9.998627e-01 9.999361e-01 9.999722e-01 9.999887e-01 9.999957e-01 9.999985e-01 9.999995e-01 9.999998e-01 1.000000e+00 1.000000e+00 1.000000e+00 
1.000000e+00 1.000000e+00 1.000000e+00 9.999999e-01 9.999996e-01 9.999987e-01 9.999962e-01 9.999896e-01 9.999731e-01 9.999349e-01 9.998532e-01 9.996911e-01 9.993927e-01 9.988837e-01 9.980776e-01 9.968902e-01 9.952601e-01 9.931671e-01 9.906399e-01 9.877299e-01 9.844507e-01 9.806720e-01 9.764404e-01 9.717790e-01 9.666465e-01 9.608933e-01 9.542368e-01 9.462794e-01 9.366655e-01 9.254927e-01 9.139188e-01 9.045506e-01 9.007351e-01 9.045444e-01 9.139110e-01 9.254861e-01 9.366653e-01 9.462847e-01 9.542467e-01 9.609034e-01 9.666544e-01 9.717835e-01 9.764420e-01 9.806718e-01 9.844494e-01 9.877283e-01 9.906382e-01 9.931658e-01 9.952591e-01 9.968896e-01 9.980773e-01 9.988836e-01 9.993926e-01 9.996910e-01 9.998532e-01 9.999349e-01 9.999731e-01 9.999896e-01 9.999962e-01 9.999987e-01 9.999996e-01 9.999999e-01 1.000000e+00 1.000000e+00 
1.000000e+00 1.000000e+00 9.999999e-01 9.999997e-01 9.999990e-01 9.999970e-01 9.999912e-01 9.999759e-01 9.999387e-01 9.998543e-01 9.996776e-01 9.993352e-01 9.987216e-01 9.977039e-01 9.961388e-01 9.939024e-01 9.909267e-01 9.872268e-01 9.829054e-01 9.781002e-01 9.728822e-01 9.670841e-01 9.608327e-01 9.542137e-01 9.472137e-01 9.396666e-01 9.312394e-01 9.214609e-01 9.099116e-01 8.967088e-01 8.831921e-01 8.723509e-01 8.679668e-01 8.723409e-01 8.831799e-01 8.966991e-01 9.099127e-01 9.214713e-01 9.312573e-01 9.396836e-01 9.472260e-01 9.542198e-01 9.608339e-01 9.670825e-01 9.728788e-01 9.780963e-01 9.829015e-01 9.872239e-01 9.909247e-01 9.939014e-01 9.961383e-01 9.977037e-01 9.987215e-01 9.993351e-01 9.996776e-01 9.998543e-01 9.999387e-01 9.999759e-01 9.999912e-01 9.999970e-01 9.999990e-01 9.999997e-01 9.999999e-01 1.000000e+00 
1.000000e+00 9.999999e-01 9.999998e-01 9.999993e-01 9.999978e-01 9.999931e-01 9.999801e-01 9.999465e-01 9.998659e-01 9.996870e-01 9.993209e-01 9.986297e-01 9.974253e-01 9.954858e-01 9.925938e-01 9.885906e-01 9.834344e-01 9.772301e-01 9.702178e-01 9.626663e-01 9.547101e-01 9.461498e-01 9.372443e-01 9.281502e-01 9.188769e-01 9.092256e-01 8.988026e-01 8.870707e-01 8.735746e-01 8.584868e-01 8.433119e-01 8.313163e-01 8.265208e-01 8.313010e-01 8.432939e-01 8.584726e-01 8.735772e-01 8.870875e-01 8.988315e-01 9.092524e-01 9.188951e-01 9.281580e-01 9.372444e-01 9.461458e-01 9.547030e-01 9.626584e-01 9.702098e-01 9.772242e-01 9.834305e-01 9.885886e-01 9.925929e-01 9.954854e-01 9.974252e-01 9.986297e-01 9.993209e-01 9.996870e-01 9.998659e-01 9.999465e-01 9.999801e-01 9.999931e-01 9.999978e-01 9.999993e-01 9.999998e-01 9.999999e-01 
9.999999e-01 9.999999e-01 9.999996e-01 9.999985e-01 9.999950e-01 9.999849e-01 9.999569e-01 9.998856e-01 9.997178e-01 9.993538e-01 9.986267e-01 9.972911e-01 9.950319e-01 9.915071e-01 9.864207e-01 9.796132e-01 9.711377e-01 9.612812e-01 9.505004e-01 9.392220e-01 9.275818e-01 9.154452e-01 9.032180e-01 8.911095e-01 8.791217e-01 8.669974e-01 8.542926e-01 8.404482e-01 8.250358e-01 8.083323e-01 7.919542e-01 7.792678e-01 7.742724e-01 7.792464e-01 7.919304e-01 8.083128e-01 8.250391e-01 8.404711e-01 8.543356e-01 8.670368e-01 8.791474e-01 8.911191e-01 9.032161e-01 9.154379e-01 9.275689e-01 9.392070e-01 9.504849e-01 9.612698e-01 9.711306e-01 9.796100e-01 9.864194e-01 9.915068e-01 9.950319e-01 9.972911e-01 9.986267e-01 9.993538e-01 9.997178e-01 9.998856e-01 9.999569e-01 9.999849e-01 9.999950e-01 9.999985e-01 9.999996e-01 9.999999e-01 
9.999999e-01 9.999997e-01 9.999990e-01 9.999967e-01 9.999894e-01 9.999679e-01 9.999098e-01 9.997641e-01 9.994279e-01 9.987149e-01 9.973280e-01 9.948541e-01 9.908007e-01 9.846861e-01 9.761645e-01 9.651549e-01 9.519279e-01 9.370726e-01 9.213427e-01 9.053024e-01 8.889120e-01 8.722834e-01 8.559536e-01 8.401676e-01 8.249198e-01 8.098994e-01 7.946453e-01 7.786330e-01 7.615179e-01 7.437060e-01 7.268029e-01 7.140438e-01 7.091094e-01 7.140178e-01 7.267769e-01 7.436773e-01 7.615133e-01 7.786534e-01 7.947016e-01 8.099542e-01 8.249563e-01 8.401809e-01 8.559507e-01 8.722739e-01 8.888916e-01 9.052765e-01 9.213147e-01 9.370524e-01 9.519163e-01 9.651503e-01 9.761632e-01 9.846861e-01 9.908009e-01 9.948542e-01 9.973280e-01 9.987149e-01 9.994279e-01 9.997641e-01 9.999098e-01 9.999679e-01 9.999894e-01 9.999967e-01 9.999990e-01 9.999997e-01 
9.999997e-01 9.999994e-01 9.999980e-01 9.999931e-01 9.999781e-01 9.999344e-01 9.998176e-01 9.995299e-01 9.988793e-01 9.975334e-01 9.949880e-01 9.905888e-01 9.836233e-01 9.734861e-01 9.598637e-01 9.428999e-01 9.232411e-01 9.019250e-01 8.800087e-01 8.580329e-01 8.356887e-01 8.136458e-01 7.924895e-01 7.723843e-01 7.532785e-01 7.348413e-01 7.167069e-01 6.984747e-01 6.799247e-01 6.615989e-01 6.449124e-01 6.327090e-01 6.280836e-01 6.326776e-01 6.448860e-01 6.615543e-01 6.798952e-01 6.984769e-01 7.167790e-01 7.349160e-01 7.533283e-01 7.724026e-01 7.924854e-01 8.136352e-01 8.356580e-01 8.579892e-01 8.799600e-01 9.018911e-01 9.232237e-01 9.428946e-01 9.598634e-01 9.734871e-01 9.836242e-01 9.905892e-01 9.949882e-01 9.975334e-01 9.988793e-01 9.995298e-01 9.998176e-01 9.999344e-01 9.999780e-01 9.999931e-01 9.999980e-01 9.999994e-01 
9.999994e-01 9.999988e-01 9.999959e-01 9.999862e-01 9.999560e-01 9.998698e-01 9.996424e-01 9.990921e-01 9.978748e-01 9.954212e-01 9.909193e-01 9.833993e-01 9.719202e-01 9.558317e-01 9.350084e-01 9.100057e-01 8.820446e-01 8.526649e-01 8.231349e-01 7.935577e-01 7.640650e-01 7.354453e-01 7.083025e-01 6.828869e-01 6.593081e-01 6.372674e-01 6.164450e-01 5.964435e-01 5.770693e-01 5.589784e-01 5.432143e-01 5.320980e-01 5.279774e-01 5.320566e-01 5.431935e-01 5.589071e-01 5.769954e-01 5.964027e-01 6.165204e-01 6.373637e-01 6.593817e-01 6.829150e-01 7.082959e-01 7.354388e-01 7.640243e-01 7.934919e-01 8.230582e-01 8.526135e-01 8.820220e-01 9.100019e-01 9.350114e-01 9.558350e-01 9.719224e-01 9.834001e-01 9.909195e-01 9.954211e-01 9.978747e-01 9.990921e-01 9.996423e-01 9.998698e-01 9.999560e-01 9.999862e-01 9.999959e-01 9.999988e-01 
9.999989e-01 9.999977e-01 9.999920e-01 9.999730e-01 9.999145e-01 9.997491e-01 9.993190e-01 9.982979e-01 9.960905e-01 9.917640e-01 9.840818e-01 9.717120e-01 9.535497e-01 9.290623e-01 8.985182e-01 8.631016e-01 8.246949e-01 7.853980e-01 7.461705e-01 7.064097e-01 6.680004e-01 6.318740e-01 5.985099e-01 5.677028e-01 5.393833e-01 5.133553e-01 4.896472e-01 4.678899e-01 4.478554e-01 4.304554e-01 4.161405e-01 4.064452e-01 4.029084e-01 4.063607e-01 4.161064e-01 4.303789e-01 4.477691e-01 4.677842e-01 4.896962e-01 5.134662e-01 5.394828e-01 5.677420e-01 5.984858e-01 6.318705e-01 6.679527e-01 7.063175e-01 7.460589e-01 7.853263e-01 8.246697e-01 8.631031e-01 8.985281e-01 9.290700e-01 9.535546e-01 9.717138e-01 9.840822e-01 9.917638e-01 9.960903e-01 9.982978e-01 9.993190e-01 9.997490e-01 9.999145e-01 9.999730e-01 9.999920e-01 9.999977e-01 
9.999979e-01 9.999956e-01 9.999848e-01 9.999486e-01 9.998382e-01 9.995292e-01 9.987382e-01 9.968967e-01 9.930127e-01 9.856277e-01 9.729733e-01 9.533897e-01 9.257770e-01 8.899603e-01 8.468073e-01 7.982340e-01 7.468260e-01 6.945480e-01 6.418431e-01 5.910191e-01 5.434605e-01 4.986274e-01 4.573450e-01 4.200076e-01 3.862844e-01 3.557671e-01 3.288505e-01 3.054064e-01 2.853251e-01 2.696113e-01 2.577904e-01 2.503290e-01 2.476637e-01 2.501667e-01 2.577259e-01 2.695029e-01 2.852983e-01 3.052673e-01 3.287624e-01 3.558496e-01 3.864585e-01 4.200782e-01 4.572648e-01 4.986171e-01 5.434289e-01 5.909081e-01 6.416976e-01 6.944635e-01 7.468043e-01 7.982442e-01 8.468276e-01 8.899741e-01 9.257853e-01 9.533922e-01 9.729735e-01 9.856269e-01 9.930121e-01 9.968963e-01 9.987380e-01 9.995292e-01 9.998382e-01 9.999486e-01 9.999848e-01 9.999956e-01 
9.999961e-01 9.999919e-01 9.999718e-01 9.999047e-01 9.997015e-01 9.991390e-01 9.977217e-01 9.944910e-01 9.878568e-01 9.756528e-01 9.555416e-01 9.257035e-01 8.853405e-01 8.348559e-01 7.758556e-01 7.109423e-01 6.430016e-01 5.745309e-01 5.074711e-01 4.433062e-01 3.853423e-01 3.339297e-01 2.889793e-01 2.522687e-01 2.251752e-01 2.066266e-01 1.948898e-01 1.881082e-01 1.846204e-01 1.832575e-01 1.827649e-01 1.826925e-01 1.826352e-01 1.825414e-01 1.827208e-01 1.831936e-01 1.845803e-01 1.881364e-01 1.949284e-01 2.065368e-01 2.251921e-01 2.524055e-01 2.889155e-01 3.339134e-01 3.853545e-01 4.431859e-01 5.072905e-01 5.744536e-01 6.430017e-01 7.109642e-01 7.758897e-01 8.348783e-01 8.853542e-01 9.257076e-01 9.555415e-01 9.756509e-01 9.878553e-01 9.944901e-01 9.977213e-01 9.991388e-01 9.997014e-01 9.999047e-01 9.999718e-01 9.999918e-01 
9.999930e-01 9.999854e-01 9.999490e-01 9.998275e-01 9.994622e-01 9.984631e-01 9.959880e-01 9.904743e-01 9.794772e-01 9.599754e-01 9.291767e-01 8.854637e-01 8.286435e-01 7.599001e-01 6.814840e-01 5.968675e-01 5.089833e-01 4.220471e-01 3.430676e-01 2.777192e-01 2.293427e-01 1.998002e-01 1.879369e-01 1.909863e-01 2.044507e-01 2.235874e-01 2.447311e-01 2.649502e-01 2.820890e-01 2.954161e-01 3.047300e-01 3.100158e-01 3.117622e-01 3.099107e-01 3.046746e-01 2.955481e-01 2.821186e-01 2.648501e-01 2.447326e-01 2.237227e-01 2.044592e-01 1.909837e-01 1.879263e-01 1.997780e-01 2.294120e-01 2.776451e-01 3.428877e-01 4.220438e-01 5.090182e-01 5.968826e-01 6.815246e-01 7.599309e-01 8.286616e-01 8.854657e-01 9.291729e-01 9.599699e-01 9.794734e-01 9.904722e-01 9.959871e-01 9.984627e-01 9.994621e-01 9.998275e-01 9.999490e-01 9.999854e-01 
9.999880e-01 9.999744e-01 9.999099e-01 9.996950e-01 9.990533e-01 9.973206e-01 9.931081e-01 9.839605e-01 9.662958e-01 9.362181e-01 8.908601e-01 8.292448e-01 7.520293e-01 6.610536e-01 5.595254e-01 4.506776e-01 3.459901e-01 2.611632e-01 2.066729e-01 1.855228e-01 1.946091e-01 2.264625e-01 2.723171e-01 3.227269e-01 3.686862e-01 4.065833e-01 4.365927e-01 4.594072e-01 4.757012e-01 4.869158e-01 4.941617e-01 4.980743e-01 4.994064e-01 4.980295e-01 4.941574e-01 4.870546e-01 4.757060e-01 4.592621e-01 4.365478e-01 4.069378e-01 3.689498e-01 3.225944e-01 2.722664e-01 2.264999e-01 1.946886e-01 1.855310e-01 2.064656e-01 2.611727e-01 3.460932e-01 4.506620e-01 5.595354e-01 6.610845e-01 7.520490e-01 8.292412e-01 8.908492e-01 9.362063e-01 9.662876e-01 9.839561e-01 9.931062e-01 9.973198e-01 9.990530e-01 9.996950e-01 9.999099e-01 9.999744e-01 
9.999798e-01 9.999563e-01 9.998446e-01 9.994726e-01 9.983703e-01 9.954365e-01 9.884553e-01 9.737288e-01 9.462924e-01 9.016519e-01 8.374787e-01 7.536966e-01 6.515799e-01 5.336789e-01 4.056574e-01 2.889103e-01 2.106926e-01 1.837872e-01 2.036657e-01 2.581279e-01 3.297006e-01 4.001586e-01 4.607559e-01 5.115141e-01 5.525263e-01 5.847993e-01 6.091774e-01 6.268443e-01 6.389967e-01 6.469442e-01 6.518301e-01 6.543982e-01 6.552716e-01 6.543966e-01 6.518439e-01 6.470193e-01 6.390020e-01 6.268492e-01 6.092341e-01 5.850296e-01 5.526654e-01 5.113833e-01 4.607200e-01 4.001757e-01 3.296091e-01 2.581284e-01 2.035823e-01 1.838331e-01 2.108173e-01 2.888015e-01 4.056165e-01 5.337241e-01 6.515960e-01 7.536640e-01 8.374408e-01 9.016235e-01 9.462744e-01 9.737197e-01 9.884513e-01 9.954350e-01 9.983697e-01 9.994725e-01 9.998446e-01 9.999563e-01 
9.999672e-01 9.999275e-01 9.997381e-01 9.991074e-01 9.972550e-01 9.924073e-01 9.811626e-01 9.582135e-01 9.171256e-01 8.535352e-01 7.661635e-01 6.553223e-01 5.228268e-01 3.784480e-01 2.545080e-01 1.898043e-01 1.954187e-01 2.540917e-01 3.387466e-01 4.232190e-01 4.997720e-01 5.672383e-01 6.236548e-01 6.688173e-01 7.031971e-01 7.285491e-01 7.466240e-01 7.591064e-01 7.673601e-01 7.725477e-01 7.756076e-01 7.771722e-01 7.777001e-01 7.771839e-01 7.756293e-01 7.726027e-01 7.673948e-01 7.591612e-01 7.466740e-01 7.286431e-01 7.032307e-01 6.687340e-01 6.236241e-01 5.672251e-01 4.997054e-01 4.232375e-01 3.388269e-01 2.541627e-01 1.954657e-01 1.897497e-01 2.545120e-01 3.784889e-01 5.228367e-01 6.552568e-01 7.660880e-01 8.534855e-01 9.170945e-01 9.581974e-01 9.811554e-01 9.924045e-01 9.972541e-01 9.991071e-01 9.997380e-01 9.999275e-01 
9.999484e-01 9.998829e-01 9.995684e-01 9.985194e-01 9.954742e-01 9.876643e-01 9.701139e-01 9.355817e-01 8.764312e-01 7.896556e-01 6.743889e-01 5.313853e-01 3.722345e-01 2.396308e-01 1.856043e-01 2.174159e-01 3.000913e-01 3.950437e-01 4.853370e-01 5.684365e-01 6.414420e-01 7.023640e-01 7.507876e-01 7.877842e-01 8.149122e-01 8.342167e-01 8.475037e-01 8.563699e-01 8.620416e-01 8.654851e-01 8.674429e-01 8.684167e-01 8.687355e-01 8.684285e-01 8.674608e-01 8.655229e-01 8.620747e-01 8.564159e-01 8.475349e-01 8.342503e-01 8.149182e-01 7.877459e-01 7.507633e-01 7.023401e-01 6.414008e-01 5.684340e-01 4.854084e-01 3.950350e-01 2.999980e-01 2.174009e-01 1.856341e-01 2.396290e-01 3.721289e-01 5.311649e-01 6.741969e-01 7.895613e-01 8.763806e-01 9.355562e-01 9.701025e-01 9.876599e-01 9.954727e-01 9.985189e-01 9.995682e-01 9.998829e-01 
9.999221e-01 9.998180e-01 9.993151e-01 9.976343e-01 9.927984e-01 9.806133e-01 9.540649e-01 9.039015e-01 8.223751e-01 7.088380e-01 5.620868e-01 3.906622e-01 2.426311e-01 1.852382e-01 2.301534e-01 3.230960e-01 4.227882e-01 5.170564e-01 6.037340e-01 6.806981e-01 7.464026e-01 7.995615e-01 8.403419e-01 8.702743e-01 8.913892e-01 9.058368e-01 9.154069e-01 9.215484e-01 9.253291e-01 9.275431e-01 9.287585e-01 9.293472e-01 9.295348e-01 9.293556e-01 9.287715e-01 9.275665e-01 9.253512e-01 9.215748e-01 9.154223e-01 9.058485e-01 8.913879e-01 8.702557e-01 8.403251e-01 7.995429e-01 7.463852e-01 6.806952e-01 6.037498e-01 5.170079e-01 4.227323e-01 3.231355e-01 2.302585e-01 1.852864e-01 2.424389e-01 3.903836e-01 5.618572e-01 7.087126e-01 8.223124e-01 9.038661e-01 9.540481e-01 9.806064e-01 9.927959e-01 9.976335e-01 9.993148e-01 9.998179e-01 
9.998871e-01 9.997285e-01 9.989582e-01 9.963818e-01 9.890457e-01 9.709128e-01 9.326884e-01 8.632710e-01 7.565172e-01 6.149073e-01 4.370451e-01 2.665653e-01 1.852450e-01 2.256602e-01 3.221501e-01 4.241521e-01 5.202321e-01 6.085774e-01 6.888050e-01 7.590570e-01 8.172646e-01 8.628436e-01 8.967442e-01 9.209602e-01 9.376386e-01 9.487743e-01 9.559627e-01 9.604503e-01 9.631391e-01 9.646756e-01 9.655008e-01 9.658950e-01 9.660168e-01 9.658997e-01 9.655080e-01 9.646877e-01 9.631506e-01 9.604632e-01 9.559702e-01 9.487789e-01 9.376375e-01 9.209527e-01 8.967361e-01 8.628343e-01 8.172580e-01 7.590544e-01 6.888116e-01 6.085649e-01 5.202341e-01 4.242007e-01 3.222509e-01 2.257593e-01 1.851860e-01 2.664551e-01 4.368525e-01 6.148451e-01 7.565068e-01 8.632557e-01 9.326776e-01 9.709072e-01 9.890433e-01 9.963810e-01 9.989580e-01 9.997284e-01 
9.998433e-01 9.996123e-01 9.984857e-01 9.947217e-01 9.841307e-01 9.585041e-01 9.063533e-01 8.152679e-01 6.834701e-01 5.133631e-01 3.208933e-01 1.952024e-01 2.055164e-01 2.999879e-01 4.027498e-01 5.001817e-01 5.895907e-01 6.716254e-01 7.450997e-01 8.082370e-01 8.595631e-01 8.991202e-01 9.281908e-01 9.487167e-01 9.626701e-01 9.718216e-01 9.776018e-01 9.811170e-01 9.831667e-01 9.843076e-01 9.849062e-01 9.851874e-01 9.852719e-01 9.851895e-01 9.849097e-01 9.843130e-01 9.831718e-01 9.811224e-01 9.776049e-01 9.718233e-01 9.626694e-01 9.487139e-01 9.281877e-01 8.991171e-01 8.595622e-01 8.082373e-01 7.451035e-01 6.716206e-01 5.895975e-01 5.002060e-01 4.027879e-01 2.999694e-01 2.054301e-01 1.951899e-01 3.207736e-01 5.133821e-01 6.834939e-01 8.152608e-01 9.063410e-01 9.584974e-01 9.841276e-01 9.947206e-01 9.984853e-01 9.996122e-01 
9.997918e-01 9.994713e-01 9.979031e-01 9.926800e-01 9.781709e-01 9.438616e-01 8.764495e-01 7.632302e-01 6.088934e-01 4.139741e-01 2.378631e-01 1.835169e-01 2.590784e-01 3.627562e-01 4.614233e-01 5.527088e-01 6.360993e-01 7.116822e-01 7.787630e-01 8.358110e-01 8.819376e-01 9.174846e-01 9.436797e-01 9.621832e-01 9.747039e-01 9.828238e-01 9.878667e-01 9.908683e-01 9.925783e-01 9.935087e-01 9.939871e-01 9.942085e-01 9.942735e-01 9.942093e-01 9.939885e-01 9.935108e-01 9.925803e-01 9.908704e-01 9.878681e-01 9.828247e-01 9.747042e-01 9.621833e-01 9.436804e-01 9.174867e-01 8.819426e-01 8.358194e-01 7.787789e-01 7.117038e-01 6.361433e-01 5.527760e-01 4.615183e-01 3.628311e-01 2.592138e-01 1.835875e-01 2.377779e-01 4.141465e-01 6.090239e-01 7.632600e-01 8.764485e-01 9.438579e-01 9.781685e-01 9.926789e-01 9.979027e-01 9.994712e-01 
9.997359e-01 9.993137e-01 9.972424e-01 9.903797e-01 9.715412e-01 9.281106e-01 8.452057e-01 7.121727e-01 5.374992e-01 3.321127e-01 1.950427e-01 2.078191e-01 3.086747e-01 4.072978e-01 5.015801e-01 5.875040e-01 6.655046e-01 7.354262e-01 7.970038e-01 8.493755e-01 8.920998e-01 9.254599e-01 9.503219e-01 9.679744e-01 9.798961e-01 9.875590e-01 9.922498e-01 9.949887e-01 9.965150e-01 9.973262e-01 9.977338e-01 9.979187e-01 9.979720e-01 9.979190e-01 9.977344e-01 9.973269e-01 9.965157e-01 9.949895e-01 9.922504e-01 9.875598e-01 9.798969e-01 9.679758e-01 9.503243e-01 9.254642e-01 8.921071e-01 8.493867e-01 7.970225e-01 7.354532e-01 6.655528e-01 5.875745e-01 5.016807e-01 4.074177e-01 3.087993e-01 2.077984e-01 1.949681e-01 3.322802e-01 5.375828e-01 7.121786e-01 8.451963e-01 9.281061e-01 9.715389e-01 9.903788e-01 9.972421e-01 9.993136e-01 
9.996808e-01 9.991543e-01 9.965677e-01 9.880500e-01 9.649157e-01 9.128872e-01 8.158306e-01 6.670056e-01 4.754312e-01 2.755843e-01 1.830310e-01 2.409673e-01 3.432820e-01 4.376805e-01 5.277748e-01 6.098286e-01 6.833413e-01 7.485031e-01 8.057485e-01 8.549101e-01 8.957283e-01 9.281688e-01 9.526473e-01 9.701160e-01 9.818942e-01 9.894089e-01 9.939543e-01 9.965670e-01 9.979961e-01 9.987403e-01 9.991066e-01 9.992695e-01 9.993158e-01 9.992696e-01 9.991068e-01 9.987406e-01 9.979964e-01 9.965673e-01 9.939548e-01 9.894097e-01 9.818954e-01 9.701181e-01 9.526507e-01 9.281744e-01 8.957368e-01 8.549225e-01 8.057672e-01 7.485285e-01 6.833797e-01 6.098753e-01 5.278312e-01 4.377410e-01 3.433571e-01 2.411201e-01 1.833378e-01 2.757940e-01 4.753987e-01 6.669466e-01 8.158014e-01 9.128775e-01 9.649122e-01 9.880487e-01 9.965672e-01 9.991541e-01 
9.996331e-01 9.990136e-01 9.959685e-01 9.859978e-01 9.591611e-01 9.000040e-01 7.917460e-01 6.313439e-01 4.289730e-01 2.420208e-01 1.867776e-01 2.683353e-01 3.651417e-01 4.570053e-01 5.440994e-01 6.235020e-01 6.935701e-01 7.551227e-01 8.092607e-01 8.564374e-01 8.963561e-01 9.285945e-01 9.531509e-01 9.707316e-01 9.825628e-01 9.900680e-01 9.945677e-01 9.971247e-01 9.985046e-01 9.992122e-01 9.995547e-01 9.997047e-01 9.997468e-01 9.997048e-01 9.995548e-01 9.992123e-01 9.985048e-01 9.971250e-01 9.945681e-01 9.900688e-01 9.825641e-01 9.707339e-01 9.531545e-01 9.286000e-01 8.963640e-01 8.564475e-01 8.092743e-01 7.551377e-01 6.935886e-01 6.235148e-01 5.441064e-01 4.569930e-01 3.651155e-01 2.682732e-01 1.868616e-01 2.421569e-01 4.289879e-01 6.313319e-01 7.917525e-01 9.000108e-01 9.591642e-01 9.859985e-01 9.959685e-01 9.990136e-01 
9.995998e-01 9.989145e-01 9.955448e-01 9.845548e-01 9.551603e-01 8.911983e-01 7.757330e-01 6.081340e-01 4.008281e-01 2.252472e-01 1.938001e-01 2.852223e-01 3.774473e-01 4.678001e-01 5.531087e-01 6.309490e-01 6.988045e-01 7.580615e-01 8.103273e-01 8.564564e-01 8.960403e-01 9.283437e-01 9.530859e-01 9.708261e-01 9.827469e-01 9.902809e-01 9.947733e-01 9.973086e-01 9.986657e-01 9.993550e-01 9.996854e-01 9.998287e-01 9.998687e-01 9.998287e-01 9.996855e-01 9.993551e-01 9.986658e-01 9.973089e-01 9.947738e-01 9.902818e-01 9.827484e-01 9.708286e-01 9.530898e-01 9.283494e-01 8.960480e-01 8.564655e-01 8.103378e-01 7.580700e-01 6.988104e-01 6.309413e-01 5.530853e-01 4.677455e-01 3.773638e-01 2.850426e-01 1.935989e-01 2.251359e-01 4.008116e-01 6.081594e-01 7.757648e-01 8.912147e-01 9.551656e-01 9.845557e-01 9.955447e-01 9.989144e-01 
9.995874e-01 9.988771e-01 9.953845e-01 9.840095e-01 9.536578e-01 8.879140e-01 7.698818e-01 5.998164e-01 3.913488e-01 2.201537e-01 1.969230e-01 2.910577e-01 3.816198e-01 4.713466e-01 5.560543e-01 6.333513e-01 7.004399e-01 7.588887e-01 8.105134e-01 8.563141e-01 8.958212e-01 9.281800e-01 9.530078e-01 9.708171e-01 9.827776e-01 9.903273e-01 9.948209e-01 9.973511e-01 9.987018e-01 9.993858e-01 9.997126e-01 9.998538e-01 9.998931e-01 9.998538e-01 9.997126e-01 9.993859e-01 9.987019e-01 9.973514e-01 9.948213e-01 9.903281e-01 9.827790e-01 9.708196e-01 9.530116e-01 9.281854e-01 8.958282e-01 8.563218e-01 8.105215e-01 7.588930e-01 7.004394e-01 6.333352e-01 5.560203e-01 4.712835e-01 3.815346e-01 2.909142e-01 1.967163e-01 2.199761e-01 3.913322e-01 5.998793e-01 7.699451e-01 8.879460e-01 9.536699e-01 9.840126e-01 9.953851e-01 9.988771e-01 
9.995998e-01 9.989145e-01 9.955448e-01 9.845548e-01 9.551603e-01 8.911983e-01 7.757330e-01 6.081340e-01 4.008281e-01 2.252472e-01 1.938001e-01 2.852223e-01 3.774473e-01 4.678001e-01 5.531087e-01 6.309490e-01 6.988045e-01 7.580615e-01 8.103273e-01 8.564564e-01 8.960403e-01 9.283437e-01 9.530859e-01 9.708261e-01 9.827469e-01 9.902809e-01 9.947733e-01 9.973086e-01 9.986657e-01 9.993550e-01 9.996854e-01 9.998287e-01 9.998687e-01 9.998287e-01 9.996855e-01 9.993551e-01 9.986658e-01 9.973089e-01 9.947738e-01 9.902818e-01 9.827484e-01 9.708286e-01 9.530898e-01 9.283494e-01 8.960480e-01 8.564655e-01 8.103378e-01 7.580700e-01 6.988104e-01 6.309413e-01 5.530853e-01 4.677455e-01 3.773638e-01 2.850426e-01 1.935989e-01 2.251359e-01 4.008116e-01 6.081594e-01 7.757648e-01 8.912147e-01 9.551656e-01 9.845557e-01 9.955447e-01 9.989144e-01 
9.996331e-01 9.990136e-01 9.959685e-01 9.859978e-01 9.591611e-01 9.000040e-01 7.917460e-01 6.313439e-01 4.289730e-01 2.420208e-01 1.867776e-01 2.683353e-01 3.651417e-01 4.570053e-01 5.440994e-01 6.235020e-01 6.935701e-01 7.551227e-01 8.092607e-01 8.564374e-01 8.963561e-01 9.285945e-01 9.531509e-01 9.707316e-01 9.825628e-01 9.900680e-01 9.945677e-01 9.971247e-01 9.985046e-01 9.992122e-01 9.995547e-01 9.997047e-01 9.997468e-01 9.997048e-01 9.995548e-01 9.992123e-01 9.985048e-01 9.971250e-01 9.945681e-01 9.900688e-01 9.825641e-01 9.707339e-01 9.531545e-01 9.286000e-01 8.963640e-01 8.564475e-01 8.092743e-01 7.551377e-01 6.935886e-01 6.235148e-01 5.441064e-01 4.569930e-01 3.651155e-01 2.682732e-01 1.868616e-01 2.421569e-01 4.289879e-01 6.313319e-01 7.917525e-01 9.000108e-01 9.591642e-01 9.859985e-01 9.959685e-01 9.990136e-01 