# vtk DataFile Version 2.0
Comment goes here
ASCII

DATASET STRUCTURED_POINTS
FIELD FieldData 1
TIME 1 1 double
0.20000000
DIMENSIONS    64   64   1

ORIGIN    0.000   0.000   0.000
SPACING   0.015625 0.015625   1.000

POINT_DATA   4096
SCALARS Concentration double
LOOKUP_TABLE default

1.000000e+00 1.000000e+00 1.000000e+00 1.000000e+00 9.999999e-01 9.999997e-01 9.999995e-01 9.999989e-01 9.999979e-01 9.999961e-01 9.999930e-01 9.999881e-01 9.999804e-01 9.999689e-01 9.999522e-01 9.999288e-01 9.998965e-01 9.998526e-01 9.997933e-01 9.997130e-01 9.996036e-01 9.994532e-01 9.992451e-01 9.989569e-01 9.985614e-01 9.980297e-01 9.973397e-01 9.964902e-01 9.955184e-01 9.945130e-01 9.936129e-01 9.929799e-01 9.927497e-01 9.929799e-01 9.936129e-01 9.945130e-01 9.955185e-01 9.964903e-01 9.973398e-01 9.980298e-01 9.985616e-01 9.989571e-01 9.992452e-01 9.994533e-01 9.996037e-01 9.997131e-01 9.997933e-01 9.998526e-01 9.998965e-01 9.999288e-01 9.999522e-01 9.999689e-01 9.999804e-01 9.999881e-01 9.999930e-01 9.999961e-01 9.999979e-01 9.999989e-01 9.999995e-01 9.999997e-01 9.999999e-01 1.000000e+00 1.000000e+00 1.000000e+00 
1.000000e+00 1.000000e+00 1.000000e+00 9.999999e-01 9.999998e-01 9.999996e-01 9.999992e-01 9.999985e-01 9.999970e-01 9.999945e-01 9.999903e-01 9.999836e-01 9.999732e-01 9.999579e-01 9.999360e-01 9.999056e-01 9.998644e-01 9.998093e-01 9.997365e-01 9.996402e-01 9.995118e-01 9.993391e-01 9.991049e-01 9.987860e-01 9.983542e-01 9.977797e-01 9.970397e-01 9.961335e-01 9.951005e-01 9.940342e-01 9.930809e-01 9.924111e-01 9.921675e-01 9.924110e-01 9.930808e-01 9.940342e-01 9.951006e-01 9.961337e-01 9.970399e-01 9.977798e-01 9.983544e-01 9.987862e-01 9.991050e-01 9.993392e-01 9.995119e-01 9.996402e-01 9.997366e-01 9.998093e-01 9.998644e-01 9.999056e-01 9.999360e-01 9.999579e-01 9.999732e-01 9.999836e-01 9.999903e-01 9.999945e-01 9.999970e-01 9.999985e-01 9.999992e-01 9.999996e-01 9.999998e-01 9.999999e-01 1.000000e+00 1.000000e+00 
1.000000e+00 1.000000e+00 9.999999e-01 9.999998e-01 9.999996e-01 9.999992e-01 9.999984e-01 9.999968e-01 9.999939e-01 9.999888e-01 9.999805e-01 9.999674e-01 9.999475e-01 9.999187e-01 9.998785e-01 9.998240e-01 9.997523e-01 9.996597e-01 9.995419e-01 9.993928e-01 9.992033e-01 9.989602e-01 9.986447e-01 9.982316e-01 9.976901e-01 9.969874e-01 9.960989e-01 9.950248e-01 9.938108e-01 9.925646e-01 9.914542e-01 9.906756e-01 9.903926e-01 9.906755e-01 9.914542e-01 9.925647e-01 9.938109e-01 9.950249e-01 9.960991e-01 9.969876e-01 9.976904e-01 9.982318e-01 9.986448e-01 9.989603e-01 9.992034e-01 9.993928e-01 9.995419e-01 9.996597e-01 9.997523e-01 9.998240e-01 9.998785e-01 9.999187e-01 9.999475e-01 9.999674e-01 9.999805e-01 9.999888e-01 9.999939e-01 9.999968e-01 9.999984e-01 9.999992e-01 9.999996e-01 9.999998e-01 9.999999e-01 1.000000e+00 
1.000000e+00 9.999999e-01 9.999998e-01 9.999996e-01 9.999992e-01 9.999982e-01 9.999964e-01 9.999928e-01 9.999864e-01 9.999755e-01 9.999578e-01 9.999302e-01 9.998891e-01 9.998305e-01 9.997503e-01 9.996441e-01 9.995079e-01 9.993371e-01 9.991280e-01 9.988745e-01 9.985676e-01 9.981930e-01 9.977307e-01 9.971523e-01 9.964231e-01 9.955056e-01 9.943718e-01 9.930226e-01 9.915138e-01 9.899755e-01 9.886102e-01 9.876549e-01 9.873078e-01 9.876548e-01 9.886102e-01 9.899756e-01 9.915140e-01 9.930229e-01 9.943722e-01 9.955061e-01 9.964236e-01 9.971527e-01 9.977310e-01 9.981933e-01 9.985677e-01 9.988746e-01 9.991280e-01 9.993371e-01 9.995078e-01 9.996441e-01 9.997503e-01 9.998305e-01 9.998891e-01 9.999302e-01 9.999578e-01 9.999755e-01 9.999864e-01 9.999928e-01 9.999963e-01 9.999982e-01 9.999992e-01 9.999996e-01 9.999998e-01 9.999999e-01 
9.999999e-01 9.999998e-01 9.999996e-01 9.999992e-01 9.999982e-01 9.999960e-01 9.999919e-01 9.999841e-01 9.999703e-01 9.999470e-01 9.999096e-01 9.998522e-01 9.997679e-01 9.996498e-01 9.994906e-01 9.992843e-01 9.990255e-01 9.987096e-01 9.983352e-01 9.978986e-01 9.973925e-01 9.968039e-01 9.961116e-01 9.952847e-01 9.942833e-01 9.930632e-01 9.915909e-01 9.898675e-01 9.879609e-01 9.860299e-01 9.843227e-01 9.831305e-01 9.826975e-01 9.831304e-01 9.843227e-01 9.860300e-01 9.879612e-01 9.898681e-01 9.915916e-01 9.930640e-01 9.942841e-01 9.952855e-01 9.961122e-01 9.968043e-01 9.973927e-01 9.978986e-01 9.983351e-01 9.987095e-01 9.990254e-01 9.992842e-01 9.994906e-01 9.996497e-01 9.997679e-01 9.998521e-01 9.999096e-01 9.999470e-01 9.999703e-01 9.999841e-01 9.999919e-01 9.999960e-01 9.999982e-01 9.999992e-01 9.999996e-01 9.999998e-01 
9.999998e-01 9.999996e-01 9.999992e-01 9.999982e-01 9.999959e-01 9.999913e-01 9.999824e-01 9.999659e-01 9.999370e-01 9.998887e-01 9.998119e-01 9.996958e-01 9.995279e-01 9.992959e-01 9.989888e-01 9.985980e-01 9.981181e-01 9.975463e-01 9.968880e-01 9.961469e-01 9.953222e-01 9.944049e-01 9.933758e-01 9.922014e-01 9.908359e-01 9.892259e-01 9.873297e-01 9.851465e-01 9.827567e-01 9.803523e-01 9.782346e-01 9.767583e-01 9.762218e-01 9.767582e-01 9.782345e-01 9.803524e-01 9.827572e-01 9.851475e-01 9.873311e-01 9.892274e-01 9.908374e-01 9.922027e-01 9.933768e-01 9.944056e-01 9.953225e-01 9.961470e-01 9.968878e-01 9.975460e-01 9.981178e-01 9.985977e-01 9.989886e-01 9.992958e-01 9.995278e-01 9.996957e-01 9.998119e-01 9.998886e-01 9.999369e-01 9.999659e-01 9.999824e-01 9.999913e-01 9.999959e-01 9.999982e-01 9.999992e-01 9.999996e-01 
9.999995e-01 9.999992e-01 9.999983e-01 9.999961e-01 9.999913e-01 9.999817e-01 9.999631e-01 9.999291e-01 9.998702e-01 9.997731e-01 9.996208e-01 9.993934e-01 9.990694e-01 9.986286e-01 9.980548e-01 9.973379e-01 9.964757e-01 9.954717e-01 9.943463e-01 9.931197e-01 9.918049e-01 9.904028e-01 9.888992e-01 9.872589e-01 9.854286e-01 9.833422e-01 9.809458e-01 9.782340e-01 9.752990e-01 9.723676e-01 9.697967e-01 9.680083e-01 9.673576e-01 9.680081e-01 9.697965e-01 9.723677e-01 9.752999e-01 9.782355e-01 9.809481e-01 9.833447e-01 9.854311e-01 9.872611e-01 9.889008e-01 9.904039e-01 9.918052e-01 9.931197e-01 9.943459e-01 9.954711e-01 9.964751e-01 9.973374e-01 9.980544e-01 9.986283e-01 9.990692e-01 9.993933e-01 9.996207e-01 9.997730e-01 9.998702e-01 9.999291e-01 9.999630e-01 9.999816e-01 9.999913e-01 9.999961e-01 9.999983e-01 9.999992e-01 
9.999989e-01 9.999984e-01 9.999964e-01 9.999918e-01 9.999820e-01 9.999623e-01 9.999248e-01 9.998571e-01 9.997410e-01 9.995521e-01 9.992596e-01 9.988289e-01 9.982244e-01 9.974149e-01 9.963790e-01 9.951088e-01 9.936120e-01 9.919081e-01 9.900444e-01 9.880724e-01 9.860297e-01 9.839343e-01 9.817801e-01 9.795300e-01 9.771198e-01 9.744657e-01 9.714978e-01 9.682030e-01 9.646846e-01 9.612027e-01 9.581666e-01 9.560607e-01 9.552930e-01 9.560602e-01 9.581661e-01 9.612026e-01 9.646857e-01 9.682052e-01 9.715013e-01 9.744698e-01 9.771240e-01 9.795337e-01 9.817829e-01 9.839360e-01 9.860303e-01 9.880722e-01 9.900434e-01 9.919070e-01 9.936108e-01 9.951077e-01 9.963782e-01 9.974143e-01 9.982240e-01 9.988286e-01 9.992595e-01 9.995519e-01 9.997409e-01 9.998570e-01 9.999248e-01 9.999623e-01 9.999820e-01 9.999918e-01 9.999964e-01 9.999984e-01 
9.999977e-01 9.999966e-01 9.999927e-01 9.999834e-01 9.999639e-01 9.999249e-01 9.998516e-01 9.997207e-01 9.994992e-01 9.991432e-01 9.985999e-01 9.978111e-01 9.967211e-01 9.952855e-01 9.934808e-01 9.913107e-01 9.888069e-01 9.860224e-01 9.830424e-01 9.799721e-01 9.768853e-01 9.738225e-01 9.707865e-01 9.677341e-01 9.645864e-01 9.612374e-01 9.576002e-01 9.536556e-01 9.495189e-01 9.454806e-01 9.419911e-01 9.395827e-01 9.387024e-01 9.395814e-01 9.419896e-01 9.454796e-01 9.495198e-01 9.536583e-01 9.576054e-01 9.612436e-01 9.645931e-01 9.677401e-01 9.707910e-01 9.738254e-01 9.768862e-01 9.799716e-01 9.830405e-01 9.860200e-01 9.888045e-01 9.913086e-01 9.934792e-01 9.952843e-01 9.967203e-01 9.978106e-01 9.985995e-01 9.991430e-01 9.994990e-01 9.997206e-01 9.998515e-01 9.999249e-01 9.999639e-01 9.999834e-01 9.999927e-01 9.999966e-01 
9.999953e-01 9.999932e-01 9.999855e-01 9.999674e-01 9.999295e-01 9.998549e-01 9.997159e-01 9.994708e-01 9.990614e-01 9.984124e-01 9.974357e-01 9.960392e-01 9.941405e-01 9.916833e-01 9.886522e-01 9.850806e-01 9.810489e-01 9.766703e-01 9.720750e-01 9.674432e-01 9.628954e-01 9.584963e-01 9.542529e-01 9.501089e-01 9.459662e-01 9.416949e-01 9.371975e-01 9.324581e-01 9.276112e-01 9.229755e-01 9.190268e-01 9.163245e-01 9.153335e-01 9.163216e-01 9.190226e-01 9.229716e-01 9.276105e-01 9.324603e-01 9.372043e-01 9.417036e-01 9.459766e-01 9.501183e-01 9.542601e-01 9.585014e-01 9.628972e-01 9.674429e-01 9.720723e-01 9.766666e-01 9.810449e-01 9.850770e-01 9.886493e-01 9.916812e-01 9.941391e-01 9.960382e-01 9.974350e-01 9.984120e-01 9.990611e-01 9.994707e-01 9.997158e-01 9.998548e-01 9.999295e-01 9.999674e-01 9.999855e-01 9.999932e-01 
9.999909e-01 9.999868e-01 9.999720e-01 9.999377e-01 9.998664e-01 9.997277e-01 9.994724e-01 9.990279e-01 9.982950e-01 9.971492e-01 9.954505e-01 9.930599e-01 9.898653e-01 9.858071e-01 9.809009e-01 9.752429e-01 9.689983e-01 9.623699e-01 9.555549e-01 9.487750e-01 9.422133e-01 9.359469e-01 9.299721e-01 9.242113e-01 9.185550e-01 9.128664e-01 9.070659e-01 9.011681e-01 8.953444e-01 8.899409e-01 8.854398e-01 8.824026e-01 8.812846e-01 8.823961e-01 8.854292e-01 8.899299e-01 8.953383e-01 9.011668e-01 9.070730e-01 9.128775e-01 9.185700e-01 9.242253e-01 9.299833e-01 9.359557e-01 9.422169e-01 9.487756e-01 9.555510e-01 9.623642e-01 9.689916e-01 9.752365e-01 9.808957e-01 9.858032e-01 9.898626e-01 9.930581e-01 9.954493e-01 9.971484e-01 9.982945e-01 9.990276e-01 9.994722e-01 9.997276e-01 9.998664e-01 9.999376e-01 9.999720e-01 9.999868e-01 
9.999827e-01 9.999751e-01 9.999475e-01 9.998842e-01 9.997543e-01 9.995042e-01 9.990497e-01 9.982686e-01 9.969981e-01 9.950404e-01 9.921819e-01 9.882257e-01 9.830335e-01 9.765671e-01 9.689135e-01 9.602800e-01 9.509595e-01 9.412677e-01 9.314818e-01 9.217874e-01 9.123918e-01 9.033931e-01 8.947734e-01 8.864432e-01 8.783078e-01 8.702512e-01 8.622607e-01 8.544269e-01 8.469927e-01 8.403444e-01 8.349644e-01 8.314057e-01 8.300907e-01 8.313911e-01 8.349394e-01 8.403175e-01 8.469736e-01 8.544159e-01 8.622654e-01 8.702631e-01 8.783284e-01 8.864627e-01 8.947893e-01 9.034074e-01 9.123988e-01 9.217911e-01 9.314791e-01 9.412610e-01 9.509504e-01 9.602704e-01 9.689053e-01 9.765606e-01 9.830290e-01 9.882225e-01 9.921799e-01 9.950390e-01 9.969971e-01 9.982680e-01 9.990492e-01 9.995039e-01 9.997542e-01 9.998842e-01 9.999474e-01 9.999750e-01 
9.999680e-01 9.999540e-01 9.999042e-01 9.997910e-01 9.995611e-01 9.991239e-01 9.983399e-01 9.970103e-01 9.948775e-01 9.916387e-01 9.869837e-01 9.806514e-01 9.724980e-01 9.625525e-01 9.510359e-01 9.383258e-01 9.248755e-01 9.111115e-01 8.973481e-01 8.837441e-01 8.702882e-01 8.571273e-01 8.442451e-01 8.315978e-01 8.192135e-01 8.070962e-01 7.953965e-01 7.843526e-01 7.743062e-01 7.656676e-01 7.588964e-01 7.545193e-01 7.528963e-01 7.544915e-01 7.588459e-01 7.656126e-01 7.742633e-01 7.843230e-01 7.953947e-01 8.071077e-01 8.192424e-01 8.316237e-01 8.442658e-01 8.571490e-01 8.703002e-01 8.837542e-01 8.973487e-01 9.111046e-01 9.248632e-01 9.383109e-01 9.510223e-01 9.625411e-01 9.724898e-01 9.806456e-01 9.869799e-01 9.916361e-01 9.948757e-01 9.970091e-01 9.983391e-01 9.991235e-01 9.995608e-01 9.997908e-01 9.999041e-01 9.999540e-01 
9.999421e-01 9.999175e-01 9.998299e-01 9.996334e-01 9.992389e-01 9.984987e-01 9.971887e-01 9.949976e-01 9.915316e-01 9.863460e-01 9.790123e-01 9.692135e-01 9.568447e-01 9.420757e-01 9.253379e-01 9.072219e-01 8.883374e-01 8.691545e-01 8.499384e-01 8.307120e-01 8.112590e-01 7.915769e-01 7.719891e-01 7.526947e-01 7.339353e-01 7.158114e-01 6.986890e-01 6.830059e-01 6.692148e-01 6.577348e-01 6.489885e-01 6.434565e-01 6.414025e-01 6.434095e-01 6.488985e-01 6.576391e-01 6.691378e-01 6.829502e-01 6.986814e-01 7.158243e-01 7.339792e-01 7.527282e-01 7.720103e-01 7.916041e-01 8.112745e-01 8.307327e-01 8.499486e-01 8.691528e-01 8.883259e-01 9.072033e-01 9.253192e-01 9.420586e-01 9.568318e-01 9.692040e-01 9.790058e-01 9.863415e-01 9.915284e-01 9.949953e-01 9.971872e-01 9.984977e-01 9.992384e-01 9.996331e-01 9.998298e-01 9.999174e-01 
9.998980e-01 9.998557e-01 9.997064e-01 9.993752e-01 9.987193e-01 9.975054e-01 9.953870e-01 9.918921e-01 9.864414e-01 9.784071e-01 9.672314e-01 9.525744e-01 9.344488e-01 9.132592e-01 8.897081e-01 8.645936e-01 8.385954e-01 8.121205e-01 7.852960e-01 7.580453e-01 7.301649e-01 7.013273e-01 6.722776e-01 6.437655e-01 6.165395e-01 5.909118e-01 5.675157e-01 5.469451e-01 5.295476e-01 5.154808e-01 5.050076e-01 4.985050e-01 4.960951e-01 4.984446e-01 5.048836e-01 5.153486e-01 5.294373e-01 5.468655e-01 5.675088e-01 5.909387e-01 6.166177e-01 6.438103e-01 6.722963e-01 7.013620e-01 7.301844e-01 7.580806e-01 7.853201e-01 8.121258e-01 8.385850e-01 8.645684e-01 8.896800e-01 9.132315e-01 9.344268e-01 9.525578e-01 9.672199e-01 9.783990e-01 9.864357e-01 9.918882e-01 9.953843e-01 9.975037e-01 9.987183e-01 9.993746e-01 9.997061e-01 9.998556e-01 
9.998244e-01 9.997539e-01 9.995069e-01 9.989657e-01 9.979095e-01 9.959833e-01 9.926703e-01 9.872816e-01 9.789962e-01 9.669691e-01 9.505238e-01 9.293693e-01 9.037412e-01 8.743669e-01 8.422230e-01 8.082252e-01 7.730133e-01 7.368195e-01 6.996910e-01 6.614620e-01 6.218908e-01 5.812492e-01 5.416070e-01 5.043818e-01 4.700723e-01 4.384478e-01 4.103662e-01 3.864097e-01 3.666072e-01 3.508936e-01 3.394512e-01 3.325038e-01 3.299737e-01 3.324344e-01 3.393047e-01 3.507403e-01 3.664825e-01 3.863313e-01 4.103866e-01 4.385083e-01 4.701995e-01 5.044314e-01 5.416037e-01 5.812765e-01 6.218947e-01 6.615114e-01 6.997392e-01 7.368410e-01 7.730146e-01 8.082005e-01 8.421896e-01 8.743295e-01 9.037089e-01 9.293436e-01 9.505051e-01 9.669556e-01 9.789864e-01 9.872746e-01 9.926654e-01 9.959801e-01 9.979075e-01 9.989646e-01 9.995064e-01 9.997537e-01 
9.997048e-01 9.995907e-01 9.991942e-01 9.983372e-01 9.966913e-01 9.937371e-01 9.887324e-01 9.807088e-01 9.685511e-01 9.511790e-01 9.278486e-01 8.984282e-01 8.634968e-01 8.241403e-01 7.815299e-01 7.365739e-01 6.897646e-01 6.412403e-01 5.911519e-01 5.400648e-01 4.890062e-01 4.386446e-01 3.903287e-01 3.458104e-01 3.060196e-01 2.714989e-01 2.432784e-01 2.211293e-01 2.045736e-01 1.926385e-01 1.846270e-01 1.800690e-01 1.784948e-01 1.800301e-01 1.845264e-01 1.924917e-01 2.044447e-01 2.210744e-01 2.433269e-01 2.716229e-01 3.061879e-01 3.458100e-01 3.902969e-01 4.386850e-01 4.889699e-01 5.401228e-01 5.912245e-01 6.412648e-01 6.897671e-01 7.365380e-01 7.814811e-01 8.240841e-01 8.634460e-01 8.983866e-01 9.278176e-01 9.511567e-01 9.685349e-01 9.806971e-01 9.887241e-01 9.937316e-01 9.966879e-01 9.983353e-01 9.991932e-01 9.995903e-01 
9.995147e-01 9.993355e-01 9.987176e-01 9.974029e-01 9.949220e-01 9.905462e-01 9.832536e-01 9.717406e-01 9.545624e-01 9.304242e-01 8.986102e-01 8.592897e-01 8.134532e-01 7.625143e-01 7.077104e-01 6.499385e-01 5.897520e-01 5.275410e-01 4.644752e-01 4.011489e-01 3.375010e-01 2.776584e-01 2.266658e-01 1.877915e-01 1.607121e-01 1.447084e-01 1.370798e-01 1.344575e-01 1.350966e-01 1.367406e-01 1.385473e-01 1.398285e-01 1.402544e-01 1.398326e-01 1.385262e-01 1.366445e-01 1.349711e-01 1.343963e-01 1.371221e-01 1.449287e-01 1.608848e-01 1.876987e-01 2.265651e-01 2.776721e-01 3.373555e-01 4.012135e-01 4.646095e-01 5.275738e-01 5.897637e-01 6.499010e-01 7.076540e-01 7.624449e-01 8.133844e-01 8.592305e-01 8.985635e-01 9.303894e-01 9.545360e-01 9.717210e-01 9.832394e-01 9.905366e-01 9.949160e-01 9.973995e-01 9.987158e-01 9.993348e-01 
9.992197e-01 9.989461e-01 9.980119e-01 9.960585e-01 9.924445e-01 9.861931e-01 9.759599e-01 9.600682e-01 9.367409e-01 9.045269e-01 8.628780e-01 8.123768e-01 7.544578e-01 6.907507e-01 6.225242e-01 5.507691e-01 4.762147e-01 3.992731e-01 3.207966e-01 2.454817e-01 1.835952e-01 1.424398e-01 1.237510e-01 1.242941e-01 1.368482e-01 1.561780e-01 1.758977e-01 1.933861e-01 2.083290e-01 2.190853e-01 2.263568e-01 2.305930e-01 2.319878e-01 2.306628e-01 2.264545e-01 2.190990e-01 2.082413e-01 1.933074e-01 1.758590e-01 1.563780e-01 1.369879e-01 1.241276e-01 1.234906e-01 1.425010e-01 1.836161e-01 2.456781e-01 3.210241e-01 3.992219e-01 4.761665e-01 5.506842e-01 6.224298e-01 6.906519e-01 7.543591e-01 8.122907e-01 8.628083e-01 9.044742e-01 9.367006e-01 9.600377e-01 9.759375e-01 9.861778e-01 9.924349e-01 9.960530e-01 9.980090e-01 9.989449e-01 
9.987703e-01 9.983638e-01 9.969907e-01 9.941753e-01 9.890836e-01 9.804707e-01 9.666573e-01 9.455949e-01 9.152156e-01 8.740099e-01 8.217169e-01 7.593858e-01 6.887516e-01 6.115089e-01 5.287144e-01 4.416482e-01 3.510673e-01 2.585982e-01 1.765993e-01 1.241466e-01 1.094443e-01 1.267632e-01 1.625845e-01 2.047462e-01 2.447661e-01 2.796214e-01 3.066589e-01 3.259080e-01 3.395031e-01 3.483148e-01 3.537697e-01 3.568099e-01 3.578404e-01 3.569083e-01 3.539152e-01 3.484086e-01 3.394985e-01 3.258447e-01 3.065331e-01 2.796624e-01 2.448180e-01 2.046792e-01 1.623693e-01 1.268121e-01 1.095977e-01 1.240899e-01 1.766047e-01 2.583194e-01 3.509600e-01 4.415524e-01 5.286056e-01 6.113964e-01 6.886271e-01 7.592727e-01 8.216204e-01 8.739336e-01 9.151541e-01 9.455464e-01 9.666207e-01 9.804455e-01 9.890678e-01 9.941663e-01 9.969860e-01 9.983618e-01 
9.980989e-01 9.975092e-01 9.955430e-01 9.916017e-01 9.846604e-01 9.732240e-01 9.553052e-01 9.285239e-01 8.905788e-01 8.399625e-01 7.767585e-01 7.023704e-01 6.186967e-01 5.271247e-01 4.284051e-01 3.241613e-01 2.193079e-01 1.339658e-01 1.019391e-01 1.212858e-01 1.723600e-01 2.340344e-01 2.929716e-01 3.428107e-01 3.825576e-01 4.140557e-01 4.376054e-01 4.541649e-01 4.654345e-01 4.724985e-01 4.767000e-01 4.789369e-01 4.796976e-01 4.790396e-01 4.768508e-01 4.726225e-01 4.654735e-01 4.541363e-01 4.374884e-01 4.140248e-01 3.825477e-01 3.427899e-01 2.928160e-01 2.340109e-01 1.725167e-01 1.212502e-01 1.018954e-01 1.339223e-01 2.193856e-01 3.241545e-01 4.283331e-01 5.270251e-01 6.185496e-01 7.022229e-01 7.766278e-01 8.398559e-01 8.904906e-01 9.284528e-01 9.552512e-01 9.731868e-01 9.846374e-01 9.915887e-01 9.955364e-01 9.975065e-01 
9.971107e-01 9.962676e-01 9.935023e-01 9.881043e-01 9.789012e-01 9.642316e-01 9.418702e-01 9.091780e-01 8.636647e-01 8.038042e-01 7.299277e-01 6.435836e-01 5.465742e-01 4.399381e-01 3.240935e-01 2.053177e-01 1.187588e-01 1.038482e-01 1.500234e-01 2.233488e-01 2.991955e-01 3.668408e-01 4.248251e-01 4.731445e-01 5.115215e-01 5.409696e-01 5.620987e-01 5.762034e-01 5.850504e-01 5.901199e-01 5.928408e-01 5.941569e-01 5.945920e-01 5.942407e-01 5.929650e-01 5.902326e-01 5.851045e-01 5.762104e-01 5.620351e-01 5.409305e-01 5.114693e-01 4.730872e-01 4.247397e-01 3.668798e-01 2.993607e-01 2.232262e-01 1.497984e-01 1.038548e-01 1.186996e-01 2.052845e-01 3.240372e-01 4.397855e-01 5.463581e-01 6.433821e-01 7.297512e-01 8.036527e-01 8.635330e-01 9.090686e-01 9.417872e-01 9.641763e-01 9.788680e-01 9.880862e-01 9.934932e-01 9.962640e-01 
9.956905e-01 9.945059e-01 9.906872e-01 9.834339e-01 9.714896e-01 9.531638e-01 9.262451e-01 8.879411e-01 8.353533e-01 7.667751e-01 6.824603e-01 5.836623e-01 4.720751e-01 3.487284e-01 2.197920e-01 1.226827e-01 1.122341e-01 1.719416e-01 2.580733e-01 3.435977e-01 4.217195e-01 4.904627e-01 5.479726e-01 5.940312e-01 6.292467e-01 6.551949e-01 6.731436e-01 6.846770e-01 6.914909e-01 6.951008e-01 6.968259e-01 6.975467e-01 6.977680e-01 6.976088e-01 6.969184e-01 6.951906e-01 6.915438e-01 6.846998e-01 6.731141e-01 6.551557e-01 6.291831e-01 5.939690e-01 5.479276e-01 4.904668e-01 4.217857e-01 3.434676e-01 2.581049e-01 1.722240e-01 1.122285e-01 1.225704e-01 2.195120e-01 3.482846e-01 4.717127e-01 5.833636e-01 6.822162e-01 7.665637e-01 8.351692e-01 8.877906e-01 9.261348e-01 9.530905e-01 9.714456e-01 9.834098e-01 9.906752e-01 9.945012e-01 
9.937010e-01 9.920654e-01 9.868821e-01 9.773007e-01 9.620734e-01 9.396363e-01 9.079550e-01 8.642757e-01 8.055275e-01 7.291723e-01 6.347962e-01 5.228756e-01 3.945538e-01 2.556853e-01 1.417015e-01 1.177966e-01 1.787508e-01 2.710600e-01 3.656363e-01 4.542928e-01 5.329975e-01 5.997456e-01 6.540756e-01 6.965623e-01 7.283180e-01 7.510410e-01 7.662891e-01 7.757378e-01 7.810192e-01 7.835826e-01 7.846184e-01 7.849393e-01 7.850158e-01 7.849809e-01 7.846814e-01 7.836466e-01 7.810623e-01 7.757627e-01 7.662807e-01 7.510153e-01 7.282668e-01 6.965079e-01 6.540416e-01 5.997492e-01 5.330717e-01 4.543245e-01 3.658337e-01 2.712428e-01 1.786431e-01 1.176978e-01 1.413700e-01 2.553554e-01 3.943906e-01 5.226349e-01 6.345144e-01 7.288735e-01 8.052600e-01 8.640610e-01 9.078011e-01 9.395364e-01 9.620144e-01 9.772688e-01 9.868665e-01 9.920593e-01 
9.910094e-01 9.887932e-01 9.818838e-01 9.694391e-01 9.503371e-01 9.233246e-01 8.867117e-01 8.379182e-01 7.735273e-01 6.900969e-01 5.859389e-01 4.598908e-01 3.145574e-01 1.794321e-01 1.229465e-01 1.688563e-01 2.627261e-01 3.638537e-01 4.606775e-01 5.483843e-01 6.244537e-01 6.878335e-01 7.384459e-01 7.772763e-01 8.057572e-01 8.257154e-01 8.388450e-01 8.468276e-01 8.511791e-01 8.532141e-01 8.539642e-01 8.541451e-01 8.541710e-01 8.541714e-01 8.540048e-01 8.532568e-01 8.512103e-01 8.468473e-01 8.388444e-01 8.256998e-01 8.057248e-01 7.772427e-01 7.384340e-01 6.878523e-01 6.245255e-01 5.484486e-01 4.607920e-01 3.639124e-01 2.626767e-01 1.689514e-01 1.229875e-01 1.793834e-01 3.144278e-01 4.595639e-01 5.855200e-01 6.896768e-01 7.731683e-01 8.376455e-01 8.865239e-01 9.232071e-01 9.502695e-01 9.694034e-01 9.818666e-01 9.887865e-01 
9.874949e-01 9.845440e-01 9.754750e-01 9.595183e-01 9.358045e-01 9.035831e-01 8.616741e-01 8.077302e-01 7.378857e-01 6.474123e-01 5.337299e-01 3.926195e-01 2.410932e-01 1.402819e-01 1.493921e-01 2.355701e-01 3.388460e-01 4.411269e-01 5.363856e-01 6.209432e-01 6.929771e-01 7.522567e-01 7.992846e-01 8.351942e-01 8.614225e-01 8.796800e-01 8.916338e-01 8.988934e-01 9.028777e-01 9.047802e-01 9.055147e-01 9.057147e-01 9.057470e-01 9.057302e-01 9.055393e-01 9.048067e-01 9.028984e-01 8.989072e-01 8.916363e-01 8.796736e-01 8.614081e-01 8.351833e-01 7.992934e-01 7.522953e-01 6.930654e-01 6.210609e-01 5.365764e-01 4.413582e-01 3.391045e-01 2.359442e-01 1.495696e-01 1.401471e-01 2.406313e-01 3.918406e-01 5.328651e-01 6.467131e-01 7.373731e-01 8.073817e-01 8.614526e-01 9.034538e-01 9.357352e-01 9.594841e-01 9.754594e-01 9.845382e-01 
9.831305e-01 9.792767e-01 9.675709e-01 9.473750e-01 9.182021e-01 8.800190e-01 8.323559e-01 7.732824e-01 6.983468e-01 6.018467e-01 4.792830e-01 3.262701e-01 1.868978e-01 1.366861e-01 1.944654e-01 2.935379e-01 3.981291e-01 4.985961e-01 5.903838e-01 6.706032e-01 7.386169e-01 7.945794e-01 8.391443e-01 8.733323e-01 8.984244e-01 9.159570e-01 9.275050e-01 9.346058e-01 9.386095e-01 9.406330e-01 9.415129e-01 9.418241e-01 9.418952e-01 9.418329e-01 9.415272e-01 9.406489e-01 9.386227e-01 9.346153e-01 9.275090e-01 9.159572e-01 8.984230e-01 8.733368e-01 8.391644e-01 7.946207e-01 7.386891e-01 6.706955e-01 5.905164e-01 4.987485e-01 3.983039e-01 2.937140e-01 1.945696e-01 1.367213e-01 1.866607e-01 3.255693e-01 4.784263e-01 6.012100e-01 6.978994e-01 7.729941e-01 8.321848e-01 8.799303e-01 9.181622e-01 9.473594e-01 9.675655e-01 9.792751e-01 
9.779987e-01 9.730690e-01 9.582148e-01 9.329559e-01 8.972732e-01 8.520577e-01 7.977770e-01 7.333286e-01 6.535414e-01 5.530233e-01 4.233117e-01 2.703106e-01 1.570938e-01 1.536441e-01 2.366321e-01 3.372257e-01 4.396701e-01 5.364800e-01 6.239636e-01 7.002930e-01 7.652270e-01 8.191041e-01 8.624577e-01 8.960842e-01 9.210190e-01 9.386035e-01 9.503114e-01 9.576278e-01 9.618764e-01 9.641419e-01 9.652277e-01 9.656766e-01 9.657958e-01 9.656814e-01 9.652357e-01 9.641510e-01 9.618846e-01 9.576346e-01 9.503162e-01 9.386083e-01 9.210261e-01 8.960991e-01 8.624864e-01 8.191511e-01 7.653002e-01 7.003912e-01 6.241029e-01 5.366543e-01 4.398722e-01 3.374384e-01 2.367818e-01 1.534797e-01 1.565314e-01 2.696887e-01 4.228097e-01 5.527026e-01 6.533179e-01 7.331934e-01 7.977204e-01 8.520547e-01 8.972935e-01 9.329783e-01 9.582301e-01 9.730757e-01 
9.724180e-01 9.662786e-01 9.478588e-01 9.168052e-01 8.735925e-01 8.201275e-01 7.581680e-01 6.877936e-01 6.039258e-01 5.013603e-01 3.694309e-01 2.260169e-01 1.440217e-01 1.765334e-01 2.669755e-01 3.663095e-01 4.649416e-01 5.577584e-01 6.414159e-01 7.148804e-01 7.779798e-01 8.309730e-01 8.741635e-01 9.080791e-01 9.335144e-01 9.516322e-01 9.638209e-01 9.715406e-01 9.761210e-01 9.786530e-01 9.799393e-01 9.805143e-01 9.806768e-01 9.805169e-01 9.799437e-01 9.786584e-01 9.761264e-01 9.715460e-01 9.638267e-01 9.516402e-01 9.335265e-01 9.080989e-01 8.741937e-01 8.310148e-01 7.780343e-01 7.149419e-01 6.414834e-01 5.578166e-01 4.649652e-01 3.662863e-01 2.668376e-01 1.763204e-01 1.435694e-01 2.255195e-01 3.692000e-01 5.012658e-01 6.038884e-01 6.878191e-01 7.582556e-01 8.202409e-01 8.736959e-01 9.168793e-01 9.479020e-01 9.662968e-01 
9.668931e-01 9.595037e-01 9.373586e-01 9.001481e-01 8.487635e-01 7.860504e-01 7.153603e-01 6.382732e-01 5.514497e-01 4.491443e-01 3.228434e-01 1.935845e-01 1.404199e-01 1.951992e-01 2.860884e-01 3.828242e-01 4.777405e-01 5.670700e-01 6.479708e-01 7.197157e-01 7.820145e-01 8.349706e-01 8.786410e-01 9.133206e-01 9.395841e-01 9.584489e-01 9.712368e-01 9.794063e-01 9.843148e-01 9.870828e-01 9.885322e-01 9.892046e-01 9.894001e-01 9.892060e-01 9.885346e-01 9.870861e-01 9.843187e-01 9.794110e-01 9.712432e-01 9.584585e-01 9.395987e-01 9.133422e-01 8.786708e-01 8.350072e-01 7.820560e-01 7.197526e-01 6.479954e-01 5.670635e-01 4.776904e-01 3.827432e-01 2.860479e-01 1.953965e-01 1.407176e-01 1.936015e-01 3.227483e-01 4.491273e-01 5.515268e-01 6.384548e-01 7.156090e-01 7.863018e-01 8.489677e-01 9.002870e-01 9.374375e-01 9.595366e-01 
9.621365e-01 9.536164e-01 9.280555e-01 8.850815e-01 8.258363e-01 7.538333e-01 6.739827e-01 5.895441e-01 5.000897e-01 4.000805e-01 2.834397e-01 1.697959e-01 1.407270e-01 2.070739e-01 2.972148e-01 3.910996e-01 4.829581e-01 5.696330e-01 6.487332e-01 7.195627e-01 7.816711e-01 8.349816e-01 8.793526e-01 9.148912e-01 9.420048e-01 9.615974e-01 9.749446e-01 9.835117e-01 9.886908e-01 9.916387e-01 9.932038e-01 9.939421e-01 9.941594e-01 9.939429e-01 9.932053e-01 9.916410e-01 9.886940e-01 9.835163e-01 9.749516e-01 9.616085e-01 9.420214e-01 9.149149e-01 8.793838e-01 8.350184e-01 7.817115e-01 7.196007e-01 6.487675e-01 5.696622e-01 4.829966e-01 3.911710e-01 2.973548e-01 2.072807e-01 1.409210e-01 1.698001e-01 2.833437e-01 4.000988e-01 5.002674e-01 5.898499e-01 6.743493e-01 7.541787e-01 8.261080e-01 8.852641e-01 9.281593e-01 9.536600e-01 
9.588735e-01 9.495507e-01 9.215401e-01 8.743584e-01 8.092125e-01 7.299176e-01 6.424205e-01 5.513816e-01 4.592835e-01 3.625763e-01 2.554359e-01 1.550934e-01 1.417276e-01 2.129686e-01 3.023417e-01 3.941895e-01 4.841583e-01 5.692550e-01 6.474285e-01 7.178933e-01 7.800852e-01 8.337960e-01 8.787572e-01 9.149607e-01 9.427052e-01 9.628248e-01 9.765660e-01 9.854045e-01 9.907601e-01 9.938190e-01 9.954518e-01 9.962271e-01 9.964564e-01 9.962276e-01 9.954529e-01 9.938208e-01 9.907629e-01 9.854090e-01 9.765731e-01 9.628359e-01 9.427213e-01 9.149825e-01 8.787838e-01 8.338234e-01 7.801087e-01 7.179025e-01 6.474162e-01 5.692112e-01 4.840836e-01 3.940903e-01 3.022375e-01 2.128708e-01 1.416065e-01 1.549367e-01 2.554129e-01 3.627354e-01 4.596019e-01 5.518089e-01 6.428839e-01 7.303390e-01 8.095411e-01 8.745807e-01 9.216675e-01 9.496043e-01 
9.576934e-01 9.480692e-01 9.191271e-01 8.703138e-01 8.028160e-01 7.204762e-01 6.295617e-01 5.352218e-01 4.413202e-01 3.459704e-01 2.433449e-01 1.491670e-01 1.419159e-01 2.150285e-01 3.042480e-01 3.953116e-01 4.845251e-01 5.689968e-01 6.468056e-01 7.171272e-01 7.793475e-01 8.332048e-01 8.783844e-01 9.148332e-01 9.428115e-01 9.631259e-01 9.770125e-01 9.859498e-01 9.913685e-01 9.944659e-01 9.961213e-01 9.969086e-01 9.971418e-01 9.969091e-01 9.961224e-01 9.944677e-01 9.913713e-01 9.859545e-01 9.770200e-01 9.631379e-01 9.428293e-01 9.148578e-01 8.784156e-01 8.332402e-01 7.793841e-01 7.171581e-01 6.468275e-01 5.690028e-01 4.845176e-01 3.952865e-01 3.042107e-01 2.149488e-01 1.417017e-01 1.488242e-01 2.432203e-01 3.460999e-01 4.416163e-01 5.356306e-01 6.300072e-01 7.208845e-01 8.031373e-01 8.705331e-01 9.192540e-01 9.481232e-01 
9.588735e-01 9.495507e-01 9.215401e-01 8.743584e-01 8.092125e-01 7.299176e-01 6.424205e-01 5.513816e-01 4.592835e-01 3.625763e-01 2.554359e-01 1.550934e-01 1.417276e-01 2.129686e-01 3.023417e-01 3.941895e-01 4.841583e-01 5.692550e-01 6.474285e-01 7.178933e-01 7.800852e-01 8.337960e-01 8.787572e-01 9.149607e-01 9.427052e-01 9.628248e-01 9.765660e-01 9.854045e-01 9.907601e-01 9.938190e-01 9.954518e-01 9.962271e-01 9.964564e-01 9.962276e-01 9.954529e-01 9.938208e-01 9.907629e-01 9.854090e-01 9.765731e-01 9.628359e-01 9.427213e-01 9.149825e-01 8.787838e-01 8.338234e-01 7.801087e-01 7.179025e-01 6.474162e-01 5.692112e-01 4.840836e-01 3.940903e-01 3.022375e-01 2.128708e-01 1.416065e-01 1.549367e-01 2.554129e-01 3.627354e-01 4.596019e-01 5.518089e-01 6.428839e-01 7.303390e-01 8.095411e-01 8.745807e-01 9.216675e-01 9.496043e-01 
9.621365e-01 9.536164e-01 9.280555e-01 8.850815e-01 8.258363e-01 7.538333e-01 6.739827e-01 5.895441e-01 5.000897e-01 4.000805e-01 2.834397e-01 1.697959e-01 1.407270e-01 2.070739e-01 2.972148e-01 3.910996e-01 4.829581e-01 5.696330e-01 6.487332e-01 7.195627e-01 7.816711e-01 8.349816e-01 8.793526e-01 9.148912e-01 9.420048e-01 9.615974e-01 9.749446e-01 9.835117e-01 9.886908e-01 9.916387e-01 9.932038e-01 9.939421e-01 9.941594e-01 9.939429e-01 9.932053e-01 9.916410e-01 9.886940e-01 9.835163e-01 9.749516e-01 9.616085e-01 9.420214e-01 9.149149e-01 8.793838e-01 8.350184e-01 7.817115e-01 7.196007e-01 6.487675e-01 5.696622e-01 4.829966e-01 3.911710e-01 2.973548e-01 2.072807e-01 1.409210e-01 1.698001e-01 2.833437e-01 4.000988e-01 5.002674e-01 5.898499e-01 6.743493e-01 7.541787e-01 8.261080e-01 8.852641e-01 9.281593e-01 9.536600e-01 