# vtk DataFile Version 2.0
Comment goes here
ASCII

DATASET STRUCTURED_POINTS
FIELD FieldData 1
TIME 1 1 double
0.04000000
DIMENSIONS    64   64   1

ORIGIN    0.000   0.000   0.000
SPACING   0.015625 0.015625   1.000

POINT_DATA   4096
SCALARS Concentration double
LOOKUP_TABLE default

1 1 1 1 1 1 1 1 1 1 1 1.000000e+00 1.000000e+00 1.000000e+00 1.000000e+00 1.000000e+00 1.000000e+00 1.000000e+00 1.000000e+00 1.000000e+00 9.999999e-01 9.999997e-01 9.999992e-01 9.999976e-01 9.999934e-01 9.999826e-01 9.999576e-01 9.999054e-01 9.998100e-01 9.996611e-01 9.994716e-01 9.992944e-01 9.992147e-01 9.992944e-01 9.994716e-01 9.996611e-01 9.998100e-01 9.999054e-01 9.999576e-01 9.999826e-01 9.999934e-01 9.999976e-01 9.999992e-01 9.999997e-01 9.999999e-01 1.000000e+00 1.000000e+00 1.000000e+00 1.000000e+00 1.000000e+00 1.000000e+00 1.000000e+00 1.000000e+00 1.000000e+00 1 1 1 1 1 1 1 1 1 1 
1 1 1 1 1 1 1 1 1 1 1.000000e+00 1.000000e+00 1.000000e+00 1.000000e+00 1.000000e+00 1.000000e+00 1.000000e+00 1.000000e+00 1.000000e+00 9.999999e-01 9.999997e-01 9.999992e-01 9.999976e-01 9.999934e-01 9.999828e-01 9.999572e-01 9.999004e-01 9.997869e-01 9.995873e-01 9.992860e-01 9.989121e-01 9.985686e-01 9.984153e-01 9.985686e-01 9.989121e-01 9.992860e-01 9.995874e-01 9.997869e-01 9.999004e-01 9.999572e-01 9.999828e-01 9.999934e-01 9.999976e-01 9.999992e-01 9.999997e-01 9.999999e-01 1.000000e+00 1.000000e+00 1.000000e+00 1.000000e+00 1.000000e+00 1.000000e+00 1.000000e+00 1.000000e+00 1.000000e+00 1 1 1 1 1 1 1 1 1 
1 1 1 1 1 1 1 1 1 1.000000e+00 1.000000e+00 1.000000e+00 1.000000e+00 1.000000e+00 1.000000e+00 1.000000e+00 1.000000e+00 1.000000e+00 9.999999e-01 9.999996e-01 9.999985e-01 9.999955e-01 9.999878e-01 9.999691e-01 9.999245e-01 9.998241e-01 9.996144e-01 9.992190e-01 9.985587e-01 9.976065e-01 9.964670e-01 9.954453e-01 9.949944e-01 9.954454e-01 9.964671e-01 9.976066e-01 9.985588e-01 9.992191e-01 9.996144e-01 9.998240e-01 9.999245e-01 9.999690e-01 9.999878e-01 9.999955e-01 9.999985e-01 9.999996e-01 9.999999e-01 1.000000e+00 1.000000e+00 1.000000e+00 1.000000e+00 1.000000e+00 1.000000e+00 1.000000e+00 1.000000e+00 1.000000e+00 1 1 1 1 1 1 1 1 
1 1 1 1 1 1 1 1 1 1.000000e+00 1.000000e+00 1.000000e+00 1.000000e+00 1.000000e+00 1.000000e+00 1.000000e+00 1.000000e+00 9.999999e-01 9.999994e-01 9.999978e-01 9.999926e-01 9.999781e-01 9.999428e-01 9.998644e-01 9.996904e-01 9.993231e-01 9.986025e-01 9.973196e-01 9.952837e-01 9.924747e-01 9.892281e-01 9.863842e-01 9.851432e-01 9.863847e-01 9.892284e-01 9.924752e-01 9.952840e-01 9.973198e-01 9.986025e-01 9.993230e-01 9.996903e-01 9.998643e-01 9.999428e-01 9.999781e-01 9.999926e-01 9.999978e-01 9.999994e-01 9.999999e-01 1.000000e+00 1.000000e+00 1.000000e+00 1.000000e+00 1.000000e+00 1.000000e+00 1.000000e+00 1.000000e+00 1 1 1 1 1 1 1 1 
1 1 1 1 1 1 1 1 1.000000e+00 1.000000e+00 1.000000e+00 1.000000e+00 1.000000e+00 1.000000e+00 1.000000e+00 1.000000e+00 9.999999e-01 9.999994e-01 9.999974e-01 9.999900e-01 9.999667e-01 9.999041e-01 9.997599e-01 9.994624e-01 9.988507e-01 9.976439e-01 9.954275e-01 9.917190e-01 9.861752e-01 9.789350e-01 9.708971e-01 9.640351e-01 9.610743e-01 9.640350e-01 9.708979e-01 9.789371e-01 9.861760e-01 9.917194e-01 9.954276e-01 9.976438e-01 9.988505e-01 9.994623e-01 9.997599e-01 9.999041e-01 9.999667e-01 9.999900e-01 9.999974e-01 9.999994e-01 9.999999e-01 1.000000e+00 1.000000e+00 1.000000e+00 1.000000e+00 1.000000e+00 1.000000e+00 1.000000e+00 1.000000e+00 1 1 1 1 1 1 1 
1 1 1 1 1 1 1 1.000000e+00 1.000000e+00 1.000000e+00 1.000000e+00 1.000000e+00 1.000000e+00 1.000000e+00 1.000000e+00 9.999999e-01 9.999995e-01 9.999974e-01 9.999891e-01 9.999592e-01 9.998678e-01 9.996301e-01 9.991051e-01 9.980911e-01 9.961682e-01 9.926230e-01 9.865521e-01 9.770967e-01 9.638458e-01 9.475349e-01 9.303874e-01 9.163169e-01 9.103653e-01 9.163123e-01 9.303888e-01 9.475413e-01 9.638469e-01 9.770979e-01 9.865528e-01 9.926229e-01 9.961678e-01 9.980909e-01 9.991050e-01 9.996301e-01 9.998678e-01 9.999592e-01 9.999891e-01 9.999974e-01 9.999995e-01 9.999999e-01 1.000000e+00 1.000000e+00 1.000000e+00 1.000000e+00 1.000000e+00 1.000000e+00 1.000000e+00 1.000000e+00 1 1 1 1 1 1 
1 1 1 1 1 1 1 1.000000e+00 1.000000e+00 1.000000e+00 1.000000e+00 1.000000e+00 1.000000e+00 1.000000e+00 9.999999e-01 9.999996e-01 9.999980e-01 9.999904e-01 9.999598e-01 9.998536e-01 9.995380e-01 9.987435e-01 9.970527e-01 9.939499e-01 9.885304e-01 9.790976e-01 9.640315e-01 9.422606e-01 9.144877e-01 8.835247e-01 8.529877e-01 8.288909e-01 8.188942e-01 8.288523e-01 8.529830e-01 8.835372e-01 9.144871e-01 9.422651e-01 9.640349e-01 9.790979e-01 9.885297e-01 9.939494e-01 9.970526e-01 9.987434e-01 9.995380e-01 9.998536e-01 9.999598e-01 9.999904e-01 9.999980e-01 9.999996e-01 9.999999e-01 1.000000e+00 1.000000e+00 1.000000e+00 1.000000e+00 1.000000e+00 1.000000e+00 1.000000e+00 1 1 1 1 1 1 
1 1 1 1 1 1 1.000000e+00 1.000000e+00 1.000000e+00 1.000000e+00 1.000000e+00 1.000000e+00 1.000000e+00 1.000000e+00 9.999998e-01 9.999987e-01 9.999931e-01 9.999679e-01 9.998691e-01 9.995358e-01 9.985772e-01 9.962491e-01 9.914810e-01 9.830874e-01 9.693029e-01 9.464848e-01 9.127847e-01 8.688003e-01 8.172071e-01 7.647454e-01 7.200135e-01 6.896710e-01 6.783032e-01 6.895752e-01 7.199839e-01 7.647466e-01 8.171989e-01 8.688204e-01 9.127970e-01 9.464872e-01 9.693018e-01 9.830865e-01 9.914809e-01 9.962492e-01 9.985774e-01 9.995358e-01 9.998692e-01 9.999679e-01 9.999931e-01 9.999987e-01 9.999998e-01 1.000000e+00 1.000000e+00 1.000000e+00 1.000000e+00 1.000000e+00 1.000000e+00 1.000000e+00 1.000000e+00 1 1 1 1 1 
1 1 1 1 1 1.000000e+00 1.000000e+00 1.000000e+00 1.000000e+00 1.000000e+00 1.000000e+00 1.000000e+00 1.000000e+00 9.999999e-01 9.999993e-01 9.999958e-01 9.999787e-01 9.999039e-01 9.996194e-01 9.986904e-01 9.961171e-01 9.901152e-01 9.782940e-01 9.581897e-01 9.261311e-01 8.756329e-01 8.059238e-01 7.214733e-01 6.368764e-01 5.695784e-01 5.235563e-01 4.968094e-01 4.880623e-01 4.965922e-01 5.234538e-01 5.696329e-01 6.369728e-01 7.215132e-01 8.058963e-01 8.756359e-01 9.261325e-01 9.581891e-01 9.782949e-01 9.901156e-01 9.961176e-01 9.986906e-01 9.996195e-01 9.999040e-01 9.999788e-01 9.999958e-01 9.999993e-01 9.999999e-01 1.000000e+00 1.000000e+00 1.000000e+00 1.000000e+00 1.000000e+00 1.000000e+00 1.000000e+00 1.000000e+00 1 1 1 1 
1 1 1 1 1 1.000000e+00 1.000000e+00 1.000000e+00 1.000000e+00 1.000000e+00 1.000000e+00 1.000000e+00 9.999999e-01 9.999997e-01 9.999979e-01 9.999881e-01 9.999410e-01 9.997404e-01 9.990023e-01 9.966830e-01 9.905239e-01 9.767699e-01 9.506874e-01 9.073393e-01 8.383200e-01 7.358235e-01 6.129343e-01 5.036069e-01 4.343129e-01 4.037933e-01 3.963703e-01 3.983739e-01 4.004839e-01 3.981896e-01 3.962698e-01 4.039375e-01 4.344785e-01 5.035161e-01 6.127205e-01 7.358183e-01 8.383387e-01 9.073376e-01 9.506894e-01 9.767706e-01 9.905251e-01 9.966836e-01 9.990026e-01 9.997405e-01 9.999410e-01 9.999881e-01 9.999979e-01 9.999997e-01 9.999999e-01 1.000000e+00 1.000000e+00 1.000000e+00 1.000000e+00 1.000000e+00 1.000000e+00 1.000000e+00 1 1 1 1 
1 1 1 1 1 1.000000e+00 1.000000e+00 1.000000e+00 1.000000e+00 1.000000e+00 1.000000e+00 1.000000e+00 9.999999e-01 9.999991e-01 9.999943e-01 9.999690e-01 9.998499e-01 9.993598e-01 9.976229e-01 9.923944e-01 9.791418e-01 9.508555e-01 8.989568e-01 8.138238e-01 6.806189e-01 5.266418e-01 4.199634e-01 3.899020e-01 4.142519e-01 4.652092e-01 5.155631e-01 5.491920e-01 5.614072e-01 5.491531e-01 5.154734e-01 4.651288e-01 4.143480e-01 3.899810e-01 4.198237e-01 5.266885e-01 6.807030e-01 8.138633e-01 8.989619e-01 9.508564e-01 9.791439e-01 9.923955e-01 9.976234e-01 9.993600e-01 9.998499e-01 9.999690e-01 9.999943e-01 9.999991e-01 9.999999e-01 1.000000e+00 1.000000e+00 1.000000e+00 1.000000e+00 1.000000e+00 1.000000e+00 1.000000e+00 1 1 1 1 
1 1 1 1 1.000000e+00 1.000000e+00 1.000000e+00 1.000000e+00 1.000000e+00 1.000000e+00 1.000000e+00 9.999999e-01 9.999996e-01 9.999976e-01 9.999858e-01 9.999250e-01 9.996472e-01 9.985451e-01 9.947999e-01 9.840485e-01 9.581301e-01 9.050929e-01 8.096661e-01 6.555590e-01 4.784502e-01 3.879676e-01 4.109406e-01 5.006209e-01 6.027591e-01 6.823901e-01 7.350667e-01 7.640110e-01 7.739792e-01 7.639684e-01 7.350785e-01 6.823257e-01 6.028751e-01 5.010417e-01 4.109293e-01 3.878714e-01 4.785046e-01 6.556559e-01 8.096456e-01 9.050913e-01 9.581322e-01 9.840503e-01 9.948005e-01 9.985453e-01 9.996473e-01 9.999250e-01 9.999858e-01 9.999976e-01 9.999996e-01 9.999999e-01 1.000000e+00 1.000000e+00 1.000000e+00 1.000000e+00 1.000000e+00 1.000000e+00 1.000000e+00 1 1 1 
1 1 1 1 1.000000e+00 1.000000e+00 1.000000e+00 1.000000e+00 1.000000e+00 1.000000e+00 1.000000e+00 9.999999e-01 9.999991e-01 9.999942e-01 9.999669e-01 9.998298e-01 9.992261e-01 9.969252e-01 9.894642e-01 9.691354e-01 9.226016e-01 8.306997e-01 6.685207e-01 4.695042e-01 3.786517e-01 4.397671e-01 5.719839e-01 6.996045e-01 7.908917e-01 8.494109e-01 8.839930e-01 9.016932e-01 9.075292e-01 9.016764e-01 8.840240e-01 8.494096e-01 7.910112e-01 6.998311e-01 5.718159e-01 4.396543e-01 3.786857e-01 4.695302e-01 6.684253e-01 8.306742e-01 9.226013e-01 9.691372e-01 9.894647e-01 9.969253e-01 9.992261e-01 9.998298e-01 9.999669e-01 9.999942e-01 9.999991e-01 9.999999e-01 1.000000e+00 1.000000e+00 1.000000e+00 1.000000e+00 1.000000e+00 1.000000e+00 1.000000e+00 1 1 1 
1 1 1 1.000000e+00 1.000000e+00 1.000000e+00 1.000000e+00 1.000000e+00 1.000000e+00 1.000000e+00 1.000000e+00 9.999997e-01 9.999979e-01 9.999868e-01 9.999265e-01 9.996347e-01 9.983998e-01 9.939031e-01 9.800561e-01 9.443769e-01 8.668285e-01 7.171363e-01 4.980307e-01 3.759375e-01 4.415751e-01 5.972826e-01 7.425283e-01 8.452688e-01 9.064314e-01 9.401266e-01 9.577568e-01 9.660927e-01 9.687061e-01 9.660903e-01 9.577749e-01 9.401364e-01 9.064792e-01 8.453121e-01 7.423808e-01 5.972821e-01 4.415683e-01 3.759697e-01 4.980110e-01 7.171200e-01 8.668331e-01 9.443799e-01 9.800565e-01 9.939030e-01 9.983997e-01 9.996347e-01 9.999264e-01 9.999868e-01 9.999979e-01 9.999997e-01 1.000000e+00 1.000000e+00 1.000000e+00 1.000000e+00 1.000000e+00 1.000000e+00 1.000000e+00 1.000000e+00 1 1 
1 1 1 1.000000e+00 1.000000e+00 1.000000e+00 1.000000e+00 1.000000e+00 1.000000e+00 1.000000e+00 9.999999e-01 9.999993e-01 9.999951e-01 9.999708e-01 9.998433e-01 9.992511e-01 9.968561e-01 9.885710e-01 9.644422e-01 9.059273e-01 7.835987e-01 5.651996e-01 3.880281e-01 4.126315e-01 5.775317e-01 7.399368e-01 8.575108e-01 9.264791e-01 9.621162e-01 9.791326e-01 9.869754e-01 9.903345e-01 9.913178e-01 9.903349e-01 9.869813e-01 9.791359e-01 9.621274e-01 9.264836e-01 8.574684e-01 7.399517e-01 5.775228e-01 4.127517e-01 3.881009e-01 5.652374e-01 7.836177e-01 9.059303e-01 9.644420e-01 9.885706e-01 9.968559e-01 9.992510e-01 9.998433e-01 9.999708e-01 9.999951e-01 9.999993e-01 9.999999e-01 1.000000e+00 1.000000e+00 1.000000e+00 1.000000e+00 1.000000e+00 1.000000e+00 1.000000e+00 1 1 
1 1 1.000000e+00 1.000000e+00 1.000000e+00 1.000000e+00 1.000000e+00 1.000000e+00 1.000000e+00 1.000000e+00 9.999998e-01 9.999983e-01 9.999891e-01 9.999373e-01 9.996766e-01 9.985216e-01 9.940894e-01 9.796209e-01 9.398205e-01 8.496598e-01 6.651062e-01 4.395256e-01 3.751070e-01 5.170882e-01 6.998261e-01 8.372907e-01 9.226276e-01 9.659119e-01 9.852613e-01 9.932482e-01 9.964297e-01 9.976353e-01 9.979585e-01 9.976356e-01 9.964311e-01 9.932492e-01 9.852635e-01 9.659127e-01 9.226171e-01 8.372989e-01 6.998171e-01 5.170672e-01 3.749662e-01 4.394014e-01 6.650714e-01 8.496613e-01 9.398193e-01 9.796202e-01 9.940891e-01 9.985215e-01 9.996766e-01 9.999373e-01 9.999891e-01 9.999983e-01 9.999998e-01 1.000000e+00 1.000000e+00 1.000000e+00 1.000000e+00 1.000000e+00 1.000000e+00 1.000000e+00 1.000000e+00 1 
1 1 1.000000e+00 1.000000e+00 1.000000e+00 1.000000e+00 1.000000e+00 1.000000e+00 1.000000e+00 9.999999e-01 9.999994e-01 9.999961e-01 9.999761e-01 9.998678e-01 9.993493e-01 9.971723e-01 9.893146e-01 9.652187e-01 9.028826e-01 7.701819e-01 5.430965e-01 3.723389e-01 4.307725e-01 6.236342e-01 7.869446e-01 8.977116e-01 9.570045e-01 9.836094e-01 9.940368e-01 9.977861e-01 9.990671e-01 9.994857e-01 9.995860e-01 9.994858e-01 9.990674e-01 9.977862e-01 9.940372e-01 9.836095e-01 9.570016e-01 8.977144e-01 7.869364e-01 6.236401e-01 4.307908e-01 3.723034e-01 5.430421e-01 7.701786e-01 9.028798e-01 9.652179e-01 9.893144e-01 9.971722e-01 9.993493e-01 9.998678e-01 9.999761e-01 9.999961e-01 9.999994e-01 9.999999e-01 1.000000e+00 1.000000e+00 1.000000e+00 1.000000e+00 1.000000e+00 1.000000e+00 1.000000e+00 1 
1 1 1.000000e+00 1.000000e+00 1.000000e+00 1.000000e+00 1.000000e+00 1.000000e+00 1.000000e+00 9.999998e-01 9.999986e-01 9.999911e-01 9.999480e-01 9.997258e-01 9.987199e-01 9.947430e-01 9.813728e-01 9.430538e-01 8.537448e-01 6.787327e-01 4.451596e-01 3.632400e-01 5.107879e-01 7.062111e-01 8.467262e-01 9.335234e-01 9.748757e-01 9.915143e-01 9.973413e-01 9.991913e-01 9.997383e-01 9.998910e-01 9.999231e-01 9.998910e-01 9.997384e-01 9.991914e-01 9.973416e-01 9.915152e-01 9.748769e-01 9.335288e-01 8.467335e-01 7.062451e-01 5.109067e-01 3.633969e-01 4.452244e-01 6.787302e-01 8.537402e-01 9.430527e-01 9.813725e-01 9.947430e-01 9.987199e-01 9.997258e-01 9.999480e-01 9.999911e-01 9.999986e-01 9.999998e-01 1.000000e+00 1.000000e+00 1.000000e+00 1.000000e+00 1.000000e+00 1.000000e+00 1.000000e+00 1 
1 1.000000e+00 1.000000e+00 1.000000e+00 1.000000e+00 1.000000e+00 1.000000e+00 1.000000e+00 9.999999e-01 9.999996e-01 9.999970e-01 9.999810e-01 9.998928e-01 9.994625e-01 9.976263e-01 9.908494e-01 9.697607e-01 9.143272e-01 7.969482e-01 5.876156e-01 3.805258e-01 3.916153e-01 5.869972e-01 7.656360e-01 8.876273e-01 9.550526e-01 9.844569e-01 9.952269e-01 9.986680e-01 9.996531e-01 9.999112e-01 9.999738e-01 9.999853e-01 9.999738e-01 9.999112e-01 9.996532e-01 9.986683e-01 9.952277e-01 9.844585e-01 9.550562e-01 8.876288e-01 7.656358e-01 5.869801e-01 3.916502e-01 3.806179e-01 5.876550e-01 7.969564e-01 9.143288e-01 9.697612e-01 9.908495e-01 9.976263e-01 9.994625e-01 9.998929e-01 9.999810e-01 9.999970e-01 9.999996e-01 9.999999e-01 1.000000e+00 1.000000e+00 1.000000e+00 1.000000e+00 1.000000e+00 1.000000e+00 1.000000e+00 
1 1.000000e+00 1.000000e+00 1.000000e+00 1.000000e+00 1.000000e+00 1.000000e+00 1.000000e+00 9.999999e-01 9.999991e-01 9.999938e-01 9.999624e-01 9.997969e-01 9.990298e-01 9.959414e-01 9.852922e-01 9.544513e-01 8.801397e-01 7.350534e-01 5.052040e-01 3.478152e-01 4.372975e-01 6.483620e-01 8.091177e-01 9.154165e-01 9.683947e-01 9.898323e-01 9.971020e-01 9.992576e-01 9.998263e-01 9.999620e-01 9.999915e-01 9.999964e-01 9.999915e-01 9.999620e-01 9.998263e-01 9.992578e-01 9.971025e-01 9.898335e-01 9.683975e-01 9.154200e-01 8.091213e-01 6.483361e-01 4.372231e-01 3.477911e-01 5.052452e-01 7.350697e-01 8.801440e-01 9.544527e-01 9.852925e-01 9.959414e-01 9.990299e-01 9.997969e-01 9.999624e-01 9.999938e-01 9.999991e-01 9.999999e-01 1.000000e+00 1.000000e+00 1.000000e+00 1.000000e+00 1.000000e+00 1.000000e+00 1.000000e+00 
1.000000e+00 1.000000e+00 1.000000e+00 1.000000e+00 1.000000e+00 1.000000e+00 1.000000e+00 1.000000e+00 9.999997e-01 9.999982e-01 9.999882e-01 9.999313e-01 9.996444e-01 9.983811e-01 9.935716e-01 9.780372e-01 9.359585e-01 8.424477e-01 6.721419e-01 4.369738e-01 3.380861e-01 4.855816e-01 6.944512e-01 8.420820e-01 9.343531e-01 9.768828e-01 9.929848e-01 9.981170e-01 9.995480e-01 9.999018e-01 9.999805e-01 9.999963e-01 9.999987e-01 9.999963e-01 9.999805e-01 9.999018e-01 9.995480e-01 9.981171e-01 9.929848e-01 9.768828e-01 9.343524e-01 8.420827e-01 6.944513e-01 4.855337e-01 3.379920e-01 4.369242e-01 6.721371e-01 8.424460e-01 9.359577e-01 9.780370e-01 9.935716e-01 9.983812e-01 9.996444e-01 9.999313e-01 9.999882e-01 9.999982e-01 9.999997e-01 1.000000e+00 1.000000e+00 1.000000e+00 1.000000e+00 1.000000e+00 1.000000e+00 1.000000e+00 
1.000000e+00 1.000000e+00 1.000000e+00 1.000000e+00 1.000000e+00 1.000000e+00 1.000000e+00 9.999999e-01 9.999995e-01 9.999967e-01 9.999792e-01 9.998833e-01 9.994207e-01 9.974839e-01 9.905037e-01 9.693227e-01 9.155265e-01 8.041472e-01 6.129966e-01 3.842708e-01 3.431558e-01 5.294704e-01 7.296548e-01 8.679952e-01 9.478027e-01 9.825115e-01 9.949339e-01 9.987042e-01 9.997042e-01 9.999391e-01 9.999886e-01 9.999980e-01 9.999994e-01 9.999980e-01 9.999886e-01 9.999391e-01 9.997042e-01 9.987043e-01 9.949340e-01 9.825120e-01 9.478035e-01 8.679981e-01 7.296604e-01 5.294833e-01 3.430904e-01 3.841824e-01 6.129878e-01 8.041481e-01 9.155267e-01 9.693226e-01 9.905038e-01 9.974839e-01 9.994207e-01 9.998833e-01 9.999792e-01 9.999967e-01 9.999995e-01 9.999999e-01 1.000000e+00 1.000000e+00 1.000000e+00 1.000000e+00 1.000000e+00 1.000000e+00 
1.000000e+00 1.000000e+00 1.000000e+00 1.000000e+00 1.000000e+00 1.000000e+00 1.000000e+00 9.999999e-01 9.999992e-01 9.999943e-01 9.999656e-01 9.998139e-01 9.991125e-01 9.963110e-01 9.867267e-01 9.592690e-01 8.936276e-01 7.658219e-01 5.582832e-01 3.461083e-01 3.575744e-01 5.674024e-01 7.582712e-01 8.885366e-01 9.577264e-01 9.864078e-01 9.962068e-01 9.990670e-01 9.997953e-01 9.999596e-01 9.999928e-01 9.999988e-01 9.999996e-01 9.999988e-01 9.999928e-01 9.999596e-01 9.997954e-01 9.990671e-01 9.962073e-01 9.864092e-01 9.577293e-01 8.885409e-01 7.582744e-01 5.674266e-01 3.576028e-01 3.460974e-01 5.582539e-01 7.658111e-01 8.936233e-01 9.592678e-01 9.867265e-01 9.963110e-01 9.991125e-01 9.998139e-01 9.999656e-01 9.999943e-01 9.999992e-01 9.999999e-01 1.000000e+00 1.000000e+00 1.000000e+00 1.000000e+00 1.000000e+00 1.000000e+00 
1.000000e+00 1.000000e+00 1.000000e+00 1.000000e+00 1.000000e+00 1.000000e+00 1.000000e+00 9.999998e-01 9.999986e-01 9.999909e-01 9.999463e-01 9.997192e-01 9.987086e-01 9.948393e-01 9.822063e-01 9.477970e-01 8.699358e-01 7.266340e-01 5.072187e-01 3.185941e-01 3.738311e-01 5.974146e-01 7.811229e-01 9.037681e-01 9.647560e-01 9.890435e-01 9.970372e-01 9.992949e-01 9.998504e-01 9.999715e-01 9.999951e-01 9.999992e-01 9.999998e-01 9.999992e-01 9.999951e-01 9.999715e-01 9.998505e-01 9.992950e-01 9.970376e-01 9.890447e-01 9.647589e-01 9.037737e-01 7.811282e-01 5.974257e-01 3.739282e-01 3.187258e-01 5.072709e-01 7.266410e-01 8.699354e-01 9.477959e-01 9.822058e-01 9.948391e-01 9.987085e-01 9.997192e-01 9.999463e-01 9.999909e-01 9.999986e-01 9.999998e-01 1.000000e+00 1.000000e+00 1.000000e+00 1.000000e+00 1.000000e+00 1.000000e+00 
1.000000e+00 1.000000e+00 1.000000e+00 1.000000e+00 1.000000e+00 1.000000e+00 1.000000e+00 9.999997e-01 9.999979e-01 9.999863e-01 9.999210e-01 9.995986e-01 9.982130e-01 9.931041e-01 9.771063e-01 9.354252e-01 8.456851e-01 6.887517e-01 4.613262e-01 2.980428e-01 3.890056e-01 6.199060e-01 7.985961e-01 9.142969e-01 9.694415e-01 9.907506e-01 9.975651e-01 9.994366e-01 9.998839e-01 9.999785e-01 9.999964e-01 9.999994e-01 9.999998e-01 9.999994e-01 9.999964e-01 9.999785e-01 9.998839e-01 9.994367e-01 9.975652e-01 9.907509e-01 9.694422e-01 9.142979e-01 7.985943e-01 6.198924e-01 3.890156e-01 2.981254e-01 4.613721e-01 6.887446e-01 8.456834e-01 9.354251e-01 9.771064e-01 9.931041e-01 9.982130e-01 9.995986e-01 9.999210e-01 9.999863e-01 9.999979e-01 9.999997e-01 1.000000e+00 1.000000e+00 1.000000e+00 1.000000e+00 1.000000e+00 1.000000e+00 
1.000000e+00 1.000000e+00 1.000000e+00 1.000000e+00 1.000000e+00 1.000000e+00 9.999999e-01 9.999996e-01 9.999969e-01 9.999805e-01 9.998902e-01 9.994570e-01 9.976521e-01 9.912178e-01 9.718118e-01 9.231983e-01 8.230033e-01 6.549551e-01 4.221672e-01 2.837227e-01 4.047806e-01 6.386078e-01 8.131572e-01 9.221462e-01 9.727736e-01 9.919198e-01 9.979171e-01 9.995287e-01 9.999051e-01 9.999828e-01 9.999972e-01 9.999996e-01 9.999999e-01 9.999996e-01 9.999972e-01 9.999828e-01 9.999051e-01 9.995287e-01 9.979172e-01 9.919200e-01 9.727745e-01 9.221492e-01 8.131653e-01 6.386186e-01 4.047242e-01 2.835794e-01 4.220639e-01 6.549263e-01 8.229925e-01 9.231934e-01 9.718098e-01 9.912171e-01 9.976519e-01 9.994569e-01 9.998902e-01 9.999805e-01 9.999969e-01 9.999996e-01 9.999999e-01 1.000000e+00 1.000000e+00 1.000000e+00 1.000000e+00 1.000000e+00 
1.000000e+00 1.000000e+00 1.000000e+00 1.000000e+00 1.000000e+00 1.000000e+00 9.999999e-01 9.999994e-01 9.999958e-01 9.999738e-01 9.998557e-01 9.993024e-01 9.970600e-01 9.892969e-01 9.666335e-01 9.117236e-01 8.025625e-01 6.251565e-01 3.894777e-01 2.744901e-01 4.203729e-01 6.556894e-01 8.265022e-01 9.288325e-01 9.754813e-01 9.928264e-01 9.981795e-01 9.995947e-01 9.999197e-01 9.999857e-01 9.999977e-01 9.999997e-01 9.999999e-01 9.999997e-01 9.999977e-01 9.999857e-01 9.999197e-01 9.995947e-01 9.981795e-01 9.928266e-01 9.754816e-01 9.288324e-01 8.264993e-01 6.556820e-01 4.203229e-01 2.743624e-01 3.894335e-01 6.251916e-01 8.025810e-01 9.117295e-01 9.666353e-01 9.892973e-01 9.970601e-01 9.993024e-01 9.998557e-01 9.999738e-01 9.999958e-01 9.999994e-01 9.999999e-01 1.000000e+00 1.000000e+00 1.000000e+00 1.000000e+00 1.000000e+00 
1.000000e+00 1.000000e+00 1.000000e+00 1.000000e+00 1.000000e+00 1.000000e+00 9.999999e-01 9.999992e-01 9.999945e-01 9.999666e-01 9.998196e-01 9.991448e-01 9.964726e-01 9.874450e-01 9.617926e-01 9.013061e-01 7.844667e-01 5.990705e-01 3.625663e-01 2.679761e-01 4.330497e-01 6.699574e-01 8.378193e-01 9.343860e-01 9.776947e-01 9.935510e-01 9.983843e-01 9.996448e-01 9.999306e-01 9.999878e-01 9.999981e-01 9.999997e-01 9.999999e-01 9.999997e-01 9.999981e-01 9.999878e-01 9.999306e-01 9.996448e-01 9.983843e-01 9.935510e-01 9.776949e-01 9.343867e-01 8.378229e-01 6.699735e-01 4.331682e-01 2.682639e-01 3.626863e-01 5.990323e-01 7.844351e-01 9.012959e-01 9.617898e-01 9.874444e-01 9.964725e-01 9.991448e-01 9.998196e-01 9.999666e-01 9.999945e-01 9.999992e-01 9.999999e-01 1.000000e+00 1.000000e+00 1.000000e+00 1.000000e+00 1.000000e+00 
1.000000e+00 1.000000e+00 1.000000e+00 1.000000e+00 1.000000e+00 1.000000e+00 9.999999e-01 9.999990e-01 9.999933e-01 9.999595e-01 9.997844e-01 9.989943e-01 9.959231e-01 9.857496e-01 9.574580e-01 8.921718e-01 7.688473e-01 5.768849e-01 3.411973e-01 2.639078e-01 4.428883e-01 6.806208e-01 8.463079e-01 9.385863e-01 9.793858e-01 9.941056e-01 9.985403e-01 9.996827e-01 9.999387e-01 9.999894e-01 9.999983e-01 9.999998e-01 9.999999e-01 9.999998e-01 9.999983e-01 9.999894e-01 9.999387e-01 9.996827e-01 9.985403e-01 9.941055e-01 9.793853e-01 9.385846e-01 8.463026e-01 6.806018e-01 4.428375e-01 2.638441e-01 3.411934e-01 5.769152e-01 7.688776e-01 8.921845e-01 9.574617e-01 9.857503e-01 9.959232e-01 9.989943e-01 9.997844e-01 9.999595e-01 9.999933e-01 9.999990e-01 9.999999e-01 1.000000e+00 1.000000e+00 1.000000e+00 1.000000e+00 1.000000e+00 
1.000000e+00 1.000000e+00 1.000000e+00 1.000000e+00 1.000000e+00 1.000000e+00 9.999998e-01 9.999988e-01 9.999922e-01 9.999531e-01 9.997530e-01 9.988615e-01 9.954457e-01 9.842992e-01 9.538080e-01 8.845969e-01 7.560746e-01 5.590599e-01 3.250124e-01 2.613812e-01 4.501226e-01 6.877534e-01 8.520002e-01 9.414740e-01 9.805789e-01 9.945025e-01 9.986527e-01 9.997100e-01 9.999445e-01 9.999905e-01 9.999985e-01 9.999998e-01 9.999999e-01 9.999998e-01 9.999985e-01 9.999905e-01 9.999445e-01 9.997100e-01 9.986527e-01 9.945024e-01 9.805784e-01 9.414720e-01 8.519941e-01 6.877383e-01 4.500222e-01 2.610581e-01 3.248413e-01 5.590776e-01 7.560968e-01 8.846025e-01 9.538097e-01 9.842997e-01 9.954459e-01 9.988615e-01 9.997530e-01 9.999531e-01 9.999922e-01 9.999988e-01 9.999998e-01 1.000000e+00 1.000000e+00 1.000000e+00 1.000000e+00 1.000000e+00 
1.000000e+00 1.000000e+00 1.000000e+00 1.000000e+00 1.000000e+00 1.000000e+00 9.999998e-01 9.999987e-01 9.999912e-01 9.999479e-01 9.997279e-01 9.987563e-01 9.950709e-01 9.831708e-01 9.509931e-01 8.788069e-01 7.464119e-01 5.457842e-01 3.133057e-01 2.595083e-01 4.551860e-01 6.922212e-01 8.555166e-01 9.432984e-01 9.813524e-01 9.947637e-01 9.987273e-01 9.997282e-01 9.999484e-01 9.999912e-01 9.999986e-01 9.999998e-01 1.000000e+00 9.999998e-01 9.999986e-01 9.999912e-01 9.999484e-01 9.997282e-01 9.987273e-01 9.947634e-01 9.813513e-01 9.432948e-01 8.555095e-01 6.922300e-01 4.553275e-01 2.598887e-01 3.135820e-01 5.458197e-01 7.463874e-01 8.787900e-01 9.509862e-01 9.831686e-01 9.950703e-01 9.987562e-01 9.997279e-01 9.999479e-01 9.999912e-01 9.999987e-01 9.999998e-01 1.000000e+00 1.000000e+00 1.000000e+00 1.000000e+00 1.000000e+00 
1.000000e+00 1.000000e+00 1.000000e+00 1.000000e+00 1.000000e+00 1.000000e+00 9.999998e-01 9.999986e-01 9.999906e-01 9.999445e-01 9.997116e-01 9.986882e-01 9.948293e-01 9.824468e-01 9.491940e-01 8.751241e-01 7.403059e-01 5.375667e-01 3.065429e-01 2.591397e-01 4.588363e-01 6.948887e-01 8.574583e-01 9.443005e-01 9.817829e-01 9.949105e-01 9.987696e-01 9.997386e-01 9.999506e-01 9.999916e-01 9.999987e-01 9.999998e-01 1.000000e+00 9.999998e-01 9.999987e-01 9.999916e-01 9.999506e-01 9.997386e-01 9.987696e-01 9.949105e-01 9.817826e-01 9.442984e-01 8.574490e-01 6.948591e-01 4.588028e-01 2.592203e-01 3.066356e-01 5.376026e-01 7.403298e-01 8.751381e-01 9.491997e-01 9.824484e-01 9.948297e-01 9.986883e-01 9.997116e-01 9.999445e-01 9.999906e-01 9.999986e-01 9.999998e-01 1.000000e+00 1.000000e+00 1.000000e+00 1.000000e+00 1.000000e+00 
1.000000e+00 1.000000e+00 1.000000e+00 1.000000e+00 1.000000e+00 1.000000e+00 9.999998e-01 9.999986e-01 9.999904e-01 9.999433e-01 9.997057e-01 9.986639e-01 9.947432e-01 9.821894e-01 9.485573e-01 8.738298e-01 7.381795e-01 5.347549e-01 3.044630e-01 2.594212e-01 4.603492e-01 6.958374e-01 8.580900e-01 9.446203e-01 9.819206e-01 9.949577e-01 9.987832e-01 9.997419e-01 9.999514e-01 9.999918e-01 9.999987e-01 9.999998e-01 1.000000e+00 9.999998e-01 9.999987e-01 9.999918e-01 9.999514e-01 9.997419e-01 9.987834e-01 9.949586e-01 9.819245e-01 9.446346e-01 8.581299e-01 6.959084e-01 4.603026e-01 2.590079e-01 3.040345e-01 5.346280e-01 7.381653e-01 8.738365e-01 9.485629e-01 9.821920e-01 9.947441e-01 9.986641e-01 9.997058e-01 9.999433e-01 9.999904e-01 9.999986e-01 9.999998e-01 1.000000e+00 1.000000e+00 1.000000e+00 1.000000e+00 1.000000e+00 
1.000000e+00 1.000000e+00 1.000000e+00 1.000000e+00 1.000000e+00 1.000000e+00 9.999998e-01 9.999986e-01 9.999906e-01 9.999445e-01 9.997116e-01 9.986882e-01 9.948293e-01 9.824468e-01 9.491940e-01 8.751241e-01 7.403059e-01 5.375667e-01 3.065429e-01 2.591397e-01 4.588363e-01 6.948887e-01 8.574583e-01 9.443005e-01 9.817829e-01 9.949105e-01 9.987696e-01 9.997386e-01 9.999506e-01 9.999916e-01 9.999987e-01 9.999998e-01 1.000000e+00 9.999998e-01 9.999987e-01 9.999916e-01 9.999506e-01 9.997386e-01 9.987696e-01 9.949105e-01 9.817826e-01 9.442984e-01 8.574490e-01 6.948591e-01 4.588028e-01 2.592203e-01 3.066356e-01 5.376026e-01 7.403298e-01 8.751381e-01 9.491997e-01 9.824484e-01 9.948297e-01 9.986883e-01 9.997116e-01 9.999445e-01 9.999906e-01 9.999986e-01 9.999998e-01 1.000000e+00 1.000000e+00 1.000000e+00 1.000000e+00 1.000000e+00 
1.000000e+00 1.000000e+00 1.000000e+00 1.000000e+00 1.000000e+00 1.000000e+00 9.999998e-01 9.999987e-01 9.999912e-01 9.999479e-01 9.997279e-01 9.987563e-01 9.950709e-01 9.831708e-01 9.509931e-01 8.788069e-01 7.464119e-01 5.457842e-01 3.133057e-01 2.595083e-01 4.551860e-01 6.922212e-01 8.555166e-01 9.432984e-01 9.813524e-01 9.947637e-01 9.987273e-01 9.997282e-01 9.999484e-01 9.999912e-01 9.999986e-01 9.999998e-01 1.000000e+00 9.999998e-01 9.999986e-01 9.999912e-01 9.999484e-01 9.997282e-01 9.987273e-01 9.947634e-01 9.813513e-01 9.432948e-01 8.555095e-01 6.922300e-01 4.553275e-01 2.598887e-01 3.135820e-01 5.458197e-01 7.463874e-01 8.787900e-01 9.509862e-01 9.831686e-01 9.950703e-01 9.987562e-01 9.997279e-01 9.999479e-01 9.999912e-01 9.999987e-01 9.999998e-01 1.000000e+00 1.000000e+00 1.000000e+00 1.000000e+00 1.000000e+00 
1.000000e+00 1.000000e+00 1.000000e+00 1.000000e+00 1.000000e+00 1.000000e+00 9.999998e-01 9.999988e-01 9.999922e-01 9.999531e-01 9.997530e-01 9.988615e-01 9.954457e-01 9.842992e-01 9.538080e-01 8.845969e-01 7.560746e-01 5.590599e-01 3.250124e-01 2.613812e-01 4.501226e-01 6.877534e-01 8.520002e-01 9.414740e-01 9.805789e-01 9.945025e-01 9.986527e-01 9.997100e-01 9.999445e-01 9.999905e-01 9.999985e-01 9.999998e-01 9.999999e-01 9.999998e-01 9.999985e-01 9.999905e-01 9.999445e-01 9.997100e-01 9.986527e-01 9.945024e-01 9.805784e-01 9.414720e-01 8.519941e-01 6.877383e-01 4.500222e-01 2.610581e-01 3.248413e-01 5.590776e-01 7.560968e-01 8.846025e-01 9.538097e-01 9.842997e-01 9.954459e-01 9.988615e-01 9.997530e-01 9.999531e-01 9.999922e-01 9.999988e-01 9.999998e-01 1.000000e+00 1.000000e+00 1.000000e+00 1.000000e+00 1.000000e+00 
1.000000e+00 1.000000e+00 1.000000e+00 1.000000e+00 1.000000e+00 1.000000e+00 9.999999e-01 9.999990e-01 9.999933e-01 9.999595e-01 9.997844e-01 9.989943e-01 9.959231e-01 9.857496e-01 9.574580e-01 8.921718e-01 7.688473e-01 5.768849e-01 3.411973e-01 2.639078e-01 4.428883e-01 6.806208e-01 8.463079e-01 9.385863e-01 9.793858e-01 9.941056e-01 9.985403e-01 9.996827e-01 9.999387e-01 9.999894e-01 9.999983e-01 9.999998e-01 9.999999e-01 9.999998e-01 9.999983e-01 9.999894e-01 9.999387e-01 9.996827e-01 9.985403e-01 9.941055e-01 9.793853e-01 9.385846e-01 8.463026e-01 6.806018e-01 4.428375e-01 2.638441e-01 3.411934e-01 5.769152e-01 7.688776e-01 8.921845e-01 9.574617e-01 9.857503e-01 9.959232e-01 9.989943e-01 9.997844e-01 9.999595e-01 9.999933e-01 9.999990e-01 9.999999e-01 1.000000e+00 1.000000e+00 1.000000e+00 1.000000e+00 1.000000e+00 
1.000000e+00 1.000000e+00 1.000000e+00 1.000000e+00 1.000000e+00 1.000000e+00 9.999999e-01 9.999992e-01 9.999945e-01 9.999666e-01 9.998196e-01 9.991448e-01 9.964726e-01 9.874450e-01 9.617926e-01 9.013061e-01 7.844667e-01 5.990705e-01 3.625663e-01 2.679761e-01 4.330497e-01 6.699574e-01 8.378193e-01 9.343860e-01 9.776947e-01 9.935510e-01 9.983843e-01 9.996448e-01 9.999306e-01 9.999878e-01 9.999981e-01 9.999997e-01 9.999999e-01 9.999997e-01 9.999981e-01 9.999878e-01 9.999306e-01 9.996448e-01 9.983843e-01 9.935510e-01 9.776949e-01 9.343867e-01 8.378229e-01 6.699735e-01 4.331682e-01 2.682639e-01 3.626863e-01 5.990323e-01 7.844351e-01 9.012959e-01 9.617898e-01 9.874444e-01 9.964725e-01 9.991448e-01 9.998196e-01 9.999666e-01 9.999945e-01 9.999992e-01 9.999999e-01 1.000000e+00 1.000000e+00 1.000000e+00 1.000000e+00 1.000000e+00 