# vtk DataFile Version 2.0
Comment goes here
ASCII

DATASET STRUCTURED_POINTS
FIELD FieldData 1
TIME 1 1 double
1.21000000
DIMENSIONS    64   64   1

ORIGIN    0.000   0.000   0.000
SPACING   0.015625 0.015625   1.000

POINT_DATA   4096
SCALARS Concentration double
LOOKUP_TABLE default

9.770939e-01 9.768683e-01 9.761120e-01 9.748070e-01 9.729212e-01 9.704067e-01 9.672000e-01 9.632180e-01 9.583611e-01 9.525091e-01 9.455298e-01 9.372792e-01 9.276170e-01 9.164137e-01 9.035724e-01 8.890427e-01 8.728404e-01 8.550602e-01 8.358801e-01 8.155650e-01 7.944485e-01 7.729230e-01 7.513993e-01 7.303122e-01 7.100757e-01 6.910995e-01 6.737502e-01 6.583804e-01 6.452911e-01 6.347553e-01 6.269889e-01 6.221720e-01 6.204264e-01 6.218180e-01 6.263032e-01 6.337667e-01 6.440451e-01 6.569179e-01 6.721278e-01 6.893651e-01 7.082833e-01 7.285052e-01 7.496174e-01 7.711965e-01 7.927982e-01 8.140065e-01 8.344191e-01 8.537014e-01 8.715805e-01 8.878809e-01 9.025027e-01 9.154335e-01 9.267206e-01 9.364644e-01 9.447923e-01 9.518478e-01 9.577732e-01 9.627036e-01 9.667578e-01 9.700374e-01 9.726246e-01 9.745841e-01 9.759629e-01 9.767936e-01 
9.766053e-01 9.763787e-01 9.756179e-01 9.743048e-01 9.724074e-01 9.698778e-01 9.666526e-01 9.626485e-01 9.577654e-01 9.518828e-01 9.448669e-01 9.365726e-01 9.268581e-01 9.155917e-01 9.026734e-01 8.880494e-01 8.717313e-01 8.538099e-01 8.344585e-01 8.139384e-01 7.925791e-01 7.707725e-01 7.489297e-01 7.274882e-01 7.068669e-01 6.874832e-01 6.697127e-01 6.539231e-01 6.404381e-01 6.295549e-01 6.215118e-01 6.165104e-01 6.146876e-01 6.161163e-01 6.207510e-01 6.284630e-01 6.390715e-01 6.523313e-01 6.679630e-01 6.856305e-01 7.049691e-01 7.255905e-01 7.470724e-01 7.689848e-01 7.908797e-01 8.123406e-01 8.329657e-01 8.524247e-01 8.704490e-01 8.868678e-01 9.015858e-01 9.145949e-01 9.259462e-01 9.357431e-01 9.441154e-01 9.512084e-01 9.571654e-01 9.621231e-01 9.662006e-01 9.695002e-01 9.721039e-01 9.740766e-01 9.754653e-01 9.763023e-01 
9.751357e-01 9.749062e-01 9.741317e-01 9.727941e-01 9.708618e-01 9.682868e-01 9.650056e-01 9.609346e-01 9.559727e-01 9.499974e-01 9.428721e-01 9.344473e-01 9.245765e-01 9.131210e-01 8.999720e-01 8.850649e-01 8.683996e-01 8.500543e-01 8.301897e-01 8.090564e-01 7.869741e-01 7.643331e-01 7.415463e-01 7.190613e-01 6.973121e-01 6.767411e-01 6.577549e-01 6.407654e-01 6.261539e-01 6.142838e-01 6.054551e-01 5.999294e-01 5.978856e-01 5.994177e-01 6.044731e-01 6.128870e-01 6.244297e-01 6.387890e-01 6.556247e-01 6.745322e-01 6.950971e-01 7.168916e-01 7.394635e-01 7.623628e-01 7.851287e-01 8.073425e-01 8.286033e-01 8.485921e-01 8.670518e-01 8.838258e-01 8.988323e-01 9.120761e-01 9.236193e-01 9.335749e-01 9.420800e-01 9.492848e-01 9.553372e-01 9.603768e-01 9.645247e-01 9.678842e-01 9.705379e-01 9.725503e-01 9.739685e-01 9.748244e-01 
9.726646e-01 9.724306e-01 9.716336e-01 9.702557e-01 9.682657e-01 9.656157e-01 9.622423e-01 9.580611e-01 9.529693e-01 9.468417e-01 9.395368e-01 9.308985e-01 9.207721e-01 9.090077e-01 8.954817e-01 8.801131e-01 8.628821e-01 8.438476e-01 8.231503e-01 8.010253e-01 7.777784e-01 7.537961e-01 7.294973e-01 7.053470e-01 6.818052e-01 6.593543e-01 6.384516e-01 6.195756e-01 6.031940e-01 5.897721e-01 5.797073e-01 5.733558e-01 5.709621e-01 5.726519e-01 5.783643e-01 5.878776e-01 6.008867e-01 6.169738e-01 6.357054e-01 6.565711e-01 6.790828e-01 7.027453e-01 7.270585e-01 7.515383e-01 7.757029e-01 7.991266e-01 8.214128e-01 8.422587e-01 8.614249e-01 8.787766e-01 8.942531e-01 9.078797e-01 9.197365e-01 9.299518e-01 9.386743e-01 9.460629e-01 9.522725e-01 9.574473e-01 9.617118e-01 9.651705e-01 9.679068e-01 9.699851e-01 9.714522e-01 9.723396e-01 
9.691562e-01 9.689161e-01 9.680882e-01 9.666547e-01 9.645850e-01 9.618315e-01 9.583305e-01 9.539967e-01 9.487254e-01 9.423872e-01 9.348346e-01 9.259016e-01 9.154222e-01 9.032309e-01 8.891845e-01 8.731790e-01 8.551689e-01 8.351877e-01 8.133513e-01 7.898764e-01 7.650559e-01 7.392770e-01 7.129694e-01 6.866292e-01 6.607550e-01 6.358829e-01 6.125350e-01 5.912649e-01 5.726362e-01 5.572400e-01 5.455939e-01 5.381799e-01 5.353288e-01 5.372110e-01 5.437529e-01 5.546595e-01 5.695278e-01 5.878063e-01 6.089499e-01 6.323233e-01 6.573534e-01 6.834557e-01 7.100626e-01 7.366427e-01 7.626772e-01 7.877318e-01 8.114095e-01 8.334251e-01 8.535594e-01 8.717053e-01 8.878294e-01 9.019843e-01 9.142744e-01 9.248482e-01 9.338712e-01 9.415134e-01 9.479404e-01 9.533027e-01 9.577287e-01 9.613250e-01 9.641759e-01 9.663458e-01 9.678809e-01 9.688121e-01 
9.645611e-01 9.643137e-01 9.634469e-01 9.619435e-01 9.597732e-01 9.568888e-01 9.532266e-01 9.487002e-01 9.432020e-01 9.365980e-01 9.287327e-01 9.194282e-01 9.085034e-01 8.957739e-01 8.810717e-01 8.642657e-01 8.452788e-01 8.241161e-01 8.008655e-01 7.757272e-01 7.489844e-01 7.210348e-01 6.923286e-01 6.634038e-01 6.348088e-01 6.071394e-01 5.809819e-01 5.569624e-01 5.357393e-01 5.180478e-01 5.045523e-01 4.958882e-01 4.924919e-01 4.945849e-01 5.020830e-01 5.146035e-01 5.316279e-01 5.524424e-01 5.763760e-01 6.026532e-01 6.306151e-01 6.595762e-01 6.888926e-01 7.179738e-01 7.462564e-01 7.732912e-01 7.986738e-01 8.221337e-01 8.434713e-01 8.626098e-01 8.795467e-01 8.943667e-01 9.072032e-01 9.182299e-01 9.276323e-01 9.355955e-01 9.422978e-01 9.478977e-01 9.525288e-01 9.563000e-01 9.592968e-01 9.615831e-01 9.632051e-01 9.641923e-01 
9.588166e-01 9.585609e-01 9.576476e-01 9.560600e-01 9.537688e-01 9.507270e-01 9.468707e-01 9.421123e-01 9.363410e-01 9.294169e-01 9.211751e-01 9.114235e-01 8.999616e-01 8.865827e-01 8.710901e-01 8.533201e-01 8.331611e-01 8.105865e-01 7.856568e-01 7.585597e-01 7.295781e-01 6.991360e-01 6.677241e-01 6.359461e-01 6.044163e-01 5.737923e-01 5.447159e-01 5.178606e-01 4.939355e-01 4.738168e-01 4.583247e-01 4.482885e-01 4.442772e-01 4.465837e-01 4.551050e-01 4.693464e-01 4.886480e-01 5.121116e-01 5.389509e-01 5.682839e-01 5.993762e-01 6.314399e-01 6.637433e-01 6.956319e-01 7.264741e-01 7.557968e-01 7.831711e-01 8.083360e-01 8.311052e-01 8.514321e-01 8.693464e-01 8.849683e-01 8.984647e-01 9.100383e-01 9.198982e-01 9.282488e-01 9.352838e-01 9.411710e-01 9.460501e-01 9.500330e-01 9.532065e-01 9.556342e-01 9.573617e-01 9.584172e-01 
9.518502e-01 9.515855e-01 9.506186e-01 9.489330e-01 9.465007e-01 9.432752e-01 9.391927e-01 9.341639e-01 9.280744e-01 9.207775e-01 9.120971e-01 9.018252e-01 8.897372e-01 8.756013e-01 8.591881e-01 8.402991e-01 8.187850e-01 7.945894e-01 7.677478e-01 7.384452e-01 7.069763e-01 6.738132e-01 6.395093e-01 6.047621e-01 5.702649e-01 5.367313e-01 5.048287e-01 4.752033e-01 4.485801e-01 4.259763e-01 4.083986e-01 3.969103e-01 3.922347e-01 3.947498e-01 4.043301e-01 4.203503e-01 4.419915e-01 4.681360e-01 4.978824e-01 5.302501e-01 5.644707e-01 5.996785e-01 6.350658e-01 6.699130e-01 7.035067e-01 7.353347e-01 7.649263e-01 7.920160e-01 8.164204e-01 8.381169e-01 8.571652e-01 8.737216e-01 8.879888e-01 9.002016e-01 9.105957e-01 9.193994e-01 9.268239e-01 9.330475e-01 9.382177e-01 9.424493e-01 9.458309e-01 9.484253e-01 9.502776e-01 9.514142e-01 
9.435813e-01 9.433069e-01 9.422784e-01 9.404800e-01 9.378855e-01 9.344487e-01 9.301064e-01 9.247673e-01 9.183132e-01 9.105893e-01 9.014066e-01 8.905392e-01 8.777335e-01 8.627290e-01 8.452608e-01 8.250926e-01 8.020372e-01 7.760089e-01 7.470242e-01 7.152747e-01 6.810810e-01 6.449888e-01 6.076444e-01 5.698837e-01 5.325171e-01 4.963208e-01 4.619870e-01 4.300442e-01 4.011065e-01 3.762513e-01 3.566481e-01 3.436624e-01 3.382610e-01 3.409930e-01 3.516594e-01 3.694192e-01 3.932237e-01 4.217190e-01 4.539803e-01 4.890452e-01 5.261741e-01 5.644166e-01 6.028756e-01 6.407678e-01 6.772566e-01 7.117838e-01 7.438053e-01 7.730378e-01 7.992848e-01 8.225386e-01 8.428855e-01 8.605156e-01 8.756705e-01 8.886187e-01 8.996266e-01 9.089515e-01 9.168244e-01 9.234358e-01 9.289421e-01 9.334614e-01 9.370844e-01 9.398727e-01 9.418704e-01 9.431020e-01 
9.339275e-01 9.336427e-01 9.325439e-01 9.306164e-01 9.278360e-01 9.241577e-01 9.195194e-01 9.138277e-01 9.069600e-01 8.987523e-01 8.890012e-01 8.774597e-01 8.638433e-01 8.478567e-01 8.291977e-01 8.075933e-01 7.828192e-01 7.547680e-01 7.234444e-01 6.890606e-01 6.519779e-01 6.128380e-01 5.724070e-01 5.317108e-01 4.916921e-01 4.532106e-01 4.169547e-01 3.831874e-01 3.523402e-01 3.255411e-01 3.041297e-01 2.897694e-01 2.836790e-01 2.865978e-01 2.982470e-01 3.175701e-01 3.432905e-01 3.738235e-01 4.082289e-01 4.455691e-01 4.852156e-01 5.261863e-01 5.675201e-01 6.083820e-01 6.477912e-01 6.851218e-01 7.197301e-01 7.512896e-01 7.795703e-01 8.045646e-01 8.263753e-01 8.452230e-01 8.613868e-01 8.751699e-01 8.868766e-01 8.967950e-01 9.051789e-01 9.122331e-01 9.181244e-01 9.229744e-01 9.268757e-01 9.298883e-01 9.320551e-01 9.333972e-01 
9.228081e-01 9.225116e-01 9.213315e-01 9.192546e-01 9.162600e-01 9.123046e-01 9.073279e-01 9.012348e-01 8.938982e-01 8.851434e-01 8.747505e-01 8.624481e-01 8.479205e-01 8.308285e-01 8.108330e-01 7.876238e-01 7.609450e-01 7.306713e-01 6.968045e-01 6.595814e-01 6.194057e-01 5.770266e-01 5.333444e-01 4.896502e-01 4.470798e-01 4.066116e-01 3.691185e-01 3.345577e-01 3.028772e-01 2.750210e-01 2.522792e-01 2.366568e-01 2.298500e-01 2.329837e-01 2.455952e-01 2.661733e-01 2.930900e-01 3.246156e-01 3.601356e-01 3.990395e-01 4.408321e-01 4.843160e-01 5.284189e-01 5.722889e-01 6.147125e-01 6.550123e-01 6.924068e-01 7.265106e-01 7.570450e-01 7.839848e-01 8.074463e-01 8.276713e-01 8.449792e-01 8.597065e-01 8.722074e-01 8.827997e-01 8.917651e-01 8.993245e-01 9.056567e-01 9.108870e-01 9.151102e-01 9.183831e-01 9.207466e-01 9.222180e-01 
9.101553e-01 9.098449e-01 9.085695e-01 9.063176e-01 9.030737e-01 8.987970e-01 8.934309e-01 8.868784e-01 8.790083e-01 8.696332e-01 8.585144e-01 8.453525e-01 8.297969e-01 8.114636e-01 7.899685e-01 7.649712e-01 7.361882e-01 7.034899e-01 6.668817e-01 6.266324e-01 5.831884e-01 5.373942e-01 4.903056e-01 4.435746e-01 3.985212e-01 3.563421e-01 3.180857e-01 2.832141e-01 2.513189e-01 2.233146e-01 2.003565e-01 1.844316e-01 1.773605e-01 1.805179e-01 1.933183e-01 2.140874e-01 2.412244e-01 2.731231e-01 3.093805e-01 3.493832e-01 3.928158e-01 4.384466e-01 4.851517e-01 5.320438e-01 5.776053e-01 6.210670e-01 6.614843e-01 6.983847e-01 7.314223e-01 7.605437e-01 7.858673e-01 8.076535e-01 8.262573e-01 8.420587e-01 8.554632e-01 8.668229e-01 8.764521e-01 8.845899e-01 8.914300e-01 8.971008e-01 9.016988e-01 9.052765e-01 9.078713e-01 9.094947e-01 
8.959194e-01 8.955915e-01 8.942013e-01 8.917410e-01 8.882016e-01 8.835477e-01 8.777274e-01 8.706438e-01 8.621608e-01 8.520770e-01 8.401311e-01 8.259913e-01 8.092663e-01 7.895301e-01 7.663430e-01 7.393341e-01 7.082012e-01 6.728100e-01 6.331767e-01 5.895846e-01 5.424958e-01 4.928128e-01 4.417017e-01 3.913920e-01 3.434133e-01 2.989627e-01 2.601097e-01 2.262566e-01 1.960326e-01 1.698727e-01 1.481829e-01 1.326272e-01 1.254335e-01 1.286496e-01 1.412808e-01 1.610933e-01 1.865343e-01 2.165369e-01 2.517870e-01 2.923380e-01 3.377403e-01 3.858755e-01 4.355582e-01 4.860546e-01 5.352541e-01 5.823759e-01 6.262808e-01 6.663805e-01 7.022843e-01 7.338933e-01 7.613480e-01 7.849155e-01 8.050004e-01 8.220334e-01 8.364740e-01 8.487133e-01 8.591052e-01 8.679107e-01 8.753403e-01 8.815259e-01 8.865648e-01 8.905027e-01 8.933718e-01 8.951757e-01 
8.800845e-01 8.797334e-01 8.782029e-01 8.754899e-01 8.715961e-01 8.664926e-01 8.601367e-01 8.524312e-01 8.432365e-01 8.323330e-01 8.194332e-01 8.041644e-01 7.860875e-01 7.647252e-01 7.395876e-01 7.102589e-01 6.764103e-01 6.379146e-01 5.947884e-01 5.473369e-01 4.960437e-01 4.417943e-01 3.859913e-01 3.317248e-01 2.808387e-01 2.347121e-01 1.952271e-01 1.612600e-01 1.315873e-01 1.078623e-01 9.025705e-02 7.869473e-02 7.352133e-02 7.581042e-02 8.499754e-02 1.004268e-01 1.224955e-01 1.514354e-01 1.872058e-01 2.280779e-01 2.741584e-01 3.243149e-01 3.774337e-01 4.323147e-01 4.859819e-01 5.375894e-01 5.857448e-01 6.296940e-01 6.689961e-01 7.035334e-01 7.334767e-01 7.591201e-01 7.809378e-01 7.994068e-01 8.150521e-01 8.283125e-01 8.395915e-01 8.491760e-01 8.572981e-01 8.640921e-01 8.696556e-01 8.740241e-01 8.772221e-01 8.792422e-01 
8.626737e-01 8.622906e-01 8.605855e-01 8.575626e-01 8.532375e-01 8.475924e-01 8.405970e-01 8.321558e-01 8.221250e-01 8.102636e-01 7.962500e-01 7.796610e-01 7.599959e-01 7.367143e-01 7.092625e-01 6.771790e-01 6.400907e-01 5.978450e-01 5.504681e-01 4.982624e-01 4.417852e-01 3.818675e-01 3.200933e-01 2.610667e-01 2.066160e-01 1.564455e-01 1.155179e-01 8.539651e-02 6.268609e-02 4.719067e-02 3.729901e-02 3.178481e-02 2.963858e-02 3.065652e-02 3.486043e-02 4.298652e-02 5.669346e-02 7.750024e-02 1.072431e-01 1.468947e-01 1.962347e-01 2.502723e-01 3.077730e-01 3.683049e-01 4.276093e-01 4.849329e-01 5.385601e-01 5.873151e-01 6.307998e-01 6.688634e-01 7.017931e-01 7.299155e-01 7.537931e-01 7.739586e-01 7.910214e-01 8.054800e-01 8.177995e-01 8.283014e-01 8.372426e-01 8.447618e-01 8.509536e-01 8.558406e-01 8.594350e-01 8.617152e-01 
8.437662e-01 8.433388e-01 8.414152e-01 8.380097e-01 8.331572e-01 8.268550e-01 8.190910e-01 8.097719e-01 7.987508e-01 7.857560e-01 7.704248e-01 7.522630e-01 7.306933e-01 7.050863e-01 6.748005e-01 6.393059e-01 5.981436e-01 5.511423e-01 4.982884e-01 4.400191e-01 3.771133e-01 3.104304e-01 2.422473e-01 1.769230e-01 1.200133e-01 7.610294e-02 4.871242e-02 3.374028e-02 2.657928e-02 2.433629e-02 2.405304e-02 2.450234e-02 2.492077e-02 2.488550e-02 2.448734e-02 2.441837e-02 2.591922e-02 3.110322e-02 4.372139e-02 6.708342e-02 1.068713e-01 1.611517e-01 2.247686e-01 2.918034e-01 3.579464e-01 4.224953e-01 4.831141e-01 5.379734e-01 5.866736e-01 6.291061e-01 6.657014e-01 6.968516e-01 7.232287e-01 7.454384e-01 7.641986e-01 7.800833e-01 7.936393e-01 8.052313e-01 8.151505e-01 8.235391e-01 8.304883e-01 8.360024e-01 8.400766e-01 8.426705e-01 
8.234973e-01 8.230086e-01 8.208108e-01 8.169324e-01 8.114337e-01 8.043333e-01 7.956431e-01 7.852744e-01 7.730754e-01 7.587362e-01 7.418370e-01 7.217961e-01 6.979323e-01 6.695114e-01 6.357766e-01 5.961143e-01 5.499577e-01 4.970609e-01 4.374179e-01 3.715683e-01 3.010853e-01 2.270510e-01 1.532818e-01 9.083995e-02 5.186968e-02 3.402529e-02 3.132488e-02 3.635443e-02 4.301848e-02 4.826022e-02 5.107973e-02 5.231240e-02 5.289776e-02 5.300159e-02 5.241810e-02 5.051646e-02 4.604424e-02 3.921130e-02 3.285553e-02 3.208991e-02 4.467924e-02 7.642520e-02 1.324232e-01 2.030338e-01 2.768503e-01 3.496064e-01 4.188811e-01 4.810968e-01 5.360923e-01 5.837691e-01 6.247897e-01 6.596010e-01 6.889999e-01 7.136749e-01 7.344696e-01 7.520567e-01 7.670823e-01 7.799718e-01 7.910570e-01 8.004876e-01 8.083475e-01 8.146182e-01 8.192709e-01 8.222412e-01 
8.020703e-01 8.014987e-01 7.989597e-01 7.945006e-01 7.882151e-01 7.801499e-01 7.703492e-01 7.587294e-01 7.451347e-01 7.292006e-01 7.104400e-01 6.881492e-01 6.615319e-01 6.297144e-01 5.918244e-01 5.471506e-01 4.949718e-01 4.349868e-01 3.670014e-01 2.921278e-01 2.124736e-01 1.341946e-01 7.104135e-02 3.949817e-02 3.582153e-02 4.879364e-02 6.500839e-02 7.498086e-02 7.997832e-02 8.274915e-02 8.391720e-02 8.428891e-02 8.456257e-02 8.497683e-02 8.523080e-02 8.482608e-02 8.239561e-02 7.775887e-02 6.877437e-02 5.354126e-02 3.830828e-02 3.550612e-02 5.719986e-02 1.104185e-01 1.857237e-01 2.669593e-01 3.456568e-01 4.163303e-01 4.785780e-01 5.323938e-01 5.786503e-01 6.178407e-01 6.508774e-01 6.785189e-01 7.017580e-01 7.213776e-01 7.381533e-01 7.525847e-01 7.650584e-01 7.757332e-01 7.846839e-01 7.918625e-01 7.972090e-01 8.006283e-01 
7.797451e-01 7.790632e-01 7.761036e-01 7.709381e-01 7.637028e-01 7.544818e-01 7.433606e-01 7.302636e-01 7.150289e-01 6.972253e-01 6.762795e-01 6.513474e-01 6.214976e-01 5.857385e-01 5.430871e-01 4.928183e-01 4.340357e-01 3.663974e-01 2.896759e-01 2.057797e-01 1.217927e-01 5.965246e-02 3.585173e-02 4.517101e-02 6.944524e-02 9.256394e-02 1.086433e-01 1.171935e-01 1.206495e-01 1.214426e-01 1.207949e-01 1.199538e-01 1.197333e-01 1.204737e-01 1.217884e-01 1.230390e-01 1.225197e-01 1.194103e-01 1.112652e-01 9.686647e-02 7.621321e-02 5.166732e-02 3.566617e-02 4.730877e-02 9.758508e-02 1.786529e-01 2.655947e-01 3.450392e-01 4.149332e-01 4.754447e-01 5.275220e-01 5.716996e-01 6.089366e-01 6.400479e-01 6.661516e-01 6.881592e-01 7.069855e-01 7.232279e-01 7.373336e-01 7.494777e-01 7.597192e-01 7.679747e-01 7.741428e-01 7.780909e-01 
7.568406e-01 7.560167e-01 7.525471e-01 7.465358e-01 7.381710e-01 7.275859e-01 7.149191e-01 7.001054e-01 6.829801e-01 6.630256e-01 6.395797e-01 6.116208e-01 5.781164e-01 5.379423e-01 4.901270e-01 4.339235e-01 3.682983e-01 2.927589e-01 2.077440e-01 1.206809e-01 5.488361e-02 3.505051e-02 5.382088e-02 8.566858e-02 1.149762e-01 1.383981e-01 1.538033e-01 1.609143e-01 1.628029e-01 1.619590e-01 1.600730e-01 1.584677e-01 1.579221e-01 1.588059e-01 1.606855e-01 1.629251e-01 1.638674e-01 1.622917e-01 1.557673e-01 1.424533e-01 1.215248e-01 9.438340e-02 6.323560e-02 3.817474e-02 4.298699e-02 9.566064e-02 1.804434e-01 2.678915e-01 3.460170e-01 4.136229e-01 4.719251e-01 5.215235e-01 5.634388e-01 5.984692e-01 6.278554e-01 6.526081e-01 6.738017e-01 6.921381e-01 7.081376e-01 7.219927e-01 7.337413e-01 7.432568e-01 7.503847e-01 7.549473e-01 
7.337093e-01 7.327064e-01 7.286283e-01 7.216189e-01 7.119313e-01 6.997611e-01 6.853134e-01 6.685400e-01 6.492766e-01 6.269077e-01 6.006759e-01 5.693741e-01 5.318932e-01 4.870599e-01 4.339801e-01 3.721241e-01 3.000745e-01 2.171854e-01 1.281280e-01 5.659183e-02 3.439971e-02 5.733899e-02 9.449295e-02 1.305296e-01 1.607137e-01 1.831442e-01 1.975541e-01 2.044217e-01 2.060999e-01 2.048701e-01 2.025381e-01 2.005767e-01 1.998253e-01 2.007201e-01 2.027898e-01 2.053207e-01 2.066537e-01 2.053538e-01 1.992029e-01 1.865841e-01 1.665530e-01 1.389889e-01 1.052652e-01 6.833812e-02 3.857654e-02 4.315547e-02 1.013233e-01 1.887325e-01 2.745846e-01 3.490090e-01 4.133581e-01 4.683736e-01 5.151168e-01 5.543384e-01 5.873076e-01 6.151118e-01 6.389553e-01 6.596581e-01 6.778068e-01 6.936166e-01 7.070923e-01 7.180557e-01 7.262855e-01 7.315504e-01 
7.107335e-01 7.095121e-01 7.047214e-01 6.965569e-01 6.853493e-01 6.713749e-01 6.549198e-01 6.359654e-01 6.143561e-01 5.893723e-01 5.601790e-01 5.253657e-01 4.838537e-01 4.344010e-01 3.764915e-01 3.097317e-01 2.321418e-01 1.442832e-01 6.530955e-02 3.332178e-02 5.508351e-02 9.582847e-02 1.368529e-01 1.734416e-01 2.034157e-01 2.257171e-01 2.401387e-01 2.474334e-01 2.495906e-01 2.486925e-01 2.465597e-01 2.446756e-01 2.438919e-01 2.446599e-01 2.465206e-01 2.487444e-01 2.497645e-01 2.480761e-01 2.416572e-01 2.289431e-01 2.088289e-01 1.812159e-01 1.469540e-01 1.076732e-01 6.670679e-02 3.575289e-02 4.800903e-02 1.160080e-01 2.033658e-01 2.841815e-01 3.536907e-01 4.135874e-01 4.649780e-01 5.083967e-01 5.451136e-01 5.761808e-01 6.029071e-01 6.262154e-01 6.467494e-01 6.647451e-01 6.801601e-01 6.927555e-01 7.022267e-01 7.082813e-01 
6.882938e-01 6.868090e-01 6.811972e-01 6.717176e-01 6.587942e-01 6.428032e-01 6.241291e-01 6.027975e-01 5.786761e-01 5.509432e-01 5.187176e-01 4.803756e-01 4.349742e-01 3.811797e-01 3.189720e-01 2.485420e-01 1.664588e-01 8.326453e-02 3.459552e-02 4.723331e-02 8.924186e-02 1.336626e-01 1.752433e-01 2.120029e-01 2.421618e-01 2.648430e-01 2.801239e-01 2.887818e-01 2.923765e-01 2.927437e-01 2.915327e-01 2.901952e-01 2.895611e-01 2.900906e-01 2.913546e-01 2.926316e-01 2.924717e-01 2.894358e-01 2.817635e-01 2.680817e-01 2.474278e-01 2.195310e-01 1.849045e-01 1.451226e-01 1.019024e-01 5.890307e-02 3.238085e-02 6.074310e-02 1.370866e-01 2.216644e-01 2.950709e-01 3.588632e-01 4.142827e-01 4.616409e-01 5.020420e-01 5.364631e-01 5.662107e-01 5.923089e-01 6.154204e-01 6.358040e-01 6.533494e-01 6.677485e-01 6.785971e-01 6.855265e-01 
6.667693e-01 6.649716e-01 6.584273e-01 6.474825e-01 6.326665e-01 6.144790e-01 5.934138e-01 5.695753e-01 5.428635e-01 5.124062e-01 4.772935e-01 4.357602e-01 3.870775e-01 3.297338e-01 2.647602e-01 1.913437e-01 1.093136e-01 4.427071e-02 3.630055e-02 7.496456e-02 1.216909e-01 1.668889e-01 2.085976e-01 2.453708e-01 2.759727e-01 2.997821e-01 3.167131e-01 3.274240e-01 3.330962e-01 3.353024e-01 3.355001e-01 3.350386e-01 3.347004e-01 3.349180e-01 3.353189e-01 3.352235e-01 3.333310e-01 3.283236e-01 3.186941e-01 3.033051e-01 2.813835e-01 2.527874e-01 2.180110e-01 1.780464e-01 1.345568e-01 8.908830e-02 4.619279e-02 3.402023e-02 8.354702e-02 1.635649e-01 2.404979e-01 3.061252e-01 3.647808e-01 4.154473e-01 4.592217e-01 4.968741e-01 5.296294e-01 5.585908e-01 5.843937e-01 6.073082e-01 6.271312e-01 6.434710e-01 6.558052e-01 6.636757e-01 
6.465066e-01 6.443446e-01 6.367773e-01 6.242456e-01 6.073947e-01 5.868707e-01 5.632935e-01 5.368835e-01 5.076010e-01 4.745851e-01 4.369500e-01 3.928312e-01 3.418347e-01 2.819378e-01 2.161571e-01 1.400314e-01 6.598671e-02 3.029264e-02 5.556022e-02 1.015263e-01 1.489041e-01 1.938007e-01 2.353758e-01 2.724309e-01 3.040612e-01 3.296132e-01 3.488755e-01 3.622552e-01 3.705920e-01 3.751740e-01 3.772212e-01 3.779406e-01 3.780310e-01 3.778845e-01 3.771904e-01 3.753401e-01 3.712072e-01 3.636456e-01 3.514264e-01 3.336727e-01 3.098785e-01 2.800840e-01 2.448088e-01 2.048750e-01 1.616875e-01 1.156482e-01 6.975653e-02 3.267610e-02 4.741236e-02 1.135586e-01 1.912305e-01 2.575256e-01 3.181197e-01 3.713151e-01 4.178534e-01 4.583998e-01 4.939763e-01 5.257461e-01 5.542616e-01 5.797754e-01 6.019663e-01 6.203366e-01 6.342312e-01 6.430858e-01 
6.278324e-01 6.252639e-01 6.166058e-01 6.024035e-01 5.834229e-01 5.604797e-01 5.343284e-01 5.053584e-01 4.736056e-01 4.383413e-01 3.986883e-01 3.529339e-01 3.006897e-01 2.400701e-01 1.743400e-01 9.896145e-02 3.963226e-02 3.457529e-02 7.672935e-02 1.227009e-01 1.693233e-01 2.133767e-01 2.549063e-01 2.926604e-01 3.258713e-01 3.537553e-01 3.758501e-01 3.923118e-01 4.036538e-01 4.108948e-01 4.150233e-01 4.170819e-01 4.176781e-01 4.171488e-01 4.152483e-01 4.114508e-01 4.048073e-01 3.943582e-01 3.791360e-01 3.585360e-01 3.323158e-01 3.007788e-01 2.645544e-01 2.245315e-01 1.816475e-01 1.364892e-01 9.040480e-02 4.515343e-02 3.057000e-02 7.587895e-02 1.482347e-01 2.153554e-01 2.759332e-01 3.309033e-01 3.792510e-01 4.221560e-01 4.601600e-01 4.945407e-01 5.256721e-01 5.537609e-01 5.783326e-01 5.987609e-01 6.142434e-01 6.240952e-01 
6.110293e-01 6.080271e-01 5.982471e-01 5.823426e-01 5.612032e-01 5.358254e-01 5.071078e-01 4.756484e-01 4.415807e-01 4.044243e-01 3.632897e-01 3.169136e-01 2.644674e-01 2.052047e-01 1.397626e-01 6.948560e-02 2.810439e-02 4.545045e-02 9.125563e-02 1.362707e-01 1.814010e-01 2.250211e-01 2.668779e-01 3.059622e-01 3.413144e-01 3.719979e-01 3.972821e-01 4.170785e-01 4.316255e-01 4.416848e-01 4.480263e-01 4.515174e-01 4.526668e-01 4.517511e-01 4.485856e-01 4.427338e-01 4.334255e-01 4.198886e-01 4.014067e-01 3.776219e-01 3.485471e-01 3.147523e-01 2.770118e-01 2.364468e-01 1.936456e-01 1.497538e-01 1.041199e-01 5.960368e-02 2.751923e-02 4.931822e-02 1.119615e-01 1.794385e-01 2.392226e-01 2.950799e-01 3.444001e-01 3.889857e-01 4.289637e-01 4.656511e-01 4.992252e-01 5.297777e-01 5.566704e-01 5.791169e-01 5.961649e-01 6.069949e-01 
5.963506e-01 5.929058e-01 5.820173e-01 5.644446e-01 5.411952e-01 5.134479e-01 4.822429e-01 4.484073e-01 4.121827e-01 3.733928e-01 3.311271e-01 2.846572e-01 2.325679e-01 1.754429e-01 1.107855e-01 4.854472e-02 2.569696e-02 5.499337e-02 9.795518e-02 1.420127e-01 1.857324e-01 2.294426e-01 2.721397e-01 3.130677e-01 3.509171e-01 3.846301e-01 4.132312e-01 4.364003e-01 4.541379e-01 4.669815e-01 4.755045e-01 4.804077e-01 4.821082e-01 4.808248e-01 4.764248e-01 4.685553e-01 4.566089e-01 4.399876e-01 4.181994e-01 3.911037e-01 3.589477e-01 3.225525e-01 2.828892e-01 2.413288e-01 1.984309e-01 1.556755e-01 1.117531e-01 7.031362e-02 3.130124e-02 3.358879e-02 8.513976e-02 1.509296e-01 2.094585e-01 2.647904e-01 3.142442e-01 3.597014e-01 4.011591e-01 4.397663e-01 4.755333e-01 5.083498e-01 5.374191e-01 5.617672e-01 5.802979e-01 5.920493e-01 
5.840082e-01 5.801392e-01 5.682144e-01 5.490896e-01 5.238813e-01 4.939339e-01 4.604277e-01 4.244021e-01 3.862357e-01 3.460220e-01 3.029198e-01 2.565562e-01 2.053037e-01 1.503631e-01 8.826093e-02 3.512310e-02 2.704789e-02 6.074257e-02 9.965855e-02 1.419634e-01 1.845961e-01 2.286385e-01 2.724970e-01 3.154829e-01 3.558868e-01 3.925728e-01 4.243362e-01 4.506832e-01 4.714035e-01 4.868368e-01 4.973873e-01 5.036033e-01 5.058191e-01 5.042008e-01 4.986588e-01 4.889146e-01 4.745051e-01 4.549865e-01 4.300618e-01 3.997727e-01 3.645915e-01 3.255094e-01 2.837092e-01 2.407690e-01 1.975284e-01 1.555086e-01 1.138533e-01 7.495196e-02 3.583355e-02 2.566273e-02 6.671663e-02 1.292099e-01 1.862038e-01 2.399379e-01 2.890002e-01 3.347264e-01 3.772892e-01 4.174491e-01 4.551304e-01 4.899443e-01 5.209695e-01 5.470273e-01 5.668977e-01 5.794766e-01 
5.741851e-01 5.699383e-01 5.571102e-01 5.366381e-01 5.097302e-01 4.778705e-01 4.423656e-01 4.044317e-01 3.646017e-01 3.231647e-01 2.794607e-01 2.332204e-01 1.830890e-01 1.299949e-01 7.158288e-02 2.708106e-02 2.909577e-02 6.336462e-02 9.938116e-02 1.394508e-01 1.810620e-01 2.252832e-01 2.701750e-01 3.149797e-01 3.576439e-01 3.969424e-01 4.314503e-01 4.605532e-01 4.838459e-01 5.015078e-01 5.137993e-01 5.211415e-01 5.237996e-01 5.218969e-01 5.153752e-01 5.040168e-01 4.874776e-01 4.654410e-01 4.377737e-01 4.046710e-01 3.667913e-01 3.252397e-01 2.814467e-01 2.370605e-01 1.933942e-01 1.517243e-01 1.120994e-01 7.507258e-02 3.921205e-02 2.235177e-02 5.373529e-02 1.118624e-01 1.676142e-01 2.197582e-01 2.685022e-01 3.143328e-01 3.578107e-01 3.992291e-01 4.385223e-01 4.750094e-01 5.076892e-01 5.351896e-01 5.561932e-01 5.694676e-01 
5.670303e-01 5.624848e-01 5.489525e-01 5.274312e-01 4.992008e-01 4.658476e-01 4.287846e-01 3.893510e-01 3.482359e-01 3.058348e-01 2.617389e-01 2.155848e-01 1.665774e-01 1.148659e-01 6.017034e-02 2.283332e-02 3.116225e-02 6.411040e-02 9.833091e-02 1.364429e-01 1.772546e-01 2.214719e-01 2.671174e-01 3.132866e-01 3.576910e-01 3.990105e-01 4.356361e-01 4.668581e-01 4.921287e-01 5.115031e-01 5.251329e-01 5.333407e-01 5.363388e-01 5.342180e-01 5.269423e-01 5.143400e-01 4.961554e-01 4.721695e-01 4.423718e-01 4.070725e-01 3.670688e-01 3.235463e-01 2.781749e-01 2.325944e-01 1.886103e-01 1.471138e-01 1.090792e-01 7.349890e-02 4.090719e-02 2.084757e-02 4.477228e-02 9.854916e-02 1.533133e-01 2.043519e-01 2.530308e-01 2.990088e-01 3.432544e-01 3.856463e-01 4.261897e-01 4.639546e-01 4.979030e-01 5.265036e-01 5.483729e-01 5.621758e-01 
5.626660e-01 5.579268e-01 5.439433e-01 5.217512e-01 4.926758e-01 4.583665e-01 4.203064e-01 3.799080e-01 3.379738e-01 2.949452e-01 2.506225e-01 2.044974e-01 1.562898e-01 1.053984e-01 5.350133e-02 2.091770e-02 3.255759e-02 6.408175e-02 9.744051e-02 1.342646e-01 1.745803e-01 2.186777e-01 2.647368e-01 3.117062e-01 3.571847e-01 3.997695e-01 4.377298e-01 4.702888e-01 4.968097e-01 5.172690e-01 5.317467e-01 5.405031e-01 5.437162e-01 5.414572e-01 5.337023e-01 5.203085e-01 5.010771e-01 4.758503e-01 4.446993e-01 4.079984e-01 3.666438e-01 3.218655e-01 2.755172e-01 2.292049e-01 1.850874e-01 1.437332e-01 1.067525e-01 7.220953e-02 4.172715e-02 2.017133e-02 3.943118e-02 9.003048e-02 1.440296e-01 1.944725e-01 2.432286e-01 2.893824e-01 3.341720e-01 3.772039e-01 4.185536e-01 4.571299e-01 4.918823e-01 5.211772e-01 5.435927e-01 5.577277e-01 
5.611870e-01 5.563808e-01 5.422413e-01 5.198173e-01 4.904499e-01 4.558093e-01 4.174046e-01 3.766705e-01 3.344522e-01 2.912001e-01 2.467930e-01 2.006577e-01 1.527070e-01 1.020497e-01 5.121771e-02 2.040483e-02 3.315978e-02 6.411702e-02 9.719140e-02 1.335395e-01 1.736687e-01 2.176922e-01 2.638717e-01 3.111018e-01 3.569424e-01 3.999583e-01 4.383729e-01 4.713855e-01 4.983314e-01 5.191597e-01 5.339269e-01 5.428707e-01 5.461576e-01 5.438513e-01 5.359328e-01 5.222689e-01 5.026801e-01 4.770305e-01 4.454176e-01 4.082362e-01 3.664150e-01 3.212006e-01 2.745168e-01 2.279578e-01 1.838018e-01 1.424957e-01 1.058756e-01 7.169368e-02 4.195872e-02 1.998585e-02 3.765370e-02 8.709641e-02 1.407932e-01 1.910553e-01 2.398524e-01 2.860856e-01 3.310705e-01 3.743267e-01 4.159540e-01 4.548086e-01 4.898363e-01 5.193690e-01 5.419716e-01 5.562202e-01 
5.626660e-01 5.579268e-01 5.439433e-01 5.217512e-01 4.926758e-01 4.583665e-01 4.203064e-01 3.799080e-01 3.379738e-01 2.949452e-01 2.506225e-01 2.044974e-01 1.562898e-01 1.053984e-01 5.350133e-02 2.091770e-02 3.255759e-02 6.408175e-02 9.744051e-02 1.342646e-01 1.745803e-01 2.186777e-01 2.647368e-01 3.117062e-01 3.571847e-01 3.997695e-01 4.377298e-01 4.702888e-01 4.968097e-01 5.172690e-01 5.317467e-01 5.405031e-01 5.437162e-01 5.414572e-01 5.337023e-01 5.203085e-01 5.010771e-01 4.758503e-01 4.446993e-01 4.079984e-01 3.666438e-01 3.218655e-01 2.755172e-01 2.292049e-01 1.850874e-01 1.437332e-01 1.067525e-01 7.220953e-02 4.172715e-02 2.017133e-02 3.943118e-02 9.003048e-02 1.440296e-01 1.944725e-01 2.432286e-01 2.893824e-01 3.341720e-01 3.772039e-01 4.185536e-01 4.571299e-01 4.918823e-01 5.211772e-01 5.435927e-01 5.577277e-01 
5.670303e-01 5.624848e-01 5.489525e-01 5.274312e-01 4.992008e-01 4.658476e-01 4.287846e-01 3.893510e-01 3.482359e-01 3.058348e-01 2.617389e-01 2.155848e-01 1.665774e-01 1.148659e-01 6.017034e-02 2.283332e-02 3.116225e-02 6.411040e-02 9.833091e-02 1.364429e-01 1.772546e-01 2.214719e-01 2.671174e-01 3.132866e-01 3.576910e-01 3.990105e-01 4.356361e-01 4.668581e-01 4.921287e-01 5.115031e-01 5.251329e-01 5.333407e-01 5.363388e-01 5.342180e-01 5.269423e-01 5.143400e-01 4.961554e-01 4.721695e-01 4.423718e-01 4.070725e-01 3.670688e-01 3.235463e-01 2.781749e-01 2.325944e-01 1.886103e-01 1.471138e-01 1.090792e-01 7.349890e-02 4.090719e-02 2.084757e-02 4.477228e-02 9.854916e-02 1.533133e-01 2.043519e-01 2.530308e-01 2.990088e-01 3.432544e-01 3.856463e-01 4.261897e-01 4.639546e-01 4.979030e-01 5.265036e-01 5.483729e-01 5.621758e-01 