# vtk DataFile Version 2.0
Comment goes here
ASCII

DATASET STRUCTURED_POINTS
FIELD FieldData 1
TIME 1 1 double
0.57000000
DIMENSIONS    64   64   1

ORIGIN    0.000   0.000   0.000
SPACING   0.015625 0.015625   1.000

POINT_DATA   4096
SCALARS Concentration double
LOOKUP_TABLE default

9.993207e-01 9.992826e-01 9.991651e-01 9.989634e-01 9.986698e-01 9.982738e-01 9.977624e-01 9.971213e-01 9.963345e-01 9.953848e-01 9.942530e-01 9.929174e-01 9.913510e-01 9.895201e-01 9.873809e-01 9.848776e-01 9.819416e-01 9.784944e-01 9.744517e-01 9.697367e-01 9.642908e-01 9.580956e-01 9.511817e-01 9.436514e-01 9.356722e-01 9.274923e-01 9.194009e-01 9.117273e-01 9.048053e-01 8.989660e-01 8.945106e-01 8.916966e-01 8.907212e-01 8.916979e-01 8.945150e-01 8.989743e-01 9.048159e-01 9.117389e-01 9.194111e-01 9.274990e-01 9.356741e-01 9.436474e-01 9.511721e-01 9.580798e-01 9.642697e-01 9.697105e-01 9.744217e-01 9.784614e-01 9.819069e-01 9.848421e-01 9.873458e-01 9.894863e-01 9.913192e-01 9.928881e-01 9.942268e-01 9.953617e-01 9.963147e-01 9.971048e-01 9.977489e-01 9.982630e-01 9.986616e-01 9.989575e-01 9.991612e-01 9.992807e-01 
9.992674e-01 9.992267e-01 9.991008e-01 9.988850e-01 9.985711e-01 9.981479e-01 9.976022e-01 9.969188e-01 9.960813e-01 9.950722e-01 9.938720e-01 9.924588e-01 9.908055e-01 9.888781e-01 9.866319e-01 9.840099e-01 9.809407e-01 9.773414e-01 9.731221e-01 9.681987e-01 9.625038e-01 9.560100e-01 9.487391e-01 9.407864e-01 9.323126e-01 9.235786e-01 9.148940e-01 9.066154e-01 8.991127e-01 8.927562e-01 8.878906e-01 8.848085e-01 8.837379e-01 8.848054e-01 8.878867e-01 8.927537e-01 8.991105e-01 9.066139e-01 9.148911e-01 9.235731e-01 9.323035e-01 9.407731e-01 9.487216e-01 9.559874e-01 9.624767e-01 9.681671e-01 9.730872e-01 9.773039e-01 9.809017e-01 9.839705e-01 9.865931e-01 9.888408e-01 9.907705e-01 9.924267e-01 9.938433e-01 9.950470e-01 9.960597e-01 9.969007e-01 9.975874e-01 9.981362e-01 9.985621e-01 9.988785e-01 9.990966e-01 9.992246e-01 
9.991038e-01 9.990548e-01 9.989037e-01 9.986448e-01 9.982687e-01 9.977628e-01 9.971121e-01 9.962998e-01 9.953079e-01 9.941177e-01 9.927091e-01 9.910596e-01 9.891419e-01 9.869211e-01 9.843501e-01 9.813671e-01 9.778925e-01 9.738306e-01 9.690736e-01 9.635147e-01 9.570605e-01 9.496573e-01 9.413024e-01 9.320759e-01 9.221336e-01 9.117738e-01 9.013642e-01 8.913420e-01 8.821765e-01 8.743466e-01 8.683152e-01 8.644726e-01 8.631316e-01 8.644560e-01 8.682860e-01 8.743111e-01 8.821358e-01 8.913010e-01 9.013219e-01 9.117315e-01 9.220912e-01 9.320337e-01 9.412602e-01 9.496134e-01 9.570147e-01 9.634663e-01 9.690233e-01 9.737789e-01 9.778402e-01 9.813153e-01 9.842997e-01 9.868731e-01 9.890972e-01 9.910188e-01 9.926726e-01 9.940858e-01 9.952807e-01 9.962770e-01 9.970935e-01 9.977481e-01 9.982574e-01 9.986366e-01 9.988984e-01 9.990522e-01 
9.988177e-01 9.987545e-01 9.985596e-01 9.982260e-01 9.977424e-01 9.970935e-01 9.962612e-01 9.952259e-01 9.939670e-01 9.924638e-01 9.906951e-01 9.886379e-01 9.862645e-01 9.835384e-01 9.804090e-01 9.768064e-01 9.726365e-01 9.677819e-01 9.621038e-01 9.554578e-01 9.477066e-01 9.387549e-01 9.285619e-01 9.171905e-01 9.047945e-01 8.917419e-01 8.785010e-01 8.656459e-01 8.538127e-01 8.436480e-01 8.357923e-01 8.307685e-01 8.290076e-01 8.307269e-01 8.357160e-01 8.435507e-01 8.536993e-01 8.655310e-01 8.783851e-01 8.916311e-01 9.046903e-01 9.170949e-01 9.284742e-01 9.386717e-01 9.476267e-01 9.553791e-01 9.620261e-01 9.677049e-01 9.725608e-01 9.767326e-01 9.803382e-01 9.834715e-01 9.862025e-01 9.885816e-01 9.906450e-01 9.924201e-01 9.939297e-01 9.951948e-01 9.962359e-01 9.970734e-01 9.977271e-01 9.982150e-01 9.985524e-01 9.987510e-01 
9.983886e-01 9.983046e-01 9.980449e-01 9.976010e-01 9.969585e-01 9.960983e-01 9.949978e-01 9.936331e-01 9.919797e-01 9.900144e-01 9.877141e-01 9.850556e-01 9.820107e-01 9.785412e-01 9.745911e-01 9.700787e-01 9.648885e-01 9.588706e-01 9.518410e-01 9.436014e-01 9.339535e-01 9.227469e-01 9.098958e-01 8.954502e-01 8.795814e-01 8.627646e-01 8.456198e-01 8.289134e-01 8.134894e-01 8.001992e-01 7.899077e-01 7.833063e-01 7.809813e-01 7.832235e-01 7.897534e-01 7.999995e-01 8.132573e-01 8.286794e-01 8.453862e-01 8.625442e-01 8.793794e-01 8.952703e-01 9.097368e-01 9.226025e-01 9.338209e-01 9.434760e-01 9.517214e-01 9.587551e-01 9.647772e-01 9.699716e-01 9.744893e-01 9.784456e-01 9.819224e-01 9.849757e-01 9.876431e-01 9.899526e-01 9.919271e-01 9.935893e-01 9.949622e-01 9.960702e-01 9.969371e-01 9.975856e-01 9.980349e-01 9.982996e-01 
9.977886e-01 9.976759e-01 9.973275e-01 9.967324e-01 9.958719e-01 9.947217e-01 9.932532e-01 9.914365e-01 9.892420e-01 9.866428e-01 9.836141e-01 9.801322e-01 9.761688e-01 9.716838e-01 9.666139e-01 9.608605e-01 9.542785e-01 9.466721e-01 9.377963e-01 9.273804e-01 9.151482e-01 9.008844e-01 8.844534e-01 8.659078e-01 8.454469e-01 8.237126e-01 8.015307e-01 7.799326e-01 7.600576e-01 7.429976e-01 7.298543e-01 7.214384e-01 7.184660e-01 7.212961e-01 7.295848e-01 7.426445e-01 7.596461e-01 7.795201e-01 8.011188e-01 8.233252e-01 8.450964e-01 8.656009e-01 8.841881e-01 9.006497e-01 9.149388e-01 9.271877e-01 9.376169e-01 9.465020e-01 9.541168e-01 9.607066e-01 9.664685e-01 9.715479e-01 9.760437e-01 9.800190e-01 9.835137e-01 9.865555e-01 9.891677e-01 9.913747e-01 9.932031e-01 9.946822e-01 9.958419e-01 9.967108e-01 9.973135e-01 9.976690e-01 
9.969828e-01 9.968325e-01 9.963677e-01 9.955741e-01 9.944276e-01 9.928969e-01 9.909452e-01 9.885351e-01 9.856301e-01 9.821987e-01 9.782138e-01 9.736516e-01 9.684840e-01 9.626681e-01 9.561299e-01 9.487470e-01 9.403327e-01 9.306286e-01 9.193080e-01 9.060073e-01 8.903575e-01 8.720736e-01 8.509837e-01 8.271747e-01 8.009391e-01 7.731562e-01 7.449392e-01 7.176411e-01 6.926446e-01 6.712242e-01 6.547521e-01 6.441976e-01 6.404527e-01 6.439722e-01 6.543217e-01 6.706575e-01 6.919904e-01 7.169956e-01 7.442898e-01 7.725383e-01 8.003823e-01 8.266898e-01 8.505700e-01 8.717133e-01 8.900421e-01 9.057224e-01 9.190471e-01 9.303848e-01 9.401034e-01 9.485302e-01 9.559259e-01 9.624778e-01 9.683090e-01 9.734933e-01 9.780734e-01 9.820767e-01 9.855263e-01 9.884489e-01 9.908753e-01 9.928417e-01 9.943857e-01 9.955440e-01 9.963482e-01 9.968229e-01 
9.959302e-01 9.957323e-01 9.951196e-01 9.940739e-01 9.925641e-01 9.905498e-01 9.879842e-01 9.848199e-01 9.810118e-01 9.765228e-01 9.713229e-01 9.653884e-01 9.586915e-01 9.511842e-01 9.427779e-01 9.333151e-01 9.225524e-01 9.101462e-01 8.956676e-01 8.786400e-01 8.585959e-01 8.351930e-01 8.082522e-01 7.779618e-01 7.447376e-01 7.097976e-01 6.745276e-01 6.406799e-01 6.101050e-01 5.842875e-01 5.647513e-01 5.523442e-01 5.479417e-01 5.520310e-01 5.641423e-01 5.834749e-01 6.091656e-01 6.397643e-01 6.735822e-01 7.088754e-01 7.439061e-01 7.772380e-01 8.076395e-01 8.346639e-01 8.581386e-01 8.782323e-01 8.952992e-01 9.098058e-01 9.222349e-01 9.330168e-01 9.424981e-01 9.509236e-01 9.584517e-01 9.651715e-01 9.711303e-01 9.763553e-01 9.808694e-01 9.847016e-01 9.878882e-01 9.904742e-01 9.925066e-01 9.940327e-01 9.950929e-01 9.957191e-01 
9.945850e-01 9.943283e-01 9.935329e-01 9.921755e-01 9.902163e-01 9.876040e-01 9.842790e-01 9.801816e-01 9.752555e-01 9.694568e-01 9.627519e-01 9.551169e-01 9.465232e-01 9.369144e-01 9.261784e-01 9.141078e-01 9.003810e-01 8.845441e-01 8.660427e-01 8.442763e-01 8.186888e-01 7.889178e-01 7.548524e-01 7.168750e-01 6.756882e-01 6.329902e-01 5.905774e-01 5.506362e-01 5.149294e-01 4.847294e-01 4.618849e-01 4.473722e-01 4.422078e-01 4.469621e-01 4.610853e-01 4.836630e-01 5.137275e-01 5.495033e-01 5.893374e-01 6.317094e-01 6.745265e-01 7.158579e-01 7.539935e-01 7.881776e-01 8.180527e-01 8.437134e-01 8.655378e-01 8.840815e-01 8.999522e-01 9.137069e-01 9.258031e-01 9.365651e-01 9.462015e-01 9.548254e-01 9.624926e-01 9.692311e-01 9.750634e-01 9.800218e-01 9.841495e-01 9.875020e-01 9.901388e-01 9.921198e-01 9.934969e-01 9.943105e-01 
9.928972e-01 9.925697e-01 9.915539e-01 9.898206e-01 9.873194e-01 9.839858e-01 9.797444e-01 9.745208e-01 9.682450e-01 9.608645e-01 9.523411e-01 9.426497e-01 9.317589e-01 9.195975e-01 9.060193e-01 8.907463e-01 8.733586e-01 8.532648e-01 8.297842e-01 8.021988e-01 7.699311e-01 7.326802e-01 6.905370e-01 6.442359e-01 5.947802e-01 5.444877e-01 4.948867e-01 4.485235e-01 4.082012e-01 3.752851e-01 3.512819e-01 3.363250e-01 3.310089e-01 3.358725e-01 3.503968e-01 3.740943e-01 4.068496e-01 4.472579e-01 4.933300e-01 5.427757e-01 5.932482e-01 6.428919e-01 6.894006e-01 7.316938e-01 7.690804e-01 8.014461e-01 8.291108e-01 8.526518e-01 8.727935e-01 8.902206e-01 9.055280e-01 9.191402e-01 9.313370e-01 9.422668e-01 9.519997e-01 9.605668e-01 9.679912e-01 9.743096e-01 9.795731e-01 9.838509e-01 9.872169e-01 9.897470e-01 9.915063e-01 9.925462e-01 
9.908143e-01 9.904035e-01 9.891283e-01 9.869524e-01 9.838129e-01 9.796300e-01 9.743094e-01 9.677588e-01 9.598917e-01 9.506447e-01 9.399727e-01 9.278480e-01 9.142316e-01 8.990295e-01 8.820462e-01 8.629124e-01 8.410873e-01 8.158341e-01 7.863568e-01 7.518768e-01 7.118765e-01 6.662312e-01 6.153365e-01 5.603155e-01 5.026297e-01 4.452903e-01 3.905278e-01 3.415667e-01 2.996277e-01 2.644030e-01 2.380111e-01 2.212940e-01 2.152186e-01 2.207691e-01 2.370727e-01 2.632104e-01 2.983129e-01 3.403358e-01 3.886727e-01 4.430957e-01 5.007501e-01 5.586753e-01 6.139361e-01 6.649942e-01 7.107929e-01 7.509100e-01 7.854870e-01 8.150437e-01 8.403602e-01 8.622381e-01 8.814165e-01 8.984431e-01 9.136895e-01 9.273545e-01 9.395317e-01 9.502593e-01 9.595626e-01 9.674847e-01 9.740869e-01 9.794548e-01 9.836799e-01 9.868569e-01 9.890666e-01 9.903730e-01 
9.882811e-01 9.877746e-01 9.862010e-01 9.835159e-01 9.796424e-01 9.744830e-01 9.679215e-01 9.598451e-01 9.501466e-01 9.387497e-01 9.255992e-01 9.106621e-01 8.938864e-01 8.751451e-01 8.541791e-01 8.305087e-01 8.034692e-01 7.721827e-01 7.358106e-01 6.935755e-01 6.451933e-01 5.907599e-01 5.311654e-01 4.678998e-01 4.031906e-01 3.411683e-01 2.814084e-01 2.259856e-01 1.803974e-01 1.466656e-01 1.242971e-01 1.115341e-01 1.071325e-01 1.110696e-01 1.236097e-01 1.458394e-01 1.791703e-01 2.244493e-01 2.790489e-01 3.386096e-01 4.011953e-01 4.661088e-01 5.295692e-01 5.892929e-01 6.438693e-01 6.923747e-01 7.347174e-01 7.711888e-01 8.025556e-01 8.296642e-01 8.533909e-01 8.744106e-01 8.932055e-01 9.100404e-01 9.250418e-01 9.382613e-01 9.497287e-01 9.594966e-01 9.676385e-01 9.742601e-01 9.794733e-01 9.833945e-01 9.861225e-01 9.877359e-01 
9.852409e-01 9.846270e-01 9.827183e-01 9.794615e-01 9.747644e-01 9.685099e-01 9.605570e-01 9.507691e-01 9.390146e-01 9.252004e-01 9.092571e-01 8.911424e-01 8.707848e-01 8.480148e-01 8.224983e-01 7.936384e-01 7.606558e-01 7.225778e-01 6.785851e-01 6.280120e-01 5.708170e-01 5.073190e-01 4.385730e-01 3.663403e-01 2.926869e-01 2.209265e-01 1.580628e-01 1.099855e-01 7.746428e-02 5.963180e-02 5.183628e-02 4.950686e-02 4.903969e-02 4.926518e-02 5.159606e-02 5.945984e-02 7.670562e-02 1.085579e-01 1.559294e-01 2.186436e-01 2.907814e-01 3.644853e-01 4.368189e-01 5.056483e-01 5.692581e-01 6.265729e-01 6.772518e-01 7.213602e-01 7.595338e-01 7.926019e-01 8.215300e-01 8.471109e-01 8.699445e-01 8.903728e-01 9.085650e-01 9.245925e-01 9.384935e-01 9.503342e-01 9.602037e-01 9.682316e-01 9.745533e-01 9.793102e-01 9.826205e-01 9.845788e-01 
9.816335e-01 9.809015e-01 9.786247e-01 9.747408e-01 9.691411e-01 9.616881e-01 9.522135e-01 9.405546e-01 9.265498e-01 9.100866e-01 8.910746e-01 8.694597e-01 8.451428e-01 8.179090e-01 7.873428e-01 7.527389e-01 7.132303e-01 6.677871e-01 6.156784e-01 5.562768e-01 4.897550e-01 4.160223e-01 3.367055e-01 2.536431e-01 1.730230e-01 1.069167e-01 6.520116e-02 4.987036e-02 5.218165e-02 6.221415e-02 7.235928e-02 7.988749e-02 8.262977e-02 7.998704e-02 7.269714e-02 6.276377e-02 5.245955e-02 4.961829e-02 6.438460e-02 1.054389e-01 1.710417e-01 2.514008e-01 3.346237e-01 4.140675e-01 4.878995e-01 5.545597e-01 6.140732e-01 6.663239e-01 7.118827e-01 7.514956e-01 7.861801e-01 8.168211e-01 8.441279e-01 8.685267e-01 8.902328e-01 9.093454e-01 9.259135e-01 9.400229e-01 9.517816e-01 9.613480e-01 9.688833e-01 9.745563e-01 9.785057e-01 9.808430e-01 
9.773960e-01 9.765367e-01 9.738644e-01 9.693086e-01 9.627448e-01 9.540149e-01 9.429214e-01 9.292733e-01 9.128739e-01 8.935858e-01 8.712909e-01 8.459180e-01 8.173367e-01 7.852843e-01 7.492728e-01 7.085024e-01 6.620531e-01 6.088660e-01 5.482633e-01 4.795890e-01 4.028270e-01 3.179422e-01 2.281704e-01 1.421068e-01 7.732855e-02 5.185365e-02 6.007096e-02 8.346501e-02 1.066228e-01 1.228799e-01 1.315468e-01 1.360703e-01 1.375417e-01 1.362556e-01 1.319807e-01 1.234460e-01 1.072461e-01 8.418283e-02 6.066933e-02 5.173440e-02 7.595979e-02 1.397110e-01 2.256712e-01 3.156263e-01 4.005569e-01 4.775353e-01 5.463526e-01 6.071345e-01 6.604596e-01 7.070314e-01 7.478945e-01 7.839912e-01 8.161271e-01 8.448030e-01 8.702827e-01 8.926966e-01 9.121100e-01 9.286352e-01 9.424036e-01 9.536079e-01 9.624373e-01 9.690895e-01 9.737238e-01 9.764681e-01 
9.724575e-01 9.714628e-01 9.683725e-01 9.631105e-01 9.555383e-01 9.454807e-01 9.327114e-01 9.170076e-01 8.981322e-01 8.759183e-01 8.502093e-01 8.209162e-01 7.878684e-01 7.507698e-01 7.090610e-01 6.618886e-01 6.082785e-01 5.471591e-01 4.778061e-01 3.993355e-01 3.119769e-01 2.169735e-01 1.257065e-01 6.440060e-02 5.579170e-02 8.542239e-02 1.218609e-01 1.493149e-01 1.681591e-01 1.805591e-01 1.872262e-01 1.906675e-01 1.917123e-01 1.909071e-01 1.876804e-01 1.810254e-01 1.686740e-01 1.501160e-01 1.229911e-01 8.643424e-02 5.607841e-02 6.329721e-02 1.234079e-01 2.142422e-01 3.091078e-01 3.968069e-01 4.755317e-01 5.451372e-01 6.064343e-01 6.601855e-01 7.074616e-01 7.492633e-01 7.864545e-01 8.196087e-01 8.490245e-01 8.748721e-01 8.972334e-01 9.162576e-01 9.321043e-01 9.450060e-01 9.551814e-01 9.628573e-01 9.682111e-01 9.713846e-01 
9.667417e-01 9.656048e-01 9.620793e-01 9.560875e-01 9.474827e-01 9.360782e-01 9.216235e-01 9.038665e-01 8.825200e-01 8.573780e-01 8.282346e-01 7.949750e-01 7.573863e-01 7.151409e-01 6.676363e-01 6.139651e-01 5.531399e-01 4.839803e-01 4.055684e-01 3.171921e-01 2.197838e-01 1.238333e-01 6.173220e-02 6.221246e-02 1.051855e-01 1.516864e-01 1.885165e-01 2.147841e-01 2.314504e-01 2.406354e-01 2.444169e-01 2.457688e-01 2.460455e-01 2.459754e-01 2.447802e-01 2.410043e-01 2.319088e-01 2.154789e-01 1.894119e-01 1.524884e-01 1.061909e-01 6.308272e-02 6.080458e-02 1.211982e-01 2.166826e-01 3.143841e-01 4.030135e-01 4.816705e-01 5.510232e-01 6.119998e-01 6.657875e-01 7.133959e-01 7.557475e-01 7.934585e-01 8.268609e-01 8.561662e-01 8.814816e-01 9.030043e-01 9.209297e-01 9.355381e-01 9.470788e-01 9.558028e-01 9.618990e-01 9.655181e-01 
9.601599e-01 9.588743e-01 9.548981e-01 9.481590e-01 9.385097e-01 9.257624e-01 9.096498e-01 8.898971e-01 8.661694e-01 8.382044e-01 8.057247e-01 7.685854e-01 7.265140e-01 6.791752e-01 6.259093e-01 5.658114e-01 4.977830e-01 4.205386e-01 3.330823e-01 2.349628e-01 1.338250e-01 6.448008e-02 6.389427e-02 1.142747e-01 1.721875e-01 2.202553e-01 2.558347e-01 2.794529e-01 2.933040e-01 3.000676e-01 3.022568e-01 3.026293e-01 3.025761e-01 3.028059e-01 3.025478e-01 3.003479e-01 2.936296e-01 2.799333e-01 2.565291e-01 2.210289e-01 1.734148e-01 1.160166e-01 6.490083e-02 6.340725e-02 1.311658e-01 2.319574e-01 3.303462e-01 4.180031e-01 4.954374e-01 5.636042e-01 6.238180e-01 6.771911e-01 7.246467e-01 7.668560e-01 8.041600e-01 8.368278e-01 8.649965e-01 8.889283e-01 9.088741e-01 9.251618e-01 9.380633e-01 9.478463e-01 9.547015e-01 9.587803e-01 
9.526245e-01 9.511832e-01 9.467410e-01 9.392399e-01 9.285446e-01 9.144804e-01 8.967758e-01 8.751434e-01 8.492002e-01 8.186331e-01 7.830644e-01 7.422809e-01 6.959340e-01 6.436687e-01 5.847844e-01 5.183038e-01 4.431515e-01 3.580867e-01 2.619515e-01 1.568581e-01 7.426030e-02 6.017913e-02 1.115254e-01 1.786174e-01 2.384303e-01 2.857449e-01 3.202262e-01 3.426774e-01 3.552344e-01 3.607128e-01 3.619222e-01 3.615996e-01 3.613064e-01 3.617388e-01 3.621462e-01 3.609320e-01 3.554927e-01 3.430698e-01 3.208475e-01 2.866034e-01 2.397880e-01 1.805444e-01 1.134250e-01 6.082039e-02 7.259290e-02 1.537010e-01 2.587005e-01 3.551421e-01 4.404521e-01 5.157804e-01 5.824048e-01 6.414165e-01 6.938211e-01 7.403311e-01 7.813090e-01 8.171009e-01 8.479013e-01 8.740761e-01 8.959264e-01 9.138274e-01 9.280630e-01 9.389053e-01 9.465322e-01 9.510841e-01 
9.440425e-01 9.424357e-01 9.375051e-01 9.292193e-01 9.174707e-01 9.021178e-01 8.829020e-01 8.595371e-01 8.315940e-01 7.987011e-01 7.603698e-01 7.162983e-01 6.659958e-01 6.090720e-01 5.447235e-01 4.720033e-01 3.900104e-01 2.980660e-01 1.934230e-01 9.515264e-02 5.665933e-02 9.720780e-02 1.708961e-01 2.408920e-01 3.006995e-01 3.479893e-01 3.820209e-01 4.038997e-01 4.159288e-01 4.210152e-01 4.220540e-01 4.216336e-01 4.213203e-01 4.217420e-01 4.222263e-01 4.211895e-01 4.161415e-01 4.042411e-01 3.826118e-01 3.488963e-01 3.020607e-01 2.427530e-01 1.728774e-01 9.910371e-02 5.672464e-02 9.281788e-02 1.900252e-01 2.950189e-01 3.871101e-01 4.692286e-01 5.420773e-01 6.065589e-01 6.636396e-01 7.141371e-01 7.584365e-01 7.970212e-01 8.301793e-01 8.583829e-01 8.819914e-01 9.014243e-01 9.169646e-01 9.288713e-01 9.372901e-01 9.423344e-01 
9.343458e-01 9.325589e-01 9.271060e-01 9.179970e-01 9.051728e-01 8.885507e-01 8.679097e-01 8.429841e-01 8.133042e-01 7.784347e-01 7.377415e-01 6.908141e-01 6.369632e-01 5.757197e-01 5.061480e-01 4.272737e-01 3.388979e-01 2.389771e-01 1.318484e-01 6.245606e-02 7.572858e-02 1.493082e-01 2.271345e-01 2.980644e-01 3.581099e-01 4.056045e-01 4.399766e-01 4.623608e-01 4.749750e-01 4.806244e-01 4.821667e-01 4.820474e-01 4.818447e-01 4.821319e-01 4.823048e-01 4.807802e-01 4.751869e-01 4.627156e-01 4.405979e-01 4.065699e-01 3.595250e-01 2.998860e-01 2.292112e-01 1.515457e-01 7.728074e-02 6.151158e-02 1.288542e-01 2.357233e-01 3.357568e-01 4.242020e-01 5.032194e-01 5.729424e-01 6.343713e-01 6.884468e-01 7.356378e-01 7.766210e-01 8.117910e-01 8.417628e-01 8.669579e-01 8.878357e-01 9.046587e-01 9.176486e-01 9.268937e-01 9.324599e-01 
9.234856e-01 9.214962e-01 9.154649e-01 9.054602e-01 8.914972e-01 8.735829e-01 8.515655e-01 8.252247e-01 7.940618e-01 7.575689e-01 7.149403e-01 6.656144e-01 6.086601e-01 5.435145e-01 4.691524e-01 3.845694e-01 2.908716e-01 1.832507e-01 8.698380e-02 5.908267e-02 1.158973e-01 1.986385e-01 2.778311e-01 3.489106e-01 4.095675e-01 4.578137e-01 4.932839e-01 5.169670e-01 5.309766e-01 5.379245e-01 5.405452e-01 5.411067e-01 5.411465e-01 5.411769e-01 5.406675e-01 5.380854e-01 5.312167e-01 5.173727e-01 4.939744e-01 4.588784e-01 4.110876e-01 3.508638e-01 2.801494e-01 2.011165e-01 1.185509e-01 5.969087e-02 8.481979e-02 1.795740e-01 2.872145e-01 3.810816e-01 4.658670e-01 5.404287e-01 6.058036e-01 6.630305e-01 7.126691e-01 7.556347e-01 7.924708e-01 8.239610e-01 8.505988e-01 8.728714e-01 8.909969e-01 9.051287e-01 9.152670e-01 9.214054e-01 
9.114858e-01 9.092609e-01 9.025675e-01 8.915505e-01 8.763291e-01 8.570379e-01 8.336344e-01 8.059786e-01 7.735633e-01 7.358115e-01 6.917181e-01 6.405667e-01 5.810854e-01 5.128369e-01 4.342637e-01 3.457654e-01 2.463520e-01 1.369544e-01 6.415536e-02 7.766735e-02 1.580199e-01 2.415409e-01 3.210579e-01 3.926129e-01 4.541169e-01 5.037269e-01 5.410070e-01 5.668000e-01 5.829695e-01 5.918827e-01 5.960714e-01 5.976237e-01 5.980093e-01 5.976877e-01 5.961924e-01 5.920636e-01 5.832543e-01 5.672703e-01 5.417730e-01 5.048744e-01 4.557107e-01 3.946472e-01 3.234328e-01 2.441801e-01 1.607374e-01 7.940804e-02 6.301207e-02 1.334404e-01 2.425220e-01 3.421340e-01 4.306999e-01 5.094616e-01 5.779612e-01 6.377725e-01 6.892979e-01 7.337875e-01 7.719332e-01 8.047150e-01 8.326948e-01 8.563682e-01 8.758750e-01 8.912607e-01 9.024007e-01 9.091866e-01 
8.984352e-01 8.959287e-01 8.884513e-01 8.762442e-01 8.595613e-01 8.387071e-01 8.137977e-01 7.848156e-01 7.512781e-01 7.125434e-01 6.673943e-01 6.149150e-01 5.534449e-01 4.826772e-01 4.003533e-01 3.089713e-01 2.038971e-01 1.006930e-01 5.807857e-02 1.078836e-01 1.934100e-01 2.774502e-01 3.562827e-01 4.285288e-01 4.911194e-01 5.426244e-01 5.823033e-01 6.108210e-01 6.297235e-01 6.410875e-01 6.472114e-01 6.499902e-01 6.508026e-01 6.500560e-01 6.473439e-01 6.413015e-01 6.300651e-01 6.113678e-01 5.831545e-01 5.438652e-01 4.928157e-01 4.306872e-01 3.588207e-01 2.802752e-01 1.961859e-01 1.104634e-01 5.808948e-02 9.784231e-02 2.000847e-01 3.052229e-01 3.964636e-01 4.789327e-01 5.500025e-01 6.118911e-01 6.648395e-01 7.104660e-01 7.496596e-01 7.836082e-01 8.129409e-01 8.381296e-01 8.591952e-01 8.760279e-01 8.883367e-01 8.958812e-01 
8.845584e-01 8.817110e-01 8.732901e-01 8.596493e-01 8.412120e-01 8.184934e-01 7.918283e-01 7.613734e-01 7.267279e-01 6.871979e-01 6.413930e-01 5.881346e-01 5.254949e-01 4.530829e-01 3.684903e-01 2.751804e-01 1.668402e-01 7.603098e-02 6.486299e-02 1.382646e-01 2.219623e-01 3.054427e-01 3.836836e-01 4.565246e-01 5.205131e-01 5.742723e-01 6.168153e-01 6.485088e-01 6.705689e-01 6.847453e-01 6.930753e-01 6.972561e-01 6.985532e-01 6.973273e-01 6.932234e-01 6.849908e-01 6.709580e-01 6.491102e-01 6.177155e-01 5.755494e-01 5.222309e-01 4.586852e-01 3.862151e-01 3.081812e-01 2.246754e-01 1.409952e-01 6.622608e-02 7.414432e-02 1.630332e-01 2.708543e-01 3.639324e-01 4.487750e-01 5.216720e-01 5.848976e-01 6.387679e-01 6.851551e-01 7.252181e-01 7.603174e-01 7.911407e-01 8.180810e-01 8.409916e-01 8.595486e-01 8.732545e-01 8.817032e-01 
8.701851e-01 8.669277e-01 8.573717e-01 8.419929e-01 8.214146e-01 7.964029e-01 7.675738e-01 7.353206e-01 6.993996e-01 6.591024e-01 6.129242e-01 5.593854e-01 4.964227e-01 4.232814e-01 3.380855e-01 2.435193e-01 1.365118e-01 6.251186e-02 7.912618e-02 1.615041e-01 2.434098e-01 3.253021e-01 4.032634e-01 4.767141e-01 5.423766e-01 5.986579e-01 6.443607e-01 6.795017e-01 7.049585e-01 7.221505e-01 7.328392e-01 7.385217e-01 7.403368e-01 7.386009e-01 7.330048e-01 7.224240e-01 7.053815e-01 6.801335e-01 6.452768e-01 5.999305e-01 5.440783e-01 4.788715e-01 4.058757e-01 3.282473e-01 2.465680e-01 1.646269e-01 8.144054e-02 6.154665e-02 1.325109e-01 2.380491e-01 3.325924e-01 4.183072e-01 4.922600e-01 5.560392e-01 6.103681e-01 6.572418e-01 6.981420e-01 7.345456e-01 7.671659e-01 7.962450e-01 8.214077e-01 8.420552e-01 8.574448e-01 8.669736e-01 
8.558043e-01 8.520664e-01 8.411744e-01 8.237255e-01 8.005611e-01 7.727309e-01 7.411923e-01 7.066393e-01 6.690839e-01 6.278550e-01 5.814438e-01 5.280268e-01 4.655976e-01 3.926400e-01 3.084862e-01 2.127309e-01 1.105328e-01 5.653651e-02 9.541943e-02 1.772836e-01 2.578598e-01 3.379081e-01 4.158449e-01 4.899679e-01 5.574964e-01 6.164134e-01 6.653951e-01 7.040607e-01 7.329747e-01 7.532241e-01 7.663037e-01 7.735122e-01 7.758528e-01 7.735959e-01 7.664774e-01 7.535070e-01 7.334008e-01 7.046772e-01 6.662623e-01 6.175940e-01 5.590666e-01 4.919871e-01 4.183958e-01 3.409921e-01 2.615074e-01 1.810259e-01 9.841994e-02 5.598879e-02 1.063378e-01 2.067377e-01 3.028579e-01 3.876648e-01 4.616189e-01 5.249846e-01 5.792935e-01 6.264546e-01 6.683074e-01 7.063301e-01 7.412087e-01 7.729360e-01 8.008451e-01 8.240026e-01 8.413870e-01 8.521801e-01 
8.419924e-01 8.377160e-01 8.253156e-01 8.054972e-01 7.793191e-01 7.481253e-01 7.132652e-01 6.757926e-01 6.360787e-01 5.935867e-01 5.469295e-01 4.940299e-01 4.330232e-01 3.617272e-01 2.804444e-01 1.860280e-01 9.066786e-02 5.540343e-02 1.094122e-01 1.874995e-01 2.664136e-01 3.446892e-01 4.226102e-01 4.974319e-01 5.668386e-01 6.283513e-01 6.805365e-01 7.226206e-01 7.548758e-01 7.780750e-01 7.934592e-01 8.021417e-01 8.049897e-01 8.022280e-01 7.936354e-01 7.783547e-01 7.552815e-01 7.231820e-01 6.812889e-01 6.293304e-01 5.680889e-01 4.989878e-01 4.245271e-01 3.469579e-01 2.690482e-01 1.901933e-01 1.120017e-01 5.547770e-02 8.734154e-02 1.810809e-01 2.758802e-01 3.577396e-01 4.299490e-01 4.918439e-01 5.456020e-01 5.929704e-01 6.360312e-01 6.761379e-01 7.138441e-01 7.487916e-01 7.799597e-01 8.060310e-01 8.256921e-01 8.379087e-01 
8.294173e-01 8.245660e-01 8.105611e-01 7.881927e-01 7.587143e-01 7.237373e-01 6.850201e-01 6.440144e-01 6.015328e-01 5.572900e-01 5.101352e-01 4.579024e-01 3.988083e-01 3.302991e-01 2.527474e-01 1.623373e-01 7.539720e-02 5.653128e-02 1.187935e-01 1.936092e-01 2.704184e-01 3.473525e-01 4.251944e-01 5.007272e-01 5.718590e-01 6.357546e-01 6.908626e-01 7.360535e-01 7.713429e-01 7.972181e-01 8.146949e-01 8.247175e-01 8.280260e-01 8.248008e-01 8.148617e-01 7.974745e-01 7.716975e-01 7.365163e-01 6.914401e-01 6.364518e-01 5.726780e-01 5.016727e-01 4.262766e-01 3.485763e-01 2.718072e-01 1.951646e-01 1.206595e-01 5.720095e-02 7.335994e-02 1.591950e-01 2.499941e-01 3.280556e-01 3.972672e-01 4.570831e-01 5.100206e-01 5.577530e-01 6.024293e-01 6.451667e-01 6.862650e-01 7.249324e-01 7.597544e-01 7.890106e-01 8.111185e-01 8.248476e-01 
8.187399e-01 8.133258e-01 7.977535e-01 7.728742e-01 7.400950e-01 7.012485e-01 6.584600e-01 6.135734e-01 5.678755e-01 5.214441e-01 4.734800e-01 4.219376e-01 3.650871e-01 3.002562e-01 2.271576e-01 1.423369e-01 6.445319e-02 5.851869e-02 1.238239e-01 1.962327e-01 2.711260e-01 3.471741e-01 4.249734e-01 5.011832e-01 5.738035e-01 6.397448e-01 6.973483e-01 7.451831e-01 7.830526e-01 8.112013e-01 8.304565e-01 8.416194e-01 8.453203e-01 8.416995e-01 8.306128e-01 8.114318e-01 7.833523e-01 7.455425e-01 6.977462e-01 6.401568e-01 5.741937e-01 5.015353e-01 4.252750e-01 3.474813e-01 2.715183e-01 1.969458e-01 1.250512e-01 5.937333e-02 6.319057e-02 1.404240e-01 2.259441e-01 2.997084e-01 3.651607e-01 4.226115e-01 4.746917e-01 5.230733e-01 5.697687e-01 6.155605e-01 6.603804e-01 7.029719e-01 7.415305e-01 7.739721e-01 7.984893e-01 8.136955e-01 
8.105839e-01 8.046873e-01 7.877706e-01 7.607236e-01 7.250568e-01 6.827602e-01 6.362317e-01 5.876482e-01 5.387130e-01 4.899214e-01 4.408605e-01 3.898056e-01 3.350234e-01 2.739797e-01 2.052815e-01 1.263086e-01 5.694130e-02 6.041571e-02 1.264674e-01 1.972025e-01 2.705532e-01 3.460007e-01 4.237086e-01 5.004445e-01 5.741709e-01 6.416625e-01 7.011524e-01 7.509906e-01 7.908165e-01 8.206897e-01 8.412956e-01 8.533248e-01 8.573234e-01 8.533982e-01 8.414352e-01 8.208865e-01 7.910532e-01 7.512419e-01 7.013743e-01 6.418091e-01 5.741785e-01 5.002884e-01 4.233644e-01 3.455647e-01 2.701269e-01 1.971216e-01 1.269913e-01 6.113666e-02 5.595995e-02 1.250219e-01 2.051187e-01 2.747290e-01 3.364396e-01 3.917721e-01 4.432385e-01 4.925749e-01 5.414724e-01 5.903520e-01 6.387266e-01 6.849305e-01 7.268262e-01 7.620580e-01 7.886577e-01 8.051318e-01 
8.054566e-01 7.992319e-01 7.814012e-01 7.528726e-01 7.152130e-01 6.705004e-01 6.212908e-01 5.699660e-01 5.185226e-01 4.677882e-01 4.176859e-01 3.668448e-01 3.135217e-01 2.553812e-01 1.899849e-01 1.153958e-01 5.230178e-02 6.152372e-02 1.273558e-01 1.971423e-01 2.695373e-01 3.446559e-01 4.223019e-01 4.993902e-01 5.738260e-01 6.423122e-01 7.030074e-01 7.541215e-01 7.951918e-01 8.261597e-01 8.476228e-01 8.602018e-01 8.643900e-01 8.602726e-01 8.477547e-01 8.263391e-01 7.953942e-01 7.543119e-01 7.031294e-01 6.423093e-01 5.736230e-01 4.989665e-01 4.216379e-01 3.438879e-01 2.687885e-01 1.968027e-01 1.276783e-01 6.222731e-02 5.153542e-02 1.145486e-01 1.904762e-01 2.569525e-01 3.158118e-01 3.696727e-01 4.208464e-01 4.711296e-01 5.218598e-01 5.731479e-01 6.241683e-01 6.729713e-01 7.172080e-01 7.543677e-01 7.823913e-01 7.997278e-01 
8.037010e-01 7.973589e-01 7.792004e-01 7.501401e-01 7.117624e-01 6.661741e-01 6.159776e-01 5.636119e-01 5.111809e-01 4.596469e-01 4.090697e-01 3.582638e-01 3.054766e-01 2.485055e-01 1.844263e-01 1.115769e-01 5.077400e-02 6.195634e-02 1.277775e-01 1.972508e-01 2.692970e-01 3.442737e-01 4.218669e-01 4.990540e-01 5.737107e-01 6.425218e-01 7.036149e-01 7.551542e-01 7.966406e-01 8.279753e-01 8.497259e-01 8.624890e-01 8.667403e-01 8.625566e-01 8.498507e-01 8.281418e-01 7.968209e-01 7.553094e-01 7.036824e-01 6.424409e-01 5.734001e-01 4.984938e-01 4.210376e-01 3.433239e-01 2.683550e-01 1.967205e-01 1.279180e-01 6.260877e-02 5.002966e-02 1.107310e-01 1.850196e-01 2.502858e-01 3.080228e-01 3.613603e-01 4.124796e-01 4.632090e-01 5.147042e-01 5.669485e-01 6.189803e-01 6.687457e-01 7.138340e-01 7.516900e-01 7.802259e-01 7.978724e-01 
8.054566e-01 7.992319e-01 7.814012e-01 7.528726e-01 7.152130e-01 6.705004e-01 6.212908e-01 5.699660e-01 5.185226e-01 4.677882e-01 4.176859e-01 3.668448e-01 3.135217e-01 2.553812e-01 1.899849e-01 1.153958e-01 5.230178e-02 6.152372e-02 1.273558e-01 1.971423e-01 2.695373e-01 3.446559e-01 4.223019e-01 4.993902e-01 5.738260e-01 6.423122e-01 7.030074e-01 7.541215e-01 7.951918e-01 8.261597e-01 8.476228e-01 8.602018e-01 8.643900e-01 8.602726e-01 8.477547e-01 8.263391e-01 7.953942e-01 7.543119e-01 7.031294e-01 6.423093e-01 5.736230e-01 4.989665e-01 4.216379e-01 3.438879e-01 2.687885e-01 1.968027e-01 1.276783e-01 6.222731e-02 5.153542e-02 1.145486e-01 1.904762e-01 2.569525e-01 3.158118e-01 3.696727e-01 4.208464e-01 4.711296e-01 5.218598e-01 5.731479e-01 6.241683e-01 6.729713e-01 7.172080e-01 7.543677e-01 7.823913e-01 7.997278e-01 
8.105839e-01 8.046873e-01 7.877706e-01 7.607236e-01 7.250568e-01 6.827602e-01 6.362317e-01 5.876482e-01 5.387130e-01 4.899214e-01 4.408605e-01 3.898056e-01 3.350234e-01 2.739797e-01 2.052815e-01 1.263086e-01 5.694130e-02 6.041571e-02 1.264674e-01 1.972025e-01 2.705532e-01 3.460007e-01 4.237086e-01 5.004445e-01 5.741709e-01 6.416625e-01 7.011524e-01 7.509906e-01 7.908165e-01 8.206897e-01 8.412956e-01 8.533248e-01 8.573234e-01 8.533982e-01 8.414352e-01 8.208865e-01 7.910532e-01 7.512419e-01 7.013743e-01 6.418091e-01 5.741785e-01 5.002884e-01 4.233644e-01 3.455647e-01 2.701269e-01 1.971216e-01 1.269913e-01 6.113666e-02 5.595995e-02 1.250219e-01 2.051187e-01 2.747290e-01 3.364396e-01 3.917721e-01 4.432385e-01 4.925749e-01 5.414724e-01 5.903520e-01 6.387266e-01 6.849305e-01 7.268262e-01 7.620580e-01 7.886577e-01 8.051318e-01 