# vtk DataFile Version 2.0
Comment goes here
ASCII

DATASET STRUCTURED_POINTS
FIELD FieldData 1
TIME 1 1 double
0.87000000
DIMENSIONS    64   64   1

ORIGIN    0.000   0.000   0.000
SPACING   0.015625 0.015625   1.000

POINT_DATA   4096
SCALARS Concentration double
LOOKUP_TABLE default

9.933813e-01 9.932438e-01 9.928071e-01 9.920652e-01 9.910079e-01 9.896192e-01 9.878770e-01 9.857512e-01 9.832021e-01 9.801781e-01 9.766137e-01 9.724278e-01 9.675226e-01 9.617871e-01 9.551013e-01 9.473486e-01 9.384262e-01 9.282677e-01 9.168521e-01 9.042306e-01 8.905193e-01 8.759228e-01 8.607030e-01 8.451984e-01 8.297758e-01 8.148517e-01 8.008348e-01 7.881306e-01 7.771065e-01 7.680977e-01 7.613931e-01 7.572286e-01 7.557840e-01 7.571620e-01 7.612702e-01 7.679289e-01 7.768954e-01 7.878840e-01 8.005556e-01 8.145453e-01 8.294495e-01 8.448578e-01 8.603566e-01 8.755727e-01 8.901718e-01 9.038866e-01 9.165161e-01 9.279405e-01 9.381106e-01 9.470458e-01 9.548130e-01 9.615146e-01 9.672672e-01 9.721907e-01 9.763961e-01 9.799808e-01 9.830258e-01 9.855965e-01 9.877442e-01 9.895084e-01 9.909192e-01 9.919985e-01 9.927625e-01 9.932215e-01 
9.931342e-01 9.929930e-01 9.925443e-01 9.917824e-01 9.906969e-01 9.892723e-01 9.874865e-01 9.853097e-01 9.827023e-01 9.796128e-01 9.759755e-01 9.717085e-01 9.667133e-01 9.608770e-01 9.540773e-01 9.461939e-01 9.371197e-01 9.267829e-01 9.151563e-01 9.022840e-01 8.882755e-01 8.733288e-01 8.577013e-01 8.417290e-01 8.257790e-01 8.102746e-01 7.956496e-01 7.823369e-01 7.707373e-01 7.612209e-01 7.541160e-01 7.496887e-01 7.481467e-01 7.496021e-01 7.539547e-01 7.610005e-01 7.704642e-01 7.820241e-01 7.953028e-01 8.099039e-01 8.253941e-01 8.413384e-01 8.573128e-01 8.729436e-01 8.878992e-01 9.019164e-01 9.148007e-01 9.264392e-01 9.367900e-01 9.458785e-01 9.537776e-01 9.605941e-01 9.664482e-01 9.714625e-01 9.757495e-01 9.794079e-01 9.825191e-01 9.851489e-01 9.873484e-01 9.891571e-01 9.906046e-01 9.917129e-01 9.924979e-01 9.929697e-01 
9.923874e-01 9.922352e-01 9.917508e-01 9.909286e-01 9.897590e-01 9.882268e-01 9.863107e-01 9.839814e-01 9.811999e-01 9.779149e-01 9.740599e-01 9.695517e-01 9.642885e-01 9.581526e-01 9.510140e-01 9.427427e-01 9.332180e-01 9.223524e-01 9.100991e-01 8.964830e-01 8.815914e-01 8.656059e-01 8.487687e-01 8.314138e-01 8.139150e-01 7.967298e-01 7.803569e-01 7.653081e-01 7.520801e-01 7.411394e-01 7.329196e-01 7.277644e-01 7.259529e-01 7.276215e-01 7.326513e-01 7.407750e-01 7.516336e-01 7.648088e-01 7.798188e-01 7.961757e-01 8.133620e-01 8.308765e-01 8.482555e-01 8.651161e-01 8.811288e-01 8.960436e-01 9.096837e-01 9.219576e-01 9.328438e-01 9.423876e-01 9.506783e-01 9.578363e-01 9.639925e-01 9.692770e-01 9.738075e-01 9.776858e-01 9.809950e-01 9.838013e-01 9.861559e-01 9.880976e-01 9.896554e-01 9.908507e-01 9.916987e-01 9.922091e-01 
9.911242e-01 9.909537e-01 9.904096e-01 9.894870e-01 9.881769e-01 9.864651e-01 9.843312e-01 9.817472e-01 9.786749e-01 9.750630e-01 9.708441e-01 9.659323e-01 9.602209e-01 9.535839e-01 9.458791e-01 9.369599e-01 9.266838e-01 9.149376e-01 9.016444e-01 8.867977e-01 8.704531e-01 8.527678e-01 8.339664e-01 8.143869e-01 7.944259e-01 7.745994e-01 7.555063e-01 7.377768e-01 7.220484e-01 7.089292e-01 6.990065e-01 6.927397e-01 6.905141e-01 6.925041e-01 6.985614e-01 7.083259e-01 7.213128e-01 7.369649e-01 7.546450e-01 7.737336e-01 7.935861e-01 8.135980e-01 8.332396e-01 8.520993e-01 8.698439e-01 8.862373e-01 9.011286e-01 9.144577e-01 9.262358e-01 9.365391e-01 9.454836e-01 9.532126e-01 9.598737e-01 9.656100e-01 9.705475e-01 9.747935e-01 9.784335e-01 9.815348e-01 9.841484e-01 9.863123e-01 9.880543e-01 9.893948e-01 9.903479e-01 9.909228e-01 
9.893166e-01 9.891205e-01 9.884929e-01 9.874294e-01 9.859223e-01 9.839583e-01 9.815186e-01 9.785766e-01 9.750951e-01 9.710231e-01 9.662919e-01 9.608118e-01 9.544692e-01 9.471269e-01 9.386256e-01 9.287962e-01 9.174668e-01 9.044903e-01 8.897494e-01 8.732000e-01 8.548572e-01 8.348539e-01 8.133970e-01 7.908424e-01 7.676219e-01 7.443438e-01 7.217360e-01 7.005857e-01 6.817115e-01 6.658892e-01 6.538839e-01 6.462655e-01 6.435362e-01 6.459051e-01 6.531992e-01 6.649615e-01 6.805794e-01 6.993420e-01 7.204242e-01 7.430419e-01 7.663804e-01 7.896993e-01 8.123698e-01 8.339337e-01 8.540414e-01 8.724686e-01 8.890916e-01 9.038892e-01 9.169132e-01 9.282808e-01 9.381437e-01 9.466754e-01 9.540474e-01 9.604200e-01 9.659310e-01 9.706947e-01 9.748006e-01 9.783171e-01 9.812950e-01 9.837713e-01 9.857722e-01 9.873165e-01 9.884173e-01 9.890826e-01 
9.869264e-01 9.866973e-01 9.859621e-01 9.847172e-01 9.829558e-01 9.806662e-01 9.778312e-01 9.744258e-01 9.704140e-01 9.657448e-01 9.603479e-01 9.541286e-01 9.469641e-01 9.387027e-01 9.291635e-01 9.181489e-01 9.054501e-01 8.908792e-01 8.742723e-01 8.555432e-01 8.346674e-01 8.117600e-01 7.870239e-01 7.608545e-01 7.337489e-01 7.064303e-01 6.797793e-01 6.547455e-01 6.323243e-01 6.134623e-01 5.991103e-01 5.899597e-01 5.866510e-01 5.894370e-01 5.981127e-01 6.121119e-01 6.306729e-01 6.529309e-01 6.778631e-01 7.045386e-01 7.319661e-01 7.592350e-01 7.855957e-01 8.105060e-01 8.335798e-01 8.545881e-01 8.734293e-01 8.901206e-01 9.047592e-01 9.175104e-01 9.285688e-01 9.381465e-01 9.464443e-01 9.536453e-01 9.599022e-01 9.653387e-01 9.700492e-01 9.741041e-01 9.775538e-01 9.804340e-01 9.827693e-01 9.845769e-01 9.858683e-01 9.866503e-01 
9.839064e-01 9.836373e-01 9.827708e-01 9.813038e-01 9.792310e-01 9.765420e-01 9.732215e-01 9.692459e-01 9.645805e-01 9.591740e-01 9.529538e-01 9.458187e-01 9.376344e-01 9.282308e-01 9.174006e-01 9.049113e-01 8.905113e-01 8.739660e-01 8.550614e-01 8.336718e-01 8.097380e-01 7.833760e-01 7.547990e-01 7.244769e-01 6.929800e-01 6.611857e-01 6.301274e-01 6.009396e-01 5.748255e-01 5.528975e-01 5.362629e-01 5.256421e-01 5.217765e-01 5.249332e-01 5.349016e-01 5.510522e-01 5.725536e-01 5.984319e-01 6.274639e-01 6.585640e-01 6.905332e-01 7.222745e-01 7.528839e-01 7.817159e-01 8.083200e-01 8.324433e-01 8.539908e-01 8.730121e-01 8.896486e-01 9.041174e-01 9.166624e-01 9.275407e-01 9.369888e-01 9.452178e-01 9.523989e-01 9.586678e-01 9.641252e-01 9.688440e-01 9.728748e-01 9.762518e-01 9.789980e-01 9.811285e-01 9.826536e-01 9.835787e-01 
9.802023e-01 9.798860e-01 9.788645e-01 9.771352e-01 9.746939e-01 9.715317e-01 9.676347e-01 9.629805e-01 9.575355e-01 9.512473e-01 9.440398e-01 9.358033e-01 9.263886e-01 9.156023e-01 9.032046e-01 8.889214e-01 8.724512e-01 8.535086e-01 8.318300e-01 8.072580e-01 7.797170e-01 7.493534e-01 7.164322e-01 6.815441e-01 6.453854e-01 6.090098e-01 5.736131e-01 5.404327e-01 5.107570e-01 4.858250e-01 4.668913e-01 4.547366e-01 4.502738e-01 4.538107e-01 4.651041e-01 4.834121e-01 5.077710e-01 5.371088e-01 5.700362e-01 6.054858e-01 6.421332e-01 6.786414e-01 7.139397e-01 7.472141e-01 7.779097e-01 8.057067e-01 8.304889e-01 8.523215e-01 8.713817e-01 8.879397e-01 9.022921e-01 9.147489e-01 9.255891e-01 9.350583e-01 9.433507e-01 9.506180e-01 9.569690e-01 9.624802e-01 9.672029e-01 9.711703e-01 9.744039e-01 9.769171e-01 9.787189e-01 9.798132e-01 
9.757539e-01 9.753839e-01 9.741844e-01 9.721535e-01 9.692880e-01 9.655798e-01 9.610164e-01 9.555759e-01 9.492253e-01 9.419094e-01 9.335474e-01 9.240176e-01 9.131527e-01 9.007285e-01 8.864663e-01 8.700421e-01 8.511003e-01 8.293026e-01 8.043445e-01 7.760551e-01 7.443734e-01 7.095245e-01 6.718661e-01 6.321773e-01 5.912558e-01 5.503771e-01 5.107768e-01 4.737923e-01 4.409231e-01 4.135560e-01 3.929905e-01 3.797935e-01 3.749250e-01 3.786752e-01 3.908071e-01 4.105992e-01 4.372062e-01 4.695925e-01 5.061797e-01 5.458718e-01 5.871723e-01 6.285578e-01 6.687874e-01 7.068856e-01 7.421507e-01 7.741480e-01 8.026967e-01 8.278446e-01 8.497858e-01 8.688350e-01 8.853424e-01 8.996762e-01 9.121651e-01 9.230963e-01 9.326939e-01 9.411294e-01 9.485226e-01 9.549553e-01 9.604809e-01 9.651319e-01 9.689287e-01 9.718837e-01 9.740044e-01 9.752940e-01 
9.704965e-01 9.700662e-01 9.686666e-01 9.662959e-01 9.629520e-01 9.586270e-01 9.533091e-01 9.469759e-01 9.395939e-01 9.311036e-01 9.214160e-01 9.103939e-01 8.978449e-01 8.835076e-01 8.670536e-01 8.481012e-01 8.262362e-01 8.010706e-01 7.722727e-01 7.396872e-01 7.033101e-01 6.635048e-01 6.207896e-01 5.762115e-01 5.307431e-01 4.859311e-01 4.431771e-01 4.036010e-01 3.683684e-01 3.389385e-01 3.167052e-01 3.022227e-01 2.968304e-01 3.009266e-01 3.141332e-01 3.355021e-01 3.640000e-01 3.985524e-01 4.374954e-01 4.803963e-01 5.258746e-01 5.719344e-01 6.171731e-01 6.603889e-01 7.006704e-01 7.374067e-01 7.702880e-01 7.993065e-01 8.246384e-01 8.466308e-01 8.656808e-01 8.822204e-01 8.966348e-01 9.092636e-01 9.203678e-01 9.301450e-01 9.387301e-01 9.462133e-01 9.526513e-01 9.580772e-01 9.625115e-01 9.659656e-01 9.684465e-01 9.699564e-01 
9.643622e-01 9.638654e-01 9.622448e-01 9.594983e-01 9.556246e-01 9.506155e-01 9.444595e-01 9.371322e-01 9.285983e-01 9.187909e-01 9.076100e-01 8.948960e-01 8.804252e-01 8.638880e-01 8.448999e-01 8.230099e-01 7.977502e-01 7.686911e-01 7.355094e-01 6.981012e-01 6.565901e-01 6.115349e-01 5.636955e-01 5.144748e-01 4.649243e-01 4.169504e-01 3.715404e-01 3.296302e-01 2.927674e-01 2.626856e-01 2.405182e-01 2.260958e-01 2.206813e-01 2.247349e-01 2.377815e-01 2.589983e-01 2.878983e-01 3.238230e-01 3.649004e-01 4.107201e-01 4.597343e-01 5.098807e-01 5.597742e-01 6.080625e-01 6.535833e-01 6.954519e-01 7.331623e-01 7.665825e-01 7.958223e-01 8.212286e-01 8.432304e-01 8.623207e-01 8.789492e-01 8.935163e-01 9.063295e-01 9.176197e-01 9.275430e-01 9.362012e-01 9.436574e-01 9.499460e-01 9.550892e-01 9.590975e-01 9.619783e-01 9.637328e-01 
9.572805e-01 9.567114e-01 9.548494e-01 9.516926e-01 9.472405e-01 9.414840e-01 9.344115e-01 9.259950e-01 9.161955e-01 9.049355e-01 8.920988e-01 8.774962e-01 8.608629e-01 8.418308e-01 8.199489e-01 7.946958e-01 7.655517e-01 7.320674e-01 6.939601e-01 6.512170e-01 6.041161e-01 5.534381e-01 5.002001e-01 4.462719e-01 3.928011e-01 3.420443e-01 2.959774e-01 2.548297e-01 2.183962e-01 1.881363e-01 1.652444e-01 1.497668e-01 1.437409e-01 1.482905e-01 1.623347e-01 1.843746e-01 2.133557e-01 2.486010e-01 2.887383e-01 3.355746e-01 3.877816e-01 4.417251e-01 4.961779e-01 5.497146e-01 6.007740e-01 6.481952e-01 6.912173e-01 7.295692e-01 7.632425e-01 7.925526e-01 8.179340e-01 8.399376e-01 8.590783e-01 8.758279e-01 8.905500e-01 9.035193e-01 9.149202e-01 9.248712e-01 9.334446e-01 9.406786e-01 9.465978e-01 9.512127e-01 9.545310e-01 9.565532e-01 
9.491799e-01 9.485325e-01 9.464098e-01 9.428099e-01 9.377338e-01 9.311716e-01 9.231116e-01 9.135210e-01 9.023550e-01 8.895215e-01 8.748822e-01 8.582089e-01 8.391858e-01 8.173730e-01 7.922481e-01 7.632149e-01 7.297233e-01 6.913197e-01 6.478073e-01 5.992679e-01 5.461871e-01 4.895002e-01 4.306642e-01 3.721523e-01 3.152928e-01 2.625587e-01 2.141030e-01 1.699928e-01 1.330101e-01 1.054991e-01 8.696533e-02 7.579683e-02 7.177370e-02 7.471053e-02 8.473535e-02 1.022194e-01 1.278758e-01 1.635272e-01 2.071315e-01 2.570816e-01 3.111412e-01 3.678109e-01 4.265228e-01 4.854379e-01 5.423978e-01 5.957759e-01 6.445699e-01 6.883458e-01 7.269497e-01 7.606362e-01 7.898191e-01 8.150925e-01 8.370366e-01 8.562015e-01 8.730199e-01 8.878203e-01 9.008250e-01 9.121749e-01 9.219560e-01 9.302115e-01 9.369698e-01 9.422411e-01 9.460336e-01 9.483461e-01 
9.399898e-01 9.392579e-01 9.368544e-01 9.327785e-01 9.270343e-01 9.196119e-01 9.105005e-01 8.996620e-01 8.870434e-01 8.725338e-01 8.559651e-01 8.370598e-01 8.154379e-01 7.905773e-01 7.618754e-01 7.286671e-01 6.903826e-01 6.465864e-01 5.971772e-01 5.423156e-01 4.826095e-01 4.189402e-01 3.531396e-01 2.886253e-01 2.254311e-01 1.660489e-01 1.174964e-01 7.982575e-02 5.348666e-02 3.903437e-02 3.191819e-02 2.873330e-02 2.794334e-02 2.841428e-02 3.121179e-02 3.784998e-02 5.062478e-02 7.544973e-02 1.122752e-01 1.611757e-01 2.207951e-01 2.837123e-01 3.482728e-01 4.140905e-01 4.780433e-01 5.381291e-01 5.932733e-01 6.430027e-01 6.870385e-01 7.255659e-01 7.589603e-01 7.878483e-01 8.128715e-01 8.346676e-01 8.537491e-01 8.705127e-01 8.852289e-01 8.980689e-01 9.091364e-01 9.184819e-01 9.261381e-01 9.321135e-01 9.364160e-01 9.390412e-01 
9.296423e-01 9.288190e-01 9.261131e-01 9.215267e-01 9.150699e-01 9.067354e-01 8.965156e-01 8.843677e-01 8.702294e-01 8.539655e-01 8.353705e-01 8.141039e-01 7.897081e-01 7.615629e-01 7.289806e-01 6.912199e-01 6.476987e-01 5.979841e-01 5.420482e-01 4.800458e-01 4.126005e-01 3.404225e-01 2.661384e-01 1.935105e-01 1.275802e-01 7.460123e-02 4.497889e-02 3.312360e-02 3.208739e-02 3.675927e-02 4.309813e-02 4.868679e-02 5.063079e-02 4.928703e-02 4.437158e-02 3.795864e-02 3.269258e-02 3.280996e-02 4.289626e-02 7.022458e-02 1.214221e-01 1.866382e-01 2.594006e-01 3.339845e-01 4.065882e-01 4.747541e-01 5.371789e-01 5.935832e-01 6.436215e-01 6.874704e-01 7.254759e-01 7.583000e-01 7.866523e-01 8.112654e-01 8.327486e-01 8.515801e-01 8.680934e-01 8.824975e-01 8.949194e-01 9.054177e-01 9.140290e-01 9.207574e-01 9.256077e-01 9.285699e-01 
9.180807e-01 9.171572e-01 9.141232e-01 9.089868e-01 9.017687e-01 8.924686e-01 8.810873e-01 8.675793e-01 8.518720e-01 8.338012e-01 8.131132e-01 7.893901e-01 7.620763e-01 7.304390e-01 6.936864e-01 6.509968e-01 6.017539e-01 5.455077e-01 4.822437e-01 4.120465e-01 3.358894e-01 2.545245e-01 1.725630e-01 1.002340e-01 5.268600e-02 3.630340e-02 4.127926e-02 5.660689e-02 7.229771e-02 8.314836e-02 8.894452e-02 9.220303e-02 9.310908e-02 9.276497e-02 9.029525e-02 8.499988e-02 7.491721e-02 5.936453e-02 4.305087e-02 3.604149e-02 4.934487e-02 9.320379e-02 1.641583e-01 2.461009e-01 3.280000e-01 4.052438e-01 4.760953e-01 5.400349e-01 5.967585e-01 6.464586e-01 6.894885e-01 7.265632e-01 7.584698e-01 7.860563e-01 8.100457e-01 8.310189e-01 8.493882e-01 8.654110e-01 8.792434e-01 8.909522e-01 9.005758e-01 9.081085e-01 9.135485e-01 9.168746e-01 
9.052608e-01 9.042260e-01 9.008322e-01 8.950975e-01 8.870607e-01 8.767358e-01 8.641390e-01 8.492269e-01 8.319179e-01 8.120127e-01 7.891976e-01 7.629579e-01 7.326174e-01 6.973037e-01 6.561004e-01 6.080726e-01 5.525442e-01 4.889731e-01 4.172013e-01 3.374696e-01 2.515022e-01 1.627326e-01 8.527808e-02 4.329225e-02 4.204828e-02 6.636495e-02 9.152701e-02 1.083889e-01 1.208984e-01 1.294951e-01 1.339915e-01 1.366020e-01 1.373214e-01 1.372243e-01 1.353796e-01 1.312463e-01 1.233392e-01 1.111033e-01 9.401880e-02 6.896312e-02 4.358310e-02 4.104173e-02 7.787718e-02 1.526720e-01 2.416467e-01 3.289813e-01 4.095088e-01 4.821822e-01 5.464196e-01 6.025704e-01 6.510681e-01 6.927010e-01 7.283702e-01 7.590563e-01 7.856272e-01 8.087875e-01 8.290508e-01 8.467334e-01 8.620278e-01 8.750072e-01 8.857076e-01 8.941058e-01 9.001859e-01 9.039092e-01 
8.911700e-01 8.900084e-01 8.862136e-01 8.798192e-01 8.708920e-01 8.594704e-01 8.455978e-01 8.292389e-01 8.103063e-01 7.885583e-01 7.636072e-01 7.348178e-01 7.013601e-01 6.621932e-01 6.162332e-01 5.624173e-01 4.999684e-01 4.282594e-01 3.470261e-01 2.569359e-01 1.625364e-01 8.034260e-02 4.062255e-02 5.083968e-02 8.595799e-02 1.205772e-01 1.466011e-01 1.632326e-01 1.734098e-01 1.789896e-01 1.809945e-01 1.818035e-01 1.819348e-01 1.823208e-01 1.821238e-01 1.804811e-01 1.754647e-01 1.653936e-01 1.485170e-01 1.228766e-01 8.943826e-02 5.396755e-02 3.946099e-02 7.234836e-02 1.519151e-01 2.465624e-01 3.375424e-01 4.198298e-01 4.924921e-01 5.557901e-01 6.102500e-01 6.567813e-01 6.964115e-01 7.303045e-01 7.595015e-01 7.848665e-01 8.070394e-01 8.264095e-01 8.432140e-01 8.575283e-01 8.693801e-01 8.787165e-01 8.854983e-01 8.896589e-01 
8.758263e-01 8.745180e-01 8.702680e-01 8.631339e-01 8.532233e-01 8.406129e-01 8.253881e-01 8.075322e-01 7.869561e-01 7.633688e-01 7.362910e-01 7.049405e-01 6.682970e-01 6.251182e-01 5.741320e-01 5.141335e-01 4.443630e-01 3.641655e-01 2.735246e-01 1.746606e-01 8.491768e-02 4.055628e-02 5.548700e-02 9.818905e-02 1.415926e-01 1.767684e-01 2.016875e-01 2.167186e-01 2.250181e-01 2.287087e-01 2.294722e-01 2.294635e-01 2.293257e-01 2.298642e-01 2.303218e-01 2.298087e-01 2.264495e-01 2.182342e-01 2.031805e-01 1.788153e-01 1.449666e-01 1.029718e-01 5.961160e-02 3.940840e-02 7.636740e-02 1.627806e-01 2.621601e-01 3.539780e-01 4.353698e-01 5.062091e-01 5.670423e-01 6.187617e-01 6.625419e-01 6.997334e-01 7.315912e-01 7.591685e-01 7.832628e-01 8.043514e-01 8.227257e-01 8.384575e-01 8.515567e-01 8.619258e-01 8.694887e-01 8.741387e-01 
8.593087e-01 8.578265e-01 8.530518e-01 8.450750e-01 8.340613e-01 8.201429e-01 8.034677e-01 7.840493e-01 7.618058e-01 7.363866e-01 7.072047e-01 6.732988e-01 6.334222e-01 5.861102e-01 5.298815e-01 4.634557e-01 3.861516e-01 2.974994e-01 1.979274e-01 1.005157e-01 4.404472e-02 5.407360e-02 1.012313e-01 1.516730e-01 1.956621e-01 2.302360e-01 2.546884e-01 2.695833e-01 2.772738e-01 2.801255e-01 2.801547e-01 2.795501e-01 2.791938e-01 2.798230e-01 2.807207e-01 2.808625e-01 2.782324e-01 2.706724e-01 2.559722e-01 2.321946e-01 1.989033e-01 1.564447e-01 1.068982e-01 5.866632e-02 4.167542e-02 9.029331e-02 1.850429e-01 2.856055e-01 3.756614e-01 4.542634e-01 5.216597e-01 5.787809e-01 6.268289e-01 6.673741e-01 7.018973e-01 7.316738e-01 7.576919e-01 7.805304e-01 8.005457e-01 8.177955e-01 8.322613e-01 8.437800e-01 8.522222e-01 8.574247e-01 
8.417482e-01 8.400579e-01 8.346700e-01 8.257198e-01 8.134489e-01 7.980673e-01 7.798091e-01 7.587361e-01 7.347832e-01 7.075345e-01 6.762752e-01 6.398413e-01 5.967238e-01 5.452620e-01 4.837923e-01 4.111336e-01 3.270175e-01 2.300138e-01 1.266869e-01 5.321849e-02 4.764605e-02 9.515384e-02 1.512518e-01 2.027938e-01 2.466202e-01 2.811288e-01 3.055440e-01 3.206760e-01 3.286072e-01 3.316167e-01 3.318399e-01 3.313072e-01 3.309721e-01 3.314853e-01 3.322040e-01 3.321028e-01 3.292703e-01 3.215636e-01 3.068275e-01 2.832139e-01 2.499749e-01 2.075429e-01 1.572408e-01 1.018138e-01 5.168774e-02 4.831094e-02 1.146811e-01 2.167763e-01 3.152131e-01 4.006502e-01 4.743332e-01 5.368251e-01 5.891815e-01 6.331142e-01 6.703096e-01 7.022849e-01 7.302481e-01 7.548948e-01 7.766546e-01 7.955599e-01 8.115477e-01 8.243656e-01 8.338102e-01 8.396440e-01 
8.233635e-01 8.214226e-01 8.153149e-01 8.052327e-01 7.915161e-01 7.744774e-01 7.544686e-01 7.316185e-01 7.058990e-01 6.768204e-01 6.435349e-01 6.046460e-01 5.583834e-01 5.029348e-01 4.365620e-01 3.585310e-01 2.691519e-01 1.658300e-01 7.344117e-02 4.164583e-02 7.970652e-02 1.393074e-01 1.972460e-01 2.490358e-01 2.932125e-01 3.280562e-01 3.533158e-01 3.696452e-01 3.787970e-01 3.828815e-01 3.839274e-01 3.838647e-01 3.836818e-01 3.839813e-01 3.841712e-01 3.832429e-01 3.793538e-01 3.705179e-01 3.547190e-01 3.303402e-01 2.967039e-01 2.538583e-01 2.032389e-01 1.461690e-01 8.663256e-02 4.289703e-02 6.544156e-02 1.524297e-01 2.561997e-01 3.471926e-01 4.260794e-01 4.934907e-01 5.499340e-01 5.971325e-01 6.369357e-01 6.710696e-01 7.009947e-01 7.275166e-01 7.511486e-01 7.718754e-01 7.895719e-01 8.038659e-01 8.144573e-01 8.210132e-01 
8.044350e-01 8.021936e-01 7.952411e-01 7.838401e-01 7.684512e-01 7.495185e-01 7.275447e-01 7.027546e-01 6.751816e-01 6.442646e-01 6.090224e-01 5.678126e-01 5.185913e-01 4.595114e-01 3.885753e-01 3.065555e-01 2.115383e-01 1.097965e-01 4.604107e-02 5.828526e-02 1.174188e-01 1.793676e-01 2.378402e-01 2.899892e-01 3.346745e-01 3.705575e-01 3.972805e-01 4.154624e-01 4.265239e-01 4.323428e-01 4.347767e-01 4.355749e-01 4.356948e-01 4.356692e-01 4.349832e-01 4.326924e-01 4.271146e-01 4.164573e-01 3.989056e-01 3.731090e-01 3.383965e-01 2.949779e-01 2.439354e-01 1.865581e-01 1.250990e-01 6.478917e-02 4.298728e-02 9.777576e-02 1.972150e-01 2.940863e-01 3.768770e-01 4.488935e-01 5.091232e-01 5.594466e-01 6.017799e-01 6.380467e-01 6.699766e-01 6.984804e-01 7.241551e-01 7.469142e-01 7.665446e-01 7.825244e-01 7.944289e-01 8.018104e-01 
7.853341e-01 7.827377e-01 7.748047e-01 7.618801e-01 7.445671e-01 7.234700e-01 6.992822e-01 6.723555e-01 6.428285e-01 6.100737e-01 5.730185e-01 5.297530e-01 4.780394e-01 4.160156e-01 3.414334e-01 2.572821e-01 1.579393e-01 6.842142e-02 4.169533e-02 8.775907e-02 1.510715e-01 2.138573e-01 2.719388e-01 3.246337e-01 3.702682e-01 4.077564e-01 4.366319e-01 4.573030e-01 4.708899e-01 4.789894e-01 4.832202e-01 4.851505e-01 4.856702e-01 4.852567e-01 4.834594e-01 4.794212e-01 4.716281e-01 4.585218e-01 4.385519e-01 4.106258e-01 3.742872e-01 3.298448e-01 2.782714e-01 2.211235e-01 1.590366e-01 9.588445e-02 4.377236e-02 6.071635e-02 1.444053e-01 2.443180e-01 3.293365e-01 4.044303e-01 4.676823e-01 5.205985e-01 5.652322e-01 6.035139e-01 6.374718e-01 6.680659e-01 6.959739e-01 7.209979e-01 7.428085e-01 7.606986e-01 7.740924e-01 7.824066e-01 
7.664737e-01 7.634657e-01 7.544113e-01 7.397501e-01 7.202440e-01 6.966867e-01 6.699977e-01 6.406980e-01 6.090835e-01 5.744870e-01 5.358248e-01 4.908827e-01 4.374884e-01 3.733636e-01 2.971103e-01 2.109542e-01 1.137650e-01 4.656907e-02 5.400325e-02 1.159230e-01 1.790239e-01 2.411396e-01 2.990975e-01 3.524217e-01 3.994800e-01 4.390846e-01 4.706091e-01 4.942259e-01 5.107396e-01 5.214669e-01 5.277726e-01 5.310217e-01 5.320142e-01 5.311635e-01 5.280891e-01 5.220335e-01 5.116746e-01 4.957022e-01 4.728299e-01 4.422587e-01 4.037765e-01 3.578460e-01 3.056399e-01 2.484271e-01 1.872281e-01 1.237765e-01 6.054284e-02 4.276312e-02 1.016268e-01 1.973161e-01 2.845043e-01 3.605677e-01 4.261669e-01 4.809811e-01 5.276506e-01 5.677991e-01 6.038132e-01 6.366279e-01 6.669819e-01 6.945244e-01 7.187710e-01 7.388007e-01 7.538592e-01 7.632145e-01 
7.483241e-01 7.448484e-01 7.345395e-01 7.179435e-01 6.959918e-01 6.696892e-01 6.402091e-01 6.082839e-01 5.744283e-01 5.379774e-01 4.979654e-01 4.518307e-01 3.978552e-01 3.327558e-01 2.573587e-01 1.686769e-01 7.906999e-02 3.836436e-02 7.379570e-02 1.372699e-01 2.001610e-01 2.608603e-01 3.190049e-01 3.732450e-01 4.221627e-01 4.642908e-01 4.988533e-01 5.257315e-01 5.454421e-01 5.590108e-01 5.675572e-01 5.722336e-01 5.737388e-01 5.724274e-01 5.679808e-01 5.597448e-01 5.465988e-01 5.274733e-01 5.013578e-01 4.677354e-01 4.266867e-01 3.788582e-01 3.257122e-01 2.683096e-01 2.084804e-01 1.452748e-01 8.251777e-02 3.842876e-02 6.912974e-02 1.540464e-01 2.429818e-01 3.183702e-01 3.854793e-01 4.414193e-01 4.897096e-01 5.315238e-01 5.695845e-01 6.047444e-01 6.377427e-01 6.680428e-01 6.949574e-01 7.173348e-01 7.342152e-01 7.447095e-01 
7.313518e-01 7.273568e-01 7.156881e-01 6.970023e-01 6.723964e-01 6.431048e-01 6.105572e-01 5.757509e-01 5.394468e-01 5.010950e-01 4.598992e-01 4.131173e-01 3.594930e-01 2.950090e-01 2.222345e-01 1.339572e-01 5.579097e-02 3.904837e-02 9.139253e-02 1.516438e-01 2.135889e-01 2.732122e-01 3.319200e-01 3.874407e-01 4.385405e-01 4.834570e-01 5.212487e-01 5.515276e-01 5.745243e-01 5.909902e-01 6.018142e-01 6.079431e-01 6.099699e-01 6.081912e-01 6.023448e-01 5.918787e-01 5.758705e-01 5.534730e-01 5.239373e-01 4.870357e-01 4.431169e-01 3.930585e-01 3.385901e-01 2.807875e-01 2.220448e-01 1.605291e-01 1.007589e-01 4.282680e-02 4.905065e-02 1.199215e-01 2.068936e-01 2.803374e-01 3.471282e-01 4.032075e-01 4.523772e-01 4.955649e-01 5.355802e-01 5.731807e-01 6.089759e-01 6.422266e-01 6.719828e-01 6.968605e-01 7.156719e-01 7.273713e-01 
7.160312e-01 7.114911e-01 6.984148e-01 6.775690e-01 6.502026e-01 6.177831e-01 5.819796e-01 5.440966e-01 5.051407e-01 4.648172e-01 4.224934e-01 3.755353e-01 3.228599e-01 2.604659e-01 1.910824e-01 1.072248e-01 4.203810e-02 4.476336e-02 1.027243e-01 1.601352e-01 2.204028e-01 2.795803e-01 3.389842e-01 3.960431e-01 4.494203e-01 4.971898e-01 5.381984e-01 5.718232e-01 5.980269e-01 6.173061e-01 6.303328e-01 6.378693e-01 6.404013e-01 6.381701e-01 6.309642e-01 6.183307e-01 5.995262e-01 5.739087e-01 5.409719e-01 5.007599e-01 4.538464e-01 4.013895e-01 3.452350e-01 2.867849e-01 2.284225e-01 1.690124e-01 1.112781e-01 5.080044e-02 3.744095e-02 9.415023e-02 1.760481e-01 2.472570e-01 3.120011e-01 3.673626e-01 4.166408e-01 4.609336e-01 5.027919e-01 5.428965e-01 5.815721e-01 6.178777e-01 6.505500e-01 6.779873e-01 6.987641e-01 7.116871e-01 
7.027940e-01 6.977139e-01 6.832615e-01 6.603050e-01 6.302207e-01 5.946963e-01 5.556001e-01 5.145629e-01 4.728024e-01 4.304115e-01 3.868750e-01 3.399616e-01 2.883799e-01 2.287786e-01 1.625517e-01 8.546654e-02 3.393186e-02 5.148347e-02 1.085930e-01 1.643058e-01 2.227070e-01 2.818044e-01 3.417968e-01 4.003810e-01 4.558742e-01 5.063190e-01 5.503103e-01 5.870290e-01 6.161813e-01 6.380424e-01 6.530837e-01 6.619044e-01 6.648965e-01 6.622468e-01 6.537889e-01 6.391561e-01 6.177596e-01 5.891449e-01 5.530110e-01 5.096561e-01 4.598250e-01 4.049740e-01 3.469280e-01 2.875597e-01 2.288156e-01 1.710106e-01 1.147903e-01 5.789925e-02 3.141483e-02 7.460305e-02 1.504631e-01 2.193098e-01 2.809020e-01 3.348627e-01 3.836706e-01 4.288680e-01 4.724627e-01 5.150684e-01 5.565932e-01 5.959129e-01 6.314259e-01 6.613444e-01 6.840128e-01 6.981094e-01 
6.920328e-01 6.864638e-01 6.707696e-01 6.459069e-01 6.133493e-01 5.749759e-01 5.328022e-01 4.887724e-01 4.442613e-01 3.998340e-01 3.550464e-01 3.083367e-01 2.579635e-01 2.016060e-01 1.382649e-01 6.832008e-02 2.956845e-02 5.728255e-02 1.110165e-01 1.657005e-01 2.225152e-01 2.816751e-01 3.420695e-01 4.019837e-01 4.592437e-01 5.119776e-01 5.584919e-01 5.978427e-01 6.295029e-01 6.535627e-01 6.703196e-01 6.802338e-01 6.836169e-01 6.806093e-01 6.710812e-01 6.547379e-01 6.311203e-01 5.999344e-01 5.610455e-01 5.149881e-01 4.626089e-01 4.056794e-01 3.459191e-01 2.857562e-01 2.265881e-01 1.700993e-01 1.153015e-01 6.283625e-02 2.915583e-02 6.017543e-02 1.299338e-01 1.960341e-01 2.541809e-01 3.065141e-01 3.547031e-01 4.007632e-01 4.460169e-01 4.910183e-01 5.352027e-01 5.773008e-01 6.153918e-01 6.475464e-01 6.719074e-01 6.870505e-01 
6.840749e-01 6.781114e-01 6.614208e-01 6.350275e-01 6.004713e-01 5.597771e-01 5.150559e-01 4.685059e-01 4.216023e-01 3.753611e-01 3.293999e-01 2.828924e-01 2.337245e-01 1.805512e-01 1.203447e-01 5.657436e-02 2.789664e-02 6.122601e-02 1.119520e-01 1.656993e-01 2.213306e-01 2.805096e-01 3.411417e-01 4.020549e-01 4.606405e-01 5.151269e-01 5.635693e-01 6.049355e-01 6.385132e-01 6.642564e-01 6.823290e-01 6.930825e-01 6.967651e-01 6.934765e-01 6.831163e-01 6.654479e-01 6.401100e-01 6.069371e-01 5.659142e-01 5.177601e-01 4.633961e-01 4.048656e-01 3.438059e-01 2.831152e-01 2.238007e-01 1.684371e-01 1.151505e-01 6.568977e-02 2.848097e-02 5.033968e-02 1.146296e-01 1.776887e-01 2.328631e-01 2.837878e-01 3.315375e-01 3.784443e-01 4.251880e-01 4.722631e-01 5.186735e-01 5.630545e-01 6.032306e-01 6.371790e-01 6.628881e-01 6.788613e-01 
6.791780e-01 6.729568e-01 6.556165e-01 6.282240e-01 5.923572e-01 5.501324e-01 5.037110e-01 4.554542e-01 4.068861e-01 3.593369e-01 3.124650e-01 2.660238e-01 2.176637e-01 1.667204e-01 1.090428e-01 4.955406e-02 2.740197e-02 6.352184e-02 1.126974e-01 1.656320e-01 2.204518e-01 2.795301e-01 3.402333e-01 4.017308e-01 4.611121e-01 5.166858e-01 5.663246e-01 6.089502e-01 6.437245e-01 6.705201e-01 6.894155e-01 7.006949e-01 7.045659e-01 7.011017e-01 6.902209e-01 6.717247e-01 6.453117e-01 6.108968e-01 5.685361e-01 5.190740e-01 4.634710e-01 4.039661e-01 3.421398e-01 2.812059e-01 2.219484e-01 1.673727e-01 1.152146e-01 6.723945e-02 2.836245e-02 4.457516e-02 1.048686e-01 1.654484e-01 2.186603e-01 2.686935e-01 3.162655e-01 3.638635e-01 4.117028e-01 4.602305e-01 5.081496e-01 5.540496e-01 5.955965e-01 6.307166e-01 6.573025e-01 6.738146e-01 
6.775154e-01 6.712039e-01 6.536379e-01 6.258983e-01 5.895767e-01 5.468195e-01 4.998060e-01 4.509497e-01 4.017884e-01 3.537539e-01 3.065256e-01 2.600955e-01 2.120241e-01 1.619228e-01 1.052563e-01 4.737355e-02 2.729046e-02 6.420095e-02 1.129035e-01 1.655186e-01 2.200484e-01 2.790793e-01 3.398027e-01 4.015018e-01 4.611616e-01 5.171147e-01 5.671713e-01 6.102343e-01 6.454235e-01 6.725825e-01 6.917611e-01 7.032210e-01 7.071554e-01 7.036274e-01 6.925642e-01 6.737791e-01 6.469904e-01 6.121402e-01 5.693102e-01 5.193875e-01 4.633510e-01 4.035071e-01 3.414254e-01 2.804259e-01 2.212238e-01 1.669479e-01 1.152143e-01 6.771143e-02 2.834691e-02 4.263946e-02 1.014372e-01 1.610674e-01 2.135930e-01 2.633341e-01 3.108776e-01 3.587629e-01 4.070217e-01 4.560798e-01 5.045338e-01 5.509645e-01 5.929882e-01 6.285144e-01 6.554036e-01 6.721015e-01 
6.791780e-01 6.729568e-01 6.556165e-01 6.282240e-01 5.923572e-01 5.501324e-01 5.037110e-01 4.554542e-01 4.068861e-01 3.593369e-01 3.124650e-01 2.660238e-01 2.176637e-01 1.667204e-01 1.090428e-01 4.955406e-02 2.740197e-02 6.352184e-02 1.126974e-01 1.656320e-01 2.204518e-01 2.795301e-01 3.402333e-01 4.017308e-01 4.611121e-01 5.166858e-01 5.663246e-01 6.089502e-01 6.437245e-01 6.705201e-01 6.894155e-01 7.006949e-01 7.045659e-01 7.011017e-01 6.902209e-01 6.717247e-01 6.453117e-01 6.108968e-01 5.685361e-01 5.190740e-01 4.634710e-01 4.039661e-01 3.421398e-01 2.812059e-01 2.219484e-01 1.673727e-01 1.152146e-01 6.723945e-02 2.836245e-02 4.457516e-02 1.048686e-01 1.654484e-01 2.186603e-01 2.686935e-01 3.162655e-01 3.638635e-01 4.117028e-01 4.602305e-01 5.081496e-01 5.540496e-01 5.955965e-01 6.307166e-01 6.573025e-01 6.738146e-01 
6.840749e-01 6.781114e-01 6.614208e-01 6.350275e-01 6.004713e-01 5.597771e-01 5.150559e-01 4.685059e-01 4.216023e-01 3.753611e-01 3.293999e-01 2.828924e-01 2.337245e-01 1.805512e-01 1.203447e-01 5.657436e-02 2.789664e-02 6.122601e-02 1.119520e-01 1.656993e-01 2.213306e-01 2.805096e-01 3.411417e-01 4.020549e-01 4.606405e-01 5.151269e-01 5.635693e-01 6.049355e-01 6.385132e-01 6.642564e-01 6.823290e-01 6.930825e-01 6.967651e-01 6.934765e-01 6.831163e-01 6.654479e-01 6.401100e-01 6.069371e-01 5.659142e-01 5.177601e-01 4.633961e-01 4.048656e-01 3.438059e-01 2.831152e-01 2.238007e-01 1.684371e-01 1.151505e-01 6.568977e-02 2.848097e-02 5.033968e-02 1.146296e-01 1.776887e-01 2.328631e-01 2.837878e-01 3.315375e-01 3.784443e-01 4.251880e-01 4.722631e-01 5.186735e-01 5.630545e-01 6.032306e-01 6.371790e-01 6.628881e-01 6.788613e-01 