# vtk DataFile Version 2.0
Comment goes here
ASCII

DATASET STRUCTURED_POINTS
FIELD FieldData 1
TIME 1 1 double
0.01000000
DIMENSIONS    64   64   1

ORIGIN    0.000   0.000   0.000
SPACING   0.015625 0.015625   1.000

POINT_DATA   4096
SCALARS Concentration double
LOOKUP_TABLE default

1 1 1 1 1 1 1 1 1 1 1 1 1 1 1 1 1 1 1 1 1.000000e+00 1.000000e+00 1.000000e+00 1.000000e+00 1.000000e+00 1.000000e+00 1.000000e+00 1.000000e+00 9.999998e-01 9.999996e-01 9.999990e-01 9.999984e-01 9.999982e-01 9.999984e-01 9.999990e-01 9.999996e-01 9.999998e-01 1.000000e+00 1.000000e+00 1.000000e+00 1.000000e+00 1.000000e+00 1.000000e+00 1.000000e+00 1.000000e+00 1 1 1 1 1 1 1 1 1 1 1 1 1 1 1 1 1 1 1 
1 1 1 1 1 1 1 1 1 1 1 1 1 1 1 1 1 1 1 1.000000e+00 1.000000e+00 1.000000e+00 1.000000e+00 1.000000e+00 1.000000e+00 1.000000e+00 9.999999e-01 9.999996e-01 9.999987e-01 9.999964e-01 9.999923e-01 9.999878e-01 9.999858e-01 9.999878e-01 9.999923e-01 9.999964e-01 9.999987e-01 9.999996e-01 9.999999e-01 1.000000e+00 1.000000e+00 1.000000e+00 1.000000e+00 1.000000e+00 1.000000e+00 1.000000e+00 1 1 1 1 1 1 1 1 1 1 1 1 1 1 1 1 1 1 
1 1 1 1 1 1 1 1 1 1 1 1 1 1 1 1 1 1 1.000000e+00 1.000000e+00 1.000000e+00 1.000000e+00 1.000000e+00 1.000000e+00 1.000000e+00 9.999998e-01 9.999987e-01 9.999944e-01 9.999812e-01 9.999507e-01 9.998984e-01 9.998422e-01 9.998171e-01 9.998421e-01 9.998984e-01 9.999507e-01 9.999813e-01 9.999944e-01 9.999987e-01 9.999998e-01 1.000000e+00 1.000000e+00 1.000000e+00 1.000000e+00 1.000000e+00 1.000000e+00 1.000000e+00 1 1 1 1 1 1 1 1 1 1 1 1 1 1 1 1 1 
1 1 1 1 1 1 1 1 1 1 1 1 1 1 1 1 1 1.000000e+00 1.000000e+00 1.000000e+00 1.000000e+00 1.000000e+00 1.000000e+00 9.999999e-01 9.999995e-01 9.999967e-01 9.999829e-01 9.999291e-01 9.997737e-01 9.994366e-01 9.988868e-01 9.983093e-01 9.980538e-01 9.983089e-01 9.988866e-01 9.994369e-01 9.997741e-01 9.999291e-01 9.999829e-01 9.999967e-01 9.999995e-01 9.999999e-01 1.000000e+00 1.000000e+00 1.000000e+00 1.000000e+00 1.000000e+00 1.000000e+00 1 1 1 1 1 1 1 1 1 1 1 1 1 1 1 1 
1 1 1 1 1 1 1 1 1 1 1 1 1 1 1 1 1.000000e+00 1.000000e+00 1.000000e+00 1.000000e+00 1.000000e+00 1.000000e+00 9.999999e-01 9.999991e-01 9.999932e-01 9.999603e-01 9.998082e-01 9.992523e-01 9.977547e-01 9.947683e-01 9.902548e-01 9.856971e-01 9.837109e-01 9.856938e-01 9.902530e-01 9.947701e-01 9.977568e-01 9.992528e-01 9.998079e-01 9.999601e-01 9.999932e-01 9.999991e-01 9.999999e-01 1.000000e+00 1.000000e+00 1.000000e+00 1.000000e+00 1.000000e+00 1.000000e+00 1 1 1 1 1 1 1 1 1 1 1 1 1 1 1 
1 1 1 1 1 1 1 1 1 1 1 1 1 1 1 1.000000e+00 1.000000e+00 1.000000e+00 1.000000e+00 1.000000e+00 1.000000e+00 9.999999e-01 9.999988e-01 9.999895e-01 9.999276e-01 9.996046e-01 9.982505e-01 9.936976e-01 9.825350e-01 9.625220e-01 9.348314e-01 9.083933e-01 8.972672e-01 9.083717e-01 9.348210e-01 9.625264e-01 9.825431e-01 9.937004e-01 9.982485e-01 9.996035e-01 9.999273e-01 9.999895e-01 9.999988e-01 9.999999e-01 1.000000e+00 1.000000e+00 1.000000e+00 1.000000e+00 1.000000e+00 1.000000e+00 1 1 1 1 1 1 1 1 1 1 1 1 1 1 
1 1 1 1 1 1 1 1 1 1 1 1 1 1 1.000000e+00 1.000000e+00 1.000000e+00 1.000000e+00 1.000000e+00 1.000000e+00 9.999999e-01 9.999989e-01 9.999884e-01 9.999047e-01 9.993794e-01 9.968437e-01 9.873797e-01 9.586302e-01 8.947380e-01 8.017669e-01 7.218939e-01 6.779445e-01 6.644354e-01 6.778967e-01 7.218574e-01 8.017778e-01 8.947607e-01 9.586400e-01 9.873718e-01 9.968383e-01 9.993783e-01 9.999046e-01 9.999884e-01 9.999989e-01 9.999999e-01 1.000000e+00 1.000000e+00 1.000000e+00 1.000000e+00 1.000000e+00 1.000000e+00 1 1 1 1 1 1 1 1 1 1 1 1 1 
1 1 1 1 1 1 1 1 1 1 1 1 1 1 1.000000e+00 1.000000e+00 1.000000e+00 1.000000e+00 1.000000e+00 9.999999e-01 9.999992e-01 9.999907e-01 9.999113e-01 9.993190e-01 9.959055e-01 9.809373e-01 9.306757e-01 8.153273e-01 6.835938e-01 6.116953e-01 5.964437e-01 6.083784e-01 6.173951e-01 6.083492e-01 5.963889e-01 6.116494e-01 6.836246e-01 8.154063e-01 9.306698e-01 9.809206e-01 9.959024e-01 9.993187e-01 9.999113e-01 9.999907e-01 9.999992e-01 9.999999e-01 1.000000e+00 1.000000e+00 1.000000e+00 1.000000e+00 1.000000e+00 1 1 1 1 1 1 1 1 1 1 1 1 1 
1 1 1 1 1 1 1 1 1 1 1 1 1 1.000000e+00 1.000000e+00 1.000000e+00 1.000000e+00 1.000000e+00 1.000000e+00 9.999996e-01 9.999945e-01 9.999398e-01 9.994671e-01 9.962922e-01 9.802183e-01 9.194689e-01 7.742923e-01 6.435250e-01 6.170396e-01 6.852552e-01 7.881556e-01 8.577398e-01 8.788065e-01 8.577544e-01 7.881468e-01 6.851912e-01 6.170470e-01 6.436214e-01 7.742745e-01 9.194137e-01 9.802134e-01 9.962915e-01 9.994669e-01 9.999397e-01 9.999945e-01 9.999996e-01 1.000000e+00 1.000000e+00 1.000000e+00 1.000000e+00 1.000000e+00 1.000000e+00 1 1 1 1 1 1 1 1 1 1 1 1 
1 1 1 1 1 1 1 1 1 1 1 1 1.000000e+00 1.000000e+00 1.000000e+00 1.000000e+00 1.000000e+00 1.000000e+00 9.999998e-01 9.999974e-01 9.999687e-01 9.996842e-01 9.974662e-01 9.844089e-01 9.277845e-01 7.736217e-01 6.376637e-01 6.430774e-01 7.685213e-01 8.985651e-01 9.570468e-01 9.767222e-01 9.814127e-01 9.767267e-01 9.570407e-01 8.985066e-01 7.684639e-01 6.431545e-01 6.376869e-01 7.735848e-01 9.278010e-01 9.844071e-01 9.974655e-01 9.996840e-01 9.999686e-01 9.999974e-01 9.999998e-01 1.000000e+00 1.000000e+00 1.000000e+00 1.000000e+00 1.000000e+00 1.000000e+00 1 1 1 1 1 1 1 1 1 1 1 
1 1 1 1 1 1 1 1 1 1 1 1 1.000000e+00 1.000000e+00 1.000000e+00 1.000000e+00 1.000000e+00 9.999999e-01 9.999991e-01 9.999872e-01 9.998541e-01 9.986563e-01 9.903691e-01 9.480815e-01 8.040267e-01 6.467647e-01 6.464156e-01 7.911358e-01 9.288449e-01 9.794946e-01 9.934931e-01 9.971125e-01 9.978453e-01 9.971129e-01 9.934898e-01 9.794813e-01 9.288361e-01 7.912042e-01 6.464244e-01 6.468043e-01 8.041477e-01 9.480936e-01 9.903675e-01 9.986557e-01 9.998540e-01 9.999872e-01 9.999991e-01 9.999999e-01 1.000000e+00 1.000000e+00 1.000000e+00 1.000000e+00 1.000000e+00 1 1 1 1 1 1 1 1 1 1 1 
1 1 1 1 1 1 1 1 1 1 1 1.000000e+00 1.000000e+00 1.000000e+00 1.000000e+00 1.000000e+00 1.000000e+00 9.999997e-01 9.999957e-01 9.999457e-01 9.994302e-01 9.952545e-01 9.699577e-01 8.585527e-01 6.748443e-01 6.317694e-01 7.705395e-01 9.273142e-01 9.834483e-01 9.964425e-01 9.991543e-01 9.997039e-01 9.997974e-01 9.997040e-01 9.991539e-01 9.964416e-01 9.834471e-01 9.273036e-01 7.704625e-01 6.316834e-01 6.747099e-01 8.584373e-01 9.699427e-01 9.952553e-01 9.994308e-01 9.999458e-01 9.999958e-01 9.999997e-01 1.000000e+00 1.000000e+00 1.000000e+00 1.000000e+00 1.000000e+00 1.000000e+00 1 1 1 1 1 1 1 1 1 1 
1 1 1 1 1 1 1 1 1 1 1 1.000000e+00 1.000000e+00 1.000000e+00 1.000000e+00 1.000000e+00 9.999999e-01 9.999988e-01 9.999834e-01 9.998031e-01 9.981056e-01 9.858629e-01 9.205360e-01 7.336859e-01 6.205237e-01 7.189252e-01 9.006928e-01 9.794522e-01 9.964150e-01 9.994241e-01 9.999007e-01 9.999740e-01 9.999841e-01 9.999740e-01 9.999007e-01 9.994241e-01 9.964153e-01 9.794542e-01 9.007175e-01 7.189036e-01 6.205362e-01 7.338923e-01 9.206558e-01 9.858899e-01 9.981113e-01 9.998039e-01 9.999835e-01 9.999988e-01 9.999999e-01 1.000000e+00 1.000000e+00 1.000000e+00 1.000000e+00 1.000000e+00 1 1 1 1 1 1 1 1 1 1 
1 1 1 1 1 1 1 1 1 1 1.000000e+00 1.000000e+00 1.000000e+00 1.000000e+00 1.000000e+00 1.000000e+00 9.999997e-01 9.999958e-01 9.999439e-01 9.993808e-01 9.945491e-01 9.637495e-01 8.238430e-01 6.406354e-01 6.557708e-01 8.428071e-01 9.659085e-01 9.943610e-01 9.992184e-01 9.999042e-01 9.999881e-01 9.999979e-01 9.999989e-01 9.999979e-01 9.999881e-01 9.999044e-01 9.992199e-01 9.943712e-01 9.659606e-01 8.429075e-01 6.558583e-01 6.408527e-01 8.239822e-01 9.637816e-01 9.945587e-01 9.993825e-01 9.999441e-01 9.999958e-01 9.999997e-01 1.000000e+00 1.000000e+00 1.000000e+00 1.000000e+00 1.000000e+00 1.000000e+00 1 1 1 1 1 1 1 1 1 
1 1 1 1 1 1 1 1 1 1 1.000000e+00 1.000000e+00 1.000000e+00 1.000000e+00 1.000000e+00 9.999999e-01 9.999991e-01 9.999867e-01 9.998324e-01 9.982794e-01 9.861521e-01 9.158209e-01 7.155063e-01 6.153596e-01 7.501078e-01 9.326198e-01 9.884590e-01 9.984217e-01 9.998228e-01 9.999828e-01 9.999984e-01 9.999998e-01 9.999999e-01 9.999998e-01 9.999984e-01 9.999828e-01 9.998227e-01 9.984204e-01 9.884473e-01 9.325330e-01 7.498909e-01 6.152078e-01 7.153747e-01 9.157930e-01 9.861559e-01 9.982809e-01 9.998326e-01 9.999867e-01 9.999991e-01 9.999999e-01 1.000000e+00 1.000000e+00 1.000000e+00 1.000000e+00 1.000000e+00 1 1 1 1 1 1 1 1 1 
1 1 1 1 1 1 1 1 1 1 1.000000e+00 1.000000e+00 1.000000e+00 1.000000e+00 1.000000e+00 9.999998e-01 9.999973e-01 9.999621e-01 9.995545e-01 9.957806e-01 9.693722e-01 8.340647e-01 6.364011e-01 6.524443e-01 8.565529e-01 9.720034e-01 9.959722e-01 9.995327e-01 9.999558e-01 9.999964e-01 9.999997e-01 1.000000e+00 1.000000e+00 1.000000e+00 9.999997e-01 9.999964e-01 9.999557e-01 9.995318e-01 9.959661e-01 9.719767e-01 8.565534e-01 6.524286e-01 6.362793e-01 8.340102e-01 9.693617e-01 9.957785e-01 9.995543e-01 9.999620e-01 9.999973e-01 9.999998e-01 1.000000e+00 1.000000e+00 1.000000e+00 1.000000e+00 1.000000e+00 1 1 1 1 1 1 1 1 1 
1 1 1 1 1 1 1 1 1 1.000000e+00 1.000000e+00 1.000000e+00 1.000000e+00 1.000000e+00 1.000000e+00 9.999995e-01 9.999924e-01 9.998993e-01 9.988912e-01 9.904138e-01 9.367188e-01 7.404815e-01 6.066589e-01 7.307056e-01 9.301783e-01 9.885015e-01 9.985488e-01 9.998537e-01 9.999878e-01 9.999991e-01 9.999999e-01 1.000000e+00 1.000000e+00 1.000000e+00 9.999999e-01 9.999991e-01 9.999879e-01 9.998540e-01 9.985517e-01 9.885189e-01 9.302496e-01 7.307533e-01 6.066485e-01 7.404508e-01 9.366756e-01 9.903990e-01 9.988887e-01 9.998990e-01 9.999924e-01 9.999995e-01 1.000000e+00 1.000000e+00 1.000000e+00 1.000000e+00 1.000000e+00 1.000000e+00 1 1 1 1 1 1 1 1 
1 1 1 1 1 1 1 1 1 1.000000e+00 1.000000e+00 1.000000e+00 1.000000e+00 1.000000e+00 9.999999e-01 9.999987e-01 9.999801e-01 9.997526e-01 9.974570e-01 9.802081e-01 8.801711e-01 6.607838e-01 6.231355e-01 8.235881e-01 9.648228e-01 9.950470e-01 9.994445e-01 9.999502e-01 9.999963e-01 9.999998e-01 1.000000e+00 1.000000e+00 1.000000e+00 1.000000e+00 1.000000e+00 9.999998e-01 9.999963e-01 9.999504e-01 9.994464e-01 9.950591e-01 9.648670e-01 8.236139e-01 6.231541e-01 6.608024e-01 8.801462e-01 9.801884e-01 9.974527e-01 9.997521e-01 9.999801e-01 9.999987e-01 9.999999e-01 1.000000e+00 1.000000e+00 1.000000e+00 1.000000e+00 1.000000e+00 1 1 1 1 1 1 1 1 
1 1 1 1 1 1 1 1 1 1.000000e+00 1.000000e+00 1.000000e+00 1.000000e+00 1.000000e+00 9.999998e-01 9.999967e-01 9.999535e-01 9.994591e-01 9.948770e-01 9.638139e-01 8.077812e-01 6.116613e-01 6.722753e-01 8.989597e-01 9.823914e-01 9.977700e-01 9.997742e-01 9.999815e-01 9.999987e-01 9.999999e-01 1.000000e+00 1.000000e+00 1.000000e+00 1.000000e+00 1.000000e+00 9.999999e-01 9.999987e-01 9.999815e-01 9.997745e-01 9.977726e-01 9.824033e-01 8.989795e-01 6.723360e-01 6.117266e-01 8.078746e-01 9.638647e-01 9.948834e-01 9.994598e-01 9.999536e-01 9.999967e-01 9.999998e-01 1.000000e+00 1.000000e+00 1.000000e+00 1.000000e+00 1.000000e+00 1 1 1 1 1 1 1 1 
1 1 1 1 1 1 1 1 1.000000e+00 1.000000e+00 1.000000e+00 1.000000e+00 1.000000e+00 1.000000e+00 9.999995e-01 9.999922e-01 9.998977e-01 9.988847e-01 9.903992e-01 9.375356e-01 7.328810e-01 5.958736e-01 7.421147e-01 9.420794e-01 9.912021e-01 9.989734e-01 9.999050e-01 9.999927e-01 9.999995e-01 1.000000e+00 1.000000e+00 1.000000e+00 1.000000e+00 1.000000e+00 1.000000e+00 1.000000e+00 9.999995e-01 9.999927e-01 9.999049e-01 9.989723e-01 9.911975e-01 9.420559e-01 7.421248e-01 5.958655e-01 7.329145e-01 9.376069e-01 9.904219e-01 9.988883e-01 9.998982e-01 9.999923e-01 9.999995e-01 1.000000e+00 1.000000e+00 1.000000e+00 1.000000e+00 1.000000e+00 1.000000e+00 1 1 1 1 1 1 1 
1 1 1 1 1 1 1 1 1.000000e+00 1.000000e+00 1.000000e+00 1.000000e+00 1.000000e+00 9.999999e-01 9.999989e-01 9.999834e-01 9.997930e-01 9.978582e-01 9.831090e-01 8.974160e-01 6.679665e-01 6.082028e-01 8.171430e-01 9.643063e-01 9.952163e-01 9.994859e-01 9.999563e-01 9.999969e-01 9.999998e-01 1.000000e+00 1.000000e+00 1.000000e+00 1.000000e+00 1.000000e+00 1.000000e+00 1.000000e+00 9.999998e-01 9.999969e-01 9.999562e-01 9.994845e-01 9.952064e-01 9.642533e-01 8.170364e-01 6.081381e-01 6.677651e-01 8.972191e-01 9.830731e-01 9.978548e-01 9.997928e-01 9.999834e-01 9.999989e-01 9.999999e-01 1.000000e+00 1.000000e+00 1.000000e+00 1.000000e+00 1.000000e+00 1 1 1 1 1 1 1 
1 1 1 1 1 1 1 1 1.000000e+00 1.000000e+00 1.000000e+00 1.000000e+00 1.000000e+00 9.999999e-01 9.999979e-01 9.999692e-01 9.996320e-01 9.963613e-01 9.732206e-01 8.481438e-01 6.216451e-01 6.388719e-01 8.787669e-01 9.781397e-01 9.972604e-01 9.997223e-01 9.999777e-01 9.999985e-01 9.999999e-01 1.000000e+00 1.000000e+00 1.000000e+00 1.000000e+00 1.000000e+00 1.000000e+00 1.000000e+00 9.999999e-01 9.999985e-01 9.999776e-01 9.997222e-01 9.972609e-01 9.781515e-01 8.788135e-01 6.390625e-01 6.217963e-01 8.481957e-01 9.731905e-01 9.963553e-01 9.996313e-01 9.999691e-01 9.999979e-01 9.999999e-01 1.000000e+00 1.000000e+00 1.000000e+00 1.000000e+00 1.000000e+00 1 1 1 1 1 1 1 
1 1 1 1 1 1 1 1 1.000000e+00 1.000000e+00 1.000000e+00 1.000000e+00 1.000000e+00 9.999998e-01 9.999963e-01 9.999482e-01 9.994052e-01 9.943989e-01 9.610193e-01 7.958056e-01 5.943580e-01 6.816040e-01 9.201730e-01 9.869238e-01 9.984454e-01 9.998509e-01 9.999885e-01 9.999992e-01 1.000000e+00 1.000000e+00 1.000000e+00 1.000000e+00 1.000000e+00 1.000000e+00 1.000000e+00 1.000000e+00 1.000000e+00 9.999992e-01 9.999885e-01 9.998515e-01 9.984515e-01 9.869659e-01 9.203521e-01 6.816968e-01 5.944573e-01 7.960891e-01 9.611401e-01 9.944174e-01 9.994072e-01 9.999484e-01 9.999963e-01 9.999998e-01 1.000000e+00 1.000000e+00 1.000000e+00 1.000000e+00 1.000000e+00 1 1 1 1 1 1 1 
1 1 1 1 1 1 1 1.000000e+00 1.000000e+00 1.000000e+00 1.000000e+00 1.000000e+00 1.000000e+00 9.999996e-01 9.999937e-01 9.999155e-01 9.990707e-01 9.917504e-01 9.454231e-01 7.438764e-01 5.839961e-01 7.330902e-01 9.440673e-01 9.918114e-01 9.990860e-01 9.999181e-01 9.999940e-01 9.999996e-01 1.000000e+00 1.000000e+00 1.000000e+00 1.000000e+00 1.000000e+00 1.000000e+00 1.000000e+00 1.000000e+00 1.000000e+00 9.999996e-01 9.999940e-01 9.999180e-01 9.990842e-01 9.917932e-01 9.439551e-01 7.327082e-01 5.834161e-01 7.433364e-01 9.453114e-01 9.917430e-01 9.990709e-01 9.999156e-01 9.999937e-01 9.999996e-01 1.000000e+00 1.000000e+00 1.000000e+00 1.000000e+00 1.000000e+00 1.000000e+00 1 1 1 1 1 1 
1 1 1 1 1 1 1 1.000000e+00 1.000000e+00 1.000000e+00 1.000000e+00 1.000000e+00 1.000000e+00 9.999993e-01 9.999893e-01 9.998624e-01 9.985535e-01 9.879589e-01 9.243736e-01 6.960676e-01 5.862237e-01 7.847280e-01 9.580970e-01 9.943356e-01 9.994000e-01 9.999493e-01 9.999964e-01 9.999998e-01 1.000000e+00 1.000000e+00 1.000000e+00 1.000000e+00 1.000000e+00 1.000000e+00 1.000000e+00 1.000000e+00 1.000000e+00 9.999998e-01 9.999964e-01 9.999491e-01 9.993979e-01 9.943223e-01 9.580589e-01 7.849506e-01 5.868763e-01 6.964344e-01 9.243543e-01 9.879417e-01 9.985509e-01 9.998622e-01 9.999892e-01 9.999993e-01 1.000000e+00 1.000000e+00 1.000000e+00 1.000000e+00 1.000000e+00 1.000000e+00 1 1 1 1 1 1 
1 1 1 1 1 1 1 1.000000e+00 1.000000e+00 1.000000e+00 1.000000e+00 1.000000e+00 9.999999e-01 9.999988e-01 9.999828e-01 9.997881e-01 9.978585e-01 9.831740e-01 9.000055e-01 6.589182e-01 5.979965e-01 8.280509e-01 9.676295e-01 9.957812e-01 9.995650e-01 9.999644e-01 9.999976e-01 9.999999e-01 1.000000e+00 1.000000e+00 1.000000e+00 1.000000e+00 1.000000e+00 1.000000e+00 1.000000e+00 1.000000e+00 1.000000e+00 9.999999e-01 9.999976e-01 9.999646e-01 9.995672e-01 9.958018e-01 9.677579e-01 8.283232e-01 5.981329e-01 6.591511e-01 9.002191e-01 9.832232e-01 9.978646e-01 9.997886e-01 9.999828e-01 9.999988e-01 9.999999e-01 1.000000e+00 1.000000e+00 1.000000e+00 1.000000e+00 1.000000e+00 1 1 1 1 1 1 
1 1 1 1 1 1 1 1.000000e+00 1.000000e+00 1.000000e+00 1.000000e+00 1.000000e+00 9.999999e-01 9.999983e-01 9.999751e-01 9.997028e-01 9.970908e-01 9.781241e-01 8.761786e-01 6.325500e-01 6.142009e-01 8.607694e-01 9.748610e-01 9.968009e-01 9.996766e-01 9.999740e-01 9.999982e-01 9.999999e-01 1.000000e+00 1.000000e+00 1.000000e+00 1.000000e+00 1.000000e+00 1.000000e+00 1.000000e+00 1.000000e+00 1.000000e+00 9.999999e-01 9.999982e-01 9.999739e-01 9.996752e-01 9.967855e-01 9.747402e-01 8.602212e-01 6.130830e-01 6.315743e-01 8.758158e-01 9.780738e-01 9.970858e-01 9.997024e-01 9.999751e-01 9.999983e-01 9.999999e-01 1.000000e+00 1.000000e+00 1.000000e+00 1.000000e+00 1.000000e+00 1 1 1 1 1 1 
1 1 1 1 1 1 1 1.000000e+00 1.000000e+00 1.000000e+00 1.000000e+00 1.000000e+00 9.999999e-01 9.999977e-01 9.999672e-01 9.996152e-01 9.963179e-01 9.731065e-01 8.535353e-01 6.122280e-01 6.297076e-01 8.838657e-01 9.799395e-01 9.975024e-01 9.997528e-01 9.999804e-01 9.999987e-01 9.999999e-01 1.000000e+00 1.000000e+00 1.000000e+00 1.000000e+00 1.000000e+00 1.000000e+00 1.000000e+00 1.000000e+00 1.000000e+00 9.999999e-01 9.999987e-01 9.999804e-01 9.997532e-01 9.975088e-01 9.800050e-01 8.843135e-01 6.311447e-01 6.135754e-01 8.539192e-01 9.731290e-01 9.963182e-01 9.996150e-01 9.999672e-01 9.999977e-01 9.999999e-01 1.000000e+00 1.000000e+00 1.000000e+00 1.000000e+00 1.000000e+00 1 1 1 1 1 1 
1 1 1 1 1 1 1 1.000000e+00 1.000000e+00 1.000000e+00 1.000000e+00 1.000000e+00 9.999998e-01 9.999971e-01 9.999595e-01 9.995320e-01 9.956020e-01 9.685341e-01 8.343121e-01 6.002008e-01 6.473805e-01 9.012765e-01 9.836642e-01 9.980108e-01 9.998074e-01 9.999849e-01 9.999990e-01 9.999999e-01 1.000000e+00 1.000000e+00 1.000000e+00 1.000000e+00 1.000000e+00 1.000000e+00 1.000000e+00 1.000000e+00 1.000000e+00 9.999999e-01 9.999990e-01 9.999849e-01 9.998075e-01 9.980110e-01 9.836536e-01 9.011104e-01 6.464166e-01 5.991358e-01 8.340409e-01 9.685407e-01 9.956056e-01 9.995324e-01 9.999596e-01 9.999971e-01 9.999998e-01 1.000000e+00 1.000000e+00 1.000000e+00 1.000000e+00 1.000000e+00 1 1 1 1 1 1 
1 1 1 1 1 1 1 1.000000e+00 1.000000e+00 1.000000e+00 1.000000e+00 1.000000e+00 9.999998e-01 9.999966e-01 9.999530e-01 9.994609e-01 9.949987e-01 9.646527e-01 8.180738e-01 5.907403e-01 6.620652e-01 9.132527e-01 9.861920e-01 9.983562e-01 9.998444e-01 9.999880e-01 9.999992e-01 1.000000e+00 1.000000e+00 1.000000e+00 1.000000e+00 1.000000e+00 1.000000e+00 1.000000e+00 1.000000e+00 1.000000e+00 1.000000e+00 1.000000e+00 9.999992e-01 9.999880e-01 9.998440e-01 9.983525e-01 9.861672e-01 9.131666e-01 6.621655e-01 5.910068e-01 8.181263e-01 9.646333e-01 9.949951e-01 9.994606e-01 9.999530e-01 9.999966e-01 9.999998e-01 1.000000e+00 1.000000e+00 1.000000e+00 1.000000e+00 1.000000e+00 1 1 1 1 1 1 
1 1 1 1 1 1 1 1.000000e+00 1.000000e+00 1.000000e+00 1.000000e+00 1.000000e+00 9.999998e-01 9.999962e-01 9.999478e-01 9.994047e-01 9.945265e-01 9.616153e-01 8.058731e-01 5.848687e-01 6.736611e-01 9.209908e-01 9.877869e-01 9.985732e-01 9.998676e-01 9.999899e-01 9.999994e-01 1.000000e+00 1.000000e+00 1.000000e+00 1.000000e+00 1.000000e+00 1.000000e+00 1.000000e+00 1.000000e+00 1.000000e+00 1.000000e+00 1.000000e+00 9.999994e-01 9.999900e-01 9.998681e-01 9.985788e-01 9.878321e-01 9.212417e-01 6.743368e-01 5.856169e-01 8.061306e-01 9.616436e-01 9.945284e-01 9.994047e-01 9.999478e-01 9.999962e-01 9.999998e-01 1.000000e+00 1.000000e+00 1.000000e+00 1.000000e+00 1.000000e+00 1 1 1 1 1 1 
1 1 1 1 1 1 1 1.000000e+00 1.000000e+00 1.000000e+00 1.000000e+00 1.000000e+00 9.999998e-01 9.999960e-01 9.999446e-01 9.993694e-01 9.942344e-01 9.597515e-01 7.987315e-01 5.828478e-01 6.820166e-01 9.257117e-01 9.887347e-01 9.987007e-01 9.998810e-01 9.999910e-01 9.999994e-01 1.000000e+00 1.000000e+00 1.000000e+00 1.000000e+00 1.000000e+00 1.000000e+00 1.000000e+00 1.000000e+00 1.000000e+00 1.000000e+00 1.000000e+00 9.999994e-01 9.999910e-01 9.998804e-01 9.986940e-01 9.886766e-01 9.253520e-01 6.806679e-01 5.811363e-01 7.981377e-01 9.597073e-01 9.942332e-01 9.993696e-01 9.999446e-01 9.999960e-01 9.999998e-01 1.000000e+00 1.000000e+00 1.000000e+00 1.000000e+00 1.000000e+00 1 1 1 1 1 1 
1 1 1 1 1 1 1 1.000000e+00 1.000000e+00 1.000000e+00 1.000000e+00 1.000000e+00 9.999997e-01 9.999959e-01 9.999434e-01 9.993570e-01 9.941290e-01 9.590324e-01 7.954144e-01 5.797674e-01 6.829859e-01 9.267661e-01 9.889658e-01 9.987334e-01 9.998846e-01 9.999913e-01 9.999994e-01 1.000000e+00 1.000000e+00 1.000000e+00 1.000000e+00 1.000000e+00 1.000000e+00 1.000000e+00 1.000000e+00 1.000000e+00 1.000000e+00 1.000000e+00 9.999995e-01 9.999914e-01 9.998852e-01 9.987406e-01 9.890294e-01 9.271752e-01 6.846737e-01 5.819814e-01 7.961850e-01 9.590889e-01 9.941305e-01 9.993568e-01 9.999434e-01 9.999959e-01 9.999997e-01 1.000000e+00 1.000000e+00 1.000000e+00 1.000000e+00 1.000000e+00 1 1 1 1 1 1 
1 1 1 1 1 1 1 1.000000e+00 1.000000e+00 1.000000e+00 1.000000e+00 1.000000e+00 9.999998e-01 9.999960e-01 9.999446e-01 9.993694e-01 9.942344e-01 9.597515e-01 7.987315e-01 5.828478e-01 6.820166e-01 9.257117e-01 9.887347e-01 9.987007e-01 9.998810e-01 9.999910e-01 9.999994e-01 1.000000e+00 1.000000e+00 1.000000e+00 1.000000e+00 1.000000e+00 1.000000e+00 1.000000e+00 1.000000e+00 1.000000e+00 1.000000e+00 1.000000e+00 9.999994e-01 9.999910e-01 9.998804e-01 9.986940e-01 9.886766e-01 9.253520e-01 6.806679e-01 5.811363e-01 7.981377e-01 9.597073e-01 9.942332e-01 9.993696e-01 9.999446e-01 9.999960e-01 9.999998e-01 1.000000e+00 1.000000e+00 1.000000e+00 1.000000e+00 1.000000e+00 1 1 1 1 1 1 
1 1 1 1 1 1 1 1.000000e+00 1.000000e+00 1.000000e+00 1.000000e+00 1.000000e+00 9.999998e-01 9.999962e-01 9.999478e-01 9.994047e-01 9.945265e-01 9.616153e-01 8.058731e-01 5.848687e-01 6.736611e-01 9.209908e-01 9.877869e-01 9.985732e-01 9.998676e-01 9.999899e-01 9.999994e-01 1.000000e+00 1.000000e+00 1.000000e+00 1.000000e+00 1.000000e+00 1.000000e+00 1.000000e+00 1.000000e+00 1.000000e+00 1.000000e+00 1.000000e+00 9.999994e-01 9.999900e-01 9.998681e-01 9.985788e-01 9.878321e-01 9.212417e-01 6.743368e-01 5.856169e-01 8.061306e-01 9.616436e-01 9.945284e-01 9.994047e-01 9.999478e-01 9.999962e-01 9.999998e-01 1.000000e+00 1.000000e+00 1.000000e+00 1.000000e+00 1.000000e+00 1 1 1 1 1 1 
1 1 1 1 1 1 1 1.000000e+00 1.000000e+00 1.000000e+00 1.000000e+00 1.000000e+00 9.999998e-01 9.999966e-01 9.999530e-01 9.994609e-01 9.949987e-01 9.646527e-01 8.180738e-01 5.907403e-01 6.620652e-01 9.132527e-01 9.861920e-01 9.983562e-01 9.998444e-01 9.999880e-01 9.999992e-01 1.000000e+00 1.000000e+00 1.000000e+00 1.000000e+00 1.000000e+00 1.000000e+00 1.000000e+00 1.000000e+00 1.000000e+00 1.000000e+00 1.000000e+00 9.999992e-01 9.999880e-01 9.998440e-01 9.983525e-01 9.861672e-01 9.131666e-01 6.621655e-01 5.910068e-01 8.181263e-01 9.646333e-01 9.949951e-01 9.994606e-01 9.999530e-01 9.999966e-01 9.999998e-01 1.000000e+00 1.000000e+00 1.000000e+00 1.000000e+00 1.000000e+00 1 1 1 1 1 1 
1 1 1 1 1 1 1 1.000000e+00 1.000000e+00 1.000000e+00 1.000000e+00 1.000000e+00 9.999998e-01 9.999971e-01 9.999595e-01 9.995320e-01 9.956020e-01 9.685341e-01 8.343121e-01 6.002008e-01 6.473805e-01 9.012765e-01 9.836642e-01 9.980108e-01 9.998074e-01 9.999849e-01 9.999990e-01 9.999999e-01 1.000000e+00 1.000000e+00 1.000000e+00 1.000000e+00 1.000000e+00 1.000000e+00 1.000000e+00 1.000000e+00 1.000000e+00 9.999999e-01 9.999990e-01 9.999849e-01 9.998075e-01 9.980110e-01 9.836536e-01 9.011104e-01 6.464166e-01 5.991358e-01 8.340409e-01 9.685407e-01 9.956056e-01 9.995324e-01 9.999596e-01 9.999971e-01 9.999998e-01 1.000000e+00 1.000000e+00 1.000000e+00 1.000000e+00 1.000000e+00 1 1 1 1 1 1 
1 1 1 1 1 1 1 1.000000e+00 1.000000e+00 1.000000e+00 1.000000e+00 1.000000e+00 9.999999e-01 9.999977e-01 9.999672e-01 9.996152e-01 9.963179e-01 9.731065e-01 8.535353e-01 6.122280e-01 6.297076e-01 8.838657e-01 9.799395e-01 9.975024e-01 9.997528e-01 9.999804e-01 9.999987e-01 9.999999e-01 1.000000e+00 1.000000e+00 1.000000e+00 1.000000e+00 1.000000e+00 1.000000e+00 1.000000e+00 1.000000e+00 1.000000e+00 9.999999e-01 9.999987e-01 9.999804e-01 9.997532e-01 9.975088e-01 9.800050e-01 8.843135e-01 6.311447e-01 6.135754e-01 8.539192e-01 9.731290e-01 9.963182e-01 9.996150e-01 9.999672e-01 9.999977e-01 9.999999e-01 1.000000e+00 1.000000e+00 1.000000e+00 1.000000e+00 1.000000e+00 1 1 1 1 1 1 
1 1 1 1 1 1 1 1.000000e+00 1.000000e+00 1.000000e+00 1.000000e+00 1.000000e+00 9.999999e-01 9.999983e-01 9.999751e-01 9.997028e-01 9.970908e-01 9.781241e-01 8.761786e-01 6.325500e-01 6.142009e-01 8.607694e-01 9.748610e-01 9.968009e-01 9.996766e-01 9.999740e-01 9.999982e-01 9.999999e-01 1.000000e+00 1.000000e+00 1.000000e+00 1.000000e+00 1.000000e+00 1.000000e+00 1.000000e+00 1.000000e+00 1.000000e+00 9.999999e-01 9.999982e-01 9.999739e-01 9.996752e-01 9.967855e-01 9.747402e-01 8.602212e-01 6.130830e-01 6.315743e-01 8.758158e-01 9.780738e-01 9.970858e-01 9.997024e-01 9.999751e-01 9.999983e-01 9.999999e-01 1.000000e+00 1.000000e+00 1.000000e+00 1.000000e+00 1.000000e+00 1 1 1 1 1 1 
1 1 1 1 1 1 1 1.000000e+00 1.000000e+00 1.000000e+00 1.000000e+00 1.000000e+00 9.999999e-01 9.999988e-01 9.999828e-01 9.997881e-01 9.978585e-01 9.831740e-01 9.000055e-01 6.589182e-01 5.979965e-01 8.280509e-01 9.676295e-01 9.957812e-01 9.995650e-01 9.999644e-01 9.999976e-01 9.999999e-01 1.000000e+00 1.000000e+00 1.000000e+00 1.000000e+00 1.000000e+00 1.000000e+00 1.000000e+00 1.000000e+00 1.000000e+00 9.999999e-01 9.999976e-01 9.999646e-01 9.995672e-01 9.958018e-01 9.677579e-01 8.283232e-01 5.981329e-01 6.591511e-01 9.002191e-01 9.832232e-01 9.978646e-01 9.997886e-01 9.999828e-01 9.999988e-01 9.999999e-01 1.000000e+00 1.000000e+00 1.000000e+00 1.000000e+00 1.000000e+00 1 1 1 1 1 1 
1 1 1 1 1 1 1 1.000000e+00 1.000000e+00 1.000000e+00 1.000000e+00 1.000000e+00 1.000000e+00 9.999993e-01 9.999893e-01 9.998624e-01 9.985535e-01 9.879589e-01 9.243736e-01 6.960676e-01 5.862237e-01 7.847280e-01 9.580970e-01 9.943356e-01 9.994000e-01 9.999493e-01 9.999964e-01 9.999998e-01 1.000000e+00 1.000000e+00 1.000000e+00 1.000000e+00 1.000000e+00 1.000000e+00 1.000000e+00 1.000000e+00 1.000000e+00 9.999998e-01 9.999964e-01 9.999491e-01 9.993979e-01 9.943223e-01 9.580589e-01 7.849506e-01 5.868763e-01 6.964344e-01 9.243543e-01 9.879417e-01 9.985509e-01 9.998622e-01 9.999892e-01 9.999993e-01 1.000000e+00 1.000000e+00 1.000000e+00 1.000000e+00 1.000000e+00 1.000000e+00 1 1 1 1 1 1 
1 1 1 1 1 1 1 1.000000e+00 1.000000e+00 1.000000e+00 1.000000e+00 1.000000e+00 1.000000e+00 9.999996e-01 9.999937e-01 9.999155e-01 9.990707e-01 9.917504e-01 9.454231e-01 7.438764e-01 5.839961e-01 7.330902e-01 9.440673e-01 9.918114e-01 9.990860e-01 9.999181e-01 9.999940e-01 9.999996e-01 1.000000e+00 1.000000e+00 1.000000e+00 1.000000e+00 1.000000e+00 1.000000e+00 1.000000e+00 1.000000e+00 1.000000e+00 9.999996e-01 9.999940e-01 9.999180e-01 9.990842e-01 9.917932e-01 9.439551e-01 7.327082e-01 5.834161e-01 7.433364e-01 9.453114e-01 9.917430e-01 9.990709e-01 9.999156e-01 9.999937e-01 9.999996e-01 1.000000e+00 1.000000e+00 1.000000e+00 1.000000e+00 1.000000e+00 1.000000e+00 1 1 1 1 1 1 
1 1 1 1 1 1 1 1 1.000000e+00 1.000000e+00 1.000000e+00 1.000000e+00 1.000000e+00 9.999998e-01 9.999963e-01 9.999482e-01 9.994052e-01 9.943989e-01 9.610193e-01 7.958056e-01 5.943580e-01 6.816040e-01 9.201730e-01 9.869238e-01 9.984454e-01 9.998509e-01 9.999885e-01 9.999992e-01 1.000000e+00 1.000000e+00 1.000000e+00 1.000000e+00 1.000000e+00 1.000000e+00 1.000000e+00 1.000000e+00 1.000000e+00 9.999992e-01 9.999885e-01 9.998515e-01 9.984515e-01 9.869659e-01 9.203521e-01 6.816968e-01 5.944573e-01 7.960891e-01 9.611401e-01 9.944174e-01 9.994072e-01 9.999484e-01 9.999963e-01 9.999998e-01 1.000000e+00 1.000000e+00 1.000000e+00 1.000000e+00 1.000000e+00 1 1 1 1 1 1 1 
1 1 1 1 1 1 1 1 1.000000e+00 1.000000e+00 1.000000e+00 1.000000e+00 1.000000e+00 9.999999e-01 9.999979e-01 9.999692e-01 9.996320e-01 9.963613e-01 9.732206e-01 8.481438e-01 6.216451e-01 6.388719e-01 8.787669e-01 9.781397e-01 9.972604e-01 9.997223e-01 9.999777e-01 9.999985e-01 9.999999e-01 1.000000e+00 1.000000e+00 1.000000e+00 1.000000e+00 1.000000e+00 1.000000e+00 1.000000e+00 9.999999e-01 9.999985e-01 9.999776e-01 9.997222e-01 9.972609e-01 9.781515e-01 8.788135e-01 6.390625e-01 6.217963e-01 8.481957e-01 9.731905e-01 9.963553e-01 9.996313e-01 9.999691e-01 9.999979e-01 9.999999e-01 1.000000e+00 1.000000e+00 1.000000e+00 1.000000e+00 1.000000e+00 1 1 1 1 1 1 1 
1 1 1 1 1 1 1 1 1.000000e+00 1.000000e+00 1.000000e+00 1.000000e+00 1.000000e+00 9.999999e-01 9.999989e-01 9.999834e-01 9.997930e-01 9.978582e-01 9.831090e-01 8.974160e-01 6.679665e-01 6.082028e-01 8.171430e-01 9.643063e-01 9.952163e-01 9.994859e-01 9.999563e-01 9.999969e-01 9.999998e-01 1.000000e+00 1.000000e+00 1.000000e+00 1.000000e+00 1.000000e+00 1.000000e+00 1.000000e+00 9.999998e-01 9.999969e-01 9.999562e-01 9.994845e-01 9.952064e-01 9.642533e-01 8.170364e-01 6.081381e-01 6.677651e-01 8.972191e-01 9.830731e-01 9.978548e-01 9.997928e-01 9.999834e-01 9.999989e-01 9.999999e-01 1.000000e+00 1.000000e+00 1.000000e+00 1.000000e+00 1.000000e+00 1 1 1 1 1 1 1 
1 1 1 1 1 1 1 1 1.000000e+00 1.000000e+00 1.000000e+00 1.000000e+00 1.000000e+00 1.000000e+00 9.999995e-01 9.999922e-01 9.998977e-01 9.988847e-01 9.903992e-01 9.375356e-01 7.328810e-01 5.958736e-01 7.421147e-01 9.420794e-01 9.912021e-01 9.989734e-01 9.999050e-01 9.999927e-01 9.999995e-01 1.000000e+00 1.000000e+00 1.000000e+00 1.000000e+00 1.000000e+00 1.000000e+00 1.000000e+00 9.999995e-01 9.999927e-01 9.999049e-01 9.989723e-01 9.911975e-01 9.420559e-01 7.421248e-01 5.958655e-01 7.329145e-01 9.376069e-01 9.904219e-01 9.988883e-01 9.998982e-01 9.999923e-01 9.999995e-01 1.000000e+00 1.000000e+00 1.000000e+00 1.000000e+00 1.000000e+00 1.000000e+00 1 1 1 1 1 1 1 