# vtk DataFile Version 2.0
Comment goes here
ASCII

DATASET STRUCTURED_POINTS
FIELD FieldData 1
TIME 1 1 double
0.84000000
DIMENSIONS    64   64   1

ORIGIN    0.000   0.000   0.000
SPACING   0.015625 0.015625   1.000

POINT_DATA   4096
SCALARS Concentration double
LOOKUP_TABLE default

9.943184e-01 9.941924e-01 9.937944e-01 9.931198e-01 9.921596e-01 9.909000e-01 9.893220e-01 9.874001e-01 9.851009e-01 9.823806e-01 9.791837e-01 9.754391e-01 9.710605e-01 9.659455e-01 9.599802e-01 9.530466e-01 9.450341e-01 9.358576e-01 9.254709e-01 9.138902e-01 9.011962e-01 8.875544e-01 8.731954e-01 8.584312e-01 8.436232e-01 8.291845e-01 8.155283e-01 8.030704e-01 7.921976e-01 7.832673e-01 7.765908e-01 7.724278e-01 7.709779e-01 7.723707e-01 7.764882e-01 7.831278e-01 7.920264e-01 8.028719e-01 8.153065e-01 8.289424e-01 8.433664e-01 8.581632e-01 8.729231e-01 8.872791e-01 9.009218e-01 9.136174e-01 9.252025e-01 9.355947e-01 9.447787e-01 9.528000e-01 9.597441e-01 9.657213e-01 9.708496e-01 9.752428e-01 9.790031e-01 9.822168e-01 9.849544e-01 9.872716e-01 9.892118e-01 9.908081e-01 9.920860e-01 9.930645e-01 9.937574e-01 9.941737e-01 
9.940871e-01 9.939572e-01 9.935469e-01 9.928516e-01 9.918625e-01 9.905660e-01 9.889433e-01 9.869690e-01 9.846100e-01 9.818227e-01 9.785515e-01 9.747250e-01 9.702561e-01 9.650412e-01 9.589644e-01 9.519048e-01 9.437482e-01 9.344045e-01 9.238219e-01 9.120096e-01 8.990413e-01 8.850742e-01 8.703314e-01 8.551158e-01 8.397902e-01 8.247819e-01 8.105231e-01 7.974557e-01 7.860010e-01 7.765538e-01 7.694665e-01 7.650338e-01 7.634839e-01 7.649603e-01 7.693333e-01 7.763731e-01 7.857811e-01 7.972051e-01 8.102486e-01 8.244894e-01 8.394874e-01 8.548075e-01 8.700261e-01 8.847716e-01 8.987441e-01 9.117178e-01 9.235373e-01 9.341275e-01 9.434801e-01 9.516467e-01 9.587176e-01 9.648070e-01 9.700359e-01 9.745200e-01 9.783629e-01 9.816516e-01 9.844569e-01 9.868347e-01 9.888280e-01 9.904699e-01 9.917856e-01 9.927938e-01 9.935082e-01 9.939377e-01 
9.933887e-01 9.932473e-01 9.928002e-01 9.920430e-01 9.909675e-01 9.895605e-01 9.878040e-01 9.856732e-01 9.831358e-01 9.801484e-01 9.766554e-01 9.725845e-01 9.678466e-01 9.623344e-01 9.559261e-01 9.484928e-01 9.399088e-01 9.300703e-01 9.189076e-01 9.064113e-01 8.926320e-01 8.777066e-01 8.618361e-01 8.453107e-01 8.284977e-01 8.118623e-01 7.958899e-01 7.810958e-01 7.679987e-01 7.570975e-01 7.488583e-01 7.436715e-01 7.418423e-01 7.435515e-01 7.486377e-01 7.567985e-01 7.676381e-01 7.806940e-01 7.954616e-01 8.114225e-01 8.280599e-01 8.448837e-01 8.614317e-01 8.773213e-01 8.922665e-01 9.060622e-01 9.185744e-01 9.297509e-01 9.396030e-01 9.482003e-01 9.556475e-01 9.620705e-01 9.675985e-01 9.723535e-01 9.764426e-01 9.799552e-01 9.829628e-01 9.855213e-01 9.876735e-01 9.894517e-01 9.908803e-01 9.919775e-01 9.927563e-01 9.932252e-01 
9.922061e-01 9.920457e-01 9.915371e-01 9.906766e-01 9.894566e-01 9.878648e-01 9.858846e-01 9.834919e-01 9.806557e-01 9.773332e-01 9.734686e-01 9.689883e-01 9.637998e-01 9.577898e-01 9.508268e-01 9.427687e-01 9.334713e-01 9.228087e-01 9.106831e-01 8.970551e-01 8.819413e-01 8.654483e-01 8.477495e-01 8.291234e-01 8.099586e-01 7.907810e-01 7.721632e-01 7.547348e-01 7.391591e-01 7.260837e-01 7.161338e-01 7.098315e-01 7.075876e-01 7.096387e-01 7.157767e-01 7.255994e-01 7.385766e-01 7.540924e-01 7.714878e-01 7.901019e-01 8.092995e-01 8.284999e-01 8.471787e-01 8.649234e-01 8.814598e-01 8.966087e-01 9.102674e-01 9.224173e-01 9.331014e-01 9.424175e-01 9.504938e-01 9.574750e-01 9.635040e-01 9.687128e-01 9.732146e-01 9.771022e-01 9.804487e-01 9.833099e-01 9.857281e-01 9.877343e-01 9.893519e-01 9.905979e-01 9.914844e-01 9.920191e-01 
9.905105e-01 9.903233e-01 9.897283e-01 9.887223e-01 9.872990e-01 9.854471e-01 9.831513e-01 9.803893e-01 9.771313e-01 9.733353e-01 9.689457e-01 9.638869e-01 9.580619e-01 9.513493e-01 9.436051e-01 9.346692e-01 9.243730e-01 9.125618e-01 8.991017e-01 8.839165e-01 8.669809e-01 8.483698e-01 8.282270e-01 8.068320e-01 7.846000e-01 7.621450e-01 7.401508e-01 7.193897e-01 7.007053e-01 6.849227e-01 6.728582e-01 6.651818e-01 6.624262e-01 6.648898e-01 6.723135e-01 6.841823e-01 6.998138e-01 7.184108e-01 7.391272e-01 7.611271e-01 7.836272e-01 8.059297e-01 8.274201e-01 8.476468e-01 8.663354e-01 8.833326e-01 8.985694e-01 9.120687e-01 9.239121e-01 9.342346e-01 9.431944e-01 9.509616e-01 9.576975e-01 9.635472e-01 9.686323e-01 9.730499e-01 9.768752e-01 9.801639e-01 9.829574e-01 9.852852e-01 9.871691e-01 9.886247e-01 9.896628e-01 9.902903e-01 
9.882621e-01 9.880404e-01 9.873338e-01 9.861397e-01 9.844530e-01 9.822637e-01 9.795585e-01 9.763162e-01 9.725091e-01 9.680960e-01 9.630212e-01 9.572067e-01 9.505500e-01 9.429196e-01 9.341554e-01 9.240752e-01 9.124806e-01 8.991821e-01 8.840034e-01 8.668280e-01 8.475864e-01 8.263247e-01 8.031654e-01 7.784031e-01 7.525144e-01 7.262307e-01 7.003799e-01 6.758978e-01 6.538198e-01 6.351346e-01 6.208324e-01 6.117112e-01 6.084108e-01 6.112982e-01 6.200580e-01 6.340794e-01 6.525453e-01 6.744965e-01 6.989107e-01 7.247722e-01 7.511303e-01 7.771327e-01 8.020460e-01 8.253397e-01 8.467245e-01 8.660632e-01 8.833178e-01 8.985548e-01 9.118994e-01 9.235300e-01 9.336413e-01 9.424346e-01 9.500939e-01 9.567811e-01 9.626280e-01 9.677375e-01 9.721872e-01 9.760326e-01 9.793143e-01 9.820598e-01 9.842894e-01 9.860167e-01 9.872513e-01 9.879989e-01 
9.854128e-01 9.851489e-01 9.843052e-01 9.828798e-01 9.808689e-01 9.782638e-01 9.750528e-01 9.712165e-01 9.667290e-01 9.615497e-01 9.556231e-01 9.488676e-01 9.411744e-01 9.323994e-01 9.223631e-01 9.108571e-01 8.976479e-01 8.825069e-01 8.652127e-01 8.456096e-01 8.235886e-01 7.991827e-01 7.725073e-01 7.439085e-01 7.139270e-01 6.834543e-01 6.534613e-01 6.250399e-01 5.994266e-01 5.777619e-01 5.612035e-01 5.506384e-01 5.467900e-01 5.500793e-01 5.601473e-01 5.763160e-01 5.976712e-01 6.231050e-01 6.514215e-01 6.814284e-01 7.120143e-01 7.421669e-01 7.709919e-01 7.978678e-01 8.224564e-01 8.446195e-01 8.643364e-01 8.817125e-01 8.969162e-01 9.101726e-01 9.217183e-01 9.317906e-01 9.406014e-01 9.483322e-01 9.551277e-01 9.610977e-01 9.663227e-01 9.708585e-01 9.747445e-01 9.780062e-01 9.806624e-01 9.827246e-01 9.842012e-01 9.850966e-01 
9.819073e-01 9.815936e-01 9.805874e-01 9.788874e-01 9.764910e-01 9.733903e-01 9.695756e-01 9.650284e-01 9.597246e-01 9.536238e-01 9.466698e-01 9.387767e-01 9.298269e-01 9.196608e-01 9.080746e-01 8.948277e-01 8.796450e-01 8.622544e-01 8.423861e-01 8.198500e-01 7.945075e-01 7.663997e-01 7.356637e-01 7.027305e-01 6.682725e-01 6.333791e-01 5.992056e-01 5.670008e-01 5.381658e-01 5.138904e-01 4.954058e-01 4.836153e-01 4.792828e-01 4.828953e-01 4.940372e-01 5.120117e-01 5.358759e-01 5.644607e-01 5.964871e-01 6.306566e-01 6.657053e-01 7.004021e-01 7.336566e-01 7.646775e-01 7.930430e-01 8.185843e-01 8.412767e-01 8.612557e-01 8.787287e-01 8.939718e-01 9.072681e-01 9.188985e-01 9.291085e-01 9.381044e-01 9.460470e-01 9.530550e-01 9.592131e-01 9.645776e-01 9.691873e-01 9.730661e-01 9.762311e-01 9.786921e-01 9.804567e-01 9.815278e-01 
9.776852e-01 9.773143e-01 9.761206e-01 9.741030e-01 9.712603e-01 9.675846e-01 9.630678e-01 9.576915e-01 9.514332e-01 9.442514e-01 9.360884e-01 9.268516e-01 9.164120e-01 9.045887e-01 8.911480e-01 8.758082e-01 8.582458e-01 8.381389e-01 8.151730e-01 7.891346e-01 7.598818e-01 7.275101e-01 6.922270e-01 6.546381e-01 6.155383e-01 5.762893e-01 5.381259e-01 5.023399e-01 4.705185e-01 4.439020e-01 4.237951e-01 4.110147e-01 4.062899e-01 4.101285e-01 4.220896e-01 4.415437e-01 4.676209e-01 4.990994e-01 5.345932e-01 5.727235e-01 6.121899e-01 6.516142e-01 6.896439e-01 7.253122e-01 7.580307e-01 7.875467e-01 8.137896e-01 8.368983e-01 8.571091e-01 8.747464e-01 8.901463e-01 9.036405e-01 9.155166e-01 9.260126e-01 9.353103e-01 9.435402e-01 9.507935e-01 9.571278e-01 9.625824e-01 9.671796e-01 9.709359e-01 9.738595e-01 9.759576e-01 9.772323e-01 
9.726820e-01 9.722469e-01 9.708416e-01 9.684648e-01 9.651160e-01 9.607869e-01 9.554703e-01 9.491468e-01 9.417943e-01 9.333685e-01 9.238085e-01 9.130113e-01 9.008314e-01 8.870593e-01 8.714207e-01 8.535820e-01 8.331598e-01 8.097788e-01 7.830820e-01 7.528550e-01 7.189855e-01 6.816803e-01 6.412764e-01 5.986139e-01 5.547229e-01 5.112413e-01 4.695574e-01 4.310182e-01 3.972649e-01 3.693065e-01 3.483345e-01 3.350100e-01 3.300280e-01 3.339763e-01 3.463259e-01 3.665311e-01 3.938543e-01 4.271445e-01 4.651638e-01 5.067306e-01 5.505134e-01 5.948190e-01 6.380527e-01 6.789505e-01 7.166955e-01 7.508969e-01 7.813790e-01 8.082536e-01 8.317619e-01 8.522753e-01 8.701858e-01 8.858885e-01 8.997239e-01 9.119721e-01 9.228437e-01 9.324862e-01 9.410006e-01 9.484476e-01 9.548688e-01 9.602855e-01 9.647148e-01 9.681639e-01 9.706405e-01 9.721458e-01 
9.668313e-01 9.663252e-01 9.646851e-01 9.619088e-01 9.579966e-01 9.529385e-01 9.467275e-01 9.393416e-01 9.307581e-01 9.209272e-01 9.097819e-01 8.972034e-01 8.830228e-01 8.669900e-01 8.487779e-01 8.279840e-01 8.041575e-01 7.768641e-01 7.457273e-01 7.105633e-01 6.713673e-01 6.285403e-01 5.826670e-01 5.349811e-01 4.867208e-01 4.399960e-01 3.958223e-01 3.550845e-01 3.197135e-01 2.907930e-01 2.695646e-01 2.562694e-01 2.512948e-01 2.551628e-01 2.673659e-01 2.877117e-01 3.158528e-01 3.505880e-01 3.905079e-01 4.345265e-01 4.817224e-01 5.304859e-01 5.788544e-01 6.252988e-01 6.686340e-01 7.082104e-01 7.436684e-01 7.750129e-01 8.024549e-01 8.263893e-01 8.472673e-01 8.655557e-01 8.816637e-01 8.959268e-01 9.085958e-01 9.198423e-01 9.297823e-01 9.384828e-01 9.459895e-01 9.523243e-01 9.575060e-01 9.615415e-01 9.644399e-01 9.662020e-01 
9.600649e-01 9.594812e-01 9.575846e-01 9.543709e-01 9.498406e-01 9.439816e-01 9.367862e-01 9.282280e-01 9.182820e-01 9.068896e-01 8.939739e-01 8.793924e-01 8.629429e-01 8.443203e-01 8.231276e-01 7.988791e-01 7.710477e-01 7.391518e-01 7.028262e-01 6.619817e-01 6.167906e-01 5.679415e-01 5.162993e-01 4.635171e-01 4.110517e-01 3.612944e-01 3.154287e-01 2.743467e-01 2.396316e-01 2.115557e-01 1.911634e-01 1.783660e-01 1.734919e-01 1.772485e-01 1.889279e-01 2.084668e-01 2.357436e-01 2.695953e-01 3.093518e-01 3.550380e-01 4.055712e-01 4.585567e-01 5.120406e-01 5.642691e-01 6.136320e-01 6.592163e-01 7.003705e-01 7.369262e-01 7.689894e-01 7.969468e-01 8.212937e-01 8.425773e-01 8.612893e-01 8.778381e-01 8.925288e-01 9.055678e-01 9.170937e-01 9.271832e-01 9.358898e-01 9.432370e-01 9.492471e-01 9.539275e-01 9.572892e-01 9.593333e-01 
9.523141e-01 9.516460e-01 9.494711e-01 9.457836e-01 9.405839e-01 9.338565e-01 9.255933e-01 9.157617e-01 9.043332e-01 8.912361e-01 8.763784e-01 8.595842e-01 8.406057e-01 8.190637e-01 7.944753e-01 7.662549e-01 7.338040e-01 6.966100e-01 6.543825e-01 6.071782e-01 5.554715e-01 5.002297e-01 4.427801e-01 3.852339e-01 3.293428e-01 2.789068e-01 2.335853e-01 1.923966e-01 1.573338e-01 1.297659e-01 1.111982e-01 1.004035e-01 9.643323e-02 9.946279e-02 1.093369e-01 1.270253e-01 1.533896e-01 1.872457e-01 2.270207e-01 2.725688e-01 3.240744e-01 3.802551e-01 4.383488e-01 4.962809e-01 5.519487e-01 6.039955e-01 6.514872e-01 6.939531e-01 7.313277e-01 7.639252e-01 7.922608e-01 8.169590e-01 8.386081e-01 8.577067e-01 8.746328e-01 8.896402e-01 9.028999e-01 9.145037e-01 9.245163e-01 9.329644e-01 9.398751e-01 9.452560e-01 9.491212e-01 9.514715e-01 
9.435120e-01 9.427522e-01 9.402768e-01 9.360787e-01 9.301598e-01 9.225018e-01 9.130957e-01 9.019012e-01 8.888852e-01 8.739583e-01 8.570075e-01 8.378112e-01 8.160608e-01 7.912852e-01 7.628984e-01 7.302119e-01 6.925699e-01 6.494756e-01 6.007809e-01 5.467684e-01 4.882562e-01 4.265058e-01 3.631264e-01 3.011774e-01 2.413901e-01 1.865505e-01 1.390500e-01 1.019165e-01 7.509283e-02 5.711761e-02 4.685229e-02 4.177900e-02 4.017743e-02 4.131899e-02 4.596605e-02 5.562329e-02 7.234833e-02 9.774892e-02 1.333455e-01 1.809481e-01 2.366292e-01 2.962003e-01 3.584581e-01 4.222522e-01 4.842922e-01 5.430785e-01 5.973512e-01 6.462988e-01 6.895961e-01 7.274140e-01 7.602406e-01 7.887624e-01 8.136682e-01 8.355637e-01 8.549186e-01 8.720500e-01 8.871735e-01 9.004020e-01 9.118162e-01 9.214464e-01 9.293256e-01 9.354610e-01 9.398692e-01 9.425499e-01 
9.335937e-01 9.327336e-01 9.299327e-01 9.251843e-01 9.184943e-01 9.098435e-01 8.992253e-01 8.865933e-01 8.719070e-01 8.550536e-01 8.358929e-01 8.141431e-01 7.894191e-01 7.611371e-01 7.285975e-01 6.910076e-01 6.476762e-01 5.981556e-01 5.424717e-01 4.811172e-01 4.152539e-01 3.459842e-01 2.756971e-01 2.073081e-01 1.437911e-01 9.331714e-02 5.904231e-02 4.186053e-02 3.642194e-02 3.778343e-02 4.085884e-02 4.352546e-02 4.496721e-02 4.379186e-02 4.138049e-02 3.837981e-02 3.645468e-02 4.062813e-02 5.626010e-02 8.922021e-02 1.386236e-01 2.014947e-01 2.703763e-01 3.410313e-01 4.105407e-01 4.766808e-01 5.383146e-01 5.943123e-01 6.440826e-01 6.876426e-01 7.254124e-01 7.581255e-01 7.865702e-01 8.114724e-01 8.334143e-01 8.527931e-01 8.698841e-01 8.848281e-01 8.977261e-01 9.086128e-01 9.175265e-01 9.244716e-01 9.294652e-01 9.325029e-01 
9.225044e-01 9.215339e-01 9.183788e-01 9.130350e-01 9.055175e-01 8.958099e-01 8.839137e-01 8.697788e-01 8.533614e-01 8.345215e-01 8.130757e-01 7.886664e-01 7.608131e-01 7.288017e-01 6.918064e-01 6.489407e-01 5.994899e-01 5.430703e-01 4.798617e-01 4.104809e-01 3.364540e-01 2.586268e-01 1.809810e-01 1.122441e-01 6.302249e-02 4.134205e-02 4.184662e-02 5.344575e-02 6.649610e-02 7.747463e-02 8.406687e-02 8.755893e-02 8.903993e-02 8.803787e-02 8.507879e-02 7.892229e-02 6.826934e-02 5.511155e-02 4.276179e-02 4.045742e-02 5.941188e-02 1.064279e-01 1.744361e-01 2.522196e-01 3.303104e-01 4.048259e-01 4.746741e-01 5.383477e-01 5.951290e-01 6.448967e-01 6.880078e-01 7.252312e-01 7.574496e-01 7.855223e-01 8.101643e-01 8.318731e-01 8.510004e-01 8.677256e-01 8.821770e-01 8.943911e-01 9.044078e-01 9.122225e-01 9.178488e-01 9.212739e-01 
9.101994e-01 9.091059e-01 9.055606e-01 8.995665e-01 8.911542e-01 8.803177e-01 8.670754e-01 8.513792e-01 8.331875e-01 8.123301e-01 7.885780e-01 7.614674e-01 7.303984e-01 6.945052e-01 6.528283e-01 6.043835e-01 5.484163e-01 4.845803e-01 4.130008e-01 3.345100e-01 2.510851e-01 1.661504e-01 9.251223e-02 4.870716e-02 4.374366e-02 6.337259e-02 8.778929e-02 1.064907e-01 1.181091e-01 1.253275e-01 1.289137e-01 1.308470e-01 1.316863e-01 1.313455e-01 1.299297e-01 1.266140e-01 1.197776e-01 1.087106e-01 9.033344e-02 6.546861e-02 4.436094e-02 4.639277e-02 8.662680e-02 1.583840e-01 2.429033e-01 3.272019e-01 4.063966e-01 4.787001e-01 5.430715e-01 5.995014e-01 6.482951e-01 6.902828e-01 7.264484e-01 7.577938e-01 7.851926e-01 8.092623e-01 8.304609e-01 8.490170e-01 8.650863e-01 8.787012e-01 8.898971e-01 8.986513e-01 9.049669e-01 9.088159e-01 
8.966636e-01 8.954307e-01 8.914504e-01 8.847379e-01 8.753501e-01 8.633007e-01 8.486387e-01 8.313269e-01 8.113343e-01 7.884563e-01 7.624106e-01 7.326135e-01 6.983003e-01 6.584168e-01 6.118443e-01 5.574963e-01 4.945278e-01 4.226130e-01 3.417530e-01 2.530468e-01 1.620539e-01 8.435087e-02 4.499607e-02 5.327644e-02 8.580455e-02 1.179386e-01 1.423160e-01 1.592611e-01 1.695659e-01 1.752681e-01 1.772395e-01 1.778929e-01 1.781426e-01 1.783300e-01 1.781201e-01 1.764289e-01 1.711509e-01 1.611972e-01 1.442788e-01 1.198807e-01 8.846112e-02 5.570443e-02 4.361484e-02 7.798378e-02 1.529695e-01 2.441689e-01 3.336051e-01 4.153697e-01 4.880369e-01 5.516471e-01 6.064779e-01 6.534677e-01 6.937071e-01 7.283709e-01 7.585187e-01 7.849404e-01 8.082197e-01 8.286390e-01 8.463862e-01 8.614802e-01 8.739429e-01 8.837198e-01 8.907935e-01 8.951112e-01 
8.819068e-01 8.805128e-01 8.760389e-01 8.685206e-01 8.580534e-01 8.446859e-01 8.285149e-01 8.095274e-01 7.877141e-01 7.628335e-01 7.345396e-01 7.021002e-01 6.645757e-01 6.206688e-01 5.690637e-01 5.085323e-01 4.381684e-01 3.576592e-01 2.671995e-01 1.700935e-01 8.526183e-02 4.558969e-02 6.042522e-02 1.008291e-01 1.414796e-01 1.746522e-01 1.988867e-01 2.142981e-01 2.224563e-01 2.259258e-01 2.263103e-01 2.259485e-01 2.257764e-01 2.263069e-01 2.270099e-01 2.268183e-01 2.235951e-01 2.156502e-01 2.003974e-01 1.764458e-01 1.443657e-01 1.048158e-01 6.358269e-02 4.460200e-02 7.850580e-02 1.602892e-01 2.573270e-01 3.488339e-01 4.303528e-01 5.015595e-01 5.627428e-01 6.148983e-01 6.592798e-01 6.972423e-01 7.301066e-01 7.588450e-01 7.841961e-01 8.065062e-01 8.259977e-01 8.426649e-01 8.565024e-01 8.674062e-01 8.753243e-01 8.801669e-01 
8.659968e-01 8.644138e-01 8.593733e-01 8.509403e-01 8.392657e-01 8.244510e-01 8.066644e-01 7.859325e-01 7.622832e-01 7.354316e-01 7.049596e-01 6.699459e-01 6.292463e-01 5.812903e-01 5.244965e-01 4.574628e-01 3.791286e-01 2.897118e-01 1.904821e-01 9.737078e-02 4.812873e-02 6.102108e-02 1.067224e-01 1.547455e-01 1.967660e-01 2.297676e-01 2.532568e-01 2.680116e-01 2.755335e-01 2.783438e-01 2.782479e-01 2.775418e-01 2.772008e-01 2.778209e-01 2.787851e-01 2.790290e-01 2.764017e-01 2.690566e-01 2.545571e-01 2.315499e-01 1.996340e-01 1.587279e-01 1.112732e-01 6.476640e-02 4.649666e-02 8.895712e-02 1.791086e-01 2.793093e-01 3.699909e-01 4.493443e-01 5.171768e-01 5.746663e-01 6.232106e-01 6.644424e-01 6.999630e-01 7.309566e-01 7.583564e-01 7.825803e-01 8.038915e-01 8.222428e-01 8.375856e-01 8.497433e-01 8.586115e-01 8.640470e-01 
8.490445e-01 8.472367e-01 8.415370e-01 8.320518e-01 8.190070e-01 8.025801e-01 7.830374e-01 7.604673e-01 7.349513e-01 7.061574e-01 6.735809e-01 6.360763e-01 5.922619e-01 5.402725e-01 4.782975e-01 4.048359e-01 3.190473e-01 2.204294e-01 1.191675e-01 5.447410e-02 5.612972e-02 1.030243e-01 1.573653e-01 2.069387e-01 2.492623e-01 2.825676e-01 3.062447e-01 3.210478e-01 3.285716e-01 3.312690e-01 3.311408e-01 3.303757e-01 3.299840e-01 3.305740e-01 3.315171e-01 3.317509e-01 3.291939e-01 3.218665e-01 3.074383e-01 2.843871e-01 2.521468e-01 2.109427e-01 1.623356e-01 1.086568e-01 5.969799e-02 5.104455e-02 1.091182e-01 2.090699e-01 3.087224e-01 3.954998e-01 4.698946e-01 5.327121e-01 5.854324e-01 6.298914e-01 6.680042e-01 7.011957e-01 7.306300e-01 7.568099e-01 7.800415e-01 8.002201e-01 8.172313e-01 8.308005e-01 8.407480e-01 8.468595e-01 
8.312488e-01 8.291735e-01 8.227057e-01 8.120066e-01 7.973988e-01 7.791632e-01 7.576964e-01 7.331735e-01 7.057529e-01 6.750479e-01 6.404651e-01 6.005800e-01 5.537844e-01 4.978785e-01 4.309715e-01 3.517205e-01 2.593798e-01 1.550814e-01 7.034027e-02 4.948308e-02 9.052551e-02 1.482279e-01 2.044360e-01 2.549304e-01 2.979862e-01 3.318298e-01 3.562376e-01 3.719723e-01 3.805283e-01 3.841842e-01 3.848577e-01 3.845945e-01 3.843570e-01 3.847436e-01 3.851439e-01 3.845738e-01 3.810741e-01 3.727693e-01 3.574978e-01 3.338174e-01 3.010306e-01 2.591283e-01 2.096357e-01 1.542253e-01 9.649056e-02 5.147232e-02 6.408911e-02 1.431740e-01 2.474228e-01 3.412201e-01 4.214917e-01 4.893872e-01 5.461506e-01 5.937000e-01 6.343060e-01 6.696126e-01 7.010674e-01 7.292544e-01 7.545288e-01 7.767040e-01 7.955761e-01 8.107408e-01 8.219175e-01 8.288003e-01 
8.128622e-01 8.104686e-01 8.031051e-01 7.910020e-01 7.746006e-01 7.543162e-01 7.307104e-01 7.040768e-01 6.746762e-01 6.420687e-01 6.055662e-01 5.634273e-01 5.137982e-01 4.541947e-01 3.825556e-01 2.987030e-01 1.994162e-01 9.992293e-02 4.916363e-02 7.088028e-02 1.295537e-01 1.897360e-01 2.467061e-01 2.980105e-01 3.417764e-01 3.767627e-01 4.025899e-01 4.199949e-01 4.302716e-01 4.354725e-01 4.373882e-01 4.378912e-01 4.379114e-01 4.380096e-01 4.376258e-01 4.358305e-01 4.308242e-01 4.208671e-01 4.040070e-01 3.789716e-01 3.450400e-01 3.024151e-01 2.521231e-01 1.959650e-01 1.360963e-01 7.674844e-02 4.792255e-02 9.021993e-02 1.866799e-01 2.871858e-01 3.720704e-01 4.447820e-01 5.053519e-01 5.558518e-01 5.988479e-01 6.362148e-01 6.697057e-01 6.999915e-01 7.274701e-01 7.518518e-01 7.728115e-01 7.897844e-01 8.023602e-01 8.101206e-01 
7.942413e-01 7.914751e-01 7.830793e-01 7.693687e-01 7.509240e-01 7.283274e-01 7.023410e-01 6.734168e-01 6.419516e-01 6.074664e-01 5.692014e-01 5.250606e-01 4.730456e-01 4.102416e-01 3.350213e-01 2.474148e-01 1.453661e-01 6.513423e-02 5.241750e-02 1.024667e-01 1.642957e-01 2.254069e-01 2.827497e-01 3.348402e-01 3.797538e-01 4.163678e-01 4.442768e-01 4.640351e-01 4.767161e-01 4.840907e-01 4.877431e-01 4.893475e-01 4.897496e-01 4.894667e-01 4.879933e-01 4.844992e-01 4.773748e-01 4.650805e-01 4.459255e-01 4.188395e-01 3.832628e-01 3.394391e-01 2.883609e-01 2.317441e-01 1.711509e-01 1.093888e-01 5.565905e-02 5.959629e-02 1.334806e-01 2.352529e-01 3.241453e-01 4.000549e-01 4.638365e-01 5.167911e-01 5.619592e-01 6.012684e-01 6.368041e-01 6.692913e-01 6.991564e-01 7.259759e-01 7.492677e-01 7.682752e-01 7.824282e-01 7.911773e-01 
7.757818e-01 7.725865e-01 7.630179e-01 7.474872e-01 7.267308e-01 7.015299e-01 6.728783e-01 6.414333e-01 6.077670e-01 5.713959e-01 5.315400e-01 4.857166e-01 4.319995e-01 3.666401e-01 2.898100e-01 1.980882e-01 1.016734e-01 4.920906e-02 7.022865e-02 1.307727e-01 1.931708e-01 2.539469e-01 3.118031e-01 3.647465e-01 4.112050e-01 4.499599e-01 4.804818e-01 5.031086e-01 5.186393e-01 5.285538e-01 5.342124e-01 5.370834e-01 5.379338e-01 5.372238e-01 5.345131e-01 5.290585e-01 5.194490e-01 5.043627e-01 4.823789e-01 4.526910e-01 4.149456e-01 3.695476e-01 3.176108e-01 2.605172e-01 2.003396e-01 1.379691e-01 7.659281e-02 4.737299e-02 9.165515e-02 1.857732e-01 2.785695e-01 3.556234e-01 4.219913e-01 4.768164e-01 5.239146e-01 5.650593e-01 6.026734e-01 6.375015e-01 6.699621e-01 6.994717e-01 7.253489e-01 7.466204e-01 7.625261e-01 7.723703e-01 
7.579584e-01 7.542844e-01 7.434207e-01 7.258817e-01 7.025651e-01 6.744822e-01 6.428787e-01 6.086738e-01 5.726480e-01 5.344018e-01 4.931710e-01 4.462154e-01 3.917159e-01 3.252204e-01 2.486981e-01 1.552309e-01 7.152340e-02 4.705589e-02 9.237488e-02 1.529081e-01 2.150082e-01 2.751739e-01 3.335344e-01 3.876117e-01 4.359893e-01 4.772875e-01 5.108245e-01 5.366762e-01 5.553719e-01 5.680899e-01 5.759592e-01 5.802347e-01 5.815865e-01 5.804115e-01 5.763360e-01 5.687178e-01 5.563527e-01 5.381396e-01 5.129439e-01 4.802221e-01 4.398795e-01 3.925107e-01 3.393846e-01 2.818095e-01 2.221118e-01 1.601652e-01 9.948736e-02 4.892340e-02 6.434653e-02 1.430024e-01 2.359547e-01 3.129041e-01 3.806639e-01 4.367483e-01 4.853553e-01 5.282061e-01 5.679038e-01 6.052179e-01 6.404757e-01 6.729158e-01 7.016083e-01 7.253471e-01 7.431542e-01 7.541809e-01 
7.412407e-01 7.370505e-01 7.248014e-01 7.051103e-01 6.790292e-01 6.478151e-01 6.129742e-01 5.757406e-01 5.371237e-01 4.969420e-01 4.544517e-01 4.069583e-01 3.524946e-01 2.867631e-01 2.112582e-01 1.212398e-01 5.344392e-02 5.317642e-02 1.089296e-01 1.679305e-01 2.290175e-01 2.891052e-01 3.481341e-01 4.036812e-01 4.542424e-01 4.983530e-01 5.351069e-01 5.643480e-01 5.863202e-01 6.019237e-01 6.120577e-01 6.177719e-01 6.196409e-01 6.179905e-01 6.125178e-01 6.026757e-01 5.874586e-01 5.659830e-01 5.373821e-01 5.013922e-01 4.581580e-01 4.085360e-01 3.539042e-01 2.957508e-01 2.362453e-01 1.756459e-01 1.164240e-01 5.833897e-02 4.953441e-02 1.095739e-01 1.971286e-01 2.737738e-01 3.410555e-01 3.976674e-01 4.471390e-01 4.915211e-01 5.332670e-01 5.731983e-01 6.114230e-01 6.469893e-01 6.786713e-01 7.050218e-01 7.248281e-01 7.370910e-01 
7.261200e-01 7.213972e-01 7.077299e-01 6.858330e-01 6.568910e-01 6.224035e-01 5.841214e-01 5.436351e-01 5.021849e-01 4.599535e-01 4.162136e-01 3.686775e-01 3.149504e-01 2.517962e-01 1.779400e-01 9.482565e-02 4.391224e-02 6.254101e-02 1.186421e-01 1.767416e-01 2.366589e-01 2.970293e-01 3.567981e-01 4.140013e-01 4.668247e-01 5.138031e-01 5.537656e-01 5.863485e-01 6.115268e-01 6.299426e-01 6.422823e-01 6.494002e-01 6.517747e-01 6.496584e-01 6.428184e-01 6.307990e-01 6.127839e-01 5.880894e-01 5.560988e-01 5.168099e-01 4.705858e-01 4.185717e-01 3.621920e-01 3.033158e-01 2.437047e-01 1.846293e-01 1.264299e-01 6.913773e-02 4.174765e-02 8.349965e-02 1.635505e-01 2.394051e-01 3.044196e-01 3.606519e-01 4.103146e-01 4.560243e-01 4.997741e-01 5.424194e-01 5.837210e-01 6.225229e-01 6.572693e-01 6.862773e-01 7.081012e-01 7.216047e-01 
7.130316e-01 7.077828e-01 6.927374e-01 6.686988e-01 6.369554e-01 5.992243e-01 5.574483e-01 5.135800e-01 4.690839e-01 4.245956e-01 3.794660e-01 3.319902e-01 2.794242e-01 2.196734e-01 1.490561e-01 7.414105e-02 3.957716e-02 7.109865e-02 1.247120e-01 1.815278e-01 2.401497e-01 3.006033e-01 3.609942e-01 4.197451e-01 4.746926e-01 5.243634e-01 5.673105e-01 6.029890e-01 6.311201e-01 6.521223e-01 6.664874e-01 6.748957e-01 6.777359e-01 6.751884e-01 6.670863e-01 6.530573e-01 6.324517e-01 6.047666e-01 5.695998e-01 5.271884e-01 4.780789e-01 4.236834e-01 3.654623e-01 3.056152e-01 2.456033e-01 1.874857e-01 1.306656e-01 7.698145e-02 3.932453e-02 6.554912e-02 1.378803e-01 2.105162e-01 2.719685e-01 3.267814e-01 3.761393e-01 4.229636e-01 4.686844e-01 5.140600e-01 5.584371e-01 6.004308e-01 6.381572e-01 6.697283e-01 6.934860e-01 7.081746e-01 
7.023824e-01 6.966528e-01 6.803656e-01 6.543964e-01 6.201107e-01 5.793988e-01 5.343465e-01 4.872182e-01 4.396792e-01 3.928312e-01 3.462214e-01 2.987272e-01 2.475836e-01 1.913243e-01 1.254871e-01 5.915547e-02 3.819317e-02 7.680688e-02 1.283320e-01 1.836998e-01 2.411915e-01 3.015666e-01 3.624185e-01 4.224678e-01 4.792139e-01 5.311900e-01 5.766802e-01 6.149960e-01 6.456354e-01 6.688336e-01 6.849182e-01 6.944228e-01 6.976577e-01 6.947395e-01 6.855582e-01 6.698123e-01 6.469919e-01 6.167450e-01 5.788447e-01 5.337341e-01 4.821070e-01 4.256209e-01 3.657702e-01 3.050399e-01 2.447541e-01 1.873769e-01 1.322492e-01 8.125401e-02 3.941335e-02 5.350716e-02 1.180661e-01 1.857641e-01 2.437164e-01 2.967456e-01 3.458101e-01 3.937123e-01 4.414246e-01 4.894534e-01 5.367466e-01 5.816937e-01 6.221310e-01 6.560055e-01 6.814889e-01 6.972293e-01 
6.945071e-01 6.883919e-01 6.711140e-01 6.436024e-01 6.072724e-01 5.641336e-01 5.163578e-01 4.664391e-01 4.162053e-01 3.671484e-01 3.191115e-01 2.714633e-01 2.217401e-01 1.685732e-01 1.080220e-01 4.959606e-02 3.830467e-02 7.978740e-02 1.298157e-01 1.839232e-01 2.406790e-01 3.009657e-01 3.621887e-01 4.232288e-01 4.813667e-01 5.351249e-01 5.825802e-01 6.229319e-01 6.555039e-01 6.803940e-01 6.978024e-01 7.081520e-01 7.116914e-01 7.084859e-01 6.984701e-01 6.813979e-01 6.568639e-01 6.246324e-01 5.846081e-01 5.373941e-01 4.838025e-01 4.256802e-01 3.645833e-01 3.031849e-01 2.428165e-01 1.860296e-01 1.324249e-01 8.314359e-02 4.012960e-02 4.550427e-02 1.026775e-01 1.654559e-01 2.207444e-01 2.721870e-01 3.212211e-01 3.701861e-01 4.197806e-01 4.701488e-01 5.199350e-01 5.673280e-01 6.099681e-01 6.456890e-01 6.725465e-01 6.891208e-01 
6.896654e-01 6.832952e-01 6.653699e-01 6.368505e-01 5.991801e-01 5.544344e-01 5.048293e-01 4.529808e-01 4.008255e-01 3.500990e-01 3.009327e-01 2.529969e-01 2.042593e-01 1.530672e-01 9.652779e-02 4.388072e-02 3.872107e-02 8.139042e-02 1.306500e-01 1.838642e-01 2.401435e-01 3.002970e-01 3.617140e-01 4.233410e-01 4.823289e-01 5.371929e-01 5.858692e-01 6.274912e-01 6.612675e-01 6.872128e-01 7.054461e-01 7.163224e-01 7.200504e-01 7.166638e-01 7.061243e-01 6.882208e-01 6.626118e-01 6.291352e-01 5.877753e-01 5.392404e-01 4.844156e-01 4.252766e-01 3.634283e-01 3.016549e-01 2.413316e-01 1.849492e-01 1.323493e-01 8.396449e-02 4.078600e-02 4.089239e-02 9.253653e-02 1.516056e-01 2.052199e-01 2.555640e-01 3.047707e-01 3.546090e-01 4.056487e-01 4.576952e-01 5.092119e-01 5.582511e-01 6.023460e-01 6.392718e-01 6.670205e-01 6.841326e-01 
6.880287e-01 6.815724e-01 6.634264e-01 6.345624e-01 5.964325e-01 5.511330e-01 5.008891e-01 4.483478e-01 3.954810e-01 3.441137e-01 2.944919e-01 2.464037e-01 1.980341e-01 1.475504e-01 9.260634e-02 4.220485e-02 3.892278e-02 8.172979e-02 1.307068e-01 1.836138e-01 2.397381e-01 2.998526e-01 3.613505e-01 4.231937e-01 4.824930e-01 5.377545e-01 5.868683e-01 6.289416e-01 6.631442e-01 6.894617e-01 7.079852e-01 7.190470e-01 7.228419e-01 7.193925e-01 7.086697e-01 6.904751e-01 6.644886e-01 6.305736e-01 5.887429e-01 5.397407e-01 4.844825e-01 4.249871e-01 3.628875e-01 3.010009e-01 2.407321e-01 1.845295e-01 1.323223e-01 8.425184e-02 4.102925e-02 3.923399e-02 8.881426e-02 1.464859e-01 1.995459e-01 2.495023e-01 2.988455e-01 3.490596e-01 4.006784e-01 4.533613e-01 5.055135e-01 5.551395e-01 5.997434e-01 6.370870e-01 6.651444e-01 6.824430e-01 
6.896654e-01 6.832952e-01 6.653699e-01 6.368505e-01 5.991801e-01 5.544344e-01 5.048293e-01 4.529808e-01 4.008255e-01 3.500990e-01 3.009327e-01 2.529969e-01 2.042593e-01 1.530672e-01 9.652779e-02 4.388072e-02 3.872107e-02 8.139042e-02 1.306500e-01 1.838642e-01 2.401435e-01 3.002970e-01 3.617140e-01 4.233410e-01 4.823289e-01 5.371929e-01 5.858692e-01 6.274912e-01 6.612675e-01 6.872128e-01 7.054461e-01 7.163224e-01 7.200504e-01 7.166638e-01 7.061243e-01 6.882208e-01 6.626118e-01 6.291352e-01 5.877753e-01 5.392404e-01 4.844156e-01 4.252766e-01 3.634283e-01 3.016549e-01 2.413316e-01 1.849492e-01 1.323493e-01 8.396449e-02 4.078600e-02 4.089239e-02 9.253653e-02 1.516056e-01 2.052199e-01 2.555640e-01 3.047707e-01 3.546090e-01 4.056487e-01 4.576952e-01 5.092119e-01 5.582511e-01 6.023460e-01 6.392718e-01 6.670205e-01 6.841326e-01 
6.945071e-01 6.883919e-01 6.711140e-01 6.436024e-01 6.072724e-01 5.641336e-01 5.163578e-01 4.664391e-01 4.162053e-01 3.671484e-01 3.191115e-01 2.714633e-01 2.217401e-01 1.685732e-01 1.080220e-01 4.959606e-02 3.830467e-02 7.978740e-02 1.298157e-01 1.839232e-01 2.406790e-01 3.009657e-01 3.621887e-01 4.232288e-01 4.813667e-01 5.351249e-01 5.825802e-01 6.229319e-01 6.555039e-01 6.803940e-01 6.978024e-01 7.081520e-01 7.116914e-01 7.084859e-01 6.984701e-01 6.813979e-01 6.568639e-01 6.246324e-01 5.846081e-01 5.373941e-01 4.838025e-01 4.256802e-01 3.645833e-01 3.031849e-01 2.428165e-01 1.860296e-01 1.324249e-01 8.314359e-02 4.012960e-02 4.550427e-02 1.026775e-01 1.654559e-01 2.207444e-01 2.721870e-01 3.212211e-01 3.701861e-01 4.197806e-01 4.701488e-01 5.199350e-01 5.673280e-01 6.099681e-01 6.456890e-01 6.725465e-01 6.891208e-01 