# vtk DataFile Version 2.0
Comment goes here
ASCII

DATASET STRUCTURED_POINTS
FIELD FieldData 1
TIME 1 1 double
0.44000000
DIMENSIONS    64   64   1

ORIGIN    0.000   0.000   0.000
SPACING   0.015625 0.015625   1.000

POINT_DATA   4096
SCALARS Concentration double
LOOKUP_TABLE default

9.999023e-01 9.998946e-01 9.998708e-01 9.998293e-01 9.997672e-01 9.996805e-01 9.995641e-01 9.994122e-01 9.992183e-01 9.989751e-01 9.986746e-01 9.983082e-01 9.978664e-01 9.973379e-01 9.967093e-01 9.959624e-01 9.950723e-01 9.940037e-01 9.927099e-01 9.911284e-01 9.891814e-01 9.867716e-01 9.837889e-01 9.801161e-01 9.756563e-01 9.703627e-01 9.642950e-01 9.576647e-01 9.508769e-01 9.445121e-01 9.392560e-01 9.357705e-01 9.345447e-01 9.357662e-01 9.392485e-01 9.445016e-01 9.508653e-01 9.576525e-01 9.642838e-01 9.703527e-01 9.756478e-01 9.801088e-01 9.837821e-01 9.867652e-01 9.891749e-01 9.911218e-01 9.927031e-01 9.939970e-01 9.950657e-01 9.959561e-01 9.967035e-01 9.973327e-01 9.978618e-01 9.983042e-01 9.986712e-01 9.989723e-01 9.992161e-01 9.994104e-01 9.995627e-01 9.996794e-01 9.997665e-01 9.998288e-01 9.998705e-01 9.998944e-01 
9.998860e-01 9.998772e-01 9.998498e-01 9.998021e-01 9.997308e-01 9.996315e-01 9.994987e-01 9.993260e-01 9.991062e-01 9.988317e-01 9.984942e-01 9.980847e-01 9.975938e-01 9.970104e-01 9.963212e-01 9.955082e-01 9.945461e-01 9.933985e-01 9.920177e-01 9.903394e-01 9.882832e-01 9.857474e-01 9.826156e-01 9.787618e-01 9.740777e-01 9.685039e-01 9.620909e-01 9.550496e-01 9.478025e-01 9.409701e-01 9.352962e-01 9.315168e-01 9.301841e-01 9.315118e-01 9.352873e-01 9.409578e-01 9.477889e-01 9.550356e-01 9.620781e-01 9.684925e-01 9.740680e-01 9.787534e-01 9.826079e-01 9.857399e-01 9.882756e-01 9.903316e-01 9.920097e-01 9.933905e-01 9.945382e-01 9.955007e-01 9.963142e-01 9.970041e-01 9.975883e-01 9.980800e-01 9.984901e-01 9.988284e-01 9.991035e-01 9.993238e-01 9.994970e-01 9.996303e-01 9.997299e-01 9.998015e-01 9.998494e-01 9.998770e-01 
9.998343e-01 9.998217e-01 9.997830e-01 9.997157e-01 9.996155e-01 9.994766e-01 9.992920e-01 9.990535e-01 9.987525e-01 9.983797e-01 9.979258e-01 9.973813e-01 9.967365e-01 9.959809e-01 9.951024e-01 9.940835e-01 9.928986e-01 9.915089e-01 9.898642e-01 9.878955e-01 9.855149e-01 9.826084e-01 9.790413e-01 9.746605e-01 9.693233e-01 9.629318e-01 9.555048e-01 9.472488e-01 9.386332e-01 9.303989e-01 9.234724e-01 9.188135e-01 9.171606e-01 9.188059e-01 9.234591e-01 9.303808e-01 9.386137e-01 9.472288e-01 9.554868e-01 9.629160e-01 9.693100e-01 9.746489e-01 9.790304e-01 9.825975e-01 9.855036e-01 9.878838e-01 9.898521e-01 9.914968e-01 9.928866e-01 9.940721e-01 9.950917e-01 9.959713e-01 9.967280e-01 9.973739e-01 9.979196e-01 9.983746e-01 9.987484e-01 9.990502e-01 9.992895e-01 9.994747e-01 9.996141e-01 9.997148e-01 9.997824e-01 9.998214e-01 
9.997373e-01 9.997179e-01 9.996583e-01 9.995549e-01 9.994015e-01 9.991899e-01 9.989102e-01 9.985513e-01 9.981017e-01 9.975495e-01 9.968837e-01 9.960934e-01 9.951695e-01 9.941024e-01 9.928826e-01 9.914952e-01 9.899150e-01 9.881016e-01 9.860023e-01 9.835422e-01 9.806236e-01 9.771137e-01 9.728489e-01 9.676321e-01 9.612623e-01 9.535747e-01 9.445301e-01 9.343186e-01 9.234780e-01 9.129420e-01 9.039447e-01 8.978250e-01 8.956392e-01 8.978129e-01 9.039237e-01 9.129136e-01 9.234478e-01 9.342881e-01 9.445032e-01 9.535514e-01 9.612427e-01 9.676147e-01 9.728324e-01 9.770968e-01 9.806056e-01 9.835232e-01 9.859825e-01 9.880815e-01 9.898951e-01 9.914762e-01 9.928649e-01 9.940864e-01 9.951553e-01 9.960812e-01 9.968734e-01 9.975410e-01 9.980948e-01 9.985459e-01 9.989060e-01 9.991867e-01 9.993992e-01 9.995533e-01 9.996573e-01 9.997174e-01 
9.995785e-01 9.995482e-01 9.994550e-01 9.992937e-01 9.990552e-01 9.987274e-01 9.982963e-01 9.977459e-01 9.970604e-01 9.962240e-01 9.952229e-01 9.940450e-01 9.926816e-01 9.911259e-01 9.893738e-01 9.874157e-01 9.852308e-01 9.827798e-01 9.800114e-01 9.768463e-01 9.731779e-01 9.688509e-01 9.636647e-01 9.573623e-01 9.496614e-01 9.403004e-01 9.291498e-01 9.163625e-01 9.025510e-01 8.889023e-01 8.770753e-01 8.689455e-01 8.660234e-01 8.689266e-01 8.770426e-01 8.888582e-01 9.025047e-01 9.163162e-01 9.291098e-01 9.402660e-01 9.496327e-01 9.573363e-01 9.636393e-01 9.688241e-01 9.731487e-01 9.768151e-01 9.799785e-01 9.827464e-01 9.851976e-01 9.873839e-01 9.893441e-01 9.910991e-01 9.926579e-01 9.940246e-01 9.952057e-01 9.962098e-01 9.970489e-01 9.977368e-01 9.982893e-01 9.987222e-01 9.990514e-01 9.992911e-01 9.994534e-01 9.995474e-01 
9.993339e-01 9.992871e-01 9.991436e-01 9.988953e-01 9.985292e-01 9.980276e-01 9.973700e-01 9.965339e-01 9.954969e-01 9.942377e-01 9.927386e-01 9.909855e-01 9.889716e-01 9.866948e-01 9.841609e-01 9.813714e-01 9.783172e-01 9.749674e-01 9.712796e-01 9.671769e-01 9.625487e-01 9.572176e-01 9.509412e-01 9.433896e-01 9.341781e-01 9.229180e-01 9.093535e-01 8.935693e-01 8.762391e-01 8.588390e-01 8.435515e-01 8.329369e-01 8.290996e-01 8.329082e-01 8.435024e-01 8.587726e-01 8.761703e-01 8.935012e-01 9.092957e-01 9.228687e-01 9.341371e-01 9.433517e-01 9.509029e-01 9.571760e-01 9.625024e-01 9.671267e-01 9.712262e-01 9.749129e-01 9.782629e-01 9.813193e-01 9.841122e-01 9.866509e-01 9.889328e-01 9.909521e-01 9.927105e-01 9.942145e-01 9.954782e-01 9.965191e-01 9.973585e-01 9.980190e-01 9.985229e-01 9.988910e-01 9.991409e-01 9.992859e-01 
9.989723e-01 9.989019e-01 9.986857e-01 9.983122e-01 9.977626e-01 9.970115e-01 9.960293e-01 9.947840e-01 9.932444e-01 9.913809e-01 9.891704e-01 9.865962e-01 9.836545e-01 9.803514e-01 9.767090e-01 9.727491e-01 9.684873e-01 9.639134e-01 9.590090e-01 9.537098e-01 9.479128e-01 9.414214e-01 9.339509e-01 9.250885e-01 9.143292e-01 9.011313e-01 8.850769e-01 8.661471e-01 8.450445e-01 8.235383e-01 8.043940e-01 7.909724e-01 7.860933e-01 7.909311e-01 8.043230e-01 8.234419e-01 8.449455e-01 8.660500e-01 8.849961e-01 9.010628e-01 9.142723e-01 9.250344e-01 9.338942e-01 9.413580e-01 9.478408e-01 9.536309e-01 9.589244e-01 9.638270e-01 9.684009e-01 9.726662e-01 9.766313e-01 9.802813e-01 9.835926e-01 9.865430e-01 9.891255e-01 9.913440e-01 9.932146e-01 9.947605e-01 9.960111e-01 9.969979e-01 9.977528e-01 9.983055e-01 9.986815e-01 9.988999e-01 
9.984551e-01 9.983517e-01 9.980344e-01 9.974870e-01 9.966826e-01 9.955851e-01 9.941528e-01 9.923406e-01 9.901044e-01 9.874034e-01 9.842065e-01 9.804935e-01 9.762647e-01 9.715388e-01 9.663637e-01 9.607955e-01 9.548939e-01 9.486896e-01 9.422094e-01 9.354193e-01 9.282399e-01 9.204622e-01 9.117625e-01 9.016386e-01 8.894524e-01 8.744895e-01 8.561401e-01 8.342434e-01 8.094846e-01 7.838874e-01 7.608005e-01 7.444503e-01 7.384704e-01 7.443925e-01 7.607007e-01 7.837513e-01 8.093462e-01 8.341093e-01 8.560309e-01 8.743975e-01 8.893755e-01 9.015630e-01 9.116806e-01 9.203681e-01 9.281311e-01 9.352992e-01 9.420795e-01 9.485565e-01 9.547603e-01 9.606672e-01 9.662434e-01 9.714302e-01 9.761688e-01 9.804111e-01 9.841372e-01 9.873464e-01 9.900584e-01 9.923044e-01 9.941249e-01 9.955642e-01 9.966675e-01 9.974767e-01 9.980280e-01 9.983487e-01 
9.977371e-01 9.975893e-01 9.971359e-01 9.963543e-01 9.952069e-01 9.936437e-01 9.916064e-01 9.890320e-01 9.858590e-01 9.820310e-01 9.775050e-01 9.722561e-01 9.662899e-01 9.596440e-01 9.524038e-01 9.446780e-01 9.365992e-01 9.282664e-01 9.197820e-01 9.111611e-01 9.023696e-01 8.931913e-01 8.832692e-01 8.720062e-01 8.586246e-01 8.422307e-01 8.220071e-01 7.976307e-01 7.697184e-01 7.404926e-01 7.138101e-01 6.947223e-01 6.876896e-01 6.946439e-01 7.136739e-01 7.403060e-01 7.695302e-01 7.974501e-01 8.218630e-01 8.421097e-01 8.585229e-01 8.719029e-01 8.831538e-01 8.930561e-01 9.022105e-01 9.109845e-01 9.195893e-01 9.280682e-01 9.363992e-01 9.444855e-01 9.522229e-01 9.594804e-01 9.661455e-01 9.721320e-01 9.774008e-01 9.819453e-01 9.857902e-01 9.889778e-01 9.915647e-01 9.936125e-01 9.951844e-01 9.963388e-01 9.971263e-01 9.975848e-01 
9.967674e-01 9.965616e-01 9.959304e-01 9.948428e-01 9.932477e-01 9.910764e-01 9.882491e-01 9.846790e-01 9.802811e-01 9.749772e-01 9.687084e-01 9.614425e-01 9.531927e-01 9.440232e-01 9.340725e-01 9.235271e-01 9.126263e-01 9.015735e-01 8.905804e-01 8.797347e-01 8.690692e-01 8.583650e-01 8.472398e-01 8.349984e-01 8.207226e-01 8.033424e-01 7.818346e-01 7.557144e-01 7.254798e-01 6.934684e-01 6.639106e-01 6.425544e-01 6.346197e-01 6.424477e-01 6.637258e-01 6.932161e-01 7.252283e-01 7.554764e-01 7.816505e-01 8.031880e-01 8.205920e-01 8.348614e-01 8.470827e-01 8.581780e-01 8.688452e-01 8.794848e-01 8.903048e-01 9.012884e-01 9.123370e-01 9.232474e-01 9.338091e-01 9.437845e-01 9.529817e-01 9.612611e-01 9.685562e-01 9.748523e-01 9.801808e-01 9.846002e-01 9.881886e-01 9.910312e-01 9.932151e-01 9.948205e-01 9.959166e-01 9.965551e-01 
9.954913e-01 9.952119e-01 9.943551e-01 9.928795e-01 9.907167e-01 9.877745e-01 9.839452e-01 9.791115e-01 9.731573e-01 9.659762e-01 9.574876e-01 9.476512e-01 9.364905e-01 9.241092e-01 9.107170e-01 8.966070e-01 8.821640e-01 8.677329e-01 8.536748e-01 8.401601e-01 8.273123e-01 8.148973e-01 8.025124e-01 7.893567e-01 7.743802e-01 7.563715e-01 7.341394e-01 7.070915e-01 6.755846e-01 6.420076e-01 6.107706e-01 5.880465e-01 5.795487e-01 5.879067e-01 6.105283e-01 6.416753e-01 6.752551e-01 7.067829e-01 7.339095e-01 7.561776e-01 7.742153e-01 7.891790e-01 8.023069e-01 8.146514e-01 8.270116e-01 8.398224e-01 8.532965e-01 8.673385e-01 8.817598e-01 8.962138e-01 9.103450e-01 9.237704e-01 9.361907e-01 9.473930e-01 9.572712e-01 9.657987e-01 9.730152e-01 9.790001e-01 9.838600e-01 9.877109e-01 9.906709e-01 9.928482e-01 9.943358e-01 9.952028e-01 
9.938507e-01 9.934806e-01 9.923455e-01 9.903915e-01 9.875288e-01 9.836359e-01 9.785707e-01 9.721768e-01 9.642991e-01 9.547954e-01 9.435585e-01 9.305405e-01 9.157818e-01 8.994428e-01 8.818274e-01 8.633691e-01 8.446303e-01 8.261345e-01 8.084153e-01 7.917368e-01 7.763205e-01 7.618974e-01 7.480698e-01 7.339372e-01 7.183342e-01 6.999356e-01 6.774423e-01 6.502539e-01 6.185651e-01 5.847564e-01 5.531946e-01 5.301486e-01 5.214897e-01 5.299662e-01 5.528780e-01 5.843200e-01 6.181363e-01 6.498621e-01 6.771714e-01 6.997044e-01 7.181339e-01 7.337148e-01 7.478125e-01 7.615907e-01 7.759350e-01 7.913009e-01 8.079175e-01 8.256100e-01 8.440870e-01 8.628358e-01 8.813201e-01 8.989778e-01 9.153691e-01 9.301842e-01 9.432599e-01 9.545506e-01 9.641035e-01 9.720237e-01 9.784539e-01 9.835490e-01 9.874664e-01 9.903489e-01 9.923193e-01 9.934683e-01 
9.917860e-01 9.913070e-01 9.898378e-01 9.873093e-01 9.836066e-01 9.785727e-01 9.720237e-01 9.637557e-01 9.535662e-01 9.412706e-01 9.267315e-01 9.098997e-01 8.908428e-01 8.698051e-01 8.472092e-01 8.236642e-01 7.999306e-01 7.767267e-01 7.547806e-01 7.344215e-01 7.159897e-01 6.991096e-01 6.833922e-01 6.678237e-01 6.511713e-01 6.321294e-01 6.094467e-01 5.827052e-01 5.519102e-01 5.194077e-01 4.892548e-01 4.673427e-01 4.591293e-01 4.671193e-01 4.888609e-01 5.188515e-01 5.513624e-01 5.822188e-01 6.091494e-01 6.318636e-01 6.509260e-01 6.675422e-01 6.830829e-01 6.987542e-01 7.155238e-01 7.338905e-01 7.541555e-01 7.760579e-01 7.992280e-01 8.229657e-01 8.465392e-01 8.691856e-01 8.902909e-01 9.094214e-01 9.263306e-01 9.409419e-01 9.533042e-01 9.635512e-01 9.718681e-01 9.784573e-01 9.835240e-01 9.872532e-01 9.898033e-01 9.912908e-01 
9.892358e-01 9.886290e-01 9.867681e-01 9.835663e-01 9.788797e-01 9.725095e-01 9.642228e-01 9.537591e-01 9.408604e-01 9.252942e-01 9.068940e-01 8.856187e-01 8.615831e-01 8.351457e-01 8.068743e-01 7.775862e-01 7.482353e-01 7.197443e-01 6.929963e-01 6.683810e-01 6.462960e-01 6.261715e-01 6.077822e-01 5.901311e-01 5.719726e-01 5.519821e-01 5.290732e-01 5.032099e-01 4.740868e-01 4.439933e-01 4.164928e-01 3.967146e-01 3.893479e-01 3.964460e-01 4.160041e-01 4.432806e-01 4.733830e-01 5.026289e-01 5.288177e-01 5.517294e-01 5.716820e-01 5.897710e-01 6.074123e-01 6.257808e-01 6.457564e-01 6.677645e-01 6.922453e-01 7.189252e-01 7.473638e-01 7.767058e-01 8.060226e-01 8.343494e-01 8.608697e-01 8.849971e-01 9.063718e-01 9.248660e-01 9.405196e-01 9.534935e-01 9.640215e-01 9.723607e-01 9.787736e-01 9.834945e-01 9.867241e-01 9.886083e-01 
9.861370e-01 9.853833e-01 9.830724e-01 9.790980e-01 9.732831e-01 9.653817e-01 9.551044e-01 9.421251e-01 9.261238e-01 9.068170e-01 8.840139e-01 8.577019e-01 8.280639e-01 7.956143e-01 7.610786e-01 7.255104e-01 6.900278e-01 6.557554e-01 6.237084e-01 5.942401e-01 5.678623e-01 5.436748e-01 5.215634e-01 5.005090e-01 4.793538e-01 4.571764e-01 4.334616e-01 4.087799e-01 3.822509e-01 3.559457e-01 3.326540e-01 3.162356e-01 3.101970e-01 3.159564e-01 3.321117e-01 3.551064e-01 3.813948e-01 4.081263e-01 4.333355e-01 4.569792e-01 4.789779e-01 4.999940e-01 5.211135e-01 5.432850e-01 5.672758e-01 5.935683e-01 6.228491e-01 6.547903e-01 6.889855e-01 7.244370e-01 7.600297e-01 7.946208e-01 8.271681e-01 8.569163e-01 8.833527e-01 9.062743e-01 9.256926e-01 9.417902e-01 9.548515e-01 9.651957e-01 9.731512e-01 9.790091e-01 9.830182e-01 9.853579e-01 
9.824252e-01 9.815051e-01 9.786857e-01 9.738387e-01 9.667519e-01 9.571254e-01 9.446066e-01 9.287939e-01 9.092999e-01 8.857877e-01 8.580554e-01 8.261411e-01 7.903287e-01 7.513174e-01 7.099980e-01 6.676582e-01 6.255634e-01 5.850555e-01 5.471222e-01 5.121296e-01 4.803459e-01 4.503414e-01 4.228442e-01 3.976706e-01 3.736003e-01 3.494010e-01 3.249081e-01 3.013924e-01 2.771824e-01 2.541688e-01 2.346343e-01 2.212646e-01 2.164877e-01 2.210185e-01 2.340710e-01 2.532002e-01 2.761652e-01 3.007163e-01 3.250830e-01 3.493831e-01 3.731401e-01 3.969413e-01 4.222588e-01 4.499328e-01 4.797005e-01 5.114158e-01 5.461814e-01 5.839588e-01 6.243690e-01 6.663987e-01 7.087555e-01 7.501225e-01 7.892421e-01 8.251809e-01 8.572438e-01 8.851204e-01 9.087702e-01 9.283838e-01 9.442984e-01 9.569000e-01 9.665929e-01 9.737322e-01 9.786210e-01 9.814749e-01 
9.780359e-01 9.769288e-01 9.735397e-01 9.677173e-01 9.592113e-01 9.476620e-01 9.326461e-01 9.136756e-01 8.902910e-01 8.621045e-01 8.289217e-01 7.908668e-01 7.483483e-01 7.022823e-01 6.536752e-01 6.041094e-01 5.549341e-01 5.077023e-01 4.631874e-01 4.216253e-01 3.838741e-01 3.481484e-01 3.150093e-01 2.842477e-01 2.540543e-01 2.248301e-01 1.981859e-01 1.758502e-01 1.552834e-01 1.373008e-01 1.230256e-01 1.136136e-01 1.103603e-01 1.134399e-01 1.225930e-01 1.365864e-01 1.545186e-01 1.753232e-01 1.984405e-01 2.246801e-01 2.533383e-01 2.831999e-01 3.143403e-01 3.478007e-01 3.831862e-01 4.208888e-01 4.621952e-01 5.064840e-01 5.536008e-01 6.026702e-01 6.522416e-01 7.008817e-01 7.470640e-01 7.897234e-01 8.279522e-01 8.613068e-01 8.896593e-01 9.131886e-01 9.322824e-01 9.473979e-01 9.590264e-01 9.675945e-01 9.734657e-01 9.768945e-01 
9.729088e-01 9.715922e-01 9.675669e-01 9.606576e-01 9.505744e-01 9.368901e-01 9.191024e-01 8.966221e-01 8.689173e-01 8.355519e-01 7.963760e-01 7.516341e-01 7.018889e-01 6.482401e-01 5.918257e-01 5.345179e-01 4.777826e-01 4.232550e-01 3.714192e-01 3.230799e-01 2.781566e-01 2.333011e-01 1.910333e-01 1.566501e-01 1.275789e-01 1.029577e-01 8.463356e-02 7.246990e-02 6.416641e-02 5.862467e-02 5.512248e-02 5.304934e-02 5.244207e-02 5.301527e-02 5.498136e-02 5.843985e-02 6.397078e-02 7.229218e-02 8.458341e-02 1.025510e-01 1.269382e-01 1.556870e-01 1.903523e-01 2.327715e-01 2.773106e-01 3.222992e-01 3.704100e-01 4.219311e-01 4.763524e-01 5.329325e-01 5.902287e-01 6.466555e-01 7.004193e-01 7.503156e-01 7.952516e-01 8.346261e-01 8.681857e-01 8.960614e-01 9.186867e-01 9.365911e-01 9.503672e-01 9.605213e-01 9.674855e-01 9.715548e-01 
9.669932e-01 9.654403e-01 9.607007e-01 9.525749e-01 9.407310e-01 9.246656e-01 9.037865e-01 8.773879e-01 8.448703e-01 8.057660e-01 7.600256e-01 7.080533e-01 6.505348e-01 5.887265e-01 5.238920e-01 4.583493e-01 3.934808e-01 3.312223e-01 2.706984e-01 2.119628e-01 1.594627e-01 1.163684e-01 8.526566e-02 6.851932e-02 6.261260e-02 6.459767e-02 7.139786e-02 7.972136e-02 8.754435e-02 9.392374e-02 9.878000e-02 1.014294e-01 1.025080e-01 1.015071e-01 9.889920e-02 9.419307e-02 8.779812e-02 7.992403e-02 7.155097e-02 6.471881e-02 6.265271e-02 6.824066e-02 8.474655e-02 1.159094e-01 1.586708e-01 2.110612e-01 2.696139e-01 3.297387e-01 3.919403e-01 4.566350e-01 5.221450e-01 5.869641e-01 6.488854e-01 7.065660e-01 7.587539e-01 8.047210e-01 8.440490e-01 8.767642e-01 9.033291e-01 9.243411e-01 9.405091e-01 9.524311e-01 9.606159e-01 9.654017e-01 
9.602609e-01 9.584392e-01 9.528908e-01 9.433919e-01 9.295668e-01 9.108238e-01 8.864693e-01 8.556639e-01 8.177628e-01 7.722959e-01 7.193999e-01 6.596360e-01 5.937187e-01 5.230367e-01 4.491105e-01 3.744917e-01 3.005525e-01 2.286526e-01 1.602265e-01 1.046158e-01 7.158184e-02 6.134608e-02 7.019702e-02 9.177153e-02 1.179723e-01 1.437366e-01 1.642305e-01 1.777128e-01 1.859419e-01 1.902721e-01 1.923477e-01 1.928153e-01 1.931451e-01 1.929047e-01 1.925513e-01 1.908198e-01 1.864830e-01 1.778688e-01 1.639170e-01 1.439094e-01 1.187569e-01 9.213808e-02 7.033005e-02 6.158069e-02 7.120379e-02 1.037619e-01 1.590669e-01 2.270322e-01 2.989948e-01 3.727186e-01 4.472616e-01 5.211549e-01 5.919215e-01 6.580088e-01 7.179981e-01 7.711464e-01 8.168658e-01 8.549917e-01 8.859844e-01 9.104864e-01 9.293407e-01 9.432485e-01 9.528078e-01 9.584021e-01 
9.527139e-01 9.505825e-01 9.441068e-01 9.330395e-01 9.169576e-01 8.951684e-01 8.668642e-01 8.310640e-01 7.871272e-01 7.346370e-01 6.740302e-01 6.058997e-01 5.308482e-01 4.503552e-01 3.662293e-01 2.813615e-01 1.971493e-01 1.225007e-01 7.374742e-02 6.011323e-02 7.820098e-02 1.169222e-01 1.611165e-01 1.991339e-01 2.269299e-01 2.483179e-01 2.644351e-01 2.742256e-01 2.795780e-01 2.817146e-01 2.822699e-01 2.819191e-01 2.819395e-01 2.820436e-01 2.825458e-01 2.822682e-01 2.800517e-01 2.742533e-01 2.638674e-01 2.483661e-01 2.277832e-01 1.997556e-01 1.617132e-01 1.175594e-01 7.860691e-02 6.009294e-02 7.324705e-02 1.212509e-01 1.956901e-01 2.796138e-01 3.643356e-01 4.483678e-01 5.289136e-01 6.041467e-01 6.725195e-01 7.334071e-01 7.861813e-01 8.303703e-01 8.663760e-01 8.948388e-01 9.167435e-01 9.329083e-01 9.440331e-01 9.505504e-01 
9.444040e-01 9.419134e-01 9.343665e-01 9.214961e-01 9.028277e-01 8.775537e-01 8.447466e-01 8.032857e-01 7.526293e-01 6.924721e-01 6.236449e-01 5.465124e-01 4.612908e-01 3.697988e-01 2.744932e-01 1.800665e-01 1.002583e-01 6.080879e-02 7.050663e-02 1.155489e-01 1.708862e-01 2.218499e-01 2.655591e-01 3.020117e-01 3.295455e-01 3.497255e-01 3.631912e-01 3.701721e-01 3.728107e-01 3.727039e-01 3.715985e-01 3.702933e-01 3.699561e-01 3.704081e-01 3.718283e-01 3.730997e-01 3.731033e-01 3.701482e-01 3.628506e-01 3.498982e-01 3.302497e-01 3.024705e-01 2.660769e-01 2.224058e-01 1.716632e-01 1.163824e-01 7.097958e-02 6.051192e-02 9.923264e-02 1.782483e-01 2.725127e-01 3.678485e-01 4.592896e-01 5.446649e-01 6.220394e-01 6.911722e-01 7.516530e-01 8.025937e-01 8.442796e-01 8.772540e-01 9.026435e-01 9.213904e-01 9.343107e-01 9.418904e-01 
9.354330e-01 9.325234e-01 9.237345e-01 9.087840e-01 8.871404e-01 8.578730e-01 8.199292e-01 7.720856e-01 7.140241e-01 6.456258e-01 5.682066e-01 4.814107e-01 3.850626e-01 2.812111e-01 1.764290e-01 9.040207e-02 5.787893e-02 8.644061e-02 1.466930e-01 2.110609e-01 2.695848e-01 3.218949e-01 3.658763e-01 4.007441e-01 4.262642e-01 4.443729e-01 4.559665e-01 4.617849e-01 4.637010e-01 4.631457e-01 4.617479e-01 4.603228e-01 4.599058e-01 4.604156e-01 4.619166e-01 4.634022e-01 4.638711e-01 4.617831e-01 4.558050e-01 4.445115e-01 4.267494e-01 4.011315e-01 3.664194e-01 3.224639e-01 2.705160e-01 2.121620e-01 1.477838e-01 8.733518e-02 5.802641e-02 8.930868e-02 1.747752e-01 2.792741e-01 3.829257e-01 4.794561e-01 5.665297e-01 6.442938e-01 7.130621e-01 7.714416e-01 8.195232e-01 8.576362e-01 8.870107e-01 9.087214e-01 9.237074e-01 9.325147e-01 
9.259728e-01 9.225772e-01 9.123584e-01 8.950319e-01 8.699999e-01 8.362116e-01 7.924943e-01 7.375879e-01 6.715753e-01 5.945012e-01 5.083340e-01 4.113046e-01 3.021880e-01 1.881461e-01 9.153211e-02 5.777074e-02 9.470667e-02 1.634443e-01 2.345672e-01 3.011654e-01 3.602930e-01 4.113245e-01 4.540286e-01 4.882988e-01 5.140334e-01 5.323079e-01 5.439442e-01 5.500039e-01 5.521309e-01 5.517741e-01 5.504772e-01 5.491371e-01 5.487096e-01 5.491986e-01 5.505824e-01 5.519242e-01 5.522351e-01 5.500391e-01 5.439479e-01 5.324873e-01 5.144289e-01 4.886950e-01 4.545965e-01 4.119790e-01 3.612835e-01 3.022755e-01 2.357867e-01 1.647386e-01 9.585997e-02 5.800942e-02 9.043071e-02 1.861379e-01 2.999045e-01 4.091236e-01 5.065240e-01 5.930982e-01 6.706352e-01 7.370197e-01 7.921831e-01 8.360687e-01 8.699491e-01 8.950303e-01 9.123709e-01 9.225877e-01 
9.162479e-01 9.122955e-01 9.004578e-01 8.804594e-01 8.516202e-01 8.127973e-01 7.626804e-01 7.001343e-01 6.257003e-01 5.397101e-01 4.450347e-01 3.371066e-01 2.160993e-01 1.062165e-01 5.781660e-02 9.080221e-02 1.633042e-01 2.400334e-01 3.116733e-01 3.771419e-01 4.354362e-01 4.864002e-01 5.292911e-01 5.640481e-01 5.906518e-01 6.099652e-01 6.227943e-01 6.302578e-01 6.337963e-01 6.347284e-01 6.344232e-01 6.337417e-01 6.335093e-01 6.337817e-01 6.344903e-01 6.348233e-01 6.338764e-01 6.303288e-01 6.228901e-01 6.101824e-01 5.910369e-01 5.645125e-01 5.299504e-01 4.872019e-01 4.365260e-01 3.783858e-01 3.131118e-01 2.416013e-01 1.649281e-01 9.206399e-02 5.780129e-02 1.047195e-01 2.139767e-01 3.349661e-01 4.433146e-01 5.383837e-01 6.248703e-01 6.997190e-01 7.625184e-01 8.127926e-01 8.516810e-01 8.805425e-01 9.005264e-01 9.123339e-01 
9.065425e-01 9.019767e-01 8.883670e-01 8.654644e-01 8.324925e-01 7.882566e-01 7.312902e-01 6.608473e-01 5.779781e-01 4.835128e-01 3.817537e-01 2.607662e-01 1.370709e-01 6.184916e-02 7.690504e-02 1.473176e-01 2.259813e-01 3.012198e-01 3.712602e-01 4.358173e-01 4.937950e-01 5.449250e-01 5.886842e-01 6.249169e-01 6.535708e-01 6.751710e-01 6.904141e-01 7.003047e-01 7.060622e-01 7.089021e-01 7.100292e-01 7.102680e-01 7.103270e-01 7.102949e-01 7.100772e-01 7.089734e-01 7.061449e-01 7.004110e-01 6.905758e-01 6.754351e-01 6.539757e-01 6.254385e-01 5.893985e-01 5.458118e-01 4.949447e-01 4.371540e-01 3.728217e-01 3.029307e-01 2.277765e-01 1.489772e-01 7.789029e-02 6.131881e-02 1.352118e-01 2.585618e-01 3.798561e-01 4.821793e-01 5.772808e-01 6.606494e-01 7.313391e-01 7.884371e-01 8.326985e-01 8.656546e-01 8.885058e-01 9.020499e-01 
8.971602e-01 8.919425e-01 8.764634e-01 8.505142e-01 8.132250e-01 7.633956e-01 6.993827e-01 6.211655e-01 5.299126e-01 4.282767e-01 3.193600e-01 1.888667e-01 7.929782e-02 5.913646e-02 1.201732e-01 1.964253e-01 2.727876e-01 3.450323e-01 4.132681e-01 4.766109e-01 5.345477e-01 5.865207e-01 6.319011e-01 6.703525e-01 7.017114e-01 7.262841e-01 7.446124e-01 7.575455e-01 7.661057e-01 7.713539e-01 7.743185e-01 7.757347e-01 7.761820e-01 7.757562e-01 7.743600e-01 7.714195e-01 7.661955e-01 7.576732e-01 7.448027e-01 7.265649e-01 7.021135e-01 6.708789e-01 6.326023e-01 5.873941e-01 5.356503e-01 4.779035e-01 4.147776e-01 3.467013e-01 2.745362e-01 1.982184e-01 1.218085e-01 5.974338e-02 7.842297e-02 1.867857e-01 3.171392e-01 4.270948e-01 5.294493e-01 6.212701e-01 6.996869e-01 7.637886e-01 8.135939e-01 8.508232e-01 8.766800e-01 8.920544e-01 
8.884324e-01 8.825525e-01 8.651882e-01 8.361870e-01 7.945944e-01 7.392723e-01 6.683509e-01 5.830376e-01 4.836572e-01 3.777442e-01 2.591693e-01 1.312494e-01 5.698349e-02 8.128507e-02 1.555676e-01 2.302349e-01 3.026112e-01 3.721693e-01 4.384185e-01 5.011066e-01 5.593879e-01 6.126654e-01 6.601200e-01 7.012451e-01 7.357181e-01 7.636315e-01 7.853716e-01 8.016064e-01 8.131781e-01 8.209765e-01 8.258754e-01 8.285190e-01 8.293758e-01 8.285375e-01 8.259134e-01 8.210378e-01 8.132668e-01 8.017329e-01 7.855522e-01 7.638841e-01 7.360622e-01 7.016915e-01 6.607007e-01 6.133849e-01 5.602878e-01 5.021708e-01 4.396791e-01 3.736023e-01 3.041817e-01 2.319828e-01 1.572717e-01 8.274418e-02 5.678499e-02 1.294559e-01 2.573607e-01 3.774023e-01 4.838459e-01 5.836239e-01 6.689930e-01 7.399122e-01 7.951457e-01 8.366253e-01 8.654893e-01 8.827062e-01 
8.806801e-01 8.741658e-01 8.550121e-01 8.231184e-01 7.775104e-01 7.170565e-01 6.399234e-01 5.482337e-01 4.422097e-01 3.332059e-01 2.066217e-01 8.936499e-02 5.437336e-02 1.104215e-01 1.797979e-01 2.510145e-01 3.188509e-01 3.857407e-01 4.502793e-01 5.125680e-01 5.714989e-01 6.263210e-01 6.760115e-01 7.198856e-01 7.574672e-01 7.886731e-01 8.137346e-01 8.331553e-01 8.476194e-01 8.578669e-01 8.646242e-01 8.684422e-01 8.696935e-01 8.684575e-01 8.646560e-01 8.579177e-01 8.476913e-01 8.332545e-01 8.138675e-01 7.888490e-01 7.576940e-01 7.201703e-01 6.763714e-01 6.267591e-01 5.720455e-01 5.132156e-01 4.510639e-01 3.866551e-01 3.198988e-01 2.522063e-01 1.810132e-01 1.115389e-01 5.431359e-02 8.787414e-02 2.053861e-01 3.334051e-01 4.428512e-01 5.491076e-01 6.408073e-01 7.178844e-01 7.782184e-01 8.236722e-01 8.553922e-01 8.743587e-01 
8.742175e-01 8.671370e-01 8.464058e-01 8.119529e-01 7.628713e-01 6.978816e-01 6.156444e-01 5.181475e-01 4.077220e-01 2.943597e-01 1.669540e-01 6.635975e-02 6.298138e-02 1.314665e-01 1.957087e-01 2.617265e-01 3.256076e-01 3.899025e-01 4.531182e-01 5.152701e-01 5.749668e-01 6.313253e-01 6.831100e-01 7.295024e-01 7.698668e-01 8.039831e-01 8.319522e-01 8.541429e-01 8.711104e-01 8.834703e-01 8.918264e-01 8.966490e-01 8.982378e-01 8.966592e-01 8.918473e-01 8.835021e-01 8.711511e-01 8.541932e-01 8.320088e-01 8.040464e-01 7.699326e-01 7.295688e-01 6.831810e-01 6.313956e-01 5.750582e-01 5.153741e-01 4.532722e-01 3.900957e-01 3.258680e-01 2.620263e-01 1.960624e-01 1.318523e-01 6.350391e-02 6.570492e-02 1.661951e-01 2.945444e-01 4.084008e-01 5.190517e-01 6.166396e-01 6.988316e-01 7.637042e-01 8.126055e-01 8.468562e-01 8.673654e-01 
8.693262e-01 8.617956e-01 8.398250e-01 8.033506e-01 7.515933e-01 6.830250e-01 5.970819e-01 4.949017e-01 3.821128e-01 2.638700e-01 1.402612e-01 5.577339e-02 7.524206e-02 1.423269e-01 2.037300e-01 2.652144e-01 3.263866e-01 3.887529e-01 4.511763e-01 5.133539e-01 5.737860e-01 6.314322e-01 6.849202e-01 7.333198e-01 7.758812e-01 8.122800e-01 8.425112e-01 8.668432e-01 8.857368e-01 8.997157e-01 9.092980e-01 9.148882e-01 9.167346e-01 9.148927e-01 9.093063e-01 8.997258e-01 8.857423e-01 8.668396e-01 8.424869e-01 8.122270e-01 7.757848e-01 7.331678e-01 6.847063e-01 6.311437e-01 5.734409e-01 5.129465e-01 4.507587e-01 3.883324e-01 3.260450e-01 2.649559e-01 2.036845e-01 1.424834e-01 7.603042e-02 5.559323e-02 1.395777e-01 2.636873e-01 3.825873e-01 4.956907e-01 5.980982e-01 6.840384e-01 7.525125e-01 8.040760e-01 8.403296e-01 8.620515e-01 
8.662514e-01 8.584266e-01 8.356536e-01 7.978636e-01 7.443956e-01 6.734938e-01 5.852730e-01 4.800071e-01 3.660258e-01 2.439832e-01 1.250147e-01 5.168245e-02 8.538059e-02 1.478033e-01 2.074998e-01 2.657943e-01 3.253349e-01 3.864206e-01 4.484200e-01 5.106353e-01 5.715743e-01 6.300609e-01 6.846466e-01 7.343315e-01 7.782873e-01 8.161294e-01 8.477854e-01 8.734633e-01 8.935640e-01 9.085562e-01 9.189060e-01 9.249758e-01 9.269828e-01 9.249755e-01 9.189037e-01 9.085484e-01 8.935409e-01 8.734166e-01 8.476976e-01 8.159862e-01 7.780664e-01 7.340127e-01 6.842166e-01 6.295002e-01 5.708996e-01 5.098424e-01 4.475754e-01 3.855460e-01 3.245570e-01 2.651459e-01 2.071735e-01 1.477652e-01 8.594381e-02 5.133375e-02 1.240406e-01 2.434158e-01 3.662826e-01 4.806848e-01 5.862797e-01 6.745373e-01 7.453654e-01 7.986345e-01 8.361928e-01 8.587004e-01 
8.651866e-01 8.572590e-01 8.342054e-01 7.959543e-01 7.418885e-01 6.701638e-01 5.811499e-01 4.747902e-01 3.603673e-01 2.367242e-01 1.199370e-01 5.099131e-02 8.903185e-02 1.494396e-01 2.084125e-01 2.655716e-01 3.245632e-01 3.852396e-01 4.471180e-01 5.093699e-01 5.705004e-01 6.292896e-01 6.842648e-01 7.343999e-01 7.788431e-01 8.171875e-01 8.493383e-01 8.754824e-01 8.960004e-01 9.113416e-01 9.219559e-01 9.281910e-01 9.302533e-01 9.281890e-01 9.219498e-01 9.113274e-01 8.959670e-01 8.754203e-01 8.492280e-01 8.170121e-01 7.785780e-01 7.340219e-01 6.837583e-01 6.286330e-01 5.697098e-01 5.084416e-01 4.461227e-01 3.842017e-01 3.236183e-01 2.647465e-01 2.078962e-01 1.491589e-01 8.929373e-02 5.053414e-02 1.188290e-01 2.360861e-01 3.605951e-01 4.754699e-01 5.821741e-01 6.712295e-01 7.428815e-01 7.967435e-01 8.347578e-01 8.575394e-01 
8.662514e-01 8.584266e-01 8.356536e-01 7.978636e-01 7.443956e-01 6.734938e-01 5.852730e-01 4.800071e-01 3.660258e-01 2.439832e-01 1.250147e-01 5.168245e-02 8.538059e-02 1.478033e-01 2.074998e-01 2.657943e-01 3.253349e-01 3.864206e-01 4.484200e-01 5.106353e-01 5.715743e-01 6.300609e-01 6.846466e-01 7.343315e-01 7.782873e-01 8.161294e-01 8.477854e-01 8.734633e-01 8.935640e-01 9.085562e-01 9.189060e-01 9.249758e-01 9.269828e-01 9.249755e-01 9.189037e-01 9.085484e-01 8.935409e-01 8.734166e-01 8.476976e-01 8.159862e-01 7.780664e-01 7.340127e-01 6.842166e-01 6.295002e-01 5.708996e-01 5.098424e-01 4.475754e-01 3.855460e-01 3.245570e-01 2.651459e-01 2.071735e-01 1.477652e-01 8.594381e-02 5.133375e-02 1.240406e-01 2.434158e-01 3.662826e-01 4.806848e-01 5.862797e-01 6.745373e-01 7.453654e-01 7.986345e-01 8.361928e-01 8.587004e-01 
8.693262e-01 8.617956e-01 8.398250e-01 8.033506e-01 7.515933e-01 6.830250e-01 5.970819e-01 4.949017e-01 3.821128e-01 2.638700e-01 1.402612e-01 5.577339e-02 7.524206e-02 1.423269e-01 2.037300e-01 2.652144e-01 3.263866e-01 3.887529e-01 4.511763e-01 5.133539e-01 5.737860e-01 6.314322e-01 6.849202e-01 7.333198e-01 7.758812e-01 8.122800e-01 8.425112e-01 8.668432e-01 8.857368e-01 8.997157e-01 9.092980e-01 9.148882e-01 9.167346e-01 9.148927e-01 9.093063e-01 8.997258e-01 8.857423e-01 8.668396e-01 8.424869e-01 8.122270e-01 7.757848e-01 7.331678e-01 6.847063e-01 6.311437e-01 5.734409e-01 5.129465e-01 4.507587e-01 3.883324e-01 3.260450e-01 2.649559e-01 2.036845e-01 1.424834e-01 7.603042e-02 5.559323e-02 1.395777e-01 2.636873e-01 3.825873e-01 4.956907e-01 5.980982e-01 6.840384e-01 7.525125e-01 8.040760e-01 8.403296e-01 8.620515e-01 