# vtk DataFile Version 2.0
Comment goes here
ASCII

DATASET STRUCTURED_POINTS
FIELD FieldData 1
TIME 1 1 double
0.52000000
DIMENSIONS    64   64   1

ORIGIN    0.000   0.000   0.000
SPACING   0.015625 0.015625   1.000

POINT_DATA   4096
SCALARS Concentration double
LOOKUP_TABLE default

9.996330e-01 9.996099e-01 9.995391e-01 9.994172e-01 9.992386e-01 9.989955e-01 9.986787e-01 9.982780e-01 9.977819e-01 9.971788e-01 9.964561e-01 9.956003e-01 9.945956e-01 9.934223e-01 9.920546e-01 9.904579e-01 9.885861e-01 9.863796e-01 9.837647e-01 9.806562e-01 9.769630e-01 9.726010e-01 9.675102e-01 9.616825e-01 9.551783e-01 9.481438e-01 9.408188e-01 9.335316e-01 9.266794e-01 9.206948e-01 9.160055e-01 9.129881e-01 9.119282e-01 9.129885e-01 9.160076e-01 9.206990e-01 9.266846e-01 9.335372e-01 9.408232e-01 9.481464e-01 9.551781e-01 9.616794e-01 9.675039e-01 9.725918e-01 9.769510e-01 9.806418e-01 9.837482e-01 9.863617e-01 9.885673e-01 9.904390e-01 9.920360e-01 9.934046e-01 9.945792e-01 9.955855e-01 9.964430e-01 9.971675e-01 9.977724e-01 9.982701e-01 9.986724e-01 9.989905e-01 9.992348e-01 9.994146e-01 9.995374e-01 9.996091e-01 
9.995954e-01 9.995702e-01 9.994929e-01 9.993597e-01 9.991648e-01 9.988998e-01 9.985551e-01 9.981195e-01 9.975814e-01 9.969284e-01 9.961478e-01 9.952260e-01 9.941473e-01 9.928924e-01 9.914356e-01 9.897426e-01 9.877668e-01 9.854477e-01 9.827093e-01 9.794626e-01 9.756104e-01 9.710597e-01 9.657380e-01 9.596296e-01 9.527902e-01 9.453643e-01 9.375970e-01 9.298325e-01 9.224959e-01 9.160590e-01 9.109954e-01 9.077275e-01 9.065773e-01 9.077264e-01 9.109950e-01 9.160599e-01 9.224974e-01 9.298341e-01 9.375975e-01 9.453632e-01 9.527866e-01 9.596233e-01 9.657287e-01 9.710479e-01 9.755959e-01 9.794456e-01 9.826903e-01 9.854272e-01 9.877454e-01 9.897211e-01 9.914145e-01 9.928723e-01 9.941288e-01 9.952093e-01 9.961331e-01 9.969157e-01 9.975706e-01 9.981107e-01 9.985480e-01 9.988943e-01 9.991606e-01 9.993568e-01 9.994909e-01 9.995693e-01 
9.994793e-01 9.994475e-01 9.993500e-01 9.991823e-01 9.989373e-01 9.986051e-01 9.981742e-01 9.976318e-01 9.969643e-01 9.961582e-01 9.951997e-01 9.940753e-01 9.927694e-01 9.912637e-01 9.895337e-01 9.875454e-01 9.852515e-01 9.825884e-01 9.794735e-01 9.758062e-01 9.714718e-01 9.663528e-01 9.603456e-01 9.534138e-01 9.455990e-01 9.370427e-01 9.280084e-01 9.188870e-01 9.101828e-01 9.024755e-01 8.963654e-01 8.923985e-01 8.909962e-01 8.923930e-01 8.963570e-01 9.024661e-01 9.101724e-01 9.188762e-01 9.279967e-01 9.370299e-01 9.455842e-01 9.533970e-01 9.603264e-01 9.663318e-01 9.714484e-01 9.757805e-01 9.794457e-01 9.825592e-01 9.852215e-01 9.875155e-01 9.895047e-01 9.912364e-01 9.927442e-01 9.940526e-01 9.951798e-01 9.961410e-01 9.969499e-01 9.976200e-01 9.981648e-01 9.985978e-01 9.989318e-01 9.991784e-01 9.993474e-01 9.994463e-01 
9.992727e-01 9.992293e-01 9.990962e-01 9.988677e-01 9.985345e-01 9.980841e-01 9.975016e-01 9.967711e-01 9.958758e-01 9.948000e-01 9.935286e-01 9.920475e-01 9.903424e-01 9.883971e-01 9.861891e-01 9.836865e-01 9.808415e-01 9.775865e-01 9.738288e-01 9.694499e-01 9.643070e-01 9.582446e-01 9.511134e-01 9.428435e-01 9.334577e-01 9.230958e-01 9.120534e-01 9.007969e-01 8.899553e-01 8.802745e-01 8.725461e-01 8.675017e-01 8.657109e-01 8.674883e-01 8.725234e-01 8.802463e-01 8.899235e-01 9.007638e-01 9.120199e-01 9.230624e-01 9.334238e-01 9.428088e-01 9.510772e-01 9.582077e-01 9.642681e-01 9.694087e-01 9.737855e-01 9.775417e-01 9.807961e-01 9.836416e-01 9.861459e-01 9.883564e-01 9.903051e-01 9.920141e-01 9.934993e-01 9.947749e-01 9.958548e-01 9.967538e-01 9.974879e-01 9.980734e-01 9.985265e-01 9.988620e-01 9.990925e-01 9.992275e-01 
9.989554e-01 9.988945e-01 9.987076e-01 9.983871e-01 9.979206e-01 9.972912e-01 9.964794e-01 9.954641e-01 9.942242e-01 9.927403e-01 9.909950e-01 9.889746e-01 9.866664e-01 9.840584e-01 9.811327e-01 9.778619e-01 9.741996e-01 9.700746e-01 9.653817e-01 9.599791e-01 9.536870e-01 9.463005e-01 9.376111e-01 9.275116e-01 9.160069e-01 9.032439e-01 8.895679e-01 8.755481e-01 8.619721e-01 8.497908e-01 8.400270e-01 8.336329e-01 8.313545e-01 8.336066e-01 8.399807e-01 8.497314e-01 8.619045e-01 8.754782e-01 8.894990e-01 9.031774e-01 9.159424e-01 9.274485e-01 9.375480e-01 9.462382e-01 9.536233e-01 9.599133e-01 9.653137e-01 9.700052e-01 9.741299e-01 9.777934e-01 9.810669e-01 9.839967e-01 9.866100e-01 9.889241e-01 9.909510e-01 9.927026e-01 9.941928e-01 9.954385e-01 9.964590e-01 9.972754e-01 9.979087e-01 9.983787e-01 9.987022e-01 9.988918e-01 
9.984997e-01 9.984141e-01 9.981513e-01 9.977011e-01 9.970465e-01 9.961648e-01 9.950294e-01 9.936124e-01 9.918859e-01 9.898255e-01 9.874111e-01 9.846292e-01 9.814711e-01 9.779313e-01 9.740009e-01 9.696609e-01 9.648700e-01 9.595552e-01 9.535980e-01 9.468291e-01 9.390248e-01 9.299211e-01 9.192432e-01 9.068416e-01 8.927157e-01 8.770327e-01 8.602095e-01 8.429434e-01 8.262082e-01 8.111803e-01 7.991280e-01 7.912281e-01 7.884050e-01 7.911814e-01 7.990438e-01 8.110704e-01 8.260826e-01 8.428148e-01 8.600857e-01 8.769163e-01 8.926063e-01 9.067377e-01 9.191418e-01 9.298230e-01 9.389260e-01 9.467285e-01 9.534949e-01 9.594505e-01 9.647653e-01 9.695582e-01 9.739024e-01 9.778391e-01 9.813867e-01 9.845539e-01 9.873454e-01 9.897694e-01 9.918391e-01 9.935742e-01 9.949991e-01 9.961413e-01 9.970289e-01 9.976887e-01 9.981433e-01 9.984102e-01 
9.978705e-01 9.977516e-01 9.973863e-01 9.967608e-01 9.958520e-01 9.946291e-01 9.930562e-01 9.910955e-01 9.887102e-01 9.858689e-01 9.825477e-01 9.787342e-01 9.744256e-01 9.696276e-01 9.643453e-01 9.585738e-01 9.522818e-01 9.453967e-01 9.377862e-01 9.292488e-01 9.195096e-01 9.082384e-01 8.950879e-01 8.798783e-01 8.626286e-01 8.435605e-01 8.231974e-01 8.023895e-01 7.823011e-01 7.643220e-01 7.499402e-01 7.405232e-01 7.371485e-01 7.404451e-01 7.497963e-01 7.641318e-01 7.820837e-01 8.021699e-01 8.229917e-01 8.433716e-01 8.624551e-01 8.797165e-01 8.949322e-01 9.080895e-01 9.193610e-01 9.290988e-01 9.376333e-01 9.452422e-01 9.521275e-01 9.584227e-01 9.642004e-01 9.694920e-01 9.743016e-01 9.786235e-01 9.824512e-01 9.857866e-01 9.886417e-01 9.910398e-01 9.930120e-01 9.945949e-01 9.958265e-01 9.967428e-01 9.973747e-01 9.977460e-01 
9.970267e-01 9.968642e-01 9.963647e-01 9.955099e-01 9.942683e-01 9.925987e-01 9.904525e-01 9.877791e-01 9.845292e-01 9.806623e-01 9.761497e-01 9.709810e-01 9.651623e-01 9.587158e-01 9.516672e-01 9.440329e-01 9.357964e-01 9.268875e-01 9.171573e-01 9.063668e-01 8.941823e-01 8.802043e-01 8.640186e-01 8.454182e-01 8.244929e-01 8.015590e-01 7.772888e-01 7.527175e-01 7.292073e-01 7.083334e-01 6.917471e-01 6.809277e-01 6.770407e-01 6.808034e-01 6.915131e-01 7.080191e-01 7.288471e-01 7.523596e-01 7.769642e-01 8.012681e-01 8.242323e-01 8.451797e-01 8.637915e-01 8.799892e-01 8.939691e-01 9.061529e-01 9.169401e-01 9.266685e-01 9.355775e-01 9.438184e-01 9.514610e-01 9.585223e-01 9.649851e-01 9.708224e-01 9.760114e-01 9.805444e-01 9.844311e-01 9.876992e-01 9.903892e-01 9.925498e-01 9.942318e-01 9.954841e-01 9.963482e-01 9.968561e-01 
9.959213e-01 9.957034e-01 9.950331e-01 9.938862e-01 9.922207e-01 9.899819e-01 9.871048e-01 9.835218e-01 9.791675e-01 9.739895e-01 9.679527e-01 9.610498e-01 9.532998e-01 9.447469e-01 9.354449e-01 9.254373e-01 9.147253e-01 9.032384e-01 8.908025e-01 8.771288e-01 8.618151e-01 8.443901e-01 8.243837e-01 8.016015e-01 7.762852e-01 7.489445e-01 7.204820e-01 6.921294e-01 6.653802e-01 6.419026e-01 6.234191e-01 6.114224e-01 6.070981e-01 6.112354e-01 6.230580e-01 6.414092e-01 6.648143e-01 6.915810e-01 7.200048e-01 7.485257e-01 7.759150e-01 8.012659e-01 8.240635e-01 8.440873e-01 8.615158e-01 8.768300e-01 8.905003e-01 9.029343e-01 9.144214e-01 9.251388e-01 9.351574e-01 9.444764e-01 9.530515e-01 9.608275e-01 9.677587e-01 9.738240e-01 9.790299e-01 9.834099e-01 9.870162e-01 9.899136e-01 9.921699e-01 9.938502e-01 9.950102e-01 9.956922e-01 
9.945034e-01 9.942168e-01 9.933346e-01 9.918251e-01 9.896335e-01 9.866877e-01 9.829021e-01 9.781876e-01 9.724584e-01 9.656462e-01 9.577085e-01 9.486420e-01 9.384824e-01 9.273028e-01 9.151912e-01 9.022220e-01 8.884114e-01 8.736782e-01 8.578052e-01 8.404384e-01 8.210996e-01 7.992668e-01 7.744680e-01 7.465451e-01 7.160311e-01 6.836828e-01 6.506766e-01 6.184880e-01 5.887239e-01 5.630590e-01 5.431578e-01 5.303572e-01 5.257314e-01 5.300981e-01 5.426402e-01 5.623346e-01 5.878869e-01 6.177008e-01 6.500244e-01 6.831155e-01 7.155321e-01 7.460949e-01 7.740348e-01 7.988575e-01 8.206958e-01 8.400378e-01 8.574019e-01 8.732732e-01 8.880064e-01 9.018227e-01 9.148048e-01 9.269374e-01 9.381455e-01 9.483391e-01 9.574434e-01 9.654198e-01 9.722698e-01 9.780343e-01 9.827806e-01 9.865940e-01 9.895638e-01 9.917759e-01 9.933032e-01 9.942014e-01 
9.927184e-01 9.923487e-01 9.912099e-01 9.892613e-01 9.864323e-01 9.826299e-01 9.777430e-01 9.716561e-01 9.642574e-01 9.554595e-01 9.452100e-01 9.335108e-01 9.204181e-01 9.060385e-01 8.904984e-01 8.738994e-01 8.562599e-01 8.374624e-01 8.172182e-01 7.950843e-01 7.705117e-01 7.429666e-01 7.120535e-01 6.777711e-01 6.411002e-01 6.032781e-01 5.659017e-01 5.305312e-01 4.985475e-01 4.714181e-01 4.506799e-01 4.374460e-01 4.326504e-01 4.371188e-01 4.499990e-01 4.704417e-01 4.974198e-01 5.295264e-01 5.651302e-01 6.025925e-01 6.404734e-01 6.771961e-01 7.114830e-01 7.424207e-01 7.699726e-01 7.945528e-01 8.166872e-01 8.369315e-01 8.557295e-01 8.733752e-01 8.899891e-01 9.055546e-01 9.199700e-01 9.331067e-01 9.448555e-01 9.551563e-01 9.640049e-01 9.714509e-01 9.775806e-01 9.825049e-01 9.863395e-01 9.891959e-01 9.911682e-01 9.923283e-01 
9.905099e-01 9.900422e-01 9.886002e-01 9.861326e-01 9.825503e-01 9.777354e-01 9.715463e-01 9.638358e-01 9.544605e-01 9.433097e-01 9.303182e-01 9.154937e-01 8.989154e-01 8.807265e-01 8.610894e-01 8.401209e-01 8.178149e-01 7.939811e-01 7.682246e-01 7.400141e-01 7.087794e-01 6.741194e-01 6.359071e-01 5.944959e-01 5.514997e-01 5.083438e-01 4.668121e-01 4.287227e-01 3.953489e-01 3.678393e-01 3.473588e-01 3.345049e-01 3.298629e-01 3.341454e-01 3.465718e-01 3.666809e-01 3.940051e-01 4.276110e-01 4.660332e-01 5.075656e-01 5.507317e-01 5.937859e-01 6.351797e-01 6.734124e-01 7.080823e-01 7.393345e-01 7.675527e-01 7.933135e-01 8.171488e-01 8.394599e-01 8.604432e-01 8.801076e-01 8.983384e-01 9.149701e-01 9.298567e-01 9.429137e-01 9.541301e-01 9.635669e-01 9.713335e-01 9.775716e-01 9.824288e-01 9.860470e-01 9.885456e-01 9.900155e-01 
9.878192e-01 9.872384e-01 9.854462e-01 9.823795e-01 9.779277e-01 9.719449e-01 9.642541e-01 9.546709e-01 9.430150e-01 9.291471e-01 9.129862e-01 8.945442e-01 8.739246e-01 8.513043e-01 8.268742e-01 8.007399e-01 7.728353e-01 7.428536e-01 7.102799e-01 6.745349e-01 6.351617e-01 5.920668e-01 5.455840e-01 4.965436e-01 4.470971e-01 3.994818e-01 3.559948e-01 3.177801e-01 2.850070e-01 2.583852e-01 2.388744e-01 2.267364e-01 2.223923e-01 2.263766e-01 2.380647e-01 2.572035e-01 2.836740e-01 3.168163e-01 3.554101e-01 3.986642e-01 4.461560e-01 4.956826e-01 5.446601e-01 5.911491e-01 6.342614e-01 6.736675e-01 7.094347e-01 7.420205e-01 7.720077e-01 7.999175e-01 8.260666e-01 8.505264e-01 8.731951e-01 8.938791e-01 9.123979e-01 9.286413e-01 9.425925e-01 9.543272e-01 9.639822e-01 9.717359e-01 9.777729e-01 9.822706e-01 9.853769e-01 9.872045e-01 
9.845862e-01 9.838779e-01 9.816906e-01 9.779481e-01 9.725165e-01 9.652189e-01 9.558388e-01 9.441503e-01 9.299293e-01 9.130031e-01 8.932689e-01 8.707407e-01 8.455422e-01 8.178785e-01 7.879520e-01 7.558272e-01 7.213436e-01 6.840564e-01 6.433665e-01 5.987695e-01 5.501318e-01 4.979786e-01 4.432914e-01 3.881735e-01 3.353762e-01 2.857378e-01 2.405623e-01 2.018711e-01 1.707804e-01 1.475713e-01 1.316898e-01 1.223759e-01 1.192062e-01 1.220604e-01 1.310379e-01 1.467240e-01 1.698443e-01 2.011849e-01 2.400325e-01 2.846507e-01 3.341789e-01 3.872058e-01 4.421822e-01 4.968410e-01 5.490244e-01 5.977172e-01 6.423532e-01 6.830622e-01 7.203576e-01 7.548432e-01 7.869791e-01 8.169328e-01 8.446477e-01 8.699189e-01 8.925378e-01 9.123718e-01 9.294006e-01 9.437196e-01 9.554981e-01 9.649571e-01 9.723228e-01 9.778120e-01 9.816041e-01 9.838356e-01 
9.807478e-01 9.798984e-01 9.772740e-01 9.727852e-01 9.662736e-01 9.575303e-01 9.462965e-01 9.323011e-01 9.152708e-01 8.949931e-01 8.713365e-01 8.443106e-01 8.140545e-01 7.807898e-01 7.447166e-01 7.058337e-01 6.638841e-01 6.183209e-01 5.685723e-01 5.144184e-01 4.563263e-01 3.956673e-01 3.341775e-01 2.733627e-01 2.155698e-01 1.652052e-01 1.268084e-01 1.001438e-01 8.317857e-02 7.376520e-02 6.883043e-02 6.660402e-02 6.600741e-02 6.644994e-02 6.856750e-02 7.352997e-02 8.298933e-02 9.975225e-02 1.261152e-01 1.640671e-01 2.143946e-01 2.724151e-01 3.328854e-01 3.942824e-01 4.550019e-01 5.131642e-01 5.673695e-01 6.171376e-01 6.627110e-01 7.046610e-01 7.435531e-01 7.796533e-01 8.129736e-01 8.433129e-01 8.704458e-01 8.942225e-01 9.146250e-01 9.317752e-01 9.458810e-01 9.572117e-01 9.660384e-01 9.726203e-01 9.771695e-01 9.798473e-01 
9.762377e-01 9.752355e-01 9.721370e-01 9.668401e-01 9.591632e-01 9.488660e-01 9.356473e-01 9.191892e-01 8.991632e-01 8.753104e-01 8.474592e-01 8.156078e-01 7.798994e-01 7.405648e-01 6.977916e-01 6.515159e-01 6.014322e-01 5.469700e-01 4.877369e-01 4.238623e-01 3.564258e-01 2.871358e-01 2.178702e-01 1.550984e-01 1.081219e-01 8.026839e-02 7.007215e-02 7.102564e-02 7.727241e-02 8.460185e-02 9.012589e-02 9.377737e-02 9.522440e-02 9.385660e-02 9.032329e-02 8.488582e-02 7.765981e-02 7.114437e-02 6.968671e-02 7.986707e-02 1.074638e-01 1.540527e-01 2.162702e-01 2.855300e-01 3.549574e-01 4.224711e-01 4.863867e-01 5.456228e-01 6.000887e-01 6.501651e-01 6.964434e-01 7.392375e-01 7.786271e-01 8.144249e-01 8.463972e-01 8.743880e-01 8.983886e-01 9.185582e-01 9.351493e-01 9.484849e-01 9.588825e-01 9.666439e-01 9.720128e-01 9.751748e-01 
9.709850e-01 9.698181e-01 9.662115e-01 9.600525e-01 9.511395e-01 9.392059e-01 9.239108e-01 9.048916e-01 8.817608e-01 8.542057e-01 8.220017e-01 7.851238e-01 7.437110e-01 6.979941e-01 6.481579e-01 5.940948e-01 5.355279e-01 4.719405e-01 4.031182e-01 3.294916e-01 2.523334e-01 1.760265e-01 1.130785e-01 7.628730e-02 6.857682e-02 8.160141e-02 1.033075e-01 1.236252e-01 1.389219e-01 1.489403e-01 1.542070e-01 1.567905e-01 1.577251e-01 1.570082e-01 1.546628e-01 1.494637e-01 1.393319e-01 1.237479e-01 1.033303e-01 8.203263e-02 6.862727e-02 7.574013e-02 1.118918e-01 1.744887e-01 2.507434e-01 3.278985e-01 4.015431e-01 4.703626e-01 5.339577e-01 5.925222e-01 6.465895e-01 6.964505e-01 7.422284e-01 7.837428e-01 8.207598e-01 8.531265e-01 8.808551e-01 9.041553e-01 9.233314e-01 9.387643e-01 9.508158e-01 9.598274e-01 9.660697e-01 9.697492e-01 
9.649145e-01 9.635710e-01 9.594237e-01 9.523538e-01 9.421473e-01 9.285209e-01 9.111024e-01 8.894913e-01 8.632385e-01 8.319702e-01 7.953885e-01 7.534344e-01 7.062223e-01 6.539868e-01 5.968997e-01 5.348315e-01 4.675670e-01 3.946123e-01 3.159826e-01 2.325602e-01 1.502145e-01 8.894646e-02 6.592262e-02 8.050634e-02 1.139433e-01 1.489484e-01 1.769471e-01 1.959851e-01 2.079686e-01 2.149327e-01 2.183007e-01 2.198291e-01 2.203788e-01 2.201442e-01 2.188770e-01 2.154946e-01 2.081842e-01 1.958654e-01 1.770937e-01 1.497222e-01 1.145920e-01 8.090478e-02 6.586163e-02 8.793163e-02 1.486138e-01 2.306764e-01 3.141400e-01 3.928076e-01 4.657899e-01 5.330560e-01 5.951258e-01 6.522337e-01 7.045308e-01 7.518509e-01 7.939595e-01 8.307259e-01 8.621948e-01 8.886448e-01 9.104394e-01 9.280187e-01 9.417820e-01 9.521016e-01 9.592661e-01 9.634951e-01 
9.579461e-01 9.564078e-01 9.516778e-01 9.436412e-01 9.320850e-01 9.167257e-01 8.971776e-01 8.730122e-01 8.437244e-01 8.088680e-01 7.680481e-01 7.211491e-01 6.682438e-01 6.095516e-01 5.452311e-01 4.750778e-01 3.989470e-01 3.162961e-01 2.278653e-01 1.400937e-01 7.842697e-02 6.661189e-02 9.758082e-02 1.447449e-01 1.883970e-01 2.233234e-01 2.500155e-01 2.680772e-01 2.786408e-01 2.837846e-01 2.855189e-01 2.858577e-01 2.859571e-01 2.861922e-01 2.860770e-01 2.842717e-01 2.787687e-01 2.679679e-01 2.501828e-01 2.239556e-01 1.889629e-01 1.454874e-01 9.851687e-02 6.678983e-02 7.751951e-02 1.382552e-01 2.257677e-01 3.142726e-01 3.969285e-01 4.730584e-01 5.432123e-01 6.075668e-01 6.663342e-01 7.193647e-01 7.664395e-01 8.074700e-01 8.425565e-01 8.720709e-01 8.964466e-01 9.161793e-01 9.316927e-01 9.433744e-01 9.515139e-01 9.563304e-01 
9.500071e-01 9.482534e-01 9.428877e-01 9.338113e-01 9.208296e-01 9.036854e-01 8.820125e-01 8.553925e-01 8.232734e-01 7.851056e-01 7.403576e-01 6.888265e-01 6.304940e-01 5.655742e-01 4.941431e-01 4.159316e-01 3.307844e-01 2.382750e-01 1.439906e-01 7.735630e-02 6.844335e-02 1.087931e-01 1.649571e-01 2.180854e-01 2.633603e-01 2.988761e-01 3.244542e-01 3.407397e-01 3.494955e-01 3.530109e-01 3.535321e-01 3.530835e-01 3.528881e-01 3.533890e-01 3.540148e-01 3.534126e-01 3.495986e-01 3.406659e-01 3.245835e-01 2.993832e-01 2.639609e-01 2.190363e-01 1.662306e-01 1.098140e-01 6.878516e-02 7.636003e-02 1.419461e-01 2.361776e-01 3.285891e-01 4.137027e-01 4.919074e-01 5.633732e-01 6.283736e-01 6.868390e-01 7.385643e-01 7.835497e-01 8.219839e-01 8.543639e-01 8.812230e-01 9.031015e-01 9.204163e-01 9.335347e-01 9.427206e-01 9.481758e-01 
9.410417e-01 9.390460e-01 9.329759e-01 9.227643e-01 9.082574e-01 8.892565e-01 8.654493e-01 8.364634e-01 8.017279e-01 7.606375e-01 7.124655e-01 6.567924e-01 5.934554e-01 5.226271e-01 4.443217e-01 3.581332e-01 2.637941e-01 1.639906e-01 8.519939e-02 6.784812e-02 1.098183e-01 1.731035e-01 2.352749e-01 2.907160e-01 3.364072e-01 3.714746e-01 3.963363e-01 4.118918e-01 4.199616e-01 4.228344e-01 4.228358e-01 4.220031e-01 4.216502e-01 4.222491e-01 4.232131e-01 4.231465e-01 4.200595e-01 4.118850e-01 3.964903e-01 3.719519e-01 3.370795e-01 2.917060e-01 2.365075e-01 1.743436e-01 1.110946e-01 6.822566e-02 8.401083e-02 1.617743e-01 2.611561e-01 3.555291e-01 4.417970e-01 5.202022e-01 5.911464e-01 6.546360e-01 7.105288e-01 7.589669e-01 8.003513e-01 8.353756e-01 8.646260e-01 8.886576e-01 9.078414e-01 9.224914e-01 9.328143e-01 9.389722e-01 
9.310330e-01 9.287622e-01 9.219002e-01 9.104287e-01 8.942631e-01 8.733012e-01 8.473312e-01 8.160716e-01 7.789632e-01 7.353331e-01 6.842273e-01 6.250127e-01 5.571850e-01 4.807973e-01 3.957041e-01 3.016388e-01 1.982173e-01 1.043348e-01 6.743114e-02 1.009733e-01 1.677420e-01 2.376449e-01 3.021292e-01 3.586096e-01 4.048987e-01 4.402346e-01 4.650171e-01 4.804482e-01 4.884473e-01 4.913008e-01 4.913199e-01 4.904876e-01 4.901142e-01 4.906708e-01 4.915973e-01 4.915359e-01 4.885481e-01 4.805018e-01 4.652094e-01 4.407096e-01 4.056178e-01 3.596490e-01 3.034569e-01 2.391429e-01 1.694182e-01 1.022717e-01 6.734326e-02 1.023986e-01 1.952734e-01 2.987543e-01 3.930163e-01 4.782034e-01 5.547004e-01 6.226796e-01 6.821307e-01 7.335337e-01 7.774961e-01 8.149296e-01 8.464842e-01 8.727001e-01 8.938575e-01 9.101707e-01 9.217519e-01 9.286961e-01 
9.200145e-01 9.174251e-01 9.096563e-01 8.967573e-01 8.787434e-01 8.556549e-01 8.274348e-01 7.939496e-01 7.546832e-01 7.089028e-01 6.553624e-01 5.931287e-01 5.212077e-01 4.394426e-01 3.479084e-01 2.453745e-01 1.398899e-01 7.445764e-02 8.590834e-02 1.501240e-01 2.242155e-01 2.963698e-01 3.624718e-01 4.199151e-01 4.668351e-01 5.027988e-01 5.283143e-01 5.446052e-01 5.535374e-01 5.572709e-01 5.580136e-01 5.576347e-01 5.574052e-01 5.577653e-01 5.582137e-01 5.574560e-01 5.536580e-01 5.447327e-01 5.285798e-01 5.033218e-01 4.676269e-01 4.210271e-01 3.638864e-01 2.980008e-01 2.259961e-01 1.518084e-01 8.697301e-02 7.367785e-02 1.374250e-01 2.424586e-01 3.452225e-01 4.367851e-01 5.186213e-01 5.906723e-01 6.531559e-01 7.070243e-01 7.531766e-01 7.928034e-01 8.266107e-01 8.550921e-01 8.783810e-01 8.965384e-01 9.095370e-01 9.173743e-01 
9.081023e-01 9.051422e-01 8.963256e-01 8.817871e-01 8.616756e-01 8.362209e-01 8.055865e-01 7.698471e-01 7.285831e-01 6.810008e-01 6.255299e-01 5.608301e-01 4.853002e-01 3.985421e-01 3.008550e-01 1.910694e-01 9.823782e-02 7.326226e-02 1.229797e-01 1.973075e-01 2.739744e-01 3.473568e-01 4.144020e-01 4.726029e-01 5.205640e-01 5.578399e-01 5.849082e-01 6.028992e-01 6.135384e-01 6.188171e-01 6.207912e-01 6.211956e-01 6.212259e-01 6.212865e-01 6.209352e-01 6.189682e-01 6.136772e-01 6.030851e-01 5.852365e-01 5.584096e-01 5.214084e-01 4.737738e-01 4.158913e-01 3.491218e-01 2.759161e-01 1.992779e-01 1.246620e-01 7.367121e-02 9.663814e-02 1.883279e-01 2.980380e-01 3.956646e-01 4.824116e-01 5.581048e-01 6.231219e-01 6.790025e-01 7.270306e-01 7.687129e-01 8.048126e-01 8.357270e-01 8.613843e-01 8.816297e-01 8.962506e-01 9.051142e-01 
8.955013e-01 8.921086e-01 8.820750e-01 8.656342e-01 8.430988e-01 8.149356e-01 7.815977e-01 7.434418e-01 7.002099e-01 6.510867e-01 5.941325e-01 5.276792e-01 4.491155e-01 3.590195e-01 2.545835e-01 1.449569e-01 7.789003e-02 9.168909e-02 1.604504e-01 2.374367e-01 3.146732e-01 3.886460e-01 4.562972e-01 5.155158e-01 5.649496e-01 6.042018e-01 6.335894e-01 6.540674e-01 6.671436e-01 6.745935e-01 6.782812e-01 6.797783e-01 6.801818e-01 6.798460e-01 6.783959e-01 6.747350e-01 6.673111e-01 6.543109e-01 6.339803e-01 6.048197e-01 5.658380e-01 5.167258e-01 4.578353e-01 3.904910e-01 3.167248e-01 2.395660e-01 1.624229e-01 9.307161e-02 7.707974e-02 1.423994e-01 2.514874e-01 3.558737e-01 4.459273e-01 5.247350e-01 5.916023e-01 6.490645e-01 6.987146e-01 7.424190e-01 7.809628e-01 8.145835e-01 8.429345e-01 8.655774e-01 8.820684e-01 8.921148e-01 
8.825348e-01 8.786450e-01 8.672125e-01 8.485764e-01 8.232365e-01 7.919344e-01 7.554865e-01 7.146066e-01 6.693009e-01 6.187743e-01 5.607899e-01 4.933015e-01 4.127913e-01 3.208624e-01 2.119438e-01 1.113527e-01 7.393546e-02 1.182112e-01 1.909780e-01 2.685265e-01 3.453940e-01 4.195787e-01 4.877825e-01 5.482704e-01 5.996646e-01 6.414549e-01 6.737532e-01 6.972686e-01 7.132631e-01 7.232751e-01 7.289630e-01 7.317332e-01 7.325734e-01 7.317868e-01 7.290603e-01 7.234114e-01 7.134478e-01 6.975436e-01 6.741724e-01 6.420829e-01 6.005463e-01 5.494597e-01 4.893041e-01 4.214368e-01 3.475273e-01 2.707999e-01 1.931692e-01 1.200428e-01 7.400179e-02 1.090376e-01 2.082335e-01 3.168116e-01 4.089288e-01 4.899300e-01 5.580742e-01 6.167457e-01 6.679254e-01 7.137746e-01 7.550688e-01 7.917917e-01 8.232514e-01 8.486573e-01 8.672973e-01 8.786960e-01 
8.696214e-01 8.651738e-01 8.521647e-01 8.310326e-01 8.024715e-01 7.675179e-01 7.274174e-01 6.833107e-01 6.356223e-01 5.836009e-01 5.249961e-01 4.570140e-01 3.763277e-01 2.827672e-01 1.747175e-01 8.948172e-02 8.052695e-02 1.412774e-01 2.138884e-01 2.903804e-01 3.665976e-01 4.406098e-01 5.094800e-01 5.714697e-01 6.251717e-01 6.698689e-01 7.054320e-01 7.323013e-01 7.514797e-01 7.642685e-01 7.721156e-01 7.762614e-01 7.775770e-01 7.763096e-01 7.722083e-01 7.644082e-01 7.516789e-01 7.325928e-01 7.058549e-01 6.704723e-01 6.259940e-01 5.725619e-01 5.108777e-01 4.423462e-01 3.686616e-01 2.927029e-01 2.163133e-01 1.436117e-01 8.177356e-02 8.826497e-02 1.711870e-01 2.782750e-01 3.721998e-01 4.535424e-01 5.224103e-01 5.818492e-01 6.346157e-01 6.828716e-01 7.273707e-01 7.676935e-01 8.027383e-01 8.312966e-01 8.523666e-01 8.652810e-01 
8.572831e-01 8.522349e-01 8.375145e-01 8.136417e-01 7.814904e-01 7.423885e-01 6.980494e-01 6.501108e-01 5.995718e-01 5.458444e-01 4.869728e-01 4.193454e-01 3.405832e-01 2.472776e-01 1.442210e-01 7.694306e-02 9.209684e-02 1.571454e-01 2.288335e-01 3.037097e-01 3.792155e-01 4.530195e-01 5.226795e-01 5.863306e-01 6.425129e-01 6.902472e-01 7.291652e-01 7.594333e-01 7.818099e-01 7.973693e-01 8.073620e-01 8.128735e-01 8.146617e-01 8.129178e-01 8.074494e-01 7.975045e-01 7.820035e-01 7.597087e-01 7.295471e-01 6.907692e-01 6.432019e-01 5.872287e-01 5.238253e-01 4.544639e-01 3.809989e-01 3.058387e-01 2.312527e-01 1.595700e-01 9.358181e-02 7.582042e-02 1.406377e-01 2.427440e-01 3.366219e-01 4.162591e-01 4.849298e-01 5.447212e-01 5.992054e-01 6.502671e-01 6.985138e-01 7.429761e-01 7.820684e-01 8.141248e-01 8.378531e-01 8.524065e-01 
8.460849e-01 8.404251e-01 8.239458e-01 7.972155e-01 7.612469e-01 7.176220e-01 6.685073e-01 6.160874e-01 5.620335e-01 5.061475e-01 4.469214e-01 3.803455e-01 3.045462e-01 2.145945e-01 1.192474e-01 7.066412e-02 1.032945e-01 1.680498e-01 2.380596e-01 3.109984e-01 3.855149e-01 4.590050e-01 5.294310e-01 5.947051e-01 6.532937e-01 7.039293e-01 7.460199e-01 7.794744e-01 8.048318e-01 8.229647e-01 8.349468e-01 8.417253e-01 8.439533e-01 8.417683e-01 8.350314e-01 8.230946e-01 8.050130e-01 7.797198e-01 7.463396e-01 7.043387e-01 6.537999e-01 5.953270e-01 5.301805e-01 4.599014e-01 3.865680e-01 3.121792e-01 2.393341e-01 1.692170e-01 1.042740e-01 6.985875e-02 1.161974e-01 2.111621e-01 3.018960e-01 3.785872e-01 4.461022e-01 5.061288e-01 5.626146e-01 6.170256e-01 6.695850e-01 7.186729e-01 7.621584e-01 7.979261e-01 8.244236e-01 8.406618e-01 
8.366089e-01 8.303755e-01 8.122261e-01 7.827446e-01 7.430256e-01 6.948422e-01 6.407412e-01 5.834624e-01 5.253624e-01 4.669066e-01 4.071044e-01 3.422374e-01 2.700761e-01 1.857974e-01 9.966551e-02 6.788639e-02 1.106000e-01 1.740906e-01 2.425154e-01 3.138099e-01 3.874020e-01 4.606368e-01 5.317618e-01 5.984913e-01 6.592075e-01 7.123800e-01 7.572256e-01 7.934294e-01 8.213496e-01 8.416880e-01 8.553727e-01 8.632353e-01 8.658398e-01 8.632751e-01 8.554499e-01 8.418032e-01 8.215025e-01 7.936227e-01 7.574546e-01 7.126430e-01 6.594912e-01 5.987917e-01 5.320629e-01 4.609333e-01 3.876734e-01 3.140410e-01 2.427174e-01 1.743535e-01 1.112688e-01 6.801350e-02 9.829625e-02 1.843492e-01 2.693192e-01 3.421800e-01 4.077388e-01 4.681133e-01 5.269402e-01 5.851909e-01 6.424231e-01 6.963434e-01 7.442594e-01 7.836749e-01 8.128378e-01 8.306738e-01 
8.293855e-01 8.226777e-01 8.031321e-01 7.713180e-01 7.283540e-01 6.761238e-01 6.174326e-01 5.554971e-01 4.932636e-01 4.320292e-01 3.713488e-01 3.084204e-01 2.403139e-01 1.628792e-01 8.633782e-02 6.712859e-02 1.145733e-01 1.768371e-01 2.438152e-01 3.139662e-01 3.868656e-01 4.599747e-01 5.316852e-01 5.995816e-01 6.619745e-01 7.171253e-01 7.641074e-01 8.024317e-01 8.323224e-01 8.543524e-01 8.693417e-01 8.780350e-01 8.809284e-01 8.780731e-01 8.694140e-01 8.544567e-01 8.324532e-01 8.025840e-01 7.642657e-01 7.172760e-01 6.620905e-01 5.996479e-01 5.316758e-01 4.598928e-01 3.867086e-01 3.137941e-01 2.437036e-01 1.770121e-01 1.152047e-01 6.751827e-02 8.543441e-02 1.620730e-01 2.404198e-01 3.093332e-01 3.728892e-01 4.340312e-01 4.954888e-01 5.577424e-01 6.195112e-01 6.779260e-01 7.298069e-01 7.724007e-01 8.038383e-01 8.230207e-01 
8.248497e-01 8.178241e-01 7.973338e-01 7.639251e-01 7.187059e-01 6.636007e-01 6.015400e-01 5.360513e-01 4.704600e-01 4.067878e-01 3.450243e-01 2.834346e-01 2.184940e-01 1.466107e-01 7.777546e-02 6.693938e-02 1.166190e-01 1.782229e-01 2.441101e-01 3.134823e-01 3.858551e-01 4.588575e-01 5.309140e-01 5.995465e-01 6.630012e-01 7.194097e-01 7.677492e-01 8.074199e-01 8.385601e-01 8.616616e-01 8.774766e-01 8.866954e-01 8.897716e-01 8.867306e-01 8.775419e-01 8.617521e-01 8.386659e-01 8.075293e-01 7.678383e-01 7.194548e-01 6.629642e-01 5.994033e-01 5.306326e-01 4.584458e-01 3.853248e-01 3.129288e-01 2.436338e-01 1.780662e-01 1.169340e-01 6.724043e-02 7.704281e-02 1.460732e-01 2.190514e-01 2.848772e-01 3.470698e-01 4.092381e-01 4.730618e-01 5.386123e-01 6.038763e-01 6.656093e-01 7.203157e-01 7.651196e-01 7.981099e-01 8.181993e-01 
8.232990e-01 8.161628e-01 7.953423e-01 7.613710e-01 7.153465e-01 6.591962e-01 5.958773e-01 5.290123e-01 4.620447e-01 3.972944e-01 3.349391e-01 2.738099e-01 2.101775e-01 1.407081e-01 7.501839e-02 6.690651e-02 1.170886e-01 1.784197e-01 2.439416e-01 3.130623e-01 3.852811e-01 4.582716e-01 5.304751e-01 5.993829e-01 6.632243e-01 7.200805e-01 7.688991e-01 8.090396e-01 8.406137e-01 8.640851e-01 8.801846e-01 8.895840e-01 8.927232e-01 8.896194e-01 8.802499e-01 8.641751e-01 8.407176e-01 8.091448e-01 7.689802e-01 7.201134e-01 6.631698e-01 5.992186e-01 5.301705e-01 4.578444e-01 3.847493e-01 3.125402e-01 2.435260e-01 1.783512e-01 1.174573e-01 6.714239e-02 7.418716e-02 1.401914e-01 2.107972e-01 2.753213e-01 3.370374e-01 3.997844e-01 4.646727e-01 5.315978e-01 5.982362e-01 6.612279e-01 7.169768e-01 7.625828e-01 7.961306e-01 8.165446e-01 
8.248497e-01 8.178241e-01 7.973338e-01 7.639251e-01 7.187059e-01 6.636007e-01 6.015400e-01 5.360513e-01 4.704600e-01 4.067878e-01 3.450243e-01 2.834346e-01 2.184940e-01 1.466107e-01 7.777546e-02 6.693938e-02 1.166190e-01 1.782229e-01 2.441101e-01 3.134823e-01 3.858551e-01 4.588575e-01 5.309140e-01 5.995465e-01 6.630012e-01 7.194097e-01 7.677492e-01 8.074199e-01 8.385601e-01 8.616616e-01 8.774766e-01 8.866954e-01 8.897716e-01 8.867306e-01 8.775419e-01 8.617521e-01 8.386659e-01 8.075293e-01 7.678383e-01 7.194548e-01 6.629642e-01 5.994033e-01 5.306326e-01 4.584458e-01 3.853248e-01 3.129288e-01 2.436338e-01 1.780662e-01 1.169340e-01 6.724043e-02 7.704281e-02 1.460732e-01 2.190514e-01 2.848772e-01 3.470698e-01 4.092381e-01 4.730618e-01 5.386123e-01 6.038763e-01 6.656093e-01 7.203157e-01 7.651196e-01 7.981099e-01 8.181993e-01 
8.293855e-01 8.226777e-01 8.031321e-01 7.713180e-01 7.283540e-01 6.761238e-01 6.174326e-01 5.554971e-01 4.932636e-01 4.320292e-01 3.713488e-01 3.084204e-01 2.403139e-01 1.628792e-01 8.633782e-02 6.712859e-02 1.145733e-01 1.768371e-01 2.438152e-01 3.139662e-01 3.868656e-01 4.599747e-01 5.316852e-01 5.995816e-01 6.619745e-01 7.171253e-01 7.641074e-01 8.024317e-01 8.323224e-01 8.543524e-01 8.693417e-01 8.780350e-01 8.809284e-01 8.780731e-01 8.694140e-01 8.544567e-01 8.324532e-01 8.025840e-01 7.642657e-01 7.172760e-01 6.620905e-01 5.996479e-01 5.316758e-01 4.598928e-01 3.867086e-01 3.137941e-01 2.437036e-01 1.770121e-01 1.152047e-01 6.751827e-02 8.543441e-02 1.620730e-01 2.404198e-01 3.093332e-01 3.728892e-01 4.340312e-01 4.954888e-01 5.577424e-01 6.195112e-01 6.779260e-01 7.298069e-01 7.724007e-01 8.038383e-01 8.230207e-01 