# vtk DataFile Version 2.0
Comment goes here
ASCII

DATASET STRUCTURED_POINTS
FIELD FieldData 1
TIME 1 1 double
1.06000000
DIMENSIONS    64   64   1

ORIGIN    0.000   0.000   0.000
SPACING   0.015625 0.015625   1.000

POINT_DATA   4096
SCALARS Omega double
LOOKUP_TABLE default

-7.851231e-14 -7.193069e-14 -5.929122e-14 -4.886583e-14 -4.497555e-14 -3.671141e-14 -2.208647e-14 -6.320418e-15 2.278882e-14 5.446322e-14 9.008703e-14 1.732786e-13 3.207164e-13 5.235628e-13 7.999567e-13 1.092022e-12 1.433389e-12 1.913870e-12 2.480073e-12 3.054061e-12 3.663077e-12 4.262499e-12 4.862940e-12 5.340231e-12 5.614971e-12 5.713520e-12 5.534050e-12 5.021829e-12 4.248265e-12 3.134938e-12 1.757617e-12 1.832208e-13 -1.470055e-12 -3.117577e-12 -4.606367e-12 -5.769926e-12 -6.594115e-12 -7.011272e-12 -7.036990e-12 -6.747761e-12 -6.173133e-12 -5.447459e-12 -4.674260e-12 -3.924324e-12 -3.185645e-12 -2.534149e-12 -1.999766e-12 -1.552160e-12 -1.173519e-12 -9.216287e-13 -7.132257e-13 -5.239215e-13 -4.035181e-13 -3.123508e-13 -2.586318e-13 -2.028377e-13 -1.561286e-13 -1.264553e-13 -9.060866e-14 -6.034540e-14 -5.655051e-14 -6.335323e-14 -6.296022e-14 -7.045895e-14 
-2.491796e-04 5.311873e-03 1.072486e-02 1.583223e-02 2.047165e-02 2.446494e-02 2.762026e-02 2.971737e-02 3.051407e-02 2.972706e-02 2.704959e-02 2.213180e-02 1.461823e-02 4.136423e-03 -9.639288e-03 -2.697968e-02 -4.801506e-02 -7.269954e-02 -1.007283e-01 -1.314747e-01 -1.639568e-01 -1.967557e-01 -2.280845e-01 -2.557066e-01 -2.771424e-01 -2.896625e-01 -2.906333e-01 -2.777704e-01 -2.495439e-01 -2.057732e-01 -1.477729e-01 -7.880364e-02 -3.553184e-03 7.223786e-02 1.427251e-01 2.029271e-01 2.491919e-01 2.797972e-01 2.946113e-01 2.949726e-01 2.831367e-01 2.618092e-01 2.338704e-01 2.019582e-01 1.684428e-01 1.352196e-01 1.037589e-01 7.508896e-02 4.983991e-02 2.832722e-02 1.058970e-02 -3.511735e-03 -1.425130e-02 -2.197392e-02 -2.704979e-02 -2.985653e-02 -3.073791e-02 -3.002021e-02 -2.797939e-02 -2.487203e-02 -2.091181e-02 -1.629978e-02 -1.120910e-02 -5.807647e-03 
-5.006154e-04 1.063717e-02 2.147760e-02 3.170448e-02 4.099202e-02 4.898280e-02 5.529175e-02 5.947661e-02 6.104986e-02 5.944101e-02 5.402983e-02 4.410924e-02 2.895627e-02 7.814843e-03 -1.998455e-02 -5.499750e-02 -9.750761e-02 -1.474372e-01 -2.041987e-01 -2.665472e-01 -3.325304e-01 -3.993045e-01 -4.632835e-01 -5.199556e-01 -5.642957e-01 -5.907136e-01 -5.937544e-01 -5.685671e-01 -5.118009e-01 -4.228382e-01 -3.042146e-01 -1.625962e-01 -7.741255e-03 1.483012e-01 2.932604e-01 4.167094e-01 5.111151e-01 5.730283e-01 6.023821e-01 6.021176e-01 5.770458e-01 5.328103e-01 4.753576e-01 4.100680e-01 3.417462e-01 2.741999e-01 2.103710e-01 1.522958e-01 1.012177e-01 5.774000e-02 2.192250e-02 -6.537313e-03 -2.820214e-02 -4.378029e-02 -5.402266e-02 -5.969696e-02 -6.149764e-02 -6.008457e-02 -5.601351e-02 -4.980119e-02 -4.187681e-02 -3.264413e-02 -2.245063e-02 -1.163324e-02 
-7.576303e-04 1.599599e-02 3.230053e-02 4.767866e-02 6.163875e-02 7.364140e-02 8.310508e-02 8.936073e-02 9.166949e-02 8.916399e-02 8.089985e-02 6.579545e-02 4.274493e-02 1.058235e-02 -3.172374e-02 -8.504764e-02 -1.498428e-01 -2.260342e-01 -3.127588e-01 -4.081733e-01 -5.093438e-01 -6.119929e-01 -7.107066e-01 -7.986487e-01 -8.681726e-01 -9.106608e-01 -9.175611e-01 -8.810306e-01 -7.953494e-01 -6.590026e-01 -4.754799e-01 -2.550646e-01 -1.323279e-02 2.306554e-01 4.568331e-01 6.486534e-01 7.942888e-01 8.886625e-01 9.320970e-01 9.296376e-01 8.891058e-01 8.194467e-01 7.299536e-01 6.289120e-01 5.236589e-01 4.199548e-01 3.222070e-01 2.334529e-01 1.555080e-01 8.924379e-02 3.470007e-02 -8.610450e-03 -4.157099e-02 -6.527333e-02 -8.087177e-02 -8.954124e-02 -9.234173e-02 -9.027909e-02 -8.419736e-02 -7.488089e-02 -6.297872e-02 -4.910147e-02 -3.377347e-02 -1.750356e-02 
-1.021912e-03 2.142157e-02 4.326016e-02 6.385133e-02 8.253326e-02 9.857965e-02 1.112061e-01 1.195093e-01 1.224882e-01 1.189668e-01 1.076597e-01 8.709624e-02 5.576495e-02 1.207716e-02 -4.538729e-02 -1.178265e-01 -2.058902e-01 -3.094942e-01 -4.275121e-01 -5.574623e-01 -6.954132e-01 -8.355991e-01 -9.707685e-01 -1.091748e+00 -1.188314e+00 -1.248774e+00 -1.261338e+00 -1.214707e+00 -1.100200e+00 -9.147313e-01 -6.623428e-01 -3.570492e-01 -2.070305e-02 3.188807e-01 6.332616e-01 8.986821e-01 1.098668e+00 1.226610e+00 1.283690e+00 1.277537e+00 1.219495e+00 1.122111e+00 9.982819e-01 8.592980e-01 7.151212e-01 5.734752e-01 4.402530e-01 3.194694e-01 2.135137e-01 1.234946e-01 4.943038e-02 -9.379582e-03 -5.414314e-02 -8.636095e-02 -1.075996e-01 -1.194635e-01 -1.233900e-01 -1.207486e-01 -1.126825e-01 -1.002554e-01 -8.434397e-02 -6.577269e-02 -4.524800e-02 -2.345529e-02 
-1.298756e-03 2.696728e-02 5.446662e-02 8.038533e-02 1.038843e-01 1.240418e-01 1.398604e-01 1.501897e-01 1.537527e-01 1.490487e-01 1.344391e-01 1.080490e-01 6.796182e-02 1.215821e-02 -6.114719e-02 -1.534729e-01 -2.656118e-01 -3.974467e-01 -5.474940e-01 -7.125688e-01 -8.876159e-01 -1.065311e+00 -1.236547e+00 -1.389946e+00 -1.513035e+00 -1.591424e+00 -1.610419e+00 -1.555163e+00 -1.413421e+00 -1.179767e+00 -8.579872e-01 -4.655692e-01 -3.108623e-02 4.082495e-01 8.142569e-01 1.155505e+00 1.410744e+00 1.572326e+00 1.642738e+00 1.632606e+00 1.556897e+00 1.431646e+00 1.273315e+00 1.096102e+00 9.125906e-01 7.324810e-01 5.631538e-01 4.096586e-01 2.749608e-01 1.604653e-01 6.617824e-02 -8.770124e-03 -6.590102e-02 -1.071015e-01 -1.343469e-01 -1.496712e-01 -1.548963e-01 -1.517688e-01 -1.417435e-01 -1.261794e-01 -1.061919e-01 -8.283157e-02 -5.699512e-02 -2.955252e-02 
-1.589414e-03 3.271627e-02 6.608461e-02 9.752088e-02 1.259980e-01 1.503857e-01 1.694583e-01 1.818023e-01 1.858489e-01 1.797627e-01 1.615475e-01 1.289397e-01 7.964006e-02 1.125832e-02 -7.830331e-02 -1.907759e-01 -3.270217e-01 -4.867342e-01 -6.679696e-01 -8.666219e-01 -1.076376e+00 -1.288156e+00 -1.491073e+00 -1.671823e+00 -1.816556e+00 -1.909253e+00 -1.933483e+00 -1.871205e+00 -1.706403e+00 -1.430443e+00 -1.045798e+00 -5.725625e-01 -4.554118e-02 4.884261e-01 9.811760e-01 1.393808e+00 1.700889e+00 1.894322e+00 1.978323e+00 1.966229e+00 1.876163e+00 1.726854e+00 1.537854e+00 1.325799e+00 1.105791e+00 8.893957e-01 6.855479e-01 5.003543e-01 3.374706e-01 1.986594e-01 8.404076e-02 -7.351753e-03 -7.724061e-02 -1.278399e-01 -1.614621e-01 -1.805432e-01 -1.872650e-01 -1.837539e-01 -1.717820e-01 -1.530191e-01 -1.288356e-01 -1.005233e-01 -6.918323e-02 -3.588116e-02 
-1.902245e-03 3.878337e-02 7.834855e-02 1.156049e-01 1.493216e-01 1.781422e-01 2.005925e-01 2.149786e-01 2.194284e-01 2.117747e-01 1.896923e-01 1.505814e-01 9.186226e-02 1.088710e-02 -9.457697e-02 -2.263306e-01 -3.850904e-01 -5.702209e-01 -7.790728e-01 -1.006445e+00 -1.244455e+00 -1.482113e+00 -1.706713e+00 -1.903639e+00 -2.059171e+00 -2.157864e+00 -2.184122e+00 -2.117820e+00 -1.938724e+00 -1.634059e+00 -1.203418e+00 -6.675585e-01 -6.603051e-02 5.451286e-01 1.108082e+00 1.577787e+00 1.926142e+00 2.146051e+00 2.243786e+00 2.234802e+00 2.138644e+00 1.974604e+00 1.764237e+00 1.525781e+00 1.276594e+00 1.030061e+00 7.966365e-01 5.836098e-01 3.953576e-01 2.341643e-01 1.003712e-01 -6.892673e-03 -8.939404e-02 -1.494987e-01 -1.897199e-01 -2.127892e-01 -2.211777e-01 -2.173591e-01 -2.034111e-01 -1.813251e-01 -1.527408e-01 -1.192128e-01 -8.206415e-02 -4.257297e-02 
-2.237410e-03 4.533278e-02 9.158222e-02 1.351103e-01 1.744624e-01 2.080323e-01 2.340764e-01 2.506073e-01 2.554549e-01 2.461599e-01 2.201481e-01 1.746271e-01 1.069203e-01 1.437294e-02 -1.051565e-01 -2.532707e-01 -4.304069e-01 -6.354109e-01 -8.649254e-01 -1.112459e+00 -1.368497e+00 -1.619747e+00 -1.851695e+00 -2.048779e+00 -2.199603e+00 -2.292603e+00 -2.316784e+00 -2.251438e+00 -2.071167e+00 -1.758346e+00 -1.308689e+00 -7.406333e-01 -9.512150e-02 5.632024e-01 1.167600e+00 1.670170e+00 2.043117e+00 2.281888e+00 2.394887e+00 2.397298e+00 2.306873e+00 2.140992e+00 1.922057e+00 1.668927e+00 1.401314e+00 1.134244e+00 8.797468e-01 6.461325e-01 4.384680e-01 2.594780e-01 1.098365e-01 -1.112142e-02 -1.049482e-01 -1.739360e-01 -2.205323e-01 -2.475718e-01 -2.576529e-01 -2.535066e-01 -2.374652e-01 -2.118310e-01 -1.785229e-01 -1.393776e-01 -9.596381e-02 -4.979288e-02 
-2.606269e-03 5.256252e-02 1.061874e-01 1.566332e-01 2.021954e-01 2.409948e-01 2.709999e-01 2.899359e-01 2.953747e-01 2.846662e-01 2.551625e-01 2.041284e-01 1.291198e-01 2.779782e-02 -1.015585e-01 -2.602236e-01 -4.483097e-01 -6.644460e-01 -9.048726e-01 -1.162334e+00 -1.425696e+00 -1.679136e+00 -1.905102e+00 -2.086907e+00 -2.217149e+00 -2.293241e+00 -2.315870e+00 -2.264612e+00 -2.101695e+00 -1.804819e+00 -1.367154e+00 -7.989443e-01 -1.374561e-01 5.406175e-01 1.156587e+00 1.664502e+00 2.041557e+00 2.288663e+00 2.417017e+00 2.440557e+00 2.368717e+00 2.212512e+00 1.994899e+00 1.735897e+00 1.458404e+00 1.179952e+00 9.139590e-01 6.694259e-01 4.513579e-01 2.624319e-01 1.032550e-01 -2.669126e-02 -1.286360e-01 -2.045086e-01 -2.563518e-01 -2.867741e-01 -2.982246e-01 -2.935033e-01 -2.750772e-01 -2.455097e-01 -2.069858e-01 -1.616395e-01 -1.113082e-01 -5.776195e-02 
-3.005002e-03 6.073474e-02 1.226792e-01 1.809296e-01 2.335051e-01 2.782305e-01 3.127867e-01 3.346498e-01 3.412417e-01 3.299222e-01 2.982748e-01 2.440294e-01 1.654085e-01 6.078638e-02 -7.099533e-02 -2.310327e-01 -4.198720e-01 -6.370345e-01 -8.801427e-01 -1.142711e+00 -1.413269e+00 -1.672450e+00 -1.896813e+00 -2.063901e+00 -2.170551e+00 -2.229471e+00 -2.261895e+00 -2.251190e+00 -2.121344e+00 -1.852235e+00 -1.444412e+00 -8.872756e-01 -2.003732e-01 5.069827e-01 1.126497e+00 1.626556e+00 1.996368e+00 2.248156e+00 2.397592e+00 2.454379e+00 2.402256e+00 2.249686e+00 2.023167e+00 1.746539e+00 1.450602e+00 1.157537e+00 8.825407e-01 6.339916e-01 4.150198e-01 2.263235e-01 6.710204e-02 -6.395980e-02 -1.680346e-01 -2.466458e-01 -3.010607e-01 -3.332471e-01 -3.450806e-01 -3.391075e-01 -3.177069e-01 -2.835761e-01 -2.391170e-01 -1.867516e-01 -1.286065e-01 -6.673510e-02 
-3.443538e-03 7.012504e-02 1.416138e-01 2.088313e-01 2.694942e-01 3.211268e-01 3.611505e-01 3.869020e-01 3.958542e-01 3.857274e-01 3.548003e-01 3.018168e-01 2.261555e-01 1.270929e-01 3.722073e-03 -1.461111e-01 -3.254883e-01 -5.381836e-01 -7.871490e-01 -1.071167e+00 -1.380908e+00 -1.692384e+00 -1.965865e+00 -2.160146e+00 -2.261966e+00 -2.307210e+00 -2.379435e+00 -2.488226e+00 -2.409332e+00 -2.153954e+00 -1.760598e+00 -1.155857e+00 -3.012007e-01 5.768329e-01 1.270586e+00 1.792587e+00 2.152303e+00 2.396599e+00 2.561383e+00 2.680651e+00 2.643594e+00 2.457813e+00 2.164874e+00 1.809424e+00 1.440634e+00 1.094095e+00 7.879693e-01 5.279743e-01 3.110219e-01 1.315436e-01 -1.638977e-02 -1.374553e-01 -2.342545e-01 -3.084496e-01 -3.604332e-01 -3.911075e-01 -4.012253e-01 -3.926001e-01 -3.671468e-01 -3.274672e-01 -2.760534e-01 -2.155713e-01 -1.484371e-01 -7.700805e-02 
-3.906489e-03 8.106755e-02 1.636434e-01 2.413064e-01 3.114585e-01 3.713398e-01 4.182042e-01 4.494438e-01 4.629390e-01 4.572855e-01 4.321030e-01 3.877631e-01 3.251085e-01 2.439053e-01 1.418627e-01 1.254461e-02 -1.548242e-01 -3.750299e-01 -6.647391e-01 -1.036040e+00 -1.487867e+00 -1.988416e+00 -2.464059e+00 -2.810330e+00 -2.958394e+00 -2.955709e+00 -3.062896e+00 -3.534381e+00 -3.551092e+00 -3.260072e+00 -2.820681e+00 -1.984644e+00 -4.786350e-01 1.040344e+00 2.036557e+00 2.700925e+00 3.028626e+00 3.199621e+00 3.347131e+00 3.658766e+00 3.609324e+00 3.296548e+00 2.798061e+00 2.203764e+00 1.615782e+00 1.100768e+00 6.846319e-01 3.677787e-01 1.336375e-01 -3.823789e-02 -1.664390e-01 -2.650694e-01 -3.419578e-01 -4.010414e-01 -4.424893e-01 -4.660043e-01 -4.706502e-01 -4.568652e-01 -4.255590e-01 -3.788404e-01 -3.190699e-01 -2.490373e-01 -1.714206e-01 -8.888402e-02 
-4.388825e-03 9.385290e-02 1.893467e-01 2.792365e-01 3.606155e-01 4.305125e-01 4.861812e-01 5.254192e-01 5.470304e-01 5.512246e-01 5.396849e-01 5.149184e-01 4.788640e-01 4.299251e-01 3.603040e-01 2.523265e-01 7.788725e-02 -2.009241e-01 -6.275809e-01 -1.240434e+00 -2.056715e+00 -3.039164e+00 -4.058017e+00 -4.873642e+00 -5.110099e+00 -4.628137e+00 -4.392980e+00 -6.164182e+00 -6.651091e+00 -6.332805e+00 -5.683332e+00 -4.194792e+00 -8.004895e-01 2.464918e+00 4.340758e+00 5.574680e+00 5.620688e+00 5.238464e+00 5.021930e+00 6.144252e+00 6.174905e+00 5.605536e+00 4.603328e+00 3.449140e+00 2.348917e+00 1.422515e+00 7.158976e-01 2.237618e-01 -9.398342e-02 -2.864547e-01 -3.987148e-01 -4.656807e-01 -5.085030e-01 -5.383582e-01 -5.575147e-01 -5.651513e-01 -5.582780e-01 -5.352729e-01 -4.952934e-01 -4.393870e-01 -3.693974e-01 -2.880279e-01 -1.981273e-01 -1.026432e-01 
-4.849614e-03 1.087853e-01 2.193048e-01 3.235058e-01 4.182221e-01 5.004003e-01 5.675961e-01 6.185065e-01 6.536104e-01 6.755846e-01 6.888978e-01 6.980956e-01 7.044912e-01 7.004806e-01 6.643853e-01 5.543695e-01 3.086017e-01 -1.523633e-01 -9.153070e-01 -2.055862e+00 -3.616576e+00 -5.572987e+00 -7.780475e+00 -9.871849e+00 -1.057245e+01 -9.627344e+00 -7.951438e+00 -4.072059e+00 2.056468e+00 3.971599e+00 4.491573e+00 2.414349e+00 1.394217e-01 -2.362904e+00 -4.875174e+00 -5.344554e+00 -3.846576e+00 1.505202e+00 8.269291e+00 1.274200e+01 1.190553e+01 1.064817e+01 8.542152e+00 6.308179e+00 4.246387e+00 2.502990e+00 1.171571e+00 2.629676e-01 -2.911193e-01 -5.863414e-01 -7.155514e-01 -7.541928e-01 -7.516390e-01 -7.362346e-01 -7.177882e-01 -6.972668e-01 -6.699926e-01 -6.316807e-01 -5.788953e-01 -5.108107e-01 -4.282062e-01 -3.333330e-01 -2.290480e-01 -1.185059e-01 
-5.244359e-03 1.260282e-01 2.538191e-01 3.746068e-01 4.850604e-01 5.822858e-01 6.645705e-01 7.322448e-01 7.883608e-01 8.390557e-01 8.918404e-01 9.521466e-01 1.016156e+00 1.061324e+00 1.036832e+00 8.558051e-01 3.976195e-01 -4.820080e-01 -1.927035e+00 -4.036864e+00 -6.839586e+00 -1.027716e+01 -1.465037e+01 -1.561600e+01 -7.977100e+00 5.481693e+00 7.601218e+00 2.784978e+00 1.222444e+00 -1.958156e+00 -1.761283e+00 -1.271560e+00 1.474049e-02 1.424240e+00 2.190190e+00 2.045722e+00 -9.882462e-01 -4.101053e+00 -9.316081e+00 -6.458291e+00 6.243260e+00 1.518377e+01 1.541401e+01 1.147528e+01 8.086546e+00 4.987491e+00 2.508196e+00 7.731108e-01 -2.985005e-01 -8.645393e-01 -1.094765e+00 -1.134488e+00 -1.085421e+00 -1.010209e+00 -9.363302e-01 -8.718398e-01 -8.120286e-01 -7.499232e-01 -6.785925e-01 -5.943804e-01 -4.962074e-01 -3.853524e-01 -2.643898e-01 -1.365442e-01 
-5.491030e-03 1.456640e-01 2.930096e-01 4.327680e-01 5.616217e-01 6.771714e-01 7.790697e-01 8.701590e-01 9.571674e-01 1.050416e+00 1.160025e+00 1.288872e+00 1.419861e+00 1.499944e+00 1.425983e+00 1.034441e+00 1.121164e-01 -1.580718e+00 -4.254567e+00 -7.964005e+00 -1.247748e+01 -1.677390e+01 -1.073101e+01 2.686645e+00 4.265219e+00 -3.263287e+00 -1.396306e+01 -1.708082e+01 -1.467255e+01 -1.304322e+01 -9.640733e+00 -5.909263e+00 -6.457269e-01 4.808968e+00 8.883523e+00 1.288476e+01 1.414359e+01 1.704393e+01 1.166756e+01 3.792958e-01 -5.747458e+00 -5.615678e+00 8.023145e+00 1.663250e+01 1.463334e+01 9.683789e+00 5.323993e+00 2.159878e+00 1.315310e-01 -9.892029e-01 -1.479325e+00 -1.591770e+00 -1.515296e+00 -1.372487e+00 -1.225347e+00 -1.098275e+00 -9.906442e-01 -8.936359e-01 -7.962701e-01 -6.909153e-01 -5.736752e-01 -4.441043e-01 -3.040828e-01 -1.566697e-01 
-5.482176e-03 1.675181e-01 3.364612e-01 4.974332e-01 6.473787e-01 7.848835e-01 9.117389e-01 1.034414e+00 1.164333e+00 1.316469e+00 1.501478e+00 1.713737e+00 1.909103e+00 1.982231e+00 1.744862e+00 9.198543e-01 -8.367834e-01 -3.886530e+00 -8.557026e+00 -1.412375e+01 -1.637812e+01 -7.927155e+00 1.867207e+00 -3.342315e+00 -1.555814e+01 -2.287159e+01 -1.977648e+01 -1.067886e+01 -4.440356e+00 1.037869e+00 2.754691e+00 1.674038e+00 -5.066262e-02 -1.840809e+00 -3.656821e+00 -2.172063e+00 2.123359e+00 1.040683e+01 1.980064e+01 2.215450e+01 1.554952e+01 3.102345e+00 -3.227098e+00 4.040146e+00 1.476438e+01 1.513552e+01 1.005718e+01 4.797641e+00 1.271942e+00 -7.887081e-01 -1.777462e+00 -2.087387e+00 -2.032237e+00 -1.827735e+00 -1.593103e+00 -1.383921e+00 -1.210578e+00 -1.065153e+00 -9.325144e-01 -8.000419e-01 -6.598269e-01 -5.087735e-01 -3.474713e-01 -1.784856e-01 
-5.097511e-03 1.912059e-01 3.833456e-01 5.674458e-01 7.410703e-01 9.043824e-01 1.062283e+00 1.225973e+00 1.412528e+00 1.640982e+00 1.918836e+00 2.222060e+00 2.461965e+00 2.453592e+00 1.893359e+00 3.636759e-01 -2.602058e+00 -7.396428e+00 -1.293453e+01 -1.622440e+01 -9.123048e+00 -1.861803e+00 -1.004601e+01 -2.189429e+01 -1.910433e+01 -3.100692e+00 1.324055e+01 1.612116e+01 1.063428e+01 7.941159e+00 4.666082e+00 2.050699e+00 -1.856727e-02 -2.097193e+00 -4.721367e+00 -7.640342e+00 -1.091851e+01 -1.537200e+01 -1.192547e+01 2.019576e+00 1.721218e+01 2.140987e+01 1.140682e+01 1.750638e+00 5.631038e+00 1.294717e+01 1.292696e+01 8.587791e+00 3.232089e+00 -1.267028e-01 -1.887574e+00 -2.562363e+00 -2.610533e+00 -2.369138e+00 -2.041350e+00 -1.732274e+00 -1.474355e+00 -1.265189e+00 -1.086671e+00 -9.203092e-01 -7.530041e-01 -5.778557e-01 -3.934330e-01 -2.013524e-01 
-4.181153e-03 2.160014e-01 4.321149e-01 6.405588e-01 8.399432e-01 1.032722e+00 1.227907e+00 1.442537e+00 1.699703e+00 2.021069e+00 2.404709e+00 2.796546e+00 3.042725e+00 2.858381e+00 1.810982e+00 -6.236720e-01 -4.896797e+00 -9.789569e+00 -1.545340e+01 -1.328702e+01 -5.241690e+00 -1.216499e+01 -1.680817e+01 -4.636103e+00 5.814822e+00 9.661129e+00 1.103185e+01 1.080594e+01 9.051237e+00 6.962784e+00 4.493231e+00 2.162828e+00 9.546384e-02 -1.946061e+00 -4.198970e+00 -6.526815e+00 -8.640496e+00 -1.007637e+01 -9.975300e+00 -9.387307e+00 -6.511358e+00 2.016567e+00 1.514622e+01 1.380966e+01 6.956069e+00 1.182572e+01 1.342656e+01 1.033532e+01 5.754026e+00 1.011402e+00 -1.722918e+00 -2.942985e+00 -3.204094e+00 -2.974405e+00 -2.560586e+00 -2.139670e+00 -1.779506e+00 -1.491001e+00 -1.255418e+00 -1.048225e+00 -8.499438e-01 -6.486649e-01 -4.400460e-01 -2.242177e-01 
-2.629959e-03 2.408585e-01 4.806393e-01 7.136818e-01 9.401425e-01 1.165510e+00 1.403903e+00 1.678931e+00 2.019438e+00 2.446537e+00 2.941052e+00 3.404922e+00 3.604199e+00 3.149461e+00 1.531177e+00 -1.758558e+00 -6.613223e+00 -1.614255e+01 -1.990380e+01 -9.697996e+00 -8.903993e+00 -1.093712e+01 -1.408919e+00 5.209620e+00 6.995096e+00 7.499752e+00 7.770688e+00 7.575182e+00 6.695466e+00 5.326682e+00 3.628994e+00 1.862295e+00 1.499149e-01 -1.542245e+00 -3.255560e+00 -4.875320e+00 -6.185361e+00 -6.939296e+00 -7.042253e+00 -6.902661e+00 -6.530824e+00 -5.276547e+00 8.400024e-02 8.095728e+00 9.167029e+00 1.119101e+01 1.828858e+01 1.557383e+01 7.502893e+00 2.562913e+00 -1.200905e+00 -3.140106e+00 -3.749961e+00 -3.603885e+00 -3.128899e+00 -2.593613e+00 -2.118172e+00 -1.736309e+00 -1.433180e+00 -1.178706e+00 -9.462689e-01 -7.177249e-01 -4.848955e-01 -2.458075e-01 
-3.391264e-04 2.643965e-01 5.261051e-01 7.826523e-01 1.036250e+00 1.296109e+00 1.582210e+00 1.924897e+00 2.357381e+00 2.895798e+00 3.494234e+00 3.999733e+00 4.089387e+00 3.306929e+00 1.252475e+00 -1.866718e+00 -1.207064e+01 -2.494925e+01 -1.455012e+01 -2.648002e+00 -5.493656e+00 -1.265117e+00 3.536422e+00 4.092464e+00 4.749230e+00 5.109773e+00 5.308426e+00 5.210562e+00 4.705333e+00 3.832948e+00 2.695451e+00 1.437026e+00 1.554340e-01 -1.114593e+00 -2.344225e+00 -3.443759e+00 -4.286559e+00 -4.764208e+00 -4.867724e+00 -4.745312e+00 -4.467548e+00 -3.951266e+00 -3.406132e+00 -1.736019e-01 2.287046e+00 2.581306e+00 1.348155e+01 2.389821e+01 1.558870e+01 4.519994e+00 -1.548603e-01 -3.064980e+00 -4.178089e+00 -4.204906e+00 -3.708279e+00 -3.069056e+00 -2.473279e+00 -1.988817e+00 -1.610433e+00 -1.304130e+00 -1.035905e+00 -7.804458e-01 -5.248689e-01 -2.645142e-01 
2.653102e-03 2.849114e-01 5.651685e-01 8.425341e-01 1.121737e+00 1.416267e+00 1.752309e+00 2.166344e+00 2.693310e+00 3.338569e+00 4.019089e+00 4.516570e+00 4.407146e+00 3.167775e+00 6.626820e-01 -5.875881e+00 -2.631826e+01 -2.243223e+01 -2.557121e-01 -2.769994e-01 -7.797923e-01 2.195176e+00 2.330049e+00 2.603501e+00 2.963601e+00 3.265161e+00 3.455358e+00 3.450082e+00 3.179091e+00 2.646536e+00 1.908050e+00 1.047145e+00 1.380405e-01 -7.661806e-01 -1.616007e+00 -2.343411e+00 -2.873608e+00 -3.156621e+00 -3.200802e+00 -3.076461e+00 -2.840307e+00 -2.521988e+00 -2.222511e+00 -2.074542e+00 -7.839797e-01 5.455649e-01 -1.372111e+00 1.721964e+01 2.918091e+01 1.174009e+01 1.068363e+00 -2.882874e+00 -4.494913e+00 -4.729622e+00 -4.252065e+00 -3.530818e+00 -2.820613e+00 -2.231607e+00 -1.774969e+00 -1.415367e+00 -1.111946e+00 -8.317772e-01 -5.566368e-01 -2.786927e-01 
6.226282e-03 3.004989e-01 5.941359e-01 8.878027e-01 1.189105e+00 1.516079e+00 1.900976e+00 2.384704e+00 3.000426e+00 3.734951e+00 4.459824e+00 4.885092e+00 4.464046e+00 2.471431e+00 -3.541870e-01 -1.993582e+01 -3.194425e+01 -2.896267e+00 6.271345e+00 -3.471088e+00 -2.815361e-01 6.189330e-01 9.408531e-01 1.240359e+00 1.578133e+00 1.893753e+00 2.121307e+00 2.196242e+00 2.080589e+00 1.773210e+00 1.306994e+00 7.347085e-01 1.122973e-01 -5.091593e-01 -1.080664e+00 -1.550317e+00 -1.870382e+00 -2.012999e+00 -1.980781e+00 -1.808537e+00 -1.545322e+00 -1.239812e+00 -9.566324e-01 -7.526301e-01 -6.091457e-01 2.131945e+00 -4.735327e+00 -2.398542e+00 2.742424e+01 2.500143e+01 1.537146e+00 -3.053980e+00 -4.714546e+00 -5.114061e+00 -4.695164e+00 -3.928724e+00 -3.125150e+00 -2.440829e+00 -1.910754e+00 -1.501347e+00 -1.166584e+00 -8.662792e-01 -5.767148e-01 -2.866833e-01 
1.007034e-02 3.091246e-01 6.091790e-01 9.127070e-01 1.230363e+00 1.584741e+00 2.013413e+00 2.559525e+00 3.249545e+00 4.042891e+00 4.748931e+00 5.018913e+00 4.248687e+00 2.338284e+00 -5.155168e+00 -3.242921e+01 -1.573452e+01 1.314859e+01 6.333966e-03 -4.171189e+00 -1.948791e+00 -8.830570e-01 -3.251667e-01 1.203393e-01 5.344038e-01 8.983621e-01 1.170155e+00 1.312830e+00 1.305439e+00 1.149533e+00 8.684982e-01 4.995800e-01 8.611933e-02 -3.284087e-01 -7.014277e-01 -9.923798e-01 -1.166288e+00 -1.202869e+00 -1.099597e+00 -8.739558e-01 -5.553316e-01 -1.788169e-01 2.179558e-01 6.253900e-01 1.161883e+00 2.357460e+00 2.020681e+00 -1.278522e+01 7.804870e+00 3.383905e+01 1.234422e+01 -1.178739e+00 -4.246493e+00 -5.201427e+00 -4.965124e+00 -4.212637e+00 -3.349597e+00 -2.591018e+00 -2.000806e+00 -1.550877e+00 -1.192261e+00 -8.788762e-01 -5.819698e-01 -2.870895e-01 
1.373819e-02 3.088138e-01 6.066700e-01 9.117126e-01 1.237597e+00 1.611201e+00 2.074425e+00 2.670519e+00 3.416039e+00 4.229713e+00 4.831658e+00 4.694959e+00 2.989855e+00 8.955980e-01 -2.193578e+01 -3.040416e+01 6.727705e+00 9.444347e+00 -7.540616e+00 -4.873354e+00 -3.150948e+00 -2.041073e+00 -1.300598e+00 -7.135121e-01 -2.129455e-01 2.031307e-01 5.147024e-01 7.050190e-01 7.686531e-01 7.122305e-01 5.558743e-01 3.282160e-01 6.325226e-02 -2.035403e-01 -4.371104e-01 -6.051189e-01 -6.797822e-01 -6.429651e-01 -4.862353e-01 -2.132511e-01 1.629158e-01 6.248751e-01 1.157209e+00 1.781211e+00 2.622761e+00 4.139477e+00 7.275821e+00 -4.299243e+00 -1.168470e+01 2.452141e+01 2.926780e+01 1.264703e+00 -3.603133e+00 -5.114923e+00 -5.060706e+00 -4.335364e+00 -3.453532e+00 -2.654062e+00 -2.027580e+00 -1.553198e+00 -1.182199e+00 -8.652889e-01 -5.698716e-01 -2.788966e-01 
1.667706e-02 2.978676e-01 5.835523e-01 8.799782e-01 1.203437e+00 1.584432e+00 2.068049e+00 2.697213e+00 3.481278e+00 4.301750e+00 4.816867e+00 4.205599e+00 1.298365e+00 -3.659919e+00 -3.361101e+01 -1.184921e+01 1.636191e+01 -6.840891e+00 -8.606277e+00 -5.951982e+00 -4.074664e+00 -2.831589e+00 -1.951443e+00 -1.263800e+00 -7.033566e-01 -2.554567e-01 7.879041e-02 2.974928e-01 4.052333e-01 4.128082e-01 3.389278e-01 2.071762e-01 4.492315e-02 -1.192737e-01 -2.569265e-01 -3.417767e-01 -3.502798e-01 -2.651386e-01 -7.379390e-02 2.287493e-01 6.427464e-01 1.166123e+00 1.799374e+00 2.572308e+00 3.579675e+00 5.121300e+00 8.026732e+00 8.077058e+00 -1.730580e+01 4.606691e+00 3.275615e+01 5.990119e+00 -3.094009e+00 -4.828734e+00 -4.905093e+00 -4.242221e+00 -3.400275e+00 -2.607900e+00 -1.977570e+00 -1.500219e+00 -1.131547e+00 -8.225944e-01 -5.388404e-01 -2.615985e-01 
1.830910e-02 2.750100e-01 5.375709e-01 8.136902e-01 1.121478e+00 1.493895e+00 1.977503e+00 2.617015e+00 3.420692e+00 4.277128e+00 4.878910e+00 4.380801e+00 1.308296e+00 -1.078282e+01 -2.885258e+01 4.172778e+00 1.217094e+01 -1.534561e+01 -9.503427e+00 -6.467102e+00 -4.522162e+00 -3.216159e+00 -2.274244e+00 -1.547092e+00 -9.700361e-01 -5.198678e-01 -1.858358e-01 3.975771e-02 1.681812e-01 2.128031e-01 1.912429e-01 1.232938e-01 3.093162e-02 -6.313203e-02 -1.361774e-01 -1.669067e-01 -1.352241e-01 -2.465499e-02 1.799286e-01 4.891786e-01 9.127876e-01 1.458647e+00 2.139694e+00 2.989552e+00 4.091774e+00 5.653702e+00 8.153288e+00 1.188724e+01 -7.590268e+00 -9.675058e+00 2.391264e+01 1.891771e+01 -1.164344e+00 -3.824918e+00 -4.290901e+00 -3.876851e+00 -3.165578e+00 -2.441182e+00 -1.843090e+00 -1.387388e+00 -1.037643e+00 -7.494155e-01 -4.882829e-01 -2.352016e-01 
1.816572e-02 2.397627e-01 4.679123e-01 7.109683e-01 9.874269e-01 1.330316e+00 1.784709e+00 2.396463e+00 3.174596e+00 4.055668e+00 4.846919e+00 5.256200e+00 4.674796e+00 -1.629459e+01 -2.053764e+01 8.656709e+00 4.784678e+00 -1.052225e+01 -8.188463e+00 -5.986719e+00 -4.357162e+00 -3.168192e+00 -2.276643e+00 -1.584409e+00 -1.041609e+00 -6.238290e-01 -3.150643e-01 -1.027558e-01 2.697768e-02 8.807130e-02 9.629613e-02 6.804498e-02 2.074466e-02 -2.790548e-02 -6.010948e-02 -5.892168e-02 -7.453391e-03 1.091005e-01 3.064924e-01 5.975361e-01 9.975840e-01 1.519548e+00 2.184837e+00 3.025943e+00 4.122581e+00 5.647275e+00 8.045512e+00 1.224121e+01 7.842733e+00 -1.379451e+01 1.045534e+01 2.521058e+01 -8.377513e-01 -2.818816e+00 -3.471024e+00 -3.344090e+00 -2.785282e+00 -2.162878e+00 -1.625166e+00 -1.214245e+00 -9.005271e-01 -6.462080e-01 -4.188256e-01 -2.002745e-01 
1.602492e-02 1.925169e-01 3.753057e-01 5.722630e-01 8.002782e-01 1.088894e+00 1.477459e+00 2.007148e+00 2.682241e+00 3.473567e+00 4.256479e+00 5.235491e+00 6.697137e+00 -1.795725e+01 -1.308914e+01 1.023095e+01 -2.422575e+00 -7.812822e+00 -6.383760e+00 -4.914156e+00 -3.701359e+00 -2.742144e+00 -1.994732e+00 -1.406010e+00 -9.466962e-01 -5.953035e-01 -3.365142e-01 -1.567638e-01 -4.266614e-02 1.841261e-02 3.950105e-02 3.342437e-02 1.327179e-02 -7.840981e-03 -1.672349e-02 -5.811829e-04 5.390703e-02 1.590196e-01 3.291130e-01 5.765150e-01 9.180821e-01 1.366799e+00 1.946615e+00 2.679925e+00 3.630951e+00 4.903909e+00 6.814556e+00 1.001533e+01 1.201992e+01 -1.288152e+01 2.886696e+00 2.174542e+01 -1.212094e+00 -2.216220e+00 -2.788040e+00 -2.771766e+00 -2.305578e+00 -1.784040e+00 -1.327297e+00 -9.823601e-01 -7.220279e-01 -5.147420e-01 -3.319442e-01 -1.577010e-01 
1.194978e-02 1.348709e-01 2.627731e-01 4.018093e-01 5.649304e-01 7.744228e-01 1.059188e+00 1.449402e+00 1.940753e+00 2.511298e+00 3.028304e+00 3.764354e+00 5.165350e+00 -1.539949e+01 -6.883331e+00 9.563896e+00 -5.005484e+00 -5.878737e+00 -4.541689e+00 -3.517194e+00 -2.688443e+00 -2.011819e+00 -1.474793e+00 -1.046819e+00 -7.139683e-01 -4.599017e-01 -2.732831e-01 -1.428417e-01 -5.830274e-02 -1.008363e-02 1.110909e-02 1.415923e-02 7.877483e-03 9.864447e-04 2.287889e-03 2.039711e-02 6.462232e-02 1.437307e-01 2.687078e-01 4.490218e-01 6.988526e-01 1.027894e+00 1.455488e+00 1.990336e+00 2.664950e+00 3.494863e+00 4.545133e+00 5.807180e+00 6.803165e+00 -1.029187e+01 1.024967e+00 1.435707e+01 -1.529284e+00 -2.042457e+00 -2.221864e+00 -2.108857e+00 -1.702208e+00 -1.295366e+00 -9.495028e-01 -6.952333e-01 -5.064695e-01 -3.589378e-01 -2.304571e-01 -1.089355e-01 
6.389719e-03 6.949329e-02 1.353528e-01 2.073420e-01 2.925243e-01 4.028568e-01 5.536842e-01 7.607750e-01 1.018905e+00 1.315315e+00 1.560813e+00 1.971915e+00 3.307432e+00 -8.260838e+00 -3.011389e+00 5.967676e+00 -2.851703e+00 -2.836643e+00 -2.298489e+00 -1.821010e+00 -1.409312e+00 -1.062791e+00 -7.830231e-01 -5.581217e-01 -3.832421e-01 -2.498205e-01 -1.519521e-01 -8.332103e-02 -3.836481e-02 -1.191624e-02 8.784949e-04 4.580399e-03 3.625439e-03 2.380459e-03 5.247339e-03 1.657699e-02 4.116214e-02 8.359589e-02 1.498305e-01 2.450101e-01 3.771478e-01 5.512566e-01 7.776314e-01 1.057437e+00 1.399898e+00 1.793991e+00 2.227474e+00 2.692799e+00 3.052808e+00 -5.316046e+00 2.480683e-01 7.315354e+00 -3.917698e-01 -1.224491e+00 -1.302600e+00 -1.177430e+00 -9.223812e-01 -6.887592e-01 -4.982305e-01 -3.613848e-01 -2.615036e-01 -1.844966e-01 -1.181006e-01 -5.563458e-02 
2.346793e-13 3.451271e-13 6.962435e-13 1.497539e-12 3.052616e-12 5.755084e-12 1.004908e-11 1.653143e-11 2.554416e-11 3.796912e-11 5.370295e-11 8.292142e-11 1.685642e-10 -9.187963e-11 -5.234355e-11 1.665056e-10 -1.173687e-12 -3.065731e-11 -3.658096e-11 -3.265054e-11 -2.634366e-11 -2.021438e-11 -1.527493e-11 -1.140917e-11 -8.369099e-12 -5.952517e-12 -4.103348e-12 -2.724071e-12 -1.752264e-12 -1.157154e-12 -8.516001e-13 -7.349414e-13 -7.142841e-13 -6.990670e-13 -5.883611e-13 -3.195187e-13 1.928447e-13 9.991992e-13 2.180062e-12 3.827377e-12 6.033301e-12 9.004863e-12 1.311108e-11 1.864056e-11 2.602695e-11 3.470034e-11 4.117784e-11 3.048699e-11 -5.531123e-11 -5.701288e-11 2.241784e-10 2.123792e-13 -3.798074e-10 -2.126147e-10 -6.235730e-11 -2.589881e-11 -1.292793e-11 -7.224250e-12 -3.809430e-12 -1.828900e-12 -6.793349e-13 -1.023728e-13 1.476386e-13 2.133554e-13 
-6.389719e-03 -6.949329e-02 -1.353528e-01 -2.073420e-01 -2.925243e-01 -4.028568e-01 -5.536842e-01 -7.607750e-01 -1.018905e+00 -1.315315e+00 -1.560813e+00 -1.971915e+00 -3.307432e+00 8.260838e+00 3.011389e+00 -5.967676e+00 2.851703e+00 2.836643e+00 2.298489e+00 1.821010e+00 1.409312e+00 1.062791e+00 7.830231e-01 5.581217e-01 3.832421e-01 2.498205e-01 1.519521e-01 8.332103e-02 3.836481e-02 1.191624e-02 -8.784949e-04 -4.580399e-03 -3.625439e-03 -2.380459e-03 -5.247339e-03 -1.657699e-02 -4.116214e-02 -8.359589e-02 -1.498305e-01 -2.450101e-01 -3.771478e-01 -5.512566e-01 -7.776314e-01 -1.057437e+00 -1.399898e+00 -1.793991e+00 -2.227474e+00 -2.692799e+00 -3.052808e+00 5.316046e+00 -2.480683e-01 -7.315354e+00 3.917698e-01 1.224491e+00 1.302600e+00 1.177430e+00 9.223812e-01 6.887592e-01 4.982305e-01 3.613848e-01 2.615036e-01 1.844966e-01 1.181006e-01 5.563458e-02 