# vtk DataFile Version 2.0
Comment goes here
ASCII

DATASET STRUCTURED_POINTS
FIELD FieldData 1
TIME 1 1 double
0.06000000
DIMENSIONS    64   64   1

ORIGIN    0.000   0.000   0.000
SPACING   0.015625 0.015625   1.000

POINT_DATA   4096
SCALARS Omega double
LOOKUP_TABLE default

-8.602966e-14 -6.841680e-14 -3.404240e-14 -6.268469e-15 3.943850e-14 5.243765e-14 3.840432e-14 4.943538e-14 1.148649e-13 9.702854e-14 6.644658e-14 -4.180435e-14 -9.860016e-14 1.352350e-14 5.436537e-14 1.475452e-13 3.525341e-14 1.476629e-13 6.527303e-14 -1.387360e-14 -1.920434e-13 -1.584934e-13 -9.272371e-14 -3.987591e-14 -7.913223e-14 -6.002217e-14 -2.050666e-13 5.767798e-14 4.881985e-14 7.224315e-15 -6.471715e-14 -1.098571e-13 -9.510707e-14 -1.190039e-13 -8.088296e-14 -1.183587e-13 7.580855e-15 6.179449e-14 7.331885e-14 2.957657e-15 -2.064427e-13 -3.035373e-13 -1.066084e-13 1.469870e-13 -1.940917e-14 5.603766e-14 -1.075230e-13 -1.184049e-13 -9.206923e-14 7.888456e-14 2.667079e-13 9.518536e-14 -6.995611e-15 4.932546e-14 6.386509e-14 2.106742e-14 4.683165e-14 6.439639e-14 6.083368e-14 8.328292e-14 4.175624e-14 3.268358e-16 -1.347500e-14 -6.020964e-14 
-1.193604e-07 -7.136177e-07 -1.393948e-06 -2.328317e-06 -3.016284e-06 -4.248277e-06 -5.158825e-06 -6.352462e-06 -7.502363e-06 -7.781075e-06 -8.508223e-06 -6.267865e-06 -4.399511e-06 2.410063e-06 1.114508e-05 2.356947e-05 4.432301e-05 6.138605e-05 1.024315e-04 1.524362e-04 3.224610e-04 7.752469e-04 2.015836e-03 4.981257e-03 1.076373e-02 2.013372e-02 3.161200e-02 4.193961e-02 4.656803e-02 4.321367e-02 3.264191e-02 1.738561e-02 -1.369746e-05 -1.738310e-02 -3.263209e-02 -4.318830e-02 -4.653111e-02 -4.193401e-02 -3.160913e-02 -2.013270e-02 -1.078627e-02 -4.960896e-03 -2.038143e-03 -7.590389e-04 -3.328563e-04 -1.464274e-04 -1.036211e-04 -6.017458e-05 -4.285867e-05 -2.316746e-05 -1.016376e-05 -1.818043e-06 4.475697e-06 6.929257e-06 8.089803e-06 8.320769e-06 6.969412e-06 6.715180e-06 4.695051e-06 4.462594e-06 2.663798e-06 2.446677e-06 1.125249e-06 7.866253e-07 
-6.602769e-08 -9.887210e-07 -2.347594e-06 -3.592508e-06 -5.297437e-06 -6.628337e-06 -9.339416e-06 -9.872316e-06 -1.410834e-05 -1.189066e-05 -1.711745e-05 -8.924112e-06 -1.175355e-05 6.108609e-06 1.375318e-05 4.290436e-05 7.485017e-05 1.221238e-04 2.351925e-04 4.739669e-04 1.229048e-03 3.260294e-03 8.414918e-03 1.977048e-02 4.044301e-02 7.130556e-02 1.063314e-01 1.338393e-01 1.414930e-01 1.251498e-01 9.067030e-02 4.687027e-02 -2.659457e-05 -4.685391e-02 -9.063682e-02 -1.250801e-01 -1.413987e-01 -1.338330e-01 -1.063370e-01 -7.131396e-02 -4.050019e-02 -1.972191e-02 -8.463607e-03 -3.224313e-03 -1.251006e-03 -4.645586e-04 -2.405737e-04 -1.241415e-04 -7.604553e-05 -4.568059e-05 -1.500027e-05 -6.935291e-06 1.025244e-05 9.514326e-06 1.581114e-05 1.297473e-05 1.318959e-05 1.091048e-05 8.777325e-06 7.439388e-06 4.983666e-06 4.190514e-06 2.171954e-06 1.467922e-06 
-3.381619e-07 -1.957932e-06 -3.737811e-06 -6.521100e-06 -8.325417e-06 -1.233625e-05 -1.500359e-05 -1.959229e-05 -2.373047e-05 -2.675255e-05 -3.149032e-05 -2.843757e-05 -2.851345e-05 -1.224091e-05 6.878876e-06 4.783463e-05 1.283426e-04 2.686900e-04 6.908689e-04 1.744288e-03 4.828786e-03 1.267484e-02 3.108806e-02 6.835776e-02 1.311648e-01 2.173433e-01 3.061705e-01 3.659858e-01 3.674613e-01 3.072391e-01 2.088141e-01 1.019609e-01 -6.443105e-06 -1.018801e-01 -2.087236e-01 -3.070875e-01 -3.672794e-01 -3.659692e-01 -3.061919e-01 -2.173727e-01 -1.312810e-01 -6.826952e-02 -3.117767e-02 -1.261763e-02 -4.860175e-03 -1.728399e-03 -6.903888e-04 -2.659017e-04 -1.226749e-04 -4.573392e-05 -4.426999e-06 1.503565e-05 2.796267e-05 3.102334e-05 2.970618e-05 2.863503e-05 2.187781e-05 2.077376e-05 1.352966e-05 1.300720e-05 7.267776e-06 6.884668e-06 2.963674e-06 2.181282e-06 
-1.390325e-07 -1.747003e-06 -3.931028e-06 -6.542664e-06 -9.281658e-06 -1.275132e-05 -1.770400e-05 -2.083545e-05 -3.012009e-05 -2.966060e-05 -4.452927e-05 -3.400603e-05 -5.046206e-05 -1.868221e-05 -1.481766e-05 7.316276e-05 2.253375e-04 7.046113e-04 2.130184e-03 6.185196e-03 1.731733e-02 4.453623e-02 1.040145e-01 2.155958e-01 3.897036e-01 6.092257e-01 8.156649e-01 9.265641e-01 8.814956e-01 6.886516e-01 4.262055e-01 1.866118e-01 2.204678e-04 -1.861417e-01 -4.259330e-01 -6.883586e-01 -8.811830e-01 -9.266121e-01 -8.157944e-01 -6.093297e-01 -3.899168e-01 -2.154255e-01 -1.041547e-01 -4.444624e-02 -1.735957e-02 -6.174784e-03 -2.136929e-03 -7.135618e-04 -2.292065e-04 -7.842919e-05 9.729279e-06 1.877416e-05 4.576722e-05 3.657318e-05 4.113143e-05 3.256646e-05 2.798851e-05 2.319709e-05 1.648499e-05 1.442588e-05 8.622984e-06 7.693830e-06 3.563727e-06 2.628880e-06 
-4.915035e-07 -2.597844e-06 -4.659562e-06 -9.062027e-06 -1.101053e-05 -1.837092e-05 -2.195582e-05 -3.233772e-05 -4.006549e-05 -5.163147e-05 -6.575053e-05 -7.244004e-05 -8.893288e-05 -7.225689e-05 -4.545012e-05 1.211161e-04 6.361348e-04 2.300328e-03 7.492595e-03 2.201689e-02 5.987170e-02 1.468784e-01 3.236185e-01 6.283659e-01 1.064962e+00 1.567949e+00 1.990086e+00 2.156346e+00 1.944145e+00 1.387876e+00 7.102794e-01 2.178235e-01 1.313993e-03 -2.156851e-01 -7.093030e-01 -1.387543e+00 -1.943964e+00 -2.156583e+00 -1.990440e+00 -1.568159e+00 -1.065330e+00 -6.280719e-01 -3.238343e-01 -1.467689e-01 -5.990470e-02 -2.200113e-02 -7.476132e-03 -2.293889e-03 -6.256319e-04 -1.116033e-04 4.594938e-05 8.118889e-05 8.481741e-05 7.880407e-05 6.097943e-05 5.555310e-05 3.622730e-05 3.455874e-05 1.930496e-05 1.956487e-05 9.291394e-06 9.699917e-06 3.495344e-06 2.995702e-06 
-2.370981e-07 -1.968375e-06 -3.877607e-06 -7.789437e-06 -9.914613e-06 -1.649009e-05 -2.156703e-05 -3.040696e-05 -4.350510e-05 -5.160283e-05 -8.008727e-05 -7.789337e-05 -1.209959e-04 -6.415976e-05 2.207441e-06 5.717225e-04 2.313289e-03 8.297529e-03 2.607244e-02 7.453718e-02 1.930130e-01 4.488571e-01 9.277250e-01 1.682455e+00 2.664860e+00 3.688437e+00 4.444989e+00 4.568167e+00 3.817704e+00 2.294310e+00 6.572759e-01 -1.651273e-01 2.727243e-05 1.656868e-01 -6.569968e-01 -2.294845e+00 -3.817949e+00 -4.569152e+00 -4.446041e+00 -3.688730e+00 -2.665434e+00 -1.681955e+00 -9.279578e-01 -4.487333e-01 -1.930185e-01 -7.454923e-02 -2.607685e-02 -8.313960e-03 -2.331846e-03 -5.728335e-04 -1.949263e-05 7.079497e-05 1.093398e-04 8.553432e-05 7.324437e-05 5.762418e-05 3.974662e-05 3.445823e-05 1.956847e-05 1.900949e-05 8.855538e-06 9.347096e-06 3.269941e-06 3.075092e-06 
-5.220362e-07 -2.159978e-06 -3.182850e-06 -8.387422e-06 -8.505380e-06 -1.908765e-05 -2.046500e-05 -3.864604e-05 -4.622727e-05 -7.295979e-05 -9.558525e-05 -1.227051e-04 -1.489352e-04 -6.026418e-05 3.291442e-04 2.123033e-03 8.280370e-03 2.821935e-02 8.578459e-02 2.347157e-01 5.775837e-01 1.265273e+00 2.443795e+00 4.114196e+00 6.061006e+00 7.835161e+00 8.858163e+00 8.518138e+00 6.389957e+00 2.962939e+00 -7.380523e-02 -1.025378e+00 -9.832612e-05 1.028260e+00 7.689057e-02 -2.961808e+00 -6.389378e+00 -8.518958e+00 -8.859279e+00 -7.834531e+00 -6.061990e+00 -4.113749e+00 -2.443818e+00 -1.265318e+00 -5.774269e-01 -2.347015e-01 -8.573179e-02 -2.817551e-02 -8.279178e-03 -2.085930e-03 -3.423632e-04 8.358937e-05 1.351772e-04 1.355272e-04 8.542145e-05 7.963445e-05 3.974649e-05 4.207447e-05 1.665163e-05 2.086751e-05 6.336935e-06 9.362607e-06 1.874397e-06 2.805829e-06 
-3.945811e-07 -1.372578e-06 -1.564655e-06 -6.114171e-06 -4.967363e-06 -1.473974e-05 -1.474341e-05 -3.153894e-05 -3.991170e-05 -6.268105e-05 -9.349399e-05 -9.618061e-05 -9.308918e-05 3.165671e-04 1.789411e-03 7.935521e-03 2.816333e-02 9.110823e-02 2.635029e-01 6.852713e-01 1.590730e+00 3.264068e+00 5.841485e+00 9.066571e+00 1.229973e+01 1.466643e+01 1.518379e+01 1.292601e+01 8.083159e+00 2.745476e+00 -7.001364e-01 -1.304042e+00 2.395218e-03 1.309810e+00 7.137644e-01 -2.744204e+00 -8.099687e+00 -1.292419e+01 -1.517699e+01 -1.465823e+01 -1.230075e+01 -9.068262e+00 -5.840602e+00 -3.264591e+00 -1.590294e+00 -6.853225e-01 -2.635333e-01 -9.109019e-02 -2.824005e-02 -7.907243e-03 -1.835798e-03 -2.917988e-04 6.974243e-05 1.131019e-04 8.220921e-05 7.285318e-05 3.437623e-05 3.721872e-05 1.191658e-05 1.777430e-05 3.428064e-06 7.740241e-06 6.075044e-07 2.397103e-06 
-3.710466e-07 -3.823272e-07 9.625984e-07 -3.407812e-06 8.648326e-07 -1.112704e-05 -4.076904e-06 -2.936017e-05 -2.317800e-05 -6.605444e-05 -6.396118e-05 -6.205938e-05 1.940750e-04 1.486166e-03 6.684690e-03 2.579280e-02 8.766445e-02 2.697686e-01 7.431089e-01 1.827050e+00 3.985568e+00 7.594465e+00 1.247281e+01 1.759599e+01 2.152501e+01 2.245511e+01 1.913261e+01 1.263515e+01 5.917504e+00 2.008941e+00 9.154856e-01 5.358888e-01 -2.767614e-02 -5.994007e-01 -8.845819e-01 -1.982749e+00 -5.950528e+00 -1.262852e+01 -1.911016e+01 -2.240356e+01 -2.152027e+01 -1.760812e+01 -1.247056e+01 -7.596157e+00 -3.984399e+00 -1.827022e+00 -7.430204e-01 -2.695789e-01 -8.772727e-02 -2.568862e-02 -6.736041e-03 -1.439118e-03 -2.251802e-04 8.258214e-05 4.693948e-05 7.535786e-05 1.439917e-05 3.389303e-05 -2.614318e-07 1.353389e-05 -2.946058e-06 4.842742e-06 -2.004182e-06 1.429353e-06 
-6.516690e-07 -8.536578e-09 2.478979e-06 -1.292055e-06 5.581342e-06 -5.780267e-06 6.968448e-06 -1.719536e-05 1.354388e-07 -3.240584e-05 1.291558e-05 1.950907e-04 1.152988e-03 5.429958e-03 2.143965e-02 7.745000e-02 2.508582e-01 7.341823e-01 1.913143e+00 4.421103e+00 8.987901e+00 1.569455e+01 2.317101e+01 2.870828e+01 2.913613e+01 2.209787e+01 1.149120e+01 5.507873e+00 6.417433e+00 9.394452e+00 9.948188e+00 6.289054e+00 -1.170827e-02 -6.375732e+00 -1.003874e+01 -9.452102e+00 -6.394760e+00 -5.488838e+00 -1.136579e+01 -2.188003e+01 -2.911415e+01 -2.875182e+01 -2.317368e+01 -1.569673e+01 -8.985716e+00 -4.421592e+00 -1.913294e+00 -7.340832e-01 -2.510782e-01 -7.735324e-02 -2.153243e-02 -5.374858e-03 -1.188414e-03 -1.674335e-04 -2.757237e-05 4.556906e-05 -6.988018e-06 2.322995e-05 -1.058660e-05 8.431753e-06 -7.734457e-06 2.406257e-06 -3.973421e-06 5.304677e-07 
-1.462698e-08 2.357431e-06 6.288866e-06 4.908582e-06 1.470063e-05 5.015266e-06 2.708064e-05 -2.249802e-07 4.682291e-05 1.503897e-05 2.225403e-04 8.358499e-04 3.963280e-03 1.630526e-02 6.164604e-02 2.115497e-01 6.551607e-01 1.814716e+00 4.445155e+00 9.588486e+00 1.794108e+01 2.801086e+01 3.546883e+01 3.397915e+01 2.189773e+01 1.208104e+01 1.692144e+01 2.644326e+01 2.943059e+01 2.478933e+01 1.719724e+01 9.009970e+00 -1.272297e-01 -8.845611e+00 -1.715691e+01 -2.511523e+01 -2.945123e+01 -2.640623e+01 -1.658006e+01 -1.174011e+01 -2.193155e+01 -3.407635e+01 -3.549815e+01 -2.801391e+01 -1.793262e+01 -9.589705e+00 -4.445197e+00 -1.814408e+00 -6.554167e-01 -2.113752e-01 -6.176621e-02 -1.624119e-02 -4.012647e-03 -8.119539e-04 -2.429824e-04 -4.634345e-06 -5.514295e-05 5.567682e-06 -3.029519e-05 -1.878715e-06 -1.578858e-05 -2.809442e-06 -6.538541e-06 -6.856292e-07 
-1.018558e-06 1.473153e-06 5.801687e-06 4.610252e-06 1.644302e-05 6.799086e-06 3.680761e-05 1.039088e-05 9.067372e-05 1.167517e-04 6.600141e-04 2.605932e-03 1.124066e-02 4.449066e-02 1.608224e-01 5.279339e-01 1.552220e+00 4.040137e+00 9.226209e+00 1.839995e+01 3.096365e+01 4.084910e+01 3.806738e+01 2.526380e+01 2.433508e+01 3.753865e+01 4.487229e+01 3.963124e+01 2.972475e+01 2.058737e+01 1.337750e+01 7.061059e+00 -1.882532e-01 -6.794582e+00 -1.309107e+01 -2.085938e+01 -2.986924e+01 -3.950788e+01 -4.479340e+01 -3.754890e+01 -2.425349e+01 -2.542037e+01 -3.823379e+01 -4.088869e+01 -3.092495e+01 -1.840363e+01 -9.227413e+00 -4.040218e+00 -1.552680e+00 -5.278004e-01 -1.609514e-01 -4.441903e-02 -1.127734e-02 -2.577374e-03 -6.747325e-04 -1.064004e-04 -9.829777e-05 -7.000031e-06 -4.134608e-05 -5.985187e-06 -1.944430e-05 -4.715561e-06 -8.061348e-06 -1.866782e-06 
4.801312e-07 4.815775e-06 9.222045e-06 1.255817e-05 2.416934e-05 2.158721e-05 5.734353e-05 4.108415e-05 1.791778e-04 3.442447e-04 1.724314e-03 6.861996e-03 2.887601e-02 1.099706e-01 3.823103e-01 1.194268e+00 3.308008e+00 8.015289e+00 1.691387e+01 3.074965e+01 4.428067e+01 4.375823e+01 3.323906e+01 3.692250e+01 5.292793e+01 5.857544e+01 5.012878e+01 3.801298e+01 2.822617e+01 2.180331e+01 1.601948e+01 8.448375e+00 -3.726018e-02 -8.433882e+00 -1.591261e+01 -2.169948e+01 -2.824434e+01 -3.779582e+01 -5.064810e+01 -5.905974e+01 -5.262383e+01 -3.701133e+01 -3.355273e+01 -4.387586e+01 -4.415008e+01 -3.075053e+01 -1.691806e+01 -8.015625e+00 -3.308667e+00 -1.194237e+00 -3.824909e-01 -1.099390e-01 -2.892010e-02 -6.843744e-03 -1.735538e-03 -3.337380e-04 -1.813766e-04 -3.465707e-05 -5.703897e-05 -1.739694e-05 -2.327715e-05 -9.556829e-06 -8.254766e-06 -2.330936e-06 
-1.421312e-06 1.940943e-06 4.734177e-06 7.380194e-06 1.699484e-05 1.361288e-05 5.236658e-05 4.381806e-05 2.728297e-04 7.843195e-04 3.971990e-03 1.647371e-02 6.737384e-02 2.483910e-01 8.241606e-01 2.435029e+00 6.280844e+00 1.402691e+01 2.716002e+01 4.387404e+01 4.953605e+01 4.058532e+01 4.558094e+01 6.761236e+01 7.381888e+01 6.131049e+01 4.950743e+01 4.258512e+01 3.415282e+01 2.487889e+01 1.621129e+01 7.623656e+00 1.571141e-03 -7.718695e+00 -1.625592e+01 -2.472307e+01 -3.412716e+01 -4.243227e+01 -4.972911e+01 -6.153221e+01 -7.398107e+01 -6.784119e+01 -4.536149e+01 -4.046474e+01 -4.955306e+01 -4.386467e+01 -2.717176e+01 -1.402867e+01 -6.281200e+00 -2.435122e+00 -8.242519e-01 -2.483815e-01 -6.740133e-02 -1.647070e-02 -3.987679e-03 -7.867180e-04 -2.825038e-04 -4.678133e-05 -5.846204e-05 -1.597256e-05 -2.111030e-05 -9.154911e-06 -7.871140e-06 -3.406356e-06 
9.179178e-07 5.247006e-06 5.866662e-06 1.380376e-05 1.710165e-05 2.667685e-05 5.902980e-05 1.003503e-04 4.878653e-04 1.813640e-03 8.780628e-03 3.641041e-02 1.443631e-01 5.097695e-01 1.606454e+00 4.436330e+00 1.053855e+01 2.152491e+01 3.824433e+01 5.239018e+01 4.524556e+01 4.862656e+01 7.891271e+01 9.155897e+01 7.425272e+01 5.291083e+01 3.587514e+01 2.335542e+01 1.526041e+01 1.006889e+01 6.357563e+00 3.000981e+00 -7.123635e-03 -3.038423e+00 -6.381929e+00 -1.004163e+01 -1.533018e+01 -2.332702e+01 -3.559048e+01 -5.293305e+01 -7.446043e+01 -9.118099e+01 -7.841078e+01 -4.877352e+01 -4.537798e+01 -5.220362e+01 -3.827336e+01 -2.152860e+01 -1.053871e+01 -4.436687e+00 -1.606539e+00 -5.097921e-01 -1.443438e-01 -3.638825e-02 -8.764104e-03 -1.798423e-03 -4.783508e-04 -9.130922e-05 -5.362163e-05 -2.102116e-05 -1.388602e-05 -9.856685e-06 -3.714032e-06 -2.014960e-06 
-1.675290e-06 3.585841e-07 -2.547629e-06 2.992667e-06 -1.063107e-06 7.583513e-06 3.463418e-05 1.323681e-04 8.321924e-04 3.739960e-03 1.792144e-02 7.374231e-02 2.819219e-01 9.493826e-01 2.814558e+00 7.187056e+00 1.555997e+01 2.909809e+01 4.761245e+01 4.811392e+01 4.633486e+01 8.236593e+01 1.074830e+02 8.108196e+01 4.174469e+01 1.696393e+01 7.891465e+00 4.743272e+00 3.372089e+00 2.464342e+00 1.686743e+00 8.344014e-01 -4.391261e-03 -8.471254e-01 -1.696478e+00 -2.460055e+00 -3.406347e+00 -4.747261e+00 -7.712422e+00 -1.714775e+01 -4.151261e+01 -8.036681e+01 -1.074335e+02 -8.259801e+01 -4.647470e+01 -4.824417e+01 -4.772312e+01 -2.908634e+01 -1.555618e+01 -7.186559e+00 -2.814671e+00 -9.494673e-01 -2.819858e-01 -7.378447e-02 -1.795151e-02 -3.760803e-03 -8.471705e-04 -1.427678e-04 -4.286856e-05 -1.301450e-05 -4.072850e-06 -6.091651e-06 -1.202373e-06 -2.521311e-06 
1.023956e-06 2.284388e-06 -4.034151e-06 4.475039e-06 -1.017372e-05 1.555475e-05 2.925496e-05 2.933211e-04 1.529984e-03 7.518484e-03 3.416168e-02 1.376407e-01 5.026250e-01 1.600903e+00 4.428167e+00 1.032096e+01 2.029449e+01 3.548452e+01 4.885563e+01 4.040472e+01 7.378011e+01 1.169757e+02 8.903805e+01 3.253696e+01 1.716722e+00 -4.707383e+00 -3.409062e+00 -1.716405e+00 -6.059346e-01 -6.513403e-02 1.284513e-01 1.034602e-01 -1.678838e-03 -1.072605e-01 -1.320348e-01 6.645082e-02 5.970956e-01 1.712205e+00 3.469784e+00 4.657895e+00 -1.556000e+00 -3.258610e+01 -8.962831e+01 -1.172482e+02 -7.373861e+01 -4.035599e+01 -4.870580e+01 -3.537812e+01 -2.027914e+01 -1.031840e+01 -4.427685e+00 -1.600685e+00 -5.024920e-01 -1.375696e-01 -3.411361e-02 -7.491967e-03 -1.510462e-03 -2.810858e-04 -2.031114e-05 -8.805242e-06 1.465434e-05 -9.624957e-08 6.614887e-06 1.167345e-06 
-1.555889e-06 -3.682368e-06 -1.226185e-05 -1.018635e-05 -2.947588e-05 -6.180208e-06 2.339545e-05 4.987500e-04 2.734663e-03 1.366855e-02 6.010534e-02 2.348094e-01 8.159976e-01 2.446002e+00 6.247891e+00 1.320123e+01 2.345650e+01 3.874300e+01 3.670834e+01 5.441374e+01 1.116821e+02 1.068437e+02 3.765348e+01 -6.452967e+00 -1.569103e+01 -1.061542e+01 -5.699021e+00 -2.788978e+00 -1.247057e+00 -5.107949e-01 -1.814940e-01 -5.348297e-02 -5.564530e-04 5.252481e-02 1.802845e-01 5.113299e-01 1.245235e+00 2.787448e+00 5.714682e+00 1.059952e+01 1.573087e+01 6.340951e+00 -3.802983e+01 -1.068447e+02 -1.114843e+02 -5.455829e+01 -3.683034e+01 -3.876873e+01 -2.346077e+01 -1.320037e+01 -6.248061e+00 -2.446117e+00 -8.161076e-01 -2.348801e-01 -6.014793e-02 -1.369839e-02 -2.752688e-03 -5.118259e-04 -3.240290e-05 6.856009e-08 2.426814e-05 7.108092e-06 8.688027e-06 1.771730e-06 
6.049806e-07 -4.250020e-06 -1.403335e-05 -1.595610e-05 -3.792199e-05 -4.052568e-06 5.959529e-05 9.200307e-04 4.680060e-03 2.328982e-02 9.747397e-02 3.691293e-01 1.209236e+00 3.408342e+00 7.949792e+00 1.516148e+01 2.448373e+01 3.584163e+01 3.210450e+01 8.559104e+01 1.225780e+02 6.425432e+01 -1.360481e+00 -2.420075e+01 -1.903246e+01 -1.020505e+01 -4.965560e+00 -2.271289e+00 -9.849331e-01 -4.073937e-01 -1.578522e-01 -5.291564e-02 -1.728331e-04 5.277750e-02 1.574643e-01 4.075740e-01 9.846058e-01 2.270730e+00 4.968931e+00 1.020042e+01 1.904142e+01 2.414808e+01 1.449394e+00 -6.391030e+01 -1.226033e+02 -8.558800e+01 -3.198160e+01 -3.593090e+01 -2.450766e+01 -1.516502e+01 -7.950423e+00 -3.408342e+00 -1.209193e+00 -3.690865e-01 -9.744329e-02 -2.326851e-02 -4.664492e-03 -9.089112e-04 -5.217129e-05 1.014338e-05 4.138568e-05 1.965659e-05 1.573966e-05 6.994726e-06 
-9.622902e-07 -9.652914e-06 -1.575015e-05 -3.145203e-05 -3.775150e-05 -1.881887e-05 1.677929e-04 1.479101e-03 7.658281e-03 3.630415e-02 1.471247e-01 5.332369e-01 1.653597e+00 4.346596e+00 9.241495e+00 1.564017e+01 2.290076e+01 2.492585e+01 4.819958e+01 1.116194e+02 1.041962e+02 2.473391e+01 -2.252677e+01 -2.876690e+01 -1.710913e+01 -8.287133e+00 -3.746909e+00 -1.591064e+00 -6.436358e-01 -2.495644e-01 -9.228678e-02 -3.004431e-02 -7.427374e-05 3.007968e-02 9.213710e-02 2.496252e-01 6.435953e-01 1.590833e+00 3.747576e+00 8.285721e+00 1.711026e+01 2.875156e+01 2.259145e+01 -2.477472e+01 -1.040426e+02 -1.109273e+02 -4.794090e+01 -2.492871e+01 -2.282730e+01 -1.563467e+01 -9.241924e+00 -4.346794e+00 -1.653614e+00 -5.332524e-01 -1.471398e-01 -3.631762e-02 -7.670592e-03 -1.486549e-03 -1.748368e-04 1.544259e-05 3.389382e-05 3.012277e-05 1.339446e-05 9.140736e-06 
-2.842766e-07 -1.266381e-05 -1.522003e-05 -4.327510e-05 -2.934107e-05 -2.246850e-05 3.514348e-04 2.236935e-03 1.171154e-02 5.244972e-02 2.070648e-01 7.140297e-01 2.104222e+00 5.128623e+00 9.901080e+00 1.446669e+01 1.842033e+01 1.474157e+01 6.645958e+01 1.201428e+02 7.562725e+01 -5.439769e-01 -3.201042e+01 -2.709513e+01 -1.414514e+01 -6.474175e+00 -2.757833e+00 -1.097256e+00 -4.146508e-01 -1.497358e-01 -5.196605e-02 -1.601747e-02 -4.216531e-05 1.606379e-02 5.188576e-02 1.497323e-01 4.146236e-01 1.097099e+00 2.757924e+00 6.473842e+00 1.414550e+01 2.709262e+01 3.202944e+01 5.248899e-01 -7.555979e+01 -1.206752e+02 -6.720408e+01 -1.466938e+01 -1.825943e+01 -1.445477e+01 -9.901308e+00 -5.128769e+00 -2.104251e+00 -7.140200e-01 -2.070615e-01 -5.243528e-02 -1.170637e-02 -2.228521e-03 -3.490913e-04 2.653535e-05 2.985976e-05 4.522339e-05 1.489132e-05 1.378616e-05 
-1.790762e-08 -1.498421e-05 -9.174023e-06 -5.264772e-05 -4.031853e-06 -1.474120e-05 6.223433e-04 3.196215e-03 1.667121e-02 7.092797e-02 2.722262e-01 8.947398e-01 2.505835e+00 5.669104e+00 9.864398e+00 1.213745e+01 1.235249e+01 1.698246e+01 8.017515e+01 1.127057e+02 4.890517e+01 -1.553914e+01 -3.415420e+01 -2.339534e+01 -1.148802e+01 -5.075369e+00 -2.062000e+00 -7.779131e-01 -2.753966e-01 -9.248270e-02 -2.939387e-02 -8.372434e-03 -2.221926e-05 8.421952e-03 2.936548e-02 9.250039e-02 2.754253e-01 7.778639e-01 2.062060e+00 5.075310e+00 1.148825e+01 2.339569e+01 3.415487e+01 1.550814e+01 -4.911338e+01 -1.132809e+02 -8.029604e+01 -1.679145e+01 -1.242432e+01 -1.217219e+01 -9.868785e+00 -5.669243e+00 -2.505904e+00 -8.947510e-01 -2.722643e-01 -7.093243e-02 -1.668429e-02 -3.196324e-03 -6.271265e-04 1.580901e-05 2.417160e-06 5.413960e-05 8.806440e-06 1.661884e-05 
-1.342919e-06 -1.840771e-05 -9.503440e-06 -6.010430e-05 9.849426e-06 1.043528e-05 8.984295e-04 4.317230e-03 2.189825e-02 8.997142e-02 3.342589e-01 1.053353e+00 2.804529e+00 5.922367e+00 9.228464e+00 8.997279e+00 5.286716e+00 2.602556e+01 9.124363e+01 1.001558e+02 2.920806e+01 -2.378680e+01 -3.236078e+01 -1.964504e+01 -9.378241e+00 -4.039101e+00 -1.583405e+00 -5.739531e-01 -1.937884e-01 -6.201758e-02 -1.870204e-02 -5.117452e-03 -2.056496e-05 5.138527e-03 1.866877e-02 6.200559e-02 1.937731e-01 5.738807e-01 1.583353e+00 4.038971e+00 9.378056e+00 1.964520e+01 3.235812e+01 2.377692e+01 -2.915301e+01 -9.974414e+01 -9.041502e+01 -2.577671e+01 -5.510433e+00 -9.048078e+00 -9.230716e+00 -5.921648e+00 -2.804486e+00 -1.053305e+00 -3.342729e-01 -8.995474e-02 -2.190275e-02 -4.311681e-03 -9.019740e-04 -9.304595e-06 -1.292945e-05 5.964266e-05 6.718695e-06 1.742258e-05 
9.829165e-07 -1.529947e-05 -1.788330e-06 -5.336442e-05 3.393848e-05 6.837301e-05 1.174503e-03 5.499078e-03 2.672088e-02 1.070985e-01 3.845199e-01 1.169017e+00 2.968044e+00 5.883559e+00 8.100417e+00 5.023382e+00 -1.923056e+00 3.071133e+01 9.457056e+01 8.709141e+01 1.609212e+01 -2.721223e+01 -2.891106e+01 -1.645181e+01 -7.748590e+00 -3.271167e+00 -1.248289e+00 -4.382386e-01 -1.422534e-01 -4.355158e-02 -1.232192e-02 -3.183645e-03 -7.831215e-06 3.210033e-03 1.231608e-02 4.356069e-02 1.422688e-01 4.382144e-01 1.248285e+00 3.271075e+00 7.748452e+00 1.645168e+01 2.890927e+01 2.720852e+01 -1.606289e+01 -8.689880e+01 -9.435420e+01 -3.073782e+01 1.881239e+00 -5.011190e+00 -8.098124e+00 -5.883603e+00 -2.968288e+00 -1.169044e+00 -3.845559e-01 -1.070886e-01 -2.672736e-02 -5.491115e-03 -1.174968e-03 -6.276026e-05 -3.265789e-05 5.766551e-05 3.625156e-06 1.903281e-05 
-2.152288e-06 -1.754852e-05 -7.393160e-06 -5.030707e-05 3.116759e-05 1.267328e-04 1.364561e-03 6.531810e-03 3.040924e-02 1.197773e-01 4.166008e-01 1.228501e+00 2.989914e+00 5.584642e+00 6.661114e+00 9.590356e-01 -6.821051e+00 3.149120e+01 9.058340e+01 7.393077e+01 7.324918e+00 -2.725256e+01 -2.487648e+01 -1.373965e+01 -6.425869e+00 -2.671916e+00 -1.000024e+00 -3.427798e-01 -1.084634e-01 -3.232790e-02 -8.949119e-03 -2.282874e-03 -9.863305e-06 2.290217e-03 8.934893e-03 3.232151e-02 1.084600e-01 3.427478e-01 9.999968e-01 2.671781e+00 6.425623e+00 1.373900e+01 2.487660e+01 2.725537e+01 -7.346049e+00 -7.405164e+01 -9.112310e+01 -3.189732e+01 6.907010e+00 -8.991006e-01 -6.657947e+00 -5.585949e+00 -2.990387e+00 -1.228605e+00 -4.166423e-01 -1.197833e-01 -3.042319e-02 -6.534378e-03 -1.373053e-03 -1.295290e-04 -3.710836e-05 4.743690e-05 2.708739e-06 1.469194e-05 
1.652558e-06 -9.940906e-06 -1.541974e-06 -3.023013e-05 4.107280e-05 2.035388e-04 1.496406e-03 7.265776e-03 3.245163e-02 1.259821e-01 4.261409e-01 1.224397e+00 2.873060e+00 5.080820e+00 5.187218e+00 -2.209218e+00 -8.480199e+00 3.230963e+01 8.387717e+01 6.163368e+01 1.809253e+00 -2.507529e+01 -2.069042e+01 -1.129373e+01 -5.261116e+00 -2.163852e+00 -7.989809e-01 -2.689221e-01 -8.341218e-02 -2.417957e-02 -6.478228e-03 -1.577377e-03 -2.933775e-06 1.589214e-03 6.476135e-03 2.418166e-02 8.341513e-02 2.689032e-01 7.989644e-01 2.163783e+00 5.261050e+00 1.129349e+01 2.069049e+01 2.507545e+01 -1.822978e+00 -6.169286e+01 -8.410914e+01 -3.251393e+01 8.423328e+00 2.192198e+00 -5.184886e+00 -5.079787e+00 -2.872801e+00 -1.224349e+00 -4.261297e-01 -1.259650e-01 -3.244582e-02 -7.253615e-03 -1.491949e-03 -1.954130e-04 -3.732585e-05 3.610018e-05 4.950705e-06 1.483137e-05 
-2.350676e-06 -1.155446e-05 -1.024347e-05 -2.365206e-05 2.395293e-05 2.408830e-04 1.490557e-03 7.465450e-03 3.232651e-02 1.240831e-01 4.102268e-01 1.153212e+00 2.625809e+00 4.432857e+00 3.895861e+00 -4.061744e+00 -8.242092e+00 3.131503e+01 7.426759e+01 5.009961e+01 -1.345692e+00 -2.164555e+01 -1.663208e+01 -9.031473e+00 -4.193226e+00 -1.710488e+00 -6.254393e-01 -2.078149e-01 -6.368516e-02 -1.816475e-02 -4.854425e-03 -1.167815e-03 -3.939609e-06 1.170968e-03 4.850168e-03 1.816383e-02 6.368912e-02 2.078065e-01 6.254374e-01 1.710431e+00 4.193116e+00 9.031049e+00 1.663181e+01 2.164726e+01 1.349005e+00 -5.004795e+01 -7.401919e+01 -3.109508e+01 8.222918e+00 4.028845e+00 -3.898388e+00 -4.432573e+00 -2.625701e+00 -1.153213e+00 -4.102450e-01 -1.240960e-01 -3.234167e-02 -7.473032e-03 -1.500401e-03 -2.460378e-04 -3.070498e-05 1.955508e-05 5.063050e-06 7.877847e-06 
1.686424e-06 -3.379075e-06 -4.873190e-06 -4.220687e-06 2.626969e-05 2.704816e-04 1.402022e-03 7.088407e-03 2.987469e-02 1.134707e-01 3.683133e-01 1.017286e+00 2.262888e+00 3.682691e+00 2.818087e+00 -4.873252e+00 -7.714284e+00 2.711640e+01 6.184736e+01 3.936028e+01 -2.792313e+00 -1.762715e+01 -1.287940e+01 -6.966152e+00 -3.221202e+00 -1.304483e+00 -4.731269e-01 -1.555447e-01 -4.715949e-02 -1.319997e-02 -3.472889e-03 -7.974419e-04 -1.397871e-06 8.016669e-04 3.470772e-03 1.319813e-02 4.715514e-02 1.555271e-01 4.730995e-01 1.304421e+00 3.221106e+00 6.965977e+00 1.287929e+01 1.762725e+01 2.795138e+00 -3.935670e+01 -6.171305e+01 -2.688454e+01 7.859661e+00 4.916159e+00 -2.819456e+00 -3.684418e+00 -2.263368e+00 -1.017372e+00 -3.683248e-01 -1.134603e-01 -2.986765e-02 -7.077594e-03 -1.396315e-03 -2.629059e-04 -2.198264e-05 9.707382e-06 8.453677e-06 7.919651e-06 
-1.806918e-06 -5.193140e-06 -1.083005e-05 -2.856313e-06 9.276194e-06 2.403375e-04 1.167685e-03 6.030545e-03 2.499850e-02 9.423937e-02 3.018196e-01 8.226564e-01 1.799107e+00 2.847935e+00 1.914477e+00 -4.842179e+00 -6.915077e+00 2.118952e+01 4.792322e+01 2.932080e+01 -3.037033e+00 -1.337490e+01 -9.443363e+00 -5.086725e+00 -2.340561e+00 -9.414497e-01 -3.389812e-01 -1.105099e-01 -3.325522e-02 -9.209246e-03 -2.427908e-03 -5.499151e-04 -1.166601e-06 5.517114e-04 2.427685e-03 9.210714e-03 3.326060e-02 1.105125e-01 3.389930e-01 9.414552e-01 2.340583e+00 5.086716e+00 9.443196e+00 1.337362e+01 3.032934e+00 -2.933952e+01 -4.806029e+01 -2.138260e+01 6.850897e+00 4.844725e+00 -1.912526e+00 -2.847492e+00 -1.799023e+00 -8.226525e-01 -3.018330e-01 -9.425036e-02 -2.500964e-02 -6.037430e-03 -1.175172e-03 -2.449468e-04 -1.448314e-05 -6.343833e-07 6.838761e-06 2.159533e-06 
1.052371e-06 -3.050205e-09 -4.781888e-06 5.701815e-06 1.037696e-05 1.917848e-04 8.548831e-04 4.412689e-03 1.803643e-02 6.755225e-02 2.142912e-01 5.785870e-01 1.250585e+00 1.941652e+00 1.177605e+00 -3.809522e+00 -5.035061e+00 1.486571e+01 3.291805e+01 1.952263e+01 -2.441007e+00 -8.998670e+00 -6.221293e+00 -3.339002e+00 -1.529220e+00 -6.115536e-01 -2.188561e-01 -7.084709e-02 -2.117126e-02 -5.789123e-03 -1.511136e-03 -3.288735e-04 -6.252531e-07 3.299982e-04 1.509885e-03 5.787506e-03 2.116843e-02 7.083816e-02 2.188430e-01 6.115194e-01 1.529170e+00 3.338877e+00 6.221176e+00 8.998106e+00 2.441849e+00 -1.949828e+01 -3.289090e+01 -1.488666e+01 4.976070e+00 3.773345e+00 -1.181218e+00 -1.941609e+00 -1.250509e+00 -5.785824e-01 -2.142911e-01 -6.754772e-02 -1.803178e-02 -4.406620e-03 -8.510635e-04 -1.873175e-04 -7.593510e-06 -2.427346e-06 7.040829e-06 2.718186e-06 
-6.762312e-07 -1.264366e-06 -4.748242e-06 1.737781e-06 1.591929e-06 1.004702e-04 4.443673e-04 2.322959e-03 9.443248e-03 3.525703e-02 1.112388e-01 2.986763e-01 6.411840e-01 9.849420e-01 5.670639e-01 -2.024598e+00 -2.473399e+00 7.893775e+00 1.682604e+01 9.715892e+00 -1.342765e+00 -4.526740e+00 -3.096197e+00 -1.657580e+00 -7.566724e-01 -3.014203e-01 -1.074289e-01 -3.462675e-02 -1.030961e-02 -2.807207e-03 -7.354154e-04 -1.597711e-04 -2.050750e-07 1.604138e-04 7.356714e-04 2.808072e-03 1.031168e-02 3.462903e-02 1.074337e-01 3.014294e-01 7.566873e-01 1.657619e+00 3.096198e+00 4.526551e+00 1.344060e+00 -9.725224e+00 -1.673070e+01 -7.685649e+00 2.588787e+00 2.040010e+00 -5.684301e-01 -9.859038e-01 -6.414748e-01 -2.987539e-01 -1.112606e-01 -3.526545e-02 -9.448326e-03 -2.326004e-03 -4.472335e-04 -1.023221e-04 -3.546816e-06 -3.100301e-06 3.253473e-06 9.571623e-08 
-1.830608e-13 -1.544197e-13 -1.185553e-13 -9.866613e-14 -8.456370e-14 3.140121e-14 1.847859e-14 -7.314640e-14 -2.969800e-13 -1.918639e-13 -1.535651e-13 -2.272211e-13 1.261943e-14 1.394697e-13 7.187629e-13 -5.665671e-14 -2.017124e-12 -1.180228e-12 4.209217e-13 -1.779519e-12 -1.689237e-12 -1.062522e-14 -1.753822e-14 -3.321216e-13 -1.186739e-13 8.267587e-14 1.539901e-13 1.374206e-13 9.304058e-14 6.616709e-14 5.881386e-14 -2.915178e-14 2.186602e-14 6.211964e-14 2.230870e-14 1.695602e-13 2.840386e-13 2.170452e-13 2.378411e-13 2.466173e-13 3.612268e-13 3.987931e-13 3.414939e-13 3.977276e-13 1.297440e-12 3.183951e-12 6.386132e-12 6.213347e-12 3.100249e-12 9.041900e-13 -6.154059e-13 -1.729698e-13 3.110394e-14 1.616002e-13 9.099715e-15 7.234157e-14 2.020390e-13 1.262273e-13 1.752315e-13 1.271570e-13 7.499950e-14 -2.889451e-14 -5.902026e-14 -1.227280e-13 
6.762309e-07 1.264366e-06 4.748242e-06 -1.737781e-06 -1.591929e-06 -1.004702e-04 -4.443673e-04 -2.322959e-03 -9.443248e-03 -3.525703e-02 -1.112388e-01 -2.986763e-01 -6.411840e-01 -9.849420e-01 -5.670639e-01 2.024598e+00 2.473399e+00 -7.893775e+00 -1.682604e+01 -9.715892e+00 1.342765e+00 4.526740e+00 3.096197e+00 1.657580e+00 7.566724e-01 3.014203e-01 1.074289e-01 3.462675e-02 1.030961e-02 2.807207e-03 7.354154e-04 1.597711e-04 2.050750e-07 -1.604138e-04 -7.356714e-04 -2.808072e-03 -1.031168e-02 -3.462903e-02 -1.074337e-01 -3.014294e-01 -7.566873e-01 -1.657619e+00 -3.096198e+00 -4.526551e+00 -1.344060e+00 9.725224e+00 1.673070e+01 7.685649e+00 -2.588787e+00 -2.040010e+00 5.684301e-01 9.859038e-01 6.414748e-01 2.987539e-01 1.112606e-01 3.526545e-02 9.448326e-03 2.326004e-03 4.472335e-04 1.023221e-04 3.546816e-06 3.100301e-06 -3.253473e-06 -9.571647e-08 