# vtk DataFile Version 2.0
Comment goes here
ASCII

DATASET STRUCTURED_POINTS
FIELD FieldData 1
TIME 1 1 double
1.21000000
DIMENSIONS    64   64   1

ORIGIN    0.000   0.000   0.000
SPACING   0.015625 0.015625   1.000

POINT_DATA   4096
SCALARS Omega double
LOOKUP_TABLE default

-6.139179e-14 -6.348486e-14 -6.788005e-14 -4.944167e-14 -1.741586e-14 -1.386973e-14 3.222894e-14 9.782830e-14 1.947577e-13 3.064531e-13 4.876065e-13 7.311824e-13 1.046064e-12 1.485623e-12 2.008078e-12 2.601578e-12 3.308821e-12 4.096292e-12 4.909325e-12 5.769399e-12 6.564625e-12 7.223032e-12 7.704180e-12 7.945110e-12 7.916777e-12 7.555028e-12 6.843085e-12 5.819147e-12 4.483738e-12 2.827919e-12 9.729896e-13 -1.093453e-12 -3.236271e-12 -5.321532e-12 -7.249587e-12 -8.889211e-12 -1.013516e-11 -1.090278e-11 -1.116131e-11 -1.099823e-11 -1.037902e-11 -9.470687e-12 -8.350111e-12 -7.191768e-12 -5.988050e-12 -4.881759e-12 -3.915084e-12 -3.059787e-12 -2.374727e-12 -1.789906e-12 -1.354615e-12 -1.011347e-12 -7.849148e-13 -5.698365e-13 -4.348116e-13 -3.331642e-13 -2.480279e-13 -1.753616e-13 -1.308916e-13 -1.154284e-13 -9.206093e-14 -8.248693e-14 -7.941803e-14 -7.258139e-14 
-3.049655e-04 4.301489e-03 8.711674e-03 1.271837e-02 1.610710e-02 1.865249e-02 2.011406e-02 2.023869e-02 1.875142e-02 1.537422e-02 9.809529e-03 1.786001e-03 -8.963399e-03 -2.262264e-02 -3.931523e-02 -5.899973e-02 -8.149046e-02 -1.063544e-01 -1.329349e-01 -1.602917e-01 -1.872395e-01 -2.123634e-01 -2.340837e-01 -2.507436e-01 -2.607002e-01 -2.624456e-01 -2.547158e-01 -2.366266e-01 -2.078137e-01 -1.686096e-01 -1.202097e-01 -6.471953e-02 -5.119498e-03 5.511357e-02 1.123457e-01 1.633559e-01 2.056332e-01 2.375600e-01 2.584621e-01 2.683981e-01 2.681426e-01 2.589154e-01 2.423243e-01 2.201594e-01 1.942464e-01 1.663399e-01 1.379756e-01 1.104408e-01 8.471939e-02 6.149569e-02 4.119613e-02 2.400101e-02 9.927734e-03 -1.154752e-03 -9.454939e-03 -1.524060e-02 -1.880316e-02 -2.043656e-02 -2.043377e-02 -1.906563e-02 -1.659525e-02 -1.326043e-02 -9.292217e-03 -4.903791e-03 
-6.143195e-04 8.637656e-03 1.749630e-02 2.554634e-02 3.235885e-02 3.748322e-02 4.043989e-02 4.072423e-02 3.778918e-02 3.108148e-02 2.000914e-02 4.031705e-03 -1.738407e-02 -4.460755e-02 -7.789107e-02 -1.171604e-01 -1.620594e-01 -2.117404e-01 -2.649164e-01 -3.197356e-01 -3.738603e-01 -4.244948e-01 -4.685108e-01 -5.026174e-01 -5.235343e-01 -5.282087e-01 -5.140157e-01 -4.789963e-01 -4.221456e-01 -3.438413e-01 -2.462723e-01 -1.336514e-01 -1.219242e-02 1.107219e-01 2.273372e-01 3.308640e-01 4.161423e-01 4.800105e-01 5.213225e-01 5.404042e-01 5.389895e-01 5.196384e-01 4.856470e-01 4.406460e-01 3.883019e-01 3.321274e-01 2.751778e-01 2.200023e-01 1.685435e-01 1.221381e-01 8.161784e-02 4.732058e-02 1.926915e-02 -2.808670e-03 -1.933327e-02 -3.084144e-02 -3.791440e-02 -4.113744e-02 -4.109349e-02 -3.832155e-02 -3.334565e-02 -2.664016e-02 -1.866649e-02 -9.851203e-03 
-9.386932e-04 1.304361e-02 2.643366e-02 3.860707e-02 4.892018e-02 5.669813e-02 6.122484e-02 6.174805e-02 5.745399e-02 4.751966e-02 3.106407e-02 7.280425e-03 -2.463172e-02 -6.523446e-02 -1.149247e-01 -1.736210e-01 -2.408338e-01 -3.153492e-01 -3.953075e-01 -4.780079e-01 -5.600245e-01 -6.372360e-01 -7.050106e-01 -7.584497e-01 -7.926353e-01 -8.029085e-01 -7.850997e-01 -7.357589e-01 -6.526062e-01 -5.353018e-01 -3.865042e-01 -2.125254e-01 -2.343410e-02 1.683599e-01 3.497762e-01 5.095601e-01 6.395862e-01 7.353977e-01 7.958836e-01 8.222228e-01 8.174807e-01 7.858614e-01 7.324969e-01 6.629763e-01 5.828561e-01 4.974201e-01 4.112212e-01 3.280226e-01 2.506665e-01 1.810794e-01 1.204404e-01 6.919850e-02 2.734529e-02 -5.554335e-03 -3.014747e-02 -4.724282e-02 -5.771243e-02 -6.242731e-02 -6.225633e-02 -5.800030e-02 -5.044075e-02 -4.028523e-02 -2.822463e-02 -1.489864e-02 
-1.278033e-03 1.757790e-02 3.564053e-02 5.207428e-02 6.602174e-02 7.658500e-02 8.281703e-02 8.372356e-02 7.823350e-02 6.526137e-02 4.364408e-02 1.230845e-02 -2.982149e-02 -8.352256e-02 -1.493770e-01 -2.273555e-01 -3.169210e-01 -4.165930e-01 -5.240588e-01 -6.358795e-01 -7.476374e-01 -8.539444e-01 -9.486763e-01 -1.025309e+00 -1.077245e+00 -1.098110e+00 -1.081909e+00 -1.022957e+00 -9.164112e-01 -7.597153e-01 -5.549396e-01 -3.104827e-01 -4.158240e-02 2.320793e-01 4.895777e-01 7.134148e-01 8.918583e-01 1.019688e+00 1.096944e+00 1.126750e+00 1.114309e+00 1.065985e+00 9.890744e-01 8.913833e-01 7.804716e-01 6.634613e-01 5.463773e-01 4.341098e-01 3.303014e-01 2.373312e-01 1.566220e-01 8.862591e-02 3.323431e-02 -1.020703e-02 -4.260146e-02 -6.504579e-02 -7.870597e-02 -8.473501e-02 -8.428020e-02 -7.839614e-02 -6.811455e-02 -5.437139e-02 -3.808399e-02 -2.010507e-02 
-1.650309e-03 2.230139e-02 4.525555e-02 6.616459e-02 8.395821e-02 9.751951e-02 1.056774e-01 1.072049e-01 1.007841e-01 8.507468e-02 5.863369e-02 2.011049e-02 -3.187537e-02 -9.837166e-02 -1.802339e-01 -2.776114e-01 -3.900807e-01 -5.160845e-01 -6.530489e-01 -7.969582e-01 -9.424831e-01 -1.082923e+00 -1.210491e+00 -1.316798e+00 -1.393390e+00 -1.432185e+00 -1.425283e+00 -1.363940e+00 -1.238708e+00 -1.041733e+00 -7.723026e-01 -4.407340e-01 -6.979704e-02 3.093105e-01 6.632241e-01 9.648564e-01 1.197851e+00 1.357591e+00 1.447455e+00 1.474652e+00 1.447440e+00 1.375103e+00 1.267480e+00 1.135039e+00 9.876508e-01 8.344554e-01 6.830016e-01 5.392355e-01 4.074466e-01 2.902805e-01 1.892028e-01 1.045000e-01 3.581479e-02 -1.782493e-02 -5.765373e-02 -8.509210e-02 -1.016218e-01 -1.086780e-01 -1.076831e-01 -9.993482e-02 -8.670694e-02 -6.915586e-02 -4.842139e-02 -2.556744e-02 
-2.053018e-03 2.732006e-02 5.548911e-02 8.119321e-02 1.031535e-01 1.200384e-01 1.304648e-01 1.329821e-01 1.260385e-01 1.080401e-01 7.725657e-02 3.202370e-02 -2.940947e-02 -1.084767e-01 -2.064770e-01 -3.239652e-01 -4.609217e-01 -6.160181e-01 -7.867261e-01 -9.686339e-01 -1.155495e+00 -1.338985e+00 -1.509024e+00 -1.654683e+00 -1.765280e+00 -1.831431e+00 -1.844290e+00 -1.791478e+00 -1.655220e+00 -1.416688e+00 -1.068315e+00 -6.219118e-01 -1.118239e-01 4.121176e-01 8.961200e-01 1.297913e+00 1.594792e+00 1.785477e+00 1.881039e+00 1.896217e+00 1.843713e+00 1.736301e+00 1.586761e+00 1.408958e+00 1.215538e+00 1.018102e+00 8.259226e-01 6.459595e-01 4.830213e-01 3.397212e-01 2.173000e-01 1.155773e-01 3.371717e-02 -2.976253e-02 -7.655757e-02 -1.084962e-01 -1.274219e-01 -1.350699e-01 -1.331391e-01 -1.231626e-01 -1.066451e-01 -8.495398e-02 -5.944409e-02 -3.138781e-02 
-2.510833e-03 3.274571e-02 6.658940e-02 9.754867e-02 1.241410e-01 1.448301e-01 1.580318e-01 1.620843e-01 1.552067e-01 1.355414e-01 1.010338e-01 4.962634e-02 -2.093867e-02 -1.126937e-01 -2.276737e-01 -3.672248e-01 -5.321696e-01 -7.218784e-01 -9.342348e-01 -1.164581e+00 -1.405446e+00 -1.645918e+00 -1.871981e+00 -2.068221e+00 -2.220610e+00 -2.320006e+00 -2.360505e+00 -2.329129e+00 -2.195573e+00 -1.918469e+00 -1.474553e+00 -8.749562e-01 -1.717108e-01 5.546775e-01 1.216772e+00 1.747767e+00 2.117004e+00 2.333766e+00 2.425533e+00 2.419565e+00 2.331519e+00 2.177093e+00 1.972093e+00 1.734751e+00 1.481620e+00 1.227632e+00 9.843957e-01 7.601623e-01 5.601872e-01 3.868343e-01 2.407237e-01 1.208377e-01 2.547505e-02 -4.764663e-02 -1.009258e-01 -1.367501e-01 -1.574282e-01 -1.650438e-01 -1.615945e-01 -1.488483e-01 -1.285324e-01 -1.022146e-01 -7.145474e-02 -3.772799e-02 
-3.020094e-03 3.875099e-02 7.890155e-02 1.157532e-01 1.476310e-01 1.728027e-01 1.894995e-01 1.958497e-01 1.898410e-01 1.693086e-01 1.317974e-01 7.470109e-02 -4.971355e-03 -1.101910e-01 -2.441647e-01 -4.095596e-01 -6.086248e-01 -8.419441e-01 -1.108172e+00 -1.402269e+00 -1.714685e+00 -2.029848e+00 -2.326296e+00 -2.580352e+00 -2.772631e+00 -2.897927e+00 -2.966375e+00 -2.975639e+00 -2.873671e+00 -2.574437e+00 -2.022746e+00 -1.223552e+00 -2.548664e-01 7.522346e-01 1.654226e+00 2.345620e+00 2.786328e+00 3.011459e+00 3.083241e+00 3.048468e+00 2.920263e+00 2.711839e+00 2.440754e+00 2.130688e+00 1.803058e+00 1.477722e+00 1.169942e+00 8.899946e-01 6.440747e-01 4.342200e-01 2.602029e-01 1.197212e-01 9.760029e-03 -7.318935e-02 -1.325767e-01 -1.716051e-01 -1.932250e-01 -1.999724e-01 -1.941964e-01 -1.779191e-01 -1.530881e-01 -1.214626e-01 -8.479510e-02 -4.475513e-02 
-3.607596e-03 4.551651e-02 9.281603e-02 1.364180e-01 1.744676e-01 2.050524e-01 2.262265e-01 2.359058e-01 2.318109e-01 2.113897e-01 1.716339e-01 1.091440e-01 1.984226e-02 -1.006550e-01 -2.572865e-01 -4.546753e-01 -6.970453e-01 -9.866391e-01 -1.322878e+00 -1.699853e+00 -2.104288e+00 -2.512513e+00 -2.889494e+00 -3.195462e+00 -3.401471e+00 -3.510217e+00 -3.569910e+00 -3.630232e+00 -3.618134e+00 -3.359379e+00 -2.727153e+00 -1.693545e+00 -3.693213e-01 1.019814e+00 2.224868e+00 3.078518e+00 3.542574e+00 3.725799e+00 3.765085e+00 3.720923e+00 3.571712e+00 3.319810e+00 2.986767e+00 2.600476e+00 2.189213e+00 1.780030e+00 1.393814e+00 1.044866e+00 7.413999e-01 4.859429e-01 2.774615e-01 1.122028e-01 -1.463940e-02 -1.082729e-01 -1.736748e-01 -2.152360e-01 -2.368290e-01 -2.416262e-01 -2.324333e-01 -2.115804e-01 -1.812474e-01 -1.433837e-01 -9.991876e-02 -5.270505e-02 
-4.267111e-03 5.328473e-02 1.088196e-01 1.602861e-01 2.056716e-01 2.428926e-01 2.698335e-01 2.841619e-01 2.832670e-01 2.640495e-01 2.227221e-01 1.547225e-01 5.444460e-02 -8.446616e-02 -2.692030e-01 -5.067721e-01 -8.034951e-01 -1.162930e+00 -1.584456e+00 -2.059851e+00 -2.569968e+00 -3.078355e+00 -3.525800e+00 -3.844746e+00 -3.994129e+00 -3.977900e+00 -3.928080e+00 -4.058438e+00 -4.250144e+00 -4.168218e+00 -3.561911e+00 -2.303978e+00 -5.228920e-01 1.369421e+00 2.914448e+00 3.864796e+00 4.215155e+00 4.241039e+00 4.233656e+00 4.238076e+00 4.127605e+00 3.880596e+00 3.529000e+00 3.095331e+00 2.614573e+00 2.124819e+00 1.655826e+00 1.228883e+00 8.573116e-01 5.461990e-01 2.950312e-01 9.907351e-02 -4.833123e-02 -1.544561e-01 -2.262925e-01 -2.698815e-01 -2.904043e-01 -2.919490e-01 -2.779585e-01 -2.511720e-01 -2.140444e-01 -1.687244e-01 -1.173068e-01 -6.181041e-02 
-5.015828e-03 6.229937e-02 1.274236e-01 1.881579e-01 2.423531e-01 2.877708e-01 3.221077e-01 3.427287e-01 3.465570e-01 3.297285e-01 2.873402e-01 2.132402e-01 9.980999e-02 -6.170298e-02 -2.808990e-01 -5.668792e-01 -9.268838e-01 -1.364004e+00 -1.875017e+00 -2.447944e+00 -3.057177e+00 -3.651350e+00 -4.130294e+00 -4.376226e+00 -4.371364e+00 -4.059969e+00 -3.603368e+00 -3.707418e+00 -4.229309e+00 -4.585519e+00 -4.367095e+00 -3.076354e+00 -7.244560e-01 1.834721e+00 3.628394e+00 4.377104e+00 4.247352e+00 3.940268e+00 4.046643e+00 4.325528e+00 4.332088e+00 4.152394e+00 3.891141e+00 3.487916e+00 2.992099e+00 2.459347e+00 1.927586e+00 1.429650e+00 9.879126e-01 6.148567e-01 3.135556e-01 8.040890e-02 -9.222662e-02 -2.135289e-01 -2.927718e-01 -3.381053e-01 -3.564533e-01 -3.532083e-01 -3.327011e-01 -2.982576e-01 -2.526795e-01 -1.983510e-01 -1.375195e-01 -7.235218e-02 
-5.837942e-03 7.283983e-02 1.491854e-01 2.208902e-01 2.857028e-01 3.412292e-01 3.849507e-01 4.138122e-01 4.240913e-01 4.108307e-01 3.676408e-01 2.863062e-01 1.569186e-01 -3.168315e-02 -2.906597e-01 -6.292501e-01 -1.052033e+00 -1.556641e+00 -2.132534e+00 -2.762877e+00 -3.423252e+00 -4.055787e+00 -4.478170e+00 -4.460453e+00 -4.214243e+00 -3.344473e+00 -1.804377e+00 -1.948773e+00 -2.799860e+00 -3.452173e+00 -4.150038e+00 -3.499295e+00 -8.828607e-01 2.092890e+00 3.461106e+00 3.552032e+00 2.618656e+00 1.827147e+00 2.536780e+00 3.604509e+00 3.754186e+00 3.713270e+00 3.779961e+00 3.543192e+00 3.142225e+00 2.660273e+00 2.132936e+00 1.604459e+00 1.112206e+00 6.830216e-01 3.299573e-01 5.512639e-02 -1.472552e-01 -2.869375e-01 -3.751119e-01 -4.222274e-01 -4.373542e-01 -4.276159e-01 -3.985781e-01 -3.543931e-01 -2.983443e-01 -2.331097e-01 -1.610917e-01 -8.458113e-02 
-6.720439e-03 8.516111e-02 1.746149e-01 2.592804e-01 3.368344e-01 4.047304e-01 4.601608e-01 4.995055e-01 5.181250e-01 5.096250e-01 4.657291e-01 3.759243e-01 2.281955e-01 1.009296e-02 -2.883697e-01 -6.717014e-01 -1.134086e+00 -1.658786e+00 -2.220308e+00 -2.802341e+00 -3.413616e+00 -4.036806e+00 -4.279108e+00 -3.484606e+00 -3.225567e+00 -1.702163e+00 1.827629e+00 2.691297e+00 4.815263e+00 8.768887e+00 9.741141e+00 6.440119e+00 9.272550e-01 -4.811458e+00 -9.422176e+00 -1.012850e+01 -7.068603e+00 -1.878498e+00 1.354273e+00 2.429329e+00 2.221584e+00 2.031630e+00 2.929417e+00 2.944930e+00 2.769083e+00 2.504627e+00 2.117902e+00 1.656248e+00 1.173933e+00 7.210358e-01 3.298543e-01 1.652448e-02 -2.168566e-01 -3.771359e-01 -4.756323e-01 -5.246562e-01 -5.354815e-01 -5.173724e-01 -4.774768e-01 -4.211039e-01 -3.521877e-01 -2.738068e-01 -1.885233e-01 -9.872988e-02 
-7.623892e-03 9.948929e-02 2.041454e-01 3.040012e-01 3.967046e-01 4.795332e-01 5.493013e-01 6.016006e-01 6.305892e-01 6.280398e-01 5.835973e-01 4.845601e-01 3.180594e-01 7.310652e-02 -2.534337e-01 -6.524412e-01 -1.095321e+00 -1.536717e+00 -1.928792e+00 -2.270356e+00 -2.692793e+00 -3.382662e+00 -3.329000e+00 1.496623e-02 2.168362e+00 1.017098e+01 2.465402e+01 2.769210e+01 2.232901e+01 1.613225e+01 1.058241e+01 6.024697e+00 1.102111e+00 -3.500995e+00 -8.573100e+00 -1.382937e+01 -2.100250e+01 -2.663595e+01 -2.577402e+01 -1.414025e+01 -4.024334e+00 -1.089539e+00 1.586935e+00 1.419485e+00 1.511975e+00 1.692711e+00 1.656015e+00 1.427904e+00 1.075297e+00 6.735264e-01 2.847989e-01 -4.889153e-02 -3.071874e-01 -4.872161e-01 -5.964405e-01 -6.472774e-01 -6.526871e-01 -6.242056e-01 -5.709078e-01 -4.995999e-01 -4.151121e-01 -3.210521e-01 -2.201765e-01 -1.149474e-01 
-8.480870e-03 1.159746e-01 2.380292e-01 3.554472e-01 4.658818e-01 5.664102e-01 6.533196e-01 7.211800e-01 7.626026e-01 7.672922e-01 7.228885e-01 6.155541e-01 4.342966e-01 1.752049e-01 -1.484004e-01 -4.998595e-01 -8.100408e-01 -9.896983e-01 -9.640070e-01 -7.850489e-01 -9.025669e-01 -2.252231e+00 -1.244008e+00 1.067234e+01 2.606946e+01 2.946509e+01 1.733295e+01 2.921036e+00 -3.551236e+00 -5.822651e+00 -6.104125e+00 -4.114114e+00 -6.117006e-01 3.652002e+00 5.912869e+00 6.806218e+00 4.454478e+00 -1.311500e+00 -1.481316e+01 -2.708710e+01 -2.803416e+01 -1.561323e+01 -2.207295e+00 -1.348671e+00 -1.004063e+00 -8.791245e-02 4.591268e-01 6.906210e-01 6.599381e-01 4.459765e-01 1.431076e-01 -1.669391e-01 -4.300880e-01 -6.223869e-01 -7.399374e-01 -7.915501e-01 -7.901203e-01 -7.491481e-01 -6.797385e-01 -5.905577e-01 -4.875772e-01 -3.751205e-01 -2.561754e-01 -1.332510e-01 
-9.211766e-03 1.346356e-01 2.762480e-01 4.135975e-01 5.443848e-01 6.654273e-01 7.723221e-01 8.583246e-01 9.142436e-01 9.276313e-01 8.849041e-01 7.732306e-01 5.886920e-01 3.431894e-01 8.087906e-02 -1.157980e-01 -1.184606e-01 2.170304e-01 9.732821e-01 1.992581e+00 2.108447e+00 3.044837e+00 1.649505e+01 3.054310e+01 2.158329e+01 -5.402893e-01 -1.459532e+01 -1.579320e+01 -1.258485e+01 -7.327055e+00 -2.629884e+00 -8.679233e-01 -3.255858e-01 4.183444e-01 1.269790e+00 5.034380e+00 1.105938e+01 1.560290e+01 1.496651e+01 6.126896e+00 -1.324785e+01 -2.718139e+01 -2.062695e+01 -9.296425e+00 -4.360732e+00 -2.878239e+00 -1.712148e+00 -8.205390e-01 -2.740526e-01 -9.041313e-02 -1.681481e-01 -3.747835e-01 -6.025428e-01 -7.893530e-01 -9.083056e-01 -9.579171e-01 -9.477635e-01 -8.920888e-01 -8.038699e-01 -6.938441e-01 -5.694185e-01 -4.358167e-01 -2.963366e-01 -1.534970e-01 
-9.684785e-03 1.553399e-01 3.184272e-01 4.778698e-01 6.314397e-01 7.756229e-01 9.051025e-01 1.011552e+00 1.083763e+00 1.107498e+00 1.069466e+00 9.619024e-01 7.957381e-01 6.119166e-01 5.038838e-01 6.207964e-01 1.164549e+00 2.318109e+00 4.103180e+00 5.848664e+00 1.098999e+01 2.091793e+01 2.596765e+01 9.624984e+00 -1.212327e+01 -1.568533e+01 -1.196581e+00 1.328657e+01 1.318295e+01 8.876765e+00 5.349367e+00 2.605197e+00 1.366403e-01 -2.109168e+00 -4.875287e+00 -7.856962e+00 -1.134878e+01 -1.368718e+01 -2.843405e+00 1.121766e+01 1.377637e+01 -1.059975e+00 -1.933527e+01 -2.163422e+01 -1.227089e+01 -5.124742e+00 -4.894562e+00 -3.355829e+00 -1.956377e+00 -1.091986e+00 -7.409454e-01 -7.201693e-01 -8.460086e-01 -9.957038e-01 -1.102663e+00 -1.145071e+00 -1.123657e+00 -1.051162e+00 -9.416789e-01 -8.081059e-01 -6.595079e-01 -5.022431e-01 -3.399981e-01 -1.752846e-01 
-9.775652e-03 1.777079e-01 3.637029e-01 5.469320e-01 7.252507e-01 8.946936e-01 1.048785e+00 1.177321e+00 1.267066e+00 1.302762e+00 1.274184e+00 1.184569e+00 1.071205e+00 1.020874e+00 1.198688e+00 1.839427e+00 3.220317e+00 5.521464e+00 7.987507e+00 1.208583e+01 1.759341e+01 1.580688e+01 2.009007e+00 -1.147206e+01 -6.758538e+00 6.645065e+00 1.271849e+01 1.266851e+01 1.001953e+01 7.494230e+00 5.018182e+00 2.632785e+00 2.353330e-01 -2.102022e+00 -4.411551e+00 -6.533717e+00 -8.572797e+00 -1.067052e+01 -1.018907e+01 -9.625565e+00 6.680876e-01 9.129449e+00 3.285537e+00 -1.140814e+01 -1.722019e+01 -9.064548e+00 -7.546243e+00 -7.170754e+00 -4.610434e+00 -2.714345e+00 -1.670216e+00 -1.253439e+00 -1.182730e+00 -1.247866e+00 -1.322063e+00 -1.349186e+00 -1.313457e+00 -1.222342e+00 -1.089771e+00 -9.305534e-01 -7.556376e-01 -5.727184e-01 -3.860033e-01 -1.979721e-01 
-9.321473e-03 2.011253e-01 4.106997e-01 6.186500e-01 8.228938e-01 1.018856e+00 1.198596e+00 1.349771e+00 1.457230e+00 1.506088e+00 1.492959e+00 1.440440e+00 1.426103e+00 1.603512e+00 2.229627e+00 3.635297e+00 6.159567e+00 9.872022e+00 1.252494e+01 1.186211e+01 7.581196e+00 8.775283e-01 -3.908287e+00 1.612664e+00 6.695426e+00 6.202230e+00 7.900236e+00 8.161327e+00 7.227499e+00 5.788506e+00 4.090304e+00 2.220105e+00 2.352001e-01 -1.727878e+00 -3.543163e+00 -5.070734e+00 -6.274016e+00 -7.000760e+00 -6.753964e+00 -6.037106e+00 -5.338278e+00 -3.784444e+00 1.864020e+00 8.134361e-01 -8.919612e+00 -1.027908e+01 -9.982108e+00 -1.139452e+01 -8.312114e+00 -5.036840e+00 -3.016481e+00 -2.010663e+00 -1.627535e+00 -1.547034e+00 -1.560927e+00 -1.562475e+00 -1.509342e+00 -1.398756e+00 -1.242416e+00 -1.056597e+00 -8.542318e-01 -6.445989e-01 -4.325676e-01 -2.206007e-01 
-8.186038e-03 2.246616e-01 4.574250e-01 6.899400e-01 9.201255e-01 1.142564e+00 1.347496e+00 1.520108e+00 1.643595e+00 1.705080e+00 1.712792e+00 1.718083e+00 1.855266e+00 2.365675e+00 3.613796e+00 5.997118e+00 9.835086e+00 1.231995e+01 6.428115e+00 2.937745e+00 5.300045e+00 5.107278e+00 3.279478e+00 2.693628e+00 3.882882e+00 4.375677e+00 5.225890e+00 5.538192e+00 5.189136e+00 4.350250e+00 3.170229e+00 1.755911e+00 2.120287e-01 -1.322932e+00 -2.713892e+00 -3.834337e+00 -4.604822e+00 -4.938309e+00 -4.726856e+00 -4.115467e+00 -3.262391e+00 -2.023552e+00 -2.811999e+00 -3.284051e+00 -5.431109e+00 -6.171581e+00 -4.155966e+00 -1.002430e+01 -1.276893e+01 -7.967417e+00 -4.754107e+00 -2.991291e+00 -2.178144e+00 -1.884357e+00 -1.806962e+00 -1.771969e+00 -1.699531e+00 -1.570333e+00 -1.391418e+00 -1.179735e+00 -9.503217e-01 -7.142670e-01 -4.773112e-01 -2.419371e-01 
-6.276953e-03 2.470869e-01 5.013243e-01 7.568769e-01 1.011560e+00 1.258832e+00 1.486697e+00 1.677508e+00 1.813003e+00 1.884024e+00 1.914909e+00 1.995198e+00 2.330492e+00 3.272921e+00 5.305944e+00 8.749033e+00 1.291077e+01 5.018891e+00 -9.551174e-01 8.983994e+00 9.810653e+00 1.519983e+00 -8.531813e-01 6.143987e-01 1.909382e+00 2.825319e+00 3.534202e+00 3.850556e+00 3.723561e+00 3.205102e+00 2.380387e+00 1.340223e+00 1.838599e-01 -9.710874e-01 -2.009251e+00 -2.828256e+00 -3.353000e+00 -3.525949e+00 -3.306933e+00 -2.721455e+00 -1.779797e+00 -4.839876e-01 7.921171e-01 -4.596943e-01 -5.571922e+00 -1.148771e+01 -8.736898e-01 2.737783e-01 -1.307453e+01 -1.133237e+01 -6.698623e+00 -4.124482e+00 -2.802054e+00 -2.236026e+00 -2.039285e+00 -1.959522e+00 -1.868499e+00 -1.724252e+00 -1.526390e+00 -1.291813e+00 -1.037709e+00 -7.772731e-01 -5.173457e-01 -2.605332e-01 
-3.543698e-03 2.669056e-01 5.393399e-01 8.147699e-01 1.090775e+00 1.359358e+00 1.605858e+00 1.809243e+00 1.949767e+00 2.022523e+00 2.070985e+00 2.227043e+00 2.778232e+00 4.210465e+00 7.250598e+00 1.289230e+01 8.448249e+00 -4.944993e+00 6.379182e+00 1.558453e+01 2.052675e+00 -3.267970e+00 -1.860288e+00 -4.641125e-01 7.736582e-01 1.702629e+00 2.339650e+00 2.649268e+00 2.629511e+00 2.308923e+00 1.741724e+00 9.964883e-01 1.545992e-01 -6.901967e-01 -1.445926e+00 -2.032475e+00 -2.387111e+00 -2.469624e+00 -2.247294e+00 -1.709485e+00 -8.365860e-01 3.654908e-01 1.738710e+00 3.075032e+00 1.255378e+00 -1.215030e+01 -1.338663e+01 4.918871e+00 -1.902528e+00 -1.391730e+01 -8.285914e+00 -5.253421e+00 -3.425713e+00 -2.555552e+00 -2.225128e+00 -2.100100e+00 -1.996694e+00 -1.844839e+00 -1.634896e+00 -1.383123e+00 -1.109084e+00 -8.284102e-01 -5.493367e-01 -2.747504e-01 
-1.221696e-04 2.823211e-01 5.679786e-01 8.583552e-01 1.150665e+00 1.435201e+00 1.694253e+00 1.902894e+00 2.039312e+00 2.102074e+00 2.152524e+00 2.361517e+00 3.084555e+00 4.904710e+00 8.592299e+00 1.340339e+01 -4.848757e+00 -1.730419e+00 1.936752e+01 6.296903e+00 -4.538404e+00 -3.698160e+00 -2.390926e+00 -1.085812e+00 3.118095e-02 8.758508e-01 1.450181e+00 1.754246e+00 1.802125e+00 1.617407e+00 1.239513e+00 7.211598e-01 1.259223e-01 -4.741585e-01 -1.008047e+00 -1.413768e+00 -1.641035e+00 -1.656164e+00 -1.430651e+00 -9.436110e-01 -1.694381e-01 8.955862e-01 2.180289e+00 3.491030e+00 4.653904e+00 4.009589e-02 -1.982145e+01 -5.779946e+00 7.982854e+00 -1.014474e+01 -1.045798e+01 -6.319603e+00 -3.950057e+00 -2.779966e+00 -2.325186e+00 -2.167947e+00 -2.064835e+00 -1.916885e+00 -1.704579e+00 -1.443888e+00 -1.156996e+00 -8.623870e-01 -5.699403e-01 -2.830389e-01 
3.802614e-03 2.914799e-01 5.836662e-01 8.822630e-01 1.184071e+00 1.477609e+00 1.742051e+00 1.948292e+00 2.071644e+00 2.111277e+00 2.140702e+00 2.352282e+00 3.153170e+00 5.225426e+00 1.002122e+01 5.432076e+00 -8.240625e+00 1.244377e+01 1.955784e+01 -3.512823e+00 -6.207326e+00 -4.414112e+00 -2.865944e+00 -1.565237e+00 -5.257885e-01 2.467819e-01 7.740864e-01 1.073914e+00 1.168878e+00 1.082662e+00 8.471303e-01 5.029266e-01 9.887407e-02 -3.105651e-01 -6.710505e-01 -9.352555e-01 -1.062752e+00 -1.025091e+00 -7.948339e-01 -3.468275e-01 3.492235e-01 1.313514e+00 2.523636e+00 3.846883e+00 5.092738e+00 6.427181e+00 -9.792110e+00 -2.005847e+01 4.692149e+00 3.786361e+00 -1.211776e+01 -6.577108e+00 -4.180869e+00 -2.824379e+00 -2.297530e+00 -2.137444e+00 -2.055271e+00 -1.926303e+00 -1.723821e+00 -1.464665e+00 -1.174167e+00 -8.739981e-01 -5.758798e-01 -2.839011e-01 
7.758291e-03 2.923669e-01 5.827383e-01 8.810841e-01 1.183866e+00 1.478125e+00 1.740397e+00 1.937923e+00 2.042784e+00 2.051603e+00 2.039248e+00 2.179911e+00 2.822550e+00 4.312474e+00 9.352037e+00 -7.570820e+00 -3.196234e-01 2.204063e+01 4.159695e+00 -8.666942e+00 -6.911622e+00 -4.923661e+00 -3.269623e+00 -1.964090e+00 -9.653643e-01 -2.388789e-01 2.604969e-01 5.620355e-01 6.942226e-01 6.813702e-01 5.511884e-01 3.363926e-01 7.503953e-02 -1.914025e-01 -4.211946e-01 -5.774308e-01 -6.272855e-01 -5.450954e-01 -3.048097e-01 1.215422e-01 7.687192e-01 1.674256e+00 2.855906e+00 4.288658e+00 5.879904e+00 7.827051e+00 5.817034e+00 -2.225591e+01 -8.311022e+00 1.057936e+01 -9.548022e+00 -7.013349e+00 -4.183383e+00 -2.661276e+00 -2.121978e+00 -1.999960e+00 -1.961121e+00 -1.866057e+00 -1.685213e+00 -1.438621e+00 -1.154937e+00 -8.591036e-01 -5.645843e-01 -2.763041e-01 
1.126547e-02 2.832704e-01 5.621048e-01 8.502244e-01 1.143976e+00 1.429709e+00 1.682507e+00 1.868065e+00 1.956353e+00 1.943790e+00 1.900837e+00 1.987024e+00 2.453921e+00 3.280268e+00 5.812654e+00 -1.035180e+01 1.171222e+01 1.994098e+01 -1.156017e+01 -1.028446e+01 -7.541893e+00 -5.322959e+00 -3.568816e+00 -2.257263e+00 -1.284591e+00 -5.900313e-01 -1.116878e-01 1.899405e-01 3.472973e-01 3.863041e-01 3.320120e-01 2.115432e-01 5.489671e-02 -1.062183e-01 -2.394586e-01 -3.159753e-01 -3.083838e-01 -1.934787e-01 5.474861e-02 4.662015e-01 1.080761e+00 1.947677e+00 3.115776e+00 4.634601e+00 6.487804e+00 8.871914e+00 1.298453e+01 -1.235084e+01 -1.896490e+01 4.702302e+00 -9.972288e-01 -7.332607e+00 -3.762725e+00 -2.248212e+00 -1.802806e+00 -1.767142e+00 -1.788253e+00 -1.736661e+00 -1.585992e+00 -1.361859e+00 -1.095583e+00 -8.148193e-01 -5.342486e-01 -2.595718e-01 
1.366741e-02 2.627150e-01 5.192579e-01 7.859231e-01 1.059248e+00 1.325985e+00 1.561554e+00 1.733024e+00 1.811399e+00 1.798129e+00 1.768018e+00 1.908784e+00 2.530139e+00 3.872252e+00 7.997981e-01 -4.290009e+00 1.804047e+01 1.065176e+01 -1.717306e+01 -1.121140e+01 -7.825065e+00 -5.453380e+00 -3.675125e+00 -2.389029e+00 -1.459205e+00 -8.028657e-01 -3.509687e-01 -5.719759e-02 1.121253e-01 1.834899e-01 1.795747e-01 1.233244e-01 3.874725e-02 -4.953535e-02 -1.162191e-01 -1.382976e-01 -9.279841e-02 4.153706e-02 2.899118e-01 6.831460e-01 1.263882e+00 2.087181e+00 3.221128e+00 4.745502e+00 6.717857e+00 9.289959e+00 1.250898e+01 1.698247e+00 -1.958758e+01 -2.658198e+00 8.275239e+00 -5.824199e+00 -2.791057e+00 -1.706770e+00 -1.436766e+00 -1.489425e+00 -1.561429e+00 -1.547879e+00 -1.429113e+00 -1.234175e+00 -9.950007e-01 -7.400555e-01 -4.842437e-01 -2.336665e-01 
1.446339e-02 2.300270e-01 4.531244e-01 6.864122e-01 9.269215e-01 1.162934e+00 1.372164e+00 1.525834e+00 1.598899e+00 1.600095e+00 1.613013e+00 1.871926e+00 2.857185e+00 5.512635e+00 -3.986954e+00 -1.139654e+00 1.535326e+01 2.271536e+00 -1.286400e+01 -1.000560e+01 -7.244059e+00 -5.097440e+00 -3.474628e+00 -2.301404e+00 -1.462384e+00 -8.717027e-01 -4.650435e-01 -1.951306e-01 -3.040256e-02 5.459189e-02 7.962176e-02 6.385841e-02 2.625457e-02 -1.427930e-02 -3.813844e-02 -2.727033e-02 3.739179e-02 1.746449e-01 4.079430e-01 7.671901e-01 1.293902e+00 2.043085e+00 3.084946e+00 4.500495e+00 6.371918e+00 8.771681e+00 1.172940e+01 1.286437e+01 -1.634437e+01 -1.069335e+01 9.051577e+00 -4.657162e+00 -2.414428e+00 -1.443080e+00 -1.187447e+00 -1.234557e+00 -1.310858e+00 -1.313341e+00 -1.220928e+00 -1.058528e+00 -8.546677e-01 -6.356378e-01 -4.151446e-01 -1.990643e-01 
1.330762e-02 1.854009e-01 3.642597e-01 5.523349e-01 7.473526e-01 9.400200e-01 1.112096e+00 1.240940e+00 1.307183e+00 1.324424e+00 1.376086e+00 1.709016e+00 2.866658e+00 6.058898e+00 -6.118072e+00 1.908925e+00 1.375139e+01 -2.639127e+00 -8.641197e+00 -7.656433e+00 -5.868877e+00 -4.234267e+00 -2.936492e+00 -1.977555e+00 -1.288106e+00 -8.007107e-01 -4.641095e-01 -2.374756e-01 -9.436828e-02 -1.297517e-02 2.273651e-02 2.790600e-02 1.687973e-02 3.689635e-03 2.932772e-03 2.827954e-02 9.466647e-02 2.177042e-01 4.171646e-01 7.194805e-01 1.159954e+00 1.787145e+00 2.657612e+00 3.835922e+00 5.382845e+00 7.331468e+00 9.852294e+00 1.399998e+01 -1.068156e+01 -1.078602e+01 5.204374e+00 -4.750991e+00 -2.922483e+00 -1.547014e+00 -1.082503e+00 -1.017302e+00 -1.045330e+00 -1.040237e+00 -9.671502e-01 -8.394442e-01 -6.780632e-01 -5.041083e-01 -3.286885e-01 -1.567591e-01 
1.020852e-02 1.302677e-01 2.554629e-01 3.877096e-01 5.255136e-01 6.625329e-01 7.859334e-01 8.803939e-01 9.332669e-01 9.592417e-01 1.030370e+00 1.366263e+00 2.465436e+00 5.326668e+00 -5.538360e+00 2.479743e+00 1.008584e+01 -4.499548e+00 -5.583946e+00 -5.066304e+00 -4.046233e+00 -2.992414e+00 -2.112249e+00 -1.443254e+00 -9.558348e-01 -6.085922e-01 -3.676228e-01 -2.037334e-01 -9.814977e-02 -3.491776e-02 -2.731810e-03 8.981073e-03 9.913723e-03 9.421861e-03 1.727395e-02 4.270863e-02 9.611353e-02 1.887529e-01 3.349960e-01 5.546778e-01 8.730038e-01 1.325638e+00 1.948321e+00 2.780990e+00 3.848877e+00 5.147795e+00 6.782408e+00 8.461769e+00 -7.329956e+00 -6.856333e+00 3.342807e+00 -3.341949e+00 -2.882220e+00 -1.498235e+00 -9.286427e-01 -7.702679e-01 -7.458645e-01 -7.278212e-01 -6.730401e-01 -5.834181e-01 -4.710149e-01 -3.499611e-01 -2.278602e-01 -1.082184e-01 
5.543374e-03 6.725076e-02 1.317369e-01 2.000633e-01 2.715000e-01 3.428663e-01 4.075684e-01 4.580054e-01 4.882300e-01 5.084899e-01 5.636265e-01 7.934735e-01 1.530717e+00 3.388398e+00 -2.939805e+00 1.580488e+00 5.679362e+00 -2.565390e+00 -2.588407e+00 -2.455184e+00 -2.034263e+00 -1.536047e+00 -1.099757e+00 -7.593790e-01 -5.080022e-01 -3.276221e-01 -2.018433e-01 -1.157825e-01 -5.972758e-02 -2.531072e-02 -6.666497e-03 1.649393e-03 4.550990e-03 6.747011e-03 1.315650e-02 2.847509e-02 5.803961e-02 1.077908e-01 1.852702e-01 3.011290e-01 4.683305e-01 7.055089e-01 1.028993e+00 1.456022e+00 1.992573e+00 2.619588e+00 3.361979e+00 3.788863e+00 -4.117936e+00 -3.839166e+00 1.713510e+00 -1.539890e+00 -1.831715e+00 -9.497043e-01 -5.575054e-01 -4.268545e-01 -3.933711e-01 -3.765787e-01 -3.460239e-01 -2.993626e-01 -2.414927e-01 -1.793246e-01 -1.166463e-01 -5.525168e-02 
5.484630e-13 1.206814e-12 2.072767e-12 3.238598e-12 4.775626e-12 6.717626e-12 9.213532e-12 1.256948e-11 1.724426e-11 2.430550e-11 3.574373e-11 5.632083e-11 1.011250e-10 2.009820e-10 -5.469951e-11 2.656179e-11 2.497233e-10 2.977004e-11 -1.128571e-11 -2.632026e-11 -3.094978e-11 -3.026454e-11 -2.677138e-11 -2.184476e-11 -1.664382e-11 -1.190662e-11 -8.017257e-12 -5.126668e-12 -3.193729e-12 -2.044888e-12 -1.421338e-12 -1.200285e-12 -1.157372e-12 -1.115417e-12 -9.462328e-13 -4.897958e-13 4.011352e-13 2.018811e-12 4.436410e-12 8.048234e-12 1.319783e-11 2.023906e-11 2.944424e-11 4.096940e-11 5.395113e-11 6.487433e-11 4.877989e-11 -1.426324e-10 -3.372728e-10 1.441247e-11 4.691130e-11 -4.047876e-10 -3.348098e-10 -8.673977e-11 -1.883095e-11 -1.724205e-12 7.972751e-13 2.654429e-13 -5.318610e-13 -9.008272e-13 -9.068140e-13 -6.806319e-13 -3.729754e-13 2.746334e-14 
-5.543374e-03 -6.725076e-02 -1.317369e-01 -2.000633e-01 -2.715000e-01 -3.428663e-01 -4.075684e-01 -4.580054e-01 -4.882300e-01 -5.084899e-01 -5.636265e-01 -7.934735e-01 -1.530717e+00 -3.388398e+00 2.939805e+00 -1.580488e+00 -5.679362e+00 2.565390e+00 2.588407e+00 2.455184e+00 2.034263e+00 1.536047e+00 1.099757e+00 7.593790e-01 5.080022e-01 3.276221e-01 2.018433e-01 1.157825e-01 5.972758e-02 2.531072e-02 6.666497e-03 -1.649393e-03 -4.550990e-03 -6.747011e-03 -1.315650e-02 -2.847509e-02 -5.803961e-02 -1.077908e-01 -1.852702e-01 -3.011290e-01 -4.683305e-01 -7.055089e-01 -1.028993e+00 -1.456022e+00 -1.992573e+00 -2.619588e+00 -3.361979e+00 -3.788863e+00 4.117936e+00 3.839166e+00 -1.713510e+00 1.539890e+00 1.831715e+00 9.497043e-01 5.575054e-01 4.268545e-01 3.933711e-01 3.765787e-01 3.460239e-01 2.993626e-01 2.414927e-01 1.793246e-01 1.166463e-01 5.525168e-02 