# vtk DataFile Version 2.0
Comment goes here
ASCII

DATASET STRUCTURED_POINTS
FIELD FieldData 1
TIME 1 1 double
0.09000000
DIMENSIONS    64   64   1

ORIGIN    0.000   0.000   0.000
SPACING   0.015625 0.015625   1.000

POINT_DATA   4096
SCALARS Omega double
LOOKUP_TABLE default

-1.004838e-13 -7.804180e-14 -4.516200e-14 -2.381965e-14 6.566094e-14 1.526358e-13 1.235530e-13 1.021787e-13 1.318317e-13 3.748765e-14 3.120604e-14 2.458588e-13 -9.817965e-14 -3.741221e-14 -5.356316e-14 -1.047894e-13 -1.307767e-13 -2.418464e-13 -6.491966e-14 -5.480211e-14 -6.982510e-14 1.236191e-13 1.827516e-13 2.635910e-14 3.467340e-14 -5.877554e-14 2.335532e-14 1.306829e-13 1.121817e-13 4.351088e-14 4.437021e-14 9.962151e-14 1.081927e-13 9.245697e-14 1.047997e-13 6.890662e-14 -4.896516e-14 -5.456640e-14 -9.080932e-15 2.285234e-13 2.246462e-13 9.396223e-14 1.281524e-13 1.370453e-13 5.447592e-15 2.837277e-14 -1.975844e-13 -2.048392e-13 -4.012982e-14 3.064749e-14 -2.612380e-14 -6.386528e-14 -2.062911e-13 -2.880902e-13 -5.386728e-14 -4.030985e-14 6.129947e-15 2.637866e-14 5.726268e-14 4.293604e-15 3.191102e-14 -1.566873e-15 -3.465455e-14 -9.385510e-14 
6.658289e-08 -1.886707e-06 -3.647169e-06 -5.545596e-06 -7.257343e-06 -8.861616e-06 -1.047154e-05 -1.134759e-05 -1.263901e-05 -1.221133e-05 -1.266725e-05 -1.041148e-05 -9.029405e-06 -4.544685e-06 1.182287e-06 1.092094e-05 3.360059e-05 7.787094e-05 1.971533e-04 4.655431e-04 1.107857e-03 2.489692e-03 5.316700e-03 1.051281e-02 1.901052e-02 3.089764e-02 4.452145e-02 5.618034e-02 6.135204e-02 5.707555e-02 4.347360e-02 2.330382e-02 7.200740e-06 -2.328591e-02 -4.345394e-02 -5.705856e-02 -6.134028e-02 -5.618238e-02 -4.452425e-02 -3.090475e-02 -1.901073e-02 -1.051399e-02 -5.315611e-03 -2.489626e-03 -1.107178e-03 -4.659047e-04 -1.967194e-04 -7.837398e-05 -3.354147e-05 -1.116033e-05 -1.375328e-06 4.568239e-06 8.827372e-06 1.054549e-05 1.258311e-05 1.234304e-05 1.267283e-05 1.143186e-05 1.057474e-05 8.894845e-06 7.386741e-06 5.541521e-06 3.780900e-06 1.863768e-06 
2.387548e-08 -3.715578e-06 -6.689954e-06 -1.077391e-05 -1.333506e-05 -1.733390e-05 -1.952056e-05 -2.260977e-05 -2.429164e-05 -2.531836e-05 -2.596532e-05 -2.368461e-05 -2.164452e-05 -1.386157e-05 -1.261962e-06 2.790084e-05 1.011946e-04 2.700964e-04 6.991216e-04 1.666306e-03 3.836927e-03 8.294521e-03 1.689164e-02 3.189178e-02 5.519535e-02 8.628300e-02 1.201596e-01 1.471792e-01 1.565201e-01 1.421687e-01 1.060735e-01 5.602167e-02 2.031649e-05 -5.597514e-02 -1.060270e-01 -1.421318e-01 -1.564963e-01 -1.471855e-01 -1.201655e-01 -8.629625e-02 -5.519249e-02 -3.189169e-02 -1.688798e-02 -8.293508e-03 -3.835047e-03 -1.666709e-03 -6.975862e-04 -2.705168e-04 -1.003569e-04 -2.768819e-05 1.369979e-06 1.431989e-05 2.137696e-05 2.398148e-05 2.563359e-05 2.535175e-05 2.404415e-05 2.245552e-05 1.939086e-05 1.709417e-05 1.330296e-05 1.051304e-05 6.717844e-06 3.455891e-06 
1.963937e-07 -5.674001e-06 -1.093632e-05 -1.683283e-05 -2.210809e-05 -2.747170e-05 -3.283508e-05 -3.648184e-05 -4.157702e-05 -4.176293e-05 -4.516807e-05 -3.948702e-05 -3.605727e-05 -1.585727e-05 2.264518e-05 1.214309e-04 3.718058e-04 9.582162e-04 2.362302e-03 5.406551e-03 1.181246e-02 2.419708e-02 4.656863e-02 8.317346e-02 1.366549e-01 2.038433e-01 2.724425e-01 3.217503e-01 3.309964e-01 2.913781e-01 2.112813e-01 1.091911e-01 6.120330e-05 -1.090672e-01 -2.111794e-01 -2.913116e-01 -3.309638e-01 -3.217698e-01 -2.724563e-01 -2.038618e-01 -1.366440e-01 -8.316605e-02 -4.655923e-02 -2.419243e-02 -1.180840e-02 -5.407342e-03 -2.360392e-03 -9.600442e-04 -3.718376e-04 -1.221504e-04 -2.354577e-05 1.603489e-05 3.531150e-05 3.995723e-05 4.492164e-05 4.217632e-05 4.173038e-05 3.672621e-05 3.318631e-05 2.755493e-05 2.251383e-05 1.680490e-05 1.133707e-05 5.591661e-06 
6.312533e-08 -7.410590e-06 -1.326743e-05 -2.180317e-05 -2.704379e-05 -3.609602e-05 -4.113058e-05 -4.930044e-05 -5.425183e-05 -5.911482e-05 -6.259110e-05 -5.858302e-05 -4.854546e-05 -3.348786e-06 1.117176e-04 4.271104e-04 1.223870e-03 3.108749e-03 7.380729e-03 1.630946e-02 3.396057e-02 6.615288e-02 1.205017e-01 2.037509e-01 3.175710e-01 4.515449e-01 5.784350e-01 6.578412e-01 6.533709e-01 5.554910e-01 3.892088e-01 1.955654e-01 1.386993e-04 -1.953023e-01 -3.890209e-01 -5.553916e-01 -6.533371e-01 -6.578788e-01 -5.784437e-01 -4.515454e-01 -3.175242e-01 -2.037172e-01 -1.204758e-01 -6.613884e-02 -3.395082e-02 -1.630927e-02 -7.375460e-03 -3.109375e-03 -1.221962e-03 -4.259092e-04 -1.117699e-04 4.773835e-06 4.780760e-05 5.928118e-05 6.185576e-05 5.909769e-05 5.376276e-05 4.889021e-05 4.090667e-05 3.555929e-05 2.701841e-05 2.126908e-05 1.335686e-05 6.903228e-06 
3.113016e-07 -9.337458e-06 -1.785122e-05 -2.815284e-05 -3.710632e-05 -4.762755e-05 -5.781745e-05 -6.689510e-05 -7.842319e-05 -8.227604e-05 -9.057979e-05 -7.392600e-05 -3.806467e-05 1.102976e-04 4.937355e-04 1.521028e-03 4.027685e-03 9.759774e-03 2.211095e-02 4.668566e-02 9.251183e-02 1.710783e-01 2.951550e-01 4.725217e-01 6.989855e-01 9.477989e-01 1.164693e+00 1.276616e+00 1.224174e+00 1.002731e+00 6.746038e-01 3.266899e-01 2.857553e-04 -3.261749e-01 -6.742896e-01 -1.002611e+00 -1.224167e+00 -1.276678e+00 -1.164665e+00 -9.477304e-01 -6.988567e-01 -4.724222e-01 -2.950887e-01 -1.710391e-01 -9.248876e-02 -4.668596e-02 -2.210432e-02 -9.763881e-03 -4.029173e-03 -1.521902e-03 -4.966079e-04 -1.095569e-04 3.642166e-05 7.490906e-05 9.029771e-05 8.298663e-05 7.890768e-05 6.724685e-05 5.855496e-05 4.769502e-05 3.783639e-05 2.804442e-05 1.850843e-05 9.148823e-06 
1.389360e-07 -1.077673e-05 -1.903718e-05 -3.240613e-05 -4.008498e-05 -5.582259e-05 -6.409988e-05 -8.046529e-05 -8.942694e-05 -9.947502e-05 -9.626029e-05 -5.362017e-05 9.053047e-05 5.464228e-04 1.769664e-03 4.904523e-03 1.230378e-02 2.860225e-02 6.202481e-02 1.253979e-01 2.369124e-01 4.168852e-01 6.824160e-01 1.036373e+00 1.456869e+00 1.885394e+00 2.223470e+00 2.349591e+00 2.173662e+00 1.709006e+00 1.093769e+00 5.034198e-01 3.427664e-04 -5.027946e-01 -1.093420e+00 -1.708902e+00 -2.173661e+00 -2.349579e+00 -2.223240e+00 -1.885090e+00 -1.456540e+00 -1.036139e+00 -6.822634e-01 -4.167973e-01 -2.368627e-01 -1.253989e-01 -6.200889e-02 -2.860216e-02 -1.230181e-02 -4.899794e-03 -1.770920e-03 -5.429991e-04 -9.212052e-05 5.466587e-05 9.506697e-05 9.906464e-05 8.877284e-05 7.953472e-05 6.389316e-05 5.487159e-05 4.016796e-05 3.158922e-05 1.927010e-05 1.006333e-05 
3.867125e-07 -1.235665e-05 -2.320604e-05 -3.805215e-05 -5.003730e-05 -6.733077e-05 -8.241330e-05 -9.961235e-05 -1.161982e-04 -1.159575e-04 -9.054564e-05 7.092527e-05 5.433912e-04 1.963628e-03 5.639620e-03 1.471453e-02 3.527872e-02 7.867260e-02 1.634422e-01 3.161421e-01 5.699708e-01 9.545128e-01 1.484081e+00 2.139560e+00 2.860390e+00 3.535320e+00 4.003439e+00 4.079560e+00 3.638860e+00 2.737737e+00 1.652695e+00 7.121979e-01 4.789236e-04 -7.113154e-01 -1.652220e+00 -2.737543e+00 -3.638688e+00 -4.079147e+00 -4.002616e+00 -3.534505e+00 -2.859768e+00 -2.139120e+00 -1.483771e+00 -9.543223e-01 -5.698744e-01 -3.161664e-01 -1.634292e-01 -7.868418e-02 -3.529004e-02 -1.471491e-02 -5.647733e-03 -1.961852e-03 -5.460674e-04 -6.936520e-05 9.085698e-05 1.168419e-04 1.175313e-04 9.989421e-05 8.378882e-05 6.722106e-05 5.114646e-05 3.773938e-05 2.407131e-05 1.196427e-05 
2.818946e-07 -1.312597e-05 -2.259236e-05 -4.067358e-05 -4.956813e-05 -7.343006e-05 -8.312571e-05 -1.085182e-04 -1.090624e-04 -8.884108e-05 5.728148e-05 5.510900e-04 2.036392e-03 6.130410e-03 1.650807e-02 4.099103e-02 9.431554e-02 2.018273e-01 4.017956e-01 7.438182e-01 1.279731e+00 2.040688e+00 3.014955e+00 4.131222e+00 5.258223e+00 6.207269e+00 6.742129e+00 6.613086e+00 5.675680e+00 4.078566e+00 2.316053e+00 9.282267e-01 9.626831e-04 -9.264409e-01 -2.315022e+00 -4.077940e+00 -5.674734e+00 -6.611283e+00 -6.739748e+00 -6.205382e+00 -5.257258e+00 -4.130647e+00 -3.014436e+00 -2.040328e+00 -1.279573e+00 -7.439069e-01 -4.017794e-01 -2.018326e-01 -9.432692e-02 -4.098026e-02 -1.651398e-02 -6.125089e-03 -2.039214e-03 -5.508469e-04 -5.878276e-05 8.708413e-05 1.085061e-04 1.065780e-04 8.319704e-05 7.191638e-05 4.996711e-05 3.960502e-05 2.312375e-05 1.230816e-05 
3.837306e-07 -1.386055e-05 -2.514972e-05 -4.388827e-05 -5.675428e-05 -8.168089e-05 -9.715568e-05 -1.170100e-04 -1.018108e-04 1.850240e-05 4.678376e-04 1.941441e-03 6.117201e-03 1.726512e-02 4.444203e-02 1.060600e-01 2.344169e-01 4.814156e-01 9.183189e-01 1.626099e+00 2.668373e+00 4.046977e+00 5.678977e+00 7.389432e+00 8.943669e+00 1.006436e+01 1.044581e+01 9.806645e+00 8.054110e+00 5.522146e+00 2.973822e+00 1.126377e+00 1.367196e-03 -1.123417e+00 -2.971469e+00 -5.520221e+00 -8.051089e+00 -9.801489e+00 -1.044009e+01 -1.006099e+01 -8.943277e+00 -7.389410e+00 -5.678399e+00 -4.046339e+00 -2.668131e+00 -1.626380e+00 -9.183693e-01 -4.814617e-01 -2.344760e-01 -1.060679e-01 -4.446237e-02 -1.726470e-02 -6.119531e-03 -1.940012e-03 -4.651693e-04 -1.791028e-05 1.049222e-04 1.168105e-04 9.947601e-05 8.107402e-05 5.823837e-05 4.314704e-05 2.609645e-05 1.309695e-05 
5.275606e-07 -1.352292e-05 -2.226156e-05 -4.388026e-05 -5.133599e-05 -8.284539e-05 -8.334096e-05 -9.507751e-05 1.739365e-05 3.943983e-04 1.736094e-03 5.721606e-03 1.678177e-02 4.495367e-02 1.112696e-01 2.548509e-01 5.406610e-01 1.064089e+00 1.943483e+00 3.287066e+00 5.131926e+00 7.383164e+00 9.809395e+00 1.208645e+01 1.384491e+01 1.471959e+01 1.440590e+01 1.274508e+01 9.890860e+00 6.458647e+00 3.359640e+00 1.251764e+00 -1.732906e-03 -1.254382e+00 -3.360771e+00 -6.457200e+00 -9.884558e+00 -1.273331e+01 -1.439416e+01 -1.471504e+01 -1.384746e+01 -1.208894e+01 -9.809468e+00 -7.382209e+00 -5.131529e+00 -3.287582e+00 -1.943602e+00 -1.064105e+00 -5.407309e-01 -2.548514e-01 -1.112887e-01 -4.495521e-02 -1.678637e-02 -5.726237e-03 -1.737503e-03 -3.993061e-04 -1.728946e-05 9.153448e-05 8.419371e-05 8.071333e-05 5.241183e-05 4.269411e-05 2.333784e-05 1.278540e-05 
2.662483e-07 -1.282083e-05 -2.183842e-05 -4.234473e-05 -5.164996e-05 -8.045817e-05 -7.150612e-05 -2.668919e-05 2.877542e-04 1.371634e-03 4.854550e-03 1.498528e-02 4.196150e-02 1.082856e-01 2.577042e-01 5.666572e-01 1.151807e+00 2.171760e+00 3.793493e+00 6.111322e+00 9.035071e+00 1.225414e+01 1.530051e+01 1.763932e+01 1.880827e+01 1.847519e+01 1.658738e+01 1.345888e+01 9.699551e+00 6.043928e+00 3.125992e+00 1.204289e+00 -1.358280e-02 -1.222731e+00 -3.126969e+00 -6.027960e+00 -9.669733e+00 -1.342205e+01 -1.656151e+01 -1.847486e+01 -1.882231e+01 -1.764911e+01 -1.530333e+01 -1.225351e+01 -9.034232e+00 -6.111865e+00 -3.793739e+00 -2.171765e+00 -1.151939e+00 -5.667111e-01 -2.577441e-01 -1.082979e-01 -4.195905e-02 -1.498575e-02 -4.846434e-03 -1.372170e-03 -2.818175e-04 2.527248e-05 7.487959e-05 7.882453e-05 5.333118e-05 4.083878e-05 2.263843e-05 1.145153e-05 
8.923020e-07 -1.095251e-05 -1.675930e-05 -3.851991e-05 -3.903085e-05 -6.638057e-05 -2.283284e-06 1.744984e-04 1.045632e-03 3.794638e-03 1.236071e-02 3.620993e-02 9.758748e-02 2.419418e-01 5.527051e-01 1.163067e+00 2.263652e+00 4.087885e+00 6.817359e+00 1.039889e+01 1.442403e+01 1.820089e+01 2.096521e+01 2.203838e+01 2.101053e+01 1.806591e+01 1.409221e+01 1.009159e+01 6.741177e+00 4.214090e+00 2.387930e+00 1.057117e+00 -9.376130e-03 -1.057708e+00 -2.345899e+00 -4.148642e+00 -6.688071e+00 -1.006479e+01 -1.410738e+01 -1.810832e+01 -2.104253e+01 -2.205621e+01 -2.097283e+01 -1.820317e+01 -1.442263e+01 -1.039835e+01 -6.817331e+00 -4.087559e+00 -2.263574e+00 -1.163114e+00 -5.527490e-01 -2.419755e-01 -9.759841e-02 -3.622686e-02 -1.236206e-02 -3.804536e-03 -1.043881e-03 -1.797532e-04 4.770167e-06 6.391096e-05 4.130635e-05 3.749755e-05 1.868698e-05 1.052934e-05 
4.933840e-08 -8.168109e-06 -1.211062e-05 -2.863930e-05 -2.381358e-05 -2.623908e-05 1.331499e-04 6.575873e-04 2.730961e-03 9.241261e-03 2.862927e-02 8.093752e-02 2.099063e-01 4.999573e-01 1.092848e+00 2.199715e+00 4.104863e+00 7.114000e+00 1.127815e+01 1.611757e+01 2.060614e+01 2.358199e+01 2.404350e+01 2.155632e+01 1.688903e+01 1.162504e+01 7.455002e+00 5.036900e+00 3.998214e+00 3.473251e+00 2.768233e+00 1.476451e+00 1.461025e-02 -1.465203e+00 -2.738113e+00 -3.497879e+00 -4.077005e+00 -5.070985e+00 -7.451891e+00 -1.157382e+01 -1.687017e+01 -2.157509e+01 -2.404955e+01 -2.359455e+01 -2.060580e+01 -1.611527e+01 -1.127767e+01 -7.113237e+00 -4.104078e+00 -2.199749e+00 -1.092889e+00 -4.999880e-01 -2.098943e-01 -8.093993e-02 -2.861340e-02 -9.244010e-03 -2.722240e-03 -6.614066e-04 -1.292854e-04 2.285083e-05 2.525651e-05 2.599291e-05 1.250068e-05 5.968198e-06 
1.318516e-06 -4.338680e-06 -5.402025e-06 -1.757093e-05 6.312147e-06 5.292159e-05 4.490233e-04 1.724436e-03 6.424494e-03 2.068750e-02 6.176491e-02 1.680625e-01 4.187295e-01 9.543036e-01 1.992880e+00 3.844780e+00 6.928572e+00 1.154714e+01 1.725745e+01 2.266275e+01 2.590898e+01 2.551988e+01 2.118353e+01 1.439010e+01 8.830654e+00 7.227161e+00 8.267169e+00 9.301176e+00 9.390131e+00 8.288328e+00 6.272290e+00 3.043299e+00 -1.627550e-02 -3.136611e+00 -6.386875e+00 -8.474256e+00 -9.497822e+00 -9.016330e+00 -7.801157e+00 -7.192644e+00 -9.148018e+00 -1.443253e+01 -2.113431e+01 -2.554757e+01 -2.592005e+01 -2.266574e+01 -1.725956e+01 -1.154578e+01 -6.925270e+00 -3.844613e+00 -1.992941e+00 -9.543857e-01 -4.187673e-01 -1.680972e-01 -6.176764e-02 -2.070159e-02 -6.419198e-03 -1.730064e-03 -4.436391e-04 -5.495905e-05 -2.306611e-06 1.703452e-05 8.383709e-06 4.350136e-06 
-1.287985e-07 1.147884e-06 4.355321e-06 8.288650e-06 6.268578e-05 2.348158e-04 1.090630e-03 3.944613e-03 1.377668e-02 4.295053e-02 1.236335e-01 3.236132e-01 7.722001e-01 1.681446e+00 3.363592e+00 6.293435e+00 1.110760e+01 1.780522e+01 2.469666e+01 2.904047e+01 2.839648e+01 2.233023e+01 1.610998e+01 1.748670e+01 2.247282e+01 2.474414e+01 2.273096e+01 1.714424e+01 1.141987e+01 6.842504e+00 3.835235e+00 1.245722e+00 -2.216775e-01 -1.528851e+00 -3.790395e+00 -6.701866e+00 -1.120899e+01 -1.669975e+01 -2.222143e+01 -2.543509e+01 -2.288749e+01 -1.704349e+01 -1.619271e+01 -2.231085e+01 -2.844673e+01 -2.907101e+01 -2.471794e+01 -1.780193e+01 -1.109789e+01 -6.292770e+00 -3.363458e+00 -1.681435e+00 -7.721822e-01 -3.236146e-01 -1.236146e-01 -4.295864e-02 -1.376832e-02 -3.952856e-03 -1.087765e-03 -2.406429e-04 -6.197472e-05 -1.221155e-05 -4.420282e-06 -4.181360e-06 
1.611585e-06 7.280861e-06 1.246671e-05 3.767903e-05 1.510863e-04 5.614967e-04 2.322868e-03 8.168840e-03 2.750041e-02 8.301820e-02 2.303402e-01 5.780016e-01 1.318816e+00 2.750426e+00 5.345729e+00 9.958835e+00 1.750305e+01 2.674680e+01 3.378150e+01 3.468249e+01 3.141239e+01 3.422126e+01 4.226610e+01 4.348854e+01 3.313067e+01 1.950595e+01 9.133572e+00 2.540354e+00 -4.012373e-01 -1.516975e+00 -1.477797e+00 -9.489549e-01 -1.807636e-01 8.623354e-01 1.814346e+00 1.842455e+00 5.603805e-01 -2.837087e+00 -9.226065e+00 -2.002475e+01 -3.301613e+01 -4.323561e+01 -4.257450e+01 -3.400546e+01 -3.156798e+01 -3.474717e+01 -3.386754e+01 -2.672858e+01 -1.747934e+01 -9.957919e+00 -5.345431e+00 -2.750514e+00 -1.318917e+00 -5.780486e-01 -2.303420e-01 -8.303030e-02 -2.748739e-02 -8.172225e-03 -2.313411e-03 -5.624448e-04 -1.454147e-04 -3.780796e-05 -8.703923e-06 -7.137609e-06 
1.671176e-08 1.539484e-05 2.747114e-05 9.589053e-05 3.189774e-04 1.191543e-03 4.572685e-03 1.576919e-02 5.120852e-02 1.496508e-01 3.989415e-01 9.583533e-01 2.096876e+00 4.249334e+00 8.312882e+00 1.599829e+01 2.802700e+01 3.998220e+01 4.590814e+01 5.117626e+01 6.072933e+01 6.100805e+01 4.498413e+01 2.365097e+01 9.400826e+00 2.855430e+00 4.596135e-01 1.742362e+00 3.619257e+00 4.230653e+00 3.460456e+00 2.141964e+00 3.160423e-02 -1.962033e+00 -3.203058e+00 -4.227640e+00 -3.814231e+00 -2.276707e+00 -7.150564e-01 -2.210083e+00 -9.383885e+00 -2.443464e+01 -4.475519e+01 -6.082421e+01 -6.093625e+01 -5.120993e+01 -4.603119e+01 -3.987930e+01 -2.797622e+01 -1.599706e+01 -8.310546e+00 -4.249078e+00 -2.096885e+00 -9.583762e-01 -3.989394e-01 -1.496767e-01 -5.120659e-02 -1.578451e-02 -4.571946e-03 -1.199376e-03 -3.187317e-04 -1.003703e-04 -2.739977e-05 -1.872546e-05 
1.481464e-06 2.338815e-05 3.867065e-05 1.694774e-04 5.742687e-04 2.229236e-03 8.341368e-03 2.828511e-02 8.907825e-02 2.514428e-01 6.434606e-01 1.484079e+00 3.157012e+00 6.457893e+00 1.341993e+01 2.712027e+01 4.580815e+01 6.053385e+01 7.347693e+01 7.978801e+01 6.316249e+01 3.448612e+01 1.427209e+01 7.768064e+00 1.290434e+01 1.835717e+01 1.908456e+01 1.835994e+01 1.586511e+01 1.241545e+01 8.372728e+00 4.324297e+00 1.291991e-02 -4.249461e+00 -8.294535e+00 -1.248139e+01 -1.600934e+01 -1.846794e+01 -1.923606e+01 -1.756155e+01 -1.334378e+01 -8.372948e+00 -1.345063e+01 -3.478729e+01 -6.324793e+01 -7.947002e+01 -7.339543e+01 -6.042903e+01 -4.571659e+01 -2.711732e+01 -1.341212e+01 -6.457624e+00 -3.157254e+00 -1.484156e+00 -6.434472e-01 -2.514532e-01 -8.905348e-02 -2.828786e-02 -8.329856e-03 -2.230651e-03 -5.689269e-04 -1.703589e-04 -3.529242e-05 -2.407535e-05 
7.433256e-07 3.146273e-05 5.789753e-05 2.860652e-04 9.946645e-04 3.923837e-03 1.430240e-02 4.758598e-02 1.449394e-01 3.947641e-01 9.712741e-01 2.178642e+00 4.665887e+00 1.025337e+01 2.344303e+01 4.774629e+01 7.404716e+01 9.087390e+01 8.867124e+01 5.946699e+01 2.524061e+01 1.540314e+01 2.224719e+01 2.749603e+01 2.695295e+01 2.352963e+01 1.941343e+01 1.609135e+01 1.284891e+01 9.665062e+00 6.416066e+00 3.216007e+00 -1.277058e-02 -3.221221e+00 -6.406118e+00 -9.650163e+00 -1.284608e+01 -1.610511e+01 -1.952074e+01 -2.320778e+01 -2.723928e+01 -2.746406e+01 -2.187117e+01 -1.575636e+01 -2.511489e+01 -5.925742e+01 -8.876640e+01 -9.092303e+01 -7.390600e+01 -4.771478e+01 -2.341738e+01 -1.025306e+01 -4.666320e+00 -2.178933e+00 -9.713514e-01 -3.948468e-01 -1.449472e-01 -4.760635e-02 -1.430079e-02 -3.929341e-03 -9.927539e-04 -2.888662e-04 -5.631883e-05 -3.395312e-05 
8.699429e-07 3.858868e-05 7.811417e-05 4.421067e-04 1.601000e-03 6.413813e-03 2.296082e-02 7.480817e-02 2.207919e-01 5.805088e-01 1.388889e+00 3.121187e+00 7.141391e+00 1.773274e+01 4.316892e+01 8.064755e+01 1.025298e+02 9.277149e+01 5.539669e+01 2.264057e+01 2.210620e+01 2.931372e+01 2.617697e+01 2.030769e+01 1.578782e+01 1.275060e+01 1.038584e+01 8.493829e+00 6.768596e+00 5.101368e+00 3.405696e+00 1.703392e+00 -7.916233e-03 -1.713382e+00 -3.409081e+00 -5.091947e+00 -6.756708e+00 -8.489945e+00 -1.040109e+01 -1.268610e+01 -1.582246e+01 -2.023669e+01 -2.623935e+01 -2.934263e+01 -2.203001e+01 -2.271024e+01 -5.535921e+01 -9.286613e+01 -1.025707e+02 -8.055937e+01 -4.314372e+01 -1.774312e+01 -7.143173e+00 -3.121753e+00 -1.388903e+00 -5.805917e-01 -2.207844e-01 -7.483006e-02 -2.296103e-02 -6.421591e-03 -1.600893e-03 -4.458795e-04 -7.680412e-05 -4.134309e-05 
1.873330e-06 3.885419e-05 1.012013e-04 6.341931e-04 2.438232e-03 9.842979e-03 3.460075e-02 1.103913e-01 3.156329e-01 8.074749e-01 1.922451e+00 4.550119e+00 1.176586e+01 3.247084e+01 7.523287e+01 1.078742e+02 9.757395e+01 5.588560e+01 2.269137e+01 2.066786e+01 2.571090e+01 1.840725e+01 1.014496e+01 6.066102e+00 4.596302e+00 3.994359e+00 3.561824e+00 3.123797e+00 2.617524e+00 2.041524e+00 1.395320e+00 7.058728e-01 -3.146129e-03 -7.107502e-01 -1.398135e+00 -2.038688e+00 -2.612486e+00 -3.119314e+00 -3.558776e+00 -3.982447e+00 -4.599555e+00 -6.048880e+00 -1.017543e+01 -1.840346e+01 -2.579062e+01 -2.058597e+01 -2.251024e+01 -5.618024e+01 -9.751763e+01 -1.075118e+02 -7.526341e+01 -3.254674e+01 -1.177478e+01 -4.552038e+00 -1.922833e+00 -8.076248e-01 -3.156334e-01 -1.103858e-01 -3.458736e-02 -9.835574e-03 -2.431451e-03 -6.326849e-04 -9.697090e-05 -3.971084e-05 
4.207247e-07 3.888412e-05 1.430535e-04 8.891036e-04 3.537987e-03 1.422933e-02 4.898900e-02 1.530316e-01 4.259847e-01 1.076836e+00 2.656791e+00 6.952167e+00 2.038986e+01 5.728422e+01 1.023108e+02 1.026334e+02 6.321248e+01 2.535888e+01 1.446601e+01 1.873593e+01 1.192322e+01 1.756318e+00 -2.712231e+00 -2.559718e+00 -1.310635e+00 -3.182113e-01 2.856187e-01 5.754293e-01 6.485920e-01 5.832761e-01 4.294907e-01 2.251108e-01 -1.143541e-03 -2.270329e-01 -4.308041e-01 -5.826756e-01 -6.472147e-01 -5.734388e-01 -2.826165e-01 3.212332e-01 1.311895e+00 2.564651e+00 2.705196e+00 -1.754280e+00 -1.193268e+01 -1.866942e+01 -1.454734e+01 -2.530676e+01 -6.281501e+01 -1.029729e+02 -1.030346e+02 -5.749887e+01 -2.040150e+01 -6.954344e+00 -2.657557e+00 -1.077219e+00 -4.261416e-01 -1.531087e-01 -4.902516e-02 -1.424780e-02 -3.545502e-03 -8.961666e-04 -1.435532e-04 -4.393852e-05 
2.721638e-06 1.890013e-05 1.791450e-04 1.111693e-03 4.809035e-03 1.917920e-02 6.515942e-02 2.000490e-01 5.468879e-01 1.408330e+00 3.736578e+00 1.104912e+01 3.459708e+01 8.435528e+01 1.035322e+02 7.376816e+01 3.242251e+01 9.761282e+00 1.165584e+01 9.313270e+00 -2.589905e+00 -9.408076e+00 -8.964776e+00 -5.884112e+00 -3.336841e+00 -1.733507e+00 -7.962371e-01 -2.889164e-01 -4.029325e-02 5.962273e-02 7.544053e-02 4.696100e-02 -3.895687e-04 -4.761377e-02 -7.596139e-02 -5.958796e-02 4.050838e-02 2.894102e-01 7.973868e-01 1.734497e+00 3.337907e+00 5.885407e+00 8.962776e+00 9.409259e+00 2.587143e+00 -9.328321e+00 -1.164065e+01 -9.522719e+00 -3.244500e+01 -7.430978e+01 -1.036226e+02 -8.411413e+01 -3.453791e+01 -1.104380e+01 -3.735686e+00 -1.407956e+00 -5.467386e-01 -1.999542e-01 -6.512773e-02 -1.915966e-02 -4.799879e-03 -1.109060e-03 -1.733853e-04 -1.948578e-05 
8.872682e-07 4.574296e-06 2.576036e-04 1.392750e-03 6.284845e-03 2.450561e-02 8.183842e-02 2.483119e-01 6.750421e-01 1.832100e+00 5.321338e+00 1.725289e+01 5.338113e+01 9.599474e+01 8.500958e+01 4.367234e+01 1.167928e+01 3.749158e+00 9.249451e+00 -1.222160e+00 -1.241667e+01 -1.453955e+01 -1.070420e+01 -6.395434e+00 -3.542465e+00 -1.870492e+00 -9.356902e-01 -4.389190e-01 -1.877851e-01 -6.875537e-02 -1.865182e-02 -2.460637e-03 -1.340800e-04 2.266421e-03 1.846781e-02 6.875562e-02 1.878161e-01 4.390771e-01 9.360726e-01 1.870859e+00 3.543038e+00 6.395481e+00 1.070362e+01 1.454080e+01 1.241640e+01 1.202277e+00 -9.277587e+00 -3.836042e+00 -1.197287e+01 -4.358756e+01 -8.412376e+01 -9.540193e+01 -5.331435e+01 -1.724696e+01 -5.321289e+00 -1.832362e+00 -6.751820e-01 -2.483660e-01 -8.185624e-02 -2.451384e-02 -6.283299e-03 -1.398288e-03 -2.554159e-04 -1.075889e-05 
3.396522e-06 -3.896257e-05 3.268536e-04 1.501981e-03 7.710420e-03 2.881004e-02 9.734770e-02 2.902819e-01 8.118826e-01 2.343636e+00 7.452885e+00 2.483317e+01 6.863256e+01 8.703243e+01 6.113083e+01 2.158250e+01 -7.060011e-01 5.904177e+00 4.985494e+00 -9.305351e+00 -1.737108e+01 -1.568976e+01 -1.027431e+01 -5.837040e+00 -3.142955e+00 -1.623025e+00 -8.043623e-01 -3.835608e-01 -1.754000e-01 -7.618166e-02 -3.076383e-02 -1.044394e-02 -4.514603e-05 1.039756e-02 3.069155e-02 7.616139e-02 1.753774e-01 3.835587e-01 8.044403e-01 1.623125e+00 3.143146e+00 5.836907e+00 1.027418e+01 1.569063e+01 1.737249e+01 9.294075e+00 -4.987866e+00 -5.898639e+00 5.212022e-01 -2.152099e+01 -6.077132e+01 -8.726820e+01 -6.901057e+01 -2.490949e+01 -7.461593e+00 -2.344743e+00 -8.121681e-01 -2.904018e-01 -9.739505e-02 -2.884058e-02 -7.713637e-03 -1.510143e-03 -3.213704e-04 3.654057e-05 
7.728185e-07 -6.419397e-05 4.138364e-04 1.634869e-03 8.988914e-03 3.208918e-02 1.097756e-01 3.233069e-01 9.482861e-01 2.907043e+00 9.840112e+00 3.245496e+01 7.233462e+01 7.019655e+01 3.869142e+01 7.496393e+00 -3.366357e+00 8.698399e+00 2.553492e-01 -1.412809e+01 -1.871038e+01 -1.472954e+01 -9.045336e+00 -5.004311e+00 -2.634577e+00 -1.324984e+00 -6.392515e-01 -2.974660e-01 -1.339054e-01 -5.822752e-02 -2.411786e-02 -8.535644e-03 -1.679439e-05 8.537906e-03 2.409376e-02 5.823311e-02 1.339020e-01 2.974625e-01 6.392620e-01 1.324961e+00 2.634572e+00 5.004064e+00 9.045192e+00 1.472970e+01 1.871077e+01 1.412398e+01 -2.529956e-01 -8.757342e+00 3.315088e+00 -7.290594e+00 -3.888738e+01 -7.072335e+01 -7.243773e+01 -3.242366e+01 -9.837494e+00 -2.906711e+00 -9.480445e-01 -3.232015e-01 -1.096909e-01 -3.207488e-02 -8.966681e-03 -1.640358e-03 -4.087688e-04 5.570292e-05 
5.489152e-06 -8.493610e-05 4.491629e-04 1.646681e-03 9.532277e-03 3.335457e-02 1.149233e-01 3.412307e-01 1.048893e+00 3.400679e+00 1.177716e+01 3.761691e+01 6.451424e+01 5.330045e+01 2.161492e+01 -1.415573e+00 4.204063e-01 9.150883e+00 -3.494952e+00 -1.600111e+01 -1.768933e+01 -1.277462e+01 -7.573342e+00 -4.138533e+00 -2.144865e+00 -1.057152e+00 -4.981875e-01 -2.261618e-01 -9.930985e-02 -4.231700e-02 -1.727335e-02 -6.080825e-03 -8.913280e-06 6.085704e-03 1.725853e-02 4.231374e-02 9.930352e-02 2.261447e-01 4.981853e-01 1.057117e+00 2.144835e+00 4.138346e+00 7.573183e+00 1.277448e+01 1.768907e+01 1.600036e+01 3.493540e+00 -9.177828e+00 -3.093413e-01 1.597409e+00 -2.182336e+01 -5.334870e+01 -6.426843e+01 -3.753951e+01 -1.176792e+01 -3.401038e+00 -1.049125e+00 -3.414826e-01 -1.149445e-01 -3.340618e-02 -9.521622e-03 -1.656479e-03 -4.373435e-04 8.444355e-05 
-1.541147e-06 -8.998414e-05 4.107561e-04 1.613780e-03 9.167057e-03 3.239544e-02 1.107661e-01 3.374237e-01 1.073424e+00 3.632149e+00 1.251195e+01 3.784738e+01 5.151574e+01 3.805363e+01 1.089631e+01 -5.282509e+00 4.754576e+00 7.900738e+00 -5.678502e+00 -1.549486e+01 -1.521808e+01 -1.037754e+01 -6.039155e+00 -3.283575e+00 -1.684950e+00 -8.186676e-01 -3.790198e-01 -1.683867e-01 -7.215142e-02 -2.990022e-02 -1.187111e-02 -4.077241e-03 -4.686173e-06 4.086136e-03 1.186453e-02 2.990257e-02 7.214928e-02 1.683704e-01 3.790076e-01 8.186054e-01 1.684881e+00 3.283367e+00 6.038944e+00 1.037727e+01 1.521748e+01 1.549548e+01 5.676718e+00 -7.914481e+00 -4.744336e+00 5.342411e+00 -1.079163e+01 -3.792909e+01 -5.149792e+01 -3.786521e+01 -1.251127e+01 -3.632160e+00 -1.073280e+00 -3.374771e-01 -1.107253e-01 -3.242376e-02 -9.158876e-03 -1.632025e-03 -4.120141e-04 7.680078e-05 
6.822589e-06 -6.293422e-05 3.569468e-04 1.479819e-03 7.917627e-03 2.854030e-02 9.619084e-02 3.022780e-01 9.839305e-01 3.421170e+00 1.162048e+01 3.262980e+01 3.827298e+01 2.609556e+01 5.168327e+00 -5.320746e+00 6.608688e+00 5.900239e+00 -6.189683e+00 -1.316845e+01 -1.190463e+01 -7.807362e+00 -4.499651e+00 -2.442122e+00 -1.245454e+00 -5.997751e-01 -2.745441e-01 -1.204378e-01 -5.086148e-02 -2.079544e-02 -8.138686e-03 -2.773506e-03 -3.380560e-06 2.777648e-03 8.133836e-03 2.079480e-02 5.086119e-02 1.204274e-01 2.745426e-01 5.997408e-01 1.245419e+00 2.441995e+00 4.499500e+00 7.807104e+00 1.190425e+01 1.316866e+01 6.188651e+00 -5.902569e+00 -6.612337e+00 5.298672e+00 -5.142371e+00 -2.603998e+01 -3.828077e+01 -3.264707e+01 -1.162249e+01 -3.419973e+00 -9.833575e-01 -3.022107e-01 -9.610732e-02 -2.853823e-02 -7.882696e-03 -1.475603e-03 -3.388196e-04 6.766717e-05 
-2.800554e-06 -5.238787e-05 2.251182e-04 1.113852e-03 5.729495e-03 2.132448e-02 7.108719e-02 2.298689e-01 7.599746e-01 2.681497e+00 8.989203e+00 2.325322e+01 2.474994e+01 1.531655e+01 1.895202e+00 -3.372922e+00 5.864995e+00 3.764134e+00 -5.160965e+00 -9.518600e+00 -8.130221e+00 -5.196501e+00 -2.979721e+00 -1.615968e+00 -8.209799e-01 -3.929898e-01 -1.785195e-01 -7.753800e-02 -3.236925e-02 -1.303541e-02 -5.021697e-03 -1.681593e-03 -1.859431e-06 1.685440e-03 5.019086e-03 1.303540e-02 3.236815e-02 7.752785e-02 1.785129e-01 3.929555e-01 8.209424e-01 1.615869e+00 2.979593e+00 5.196300e+00 8.130043e+00 9.517923e+00 5.162883e+00 -3.764488e+00 -5.879132e+00 3.365433e+00 -1.893999e+00 -1.540769e+01 -2.487020e+01 -2.329034e+01 -8.993985e+00 -2.682385e+00 -7.601998e-01 -2.300053e-01 -7.113487e-02 -2.137841e-02 -5.745155e-03 -1.135996e-03 -2.322788e-04 4.033809e-05 
3.367499e-06 -1.860165e-05 1.261398e-04 6.281269e-04 3.052792e-03 1.150488e-02 3.798033e-02 1.249137e-01 4.166305e-01 1.479169e+00 4.913783e+00 1.197059e+01 1.190174e+01 6.319652e+00 5.661185e-02 -1.457462e+00 3.364621e+00 1.797333e+00 -2.921957e+00 -4.984791e+00 -4.117099e+00 -2.592637e+00 -1.482857e+00 -8.038847e-01 -4.075247e-01 -1.944709e-01 -8.798674e-02 -3.806434e-02 -1.581792e-02 -6.354759e-03 -2.440579e-03 -8.192720e-04 -9.292341e-07 8.206211e-04 2.439412e-03 6.354671e-03 1.581834e-02 3.806107e-02 8.798676e-02 1.944596e-01 4.075128e-01 8.038481e-01 1.482797e+00 2.592545e+00 4.117006e+00 4.984228e+00 2.922907e+00 -1.798630e+00 -3.359556e+00 1.442246e+00 -1.677802e-01 -6.393200e+00 -1.180762e+01 -1.186095e+01 -4.876486e+00 -1.472513e+00 -4.157458e-01 -1.247880e-01 -3.791764e-02 -1.148358e-02 -3.030113e-03 -6.212561e-04 -1.164025e-04 2.225229e-05 
-1.223264e-13 -1.150214e-13 -1.091960e-13 -8.259026e-14 -2.489746e-13 -1.708517e-13 -1.189492e-13 -1.625939e-13 -1.623609e-13 3.005710e-13 2.043618e-12 8.027719e-12 1.010078e-11 -8.409835e-13 -1.199624e-11 -1.020452e-11 -2.212481e-12 8.277283e-13 -7.488332e-14 -6.131875e-13 -5.813157e-13 -2.713666e-13 -3.425231e-13 -2.526921e-13 -1.086172e-13 3.085174e-14 4.636628e-14 -5.177405e-14 -8.560082e-14 4.648586e-14 -2.181605e-14 -1.809601e-14 -9.701103e-15 2.375501e-14 1.017334e-14 -3.733701e-14 2.221241e-13 2.063667e-13 2.978253e-13 5.670688e-14 -6.376418e-14 1.535384e-13 1.078312e-13 1.672232e-13 4.248458e-13 1.944598e-13 -5.557569e-14 -1.505088e-13 2.326590e-13 -4.980466e-12 -1.255350e-11 -8.688755e-12 1.321751e-11 1.984540e-11 6.467504e-12 1.489580e-12 5.901859e-13 2.471331e-13 1.897436e-13 5.278205e-14 1.251606e-13 4.977700e-14 -6.100182e-14 -9.931479e-14 
-3.367499e-06 1.860165e-05 -1.261398e-04 -6.281269e-04 -3.052792e-03 -1.150488e-02 -3.798033e-02 -1.249137e-01 -4.166305e-01 -1.479169e+00 -4.913783e+00 -1.197059e+01 -1.190174e+01 -6.319652e+00 -5.661185e-02 1.457462e+00 -3.364621e+00 -1.797333e+00 2.921957e+00 4.984791e+00 4.117099e+00 2.592637e+00 1.482857e+00 8.038847e-01 4.075247e-01 1.944709e-01 8.798674e-02 3.806434e-02 1.581792e-02 6.354759e-03 2.440579e-03 8.192720e-04 9.292341e-07 -8.206211e-04 -2.439412e-03 -6.354671e-03 -1.581834e-02 -3.806107e-02 -8.798676e-02 -1.944596e-01 -4.075128e-01 -8.038481e-01 -1.482797e+00 -2.592545e+00 -4.117006e+00 -4.984228e+00 -2.922907e+00 1.798630e+00 3.359556e+00 -1.442246e+00 1.677802e-01 6.393200e+00 1.180762e+01 1.186095e+01 4.876486e+00 1.472513e+00 4.157458e-01 1.247880e-01 3.791764e-02 1.148358e-02 3.030113e-03 6.212561e-04 1.164025e-04 -2.225229e-05 