# vtk DataFile Version 2.0
Comment goes here
ASCII

DATASET STRUCTURED_POINTS
FIELD FieldData 1
TIME 1 1 double
0.67000000
DIMENSIONS    64   64   1

ORIGIN    0.000   0.000   0.000
SPACING   0.015625 0.015625   1.000

POINT_DATA   4096
SCALARS P double
LOOKUP_TABLE default

-4.354262e+00 -4.348452e+00 -4.351924e+00 -4.343233e+00 -4.344598e+00 -4.332786e+00 -4.331713e+00 -4.316396e+00 -4.312357e+00 -4.293071e+00 -4.285374e+00 -4.261683e+00 -4.249525e+00 -4.221197e+00 -4.203772e+00 -4.171024e+00 -4.147699e+00 -4.111476e+00 -4.082027e+00 -4.044225e+00 -4.009087e+00 -3.972521e+00 -3.932963e+00 -3.900939e+00 -3.859077e+00 -3.834598e+00 -3.793287e+00 -3.778366e+00 -3.741054e+00 -3.736724e+00 -3.707274e+00 -3.713947e+00 -3.695882e+00 -3.713141e+00 -3.708413e+00 -3.734560e+00 -3.743026e+00 -3.775486e+00 -3.795576e+00 -3.831782e+00 -3.861172e+00 -3.898868e+00 -3.934542e+00 -3.971621e+00 -4.010065e+00 -4.044606e+00 -4.082478e+00 -4.112981e+00 -4.147763e+00 -4.173337e+00 -4.203590e+00 -4.223951e+00 -4.249211e+00 -4.264533e+00 -4.285012e+00 -4.295731e+00 -4.312007e+00 -4.318652e+00 -4.331416e+00 -4.334489e+00 -4.344385e+00 -4.344289e+00 -4.351813e+00 -4.348809e+00 
-4.355187e+00 -4.348730e+00 -4.353148e+00 -4.343790e+00 -4.346049e+00 -4.333546e+00 -4.333279e+00 -4.317248e+00 -4.313880e+00 -4.293860e+00 -4.286627e+00 -4.262198e+00 -4.250209e+00 -4.221170e+00 -4.203523e+00 -4.170146e+00 -4.146130e+00 -4.109449e+00 -4.078828e+00 -4.040854e+00 -4.004186e+00 -3.967877e+00 -3.926745e+00 -3.895568e+00 -3.852570e+00 -3.829670e+00 -3.788091e+00 -3.775442e+00 -3.738705e+00 -3.736761e+00 -3.707960e+00 -3.716134e+00 -3.697822e+00 -3.715062e+00 -3.708866e+00 -3.733787e+00 -3.740130e+00 -3.771190e+00 -3.789412e+00 -3.824934e+00 -3.853195e+00 -3.891085e+00 -3.926325e+00 -3.964146e+00 -4.002672e+00 -4.038082e+00 -4.076397e+00 -4.107605e+00 -4.143072e+00 -4.169059e+00 -4.200155e+00 -4.220625e+00 -4.246822e+00 -4.261998e+00 -4.283467e+00 -4.293852e+00 -4.311141e+00 -4.317323e+00 -4.331107e+00 -4.333636e+00 -4.344546e+00 -4.343857e+00 -4.352382e+00 -4.348754e+00 
-4.358267e+00 -4.352482e+00 -4.355987e+00 -4.347366e+00 -4.348828e+00 -4.337117e+00 -4.336197e+00 -4.320984e+00 -4.317145e+00 -4.297919e+00 -4.290454e+00 -4.266711e+00 -4.254794e+00 -4.226220e+00 -4.209008e+00 -4.175738e+00 -4.152540e+00 -4.115468e+00 -4.085973e+00 -4.047012e+00 -4.011534e+00 -3.973625e+00 -3.933280e+00 -3.899943e+00 -3.856715e+00 -3.831147e+00 -3.787888e+00 -3.772148e+00 -3.732573e+00 -3.727760e+00 -3.696350e+00 -3.703127e+00 -3.684051e+00 -3.702190e+00 -3.697632e+00 -3.725254e+00 -3.734782e+00 -3.768847e+00 -3.790413e+00 -3.827970e+00 -3.858964e+00 -3.897656e+00 -3.934907e+00 -3.972676e+00 -4.012482e+00 -4.047476e+00 -4.086359e+00 -4.117132e+00 -4.152535e+00 -4.178235e+00 -4.208770e+00 -4.229147e+00 -4.254440e+00 -4.269706e+00 -4.290066e+00 -4.300691e+00 -4.316780e+00 -4.323320e+00 -4.335892e+00 -4.338873e+00 -4.348611e+00 -4.348452e+00 -4.355874e+00 -4.352849e+00 
-4.363259e+00 -4.356852e+00 -4.361356e+00 -4.352140e+00 -4.354627e+00 -4.342329e+00 -4.342421e+00 -4.326596e+00 -4.323701e+00 -4.303788e+00 -4.297112e+00 -4.272550e+00 -4.261142e+00 -4.231559e+00 -4.214417e+00 -4.179914e+00 -4.156162e+00 -4.117663e+00 -4.086826e+00 -4.046385e+00 -4.008721e+00 -3.969563e+00 -3.926383e+00 -3.892448e+00 -3.846298e+00 -3.821279e+00 -3.775844e+00 -3.762143e+00 -3.721646e+00 -3.719716e+00 -3.687935e+00 -3.696929e+00 -3.676913e+00 -3.695603e+00 -3.689210e+00 -3.716072e+00 -3.723650e+00 -3.757037e+00 -3.777719e+00 -3.815766e+00 -3.847261e+00 -3.887458e+00 -3.926023e+00 -3.965635e+00 -4.007044e+00 -4.043653e+00 -4.084111e+00 -4.115989e+00 -4.152790e+00 -4.179039e+00 -4.210761e+00 -4.231214e+00 -4.257517e+00 -4.272512e+00 -4.293768e+00 -4.303898e+00 -4.320830e+00 -4.326752e+00 -4.340160e+00 -4.342470e+00 -4.353070e+00 -4.352235e+00 -4.360563e+00 -4.356885e+00 
-4.370191e+00 -4.364487e+00 -4.368095e+00 -4.359703e+00 -4.361466e+00 -4.350095e+00 -4.349654e+00 -4.334809e+00 -4.331598e+00 -4.312629e+00 -4.305899e+00 -4.282098e+00 -4.270957e+00 -4.241746e+00 -4.225244e+00 -4.190478e+00 -4.167758e+00 -4.128127e+00 -4.098627e+00 -4.056070e+00 -4.019733e+00 -3.977588e+00 -3.935024e+00 -3.897561e+00 -3.850234e+00 -3.821336e+00 -3.771934e+00 -3.753626e+00 -3.706591e+00 -3.700033e+00 -3.662054e+00 -3.668942e+00 -3.646594e+00 -3.667550e+00 -3.663813e+00 -3.696354e+00 -3.709598e+00 -3.748912e+00 -3.775241e+00 -3.816983e+00 -3.852969e+00 -3.894607e+00 -3.936772e+00 -3.976529e+00 -4.020552e+00 -4.056844e+00 -4.098787e+00 -4.130322e+00 -4.167533e+00 -4.193560e+00 -4.224836e+00 -4.245212e+00 -4.270489e+00 -4.285536e+00 -4.305442e+00 -4.315737e+00 -4.331192e+00 -4.337382e+00 -4.349327e+00 -4.352004e+00 -4.361238e+00 -4.360873e+00 -4.367977e+00 -4.364881e+00 
-4.379203e+00 -4.372906e+00 -4.377588e+00 -4.368697e+00 -4.371658e+00 -4.359846e+00 -4.360692e+00 -4.345399e+00 -4.343508e+00 -4.323977e+00 -4.318502e+00 -4.293880e+00 -4.283772e+00 -4.253307e+00 -4.237372e+00 -4.200755e+00 -4.177798e+00 -4.135647e+00 -4.104697e+00 -4.059078e+00 -4.019708e+00 -3.974386e+00 -3.927169e+00 -3.887153e+00 -3.834291e+00 -3.804558e+00 -3.750549e+00 -3.734670e+00 -3.685856e+00 -3.684142e+00 -3.645844e+00 -3.656637e+00 -3.632968e+00 -3.654702e+00 -3.648005e+00 -3.678903e+00 -3.689242e+00 -3.727562e+00 -3.753710e+00 -3.797285e+00 -3.835990e+00 -3.881121e+00 -3.926875e+00 -3.970145e+00 -4.017607e+00 -4.056539e+00 -4.101330e+00 -4.134410e+00 -4.173748e+00 -4.200364e+00 -4.233119e+00 -4.253388e+00 -4.279669e+00 -4.294173e+00 -4.314801e+00 -4.324322e+00 -4.340382e+00 -4.345711e+00 -4.358261e+00 -4.360084e+00 -4.370000e+00 -4.368844e+00 -4.376748e+00 -4.372955e+00 
-4.389733e+00 -4.384171e+00 -4.387973e+00 -4.380015e+00 -4.382322e+00 -4.371631e+00 -4.372049e+00 -4.358010e+00 -4.355933e+00 -4.337670e+00 -4.332292e+00 -4.308742e+00 -4.299071e+00 -4.269168e+00 -4.254092e+00 -4.217116e+00 -4.195523e+00 -4.151661e+00 -4.122604e+00 -4.073666e+00 -4.036480e+00 -3.986472e+00 -3.940783e+00 -3.895642e+00 -3.841591e+00 -3.807000e+00 -3.746349e+00 -3.723463e+00 -3.661369e+00 -3.650735e+00 -3.599192e+00 -3.605460e+00 -3.576804e+00 -3.603083e+00 -3.601916e+00 -3.644529e+00 -3.666053e+00 -3.715808e+00 -3.751233e+00 -3.800360e+00 -3.845204e+00 -3.891539e+00 -3.942615e+00 -3.985399e+00 -4.036930e+00 -4.075186e+00 -4.122286e+00 -4.154931e+00 -4.194894e+00 -4.221296e+00 -4.253405e+00 -4.273590e+00 -4.298432e+00 -4.312936e+00 -4.331738e+00 -4.341333e+00 -4.355477e+00 -4.360964e+00 -4.371697e+00 -4.373782e+00 -4.382081e+00 -4.381317e+00 -4.387850e+00 -4.384606e+00 
-4.402558e+00 -4.396443e+00 -4.401415e+00 -4.393097e+00 -4.396819e+00 -4.385915e+00 -4.387973e+00 -4.373777e+00 -4.373524e+00 -4.355001e+00 -4.351542e+00 -4.327386e+00 -4.319560e+00 -4.288374e+00 -4.274755e+00 -4.235448e+00 -4.214404e+00 -4.166868e+00 -4.136667e+00 -4.082712e+00 -4.041707e+00 -3.985848e+00 -3.932917e+00 -3.882069e+00 -3.817962e+00 -3.779439e+00 -3.709719e+00 -3.690395e+00 -3.626928e+00 -3.626511e+00 -3.577231e+00 -3.591440e+00 -3.561757e+00 -3.588284e+00 -3.581190e+00 -3.618086e+00 -3.633060e+00 -3.679385e+00 -3.715286e+00 -3.768901e+00 -3.820884e+00 -3.874466e+00 -3.932527e+00 -3.981432e+00 -4.038677e+00 -4.080799e+00 -4.132099e+00 -4.166537e+00 -4.209222e+00 -4.235929e+00 -4.269572e+00 -4.289155e+00 -4.314749e+00 -4.328185e+00 -4.347329e+00 -4.355687e+00 -4.370046e+00 -4.374306e+00 -4.385314e+00 -4.386282e+00 -4.395026e+00 -4.393311e+00 -4.400513e+00 -4.396513e+00 
-4.416292e+00 -4.410930e+00 -4.415055e+00 -4.407800e+00 -4.410955e+00 -4.401439e+00 -4.403183e+00 -4.390663e+00 -4.390354e+00 -4.373673e+00 -4.370448e+00 -4.348047e+00 -4.340816e+00 -4.310870e+00 -4.298329e+00 -4.259102e+00 -4.239827e+00 -4.190387e+00 -4.162978e+00 -4.104394e+00 -4.067438e+00 -4.004345e+00 -3.955898e+00 -3.897502e+00 -3.834769e+00 -3.792346e+00 -3.714008e+00 -3.684484e+00 -3.594017e+00 -3.574409e+00 -3.497157e+00 -3.500550e+00 -3.461198e+00 -3.496195e+00 -3.501635e+00 -3.563046e+00 -3.602021e+00 -3.671095e+00 -3.721695e+00 -3.781723e+00 -3.839658e+00 -3.891803e+00 -3.957445e+00 -4.003781e+00 -4.066979e+00 -4.107560e+00 -4.161785e+00 -4.195603e+00 -4.238587e+00 -4.265066e+00 -4.297286e+00 -4.316737e+00 -4.339997e+00 -4.353320e+00 -4.369812e+00 -4.378091e+00 -4.389862e+00 -4.394115e+00 -4.402816e+00 -4.403893e+00 -4.410707e+00 -4.409263e+00 -4.414930e+00 -4.411416e+00 
-4.432489e+00 -4.426630e+00 -4.432034e+00 -4.424613e+00 -4.429435e+00 -4.420048e+00 -4.423855e+00 -4.411665e+00 -4.413813e+00 -4.397470e+00 -4.397068e+00 -4.374680e+00 -4.370515e+00 -4.339748e+00 -4.330212e+00 -4.288643e+00 -4.271664e+00 -4.217622e+00 -4.190543e+00 -4.124700e+00 -4.083987e+00 -4.011456e+00 -3.952496e+00 -3.883334e+00 -3.801979e+00 -3.746344e+00 -3.647590e+00 -3.623556e+00 -3.536121e+00 -3.541604e+00 -3.476725e+00 -3.498369e+00 -3.460134e+00 -3.492836e+00 -3.484315e+00 -3.526904e+00 -3.547578e+00 -3.605045e+00 -3.657222e+00 -3.729773e+00 -3.806547e+00 -3.873996e+00 -3.951370e+00 -4.007677e+00 -4.079029e+00 -4.124403e+00 -4.183946e+00 -4.219012e+00 -4.264809e+00 -4.290537e+00 -4.323776e+00 -4.341543e+00 -4.364810e+00 -4.376147e+00 -4.392239e+00 -4.398571e+00 -4.409929e+00 -4.412440e+00 -4.420941e+00 -4.420554e+00 -4.427497e+00 -4.424896e+00 -4.431067e+00 -4.426721e+00 
-4.448831e+00 -4.443704e+00 -4.448345e+00 -4.442113e+00 -4.446497e+00 -4.438826e+00 -4.442466e+00 -4.432537e+00 -4.434777e+00 -4.421167e+00 -4.421151e+00 -4.401740e+00 -4.398343e+00 -4.370313e+00 -4.362074e+00 -4.322121e+00 -4.307276e+00 -4.252250e+00 -4.228915e+00 -4.157413e+00 -4.123606e+00 -4.039281e+00 -3.991301e+00 -3.908252e+00 -3.837910e+00 -3.788588e+00 -3.687077e+00 -3.651226e+00 -3.505329e+00 -3.465716e+00 -3.340962e+00 -3.337128e+00 -3.281441e+00 -3.328963e+00 -3.348371e+00 -3.443563e+00 -3.520338e+00 -3.626478e+00 -3.699142e+00 -3.771260e+00 -3.844120e+00 -3.900896e+00 -3.991301e+00 -4.040830e+00 -4.121154e+00 -4.164012e+00 -4.226323e+00 -4.260781e+00 -4.305297e+00 -4.330773e+00 -4.360726e+00 -4.378168e+00 -4.397437e+00 -4.408392e+00 -4.420512e+00 -4.426488e+00 -4.434301e+00 -4.436544e+00 -4.442113e+00 -4.441598e+00 -4.446257e+00 -4.443735e+00 -4.448222e+00 -4.444237e+00 
-4.467641e+00 -4.462078e+00 -4.468113e+00 -4.461958e+00 -4.468277e+00 -4.461199e+00 -4.467359e+00 -4.458486e+00 -4.463915e+00 -4.451657e+00 -4.455600e+00 -4.437485e+00 -4.438880e+00 -4.411447e+00 -4.408745e+00 -4.367606e+00 -4.358522e+00 -4.298921e+00 -4.279968e+00 -4.199014e+00 -4.164405e+00 -4.066451e+00 -4.005953e+00 -3.907984e+00 -3.803899e+00 -3.710533e+00 -3.553077e+00 -3.525499e+00 -3.402075e+00 -3.431225e+00 -3.352014e+00 -3.393049e+00 -3.345447e+00 -3.383107e+00 -3.367232e+00 -3.404027e+00 -3.424469e+00 -3.492459e+00 -3.568712e+00 -3.681636e+00 -3.809783e+00 -3.898833e+00 -4.002364e+00 -4.065644e+00 -4.155613e+00 -4.202248e+00 -4.270209e+00 -4.303304e+00 -4.349492e+00 -4.371607e+00 -4.400865e+00 -4.414558e+00 -4.432214e+00 -4.439715e+00 -4.450143e+00 -4.453181e+00 -4.459637e+00 -4.459487e+00 -4.464215e+00 -4.461821e+00 -4.466217e+00 -4.462296e+00 -4.467095e+00 -4.462185e+00 
-4.485735e+00 -4.480797e+00 -4.486246e+00 -4.481354e+00 -4.487439e+00 -4.482416e+00 -4.488607e+00 -4.482709e+00 -4.488420e+00 -4.480125e+00 -4.484678e+00 -4.471454e+00 -4.473939e+00 -4.452020e+00 -4.451020e+00 -4.415131e+00 -4.408402e+00 -4.351510e+00 -4.336178e+00 -4.250496e+00 -4.224645e+00 -4.106432e+00 -4.066879e+00 -3.926803e+00 -3.858888e+00 -3.821006e+00 -3.709837e+00 -3.682888e+00 -3.416570e+00 -3.328515e+00 -3.119829e+00 -3.104986e+00 -3.030865e+00 -3.090761e+00 -3.130739e+00 -3.283015e+00 -3.449622e+00 -3.635616e+00 -3.726917e+00 -3.792921e+00 -3.865458e+00 -3.919206e+00 -4.061828e+00 -4.114271e+00 -4.218325e+00 -4.263785e+00 -4.331802e+00 -4.365302e+00 -4.405931e+00 -4.427522e+00 -4.449735e+00 -4.462383e+00 -4.473233e+00 -4.479695e+00 -4.484210e+00 -4.486389e+00 -4.488052e+00 -4.487236e+00 -4.488309e+00 -4.485448e+00 -4.487223e+00 -4.483089e+00 -4.486132e+00 -4.481361e+00 
-4.506013e+00 -4.500681e+00 -4.507639e+00 -4.503077e+00 -4.511339e+00 -4.507457e+00 -4.516589e+00 -4.512704e+00 -4.522333e+00 -4.516898e+00 -4.526694e+00 -4.516995e+00 -4.526509e+00 -4.508251e+00 -4.516525e+00 -4.482996e+00 -4.487850e+00 -4.428509e+00 -4.425688e+00 -4.327490e+00 -4.309725e+00 -4.169867e+00 -4.124721e+00 -3.993484e+00 -3.876308e+00 -3.681856e+00 -3.381064e+00 -3.363508e+00 -3.196695e+00 -3.310912e+00 -3.250942e+00 -3.346087e+00 -3.296885e+00 -3.329864e+00 -3.282645e+00 -3.259644e+00 -3.245109e+00 -3.304129e+00 -3.403959e+00 -3.622847e+00 -3.881163e+00 -3.996381e+00 -4.114858e+00 -4.176601e+00 -4.293382e+00 -4.337269e+00 -4.411520e+00 -4.437594e+00 -4.476583e+00 -4.489815e+00 -4.507387e+00 -4.512837e+00 -4.519048e+00 -4.519929e+00 -4.520736e+00 -4.518738e+00 -4.517767e+00 -4.513839e+00 -4.513302e+00 -4.508131e+00 -4.509220e+00 -4.503431e+00 -4.506603e+00 -4.500792e+00 
-4.524701e+00 -4.519738e+00 -4.526437e+00 -4.523070e+00 -4.531414e+00 -4.529828e+00 -4.539254e+00 -4.539071e+00 -4.549218e+00 -4.549224e+00 -4.559994e+00 -4.557825e+00 -4.569204e+00 -4.560863e+00 -4.572068e+00 -4.550515e+00 -4.557879e+00 -4.509722e+00 -4.505660e+00 -4.409844e+00 -4.393325e+00 -4.228358e+00 -4.208733e+00 -3.884448e+00 -3.833102e+00 -3.900028e+00 -3.902639e+00 -3.959907e+00 -3.366189e+00 -3.088407e+00 -2.610737e+00 -2.418105e+00 -2.279278e+00 -2.400506e+00 -2.600674e+00 -2.984594e+00 -3.459038e+00 -3.870162e+00 -3.917428e+00 -3.859475e+00 -3.841284e+00 -3.882298e+00 -4.188462e+00 -4.252816e+00 -4.380298e+00 -4.434868e+00 -4.499958e+00 -4.530885e+00 -4.556067e+00 -4.567562e+00 -4.571798e+00 -4.574075e+00 -4.569261e+00 -4.567675e+00 -4.559966e+00 -4.556294e+00 -4.549063e+00 -4.543932e+00 -4.539041e+00 -4.532956e+00 -4.531225e+00 -4.524809e+00 -4.526329e+00 -4.520295e+00 
-4.544902e+00 -4.539513e+00 -4.547834e+00 -4.544975e+00 -4.555660e+00 -4.555742e+00 -4.568370e+00 -4.571278e+00 -4.585879e+00 -4.590687e+00 -4.607901e+00 -4.612568e+00 -4.633493e+00 -4.634198e+00 -4.659192e+00 -4.647469e+00 -4.673165e+00 -4.627879e+00 -4.646660e+00 -4.529222e+00 -4.535255e+00 -4.294819e+00 -4.306703e+00 -4.216418e+00 -4.168482e+00 -3.454423e+00 -1.436677e+00 1.742944e-01 2.567032e+00 4.531001e+00 5.790266e+00 6.600504e+00 6.775127e+00 6.602100e+00 5.896554e+00 4.560353e+00 2.581027e+00 4.696790e-01 -1.441040e+00 -3.308251e+00 -4.185483e+00 -4.290634e+00 -4.282120e+00 -4.310478e+00 -4.502404e+00 -4.549458e+00 -4.627451e+00 -4.643451e+00 -4.660820e+00 -4.657436e+00 -4.649674e+00 -4.640018e+00 -4.625715e+00 -4.615877e+00 -4.601726e+00 -4.592583e+00 -4.581232e+00 -4.572373e+00 -4.565099e+00 -4.556359e+00 -4.553593e+00 -4.545288e+00 -4.546837e+00 -4.539609e+00 
-4.562738e+00 -4.557230e+00 -4.565840e+00 -4.563844e+00 -4.575072e+00 -4.577422e+00 -4.590657e+00 -4.597777e+00 -4.613100e+00 -4.624790e+00 -4.643401e+00 -4.658630e+00 -4.682892e+00 -4.699096e+00 -4.730186e+00 -4.739125e+00 -4.768044e+00 -4.744805e+00 -4.744502e+00 -4.647140e+00 -4.621273e+00 -4.492323e+00 -4.437431e+00 -2.671713e+00 7.842332e-01 3.979098e+00 7.805594e+00 1.001039e+01 1.149468e+01 1.263414e+01 1.278942e+01 1.299560e+01 1.289554e+01 1.296790e+01 1.285564e+01 1.252078e+01 1.162216e+01 1.021239e+01 7.770028e+00 4.298657e+00 8.132907e-01 -2.499987e+00 -4.344576e+00 -4.560428e+00 -4.599393e+00 -4.688412e+00 -4.740054e+00 -4.773592e+00 -4.769335e+00 -4.760912e+00 -4.732618e+00 -4.715145e+00 -4.684538e+00 -4.669828e+00 -4.644099e+00 -4.632272e+00 -4.613207e+00 -4.602584e+00 -4.590507e+00 -4.580339e+00 -4.574879e+00 -4.565399e+00 -4.565718e+00 -4.557716e+00 
-4.580999e+00 -4.574870e+00 -4.585232e+00 -4.583707e+00 -4.597312e+00 -4.601632e+00 -4.618014e+00 -4.629157e+00 -4.648966e+00 -4.667484e+00 -4.693227e+00 -4.719236e+00 -4.755273e+00 -4.787794e+00 -4.835968e+00 -4.866342e+00 -4.912953e+00 -4.905420e+00 -4.933381e+00 -4.830717e+00 -4.819692e+00 -3.397366e+00 3.139837e-01 5.038677e+00 9.766356e+00 1.195320e+01 1.294397e+01 1.320457e+01 1.297600e+01 1.294114e+01 1.267581e+01 1.264389e+01 1.253589e+01 1.262047e+01 1.269854e+01 1.286716e+01 1.303662e+01 1.316129e+01 1.290164e+01 1.208373e+01 9.825656e+00 5.456564e+00 4.299124e-01 -3.288937e+00 -4.748178e+00 -4.871607e+00 -4.913793e+00 -4.927922e+00 -4.902991e+00 -4.878119e+00 -4.827542e+00 -4.793735e+00 -4.747819e+00 -4.722230e+00 -4.687221e+00 -4.669042e+00 -4.644539e+00 -4.629983e+00 -4.614994e+00 -4.602061e+00 -4.595457e+00 -4.583908e+00 -4.584353e+00 -4.574929e+00 
-4.596357e+00 -4.589294e+00 -4.600797e+00 -4.599393e+00 -4.614205e+00 -4.620264e+00 -4.637595e+00 -4.652904e+00 -4.673373e+00 -4.699687e+00 -4.726679e+00 -4.765834e+00 -4.806428e+00 -4.859106e+00 -4.918592e+00 -4.973647e+00 -5.030866e+00 -5.048524e+00 -5.025144e+00 -4.637853e+00 -2.260730e+00 3.360006e+00 9.268278e+00 1.207638e+01 1.317771e+01 1.311622e+01 1.283742e+01 1.272254e+01 1.269589e+01 1.285536e+01 1.285716e+01 1.297281e+01 1.291967e+01 1.295934e+01 1.288179e+01 1.282032e+01 1.272412e+01 1.271136e+01 1.282732e+01 1.310821e+01 1.320482e+01 1.223990e+01 9.384950e+00 3.842695e+00 -2.039871e+00 -4.637011e+00 -5.031508e+00 -5.078065e+00 -5.038436e+00 -4.998384e+00 -4.925706e+00 -4.877613e+00 -4.810431e+00 -4.777791e+00 -4.728170e+00 -4.706838e+00 -4.673609e+00 -4.656995e+00 -4.637375e+00 -4.622494e+00 -4.613921e+00 -4.600483e+00 -4.600623e+00 -4.589618e+00 
-4.610724e+00 -4.602561e+00 -4.616021e+00 -4.614648e+00 -4.631740e+00 -4.639573e+00 -4.659515e+00 -4.679233e+00 -4.703262e+00 -4.737862e+00 -4.771417e+00 -4.824378e+00 -4.878059e+00 -4.951841e+00 -5.028065e+00 -5.112056e+00 -5.158056e+00 -5.212744e+00 -4.695326e+00 -1.016980e+00 5.824140e+00 1.109819e+01 1.312130e+01 1.310117e+01 1.296615e+01 1.293913e+01 1.302036e+01 1.308667e+01 1.301330e+01 1.303069e+01 1.291495e+01 1.293139e+01 1.286556e+01 1.292016e+01 1.292518e+01 1.300267e+01 1.302905e+01 1.306985e+01 1.301028e+01 1.294992e+01 1.294619e+01 1.309024e+01 1.312689e+01 1.133106e+01 6.032053e+00 -7.419014e-01 -4.613895e+00 -5.228547e+00 -5.156357e+00 -5.118825e+00 -5.020719e+00 -4.955271e+00 -4.871083e+00 -4.826170e+00 -4.765963e+00 -4.738726e+00 -4.699464e+00 -4.679600e+00 -4.657075e+00 -4.639690e+00 -4.630312e+00 -4.614663e+00 -4.615366e+00 -4.602558e+00 
-4.622043e+00 -4.611717e+00 -4.627574e+00 -4.625025e+00 -4.644319e+00 -4.652609e+00 -4.673983e+00 -4.696874e+00 -4.721025e+00 -4.763249e+00 -4.795878e+00 -4.863118e+00 -4.917361e+00 -5.011821e+00 -5.097146e+00 -5.191414e+00 -5.302981e+00 -4.847668e+00 -9.347542e-01 6.732196e+00 1.218400e+01 1.317257e+01 1.314032e+01 1.307490e+01 1.316224e+01 1.311536e+01 1.304886e+01 1.302182e+01 1.298365e+01 1.303977e+01 1.301393e+01 1.307527e+01 1.303556e+01 1.306970e+01 1.302282e+01 1.302742e+01 1.299295e+01 1.301690e+01 1.304665e+01 1.312081e+01 1.315740e+01 1.310328e+01 1.310448e+01 1.318887e+01 1.230086e+01 7.236108e+00 -5.769946e-01 -4.787498e+00 -5.314927e+00 -5.216987e+00 -5.109655e+00 -5.032627e+00 -4.923618e+00 -4.874839e+00 -4.797598e+00 -4.768814e+00 -4.720924e+00 -4.699241e+00 -4.673418e+00 -4.653489e+00 -4.643806e+00 -4.625288e+00 -4.627291e+00 -4.611767e+00 
-4.630886e+00 -4.618558e+00 -4.636778e+00 -4.633214e+00 -4.654695e+00 -4.663750e+00 -4.686713e+00 -4.713478e+00 -4.738677e+00 -4.789704e+00 -4.825318e+00 -4.906930e+00 -4.974307e+00 -5.082495e+00 -5.195522e+00 -5.306698e+00 -5.196991e+00 -1.638525e+00 6.681060e+00 1.233650e+01 1.323944e+01 1.321972e+01 1.326895e+01 1.321215e+01 1.318566e+01 1.316380e+01 1.316194e+01 1.318016e+01 1.313828e+01 1.315830e+01 1.309764e+01 1.312329e+01 1.307838e+01 1.311851e+01 1.310075e+01 1.314752e+01 1.314080e+01 1.317380e+01 1.315505e+01 1.316745e+01 1.317194e+01 1.321834e+01 1.325199e+01 1.324545e+01 1.322623e+01 1.248755e+01 7.003857e+00 -1.319560e+00 -5.107225e+00 -5.294740e+00 -5.179717e+00 -5.080312e+00 -4.966891e+00 -4.907517e+00 -4.821048e+00 -4.789999e+00 -4.736187e+00 -4.713352e+00 -4.685325e+00 -4.663464e+00 -4.653971e+00 -4.632971e+00 -4.636471e+00 -4.618466e+00 
-4.637061e+00 -4.620907e+00 -4.643260e+00 -4.636583e+00 -4.661859e+00 -4.669100e+00 -4.694676e+00 -4.722267e+00 -4.747295e+00 -4.804271e+00 -4.834367e+00 -4.929833e+00 -4.979916e+00 -5.110581e+00 -5.157253e+00 -5.338906e+00 -3.020390e+00 5.030026e+00 1.209064e+01 1.337824e+01 1.334626e+01 1.333808e+01 1.330391e+01 1.327194e+01 1.326929e+01 1.324427e+01 1.320994e+01 1.320431e+01 1.316990e+01 1.319712e+01 1.316569e+01 1.320331e+01 1.316931e+01 1.320123e+01 1.316799e+01 1.319301e+01 1.317105e+01 1.320351e+01 1.320564e+01 1.324956e+01 1.325988e+01 1.328409e+01 1.328634e+01 1.334603e+01 1.333711e+01 1.337656e+01 1.226439e+01 5.565245e+00 -2.730031e+00 -5.361921e+00 -5.174617e+00 -5.134002e+00 -4.986046e+00 -4.939053e+00 -4.834596e+00 -4.806069e+00 -4.746031e+00 -4.721502e+00 -4.693432e+00 -4.667842e+00 -4.660994e+00 -4.635635e+00 -4.642829e+00 -4.620567e+00 
-4.639650e+00 -4.620076e+00 -4.645599e+00 -4.636083e+00 -4.663907e+00 -4.669695e+00 -4.695984e+00 -4.725569e+00 -4.747182e+00 -4.813572e+00 -4.834460e+00 -4.947709e+00 -4.996950e+00 -5.108281e+00 -5.296671e+00 -4.699845e+00 2.226815e+00 1.111007e+01 1.359856e+01 1.341861e+01 1.346916e+01 1.338478e+01 1.339871e+01 1.334985e+01 1.333446e+01 1.331424e+01 1.329396e+01 1.329877e+01 1.326474e+01 1.328157e+01 1.324041e+01 1.326583e+01 1.323038e+01 1.326408e+01 1.324034e+01 1.327804e+01 1.326276e+01 1.329754e+01 1.328715e+01 1.331767e+01 1.332281e+01 1.335634e+01 1.338253e+01 1.339412e+01 1.344565e+01 1.341725e+01 1.356162e+01 1.131654e+01 2.661699e+00 -4.485928e+00 -5.281605e+00 -5.103128e+00 -4.993209e+00 -4.950578e+00 -4.833752e+00 -4.814282e+00 -4.747285e+00 -4.725031e+00 -4.696303e+00 -4.668900e+00 -4.664200e+00 -4.635491e+00 -4.645765e+00 -4.619864e+00 
-4.640517e+00 -4.615168e+00 -4.646966e+00 -4.631825e+00 -4.665938e+00 -4.666435e+00 -4.698360e+00 -4.724450e+00 -4.748671e+00 -4.817140e+00 -4.833162e+00 -4.954511e+00 -4.996355e+00 -5.058220e+00 -5.355776e+00 -1.588707e+00 8.021987e+00 1.350678e+01 1.360075e+01 1.355503e+01 1.351487e+01 1.347941e+01 1.344372e+01 1.341576e+01 1.338729e+01 1.337157e+01 1.333724e+01 1.333790e+01 1.330321e+01 1.332204e+01 1.328899e+01 1.331779e+01 1.328578e+01 1.331717e+01 1.328831e+01 1.332111e+01 1.330037e+01 1.333878e+01 1.333040e+01 1.337552e+01 1.337585e+01 1.342244e+01 1.342727e+01 1.348646e+01 1.349563e+01 1.356775e+01 1.357137e+01 1.358833e+01 8.611083e+00 -1.112459e+00 -5.363365e+00 -5.085650e+00 -4.993478e+00 -4.954568e+00 -4.828740e+00 -4.811469e+00 -4.745543e+00 -4.718937e+00 -4.696375e+00 -4.662373e+00 -4.664765e+00 -4.629406e+00 -4.646420e+00 -4.614369e+00 
-4.637575e+00 -4.607011e+00 -4.643313e+00 -4.622718e+00 -4.661026e+00 -4.655937e+00 -4.690265e+00 -4.713020e+00 -4.731414e+00 -4.809621e+00 -4.787657e+00 -4.971770e+00 -4.854244e+00 -5.179361e+00 -4.595928e+00 3.255352e+00 1.219866e+01 1.389075e+01 1.362368e+01 1.363999e+01 1.357753e+01 1.353599e+01 1.350722e+01 1.347377e+01 1.344468e+01 1.342973e+01 1.339903e+01 1.340186e+01 1.336760e+01 1.338301e+01 1.334747e+01 1.337206e+01 1.333994e+01 1.337176e+01 1.334610e+01 1.338286e+01 1.336403e+01 1.340354e+01 1.339217e+01 1.343418e+01 1.343434e+01 1.348014e+01 1.349386e+01 1.354174e+01 1.356289e+01 1.363724e+01 1.361738e+01 1.386779e+01 1.242276e+01 3.637816e+00 -4.512713e+00 -5.252338e+00 -4.860496e+00 -4.987361e+00 -4.794098e+00 -4.811157e+00 -4.735634e+00 -4.711594e+00 -4.692875e+00 -4.654330e+00 -4.662555e+00 -4.621645e+00 -4.644028e+00 -4.606644e+00 
-4.634290e+00 -4.596209e+00 -4.640856e+00 -4.611947e+00 -4.659801e+00 -4.644592e+00 -4.690263e+00 -4.701829e+00 -4.730452e+00 -4.806600e+00 -4.772571e+00 -5.019568e+00 -4.755223e+00 -5.487862e+00 -2.535809e+00 7.766318e+00 1.395635e+01 1.378028e+01 1.379633e+01 1.368150e+01 1.365392e+01 1.359726e+01 1.355583e+01 1.352699e+01 1.348517e+01 1.347397e+01 1.343312e+01 1.343687e+01 1.339862e+01 1.341566e+01 1.338044e+01 1.340684e+01 1.337446e+01 1.340678e+01 1.337825e+01 1.341587e+01 1.339351e+01 1.343813e+01 1.342415e+01 1.347658e+01 1.347175e+01 1.353001e+01 1.353782e+01 1.359756e+01 1.363267e+01 1.367049e+01 1.377630e+01 1.371933e+01 1.397498e+01 8.223653e+00 -2.061311e+00 -5.434396e+00 -4.716165e+00 -4.989612e+00 -4.762524e+00 -4.789069e+00 -4.726707e+00 -4.690832e+00 -4.688272e+00 -4.637719e+00 -4.658658e+00 -4.608140e+00 -4.640325e+00 -4.594987e+00 
-4.628103e+00 -4.583360e+00 -4.633905e+00 -4.596821e+00 -4.652111e+00 -4.624851e+00 -4.681371e+00 -4.673595e+00 -4.718376e+00 -4.763991e+00 -4.749929e+00 -4.958216e+00 -4.694627e+00 -5.428861e+00 4.469839e-01 1.119996e+01 1.431874e+01 1.368696e+01 1.388026e+01 1.370409e+01 1.370206e+01 1.363585e+01 1.359778e+01 1.356815e+01 1.352567e+01 1.351574e+01 1.347537e+01 1.348007e+01 1.344201e+01 1.345801e+01 1.342244e+01 1.344736e+01 1.341539e+01 1.344777e+01 1.342052e+01 1.345958e+01 1.343780e+01 1.348358e+01 1.346841e+01 1.352170e+01 1.351575e+01 1.357631e+01 1.358487e+01 1.364499e+01 1.368586e+01 1.371096e+01 1.385817e+01 1.368371e+01 1.427348e+01 1.151199e+01 1.015319e+00 -5.385035e+00 -4.741376e+00 -4.944742e+00 -4.768514e+00 -4.756914e+00 -4.727231e+00 -4.669004e+00 -4.686121e+00 -4.621870e+00 -4.654744e+00 -4.595141e+00 -4.635114e+00 -4.582819e+00 
-4.623062e+00 -4.570285e+00 -4.630052e+00 -4.582957e+00 -4.650541e+00 -4.607558e+00 -4.684301e+00 -4.647313e+00 -4.731552e+00 -4.714115e+00 -4.791849e+00 -4.836890e+00 -4.839470e+00 -4.973510e+00 3.500622e+00 1.309186e+01 1.425114e+01 1.383307e+01 1.392294e+01 1.378627e+01 1.374607e+01 1.369424e+01 1.363272e+01 1.361153e+01 1.355386e+01 1.354874e+01 1.349852e+01 1.350573e+01 1.346229e+01 1.348020e+01 1.344210e+01 1.346877e+01 1.343485e+01 1.346890e+01 1.343903e+01 1.348073e+01 1.345571e+01 1.350689e+01 1.348773e+01 1.355053e+01 1.353812e+01 1.361340e+01 1.361106e+01 1.369529e+01 1.371666e+01 1.378713e+01 1.387999e+01 1.384684e+01 1.417481e+01 1.337442e+01 4.272912e+00 -4.826574e+00 -4.895741e+00 -4.797954e+00 -4.802591e+00 -4.692087e+00 -4.732531e+00 -4.633604e+00 -4.683508e+00 -4.599048e+00 -4.649771e+00 -4.578273e+00 -4.629650e+00 -4.568787e+00 
-4.616755e+00 -4.557689e+00 -4.623143e+00 -4.567502e+00 -4.643932e+00 -4.585755e+00 -4.680039e+00 -4.611286e+00 -4.735548e+00 -4.643109e+00 -4.824308e+00 -4.668984e+00 -4.980149e+00 -4.141443e+00 6.412064e+00 1.418155e+01 1.404130e+01 1.399888e+01 1.388666e+01 1.385010e+01 1.375143e+01 1.373037e+01 1.365023e+01 1.363966e+01 1.357606e+01 1.357504e+01 1.352363e+01 1.353230e+01 1.348911e+01 1.350691e+01 1.346936e+01 1.349542e+01 1.346232e+01 1.349618e+01 1.346719e+01 1.350937e+01 1.348458e+01 1.353694e+01 1.351651e+01 1.358240e+01 1.356618e+01 1.365029e+01 1.363740e+01 1.374543e+01 1.373504e+01 1.387389e+01 1.386461e+01 1.405005e+01 1.400807e+01 1.434152e+01 7.117776e+00 -3.903523e+00 -5.007575e+00 -4.643629e+00 -4.837566e+00 -4.630648e+00 -4.743228e+00 -4.604240e+00 -4.684942e+00 -4.581651e+00 -4.646968e+00 -4.565335e+00 -4.624615e+00 -4.557011e+00 
-4.612811e+00 -4.547726e+00 -4.620431e+00 -4.556809e+00 -4.643385e+00 -4.571531e+00 -4.683521e+00 -4.587363e+00 -4.747139e+00 -4.595032e+00 -4.853234e+00 -4.566041e+00 -5.045957e+00 -3.312002e+00 8.338117e+00 1.458174e+01 1.396143e+01 1.416699e+01 1.388865e+01 1.393361e+01 1.377205e+01 1.377834e+01 1.367038e+01 1.367019e+01 1.359201e+01 1.359561e+01 1.353561e+01 1.354672e+01 1.349841e+01 1.351796e+01 1.347729e+01 1.350496e+01 1.346947e+01 1.350513e+01 1.347371e+01 1.351850e+01 1.349090e+01 1.354768e+01 1.352356e+01 1.359688e+01 1.357460e+01 1.367148e+01 1.364653e+01 1.377941e+01 1.374026e+01 1.393525e+01 1.384714e+01 1.417295e+01 1.390983e+01 1.459221e+01 8.903253e+00 -2.980612e+00 -5.028847e+00 -4.541760e+00 -4.847747e+00 -4.575895e+00 -4.744364e+00 -4.573706e+00 -4.681948e+00 -4.562584e+00 -4.642535e+00 -4.551782e+00 -4.620063e+00 -4.546108e+00 
-4.609209e+00 -4.540953e+00 -4.616157e+00 -4.548017e+00 -4.639195e+00 -4.558826e+00 -4.680913e+00 -4.566812e+00 -4.748918e+00 -4.558377e+00 -4.862008e+00 -4.500594e+00 -5.045162e+00 -2.664549e+00 9.482607e+00 1.471449e+01 1.390841e+01 1.423940e+01 1.385968e+01 1.396423e+01 1.376293e+01 1.379290e+01 1.367181e+01 1.368052e+01 1.359926e+01 1.360607e+01 1.354654e+01 1.355855e+01 1.351165e+01 1.353100e+01 1.349180e+01 1.351882e+01 1.348472e+01 1.351972e+01 1.348951e+01 1.353383e+01 1.350697e+01 1.356372e+01 1.353932e+01 1.361416e+01 1.358944e+01 1.369236e+01 1.365961e+01 1.380993e+01 1.374931e+01 1.398901e+01 1.384832e+01 1.427439e+01 1.391154e+01 1.474357e+01 1.007027e+01 -2.278317e+00 -5.026428e+00 -4.489064e+00 -4.860836e+00 -4.547650e+00 -4.752300e+00 -4.559441e+00 -4.684758e+00 -4.554325e+00 -4.642111e+00 -4.545635e+00 -4.617682e+00 -4.540211e+00 
-4.608693e+00 -4.538768e+00 -4.616600e+00 -4.546271e+00 -4.640624e+00 -4.556641e+00 -4.683209e+00 -4.562027e+00 -4.751141e+00 -4.545443e+00 -4.859241e+00 -4.466175e+00 -5.012415e+00 -2.351408e+00 9.961026e+00 1.480757e+01 1.394586e+01 1.429551e+01 1.388084e+01 1.399662e+01 1.377813e+01 1.381221e+01 1.368145e+01 1.369178e+01 1.360401e+01 1.361179e+01 1.354751e+01 1.356040e+01 1.351005e+01 1.353040e+01 1.348868e+01 1.351685e+01 1.348071e+01 1.351703e+01 1.348494e+01 1.353092e+01 1.350223e+01 1.356126e+01 1.353501e+01 1.361286e+01 1.358603e+01 1.369281e+01 1.365703e+01 1.381296e+01 1.374652e+01 1.399701e+01 1.384325e+01 1.429418e+01 1.391147e+01 1.479050e+01 1.048934e+01 -1.962065e+00 -4.980904e+00 -4.453473e+00 -4.846965e+00 -4.529195e+00 -4.746074e+00 -4.548943e+00 -4.680995e+00 -4.547717e+00 -4.639640e+00 -4.541184e+00 -4.616220e+00 -4.537123e+00 