# vtk DataFile Version 2.0
Comment goes here
ASCII

DATASET STRUCTURED_POINTS
FIELD FieldData 1
TIME 1 1 double
0.45000000
DIMENSIONS    64   64   1

ORIGIN    0.000   0.000   0.000
SPACING   0.015625 0.015625   1.000

POINT_DATA   4096
SCALARS P double
LOOKUP_TABLE default

-4.536174e+00 -4.526906e+00 -4.519799e+00 -4.494221e+00 -4.470607e+00 -4.429173e+00 -4.389325e+00 -4.332783e+00 -4.277313e+00 -4.206803e+00 -4.136774e+00 -4.053950e+00 -3.970975e+00 -3.878117e+00 -3.784464e+00 -3.684545e+00 -3.583183e+00 -3.479858e+00 -3.374451e+00 -3.271946e+00 -3.166754e+00 -3.069651e+00 -2.969324e+00 -2.882255e+00 -2.791510e+00 -2.718776e+00 -2.642025e+00 -2.587274e+00 -2.528382e+00 -2.494538e+00 -2.456840e+00 -2.446189e+00 -2.432270e+00 -2.445931e+00 -2.456686e+00 -2.493805e+00 -2.528051e+00 -2.586168e+00 -2.641477e+00 -2.717420e+00 -2.790700e+00 -2.880754e+00 -2.968234e+00 -3.068089e+00 -3.165410e+00 -3.270382e+00 -3.372921e+00 -3.478332e+00 -3.581561e+00 -3.683088e+00 -3.782851e+00 -3.876757e+00 -3.969464e+00 -4.052718e+00 -4.135435e+00 -4.205733e+00 -4.276200e+00 -4.331907e+00 -4.388469e+00 -4.428523e+00 -4.470029e+00 -4.493820e+00 -4.519508e+00 -4.526771e+00 
-4.545291e+00 -4.536572e+00 -4.528834e+00 -4.503672e+00 -4.479347e+00 -4.438148e+00 -4.397520e+00 -4.340972e+00 -4.284660e+00 -4.213841e+00 -4.142906e+00 -4.059418e+00 -3.975470e+00 -3.881569e+00 -3.786866e+00 -3.685545e+00 -3.583053e+00 -3.478052e+00 -3.371449e+00 -3.267150e+00 -3.160762e+00 -3.061972e+00 -2.960586e+00 -2.872195e+00 -2.780719e+00 -2.707247e+00 -2.630218e+00 -2.575340e+00 -2.516540e+00 -2.482952e+00 -2.445436e+00 -2.435047e+00 -2.421126e+00 -2.434801e+00 -2.445330e+00 -2.482249e+00 -2.516292e+00 -2.574272e+00 -2.629765e+00 -2.705924e+00 -2.780003e+00 -2.870726e+00 -2.959579e+00 -3.060440e+00 -3.159483e+00 -3.265611e+00 -3.369960e+00 -3.476535e+00 -3.581442e+00 -3.684073e+00 -3.785233e+00 -3.880164e+00 -3.973909e+00 -4.058115e+00 -4.141497e+00 -4.212683e+00 -4.283467e+00 -4.340006e+00 -4.396590e+00 -4.437420e+00 -4.478711e+00 -4.503219e+00 -4.528511e+00 -4.536418e+00 
-4.552717e+00 -4.543338e+00 -4.536228e+00 -4.510421e+00 -4.486669e+00 -4.444859e+00 -4.404700e+00 -4.347585e+00 -4.291583e+00 -4.220244e+00 -4.149404e+00 -4.065439e+00 -3.981332e+00 -3.886990e+00 -3.791856e+00 -3.690119e+00 -3.586938e+00 -3.481521e+00 -3.374009e+00 -3.269245e+00 -3.161763e+00 -3.062378e+00 -2.959713e+00 -2.870491e+00 -2.777509e+00 -2.702894e+00 -2.624151e+00 -2.567914e+00 -2.507420e+00 -2.472602e+00 -2.433850e+00 -2.422847e+00 -2.408567e+00 -2.422570e+00 -2.433709e+00 -2.471820e+00 -2.507112e+00 -2.566748e+00 -2.623624e+00 -2.701482e+00 -2.776707e+00 -2.868946e+00 -2.958608e+00 -3.060785e+00 -3.160383e+00 -3.267659e+00 -3.372430e+00 -3.479978e+00 -3.585264e+00 -3.688646e+00 -3.790197e+00 -3.885614e+00 -3.979784e+00 -4.064190e+00 -4.148040e+00 -4.219156e+00 -4.290453e+00 -4.346695e+00 -4.403836e+00 -4.444197e+00 -4.486087e+00 -4.510013e+00 -4.535935e+00 -4.543200e+00 
-4.578573e+00 -4.569669e+00 -4.561903e+00 -4.536333e+00 -4.511721e+00 -4.469829e+00 -4.428576e+00 -4.370943e+00 -4.313565e+00 -4.241139e+00 -4.168588e+00 -4.082844e+00 -3.996639e+00 -3.899748e+00 -3.802090e+00 -3.697048e+00 -3.590904e+00 -3.481560e+00 -3.370684e+00 -3.261643e+00 -3.150534e+00 -3.046919e+00 -2.940667e+00 -2.847757e+00 -2.751684e+00 -2.674424e+00 -2.593499e+00 -2.535892e+00 -2.474176e+00 -2.439016e+00 -2.399671e+00 -2.388839e+00 -2.374237e+00 -2.388561e+00 -2.399607e+00 -2.438228e+00 -2.473991e+00 -2.534710e+00 -2.593104e+00 -2.672991e+00 -2.750992e+00 -2.846199e+00 -2.939637e+00 -3.045329e+00 -3.149190e+00 -3.260068e+00 -3.369101e+00 -3.480020e+00 -3.589191e+00 -3.695550e+00 -3.800362e+00 -3.898310e+00 -3.994997e+00 -4.081498e+00 -4.167117e+00 -4.239934e+00 -4.312326e+00 -4.369932e+00 -4.427614e+00 -4.469064e+00 -4.511065e+00 -4.535856e+00 -4.561571e+00 -4.569507e+00 
-4.602575e+00 -4.592868e+00 -4.585767e+00 -4.559302e+00 -4.535175e+00 -4.492285e+00 -4.451245e+00 -4.392470e+00 -4.334921e+00 -4.261148e+00 -4.187923e+00 -4.100567e+00 -4.013086e+00 -3.914281e+00 -3.814696e+00 -3.707442e+00 -3.598748e+00 -3.486940e+00 -3.373010e+00 -3.261325e+00 -3.146836e+00 -3.040453e+00 -2.930633e+00 -2.834829e+00 -2.735012e+00 -2.654651e+00 -2.569803e+00 -2.509012e+00 -2.443573e+00 -2.405733e+00 -2.363693e+00 -2.351583e+00 -2.336177e+00 -2.351242e+00 -2.363597e+00 -2.404786e+00 -2.443340e+00 -2.507648e+00 -2.569353e+00 -2.653066e+00 -2.734240e+00 -2.833153e+00 -2.929482e+00 -3.038767e+00 -3.145339e+00 -3.259676e+00 -3.371273e+00 -3.485350e+00 -3.596910e+00 -3.705925e+00 -3.812894e+00 -3.912858e+00 -4.011427e+00 -4.099267e+00 -4.186484e+00 -4.260010e+00 -4.333745e+00 -4.391534e+00 -4.450355e+00 -4.491587e+00 -4.534580e+00 -4.558871e+00 -4.585470e+00 -4.592723e+00 
-4.645574e+00 -4.636309e+00 -4.628526e+00 -4.602200e+00 -4.577090e+00 -4.533916e+00 -4.491514e+00 -4.431843e+00 -4.372440e+00 -4.296925e+00 -4.221235e+00 -4.131059e+00 -4.040392e+00 -3.937520e+00 -3.833948e+00 -3.721348e+00 -3.607817e+00 -3.489555e+00 -3.369948e+00 -3.251099e+00 -3.130248e+00 -3.016601e+00 -2.900213e+00 -2.797860e+00 -2.692189e+00 -2.607051e+00 -2.518076e+00 -2.454923e+00 -2.387290e+00 -2.349058e+00 -2.306040e+00 -2.294402e+00 -2.278410e+00 -2.294049e+00 -2.306079e+00 -2.348072e+00 -2.387264e+00 -2.453486e+00 -2.517824e+00 -2.605379e+00 -2.691557e+00 -2.796118e+00 -2.899135e+00 -3.014897e+00 -3.128757e+00 -3.249467e+00 -3.368160e+00 -3.487979e+00 -3.605885e+00 -3.719805e+00 -3.832020e+00 -3.936013e+00 -4.038586e+00 -4.129622e+00 -4.219638e+00 -4.295619e+00 -4.371111e+00 -4.430735e+00 -4.490492e+00 -4.533073e+00 -4.576398e+00 -4.601673e+00 -4.628177e+00 -4.636130e+00 
-4.686393e+00 -4.676157e+00 -4.669133e+00 -4.641674e+00 -4.617049e+00 -4.572530e+00 -4.530197e+00 -4.468866e+00 -4.408928e+00 -4.331297e+00 -4.254262e+00 -4.161373e+00 -4.068365e+00 -3.962097e+00 -3.855071e+00 -3.738407e+00 -3.620339e+00 -3.497486e+00 -3.372493e+00 -3.248757e+00 -3.122094e+00 -3.003513e+00 -2.881264e+00 -2.774044e+00 -2.662397e+00 -2.572061e+00 -2.476544e+00 -2.407762e+00 -2.333530e+00 -2.290292e+00 -2.242325e+00 -2.228205e+00 -2.210773e+00 -2.227725e+00 -2.242321e+00 -2.288997e+00 -2.333457e+00 -2.406004e+00 -2.476275e+00 -2.570170e+00 -2.661708e+00 -2.772152e+00 -2.880033e+00 -3.001683e+00 -3.120371e+00 -3.247018e+00 -3.370455e+00 -3.495831e+00 -3.618199e+00 -3.736825e+00 -3.853013e+00 -3.960594e+00 -4.066519e+00 -4.159984e+00 -4.252701e+00 -4.330068e+00 -4.407683e+00 -4.467847e+00 -4.529273e+00 -4.571768e+00 -4.616441e+00 -4.641202e+00 -4.668832e+00 -4.675997e+00 
-4.747068e+00 -4.737285e+00 -4.729580e+00 -4.702279e+00 -4.676628e+00 -4.631809e+00 -4.587954e+00 -4.525579e+00 -4.463428e+00 -4.383633e+00 -4.303484e+00 -4.206905e+00 -4.109704e+00 -3.997880e+00 -3.885448e+00 -3.761223e+00 -3.636423e+00 -3.504183e+00 -3.371032e+00 -3.236628e+00 -3.100384e+00 -2.970683e+00 -2.837962e+00 -2.720258e+00 -2.598950e+00 -2.501010e+00 -2.399149e+00 -2.327395e+00 -2.250691e+00 -2.208139e+00 -2.159704e+00 -2.147203e+00 -2.129087e+00 -2.146708e+00 -2.159959e+00 -2.206777e+00 -2.250990e+00 -2.325490e+00 -2.399196e+00 -2.498934e+00 -2.598442e+00 -2.718220e+00 -2.836798e+00 -2.968830e+00 -3.098628e+00 -3.234951e+00 -3.368881e+00 -3.502589e+00 -3.634121e+00 -3.759629e+00 -3.883198e+00 -3.996267e+00 -4.107646e+00 -4.205316e+00 -4.301702e+00 -4.382156e+00 -4.461971e+00 -4.524311e+00 -4.586849e+00 -4.630838e+00 -4.675887e+00 -4.701670e+00 -4.729209e+00 -4.737078e+00 
-4.805081e+00 -4.794137e+00 -4.787368e+00 -4.758738e+00 -4.733713e+00 -4.687305e+00 -4.643559e+00 -4.579144e+00 -4.516300e+00 -4.433758e+00 -4.351782e+00 -4.251476e+00 -4.150983e+00 -4.034263e+00 -3.916817e+00 -3.786529e+00 -3.654958e+00 -3.515751e+00 -3.374448e+00 -3.232650e+00 -3.087775e+00 -2.950859e+00 -2.810049e+00 -2.685891e+00 -2.556794e+00 -2.451577e+00 -2.339919e+00 -2.258868e+00 -2.170865e+00 -2.119072e+00 -2.061677e+00 -2.044371e+00 -2.023745e+00 -2.043612e+00 -2.061844e+00 -2.117081e+00 -2.171088e+00 -2.256392e+00 -2.340053e+00 -2.449250e+00 -2.556309e+00 -2.683720e+00 -2.808683e+00 -2.948854e+00 -3.085648e+00 -3.230825e+00 -3.371892e+00 -3.514039e+00 -3.652327e+00 -3.784868e+00 -3.914371e+00 -4.032646e+00 -4.148873e+00 -4.249948e+00 -4.350067e+00 -4.432386e+00 -4.514980e+00 -4.577998e+00 -4.642608e+00 -4.686443e+00 -4.733100e+00 -4.758204e+00 -4.787068e+00 -4.793956e+00 
-4.883960e+00 -4.873523e+00 -4.866138e+00 -4.837851e+00 -4.811901e+00 -4.765458e+00 -4.720226e+00 -4.654995e+00 -4.589782e+00 -4.505062e+00 -4.419510e+00 -4.314982e+00 -4.209433e+00 -4.085805e+00 -3.961643e+00 -3.821388e+00 -3.681286e+00 -3.529198e+00 -3.377235e+00 -3.220432e+00 -3.062219e+00 -2.909229e+00 -2.752332e+00 -2.611492e+00 -2.466382e+00 -2.348917e+00 -2.228069e+00 -2.144313e+00 -2.055332e+00 -2.007974e+00 -1.952831e+00 -1.940200e+00 -1.919240e+00 -1.939437e+00 -1.953531e+00 -2.005923e+00 -2.056268e+00 -2.141581e+00 -2.228719e+00 -2.346236e+00 -2.466101e+00 -2.609013e+00 -2.751016e+00 -2.907234e+00 -3.059996e+00 -3.218799e+00 -3.374479e+00 -3.527665e+00 -3.678404e+00 -3.819761e+00 -3.958926e+00 -4.084037e+00 -4.207031e+00 -4.313153e+00 -4.417490e+00 -4.503315e+00 -4.588169e+00 -4.653478e+00 -4.719025e+00 -4.764292e+00 -4.811106e+00 -4.837120e+00 -4.865743e+00 -4.873275e+00 
-4.959547e+00 -4.947744e+00 -4.941580e+00 -4.911860e+00 -4.886879e+00 -4.838788e+00 -4.793987e+00 -4.726595e+00 -4.660868e+00 -4.573047e+00 -4.485527e+00 -4.376459e+00 -4.266927e+00 -4.136906e+00 -4.006206e+00 -3.857619e+00 -3.708124e+00 -3.546199e+00 -3.382396e+00 -3.215064e+00 -3.044353e+00 -2.881280e+00 -2.714327e+00 -2.567092e+00 -2.414773e+00 -2.289192e+00 -2.154746e+00 -2.055779e+00 -1.946741e+00 -1.881350e+00 -1.809068e+00 -1.786734e+00 -1.761176e+00 -1.785411e+00 -1.809544e+00 -1.877933e+00 -1.947429e+00 -2.051970e+00 -2.155813e+00 -2.286434e+00 -2.414752e+00 -2.564631e+00 -2.712706e+00 -2.879082e+00 -3.041487e+00 -3.213213e+00 -3.378966e+00 -3.544489e+00 -3.704732e+00 -3.855882e+00 -4.003215e+00 -4.135126e+00 -4.264490e+00 -4.374721e+00 -4.483653e+00 -4.571460e+00 -4.659496e+00 -4.725261e+00 -4.793038e+00 -4.837783e+00 -4.886286e+00 -4.911238e+00 -4.941295e+00 -4.947533e+00 
-5.056940e+00 -5.045727e+00 -5.039143e+00 -5.010156e+00 -4.984602e+00 -4.937140e+00 -4.891213e+00 -4.823813e+00 -4.755901e+00 -4.666584e+00 -4.575309e+00 -4.462144e+00 -4.346886e+00 -4.208982e+00 -4.070415e+00 -3.909296e+00 -3.749776e+00 -3.570665e+00 -3.394217e+00 -3.206448e+00 -3.018679e+00 -2.834144e+00 -2.642731e+00 -2.467711e+00 -2.286482e+00 -2.139168e+00 -1.991566e+00 -1.892748e+00 -1.789200e+00 -1.738614e+00 -1.676662e+00 -1.666193e+00 -1.641693e+00 -1.664921e+00 -1.678286e+00 -1.735297e+00 -1.791346e+00 -1.888514e+00 -1.993489e+00 -2.135747e+00 -2.286527e+00 -2.464505e+00 -2.641135e+00 -2.832118e+00 -3.015617e+00 -3.205114e+00 -3.390440e+00 -3.569382e+00 -3.746016e+00 -3.907677e+00 -4.067069e+00 -4.206973e+00 -4.344067e+00 -4.459926e+00 -4.573021e+00 -4.664415e+00 -4.754124e+00 -4.821923e+00 -4.889918e+00 -4.935695e+00 -4.983759e+00 -5.009256e+00 -5.038729e+00 -5.045422e+00 
-5.150278e+00 -5.137487e+00 -5.132554e+00 -5.102174e+00 -5.078213e+00 -5.029344e+00 -4.984583e+00 -4.915343e+00 -4.847617e+00 -4.755365e+00 -4.662568e+00 -4.544484e+00 -4.425108e+00 -4.279403e+00 -4.133089e+00 -3.960932e+00 -3.788991e+00 -3.596325e+00 -3.402527e+00 -3.199895e+00 -2.992627e+00 -2.791939e+00 -2.588187e+00 -2.412544e+00 -2.234482e+00 -2.084296e+00 -1.919863e+00 -1.795739e+00 -1.653775e+00 -1.564601e+00 -1.467031e+00 -1.435998e+00 -1.402525e+00 -1.433561e+00 -1.468098e+00 -1.558117e+00 -1.654849e+00 -1.789305e+00 -1.923383e+00 -2.081854e+00 -2.235411e+00 -2.409799e+00 -2.585959e+00 -2.789441e+00 -2.988331e+00 -3.198220e+00 -3.397603e+00 -3.594779e+00 -3.784463e+00 -3.959130e+00 -4.129388e+00 -4.277370e+00 -4.422324e+00 -4.542416e+00 -4.660590e+00 -4.753456e+00 -4.846266e+00 -4.913738e+00 -4.983702e+00 -5.028141e+00 -5.077684e+00 -5.101431e+00 -5.132306e+00 -5.137236e+00 
-5.265972e+00 -5.253845e+00 -5.248912e+00 -5.219899e+00 -5.196115e+00 -5.149083e+00 -5.104072e+00 -5.036499e+00 -4.967312e+00 -4.875390e+00 -4.779082e+00 -4.658233e+00 -4.532651e+00 -4.378970e+00 -4.223692e+00 -4.036456e+00 -3.853509e+00 -3.637899e+00 -3.431265e+00 -3.200475e+00 -2.975377e+00 -2.753440e+00 -2.514421e+00 -2.288250e+00 -2.048989e+00 -1.852494e+00 -1.668506e+00 -1.554965e+00 -1.438835e+00 -1.391766e+00 -1.325597e+00 -1.322301e+00 -1.293395e+00 -1.320019e+00 -1.329188e+00 -1.386176e+00 -1.443159e+00 -1.547910e+00 -1.673561e+00 -1.848834e+00 -2.048980e+00 -2.283280e+00 -2.512426e+00 -2.751844e+00 -2.970707e+00 -3.200081e+00 -3.425689e+00 -3.637251e+00 -3.848444e+00 -4.034892e+00 -4.219587e+00 -4.376530e+00 -4.529397e+00 -4.655356e+00 -4.776539e+00 -4.872559e+00 -4.965392e+00 -5.034066e+00 -5.102707e+00 -5.147254e+00 -5.195246e+00 -5.218776e+00 -5.248491e+00 -5.253468e+00 
-5.376745e+00 -5.362828e+00 -5.360160e+00 -5.329995e+00 -5.308809e+00 -5.261040e+00 -5.218505e+00 -5.150108e+00 -5.082565e+00 -4.988798e+00 -4.892333e+00 -4.767107e+00 -4.638351e+00 -4.475891e+00 -4.312832e+00 -4.111262e+00 -3.913369e+00 -3.679388e+00 -3.447411e+00 -3.197661e+00 -2.937404e+00 -2.677317e+00 -2.415336e+00 -2.211989e+00 -2.022915e+00 -1.850726e+00 -1.648733e+00 -1.490206e+00 -1.292542e+00 -1.153818e+00 -1.008332e+00 -9.620256e-01 -9.158729e-01 -9.576607e-01 -1.010929e+00 -1.140384e+00 -1.292030e+00 -1.478229e+00 -1.660115e+00 -1.852323e+00 -2.024734e+00 -2.208158e+00 -2.411582e+00 -2.673955e+00 -2.930214e+00 -3.196893e+00 -3.439873e+00 -3.678403e+00 -3.907213e+00 -4.109358e+00 -4.308304e+00 -4.473392e+00 -4.635314e+00 -4.764502e+00 -4.890413e+00 -4.986412e+00 -5.081387e+00 -5.148128e+00 -5.217800e+00 -5.259573e+00 -5.308411e+00 -5.329098e+00 -5.359980e+00 -5.362527e+00 
-5.509585e+00 -5.496321e+00 -5.494434e+00 -5.466508e+00 -5.446861e+00 -5.402796e+00 -5.361702e+00 -5.297858e+00 -5.230455e+00 -5.140637e+00 -5.041587e+00 -4.917108e+00 -4.781857e+00 -4.613439e+00 -4.440017e+00 -4.221981e+00 -4.012651e+00 -3.747738e+00 -3.506862e+00 -3.209622e+00 -2.943131e+00 -2.699749e+00 -2.402412e+00 -2.093578e+00 -1.743975e+00 -1.447396e+00 -1.213446e+00 -1.099845e+00 -9.881650e-01 -9.648439e-01 -9.041375e-01 -9.185777e-01 -8.835276e-01 -9.140044e-01 -9.119969e-01 -9.553011e-01 -9.955735e-01 -1.087088e+00 -1.228173e+00 -1.446741e+00 -1.739262e+00 -2.081909e+00 -2.401373e+00 -2.700809e+00 -2.935043e+00 -3.211750e+00 -3.497865e+00 -3.748415e+00 -4.005715e+00 -4.220417e+00 -4.435215e+00 -4.610097e+00 -4.778281e+00 -4.913068e+00 -5.038858e+00 -5.136775e+00 -5.228447e+00 -5.294664e+00 -5.360320e+00 -5.400477e+00 -5.446008e+00 -5.465118e+00 -5.494030e+00 -5.495860e+00 
-5.636605e+00 -5.621343e+00 -5.622556e+00 -5.593957e+00 -5.578388e+00 -5.534797e+00 -5.498242e+00 -5.435568e+00 -5.372278e+00 -5.283269e+00 -5.186710e+00 -5.060457e+00 -4.924928e+00 -4.748551e+00 -4.570924e+00 -4.334924e+00 -4.113062e+00 -3.822786e+00 -3.549312e+00 -3.248455e+00 -2.911903e+00 -2.530741e+00 -2.135220e+00 -1.926716e+00 -1.816537e+00 -1.645720e+00 -1.385827e+00 -1.180447e+00 -8.744718e-01 -5.936760e-01 -2.960875e-01 -1.684637e-01 -7.955332e-02 -1.611332e-01 -3.038271e-01 -5.620651e-01 -8.579826e-01 -1.152301e+00 -1.425993e+00 -1.667091e+00 -1.812392e+00 -1.915755e+00 -2.129203e+00 -2.524732e+00 -2.898783e+00 -3.251669e+00 -3.537111e+00 -3.823134e+00 -4.104859e+00 -4.332578e+00 -4.565647e+00 -4.745057e+00 -4.921983e+00 -5.056955e+00 -5.185198e+00 -5.280193e+00 -5.371525e+00 -5.433089e+00 -5.497866e+00 -5.532999e+00 -5.578204e+00 -5.592874e+00 -5.622479e+00 -5.620983e+00 
-5.783952e+00 -5.769120e+00 -5.772420e+00 -5.747065e+00 -5.735280e+00 -5.697920e+00 -5.665743e+00 -5.612014e+00 -5.551945e+00 -5.473194e+00 -5.376360e+00 -5.258337e+00 -5.116873e+00 -4.941857e+00 -4.751893e+00 -4.504161e+00 -4.269562e+00 -3.943204e+00 -3.666004e+00 -3.215242e+00 -2.907916e+00 -2.765787e+00 -2.434640e+00 -1.933537e+00 -9.647881e-01 2.907374e-01 1.778938e+00 3.034625e+00 4.182321e+00 5.145083e+00 5.914425e+00 6.361650e+00 6.482845e+00 6.371468e+00 5.932696e+00 5.184736e+00 4.184155e+00 3.036240e+00 1.726200e+00 3.365189e-01 -9.040095e-01 -1.887631e+00 -2.445013e+00 -2.780703e+00 -2.890389e+00 -3.222759e+00 -3.650202e+00 -3.946036e+00 -4.260438e+00 -4.502094e+00 -4.747212e+00 -4.936454e+00 -5.113308e+00 -5.252206e+00 -5.373534e+00 -5.467777e+00 -5.549920e+00 -5.607834e+00 -5.664430e+00 -5.695043e+00 -5.734518e+00 -5.745403e+00 -5.772073e+00 -5.768578e+00 
-5.924701e+00 -5.907671e+00 -5.915142e+00 -5.889805e+00 -5.884135e+00 -5.848961e+00 -5.824328e+00 -5.774884e+00 -5.722687e+00 -5.649823e+00 -5.559749e+00 -5.447260e+00 -5.311468e+00 -5.136155e+00 -4.953508e+00 -4.684332e+00 -4.451832e+00 -4.061242e+00 -3.750982e+00 -3.462770e+00 -2.971639e+00 -1.756480e+00 7.696708e-01 3.379842e+00 6.004962e+00 7.950790e+00 9.393468e+00 1.038170e+01 1.088493e+01 1.117518e+01 1.130017e+01 1.142643e+01 1.138095e+01 1.142596e+01 1.131465e+01 1.116882e+01 1.085532e+01 1.035525e+01 9.426603e+00 8.091856e+00 6.052541e+00 3.422471e+00 7.664640e-01 -1.713815e+00 -2.943356e+00 -3.480849e+00 -3.730801e+00 -4.062649e+00 -4.442416e+00 -4.679930e+00 -4.948065e+00 -5.130422e+00 -5.309482e+00 -5.442353e+00 -5.559276e+00 -5.645841e+00 -5.722707e+00 -5.771797e+00 -5.824448e+00 -5.846783e+00 -5.884237e+00 -5.888521e+00 -5.915195e+00 -5.907248e+00 
-6.081811e+00 -6.064604e+00 -6.076120e+00 -6.054886e+00 -6.056382e+00 -6.030289e+00 -6.014779e+00 -5.980155e+00 -5.936757e+00 -5.884226e+00 -5.799320e+00 -5.709573e+00 -5.572584e+00 -5.416955e+00 -5.217133e+00 -4.950212e+00 -4.683528e+00 -4.323138e+00 -3.860969e+00 -1.927042e+00 1.904314e+00 5.474815e+00 8.655724e+00 1.072052e+01 1.169584e+01 1.194274e+01 1.184864e+01 1.177336e+01 1.159331e+01 1.147521e+01 1.134999e+01 1.134430e+01 1.128696e+01 1.134141e+01 1.134874e+01 1.146387e+01 1.158126e+01 1.176675e+01 1.189038e+01 1.199164e+01 1.165443e+01 1.072869e+01 8.677986e+00 5.558850e+00 1.970252e+00 -1.884989e+00 -3.826949e+00 -4.328165e+00 -4.674269e+00 -4.946011e+00 -5.215854e+00 -5.406642e+00 -5.569342e+00 -5.699785e+00 -5.796277e+00 -5.876671e+00 -5.934766e+00 -5.974892e+00 -6.013675e+00 -6.026929e+00 -6.055834e+00 -6.053039e+00 -6.075898e+00 -6.064018e+00 
-6.231971e+00 -6.212412e+00 -6.229334e+00 -6.208885e+00 -6.219091e+00 -6.197029e+00 -6.193236e+00 -6.166649e+00 -6.136633e+00 -6.097865e+00 -6.025763e+00 -5.958142e+00 -5.835027e+00 -5.706196e+00 -5.527422e+00 -5.238781e+00 -4.959549e+00 -3.371259e+00 7.814276e-01 5.722735e+00 1.006456e+01 1.206931e+01 1.246350e+01 1.240751e+01 1.209075e+01 1.185079e+01 1.168538e+01 1.163972e+01 1.160545e+01 1.164178e+01 1.164119e+01 1.169625e+01 1.166404e+01 1.169562e+01 1.164264e+01 1.163936e+01 1.159949e+01 1.164183e+01 1.168910e+01 1.185490e+01 1.206555e+01 1.242655e+01 1.245932e+01 1.209368e+01 1.012365e+01 5.808148e+00 8.812353e-01 -3.333086e+00 -4.950867e+00 -5.227669e+00 -5.522424e+00 -5.695811e+00 -5.835965e+00 -5.951584e+00 -6.027283e+00 -6.092911e+00 -6.137756e+00 -6.162895e+00 -6.193942e+00 -6.194468e+00 -6.219496e+00 -6.207426e+00 -6.229518e+00 -6.211941e+00 
-6.391414e+00 -6.370551e+00 -6.394064e+00 -6.377893e+00 -6.399834e+00 -6.388987e+00 -6.401394e+00 -6.395888e+00 -6.383962e+00 -6.380031e+00 -6.324072e+00 -6.304981e+00 -6.199778e+00 -6.120170e+00 -5.893766e+00 -5.380417e+00 -2.468758e+00 3.532781e+00 9.545430e+00 1.241177e+01 1.303410e+01 1.281075e+01 1.244333e+01 1.229316e+01 1.223422e+01 1.220376e+01 1.211207e+01 1.205868e+01 1.194370e+01 1.189182e+01 1.180173e+01 1.179913e+01 1.175309e+01 1.179812e+01 1.180090e+01 1.188976e+01 1.194239e+01 1.206181e+01 1.211852e+01 1.221790e+01 1.221989e+01 1.229923e+01 1.242833e+01 1.281786e+01 1.304094e+01 1.243442e+01 9.641819e+00 3.605335e+00 -2.396919e+00 -5.343637e+00 -5.905214e+00 -6.097691e+00 -6.194482e+00 -6.289547e+00 -6.319896e+00 -6.370185e+00 -6.382121e+00 -6.389892e+00 -6.400805e+00 -6.385516e+00 -6.399720e+00 -6.376111e+00 -6.394070e+00 -6.370004e+00 
-6.544499e+00 -6.521332e+00 -6.551360e+00 -6.536646e+00 -6.570205e+00 -6.564531e+00 -6.594236e+00 -6.599086e+00 -6.608963e+00 -6.626191e+00 -6.591457e+00 -6.621008e+00 -6.531284e+00 -6.533941e+00 -5.844431e+00 -2.014447e+00 5.731101e+00 1.169922e+01 1.351698e+01 1.337781e+01 1.305390e+01 1.290810e+01 1.276741e+01 1.264746e+01 1.245336e+01 1.231850e+01 1.217452e+01 1.211046e+01 1.203226e+01 1.202564e+01 1.198361e+01 1.200667e+01 1.197390e+01 1.200660e+01 1.198306e+01 1.202574e+01 1.202959e+01 1.211255e+01 1.217164e+01 1.232211e+01 1.244408e+01 1.265545e+01 1.276273e+01 1.291289e+01 1.305147e+01 1.337106e+01 1.353769e+01 1.172719e+01 5.879501e+00 -1.866907e+00 -5.816042e+00 -6.515016e+00 -6.539963e+00 -6.614664e+00 -6.595745e+00 -6.620434e+00 -6.611082e+00 -6.594592e+00 -6.595368e+00 -6.561653e+00 -6.570823e+00 -6.535120e+00 -6.551637e+00 -6.520861e+00 
-6.695897e+00 -6.669890e+00 -6.709111e+00 -6.697469e+00 -6.748007e+00 -6.752726e+00 -6.808236e+00 -6.836600e+00 -6.878015e+00 -6.946957e+00 -6.939943e+00 -7.062848e+00 -7.064536e+00 -6.710906e+00 -2.337730e+00 6.604042e+00 1.292991e+01 1.400906e+01 1.376629e+01 1.347983e+01 1.334354e+01 1.312707e+01 1.291631e+01 1.276443e+01 1.262789e+01 1.254228e+01 1.242816e+01 1.236841e+01 1.226713e+01 1.223154e+01 1.215587e+01 1.215709e+01 1.211674e+01 1.215703e+01 1.215534e+01 1.223199e+01 1.226632e+01 1.237132e+01 1.242750e+01 1.254802e+01 1.262143e+01 1.276837e+01 1.290928e+01 1.312882e+01 1.334101e+01 1.347532e+01 1.376069e+01 1.400342e+01 1.299895e+01 6.746229e+00 -2.249711e+00 -6.666411e+00 -7.038441e+00 -7.042458e+00 -6.933373e+00 -6.936483e+00 -6.877394e+00 -6.831148e+00 -6.808909e+00 -6.749963e+00 -6.748674e+00 -6.696200e+00 -6.709470e+00 -6.669526e+00 
-6.843190e+00 -6.815559e+00 -6.861565e+00 -6.852049e+00 -6.916515e+00 -6.926032e+00 -7.005491e+00 -7.041106e+00 -7.118359e+00 -7.203111e+00 -7.236500e+00 -7.429817e+00 -7.366822e+00 -3.903609e+00 5.773373e+00 1.331140e+01 1.447545e+01 1.410959e+01 1.396481e+01 1.369166e+01 1.347160e+01 1.328141e+01 1.309904e+01 1.295560e+01 1.278438e+01 1.266992e+01 1.253315e+01 1.246474e+01 1.237100e+01 1.234679e+01 1.228775e+01 1.229712e+01 1.226274e+01 1.229723e+01 1.228684e+01 1.234732e+01 1.236883e+01 1.246618e+01 1.252994e+01 1.267225e+01 1.277942e+01 1.295893e+01 1.309525e+01 1.328330e+01 1.346959e+01 1.369080e+01 1.396649e+01 1.411067e+01 1.448150e+01 1.335568e+01 5.962725e+00 -3.731185e+00 -7.364935e+00 -7.433926e+00 -7.239692e+00 -7.195040e+00 -7.119950e+00 -7.035368e+00 -7.006533e+00 -6.923079e+00 -6.917172e+00 -6.850760e+00 -6.861879e+00 -6.815205e+00 
-6.973710e+00 -6.942098e+00 -6.998542e+00 -6.989406e+00 -7.075003e+00 -7.088012e+00 -7.205561e+00 -7.251008e+00 -7.381676e+00 -7.522799e+00 -7.531036e+00 -8.137641e+00 -6.361530e+00 2.911523e+00 1.292266e+01 1.497051e+01 1.463408e+01 1.439514e+01 1.410215e+01 1.386337e+01 1.364379e+01 1.344660e+01 1.324672e+01 1.309829e+01 1.293920e+01 1.283824e+01 1.271022e+01 1.264477e+01 1.254325e+01 1.251028e+01 1.243841e+01 1.244069e+01 1.240242e+01 1.244089e+01 1.243790e+01 1.251113e+01 1.254223e+01 1.264674e+01 1.270844e+01 1.284108e+01 1.293543e+01 1.310036e+01 1.324238e+01 1.344695e+01 1.364017e+01 1.386080e+01 1.409772e+01 1.439003e+01 1.463067e+01 1.497397e+01 1.305778e+01 3.076943e+00 -6.336838e+00 -8.128880e+00 -7.537477e+00 -7.517636e+00 -7.387080e+00 -7.248372e+00 -7.208759e+00 -7.087116e+00 -7.076750e+00 -6.989243e+00 -6.999311e+00 -6.942100e+00 
-7.104855e+00 -7.073636e+00 -7.135106e+00 -7.129728e+00 -7.228581e+00 -7.245780e+00 -7.391499e+00 -7.433823e+00 -7.619763e+00 -7.736107e+00 -7.836365e+00 -8.330184e+00 -1.761077e+00 1.006715e+01 1.535250e+01 1.496766e+01 1.480588e+01 1.445475e+01 1.424385e+01 1.398463e+01 1.376377e+01 1.356887e+01 1.337203e+01 1.322352e+01 1.305261e+01 1.294186e+01 1.280409e+01 1.273334e+01 1.263229e+01 1.260076e+01 1.253423e+01 1.253794e+01 1.250245e+01 1.253806e+01 1.253331e+01 1.260116e+01 1.263037e+01 1.273413e+01 1.280125e+01 1.294295e+01 1.304896e+01 1.322461e+01 1.336843e+01 1.356919e+01 1.376053e+01 1.398436e+01 1.424089e+01 1.445709e+01 1.480208e+01 1.498045e+01 1.536255e+01 1.020305e+01 -1.542024e+00 -8.228473e+00 -7.831375e+00 -7.710776e+00 -7.619916e+00 -7.426377e+00 -7.392361e+00 -7.243886e+00 -7.229250e+00 -7.129418e+00 -7.135437e+00 -7.073632e+00 
-7.201084e+00 -7.166939e+00 -7.236147e+00 -7.229628e+00 -7.347358e+00 -7.357217e+00 -7.554268e+00 -7.548784e+00 -7.904729e+00 -7.779920e+00 -8.555123e+00 -7.148248e+00 4.942285e+00 1.501191e+01 1.576735e+01 1.522316e+01 1.494681e+01 1.464698e+01 1.435720e+01 1.412847e+01 1.388118e+01 1.369670e+01 1.348666e+01 1.334304e+01 1.317129e+01 1.306716e+01 1.293003e+01 1.286205e+01 1.275724e+01 1.272415e+01 1.265213e+01 1.265451e+01 1.261661e+01 1.265474e+01 1.265164e+01 1.272489e+01 1.275623e+01 1.286336e+01 1.292838e+01 1.306875e+01 1.316880e+01 1.334422e+01 1.348377e+01 1.369690e+01 1.387802e+01 1.412744e+01 1.435227e+01 1.464538e+01 1.493517e+01 1.522231e+01 1.572698e+01 1.504589e+01 5.168538e+00 -7.001739e+00 -8.589484e+00 -7.771871e+00 -7.916106e+00 -7.549024e+00 -7.559223e+00 -7.359182e+00 -7.349713e+00 -7.231157e+00 -7.237124e+00 -7.167482e+00 
-7.305705e+00 -7.275600e+00 -7.345165e+00 -7.346917e+00 -7.470287e+00 -7.490653e+00 -7.707633e+00 -7.695691e+00 -8.135671e+00 -7.881789e+00 -9.051649e+00 -4.475261e+00 9.825153e+00 1.630772e+01 1.555814e+01 1.541828e+01 1.498401e+01 1.475485e+01 1.444190e+01 1.422467e+01 1.396838e+01 1.378582e+01 1.357147e+01 1.342591e+01 1.324784e+01 1.313865e+01 1.299660e+01 1.292475e+01 1.281907e+01 1.278456e+01 1.271426e+01 1.271578e+01 1.267949e+01 1.271584e+01 1.271339e+01 1.278473e+01 1.281732e+01 1.292499e+01 1.299405e+01 1.313878e+01 1.324463e+01 1.342556e+01 1.356779e+01 1.378444e+01 1.396402e+01 1.422193e+01 1.443557e+01 1.475079e+01 1.497144e+01 1.541225e+01 1.552512e+01 1.630882e+01 1.011539e+01 -4.211776e+00 -9.084374e+00 -7.889692e+00 -8.142413e+00 -7.700035e+00 -7.709615e+00 -7.493873e+00 -7.471113e+00 -7.348880e+00 -7.345509e+00 -7.276254e+00 
-7.357584e+00 -7.328774e+00 -7.397519e+00 -7.404676e+00 -7.522979e+00 -7.559588e+00 -7.753473e+00 -7.787498e+00 -8.141773e+00 -8.031582e+00 -8.879637e+00 -4.678678e-01 1.388115e+01 1.646218e+01 1.554644e+01 1.551623e+01 1.503336e+01 1.484845e+01 1.450400e+01 1.431091e+01 1.403828e+01 1.386833e+01 1.364537e+01 1.350716e+01 1.332607e+01 1.322238e+01 1.307895e+01 1.301032e+01 1.290235e+01 1.286902e+01 1.279591e+01 1.279831e+01 1.276018e+01 1.279851e+01 1.279547e+01 1.286962e+01 1.290146e+01 1.301125e+01 1.307764e+01 1.322343e+01 1.332444e+01 1.350797e+01 1.364377e+01 1.386866e+01 1.403711e+01 1.431089e+01 1.450373e+01 1.484948e+01 1.503588e+01 1.552408e+01 1.556166e+01 1.650290e+01 1.411659e+01 -2.066150e-01 -8.906698e+00 -8.058224e+00 -8.150782e+00 -7.800403e+00 -7.757060e+00 -7.566786e+00 -7.524724e+00 -7.408462e+00 -7.398290e+00 -7.329961e+00 
-7.427913e+00 -7.406248e+00 -7.469847e+00 -7.491902e+00 -7.598732e+00 -7.672045e+00 -7.823326e+00 -7.962451e+00 -8.155590e+00 -8.394499e+00 -8.617667e+00 2.573121e+00 1.609489e+01 1.650911e+01 1.577478e+01 1.561912e+01 1.513837e+01 1.493141e+01 1.457678e+01 1.437668e+01 1.409639e+01 1.392197e+01 1.369419e+01 1.355166e+01 1.336661e+01 1.325845e+01 1.311238e+01 1.304018e+01 1.293158e+01 1.289598e+01 1.282373e+01 1.282451e+01 1.278771e+01 1.282453e+01 1.282290e+01 1.289599e+01 1.292995e+01 1.304006e+01 1.311001e+01 1.325797e+01 1.336361e+01 1.355039e+01 1.369064e+01 1.391925e+01 1.409221e+01 1.437154e+01 1.457174e+01 1.492216e+01 1.513262e+01 1.560201e+01 1.577167e+01 1.647495e+01 1.614032e+01 2.828221e+00 -8.579560e+00 -8.425560e+00 -8.152192e+00 -7.978651e+00 -7.823083e+00 -7.680639e+00 -7.598977e+00 -7.496177e+00 -7.470037e+00 -7.407550e+00 
-7.434700e+00 -7.414800e+00 -7.474335e+00 -7.501677e+00 -7.593195e+00 -7.687941e+00 -7.784279e+00 -8.003759e+00 -8.005458e+00 -8.536144e+00 -7.991666e+00 4.727721e+00 1.674482e+01 1.616114e+01 1.582293e+01 1.553479e+01 1.514863e+01 1.492761e+01 1.459182e+01 1.439936e+01 1.412063e+01 1.395484e+01 1.372564e+01 1.358980e+01 1.340383e+01 1.330076e+01 1.315402e+01 1.308535e+01 1.297556e+01 1.294219e+01 1.286831e+01 1.287076e+01 1.283239e+01 1.287094e+01 1.286790e+01 1.294271e+01 1.297478e+01 1.308612e+01 1.315295e+01 1.330160e+01 1.340270e+01 1.359045e+01 1.372486e+01 1.395506e+01 1.412091e+01 1.439888e+01 1.459440e+01 1.492579e+01 1.515626e+01 1.552877e+01 1.584081e+01 1.613718e+01 1.678118e+01 5.049401e+00 -7.906769e+00 -8.567015e+00 -7.996902e+00 -8.021851e+00 -7.782699e+00 -7.698101e+00 -7.593371e+00 -7.506869e+00 -7.474660e+00 -7.416399e+00 
-7.467974e+00 -7.451851e+00 -7.509303e+00 -7.544108e+00 -7.632205e+00 -7.743375e+00 -7.824679e+00 -8.087011e+00 -8.023007e+00 -8.682120e+00 -7.793606e+00 5.656393e+00 1.721188e+01 1.627397e+01 1.600027e+01 1.562290e+01 1.522692e+01 1.497830e+01 1.463141e+01 1.442633e+01 1.414179e+01 1.396803e+01 1.373606e+01 1.359424e+01 1.340659e+01 1.329872e+01 1.315110e+01 1.307883e+01 1.296921e+01 1.293335e+01 1.286048e+01 1.286110e+01 1.282410e+01 1.286109e+01 1.285967e+01 1.293329e+01 1.296761e+01 1.307858e+01 1.314879e+01 1.329803e+01 1.340366e+01 1.359265e+01 1.373262e+01 1.396480e+01 1.413792e+01 1.442030e+01 1.462748e+01 1.496749e+01 1.522490e+01 1.560404e+01 1.600753e+01 1.624333e+01 1.724876e+01 5.966912e+00 -7.728018e+00 -8.719742e+00 -8.023021e+00 -8.107151e+00 -7.824534e+00 -7.754016e+00 -7.632329e+00 -7.549307e+00 -7.509436e+00 -7.453415e+00 