# vtk DataFile Version 2.0
Comment goes here
ASCII

DATASET STRUCTURED_POINTS
FIELD FieldData 1
TIME 1 1 double
0.29000000
DIMENSIONS    64   64   1

ORIGIN    0.000   0.000   0.000
SPACING   0.015625 0.015625   1.000

POINT_DATA   4096
SCALARS P double
LOOKUP_TABLE default

-4.627797e+00 -4.637348e+00 -4.649763e+00 -4.681502e+00 -4.716111e+00 -4.770680e+00 -4.828173e+00 -4.906585e+00 -4.987998e+00 -5.091495e+00 -5.198049e+00 -5.327863e+00 -5.460689e+00 -5.617648e+00 -5.777375e+00 -5.961299e+00 -6.147438e+00 -6.356274e+00 -6.566398e+00 -6.795094e+00 -7.023829e+00 -7.263139e+00 -7.501175e+00 -7.736954e+00 -7.970546e+00 -8.184615e+00 -8.396328e+00 -8.569857e+00 -8.740831e+00 -8.858102e+00 -8.970030e+00 -9.014960e+00 -9.050841e+00 -9.015047e+00 -8.969408e+00 -8.858352e+00 -8.739722e+00 -8.570240e+00 -8.395043e+00 -8.185062e+00 -7.969473e+00 -7.737398e+00 -7.500502e+00 -7.263514e+00 -7.023530e+00 -6.795356e+00 -6.566347e+00 -6.356406e+00 -6.147507e+00 -5.961309e+00 -5.777472e+00 -5.617564e+00 -5.460768e+00 -5.327718e+00 -5.198094e+00 -5.091325e+00 -4.988013e+00 -4.906420e+00 -4.828169e+00 -4.770545e+00 -4.716100e+00 -4.681414e+00 -4.649755e+00 -4.637317e+00 
-4.622051e+00 -4.630799e+00 -4.643932e+00 -4.674839e+00 -4.710201e+00 -4.763901e+00 -4.822233e+00 -4.899750e+00 -4.982157e+00 -5.084768e+00 -5.192555e+00 -5.321563e+00 -5.455951e+00 -5.612314e+00 -5.773991e+00 -5.957735e+00 -6.146183e+00 -6.355531e+00 -6.568074e+00 -6.798229e+00 -7.028846e+00 -7.270494e+00 -7.508607e+00 -7.746536e+00 -7.976348e+00 -8.189267e+00 -8.390678e+00 -8.554224e+00 -8.706617e+00 -8.801946e+00 -8.892180e+00 -8.920940e+00 -8.951571e+00 -8.921125e+00 -8.891746e+00 -8.802453e+00 -8.705724e+00 -8.554941e+00 -8.389643e+00 -8.190060e+00 -7.975545e+00 -7.747310e+00 -7.508219e+00 -7.271220e+00 -7.028869e+00 -6.798907e+00 -6.568417e+00 -6.356167e+00 -6.146731e+00 -5.958328e+00 -5.774641e+00 -5.612856e+00 -5.456618e+00 -5.322044e+00 -5.193178e+00 -5.085178e+00 -4.982693e+00 -4.900078e+00 -4.822653e+00 -4.764141e+00 -4.710489e+00 -4.674985e+00 -4.644079e+00 -4.630847e+00 
-4.605854e+00 -4.615305e+00 -4.627592e+00 -4.659011e+00 -4.693277e+00 -4.747342e+00 -4.804321e+00 -4.882116e+00 -4.962925e+00 -5.065815e+00 -5.171812e+00 -5.301227e+00 -5.433758e+00 -5.590831e+00 -5.750832e+00 -5.935821e+00 -6.123220e+00 -6.334632e+00 -6.547490e+00 -6.780848e+00 -7.014252e+00 -7.260616e+00 -7.505460e+00 -7.750237e+00 -7.992456e+00 -8.215930e+00 -8.437222e+00 -8.619005e+00 -8.799769e+00 -8.925930e+00 -9.047215e+00 -9.096999e+00 -9.135857e+00 -9.097094e+00 -9.046533e+00 -8.926206e+00 -8.798513e+00 -8.619426e+00 -8.435747e+00 -8.216413e+00 -7.991286e+00 -7.750710e+00 -7.504795e+00 -7.261007e+00 -7.014010e+00 -6.781112e+00 -6.547499e+00 -6.334754e+00 -6.123330e+00 -5.935815e+00 -5.750950e+00 -5.590727e+00 -5.433843e+00 -5.301063e+00 -5.171855e+00 -5.065628e+00 -4.962934e+00 -4.881938e+00 -4.804310e+00 -4.747198e+00 -4.693261e+00 -4.658918e+00 -4.627581e+00 -4.615272e+00 
-4.578177e+00 -4.586746e+00 -4.599585e+00 -4.629860e+00 -4.664482e+00 -4.717165e+00 -4.774398e+00 -4.850647e+00 -4.931763e+00 -5.033086e+00 -5.139674e+00 -5.267753e+00 -5.401489e+00 -5.557875e+00 -5.720135e+00 -5.905738e+00 -6.096955e+00 -6.311209e+00 -6.529880e+00 -6.769445e+00 -7.010693e+00 -7.267550e+00 -7.521370e+00 -7.780447e+00 -8.030203e+00 -8.267468e+00 -8.489770e+00 -8.672934e+00 -8.839796e+00 -8.935310e+00 -9.024906e+00 -9.047820e+00 -9.079445e+00 -9.048065e+00 -9.024515e+00 -8.935949e+00 -8.838600e+00 -8.673790e+00 -8.488364e+00 -8.268354e+00 -8.029211e+00 -7.781242e+00 -7.520971e+00 -7.268263e+00 -7.010796e+00 -6.770108e+00 -6.530327e+00 -6.311837e+00 -6.097600e+00 -5.906330e+00 -5.720863e+00 -5.558423e+00 -5.402215e+00 -5.268243e+00 -5.140338e+00 -5.033504e+00 -4.932326e+00 -4.850982e+00 -4.774835e+00 -4.717410e+00 -4.664779e+00 -4.630008e+00 -4.599735e+00 -4.586796e+00 
-4.540482e+00 -4.549623e+00 -4.561511e+00 -4.591935e+00 -4.625128e+00 -4.677612e+00 -4.732965e+00 -4.808787e+00 -4.887649e+00 -4.988519e+00 -5.092637e+00 -5.220551e+00 -5.351891e+00 -5.508876e+00 -5.669299e+00 -5.856941e+00 -6.047653e+00 -6.266252e+00 -6.486906e+00 -6.734012e+00 -6.981304e+00 -7.249400e+00 -7.515138e+00 -7.788647e+00 -8.057846e+00 -8.311383e+00 -8.562515e+00 -8.767635e+00 -8.978746e+00 -9.136599e+00 -9.292177e+00 -9.360518e+00 -9.409909e+00 -9.360644e+00 -9.291346e+00 -9.136957e+00 -8.977004e+00 -8.768182e+00 -8.560322e+00 -8.311971e+00 -8.056372e+00 -7.789208e+00 -7.514547e+00 -7.249838e+00 -6.981277e+00 -6.734278e+00 -6.487113e+00 -6.266343e+00 -6.047889e+00 -5.856882e+00 -5.669475e+00 -5.508711e+00 -5.351987e+00 -5.220328e+00 -5.092667e+00 -4.988282e+00 -4.887635e+00 -4.808571e+00 -4.732932e+00 -4.677441e+00 -4.625096e+00 -4.591827e+00 -4.561492e+00 -4.549586e+00 
-4.491372e+00 -4.499563e+00 -4.511785e+00 -4.540727e+00 -4.573785e+00 -4.624301e+00 -4.679171e+00 -4.752654e+00 -4.830903e+00 -4.929275e+00 -5.033012e+00 -5.158646e+00 -5.290404e+00 -5.445971e+00 -5.608468e+00 -5.796611e+00 -5.992248e+00 -6.214935e+00 -6.444818e+00 -6.702063e+00 -6.964190e+00 -7.251608e+00 -7.538010e+00 -7.842595e+00 -8.136038e+00 -8.430514e+00 -8.702583e+00 -8.940255e+00 -9.145405e+00 -9.228572e+00 -9.300772e+00 -9.301695e+00 -9.332413e+00 -9.302111e+00 -9.300868e+00 -9.229547e+00 -9.143321e+00 -8.941422e+00 -8.700165e+00 -8.431604e+00 -8.134659e+00 -7.843388e+00 -7.537677e+00 -7.252260e+00 -6.964515e+00 -6.702677e+00 -6.445502e+00 -6.215543e+00 -5.993097e+00 -5.797206e+00 -5.609355e+00 -5.446535e+00 -5.291245e+00 -5.159155e+00 -5.033753e+00 -4.929710e+00 -4.831516e+00 -4.753002e+00 -4.679638e+00 -4.624554e+00 -4.574098e+00 -4.540880e+00 -4.511942e+00 -4.499615e+00 
-4.433101e+00 -4.441698e+00 -4.452874e+00 -4.481530e+00 -4.512801e+00 -4.562428e+00 -4.614815e+00 -4.686968e+00 -4.762149e+00 -4.859024e+00 -4.959329e+00 -5.083757e+00 -5.212106e+00 -5.367501e+00 -5.527251e+00 -5.717405e+00 -5.911978e+00 -6.140483e+00 -6.372560e+00 -6.641337e+00 -6.911165e+00 -7.217122e+00 -7.519290e+00 -7.847584e+00 -8.166014e+00 -8.479062e+00 -8.783649e+00 -9.013336e+00 -9.273077e+00 -9.508269e+00 -9.751999e+00 -9.869225e+00 -9.942485e+00 -9.869429e+00 -9.751143e+00 -9.508807e+00 -9.270407e+00 -9.014110e+00 -8.779518e+00 -8.479806e+00 -8.164049e+00 -7.848319e+00 -7.519072e+00 -7.217634e+00 -6.911665e+00 -6.641592e+00 -6.373153e+00 -6.140500e+00 -5.912419e+00 -5.717238e+00 -5.527498e+00 -5.367220e+00 -5.212197e+00 -5.083428e+00 -4.959319e+00 -4.858701e+00 -4.762088e+00 -4.686687e+00 -4.614741e+00 -4.562214e+00 -4.512739e+00 -4.481396e+00 -4.452840e+00 -4.441653e+00 
-4.363609e+00 -4.371193e+00 -4.382426e+00 -4.409216e+00 -4.439738e+00 -4.486700e+00 -4.537651e+00 -4.606457e+00 -4.679750e+00 -4.772821e+00 -4.871209e+00 -4.991782e+00 -5.118919e+00 -5.271131e+00 -5.431609e+00 -5.620529e+00 -5.819755e+00 -6.051238e+00 -6.294802e+00 -6.574736e+00 -6.866409e+00 -7.198273e+00 -7.535312e+00 -7.913650e+00 -8.279915e+00 -8.679183e+00 -9.047227e+00 -9.438372e+00 -9.748649e+00 -9.748824e+00 -9.717600e+00 -9.652793e+00 -9.676484e+00 -9.653696e+00 -9.720534e+00 -9.750583e+00 -9.743756e+00 -9.439957e+00 -9.042362e+00 -8.680668e+00 -8.278120e+00 -7.914275e+00 -7.535412e+00 -7.198739e+00 -6.867237e+00 -6.575246e+00 -6.295900e+00 -6.051813e+00 -5.820922e+00 -5.621136e+00 -5.432729e+00 -5.271725e+00 -5.119922e+00 -4.992325e+00 -4.872057e+00 -4.773285e+00 -4.680427e+00 -4.606826e+00 -4.538153e+00 -4.486966e+00 -4.440070e+00 -4.409376e+00 -4.382591e+00 -4.371246e+00 
-4.286230e+00 -4.294009e+00 -4.304109e+00 -4.330086e+00 -4.358419e+00 -4.403645e+00 -4.451395e+00 -4.517698e+00 -4.586891e+00 -4.676969e+00 -4.770584e+00 -4.888178e+00 -5.010273e+00 -5.160421e+00 -5.316265e+00 -5.505615e+00 -5.701743e+00 -5.938753e+00 -6.182670e+00 -6.477052e+00 -6.775724e+00 -7.135237e+00 -7.490318e+00 -7.910431e+00 -8.306250e+00 -8.742416e+00 -9.125115e+00 -9.289296e+00 -9.576086e+00 -1.002026e+01 -1.051291e+01 -1.075331e+01 -1.087213e+01 -1.075375e+01 -1.051305e+01 -1.002106e+01 -9.571863e+00 -9.290499e+00 -9.115624e+00 -8.743233e+00 -8.304211e+00 -7.911546e+00 -7.491488e+00 -7.135829e+00 -6.777346e+00 -6.477243e+00 -6.183869e+00 -5.938618e+00 -5.702415e+00 -5.505256e+00 -5.316536e+00 -5.159950e+00 -5.010297e+00 -4.887687e+00 -4.770481e+00 -4.676520e+00 -4.586743e+00 -4.517327e+00 -4.451253e+00 -4.403372e+00 -4.358312e+00 -4.329919e+00 -4.304052e+00 -4.293954e+00 
-4.198064e+00 -4.204765e+00 -4.214596e+00 -4.238271e+00 -4.265121e+00 -4.306866e+00 -4.351995e+00 -4.413721e+00 -4.479333e+00 -4.563904e+00 -4.653343e+00 -4.764802e+00 -4.882844e+00 -5.026804e+00 -5.180101e+00 -5.364299e+00 -5.562005e+00 -5.797047e+00 -6.051296e+00 -6.351270e+00 -6.675777e+00 -7.057290e+00 -7.459226e+00 -7.931810e+00 -8.390661e+00 -8.912240e+00 -9.432382e+00 -1.037585e+01 -1.103968e+01 -1.046990e+01 -9.458252e+00 -8.431448e+00 -8.030885e+00 -8.432195e+00 -9.481336e+00 -1.047736e+01 -1.102146e+01 -1.037780e+01 -9.423631e+00 -8.914912e+00 -8.389637e+00 -7.931540e+00 -7.460905e+00 -7.057339e+00 -6.677532e+00 -6.351622e+00 -6.052987e+00 -5.797596e+00 -5.563590e+00 -5.364945e+00 -5.181515e+00 -5.027459e+00 -4.884042e+00 -4.765402e+00 -4.654309e+00 -4.564410e+00 -4.480076e+00 -4.414117e+00 -4.352530e+00 -4.307147e+00 -4.265466e+00 -4.238438e+00 -4.214764e+00 -4.204820e+00 
-4.103673e+00 -4.110315e+00 -4.118930e+00 -4.141180e+00 -4.165400e+00 -4.204408e+00 -4.245508e+00 -4.303283e+00 -4.363541e+00 -4.443129e+00 -4.526063e+00 -4.631886e+00 -4.742602e+00 -4.881069e+00 -5.026772e+00 -5.207292e+00 -5.398032e+00 -5.634528e+00 -5.883966e+00 -6.196455e+00 -6.521503e+00 -6.935967e+00 -7.353381e+00 -7.897345e+00 -8.414025e+00 -9.231536e+00 -9.557913e+00 -7.696407e+00 -3.773592e+00 1.730618e+00 6.149333e+00 8.664724e+00 9.707643e+00 8.658061e+00 6.090777e+00 1.735821e+00 -3.685816e+00 -7.679259e+00 -9.543649e+00 -9.231030e+00 -8.415314e+00 -7.899490e+00 -7.358641e+00 -6.936561e+00 -6.525087e+00 -6.196468e+00 -5.885839e+00 -5.634097e+00 -5.398783e+00 -5.206604e+00 -5.026899e+00 -4.880305e+00 -4.742431e+00 -4.631168e+00 -4.525784e+00 -4.442516e+00 -4.363256e+00 -4.302803e+00 -4.245269e+00 -4.204067e+00 -4.165233e+00 -4.140976e+00 -4.118844e+00 -4.110248e+00 
-3.999298e+00 -4.004786e+00 -4.012784e+00 -4.032256e+00 -4.054185e+00 -4.088813e+00 -4.125934e+00 -4.177747e+00 -4.232375e+00 -4.304461e+00 -4.380264e+00 -4.477133e+00 -4.579614e+00 -4.707855e+00 -4.845190e+00 -5.014550e+00 -5.199160e+00 -5.424117e+00 -5.675304e+00 -5.977431e+00 -6.324128e+00 -6.738925e+00 -7.215836e+00 -7.805941e+00 -8.298145e+00 -7.456714e+00 -2.453035e+00 5.525137e+00 1.165506e+01 1.588048e+01 1.795708e+01 1.839985e+01 1.874776e+01 1.839474e+01 1.792883e+01 1.589196e+01 1.172670e+01 5.519258e+00 -2.449725e+00 -7.455189e+00 -8.303567e+00 -7.800646e+00 -7.221282e+00 -6.738729e+00 -6.326891e+00 -5.977709e+00 -5.677586e+00 -5.424700e+00 -5.201202e+00 -5.015296e+00 -4.846926e+00 -4.708618e+00 -4.581010e+00 -4.477818e+00 -4.381336e+00 -4.305022e+00 -4.233163e+00 -4.178173e+00 -4.126482e+00 -4.089107e+00 -4.054530e+00 -4.032428e+00 -4.012950e+00 -4.004842e+00 
-3.890692e+00 -3.895832e+00 -3.902549e+00 -3.919927e+00 -3.938771e+00 -3.969569e+00 -4.001763e+00 -4.048002e+00 -4.095857e+00 -4.160611e+00 -4.227870e+00 -4.315684e+00 -4.408039e+00 -4.525741e+00 -4.651652e+00 -4.809875e+00 -4.981885e+00 -5.197705e+00 -5.434596e+00 -5.736645e+00 -6.067492e+00 -6.506768e+00 -6.980069e+00 -7.421179e+00 -5.531074e+00 1.601418e+00 1.028104e+01 1.581283e+01 1.735842e+01 1.739829e+01 1.726267e+01 1.697303e+01 1.706863e+01 1.697058e+01 1.726103e+01 1.739282e+01 1.736786e+01 1.578778e+01 1.031241e+01 1.644521e+00 -5.512701e+00 -7.419379e+00 -6.994751e+00 -6.507144e+00 -6.073232e+00 -5.736451e+00 -5.436526e+00 -5.196757e+00 -4.982184e+00 -4.808647e+00 -4.651295e+00 -4.524551e+00 -4.407478e+00 -4.314669e+00 -4.227310e+00 -4.159808e+00 -4.095382e+00 -4.047404e+00 -4.001402e+00 -3.969159e+00 -3.938532e+00 -3.919689e+00 -3.902430e+00 -3.895754e+00 
-3.773398e+00 -3.777285e+00 -3.783066e+00 -3.797174e+00 -3.812934e+00 -3.838434e+00 -3.865264e+00 -3.904129e+00 -3.944179e+00 -3.999387e+00 -4.056214e+00 -4.132145e+00 -4.211200e+00 -4.314374e+00 -4.423733e+00 -4.564001e+00 -4.715962e+00 -4.908103e+00 -5.125319e+00 -5.393245e+00 -5.730069e+00 -6.126110e+00 -6.610666e+00 -4.606564e+00 3.337501e+00 1.227264e+01 1.593806e+01 1.645488e+01 1.630964e+01 1.648555e+01 1.680940e+01 1.693127e+01 1.709398e+01 1.692905e+01 1.680463e+01 1.647974e+01 1.631376e+01 1.645117e+01 1.596733e+01 1.232739e+01 3.394931e+00 -4.592759e+00 -6.614517e+00 -6.131237e+00 -5.731944e+00 -5.393794e+00 -5.127938e+00 -4.908859e+00 -4.718499e+00 -4.564965e+00 -4.425799e+00 -4.315320e+00 -4.212763e+00 -4.132949e+00 -4.057345e+00 -4.000010e+00 -3.944968e+00 -3.904578e+00 -3.865788e+00 -3.838731e+00 -3.813251e+00 -3.797341e+00 -3.783215e+00 -3.777339e+00 
-3.654118e+00 -3.657335e+00 -3.661811e+00 -3.673148e+00 -3.685409e+00 -3.706001e+00 -3.727023e+00 -3.758723e+00 -3.790540e+00 -3.836082e+00 -3.882200e+00 -3.945506e+00 -4.011434e+00 -4.098173e+00 -4.192012e+00 -4.310696e+00 -4.444330e+00 -4.609672e+00 -4.805425e+00 -5.052480e+00 -5.351384e+00 -5.774175e+00 -4.533704e+00 3.000950e+00 1.215795e+01 1.542844e+01 1.558250e+01 1.590720e+01 1.608599e+01 1.618900e+01 1.623481e+01 1.618036e+01 1.623932e+01 1.617939e+01 1.623423e+01 1.618642e+01 1.608507e+01 1.590205e+01 1.557353e+01 1.542859e+01 1.217352e+01 3.018719e+00 -4.506695e+00 -5.776527e+00 -5.355248e+00 -5.052842e+00 -4.805382e+00 -4.607792e+00 -4.443184e+00 -4.308590e+00 -4.190704e+00 -4.096411e+00 -4.010275e+00 -3.944158e+00 -3.881274e+00 -3.835093e+00 -3.789844e+00 -3.758025e+00 -3.726533e+00 -3.705540e+00 -3.685099e+00 -3.672885e+00 -3.661661e+00 -3.657250e+00 
-3.528013e+00 -3.529845e+00 -3.533157e+00 -3.540743e+00 -3.549266e+00 -3.563709e+00 -3.578166e+00 -3.601217e+00 -3.623303e+00 -3.657518e+00 -3.690277e+00 -3.739239e+00 -3.787295e+00 -3.855928e+00 -3.924870e+00 -4.020257e+00 -4.115319e+00 -4.250680e+00 -4.385264e+00 -4.581199e+00 -4.826385e+00 -4.557502e+00 1.325339e+00 1.083986e+01 1.477711e+01 1.504901e+01 1.531957e+01 1.546518e+01 1.556126e+01 1.568192e+01 1.583256e+01 1.588889e+01 1.596452e+01 1.588812e+01 1.583162e+01 1.568014e+01 1.556206e+01 1.546410e+01 1.531937e+01 1.504941e+01 1.476627e+01 1.085222e+01 1.391479e+00 -4.540338e+00 -4.824100e+00 -4.577551e+00 -4.389199e+00 -4.251693e+00 -4.118762e+00 -4.021673e+00 -3.927285e+00 -3.857158e+00 -3.788935e+00 -3.740185e+00 -3.691367e+00 -3.658189e+00 -3.624007e+00 -3.601663e+00 -3.578604e+00 -3.563985e+00 -3.549518e+00 -3.540890e+00 -3.533272e+00 -3.529891e+00 
-3.402311e+00 -3.403118e+00 -3.405180e+00 -3.409357e+00 -3.414093e+00 -3.422687e+00 -3.430602e+00 -3.445202e+00 -3.457740e+00 -3.480561e+00 -3.500564e+00 -3.534352e+00 -3.566289e+00 -3.613663e+00 -3.662762e+00 -3.725514e+00 -3.797887e+00 -3.882014e+00 -4.009187e+00 -4.112941e+00 -4.460359e+00 -8.806819e-01 8.271104e+00 1.392307e+01 1.450450e+01 1.473162e+01 1.485984e+01 1.505976e+01 1.518322e+01 1.528946e+01 1.536019e+01 1.537496e+01 1.540945e+01 1.537477e+01 1.535981e+01 1.528936e+01 1.518252e+01 1.506150e+01 1.485921e+01 1.474285e+01 1.451311e+01 1.395629e+01 8.380997e+00 -8.219957e-01 -4.453691e+00 -4.110358e+00 -4.004276e+00 -3.877255e+00 -3.794312e+00 -3.721935e+00 -3.660162e+00 -3.611249e+00 -3.564451e+00 -3.532733e+00 -3.499280e+00 -3.479464e+00 -3.456855e+00 -3.444463e+00 -3.430012e+00 -3.422212e+00 -3.413731e+00 -3.409091e+00 -3.405008e+00 -3.403032e+00 
-3.272234e+00 -3.271475e+00 -3.272305e+00 -3.272289e+00 -3.272899e+00 -3.274628e+00 -3.275178e+00 -3.280145e+00 -3.281650e+00 -3.291936e+00 -3.296769e+00 -3.314652e+00 -3.326470e+00 -3.352818e+00 -3.373957e+00 -3.408369e+00 -3.433337e+00 -3.499506e+00 -3.495251e+00 -3.733351e+00 -2.948333e+00 4.317083e+00 1.229301e+01 1.404684e+01 1.409993e+01 1.437575e+01 1.452697e+01 1.469422e+01 1.481111e+01 1.491912e+01 1.501680e+01 1.505958e+01 1.509853e+01 1.505945e+01 1.501671e+01 1.491901e+01 1.481132e+01 1.469502e+01 1.452625e+01 1.437870e+01 1.409553e+01 1.405514e+01 1.232592e+01 4.300301e+00 -2.970403e+00 -3.750182e+00 -3.506745e+00 -3.504971e+00 -3.438312e+00 -3.410932e+00 -3.376495e+00 -3.354429e+00 -3.327943e+00 -3.315715e+00 -3.297641e+00 -3.292600e+00 -3.282150e+00 -3.280533e+00 -3.275451e+00 -3.274838e+00 -3.273037e+00 -3.272390e+00 -3.272362e+00 -3.271504e+00 
-3.144958e+00 -3.142773e+00 -3.142541e+00 -3.138543e+00 -3.135317e+00 -3.130468e+00 -3.124089e+00 -3.119816e+00 -3.110893e+00 -3.109184e+00 -3.099613e+00 -3.102074e+00 -3.094592e+00 -3.098782e+00 -3.093237e+00 -3.090857e+00 -3.074774e+00 -3.091607e+00 -2.975060e+00 -3.258938e+00 4.663147e-01 9.037354e+00 1.335425e+01 1.353136e+01 1.381470e+01 1.400369e+01 1.417388e+01 1.433388e+01 1.445320e+01 1.455380e+01 1.462369e+01 1.465836e+01 1.467928e+01 1.465838e+01 1.462333e+01 1.455410e+01 1.445246e+01 1.433524e+01 1.417279e+01 1.400755e+01 1.381333e+01 1.353620e+01 1.334647e+01 9.063056e+00 5.629453e-01 -3.227907e+00 -2.968186e+00 -3.080142e+00 -3.068864e+00 -3.085631e+00 -3.089443e+00 -3.096031e+00 -3.092263e+00 -3.100460e+00 -3.098141e+00 -3.108156e+00 -3.109934e+00 -3.119141e+00 -3.123469e+00 -3.130038e+00 -3.134944e+00 -3.138304e+00 -3.142365e+00 -3.142696e+00 
-3.016296e+00 -3.012309e+00 -3.010992e+00 -3.002421e+00 -2.995064e+00 -2.982811e+00 -2.968843e+00 -2.954328e+00 -2.933847e+00 -2.919196e+00 -2.893595e+00 -2.879968e+00 -2.851704e+00 -2.831904e+00 -2.804754e+00 -2.751133e+00 -2.748272e+00 -2.619596e+00 -2.723976e+00 -2.159116e+00 4.405518e+00 1.175327e+01 1.317111e+01 1.322213e+01 1.352879e+01 1.370258e+01 1.388473e+01 1.403207e+01 1.415487e+01 1.425331e+01 1.433161e+01 1.437202e+01 1.439514e+01 1.437216e+01 1.433192e+01 1.425390e+01 1.415568e+01 1.403367e+01 1.388626e+01 1.370608e+01 1.353241e+01 1.322871e+01 1.318356e+01 1.180663e+01 4.454943e+00 -2.179424e+00 -2.733009e+00 -2.622031e+00 -2.751622e+00 -2.753463e+00 -2.806252e+00 -2.833531e+00 -2.852532e+00 -2.880983e+00 -2.894015e+00 -2.919735e+00 -2.934003e+00 -2.954565e+00 -2.968861e+00 -2.982892e+00 -2.995035e+00 -3.002437e+00 -3.010966e+00 -3.012310e+00 
-2.892687e+00 -2.886820e+00 -2.884808e+00 -2.871748e+00 -2.860876e+00 -2.841500e+00 -2.820819e+00 -2.796676e+00 -2.765733e+00 -2.739465e+00 -2.698680e+00 -2.671764e+00 -2.621346e+00 -2.583221e+00 -2.525634e+00 -2.430676e+00 -2.417578e+00 -2.136621e+00 -2.450584e+00 -1.865715e-02 7.882806e+00 1.253358e+01 1.269368e+01 1.300680e+01 1.320008e+01 1.341590e+01 1.357343e+01 1.372859e+01 1.384128e+01 1.393957e+01 1.400376e+01 1.404476e+01 1.405795e+01 1.404472e+01 1.400340e+01 1.393944e+01 1.384042e+01 1.372815e+01 1.357172e+01 1.341398e+01 1.319647e+01 1.299827e+01 1.268389e+01 1.249625e+01 7.848586e+00 -6.827594e-03 -2.426104e+00 -2.132038e+00 -2.408195e+00 -2.427494e+00 -2.521164e+00 -2.581337e+00 -2.619054e+00 -2.670678e+00 -2.697367e+00 -2.738764e+00 -2.764898e+00 -2.796193e+00 -2.820276e+00 -2.841179e+00 -2.860547e+00 -2.871565e+00 -2.884653e+00 -2.886760e+00 
-2.771116e+00 -2.763174e+00 -2.760469e+00 -2.742548e+00 -2.728029e+00 -2.700880e+00 -2.673154e+00 -2.638396e+00 -2.596260e+00 -2.557259e+00 -2.499402e+00 -2.459240e+00 -2.380450e+00 -2.331227e+00 -2.220429e+00 -2.125187e+00 -2.012773e+00 -1.765122e+00 -1.878251e+00 2.661174e+00 1.026769e+01 1.254075e+01 1.241262e+01 1.281258e+01 1.295443e+01 1.318026e+01 1.333142e+01 1.348296e+01 1.359628e+01 1.369214e+01 1.375898e+01 1.380016e+01 1.381474e+01 1.380037e+01 1.375947e+01 1.369288e+01 1.359748e+01 1.348453e+01 1.333384e+01 1.318313e+01 1.295941e+01 1.281724e+01 1.242308e+01 1.254849e+01 1.034324e+01 2.746668e+00 -1.870405e+00 -1.772414e+00 -2.011308e+00 -2.128132e+00 -2.220011e+00 -2.332788e+00 -2.380340e+00 -2.460037e+00 -2.499226e+00 -2.557518e+00 -2.595972e+00 -2.638363e+00 -2.672848e+00 -2.700751e+00 -2.727789e+00 -2.742436e+00 -2.760340e+00 -2.763131e+00 
-2.656531e+00 -2.646219e+00 -2.643385e+00 -2.620538e+00 -2.603290e+00 -2.568533e+00 -2.535155e+00 -2.490264e+00 -2.438928e+00 -2.388334e+00 -2.315858e+00 -2.265441e+00 -2.159649e+00 -2.109260e+00 -1.937934e+00 -1.882722e+00 -1.615782e+00 -1.582043e+00 -1.036637e+00 5.191263e+00 1.136711e+01 1.211687e+01 1.222577e+01 1.253468e+01 1.271604e+01 1.292343e+01 1.307909e+01 1.322634e+01 1.333563e+01 1.343054e+01 1.348980e+01 1.353275e+01 1.354119e+01 1.353266e+01 1.348953e+01 1.343016e+01 1.333499e+01 1.322531e+01 1.307786e+01 1.292088e+01 1.271411e+01 1.252920e+01 1.222428e+01 1.210949e+01 1.138857e+01 5.216555e+00 -1.035371e+00 -1.584953e+00 -1.613835e+00 -1.881571e+00 -1.935737e+00 -2.108590e+00 -2.158480e+00 -2.265203e+00 -2.315184e+00 -2.388148e+00 -2.438442e+00 -2.490066e+00 -2.534795e+00 -2.568365e+00 -2.603055e+00 -2.620430e+00 -2.643271e+00 -2.646183e+00 
-2.547663e+00 -2.535033e+00 -2.532109e+00 -2.504282e+00 -2.484415e+00 -2.441657e+00 -2.402828e+00 -2.346613e+00 -2.286404e+00 -2.221399e+00 -2.134884e+00 -2.068302e+00 -1.936718e+00 -1.873722e+00 -1.643969e+00 -1.607381e+00 -1.183258e+00 -1.322488e+00 3.388331e-01 7.431386e+00 1.174381e+01 1.178095e+01 1.212466e+01 1.231215e+01 1.254451e+01 1.272089e+01 1.288851e+01 1.302610e+01 1.313833e+01 1.322999e+01 1.329029e+01 1.333253e+01 1.334155e+01 1.333270e+01 1.329074e+01 1.323055e+01 1.313937e+01 1.302718e+01 1.289048e+01 1.272268e+01 1.254804e+01 1.231462e+01 1.213015e+01 1.178205e+01 1.174638e+01 7.460685e+00 3.708657e-01 -1.319575e+00 -1.180304e+00 -1.608357e+00 -1.642499e+00 -1.874486e+00 -1.935874e+00 -2.068523e+00 -2.134124e+00 -2.221156e+00 -2.285636e+00 -2.346172e+00 -2.402159e+00 -2.441238e+00 -2.483938e+00 -2.504000e+00 -2.531865e+00 -2.534935e+00 
-2.447200e+00 -2.431776e+00 -2.429397e+00 -2.396356e+00 -2.374942e+00 -2.324109e+00 -2.281563e+00 -2.213951e+00 -2.147754e+00 -2.067920e+00 -1.972796e+00 -1.888446e+00 -1.743466e+00 -1.662131e+00 -1.407280e+00 -1.364173e+00 -8.824047e-01 -1.061717e+00 1.748113e+00 8.924807e+00 1.167087e+01 1.151090e+01 1.197788e+01 1.209208e+01 1.236055e+01 1.251444e+01 1.268854e+01 1.282016e+01 1.292965e+01 1.302071e+01 1.307568e+01 1.312009e+01 1.312446e+01 1.312003e+01 1.307561e+01 1.302044e+01 1.292942e+01 1.281942e+01 1.268795e+01 1.251273e+01 1.235907e+01 1.208875e+01 1.197354e+01 1.150523e+01 1.165339e+01 8.944465e+00 1.809809e+00 -1.044955e+00 -8.788045e-01 -1.362714e+00 -1.407000e+00 -1.662960e+00 -1.743799e+00 -1.889268e+00 -1.973003e+00 -2.068325e+00 -2.147733e+00 -2.214061e+00 -2.281443e+00 -2.324100e+00 -2.374829e+00 -2.396326e+00 -2.429334e+00 -2.431764e+00 
-2.356078e+00 -2.338264e+00 -2.336438e+00 -2.298636e+00 -2.275944e+00 -2.217263e+00 -2.171606e+00 -2.091936e+00 -2.020916e+00 -1.923244e+00 -1.822239e+00 -1.711605e+00 -1.561366e+00 -1.439648e+00 -1.185786e+00 -1.074280e+00 -6.209827e-01 -6.438247e-01 3.198782e+00 9.846303e+00 1.146536e+01 1.136225e+01 1.183033e+01 1.194023e+01 1.221267e+01 1.236274e+01 1.253661e+01 1.266718e+01 1.277512e+01 1.286643e+01 1.291992e+01 1.296526e+01 1.296847e+01 1.296533e+01 1.292016e+01 1.286665e+01 1.277563e+01 1.266760e+01 1.253752e+01 1.236349e+01 1.221427e+01 1.194219e+01 1.183386e+01 1.137053e+01 1.147913e+01 9.929881e+00 3.256439e+00 -6.696843e-01 -6.208419e-01 -1.078018e+00 -1.184074e+00 -1.439676e+00 -1.559915e+00 -1.710887e+00 -1.820883e+00 -1.922256e+00 -2.019642e+00 -2.090961e+00 -2.170562e+00 -2.216495e+00 -2.275228e+00 -2.298162e+00 -2.336079e+00 -2.338105e+00 
-2.274088e+00 -2.253290e+00 -2.252553e+00 -2.209587e+00 -2.186516e+00 -2.119676e+00 -2.072352e+00 -1.980217e+00 -1.906772e+00 -1.790437e+00 -1.688169e+00 -1.549671e+00 -1.404757e+00 -1.239607e+00 -1.012747e+00 -8.238631e-01 -4.635426e-01 -3.023954e-01 4.542418e+00 1.046571e+01 1.124332e+01 1.129029e+01 1.167160e+01 1.181585e+01 1.206147e+01 1.222022e+01 1.238186e+01 1.251583e+01 1.261578e+01 1.270973e+01 1.275711e+01 1.280575e+01 1.280434e+01 1.280579e+01 1.275730e+01 1.270982e+01 1.261615e+01 1.251587e+01 1.238244e+01 1.222008e+01 1.206247e+01 1.181567e+01 1.167442e+01 1.129143e+01 1.125554e+01 1.046923e+01 4.508512e+00 -3.347211e-01 -4.701910e-01 -8.331739e-01 -1.015863e+00 -1.243439e+00 -1.406808e+00 -1.551651e+00 -1.689249e+00 -1.791345e+00 -1.907186e+00 -1.980566e+00 -2.072457e+00 -2.119792e+00 -2.186521e+00 -2.209623e+00 -2.252544e+00 -2.253299e+00 
-2.204598e+00 -2.181666e+00 -2.181865e+00 -2.134855e+00 -2.111609e+00 -2.037918e+00 -1.989555e+00 -1.886176e+00 -1.811475e+00 -1.676977e+00 -1.575590e+00 -1.407837e+00 -1.272836e+00 -1.058545e+00 -8.691560e-01 -5.865426e-01 -3.421035e-01 9.179319e-02 5.641913e+00 1.071027e+01 1.103519e+01 1.125471e+01 1.153043e+01 1.173387e+01 1.194098e+01 1.212153e+01 1.226729e+01 1.241039e+01 1.250283e+01 1.260134e+01 1.264460e+01 1.269622e+01 1.269186e+01 1.269617e+01 1.264456e+01 1.260117e+01 1.250268e+01 1.240994e+01 1.226681e+01 1.212041e+01 1.193962e+01 1.173088e+01 1.152655e+01 1.124515e+01 1.102210e+01 1.066770e+01 5.672694e+00 1.468121e-01 -3.282582e-01 -5.725941e-01 -8.638024e-01 -1.053633e+00 -1.270152e+00 -1.405269e+00 -1.573506e+00 -1.675022e+00 -1.809683e+00 -1.884621e+00 -1.988161e+00 -2.036808e+00 -2.110684e+00 -2.134201e+00 -2.181411e+00 -2.181452e+00 
-2.144323e+00 -2.118615e+00 -2.120035e+00 -2.068411e+00 -2.045409e+00 -1.964344e+00 -1.915559e+00 -1.800460e+00 -1.725421e+00 -1.572416e+00 -1.473260e+00 -1.276479e+00 -1.153006e+00 -8.917355e-01 -7.386453e-01 -3.706218e-01 -2.212989e-01 5.488070e-01 6.604495e+00 1.082865e+01 1.090046e+01 1.124561e+01 1.141711e+01 1.167156e+01 1.183333e+01 1.203392e+01 1.215872e+01 1.231027e+01 1.239179e+01 1.249485e+01 1.253158e+01 1.258702e+01 1.257824e+01 1.258719e+01 1.253202e+01 1.249538e+01 1.239272e+01 1.231118e+01 1.216021e+01 1.203519e+01 1.183540e+01 1.167292e+01 1.141944e+01 1.124541e+01 1.090014e+01 1.081713e+01 6.647654e+00 5.828347e-01 -2.241339e-01 -3.697182e-01 -7.424393e-01 -8.942064e-01 -1.155866e+00 -1.278419e+00 -1.474798e+00 -1.573423e+00 -1.726093e+00 -1.800906e+00 -1.915824e+00 -1.964539e+00 -2.045516e+00 -2.068500e+00 -2.120077e+00 -2.118642e+00 
-2.099092e+00 -2.071925e+00 -2.074178e+00 -2.019772e+00 -1.997025e+00 -1.911157e+00 -1.862418e+00 -1.739327e+00 -1.664939e+00 -1.499026e+00 -1.403324e+00 -1.186370e+00 -1.074079e+00 -7.817342e-01 -6.556230e-01 -2.397763e-01 -1.385748e-01 9.013300e-01 7.216077e+00 1.081767e+01 1.079592e+01 1.122249e+01 1.132707e+01 1.162789e+01 1.175428e+01 1.197804e+01 1.208552e+01 1.224843e+01 1.232144e+01 1.243037e+01 1.246246e+01 1.252146e+01 1.250928e+01 1.252133e+01 1.246220e+01 1.242994e+01 1.232080e+01 1.224752e+01 1.208421e+01 1.197628e+01 1.175170e+01 1.162477e+01 1.132234e+01 1.121819e+01 1.078884e+01 1.081958e+01 7.271876e+00 9.287588e-01 -1.360537e-01 -2.333826e-01 -6.522695e-01 -7.775533e-01 -1.071195e+00 -1.183226e+00 -1.400727e+00 -1.496475e+00 -1.662748e+00 -1.737369e+00 -1.860775e+00 -1.909811e+00 -1.995963e+00 -2.019001e+00 -2.073664e+00 -2.071675e+00 
-2.063135e+00 -2.033887e+00 -2.037009e+00 -1.979196e+00 -1.956656e+00 -1.865369e+00 -1.816455e+00 -1.684852e+00 -1.610510e+00 -1.431409e+00 -1.337465e+00 -1.100442e+00 -9.944971e-01 -6.721477e-01 -5.601010e-01 -1.025869e-01 -1.807067e-02 1.246951e+00 7.686597e+00 1.080933e+01 1.075167e+01 1.121059e+01 1.127206e+01 1.159649e+01 1.169564e+01 1.193164e+01 1.202414e+01 1.219291e+01 1.225773e+01 1.236992e+01 1.239730e+01 1.245901e+01 1.244388e+01 1.245930e+01 1.239794e+01 1.237083e+01 1.225911e+01 1.219465e+01 1.202644e+01 1.193458e+01 1.169921e+01 1.160151e+01 1.127755e+01 1.122018e+01 1.076122e+01 1.083301e+01 7.736305e+00 1.254402e+00 -2.377923e-02 -1.066144e-01 -5.643026e-01 -6.752119e-01 -9.973654e-01 -1.102364e+00 -1.339044e+00 -1.432408e+00 -1.611275e+00 -1.685342e+00 -1.816822e+00 -1.865624e+00 -1.956842e+00 -1.979332e+00 -2.037094e+00 -2.033931e+00 
-2.044338e+00 -2.014713e+00 -2.018172e+00 -1.959454e+00 -1.937086e+00 -1.844111e+00 -1.795499e+00 -1.661112e+00 -1.587844e+00 -1.404554e+00 -1.313745e+00 -1.070886e+00 -9.720715e-01 -6.421788e-01 -5.421975e-01 -7.771055e-02 -2.789186e-03 1.375080e+00 7.901555e+00 1.078837e+01 1.071162e+01 1.119710e+01 1.123332e+01 1.157939e+01 1.166196e+01 1.191111e+01 1.199468e+01 1.217071e+01 1.223101e+01 1.234709e+01 1.237196e+01 1.243587e+01 1.241868e+01 1.243571e+01 1.237160e+01 1.234654e+01 1.223014e+01 1.216961e+01 1.199303e+01 1.190917e+01 1.165902e+01 1.157623e+01 1.122846e+01 1.119243e+01 1.070466e+01 1.078188e+01 7.924760e+00 1.388389e+00 3.679984e-03 -7.433940e-02 -5.377050e-01 -6.385408e-01 -9.685222e-01 -1.067545e+00 -1.310730e+00 -1.401741e+00 -1.585420e+00 -1.658976e+00 -1.793737e+00 -1.842665e+00 -1.935967e+00 -1.958634e+00 -2.017636e+00 -2.014449e+00 
-2.035255e+00 -2.004696e+00 -2.008431e+00 -1.948298e+00 -1.925910e+00 -1.830790e+00 -1.781883e+00 -1.644224e+00 -1.570409e+00 -1.382086e+00 -1.290495e+00 -1.039807e+00 -9.397013e-01 -5.975233e-01 -4.939668e-01 -1.073352e-02 7.871029e-02 1.518634e+00 8.012257e+00 1.077716e+01 1.071240e+01 1.119298e+01 1.122670e+01 1.157186e+01 1.165032e+01 1.189887e+01 1.197938e+01 1.215486e+01 1.221318e+01 1.232905e+01 1.235276e+01 1.241699e+01 1.239935e+01 1.241732e+01 1.235348e+01 1.233012e+01 1.221472e+01 1.215692e+01 1.198201e+01 1.190247e+01 1.165453e+01 1.157809e+01 1.123357e+01 1.120406e+01 1.072464e+01 1.079591e+01 8.055318e+00 1.529567e+00 7.463788e-02 -1.571598e-02 -4.977273e-01 -6.007668e-01 -9.423908e-01 -1.041713e+00 -1.292025e+00 -1.383079e+00 -1.571192e+00 -1.644734e+00 -1.782288e+00 -1.831074e+00 -1.926131e+00 -1.948454e+00 -2.008534e+00 -2.004748e+00 