# vtk DataFile Version 2.0
Comment goes here
ASCII

DATASET STRUCTURED_POINTS
FIELD FieldData 1
TIME 1 1 double
1.10000000
DIMENSIONS    64   64   1

ORIGIN    0.000   0.000   0.000
SPACING   0.015625 0.015625   1.000

POINT_DATA   4096
SCALARS P double
LOOKUP_TABLE default

-4.172377e+00 -4.175359e+00 -4.172916e+00 -4.178827e+00 -4.176691e+00 -4.185501e+00 -4.183704e+00 -4.195319e+00 -4.193923e+00 -4.208155e+00 -4.207246e+00 -4.223767e+00 -4.223424e+00 -4.241700e+00 -4.241942e+00 -4.261147e+00 -4.261861e+00 -4.280812e+00 -4.281699e+00 -4.298878e+00 -4.299470e+00 -4.313202e+00 -4.313026e+00 -4.321878e+00 -4.320769e+00 -4.324059e+00 -4.322512e+00 -4.320728e+00 -4.320000e+00 -4.314782e+00 -4.316407e+00 -4.309841e+00 -4.314789e+00 -4.308455e+00 -4.316575e+00 -4.310922e+00 -4.320889e+00 -4.315169e+00 -4.324914e+00 -4.317717e+00 -4.325247e+00 -4.315454e+00 -4.319648e+00 -4.307120e+00 -4.307911e+00 -4.293363e+00 -4.291431e+00 -4.275972e+00 -4.272289e+00 -4.257010e+00 -4.252470e+00 -4.238246e+00 -4.233498e+00 -4.220950e+00 -4.216376e+00 -4.205922e+00 -4.201700e+00 -4.193624e+00 -4.189806e+00 -4.184311e+00 -4.180883e+00 -4.178120e+00 -4.175049e+00 -4.175125e+00 
-4.174451e+00 -4.177494e+00 -4.175797e+00 -4.181820e+00 -4.180494e+00 -4.189446e+00 -4.188543e+00 -4.200325e+00 -4.199942e+00 -4.214391e+00 -4.214665e+00 -4.231523e+00 -4.232612e+00 -4.251473e+00 -4.253506e+00 -4.273748e+00 -4.276765e+00 -4.297471e+00 -4.301371e+00 -4.321314e+00 -4.325840e+00 -4.343572e+00 -4.348382e+00 -4.362479e+00 -4.367251e+00 -4.376641e+00 -4.381186e+00 -4.385424e+00 -4.389797e+00 -4.389216e+00 -4.393830e+00 -4.389591e+00 -4.394880e+00 -4.388269e+00 -4.393995e+00 -4.385491e+00 -4.390533e+00 -4.379843e+00 -4.382940e+00 -4.369748e+00 -4.370228e+00 -4.354662e+00 -4.352463e+00 -4.335057e+00 -4.330665e+00 -4.312262e+00 -4.306497e+00 -4.288077e+00 -4.281795e+00 -4.264272e+00 -4.258148e+00 -4.242246e+00 -4.236686e+00 -4.222913e+00 -4.218078e+00 -4.206768e+00 -4.202660e+00 -4.194024e+00 -4.190565e+00 -4.184743e+00 -4.181831e+00 -4.178916e+00 -4.176461e+00 -4.176513e+00 
-4.170854e+00 -4.173828e+00 -4.171393e+00 -4.177335e+00 -4.175207e+00 -4.184099e+00 -4.182313e+00 -4.194077e+00 -4.192702e+00 -4.207170e+00 -4.206299e+00 -4.223166e+00 -4.222885e+00 -4.241631e+00 -4.241961e+00 -4.261758e+00 -4.262582e+00 -4.282213e+00 -4.283212e+00 -4.301083e+00 -4.301760e+00 -4.316088e+00 -4.315930e+00 -4.325161e+00 -4.323970e+00 -4.327342e+00 -4.325639e+00 -4.323649e+00 -4.322843e+00 -4.317291e+00 -4.319045e+00 -4.312137e+00 -4.317349e+00 -4.310708e+00 -4.319135e+00 -4.313296e+00 -4.323608e+00 -4.317878e+00 -4.327964e+00 -4.320790e+00 -4.328499e+00 -4.318560e+00 -4.322713e+00 -4.309865e+00 -4.310425e+00 -4.295469e+00 -4.293199e+00 -4.277317e+00 -4.273273e+00 -4.257603e+00 -4.252745e+00 -4.238183e+00 -4.233192e+00 -4.220365e+00 -4.215627e+00 -4.204954e+00 -4.200636e+00 -4.192396e+00 -4.188530e+00 -4.182918e+00 -4.179474e+00 -4.176633e+00 -4.173562e+00 -4.173595e+00 
-4.171258e+00 -4.174318e+00 -4.172631e+00 -4.178739e+00 -4.177411e+00 -4.186530e+00 -4.185616e+00 -4.197671e+00 -4.197276e+00 -4.212130e+00 -4.212402e+00 -4.229823e+00 -4.230923e+00 -4.250524e+00 -4.252580e+00 -4.273739e+00 -4.276780e+00 -4.298558e+00 -4.302476e+00 -4.323591e+00 -4.328172e+00 -4.347105e+00 -4.352127e+00 -4.367395e+00 -4.372703e+00 -4.383188e+00 -4.388613e+00 -4.393723e+00 -4.399026e+00 -4.398654e+00 -4.404021e+00 -4.399362e+00 -4.405256e+00 -4.398012e+00 -4.404174e+00 -4.394884e+00 -4.399857e+00 -4.388098e+00 -4.390584e+00 -4.376210e+00 -4.375987e+00 -4.359439e+00 -4.356581e+00 -4.338385e+00 -4.333373e+00 -4.314264e+00 -4.307919e+00 -4.288822e+00 -4.282036e+00 -4.263876e+00 -4.257359e+00 -4.240892e+00 -4.235063e+00 -4.220822e+00 -4.215836e+00 -4.204160e+00 -4.199991e+00 -4.191088e+00 -4.187625e+00 -4.181622e+00 -4.178734e+00 -4.175712e+00 -4.173288e+00 -4.173296e+00 
-4.166239e+00 -4.169184e+00 -4.166774e+00 -4.172800e+00 -4.170697e+00 -4.179819e+00 -4.178066e+00 -4.190256e+00 -4.188940e+00 -4.204099e+00 -4.203337e+00 -4.221232e+00 -4.221133e+00 -4.241296e+00 -4.241896e+00 -4.263501e+00 -4.264666e+00 -4.286404e+00 -4.287763e+00 -4.307814e+00 -4.308775e+00 -4.325002e+00 -4.324919e+00 -4.335365e+00 -4.333893e+00 -4.337487e+00 -4.335152e+00 -4.332376e+00 -4.331207e+00 -4.324534e+00 -4.326752e+00 -4.318780e+00 -4.324891e+00 -4.317245e+00 -4.326592e+00 -4.320136e+00 -4.331527e+00 -4.325918e+00 -4.337182e+00 -4.330292e+00 -4.338605e+00 -4.328232e+00 -4.332239e+00 -4.318356e+00 -4.318151e+00 -4.301905e+00 -4.298539e+00 -4.281352e+00 -4.276168e+00 -4.259305e+00 -4.253464e+00 -4.237878e+00 -4.232150e+00 -4.218487e+00 -4.213266e+00 -4.201938e+00 -4.197347e+00 -4.188616e+00 -4.184626e+00 -4.178663e+00 -4.175185e+00 -4.172111e+00 -4.169050e+00 -4.168955e+00 
-4.164802e+00 -4.167891e+00 -4.166227e+00 -4.172492e+00 -4.171159e+00 -4.180594e+00 -4.179657e+00 -4.192236e+00 -4.191818e+00 -4.207461e+00 -4.207730e+00 -4.226265e+00 -4.227396e+00 -4.248478e+00 -4.250590e+00 -4.273603e+00 -4.276685e+00 -4.300646e+00 -4.304544e+00 -4.328055e+00 -4.332603e+00 -4.353985e+00 -4.359254e+00 -4.376904e+00 -4.383256e+00 -4.396075e+00 -4.403529e+00 -4.410797e+00 -4.418162e+00 -4.418165e+00 -4.424996e+00 -4.419087e+00 -4.426223e+00 -4.417658e+00 -4.425036e+00 -4.414323e+00 -4.419218e+00 -4.405179e+00 -4.406012e+00 -4.388971e+00 -4.387208e+00 -4.368702e+00 -4.364535e+00 -4.344871e+00 -4.338629e+00 -4.318176e+00 -4.310654e+00 -4.290213e+00 -4.282392e+00 -4.262937e+00 -4.255621e+00 -4.238001e+00 -4.231645e+00 -4.216453e+00 -4.211185e+00 -4.198778e+00 -4.194509e+00 -4.185079e+00 -4.181629e+00 -4.175273e+00 -4.172450e+00 -4.169218e+00 -4.166866e+00 -4.166786e+00 
-4.158399e+00 -4.161282e+00 -4.158920e+00 -4.165057e+00 -4.162990e+00 -4.172447e+00 -4.170737e+00 -4.183577e+00 -4.182343e+00 -4.198588e+00 -4.197994e+00 -4.217550e+00 -4.217753e+00 -4.240279e+00 -4.241343e+00 -4.266060e+00 -4.267838e+00 -4.293317e+00 -4.295352e+00 -4.319395e+00 -4.320941e+00 -4.340743e+00 -4.340915e+00 -4.353691e+00 -4.351690e+00 -4.355624e+00 -4.351501e+00 -4.346644e+00 -4.344245e+00 -4.335285e+00 -4.338712e+00 -4.328986e+00 -4.337057e+00 -4.327392e+00 -4.338132e+00 -4.330278e+00 -4.343542e+00 -4.338775e+00 -4.352760e+00 -4.347325e+00 -4.356872e+00 -4.345695e+00 -4.349340e+00 -4.333385e+00 -4.331623e+00 -4.312991e+00 -4.307511e+00 -4.288034e+00 -4.280749e+00 -4.261848e+00 -4.254270e+00 -4.236959e+00 -4.229991e+00 -4.214932e+00 -4.208942e+00 -4.196532e+00 -4.191541e+00 -4.182005e+00 -4.177861e+00 -4.171328e+00 -4.167834e+00 -4.164384e+00 -4.161368e+00 -4.161057e+00 
-4.154958e+00 -4.158076e+00 -4.156452e+00 -4.162921e+00 -4.161576e+00 -4.171441e+00 -4.170462e+00 -4.183772e+00 -4.183312e+00 -4.200089e+00 -4.200356e+00 -4.220525e+00 -4.221725e+00 -4.245023e+00 -4.247262e+00 -4.273104e+00 -4.276270e+00 -4.303611e+00 -4.307365e+00 -4.334619e+00 -4.338718e+00 -4.363889e+00 -4.368905e+00 -4.390132e+00 -4.397830e+00 -4.414316e+00 -4.425838e+00 -4.438091e+00 -4.449210e+00 -4.449550e+00 -4.458145e+00 -4.448607e+00 -4.457431e+00 -4.446907e+00 -4.457578e+00 -4.445614e+00 -4.450771e+00 -4.432857e+00 -4.429380e+00 -4.407130e+00 -4.402881e+00 -4.381649e+00 -4.375664e+00 -4.354232e+00 -4.346193e+00 -4.323916e+00 -4.314565e+00 -4.292093e+00 -4.282640e+00 -4.261158e+00 -4.252612e+00 -4.233190e+00 -4.226068e+00 -4.209417e+00 -4.203784e+00 -4.190279e+00 -4.185930e+00 -4.175725e+00 -4.172354e+00 -4.165489e+00 -4.162806e+00 -4.159275e+00 -4.157057e+00 -4.156849e+00 
-4.147147e+00 -4.149919e+00 -4.147632e+00 -4.153859e+00 -4.151836e+00 -4.161655e+00 -4.159982e+00 -4.173587e+00 -4.172434e+00 -4.190038e+00 -4.189640e+00 -4.211386e+00 -4.211990e+00 -4.237785e+00 -4.239528e+00 -4.268769e+00 -4.271503e+00 -4.302713e+00 -4.305866e+00 -4.336353e+00 -4.338993e+00 -4.364854e+00 -4.365887e+00 -4.382827e+00 -4.380457e+00 -4.385173e+00 -4.376136e+00 -4.365568e+00 -4.359138e+00 -4.346000e+00 -4.353076e+00 -4.341738e+00 -4.354181e+00 -4.340605e+00 -4.352179e+00 -4.340556e+00 -4.356132e+00 -4.354617e+00 -4.375309e+00 -4.375481e+00 -4.387074e+00 -4.373777e+00 -4.376467e+00 -4.356467e+00 -4.351724e+00 -4.329224e+00 -4.320069e+00 -4.297186e+00 -4.286507e+00 -4.264671e+00 -4.254478e+00 -4.234721e+00 -4.226025e+00 -4.209010e+00 -4.202054e+00 -4.188148e+00 -4.182734e+00 -4.172105e+00 -4.167867e+00 -4.160573e+00 -4.157147e+00 -4.153196e+00 -4.150300e+00 -4.149695e+00 
-4.141576e+00 -4.144710e+00 -4.143140e+00 -4.149820e+00 -4.148453e+00 -4.158795e+00 -4.157744e+00 -4.171915e+00 -4.171381e+00 -4.189555e+00 -4.189814e+00 -4.212082e+00 -4.213421e+00 -4.239658e+00 -4.242205e+00 -4.271905e+00 -4.275375e+00 -4.307466e+00 -4.311006e+00 -4.343657e+00 -4.346379e+00 -4.376958e+00 -4.379843e+00 -4.405569e+00 -4.413786e+00 -4.433992e+00 -4.454499e+00 -4.480361e+00 -4.498454e+00 -4.498303e+00 -4.506908e+00 -4.485708e+00 -4.495001e+00 -4.482855e+00 -4.503583e+00 -4.494030e+00 -4.501510e+00 -4.477059e+00 -4.460442e+00 -4.426732e+00 -4.420203e+00 -4.396937e+00 -4.389206e+00 -4.366670e+00 -4.356289e+00 -4.331858e+00 -4.319805e+00 -4.294424e+00 -4.282548e+00 -4.258089e+00 -4.247821e+00 -4.225821e+00 -4.217741e+00 -4.199082e+00 -4.193100e+00 -4.178143e+00 -4.173830e+00 -4.162639e+00 -4.159490e+00 -4.151997e+00 -4.149579e+00 -4.145686e+00 -4.143692e+00 -4.143324e+00 
-4.132290e+00 -4.134885e+00 -4.132705e+00 -4.138942e+00 -4.136957e+00 -4.147054e+00 -4.145384e+00 -4.159704e+00 -4.158582e+00 -4.177607e+00 -4.177375e+00 -4.201620e+00 -4.202682e+00 -4.232505e+00 -4.235163e+00 -4.270417e+00 -4.274587e+00 -4.314043e+00 -4.318978e+00 -4.359515e+00 -4.364028e+00 -4.400024e+00 -4.403553e+00 -4.427964e+00 -4.428544e+00 -4.437303e+00 -4.414288e+00 -4.385951e+00 -4.365829e+00 -4.345732e+00 -4.365847e+00 -4.357950e+00 -4.381490e+00 -4.359674e+00 -4.366560e+00 -4.341988e+00 -4.357342e+00 -4.366228e+00 -4.407023e+00 -4.427418e+00 -4.440457e+00 -4.418049e+00 -4.418206e+00 -4.390031e+00 -4.379480e+00 -4.351278e+00 -4.335853e+00 -4.308392e+00 -4.292498e+00 -4.266784e+00 -4.252967e+00 -4.230011e+00 -4.219199e+00 -4.199668e+00 -4.191734e+00 -4.175947e+00 -4.170271e+00 -4.158306e+00 -4.154177e+00 -4.145977e+00 -4.142798e+00 -4.138261e+00 -4.135613e+00 -4.134652e+00 
-4.124532e+00 -4.127648e+00 -4.126146e+00 -4.132984e+00 -4.131572e+00 -4.142342e+00 -4.141164e+00 -4.156202e+00 -4.155521e+00 -4.175232e+00 -4.175438e+00 -4.200171e+00 -4.201741e+00 -4.231608e+00 -4.234871e+00 -4.269550e+00 -4.274121e+00 -4.312653e+00 -4.316624e+00 -4.357047e+00 -4.357100e+00 -4.395679e+00 -4.391113e+00 -4.422040e+00 -4.423970e+00 -4.436967e+00 -4.481320e+00 -4.552910e+00 -4.585896e+00 -4.581334e+00 -4.580363e+00 -4.518354e+00 -4.518035e+00 -4.510507e+00 -4.565314e+00 -4.575065e+00 -4.594969e+00 -4.557768e+00 -4.493446e+00 -4.428004e+00 -4.429814e+00 -4.413685e+00 -4.405453e+00 -4.384537e+00 -4.371039e+00 -4.343824e+00 -4.327495e+00 -4.297576e+00 -4.281996e+00 -4.253076e+00 -4.240470e+00 -4.214885e+00 -4.205759e+00 -4.184508e+00 -4.178369e+00 -4.161658e+00 -4.157660e+00 -4.145346e+00 -4.142674e+00 -4.134505e+00 -4.132540e+00 -4.128272e+00 -4.126620e+00 -4.126077e+00 
-4.113703e+00 -4.116049e+00 -4.114006e+00 -4.120103e+00 -4.118134e+00 -4.128277e+00 -4.126537e+00 -4.141286e+00 -4.140074e+00 -4.160256e+00 -4.160053e+00 -4.186710e+00 -4.188184e+00 -4.222415e+00 -4.226258e+00 -4.268883e+00 -4.275288e+00 -4.326087e+00 -4.333877e+00 -4.389909e+00 -4.396575e+00 -4.449435e+00 -4.457038e+00 -4.492594e+00 -4.516253e+00 -4.550063e+00 -4.484416e+00 -4.391175e+00 -4.321197e+00 -4.293637e+00 -4.365693e+00 -4.388316e+00 -4.443816e+00 -4.402433e+00 -4.379045e+00 -4.303945e+00 -4.299435e+00 -4.338792e+00 -4.453232e+00 -4.549320e+00 -4.549479e+00 -4.481456e+00 -4.477291e+00 -4.435645e+00 -4.413863e+00 -4.379547e+00 -4.353705e+00 -4.320818e+00 -4.297224e+00 -4.266578e+00 -4.248094e+00 -4.221076e+00 -4.208048e+00 -4.185414e+00 -4.176850e+00 -4.158835e+00 -4.153361e+00 -4.139889e+00 -4.136277e+00 -4.127115e+00 -4.124474e+00 -4.119341e+00 -4.117121e+00 -4.115785e+00 
-4.103796e+00 -4.106844e+00 -4.105409e+00 -4.112272e+00 -4.110773e+00 -4.121774e+00 -4.120385e+00 -4.136097e+00 -4.135125e+00 -4.156304e+00 -4.156286e+00 -4.183695e+00 -4.185492e+00 -4.219633e+00 -4.224279e+00 -4.265133e+00 -4.272840e+00 -4.319769e+00 -4.327242e+00 -4.378610e+00 -4.375711e+00 -4.426750e+00 -4.402064e+00 -4.447020e+00 -4.405677e+00 -4.335835e+00 -4.458188e+00 -4.707833e+00 -4.776954e+00 -4.750951e+00 -4.706049e+00 -4.493809e+00 -4.433416e+00 -4.466302e+00 -4.642270e+00 -4.733927e+00 -4.815758e+00 -4.748766e+00 -4.486846e+00 -4.309483e+00 -4.393887e+00 -4.440077e+00 -4.428385e+00 -4.412838e+00 -4.395504e+00 -4.363258e+00 -4.339859e+00 -4.302093e+00 -4.280670e+00 -4.244843e+00 -4.229177e+00 -4.198712e+00 -4.188722e+00 -4.164336e+00 -4.158562e+00 -4.139930e+00 -4.136781e+00 -4.123347e+00 -4.121560e+00 -4.112783e+00 -4.111530e+00 -4.106956e+00 -4.105779e+00 -4.105088e+00 
-4.091419e+00 -4.093468e+00 -4.091573e+00 -4.097314e+00 -4.095318e+00 -4.105097e+00 -4.103179e+00 -4.117759e+00 -4.116245e+00 -4.136856e+00 -4.136358e+00 -4.164707e+00 -4.166301e+00 -4.204535e+00 -4.209772e+00 -4.260341e+00 -4.270377e+00 -4.335381e+00 -4.348020e+00 -4.426548e+00 -4.431261e+00 -4.511866e+00 -4.506007e+00 -4.535488e+00 -4.689276e+00 -4.879614e+00 -4.590598e+00 -3.835469e+00 -2.296695e+00 -2.766351e-01 1.055245e+00 2.117539e+00 2.628074e+00 2.304423e+00 1.463131e+00 1.319096e-01 -1.743890e+00 -3.320378e+00 -4.383031e+00 -4.936158e+00 -4.817305e+00 -4.513142e+00 -4.519146e+00 -4.486292e+00 -4.443171e+00 -4.411299e+00 -4.370552e+00 -4.332331e+00 -4.298469e+00 -4.261364e+00 -4.237561e+00 -4.205298e+00 -4.190628e+00 -4.164229e+00 -4.156024e+00 -4.135499e+00 -4.131140e+00 -4.116126e+00 -4.113691e+00 -4.103661e+00 -4.101963e+00 -4.096358e+00 -4.094778e+00 -4.093135e+00 
-4.079519e+00 -4.082441e+00 -4.081043e+00 -4.087686e+00 -4.086046e+00 -4.096862e+00 -4.095150e+00 -4.111029e+00 -4.109523e+00 -4.131756e+00 -4.131062e+00 -4.161114e+00 -4.162624e+00 -4.201627e+00 -4.207995e+00 -4.256093e+00 -4.270271e+00 -4.326431e+00 -4.345441e+00 -4.408029e+00 -4.407636e+00 -4.467951e+00 -4.413692e+00 -4.563444e+00 -4.037032e+00 -1.806521e+00 2.305982e+00 6.237979e+00 8.752636e+00 1.127256e+01 1.262368e+01 1.323480e+01 1.364625e+01 1.337880e+01 1.294443e+01 1.175734e+01 9.650781e+00 7.199084e+00 3.159628e+00 -1.013780e+00 -3.511022e+00 -4.527516e+00 -4.493116e+00 -4.443690e+00 -4.431341e+00 -4.389615e+00 -4.356182e+00 -4.305822e+00 -4.275973e+00 -4.229953e+00 -4.210986e+00 -4.174371e+00 -4.164408e+00 -4.136662e+00 -4.132366e+00 -4.111946e+00 -4.110549e+00 -4.096233e+00 -4.095914e+00 -4.086783e+00 -4.086544e+00 -4.081871e+00 -4.081286e+00 -4.080544e+00 
-4.065725e+00 -4.067491e+00 -4.065718e+00 -4.070836e+00 -4.068757e+00 -4.077572e+00 -4.075353e+00 -4.088798e+00 -4.086691e+00 -4.106415e+00 -4.105010e+00 -4.133461e+00 -4.134255e+00 -4.174735e+00 -4.180811e+00 -4.237504e+00 -4.252815e+00 -4.330650e+00 -4.353976e+00 -4.457415e+00 -4.452499e+00 -4.597057e+00 -4.290254e+00 -1.830451e+00 2.540619e+00 7.500776e+00 1.137181e+01 1.367330e+01 1.407364e+01 1.413309e+01 1.425883e+01 1.402579e+01 1.413773e+01 1.404103e+01 1.424225e+01 1.420032e+01 1.418001e+01 1.383997e+01 1.190569e+01 8.713266e+00 4.085940e+00 -9.663470e-01 -3.996494e+00 -4.542847e+00 -4.443781e+00 -4.432039e+00 -4.381610e+00 -4.336542e+00 -4.292396e+00 -4.246079e+00 -4.217799e+00 -4.178650e+00 -4.164304e+00 -4.133444e+00 -4.127640e+00 -4.104481e+00 -4.102768e+00 -4.086416e+00 -4.086089e+00 -4.075541e+00 -4.075253e+00 -4.069525e+00 -4.068764e+00 -4.067041e+00 
-4.052108e+00 -4.054862e+00 -4.053417e+00 -4.059466e+00 -4.057629e+00 -4.067525e+00 -4.065420e+00 -4.080439e+00 -4.078126e+00 -4.100375e+00 -4.098142e+00 -4.130363e+00 -4.129713e+00 -4.174251e+00 -4.179966e+00 -4.236134e+00 -4.257676e+00 -4.319283e+00 -4.363591e+00 -4.428453e+00 -4.430504e+00 -3.550075e+00 2.420343e-01 6.528735e+00 1.122777e+01 1.343706e+01 1.378916e+01 1.374299e+01 1.366564e+01 1.352062e+01 1.364104e+01 1.358346e+01 1.370148e+01 1.360415e+01 1.364829e+01 1.354713e+01 1.361210e+01 1.368118e+01 1.381554e+01 1.372744e+01 1.201997e+01 7.914037e+00 1.938056e+00 -2.742852e+00 -4.369235e+00 -4.413753e+00 -4.362073e+00 -4.296880e+00 -4.257887e+00 -4.199327e+00 -4.179544e+00 -4.136841e+00 -4.129455e+00 -4.099066e+00 -4.098322e+00 -4.076767e+00 -4.078499e+00 -4.063872e+00 -4.065752e+00 -4.056783e+00 -4.057838e+00 -4.053477e+00 -4.053510e+00 -4.052942e+00 
-4.037216e+00 -4.038847e+00 -4.037090e+00 -4.041314e+00 -4.039094e+00 -4.046158e+00 -4.043590e+00 -4.054525e+00 -4.051581e+00 -4.068435e+00 -4.065219e+00 -4.091231e+00 -4.088993e+00 -4.128325e+00 -4.131463e+00 -4.188077e+00 -4.205497e+00 -4.283116e+00 -4.338706e+00 -4.395728e+00 -3.042527e+00 2.072392e+00 8.784782e+00 1.275549e+01 1.353693e+01 1.343496e+01 1.339293e+01 1.360846e+01 1.373197e+01 1.380745e+01 1.391128e+01 1.385526e+01 1.393548e+01 1.386780e+01 1.392430e+01 1.384701e+01 1.378527e+01 1.365904e+01 1.344362e+01 1.339964e+01 1.352572e+01 1.317463e+01 1.037382e+01 3.914738e+00 -2.203698e+00 -4.244964e+00 -4.391509e+00 -4.322556e+00 -4.269452e+00 -4.210909e+00 -4.181930e+00 -4.134696e+00 -4.125281e+00 -4.089627e+00 -4.089899e+00 -4.064377e+00 -4.067559e+00 -4.050521e+00 -4.053393e+00 -4.043117e+00 -4.044619e+00 -4.039476e+00 -4.039558e+00 -4.038238e+00 
-4.022263e+00 -4.024881e+00 -4.023208e+00 -4.028167e+00 -4.026100e+00 -4.033922e+00 -4.031539e+00 -4.043832e+00 -4.040749e+00 -4.060718e+00 -4.056048e+00 -4.088877e+00 -4.082175e+00 -4.133570e+00 -4.128868e+00 -4.196771e+00 -4.212242e+00 -4.272099e+00 -4.342557e+00 -3.111279e+00 2.600657e+00 9.855849e+00 1.308455e+01 1.348438e+01 1.338103e+01 1.354140e+01 1.354563e+01 1.356673e+01 1.356760e+01 1.352403e+01 1.357916e+01 1.353540e+01 1.359695e+01 1.354160e+01 1.357881e+01 1.353193e+01 1.355732e+01 1.356122e+01 1.355566e+01 1.356639e+01 1.339237e+01 1.344494e+01 1.330087e+01 1.108490e+01 4.684868e+00 -1.944789e+00 -4.228924e+00 -4.251521e+00 -4.207222e+00 -4.134320e+00 -4.123891e+00 -4.079396e+00 -4.079786e+00 -4.049285e+00 -4.055420e+00 -4.033950e+00 -4.040677e+00 -4.026655e+00 -4.031478e+00 -4.023541e+00 -4.025977e+00 -4.022658e+00 -4.023110e+00 -4.023161e+00 
-4.006809e+00 -4.008671e+00 -4.006683e+00 -4.009800e+00 -4.007390e+00 -4.011770e+00 -4.009027e+00 -4.015615e+00 -4.012035e+00 -4.023240e+00 -4.017574e+00 -4.037819e+00 -4.028936e+00 -4.063486e+00 -4.053648e+00 -4.103138e+00 -4.093005e+00 -4.187080e+00 -3.304751e+00 2.092218e+00 9.716862e+00 1.308996e+01 1.325232e+01 1.334543e+01 1.341164e+01 1.343431e+01 1.346414e+01 1.354180e+01 1.360860e+01 1.365083e+01 1.371777e+01 1.370464e+01 1.375345e+01 1.371284e+01 1.373075e+01 1.367393e+01 1.363695e+01 1.357075e+01 1.349236e+01 1.345495e+01 1.342776e+01 1.341185e+01 1.328934e+01 1.326120e+01 1.127263e+01 4.281471e+00 -2.549028e+00 -4.298414e+00 -4.203556e+00 -4.138753e+00 -4.117840e+00 -4.063668e+00 -4.068778e+00 -4.028920e+00 -4.041249e+00 -4.014364e+00 -4.025259e+00 -4.008959e+00 -4.015924e+00 -4.007409e+00 -4.010681e+00 -4.007379e+00 -4.007965e+00 -4.007899e+00 
-3.990962e+00 -3.993676e+00 -3.991406e+00 -3.994760e+00 -3.992420e+00 -3.996602e+00 -3.994413e+00 -4.000895e+00 -3.998138e+00 -4.010976e+00 -4.004817e+00 -4.033237e+00 -4.017088e+00 -4.077485e+00 -4.043099e+00 -4.144848e+00 -4.114627e+00 -3.925424e+00 5.322787e-01 8.932221e+00 1.304303e+01 1.323770e+01 1.335151e+01 1.337909e+01 1.338892e+01 1.344862e+01 1.345989e+01 1.348092e+01 1.349640e+01 1.348448e+01 1.351650e+01 1.349138e+01 1.352600e+01 1.349322e+01 1.351660e+01 1.348687e+01 1.349524e+01 1.347983e+01 1.346257e+01 1.344779e+01 1.338864e+01 1.335535e+01 1.334232e+01 1.319325e+01 1.317921e+01 1.044509e+01 2.505304e+00 -3.311711e+00 -4.125352e+00 -4.004587e+00 -4.030078e+00 -4.000179e+00 -4.013567e+00 -3.987171e+00 -4.004607e+00 -3.984157e+00 -3.998065e+00 -3.985768e+00 -3.993940e+00 -3.988419e+00 -3.991824e+00 -3.990775e+00 -3.991017e+00 -3.992489e+00 
-3.975697e+00 -3.978461e+00 -3.975759e+00 -3.977739e+00 -3.975047e+00 -3.975777e+00 -3.973391e+00 -3.973262e+00 -3.970432e+00 -3.971851e+00 -3.965321e+00 -3.975267e+00 -3.957937e+00 -3.987055e+00 -3.962251e+00 -3.974556e+00 -4.100856e+00 -1.697147e+00 6.218556e+00 1.243802e+01 1.326233e+01 1.325126e+01 1.329739e+01 1.333327e+01 1.338135e+01 1.341361e+01 1.345225e+01 1.349238e+01 1.353713e+01 1.356107e+01 1.360342e+01 1.360008e+01 1.362937e+01 1.360485e+01 1.361229e+01 1.357435e+01 1.355330e+01 1.351106e+01 1.346902e+01 1.343690e+01 1.339299e+01 1.337500e+01 1.330210e+01 1.330841e+01 1.322446e+01 1.307053e+01 8.757475e+00 2.015311e-01 -4.025312e+00 -3.966312e+00 -4.017638e+00 -3.954094e+00 -3.992718e+00 -3.949468e+00 -3.981956e+00 -3.955598e+00 -3.976564e+00 -3.963680e+00 -3.974545e+00 -3.970365e+00 -3.974453e+00 -3.974992e+00 -3.975107e+00 -3.977621e+00 
-3.959445e+00 -3.962850e+00 -3.959286e+00 -3.960796e+00 -3.957912e+00 -3.956890e+00 -3.955556e+00 -3.952069e+00 -3.952491e+00 -3.949058e+00 -3.948336e+00 -3.956516e+00 -3.939657e+00 -3.999759e+00 -3.912885e+00 -4.142649e+00 -3.540029e+00 3.024226e+00 1.112255e+01 1.325840e+01 1.322393e+01 1.326856e+01 1.330429e+01 1.333636e+01 1.335925e+01 1.339376e+01 1.341094e+01 1.342905e+01 1.344611e+01 1.344536e+01 1.346659e+01 1.345322e+01 1.347427e+01 1.345347e+01 1.346772e+01 1.344514e+01 1.344767e+01 1.342707e+01 1.341225e+01 1.339024e+01 1.335474e+01 1.332868e+01 1.328362e+01 1.326522e+01 1.316747e+01 1.330321e+01 1.215973e+01 5.131741e+00 -2.561229e+00 -4.107481e+00 -3.858927e+00 -3.930508e+00 -3.941037e+00 -3.915574e+00 -3.951440e+00 -3.929292e+00 -3.952662e+00 -3.943462e+00 -3.954225e+00 -3.953533e+00 -3.956430e+00 -3.959686e+00 -3.958393e+00 -3.962612e+00 
-3.945327e+00 -3.950014e+00 -3.945757e+00 -3.946977e+00 -3.943603e+00 -3.940120e+00 -3.938706e+00 -3.929216e+00 -3.930373e+00 -3.915049e+00 -3.915235e+00 -3.905104e+00 -3.876483e+00 -3.936084e+00 -3.725925e+00 -4.167616e+00 -1.249833e+00 7.512997e+00 1.296534e+01 1.309236e+01 1.320640e+01 1.322417e+01 1.328479e+01 1.331771e+01 1.336031e+01 1.339313e+01 1.342687e+01 1.345573e+01 1.348706e+01 1.350344e+01 1.353064e+01 1.352993e+01 1.354809e+01 1.353200e+01 1.353635e+01 1.350921e+01 1.349704e+01 1.346437e+01 1.343797e+01 1.340568e+01 1.337017e+01 1.333926e+01 1.329562e+01 1.325574e+01 1.323762e+01 1.312156e+01 1.322698e+01 9.839395e+00 1.012910e+00 -3.880737e+00 -3.810780e+00 -3.838309e+00 -3.903201e+00 -3.859348e+00 -3.916706e+00 -3.893745e+00 -3.923565e+00 -3.918961e+00 -3.930736e+00 -3.935086e+00 -3.937379e+00 -3.944645e+00 -3.942442e+00 -3.949333e+00 
-3.929271e+00 -3.934436e+00 -3.928427e+00 -3.928617e+00 -3.924168e+00 -3.917641e+00 -3.916759e+00 -3.900444e+00 -3.906934e+00 -3.875680e+00 -3.896101e+00 -3.844980e+00 -3.881847e+00 -3.825240e+00 -3.804300e+00 -3.763269e+00 2.500640e+00 1.110407e+01 1.332934e+01 1.303863e+01 1.323974e+01 1.321018e+01 1.327688e+01 1.330011e+01 1.332954e+01 1.335840e+01 1.337624e+01 1.339464e+01 1.340941e+01 1.341408e+01 1.342904e+01 1.342243e+01 1.343644e+01 1.342192e+01 1.343172e+01 1.341233e+01 1.341428e+01 1.339159e+01 1.338198e+01 1.335531e+01 1.333192e+01 1.330090e+01 1.326604e+01 1.322922e+01 1.319297e+01 1.311567e+01 1.319470e+01 1.233745e+01 4.925111e+00 -2.912233e+00 -4.078150e+00 -3.702420e+00 -3.940663e+00 -3.814640e+00 -3.906263e+00 -3.871996e+00 -3.905352e+00 -3.903891e+00 -3.912977e+00 -3.922005e+00 -3.920976e+00 -3.931736e+00 -3.926701e+00 -3.935540e+00 
-3.917460e+00 -3.925319e+00 -3.918274e+00 -3.919822e+00 -3.914480e+00 -3.907788e+00 -3.906468e+00 -3.886995e+00 -3.895836e+00 -3.852663e+00 -3.889112e+00 -3.795195e+00 -3.909191e+00 -3.688113e+00 -4.009884e+00 -2.541053e+00 6.131933e+00 1.272132e+01 1.314790e+01 1.310244e+01 1.319583e+01 1.323232e+01 1.327297e+01 1.331766e+01 1.334495e+01 1.338221e+01 1.340480e+01 1.343161e+01 1.345198e+01 1.346612e+01 1.348347e+01 1.348397e+01 1.349581e+01 1.348375e+01 1.348743e+01 1.346514e+01 1.345894e+01 1.342934e+01 1.341285e+01 1.337921e+01 1.335119e+01 1.331803e+01 1.327058e+01 1.325075e+01 1.315886e+01 1.320192e+01 1.296008e+01 1.326135e+01 8.574319e+00 -7.794982e-01 -4.130367e+00 -3.552817e+00 -3.894465e+00 -3.755330e+00 -3.858031e+00 -3.839013e+00 -3.868611e+00 -3.881738e+00 -3.886338e+00 -3.905656e+00 -3.901436e+00 -3.918983e+00 -3.911886e+00 -3.925097e+00 
-3.902508e+00 -3.910721e+00 -3.900847e+00 -3.901305e+00 -3.893037e+00 -3.883766e+00 -3.879230e+00 -3.854874e+00 -3.861359e+00 -3.807596e+00 -3.850165e+00 -3.726485e+00 -3.892196e+00 -3.567103e+00 -4.160045e+00 -5.652296e-01 9.615807e+00 1.342261e+01 1.295872e+01 1.321497e+01 1.313513e+01 1.323835e+01 1.323400e+01 1.329347e+01 1.330215e+01 1.334083e+01 1.335084e+01 1.337337e+01 1.338351e+01 1.339215e+01 1.340277e+01 1.340015e+01 1.341057e+01 1.339915e+01 1.340759e+01 1.338909e+01 1.339329e+01 1.336835e+01 1.336572e+01 1.333461e+01 1.332151e+01 1.328799e+01 1.325473e+01 1.323743e+01 1.314531e+01 1.321973e+01 1.291117e+01 1.339362e+01 1.095641e+01 1.741223e+00 -3.963415e+00 -3.618462e+00 -3.843202e+00 -3.769888e+00 -3.828583e+00 -3.838572e+00 -3.847824e+00 -3.876454e+00 -3.870052e+00 -3.898044e+00 -3.887233e+00 -3.909460e+00 -3.898026e+00 -3.913374e+00 
-3.894338e+00 -3.906311e+00 -3.895225e+00 -3.898869e+00 -3.888935e+00 -3.883264e+00 -3.875502e+00 -3.856757e+00 -3.856429e+00 -3.813839e+00 -3.841752e+00 -3.744363e+00 -3.876057e+00 -3.623298e+00 -4.118025e+00 9.872774e-01 1.125167e+01 1.356228e+01 1.299316e+01 1.330137e+01 1.316702e+01 1.329290e+01 1.326620e+01 1.333570e+01 1.333712e+01 1.338140e+01 1.339064e+01 1.341845e+01 1.342975e+01 1.344371e+01 1.345455e+01 1.345576e+01 1.346412e+01 1.345360e+01 1.345784e+01 1.343671e+01 1.343593e+01 1.340507e+01 1.339906e+01 1.335911e+01 1.334700e+01 1.329984e+01 1.327631e+01 1.323157e+01 1.317612e+01 1.317237e+01 1.301554e+01 1.317784e+01 1.250528e+01 4.557169e+00 -3.516676e+00 -3.722503e+00 -3.698069e+00 -3.775693e+00 -3.755171e+00 -3.825280e+00 -3.805282e+00 -3.861999e+00 -3.843287e+00 -3.886028e+00 -3.869555e+00 -3.900274e+00 -3.886058e+00 -3.906746e+00 
-3.881915e+00 -3.893780e+00 -3.879278e+00 -3.881822e+00 -3.867279e+00 -3.860351e+00 -3.844408e+00 -3.826391e+00 -3.808313e+00 -3.775222e+00 -3.758090e+00 -3.701466e+00 -3.701562e+00 -3.598089e+00 -3.650172e+00 3.124731e+00 1.235304e+01 1.323088e+01 1.297688e+01 1.320724e+01 1.312425e+01 1.324199e+01 1.322073e+01 1.329049e+01 1.328844e+01 1.333206e+01 1.333595e+01 1.336135e+01 1.336768e+01 1.337881e+01 1.338671e+01 1.338626e+01 1.339507e+01 1.338488e+01 1.339370e+01 1.337458e+01 1.338264e+01 1.335403e+01 1.336118e+01 1.332118e+01 1.332848e+01 1.327456e+01 1.328504e+01 1.321545e+01 1.323693e+01 1.315006e+01 1.321880e+01 1.308202e+01 1.339832e+01 6.664917e+00 -3.106302e+00 -3.850807e+00 -3.638259e+00 -3.816994e+00 -3.723117e+00 -3.838365e+00 -3.787032e+00 -3.864554e+00 -3.831085e+00 -3.883586e+00 -3.859348e+00 -3.894472e+00 -3.875553e+00 -3.897804e+00 
-3.878720e+00 -3.894407e+00 -3.879310e+00 -3.885888e+00 -3.870008e+00 -3.868886e+00 -3.848889e+00 -3.841883e+00 -3.811681e+00 -3.804025e+00 -3.751095e+00 -3.761094e+00 -3.655034e+00 -3.740196e+00 -3.438380e+00 4.744959e+00 1.324061e+01 1.324523e+01 1.319024e+01 1.327025e+01 1.322510e+01 1.330332e+01 1.328377e+01 1.334426e+01 1.333942e+01 1.338226e+01 1.338478e+01 1.341222e+01 1.341826e+01 1.343213e+01 1.343936e+01 1.344081e+01 1.344755e+01 1.343732e+01 1.344256e+01 1.342086e+01 1.342474e+01 1.339073e+01 1.339501e+01 1.334582e+01 1.335496e+01 1.328417e+01 1.330869e+01 1.320289e+01 1.326995e+01 1.309730e+01 1.328586e+01 1.294888e+01 1.350740e+01 7.956509e+00 -2.441757e+00 -3.850081e+00 -3.547858e+00 -3.812568e+00 -3.670419e+00 -3.829025e+00 -3.755069e+00 -3.854737e+00 -3.811189e+00 -3.875656e+00 -3.847026e+00 -3.889206e+00 -3.868429e+00 -3.895407e+00 
-3.870555e+00 -3.884988e+00 -3.867172e+00 -3.871812e+00 -3.852056e+00 -3.848877e+00 -3.821807e+00 -3.814387e+00 -3.768820e+00 -3.768081e+00 -3.677925e+00 -3.719583e+00 -3.518750e+00 -3.711360e+00 -3.083404e+00 5.650443e+00 1.332363e+01 1.301365e+01 1.316015e+01 1.314973e+01 1.317309e+01 1.322867e+01 1.323027e+01 1.328599e+01 1.328644e+01 1.332768e+01 1.333017e+01 1.335587e+01 1.336058e+01 1.337263e+01 1.337934e+01 1.337975e+01 1.338804e+01 1.337816e+01 1.338768e+01 1.336769e+01 1.337877e+01 1.334710e+01 1.336174e+01 1.331401e+01 1.333814e+01 1.326498e+01 1.331392e+01 1.319510e+01 1.330724e+01 1.309553e+01 1.336459e+01 1.294237e+01 1.356243e+01 8.849316e+00 -1.897315e+00 -3.855153e+00 -3.506445e+00 -3.828899e+00 -3.654275e+00 -3.839961e+00 -3.748504e+00 -3.860173e+00 -3.807550e+00 -3.876943e+00 -3.843287e+00 -3.887017e+00 -3.863025e+00 -3.889805e+00 
-3.873158e+00 -3.890362e+00 -3.873542e+00 -3.881521e+00 -3.862814e+00 -3.864252e+00 -3.837890e+00 -3.837752e+00 -3.791086e+00 -3.803465e+00 -3.705363e+00 -3.773674e+00 -3.541675e+00 -3.793125e+00 -3.006095e+00 6.057676e+00 1.352421e+01 1.310624e+01 1.329414e+01 1.323651e+01 1.326146e+01 1.329935e+01 1.329562e+01 1.334548e+01 1.334222e+01 1.338244e+01 1.338359e+01 1.341038e+01 1.341486e+01 1.342859e+01 1.343471e+01 1.343618e+01 1.344247e+01 1.343221e+01 1.343794e+01 1.341580e+01 1.342158e+01 1.338598e+01 1.339465e+01 1.334109e+01 1.335985e+01 1.327793e+01 1.332430e+01 1.319075e+01 1.330786e+01 1.306924e+01 1.335886e+01 1.289066e+01 1.354840e+01 9.070714e+00 -1.753461e+00 -3.849913e+00 -3.495759e+00 -3.819903e+00 -3.639316e+00 -3.830767e+00 -3.736300e+00 -3.852916e+00 -3.799304e+00 -3.872454e+00 -3.838847e+00 -3.885565e+00 -3.862130e+00 -3.891580e+00 