# vtk DataFile Version 2.0
Comment goes here
ASCII

DATASET STRUCTURED_POINTS
FIELD FieldData 1
TIME 1 1 double
0.42000000
DIMENSIONS    64   64   1

ORIGIN    0.000   0.000   0.000
SPACING   0.015625 0.015625   1.000

POINT_DATA   4096
VECTORS u double

0.000168 -0.000000 0.000000 0.018690 -0.000000 0.000000 0.037110 -0.000000 0.000000 0.055398 -0.000000 0.000000 0.073385 -0.000000 0.000000 0.091081 -0.000000 0.000000 0.108239 -0.000000 0.000000 0.124902 0.000000 0.000000 0.140735 0.000000 0.000000 0.155799 0.000000 0.000000 0.169672 0.000000 0.000000 0.182410 0.000000 0.000000 0.193534 0.000000 0.000000 0.203051 0.000000 0.000000 0.210484 0.000000 0.000000 0.215742 0.000000 0.000000 0.218443 0.000000 0.000000 0.218362 0.000000 0.000000 0.215319 0.000000 0.000000 0.208976 0.000000 0.000000 0.199466 0.000000 0.000000 0.186471 0.000000 0.000000 0.170533 0.000000 0.000000 0.151606 0.000000 0.000000 0.130706 0.000000 0.000000 0.108343 0.000000 0.000000 0.085922 0.000000 0.000000 0.064497 0.000000 0.000000 0.045374 0.000000 0.000000 0.029457 0.000000 0.000000 0.016960 0.000000 0.000000 0.007556 0.000000 0.000000 -0.000214 0.000000 0.000000 -0.007856 0.000000 0.000000 -0.017358 0.000000 0.000000 -0.029718 0.000000 0.000000 -0.045699 0.000000 0.000000 -0.064709 0.000000 0.000000 -0.086163 0.000000 0.000000 -0.108522 0.000000 0.000000 -0.130879 0.000000 0.000000 -0.151770 0.000000 0.000000 -0.170653 0.000000 0.000000 -0.186620 0.000000 0.000000 -0.199542 0.000000 0.000000 -0.209097 0.000000 0.000000 -0.215352 -0.000000 0.000000 -0.218439 -0.000000 0.000000 -0.218431 -0.000000 0.000000 -0.215760 -0.000000 0.000000 -0.210421 -0.000000 0.000000 -0.203001 -0.000000 0.000000 -0.193417 -0.000000 0.000000 -0.182290 -0.000000 0.000000 -0.169500 -0.000000 0.000000 -0.155612 -0.000000 0.000000 -0.140510 -0.000000 0.000000 -0.124657 -0.000000 0.000000 -0.107968 -0.000000 0.000000 -0.090789 -0.000000 0.000000 -0.073079 -0.000000 0.000000 -0.055074 -0.000000 0.000000 -0.036782 -0.000000 0.000000 -0.018350 -0.000000 0.000000 
0.000181 -0.018520 0.000000 0.018740 -0.018471 0.000000 0.037195 -0.018354 0.000000 0.055523 -0.018137 0.000000 0.073544 -0.017841 0.000000 0.091287 -0.017427 0.000000 0.108479 -0.016911 0.000000 0.125195 -0.016248 0.000000 0.141060 -0.015448 0.000000 0.156181 -0.014469 0.000000 0.170083 -0.013306 0.000000 0.182880 -0.011931 0.000000 0.194028 -0.010320 0.000000 0.203603 -0.008475 0.000000 0.211058 -0.006346 0.000000 0.216374 -0.003980 0.000000 0.219105 -0.001310 0.000000 0.219083 0.001562 0.000000 0.216087 0.004693 0.000000 0.209804 0.007926 0.000000 0.200356 0.011253 0.000000 0.187408 0.014467 0.000000 0.171516 0.017432 0.000000 0.152589 0.019913 0.000000 0.131665 0.021632 0.000000 0.109206 0.022392 0.000000 0.086652 0.021923 0.000000 0.065038 0.020274 0.000000 0.045726 0.017520 0.000000 0.029634 0.014207 0.000000 0.017021 0.010950 0.000000 0.007562 0.008587 0.000000 -0.000221 0.007706 0.000000 -0.007872 0.008572 0.000000 -0.017432 0.010931 0.000000 -0.029903 0.014170 0.000000 -0.046061 0.017495 0.000000 -0.065257 0.020232 0.000000 -0.086902 0.021907 0.000000 -0.109392 0.022358 0.000000 -0.131846 0.021624 0.000000 -0.152762 0.019887 0.000000 -0.171645 0.017425 0.000000 -0.187570 0.014445 0.000000 -0.200443 0.011239 0.000000 -0.209940 0.007905 0.000000 -0.216131 0.004671 0.000000 -0.219173 0.001540 0.000000 -0.219103 -0.001339 0.000000 -0.216401 -0.004005 0.000000 -0.211002 -0.006380 0.000000 -0.203557 -0.008502 0.000000 -0.193912 -0.010355 0.000000 -0.182757 -0.011959 0.000000 -0.169904 -0.013339 0.000000 -0.155984 -0.014495 0.000000 -0.140822 -0.015477 0.000000 -0.124933 -0.016271 0.000000 -0.108189 -0.016934 0.000000 -0.090973 -0.017445 0.000000 -0.073215 -0.017857 0.000000 -0.055174 -0.018148 0.000000 -0.036841 -0.018362 0.000000 -0.018373 -0.018475 0.000000 
0.000171 -0.037113 0.000000 0.018832 -0.037014 0.000000 0.037392 -0.036783 0.000000 0.055823 -0.036350 0.000000 0.073959 -0.035763 0.000000 0.091809 -0.034934 0.000000 0.109126 -0.033908 0.000000 0.125953 -0.032581 0.000000 0.141945 -0.030986 0.000000 0.157171 -0.029023 0.000000 0.171190 -0.026699 0.000000 0.184075 -0.023945 0.000000 0.195316 -0.020722 0.000000 0.204950 -0.017030 0.000000 0.212466 -0.012771 0.000000 0.217810 -0.008047 0.000000 0.220569 -0.002709 0.000000 0.220543 0.003019 0.000000 0.217540 0.009279 0.000000 0.211208 0.015731 0.000000 0.201691 0.022396 0.000000 0.188602 0.028840 0.000000 0.172516 0.034819 0.000000 0.153287 0.039851 0.000000 0.131981 0.043383 0.000000 0.109050 0.045013 0.000000 0.085985 0.044168 0.000000 0.063911 0.040926 0.000000 0.044261 0.035405 0.000000 0.028108 0.028705 0.000000 0.015727 0.022071 0.000000 0.006827 0.017242 0.000000 -0.000225 0.015434 0.000000 -0.007137 0.017211 0.000000 -0.016140 0.022031 0.000000 -0.028370 0.028629 0.000000 -0.044589 0.035354 0.000000 -0.064116 0.040841 0.000000 -0.086222 0.044135 0.000000 -0.109222 0.044944 0.000000 -0.132147 0.043370 0.000000 -0.153450 0.039799 0.000000 -0.172631 0.034808 0.000000 -0.188756 0.028797 0.000000 -0.201763 0.022370 0.000000 -0.211335 0.015689 0.000000 -0.217570 0.009233 0.000000 -0.220623 0.002972 0.000000 -0.220555 -0.002772 0.000000 -0.217828 -0.008101 0.000000 -0.212402 -0.012845 0.000000 -0.204898 -0.017091 0.000000 -0.195196 -0.020799 0.000000 -0.183951 -0.024007 0.000000 -0.171014 -0.026773 0.000000 -0.156979 -0.029083 0.000000 -0.141715 -0.031051 0.000000 -0.125700 -0.032632 0.000000 -0.108849 -0.033960 0.000000 -0.091510 -0.034974 0.000000 -0.073646 -0.035799 0.000000 -0.055491 -0.036374 0.000000 -0.037057 -0.036801 0.000000 -0.018483 -0.037022 0.000000 
0.000190 -0.055835 0.000000 0.019016 -0.055691 0.000000 0.037741 -0.055346 0.000000 0.056346 -0.054705 0.000000 0.074654 -0.053827 0.000000 0.092689 -0.052594 0.000000 0.110182 -0.051054 0.000000 0.127204 -0.049067 0.000000 0.143366 -0.046667 0.000000 0.158786 -0.043714 0.000000 0.172951 -0.040210 0.000000 0.186014 -0.036056 0.000000 0.197367 -0.031195 0.000000 0.207160 -0.025625 0.000000 0.214771 -0.019206 0.000000 0.220269 -0.012083 0.000000 0.223144 -0.004044 0.000000 0.223294 0.004592 0.000000 0.220467 0.014028 0.000000 0.214331 0.023775 0.000000 0.205027 0.033858 0.000000 0.192081 0.043642 0.000000 0.176115 0.052748 0.000000 0.156820 0.060448 0.000000 0.135330 0.065869 0.000000 0.111955 0.068388 0.000000 0.088281 0.067063 0.000000 0.065442 0.061998 0.000000 0.045024 0.053323 0.000000 0.028262 0.042742 0.000000 0.015539 0.032231 0.000000 0.006628 0.024538 0.000000 -0.000243 0.021669 0.000000 -0.006960 0.024487 0.000000 -0.015981 0.032165 0.000000 -0.028533 0.042620 0.000000 -0.045366 0.053241 0.000000 -0.065644 0.061865 0.000000 -0.088520 0.067013 0.000000 -0.112125 0.068283 0.000000 -0.135495 0.065852 0.000000 -0.156992 0.060371 0.000000 -0.176234 0.052731 0.000000 -0.192254 0.043577 0.000000 -0.205108 0.033817 0.000000 -0.214480 0.023712 0.000000 -0.220509 0.013959 0.000000 -0.223394 0.004524 0.000000 -0.223141 -0.004135 0.000000 -0.220299 -0.012158 0.000000 -0.214712 -0.019310 0.000000 -0.207110 -0.025707 0.000000 -0.197246 -0.031302 0.000000 -0.185881 -0.036141 0.000000 -0.172763 -0.040311 0.000000 -0.158576 -0.043795 0.000000 -0.143116 -0.046756 0.000000 -0.126927 -0.049136 0.000000 -0.109878 -0.051125 0.000000 -0.092358 -0.052647 0.000000 -0.074309 -0.053876 0.000000 -0.055978 -0.054738 0.000000 -0.037371 -0.055371 0.000000 -0.018630 -0.055703 0.000000 
0.000183 -0.074759 0.000000 0.019223 -0.074565 0.000000 0.038166 -0.074113 0.000000 0.056986 -0.073262 0.000000 0.075524 -0.072106 0.000000 0.093780 -0.070463 0.000000 0.111508 -0.068423 0.000000 0.128747 -0.065765 0.000000 0.145132 -0.062568 0.000000 0.160749 -0.058608 0.000000 0.175104 -0.053927 0.000000 0.188331 -0.048361 0.000000 0.199837 -0.041869 0.000000 0.209774 -0.034434 0.000000 0.217535 -0.025880 0.000000 0.223208 -0.016421 0.000000 0.226296 -0.005734 0.000000 0.226707 0.005696 0.000000 0.224200 0.018242 0.000000 0.218397 0.031171 0.000000 0.209456 0.044645 0.000000 0.196768 0.057752 0.000000 0.180988 0.070081 0.000000 0.161613 0.080636 0.000000 0.139839 0.088248 0.000000 0.115854 0.092061 0.000000 0.091335 0.090681 0.000000 0.067508 0.084183 0.000000 0.046071 0.072585 0.000000 0.028550 0.058190 0.000000 0.015358 0.043705 0.000000 0.006422 0.033024 0.000000 -0.000258 0.029022 0.000000 -0.006767 0.032949 0.000000 -0.015820 0.043605 0.000000 -0.028815 0.058014 0.000000 -0.046407 0.072464 0.000000 -0.067685 0.083995 0.000000 -0.091552 0.090616 0.000000 -0.116001 0.091919 0.000000 -0.139981 0.088238 0.000000 -0.161775 0.080538 0.000000 -0.181086 0.070071 0.000000 -0.196939 0.057672 0.000000 -0.209518 0.044595 0.000000 -0.218543 0.031090 0.000000 -0.224225 0.018147 0.000000 -0.226797 0.005604 0.000000 -0.226278 -0.005867 0.000000 -0.223225 -0.016530 0.000000 -0.217464 -0.026034 0.000000 -0.209712 -0.034557 0.000000 -0.199708 -0.042028 0.000000 -0.188190 -0.048490 0.000000 -0.174914 -0.054078 0.000000 -0.160536 -0.058730 0.000000 -0.144885 -0.062701 0.000000 -0.128472 -0.065870 0.000000 -0.111211 -0.068528 0.000000 -0.093455 -0.070544 0.000000 -0.075189 -0.072179 0.000000 -0.056628 -0.073312 0.000000 -0.037808 -0.074150 0.000000 -0.018848 -0.074582 0.000000 
0.000208 -0.093905 0.000000 0.019496 -0.093674 0.000000 0.038690 -0.093109 0.000000 0.057761 -0.092062 0.000000 0.076550 -0.090620 0.000000 0.095059 -0.088578 0.000000 0.113026 -0.086022 0.000000 0.130507 -0.082691 0.000000 0.147092 -0.078669 0.000000 0.162923 -0.073686 0.000000 0.177420 -0.067791 0.000000 0.190839 -0.060790 0.000000 0.202458 -0.052638 0.000000 0.212622 -0.043323 0.000000 0.220567 -0.032639 0.000000 0.226618 -0.020844 0.000000 0.230123 -0.007543 0.000000 0.231178 0.006688 0.000000 0.229437 0.022338 0.000000 0.224545 0.038518 0.000000 0.216661 0.055488 0.000000 0.204964 0.072110 0.000000 0.190229 0.087902 0.000000 0.171580 0.101597 0.000000 0.150350 0.111627 0.000000 0.126362 0.116892 0.000000 0.101368 0.115408 0.000000 0.076484 0.107261 0.000000 0.053498 0.092282 0.000000 0.034168 0.073455 0.000000 0.019017 0.054359 0.000000 0.008219 0.040155 0.000000 -0.000289 0.034858 0.000000 -0.008599 0.040049 0.000000 -0.019524 0.054213 0.000000 -0.034440 0.073207 0.000000 -0.053847 0.092111 0.000000 -0.076639 0.107010 0.000000 -0.101574 0.115329 0.000000 -0.126489 0.116712 0.000000 -0.150476 0.111626 0.000000 -0.171748 0.101476 0.000000 -0.190319 0.087894 0.000000 -0.205164 0.072010 0.000000 -0.216728 0.055421 0.000000 -0.224727 0.038418 0.000000 -0.229477 0.022213 0.000000 -0.231299 0.006577 0.000000 -0.230121 -0.007707 0.000000 -0.226652 -0.020972 0.000000 -0.220504 -0.032823 0.000000 -0.212559 -0.043464 0.000000 -0.202323 -0.052824 0.000000 -0.190682 -0.060935 0.000000 -0.177212 -0.067965 0.000000 -0.162681 -0.073824 0.000000 -0.146814 -0.078820 0.000000 -0.130193 -0.082810 0.000000 -0.112691 -0.086141 0.000000 -0.094690 -0.088669 0.000000 -0.076171 -0.090703 0.000000 -0.057355 -0.092119 0.000000 -0.038284 -0.093151 0.000000 -0.019072 -0.093694 0.000000 
0.000204 -0.113327 0.000000 0.019753 -0.113048 0.000000 0.039211 -0.112378 0.000000 0.058534 -0.111122 0.000000 0.077584 -0.109404 0.000000 0.096325 -0.106939 0.000000 0.114529 -0.103871 0.000000 0.132203 -0.099830 0.000000 0.148970 -0.094984 0.000000 0.164943 -0.088937 0.000000 0.179568 -0.081843 0.000000 0.193114 -0.073399 0.000000 0.204882 -0.063651 0.000000 0.215289 -0.052543 0.000000 0.223586 -0.039876 0.000000 0.230207 -0.025977 0.000000 0.234490 -0.010294 0.000000 0.236603 0.006383 0.000000 0.236158 0.024876 0.000000 0.232738 0.043947 0.000000 0.226468 0.064226 0.000000 0.216265 0.084184 0.000000 0.202962 0.103464 0.000000 0.185247 0.120515 0.000000 0.164610 0.133466 0.000000 0.140526 0.141043 0.000000 0.114875 0.140559 0.000000 0.088736 0.132053 0.000000 0.063839 0.114901 0.000000 0.042293 0.092672 0.000000 0.024482 0.069653 0.000000 0.011004 0.052329 0.000000 -0.000319 0.045840 0.000000 -0.011412 0.052184 0.000000 -0.025024 0.069446 0.000000 -0.042551 0.092337 0.000000 -0.064174 0.114663 0.000000 -0.088835 0.131722 0.000000 -0.115041 0.140467 0.000000 -0.140610 0.140820 0.000000 -0.164694 0.133497 0.000000 -0.185404 0.120381 0.000000 -0.203016 0.103486 0.000000 -0.216471 0.084081 0.000000 -0.226507 0.064159 0.000000 -0.232924 0.043839 0.000000 -0.236178 0.024718 0.000000 -0.236716 0.006247 0.000000 -0.234470 -0.010514 0.000000 -0.230223 -0.026147 0.000000 -0.223507 -0.040127 0.000000 -0.215204 -0.052738 0.000000 -0.204732 -0.063905 0.000000 -0.192937 -0.073601 0.000000 -0.179349 -0.082079 0.000000 -0.164688 -0.089128 0.000000 -0.148688 -0.095188 0.000000 -0.131882 -0.099994 0.000000 -0.114193 -0.104031 0.000000 -0.095955 -0.107063 0.000000 -0.077209 -0.109513 0.000000 -0.058131 -0.111199 0.000000 -0.038811 -0.112434 0.000000 -0.019333 -0.113074 0.000000 
0.000236 -0.132992 0.000000 0.020032 -0.132681 0.000000 0.039738 -0.131890 0.000000 0.059289 -0.130435 0.000000 0.078565 -0.128412 0.000000 0.097496 -0.125522 0.000000 0.115866 -0.121899 0.000000 0.133671 -0.117132 0.000000 0.150513 -0.111410 0.000000 0.166564 -0.104284 0.000000 0.181199 -0.095962 0.000000 0.194868 -0.086103 0.000000 0.206736 -0.074813 0.000000 0.217552 -0.062028 0.000000 0.226342 -0.047557 0.000000 0.233965 -0.031748 0.000000 0.239457 -0.013939 0.000000 0.243330 0.005021 0.000000 0.244911 0.026203 0.000000 0.243817 0.048208 0.000000 0.240125 0.071961 0.000000 0.232353 0.095616 0.000000 0.221659 0.118921 0.000000 0.206067 0.139949 0.000000 0.187456 0.156349 0.000000 0.164566 0.166628 0.000000 0.139292 0.167197 0.000000 0.112292 0.158297 0.000000 0.085040 0.138725 0.000000 0.059828 0.112812 0.000000 0.036918 0.085648 0.000000 0.017502 0.064956 0.000000 -0.000359 0.057274 0.000000 -0.017954 0.064754 0.000000 -0.037516 0.085353 0.000000 -0.060078 0.112357 0.000000 -0.085376 0.138395 0.000000 -0.112323 0.157877 0.000000 -0.139422 0.167103 0.000000 -0.164589 0.166365 0.000000 -0.187486 0.156420 0.000000 -0.206213 0.139797 0.000000 -0.221670 0.118962 0.000000 -0.232597 0.095502 0.000000 -0.240160 0.071874 0.000000 -0.244064 0.048089 0.000000 -0.244961 0.026006 0.000000 -0.243498 0.004870 0.000000 -0.239474 -0.014200 0.000000 -0.234010 -0.031936 0.000000 -0.226282 -0.047842 0.000000 -0.217465 -0.062238 0.000000 -0.206580 -0.075091 0.000000 -0.194664 -0.086318 0.000000 -0.180950 -0.096215 0.000000 -0.166262 -0.104485 0.000000 -0.150185 -0.111625 0.000000 -0.133294 -0.117305 0.000000 -0.115476 -0.122068 0.000000 -0.097065 -0.125654 0.000000 -0.078129 -0.128528 0.000000 -0.058821 -0.130517 0.000000 -0.039274 -0.131949 0.000000 -0.019547 -0.132709 0.000000 
0.000236 -0.152906 0.000000 0.020233 -0.152549 0.000000 0.040140 -0.151635 0.000000 0.059858 -0.149949 0.000000 0.079299 -0.147611 0.000000 0.098328 -0.144240 0.000000 0.116783 -0.140046 0.000000 0.134592 -0.134477 0.000000 0.151426 -0.127878 0.000000 0.167433 -0.119622 0.000000 0.182058 -0.110148 0.000000 0.195827 -0.098936 0.000000 0.207964 -0.086334 0.000000 0.219395 -0.072149 0.000000 0.229158 -0.056289 0.000000 0.238316 -0.039092 0.000000 0.245792 -0.019660 0.000000 0.252206 0.000929 0.000000 0.256637 0.024389 0.000000 0.258619 0.048733 0.000000 0.258037 0.075690 0.000000 0.253052 0.102650 0.000000 0.244990 0.129750 0.000000 0.231087 0.154718 0.000000 0.213757 0.174967 0.000000 0.191095 0.189207 0.000000 0.165458 0.192834 0.000000 0.137265 0.186305 0.000000 0.107469 0.167364 0.000000 0.078728 0.140794 0.000000 0.050475 0.111979 0.000000 0.024730 0.089607 0.000000 -0.000400 0.081296 0.000000 -0.025213 0.089341 0.000000 -0.051110 0.111570 0.000000 -0.078935 0.140197 0.000000 -0.107753 0.166908 0.000000 -0.137162 0.185767 0.000000 -0.165514 0.192732 0.000000 -0.191038 0.188884 0.000000 -0.213702 0.175120 0.000000 -0.231207 0.154565 0.000000 -0.244919 0.129871 0.000000 -0.253304 0.102571 0.000000 -0.258019 0.075625 0.000000 -0.258877 0.048640 0.000000 -0.256667 0.024153 0.000000 -0.252373 0.000761 0.000000 -0.245800 -0.020002 0.000000 -0.238343 -0.039339 0.000000 -0.229084 -0.056671 0.000000 -0.219279 -0.072440 0.000000 -0.207789 -0.086707 0.000000 -0.195591 -0.099231 0.000000 -0.181790 -0.110481 0.000000 -0.167105 -0.119892 0.000000 -0.151083 -0.128156 0.000000 -0.134198 -0.134703 0.000000 -0.116383 -0.140260 0.000000 -0.097886 -0.144410 0.000000 -0.078859 -0.147757 0.000000 -0.059386 -0.150054 0.000000 -0.039676 -0.151709 0.000000 -0.019746 -0.152585 0.000000 
0.000277 -0.172971 0.000000 0.020394 -0.172586 0.000000 0.040421 -0.171515 0.000000 0.060206 -0.169594 0.000000 0.079710 -0.166881 0.000000 0.098708 -0.163006 0.000000 0.117116 -0.158164 0.000000 0.134794 -0.151776 0.000000 0.151478 -0.144250 0.000000 0.167365 -0.134916 0.000000 0.181912 -0.124356 0.000000 0.195901 -0.112009 0.000000 0.208437 -0.098381 0.000000 0.220942 -0.083221 0.000000 0.232078 -0.066477 0.000000 0.243546 -0.048382 0.000000 0.253549 -0.027829 0.000000 0.263248 -0.005825 0.000000 0.270901 0.019789 0.000000 0.276174 0.046808 0.000000 0.278783 0.077528 0.000000 0.276288 0.108663 0.000000 0.271059 0.140886 0.000000 0.259390 0.171182 0.000000 0.244975 0.196340 0.000000 0.224619 0.214928 0.000000 0.200708 0.221028 0.000000 0.172774 0.216286 0.000000 0.140769 0.197261 0.000000 0.107508 0.169806 0.000000 0.071569 0.139646 0.000000 0.036043 0.115830 0.000000 -0.000434 0.107218 0.000000 -0.036561 0.115465 0.000000 -0.072246 0.139074 0.000000 -0.107668 0.169000 0.000000 -0.141021 0.196622 0.000000 -0.172505 0.215637 0.000000 -0.200697 0.220979 0.000000 -0.224418 0.214552 0.000000 -0.244781 0.196589 0.000000 -0.259445 0.171015 0.000000 -0.270841 0.141059 0.000000 -0.276580 0.108602 0.000000 -0.278729 0.077447 0.000000 -0.276529 0.046736 0.000000 -0.270996 0.019501 0.000000 -0.263512 -0.005997 0.000000 -0.253647 -0.028230 0.000000 -0.243635 -0.048652 0.000000 -0.232059 -0.066905 0.000000 -0.220833 -0.083533 0.000000 -0.208262 -0.098780 0.000000 -0.195625 -0.112316 0.000000 -0.181601 -0.124700 0.000000 -0.166968 -0.135192 0.000000 -0.151067 -0.144532 0.000000 -0.134317 -0.152005 0.000000 -0.116637 -0.158380 0.000000 -0.098182 -0.163178 0.000000 -0.079188 -0.167028 0.000000 -0.059649 -0.169700 0.000000 -0.039875 -0.171589 0.000000 -0.019823 -0.172622 0.000000 
0.000280 -0.193124 0.000000 0.020402 -0.192694 0.000000 0.040431 -0.191447 0.000000 0.060150 -0.189238 0.000000 0.079583 -0.186113 0.000000 0.098397 -0.181646 0.000000 0.116622 -0.176131 0.000000 0.134022 -0.168839 0.000000 0.150490 -0.160449 0.000000 0.166217 -0.150056 0.000000 0.180835 -0.138684 0.000000 0.195267 -0.125461 0.000000 0.208731 -0.111375 0.000000 0.222894 -0.095790 0.000000 0.236305 -0.078894 0.000000 0.250841 -0.060563 0.000000 0.264207 -0.039361 0.000000 0.277592 -0.016423 0.000000 0.288519 0.011462 0.000000 0.296722 0.040851 0.000000 0.301504 0.075576 0.000000 0.300478 0.110373 0.000000 0.296601 0.146648 0.000000 0.284690 0.180801 0.000000 0.269951 0.209738 0.000000 0.248117 0.233475 0.000000 0.223464 0.244679 0.000000 0.195163 0.246244 0.000000 0.161742 0.232631 0.000000 0.126753 0.209994 0.000000 0.086101 0.183444 0.000000 0.044232 0.161611 0.000000 -0.000475 0.153900 0.000000 -0.044762 0.161153 0.000000 -0.086791 0.182677 0.000000 -0.126818 0.208972 0.000000 -0.161832 0.231745 0.000000 -0.194560 0.245443 0.000000 -0.223376 0.244645 0.000000 -0.247820 0.232969 0.000000 -0.269607 0.210148 0.000000 -0.284689 0.180625 0.000000 -0.296178 0.147005 0.000000 -0.300761 0.110459 0.000000 -0.301327 0.075574 0.000000 -0.297076 0.040908 0.000000 -0.288591 0.011136 0.000000 -0.277856 -0.016589 0.000000 -0.264327 -0.039880 0.000000 -0.250921 -0.060928 0.000000 -0.236300 -0.079472 0.000000 -0.222763 -0.096237 0.000000 -0.208548 -0.111915 0.000000 -0.194957 -0.125892 0.000000 -0.180502 -0.139138 0.000000 -0.165786 -0.150426 0.000000 -0.150056 -0.160807 0.000000 -0.133518 -0.169133 0.000000 -0.116125 -0.176396 0.000000 -0.097852 -0.181859 0.000000 -0.079049 -0.186289 0.000000 -0.059582 -0.189367 0.000000 -0.039877 -0.191534 0.000000 -0.019823 -0.192737 0.000000 
0.000332 -0.213195 0.000000 0.020302 -0.212736 0.000000 0.040187 -0.211263 0.000000 0.059666 -0.208746 0.000000 0.078883 -0.205128 0.000000 0.097328 -0.200045 0.000000 0.115246 -0.193789 0.000000 0.132245 -0.185644 0.000000 0.148476 -0.176446 0.000000 0.164130 -0.165261 0.000000 0.179035 -0.153406 0.000000 0.194383 -0.139905 0.000000 0.209291 -0.126009 0.000000 0.225953 -0.110795 0.000000 0.242125 -0.094424 0.000000 0.260369 -0.076284 0.000000 0.276666 -0.054580 0.000000 0.293092 -0.030137 0.000000 0.305176 0.000659 0.000000 0.313568 0.033824 0.000000 0.317261 0.073771 0.000000 0.313223 0.113565 0.000000 0.307548 0.156674 0.000000 0.294059 0.197832 0.000000 0.281596 0.232914 0.000000 0.263262 0.261415 0.000000 0.243155 0.273982 0.000000 0.218770 0.278007 0.000000 0.186168 0.265671 0.000000 0.149922 0.245448 0.000000 0.103771 0.222168 0.000000 0.054120 0.202406 0.000000 -0.000463 0.196211 0.000000 -0.054626 0.201780 0.000000 -0.104440 0.221129 0.000000 -0.149896 0.244041 0.000000 -0.186150 0.264364 0.000000 -0.217799 0.277181 0.000000 -0.243083 0.274239 0.000000 -0.262757 0.260784 0.000000 -0.281006 0.233458 0.000000 -0.293904 0.197586 0.000000 -0.306719 0.157131 0.000000 -0.313539 0.113751 0.000000 -0.316960 0.073762 0.000000 -0.314041 0.034000 0.000000 -0.305367 0.000281 0.000000 -0.293495 -0.030262 0.000000 -0.276970 -0.055164 0.000000 -0.260562 -0.076679 0.000000 -0.242246 -0.095064 0.000000 -0.225860 -0.111285 0.000000 -0.209136 -0.126586 0.000000 -0.194032 -0.140362 0.000000 -0.178649 -0.153871 0.000000 -0.163606 -0.165638 0.000000 -0.147946 -0.176800 0.000000 -0.131628 -0.185935 0.000000 -0.114640 -0.194046 0.000000 -0.096669 -0.200254 0.000000 -0.078240 -0.205298 0.000000 -0.058989 -0.208873 0.000000 -0.039528 -0.211348 0.000000 -0.019619 -0.212779 0.000000 
0.000339 -0.233044 0.000000 0.019974 -0.232549 0.000000 0.039534 -0.230811 0.000000 0.058588 -0.227933 0.000000 0.077414 -0.223776 0.000000 0.095333 -0.218010 0.000000 0.112837 -0.211048 0.000000 0.129395 -0.202069 0.000000 0.145495 -0.192334 0.000000 0.161320 -0.180615 0.000000 0.177022 -0.168937 0.000000 0.193924 -0.155717 0.000000 0.211194 -0.142945 0.000000 0.231069 -0.128624 0.000000 0.250692 -0.113310 0.000000 0.272338 -0.095105 0.000000 0.290679 -0.072085 0.000000 0.307637 -0.044933 0.000000 0.317514 -0.009013 0.000000 0.322074 0.028766 0.000000 0.319893 0.075921 0.000000 0.310585 0.120086 0.000000 0.301709 0.165813 0.000000 0.282923 0.206754 0.000000 0.265622 0.240534 0.000000 0.240713 0.271916 0.000000 0.218968 0.289171 0.000000 0.197368 0.303231 0.000000 0.168411 0.301479 0.000000 0.139616 0.292391 0.000000 0.098028 0.279246 0.000000 0.052383 0.265845 0.000000 -0.000479 0.262646 0.000000 -0.052822 0.265129 0.000000 -0.098674 0.277947 0.000000 -0.139539 0.290682 0.000000 -0.167888 0.299648 0.000000 -0.195447 0.302377 0.000000 -0.219096 0.289603 0.000000 -0.240470 0.270891 0.000000 -0.264964 0.241294 0.000000 -0.282746 0.206338 0.000000 -0.300422 0.166641 0.000000 -0.310873 0.120700 0.000000 -0.319301 0.076077 0.000000 -0.322436 0.029315 0.000000 -0.317624 -0.009410 0.000000 -0.307951 -0.044986 0.000000 -0.291020 -0.072813 0.000000 -0.272511 -0.095651 0.000000 -0.250871 -0.114174 0.000000 -0.230979 -0.129347 0.000000 -0.211068 -0.143743 0.000000 -0.193562 -0.156379 0.000000 -0.176633 -0.169564 0.000000 -0.160771 -0.181130 0.000000 -0.144945 -0.192785 0.000000 -0.128750 -0.202439 0.000000 -0.112208 -0.211356 0.000000 -0.094650 -0.218259 0.000000 -0.076752 -0.223969 0.000000 -0.057894 -0.228078 0.000000 -0.038859 -0.230905 0.000000 -0.019278 -0.232597 0.000000 
0.000400 -0.252447 0.000000 0.019482 -0.251931 0.000000 0.038525 -0.249876 0.000000 0.056928 -0.246626 0.000000 0.075230 -0.241873 0.000000 0.092448 -0.235468 0.000000 0.109544 -0.227851 0.000000 0.125676 -0.218302 0.000000 0.141934 -0.208371 0.000000 0.158328 -0.196788 0.000000 0.175498 -0.186010 0.000000 0.194754 -0.174077 0.000000 0.215069 -0.163154 0.000000 0.238656 -0.150293 0.000000 0.260979 -0.135692 0.000000 0.284520 -0.116271 0.000000 0.300623 -0.089879 0.000000 0.313337 -0.056972 0.000000 0.313167 -0.013778 0.000000 0.306570 0.031445 0.000000 0.291099 0.085260 0.000000 0.264857 0.131750 0.000000 0.243519 0.184337 0.000000 0.216503 0.233918 0.000000 0.204284 0.275123 0.000000 0.190116 0.308068 0.000000 0.181722 0.317327 0.000000 0.172664 0.328564 0.000000 0.150494 0.323424 0.000000 0.128166 0.315831 0.000000 0.089911 0.309400 0.000000 0.048672 0.300912 0.000000 -0.000267 0.301416 0.000000 -0.048835 0.299975 0.000000 -0.090346 0.307846 0.000000 -0.128155 0.313256 0.000000 -0.149765 0.320272 0.000000 -0.169868 0.328389 0.000000 -0.182463 0.319263 0.000000 -0.189971 0.306651 0.000000 -0.203556 0.275734 0.000000 -0.216228 0.233045 0.000000 -0.241244 0.185258 0.000000 -0.265277 0.132630 0.000000 -0.290253 0.085326 0.000000 -0.307008 0.032323 0.000000 -0.313465 -0.014204 0.000000 -0.313712 -0.056866 0.000000 -0.301228 -0.090604 0.000000 -0.284815 -0.116827 0.000000 -0.261363 -0.136596 0.000000 -0.238645 -0.151088 0.000000 -0.215011 -0.164002 0.000000 -0.194364 -0.174797 0.000000 -0.175050 -0.186662 0.000000 -0.157667 -0.197326 0.000000 -0.141257 -0.208821 0.000000 -0.124886 -0.218672 0.000000 -0.108771 -0.228146 0.000000 -0.091621 -0.235710 0.000000 -0.074430 -0.242054 0.000000 -0.056102 -0.246766 0.000000 -0.037723 -0.249964 0.000000 -0.018663 -0.251977 0.000000 
0.000410 -0.271189 0.000000 0.018705 -0.270673 0.000000 0.037003 -0.268257 0.000000 0.054555 -0.264639 0.000000 0.072162 -0.259296 0.000000 0.088589 -0.252324 0.000000 0.105281 -0.244276 0.000000 0.121162 -0.234459 0.000000 0.137940 -0.224987 0.000000 0.155493 -0.214179 0.000000 0.174896 -0.205362 0.000000 0.197253 -0.195288 0.000000 0.221110 -0.186847 0.000000 0.247839 -0.174534 0.000000 0.271075 -0.159174 0.000000 0.291998 -0.134749 0.000000 0.300014 -0.100902 0.000000 0.299600 -0.057477 0.000000 0.281197 -0.002247 0.000000 0.255063 0.050835 0.000000 0.218275 0.117634 0.000000 0.181955 0.167665 0.000000 0.163351 0.214167 0.000000 0.134884 0.245989 0.000000 0.115106 0.266922 0.000000 0.083468 0.294477 0.000000 0.070335 0.306622 0.000000 0.068628 0.334459 0.000000 0.058088 0.345977 0.000000 0.060481 0.352974 0.000000 0.045627 0.358741 0.000000 0.027928 0.356023 0.000000 -0.000010 0.360152 0.000000 -0.027508 0.355209 0.000000 -0.045736 0.357267 0.000000 -0.061218 0.350100 0.000000 -0.056372 0.341361 0.000000 -0.062730 0.335075 0.000000 -0.072270 0.309707 0.000000 -0.085494 0.291984 0.000000 -0.115165 0.267551 0.000000 -0.135030 0.244027 0.000000 -0.160233 0.215689 0.000000 -0.182534 0.169709 0.000000 -0.216894 0.117808 0.000000 -0.255050 0.052526 0.000000 -0.281261 -0.002706 0.000000 -0.299530 -0.057222 0.000000 -0.300554 -0.101710 0.000000 -0.292136 -0.135517 0.000000 -0.271499 -0.160345 0.000000 -0.247848 -0.175699 0.000000 -0.221129 -0.188024 0.000000 -0.196912 -0.196340 0.000000 -0.174495 -0.206260 0.000000 -0.154850 -0.214922 0.000000 -0.137270 -0.225566 0.000000 -0.120363 -0.234926 0.000000 -0.104493 -0.244620 0.000000 -0.087744 -0.252600 0.000000 -0.071342 -0.259488 0.000000 -0.053712 -0.264786 0.000000 -0.036181 -0.268344 0.000000 -0.017870 -0.270719 0.000000 
0.000476 -0.289023 0.000000 0.017708 -0.288524 0.000000 0.035041 -0.285727 0.000000 0.051483 -0.281785 0.000000 0.068314 -0.275906 0.000000 0.083818 -0.268586 0.000000 0.100303 -0.260424 0.000000 0.116100 -0.250961 0.000000 0.134015 -0.242702 0.000000 0.153277 -0.233745 0.000000 0.175746 -0.227769 0.000000 0.201541 -0.220291 0.000000 0.228573 -0.213740 0.000000 0.256348 -0.200259 0.000000 0.275740 -0.179852 0.000000 0.287007 -0.145210 0.000000 0.276153 -0.097482 0.000000 0.254020 -0.038154 0.000000 0.205727 0.030759 0.000000 0.160686 0.094367 0.000000 0.107885 0.158369 0.000000 0.045246 0.186673 0.000000 0.005662 0.231407 0.000000 -0.028773 0.282163 0.000000 -0.016487 0.326539 0.000000 0.000684 0.352840 0.000000 0.018518 0.332167 0.000000 0.029192 0.340811 0.000000 0.022168 0.331571 0.000000 0.024468 0.328293 0.000000 0.016984 0.341954 0.000000 0.011085 0.346550 0.000000 0.001340 0.356852 0.000000 -0.009705 0.345701 0.000000 -0.014563 0.341557 0.000000 -0.024240 0.323891 0.000000 -0.023015 0.321784 0.000000 -0.024164 0.344287 0.000000 -0.021651 0.342026 0.000000 -0.001706 0.349547 0.000000 0.015828 0.325270 0.000000 0.027484 0.278112 0.000000 -0.000737 0.232763 0.000000 -0.046649 0.189291 0.000000 -0.106483 0.157841 0.000000 -0.160625 0.096690 0.000000 -0.206294 0.030277 0.000000 -0.253652 -0.037573 0.000000 -0.276902 -0.097999 0.000000 -0.287113 -0.145883 0.000000 -0.276311 -0.180884 0.000000 -0.256416 -0.201458 0.000000 -0.228645 -0.214938 0.000000 -0.201172 -0.221431 0.000000 -0.175262 -0.228725 0.000000 -0.152499 -0.234551 0.000000 -0.133182 -0.243307 0.000000 -0.115126 -0.251449 0.000000 -0.099338 -0.260765 0.000000 -0.082805 -0.268861 0.000000 -0.067333 -0.276087 0.000000 -0.050494 -0.281926 0.000000 -0.034078 -0.285805 0.000000 -0.016743 -0.288568 0.000000 