# vtk DataFile Version 2.0
Comment goes here
ASCII

DATASET STRUCTURED_POINTS
FIELD FieldData 1
TIME 1 1 double
0.07000000
DIMENSIONS    64   64   1

ORIGIN    0.000   0.000   0.000
SPACING   0.015625 0.015625   1.000

POINT_DATA   4096
VECTORS u double

-0.000006 0.000000 0.000000 0.057704 0.000000 0.000000 0.115526 -0.000000 0.000000 0.173597 -0.000000 0.000000 0.231960 -0.000000 0.000000 0.290725 -0.000000 0.000000 0.349830 -0.000000 0.000000 0.409287 -0.000000 0.000000 0.468896 -0.000000 0.000000 0.528493 0.000000 0.000000 0.587710 0.000000 0.000000 0.646117 0.000000 0.000000 0.703148 0.000000 0.000000 0.758024 0.000000 0.000000 0.809972 0.000000 0.000000 0.857798 0.000000 0.000000 0.900552 0.000000 0.000000 0.936611 0.000000 0.000000 0.964946 0.000000 0.000000 0.983575 0.000000 0.000000 0.991574 -0.000000 0.000000 0.986796 0.000000 0.000000 0.968672 -0.000000 0.000000 0.935218 -0.000000 0.000000 0.886480 -0.000000 0.000000 0.821091 -0.000000 0.000000 0.739974 -0.000000 0.000000 0.642983 -0.000000 0.000000 0.532286 -0.000000 0.000000 0.409497 -0.000000 0.000000 0.277922 -0.000000 0.000000 0.140372 -0.000000 0.000000 0.000002 -0.000000 0.000000 -0.140292 -0.000000 0.000000 -0.277905 -0.000000 0.000000 -0.409410 -0.000000 0.000000 -0.532247 -0.000000 0.000000 -0.642904 0.000000 0.000000 -0.739927 0.000000 0.000000 -0.821043 0.000000 0.000000 -0.886446 0.000000 0.000000 -0.935209 -0.000000 0.000000 -0.968659 -0.000000 0.000000 -0.986819 -0.000000 0.000000 -0.991578 0.000000 0.000000 -0.983616 -0.000000 0.000000 -0.964959 0.000000 0.000000 -0.936658 -0.000000 0.000000 -0.900571 0.000000 0.000000 -0.857842 -0.000000 0.000000 -0.809991 0.000000 0.000000 -0.758061 0.000000 0.000000 -0.703167 0.000000 0.000000 -0.646147 0.000000 0.000000 -0.587727 0.000000 0.000000 -0.528517 0.000000 0.000000 -0.468911 0.000000 0.000000 -0.409305 0.000000 0.000000 -0.349844 0.000000 0.000000 -0.290740 0.000000 0.000000 -0.231974 0.000000 0.000000 -0.173609 0.000000 0.000000 -0.115538 0.000000 0.000000 -0.057715 0.000000 0.000000 
-0.000006 -0.057710 0.000000 0.057642 -0.057766 0.000000 0.115404 -0.057946 0.000000 0.173431 -0.058217 0.000000 0.231762 -0.058564 0.000000 0.290525 -0.058935 0.000000 0.349650 -0.059281 0.000000 0.409172 -0.059533 0.000000 0.468881 -0.059603 0.000000 0.528639 -0.059407 0.000000 0.588065 -0.058812 0.000000 0.646751 -0.057719 0.000000 0.704128 -0.055954 0.000000 0.759421 -0.053412 0.000000 0.811863 -0.049887 0.000000 0.860243 -0.045290 0.000000 0.903627 -0.039407 0.000000 0.940347 -0.032197 0.000000 0.969390 -0.023482 0.000000 0.988718 -0.013314 0.000000 0.997402 -0.001611 0.000000 0.993249 0.011451 0.000000 0.975644 0.025789 0.000000 0.942587 0.041096 0.000000 0.894039 0.057064 0.000000 0.828615 0.073253 0.000000 0.747162 0.089054 0.000000 0.649499 0.103844 0.000000 0.537792 0.116743 0.000000 0.413722 0.127182 0.000000 0.280732 0.134562 0.000000 0.141749 0.138960 0.000000 -0.000016 0.140332 0.000000 -0.141705 0.138954 0.000000 -0.280749 0.134559 0.000000 -0.413665 0.127171 0.000000 -0.537777 0.116747 0.000000 -0.649439 0.103840 0.000000 -0.747125 0.089069 0.000000 -0.828574 0.073260 0.000000 -0.894003 0.057083 0.000000 -0.942573 0.041107 0.000000 -0.975620 0.025805 0.000000 -0.993259 0.011459 0.000000 -0.997390 -0.001601 0.000000 -0.988743 -0.013309 0.000000 -0.969388 -0.023479 0.000000 -0.940378 -0.032194 0.000000 -0.903632 -0.039408 0.000000 -0.860274 -0.045290 0.000000 -0.811872 -0.049890 0.000000 -0.759448 -0.053412 0.000000 -0.704139 -0.055957 0.000000 -0.646775 -0.057720 0.000000 -0.588077 -0.058815 0.000000 -0.528658 -0.059408 0.000000 -0.468894 -0.059606 0.000000 -0.409188 -0.059534 0.000000 -0.349663 -0.059282 0.000000 -0.290539 -0.058935 0.000000 -0.231775 -0.058565 0.000000 -0.173443 -0.058218 0.000000 -0.115416 -0.057947 0.000000 -0.057652 -0.057766 0.000000 
-0.000006 -0.115294 0.000000 0.057468 -0.115410 0.000000 0.115074 -0.115789 0.000000 0.172979 -0.116359 0.000000 0.231243 -0.117094 0.000000 0.290009 -0.117888 0.000000 0.349232 -0.118647 0.000000 0.408964 -0.119231 0.000000 0.469022 -0.119467 0.000000 0.529285 -0.119184 0.000000 0.589399 -0.118113 0.000000 0.648975 -0.116063 0.000000 0.707455 -0.112669 0.000000 0.764090 -0.107735 0.000000 0.818094 -0.100822 0.000000 0.868278 -0.091764 0.000000 0.913644 -0.080104 0.000000 0.952534 -0.065764 0.000000 0.983825 -0.048372 0.000000 1.005441 -0.028011 0.000000 1.016324 -0.004530 0.000000 1.014159 0.021758 0.000000 0.998225 0.050662 0.000000 0.966281 0.081605 0.000000 0.918209 0.113972 0.000000 0.852322 0.146877 0.000000 0.769412 0.179116 0.000000 0.669172 0.209370 0.000000 0.553973 0.235777 0.000000 0.425786 0.257060 0.000000 0.288545 0.271973 0.000000 0.145527 0.280748 0.000000 -0.000004 0.283454 0.000000 -0.145450 0.280733 0.000000 -0.288534 0.271960 0.000000 -0.425693 0.257028 0.000000 -0.553928 0.235774 0.000000 -0.669083 0.209348 0.000000 -0.769352 0.179135 0.000000 -0.852270 0.146878 0.000000 -0.918170 0.113999 0.000000 -0.966275 0.081617 0.000000 -0.998213 0.050686 0.000000 -1.014189 0.021770 0.000000 -1.016331 -0.004515 0.000000 -1.005488 -0.028002 0.000000 -0.983842 -0.048366 0.000000 -0.952585 -0.065757 0.000000 -0.913664 -0.080104 0.000000 -0.868324 -0.091759 0.000000 -0.818114 -0.100826 0.000000 -0.764128 -0.107733 0.000000 -0.707474 -0.112674 0.000000 -0.649005 -0.116062 0.000000 -0.589415 -0.118117 0.000000 -0.529308 -0.119183 0.000000 -0.469037 -0.119470 0.000000 -0.408982 -0.119231 0.000000 -0.349246 -0.118649 0.000000 -0.290023 -0.117888 0.000000 -0.231256 -0.117096 0.000000 -0.172991 -0.116359 0.000000 -0.115086 -0.115790 0.000000 -0.057478 -0.115410 0.000000 
-0.000006 -0.172656 0.000000 0.057146 -0.172846 0.000000 0.114455 -0.173457 0.000000 0.172126 -0.174387 0.000000 0.230234 -0.175594 0.000000 0.288973 -0.176924 0.000000 0.348307 -0.178235 0.000000 0.408353 -0.179323 0.000000 0.468930 -0.179924 0.000000 0.529993 -0.179784 0.000000 0.591187 -0.178502 0.000000 0.652195 -0.175776 0.000000 0.712456 -0.171069 0.000000 0.771268 -0.164050 0.000000 0.827835 -0.154075 0.000000 0.880961 -0.140840 0.000000 0.929625 -0.123663 0.000000 0.972075 -0.102378 0.000000 1.007133 -0.076389 0.000000 1.032537 -0.045814 0.000000 1.047111 -0.010329 0.000000 1.048293 0.029550 0.000000 1.035142 0.073667 0.000000 1.005145 0.121112 0.000000 0.957871 0.171023 0.000000 0.891341 0.222050 0.000000 0.806147 0.272204 0.000000 0.701786 0.319283 0.000000 0.580848 0.360128 0.000000 0.445777 0.392610 0.000000 0.301396 0.414822 0.000000 0.151661 0.427508 0.000000 -0.000031 0.431309 0.000000 -0.151630 0.427484 0.000000 -0.301432 0.414802 0.000000 -0.445711 0.392564 0.000000 -0.580824 0.360136 0.000000 -0.701706 0.319265 0.000000 -0.806086 0.272257 0.000000 -0.891291 0.222077 0.000000 -0.957823 0.171088 0.000000 -1.005134 0.121150 0.000000 -1.035116 0.073719 0.000000 -1.048313 0.029578 0.000000 -1.047102 -0.010302 0.000000 -1.032571 -0.045799 0.000000 -1.007134 -0.076383 0.000000 -0.972112 -0.102372 0.000000 -0.929632 -0.123669 0.000000 -0.880995 -0.140840 0.000000 -0.827846 -0.154086 0.000000 -0.771296 -0.164052 0.000000 -0.712469 -0.171080 0.000000 -0.652219 -0.175778 0.000000 -0.591200 -0.178512 0.000000 -0.530012 -0.179786 0.000000 -0.468943 -0.179932 0.000000 -0.408368 -0.179325 0.000000 -0.348320 -0.178241 0.000000 -0.288986 -0.176925 0.000000 -0.230246 -0.175598 0.000000 -0.172137 -0.174387 0.000000 -0.114467 -0.173459 0.000000 -0.057156 -0.172846 0.000000 
-0.000006 -0.229596 0.000000 0.056667 -0.229871 0.000000 0.113533 -0.230770 0.000000 0.170843 -0.232137 0.000000 0.228706 -0.233941 0.000000 0.287368 -0.235961 0.000000 0.346834 -0.238026 0.000000 0.407276 -0.239854 0.000000 0.468562 -0.241107 0.000000 0.530708 -0.241440 0.000000 0.593407 -0.240315 0.000000 0.656409 -0.237333 0.000000 0.719182 -0.231742 0.000000 0.781085 -0.223114 0.000000 0.841303 -0.210515 0.000000 0.898688 -0.193554 0.000000 0.952102 -0.171218 0.000000 0.999796 -0.143271 0.000000 1.040357 -0.108833 0.000000 1.071419 -0.067990 0.000000 1.091476 -0.020287 0.000000 1.097645 0.033728 0.000000 1.088646 0.093810 0.000000 1.061323 0.158875 0.000000 1.014974 0.227776 0.000000 0.946866 0.298601 0.000000 0.857478 0.368671 0.000000 0.746185 0.434669 0.000000 0.616243 0.491786 0.000000 0.471048 0.536513 0.000000 0.316880 0.566089 0.000000 0.158745 0.582174 0.000000 -0.000029 0.586744 0.000000 -0.158690 0.582133 0.000000 -0.316894 0.566041 0.000000 -0.470931 0.536421 0.000000 -0.616171 0.491769 0.000000 -0.746052 0.434610 0.000000 -0.857371 0.368720 0.000000 -0.946803 0.298614 0.000000 -1.014922 0.227842 0.000000 -1.061333 0.158909 0.000000 -1.088643 0.093865 0.000000 -1.097700 0.033756 0.000000 -1.091495 -0.020257 0.000000 -1.071487 -0.067970 0.000000 -1.040383 -0.108825 0.000000 -0.999859 -0.143258 0.000000 -0.952127 -0.171221 0.000000 -0.898738 -0.193546 0.000000 -0.841326 -0.210524 0.000000 -0.781123 -0.223110 0.000000 -0.719201 -0.231751 0.000000 -0.656438 -0.237331 0.000000 -0.593424 -0.240324 0.000000 -0.530729 -0.241440 0.000000 -0.468577 -0.241114 0.000000 -0.407291 -0.239855 0.000000 -0.346847 -0.238031 0.000000 -0.287380 -0.235961 0.000000 -0.228719 -0.233945 0.000000 -0.170852 -0.232138 0.000000 -0.113545 -0.230771 0.000000 -0.056675 -0.229871 0.000000 
-0.000006 -0.285998 0.000000 0.055973 -0.286385 0.000000 0.112189 -0.287633 0.000000 0.168955 -0.289560 0.000000 0.226411 -0.292120 0.000000 0.284890 -0.295051 0.000000 0.344414 -0.298143 0.000000 0.405272 -0.301051 0.000000 0.467345 -0.303357 0.000000 0.530786 -0.304629 0.000000 0.595296 -0.304203 0.000000 0.660771 -0.301550 0.000000 0.726677 -0.295744 0.000000 0.792495 -0.286172 0.000000 0.857395 -0.271677 0.000000 0.920255 -0.251639 0.000000 0.979894 -0.224772 0.000000 1.034422 -0.190633 0.000000 1.082306 -0.148011 0.000000 1.120798 -0.096933 0.000000 1.148113 -0.036556 0.000000 1.160746 0.032380 0.000000 1.156821 0.109989 0.000000 1.132507 0.194785 0.000000 1.086374 0.285480 0.000000 1.015363 0.379545 0.000000 0.920038 0.472885 0.000000 0.799681 0.560519 0.000000 0.658261 0.635265 0.000000 0.500290 0.691973 0.000000 0.334119 0.727125 0.000000 0.166265 0.744417 0.000000 -0.000079 0.748744 0.000000 -0.166293 0.744350 0.000000 -0.334216 0.727044 0.000000 -0.500201 0.691842 0.000000 -0.658205 0.635256 0.000000 -0.799536 0.560464 0.000000 -0.919900 0.473008 0.000000 -1.015295 0.379629 0.000000 -1.086302 0.285618 0.000000 -1.132512 0.194871 0.000000 -1.156798 0.110086 0.000000 -1.160792 0.032430 0.000000 -1.148112 -0.036515 0.000000 -1.120854 -0.096911 0.000000 -1.082314 -0.148011 0.000000 -1.034471 -0.190628 0.000000 -0.979908 -0.224790 0.000000 -0.920294 -0.251642 0.000000 -0.857409 -0.271701 0.000000 -0.792525 -0.286177 0.000000 -0.726692 -0.295766 0.000000 -0.660793 -0.301555 0.000000 -0.595311 -0.304221 0.000000 -0.530804 -0.304634 0.000000 -0.467359 -0.303370 0.000000 -0.405286 -0.301054 0.000000 -0.344427 -0.298152 0.000000 -0.284900 -0.295054 0.000000 -0.226424 -0.292126 0.000000 -0.168964 -0.289561 0.000000 -0.112201 -0.287636 0.000000 -0.055981 -0.286386 0.000000 
-0.000005 -0.341550 0.000000 0.055031 -0.342066 0.000000 0.110359 -0.343752 0.000000 0.166356 -0.346359 0.000000 0.223216 -0.349876 0.000000 0.281347 -0.353963 0.000000 0.340836 -0.358409 0.000000 0.402063 -0.362786 0.000000 0.464985 -0.366621 0.000000 0.529864 -0.369392 0.000000 0.596489 -0.370299 0.000000 0.664871 -0.368714 0.000000 0.734562 -0.363466 0.000000 0.805152 -0.353831 0.000000 0.875834 -0.338275 0.000000 0.945580 -0.316053 0.000000 1.013063 -0.285384 0.000000 1.076426 -0.245683 0.000000 1.133688 -0.195210 0.000000 1.181925 -0.133798 0.000000 1.218524 -0.060235 0.000000 1.239249 0.025020 0.000000 1.241233 0.122049 0.000000 1.219250 0.229322 0.000000 1.171632 0.344920 0.000000 1.094275 0.464937 0.000000 0.988303 0.584354 0.000000 0.853939 0.696446 0.000000 0.697154 0.791177 0.000000 0.524462 0.860655 0.000000 0.346518 0.900114 0.000000 0.170962 0.916372 0.000000 -0.000119 0.919302 0.000000 -0.171020 0.916270 0.000000 -0.346614 0.899949 0.000000 -0.524278 0.860410 0.000000 -0.697001 0.791104 0.000000 -0.853667 0.696305 0.000000 -0.988044 0.584480 0.000000 -1.094195 0.465017 0.000000 -1.171574 0.345058 0.000000 -1.219307 0.229406 0.000000 -1.241265 0.122146 0.000000 -1.239361 0.025069 0.000000 -1.218570 -0.060195 0.000000 -1.182033 -0.133767 0.000000 -1.133732 -0.195208 0.000000 -1.076507 -0.245665 0.000000 -1.013097 -0.285398 0.000000 -0.945636 -0.316044 0.000000 -0.875859 -0.338293 0.000000 -0.805188 -0.353827 0.000000 -0.734581 -0.363483 0.000000 -0.664895 -0.368713 0.000000 -0.596505 -0.370313 0.000000 -0.529880 -0.369392 0.000000 -0.464999 -0.366632 0.000000 -0.402074 -0.362787 0.000000 -0.340848 -0.358417 0.000000 -0.281355 -0.353964 0.000000 -0.223227 -0.349881 0.000000 -0.166363 -0.346360 0.000000 -0.110370 -0.343754 0.000000 -0.055037 -0.342067 0.000000 
-0.000006 -0.396066 0.000000 0.053771 -0.396750 0.000000 0.107896 -0.398958 0.000000 0.162831 -0.402416 0.000000 0.218808 -0.407111 0.000000 0.276358 -0.412671 0.000000 0.335593 -0.418859 0.000000 0.397061 -0.425201 0.000000 0.460742 -0.431158 0.000000 0.527111 -0.436133 0.000000 0.595978 -0.439210 0.000000 0.667607 -0.439623 0.000000 0.741564 -0.436025 0.000000 0.817687 -0.427444 0.000000 0.895164 -0.412106 0.000000 0.973103 -0.388868 0.000000 1.050118 -0.355617 0.000000 1.124157 -0.311258 0.000000 1.192997 -0.253510 0.000000 1.252819 -0.181768 0.000000 1.300213 -0.093879 0.000000 1.329166 0.009671 0.000000 1.335203 0.129989 0.000000 1.311888 0.264387 0.000000 1.256552 0.410455 0.000000 1.166766 0.562875 0.000000 1.046455 0.713221 0.000000 0.897049 0.851667 0.000000 0.726357 0.964742 0.000000 0.542248 1.042608 0.000000 0.356526 1.080624 0.000000 0.175583 1.091054 0.000000 -0.000196 1.090726 0.000000 -0.175799 1.090844 0.000000 -0.356779 1.080302 0.000000 -0.542062 1.042229 0.000000 -0.726183 0.964646 0.000000 -0.896685 0.851507 0.000000 -1.046075 0.713536 0.000000 -1.166688 0.563159 0.000000 -1.256476 0.410730 0.000000 -1.311947 0.264561 0.000000 -1.335216 0.130141 0.000000 -1.329272 0.009735 0.000000 -1.300232 -0.093843 0.000000 -1.252911 -0.181749 0.000000 -1.193021 -0.253537 0.000000 -1.124221 -0.311262 0.000000 -1.050141 -0.355661 0.000000 -0.973146 -0.388880 0.000000 -0.895184 -0.412148 0.000000 -0.817716 -0.427455 0.000000 -0.741582 -0.436059 0.000000 -0.667627 -0.439632 0.000000 -0.595993 -0.439235 0.000000 -0.527125 -0.436139 0.000000 -0.460756 -0.431176 0.000000 -0.397072 -0.425205 0.000000 -0.335606 -0.418871 0.000000 -0.276366 -0.412674 0.000000 -0.218820 -0.407118 0.000000 -0.162838 -0.402418 0.000000 -0.107908 -0.398962 0.000000 -0.053777 -0.396751 0.000000 
-0.000005 -0.449098 0.000000 0.052139 -0.449968 0.000000 0.104694 -0.452812 0.000000 0.158204 -0.457271 0.000000 0.212961 -0.463402 0.000000 0.269600 -0.470748 0.000000 0.328308 -0.479112 0.000000 0.389766 -0.487934 0.000000 0.454056 -0.496670 0.000000 0.521814 -0.504628 0.000000 0.593003 -0.510796 0.000000 0.668059 -0.514300 0.000000 0.746742 -0.513546 0.000000 0.829063 -0.507430 0.000000 0.914367 -0.493691 0.000000 1.001911 -0.471007 0.000000 1.090178 -0.436438 0.000000 1.177124 -0.388562 0.000000 1.259530 -0.323872 0.000000 1.332940 -0.241013 0.000000 1.391403 -0.136582 0.000000 1.426963 -0.009970 0.000000 1.432556 0.139327 0.000000 1.400114 0.307973 0.000000 1.329565 0.490041 0.000000 1.218583 0.675034 0.000000 1.074472 0.854071 0.000000 0.904396 1.016545 0.000000 0.722204 1.145979 0.000000 0.537068 1.230485 0.000000 0.355946 1.266779 0.000000 0.177521 1.273094 0.000000 -0.000350 1.270683 0.000000 -0.177939 1.272854 0.000000 -0.356239 1.266212 0.000000 -0.536659 1.229815 0.000000 -0.721816 1.145727 0.000000 -0.903689 1.016197 0.000000 -1.073760 0.854483 0.000000 -1.218573 0.675417 0.000000 -1.329628 0.490316 0.000000 -1.400314 0.308146 0.000000 -1.432707 0.139471 0.000000 -1.427194 -0.009915 0.000000 -1.391501 -0.136556 0.000000 -1.333108 -0.240977 0.000000 -1.259598 -0.323898 0.000000 -1.177222 -0.388545 0.000000 -1.090219 -0.436473 0.000000 -1.001964 -0.471001 0.000000 -0.914391 -0.493723 0.000000 -0.829092 -0.507429 0.000000 -0.746759 -0.513572 0.000000 -0.668075 -0.514301 0.000000 -0.593016 -0.510816 0.000000 -0.521824 -0.504630 0.000000 -0.454067 -0.496685 0.000000 -0.389771 -0.487936 0.000000 -0.328318 -0.479122 0.000000 -0.269604 -0.470750 0.000000 -0.212971 -0.463409 0.000000 -0.158207 -0.457273 0.000000 -0.104704 -0.452815 0.000000 -0.052141 -0.449969 0.000000 
-0.000005 -0.500346 0.000000 0.050058 -0.501449 0.000000 0.100594 -0.505023 0.000000 0.152241 -0.510683 0.000000 0.205333 -0.518507 0.000000 0.260649 -0.528019 0.000000 0.318408 -0.539024 0.000000 0.379504 -0.550948 0.000000 0.444051 -0.563206 0.000000 0.512988 -0.575080 0.000000 0.586311 -0.585454 0.000000 0.664859 -0.593362 0.000000 0.748431 -0.597029 0.000000 0.837503 -0.595068 0.000000 0.931437 -0.584954 0.000000 1.029844 -0.564680 0.000000 1.131035 -0.530830 0.000000 1.232549 -0.480610 0.000000 1.330211 -0.409326 0.000000 1.416873 -0.313641 0.000000 1.483877 -0.187903 0.000000 1.518266 -0.031483 0.000000 1.510754 0.156838 0.000000 1.453849 0.367378 0.000000 1.347957 0.591986 0.000000 1.202311 0.817967 0.000000 1.037093 1.027408 0.000000 0.862318 1.203935 0.000000 0.691696 1.332070 0.000000 0.525977 1.408867 0.000000 0.360318 1.440171 0.000000 0.184797 1.447350 0.000000 -0.000528 1.446187 0.000000 -0.185759 1.446733 0.000000 -0.361114 1.439022 0.000000 -0.525442 1.407807 0.000000 -0.691132 1.331675 0.000000 -0.861345 1.203450 0.000000 -1.036102 1.028421 0.000000 -1.202509 0.819027 0.000000 -1.348117 0.592471 0.000000 -1.454052 0.367640 0.000000 -1.510916 0.157021 0.000000 -1.518494 -0.031470 0.000000 -1.483936 -0.187930 0.000000 -1.417016 -0.313652 0.000000 -1.330257 -0.409423 0.000000 -1.232623 -0.480641 0.000000 -1.131067 -0.530919 0.000000 -1.029884 -0.564708 0.000000 -0.931460 -0.585021 0.000000 -0.837528 -0.595088 0.000000 -0.748449 -0.597076 0.000000 -0.664874 -0.593375 0.000000 -0.586327 -0.585487 0.000000 -0.512998 -0.575088 0.000000 -0.444065 -0.563228 0.000000 -0.379511 -0.550954 0.000000 -0.318420 -0.539038 0.000000 -0.260653 -0.528022 0.000000 -0.205344 -0.518516 0.000000 -0.152244 -0.510685 0.000000 -0.100604 -0.505027 0.000000 -0.050060 -0.501449 0.000000 
-0.000004 -0.549217 0.000000 0.047462 -0.550567 0.000000 0.095461 -0.554994 0.000000 0.144720 -0.562010 0.000000 0.195625 -0.571811 0.000000 0.249084 -0.583823 0.000000 0.305380 -0.597968 0.000000 0.365585 -0.613578 0.000000 0.429926 -0.630154 0.000000 0.499569 -0.646888 0.000000 0.574724 -0.662667 0.000000 0.656480 -0.676420 0.000000 0.745003 -0.686190 0.000000 0.840998 -0.690437 0.000000 0.944264 -0.686031 0.000000 1.054488 -0.670605 0.000000 1.169829 -0.639144 0.000000 1.287133 -0.587737 0.000000 1.399417 -0.508196 0.000000 1.496652 -0.394680 0.000000 1.562627 -0.237975 0.000000 1.581505 -0.036847 0.000000 1.541392 0.203745 0.000000 1.440828 0.470769 0.000000 1.297873 0.741579 0.000000 1.123141 0.985898 0.000000 0.942409 1.194063 0.000000 0.775782 1.361942 0.000000 0.634346 1.482320 0.000000 0.500037 1.561863 0.000000 0.353604 1.607959 0.000000 0.184693 1.633940 0.000000 -0.000792 1.641239 0.000000 -0.186143 1.633439 0.000000 -0.354659 1.605895 0.000000 -0.498943 1.559833 0.000000 -0.633284 1.481630 0.000000 -0.774026 1.361167 0.000000 -0.940676 1.195647 0.000000 -1.124186 0.987432 0.000000 -1.298764 0.741859 0.000000 -1.441254 0.470945 0.000000 -1.541839 0.203913 0.000000 -1.581948 -0.036895 0.000000 -1.562791 -0.238035 0.000000 -1.496878 -0.394657 0.000000 -1.399507 -0.508291 0.000000 -1.287224 -0.587735 0.000000 -1.169864 -0.639212 0.000000 -1.054521 -0.670608 0.000000 -0.944279 -0.686079 0.000000 -0.841008 -0.690440 0.000000 -0.745012 -0.686225 0.000000 -0.656482 -0.676423 0.000000 -0.574732 -0.662692 0.000000 -0.499568 -0.646891 0.000000 -0.429935 -0.630173 0.000000 -0.365583 -0.613581 0.000000 -0.305388 -0.597980 0.000000 -0.249082 -0.583826 0.000000 -0.195634 -0.571819 0.000000 -0.144719 -0.562012 0.000000 -0.095469 -0.554998 0.000000 -0.047460 -0.550568 0.000000 
-0.000005 -0.595268 0.000000 0.044280 -0.596913 0.000000 0.089151 -0.602282 0.000000 0.135424 -0.610848 0.000000 0.183520 -0.622871 0.000000 0.234493 -0.637773 0.000000 0.288655 -0.655525 0.000000 0.347318 -0.675495 0.000000 0.410743 -0.697191 0.000000 0.480478 -0.719877 0.000000 0.556776 -0.742366 0.000000 0.641310 -0.763642 0.000000 0.734299 -0.781546 0.000000 0.837233 -0.794330 0.000000 0.949849 -0.798444 0.000000 1.072440 -0.790245 0.000000 1.202179 -0.763476 0.000000 1.334423 -0.710198 0.000000 1.458316 -0.618844 0.000000 1.556314 -0.476850 0.000000 1.606068 -0.272756 0.000000 1.585225 -0.010249 0.000000 1.492997 0.297515 0.000000 1.339582 0.610898 0.000000 1.145003 0.909673 0.000000 0.965646 1.173431 0.000000 0.850595 1.374767 0.000000 0.766948 1.511998 0.000000 0.675200 1.607815 0.000000 0.547270 1.689609 0.000000 0.383767 1.755515 0.000000 0.198022 1.801745 0.000000 -0.000333 1.817023 0.000000 -0.199258 1.800600 0.000000 -0.385500 1.751822 0.000000 -0.545876 1.686432 0.000000 -0.673786 1.606758 0.000000 -0.764721 1.510842 0.000000 -0.849231 1.378581 0.000000 -0.968713 1.177115 0.000000 -1.146296 0.909538 0.000000 -1.339453 0.610715 0.000000 -1.493329 0.297715 0.000000 -1.585700 -0.010518 0.000000 -1.606155 -0.272999 0.000000 -1.556455 -0.476937 0.000000 -1.458381 -0.619077 0.000000 -1.334471 -0.710283 0.000000 -1.202210 -0.763622 0.000000 -1.072463 -0.790293 0.000000 -0.949870 -0.798534 0.000000 -0.837245 -0.794355 0.000000 -0.734318 -0.781602 0.000000 -0.641315 -0.763655 0.000000 -0.556792 -0.742401 0.000000 -0.480480 -0.719885 0.000000 -0.410757 -0.697213 0.000000 -0.347319 -0.675500 0.000000 -0.288666 -0.655539 0.000000 -0.234492 -0.637777 0.000000 -0.183531 -0.622880 0.000000 -0.135423 -0.610849 0.000000 -0.089161 -0.602286 0.000000 -0.044279 -0.596914 0.000000 
-0.000003 -0.637776 0.000000 0.040448 -0.639723 0.000000 0.081527 -0.646138 0.000000 0.124130 -0.656379 0.000000 0.168700 -0.670879 0.000000 0.216431 -0.688958 0.000000 0.267659 -0.710793 0.000000 0.323919 -0.735666 0.000000 0.385545 -0.763314 0.000000 0.454391 -0.792920 0.000000 0.530939 -0.823499 0.000000 0.617211 -0.853943 0.000000 0.713968 -0.882114 0.000000 0.822900 -0.905987 0.000000 0.944539 -0.921238 0.000000 1.078488 -0.922936 0.000000 1.221271 -0.901127 0.000000 1.364590 -0.843874 0.000000 1.491040 -0.730086 0.000000 1.574679 -0.542431 0.000000 1.581205 -0.266886 0.000000 1.501883 0.076225 0.000000 1.346784 0.449388 0.000000 1.173459 0.818763 0.000000 1.070327 1.115514 0.000000 1.034547 1.280306 0.000000 0.991883 1.392762 0.000000 0.895287 1.537337 0.000000 0.744200 1.701998 0.000000 0.565974 1.853297 0.000000 0.376771 1.957207 0.000000 0.189448 2.018040 0.000000 0.000802 2.038520 0.000000 -0.190536 2.018606 0.000000 -0.381160 1.952513 0.000000 -0.566937 1.848119 0.000000 -0.744854 1.700475 0.000000 -0.893365 1.536612 0.000000 -0.991182 1.399639 0.000000 -1.040458 1.284497 0.000000 -1.072738 1.112599 0.000000 -1.171998 0.817978 0.000000 -1.346682 0.450160 0.000000 -1.502793 0.075931 0.000000 -1.581445 -0.267279 0.000000 -1.574814 -0.542431 0.000000 -1.491105 -0.730275 0.000000 -1.364596 -0.843906 0.000000 -1.221261 -0.901220 0.000000 -1.078467 -0.922947 0.000000 -0.944528 -0.921298 0.000000 -0.822877 -0.905993 0.000000 -0.713966 -0.882155 0.000000 -0.617193 -0.853949 0.000000 -0.530942 -0.823527 0.000000 -0.454377 -0.792926 0.000000 -0.385550 -0.763334 0.000000 -0.323909 -0.735672 0.000000 -0.267666 -0.710807 0.000000 -0.216423 -0.688962 0.000000 -0.168707 -0.670888 0.000000 -0.124125 -0.656382 0.000000 -0.081534 -0.646142 0.000000 -0.040443 -0.639724 0.000000 
-0.000004 -0.676160 0.000000 0.035918 -0.678444 0.000000 0.072495 -0.685964 0.000000 0.110683 -0.698021 0.000000 0.150942 -0.715172 0.000000 0.194578 -0.736732 0.000000 0.241946 -0.763014 0.000000 0.294797 -0.793380 0.000000 0.353488 -0.827663 0.000000 0.420277 -0.865272 0.000000 0.495690 -0.905186 0.000000 0.582442 -0.946670 0.000000 0.681333 -0.987235 0.000000 0.795035 -1.024901 0.000000 0.923565 -1.054032 0.000000 1.066873 -1.066977 0.000000 1.217767 -1.049578 0.000000 1.364864 -0.979967 0.000000 1.480961 -0.828933 0.000000 1.528296 -0.567014 0.000000 1.478449 -0.199960 0.000000 1.349314 0.224172 0.000000 1.241457 0.625940 0.000000 1.221641 0.887355 0.000000 1.220655 1.048585 0.000000 1.162998 1.251875 0.000000 1.013672 1.514027 0.000000 0.817564 1.759681 0.000000 0.610499 1.937127 0.000000 0.437674 2.057038 0.000000 0.285572 2.132041 0.000000 0.141925 2.177714 0.000000 0.000817 2.197006 0.000000 -0.141168 2.182562 0.000000 -0.287975 2.128224 0.000000 -0.440122 2.050126 0.000000 -0.613426 1.933186 0.000000 -0.817180 1.757171 0.000000 -1.011467 1.525674 0.000000 -1.166667 1.258670 0.000000 -1.221747 1.041078 0.000000 -1.215119 0.884660 0.000000 -1.239120 0.628510 0.000000 -1.350851 0.224245 0.000000 -1.478709 -0.200979 0.000000 -1.528147 -0.567278 0.000000 -1.480977 -0.829295 0.000000 -1.364811 -0.980127 0.000000 -1.217763 -1.049751 0.000000 -1.066862 -1.067026 0.000000 -0.923578 -1.054124 0.000000 -0.795029 -1.024917 0.000000 -0.681350 -0.987287 0.000000 -0.582436 -0.946679 0.000000 -0.495706 -0.905216 0.000000 -0.420271 -0.865278 0.000000 -0.353501 -0.827681 0.000000 -0.294791 -0.793384 0.000000 -0.241957 -0.763025 0.000000 -0.194572 -0.736735 0.000000 -0.150951 -0.715178 0.000000 -0.110678 -0.698023 0.000000 -0.072502 -0.685967 0.000000 -0.035913 -0.678444 0.000000 
-0.000003 -0.709606 0.000000 0.030644 -0.712221 0.000000 0.061949 -0.720904 0.000000 0.094922 -0.734826 0.000000 0.129989 -0.754774 0.000000 0.168588 -0.779962 0.000000 0.211012 -0.811012 0.000000 0.259267 -0.847208 0.000000 0.313645 -0.888794 0.000000 0.376826 -0.935122 0.000000 0.449373 -0.985663 0.000000 0.534522 -1.039586 0.000000 0.633481 -1.094707 0.000000 0.748892 -1.148219 0.000000 0.881489 -1.193076 0.000000 1.028233 -1.217138 0.000000 1.180853 -1.199118 0.000000 1.320596 -1.107069 0.000000 1.412849 -0.893518 0.000000 1.411433 -0.539919 0.000000 1.322537 -0.087903 0.000000 1.260900 0.313217 0.000000 1.275118 0.577061 0.000000 1.277502 0.839565 0.000000 1.132142 1.174156 0.000000 0.901992 1.487288 0.000000 0.700424 1.738196 0.000000 0.553148 1.940511 0.000000 0.428416 2.081887 0.000000 0.318589 2.178224 0.000000 0.212168 2.252956 0.000000 0.103626 2.302795 0.000000 -0.000034 2.321613 0.000000 -0.101399 2.307398 0.000000 -0.209374 2.251466 0.000000 -0.319515 2.173570 0.000000 -0.429928 2.077533 0.000000 -0.556372 1.934652 0.000000 -0.699126 1.749126 0.000000 -0.897827 1.494777 0.000000 -1.128695 1.161051 0.000000 -1.270881 0.835350 0.000000 -1.276819 0.585892 0.000000 -1.264382 0.315521 0.000000 -1.323134 -0.089984 0.000000 -1.411150 -0.540163 0.000000 -1.412661 -0.893611 0.000000 -1.320415 -1.107120 0.000000 -1.180724 -1.199169 0.000000 -1.028126 -1.217132 0.000000 -0.881444 -1.193130 0.000000 -0.748829 -1.148220 0.000000 -0.633470 -1.094748 0.000000 -0.534483 -1.039593 0.000000 -0.449374 -0.985692 0.000000 -0.376800 -0.935131 0.000000 -0.313649 -0.888814 0.000000 -0.259249 -0.847216 0.000000 -0.211016 -0.811025 0.000000 -0.168576 -0.779968 0.000000 -0.129994 -0.754782 0.000000 -0.094913 -0.734830 0.000000 -0.061955 -0.720907 0.000000 -0.030636 -0.712223 0.000000 
-0.000002 -0.737440 0.000000 0.024620 -0.740396 0.000000 0.049890 -0.750242 0.000000 0.076812 -0.766061 0.000000 0.105806 -0.788837 0.000000 0.138339 -0.817755 0.000000 0.174699 -0.853692 0.000000 0.217007 -0.896013 0.000000 0.265551 -0.945221 0.000000 0.323304 -1.001000 0.000000 0.390824 -1.062882 0.000000 0.471909 -1.130777 0.000000 0.567646 -1.201605 0.000000 0.681162 -1.272909 0.000000 0.811789 -1.333373 0.000000 0.955480 -1.366341 0.000000 1.098409 -1.341941 0.000000 1.224476 -1.211963 0.000000 1.278232 -0.919770 0.000000 1.234241 -0.476703 0.000000 1.185151 -0.049428 0.000000 1.205866 0.271592 0.000000 1.142399 0.609338 0.000000 0.915127 1.030330 0.000000 0.661035 1.424094 0.000000 0.447294 1.683593 0.000000 0.274326 1.862871 0.000000 0.141627 2.031689 0.000000 0.058135 2.171687 0.000000 0.007927 2.273286 0.000000 -0.012567 2.347004 0.000000 -0.013027 2.389916 0.000000 -0.000213 2.402031 0.000000 0.014141 2.391902 0.000000 0.016115 2.346340 0.000000 -0.007331 2.270680 0.000000 -0.057120 2.170043 0.000000 -0.145061 2.026368 0.000000 -0.276275 1.867129 0.000000 -0.441544 1.688239 0.000000 -0.659746 1.414133 0.000000 -0.919483 1.032784 0.000000 -1.147315 0.622010 0.000000 -1.206701 0.270560 0.000000 -1.185219 -0.054210 0.000000 -1.233378 -0.477750 0.000000 -1.278139 -0.920030 0.000000 -1.224454 -1.212064 0.000000 -1.098367 -1.342040 0.000000 -0.955463 -1.366305 0.000000 -0.811808 -1.333421 0.000000 -0.681141 -1.272892 0.000000 -0.567670 -1.201633 0.000000 -0.471890 -1.130775 0.000000 -0.390842 -1.062899 0.000000 -0.323289 -1.001003 0.000000 -0.265563 -0.945231 0.000000 -0.216995 -0.896017 0.000000 -0.174707 -0.853698 0.000000 -0.138328 -0.817758 0.000000 -0.105812 -0.788841 0.000000 -0.076802 -0.766062 0.000000 -0.049895 -0.750244 0.000000 -0.024611 -0.740396 0.000000 