# vtk DataFile Version 2.0
Comment goes here
ASCII

DATASET STRUCTURED_POINTS
FIELD FieldData 1
TIME 1 1 double
1.00000000
DIMENSIONS    64   64   1

ORIGIN    0.000   0.000   0.000
SPACING   0.015625 0.015625   1.000

POINT_DATA   4096
VECTORS u double

0.000459 0.000000 0.000000 0.006357 0.000000 0.000000 0.012009 0.000000 0.000000 0.017402 0.000000 0.000000 0.022279 0.000000 0.000000 0.026553 0.000000 0.000000 0.030064 0.000000 0.000000 0.032652 0.000000 0.000000 0.034268 0.000000 0.000000 0.034687 0.000000 0.000000 0.033990 0.000000 0.000000 0.031885 0.000000 0.000000 0.028628 0.000000 0.000000 0.023844 0.000000 0.000000 0.018037 0.000000 0.000000 0.010719 0.000000 0.000000 0.002727 0.000000 0.000000 -0.006581 0.000000 0.000000 -0.015942 0.000000 0.000000 -0.026202 0.000000 0.000000 -0.035633 0.000000 0.000000 -0.045310 0.000000 0.000000 -0.053099 0.000000 0.000000 -0.060283 0.000000 0.000000 -0.064530 0.000000 0.000000 -0.067226 0.000000 0.000000 -0.066223 0.000000 0.000000 -0.062851 0.000000 0.000000 -0.055644 0.000000 0.000000 -0.045767 0.000000 0.000000 -0.032919 0.000000 0.000000 -0.018042 0.000000 0.000000 -0.002149 0.000000 0.000000 0.014227 0.000000 0.000000 0.029162 0.000000 0.000000 0.042880 0.000000 0.000000 0.053224 0.000000 0.000000 0.061333 0.000000 0.000000 0.065298 0.000000 0.000000 0.066924 0.000000 0.000000 0.064727 0.000000 0.000000 0.060715 0.000000 0.000000 0.053879 0.000000 0.000000 0.046021 0.000000 0.000000 0.036580 0.000000 0.000000 0.026921 0.000000 0.000000 0.016835 0.000000 0.000000 0.007213 0.000000 0.000000 -0.001955 0.000000 0.000000 -0.010161 0.000000 0.000000 -0.017365 0.000000 0.000000 -0.023307 0.000000 0.000000 -0.028000 0.000000 0.000000 -0.031304 0.000000 0.000000 -0.033348 0.000000 0.000000 -0.034018 0.000000 0.000000 -0.033569 0.000000 0.000000 -0.031873 0.000000 0.000000 -0.029289 0.000000 0.000000 -0.025668 0.000000 0.000000 -0.021431 0.000000 0.000000 -0.016434 0.000000 0.000000 -0.011109 0.000000 0.000000 -0.005344 0.000000 0.000000 
0.000469 -0.005850 0.000000 0.006383 -0.005775 0.000000 0.012052 -0.005522 0.000000 0.017457 -0.005135 0.000000 0.022352 -0.004576 0.000000 0.026634 -0.003892 0.000000 0.030162 -0.003050 0.000000 0.032752 -0.002102 0.000000 0.034384 -0.001017 0.000000 0.034795 0.000139 0.000000 0.034109 0.001401 0.000000 0.031982 0.002681 0.000000 0.028726 0.004020 0.000000 0.023903 0.005295 0.000000 0.018078 0.006563 0.000000 0.010695 0.007655 0.000000 0.002658 0.008650 0.000000 -0.006746 0.009334 0.000000 -0.016192 0.009811 0.000000 -0.026584 0.009845 0.000000 -0.036145 0.009554 0.000000 -0.045989 0.008733 0.000000 -0.053944 0.007486 0.000000 -0.061309 0.005715 0.000000 -0.065722 0.003472 0.000000 -0.068561 0.000846 0.000000 -0.067650 -0.002188 0.000000 -0.064289 -0.005289 0.000000 -0.057007 -0.008542 0.000000 -0.046933 -0.011363 0.000000 -0.033798 -0.013862 0.000000 -0.018538 -0.015385 0.000000 -0.002219 -0.016134 0.000000 0.014595 -0.015656 0.000000 0.029933 -0.014327 0.000000 0.043975 -0.012031 0.000000 0.054549 -0.009227 0.000000 0.062773 -0.006037 0.000000 0.066750 -0.002795 0.000000 0.068302 0.000286 0.000000 0.065962 0.003104 0.000000 0.061780 0.005424 0.000000 0.054751 0.007347 0.000000 0.046713 0.008650 0.000000 0.037094 0.009550 0.000000 0.027296 0.009872 0.000000 0.017073 0.009854 0.000000 0.007362 0.009395 0.000000 -0.001900 0.008687 0.000000 -0.010153 0.007705 0.000000 -0.017416 0.006573 0.000000 -0.023373 0.005317 0.000000 -0.028099 0.003999 0.000000 -0.031401 0.002674 0.000000 -0.033460 0.001357 0.000000 -0.034118 0.000111 0.000000 -0.033672 -0.001072 0.000000 -0.031960 -0.002140 0.000000 -0.029370 -0.003103 0.000000 -0.025731 -0.003929 0.000000 -0.021485 -0.004617 0.000000 -0.016469 -0.005161 0.000000 -0.011132 -0.005545 0.000000 -0.005349 -0.005784 0.000000 
0.000475 -0.011732 0.000000 0.006508 -0.011582 0.000000 0.012292 -0.011075 0.000000 0.017821 -0.010301 0.000000 0.022836 -0.009177 0.000000 0.027251 -0.007810 0.000000 0.030909 -0.006118 0.000000 0.033651 -0.004222 0.000000 0.035425 -0.002043 0.000000 0.036014 0.000275 0.000000 0.035488 0.002813 0.000000 0.033571 0.005383 0.000000 0.030496 0.008079 0.000000 0.025917 0.010648 0.000000 0.020299 0.013208 0.000000 0.013189 0.015421 0.000000 0.005385 0.017441 0.000000 -0.003728 0.018850 0.000000 -0.012917 0.019838 0.000000 -0.023030 0.019953 0.000000 -0.032333 0.019405 0.000000 -0.041957 0.017799 0.000000 -0.049713 0.015320 0.000000 -0.057003 0.011778 0.000000 -0.061385 0.007252 0.000000 -0.064408 0.001928 0.000000 -0.063758 -0.004272 0.000000 -0.060902 -0.010642 0.000000 -0.054189 -0.017356 0.000000 -0.044829 -0.023209 0.000000 -0.032418 -0.028395 0.000000 -0.017893 -0.031580 0.000000 -0.002310 -0.033133 0.000000 0.013817 -0.032152 0.000000 0.028423 -0.029379 0.000000 0.041816 -0.024616 0.000000 0.051712 -0.018798 0.000000 0.059418 -0.012201 0.000000 0.062924 -0.005529 0.000000 0.064216 0.000788 0.000000 0.061704 0.006522 0.000000 0.057515 0.011211 0.000000 0.050562 0.015067 0.000000 0.042678 0.017656 0.000000 0.033285 0.019417 0.000000 0.023711 0.020021 0.000000 0.013777 0.019934 0.000000 0.004304 0.018973 0.000000 -0.004661 0.017515 0.000000 -0.012686 0.015516 0.000000 -0.019672 0.013220 0.000000 -0.025419 0.010684 0.000000 -0.029902 0.008028 0.000000 -0.033013 0.005360 0.000000 -0.034863 0.002717 0.000000 -0.035350 0.000212 0.000000 -0.034728 -0.002158 0.000000 -0.032861 -0.004302 0.000000 -0.030121 -0.006228 0.000000 -0.026343 -0.007885 0.000000 -0.021964 -0.009262 0.000000 -0.016821 -0.010353 0.000000 -0.011362 -0.011121 0.000000 -0.005458 -0.011601 0.000000 
0.000502 -0.017816 0.000000 0.006686 -0.017592 0.000000 0.012620 -0.016835 0.000000 0.018299 -0.015679 0.000000 0.023469 -0.014006 0.000000 0.028038 -0.011965 0.000000 0.031861 -0.009449 0.000000 0.034762 -0.006619 0.000000 0.036713 -0.003381 0.000000 0.037470 0.000076 0.000000 0.037131 0.003844 0.000000 0.035387 0.007673 0.000000 0.032506 0.011674 0.000000 0.028099 0.015493 0.000000 0.022670 0.019291 0.000000 0.015717 0.022569 0.000000 0.008081 0.025566 0.000000 -0.000912 0.027637 0.000000 -0.009983 0.029113 0.000000 -0.020046 0.029261 0.000000 -0.029317 0.028481 0.000000 -0.039015 0.026113 0.000000 -0.046873 0.022533 0.000000 -0.054427 0.017388 0.000000 -0.059099 0.010877 0.000000 -0.062601 0.003219 0.000000 -0.062418 -0.005694 0.000000 -0.060120 -0.014858 0.000000 -0.053868 -0.024615 0.000000 -0.044869 -0.033134 0.000000 -0.032668 -0.040798 0.000000 -0.018170 -0.045493 0.000000 -0.002540 -0.047844 0.000000 0.013706 -0.046388 0.000000 0.028327 -0.042326 0.000000 0.041666 -0.035320 0.000000 0.051310 -0.026829 0.000000 0.058692 -0.017249 0.000000 0.061724 -0.007592 0.000000 0.062582 0.001506 0.000000 0.059594 0.009805 0.000000 0.055055 0.016566 0.000000 0.047805 0.022183 0.000000 0.039742 0.025927 0.000000 0.030255 0.028517 0.000000 0.020660 0.029381 0.000000 0.010778 0.029261 0.000000 0.001399 0.027833 0.000000 -0.007429 0.025677 0.000000 -0.015292 0.022717 0.000000 -0.022101 0.019306 0.000000 -0.027652 0.015547 0.000000 -0.031946 0.011593 0.000000 -0.034851 0.007636 0.000000 -0.036515 0.003694 0.000000 -0.036800 -0.000025 0.000000 -0.036002 -0.003561 0.000000 -0.033945 -0.006747 0.000000 -0.031041 -0.009621 0.000000 -0.027086 -0.012085 0.000000 -0.022554 -0.014139 0.000000 -0.017245 -0.015763 0.000000 -0.011638 -0.016907 0.000000 -0.005578 -0.017622 0.000000 
0.000526 -0.023996 0.000000 0.006957 -0.023700 0.000000 0.013133 -0.022687 0.000000 0.019063 -0.021151 0.000000 0.024488 -0.018917 0.000000 0.029326 -0.016201 0.000000 0.033421 -0.012842 0.000000 0.036622 -0.009074 0.000000 0.038871 -0.004750 0.000000 0.039972 -0.000142 0.000000 0.039963 0.004895 0.000000 0.038619 0.010008 0.000000 0.036104 0.015368 0.000000 0.032158 0.020484 0.000000 0.027140 0.025589 0.000000 0.020709 0.030010 0.000000 0.013538 0.034070 0.000000 0.005114 0.036914 0.000000 -0.003427 0.038973 0.000000 -0.012905 0.039287 0.000000 -0.021594 0.038373 0.000000 -0.030766 0.035356 0.000000 -0.038080 0.030732 0.000000 -0.045326 0.024004 0.000000 -0.049734 0.015427 0.000000 -0.053438 0.005247 0.000000 -0.053644 -0.006754 0.000000 -0.052342 -0.019193 0.000000 -0.047304 -0.032608 0.000000 -0.039905 -0.044409 0.000000 -0.029394 -0.055093 0.000000 -0.016626 -0.061707 0.000000 -0.002755 -0.065009 0.000000 0.011855 -0.063020 0.000000 0.024749 -0.057339 0.000000 0.036581 -0.047598 0.000000 0.044708 -0.035825 0.000000 0.050998 -0.022616 0.000000 0.053112 -0.009419 0.000000 0.053576 0.002918 0.000000 0.050397 0.014049 0.000000 0.046021 0.023000 0.000000 0.039070 0.030379 0.000000 0.031441 0.035207 0.000000 0.022493 0.038499 0.000000 0.013406 0.039497 0.000000 0.004134 0.039196 0.000000 -0.004749 0.037181 0.000000 -0.012987 0.034206 0.000000 -0.020388 0.030188 0.000000 -0.026663 0.025580 0.000000 -0.031789 0.020528 0.000000 -0.035615 0.015226 0.000000 -0.038129 0.009930 0.000000 -0.039392 0.004666 0.000000 -0.039319 -0.000301 0.000000 -0.038176 -0.005013 0.000000 -0.035795 -0.009263 0.000000 -0.032591 -0.013087 0.000000 -0.028341 -0.016373 0.000000 -0.023541 -0.019103 0.000000 -0.017962 -0.021268 0.000000 -0.012108 -0.022787 0.000000 -0.005794 -0.023741 0.000000 
0.000572 -0.030567 0.000000 0.007284 -0.030198 0.000000 0.013737 -0.028942 0.000000 0.019950 -0.027034 0.000000 0.025665 -0.024269 0.000000 0.030798 -0.020898 0.000000 0.035205 -0.016746 0.000000 0.038725 -0.012070 0.000000 0.041315 -0.006730 0.000000 0.042763 -0.001015 0.000000 0.043128 0.005197 0.000000 0.042167 0.011532 0.000000 0.040062 0.018135 0.000000 0.036537 0.024457 0.000000 0.031965 0.030740 0.000000 0.025988 0.036171 0.000000 0.019295 0.041161 0.000000 0.011346 0.044602 0.000000 0.003299 0.047132 0.000000 -0.005721 0.047428 0.000000 -0.013944 0.046341 0.000000 -0.022766 0.042599 0.000000 -0.029759 0.037093 0.000000 -0.036976 0.029042 0.000000 -0.041439 0.018988 0.000000 -0.045728 0.007129 0.000000 -0.046631 -0.006790 0.000000 -0.046493 -0.021198 0.000000 -0.042681 -0.037053 0.000000 -0.036605 -0.051044 0.000000 -0.027412 -0.064077 0.000000 -0.015818 -0.072132 0.000000 -0.003115 -0.076325 0.000000 0.010468 -0.073892 0.000000 0.022236 -0.067052 0.000000 0.033023 -0.055279 0.000000 0.040000 -0.041245 0.000000 0.045305 -0.025653 0.000000 0.046407 -0.010170 0.000000 0.046196 0.004220 0.000000 0.042402 0.017360 0.000000 0.037806 0.027893 0.000000 0.030805 0.036764 0.000000 0.023339 0.042504 0.000000 0.014717 0.046552 0.000000 0.006009 0.047739 0.000000 -0.002778 0.047416 0.000000 -0.011196 0.044953 0.000000 -0.018915 0.041315 0.000000 -0.025834 0.036393 0.000000 -0.031614 0.030707 0.000000 -0.036271 0.024499 0.000000 -0.039646 0.017933 0.000000 -0.041721 0.011412 0.000000 -0.042580 0.004884 0.000000 -0.042102 -0.001240 0.000000 -0.040601 -0.007085 0.000000 -0.037850 -0.012333 0.000000 -0.034324 -0.017075 0.000000 -0.029738 -0.021135 0.000000 -0.024644 -0.024518 0.000000 -0.018756 -0.027196 0.000000 -0.012624 -0.029076 0.000000 -0.006020 -0.030256 0.000000 
0.000619 -0.037299 0.000000 0.007691 -0.036864 0.000000 0.014500 -0.035353 0.000000 0.021078 -0.033079 0.000000 0.027170 -0.029765 0.000000 0.032692 -0.025742 0.000000 0.037509 -0.020769 0.000000 0.041464 -0.015184 0.000000 0.044505 -0.008788 0.000000 0.046460 -0.001955 0.000000 0.047327 0.005491 0.000000 0.046967 0.013073 0.000000 0.045432 0.020998 0.000000 0.042626 0.028581 0.000000 0.038718 0.036138 0.000000 0.033605 0.042679 0.000000 0.027713 0.048713 0.000000 0.020791 0.052910 0.000000 0.013746 0.056040 0.000000 0.005920 0.056529 0.000000 -0.001036 0.055418 0.000000 -0.008546 0.051171 0.000000 -0.014052 0.044942 0.000000 -0.020053 0.035684 0.000000 -0.023228 0.024179 0.000000 -0.027033 0.010439 0.000000 -0.027893 -0.005989 0.000000 -0.029153 -0.023143 0.000000 -0.027489 -0.042496 0.000000 -0.024665 -0.059678 0.000000 -0.019266 -0.075880 0.000000 -0.011770 -0.086004 0.000000 -0.003371 -0.091295 0.000000 0.006121 -0.088370 0.000000 0.013732 -0.079895 0.000000 0.020997 -0.065362 0.000000 0.024788 -0.048106 0.000000 0.028080 -0.029023 0.000000 0.027904 -0.010309 0.000000 0.027687 0.006924 0.000000 0.024377 0.022439 0.000000 0.020859 0.034597 0.000000 0.015065 0.044846 0.000000 0.008896 0.051295 0.000000 0.001635 0.055829 0.000000 -0.005910 0.056992 0.000000 -0.013441 0.056400 0.000000 -0.020891 0.053318 0.000000 -0.027539 0.048843 0.000000 -0.033645 0.042887 0.000000 -0.038537 0.036018 0.000000 -0.042494 0.028560 0.000000 -0.045137 0.020676 0.000000 -0.046594 0.012863 0.000000 -0.046847 0.005047 0.000000 -0.045818 -0.002280 0.000000 -0.043806 -0.009265 0.000000 -0.040561 -0.015539 0.000000 -0.036597 -0.021199 0.000000 -0.031566 -0.026053 0.000000 -0.026083 -0.030086 0.000000 -0.019792 -0.033288 0.000000 -0.013300 -0.035523 0.000000 -0.006322 -0.036938 0.000000 
0.000690 -0.044581 0.000000 0.008154 -0.044079 0.000000 0.015351 -0.042328 0.000000 0.022326 -0.039704 0.000000 0.028830 -0.035883 0.000000 0.034776 -0.031238 0.000000 0.040044 -0.025518 0.000000 0.044467 -0.019066 0.000000 0.048012 -0.011726 0.000000 0.050500 -0.003837 0.000000 0.051941 0.004690 0.000000 0.052203 0.013427 0.000000 0.051337 0.022476 0.000000 0.049269 0.031171 0.000000 0.046156 0.039761 0.000000 0.041924 0.047175 0.000000 0.036985 0.053976 0.000000 0.031104 0.058569 0.000000 0.025186 0.062003 0.000000 0.018557 0.062210 0.000000 0.012874 0.060807 0.000000 0.006615 0.055615 0.000000 0.002361 0.048600 0.000000 -0.002751 0.038217 0.000000 -0.005202 0.025969 0.000000 -0.009431 0.011794 0.000000 -0.011003 -0.004670 0.000000 -0.014149 -0.021601 0.000000 -0.014761 -0.041541 0.000000 -0.014701 -0.059268 0.000000 -0.012593 -0.076973 0.000000 -0.008506 -0.088027 0.000000 -0.003791 -0.094215 0.000000 0.002229 -0.090994 0.000000 0.006400 -0.081928 0.000000 0.010734 -0.066334 0.000000 0.011946 -0.048328 0.000000 0.013337 -0.028770 0.000000 0.011576 -0.009777 0.000000 0.010630 0.007747 0.000000 0.006773 0.024188 0.000000 0.003612 0.037205 0.000000 -0.001448 0.048727 0.000000 -0.006627 0.055933 0.000000 -0.012635 0.061358 0.000000 -0.019016 0.062816 0.000000 -0.025266 0.062397 0.000000 -0.031607 0.059051 0.000000 -0.037122 0.054069 0.000000 -0.042245 0.047391 0.000000 -0.046186 0.039556 0.000000 -0.049297 0.031100 0.000000 -0.051156 0.022034 0.000000 -0.051887 0.013122 0.000000 -0.051492 0.004108 0.000000 -0.049835 -0.004281 0.000000 -0.047279 -0.012342 0.000000 -0.043484 -0.019542 0.000000 -0.039049 -0.026070 0.000000 -0.033531 -0.031649 0.000000 -0.027628 -0.036293 0.000000 -0.020898 -0.039979 0.000000 -0.014016 -0.042545 0.000000 -0.006632 -0.044175 0.000000 
0.000768 -0.052085 0.000000 0.008673 -0.051525 0.000000 0.016314 -0.049525 0.000000 0.023734 -0.046559 0.000000 0.030717 -0.042215 0.000000 0.037143 -0.036956 0.000000 0.042941 -0.030460 0.000000 0.047912 -0.023152 0.000000 0.052056 -0.014821 0.000000 0.055200 -0.005884 0.000000 0.057331 0.003788 0.000000 0.058412 0.013678 0.000000 0.058361 0.023932 0.000000 0.057337 0.033762 0.000000 0.055212 0.043483 0.000000 0.052306 0.051851 0.000000 0.048592 0.059532 0.000000 0.044355 0.064709 0.000000 0.040005 0.068587 0.000000 0.035364 0.068841 0.000000 0.031782 0.067360 0.000000 0.027880 0.061684 0.000000 0.026447 0.054308 0.000000 0.024006 0.043247 0.000000 0.024791 0.030859 0.000000 0.022819 0.016240 0.000000 0.022779 -0.001271 0.000000 0.018099 -0.019385 0.000000 0.014226 -0.041944 0.000000 0.008585 -0.061846 0.000000 0.003526 -0.082076 0.000000 -0.000264 -0.094807 0.000000 -0.003929 -0.102029 0.000000 -0.005950 -0.098561 0.000000 -0.009927 -0.088400 0.000000 -0.012464 -0.070908 0.000000 -0.017094 -0.050709 0.000000 -0.018977 -0.028652 0.000000 -0.022033 -0.007603 0.000000 -0.021522 0.011727 0.000000 -0.023098 0.029457 0.000000 -0.023356 0.042818 0.000000 -0.025717 0.055086 0.000000 -0.028352 0.062481 0.000000 -0.031865 0.068218 0.000000 -0.036283 0.069624 0.000000 -0.040438 0.068992 0.000000 -0.045240 0.065174 0.000000 -0.049057 0.059482 0.000000 -0.052917 0.051951 0.000000 -0.055508 0.043069 0.000000 -0.057559 0.033531 0.000000 -0.058362 0.023267 0.000000 -0.058197 0.013200 0.000000 -0.056973 0.002996 0.000000 -0.054550 -0.006493 0.000000 -0.051328 -0.015617 0.000000 -0.046870 -0.023769 0.000000 -0.041882 -0.031152 0.000000 -0.035784 -0.037474 0.000000 -0.029399 -0.042719 0.000000 -0.022157 -0.046901 0.000000 -0.014833 -0.049789 0.000000 -0.006984 -0.051644 0.000000 
0.000870 -0.060238 0.000000 0.009237 -0.059624 0.000000 0.017340 -0.057390 0.000000 0.025234 -0.054108 0.000000 0.032719 -0.049291 0.000000 0.039659 -0.043461 0.000000 0.046024 -0.036287 0.000000 0.051587 -0.028181 0.000000 0.056388 -0.019014 0.000000 0.060248 -0.009112 0.000000 0.063170 0.001478 0.000000 0.065146 0.012398 0.000000 0.066080 0.023551 0.000000 0.066190 0.034320 0.000000 0.065302 0.044792 0.000000 0.063799 0.053795 0.000000 0.061591 0.061926 0.000000 0.059015 0.067156 0.000000 0.056420 0.070995 0.000000 0.053691 0.070434 0.000000 0.052101 0.068291 0.000000 0.050357 0.060949 0.000000 0.051024 0.052474 0.000000 0.050511 0.039874 0.000000 0.052844 0.027156 0.000000 0.049989 0.013806 0.000000 0.048963 0.000050 0.000000 0.041309 -0.013049 0.000000 0.034317 -0.032027 0.000000 0.025211 -0.048568 0.000000 0.015181 -0.068124 0.000000 0.005849 -0.080572 0.000000 -0.004208 -0.088529 0.000000 -0.012382 -0.084996 0.000000 -0.022259 -0.075415 0.000000 -0.029489 -0.059168 0.000000 -0.037616 -0.041815 0.000000 -0.042007 -0.023830 0.000000 -0.047189 -0.007232 0.000000 -0.047667 0.008812 0.000000 -0.050473 0.026022 0.000000 -0.049939 0.039824 0.000000 -0.050615 0.053724 0.000000 -0.051507 0.062082 0.000000 -0.052776 0.069288 0.000000 -0.055317 0.071389 0.000000 -0.057404 0.071353 0.000000 -0.060455 0.067670 0.000000 -0.062482 0.061746 0.000000 -0.064782 0.053842 0.000000 -0.065880 0.044198 0.000000 -0.066610 0.033953 0.000000 -0.066223 0.022671 0.000000 -0.064981 0.011733 0.000000 -0.062834 0.000461 0.000000 -0.059538 -0.009925 0.000000 -0.055592 -0.020022 0.000000 -0.050411 -0.028988 0.000000 -0.044831 -0.037155 0.000000 -0.038121 -0.044131 0.000000 -0.031227 -0.049920 0.000000 -0.023450 -0.054546 0.000000 -0.015663 -0.057718 0.000000 -0.007330 -0.059776 0.000000 
0.000989 -0.068652 0.000000 0.009820 -0.067995 0.000000 0.018401 -0.065521 0.000000 0.026760 -0.061937 0.000000 0.034779 -0.056640 0.000000 0.042231 -0.050260 0.000000 0.049212 -0.042389 0.000000 0.055386 -0.033517 0.000000 0.060920 -0.023481 0.000000 0.065563 -0.012666 0.000000 0.069378 -0.001110 0.000000 0.072407 0.010768 0.000000 0.074443 0.022888 0.000000 0.075961 0.034540 0.000000 0.076389 0.045874 0.000000 0.076644 0.055562 0.000000 0.075883 0.064316 0.000000 0.075297 0.069880 0.000000 0.074225 0.073911 0.000000 0.073622 0.073160 0.000000 0.073919 0.070695 0.000000 0.074514 0.062761 0.000000 0.078222 0.054154 0.000000 0.080814 0.041427 0.000000 0.088477 0.031381 0.000000 0.091213 0.020120 0.000000 0.095280 0.007408 0.000000 0.086663 -0.004739 0.000000 0.075924 -0.025846 0.000000 0.058911 -0.042710 0.000000 0.038192 -0.062713 0.000000 0.017740 -0.075418 0.000000 -0.003807 -0.083798 0.000000 -0.022976 -0.080510 0.000000 -0.044752 -0.071293 0.000000 -0.062434 -0.055551 0.000000 -0.079471 -0.038191 0.000000 -0.088451 -0.019079 0.000000 -0.093956 -0.001943 0.000000 -0.089147 0.015011 0.000000 -0.086089 0.031729 0.000000 -0.080535 0.042959 0.000000 -0.077881 0.056653 0.000000 -0.076116 0.064641 0.000000 -0.074728 0.072028 0.000000 -0.075609 0.074252 0.000000 -0.075484 0.074130 0.000000 -0.077077 0.070253 0.000000 -0.077138 0.063809 0.000000 -0.077941 0.055349 0.000000 -0.077311 0.044897 0.000000 -0.076615 0.033873 0.000000 -0.074827 0.021638 0.000000 -0.072357 0.009811 0.000000 -0.069147 -0.002448 0.000000 -0.064843 -0.013736 0.000000 -0.060101 -0.024744 0.000000 -0.054099 -0.034530 0.000000 -0.047898 -0.043442 0.000000 -0.040508 -0.051079 0.000000 -0.033098 -0.057390 0.000000 -0.024747 -0.062464 0.000000 -0.016497 -0.065909 0.000000 -0.007664 -0.068177 0.000000 
0.001130 -0.077721 0.000000 0.010415 -0.077036 0.000000 0.019459 -0.074329 0.000000 0.028288 -0.070486 0.000000 0.036833 -0.064762 0.000000 0.044820 -0.057895 0.000000 0.052426 -0.049443 0.000000 0.059261 -0.039888 0.000000 0.065570 -0.029190 0.000000 0.071085 -0.017570 0.000000 0.075904 -0.005366 0.000000 0.080113 0.007332 0.000000 0.083455 0.019997 0.000000 0.086485 0.032374 0.000000 0.088484 0.044110 0.000000 0.090418 0.054301 0.000000 0.091244 0.063274 0.000000 0.092169 0.068815 0.000000 0.092423 0.072669 0.000000 0.093100 0.070739 0.000000 0.094618 0.067399 0.000000 0.096840 0.056647 0.000000 0.101903 0.046174 0.000000 0.107323 0.029619 0.000000 0.116196 0.016757 0.000000 0.113817 0.007003 0.000000 0.114290 0.004600 0.000000 0.100512 0.006307 0.000000 0.088175 -0.004275 0.000000 0.072556 -0.010836 0.000000 0.049570 -0.026953 0.000000 0.024855 -0.038573 0.000000 -0.003171 -0.047813 0.000000 -0.028775 -0.044051 0.000000 -0.056215 -0.035957 0.000000 -0.076674 -0.024449 0.000000 -0.093474 -0.015797 0.000000 -0.102903 -0.009345 0.000000 -0.110907 -0.006537 0.000000 -0.109594 0.000945 0.000000 -0.112809 0.017410 0.000000 -0.107559 0.031615 0.000000 -0.102219 0.049305 0.000000 -0.099276 0.058928 0.000000 -0.095885 0.068781 0.000000 -0.095650 0.072146 0.000000 -0.094042 0.072822 0.000000 -0.094359 0.069324 0.000000 -0.092822 0.062610 0.000000 -0.092011 0.054015 0.000000 -0.089657 0.042871 0.000000 -0.087291 0.031469 0.000000 -0.083959 0.018413 0.000000 -0.080056 0.006052 0.000000 -0.075652 -0.007052 0.000000 -0.070229 -0.018972 0.000000 -0.064615 -0.030767 0.000000 -0.057752 -0.041191 0.000000 -0.050900 -0.050746 0.000000 -0.042830 -0.058931 0.000000 -0.034897 -0.065681 0.000000 -0.025987 -0.071147 0.000000 -0.017280 -0.074802 0.000000 -0.007962 -0.077262 0.000000 
0.001304 -0.087030 0.000000 0.010968 -0.086325 0.000000 0.020427 -0.083395 0.000000 0.029636 -0.079311 0.000000 0.038681 -0.073172 0.000000 0.047107 -0.065853 0.000000 0.055346 -0.056830 0.000000 0.062760 -0.046661 0.000000 0.069894 -0.035306 0.000000 0.076248 -0.023000 0.000000 0.082154 -0.010137 0.000000 0.087589 0.003217 0.000000 0.092275 0.016515 0.000000 0.096898 0.029511 0.000000 0.100204 0.041942 0.000000 0.103699 0.052802 0.000000 0.105098 0.062565 0.000000 0.106887 0.068701 0.000000 0.106422 0.072980 0.000000 0.107148 0.070965 0.000000 0.107313 0.066955 0.000000 0.108964 0.055475 0.000000 0.113610 0.043671 0.000000 0.117679 0.027135 0.000000 0.132392 0.024887 0.000000 0.143860 0.022026 0.000000 0.158847 0.020713 0.000000 0.146512 0.021377 0.000000 0.131904 0.002110 0.000000 0.107965 -0.004105 0.000000 0.071963 -0.015012 0.000000 0.036488 -0.022677 0.000000 -0.001031 -0.030169 0.000000 -0.035502 -0.027466 0.000000 -0.075324 -0.023394 0.000000 -0.108345 -0.018292 0.000000 -0.136995 -0.011962 0.000000 -0.153121 -0.001646 0.000000 -0.158947 0.004749 0.000000 -0.141931 0.016913 0.000000 -0.129962 0.029694 0.000000 -0.118255 0.032369 0.000000 -0.113326 0.048370 0.000000 -0.111303 0.058307 0.000000 -0.107653 0.068403 0.000000 -0.109171 0.072408 0.000000 -0.107676 0.072838 0.000000 -0.108882 0.069033 0.000000 -0.106796 0.061462 0.000000 -0.105401 0.052183 0.000000 -0.101693 0.040176 0.000000 -0.097896 0.028176 0.000000 -0.093044 0.014403 0.000000 -0.087627 0.001503 0.000000 -0.081994 -0.012274 0.000000 -0.075328 -0.024773 0.000000 -0.068852 -0.037221 0.000000 -0.061051 -0.048245 0.000000 -0.053601 -0.058365 0.000000 -0.044828 -0.067081 0.000000 -0.036448 -0.074232 0.000000 -0.026999 -0.080081 0.000000 -0.017911 -0.083934 0.000000 -0.008161 -0.086587 0.000000 
0.001491 -0.096851 0.000000 0.011466 -0.096159 0.000000 0.021265 -0.092997 0.000000 0.030806 -0.088740 0.000000 0.040283 -0.082233 0.000000 0.049133 -0.074560 0.000000 0.057950 -0.065096 0.000000 0.065977 -0.054436 0.000000 0.073916 -0.042678 0.000000 0.081206 -0.029831 0.000000 0.088237 -0.016707 0.000000 0.095016 -0.002789 0.000000 0.101105 0.010688 0.000000 0.107234 0.024445 0.000000 0.111715 0.037309 0.000000 0.115979 0.049407 0.000000 0.117244 0.060086 0.000000 0.117949 0.067490 0.000000 0.115566 0.072408 0.000000 0.113881 0.069849 0.000000 0.112249 0.065582 0.000000 0.112701 0.050349 0.000000 0.117069 0.037460 0.000000 0.131979 0.010837 0.000000 0.148381 -0.009425 0.000000 0.139280 -0.019452 0.000000 0.136925 0.001948 0.000000 0.113443 0.033251 0.000000 0.103933 0.034273 0.000000 0.102272 0.049105 0.000000 0.080839 0.044524 0.000000 0.048120 0.034421 0.000000 0.002967 0.024177 0.000000 -0.039837 0.030242 0.000000 -0.081030 0.036886 0.000000 -0.104352 0.037222 0.000000 -0.113621 0.028978 0.000000 -0.119804 0.012607 0.000000 -0.131916 -0.017726 0.000000 -0.134567 -0.028040 0.000000 -0.147641 -0.006266 0.000000 -0.136936 0.014979 0.000000 -0.119707 0.042353 0.000000 -0.116265 0.053255 0.000000 -0.112274 0.066649 0.000000 -0.115556 0.072169 0.000000 -0.116232 0.072533 0.000000 -0.119520 0.068444 0.000000 -0.118643 0.059129 0.000000 -0.117487 0.048911 0.000000 -0.113153 0.035366 0.000000 -0.108136 0.022820 0.000000 -0.101851 0.008144 0.000000 -0.094886 -0.004998 0.000000 -0.087943 -0.019351 0.000000 -0.080004 -0.032113 0.000000 -0.072619 -0.045044 0.000000 -0.063910 -0.056441 0.000000 -0.055875 -0.066968 0.000000 -0.046468 -0.076085 0.000000 -0.037687 -0.083510 0.000000 -0.027782 -0.089683 0.000000 -0.018377 -0.093640 0.000000 -0.008275 -0.096477 0.000000 
0.001732 -0.106770 0.000000 0.011835 -0.106100 0.000000 0.021830 -0.102735 0.000000 0.031496 -0.098329 0.000000 0.041294 -0.091498 0.000000 0.050340 -0.083520 0.000000 0.059674 -0.073675 0.000000 0.068077 -0.062626 0.000000 0.076822 -0.050534 0.000000 0.084823 -0.037321 0.000000 0.093011 -0.023947 0.000000 0.100897 -0.009650 0.000000 0.108225 0.004297 0.000000 0.115380 0.018901 0.000000 0.120043 0.033197 0.000000 0.123790 0.047272 0.000000 0.122201 0.060594 0.000000 0.119550 0.070379 0.000000 0.110945 0.077048 0.000000 0.105733 0.074282 0.000000 0.098420 0.068135 0.000000 0.098142 0.050655 0.000000 0.097314 0.024393 0.000000 0.093005 -0.004177 0.000000 0.109799 0.017586 0.000000 0.152152 0.033482 0.000000 0.191806 0.046550 0.000000 0.182952 0.054369 0.000000 0.156457 0.013281 0.000000 0.124901 0.018989 0.000000 0.088813 0.039141 0.000000 0.055392 0.055195 0.000000 0.007950 0.057788 0.000000 -0.035661 0.056531 0.000000 -0.076636 0.041120 0.000000 -0.116350 0.014299 0.000000 -0.155355 0.003490 0.000000 -0.187714 0.016650 0.000000 -0.204430 0.019512 0.000000 -0.166258 0.032637 0.000000 -0.117167 0.032063 0.000000 -0.099256 0.004436 0.000000 -0.099275 0.027699 0.000000 -0.102256 0.050874 0.000000 -0.096251 0.067693 0.000000 -0.105288 0.076367 0.000000 -0.110277 0.076803 0.000000 -0.119796 0.071444 0.000000 -0.123089 0.059429 0.000000 -0.124802 0.046693 0.000000 -0.121515 0.030825 0.000000 -0.116257 0.016874 0.000000 -0.109144 0.001153 0.000000 -0.100766 -0.012404 0.000000 -0.092724 -0.027156 0.000000 -0.083441 -0.040096 0.000000 -0.075307 -0.053315 0.000000 -0.065662 -0.064989 0.000000 -0.057224 -0.075807 0.000000 -0.047235 -0.085269 0.000000 -0.038248 -0.092919 0.000000 -0.027998 -0.099391 0.000000 -0.018465 -0.103441 0.000000 -0.008164 -0.106455 0.000000 
0.001965 -0.116850 0.000000 0.012037 -0.116257 0.000000 0.022065 -0.112658 0.000000 0.031723 -0.108204 0.000000 0.041680 -0.101077 0.000000 0.050830 -0.092939 0.000000 0.060522 -0.082833 0.000000 0.069275 -0.071584 0.000000 0.078669 -0.059424 0.000000 0.087425 -0.046020 0.000000 0.096569 -0.032782 0.000000 0.105541 -0.018004 0.000000 0.113653 -0.003795 0.000000 0.121210 0.012628 0.000000 0.124829 0.028899 0.000000 0.125899 0.047249 0.000000 0.119151 0.064326 0.000000 0.109544 0.078746 0.000000 0.093609 0.086225 0.000000 0.083026 0.082374 0.000000 0.076897 0.073174 0.000000 0.074885 0.051455 0.000000 0.088999 0.042596 0.000000 0.160383 -0.001649 0.000000 0.187804 -0.068572 0.000000 0.173300 -0.101458 0.000000 0.118657 -0.028852 0.000000 0.089890 0.068599 0.000000 0.054788 0.092324 0.000000 0.016926 0.116749 0.000000 0.001573 0.114032 0.000000 0.001161 0.115284 0.000000 0.004090 0.115230 0.000000 0.010328 0.114828 0.000000 0.010036 0.117576 0.000000 -0.004574 0.115941 0.000000 -0.044629 0.100342 0.000000 -0.089594 0.061682 0.000000 -0.150323 -0.039182 0.000000 -0.211079 -0.115303 0.000000 -0.212203 -0.073268 0.000000 -0.184564 -0.002913 0.000000 -0.105090 0.045354 0.000000 -0.083678 0.050231 0.000000 -0.074780 0.069681 0.000000 -0.082084 0.086195 0.000000 -0.091529 0.087042 0.000000 -0.108055 0.081257 0.000000 -0.118572 0.064135 0.000000 -0.125632 0.047337 0.000000 -0.125484 0.026821 0.000000 -0.121366 0.010449 0.000000 -0.114169 -0.007347 0.000000 -0.104893 -0.021418 0.000000 -0.095918 -0.036676 0.000000 -0.085513 -0.049530 0.000000 -0.076704 -0.062823 0.000000 -0.066305 -0.074524 0.000000 -0.057573 -0.085395 0.000000 -0.047191 -0.095062 0.000000 -0.038136 -0.102747 0.000000 -0.027730 -0.109466 0.000000 -0.018223 -0.113475 0.000000 -0.007900 -0.116674 0.000000 