# vtk DataFile Version 2.0
Comment goes here
ASCII

DATASET STRUCTURED_POINTS
FIELD FieldData 1
TIME 1 1 double
0.54000000
DIMENSIONS    64   64   1

ORIGIN    0.000   0.000   0.000
SPACING   0.015625 0.015625   1.000

POINT_DATA   4096
SCALARS uMag double
LOOKUP_TABLE default

7.452739e-04 1.282860e-02 2.650608e-02 4.043213e-02 5.461634e-02 6.928996e-02 8.435251e-02 1.000899e-01 1.162991e-01 1.332741e-01 1.507193e-01 1.688783e-01 1.873726e-01 2.063270e-01 2.252898e-01 2.441904e-01 2.625142e-01 2.799101e-01 2.958191e-01 3.095241e-01 3.204696e-01 3.275258e-01 3.302561e-01 3.271909e-01 3.182226e-01 3.018155e-01 2.784567e-01 2.469976e-01 2.087171e-01 1.632943e-01 1.128132e-01 5.800356e-02 1.418593e-03 5.541168e-02 1.101207e-01 1.609503e-01 2.064193e-01 2.450717e-01 2.766994e-01 3.003766e-01 3.170550e-01 3.262489e-01 3.296456e-01 3.270557e-01 3.203400e-01 3.094804e-01 2.960848e-01 2.802360e-01 2.630972e-01 2.448258e-01 2.261246e-01 2.072140e-01 1.884052e-01 1.699640e-01 1.519054e-01 1.345126e-01 1.176015e-01 1.014418e-01 8.574017e-02 7.072174e-02 5.606206e-02 4.191468e-02 2.798555e-02 1.433580e-02 
1.360199e-02 1.870703e-02 2.985683e-02 4.276443e-02 5.644302e-02 7.082854e-02 8.572917e-02 1.013807e-01 1.175609e-01 1.345498e-01 1.520450e-01 1.702823e-01 1.888824e-01 2.079603e-01 2.270678e-01 2.461213e-01 2.646103e-01 2.821734e-01 2.982440e-01 3.121134e-01 3.231889e-01 3.303909e-01 3.332072e-01 3.302736e-01 3.214003e-01 3.051982e-01 2.821626e-01 2.513354e-01 2.142451e-01 1.710703e-01 1.249842e-01 8.059351e-02 5.672601e-02 7.876184e-02 1.225591e-01 1.688489e-01 2.120063e-01 2.494609e-01 2.804406e-01 3.038048e-01 3.202805e-01 3.293798e-01 3.326528e-01 3.299659e-01 3.231095e-01 3.121042e-01 2.985437e-01 2.825190e-01 2.652078e-01 2.467607e-01 2.278988e-01 2.088368e-01 1.898964e-01 1.713456e-01 1.532010e-01 1.357558e-01 1.188240e-01 1.026902e-01 8.706613e-02 7.220193e-02 5.781331e-02 4.414058e-02 3.114989e-02 1.974989e-02 
2.713023e-02 3.002967e-02 3.808910e-02 4.898332e-02 6.146242e-02 7.509507e-02 8.954971e-02 1.049465e-01 1.210237e-01 1.380247e-01 1.556194e-01 1.740389e-01 1.928656e-01 2.122298e-01 2.316303e-01 2.510141e-01 2.698069e-01 2.876858e-01 3.040283e-01 3.181564e-01 3.294718e-01 3.369019e-01 3.400429e-01 3.375155e-01 3.293966e-01 3.143039e-01 2.931132e-01 2.650075e-01 2.319503e-01 1.947408e-01 1.577043e-01 1.270149e-01 1.138766e-01 1.258848e-01 1.558042e-01 1.928431e-01 2.299082e-01 2.632743e-01 2.914647e-01 3.129575e-01 3.282940e-01 3.366138e-01 3.394771e-01 3.364474e-01 3.293686e-01 3.181177e-01 3.043028e-01 2.880104e-01 2.703838e-01 2.516417e-01 2.324467e-01 2.131008e-01 1.938691e-01 1.750978e-01 1.567639e-01 1.392206e-01 1.222663e-01 1.062300e-01 9.084365e-02 7.640603e-02 6.273291e-02 5.019917e-02 3.911690e-02 3.069462e-02 
4.052362e-02 4.255620e-02 4.874617e-02 5.787187e-02 6.906805e-02 8.181404e-02 9.573000e-02 1.108358e-01 1.268347e-01 1.439275e-01 1.617538e-01 1.805291e-01 1.998029e-01 2.197001e-01 2.396849e-01 2.597027e-01 2.791417e-01 2.976843e-01 3.146581e-01 3.294184e-01 3.412962e-01 3.493227e-01 3.530203e-01 3.512221e-01 3.440056e-01 3.302973e-01 3.112205e-01 2.863706e-01 2.584113e-01 2.287803e-01 2.018267e-01 1.819481e-01 1.741386e-01 1.812042e-01 2.003758e-01 2.272492e-01 2.566019e-01 2.848415e-01 3.096931e-01 3.290855e-01 3.430243e-01 3.504203e-01 3.525736e-01 3.489408e-01 3.412817e-01 3.294251e-01 3.149784e-01 2.980269e-01 2.797235e-01 2.603223e-01 2.404737e-01 2.205399e-01 2.007542e-01 1.815359e-01 1.628261e-01 1.450503e-01 1.279843e-01 1.120198e-01 9.690065e-02 8.298287e-02 7.016078e-02 5.887122e-02 4.952387e-02 4.301217e-02 
5.378064e-02 5.536381e-02 6.045180e-02 6.829113e-02 7.841825e-02 9.035264e-02 1.037723e-01 1.186286e-01 1.346167e-01 1.518974e-01 1.700744e-01 1.893586e-01 2.092347e-01 2.298564e-01 2.505920e-01 2.714474e-01 2.916837e-01 3.110664e-01 3.287824e-01 3.442756e-01 3.567967e-01 3.654519e-01 3.698993e-01 3.690244e-01 3.634191e-01 3.520511e-01 3.367959e-01 3.172198e-01 2.959689e-01 2.738881e-01 2.544146e-01 2.406659e-01 2.352649e-01 2.401475e-01 2.533171e-01 2.727525e-01 2.944962e-01 3.160032e-01 3.354496e-01 3.509863e-01 3.625216e-01 3.682464e-01 3.694829e-01 3.650495e-01 3.567830e-01 3.442611e-01 3.290889e-01 3.113965e-01 2.922457e-01 2.720595e-01 2.513582e-01 2.306870e-01 2.101589e-01 1.903473e-01 1.711096e-01 1.529847e-01 1.357103e-01 1.197489e-01 1.048553e-01 9.141569e-02 7.937777e-02 6.913690e-02 6.107470e-02 5.571246e-02 
6.674900e-02 6.808777e-02 7.254522e-02 7.955883e-02 8.895630e-02 1.003208e-01 1.134285e-01 1.282000e-01 1.443401e-01 1.619813e-01 1.806991e-01 2.006958e-01 2.214120e-01 2.430067e-01 2.648045e-01 2.868186e-01 3.082680e-01 3.289219e-01 3.479116e-01 3.647113e-01 3.784841e-01 3.884840e-01 3.942443e-01 3.949965e-01 3.911913e-01 3.822172e-01 3.699623e-01 3.542329e-01 3.386968e-01 3.243897e-01 3.135372e-01 3.068849e-01 3.042557e-01 3.065749e-01 3.127729e-01 3.236444e-01 3.375122e-01 3.533055e-01 3.687653e-01 3.813776e-01 3.905170e-01 3.943912e-01 3.940541e-01 3.882022e-01 3.786210e-01 3.647669e-01 3.482807e-01 3.292747e-01 3.088225e-01 2.874120e-01 2.655159e-01 2.437860e-01 2.222523e-01 2.016081e-01 1.816315e-01 1.629711e-01 1.453145e-01 1.292011e-01 1.143739e-01 1.012413e-01 8.976228e-02 8.025462e-02 7.303908e-02 6.835874e-02 
7.946882e-02 8.065964e-02 8.476838e-02 9.128269e-02 1.002600e-01 1.113089e-01 1.243310e-01 1.392162e-01 1.557048e-01 1.739022e-01 1.933615e-01 2.142929e-01 2.360715e-01 2.589138e-01 2.820322e-01 3.055493e-01 3.285009e-01 3.508060e-01 3.713306e-01 3.897230e-01 4.048943e-01 4.162675e-01 4.234362e-01 4.257089e-01 4.243782e-01 4.186894e-01 4.121223e-01 4.038819e-01 3.960686e-01 3.875829e-01 3.800425e-01 3.750827e-01 3.727952e-01 3.748888e-01 3.795399e-01 3.872708e-01 3.953759e-01 4.034658e-01 4.111986e-01 4.181048e-01 4.238539e-01 4.251329e-01 4.233224e-01 4.159692e-01 4.050639e-01 3.897852e-01 3.717085e-01 3.511799e-01 3.290495e-01 3.061602e-01 2.827269e-01 2.596964e-01 2.368842e-01 2.151890e-01 1.942515e-01 1.748513e-01 1.566163e-01 1.401486e-01 1.251900e-01 1.121350e-01 1.009636e-01 9.187928e-02 8.518066e-02 8.088306e-02 
9.172989e-02 9.285008e-02 9.682048e-02 1.031224e-01 1.119814e-01 1.230101e-01 1.362161e-01 1.514699e-01 1.685411e-01 1.875228e-01 2.079488e-01 2.300444e-01 2.531551e-01 2.775330e-01 3.023779e-01 3.278286e-01 3.529243e-01 3.775354e-01 4.005235e-01 4.214623e-01 4.392159e-01 4.533157e-01 4.631577e-01 4.686003e-01 4.702544e-01 4.680687e-01 4.639278e-01 4.568405e-01 4.527462e-01 4.522372e-01 4.548194e-01 4.582256e-01 4.592005e-01 4.582811e-01 4.547925e-01 4.525181e-01 4.524547e-01 4.567074e-01 4.629754e-01 4.677730e-01 4.701175e-01 4.682887e-01 4.634591e-01 4.532112e-01 4.396233e-01 4.216394e-01 4.009797e-01 3.779481e-01 3.534465e-01 3.284138e-01 3.029866e-01 2.782449e-01 2.538541e-01 2.308446e-01 2.087167e-01 1.883640e-01 1.693303e-01 1.522887e-01 1.369551e-01 1.237229e-01 1.125761e-01 1.036245e-01 9.716085e-02 9.303410e-02 
1.035960e-01 1.046866e-01 1.086739e-01 1.149690e-01 1.239638e-01 1.352204e-01 1.488706e-01 1.647333e-01 1.826362e-01 2.026468e-01 2.243069e-01 2.478769e-01 2.726767e-01 2.990695e-01 3.261695e-01 3.542875e-01 3.822204e-01 4.100535e-01 4.361448e-01 4.603427e-01 4.808037e-01 4.973739e-01 5.090078e-01 5.156238e-01 5.190181e-01 5.184509e-01 5.216736e-01 5.271825e-01 5.339731e-01 5.369035e-01 5.371029e-01 5.375329e-01 5.369193e-01 5.376140e-01 5.373497e-01 5.378204e-01 5.345710e-01 5.278065e-01 5.208997e-01 5.184334e-01 5.190378e-01 5.152189e-01 5.094102e-01 4.972393e-01 4.812764e-01 4.605998e-01 4.366502e-01 4.105674e-01 3.827728e-01 3.549448e-01 3.267868e-01 2.998127e-01 2.733621e-01 2.486704e-01 2.250391e-01 2.034493e-01 1.833684e-01 1.654880e-01 1.495363e-01 1.358555e-01 1.244829e-01 1.154023e-01 1.089632e-01 1.048421e-01 
1.147856e-01 1.158929e-01 1.200287e-01 1.265206e-01 1.358919e-01 1.476442e-01 1.620003e-01 1.787384e-01 1.977184e-01 2.190153e-01 2.421689e-01 2.675166e-01 2.943856e-01 3.232454e-01 3.532451e-01 3.846960e-01 4.164384e-01 4.482795e-01 4.786237e-01 5.067478e-01 5.308865e-01 5.504721e-01 5.644592e-01 5.737184e-01 5.791702e-01 5.833786e-01 5.849719e-01 5.803898e-01 5.858338e-01 6.040511e-01 6.267285e-01 6.450196e-01 6.512183e-01 6.454997e-01 6.280605e-01 6.063439e-01 5.871371e-01 5.807408e-01 5.831370e-01 5.836358e-01 5.799791e-01 5.736357e-01 5.655587e-01 5.505821e-01 5.316338e-01 5.071612e-01 4.791811e-01 4.488544e-01 4.169306e-01 3.853234e-01 3.537421e-01 3.238970e-01 2.949295e-01 2.681945e-01 2.427666e-01 2.197046e-01 1.983355e-01 1.793931e-01 1.625718e-01 1.481963e-01 1.363390e-01 1.268949e-01 1.202765e-01 1.160262e-01 
1.253693e-01 1.265175e-01 1.309168e-01 1.377506e-01 1.477038e-01 1.601526e-01 1.754501e-01 1.932798e-01 2.135939e-01 2.364442e-01 2.614486e-01 2.890287e-01 3.185811e-01 3.507389e-01 3.846115e-01 4.206543e-01 4.573011e-01 4.944360e-01 5.293536e-01 5.615094e-01 5.871778e-01 6.064045e-01 6.159581e-01 6.176499e-01 6.126930e-01 6.013611e-01 6.118389e-01 6.438161e-01 6.768867e-01 6.952736e-01 7.042646e-01 7.125425e-01 7.146102e-01 7.127247e-01 7.058132e-01 6.985100e-01 6.796862e-01 6.447339e-01 6.097925e-01 6.021067e-01 6.136609e-01 6.169620e-01 6.170142e-01 6.063831e-01 5.879182e-01 5.621218e-01 5.299838e-01 4.952345e-01 4.578795e-01 4.214335e-01 3.851676e-01 3.514591e-01 3.191391e-01 2.897065e-01 2.620184e-01 2.370876e-01 2.141544e-01 1.938645e-01 1.759522e-01 1.606303e-01 1.480864e-01 1.380668e-01 1.311249e-01 1.266286e-01 
1.349704e-01 1.361916e-01 1.409515e-01 1.482862e-01 1.590162e-01 1.723938e-01 1.888672e-01 2.080574e-01 2.299681e-01 2.547112e-01 2.819350e-01 3.122619e-01 3.451036e-01 3.812936e-01 4.198719e-01 4.611212e-01 5.032226e-01 5.449915e-01 5.833499e-01 6.154143e-01 6.374736e-01 6.467305e-01 6.417911e-01 6.258132e-01 6.098680e-01 6.148066e-01 6.163707e-01 6.063382e-01 6.416629e-01 7.177394e-01 7.826770e-01 8.207600e-01 8.308923e-01 8.209213e-01 7.860178e-01 7.237440e-01 6.451459e-01 6.041952e-01 6.118938e-01 6.180878e-01 6.134196e-01 6.252099e-01 6.435920e-01 6.466570e-01 6.380353e-01 6.160295e-01 5.837994e-01 5.458034e-01 5.036550e-01 4.618441e-01 4.202706e-01 3.818950e-01 3.455002e-01 3.128037e-01 2.823659e-01 2.552378e-01 2.304266e-01 2.085569e-01 1.893013e-01 1.728144e-01 1.593565e-01 1.485684e-01 1.411384e-01 1.362910e-01 
1.436552e-01 1.449659e-01 1.501816e-01 1.581207e-01 1.697927e-01 1.842458e-01 2.020993e-01 2.228325e-01 2.466216e-01 2.735681e-01 3.035169e-01 3.372107e-01 3.742193e-01 4.154293e-01 4.597175e-01 5.069724e-01 5.542976e-01 5.994419e-01 6.364764e-01 6.614636e-01 6.657590e-01 6.486131e-01 6.045350e-01 5.518728e-01 4.898406e-01 4.504057e-01 5.780573e-01 7.522169e-01 8.232755e-01 8.034059e-01 7.595958e-01 7.381160e-01 7.267049e-01 7.367448e-01 7.592631e-01 8.045042e-01 8.257246e-01 7.506931e-01 5.819750e-01 4.625562e-01 4.917337e-01 5.484451e-01 6.050884e-01 6.478181e-01 6.655813e-01 6.621747e-01 6.367656e-01 6.004596e-01 5.548077e-01 5.078723e-01 4.602357e-01 4.161223e-01 3.746701e-01 3.377455e-01 3.039216e-01 2.740207e-01 2.470061e-01 2.232338e-01 2.024482e-01 1.845760e-01 1.700621e-01 1.583401e-01 1.503284e-01 1.450429e-01 
1.509220e-01 1.523408e-01 1.580862e-01 1.667530e-01 1.795282e-01 1.952646e-01 2.147290e-01 2.373212e-01 2.633360e-01 2.930124e-01 3.262441e-01 3.641034e-01 4.059553e-01 4.528328e-01 5.027653e-01 5.547541e-01 6.039985e-01 6.450904e-01 6.694695e-01 6.669263e-01 6.289463e-01 5.485499e-01 4.363300e-01 3.419392e-01 4.739251e-01 6.876682e-01 7.450128e-01 7.046216e-01 6.908783e-01 6.844420e-01 6.986686e-01 7.408514e-01 7.531577e-01 7.414561e-01 6.994966e-01 6.825335e-01 6.903904e-01 7.035193e-01 7.428496e-01 7.008204e-01 4.771119e-01 3.407205e-01 4.363434e-01 5.461572e-01 6.262482e-01 6.665661e-01 6.687261e-01 6.457026e-01 6.040940e-01 5.554248e-01 5.030433e-01 4.533396e-01 4.062312e-01 3.644864e-01 3.265244e-01 2.933576e-01 2.636443e-01 2.376588e-01 2.150392e-01 1.955625e-01 1.797809e-01 1.669581e-01 1.582270e-01 1.524136e-01 
1.568427e-01 1.583842e-01 1.647409e-01 1.742113e-01 1.882313e-01 2.053671e-01 2.266518e-01 2.512907e-01 2.798879e-01 3.126493e-01 3.497607e-01 3.922757e-01 4.395479e-01 4.919645e-01 5.465961e-01 6.000661e-01 6.446340e-01 6.702294e-01 6.625161e-01 6.081733e-01 4.935391e-01 3.295647e-01 2.551821e-01 4.752065e-01 6.026813e-01 5.691116e-01 5.640221e-01 5.970228e-01 6.766169e-01 7.413637e-01 7.701206e-01 8.062655e-01 8.169453e-01 8.064759e-01 7.712743e-01 7.413049e-01 6.767555e-01 5.993765e-01 5.612103e-01 5.698553e-01 6.058024e-01 4.878645e-01 2.602663e-01 3.267848e-01 4.883777e-01 6.067684e-01 6.605562e-01 6.702723e-01 6.444681e-01 6.006483e-01 5.469773e-01 4.925041e-01 4.399014e-01 3.926128e-01 3.499956e-01 3.128649e-01 2.800780e-01 2.514769e-01 2.268373e-01 2.055396e-01 1.883904e-01 1.743375e-01 1.648329e-01 1.584304e-01 
1.607731e-01 1.624392e-01 1.694657e-01 1.798301e-01 1.952415e-01 2.139782e-01 2.373556e-01 2.644477e-01 2.961054e-01 3.326647e-01 3.742595e-01 4.221717e-01 4.747158e-01 5.318300e-01 5.874377e-01 6.357159e-01 6.629770e-01 6.541426e-01 5.901250e-01 4.545656e-01 2.514388e-01 1.747890e-01 4.049053e-01 4.764281e-01 4.613873e-01 5.526437e-01 7.384220e-01 8.723250e-01 9.058744e-01 8.258839e-01 7.118331e-01 6.353391e-01 6.034111e-01 6.336626e-01 7.092978e-01 8.246304e-01 8.972964e-01 8.709017e-01 7.400039e-01 5.550307e-01 4.624998e-01 4.819612e-01 4.117279e-01 1.767799e-01 2.411347e-01 4.498525e-01 5.860396e-01 6.526915e-01 6.617743e-01 6.354954e-01 5.872915e-01 5.319849e-01 4.748465e-01 4.223505e-01 3.744173e-01 3.328203e-01 2.962758e-01 2.646144e-01 2.375432e-01 2.141484e-01 1.954085e-01 1.799588e-01 1.695632e-01 1.624867e-01 
1.628422e-01 1.646539e-01 1.724255e-01 1.837591e-01 2.007115e-01 2.211852e-01 2.469241e-01 2.767049e-01 3.118471e-01 3.524591e-01 3.988595e-01 4.517243e-01 5.085138e-01 5.668445e-01 6.179410e-01 6.502784e-01 6.466337e-01 5.855563e-01 4.509660e-01 2.403576e-01 7.457051e-02 3.107945e-01 4.124048e-01 4.703779e-01 6.894028e-01 9.196879e-01 9.471446e-01 8.372984e-01 7.233070e-01 6.320720e-01 5.779423e-01 5.586546e-01 5.495857e-01 5.590200e-01 5.776093e-01 6.314891e-01 7.135688e-01 8.292468e-01 9.440863e-01 9.189614e-01 6.870187e-01 4.704797e-01 4.170041e-01 3.121619e-01 8.105029e-02 2.332398e-01 4.443760e-01 5.817782e-01 6.445054e-01 6.493206e-01 6.177229e-01 5.668207e-01 5.086394e-01 4.517402e-01 3.988838e-01 3.523879e-01 3.118165e-01 2.766472e-01 2.469289e-01 2.211871e-01 2.007541e-01 1.837896e-01 1.724625e-01 1.646696e-01 
1.622869e-01 1.642268e-01 1.727967e-01 1.851575e-01 2.037986e-01 2.261976e-01 2.546182e-01 2.875169e-01 3.266565e-01 3.719360e-01 4.233515e-01 4.811103e-01 5.401074e-01 5.963816e-01 6.348790e-01 6.422452e-01 5.940355e-01 4.767852e-01 2.894888e-01 5.441051e-02 2.335994e-01 4.060177e-01 5.105359e-01 7.339613e-01 8.928200e-01 8.566108e-01 7.682222e-01 7.061623e-01 6.487752e-01 5.826436e-01 5.201536e-01 4.809629e-01 4.637701e-01 4.809138e-01 5.191496e-01 5.817854e-01 6.436395e-01 7.012811e-01 7.653268e-01 8.524437e-01 8.890586e-01 7.348135e-01 5.130859e-01 4.048427e-01 2.370929e-01 4.940232e-02 2.848723e-01 4.715445e-01 5.901173e-01 6.394935e-01 6.334478e-01 5.956010e-01 5.398826e-01 4.809987e-01 4.233991e-01 3.719246e-01 3.267143e-01 2.875242e-01 2.546861e-01 2.262378e-01 2.038751e-01 1.852059e-01 1.728477e-01 1.642476e-01 
1.593965e-01 1.615000e-01 1.709409e-01 1.844292e-01 2.049338e-01 2.294480e-01 2.608849e-01 2.971713e-01 3.406894e-01 3.905782e-01 4.466303e-01 5.074030e-01 5.654975e-01 6.132434e-01 6.323153e-01 6.046493e-01 5.144126e-01 3.594470e-01 1.831652e-01 1.522494e-01 4.070672e-01 5.291011e-01 6.803437e-01 8.051417e-01 8.014995e-01 7.740294e-01 7.149664e-01 6.353992e-01 5.598283e-01 4.968478e-01 4.515456e-01 4.283581e-01 4.181970e-01 4.286421e-01 4.509278e-01 4.958121e-01 5.552246e-01 6.305162e-01 7.116036e-01 7.709130e-01 7.982997e-01 8.039489e-01 6.814747e-01 5.315336e-01 4.139186e-01 1.585471e-01 1.780648e-01 3.536071e-01 5.108604e-01 6.013325e-01 6.307518e-01 6.119643e-01 5.649081e-01 5.068250e-01 4.462838e-01 3.901675e-01 3.404141e-01 2.968799e-01 2.607177e-01 2.292974e-01 2.048716e-01 1.843775e-01 1.709299e-01 1.614902e-01 
1.533818e-01 1.556142e-01 1.659741e-01 1.805997e-01 2.030857e-01 2.298054e-01 2.645214e-01 3.044056e-01 3.526234e-01 4.071812e-01 4.674982e-01 5.302681e-01 5.847713e-01 6.215145e-01 6.165257e-01 5.594538e-01 4.362118e-01 3.100551e-01 1.547935e-01 3.688955e-01 5.486453e-01 5.874598e-01 7.079471e-01 7.548532e-01 7.441466e-01 6.903904e-01 6.226316e-01 5.622703e-01 5.054144e-01 4.562904e-01 4.144336e-01 3.903046e-01 3.792550e-01 3.904041e-01 4.138714e-01 4.554803e-01 5.026259e-01 5.591432e-01 6.193900e-01 6.869164e-01 7.403515e-01 7.525075e-01 7.045896e-01 5.839431e-01 5.483272e-01 3.696404e-01 1.514061e-01 2.982622e-01 4.283770e-01 5.533226e-01 6.129538e-01 6.193274e-01 5.838501e-01 5.297710e-01 4.673988e-01 4.070401e-01 3.525967e-01 3.042927e-01 2.644890e-01 2.297371e-01 2.030811e-01 1.805791e-01 1.659830e-01 1.556119e-01 
1.448337e-01 1.472412e-01 1.585633e-01 1.744305e-01 1.990292e-01 2.281400e-01 2.664236e-01 3.101422e-01 3.633263e-01 4.223264e-01 4.861739e-01 5.490358e-01 5.969765e-01 6.191813e-01 5.904484e-01 5.057678e-01 3.987573e-01 2.800295e-01 2.896247e-01 5.719865e-01 5.320012e-01 5.925945e-01 6.955890e-01 7.001406e-01 6.712816e-01 6.232517e-01 5.673642e-01 5.096355e-01 4.557610e-01 4.113738e-01 3.766337e-01 3.576300e-01 3.490535e-01 3.576321e-01 3.760135e-01 4.104110e-01 4.532826e-01 5.067838e-01 5.642827e-01 6.201190e-01 6.678662e-01 6.975656e-01 6.929528e-01 5.902492e-01 5.289133e-01 5.681026e-01 2.891179e-01 2.706040e-01 3.969831e-01 5.010394e-01 5.865858e-01 6.157229e-01 5.946376e-01 5.473628e-01 4.851446e-01 4.215274e-01 3.628270e-01 3.097146e-01 2.661747e-01 2.279373e-01 1.989370e-01 1.743616e-01 1.585442e-01 1.472279e-01 
1.331080e-01 1.356453e-01 1.479407e-01 1.649592e-01 1.916307e-01 2.229569e-01 2.647786e-01 3.120177e-01 3.701069e-01 4.327484e-01 4.997173e-01 5.612407e-01 6.028667e-01 6.123768e-01 5.702831e-01 4.804010e-01 4.150368e-01 2.557921e-01 5.448380e-01 5.580844e-01 4.661685e-01 6.084595e-01 6.443143e-01 6.425014e-01 6.074009e-01 5.618718e-01 5.105808e-01 4.641520e-01 4.193874e-01 3.831680e-01 3.523482e-01 3.353923e-01 3.271643e-01 3.353344e-01 3.518510e-01 3.824338e-01 4.177192e-01 4.621664e-01 5.081733e-01 5.592465e-01 6.046121e-01 6.400738e-01 6.427160e-01 6.069365e-01 4.676934e-01 5.506162e-01 5.511394e-01 2.542019e-01 4.112608e-01 4.787329e-01 5.667441e-01 6.098368e-01 6.013134e-01 5.602950e-01 4.993525e-01 4.324286e-01 3.699808e-01 3.118264e-01 2.646948e-01 2.228542e-01 1.916073e-01 1.649326e-01 1.479492e-01 1.356446e-01 
1.192230e-01 1.219189e-01 1.351101e-01 1.532617e-01 1.818620e-01 2.153649e-01 2.606754e-01 3.115088e-01 3.747062e-01 4.411273e-01 5.114462e-01 5.723697e-01 6.072441e-01 6.128055e-01 5.500181e-01 5.117231e-01 3.848827e-01 4.258520e-01 6.326044e-01 4.338293e-01 4.987124e-01 5.993750e-01 6.045767e-01 5.926275e-01 5.538107e-01 5.144747e-01 4.691663e-01 4.276469e-01 3.868880e-01 3.543245e-01 3.270655e-01 3.122946e-01 3.051363e-01 3.121307e-01 3.264789e-01 3.534505e-01 3.853054e-01 4.256926e-01 4.668887e-01 5.117644e-01 5.511412e-01 5.893062e-01 6.029972e-01 5.960288e-01 5.016469e-01 4.239723e-01 6.227108e-01 4.323380e-01 3.803790e-01 5.058274e-01 5.394244e-01 6.057732e-01 6.019148e-01 5.691206e-01 5.095994e-01 4.400436e-01 3.741915e-01 3.112110e-01 2.605944e-01 2.153533e-01 1.819358e-01 1.533412e-01 1.351934e-01 1.219628e-01 
1.028923e-01 1.057012e-01 1.196776e-01 1.386813e-01 1.687773e-01 2.038505e-01 2.520125e-01 3.054960e-01 3.731817e-01 4.417516e-01 5.151609e-01 5.727585e-01 6.024440e-01 6.019457e-01 5.258093e-01 5.256070e-01 3.799260e-01 6.034518e-01 5.423973e-01 3.885640e-01 5.319992e-01 5.554631e-01 5.627321e-01 5.399324e-01 5.067257e-01 4.702684e-01 4.304242e-01 3.946529e-01 3.589615e-01 3.309363e-01 3.064833e-01 2.935184e-01 2.868202e-01 2.933785e-01 3.060602e-01 3.303122e-01 3.579128e-01 3.933188e-01 4.288590e-01 4.683048e-01 5.048118e-01 5.374250e-01 5.613259e-01 5.534276e-01 5.344978e-01 3.930856e-01 5.350861e-01 6.131540e-01 3.773547e-01 5.230283e-01 5.253045e-01 5.981913e-01 5.996788e-01 5.703228e-01 5.139437e-01 4.409065e-01 3.728596e-01 3.053027e-01 2.520228e-01 2.039174e-01 1.689268e-01 1.388323e-01 1.198184e-01 1.057787e-01 
8.557912e-02 8.845713e-02 1.028571e-01 1.223380e-01 1.531305e-01 1.891519e-01 2.392432e-01 2.949208e-01 3.668982e-01 4.377814e-01 5.172538e-01 5.719473e-01 6.116231e-01 5.960943e-01 5.657435e-01 4.886741e-01 4.517964e-01 6.766444e-01 4.360021e-01 4.461171e-01 5.272199e-01 5.346631e-01 5.301914e-01 5.049908e-01 4.711675e-01 4.374032e-01 3.996237e-01 3.662808e-01 3.324674e-01 3.062649e-01 2.833871e-01 2.713670e-01 2.651278e-01 2.711570e-01 2.828887e-01 3.055175e-01 3.313674e-01 3.648440e-01 3.979222e-01 4.351819e-01 4.686315e-01 5.016224e-01 5.263078e-01 5.303426e-01 5.214992e-01 4.468094e-01 4.271609e-01 6.693045e-01 4.558059e-01 4.827396e-01 5.602018e-01 5.846556e-01 6.054376e-01 5.675277e-01 5.154780e-01 4.370705e-01 3.670082e-01 2.953353e-01 2.398234e-01 1.897761e-01 1.537343e-01 1.228758e-01 1.032665e-01 8.868601e-02 
6.749167e-02 7.038731e-02 8.485557e-02 1.042383e-01 1.346935e-01 1.706066e-01 2.211439e-01 2.777991e-01 3.526217e-01 4.247688e-01 5.101781e-01 5.603623e-01 6.155454e-01 5.757584e-01 6.144710e-01 4.839886e-01 5.850452e-01 6.179983e-01 3.770436e-01 5.054124e-01 5.041980e-01 5.221139e-01 4.986421e-01 4.753901e-01 4.393467e-01 4.071169e-01 3.702311e-01 3.387279e-01 3.065527e-01 2.820444e-01 2.603675e-01 2.491439e-01 2.431700e-01 2.489829e-01 2.600250e-01 2.815225e-01 3.058577e-01 3.377960e-01 3.691972e-01 4.057113e-01 4.377736e-01 4.732019e-01 4.959035e-01 5.189610e-01 4.995786e-01 5.039335e-01 3.737324e-01 6.139756e-01 5.884253e-01 4.736954e-01 5.958906e-01 5.589663e-01 6.053991e-01 5.540619e-01 5.072193e-01 4.235464e-01 3.524739e-01 2.781931e-01 2.217918e-01 1.713794e-01 1.354681e-01 1.049634e-01 8.542585e-02 7.072090e-02 
5.032052e-02 5.306370e-02 6.682879e-02 8.522325e-02 1.137257e-01 1.481458e-01 1.967970e-01 2.531474e-01 3.279579e-01 4.020532e-01 4.899227e-01 5.434670e-01 6.039636e-01 5.710672e-01 6.054166e-01 5.085730e-01 6.642428e-01 5.602763e-01 4.387018e-01 5.400537e-01 5.083350e-01 5.205317e-01 4.833117e-01 4.585965e-01 4.180905e-01 3.849452e-01 3.463518e-01 3.140815e-01 2.811867e-01 2.561792e-01 2.342415e-01 2.227317e-01 2.167555e-01 2.225202e-01 2.338358e-01 2.555567e-01 2.804243e-01 3.130635e-01 3.452396e-01 3.834272e-01 4.162758e-01 4.559226e-01 4.794068e-01 5.146900e-01 4.988420e-01 5.273848e-01 4.250764e-01 5.488153e-01 6.901409e-01 5.059663e-01 5.863567e-01 5.620648e-01 5.986655e-01 5.421777e-01 4.903726e-01 4.038550e-01 3.300373e-01 2.554123e-01 1.988577e-01 1.500683e-01 1.153785e-01 8.665590e-02 6.790959e-02 5.370221e-02 
3.462172e-02 3.710929e-02 4.954105e-02 6.610973e-02 9.128429e-02 1.228799e-01 1.676350e-01 2.223259e-01 2.946822e-01 3.714540e-01 4.594325e-01 5.258737e-01 5.860983e-01 5.978681e-01 6.008763e-01 5.913728e-01 6.996623e-01 5.381885e-01 5.373692e-01 5.591702e-01 5.285713e-01 5.193921e-01 4.770808e-01 4.453836e-01 4.018248e-01 3.649290e-01 3.243671e-01 2.898120e-01 2.557132e-01 2.292710e-01 2.065023e-01 1.941594e-01 1.880341e-01 1.939554e-01 2.061536e-01 2.287246e-01 2.551339e-01 2.890308e-01 3.236466e-01 3.639165e-01 4.008032e-01 4.436694e-01 4.747406e-01 5.148287e-01 5.210998e-01 5.439102e-01 5.187715e-01 5.125376e-01 6.817464e-01 5.840000e-01 5.697733e-01 5.851035e-01 5.785869e-01 5.243755e-01 4.598653e-01 3.737238e-01 2.972409e-01 2.251726e-01 1.702378e-01 1.253280e-01 9.341040e-02 6.798612e-02 5.100088e-02 3.802030e-02 
2.176856e-02 2.371992e-02 3.389636e-02 4.758996e-02 6.787941e-02 9.494069e-02 1.332493e-01 1.835467e-01 2.495327e-01 3.257179e-01 4.093005e-01 4.864549e-01 5.422451e-01 5.911795e-01 5.776986e-01 6.365174e-01 6.534634e-01 5.207617e-01 5.817436e-01 5.654366e-01 5.478347e-01 5.200448e-01 4.784124e-01 4.383366e-01 3.926030e-01 3.503222e-01 3.070380e-01 2.683709e-01 2.315799e-01 2.017001e-01 1.764791e-01 1.618728e-01 1.551255e-01 1.616247e-01 1.760883e-01 2.011129e-01 2.310422e-01 2.677153e-01 3.066310e-01 3.498864e-01 3.926770e-01 4.384967e-01 4.796197e-01 5.214243e-01 5.518780e-01 5.691729e-01 5.942837e-01 5.284007e-01 6.486536e-01 6.417433e-01 5.735337e-01 5.987513e-01 5.487509e-01 4.949267e-01 4.165870e-01 3.328892e-01 2.555676e-01 1.889142e-01 1.376861e-01 9.874195e-02 7.102507e-02 5.027022e-02 3.598893e-02 2.508665e-02 
1.208626e-02 1.330558e-02 2.075078e-02 3.106473e-02 4.588015e-02 6.755171e-02 9.825103e-02 1.424452e-01 2.002485e-01 2.740381e-01 3.539986e-01 4.427016e-01 5.066398e-01 5.862008e-01 5.915729e-01 6.649236e-01 6.308812e-01 5.610669e-01 6.290870e-01 5.865631e-01 5.738543e-01 5.273376e-01 4.861043e-01 4.355686e-01 3.880190e-01 3.388926e-01 2.929969e-01 2.491774e-01 2.093198e-01 1.747485e-01 1.459276e-01 1.275624e-01 1.196267e-01 1.271957e-01 1.453801e-01 1.739586e-01 2.086144e-01 2.483431e-01 2.924378e-01 3.383151e-01 3.879299e-01 4.356020e-01 4.869557e-01 5.284365e-01 5.763715e-01 5.892622e-01 6.339648e-01 5.665788e-01 6.192295e-01 6.697876e-01 6.018704e-01 5.968949e-01 5.154239e-01 4.527017e-01 3.627289e-01 2.825340e-01 2.074606e-01 1.488832e-01 1.036182e-01 7.219152e-02 4.974792e-02 3.441188e-02 2.343214e-02 1.520637e-02 
5.885165e-03 6.224994e-03 1.078019e-02 1.769241e-02 2.707561e-02 4.305161e-02 6.538682e-02 1.016939e-01 1.490888e-01 2.168330e-01 2.919867e-01 3.872334e-01 4.673706e-01 5.663393e-01 6.220019e-01 6.839058e-01 6.126407e-01 5.983532e-01 6.518165e-01 6.047081e-01 5.903638e-01 5.339195e-01 4.925612e-01 4.347328e-01 3.858525e-01 3.311586e-01 2.829995e-01 2.342787e-01 1.910807e-01 1.508526e-01 1.166792e-01 9.181108e-02 8.118611e-02 9.136417e-02 1.161103e-01 1.501108e-01 1.905425e-01 2.337428e-01 2.828838e-01 3.312870e-01 3.866980e-01 4.362428e-01 4.951917e-01 5.378093e-01 5.953970e-01 6.111465e-01 6.560221e-01 6.030718e-01 6.020105e-01 6.740017e-01 6.256791e-01 5.737695e-01 4.785436e-01 3.989336e-01 3.031917e-01 2.269447e-01 1.577602e-01 1.090989e-01 7.154086e-02 4.827168e-02 3.142759e-02 2.146630e-02 1.386879e-02 8.602498e-03 
2.753737e-03 2.023877e-03 4.270995e-03 8.649906e-03 1.374865e-02 2.505627e-02 3.991761e-02 6.888697e-02 1.063766e-01 1.677461e-01 2.388718e-01 3.369377e-01 4.326147e-01 5.364707e-01 6.234859e-01 6.723897e-01 6.031041e-01 6.243626e-01 6.609960e-01 6.187511e-01 6.015415e-01 5.405309e-01 4.984938e-01 4.356768e-01 3.857480e-01 3.268742e-01 2.771214e-01 2.246163e-01 1.788467e-01 1.336283e-01 9.365681e-02 5.880980e-02 4.112482e-02 5.787844e-02 9.265861e-02 1.324615e-01 1.779293e-01 2.236963e-01 2.766291e-01 3.266627e-01 3.862599e-01 4.370365e-01 5.010230e-01 5.449134e-01 6.073677e-01 6.278408e-01 6.701225e-01 6.385885e-01 6.094803e-01 6.779367e-01 6.359089e-01 5.501974e-01 4.498438e-01 3.527441e-01 2.535930e-01 1.801784e-01 1.168807e-01 7.757084e-02 4.707052e-02 3.108582e-02 1.877868e-02 1.307192e-02 7.975348e-03 5.120545e-03 
1.771871e-03 2.285883e-04 1.801648e-03 5.462811e-03 8.652610e-03 1.817246e-02 2.956361e-02 5.569235e-02 8.912145e-02 1.486420e-01 2.196493e-01 3.204617e-01 4.260994e-01 5.344472e-01 6.381255e-01 6.872184e-01 6.123798e-01 6.379759e-01 6.664410e-01 6.241647e-01 6.051176e-01 5.424647e-01 4.999515e-01 4.356513e-01 3.853461e-01 3.252405e-01 2.749499e-01 2.211901e-01 1.744275e-01 1.271529e-01 8.422291e-02 4.164038e-02 4.426393e-04 4.060054e-02 8.339787e-02 1.262479e-01 1.738241e-01 2.206489e-01 2.748597e-01 3.254935e-01 3.862680e-01 4.374038e-01 5.024987e-01 5.464697e-01 6.091152e-01 6.297710e-01 6.678440e-01 6.396045e-01 6.005568e-01 6.749342e-01 6.394237e-01 5.397112e-01 4.384099e-01 3.327145e-01 2.325445e-01 1.596951e-01 9.898832e-02 6.384432e-02 3.650550e-02 2.396415e-02 1.361314e-02 9.788039e-03 5.682706e-03 3.876248e-03 
2.753737e-03 2.023877e-03 4.270995e-03 8.649906e-03 1.374865e-02 2.505627e-02 3.991761e-02 6.888697e-02 1.063766e-01 1.677461e-01 2.388718e-01 3.369377e-01 4.326147e-01 5.364707e-01 6.234859e-01 6.723897e-01 6.031041e-01 6.243626e-01 6.609960e-01 6.187511e-01 6.015415e-01 5.405309e-01 4.984938e-01 4.356768e-01 3.857480e-01 3.268742e-01 2.771214e-01 2.246163e-01 1.788467e-01 1.336283e-01 9.365681e-02 5.880980e-02 4.112482e-02 5.787844e-02 9.265861e-02 1.324615e-01 1.779293e-01 2.236963e-01 2.766291e-01 3.266627e-01 3.862599e-01 4.370365e-01 5.010230e-01 5.449134e-01 6.073677e-01 6.278408e-01 6.701225e-01 6.385885e-01 6.094803e-01 6.779367e-01 6.359089e-01 5.501974e-01 4.498438e-01 3.527441e-01 2.535930e-01 1.801784e-01 1.168807e-01 7.757084e-02 4.707052e-02 3.108582e-02 1.877868e-02 1.307192e-02 7.975348e-03 5.120545e-03 
5.885165e-03 6.224994e-03 1.078019e-02 1.769241e-02 2.707561e-02 4.305161e-02 6.538682e-02 1.016939e-01 1.490888e-01 2.168330e-01 2.919867e-01 3.872334e-01 4.673706e-01 5.663393e-01 6.220019e-01 6.839058e-01 6.126407e-01 5.983532e-01 6.518165e-01 6.047081e-01 5.903638e-01 5.339195e-01 4.925612e-01 4.347328e-01 3.858525e-01 3.311586e-01 2.829995e-01 2.342787e-01 1.910807e-01 1.508526e-01 1.166792e-01 9.181108e-02 8.118611e-02 9.136417e-02 1.161103e-01 1.501108e-01 1.905425e-01 2.337428e-01 2.828838e-01 3.312870e-01 3.866980e-01 4.362428e-01 4.951917e-01 5.378093e-01 5.953970e-01 6.111465e-01 6.560221e-01 6.030718e-01 6.020105e-01 6.740017e-01 6.256791e-01 5.737695e-01 4.785436e-01 3.989336e-01 3.031917e-01 2.269447e-01 1.577602e-01 1.090989e-01 7.154086e-02 4.827168e-02 3.142759e-02 2.146630e-02 1.386879e-02 8.602498e-03 