# vtk DataFile Version 2.0
Comment goes here
ASCII

DATASET STRUCTURED_POINTS
FIELD FieldData 1
TIME 1 1 double
1.07000000
DIMENSIONS    64   64   1

ORIGIN    0.000   0.000   0.000
SPACING   0.015625 0.015625   1.000

POINT_DATA   4096
SCALARS uMag double
LOOKUP_TABLE default

1.921419e-03 2.390157e-03 7.108087e-03 1.187245e-02 1.737900e-02 2.318401e-02 2.999519e-02 3.731628e-02 4.579893e-02 5.492436e-02 6.522037e-02 7.616659e-02 8.810781e-02 1.005278e-01 1.135478e-01 1.266464e-01 1.397093e-01 1.521975e-01 1.637831e-01 1.739163e-01 1.821098e-01 1.878556e-01 1.905789e-01 1.899197e-01 1.852918e-01 1.766228e-01 1.634022e-01 1.459772e-01 1.240623e-01 9.849782e-02 6.945655e-02 3.818500e-02 5.433383e-03 2.746718e-02 5.936576e-02 8.926486e-02 1.160221e-01 1.391941e-01 1.580193e-01 1.725196e-01 1.824803e-01 1.881475e-01 1.898488e-01 1.878472e-01 1.828952e-01 1.751518e-01 1.656134e-01 1.542913e-01 1.422420e-01 1.293362e-01 1.165463e-01 1.036398e-01 9.141395e-02 7.958556e-02 6.873038e-02 5.857111e-02 4.944550e-02 4.113256e-02 3.373350e-02 2.712248e-02 2.117691e-02 1.589080e-02 1.093989e-02 6.448127e-03 
4.845367e-03 5.065795e-03 8.446005e-03 1.280906e-02 1.812438e-02 2.386564e-02 3.064019e-02 3.797617e-02 4.646660e-02 5.563496e-02 6.594810e-02 7.694176e-02 8.888901e-02 1.013419e-01 1.143424e-01 1.274405e-01 1.404501e-01 1.528865e-01 1.643858e-01 1.744074e-01 1.824964e-01 1.880861e-01 1.907230e-01 1.899286e-01 1.853103e-01 1.766745e-01 1.637282e-01 1.467809e-01 1.257758e-01 1.017175e-01 7.536219e-02 4.968369e-02 3.327811e-02 4.229020e-02 6.651139e-02 9.305518e-02 1.180471e-01 1.401328e-01 1.583938e-01 1.725489e-01 1.824336e-01 1.880693e-01 1.898819e-01 1.879711e-01 1.831639e-01 1.755424e-01 1.661139e-01 1.549014e-01 1.429073e-01 1.300803e-01 1.172954e-01 1.044332e-01 9.217682e-02 8.036383e-02 6.946022e-02 5.929916e-02 5.012511e-02 4.180970e-02 3.438244e-02 2.779261e-02 2.187216e-02 1.668560e-02 1.192507e-02 7.901360e-03 
8.996525e-03 9.250260e-03 1.164253e-02 1.535148e-02 2.026808e-02 2.580852e-02 3.248260e-02 3.976538e-02 4.825623e-02 5.740388e-02 6.773033e-02 7.867457e-02 9.059050e-02 1.029250e-01 1.158077e-01 1.286965e-01 1.414812e-01 1.536250e-01 1.648113e-01 1.745159e-01 1.822925e-01 1.876816e-01 1.901980e-01 1.895650e-01 1.853273e-01 1.775603e-01 1.658977e-01 1.509543e-01 1.326853e-01 1.125512e-01 9.186205e-02 7.429724e-02 6.542599e-02 6.985517e-02 8.519054e-02 1.052996e-01 1.258825e-01 1.449877e-01 1.610646e-01 1.738388e-01 1.827625e-01 1.879513e-01 1.895528e-01 1.877010e-01 1.830721e-01 1.757054e-01 1.665831e-01 1.556319e-01 1.439182e-01 1.312718e-01 1.186757e-01 1.058952e-01 9.372744e-02 8.191705e-02 7.102578e-02 6.082632e-02 5.163019e-02 4.328397e-02 3.585695e-02 2.930886e-02 2.349926e-02 1.854858e-02 1.422078e-02 1.097086e-02 
1.313289e-02 1.341456e-02 1.535331e-02 1.864849e-02 2.323531e-02 2.864266e-02 3.525318e-02 4.257607e-02 5.112610e-02 6.037260e-02 7.077347e-02 8.179085e-02 9.371119e-02 1.060217e-01 1.187705e-01 1.314779e-01 1.439511e-01 1.557227e-01 1.664365e-01 1.756075e-01 1.828607e-01 1.877064e-01 1.898950e-01 1.890582e-01 1.851209e-01 1.781148e-01 1.680873e-01 1.558126e-01 1.415931e-01 1.270704e-01 1.134816e-01 1.031828e-01 9.856363e-02 1.006060e-01 1.091222e-01 1.217347e-01 1.361980e-01 1.507797e-01 1.638436e-01 1.747395e-01 1.827106e-01 1.874936e-01 1.891973e-01 1.876310e-01 1.835033e-01 1.766463e-01 1.680484e-01 1.575723e-01 1.462306e-01 1.339092e-01 1.214871e-01 1.088599e-01 9.669484e-02 8.489934e-02 7.389992e-02 6.363751e-02 5.429674e-02 4.588447e-02 3.836015e-02 3.183185e-02 2.607582e-02 2.134977e-02 1.736863e-02 1.464815e-02 
1.711763e-02 1.748170e-02 1.926507e-02 2.237586e-02 2.680204e-02 3.215703e-02 3.879461e-02 4.618993e-02 5.487412e-02 6.421548e-02 7.474370e-02 8.577557e-02 9.770354e-02 1.098553e-01 1.223900e-01 1.346945e-01 1.466652e-01 1.577716e-01 1.677147e-01 1.760568e-01 1.824617e-01 1.866273e-01 1.883517e-01 1.876092e-01 1.843695e-01 1.791218e-01 1.718321e-01 1.636348e-01 1.543843e-01 1.456444e-01 1.378231e-01 1.321879e-01 1.298012e-01 1.306297e-01 1.350767e-01 1.420746e-01 1.506130e-01 1.599960e-01 1.687025e-01 1.766219e-01 1.825878e-01 1.864906e-01 1.879585e-01 1.867168e-01 1.832127e-01 1.770941e-01 1.693057e-01 1.595151e-01 1.488199e-01 1.369392e-01 1.248865e-01 1.124335e-01 1.003781e-01 8.855254e-02 7.748096e-02 6.707818e-02 5.758414e-02 4.902380e-02 4.137423e-02 3.479497e-02 2.905515e-02 2.447568e-02 2.074013e-02 1.835823e-02 
2.077896e-02 2.121550e-02 2.293997e-02 2.603084e-02 3.042923e-02 3.587976e-02 4.264789e-02 5.026204e-02 5.917892e-02 6.877561e-02 7.952604e-02 9.074168e-02 1.027534e-01 1.149036e-01 1.272589e-01 1.392688e-01 1.507100e-01 1.611607e-01 1.702385e-01 1.776071e-01 1.830152e-01 1.861568e-01 1.872188e-01 1.860143e-01 1.831827e-01 1.790604e-01 1.742342e-01 1.700106e-01 1.663232e-01 1.643151e-01 1.633219e-01 1.629086e-01 1.630390e-01 1.625447e-01 1.626394e-01 1.630794e-01 1.647313e-01 1.680831e-01 1.723039e-01 1.773474e-01 1.817990e-01 1.850958e-01 1.868186e-01 1.861539e-01 1.836034e-01 1.784409e-01 1.716208e-01 1.626834e-01 1.526498e-01 1.413110e-01 1.295407e-01 1.172954e-01 1.052040e-01 9.332723e-02 8.201586e-02 7.141690e-02 6.160604e-02 5.282506e-02 4.490307e-02 3.819071e-02 3.232753e-02 2.778438e-02 2.411899e-02 2.190973e-02 
2.413284e-02 2.467201e-02 2.646236e-02 2.966400e-02 3.420081e-02 3.986863e-02 4.692147e-02 5.484686e-02 6.414012e-02 7.404326e-02 8.513775e-02 9.652259e-02 1.086870e-01 1.207253e-01 1.328698e-01 1.443542e-01 1.550783e-01 1.645189e-01 1.723535e-01 1.783321e-01 1.822455e-01 1.841074e-01 1.842195e-01 1.829682e-01 1.811239e-01 1.797334e-01 1.790109e-01 1.803732e-01 1.821858e-01 1.852616e-01 1.880853e-01 1.900878e-01 1.913316e-01 1.903083e-01 1.885640e-01 1.856776e-01 1.826020e-01 1.805703e-01 1.790814e-01 1.796649e-01 1.808876e-01 1.828146e-01 1.842952e-01 1.843164e-01 1.829606e-01 1.791091e-01 1.736614e-01 1.658413e-01 1.567942e-01 1.460978e-01 1.348064e-01 1.227414e-01 1.106998e-01 9.867173e-02 8.712780e-02 7.620294e-02 6.603437e-02 5.690022e-02 4.864029e-02 4.167144e-02 3.560741e-02 3.098564e-02 2.730720e-02 2.517858e-02 
2.697016e-02 2.761524e-02 2.948899e-02 3.288803e-02 3.763113e-02 4.363401e-02 5.104844e-02 5.942154e-02 6.917359e-02 7.954574e-02 9.107430e-02 1.028240e-01 1.152357e-01 1.273901e-01 1.394150e-01 1.506174e-01 1.607073e-01 1.693594e-01 1.760471e-01 1.807795e-01 1.833695e-01 1.839135e-01 1.832853e-01 1.814253e-01 1.802137e-01 1.798089e-01 1.813068e-01 1.865062e-01 1.938992e-01 2.039185e-01 2.136091e-01 2.206532e-01 2.244816e-01 2.222190e-01 2.166084e-01 2.073706e-01 1.974083e-01 1.893347e-01 1.833712e-01 1.811663e-01 1.807419e-01 1.817459e-01 1.834567e-01 1.840894e-01 1.839541e-01 1.813480e-01 1.771569e-01 1.704527e-01 1.622087e-01 1.521635e-01 1.411322e-01 1.292336e-01 1.170157e-01 1.047938e-01 9.280483e-02 8.149026e-02 7.077641e-02 6.121311e-02 5.245408e-02 4.514589e-02 3.873944e-02 3.395116e-02 3.013226e-02 2.801033e-02 
2.933014e-02 3.010835e-02 3.216121e-02 3.586424e-02 4.096997e-02 4.744295e-02 5.540277e-02 6.435403e-02 7.476485e-02 8.570590e-02 9.787212e-02 1.100254e-01 1.228654e-01 1.350812e-01 1.470968e-01 1.578421e-01 1.672576e-01 1.748086e-01 1.800516e-01 1.831078e-01 1.837797e-01 1.826703e-01 1.807661e-01 1.789136e-01 1.790696e-01 1.826479e-01 1.896773e-01 2.015717e-01 2.132995e-01 2.256815e-01 2.359194e-01 2.428064e-01 2.468757e-01 2.445912e-01 2.395291e-01 2.303482e-01 2.188852e-01 2.073152e-01 1.952181e-01 1.870257e-01 1.815869e-01 1.804716e-01 1.816743e-01 1.831320e-01 1.845898e-01 1.836207e-01 1.811093e-01 1.756718e-01 1.684849e-01 1.590259e-01 1.483715e-01 1.364694e-01 1.241040e-01 1.114893e-01 9.902634e-02 8.712825e-02 7.580249e-02 6.563436e-02 5.628922e-02 4.848918e-02 4.165013e-02 3.657356e-02 3.254620e-02 3.036495e-02 
3.100189e-02 3.193077e-02 3.417010e-02 3.824581e-02 4.374864e-02 5.078370e-02 5.932550e-02 6.896428e-02 8.007264e-02 9.172671e-02 1.045871e-01 1.173576e-01 1.307253e-01 1.433313e-01 1.555086e-01 1.662772e-01 1.752892e-01 1.823751e-01 1.866173e-01 1.887781e-01 1.883816e-01 1.864823e-01 1.847298e-01 1.828623e-01 1.846500e-01 1.876630e-01 1.935430e-01 2.061445e-01 2.221153e-01 2.424824e-01 2.614364e-01 2.750364e-01 2.828220e-01 2.786634e-01 2.687280e-01 2.513970e-01 2.319329e-01 2.154251e-01 2.017648e-01 1.940232e-01 1.882147e-01 1.852406e-01 1.858285e-01 1.870269e-01 1.892046e-01 1.891830e-01 1.876258e-01 1.831303e-01 1.764253e-01 1.673901e-01 1.566516e-01 1.446517e-01 1.317802e-01 1.187066e-01 1.054983e-01 9.295835e-02 8.081502e-02 6.998137e-02 5.988940e-02 5.153124e-02 4.412896e-02 3.869854e-02 3.436213e-02 3.208172e-02 
3.199828e-02 3.311010e-02 3.562572e-02 4.019011e-02 4.624935e-02 5.400510e-02 6.333885e-02 7.383889e-02 8.590747e-02 9.844157e-02 1.123214e-01 1.258471e-01 1.401383e-01 1.532255e-01 1.660164e-01 1.768382e-01 1.858694e-01 1.924257e-01 1.958229e-01 1.968050e-01 1.947790e-01 1.913797e-01 1.881919e-01 1.860690e-01 1.882373e-01 1.961774e-01 2.098896e-01 2.317529e-01 2.496390e-01 2.665997e-01 2.798680e-01 2.889085e-01 2.956815e-01 2.918611e-01 2.861494e-01 2.749702e-01 2.603808e-01 2.446041e-01 2.243274e-01 2.077407e-01 1.942374e-01 1.894784e-01 1.898798e-01 1.919539e-01 1.959026e-01 1.972130e-01 1.969295e-01 1.930786e-01 1.867953e-01 1.776407e-01 1.666815e-01 1.540742e-01 1.405796e-01 1.266538e-01 1.126004e-01 9.912668e-02 8.606457e-02 7.434091e-02 6.339313e-02 5.429748e-02 4.622369e-02 4.030257e-02 3.557661e-02 3.312869e-02 
3.217717e-02 3.350739e-02 3.632508e-02 4.145377e-02 4.809421e-02 5.664820e-02 6.677350e-02 7.821780e-02 9.123492e-02 1.047785e-01 1.197001e-01 1.342432e-01 1.495911e-01 1.636821e-01 1.774056e-01 1.891634e-01 1.987079e-01 2.059267e-01 2.090390e-01 2.101750e-01 2.073899e-01 2.041646e-01 2.022380e-01 2.014623e-01 2.091551e-01 2.114340e-01 2.119105e-01 2.247193e-01 2.460006e-01 2.781474e-01 3.083114e-01 3.302695e-01 3.441074e-01 3.359735e-01 3.209039e-01 2.930685e-01 2.625978e-01 2.419858e-01 2.287459e-01 2.239718e-01 2.150196e-01 2.051304e-01 2.031244e-01 2.042326e-01 2.083560e-01 2.104135e-01 2.102950e-01 2.067245e-01 1.998450e-01 1.902251e-01 1.781855e-01 1.647147e-01 1.499810e-01 1.350578e-01 1.197682e-01 1.052888e-01 9.106855e-02 7.840962e-02 6.644940e-02 5.656789e-02 4.770475e-02 4.123637e-02 3.603341e-02 3.338641e-02 
3.147334e-02 3.306635e-02 3.626662e-02 4.209053e-02 4.945853e-02 5.898742e-02 7.012060e-02 8.273009e-02 9.702286e-02 1.118467e-01 1.283141e-01 1.442003e-01 1.613660e-01 1.768282e-01 1.925299e-01 2.055462e-01 2.167652e-01 2.246792e-01 2.282016e-01 2.286143e-01 2.239460e-01 2.176011e-01 2.120999e-01 2.071426e-01 2.068932e-01 2.165859e-01 2.359798e-01 2.697874e-01 2.890806e-01 3.030679e-01 3.136024e-01 3.227722e-01 3.342913e-01 3.263485e-01 3.216019e-01 3.129419e-01 3.024561e-01 2.918357e-01 2.666423e-01 2.381034e-01 2.120190e-01 2.072957e-01 2.110133e-01 2.154455e-01 2.242410e-01 2.284490e-01 2.295025e-01 2.255820e-01 2.178274e-01 2.064881e-01 1.928808e-01 1.774696e-01 1.611323e-01 1.444940e-01 1.277392e-01 1.118145e-01 9.627896e-02 8.240606e-02 6.930131e-02 5.843823e-02 4.866041e-02 4.149737e-02 3.571089e-02 3.278707e-02 
2.991323e-02 3.183142e-02 3.548151e-02 4.208908e-02 5.020557e-02 6.076746e-02 7.286919e-02 8.669907e-02 1.022071e-01 1.184406e-01 1.364619e-01 1.540552e-01 1.732592e-01 1.909202e-01 2.091011e-01 2.247370e-01 2.380100e-01 2.478702e-01 2.506337e-01 2.498541e-01 2.389243e-01 2.278158e-01 2.156001e-01 2.147428e-01 2.450653e-01 2.432002e-01 2.132835e-01 2.130722e-01 2.529460e-01 3.106230e-01 3.561346e-01 3.810834e-01 3.996751e-01 3.852110e-01 3.714138e-01 3.283446e-01 2.751503e-01 2.453287e-01 2.429734e-01 2.560032e-01 2.445962e-01 2.136503e-01 2.086617e-01 2.210051e-01 2.365991e-01 2.477118e-01 2.514040e-01 2.488119e-01 2.395944e-01 2.264720e-01 2.100212e-01 1.922143e-01 1.732303e-01 1.545573e-01 1.357266e-01 1.182235e-01 1.010755e-01 8.595209e-02 7.156354e-02 5.969664e-02 4.891820e-02 4.101180e-02 3.456984e-02 3.133025e-02 
2.729745e-02 2.960930e-02 3.376446e-02 4.127809e-02 5.022394e-02 6.197623e-02 7.521578e-02 9.052188e-02 1.076110e-01 1.256734e-01 1.459728e-01 1.659049e-01 1.883979e-01 2.089869e-01 2.313359e-01 2.497817e-01 2.664127e-01 2.763953e-01 2.774933e-01 2.695694e-01 2.470614e-01 2.174315e-01 1.965436e-01 1.770483e-01 1.824878e-01 2.591716e-01 3.183504e-01 3.803754e-01 3.689481e-01 3.292310e-01 3.064773e-01 2.839194e-01 2.858419e-01 2.774774e-01 2.960535e-01 3.196656e-01 3.639899e-01 4.012112e-01 3.739679e-01 3.013054e-01 1.865515e-01 1.614273e-01 1.836115e-01 2.020464e-01 2.386850e-01 2.640327e-01 2.762033e-01 2.767498e-01 2.675169e-01 2.514095e-01 2.318294e-01 2.100323e-01 1.878330e-01 1.660108e-01 1.446932e-01 1.249887e-01 1.059851e-01 8.928746e-02 7.346426e-02 6.041469e-02 4.851537e-02 3.973810e-02 3.251292e-02 2.887235e-02 
2.394636e-02 2.676484e-02 3.155112e-02 4.004593e-02 4.981881e-02 6.277058e-02 7.706436e-02 9.386354e-02 1.124354e-01 1.324562e-01 1.550455e-01 1.777681e-01 2.038302e-01 2.283594e-01 2.552405e-01 2.777517e-01 2.965925e-01 3.057795e-01 2.977115e-01 2.737476e-01 2.181491e-01 1.595251e-01 1.073374e-01 2.230740e-01 3.625678e-01 3.336210e-01 2.471847e-01 2.639287e-01 2.678251e-01 2.884437e-01 3.191972e-01 3.207328e-01 3.334146e-01 3.236535e-01 3.223303e-01 2.987482e-01 2.721795e-01 2.651673e-01 2.558564e-01 3.477579e-01 3.849920e-01 2.749491e-01 1.208353e-01 1.310909e-01 1.994170e-01 2.581944e-01 2.911032e-01 3.037012e-01 2.975591e-01 2.805509e-01 2.568187e-01 2.307421e-01 2.038384e-01 1.783458e-01 1.536583e-01 1.315175e-01 1.103112e-01 9.201088e-02 7.467294e-02 6.046871e-02 4.744481e-02 3.777910e-02 2.973698e-02 2.563346e-02 
1.947262e-02 2.293258e-02 2.835197e-02 3.785946e-02 4.837871e-02 6.258921e-02 7.796891e-02 9.651233e-02 1.168921e-01 1.394711e-01 1.652520e-01 1.918208e-01 2.231347e-01 2.526180e-01 2.857552e-01 3.108824e-01 3.306821e-01 3.300749e-01 3.036081e-01 2.441568e-01 1.371328e-01 9.057663e-02 2.509193e-01 2.528415e-01 1.878704e-01 1.875789e-01 2.085507e-01 2.954742e-01 3.330307e-01 3.867901e-01 3.869935e-01 3.678551e-01 3.675027e-01 3.623296e-01 3.886102e-01 3.853625e-01 3.347030e-01 2.957625e-01 2.069306e-01 1.960961e-01 1.949888e-01 2.605518e-01 2.883778e-01 1.364979e-01 9.625610e-02 2.154537e-01 2.860289e-01 3.225447e-01 3.282920e-01 3.121877e-01 2.863502e-01 2.547614e-01 2.228225e-01 1.923087e-01 1.636427e-01 1.382858e-01 1.145027e-01 9.426729e-02 7.524921e-02 5.978624e-02 4.557055e-02 3.497627e-02 2.600812e-02 2.134861e-02 
1.463628e-02 1.898226e-02 2.518907e-02 3.565614e-02 4.684768e-02 6.222757e-02 7.858057e-02 9.883469e-02 1.209282e-01 1.461589e-01 1.751475e-01 2.058575e-01 2.424519e-01 2.771455e-01 3.154304e-01 3.420728e-01 3.572235e-01 3.402327e-01 2.787403e-01 1.548349e-01 5.644922e-02 1.951684e-01 1.732880e-01 1.207371e-01 2.099417e-01 4.054437e-01 5.786352e-01 6.056564e-01 5.262311e-01 4.352499e-01 3.064073e-01 2.125770e-01 1.654471e-01 1.877404e-01 2.754417e-01 4.047813e-01 4.998867e-01 5.936240e-01 5.516653e-01 3.935752e-01 2.168063e-01 1.278481e-01 1.677120e-01 2.161100e-01 1.070143e-01 9.566934e-02 2.417604e-01 3.221145e-01 3.514103e-01 3.443352e-01 3.172860e-01 2.814295e-01 2.430662e-01 2.070385e-01 1.734303e-01 1.445296e-01 1.178799e-01 9.569637e-02 7.505708e-02 5.844292e-02 4.319284e-02 3.174214e-02 2.191746e-02 1.657971e-02 
8.908571e-03 1.453972e-02 2.133822e-02 3.245389e-02 4.394379e-02 6.034063e-02 7.745281e-02 9.959143e-02 1.235250e-01 1.521639e-01 1.851953e-01 2.215586e-01 2.650299e-01 3.059862e-01 3.497628e-01 3.731580e-01 3.769124e-01 3.218510e-01 2.021609e-01 1.663366e-02 1.543218e-01 1.430758e-01 1.484529e-01 3.520083e-01 5.767482e-01 6.264618e-01 5.412089e-01 4.005928e-01 3.000648e-01 2.365093e-01 1.867214e-01 1.648657e-01 1.562337e-01 1.581672e-01 1.750519e-01 2.193151e-01 2.731742e-01 3.831045e-01 5.075254e-01 5.869864e-01 5.623401e-01 3.723115e-01 1.662604e-01 1.343143e-01 1.524138e-01 2.751390e-02 1.420369e-01 2.859185e-01 3.614436e-01 3.700459e-01 3.492636e-01 3.100075e-01 2.659431e-01 2.233986e-01 1.840161e-01 1.507807e-01 1.206646e-01 9.626053e-02 7.380453e-02 5.607588e-02 3.983862e-02 2.769088e-02 1.706566e-02 1.089149e-02 
4.245022e-03 1.140069e-02 1.848418e-02 2.972595e-02 4.132368e-02 5.851778e-02 7.632874e-02 1.002940e-01 1.261129e-01 1.581997e-01 1.953692e-01 2.370072e-01 2.865991e-01 3.311841e-01 3.757770e-01 3.897487e-01 3.706666e-01 2.774264e-01 1.224367e-01 1.012814e-01 1.685150e-01 1.990261e-01 4.077312e-01 5.273389e-01 4.967937e-01 4.255533e-01 3.736336e-01 3.131384e-01 2.590022e-01 2.020500e-01 1.469676e-01 1.062565e-01 8.490192e-02 9.312455e-02 1.276435e-01 1.853232e-01 2.404349e-01 3.049267e-01 3.554469e-01 3.995037e-01 4.606896e-01 5.044832e-01 4.243798e-01 2.277523e-01 1.682396e-01 8.793625e-02 8.273297e-02 2.262119e-01 3.510353e-01 3.910549e-01 3.773227e-01 3.385429e-01 2.887123e-01 2.394673e-01 1.939658e-01 1.559957e-01 1.224351e-01 9.579224e-02 7.180606e-02 5.313950e-02 3.629697e-02 2.371137e-02 1.274093e-02 5.431018e-03 
5.649962e-03 1.038657e-02 1.614620e-02 2.618301e-02 3.709241e-02 5.460074e-02 7.258500e-02 9.838235e-02 1.258052e-01 1.621262e-01 2.036577e-01 2.524201e-01 3.086503e-01 3.588698e-01 4.042162e-01 4.095284e-01 3.771931e-01 2.469202e-01 6.983330e-02 2.237860e-01 2.434252e-01 3.690650e-01 4.528601e-01 4.222897e-01 4.182809e-01 3.810013e-01 3.212966e-01 2.418901e-01 1.820639e-01 1.363836e-01 1.038106e-01 8.686758e-02 8.025847e-02 8.483210e-02 9.941907e-02 1.311629e-01 1.712036e-01 2.322615e-01 3.003740e-01 3.556069e-01 3.945227e-01 3.990813e-01 4.334053e-01 3.791919e-01 2.840586e-01 2.356297e-01 6.843706e-02 1.902526e-01 3.388195e-01 4.030905e-01 4.034949e-01 3.679347e-01 3.131312e-01 2.573118e-01 2.042288e-01 1.610278e-01 1.230047e-01 9.400206e-02 6.820979e-02 4.881598e-02 3.157116e-02 1.908687e-02 8.950351e-03 2.651683e-03 
1.069118e-02 1.228374e-02 1.573078e-02 2.340146e-02 3.337224e-02 5.089595e-02 6.921228e-02 9.688960e-02 1.263692e-01 1.671632e-01 2.136981e-01 2.686665e-01 3.311645e-01 3.806112e-01 4.232269e-01 4.124934e-01 3.662873e-01 1.295853e-01 2.729191e-01 2.748799e-01 2.998760e-01 3.763388e-01 3.742531e-01 3.657846e-01 3.407445e-01 3.009571e-01 2.639124e-01 2.164713e-01 1.715332e-01 1.289892e-01 9.505183e-02 7.371124e-02 6.553474e-02 7.145990e-02 9.028600e-02 1.243100e-01 1.630609e-01 2.089906e-01 2.492047e-01 2.839343e-01 3.188501e-01 3.432466e-01 3.579332e-01 3.535561e-01 3.143666e-01 2.900109e-01 2.835690e-01 9.071230e-02 3.197141e-01 4.199731e-01 4.247816e-01 3.916626e-01 3.358741e-01 2.724649e-01 2.134621e-01 1.645618e-01 1.227450e-01 9.129810e-02 6.420985e-02 4.422484e-02 2.713077e-02 1.534717e-02 8.472942e-03 7.484366e-03 
1.659087e-02 1.621082e-02 1.705440e-02 2.043785e-02 2.819819e-02 4.480934e-02 6.270162e-02 9.200246e-02 1.227425e-01 1.684950e-01 2.189263e-01 2.818147e-01 3.486116e-01 4.028535e-01 4.400950e-01 4.423901e-01 2.893841e-01 2.377101e-01 3.291994e-01 2.141774e-01 2.951642e-01 3.147947e-01 3.167309e-01 3.068958e-01 2.967828e-01 2.685850e-01 2.348141e-01 1.900611e-01 1.510256e-01 1.162772e-01 9.049095e-02 7.497923e-02 6.967607e-02 7.512232e-02 8.948943e-02 1.143343e-01 1.448275e-01 1.825872e-01 2.213704e-01 2.533423e-01 2.801533e-01 2.890946e-01 3.006036e-01 2.952290e-01 2.935138e-01 2.254708e-01 2.841838e-01 2.961785e-01 1.858325e-01 4.339794e-01 4.403706e-01 4.177144e-01 3.578264e-01 2.896315e-01 2.218617e-01 1.676677e-01 1.206406e-01 8.689186e-02 5.817921e-02 3.792754e-02 2.135084e-02 1.169242e-02 1.105975e-02 1.326715e-02 
2.078831e-02 1.941590e-02 1.866899e-02 1.797112e-02 2.341162e-02 3.888023e-02 5.685180e-02 8.807952e-02 1.209520e-01 1.726954e-01 2.283942e-01 3.003826e-01 3.749291e-01 4.273578e-01 4.824402e-01 4.167348e-01 1.715961e-01 4.021718e-01 2.200085e-01 1.983729e-01 2.697513e-01 2.682783e-01 2.826635e-01 2.716612e-01 2.620843e-01 2.363772e-01 2.120970e-01 1.783790e-01 1.474920e-01 1.166093e-01 9.288465e-02 7.695840e-02 7.151432e-02 7.625931e-02 9.038468e-02 1.133049e-01 1.406410e-01 1.710113e-01 2.001928e-01 2.240565e-01 2.464756e-01 2.568008e-01 2.661470e-01 2.563064e-01 2.554121e-01 2.318641e-01 1.708994e-01 3.659954e-01 2.268949e-01 3.856011e-01 4.744328e-01 4.160026e-01 3.747531e-01 3.001328e-01 2.283711e-01 1.695029e-01 1.185209e-01 8.251213e-02 5.267518e-02 3.206435e-02 1.641085e-02 1.001572e-02 1.422425e-02 1.754786e-02 
2.494471e-02 2.300836e-02 2.132037e-02 1.654189e-02 1.815073e-02 3.084720e-02 4.817570e-02 8.056511e-02 1.143991e-01 1.712599e-01 2.292856e-01 3.083413e-01 3.837228e-01 4.274368e-01 5.213003e-01 2.707933e-01 3.973459e-01 2.962830e-01 1.229029e-01 1.974140e-01 2.267537e-01 2.455428e-01 2.542850e-01 2.473158e-01 2.395905e-01 2.173171e-01 1.949413e-01 1.641390e-01 1.375681e-01 1.113523e-01 9.236381e-02 7.935599e-02 7.507332e-02 7.869510e-02 9.005358e-02 1.081816e-01 1.311057e-01 1.569870e-01 1.838571e-01 2.063388e-01 2.256805e-01 2.353203e-01 2.388358e-01 2.367004e-01 2.133785e-01 2.114763e-01 1.350274e-01 2.205451e-01 4.202315e-01 2.125290e-01 4.893403e-01 4.313216e-01 3.904514e-01 3.130103e-01 2.323047e-01 1.694018e-01 1.138896e-01 7.598501e-02 4.517850e-02 2.448059e-02 1.035258e-02 1.021758e-02 1.788301e-02 2.174773e-02 
2.661672e-02 2.446399e-02 2.233945e-02 1.503051e-02 1.299451e-02 2.272208e-02 4.005409e-02 7.372084e-02 1.086629e-01 1.718538e-01 2.304925e-01 3.255602e-01 3.858137e-01 4.638370e-01 4.775921e-01 2.443429e-01 4.320136e-01 1.314735e-01 1.568662e-01 1.903746e-01 2.244658e-01 2.362745e-01 2.446414e-01 2.337026e-01 2.245395e-01 2.015858e-01 1.818247e-01 1.545748e-01 1.321137e-01 1.087968e-01 9.236275e-02 8.027648e-02 7.640122e-02 7.900190e-02 8.900759e-02 1.045536e-01 1.248257e-01 1.469060e-01 1.706358e-01 1.906990e-01 2.103885e-01 2.210020e-01 2.292821e-01 2.241267e-01 2.136951e-01 1.838264e-01 1.654381e-01 1.012616e-01 3.873292e-01 2.974417e-01 4.128197e-01 4.857786e-01 3.806910e-01 3.306667e-01 2.329008e-01 1.707921e-01 1.105169e-01 7.128433e-02 3.972837e-02 1.863691e-02 5.548768e-03 1.116691e-02 1.966803e-02 2.362858e-02 
2.779287e-02 2.573446e-02 2.369784e-02 1.567974e-02 1.015076e-02 1.334989e-02 3.014598e-02 6.337402e-02 9.826346e-02 1.648721e-01 2.225989e-01 3.339138e-01 3.698677e-01 4.978405e-01 3.597902e-01 4.140422e-01 3.083029e-01 1.469303e-01 2.033435e-01 1.880235e-01 2.383224e-01 2.331614e-01 2.407826e-01 2.243386e-01 2.135073e-01 1.894634e-01 1.696393e-01 1.435010e-01 1.229295e-01 1.020104e-01 8.795085e-02 7.746639e-02 7.417092e-02 7.603461e-02 8.440121e-02 9.750836e-02 1.155703e-01 1.357984e-01 1.586930e-01 1.791910e-01 1.998711e-01 2.131990e-01 2.256485e-01 2.242161e-01 2.260095e-01 1.905755e-01 2.008337e-01 1.614354e-01 2.474667e-01 4.523438e-01 2.934446e-01 4.930828e-01 3.603638e-01 3.251385e-01 2.244991e-01 1.621692e-01 1.026554e-01 6.295705e-02 3.268819e-02 1.203076e-02 3.482171e-03 1.356613e-02 2.145925e-02 2.510165e-02 
2.622798e-02 2.458189e-02 2.295042e-02 1.611088e-02 9.580109e-03 5.389608e-03 2.103527e-02 5.206857e-02 8.619768e-02 1.496904e-01 2.107943e-01 3.196397e-01 3.684970e-01 4.729310e-01 3.148411e-01 4.459406e-01 2.846070e-01 2.615501e-01 2.574148e-01 2.424396e-01 2.671321e-01 2.505824e-01 2.475204e-01 2.247190e-01 2.083336e-01 1.818323e-01 1.605833e-01 1.350555e-01 1.153690e-01 9.572184e-02 8.262626e-02 7.257776e-02 6.935426e-02 7.065370e-02 7.830251e-02 9.018059e-02 1.071205e-01 1.262523e-01 1.487730e-01 1.702000e-01 1.931701e-01 2.109476e-01 2.284022e-01 2.352342e-01 2.407723e-01 2.264181e-01 2.105959e-01 2.372001e-01 2.036067e-01 4.303163e-01 2.938918e-01 4.241400e-01 3.832655e-01 3.081901e-01 2.244368e-01 1.516736e-01 9.783149e-02 5.636984e-02 2.897378e-02 9.978118e-03 6.288253e-03 1.452917e-02 2.087449e-02 2.394886e-02 
2.392363e-02 2.294496e-02 2.210816e-02 1.806940e-02 1.323417e-02 8.289010e-03 1.302777e-02 3.832683e-02 6.929317e-02 1.219292e-01 1.873354e-01 2.738590e-01 3.723281e-01 4.236964e-01 3.444464e-01 4.066634e-01 2.819563e-01 3.624442e-01 3.035686e-01 3.014144e-01 2.917176e-01 2.725336e-01 2.551765e-01 2.288224e-01 2.052298e-01 1.769914e-01 1.524886e-01 1.267980e-01 1.061224e-01 8.692772e-02 7.362741e-02 6.369885e-02 6.018976e-02 6.129084e-02 6.865886e-02 8.040755e-02 9.724425e-02 1.170434e-01 1.403935e-01 1.646417e-01 1.902775e-01 2.146155e-01 2.370198e-01 2.566036e-01 2.669150e-01 2.774456e-01 2.515152e-01 2.874563e-01 2.488450e-01 3.267215e-01 3.614392e-01 3.567679e-01 3.974185e-01 2.673347e-01 2.094829e-01 1.290659e-01 8.556742e-02 4.527064e-02 2.365630e-02 1.016141e-02 1.091630e-02 1.607746e-02 2.022416e-02 2.220201e-02 
1.923783e-02 1.936289e-02 1.983900e-02 1.982073e-02 1.773867e-02 1.765349e-02 1.435775e-02 2.869648e-02 5.087358e-02 9.017047e-02 1.520846e-01 2.168544e-01 3.441789e-01 3.748293e-01 3.715299e-01 3.478866e-01 2.898787e-01 3.754975e-01 3.254952e-01 3.402347e-01 3.127371e-01 2.948756e-01 2.645188e-01 2.359813e-01 2.046149e-01 1.747731e-01 1.463657e-01 1.202495e-01 9.781151e-02 7.833428e-02 6.375800e-02 5.302072e-02 4.869509e-02 4.980306e-02 5.778217e-02 7.045580e-02 8.815078e-02 1.092758e-01 1.340530e-01 1.613311e-01 1.903295e-01 2.209873e-01 2.495101e-01 2.803511e-01 3.000375e-01 3.295846e-01 3.211143e-01 3.589566e-01 3.231420e-01 3.004652e-01 3.804223e-01 3.650932e-01 3.741495e-01 2.225830e-01 1.812984e-01 1.032990e-01 7.027335e-02 3.495873e-02 2.134698e-02 1.392528e-02 1.490952e-02 1.630770e-02 1.782436e-02 1.815396e-02 
1.387123e-02 1.543509e-02 1.749824e-02 2.129395e-02 2.147465e-02 2.446607e-02 2.008573e-02 2.453057e-02 3.340811e-02 5.891056e-02 1.119740e-01 1.640767e-01 2.886213e-01 3.487048e-01 3.932707e-01 3.109616e-01 3.257814e-01 4.022945e-01 3.671195e-01 3.796936e-01 3.391647e-01 3.186873e-01 2.768140e-01 2.458299e-01 2.070383e-01 1.757132e-01 1.429652e-01 1.160578e-01 9.084766e-02 7.034907e-02 5.311185e-02 4.038986e-02 3.403131e-02 3.552569e-02 4.534385e-02 6.039829e-02 7.990252e-02 1.032690e-01 1.298678e-01 1.603649e-01 1.924469e-01 2.283535e-01 2.624200e-01 3.003787e-01 3.297223e-01 3.640234e-01 3.765795e-01 3.936356e-01 3.866485e-01 2.875588e-01 3.832362e-01 3.811081e-01 2.975782e-01 1.814479e-01 1.346102e-01 7.298312e-02 4.733103e-02 2.178963e-02 1.882273e-02 1.654146e-02 1.803075e-02 1.642043e-02 1.555635e-02 1.360102e-02 
7.113949e-03 1.139946e-02 1.557582e-02 2.264023e-02 2.468443e-02 2.985838e-02 2.642601e-02 2.654198e-02 1.921332e-02 2.842076e-02 6.716809e-02 1.190140e-01 2.088598e-01 3.383969e-01 3.957624e-01 2.814715e-01 3.478254e-01 4.075974e-01 3.874711e-01 3.952390e-01 3.512675e-01 3.293567e-01 2.819173e-01 2.498916e-01 2.069231e-01 1.749429e-01 1.395914e-01 1.123020e-01 8.524059e-02 6.388956e-02 4.410927e-02 2.847981e-02 1.813738e-02 2.099862e-02 3.474504e-02 5.279553e-02 7.413495e-02 9.918738e-02 1.272428e-01 1.597266e-01 1.942150e-01 2.330308e-01 2.714523e-01 3.123371e-01 3.492851e-01 3.809391e-01 4.074882e-01 3.965771e-01 4.106873e-01 2.542561e-01 3.644775e-01 3.729711e-01 2.045063e-01 1.583464e-01 8.532251e-02 4.907129e-02 2.427691e-02 1.326605e-02 2.052321e-02 1.970052e-02 2.073763e-02 1.647613e-02 1.339616e-02 8.107758e-03 
7.643539e-04 9.387780e-03 1.451159e-02 2.268086e-02 2.521123e-02 3.099816e-02 2.787246e-02 2.704261e-02 1.218125e-02 6.176965e-03 4.233162e-02 1.017049e-01 1.622802e-01 3.289727e-01 3.974061e-01 2.755404e-01 3.585058e-01 4.123192e-01 4.003557e-01 4.057638e-01 3.607849e-01 3.374133e-01 2.874665e-01 2.544399e-01 2.094411e-01 1.768601e-01 1.401190e-01 1.124264e-01 8.427005e-02 6.232875e-02 4.100498e-02 2.314129e-02 5.362522e-03 1.168298e-02 2.990332e-02 4.985647e-02 7.214819e-02 9.807880e-02 1.267388e-01 1.601517e-01 1.954982e-01 2.355770e-01 2.756075e-01 3.177874e-01 3.578734e-01 3.889835e-01 4.220129e-01 4.032472e-01 4.274096e-01 2.464352e-01 3.624919e-01 3.832044e-01 1.667062e-01 1.575238e-01 6.215855e-02 4.121298e-02 1.653553e-03 7.191516e-03 1.993206e-02 1.979012e-02 2.101630e-02 1.605902e-02 1.234039e-02 4.773468e-03 
7.113949e-03 1.139946e-02 1.557582e-02 2.264023e-02 2.468443e-02 2.985838e-02 2.642601e-02 2.654198e-02 1.921332e-02 2.842076e-02 6.716809e-02 1.190140e-01 2.088598e-01 3.383969e-01 3.957624e-01 2.814715e-01 3.478254e-01 4.075974e-01 3.874711e-01 3.952390e-01 3.512675e-01 3.293567e-01 2.819173e-01 2.498916e-01 2.069231e-01 1.749429e-01 1.395914e-01 1.123020e-01 8.524059e-02 6.388956e-02 4.410927e-02 2.847981e-02 1.813738e-02 2.099862e-02 3.474504e-02 5.279553e-02 7.413495e-02 9.918738e-02 1.272428e-01 1.597266e-01 1.942150e-01 2.330308e-01 2.714523e-01 3.123371e-01 3.492851e-01 3.809391e-01 4.074882e-01 3.965771e-01 4.106873e-01 2.542561e-01 3.644775e-01 3.729711e-01 2.045063e-01 1.583464e-01 8.532251e-02 4.907129e-02 2.427691e-02 1.326605e-02 2.052321e-02 1.970052e-02 2.073763e-02 1.647613e-02 1.339616e-02 8.107758e-03 
1.387123e-02 1.543509e-02 1.749824e-02 2.129395e-02 2.147465e-02 2.446607e-02 2.008573e-02 2.453057e-02 3.340811e-02 5.891056e-02 1.119740e-01 1.640767e-01 2.886213e-01 3.487048e-01 3.932707e-01 3.109616e-01 3.257814e-01 4.022945e-01 3.671195e-01 3.796936e-01 3.391647e-01 3.186873e-01 2.768140e-01 2.458299e-01 2.070383e-01 1.757132e-01 1.429652e-01 1.160578e-01 9.084766e-02 7.034907e-02 5.311185e-02 4.038986e-02 3.403131e-02 3.552569e-02 4.534385e-02 6.039829e-02 7.990252e-02 1.032690e-01 1.298678e-01 1.603649e-01 1.924469e-01 2.283535e-01 2.624200e-01 3.003787e-01 3.297223e-01 3.640234e-01 3.765795e-01 3.936356e-01 3.866485e-01 2.875588e-01 3.832362e-01 3.811081e-01 2.975782e-01 1.814479e-01 1.346102e-01 7.298312e-02 4.733103e-02 2.178963e-02 1.882273e-02 1.654146e-02 1.803075e-02 1.642043e-02 1.555635e-02 1.360102e-02 