# vtk DataFile Version 2.0
Comment goes here
ASCII

DATASET STRUCTURED_POINTS
FIELD FieldData 1
TIME 1 1 double
1.03000000
DIMENSIONS    64   64   1

ORIGIN    0.000   0.000   0.000
SPACING   0.015625 0.015625   1.000

POINT_DATA   4096
SCALARS uMag double
LOOKUP_TABLE default

1.199899e-03 1.613454e-03 1.735234e-03 1.667487e-03 1.039036e-03 8.809270e-05 2.008808e-03 4.690383e-03 8.337476e-03 1.293411e-02 1.857285e-02 2.524890e-02 3.290284e-02 4.155142e-02 5.091924e-02 6.107856e-02 7.145324e-02 8.223257e-02 9.245246e-02 1.025041e-01 1.109807e-01 1.185650e-01 1.234323e-01 1.266128e-01 1.260138e-01 1.229914e-01 1.154897e-01 1.050772e-01 9.018919e-02 7.244931e-02 5.127221e-02 2.815040e-02 3.691566e-03 2.104965e-02 4.453178e-02 6.652082e-02 8.509651e-02 1.009997e-01 1.124087e-01 1.207987e-01 1.247163e-01 1.259080e-01 1.234217e-01 1.188622e-01 1.117866e-01 1.034278e-01 9.374399e-02 8.355085e-02 7.303366e-02 6.266654e-02 5.268629e-02 4.334879e-02 3.481101e-02 2.722773e-02 2.060454e-02 1.507743e-02 1.048334e-02 6.979593e-03 4.256401e-03 2.497250e-03 1.289864e-03 8.272655e-04 6.463275e-04 9.258804e-04 
1.246446e-03 1.645336e-03 1.759824e-03 1.734064e-03 1.393991e-03 1.524620e-03 3.022307e-03 5.629402e-03 9.270694e-03 1.390851e-02 1.957840e-02 2.630855e-02 3.399059e-02 4.268547e-02 5.206938e-02 6.225912e-02 7.263906e-02 8.343294e-02 9.365750e-02 1.037193e-01 1.122198e-01 1.198356e-01 1.247733e-01 1.280432e-01 1.275939e-01 1.247590e-01 1.175360e-01 1.074778e-01 9.315360e-02 7.624858e-02 5.671986e-02 3.725985e-02 2.488571e-02 3.226993e-02 5.074568e-02 7.069312e-02 8.828041e-02 1.035574e-01 1.145666e-01 1.226588e-01 1.263610e-01 1.273883e-01 1.247901e-01 1.201475e-01 1.130241e-01 1.046326e-01 9.492760e-02 8.472399e-02 7.418338e-02 6.380591e-02 5.378471e-02 4.442356e-02 3.582330e-02 2.819679e-02 2.149159e-02 1.589851e-02 1.120551e-02 7.607419e-03 4.765033e-03 2.865080e-03 1.497702e-03 8.544288e-04 6.205731e-04 9.522512e-04 
1.409548e-03 1.846071e-03 2.006170e-03 2.168600e-03 2.334443e-03 3.089452e-03 4.782687e-03 7.423311e-03 1.110787e-02 1.573793e-02 2.142087e-02 2.806495e-02 3.567709e-02 4.416374e-02 5.335252e-02 6.318298e-02 7.321163e-02 8.349147e-02 9.320543e-02 1.026431e-01 1.105326e-01 1.175425e-01 1.219400e-01 1.248766e-01 1.242971e-01 1.218169e-01 1.154147e-01 1.069805e-01 9.518758e-02 8.202207e-02 6.803677e-02 5.602947e-02 5.027432e-02 5.329440e-02 6.379314e-02 7.757084e-02 9.100058e-02 1.034936e-01 1.127024e-01 1.198546e-01 1.231326e-01 1.242241e-01 1.219425e-01 1.178001e-01 1.112861e-01 1.034826e-01 9.440179e-02 8.469770e-02 7.465468e-02 6.462383e-02 5.492523e-02 4.575288e-02 3.730383e-02 2.972634e-02 2.302633e-02 1.736180e-02 1.255583e-02 8.774646e-03 5.719733e-03 3.519179e-03 1.844898e-03 7.810456e-04 4.254571e-04 1.002120e-03 
1.779194e-03 2.188500e-03 2.328100e-03 2.620076e-03 3.202014e-03 4.517972e-03 6.709272e-03 9.756701e-03 1.376955e-02 1.867370e-02 2.456290e-02 3.134214e-02 3.901548e-02 4.745990e-02 5.653135e-02 6.610804e-02 7.582084e-02 8.563471e-02 9.485801e-02 1.036921e-01 1.110259e-01 1.174917e-01 1.215091e-01 1.243075e-01 1.239200e-01 1.221673e-01 1.170637e-01 1.107067e-01 1.019391e-01 9.267331e-02 8.367989e-02 7.643071e-02 7.350697e-02 7.481589e-02 8.084217e-02 8.945837e-02 9.867482e-02 1.079186e-01 1.148339e-01 1.205474e-01 1.229680e-01 1.237653e-01 1.215508e-01 1.177190e-01 1.117161e-01 1.044300e-01 9.593226e-02 8.670328e-02 7.709802e-02 6.737809e-02 5.788842e-02 4.882690e-02 4.035826e-02 3.269998e-02 2.579031e-02 1.987814e-02 1.472180e-02 1.055787e-02 7.066844e-03 4.399910e-03 2.282011e-03 7.219732e-04 4.207569e-04 1.286338e-03 
2.315469e-03 2.740115e-03 2.895993e-03 3.361935e-03 4.326099e-03 6.135169e-03 8.841385e-03 1.236022e-02 1.681916e-02 2.206690e-02 2.825762e-02 3.516704e-02 4.291746e-02 5.118958e-02 6.002810e-02 6.904942e-02 7.814039e-02 8.697528e-02 9.515572e-02 1.026484e-01 1.086149e-01 1.136398e-01 1.163271e-01 1.181863e-01 1.173240e-01 1.161982e-01 1.128491e-01 1.099949e-01 1.063760e-01 1.034991e-01 1.014484e-01 9.967621e-02 9.942983e-02 9.914457e-02 1.003084e-01 1.020942e-01 1.046196e-01 1.083206e-01 1.113179e-01 1.149593e-01 1.165464e-01 1.176527e-01 1.163271e-01 1.137367e-01 1.091799e-01 1.032144e-01 9.605547e-02 8.785243e-02 7.919277e-02 7.009636e-02 6.110042e-02 5.227858e-02 4.390564e-02 3.616930e-02 2.905319e-02 2.282311e-02 1.726377e-02 1.262683e-02 8.648350e-03 5.459607e-03 2.912111e-03 9.699649e-04 8.082790e-04 1.744710e-03 
3.261952e-03 3.622216e-03 3.677822e-03 4.136860e-03 5.304821e-03 7.525035e-03 1.075110e-02 1.484527e-02 1.986055e-02 2.564283e-02 3.227492e-02 3.953405e-02 4.749036e-02 5.579118e-02 6.448747e-02 7.309270e-02 8.160368e-02 8.951180e-02 9.666464e-02 1.028103e-01 1.074795e-01 1.111295e-01 1.127563e-01 1.140143e-01 1.132207e-01 1.132756e-01 1.120627e-01 1.125177e-01 1.131506e-01 1.147227e-01 1.171417e-01 1.183572e-01 1.196845e-01 1.185086e-01 1.171699e-01 1.147989e-01 1.128148e-01 1.121349e-01 1.115079e-01 1.127344e-01 1.128466e-01 1.136465e-01 1.127754e-01 1.111085e-01 1.078807e-01 1.031587e-01 9.732574e-02 9.014888e-02 8.238080e-02 7.388546e-02 6.525127e-02 5.659356e-02 4.812977e-02 4.019890e-02 3.267838e-02 2.600564e-02 1.987737e-02 1.467358e-02 1.011114e-02 6.379015e-03 3.439460e-03 1.449715e-03 1.721110e-03 2.674599e-03 
4.413824e-03 4.763182e-03 4.764732e-03 5.256829e-03 6.619697e-03 9.224400e-03 1.298499e-02 1.767297e-02 2.332454e-02 2.969377e-02 3.687648e-02 4.452720e-02 5.277632e-02 6.107774e-02 6.962521e-02 7.763879e-02 8.536910e-02 9.192449e-02 9.751680e-02 1.015114e-01 1.038641e-01 1.048680e-01 1.039043e-01 1.030456e-01 1.008786e-01 1.015009e-01 1.028978e-01 1.086975e-01 1.165408e-01 1.256386e-01 1.349879e-01 1.407962e-01 1.442925e-01 1.419963e-01 1.369228e-01 1.282078e-01 1.187349e-01 1.104891e-01 1.038101e-01 1.017324e-01 1.007906e-01 1.026462e-01 1.038145e-01 1.046075e-01 1.040578e-01 1.015931e-01 9.791174e-02 9.228952e-02 8.582783e-02 7.814119e-02 7.002805e-02 6.155742e-02 5.302330e-02 4.483022e-02 3.686572e-02 2.965559e-02 2.291165e-02 1.706267e-02 1.190081e-02 7.604936e-03 4.358807e-03 2.439010e-03 2.837728e-03 3.810577e-03 
6.152013e-03 6.435716e-03 6.285812e-03 6.617367e-03 7.930221e-03 1.074424e-02 1.492588e-02 2.019055e-02 2.645085e-02 3.347632e-02 4.121494e-02 4.937571e-02 5.792830e-02 6.635771e-02 7.474865e-02 8.225288e-02 8.916275e-02 9.435122e-02 9.833776e-02 1.000915e-01 1.002254e-01 9.868647e-02 9.578049e-02 9.376563e-02 9.181902e-02 9.467183e-02 9.919861e-02 1.087769e-01 1.205038e-01 1.327018e-01 1.452197e-01 1.528559e-01 1.576501e-01 1.547857e-01 1.484438e-01 1.371022e-01 1.246554e-01 1.127235e-01 1.020489e-01 9.642402e-02 9.258746e-02 9.367961e-02 9.569198e-02 9.819603e-02 1.001383e-01 9.984889e-02 9.838805e-02 9.441504e-02 8.927208e-02 8.247057e-02 7.480035e-02 6.653798e-02 5.781207e-02 4.934287e-02 4.082171e-02 3.305794e-02 2.563252e-02 1.915122e-02 1.340566e-02 8.649016e-03 5.326783e-03 3.817821e-03 4.515691e-03 5.554314e-03 
8.163078e-03 8.427737e-03 8.166215e-03 8.390130e-03 9.667655e-03 1.265939e-02 1.728473e-02 2.313846e-02 3.010425e-02 3.784236e-02 4.627858e-02 5.501965e-02 6.402943e-02 7.263887e-02 8.099377e-02 8.798164e-02 9.407998e-02 9.775389e-02 9.987322e-02 9.889387e-02 9.595120e-02 9.060533e-02 8.379807e-02 7.831725e-02 7.401154e-02 7.769984e-02 8.626682e-02 1.027237e-01 1.226391e-01 1.416928e-01 1.600730e-01 1.712559e-01 1.779550e-01 1.744483e-01 1.657362e-01 1.495699e-01 1.307932e-01 1.107153e-01 9.228776e-02 8.124813e-02 7.539191e-02 7.825265e-02 8.362645e-02 8.985811e-02 9.568598e-02 9.839152e-02 9.964009e-02 9.754097e-02 9.382685e-02 8.789441e-02 8.064714e-02 7.248673e-02 6.350941e-02 5.463066e-02 4.548784e-02 3.704288e-02 2.888846e-02 2.168144e-02 1.535376e-02 1.013247e-02 6.817912e-03 5.592102e-03 6.447145e-03 7.563647e-03 
1.089950e-02 1.111328e-02 1.067617e-02 1.065892e-02 1.166418e-02 1.458573e-02 1.943789e-02 2.577581e-02 3.332089e-02 4.176520e-02 5.079269e-02 6.016158e-02 6.951674e-02 7.837786e-02 8.657745e-02 9.310083e-02 9.827312e-02 1.003934e-01 1.005764e-01 9.670364e-02 9.087617e-02 8.187536e-02 7.268847e-02 6.655276e-02 6.517352e-02 7.482645e-02 8.688837e-02 1.042171e-01 1.239949e-01 1.416316e-01 1.602699e-01 1.714844e-01 1.791940e-01 1.754560e-01 1.672833e-01 1.514757e-01 1.341346e-01 1.150301e-01 9.627248e-02 8.174183e-02 6.874853e-02 6.735894e-02 7.261404e-02 8.085479e-02 9.030537e-02 9.591647e-02 1.000087e-01 9.996142e-02 9.769212e-02 9.278622e-02 8.589078e-02 7.794285e-02 6.863037e-02 5.942242e-02 4.960665e-02 4.055313e-02 3.168115e-02 2.385059e-02 1.706998e-02 1.163284e-02 8.677442e-03 7.983875e-03 9.090322e-03 1.031222e-02 
1.400466e-02 1.419692e-02 1.359375e-02 1.335755e-02 1.410984e-02 1.691088e-02 2.200954e-02 2.882082e-02 3.706953e-02 4.627588e-02 5.609173e-02 6.618185e-02 7.613715e-02 8.538724e-02 9.375053e-02 1.000406e-01 1.046724e-01 1.056294e-01 1.042735e-01 9.803512e-02 8.948100e-02 7.696451e-02 6.412041e-02 5.506360e-02 5.147117e-02 6.230703e-02 7.897463e-02 1.020385e-01 1.295007e-01 1.511224e-01 1.724219e-01 1.847494e-01 1.935573e-01 1.898615e-01 1.819478e-01 1.649458e-01 1.449046e-01 1.191723e-01 9.359828e-02 7.213034e-02 5.591280e-02 5.621331e-02 6.435097e-02 7.595171e-02 8.905028e-02 9.722366e-02 1.035748e-01 1.050697e-01 1.037838e-01 9.948953e-02 9.267577e-02 8.463774e-02 7.484626e-02 6.508298e-02 5.451128e-02 4.467191e-02 3.503837e-02 2.646593e-02 1.925581e-02 1.359999e-02 1.101472e-02 1.072356e-02 1.205089e-02 1.341579e-02 
1.790749e-02 1.806543e-02 1.724906e-02 1.672871e-02 1.705541e-02 1.949573e-02 2.454983e-02 3.165671e-02 4.039998e-02 5.032222e-02 6.074068e-02 7.160767e-02 8.199338e-02 9.180207e-02 1.002310e-01 1.065643e-01 1.106876e-01 1.107320e-01 1.079996e-01 9.935909e-02 8.848917e-02 7.237658e-02 5.860564e-02 5.270092e-02 6.034178e-02 8.085994e-02 9.369623e-02 1.083166e-01 1.280611e-01 1.413837e-01 1.593332e-01 1.702696e-01 1.801165e-01 1.757675e-01 1.695362e-01 1.559813e-01 1.430183e-01 1.268509e-01 1.118705e-01 9.475238e-02 6.797223e-02 5.529070e-02 5.881650e-02 7.103921e-02 8.789211e-02 9.862494e-02 1.072638e-01 1.103435e-01 1.097149e-01 1.060103e-01 9.893733e-02 9.083286e-02 8.035710e-02 7.012315e-02 5.873398e-02 4.823251e-02 3.790600e-02 2.877975e-02 2.138804e-02 1.588391e-02 1.397792e-02 1.424293e-02 1.581911e-02 1.734223e-02 
2.226899e-02 2.240299e-02 2.134924e-02 2.049848e-02 2.037075e-02 2.234345e-02 2.735073e-02 3.468631e-02 4.407771e-02 5.475480e-02 6.606165e-02 7.782630e-02 8.908567e-02 9.971147e-02 1.088878e-01 1.157971e-01 1.203830e-01 1.205003e-01 1.176304e-01 1.083560e-01 9.683017e-02 8.043058e-02 6.705419e-02 6.311440e-02 6.041728e-02 7.135503e-02 8.718807e-02 1.093060e-01 1.437668e-01 1.607468e-01 1.755093e-01 1.826055e-01 1.913625e-01 1.875879e-01 1.859095e-01 1.772536e-01 1.643794e-01 1.382352e-01 1.130845e-01 8.599797e-02 6.483660e-02 6.473927e-02 6.791066e-02 7.912438e-02 9.688630e-02 1.080209e-01 1.171671e-01 1.203873e-01 1.193549e-01 1.152367e-01 1.073253e-01 9.851281e-02 8.708559e-02 7.598521e-02 6.366636e-02 5.224279e-02 4.118678e-02 3.135421e-02 2.383418e-02 1.847016e-02 1.725472e-02 1.806408e-02 1.994913e-02 2.169996e-02 
2.738161e-02 2.749926e-02 2.615856e-02 2.496983e-02 2.427151e-02 2.561299e-02 3.025556e-02 3.759524e-02 4.735380e-02 5.873082e-02 7.069054e-02 8.352255e-02 9.552519e-02 1.075031e-01 1.175924e-01 1.260843e-01 1.317220e-01 1.331085e-01 1.308316e-01 1.213338e-01 1.092694e-01 9.019477e-02 7.602007e-02 7.057124e-02 9.297060e-02 1.249058e-01 1.209642e-01 1.182530e-01 1.342088e-01 1.348843e-01 1.463385e-01 1.554902e-01 1.671748e-01 1.598944e-01 1.565421e-01 1.494592e-01 1.460623e-01 1.419620e-01 1.505554e-01 1.451204e-01 1.012752e-01 7.124781e-02 7.334578e-02 8.723198e-02 1.089518e-01 1.217759e-01 1.311428e-01 1.340855e-01 1.312721e-01 1.260062e-01 1.161177e-01 1.062106e-01 9.323762e-02 8.122721e-02 6.781303e-02 5.560972e-02 4.393878e-02 3.368262e-02 2.638615e-02 2.158906e-02 2.125451e-02 2.270298e-02 2.486549e-02 2.685776e-02 
3.298717e-02 3.308021e-02 3.140429e-02 2.975493e-02 2.837375e-02 2.885337e-02 3.305539e-02 4.021746e-02 5.051816e-02 6.260107e-02 7.564845e-02 8.974343e-02 1.033212e-01 1.171784e-01 1.296598e-01 1.407654e-01 1.495192e-01 1.533568e-01 1.531466e-01 1.433592e-01 1.299403e-01 1.071374e-01 9.485034e-02 1.073157e-01 9.215252e-02 8.637067e-02 1.110364e-01 1.397698e-01 1.901953e-01 1.951413e-01 1.839161e-01 1.685009e-01 1.679942e-01 1.666031e-01 1.832695e-01 2.015856e-01 2.071998e-01 1.783340e-01 1.530191e-01 1.030619e-01 8.429470e-02 1.043211e-01 9.285169e-02 1.003075e-01 1.291714e-01 1.441624e-01 1.541726e-01 1.554230e-01 1.496149e-01 1.412219e-01 1.282299e-01 1.158711e-01 1.007830e-01 8.711843e-02 7.239396e-02 5.900313e-02 4.667645e-02 3.580380e-02 2.884732e-02 2.465750e-02 2.533918e-02 2.755052e-02 3.012983e-02 3.246144e-02 
3.911171e-02 3.921363e-02 3.713653e-02 3.507509e-02 3.292260e-02 3.248267e-02 3.592995e-02 4.267162e-02 5.317004e-02 6.591862e-02 7.979566e-02 9.557303e-02 1.107750e-01 1.278658e-01 1.435819e-01 1.598892e-01 1.730176e-01 1.812621e-01 1.812015e-01 1.677719e-01 1.431738e-01 1.080482e-01 6.851771e-02 8.423151e-02 1.909043e-01 2.544681e-01 2.008433e-01 1.414765e-01 1.222139e-01 1.032966e-01 1.125432e-01 1.135399e-01 1.185958e-01 1.162090e-01 1.153531e-01 1.077173e-01 1.213949e-01 1.483772e-01 2.291762e-01 2.931443e-01 2.202111e-01 1.108730e-01 5.022800e-02 9.401910e-02 1.376506e-01 1.679514e-01 1.831760e-01 1.854233e-01 1.747458e-01 1.615685e-01 1.427830e-01 1.266501e-01 1.080178e-01 9.235364e-02 7.593301e-02 6.150539e-02 4.869271e-02 3.761208e-02 3.143404e-02 2.829673e-02 3.004613e-02 3.307891e-02 3.597680e-02 3.866740e-02 
4.565023e-02 4.573759e-02 4.320597e-02 4.055479e-02 3.744249e-02 3.568875e-02 3.814424e-02 4.406535e-02 5.491989e-02 6.830817e-02 8.370088e-02 1.016333e-01 1.201324e-01 1.417762e-01 1.639042e-01 1.870075e-01 2.070515e-01 2.168067e-01 2.114969e-01 1.781888e-01 1.252124e-01 2.244669e-02 1.395803e-01 2.202782e-01 1.360381e-01 1.160754e-01 1.635883e-01 1.524314e-01 1.606365e-01 1.583327e-01 1.693058e-01 1.708855e-01 1.775195e-01 1.737753e-01 1.733809e-01 1.639333e-01 1.645583e-01 1.617618e-01 1.632332e-01 1.175868e-01 1.426294e-01 2.430065e-01 1.784185e-01 2.892688e-02 1.049815e-01 1.727355e-01 2.099581e-01 2.211759e-01 2.092849e-01 1.898077e-01 1.636003e-01 1.409577e-01 1.173314e-01 9.815376e-02 7.945455e-02 6.330592e-02 4.991258e-02 3.840995e-02 3.328963e-02 3.142932e-02 3.455776e-02 3.864737e-02 4.205904e-02 4.522008e-02 
5.222777e-02 5.236733e-02 4.929659e-02 4.617376e-02 4.202573e-02 3.903266e-02 4.019753e-02 4.505628e-02 5.588997e-02 6.992532e-02 8.666502e-02 1.076705e-01 1.300479e-01 1.590382e-01 1.891657e-01 2.224841e-01 2.471373e-01 2.533310e-01 2.242766e-01 1.465690e-01 2.743634e-02 1.178761e-01 1.145420e-01 7.761035e-02 8.673606e-02 8.525191e-02 2.535725e-01 3.530330e-01 3.678211e-01 3.272979e-01 2.423321e-01 1.665717e-01 1.298483e-01 1.477033e-01 2.202262e-01 3.020421e-01 3.515271e-01 3.459985e-01 2.342979e-01 9.048362e-02 9.223943e-02 8.786995e-02 1.149611e-01 1.523872e-01 4.376214e-02 1.206865e-01 2.145900e-01 2.558561e-01 2.499447e-01 2.262313e-01 1.899567e-01 1.585817e-01 1.271352e-01 1.034173e-01 8.156625e-02 6.378474e-02 5.004516e-02 3.869957e-02 3.515164e-02 3.500429e-02 3.937481e-02 4.453812e-02 4.827866e-02 5.193515e-02 
5.898398e-02 5.914675e-02 5.550702e-02 5.173934e-02 4.634445e-02 4.161124e-02 4.099063e-02 4.401938e-02 5.488332e-02 6.962143e-02 8.884052e-02 1.142930e-01 1.436546e-01 1.825133e-01 2.246619e-01 2.664136e-01 2.910626e-01 2.745095e-01 1.920493e-01 5.280346e-02 6.844023e-02 5.540007e-02 3.846345e-02 1.023541e-01 3.280919e-01 5.000034e-01 5.043554e-01 4.118142e-01 3.132540e-01 2.264839e-01 1.480588e-01 8.181569e-02 1.763170e-02 4.773155e-02 1.095229e-01 1.887864e-01 2.696036e-01 3.815938e-01 4.676978e-01 4.755714e-01 3.179966e-01 1.170839e-01 4.074783e-02 5.088043e-02 8.873450e-02 7.739267e-03 1.558710e-01 2.665725e-01 2.904876e-01 2.701081e-01 2.258671e-01 1.830953e-01 1.412751e-01 1.101472e-01 8.344442e-02 6.272225e-02 4.826581e-02 3.690399e-02 3.556487e-02 3.768795e-02 4.372147e-02 5.024047e-02 5.450562e-02 5.875137e-02 
6.503201e-02 6.532244e-02 6.102835e-02 5.682739e-02 5.013470e-02 4.392839e-02 4.125864e-02 4.223362e-02 5.288119e-02 6.853762e-02 9.064381e-02 1.222331e-01 1.598845e-01 2.115095e-01 2.647305e-01 3.130542e-01 3.212963e-01 2.545029e-01 1.113541e-01 3.173807e-02 4.715794e-02 6.064200e-02 2.388753e-01 4.193356e-01 4.360100e-01 3.562076e-01 2.458418e-01 1.605967e-01 1.116621e-01 8.002076e-02 6.092996e-02 4.026986e-02 1.549512e-02 1.210788e-02 3.205477e-02 6.090811e-02 9.143281e-02 1.475454e-01 2.185179e-01 3.205973e-01 3.944799e-01 4.038006e-01 2.574025e-01 7.428292e-02 3.375662e-02 3.019761e-02 7.389291e-02 2.349584e-01 3.164539e-01 3.149132e-01 2.669465e-01 2.132204e-01 1.580233e-01 1.176650e-01 8.429548e-02 6.019784e-02 4.513971e-02 3.447761e-02 3.587242e-02 4.058601e-02 4.784638e-02 5.566035e-02 6.016048e-02 6.501433e-02 
7.087236e-02 7.127205e-02 6.635308e-02 6.165497e-02 5.353778e-02 4.549346e-02 3.998384e-02 3.760452e-02 4.783330e-02 6.514343e-02 9.196575e-02 1.329616e-01 1.823883e-01 2.489818e-01 3.138854e-01 3.567358e-01 3.291568e-01 2.010432e-01 2.323704e-02 8.350257e-02 1.193688e-01 2.573403e-01 3.434862e-01 3.100766e-01 2.596202e-01 2.415570e-01 1.984712e-01 1.332238e-01 7.991245e-02 4.776543e-02 4.950279e-02 5.350112e-02 5.174013e-02 4.543281e-02 3.223747e-02 2.564263e-02 6.172557e-02 1.258923e-01 1.859558e-01 2.289822e-01 2.382223e-01 2.823314e-01 3.242401e-01 2.756469e-01 1.538363e-01 7.948986e-02 1.345223e-02 1.710617e-01 3.244459e-01 3.601719e-01 3.165668e-01 2.530561e-01 1.830376e-01 1.301816e-01 8.639049e-02 5.628120e-02 3.895746e-02 2.896856e-02 3.439549e-02 4.261567e-02 5.138395e-02 6.068606e-02 6.551916e-02 7.100554e-02 
7.506215e-02 7.570638e-02 7.012390e-02 6.525295e-02 5.573515e-02 4.642348e-02 3.789534e-02 3.197576e-02 4.226904e-02 6.234684e-02 9.584215e-02 1.476628e-01 2.098954e-01 2.902303e-01 3.624967e-01 3.977945e-01 3.169298e-01 8.426705e-02 1.346349e-01 1.678696e-01 2.226139e-01 2.599947e-01 2.402036e-01 2.349355e-01 2.131128e-01 1.757466e-01 1.296332e-01 8.452782e-02 4.786289e-02 1.801294e-02 1.220779e-02 2.418514e-02 3.004346e-02 2.761008e-02 2.589603e-02 3.155228e-02 5.409359e-02 8.663065e-02 1.199002e-01 1.602626e-01 1.913566e-01 2.167782e-01 2.193224e-01 2.324340e-01 2.313229e-01 1.834170e-01 1.402420e-01 4.987847e-02 2.844368e-01 4.025516e-01 3.692168e-01 2.986832e-01 2.125424e-01 1.460916e-01 9.034066e-02 5.274916e-02 3.217144e-02 2.330790e-02 3.294333e-02 4.456398e-02 5.399693e-02 6.459831e-02 6.938893e-02 7.549655e-02 
7.858613e-02 7.948073e-02 7.336258e-02 6.849051e-02 5.769225e-02 4.737115e-02 3.503305e-02 2.375042e-02 3.348563e-02 5.934554e-02 1.008130e-01 1.686610e-01 2.436873e-01 3.433282e-01 4.279458e-01 4.278649e-01 1.628129e-01 1.806565e-01 1.901794e-01 1.703467e-01 1.813139e-01 1.808542e-01 1.875851e-01 1.825967e-01 1.695895e-01 1.557141e-01 1.270199e-01 8.875747e-02 4.970332e-02 1.755961e-02 1.806637e-02 3.195505e-02 3.829562e-02 3.489533e-02 2.837548e-02 2.820590e-02 5.196195e-02 8.789463e-02 1.197753e-01 1.478754e-01 1.583317e-01 1.702043e-01 1.748641e-01 1.666865e-01 1.615828e-01 1.649845e-01 1.779208e-01 1.958886e-01 1.034424e-01 4.109311e-01 4.322275e-01 3.522091e-01 2.516207e-01 1.715781e-01 9.921412e-02 5.197384e-02 2.268371e-02 1.549876e-02 3.087963e-02 4.648486e-02 5.629282e-02 6.806548e-02 7.269311e-02 7.930346e-02 
7.951460e-02 8.079879e-02 7.424010e-02 6.979391e-02 5.794206e-02 4.760323e-02 3.165037e-02 1.518762e-02 2.702139e-02 6.081252e-02 1.124432e-01 1.940017e-01 2.817610e-01 3.886635e-01 4.903357e-01 3.133180e-01 1.812362e-01 2.227683e-01 8.694950e-02 1.062091e-01 1.173405e-01 1.395744e-01 1.512301e-01 1.595900e-01 1.520706e-01 1.366273e-01 1.135410e-01 8.757732e-02 6.196762e-02 3.918534e-02 2.077969e-02 1.197913e-02 1.507408e-02 2.051428e-02 3.173634e-02 4.629695e-02 6.525556e-02 8.808745e-02 1.080389e-01 1.298781e-01 1.415457e-01 1.517968e-01 1.431828e-01 1.339860e-01 1.122455e-01 1.023417e-01 7.674976e-02 1.930209e-01 2.113338e-01 2.611780e-01 4.895422e-01 3.995635e-01 2.866139e-01 1.964310e-01 1.119049e-01 5.582602e-02 1.856837e-02 1.226203e-02 2.937885e-02 4.778324e-02 5.688615e-02 6.945864e-02 7.356322e-02 8.059212e-02 
7.938838e-02 8.107969e-02 7.435306e-02 7.079014e-02 5.845910e-02 4.934873e-02 3.043224e-02 1.174686e-02 2.093963e-02 6.351840e-02 1.217817e-01 2.209670e-01 3.034205e-01 4.584526e-01 4.946063e-01 9.819638e-02 2.847046e-01 4.902038e-02 3.273250e-02 8.096444e-02 1.010160e-01 1.295591e-01 1.405225e-01 1.472344e-01 1.403831e-01 1.296515e-01 1.086534e-01 8.463705e-02 5.808277e-02 3.487372e-02 1.586131e-02 7.766503e-03 1.185358e-02 1.568223e-02 2.446663e-02 3.931826e-02 5.869034e-02 8.354470e-02 1.038146e-01 1.250108e-01 1.335989e-01 1.420514e-01 1.348186e-01 1.266504e-01 9.763653e-02 8.005537e-02 2.677049e-02 3.101641e-02 2.707186e-01 1.281884e-01 4.544449e-01 4.892748e-01 3.173096e-01 2.322249e-01 1.280201e-01 6.538358e-02 2.235936e-02 1.942337e-02 3.119610e-02 5.059158e-02 5.797283e-02 7.059555e-02 7.377647e-02 8.087209e-02 
7.600105e-02 7.819677e-02 7.166283e-02 6.944216e-02 5.739190e-02 5.065222e-02 3.073526e-02 1.835425e-02 2.381406e-02 7.101767e-02 1.366364e-01 2.521159e-01 3.277745e-01 5.393499e-01 3.196618e-01 3.166437e-01 1.472418e-01 9.954797e-02 4.225840e-02 6.880832e-02 1.040970e-01 1.249557e-01 1.347137e-01 1.391509e-01 1.310547e-01 1.194829e-01 1.005320e-01 8.135735e-02 6.031206e-02 4.213431e-02 2.482865e-02 1.253037e-02 7.282738e-03 1.695954e-02 2.890258e-02 4.455324e-02 6.005012e-02 7.998547e-02 9.569290e-02 1.147025e-01 1.238113e-01 1.338541e-01 1.285353e-01 1.215661e-01 1.004620e-01 6.795735e-02 3.253337e-02 9.699846e-02 8.133746e-02 3.375736e-01 2.086893e-01 5.337905e-01 3.411114e-01 2.531280e-01 1.455333e-01 7.650589e-02 3.389558e-02 2.834789e-02 3.350581e-02 5.167140e-02 5.685081e-02 6.882376e-02 7.090767e-02 7.782635e-02 
7.137726e-02 7.404999e-02 6.820603e-02 6.787148e-02 5.734572e-02 5.420242e-02 3.617565e-02 3.094325e-02 3.035664e-02 7.055726e-02 1.496369e-01 2.502458e-01 3.709159e-01 5.125642e-01 1.216483e-01 3.242856e-01 1.427270e-01 1.228130e-01 4.028426e-02 8.009866e-02 1.081328e-01 1.277553e-01 1.318522e-01 1.335105e-01 1.225637e-01 1.112899e-01 9.227046e-02 7.453833e-02 5.427780e-02 3.786093e-02 2.264499e-02 1.367406e-02 9.950990e-03 1.584824e-02 2.428671e-02 3.842075e-02 5.242043e-02 7.210288e-02 8.718739e-02 1.065138e-01 1.156083e-01 1.280312e-01 1.244160e-01 1.238669e-01 1.003289e-01 8.085530e-02 2.802060e-02 9.346643e-02 1.531974e-01 2.638152e-01 1.512946e-01 5.065071e-01 3.942241e-01 2.391920e-01 1.623463e-01 8.053645e-02 4.735962e-02 4.042193e-02 4.110190e-02 5.511060e-02 5.726265e-02 6.709935e-02 6.754200e-02 7.362375e-02 
6.337041e-02 6.654701e-02 6.217494e-02 6.406401e-02 5.681133e-02 5.729507e-02 4.475690e-02 4.341271e-02 4.233824e-02 6.657556e-02 1.560029e-01 2.197620e-01 4.170744e-01 4.492508e-01 2.297051e-01 2.144037e-01 2.144159e-01 1.352664e-01 7.532403e-02 1.257523e-01 1.254391e-01 1.409456e-01 1.341757e-01 1.314592e-01 1.165014e-01 1.037054e-01 8.496346e-02 6.933675e-02 5.214341e-02 3.932104e-02 2.735493e-02 2.111289e-02 1.775210e-02 2.160009e-02 2.721057e-02 3.860814e-02 4.932604e-02 6.596411e-02 7.909498e-02 9.775948e-02 1.084026e-01 1.239809e-01 1.246905e-01 1.324266e-01 1.132448e-01 1.139344e-01 5.960969e-02 9.578857e-02 1.908985e-01 1.624921e-01 3.278796e-01 3.526404e-01 4.299816e-01 2.265120e-01 1.836056e-01 8.512787e-02 6.308110e-02 4.783793e-02 4.845442e-02 5.591237e-02 5.599859e-02 6.235093e-02 6.118749e-02 6.586306e-02 
5.420799e-02 5.780317e-02 5.575745e-02 6.006404e-02 5.780486e-02 6.121141e-02 5.640506e-02 5.568476e-02 5.692569e-02 6.107455e-02 1.461592e-01 1.753366e-01 4.019178e-01 3.584548e-01 3.339001e-01 1.957016e-01 2.525675e-01 1.917527e-01 1.471557e-01 1.701644e-01 1.541085e-01 1.588427e-01 1.432361e-01 1.338493e-01 1.148036e-01 9.926202e-02 7.976522e-02 6.392983e-02 4.757638e-02 3.564906e-02 2.517042e-02 1.987662e-02 1.676852e-02 1.923160e-02 2.324677e-02 3.303670e-02 4.310341e-02 5.883490e-02 7.277483e-02 9.168585e-02 1.057029e-01 1.240273e-01 1.324640e-01 1.460711e-01 1.410713e-01 1.479514e-01 1.284983e-01 1.295477e-01 2.255342e-01 1.926887e-01 3.223838e-01 2.286207e-01 3.676643e-01 2.062505e-01 1.703015e-01 7.738556e-02 6.864934e-02 5.333812e-02 5.679913e-02 5.782240e-02 5.630714e-02 5.777413e-02 5.465606e-02 5.699560e-02 
4.220800e-02 4.632002e-02 4.791414e-02 5.478698e-02 5.913946e-02 6.438154e-02 6.877316e-02 6.702295e-02 7.599893e-02 6.543829e-02 1.361385e-01 1.501623e-01 3.327868e-01 2.853937e-01 3.201377e-01 1.602170e-01 2.805328e-01 1.989693e-01 2.039521e-01 1.989241e-01 1.863958e-01 1.749450e-01 1.554647e-01 1.368680e-01 1.151904e-01 9.544250e-02 7.571295e-02 5.923646e-02 4.435547e-02 3.349105e-02 2.461579e-02 2.003206e-02 1.714254e-02 1.879874e-02 2.182410e-02 2.977491e-02 3.901821e-02 5.301079e-02 6.813220e-02 8.685353e-02 1.059781e-01 1.264010e-01 1.457980e-01 1.630686e-01 1.783821e-01 1.851532e-01 2.005124e-01 1.795643e-01 2.652857e-01 1.925425e-01 2.373667e-01 2.162601e-01 2.935774e-01 1.992970e-01 1.414232e-01 7.134756e-02 7.379434e-02 5.947832e-02 6.489670e-02 5.916441e-02 5.633771e-02 5.178768e-02 4.641951e-02 4.529772e-02 
2.936112e-02 3.433306e-02 4.077505e-02 5.000189e-02 6.067425e-02 6.667249e-02 7.824856e-02 7.475034e-02 8.833375e-02 6.657878e-02 1.127423e-01 1.241488e-01 2.273366e-01 2.582562e-01 2.482691e-01 1.386660e-01 2.917942e-01 2.233806e-01 2.591978e-01 2.298938e-01 2.224839e-01 1.940789e-01 1.729540e-01 1.446907e-01 1.212230e-01 9.659427e-02 7.631658e-02 5.768631e-02 4.293944e-02 3.093642e-02 2.189154e-02 1.598349e-02 1.224603e-02 1.311062e-02 1.693142e-02 2.479111e-02 3.579933e-02 4.937660e-02 6.742248e-02 8.618253e-02 1.108774e-01 1.325333e-01 1.620611e-01 1.811489e-01 2.128608e-01 2.184940e-01 2.541903e-01 2.243351e-01 2.866171e-01 1.800202e-01 1.925689e-01 2.353347e-01 2.212000e-01 1.587716e-01 8.974525e-02 5.685150e-02 7.316474e-02 6.377498e-02 7.003887e-02 6.005584e-02 5.621743e-02 4.631153e-02 3.861326e-02 3.298011e-02 
1.486468e-02 2.225210e-02 3.497294e-02 4.634461e-02 6.207819e-02 6.855587e-02 8.512318e-02 8.082162e-02 9.684154e-02 6.773910e-02 8.379467e-02 7.275424e-02 1.285799e-01 2.549825e-01 1.847944e-01 1.127783e-01 2.840588e-01 2.331191e-01 2.837831e-01 2.430074e-01 2.406032e-01 2.018780e-01 1.811033e-01 1.463992e-01 1.225281e-01 9.452263e-02 7.431119e-02 5.430463e-02 4.007095e-02 2.759454e-02 1.883264e-02 1.208815e-02 7.564179e-03 7.817343e-03 1.286025e-02 2.052889e-02 3.264878e-02 4.560681e-02 6.558304e-02 8.417323e-02 1.127099e-01 1.348983e-01 1.710051e-01 1.906974e-01 2.313113e-01 2.350291e-01 2.742894e-01 2.351717e-01 2.626877e-01 1.521800e-01 1.355575e-01 2.359484e-01 1.557890e-01 8.964535e-02 5.761663e-02 5.847101e-02 8.034593e-02 7.146974e-02 7.596000e-02 6.244746e-02 5.722963e-02 4.280519e-02 3.255160e-02 2.056188e-02 
1.193566e-03 1.625345e-02 3.277146e-02 4.490469e-02 6.235708e-02 6.887565e-02 8.701133e-02 8.245281e-02 9.927993e-02 6.814642e-02 7.139986e-02 2.267135e-02 6.626730e-02 2.572420e-01 1.613146e-01 1.009397e-01 2.768527e-01 2.378917e-01 2.951434e-01 2.519773e-01 2.513936e-01 2.090230e-01 1.881510e-01 1.509588e-01 1.267016e-01 9.726178e-02 7.681200e-02 5.594564e-02 4.148167e-02 2.820999e-02 1.885395e-02 1.066484e-02 3.635793e-03 2.916514e-03 1.129903e-02 1.975422e-02 3.311718e-02 4.619298e-02 6.729814e-02 8.599699e-02 1.161796e-01 1.388132e-01 1.776119e-01 1.981923e-01 2.426857e-01 2.474209e-01 2.896627e-01 2.510007e-01 2.717602e-01 1.612184e-01 1.320840e-01 2.491310e-01 1.322572e-01 2.607118e-02 3.770430e-02 5.495552e-02 7.926675e-02 7.126938e-02 7.575905e-02 6.161399e-02 5.633353e-02 4.059234e-02 2.951636e-02 1.343374e-02 
1.486468e-02 2.225210e-02 3.497294e-02 4.634461e-02 6.207819e-02 6.855587e-02 8.512318e-02 8.082162e-02 9.684154e-02 6.773910e-02 8.379467e-02 7.275424e-02 1.285799e-01 2.549825e-01 1.847944e-01 1.127783e-01 2.840588e-01 2.331191e-01 2.837831e-01 2.430074e-01 2.406032e-01 2.018780e-01 1.811033e-01 1.463992e-01 1.225281e-01 9.452263e-02 7.431119e-02 5.430463e-02 4.007095e-02 2.759454e-02 1.883264e-02 1.208815e-02 7.564179e-03 7.817343e-03 1.286025e-02 2.052889e-02 3.264878e-02 4.560681e-02 6.558304e-02 8.417323e-02 1.127099e-01 1.348983e-01 1.710051e-01 1.906974e-01 2.313113e-01 2.350291e-01 2.742894e-01 2.351717e-01 2.626877e-01 1.521800e-01 1.355575e-01 2.359484e-01 1.557890e-01 8.964535e-02 5.761663e-02 5.847101e-02 8.034593e-02 7.146974e-02 7.596000e-02 6.244746e-02 5.722963e-02 4.280519e-02 3.255160e-02 2.056188e-02 
2.936112e-02 3.433306e-02 4.077505e-02 5.000189e-02 6.067425e-02 6.667249e-02 7.824856e-02 7.475034e-02 8.833375e-02 6.657878e-02 1.127423e-01 1.241488e-01 2.273366e-01 2.582562e-01 2.482691e-01 1.386660e-01 2.917942e-01 2.233806e-01 2.591978e-01 2.298938e-01 2.224839e-01 1.940789e-01 1.729540e-01 1.446907e-01 1.212230e-01 9.659427e-02 7.631658e-02 5.768631e-02 4.293944e-02 3.093642e-02 2.189154e-02 1.598349e-02 1.224603e-02 1.311062e-02 1.693142e-02 2.479111e-02 3.579933e-02 4.937660e-02 6.742248e-02 8.618253e-02 1.108774e-01 1.325333e-01 1.620611e-01 1.811489e-01 2.128608e-01 2.184940e-01 2.541903e-01 2.243351e-01 2.866171e-01 1.800202e-01 1.925689e-01 2.353347e-01 2.212000e-01 1.587716e-01 8.974525e-02 5.685150e-02 7.316474e-02 6.377498e-02 7.003887e-02 6.005584e-02 5.621743e-02 4.631153e-02 3.861326e-02 3.298011e-02 