# vtk DataFile Version 2.0
fMag
ASCII
DATASET UNSTRUCTURED_GRID

FIELD FieldData 1
TIME 1 1 double
0.11000000
POINTS 249 float
8.439046359032704e-01 5.000000000000000e-01 0.000000000000000e+00
8.437357393820937e-01 5.075924177515846e-01 0.000000000000000e+00
8.432930410508500e-01 5.151517750784811e-01 0.000000000000000e+00
8.425120296715941e-01 5.227121664160009e-01 0.000000000000000e+00
8.414822468037053e-01 5.301940887954750e-01 0.000000000000000e+00
8.400995420569315e-01 5.376431444879740e-01 0.000000000000000e+00
8.384889535781279e-01 5.449824348846637e-01 0.000000000000000e+00
8.365263323831627e-01 5.522690413559843e-01 0.000000000000000e+00
8.343393734260245e-01 5.594049111048047e-01 0.000000000000000e+00
8.317950760114889e-01 5.664689255445717e-01 0.000000000000000e+00
8.290400239838974e-01 5.733555921337706e-01 0.000000000000000e+00
8.259473044752712e-01 5.801612722943222e-01 0.000000000000000e+00
8.226716411375139e-01 5.867752210859045e-01 0.000000000000000e+00
8.190847843993583e-01 5.932409285695938e-01 0.000000000000000e+00
8.152911187719227e-01 5.995656489174029e-01 0.000000000000000e+00
8.112236576353816e-01 6.057151840761397e-01 0.000000000000000e+00
8.069586427215669e-01 6.117000722573177e-01 0.000000000000000e+00
8.024602851273429e-01 6.174921491712412e-01 0.000000000000000e+00
7.977659860933877e-01 6.231185798889185e-01 0.000000000000000e+00
7.928504794851331e-01 6.285811191069424e-01 0.000000000000000e+00
7.877612953542270e-01 6.338220871504863e-01 0.000000000000000e+00
7.825014743469342e-01 6.389294025405453e-01 0.000000000000000e+00
7.770495542876110e-01 6.438143060821989e-01 0.000000000000000e+00
7.714572333850853e-01 6.485415973193898e-01 0.000000000000000e+00
7.657092839690400e-01 6.530898594249726e-01 0.000000000000000e+00
7.598046792539517e-01 6.574744586410155e-01 0.000000000000000e+00
7.537820844778776e-01 6.616732573353524e-01 0.000000000000000e+00
7.476568800861402e-01 6.656775828567586e-01 0.000000000000000e+00
7.414070904279183e-01 6.695588335416011e-01 0.000000000000000e+00
7.349946207633046e-01 6.733097553600658e-01 0.000000000000000e+00
7.285488829062058e-01 6.768031206812393e-01 0.000000000000000e+00
7.220721373575856e-01 6.801575196032851e-01 0.000000000000000e+00
7.153126374727352e-01 6.835186917583584e-01 0.000000000000000e+00
7.086705414860025e-01 6.865226083058208e-01 0.000000000000000e+00
7.019098775413111e-01 6.894716832679675e-01 0.000000000000000e+00
6.950061954636338e-01 6.923382221228169e-01 0.000000000000000e+00
6.881648301371865e-01 6.949870631868367e-01 0.000000000000000e+00
6.811873157002146e-01 6.975643477182459e-01 0.000000000000000e+00
6.742701698437055e-01 6.999469328590729e-01 0.000000000000000e+00
6.672024836153216e-01 7.022864078723091e-01 0.000000000000000e+00
6.601358298289455e-01 7.044669083249747e-01 0.000000000000000e+00
6.531161933078192e-01 7.065092179785750e-01 0.000000000000000e+00
6.459025389582257e-01 7.085405360660427e-01 0.000000000000000e+00
6.388330625970849e-01 7.103616995948396e-01 0.000000000000000e+00
6.316998890175727e-01 7.121443736749994e-01 0.000000000000000e+00
6.244758526388380e-01 7.138363293397049e-01 0.000000000000000e+00
6.173824137973032e-01 7.153612739733360e-01 0.000000000000000e+00
6.101376168215131e-01 7.168698856188668e-01 0.000000000000000e+00
6.029983900507291e-01 7.182032231479037e-01 0.000000000000000e+00
5.957516771022519e-01 7.195162231877809e-01 0.000000000000000e+00
5.885743854705333e-01 7.206905038376614e-01 0.000000000000000e+00
5.813219213691130e-01 7.218201820050795e-01 0.000000000000000e+00
5.741222779460613e-01 7.228226765244439e-01 0.000000000000000e+00
5.668964103000151e-01 7.237617769567120e-01 0.000000000000000e+00
5.596760201322661e-01 7.245882779562292e-01 0.000000000000000e+00
5.524111357063829e-01 7.253442098907632e-01 0.000000000000000e+00
5.452311763199826e-01 7.259631062297067e-01 0.000000000000000e+00
5.379628539300645e-01 7.265425040906858e-01 0.000000000000000e+00
5.307489827414833e-01 7.269734464271875e-01 0.000000000000000e+00
5.235026269284114e-01 7.273567386382537e-01 0.000000000000000e+00
5.162874430448607e-01 7.276103686441164e-01 0.000000000000000e+00
5.090268143131792e-01 7.277841506745818e-01 0.000000000000000e+00
5.018261116780285e-01 7.278472093102364e-01 0.000000000000000e+00
4.945591852002993e-01 7.278325699612007e-01 0.000000000000000e+00
4.873484637509021e-01 7.277035555321577e-01 0.000000000000000e+00
4.801018964134270e-01 7.275036012903840e-01 0.000000000000000e+00
4.728717461528760e-01 7.271642688431074e-01 0.000000000000000e+00
4.656633827343315e-01 7.267861759264035e-01 0.000000000000000e+00
4.583748484255248e-01 7.262507705686259e-01 0.000000000000000e+00
4.512036731585354e-01 7.256768979512435e-01 0.000000000000000e+00
4.439336894172367e-01 7.249525670377004e-01 0.000000000000000e+00
4.367400404696376e-01 7.241899154596760e-01 0.000000000000000e+00
4.294690955504341e-01 7.232781471689331e-01 0.000000000000000e+00
4.223224105274169e-01 7.223501540790103e-01 0.000000000000000e+00
4.150455686339197e-01 7.212634910369640e-01 0.000000000000000e+00
4.078869679957083e-01 7.201387555448513e-01 0.000000000000000e+00
4.006230078407653e-01 7.188692977615843e-01 0.000000000000000e+00
3.934607256620720e-01 7.175564285233113e-01 0.000000000000000e+00
3.862373461766162e-01 7.161273539241177e-01 0.000000000000000e+00
3.790711501985141e-01 7.145983471941618e-01 0.000000000000000e+00
3.719349891299666e-01 7.130141074542954e-01 0.000000000000000e+00
3.646962147144647e-01 7.112416098643216e-01 0.000000000000000e+00
3.576642358509897e-01 7.094786266504376e-01 0.000000000000000e+00
3.505002787240430e-01 7.075503859398617e-01 0.000000000000000e+00
3.433570883593424e-01 7.054876192274295e-01 0.000000000000000e+00
3.363499848708920e-01 7.034055773883725e-01 0.000000000000000e+00
3.292496486727752e-01 7.011241788598335e-01 0.000000000000000e+00
3.222679655891098e-01 6.987703589684163e-01 0.000000000000000e+00
3.153310029483478e-01 6.963049860585916e-01 0.000000000000000e+00
3.084047291273009e-01 6.936741688094473e-01 0.000000000000000e+00
3.015513547201068e-01 6.909397376643933e-01 0.000000000000000e+00
2.946829924289496e-01 6.879889602470006e-01 0.000000000000000e+00
2.880316544426860e-01 6.850525042419036e-01 0.000000000000000e+00
2.813061875502515e-01 6.818668520707197e-01 0.000000000000000e+00
2.746541636458544e-01 6.784558230127207e-01 0.000000000000000e+00
2.682455503848754e-01 6.750970919079984e-01 0.000000000000000e+00
2.617728597143953e-01 6.714431845788983e-01 0.000000000000000e+00
2.554489528658457e-01 6.676301363530885e-01 0.000000000000000e+00
2.492747014204111e-01 6.636917672120001e-01 0.000000000000000e+00
2.431970635279035e-01 6.595889420268330e-01 0.000000000000000e+00
2.372371219614353e-01 6.552980746944349e-01 0.000000000000000e+00
2.313980117379844e-01 6.508293468048988e-01 0.000000000000000e+00
2.257335200067523e-01 6.461929022974650e-01 0.000000000000000e+00
2.202069187656685e-01 6.414012592179217e-01 0.000000000000000e+00
2.148385705387220e-01 6.363815405725619e-01 0.000000000000000e+00
2.096792745205253e-01 6.312171891701859e-01 0.000000000000000e+00
2.046594783958199e-01 6.258623226257920e-01 0.000000000000000e+00
1.998676827182857e-01 6.203160831987198e-01 0.000000000000000e+00
1.952565293861374e-01 6.146196523135670e-01 0.000000000000000e+00
1.908863180784906e-01 6.087313942384924e-01 0.000000000000000e+00
1.867061206870761e-01 6.026742576887463e-01 0.000000000000000e+00
1.827905929181746e-01 5.964396638933370e-01 0.000000000000000e+00
1.790942782277567e-01 5.900340784266275e-01 0.000000000000000e+00
1.756742720715992e-01 5.834867245340206e-01 0.000000000000000e+00
1.724895337436813e-01 5.767761889968513e-01 0.000000000000000e+00
1.695602538191206e-01 5.699198348212142e-01 0.000000000000000e+00
1.669088074577487e-01 5.629414594300961e-01 0.000000000000000e+00
1.645314519745859e-01 5.558374023520239e-01 0.000000000000000e+00
1.624580535022913e-01 5.486295328557808e-01 0.000000000000000e+00
1.606610689594746e-01 5.413151736682983e-01 0.000000000000000e+00
1.591670062850594e-01 5.339192260853567e-01 0.000000000000000e+00
1.579598248829983e-01 5.264510899524755e-01 0.000000000000000e+00
1.570442790083920e-01 5.189337953776536e-01 0.000000000000000e+00
1.564341466459365e-01 5.113776434555963e-01 0.000000000000000e+00
1.561287778587360e-01 5.037898431720507e-01 0.000000000000000e+00
1.561287778587356e-01 4.962101568279509e-01 0.000000000000000e+00
1.564341466459362e-01 4.886223565444035e-01 0.000000000000000e+00
1.570442790083920e-01 4.810662046223467e-01 0.000000000000000e+00
1.579598248829986e-01 4.735489100475239e-01 0.000000000000000e+00
1.591670062850593e-01 4.660807739146448e-01 0.000000000000000e+00
1.606610689594745e-01 4.586848263317016e-01 0.000000000000000e+00
1.624580535022909e-01 4.513704671442184e-01 0.000000000000000e+00
1.645314519745855e-01 4.441625976479778e-01 0.000000000000000e+00
1.669088074577488e-01 4.370585405699027e-01 0.000000000000000e+00
1.695602538191206e-01 4.300801651787861e-01 0.000000000000000e+00
1.724895337436810e-01 4.232238110031463e-01 0.000000000000000e+00
1.756742720715990e-01 4.165132754659794e-01 0.000000000000000e+00
1.790942782277549e-01 4.099659215733759e-01 0.000000000000000e+00
1.827905929181742e-01 4.035603361066604e-01 0.000000000000000e+00
1.867061206870742e-01 3.973257423112538e-01 0.000000000000000e+00
1.908863180784888e-01 3.912686057615108e-01 0.000000000000000e+00
1.952565293861367e-01 3.853803476864321e-01 0.000000000000000e+00
1.998676827182859e-01 3.796839168012774e-01 0.000000000000000e+00
2.046594783958172e-01 3.741376773742102e-01 0.000000000000000e+00
2.096792745205231e-01 3.687828108298157e-01 0.000000000000000e+00
2.148385705387230e-01 3.636184594274349e-01 0.000000000000000e+00
2.202069187656676e-01 3.585987407820770e-01 0.000000000000000e+00
2.257335200067504e-01 3.538070977025359e-01 0.000000000000000e+00
2.313980117379850e-01 3.491706531951005e-01 0.000000000000000e+00
2.372371219614326e-01 3.447019253055677e-01 0.000000000000000e+00
2.431970635279037e-01 3.404110579731645e-01 0.000000000000000e+00
2.492747014204081e-01 3.363082327880009e-01 0.000000000000000e+00
2.554489528658451e-01 3.323698636469115e-01 0.000000000000000e+00
2.617728597143930e-01 3.285568154211019e-01 0.000000000000000e+00
2.682455503848727e-01 3.249029080920012e-01 0.000000000000000e+00
2.746541636458509e-01 3.215441769872820e-01 0.000000000000000e+00
2.813061875502483e-01 3.181331479292829e-01 0.000000000000000e+00
2.880316544426875e-01 3.149474957580923e-01 0.000000000000000e+00
2.946829924289460e-01 3.120110397530012e-01 0.000000000000000e+00
3.015513547201036e-01 3.090602623356080e-01 0.000000000000000e+00
3.084047291272989e-01 3.063258311905535e-01 0.000000000000000e+00
3.153310029483486e-01 3.036950139414056e-01 0.000000000000000e+00
3.222679655891070e-01 3.012296410315842e-01 0.000000000000000e+00
3.292496486727771e-01 2.988758211401657e-01 0.000000000000000e+00
3.363499848708880e-01 2.965944226116303e-01 0.000000000000000e+00
3.433570883593422e-01 2.945123807725699e-01 0.000000000000000e+00
3.505002787240411e-01 2.924496140601370e-01 0.000000000000000e+00
3.576642358509864e-01 2.905213733495633e-01 0.000000000000000e+00
3.646962147144680e-01 2.887583901356746e-01 0.000000000000000e+00
3.719349891299626e-01 2.869858925457072e-01 0.000000000000000e+00
3.790711501985133e-01 2.854016528058387e-01 0.000000000000000e+00
3.862373461766158e-01 2.838726460758795e-01 0.000000000000000e+00
3.934607256620732e-01 2.824435714766881e-01 0.000000000000000e+00
4.006230078407662e-01 2.811307022384172e-01 0.000000000000000e+00
4.078869679957055e-01 2.798612444551500e-01 0.000000000000000e+00
4.150455686339174e-01 2.787365089630366e-01 0.000000000000000e+00
4.223224105274160e-01 2.776498459209890e-01 0.000000000000000e+00
4.294690955504352e-01 2.767218528310678e-01 0.000000000000000e+00
4.367400404696352e-01 2.758100845403242e-01 0.000000000000000e+00
4.439336894172369e-01 2.750474329623026e-01 0.000000000000000e+00
4.512036731585338e-01 2.743231020487562e-01 0.000000000000000e+00
4.583748484255258e-01 2.737492294313739e-01 0.000000000000000e+00
4.656633827343297e-01 2.732138240735991e-01 0.000000000000000e+00
4.728717461528759e-01 2.728357311568917e-01 0.000000000000000e+00
4.801018964134262e-01 2.724963987096178e-01 0.000000000000000e+00
4.873484637509014e-01 2.722964444678415e-01 0.000000000000000e+00
4.945591852002988e-01 2.721674300388005e-01 0.000000000000000e+00
5.018261116780282e-01 2.721527906897640e-01 0.000000000000000e+00
5.090268143131783e-01 2.722158493254168e-01 0.000000000000000e+00
5.162874430448610e-01 2.723896313558859e-01 0.000000000000000e+00
5.235026269284111e-01 2.726432613617459e-01 0.000000000000000e+00
5.307489827414827e-01 2.730265535728120e-01 0.000000000000000e+00
5.379628539300645e-01 2.734574959093146e-01 0.000000000000000e+00
5.452311763199823e-01 2.740368937702943e-01 0.000000000000000e+00
5.524111357063841e-01 2.746557901092377e-01 0.000000000000000e+00
5.596760201322649e-01 2.754117220437707e-01 0.000000000000000e+00
5.668964103000158e-01 2.762382230432899e-01 0.000000000000000e+00
5.741222779460610e-01 2.771773234755565e-01 0.000000000000000e+00
5.813219213691133e-01 2.781798179949199e-01 0.000000000000000e+00
5.885743854705296e-01 2.793094961623366e-01 0.000000000000000e+00
5.957516771022552e-01 2.804837768122213e-01 0.000000000000000e+00
6.029983900507299e-01 2.817967768520956e-01 0.000000000000000e+00
6.101376168215139e-01 2.831301143811348e-01 0.000000000000000e+00
6.173824137973046e-01 2.846387260266681e-01 0.000000000000000e+00
6.244758526388332e-01 2.861636706602912e-01 0.000000000000000e+00
6.316998890175768e-01 2.878556263250033e-01 0.000000000000000e+00
6.388330625970807e-01 2.896383004051580e-01 0.000000000000000e+00
6.459025389582248e-01 2.914594639339583e-01 0.000000000000000e+00
6.531161933078196e-01 2.934907820214256e-01 0.000000000000000e+00
6.601358298289429e-01 2.955330916750238e-01 0.000000000000000e+00
6.672024836153200e-01 2.977135921276903e-01 0.000000000000000e+00
6.742701698437060e-01 3.000530671409282e-01 0.000000000000000e+00
6.811873157002123e-01 3.024356522817543e-01 0.000000000000000e+00
6.881648301371881e-01 3.050129368131645e-01 0.000000000000000e+00
6.950061954636338e-01 3.076617778771850e-01 0.000000000000000e+00
7.019098775413091e-01 3.105283167320325e-01 0.000000000000000e+00
7.086705414860013e-01 3.134773916941805e-01 0.000000000000000e+00
7.153126374727373e-01 3.164813082416432e-01 0.000000000000000e+00
7.220721373575835e-01 3.198424803967157e-01 0.000000000000000e+00
7.285488829062061e-01 3.231968793187615e-01 0.000000000000000e+00
7.349946207633042e-01 3.266902446399338e-01 0.000000000000000e+00
7.414070904279185e-01 3.304411664584015e-01 0.000000000000000e+00
7.476568800861406e-01 3.343224171432427e-01 0.000000000000000e+00
7.537820844778759e-01 3.383267426646459e-01 0.000000000000000e+00
7.598046792539523e-01 3.425255413589866e-01 0.000000000000000e+00
7.657092839690391e-01 3.469101405750265e-01 0.000000000000000e+00
7.714572333850860e-01 3.514584026806125e-01 0.000000000000000e+00
7.770495542876092e-01 3.561856939177984e-01 0.000000000000000e+00
7.825014743469342e-01 3.610705974594570e-01 0.000000000000000e+00
7.877612953542262e-01 3.661779128495118e-01 0.000000000000000e+00
7.928504794851318e-01 3.714188808930571e-01 0.000000000000000e+00
7.977659860933883e-01 3.768814201110817e-01 0.000000000000000e+00
8.024602851273420e-01 3.825078508287589e-01 0.000000000000000e+00
8.069586427215667e-01 3.882999277426835e-01 0.000000000000000e+00
8.112236576353795e-01 3.942848159238579e-01 0.000000000000000e+00
8.152911187719234e-01 4.004343510825983e-01 0.000000000000000e+00
8.190847843993574e-01 4.067590714304051e-01 0.000000000000000e+00
8.226716411375138e-01 4.132247789140949e-01 0.000000000000000e+00
8.259473044752704e-01 4.198387277056788e-01 0.000000000000000e+00
8.290400239838984e-01 4.266444078662300e-01 0.000000000000000e+00
8.317950760114883e-01 4.335310744554259e-01 0.000000000000000e+00
8.343393734260240e-01 4.405950888951979e-01 0.000000000000000e+00
8.365263323831617e-01 4.477309586440108e-01 0.000000000000000e+00
8.384889535781285e-01 4.550175651153348e-01 0.000000000000000e+00
8.400995420569310e-01 4.623568555120245e-01 0.000000000000000e+00
8.414822468037048e-01 4.698059112045212e-01 0.000000000000000e+00
8.425120296715932e-01 4.772878335839981e-01 0.000000000000000e+00
8.432930410508502e-01 4.848482249215170e-01 0.000000000000000e+00
8.437357393820937e-01 4.924075822484122e-01 0.000000000000000e+00

POINT_DATA   249
SCALARS fMag double
LOOKUP_TABLE default

3.377338e+01 
2.757475e+01 
3.382655e+01 
2.608414e+01 
3.544403e+01 
2.529708e+01 
3.559646e+01 
2.702655e+01 
3.644496e+01 
2.753864e+01 
3.471779e+01 
2.650889e+01 
3.447961e+01 
2.503200e+01 
3.250417e+01 
2.571918e+01 
3.026674e+01 
2.565926e+01 
2.753195e+01 
2.815601e+01 
2.168083e+01 
2.939561e+01 
2.110736e+01 
2.372179e+01 
2.265709e+01 
2.201086e+01 
2.199396e+01 
1.751596e+01 
2.084902e+01 
2.598110e+01 
1.423546e+01 
2.827866e+01 
3.760445e+01 
1.306229e+01 
1.650278e+01 
2.264166e+01 
1.537752e+01 
2.037819e+01 
1.565639e+01 
1.589340e+01 
1.460333e+01 
1.942459e+01 
2.548872e+01 
7.439749e+00 
1.283991e+01 
2.120326e+01 
1.522251e+01 
2.046370e+01 
1.093555e+01 
1.551629e+01 
8.736759e+00 
1.377163e+01 
6.858986e+00 
1.127335e+01 
8.342560e+00 
1.612395e+01 
9.677323e+00 
1.581428e+01 
5.765967e+00 
1.333616e+01 
9.186349e+00 
1.259031e+01 
1.020828e+01 
1.274381e+01 
7.948284e+00 
1.403542e+01 
4.446001e+00 
1.765662e+01 
1.234875e+01 
1.799995e+01 
8.539748e+00 
1.679870e+01 
1.252895e+01 
2.052646e+01 
1.241780e+01 
1.790433e+01 
1.104933e+01 
1.312547e+01 
1.151096e+01 
6.285628e+00 
2.144451e+01 
2.070095e+01 
2.115553e+01 
1.361146e+01 
1.372988e+01 
2.200787e+01 
1.389596e+01 
1.201796e+01 
1.658084e+01 
1.267125e+01 
2.168676e+01 
2.173104e+01 
2.598966e+01 
2.370913e+01 
2.490137e+01 
3.021290e+01 
2.178663e+01 
1.952371e+01 
1.907970e+01 
2.218402e+01 
2.150480e+01 
2.421667e+01 
2.076206e+01 
2.776813e+01 
2.542585e+01 
2.361048e+01 
2.976570e+01 
2.349627e+01 
3.079969e+01 
2.542434e+01 
3.186896e+01 
2.780026e+01 
3.106013e+01 
2.863597e+01 
2.941354e+01 
3.033851e+01 
3.014730e+01 
3.212034e+01 
2.962308e+01 
3.137544e+01 
2.958390e+01 
2.957316e+01 
3.078318e+01 
3.063497e+01 
3.054190e+01 
3.054190e+01 
3.063497e+01 
3.078318e+01 
2.957316e+01 
2.958390e+01 
3.137544e+01 
2.962308e+01 
3.212034e+01 
3.014730e+01 
3.033851e+01 
2.941354e+01 
2.863597e+01 
3.106013e+01 
2.780026e+01 
3.186896e+01 
2.542434e+01 
3.079969e+01 
2.349627e+01 
2.976570e+01 
2.361048e+01 
2.542585e+01 
2.776813e+01 
2.076206e+01 
2.421667e+01 
2.150480e+01 
2.218402e+01 
1.907970e+01 
1.952371e+01 
2.178663e+01 
3.021290e+01 
2.490137e+01 
2.370913e+01 
2.598966e+01 
2.173104e+01 
2.168676e+01 
1.267125e+01 
1.658084e+01 
1.201796e+01 
1.389596e+01 
2.200787e+01 
1.372988e+01 
1.361146e+01 
2.115553e+01 
2.070095e+01 
2.144451e+01 
6.285628e+00 
1.151096e+01 
1.312547e+01 
1.104933e+01 
1.790433e+01 
1.241780e+01 
2.052646e+01 
1.252895e+01 
1.679870e+01 
8.539748e+00 
1.799995e+01 
1.234875e+01 
1.765662e+01 
4.446001e+00 
1.403542e+01 
7.948284e+00 
1.274381e+01 
1.020828e+01 
1.259031e+01 
9.186349e+00 
1.333616e+01 
5.765967e+00 
1.581428e+01 
9.677323e+00 
1.612395e+01 
8.342560e+00 
1.127335e+01 
6.858986e+00 
1.377163e+01 
8.736759e+00 
1.551629e+01 
1.093555e+01 
2.046370e+01 
1.522251e+01 
2.120326e+01 
1.283991e+01 
7.439749e+00 
2.548872e+01 
1.942459e+01 
1.460333e+01 
1.589340e+01 
1.565639e+01 
2.037819e+01 
1.537752e+01 
2.264166e+01 
1.650278e+01 
1.306229e+01 
3.760445e+01 
2.827866e+01 
1.423546e+01 
2.598110e+01 
2.084902e+01 
1.751596e+01 
2.199396e+01 
2.201086e+01 
2.265709e+01 
2.372179e+01 
2.110736e+01 
2.939561e+01 
2.168083e+01 
2.815601e+01 
2.753195e+01 
2.565926e+01 
3.026674e+01 
2.571918e+01 
3.250417e+01 
2.503200e+01 
3.447961e+01 
2.650889e+01 
3.471779e+01 
2.753864e+01 
3.644496e+01 
2.702655e+01 
3.559646e+01 
2.529708e+01 
3.544403e+01 
2.608414e+01 
3.382655e+01 
2.757475e+01 
