# vtk DataFile Version 2.0
fNorm
ASCII
DATASET UNSTRUCTURED_GRID

FIELD FieldData 1
TIME 1 1 double
0.60000000
POINTS 249 float
7.468966051497430e-01 5.000000000000000e-01 0.000000000000000e+00
7.468465614360975e-01 5.073347804857059e-01 0.000000000000000e+00
7.466525375389916e-01 5.146828218786361e-01 0.000000000000000e+00
7.463350924672152e-01 5.220149959622108e-01 0.000000000000000e+00
7.459336504984505e-01 5.292557314442590e-01 0.000000000000000e+00
7.453000435424987e-01 5.367162125219456e-01 0.000000000000000e+00
7.447171734379434e-01 5.438039611222113e-01 0.000000000000000e+00
7.437856297314214e-01 5.513599495541148e-01 0.000000000000000e+00
7.430724728401720e-01 5.581272060002649e-01 0.000000000000000e+00
7.417905245267952e-01 5.658205484298717e-01 0.000000000000000e+00
7.408504298272121e-01 5.725282814831323e-01 0.000000000000000e+00
7.394154348544049e-01 5.799766721547818e-01 0.000000000000000e+00
7.380449134236705e-01 5.870398005289860e-01 0.000000000000000e+00
7.364239942920110e-01 5.942227639116863e-01 0.000000000000000e+00
7.346331418170903e-01 6.014822462948421e-01 0.000000000000000e+00
7.330294241942417e-01 6.081457364572187e-01 0.000000000000000e+00
7.309561874223109e-01 6.154333045336330e-01 0.000000000000000e+00
7.289033912119929e-01 6.222758671128725e-01 0.000000000000000e+00
7.266474362282623e-01 6.291890248125368e-01 0.000000000000000e+00
7.242718067807795e-01 6.361486887612412e-01 0.000000000000000e+00
7.218923629091742e-01 6.427986280377400e-01 0.000000000000000e+00
7.192095899733949e-01 6.496232230332691e-01 0.000000000000000e+00
7.163958745423898e-01 6.563528607791544e-01 0.000000000000000e+00
7.135273417932566e-01 6.628935226916586e-01 0.000000000000000e+00
7.104596234875991e-01 6.694498581874014e-01 0.000000000000000e+00
7.073046242357668e-01 6.759195475193011e-01 0.000000000000000e+00
7.040441557489198e-01 6.822106293083997e-01 0.000000000000000e+00
7.005399182937030e-01 6.885150694786057e-01 0.000000000000000e+00
6.968711341125167e-01 6.947799204083046e-01 0.000000000000000e+00
6.931501283344876e-01 7.008457725580765e-01 0.000000000000000e+00
6.892955853754851e-01 7.068269626001724e-01 0.000000000000000e+00
6.852717489024412e-01 7.126776706176636e-01 0.000000000000000e+00
6.811041967967861e-01 7.184691746489640e-01 0.000000000000000e+00
6.767243261524069e-01 7.241621430211750e-01 0.000000000000000e+00
6.723272274630824e-01 7.296507865995212e-01 0.000000000000000e+00
6.678062665841941e-01 7.350429472400948e-01 0.000000000000000e+00
6.629871457407966e-01 7.403520941062075e-01 0.000000000000000e+00
6.580959239219234e-01 7.455140171893957e-01 0.000000000000000e+00
6.532170008291186e-01 7.504343293867776e-01 0.000000000000000e+00
6.479882463678408e-01 7.553595745248279e-01 0.000000000000000e+00
6.427202915123956e-01 7.600439835523478e-01 0.000000000000000e+00
6.374708078138231e-01 7.644741967790466e-01 0.000000000000000e+00
6.318362278682377e-01 7.689515074593015e-01 0.000000000000000e+00
6.262322625123020e-01 7.731040957105512e-01 0.000000000000000e+00
6.205273079586262e-01 7.771116212073986e-01 0.000000000000000e+00
6.145181816453769e-01 7.810885733633730e-01 0.000000000000000e+00
6.087279423919005e-01 7.845443333616630e-01 0.000000000000000e+00
6.025113193899445e-01 7.881575112565427e-01 0.000000000000000e+00
5.964392796242913e-01 7.912782329557870e-01 0.000000000000000e+00
5.901373614221315e-01 7.944080243951821e-01 0.000000000000000e+00
5.836077362657452e-01 7.973862737898240e-01 0.000000000000000e+00
5.772347543338009e-01 7.999736407236977e-01 0.000000000000000e+00
5.705274975794274e-01 8.024913115825787e-01 0.000000000000000e+00
5.641864997004308e-01 8.044922737966785e-01 0.000000000000000e+00
5.572793141108840e-01 8.066878109912730e-01 0.000000000000000e+00
5.506455301292942e-01 8.084095510099440e-01 0.000000000000000e+00
5.437691636017217e-01 8.099773583394771e-01 0.000000000000000e+00
5.368775214330791e-01 8.113078327617091e-01 0.000000000000000e+00
5.299965291723722e-01 8.124007160777781e-01 0.000000000000000e+00
5.230115038339328e-01 8.132973016708632e-01 0.000000000000000e+00
5.160751290778033e-01 8.139109772033831e-01 0.000000000000000e+00
5.089992238612129e-01 8.143372146969498e-01 0.000000000000000e+00
5.020558940800984e-01 8.145064263188674e-01 0.000000000000000e+00
4.950277947058510e-01 8.144507143707854e-01 0.000000000000000e+00
4.880652985948030e-01 8.141638363009320e-01 0.000000000000000e+00
4.809956115145028e-01 8.136253695415665e-01 0.000000000000000e+00
4.741085124153698e-01 8.128967983605064e-01 0.000000000000000e+00
4.671205063064512e-01 8.118729849971279e-01 0.000000000000000e+00
4.603237032118865e-01 8.107030841862691e-01 0.000000000000000e+00
4.533422370038812e-01 8.092056361634010e-01 0.000000000000000e+00
4.466565373903036e-01 8.075838190787231e-01 0.000000000000000e+00
4.398385774114086e-01 8.056215930824636e-01 0.000000000000000e+00
4.331559471975211e-01 8.034423678329797e-01 0.000000000000000e+00
4.267245605176280e-01 8.013061911057034e-01 0.000000000000000e+00
4.201009596824231e-01 7.986528111077429e-01 0.000000000000000e+00
4.138081426011127e-01 7.960358185069742e-01 0.000000000000000e+00
4.071897849701476e-01 7.927651905698423e-01 0.000000000000000e+00
4.011895981404516e-01 7.898397691848109e-01 0.000000000000000e+00
3.949261061540510e-01 7.863670199221107e-01 0.000000000000000e+00
3.889719405900710e-01 7.828501669886735e-01 0.000000000000000e+00
3.830714375157018e-01 7.791635280318070e-01 0.000000000000000e+00
3.771623035470223e-01 7.750944576520101e-01 0.000000000000000e+00
3.715906719990915e-01 7.711052492918125e-01 0.000000000000000e+00
3.659011138932874e-01 7.667446963106818e-01 0.000000000000000e+00
3.604567395782257e-01 7.622763528379025e-01 0.000000000000000e+00
3.552491772023313e-01 7.577693402000293e-01 0.000000000000000e+00
3.499420313395894e-01 7.529270804477154e-01 0.000000000000000e+00
3.448906483695690e-01 7.480053271620360e-01 0.000000000000000e+00
3.400472416427419e-01 7.429918512960519e-01 0.000000000000000e+00
3.351788674384141e-01 7.377604901211571e-01 0.000000000000000e+00
3.304829444809543e-01 7.323901773375603e-01 0.000000000000000e+00
3.260630534616535e-01 7.269718698422872e-01 0.000000000000000e+00
3.216548202019869e-01 7.213771032073246e-01 0.000000000000000e+00
3.173725578525031e-01 7.156252390338954e-01 0.000000000000000e+00
3.132920798837531e-01 7.098107828845122e-01 0.000000000000000e+00
3.093287891185417e-01 7.038866348189950e-01 0.000000000000000e+00
3.055646120719649e-01 6.978853351707142e-01 0.000000000000000e+00
3.018603291159735e-01 6.917127524962812e-01 0.000000000000000e+00
2.982663734421828e-01 6.854016335760198e-01 0.000000000000000e+00
2.948767376761608e-01 6.791158518512462e-01 0.000000000000000e+00
2.916870127035620e-01 6.727537382360012e-01 0.000000000000000e+00
2.885664802096098e-01 6.662298688097100e-01 0.000000000000000e+00
2.856009669349424e-01 6.596762013720231e-01 0.000000000000000e+00
2.827696838651930e-01 6.530688381869976e-01 0.000000000000000e+00
2.799820634825732e-01 6.462383635569877e-01 0.000000000000000e+00
2.774447631358607e-01 6.394958501154728e-01 0.000000000000000e+00
2.751438065095683e-01 6.327995859698170e-01 0.000000000000000e+00
2.727771722344362e-01 6.257566112587704e-01 0.000000000000000e+00
2.706596092295060e-01 6.189879919274307e-01 0.000000000000000e+00
2.685278696803788e-01 6.118117897548366e-01 0.000000000000000e+00
2.666437533358343e-01 6.047436399224662e-01 0.000000000000000e+00
2.650711149293594e-01 5.979914589862736e-01 0.000000000000000e+00
2.632333132795162e-01 5.905440391427105e-01 0.000000000000000e+00
2.619348540955413e-01 5.838056341626907e-01 0.000000000000000e+00
2.604113123245634e-01 5.762933813133264e-01 0.000000000000000e+00
2.593194084070212e-01 5.694067374448312e-01 0.000000000000000e+00
2.581098079042113e-01 5.620191040882371e-01 0.000000000000000e+00
2.570746384740502e-01 5.546934732448432e-01 0.000000000000000e+00
2.562924780174596e-01 5.476236514235817e-01 0.000000000000000e+00
2.554533616895179e-01 5.401083001295192e-01 0.000000000000000e+00
2.549245361952489e-01 5.330432513535885e-01 0.000000000000000e+00
2.543457613752864e-01 5.255368770942299e-01 0.000000000000000e+00
2.540380179942905e-01 5.183933280773444e-01 0.000000000000000e+00
2.537553157880755e-01 5.109719114642234e-01 0.000000000000000e+00
2.536521954380558e-01 5.036873813696842e-01 0.000000000000000e+00
2.536521954380552e-01 4.963126186304003e-01 0.000000000000000e+00
2.537553157880746e-01 4.890280885358425e-01 0.000000000000000e+00
2.540380179942888e-01 4.816066719227287e-01 0.000000000000000e+00
2.543457613752854e-01 4.744631229058500e-01 0.000000000000000e+00
2.549245361952457e-01 4.669567486464856e-01 0.000000000000000e+00
2.554533616895135e-01 4.598916998705615e-01 0.000000000000000e+00
2.562924780174581e-01 4.523763485764907e-01 0.000000000000000e+00
2.570746384740473e-01 4.453065267552326e-01 0.000000000000000e+00
2.581098079042042e-01 4.379808959118465e-01 0.000000000000000e+00
2.593194084070177e-01 4.305932625552426e-01 0.000000000000000e+00
2.604113123245572e-01 4.237066186867526e-01 0.000000000000000e+00
2.619348540955374e-01 4.161943658373877e-01 0.000000000000000e+00
2.632333132795066e-01 4.094559608573722e-01 0.000000000000000e+00
2.650711149293515e-01 4.020085410138060e-01 0.000000000000000e+00
2.666437533358283e-01 3.952563600776148e-01 0.000000000000000e+00
2.685278696803704e-01 3.881882102452420e-01 0.000000000000000e+00
2.706596092294979e-01 3.810120080726504e-01 0.000000000000000e+00
2.727771722344280e-01 3.742433887413103e-01 0.000000000000000e+00
2.751438065095583e-01 3.672004140302616e-01 0.000000000000000e+00
2.774447631358515e-01 3.605041498846094e-01 0.000000000000000e+00
2.799820634825644e-01 3.537616364430911e-01 0.000000000000000e+00
2.827696838651786e-01 3.469311618130841e-01 0.000000000000000e+00
2.856009669349338e-01 3.403237986280550e-01 0.000000000000000e+00
2.885664802095942e-01 3.337701311903715e-01 0.000000000000000e+00
2.916870127035507e-01 3.272462617640802e-01 0.000000000000000e+00
2.948767376761453e-01 3.208841481488279e-01 0.000000000000000e+00
2.982663734421679e-01 3.145983664240617e-01 0.000000000000000e+00
3.018603291159595e-01 3.082872475037962e-01 0.000000000000000e+00
3.055646120719482e-01 3.021146648293663e-01 0.000000000000000e+00
3.093287891185252e-01 2.961133651810816e-01 0.000000000000000e+00
3.132920798837346e-01 2.901892171155677e-01 0.000000000000000e+00
3.173725578524878e-01 2.843747609661840e-01 0.000000000000000e+00
3.216548202019670e-01 2.786228967927533e-01 0.000000000000000e+00
3.260630534616379e-01 2.730281301577867e-01 0.000000000000000e+00
3.304829444809370e-01 2.676098226625193e-01 0.000000000000000e+00
3.351788674383933e-01 2.622395098789188e-01 0.000000000000000e+00
3.400472416427215e-01 2.570081487040249e-01 0.000000000000000e+00
3.448906483695511e-01 2.519946728380411e-01 0.000000000000000e+00
3.499420313395684e-01 2.470729195523589e-01 0.000000000000000e+00
3.552491772023051e-01 2.422306598000498e-01 0.000000000000000e+00
3.604567395782147e-01 2.377236471621699e-01 0.000000000000000e+00
3.659011138932526e-01 2.332553036893981e-01 0.000000000000000e+00
3.715906719990791e-01 2.288947507082536e-01 0.000000000000000e+00
3.771623035469949e-01 2.249055423480708e-01 0.000000000000000e+00
3.830714375156795e-01 2.208364719682626e-01 0.000000000000000e+00
3.889719405900458e-01 2.171498330113978e-01 0.000000000000000e+00
3.949261061540253e-01 2.136329800779581e-01 0.000000000000000e+00
4.011895981404269e-01 2.101602308152574e-01 0.000000000000000e+00
4.071897849701182e-01 2.072348094302323e-01 0.000000000000000e+00
4.138081426010787e-01 2.039641814930974e-01 0.000000000000000e+00
4.201009596823978e-01 2.013471888923191e-01 0.000000000000000e+00
4.267245605175983e-01 1.986938088943651e-01 0.000000000000000e+00
4.331559471974966e-01 1.965576321670821e-01 0.000000000000000e+00
4.398385774113767e-01 1.943784069175933e-01 0.000000000000000e+00
4.466565373902759e-01 1.924161809213474e-01 0.000000000000000e+00
4.533422370038487e-01 1.907943638366559e-01 0.000000000000000e+00
4.603237032118601e-01 1.892969158137862e-01 0.000000000000000e+00
4.671205063064151e-01 1.881270150029304e-01 0.000000000000000e+00
4.741085124153376e-01 1.871032016395455e-01 0.000000000000000e+00
4.809956115144692e-01 1.863746304584905e-01 0.000000000000000e+00
4.880652985947690e-01 1.858361636991175e-01 0.000000000000000e+00
4.950277947058164e-01 1.855492856292659e-01 0.000000000000000e+00
5.020558940800680e-01 1.854935736811817e-01 0.000000000000000e+00
5.089992238611795e-01 1.856627853030962e-01 0.000000000000000e+00
5.160751290777661e-01 1.860890227966668e-01 0.000000000000000e+00
5.230115038339064e-01 1.867026983291795e-01 0.000000000000000e+00
5.299965291723360e-01 1.875992839222602e-01 0.000000000000000e+00
5.368775214330513e-01 1.886921672383340e-01 0.000000000000000e+00
5.437691636016884e-01 1.900226416605599e-01 0.000000000000000e+00
5.506455301292617e-01 1.915904489900936e-01 0.000000000000000e+00
5.572793141108566e-01 1.933121890087589e-01 0.000000000000000e+00
5.641864997003980e-01 1.955077262033556e-01 0.000000000000000e+00
5.705274975794025e-01 1.975086884174498e-01 0.000000000000000e+00
5.772347543337704e-01 2.000263592763322e-01 0.000000000000000e+00
5.836077362657225e-01 2.026137262101955e-01 0.000000000000000e+00
5.901373614221057e-01 2.055919756048541e-01 0.000000000000000e+00
5.964392796242713e-01 2.087217670442342e-01 0.000000000000000e+00
6.025113193899216e-01 2.118424887434836e-01 0.000000000000000e+00
6.087279423918736e-01 2.154556666383597e-01 0.000000000000000e+00
6.145181816453619e-01 2.189114266366499e-01 0.000000000000000e+00
6.205273079586016e-01 2.228883787926228e-01 0.000000000000000e+00
6.262322625122848e-01 2.268959042894731e-01 0.000000000000000e+00
6.318362278682181e-01 2.310484925407156e-01 0.000000000000000e+00
6.374708078138059e-01 2.355258032209737e-01 0.000000000000000e+00
6.427202915123783e-01 2.399560164476721e-01 0.000000000000000e+00
6.479882463678215e-01 2.446404254751910e-01 0.000000000000000e+00
6.532170008291026e-01 2.495656706132353e-01 0.000000000000000e+00
6.580959239219055e-01 2.544859828106239e-01 0.000000000000000e+00
6.629871457407805e-01 2.596479058938072e-01 0.000000000000000e+00
6.678062665841791e-01 2.649570527599202e-01 0.000000000000000e+00
6.723272274630688e-01 2.703492134004968e-01 0.000000000000000e+00
6.767243261523868e-01 2.758378569788351e-01 0.000000000000000e+00
6.811041967967766e-01 2.815308253510547e-01 0.000000000000000e+00
6.852717489024220e-01 2.873223293823429e-01 0.000000000000000e+00
6.892955853754734e-01 2.931730373998427e-01 0.000000000000000e+00
6.931501283344711e-01 2.991542274419376e-01 0.000000000000000e+00
6.968711341125087e-01 3.052200795917077e-01 0.000000000000000e+00
7.005399182936886e-01 3.114849305214046e-01 0.000000000000000e+00
7.040441557489113e-01 3.177893706916148e-01 0.000000000000000e+00
7.073046242357542e-01 3.240804524807107e-01 0.000000000000000e+00
7.104596234875884e-01 3.305501418126053e-01 0.000000000000000e+00
7.135273417932473e-01 3.371064773083584e-01 0.000000000000000e+00
7.163958745423774e-01 3.436471392208557e-01 0.000000000000000e+00
7.192095899733865e-01 3.503767769667404e-01 0.000000000000000e+00
7.218923629091651e-01 3.572013719622740e-01 0.000000000000000e+00
7.242718067807695e-01 3.638513112387708e-01 0.000000000000000e+00
7.266474362282523e-01 3.708109751874715e-01 0.000000000000000e+00
7.289033912119848e-01 3.777241328871413e-01 0.000000000000000e+00
7.309561874223028e-01 3.845666954663766e-01 0.000000000000000e+00
7.330294241942317e-01 3.918542635427905e-01 0.000000000000000e+00
7.346331418170816e-01 3.985177537051770e-01 0.000000000000000e+00
7.364239942920062e-01 4.057772360883203e-01 0.000000000000000e+00
7.380449134236624e-01 4.129601994710311e-01 0.000000000000000e+00
7.394154348543996e-01 4.200233278452331e-01 0.000000000000000e+00
7.408504298272066e-01 4.274717185168784e-01 0.000000000000000e+00
7.417905245267913e-01 4.341794515701468e-01 0.000000000000000e+00
7.430724728401698e-01 4.418727939997505e-01 0.000000000000000e+00
7.437856297314188e-01 4.486400504458996e-01 0.000000000000000e+00
7.447171734379423e-01 4.561960388778122e-01 0.000000000000000e+00
7.453000435424942e-01 4.632837874780618e-01 0.000000000000000e+00
7.459336504984494e-01 4.707442685557510e-01 0.000000000000000e+00
7.463350924672136e-01 4.779850040378013e-01 0.000000000000000e+00
7.466525375389901e-01 4.853171781213829e-01 0.000000000000000e+00
7.468465614360975e-01 4.926652195143127e-01 0.000000000000000e+00

POINT_DATA   249
SCALARS fNorm double
LOOKUP_TABLE default

1.000787e+01 
1.437342e+01 
1.238904e+01 
8.839459e+00 
2.161490e+01 
1.950772e+00 
2.986451e+01 
1.269843e+01 
4.368685e+01 
1.875593e+01 
3.655070e+01 
9.829399e-01 
2.204219e+01 
1.477848e+01 
4.063166e+00 
2.949424e+01 
1.051014e+01 
1.727550e+01 
9.878842e+00 
1.057613e+01 
2.225222e+01 
1.570196e+01 
1.247714e+01 
1.749434e+01 
1.161035e+01 
1.744650e+01 
2.084261e+01 
1.625222e+01 
1.470988e+01 
1.581137e+01 
2.132253e+01 
1.516146e+01 
2.291468e+01 
1.397170e+01 
1.569660e+01 
2.792088e+01 
1.529782e+01 
1.593225e+01 
2.405550e+01 
2.041127e+01 
1.800093e+01 
2.074440e+01 
2.389019e+01 
1.767536e+01 
1.965843e+01 
3.243333e+01 
8.065950e+00 
3.623914e+01 
9.557504e+00 
2.347393e+01 
2.968599e+01 
1.864519e+01 
3.684021e+01 
1.448906e+00 
3.791599e+01 
2.069565e+01 
2.354155e+01 
2.321655e+01 
2.090853e+01 
2.760133e+01 
1.972682e+01 
2.511812e+01 
2.256246e+01 
2.327148e+01 
2.448694e+01 
2.058508e+01 
2.802667e+01 
1.743358e+01 
2.864851e+01 
1.870892e+01 
2.950870e+01 
2.471653e+01 
3.766068e+00 
4.193368e+01 
9.127102e+00 
4.596512e+01 
3.735144e+00 
3.634823e+01 
1.918733e+01 
1.729598e+01 
3.149305e+01 
1.285401e+01 
2.280774e+01 
2.367858e+01 
1.821678e+01 
1.843714e+01 
2.332746e+01 
2.120875e+01 
1.317935e+01 
2.211101e+01 
2.418227e+01 
1.194763e+01 
1.955279e+01 
2.001914e+01 
1.586814e+01 
2.090422e+01 
1.406345e+01 
1.651630e+01 
1.664033e+01 
2.125728e+01 
1.332838e+01 
1.531148e+01 
1.444779e+01 
1.263552e+01 
2.008846e+01 
2.066932e+01 
4.935077e+00 
1.521696e+01 
1.052409e+01 
2.089891e+01 
2.254932e+01 
9.546497e+00 
3.735540e+01 
7.046094e+00 
3.128661e+01 
3.645337e+00 
1.630746e+01 
2.189727e+01 
7.390346e-01 
2.668597e+01 
1.636507e+00 
2.486137e+01 
3.626908e+00 
1.759228e+01 
1.037449e+01 
1.037449e+01 
1.759228e+01 
3.626908e+00 
2.486137e+01 
1.636507e+00 
2.668597e+01 
7.390346e-01 
2.189727e+01 
1.630746e+01 
3.645337e+00 
3.128661e+01 
7.046094e+00 
3.735540e+01 
9.546497e+00 
2.254932e+01 
2.089891e+01 
1.052409e+01 
1.521696e+01 
4.935077e+00 
2.066932e+01 
2.008846e+01 
1.263552e+01 
1.444779e+01 
1.531148e+01 
1.332838e+01 
2.125728e+01 
1.664033e+01 
1.651630e+01 
1.406345e+01 
2.090422e+01 
1.586814e+01 
2.001914e+01 
1.955279e+01 
1.194763e+01 
2.418227e+01 
2.211101e+01 
1.317935e+01 
2.120875e+01 
2.332746e+01 
1.843714e+01 
1.821678e+01 
2.367858e+01 
2.280774e+01 
1.285401e+01 
3.149305e+01 
1.729598e+01 
1.918733e+01 
3.634823e+01 
3.735144e+00 
4.596512e+01 
9.127102e+00 
4.193368e+01 
3.766068e+00 
2.471653e+01 
2.950870e+01 
1.870892e+01 
2.864851e+01 
1.743358e+01 
2.802667e+01 
2.058508e+01 
2.448694e+01 
2.327148e+01 
2.256246e+01 
2.511812e+01 
1.972682e+01 
2.760133e+01 
2.090853e+01 
2.321655e+01 
2.354155e+01 
2.069565e+01 
3.791599e+01 
1.448906e+00 
3.684021e+01 
1.864519e+01 
2.968599e+01 
2.347393e+01 
9.557504e+00 
3.623914e+01 
8.065950e+00 
3.243333e+01 
1.965843e+01 
1.767536e+01 
2.389019e+01 
2.074440e+01 
1.800093e+01 
2.041127e+01 
2.405550e+01 
1.593225e+01 
1.529782e+01 
2.792088e+01 
1.569660e+01 
1.397170e+01 
2.291468e+01 
1.516146e+01 
2.132253e+01 
1.581137e+01 
1.470988e+01 
1.625222e+01 
2.084261e+01 
1.744650e+01 
1.161035e+01 
1.749434e+01 
1.247714e+01 
1.570196e+01 
2.225222e+01 
1.057613e+01 
9.878842e+00 
1.727550e+01 
1.051014e+01 
2.949424e+01 
4.063166e+00 
1.477848e+01 
2.204219e+01 
9.829399e-01 
3.655070e+01 
1.875593e+01 
4.368685e+01 
1.269843e+01 
2.986451e+01 
1.950772e+00 
2.161490e+01 
8.839459e+00 
1.238904e+01 
1.437342e+01 
