# vtk DataFile Version 2.0
fTan
ASCII
DATASET UNSTRUCTURED_GRID

FIELD FieldData 1
TIME 1 1 double
1.05000000
POINTS 249 float
7.876827998615284e-01 5.000000000000000e-01 0.000000000000000e+00
7.875877029199370e-01 5.069105091110090e-01 0.000000000000000e+00
7.872934120288549e-01 5.138684635526937e-01 0.000000000000000e+00
7.867925674425058e-01 5.208183275829246e-01 0.000000000000000e+00
7.861721755323665e-01 5.276203685312320e-01 0.000000000000000e+00
7.852495112521299e-01 5.346359344862377e-01 0.000000000000000e+00
7.843521795861207e-01 5.411820706739170e-01 0.000000000000000e+00
7.829067165557069e-01 5.483716072222241e-01 0.000000000000000e+00
7.818809598327378e-01 5.544557810603277e-01 0.000000000000000e+00
7.798821461667926e-01 5.617818837612852e-01 0.000000000000000e+00
7.785266125691097e-01 5.678434009588589e-01 0.000000000000000e+00
7.762655251764864e-01 5.748154879108891e-01 0.000000000000000e+00
7.741886778210829e-01 5.813052757259970e-01 0.000000000000000e+00
7.719304153938192e-01 5.876685218613952e-01 0.000000000000000e+00
7.691336776795931e-01 5.944348711413001e-01 0.000000000000000e+00
7.669856777618664e-01 6.001172863543305e-01 0.000000000000000e+00
7.638174386418856e-01 6.068752222584756e-01 0.000000000000000e+00
7.609164453706321e-01 6.128409672658420e-01 0.000000000000000e+00
7.576594045242204e-01 6.190240803815573e-01 0.000000000000000e+00
7.541712211389038e-01 6.252487140080316e-01 0.000000000000000e+00
7.509088738761310e-01 6.308818591294836e-01 0.000000000000000e+00
7.470816791382148e-01 6.369402463681775e-01 0.000000000000000e+00
7.432890946175663e-01 6.425936226282971e-01 0.000000000000000e+00
7.393433039340828e-01 6.482262265433962e-01 0.000000000000000e+00
7.350479549579249e-01 6.539399479964410e-01 0.000000000000000e+00
7.308816192578848e-01 6.592619938845339e-01 0.000000000000000e+00
7.264675253099208e-01 6.645940590060924e-01 0.000000000000000e+00
7.217689680871503e-01 6.699190885895511e-01 0.000000000000000e+00
7.171556962612688e-01 6.749410662358022e-01 0.000000000000000e+00
7.123926025758817e-01 6.798514969077136e-01 0.000000000000000e+00
7.072738415850773e-01 6.848344012808072e-01 0.000000000000000e+00
7.022206242400967e-01 6.895579314148836e-01 0.000000000000000e+00
6.971270490728388e-01 6.940553059154183e-01 0.000000000000000e+00
6.916417779803135e-01 6.986023772921975e-01 0.000000000000000e+00
6.861816110272089e-01 7.029909927516754e-01 0.000000000000000e+00
6.807536071677927e-01 7.071080528875622e-01 0.000000000000000e+00
6.750425227901504e-01 7.111672594556900e-01 0.000000000000000e+00
6.691832675463759e-01 7.151496253895337e-01 0.000000000000000e+00
6.634247747648211e-01 7.188824497170335e-01 0.000000000000000e+00
6.573961962524009e-01 7.225928900240713e-01 0.000000000000000e+00
6.512457852175964e-01 7.261384592958074e-01 0.000000000000000e+00
6.453941785836823e-01 7.293016897649954e-01 0.000000000000000e+00
6.389293915218187e-01 7.326449083738470e-01 0.000000000000000e+00
6.326604860032872e-01 7.357098137661429e-01 0.000000000000000e+00
6.264682807888740e-01 7.385497922074195e-01 0.000000000000000e+00
6.196360009292021e-01 7.414994364915710e-01 0.000000000000000e+00
6.137415284607537e-01 7.437074056792904e-01 0.000000000000000e+00
6.067196706607398e-01 7.465452701116849e-01 0.000000000000000e+00
6.004640342390323e-01 7.485368951638447e-01 0.000000000000000e+00
5.937710080354855e-01 7.506848316980894e-01 0.000000000000000e+00
5.866674493301639e-01 7.529498325135575e-01 0.000000000000000e+00
5.803445316859341e-01 7.545646817344934e-01 0.000000000000000e+00
5.730095089420560e-01 7.564972299527092e-01 0.000000000000000e+00
5.669761648615511e-01 7.575784790882966e-01 0.000000000000000e+00
5.595775245658022e-01 7.592263131611704e-01 0.000000000000000e+00
5.529304195814968e-01 7.603419784807108e-01 0.000000000000000e+00
5.458904262943620e-01 7.614184768342538e-01 0.000000000000000e+00
5.387998147875629e-01 7.623635716306246e-01 0.000000000000000e+00
5.318615926096634e-01 7.631049988575241e-01 0.000000000000000e+00
5.246838428689274e-01 7.637449464301034e-01 0.000000000000000e+00
5.178048107444023e-01 7.641337076163879e-01 0.000000000000000e+00
5.106325822856959e-01 7.644336776105954e-01 0.000000000000000e+00
5.036481353203145e-01 7.645405500627483e-01 0.000000000000000e+00
4.965010568355558e-01 7.645063045140766e-01 0.000000000000000e+00
4.895082892118146e-01 7.643207369034034e-01 0.000000000000000e+00
4.823606972602544e-01 7.639382496878346e-01 0.000000000000000e+00
4.754908155707001e-01 7.634699766635998e-01 0.000000000000000e+00
4.682609479775712e-01 7.627231827612349e-01 0.000000000000000e+00
4.615249646677346e-01 7.619812878159070e-01 0.000000000000000e+00
4.542431955750544e-01 7.608989475058302e-01 0.000000000000000e+00
4.475759427023936e-01 7.598744719097492e-01 0.000000000000000e+00
4.404418805125874e-01 7.584465170221240e-01 0.000000000000000e+00
4.334597732692617e-01 7.568753637525746e-01 0.000000000000000e+00
4.270127470616900e-01 7.555881578453166e-01 0.000000000000000e+00
4.198086925800295e-01 7.536018542190321e-01 0.000000000000000e+00
4.136240717255094e-01 7.520452361738152e-01 0.000000000000000e+00
4.063458959232810e-01 7.494653166259189e-01 0.000000000000000e+00
4.002225781636755e-01 7.477140539795646e-01 0.000000000000000e+00
3.933820008419234e-01 7.452038952982651e-01 0.000000000000000e+00
3.867975883782138e-01 7.425106099814016e-01 0.000000000000000e+00
3.805732509784270e-01 7.400696387790207e-01 0.000000000000000e+00
3.738254183451916e-01 7.370496947845844e-01 0.000000000000000e+00
3.678995127682335e-01 7.342840797749366e-01 0.000000000000000e+00
3.613827147943743e-01 7.309626480779253e-01 0.000000000000000e+00
3.551417157460153e-01 7.276611899506664e-01 0.000000000000000e+00
3.493139231585574e-01 7.244393768705987e-01 0.000000000000000e+00
3.431116548950530e-01 7.207582325327385e-01 0.000000000000000e+00
3.372434125976326e-01 7.170326895599687e-01 0.000000000000000e+00
3.314809485184555e-01 7.132024632315510e-01 0.000000000000000e+00
3.256483209195474e-01 7.091749967261897e-01 0.000000000000000e+00
3.200325892810434e-01 7.050486922107090e-01 0.000000000000000e+00
3.146599803576133e-01 7.008433977187701e-01 0.000000000000000e+00
3.091595292673058e-01 6.963659355698707e-01 0.000000000000000e+00
3.038103167098298e-01 6.918010064246292e-01 0.000000000000000e+00
2.988420062571147e-01 6.872807544726148e-01 0.000000000000000e+00
2.937256069308240e-01 6.824180008439686e-01 0.000000000000000e+00
2.887380261640828e-01 6.774157439440300e-01 0.000000000000000e+00
2.840862099644919e-01 6.724965336433788e-01 0.000000000000000e+00
2.794326088094440e-01 6.673334415411101e-01 0.000000000000000e+00
2.748227759159251e-01 6.619451695852134e-01 0.000000000000000e+00
2.705883808914762e-01 6.566690286314322e-01 0.000000000000000e+00
2.663744921851629e-01 6.512079988921299e-01 0.000000000000000e+00
2.622004960513432e-01 6.454803978354200e-01 0.000000000000000e+00
2.584541239190053e-01 6.399238830739609e-01 0.000000000000000e+00
2.545460585302682e-01 6.339499959930521e-01 0.000000000000000e+00
2.509023398450965e-01 6.280455358411777e-01 0.000000000000000e+00
2.476240156470491e-01 6.222597663270851e-01 0.000000000000000e+00
2.441480295538770e-01 6.158136040602666e-01 0.000000000000000e+00
2.413568890121594e-01 6.100849559016756e-01 0.000000000000000e+00
2.381604042912211e-01 6.035906660993205e-01 0.000000000000000e+00
2.354061560250190e-01 5.972515344691547e-01 0.000000000000000e+00
2.330340928965331e-01 5.911259659483522e-01 0.000000000000000e+00
2.301995594649788e-01 5.841281035519340e-01 0.000000000000000e+00
2.285655191005043e-01 5.783771965835754e-01 0.000000000000000e+00
2.260870940819339e-01 5.712227476351762e-01 0.000000000000000e+00
2.245147743006173e-01 5.650798451953137e-01 0.000000000000000e+00
2.227267714067389e-01 5.582120358772430e-01 0.000000000000000e+00
2.212465766812370e-01 5.514564095652490e-01 0.000000000000000e+00
2.199837554159701e-01 5.448941398628221e-01 0.000000000000000e+00
2.186682806549623e-01 5.376807113176264e-01 0.000000000000000e+00
2.178656189437905e-01 5.312161510760577e-01 0.000000000000000e+00
2.170187265612162e-01 5.240366569848978e-01 0.000000000000000e+00
2.165263422454288e-01 5.173988309663319e-01 0.000000000000000e+00
2.160986001256385e-01 5.103511882763742e-01 0.000000000000000e+00
2.159222626632383e-01 5.034967511543429e-01 0.000000000000000e+00
2.159222626632390e-01 4.965032488463281e-01 0.000000000000000e+00
2.160986001256375e-01 4.896488117242885e-01 0.000000000000000e+00
2.165263422454154e-01 4.826011690343384e-01 0.000000000000000e+00
2.170187265611987e-01 4.759633430157780e-01 0.000000000000000e+00
2.178656189437696e-01 4.687838489246068e-01 0.000000000000000e+00
2.186682806549540e-01 4.623192886830208e-01 0.000000000000000e+00
2.199837554159478e-01 4.551058601378301e-01 0.000000000000000e+00
2.212465766812163e-01 4.485435904353954e-01 0.000000000000000e+00
2.227267714066937e-01 4.417879641234350e-01 0.000000000000000e+00
2.245147743005756e-01 4.349201548053502e-01 0.000000000000000e+00
2.260870940818687e-01 4.287772523655154e-01 0.000000000000000e+00
2.285655191004672e-01 4.216228034170826e-01 0.000000000000000e+00
2.301995594649495e-01 4.158718964486896e-01 0.000000000000000e+00
2.330340928964761e-01 4.088740340522985e-01 0.000000000000000e+00
2.354061560249907e-01 4.027484655314650e-01 0.000000000000000e+00
2.381604042911598e-01 3.964093339013384e-01 0.000000000000000e+00
2.413568890121080e-01 3.899150440989536e-01 0.000000000000000e+00
2.441480295538231e-01 3.841863959403712e-01 0.000000000000000e+00
2.476240156469843e-01 3.777402336735523e-01 0.000000000000000e+00
2.509023398450422e-01 3.719544641594439e-01 0.000000000000000e+00
2.545460585301991e-01 3.660500040075909e-01 0.000000000000000e+00
2.584541239189359e-01 3.600761169266656e-01 0.000000000000000e+00
2.622004960512749e-01 3.545196021652082e-01 0.000000000000000e+00
2.663744921850802e-01 3.487920011085082e-01 0.000000000000000e+00
2.705883808914126e-01 3.433309713691829e-01 0.000000000000000e+00
2.748227759158422e-01 3.380548304154179e-01 0.000000000000000e+00
2.794326088093516e-01 3.326665584595254e-01 0.000000000000000e+00
2.840862099644212e-01 3.275034663572352e-01 0.000000000000000e+00
2.887380261639917e-01 3.225842560566018e-01 0.000000000000000e+00
2.937256069307199e-01 3.175819991566653e-01 0.000000000000000e+00
2.988420062570245e-01 3.127192455280107e-01 0.000000000000000e+00
3.038103167097400e-01 3.081989935759979e-01 0.000000000000000e+00
3.091595292672000e-01 3.036340644307522e-01 0.000000000000000e+00
3.146599803575175e-01 2.991566022818484e-01 0.000000000000000e+00
3.200325892809466e-01 2.949513077899149e-01 0.000000000000000e+00
3.256483209194365e-01 2.908250032744250e-01 0.000000000000000e+00
3.314809485183428e-01 2.867975367690689e-01 0.000000000000000e+00
3.372434125975161e-01 2.829673104406519e-01 0.000000000000000e+00
3.431116548949392e-01 2.792417674678727e-01 0.000000000000000e+00
3.493139231584360e-01 2.755606231300052e-01 0.000000000000000e+00
3.551417157459033e-01 2.723388100499430e-01 0.000000000000000e+00
3.613827147942447e-01 2.690373519226797e-01 0.000000000000000e+00
3.678995127681178e-01 2.657159202256675e-01 0.000000000000000e+00
3.738254183450567e-01 2.629503052160294e-01 0.000000000000000e+00
3.805732509782912e-01 2.599303612215740e-01 0.000000000000000e+00
3.867975883780863e-01 2.574893900191939e-01 0.000000000000000e+00
3.933820008417895e-01 2.547961047023281e-01 0.000000000000000e+00
4.002225781635481e-01 2.522859460210209e-01 0.000000000000000e+00
4.063458959231144e-01 2.505346833746891e-01 0.000000000000000e+00
4.136240717253430e-01 2.479547638267846e-01 0.000000000000000e+00
4.198086925798858e-01 2.463981457815360e-01 0.000000000000000e+00
4.270127470615253e-01 2.444118421552698e-01 0.000000000000000e+00
4.334597732691079e-01 2.431246362479969e-01 0.000000000000000e+00
4.404418805124434e-01 2.415534829784330e-01 0.000000000000000e+00
4.475759427022274e-01 2.401255280908245e-01 0.000000000000000e+00
4.542431955748962e-01 2.391010524947202e-01 0.000000000000000e+00
4.615249646675843e-01 2.380187121846485e-01 0.000000000000000e+00
4.682609479773919e-01 2.372768172393186e-01 0.000000000000000e+00
4.754908155705394e-01 2.365300233369385e-01 0.000000000000000e+00
4.823606972600767e-01 2.360617503127116e-01 0.000000000000000e+00
4.895082892116405e-01 2.356792630971304e-01 0.000000000000000e+00
4.965010568353723e-01 2.354936954864567e-01 0.000000000000000e+00
5.036481353201308e-01 2.354594499377744e-01 0.000000000000000e+00
5.106325822855150e-01 2.355663223899254e-01 0.000000000000000e+00
5.178048107442148e-01 2.358662923841319e-01 0.000000000000000e+00
5.246838428687470e-01 2.362550535704031e-01 0.000000000000000e+00
5.318615926094669e-01 2.368950011429811e-01 0.000000000000000e+00
5.387998147873879e-01 2.376364283698724e-01 0.000000000000000e+00
5.458904262941700e-01 2.385815231662368e-01 0.000000000000000e+00
5.529304195813052e-01 2.396580215197773e-01 0.000000000000000e+00
5.595775245656208e-01 2.407736868393104e-01 0.000000000000000e+00
5.669761648613565e-01 2.424215209121798e-01 0.000000000000000e+00
5.730095089418775e-01 2.435027700477632e-01 0.000000000000000e+00
5.803445316857593e-01 2.454353182659783e-01 0.000000000000000e+00
5.866674493299752e-01 2.470501674868801e-01 0.000000000000000e+00
5.937710080353029e-01 2.493151683023827e-01 0.000000000000000e+00
6.004640342388479e-01 2.514631048366063e-01 0.000000000000000e+00
6.067196706605641e-01 2.534547298887599e-01 0.000000000000000e+00
6.137415284605626e-01 2.562925943211554e-01 0.000000000000000e+00
6.196360009290234e-01 2.585005635088700e-01 0.000000000000000e+00
6.264682807886974e-01 2.614502077930247e-01 0.000000000000000e+00
6.326604860031206e-01 2.642901862343032e-01 0.000000000000000e+00
6.389293915216406e-01 2.673550916265856e-01 0.000000000000000e+00
6.453941785835097e-01 2.706983102354406e-01 0.000000000000000e+00
6.512457852174234e-01 2.738615407046177e-01 0.000000000000000e+00
6.573961962522298e-01 2.774071099763497e-01 0.000000000000000e+00
6.634247747646563e-01 2.811175502833869e-01 0.000000000000000e+00
6.691832675462106e-01 2.848503746108916e-01 0.000000000000000e+00
6.750425227899888e-01 2.888327405447194e-01 0.000000000000000e+00
6.807536071676279e-01 2.928919471128443e-01 0.000000000000000e+00
6.861816110270514e-01 2.970090072487366e-01 0.000000000000000e+00
6.916417779801631e-01 3.013976227082047e-01 0.000000000000000e+00
6.971270490726926e-01 3.059446940849854e-01 0.000000000000000e+00
7.022206242399354e-01 3.104420685855070e-01 0.000000000000000e+00
7.072738415849396e-01 3.151655987195833e-01 0.000000000000000e+00
7.123926025757348e-01 3.201485030926770e-01 0.000000000000000e+00
7.171556962611257e-01 3.250589337645783e-01 0.000000000000000e+00
7.217689680870117e-01 3.300809114108299e-01 0.000000000000000e+00
7.264675253097899e-01 3.354059409942856e-01 0.000000000000000e+00
7.308816192577534e-01 3.407380061158421e-01 0.000000000000000e+00
7.350479549577947e-01 3.460600520039249e-01 0.000000000000000e+00
7.393433039339644e-01 3.517737734569791e-01 0.000000000000000e+00
7.432890946174333e-01 3.574063773720552e-01 0.000000000000000e+00
7.470816791380982e-01 3.630597536321853e-01 0.000000000000000e+00
7.509088738760160e-01 3.691181408708730e-01 0.000000000000000e+00
7.541712211387851e-01 3.747512859923174e-01 0.000000000000000e+00
7.576594045241153e-01 3.809759196188023e-01 0.000000000000000e+00
7.609164453705202e-01 3.871590327345025e-01 0.000000000000000e+00
7.638174386417855e-01 3.931247777418744e-01 0.000000000000000e+00
7.669856777617619e-01 3.998827136460095e-01 0.000000000000000e+00
7.691336776795012e-01 4.055651288590484e-01 0.000000000000000e+00
7.719304153937432e-01 4.123314781389574e-01 0.000000000000000e+00
7.741886778209918e-01 4.186947242743497e-01 0.000000000000000e+00
7.762655251764051e-01 4.251845120894553e-01 0.000000000000000e+00
7.785266125690320e-01 4.321565990414664e-01 0.000000000000000e+00
7.798821461667338e-01 4.382181162390720e-01 0.000000000000000e+00
7.818809598326800e-01 4.455442189400176e-01 0.000000000000000e+00
7.829067165556600e-01 4.516283927781368e-01 0.000000000000000e+00
7.843521795860897e-01 4.588179293264560e-01 0.000000000000000e+00
7.852495112520936e-01 4.653640655141095e-01 0.000000000000000e+00
7.861721755323400e-01 4.723796314690841e-01 0.000000000000000e+00
7.867925674424805e-01 4.791816724174223e-01 0.000000000000000e+00
7.872934120288448e-01 4.861315364477399e-01 0.000000000000000e+00
7.875877029199330e-01 4.930894908895065e-01 0.000000000000000e+00

POINT_DATA   249
SCALARS fTan double
LOOKUP_TABLE default

5.154216e-08 
5.301641e+00 
3.712214e-01 
1.376185e+01 
2.457481e+01 
4.686106e+01 
7.263825e+01 
1.163464e+02 
1.425534e+02 
1.382972e+02 
1.119506e+02 
5.155580e+01 
6.191576e+00 
5.696049e+01 
1.246772e+02 
1.389851e+02 
8.300658e+01 
3.548622e+01 
1.468538e+01 
6.257025e+01 
6.564401e+01 
3.583768e+01 
6.951798e+00 
2.710284e+01 
3.892465e+01 
1.631601e+01 
1.794790e+01 
2.822429e+01 
2.169249e+00 
3.025858e+01 
2.264162e+01 
1.222560e+01 
3.299698e+01 
1.196067e+01 
1.925254e+01 
1.939329e+01 
7.782746e+00 
2.220050e+01 
2.164338e+01 
2.027803e+00 
4.473914e+01 
6.262538e+01 
3.000999e+01 
1.656108e+01 
6.294244e+01 
1.147731e+02 
1.279321e+02 
1.009376e+02 
4.642400e+01 
4.267002e+01 
9.304670e+01 
1.059470e+02 
1.457051e+02 
1.450806e+02 
8.401500e+01 
3.817494e+01 
3.149915e+00 
1.756152e+01 
2.285040e+01 
3.162594e+01 
2.884988e+01 
1.932509e+01 
1.619059e+01 
1.519415e+01 
1.626044e+01 
2.720025e+01 
3.825788e+01 
4.916247e+01 
5.851636e+01 
6.162752e+01 
5.302212e+01 
1.188698e+01 
5.825060e+01 
8.992050e+01 
1.095466e+02 
1.345933e+02 
1.353814e+02 
9.184337e+01 
1.726460e+01 
4.281153e+01 
7.071442e+01 
8.533224e+01 
7.750100e+01 
2.539679e+01 
4.013724e+01 
5.534307e+01 
2.614852e+01 
3.170482e+00 
1.687565e+01 
1.193339e+01 
1.459885e+01 
2.697456e+01 
6.021193e+00 
3.153501e+01 
3.417241e+01 
5.235780e-01 
2.934944e+01 
1.804415e+01 
1.402930e+01 
3.259256e+01 
1.326224e+01 
1.893573e+01 
3.856858e+01 
4.370886e+01 
2.003755e+01 
2.882862e+01 
6.736520e+01 
9.513320e+01 
8.658234e+01 
3.267619e+01 
3.428880e+01 
9.813434e+01 
1.573783e+02 
1.593568e+02 
1.231617e+02 
7.557814e+01 
1.808758e+01 
2.332263e+01 
6.497134e+01 
8.184956e+01 
7.150495e+01 
5.733334e+01 
4.045390e+01 
2.039263e+01 
1.368090e+01 
1.368090e+01 
2.039263e+01 
4.045390e+01 
5.733334e+01 
7.150495e+01 
8.184956e+01 
6.497134e+01 
2.332263e+01 
1.808758e+01 
7.557814e+01 
1.231617e+02 
1.593568e+02 
1.573783e+02 
9.813434e+01 
3.428880e+01 
3.267619e+01 
8.658234e+01 
9.513320e+01 
6.736520e+01 
2.882862e+01 
2.003755e+01 
4.370886e+01 
3.856858e+01 
1.893573e+01 
1.326224e+01 
3.259256e+01 
1.402930e+01 
1.804415e+01 
2.934944e+01 
5.235780e-01 
3.417241e+01 
3.153501e+01 
6.021193e+00 
2.697456e+01 
1.459885e+01 
1.193339e+01 
1.687565e+01 
3.170482e+00 
2.614852e+01 
5.534307e+01 
4.013724e+01 
2.539679e+01 
7.750100e+01 
8.533224e+01 
7.071442e+01 
4.281153e+01 
1.726460e+01 
9.184337e+01 
1.353814e+02 
1.345933e+02 
1.095466e+02 
8.992050e+01 
5.825060e+01 
1.188698e+01 
5.302212e+01 
6.162752e+01 
5.851636e+01 
4.916247e+01 
3.825788e+01 
2.720025e+01 
1.626044e+01 
1.519415e+01 
1.619059e+01 
1.932509e+01 
2.884988e+01 
3.162594e+01 
2.285040e+01 
1.756152e+01 
3.149915e+00 
3.817494e+01 
8.401500e+01 
1.450806e+02 
1.457051e+02 
1.059470e+02 
9.304670e+01 
4.267002e+01 
4.642400e+01 
1.009376e+02 
1.279321e+02 
1.147731e+02 
6.294244e+01 
1.656108e+01 
3.000999e+01 
6.262538e+01 
4.473914e+01 
2.027803e+00 
2.164338e+01 
2.220050e+01 
7.782746e+00 
1.939329e+01 
1.925254e+01 
1.196067e+01 
3.299698e+01 
1.222560e+01 
2.264162e+01 
3.025858e+01 
2.169249e+00 
2.822429e+01 
1.794790e+01 
1.631601e+01 
3.892465e+01 
2.710284e+01 
6.951798e+00 
3.583768e+01 
6.564401e+01 
6.257025e+01 
1.468538e+01 
3.548622e+01 
8.300658e+01 
1.389851e+02 
1.246772e+02 
5.696049e+01 
6.191576e+00 
5.155580e+01 
1.119506e+02 
1.382972e+02 
1.425534e+02 
1.163464e+02 
7.263825e+01 
4.686106e+01 
2.457481e+01 
1.376185e+01 
3.712214e-01 
5.301641e+00 
