# vtk DataFile Version 2.0
fTan
ASCII
DATASET UNSTRUCTURED_GRID

FIELD FieldData 1
TIME 1 1 double
1.13000000
POINTS 249 float
7.654901321822323e-01 5.000000000000087e-01 0.000000000000000e+00
7.654181251398262e-01 5.070124348688642e-01 0.000000000000000e+00
7.651856418058848e-01 5.140578705018243e-01 0.000000000000000e+00
7.647822293773819e-01 5.210919635086358e-01 0.000000000000000e+00
7.642663484383633e-01 5.279983027872437e-01 0.000000000000000e+00
7.634820129957292e-01 5.351486186175339e-01 0.000000000000000e+00
7.627619033268005e-01 5.417985217251522e-01 0.000000000000000e+00
7.615677267332408e-01 5.491256919998312e-01 0.000000000000000e+00
7.607934076518665e-01 5.552689005448530e-01 0.000000000000000e+00
7.590902143377977e-01 5.627783929094187e-01 0.000000000000000e+00
7.580273391761700e-01 5.689635875266659e-01 0.000000000000000e+00
7.561207361667701e-01 5.761543639371229e-01 0.000000000000000e+00
7.543951703453022e-01 5.828683016649923e-01 0.000000000000000e+00
7.525638691191664e-01 5.894078783442488e-01 0.000000000000000e+00
7.501669725016145e-01 5.965014248651094e-01 0.000000000000000e+00
7.484834817712770e-01 6.022421556967079e-01 0.000000000000000e+00
7.457744968175269e-01 6.093623110787615e-01 0.000000000000000e+00
7.433746781301676e-01 6.155606298688808e-01 0.000000000000000e+00
7.406412265072306e-01 6.220533576136357e-01 0.000000000000000e+00
7.376574350678804e-01 6.286629265752299e-01 0.000000000000000e+00
7.349589840622308e-01 6.345281301767420e-01 0.000000000000000e+00
7.316332789000622e-01 6.410618119898122e-01 0.000000000000000e+00
7.284001573910790e-01 6.470753939907685e-01 0.000000000000000e+00
7.250270122724209e-01 6.530910436046723e-01 0.000000000000000e+00
7.213081358650260e-01 6.592752501057756e-01 0.000000000000000e+00
7.177517684366828e-01 6.649697868451732e-01 0.000000000000000e+00
7.138816872050359e-01 6.708014893289970e-01 0.000000000000000e+00
7.097856292034920e-01 6.766085667194321e-01 0.000000000000000e+00
7.057545730167833e-01 6.821011329361634e-01 0.000000000000000e+00
7.015052444037807e-01 6.875779182630091e-01 0.000000000000000e+00
6.970053019629138e-01 6.930519741234845e-01 0.000000000000000e+00
6.925284936824552e-01 6.982756977783043e-01 0.000000000000000e+00
6.879269901155149e-01 7.033682731692358e-01 0.000000000000000e+00
6.830555854966992e-01 7.084458239170313e-01 0.000000000000000e+00
6.781657103988075e-01 7.133425114741145e-01 0.000000000000000e+00
6.731953292019677e-01 7.180697036700661e-01 0.000000000000000e+00
6.680202425318915e-01 7.227057726138643e-01 0.000000000000000e+00
6.626763418827685e-01 7.272624820705671e-01 0.000000000000000e+00
6.573809447980423e-01 7.315694604752030e-01 0.000000000000000e+00
6.518783762079038e-01 7.357979621148132e-01 0.000000000000000e+00
6.461652826628445e-01 7.399302561959441e-01 0.000000000000000e+00
6.407386469231768e-01 7.436411845897811e-01 0.000000000000000e+00
6.347239512361590e-01 7.475569803948013e-01 0.000000000000000e+00
6.288328392124785e-01 7.511700338144658e-01 0.000000000000000e+00
6.230213936656649e-01 7.545144473820857e-01 0.000000000000000e+00
6.165274192746218e-01 7.580310320693849e-01 0.000000000000000e+00
6.109435149933271e-01 7.606671506706497e-01 0.000000000000000e+00
6.043262040820740e-01 7.640149728452332e-01 0.000000000000000e+00
5.983112085131141e-01 7.664414787450502e-01 0.000000000000000e+00
5.918891799371505e-01 7.690302231595684e-01 0.000000000000000e+00
5.850753181936196e-01 7.717233723723275e-01 0.000000000000000e+00
5.789900845023834e-01 7.736627133888754e-01 0.000000000000000e+00
5.718897561225994e-01 7.760130289147987e-01 0.000000000000000e+00
5.660339335185844e-01 7.773600883988547e-01 0.000000000000000e+00
5.588825850919156e-01 7.793192657501453e-01 0.000000000000000e+00
5.524103815798328e-01 7.806814373330567e-01 0.000000000000000e+00
5.455274404050806e-01 7.819925911073681e-01 0.000000000000000e+00
5.385844210772937e-01 7.831413417205546e-01 0.000000000000000e+00
5.318025004615821e-01 7.840425041997586e-01 0.000000000000000e+00
5.247688884961590e-01 7.848131892267547e-01 0.000000000000000e+00
5.180185007035019e-01 7.852953546269434e-01 0.000000000000000e+00
5.109638296145577e-01 7.856565759770362e-01 0.000000000000000e+00
5.041091410556953e-01 7.857930542211035e-01 0.000000000000000e+00
4.971046748924168e-01 7.857539683351649e-01 0.000000000000000e+00
4.902450749581407e-01 7.855210465048693e-01 0.000000000000000e+00
4.832157865143796e-01 7.850491690141893e-01 0.000000000000000e+00
4.764742610092761e-01 7.844637530145133e-01 0.000000000000000e+00
4.693893951329542e-01 7.835710873030785e-01 0.000000000000000e+00
4.628042570833947e-01 7.826561977516018e-01 0.000000000000000e+00
4.556739157627999e-01 7.813462157956997e-01 0.000000000000000e+00
4.491474480071300e-01 7.800839597055264e-01 0.000000000000000e+00
4.422234126030321e-01 7.783697471070827e-01 0.000000000000000e+00
4.354960363953199e-01 7.764888999536367e-01 0.000000000000000e+00
4.292245132303220e-01 7.748860371297498e-01 0.000000000000000e+00
4.222694596599533e-01 7.724921312314159e-01 0.000000000000000e+00
4.162313528435001e-01 7.705873837751631e-01 0.000000000000000e+00
4.093109817696981e-01 7.675482292465489e-01 0.000000000000000e+00
4.032610026417510e-01 7.653081301503472e-01 0.000000000000000e+00
3.967745340860826e-01 7.623193392353633e-01 0.000000000000000e+00
3.905751218437141e-01 7.591517569921579e-01 0.000000000000000e+00
3.846870059421921e-01 7.562462128736781e-01 0.000000000000000e+00
3.783003167962715e-01 7.526810106066394e-01 0.000000000000000e+00
3.727315362747459e-01 7.494187611159905e-01 0.000000000000000e+00
3.666450242423287e-01 7.455307048052630e-01 0.000000000000000e+00
3.608109396458510e-01 7.416396037448628e-01 0.000000000000000e+00
3.554122205758622e-01 7.378654655488475e-01 0.000000000000000e+00
3.496714223031414e-01 7.335787367375255e-01 0.000000000000000e+00
3.443298992218399e-01 7.293399736749584e-01 0.000000000000000e+00
3.390791343883496e-01 7.249446882388405e-01 0.000000000000000e+00
3.337742302031124e-01 7.203323750935698e-01 0.000000000000000e+00
3.287038109065581e-01 7.156498287095091e-01 0.000000000000000e+00
3.238229603321356e-01 7.108429266451894e-01 0.000000000000000e+00
3.188870806644773e-01 7.058093480600649e-01 0.000000000000000e+00
3.141186798198064e-01 7.006800687260221e-01 0.000000000000000e+00
3.096608950409150e-01 6.955777387727543e-01 0.000000000000000e+00
3.051545522025338e-01 6.902143326357002e-01 0.000000000000000e+00
3.007806942142992e-01 6.847078984944712e-01 0.000000000000000e+00
2.966639276768914e-01 6.792485296478145e-01 0.000000000000000e+00
2.926151657402653e-01 6.736124770155313e-01 0.000000000000000e+00
2.885750660943155e-01 6.677039706230546e-01 0.000000000000000e+00
2.849086281032955e-01 6.619888388541805e-01 0.000000000000000e+00
2.812802798589257e-01 6.560995927234277e-01 0.000000000000000e+00
2.776528229672934e-01 6.498906812443708e-01 0.000000000000000e+00
2.745372365140807e-01 6.440649945744659e-01 0.000000000000000e+00
2.711789701342010e-01 6.376578128346566e-01 0.000000000000000e+00
2.680632675367377e-01 6.313720339400641e-01 0.000000000000000e+00
2.653183617710390e-01 6.253280892557113e-01 0.000000000000000e+00
2.623438300115943e-01 6.184818585289643e-01 0.000000000000000e+00
2.600857145127318e-01 6.126184890599760e-01 0.000000000000000e+00
2.573565791074774e-01 6.057800537320276e-01 0.000000000000000e+00
2.550923960321627e-01 5.992161969674117e-01 0.000000000000000e+00
2.531126868192048e-01 5.928434794123557e-01 0.000000000000000e+00
2.506923532383636e-01 5.855857622428247e-01 0.000000000000000e+00
2.494684783874468e-01 5.798129369901586e-01 0.000000000000000e+00
2.473619772151202e-01 5.724167957770462e-01 0.000000000000000e+00
2.461304866029531e-01 5.661858422302903e-01 0.000000000000000e+00
2.446324328636673e-01 5.591138071016715e-01 0.000000000000000e+00
2.434111485009465e-01 5.521937378232774e-01 0.000000000000000e+00
2.423721964856126e-01 5.455003432563480e-01 0.000000000000000e+00
2.412682867301637e-01 5.381420127983176e-01 0.000000000000000e+00
2.406360591867481e-01 5.316293568907935e-01 0.000000000000000e+00
2.399418953207234e-01 5.243429348144665e-01 0.000000000000000e+00
2.395496167255466e-01 5.176279757115051e-01 0.000000000000000e+00
2.391858082050176e-01 5.104640994010429e-01 0.000000000000000e+00
2.390394381264541e-01 5.035320395318748e-01 0.000000000000000e+00
2.390394381264534e-01 4.964679604690255e-01 0.000000000000000e+00
2.391858082050119e-01 4.895359005998436e-01 0.000000000000000e+00
2.395496167255264e-01 4.823720242893932e-01 0.000000000000000e+00
2.399418953206972e-01 4.756570651864347e-01 0.000000000000000e+00
2.406360591867116e-01 4.683706431100996e-01 0.000000000000000e+00
2.412682867301379e-01 4.618579872025522e-01 0.000000000000000e+00
2.423721964855736e-01 4.544996567445285e-01 0.000000000000000e+00
2.434111485009142e-01 4.478062621775806e-01 0.000000000000000e+00
2.446324328636020e-01 4.408861928992255e-01 0.000000000000000e+00
2.461304866028861e-01 4.338141577705943e-01 0.000000000000000e+00
2.473619772150209e-01 4.275832042238862e-01 0.000000000000000e+00
2.494684783873774e-01 4.201870630107369e-01 0.000000000000000e+00
2.506923532383081e-01 4.144142377580200e-01 0.000000000000000e+00
2.531126868191078e-01 4.071565205885337e-01 0.000000000000000e+00
2.550923960321141e-01 4.007838030334003e-01 0.000000000000000e+00
2.573565791073910e-01 3.942199462688425e-01 0.000000000000000e+00
2.600857145126563e-01 3.873815109408673e-01 0.000000000000000e+00
2.623438300115093e-01 3.815181414719045e-01 0.000000000000000e+00
2.653183617709373e-01 3.746719107451535e-01 0.000000000000000e+00
2.680632675366583e-01 3.686279660607529e-01 0.000000000000000e+00
2.711789701340948e-01 3.623421871662016e-01 0.000000000000000e+00
2.745372365139919e-01 3.559350054263615e-01 0.000000000000000e+00
2.776528229672008e-01 3.501093187564645e-01 0.000000000000000e+00
2.812802798588090e-01 3.439004072774250e-01 0.000000000000000e+00
2.849086281031982e-01 3.380111611466318e-01 0.000000000000000e+00
2.885750660941928e-01 3.322960293777881e-01 0.000000000000000e+00
2.926151657401450e-01 3.263875229853037e-01 0.000000000000000e+00
2.966639276767915e-01 3.207514703529967e-01 0.000000000000000e+00
3.007806942141742e-01 3.152921015063624e-01 0.000000000000000e+00
3.051545522024019e-01 3.097856673651211e-01 0.000000000000000e+00
3.096608950407922e-01 3.044222612280651e-01 0.000000000000000e+00
3.141186798196766e-01 2.993199312747972e-01 0.000000000000000e+00
3.188870806643372e-01 2.941906519407489e-01 0.000000000000000e+00
3.238229603320024e-01 2.891570733556192e-01 0.000000000000000e+00
3.287038109064240e-01 2.843501712912997e-01 0.000000000000000e+00
3.337742302029673e-01 2.796676249072268e-01 0.000000000000000e+00
3.390791343882013e-01 2.750553117619572e-01 0.000000000000000e+00
3.443298992216881e-01 2.706600263258389e-01 0.000000000000000e+00
3.496714223029856e-01 2.664212632632676e-01 0.000000000000000e+00
3.554122205757004e-01 2.621345344519342e-01 0.000000000000000e+00
3.608109396457007e-01 2.583603962559165e-01 0.000000000000000e+00
3.666450242421577e-01 2.544692951955068e-01 0.000000000000000e+00
3.727315362745937e-01 2.505812388847710e-01 0.000000000000000e+00
3.783003167961063e-01 2.473189893941277e-01 0.000000000000000e+00
3.846870059420206e-01 2.437537871270676e-01 0.000000000000000e+00
3.905751218435570e-01 2.408482430085829e-01 0.000000000000000e+00
3.967745340859099e-01 2.376806607653710e-01 0.000000000000000e+00
4.032610026415877e-01 2.346918698503770e-01 0.000000000000000e+00
4.093109817695081e-01 2.324517707541897e-01 0.000000000000000e+00
4.162313528433174e-01 2.294126162255571e-01 0.000000000000000e+00
4.222694596597864e-01 2.275078687692729e-01 0.000000000000000e+00
4.292245132301366e-01 2.251139628709607e-01 0.000000000000000e+00
4.354960363951351e-01 2.235111000470586e-01 0.000000000000000e+00
4.422234126028524e-01 2.216302528935955e-01 0.000000000000000e+00
4.491474480069301e-01 2.199160402951689e-01 0.000000000000000e+00
4.556739157626052e-01 2.186537842049626e-01 0.000000000000000e+00
4.628042570832112e-01 2.173438022490580e-01 0.000000000000000e+00
4.693893951327421e-01 2.164289126975819e-01 0.000000000000000e+00
4.764742610090837e-01 2.155362469861303e-01 0.000000000000000e+00
4.832157865141696e-01 2.149508309864597e-01 0.000000000000000e+00
4.902450749579387e-01 2.144789534957652e-01 0.000000000000000e+00
4.971046748922087e-01 2.142460316654654e-01 0.000000000000000e+00
5.041091410554897e-01 2.142069457795146e-01 0.000000000000000e+00
5.109638296143583e-01 2.143434240235838e-01 0.000000000000000e+00
5.180185007032985e-01 2.147046453736705e-01 0.000000000000000e+00
5.247688884959704e-01 2.151868107738471e-01 0.000000000000000e+00
5.318025004613784e-01 2.159574958008390e-01 0.000000000000000e+00
5.385844210771139e-01 2.168586582800369e-01 0.000000000000000e+00
5.455274404048853e-01 2.180074088932136e-01 0.000000000000000e+00
5.524103815796392e-01 2.193185626675247e-01 0.000000000000000e+00
5.588825850917363e-01 2.206807342504278e-01 0.000000000000000e+00
5.660339335183863e-01 2.226399116017107e-01 0.000000000000000e+00
5.718897561224270e-01 2.239869710857699e-01 0.000000000000000e+00
5.789900845022170e-01 2.263372866116915e-01 0.000000000000000e+00
5.850753181934527e-01 2.282766276282034e-01 0.000000000000000e+00
5.918891799369846e-01 2.309697768409938e-01 0.000000000000000e+00
5.983112085129543e-01 2.335585212554978e-01 0.000000000000000e+00
6.043262040819228e-01 2.359850271553058e-01 0.000000000000000e+00
6.109435149931619e-01 2.393328493298895e-01 0.000000000000000e+00
6.165274192744786e-01 2.419689679311517e-01 0.000000000000000e+00
6.230213936655201e-01 2.454855526184490e-01 0.000000000000000e+00
6.288328392123497e-01 2.488299661860756e-01 0.000000000000000e+00
6.347239512360183e-01 2.524430196057230e-01 0.000000000000000e+00
6.407386469230483e-01 2.563588154107473e-01 0.000000000000000e+00
6.461652826627148e-01 2.600697438045781e-01 0.000000000000000e+00
6.518783762077776e-01 2.642020378857058e-01 0.000000000000000e+00
6.573809447979247e-01 2.684305395253155e-01 0.000000000000000e+00
6.626763418826463e-01 2.727375179299514e-01 0.000000000000000e+00
6.680202425317788e-01 2.772942273866478e-01 0.000000000000000e+00
6.731953292018542e-01 2.819302963304418e-01 0.000000000000000e+00
6.781657103986974e-01 2.866574885263991e-01 0.000000000000000e+00
6.830555854965912e-01 2.915541760834724e-01 0.000000000000000e+00
6.879269901154124e-01 2.966317268312738e-01 0.000000000000000e+00
6.925284936823392e-01 3.017243022221927e-01 0.000000000000000e+00
6.970053019628181e-01 3.069480258770175e-01 0.000000000000000e+00
7.015052444036777e-01 3.124220817374950e-01 0.000000000000000e+00
7.057545730166922e-01 3.178988670643360e-01 0.000000000000000e+00
7.097856292033928e-01 3.233914332810625e-01 0.000000000000000e+00
7.138816872049438e-01 3.291985106715032e-01 0.000000000000000e+00
7.177517684365878e-01 3.350302131553176e-01 0.000000000000000e+00
7.213081358649293e-01 3.407247498947074e-01 0.000000000000000e+00
7.250270122723474e-01 3.469089563958303e-01 0.000000000000000e+00
7.284001573909806e-01 3.529246060097002e-01 0.000000000000000e+00
7.316332788999861e-01 3.589381880106832e-01 0.000000000000000e+00
7.349589840621495e-01 3.654718698237497e-01 0.000000000000000e+00
7.376574350677940e-01 3.713370734252436e-01 0.000000000000000e+00
7.406412265071616e-01 3.779466423868481e-01 0.000000000000000e+00
7.433746781300813e-01 3.844393701315795e-01 0.000000000000000e+00
7.457744968174649e-01 3.906376889217315e-01 0.000000000000000e+00
7.484834817712066e-01 3.977578443037781e-01 0.000000000000000e+00
7.501669725015632e-01 4.034985751353863e-01 0.000000000000000e+00
7.525638691191303e-01 4.105921216562575e-01 0.000000000000000e+00
7.543951703452425e-01 4.171316983354877e-01 0.000000000000000e+00
7.561207361667172e-01 4.238456360633545e-01 0.000000000000000e+00
7.580273391761111e-01 4.310364124737904e-01 0.000000000000000e+00
7.590902143377688e-01 4.372216070910906e-01 0.000000000000000e+00
7.607934076518444e-01 4.447310994556547e-01 0.000000000000000e+00
7.615677267332227e-01 4.508743080006914e-01 0.000000000000000e+00
7.627619033267916e-01 4.582014782753794e-01 0.000000000000000e+00
7.634820129957111e-01 4.648513813829638e-01 0.000000000000000e+00
7.642663484383515e-01 4.720016972132135e-01 0.000000000000000e+00
7.647822293773654e-01 4.789080364918631e-01 0.000000000000000e+00
7.651856418058856e-01 4.859421294988001e-01 0.000000000000000e+00
7.654181251398281e-01 4.929875651318759e-01 0.000000000000000e+00

POINT_DATA   249
SCALARS fTan double
LOOKUP_TABLE default

7.227187e-08 
3.647288e+00 
3.618478e-01 
1.200835e+01 
2.676610e+01 
5.044323e+01 
7.353351e+01 
1.232239e+02 
1.510195e+02 
1.424874e+02 
1.164547e+02 
5.071248e+01 
1.409815e+01 
6.966505e+01 
1.505373e+02 
1.636812e+02 
9.713854e+01 
3.980100e+01 
2.072108e+01 
7.956716e+01 
8.753415e+01 
5.037912e+01 
6.921138e+00 
3.195102e+01 
5.024722e+01 
2.852026e+01 
1.073384e+01 
2.933114e+01 
1.189428e+01 
1.542882e+01 
2.066661e+01 
1.603255e+00 
1.729730e+01 
1.164000e+01 
6.074739e+00 
8.865954e+00 
7.483871e+00 
1.970901e+01 
1.138872e+01 
1.112568e+01 
4.768007e+01 
6.029141e+01 
2.662401e+01 
2.057445e+01 
6.799644e+01 
1.210549e+02 
1.241163e+02 
9.308151e+01 
4.381942e+01 
4.026296e+01 
9.405145e+01 
1.092396e+02 
1.472012e+02 
1.406367e+02 
8.012173e+01 
3.927369e+01 
3.070538e+00 
1.958997e+01 
2.341799e+01 
3.081707e+01 
2.963393e+01 
2.078865e+01 
1.485411e+01 
1.410389e+01 
1.815722e+01 
2.782229e+01 
3.740484e+01 
4.924908e+01 
6.014206e+01 
6.022707e+01 
4.858207e+01 
1.477383e+01 
5.122568e+01 
8.831109e+01 
1.024161e+02 
1.228679e+02 
1.107436e+02 
6.910746e+01 
1.802012e+01 
3.957579e+01 
7.486475e+01 
8.604896e+01 
7.685481e+01 
2.097616e+01 
4.255042e+01 
5.776346e+01 
3.457299e+01 
2.854750e+00 
1.820417e+01 
1.277443e+01 
5.138288e+00 
1.993100e+01 
4.640486e+00 
2.280382e+01 
2.298563e+01 
2.698448e+00 
1.946412e+01 
1.020017e+01 
2.181685e+01 
3.676671e+01 
1.271660e+01 
2.736799e+01 
5.845079e+01 
6.274592e+01 
2.183899e+01 
3.775630e+01 
8.264586e+01 
1.181568e+02 
1.079741e+02 
4.196422e+01 
2.703056e+01 
9.775888e+01 
1.752265e+02 
1.790179e+02 
1.339929e+02 
8.774921e+01 
2.019746e+01 
2.534712e+01 
6.671336e+01 
8.977062e+01 
7.761418e+01 
5.931051e+01 
4.467025e+01 
2.395278e+01 
1.304821e+01 
1.304821e+01 
2.395278e+01 
4.467025e+01 
5.931051e+01 
7.761418e+01 
8.977062e+01 
6.671336e+01 
2.534712e+01 
2.019746e+01 
8.774921e+01 
1.339929e+02 
1.790179e+02 
1.752265e+02 
9.775888e+01 
2.703056e+01 
4.196422e+01 
1.079741e+02 
1.181568e+02 
8.264586e+01 
3.775630e+01 
2.183899e+01 
6.274592e+01 
5.845079e+01 
2.736799e+01 
1.271660e+01 
3.676671e+01 
2.181685e+01 
1.020017e+01 
1.946412e+01 
2.698448e+00 
2.298563e+01 
2.280382e+01 
4.640486e+00 
1.993100e+01 
5.138288e+00 
1.277443e+01 
1.820417e+01 
2.854750e+00 
3.457299e+01 
5.776346e+01 
4.255042e+01 
2.097616e+01 
7.685481e+01 
8.604896e+01 
7.486475e+01 
3.957579e+01 
1.802012e+01 
6.910746e+01 
1.107436e+02 
1.228679e+02 
1.024161e+02 
8.831109e+01 
5.122568e+01 
1.477383e+01 
4.858207e+01 
6.022707e+01 
6.014206e+01 
4.924908e+01 
3.740484e+01 
2.782229e+01 
1.815722e+01 
1.410389e+01 
1.485411e+01 
2.078865e+01 
2.963393e+01 
3.081707e+01 
2.341799e+01 
1.958997e+01 
3.070538e+00 
3.927369e+01 
8.012173e+01 
1.406367e+02 
1.472012e+02 
1.092396e+02 
9.405145e+01 
4.026296e+01 
4.381942e+01 
9.308151e+01 
1.241163e+02 
1.210549e+02 
6.799644e+01 
2.057445e+01 
2.662401e+01 
6.029141e+01 
4.768007e+01 
1.112568e+01 
1.138872e+01 
1.970901e+01 
7.483871e+00 
8.865954e+00 
6.074739e+00 
1.164000e+01 
1.729730e+01 
1.603255e+00 
2.066661e+01 
1.542882e+01 
1.189428e+01 
2.933114e+01 
1.073384e+01 
2.852026e+01 
5.024722e+01 
3.195102e+01 
6.921138e+00 
5.037912e+01 
8.753415e+01 
7.956716e+01 
2.072108e+01 
3.980100e+01 
9.713854e+01 
1.636812e+02 
1.505373e+02 
6.966505e+01 
1.409815e+01 
5.071248e+01 
1.164547e+02 
1.424874e+02 
1.510195e+02 
1.232239e+02 
7.353351e+01 
5.044323e+01 
2.676610e+01 
1.200835e+01 
3.618478e-01 
3.647288e+00 
