# vtk DataFile Version 2.0
fX_Lag
ASCII
DATASET UNSTRUCTURED_GRID

FIELD FieldData 1
TIME 1 1 double
0.38000000
POINTS 249 float
7.934355744686921e-01 5.000000000000000e-01 0.000000000000000e+00
7.933375568969322e-01 5.072791171906580e-01 0.000000000000000e+00
7.930353043773526e-01 5.145509650402834e-01 0.000000000000000e+00
7.925244982371122e-01 5.218148375695500e-01 0.000000000000000e+00
7.918633463034597e-01 5.290041269925307e-01 0.000000000000000e+00
7.909157830461681e-01 5.362891143400353e-01 0.000000000000000e+00
7.899156369070801e-01 5.433740268470221e-01 0.000000000000000e+00
7.885491620144198e-01 5.506205003441023e-01 0.000000000000000e+00
7.872249705984615e-01 5.575434272073957e-01 0.000000000000000e+00
7.854438922508560e-01 5.647564304911199e-01 0.000000000000000e+00
7.837224866195599e-01 5.715705275904235e-01 0.000000000000000e+00
7.815559371058840e-01 5.785661224420907e-01 0.000000000000000e+00
7.793579181450316e-01 5.853838859672956e-01 0.000000000000000e+00
7.769316649187546e-01 5.921592448059961e-01 0.000000000000000e+00
7.742809227968335e-01 5.988931833158155e-01 0.000000000000000e+00
7.715949257090208e-01 6.053607224607174e-01 0.000000000000000e+00
7.685628629204903e-01 6.119515342385321e-01 0.000000000000000e+00
7.654718213039403e-01 6.183533061353403e-01 0.000000000000000e+00
7.621627158891127e-01 6.246199968451296e-01 0.000000000000000e+00
7.586678515818296e-01 6.308420628823951e-01 0.000000000000000e+00
7.550633401493924e-01 6.369543386413180e-01 0.000000000000000e+00
7.512345987717159e-01 6.429300324418308e-01 0.000000000000000e+00
7.472853573417596e-01 6.487602729803240e-01 0.000000000000000e+00
7.431722628946246e-01 6.545496621410358e-01 0.000000000000000e+00
7.388792107023294e-01 6.601574752264250e-01 0.000000000000000e+00
7.344782502042702e-01 6.656373315390244e-01 0.000000000000000e+00
7.298984603867547e-01 6.710156491677276e-01 0.000000000000000e+00
7.251761210644463e-01 6.762596886011043e-01 0.000000000000000e+00
7.203359767126253e-01 6.813620738791080e-01 0.000000000000000e+00
7.153493482028697e-01 6.863243810162906e-01 0.000000000000000e+00
7.101873189709829e-01 6.911790744251314e-01 0.000000000000000e+00
7.049814473014804e-01 6.958247138018611e-01 0.000000000000000e+00
6.996246010086119e-01 7.004068924864063e-01 0.000000000000000e+00
6.941155689040603e-01 7.047588746108123e-01 0.000000000000000e+00
6.885181697502111e-01 7.090007671062177e-01 0.000000000000000e+00
6.827660369243812e-01 7.131631569397082e-01 0.000000000000000e+00
6.769595048633952e-01 7.170595862528636e-01 0.000000000000000e+00
6.710376933282454e-01 7.208762630677437e-01 0.000000000000000e+00
6.650158239830047e-01 7.245291488764765e-01 0.000000000000000e+00
6.588389226578725e-01 7.280415771358447e-01 0.000000000000000e+00
6.526458861486405e-01 7.313876542617743e-01 0.000000000000000e+00
6.463843582599377e-01 7.345734291626979e-01 0.000000000000000e+00
6.398366888229610e-01 7.377144496627595e-01 0.000000000000000e+00
6.334890964019441e-01 7.405252104415944e-01 0.000000000000000e+00
6.270344357905345e-01 7.432574095961457e-01 0.000000000000000e+00
6.202515449784822e-01 7.459729794358211e-01 0.000000000000000e+00
6.138334636967474e-01 7.482703852724539e-01 0.000000000000000e+00
6.069026438664219e-01 7.507176950742042e-01 0.000000000000000e+00
6.002653529528689e-01 7.527267509729433e-01 0.000000000000000e+00
5.934620316226527e-01 7.547072715820329e-01 0.000000000000000e+00
5.865064827187138e-01 7.565976944171730e-01 0.000000000000000e+00
5.796356476374830e-01 7.583049095081037e-01 0.000000000000000e+00
5.725245346847221e-01 7.599426733408557e-01 0.000000000000000e+00
5.658207119066719e-01 7.612096805153918e-01 0.000000000000000e+00
5.586355699724156e-01 7.625596711902054e-01 0.000000000000000e+00
5.517096950144159e-01 7.636133360256163e-01 0.000000000000000e+00
5.445927687256112e-01 7.645997877196532e-01 0.000000000000000e+00
5.374556082693135e-01 7.654482124715014e-01 0.000000000000000e+00
5.303860681810713e-01 7.660924757561570e-01 0.000000000000000e+00
5.232608826709434e-01 7.666247220729167e-01 0.000000000000000e+00
5.161681224720895e-01 7.669751944661110e-01 0.000000000000000e+00
5.089557956800996e-01 7.672427544912825e-01 0.000000000000000e+00
5.018777189005702e-01 7.673407310814176e-01 0.000000000000000e+00
4.947263957761169e-01 7.673177068610543e-01 0.000000000000000e+00
4.876233222501056e-01 7.671355557837060e-01 0.000000000000000e+00
4.804146935105038e-01 7.668057899846912e-01 0.000000000000000e+00
4.733584940777582e-01 7.663690046171572e-01 0.000000000000000e+00
4.662214484975434e-01 7.657800384340521e-01 0.000000000000000e+00
4.591852019816474e-01 7.650582390540571e-01 0.000000000000000e+00
4.519943993751349e-01 7.641201328384907e-01 0.000000000000000e+00
4.450382658170344e-01 7.631079634920878e-01 0.000000000000000e+00
4.379289716528639e-01 7.618991944669656e-01 0.000000000000000e+00
4.309074724759054e-01 7.605201850643014e-01 0.000000000000000e+00
4.241005712394648e-01 7.591599609814622e-01 0.000000000000000e+00
4.170042469253243e-01 7.574218401699543e-01 0.000000000000000e+00
4.102495783087480e-01 7.557239217481939e-01 0.000000000000000e+00
4.031964022588098e-01 7.536681328458773e-01 0.000000000000000e+00
3.967226315968356e-01 7.518241940980871e-01 0.000000000000000e+00
3.897863699774777e-01 7.495145955055521e-01 0.000000000000000e+00
3.831292769480838e-01 7.471284722556520e-01 0.000000000000000e+00
3.765348059044015e-01 7.446563340909124e-01 0.000000000000000e+00
3.698193569937966e-01 7.418519845524777e-01 0.000000000000000e+00
3.635649275158508e-01 7.391713905109751e-01 0.000000000000000e+00
3.570402353927531e-01 7.361605472113465e-01 0.000000000000000e+00
3.506328386909701e-01 7.329899595628292e-01 0.000000000000000e+00
3.444435633236528e-01 7.297456445202223e-01 0.000000000000000e+00
3.382272379042373e-01 7.263014783352862e-01 0.000000000000000e+00
3.321315174802799e-01 7.227232637812220e-01 0.000000000000000e+00
3.261476465104871e-01 7.189730888225488e-01 0.000000000000000e+00
3.203113133360901e-01 7.151390470979989e-01 0.000000000000000e+00
3.145119162125316e-01 7.111142798419823e-01 0.000000000000000e+00
3.088436079572563e-01 7.068891790662892e-01 0.000000000000000e+00
3.032872574826959e-01 7.026087929069254e-01 0.000000000000000e+00
2.978375418032262e-01 6.981357192964932e-01 0.000000000000000e+00
2.925763219307650e-01 6.935211863053734e-01 0.000000000000000e+00
2.873827016602465e-01 6.887782287174965e-01 0.000000000000000e+00
2.822950935723382e-01 6.838516956260183e-01 0.000000000000000e+00
2.773909019152966e-01 6.788323542502759e-01 0.000000000000000e+00
2.726173544495413e-01 6.736499945051012e-01 0.000000000000000e+00
2.679555831572621e-01 6.683474681084728e-01 0.000000000000000e+00
2.634699707743680e-01 6.629220747373383e-01 0.000000000000000e+00
2.591212754861436e-01 6.573930330414115e-01 0.000000000000000e+00
2.549032503801395e-01 6.516662058537153e-01 0.000000000000000e+00
2.508842052471754e-01 6.458655998447611e-01 0.000000000000000e+00
2.469758690063705e-01 6.399648008410715e-01 0.000000000000000e+00
2.432571552564257e-01 6.339152444582322e-01 0.000000000000000e+00
2.397362833583910e-01 6.277624968454234e-01 0.000000000000000e+00
2.363102259934026e-01 6.215084551495063e-01 0.000000000000000e+00
2.331314526936995e-01 6.151984703583667e-01 0.000000000000000e+00
2.300502914686019e-01 6.086627250282319e-01 0.000000000000000e+00
2.271605116766547e-01 6.021102921277338e-01 0.000000000000000e+00
2.245538934370569e-01 5.955680567275853e-01 0.000000000000000e+00
2.219331570022854e-01 5.887339959708852e-01 0.000000000000000e+00
2.197311230178536e-01 5.820480019746885e-01 0.000000000000000e+00
2.174847426386113e-01 5.750740049253464e-01 0.000000000000000e+00
2.155912100795444e-01 5.682291497242979e-01 0.000000000000000e+00
2.138076581106020e-01 5.611685998673145e-01 0.000000000000000e+00
2.122306139209784e-01 5.540702615562919e-01 0.000000000000000e+00
2.109175170492952e-01 5.470222004676960e-01 0.000000000000000e+00
2.096836363248613e-01 5.397922284938543e-01 0.000000000000000e+00
2.087550747569586e-01 5.326661777493230e-01 0.000000000000000e+00
2.079107598249917e-01 5.253697264288546e-01 0.000000000000000e+00
2.073528395061003e-01 5.182024095922728e-01 0.000000000000000e+00
2.069286979645330e-01 5.109024498710321e-01 0.000000000000000e+00
2.067419429841000e-01 5.036464858290300e-01 0.000000000000000e+00
2.067419429840989e-01 4.963535141709889e-01 0.000000000000000e+00
2.069286979645328e-01 4.890975501289787e-01 0.000000000000000e+00
2.073528395061008e-01 4.817975904077399e-01 0.000000000000000e+00
2.079107598249919e-01 4.746302735711629e-01 0.000000000000000e+00
2.087550747569585e-01 4.673338222506929e-01 0.000000000000000e+00
2.096836363248601e-01 4.602077715061588e-01 0.000000000000000e+00
2.109175170492958e-01 4.529777995323205e-01 0.000000000000000e+00
2.122306139209797e-01 4.459297384437211e-01 0.000000000000000e+00
2.138076581106005e-01 4.388314001327016e-01 0.000000000000000e+00
2.155912100795431e-01 4.317708502757202e-01 0.000000000000000e+00
2.174847426386099e-01 4.249259950746662e-01 0.000000000000000e+00
2.197311230178527e-01 4.179519980253266e-01 0.000000000000000e+00
2.219331570022840e-01 4.112660040291322e-01 0.000000000000000e+00
2.245538934370561e-01 4.044319432724257e-01 0.000000000000000e+00
2.271605116766501e-01 3.978897078722865e-01 0.000000000000000e+00
2.300502914685981e-01 3.913372749717843e-01 0.000000000000000e+00
2.331314526936968e-01 3.848015296416482e-01 0.000000000000000e+00
2.363102259934000e-01 3.784915448505096e-01 0.000000000000000e+00
2.397362833583873e-01 3.722375031545924e-01 0.000000000000000e+00
2.432571552564226e-01 3.660847555417861e-01 0.000000000000000e+00
2.469758690063705e-01 3.600351991589382e-01 0.000000000000000e+00
2.508842052471711e-01 3.541344001552557e-01 0.000000000000000e+00
2.549032503801348e-01 3.483337941463072e-01 0.000000000000000e+00
2.591212754861397e-01 3.426069669585965e-01 0.000000000000000e+00
2.634699707743653e-01 3.370779252626821e-01 0.000000000000000e+00
2.679555831572613e-01 3.316525318915380e-01 0.000000000000000e+00
2.726173544495355e-01 3.263500054949171e-01 0.000000000000000e+00
2.773909019152949e-01 3.211676457497371e-01 0.000000000000000e+00
2.822950935723375e-01 3.161483043739940e-01 0.000000000000000e+00
2.873827016602445e-01 3.112217712825157e-01 0.000000000000000e+00
2.925763219307618e-01 3.064788136946437e-01 0.000000000000000e+00
2.978375418032254e-01 3.018642807035211e-01 0.000000000000000e+00
3.032872574826923e-01 2.973912070930832e-01 0.000000000000000e+00
3.088436079572521e-01 2.931108209337295e-01 0.000000000000000e+00
3.145119162125288e-01 2.888857201580302e-01 0.000000000000000e+00
3.203113133360867e-01 2.848609529020144e-01 0.000000000000000e+00
3.261476465104849e-01 2.810269111774616e-01 0.000000000000000e+00
3.321315174802727e-01 2.772767362187953e-01 0.000000000000000e+00
3.382272379042373e-01 2.736985216647204e-01 0.000000000000000e+00
3.444435633236492e-01 2.702543554797885e-01 0.000000000000000e+00
3.506328386909736e-01 2.670100404371784e-01 0.000000000000000e+00
3.570402353927366e-01 2.638394527886678e-01 0.000000000000000e+00
3.635649275158570e-01 2.608286094890335e-01 0.000000000000000e+00
3.698193569937848e-01 2.581480154475305e-01 0.000000000000000e+00
3.765348059043951e-01 2.553436659090986e-01 0.000000000000000e+00
3.831292769480734e-01 2.528715277443586e-01 0.000000000000000e+00
3.897863699774666e-01 2.504854044944598e-01 0.000000000000000e+00
3.967226315968284e-01 2.481758059019203e-01 0.000000000000000e+00
4.031964022588006e-01 2.463318671541348e-01 0.000000000000000e+00
4.102495783087359e-01 2.442760782518179e-01 0.000000000000000e+00
4.170042469253173e-01 2.425781598300534e-01 0.000000000000000e+00
4.241005712394550e-01 2.408400390185489e-01 0.000000000000000e+00
4.309074724758983e-01 2.394798149357089e-01 0.000000000000000e+00
4.379289716528508e-01 2.381008055330404e-01 0.000000000000000e+00
4.450382658170269e-01 2.368920365079219e-01 0.000000000000000e+00
4.519943993751251e-01 2.358798671615167e-01 0.000000000000000e+00
4.591852019816391e-01 2.349417609459491e-01 0.000000000000000e+00
4.662214484975295e-01 2.342199615659553e-01 0.000000000000000e+00
4.733584940777479e-01 2.336309953828478e-01 0.000000000000000e+00
4.804146935104932e-01 2.331942100153149e-01 0.000000000000000e+00
4.876233222500949e-01 2.328644442162978e-01 0.000000000000000e+00
4.947263957761036e-01 2.326822931389514e-01 0.000000000000000e+00
5.018777189005609e-01 2.326592689185826e-01 0.000000000000000e+00
5.089557956800878e-01 2.327572455087202e-01 0.000000000000000e+00
5.161681224720750e-01 2.330248055338941e-01 0.000000000000000e+00
5.232608826709351e-01 2.333752779270840e-01 0.000000000000000e+00
5.303860681810572e-01 2.339075242438396e-01 0.000000000000000e+00
5.374556082693035e-01 2.345517875285005e-01 0.000000000000000e+00
5.445927687255978e-01 2.354002122803446e-01 0.000000000000000e+00
5.517096950144036e-01 2.363866639743849e-01 0.000000000000000e+00
5.586355699724032e-01 2.374403288097891e-01 0.000000000000000e+00
5.658207119066592e-01 2.387903194846083e-01 0.000000000000000e+00
5.725245346847094e-01 2.400573266591390e-01 0.000000000000000e+00
5.796356476374680e-01 2.416950904918934e-01 0.000000000000000e+00
5.865064827187003e-01 2.434023055828156e-01 0.000000000000000e+00
5.934620316226458e-01 2.452927284179696e-01 0.000000000000000e+00
6.002653529528575e-01 2.472732490270524e-01 0.000000000000000e+00
6.069026438664069e-01 2.492823049257868e-01 0.000000000000000e+00
6.138334636967340e-01 2.517296147275440e-01 0.000000000000000e+00
6.202515449784737e-01 2.540270205641690e-01 0.000000000000000e+00
6.270344357905201e-01 2.567425904038505e-01 0.000000000000000e+00
6.334890964019358e-01 2.594747895583985e-01 0.000000000000000e+00
6.398366888229511e-01 2.622855503372360e-01 0.000000000000000e+00
6.463843582599286e-01 2.654265708372959e-01 0.000000000000000e+00
6.526458861486296e-01 2.686123457382193e-01 0.000000000000000e+00
6.588389226578648e-01 2.719584228641530e-01 0.000000000000000e+00
6.650158239829946e-01 2.754708511235164e-01 0.000000000000000e+00
6.710376933282373e-01 2.791237369322528e-01 0.000000000000000e+00
6.769595048633817e-01 2.829404137471280e-01 0.000000000000000e+00
6.827660369243724e-01 2.868368430602851e-01 0.000000000000000e+00
6.885181697502046e-01 2.909992328937810e-01 0.000000000000000e+00
6.941155689040485e-01 2.952411253891841e-01 0.000000000000000e+00
6.996246010086041e-01 2.995931075135849e-01 0.000000000000000e+00
7.049814473014687e-01 3.041752861981347e-01 0.000000000000000e+00
7.101873189709763e-01 3.088209255748646e-01 0.000000000000000e+00
7.153493482028613e-01 3.136756189837067e-01 0.000000000000000e+00
7.203359767126184e-01 3.186379261208861e-01 0.000000000000000e+00
7.251761210644377e-01 3.237403113988908e-01 0.000000000000000e+00
7.298984603867481e-01 3.289843508322713e-01 0.000000000000000e+00
7.344782502042652e-01 3.343626684609720e-01 0.000000000000000e+00
7.388792107023217e-01 3.398425247735691e-01 0.000000000000000e+00
7.431722628946187e-01 3.454503378589617e-01 0.000000000000000e+00
7.472853573417529e-01 3.512397270196723e-01 0.000000000000000e+00
7.512345987717082e-01 3.570699675581619e-01 0.000000000000000e+00
7.550633401493877e-01 3.630456613586764e-01 0.000000000000000e+00
7.586678515818220e-01 3.691579371175999e-01 0.000000000000000e+00
7.621627158891056e-01 3.753800031548660e-01 0.000000000000000e+00
7.654718213039338e-01 3.816466938646544e-01 0.000000000000000e+00
7.685628629204844e-01 3.880484657614599e-01 0.000000000000000e+00
7.715949257090141e-01 3.946392775392776e-01 0.000000000000000e+00
7.742809227968269e-01 4.011068166841790e-01 0.000000000000000e+00
7.769316649187474e-01 4.078407551939921e-01 0.000000000000000e+00
7.793579181450246e-01 4.146161140327012e-01 0.000000000000000e+00
7.815559371058776e-01 4.214338775579015e-01 0.000000000000000e+00
7.837224866195537e-01 4.284294724095672e-01 0.000000000000000e+00
7.854438922508516e-01 4.352435695088757e-01 0.000000000000000e+00
7.872249705984562e-01 4.424565727925974e-01 0.000000000000000e+00
7.885491620144149e-01 4.493794996558889e-01 0.000000000000000e+00
7.899156369070780e-01 4.566259731529712e-01 0.000000000000000e+00
7.909157830461636e-01 4.637108856599544e-01 0.000000000000000e+00
7.918633463034569e-01 4.709958730074624e-01 0.000000000000000e+00
7.925244982371101e-01 4.781851624304415e-01 0.000000000000000e+00
7.930353043773518e-01 4.854490349597058e-01 0.000000000000000e+00
7.933375568969313e-01 4.927208828093296e-01 0.000000000000000e+00

POINT_DATA   249
SCALARS fX_Lag double
LOOKUP_TABLE default

-1.960577e+01 
-2.042496e+01 
-2.085152e+01 
-1.502536e+01 
-2.863087e+01 
-5.255513e+00 
-3.663174e+01 
4.221969e+00 
-4.569425e+01 
5.970604e+00 
-4.450724e+01 
-3.133411e+00 
-2.282034e+01 
-2.244613e+01 
-3.529317e+00 
-3.460742e+01 
-5.892339e+00 
-2.180651e+01 
-1.857574e+01 
-1.096811e+01 
-2.242442e+01 
-1.204192e+01 
-1.638615e+01 
-1.799746e+01 
-1.078996e+01 
-1.788211e+01 
-1.425215e+01 
-1.178261e+01 
-1.465102e+01 
-1.753625e+01 
-4.386867e+00 
-1.509877e+01 
-1.522126e+01 
-8.838068e+00 
-1.547120e+01 
-5.444096e+00 
-1.152861e+01 
-1.000336e+01 
-1.550989e+01 
-1.613367e+00 
-6.849553e+00 
-2.861357e+01 
2.000818e+01 
-1.071211e+01 
-3.282301e+01 
3.647256e+01 
-5.127152e+01 
2.935045e+01 
-1.660203e+01 
-1.522054e+01 
8.465620e+00 
-2.402728e+01 
4.072403e+01 
-4.812908e+01 
2.592376e+01 
-1.910479e+01 
-2.023010e+00 
6.761444e+00 
-5.564082e+00 
3.241020e+00 
-1.195665e+01 
1.342438e+01 
-7.324450e+00 
4.824810e+00 
-1.055487e+01 
1.524379e+01 
-8.083062e+00 
1.007807e+01 
-1.545524e+01 
2.346540e+01 
-1.531280e+01 
8.780350e+00 
2.146021e+01 
-2.893832e+01 
3.416420e+01 
-2.984642e+01 
5.793333e+01 
-4.624236e+01 
2.791435e+01 
6.267653e+00 
-1.209288e+01 
4.610179e+01 
-2.702193e+01 
1.172641e+01 
2.181481e+01 
-2.707657e+00 
1.206513e+01 
1.118825e+01 
1.475096e+01 
3.699286e+00 
1.310872e+01 
1.119460e+01 
1.066496e+01 
1.884989e+01 
6.764196e+00 
1.060103e+01 
1.833959e+01 
1.306897e+01 
1.117499e+01 
1.761487e+01 
1.369178e+01 
1.306582e+01 
1.990049e+01 
1.106688e+01 
1.895710e+01 
1.978918e+01 
9.482439e+00 
2.472942e+01 
9.756292e+00 
1.913395e+01 
2.832085e+01 
-1.410017e+00 
4.186769e+01 
-4.441840e+00 
3.527176e+01 
1.099111e+01 
2.065263e+01 
2.640167e+01 
7.925523e+00 
3.052983e+01 
8.418065e+00 
2.862966e+01 
1.336913e+01 
2.373904e+01 
1.867733e+01 
1.867733e+01 
2.373904e+01 
1.336913e+01 
2.862966e+01 
8.418065e+00 
3.052983e+01 
7.925523e+00 
2.640167e+01 
2.065263e+01 
1.099111e+01 
3.527176e+01 
-4.441840e+00 
4.186769e+01 
-1.410017e+00 
2.832085e+01 
1.913395e+01 
9.756292e+00 
2.472942e+01 
9.482439e+00 
1.978918e+01 
1.895710e+01 
1.106688e+01 
1.990049e+01 
1.306582e+01 
1.369178e+01 
1.761487e+01 
1.117499e+01 
1.306897e+01 
1.833959e+01 
1.060103e+01 
6.764196e+00 
1.884989e+01 
1.066496e+01 
1.119460e+01 
1.310872e+01 
3.699286e+00 
1.475096e+01 
1.118825e+01 
1.206513e+01 
-2.707657e+00 
2.181481e+01 
1.172641e+01 
-2.702193e+01 
4.610179e+01 
-1.209288e+01 
6.267653e+00 
2.791435e+01 
-4.624236e+01 
5.793333e+01 
-2.984642e+01 
3.416420e+01 
-2.893832e+01 
2.146021e+01 
8.780350e+00 
-1.531280e+01 
2.346540e+01 
-1.545524e+01 
1.007807e+01 
-8.083062e+00 
1.524379e+01 
-1.055487e+01 
4.824810e+00 
-7.324450e+00 
1.342438e+01 
-1.195665e+01 
3.241020e+00 
-5.564082e+00 
6.761444e+00 
-2.023010e+00 
-1.910479e+01 
2.592376e+01 
-4.812908e+01 
4.072403e+01 
-2.402728e+01 
8.465620e+00 
-1.522054e+01 
-1.660203e+01 
2.935045e+01 
-5.127152e+01 
3.647256e+01 
-3.282301e+01 
-1.071211e+01 
2.000818e+01 
-2.861357e+01 
-6.849553e+00 
-1.613367e+00 
-1.550989e+01 
-1.000336e+01 
-1.152861e+01 
-5.444096e+00 
-1.547120e+01 
-8.838068e+00 
-1.522126e+01 
-1.509877e+01 
-4.386867e+00 
-1.753625e+01 
-1.465102e+01 
-1.178261e+01 
-1.425215e+01 
-1.788211e+01 
-1.078996e+01 
-1.799746e+01 
-1.638615e+01 
-1.204192e+01 
-2.242442e+01 
-1.096811e+01 
-1.857574e+01 
-2.180651e+01 
-5.892339e+00 
-3.460742e+01 
-3.529317e+00 
-2.244613e+01 
-2.282034e+01 
-3.133411e+00 
-4.450724e+01 
5.970604e+00 
-4.569425e+01 
4.221969e+00 
-3.663174e+01 
-5.255513e+00 
-2.863087e+01 
-1.502536e+01 
-2.085152e+01 
-2.042496e+01 
