# vtk DataFile Version 2.0
fY_Lag
ASCII
DATASET UNSTRUCTURED_GRID

FIELD FieldData 1
TIME 1 1 double
0.55000000
POINTS 249 float
7.525617734475758e-01 5.000000000000000e-01 0.000000000000000e+00
7.525073994140699e-01 5.072361507046684e-01 0.000000000000000e+00
7.522992747629222e-01 5.144937262411577e-01 0.000000000000000e+00
7.519624650060791e-01 5.217366895398677e-01 0.000000000000000e+00
7.515425371477735e-01 5.288833612077571e-01 0.000000000000000e+00
7.508808268368545e-01 5.362509541946926e-01 0.000000000000000e+00
7.502663822075561e-01 5.432340584458805e-01 0.000000000000000e+00
7.492807649412621e-01 5.507039748982093e-01 0.000000000000000e+00
7.485325776430680e-01 5.573477806854642e-01 0.000000000000000e+00
7.471886425437780e-01 5.649583542496023e-01 0.000000000000000e+00
7.462031685523987e-01 5.715313149806389e-01 0.000000000000000e+00
7.446930237002937e-01 5.788738917111945e-01 0.000000000000000e+00
7.432422220467452e-01 5.858321201223947e-01 0.000000000000000e+00
7.415431625347313e-01 5.929221577893572e-01 0.000000000000000e+00
7.396673376664401e-01 6.000877833681946e-01 0.000000000000000e+00
7.379955684416163e-01 6.065990827975819e-01 0.000000000000000e+00
7.358259693390511e-01 6.137735410766810e-01 0.000000000000000e+00
7.336834578498908e-01 6.205160298074149e-01 0.000000000000000e+00
7.313064363638169e-01 6.273540924997271e-01 0.000000000000000e+00
7.287962073029375e-01 6.342119190417126e-01 0.000000000000000e+00
7.263300838339568e-01 6.407012607750345e-01 0.000000000000000e+00
7.235102108124267e-01 6.474455957696730e-01 0.000000000000000e+00
7.205977408465197e-01 6.540464933021060e-01 0.000000000000000e+00
7.176286353848373e-01 6.604758346424369e-01 0.000000000000000e+00
7.144413278895621e-01 6.669149321110843e-01 0.000000000000000e+00
7.111210687205004e-01 6.733016827793741e-01 0.000000000000000e+00
7.077100705939958e-01 6.795010111910780e-01 0.000000000000000e+00
7.041311455468749e-01 6.856640909803488e-01 0.000000000000000e+00
7.003938728354201e-01 6.917910129820068e-01 0.000000000000000e+00
6.965609506155696e-01 6.977247127574243e-01 0.000000000000000e+00
6.925361321330588e-01 7.036273902368886e-01 0.000000000000000e+00
6.883930093297285e-01 7.093995524330253e-01 0.000000000000000e+00
6.841385034580356e-01 7.150692388492953e-01 0.000000000000000e+00
6.796720458719243e-01 7.206344699793842e-01 0.000000000000000e+00
6.751530905661506e-01 7.260190210744831e-01 0.000000000000000e+00
6.704797535511801e-01 7.313301767517032e-01 0.000000000000000e+00
6.656065106278680e-01 7.364898762052758e-01 0.000000000000000e+00
6.606314419882553e-01 7.415336491316900e-01 0.000000000000000e+00
6.555802572721203e-01 7.464098144369146e-01 0.000000000000000e+00
6.503022334323131e-01 7.511825490545759e-01 0.000000000000000e+00
6.449437004808274e-01 7.557523567017124e-01 0.000000000000000e+00
6.395177034153364e-01 7.601488386058731e-01 0.000000000000000e+00
6.338257937083410e-01 7.645086544020332e-01 0.000000000000000e+00
6.281144580107404e-01 7.685873463337135e-01 0.000000000000000e+00
6.222927478604326e-01 7.725111668783341e-01 0.000000000000000e+00
6.162227607390964e-01 7.763580080984779e-01 0.000000000000000e+00
6.102926682421966e-01 7.797923661093975e-01 0.000000000000000e+00
6.040098332777916e-01 7.833443417826144e-01 0.000000000000000e+00
5.977454489942380e-01 7.864618365590470e-01 0.000000000000000e+00
5.913681326025960e-01 7.894749453849926e-01 0.000000000000000e+00
5.848487374903464e-01 7.923039229915270e-01 0.000000000000000e+00
5.783514057039683e-01 7.948893681206388e-01 0.000000000000000e+00
5.715699656427669e-01 7.973838628566076e-01 0.000000000000000e+00
5.650106440059849e-01 7.994276240462271e-01 0.000000000000000e+00
5.580593632293447e-01 8.015037113066908e-01 0.000000000000000e+00
5.512916601974071e-01 8.031722235106411e-01 0.000000000000000e+00
5.443281515066853e-01 8.047157740557356e-01 0.000000000000000e+00
5.373520253979763e-01 8.060405820779166e-01 0.000000000000000e+00
5.303427383847266e-01 8.071272372539671e-01 0.000000000000000e+00
5.232902414165065e-01 8.080003154274182e-01 0.000000000000000e+00
5.162517382934710e-01 8.086121232330329e-01 0.000000000000000e+00
5.091176311425609e-01 8.090210469168689e-01 0.000000000000000e+00
5.020640466777470e-01 8.091877956619604e-01 0.000000000000000e+00
4.949277776775407e-01 8.091352573698277e-01 0.000000000000000e+00
4.878701105864460e-01 8.088607958548224e-01 0.000000000000000e+00
4.807400109426586e-01 8.083496257358824e-01 0.000000000000000e+00
4.737430179956860e-01 8.076227852918547e-01 0.000000000000000e+00
4.666716633771052e-01 8.066301994088085e-01 0.000000000000000e+00
4.597251004182652e-01 8.054441736169881e-01 0.000000000000000e+00
4.527020671915337e-01 8.039931715202665e-01 0.000000000000000e+00
4.458809943188805e-01 8.024003943657314e-01 0.000000000000000e+00
4.389815815665616e-01 8.005366058619384e-01 0.000000000000000e+00
4.321881838859186e-01 7.984105990526794e-01 0.000000000000000e+00
4.255556937440518e-01 7.962359751943802e-01 0.000000000000000e+00
4.188594469754245e-01 7.936194300159235e-01 0.000000000000000e+00
4.124513754177894e-01 7.910275848041752e-01 0.000000000000000e+00
4.059098364100612e-01 7.879823047488865e-01 0.000000000000000e+00
3.997091538944188e-01 7.850627729091750e-01 0.000000000000000e+00
3.933220616829228e-01 7.816287185707776e-01 0.000000000000000e+00
3.872493174336445e-01 7.781457949410608e-01 0.000000000000000e+00
3.812226870495454e-01 7.745277661237625e-01 0.000000000000000e+00
3.752592068737973e-01 7.705911549759584e-01 0.000000000000000e+00
3.695497657636235e-01 7.666644857979257e-01 0.000000000000000e+00
3.637959049883903e-01 7.624104853434378e-01 0.000000000000000e+00
3.582555332637929e-01 7.580408488798394e-01 0.000000000000000e+00
3.528765993258988e-01 7.535777599383231e-01 0.000000000000000e+00
3.475092152335579e-01 7.488808546076161e-01 0.000000000000000e+00
3.423646088413672e-01 7.440695521991243e-01 0.000000000000000e+00
3.373584869043122e-01 7.391068148474096e-01 0.000000000000000e+00
3.324372942237189e-01 7.340256368751685e-01 0.000000000000000e+00
3.276449982309627e-01 7.287795787686818e-01 0.000000000000000e+00
3.230764363123398e-01 7.234385603761012e-01 0.000000000000000e+00
3.185704653652966e-01 7.179630938199915e-01 0.000000000000000e+00
3.141812362490496e-01 7.123207037229951e-01 0.000000000000000e+00
3.100118256159478e-01 7.066284078970884e-01 0.000000000000000e+00
3.059091382884249e-01 7.007698058194790e-01 0.000000000000000e+00
3.020021022539844e-01 6.948802892387251e-01 0.000000000000000e+00
2.982054256725170e-01 6.888473612276425e-01 0.000000000000000e+00
2.945371512829524e-01 6.826767100275970e-01 0.000000000000000e+00
2.910383097717037e-01 6.765067520896026e-01 0.000000000000000e+00
2.876789211191669e-01 6.702158425299688e-01 0.000000000000000e+00
2.844187303941653e-01 6.637962748174888e-01 0.000000000000000e+00
2.813374280017281e-01 6.573520606171069e-01 0.000000000000000e+00
2.784121312891191e-01 6.508837794542552e-01 0.000000000000000e+00
2.755109491330562e-01 6.441539438525845e-01 0.000000000000000e+00
2.728519572865203e-01 6.375098785659176e-01 0.000000000000000e+00
2.704346143604724e-01 6.309509325195517e-01 0.000000000000000e+00
2.679357454201726e-01 6.239968830871874e-01 0.000000000000000e+00
2.657390668421311e-01 6.173395532098633e-01 0.000000000000000e+00
2.635120970123173e-01 6.102559830476368e-01 0.000000000000000e+00
2.615402913821431e-01 6.033235811063838e-01 0.000000000000000e+00
2.598859383896712e-01 5.966843376284955e-01 0.000000000000000e+00
2.579467984021874e-01 5.892938170045572e-01 0.000000000000000e+00
2.565758344548902e-01 5.826665737631044e-01 0.000000000000000e+00
2.549849695382549e-01 5.752769526906072e-01 0.000000000000000e+00
2.538503325730128e-01 5.685289490566707e-01 0.000000000000000e+00
2.525843131775122e-01 5.612532927631628e-01 0.000000000000000e+00
2.514963307609306e-01 5.540194243145734e-01 0.000000000000000e+00
2.506676766341805e-01 5.470376643517568e-01 0.000000000000000e+00
2.497784381259329e-01 5.395942845833901e-01 0.000000000000000e+00
2.492241639174448e-01 5.326328667975168e-01 0.000000000000000e+00
2.486240676543925e-01 5.252277107586499e-01 0.000000000000000e+00
2.483013481209370e-01 5.181736080619138e-01 0.000000000000000e+00
2.479994341171472e-01 5.108246039978627e-01 0.000000000000000e+00
2.478879203610953e-01 5.036332190148417e-01 0.000000000000000e+00
2.478879203610949e-01 4.963667809852284e-01 0.000000000000000e+00
2.479994341171474e-01 4.891753960021897e-01 0.000000000000000e+00
2.483013481209375e-01 4.818263919381451e-01 0.000000000000000e+00
2.486240676543934e-01 4.747722892414154e-01 0.000000000000000e+00
2.492241639174438e-01 4.673671332025470e-01 0.000000000000000e+00
2.497784381259315e-01 4.604057154166729e-01 0.000000000000000e+00
2.506676766341838e-01 4.529623356483019e-01 0.000000000000000e+00
2.514963307609327e-01 4.459805756854844e-01 0.000000000000000e+00
2.525843131775091e-01 4.387467072369038e-01 0.000000000000000e+00
2.538503325730131e-01 4.314710509433880e-01 0.000000000000000e+00
2.549849695382537e-01 4.247230473094584e-01 0.000000000000000e+00
2.565758344548913e-01 4.173334262369582e-01 0.000000000000000e+00
2.579467984021829e-01 4.107061829955103e-01 0.000000000000000e+00
2.598859383896692e-01 4.033156623715685e-01 0.000000000000000e+00
2.615402913821421e-01 3.966764188936813e-01 0.000000000000000e+00
2.635120970123135e-01 3.897440169524289e-01 0.000000000000000e+00
2.657390668421283e-01 3.826604467902016e-01 0.000000000000000e+00
2.679357454201694e-01 3.760031169128773e-01 0.000000000000000e+00
2.704346143604673e-01 3.690490674805140e-01 0.000000000000000e+00
2.728519572865172e-01 3.624901214341445e-01 0.000000000000000e+00
2.755109491330537e-01 3.558460561474764e-01 0.000000000000000e+00
2.784121312891119e-01 3.491162205458109e-01 0.000000000000000e+00
2.813374280017260e-01 3.426479393829530e-01 0.000000000000000e+00
2.844187303941553e-01 3.362037251825752e-01 0.000000000000000e+00
2.876789211191633e-01 3.297841574700928e-01 0.000000000000000e+00
2.910383097716958e-01 3.234932479104555e-01 0.000000000000000e+00
2.945371512829461e-01 3.173232899724661e-01 0.000000000000000e+00
2.982054256725122e-01 3.111526387724148e-01 0.000000000000000e+00
3.020021022539778e-01 3.051197107613343e-01 0.000000000000000e+00
3.059091382884165e-01 2.992301941805782e-01 0.000000000000000e+00
3.100118256159367e-01 2.933715921029729e-01 0.000000000000000e+00
3.141812362490445e-01 2.876792962770617e-01 0.000000000000000e+00
3.185704653652835e-01 2.820369061800666e-01 0.000000000000000e+00
3.230764363123315e-01 2.765614396239531e-01 0.000000000000000e+00
3.276449982309529e-01 2.712204212313726e-01 0.000000000000000e+00
3.324372942237073e-01 2.659743631248844e-01 0.000000000000000e+00
3.373584869042991e-01 2.608931851526426e-01 0.000000000000000e+00
3.423646088413558e-01 2.559304478009292e-01 0.000000000000000e+00
3.475092152335441e-01 2.511191453924331e-01 0.000000000000000e+00
3.528765993258797e-01 2.464222400617307e-01 0.000000000000000e+00
3.582555332637888e-01 2.419591511202065e-01 0.000000000000000e+00
3.637959049883600e-01 2.375895146566167e-01 0.000000000000000e+00
3.695497657636191e-01 2.333355142021129e-01 0.000000000000000e+00
3.752592068737751e-01 2.294088450240916e-01 0.000000000000000e+00
3.812226870495292e-01 2.254722338762798e-01 0.000000000000000e+00
3.872493174336262e-01 2.218542050589821e-01 0.000000000000000e+00
3.933220616829030e-01 2.183712814292645e-01 0.000000000000000e+00
3.997091538943994e-01 2.149372270908650e-01 0.000000000000000e+00
4.059098364100422e-01 2.120176952511561e-01 0.000000000000000e+00
4.124513754177651e-01 2.089724151958643e-01 0.000000000000000e+00
4.188594469754052e-01 2.063805699841103e-01 0.000000000000000e+00
4.255556937440322e-01 2.037640248056588e-01 0.000000000000000e+00
4.321881838859015e-01 2.015894009473543e-01 0.000000000000000e+00
4.389815815665325e-01 1.994633941380890e-01 0.000000000000000e+00
4.458809943188665e-01 1.975996056343073e-01 0.000000000000000e+00
4.527020671915103e-01 1.960068284797593e-01 0.000000000000000e+00
4.597251004182472e-01 1.945558263830396e-01 0.000000000000000e+00
4.666716633770788e-01 1.933698005912203e-01 0.000000000000000e+00
4.737430179956635e-01 1.923772147081688e-01 0.000000000000000e+00
4.807400109426364e-01 1.916503742641449e-01 0.000000000000000e+00
4.878701105864222e-01 1.911392041451983e-01 0.000000000000000e+00
4.949277776775161e-01 1.908647426301953e-01 0.000000000000000e+00
5.020640466777273e-01 1.908122043380601e-01 0.000000000000000e+00
5.091176311425366e-01 1.909789530831489e-01 0.000000000000000e+00
5.162517382934433e-01 1.913878767669910e-01 0.000000000000000e+00
5.232902414164886e-01 1.919996845725980e-01 0.000000000000000e+00
5.303427383847026e-01 1.928727627460474e-01 0.000000000000000e+00
5.373520253979562e-01 1.939594179221027e-01 0.000000000000000e+00
5.443281515066603e-01 1.952842259442790e-01 0.000000000000000e+00
5.512916601973827e-01 1.968277764893719e-01 0.000000000000000e+00
5.580593632293277e-01 1.984962886933217e-01 0.000000000000000e+00
5.650106440059601e-01 2.005723759537888e-01 0.000000000000000e+00
5.715699656427516e-01 2.026161371434032e-01 0.000000000000000e+00
5.783514057039449e-01 2.051106318793724e-01 0.000000000000000e+00
5.848487374903365e-01 2.076960770084773e-01 0.000000000000000e+00
5.913681326025694e-01 2.105250546150236e-01 0.000000000000000e+00
5.977454489942238e-01 2.135381634409592e-01 0.000000000000000e+00
6.040098332777750e-01 2.166556582173955e-01 0.000000000000000e+00
6.102926682421732e-01 2.202076338906109e-01 0.000000000000000e+00
6.162227607390893e-01 2.236419919015322e-01 0.000000000000000e+00
6.222927478604127e-01 2.274888331216733e-01 0.000000000000000e+00
6.281144580107288e-01 2.314126536662977e-01 0.000000000000000e+00
6.338257937083243e-01 2.354913455979727e-01 0.000000000000000e+00
6.395177034153223e-01 2.398511613941360e-01 0.000000000000000e+00
6.449437004808137e-01 2.442476432982950e-01 0.000000000000000e+00
6.503022334322969e-01 2.488174509454312e-01 0.000000000000000e+00
6.555802572721088e-01 2.535901855630901e-01 0.000000000000000e+00
6.606314419882391e-01 2.584663508683218e-01 0.000000000000000e+00
6.656065106278537e-01 2.635101237947275e-01 0.000000000000000e+00
6.704797535511653e-01 2.686698232483015e-01 0.000000000000000e+00
6.751530905661384e-01 2.739809789255242e-01 0.000000000000000e+00
6.796720458719046e-01 2.793655300206190e-01 0.000000000000000e+00
6.841385034580266e-01 2.849307611507142e-01 0.000000000000000e+00
6.883930093297086e-01 2.906004475669747e-01 0.000000000000000e+00
6.925361321330457e-01 2.963726097631185e-01 0.000000000000000e+00
6.965609506155509e-01 3.022752872425819e-01 0.000000000000000e+00
7.003938728354099e-01 3.082089870179992e-01 0.000000000000000e+00
7.041311455468587e-01 3.143359090196527e-01 0.000000000000000e+00
7.077100705939847e-01 3.204989888089316e-01 0.000000000000000e+00
7.111210687204865e-01 3.266983172206316e-01 0.000000000000000e+00
7.144413278895492e-01 3.330850678889181e-01 0.000000000000000e+00
7.176286353848264e-01 3.395241653575702e-01 0.000000000000000e+00
7.205977408465046e-01 3.459535066978975e-01 0.000000000000000e+00
7.235102108124155e-01 3.525544042303302e-01 0.000000000000000e+00
7.263300838339437e-01 3.592987392249704e-01 0.000000000000000e+00
7.287962073029250e-01 3.657880809582897e-01 0.000000000000000e+00
7.313064363638035e-01 3.726459075002730e-01 0.000000000000000e+00
7.336834578498796e-01 3.794839701925909e-01 0.000000000000000e+00
7.358259693390393e-01 3.862264589233206e-01 0.000000000000000e+00
7.379955684416040e-01 3.934009172024171e-01 0.000000000000000e+00
7.396673376664282e-01 3.999122166318134e-01 0.000000000000000e+00
7.415431625347233e-01 4.070778422106426e-01 0.000000000000000e+00
7.432422220467336e-01 4.141678798776131e-01 0.000000000000000e+00
7.446930237002852e-01 4.211261082888108e-01 0.000000000000000e+00
7.462031685523908e-01 4.284686850193609e-01 0.000000000000000e+00
7.471886425437715e-01 4.350416457504074e-01 0.000000000000000e+00
7.485325776430629e-01 4.426522193145415e-01 0.000000000000000e+00
7.492807649412573e-01 4.492960251017974e-01 0.000000000000000e+00
7.502663822075537e-01 4.567659415541333e-01 0.000000000000000e+00
7.508808268368486e-01 4.637490458053052e-01 0.000000000000000e+00
7.515425371477716e-01 4.711166387922474e-01 0.000000000000000e+00
7.519624650060759e-01 4.782633104601366e-01 0.000000000000000e+00
7.522992747629205e-01 4.855062737588490e-01 0.000000000000000e+00
7.525073994140693e-01 4.927638492953367e-01 0.000000000000000e+00

POINT_DATA   249
SCALARS fY_Lag double
LOOKUP_TABLE default

5.052243e-10 
2.143361e+00 
-1.460149e+00 
-9.628602e+00 
2.209275e+01 
-3.844738e+01 
4.868227e+01 
-8.260979e+01 
9.667650e+01 
-1.037614e+02 
7.695881e+01 
-3.843489e+01 
1.317843e+01 
7.558213e+00 
-6.543221e+01 
6.631429e+01 
-4.319587e+01 
9.555181e+00 
1.976245e+00 
-3.685034e+01 
2.550048e+01 
-1.434516e+01 
-1.715403e+01 
9.725692e-01 
-5.237541e+00 
-1.874054e+01 
-3.626249e+00 
-3.612249e+00 
-1.932524e+01 
-3.104198e+00 
-1.305033e+01 
-1.024816e+01 
-1.044743e+01 
-1.806917e+01 
-7.339134e+00 
-1.514557e+01 
-1.159489e+01 
-1.675965e+01 
-1.034189e+01 
-2.029338e+01 
-1.733129e+01 
-3.668537e+00 
-2.811235e+01 
-1.548260e+01 
-7.699723e+00 
-4.124906e+01 
1.176156e+01 
-4.344168e+01 
-1.043775e+01 
-1.841576e+01 
-2.435563e+01 
-9.098252e+00 
-4.506484e+01 
3.235769e+00 
-4.075792e+01 
-1.249960e+01 
-2.187369e+01 
-2.381362e+01 
-2.135278e+01 
-2.612200e+01 
-2.028472e+01 
-2.421755e+01 
-2.192903e+01 
-2.219263e+01 
-2.367004e+01 
-2.156193e+01 
-2.656865e+01 
-1.934118e+01 
-2.649551e+01 
-1.418041e+01 
-2.710316e+01 
-2.622139e+01 
-4.854220e+00 
-4.418885e+01 
2.465844e+00 
-4.534518e+01 
1.257211e+01 
-5.144789e+01 
-4.883580e+00 
-1.351124e+01 
-3.186019e+01 
9.955172e-01 
-3.272878e+01 
-1.156557e+01 
-9.344569e+00 
-2.338189e+01 
-1.144091e+01 
-1.514059e+01 
-1.184492e+01 
-1.648912e+01 
-9.495755e+00 
-1.344630e+01 
-1.669225e+01 
-4.993148e+00 
-1.662951e+01 
-3.091070e+00 
-1.434507e+01 
-1.377262e+01 
7.146562e-02 
-1.209494e+01 
-1.286468e+01 
-2.469875e+00 
-2.406592e+00 
-2.615669e+01 
8.576999e+00 
8.511524e+00 
-3.951143e+01 
2.967184e+01 
-4.262410e+01 
1.511862e+01 
2.931117e+01 
-7.512726e+01 
7.632549e+01 
-7.623574e+01 
6.415984e+01 
-5.276576e+01 
4.176942e+00 
2.520885e+01 
-4.616062e+01 
4.819811e+01 
-4.437074e+01 
3.510471e+01 
-2.948927e+01 
1.576288e+01 
-7.504189e+00 
7.504189e+00 
-1.576288e+01 
2.948927e+01 
-3.510471e+01 
4.437074e+01 
-4.819811e+01 
4.616062e+01 
-2.520885e+01 
-4.176942e+00 
5.276576e+01 
-6.415984e+01 
7.623574e+01 
-7.632549e+01 
7.512726e+01 
-2.931117e+01 
-1.511862e+01 
4.262410e+01 
-2.967184e+01 
3.951143e+01 
-8.511524e+00 
-8.576999e+00 
2.615669e+01 
2.406592e+00 
2.469875e+00 
1.286468e+01 
1.209494e+01 
-7.146562e-02 
1.377262e+01 
1.434507e+01 
3.091070e+00 
1.662951e+01 
4.993148e+00 
1.669225e+01 
1.344630e+01 
9.495755e+00 
1.648912e+01 
1.184492e+01 
1.514059e+01 
1.144091e+01 
2.338189e+01 
9.344569e+00 
1.156557e+01 
3.272878e+01 
-9.955172e-01 
3.186019e+01 
1.351124e+01 
4.883580e+00 
5.144789e+01 
-1.257211e+01 
4.534518e+01 
-2.465844e+00 
4.418885e+01 
4.854220e+00 
2.622139e+01 
2.710316e+01 
1.418041e+01 
2.649551e+01 
1.934118e+01 
2.656865e+01 
2.156193e+01 
2.367004e+01 
2.219263e+01 
2.192903e+01 
2.421755e+01 
2.028472e+01 
2.612200e+01 
2.135278e+01 
2.381362e+01 
2.187369e+01 
1.249960e+01 
4.075792e+01 
-3.235769e+00 
4.506484e+01 
9.098252e+00 
2.435563e+01 
1.841576e+01 
1.043775e+01 
4.344168e+01 
-1.176156e+01 
4.124906e+01 
7.699723e+00 
1.548260e+01 
2.811235e+01 
3.668537e+00 
1.733129e+01 
2.029338e+01 
1.034189e+01 
1.675965e+01 
1.159489e+01 
1.514557e+01 
7.339134e+00 
1.806917e+01 
1.044743e+01 
1.024816e+01 
1.305033e+01 
3.104198e+00 
1.932524e+01 
3.612249e+00 
3.626249e+00 
1.874054e+01 
5.237541e+00 
-9.725692e-01 
1.715403e+01 
1.434516e+01 
-2.550048e+01 
3.685034e+01 
-1.976245e+00 
-9.555181e+00 
4.319587e+01 
-6.631429e+01 
6.543221e+01 
-7.558213e+00 
-1.317843e+01 
3.843489e+01 
-7.695881e+01 
1.037614e+02 
-9.667650e+01 
8.260979e+01 
-4.868227e+01 
3.844738e+01 
-2.209275e+01 
9.628602e+00 
1.460149e+00 
-2.143361e+00 
