# vtk DataFile Version 2.0
fY_Lag
ASCII
DATASET UNSTRUCTURED_GRID

FIELD FieldData 1
TIME 1 1 double
0.50000000
POINTS 249 float
7.917533916385338e-01 5.000000000000000e-01 0.000000000000000e+00
7.916670664205422e-01 5.070227982961880e-01 0.000000000000000e+00
7.913770756683529e-01 5.140886400671287e-01 0.000000000000000e+00
7.909018009315286e-01 5.211453957647251e-01 0.000000000000000e+00
7.903149056002912e-01 5.280699427563021e-01 0.000000000000000e+00
7.894276865758233e-01 5.351535229622543e-01 0.000000000000000e+00
7.885517731430174e-01 5.418985854969457e-01 0.000000000000000e+00
7.872272695478705e-01 5.490630500493872e-01 0.000000000000000e+00
7.861182172976868e-01 5.555218822200333e-01 0.000000000000000e+00
7.843287763171133e-01 5.627783614053585e-01 0.000000000000000e+00
7.828820806557811e-01 5.691528907260504e-01 0.000000000000000e+00
7.808628487228294e-01 5.761012771103465e-01 0.000000000000000e+00
7.788442380791551e-01 5.827416025264995e-01 0.000000000000000e+00
7.765226568589838e-01 5.894311099616186e-01 0.000000000000000e+00
7.739593510846627e-01 5.961512971193607e-01 0.000000000000000e+00
7.715881921395725e-01 6.023213695341524e-01 0.000000000000000e+00
7.686943173782986e-01 6.089583691456529e-01 0.000000000000000e+00
7.657609690552802e-01 6.152652482290134e-01 0.000000000000000e+00
7.626196579295849e-01 6.215118202305436e-01 0.000000000000000e+00
7.592320833633747e-01 6.277951795886363e-01 0.000000000000000e+00
7.559158679541917e-01 6.336911084993099e-01 0.000000000000000e+00
7.522074288865047e-01 6.397247842174277e-01 0.000000000000000e+00
7.483454610707664e-01 6.456415081784199e-01 0.000000000000000e+00
7.444774137553224e-01 6.513257134508441e-01 0.000000000000000e+00
7.402967860550655e-01 6.570108844710544e-01 0.000000000000000e+00
7.359765333797552e-01 6.625848427943788e-01 0.000000000000000e+00
7.315733526189956e-01 6.679375155111739e-01 0.000000000000000e+00
7.269474971851133e-01 6.732382395431885e-01 0.000000000000000e+00
7.221757874724415e-01 6.784417494837449e-01 0.000000000000000e+00
7.173294000690463e-01 6.834206066227390e-01 0.000000000000000e+00
7.122848157488031e-01 6.883073648446896e-01 0.000000000000000e+00
7.071268846450626e-01 6.930396432949046e-01 0.000000000000000e+00
7.018271730524487e-01 6.976887886830505e-01 0.000000000000000e+00
6.963560891854457e-01 7.021554243499994e-01 0.000000000000000e+00
6.908389649558225e-01 7.064429767502093e-01 0.000000000000000e+00
6.851648061893371e-01 7.106537249704648e-01 0.000000000000000e+00
6.793562920719808e-01 7.146567735721443e-01 0.000000000000000e+00
6.734364176420780e-01 7.185696362423992e-01 0.000000000000000e+00
6.674629878634312e-01 7.223158346706634e-01 0.000000000000000e+00
6.613029100567509e-01 7.259025905154387e-01 0.000000000000000e+00
6.551040810911601e-01 7.293175369629975e-01 0.000000000000000e+00
6.488575936870539e-01 7.325853180597122e-01 0.000000000000000e+00
6.423370099308809e-01 7.358229599601698e-01 0.000000000000000e+00
6.359005197704609e-01 7.387801671821962e-01 0.000000000000000e+00
6.293902429002989e-01 7.415678349293270e-01 0.000000000000000e+00
6.226112946218214e-01 7.443229458439576e-01 0.000000000000000e+00
6.160984374316244e-01 7.467220945746650e-01 0.000000000000000e+00
6.091537322005882e-01 7.492560882037517e-01 0.000000000000000e+00
6.023528558163619e-01 7.514142297239308e-01 0.000000000000000e+00
5.954485240818548e-01 7.534958618972246e-01 0.000000000000000e+00
5.884019836061682e-01 7.554565592391010e-01 0.000000000000000e+00
5.814524392468221e-01 7.572109629226018e-01 0.000000000000000e+00
5.742273437555921e-01 7.589098134364459e-01 0.000000000000000e+00
5.673371660084263e-01 7.602586863317369e-01 0.000000000000000e+00
5.600081258764181e-01 7.616951614780476e-01 0.000000000000000e+00
5.529309454545668e-01 7.628181608211273e-01 0.000000000000000e+00
5.456754491461581e-01 7.638527728844464e-01 0.000000000000000e+00
5.384178381543741e-01 7.647403545367539e-01 0.000000000000000e+00
5.311627719690653e-01 7.654441320462670e-01 0.000000000000000e+00
5.238749149064963e-01 7.660266958785246e-01 0.000000000000000e+00
5.166288399821397e-01 7.664233188515641e-01 0.000000000000000e+00
5.092855231129086e-01 7.667097290914688e-01 0.000000000000000e+00
5.020283705657166e-01 7.668147964069547e-01 0.000000000000000e+00
4.946810827387735e-01 7.667799448274353e-01 0.000000000000000e+00
4.874196753399900e-01 7.665907442796259e-01 0.000000000000000e+00
4.800809545436229e-01 7.662476883218934e-01 0.000000000000000e+00
4.728665916324933e-01 7.657701528429687e-01 0.000000000000000e+00
4.655490245360557e-01 7.651150017336015e-01 0.000000000000000e+00
4.583494865117048e-01 7.643394485198138e-01 0.000000000000000e+00
4.510379816769246e-01 7.633684615978545e-01 0.000000000000000e+00
4.439351272708303e-01 7.623056002729839e-01 0.000000000000000e+00
4.366959841080471e-01 7.610284197835601e-01 0.000000000000000e+00
4.295373947641314e-01 7.595737321811750e-01 0.000000000000000e+00
4.225239428597678e-01 7.581153815359721e-01 0.000000000000000e+00
4.153353021212645e-01 7.563069150278466e-01 0.000000000000000e+00
4.084657445759786e-01 7.545540216930124e-01 0.000000000000000e+00
4.013561729458049e-01 7.524344621546518e-01 0.000000000000000e+00
3.947077500775468e-01 7.504686809499134e-01 0.000000000000000e+00
3.877139674436297e-01 7.480366037914778e-01 0.000000000000000e+00
3.810399296437399e-01 7.455758221098434e-01 0.000000000000000e+00
3.743727067776787e-01 7.430092532721702e-01 0.000000000000000e+00
3.676600543468647e-01 7.401702595774593e-01 0.000000000000000e+00
3.612664355483626e-01 7.373723738883927e-01 0.000000000000000e+00
3.547303455351973e-01 7.342400892483500e-01 0.000000000000000e+00
3.483775965911586e-01 7.309943977554004e-01 0.000000000000000e+00
3.421906173349401e-01 7.276726015263097e-01 0.000000000000000e+00
3.359628102248742e-01 7.241616468241711e-01 0.000000000000000e+00
3.299064611403296e-01 7.205020884372562e-01 0.000000000000000e+00
3.239470718479340e-01 7.166483725591228e-01 0.000000000000000e+00
3.180907005549974e-01 7.127099830593658e-01 0.000000000000000e+00
3.123304341611363e-01 7.086026358305292e-01 0.000000000000000e+00
3.067595668540815e-01 7.043535442308451e-01 0.000000000000000e+00
3.012674799586429e-01 6.999892412336887e-01 0.000000000000000e+00
2.958570280966383e-01 6.954116801626491e-01 0.000000000000000e+00
2.906533806571686e-01 6.907370677549864e-01 0.000000000000000e+00
2.855256777700851e-01 6.859182320380146e-01 0.000000000000000e+00
2.805988457830400e-01 6.810047589400253e-01 0.000000000000000e+00
2.757846567106562e-01 6.759095743240845e-01 0.000000000000000e+00
2.710717495446635e-01 6.706316061966809e-01 0.000000000000000e+00
2.665548426772623e-01 6.653213075393110e-01 0.000000000000000e+00
2.622131615144704e-01 6.598748520411284e-01 0.000000000000000e+00
2.579436357026649e-01 6.542264693411664e-01 0.000000000000000e+00
2.539326818520656e-01 6.485355149869358e-01 0.000000000000000e+00
2.501060682590716e-01 6.427906724640257e-01 0.000000000000000e+00
2.462530604555978e-01 6.367415082280580e-01 0.000000000000000e+00
2.427472838960628e-01 6.307792694765105e-01 0.000000000000000e+00
2.394456303759283e-01 6.247470774913422e-01 0.000000000000000e+00
2.361232527024244e-01 6.183943992611060e-01 0.000000000000000e+00
2.331573951451454e-01 6.122347465534517e-01 0.000000000000000e+00
2.301851165113128e-01 6.056867271638642e-01 0.000000000000000e+00
2.275324334112759e-01 5.992587891313154e-01 0.000000000000000e+00
2.251710367574126e-01 5.929308617575161e-01 0.000000000000000e+00
2.225705279250864e-01 5.860020860932453e-01 0.000000000000000e+00
2.205852284976084e-01 5.796034367847462e-01 0.000000000000000e+00
2.184279718348852e-01 5.726153023360613e-01 0.000000000000000e+00
2.168240538080743e-01 5.661477620073071e-01 0.000000000000000e+00
2.151534659166525e-01 5.592444908925310e-01 0.000000000000000e+00
2.136929674918067e-01 5.523301702861878e-01 0.000000000000000e+00
2.124980629252148e-01 5.455650228627417e-01 0.000000000000000e+00
2.112781686528168e-01 5.383987911532985e-01 0.000000000000000e+00
2.104826202869274e-01 5.316479511944036e-01 0.000000000000000e+00
2.096991712866248e-01 5.245198763688560e-01 0.000000000000000e+00
2.092288544889579e-01 5.176642283271132e-01 0.000000000000000e+00
2.088068949032919e-01 5.105203194709572e-01 0.000000000000000e+00
2.086356139337652e-01 5.035260336327272e-01 0.000000000000000e+00
2.086356139337646e-01 4.964739663673194e-01 0.000000000000000e+00
2.088068949032915e-01 4.894796805290736e-01 0.000000000000000e+00
2.092288544889571e-01 4.823357716729231e-01 0.000000000000000e+00
2.096991712866237e-01 4.754801236311865e-01 0.000000000000000e+00
2.104826202869243e-01 4.683520488056362e-01 0.000000000000000e+00
2.112781686528123e-01 4.616012088467376e-01 0.000000000000000e+00
2.124980629252141e-01 4.544349771372962e-01 0.000000000000000e+00
2.136929674918052e-01 4.476698297138476e-01 0.000000000000000e+00
2.151534659166453e-01 4.407555091075112e-01 0.000000000000000e+00
2.168240538080705e-01 4.338522379927301e-01 0.000000000000000e+00
2.184279718348798e-01 4.273846976639770e-01 0.000000000000000e+00
2.205852284976050e-01 4.203965632152912e-01 0.000000000000000e+00
2.225705279250786e-01 4.139979139067953e-01 0.000000000000000e+00
2.251710367574059e-01 4.070691382425231e-01 0.000000000000000e+00
2.275324334112691e-01 4.007412108687254e-01 0.000000000000000e+00
2.301851165113045e-01 3.943132728361723e-01 0.000000000000000e+00
2.331573951451383e-01 3.877652534465871e-01 0.000000000000000e+00
2.361232527024168e-01 3.816056007389306e-01 0.000000000000000e+00
2.394456303759167e-01 3.752529225086982e-01 0.000000000000000e+00
2.427472838960543e-01 3.692207305235266e-01 0.000000000000000e+00
2.462530604555900e-01 3.632584917719744e-01 0.000000000000000e+00
2.501060682590601e-01 3.572093275360121e-01 0.000000000000000e+00
2.539326818520604e-01 3.514644850130996e-01 0.000000000000000e+00
2.579436357026525e-01 3.457735306588647e-01 0.000000000000000e+00
2.622131615144600e-01 3.401251479589094e-01 0.000000000000000e+00
2.665548426772494e-01 3.346786924607204e-01 0.000000000000000e+00
2.710717495446494e-01 3.293683938033569e-01 0.000000000000000e+00
2.757846567106453e-01 3.240904256759484e-01 0.000000000000000e+00
2.805988457830271e-01 3.189952410600090e-01 0.000000000000000e+00
2.855256777700729e-01 3.140817679620178e-01 0.000000000000000e+00
2.906533806571540e-01 3.092629322450480e-01 0.000000000000000e+00
2.958570280966272e-01 3.045883198373859e-01 0.000000000000000e+00
3.012674799586249e-01 3.000107587663441e-01 0.000000000000000e+00
3.067595668540672e-01 2.956464557691896e-01 0.000000000000000e+00
3.123304341611219e-01 2.913973641695027e-01 0.000000000000000e+00
3.180907005549820e-01 2.872900169406681e-01 0.000000000000000e+00
3.239470718479177e-01 2.833516274409062e-01 0.000000000000000e+00
3.299064611403145e-01 2.794979115627776e-01 0.000000000000000e+00
3.359628102248612e-01 2.758383531758564e-01 0.000000000000000e+00
3.421906173349211e-01 2.723273984737222e-01 0.000000000000000e+00
3.483775965911524e-01 2.690056022446284e-01 0.000000000000000e+00
3.547303455351650e-01 2.657599107516835e-01 0.000000000000000e+00
3.612664355483556e-01 2.626276261116333e-01 0.000000000000000e+00
3.676600543468365e-01 2.598297404225748e-01 0.000000000000000e+00
3.743727067776571e-01 2.569907467278602e-01 0.000000000000000e+00
3.810399296437166e-01 2.544241778901890e-01 0.000000000000000e+00
3.877139674436084e-01 2.519633962085503e-01 0.000000000000000e+00
3.947077500775264e-01 2.495313190501136e-01 0.000000000000000e+00
4.013561729457838e-01 2.475655378453775e-01 0.000000000000000e+00
4.084657445759526e-01 2.454459783070136e-01 0.000000000000000e+00
4.153353021212451e-01 2.436930849721790e-01 0.000000000000000e+00
4.225239428597475e-01 2.418846184640565e-01 0.000000000000000e+00
4.295373947641142e-01 2.404262678188505e-01 0.000000000000000e+00
4.366959841080186e-01 2.389715802164613e-01 0.000000000000000e+00
4.439351272708131e-01 2.376943997270458e-01 0.000000000000000e+00
4.510379816769011e-01 2.366315384021657e-01 0.000000000000000e+00
4.583494865116858e-01 2.356605514802080e-01 0.000000000000000e+00
4.655490245360291e-01 2.348849982664210e-01 0.000000000000000e+00
4.728665916324707e-01 2.342298471570506e-01 0.000000000000000e+00
4.800809545436006e-01 2.337523116781297e-01 0.000000000000000e+00
4.874196753399659e-01 2.334092557203912e-01 0.000000000000000e+00
4.946810827387487e-01 2.332200551725836e-01 0.000000000000000e+00
5.020283705656964e-01 2.331852035930634e-01 0.000000000000000e+00
5.092855231128841e-01 2.332902709085480e-01 0.000000000000000e+00
5.166288399821111e-01 2.335766811484549e-01 0.000000000000000e+00
5.238749149064760e-01 2.339733041214880e-01 0.000000000000000e+00
5.311627719690414e-01 2.345558679537436e-01 0.000000000000000e+00
5.384178381543520e-01 2.352596454632627e-01 0.000000000000000e+00
5.456754491461331e-01 2.361472271155659e-01 0.000000000000000e+00
5.529309454545411e-01 2.371818391788827e-01 0.000000000000000e+00
5.600081258763985e-01 2.383048385219609e-01 0.000000000000000e+00
5.673371660084008e-01 2.397413136682743e-01 0.000000000000000e+00
5.742273437555730e-01 2.410901865635612e-01 0.000000000000000e+00
5.814524392467981e-01 2.427890370774073e-01 0.000000000000000e+00
5.884019836061533e-01 2.445434407608992e-01 0.000000000000000e+00
5.954485240818308e-01 2.465041381027878e-01 0.000000000000000e+00
6.023528558163440e-01 2.485857702760694e-01 0.000000000000000e+00
6.091537322005683e-01 2.507439117962512e-01 0.000000000000000e+00
6.160984374315995e-01 2.532779054253414e-01 0.000000000000000e+00
6.226112946218095e-01 2.556770541560444e-01 0.000000000000000e+00
6.293902429002767e-01 2.584321650706747e-01 0.000000000000000e+00
6.359005197704490e-01 2.612198328178071e-01 0.000000000000000e+00
6.423370099308633e-01 2.641770400398323e-01 0.000000000000000e+00
6.488575936870382e-01 2.674146819402893e-01 0.000000000000000e+00
6.551040810911449e-01 2.706824630370014e-01 0.000000000000000e+00
6.613029100567341e-01 2.740974094845632e-01 0.000000000000000e+00
6.674629878634156e-01 2.776841653293358e-01 0.000000000000000e+00
6.734364176420639e-01 2.814303637576024e-01 0.000000000000000e+00
6.793562920719632e-01 2.853432264278513e-01 0.000000000000000e+00
6.851648061893204e-01 2.893462750295335e-01 0.000000000000000e+00
6.908389649558097e-01 2.935570232497902e-01 0.000000000000000e+00
6.963560891854272e-01 2.978445756499991e-01 0.000000000000000e+00
7.018271730524394e-01 3.023112113169470e-01 0.000000000000000e+00
7.071268846450440e-01 3.069603567050931e-01 0.000000000000000e+00
7.122848157487920e-01 3.116926351553098e-01 0.000000000000000e+00
7.173294000690305e-01 3.165793933772603e-01 0.000000000000000e+00
7.221757874724305e-01 3.215582505162524e-01 0.000000000000000e+00
7.269474971850965e-01 3.267617604568077e-01 0.000000000000000e+00
7.315733526189844e-01 3.320624844888248e-01 0.000000000000000e+00
7.359765333797414e-01 3.374151572056195e-01 0.000000000000000e+00
7.402967860550510e-01 3.429891155289412e-01 0.000000000000000e+00
7.444774137553108e-01 3.486742865491545e-01 0.000000000000000e+00
7.483454610707518e-01 3.543584918215772e-01 0.000000000000000e+00
7.522074288864925e-01 3.602752157825685e-01 0.000000000000000e+00
7.559158679541783e-01 3.663088915006867e-01 0.000000000000000e+00
7.592320833633615e-01 3.722048204113589e-01 0.000000000000000e+00
7.626196579295714e-01 3.784881797694528e-01 0.000000000000000e+00
7.657609690552686e-01 3.847347517709825e-01 0.000000000000000e+00
7.686943173782876e-01 3.910416308543415e-01 0.000000000000000e+00
7.715881921395591e-01 3.976786304658420e-01 0.000000000000000e+00
7.739593510846513e-01 4.038487028806400e-01 0.000000000000000e+00
7.765226568589746e-01 4.105688900383730e-01 0.000000000000000e+00
7.788442380791437e-01 4.172583974734997e-01 0.000000000000000e+00
7.808628487228206e-01 4.238987228896489e-01 0.000000000000000e+00
7.828820806557728e-01 4.308471092739435e-01 0.000000000000000e+00
7.843287763171080e-01 4.372216385946420e-01 0.000000000000000e+00
7.861182172976811e-01 4.444781177799640e-01 0.000000000000000e+00
7.872272695478646e-01 4.509369499506090e-01 0.000000000000000e+00
7.885517731430161e-01 4.581014145030572e-01 0.000000000000000e+00
7.894276865758165e-01 4.648464770377355e-01 0.000000000000000e+00
7.903149056002884e-01 4.719300572436962e-01 0.000000000000000e+00
7.909018009315258e-01 4.788546042352685e-01 0.000000000000000e+00
7.913770756683508e-01 4.859113599328660e-01 0.000000000000000e+00
7.916670664205414e-01 4.929772017038023e-01 0.000000000000000e+00

POINT_DATA   249
SCALARS fY_Lag double
LOOKUP_TABLE default

-9.825953e-10 
4.304904e+00 
-9.079958e-01 
-1.322118e+01 
1.590128e+01 
-3.384944e+01 
4.193527e+01 
-7.055779e+01 
7.975269e+01 
-8.818568e+01 
5.737616e+01 
-3.080202e+01 
4.915405e+00 
3.064112e+00 
-5.500396e+01 
4.668278e+01 
-3.300524e+01 
-6.034262e+00 
3.675716e+00 
-3.874309e+01 
1.376277e+01 
-1.169091e+01 
-2.325114e+01 
9.166441e-02 
-1.112040e+01 
-2.213109e+01 
-5.194982e+00 
-9.723932e+00 
-2.246743e+01 
-9.206351e+00 
-1.544920e+01 
-8.314756e+00 
-1.825263e+01 
-1.790779e+01 
-7.678742e+00 
-2.077248e+01 
-9.020137e+00 
-1.665872e+01 
-1.594636e+01 
-1.718271e+01 
-1.471590e+01 
-3.015562e+00 
-2.803723e+01 
-1.695417e+01 
-3.257919e+00 
-3.559408e+01 
1.348436e+01 
-3.757954e+01 
-7.647698e+00 
-1.209270e+01 
-2.063206e+01 
-5.557882e+00 
-3.499224e+01 
8.764844e+00 
-3.134274e+01 
-8.836546e+00 
-1.470232e+01 
-1.838104e+01 
-1.211935e+01 
-1.859097e+01 
-1.101825e+01 
-1.813324e+01 
-1.399049e+01 
-1.543361e+01 
-1.538346e+01 
-1.344488e+01 
-1.775830e+01 
-1.203979e+01 
-1.954371e+01 
-9.185071e+00 
-2.142914e+01 
-1.774468e+01 
-3.623631e-01 
-3.500887e+01 
5.552861e+00 
-3.666755e+01 
1.538094e+01 
-4.662311e+01 
-2.868445e+00 
-1.057889e+01 
-2.724325e+01 
4.107289e+00 
-3.343607e+01 
-1.133626e+01 
-7.610782e+00 
-1.891489e+01 
-1.486554e+01 
-1.941272e+01 
-8.462762e+00 
-1.689949e+01 
-1.417349e+01 
-1.151970e+01 
-2.132767e+01 
-9.705234e+00 
-1.442498e+01 
-9.462276e+00 
-1.816875e+01 
-1.828363e+01 
-3.231622e+00 
-1.361747e+01 
-2.019532e+01 
-4.256917e+00 
-5.394186e+00 
-3.042623e+01 
8.687815e+00 
-7.003713e+00 
-3.204563e+01 
1.929362e+01 
-3.883209e+01 
1.200677e+01 
9.997188e+00 
-6.007640e+01 
5.299964e+01 
-5.893916e+01 
5.205208e+01 
-4.356760e+01 
-1.108080e+00 
1.491235e+01 
-4.010671e+01 
4.153323e+01 
-3.772078e+01 
2.724011e+01 
-2.882421e+01 
1.496154e+01 
-5.777448e+00 
5.777448e+00 
-1.496154e+01 
2.882421e+01 
-2.724011e+01 
3.772078e+01 
-4.153323e+01 
4.010671e+01 
-1.491235e+01 
1.108080e+00 
4.356760e+01 
-5.205208e+01 
5.893916e+01 
-5.299964e+01 
6.007640e+01 
-9.997188e+00 
-1.200677e+01 
3.883209e+01 
-1.929362e+01 
3.204563e+01 
7.003713e+00 
-8.687815e+00 
3.042623e+01 
5.394186e+00 
4.256917e+00 
2.019532e+01 
1.361747e+01 
3.231622e+00 
1.828363e+01 
1.816875e+01 
9.462276e+00 
1.442498e+01 
9.705234e+00 
2.132767e+01 
1.151970e+01 
1.417349e+01 
1.689949e+01 
8.462762e+00 
1.941272e+01 
1.486554e+01 
1.891489e+01 
7.610782e+00 
1.133626e+01 
3.343607e+01 
-4.107289e+00 
2.724325e+01 
1.057889e+01 
2.868445e+00 
4.662311e+01 
-1.538094e+01 
3.666755e+01 
-5.552861e+00 
3.500887e+01 
3.623631e-01 
1.774468e+01 
2.142914e+01 
9.185071e+00 
1.954371e+01 
1.203979e+01 
1.775830e+01 
1.344488e+01 
1.538346e+01 
1.543361e+01 
1.399049e+01 
1.813324e+01 
1.101825e+01 
1.859097e+01 
1.211935e+01 
1.838104e+01 
1.470232e+01 
8.836546e+00 
3.134274e+01 
-8.764844e+00 
3.499224e+01 
5.557882e+00 
2.063206e+01 
1.209270e+01 
7.647698e+00 
3.757954e+01 
-1.348436e+01 
3.559408e+01 
3.257919e+00 
1.695417e+01 
2.803723e+01 
3.015562e+00 
1.471590e+01 
1.718271e+01 
1.594636e+01 
1.665872e+01 
9.020137e+00 
2.077248e+01 
7.678742e+00 
1.790779e+01 
1.825263e+01 
8.314756e+00 
1.544920e+01 
9.206351e+00 
2.246743e+01 
9.723932e+00 
5.194982e+00 
2.213109e+01 
1.112040e+01 
-9.166441e-02 
2.325114e+01 
1.169091e+01 
-1.376277e+01 
3.874309e+01 
-3.675716e+00 
6.034262e+00 
3.300524e+01 
-4.668278e+01 
5.500396e+01 
-3.064112e+00 
-4.915405e+00 
3.080202e+01 
-5.737616e+01 
8.818568e+01 
-7.975269e+01 
7.055779e+01 
-4.193527e+01 
3.384944e+01 
-1.590128e+01 
1.322118e+01 
9.079958e-01 
-4.304904e+00 
