# vtk DataFile Version 2.0
fNorm
ASCII
DATASET UNSTRUCTURED_GRID

POINTS 116 float
5.003471297005323e-02 4.000588450459239e-01 0.000000000000000e+00
6.565060633822888e-02 4.000238230427952e-01 0.000000000000000e+00
8.126435319398463e-02 4.000159406379453e-01 0.000000000000000e+00
9.687466031918540e-02 4.000293967208450e-01 0.000000000000000e+00
1.124833296435099e-01 4.000332598380674e-01 0.000000000000000e+00
1.280925869383530e-01 4.000139497039180e-01 0.000000000000000e+00
1.437141148279375e-01 3.999813519607054e-01 0.000000000000000e+00
1.593495839077778e-01 3.999471667048152e-01 0.000000000000000e+00
1.749909105386390e-01 3.999316565651909e-01 0.000000000000000e+00
1.906309499344944e-01 3.999385278377871e-01 0.000000000000000e+00
2.062640656227225e-01 3.999506553569857e-01 0.000000000000000e+00
2.218898672676855e-01 3.999563031018136e-01 0.000000000000000e+00
2.375127731780488e-01 3.999566339973323e-01 0.000000000000000e+00
2.531363892092012e-01 3.999545083919122e-01 0.000000000000000e+00
2.687604095868376e-01 3.999537477785536e-01 0.000000000000000e+00
2.843845220753765e-01 3.999559009710201e-01 0.000000000000000e+00
3.000090333841183e-01 3.999584944771835e-01 0.000000000000000e+00
3.156339553931574e-01 3.999599848400245e-01 0.000000000000000e+00
3.312590316233208e-01 3.999611530873908e-01 0.000000000000000e+00
3.468840562185310e-01 3.999625543212130e-01 0.000000000000000e+00
3.625090135400302e-01 3.999639085303139e-01 0.000000000000000e+00
3.781339224843592e-01 3.999650860432576e-01 0.000000000000000e+00
3.937588328347746e-01 3.999663488390238e-01 0.000000000000000e+00
4.093837704019656e-01 3.999678031013156e-01 0.000000000000000e+00
4.250086921115693e-01 3.999692135194126e-01 0.000000000000000e+00
4.406335821296291e-01 3.999704693411745e-01 0.000000000000000e+00
4.562584988384489e-01 3.999717201488016e-01 0.000000000000000e+00
4.718834629082926e-01 3.999730489050483e-01 0.000000000000000e+00
4.875084210481626e-01 3.999743626856787e-01 0.000000000000000e+00
5.031333472813175e-01 3.999756168742838e-01 0.000000000000000e+00
5.187582888984155e-01 3.999768706300620e-01 0.000000000000000e+00
5.343832650151359e-01 3.999781558900957e-01 0.000000000000000e+00
5.500082327202890e-01 3.999794298963010e-01 0.000000000000000e+00
5.656331725887371e-01 3.999806736473275e-01 0.000000000000000e+00
5.812581251490465e-01 3.999819118188519e-01 0.000000000000000e+00
5.968831069449465e-01 3.999831601093463e-01 0.000000000000000e+00
6.125080806259053e-01 3.999844075210606e-01 0.000000000000000e+00
6.281330296500302e-01 3.999856475829769e-01 0.000000000000000e+00
6.437579906242229e-01 3.999868697197998e-01 0.000000000000000e+00
6.593829781005767e-01 3.999880754582354e-01 0.000000000000000e+00
6.750079539805219e-01 3.999892810259478e-01 0.000000000000000e+00
6.906329030125096e-01 3.999904961747309e-01 0.000000000000000e+00
7.062578699727771e-01 3.999917291456733e-01 0.000000000000000e+00
7.218828719910964e-01 3.999929787479246e-01 0.000000000000000e+00
7.375078743094201e-01 3.999942623437387e-01 0.000000000000000e+00
7.531328596945155e-01 3.999955633241280e-01 0.000000000000000e+00
7.687578853721972e-01 3.999966001824811e-01 0.000000000000000e+00
7.843829632681327e-01 3.999973400260209e-01 0.000000000000000e+00
8.000079789160929e-01 3.999983626692051e-01 0.000000000000000e+00
8.156328885866178e-01 3.999999061655076e-01 0.000000000000000e+00
8.312576559013618e-01 4.000022460323122e-01 0.000000000000000e+00
8.468823109951412e-01 4.000050913432435e-01 0.000000000000000e+00
8.625067928185869e-01 4.000054138180430e-01 0.000000000000000e+00
8.781311991540578e-01 4.000025834304075e-01 0.000000000000000e+00
8.937569136279512e-01 3.999996356258324e-01 0.000000000000000e+00
9.093843334896673e-01 3.999990544905372e-01 0.000000000000000e+00
9.250155333239294e-01 4.000153122894883e-01 0.000000000000000e+00
9.406501947439024e-01 4.000501101167485e-01 0.000000000000000e+00
5.003471297005323e-02 5.999411549540763e-01 0.000000000000000e+00
6.565060633822888e-02 5.999761769572045e-01 0.000000000000000e+00
8.126435319398460e-02 5.999840593620549e-01 0.000000000000000e+00
9.687466031918544e-02 5.999706032791554e-01 0.000000000000000e+00
1.124833296435100e-01 5.999667401619320e-01 0.000000000000000e+00
1.280925869383529e-01 5.999860502960824e-01 0.000000000000000e+00
1.437141148279375e-01 6.000186480392946e-01 0.000000000000000e+00
1.593495839077779e-01 6.000528332951849e-01 0.000000000000000e+00
1.749909105386389e-01 6.000683434348091e-01 0.000000000000000e+00
1.906309499344944e-01 6.000614721622129e-01 0.000000000000000e+00
2.062640656227225e-01 6.000493446430145e-01 0.000000000000000e+00
2.218898672676855e-01 6.000436968981865e-01 0.000000000000000e+00
2.375127731780488e-01 6.000433660026678e-01 0.000000000000000e+00
2.531363892092012e-01 6.000454916080877e-01 0.000000000000000e+00
2.687604095868377e-01 6.000462522214463e-01 0.000000000000000e+00
2.843845220753764e-01 6.000440990289803e-01 0.000000000000000e+00
3.000090333841183e-01 6.000415055228165e-01 0.000000000000000e+00
3.156339553931575e-01 6.000400151599754e-01 0.000000000000000e+00
3.312590316233210e-01 6.000388469126097e-01 0.000000000000000e+00
3.468840562185310e-01 6.000374456787869e-01 0.000000000000000e+00
3.625090135400301e-01 6.000360914696861e-01 0.000000000000000e+00
3.781339224843593e-01 6.000349139567426e-01 0.000000000000000e+00
3.937588328347745e-01 6.000336511609762e-01 0.000000000000000e+00
4.093837704019656e-01 6.000321968986844e-01 0.000000000000000e+00
4.250086921115693e-01 6.000307864805874e-01 0.000000000000000e+00
4.406335821296290e-01 6.000295306588256e-01 0.000000000000000e+00
4.562584988384488e-01 6.000282798511986e-01 0.000000000000000e+00
4.718834629082926e-01 6.000269510949519e-01 0.000000000000000e+00
4.875084210481627e-01 6.000256373143211e-01 0.000000000000000e+00
5.031333472813175e-01 6.000243831257164e-01 0.000000000000000e+00
5.187582888984154e-01 6.000231293699380e-01 0.000000000000000e+00
5.343832650151359e-01 6.000218441099043e-01 0.000000000000000e+00
5.500082327202891e-01 6.000205701036994e-01 0.000000000000000e+00
5.656331725887369e-01 6.000193263526725e-01 0.000000000000000e+00
5.812581251490468e-01 6.000180881811480e-01 0.000000000000000e+00
5.968831069449464e-01 6.000168398906537e-01 0.000000000000000e+00
6.125080806259057e-01 6.000155924789395e-01 0.000000000000000e+00
6.281330296500299e-01 6.000143524170231e-01 0.000000000000000e+00
6.437579906242230e-01 6.000131302802005e-01 0.000000000000000e+00
6.593829781005767e-01 6.000119245417647e-01 0.000000000000000e+00
6.750079539805218e-01 6.000107189740521e-01 0.000000000000000e+00
6.906329030125093e-01 6.000095038252693e-01 0.000000000000000e+00
7.062578699727773e-01 6.000082708543266e-01 0.000000000000000e+00
7.218828719910965e-01 6.000070212520756e-01 0.000000000000000e+00
7.375078743094198e-01 6.000057376562612e-01 0.000000000000000e+00
7.531328596945156e-01 6.000044366758721e-01 0.000000000000000e+00
7.687578853721970e-01 6.000033998175192e-01 0.000000000000000e+00
7.843829632681331e-01 6.000026599739789e-01 0.000000000000000e+00
8.000079789160928e-01 6.000016373307948e-01 0.000000000000000e+00
8.156328885866176e-01 6.000000938344923e-01 0.000000000000000e+00
8.312576559013619e-01 5.999977539676878e-01 0.000000000000000e+00
8.468823109951412e-01 5.999949086567568e-01 0.000000000000000e+00
8.625067928185868e-01 5.999945861819570e-01 0.000000000000000e+00
8.781311991540580e-01 5.999974165695925e-01 0.000000000000000e+00
8.937569136279511e-01 6.000003643741675e-01 0.000000000000000e+00
9.093843334896671e-01 6.000009455094631e-01 0.000000000000000e+00
9.250155333239293e-01 5.999846877105115e-01 0.000000000000000e+00
9.406501947439027e-01 5.999498898832515e-01 0.000000000000000e+00

POINT_DATA   116
SCALARS fNorm double
LOOKUP_TABLE default

4.913953e+02 
2.382724e+02 
1.598101e+02 
2.912371e+02 
3.281604e+02 
1.369563e+02 
1.847550e+02 
5.216331e+02 
6.747076e+02 
6.078083e+02 
4.886344e+02 
4.325269e+02 
4.287059e+02 
4.493742e+02 
4.568742e+02 
4.358162e+02 
4.103284e+02 
3.955307e+02 
3.838679e+02 
3.699598e+02 
3.565488e+02 
3.448919e+02 
3.324013e+02 
3.180225e+02 
3.040654e+02 
2.916217e+02 
2.792312e+02 
2.660817e+02 
2.530820e+02 
2.406677e+02 
2.282589e+02 
2.155416e+02 
2.029350e+02 
1.906254e+02 
1.783717e+02 
1.660198e+02 
1.536790e+02 
1.414127e+02 
1.293237e+02 
1.173957e+02 
1.054639e+02 
9.343167e+01 
8.122435e+01 
6.885831e+01 
5.618585e+01 
4.336968e+01 
3.312625e+01 
2.575917e+01 
1.553891e+01 
1.451602e-01 
2.293415e+01 
5.079231e+01 
5.374901e+01 
2.571270e+01 
2.987741e+00 
7.896897e+00 
1.528366e+02 
5.391675e+02 
4.913953e+02 
2.382724e+02 
1.598101e+02 
2.912371e+02 
3.281604e+02 
1.369563e+02 
1.847550e+02 
5.216331e+02 
6.747076e+02 
6.078083e+02 
4.886344e+02 
4.325269e+02 
4.287059e+02 
4.493742e+02 
4.568742e+02 
4.358162e+02 
4.103284e+02 
3.955307e+02 
3.838679e+02 
3.699598e+02 
3.565488e+02 
3.448919e+02 
3.324013e+02 
3.180225e+02 
3.040654e+02 
2.916217e+02 
2.792312e+02 
2.660817e+02 
2.530820e+02 
2.406677e+02 
2.282589e+02 
2.155416e+02 
2.029350e+02 
1.906254e+02 
1.783717e+02 
1.660198e+02 
1.536790e+02 
1.414127e+02 
1.293237e+02 
1.173957e+02 
1.054639e+02 
9.343167e+01 
8.122435e+01 
6.885831e+01 
5.618585e+01 
4.336968e+01 
3.312625e+01 
2.575917e+01 
1.553891e+01 
1.451602e-01 
2.293415e+01 
5.079231e+01 
5.374901e+01 
2.571270e+01 
2.987741e+00 
7.896897e+00 
1.528366e+02 
5.391675e+02 
