# vtk DataFile Version 2.0
Comment goes here
ASCII

DATASET STRUCTURED_POINTS
DIMENSIONS    64   64   1

ORIGIN    0.000   0.000   0.000
SPACING   0.0156250.015625   1.000

POINT_DATA   4096
SCALARS Omega double
LOOKUP_TABLE default

-1.042698e-05 -1.200139e-05 -1.673802e-05 -1.887987e-05 -2.172782e-05 -2.383428e-05 -2.477663e-05 -2.625367e-05 -2.559373e-05 -2.600281e-05 -2.418964e-05 -2.336481e-05 -2.081871e-05 -1.889193e-05 -1.591539e-05 -1.324252e-05 -1.003556e-05 -7.068559e-06 -3.807354e-06 -9.741344e-07 2.105023e-06 4.471582e-06 7.026624e-06 8.700118e-06 1.029836e-05 1.112303e-05 1.132295e-05 1.115559e-05 9.645836e-06 8.309849e-06 5.073322e-06 2.368609e-06 -2.191678e-06 -6.382142e-06 -1.143891e-05 -1.694508e-05 -2.142117e-05 -2.757510e-05 -3.046655e-05 -3.606545e-05 -3.678537e-05 -4.037466e-05 -3.895831e-05 -3.935993e-05 -3.643133e-05 -3.321773e-05 -2.974312e-05 -2.338570e-05 -2.036523e-05 -1.201921e-05 -1.026687e-05 -1.351880e-06 -1.403755e-06 6.811773e-06 4.712898e-06 1.137339e-05 7.277859e-06 1.199615e-05 6.250885e-06 9.004494e-06 2.240419e-06 3.218663e-06 -3.719696e-06 -4.215896e-06 
4.201666e-06 8.323847e-06 1.223243e-05 1.431816e-05 1.915049e-05 1.843402e-05 2.344554e-05 1.983025e-05 2.424718e-05 1.857669e-05 2.178053e-05 1.550233e-05 1.717642e-05 1.158654e-05 1.176427e-05 7.437647e-06 6.443541e-06 3.230350e-06 1.561979e-06 -9.996004e-07 -2.797827e-06 -5.045732e-06 -6.481480e-06 -8.424097e-06 -9.107917e-06 -1.046707e-05 -1.011572e-05 -1.051590e-05 -8.931590e-06 -8.125871e-06 -5.186772e-06 -3.238507e-06 1.068255e-06 3.710303e-06 9.203428e-06 1.178376e-05 1.798005e-05 1.967233e-05 2.573055e-05 2.595017e-05 3.075576e-05 2.939465e-05 3.182484e-05 2.927832e-05 2.857518e-05 2.556448e-05 2.163440e-05 1.894855e-05 1.242148e-05 1.071783e-05 2.737813e-06 2.454956e-06 -5.682753e-06 -4.339227e-06 -1.153100e-05 -8.588729e-06 -1.411057e-05 -9.824373e-06 -1.333414e-05 -8.144364e-06 -9.568591e-06 -4.033159e-06 -3.445829e-06 1.782714e-06 
1.841701e-05 2.175573e-05 2.044408e-05 1.968405e-05 1.631942e-05 9.684734e-06 4.494620e-06 -7.510300e-06 -1.270554e-05 -2.679415e-05 -2.925286e-05 -4.089750e-05 -3.859798e-05 -4.464663e-05 -3.759240e-05 -3.774968e-05 -2.782598e-05 -2.404264e-05 -1.378076e-05 -8.609886e-06 -2.150735e-08 4.626681e-06 1.048604e-05 1.369234e-05 1.655795e-05 1.814446e-05 1.819512e-05 1.832897e-05 1.594930e-05 1.485679e-05 1.058004e-05 8.427987e-06 2.988012e-06 -1.058279e-07 -5.736910e-06 -9.618979e-06 -1.431882e-05 -1.868501e-05 -2.143577e-05 -2.573439e-05 -2.596326e-05 -2.939699e-05 -2.721406e-05 -2.893745e-05 -2.510550e-05 -2.459273e-05 -2.023409e-05 -1.757487e-05 -1.378526e-05 -9.676218e-06 -7.230096e-06 -2.645719e-06 -1.855776e-06 2.422265e-06 1.733573e-06 5.477907e-06 3.918589e-06 7.500398e-06 5.905441e-06 9.959260e-06 9.007239e-06 1.383658e-05 1.361596e-05 1.859575e-05 
2.705360e-07 3.948392e-06 9.383095e-06 1.052786e-05 1.807359e-05 1.376463e-05 2.305636e-05 1.191230e-05 2.220143e-05 6.064161e-06 1.633263e-05 -4.879943e-07 8.709764e-06 -4.731768e-06 2.596659e-06 -5.821289e-06 -7.309553e-07 -4.943946e-06 -1.988286e-06 -3.865471e-06 -2.564595e-06 -3.654235e-06 -3.342459e-06 -4.308918e-06 -4.324020e-06 -5.085628e-06 -4.886932e-06 -5.046859e-06 -4.256344e-06 -3.520236e-06 -1.916686e-06 -3.606576e-07 2.141838e-06 3.997202e-06 7.364116e-06 8.688250e-06 1.275322e-05 1.272350e-05 1.713655e-05 1.531825e-05 1.948172e-05 1.604604e-05 1.914772e-05 1.476268e-05 1.601838e-05 1.151757e-05 1.053092e-05 6.606792e-06 3.605692e-06 6.870817e-07 -3.531744e-06 -5.239210e-06 -9.631257e-06 -1.007154e-05 -1.374129e-05 -1.299188e-05 -1.543389e-05 -1.369417e-05 -1.477215e-05 -1.224001e-05 -1.197947e-05 -8.703177e-06 -7.032373e-06 -3.109317e-06 
5.132529e-05 6.134376e-05 6.536571e-05 6.676858e-05 6.384969e-05 5.090677e-05 4.082222e-05 1.353468e-05 6.809047e-07 -3.304307e-05 -4.121417e-05 -6.958760e-05 -6.731909e-05 -8.230365e-05 -6.936724e-05 -7.071249e-05 -5.178335e-05 -4.473619e-05 -2.573334e-05 -1.632896e-05 -1.387074e-06 6.471301e-06 1.579070e-05 2.068974e-05 2.466358e-05 2.675757e-05 2.646172e-05 2.648559e-05 2.311343e-05 2.180100e-05 1.643485e-05 1.431064e-05 7.980450e-06 5.343108e-06 -8.438161e-07 -3.885074e-06 -8.733829e-06 -1.219084e-05 -1.463928e-05 -1.846798e-05 -1.797441e-05 -2.179710e-05 -1.862918e-05 -2.166603e-05 -1.683899e-05 -1.834542e-05 -1.322385e-05 -1.304168e-05 -8.840553e-06 -7.539567e-06 -4.969958e-06 -3.466268e-06 -2.578331e-06 -1.457892e-06 -1.589790e-06 -5.155410e-07 -3.445219e-07 2.034895e-06 4.135663e-06 9.550680e-06 1.467601e-05 2.401375e-05 3.168919e-05 4.359077e-05 
-4.805262e-06 -7.329459e-07 7.888213e-06 9.012852e-06 2.178851e-05 1.265820e-05 2.955584e-05 5.961693e-06 2.600659e-05 -7.984050e-06 1.323833e-05 -2.064919e-05 -6.762467e-07 -2.517806e-05 -8.467294e-06 -2.101192e-05 -8.667668e-06 -1.249729e-05 -4.582878e-06 -4.555468e-06 -2.987634e-07 1.958252e-07 1.960594e-06 1.703454e-06 2.121541e-06 1.358203e-06 1.324721e-06 7.878970e-07 8.895096e-07 1.087185e-06 1.644222e-06 2.505994e-06 3.663329e-06 4.505122e-06 6.341241e-06 6.121428e-06 8.727149e-06 6.544914e-06 9.977625e-06 5.620105e-06 9.674962e-06 3.826620e-06 7.812576e-06 1.640729e-06 4.568133e-06 -9.461696e-07 1.804082e-07 -4.255247e-06 -4.953933e-06 -8.367581e-06 -1.014800e-05 -1.276360e-05 -1.451108e-05 -1.649306e-05 -1.730826e-05 -1.877571e-05 -1.833524e-05 -1.945326e-05 -1.791038e-05 -1.865860e-05 -1.627041e-05 -1.595697e-05 -1.258250e-05 -1.011253e-05 
9.415018e-05 1.156819e-04 1.302677e-04 1.371040e-04 1.374997e-04 1.150340e-04 9.837833e-05 4.394599e-05 1.823271e-05 -5.091456e-05 -6.898675e-05 -1.251605e-04 -1.222566e-04 -1.481040e-04 -1.242908e-04 -1.222819e-04 -8.846456e-05 -7.235792e-05 -4.057341e-05 -2.307080e-05 -1.547275e-07 1.238162e-05 2.515248e-05 3.165837e-05 3.611069e-05 3.799010e-05 3.674525e-05 3.584127e-05 3.112985e-05 2.888044e-05 2.229154e-05 1.960566e-05 1.232001e-05 9.683999e-06 2.825584e-06 3.444418e-07 -4.826177e-06 -7.487961e-06 -9.755977e-06 -1.321010e-05 -1.195140e-05 -1.633199e-05 -1.197610e-05 -1.628998e-05 -1.023780e-05 -1.317553e-05 -7.206349e-06 -8.337010e-06 -3.891006e-06 -3.990862e-06 -1.746384e-06 -2.202507e-06 -1.958310e-06 -3.667129e-06 -4.250716e-06 -6.486714e-06 -5.620098e-06 -5.645747e-06 -2.480747e-07 5.706655e-06 1.808117e-05 3.267447e-05 5.153934e-05 7.349023e-05 
-1.398299e-05 -8.023417e-06 7.360007e-06 1.153336e-05 3.477170e-05 1.924390e-05 5.069705e-05 3.380311e-06 4.174679e-05 -2.792585e-05 1.319871e-05 -5.268196e-05 -1.445889e-05 -5.591170e-05 -2.483697e-05 -4.001106e-05 -1.795776e-05 -1.765131e-05 -4.202817e-06 2.348035e-07 7.035302e-06 9.611314e-06 1.215265e-05 1.179453e-05 1.210529e-05 1.012872e-05 9.599164e-06 7.666060e-06 7.086937e-06 6.156665e-06 5.873407e-06 5.852517e-06 5.952321e-06 5.781701e-06 6.313156e-06 4.445879e-06 5.660587e-06 9.002088e-07 3.329966e-06 -4.256276e-06 -2.527815e-07 -9.033775e-06 -4.082906e-06 -1.191880e-05 -7.510747e-06 -1.321892e-05 -1.069312e-05 -1.451237e-05 -1.412576e-05 -1.710989e-05 -1.785305e-05 -2.100879e-05 -2.120582e-05 -2.499501e-05 -2.334612e-05 -2.782235e-05 -2.410203e-05 -2.944015e-05 -2.416680e-05 -3.039620e-05 -2.425663e-05 -2.970517e-05 -2.281359e-05 -2.345160e-05 
1.530495e-04 1.962457e-04 2.332042e-04 2.550973e-04 2.664402e-04 2.300516e-04 2.032618e-04 9.484550e-05 4.313120e-05 -9.874918e-05 -1.367318e-04 -2.442149e-04 -2.374549e-04 -2.739660e-04 -2.261774e-04 -2.075029e-04 -1.456944e-04 -1.078674e-04 -5.586635e-05 -2.380589e-05 9.070025e-06 2.759235e-05 4.293731e-05 4.994198e-05 5.333247e-05 5.337398e-05 5.004806e-05 4.685343e-05 4.029303e-05 3.612426e-05 2.821092e-05 2.428657e-05 1.600104e-05 1.302589e-05 5.204786e-06 3.503293e-06 -2.606251e-06 -3.604155e-06 -6.370052e-06 -8.565231e-06 -6.897061e-06 -1.180110e-05 -6.154074e-06 -1.198155e-05 -4.334276e-06 -8.212545e-06 -1.101506e-06 -2.082910e-06 2.636133e-06 3.119069e-06 4.786335e-06 4.063420e-06 3.099173e-06 -1.037111e-06 -3.105611e-06 -1.020238e-05 -1.009620e-05 -1.555844e-05 -7.675586e-06 -4.132087e-06 1.742306e-05 3.672715e-05 7.293517e-05 1.094157e-04 
-3.309901e-05 -2.346342e-05 5.782761e-06 2.174223e-05 6.433591e-05 4.029654e-05 9.713430e-05 -2.041330e-06 7.136668e-05 -7.717354e-05 5.655238e-06 -1.223321e-04 -4.629859e-05 -1.098593e-04 -5.218365e-05 -6.091743e-05 -2.426855e-05 -1.053030e-05 8.825321e-06 2.156014e-05 2.954876e-05 3.359057e-05 3.541918e-05 3.246816e-05 3.164675e-05 2.598063e-05 2.447713e-05 1.952300e-05 1.822052e-05 1.555326e-05 1.464427e-05 1.393797e-05 1.319753e-05 1.253024e-05 1.158516e-05 8.251347e-06 7.143058e-06 -8.364141e-07 -8.300289e-07 -1.302732e-05 -1.001170e-05 -2.297274e-05 -1.729112e-05 -2.669923e-05 -2.093660e-05 -2.525159e-05 -2.201710e-05 -2.309561e-05 -2.309615e-05 -2.409105e-05 -2.568832e-05 -2.903881e-05 -2.908063e-05 -3.557392e-05 -3.150181e-05 -4.074293e-05 -3.249584e-05 -4.468009e-05 -3.313321e-05 -4.955208e-05 -3.579674e-05 -5.483151e-05 -4.035381e-05 -5.103424e-05 
2.340103e-04 3.158764e-04 3.982462e-04 4.584923e-04 4.946423e-04 4.327302e-04 3.765052e-04 1.403061e-04 2.071308e-05 -2.865257e-04 -3.616799e-04 -5.567193e-04 -5.175647e-04 -5.358874e-04 -4.182567e-04 -3.378654e-04 -2.158691e-04 -1.283426e-04 -4.360780e-05 1.175783e-05 5.510695e-05 7.842193e-05 9.283847e-05 9.661080e-05 9.564294e-05 9.070240e-05 8.344456e-05 7.593528e-05 6.693647e-05 5.955168e-05 5.035314e-05 4.416358e-05 3.481713e-05 3.068981e-05 2.095152e-05 2.008681e-05 1.061896e-05 1.313771e-05 6.710232e-06 8.225014e-06 7.871455e-06 1.537580e-06 7.211733e-06 -2.447085e-06 6.592092e-06 1.341736e-06 9.853524e-06 1.095966e-05 1.628125e-05 2.072423e-05 2.234928e-05 2.525548e-05 2.424728e-05 2.055847e-05 1.819736e-05 5.374492e-06 4.062718e-06 -1.176076e-05 -3.114461e-06 -9.331295e-06 2.283219e-05 3.946618e-05 1.009384e-04 1.518690e-04 
-6.223309e-05 -5.793732e-05 -9.930192e-06 2.732684e-05 7.385704e-05 -1.014899e-06 4.048715e-05 -2.338770e-04 -1.238506e-04 -4.662130e-04 -2.548396e-04 -4.527561e-04 -2.241615e-04 -2.425415e-04 -8.545905e-05 -2.689138e-05 4.831547e-05 1.026526e-04 1.290356e-04 1.538030e-04 1.588310e-04 1.586824e-04 1.561209e-04 1.436676e-04 1.394066e-04 1.249425e-04 1.212438e-04 1.104519e-04 1.078700e-04 1.025939e-04 1.007873e-04 9.982920e-05 9.770939e-05 9.702320e-05 9.231853e-05 8.580645e-05 7.587877e-05 5.951327e-05 4.754606e-05 2.437404e-05 1.929896e-05 -4.383356e-06 -2.639840e-06 -1.726994e-05 -1.313207e-05 -1.500247e-05 -1.298838e-05 -7.871159e-06 -1.018580e-05 -6.260558e-06 -1.077124e-05 -1.248108e-05 -1.128395e-05 -1.788146e-05 -4.697155e-06 -1.641143e-05 3.934242e-06 -1.481615e-05 9.947820e-06 -2.343546e-05 3.979888e-06 -5.387196e-05 -3.138636e-05 -8.648872e-05 
3.768281e-04 4.875995e-04 6.226864e-04 7.250659e-04 7.090146e-04 4.386773e-04 8.579029e-05 -6.749065e-04 -1.117391e-03 -1.851523e-03 -1.879617e-03 -1.999964e-03 -1.565315e-03 -1.205916e-03 -7.118801e-04 -3.335066e-04 -2.190627e-05 1.953161e-04 3.378300e-04 4.231999e-04 4.690758e-04 4.856445e-04 4.875999e-04 4.775451e-04 4.644287e-04 4.479304e-04 4.326352e-04 4.167844e-04 4.031987e-04 3.891369e-04 3.767112e-04 3.636103e-04 3.495253e-04 3.366173e-04 3.154857e-04 3.029496e-04 2.685302e-04 2.610947e-04 2.234701e-04 2.242540e-04 2.017890e-04 1.782136e-04 1.653381e-04 1.294368e-04 1.255792e-04 1.066888e-04 1.100933e-04 1.122077e-04 1.171312e-04 1.302874e-04 1.354254e-04 1.554730e-04 1.724643e-04 1.995255e-04 2.300738e-04 2.391200e-04 2.608253e-04 2.460669e-04 2.626238e-04 2.365661e-04 2.673228e-04 2.291513e-04 2.840425e-04 2.797575e-04 
7.305906e-05 -8.884787e-05 -1.454623e-04 -2.710300e-04 -7.010933e-04 -1.571500e-03 -2.511638e-03 -4.081690e-03 -4.453278e-03 -5.358255e-03 -4.299044e-03 -3.699099e-03 -2.026711e-03 -8.872902e-04 1.927833e-04 8.842198e-04 1.255114e-03 1.491696e-03 1.552377e-03 1.585733e-03 1.570965e-03 1.539149e-03 1.516390e-03 1.472288e-03 1.453748e-03 1.416052e-03 1.402106e-03 1.375854e-03 1.364410e-03 1.348810e-03 1.336772e-03 1.326839e-03 1.308589e-03 1.290580e-03 1.249031e-03 1.192479e-03 1.096384e-03 9.873821e-04 8.649477e-04 7.692489e-04 6.979698e-04 6.099945e-04 5.487825e-04 4.682384e-04 4.155415e-04 3.801936e-04 3.514596e-04 3.530418e-04 3.366821e-04 3.436587e-04 3.325058e-04 3.491626e-04 3.985793e-04 4.767389e-04 6.167070e-04 7.082413e-04 8.434137e-04 8.945741e-04 9.913101e-04 9.585259e-04 9.768582e-04 7.253254e-04 6.021770e-04 2.196448e-04 
1.183712e-03 8.262581e-04 5.874125e-04 8.160946e-05 -1.533681e-03 -4.605637e-03 -8.722998e-03 -1.375517e-02 -1.699660e-02 -1.907383e-02 -1.719171e-02 -1.377771e-02 -8.523215e-03 -3.732898e-03 9.084876e-05 2.655703e-03 4.092656e-03 4.854584e-03 5.161330e-03 5.261699e-03 5.254502e-03 5.202714e-03 5.140301e-03 5.075007e-03 5.017019e-03 4.963246e-03 4.917531e-03 4.872153e-03 4.832269e-03 4.785328e-03 4.739335e-03 4.676939e-03 4.604232e-03 4.497610e-03 4.340287e-03 4.119708e-03 3.775334e-03 3.447210e-03 3.048962e-03 2.904500e-03 2.715723e-03 2.541504e-03 2.325207e-03 2.035526e-03 1.817075e-03 1.620564e-03 1.505319e-03 1.439507e-03 1.393362e-03 1.376569e-03 1.360651e-03 1.444532e-03 1.660150e-03 2.077813e-03 2.593671e-03 3.061899e-03 3.484698e-03 3.766047e-03 3.992155e-03 4.030958e-03 3.918210e-03 3.344341e-03 2.726214e-03 1.771302e-03 
2.503330e-03 4.012031e-04 -1.211149e-03 -3.869876e-03 -1.018001e-02 -2.056476e-02 -3.395827e-02 -4.842534e-02 -5.623644e-02 -5.923645e-02 -5.001358e-02 -3.671635e-02 -1.943122e-02 -4.778675e-03 5.817204e-03 1.237178e-02 1.550902e-02 1.695017e-02 1.729068e-02 1.726666e-02 1.710098e-02 1.687784e-02 1.671816e-02 1.653642e-02 1.642608e-02 1.629741e-02 1.621371e-02 1.611476e-02 1.603054e-02 1.593348e-02 1.581737e-02 1.568317e-02 1.547693e-02 1.519315e-02 1.469594e-02 1.392307e-02 1.272952e-02 1.132768e-02 9.940888e-03 9.207523e-03 8.792013e-03 8.385134e-03 7.785674e-03 7.004479e-03 6.241797e-03 5.648926e-03 5.195814e-03 4.937795e-03 4.693743e-03 4.490817e-03 4.265816e-03 4.294005e-03 4.876096e-03 6.175666e-03 7.979154e-03 9.664367e-03 1.120275e-02 1.237019e-02 1.331375e-02 1.373541e-02 1.342120e-02 1.152352e-02 8.979707e-03 5.268034e-03 
8.571682e-03 2.383073e-03 -2.193866e-03 -9.580985e-03 -2.779708e-02 -5.960658e-02 -1.020650e-01 -1.464891e-01 -1.757533e-01 -1.831180e-01 -1.586304e-01 -1.139476e-01 -6.034131e-02 -1.351316e-02 1.931423e-02 3.890609e-02 4.838943e-02 5.228239e-02 5.327140e-02 5.313956e-02 5.264016e-02 5.212218e-02 5.166199e-02 5.130717e-02 5.100961e-02 5.077905e-02 5.056813e-02 5.036963e-02 5.015510e-02 4.989498e-02 4.957102e-02 4.911758e-02 4.848055e-02 4.746490e-02 4.581080e-02 4.308863e-02 3.896676e-02 3.411628e-02 2.953127e-02 2.792212e-02 2.747783e-02 2.707023e-02 2.561410e-02 2.323358e-02 2.082566e-02 1.876155e-02 1.726322e-02 1.622674e-02 1.532692e-02 1.434818e-02 1.329302e-02 1.299407e-02 1.472882e-02 1.934749e-02 2.548690e-02 3.140731e-02 3.640688e-02 4.037804e-02 4.347227e-02 4.527896e-02 4.423363e-02 3.869949e-02 2.965739e-02 1.805589e-02 
2.346594e-02 3.762075e-03 -8.597500e-03 -2.893646e-02 -8.173635e-02 -1.745891e-01 -2.994048e-01 -4.257104e-01 -5.036526e-01 -5.159375e-01 -4.350992e-01 -2.994200e-01 -1.442823e-01 -1.425625e-02 7.280552e-02 1.223724e-01 1.448485e-01 1.532068e-01 1.546734e-01 1.536953e-01 1.521737e-01 1.507020e-01 1.495732e-01 1.486823e-01 1.480310e-01 1.475135e-01 1.470787e-01 1.466629e-01 1.461941e-01 1.456222e-01 1.448266e-01 1.437299e-01 1.420011e-01 1.392247e-01 1.342710e-01 1.257865e-01 1.123549e-01 9.556549e-02 8.026142e-02 7.536438e-02 7.716730e-02 7.887503e-02 7.639572e-02 7.051772e-02 6.361519e-02 5.766697e-02 5.310668e-02 4.982902e-02 4.672279e-02 4.290551e-02 3.821574e-02 3.528082e-02 3.912202e-02 5.304727e-02 7.256467e-02 9.104803e-02 1.064122e-01 1.188048e-01 1.290600e-01 1.362602e-01 1.350008e-01 1.194003e-01 9.092154e-02 5.412699e-02 
5.757677e-02 1.889310e-03 -2.438895e-02 -6.408752e-02 -1.908868e-01 -4.354910e-01 -7.729586e-01 -1.118046e+00 -1.345096e+00 -1.374308e+00 -1.162957e+00 -7.792625e-01 -3.531666e-01 -4.173426e-03 2.216386e-01 3.438405e-01 3.971563e-01 4.148783e-01 4.166654e-01 4.134109e-01 4.090448e-01 4.055529e-01 4.027188e-01 4.009037e-01 3.994825e-01 3.986101e-01 3.978191e-01 3.971565e-01 3.963058e-01 3.951594e-01 3.934504e-01 3.907546e-01 3.864332e-01 3.787333e-01 3.647364e-01 3.392266e-01 2.976103e-01 2.433976e-01 1.940988e-01 1.848830e-01 2.015703e-01 2.160274e-01 2.146569e-01 2.002459e-01 1.818898e-01 1.652758e-01 1.525855e-01 1.429587e-01 1.333857e-01 1.202272e-01 1.025582e-01 8.801574e-02 9.513751e-02 1.377573e-01 1.976477e-01 2.526896e-01 2.966957e-01 3.322020e-01 3.635624e-01 3.887017e-01 3.912272e-01 3.499920e-01 2.630030e-01 1.518499e-01 
1.274999e-01 -2.678916e-02 -6.844508e-02 -1.221833e-01 -4.058721e-01 -1.009926e+00 -1.875326e+00 -2.757655e+00 -3.313998e+00 -3.364046e+00 -2.791545e+00 -1.786105e+00 -7.112653e-01 1.272373e-01 6.425685e-01 9.063615e-01 1.013316e+00 1.043570e+00 1.041837e+00 1.031367e+00 1.020086e+00 1.011588e+00 1.005210e+00 1.001353e+00 9.986614e-01 9.973031e-01 9.962362e-01 9.955397e-01 9.944295e-01 9.926901e-01 9.896343e-01 9.842038e-01 9.747655e-01 9.565994e-01 9.211569e-01 8.526313e-01 7.329318e-01 5.666044e-01 4.076725e-01 3.888066e-01 4.745747e-01 5.438993e-01 5.570597e-01 5.269815e-01 4.819628e-01 4.401284e-01 4.078662e-01 3.828194e-01 3.565484e-01 3.166226e-01 2.567327e-01 1.963479e-01 1.987781e-01 3.206797e-01 4.958218e-01 6.462063e-01 7.624138e-01 8.550185e-01 9.439300e-01 1.026480e+00 1.060151e+00 9.653036e-01 7.209449e-01 4.005613e-01 
1.993150e-01 -2.197528e-01 -2.372824e-01 -1.687558e-01 -6.776248e-01 -2.028034e+00 -4.065931e+00 -6.203381e+00 -7.562148e+00 -7.662147e+00 -6.323770e+00 -3.835857e+00 -1.275297e+00 5.989888e-01 1.680377e+00 2.191308e+00 2.378992e+00 2.418271e+00 2.400484e+00 2.372887e+00 2.345812e+00 2.327894e+00 2.314630e+00 2.307877e+00 2.303710e+00 2.302759e+00 2.302572e+00 2.303470e+00 2.303569e+00 2.302462e+00 2.298973e+00 2.289692e+00 2.272586e+00 2.233704e+00 2.153595e+00 1.984896e+00 1.665283e+00 1.184238e+00 6.751728e-01 6.597312e-01 1.024182e+00 1.278104e+00 1.350682e+00 1.287979e+00 1.184764e+00 1.086383e+00 1.011495e+00 9.530471e-01 8.890876e-01 7.803927e-01 5.972161e-01 3.754025e-01 3.228410e-01 6.748098e-01 1.171390e+00 1.550846e+00 1.833960e+00 2.051817e+00 2.287383e+00 2.536880e+00 2.720641e+00 2.539010e+00 1.868208e+00 9.693730e-01 
1.400742e-01 -9.951657e-01 -8.099304e-01 -3.434523e-02 -7.222869e-01 -3.490822e+00 -8.064256e+00 -1.302963e+01 -1.592022e+01 -1.610204e+01 -1.307246e+01 -7.252297e+00 -1.637577e+00 2.087307e+00 4.054785e+00 4.884570e+00 5.143676e+00 5.157385e+00 5.091650e+00 5.024709e+00 4.965508e+00 4.929813e+00 4.904833e+00 4.894117e+00 4.889702e+00 4.891863e+00 4.896420e+00 4.903892e+00 4.910079e+00 4.914463e+00 4.916533e+00 4.905208e+00 4.883572e+00 4.814581e+00 4.660494e+00 4.305882e+00 3.530545e+00 2.251625e+00 5.844456e-01 6.015726e-01 2.014232e+00 2.796583e+00 3.049172e+00 2.915999e+00 2.694553e+00 2.480253e+00 2.322721e+00 2.202257e+00 2.069406e+00 1.811848e+00 1.311865e+00 5.678390e-01 2.041539e-01 1.229439e+00 2.605075e+00 3.450930e+00 4.086291e+00 4.524258e+00 5.094628e+00 5.767321e+00 6.553387e+00 6.380484e+00 4.622335e+00 2.212822e+00 
-8.322173e-01 -4.034829e+00 -3.024882e+00 9.007883e-01 6.357808e-01 -4.466762e+00 -1.399929e+01 -2.546781e+01 -3.110839e+01 -3.142576e+01 -2.551760e+01 -1.223241e+01 -6.276429e-01 5.875617e+00 8.916264e+00 9.942104e+00 1.017516e+01 1.006808e+01 9.894335e+00 9.757730e+00 9.638685e+00 9.580012e+00 9.538561e+00 9.526083e+00 9.527315e+00 9.540408e+00 9.560939e+00 9.587679e+00 9.613850e+00 9.635075e+00 9.666053e+00 9.660443e+00 9.664150e+00 9.568346e+00 9.326266e+00 8.750362e+00 7.050742e+00 4.071828e+00 -1.590715e+00 -1.340935e+00 3.921562e+00 5.780870e+00 6.477991e+00 6.106691e+00 5.666767e+00 5.226312e+00 4.928928e+00 4.713738e+00 4.492530e+00 3.978874e+00 2.795511e+00 4.716953e-01 -1.333722e+00 1.862062e+00 5.641364e+00 7.124154e+00 8.503551e+00 9.145426e+00 1.046105e+01 1.197618e+01 1.496336e+01 1.563881e+01 1.095841e+01 4.619130e+00 
-4.709234e+00 -1.416432e+01 -1.103456e+01 4.594406e+00 6.232749e+00 -1.833042e+00 -2.023094e+01 -4.837888e+01 -5.605002e+01 -5.741713e+01 -4.776038e+01 -1.688879e+01 5.409220e+00 1.434621e+01 1.797028e+01 1.845026e+01 1.846156e+01 1.798471e+01 1.762565e+01 1.737952e+01 1.714351e+01 1.707597e+01 1.700773e+01 1.700128e+01 1.701976e+01 1.706189e+01 1.712499e+01 1.719491e+01 1.728343e+01 1.732283e+01 1.745417e+01 1.744857e+01 1.760089e+01 1.753597e+01 1.716543e+01 1.689742e+01 1.342890e+01 8.760181e+00 -1.174241e+01 -1.058414e+01 8.992819e+00 1.123037e+01 1.311623e+01 1.174709e+01 1.104150e+01 1.013704e+01 9.660987e+00 9.325206e+00 9.094828e+00 8.316130e+00 6.178878e+00 -4.954332e-01 -8.825278e+00 2.136743e+00 1.260398e+01 1.332161e+01 1.677029e+01 1.658366e+01 1.976943e+01 2.174005e+01 3.207637e+01 3.810921e+01 2.501216e+01 8.950339e+00 
-1.691314e+01 -4.843956e+01 -4.807373e+01 5.591892e+00 1.809891e+01 4.545221e+00 -1.553939e+01 -6.572386e+01 -6.525399e+01 -6.724718e+01 -6.079969e+01 -1.115805e+01 1.737988e+01 2.338465e+01 2.445764e+01 2.310405e+01 2.227405e+01 2.120323e+01 2.051478e+01 2.017290e+01 1.978449e+01 1.970211e+01 1.965291e+01 1.961857e+01 1.972125e+01 1.980573e+01 1.998912e+01 2.012395e+01 2.042790e+01 2.044232e+01 2.085913e+01 2.084656e+01 2.144731e+01 2.181581e+01 2.107363e+01 2.352546e+01 1.767572e+01 1.972795e+01 -2.594428e+01 -1.069548e+01 3.180973e+01 1.873593e+01 2.630567e+01 2.018900e+01 2.019334e+01 1.796984e+01 1.750215e+01 1.696871e+01 1.717791e+01 1.644284e+01 1.524297e+01 8.986324e+00 -1.752993e+01 3.264565e+00 2.376085e+01 1.733454e+01 2.632901e+01 2.135620e+01 2.943631e+01 2.800880e+01 5.384997e+01 8.247552e+01 5.365508e+01 1.530345e+01 
-4.025029e+01 -1.309850e+02 -1.852077e+02 -6.982052e+01 6.340342e+00 -2.712765e+01 2.009006e+01 5.775641e+01 7.900279e+01 8.454844e+01 6.102572e+01 2.017222e+01 -6.401147e+00 -1.178191e+01 -2.500247e+01 -2.612567e+01 -3.154661e+01 -3.180612e+01 -3.364381e+01 -3.397477e+01 -3.406577e+01 -3.467395e+01 -3.416443e+01 -3.455086e+01 -3.405617e+01 -3.407203e+01 -3.360079e+01 -3.346324e+01 -3.273486e+01 -3.260531e+01 -3.169441e+01 -3.110357e+01 -3.014176e+01 -2.793407e+01 -2.828835e+01 -2.104264e+01 -2.355207e+01 -6.005195e+00 -2.808777e+01 -9.534252e+00 1.881917e+01 5.553093e+00 2.041524e+01 1.448168e+01 1.778397e+01 1.584944e+01 1.612192e+01 1.565204e+01 1.585853e+01 1.527710e+01 1.388268e+01 1.497022e+01 -8.726989e+00 -2.446951e+00 2.828369e+00 -9.607487e+00 5.870726e-01 -9.419530e+00 2.242843e+00 -3.167039e+00 1.469366e+01 9.444925e+01 9.055856e+01 2.049914e+01 
-5.114110e+01 -1.654110e+02 -2.711261e+02 -1.806261e+02 -6.336050e+01 -9.775862e+01 -3.047342e+01 -4.611858e+01 -5.429120e+01 -4.539848e+01 -5.216930e+01 -3.360116e+01 -7.930301e+01 -8.384864e+01 -1.045684e+02 -1.042119e+02 -1.127047e+02 -1.121681e+02 -1.145814e+02 -1.150821e+02 -1.147375e+02 -1.157776e+02 -1.149072e+02 -1.154771e+02 -1.148346e+02 -1.149428e+02 -1.144247e+02 -1.142983e+02 -1.135567e+02 -1.131070e+02 -1.121363e+02 -1.107539e+02 -1.098989e+02 -1.065320e+02 -1.048590e+02 -9.815713e+01 -9.234414e+01 -7.901869e+01 -4.144109e+01 -3.880839e+01 -4.658909e+01 -4.446834e+01 -4.430421e+01 -3.782643e+01 -3.804403e+01 -3.347532e+01 -3.351723e+01 -3.251440e+01 -3.176770e+01 -3.409943e+01 -3.227024e+01 -3.145853e+01 -2.514644e+01 -3.602803e+01 -5.216330e+01 -5.406373e+01 -5.409782e+01 -5.875727e+01 -5.387886e+01 -5.447581e+01 -6.644479e+01 1.904156e+01 7.061749e+01 1.277579e+01 
-4.090026e+01 -1.115639e+02 -1.904194e+02 -1.783690e+02 -1.114252e+02 -1.278140e+02 -1.481542e+02 -1.702970e+02 -1.661044e+02 -1.641602e+02 -1.741944e+02 -1.428501e+02 -1.203662e+02 -1.082468e+02 -1.154983e+02 -1.142542e+02 -1.191073e+02 -1.191425e+02 -1.206595e+02 -1.212829e+02 -1.211233e+02 -1.217925e+02 -1.213955e+02 -1.216723e+02 -1.213914e+02 -1.214227e+02 -1.211836e+02 -1.210480e+02 -1.206981e+02 -1.201980e+02 -1.196445e+02 -1.184503e+02 -1.178112e+02 -1.155159e+02 -1.130844e+02 -1.106878e+02 -1.044604e+02 -1.093622e+02 -9.218139e+01 -1.275627e+02 -1.199977e+02 -9.840160e+01 -1.136431e+02 -9.673014e+01 -1.023591e+02 -9.232351e+01 -9.205390e+01 -8.851132e+01 -8.524252e+01 -8.623662e+01 -7.851641e+01 -9.075513e+01 -7.180055e+01 -6.070711e+01 -6.959656e+01 -6.205483e+01 -6.757434e+01 -6.583440e+01 -6.792994e+01 -6.411859e+01 -8.080510e+01 -4.295057e+01 1.187346e+01 -3.020084e+00 
-2.628296e+01 -5.866979e+01 -9.542509e+01 -1.038820e+02 -8.664485e+01 -9.495960e+01 -1.225852e+02 -1.046929e+02 -9.657089e+01 -9.609218e+01 -1.016902e+02 -1.141527e+02 -9.576089e+01 -8.168177e+01 -7.727811e+01 -7.414549e+01 -7.443795e+01 -7.429813e+01 -7.480562e+01 -7.515105e+01 -7.524929e+01 -7.549869e+01 -7.547208e+01 -7.554484e+01 -7.549396e+01 -7.547414e+01 -7.539648e+01 -7.530413e+01 -7.515358e+01 -7.489678e+01 -7.463120e+01 -7.408076e+01 -7.364557e+01 -7.262066e+01 -7.145855e+01 -7.073839e+01 -6.947707e+01 -7.680477e+01 -9.548836e+01 -1.405524e+02 -1.235954e+02 -9.959230e+01 -1.058016e+02 -9.354613e+01 -9.584156e+01 -8.857203e+01 -8.654841e+01 -8.233588e+01 -7.791925e+01 -7.534125e+01 -6.854042e+01 -7.960123e+01 -6.826761e+01 -4.712708e+01 -4.538976e+01 -4.078826e+01 -4.265642e+01 -4.174082e+01 -4.310472e+01 -4.174904e+01 -4.677095e+01 -3.418017e+01 -9.994474e+00 -9.619977e+00 
-1.472077e+01 -2.828309e+01 -4.366661e+01 -5.081633e+01 -5.097545e+01 -6.151145e+01 -9.802081e+01 -8.962807e+01 -7.326270e+01 -7.266934e+01 -8.323770e+01 -9.202563e+01 -7.019250e+01 -5.487486e+01 -4.598089e+01 -4.104027e+01 -3.901697e+01 -3.818625e+01 -3.807671e+01 -3.813560e+01 -3.823849e+01 -3.832947e+01 -3.837886e+01 -3.840387e+01 -3.840943e+01 -3.839476e+01 -3.837064e+01 -3.832726e+01 -3.826426e+01 -3.816708e+01 -3.805236e+01 -3.785032e+01 -3.764052e+01 -3.726141e+01 -3.692453e+01 -3.672582e+01 -3.724288e+01 -4.100782e+01 -5.007255e+01 -6.447784e+01 -6.415997e+01 -6.008225e+01 -5.951737e+01 -5.594019e+01 -5.517396e+01 -5.213700e+01 -5.002387e+01 -4.721193e+01 -4.414778e+01 -4.164298e+01 -3.831124e+01 -3.815863e+01 -3.377678e+01 -2.664518e+01 -2.366477e+01 -2.166208e+01 -2.154075e+01 -2.142399e+01 -2.171638e+01 -2.160499e+01 -2.189550e+01 -1.715385e+01 -9.479488e+00 -8.207053e+00 
-7.322634e+00 -1.260084e+01 -1.888150e+01 -2.323241e+01 -2.640389e+01 -3.576141e+01 -6.393806e+01 -6.022914e+01 -4.892882e+01 -4.842386e+01 -5.402348e+01 -5.938092e+01 -4.584170e+01 -3.439995e+01 -2.645241e+01 -2.170628e+01 -1.928121e+01 -1.818516e+01 -1.781018e+01 -1.771566e+01 -1.773647e+01 -1.776868e+01 -1.780024e+01 -1.781447e+01 -1.782328e+01 -1.781972e+01 -1.781347e+01 -1.779844e+01 -1.777838e+01 -1.774603e+01 -1.770793e+01 -1.764086e+01 -1.757255e+01 -1.745661e+01 -1.739349e+01 -1.743059e+01 -1.798899e+01 -1.986957e+01 -2.391637e+01 -2.937861e+01 -3.106263e+01 -3.061293e+01 -3.005371e+01 -2.882699e+01 -2.791634e+01 -2.657393e+01 -2.526669e+01 -2.374889e+01 -2.215802e+01 -2.061511e+01 -1.900734e+01 -1.790970e+01 -1.578383e+01 -1.304868e+01 -1.132191e+01 -1.031313e+01 -1.001675e+01 -9.954959e+00 -1.002613e+01 -1.000957e+01 -9.772400e+00 -8.020761e+00 -5.549870e+00 -4.927323e+00 
-2.859569e+00 -4.585539e+00 -6.795992e+00 -8.765260e+00 -1.087243e+01 -1.624724e+01 -3.320972e+01 -3.231085e+01 -2.458692e+01 -2.423970e+01 -2.846883e+01 -3.110973e+01 -2.329991e+01 -1.689456e+01 -1.229113e+01 -9.438560e+00 -7.889605e+00 -7.154387e+00 -6.865401e+00 -6.772417e+00 -6.763534e+00 -6.772416e+00 -6.787168e+00 -6.795351e+00 -6.802245e+00 -6.804187e+00 -6.805873e+00 -6.804440e+00 -6.803114e+00 -6.797539e+00 -6.793188e+00 -6.779069e+00 -6.770673e+00 -6.748932e+00 -6.764145e+00 -6.839807e+00 -7.181286e+00 -8.070750e+00 -9.841946e+00 -1.213547e+01 -1.350533e+01 -1.393984e+01 -1.391412e+01 -1.356875e+01 -1.310948e+01 -1.250079e+01 -1.181564e+01 -1.103488e+01 -1.020617e+01 -9.346641e+00 -8.465783e+00 -7.636937e+00 -6.545317e+00 -5.347413e+00 -4.475311e+00 -3.966980e+00 -3.771152e+00 -3.728844e+00 -3.754355e+00 -3.755311e+00 -3.637400e+00 -3.087567e+00 -2.358813e+00 -2.123786e+00 
3.586105e-02 1.398385e-01 2.348352e-01 2.875570e-01 3.235768e-01 4.208815e-01 7.083356e-01 4.078716e-01 2.338409e-02 2.216211e-03 4.789944e-02 1.393731e-01 9.115353e-02 4.742815e-02 1.373620e-02 -7.413603e-03 -2.003926e-02 -2.758182e-02 -3.290539e-02 -3.725816e-02 -4.164352e-02 -4.598013e-02 -5.066959e-02 -5.561289e-02 -6.070627e-02 -6.639208e-02 -7.201730e-02 -7.826337e-02 -8.483839e-02 -9.074737e-02 -9.925700e-02 -1.030244e-01 -1.143187e-01 -1.159872e-01 -1.376563e-01 -1.724103e-01 -3.112358e-01 -6.700482e-01 -1.507237e+00 -2.751365e+00 -3.918438e+00 -4.741539e+00 -5.195538e+00 -5.371103e+00 -5.323168e+00 -5.129696e+00 -4.821588e+00 -4.426758e+00 -3.963037e+00 -3.433767e+00 -2.840935e+00 -2.195734e+00 -1.448184e+00 -7.188002e-01 -1.972068e-01 8.441102e-02 1.861683e-01 1.990734e-01 1.685028e-01 1.266546e-01 7.217712e-02 8.222907e-03 -3.672959e-02 -3.136324e-02 
2.920510e+00 4.971855e+00 7.453271e+00 9.525815e+00 1.164680e+01 1.714302e+01 3.455727e+01 3.306630e+01 2.462959e+01 2.424401e+01 2.856765e+01 3.138316e+01 2.347710e+01 1.698070e+01 1.230704e+01 9.409915e+00 7.833772e+00 7.081530e+00 6.779850e+00 6.676216e+00 6.656462e+00 6.654806e+00 6.658448e+00 6.655125e+00 6.650861e+00 6.640689e+00 6.631818e+00 6.619252e+00 6.608511e+00 6.597702e+00 6.584922e+00 6.580656e+00 6.568239e+00 6.578581e+00 6.587869e+00 6.649384e+00 6.746728e+00 6.863690e+00 6.384359e+00 5.040478e+00 3.269207e+00 1.628166e+00 4.139150e-01 -3.701366e-01 -7.595534e-01 -8.844974e-01 -8.021423e-01 -5.722730e-01 -2.066604e-01 2.935383e-01 9.459172e-01 1.735552e+00 2.649912e+00 3.512538e+00 4.033773e+00 4.240895e+00 4.279613e+00 4.249428e+00 4.186786e+00 4.070824e+00 3.802319e+00 3.057484e+00 2.184154e+00 1.968280e+00 