# vtk DataFile Version 2.0
Comment goes here
ASCII

DATASET STRUCTURED_POINTS
DIMENSIONS    64   64   1

ORIGIN    0.000   0.000   0.000
SPACING   0.0156250.015625   1.000

POINT_DATA   4096
VECTORS u double

0.039746 0.134330 1.000000 0.025097 0.129899 1.000000 0.013094 0.125443 1.000000 -0.001343 0.121982 1.000000 -0.012876 0.118573 1.000000 -0.026228 0.116093 1.000000 -0.036670 0.113741 1.000000 -0.048229 0.112231 1.000000 -0.057172 0.110926 1.000000 -0.066466 0.110359 1.000000 -0.073728 0.110082 1.000000 -0.080557 0.110425 1.000000 -0.086150 0.111155 1.000000 -0.090555 0.112379 1.000000 -0.094625 0.114093 1.000000 -0.096822 0.116171 1.000000 -0.099567 0.118850 1.000000 -0.099861 0.121755 1.000000 -0.101471 0.125375 1.000000 -0.100171 0.129076 1.000000 -0.100779 0.133606 1.000000 -0.098142 0.138066 1.000000 -0.097812 0.143454 1.000000 -0.094014 0.148615 1.000000 -0.092738 0.154783 1.000000 -0.087867 0.160561 1.000000 -0.085576 0.167385 1.000000 -0.079649 0.173658 1.000000 -0.076232 0.180957 1.000000 -0.069222 0.187558 1.000000 -0.064547 0.195081 1.000000 -0.056421 0.201783 1.000000 -0.050368 0.209208 1.000000 -0.041128 0.215726 1.000000 -0.033628 0.222663 1.000000 -0.023355 0.228659 1.000000 -0.014438 0.234675 1.000000 -0.003330 0.239773 1.000000 0.006825 0.244436 1.000000 0.018431 0.248263 1.000000 0.029464 0.251196 1.000000 0.041090 0.253429 1.000000 0.052464 0.254366 1.000000 0.063521 0.254788 1.000000 0.074564 0.253625 1.000000 0.084405 0.252166 1.000000 0.094386 0.248978 1.000000 0.102370 0.245729 1.000000 0.110584 0.240757 1.000000 0.116137 0.235958 1.000000 0.121981 0.229571 1.000000 0.124645 0.223573 1.000000 0.127668 0.216209 1.000000 0.127143 0.209424 1.000000 0.127082 0.201539 1.000000 0.123249 0.194390 1.000000 0.120059 0.186409 1.000000 0.113008 0.179287 1.000000 0.106872 0.171575 1.000000 0.096919 0.164813 1.000000 0.088253 0.157659 1.000000 0.075941 0.151515 1.000000 0.065371 0.145135 1.000000 0.051446 0.139791 1.000000 
0.026229 0.147416 1.000000 0.009322 0.143133 1.000000 -0.002201 0.138550 1.000000 -0.018444 0.134853 1.000000 -0.029484 0.130882 1.000000 -0.044003 0.127860 1.000000 -0.053931 0.124592 1.000000 -0.065864 0.122336 1.000000 -0.074267 0.119881 1.000000 -0.083058 0.118476 1.000000 -0.089753 0.116949 1.000000 -0.095201 0.116461 1.000000 -0.100214 0.115961 1.000000 -0.102454 0.116425 1.000000 -0.105947 0.117020 1.000000 -0.105359 0.118436 1.000000 -0.107555 0.120148 1.000000 -0.104644 0.122485 1.000000 -0.105754 0.125296 1.000000 -0.101037 0.128498 1.000000 -0.101213 0.132351 1.000000 -0.095136 0.136343 1.000000 -0.094455 0.141149 1.000000 -0.087356 0.145839 1.000000 -0.085821 0.151479 1.000000 -0.077919 0.156755 1.000000 -0.075473 0.163069 1.000000 -0.066888 0.168790 1.000000 -0.063435 0.175577 1.000000 -0.054219 0.181566 1.000000 -0.049645 0.188572 1.000000 -0.039824 0.194612 1.000000 -0.034029 0.201529 1.000000 -0.023646 0.207361 1.000000 -0.016575 0.213834 1.000000 -0.005732 0.219167 1.000000 0.002578 0.224817 1.000000 0.013690 0.229347 1.000000 0.023071 0.233804 1.000000 0.034148 0.237242 1.000000 0.044274 0.240192 1.000000 0.054902 0.242297 1.000000 0.065293 0.243527 1.000000 0.074964 0.244145 1.000000 0.085023 0.243578 1.000000 0.093177 0.242665 1.000000 0.102255 0.240377 1.000000 0.108330 0.238012 1.000000 0.115793 0.234216 1.000000 0.119272 0.230591 1.000000 0.124568 0.225602 1.000000 0.125028 0.220996 1.000000 0.127732 0.215180 1.000000 0.124880 0.209913 1.000000 0.124728 0.203638 1.000000 0.118450 0.198030 1.000000 0.115366 0.191618 1.000000 0.105761 0.185948 1.000000 0.099886 0.179652 1.000000 0.087302 0.174137 1.000000 0.079004 0.168132 1.000000 0.064056 0.162927 1.000000 0.053916 0.157326 1.000000 0.037467 0.152539 1.000000 
0.030339 0.162474 1.000000 0.016231 0.158330 1.000000 0.004814 0.153210 1.000000 -0.009012 0.149264 1.000000 -0.019870 0.144131 1.000000 -0.032519 0.140541 1.000000 -0.042195 0.135603 1.000000 -0.052940 0.132567 1.000000 -0.061032 0.128120 1.000000 -0.069399 0.125845 1.000000 -0.075744 0.122226 1.000000 -0.081545 0.120886 1.000000 -0.086187 0.118407 1.000000 -0.089497 0.118112 1.000000 -0.092615 0.116999 1.000000 -0.093694 0.117779 1.000000 -0.095518 0.118135 1.000000 -0.094714 0.119953 1.000000 -0.095458 0.121767 1.000000 -0.093116 0.124535 1.000000 -0.092934 0.127705 1.000000 -0.089344 0.131308 1.000000 -0.088315 0.135674 1.000000 -0.083684 0.139981 1.000000 -0.081823 0.145346 1.000000 -0.076276 0.150213 1.000000 -0.073541 0.156354 1.000000 -0.067140 0.161620 1.000000 -0.063455 0.168288 1.000000 -0.056226 0.173768 1.000000 -0.051501 0.180687 1.000000 -0.043464 0.186167 1.000000 -0.037619 0.193030 1.000000 -0.028823 0.198273 1.000000 -0.021821 0.204749 1.000000 -0.012373 0.209506 1.000000 -0.004258 0.215253 1.000000 0.005657 0.219280 1.000000 0.014719 0.223978 1.000000 0.024817 0.227059 1.000000 0.034519 0.230442 1.000000 0.044424 0.232410 1.000000 0.054311 0.234304 1.000000 0.063571 0.235058 1.000000 0.073083 0.235412 1.000000 0.081203 0.234935 1.000000 0.089732 0.233825 1.000000 0.096208 0.232191 1.000000 0.103163 0.229815 1.000000 0.107523 0.227183 1.000000 0.112385 0.223815 1.000000 0.114223 0.220410 1.000000 0.116585 0.216356 1.000000 0.115601 0.212428 1.000000 0.115199 0.207970 1.000000 0.111229 0.203752 1.000000 0.107977 0.199098 1.000000 0.101042 0.194768 1.000000 0.095061 0.190034 1.000000 0.085399 0.185695 1.000000 0.077043 0.180906 1.000000 0.065135 0.176603 1.000000 0.054983 0.171725 1.000000 0.041536 0.167479 1.000000 
0.017079 0.172722 1.000000 0.000057 0.168659 1.000000 -0.011268 0.163792 1.000000 -0.027524 0.159537 1.000000 -0.038207 0.154389 1.000000 -0.052531 0.150184 1.000000 -0.061905 0.145014 1.000000 -0.073347 0.141173 1.000000 -0.080989 0.136340 1.000000 -0.088951 0.133188 1.000000 -0.094712 0.129095 1.000000 -0.099019 0.126904 1.000000 -0.102986 0.123913 1.000000 -0.103861 0.122853 1.000000 -0.106279 0.121217 1.000000 -0.104221 0.121340 1.000000 -0.105380 0.121168 1.000000 -0.101012 0.122425 1.000000 -0.101172 0.123698 1.000000 -0.095098 0.125973 1.000000 -0.094440 0.128579 1.000000 -0.087167 0.131724 1.000000 -0.085782 0.135490 1.000000 -0.077685 0.139347 1.000000 -0.075589 0.144070 1.000000 -0.066912 0.148473 1.000000 -0.064067 0.153933 1.000000 -0.054954 0.158704 1.000000 -0.051288 0.164663 1.000000 -0.041820 0.169612 1.000000 -0.037246 0.175810 1.000000 -0.027482 0.180730 1.000000 -0.021922 0.186888 1.000000 -0.011928 0.191563 1.000000 -0.005342 0.197383 1.000000 0.004772 0.201604 1.000000 0.012353 0.206788 1.000000 0.022415 0.210370 1.000000 0.030850 0.214643 1.000000 0.040613 0.217443 1.000000 0.049626 0.220585 1.000000 0.058765 0.222505 1.000000 0.067943 0.224379 1.000000 0.076072 0.225372 1.000000 0.084901 0.225947 1.000000 0.091592 0.226016 1.000000 0.099512 0.225373 1.000000 0.104319 0.224581 1.000000 0.110785 0.222901 1.000000 0.113273 0.221370 1.000000 0.117795 0.218901 1.000000 0.117569 0.216795 1.000000 0.119750 0.213803 1.000000 0.116494 0.211300 1.000000 0.116051 0.208010 1.000000 0.109578 0.205252 1.000000 0.106382 0.201806 1.000000 0.096696 0.198864 1.000000 0.090813 0.195294 1.000000 0.078174 0.192154 1.000000 0.069911 0.188396 1.000000 0.054875 0.184987 1.000000 0.044792 0.180925 1.000000 0.028216 0.177183 1.000000 
0.021815 0.190633 1.000000 0.007301 0.186676 1.000000 -0.004309 0.180790 1.000000 -0.018415 0.176202 1.000000 -0.029224 0.169139 1.000000 -0.041895 0.164239 1.000000 -0.051207 0.156419 1.000000 -0.061614 0.151652 1.000000 -0.069017 0.143723 1.000000 -0.076644 0.139567 1.000000 -0.082028 0.132293 1.000000 -0.086727 0.129161 1.000000 -0.090238 0.123250 1.000000 -0.092193 0.121404 1.000000 -0.094128 0.117358 1.000000 -0.093742 0.116881 1.000000 -0.094434 0.114926 1.000000 -0.092183 0.115745 1.000000 -0.091909 0.115854 1.000000 -0.088235 0.117803 1.000000 -0.087183 0.119775 1.000000 -0.082432 0.122650 1.000000 -0.080693 0.126192 1.000000 -0.075104 0.129788 1.000000 -0.072697 0.134573 1.000000 -0.066414 0.138691 1.000000 -0.063309 0.144396 1.000000 -0.056410 0.148841 1.000000 -0.052547 0.155155 1.000000 -0.045078 0.159726 1.000000 -0.040383 0.166348 1.000000 -0.032387 0.170843 1.000000 -0.026787 0.177476 1.000000 -0.018329 0.181693 1.000000 -0.011781 0.188049 1.000000 -0.002968 0.191810 1.000000 0.004508 0.197610 1.000000 0.013512 0.200782 1.000000 0.021792 0.205780 1.000000 0.030759 0.208284 1.000000 0.039580 0.212290 1.000000 0.048218 0.214093 1.000000 0.057177 0.216997 1.000000 0.065138 0.218100 1.000000 0.073727 0.219892 1.000000 0.080629 0.220323 1.000000 0.088297 0.221098 1.000000 0.093736 0.220918 1.000000 0.099952 0.220861 1.000000 0.103523 0.220172 1.000000 0.107811 0.219519 1.000000 0.109125 0.218455 1.000000 0.111090 0.217432 1.000000 0.109808 0.216127 1.000000 0.109152 0.214885 1.000000 0.105026 0.213421 1.000000 0.101590 0.211980 1.000000 0.094530 0.210337 1.000000 0.088351 0.208556 1.000000 0.078501 0.206597 1.000000 0.069877 0.204204 1.000000 0.057665 0.201721 1.000000 0.047180 0.198384 1.000000 0.033334 0.195193 1.000000 
0.008560 0.198755 1.000000 -0.009788 0.194783 1.000000 -0.021744 0.189508 1.000000 -0.039177 0.184452 1.000000 -0.050172 0.177870 1.000000 -0.065253 0.172168 1.000000 -0.074494 0.164733 1.000000 -0.086043 0.158983 1.000000 -0.093074 0.151370 1.000000 -0.100380 0.146199 1.000000 -0.105117 0.139178 1.000000 -0.108060 0.135114 1.000000 -0.110741 0.129380 1.000000 -0.109751 0.126744 1.000000 -0.110799 0.122766 1.000000 -0.106652 0.121645 1.000000 -0.106515 0.119609 1.000000 -0.100083 0.119900 1.000000 -0.099113 0.119751 1.000000 -0.091177 0.121246 1.000000 -0.089592 0.122775 1.000000 -0.080751 0.125234 1.000000 -0.078645 0.128162 1.000000 -0.069304 0.131351 1.000000 -0.066687 0.135380 1.000000 -0.057089 0.139085 1.000000 -0.053918 0.143929 1.000000 -0.044196 0.147943 1.000000 -0.040403 0.153331 1.000000 -0.030628 0.157448 1.000000 -0.026131 0.163119 1.000000 -0.016354 0.167134 1.000000 -0.011072 0.172830 1.000000 -0.001356 0.176557 1.000000 0.004775 0.182023 1.000000 0.014334 0.185315 1.000000 0.021325 0.190308 1.000000 0.030586 0.193086 1.000000 0.038352 0.197396 1.000000 0.047123 0.199654 1.000000 0.055435 0.203126 1.000000 0.063473 0.204909 1.000000 0.071950 0.207459 1.000000 0.078968 0.208822 1.000000 0.087124 0.210456 1.000000 0.092799 0.211445 1.000000 0.100107 0.212265 1.000000 0.104083 0.212926 1.000000 0.110039 0.213114 1.000000 0.111930 0.213511 1.000000 0.116078 0.213298 1.000000 0.115482 0.213517 1.000000 0.117422 0.213121 1.000000 0.113947 0.213238 1.000000 0.113346 0.212792 1.000000 0.106673 0.212814 1.000000 0.103297 0.212301 1.000000 0.093273 0.212102 1.000000 0.087073 0.211323 1.000000 0.073822 0.210629 1.000000 0.065035 0.209232 1.000000 0.049054 0.207684 1.000000 0.038262 0.205256 1.000000 0.020463 0.202548 1.000000 
0.014050 0.220884 1.000000 -0.001945 0.216981 1.000000 -0.014640 0.210180 1.000000 -0.030054 0.204630 1.000000 -0.041508 0.195214 1.000000 -0.055032 0.188561 1.000000 -0.064393 0.177209 1.000000 -0.074978 0.170232 1.000000 -0.081802 0.158060 1.000000 -0.088835 0.151610 1.000000 -0.093114 0.139973 1.000000 -0.096525 0.134785 1.000000 -0.098607 0.124941 1.000000 -0.098807 0.121463 1.000000 -0.099227 0.114260 1.000000 -0.096899 0.112597 1.000000 -0.096178 0.108357 1.000000 -0.092040 0.108343 1.000000 -0.090563 0.106948 1.000000 -0.085211 0.108282 1.000000 -0.083195 0.109348 1.000000 -0.077046 0.111704 1.000000 -0.074576 0.114745 1.000000 -0.067885 0.117829 1.000000 -0.064963 0.122358 1.000000 -0.057864 0.125922 1.000000 -0.054451 0.131504 1.000000 -0.047008 0.135326 1.000000 -0.043042 0.141586 1.000000 -0.035291 0.145455 1.000000 -0.030696 0.152074 1.000000 -0.022675 0.155784 1.000000 -0.017364 0.162478 1.000000 -0.009136 0.165847 1.000000 -0.003024 0.172359 1.000000 0.005317 0.175260 1.000000 0.012278 0.181358 1.000000 0.020600 0.183755 1.000000 0.028360 0.189244 1.000000 0.036488 0.191201 1.000000 0.044835 0.195940 1.000000 0.052551 0.197578 1.000000 0.061089 0.201501 1.000000 0.068136 0.202927 1.000000 0.076350 0.206061 1.000000 0.082438 0.207340 1.000000 0.089777 0.209814 1.000000 0.094585 0.210987 1.000000 0.100537 0.213014 1.000000 0.103707 0.214133 1.000000 0.107817 0.215967 1.000000 0.108948 0.217111 1.000000 0.110812 0.218966 1.000000 0.109480 0.220203 1.000000 0.108729 0.222159 1.000000 0.104535 0.223471 1.000000 0.100878 0.225380 1.000000 0.093553 0.226560 1.000000 0.086878 0.228007 1.000000 0.076411 0.228635 1.000000 0.066932 0.228972 1.000000 0.053689 0.228494 1.000000 0.042044 0.226975 1.000000 0.026833 0.224895 1.000000 
0.000643 0.227533 1.000000 -0.020496 0.223472 1.000000 -0.034099 0.217617 1.000000 -0.054147 0.211321 1.000000 -0.066244 0.202848 1.000000 -0.083262 0.195052 1.000000 -0.092826 0.184678 1.000000 -0.105194 0.176392 1.000000 -0.111696 0.165227 1.000000 -0.118464 0.157511 1.000000 -0.121940 0.146868 1.000000 -0.123088 0.140607 1.000000 -0.124059 0.131662 1.000000 -0.120427 0.127364 1.000000 -0.119661 0.120858 1.000000 -0.112551 0.118597 1.000000 -0.110766 0.114750 1.000000 -0.101489 0.114285 1.000000 -0.099174 0.112922 1.000000 -0.088776 0.113878 1.000000 -0.086170 0.114611 1.000000 -0.075355 0.116615 1.000000 -0.072521 0.119000 1.000000 -0.061692 0.121738 1.000000 -0.058595 0.125360 1.000000 -0.047945 0.128573 1.000000 -0.044516 0.133073 1.000000 -0.034115 0.136533 1.000000 -0.030275 0.141614 1.000000 -0.020141 0.145101 1.000000 -0.015802 0.150503 1.000000 -0.005950 0.153803 1.000000 -0.001009 0.159291 1.000000 0.008525 0.162217 1.000000 0.014188 0.167570 1.000000 0.023332 0.170012 1.000000 0.029821 0.175025 1.000000 0.038472 0.177004 1.000000 0.045799 0.181508 1.000000 0.053820 0.183180 1.000000 0.061812 0.187063 1.000000 0.069034 0.188655 1.000000 0.077300 0.191873 1.000000 0.083529 0.193562 1.000000 0.091538 0.196155 1.000000 0.096552 0.198018 1.000000 0.103754 0.200118 1.000000 0.107284 0.202165 1.000000 0.113186 0.203993 1.000000 0.114884 0.206231 1.000000 0.119055 0.208057 1.000000 0.118480 0.210522 1.000000 0.120515 0.212589 1.000000 0.117141 0.215320 1.000000 0.116614 0.217736 1.000000 0.109894 0.220665 1.000000 0.106386 0.223283 1.000000 0.095900 0.226102 1.000000 0.089147 0.228466 1.000000 0.074787 0.230575 1.000000 0.064894 0.231954 1.000000 0.047056 0.232572 1.000000 0.034661 0.232112 1.000000 0.014369 0.230542 1.000000 
0.006981 0.255749 1.000000 -0.011861 0.251723 1.000000 -0.026791 0.243831 1.000000 -0.044823 0.236776 1.000000 -0.057778 0.224330 1.000000 -0.073203 0.215143 1.000000 -0.083055 0.199140 1.000000 -0.094429 0.189103 1.000000 -0.100683 0.171330 1.000000 -0.107193 0.161854 1.000000 -0.110019 0.144597 1.000000 -0.111729 0.136903 1.000000 -0.111849 0.122281 1.000000 -0.109609 0.117066 1.000000 -0.107993 0.106384 1.000000 -0.103005 0.103702 1.000000 -0.100490 0.097294 1.000000 -0.093868 0.096751 1.000000 -0.090971 0.094235 1.000000 -0.083522 0.095278 1.000000 -0.080458 0.095928 1.000000 -0.072657 0.098054 1.000000 -0.069453 0.101081 1.000000 -0.061526 0.103903 1.000000 -0.058129 0.108611 1.000000 -0.050151 0.111843 1.000000 -0.046491 0.117674 1.000000 -0.038468 0.121085 1.000000 -0.034474 0.127613 1.000000 -0.026402 0.130982 1.000000 -0.021994 0.137883 1.000000 -0.013887 0.140990 1.000000 -0.008950 0.148003 1.000000 -0.000857 0.150650 1.000000 0.004771 0.157551 1.000000 0.012773 0.159627 1.000000 0.019270 0.166218 1.000000 0.027082 0.167777 1.000000 0.034536 0.173896 1.000000 0.042043 0.175188 1.000000 0.050310 0.180726 1.000000 0.057361 0.182090 1.000000 0.065997 0.187006 1.000000 0.072418 0.188689 1.000000 0.080806 0.193038 1.000000 0.086401 0.195123 1.000000 0.093925 0.199082 1.000000 0.098461 0.201555 1.000000 0.104604 0.205414 1.000000 0.107771 0.208264 1.000000 0.112109 0.212370 1.000000 0.113482 0.215651 1.000000 0.115610 0.220305 1.000000 0.114627 0.224105 1.000000 0.114075 0.229407 1.000000 0.110083 0.233698 1.000000 0.106316 0.239374 1.000000 0.098737 0.243799 1.000000 0.091352 0.249120 1.000000 0.079899 0.252888 1.000000 0.068930 0.256704 1.000000 0.053849 0.258726 1.000000 0.040015 0.259662 1.000000 0.022254 0.258913 1.000000 
-0.006552 0.261649 1.000000 -0.032421 0.257244 1.000000 -0.049053 0.250579 1.000000 -0.073656 0.242307 1.000000 -0.087886 0.231228 1.000000 -0.108459 0.220330 1.000000 -0.118872 0.205903 1.000000 -0.133007 0.194020 1.000000 -0.138947 0.177992 1.000000 -0.145194 0.166846 1.000000 -0.146886 0.151403 1.000000 -0.145397 0.142438 1.000000 -0.143889 0.129542 1.000000 -0.136315 0.123508 1.000000 -0.133018 0.114253 1.000000 -0.121634 0.111094 1.000000 -0.117713 0.105614 1.000000 -0.104545 0.104767 1.000000 -0.100644 0.102575 1.000000 -0.087082 0.103364 1.000000 -0.083395 0.103745 1.000000 -0.070202 0.105610 1.000000 -0.066672 0.107870 1.000000 -0.054163 0.110415 1.000000 -0.050656 0.113985 1.000000 -0.038884 0.116935 1.000000 -0.035276 0.121390 1.000000 -0.024178 0.124517 1.000000 -0.020378 0.129547 1.000000 -0.009872 0.132621 1.000000 -0.005795 0.137988 1.000000 0.004169 0.140759 1.000000 0.008650 0.146261 1.000000 0.018072 0.148496 1.000000 0.023164 0.153940 1.000000 0.031999 0.155514 1.000000 0.037971 0.160716 1.000000 0.046151 0.161737 1.000000 0.053209 0.166548 1.000000 0.060650 0.167406 1.000000 0.068714 0.171745 1.000000 0.075315 0.172967 1.000000 0.083899 0.176816 1.000000 0.089561 0.178753 1.000000 0.097972 0.182171 1.000000 0.102597 0.184898 1.000000 0.110187 0.188057 1.000000 0.113616 0.191486 1.000000 0.119895 0.194683 1.000000 0.121839 0.198726 1.000000 0.126442 0.202346 1.000000 0.126415 0.207020 1.000000 0.128969 0.211444 1.000000 0.126243 0.216856 1.000000 0.126207 0.222280 1.000000 0.119862 0.228424 1.000000 0.116487 0.234630 1.000000 0.105645 0.241066 1.000000 0.098237 0.247303 1.000000 0.082371 0.252998 1.000000 0.070731 0.258004 1.000000 0.050013 0.261487 1.000000 0.034846 0.263706 1.000000 0.010454 0.263576 1.000000 
0.000650 0.298624 1.000000 -0.022931 0.294224 1.000000 -0.041729 0.285066 1.000000 -0.064175 0.275608 1.000000 -0.079757 0.259133 1.000000 -0.098529 0.246129 1.000000 -0.109369 0.223688 1.000000 -0.122340 0.209177 1.000000 -0.127859 0.183518 1.000000 -0.133780 0.169793 1.000000 -0.134427 0.144799 1.000000 -0.133586 0.133906 1.000000 -0.130778 0.113199 1.000000 -0.124894 0.106195 1.000000 -0.120406 0.091703 1.000000 -0.111643 0.088397 1.000000 -0.106816 0.080205 1.000000 -0.096907 0.079682 1.000000 -0.092374 0.076771 1.000000 -0.082352 0.078028 1.000000 -0.078213 0.079048 1.000000 -0.068533 0.081331 1.000000 -0.064649 0.085043 1.000000 -0.055412 0.087887 1.000000 -0.051610 0.093332 1.000000 -0.042747 0.096463 1.000000 -0.038909 0.102968 1.000000 -0.030312 0.106187 1.000000 -0.026371 0.113307 1.000000 -0.017961 0.116399 1.000000 -0.013857 0.123842 1.000000 -0.005615 0.126545 1.000000 -0.001214 0.134101 1.000000 0.006821 0.136136 1.000000 0.011790 0.143624 1.000000 0.019548 0.144819 1.000000 0.025492 0.152065 1.000000 0.032914 0.152539 1.000000 0.040206 0.159397 1.000000 0.047240 0.159682 1.000000 0.055871 0.166061 1.000000 0.062433 0.166905 1.000000 0.071784 0.172760 1.000000 0.077774 0.174616 1.000000 0.086951 0.180002 1.000000 0.092288 0.182908 1.000000 0.100514 0.188063 1.000000 0.105088 0.191847 1.000000 0.111844 0.197191 1.000000 0.115435 0.201717 1.000000 0.120404 0.207795 1.000000 0.122580 0.213123 1.000000 0.125447 0.220478 1.000000 0.125464 0.226867 1.000000 0.125643 0.235787 1.000000 0.122435 0.243418 1.000000 0.118959 0.253591 1.000000 0.111411 0.262049 1.000000 0.103285 0.272394 1.000000 0.090602 0.280394 1.000000 0.077420 0.289062 1.000000 0.059552 0.294612 1.000000 0.042105 0.299221 1.000000 0.020199 0.300310 1.000000 
-0.012645 0.304779 1.000000 -0.045989 0.299623 1.000000 -0.067682 0.291823 1.000000 -0.099602 0.280335 1.000000 -0.117379 0.265581 1.000000 -0.143918 0.249941 1.000000 -0.155836 0.229715 1.000000 -0.173181 0.212510 1.000000 -0.178332 0.189432 1.000000 -0.183904 0.173415 1.000000 -0.182762 0.151209 1.000000 -0.176979 0.138788 1.000000 -0.171584 0.120850 1.000000 -0.157795 0.113135 1.000000 -0.150802 0.101002 1.000000 -0.133122 0.097504 1.000000 -0.126422 0.090878 1.000000 -0.107975 0.090324 1.000000 -0.102296 0.088020 1.000000 -0.084805 0.089203 1.000000 -0.080094 0.089927 1.000000 -0.064210 0.092047 1.000000 -0.060120 0.094748 1.000000 -0.045878 0.097376 1.000000 -0.042083 0.101321 1.000000 -0.029250 0.104233 1.000000 -0.025555 0.108955 1.000000 -0.013841 0.111979 1.000000 -0.010168 0.117197 1.000000 0.000662 0.120107 1.000000 0.004349 0.125642 1.000000 0.014427 0.128116 1.000000 0.018240 0.133826 1.000000 0.027594 0.135492 1.000000 0.031846 0.141212 1.000000 0.040439 0.141812 1.000000 0.045691 0.147350 1.000000 0.053482 0.147023 1.000000 0.060352 0.152221 1.000000 0.067314 0.151741 1.000000 0.075937 0.156552 1.000000 0.082013 0.157055 1.000000 0.091609 0.161476 1.000000 0.096804 0.163586 1.000000 0.106264 0.167657 1.000000 0.110657 0.171336 1.000000 0.119125 0.175257 1.000000 0.122743 0.180156 1.000000 0.129765 0.184337 1.000000 0.132443 0.190167 1.000000 0.137848 0.195201 1.000000 0.139097 0.201977 1.000000 0.142712 0.208560 1.000000 0.141551 0.216659 1.000000 0.142758 0.225309 1.000000 0.137666 0.235108 1.000000 0.135119 0.245654 1.000000 0.124448 0.256740 1.000000 0.116582 0.268113 1.000000 0.099039 0.278863 1.000000 0.084949 0.289053 1.000000 0.060170 0.296801 1.000000 0.040541 0.303060 1.000000 0.009852 0.305031 1.000000 
-0.004756 0.354465 1.000000 -0.035885 0.349262 1.000000 -0.061017 0.338679 1.000000 -0.090418 0.325305 1.000000 -0.110153 0.303448 1.000000 -0.134395 0.284586 1.000000 -0.146802 0.252951 1.000000 -0.162616 0.231672 1.000000 -0.166949 0.194240 1.000000 -0.171988 0.174224 1.000000 -0.169047 0.137875 1.000000 -0.163931 0.122728 1.000000 -0.156424 0.094015 1.000000 -0.144735 0.085413 1.000000 -0.136034 0.067029 1.000000 -0.121765 0.064017 1.000000 -0.113997 0.055058 1.000000 -0.099768 0.055556 1.000000 -0.093499 0.053602 1.000000 -0.080450 0.055826 1.000000 -0.075374 0.058452 1.000000 -0.063717 0.061357 1.000000 -0.059325 0.066711 1.000000 -0.048844 0.069851 1.000000 -0.044757 0.076704 1.000000 -0.035117 0.079935 1.000000 -0.031166 0.087559 1.000000 -0.022074 0.090799 1.000000 -0.018247 0.098804 1.000000 -0.009519 0.101882 1.000000 -0.005850 0.110077 1.000000 0.002566 0.112654 1.000000 0.006159 0.120934 1.000000 0.014204 0.122531 1.000000 0.018106 0.130779 1.000000 0.025683 0.130974 1.000000 0.030701 0.139022 1.000000 0.037784 0.137879 1.000000 0.044921 0.145565 1.000000 0.051570 0.144097 1.000000 0.061185 0.151362 1.000000 0.067357 0.151234 1.000000 0.078315 0.157970 1.000000 0.083955 0.159961 1.000000 0.094701 0.166149 1.000000 0.099889 0.170047 1.000000 0.109335 0.175977 1.000000 0.114168 0.181207 1.000000 0.121855 0.187491 1.000000 0.126299 0.193634 1.000000 0.132215 0.201141 1.000000 0.135939 0.208259 1.000000 0.140130 0.218023 1.000000 0.142214 0.226821 1.000000 0.144092 0.239673 1.000000 0.142781 0.251058 1.000000 0.140591 0.266809 1.000000 0.133870 0.280586 1.000000 0.125407 0.297803 1.000000 0.111543 0.312027 1.000000 0.095358 0.327930 1.000000 0.073561 0.339020 1.000000 0.050336 0.349538 1.000000 0.021920 0.353495 1.000000 
-0.016890 0.362584 1.000000 -0.061791 0.355885 1.000000 -0.091658 0.346356 1.000000 -0.134856 0.329470 1.000000 -0.158120 0.309558 1.000000 -0.194429 0.286590 1.000000 -0.208753 0.257936 1.000000 -0.231871 0.232657 1.000000 -0.235746 0.198803 1.000000 -0.240211 0.175513 1.000000 -0.234199 0.143153 1.000000 -0.220777 0.126165 1.000000 -0.208850 0.101655 1.000000 -0.184743 0.092746 1.000000 -0.172176 0.078032 1.000000 -0.145083 0.075467 1.000000 -0.134882 0.068880 1.000000 -0.109436 0.069826 1.000000 -0.102038 0.068702 1.000000 -0.079968 0.071079 1.000000 -0.074577 0.073194 1.000000 -0.055966 0.075997 1.000000 -0.051642 0.079874 1.000000 -0.035900 0.082807 1.000000 -0.032014 0.087594 1.000000 -0.018409 0.090643 1.000000 -0.014704 0.095912 1.000000 -0.002609 0.099061 1.000000 0.000902 0.104642 1.000000 0.011923 0.107709 1.000000 0.015110 0.113557 1.000000 0.025272 0.116107 1.000000 0.028106 0.122188 1.000000 0.037429 0.123545 1.000000 0.040279 0.129733 1.000000 0.048673 0.129217 1.000000 0.052588 0.135249 1.000000 0.060018 0.132803 1.000000 0.066563 0.138434 1.000000 0.073103 0.135477 1.000000 0.083068 0.140765 1.000000 0.088616 0.139925 1.000000 0.100331 0.144878 1.000000 0.104979 0.147199 1.000000 0.116346 0.151723 1.000000 0.120481 0.156702 1.000000 0.130281 0.160979 1.000000 0.134254 0.167636 1.000000 0.142188 0.172206 1.000000 0.146089 0.179807 1.000000 0.152469 0.185560 1.000000 0.155974 0.194062 1.000000 0.161270 0.202285 1.000000 0.163195 0.212697 1.000000 0.166987 0.224742 1.000000 0.164795 0.238609 1.000000 0.164639 0.254565 1.000000 0.155435 0.271924 1.000000 0.148014 0.290440 1.000000 0.129159 0.308912 1.000000 0.111933 0.327035 1.000000 0.081771 0.341824 1.000000 0.055007 0.354701 1.000000 0.014771 0.360123 1.000000 
-0.008996 0.431027 1.000000 -0.052111 0.424030 1.000000 -0.087427 0.411744 1.000000 -0.127207 0.391767 1.000000 -0.153011 0.363021 1.000000 -0.185968 0.335219 1.000000 -0.200656 0.290394 1.000000 -0.221621 0.258665 1.000000 -0.223954 0.202581 1.000000 -0.227471 0.172677 1.000000 -0.218260 0.118440 1.000000 -0.205314 0.097380 1.000000 -0.189780 0.057982 1.000000 -0.168331 0.048739 1.000000 -0.153319 0.027369 1.000000 -0.130945 0.026723 1.000000 -0.119677 0.019411 1.000000 -0.099992 0.022712 1.000000 -0.092294 0.024134 1.000000 -0.076008 0.028365 1.000000 -0.070505 0.034450 1.000000 -0.057085 0.038422 1.000000 -0.052562 0.046644 1.000000 -0.041170 0.050223 1.000000 -0.036967 0.059214 1.000000 -0.026843 0.062625 1.000000 -0.022792 0.071758 1.000000 -0.013386 0.075193 1.000000 -0.009641 0.084273 1.000000 -0.000646 0.087674 1.000000 0.002506 0.096728 1.000000 0.011156 0.099658 1.000000 0.013556 0.108777 1.000000 0.021709 0.110358 1.000000 0.023739 0.119534 1.000000 0.031162 0.118665 1.000000 0.034254 0.127677 1.000000 0.040938 0.123903 1.000000 0.047569 0.132480 1.000000 0.053877 0.127592 1.000000 0.065610 0.135849 1.000000 0.071451 0.133970 1.000000 0.085572 0.141607 1.000000 0.090787 0.143947 1.000000 0.104192 0.150646 1.000000 0.109133 0.156112 1.000000 0.120257 0.162204 1.000000 0.125383 0.169300 1.000000 0.134015 0.175656 1.000000 0.139642 0.183353 1.000000 0.146459 0.191257 1.000000 0.152654 0.199457 1.000000 0.158752 0.210801 1.000000 0.164656 0.221104 1.000000 0.169985 0.238072 1.000000 0.172582 0.253405 1.000000 0.173879 0.276169 1.000000 0.169717 0.297211 1.000000 0.162365 0.324080 1.000000 0.148108 0.348109 1.000000 0.128239 0.375318 1.000000 0.101204 0.395946 1.000000 0.068617 0.416539 1.000000 0.029797 0.425393 1.000000 
-0.018290 0.444492 1.000000 -0.081099 0.434316 1.000000 -0.123940 0.421452 1.000000 -0.183581 0.395054 1.000000 -0.214621 0.368319 1.000000 -0.266913 0.334235 1.000000 -0.285034 0.293589 1.000000 -0.319254 0.255956 1.000000 -0.321203 0.204653 1.000000 -0.323756 0.169818 1.000000 -0.308959 0.120996 1.000000 -0.280804 0.097686 1.000000 -0.257225 0.064672 1.000000 -0.215240 0.056284 1.000000 -0.194194 0.040646 1.000000 -0.153124 0.041824 1.000000 -0.139021 0.037928 1.000000 -0.104865 0.042444 1.000000 -0.096546 0.044718 1.000000 -0.069817 0.049290 1.000000 -0.064683 0.054271 1.000000 -0.043934 0.058055 1.000000 -0.040002 0.063960 1.000000 -0.023489 0.067212 1.000000 -0.019768 0.073267 1.000000 -0.006020 0.076467 1.000000 -0.002290 0.082455 1.000000 0.009754 0.085910 1.000000 0.013233 0.091902 1.000000 0.024229 0.095562 1.000000 0.026945 0.101755 1.000000 0.037174 0.105057 1.000000 0.038662 0.111634 1.000000 0.048046 0.113361 1.000000 0.048450 0.120281 1.000000 0.056687 0.118702 1.000000 0.057708 0.125473 1.000000 0.064713 0.119488 1.000000 0.070157 0.125495 1.000000 0.076382 0.117436 1.000000 0.089361 0.123192 1.000000 0.094295 0.119963 1.000000 0.110235 0.125542 1.000000 0.113954 0.128579 1.000000 0.128454 0.133378 1.000000 0.131988 0.140637 1.000000 0.143422 0.144728 1.000000 0.147661 0.153878 1.000000 0.156197 0.157947 1.000000 0.161647 0.167363 1.000000 0.168531 0.172549 1.000000 0.175473 0.181769 1.000000 0.182865 0.190283 1.000000 0.190401 0.201464 1.000000 0.199207 0.216816 1.000000 0.202796 0.234715 1.000000 0.208336 0.257430 1.000000 0.203229 0.283438 1.000000 0.198788 0.312050 1.000000 0.180270 0.343037 1.000000 0.159647 0.373939 1.000000 0.122888 0.401446 1.000000 0.084369 0.426107 1.000000 0.029203 0.437736 1.000000 