# vtk DataFile Version 2.0
Comment goes here
ASCII

DATASET STRUCTURED_POINTS
FIELD FieldData 1
TIME 1 1 double
0.02000000
DIMENSIONS    128   256   1

ORIGIN    0.000   0.000   0.000
SPACING   0.0039063 0.0039063   1.000

POINT_DATA   32768
SCALARS Concentration double
LOOKUP_TABLE default

1 1 1 1 1 1 1 1 1 1 1 1 1 1 1 1 1 1 1 1 1 1 1 1 1 1 1 1 1 1 1 1 1 1 1 1 1 1 1 1 1 1 1 1 1 1 1 1 1 1 1 1 1 1 1 1 1 1 1 1 1 1 1 1 1 1 1 1 1 1 1 1 1 1 1 1 1 1 1 1 1 1 1 1 1 1 1 1 1 1 1 1 1 1 1 1 1 1 1 1 1 1 1 1 1 1 1 1 1 1 1 1 1 1 1 1 1 1 1 1 1 1 1 1 1 1 1 1 
1 1 1 1 1 1 1 1 1 1 1 1 1 1 1 1 1 1 1 1 1 1 1 1 1 1 1 1 1 1 1 1 1 1 1 1 1 1 1 1 1 1 1 1 1 1 1 1 1 1 1 1 1 1 1 1 1 1 1 1 1 1 1 1 1 1 1 1 1 1 1 1 1 1 1 1 1 1 1 1 1 1 1 1 1 1 1 1 1 1 1 1 1 1 1 1 1 1 1 1 1 1 1 1 1 1 1 1 1 1 1 1 1 1 1 1 1 1 1 1 1 1 1 1 1 1 1 1 
1 1 1 1 1 1 1 1 1 1 1 1 1 1 1 1 1 1 1 1 1 1 1 1 1 1 1 1 1 1 1 1 1 1 1 1 1 1 1 1 1 1 1 1 1 1 1 1 1 1 1 1 1 1 1 1 1 1 1 1 1 1 1 1 1 1 1 1 1 1 1 1 1 1 1 1 1 1 1 1 1 1 1 1 1 1 1 1 1 1 1 1 1 1 1 1 1 1 1 1 1 1 1 1 1 1 1 1 1 1 1 1 1 1 1 1 1 1 1 1 1 1 1 1 1 1 1 1 
1 1 1 1 1 1 1 1 1 1 1 1 1 1 1 1 1 1 1 1 1 1 1 1 1 1 1 1 1 1 1 1 1 1 1 1 1 1 1 1 1 1 1 1 1 1 1 1 1 1 1 1 1 1 1 1 1 1 1 1 1 1 1 1 1 1 1 1 1 1 1 1 1 1 1 1 1 1 1 1 1 1 1 1 1 1 1 1 1 1 1 1 1 1 1 1 1 1 1 1 1 1 1 1 1 1 1 1 1 1 1 1 1 1 1 1 1 1 1 1 1 1 1 1 1 1 1 1 
1 1 1 1 1 1 1 1 1 1 1 1 1 1 1 1 1 1 1 1 1 1 1 1 1 1 1 1 1 1 1 1 1 1 1 1 1 1 1 1 1 1 1 1 1 1 1 1 1 1 1 1 1 1 1 1 1 1 1 1 1 1 1 1 1 1 1 1 1 1 1 1 1 1 1 1 1 1 1 1 1 1 1 1 1 1 1 1 1 1 1 1 1 1 1 1 1 1 1 1 1 1 1 1 1 1 1 1 1 1 1 1 1 1 1 1 1 1 1 1 1 1 1 1 1 1 1 1 
1 1 1 1 1 1 1 1 1 1 1 1 1 1 1 1 1 1 1 1 1 1 1 1 1 1 1 1 1 1 1 1 1 1 1 1 1 1 1 1 1 1 1 1 1 1 1 1 1 1 1 1 1 1 1 1 1 1 1 1 1 1 1 1 1 1 1 1 1 1 1 1 1 1 1 1 1 1 1 1 1 1 1 1 1 1 1 1 1 1 1 1 1 1 1 1 1 1 1 1 1 1 1 1 1 1 1 1 1 1 1 1 1 1 1 1 1 1 1 1 1 1 1 1 1 1 1 1 
1 1 1 1 1 1 1 1 1 1 1 1 1 1 1 1 1 1 1 1 1 1 1 1 1 1 1 1 1 1 1 1 1 1 1 1 1 1 1 1 1 1 1 1 1 1 1 1 1 1 1 1 1 1 1 1 1 1 1 1 1 1 1 1 1 1 1 1 1 1 1 1 1 1 1 1 1 1 1 1 1 1 1 1 1 1 1 1 1 1 1 1 1 1 1 1 1 1 1 1 1 1 1 1 1 1 1 1 1 1 1 1 1 1 1 1 1 1 1 1 1 1 1 1 1 1 1 1 
1 1 1 1 1 1 1 1 1 1 1 1 1 1 1 1 1 1 1 1 1 1 1 1 1 1 1 1 1 1 1 1 1 1 1 1 1 1 1 1 1 1 1 1 1 1 1 1 1 1 1 1 1 1 1 1 1 1 1 1 1 1 1 1 1 1 1 1 1 1 1 1 1 1 1 1 1 1 1 1 1 1 1 1 1 1 1 1 1 1 1 1 1 1 1 1 1 1 1 1 1 1 1 1 1 1 1 1 1 1 1 1 1 1 1 1 1 1 1 1 1 1 1 1 1 1 1 1 
1 1 1 1 1 1 1 1 1 1 1 1 1 1.000000e+00 1 1 1 1 1 1 1 1 1 1 1 1 1 1 1 1 1 1 1 1 1 1 1 1 1 1 1 1 1 1 1 1 1 1 1 1 1 1 1 1 1 1 1 1 1 1 1 1 1 1 1 1 1 1 1 1 1 1 1 1 1 1 1 1 1 1 1 1 1 1 1 1 1 1 1 1 1 1 1 1 1 1 1 1 1 1 1 1 1 1 1 1 1 1 1 1 1 1 1 1 1 1.000000e+00 1 1 1 1 1 1 1 1 1 1 1 1 
1 1 1 1 1 1 1 1 1 1 1 1 1.000000e+00 1.000000e+00 1.000000e+00 1.000000e+00 1.000000e+00 1.000000e+00 1.000000e+00 1.000000e+00 1.000000e+00 1.000000e+00 1.000000e+00 1.000000e+00 1.000000e+00 1.000000e+00 1.000000e+00 1.000000e+00 1.000000e+00 1.000000e+00 1.000000e+00 1.000000e+00 1.000000e+00 1.000000e+00 1.000000e+00 1.000000e+00 1.000000e+00 1.000000e+00 1.000000e+00 1.000000e+00 1.000000e+00 1.000000e+00 1.000000e+00 1.000000e+00 1.000000e+00 1.000000e+00 1.000000e+00 1.000000e+00 1.000000e+00 1.000000e+00 1.000000e+00 1.000000e+00 1.000000e+00 1.000000e+00 1.000000e+00 1.000000e+00 1.000000e+00 1.000000e+00 1.000000e+00 1.000000e+00 1.000000e+00 1.000000e+00 1.000000e+00 1.000000e+00 1.000000e+00 1.000000e+00 1.000000e+00 1.000000e+00 1.000000e+00 1.000000e+00 1.000000e+00 1.000000e+00 1.000000e+00 1.000000e+00 1.000000e+00 1.000000e+00 1.000000e+00 1.000000e+00 1.000000e+00 1.000000e+00 1.000000e+00 1.000000e+00 1.000000e+00 1.000000e+00 1.000000e+00 1.000000e+00 1.000000e+00 1.000000e+00 1.000000e+00 1.000000e+00 1.000000e+00 1.000000e+00 1.000000e+00 1.000000e+00 1.000000e+00 1.000000e+00 1.000000e+00 1.000000e+00 1.000000e+00 1.000000e+00 1.000000e+00 1.000000e+00 1.000000e+00 1.000000e+00 1.000000e+00 1.000000e+00 1.000000e+00 1.000000e+00 1.000000e+00 1.000000e+00 1.000000e+00 1.000000e+00 1.000000e+00 1.000000e+00 1.000000e+00 1.000000e+00 1.000000e+00 1 1 1 1 1 1 1 1 1 1 1 
1 1 1 1 1 1 1 1 1 1 1 1.000000e+00 1.000000e+00 1.000000e+00 1.000000e+00 1.000000e+00 1.000000e+00 1.000000e+00 1.000000e+00 1.000000e+00 1.000000e+00 1.000000e+00 1.000000e+00 1.000000e+00 1.000000e+00 1.000000e+00 1.000000e+00 1.000000e+00 1.000000e+00 1.000000e+00 1.000000e+00 1.000000e+00 1.000000e+00 1.000000e+00 1.000000e+00 1.000000e+00 1.000000e+00 1.000000e+00 1.000000e+00 1.000000e+00 1.000000e+00 1.000000e+00 1.000000e+00 1.000000e+00 1.000000e+00 1.000000e+00 1.000000e+00 1.000000e+00 1.000000e+00 1.000000e+00 1.000000e+00 1.000000e+00 1.000000e+00 1.000000e+00 1.000000e+00 1.000000e+00 1.000000e+00 1.000000e+00 1.000000e+00 1.000000e+00 1.000000e+00 1.000000e+00 1.000000e+00 1.000000e+00 1.000000e+00 1.000000e+00 1.000000e+00 1.000000e+00 1.000000e+00 1.000000e+00 1.000000e+00 1.000000e+00 1.000000e+00 1.000000e+00 1.000000e+00 1.000000e+00 1.000000e+00 1.000000e+00 1.000000e+00 1.000000e+00 1.000000e+00 1.000000e+00 1.000000e+00 1.000000e+00 1.000000e+00 1.000000e+00 1.000000e+00 1.000000e+00 1.000000e+00 1.000000e+00 1.000000e+00 1.000000e+00 1.000000e+00 1.000000e+00 1.000000e+00 1.000000e+00 1.000000e+00 1.000000e+00 1.000000e+00 1.000000e+00 1.000000e+00 1.000000e+00 1.000000e+00 1.000000e+00 1.000000e+00 1.000000e+00 1.000000e+00 1.000000e+00 1.000000e+00 1.000000e+00 1.000000e+00 1.000000e+00 1.000000e+00 1.000000e+00 1.000000e+00 1.000000e+00 1.000000e+00 1.000000e+00 1 1 1 1 1 1 1 1 1 1 
1 1 1 1 1 1 1 1 1 1 1.000000e+00 1.000000e+00 9.999998e-01 9.999799e-01 9.999887e-01 9.999920e-01 9.999949e-01 9.999920e-01 9.999977e-01 9.999937e-01 9.999970e-01 9.999963e-01 9.999954e-01 9.999978e-01 9.999951e-01 9.999975e-01 9.999960e-01 9.999969e-01 9.999969e-01 9.999971e-01 9.999963e-01 9.999979e-01 9.999956e-01 9.999984e-01 9.999957e-01 9.999981e-01 9.999964e-01 9.999979e-01 9.999966e-01 9.999980e-01 9.999964e-01 9.999983e-01 9.999962e-01 9.999983e-01 9.999963e-01 9.999982e-01 9.999965e-01 9.999981e-01 9.999965e-01 9.999981e-01 9.999964e-01 9.999982e-01 9.999964e-01 9.999981e-01 9.999964e-01 9.999981e-01 9.999965e-01 9.999981e-01 9.999965e-01 9.999981e-01 9.999964e-01 9.999981e-01 9.999964e-01 9.999981e-01 9.999964e-01 9.999981e-01 9.999964e-01 9.999981e-01 9.999964e-01 9.999981e-01 9.999965e-01 9.999981e-01 9.999965e-01 9.999981e-01 9.999964e-01 9.999981e-01 9.999964e-01 9.999982e-01 9.999964e-01 9.999981e-01 9.999965e-01 9.999981e-01 9.999965e-01 9.999982e-01 9.999963e-01 9.999983e-01 9.999962e-01 9.999982e-01 9.999964e-01 9.999980e-01 9.999966e-01 9.999979e-01 9.999964e-01 9.999981e-01 9.999957e-01 9.999984e-01 9.999956e-01 9.999979e-01 9.999963e-01 9.999971e-01 9.999969e-01 9.999969e-01 9.999960e-01 9.999976e-01 9.999951e-01 9.999977e-01 9.999955e-01 9.999962e-01 9.999971e-01 9.999937e-01 9.999977e-01 9.999922e-01 9.999949e-01 9.999921e-01 9.999892e-01 9.999797e-01 9.999998e-01 1.000000e+00 1.000000e+00 1 1 1 1 1 1 1 1 1 
1 1 1 1 1 1 1 1 1 1.000000e+00 1.000000e+00 9.999998e-01 9.999516e-01 9.940144e-01 9.953448e-01 9.959003e-01 9.967517e-01 9.955864e-01 9.976788e-01 9.960385e-01 9.975171e-01 9.970106e-01 9.968763e-01 9.978271e-01 9.968281e-01 9.976880e-01 9.973239e-01 9.973907e-01 9.978616e-01 9.974962e-01 9.975386e-01 9.979955e-01 9.971728e-01 9.984471e-01 9.972525e-01 9.981234e-01 9.976160e-01 9.979573e-01 9.977490e-01 9.980569e-01 9.975778e-01 9.982265e-01 9.974878e-01 9.982564e-01 9.975519e-01 9.981488e-01 9.976737e-01 9.980883e-01 9.976932e-01 9.981172e-01 9.976213e-01 9.981658e-01 9.976004e-01 9.981467e-01 9.976322e-01 9.981131e-01 9.976515e-01 9.981054e-01 9.976452e-01 9.981157e-01 9.976288e-01 9.981246e-01 9.976270e-01 9.981195e-01 9.976316e-01 9.981196e-01 9.976268e-01 9.981245e-01 9.976288e-01 9.981154e-01 9.976455e-01 9.981052e-01 9.976511e-01 9.981138e-01 9.976311e-01 9.981474e-01 9.976000e-01 9.981654e-01 9.976217e-01 9.981165e-01 9.976934e-01 9.980884e-01 9.976715e-01 9.981508e-01 9.975485e-01 9.982588e-01 9.974860e-01 9.982242e-01 9.975803e-01 9.980537e-01 9.977479e-01 9.979582e-01 9.976075e-01 9.981278e-01 9.972450e-01 9.984477e-01 9.971729e-01 9.979814e-01 9.975476e-01 9.974838e-01 9.978561e-01 9.973872e-01 9.973054e-01 9.976912e-01 9.968214e-01 9.978060e-01 9.968927e-01 9.969745e-01 9.975500e-01 9.960261e-01 9.976914e-01 9.956275e-01 9.967650e-01 9.960047e-01 9.954580e-01 9.938553e-01 9.999537e-01 9.999998e-01 1.000000e+00 1.000000e+00 1 1 1 1 1 1 1 1 
1 1 1 1 1 1 1 1 1 1.000000e+00 1.000000e+00 9.999733e-01 9.928407e-01 8.008814e-03 7.241798e-03 5.122833e-03 5.649318e-03 5.250529e-03 4.202989e-03 4.824565e-03 3.741415e-03 3.673194e-03 3.827293e-03 2.704664e-03 3.433582e-03 2.970540e-03 2.554353e-03 3.464248e-03 1.830878e-03 3.356437e-03 2.040419e-03 2.761173e-03 2.314572e-03 2.246939e-03 2.151156e-03 2.690949e-03 1.720244e-03 2.901101e-03 1.569868e-03 2.764268e-03 1.791947e-03 2.503727e-03 1.897386e-03 2.433947e-03 1.856118e-03 2.546191e-03 1.737466e-03 2.616505e-03 1.725934e-03 2.558504e-03 1.820308e-03 2.485504e-03 1.857620e-03 2.490929e-03 1.832008e-03 2.532268e-03 1.807937e-03 2.545890e-03 1.811645e-03 2.535820e-03 1.831102e-03 2.520430e-03 1.836575e-03 2.527318e-03 1.830276e-03 2.527333e-03 1.836564e-03 2.520474e-03 1.831047e-03 2.536230e-03 1.811162e-03 2.546328e-03 1.808275e-03 2.531753e-03 1.832993e-03 2.490622e-03 1.857499e-03 2.487134e-03 1.819017e-03 2.560591e-03 1.724825e-03 2.617631e-03 1.738556e-03 2.545224e-03 1.858126e-03 2.432724e-03 1.896808e-03 2.509845e-03 1.787003e-03 2.770773e-03 1.568105e-03 2.901273e-03 1.728655e-03 2.685068e-03 2.157440e-03 2.249516e-03 2.314783e-03 2.773550e-03 2.034923e-03 3.363625e-03 1.840499e-03 3.456713e-03 2.575056e-03 2.955271e-03 3.452086e-03 2.706731e-03 3.838952e-03 3.688313e-03 3.757097e-03 4.834956e-03 4.242397e-03 5.252807e-03 5.703588e-03 5.139725e-03 7.361974e-03 8.075485e-03 9.931194e-01 9.999742e-01 1.000000e+00 1.000000e+00 1 1 1 1 1 1 1 1 
1 1 1 1 1 1 1 1 1 1.000000e+00 1.000000e+00 9.999851e-01 9.950851e-01 5.644487e-03 4.277219e-05 6.924982e-06 1.872220e-05 1.168220e-05 8.276735e-06 1.113158e-05 5.988675e-06 6.414646e-06 6.729709e-06 3.329773e-06 5.429384e-06 4.385468e-06 2.988385e-06 5.918904e-06 1.656744e-06 5.546350e-06 2.149109e-06 4.020055e-06 2.653625e-06 3.155449e-06 2.288788e-06 3.995173e-06 1.624029e-06 4.441008e-06 1.460081e-06 4.095835e-06 1.756266e-06 3.573320e-06 1.903206e-06 3.484803e-06 1.825997e-06 3.657936e-06 1.673040e-06 3.768314e-06 1.676752e-06 3.641229e-06 1.802723e-06 3.506161e-06 1.848987e-06 3.519656e-06 1.807867e-06 3.586970e-06 1.776211e-06 3.600493e-06 1.789546e-06 3.575060e-06 1.812970e-06 3.549811e-06 1.814310e-06 3.566392e-06 1.805631e-06 3.566317e-06 1.814253e-06 3.549817e-06 1.812769e-06 3.575868e-06 1.788634e-06 3.601330e-06 1.776318e-06 3.586161e-06 1.808895e-06 3.518999e-06 1.848589e-06 3.508523e-06 1.800422e-06 3.644991e-06 1.674553e-06 3.770437e-06 1.673565e-06 3.656191e-06 1.828394e-06 3.483095e-06 1.901677e-06 3.583697e-06 1.748920e-06 4.108759e-06 1.456546e-06 4.440061e-06 1.634374e-06 3.981673e-06 2.298640e-06 3.155017e-06 2.653185e-06 4.042510e-06 2.139350e-06 5.556907e-06 1.667841e-06 5.889597e-06 3.026372e-06 4.341969e-06 5.477982e-06 3.325815e-06 6.774535e-06 6.445828e-06 6.058182e-06 1.117576e-05 8.469558e-06 1.171235e-05 1.913644e-05 7.107048e-06 4.347141e-05 5.501661e-03 9.952428e-01 9.999855e-01 1.000000e+00 1.000000e+00 1 1 1 1 1 1 1 1 
1 1 1 1 1 1 1 1 1 1.000000e+00 1.000000e+00 9.999884e-01 9.962015e-01 3.812495e-03 5.083318e-06 1.161883e-08 2.415964e-08 1.403162e-08 5.958078e-09 1.254407e-08 4.681799e-09 5.487177e-09 6.203698e-09 2.088756e-09 4.608092e-09 3.630663e-09 1.998401e-09 5.678647e-09 9.731577e-10 5.348245e-09 1.361926e-09 3.716050e-09 1.766504e-09 2.929570e-09 1.464626e-09 3.637442e-09 9.930874e-10 4.074953e-09 8.816979e-10 3.709165e-09 1.056258e-09 3.184684e-09 1.151573e-09 3.061556e-09 1.096656e-09 3.175266e-09 9.968049e-10 3.248506e-09 9.964109e-10 3.116853e-09 1.068692e-09 2.980470e-09 1.096407e-09 2.966204e-09 1.068522e-09 3.006363e-09 1.046268e-09 3.011289e-09 1.051320e-09 2.982154e-09 1.063495e-09 2.954586e-09 1.063565e-09 2.963666e-09 1.058184e-09 2.963619e-09 1.063246e-09 2.954345e-09 1.062984e-09 2.982289e-09 1.050321e-09 3.011147e-09 1.045740e-09 3.004670e-09 1.068419e-09 2.964589e-09 1.095287e-09 2.981089e-09 1.066206e-09 3.118508e-09 9.940490e-10 3.248208e-09 9.960257e-10 3.171448e-09 1.096974e-09 3.058135e-09 1.149024e-09 3.191685e-09 1.050039e-09 3.718659e-09 8.786221e-10 4.069220e-09 9.985315e-10 3.618830e-09 1.470509e-09 2.926082e-09 1.763982e-09 3.732461e-09 1.353489e-09 5.348595e-09 9.796206e-10 5.627094e-09 2.028965e-09 3.570899e-09 4.657838e-09 2.073577e-09 6.254427e-09 5.503793e-09 4.748576e-09 1.259511e-08 6.137577e-09 1.413588e-08 2.500919e-08 1.200631e-08 5.092138e-06 3.786076e-03 9.962394e-01 9.999883e-01 1.000000e+00 1.000000e+00 1 1 1 1 1 1 1 1 
1 1 1 1 1 1 1 1 1 1.000000e+00 1.000000e+00 9.999936e-01 9.968132e-01 4.330660e-03 1.433051e-05 2.148938e-08 3.577520e-11 7.964904e-12 3.701942e-12 9.073881e-12 2.561204e-12 3.698042e-12 4.086552e-12 1.471220e-12 2.930360e-12 2.606217e-12 1.140910e-12 4.362580e-12 5.629061e-13 4.195274e-12 7.597787e-13 2.966330e-12 9.670613e-13 2.382590e-12 7.826090e-13 2.802193e-12 5.282657e-13 3.055355e-12 4.679020e-13 2.736503e-12 5.390021e-13 2.328201e-12 5.746740e-13 2.197201e-12 5.389381e-13 2.212398e-12 4.871570e-13 2.210964e-12 4.811860e-13 2.092260e-12 5.065370e-13 1.977052e-12 5.127853e-13 1.937408e-12 4.954069e-13 1.935380e-12 4.816395e-13 1.919027e-12 4.802421e-13 1.887323e-12 4.823787e-13 1.862353e-12 4.805106e-13 1.861977e-12 4.774746e-13 1.861838e-12 4.801445e-13 1.861690e-12 4.818041e-13 1.886442e-12 4.793566e-13 1.917570e-12 4.808164e-13 1.932666e-12 4.946334e-13 1.934381e-12 5.114239e-13 1.974862e-12 5.044579e-13 2.090179e-12 4.790554e-13 2.207099e-12 4.856066e-13 2.206037e-12 5.377263e-13 2.190854e-12 5.718966e-13 2.327669e-12 5.344870e-13 2.736965e-12 4.649933e-13 3.043915e-12 5.293092e-13 2.781977e-12 7.837349e-13 2.372913e-12 9.630665e-13 2.968776e-12 7.533590e-13 4.180427e-12 5.647570e-13 4.301146e-12 1.156712e-12 2.547695e-12 2.960150e-12 1.448268e-12 4.113813e-12 3.687617e-12 2.588879e-12 9.067864e-12 3.813686e-12 7.992317e-12 3.659608e-11 2.129842e-08 1.421638e-05 4.233067e-03 9.968965e-01 9.999939e-01 1.000000e+00 1.000000e+00 1 1 1 1 1 1 1 1 
1 1 1 1 1 1 1 1 1 1.000000e+00 1.000000e+00 9.999906e-01 9.955372e-01 3.611509e-03 4.214743e-06 3.989938e-09 1.180430e-12 5.239727e-15 2.000348e-15 5.236953e-15 1.246480e-15 2.085319e-15 2.080310e-15 0 1.434389e-15 1.604785e-15 0 2.650811e-15 0 2.583312e-15 0 1.867419e-15 0 1.493899e-15 0 1.641658e-15 0 1.715098e-15 0 1.499252e-15 0 1.250377e-15 0 1.138862e-15 0 1.098547e-15 0 1.059644e-15 0 0 0 0 0 0 0 0 0 0 0 0 0 0 0 0 0 0 0 0 0 0 0 0 0 0 0 0 0 0 0 0 0 1.054751e-15 0 1.092160e-15 0 1.132074e-15 0 1.245435e-15 0 1.493505e-15 0 1.701788e-15 0 1.623732e-15 0 1.481724e-15 0 1.859138e-15 0 2.560245e-15 0 2.598262e-15 0 1.559863e-15 1.444772e-15 0 2.087734e-15 2.064277e-15 1.256182e-15 5.206550e-15 2.058189e-15 5.266907e-15 1.223747e-12 4.078638e-09 4.263894e-06 3.567000e-03 9.956370e-01 9.999909e-01 1.000000e+00 1.000000e+00 1 1 1 1 1 1 1 1 
1 1 1 1 1 1 1 1 1 1.000000e+00 1.000000e+00 9.999981e-01 9.981390e-01 3.386340e-03 6.744141e-06 5.578105e-09 3.142943e-12 1.761446e-15 0 0 0 0 0 0 0 0 0 0 0 0 0 0 0 0 0 0 0 0 0 0 0 0 0 0 0 0 0 0 0 0 0 0 0 0 0 0 0 0 0 0 0 0 0 0 0 0 0 0 0 0 0 0 0 0 0 0 0 0 0 0 0 0 0 0 0 0 0 0 0 0 0 0 0 0 0 0 0 0 0 0 0 0 0 0 0 0 0 0 0 0 0 1.743748e-15 3.087072e-12 5.444007e-09 6.640552e-06 3.331327e-03 9.981857e-01 9.999981e-01 1.000000e+00 1.000000e+00 1 1 1 1 1 1 1 1 
1 1 1 1 1 1 1 1 1 1.000000e+00 1.000000e+00 9.999926e-01 9.958749e-01 3.645938e-03 5.983037e-06 5.427453e-09 2.517139e-12 1.034543e-15 0 0 0 0 0 0 0 0 0 0 0 0 0 0 0 0 0 0 0 0 0 0 0 0 0 0 0 0 0 0 0 0 0 0 0 0 0 0 0 0 0 0 0 0 0 0 0 0 0 0 0 0 0 0 0 0 0 0 0 0 0 0 0 0 0 0 0 0 0 0 0 0 0 0 0 0 0 0 0 0 0 0 0 0 0 0 0 0 0 0 0 0 0 1.039357e-15 2.509907e-12 5.366547e-09 5.916372e-06 3.594372e-03 9.959470e-01 9.999928e-01 1.000000e+00 1.000000e+00 1 1 1 1 1 1 1 1 
1 1 1 1 1 1 1 1 1 1.000000e+00 1.000000e+00 9.999980e-01 9.980160e-01 2.986755e-03 3.579216e-06 2.661810e-09 1.231439e-12 0 0 0 0 0 0 0 0 0 0 0 0 0 0 0 0 0 0 0 0 0 0 0 0 0 0 0 0 0 0 0 0 0 0 0 0 0 0 0 0 0 0 0 0 0 0 0 0 0 0 0 0 0 0 0 0 0 0 0 0 0 0 0 0 0 0 0 0 0 0 0 0 0 0 0 0 0 0 0 0 0 0 0 0 0 0 0 0 0 0 0 0 0 0 0 1.256170e-12 2.688368e-09 3.569469e-06 2.955166e-03 9.980570e-01 9.999980e-01 1.000000e+00 1.000000e+00 1 1 1 1 1 1 1 1 
1 1 1 1 1 1 1 1 1 1.000000e+00 1.000000e+00 9.999954e-01 9.968114e-01 2.952507e-03 4.206979e-06 3.230758e-09 1.550633e-12 0 0 0 0 0 0 0 0 0 0 0 0 0 0 0 0 0 0 0 0 0 0 0 0 0 0 0 0 0 0 0 0 0 0 0 0 0 0 0 0 0 0 0 0 0 0 0 0 0 0 0 0 0 0 0 0 0 0 0 0 0 0 0 0 0 0 0 0 0 0 0 0 0 0 0 0 0 0 0 0 0 0 0 0 0 0 0 0 0 0 0 0 0 0 0 1.519103e-12 3.152309e-09 4.125553e-06 2.911313e-03 9.968402e-01 9.999955e-01 1.000000e+00 1.000000e+00 1 1 1 1 1 1 1 1 
1 1 1 1 1 1 1 1 1 1.000000e+00 1.000000e+00 9.999968e-01 9.973216e-01 3.478787e-03 5.199960e-06 4.519142e-09 2.361339e-12 0 0 0 0 0 0 0 0 0 0 0 0 0 0 0 0 0 0 0 0 0 0 0 0 0 0 0 0 0 0 0 0 0 0 0 0 0 0 0 0 0 0 0 0 0 0 0 0 0 0 0 0 0 0 0 0 0 0 0 0 0 0 0 0 0 0 0 0 0 0 0 0 0 0 0 0 0 0 0 0 0 0 0 0 0 0 0 0 0 0 0 0 0 0 0 2.364468e-12 4.492128e-09 5.157593e-06 3.446176e-03 9.973623e-01 9.999969e-01 1.000000e+00 1.000000e+00 1 1 1 1 1 1 1 1 
1 1 1 1 1 1 1 1 1 1.000000e+00 1.000000e+00 9.999973e-01 9.977903e-01 1.896051e-03 1.836007e-06 1.166094e-09 5.450222e-13 0 0 0 0 0 0 0 0 0 0 0 0 0 0 0 0 0 0 0 0 0 0 0 0 0 0 0 0 0 0 0 0 0 0 0 0 0 0 0 0 0 0 0 0 0 0 0 0 0 0 0 0 0 0 0 0 0 0 0 0 0 0 0 0 0 0 0 0 0 0 0 0 0 0 0 0 0 0 0 0 0 0 0 0 0 0 0 0 0 0 0 0 0 0 0 5.439748e-13 1.154590e-09 1.810613e-06 1.882650e-03 9.977709e-01 9.999972e-01 1.000000e+00 1.000000e+00 1 1 1 1 1 1 1 1 
1 1 1 1 1 1 1 1 1 1.000000e+00 1.000000e+00 9.999963e-01 9.970695e-01 3.470054e-03 5.345173e-06 4.664336e-09 2.525068e-12 0 0 0 0 0 0 0 0 0 0 0 0 0 0 0 0 0 0 0 0 0 0 0 0 0 0 0 0 0 0 0 0 0 0 0 0 0 0 0 0 0 0 0 0 0 0 0 0 0 0 0 0 0 0 0 0 0 0 0 0 0 0 0 0 0 0 0 0 0 0 0 0 0 0 0 0 0 0 0 0 0 0 0 0 0 0 0 0 0 0 0 0 0 0 0 2.491960e-12 4.589906e-09 5.273404e-06 3.437863e-03 9.970960e-01 9.999963e-01 1.000000e+00 1.000000e+00 1 1 1 1 1 1 1 1 
1 1 1 1 1 1 1 1 1 1.000000e+00 1.000000e+00 9.999973e-01 9.977340e-01 2.194299e-03 2.260255e-06 1.516610e-09 6.910816e-13 0 0 0 0 0 0 0 0 0 0 0 0 0 0 0 0 0 0 0 0 0 0 0 0 0 0 0 0 0 0 0 0 0 0 0 0 0 0 0 0 0 0 0 0 0 0 0 0 0 0 0 0 0 0 0 0 0 0 0 0 0 0 0 0 0 0 0 0 0 0 0 0 0 0 0 0 0 0 0 0 0 0 0 0 0 0 0 0 0 0 0 0 0 0 0 7.031973e-13 1.531918e-09 2.268075e-06 2.183820e-03 9.977456e-01 9.999974e-01 1.000000e+00 1.000000e+00 1 1 1 1 1 1 1 1 
1 1 1 1 1 1 1 1 1 1.000000e+00 1.000000e+00 9.999968e-01 9.973555e-01 2.781853e-03 3.511566e-06 2.657460e-09 1.329109e-12 0 0 0 0 0 0 0 0 0 0 0 0 0 0 0 0 0 0 0 0 0 0 0 0 0 0 0 0 0 0 0 0 0 0 0 0 0 0 0 0 0 0 0 0 0 0 0 0 0 0 0 0 0 0 0 0 0 0 0 0 0 0 0 0 0 0 0 0 0 0 0 0 0 0 0 0 0 0 0 0 0 0 0 0 0 0 0 0 0 0 0 0 0 0 0 1.314758e-12 2.619845e-09 3.467612e-06 2.762926e-03 9.973616e-01 9.999968e-01 1.000000e+00 1.000000e+00 1 1 1 1 1 1 1 1 
1 1 1 1 1 1 1 1 1 1.000000e+00 1.000000e+00 9.999966e-01 9.972925e-01 2.976541e-03 3.954144e-06 3.096148e-09 1.522438e-12 0 0 0 0 0 0 0 0 0 0 0 0 0 0 0 0 0 0 0 0 0 0 0 0 0 0 0 0 0 0 0 0 0 0 0 0 0 0 0 0 0 0 0 0 0 0 0 0 0 0 0 0 0 0 0 0 0 0 0 0 0 0 0 0 0 0 0 0 0 0 0 0 0 0 0 0 0 0 0 0 0 0 0 0 0 0 0 0 0 0 0 0 0 0 0 1.521867e-12 3.078136e-09 3.926779e-06 2.958721e-03 9.973079e-01 9.999967e-01 1.000000e+00 1.000000e+00 1 1 1 1 1 1 1 1 
1 1 1 1 1 1 1 1 1 1.000000e+00 1.000000e+00 9.999973e-01 9.977933e-01 2.005579e-03 2.019434e-06 1.383527e-09 6.590381e-13 0 0 0 0 0 0 0 0 0 0 0 0 0 0 0 0 0 0 0 0 0 0 0 0 0 0 0 0 0 0 0 0 0 0 0 0 0 0 0 0 0 0 0 0 0 0 0 0 0 0 0 0 0 0 0 0 0 0 0 0 0 0 0 0 0 0 0 0 0 0 0 0 0 0 0 0 0 0 0 0 0 0 0 0 0 0 0 0 0 0 0 0 0 0 0 6.670097e-13 1.394291e-09 2.027161e-06 2.004208e-03 9.977896e-01 9.999973e-01 1.000000e+00 1.000000e+00 1 1 1 1 1 1 1 1 
1 1 1 1 1 1 1 1 1 1.000000e+00 1.000000e+00 9.999966e-01 9.972378e-01 3.141834e-03 4.366336e-06 3.563384e-09 1.830423e-12 0 0 0 0 0 0 0 0 0 0 0 0 0 0 0 0 0 0 0 0 0 0 0 0 0 0 0 0 0 0 0 0 0 0 0 0 0 0 0 0 0 0 0 0 0 0 0 0 0 0 0 0 0 0 0 0 0 0 0 0 0 0 0 0 0 0 0 0 0 0 0 0 0 0 0 0 0 0 0 0 0 0 0 0 0 0 0 0 0 0 0 0 0 0 0 1.821379e-12 3.532816e-09 4.330827e-06 3.125295e-03 9.972491e-01 9.999966e-01 1.000000e+00 1.000000e+00 1 1 1 1 1 1 1 1 
1 1 1 1 1 1 1 1 1 1.000000e+00 1.000000e+00 9.999970e-01 9.975842e-01 2.151390e-03 2.272493e-06 1.569010e-09 7.142814e-13 0 0 0 0 0 0 0 0 0 0 0 0 0 0 0 0 0 0 0 0 0 0 0 0 0 0 0 0 0 0 0 0 0 0 0 0 0 0 0 0 0 0 0 0 0 0 0 0 0 0 0 0 0 0 0 0 0 0 0 0 0 0 0 0 0 0 0 0 0 0 0 0 0 0 0 0 0 0 0 0 0 0 0 0 0 0 0 0 0 0 0 0 0 0 0 7.232893e-13 1.579802e-09 2.280973e-06 2.152549e-03 9.975843e-01 9.999970e-01 1.000000e+00 1.000000e+00 1 1 1 1 1 1 1 1 
1 1 1 1 1 1 1 1 1 1.000000e+00 1.000000e+00 9.999972e-01 9.975694e-01 2.743694e-03 3.448694e-06 2.682287e-09 1.349621e-12 0 0 0 0 0 0 0 0 0 0 0 0 0 0 0 0 0 0 0 0 0 0 0 0 0 0 0 0 0 0 0 0 0 0 0 0 0 0 0 0 0 0 0 0 0 0 0 0 0 0 0 0 0 0 0 0 0 0 0 0 0 0 0 0 0 0 0 0 0 0 0 0 0 0 0 0 0 0 0 0 0 0 0 0 0 0 0 0 0 0 0 0 0 0 0 1.350196e-12 2.671994e-09 3.431528e-06 2.734814e-03 9.975730e-01 9.999972e-01 1.000000e+00 1.000000e+00 1 1 1 1 1 1 1 1 
1 1 1 1 1 1 1 1 1 1.000000e+00 1.000000e+00 9.999963e-01 9.971982e-01 2.606499e-03 3.101049e-06 2.243555e-09 1.027114e-12 0 0 0 0 0 0 0 0 0 0 0 0 0 0 0 0 0 0 0 0 0 0 0 0 0 0 0 0 0 0 0 0 0 0 0 0 0 0 0 0 0 0 0 0 0 0 0 0 0 0 0 0 0 0 0 0 0 0 0 0 0 0 0 0 0 0 0 0 0 0 0 0 0 0 0 0 0 0 0 0 0 0 0 0 0 0 0 0 0 0 0 0 0 0 0 1.026949e-12 2.233865e-09 3.085581e-06 2.596931e-03 9.972051e-01 9.999963e-01 1.000000e+00 1.000000e+00 1 1 1 1 1 1 1 1 
1 1 1 1 1 1 1 1 1 1.000000e+00 1.000000e+00 9.999977e-01 9.979056e-01 2.326273e-03 2.701527e-06 2.039988e-09 1.000540e-12 0 0 0 0 0 0 0 0 0 0 0 0 0 0 0 0 0 0 0 0 0 0 0 0 0 0 0 0 0 0 0 0 0 0 0 0 0 0 0 0 0 0 0 0 0 0 0 0 0 0 0 0 0 0 0 0 0 0 0 0 0 0 0 0 0 0 0 0 0 0 0 0 0 0 0 0 0 0 0 0 0 0 0 0 0 0 0 0 0 0 0 0 0 0 0 1.015490e-12 2.061398e-09 2.722212e-06 2.335689e-03 9.979003e-01 9.999977e-01 1.000000e+00 1.000000e+00 1 1 1 1 1 1 1 1 
1 1 1 1 1 1 1 1 1 1.000000e+00 1.000000e+00 9.999962e-01 9.971468e-01 2.611514e-03 3.085639e-06 2.222929e-09 1.016043e-12 0 0 0 0 0 0 0 0 0 0 0 0 0 0 0 0 0 0 0 0 0 0 0 0 0 0 0 0 0 0 0 0 0 0 0 0 0 0 0 0 0 0 0 0 0 0 0 0 0 0 0 0 0 0 0 0 0 0 0 0 0 0 0 0 0 0 0 0 0 0 0 0 0 0 0 0 0 0 0 0 0 0 0 0 0 0 0 0 0 0 0 0 0 0 0 1.013224e-12 2.208090e-09 3.063874e-06 2.599902e-03 9.971530e-01 9.999962e-01 1.000000e+00 1.000000e+00 1 1 1 1 1 1 1 1 
1 1 1 1 1 1 1 1 1 1.000000e+00 1.000000e+00 9.999974e-01 9.977397e-01 2.587333e-03 3.174900e-06 2.409138e-09 1.143258e-12 0 0 0 0 0 0 0 0 0 0 0 0 0 0 0 0 0 0 0 0 0 0 0 0 0 0 0 0 0 0 0 0 0 0 0 0 0 0 0 0 0 0 0 0 0 0 0 0 0 0 0 0 0 0 0 0 0 0 0 0 0 0 0 0 0 0 0 0 0 0 0 0 0 0 0 0 0 0 0 0 0 0 0 0 0 0 0 0 0 0 0 0 0 0 0 1.154643e-12 2.421441e-09 3.183180e-06 2.589951e-03 9.977387e-01 9.999974e-01 1.000000e+00 1.000000e+00 1 1 1 1 1 1 1 1 
1 1 1 1 1 1 1 1 1 1.000000e+00 1.000000e+00 9.999966e-01 9.973527e-01 2.327993e-03 2.566976e-06 1.786787e-09 7.964139e-13 0 0 0 0 0 0 0 0 0 0 0 0 0 0 0 0 0 0 0 0 0 0 0 0 0 0 0 0 0 0 0 0 0 0 0 0 0 0 0 0 0 0 0 0 0 0 0 0 0 0 0 0 0 0 0 0 0 0 0 0 0 0 0 0 0 0 0 0 0 0 0 0 0 0 0 0 0 0 0 0 0 0 0 0 0 0 0 0 0 0 0 0 0 0 0 8.009774e-13 1.789404e-09 2.566402e-06 2.326545e-03 9.973529e-01 9.999966e-01 1.000000e+00 1.000000e+00 1 1 1 1 1 1 1 1 
1 1 1 1 1 1 1 1 1 1.000000e+00 1.000000e+00 9.999971e-01 9.975283e-01 2.839464e-03 3.663897e-06 2.831400e-09 1.332837e-12 0 0 0 0 0 0 0 0 0 0 0 0 0 0 0 0 0 0 0 0 0 0 0 0 0 0 0 0 0 0 0 0 0 0 0 0 0 0 0 0 0 0 0 0 0 0 0 0 0 0 0 0 0 0 0 0 0 0 0 0 0 0 0 0 0 0 0 0 0 0 0 0 0 0 0 0 0 0 0 0 0 0 0 0 0 0 0 0 0 0 0 0 0 0 0 1.336684e-12 2.826450e-09 3.651826e-06 2.832507e-03 9.975335e-01 9.999971e-01 1.000000e+00 1.000000e+00 1 1 1 1 1 1 1 1 
1 1 1 1 1 1 1 1 1 1.000000e+00 1.000000e+00 9.999968e-01 9.974870e-01 2.172788e-03 2.314470e-06 1.573869e-09 6.807624e-13 0 0 0 0 0 0 0 0 0 0 0 0 0 0 0 0 0 0 0 0 0 0 0 0 0 0 0 0 0 0 0 0 0 0 0 0 0 0 0 0 0 0 0 0 0 0 0 0 0 0 0 0 0 0 0 0 0 0 0 0 0 0 0 0 0 0 0 0 0 0 0 0 0 0 0 0 0 0 0 0 0 0 0 0 0 0 0 0 0 0 0 0 0 0 0 6.881567e-13 1.583933e-09 2.324109e-06 2.178095e-03 9.974830e-01 9.999968e-01 1.000000e+00 1.000000e+00 1 1 1 1 1 1 1 1 
1 1 1 1 1 1 1 1 1 1.000000e+00 1.000000e+00 9.999970e-01 9.975197e-01 2.804527e-03 3.583072e-06 2.735205e-09 1.261643e-12 0 0 0 0 0 0 0 0 0 0 0 0 0 0 0 0 0 0 0 0 0 0 0 0 0 0 0 0 0 0 0 0 0 0 0 0 0 0 0 0 0 0 0 0 0 0 0 0 0 0 0 0 0 0 0 0 0 0 0 0 0 0 0 0 0 0 0 0 0 0 0 0 0 0 0 0 0 0 0 0 0 0 0 0 0 0 0 0 0 0 0 0 0 0 0 1.266521e-12 2.733566e-09 3.575025e-06 2.799503e-03 9.975232e-01 9.999970e-01 1.000000e+00 1.000000e+00 1 1 1 1 1 1 1 1 
1 1 1 1 1 1 1 1 1 1.000000e+00 1.000000e+00 9.999967e-01 9.974198e-01 2.318592e-03 2.564974e-06 1.743010e-09 7.319986e-13 0 0 0 0 0 0 0 0 0 0 0 0 0 0 0 0 0 0 0 0 0 0 0 0 0 0 0 0 0 0 0 0 0 0 0 0 0 0 0 0 0 0 0 0 0 0 0 0 0 0 0 0 0 0 0 0 0 0 0 0 0 0 0 0 0 0 0 0 0 0 0 0 0 0 0 0 0 0 0 0 0 0 0 0 0 0 0 0 0 0 0 0 0 0 0 7.367500e-13 1.746976e-09 2.564920e-06 2.317361e-03 9.974204e-01 9.999967e-01 1.000000e+00 1.000000e+00 1 1 1 1 1 1 1 1 
1 1 1 1 1 1 1 1 1 1.000000e+00 1.000000e+00 9.999972e-01 9.976185e-01 2.623811e-03 3.211542e-06 2.375107e-09 1.055753e-12 0 0 0 0 0 0 0 0 0 0 0 0 0 0 0 0 0 0 0 0 0 0 0 0 0 0 0 0 0 0 0 0 0 0 0 0 0 0 0 0 0 0 0 0 0 0 0 0 0 0 0 0 0 0 0 0 0 0 0 0 0 0 0 0 0 0 0 0 0 0 0 0 0 0 0 0 0 0 0 0 0 0 0 0 0 0 0 0 0 0 0 0 0 0 0 1.064127e-12 2.382774e-09 3.214629e-06 2.624483e-03 9.976184e-01 9.999972e-01 1.000000e+00 1.000000e+00 1 1 1 1 1 1 1 1 
1 1 1 1 1 1 1 1 1 1.000000e+00 1.000000e+00 9.999965e-01 9.973234e-01 2.478076e-03 2.842768e-06 1.945997e-09 7.986372e-13 0 0 0 0 0 0 0 0 0 0 0 0 0 0 0 0 0 0 0 0 0 0 0 0 0 0 0 0 0 0 0 0 0 0 0 0 0 0 0 0 0 0 0 0 0 0 0 0 0 0 0 0 0 0 0 0 0 0 0 0 0 0 0 0 0 0 0 0 0 0 0 0 0 0 0 0 0 0 0 0 0 0 0 0 0 0 0 0 0 0 0 0 0 0 0 8.018587e-13 1.945506e-09 2.836800e-06 2.474157e-03 9.973256e-01 9.999965e-01 1.000000e+00 1.000000e+00 1 1 1 1 1 1 1 1 
1 1 1 1 1 1 1 1 1 1.000000e+00 1.000000e+00 9.999972e-01 9.976655e-01 2.526993e-03 3.028908e-06 2.171881e-09 9.190093e-13 0 0 0 0 0 0 0 0 0 0 0 0 0 0 0 0 0 0 0 0 0 0 0 0 0 0 0 0 0 0 0 0 0 0 0 0 0 0 0 0 0 0 0 0 0 0 0 0 0 0 0 0 0 0 0 0 0 0 0 0 0 0 0 0 0 0 0 0 0 0 0 0 0 0 0 0 0 0 0 0 0 0 0 0 0 0 0 0 0 0 0 0 0 0 0 9.279111e-13 2.181977e-09 3.034648e-06 2.528787e-03 9.976642e-01 9.999972e-01 1.000000e+00 1.000000e+00 1 1 1 1 1 1 1 1 
1 1 1 1 1 1 1 1 1 1.000000e+00 1.000000e+00 9.999965e-01 9.973444e-01 2.490089e-03 2.866568e-06 1.945506e-09 7.747235e-13 0 0 0 0 0 0 0 0 0 0 0 0 0 0 0 0 0 0 0 0 0 0 0 0 0 0 0 0 0 0 0 0 0 0 0 0 0 0 0 0 0 0 0 0 0 0 0 0 0 0 0 0 0 0 0 0 0 0 0 0 0 0 0 0 0 0 0 0 0 0 0 0 0 0 0 0 0 0 0 0 0 0 0 0 0 0 0 0 0 0 0 0 0 0 0 7.785489e-13 1.946568e-09 2.863021e-06 2.487230e-03 9.973467e-01 9.999965e-01 1.000000e+00 1.000000e+00 1 1 1 1 1 1 1 1 
1 1 1 1 1 1 1 1 1 1.000000e+00 1.000000e+00 9.999970e-01 9.975785e-01 2.593488e-03 3.136778e-06 2.214539e-09 8.958661e-13 0 0 0 0 0 0 0 0 0 0 0 0 0 0 0 0 0 0 0 0 0 0 0 0 0 0 0 0 0 0 0 0 0 0 0 0 0 0 0 0 0 0 0 0 0 0 0 0 0 0 0 0 0 0 0 0 0 0 0 0 0 0 0 0 0 0 0 0 0 0 0 0 0 0 0 0 0 0 0 0 0 0 0 0 0 0 0 0 0 0 0 0 0 0 0 9.029507e-13 2.221262e-09 3.138206e-06 2.593402e-03 9.975782e-01 9.999970e-01 1.000000e+00 1.000000e+00 1 1 1 1 1 1 1 1 
1 1 1 1 1 1 1 1 1 1.000000e+00 1.000000e+00 9.999967e-01 9.974427e-01 2.399584e-03 2.708114e-06 1.796066e-09 6.892637e-13 0 0 0 0 0 0 0 0 0 0 0 0 0 0 0 0 0 0 0 0 0 0 0 0 0 0 0 0 0 0 0 0 0 0 0 0 0 0 0 0 0 0 0 0 0 0 0 0 0 0 0 0 0 0 0 0 0 0 0 0 0 0 0 0 0 0 0 0 0 0 0 0 0 0 0 0 0 0 0 0 0 0 0 0 0 0 0 0 0 0 0 0 0 0 0 6.940239e-13 1.800533e-09 2.708859e-06 2.399114e-03 9.974431e-01 9.999967e-01 1.000000e+00 1.000000e+00 1 1 1 1 1 1 1 1 
1 1 1 1 1 1 1 1 1 1.000000e+00 1.000000e+00 9.999969e-01 9.974975e-01 2.660481e-03 3.245168e-06 2.251848e-09 8.698857e-13 0 0 0 0 0 0 0 0 0 0 0 0 0 0 0 0 0 0 0 0 0 0 0 0 0 0 0 0 0 0 0 0 0 0 0 0 0 0 0 0 0 0 0 0 0 0 0 0 0 0 0 0 0 0 0 0 0 0 0 0 0 0 0 0 0 0 0 0 0 0 0 0 0 0 0 0 0 0 0 0 0 0 0 0 0 0 0 0 0 0 0 0 0 0 0 8.751995e-13 2.255315e-09 3.242853e-06 2.658364e-03 9.974991e-01 9.999969e-01 1.000000e+00 1.000000e+00 1 1 1 1 1 1 1 1 
1 1 1 1 1 1 1 1 1 1.000000e+00 1.000000e+00 9.999967e-01 9.974872e-01 2.380110e-03 2.677161e-06 1.737177e-09 6.386111e-13 0 0 0 0 0 0 0 0 0 0 0 0 0 0 0 0 0 0 0 0 0 0 0 0 0 0 0 0 0 0 0 0 0 0 0 0 0 0 0 0 0 0 0 0 0 0 0 0 0 0 0 0 0 0 0 0 0 0 0 0 0 0 0 0 0 0 0 0 0 0 0 0 0 0 0 0 0 0 0 0 0 0 0 0 0 0 0 0 0 0 0 0 0 0 0 6.439061e-13 1.744235e-09 2.681255e-06 2.381583e-03 9.974862e-01 9.999967e-01 1.000000e+00 1.000000e+00 1 1 1 1 1 1 1 1 
1 1 1 1 1 1 1 1 1 1.000000e+00 1.000000e+00 9.999969e-01 9.975011e-01 2.620378e-03 3.150599e-06 2.123967e-09 7.793881e-13 0 0 0 0 0 0 0 0 0 0 0 0 0 0 0 0 0 0 0 0 0 0 0 0 0 0 0 0 0 0 0 0 0 0 0 0 0 0 0 0 0 0 0 0 0 0 0 0 0 0 0 0 0 0 0 0 0 0 0 0 0 0 0 0 0 0 0 0 0 0 0 0 0 0 0 0 0 0 0 0 0 0 0 0 0 0 0 0 0 0 0 0 0 0 0 7.845115e-13 2.127978e-09 3.148493e-06 2.618178e-03 9.975025e-01 9.999969e-01 1.000000e+00 1.000000e+00 1 1 1 1 1 1 1 1 
1 1 1 1 1 1 1 1 1 1.000000e+00 1.000000e+00 9.999967e-01 9.974549e-01 2.452713e-03 2.790167e-06 1.771099e-09 6.203956e-13 0 0 0 0 0 0 0 0 0 0 0 0 0 0 0 0 0 0 0 0 0 0 0 0 0 0 0 0 0 0 0 0 0 0 0 0 0 0 0 0 0 0 0 0 0 0 0 0 0 0 0 0 0 0 0 0 0 0 0 0 0 0 0 0 0 0 0 0 0 0 0 0 0 0 0 0 0 0 0 0 0 0 0 0 0 0 0 0 0 0 0 0 0 0 0 6.246537e-13 1.775945e-09 2.790692e-06 2.452296e-03 9.974553e-01 9.999967e-01 1.000000e+00 1.000000e+00 1 1 1 1 1 1 1 1 