# vtk DataFile Version 2.0
fMag
ASCII
DATASET UNSTRUCTURED_GRID

FIELD FieldData 1
TIME 1 1 double
1.06000000
POINTS 249 float
7.846248670470628e-01 5.000000000000000e-01 0.000000000000000e+00
7.845335146199115e-01 5.069172360344133e-01 0.000000000000000e+00
7.842487152826987e-01 5.138824632746426e-01 0.000000000000000e+00
7.837630998970949e-01 5.208397798798862e-01 0.000000000000000e+00
7.831589696460237e-01 5.276483160750279e-01 0.000000000000000e+00
7.822571377552395e-01 5.346731839878252e-01 0.000000000000000e+00
7.813897821491417e-01 5.412180059420779e-01 0.000000000000000e+00
7.799821170721761e-01 5.484173200927147e-01 0.000000000000000e+00
7.789991356600885e-01 5.544874330121704e-01 0.000000000000000e+00
7.770416092482517e-01 5.618311529553819e-01 0.000000000000000e+00
7.757358420389086e-01 5.678917481176009e-01 0.000000000000000e+00
7.735281938831120e-01 5.748890153953593e-01 0.000000000000000e+00
7.715106492142273e-01 5.814025871100891e-01 0.000000000000000e+00
7.693216354502386e-01 5.877847809244832e-01 0.000000000000000e+00
7.665782496319429e-01 5.946023512210931e-01 0.000000000000000e+00
7.644967920738047e-01 6.002854143648797e-01 0.000000000000000e+00
7.613889375672567e-01 6.070922281744727e-01 0.000000000000000e+00
7.585581692635673e-01 6.130979140096625e-01 0.000000000000000e+00
7.553817005072805e-01 6.193219530051284e-01 0.000000000000000e+00
7.519674579822052e-01 6.256004316716788e-01 0.000000000000000e+00
7.487897460099769e-01 6.312568617540002e-01 0.000000000000000e+00
7.450339572474730e-01 6.373727799709893e-01 0.000000000000000e+00
7.413108298847166e-01 6.430865550111702e-01 0.000000000000000e+00
7.374504316444418e-01 6.487744340864461e-01 0.000000000000000e+00
7.332345386378506e-01 6.545528072491491e-01 0.000000000000000e+00
7.291685320672223e-01 6.599031045774579e-01 0.000000000000000e+00
7.248363510679001e-01 6.652923039154893e-01 0.000000000000000e+00
7.202109911915074e-01 6.706984053426155e-01 0.000000000000000e+00
7.157001490468250e-01 6.757695957220585e-01 0.000000000000000e+00
7.110148440634584e-01 6.807519896555070e-01 0.000000000000000e+00
7.059641188887613e-01 6.858261526196999e-01 0.000000000000000e+00
7.010090601297020e-01 6.906085936593211e-01 0.000000000000000e+00
6.959945138004743e-01 6.951798657740221e-01 0.000000000000000e+00
6.905764066875230e-01 6.998217999167466e-01 0.000000000000000e+00
6.852068567900976e-01 7.042733438619891e-01 0.000000000000000e+00
6.798567443533672e-01 7.084612639908696e-01 0.000000000000000e+00
6.742114981906139e-01 7.126126557774570e-01 0.000000000000000e+00
6.684235470232099e-01 7.166796830649235e-01 0.000000000000000e+00
6.627243821086958e-01 7.204944365269094e-01 0.000000000000000e+00
6.567642652058403e-01 7.242782213325341e-01 0.000000000000000e+00
6.506787115222218e-01 7.278978238769120e-01 0.000000000000000e+00
6.448828939556268e-01 7.311424649106729e-01 0.000000000000000e+00
6.384814754398761e-01 7.345715735294195e-01 0.000000000000000e+00
6.322653260686546e-01 7.377107808085548e-01 0.000000000000000e+00
6.261286449583762e-01 7.406113120839365e-01 0.000000000000000e+00
6.193456076144861e-01 7.436362510853360e-01 0.000000000000000e+00
6.134820568002409e-01 7.459093187888954e-01 0.000000000000000e+00
6.065077184259479e-01 7.488223463556889e-01 0.000000000000000e+00
6.002677904955103e-01 7.508800177716957e-01 0.000000000000000e+00
5.936035270325629e-01 7.530801900866453e-01 0.000000000000000e+00
5.865378639308753e-01 7.553878079794547e-01 0.000000000000000e+00
5.802394281604067e-01 7.570479745791741e-01 0.000000000000000e+00
5.729344181857281e-01 7.590450747842602e-01 0.000000000000000e+00
5.669113296787952e-01 7.601664741559950e-01 0.000000000000000e+00
5.595428375289977e-01 7.618439764290652e-01 0.000000000000000e+00
5.529132439474053e-01 7.629855343135487e-01 0.000000000000000e+00
5.458902645083374e-01 7.640911656857635e-01 0.000000000000000e+00
5.388156338903978e-01 7.650615034925040e-01 0.000000000000000e+00
5.318885985264716e-01 7.658208156301841e-01 0.000000000000000e+00
5.247198512364575e-01 7.664720008323497e-01 0.000000000000000e+00
5.178467189588047e-01 7.668698320585967e-01 0.000000000000000e+00
5.106806247154161e-01 7.671761421006796e-01 0.000000000000000e+00
5.037022902749493e-01 7.672855082465497e-01 0.000000000000000e+00
4.965621721488616e-01 7.672491255059349e-01 0.000000000000000e+00
4.895757830180494e-01 7.670575521194922e-01 0.000000000000000e+00
4.824348937496001e-01 7.666655497553944e-01 0.000000000000000e+00
4.755724500458976e-01 7.661848430515994e-01 0.000000000000000e+00
4.683555778272100e-01 7.654227991764923e-01 0.000000000000000e+00
4.616318201279821e-01 7.646599323963809e-01 0.000000000000000e+00
4.543676413761173e-01 7.635491087044811e-01 0.000000000000000e+00
4.477130805372710e-01 7.624942545036336e-01 0.000000000000000e+00
4.406057858171648e-01 7.610355598199308e-01 0.000000000000000e+00
4.336567999498672e-01 7.594336828739607e-01 0.000000000000000e+00
4.272247853063403e-01 7.581023954453175e-01 0.000000000000000e+00
4.200574581820420e-01 7.560580859394901e-01 0.000000000000000e+00
4.138823959854290e-01 7.544563407497374e-01 0.000000000000000e+00
4.066483003291055e-01 7.518303179145858e-01 0.000000000000000e+00
4.005209670748208e-01 7.500170045643598e-01 0.000000000000000e+00
3.937176722304316e-01 7.474335577354431e-01 0.000000000000000e+00
3.871844540659665e-01 7.446693728501544e-01 0.000000000000000e+00
3.809984698246601e-01 7.421626525296375e-01 0.000000000000000e+00
3.743056189810924e-01 7.390750572496502e-01 0.000000000000000e+00
3.684366287347984e-01 7.362476323618157e-01 0.000000000000000e+00
3.619814900802923e-01 7.328396166641531e-01 0.000000000000000e+00
3.558026649753551e-01 7.294489152318788e-01 0.000000000000000e+00
3.500350685361708e-01 7.261472971149610e-01 0.000000000000000e+00
3.439047185394039e-01 7.223953790657799e-01 0.000000000000000e+00
3.381115688206942e-01 7.185989702852640e-01 0.000000000000000e+00
3.324073027819335e-01 7.146822699284506e-01 0.000000000000000e+00
3.266455680601238e-01 7.105702623616982e-01 0.000000000000000e+00
3.210990015511532e-01 7.063560357753013e-01 0.000000000000000e+00
3.157983040128818e-01 7.020762772417443e-01 0.000000000000000e+00
3.103806703067005e-01 6.975303230794286e-01 0.000000000000000e+00
3.051016797623110e-01 6.928775047301660e-01 0.000000000000000e+00
3.002186545123051e-01 6.882909297302672e-01 0.000000000000000e+00
2.951955517639860e-01 6.833694020279510e-01 0.000000000000000e+00
2.902746077393747e-01 6.782814675493589e-01 0.000000000000000e+00
2.856991104382879e-01 6.732959644843688e-01 0.000000000000000e+00
2.811350993519526e-01 6.680759312161838e-01 0.000000000000000e+00
2.765990070747565e-01 6.626037573320277e-01 0.000000000000000e+00
2.724466184797134e-01 6.572679996423707e-01 0.000000000000000e+00
2.683113270189831e-01 6.517487463908248e-01 0.000000000000000e+00
2.642220632343027e-01 6.459673732210863e-01 0.000000000000000e+00
2.605747001907945e-01 6.403690512443645e-01 0.000000000000000e+00
2.567384377539628e-01 6.343176931872475e-01 0.000000000000000e+00
2.531664036626446e-01 6.283579022572809e-01 0.000000000000000e+00
2.499530414460501e-01 6.225321414800518e-01 0.000000000000000e+00
2.465548706007386e-01 6.160363274215797e-01 0.000000000000000e+00
2.438539627621193e-01 6.103004197531507e-01 0.000000000000000e+00
2.407290681203487e-01 6.037607200262614e-01 0.000000000000000e+00
2.380435311143175e-01 5.974006322463379e-01 0.000000000000000e+00
2.357239772357634e-01 5.912528461870724e-01 0.000000000000000e+00
2.329476716187225e-01 5.842187999604426e-01 0.000000000000000e+00
2.313774404648666e-01 5.784796587388265e-01 0.000000000000000e+00
2.289454603182817e-01 5.712806861548245e-01 0.000000000000000e+00
2.274290808721444e-01 5.651333317483317e-01 0.000000000000000e+00
2.256906745256660e-01 5.582380923874949e-01 0.000000000000000e+00
2.242550158392994e-01 5.514684540183415e-01 0.000000000000000e+00
2.230306732949699e-01 5.449000628051566e-01 0.000000000000000e+00
2.217485118290301e-01 5.376770670603924e-01 0.000000000000000e+00
2.209749511947687e-01 5.312225009887852e-01 0.000000000000000e+00
2.201528934939026e-01 5.240401610580453e-01 0.000000000000000e+00
2.196779424301078e-01 5.174056011088302e-01 0.000000000000000e+00
2.192604019973955e-01 5.103514037770498e-01 0.000000000000000e+00
2.190889108690450e-01 5.034968996377795e-01 0.000000000000000e+00
2.190889108690466e-01 4.965031003629131e-01 0.000000000000000e+00
2.192604019973956e-01 4.896485962236342e-01 0.000000000000000e+00
2.196779424300953e-01 4.825943988918628e-01 0.000000000000000e+00
2.201528934938867e-01 4.759598389426537e-01 0.000000000000000e+00
2.209749511947497e-01 4.687774990119019e-01 0.000000000000000e+00
2.217485118290254e-01 4.623229329402762e-01 0.000000000000000e+00
2.230306732949512e-01 4.550999371955181e-01 0.000000000000000e+00
2.242550158392830e-01 4.485315459823260e-01 0.000000000000000e+00
2.256906745256241e-01 4.417619076132077e-01 0.000000000000000e+00
2.274290808721069e-01 4.348666682523577e-01 0.000000000000000e+00
2.289454603182194e-01 4.287193138458962e-01 0.000000000000000e+00
2.313774404648319e-01 4.215203412618592e-01 0.000000000000000e+00
2.329476716186987e-01 4.157812000402051e-01 0.000000000000000e+00
2.357239772357096e-01 4.087471538136063e-01 0.000000000000000e+00
2.380435311142938e-01 4.025993677543063e-01 0.000000000000000e+00
2.407290681202902e-01 3.962392799744235e-01 0.000000000000000e+00
2.438539627620712e-01 3.896995802475035e-01 0.000000000000000e+00
2.465548706006871e-01 3.839636725790837e-01 0.000000000000000e+00
2.499530414459844e-01 3.774678585206142e-01 0.000000000000000e+00
2.531664036625899e-01 3.716420977433657e-01 0.000000000000000e+00
2.567384377538919e-01 3.656823068134203e-01 0.000000000000000e+00
2.605747001907249e-01 3.596309487562861e-01 0.000000000000000e+00
2.642220632342338e-01 3.540326267795622e-01 0.000000000000000e+00
2.683113270188972e-01 3.482512536098338e-01 0.000000000000000e+00
2.724466184796472e-01 3.427320003582602e-01 0.000000000000000e+00
2.765990070746686e-01 3.373962426686233e-01 0.000000000000000e+00
2.811350993518516e-01 3.319240687844712e-01 0.000000000000000e+00
2.856991104382097e-01 3.267040355162608e-01 0.000000000000000e+00
2.902746077392729e-01 3.217185324512907e-01 0.000000000000000e+00
2.951955517638694e-01 3.166305979727002e-01 0.000000000000000e+00
3.002186545122069e-01 3.117090702703730e-01 0.000000000000000e+00
3.051016797622119e-01 3.071224952704755e-01 0.000000000000000e+00
3.103806703065840e-01 3.024696769212106e-01 0.000000000000000e+00
3.157983040127775e-01 2.979237227588894e-01 0.000000000000000e+00
3.210990015510507e-01 2.936439642253366e-01 0.000000000000000e+00
3.266455680600075e-01 2.894297376389353e-01 0.000000000000000e+00
3.324073027818170e-01 2.853177300721876e-01 0.000000000000000e+00
3.381115688205774e-01 2.814010297153747e-01 0.000000000000000e+00
3.439047185392910e-01 2.776046209348485e-01 0.000000000000000e+00
3.500350685360503e-01 2.738527028856627e-01 0.000000000000000e+00
3.558026649752438e-01 2.705510847687529e-01 0.000000000000000e+00
3.619814900801615e-01 2.671603833364760e-01 0.000000000000000e+00
3.684366287346854e-01 2.637523676388057e-01 0.000000000000000e+00
3.743056189809600e-01 2.609249427509804e-01 0.000000000000000e+00
3.809984698245250e-01 2.578373474709769e-01 0.000000000000000e+00
3.871844540658400e-01 2.553306271504621e-01 0.000000000000000e+00
3.937176722302974e-01 2.525664422651697e-01 0.000000000000000e+00
4.005209670746946e-01 2.499829954362445e-01 0.000000000000000e+00
4.066483003289427e-01 2.481696820860399e-01 0.000000000000000e+00
4.138823959852659e-01 2.455436592508775e-01 0.000000000000000e+00
4.200574581819023e-01 2.439419140610942e-01 0.000000000000000e+00
4.272247853061825e-01 2.418976045552859e-01 0.000000000000000e+00
4.336567999497189e-01 2.405663171266272e-01 0.000000000000000e+00
4.406057858170263e-01 2.389644401806403e-01 0.000000000000000e+00
4.477130805371107e-01 2.375057454969504e-01 0.000000000000000e+00
4.543676413759647e-01 2.364508912960795e-01 0.000000000000000e+00
4.616318201278360e-01 2.353400676041841e-01 0.000000000000000e+00
4.683555778270341e-01 2.345772008240677e-01 0.000000000000000e+00
4.755724500457397e-01 2.338151569489426e-01 0.000000000000000e+00
4.824348937494249e-01 2.333344502451539e-01 0.000000000000000e+00
4.895757830178772e-01 2.329424478810469e-01 0.000000000000000e+00
4.965621721486796e-01 2.327508744946035e-01 0.000000000000000e+00
5.037022902747655e-01 2.327144917539786e-01 0.000000000000000e+00
5.106806247152345e-01 2.328238578998472e-01 0.000000000000000e+00
5.178467189586162e-01 2.331301679419295e-01 0.000000000000000e+00
5.247198512362748e-01 2.335279991681649e-01 0.000000000000000e+00
5.318885985262710e-01 2.341791843703317e-01 0.000000000000000e+00
5.388156338902178e-01 2.349384965080064e-01 0.000000000000000e+00
5.458902645081386e-01 2.359088343147401e-01 0.000000000000000e+00
5.529132439472076e-01 2.370144656869528e-01 0.000000000000000e+00
5.595428375288102e-01 2.381560235714308e-01 0.000000000000000e+00
5.669113296785923e-01 2.398335258444978e-01 0.000000000000000e+00
5.729344181855431e-01 2.409549252162297e-01 0.000000000000000e+00
5.802394281602247e-01 2.429520254213141e-01 0.000000000000000e+00
5.865378639306832e-01 2.446121920209985e-01 0.000000000000000e+00
5.936035270323770e-01 2.469198099138397e-01 0.000000000000000e+00
6.002677904953249e-01 2.491199822287697e-01 0.000000000000000e+00
6.065077184257720e-01 2.511776536447703e-01 0.000000000000000e+00
6.134820568000490e-01 2.540906812115648e-01 0.000000000000000e+00
6.193456076143070e-01 2.563637489151168e-01 0.000000000000000e+00
6.261286449582001e-01 2.593886879165169e-01 0.000000000000000e+00
6.322653260684898e-01 2.622892191919000e-01 0.000000000000000e+00
6.384814754396998e-01 2.654284264710235e-01 0.000000000000000e+00
6.448828939554562e-01 2.688575350897734e-01 0.000000000000000e+00
6.506787115220504e-01 2.721021761235228e-01 0.000000000000000e+00
6.567642652056704e-01 2.757217786678968e-01 0.000000000000000e+00
6.627243821085309e-01 2.795055634735202e-01 0.000000000000000e+00
6.684235470230451e-01 2.833203169355121e-01 0.000000000000000e+00
6.742114981904536e-01 2.873873442229628e-01 0.000000000000000e+00
6.798567443532018e-01 2.915387360095457e-01 0.000000000000000e+00
6.852068567899380e-01 2.957266561384325e-01 0.000000000000000e+00
6.905764066873722e-01 3.001782000836666e-01 0.000000000000000e+00
6.959945138003277e-01 3.048201342263919e-01 0.000000000000000e+00
7.010090601295372e-01 3.093914063410785e-01 0.000000000000000e+00
7.059641188886219e-01 3.141738473807015e-01 0.000000000000000e+00
7.110148440633102e-01 3.192480103448934e-01 0.000000000000000e+00
7.157001490466799e-01 3.242304042783328e-01 0.000000000000000e+00
7.202109911913670e-01 3.293015946577749e-01 0.000000000000000e+00
7.248363510677680e-01 3.347076960848999e-01 0.000000000000000e+00
7.291685320670893e-01 3.400968954229281e-01 0.000000000000000e+00
7.332345386377198e-01 3.454471927512276e-01 0.000000000000000e+00
7.374504316443223e-01 3.512255659139393e-01 0.000000000000000e+00
7.413108298845821e-01 3.569134449891908e-01 0.000000000000000e+00
7.450339572473558e-01 3.626272200293845e-01 0.000000000000000e+00
7.487897460098598e-01 3.687431382463656e-01 0.000000000000000e+00
7.519674579820868e-01 3.743995683286806e-01 0.000000000000000e+00
7.553817005071768e-01 3.806780469952428e-01 0.000000000000000e+00
7.585581692634553e-01 3.869020859906930e-01 0.000000000000000e+00
7.613889375671575e-01 3.929077718258924e-01 0.000000000000000e+00
7.644967920737006e-01 3.997145856354725e-01 0.000000000000000e+00
7.665782496318534e-01 4.053976487792700e-01 0.000000000000000e+00
7.693216354501655e-01 4.122152190758853e-01 0.000000000000000e+00
7.715106492141389e-01 4.185974128902709e-01 0.000000000000000e+00
7.735281938830345e-01 4.251109846049985e-01 0.000000000000000e+00
7.757358420388333e-01 4.321082518827378e-01 0.000000000000000e+00
7.770416092481983e-01 4.381688470449926e-01 0.000000000000000e+00
7.789991356600360e-01 4.455125669881917e-01 0.000000000000000e+00
7.799821170721355e-01 4.515826799076657e-01 0.000000000000000e+00
7.813897821491168e-01 4.587819940583143e-01 0.000000000000000e+00
7.822571377552089e-01 4.653268160125413e-01 0.000000000000000e+00
7.831589696460027e-01 4.723516839253074e-01 0.000000000000000e+00
7.837630998970718e-01 4.791602201204818e-01 0.000000000000000e+00
7.842487152826908e-01 4.861175367258165e-01 0.000000000000000e+00
7.845335146199094e-01 4.930827639661309e-01 0.000000000000000e+00

POINT_DATA   249
SCALARS fMag double
LOOKUP_TABLE default

1.827178e+01 
1.993207e+01 
2.009823e+01 
1.902142e+01 
3.680065e+01 
4.812657e+01 
8.486959e+01 
1.206392e+02 
1.603646e+02 
1.439136e+02 
1.300264e+02 
5.197027e+01 
2.160249e+01 
7.048446e+01 
1.313418e+02 
1.521877e+02 
8.476536e+01 
4.088924e+01 
2.439023e+01 
6.654604e+01 
7.383937e+01 
4.034602e+01 
1.397144e+01 
3.668222e+01 
4.535131e+01 
2.689678e+01 
2.936569e+01 
3.538884e+01 
1.957395e+01 
3.767528e+01 
3.069425e+01 
2.194100e+01 
4.096839e+01 
1.964185e+01 
2.643675e+01 
2.973747e+01 
1.657796e+01 
2.674406e+01 
2.627949e+01 
2.066153e+01 
4.738772e+01 
6.330854e+01 
3.440287e+01 
2.515467e+01 
6.582038e+01 
1.187766e+02 
1.281968e+02 
1.127401e+02 
4.476544e+01 
4.155464e+01 
1.003927e+02 
1.061467e+02 
1.552476e+02 
1.455837e+02 
9.128175e+01 
3.950215e+01 
1.448089e+01 
2.575095e+01 
2.647876e+01 
3.893320e+01 
3.069248e+01 
2.720975e+01 
2.177463e+01 
2.184351e+01 
2.530596e+01 
2.922325e+01 
4.525205e+01 
4.931152e+01 
6.427491e+01 
6.121874e+01 
6.066938e+01 
2.134481e+01 
5.835366e+01 
1.024256e+02 
1.086518e+02 
1.473364e+02 
1.373175e+02 
1.024735e+02 
3.249656e+01 
4.322886e+01 
7.709405e+01 
8.639541e+01 
8.250085e+01 
2.768691e+01 
4.207671e+01 
5.782607e+01 
3.401109e+01 
1.495586e+01 
2.035908e+01 
2.382137e+01 
2.544552e+01 
2.907693e+01 
1.750439e+01 
4.014436e+01 
3.630935e+01 
1.952484e+01 
3.603005e+01 
2.348310e+01 
2.536441e+01 
4.072200e+01 
1.842906e+01 
2.661456e+01 
4.782779e+01 
4.907729e+01 
2.796425e+01 
3.828987e+01 
6.950651e+01 
1.031266e+02 
9.086979e+01 
4.746365e+01 
4.231245e+01 
9.970256e+01 
1.769519e+02 
1.695118e+02 
1.394310e+02 
7.801017e+01 
3.277623e+01 
2.918091e+01 
6.571537e+01 
9.214734e+01 
7.293770e+01 
6.484924e+01 
4.235387e+01 
3.168867e+01 
2.209417e+01 
2.209417e+01 
3.168867e+01 
4.235387e+01 
6.484924e+01 
7.293770e+01 
9.214734e+01 
6.571537e+01 
2.918091e+01 
3.277623e+01 
7.801017e+01 
1.394310e+02 
1.695118e+02 
1.769519e+02 
9.970256e+01 
4.231245e+01 
4.746365e+01 
9.086979e+01 
1.031266e+02 
6.950651e+01 
3.828987e+01 
2.796425e+01 
4.907729e+01 
4.782779e+01 
2.661456e+01 
1.842906e+01 
4.072200e+01 
2.536441e+01 
2.348310e+01 
3.603005e+01 
1.952484e+01 
3.630935e+01 
4.014436e+01 
1.750439e+01 
2.907693e+01 
2.544552e+01 
2.382137e+01 
2.035908e+01 
1.495586e+01 
3.401109e+01 
5.782607e+01 
4.207671e+01 
2.768691e+01 
8.250085e+01 
8.639541e+01 
7.709405e+01 
4.322886e+01 
3.249656e+01 
1.024735e+02 
1.373175e+02 
1.473364e+02 
1.086518e+02 
1.024256e+02 
5.835366e+01 
2.134481e+01 
6.066938e+01 
6.121874e+01 
6.427491e+01 
4.931152e+01 
4.525205e+01 
2.922325e+01 
2.530596e+01 
2.184351e+01 
2.177463e+01 
2.720975e+01 
3.069248e+01 
3.893320e+01 
2.647876e+01 
2.575095e+01 
1.448089e+01 
3.950215e+01 
9.128175e+01 
1.455837e+02 
1.552476e+02 
1.061467e+02 
1.003927e+02 
4.155464e+01 
4.476544e+01 
1.127401e+02 
1.281968e+02 
1.187766e+02 
6.582038e+01 
2.515467e+01 
3.440287e+01 
6.330854e+01 
4.738772e+01 
2.066153e+01 
2.627949e+01 
2.674406e+01 
1.657796e+01 
2.973747e+01 
2.643675e+01 
1.964185e+01 
4.096839e+01 
2.194100e+01 
3.069425e+01 
3.767528e+01 
1.957395e+01 
3.538884e+01 
2.936569e+01 
2.689678e+01 
4.535131e+01 
3.668222e+01 
1.397144e+01 
4.034602e+01 
7.383937e+01 
6.654604e+01 
2.439023e+01 
4.088924e+01 
8.476536e+01 
1.521877e+02 
1.313418e+02 
7.048446e+01 
2.160249e+01 
5.197027e+01 
1.300264e+02 
1.439136e+02 
1.603646e+02 
1.206392e+02 
8.486959e+01 
4.812657e+01 
3.680065e+01 
1.902142e+01 
2.009823e+01 
1.993207e+01 
