# vtk DataFile Version 2.0
fMag
ASCII
DATASET UNSTRUCTURED_GRID

FIELD FieldData 1
TIME 1 1 double
1.46000000
POINTS 249 float
7.689104109299885e-01 5.000000000001764e-01 0.000000000000000e+00
7.688277446233458e-01 5.069297987680651e-01 0.000000000000000e+00
7.685874371818641e-01 5.138818904312601e-01 0.000000000000000e+00
7.681626083538989e-01 5.208251661944063e-01 0.000000000000000e+00
7.676163477054507e-01 5.276503478336849e-01 0.000000000000000e+00
7.668109437571510e-01 5.346844607647130e-01 0.000000000000000e+00
7.660534490884632e-01 5.412858551424210e-01 0.000000000000000e+00
7.648036963937214e-01 5.484808577466305e-01 0.000000000000000e+00
7.639695096252893e-01 5.546713633771456e-01 0.000000000000000e+00
7.621714623681622e-01 5.619232622360789e-01 0.000000000000000e+00
7.610155691852564e-01 5.683240253503312e-01 0.000000000000000e+00
7.590410646989945e-01 5.752192865271366e-01 0.000000000000000e+00
7.571503710444782e-01 5.818665503648593e-01 0.000000000000000e+00
7.553725492263390e-01 5.882258520856586e-01 0.000000000000000e+00
7.528224094970788e-01 5.952100422241009e-01 0.000000000000000e+00
7.511245180204340e-01 6.007989855819122e-01 0.000000000000000e+00
7.482301386335891e-01 6.077730621228705e-01 0.000000000000000e+00
7.457287716229229e-01 6.138756723066350e-01 0.000000000000000e+00
7.429804533423194e-01 6.201287012400176e-01 0.000000000000000e+00
7.397952445946604e-01 6.266721974945666e-01 0.000000000000000e+00
7.371146775300577e-01 6.321509072432212e-01 0.000000000000000e+00
7.336116352900350e-01 6.386183799245070e-01 0.000000000000000e+00
7.303122152935775e-01 6.444245655529960e-01 0.000000000000000e+00
7.268311111544907e-01 6.502424341796273e-01 0.000000000000000e+00
7.229434595351721e-01 6.563131833644668e-01 0.000000000000000e+00
7.193286491482356e-01 6.617408580411941e-01 0.000000000000000e+00
7.152766133899372e-01 6.674595113506770e-01 0.000000000000000e+00
7.111183650464539e-01 6.730233930876310e-01 0.000000000000000e+00
7.070008045116754e-01 6.782920567225184e-01 0.000000000000000e+00
7.025707541834930e-01 6.836444482802571e-01 0.000000000000000e+00
6.980404036400802e-01 6.888281774785731e-01 0.000000000000000e+00
6.934562833032530e-01 6.938447188004629e-01 0.000000000000000e+00
6.886131709653455e-01 6.988933072740755e-01 0.000000000000000e+00
6.837952034594663e-01 7.036159321103049e-01 0.000000000000000e+00
6.788106704992704e-01 7.082851803192618e-01 0.000000000000000e+00
6.736287556748241e-01 7.129347141836734e-01 0.000000000000000e+00
6.684879150175235e-01 7.172654122313052e-01 0.000000000000000e+00
6.630265935887520e-01 7.216406884241950e-01 0.000000000000000e+00
6.576362375178990e-01 7.257658563555738e-01 0.000000000000000e+00
6.521518959521364e-01 7.297096694074694e-01 0.000000000000000e+00
6.462235595206998e-01 7.337522157629047e-01 0.000000000000000e+00
6.409376935721550e-01 7.371457553889487e-01 0.000000000000000e+00
6.348074219331277e-01 7.408849680527666e-01 0.000000000000000e+00
6.288390611747423e-01 7.443117968693972e-01 0.000000000000000e+00
6.230868823040695e-01 7.474127910226646e-01 0.000000000000000e+00
6.164747255378152e-01 7.508426418897386e-01 0.000000000000000e+00
6.111417007401163e-01 7.531067704931780e-01 0.000000000000000e+00
6.044714409503101e-01 7.563289776485501e-01 0.000000000000000e+00
5.983989385041906e-01 7.585622936619500e-01 0.000000000000000e+00
5.920234693336650e-01 7.610078665870317e-01 0.000000000000000e+00
5.852147108153443e-01 7.636326716838394e-01 0.000000000000000e+00
5.792977347286080e-01 7.653011624150292e-01 0.000000000000000e+00
5.721282382361270e-01 7.676195094961804e-01 0.000000000000000e+00
5.664106739962566e-01 7.687478768685657e-01 0.000000000000000e+00
5.593022920956081e-01 7.705966829321295e-01 0.000000000000000e+00
5.528712597840769e-01 7.718954356355249e-01 0.000000000000000e+00
5.460471580634275e-01 7.731265944542260e-01 0.000000000000000e+00
5.391327749657240e-01 7.742236990004691e-01 0.000000000000000e+00
5.324728032052933e-01 7.750377739915737e-01 0.000000000000000e+00
5.254922153740819e-01 7.757626896063555e-01 0.000000000000000e+00
5.188429507908341e-01 7.762149595208730e-01 0.000000000000000e+00
5.118433707437452e-01 7.765633975625235e-01 0.000000000000000e+00
5.050752406600820e-01 7.766868040227004e-01 0.000000000000000e+00
4.981431528845147e-01 7.766343295838961e-01 0.000000000000000e+00
4.913858177516365e-01 7.764165702525891e-01 0.000000000000000e+00
4.844040375552257e-01 7.759876769298493e-01 0.000000000000000e+00
4.777784885000635e-01 7.754487171992759e-01 0.000000000000000e+00
4.706937485808228e-01 7.745912447817491e-01 0.000000000000000e+00
4.642291133192878e-01 7.737195528792438e-01 0.000000000000000e+00
4.571459957888429e-01 7.724970256003356e-01 0.000000000000000e+00
4.507273693297545e-01 7.713431217057954e-01 0.000000000000000e+00
4.438522619815964e-01 7.697515714438140e-01 0.000000000000000e+00
4.371154730884775e-01 7.679187614737764e-01 0.000000000000000e+00
4.309910615886960e-01 7.665495688451451e-01 0.000000000000000e+00
4.239378041961215e-01 7.641334148622777e-01 0.000000000000000e+00
4.178662047135638e-01 7.624118341157765e-01 0.000000000000000e+00
4.111976813488373e-01 7.595797611128521e-01 0.000000000000000e+00
4.049421152467643e-01 7.573624548519079e-01 0.000000000000000e+00
3.986790956251008e-01 7.546765484289967e-01 0.000000000000000e+00
3.922353727715215e-01 7.515690760341222e-01 0.000000000000000e+00
3.865705235468691e-01 7.489377166475886e-01 0.000000000000000e+00
3.800478027195450e-01 7.454780695645794e-01 0.000000000000000e+00
3.744205139745737e-01 7.423334683403936e-01 0.000000000000000e+00
3.685550896367954e-01 7.388412017878324e-01 0.000000000000000e+00
3.624861248831194e-01 7.350441270504977e-01 0.000000000000000e+00
3.572138184047882e-01 7.316031099503091e-01 0.000000000000000e+00
3.513264282228052e-01 7.274057867269800e-01 0.000000000000000e+00
3.458254619540855e-01 7.233161680413932e-01 0.000000000000000e+00
3.406499619207001e-01 7.192897484362151e-01 0.000000000000000e+00
3.352049820392666e-01 7.147992827165790e-01 0.000000000000000e+00
3.300427520649475e-01 7.103440220420335e-01 0.000000000000000e+00
3.251096581608582e-01 7.057696990667404e-01 0.000000000000000e+00
3.201202483293997e-01 7.009944004311667e-01 0.000000000000000e+00
3.152797047430027e-01 6.961168144059771e-01 0.000000000000000e+00
3.106290307780822e-01 6.911334245029216e-01 0.000000000000000e+00
3.060732042343267e-01 6.860377201268636e-01 0.000000000000000e+00
3.016017019065904e-01 6.807379799147283e-01 0.000000000000000e+00
2.972872132735617e-01 6.754181001547515e-01 0.000000000000000e+00
2.932359794416532e-01 6.701088125800404e-01 0.000000000000000e+00
2.890195515124785e-01 6.643123431021227e-01 0.000000000000000e+00
2.852452813519589e-01 6.588075364127041e-01 0.000000000000000e+00
2.814934616145101e-01 6.531032118868741e-01 0.000000000000000e+00
2.776983190695944e-01 6.470232952563102e-01 0.000000000000000e+00
2.746390821348828e-01 6.415983752125413e-01 0.000000000000000e+00
2.711087854872905e-01 6.352611676468737e-01 0.000000000000000e+00
2.678810415062932e-01 6.291721217271355e-01 0.000000000000000e+00
2.649922396817795e-01 6.232920517958599e-01 0.000000000000000e+00
2.618786606558947e-01 6.165067542741132e-01 0.000000000000000e+00
2.596663472277356e-01 6.109787574721534e-01 0.000000000000000e+00
2.567511256911915e-01 6.042999439058880e-01 0.000000000000000e+00
2.544719430866738e-01 5.979372957175654e-01 0.000000000000000e+00
2.523106618105430e-01 5.914437687408224e-01 0.000000000000000e+00
2.497477128750453e-01 5.846071518427337e-01 0.000000000000000e+00
2.484425907345095e-01 5.785775004333644e-01 0.000000000000000e+00
2.462102934413442e-01 5.713636554049959e-01 0.000000000000000e+00
2.449792362336433e-01 5.651556317593688e-01 0.000000000000000e+00
2.433552501300699e-01 5.582363736036977e-01 0.000000000000000e+00
2.420675754794928e-01 5.514264588470704e-01 0.000000000000000e+00
2.410024982603466e-01 5.448350762385593e-01 0.000000000000000e+00
2.398761290159387e-01 5.376021913787294e-01 0.000000000000000e+00
2.391840450003765e-01 5.311859403594350e-01 0.000000000000000e+00
2.384469044835195e-01 5.239824789278752e-01 0.000000000000000e+00
2.380220176245851e-01 5.173753054272100e-01 0.000000000000000e+00
2.376597053436880e-01 5.103133098416428e-01 0.000000000000000e+00
2.375114451056812e-01 5.034854441022416e-01 0.000000000000000e+00
2.375114451056873e-01 4.965145558995600e-01 0.000000000000000e+00
2.376597053436877e-01 4.896866901601463e-01 0.000000000000000e+00
2.380220176245512e-01 4.826246945745984e-01 0.000000000000000e+00
2.384469044834676e-01 4.760175210739450e-01 0.000000000000000e+00
2.391840450003182e-01 4.688140596423517e-01 0.000000000000000e+00
2.398761290159106e-01 4.623978086230001e-01 0.000000000000000e+00
2.410024982602967e-01 4.551649237631903e-01 0.000000000000000e+00
2.420675754794265e-01 4.485735411546851e-01 0.000000000000000e+00
2.433552501299394e-01 4.417636263980955e-01 0.000000000000000e+00
2.449792362335327e-01 4.348443682424027e-01 0.000000000000000e+00
2.462102934411834e-01 4.286363445968445e-01 0.000000000000000e+00
2.484425907343767e-01 4.214224995684368e-01 0.000000000000000e+00
2.497477128749908e-01 4.153928481588974e-01 0.000000000000000e+00
2.523106618104085e-01 4.085562312608937e-01 0.000000000000000e+00
2.544719430865984e-01 4.020627042841038e-01 0.000000000000000e+00
2.567511256910269e-01 3.957000560959023e-01 0.000000000000000e+00
2.596663472275870e-01 3.890212425295151e-01 0.000000000000000e+00
2.618786606557478e-01 3.834932457276171e-01 0.000000000000000e+00
2.649922396815750e-01 3.767079482059172e-01 0.000000000000000e+00
2.678810415061760e-01 3.708278782744814e-01 0.000000000000000e+00
2.711087854870684e-01 3.647388323548889e-01 0.000000000000000e+00
2.746390821347362e-01 3.584016247891094e-01 0.000000000000000e+00
2.776983190694264e-01 3.529767047453410e-01 0.000000000000000e+00
2.814934616142719e-01 3.468967881148585e-01 0.000000000000000e+00
2.852452813518057e-01 3.411924635889030e-01 0.000000000000000e+00
2.890195515122378e-01 3.356876568995824e-01 0.000000000000000e+00
2.932359794414233e-01 3.298911874216372e-01 0.000000000000000e+00
2.972872132733702e-01 3.245818998468589e-01 0.000000000000000e+00
3.016017019063235e-01 3.192620200869589e-01 0.000000000000000e+00
3.060732042341116e-01 3.139622798747667e-01 0.000000000000000e+00
3.106290307778413e-01 3.088665754987109e-01 0.000000000000000e+00
3.152797047427293e-01 3.038831855956716e-01 0.000000000000000e+00
3.201202483291561e-01 2.990055995704490e-01 0.000000000000000e+00
3.251096581606158e-01 2.942303009348604e-01 0.000000000000000e+00
3.300427520646783e-01 2.896559779595887e-01 0.000000000000000e+00
3.352049820389875e-01 2.852007172850230e-01 0.000000000000000e+00
3.406499619204821e-01 2.807102515653434e-01 0.000000000000000e+00
3.458254619538265e-01 2.766838319601773e-01 0.000000000000000e+00
3.513264282225123e-01 2.725942132746164e-01 0.000000000000000e+00
3.572138184045102e-01 2.683968900512600e-01 0.000000000000000e+00
3.624861248828598e-01 2.649558729510485e-01 0.000000000000000e+00
3.685550896365061e-01 2.611587982137130e-01 0.000000000000000e+00
3.744205139742949e-01 2.576665316611285e-01 0.000000000000000e+00
3.800478027192080e-01 2.545219304369678e-01 0.000000000000000e+00
3.865705235465797e-01 2.510622833539315e-01 0.000000000000000e+00
3.922353727712343e-01 2.484309239673897e-01 0.000000000000000e+00
3.986790956247656e-01 2.453234515724888e-01 0.000000000000000e+00
4.049421152464554e-01 2.426375451495725e-01 0.000000000000000e+00
4.111976813485373e-01 2.404202388886230e-01 0.000000000000000e+00
4.178662047132392e-01 2.375881658856779e-01 0.000000000000000e+00
4.239378041958079e-01 2.358665851391771e-01 0.000000000000000e+00
4.309910615883760e-01 2.334504311562753e-01 0.000000000000000e+00
4.371154730881640e-01 2.320812385276279e-01 0.000000000000000e+00
4.438522619812845e-01 2.302484285575936e-01 0.000000000000000e+00
4.507273693294190e-01 2.286568782956269e-01 0.000000000000000e+00
4.571459957885157e-01 2.275029744010489e-01 0.000000000000000e+00
4.642291133189852e-01 2.262804471221247e-01 0.000000000000000e+00
4.706937485804869e-01 2.254087552196226e-01 0.000000000000000e+00
4.777784884997614e-01 2.245512828020704e-01 0.000000000000000e+00
4.844040375548886e-01 2.240123230715042e-01 0.000000000000000e+00
4.913858177513098e-01 2.235834297487509e-01 0.000000000000000e+00
4.981431528841838e-01 2.233656704174337e-01 0.000000000000000e+00
5.050752406597527e-01 2.233131959786088e-01 0.000000000000000e+00
5.118433707434282e-01 2.234366024387866e-01 0.000000000000000e+00
5.188429507905089e-01 2.237850404804311e-01 0.000000000000000e+00
5.254922153737739e-01 2.242373103949472e-01 0.000000000000000e+00
5.324728032049709e-01 2.249622260097097e-01 0.000000000000000e+00
5.391327749654328e-01 2.257763010008133e-01 0.000000000000000e+00
5.460471580631133e-01 2.268734055470397e-01 0.000000000000000e+00
5.528712597837788e-01 2.281045643657461e-01 0.000000000000000e+00
5.593022920953221e-01 2.294033170691373e-01 0.000000000000000e+00
5.664106739959415e-01 2.312521231326819e-01 0.000000000000000e+00
5.721282382358870e-01 2.323804905050789e-01 0.000000000000000e+00
5.792977347283587e-01 2.346988375862414e-01 0.000000000000000e+00
5.852147108151368e-01 2.363673283174218e-01 0.000000000000000e+00
5.920234693333992e-01 2.389921334142258e-01 0.000000000000000e+00
5.983989385039612e-01 2.414377063393167e-01 0.000000000000000e+00
6.044714409501196e-01 2.436710223526959e-01 0.000000000000000e+00
6.111417007399002e-01 2.468932295080727e-01 0.000000000000000e+00
6.164747255376046e-01 2.491573581114958e-01 0.000000000000000e+00
6.230868823038876e-01 2.525872089785882e-01 0.000000000000000e+00
6.288390611745884e-01 2.556882031318590e-01 0.000000000000000e+00
6.348074219329389e-01 2.591150319484581e-01 0.000000000000000e+00
6.409376935719661e-01 2.628542446122581e-01 0.000000000000000e+00
6.462235595204969e-01 2.662477842382893e-01 0.000000000000000e+00
6.521518959519940e-01 2.702903305937656e-01 0.000000000000000e+00
6.576362375177636e-01 2.742341436456653e-01 0.000000000000000e+00
6.630265935885896e-01 2.783593115770031e-01 0.000000000000000e+00
6.684879150173612e-01 2.827345877698880e-01 0.000000000000000e+00
6.736287556746836e-01 2.870652858175285e-01 0.000000000000000e+00
6.788106704991165e-01 2.917148196819359e-01 0.000000000000000e+00
6.837952034593111e-01 2.963840678908669e-01 0.000000000000000e+00
6.886131709652114e-01 3.011066927271194e-01 0.000000000000000e+00
6.934562833030945e-01 3.061552812007075e-01 0.000000000000000e+00
6.980404036399533e-01 3.111718225226052e-01 0.000000000000000e+00
7.025707541833640e-01 3.163555517209358e-01 0.000000000000000e+00
7.070008045115515e-01 3.217079432786517e-01 0.000000000000000e+00
7.111183650463100e-01 3.269766069135279e-01 0.000000000000000e+00
7.152766133898277e-01 3.325404886505180e-01 0.000000000000000e+00
7.193286491481121e-01 3.382591419599640e-01 0.000000000000000e+00
7.229434595350391e-01 3.436868166366864e-01 0.000000000000000e+00
7.268311111544106e-01 3.497575658215881e-01 0.000000000000000e+00
7.303122152934327e-01 3.555754344481248e-01 0.000000000000000e+00
7.336116352899517e-01 3.613816200767028e-01 0.000000000000000e+00
7.371146775299516e-01 3.678490927579453e-01 0.000000000000000e+00
7.397952445945480e-01 3.733278025065693e-01 0.000000000000000e+00
7.429804533422296e-01 3.798712987611793e-01 0.000000000000000e+00
7.457287716227826e-01 3.861243276944648e-01 0.000000000000000e+00
7.482301386335276e-01 3.922269378783323e-01 0.000000000000000e+00
7.511245180203346e-01 3.992010144192447e-01 0.000000000000000e+00
7.528224094970071e-01 4.047899577770803e-01 0.000000000000000e+00
7.553725492262983e-01 4.117741479155710e-01 0.000000000000000e+00
7.571503710443873e-01 4.181334496363168e-01 0.000000000000000e+00
7.590410646989268e-01 4.247807134740313e-01 0.000000000000000e+00
7.610155691851560e-01 4.316759746508028e-01 0.000000000000000e+00
7.621714623681199e-01 4.380767377651299e-01 0.000000000000000e+00
7.639695096252473e-01 4.453286366240354e-01 0.000000000000000e+00
7.648036963936935e-01 4.515191422545812e-01 0.000000000000000e+00
7.660534490884523e-01 4.587141448588217e-01 0.000000000000000e+00
7.668109437571256e-01 4.653155392364883e-01 0.000000000000000e+00
7.676163477054309e-01 4.723496521674440e-01 0.000000000000000e+00
7.681626083538801e-01 4.791748338067772e-01 0.000000000000000e+00
7.685874371818590e-01 4.861181095701426e-01 0.000000000000000e+00
7.688277446233497e-01 4.930702012335577e-01 0.000000000000000e+00

POINT_DATA   249
SCALARS fMag double
LOOKUP_TABLE default

1.653280e+01 
1.592079e+01 
1.847281e+01 
1.693862e+01 
3.328779e+01 
4.353732e+01 
7.711688e+01 
1.087090e+02 
1.433767e+02 
1.066251e+02 
9.564013e+01 
2.617935e+01 
3.093068e+01 
9.934734e+01 
1.634966e+02 
1.830387e+02 
9.560330e+01 
2.891586e+01 
5.246447e+01 
1.178301e+02 
1.286127e+02 
6.919554e+01 
1.820548e+01 
4.787936e+01 
6.985356e+01 
5.251768e+01 
1.877100e+01 
2.980170e+01 
3.235243e+01 
1.962340e+01 
1.756386e+01 
2.609799e+01 
3.269021e+01 
1.748866e+01 
1.983670e+01 
3.214507e+01 
3.235557e+01 
2.599797e+01 
2.042684e+01 
4.548414e+01 
9.131865e+01 
9.123840e+01 
3.518455e+01 
3.910440e+01 
9.207343e+01 
1.730614e+02 
1.644992e+02 
1.155503e+02 
3.699201e+01 
4.688966e+01 
1.307585e+02 
1.411057e+02 
1.877259e+02 
1.566314e+02 
8.725589e+01 
3.988403e+01 
1.616235e+01 
3.805654e+01 
3.327794e+01 
4.290786e+01 
3.653779e+01 
3.228144e+01 
2.404532e+01 
2.405368e+01 
3.081415e+01 
3.728439e+01 
5.588417e+01 
6.202627e+01 
7.110553e+01 
6.680209e+01 
6.323898e+01 
2.780949e+01 
7.680450e+01 
1.399573e+02 
1.202524e+02 
1.260749e+02 
7.405873e+01 
4.686850e+01 
4.586315e+01 
9.128498e+01 
1.192465e+02 
9.492435e+01 
4.214482e+01 
3.664849e+01 
8.725875e+01 
9.748342e+01 
4.011825e+01 
3.315051e+01 
5.366134e+01 
2.849735e+01 
2.582164e+01 
2.087369e+01 
1.806282e+01 
2.173559e+01 
1.470058e+01 
2.207579e+01 
1.583004e+01 
2.634409e+01 
5.143885e+01 
5.296938e+01 
2.007891e+01 
3.780885e+01 
9.851762e+01 
1.026707e+02 
3.913185e+01 
3.981737e+01 
9.327190e+01 
1.546959e+02 
1.348505e+02 
7.102943e+01 
1.761412e+01 
5.282873e+01 
1.494474e+02 
1.504031e+02 
1.419234e+02 
8.125782e+01 
3.536359e+01 
3.119333e+01 
6.444289e+01 
9.249394e+01 
7.885029e+01 
6.730994e+01 
4.591081e+01 
3.172307e+01 
2.060016e+01 
2.060016e+01 
3.172307e+01 
4.591081e+01 
6.730994e+01 
7.885029e+01 
9.249394e+01 
6.444289e+01 
3.119333e+01 
3.536359e+01 
8.125782e+01 
1.419234e+02 
1.504031e+02 
1.494474e+02 
5.282873e+01 
1.761412e+01 
7.102943e+01 
1.348505e+02 
1.546959e+02 
9.327190e+01 
3.981737e+01 
3.913185e+01 
1.026707e+02 
9.851761e+01 
3.780885e+01 
2.007891e+01 
5.296938e+01 
5.143885e+01 
2.634409e+01 
1.583004e+01 
2.207579e+01 
1.470058e+01 
2.173559e+01 
1.806282e+01 
2.087369e+01 
2.582164e+01 
2.849735e+01 
5.366134e+01 
3.315051e+01 
4.011825e+01 
9.748342e+01 
8.725875e+01 
3.664849e+01 
4.214482e+01 
9.492435e+01 
1.192465e+02 
9.128498e+01 
4.586315e+01 
4.686850e+01 
7.405873e+01 
1.260749e+02 
1.202524e+02 
1.399573e+02 
7.680450e+01 
2.780949e+01 
6.323898e+01 
6.680209e+01 
7.110553e+01 
6.202627e+01 
5.588417e+01 
3.728439e+01 
3.081415e+01 
2.405368e+01 
2.404532e+01 
3.228144e+01 
3.653779e+01 
4.290786e+01 
3.327794e+01 
3.805654e+01 
1.616235e+01 
3.988403e+01 
8.725589e+01 
1.566314e+02 
1.877259e+02 
1.411057e+02 
1.307585e+02 
4.688966e+01 
3.699201e+01 
1.155503e+02 
1.644992e+02 
1.730614e+02 
9.207343e+01 
3.910440e+01 
3.518455e+01 
9.123840e+01 
9.131865e+01 
4.548414e+01 
2.042684e+01 
2.599797e+01 
3.235557e+01 
3.214507e+01 
1.983670e+01 
1.748866e+01 
3.269021e+01 
2.609799e+01 
1.756386e+01 
1.962340e+01 
3.235243e+01 
2.980170e+01 
1.877100e+01 
5.251768e+01 
6.985356e+01 
4.787936e+01 
1.820548e+01 
6.919554e+01 
1.286127e+02 
1.178301e+02 
5.246447e+01 
2.891586e+01 
9.560330e+01 
1.830387e+02 
1.634966e+02 
9.934734e+01 
3.093068e+01 
2.617935e+01 
9.564013e+01 
1.066251e+02 
1.433767e+02 
1.087090e+02 
7.711688e+01 
4.353732e+01 
3.328779e+01 
1.693862e+01 
1.847281e+01 
1.592079e+01 
