# vtk DataFile Version 2.0
fMag
ASCII
DATASET UNSTRUCTURED_GRID

FIELD FieldData 1
TIME 1 1 double
1.49000000
POINTS 249 float
7.722787475830314e-01 5.000000000001764e-01 0.000000000000000e+00
7.721907243376301e-01 5.069020169472496e-01 0.000000000000000e+00
7.719395356191991e-01 5.138231253088977e-01 0.000000000000000e+00
7.714959717419271e-01 5.207330268124598e-01 0.000000000000000e+00
7.709270073241520e-01 5.275256116379203e-01 0.000000000000000e+00
7.700967903590726e-01 5.345205697650106e-01 0.000000000000000e+00
7.693004502024796e-01 5.411070565054672e-01 0.000000000000000e+00
7.680001973719047e-01 5.482682674390728e-01 0.000000000000000e+00
7.671125654993167e-01 5.544714517847211e-01 0.000000000000000e+00
7.652624519972872e-01 5.616440381951653e-01 0.000000000000000e+00
7.640435425120180e-01 5.680716910825719e-01 0.000000000000000e+00
7.620060144431731e-01 5.748856064806166e-01 0.000000000000000e+00
7.600464934506579e-01 5.814817320259472e-01 0.000000000000000e+00
7.581862839833269e-01 5.878179536472872e-01 0.000000000000000e+00
7.555403095954465e-01 5.947329639280363e-01 0.000000000000000e+00
7.537708648161213e-01 6.003237415155606e-01 0.000000000000000e+00
7.508186981546077e-01 6.071970778315542e-01 0.000000000000000e+00
7.482176829193374e-01 6.132683137515271e-01 0.000000000000000e+00
7.453567737905988e-01 6.194782108191161e-01 0.000000000000000e+00
7.420594277828142e-01 6.259548719816970e-01 0.000000000000000e+00
7.393164860802102e-01 6.313552582222157e-01 0.000000000000000e+00
7.357396144041736e-01 6.377349256715373e-01 0.000000000000000e+00
7.323400858113799e-01 6.434678306129816e-01 0.000000000000000e+00
7.287339637436362e-01 6.492291352136523e-01 0.000000000000000e+00
7.247277403439125e-01 6.552362064067538e-01 0.000000000000000e+00
7.210410519234205e-01 6.605589012310235e-01 0.000000000000000e+00
7.168938343701680e-01 6.661727009931248e-01 0.000000000000000e+00
7.126324927618626e-01 6.716448268591905e-01 0.000000000000000e+00
7.084083077738361e-01 6.768322224543036e-01 0.000000000000000e+00
7.038848592981957e-01 6.820832912886724e-01 0.000000000000000e+00
6.992903013694344e-01 6.871421711511455e-01 0.000000000000000e+00
6.945929780202591e-01 6.920836154963518e-01 0.000000000000000e+00
6.896387063835778e-01 6.970500133043130e-01 0.000000000000000e+00
6.847707180713475e-01 7.016420909104181e-01 0.000000000000000e+00
6.796983971928068e-01 7.062161816685097e-01 0.000000000000000e+00
6.744151488222258e-01 7.107759051763983e-01 0.000000000000000e+00
6.692095225202154e-01 7.149953188719274e-01 0.000000000000000e+00
6.636812645397716e-01 7.192689800763979e-01 0.000000000000000e+00
6.582253258029165e-01 7.232807208629251e-01 0.000000000000000e+00
6.526674861347272e-01 7.271271122018249e-01 0.000000000000000e+00
6.466466929654786e-01 7.310904943507215e-01 0.000000000000000e+00
6.413432982044284e-01 7.343769123397081e-01 0.000000000000000e+00
6.351632880755884e-01 7.380168142401584e-01 0.000000000000000e+00
6.291659907657904e-01 7.413318968948206e-01 0.000000000000000e+00
6.233624674512481e-01 7.443372106350371e-01 0.000000000000000e+00
6.166741174667301e-01 7.476945066129276e-01 0.000000000000000e+00
6.113466253146876e-01 7.498719201052098e-01 0.000000000000000e+00
6.046282716145301e-01 7.530240204669217e-01 0.000000000000000e+00
5.985360644944600e-01 7.551616936296831e-01 0.000000000000000e+00
5.921315859274858e-01 7.575253893271928e-01 0.000000000000000e+00
5.852975880678200e-01 7.600878308811805e-01 0.000000000000000e+00
5.793764492142384e-01 7.616900019356299e-01 0.000000000000000e+00
5.721856049261776e-01 7.639563059952315e-01 0.000000000000000e+00
5.664705201386855e-01 7.650261626924562e-01 0.000000000000000e+00
5.593496229053712e-01 7.668263822287571e-01 0.000000000000000e+00
5.529075633829726e-01 7.680849663494999e-01 0.000000000000000e+00
5.460765007615800e-01 7.692770861348807e-01 0.000000000000000e+00
5.391492016557604e-01 7.703471649224984e-01 0.000000000000000e+00
5.324850711440148e-01 7.711390499092156e-01 0.000000000000000e+00
5.254928505175700e-01 7.718477959068030e-01 0.000000000000000e+00
5.188396393640741e-01 7.722898767495959e-01 0.000000000000000e+00
5.118351539676906e-01 7.726334456595014e-01 0.000000000000000e+00
5.050636990196945e-01 7.727600305543967e-01 0.000000000000000e+00
4.981246242356842e-01 7.727179852903484e-01 0.000000000000000e+00
4.913639630868340e-01 7.725171489841077e-01 0.000000000000000e+00
4.843730685374230e-01 7.721097469998671e-01 0.000000000000000e+00
4.777470598184118e-01 7.715985332267464e-01 0.000000000000000e+00
4.706469953548031e-01 7.707786397047490e-01 0.000000000000000e+00
4.641759857633381e-01 7.699482842967692e-01 0.000000000000000e+00
4.570748590120591e-01 7.687730147986173e-01 0.000000000000000e+00
4.506488428775614e-01 7.676595948737847e-01 0.000000000000000e+00
4.437623274819182e-01 7.661450397558012e-01 0.000000000000000e+00
4.369920009260717e-01 7.643725529360119e-01 0.000000000000000e+00
4.308878793737367e-01 7.630861389247762e-01 0.000000000000000e+00
4.238024206009300e-01 7.607264867707850e-01 0.000000000000000e+00
4.177014630014417e-01 7.590954021271125e-01 0.000000000000000e+00
4.109907558201050e-01 7.563460579820541e-01 0.000000000000000e+00
4.047013817681832e-01 7.541996954410531e-01 0.000000000000000e+00
3.984432535822392e-01 7.516343374930033e-01 0.000000000000000e+00
3.919309693213566e-01 7.486153510484215e-01 0.000000000000000e+00
3.862431174778542e-01 7.460604802841595e-01 0.000000000000000e+00
3.796539027589575e-01 7.426852523452326e-01 0.000000000000000e+00
3.739561826020786e-01 7.396225424894768e-01 0.000000000000000e+00
3.680799190925895e-01 7.362747223229544e-01 0.000000000000000e+00
3.619520832004330e-01 7.325772901211740e-01 0.000000000000000e+00
3.566446448069630e-01 7.292267164768397e-01 0.000000000000000e+00
3.506825691741696e-01 7.251273474171323e-01 0.000000000000000e+00
3.450680668941517e-01 7.211161411064808e-01 0.000000000000000e+00
3.398564360653239e-01 7.172257271887131e-01 0.000000000000000e+00
3.343395878196176e-01 7.128351827687144e-01 0.000000000000000e+00
3.290577990317051e-01 7.084409191643865e-01 0.000000000000000e+00
3.240483046190141e-01 7.039776187186263e-01 0.000000000000000e+00
3.189924566563132e-01 6.993192309469268e-01 0.000000000000000e+00
3.140292442922042e-01 6.945032743247429e-01 0.000000000000000e+00
3.092924996643693e-01 6.896224290910729e-01 0.000000000000000e+00
3.046831042002255e-01 6.846537134979943e-01 0.000000000000000e+00
3.000987639813670e-01 6.794230351698718e-01 0.000000000000000e+00
2.956868950552501e-01 6.741942674047698e-01 0.000000000000000e+00
2.915732760165359e-01 6.689968947352738e-01 0.000000000000000e+00
2.872394146784562e-01 6.632599172458342e-01 0.000000000000000e+00
2.833539716879790e-01 6.578149133818544e-01 0.000000000000000e+00
2.795202696288070e-01 6.522053153841658e-01 0.000000000000000e+00
2.756391750608332e-01 6.462070694729722e-01 0.000000000000000e+00
2.725114881493370e-01 6.408585736176254e-01 0.000000000000000e+00
2.688690063013388e-01 6.345770000361899e-01 0.000000000000000e+00
2.655298913593954e-01 6.285413516676608e-01 0.000000000000000e+00
2.625593388590734e-01 6.227244950969357e-01 0.000000000000000e+00
2.593778868867178e-01 6.159923186664273e-01 0.000000000000000e+00
2.571054699261686e-01 6.105126128265512e-01 0.000000000000000e+00
2.540948904107165e-01 6.039069239412790e-01 0.000000000000000e+00
2.517246825556615e-01 5.975792177750210e-01 0.000000000000000e+00
2.494816676374706e-01 5.910995523076831e-01 0.000000000000000e+00
2.468705926417390e-01 5.843668810897079e-01 0.000000000000000e+00
2.454973434765686e-01 5.782896800165276e-01 0.000000000000000e+00
2.431944739583838e-01 5.711362781309924e-01 0.000000000000000e+00
2.419002134390434e-01 5.649273368464115e-01 0.000000000000000e+00
2.402226721271379e-01 5.580539595103073e-01 0.000000000000000e+00
2.388925142868706e-01 5.512741447236265e-01 0.000000000000000e+00
2.378008195626620e-01 5.447095257948769e-01 0.000000000000000e+00
2.366446538027754e-01 5.375120498802420e-01 0.000000000000000e+00
2.359192662443085e-01 5.311103237466370e-01 0.000000000000000e+00
2.351533123690092e-01 5.239268001168990e-01 0.000000000000000e+00
2.347113524475463e-01 5.173332883513770e-01 0.000000000000000e+00
2.343440300180963e-01 5.102894695803948e-01 0.000000000000000e+00
2.341933111869138e-01 5.034772880265472e-01 0.000000000000000e+00
2.341933111869230e-01 4.965227119752292e-01 0.000000000000000e+00
2.343440300181054e-01 4.897105304213701e-01 0.000000000000000e+00
2.347113524475261e-01 4.826667116504065e-01 0.000000000000000e+00
2.351533123689760e-01 4.760731998848967e-01 0.000000000000000e+00
2.359192662442739e-01 4.688896762551250e-01 0.000000000000000e+00
2.366446538027782e-01 4.624879501214683e-01 0.000000000000000e+00
2.378008195626487e-01 4.552904742068534e-01 0.000000000000000e+00
2.388925142868394e-01 4.487258552781190e-01 0.000000000000000e+00
2.402226721270489e-01 4.419460404914670e-01 0.000000000000000e+00
2.419002134389865e-01 4.350726631553391e-01 0.000000000000000e+00
2.431944739582786e-01 4.288637218708296e-01 0.000000000000000e+00
2.454973434764876e-01 4.217103199852635e-01 0.000000000000000e+00
2.468705926417494e-01 4.156331189119208e-01 0.000000000000000e+00
2.494816676374077e-01 4.089004476940251e-01 0.000000000000000e+00
2.517246825556523e-01 4.024207822266517e-01 0.000000000000000e+00
2.540948904106147e-01 3.960930760605155e-01 0.000000000000000e+00
2.571054699260966e-01 3.894873871751086e-01 0.000000000000000e+00
2.593778868866488e-01 3.840076813353066e-01 0.000000000000000e+00
2.625593388589377e-01 3.772755049048575e-01 0.000000000000000e+00
2.655298913593472e-01 3.714586483339682e-01 0.000000000000000e+00
2.688690063011781e-01 3.654229999656032e-01 0.000000000000000e+00
2.725114881492777e-01 3.591414263840302e-01 0.000000000000000e+00
2.756391750607525e-01 3.537929305286811e-01 0.000000000000000e+00
2.795202696286508e-01 3.477946846175716e-01 0.000000000000000e+00
2.833539716879094e-01 3.421850866197709e-01 0.000000000000000e+00
2.872394146782929e-01 3.367400827558957e-01 0.000000000000000e+00
2.915732760163873e-01 3.310031052664305e-01 0.000000000000000e+00
2.956868950551273e-01 3.258057325968696e-01 0.000000000000000e+00
3.000987639811625e-01 3.205769648318479e-01 0.000000000000000e+00
3.046831042000954e-01 3.153462865036551e-01 0.000000000000000e+00
3.092924996642072e-01 3.103775709105818e-01 0.000000000000000e+00
3.140292442919964e-01 3.054967256769415e-01 0.000000000000000e+00
3.189924566561436e-01 3.006807690547186e-01 0.000000000000000e+00
3.240483046188459e-01 2.960223812830000e-01 0.000000000000000e+00
3.290577990314880e-01 2.915590808372856e-01 0.000000000000000e+00
3.343395878193832e-01 2.871648172329424e-01 0.000000000000000e+00
3.398564360651632e-01 2.827742728128860e-01 0.000000000000000e+00
3.450680668939310e-01 2.788838588951416e-01 0.000000000000000e+00
3.506825691739086e-01 2.748726525845219e-01 0.000000000000000e+00
3.566446448067258e-01 2.707732835247886e-01 0.000000000000000e+00
3.619520832002179e-01 2.674227098804309e-01 0.000000000000000e+00
3.680799190923307e-01 2.637252776786569e-01 0.000000000000000e+00
3.739561826018373e-01 2.603774575121121e-01 0.000000000000000e+00
3.796539027586575e-01 2.573147476563832e-01 0.000000000000000e+00
3.862431174776026e-01 2.539395197174345e-01 0.000000000000000e+00
3.919309693211055e-01 2.513846489531724e-01 0.000000000000000e+00
3.984432535819346e-01 2.483656625085646e-01 0.000000000000000e+00
4.047013817679058e-01 2.458003045605119e-01 0.000000000000000e+00
4.109907558198329e-01 2.436539420195033e-01 0.000000000000000e+00
4.177014630011480e-01 2.409045978744302e-01 0.000000000000000e+00
4.238024206006460e-01 2.392735132307668e-01 0.000000000000000e+00
4.308878793734502e-01 2.369138610767422e-01 0.000000000000000e+00
4.369920009257880e-01 2.356274470654895e-01 0.000000000000000e+00
4.437623274816258e-01 2.338549602457035e-01 0.000000000000000e+00
4.506488428772394e-01 2.323404051277423e-01 0.000000000000000e+00
4.570748590117432e-01 2.312269852028676e-01 0.000000000000000e+00
4.641759857630442e-01 2.300517157047026e-01 0.000000000000000e+00
4.706469953544711e-01 2.292213602967276e-01 0.000000000000000e+00
4.777470598181124e-01 2.284014667747061e-01 0.000000000000000e+00
4.843730685370869e-01 2.278902530015922e-01 0.000000000000000e+00
4.913639630865083e-01 2.274828510173371e-01 0.000000000000000e+00
4.981246242353538e-01 2.272820147110888e-01 0.000000000000000e+00
5.050636990193648e-01 2.272399694470217e-01 0.000000000000000e+00
5.118351539673736e-01 2.273665543419183e-01 0.000000000000000e+00
5.188396393637494e-01 2.277101232518136e-01 0.000000000000000e+00
5.254928505172635e-01 2.281522040946057e-01 0.000000000000000e+00
5.324850711436957e-01 2.288609500921745e-01 0.000000000000000e+00
5.391492016554719e-01 2.296528350788913e-01 0.000000000000000e+00
5.460765007612691e-01 2.307229138664923e-01 0.000000000000000e+00
5.529075633826757e-01 2.319150336518752e-01 0.000000000000000e+00
5.593496229050835e-01 2.331736177726087e-01 0.000000000000000e+00
5.664705201383637e-01 2.349738373088927e-01 0.000000000000000e+00
5.721856049259323e-01 2.360436940061350e-01 0.000000000000000e+00
5.793764492139860e-01 2.383099980657464e-01 0.000000000000000e+00
5.852975880676166e-01 2.399121691201765e-01 0.000000000000000e+00
5.921315859272265e-01 2.424746106741546e-01 0.000000000000000e+00
5.985360644942334e-01 2.448383063716766e-01 0.000000000000000e+00
6.046282716143303e-01 2.469759795344069e-01 0.000000000000000e+00
6.113466253144609e-01 2.501280798961191e-01 0.000000000000000e+00
6.166741174665121e-01 2.523054933883900e-01 0.000000000000000e+00
6.233624674510657e-01 2.556627893663037e-01 0.000000000000000e+00
6.291659907656116e-01 2.586681031065014e-01 0.000000000000000e+00
6.351632880753590e-01 2.619831857611130e-01 0.000000000000000e+00
6.413432982042006e-01 2.656230876615483e-01 0.000000000000000e+00
6.466466929652408e-01 2.689095056505291e-01 0.000000000000000e+00
6.526674861345521e-01 2.728728877994663e-01 0.000000000000000e+00
6.582253258027447e-01 2.767192791383521e-01 0.000000000000000e+00
6.636812645395610e-01 2.807310199248305e-01 0.000000000000000e+00
6.692095225200175e-01 2.850046811292967e-01 0.000000000000000e+00
6.744151488220661e-01 2.892240948248442e-01 0.000000000000000e+00
6.796983971926451e-01 2.937838183327363e-01 0.000000000000000e+00
6.847707180711793e-01 2.983579090907887e-01 0.000000000000000e+00
6.896387063834458e-01 3.029499866969294e-01 0.000000000000000e+00
6.945929780201079e-01 3.079163845048615e-01 0.000000000000000e+00
6.992903013692944e-01 3.128578288500556e-01 0.000000000000000e+00
7.038848592980581e-01 3.179167087125456e-01 0.000000000000000e+00
7.084083077737044e-01 3.231677775468904e-01 0.000000000000000e+00
7.126324927617084e-01 3.283551731419838e-01 0.000000000000000e+00
7.168938343700694e-01 3.338272990081037e-01 0.000000000000000e+00
7.210410519233050e-01 3.394410987701622e-01 0.000000000000000e+00
7.247277403437802e-01 3.447637935944268e-01 0.000000000000000e+00
7.287339637435611e-01 3.507708647875930e-01 0.000000000000000e+00
7.323400858112332e-01 3.565321693881502e-01 0.000000000000000e+00
7.357396144040891e-01 3.622650743296838e-01 0.000000000000000e+00
7.393164860800976e-01 3.686447417789572e-01 0.000000000000000e+00
7.420594277827006e-01 3.740451280194482e-01 0.000000000000000e+00
7.453567737905218e-01 3.805217891821025e-01 0.000000000000000e+00
7.482176829192041e-01 3.867316862495921e-01 0.000000000000000e+00
7.508186981545466e-01 3.928029221696576e-01 0.000000000000000e+00
7.537708648160203e-01 3.996762584855965e-01 0.000000000000000e+00
7.555403095953780e-01 4.052670360731372e-01 0.000000000000000e+00
7.581862839832881e-01 4.121820463539441e-01 0.000000000000000e+00
7.600464934505685e-01 4.185182679752363e-01 0.000000000000000e+00
7.620060144431126e-01 4.251143935205554e-01 0.000000000000000e+00
7.640435425119263e-01 4.319283089185729e-01 0.000000000000000e+00
7.652624519972424e-01 4.383559618060372e-01 0.000000000000000e+00
7.671125654992679e-01 4.455285482164483e-01 0.000000000000000e+00
7.680001973718696e-01 4.517317325621287e-01 0.000000000000000e+00
7.693004502024686e-01 4.588929434957701e-01 0.000000000000000e+00
7.700967903590475e-01 4.654794302361870e-01 0.000000000000000e+00
7.709270073241311e-01 4.724743883632022e-01 0.000000000000000e+00
7.714959717419073e-01 4.792669731887162e-01 0.000000000000000e+00
7.719395356191909e-01 4.861768746924995e-01 0.000000000000000e+00
7.721907243376328e-01 4.930979830543687e-01 0.000000000000000e+00

POINT_DATA   249
SCALARS fMag double
LOOKUP_TABLE default

1.760389e+01 
1.642742e+01 
1.926966e+01 
1.717212e+01 
3.304692e+01 
4.098865e+01 
7.643528e+01 
1.043127e+02 
1.366090e+02 
9.764407e+01 
9.051953e+01 
2.313552e+01 
2.782445e+01 
9.759242e+01 
1.588068e+02 
1.744681e+02 
8.756213e+01 
2.945613e+01 
5.115137e+01 
1.210655e+02 
1.286241e+02 
6.706303e+01 
2.085174e+01 
4.695499e+01 
7.552680e+01 
5.448233e+01 
1.819284e+01 
2.871474e+01 
3.059666e+01 
2.049077e+01 
1.560512e+01 
2.581434e+01 
3.841078e+01 
2.051190e+01 
2.113973e+01 
3.490417e+01 
3.271598e+01 
2.717068e+01 
1.942284e+01 
4.774859e+01 
9.863400e+01 
9.451957e+01 
3.726629e+01 
3.653904e+01 
9.522244e+01 
1.801092e+02 
1.698369e+02 
1.192088e+02 
3.854724e+01 
4.732671e+01 
1.324920e+02 
1.432896e+02 
1.899822e+02 
1.584217e+02 
8.684457e+01 
3.946413e+01 
1.554237e+01 
3.829454e+01 
3.384573e+01 
4.313207e+01 
3.648273e+01 
3.184133e+01 
2.377653e+01 
2.388429e+01 
3.093184e+01 
3.793616e+01 
5.656926e+01 
6.291369e+01 
7.183377e+01 
6.779329e+01 
6.107259e+01 
2.828877e+01 
8.246563e+01 
1.454231e+02 
1.224759e+02 
1.273692e+02 
7.356117e+01 
4.201857e+01 
5.199497e+01 
9.460825e+01 
1.218772e+02 
9.446900e+01 
3.364441e+01 
4.306905e+01 
8.907159e+01 
9.946069e+01 
3.585906e+01 
4.205403e+01 
5.858647e+01 
2.351009e+01 
2.808940e+01 
2.005021e+01 
1.827754e+01 
2.355629e+01 
1.547181e+01 
2.631317e+01 
1.724629e+01 
2.998877e+01 
5.827883e+01 
5.350834e+01 
1.725486e+01 
3.915076e+01 
9.948817e+01 
1.065645e+02 
3.905104e+01 
4.286010e+01 
9.392955e+01 
1.547588e+02 
1.346370e+02 
6.981073e+01 
1.981569e+01 
4.466704e+01 
1.400711e+02 
1.422146e+02 
1.381786e+02 
7.670800e+01 
3.597616e+01 
3.212039e+01 
6.361354e+01 
9.048774e+01 
7.828500e+01 
6.731160e+01 
4.564512e+01 
3.171319e+01 
2.073436e+01 
2.073436e+01 
3.171319e+01 
4.564512e+01 
6.731160e+01 
7.828500e+01 
9.048774e+01 
6.361354e+01 
3.212039e+01 
3.597616e+01 
7.670800e+01 
1.381786e+02 
1.422146e+02 
1.400711e+02 
4.466704e+01 
1.981569e+01 
6.981073e+01 
1.346370e+02 
1.547588e+02 
9.392955e+01 
4.286010e+01 
3.905104e+01 
1.065645e+02 
9.948817e+01 
3.915076e+01 
1.725486e+01 
5.350834e+01 
5.827883e+01 
2.998877e+01 
1.724629e+01 
2.631317e+01 
1.547181e+01 
2.355629e+01 
1.827754e+01 
2.005021e+01 
2.808940e+01 
2.351009e+01 
5.858647e+01 
4.205403e+01 
3.585906e+01 
9.946069e+01 
8.907159e+01 
4.306905e+01 
3.364441e+01 
9.446900e+01 
1.218772e+02 
9.460825e+01 
5.199497e+01 
4.201857e+01 
7.356117e+01 
1.273692e+02 
1.224759e+02 
1.454231e+02 
8.246563e+01 
2.828877e+01 
6.107259e+01 
6.779329e+01 
7.183377e+01 
6.291369e+01 
5.656926e+01 
3.793616e+01 
3.093184e+01 
2.388429e+01 
2.377653e+01 
3.184133e+01 
3.648273e+01 
4.313207e+01 
3.384573e+01 
3.829454e+01 
1.554237e+01 
3.946413e+01 
8.684457e+01 
1.584217e+02 
1.899822e+02 
1.432896e+02 
1.324920e+02 
4.732671e+01 
3.854724e+01 
1.192088e+02 
1.698369e+02 
1.801092e+02 
9.522244e+01 
3.653904e+01 
3.726629e+01 
9.451957e+01 
9.863400e+01 
4.774859e+01 
1.942284e+01 
2.717068e+01 
3.271598e+01 
3.490417e+01 
2.113973e+01 
2.051190e+01 
3.841078e+01 
2.581434e+01 
1.560512e+01 
2.049077e+01 
3.059666e+01 
2.871474e+01 
1.819284e+01 
5.448233e+01 
7.552680e+01 
4.695499e+01 
2.085174e+01 
6.706303e+01 
1.286241e+02 
1.210655e+02 
5.115137e+01 
2.945613e+01 
8.756213e+01 
1.744681e+02 
1.588068e+02 
9.759242e+01 
2.782445e+01 
2.313552e+01 
9.051953e+01 
9.764407e+01 
1.366090e+02 
1.043127e+02 
7.643528e+01 
4.098865e+01 
3.304692e+01 
1.717212e+01 
1.926966e+01 
1.642742e+01 
