# vtk DataFile Version 2.0
fNorm
ASCII
DATASET UNSTRUCTURED_GRID

FIELD FieldData 1
TIME 1 1 double
0.66000000
POINTS 249 float
7.815750190358736e-01 5.000000000000000e-01 0.000000000000000e+00
7.814874738437975e-01 5.071446477871989e-01 0.000000000000000e+00
7.812059485139590e-01 5.143031434333231e-01 0.000000000000000e+00
7.807387539574374e-01 5.214468873802223e-01 0.000000000000000e+00
7.801582483572161e-01 5.284886954428840e-01 0.000000000000000e+00
7.792885470699744e-01 5.357102460194946e-01 0.000000000000000e+00
7.784123699548440e-01 5.426038346634244e-01 0.000000000000000e+00
7.770997864140520e-01 5.498855322936461e-01 0.000000000000000e+00
7.759854155258008e-01 5.564948142193080e-01 0.000000000000000e+00
7.742196121914120e-01 5.638288881404139e-01 0.000000000000000e+00
7.727913008736740e-01 5.703629716617384e-01 0.000000000000000e+00
7.707935988720345e-01 5.774524773003707e-01 0.000000000000000e+00
7.688174988550870e-01 5.842268405377027e-01 0.000000000000000e+00
7.665516142876094e-01 5.910102687412435e-01 0.000000000000000e+00
7.640512431135874e-01 5.978296938105645e-01 0.000000000000000e+00
7.617521123094945e-01 6.041398789244662e-01 0.000000000000000e+00
7.589075735128125e-01 6.108788873774860e-01 0.000000000000000e+00
7.560768241368261e-01 6.172307968202729e-01 0.000000000000000e+00
7.530068398773995e-01 6.236145063128539e-01 0.000000000000000e+00
7.497382016917304e-01 6.300165559355130e-01 0.000000000000000e+00
7.464750078835557e-01 6.360979447122380e-01 0.000000000000000e+00
7.429020700500504e-01 6.422262439870141e-01 0.000000000000000e+00
7.392039755747647e-01 6.482456175255406e-01 0.000000000000000e+00
7.354318555611824e-01 6.541018789592371e-01 0.000000000000000e+00
7.313931805078540e-01 6.599163086992629e-01 0.000000000000000e+00
7.272535481331325e-01 6.656272445444433e-01 0.000000000000000e+00
7.230334141578237e-01 6.711363727768080e-01 0.000000000000000e+00
7.185860765966714e-01 6.765948074980183e-01 0.000000000000000e+00
7.139855587902267e-01 6.819616553354924e-01 0.000000000000000e+00
7.093083565273216e-01 6.871291218255388e-01 0.000000000000000e+00
7.044765571046967e-01 6.922212339070698e-01 0.000000000000000e+00
6.995236028448572e-01 6.971357579775167e-01 0.000000000000000e+00
6.944350102610581e-01 7.019807640794877e-01 0.000000000000000e+00
6.891670368688876e-01 7.066682835981107e-01 0.000000000000000e+00
6.838467533875496e-01 7.112011817555698e-01 0.000000000000000e+00
6.784635688634647e-01 7.155836767203603e-01 0.000000000000000e+00
6.728552481523848e-01 7.198265520827155e-01 0.000000000000000e+00
6.671153781709173e-01 7.239839867660234e-01 0.000000000000000e+00
6.614843880670337e-01 7.278822174955059e-01 0.000000000000000e+00
6.554826057585659e-01 7.317629534528232e-01 0.000000000000000e+00
6.494679520548410e-01 7.354179478737304e-01 0.000000000000000e+00
6.435926827350612e-01 7.388070993292529e-01 0.000000000000000e+00
6.372211214934634e-01 7.423128358025031e-01 0.000000000000000e+00
6.310821305233730e-01 7.454278375837284e-01 0.000000000000000e+00
6.248202597718340e-01 7.484544708767349e-01 0.000000000000000e+00
6.181686768496732e-01 7.515085696603732e-01 0.000000000000000e+00
6.120641057933943e-01 7.539940676689523e-01 0.000000000000000e+00
6.052438313074023e-01 7.567650121184533e-01 0.000000000000000e+00
5.989294716445667e-01 7.589475811604579e-01 0.000000000000000e+00
5.922470669046964e-01 7.612437296349635e-01 0.000000000000000e+00
5.853158429220506e-01 7.634706362990533e-01 0.000000000000000e+00
5.787272182904721e-01 7.653182387742514e-01 0.000000000000000e+00
5.716251327860637e-01 7.672135527424977e-01 0.000000000000000e+00
5.652720586585156e-01 7.685245714688784e-01 0.000000000000000e+00
5.580269311135571e-01 7.701609907658888e-01 0.000000000000000e+00
5.513089192784807e-01 7.713394137288556e-01 0.000000000000000e+00
5.443042253556095e-01 7.724516059197155e-01 0.000000000000000e+00
5.372861990877028e-01 7.734013641999292e-01 0.000000000000000e+00
5.303198742223744e-01 7.741741690643725e-01 0.000000000000000e+00
5.232197567436394e-01 7.748281903350803e-01 0.000000000000000e+00
5.162833987548954e-01 7.752349990331124e-01 0.000000000000000e+00
5.091568645899619e-01 7.755388627737371e-01 0.000000000000000e+00
5.021704927885913e-01 7.756509390141477e-01 0.000000000000000e+00
4.950605831433572e-01 7.756242187848000e-01 0.000000000000000e+00
4.880597937623767e-01 7.754246622138211e-01 0.000000000000000e+00
4.809485939793272e-01 7.750298338519559e-01 0.000000000000000e+00
4.740335710419083e-01 7.745277457627929e-01 0.000000000000000e+00
4.668982936802469e-01 7.737779459701680e-01 0.000000000000000e+00
4.600719263100100e-01 7.729922675037733e-01 0.000000000000000e+00
4.529211317636444e-01 7.719064606774794e-01 0.000000000000000e+00
4.461874321515915e-01 7.707993184620563e-01 0.000000000000000e+00
4.391068558580342e-01 7.693520819298494e-01 0.000000000000000e+00
4.321407245470768e-01 7.677576601209031e-01 0.000000000000000e+00
4.255891831092583e-01 7.663075996530465e-01 0.000000000000000e+00
4.185639143973527e-01 7.643195959798635e-01 0.000000000000000e+00
4.121590287180749e-01 7.625156381302803e-01 0.000000000000000e+00
4.050074357475857e-01 7.599938302956460e-01 0.000000000000000e+00
3.988846869769341e-01 7.580127614898077e-01 0.000000000000000e+00
3.921232852042016e-01 7.554271225549959e-01 0.000000000000000e+00
3.856396722474285e-01 7.527605950143410e-01 0.000000000000000e+00
3.793197357460043e-01 7.500555686842736e-01 0.000000000000000e+00
3.727215916487759e-01 7.468873642979224e-01 0.000000000000000e+00
3.667094742130073e-01 7.439436283467957e-01 0.000000000000000e+00
3.603736345851480e-01 7.405936398623035e-01 0.000000000000000e+00
3.542179674331490e-01 7.371179511060285e-01 0.000000000000000e+00
3.483645395138700e-01 7.336637217524652e-01 0.000000000000000e+00
3.422566743512190e-01 7.298321314675830e-01 0.000000000000000e+00
3.364516270504694e-01 7.259355466543473e-01 0.000000000000000e+00
3.308079506049998e-01 7.219275941957305e-01 0.000000000000000e+00
3.251048287191480e-01 7.177275221772981e-01 0.000000000000000e+00
3.195955095846041e-01 7.134133901618789e-01 0.000000000000000e+00
3.142738704969280e-01 7.089674829615056e-01 0.000000000000000e+00
3.089545481294933e-01 7.043536717646758e-01 0.000000000000000e+00
3.037699345554949e-01 6.995837586244306e-01 0.000000000000000e+00
2.987605001038075e-01 6.947044746567690e-01 0.000000000000000e+00
2.938527337529267e-01 6.897037477889272e-01 0.000000000000000e+00
2.891154681206159e-01 6.845818504738149e-01 0.000000000000000e+00
2.844687502854308e-01 6.793182117713993e-01 0.000000000000000e+00
2.799329806124419e-01 6.738726470528508e-01 0.000000000000000e+00
2.755958417679263e-01 6.684031070385006e-01 0.000000000000000e+00
2.714374015392512e-01 6.628056929855787e-01 0.000000000000000e+00
2.673318880891836e-01 6.570372730802696e-01 0.000000000000000e+00
2.634253405874940e-01 6.512002736801731e-01 0.000000000000000e+00
2.597114070515131e-01 6.452780088071274e-01 0.000000000000000e+00
2.560270962321894e-01 6.391611394990091e-01 0.000000000000000e+00
2.525946468203569e-01 6.330477945853509e-01 0.000000000000000e+00
2.494025211658638e-01 6.268744691338920e-01 0.000000000000000e+00
2.461707307138375e-01 6.204085023930079e-01 0.000000000000000e+00
2.432838641085800e-01 6.141629227024190e-01 0.000000000000000e+00
2.403789537630549e-01 6.075392224089997e-01 0.000000000000000e+00
2.377671656825960e-01 6.009283257736330e-01 0.000000000000000e+00
2.354868428031772e-01 5.944958459119958e-01 0.000000000000000e+00
2.329258677588047e-01 5.875032864066307e-01 0.000000000000000e+00
2.310135012737920e-01 5.810241987454657e-01 0.000000000000000e+00
2.289033855353688e-01 5.739028162989610e-01 0.000000000000000e+00
2.273223669712591e-01 5.672806653541916e-01 0.000000000000000e+00
2.256368979672400e-01 5.602173583414949e-01 0.000000000000000e+00
2.241736449517661e-01 5.531775699721361e-01 0.000000000000000e+00
2.229914990703576e-01 5.463001398348416e-01 0.000000000000000e+00
2.218004821019550e-01 5.390320156156280e-01 0.000000000000000e+00
2.210026686687057e-01 5.321445758592029e-01 0.000000000000000e+00
2.202193868656176e-01 5.248709293589801e-01 0.000000000000000e+00
2.197474735934692e-01 5.179081971354582e-01 0.000000000000000e+00
2.193452279458050e-01 5.106884864699879e-01 0.000000000000000e+00
2.191795997930123e-01 5.035903028139763e-01 0.000000000000000e+00
2.191795997930116e-01 4.964096971861456e-01 0.000000000000000e+00
2.193452279458036e-01 4.893115135301183e-01 0.000000000000000e+00
2.197474735934666e-01 4.820918028646540e-01 0.000000000000000e+00
2.202193868656162e-01 4.751290706411387e-01 0.000000000000000e+00
2.210026686686999e-01 4.678554241409089e-01 0.000000000000000e+00
2.218004821019482e-01 4.609679843844919e-01 0.000000000000000e+00
2.229914990703541e-01 4.536998601652703e-01 0.000000000000000e+00
2.241736449517606e-01 4.468224300279774e-01 0.000000000000000e+00
2.256368979672292e-01 4.397826416586237e-01 0.000000000000000e+00
2.273223669712509e-01 4.327193346459233e-01 0.000000000000000e+00
2.289033855353580e-01 4.260971837011546e-01 0.000000000000000e+00
2.310135012737832e-01 4.189758012546523e-01 0.000000000000000e+00
2.329258677587907e-01 4.124967135934866e-01 0.000000000000000e+00
2.354868428031650e-01 4.055041540881166e-01 0.000000000000000e+00
2.377671656825866e-01 3.990716742264876e-01 0.000000000000000e+00
2.403789537630421e-01 3.924607775911116e-01 0.000000000000000e+00
2.432838641085658e-01 3.858370772976979e-01 0.000000000000000e+00
2.461707307138229e-01 3.795914976071075e-01 0.000000000000000e+00
2.494025211658472e-01 3.731255308662210e-01 0.000000000000000e+00
2.525946468203410e-01 3.669522054147637e-01 0.000000000000000e+00
2.560270962321740e-01 3.608388605011039e-01 0.000000000000000e+00
2.597114070514926e-01 3.547219911929843e-01 0.000000000000000e+00
2.634253405874772e-01 3.487997263199393e-01 0.000000000000000e+00
2.673318880891624e-01 3.429627269198417e-01 0.000000000000000e+00
2.714374015392317e-01 3.371943070145386e-01 0.000000000000000e+00
2.755958417679071e-01 3.315968929616010e-01 0.000000000000000e+00
2.799329806124196e-01 3.261273529472620e-01 0.000000000000000e+00
2.844687502854097e-01 3.206817882287096e-01 0.000000000000000e+00
2.891154681205934e-01 3.154181495262912e-01 0.000000000000000e+00
2.938527337529050e-01 3.102962522111779e-01 0.000000000000000e+00
2.987605001037829e-01 3.052955253433381e-01 0.000000000000000e+00
3.037699345554718e-01 3.004162413756779e-01 0.000000000000000e+00
3.089545481294671e-01 2.956463282354284e-01 0.000000000000000e+00
3.142738704969035e-01 2.910325170385968e-01 0.000000000000000e+00
3.195955095845760e-01 2.865866098382304e-01 0.000000000000000e+00
3.251048287191206e-01 2.822724778228025e-01 0.000000000000000e+00
3.308079506049707e-01 2.780724058043736e-01 0.000000000000000e+00
3.364516270504418e-01 2.740644533457572e-01 0.000000000000000e+00
3.422566743511928e-01 2.701678685325150e-01 0.000000000000000e+00
3.483645395138373e-01 2.663362782476344e-01 0.000000000000000e+00
3.542179674331291e-01 2.628820488940712e-01 0.000000000000000e+00
3.603736345851120e-01 2.594063601377947e-01 0.000000000000000e+00
3.667094742129882e-01 2.560563716532975e-01 0.000000000000000e+00
3.727215916487360e-01 2.531126357021817e-01 0.000000000000000e+00
3.793197357459721e-01 2.499444313158214e-01 0.000000000000000e+00
3.856396722473912e-01 2.472394049857563e-01 0.000000000000000e+00
3.921232852041649e-01 2.445728774450970e-01 0.000000000000000e+00
3.988846869768984e-01 2.419872385102843e-01 0.000000000000000e+00
4.050074357475388e-01 2.400061697044571e-01 0.000000000000000e+00
4.121590287180272e-01 2.374843618698164e-01 0.000000000000000e+00
4.185639143973174e-01 2.356804040202223e-01 0.000000000000000e+00
4.255891831092110e-01 2.336924003470482e-01 0.000000000000000e+00
4.321407245470412e-01 2.322423398791852e-01 0.000000000000000e+00
4.391068558579992e-01 2.306479180702281e-01 0.000000000000000e+00
4.461874321515484e-01 2.292006815380366e-01 0.000000000000000e+00
4.529211317636054e-01 2.280935393226003e-01 0.000000000000000e+00
4.600719263099756e-01 2.270077324963059e-01 0.000000000000000e+00
4.668982936801997e-01 2.262220540299129e-01 0.000000000000000e+00
4.740335710418700e-01 2.254722542372803e-01 0.000000000000000e+00
4.809485939792834e-01 2.249701661481244e-01 0.000000000000000e+00
4.880597937623334e-01 2.245753377862508e-01 0.000000000000000e+00
4.950605831433111e-01 2.243757812152735e-01 0.000000000000000e+00
5.021704927885507e-01 2.243490609859222e-01 0.000000000000000e+00
5.091568645899140e-01 2.244611372263313e-01 0.000000000000000e+00
5.162833987548467e-01 2.247650009669591e-01 0.000000000000000e+00
5.232197567435997e-01 2.251718096649841e-01 0.000000000000000e+00
5.303198742223231e-01 2.258258309356900e-01 0.000000000000000e+00
5.372861990876632e-01 2.265986358001382e-01 0.000000000000000e+00
5.443042253555589e-01 2.275483940803452e-01 0.000000000000000e+00
5.513089192784341e-01 2.286605862712067e-01 0.000000000000000e+00
5.580269311135131e-01 2.298390092341671e-01 0.000000000000000e+00
5.652720586584691e-01 2.314754285311813e-01 0.000000000000000e+00
5.716251327860227e-01 2.327864472575562e-01 0.000000000000000e+00
5.787272182904281e-01 2.346817612258056e-01 0.000000000000000e+00
5.853158429220018e-01 2.365293637009860e-01 0.000000000000000e+00
5.922470669046583e-01 2.387562703650979e-01 0.000000000000000e+00
5.989294716445210e-01 2.410524188395871e-01 0.000000000000000e+00
6.052438313073597e-01 2.432349878815977e-01 0.000000000000000e+00
6.120641057933486e-01 2.460059323310981e-01 0.000000000000000e+00
6.181686768496359e-01 2.484914303396755e-01 0.000000000000000e+00
6.248202597717912e-01 2.515455291233136e-01 0.000000000000000e+00
6.310821305233351e-01 2.545721624163265e-01 0.000000000000000e+00
6.372211214934207e-01 2.576871641975428e-01 0.000000000000000e+00
6.435926827350218e-01 2.611929006707950e-01 0.000000000000000e+00
6.494679520547993e-01 2.645820521263172e-01 0.000000000000000e+00
6.554826057585261e-01 2.682370465472248e-01 0.000000000000000e+00
6.614843880669925e-01 2.721177825045359e-01 0.000000000000000e+00
6.671153781708820e-01 2.760160132340280e-01 0.000000000000000e+00
6.728552481523482e-01 2.801734479173296e-01 0.000000000000000e+00
6.784635688634286e-01 2.844163232796864e-01 0.000000000000000e+00
6.838467533875157e-01 2.887988182444776e-01 0.000000000000000e+00
6.891670368688465e-01 2.933317164019282e-01 0.000000000000000e+00
6.944350102610259e-01 2.980192359205589e-01 0.000000000000000e+00
6.995236028448165e-01 3.028642420225223e-01 0.000000000000000e+00
7.044765571046655e-01 3.077787660929751e-01 0.000000000000000e+00
7.093083565272871e-01 3.128708781745047e-01 0.000000000000000e+00
7.139855587901953e-01 3.180383446645449e-01 0.000000000000000e+00
7.185860765966368e-01 3.234051925020222e-01 0.000000000000000e+00
7.230334141577909e-01 3.288636272232311e-01 0.000000000000000e+00
7.272535481330999e-01 3.343727554555985e-01 0.000000000000000e+00
7.313931805078197e-01 3.400836913007661e-01 0.000000000000000e+00
7.354318555611545e-01 3.458981210408050e-01 0.000000000000000e+00
7.392039755747313e-01 3.517543824744946e-01 0.000000000000000e+00
7.429020700500213e-01 3.577737560130152e-01 0.000000000000000e+00
7.464750078835256e-01 3.639020552877995e-01 0.000000000000000e+00
7.497382016917025e-01 3.699834440645193e-01 0.000000000000000e+00
7.530068398773710e-01 3.763854936871772e-01 0.000000000000000e+00
7.560768241368018e-01 3.827692031797633e-01 0.000000000000000e+00
7.589075735127863e-01 3.891211126225442e-01 0.000000000000000e+00
7.617521123094679e-01 3.958601210755641e-01 0.000000000000000e+00
7.640512431135650e-01 4.021703061894719e-01 0.000000000000000e+00
7.665516142875900e-01 4.089897312587799e-01 0.000000000000000e+00
7.688174988550656e-01 4.157731594623343e-01 0.000000000000000e+00
7.707935988720174e-01 4.225475226996604e-01 0.000000000000000e+00
7.727913008736580e-01 4.296370283382857e-01 0.000000000000000e+00
7.742196121913982e-01 4.361711118596232e-01 0.000000000000000e+00
7.759854155257891e-01 4.435051857807238e-01 0.000000000000000e+00
7.770997864140413e-01 4.501144677063844e-01 0.000000000000000e+00
7.784123699548359e-01 4.573961653366138e-01 0.000000000000000e+00
7.792885470699655e-01 4.642897539805307e-01 0.000000000000000e+00
7.801582483572108e-01 4.715113045571406e-01 0.000000000000000e+00
7.807387539574312e-01 4.785531126198109e-01 0.000000000000000e+00
7.812059485139559e-01 4.856968565667148e-01 0.000000000000000e+00
7.814874738437964e-01 4.928553522128462e-01 0.000000000000000e+00

POINT_DATA   249
SCALARS fNorm double
LOOKUP_TABLE default

1.750605e+01 
1.935371e+01 
1.861660e+01 
1.205123e+01 
2.695257e+01 
4.667802e+00 
3.720447e+01 
7.956472e+00 
4.912685e+01 
1.493130e+01 
4.167303e+01 
6.609090e+00 
2.738414e+01 
2.093418e+01 
1.417510e+00 
3.501174e+01 
1.413470e+01 
2.037094e+01 
1.698030e+01 
1.438171e+01 
2.473425e+01 
1.633281e+01 
1.495097e+01 
2.447493e+01 
1.422150e+01 
1.851428e+01 
2.096793e+01 
1.762654e+01 
1.893297e+01 
1.645903e+01 
2.107957e+01 
1.443942e+01 
2.373469e+01 
1.509539e+01 
1.558178e+01 
2.488108e+01 
1.469523e+01 
1.486066e+01 
2.206612e+01 
1.980900e+01 
1.576575e+01 
1.418702e+01 
2.366348e+01 
1.337595e+01 
1.411785e+01 
3.036486e+01 
5.177474e-01 
3.720340e+01 
1.252528e+00 
1.441977e+01 
2.643386e+01 
8.938729e+00 
3.947791e+01 
1.290535e+01 
3.448262e+01 
1.125369e+01 
1.626575e+01 
1.693154e+01 
1.316994e+01 
2.341900e+01 
1.124376e+01 
1.875964e+01 
1.395689e+01 
1.745868e+01 
1.904778e+01 
1.195774e+01 
2.272073e+01 
6.945184e+00 
2.544424e+01 
8.614807e+00 
2.713625e+01 
1.680836e+01 
4.973138e+00 
4.052169e+01 
8.545245e-01 
4.569462e+01 
1.815811e+01 
3.565051e+01 
1.775807e+01 
9.879865e+00 
3.064816e+01 
5.361791e+00 
2.150014e+01 
1.967441e+01 
1.324493e+01 
1.899210e+01 
2.193375e+01 
1.833434e+01 
1.208508e+01 
2.080288e+01 
2.204708e+01 
1.293586e+01 
2.061683e+01 
1.998558e+01 
1.578064e+01 
2.070108e+01 
1.622023e+01 
2.026478e+01 
1.692301e+01 
2.196157e+01 
1.433792e+01 
2.026689e+01 
2.079891e+01 
1.271255e+01 
2.159103e+01 
2.400036e+01 
9.719638e+00 
2.151820e+01 
1.387531e+01 
2.656276e+01 
2.476811e+01 
7.401859e+00 
4.536745e+01 
7.452268e-01 
3.814965e+01 
8.536424e-02 
2.117187e+01 
2.458000e+01 
5.585910e+00 
3.363817e+01 
5.728777e+00 
2.828654e+01 
8.534768e+00 
2.315832e+01 
1.665377e+01 
1.665377e+01 
2.315832e+01 
8.534768e+00 
2.828654e+01 
5.728777e+00 
3.363817e+01 
5.585910e+00 
2.458000e+01 
2.117187e+01 
8.536424e-02 
3.814965e+01 
7.452268e-01 
4.536745e+01 
7.401859e+00 
2.476811e+01 
2.656276e+01 
1.387531e+01 
2.151820e+01 
9.719638e+00 
2.400036e+01 
2.159103e+01 
1.271255e+01 
2.079891e+01 
2.026689e+01 
1.433792e+01 
2.196157e+01 
1.692301e+01 
2.026478e+01 
1.622023e+01 
2.070108e+01 
1.578064e+01 
1.998558e+01 
2.061683e+01 
1.293586e+01 
2.204708e+01 
2.080288e+01 
1.208508e+01 
1.833434e+01 
2.193375e+01 
1.899210e+01 
1.324493e+01 
1.967441e+01 
2.150014e+01 
5.361791e+00 
3.064816e+01 
9.879865e+00 
1.775807e+01 
3.565051e+01 
1.815811e+01 
4.569462e+01 
8.545245e-01 
4.052169e+01 
4.973138e+00 
1.680836e+01 
2.713625e+01 
8.614807e+00 
2.544424e+01 
6.945184e+00 
2.272073e+01 
1.195774e+01 
1.904778e+01 
1.745868e+01 
1.395689e+01 
1.875964e+01 
1.124376e+01 
2.341900e+01 
1.316994e+01 
1.693154e+01 
1.626575e+01 
1.125369e+01 
3.448262e+01 
1.290535e+01 
3.947791e+01 
8.938729e+00 
2.643386e+01 
1.441977e+01 
1.252528e+00 
3.720340e+01 
5.177474e-01 
3.036486e+01 
1.411785e+01 
1.337595e+01 
2.366348e+01 
1.418702e+01 
1.576575e+01 
1.980900e+01 
2.206612e+01 
1.486066e+01 
1.469523e+01 
2.488108e+01 
1.558178e+01 
1.509539e+01 
2.373469e+01 
1.443942e+01 
2.107957e+01 
1.645903e+01 
1.893297e+01 
1.762654e+01 
2.096793e+01 
1.851428e+01 
1.422150e+01 
2.447493e+01 
1.495097e+01 
1.633281e+01 
2.473425e+01 
1.438171e+01 
1.698030e+01 
2.037094e+01 
1.413470e+01 
3.501174e+01 
1.417510e+00 
2.093418e+01 
2.738414e+01 
6.609090e+00 
4.167303e+01 
1.493130e+01 
4.912685e+01 
7.956472e+00 
3.720447e+01 
4.667802e+00 
2.695257e+01 
1.205123e+01 
1.861660e+01 
1.935371e+01 
