# vtk DataFile Version 2.0
fNorm
ASCII
DATASET UNSTRUCTURED_GRID

FIELD FieldData 1
TIME 1 1 double
0.61000000
POINTS 249 float
7.504700251260048e-01 5.000000000000000e-01 0.000000000000000e+00
7.504169217728353e-01 5.073152507374873e-01 0.000000000000000e+00
7.502159443863806e-01 5.146441401544866e-01 0.000000000000000e+00
7.498861321184819e-01 5.219580183537690e-01 0.000000000000000e+00
7.494692416427579e-01 5.291791684489577e-01 0.000000000000000e+00
7.488137954982858e-01 5.366146404164095e-01 0.000000000000000e+00
7.482025721437533e-01 5.436851963579146e-01 0.000000000000000e+00
7.472336235511459e-01 5.512118680514101e-01 0.000000000000000e+00
7.464814874302939e-01 5.579669998148694e-01 0.000000000000000e+00
7.451537899960712e-01 5.656159985152706e-01 0.000000000000000e+00
7.441612964320690e-01 5.723098926243452e-01 0.000000000000000e+00
7.426627809741244e-01 5.797175880808164e-01 0.000000000000000e+00
7.412214661031649e-01 5.867512628736385e-01 0.000000000000000e+00
7.395241603926612e-01 5.938897114897000e-01 0.000000000000000e+00
7.376555396311594e-01 6.010990728465706e-01 0.000000000000000e+00
7.359785357096116e-01 6.077260323750587e-01 0.000000000000000e+00
7.338184328585549e-01 6.149515527109074e-01 0.000000000000000e+00
7.316706202224257e-01 6.217399152151190e-01 0.000000000000000e+00
7.293138248580217e-01 6.285907856238953e-01 0.000000000000000e+00
7.268344621518349e-01 6.354859187708835e-01 0.000000000000000e+00
7.243508935979782e-01 6.420764650312955e-01 0.000000000000000e+00
7.215724318176183e-01 6.488209901081747e-01 0.000000000000000e+00
7.186604763042629e-01 6.554707508854192e-01 0.000000000000000e+00
7.156778208072267e-01 6.619480062130100e-01 0.000000000000000e+00
7.124935855697592e-01 6.684305784759779e-01 0.000000000000000e+00
7.092269626809733e-01 6.748156585337061e-01 0.000000000000000e+00
7.058672486126281e-01 6.810176349651066e-01 0.000000000000000e+00
7.022680718099534e-01 6.872236253874345e-01 0.000000000000000e+00
6.984835915541898e-01 6.934067209326771e-01 0.000000000000000e+00
6.946538730581467e-01 6.993857379214000e-01 0.000000000000000e+00
6.907005108715097e-01 7.052667086551868e-01 0.000000000000000e+00
6.865740702471996e-01 7.110156326986466e-01 0.000000000000000e+00
6.823020511814707e-01 7.167185469601413e-01 0.000000000000000e+00
6.778217053242391e-01 7.223107157080059e-01 0.000000000000000e+00
6.733323362477913e-01 7.276923447259150e-01 0.000000000000000e+00
6.687365568280799e-01 7.329671239858138e-01 0.000000000000000e+00
6.638272639330883e-01 7.381712184439577e-01 0.000000000000000e+00
6.588496866197423e-01 7.432229410528809e-01 0.000000000000000e+00
6.539113722277310e-01 7.480222185013377e-01 0.000000000000000e+00
6.485970987143979e-01 7.528416783440843e-01 0.000000000000000e+00
6.432585946509678e-01 7.574102893219116e-01 0.000000000000000e+00
6.379622505489562e-01 7.617142881325145e-01 0.000000000000000e+00
6.322638809301803e-01 7.660751651857676e-01 0.000000000000000e+00
6.265996381500148e-01 7.701003305583379e-01 0.000000000000000e+00
6.208188354747028e-01 7.740081422938609e-01 0.000000000000000e+00
6.147367677649165e-01 7.778914873503276e-01 0.000000000000000e+00
6.089117083718424e-01 7.812459457523071e-01 0.000000000000000e+00
6.026186505585871e-01 7.847623663615347e-01 0.000000000000000e+00
5.965378796906188e-01 7.877449872418990e-01 0.000000000000000e+00
5.902111659387261e-01 7.907573793602851e-01 0.000000000000000e+00
5.836457176784192e-01 7.936606430965328e-01 0.000000000000000e+00
5.772456224675191e-01 7.961790832990753e-01 0.000000000000000e+00
5.704858721099698e-01 7.986300805931045e-01 0.000000000000000e+00
5.641544293014503e-01 8.005395438598640e-01 0.000000000000000e+00
5.571966039941135e-01 8.026829160436377e-01 0.000000000000000e+00
5.505646174732038e-01 8.043383092343438e-01 0.000000000000000e+00
5.436920896511047e-01 8.058465223162720e-01 0.000000000000000e+00
5.368068195432225e-01 8.071350549440471e-01 0.000000000000000e+00
5.299399120394245e-01 8.081979813142911e-01 0.000000000000000e+00
5.229612971640025e-01 8.090739970454534e-01 0.000000000000000e+00
5.160528737982687e-01 8.096657579668085e-01 0.000000000000000e+00
5.089932386787418e-01 8.100801212748449e-01 0.000000000000000e+00
5.020664639875912e-01 8.102425649808054e-01 0.000000000000000e+00
4.950454149981586e-01 8.101899070179134e-01 0.000000000000000e+00
4.881000437048231e-01 8.099114975496917e-01 0.000000000000000e+00
4.810485157938357e-01 8.093837820501899e-01 0.000000000000000e+00
4.741840588339665e-01 8.086790422537372e-01 0.000000000000000e+00
4.671990235455470e-01 8.076795275119063e-01 0.000000000000000e+00
4.604226600904785e-01 8.065528969768629e-01 0.000000000000000e+00
4.534328476839838e-01 8.051004841175720e-01 0.000000000000000e+00
4.467542329163607e-01 8.035453364066437e-01 0.000000000000000e+00
4.399045208767121e-01 8.016404061911060e-01 0.000000000000000e+00
4.331850937126409e-01 7.995266767448544e-01 0.000000000000000e+00
4.267506621818748e-01 7.974832464938770e-01 0.000000000000000e+00
4.200703415611091e-01 7.948921448895306e-01 0.000000000000000e+00
4.137729044405645e-01 7.923584631356337e-01 0.000000000000000e+00
4.070975058442277e-01 7.891641376618266e-01 0.000000000000000e+00
4.011034222038922e-01 7.863791571655661e-01 0.000000000000000e+00
3.947912101672034e-01 7.830263900869653e-01 0.000000000000000e+00
3.887769268382067e-01 7.795997061364307e-01 0.000000000000000e+00
3.828383057038465e-01 7.760189596772409e-01 0.000000000000000e+00
3.768443146117904e-01 7.720376993831914e-01 0.000000000000000e+00
3.712187931201870e-01 7.681668208668517e-01 0.000000000000000e+00
3.654694636989896e-01 7.639268302993530e-01 0.000000000000000e+00
3.599669807908576e-01 7.595683123502407e-01 0.000000000000000e+00
3.547120999565729e-01 7.551864315863488e-01 0.000000000000000e+00
3.493193542763248e-01 7.504496715728649e-01 0.000000000000000e+00
3.441894379621305e-01 7.456365418639810e-01 0.000000000000000e+00
3.392748300322135e-01 7.407411143854732e-01 0.000000000000000e+00
3.343088940340631e-01 7.356120133403887e-01 0.000000000000000e+00
3.295320687537217e-01 7.303489972459426e-01 0.000000000000000e+00
3.250287329407283e-01 7.250433541733279e-01 0.000000000000000e+00
3.205182954026547e-01 7.195515325689389e-01 0.000000000000000e+00
3.161376750100713e-01 7.138992059720346e-01 0.000000000000000e+00
3.119513644809385e-01 7.081711525756522e-01 0.000000000000000e+00
3.078915742236663e-01 7.023509938818897e-01 0.000000000000000e+00
3.040321161323371e-01 6.964455886766199e-01 0.000000000000000e+00
3.002144869950104e-01 6.903604900159912e-01 0.000000000000000e+00
2.965124948860855e-01 6.841414772648612e-01 0.000000000000000e+00
2.930262488104677e-01 6.779544279919384e-01 0.000000000000000e+00
2.897309196609274e-01 6.716767525614957e-01 0.000000000000000e+00
2.864986629836545e-01 6.652312830803685e-01 0.000000000000000e+00
2.834162849540970e-01 6.587446323144195e-01 0.000000000000000e+00
2.804768904976827e-01 6.522062843169580e-01 0.000000000000000e+00
2.775918277709024e-01 6.454645311616932e-01 0.000000000000000e+00
2.749570114209216e-01 6.387956506035140e-01 0.000000000000000e+00
2.725592102544923e-01 6.321584865267681e-01 0.000000000000000e+00
2.700904872019038e-01 6.251829717159795e-01 0.000000000000000e+00
2.678762062966136e-01 6.184718428591690e-01 0.000000000000000e+00
2.656491370133649e-01 6.113568085697164e-01 0.000000000000000e+00
2.636841045175656e-01 6.043366569768864e-01 0.000000000000000e+00
2.620357699757282e-01 5.976151836428468e-01 0.000000000000000e+00
2.601182541814246e-01 5.902204054167869e-01 0.000000000000000e+00
2.587498275353502e-01 5.835072166168719e-01 0.000000000000000e+00
2.571573244803458e-01 5.760398952321796e-01 0.000000000000000e+00
2.560104465614402e-01 5.691798288104144e-01 0.000000000000000e+00
2.547521835931103e-01 5.618277082169840e-01 0.000000000000000e+00
2.536763732709752e-01 5.545331468698795e-01 0.000000000000000e+00
2.528549283270391e-01 5.474809432737694e-01 0.000000000000000e+00
2.519812398317242e-01 5.399930669248882e-01 0.000000000000000e+00
2.514264902376472e-01 5.329444783957529e-01 0.000000000000000e+00
2.508295465333160e-01 5.254639882805474e-01 0.000000000000000e+00
2.505076934011879e-01 5.183389953595199e-01 0.000000000000000e+00
2.502151478454513e-01 5.109403128667526e-01 0.000000000000000e+00
2.501068962236582e-01 5.036764068086004e-01 0.000000000000000e+00
2.501068962236577e-01 4.963235931914888e-01 0.000000000000000e+00
2.502151478454507e-01 4.890596871333187e-01 0.000000000000000e+00
2.505076934011867e-01 4.816610046405599e-01 0.000000000000000e+00
2.508295465333154e-01 4.745360117195377e-01 0.000000000000000e+00
2.514264902376444e-01 4.670555216043276e-01 0.000000000000000e+00
2.519812398317203e-01 4.600069330751996e-01 0.000000000000000e+00
2.528549283270384e-01 4.525190567263091e-01 0.000000000000000e+00
2.536763732709731e-01 4.454668531302027e-01 0.000000000000000e+00
2.547521835931034e-01 4.381722917831047e-01 0.000000000000000e+00
2.560104465614370e-01 4.308201711896661e-01 0.000000000000000e+00
2.571573244803398e-01 4.239601047679057e-01 0.000000000000000e+00
2.587498275353463e-01 4.164927833832129e-01 0.000000000000000e+00
2.601182541814147e-01 4.097795945832998e-01 0.000000000000000e+00
2.620357699757196e-01 4.023848163572373e-01 0.000000000000000e+00
2.636841045175595e-01 3.956633430231996e-01 0.000000000000000e+00
2.656491370133560e-01 3.886431914303682e-01 0.000000000000000e+00
2.678762062966052e-01 3.815281571409170e-01 0.000000000000000e+00
2.700904872018941e-01 3.748170282841039e-01 0.000000000000000e+00
2.725592102544815e-01 3.678415134733147e-01 0.000000000000000e+00
2.749570114209109e-01 3.612043493965725e-01 0.000000000000000e+00
2.775918277708923e-01 3.545354688383903e-01 0.000000000000000e+00
2.804768904976672e-01 3.477937156831266e-01 0.000000000000000e+00
2.834162849540874e-01 3.412553676856631e-01 0.000000000000000e+00
2.864986629836382e-01 3.347687169197165e-01 0.000000000000000e+00
2.897309196609150e-01 3.283232474385903e-01 0.000000000000000e+00
2.930262488104517e-01 3.220455720081393e-01 0.000000000000000e+00
2.965124948860700e-01 3.158585227352237e-01 0.000000000000000e+00
3.002144869949950e-01 3.096395099840912e-01 0.000000000000000e+00
3.040321161323195e-01 3.035544113234642e-01 0.000000000000000e+00
3.078915742236490e-01 2.976490061181898e-01 0.000000000000000e+00
3.119513644809190e-01 2.918288474244298e-01 0.000000000000000e+00
3.161376750100544e-01 2.861007940280479e-01 0.000000000000000e+00
3.205182954026330e-01 2.804484674311420e-01 0.000000000000000e+00
3.250287329407109e-01 2.749566458267506e-01 0.000000000000000e+00
3.295320687537030e-01 2.696510027541398e-01 0.000000000000000e+00
3.343088940340413e-01 2.643879866596899e-01 0.000000000000000e+00
3.392748300321921e-01 2.592588856146076e-01 0.000000000000000e+00
3.441894379621118e-01 2.543634581360992e-01 0.000000000000000e+00
3.493193542763037e-01 2.495503284272120e-01 0.000000000000000e+00
3.547120999565468e-01 2.448135684137323e-01 0.000000000000000e+00
3.599669807908462e-01 2.404316876498349e-01 0.000000000000000e+00
3.654694636989542e-01 2.360731697007287e-01 0.000000000000000e+00
3.712187931201720e-01 2.318331791332177e-01 0.000000000000000e+00
3.768443146117587e-01 2.279623006168935e-01 0.000000000000000e+00
3.828383057038209e-01 2.239810403228323e-01 0.000000000000000e+00
3.887769268381789e-01 2.204002938636443e-01 0.000000000000000e+00
3.947912101671754e-01 2.169736099131064e-01 0.000000000000000e+00
4.011034222038649e-01 2.136208428345053e-01 0.000000000000000e+00
4.070975058441955e-01 2.108358623382525e-01 0.000000000000000e+00
4.137729044405274e-01 2.076415368644426e-01 0.000000000000000e+00
4.200703415610810e-01 2.051078551105363e-01 0.000000000000000e+00
4.267506621818415e-01 2.025167535061972e-01 0.000000000000000e+00
4.331850937126143e-01 2.004733232552127e-01 0.000000000000000e+00
4.399045208766784e-01 1.983595938089553e-01 0.000000000000000e+00
4.467542329163300e-01 1.964546635934311e-01 0.000000000000000e+00
4.534328476839501e-01 1.948995158824903e-01 0.000000000000000e+00
4.604226600904508e-01 1.934471030231967e-01 0.000000000000000e+00
4.671990235455096e-01 1.923204724881573e-01 0.000000000000000e+00
4.741840588339339e-01 1.913209577463198e-01 0.000000000000000e+00
4.810485157938018e-01 1.906162179498713e-01 0.000000000000000e+00
4.881000437047885e-01 1.900885024503620e-01 0.000000000000000e+00
4.950454149981219e-01 1.898100929821421e-01 0.000000000000000e+00
5.020664639875585e-01 1.897574350192476e-01 0.000000000000000e+00
5.089932386787056e-01 1.899198787252039e-01 0.000000000000000e+00
5.160528737982284e-01 1.903342420332447e-01 0.000000000000000e+00
5.229612971639732e-01 1.909260029545927e-01 0.000000000000000e+00
5.299399120393850e-01 1.918020186857523e-01 0.000000000000000e+00
5.368068195431914e-01 1.928649450560006e-01 0.000000000000000e+00
5.436920896510671e-01 1.941534776837697e-01 0.000000000000000e+00
5.505646174731689e-01 1.956616907657000e-01 0.000000000000000e+00
5.571966039940832e-01 1.973170839563997e-01 0.000000000000000e+00
5.641544293014161e-01 1.994604561401764e-01 0.000000000000000e+00
5.704858721099422e-01 2.013699194069300e-01 0.000000000000000e+00
5.772456224674873e-01 2.038209167009603e-01 0.000000000000000e+00
5.836457176783921e-01 2.063393569034915e-01 0.000000000000000e+00
5.902111659386985e-01 2.092426206397561e-01 0.000000000000000e+00
5.965378796905959e-01 2.122550127581269e-01 0.000000000000000e+00
6.026186505585608e-01 2.152376336384960e-01 0.000000000000000e+00
6.089117083718124e-01 2.187540542477209e-01 0.000000000000000e+00
6.147367677648977e-01 2.221085126496994e-01 0.000000000000000e+00
6.208188354746761e-01 2.259918577061653e-01 0.000000000000000e+00
6.265996381499952e-01 2.298996694416919e-01 0.000000000000000e+00
6.322638809301578e-01 2.339248348142541e-01 0.000000000000000e+00
6.379622505489364e-01 2.382857118675106e-01 0.000000000000000e+00
6.432585946509486e-01 2.425897106781128e-01 0.000000000000000e+00
6.485970987143773e-01 2.471583216559395e-01 0.000000000000000e+00
6.539113722277132e-01 2.519777814986803e-01 0.000000000000000e+00
6.588496866197223e-01 2.567770589471443e-01 0.000000000000000e+00
6.638272639330710e-01 2.618287815560619e-01 0.000000000000000e+00
6.687365568280638e-01 2.670328760142060e-01 0.000000000000000e+00
6.733323362477766e-01 2.723076552741076e-01 0.000000000000000e+00
6.778217053242186e-01 2.776892842920088e-01 0.000000000000000e+00
6.823020511814589e-01 2.832814530398821e-01 0.000000000000000e+00
6.865740702471790e-01 2.889843673013660e-01 0.000000000000000e+00
6.907005108714958e-01 2.947332913448327e-01 0.000000000000000e+00
6.946538730581288e-01 3.006142620786181e-01 0.000000000000000e+00
6.984835915541802e-01 3.065932790673392e-01 0.000000000000000e+00
7.022680718099371e-01 3.127763746125808e-01 0.000000000000000e+00
7.058672486126172e-01 3.189823650349116e-01 0.000000000000000e+00
7.092269626809590e-01 3.251843414663105e-01 0.000000000000000e+00
7.124935855697465e-01 3.315694215240320e-01 0.000000000000000e+00
7.156778208072162e-01 3.380519937870108e-01 0.000000000000000e+00
7.186604763042485e-01 3.445292491145949e-01 0.000000000000000e+00
7.215724318176077e-01 3.511790098918359e-01 0.000000000000000e+00
7.243508935979674e-01 3.579235349687219e-01 0.000000000000000e+00
7.268344621518237e-01 3.645140812291318e-01 0.000000000000000e+00
7.293138248580109e-01 3.714092143761148e-01 0.000000000000000e+00
7.316706202224169e-01 3.782600847848958e-01 0.000000000000000e+00
7.338184328585453e-01 3.850484472891026e-01 0.000000000000000e+00
7.359785357096005e-01 3.922739676249504e-01 0.000000000000000e+00
7.376555396311506e-01 3.989009271534498e-01 0.000000000000000e+00
7.395241603926561e-01 4.061102885103079e-01 0.000000000000000e+00
7.412214661031568e-01 4.132487371263781e-01 0.000000000000000e+00
7.426627809741193e-01 4.202824119191976e-01 0.000000000000000e+00
7.441612964320636e-01 4.276901073756644e-01 0.000000000000000e+00
7.451537899960671e-01 4.343840014847472e-01 0.000000000000000e+00
7.464814874302914e-01 4.420330001851437e-01 0.000000000000000e+00
7.472336235511434e-01 4.487881319486028e-01 0.000000000000000e+00
7.482025721437527e-01 4.563148036421074e-01 0.000000000000000e+00
7.488137954982820e-01 4.633853595835977e-01 0.000000000000000e+00
7.494692416427570e-01 4.708208315510504e-01 0.000000000000000e+00
7.498861321184799e-01 4.780419816462430e-01 0.000000000000000e+00
7.502159443863791e-01 4.853558598455307e-01 0.000000000000000e+00
7.504169217728354e-01 4.926847492625300e-01 0.000000000000000e+00

POINT_DATA   249
SCALARS fNorm double
LOOKUP_TABLE default

1.061923e+01 
1.476064e+01 
1.292834e+01 
9.171576e+00 
2.222682e+01 
1.232414e+00 
3.065378e+01 
1.229436e+01 
4.418896e+01 
1.783798e+01 
3.741122e+01 
1.854322e+00 
2.272589e+01 
1.491475e+01 
4.102315e+00 
3.057529e+01 
1.166942e+01 
1.788266e+01 
1.009168e+01 
1.091430e+01 
2.177945e+01 
1.599274e+01 
1.351410e+01 
1.797216e+01 
1.173408e+01 
1.676858e+01 
2.068993e+01 
1.708829e+01 
1.466377e+01 
1.571691e+01 
2.174754e+01 
1.446139e+01 
2.325027e+01 
1.402329e+01 
1.503105e+01 
2.797053e+01 
1.549018e+01 
1.514336e+01 
2.424985e+01 
2.042199e+01 
1.761943e+01 
2.041677e+01 
2.498334e+01 
1.628623e+01 
1.858518e+01 
3.184859e+01 
8.991421e+00 
3.738536e+01 
8.020626e+00 
1.988008e+01 
2.912699e+01 
1.901545e+01 
3.784157e+01 
4.098907e+00 
3.822441e+01 
1.981802e+01 
2.178290e+01 
2.192955e+01 
2.006170e+01 
2.753148e+01 
1.878263e+01 
2.462454e+01 
2.158594e+01 
2.274934e+01 
2.427998e+01 
1.928635e+01 
2.778600e+01 
1.575076e+01 
2.809076e+01 
1.672261e+01 
2.964821e+01 
2.372096e+01 
1.887438e+00 
4.344346e+01 
8.724446e+00 
4.517227e+01 
7.936610e+00 
3.661159e+01 
2.082965e+01 
1.711974e+01 
3.086916e+01 
1.148680e+01 
2.286487e+01 
2.440472e+01 
1.742758e+01 
1.798871e+01 
2.331774e+01 
2.088117e+01 
1.274872e+01 
2.295391e+01 
2.336492e+01 
1.138743e+01 
2.015658e+01 
2.007825e+01 
1.564881e+01 
2.137235e+01 
1.321379e+01 
1.684947e+01 
1.706358e+01 
2.110197e+01 
1.327159e+01 
1.527502e+01 
1.514622e+01 
1.314484e+01 
2.036785e+01 
2.104601e+01 
4.712714e+00 
1.551302e+01 
1.113569e+01 
2.242086e+01 
2.303201e+01 
9.605283e+00 
3.801279e+01 
6.520761e+00 
3.236221e+01 
2.772543e+00 
1.711073e+01 
2.203905e+01 
1.448044e-01 
2.744294e+01 
7.947373e-01 
2.522206e+01 
4.084141e+00 
1.805324e+01 
1.088958e+01 
1.088958e+01 
1.805324e+01 
4.084141e+00 
2.522206e+01 
7.947373e-01 
2.744294e+01 
1.448044e-01 
2.203905e+01 
1.711073e+01 
2.772543e+00 
3.236221e+01 
6.520761e+00 
3.801279e+01 
9.605283e+00 
2.303201e+01 
2.242086e+01 
1.113569e+01 
1.551302e+01 
4.712714e+00 
2.104601e+01 
2.036785e+01 
1.314484e+01 
1.514622e+01 
1.527502e+01 
1.327159e+01 
2.110197e+01 
1.706358e+01 
1.684947e+01 
1.321379e+01 
2.137235e+01 
1.564881e+01 
2.007825e+01 
2.015658e+01 
1.138743e+01 
2.336492e+01 
2.295391e+01 
1.274872e+01 
2.088117e+01 
2.331774e+01 
1.798871e+01 
1.742758e+01 
2.440472e+01 
2.286487e+01 
1.148680e+01 
3.086916e+01 
1.711974e+01 
2.082965e+01 
3.661159e+01 
7.936610e+00 
4.517227e+01 
8.724446e+00 
4.344346e+01 
1.887438e+00 
2.372096e+01 
2.964821e+01 
1.672261e+01 
2.809076e+01 
1.575076e+01 
2.778600e+01 
1.928635e+01 
2.427998e+01 
2.274934e+01 
2.158594e+01 
2.462454e+01 
1.878263e+01 
2.753148e+01 
2.006170e+01 
2.192955e+01 
2.178290e+01 
1.981802e+01 
3.822441e+01 
4.098907e+00 
3.784157e+01 
1.901545e+01 
2.912699e+01 
1.988008e+01 
8.020626e+00 
3.738536e+01 
8.991421e+00 
3.184859e+01 
1.858518e+01 
1.628623e+01 
2.498334e+01 
2.041677e+01 
1.761943e+01 
2.042199e+01 
2.424985e+01 
1.514336e+01 
1.549018e+01 
2.797053e+01 
1.503105e+01 
1.402329e+01 
2.325027e+01 
1.446139e+01 
2.174754e+01 
1.571691e+01 
1.466377e+01 
1.708829e+01 
2.068993e+01 
1.676858e+01 
1.173408e+01 
1.797216e+01 
1.351410e+01 
1.599274e+01 
2.177945e+01 
1.091430e+01 
1.009168e+01 
1.788266e+01 
1.166942e+01 
3.057529e+01 
4.102315e+00 
1.491475e+01 
2.272589e+01 
1.854322e+00 
3.741122e+01 
1.783798e+01 
4.418896e+01 
1.229436e+01 
3.065378e+01 
1.232414e+00 
2.222682e+01 
9.171576e+00 
1.292834e+01 
1.476064e+01 
