# vtk DataFile Version 2.0
fNorm
ASCII
DATASET UNSTRUCTURED_GRID

FIELD FieldData 1
TIME 1 1 double
0.85000000
POINTS 249 float
7.581273648033812e-01 5.000000000000000e-01 0.000000000000000e+00
7.580635059008313e-01 5.071311276917883e-01 0.000000000000000e+00
7.578398478138925e-01 5.142946341705777e-01 0.000000000000000e+00
7.574687081494292e-01 5.214436390087273e-01 0.000000000000000e+00
7.570099860129104e-01 5.284709360506145e-01 0.000000000000000e+00
7.562955829566271e-01 5.357511616471312e-01 0.000000000000000e+00
7.556382403341226e-01 5.425456895124660e-01 0.000000000000000e+00
7.545183472344914e-01 5.500093156100696e-01 0.000000000000000e+00
7.537865250332915e-01 5.563212779727816e-01 0.000000000000000e+00
7.522919067102093e-01 5.639254859187607e-01 0.000000000000000e+00
7.513044069910008e-01 5.702026340375028e-01 0.000000000000000e+00
7.495420324000797e-01 5.775831554679507e-01 0.000000000000000e+00
7.479657478276980e-01 5.843836538757126e-01 0.000000000000000e+00
7.462192935906656e-01 5.911921263317356e-01 0.000000000000000e+00
7.441013420926036e-01 5.983477938093114e-01 0.000000000000000e+00
7.424021834422840e-01 6.044816920258471e-01 0.000000000000000e+00
7.399277762831841e-01 6.116798398128960e-01 0.000000000000000e+00
7.376950663556797e-01 6.181004554037834e-01 0.000000000000000e+00
7.351956393151824e-01 6.247500552018936e-01 0.000000000000000e+00
7.324697025260465e-01 6.315050511487491e-01 0.000000000000000e+00
7.298241782829611e-01 6.377519340375128e-01 0.000000000000000e+00
7.267468966043281e-01 6.443972106532766e-01 0.000000000000000e+00
7.237189725908515e-01 6.507069286904211e-01 0.000000000000000e+00
7.205921818047233e-01 6.569271152721655e-01 0.000000000000000e+00
7.171479821976321e-01 6.632418459321995e-01 0.000000000000000e+00
7.136869574816306e-01 6.693117732034557e-01 0.000000000000000e+00
7.100514428943329e-01 6.753610020055441e-01 0.000000000000000e+00
7.062426588957414e-01 6.813448652689361e-01 0.000000000000000e+00
7.023325978419844e-01 6.872096710170665e-01 0.000000000000000e+00
6.983169555678261e-01 6.929211874263040e-01 0.000000000000000e+00
6.940993034465327e-01 6.985713388159888e-01 0.000000000000000e+00
6.897388529322499e-01 7.041362916621419e-01 0.000000000000000e+00
6.853626559033120e-01 7.095117153706737e-01 0.000000000000000e+00
6.807111914335111e-01 7.148123787297732e-01 0.000000000000000e+00
6.759457580328876e-01 7.200300029284259e-01 0.000000000000000e+00
6.711552915272553e-01 7.250520237535303e-01 0.000000000000000e+00
6.661360416889314e-01 7.299530107615601e-01 0.000000000000000e+00
6.609721475092065e-01 7.347652056213666e-01 0.000000000000000e+00
6.558364115345193e-01 7.393209166254677e-01 0.000000000000000e+00
6.504090548839474e-01 7.438672996351897e-01 0.000000000000000e+00
6.448734230875058e-01 7.482412825617890e-01 0.000000000000000e+00
6.394208318653228e-01 7.523103967703206e-01 0.000000000000000e+00
6.335683495135427e-01 7.564409881456994e-01 0.000000000000000e+00
6.278182501412355e-01 7.602485491458131e-01 0.000000000000000e+00
6.220031255216319e-01 7.638805275806770e-01 0.000000000000000e+00
6.157242121524860e-01 7.675949808932506e-01 0.000000000000000e+00
6.099372664593176e-01 7.706668046687629e-01 0.000000000000000e+00
6.034967640833783e-01 7.740887708956172e-01 0.000000000000000e+00
5.974223015334615e-01 7.768098874131000e-01 0.000000000000000e+00
5.910475372867604e-01 7.796180381460837e-01 0.000000000000000e+00
5.843663107653820e-01 7.824242039120201e-01 0.000000000000000e+00
5.780353181207486e-01 7.847246867068817e-01 0.000000000000000e+00
5.710941350985463e-01 7.871338024658761e-01 0.000000000000000e+00
5.649407642846921e-01 7.887875920621545e-01 0.000000000000000e+00
5.578991183725069e-01 7.908305299359140e-01 0.000000000000000e+00
5.513383693019476e-01 7.923484216003041e-01 0.000000000000000e+00
5.444317158406956e-01 7.938138488439070e-01 0.000000000000000e+00
5.375015490169631e-01 7.950484149494222e-01 0.000000000000000e+00
5.306363316837551e-01 7.960230295146351e-01 0.000000000000000e+00
5.236118981374172e-01 7.968332931696223e-01 0.000000000000000e+00
5.167623411535539e-01 7.973826407425613e-01 0.000000000000000e+00
5.096969808908376e-01 7.977883006986423e-01 0.000000000000000e+00
5.027692879690148e-01 7.979438687254757e-01 0.000000000000000e+00
4.957077311426060e-01 7.978897254006204e-01 0.000000000000000e+00
4.887705626520883e-01 7.976239755913963e-01 0.000000000000000e+00
4.817299590336912e-01 7.971174130900297e-01 0.000000000000000e+00
4.749029279584888e-01 7.964708749735326e-01 0.000000000000000e+00
4.678540839036660e-01 7.955376500621111e-01 0.000000000000000e+00
4.611304059670273e-01 7.945160458013665e-01 0.000000000000000e+00
4.540467663817299e-01 7.930942274202997e-01 0.000000000000000e+00
4.474287347311088e-01 7.916494361980929e-01 0.000000000000000e+00
4.405324858805301e-01 7.898353843645537e-01 0.000000000000000e+00
4.338020185135100e-01 7.878668710528562e-01 0.000000000000000e+00
4.274161464824132e-01 7.860113013398341e-01 0.000000000000000e+00
4.205896130510696e-01 7.835036228062763e-01 0.000000000000000e+00
4.143894437298892e-01 7.812251040721609e-01 0.000000000000000e+00
4.075593085302759e-01 7.781176286053229e-01 0.000000000000000e+00
4.016326948087195e-01 7.756500226508436e-01 0.000000000000000e+00
3.951502931650439e-01 7.724169145584989e-01 0.000000000000000e+00
3.890592996344330e-01 7.691462431297329e-01 0.000000000000000e+00
3.830562261830457e-01 7.658123763052664e-01 0.000000000000000e+00
3.768994061116147e-01 7.620311489629557e-01 0.000000000000000e+00
3.712783263552646e-01 7.584672974322773e-01 0.000000000000000e+00
3.653938240122069e-01 7.544280518848473e-01 0.000000000000000e+00
3.597290236576591e-01 7.503190239282359e-01 0.000000000000000e+00
3.542808206065596e-01 7.461349829789172e-01 0.000000000000000e+00
3.487272077452401e-01 7.416226923782405e-01 0.000000000000000e+00
3.434798891582330e-01 7.370908527851675e-01 0.000000000000000e+00
3.383554124430240e-01 7.324391857610603e-01 0.000000000000000e+00
3.332385593177055e-01 7.275722641451140e-01 0.000000000000000e+00
3.283331813408835e-01 7.226088149981031e-01 0.000000000000000e+00
3.235952527579045e-01 7.175118713392509e-01 0.000000000000000e+00
3.188154067508185e-01 7.121943481955623e-01 0.000000000000000e+00
3.142960785872201e-01 7.068833687578591e-01 0.000000000000000e+00
3.099783864476074e-01 7.014428560662456e-01 0.000000000000000e+00
3.056610085123861e-01 6.958002392291044e-01 0.000000000000000e+00
3.015531463577826e-01 6.901417379253992e-01 0.000000000000000e+00
2.975886897242672e-01 6.843792136208487e-01 0.000000000000000e+00
2.937173412877812e-01 6.784305448659794e-01 0.000000000000000e+00
2.899918761716518e-01 6.724028564696711e-01 0.000000000000000e+00
2.864822660599934e-01 6.663819161724275e-01 0.000000000000000e+00
2.829965556867200e-01 6.601697794854515e-01 0.000000000000000e+00
2.796672918419896e-01 6.538600065863898e-01 0.000000000000000e+00
2.766922808772694e-01 6.477226216501599e-01 0.000000000000000e+00
2.735967209222308e-01 6.411480204658877e-01 0.000000000000000e+00
2.706863702098376e-01 6.346431383655101e-01 0.000000000000000e+00
2.680862855399755e-01 6.283167750341121e-01 0.000000000000000e+00
2.653714107993195e-01 6.214222364401609e-01 0.000000000000000e+00
2.631671305484883e-01 6.151653370968068e-01 0.000000000000000e+00
2.607024721526246e-01 6.081875679485049e-01 0.000000000000000e+00
2.585410800400575e-01 6.013643044112402e-01 0.000000000000000e+00
2.567661787795091e-01 5.949208822578066e-01 0.000000000000000e+00
2.545884669622270e-01 5.875335632099566e-01 0.000000000000000e+00
2.533061907212552e-01 5.814302879330151e-01 0.000000000000000e+00
2.514541833365162e-01 5.739784974748605e-01 0.000000000000000e+00
2.502712764824659e-01 5.675050586390871e-01 0.000000000000000e+00
2.488909702744020e-01 5.602900714769896e-01 0.000000000000000e+00
2.477416048478265e-01 5.532000771048544e-01 0.000000000000000e+00
2.468126537374611e-01 5.463616731726429e-01 0.000000000000000e+00
2.458093487537603e-01 5.389150210866830e-01 0.000000000000000e+00
2.452285640580595e-01 5.321935138026801e-01 0.000000000000000e+00
2.445805153141212e-01 5.248217652042656e-01 0.000000000000000e+00
2.442298419435585e-01 5.179384049931246e-01 0.000000000000000e+00
2.438954060674902e-01 5.106618587230637e-01 0.000000000000000e+00
2.437677509141156e-01 5.035906245600481e-01 0.000000000000000e+00
2.437677509141148e-01 4.964093754402925e-01 0.000000000000000e+00
2.438954060674873e-01 4.893381412772618e-01 0.000000000000000e+00
2.442298419435566e-01 4.820615950072068e-01 0.000000000000000e+00
2.445805153141192e-01 4.751782347960705e-01 0.000000000000000e+00
2.452285640580512e-01 4.678064861976543e-01 0.000000000000000e+00
2.458093487537545e-01 4.610849789136488e-01 0.000000000000000e+00
2.468126537374562e-01 4.536383268276860e-01 0.000000000000000e+00
2.477416048478254e-01 4.467999228954649e-01 0.000000000000000e+00
2.488909702743892e-01 4.397099285233452e-01 0.000000000000000e+00
2.502712764824563e-01 4.324949413612388e-01 0.000000000000000e+00
2.514541833364936e-01 4.260215025254890e-01 0.000000000000000e+00
2.533061907212392e-01 4.185697120673229e-01 0.000000000000000e+00
2.545884669622067e-01 4.124664367903882e-01 0.000000000000000e+00
2.567661787794840e-01 4.050791177425388e-01 0.000000000000000e+00
2.585410800400515e-01 3.986356955890786e-01 0.000000000000000e+00
2.607024721526027e-01 3.918124320518305e-01 0.000000000000000e+00
2.631671305484708e-01 3.848346629035225e-01 0.000000000000000e+00
2.653714107992978e-01 3.785777635601772e-01 0.000000000000000e+00
2.680862855399492e-01 3.716832249662240e-01 0.000000000000000e+00
2.706863702098167e-01 3.653568616348154e-01 0.000000000000000e+00
2.735967209222057e-01 3.588519795344472e-01 0.000000000000000e+00
2.766922808772442e-01 3.522773783501659e-01 0.000000000000000e+00
2.796672918419665e-01 3.461399934139351e-01 0.000000000000000e+00
2.829965556866881e-01 3.398302205148768e-01 0.000000000000000e+00
2.864822660599661e-01 3.336180838278990e-01 0.000000000000000e+00
2.899918761716200e-01 3.275971435306527e-01 0.000000000000000e+00
2.937173412877460e-01 3.215694551343455e-01 0.000000000000000e+00
2.975886897242357e-01 3.156207863794702e-01 0.000000000000000e+00
3.015531463577465e-01 3.098582620749218e-01 0.000000000000000e+00
3.056610085123477e-01 3.041997607712119e-01 0.000000000000000e+00
3.099783864475649e-01 2.985571439340745e-01 0.000000000000000e+00
3.142960785871822e-01 2.931166312424545e-01 0.000000000000000e+00
3.188154067507734e-01 2.878056518047550e-01 0.000000000000000e+00
3.235952527578582e-01 2.824881286610579e-01 0.000000000000000e+00
3.283331813408387e-01 2.773911850022097e-01 0.000000000000000e+00
3.332385593176578e-01 2.724277358551900e-01 0.000000000000000e+00
3.383554124429776e-01 2.675608142392431e-01 0.000000000000000e+00
3.434798891581836e-01 2.629091472151378e-01 0.000000000000000e+00
3.487272077451892e-01 2.583773076220611e-01 0.000000000000000e+00
3.542808206064971e-01 2.538650170213819e-01 0.000000000000000e+00
3.597290236576151e-01 2.496809760720623e-01 0.000000000000000e+00
3.653938240121407e-01 2.455719481154479e-01 0.000000000000000e+00
3.712783263552132e-01 2.415327025680061e-01 0.000000000000000e+00
3.768994061115494e-01 2.379688510373424e-01 0.000000000000000e+00
3.830562261829832e-01 2.341876236950190e-01 0.000000000000000e+00
3.890592996343716e-01 2.308537568705538e-01 0.000000000000000e+00
3.951502931649775e-01 2.275830854417783e-01 0.000000000000000e+00
4.016326948086599e-01 2.243499773494309e-01 0.000000000000000e+00
4.075593085302043e-01 2.218823713949629e-01 0.000000000000000e+00
4.143894437298133e-01 2.187748959281211e-01 0.000000000000000e+00
4.205896130510003e-01 2.164963771939883e-01 0.000000000000000e+00
4.274161464823378e-01 2.139886986604408e-01 0.000000000000000e+00
4.338020185134456e-01 2.121331289474033e-01 0.000000000000000e+00
4.405324858804650e-01 2.101646156356930e-01 0.000000000000000e+00
4.474287347310357e-01 2.083505638021781e-01 0.000000000000000e+00
4.540467663816547e-01 2.069057725799510e-01 0.000000000000000e+00
4.611304059669598e-01 2.054839541988770e-01 0.000000000000000e+00
4.678540839035827e-01 2.044623499381370e-01 0.000000000000000e+00
4.749029279584177e-01 2.035291250266992e-01 0.000000000000000e+00
4.817299590336094e-01 2.028825869102132e-01 0.000000000000000e+00
4.887705626520100e-01 2.023760244088342e-01 0.000000000000000e+00
4.957077311425215e-01 2.021102745996086e-01 0.000000000000000e+00
5.027692879689339e-01 2.020561312747455e-01 0.000000000000000e+00
5.096969808907512e-01 2.022116993015804e-01 0.000000000000000e+00
5.167623411534688e-01 2.026173592576598e-01 0.000000000000000e+00
5.236118981373384e-01 2.031667068305906e-01 0.000000000000000e+00
5.306363316836645e-01 2.039769704855761e-01 0.000000000000000e+00
5.375015490168877e-01 2.049515850507877e-01 0.000000000000000e+00
5.444317158406089e-01 2.061861511562952e-01 0.000000000000000e+00
5.513383693018642e-01 2.076515783998990e-01 0.000000000000000e+00
5.578991183724243e-01 2.091694700642820e-01 0.000000000000000e+00
5.649407642846070e-01 2.112124079380361e-01 0.000000000000000e+00
5.710941350984688e-01 2.128661975343115e-01 0.000000000000000e+00
5.780353181206732e-01 2.152753132933150e-01 0.000000000000000e+00
5.843663107653081e-01 2.175757960881494e-01 0.000000000000000e+00
5.910475372866861e-01 2.203819618541091e-01 0.000000000000000e+00
5.974223015333874e-01 2.231901125870714e-01 0.000000000000000e+00
6.034967640833080e-01 2.259112291045625e-01 0.000000000000000e+00
6.099372664592461e-01 2.293331953314151e-01 0.000000000000000e+00
6.157242121524255e-01 2.324050191069256e-01 0.000000000000000e+00
6.220031255215641e-01 2.361194724194976e-01 0.000000000000000e+00
6.278182501411750e-01 2.397514508543627e-01 0.000000000000000e+00
6.335683495134790e-01 2.435590118544710e-01 0.000000000000000e+00
6.394208318652634e-01 2.476896032298523e-01 0.000000000000000e+00
6.448734230874438e-01 2.517587174383809e-01 0.000000000000000e+00
6.504090548838893e-01 2.561327003649806e-01 0.000000000000000e+00
6.558364115344629e-01 2.606790833746988e-01 0.000000000000000e+00
6.609721475091466e-01 2.652347943788022e-01 0.000000000000000e+00
6.661360416888771e-01 2.700469892386039e-01 0.000000000000000e+00
6.711552915272012e-01 2.749479762466316e-01 0.000000000000000e+00
6.759457580328330e-01 2.799699970717400e-01 0.000000000000000e+00
6.807111914334578e-01 2.851876212703840e-01 0.000000000000000e+00
6.853626559032622e-01 2.904882846294911e-01 0.000000000000000e+00
6.897388529321965e-01 2.958637083380155e-01 0.000000000000000e+00
6.940993034464858e-01 3.014286611841692e-01 0.000000000000000e+00
6.983169555677715e-01 3.070788125738554e-01 0.000000000000000e+00
7.023325978419401e-01 3.127903289830928e-01 0.000000000000000e+00
7.062426588956929e-01 3.186551347312202e-01 0.000000000000000e+00
7.100514428942840e-01 3.246389979946095e-01 0.000000000000000e+00
7.136869574815824e-01 3.306882267967002e-01 0.000000000000000e+00
7.171479821975900e-01 3.367581540679501e-01 0.000000000000000e+00
7.205921818046843e-01 3.430728847279932e-01 0.000000000000000e+00
7.237189725908028e-01 3.492930713097241e-01 0.000000000000000e+00
7.267468966042918e-01 3.556027893468753e-01 0.000000000000000e+00
7.298241782829238e-01 3.622480659626401e-01 0.000000000000000e+00
7.324697025260092e-01 3.684949488513983e-01 0.000000000000000e+00
7.351956393151468e-01 3.752499447982526e-01 0.000000000000000e+00
7.376950663556466e-01 3.818995445963635e-01 0.000000000000000e+00
7.399277762831535e-01 3.883201601872543e-01 0.000000000000000e+00
7.424021834422520e-01 3.955183079742980e-01 0.000000000000000e+00
7.441013420925756e-01 4.016522061908444e-01 0.000000000000000e+00
7.462192935906480e-01 4.088078736684158e-01 0.000000000000000e+00
7.479657478276687e-01 4.156163461244363e-01 0.000000000000000e+00
7.495420324000579e-01 4.224168445322001e-01 0.000000000000000e+00
7.513044069909788e-01 4.297973659626392e-01 0.000000000000000e+00
7.522919067101970e-01 4.360745140814032e-01 0.000000000000000e+00
7.537865250332813e-01 4.436787220273775e-01 0.000000000000000e+00
7.545183472344862e-01 4.499906843900943e-01 0.000000000000000e+00
7.556382403341168e-01 4.574543104877078e-01 0.000000000000000e+00
7.562955829566177e-01 4.642488383530139e-01 0.000000000000000e+00
7.570099860129083e-01 4.715290639495228e-01 0.000000000000000e+00
7.574687081494246e-01 4.785563609914285e-01 0.000000000000000e+00
7.578398478138891e-01 4.857053658296163e-01 0.000000000000000e+00
7.580635059008307e-01 4.928688723084445e-01 0.000000000000000e+00

POINT_DATA   249
SCALARS fNorm double
LOOKUP_TABLE default

1.277237e+01 
1.591209e+01 
1.479626e+01 
9.454907e+00 
2.341631e+01 
9.682352e-01 
3.762449e+01 
2.311909e+01 
5.490832e+01 
2.656207e+01 
5.418496e+01 
4.822296e+00 
1.634315e+01 
2.654530e+01 
1.204549e+01 
4.219051e+01 
2.557099e+00 
1.728331e+01 
1.727535e+01 
1.196893e+01 
2.330140e+01 
9.839617e+00 
1.282035e+01 
2.372252e+01 
1.339101e+01 
1.610465e+01 
1.817389e+01 
1.498394e+01 
1.737116e+01 
1.995900e+01 
1.651987e+01 
1.305808e+01 
2.584715e+01 
1.403126e+01 
1.517569e+01 
2.478018e+01 
1.640947e+01 
1.707850e+01 
1.974264e+01 
2.020593e+01 
1.911386e+01 
1.850125e+01 
2.087833e+01 
1.828395e+01 
1.702932e+01 
3.189156e+01 
2.684671e-01 
4.678405e+01 
4.236067e+00 
1.228994e+01 
3.427345e+01 
1.016929e+01 
4.879457e+01 
1.350495e+01 
3.861160e+01 
1.260171e+01 
2.310942e+01 
2.464121e+01 
1.832988e+01 
2.426046e+01 
1.581245e+01 
2.443705e+01 
2.106744e+01 
2.143885e+01 
2.347315e+01 
1.571975e+01 
2.597505e+01 
1.332003e+01 
3.313580e+01 
1.178342e+01 
2.937279e+01 
1.931613e+01 
1.195038e+00 
4.810355e+01 
9.049118e-02 
5.253920e+01 
2.244655e+01 
4.635817e+01 
2.131908e+01 
9.759234e+00 
3.084524e+01 
9.905373e+00 
2.513816e+01 
1.836726e+01 
1.896520e+01 
1.921444e+01 
2.116367e+01 
1.711457e+01 
1.628600e+01 
2.170076e+01 
2.132665e+01 
1.178686e+01 
1.917662e+01 
2.380185e+01 
1.244635e+01 
1.774806e+01 
1.771532e+01 
1.808974e+01 
1.655050e+01 
1.815822e+01 
1.156701e+01 
1.840932e+01 
2.381286e+01 
7.961918e+00 
1.392329e+01 
2.146527e+01 
1.054129e+01 
2.548405e+01 
5.721729e-01 
2.384461e+01 
2.624788e+01 
1.279451e+01 
5.483758e+01 
2.512960e+01 
4.454415e+01 
5.753303e+00 
2.056468e+01 
1.808655e+01 
7.848114e-01 
3.393470e+01 
1.052322e+00 
2.625181e+01 
3.521858e+00 
2.000696e+01 
1.286393e+01 
1.286393e+01 
2.000696e+01 
3.521858e+00 
2.625181e+01 
1.052322e+00 
3.393470e+01 
7.848114e-01 
1.808655e+01 
2.056468e+01 
5.753303e+00 
4.454415e+01 
2.512960e+01 
5.483758e+01 
1.279451e+01 
2.624788e+01 
2.384461e+01 
5.721729e-01 
2.548405e+01 
1.054129e+01 
2.146527e+01 
1.392329e+01 
7.961918e+00 
2.381286e+01 
1.840932e+01 
1.156701e+01 
1.815822e+01 
1.655050e+01 
1.808974e+01 
1.771532e+01 
1.774806e+01 
1.244635e+01 
2.380185e+01 
1.917662e+01 
1.178686e+01 
2.132665e+01 
2.170076e+01 
1.628600e+01 
1.711457e+01 
2.116367e+01 
1.921444e+01 
1.896520e+01 
1.836726e+01 
2.513816e+01 
9.905373e+00 
3.084524e+01 
9.759234e+00 
2.131908e+01 
4.635817e+01 
2.244655e+01 
5.253920e+01 
9.049119e-02 
4.810355e+01 
1.195038e+00 
1.931613e+01 
2.937279e+01 
1.178342e+01 
3.313580e+01 
1.332003e+01 
2.597505e+01 
1.571975e+01 
2.347315e+01 
2.143885e+01 
2.106744e+01 
2.443705e+01 
1.581245e+01 
2.426046e+01 
1.832988e+01 
2.464121e+01 
2.310942e+01 
1.260171e+01 
3.861160e+01 
1.350495e+01 
4.879457e+01 
1.016929e+01 
3.427345e+01 
1.228994e+01 
4.236067e+00 
4.678405e+01 
2.684671e-01 
3.189156e+01 
1.702932e+01 
1.828395e+01 
2.087833e+01 
1.850125e+01 
1.911386e+01 
2.020593e+01 
1.974264e+01 
1.707850e+01 
1.640947e+01 
2.478018e+01 
1.517569e+01 
1.403126e+01 
2.584715e+01 
1.305808e+01 
1.651987e+01 
1.995900e+01 
1.737116e+01 
1.498394e+01 
1.817389e+01 
1.610465e+01 
1.339101e+01 
2.372252e+01 
1.282035e+01 
9.839617e+00 
2.330140e+01 
1.196893e+01 
1.727535e+01 
1.728331e+01 
2.557099e+00 
4.219051e+01 
1.204549e+01 
2.654530e+01 
1.634315e+01 
4.822296e+00 
5.418496e+01 
2.656207e+01 
5.490832e+01 
2.311909e+01 
3.762449e+01 
9.682352e-01 
2.341631e+01 
9.454907e+00 
1.479626e+01 
1.591209e+01 
