# vtk DataFile Version 2.0
fNorm
ASCII
DATASET UNSTRUCTURED_GRID

FIELD FieldData 1
TIME 1 1 double
1.26000000
POINTS 249 float
7.832159572024243e-01 5.000000000000200e-01 0.000000000000000e+00
7.831218773995799e-01 5.069131938034472e-01 0.000000000000000e+00
7.828437247857728e-01 5.138649607312141e-01 0.000000000000000e+00
7.823588872194701e-01 5.208084428404286e-01 0.000000000000000e+00
7.817446737010250e-01 5.276113999227123e-01 0.000000000000000e+00
7.808392982833918e-01 5.346093839144945e-01 0.000000000000000e+00
7.799535123868313e-01 5.411763329560633e-01 0.000000000000000e+00
7.785574699070473e-01 5.483235361021858e-01 0.000000000000000e+00
7.775609647977413e-01 5.544767279077398e-01 0.000000000000000e+00
7.755835559840768e-01 5.617250489467894e-01 0.000000000000000e+00
7.742263804540459e-01 5.679405603628682e-01 0.000000000000000e+00
7.720249474469921e-01 5.748131976396893e-01 0.000000000000000e+00
7.699735591834278e-01 5.813512951425300e-01 0.000000000000000e+00
7.678496660633685e-01 5.876989946814948e-01 0.000000000000000e+00
7.650446903898247e-01 5.944840576238645e-01 0.000000000000000e+00
7.630058304640129e-01 6.000904828059677e-01 0.000000000000000e+00
7.598339461434838e-01 6.069338724024449e-01 0.000000000000000e+00
7.570659371839642e-01 6.128439618122338e-01 0.000000000000000e+00
7.539086787037380e-01 6.190326844206125e-01 0.000000000000000e+00
7.504534206450407e-01 6.252884342410000e-01 0.000000000000000e+00
7.473563582554068e-01 6.308105908836076e-01 0.000000000000000e+00
7.435060112058265e-01 6.370293245237419e-01 0.000000000000000e+00
7.398527192812502e-01 6.426365341977341e-01 0.000000000000000e+00
7.359820663352209e-01 6.482942335876795e-01 0.000000000000000e+00
7.318010245677585e-01 6.540304707538643e-01 0.000000000000000e+00
7.277333825661784e-01 6.593331418547201e-01 0.000000000000000e+00
7.233357190218490e-01 6.647617644411210e-01 0.000000000000000e+00
7.188592217334685e-01 6.700190308343833e-01 0.000000000000000e+00
7.142921313732207e-01 6.751150227178178e-01 0.000000000000000e+00
7.095665502652743e-01 6.801170662611431e-01 0.000000000000000e+00
7.046630384057987e-01 6.850187181256728e-01 0.000000000000000e+00
6.996401358714900e-01 6.898376936199277e-01 0.000000000000000e+00
6.945817068426561e-01 6.944621331778301e-01 0.000000000000000e+00
6.893641288083237e-01 6.989140309470261e-01 0.000000000000000e+00
6.839651624543395e-01 7.033435599081362e-01 0.000000000000000e+00
6.785607859006367e-01 7.075702925429869e-01 0.000000000000000e+00
6.730820102047806e-01 7.116034268833817e-01 0.000000000000000e+00
6.672395446570056e-01 7.157107115952565e-01 0.000000000000000e+00
6.615848706622817e-01 7.194771659414370e-01 0.000000000000000e+00
6.557765757801329e-01 7.231289290846508e-01 0.000000000000000e+00
6.496192292649745e-01 7.268011490645403e-01 0.000000000000000e+00
6.439700420976715e-01 7.299608833134772e-01 0.000000000000000e+00
6.375843715137804e-01 7.333855681771939e-01 0.000000000000000e+00
6.314435499007048e-01 7.364862871666360e-01 0.000000000000000e+00
6.254237436083269e-01 7.393231178407167e-01 0.000000000000000e+00
6.185783317597522e-01 7.423791253689183e-01 0.000000000000000e+00
6.130493357453272e-01 7.444655369278484e-01 0.000000000000000e+00
6.060778293431518e-01 7.474412219657374e-01 0.000000000000000e+00
5.999624045358734e-01 7.494385906093135e-01 0.000000000000000e+00
5.933826472295455e-01 7.516196490422921e-01 0.000000000000000e+00
5.863437043768520e-01 7.539550735928697e-01 0.000000000000000e+00
5.803285145963876e-01 7.554918175214593e-01 0.000000000000000e+00
5.729684842639254e-01 7.575998426351865e-01 0.000000000000000e+00
5.672322678295999e-01 7.585941272978620e-01 0.000000000000000e+00
5.599333891026548e-01 7.602468289935015e-01 0.000000000000000e+00
5.533977064136538e-01 7.613928387553484e-01 0.000000000000000e+00
5.464578692305072e-01 7.625263842119064e-01 0.000000000000000e+00
5.394345888521079e-01 7.635355800636029e-01 0.000000000000000e+00
5.326633921809572e-01 7.642664843981466e-01 0.000000000000000e+00
5.255706870796145e-01 7.649136272244530e-01 0.000000000000000e+00
5.188261960321850e-01 7.653194653371554e-01 0.000000000000000e+00
5.117329398451554e-01 7.656574604091628e-01 0.000000000000000e+00
5.048607071907850e-01 7.657871467951879e-01 0.000000000000000e+00
4.978188020444143e-01 7.657533676744143e-01 0.000000000000000e+00
4.909499475792800e-01 7.655713806711207e-01 0.000000000000000e+00
4.838798622324856e-01 7.651948941445723e-01 0.000000000000000e+00
4.771443966637914e-01 7.647403365034934e-01 0.000000000000000e+00
4.699651009999652e-01 7.639936756972002e-01 0.000000000000000e+00
4.633812702799072e-01 7.632497176302541e-01 0.000000000000000e+00
4.561752882599437e-01 7.621617687084175e-01 0.000000000000000e+00
4.496313212302265e-01 7.611341409570886e-01 0.000000000000000e+00
4.425949008975032e-01 7.596918010221523e-01 0.000000000000000e+00
4.357321993948789e-01 7.581109048362199e-01 0.000000000000000e+00
4.295017120832209e-01 7.569013948925254e-01 0.000000000000000e+00
4.222790525949093e-01 7.547783904579616e-01 0.000000000000000e+00
4.162060965250556e-01 7.532547142524194e-01 0.000000000000000e+00
4.090987888972307e-01 7.506601298917543e-01 0.000000000000000e+00
4.028800095589551e-01 7.488103774057244e-01 0.000000000000000e+00
3.962753223260079e-01 7.462950158759278e-01 0.000000000000000e+00
3.896791052828119e-01 7.434695226561298e-01 0.000000000000000e+00
3.837615420667392e-01 7.411080741210926e-01 0.000000000000000e+00
3.770293498434971e-01 7.380470136735041e-01 0.000000000000000e+00
3.711873976264790e-01 7.352240254149908e-01 0.000000000000000e+00
3.648994124906837e-01 7.319136993851768e-01 0.000000000000000e+00
3.586118130869889e-01 7.284405918655137e-01 0.000000000000000e+00
3.530013463605244e-01 7.252567577063953e-01 0.000000000000000e+00
3.468789949708805e-01 7.214873113566256e-01 0.000000000000000e+00
3.411184032823682e-01 7.177520589344739e-01 0.000000000000000e+00
3.355435746211583e-01 7.139355978666743e-01 0.000000000000000e+00
3.297547049638200e-01 7.097879603570945e-01 0.000000000000000e+00
3.242854931382999e-01 7.056368003119275e-01 0.000000000000000e+00
3.189827634580905e-01 7.013747280717811e-01 0.000000000000000e+00
3.135630445165901e-01 6.968464021813271e-01 0.000000000000000e+00
3.083962726210539e-01 6.922737657787645e-01 0.000000000000000e+00
3.034391716761634e-01 6.876413781641697e-01 0.000000000000000e+00
2.984446893542994e-01 6.827726122028717e-01 0.000000000000000e+00
2.936499520040042e-01 6.777948474663902e-01 0.000000000000000e+00
2.889851127609696e-01 6.727601873889499e-01 0.000000000000000e+00
2.844749341340597e-01 6.676236747251368e-01 0.000000000000000e+00
2.799664716247764e-01 6.621756009628944e-01 0.000000000000000e+00
2.757786739641757e-01 6.568340732127504e-01 0.000000000000000e+00
2.716814367624263e-01 6.513830684458599e-01 0.000000000000000e+00
2.675204354827306e-01 6.455483245726241e-01 0.000000000000000e+00
2.639596683846447e-01 6.400976436348023e-01 0.000000000000000e+00
2.601436761302711e-01 6.340768908390668e-01 0.000000000000000e+00
2.565270742994940e-01 6.281000116067110e-01 0.000000000000000e+00
2.533427707158146e-01 6.223931100888820e-01 0.000000000000000e+00
2.498612570079503e-01 6.158055729892693e-01 0.000000000000000e+00
2.472356468063395e-01 6.101975246663875e-01 0.000000000000000e+00
2.440852121665646e-01 6.037252282797069e-01 0.000000000000000e+00
2.414444427760962e-01 5.974040416022982e-01 0.000000000000000e+00
2.390527539187078e-01 5.911332709517118e-01 0.000000000000000e+00
2.362424891849751e-01 5.842515656895289e-01 0.000000000000000e+00
2.346735859432616e-01 5.783884277045281e-01 0.000000000000000e+00
2.321987927892281e-01 5.712568575286874e-01 0.000000000000000e+00
2.307008099782638e-01 5.650544836902772e-01 0.000000000000000e+00
2.289312520126914e-01 5.581792262778875e-01 0.000000000000000e+00
2.274667404569877e-01 5.514070996684923e-01 0.000000000000000e+00
2.262245314540618e-01 5.448359474022678e-01 0.000000000000000e+00
2.249430936291752e-01 5.376309191833595e-01 0.000000000000000e+00
2.241519700464529e-01 5.311857705719543e-01 0.000000000000000e+00
2.233257657261176e-01 5.239987145412391e-01 0.000000000000000e+00
2.228348688984893e-01 5.173772132068744e-01 0.000000000000000e+00
2.224165636436020e-01 5.103341171559161e-01 0.000000000000000e+00
2.222399857014430e-01 5.034929953364506e-01 0.000000000000000e+00
2.222399857014428e-01 4.965070046647443e-01 0.000000000000000e+00
2.224165636435988e-01 4.896658828452646e-01 0.000000000000000e+00
2.228348688984721e-01 4.826227867943241e-01 0.000000000000000e+00
2.233257657260980e-01 4.760012854599634e-01 0.000000000000000e+00
2.241519700464267e-01 4.688142294292284e-01 0.000000000000000e+00
2.249430936291656e-01 4.623690808177910e-01 0.000000000000000e+00
2.262245314540367e-01 4.551640525988970e-01 0.000000000000000e+00
2.274667404569604e-01 4.485929003326728e-01 0.000000000000000e+00
2.289312520126301e-01 4.418207737233092e-01 0.000000000000000e+00
2.307008099782104e-01 4.349455163109072e-01 0.000000000000000e+00
2.321987927891395e-01 4.287431424725371e-01 0.000000000000000e+00
2.346735859432096e-01 4.216115722966514e-01 0.000000000000000e+00
2.362424891849568e-01 4.157484343115748e-01 0.000000000000000e+00
2.390527539186351e-01 4.088667290494589e-01 0.000000000000000e+00
2.414444427760775e-01 4.025959583988095e-01 0.000000000000000e+00
2.440852121664935e-01 3.962747717214616e-01 0.000000000000000e+00
2.472356468062860e-01 3.898024753347337e-01 0.000000000000000e+00
2.498612570078741e-01 3.841944270118973e-01 0.000000000000000e+00
2.533427707157210e-01 3.776068899122781e-01 0.000000000000000e+00
2.565270742994374e-01 3.718999883943914e-01 0.000000000000000e+00
2.601436761301637e-01 3.659231091621042e-01 0.000000000000000e+00
2.639596683845689e-01 3.599023563663162e-01 0.000000000000000e+00
2.675204354826290e-01 3.544516754285114e-01 0.000000000000000e+00
2.716814367623078e-01 3.486169315552807e-01 0.000000000000000e+00
2.757786739640854e-01 3.431659267883530e-01 0.000000000000000e+00
2.799664716246455e-01 3.378243990382558e-01 0.000000000000000e+00
2.844749341339473e-01 3.323763252759808e-01 0.000000000000000e+00
2.889851127608440e-01 3.272398126121650e-01 0.000000000000000e+00
2.936499520038535e-01 3.222051525347548e-01 0.000000000000000e+00
2.984446893541621e-01 3.172273877982446e-01 0.000000000000000e+00
3.034391716760172e-01 3.123586218369637e-01 0.000000000000000e+00
3.083962726209135e-01 3.077262342223532e-01 0.000000000000000e+00
3.135630445164433e-01 3.031535978197827e-01 0.000000000000000e+00
3.189827634579372e-01 2.986252719293321e-01 0.000000000000000e+00
3.242854931381501e-01 2.943631996891851e-01 0.000000000000000e+00
3.297547049636652e-01 2.902120396440130e-01 0.000000000000000e+00
3.355435746209915e-01 2.860644021344402e-01 0.000000000000000e+00
3.411184032822041e-01 2.822479410666234e-01 0.000000000000000e+00
3.468789949707118e-01 2.785126886444731e-01 0.000000000000000e+00
3.530013463603476e-01 2.747432422946966e-01 0.000000000000000e+00
3.586118130868088e-01 2.715594081355956e-01 0.000000000000000e+00
3.648994124904900e-01 2.680863006159230e-01 0.000000000000000e+00
3.711873976263122e-01 2.647759745860900e-01 0.000000000000000e+00
3.770293498433110e-01 2.619529863275820e-01 0.000000000000000e+00
3.837615420665538e-01 2.588919258799774e-01 0.000000000000000e+00
3.896791052826245e-01 2.565304773449544e-01 0.000000000000000e+00
3.962753223257967e-01 2.537049841251469e-01 0.000000000000000e+00
4.028800095587642e-01 2.511896225953390e-01 0.000000000000000e+00
4.090987888970105e-01 2.493398701093151e-01 0.000000000000000e+00
4.162060965248472e-01 2.467452857486291e-01 0.000000000000000e+00
4.222790525946898e-01 2.452216095430724e-01 0.000000000000000e+00
4.295017120829877e-01 2.430986051085233e-01 0.000000000000000e+00
4.357321993946414e-01 2.418890951648116e-01 0.000000000000000e+00
4.425949008972792e-01 2.403081989788587e-01 0.000000000000000e+00
4.496313212299737e-01 2.388658590439369e-01 0.000000000000000e+00
4.561752882597048e-01 2.378382312925820e-01 0.000000000000000e+00
4.633812702796813e-01 2.367502823707394e-01 0.000000000000000e+00
4.699651009996992e-01 2.360063243037975e-01 0.000000000000000e+00
4.771443966635461e-01 2.352596634974844e-01 0.000000000000000e+00
4.838798622322094e-01 2.348051058564068e-01 0.000000000000000e+00
4.909499475790090e-01 2.344286193298443e-01 0.000000000000000e+00
4.978188020441315e-01 2.342466323265491e-01 0.000000000000000e+00
5.048607071904921e-01 2.342128532057632e-01 0.000000000000000e+00
5.117329398448689e-01 2.343425395917868e-01 0.000000000000000e+00
5.188261960318851e-01 2.346805346637833e-01 0.000000000000000e+00
5.255706870793292e-01 2.350863727764729e-01 0.000000000000000e+00
5.326633921806475e-01 2.357335156027805e-01 0.000000000000000e+00
5.394345888518244e-01 2.364644199373188e-01 0.000000000000000e+00
5.464578692301999e-01 2.374736157889954e-01 0.000000000000000e+00
5.533977064133554e-01 2.386071612455528e-01 0.000000000000000e+00
5.599333891023659e-01 2.397531710073964e-01 0.000000000000000e+00
5.672322678292870e-01 2.414058727030235e-01 0.000000000000000e+00
5.729684842636574e-01 2.424001573657019e-01 0.000000000000000e+00
5.803285145961223e-01 2.445081824794381e-01 0.000000000000000e+00
5.863437043765785e-01 2.460449264079886e-01 0.000000000000000e+00
5.933826472292646e-01 2.483803509585831e-01 0.000000000000000e+00
5.999624045355951e-01 2.505614093915529e-01 0.000000000000000e+00
6.060778293428901e-01 2.525587780351271e-01 0.000000000000000e+00
6.130493357450513e-01 2.555344630730274e-01 0.000000000000000e+00
6.185783317594868e-01 2.576208746319411e-01 0.000000000000000e+00
6.254237436080545e-01 2.606768821601256e-01 0.000000000000000e+00
6.314435499004535e-01 2.635137128342168e-01 0.000000000000000e+00
6.375843715135171e-01 2.666144318236481e-01 0.000000000000000e+00
6.439700420974340e-01 2.700391166873766e-01 0.000000000000000e+00
6.496192292647186e-01 2.731988509362942e-01 0.000000000000000e+00
6.557765757798774e-01 2.768710709161630e-01 0.000000000000000e+00
6.615848706620393e-01 2.805228340593812e-01 0.000000000000000e+00
6.672395446567579e-01 2.842892884055573e-01 0.000000000000000e+00
6.730820102045456e-01 2.883965731174257e-01 0.000000000000000e+00
6.785607859004072e-01 2.924297074578143e-01 0.000000000000000e+00
6.839651624541155e-01 2.966564400926664e-01 0.000000000000000e+00
6.893641288081008e-01 3.010859690537567e-01 0.000000000000000e+00
6.945817068424450e-01 3.055378668229656e-01 0.000000000000000e+00
6.996401358712774e-01 3.101623063808480e-01 0.000000000000000e+00
7.046630384055941e-01 3.149812818750948e-01 0.000000000000000e+00
7.095665502650568e-01 3.198829337396210e-01 0.000000000000000e+00
7.142921313730369e-01 3.248849772829481e-01 0.000000000000000e+00
7.188592217332775e-01 3.299809691663700e-01 0.000000000000000e+00
7.233357190216619e-01 3.352382355596314e-01 0.000000000000000e+00
7.277333825660012e-01 3.406668581460214e-01 0.000000000000000e+00
7.318010245675681e-01 3.459695292468606e-01 0.000000000000000e+00
7.359820663350622e-01 3.517057664130687e-01 0.000000000000000e+00
7.398527192810584e-01 3.573634658029629e-01 0.000000000000000e+00
7.435060112056586e-01 3.629706754769749e-01 0.000000000000000e+00
7.473563582552476e-01 3.691894091171117e-01 0.000000000000000e+00
7.504534206448751e-01 3.747115657596916e-01 0.000000000000000e+00
7.539086787035940e-01 3.809673155801035e-01 0.000000000000000e+00
7.570659371837943e-01 3.871560381884360e-01 0.000000000000000e+00
7.598339461433515e-01 3.930661275982530e-01 0.000000000000000e+00
7.630058304638709e-01 3.999095171947171e-01 0.000000000000000e+00
7.650446903896942e-01 4.055159423768142e-01 0.000000000000000e+00
7.678496660632677e-01 4.123010053192014e-01 0.000000000000000e+00
7.699735591833081e-01 4.186487048581507e-01 0.000000000000000e+00
7.720249474468860e-01 4.251868023609822e-01 0.000000000000000e+00
7.742263804539318e-01 4.320594396377757e-01 0.000000000000000e+00
7.755835559840019e-01 4.382749510539022e-01 0.000000000000000e+00
7.775609647976705e-01 4.455232720929326e-01 0.000000000000000e+00
7.785574699069842e-01 4.516764638985106e-01 0.000000000000000e+00
7.799535123867889e-01 4.588236670446503e-01 0.000000000000000e+00
7.808392982833469e-01 4.653906160861871e-01 0.000000000000000e+00
7.817446737009899e-01 4.723886000779102e-01 0.000000000000000e+00
7.823588872194427e-01 4.791915571602443e-01 0.000000000000000e+00
7.828437247857583e-01 4.861350392696221e-01 0.000000000000000e+00
7.831218773995746e-01 4.930868061975466e-01 0.000000000000000e+00

POINT_DATA   249
SCALARS fNorm double
LOOKUP_TABLE default

1.881538e+01 
1.829682e+01 
2.068228e+01 
1.401586e+01 
2.680596e+01 
3.700497e+00 
4.080984e+01 
2.172393e+01 
7.203359e+01 
3.537419e+01 
6.422579e+01 
4.189637e+00 
1.276883e+01 
4.839492e+01 
2.844235e+01 
5.675701e+01 
2.794774e+00 
2.270366e+01 
2.316992e+01 
4.361588e+00 
2.935477e+01 
1.612574e+01 
1.527078e+01 
2.081501e+01 
1.686926e+01 
1.810951e+01 
1.701264e+01 
1.743247e+01 
1.802366e+01 
1.975539e+01 
1.426015e+01 
1.662619e+01 
2.346818e+01 
1.335400e+01 
1.616422e+01 
1.991931e+01 
1.521151e+01 
1.751095e+01 
1.797421e+01 
1.647738e+01 
1.890738e+01 
1.210542e+01 
1.741965e+01 
1.840344e+01 
1.445505e+01 
3.901962e+01 
2.828230e+01 
6.104321e+01 
2.931715e+00 
1.982187e-01 
4.745790e+01 
1.976000e+01 
7.094569e+01 
3.342779e+01 
3.453115e+01 
7.969844e+00 
1.355721e+01 
2.445572e+01 
1.151553e+01 
2.141931e+01 
8.646935e+00 
2.007973e+01 
1.646331e+01 
1.508792e+01 
1.862934e+01 
9.803948e+00 
2.528543e+01 
6.143027e+00 
2.590710e+01 
4.105532e+00 
3.199034e+01 
1.723148e+01 
2.314567e+01 
6.481331e+01 
2.738741e+01 
7.137122e+01 
4.254823e+01 
5.057503e+01 
2.906770e+01 
1.688097e+01 
3.220750e+01 
1.616720e+01 
2.336454e+01 
1.434532e+01 
7.817920e+00 
2.428214e+01 
1.642553e+01 
1.705694e+01 
1.483674e+01 
1.925176e+01 
1.898790e+01 
1.317384e+01 
1.984963e+01 
1.852608e+01 
1.451596e+01 
2.185032e+01 
1.334972e+01 
1.830552e+01 
2.033800e+01 
1.827998e+01 
1.385006e+01 
1.751592e+01 
2.784861e+01 
9.366389e+00 
1.463948e+01 
2.377965e+01 
1.584866e+01 
3.267010e+01 
1.006813e+01 
4.019857e+01 
2.125951e+01 
1.645318e+01 
8.429609e+01 
4.880865e+01 
6.708022e+01 
1.003370e+01 
2.730305e+01 
1.778979e+01 
7.562969e+00 
3.706875e+01 
5.256937e+00 
2.800869e+01 
1.004168e+01 
2.328567e+01 
1.784107e+01 
1.784107e+01 
2.328567e+01 
1.004168e+01 
2.800869e+01 
5.256937e+00 
3.706875e+01 
7.562969e+00 
1.778979e+01 
2.730305e+01 
1.003370e+01 
6.708022e+01 
4.880865e+01 
8.429609e+01 
1.645318e+01 
2.125951e+01 
4.019857e+01 
1.006813e+01 
3.267010e+01 
1.584866e+01 
2.377965e+01 
1.463948e+01 
9.366389e+00 
2.784861e+01 
1.751592e+01 
1.385006e+01 
1.827998e+01 
2.033800e+01 
1.830552e+01 
1.334972e+01 
2.185032e+01 
1.451596e+01 
1.852608e+01 
1.984963e+01 
1.317384e+01 
1.898790e+01 
1.925176e+01 
1.483674e+01 
1.705694e+01 
1.642553e+01 
2.428214e+01 
7.817920e+00 
1.434532e+01 
2.336454e+01 
1.616720e+01 
3.220750e+01 
1.688097e+01 
2.906770e+01 
5.057503e+01 
4.254823e+01 
7.137122e+01 
2.738741e+01 
6.481331e+01 
2.314567e+01 
1.723148e+01 
3.199034e+01 
4.105532e+00 
2.590710e+01 
6.143027e+00 
2.528543e+01 
9.803948e+00 
1.862934e+01 
1.508792e+01 
1.646331e+01 
2.007973e+01 
8.646935e+00 
2.141931e+01 
1.151553e+01 
2.445572e+01 
1.355721e+01 
7.969844e+00 
3.453115e+01 
3.342779e+01 
7.094569e+01 
1.976000e+01 
4.745790e+01 
1.982187e-01 
2.931715e+00 
6.104321e+01 
2.828230e+01 
3.901962e+01 
1.445505e+01 
1.840344e+01 
1.741965e+01 
1.210542e+01 
1.890738e+01 
1.647738e+01 
1.797421e+01 
1.751095e+01 
1.521151e+01 
1.991931e+01 
1.616422e+01 
1.335400e+01 
2.346818e+01 
1.662619e+01 
1.426015e+01 
1.975539e+01 
1.802366e+01 
1.743247e+01 
1.701264e+01 
1.810951e+01 
1.686926e+01 
2.081501e+01 
1.527078e+01 
1.612574e+01 
2.935477e+01 
4.361588e+00 
2.316992e+01 
2.270366e+01 
2.794774e+00 
5.675701e+01 
2.844235e+01 
4.839492e+01 
1.276883e+01 
4.189637e+00 
6.422579e+01 
3.537419e+01 
7.203359e+01 
2.172393e+01 
4.080984e+01 
3.700497e+00 
2.680596e+01 
1.401586e+01 
2.068228e+01 
1.829682e+01 
