# vtk DataFile Version 2.0
fTan
ASCII
DATASET UNSTRUCTURED_GRID

FIELD FieldData 1
TIME 1 1 double
0.80000000
POINTS 249 float
7.779441620855907e-01 5.000000000000000e-01 0.000000000000000e+00
7.778650831316233e-01 5.069940048436212e-01 0.000000000000000e+00
7.776003897366194e-01 5.140232990063613e-01 0.000000000000000e+00
7.771571388512025e-01 5.210384273851282e-01 0.000000000000000e+00
7.766053500423290e-01 5.279260836822485e-01 0.000000000000000e+00
7.757596227518037e-01 5.350469722578352e-01 0.000000000000000e+00
7.749675235663255e-01 5.416922664580365e-01 0.000000000000000e+00
7.736705294279582e-01 5.489644006888666e-01 0.000000000000000e+00
7.727522726976955e-01 5.551656418228058e-01 0.000000000000000e+00
7.709900375830937e-01 5.625982355534846e-01 0.000000000000000e+00
7.697463273455277e-01 5.687866259884135e-01 0.000000000000000e+00
7.676978089304202e-01 5.759589136231824e-01 0.000000000000000e+00
7.658344847229335e-01 5.825637685419636e-01 0.000000000000000e+00
7.637575656096156e-01 5.891552031783076e-01 0.000000000000000e+00
7.612747927554409e-01 5.960362508034133e-01 0.000000000000000e+00
7.591969647031486e-01 6.020273528603347e-01 0.000000000000000e+00
7.563127971590988e-01 6.089322218550144e-01 0.000000000000000e+00
7.536385730544568e-01 6.151598082826774e-01 0.000000000000000e+00
7.507368334093220e-01 6.214699514998757e-01 0.000000000000000e+00
7.475575932611611e-01 6.278904216605358e-01 0.000000000000000e+00
7.444563133746313e-01 6.338334915626553e-01 0.000000000000000e+00
7.408936710696561e-01 6.401110607254176e-01 0.000000000000000e+00
7.373494644659151e-01 6.461212336527548e-01 0.000000000000000e+00
7.337542134426599e-01 6.519595712390309e-01 0.000000000000000e+00
7.297802090291411e-01 6.578806464742136e-01 0.000000000000000e+00
7.258361572190273e-01 6.635230183174460e-01 0.000000000000000e+00
7.217280937077626e-01 6.691130811712319e-01 0.000000000000000e+00
7.173900819103661e-01 6.746683234851030e-01 0.000000000000000e+00
7.129738614118661e-01 6.800537353206216e-01 0.000000000000000e+00
7.084174501308478e-01 6.853225909823866e-01 0.000000000000000e+00
7.036740920630439e-01 6.905213856598953e-01 0.000000000000000e+00
6.988436829336424e-01 6.955684358085283e-01 0.000000000000000e+00
6.939672655901005e-01 7.004523900771642e-01 0.000000000000000e+00
6.888160197489619e-01 7.052372606689465e-01 0.000000000000000e+00
6.835862057138337e-01 7.099240976092163e-01 0.000000000000000e+00
6.783284991647670e-01 7.144444026017680e-01 0.000000000000000e+00
6.728392797883536e-01 7.188409475088794e-01 0.000000000000000e+00
6.672537124513293e-01 7.231009182383210e-01 0.000000000000000e+00
6.616940671609812e-01 7.271250547519678e-01 0.000000000000000e+00
6.558151631452493e-01 7.311710882570772e-01 0.000000000000000e+00
6.498993597008604e-01 7.350145592396793e-01 0.000000000000000e+00
6.440629198981570e-01 7.385752091675100e-01 0.000000000000000e+00
6.378185204309764e-01 7.421850846593802e-01 0.000000000000000e+00
6.317191289442966e-01 7.454867700742589e-01 0.000000000000000e+00
6.255559235036071e-01 7.486472159404756e-01 0.000000000000000e+00
6.189545284897270e-01 7.518571348923890e-01 0.000000000000000e+00
6.128636748946376e-01 7.544964428932212e-01 0.000000000000000e+00
6.060953035727018e-01 7.574460562214684e-01 0.000000000000000e+00
5.997362221992775e-01 7.597722500770621e-01 0.000000000000000e+00
5.930969486675913e-01 7.621673702013548e-01 0.000000000000000e+00
5.861902066032662e-01 7.645439703610714e-01 0.000000000000000e+00
5.796418948292884e-01 7.665036165275823e-01 0.000000000000000e+00
5.724977940392375e-01 7.685504493091249e-01 0.000000000000000e+00
5.661090650263851e-01 7.699515117395115e-01 0.000000000000000e+00
5.588570172844981e-01 7.716745539583024e-01 0.000000000000000e+00
5.521093542309127e-01 7.729459630005859e-01 0.000000000000000e+00
5.450485529618070e-01 7.741730236628691e-01 0.000000000000000e+00
5.379728902946592e-01 7.752145594322273e-01 0.000000000000000e+00
5.309482400046319e-01 7.760449103981678e-01 0.000000000000000e+00
5.237870711478438e-01 7.767373935357642e-01 0.000000000000000e+00
5.168025847713305e-01 7.771928270883092e-01 0.000000000000000e+00
5.096249645721642e-01 7.775284451588302e-01 0.000000000000000e+00
5.025838275489790e-01 7.776529350181186e-01 0.000000000000000e+00
4.954147192075612e-01 7.776095785622985e-01 0.000000000000000e+00
4.883631213181254e-01 7.773916227484442e-01 0.000000000000000e+00
4.812047990222031e-01 7.769753981356143e-01 0.000000000000000e+00
4.742357580877558e-01 7.764320572999687e-01 0.000000000000000e+00
4.670372055426831e-01 7.756259437966109e-01 0.000000000000000e+00
4.601524734492464e-01 7.747602106013973e-01 0.000000000000000e+00
4.529424549108789e-01 7.735715755420988e-01 0.000000000000000e+00
4.461707676725393e-01 7.723747759350919e-01 0.000000000000000e+00
4.390826869854085e-01 7.708398469826310e-01 0.000000000000000e+00
4.321159243583035e-01 7.691592411748328e-01 0.000000000000000e+00
4.254921846059000e-01 7.675795675249670e-01 0.000000000000000e+00
4.184421688386177e-01 7.654328537119620e-01 0.000000000000000e+00
4.120398748575959e-01 7.635084855606075e-01 0.000000000000000e+00
4.049952112199728e-01 7.608788555225070e-01 0.000000000000000e+00
3.988592466121262e-01 7.588051017039792e-01 0.000000000000000e+00
3.920707003974372e-01 7.560239832401934e-01 0.000000000000000e+00
3.856550126024804e-01 7.531972702240528e-01 0.000000000000000e+00
3.793196530923218e-01 7.503196445471665e-01 0.000000000000000e+00
3.728210036979599e-01 7.470286541677257e-01 0.000000000000000e+00
3.668700108910173e-01 7.439425226841486e-01 0.000000000000000e+00
3.606322537771934e-01 7.404366031946448e-01 0.000000000000000e+00
3.545743111361766e-01 7.368435070627491e-01 0.000000000000000e+00
3.487351921019268e-01 7.331808106401188e-01 0.000000000000000e+00
3.427816692083928e-01 7.292046621439412e-01 0.000000000000000e+00
3.370765758016523e-01 7.251578007922823e-01 0.000000000000000e+00
3.315274503955286e-01 7.210499684554164e-01 0.000000000000000e+00
3.259743386300550e-01 7.167375117970630e-01 0.000000000000000e+00
3.205842723581487e-01 7.122764307680444e-01 0.000000000000000e+00
3.153811417376635e-01 7.076914150765407e-01 0.000000000000000e+00
3.101405488559565e-01 7.029192545167031e-01 0.000000000000000e+00
3.051254134506600e-01 6.981100833607694e-01 0.000000000000000e+00
3.003172120164569e-01 6.931773803576192e-01 0.000000000000000e+00
2.955145273039011e-01 6.880490527359134e-01 0.000000000000000e+00
2.908709507007887e-01 6.828203214593196e-01 0.000000000000000e+00
2.863986218452959e-01 6.775154379167049e-01 0.000000000000000e+00
2.820002375333084e-01 6.720110649183266e-01 0.000000000000000e+00
2.777405200485472e-01 6.664033961065030e-01 0.000000000000000e+00
2.737626265071735e-01 6.608308356742731e-01 0.000000000000000e+00
2.697694087924610e-01 6.550165491373134e-01 0.000000000000000e+00
2.659682155026180e-01 6.491172769870807e-01 0.000000000000000e+00
2.625111473761118e-01 6.433157611687844e-01 0.000000000000000e+00
2.588718433071019e-01 6.370563835082854e-01 0.000000000000000e+00
2.555059548599455e-01 6.309162580227895e-01 0.000000000000000e+00
2.524334398068954e-01 6.248356790476358e-01 0.000000000000000e+00
2.492966167224170e-01 6.182822216716364e-01 0.000000000000000e+00
2.466765781723752e-01 6.122675468456142e-01 0.000000000000000e+00
2.438076298954183e-01 6.056042409731865e-01 0.000000000000000e+00
2.412600789556689e-01 5.990484982817234e-01 0.000000000000000e+00
2.391055014232372e-01 5.927621503806596e-01 0.000000000000000e+00
2.365764617478436e-01 5.856333202451108e-01 0.000000000000000e+00
2.349655875401006e-01 5.796037208029333e-01 0.000000000000000e+00
2.327906735340641e-01 5.723744101361937e-01 0.000000000000000e+00
2.313447648310670e-01 5.660349035673823e-01 0.000000000000000e+00
2.297373999969310e-01 5.590236984581767e-01 0.000000000000000e+00
2.283845560477720e-01 5.521112395778006e-01 0.000000000000000e+00
2.272618212681793e-01 5.454103297860332e-01 0.000000000000000e+00
2.260788785107286e-01 5.381320150762799e-01 0.000000000000000e+00
2.253703043362751e-01 5.315206305485387e-01 0.000000000000000e+00
2.246169888379703e-01 5.243117770340805e-01 0.000000000000000e+00
2.241906514713675e-01 5.175661110432885e-01 0.000000000000000e+00
2.237972148352911e-01 5.104530923483395e-01 0.000000000000000e+00
2.236416961290911e-01 5.035221401856566e-01 0.000000000000000e+00
2.236416961290921e-01 4.964778598145966e-01 0.000000000000000e+00
2.237972148352910e-01 4.895469076519018e-01 0.000000000000000e+00
2.241906514713649e-01 4.824338889569586e-01 0.000000000000000e+00
2.246169888379676e-01 4.756882229661712e-01 0.000000000000000e+00
2.253703043362694e-01 4.684793694517082e-01 0.000000000000000e+00
2.260788785107258e-01 4.618679849239672e-01 0.000000000000000e+00
2.272618212681760e-01 4.545896702142118e-01 0.000000000000000e+00
2.283845560477705e-01 4.478887604224415e-01 0.000000000000000e+00
2.297373999969182e-01 4.409763015420790e-01 0.000000000000000e+00
2.313447648310590e-01 4.339650964328686e-01 0.000000000000000e+00
2.327906735340462e-01 4.276255898640689e-01 0.000000000000000e+00
2.349655875400912e-01 4.203962791973165e-01 0.000000000000000e+00
2.365764617478313e-01 4.143666797551424e-01 0.000000000000000e+00
2.391055014232170e-01 4.072378496195992e-01 0.000000000000000e+00
2.412600789556631e-01 4.009515017185215e-01 0.000000000000000e+00
2.438076298953990e-01 3.943957590270675e-01 0.000000000000000e+00
2.466765781723608e-01 3.877324531546329e-01 0.000000000000000e+00
2.492966167224013e-01 3.817177783286171e-01 0.000000000000000e+00
2.524334398068704e-01 3.751643209526174e-01 0.000000000000000e+00
2.555059548599272e-01 3.690837419774579e-01 0.000000000000000e+00
2.588718433070771e-01 3.629436164919667e-01 0.000000000000000e+00
2.625111473760865e-01 3.566842388314633e-01 0.000000000000000e+00
2.659682155025988e-01 3.508827230131623e-01 0.000000000000000e+00
2.697694087924314e-01 3.449834508629349e-01 0.000000000000000e+00
2.737626265071503e-01 3.391691643259700e-01 0.000000000000000e+00
2.777405200485191e-01 3.335966038937363e-01 0.000000000000000e+00
2.820002375332726e-01 3.279889350819205e-01 0.000000000000000e+00
2.863986218452668e-01 3.224845620835351e-01 0.000000000000000e+00
2.908709507007532e-01 3.171796785409222e-01 0.000000000000000e+00
2.955145273038663e-01 3.119509472643248e-01 0.000000000000000e+00
3.003172120164210e-01 3.068226196426173e-01 0.000000000000000e+00
3.051254134506259e-01 3.018899166394667e-01 0.000000000000000e+00
3.101405488559144e-01 2.970807454835380e-01 0.000000000000000e+00
3.153811417376210e-01 2.923085849236930e-01 0.000000000000000e+00
3.205842723581057e-01 2.877235692321971e-01 0.000000000000000e+00
3.259743386300125e-01 2.832624882031700e-01 0.000000000000000e+00
3.315274503954866e-01 2.789500315448159e-01 0.000000000000000e+00
3.370765758016075e-01 2.748421992079498e-01 0.000000000000000e+00
3.427816692083481e-01 2.707953378562890e-01 0.000000000000000e+00
3.487351921018732e-01 2.668191893601107e-01 0.000000000000000e+00
3.545743111361413e-01 2.631564929374802e-01 0.000000000000000e+00
3.606322537771370e-01 2.595633968055785e-01 0.000000000000000e+00
3.668700108909776e-01 2.560574773160665e-01 0.000000000000000e+00
3.728210036979028e-01 2.529713458325064e-01 0.000000000000000e+00
3.793196530922677e-01 2.496803554530528e-01 0.000000000000000e+00
3.856550126024256e-01 2.468027297761703e-01 0.000000000000000e+00
3.920707003973779e-01 2.439760167600208e-01 0.000000000000000e+00
3.988592466120731e-01 2.411948982962331e-01 0.000000000000000e+00
4.049952112199080e-01 2.391211444777141e-01 0.000000000000000e+00
4.120398748575276e-01 2.364915144396106e-01 0.000000000000000e+00
4.184421688385561e-01 2.345671462882427e-01 0.000000000000000e+00
4.254921846058292e-01 2.324204324752462e-01 0.000000000000000e+00
4.321159243582415e-01 2.308407588253700e-01 0.000000000000000e+00
4.390826869853464e-01 2.291601530175578e-01 0.000000000000000e+00
4.461707676724722e-01 2.276252240651166e-01 0.000000000000000e+00
4.529424549108096e-01 2.264284244580939e-01 0.000000000000000e+00
4.601524734491834e-01 2.252397893987907e-01 0.000000000000000e+00
4.670372055426043e-01 2.243740562035821e-01 0.000000000000000e+00
4.742357580876898e-01 2.235679427002067e-01 0.000000000000000e+00
4.812047990221283e-01 2.230246018645726e-01 0.000000000000000e+00
4.883631213180566e-01 2.226083772517318e-01 0.000000000000000e+00
4.954147192074858e-01 2.223904214378773e-01 0.000000000000000e+00
5.025838275489096e-01 2.223470649820528e-01 0.000000000000000e+00
5.096249645720891e-01 2.224715548413394e-01 0.000000000000000e+00
5.168025847712568e-01 2.228071729118598e-01 0.000000000000000e+00
5.237870711477781e-01 2.232626064643970e-01 0.000000000000000e+00
5.309482400045558e-01 2.239550896019910e-01 0.000000000000000e+00
5.379728902945968e-01 2.247854405679319e-01 0.000000000000000e+00
5.450485529617343e-01 2.258269763372850e-01 0.000000000000000e+00
5.521093542308442e-01 2.270540369995675e-01 0.000000000000000e+00
5.588570172844303e-01 2.283254460418426e-01 0.000000000000000e+00
5.661090650263150e-01 2.300484882606332e-01 0.000000000000000e+00
5.724977940391739e-01 2.314495506910151e-01 0.000000000000000e+00
5.796418948292220e-01 2.334963834725641e-01 0.000000000000000e+00
5.861902066032000e-01 2.354560296390515e-01 0.000000000000000e+00
5.930969486675264e-01 2.378326297987907e-01 0.000000000000000e+00
5.997362221992103e-01 2.402277499230634e-01 0.000000000000000e+00
6.060953035726383e-01 2.425539437786632e-01 0.000000000000000e+00
6.128636748945706e-01 2.455035571069099e-01 0.000000000000000e+00
6.189545284896675e-01 2.481428651077409e-01 0.000000000000000e+00
6.255559235035434e-01 2.513527840596533e-01 0.000000000000000e+00
6.317191289442401e-01 2.545132299258721e-01 0.000000000000000e+00
6.378185204309139e-01 2.578149153407452e-01 0.000000000000000e+00
6.440629198981002e-01 2.614247908326181e-01 0.000000000000000e+00
6.498993597007988e-01 2.649854407604464e-01 0.000000000000000e+00
6.558151631451909e-01 2.688289117430467e-01 0.000000000000000e+00
6.616940671609219e-01 2.728749452481538e-01 0.000000000000000e+00
6.672537124512701e-01 2.768990817618047e-01 0.000000000000000e+00
6.728392797882979e-01 2.811590524912412e-01 0.000000000000000e+00
6.783284991647109e-01 2.855555973983520e-01 0.000000000000000e+00
6.835862057137790e-01 2.900759023909092e-01 0.000000000000000e+00
6.888160197489057e-01 2.947627393311667e-01 0.000000000000000e+00
6.939672655900500e-01 2.995476099229583e-01 0.000000000000000e+00
6.988436829335858e-01 3.044315641915856e-01 0.000000000000000e+00
7.036740920629951e-01 3.094786143402199e-01 0.000000000000000e+00
7.084174501307930e-01 3.146774090177310e-01 0.000000000000000e+00
7.129738614118202e-01 3.199462646794896e-01 0.000000000000000e+00
7.173900819103182e-01 3.253316765150095e-01 0.000000000000000e+00
7.217280937077137e-01 3.308869188288796e-01 0.000000000000000e+00
7.258361572189778e-01 3.364769816826677e-01 0.000000000000000e+00
7.297802090290977e-01 3.421193535258930e-01 0.000000000000000e+00
7.337542134426180e-01 3.480404287610844e-01 0.000000000000000e+00
7.373494644658634e-01 3.538787663473483e-01 0.000000000000000e+00
7.408936710696160e-01 3.598889392746882e-01 0.000000000000000e+00
7.444563133745870e-01 3.661665084374526e-01 0.000000000000000e+00
7.475575932611167e-01 3.721095783395657e-01 0.000000000000000e+00
7.507368334092789e-01 3.785300485002257e-01 0.000000000000000e+00
7.536385730544187e-01 3.848401917174258e-01 0.000000000000000e+00
7.563127971590644e-01 3.910677781450911e-01 0.000000000000000e+00
7.591969647031114e-01 3.979726471397639e-01 0.000000000000000e+00
7.612747927554077e-01 4.039637491966980e-01 0.000000000000000e+00
7.637575656095910e-01 4.108447968217983e-01 0.000000000000000e+00
7.658344847228986e-01 4.174362314581413e-01 0.000000000000000e+00
7.676978089303924e-01 4.240410863769212e-01 0.000000000000000e+00
7.697463273455014e-01 4.312133740116815e-01 0.000000000000000e+00
7.709900375830752e-01 4.374017644466309e-01 0.000000000000000e+00
7.727522726976781e-01 4.448343581773039e-01 0.000000000000000e+00
7.736705294279472e-01 4.510355993112470e-01 0.000000000000000e+00
7.749675235663168e-01 4.583077335420880e-01 0.000000000000000e+00
7.757596227517909e-01 4.649530277422646e-01 0.000000000000000e+00
7.766053500423227e-01 4.720739163178476e-01 0.000000000000000e+00
7.771571388511943e-01 4.789615726149822e-01 0.000000000000000e+00
7.776003897366152e-01 4.859767009937717e-01 0.000000000000000e+00
7.778650831316235e-01 4.930059951565379e-01 0.000000000000000e+00

POINT_DATA   249
SCALARS fTan double
LOOKUP_TABLE default

1.590993e-08 
3.982465e+00 
5.168856e-01 
1.194164e+01 
2.612305e+01 
4.786040e+01 
6.947996e+01 
1.118106e+02 
1.370970e+02 
1.326638e+02 
1.147814e+02 
5.964062e+01 
4.825916e+00 
4.044123e+01 
9.740142e+01 
1.142293e+02 
7.054896e+01 
1.678372e+01 
2.191312e+01 
4.609159e+01 
5.144972e+01 
2.406287e+01 
1.208522e+01 
2.745621e+01 
2.468800e+01 
5.299265e+00 
1.111819e+01 
8.375450e+00 
1.102965e-01 
7.183841e+00 
5.144542e+00 
8.452333e+00 
1.290831e+01 
8.007788e-01 
8.895982e+00 
9.913386e+00 
8.147769e-01 
1.615298e+01 
2.734834e+01 
8.196005e+00 
2.178973e+01 
3.759597e+01 
2.771348e+01 
9.419301e-01 
4.141615e+01 
7.024767e+01 
7.450870e+01 
6.122967e+01 
2.868625e+01 
2.460975e+01 
4.690631e+01 
5.963345e+01 
8.914163e+01 
9.134365e+01 
5.877136e+01 
3.002262e+01 
1.471448e+00 
7.834778e+00 
1.210310e+01 
1.952849e+01 
1.861440e+01 
1.432520e+01 
1.270055e+01 
1.142721e+01 
1.154720e+01 
1.802276e+01 
2.534019e+01 
3.046217e+01 
3.684486e+01 
4.307196e+01 
3.758321e+01 
8.576837e+00 
3.571235e+01 
5.603570e+01 
6.843877e+01 
8.346814e+01 
1.042670e+02 
8.597025e+01 
3.253485e+01 
5.254857e+00 
3.262419e+01 
5.808304e+01 
4.519694e+01 
1.121160e+01 
1.506044e+01 
2.664503e+01 
1.645579e+01 
9.050743e+00 
1.268495e+01 
3.429557e+00 
6.164043e+00 
1.528261e+01 
1.395517e+01 
5.992847e+00 
1.377067e+01 
3.308557e+00 
5.449573e+00 
1.073604e+01 
3.791560e-01 
1.954299e+01 
2.068549e+01 
3.564007e+00 
2.644175e+01 
4.870187e+01 
2.383519e+01 
1.894001e+01 
4.527068e+01 
7.049758e+01 
6.940903e+01 
2.213561e+01 
3.880495e+01 
9.187802e+01 
1.324018e+02 
1.308381e+02 
1.047634e+02 
6.907303e+01 
1.495122e+01 
2.492968e+01 
5.794972e+01 
7.247909e+01 
5.988532e+01 
4.890619e+01 
3.647702e+01 
1.912018e+01 
1.115982e+01 
1.115982e+01 
1.912018e+01 
3.647702e+01 
4.890619e+01 
5.988532e+01 
7.247909e+01 
5.794972e+01 
2.492968e+01 
1.495122e+01 
6.907303e+01 
1.047634e+02 
1.308381e+02 
1.324018e+02 
9.187802e+01 
3.880495e+01 
2.213561e+01 
6.940903e+01 
7.049758e+01 
4.527068e+01 
1.894001e+01 
2.383519e+01 
4.870187e+01 
2.644175e+01 
3.564007e+00 
2.068549e+01 
1.954299e+01 
3.791560e-01 
1.073604e+01 
5.449573e+00 
3.308557e+00 
1.377067e+01 
5.992847e+00 
1.395517e+01 
1.528261e+01 
6.164043e+00 
3.429557e+00 
1.268495e+01 
9.050743e+00 
1.645579e+01 
2.664503e+01 
1.506044e+01 
1.121160e+01 
4.519694e+01 
5.808304e+01 
3.262419e+01 
5.254857e+00 
3.253485e+01 
8.597025e+01 
1.042670e+02 
8.346814e+01 
6.843877e+01 
5.603570e+01 
3.571235e+01 
8.576837e+00 
3.758321e+01 
4.307196e+01 
3.684486e+01 
3.046217e+01 
2.534019e+01 
1.802276e+01 
1.154720e+01 
1.142721e+01 
1.270055e+01 
1.432520e+01 
1.861440e+01 
1.952849e+01 
1.210310e+01 
7.834778e+00 
1.471448e+00 
3.002262e+01 
5.877136e+01 
9.134365e+01 
8.914163e+01 
5.963345e+01 
4.690631e+01 
2.460975e+01 
2.868625e+01 
6.122967e+01 
7.450870e+01 
7.024767e+01 
4.141615e+01 
9.419301e-01 
2.771348e+01 
3.759597e+01 
2.178973e+01 
8.196005e+00 
2.734834e+01 
1.615298e+01 
8.147769e-01 
9.913386e+00 
8.895982e+00 
8.007788e-01 
1.290831e+01 
8.452333e+00 
5.144542e+00 
7.183841e+00 
1.102965e-01 
8.375450e+00 
1.111819e+01 
5.299265e+00 
2.468800e+01 
2.745621e+01 
1.208522e+01 
2.406287e+01 
5.144972e+01 
4.609159e+01 
2.191312e+01 
1.678372e+01 
7.054896e+01 
1.142293e+02 
9.740142e+01 
4.044123e+01 
4.825916e+00 
5.964062e+01 
1.147814e+02 
1.326638e+02 
1.370970e+02 
1.118106e+02 
6.947996e+01 
4.786040e+01 
2.612305e+01 
1.194164e+01 
5.168856e-01 
3.982465e+00 
