# vtk DataFile Version 2.0
fTan
ASCII
DATASET UNSTRUCTURED_GRID

FIELD FieldData 1
TIME 1 1 double
1.08000000
POINTS 249 float
7.779713617853388e-01 5.000000000000000e-01 0.000000000000000e+00
7.778877391095267e-01 5.069228711706786e-01 0.000000000000000e+00
7.776229541881523e-01 5.138934536801096e-01 0.000000000000000e+00
7.771695240665032e-01 5.208585326181261e-01 0.000000000000000e+00
7.766019970119924e-01 5.276802825960841e-01 0.000000000000000e+00
7.757473258734987e-01 5.347297732443893e-01 0.000000000000000e+00
7.749433084614985e-01 5.412895881478242e-01 0.000000000000000e+00
7.736212577101280e-01 5.485269015626471e-01 0.000000000000000e+00
7.727245847644850e-01 5.546054625057719e-01 0.000000000000000e+00
7.708558005884575e-01 5.620275129349620e-01 0.000000000000000e+00
7.696455494348746e-01 5.681214317582515e-01 0.000000000000000e+00
7.675557701887757e-01 5.751921180767762e-01 0.000000000000000e+00
7.656574563113677e-01 5.817576964381950e-01 0.000000000000000e+00
7.636135972066478e-01 5.881767726625912e-01 0.000000000000000e+00
7.609886660027774e-01 5.950918983358570e-01 0.000000000000000e+00
7.590495843090954e-01 6.007830380466547e-01 0.000000000000000e+00
7.560891682795993e-01 6.076963973777652e-01 0.000000000000000e+00
7.534365123244796e-01 6.137641581477136e-01 0.000000000000000e+00
7.504462715707071e-01 6.200602102334084e-01 0.000000000000000e+00
7.471844144427741e-01 6.264406060665526e-01 0.000000000000000e+00
7.441620077022496e-01 6.321660681317122e-01 0.000000000000000e+00
7.405508303812188e-01 6.384362703015388e-01 0.000000000000000e+00
7.370068047230222e-01 6.442801713856857e-01 0.000000000000000e+00
7.333403700323916e-01 6.500789328057842e-01 0.000000000000000e+00
7.292925591523802e-01 6.559887016517101e-01 0.000000000000000e+00
7.254067050228918e-01 6.614493776411515e-01 0.000000000000000e+00
7.212395470967468e-01 6.669966828618081e-01 0.000000000000000e+00
7.167981468576254e-01 6.725603175383793e-01 0.000000000000000e+00
7.124885196691281e-01 6.777406158776619e-01 0.000000000000000e+00
7.079505918964785e-01 6.828874375544609e-01 0.000000000000000e+00
7.030653373833223e-01 6.881294709217228e-01 0.000000000000000e+00
6.983178125873204e-01 6.930280210958393e-01 0.000000000000000e+00
6.934519868746637e-01 6.977734736689851e-01 0.000000000000000e+00
6.881832079827220e-01 7.026081107452510e-01 0.000000000000000e+00
6.830079569069918e-01 7.071813455401383e-01 0.000000000000000e+00
6.777968256359892e-01 7.115406546038726e-01 0.000000000000000e+00
6.722855542163094e-01 7.158883462107327e-01 0.000000000000000e+00
6.666516722070145e-01 7.201228800732262e-01 0.000000000000000e+00
6.610860360883737e-01 7.241012171362934e-01 0.000000000000000e+00
6.552697894700337e-01 7.280379114576571e-01 0.000000000000000e+00
6.493004342672474e-01 7.318293940965817e-01 0.000000000000000e+00
6.436107632892768e-01 7.352509433972929e-01 0.000000000000000e+00
6.373398978610182e-01 7.388483423363028e-01 0.000000000000000e+00
6.312352160876223e-01 7.421275537448719e-01 0.000000000000000e+00
6.252085817867683e-01 7.451707146516006e-01 0.000000000000000e+00
6.185197878693927e-01 7.483795233885736e-01 0.000000000000000e+00
6.127281449318869e-01 7.508036330379128e-01 0.000000000000000e+00
6.058762432240101e-01 7.538590924436778e-01 0.000000000000000e+00
5.997070267308928e-01 7.560275085195098e-01 0.000000000000000e+00
5.931337750381255e-01 7.583491959259010e-01 0.000000000000000e+00
5.861667091137073e-01 7.607970193452009e-01 0.000000000000000e+00
5.799308823679613e-01 7.625801840607634e-01 0.000000000000000e+00
5.726930006175261e-01 7.647176391531477e-01 0.000000000000000e+00
5.667004552938233e-01 7.659275895546563e-01 0.000000000000000e+00
5.594015892211256e-01 7.676831131026535e-01 0.000000000000000e+00
5.528138573581419e-01 7.688991936070709e-01 0.000000000000000e+00
5.458252397243437e-01 7.700981542378981e-01 0.000000000000000e+00
5.387833530299820e-01 7.711489645032475e-01 0.000000000000000e+00
5.318878718520927e-01 7.719614097322198e-01 0.000000000000000e+00
5.247547739905225e-01 7.726488955039573e-01 0.000000000000000e+00
5.179160176920803e-01 7.730812977826513e-01 0.000000000000000e+00
5.107890834216345e-01 7.734168514543988e-01 0.000000000000000e+00
5.038474096375020e-01 7.735413089458283e-01 0.000000000000000e+00
4.967441189223429e-01 7.735032180204556e-01 0.000000000000000e+00
4.897936823657946e-01 7.732934437388346e-01 0.000000000000000e+00
4.826904672190624e-01 7.728699746758209e-01 0.000000000000000e+00
4.758603582764325e-01 7.723516656717769e-01 0.000000000000000e+00
4.686781042434681e-01 7.715494816845687e-01 0.000000000000000e+00
4.619823004899278e-01 7.707331802177386e-01 0.000000000000000e+00
4.547523596415843e-01 7.695415484972523e-01 0.000000000000000e+00
4.481234486393680e-01 7.683974089257960e-01 0.000000000000000e+00
4.410658445812937e-01 7.668577543082062e-01 0.000000000000000e+00
4.341800226412452e-01 7.651850251218382e-01 0.000000000000000e+00
4.277846121697161e-01 7.637532938206106e-01 0.000000000000000e+00
4.207034865113355e-01 7.615680839152190e-01 0.000000000000000e+00
4.145700722715041e-01 7.598374555569963e-01 0.000000000000000e+00
4.074437774992347e-01 7.570745790471867e-01 0.000000000000000e+00
4.013302820118322e-01 7.551272497297797e-01 0.000000000000000e+00
3.946326297586423e-01 7.524108437231528e-01 0.000000000000000e+00
3.882173883252387e-01 7.495033099516565e-01 0.000000000000000e+00
3.821071347402469e-01 7.468374554459051e-01 0.000000000000000e+00
3.755108305292688e-01 7.435758398492931e-01 0.000000000000000e+00
3.697474708160580e-01 7.406077148862747e-01 0.000000000000000e+00
3.634211681071795e-01 7.370465925254500e-01 0.000000000000000e+00
3.573582892714697e-01 7.334742090653494e-01 0.000000000000000e+00
3.516934978840511e-01 7.299878973522396e-01 0.000000000000000e+00
3.456876327043938e-01 7.260567755062095e-01 0.000000000000000e+00
3.400551105682122e-01 7.221166037829877e-01 0.000000000000000e+00
3.344984403397082e-01 7.180297905040822e-01 0.000000000000000e+00
3.288876767578578e-01 7.137405138778599e-01 0.000000000000000e+00
3.234964353695872e-01 7.093455249552962e-01 0.000000000000000e+00
3.183493408022673e-01 7.048956409982532e-01 0.000000000000000e+00
3.131133291783830e-01 7.002041020389220e-01 0.000000000000000e+00
3.079914652970170e-01 6.953655590317102e-01 0.000000000000000e+00
3.032700393242690e-01 6.906145304803016e-01 0.000000000000000e+00
2.984575186942738e-01 6.855713381668717e-01 0.000000000000000e+00
2.937066143591668e-01 6.803230400718139e-01 0.000000000000000e+00
2.892858960465389e-01 6.751790008511070e-01 0.000000000000000e+00
2.849025625286272e-01 6.698263909996367e-01 0.000000000000000e+00
2.805484479115662e-01 6.642047364839913e-01 0.000000000000000e+00
2.765749962773154e-01 6.587276138301039e-01 0.000000000000000e+00
2.725993775429688e-01 6.530596117808481e-01 0.000000000000000e+00
2.686713673300067e-01 6.471473131518455e-01 0.000000000000000e+00
2.652267219903308e-01 6.414874035947939e-01 0.000000000000000e+00
2.615686897123720e-01 6.353075249662761e-01 0.000000000000000e+00
2.581653065168200e-01 6.292342055783920e-01 0.000000000000000e+00
2.551017837957869e-01 6.233128988033746e-01 0.000000000000000e+00
2.518525115708316e-01 6.167013034681896e-01 0.000000000000000e+00
2.493163802223035e-01 6.109315276538818e-01 0.000000000000000e+00
2.463332096747481e-01 6.042830982257653e-01 0.000000000000000e+00
2.438090232335451e-01 5.978577937353997e-01 0.000000000000000e+00
2.416219596245303e-01 5.916379536517641e-01 0.000000000000000e+00
2.389662235448510e-01 5.845302710446790e-01 0.000000000000000e+00
2.375223867788215e-01 5.788100193819519e-01 0.000000000000000e+00
2.352016501617553e-01 5.715522730835949e-01 0.000000000000000e+00
2.337967636616771e-01 5.654020429016803e-01 0.000000000000000e+00
2.321429578604514e-01 5.584564247518724e-01 0.000000000000000e+00
2.307852311863650e-01 5.516449330310580e-01 0.000000000000000e+00
2.296270292699734e-01 5.450379211836240e-01 0.000000000000000e+00
2.284060671127095e-01 5.377681944967758e-01 0.000000000000000e+00
2.276851220023914e-01 5.313042444363595e-01 0.000000000000000e+00
2.269090654842987e-01 5.240948596820131e-01 0.000000000000000e+00
2.264655180466633e-01 5.174460059778875e-01 0.000000000000000e+00
2.260668111399193e-01 5.103669776070378e-01 0.000000000000000e+00
2.259049946751341e-01 5.035011701568924e-01 0.000000000000000e+00
2.259049946751356e-01 4.964988298438607e-01 0.000000000000000e+00
2.260668111399179e-01 4.896330223937048e-01 0.000000000000000e+00
2.264655180466471e-01 4.825539940228655e-01 0.000000000000000e+00
2.269090654842779e-01 4.759051403187435e-01 0.000000000000000e+00
2.276851220023666e-01 4.686957555643860e-01 0.000000000000000e+00
2.284060671126985e-01 4.622318055039478e-01 0.000000000000000e+00
2.296270292699469e-01 4.549620788171066e-01 0.000000000000000e+00
2.307852311863414e-01 4.483550669696612e-01 0.000000000000000e+00
2.321429578604002e-01 4.415435752488857e-01 0.000000000000000e+00
2.337967636616316e-01 4.345979570990637e-01 0.000000000000000e+00
2.352016501616835e-01 4.284477269171854e-01 0.000000000000000e+00
2.375223867787770e-01 4.211899806187903e-01 0.000000000000000e+00
2.389662235448196e-01 4.154697289560184e-01 0.000000000000000e+00
2.416219596244673e-01 4.083620463489741e-01 0.000000000000000e+00
2.438090232335200e-01 4.021422062652915e-01 0.000000000000000e+00
2.463332096746883e-01 3.957169017749733e-01 0.000000000000000e+00
2.493163802222552e-01 3.890684723468225e-01 0.000000000000000e+00
2.518525115707806e-01 3.832986965325263e-01 0.000000000000000e+00
2.551017837957202e-01 3.766871011973504e-01 0.000000000000000e+00
2.581653065167677e-01 3.707657944223064e-01 0.000000000000000e+00
2.615686897123015e-01 3.646924750344486e-01 0.000000000000000e+00
2.652267219902700e-01 3.585125964059065e-01 0.000000000000000e+00
2.686713673299461e-01 3.528526868488540e-01 0.000000000000000e+00
2.725993775428876e-01 3.469403882198681e-01 0.000000000000000e+00
2.765749962772573e-01 3.412723861705782e-01 0.000000000000000e+00
2.805484479114849e-01 3.357952635167146e-01 0.000000000000000e+00
2.849025625285333e-01 3.301736090010716e-01 0.000000000000000e+00
2.892858960464698e-01 3.248209991495691e-01 0.000000000000000e+00
2.937066143590730e-01 3.196769599288859e-01 0.000000000000000e+00
2.984575186941652e-01 3.144286618338265e-01 0.000000000000000e+00
3.032700393241820e-01 3.093854695203793e-01 0.000000000000000e+00
3.079914652969226e-01 3.046344409689740e-01 0.000000000000000e+00
3.131133291782665e-01 2.997958979617615e-01 0.000000000000000e+00
3.183493408021634e-01 2.951043590024198e-01 0.000000000000000e+00
3.234964353694841e-01 2.906544750453819e-01 0.000000000000000e+00
3.288876767577368e-01 2.862594861228116e-01 0.000000000000000e+00
3.344984403395870e-01 2.819702094965881e-01 0.000000000000000e+00
3.400551105680935e-01 2.778833962176787e-01 0.000000000000000e+00
3.456876327042754e-01 2.739432244944455e-01 0.000000000000000e+00
3.516934978839193e-01 2.700121026484123e-01 0.000000000000000e+00
3.573582892713461e-01 2.665257909353093e-01 0.000000000000000e+00
3.634211681070367e-01 2.629534074752010e-01 0.000000000000000e+00
3.697474708159300e-01 2.593922851143635e-01 0.000000000000000e+00
3.755108305291209e-01 2.564241601513554e-01 0.000000000000000e+00
3.821071347400905e-01 2.531625445547321e-01 0.000000000000000e+00
3.882173883250917e-01 2.504966900489843e-01 0.000000000000000e+00
3.946326297584847e-01 2.475891562774798e-01 0.000000000000000e+00
4.013302820116836e-01 2.448727502708389e-01 0.000000000000000e+00
4.074437774990522e-01 2.429254209534556e-01 0.000000000000000e+00
4.145700722713240e-01 2.401625444436410e-01 0.000000000000000e+00
4.207034865111725e-01 2.384319160853910e-01 0.000000000000000e+00
4.277846121695318e-01 2.362467061800164e-01 0.000000000000000e+00
4.341800226410649e-01 2.348149748787730e-01 0.000000000000000e+00
4.410658445811219e-01 2.331422456923900e-01 0.000000000000000e+00
4.481234486391764e-01 2.316025910748157e-01 0.000000000000000e+00
4.547523596414007e-01 2.304584515033389e-01 0.000000000000000e+00
4.619823004897538e-01 2.292668197828598e-01 0.000000000000000e+00
4.686781042432664e-01 2.284505183160265e-01 0.000000000000000e+00
4.758603582762529e-01 2.276483343288008e-01 0.000000000000000e+00
4.826904672188684e-01 2.271300253247649e-01 0.000000000000000e+00
4.897936823656086e-01 2.267065562617433e-01 0.000000000000000e+00
4.967441189221504e-01 2.264967819801221e-01 0.000000000000000e+00
5.038474096373106e-01 2.264586910547360e-01 0.000000000000000e+00
5.107890834214482e-01 2.265831485461665e-01 0.000000000000000e+00
5.179160176918913e-01 2.269187022179092e-01 0.000000000000000e+00
5.247547739903459e-01 2.273511044965927e-01 0.000000000000000e+00
5.318878718519008e-01 2.280385902683286e-01 0.000000000000000e+00
5.387833530298159e-01 2.288510354972929e-01 0.000000000000000e+00
5.458252397241600e-01 2.299018457626323e-01 0.000000000000000e+00
5.528138573579586e-01 2.311008063934555e-01 0.000000000000000e+00
5.594015892209564e-01 2.323168868978664e-01 0.000000000000000e+00
5.667004552936421e-01 2.340724104458558e-01 0.000000000000000e+00
5.726930006173609e-01 2.352823608473629e-01 0.000000000000000e+00
5.799308823677979e-01 2.374198159397478e-01 0.000000000000000e+00
5.861667091135344e-01 2.392029806552750e-01 0.000000000000000e+00
5.931337750379532e-01 2.416508040745987e-01 0.000000000000000e+00
5.997070267307267e-01 2.439724914809683e-01 0.000000000000000e+00
6.058762432238539e-01 2.461409075567993e-01 0.000000000000000e+00
6.127281449317128e-01 2.491963669625703e-01 0.000000000000000e+00
6.185197878692322e-01 2.516204766119013e-01 0.000000000000000e+00
6.252085817866069e-01 2.548292853488717e-01 0.000000000000000e+00
6.312352160874675e-01 2.578724462556023e-01 0.000000000000000e+00
6.373398978608520e-01 2.611516576641614e-01 0.000000000000000e+00
6.436107632891133e-01 2.647490566031780e-01 0.000000000000000e+00
6.493004342670804e-01 2.681706059038745e-01 0.000000000000000e+00
6.552697894698662e-01 2.719620885427949e-01 0.000000000000000e+00
6.610860360882075e-01 2.758987828641571e-01 0.000000000000000e+00
6.666516722068482e-01 2.798771199272291e-01 0.000000000000000e+00
6.722855542161537e-01 2.841116537897140e-01 0.000000000000000e+00
6.777968256358288e-01 2.884593453965685e-01 0.000000000000000e+00
6.830079569068332e-01 2.928186544603083e-01 0.000000000000000e+00
6.881832079825752e-01 2.973918892551906e-01 0.000000000000000e+00
6.934519868745226e-01 3.022265263314589e-01 0.000000000000000e+00
6.983178125871606e-01 3.069719789045867e-01 0.000000000000000e+00
7.030653373831836e-01 3.118705290787045e-01 0.000000000000000e+00
7.079505918963352e-01 3.171125624459675e-01 0.000000000000000e+00
7.124885196689911e-01 3.222593841227568e-01 0.000000000000000e+00
7.167981468574914e-01 3.274396824620360e-01 0.000000000000000e+00
7.212395470966227e-01 3.330033171386085e-01 0.000000000000000e+00
7.254067050227653e-01 3.385506223592611e-01 0.000000000000000e+00
7.292925591522582e-01 3.440112983486973e-01 0.000000000000000e+00
7.333403700322848e-01 3.499210671946362e-01 0.000000000000000e+00
7.370068047228967e-01 3.557198286147040e-01 0.000000000000000e+00
7.405508303811107e-01 3.615637296988669e-01 0.000000000000000e+00
7.441620077021402e-01 3.678339318686855e-01 0.000000000000000e+00
7.471844144426633e-01 3.735593939338354e-01 0.000000000000000e+00
7.504462715706124e-01 3.799397897669933e-01 0.000000000000000e+00
7.534365123243744e-01 3.862358418526688e-01 0.000000000000000e+00
7.560891682795108e-01 3.923036026226299e-01 0.000000000000000e+00
7.590495843089989e-01 3.992169619537265e-01 0.000000000000000e+00
7.609886660026973e-01 4.049081016645363e-01 0.000000000000000e+00
7.636135972065828e-01 4.118232273378098e-01 0.000000000000000e+00
7.656574563112873e-01 4.182423035621919e-01 0.000000000000000e+00
7.675557701887056e-01 4.248078819236079e-01 0.000000000000000e+00
7.696455494348036e-01 4.318785682421127e-01 0.000000000000000e+00
7.708558005884109e-01 4.379724870654447e-01 0.000000000000000e+00
7.727245847644398e-01 4.453945374946252e-01 0.000000000000000e+00
7.736212577100936e-01 4.514730984377672e-01 0.000000000000000e+00
7.749433084614780e-01 4.587104118526031e-01 0.000000000000000e+00
7.757473258734719e-01 4.652702267560075e-01 0.000000000000000e+00
7.766019970119727e-01 4.723197174042782e-01 0.000000000000000e+00
7.771695240664813e-01 4.791414673822711e-01 0.000000000000000e+00
7.776229541881468e-01 4.861065463203902e-01 0.000000000000000e+00
7.778877391095261e-01 4.930771288299141e-01 0.000000000000000e+00

POINT_DATA   249
SCALARS fTan double
LOOKUP_TABLE default

5.927394e-08 
5.223776e+00 
4.209707e-01 
1.345194e+01 
2.558291e+01 
4.921965e+01 
7.484812e+01 
1.212880e+02 
1.511199e+02 
1.441190e+02 
1.161289e+02 
5.385366e+01 
9.789776e+00 
6.601588e+01 
1.384297e+02 
1.509143e+02 
8.982603e+01 
3.478472e+01 
1.957606e+01 
6.915744e+01 
7.615838e+01 
4.011582e+01 
2.608171e+00 
3.024628e+01 
4.609619e+01 
2.359890e+01 
1.809148e+01 
3.804435e+01 
1.230652e+01 
3.039178e+01 
3.438833e+01 
2.497556e+00 
3.541098e+01 
2.444028e+01 
1.123498e+01 
2.256776e+01 
2.813765e+00 
2.065598e+01 
1.819800e+01 
4.836795e+00 
4.324778e+01 
5.902798e+01 
2.998231e+01 
1.783119e+01 
6.672749e+01 
1.140523e+02 
1.223935e+02 
9.639041e+01 
4.320048e+01 
4.133464e+01 
8.992054e+01 
1.061139e+02 
1.434800e+02 
1.393814e+02 
8.082853e+01 
3.916810e+01 
2.914365e+00 
1.766925e+01 
2.229927e+01 
3.137867e+01 
2.824245e+01 
1.920661e+01 
1.606119e+01 
1.497996e+01 
1.622490e+01 
2.660920e+01 
3.772265e+01 
4.815488e+01 
5.822345e+01 
6.005732e+01 
4.968044e+01 
1.375233e+01 
5.324220e+01 
8.576087e+01 
1.037834e+02 
1.271698e+02 
1.227627e+02 
8.120699e+01 
1.842008e+01 
3.769383e+01 
6.923397e+01 
8.758775e+01 
7.771296e+01 
2.226710e+01 
3.854800e+01 
5.264528e+01 
3.041344e+01 
2.384077e+00 
1.647423e+01 
1.068074e+01 
1.517252e+01 
2.264583e+01 
1.550695e+00 
3.479106e+01 
2.729450e+01 
1.082962e+01 
2.966883e+01 
1.358001e+01 
1.922901e+01 
3.440569e+01 
1.566443e+01 
1.749301e+01 
4.725078e+01 
5.556300e+01 
2.194745e+01 
2.950911e+01 
7.000109e+01 
1.064491e+02 
9.844428e+01 
3.837648e+01 
3.102465e+01 
9.945105e+01 
1.690442e+02 
1.720874e+02 
1.312245e+02 
8.311217e+01 
1.943347e+01 
2.377459e+01 
6.637797e+01 
8.678240e+01 
7.469840e+01 
5.875196e+01 
4.266062e+01 
2.225558e+01 
1.346356e+01 
1.346356e+01 
2.225558e+01 
4.266062e+01 
5.875196e+01 
7.469840e+01 
8.678240e+01 
6.637797e+01 
2.377459e+01 
1.943347e+01 
8.311217e+01 
1.312245e+02 
1.720874e+02 
1.690442e+02 
9.945105e+01 
3.102465e+01 
3.837648e+01 
9.844428e+01 
1.064491e+02 
7.000109e+01 
2.950911e+01 
2.194745e+01 
5.556300e+01 
4.725078e+01 
1.749301e+01 
1.566443e+01 
3.440569e+01 
1.922901e+01 
1.358001e+01 
2.966883e+01 
1.082962e+01 
2.729450e+01 
3.479106e+01 
1.550695e+00 
2.264583e+01 
1.517252e+01 
1.068074e+01 
1.647423e+01 
2.384077e+00 
3.041344e+01 
5.264528e+01 
3.854800e+01 
2.226710e+01 
7.771296e+01 
8.758775e+01 
6.923397e+01 
3.769383e+01 
1.842008e+01 
8.120699e+01 
1.227627e+02 
1.271698e+02 
1.037834e+02 
8.576087e+01 
5.324220e+01 
1.375233e+01 
4.968044e+01 
6.005732e+01 
5.822345e+01 
4.815488e+01 
3.772265e+01 
2.660920e+01 
1.622490e+01 
1.497996e+01 
1.606119e+01 
1.920661e+01 
2.824245e+01 
3.137867e+01 
2.229927e+01 
1.766925e+01 
2.914365e+00 
3.916810e+01 
8.082853e+01 
1.393814e+02 
1.434800e+02 
1.061139e+02 
8.992054e+01 
4.133464e+01 
4.320048e+01 
9.639041e+01 
1.223935e+02 
1.140523e+02 
6.672749e+01 
1.783119e+01 
2.998231e+01 
5.902798e+01 
4.324778e+01 
4.836795e+00 
1.819800e+01 
2.065598e+01 
2.813765e+00 
2.256776e+01 
1.123498e+01 
2.444028e+01 
3.541098e+01 
2.497556e+00 
3.438833e+01 
3.039178e+01 
1.230652e+01 
3.804435e+01 
1.809148e+01 
2.359890e+01 
4.609619e+01 
3.024628e+01 
2.608171e+00 
4.011582e+01 
7.615838e+01 
6.915744e+01 
1.957606e+01 
3.478472e+01 
8.982603e+01 
1.509143e+02 
1.384297e+02 
6.601588e+01 
9.789776e+00 
5.385366e+01 
1.161289e+02 
1.441190e+02 
1.511199e+02 
1.212880e+02 
7.484812e+01 
4.921965e+01 
2.558291e+01 
1.345194e+01 
4.209707e-01 
5.223776e+00 
