# vtk DataFile Version 2.0
fX_Lag
ASCII
DATASET UNSTRUCTURED_GRID

FIELD FieldData 1
TIME 1 1 double
1.24000000
POINTS 249 float
7.796346012221457e-01 5.000000000000200e-01 0.000000000000000e+00
7.795415893212952e-01 5.069405551276915e-01 0.000000000000000e+00
7.792657146919698e-01 5.139125474468734e-01 0.000000000000000e+00
7.787913212832821e-01 5.208729332139863e-01 0.000000000000000e+00
7.782011505025820e-01 5.277010236054709e-01 0.000000000000000e+00
7.773349418434647e-01 5.347365017415580e-01 0.000000000000000e+00
7.764783987922330e-01 5.413402453653641e-01 0.000000000000000e+00
7.751030344985291e-01 5.485311873188404e-01 0.000000000000000e+00
7.741362566867692e-01 5.547142725418628e-01 0.000000000000000e+00
7.722294641325214e-01 5.620094593022547e-01 0.000000000000000e+00
7.709412144439998e-01 5.682532411643307e-01 0.000000000000000e+00
7.687968156884066e-01 5.751969490391237e-01 0.000000000000000e+00
7.667919046409123e-01 5.817967796378235e-01 0.000000000000000e+00
7.647101894525579e-01 5.881992836731899e-01 0.000000000000000e+00
7.619929040581305e-01 5.950303736258109e-01 0.000000000000000e+00
7.600233457853462e-01 6.006773152829945e-01 0.000000000000000e+00
7.569496587736091e-01 6.075838077745906e-01 0.000000000000000e+00
7.542557714046088e-01 6.135554796612073e-01 0.000000000000000e+00
7.511557391648838e-01 6.198227485577275e-01 0.000000000000000e+00
7.477839516931641e-01 6.261435429288901e-01 0.000000000000000e+00
7.447771119056577e-01 6.317249312541486e-01 0.000000000000000e+00
7.410394657295841e-01 6.379928294945453e-01 0.000000000000000e+00
7.374624017766733e-01 6.436726584991150e-01 0.000000000000000e+00
7.336604107032146e-01 6.494282114831723e-01 0.000000000000000e+00
7.295675119399802e-01 6.552527443520206e-01 0.000000000000000e+00
7.255846215938343e-01 6.606319965589066e-01 0.000000000000000e+00
7.212840759865760e-01 6.661340950025303e-01 0.000000000000000e+00
7.168755056076744e-01 6.714942685929460e-01 0.000000000000000e+00
7.123809797179274e-01 6.766912652464264e-01 0.000000000000000e+00
7.077703591776940e-01 6.817521614967696e-01 0.000000000000000e+00
7.029487943333435e-01 6.867447847813871e-01 0.000000000000000e+00
6.979742724663821e-01 6.916904315772774e-01 0.000000000000000e+00
6.930292137712837e-01 6.963786548815677e-01 0.000000000000000e+00
6.879004937298997e-01 7.009123744046256e-01 0.000000000000000e+00
6.825519900391009e-01 7.054663649305171e-01 0.000000000000000e+00
6.772419416961186e-01 7.097786241693148e-01 0.000000000000000e+00
6.718372633946229e-01 7.139058648916059e-01 0.000000000000000e+00
6.660640056560388e-01 7.181102828358568e-01 0.000000000000000e+00
6.604624286574490e-01 7.219749026021123e-01 0.000000000000000e+00
6.547046258838894e-01 7.257434284490479e-01 0.000000000000000e+00
6.486426436628954e-01 7.294982301644445e-01 0.000000000000000e+00
6.430553461427019e-01 7.327389361286398e-01 0.000000000000000e+00
6.367342751927316e-01 7.362495767126416e-01 0.000000000000000e+00
6.306504776961743e-01 7.394491961260760e-01 0.000000000000000e+00
6.246609494130910e-01 7.423938224934172e-01 0.000000000000000e+00
6.178894599713141e-01 7.455285764326837e-01 0.000000000000000e+00
6.123921126189446e-01 7.476867576758440e-01 0.000000000000000e+00
6.054814691258520e-01 7.507376233940635e-01 0.000000000000000e+00
5.994066790946965e-01 7.528043873506653e-01 0.000000000000000e+00
5.928642986781615e-01 7.550534574141089e-01 0.000000000000000e+00
5.858727882651382e-01 7.574451661879259e-01 0.000000000000000e+00
5.798748794442437e-01 7.590374581427115e-01 0.000000000000000e+00
5.725556283059879e-01 7.611963296869253e-01 0.000000000000000e+00
5.668482888780018e-01 7.622305860014171e-01 0.000000000000000e+00
5.595894950394992e-01 7.639293597300147e-01 0.000000000000000e+00
5.530829755963274e-01 7.651015323344471e-01 0.000000000000000e+00
5.461622969923809e-01 7.662563464880252e-01 0.000000000000000e+00
5.391543435225865e-01 7.672833107237204e-01 0.000000000000000e+00
5.323924772862554e-01 7.680356051189208e-01 0.000000000000000e+00
5.253126009915288e-01 7.687000048578971e-01 0.000000000000000e+00
5.185804039987930e-01 7.691103522853925e-01 0.000000000000000e+00
5.115040001314254e-01 7.694432752029028e-01 0.000000000000000e+00
5.046460365693058e-01 7.695645429828178e-01 0.000000000000000e+00
4.976191966277950e-01 7.695211101481869e-01 0.000000000000000e+00
4.907652957436989e-01 7.693246033930481e-01 0.000000000000000e+00
4.837159870912779e-01 7.689256213521380e-01 0.000000000000000e+00
4.769962198901573e-01 7.684436353868962e-01 0.000000000000000e+00
4.698379486974043e-01 7.676604710321131e-01 0.000000000000000e+00
4.632679387831010e-01 7.668821103406093e-01 0.000000000000000e+00
4.560875357617067e-01 7.657546826884951e-01 0.000000000000000e+00
4.495707712728608e-01 7.646908019439630e-01 0.000000000000000e+00
4.425680379616495e-01 7.631974657160498e-01 0.000000000000000e+00
4.357440557199403e-01 7.615547845049411e-01 0.000000000000000e+00
4.295474654351512e-01 7.602889869345436e-01 0.000000000000000e+00
4.223820847748822e-01 7.581153387887222e-01 0.000000000000000e+00
4.163522063441955e-01 7.565408660448468e-01 0.000000000000000e+00
4.092895261329970e-01 7.538614875782469e-01 0.000000000000000e+00
4.031228652566085e-01 7.519519890866920e-01 0.000000000000000e+00
3.965440672021672e-01 7.493562439409321e-01 0.000000000000000e+00
3.900176569407853e-01 7.464668385508106e-01 0.000000000000000e+00
3.841385068308039e-01 7.440213085020496e-01 0.000000000000000e+00
3.774945482330065e-01 7.408794417516924e-01 0.000000000000000e+00
3.717100889004184e-01 7.379775807469240e-01 0.000000000000000e+00
3.654557855923849e-01 7.345611244362690e-01 0.000000000000000e+00
3.592551932801645e-01 7.310169756459244e-01 0.000000000000000e+00
3.537023457241935e-01 7.277455016142911e-01 0.000000000000000e+00
3.476726316326661e-01 7.238910667722055e-01 0.000000000000000e+00
3.419639423390087e-01 7.200466597168840e-01 0.000000000000000e+00
3.364443904775097e-01 7.161390193606021e-01 0.000000000000000e+00
3.307502175390289e-01 7.119240128276825e-01 0.000000000000000e+00
3.253555581517258e-01 7.076677762711846e-01 0.000000000000000e+00
3.201347607368294e-01 7.033140884178971e-01 0.000000000000000e+00
3.148053671548025e-01 6.986983199449820e-01 0.000000000000000e+00
3.097220373108908e-01 6.940356817893443e-01 0.000000000000000e+00
3.048658543753433e-01 6.893303997421428e-01 0.000000000000000e+00
2.999536506916017e-01 6.843653357828099e-01 0.000000000000000e+00
2.952504883540737e-01 6.792984504910073e-01 0.000000000000000e+00
2.906896902405978e-01 6.741847124708947e-01 0.000000000000000e+00
2.862600437426310e-01 6.689609124780018e-01 0.000000000000000e+00
2.818377023239976e-01 6.634164412217247e-01 0.000000000000000e+00
2.777238527831128e-01 6.579736202720426e-01 0.000000000000000e+00
2.737219256521337e-01 6.524510078284220e-01 0.000000000000000e+00
2.696866858605916e-01 6.465654087390076e-01 0.000000000000000e+00
2.662236647272531e-01 6.410459822788460e-01 0.000000000000000e+00
2.624984111889342e-01 6.349595381294593e-01 0.000000000000000e+00
2.589601071095829e-01 6.289024551548977e-01 0.000000000000000e+00
2.558593880980345e-01 6.231239204563958e-01 0.000000000000000e+00
2.525085152040880e-01 6.164823762737290e-01 0.000000000000000e+00
2.499707402232574e-01 6.108125386973396e-01 0.000000000000000e+00
2.468934355598877e-01 6.042756919098388e-01 0.000000000000000e+00
2.443146092840620e-01 5.978875003227081e-01 0.000000000000000e+00
2.420204283370140e-01 5.915711511171005e-01 0.000000000000000e+00
2.393144081333353e-01 5.846259437835218e-01 0.000000000000000e+00
2.378101308926250e-01 5.787545914473916e-01 0.000000000000000e+00
2.354203014363574e-01 5.715917672900420e-01 0.000000000000000e+00
2.339682244712145e-01 5.653598859065692e-01 0.000000000000000e+00
2.322608043108611e-01 5.584374351671092e-01 0.000000000000000e+00
2.308525952808346e-01 5.516233588485450e-01 0.000000000000000e+00
2.296667104039649e-01 5.450189673168909e-01 0.000000000000000e+00
2.284334939024182e-01 5.377829285473117e-01 0.000000000000000e+00
2.276724736308396e-01 5.313097202297684e-01 0.000000000000000e+00
2.268699701837639e-01 5.240928850112091e-01 0.000000000000000e+00
2.264009515993462e-01 5.174411729763915e-01 0.000000000000000e+00
2.260017229536035e-01 5.103690349290969e-01 0.000000000000000e+00
2.258351204445799e-01 5.035034138178820e-01 0.000000000000000e+00
2.258351204445756e-01 4.964965861832998e-01 0.000000000000000e+00
2.260017229535912e-01 4.896309650720705e-01 0.000000000000000e+00
2.264009515993193e-01 4.825588270247907e-01 0.000000000000000e+00
2.268699701837314e-01 4.759071149899756e-01 0.000000000000000e+00
2.276724736307925e-01 4.686902797713993e-01 0.000000000000000e+00
2.284334939023817e-01 4.622170714538246e-01 0.000000000000000e+00
2.296667104039129e-01 4.549810326842549e-01 0.000000000000000e+00
2.308525952807809e-01 4.483766411525948e-01 0.000000000000000e+00
2.322608043107744e-01 4.415625648340620e-01 0.000000000000000e+00
2.339682244711321e-01 4.346401140945900e-01 0.000000000000000e+00
2.354203014362395e-01 4.284082327111587e-01 0.000000000000000e+00
2.378101308925382e-01 4.212454085537632e-01 0.000000000000000e+00
2.393144081332809e-01 4.153740562175681e-01 0.000000000000000e+00
2.420204283369143e-01 4.084288488840498e-01 0.000000000000000e+00
2.443146092840163e-01 4.021124996783720e-01 0.000000000000000e+00
2.468934355597926e-01 3.957243080913011e-01 0.000000000000000e+00
2.499707402231816e-01 3.891874613037642e-01 0.000000000000000e+00
2.525085152039943e-01 3.835176237274228e-01 0.000000000000000e+00
2.558593880979266e-01 3.768760795447413e-01 0.000000000000000e+00
2.589601071095137e-01 3.710975448461840e-01 0.000000000000000e+00
2.624984111888246e-01 3.650404618716825e-01 0.000000000000000e+00
2.662236647271747e-01 3.589540177222488e-01 0.000000000000000e+00
2.696866858604925e-01 3.534345912621059e-01 0.000000000000000e+00
2.737219256520181e-01 3.475489921726956e-01 0.000000000000000e+00
2.777238527830208e-01 3.420263797290435e-01 0.000000000000000e+00
2.818377023238692e-01 3.365835587794019e-01 0.000000000000000e+00
2.862600437425201e-01 3.310390875230936e-01 0.000000000000000e+00
2.906896902404740e-01 3.258152875301987e-01 0.000000000000000e+00
2.952504883539332e-01 3.207015495101058e-01 0.000000000000000e+00
2.999536506914732e-01 3.156346642182736e-01 0.000000000000000e+00
3.048658543751956e-01 3.106696002589676e-01 0.000000000000000e+00
3.097220373107548e-01 3.059643182117422e-01 0.000000000000000e+00
3.148053671546657e-01 3.013016800560914e-01 0.000000000000000e+00
3.201347607366777e-01 2.966859115831830e-01 0.000000000000000e+00
3.253555581515813e-01 2.923322237298941e-01 0.000000000000000e+00
3.307502175388790e-01 2.880759871733843e-01 0.000000000000000e+00
3.364443904773455e-01 2.838609806404681e-01 0.000000000000000e+00
3.419639423388418e-01 2.799533402841727e-01 0.000000000000000e+00
3.476726316325029e-01 2.761089332288467e-01 0.000000000000000e+00
3.537023457240235e-01 2.722544983867484e-01 0.000000000000000e+00
3.592551932799895e-01 2.689830243551276e-01 0.000000000000000e+00
3.654557855921806e-01 2.654388755647751e-01 0.000000000000000e+00
3.717100889002394e-01 2.620224192541034e-01 0.000000000000000e+00
3.774945482328115e-01 2.591205582493402e-01 0.000000000000000e+00
3.841385068306101e-01 2.559786914989607e-01 0.000000000000000e+00
3.900176569405912e-01 2.535331614502095e-01 0.000000000000000e+00
3.965440672019467e-01 2.506437560600780e-01 0.000000000000000e+00
4.031228652564046e-01 2.480480109143117e-01 0.000000000000000e+00
4.092895261327647e-01 2.461385124227609e-01 0.000000000000000e+00
4.163522063439796e-01 2.434591339561383e-01 0.000000000000000e+00
4.223820847746598e-01 2.418846612122467e-01 0.000000000000000e+00
4.295474654349152e-01 2.397110130664457e-01 0.000000000000000e+00
4.357440557197018e-01 2.384452154960338e-01 0.000000000000000e+00
4.425680379614227e-01 2.368025342849061e-01 0.000000000000000e+00
4.495707712726009e-01 2.353091980570089e-01 0.000000000000000e+00
4.560875357614592e-01 2.342453173124476e-01 0.000000000000000e+00
4.632679387828669e-01 2.331178896603274e-01 0.000000000000000e+00
4.698379486971311e-01 2.323395289688298e-01 0.000000000000000e+00
4.769962198899065e-01 2.315563646140263e-01 0.000000000000000e+00
4.837159870909997e-01 2.310743786487853e-01 0.000000000000000e+00
4.907652957434311e-01 2.306753966078634e-01 0.000000000000000e+00
4.976191966275186e-01 2.304788898527221e-01 0.000000000000000e+00
5.046460365690250e-01 2.304354570180804e-01 0.000000000000000e+00
5.115040001311564e-01 2.305567247979939e-01 0.000000000000000e+00
5.185804039985145e-01 2.308896477154930e-01 0.000000000000000e+00
5.253126009912670e-01 2.312999951429753e-01 0.000000000000000e+00
5.323924772859752e-01 2.319643948819530e-01 0.000000000000000e+00
5.391543435223323e-01 2.327166892771474e-01 0.000000000000000e+00
5.461622969921007e-01 2.337436535128236e-01 0.000000000000000e+00
5.530829755960559e-01 2.348984676663999e-01 0.000000000000000e+00
5.595894950392336e-01 2.360706402708306e-01 0.000000000000000e+00
5.668482888777129e-01 2.377694139994163e-01 0.000000000000000e+00
5.725556283057402e-01 2.388036703139106e-01 0.000000000000000e+00
5.798748794440006e-01 2.409625418581274e-01 0.000000000000000e+00
5.858727882648881e-01 2.425548338128715e-01 0.000000000000000e+00
5.928642986779070e-01 2.449465425867085e-01 0.000000000000000e+00
5.994066790944472e-01 2.471956126501371e-01 0.000000000000000e+00
6.054814691256188e-01 2.492623766067314e-01 0.000000000000000e+00
6.123921126186984e-01 2.523132423249588e-01 0.000000000000000e+00
6.178894599710817e-01 2.544714235681089e-01 0.000000000000000e+00
6.246609494128510e-01 2.576061775073615e-01 0.000000000000000e+00
6.306504776959515e-01 2.605508038747110e-01 0.000000000000000e+00
6.367342751924996e-01 2.637504232881352e-01 0.000000000000000e+00
6.430553461424821e-01 2.672610638721447e-01 0.000000000000000e+00
6.486426436626535e-01 2.705017698363219e-01 0.000000000000000e+00
6.547046258836456e-01 2.742565715517028e-01 0.000000000000000e+00
6.604624286572187e-01 2.780250973986439e-01 0.000000000000000e+00
6.660640056557998e-01 2.818897171648928e-01 0.000000000000000e+00
6.718372633943944e-01 2.860941351091338e-01 0.000000000000000e+00
6.772419416958955e-01 2.902213758314249e-01 0.000000000000000e+00
6.825519900388903e-01 2.945336350702318e-01 0.000000000000000e+00
6.879004937296878e-01 2.990876255960994e-01 0.000000000000000e+00
6.930292137710815e-01 3.036213451191700e-01 0.000000000000000e+00
6.979742724661790e-01 3.083095684234444e-01 0.000000000000000e+00
7.029487943331523e-01 3.132552152193265e-01 0.000000000000000e+00
7.077703591774838e-01 3.182478385039368e-01 0.000000000000000e+00
7.123809797177499e-01 3.233087347542816e-01 0.000000000000000e+00
7.168755056074906e-01 3.285057314077495e-01 0.000000000000000e+00
7.212840759863982e-01 3.338659049981660e-01 0.000000000000000e+00
7.255846215936698e-01 3.393680034417869e-01 0.000000000000000e+00
7.295675119398048e-01 3.447472556486551e-01 0.000000000000000e+00
7.336604107030708e-01 3.505717885175322e-01 0.000000000000000e+00
7.374624017765020e-01 3.563273415015408e-01 0.000000000000000e+00
7.410394657294366e-01 3.620071705061306e-01 0.000000000000000e+00
7.447771119055194e-01 3.682750687465320e-01 0.000000000000000e+00
7.477839516930185e-01 3.738564570717605e-01 0.000000000000000e+00
7.511557391647607e-01 3.801772514429423e-01 0.000000000000000e+00
7.542557714044600e-01 3.864445203394242e-01 0.000000000000000e+00
7.569496587734978e-01 3.924161922260719e-01 0.000000000000000e+00
7.600233457852300e-01 3.993226847176619e-01 0.000000000000000e+00
7.619929040580243e-01 4.049696263748372e-01 0.000000000000000e+00
7.647101894524725e-01 4.118007163274738e-01 0.000000000000000e+00
7.667919046408063e-01 4.182032203628198e-01 0.000000000000000e+00
7.687968156883137e-01 4.248030509615126e-01 0.000000000000000e+00
7.709412144439004e-01 4.317467588362832e-01 0.000000000000000e+00
7.722294641324579e-01 4.379905406984097e-01 0.000000000000000e+00
7.741362566867125e-01 4.452857274587887e-01 0.000000000000000e+00
7.751030344984793e-01 4.514688126818326e-01 0.000000000000000e+00
7.764783987921969e-01 4.586597546353213e-01 0.000000000000000e+00
7.773349418434264e-01 4.652634982590989e-01 0.000000000000000e+00
7.782011505025543e-01 4.722989763951305e-01 0.000000000000000e+00
7.787913212832592e-01 4.791270667866655e-01 0.000000000000000e+00
7.792657146919577e-01 4.860874525539350e-01 0.000000000000000e+00
7.795415893212891e-01 4.930594448732696e-01 0.000000000000000e+00

POINT_DATA   249
SCALARS fX_Lag double
LOOKUP_TABLE default

-1.860237e+01 
-1.828624e+01 
-1.985131e+01 
-1.157671e+01 
-2.760289e+01 
9.656455e-01 
-5.188302e+01 
4.086008e+01 
-9.399819e+01 
6.185412e+01 
-8.561716e+01 
1.394801e+01 
-7.677509e+00 
-6.355444e+01 
7.477097e+01 
-1.104110e+02 
3.797860e+01 
-4.061521e+01 
-2.717276e+01 
3.649450e+01 
-7.307941e+01 
1.605548e+01 
-2.249201e+01 
-2.908860e+01 
1.099997e+01 
-3.176488e+01 
-1.080488e+01 
-8.593297e+00 
-1.160747e+01 
-2.109857e+01 
-1.529570e+01 
2.950229e+00 
-1.836928e+01 
-2.198021e+01 
3.849115e+00 
-9.465198e+00 
-3.685837e+01 
1.716649e+01 
-1.562212e+01 
-3.041544e+01 
4.746397e+01 
-7.337819e+01 
2.372820e+01 
9.425879e+00 
-7.819207e+01 
1.274095e+02 
-1.413282e+02 
8.358422e+01 
-4.675829e+01 
-4.491182e+01 
9.935743e+01 
-1.321322e+02 
1.611891e+02 
-1.551447e+02 
7.522691e+01 
-4.141599e+01 
-8.727276e+00 
2.460812e+01 
-3.180030e+01 
3.476776e+01 
-3.442016e+01 
2.184372e+01 
-1.688759e+01 
1.729373e+01 
-1.954036e+01 
3.295339e+01 
-4.384997e+01 
5.882511e+01 
-6.103836e+01 
6.636334e+01 
-4.859661e+01 
1.787546e+01 
6.273909e+01 
-9.687592e+01 
1.135489e+02 
-1.032794e+02 
8.960160e+01 
-4.121626e+01 
5.243043e+00 
6.472394e+01 
-7.647642e+01 
8.594734e+01 
-4.698653e+01 
5.373956e+00 
6.477343e+01 
-4.768306e+01 
3.209955e+01 
1.891253e+01 
-1.745851e+01 
2.995047e+01 
1.738684e+01 
-1.085979e+01 
2.460678e+01 
2.271602e+01 
-5.604285e+00 
2.090540e+01 
1.423725e+01 
1.311313e+01 
7.315829e-01 
3.084739e+01 
1.119332e+01 
-3.328280e+00 
5.722013e+01 
-2.622442e+01 
1.869406e+01 
4.375928e+01 
-2.501216e+01 
8.130686e+01 
-5.395505e+01 
4.984680e+01 
2.846768e+01 
-4.118373e+01 
1.201718e+02 
-8.855392e+01 
9.377282e+01 
-2.553529e+01 
2.992119e+01 
2.223353e+01 
-4.733967e+00 
4.721767e+01 
-4.149097e+00 
3.334862e+01 
6.978922e+00 
2.326188e+01 
1.665937e+01 
1.665937e+01 
2.326188e+01 
6.978922e+00 
3.334862e+01 
-4.149097e+00 
4.721767e+01 
-4.733967e+00 
2.223353e+01 
2.992119e+01 
-2.553529e+01 
9.377282e+01 
-8.855392e+01 
1.201718e+02 
-4.118373e+01 
2.846768e+01 
4.984680e+01 
-5.395505e+01 
8.130686e+01 
-2.501216e+01 
4.375928e+01 
1.869406e+01 
-2.622442e+01 
5.722013e+01 
-3.328280e+00 
1.119332e+01 
3.084739e+01 
7.315829e-01 
1.311313e+01 
1.423725e+01 
2.090540e+01 
-5.604285e+00 
2.271602e+01 
2.460678e+01 
-1.085979e+01 
1.738684e+01 
2.995047e+01 
-1.745851e+01 
1.891253e+01 
3.209955e+01 
-4.768306e+01 
6.477343e+01 
5.373956e+00 
-4.698653e+01 
8.594734e+01 
-7.647642e+01 
6.472394e+01 
5.243043e+00 
-4.121626e+01 
8.960160e+01 
-1.032794e+02 
1.135489e+02 
-9.687592e+01 
6.273909e+01 
1.787546e+01 
-4.859661e+01 
6.636334e+01 
-6.103836e+01 
5.882511e+01 
-4.384997e+01 
3.295339e+01 
-1.954036e+01 
1.729373e+01 
-1.688759e+01 
2.184372e+01 
-3.442016e+01 
3.476776e+01 
-3.180030e+01 
2.460812e+01 
-8.727276e+00 
-4.141599e+01 
7.522691e+01 
-1.551447e+02 
1.611891e+02 
-1.321322e+02 
9.935743e+01 
-4.491182e+01 
-4.675829e+01 
8.358422e+01 
-1.413282e+02 
1.274095e+02 
-7.819207e+01 
9.425879e+00 
2.372820e+01 
-7.337819e+01 
4.746397e+01 
-3.041544e+01 
-1.562212e+01 
1.716649e+01 
-3.685837e+01 
-9.465198e+00 
3.849115e+00 
-2.198021e+01 
-1.836928e+01 
2.950229e+00 
-1.529570e+01 
-2.109857e+01 
-1.160747e+01 
-8.593297e+00 
-1.080488e+01 
-3.176488e+01 
1.099997e+01 
-2.908860e+01 
-2.249201e+01 
1.605548e+01 
-7.307941e+01 
3.649450e+01 
-2.717276e+01 
-4.061521e+01 
3.797860e+01 
-1.104110e+02 
7.477097e+01 
-6.355444e+01 
-7.677509e+00 
1.394801e+01 
-8.561716e+01 
6.185412e+01 
-9.399819e+01 
4.086008e+01 
-5.188302e+01 
9.656455e-01 
-2.760289e+01 
-1.157671e+01 
-1.985131e+01 
-1.828624e+01 
