# vtk DataFile Version 2.0
fY_Lag
ASCII
DATASET UNSTRUCTURED_GRID

FIELD FieldData 1
TIME 1 1 double
0.14000000
POINTS 249 float
8.706619562485183e-01 5.000000000000000e-01 0.000000000000000e+00
8.704895549175596e-01 5.067981883953260e-01 0.000000000000000e+00
8.700293503504671e-01 5.135669539816070e-01 0.000000000000000e+00
8.692265968820132e-01 5.203416307259603e-01 0.000000000000000e+00
8.681958581882917e-01 5.270359539736393e-01 0.000000000000000e+00
8.668037106984927e-01 5.337186068749772e-01 0.000000000000000e+00
8.652067619921309e-01 5.402979993712531e-01 0.000000000000000e+00
8.632187049879290e-01 5.468741606695452e-01 0.000000000000000e+00
8.610019938308224e-01 5.533486239922581e-01 0.000000000000000e+00
8.584079056562274e-01 5.597709592441241e-01 0.000000000000000e+00
8.556441704111324e-01 5.660146764647844e-01 0.000000000000000e+00
8.525745392087092e-01 5.721576991169441e-01 0.000000000000000e+00
8.493013124569102e-01 5.781877259401479e-01 0.000000000000000e+00
8.456832614263270e-01 5.841182122667107e-01 0.000000000000000e+00
8.418766056083345e-01 5.899280142037138e-01 0.000000000000000e+00
8.378153968130079e-01 5.955608777923472e-01 0.000000000000000e+00
8.335618003853551e-01 6.010684588462618e-01 0.000000000000000e+00
8.290450764610181e-01 6.064503522182887e-01 0.000000000000000e+00
8.243433399375526e-01 6.116730972883584e-01 0.000000000000000e+00
8.194312550272219e-01 6.167654265597835e-01 0.000000000000000e+00
8.143089440553695e-01 6.216984406912786e-01 0.000000000000000e+00
8.090273655958961e-01 6.264918033076784e-01 0.000000000000000e+00
8.035587034206850e-01 6.310953765618064e-01 0.000000000000000e+00
7.978987910885910e-01 6.356020800867005e-01 0.000000000000000e+00
7.920823193167748e-01 6.399248576241112e-01 0.000000000000000e+00
7.861039926197058e-01 6.440871451178626e-01 0.000000000000000e+00
7.799739130761972e-01 6.480972346182331e-01 0.000000000000000e+00
7.737166689967135e-01 6.519349575392914e-01 0.000000000000000e+00
7.673000436651335e-01 6.556633335722190e-01 0.000000000000000e+00
7.607284558985421e-01 6.592250364403914e-01 0.000000000000000e+00
7.540632807629765e-01 6.625659617624170e-01 0.000000000000000e+00
7.473096966394003e-01 6.657909124864214e-01 0.000000000000000e+00
7.402580281925474e-01 6.690031114551833e-01 0.000000000000000e+00
7.332835174659665e-01 6.718739808138930e-01 0.000000000000000e+00
7.261833470454241e-01 6.746535831858989e-01 0.000000000000000e+00
7.188932504428936e-01 6.773398145060273e-01 0.000000000000000e+00
7.116235196921958e-01 6.798111592953193e-01 0.000000000000000e+00
7.041370705912421e-01 6.822269544913554e-01 0.000000000000000e+00
6.966801542568672e-01 6.844462040488214e-01 0.000000000000000e+00
6.890514655455259e-01 6.865922811303466e-01 0.000000000000000e+00
6.813874502586823e-01 6.885695024478555e-01 0.000000000000000e+00
6.737456681468050e-01 6.903928003030830e-01 0.000000000000000e+00
6.658670631830781e-01 6.921717410871847e-01 0.000000000000000e+00
6.580721033712345e-01 6.937503458828584e-01 0.000000000000000e+00
6.501760128081060e-01 6.952684086987814e-01 0.000000000000000e+00
6.421433451953554e-01 6.966869774887753e-01 0.000000000000000e+00
6.342111625951274e-01 6.979525971363559e-01 0.000000000000000e+00
6.260839767812684e-01 6.991858026039611e-01 0.000000000000000e+00
6.180417188789854e-01 7.002560853203960e-01 0.000000000000000e+00
6.098605747104515e-01 7.012890994053597e-01 0.000000000000000e+00
6.017396506191726e-01 7.021922772871640e-01 0.000000000000000e+00
5.935154002783667e-01 7.030433080032603e-01 0.000000000000000e+00
5.853221164192135e-01 7.037789944986971e-01 0.000000000000000e+00
5.770674114268690e-01 7.044565937270777e-01 0.000000000000000e+00
5.688056211908170e-01 7.050406762048058e-01 0.000000000000000e+00
5.604741601511609e-01 7.055706845175144e-01 0.000000000000000e+00
5.522224594525338e-01 7.059973707506091e-01 0.000000000000000e+00
5.438568430375883e-01 7.064013060468187e-01 0.000000000000000e+00
5.355364512951325e-01 7.066905939613610e-01 0.000000000000000e+00
5.271703132606501e-01 7.069528315329798e-01 0.000000000000000e+00
5.188327650600473e-01 7.071232325432932e-01 0.000000000000000e+00
5.104401881064254e-01 7.072464153749672e-01 0.000000000000000e+00
5.021148996833330e-01 7.072885214624505e-01 0.000000000000000e+00
4.937129713155398e-01 7.072805134290613e-01 0.000000000000000e+00
4.853754709106528e-01 7.071888180288511e-01 0.000000000000000e+00
4.769967444769775e-01 7.070560512651635e-01 0.000000000000000e+00
4.686470198275168e-01 7.068203337712696e-01 0.000000000000000e+00
4.603272439450795e-01 7.065693848682024e-01 0.000000000000000e+00
4.519384610702603e-01 7.061986263643328e-01 0.000000000000000e+00
4.436880233899108e-01 7.058106537711405e-01 0.000000000000000e+00
4.353452026907169e-01 7.053059289744655e-01 0.000000000000000e+00
4.270941340477977e-01 7.047734098364061e-01 0.000000000000000e+00
4.187797665411907e-01 7.041123436304868e-01 0.000000000000000e+00
4.106115633013243e-01 7.034322839555481e-01 0.000000000000000e+00
4.023423855351810e-01 7.026194981409515e-01 0.000000000000000e+00
3.942247214568982e-01 7.017649867028175e-01 0.000000000000000e+00
3.860261716161298e-01 7.007783177299620e-01 0.000000000000000e+00
3.779624301074504e-01 6.997385061358046e-01 0.000000000000000e+00
3.698619079463505e-01 6.985868812441306e-01 0.000000000000000e+00
3.618494401860783e-01 6.973307678193369e-01 0.000000000000000e+00
3.538907311643890e-01 6.960095886138233e-01 0.000000000000000e+00
3.458540114097430e-01 6.945059164457510e-01 0.000000000000000e+00
3.380557527230280e-01 6.929783107100058e-01 0.000000000000000e+00
3.301853459855475e-01 6.912905871027545e-01 0.000000000000000e+00
3.224062355133556e-01 6.894663913602197e-01 0.000000000000000e+00
3.148003245653375e-01 6.875946707393377e-01 0.000000000000000e+00
3.071266787423105e-01 6.855203374676908e-01 0.000000000000000e+00
2.995998992129880e-01 6.833504956988183e-01 0.000000000000000e+00
2.921202743767030e-01 6.810414526966239e-01 0.000000000000000e+00
2.847208613101906e-01 6.785814111330052e-01 0.000000000000000e+00
2.774550396985638e-01 6.760226393317608e-01 0.000000000000000e+00
2.702261715859841e-01 6.732488305679638e-01 0.000000000000000e+00
2.632464380950612e-01 6.704621131895782e-01 0.000000000000000e+00
2.562120978972400e-01 6.674167858705420e-01 0.000000000000000e+00
2.492831890499102e-01 6.641568695417820e-01 0.000000000000000e+00
2.426165601032834e-01 6.609322868730799e-01 0.000000000000000e+00
2.359616363506515e-01 6.574635271253354e-01 0.000000000000000e+00
2.294736482608386e-01 6.538243191493016e-01 0.000000000000000e+00
2.231427759018529e-01 6.500395495382539e-01 0.000000000000000e+00
2.169444734375401e-01 6.461182548345203e-01 0.000000000000000e+00
2.108894674153718e-01 6.420300748865281e-01 0.000000000000000e+00
2.049854999961239e-01 6.377933435771720e-01 0.000000000000000e+00
1.992484850549835e-01 6.333714373314945e-01 0.000000000000000e+00
1.936860115965107e-01 6.288252076874317e-01 0.000000000000000e+00
1.883102615866960e-01 6.241157754122432e-01 0.000000000000000e+00
1.831158909455730e-01 6.192570132101626e-01 0.000000000000000e+00
1.780809224325842e-01 6.142406524766574e-01 0.000000000000000e+00
1.732937994534281e-01 6.090846042088709e-01 0.000000000000000e+00
1.686655057387826e-01 6.037809754976787e-01 0.000000000000000e+00
1.642997300942889e-01 5.983221568869858e-01 0.000000000000000e+00
1.601295188041386e-01 5.927650776790476e-01 0.000000000000000e+00
1.562043955919760e-01 5.870440732697509e-01 0.000000000000000e+00
1.524747248289556e-01 5.811716713498518e-01 0.000000000000000e+00
1.490339552395970e-01 5.751886451199544e-01 0.000000000000000e+00
1.458700745800407e-01 5.691137596790479e-01 0.000000000000000e+00
1.429551994363497e-01 5.629208770965707e-01 0.000000000000000e+00
1.402737696619124e-01 5.565820287601579e-01 0.000000000000000e+00
1.378583221803151e-01 5.501270688073693e-01 0.000000000000000e+00
1.357623457369099e-01 5.435949250106720e-01 0.000000000000000e+00
1.339675254658931e-01 5.370218434559210e-01 0.000000000000000e+00
1.324864474963837e-01 5.303864796554617e-01 0.000000000000000e+00
1.312712555069929e-01 5.236939069957084e-01 0.000000000000000e+00
1.303470094569885e-01 5.169622464299936e-01 0.000000000000000e+00
1.297060107398401e-01 5.101884929415836e-01 0.000000000000000e+00
1.293894871624302e-01 5.033942882504694e-01 0.000000000000000e+00
1.293894871624300e-01 4.966057117495338e-01 0.000000000000000e+00
1.297060107398403e-01 4.898115070584152e-01 0.000000000000000e+00
1.303470094569882e-01 4.830377535700062e-01 0.000000000000000e+00
1.312712555069925e-01 4.763060930042931e-01 0.000000000000000e+00
1.324864474963834e-01 4.696135203445407e-01 0.000000000000000e+00
1.339675254658924e-01 4.629781565440783e-01 0.000000000000000e+00
1.357623457369096e-01 4.564050749893285e-01 0.000000000000000e+00
1.378583221803149e-01 4.498729311926324e-01 0.000000000000000e+00
1.402737696619122e-01 4.434179712398416e-01 0.000000000000000e+00
1.429551994363492e-01 4.370791229034299e-01 0.000000000000000e+00
1.458700745800396e-01 4.308862403209492e-01 0.000000000000000e+00
1.490339552395966e-01 4.248113548800467e-01 0.000000000000000e+00
1.524747248289536e-01 4.188283286501511e-01 0.000000000000000e+00
1.562043955919756e-01 4.129559267302449e-01 0.000000000000000e+00
1.601295188041377e-01 4.072349223209509e-01 0.000000000000000e+00
1.642997300942869e-01 4.016778431130163e-01 0.000000000000000e+00
1.686655057387813e-01 3.962190245023217e-01 0.000000000000000e+00
1.732937994534265e-01 3.909153957911268e-01 0.000000000000000e+00
1.780809224325802e-01 3.857593475233445e-01 0.000000000000000e+00
1.831158909455701e-01 3.807429867898380e-01 0.000000000000000e+00
1.883102615866962e-01 3.758842245877553e-01 0.000000000000000e+00
1.936860115965081e-01 3.711747923125658e-01 0.000000000000000e+00
1.992484850549802e-01 3.666285626685081e-01 0.000000000000000e+00
2.049854999961236e-01 3.622066564228280e-01 0.000000000000000e+00
2.108894674153689e-01 3.579699251134749e-01 0.000000000000000e+00
2.169444734375398e-01 3.538817451654768e-01 0.000000000000000e+00
2.231427759018485e-01 3.499604504617465e-01 0.000000000000000e+00
2.294736482608360e-01 3.461756808507006e-01 0.000000000000000e+00
2.359616363506483e-01 3.425364728746663e-01 0.000000000000000e+00
2.426165601032798e-01 3.390677131269185e-01 0.000000000000000e+00
2.492831890499074e-01 3.358431304582199e-01 0.000000000000000e+00
2.562120978972374e-01 3.325832141294612e-01 0.000000000000000e+00
2.632464380950628e-01 3.295378868104182e-01 0.000000000000000e+00
2.702261715859797e-01 3.267511694320379e-01 0.000000000000000e+00
2.774550396985606e-01 3.239773606682402e-01 0.000000000000000e+00
2.847208613101876e-01 3.214185888669973e-01 0.000000000000000e+00
2.921202743767020e-01 3.189585473033757e-01 0.000000000000000e+00
2.995998992129823e-01 3.166495043011848e-01 0.000000000000000e+00
3.071266787423109e-01 3.144796625323089e-01 0.000000000000000e+00
3.148003245653337e-01 3.124053292606639e-01 0.000000000000000e+00
3.224062355133570e-01 3.105336086397820e-01 0.000000000000000e+00
3.301853459855456e-01 3.087094128972420e-01 0.000000000000000e+00
3.380557527230252e-01 3.070216892899988e-01 0.000000000000000e+00
3.458540114097451e-01 3.054940835542467e-01 0.000000000000000e+00
3.538907311643837e-01 3.039904113861797e-01 0.000000000000000e+00
3.618494401860771e-01 3.026692321806648e-01 0.000000000000000e+00
3.698619079463480e-01 3.014131187558690e-01 0.000000000000000e+00
3.779624301074491e-01 3.002614938641941e-01 0.000000000000000e+00
3.860261716161297e-01 2.992216822700395e-01 0.000000000000000e+00
3.942247214568962e-01 2.982350132971823e-01 0.000000000000000e+00
4.023423855351807e-01 2.973805018590496e-01 0.000000000000000e+00
4.106115633013230e-01 2.965677160444514e-01 0.000000000000000e+00
4.187797665411916e-01 2.958876563695138e-01 0.000000000000000e+00
4.270941340477942e-01 2.952265901635929e-01 0.000000000000000e+00
4.353452026907180e-01 2.946940710255360e-01 0.000000000000000e+00
4.436880233899089e-01 2.941893462288593e-01 0.000000000000000e+00
4.519384610702611e-01 2.938013736356662e-01 0.000000000000000e+00
4.603272439450768e-01 2.934306151317997e-01 0.000000000000000e+00
4.686470198275168e-01 2.931796662287309e-01 0.000000000000000e+00
4.769967444769768e-01 2.929439487348378e-01 0.000000000000000e+00
4.853754709106518e-01 2.928111819711476e-01 0.000000000000000e+00
4.937129713155385e-01 2.927194865709417e-01 0.000000000000000e+00
5.021148996833321e-01 2.927114785375501e-01 0.000000000000000e+00
5.104401881064241e-01 2.927535846250314e-01 0.000000000000000e+00
5.188327650600473e-01 2.928767674567100e-01 0.000000000000000e+00
5.271703132606486e-01 2.930471684670188e-01 0.000000000000000e+00
5.355364512951308e-01 2.933094060386389e-01 0.000000000000000e+00
5.438568430375872e-01 2.935986939531810e-01 0.000000000000000e+00
5.522224594525325e-01 2.940026292493925e-01 0.000000000000000e+00
5.604741601511612e-01 2.944293154824859e-01 0.000000000000000e+00
5.688056211908150e-01 2.949593237951929e-01 0.000000000000000e+00
5.770674114268687e-01 2.955434062729224e-01 0.000000000000000e+00
5.853221164192133e-01 2.962210055013026e-01 0.000000000000000e+00
5.935154002783670e-01 2.969566919967395e-01 0.000000000000000e+00
6.017396506191688e-01 2.978077227128328e-01 0.000000000000000e+00
6.098605747104529e-01 2.987109005946416e-01 0.000000000000000e+00
6.180417188789835e-01 2.997439146796033e-01 0.000000000000000e+00
6.260839767812659e-01 3.008141973960387e-01 0.000000000000000e+00
6.342111625951268e-01 3.020474028636450e-01 0.000000000000000e+00
6.421433451953517e-01 3.033130225112218e-01 0.000000000000000e+00
6.501760128081088e-01 3.047315913012235e-01 0.000000000000000e+00
6.580721033712301e-01 3.062496541171405e-01 0.000000000000000e+00
6.658670631830784e-01 3.078282589128162e-01 0.000000000000000e+00
6.737456681468073e-01 3.096071996969185e-01 0.000000000000000e+00
6.813874502586800e-01 3.114304975521449e-01 0.000000000000000e+00
6.890514655455240e-01 3.134077188696531e-01 0.000000000000000e+00
6.966801542568664e-01 3.155537959511774e-01 0.000000000000000e+00
7.041370705912363e-01 3.177730455086427e-01 0.000000000000000e+00
7.116235196921964e-01 3.201888407046813e-01 0.000000000000000e+00
7.188932504428931e-01 3.226601854939742e-01 0.000000000000000e+00
7.261833470454220e-01 3.253464168141005e-01 0.000000000000000e+00
7.332835174659651e-01 3.281260191861056e-01 0.000000000000000e+00
7.402580281925497e-01 3.309968885448165e-01 0.000000000000000e+00
7.473096966393968e-01 3.342090875135788e-01 0.000000000000000e+00
7.540632807629757e-01 3.374340382375831e-01 0.000000000000000e+00
7.607284558985403e-01 3.407749635596056e-01 0.000000000000000e+00
7.673000436651322e-01 3.443366664277794e-01 0.000000000000000e+00
7.737166689967124e-01 3.480650424607092e-01 0.000000000000000e+00
7.799739130761943e-01 3.519027653817625e-01 0.000000000000000e+00
7.861039926197055e-01 3.559128548821387e-01 0.000000000000000e+00
7.920823193167719e-01 3.600751423758859e-01 0.000000000000000e+00
7.978987910885905e-01 3.643979199132994e-01 0.000000000000000e+00
8.035587034206823e-01 3.689046234381915e-01 0.000000000000000e+00
8.090273655958958e-01 3.735081966923220e-01 0.000000000000000e+00
8.143089440553690e-01 3.783015593087202e-01 0.000000000000000e+00
8.194312550272198e-01 3.832345734402162e-01 0.000000000000000e+00
8.243433399375527e-01 3.883269027116427e-01 0.000000000000000e+00
8.290450764610170e-01 3.935496477817129e-01 0.000000000000000e+00
8.335618003853553e-01 3.989315411537383e-01 0.000000000000000e+00
8.378153968130051e-01 4.044391222076512e-01 0.000000000000000e+00
8.418766056083344e-01 4.100719857962886e-01 0.000000000000000e+00
8.456832614263253e-01 4.158817877332899e-01 0.000000000000000e+00
8.493013124569093e-01 4.218122740598518e-01 0.000000000000000e+00
8.525745392087072e-01 4.278423008830561e-01 0.000000000000000e+00
8.556441704111323e-01 4.339853235352167e-01 0.000000000000000e+00
8.584079056562276e-01 4.402290407558757e-01 0.000000000000000e+00
8.610019938308214e-01 4.466513760077459e-01 0.000000000000000e+00
8.632187049879283e-01 4.531258393304522e-01 0.000000000000000e+00
8.652067619921314e-01 4.597020006287467e-01 0.000000000000000e+00
8.668037106984929e-01 4.662813931250243e-01 0.000000000000000e+00
8.681958581882915e-01 4.729640460263616e-01 0.000000000000000e+00
8.692265968820138e-01 4.796583692740406e-01 0.000000000000000e+00
8.700293503504675e-01 4.864330460183920e-01 0.000000000000000e+00
8.704895549175600e-01 4.932018116046754e-01 0.000000000000000e+00

POINT_DATA   249
SCALARS fY_Lag double
LOOKUP_TABLE default

1.386979e-10 
-2.944776e+00 
5.889153e-01 
-8.033738e+00 
-1.168218e+00 
-1.032058e+01 
-3.292691e-01 
-1.017141e+01 
-5.232265e+00 
-1.785178e+01 
-1.006371e+01 
-1.129862e+01 
-9.955975e+00 
-1.207687e+01 
-1.768782e+01 
-1.252624e+01 
-1.257323e+01 
-1.590655e+01 
-1.304214e+01 
-1.593511e+01 
-1.395481e+01 
-1.898241e+01 
-9.692241e+00 
-1.838597e+01 
-1.604315e+01 
-1.521861e+01 
-1.723464e+01 
-1.093491e+01 
-1.665775e+01 
-2.207784e+01 
-1.159544e+01 
-1.273922e+00 
-3.413447e+01 
-9.120875e+00 
-9.336548e+00 
-2.148923e+01 
-5.556581e+00 
-1.965529e+01 
-7.318072e+00 
-1.688543e+01 
-1.539399e+01 
-4.437234e+00 
-2.003720e+01 
-6.054666e+00 
-9.950054e+00 
-1.529566e+01 
-3.242189e+00 
-1.629433e+01 
-3.729045e+00 
-1.298527e+01 
-5.215170e+00 
-1.153525e+01 
-5.809783e+00 
-9.353388e+00 
-5.409028e+00 
-1.033262e+01 
-2.274751e+00 
-1.146392e+01 
-2.704549e+00 
-9.184770e+00 
-4.723518e+00 
-8.109193e+00 
-5.012360e+00 
-8.368001e+00 
-4.106455e+00 
-1.029481e+01 
-1.524099e+00 
-1.198252e+01 
-1.722832e+00 
-1.167612e+01 
-2.778669e+00 
-1.285397e+01 
-1.899376e+00 
-1.327406e+01 
-4.174978e+00 
-1.321853e+01 
-5.315894e+00 
-1.118264e+01 
-1.044940e+01 
-6.507161e+00 
-1.825141e+01 
-2.394126e+00 
-1.601374e+01 
-1.364849e+01 
-4.753235e+00 
-2.026115e+01 
-9.552958e+00 
-1.392378e+01 
-1.510181e+01 
-9.874211e+00 
-2.150201e+01 
-1.284016e+00 
-2.585669e+01 
-2.146180e+01 
3.535265e+00 
-2.442062e+01 
-1.703950e+01 
-1.454865e+01 
-1.365149e+01 
-1.668529e+01 
-1.485544e+01 
-1.851074e+01 
-1.243152e+01 
-1.632788e+01 
-1.492451e+01 
-1.575696e+01 
-1.397500e+01 
-1.474911e+01 
-1.551868e+01 
-9.828484e+00 
-1.638535e+01 
-1.514221e+01 
-1.107078e+01 
-9.184484e+00 
-1.179847e+01 
-1.458269e+01 
-1.162083e+01 
-7.729970e+00 
-4.096269e+00 
-6.229299e+00 
-5.715508e+00 
-3.910478e+00 
-4.207352e+00 
-2.049702e+00 
5.619791e-01 
-5.619791e-01 
2.049702e+00 
4.207352e+00 
3.910478e+00 
5.715508e+00 
6.229299e+00 
4.096269e+00 
7.729970e+00 
1.162083e+01 
1.458269e+01 
1.179847e+01 
9.184484e+00 
1.107078e+01 
1.514221e+01 
1.638535e+01 
9.828484e+00 
1.551868e+01 
1.474911e+01 
1.397500e+01 
1.575696e+01 
1.492451e+01 
1.632788e+01 
1.243152e+01 
1.851074e+01 
1.485544e+01 
1.668529e+01 
1.365149e+01 
1.454865e+01 
1.703950e+01 
2.442062e+01 
-3.535265e+00 
2.146180e+01 
2.585669e+01 
1.284016e+00 
2.150201e+01 
9.874211e+00 
1.510181e+01 
1.392378e+01 
9.552958e+00 
2.026115e+01 
4.753235e+00 
1.364849e+01 
1.601374e+01 
2.394126e+00 
1.825141e+01 
6.507161e+00 
1.044940e+01 
1.118264e+01 
5.315894e+00 
1.321853e+01 
4.174978e+00 
1.327406e+01 
1.899376e+00 
1.285397e+01 
2.778669e+00 
1.167612e+01 
1.722832e+00 
1.198252e+01 
1.524099e+00 
1.029481e+01 
4.106455e+00 
8.368001e+00 
5.012360e+00 
8.109193e+00 
4.723518e+00 
9.184770e+00 
2.704549e+00 
1.146392e+01 
2.274751e+00 
1.033262e+01 
5.409028e+00 
9.353388e+00 
5.809783e+00 
1.153525e+01 
5.215170e+00 
1.298527e+01 
3.729045e+00 
1.629433e+01 
3.242189e+00 
1.529566e+01 
9.950054e+00 
6.054666e+00 
2.003720e+01 
4.437234e+00 
1.539399e+01 
1.688543e+01 
7.318072e+00 
1.965529e+01 
5.556581e+00 
2.148923e+01 
9.336548e+00 
9.120875e+00 
3.413447e+01 
1.273922e+00 
1.159544e+01 
2.207784e+01 
1.665775e+01 
1.093491e+01 
1.723464e+01 
1.521861e+01 
1.604315e+01 
1.838597e+01 
9.692241e+00 
1.898241e+01 
1.395481e+01 
1.593511e+01 
1.304214e+01 
1.590655e+01 
1.257323e+01 
1.252624e+01 
1.768782e+01 
1.207687e+01 
9.955975e+00 
1.129862e+01 
1.006371e+01 
1.785178e+01 
5.232265e+00 
1.017141e+01 
3.292691e-01 
1.032058e+01 
1.168218e+00 
8.033738e+00 
-5.889153e-01 
2.944776e+00 
