# vtk DataFile Version 2.0
fMag
ASCII
DATASET UNSTRUCTURED_GRID

FIELD FieldData 1
TIME 1 1 double
2.15000000
POINTS 33 float
2.959993612864701e+00 2.495408725255427e+00 0.000000000000000e+00
2.952954677443879e+00 2.490114626984364e+00 0.000000000000000e+00
2.943694516208002e+00 2.492533926534727e+00 0.000000000000000e+00
2.940915690854764e+00 2.501637256654432e+00 0.000000000000000e+00
2.947699170526083e+00 2.509293580033006e+00 0.000000000000000e+00
2.956122051415571e+00 2.507607898033668e+00 0.000000000000000e+00
2.960872517938547e+00 2.499457520592768e+00 0.000000000000000e+00
2.999907825186907e+00 2.499678869576447e+00 0.000000000000000e+00
3.039275849274964e+00 2.499617992907989e+00 0.000000000000000e+00
3.078273038916098e+00 2.500229907668102e+00 0.000000000000000e+00
3.118653989502147e+00 2.499839541874149e+00 0.000000000000000e+00
3.157627191546535e+00 2.500456669537756e+00 0.000000000000000e+00
3.197651833619804e+00 2.500483613882841e+00 0.000000000000000e+00
3.236609688892348e+00 2.500626251206723e+00 0.000000000000000e+00
3.275916264449676e+00 2.500879344299288e+00 0.000000000000000e+00
3.315283552459735e+00 2.500943284860455e+00 0.000000000000000e+00
3.354654307512534e+00 2.501309557618001e+00 0.000000000000000e+00
3.394021456210256e+00 2.501297880980673e+00 0.000000000000000e+00
3.433257380839485e+00 2.501629211502362e+00 0.000000000000000e+00
3.472606191874264e+00 2.501705472447276e+00 0.000000000000000e+00
3.511926037632740e+00 2.502012308579515e+00 0.000000000000000e+00
3.551319548001153e+00 2.502083839368133e+00 0.000000000000000e+00
3.590520357066481e+00 2.502362761711353e+00 0.000000000000000e+00
3.629770123855264e+00 2.502500758402745e+00 0.000000000000000e+00
3.669161649192832e+00 2.502757869153083e+00 0.000000000000000e+00
3.708497900284775e+00 2.502886243366658e+00 0.000000000000000e+00
3.747695476018200e+00 2.503135338979560e+00 0.000000000000000e+00
3.786907623222525e+00 2.503321083952650e+00 0.000000000000000e+00
3.826394174020654e+00 2.503554430126202e+00 0.000000000000000e+00
3.865673834114839e+00 2.503691420363388e+00 0.000000000000000e+00
3.904807523758349e+00 2.503989906210021e+00 0.000000000000000e+00
3.943980074120048e+00 2.504154297064255e+00 0.000000000000000e+00
3.983675457148799e+00 2.504377502459582e+00 0.000000000000000e+00

POINT_DATA   33
SCALARS fMag double
LOOKUP_TABLE default

2.217590e+01 
2.498279e+01 
8.907634e+00 
3.420531e+01 
4.743102e+01 
4.065039e+01 
7.117443e+01 
4.104763e+01 
2.507275e+01 
1.219006e+02 
1.394251e+02 
3.489150e+01 
8.126265e+01 
4.547342e+01 
8.982761e+00 
1.115271e+01 
3.542314e+01 
1.550070e+01 
1.910160e+01 
1.004704e+01 
1.165789e+01 
1.202785e+01 
1.311927e+01 
1.177474e+01 
7.214837e+00 
1.450056e+01 
1.132414e+01 
2.303696e+01 
6.209040e+00 
2.745725e+01 
1.664188e+01 
1.542555e+01 
2.204525e+01 
