# vtk DataFile Version 2.0
fMag
ASCII
DATASET UNSTRUCTURED_GRID

FIELD FieldData 1
TIME 1 1 double
0.12500000
POINTS 33 float
2.960028740116024e+00 2.495885499075539e+00 0.000000000000000e+00
2.952669814237348e+00 2.490140539716760e+00 0.000000000000000e+00
2.943736452914854e+00 2.493081371500411e+00 0.000000000000000e+00
2.941136530757988e+00 2.502103764448233e+00 0.000000000000000e+00
2.947236964059760e+00 2.509273561436057e+00 0.000000000000000e+00
2.956555255960423e+00 2.508288829200137e+00 0.000000000000000e+00
2.960901523134059e+00 2.500003120363227e+00 0.000000000000000e+00
2.999990436515600e+00 2.500003062679770e+00 0.000000000000000e+00
3.039063654081652e+00 2.500003076904559e+00 0.000000000000000e+00
3.078122897794545e+00 2.500003148425589e+00 0.000000000000000e+00
3.117187402193042e+00 2.500003270982367e+00 0.000000000000000e+00
3.156255903714902e+00 2.500003426849999e+00 0.000000000000000e+00
3.195321923572341e+00 2.500003564635554e+00 0.000000000000000e+00
3.234386037991485e+00 2.500003689248846e+00 0.000000000000000e+00
3.273451060601595e+00 2.500003821412071e+00 0.000000000000000e+00
3.312516741573690e+00 2.500003959572372e+00 0.000000000000000e+00
3.351581971700545e+00 2.500004094913358e+00 0.000000000000000e+00
3.390646760519555e+00 2.500004227946364e+00 0.000000000000000e+00
3.429711510060486e+00 2.500004361541755e+00 0.000000000000000e+00
3.468776272616536e+00 2.500004495967826e+00 0.000000000000000e+00
3.507841096984459e+00 2.500004630766401e+00 0.000000000000000e+00
3.546905778784263e+00 2.500004765556072e+00 0.000000000000000e+00
3.585970051643098e+00 2.500004899639249e+00 0.000000000000000e+00
3.625034162501187e+00 2.500005033492220e+00 0.000000000000000e+00
3.664098671724981e+00 2.500005168136115e+00 0.000000000000000e+00
3.703163143441044e+00 2.500005303144102e+00 0.000000000000000e+00
3.742226795199078e+00 2.500005437430397e+00 0.000000000000000e+00
3.781290223659354e+00 2.500005571385667e+00 0.000000000000000e+00
3.820354682774381e+00 2.500005706050633e+00 0.000000000000000e+00
3.859419069010924e+00 2.500005840964888e+00 0.000000000000000e+00
3.898481401292908e+00 2.500005975114222e+00 0.000000000000000e+00
3.937543772996714e+00 2.500006109624479e+00 0.000000000000000e+00
3.976609974208419e+00 2.500006244172065e+00 0.000000000000000e+00

POINT_DATA   33
SCALARS fMag double
LOOKUP_TABLE default

1.714376e+00 
2.403682e+00 
1.577092e-01 
1.279189e+00 
1.636225e+00 
6.615973e-01 
1.969489e+00 
1.540280e-01 
3.781540e-01 
1.851088e-01 
1.044253e-01 
6.222333e-02 
4.893805e-02 
2.282879e-02 
1.722881e-02 
1.128406e-02 
1.122746e-02 
9.873079e-04 
8.569755e-04 
1.618948e-03 
3.563827e-03 
1.023335e-02 
4.049670e-03 
9.973582e-03 
9.669924e-04 
2.049883e-02 
5.583466e-03 
2.576853e-02 
1.824505e-03 
5.134040e-02 
9.879369e-04 
9.572802e-02 
9.251588e-02 
