# vtk DataFile Version 2.0
fMag
ASCII
DATASET UNSTRUCTURED_GRID

FIELD FieldData 1
TIME 1 1 double
0.42500000
POINTS 33 float
2.959985943262641e+00 2.495853388406329e+00 0.000000000000000e+00
2.952709750173293e+00 2.490111680398310e+00 0.000000000000000e+00
2.943786708204753e+00 2.493120960265797e+00 0.000000000000000e+00
2.941091948827349e+00 2.502095684329667e+00 0.000000000000000e+00
2.947288040194964e+00 2.509241874203794e+00 0.000000000000000e+00
2.956585378039096e+00 2.508331025258588e+00 0.000000000000000e+00
2.960839764915964e+00 2.500021658991607e+00 0.000000000000000e+00
2.999975821070815e+00 2.500020670415655e+00 0.000000000000000e+00
3.039066718339785e+00 2.500019961457999e+00 0.000000000000000e+00
3.078116667044464e+00 2.500019962799477e+00 0.000000000000000e+00
3.117181747487505e+00 2.500020164804005e+00 0.000000000000000e+00
3.156258048917647e+00 2.500020486721653e+00 0.000000000000000e+00
3.195326557983789e+00 2.500020745423133e+00 0.000000000000000e+00
3.234389550722402e+00 2.500020959046162e+00 0.000000000000000e+00
3.273456248347719e+00 2.500021199902510e+00 0.000000000000000e+00
3.312525381853867e+00 2.500021459675351e+00 0.000000000000000e+00
3.351592349239515e+00 2.500021710642923e+00 0.000000000000000e+00
3.390657817635446e+00 2.500021952748227e+00 0.000000000000000e+00
3.429724328774401e+00 2.500022198160980e+00 0.000000000000000e+00
3.468791457013213e+00 2.500022446113361e+00 0.000000000000000e+00
3.507857839945445e+00 2.500022695027759e+00 0.000000000000000e+00
3.546923550488824e+00 2.500022943261929e+00 0.000000000000000e+00
3.585989274481115e+00 2.500023190508709e+00 0.000000000000000e+00
3.625055102957246e+00 2.500023437235674e+00 0.000000000000000e+00
3.664121069527227e+00 2.500023685421749e+00 0.000000000000000e+00
3.703186674789478e+00 2.500023934482924e+00 0.000000000000000e+00
3.742251284173099e+00 2.500024183253906e+00 0.000000000000000e+00
3.781315769181020e+00 2.500024431420327e+00 0.000000000000000e+00
3.820381784871639e+00 2.500024678579109e+00 0.000000000000000e+00
3.859447468041287e+00 2.500024927106208e+00 0.000000000000000e+00
3.898509654308512e+00 2.500025179670830e+00 0.000000000000000e+00
3.937572094703452e+00 2.500025425511129e+00 0.000000000000000e+00
3.976641420642039e+00 2.500025675145984e+00 0.000000000000000e+00

POINT_DATA   33
SCALARS fMag double
LOOKUP_TABLE default

5.491861e+00 
4.980597e+00 
2.032746e+00 
3.635408e+00 
4.325664e+00 
6.091657e-01 
5.305532e+00 
5.402410e-01 
1.132008e+00 
5.993712e-01 
3.031639e-01 
1.954345e-01 
1.431675e-01 
9.301059e-02 
6.325058e-02 
5.420317e-02 
3.814467e-02 
2.605980e-02 
1.567368e-02 
1.867020e-02 
1.682166e-02 
1.066386e-03 
2.613015e-03 
3.573869e-03 
9.079059e-03 
2.490698e-02 
3.226508e-03 
3.826118e-02 
8.493036e-03 
8.743509e-02 
6.592264e-03 
1.721271e-01 
1.706594e-01 
