# vtk DataFile Version 2.0
fNorm
ASCII
DATASET UNSTRUCTURED_GRID

FIELD FieldData 1
TIME 1 1 double
2.07500000
POINTS 33 float
2.959682061209285e+00 2.495223548819083e+00 0.000000000000000e+00
2.952590430018403e+00 2.489788042389223e+00 0.000000000000000e+00
2.943714103292781e+00 2.492969962736819e+00 0.000000000000000e+00
2.941024330643733e+00 2.502409298432475e+00 0.000000000000000e+00
2.947849722343636e+00 2.509186970080649e+00 0.000000000000000e+00
2.956510143306031e+00 2.507373286795370e+00 0.000000000000000e+00
2.960812433201777e+00 2.499384907264751e+00 0.000000000000000e+00
2.999723581913985e+00 2.503335896684564e+00 0.000000000000000e+00
3.038515009344837e+00 2.507055626052273e+00 0.000000000000000e+00
3.077052562732626e+00 2.511511137975271e+00 0.000000000000000e+00
3.116597263796102e+00 2.515509651900777e+00 0.000000000000000e+00
3.155340378144191e+00 2.520257638242228e+00 0.000000000000000e+00
3.194796710107669e+00 2.524510537212620e+00 0.000000000000000e+00
3.233504572181617e+00 2.528813615551415e+00 0.000000000000000e+00
3.272586558838044e+00 2.533319693826587e+00 0.000000000000000e+00
3.311439726654500e+00 2.537512383576999e+00 0.000000000000000e+00
3.350401070851528e+00 2.542035813031358e+00 0.000000000000000e+00
3.389343105421496e+00 2.546273321930227e+00 0.000000000000000e+00
3.428296241173434e+00 2.550729276032103e+00 0.000000000000000e+00
3.467202838128316e+00 2.554994819258275e+00 0.000000000000000e+00
3.506078087879779e+00 2.559449074118645e+00 0.000000000000000e+00
3.545054909988786e+00 2.563712040046022e+00 0.000000000000000e+00
3.583967484494159e+00 2.568155282174528e+00 0.000000000000000e+00
3.622807893164574e+00 2.572417906898456e+00 0.000000000000000e+00
3.661759066070289e+00 2.576843196535718e+00 0.000000000000000e+00
3.700640297417605e+00 2.581136694817725e+00 0.000000000000000e+00
3.739538356522602e+00 2.585527306718362e+00 0.000000000000000e+00
3.778331802685246e+00 2.589811537020713e+00 0.000000000000000e+00
3.817343214165532e+00 2.594209168614853e+00 0.000000000000000e+00
3.856182222914728e+00 2.598538030279263e+00 0.000000000000000e+00
3.895002972046208e+00 2.602844768055145e+00 0.000000000000000e+00
3.933801493844717e+00 2.607192074794332e+00 0.000000000000000e+00
3.972780347096402e+00 2.611534701230587e+00 0.000000000000000e+00

POINT_DATA   33
SCALARS fNorm double
LOOKUP_TABLE default

2.471672e+01 
5.751750e+00 
8.106034e+00 
1.628148e+01 
8.927243e+00 
4.296797e+01 
5.843936e+01 
1.209474e+01 
3.939577e+01 
1.499927e+02 
1.674436e+02 
5.378668e+01 
4.550751e+01 
5.161338e+01 
2.946351e+01 
1.987618e+01 
9.460000e+00 
9.789564e+00 
1.258653e+01 
5.111844e-01 
7.002898e+00 
1.267080e+00 
8.306457e-01 
2.356565e+00 
2.803852e-01 
7.322217e+00 
2.003157e-02 
1.179769e+01 
7.771688e+00 
1.275700e+01 
1.399329e+01 
4.313603e-01 
5.827004e+00 
