# vtk DataFile Version 2.0
fNorm
ASCII
DATASET UNSTRUCTURED_GRID

FIELD FieldData 1
TIME 1 1 double
1.92500000
POINTS 33 float
2.959327434107281e+00 2.494211721662886e+00 0.000000000000000e+00
2.952098532169995e+00 2.489549109776791e+00 0.000000000000000e+00
2.943472808939162e+00 2.492881918055678e+00 0.000000000000000e+00
2.940829503501828e+00 2.502197466796029e+00 0.000000000000000e+00
2.947995062670910e+00 2.509175013195287e+00 0.000000000000000e+00
2.956123115534418e+00 2.506911914721583e+00 0.000000000000000e+00
2.960291783260566e+00 2.498234447316143e+00 0.000000000000000e+00
2.997709915273731e+00 2.490343376817866e+00 0.000000000000000e+00
3.035152404785133e+00 2.481917796625291e+00 0.000000000000000e+00
3.072560695741726e+00 2.473721908992218e+00 0.000000000000000e+00
3.111077682425301e+00 2.463731006492720e+00 0.000000000000000e+00
3.148577719900709e+00 2.454749924785777e+00 0.000000000000000e+00
3.186626423826695e+00 2.445387639813273e+00 0.000000000000000e+00
3.224053861596927e+00 2.436121216118391e+00 0.000000000000000e+00
3.261985508713582e+00 2.426918121155687e+00 0.000000000000000e+00
3.299628756963757e+00 2.417561129278210e+00 0.000000000000000e+00
3.337411656040088e+00 2.408400628204471e+00 0.000000000000000e+00
3.375112291978492e+00 2.399032119134734e+00 0.000000000000000e+00
3.412932408446339e+00 2.389856924899135e+00 0.000000000000000e+00
3.450643111641925e+00 2.380486925362032e+00 0.000000000000000e+00
3.488452402569133e+00 2.371310844839992e+00 0.000000000000000e+00
3.526188524293474e+00 2.361941464379074e+00 0.000000000000000e+00
3.564018439658279e+00 2.352741549026002e+00 0.000000000000000e+00
3.601769873748470e+00 2.343388413874437e+00 0.000000000000000e+00
3.639618957985553e+00 2.334160937143912e+00 0.000000000000000e+00
3.677382864072009e+00 2.324820780428607e+00 0.000000000000000e+00
3.715283846611604e+00 2.315559558438634e+00 0.000000000000000e+00
3.753027475532780e+00 2.306244836377657e+00 0.000000000000000e+00
3.790971367489900e+00 2.296944747896524e+00 0.000000000000000e+00
3.828752562861789e+00 2.287643704962602e+00 0.000000000000000e+00
3.866703092743772e+00 2.278317808343123e+00 0.000000000000000e+00
3.904549703625270e+00 2.269012608182060e+00 0.000000000000000e+00
3.942482076469165e+00 2.259682653454327e+00 0.000000000000000e+00

POINT_DATA   33
SCALARS fNorm double
LOOKUP_TABLE default

5.833249e+01 
7.115721e+00 
1.514684e+01 
2.678308e+01 
9.926445e+00 
6.548106e+01 
1.008068e+02 
8.526708e+00 
2.329131e+01 
5.031884e+01 
6.735781e+01 
6.664340e+01 
5.057944e+01 
2.684776e+01 
9.625084e+00 
2.557576e+00 
2.208840e-01 
5.446346e-01 
3.284340e-02 
1.747781e+00 
2.527312e+00 
1.403233e+00 
2.891354e-01 
8.259012e-01 
1.577116e-01 
1.242691e+00 
8.771196e-01 
1.330585e-01 
1.110093e+00 
2.049568e+00 
2.634886e+00 
1.896779e+00 
6.955940e-01 
