# vtk DataFile Version 2.0
fNorm
ASCII
DATASET UNSTRUCTURED_GRID

FIELD FieldData 1
TIME 1 1 double
0.00000000
POINTS 33 float
2.960052786231842e+00 2.495887633660336e+00 0.000000000000000e+00
2.952633497483629e+00 2.490144869735233e+00 0.000000000000000e+00
2.943721303846287e+00 2.493077102263420e+00 0.000000000000000e+00
2.941161180080971e+00 2.502103228195131e+00 0.000000000000000e+00
2.947206679817864e+00 2.509277983658563e+00 0.000000000000000e+00
2.956536240848559e+00 2.508285777025161e+00 0.000000000000000e+00
2.960937500000000e+00 2.500000000000000e+00 0.000000000000000e+00
3.000000000000000e+00 2.500000000000000e+00 0.000000000000000e+00
3.039062500000000e+00 2.500000000000000e+00 0.000000000000000e+00
3.078125000000000e+00 2.500000000000000e+00 0.000000000000000e+00
3.117187500000000e+00 2.500000000000000e+00 0.000000000000000e+00
3.156250000000000e+00 2.500000000000000e+00 0.000000000000000e+00
3.195312500000000e+00 2.500000000000000e+00 0.000000000000000e+00
3.234375000000000e+00 2.500000000000000e+00 0.000000000000000e+00
3.273437500000000e+00 2.500000000000000e+00 0.000000000000000e+00
3.312500000000000e+00 2.500000000000000e+00 0.000000000000000e+00
3.351562500000000e+00 2.500000000000000e+00 0.000000000000000e+00
3.390625000000000e+00 2.500000000000000e+00 0.000000000000000e+00
3.429687500000000e+00 2.500000000000000e+00 0.000000000000000e+00
3.468750000000000e+00 2.500000000000000e+00 0.000000000000000e+00
3.507812500000000e+00 2.500000000000000e+00 0.000000000000000e+00
3.546875000000000e+00 2.500000000000000e+00 0.000000000000000e+00
3.585937500000000e+00 2.500000000000000e+00 0.000000000000000e+00
3.625000000000000e+00 2.500000000000000e+00 0.000000000000000e+00
3.664062500000000e+00 2.500000000000000e+00 0.000000000000000e+00
3.703125000000000e+00 2.500000000000000e+00 0.000000000000000e+00
3.742187500000000e+00 2.500000000000000e+00 0.000000000000000e+00
3.781250000000000e+00 2.500000000000000e+00 0.000000000000000e+00
3.820312500000000e+00 2.500000000000000e+00 0.000000000000000e+00
3.859375000000000e+00 2.500000000000000e+00 0.000000000000000e+00
3.898437500000000e+00 2.500000000000000e+00 0.000000000000000e+00
3.937500000000000e+00 2.500000000000000e+00 0.000000000000000e+00
3.976562500000000e+00 2.500000000000000e+00 0.000000000000000e+00

POINT_DATA   33
SCALARS fNorm double
LOOKUP_TABLE default

0 
0 
0 
0 
0 
0 
0 
0 
0 
0 
0 
0 
0 
0 
0 
0 
0 
0 
0 
0 
0 
0 
0 
0 
0 
0 
0 
0 
0 
0 
0 
0 
0 
