# vtk DataFile Version 2.0
fNorm
ASCII
DATASET UNSTRUCTURED_GRID

FIELD FieldData 1
TIME 1 1 double
0.25000000
POINTS 33 float
2.960009085844046e+00 2.495871990740637e+00 0.000000000000000e+00
2.952689715777130e+00 2.490127755858558e+00 0.000000000000000e+00
2.943756693084208e+00 2.493098843849898e+00 0.000000000000000e+00
2.941117321902397e+00 2.502100212128227e+00 0.000000000000000e+00
2.947258298412180e+00 2.509259601904084e+00 0.000000000000000e+00
2.956570262551832e+00 2.508307367495825e+00 0.000000000000000e+00
2.960874167651011e+00 2.500010702351729e+00 0.000000000000000e+00
2.999983678595714e+00 2.500010141635305e+00 0.000000000000000e+00
3.039064860255051e+00 2.500009739246108e+00 0.000000000000000e+00
3.078120438569130e+00 2.500009647014061e+00 0.000000000000000e+00
3.117185447487561e+00 2.500009664724308e+00 0.000000000000000e+00
3.156257548268742e+00 2.500009748447262e+00 0.000000000000000e+00
3.195324997274242e+00 2.500009797138863e+00 0.000000000000000e+00
3.234389022176481e+00 2.500009820666700e+00 0.000000000000000e+00
3.273455022100517e+00 2.500009858444031e+00 0.000000000000000e+00
3.312522380721784e+00 2.500009907496473e+00 0.000000000000000e+00
3.351588667964213e+00 2.500009951377405e+00 0.000000000000000e+00
3.390654094882366e+00 2.500009991029828e+00 0.000000000000000e+00
3.429719803144561e+00 2.500010031463791e+00 0.000000000000000e+00
3.468785717523056e+00 2.500010073345027e+00 0.000000000000000e+00
3.507851474565997e+00 2.500010116127244e+00 0.000000000000000e+00
3.546916901586960e+00 2.500010158998588e+00 0.000000000000000e+00
3.585981946018988e+00 2.500010200335514e+00 0.000000000000000e+00
3.625046876258792e+00 2.500010241138906e+00 0.000000000000000e+00
3.664112240512670e+00 2.500010283577372e+00 0.000000000000000e+00
3.703177470579755e+00 2.500010326775378e+00 0.000000000000000e+00
3.742241618540906e+00 2.500010368483939e+00 0.000000000000000e+00
3.781305524577602e+00 2.500010409502419e+00 0.000000000000000e+00
3.820370892837933e+00 2.500010451973947e+00 0.000000000000000e+00
3.859436103906861e+00 2.500010494949631e+00 0.000000000000000e+00
3.898498296969567e+00 2.500010536350259e+00 0.000000000000000e+00
3.937560612654880e+00 2.500010578528263e+00 0.000000000000000e+00
3.976628682427703e+00 2.500010620740875e+00 0.000000000000000e+00

POINT_DATA   33
SCALARS fNorm double
LOOKUP_TABLE default

2.130769e+00 
1.077547e-01 
6.896359e-01 
1.731647e+00 
5.795753e-01 
2.192413e-01 
9.390758e-01 
6.234004e-02 
2.763930e-02 
5.925011e-02 
6.314070e-02 
8.916673e-03 
2.170120e-02 
4.456060e-03 
9.649367e-03 
1.007028e-03 
3.921594e-03 
3.738456e-04 
1.394471e-03 
1.016846e-03 
1.407910e-04 
1.074357e-03 
2.975664e-04 
1.064068e-03 
5.055779e-04 
8.899625e-04 
4.352798e-04 
8.261952e-04 
2.678989e-04 
5.716260e-04 
2.123096e-07 
2.508591e-04 
5.941897e-04 
