# vtk DataFile Version 2.0
fNorm
ASCII
DATASET UNSTRUCTURED_GRID

FIELD FieldData 1
TIME 1 1 double
0.15000000
POINTS 33 float
2.960024346602163e+00 2.495883058798954e+00 0.000000000000000e+00
2.952674657931731e+00 2.490138041109156e+00 0.000000000000000e+00
2.943740416908436e+00 2.493084684792294e+00 0.000000000000000e+00
2.941132322770655e+00 2.502103166416782e+00 0.000000000000000e+00
2.947241512976865e+00 2.509270835524335e+00 0.000000000000000e+00
2.956558767981858e+00 2.508292276955995e+00 0.000000000000000e+00
2.960895584642003e+00 2.500004599075293e+00 0.000000000000000e+00
2.999988913418796e+00 2.500004444437332e+00 0.000000000000000e+00
3.039063868835409e+00 2.500004379929964e+00 0.000000000000000e+00
3.078122392263493e+00 2.500004420558612e+00 0.000000000000000e+00
3.117187031064244e+00 2.500004524275357e+00 0.000000000000000e+00
3.156256308707413e+00 2.500004667985336e+00 0.000000000000000e+00
3.195322669343378e+00 2.500004790153631e+00 0.000000000000000e+00
3.234386812207346e+00 2.500004896718009e+00 0.000000000000000e+00
3.273452063122142e+00 2.500005012119586e+00 0.000000000000000e+00
3.312518108092847e+00 2.500005134629896e+00 0.000000000000000e+00
3.351583592907288e+00 2.500005253850751e+00 0.000000000000000e+00
3.390648555881417e+00 2.500005370400809e+00 0.000000000000000e+00
3.429713523106864e+00 2.500005487500725e+00 0.000000000000000e+00
3.468778533191077e+00 2.500005605549361e+00 0.000000000000000e+00
3.507843580856761e+00 2.500005724109622e+00 0.000000000000000e+00
3.546908454641092e+00 2.500005842702536e+00 0.000000000000000e+00
3.585972901071889e+00 2.500005960372559e+00 0.000000000000000e+00
3.625037185533875e+00 2.500006077733259e+00 0.000000000000000e+00
3.664101899420390e+00 2.500006196099318e+00 0.000000000000000e+00
3.703166563450609e+00 2.500006314924148e+00 0.000000000000000e+00
3.742230325122940e+00 2.500006432814526e+00 0.000000000000000e+00
3.781293850838120e+00 2.500006550282702e+00 0.000000000000000e+00
3.820358530260897e+00 2.500006668693781e+00 0.000000000000000e+00
3.859423124637103e+00 2.500006787399172e+00 0.000000000000000e+00
3.898485414132543e+00 2.500006905027103e+00 0.000000000000000e+00
3.937547759480025e+00 2.500007023268583e+00 0.000000000000000e+00
3.976614425429225e+00 2.500007141473508e+00 0.000000000000000e+00

POINT_DATA   33
SCALARS fNorm double
LOOKUP_TABLE default

1.086512e+00 
4.258325e-02 
7.633086e-02 
1.242239e+00 
1.987614e-01 
1.194542e-02 
4.546032e-01 
2.397472e-02 
1.454169e-03 
2.770783e-02 
3.707560e-02 
5.702245e-03 
1.339545e-02 
2.801109e-03 
6.030653e-03 
6.518916e-04 
2.463943e-03 
1.885871e-04 
9.038038e-04 
6.127114e-04 
1.039185e-04 
6.455171e-04 
1.622201e-04 
6.596988e-04 
3.033388e-04 
5.559457e-04 
2.536034e-04 
5.358852e-04 
1.411871e-04 
3.748062e-04 
3.393062e-05 
1.583598e-04 
4.254963e-04 
