# vtk DataFile Version 2.0
fNorm
ASCII
DATASET UNSTRUCTURED_GRID

FIELD FieldData 1
TIME 1 1 double
0.17500000
POINTS 33 float
2.960020357417599e+00 2.495880352035928e+00 0.000000000000000e+00
2.952678735300720e+00 2.490135458260102e+00 0.000000000000000e+00
2.943744363465661e+00 2.493088215053607e+00 0.000000000000000e+00
2.941128532291855e+00 2.502102443499906e+00 0.000000000000000e+00
2.947245692225148e+00 2.509268021096908e+00 0.000000000000000e+00
2.956561848199583e+00 2.508296023539855e+00 0.000000000000000e+00
2.960890132279344e+00 2.500006088260802e+00 0.000000000000000e+00
2.999987561475585e+00 2.500005808937095e+00 0.000000000000000e+00
3.039064111027041e+00 2.500005635744468e+00 0.000000000000000e+00
3.078121922539956e+00 2.500005616193240e+00 0.000000000000000e+00
3.117186680050370e+00 2.500005670090323e+00 0.000000000000000e+00
3.156256694832631e+00 2.500005769502791e+00 0.000000000000000e+00
3.195323365500449e+00 2.500005844548141e+00 0.000000000000000e+00
3.234387516677773e+00 2.500005902016582e+00 0.000000000000000e+00
3.273452980832303e+00 2.500005969345708e+00 0.000000000000000e+00
3.312519374997888e+00 2.500006044672087e+00 0.000000000000000e+00
3.351585091897830e+00 2.500006116363195e+00 0.000000000000000e+00
3.390650205070713e+00 2.500006185112892e+00 0.000000000000000e+00
3.429715377476842e+00 2.500006254361602e+00 0.000000000000000e+00
3.468780627257314e+00 2.500006324638867e+00 0.000000000000000e+00
3.507845879084015e+00 2.500006395575293e+00 0.000000000000000e+00
3.546910922047469e+00 2.500006466597590e+00 0.000000000000000e+00
3.585975532654237e+00 2.500006536490313e+00 0.000000000000000e+00
3.625039986633061e+00 2.500006605995752e+00 0.000000000000000e+00
3.664104887342368e+00 2.500006676706873e+00 0.000000000000000e+00
3.703169721716545e+00 2.500006747968005e+00 0.000000000000000e+00
3.742233588310451e+00 2.500006818101188e+00 0.000000000000000e+00
3.781297211258489e+00 2.500006887728384e+00 0.000000000000000e+00
3.820362089943135e+00 2.500006958507928e+00 0.000000000000000e+00
3.859426868523884e+00 2.500007029626554e+00 0.000000000000000e+00
3.898489124132259e+00 2.500007099395384e+00 0.000000000000000e+00
3.937551452083377e+00 2.500007169992897e+00 0.000000000000000e+00
3.976618531578820e+00 2.500007240492829e+00 0.000000000000000e+00

POINT_DATA   33
SCALARS fNorm double
LOOKUP_TABLE default

1.347951e+00 
6.389971e-02 
2.176922e-01 
1.361877e+00 
2.889750e-01 
5.423196e-02 
5.751760e-01 
3.355117e-02 
7.685959e-03 
3.478530e-02 
4.275113e-02 
6.344942e-03 
1.515226e-02 
3.095234e-03 
6.780768e-03 
6.746545e-04 
2.750833e-03 
2.781466e-04 
9.819667e-04 
7.432560e-04 
8.989977e-05 
7.798995e-04 
2.121570e-04 
7.859544e-04 
3.605743e-04 
6.729271e-04 
3.004466e-04 
6.519848e-04 
1.483603e-04 
4.638128e-04 
6.354203e-05 
1.888508e-04 
4.515829e-04 
