# vtk DataFile Version 2.0
fNorm
ASCII
DATASET UNSTRUCTURED_GRID

FIELD FieldData 1
TIME 1 1 double
0.60000000
POINTS 33 float
2.959964791498938e+00 2.495844110451930e+00 0.000000000000000e+00
2.952728616432375e+00 2.490102452639102e+00 0.000000000000000e+00
2.943817762987816e+00 2.493137877156994e+00 0.000000000000000e+00
2.941066025124605e+00 2.502091375651798e+00 0.000000000000000e+00
2.947317399620138e+00 2.509228620563221e+00 0.000000000000000e+00
2.956594262932282e+00 2.508354999625287e+00 0.000000000000000e+00
2.960808615242125e+00 2.500040234346477e+00 0.000000000000000e+00
2.999969433202141e+00 2.500073435468237e+00 0.000000000000000e+00
3.039068651990633e+00 2.500108516739249e+00 0.000000000000000e+00
3.078112534143950e+00 2.500146141031376e+00 0.000000000000000e+00
3.117177206828086e+00 2.500185942493339e+00 0.000000000000000e+00
3.156257106719306e+00 2.500227202789011e+00 0.000000000000000e+00
3.195325977607450e+00 2.500267648837171e+00 0.000000000000000e+00
3.234387255354813e+00 2.500307503380856e+00 0.000000000000000e+00
3.273454110500998e+00 2.500347754222212e+00 0.000000000000000e+00
3.312524530431830e+00 2.500388271309910e+00 0.000000000000000e+00
3.351591539162857e+00 2.500428617211816e+00 0.000000000000000e+00
3.390656377352459e+00 2.500468820349719e+00 0.000000000000000e+00
3.429723224195965e+00 2.500509120097663e+00 0.000000000000000e+00
3.468791186324595e+00 2.500549478497311e+00 0.000000000000000e+00
3.507857631761397e+00 2.500589799602629e+00 0.000000000000000e+00
3.546923013755285e+00 2.500630087341573e+00 0.000000000000000e+00
3.585989051367616e+00 2.500670402057753e+00 0.000000000000000e+00
3.625055514370187e+00 2.500710730488454e+00 0.000000000000000e+00
3.664121593555747e+00 2.500751044520010e+00 0.000000000000000e+00
3.703187028959232e+00 2.500791351637893e+00 0.000000000000000e+00
3.742251869104949e+00 2.500831678835920e+00 0.000000000000000e+00
3.781316801121385e+00 2.500872011728172e+00 0.000000000000000e+00
3.820382977409353e+00 2.500912314524756e+00 0.000000000000000e+00
3.859448614069131e+00 2.500952622741364e+00 0.000000000000000e+00
3.898510875715007e+00 2.500992992082141e+00 0.000000000000000e+00
3.937573530656923e+00 2.501033282885368e+00 0.000000000000000e+00
3.976643151683001e+00 2.501073618587361e+00 0.000000000000000e+00

POINT_DATA   33
SCALARS fNorm double
LOOKUP_TABLE default

5.221337e+00 
2.096479e-01 
3.060350e+00 
3.767832e+00 
1.997457e+00 
2.876354e-01 
2.375734e+00 
1.389446e-01 
1.222212e-01 
1.103614e+00 
1.291907e+00 
2.278067e-01 
4.819349e-01 
1.398121e-01 
2.275397e-01 
6.559600e-02 
1.086386e-01 
3.160248e-02 
5.221949e-02 
1.488758e-02 
2.336200e-02 
9.403054e-03 
1.091816e-02 
7.434269e-03 
2.876904e-03 
1.125888e-02 
1.125487e-03 
1.698832e-02 
1.245886e-02 
1.580812e-02 
1.845183e-02 
2.596350e-03 
1.070772e-02 
