# vtk DataFile Version 2.0
fTan
ASCII
DATASET UNSTRUCTURED_GRID

FIELD FieldData 1
TIME 1 1 double
0.47500000
POINTS 33 float
2.959979693518224e+00 2.495849550038868e+00 0.000000000000000e+00
2.952714863574188e+00 2.490108128772412e+00 0.000000000000000e+00
2.943795578916363e+00 2.493126418713594e+00 0.000000000000000e+00
2.941084590235475e+00 2.502094760681523e+00 0.000000000000000e+00
2.947296497241012e+00 2.509237623286521e+00 0.000000000000000e+00
2.956588769899354e+00 2.508337487250964e+00 0.000000000000000e+00
2.960830588484307e+00 2.500025932370732e+00 0.000000000000000e+00
2.999973860729594e+00 2.500029463781188e+00 0.000000000000000e+00
3.039067269507591e+00 2.500033551146827e+00 0.000000000000000e+00
3.078115540776992e+00 2.500038606010593e+00 0.000000000000000e+00
3.117180553342445e+00 2.500044170395061e+00 0.000000000000000e+00
3.156257934425521e+00 2.500050044891311e+00 0.000000000000000e+00
3.195326616720836e+00 2.500055743517180e+00 0.000000000000000e+00
3.234389184366475e+00 2.500061320902215e+00 0.000000000000000e+00
3.273455979617212e+00 2.500066974696477e+00 0.000000000000000e+00
3.312525532201098e+00 2.500072688150640e+00 0.000000000000000e+00
3.351592575282601e+00 2.500078363003769e+00 0.000000000000000e+00
3.390657929581298e+00 2.500084016059845e+00 0.000000000000000e+00
3.429724584777456e+00 2.500089679330422e+00 0.000000000000000e+00
3.468791994458225e+00 2.500095354782583e+00 0.000000000000000e+00
3.507858452900507e+00 2.500101025649069e+00 0.000000000000000e+00
3.546924131601895e+00 2.500106693965165e+00 0.000000000000000e+00
3.585989985532404e+00 2.500112358972590e+00 0.000000000000000e+00
3.625056028086345e+00 2.500118024683208e+00 0.000000000000000e+00
3.664122077201470e+00 2.500123694731280e+00 0.000000000000000e+00
3.703187689023837e+00 2.500129365759129e+00 0.000000000000000e+00
3.742252392263592e+00 2.500135028831087e+00 0.000000000000000e+00
3.781317025050086e+00 2.500140689933887e+00 0.000000000000000e+00
3.820383134060146e+00 2.500146363273899e+00 0.000000000000000e+00
3.859448853811235e+00 2.500152035433371e+00 0.000000000000000e+00
3.898511061536538e+00 2.500157684755413e+00 0.000000000000000e+00
3.937573562875480e+00 2.500163360028227e+00 0.000000000000000e+00
3.976643054453489e+00 2.500169024926140e+00 0.000000000000000e+00

POINT_DATA   33
SCALARS fTan double
LOOKUP_TABLE default

4.251081e+00 
5.270053e+00 
6.677710e-01 
2.706085e+00 
4.589761e+00 
4.230821e-01 
5.460738e+00 
5.931475e-01 
1.247711e+00 
6.548582e-01 
3.092030e-01 
2.174589e-01 
1.528595e-01 
1.056832e-01 
6.892866e-02 
6.273459e-02 
4.221879e-02 
3.251741e-02 
1.885839e-02 
2.378058e-02 
1.949468e-02 
4.375860e-03 
4.711560e-03 
1.626796e-04 
1.093468e-02 
2.271936e-02 
1.765727e-03 
3.690271e-02 
9.734753e-03 
8.780501e-02 
7.335773e-03 
1.747510e-01 
1.748157e-01 
