# vtk DataFile Version 2.0
fTan
ASCII
DATASET UNSTRUCTURED_GRID

FIELD FieldData 1
TIME 1 1 double
0.72500000
POINTS 33 float
2.959950945827418e+00 2.495780883641189e+00 0.000000000000000e+00
2.952732704252810e+00 2.490077222954293e+00 0.000000000000000e+00
2.943826976694931e+00 2.493142507166086e+00 0.000000000000000e+00
2.941053877656966e+00 2.502081915043765e+00 0.000000000000000e+00
2.947356241936790e+00 2.509211871115869e+00 0.000000000000000e+00
2.956596903787729e+00 2.508330411938609e+00 0.000000000000000e+00
2.960784867004878e+00 2.499989065954765e+00 0.000000000000000e+00
2.999964589203509e+00 2.499809122737034e+00 0.000000000000000e+00
3.039069372027126e+00 2.499618941489175e+00 0.000000000000000e+00
3.078106684787090e+00 2.499426405368110e+00 0.000000000000000e+00
3.117170959062594e+00 2.499222290176586e+00 0.000000000000000e+00
3.156253043560602e+00 2.499011458930134e+00 0.000000000000000e+00
3.195321473576697e+00 2.498804911578260e+00 0.000000000000000e+00
3.234381027512446e+00 2.498600915750985e+00 0.000000000000000e+00
3.273447198391294e+00 2.498395326445845e+00 0.000000000000000e+00
3.312518013707636e+00 2.498188107364485e+00 0.000000000000000e+00
3.351584370533760e+00 2.497982079296099e+00 0.000000000000000e+00
3.390648152595347e+00 2.497776456742391e+00 0.000000000000000e+00
3.429714607198137e+00 2.497570725438880e+00 0.000000000000000e+00
3.468782634083199e+00 2.497364522244188e+00 0.000000000000000e+00
3.507848494165238e+00 2.497158582651615e+00 0.000000000000000e+00
3.546913009235254e+00 2.496952679371091e+00 0.000000000000000e+00
3.585978672359533e+00 2.496746964599810e+00 0.000000000000000e+00
3.625045081382260e+00 2.496541208433083e+00 0.000000000000000e+00
3.664110674935568e+00 2.496335260085314e+00 0.000000000000000e+00
3.703175404916542e+00 2.496129285020549e+00 0.000000000000000e+00
3.742239777387943e+00 2.495923821335574e+00 0.000000000000000e+00
3.781304584542238e+00 2.495718447473937e+00 0.000000000000000e+00
3.820370409949959e+00 2.495512214782747e+00 0.000000000000000e+00
3.859435510460893e+00 2.495306124545392e+00 0.000000000000000e+00
3.898497121314185e+00 2.495101860060164e+00 0.000000000000000e+00
3.937559573461157e+00 2.494895373033480e+00 0.000000000000000e+00
3.976628976405228e+00 2.494689880696844e+00 0.000000000000000e+00

POINT_DATA   33
SCALARS fTan double
LOOKUP_TABLE default

5.805989e+00 
6.928106e+00 
7.542257e-01 
4.425827e+00 
8.023440e+00 
6.036791e-01 
7.929356e+00 
1.009728e+00 
1.905026e+00 
1.060095e+00 
4.474012e-01 
3.417718e-01 
2.220240e-01 
1.656089e-01 
1.163283e-01 
1.115852e-01 
6.438736e-02 
6.681900e-02 
3.935584e-02 
5.418844e-02 
3.361749e-02 
2.868413e-02 
1.864542e-02 
2.035083e-02 
2.157791e-02 
8.982449e-03 
1.084354e-02 
2.557607e-02 
1.814851e-02 
8.746038e-02 
2.131460e-02 
1.736707e-01 
1.847119e-01 
