# vtk DataFile Version 2.0
fTan
ASCII
DATASET UNSTRUCTURED_GRID

FIELD FieldData 1
TIME 1 1 double
1.97500000
POINTS 33 float
2.959502160794719e+00 2.494207288678908e+00 0.000000000000000e+00
2.952170739994143e+00 2.489527507377966e+00 0.000000000000000e+00
2.943438272751496e+00 2.492865662794028e+00 0.000000000000000e+00
2.940920816497988e+00 2.502212298668808e+00 0.000000000000000e+00
2.948011719807967e+00 2.509151805272633e+00 0.000000000000000e+00
2.956243334647155e+00 2.506845245396820e+00 0.000000000000000e+00
2.960508657768401e+00 2.498220881384686e+00 0.000000000000000e+00
2.998673357552028e+00 2.492261349894087e+00 0.000000000000000e+00
3.036834290303315e+00 2.485790556587648e+00 0.000000000000000e+00
3.075133389238053e+00 2.479671613047961e+00 0.000000000000000e+00
3.114564440170544e+00 2.471955653084961e+00 0.000000000000000e+00
3.152955246236345e+00 2.465234535184834e+00 0.000000000000000e+00
3.191783987259504e+00 2.458108712858631e+00 0.000000000000000e+00
3.230039751646880e+00 2.451069995763537e+00 0.000000000000000e+00
3.268877968133287e+00 2.444113871428631e+00 0.000000000000000e+00
3.307298616953552e+00 2.436993442396941e+00 0.000000000000000e+00
3.345898679211313e+00 2.430083049034530e+00 0.000000000000000e+00
3.384405808851915e+00 2.422966410993176e+00 0.000000000000000e+00
3.423014616542392e+00 2.416037625037107e+00 0.000000000000000e+00
3.461524101642163e+00 2.408928887671243e+00 0.000000000000000e+00
3.500057546233730e+00 2.402015622961814e+00 0.000000000000000e+00
3.538556573368209e+00 2.394910937875637e+00 0.000000000000000e+00
3.577134353119974e+00 2.387981044270071e+00 0.000000000000000e+00
3.615612136704911e+00 2.380897617048629e+00 0.000000000000000e+00
3.654147757437982e+00 2.373956452488093e+00 0.000000000000000e+00
3.692584663372509e+00 2.366901540331280e+00 0.000000000000000e+00
3.731169218093320e+00 2.359932827885300e+00 0.000000000000000e+00
3.769558241634920e+00 2.352910014095984e+00 0.000000000000000e+00
3.808117282575360e+00 2.345921710100629e+00 0.000000000000000e+00
3.846484707125091e+00 2.338929958201142e+00 0.000000000000000e+00
3.885050515801296e+00 2.331921225141327e+00 0.000000000000000e+00
3.923441421357214e+00 2.324938545758881e+00 0.000000000000000e+00
3.961894548748550e+00 2.317947920230747e+00 0.000000000000000e+00

POINT_DATA   33
SCALARS fTan double
LOOKUP_TABLE default

1.071349e+01 
2.112955e+00 
4.253323e+00 
3.153609e+00 
4.825270e+01 
6.667544e+00 
5.119710e+00 
3.276496e+00 
1.259693e+01 
1.786140e+01 
1.935586e+01 
1.654670e+01 
1.386357e+01 
1.374122e+01 
9.593814e+00 
3.589873e+00 
1.187896e+00 
1.809860e+00 
1.526061e+00 
1.805841e-01 
1.460077e-01 
1.328651e+00 
1.574521e+00 
9.900537e-01 
1.715530e+00 
3.449921e+00 
4.358698e+00 
4.234414e+00 
4.499143e+00 
5.151100e+00 
4.220753e+00 
1.769748e+00 
3.090031e-01 
