# vtk DataFile Version 2.0
fTan
ASCII
DATASET UNSTRUCTURED_GRID

FIELD FieldData 1
TIME 1 1 double
1.30000000
POINTS 33 float
2.959513028311322e+00 2.496550253172456e+00 0.000000000000000e+00
2.952875706308238e+00 2.490334628806534e+00 0.000000000000000e+00
2.944062883633272e+00 2.493120420875508e+00 0.000000000000000e+00
2.940703529390379e+00 2.502146325508243e+00 0.000000000000000e+00
2.947199407760746e+00 2.509281898472573e+00 0.000000000000000e+00
2.956363974014086e+00 2.508836904298770e+00 0.000000000000000e+00
2.960524030968577e+00 2.500944295817186e+00 0.000000000000000e+00
2.998487548487700e+00 2.507714050433464e+00 0.000000000000000e+00
3.036466577130046e+00 2.514717821427900e+00 0.000000000000000e+00
3.074193053912650e+00 2.521849221287726e+00 0.000000000000000e+00
3.112760419576852e+00 2.529941609810325e+00 0.000000000000000e+00
3.150579682587042e+00 2.537742260723591e+00 0.000000000000000e+00
3.189111713879063e+00 2.545492471224239e+00 0.000000000000000e+00
3.227113651419590e+00 2.553393272636568e+00 0.000000000000000e+00
3.265397740011394e+00 2.561189992469996e+00 0.000000000000000e+00
3.303634378993902e+00 2.569001845294120e+00 0.000000000000000e+00
3.341708020088672e+00 2.576857679792925e+00 0.000000000000000e+00
3.379949568622470e+00 2.584616598121098e+00 0.000000000000000e+00
3.418193466962376e+00 2.592518419012182e+00 0.000000000000000e+00
3.456350278900803e+00 2.600288560203083e+00 0.000000000000000e+00
3.494579513080259e+00 2.608140390101285e+00 0.000000000000000e+00
3.532681864362666e+00 2.615934475992458e+00 0.000000000000000e+00
3.571028178364807e+00 2.623801944083129e+00 0.000000000000000e+00
3.609106816807327e+00 2.631590503858212e+00 0.000000000000000e+00
3.647466441610905e+00 2.639458373189426e+00 0.000000000000000e+00
3.685526847835648e+00 2.647259648965684e+00 0.000000000000000e+00
3.723954953304158e+00 2.655121223692460e+00 0.000000000000000e+00
3.761906595018366e+00 2.662915190395713e+00 0.000000000000000e+00
3.800464600455917e+00 2.670805253622410e+00 0.000000000000000e+00
3.838392075900450e+00 2.678584797949043e+00 0.000000000000000e+00
3.876900111634369e+00 2.686479362907690e+00 0.000000000000000e+00
3.915019323872008e+00 2.694292321897321e+00 0.000000000000000e+00
3.953298471723225e+00 2.702141720226954e+00 0.000000000000000e+00

POINT_DATA   33
SCALARS fTan double
LOOKUP_TABLE default

2.491953e+01 
9.944282e+00 
1.429712e+01 
2.162148e+00 
1.029855e+01 
5.328100e+00 
1.122323e+01 
3.827875e+00 
1.413044e+01 
1.580802e+01 
1.596102e+01 
1.710764e+01 
1.221360e+01 
6.688858e+00 
1.011424e+00 
3.915661e+00 
3.479039e+00 
7.164608e-01 
2.795037e+00 
2.157240e+00 
3.476076e+00 
6.235136e+00 
7.068367e+00 
7.156634e+00 
7.793826e+00 
9.163446e+00 
1.215927e+01 
1.518083e+01 
1.615670e+01 
1.462965e+01 
1.011093e+01 
3.915385e+00 
5.208282e-01 
