# vtk DataFile Version 2.0
fTan
ASCII
DATASET UNSTRUCTURED_GRID

FIELD FieldData 1
TIME 1 1 double
0.45000000
POINTS 33 float
2.959982842524782e+00 2.495851568120053e+00 0.000000000000000e+00
2.952712385682269e+00 2.490109943802639e+00 0.000000000000000e+00
2.943791141302184e+00 2.493123710584904e+00 0.000000000000000e+00
2.941088285385125e+00 2.502095152612573e+00 0.000000000000000e+00
2.947292221861086e+00 2.509239737844881e+00 0.000000000000000e+00
2.956587050340732e+00 2.508334407809077e+00 0.000000000000000e+00
2.960835146628271e+00 2.500023914320692e+00 0.000000000000000e+00
2.999974827613281e+00 2.500025798318044e+00 0.000000000000000e+00
3.039066992226135e+00 2.500028121179259e+00 0.000000000000000e+00
3.078116102132242e+00 2.500031315338672e+00 0.000000000000000e+00
3.117181148665980e+00 2.500034893631975e+00 0.000000000000000e+00
3.156257990967808e+00 2.500038709423930e+00 0.000000000000000e+00
3.195326586979303e+00 2.500042393981295e+00 0.000000000000000e+00
3.234389368261724e+00 2.500045985975378e+00 0.000000000000000e+00
3.273456115236310e+00 2.500049636454606e+00 0.000000000000000e+00
3.312525458106763e+00 2.500053329539294e+00 0.000000000000000e+00
3.351592464327144e+00 2.500056997177850e+00 0.000000000000000e+00
3.390657877093274e+00 2.500060646359689e+00 0.000000000000000e+00
3.429724460634624e+00 2.500064304775977e+00 0.000000000000000e+00
3.468791729274252e+00 2.500067971239353e+00 0.000000000000000e+00
3.507858151201777e+00 2.500071635280011e+00 0.000000000000000e+00
3.546923847496651e+00 2.500075296762609e+00 0.000000000000000e+00
3.585989636656560e+00 2.500078957469994e+00 0.000000000000000e+00
3.625055571736442e+00 2.500082618611242e+00 0.000000000000000e+00
3.664121581156057e+00 2.500086281639515e+00 0.000000000000000e+00
3.703187191817661e+00 2.500089945286959e+00 0.000000000000000e+00
3.742251848062858e+00 2.500093606680470e+00 0.000000000000000e+00
3.781316406367914e+00 2.500097267210539e+00 0.000000000000000e+00
3.820382471406703e+00 2.500100930327946e+00 0.000000000000000e+00
3.859448175981522e+00 2.500104594068897e+00 0.000000000000000e+00
3.898510371243942e+00 2.500108254476106e+00 0.000000000000000e+00
3.937572840664617e+00 2.500111917020202e+00 0.000000000000000e+00
3.976642257681091e+00 2.500115579870142e+00 0.000000000000000e+00

POINT_DATA   33
SCALARS fTan double
LOOKUP_TABLE default

4.088307e+00 
5.128772e+00 
6.881252e-01 
2.580727e+00 
4.356577e+00 
4.596058e-01 
5.229769e+00 
5.586071e-01 
1.188662e+00 
6.207671e-01 
2.948805e-01 
2.061489e-01 
1.453648e-01 
9.913108e-02 
6.488774e-02 
5.841878e-02 
3.984171e-02 
2.925766e-02 
1.711647e-02 
2.117528e-02 
1.815030e-02 
2.308058e-03 
3.634798e-03 
1.847445e-03 
9.981334e-03 
2.387546e-02 
2.463535e-03 
3.765434e-02 
9.026148e-03 
8.774843e-02 
6.837644e-03 
1.736727e-01 
1.729437e-01 
