# vtk DataFile Version 2.0
fTan
ASCII
DATASET UNSTRUCTURED_GRID

FIELD FieldData 1
TIME 1 1 double
1.52500000
POINTS 33 float
2.959108871668028e+00 2.494790063177953e+00 0.000000000000000e+00
2.952355683275338e+00 2.489875560572788e+00 0.000000000000000e+00
2.943976477747845e+00 2.493393983426133e+00 0.000000000000000e+00
2.941080071897470e+00 2.502505852899625e+00 0.000000000000000e+00
2.947998609101187e+00 2.509418228997737e+00 0.000000000000000e+00
2.956345803258643e+00 2.507607689283439e+00 0.000000000000000e+00
2.960122866613412e+00 2.498869679953687e+00 0.000000000000000e+00
2.998080991945764e+00 2.491392631353509e+00 0.000000000000000e+00
3.036256493852006e+00 2.483754526486953e+00 0.000000000000000e+00
3.073191652654466e+00 2.475674083893614e+00 0.000000000000000e+00
3.111498053676689e+00 2.467196847987472e+00 0.000000000000000e+00
3.148999863052840e+00 2.458422713696931e+00 0.000000000000000e+00
3.188025063731408e+00 2.449596441833405e+00 0.000000000000000e+00
3.226111570421140e+00 2.441024301028755e+00 0.000000000000000e+00
3.263952926212692e+00 2.432345357198012e+00 0.000000000000000e+00
3.301984456049362e+00 2.423708900606163e+00 0.000000000000000e+00
3.340024818841567e+00 2.415129582408131e+00 0.000000000000000e+00
3.378241603154277e+00 2.406345523736527e+00 0.000000000000000e+00
3.416334803327578e+00 2.397749206556218e+00 0.000000000000000e+00
3.454274233151258e+00 2.389092324113757e+00 0.000000000000000e+00
3.492411245290219e+00 2.380434843286481e+00 0.000000000000000e+00
3.530557591068681e+00 2.371726621834730e+00 0.000000000000000e+00
3.568717619941249e+00 2.363085970773123e+00 0.000000000000000e+00
3.606517316396022e+00 2.354475682589575e+00 0.000000000000000e+00
3.644824554744134e+00 2.345769243427870e+00 0.000000000000000e+00
3.682888770039434e+00 2.337112479931715e+00 0.000000000000000e+00
3.721112113475032e+00 2.328399689606588e+00 0.000000000000000e+00
3.758794942470410e+00 2.319866779142887e+00 0.000000000000000e+00
3.797284129686386e+00 2.311082402543054e+00 0.000000000000000e+00
3.835335502627296e+00 2.302408564022112e+00 0.000000000000000e+00
3.873537874835358e+00 2.293747657758097e+00 0.000000000000000e+00
3.911206750511266e+00 2.285160340090348e+00 0.000000000000000e+00
3.949676768461410e+00 2.276405008054736e+00 0.000000000000000e+00

POINT_DATA   33
SCALARS fTan double
LOOKUP_TABLE default

4.126198e+01 
8.515065e+00 
5.788636e+00 
3.512305e+00 
4.714454e+01 
1.392572e+01 
3.153283e+00 
7.330195e+00 
4.253363e+01 
2.738585e+01 
1.788517e+01 
3.845948e+01 
2.381433e+01 
5.449165e+00 
4.402493e+00 
2.634059e-01 
5.266228e+00 
4.083865e+00 
3.400713e+00 
4.762304e+00 
3.731481e-01 
1.952714e-01 
9.094096e+00 
1.276220e+01 
6.350367e+00 
4.003701e+00 
1.439562e+01 
2.087582e+01 
1.145749e+01 
3.385750e+00 
1.364206e+01 
2.026073e+01 
9.973530e+00 
