# vtk DataFile Version 2.0
fTan
ASCII
DATASET UNSTRUCTURED_GRID

FIELD FieldData 1
TIME 1 1 double
1.60000000
POINTS 33 float
2.959509402969771e+00 2.495803149723077e+00 0.000000000000000e+00
2.952637044378803e+00 2.490439088394957e+00 0.000000000000000e+00
2.944033080615075e+00 2.493040475805530e+00 0.000000000000000e+00
2.940595739099174e+00 2.501955450606250e+00 0.000000000000000e+00
2.947491828208264e+00 2.509503422185006e+00 0.000000000000000e+00
2.956300290052329e+00 2.508273619112682e+00 0.000000000000000e+00
2.960490230180279e+00 2.499906638701120e+00 0.000000000000000e+00
2.997003546897966e+00 2.490039433757373e+00 0.000000000000000e+00
3.033879982499058e+00 2.480026757565288e+00 0.000000000000000e+00
3.070185874479407e+00 2.469465413738126e+00 0.000000000000000e+00
3.107742650241211e+00 2.457810313162013e+00 0.000000000000000e+00
3.144699173789297e+00 2.446291903667565e+00 0.000000000000000e+00
3.182964515086154e+00 2.434605568269077e+00 0.000000000000000e+00
3.220117047453733e+00 2.423104051116725e+00 0.000000000000000e+00
3.257527321928465e+00 2.411557961885333e+00 0.000000000000000e+00
3.294961995454035e+00 2.400064179125542e+00 0.000000000000000e+00
3.332602021961440e+00 2.388437289646431e+00 0.000000000000000e+00
3.369878352113171e+00 2.376903431652954e+00 0.000000000000000e+00
3.407466213465077e+00 2.365415931176015e+00 0.000000000000000e+00
3.444735256277395e+00 2.353839180433116e+00 0.000000000000000e+00
3.482251498366743e+00 2.342323186999796e+00 0.000000000000000e+00
3.519506761214156e+00 2.330822334142729e+00 0.000000000000000e+00
3.557263493159081e+00 2.319212337355869e+00 0.000000000000000e+00
3.594418650281494e+00 2.307714435018398e+00 0.000000000000000e+00
3.632125209464281e+00 2.296122251144062e+00 0.000000000000000e+00
3.669099371345039e+00 2.284759988906932e+00 0.000000000000000e+00
3.706823831034757e+00 2.273057567249935e+00 0.000000000000000e+00
3.743952046010292e+00 2.261694405080732e+00 0.000000000000000e+00
3.781588258846063e+00 2.250053804166523e+00 0.000000000000000e+00
3.818733748439920e+00 2.238613607455154e+00 0.000000000000000e+00
3.856428068893544e+00 2.227008430037171e+00 0.000000000000000e+00
3.893323045684918e+00 2.215635679364790e+00 0.000000000000000e+00
3.930905445794474e+00 2.204057729667718e+00 0.000000000000000e+00

POINT_DATA   33
SCALARS fTan double
LOOKUP_TABLE default

2.209489e+01 
6.994831e+00 
1.823289e+01 
2.102619e+01 
3.786442e+01 
1.509382e+01 
1.875824e+01 
1.327513e+01 
2.588408e+01 
1.325406e+01 
1.198575e+01 
3.247719e+01 
2.763128e+01 
6.665703e+00 
2.617609e-01 
5.952690e+00 
9.385141e+00 
7.031088e+00 
6.862491e+00 
5.723427e+00 
6.134041e+00 
1.289747e+01 
1.508770e+01 
1.402561e+01 
1.908645e+01 
2.046889e+01 
1.659623e+01 
1.446111e+01 
1.293706e+01 
1.452773e+01 
2.061405e+01 
1.813992e+01 
6.351765e+00 
