# vtk DataFile Version 2.0
fTan
ASCII
DATASET UNSTRUCTURED_GRID

FIELD FieldData 1
TIME 1 1 double
1.87500000
POINTS 33 float
2.959284485556574e+00 2.494300301649885e+00 0.000000000000000e+00
2.952065834735397e+00 2.489587337400954e+00 0.000000000000000e+00
2.943521849525378e+00 2.492923321056150e+00 0.000000000000000e+00
2.940788369909029e+00 2.502199347590686e+00 0.000000000000000e+00
2.947938805632284e+00 2.509183303978571e+00 0.000000000000000e+00
2.956099329807117e+00 2.507036021798725e+00 0.000000000000000e+00
2.960250510489642e+00 2.498355609264021e+00 0.000000000000000e+00
2.997286719460694e+00 2.489621468066531e+00 0.000000000000000e+00
3.034464210650190e+00 2.480346380270383e+00 0.000000000000000e+00
3.071607888182351e+00 2.471192222875360e+00 0.000000000000000e+00
3.110191882233116e+00 2.460131852019494e+00 0.000000000000000e+00
3.147825252714639e+00 2.450026011965263e+00 0.000000000000000e+00
3.186083094885933e+00 2.439551460267170e+00 0.000000000000000e+00
3.223662578218711e+00 2.429187253226914e+00 0.000000000000000e+00
3.261692428321202e+00 2.418897378035538e+00 0.000000000000000e+00
3.299481888743356e+00 2.408438898062367e+00 0.000000000000000e+00
3.337394833064906e+00 2.398190646249041e+00 0.000000000000000e+00
3.375185768875812e+00 2.387732635771959e+00 0.000000000000000e+00
3.413120756852412e+00 2.377474772323737e+00 0.000000000000000e+00
3.450897155438191e+00 2.367033186359018e+00 0.000000000000000e+00
3.488768299841409e+00 2.356775652522964e+00 0.000000000000000e+00
3.526545196444840e+00 2.346355142415736e+00 0.000000000000000e+00
3.564406918654380e+00 2.336082851461929e+00 0.000000000000000e+00
3.602176152259561e+00 2.325679829182310e+00 0.000000000000000e+00
3.640000468262659e+00 2.315409661429074e+00 0.000000000000000e+00
3.677724589946624e+00 2.305028516589966e+00 0.000000000000000e+00
3.715564475494931e+00 2.294739921999921e+00 0.000000000000000e+00
3.753270910442775e+00 2.284391973875357e+00 0.000000000000000e+00
3.791040420912009e+00 2.274090920773211e+00 0.000000000000000e+00
3.828746948443458e+00 2.263773508926380e+00 0.000000000000000e+00
3.866507849762767e+00 2.253457811584869e+00 0.000000000000000e+00
3.904179271037044e+00 2.243160950684075e+00 0.000000000000000e+00
3.941893085134506e+00 2.232856339761016e+00 0.000000000000000e+00

POINT_DATA   33
SCALARS fTan double
LOOKUP_TABLE default

1.591321e+01 
2.864016e+00 
7.957276e+00 
6.423216e+00 
5.070884e+01 
1.434484e+01 
7.421405e+00 
1.147951e+01 
2.326108e+01 
1.855213e+01 
1.612228e+01 
2.047840e+01 
1.689525e+01 
1.021524e+01 
4.691047e+00 
1.685611e+00 
1.418124e+00 
2.337901e+00 
2.384026e+00 
1.327154e+00 
9.349982e-01 
1.325814e+00 
1.118399e+00 
7.024275e-01 
1.414158e+00 
2.482247e+00 
2.505034e+00 
1.528585e+00 
1.101701e+00 
1.603243e+00 
1.968175e+00 
1.396611e+00 
5.079084e-01 
