# vtk DataFile Version 2.0
fTan
ASCII
DATASET UNSTRUCTURED_GRID

FIELD FieldData 1
TIME 1 1 double
1.42500000
POINTS 33 float
2.959677610662735e+00 2.495656986292558e+00 0.000000000000000e+00
2.952818945783064e+00 2.490286488113924e+00 0.000000000000000e+00
2.944060323369648e+00 2.493076394800714e+00 0.000000000000000e+00
2.940942305193727e+00 2.501796090248109e+00 0.000000000000000e+00
2.947603618706248e+00 2.509320097515564e+00 0.000000000000000e+00
2.956338582432483e+00 2.508376827904162e+00 0.000000000000000e+00
2.960525992030428e+00 2.499853212989351e+00 0.000000000000000e+00
2.999503390916775e+00 2.495570723024149e+00 0.000000000000000e+00
3.038338132816791e+00 2.491290354555865e+00 0.000000000000000e+00
3.076602823499540e+00 2.486667943722408e+00 0.000000000000000e+00
3.115805912199032e+00 2.481947324523322e+00 0.000000000000000e+00
3.154330194291636e+00 2.477006804511505e+00 0.000000000000000e+00
3.193707107731143e+00 2.472084788825052e+00 0.000000000000000e+00
3.232384130130909e+00 2.467386984771391e+00 0.000000000000000e+00
3.271259759145830e+00 2.462462342257949e+00 0.000000000000000e+00
3.310146178020500e+00 2.457644311960147e+00 0.000000000000000e+00
3.348944101171901e+00 2.452851930412640e+00 0.000000000000000e+00
3.387817388446151e+00 2.447946040747204e+00 0.000000000000000e+00
3.426745925869899e+00 2.443184060560033e+00 0.000000000000000e+00
3.465547386942400e+00 2.438292745312943e+00 0.000000000000000e+00
3.504414461301636e+00 2.433504135245529e+00 0.000000000000000e+00
3.543215358463922e+00 2.428656200573287e+00 0.000000000000000e+00
3.582184317157993e+00 2.423819419738354e+00 0.000000000000000e+00
3.620845044191127e+00 2.419017389580088e+00 0.000000000000000e+00
3.659853919729928e+00 2.414166499716686e+00 0.000000000000000e+00
3.698521942197040e+00 2.409362944173589e+00 0.000000000000000e+00
3.737526418269994e+00 2.404509996914679e+00 0.000000000000000e+00
3.776101653078722e+00 2.399754593941010e+00 0.000000000000000e+00
3.815223691953813e+00 2.394859315803752e+00 0.000000000000000e+00
3.853869347525844e+00 2.390071691592617e+00 0.000000000000000e+00
3.892744595581265e+00 2.385274188850463e+00 0.000000000000000e+00
3.931410285746630e+00 2.380458779772188e+00 0.000000000000000e+00
3.970366239257055e+00 2.375631562999998e+00 0.000000000000000e+00

POINT_DATA   33
SCALARS fTan double
LOOKUP_TABLE default

2.504785e+01 
1.522303e+01 
6.985737e+00 
2.617788e+01 
3.709025e+01 
2.105683e+01 
1.146428e+01 
4.623156e+00 
2.011504e+01 
2.206187e+01 
1.613652e+01 
2.147713e+01 
1.801486e+01 
5.688501e+00 
1.994262e-01 
2.191413e+00 
2.166159e+00 
9.362028e-01 
2.626475e+00 
1.491101e+00 
1.307206e+00 
4.252742e+00 
7.652692e+00 
8.895569e+00 
8.489107e+00 
8.602152e+00 
1.086407e+01 
1.412549e+01 
1.199087e+01 
5.878360e+00 
5.007230e+00 
7.407835e+00 
4.588503e+00 
