# vtk DataFile Version 2.0
fX_Lag
ASCII
DATASET UNSTRUCTURED_GRID

FIELD FieldData 1
TIME 1 1 double
0.52500000
POINTS 33 float
2.959973265900106e+00 2.495841522000127e+00 0.000000000000000e+00
2.952718778840527e+00 2.490102997844664e+00 0.000000000000000e+00
2.943803760066950e+00 2.493131502212718e+00 0.000000000000000e+00
2.941077446828236e+00 2.502094161082177e+00 0.000000000000000e+00
2.947306316006963e+00 2.509232950084838e+00 0.000000000000000e+00
2.956592449018688e+00 2.508340360194832e+00 0.000000000000000e+00
2.960821505942071e+00 2.500025465903481e+00 0.000000000000000e+00
2.999971984809016e+00 2.500013737912290e+00 0.000000000000000e+00
3.039067857553639e+00 2.500001903155363e+00 0.000000000000000e+00
3.078114399052102e+00 2.499990567587683e+00 0.000000000000000e+00
3.117179310019510e+00 2.499978915762963e+00 0.000000000000000e+00
3.156257747704780e+00 2.499967019494425e+00 0.000000000000000e+00
3.195326559954357e+00 2.499955263405909e+00 0.000000000000000e+00
3.234388656618651e+00 2.499943613328520e+00 0.000000000000000e+00
3.273455517151949e+00 2.499931887847310e+00 0.000000000000000e+00
3.312525459888461e+00 2.499920113841989e+00 0.000000000000000e+00
3.351592538626841e+00 2.499908375510997e+00 0.000000000000000e+00
3.390657735577056e+00 2.499896666865352e+00 0.000000000000000e+00
3.429724505896557e+00 2.499884933696064e+00 0.000000000000000e+00
3.468792172656390e+00 2.499873187575104e+00 0.000000000000000e+00
3.507858670530951e+00 2.499861453847442e+00 0.000000000000000e+00
3.546924277521529e+00 2.499849729339102e+00 0.000000000000000e+00
3.585990237983774e+00 2.499837994251995e+00 0.000000000000000e+00
3.625056477198662e+00 2.499826254274608e+00 0.000000000000000e+00
3.664122576931387e+00 2.499814521724704e+00 0.000000000000000e+00
3.703188159408244e+00 2.499802792750622e+00 0.000000000000000e+00
3.742252941546284e+00 2.499791055536886e+00 0.000000000000000e+00
3.781317713256929e+00 2.499779315356174e+00 0.000000000000000e+00
3.820383883252421e+00 2.499767585830070e+00 0.000000000000000e+00
3.859449604986598e+00 2.499755856151185e+00 0.000000000000000e+00
3.898511840045261e+00 2.499744108142324e+00 0.000000000000000e+00
3.937574408318325e+00 2.499732381034817e+00 0.000000000000000e+00
3.976644000067953e+00 2.499720642781788e+00 0.000000000000000e+00

POINT_DATA   33
SCALARS fX_Lag double
LOOKUP_TABLE default

4.524458e+00 
-5.466696e+00 
-1.442804e+00 
3.874628e+00 
-5.375998e+00 
-4.180842e-01 
5.395586e+00 
-6.647154e-01 
-1.367114e+00 
7.241941e-01 
3.380972e-01 
-2.406094e-01 
-1.678543e-01 
1.190866e-01 
7.704456e-02 
-7.158463e-02 
-4.702892e-02 
3.933603e-02 
2.241474e-02 
-2.920800e-02 
-2.225865e-02 
8.843963e-03 
6.978155e-03 
-3.471806e-03 
-1.291707e-02 
-1.999807e-02 
-2.479660e-04 
3.497399e-02 
-1.119191e-02 
-8.715380e-02 
8.346198e-03 
1.756025e-01 
-1.773216e-01 
