# vtk DataFile Version 2.0
fX_Lag
ASCII
DATASET UNSTRUCTURED_GRID

FIELD FieldData 1
TIME 1 1 double
2.00000000
POINTS 33 float
2.959597944976673e+00 2.494237851241260e+00 0.000000000000000e+00
2.952225339339317e+00 2.489539756694566e+00 0.000000000000000e+00
2.943422756632312e+00 2.492844526195365e+00 0.000000000000000e+00
2.940978925911341e+00 2.502182260539031e+00 0.000000000000000e+00
2.948003334309357e+00 2.509150296008800e+00 0.000000000000000e+00
2.956269616487101e+00 2.506847437207988e+00 0.000000000000000e+00
2.960608442691429e+00 2.498247047654761e+00 0.000000000000000e+00
2.999081679819135e+00 2.493348366281145e+00 0.000000000000000e+00
3.037546734000643e+00 2.487951608388983e+00 0.000000000000000e+00
3.076152995624712e+00 2.482980670461976e+00 0.000000000000000e+00
3.115891463133213e+00 2.476523638780086e+00 0.000000000000000e+00
3.154511783544685e+00 2.471053707504067e+00 0.000000000000000e+00
3.193593084704136e+00 2.465156577080337e+00 0.000000000000000e+00
3.232123731595338e+00 2.459344724159894e+00 0.000000000000000e+00
3.271222117857699e+00 2.453629076296616e+00 0.000000000000000e+00
3.309883836835775e+00 2.447738056086668e+00 0.000000000000000e+00
3.348758448020708e+00 2.442066451383271e+00 0.000000000000000e+00
3.387528201898070e+00 2.436175070500701e+00 0.000000000000000e+00
3.426353594028528e+00 2.430492531954045e+00 0.000000000000000e+00
3.465124892379994e+00 2.424618198646610e+00 0.000000000000000e+00
3.503914788262993e+00 2.418933389889058e+00 0.000000000000000e+00
3.542661411237649e+00 2.413071037638195e+00 0.000000000000000e+00
3.581467855681481e+00 2.407376801205171e+00 0.000000000000000e+00
3.620186487866996e+00 2.401530511099689e+00 0.000000000000000e+00
3.658953667683215e+00 2.395831434543413e+00 0.000000000000000e+00
3.697634915882259e+00 2.390011985100899e+00 0.000000000000000e+00
3.736444724567281e+00 2.384283019710404e+00 0.000000000000000e+00
3.775065499467782e+00 2.378498529849661e+00 0.000000000000000e+00
3.813842726914390e+00 2.372758870875718e+00 0.000000000000000e+00
3.852455913211446e+00 2.366993603519197e+00 0.000000000000000e+00
3.891204390506491e+00 2.361244327718258e+00 0.000000000000000e+00
3.929820984928109e+00 2.355497100418334e+00 0.000000000000000e+00
3.968495058713713e+00 2.349750331251519e+00 0.000000000000000e+00

POINT_DATA   33
SCALARS fX_Lag double
LOOKUP_TABLE default

1.626047e+01 
-4.664788e+00 
-8.724284e+00 
2.352315e+01 
-4.739402e+01 
4.373650e+01 
-2.180325e+01 
1.910886e+00 
-1.014236e+01 
1.750850e+01 
-2.251810e+01 
2.247619e+01 
-2.084521e+01 
1.879134e+01 
-1.254944e+01 
5.486132e+00 
-1.834788e+00 
6.484552e-01 
-1.222564e-01 
-1.436461e-01 
-2.814514e-01 
1.153076e+00 
-1.472294e+00 
1.209727e+00 
-1.647053e+00 
3.039426e+00 
-3.872598e+00 
3.836819e+00 
-3.675298e+00 
3.509617e+00 
-2.742464e+00 
1.467876e+00 
-4.502718e-01 
