# vtk DataFile Version 2.0
fX_Lag
ASCII
DATASET UNSTRUCTURED_GRID

FIELD FieldData 1
TIME 1 1 double
1.12500000
POINTS 33 float
2.959855162209536e+00 2.495786824019191e+00 0.000000000000000e+00
2.952870238837348e+00 2.490249404982255e+00 0.000000000000000e+00
2.943958567822246e+00 2.493041023399473e+00 0.000000000000000e+00
2.940821396570724e+00 2.501837660438385e+00 0.000000000000000e+00
2.947526806080266e+00 2.509288145259518e+00 0.000000000000000e+00
2.956476840321242e+00 2.508343442215117e+00 0.000000000000000e+00
2.960628577859437e+00 2.499952129131439e+00 0.000000000000000e+00
2.999350060759505e+00 2.495616178500197e+00 0.000000000000000e+00
3.038209473383868e+00 2.491203514397555e+00 0.000000000000000e+00
3.076635320493792e+00 2.486694882541842e+00 0.000000000000000e+00
3.115744345418179e+00 2.481596414937044e+00 0.000000000000000e+00
3.154243334978886e+00 2.476768631668050e+00 0.000000000000000e+00
3.193533333593962e+00 2.471822008720375e+00 0.000000000000000e+00
3.232171273318050e+00 2.466929364733676e+00 0.000000000000000e+00
3.270756407628218e+00 2.462043480417045e+00 0.000000000000000e+00
3.309854929544012e+00 2.457135180735996e+00 0.000000000000000e+00
3.348575433502467e+00 2.452221411380053e+00 0.000000000000000e+00
3.387460065624835e+00 2.447317213716652e+00 0.000000000000000e+00
3.426157049147387e+00 2.442442881094027e+00 0.000000000000000e+00
3.465015429047434e+00 2.437510757325925e+00 0.000000000000000e+00
3.503874737443531e+00 2.432630449845041e+00 0.000000000000000e+00
3.542699328580216e+00 2.427709988017057e+00 0.000000000000000e+00
3.581428786709594e+00 2.422826768530589e+00 0.000000000000000e+00
3.620253785100392e+00 2.417939803690265e+00 0.000000000000000e+00
3.659123560643623e+00 2.413013609720180e+00 0.000000000000000e+00
3.697915724388444e+00 2.408147827283047e+00 0.000000000000000e+00
3.736721679295834e+00 2.403227744569029e+00 0.000000000000000e+00
3.775427551886112e+00 2.398353779783064e+00 0.000000000000000e+00
3.814396514255129e+00 2.393452325448887e+00 0.000000000000000e+00
3.853076024490321e+00 2.388545033811509e+00 0.000000000000000e+00
3.891961224152169e+00 2.383668900963648e+00 0.000000000000000e+00
3.930609866124104e+00 2.378783661840698e+00 0.000000000000000e+00
3.969562017593214e+00 2.373875319159769e+00 0.000000000000000e+00

POINT_DATA   33
SCALARS fX_Lag double
LOOKUP_TABLE default

1.225175e+01 
-1.330603e+01 
-8.457500e+00 
2.087882e+01 
-2.903450e+01 
1.264708e+01 
3.237677e+00 
1.064451e+01 
-2.119144e+01 
2.050886e+01 
-1.941074e+01 
2.491978e+01 
-1.912887e+01 
-8.503924e-01 
1.382899e+01 
-1.065622e+01 
4.484831e+00 
-4.517305e+00 
3.539384e+00 
7.604325e-01 
-1.131956e+00 
-1.904608e+00 
2.635755e+00 
8.275758e-01 
-1.607608e+00 
-3.496306e-01 
-1.883933e+00 
6.629801e+00 
-7.960430e+00 
6.222290e+00 
-5.988975e+00 
7.203337e+00 
-4.351915e+00 
