# vtk DataFile Version 2.0
fY_Lag
ASCII
DATASET UNSTRUCTURED_GRID

FIELD FieldData 1
TIME 1 1 double
2.32500000
POINTS 33 float
2.959490336424089e+00 2.495881938416241e+00 0.000000000000000e+00
2.952656821124314e+00 2.490231329182764e+00 0.000000000000000e+00
2.943795564166618e+00 2.492986274090016e+00 0.000000000000000e+00
2.940813630755064e+00 2.502093682890407e+00 0.000000000000000e+00
2.947394825170979e+00 2.509371276806564e+00 0.000000000000000e+00
2.956160746431944e+00 2.508169461358806e+00 0.000000000000000e+00
2.960700908265177e+00 2.500217032288585e+00 0.000000000000000e+00
2.997382620419682e+00 2.509472335933637e+00 0.000000000000000e+00
3.034600567783420e+00 2.518923299875708e+00 0.000000000000000e+00
3.071061694334228e+00 2.528854246081124e+00 0.000000000000000e+00
3.109020677916763e+00 2.539763872544704e+00 0.000000000000000e+00
3.146076501073159e+00 2.550697372809482e+00 0.000000000000000e+00
3.184700345142096e+00 2.561523023765994e+00 0.000000000000000e+00
3.221936094360762e+00 2.572447397219701e+00 0.000000000000000e+00
3.259713660149817e+00 2.583233717670461e+00 0.000000000000000e+00
3.297302831852596e+00 2.593989051315424e+00 0.000000000000000e+00
3.335041008447392e+00 2.604996964761887e+00 0.000000000000000e+00
3.372736317781711e+00 2.615645487566387e+00 0.000000000000000e+00
3.410404321458274e+00 2.626676362066787e+00 0.000000000000000e+00
3.448000259408019e+00 2.637299594870617e+00 0.000000000000000e+00
3.485789004279932e+00 2.648341512008701e+00 0.000000000000000e+00
3.523301868828733e+00 2.658972672409510e+00 0.000000000000000e+00
3.561067196725276e+00 2.669958097004798e+00 0.000000000000000e+00
3.598535446318958e+00 2.680649476801753e+00 0.000000000000000e+00
3.636246476359863e+00 2.691518278605146e+00 0.000000000000000e+00
3.673846497569943e+00 2.702357251047910e+00 0.000000000000000e+00
3.711371633729747e+00 2.713094690596753e+00 0.000000000000000e+00
3.748948260643304e+00 2.723940473258591e+00 0.000000000000000e+00
3.786529108196949e+00 2.734725003780012e+00 0.000000000000000e+00
3.824124111196583e+00 2.745539652829186e+00 0.000000000000000e+00
3.861721161491545e+00 2.756347756336149e+00 0.000000000000000e+00
3.899202617481512e+00 2.767122890317972e+00 0.000000000000000e+00
3.936800849768674e+00 2.777930762099720e+00 0.000000000000000e+00

POINT_DATA   33
SCALARS fY_Lag double
LOOKUP_TABLE default

1.382027e+01 
-1.203751e+01 
1.859475e+00 
5.052236e+00 
-7.574889e+00 
1.192605e+01 
-8.457112e+00 
-1.818250e+01 
6.555138e+01 
-1.342676e+02 
1.439428e+02 
-8.776643e+01 
3.684359e+01 
-1.039472e+01 
-1.094749e+01 
2.840607e+01 
-2.818603e+01 
1.415423e+01 
-5.850795e+00 
5.530622e+00 
-7.176150e+00 
9.316957e+00 
-1.007244e+01 
4.617416e+00 
8.616928e+00 
-1.844663e+01 
1.348963e+01 
-1.209901e+00 
-4.326156e+00 
3.895257e+00 
-2.431243e+00 
9.735781e-01 
-7.753337e-02 
