# vtk DataFile Version 2.0
fY_Lag
ASCII
DATASET UNSTRUCTURED_GRID

FIELD FieldData 1
TIME 1 1 double
2.42500000
POINTS 33 float
2.959653969095533e+00 2.495597227982485e+00 0.000000000000000e+00
2.952730522650876e+00 2.490252335058124e+00 0.000000000000000e+00
2.943858988292879e+00 2.493150977006901e+00 0.000000000000000e+00
2.940749781891146e+00 2.502131667709210e+00 0.000000000000000e+00
2.947609658196564e+00 2.509417055942241e+00 0.000000000000000e+00
2.956504815998418e+00 2.508104452153999e+00 0.000000000000000e+00
2.960933762041251e+00 2.499899772623697e+00 0.000000000000000e+00
2.999421304856380e+00 2.504349156883128e+00 0.000000000000000e+00
3.038254999794781e+00 2.508868694722960e+00 0.000000000000000e+00
3.076344503384804e+00 2.513487496024149e+00 0.000000000000000e+00
3.115934711539437e+00 2.518738168347611e+00 0.000000000000000e+00
3.153652363243612e+00 2.523746684461574e+00 0.000000000000000e+00
3.192980524424062e+00 2.528596705206961e+00 0.000000000000000e+00
3.231118937294106e+00 2.533776342122854e+00 0.000000000000000e+00
3.270194754235986e+00 2.538738447529260e+00 0.000000000000000e+00
3.308667118482272e+00 2.543706953143482e+00 0.000000000000000e+00
3.347302219675874e+00 2.548824147178104e+00 0.000000000000000e+00
3.385966222719726e+00 2.553680764736121e+00 0.000000000000000e+00
3.424681516795602e+00 2.558884208583619e+00 0.000000000000000e+00
3.463319447938407e+00 2.563725346953232e+00 0.000000000000000e+00
3.502052258074491e+00 2.568898022229280e+00 0.000000000000000e+00
3.540648936168865e+00 2.573785450186144e+00 0.000000000000000e+00
3.579397423249058e+00 2.578911208070910e+00 0.000000000000000e+00
3.617990542525331e+00 2.583857114901593e+00 0.000000000000000e+00
3.656719749558436e+00 2.588919796290377e+00 0.000000000000000e+00
3.695308566110491e+00 2.593920269809882e+00 0.000000000000000e+00
3.734095431657278e+00 2.598956855243919e+00 0.000000000000000e+00
3.772640027670202e+00 2.603980592349783e+00 0.000000000000000e+00
3.811502118548121e+00 2.609009291857244e+00 0.000000000000000e+00
3.850045959458109e+00 2.614041163481536e+00 0.000000000000000e+00
3.888907957023215e+00 2.619084571688919e+00 0.000000000000000e+00
3.927524136813293e+00 2.624110440204706e+00 0.000000000000000e+00
3.966319359666179e+00 2.629160587750948e+00 0.000000000000000e+00

POINT_DATA   33
SCALARS fY_Lag double
LOOKUP_TABLE default

2.465641e+01 
-1.400954e+01 
-4.396404e+00 
6.855834e+00 
-1.219109e+01 
1.019503e+01 
2.552947e+00 
-3.486694e+01 
3.161426e+01 
-8.393459e+00 
1.742120e+01 
-6.693208e+01 
7.734849e+01 
-2.837543e+01 
-1.456935e+01 
2.195694e+01 
-1.904605e+01 
1.886275e+01 
-1.467716e+01 
5.148605e+00 
-6.864938e-01 
2.403175e+00 
-2.361125e+00 
-2.559704e+00 
4.520044e+00 
-2.242952e+00 
9.682264e-01 
-3.528626e+00 
4.074245e+00 
-1.029251e+00 
-2.708785e+00 
3.480236e+00 
-2.008584e+00 
