# vtk DataFile Version 2.0
fY_Lag
ASCII
DATASET UNSTRUCTURED_GRID

FIELD FieldData 1
TIME 1 1 double
0.57500000
POINTS 33 float
2.959967540366640e+00 2.495837389216371e+00 0.000000000000000e+00
2.952724134347401e+00 2.490100239867447e+00 0.000000000000000e+00
2.943812047087705e+00 2.493135610968594e+00 0.000000000000000e+00
2.941070343501395e+00 2.502092265418465e+00 0.000000000000000e+00
2.947315350366722e+00 2.509229136349661e+00 0.000000000000000e+00
2.956594215047545e+00 2.508345932624773e+00 0.000000000000000e+00
2.960812640722942e+00 2.500028836604230e+00 0.000000000000000e+00
2.999970247428249e+00 2.500021002428834e+00 0.000000000000000e+00
3.039068477119749e+00 2.500013092478352e+00 0.000000000000000e+00
3.078113217621662e+00 2.500006164882119e+00 0.000000000000000e+00
3.117177980308756e+00 2.499999045305759e+00 0.000000000000000e+00
3.156257433070283e+00 2.499991825530646e+00 0.000000000000000e+00
3.195326290085256e+00 2.499984689451754e+00 0.000000000000000e+00
3.234387841915097e+00 2.499977595163958e+00 0.000000000000000e+00
3.273454717936706e+00 2.499970476201818e+00 0.000000000000000e+00
3.312524999801922e+00 2.499963313781285e+00 0.000000000000000e+00
3.351592045282769e+00 2.499956196742612e+00 0.000000000000000e+00
3.390657011617730e+00 2.499949071461800e+00 0.000000000000000e+00
3.429723849040075e+00 2.499941954895494e+00 0.000000000000000e+00
3.468791730461716e+00 2.499934824744600e+00 0.000000000000000e+00
3.507858209061462e+00 2.499927704368615e+00 0.000000000000000e+00
3.546923678677782e+00 2.499920579366144e+00 0.000000000000000e+00
3.585989705161799e+00 2.499913470256401e+00 0.000000000000000e+00
3.625056110374853e+00 2.499906360687119e+00 0.000000000000000e+00
3.664122212951504e+00 2.499899237810624e+00 0.000000000000000e+00
3.703187712358238e+00 2.499892113220564e+00 0.000000000000000e+00
3.742252545961768e+00 2.499885022617198e+00 0.000000000000000e+00
3.781317441001366e+00 2.499877937958115e+00 0.000000000000000e+00
3.820383632966524e+00 2.499870794423265e+00 0.000000000000000e+00
3.859449315015857e+00 2.499863663154972e+00 0.000000000000000e+00
3.898511576853427e+00 2.499856654459369e+00 0.000000000000000e+00
3.937574219470340e+00 2.499849493484822e+00 0.000000000000000e+00
3.976643851159663e+00 2.499842402916754e+00 0.000000000000000e+00

POINT_DATA   33
SCALARS fY_Lag double
LOOKUP_TABLE default

5.297052e+00 
-1.040154e+00 
-2.470870e+00 
2.405566e+00 
-3.222349e-01 
-1.092824e-02 
-3.706068e+00 
-2.821648e-01 
1.821874e-01 
-1.231461e-03 
-9.315826e-02 
3.255499e-02 
4.259555e-02 
-1.559069e-02 
-2.020767e-02 
1.135635e-02 
1.088593e-02 
-1.628632e-03 
-2.978257e-03 
-1.813076e-04 
4.382908e-03 
7.629603e-03 
-3.252661e-05 
-9.463451e-03 
4.469839e-03 
2.121449e-02 
-4.673293e-03 
-3.103229e-02 
2.594881e-02 
3.087882e-02 
-3.466443e-02 
-3.636767e-03 
2.094999e-02 
