# vtk DataFile Version 2.0
fY_Lag
ASCII
DATASET UNSTRUCTURED_GRID

FIELD FieldData 1
TIME 1 1 double
0.62500000
POINTS 33 float
2.959961228009240e+00 2.495850613962915e+00 0.000000000000000e+00
2.952732166369704e+00 2.490103928412617e+00 0.000000000000000e+00
2.943824069689403e+00 2.493140981179449e+00 0.000000000000000e+00
2.941061226739552e+00 2.502092042963382e+00 0.000000000000000e+00
2.947319334663207e+00 2.509228015759355e+00 0.000000000000000e+00
2.956595716381737e+00 2.508363574449182e+00 0.000000000000000e+00
2.960804790315676e+00 2.500051816966092e+00 0.000000000000000e+00
2.999968565492836e+00 2.500122242354268e+00 0.000000000000000e+00
3.039068626868007e+00 2.500196620291967e+00 0.000000000000000e+00
3.078111630121922e+00 2.500274620695821e+00 0.000000000000000e+00
3.117176168806942e+00 2.500357150389783e+00 0.000000000000000e+00
3.156256419137957e+00 2.500442593614044e+00 0.000000000000000e+00
3.195325283539423e+00 2.500526339994332e+00 0.000000000000000e+00
3.234386267295713e+00 2.500608921920719e+00 0.000000000000000e+00
3.273453027639570e+00 2.500692272219866e+00 0.000000000000000e+00
3.312523519188159e+00 2.500776208843235e+00 0.000000000000000e+00
3.351590445685991e+00 2.500859731351493e+00 0.000000000000000e+00
3.390655124262594e+00 2.500943023327586e+00 0.000000000000000e+00
3.429721921514627e+00 2.501026456795256e+00 0.000000000000000e+00
3.468789902003663e+00 2.501110026268987e+00 0.000000000000000e+00
3.507856262986716e+00 2.501193512737408e+00 0.000000000000000e+00
3.546921516488692e+00 2.501276955406392e+00 0.000000000000000e+00
3.585987511522695e+00 2.501360398829597e+00 0.000000000000000e+00
3.625053971613676e+00 2.501443864351381e+00 0.000000000000000e+00
3.664119973653158e+00 2.501527344293263e+00 0.000000000000000e+00
3.703185297914507e+00 2.501610819400747e+00 0.000000000000000e+00
3.742250093786456e+00 2.501694238933589e+00 0.000000000000000e+00
3.781315003587688e+00 2.501777651102373e+00 0.000000000000000e+00
3.820381108621821e+00 2.501861163319385e+00 0.000000000000000e+00
3.859446648034293e+00 2.501944656494346e+00 0.000000000000000e+00
3.898508862656252e+00 2.502027942560472e+00 0.000000000000000e+00
3.937571471735722e+00 2.502111477629169e+00 0.000000000000000e+00
3.976641017473928e+00 2.502194913125858e+00 0.000000000000000e+00

POINT_DATA   33
SCALARS fY_Lag double
LOOKUP_TABLE default

5.268629e+00 
-1.330618e+00 
-2.508164e+00 
2.550587e+00 
-3.503783e-01 
-3.081552e-01 
-3.431183e+00 
5.733218e-01 
-2.210444e-02 
-2.107680e+00 
2.615992e+00 
-4.929996e-01 
-9.808033e-01 
2.879453e-01 
4.598235e-01 
-1.407551e-01 
-2.202580e-01 
5.542678e-02 
9.887573e-02 
-2.078389e-02 
-5.011572e-02 
-6.874113e-03 
1.715056e-02 
1.456732e-02 
-1.419275e-02 
-3.675601e-02 
8.260759e-03 
5.145280e-02 
-4.243842e-02 
-5.221585e-02 
5.508912e-02 
5.920908e-03 
-3.557657e-02 
