# vtk DataFile Version 2.0
fY_Lag
ASCII
DATASET UNSTRUCTURED_GRID

FIELD FieldData 1
TIME 1 1 double
0.95000000
POINTS 33 float
2.959526492193256e+00 2.494883107437366e+00 0.000000000000000e+00
2.952449645289028e+00 2.489720969914597e+00 0.000000000000000e+00
2.943842409571655e+00 2.493207439303699e+00 0.000000000000000e+00
2.941128447122933e+00 2.502175574839043e+00 0.000000000000000e+00
2.947694615023892e+00 2.509159005873833e+00 0.000000000000000e+00
2.956485882600812e+00 2.507716134114507e+00 0.000000000000000e+00
2.960325789721836e+00 2.499031209062655e+00 0.000000000000000e+00
2.998915446816774e+00 2.493494477585660e+00 0.000000000000000e+00
3.037490612918774e+00 2.487765903486828e+00 0.000000000000000e+00
3.075425344354628e+00 2.481848612558887e+00 0.000000000000000e+00
3.113833160085443e+00 2.475522089251133e+00 0.000000000000000e+00
3.152391561486846e+00 2.469039020289053e+00 0.000000000000000e+00
3.191112156319566e+00 2.462621357177717e+00 0.000000000000000e+00
3.229724964567231e+00 2.456264886211450e+00 0.000000000000000e+00
3.268023021106588e+00 2.449922281007977e+00 0.000000000000000e+00
3.306581215102160e+00 2.443522698100191e+00 0.000000000000000e+00
3.345083975690902e+00 2.437151075388309e+00 0.000000000000000e+00
3.383647554503959e+00 2.430762521047909e+00 0.000000000000000e+00
3.422199554115696e+00 2.424379751724516e+00 0.000000000000000e+00
3.460686986837807e+00 2.418011438550964e+00 0.000000000000000e+00
3.499164981801051e+00 2.411636191279996e+00 0.000000000000000e+00
3.537751413167022e+00 2.405238036083930e+00 0.000000000000000e+00
3.576289051947693e+00 2.398866360543696e+00 0.000000000000000e+00
3.614767205436985e+00 2.392503114857357e+00 0.000000000000000e+00
3.653320355656129e+00 2.386105951993661e+00 0.000000000000000e+00
3.691914985283781e+00 2.379707993677580e+00 0.000000000000000e+00
3.730404625966727e+00 2.373350428493884e+00 0.000000000000000e+00
3.768884372576204e+00 2.366992163754617e+00 0.000000000000000e+00
3.807484961303226e+00 2.360574888515344e+00 0.000000000000000e+00
3.846114769626792e+00 2.354173298433290e+00 0.000000000000000e+00
3.884600663074885e+00 2.347835546611623e+00 0.000000000000000e+00
3.922990688838145e+00 2.341457503131355e+00 0.000000000000000e+00
3.961725783387468e+00 2.335045215179738e+00 0.000000000000000e+00

POINT_DATA   33
SCALARS fY_Lag double
LOOKUP_TABLE default

3.387752e+01 
3.569061e+00 
-1.477893e+01 
3.034528e+00 
-1.796335e+00 
2.189319e+01 
-3.112666e+01 
-3.607303e+01 
-1.475770e+01 
1.341562e+02 
-1.474893e+02 
2.877333e+01 
4.300706e+01 
-1.221554e+01 
-1.496967e+01 
5.355803e+00 
2.572909e+00 
1.611122e+00 
1.284756e+00 
-5.124181e+00 
-9.468929e-02 
9.615176e+00 
-1.215436e+00 
-1.141313e+01 
4.222245e+00 
1.556224e+01 
-5.818228e+00 
-1.795118e+01 
1.288826e+01 
1.444168e+01 
-1.362372e+01 
-3.916136e+00 
8.088761e+00 
