# vtk DataFile Version 2.0
Comment goes here
ASCII

DATASET STRUCTURED_POINTS
FIELD FieldData 1
TIME 1 1 double
0.00150000
DIMENSIONS    32   32   1

ORIGIN    0.000   0.000   0.000
SPACING   0.03125 0.03125   1.000

POINT_DATA   1024
SCALARS Omega double
LOOKUP_TABLE default

-5.597361e-14 -5.926836e-04 -1.159728e-03 -1.696679e-03 -2.098392e-03 -2.406810e-03 -2.361168e-03 -2.086611e-03 -1.273356e-03 -1.174626e-04 1.376091e-03 2.952131e-03 4.039241e-03 4.476196e-03 3.597175e-03 2.019381e-03 -1.189458e-13 -2.019381e-03 -3.597175e-03 -4.476196e-03 -4.039241e-03 -2.952131e-03 -1.376091e-03 1.174626e-04 1.273356e-03 2.086611e-03 2.361168e-03 2.406810e-03 2.098392e-03 1.696679e-03 1.159728e-03 5.926836e-04 
-1.468817e-13 5.749501e-04 1.105937e-03 1.568025e-03 1.911426e-03 2.024678e-03 1.965072e-03 1.506910e-03 8.120545e-04 -1.680223e-04 -1.371540e-03 -2.356302e-03 -3.115306e-03 -3.172986e-03 -2.597347e-03 -1.437301e-03 -2.330562e-13 1.437301e-03 2.597347e-03 3.172986e-03 3.115306e-03 2.356302e-03 1.371540e-03 1.680223e-04 -8.120545e-04 -1.506910e-03 -1.965072e-03 -2.024678e-03 -1.911426e-03 -1.568025e-03 -1.105937e-03 -5.749501e-04 
-2.289599e-13 -6.380062e-04 -1.288704e-03 -1.780088e-03 -2.206959e-03 -2.384360e-03 -2.201811e-03 -1.807255e-03 -7.997798e-04 2.378580e-04 1.531451e-03 2.518657e-03 3.187346e-03 3.208509e-03 2.607490e-03 1.441844e-03 -2.342992e-13 -1.441844e-03 -2.607490e-03 -3.208509e-03 -3.187346e-03 -2.518657e-03 -1.531451e-03 -2.378580e-04 7.997798e-04 1.807255e-03 2.201811e-03 2.384360e-03 2.206959e-03 1.780088e-03 1.288704e-03 6.380062e-04 
-7.524761e-14 6.716115e-04 1.242615e-03 1.766632e-03 2.082115e-03 2.064213e-03 2.018295e-03 1.276169e-03 7.935986e-04 -1.792607e-04 -1.227903e-03 -2.101062e-03 -2.736899e-03 -2.827612e-03 -2.300938e-03 -1.310506e-03 -3.129411e-13 1.310506e-03 2.300938e-03 2.827612e-03 2.736899e-03 2.101062e-03 1.227903e-03 1.792607e-04 -7.935986e-04 -1.276169e-03 -2.018295e-03 -2.064213e-03 -2.082115e-03 -1.766632e-03 -1.242615e-03 -6.716115e-04 
-2.671676e-14 -7.262989e-04 -1.537901e-03 -2.097773e-03 -2.653517e-03 -3.024089e-03 -2.592926e-03 -2.472439e-03 -6.835169e-04 6.031242e-04 2.095914e-03 3.256115e-03 3.774760e-03 3.735480e-03 2.964937e-03 1.637778e-03 -2.334178e-13 -1.637778e-03 -2.964937e-03 -3.735480e-03 -3.774760e-03 -3.256115e-03 -2.095914e-03 -6.031242e-04 6.835169e-04 2.472439e-03 2.592926e-03 3.024089e-03 2.653517e-03 2.097773e-03 1.537901e-03 7.262989e-04 
-9.759000e-14 9.074838e-04 1.644060e-03 2.399643e-03 2.855070e-03 2.476823e-03 2.762251e-03 7.362479e-04 1.244253e-03 3.324090e-04 -1.478446e-03 -2.369089e-03 -3.850603e-03 -4.003360e-03 -3.460083e-03 -1.972554e-03 -3.494067e-13 1.972554e-03 3.460083e-03 4.003360e-03 3.850603e-03 2.369089e-03 1.478446e-03 -3.324090e-04 -1.244253e-03 -7.362479e-04 -2.762251e-03 -2.476823e-03 -2.855070e-03 -2.399643e-03 -1.644060e-03 -9.074838e-04 
-4.320793e-14 -8.825258e-04 -2.084445e-03 -2.749277e-03 -3.860162e-03 -4.870190e-03 -4.059639e-03 -5.672344e-03 -6.014308e-04 2.153390e-03 3.913754e-03 6.235020e-03 6.583907e-03 6.659260e-03 5.238075e-03 2.911120e-03 -1.673067e-13 -2.911120e-03 -5.238075e-03 -6.659260e-03 -6.583907e-03 -6.235020e-03 -3.913754e-03 -2.153390e-03 6.014308e-04 5.672344e-03 4.059639e-03 4.870190e-03 3.860162e-03 2.749277e-03 2.084445e-03 8.825258e-04 
-9.192898e-14 1.406993e-03 2.579398e-03 4.238651e-03 5.160726e-03 4.119680e-03 4.871211e-03 -3.993859e-03 2.661387e-03 4.478433e-03 -2.380568e-03 -3.210767e-03 -7.915253e-03 -8.744811e-03 -7.782172e-03 -4.501209e-03 -1.773128e-13 4.501209e-03 7.782172e-03 8.744811e-03 7.915253e-03 3.210767e-03 2.380568e-03 -4.478433e-03 -2.661387e-03 3.993859e-03 -4.871211e-03 -4.119680e-03 -5.160726e-03 -4.238651e-03 -2.579398e-03 -1.406993e-03 
-2.499887e-14 -1.217000e-03 -3.191218e-03 -3.914223e-03 -6.887252e-03 -8.783306e-03 -8.950019e-03 -2.122942e-02 1.040398e-03 1.309140e-02 9.779578e-03 1.498478e-02 1.540786e-02 1.564274e-02 1.264256e-02 6.934520e-03 -1.736803e-13 -6.934520e-03 -1.264256e-02 -1.564274e-02 -1.540786e-02 -1.498478e-02 -9.779578e-03 -1.309140e-02 -1.040398e-03 2.122942e-02 8.950019e-03 8.783306e-03 6.887252e-03 3.914223e-03 3.191218e-03 1.217000e-03 
1.439601e-14 1.925496e-03 4.319541e-03 8.788015e-03 1.269524e-02 1.418110e-02 1.225285e-02 -4.449268e-02 7.278717e-03 4.007308e-02 -7.609468e-03 -7.524261e-03 -2.058849e-02 -2.537616e-02 -2.154382e-02 -1.250726e-02 -5.478438e-14 1.250726e-02 2.154382e-02 2.537616e-02 2.058849e-02 7.524261e-03 7.609468e-03 -4.007308e-02 -7.278717e-03 4.449268e-02 -1.225285e-02 -1.418110e-02 -1.269524e-02 -8.788015e-03 -4.319541e-03 -1.925496e-03 
7.462899e-14 -2.361338e-03 -4.824310e-03 -7.716864e-03 -1.434106e-02 -1.383251e-02 -2.819404e-02 -1.226738e-01 1.202534e-02 9.321818e-02 2.090715e-02 3.237737e-02 4.285125e-02 4.438901e-02 3.539245e-02 1.906581e-02 -1.129951e-13 -1.906581e-02 -3.539245e-02 -4.438901e-02 -4.285125e-02 -3.237737e-02 -2.090715e-02 -9.321818e-02 -1.202534e-02 1.226738e-01 2.819404e-02 1.383251e-02 1.434106e-02 7.716864e-03 4.824310e-03 2.361338e-03 
2.632736e-15 3.217664e-04 5.521431e-03 1.154174e-02 3.755388e-02 7.991960e-02 7.429266e-02 -4.389689e-01 -1.293521e-01 6.779702e-02 -1.109517e-01 -5.328625e-02 -5.756015e-02 -7.855091e-02 -6.468065e-02 -3.517164e-02 3.995114e-14 3.517164e-02 6.468065e-02 7.855091e-02 5.756015e-02 5.328625e-02 1.109517e-01 -6.779702e-02 1.293521e-01 4.389689e-01 -7.429266e-02 -7.991960e-02 -3.755388e-02 -1.154174e-02 -5.521431e-03 -3.217664e-04 
3.119636e-14 -5.292846e-03 -3.077236e-03 -3.133527e-02 -3.196014e-02 -6.197879e-02 -1.419427e-01 -1.323973e+00 -3.034764e+00 -3.763938e+00 -3.464790e-01 -1.175375e-01 1.043746e-01 1.468231e-01 9.301648e-02 4.970204e-02 6.302677e-14 -4.970204e-02 -9.301648e-02 -1.468231e-01 -1.043746e-01 1.175375e-01 3.464790e-01 3.763938e+00 3.034764e+00 1.323973e+00 1.419427e-01 6.197879e-02 3.196014e-02 3.133527e-02 3.077236e-03 5.292846e-03 
6.359662e-14 -3.676349e-03 5.496478e-03 -3.738729e-02 5.215870e-02 2.233842e-01 1.506451e+00 -8.205406e+00 -4.603700e+01 -3.929537e+01 -2.564535e+00 -2.026837e+00 -4.458897e-01 -3.126614e-01 -2.389510e-01 -9.940719e-02 -2.680846e-13 9.940719e-02 2.389510e-01 3.126614e-01 4.458897e-01 2.026837e+00 2.564535e+00 3.929537e+01 4.603700e+01 8.205406e+00 -1.506451e+00 -2.233842e-01 -5.215870e-02 3.738729e-02 -5.496478e-03 3.676349e-03 
-4.638125e-14 -2.667419e-03 2.285517e-02 -9.770289e-02 -2.388760e-01 -5.759595e+00 -3.878063e+01 -2.542624e+02 -4.434695e+02 -2.176176e+02 -1.965033e+01 -1.706769e+01 -2.960105e+00 -7.234065e-01 -2.950929e-01 -4.478339e-02 5.226660e-15 4.478339e-02 2.950929e-01 7.234065e-01 2.960105e+00 1.706769e+01 1.965033e+01 2.176176e+02 4.434695e+02 2.542624e+02 3.878063e+01 5.759595e+00 2.388760e-01 9.770289e-02 -2.285517e-02 2.667419e-03 
-1.136432e-13 2.951122e-02 1.185679e-01 2.727954e-01 -1.884534e-01 -2.298923e+01 -2.207235e+02 -7.398950e+02 -8.570383e+02 -4.153037e+02 -2.000853e+02 -9.440640e+01 -2.250134e+01 -1.133030e+01 -4.423351e+00 -1.286672e+00 2.309531e-14 1.286672e+00 4.423351e+00 1.133030e+01 2.250134e+01 9.440640e+01 2.000853e+02 4.153037e+02 8.570383e+02 7.398950e+02 2.207235e+02 2.298923e+01 1.884534e-01 -2.727954e-01 -1.185679e-01 -2.951122e-02 
-2.544936e-14 -1.996127e-02 -6.684997e-02 -2.450147e-01 -1.465434e+00 -1.856383e+01 -3.188144e+02 -7.092680e+02 -6.086323e+02 -5.621017e+02 -4.853479e+02 -1.781200e+02 -1.104025e+02 -6.351389e+01 -2.395459e+01 -8.112273e+00 -1.867318e-13 8.112273e+00 2.395459e+01 6.351389e+01 1.104025e+02 1.781200e+02 4.853479e+02 5.621017e+02 6.086323e+02 7.092680e+02 3.188144e+02 1.856383e+01 1.465434e+00 2.450147e-01 6.684997e-02 1.996127e-02 
-5.387732e-14 -1.459537e-02 -3.317056e-03 -1.975305e-01 -4.366243e-02 -1.756612e+00 -1.749173e+02 -1.944165e+02 -2.917971e+02 -7.502007e+02 -5.473496e+02 -2.063023e+02 -2.379555e+02 -1.577909e+02 -7.905010e+01 -3.665560e+01 -7.784301e-13 3.665560e+01 7.905010e+01 1.577909e+02 2.379555e+02 2.063023e+02 5.473496e+02 7.502007e+02 2.917971e+02 1.944165e+02 1.749173e+02 1.756612e+00 4.366243e-02 1.975305e-01 3.317056e-03 1.459537e-02 
-1.217611e-13 -1.281086e-02 1.436295e-02 -6.925914e-02 2.454002e-01 -3.681529e-02 -3.031412e+01 4.106353e+01 -1.469475e+02 -5.042355e+02 -6.476729e+02 -7.787819e+02 -4.816552e+02 3.007736e+00 1.275998e+02 5.620455e+01 -2.204994e-12 -5.620455e+01 -1.275998e+02 -3.007736e+00 4.816552e+02 7.787819e+02 6.476729e+02 5.042355e+02 1.469475e+02 -4.106353e+01 3.031412e+01 3.681529e-02 -2.454002e-01 6.925914e-02 -1.436295e-02 1.281086e-02 
-8.576405e-14 -1.296433e-03 1.210424e-02 2.187193e-03 3.784281e-02 1.231852e-01 -3.659076e+00 2.299538e+00 -2.070486e+01 -3.527473e+01 -3.002630e+02 -8.047628e+02 -9.262277e+02 -6.318392e+02 -2.582072e+02 -3.507156e+01 6.465713e-12 3.507156e+01 2.582072e+02 6.318392e+02 9.262277e+02 8.047628e+02 3.002630e+02 3.527473e+01 2.070486e+01 -2.299538e+00 3.659076e+00 -1.231852e-01 -3.784281e-02 -2.187193e-03 -1.210424e-02 1.296433e-03 
-9.030817e-14 -8.498914e-04 3.100558e-03 8.338437e-03 4.959727e-03 8.525351e-02 -2.399451e-01 4.178592e-01 -3.836048e+00 1.479360e+01 5.944040e+01 -7.935016e+00 -2.687442e+02 -5.239392e+02 -5.022617e+02 -2.577048e+02 1.183362e-11 2.577048e+02 5.022617e+02 5.239392e+02 2.687442e+02 7.935016e+00 -5.944040e+01 -1.479360e+01 3.836048e+00 -4.178592e-01 2.399451e-01 -8.525351e-02 -4.959727e-03 -8.338437e-03 -3.100558e-03 8.498914e-04 
1.625594e-14 7.724068e-04 -2.630910e-03 2.938973e-04 -2.974415e-02 -3.976959e-02 -1.531755e-01 -3.333623e-01 -6.163027e-01 -1.318479e+00 6.703925e+00 9.281436e+01 2.617643e+02 2.814192e+02 1.062059e+02 -1.546524e+01 3.979411e-12 1.546524e+01 -1.062059e+02 -2.814192e+02 -2.617643e+02 -9.281436e+01 -6.703925e+00 1.318479e+00 6.163027e-01 3.333623e-01 1.531755e-01 3.976959e-02 2.974415e-02 -2.938973e-04 2.630910e-03 -7.724068e-04 
1.608058e-14 2.025694e-03 8.685316e-04 1.046624e-02 5.490011e-03 3.295035e-02 5.372058e-02 9.548099e-02 1.736895e-01 5.868245e-01 7.123004e-01 -3.301565e+00 -1.137246e+00 4.948370e+01 1.174614e+02 1.061892e+02 -5.692016e-14 -1.061892e+02 -1.174614e+02 -4.948370e+01 1.137246e+00 3.301565e+00 -7.123004e-01 -5.868245e-01 -1.736895e-01 -9.548099e-02 -5.372058e-02 -3.295035e-02 -5.490011e-03 -1.046624e-02 -8.685316e-04 -2.025694e-03 
6.755154e-14 -9.112244e-04 -5.160379e-03 -6.195868e-03 -1.762832e-02 -2.796119e-02 -3.693288e-02 -7.369802e-02 -3.478272e-02 -2.809836e-02 4.203828e-02 -1.893997e-01 -1.997293e+00 -4.228833e+00 -7.766237e+00 -6.708133e+00 -2.497856e-13 6.708133e+00 7.766237e+00 4.228833e+00 1.997293e+00 1.893997e-01 -4.203828e-02 2.809836e-02 3.478272e-02 7.369802e-02 3.693288e-02 2.796119e-02 1.762832e-02 6.195868e-03 5.160379e-03 9.112244e-04 
6.673224e-14 1.366298e-03 1.262073e-03 4.564013e-03 5.107324e-03 8.032318e-03 1.696212e-02 1.146585e-02 1.411501e-02 1.351839e-02 -6.552623e-02 -1.614363e-01 3.453138e-01 8.644232e-01 2.509283e-01 -4.647482e-02 -2.198944e-13 4.647482e-02 -2.509283e-01 -8.644232e-01 -3.453138e-01 1.614363e-01 6.552623e-02 -1.351839e-02 -1.411501e-02 -1.146585e-02 -1.696212e-02 -8.032318e-03 -5.107324e-03 -4.564013e-03 -1.262073e-03 -1.366298e-03 
9.018776e-14 -7.971330e-04 -2.362109e-03 -3.166949e-03 -4.359090e-03 -6.653565e-03 -1.188568e-03 -3.551615e-03 1.232440e-02 1.875460e-02 -8.160150e-03 -4.188524e-02 -2.137335e-01 -1.826161e-01 -4.004632e-02 5.411923e-02 -3.347682e-14 -5.411923e-02 4.004632e-02 1.826161e-01 2.137335e-01 4.188524e-02 8.160150e-03 -1.875460e-02 -1.232440e-02 3.551615e-03 1.188568e-03 6.653565e-03 4.359090e-03 3.166949e-03 2.362109e-03 7.971330e-04 
3.732925e-14 3.026899e-04 3.667524e-04 4.384687e-04 8.019995e-04 -1.198981e-03 -3.927816e-05 -5.884280e-03 -8.792109e-03 -1.224411e-02 -1.691899e-02 3.141689e-05 6.736221e-02 1.191939e-01 4.005570e-02 -1.435361e-02 -1.757467e-13 1.435361e-02 -4.005570e-02 -1.191939e-01 -6.736221e-02 -3.141689e-05 1.691899e-02 1.224411e-02 8.792109e-03 5.884280e-03 3.927816e-05 1.198981e-03 -8.019995e-04 -4.384687e-04 -3.667524e-04 -3.026899e-04 
-5.102632e-14 -1.069744e-04 -1.009658e-04 -1.481791e-04 9.058882e-04 8.420995e-04 4.281327e-03 4.344465e-03 7.101936e-03 6.070013e-03 -6.547502e-03 -1.495567e-02 -4.426622e-02 -4.201701e-02 -2.221538e-02 -3.649909e-03 -5.774498e-14 3.649909e-03 2.221538e-02 4.201701e-02 4.426622e-02 1.495567e-02 6.547502e-03 -6.070013e-03 -7.101936e-03 -4.344465e-03 -4.281327e-03 -8.420995e-04 -9.058882e-04 1.481791e-04 1.009658e-04 1.069744e-04 
-1.416590e-13 -3.065597e-04 -5.397421e-04 -1.259184e-03 -1.435557e-03 -3.080524e-03 -3.219618e-03 -5.327067e-03 -5.593990e-03 -4.596679e-03 -1.731666e-03 7.402071e-03 1.903296e-02 2.792216e-02 1.684586e-02 5.699598e-03 8.645887e-14 -5.699598e-03 -1.684586e-02 -2.792216e-02 -1.903296e-02 -7.402071e-03 1.731666e-03 4.596679e-03 5.593990e-03 5.327067e-03 3.219618e-03 3.080524e-03 1.435557e-03 1.259184e-03 5.397421e-04 3.065597e-04 
-1.351586e-13 3.294033e-04 8.247666e-04 1.128892e-03 2.068732e-03 2.272244e-03 3.523586e-03 3.257012e-03 2.961364e-03 1.393112e-03 -3.575759e-03 -6.587487e-03 -1.333390e-02 -1.296613e-02 -9.882234e-03 -4.329794e-03 -3.170540e-13 4.329794e-03 9.882234e-03 1.296613e-02 1.333390e-02 6.587487e-03 3.575759e-03 -1.393112e-03 -2.961364e-03 -3.257012e-03 -3.523586e-03 -2.272244e-03 -2.068732e-03 -1.128892e-03 -8.247666e-04 -3.294033e-04 
-3.517100e-14 -5.299442e-04 -9.868778e-04 -1.667069e-03 -2.030153e-03 -2.821138e-03 -2.907756e-03 -3.229356e-03 -2.587958e-03 -1.162494e-03 1.023338e-03 4.615791e-03 7.430278e-03 9.415365e-03 7.047326e-03 3.707544e-03 -8.847917e-14 -3.707544e-03 -7.047326e-03 -9.415365e-03 -7.430278e-03 -4.615791e-03 -1.023338e-03 1.162494e-03 2.587958e-03 3.229356e-03 2.907756e-03 2.821138e-03 2.030153e-03 1.667069e-03 9.868778e-04 5.299442e-04 
-2.611589e-14 5.027640e-04 1.053655e-03 1.473025e-03 2.031603e-03 2.202585e-03 2.471223e-03 2.076953e-03 1.336098e-03 1.375623e-04 -2.024046e-03 -3.484065e-03 -5.452481e-03 -5.392127e-03 -4.517241e-03 -2.327239e-03 -2.864486e-13 2.327239e-03 4.517241e-03 5.392127e-03 5.452481e-03 3.484065e-03 2.024046e-03 -1.375623e-04 -1.336098e-03 -2.076953e-03 -2.471223e-03 -2.202585e-03 -2.031603e-03 -1.473025e-03 -1.053655e-03 -5.027640e-04 
