# vtk DataFile Version 2.0
Comment goes here
ASCII

DATASET STRUCTURED_POINTS
FIELD FieldData 1
TIME 1 1 double
0.00250000
DIMENSIONS    32   32   1

ORIGIN    0.000   0.000   0.000
SPACING   0.03125 0.03125   1.000

POINT_DATA   1024
SCALARS Omega double
LOOKUP_TABLE default

-3.334365e-13 -7.564845e-04 -1.427796e-03 -2.318177e-03 -2.652610e-03 -3.713159e-03 -3.181542e-03 -3.849948e-03 -1.986509e-03 -9.925854e-04 1.973172e-03 4.934364e-03 7.314936e-03 9.233657e-03 7.712108e-03 4.739587e-03 -2.993342e-13 -4.739587e-03 -7.712108e-03 -9.233657e-03 -7.314936e-03 -4.934364e-03 -1.973172e-03 9.925854e-04 1.986509e-03 3.849948e-03 3.181542e-03 3.713159e-03 2.652610e-03 2.318177e-03 1.427796e-03 7.564845e-04 
-1.065432e-13 9.587948e-04 1.619752e-03 2.618266e-03 2.978953e-03 3.423181e-03 3.551185e-03 2.705690e-03 2.373001e-03 -1.858133e-05 -1.334162e-03 -4.322185e-03 -5.556347e-03 -6.601313e-03 -5.531843e-03 -3.224712e-03 -7.620208e-13 3.224712e-03 5.531843e-03 6.601313e-03 5.556347e-03 4.322185e-03 1.334162e-03 1.858133e-05 -2.373001e-03 -2.705690e-03 -3.551185e-03 -3.423181e-03 -2.978953e-03 -2.618266e-03 -1.619752e-03 -9.587948e-04 
-3.500368e-13 -8.289818e-04 -2.183788e-03 -2.426354e-03 -3.817040e-03 -3.654295e-03 -3.924835e-03 -3.516012e-03 -1.477762e-03 -7.364124e-04 2.709579e-03 3.154062e-03 5.892661e-03 4.987585e-03 5.031352e-03 2.440315e-03 -6.132297e-13 -2.440315e-03 -5.031352e-03 -4.987585e-03 -5.892661e-03 -3.154062e-03 -2.709579e-03 7.364124e-04 1.477762e-03 3.516012e-03 3.924835e-03 3.654295e-03 3.817040e-03 2.426354e-03 2.183788e-03 8.289818e-04 
-1.754681e-13 1.407745e-03 1.779537e-03 3.631037e-03 2.916213e-03 4.001415e-03 3.149080e-03 2.180445e-03 2.624824e-03 -2.096389e-04 1.312940e-04 -3.784019e-03 -2.997625e-03 -5.281948e-03 -3.299796e-03 -2.491901e-03 -4.246689e-13 2.491901e-03 3.299796e-03 5.281948e-03 2.997625e-03 3.784019e-03 -1.312940e-04 2.096389e-04 -2.624824e-03 -2.180445e-03 -3.149080e-03 -4.001415e-03 -2.916213e-03 -3.631037e-03 -1.779537e-03 -1.407745e-03 
-2.168025e-13 -9.112463e-04 -3.126103e-03 -2.708842e-03 -5.473110e-03 -4.609801e-03 -5.380345e-03 -5.566693e-03 -8.402920e-04 -1.218590e-03 4.640396e-03 3.199675e-03 7.211542e-03 4.711015e-03 5.264781e-03 2.246595e-03 -4.847525e-13 -2.246595e-03 -5.264781e-03 -4.711015e-03 -7.211542e-03 -3.199675e-03 -4.640396e-03 1.218590e-03 8.402920e-04 5.566693e-03 5.380345e-03 4.609801e-03 5.473110e-03 2.708842e-03 3.126103e-03 9.112463e-04 
-3.077816e-13 2.214196e-03 2.499177e-03 5.684988e-03 3.591692e-03 4.973640e-03 3.124838e-03 -7.269043e-04 5.250088e-03 4.338330e-04 3.003932e-03 -3.955555e-03 -2.193302e-03 -6.227087e-03 -3.827468e-03 -2.965949e-03 -2.971642e-13 2.965949e-03 3.827468e-03 6.227087e-03 2.193302e-03 3.955555e-03 -3.003932e-03 -4.338330e-04 -5.250088e-03 7.269043e-04 -3.124838e-03 -4.973640e-03 -3.591692e-03 -5.684988e-03 -2.499177e-03 -2.214196e-03 
-2.269257e-13 -1.239187e-03 -4.665865e-03 -3.455386e-03 -8.713655e-03 -7.223843e-03 -9.400086e-03 -1.499373e-02 2.511038e-03 -7.213577e-04 1.105742e-02 6.265826e-03 1.272950e-02 8.209631e-03 8.034038e-03 4.005994e-03 -3.495458e-13 -4.005994e-03 -8.034038e-03 -8.209631e-03 -1.272950e-02 -6.265826e-03 -1.105742e-02 7.213577e-04 -2.511038e-03 1.499373e-02 9.400086e-03 7.223843e-03 8.713655e-03 3.455386e-03 4.665865e-03 1.239187e-03 
-1.614571e-13 3.669393e-03 5.221745e-03 1.092262e-02 7.336494e-03 8.379025e-03 9.459112e-04 -2.015114e-02 1.690134e-02 9.828049e-03 1.061324e-02 -5.388283e-03 -3.408527e-03 -1.124276e-02 -8.865965e-03 -5.314267e-03 -4.032932e-13 5.314267e-03 8.865965e-03 1.124276e-02 3.408527e-03 5.388283e-03 -1.061324e-02 -9.828049e-03 -1.690134e-02 2.015114e-02 -9.459112e-04 -8.379025e-03 -7.336494e-03 -1.092262e-02 -5.221745e-03 -3.669393e-03 
-1.701466e-13 -2.990696e-03 -7.202805e-03 -6.662409e-03 -1.517976e-02 -1.146669e-02 -2.410783e-02 -6.229295e-02 2.572123e-02 1.814340e-02 3.059860e-02 1.596042e-02 2.823293e-02 1.926987e-02 1.525029e-02 1.016748e-02 -2.416195e-13 -1.016748e-02 -1.525029e-02 -1.926987e-02 -2.823293e-02 -1.596042e-02 -3.059860e-02 -1.814340e-02 -2.572123e-02 6.229295e-02 2.410783e-02 1.146669e-02 1.517976e-02 6.662409e-03 7.202805e-03 2.990696e-03 
-1.740253e-13 4.620277e-03 1.365085e-02 2.296821e-02 2.861082e-02 3.117582e-02 -1.840561e-02 -1.633383e-01 7.860247e-02 8.458802e-02 1.598435e-02 -2.406072e-02 -1.060555e-02 -2.802350e-02 -2.683932e-02 -1.214682e-02 -5.597982e-13 1.214682e-02 2.683932e-02 2.802350e-02 1.060555e-02 2.406072e-02 -1.598435e-02 -8.458802e-02 -7.860247e-02 1.633383e-01 1.840561e-02 -3.117582e-02 -2.861082e-02 -2.296821e-02 -1.365085e-02 -4.620277e-03 
-9.804131e-14 -1.023767e-02 -9.968751e-03 -2.771223e-02 -2.688775e-02 -1.672228e-02 -9.300284e-02 -3.934864e-01 5.767447e-02 -3.532584e-02 4.286962e-02 -8.569041e-03 6.339982e-02 4.716718e-02 2.766710e-02 2.850114e-02 -3.100008e-13 -2.850114e-02 -2.766710e-02 -4.716718e-02 -6.339982e-02 8.569041e-03 -4.286962e-02 3.532584e-02 -5.767447e-02 3.934864e-01 9.300284e-02 1.672228e-02 2.688775e-02 2.771223e-02 9.968751e-03 1.023767e-02 
-5.784809e-14 -3.131403e-03 2.910863e-02 2.677106e-02 1.404801e-01 1.776586e-01 -1.532408e-01 -1.743738e+00 -1.263101e+00 -1.618995e+00 -2.107838e-01 -5.066624e-01 -9.193646e-02 -1.094887e-01 -1.103125e-01 -3.866095e-02 -1.313342e-13 3.866095e-02 1.103125e-01 1.094887e-01 9.193646e-02 5.066624e-01 2.107838e-01 1.618995e+00 1.263101e+00 1.743738e+00 1.532408e-01 -1.776586e-01 -1.404801e-01 -2.677106e-02 -2.910863e-02 3.131403e-03 
3.996393e-14 -2.484025e-02 1.118918e-03 -1.454929e-01 -7.939368e-02 -3.515690e-01 -1.061779e+00 -6.388516e+00 -1.656333e+01 -1.510987e+01 -6.088272e-01 -2.656624e+00 -5.079638e-01 -2.882285e-01 -1.809139e-01 -1.595899e-04 -3.453922e-13 1.595898e-04 1.809139e-01 2.882285e-01 5.079638e-01 2.656624e+00 6.088272e-01 1.510987e+01 1.656333e+01 6.388516e+00 1.061779e+00 3.515690e-01 7.939368e-02 1.454929e-01 -1.118918e-03 2.484025e-02 
-2.123606e-13 -2.504771e-02 2.626414e-02 -1.505432e-01 5.895091e-01 2.209907e+00 4.029176e+00 -3.713751e+01 -1.214163e+02 -6.878800e+01 -1.187416e+01 -1.522337e+01 -4.962298e+00 -3.176615e+00 -1.832390e+00 -7.089868e-01 -3.483772e-13 7.089868e-01 1.832390e+00 3.176615e+00 4.962298e+00 1.522337e+01 1.187416e+01 6.878800e+01 1.214163e+02 3.713751e+01 -4.029176e+00 -2.209907e+00 -5.895091e-01 1.505432e-01 -2.626414e-02 2.504771e-02 
-3.112901e-13 -8.616135e-05 1.045579e-01 -5.354461e-01 -2.233913e+00 -2.304895e+01 -9.954433e+01 -3.911985e+02 -5.430838e+02 -2.238217e+02 -9.036039e+01 -5.663961e+01 -2.967351e+01 -1.587966e+01 -8.689555e+00 -3.455743e+00 4.575819e-14 3.455743e+00 8.689555e+00 1.587966e+01 2.967351e+01 5.663961e+01 9.036039e+01 2.238217e+02 5.430838e+02 3.911985e+02 9.954433e+01 2.304895e+01 2.233913e+00 5.354461e-01 -1.045579e-01 8.616135e-05 
-4.857989e-13 9.624971e-02 3.951437e-01 3.703324e-01 -6.282873e+00 -8.572612e+01 -4.228944e+02 -9.948063e+02 -8.843379e+02 -4.711018e+02 -3.700250e+02 -1.756082e+02 -1.311673e+02 -6.206165e+01 -4.010355e+01 -1.714950e+01 5.960597e-13 1.714950e+01 4.010355e+01 6.206165e+01 1.311673e+02 1.756082e+02 3.700250e+02 4.711018e+02 8.843379e+02 9.948063e+02 4.228944e+02 8.572612e+01 6.282873e+00 -3.703324e-01 -3.951437e-01 -9.624971e-02 
-1.832718e-13 -6.638042e-02 -2.323679e-01 -1.022434e+00 -6.258974e+00 -5.256446e+01 -5.265187e+02 -9.960508e+02 -7.794349e+02 -7.966678e+02 -6.164087e+02 -3.561646e+02 -3.078823e+02 -1.481524e+02 -1.329626e+02 -5.444694e+01 -5.814209e-13 5.444694e+01 1.329626e+02 1.481524e+02 3.078823e+02 3.561646e+02 6.164087e+02 7.966678e+02 7.794349e+02 9.960508e+02 5.265187e+02 5.256446e+01 6.258974e+00 1.022434e+00 2.323679e-01 6.638042e-02 
-4.050563e-13 -7.794613e-02 2.519290e-02 -9.327944e-01 1.488324e-01 2.941046e+00 -3.067486e+02 -3.694771e+02 -4.251484e+02 -9.495798e+02 -9.644244e+02 -7.888036e+02 -4.167826e+02 -2.410609e+02 -2.350360e+02 -8.212404e+01 -4.759908e-12 8.212404e+01 2.350360e+02 2.410609e+02 4.167826e+02 7.888036e+02 9.644244e+02 9.495798e+02 4.251484e+02 3.694771e+02 3.067486e+02 -2.941046e+00 -1.488324e-01 9.327944e-01 -2.519290e-02 7.794613e-02 
-2.600353e-13 -5.944694e-02 1.314333e-01 -4.398937e-01 1.382720e+00 4.742584e+00 -9.073440e+01 1.381751e+00 -1.056689e+02 -4.672135e+02 -8.858092e+02 -1.137795e+03 -9.097416e+02 -8.266732e+02 -5.914202e+02 -2.562587e+02 -1.424681e-11 2.562587e+02 5.914202e+02 8.266732e+02 9.097416e+02 1.137795e+03 8.858092e+02 4.672135e+02 1.056689e+02 -1.381751e+00 9.073440e+01 -4.742584e+00 -1.382720e+00 4.398937e-01 -1.314333e-01 5.944694e-02 
-3.098806e-13 -2.492615e-02 8.844885e-02 -1.071495e-01 3.868201e-01 1.415486e+00 -1.756087e+01 5.930711e+00 -2.172896e+01 -1.861342e+01 -1.276095e+02 -3.918934e+02 -7.925460e+02 -1.123479e+03 -9.498469e+02 -5.281458e+02 -5.242420e-12 5.281458e+02 9.498469e+02 1.123479e+03 7.925460e+02 3.918934e+02 1.276095e+02 1.861342e+01 2.172896e+01 -5.930711e+00 1.756087e+01 -1.415486e+00 -3.868201e-01 1.071495e-01 -8.844885e-02 2.492615e-02 
-2.154774e-13 -9.056463e-03 3.752212e-02 -7.182354e-03 4.638499e-02 3.176452e-01 -1.995097e+00 1.868514e+00 -7.983158e+00 -5.688144e+00 2.972610e+01 1.229603e+02 1.556109e+02 4.507012e+01 -1.068008e+02 -1.542608e+02 2.412395e-12 1.542608e+02 1.068008e+02 -4.507012e+01 -1.556109e+02 -1.229603e+02 -2.972610e+01 5.688144e+00 7.983158e+00 -1.868514e+00 1.995097e+00 -3.176452e-01 -4.638499e-02 7.182354e-03 -3.752212e-02 9.056463e-03 
-1.910453e-13 1.160515e-03 2.715229e-04 1.404465e-02 -7.199563e-02 2.694552e-02 -2.678450e-01 -3.637128e-01 -6.252028e-01 -1.799740e+00 -1.233862e+01 4.494341e+00 1.371840e+02 3.445597e+02 4.236783e+02 2.797033e+02 -5.175177e-13 -2.797033e+02 -4.236783e+02 -3.445597e+02 -1.371840e+02 -4.494341e+00 1.233862e+01 1.799740e+00 6.252028e-01 3.637128e-01 2.678450e-01 -2.694552e-02 7.199563e-02 -1.404465e-02 -2.715229e-04 -1.160515e-03 
-8.018591e-14 5.795360e-03 -3.567094e-04 3.078307e-02 -9.693893e-03 7.985580e-02 1.222685e-01 6.969346e-02 3.451537e-01 6.473391e-01 2.911825e+00 -3.207343e+00 -3.676994e+01 -4.463740e+01 5.788816e+00 4.378240e+01 -5.896910e-13 -4.378240e+01 -5.788816e+00 4.463740e+01 3.676994e+01 3.207343e+00 -2.911825e+00 -6.473391e-01 -3.451537e-01 -6.969346e-02 -1.222685e-01 -7.985580e-02 9.693893e-03 -3.078307e-02 3.567094e-04 -5.795360e-03 
-1.369283e-13 7.921967e-04 -1.433617e-02 -2.260972e-03 -4.370937e-02 -4.536544e-02 -4.414764e-02 -2.063937e-01 -5.490070e-02 -2.747100e-01 -2.899323e-01 8.434903e-01 1.170641e+00 -5.775704e+00 -2.225871e+01 -2.403266e+01 -3.006602e-13 2.403266e+01 2.225871e+01 5.775704e+00 -1.170641e+00 -8.434903e-01 2.899323e-01 2.747100e-01 5.490070e-02 2.063937e-01 4.414764e-02 4.536544e-02 4.370937e-02 2.260972e-03 1.433617e-02 -7.921967e-04 
-1.998014e-13 4.940877e-03 9.130178e-04 1.607747e-02 1.200576e-02 2.259449e-02 7.145911e-02 1.251937e-02 1.278828e-01 6.021394e-02 4.814703e-02 -2.947129e-01 -7.711109e-02 2.536411e+00 4.693655e+00 3.663709e+00 -1.675795e-13 -3.663709e+00 -4.693655e+00 -2.536411e+00 7.711109e-02 2.947129e-01 -4.814703e-02 -6.021394e-02 -1.278828e-01 -1.251937e-02 -7.145911e-02 -2.259449e-02 -1.200576e-02 -1.607747e-02 -9.130178e-04 -4.940877e-03 
-2.490815e-13 -1.043298e-03 -7.786894e-03 -6.506518e-03 -1.315834e-02 -2.362791e-02 -1.665620e-03 -4.442671e-02 2.417441e-02 3.142789e-03 2.409053e-02 5.806504e-02 -3.391270e-01 -7.082335e-01 -7.672038e-01 -3.020215e-01 -3.106138e-13 3.020215e-01 7.672038e-01 7.082335e-01 3.391270e-01 -5.806504e-02 -2.409053e-02 -3.142789e-03 -2.417441e-02 4.442671e-02 1.665620e-03 2.362791e-02 1.315834e-02 6.506518e-03 7.786894e-03 1.043298e-03 
-1.513296e-13 2.015127e-03 2.119432e-03 4.735836e-03 8.695381e-03 1.884458e-03 2.183228e-02 -9.350247e-03 1.580143e-02 -1.957984e-02 -2.875140e-02 -1.406786e-02 6.700437e-02 3.225673e-01 2.719997e-01 9.669200e-02 -2.572906e-13 -9.669200e-02 -2.719997e-01 -3.225673e-01 -6.700437e-02 1.406786e-02 2.875140e-02 1.957984e-02 -1.580143e-02 9.350247e-03 -2.183228e-02 -1.884458e-03 -8.695381e-03 -4.735836e-03 -2.119432e-03 -2.015127e-03 
-1.943705e-13 -7.978625e-04 -1.947285e-03 -3.106246e-03 -5.214635e-04 -6.182945e-03 8.233778e-03 -4.094624e-03 1.900269e-02 9.825418e-03 4.130803e-03 -7.588018e-03 -9.157482e-02 -1.209862e-01 -1.280681e-01 -4.119175e-02 -5.482991e-14 4.119175e-02 1.280681e-01 1.209862e-01 9.157482e-02 7.588018e-03 -4.130803e-03 -9.825418e-03 -1.900269e-02 4.094624e-03 -8.233778e-03 6.182945e-03 5.214635e-04 3.106246e-03 1.947285e-03 7.978625e-04 
-4.975158e-13 2.138713e-04 8.969918e-04 -3.672051e-04 2.456491e-03 -3.781193e-03 3.149144e-03 -9.502418e-03 -2.390517e-03 -1.013958e-02 -6.724208e-03 1.258551e-02 2.936544e-02 7.594210e-02 6.117278e-02 3.536808e-02 1.982910e-13 -3.536808e-02 -6.117278e-02 -7.594210e-02 -2.936544e-02 -1.258551e-02 6.724208e-03 1.013958e-02 2.390517e-03 9.502418e-03 -3.149144e-03 3.781193e-03 -2.456491e-03 3.672051e-04 -8.969918e-04 -2.138713e-04 
-1.995084e-13 -2.597641e-05 6.753802e-04 -5.939936e-06 2.947209e-03 5.943498e-04 7.113277e-03 2.611541e-03 8.740170e-03 3.342560e-03 -2.567668e-03 -8.891551e-03 -3.088446e-02 -3.214282e-02 -3.750185e-02 -1.570024e-02 -3.393857e-13 1.570024e-02 3.750185e-02 3.214282e-02 3.088446e-02 8.891551e-03 2.567668e-03 -3.342560e-03 -8.740170e-03 -2.611541e-03 -7.113277e-03 -5.943498e-04 -2.947209e-03 5.939936e-06 -6.753802e-04 2.597641e-05 
-2.308791e-13 -5.279761e-04 -4.801229e-04 -1.988383e-03 -1.010729e-03 -4.225514e-03 -1.920133e-03 -5.959168e-03 -2.891245e-03 -3.156630e-03 4.310078e-04 8.792533e-03 1.305893e-02 2.355702e-02 1.842275e-02 1.230649e-02 -8.593198e-14 -1.230649e-02 -1.842275e-02 -2.355702e-02 -1.305893e-02 -8.792533e-03 -4.310078e-04 3.156630e-03 2.891245e-03 5.959168e-03 1.920133e-03 4.225514e-03 1.010729e-03 1.988383e-03 4.801229e-04 5.279761e-04 
-2.517291e-13 5.547979e-04 1.462979e-03 1.665580e-03 3.266286e-03 2.689644e-03 4.861001e-03 3.007549e-03 3.918273e-03 7.372520e-04 -2.502883e-03 -5.950440e-03 -1.217173e-02 -1.207478e-02 -1.301882e-02 -6.183878e-03 -2.412357e-13 6.183878e-03 1.301882e-02 1.207478e-02 1.217173e-02 5.950440e-03 2.502883e-03 -7.372520e-04 -3.918273e-03 -3.007549e-03 -4.861001e-03 -2.689644e-03 -3.266286e-03 -1.665580e-03 -1.462979e-03 -5.547979e-04 
