# vtk DataFile Version 2.0
Comment goes here
ASCII

DATASET STRUCTURED_POINTS
FIELD FieldData 1
TIME 1 1 double
0.00250000
DIMENSIONS    32   32   1

ORIGIN    0.000   0.000   0.000
SPACING   0.03125 0.03125   1.000

POINT_DATA   1024
SCALARS P double
LOOKUP_TABLE default

2.995587e+01 2.682084e+01 3.015356e+01 2.711734e+01 3.052229e+01 2.738951e+01 3.050560e+01 2.717231e+01 2.955801e+01 2.617366e+01 2.758662e+01 2.455299e+01 2.514198e+01 2.291090e+01 2.315282e+01 2.193310e+01 2.240718e+01 2.193310e+01 2.315282e+01 2.291090e+01 2.514198e+01 2.455299e+01 2.758662e+01 2.617366e+01 2.955801e+01 2.717231e+01 3.050560e+01 2.738951e+01 3.052229e+01 2.711734e+01 3.015356e+01 2.682084e+01 
6.659340e+01 6.461140e+01 6.828862e+01 6.776756e+01 7.296363e+01 7.336958e+01 7.949043e+01 8.018347e+01 8.637872e+01 8.686239e+01 9.234640e+01 9.241854e+01 9.673362e+01 9.635236e+01 9.937776e+01 9.840879e+01 1.002635e+02 9.840879e+01 9.937776e+01 9.635236e+01 9.673362e+01 9.241854e+01 9.234640e+01 8.686239e+01 8.637872e+01 8.018347e+01 7.949043e+01 7.336958e+01 7.296363e+01 6.776756e+01 6.828862e+01 6.461140e+01 
1.137777e+02 1.127807e+02 1.173105e+02 1.195132e+02 1.272915e+02 1.318355e+02 1.419355e+02 1.476076e+02 1.586067e+02 1.641357e+02 1.744956e+02 1.788492e+02 1.873228e+02 1.897310e+02 1.955551e+02 1.954829e+02 1.983822e+02 1.954829e+02 1.955551e+02 1.897310e+02 1.873228e+02 1.788492e+02 1.744956e+02 1.641357e+02 1.586067e+02 1.476076e+02 1.419355e+02 1.318355e+02 1.272915e+02 1.195132e+02 1.173105e+02 1.127807e+02 
1.482202e+02 1.485101e+02 1.533636e+02 1.582937e+02 1.680120e+02 1.763757e+02 1.898370e+02 1.998813e+02 2.152187e+02 2.250208e+02 2.400403e+02 2.479498e+02 2.606625e+02 2.653352e+02 2.742462e+02 2.746985e+02 2.789821e+02 2.746985e+02 2.742462e+02 2.653352e+02 2.606625e+02 2.479498e+02 2.400403e+02 2.250208e+02 2.152187e+02 1.998813e+02 1.898370e+02 1.763757e+02 1.680120e+02 1.582937e+02 1.533636e+02 1.485101e+02 
1.901333e+02 1.915423e+02 1.972267e+02 2.050930e+02 2.175705e+02 2.303793e+02 2.482834e+02 2.637457e+02 2.846462e+02 3.001106e+02 3.209562e+02 3.339805e+02 3.517610e+02 3.600621e+02 3.723284e+02 3.742025e+02 3.795376e+02 3.742025e+02 3.723284e+02 3.600621e+02 3.517610e+02 3.339805e+02 3.209562e+02 3.001106e+02 2.846462e+02 2.637457e+02 2.482834e+02 2.303793e+02 2.175705e+02 2.050930e+02 1.972267e+02 1.915423e+02 
2.186773e+02 2.216789e+02 2.276468e+02 2.387878e+02 2.535208e+02 2.709351e+02 2.929640e+02 3.137564e+02 3.401555e+02 3.609089e+02 3.877425e+02 4.053565e+02 4.286219e+02 4.400536e+02 4.562598e+02 4.590958e+02 4.660282e+02 4.590958e+02 4.562598e+02 4.400536e+02 4.286219e+02 4.053565e+02 3.877425e+02 3.609089e+02 3.401555e+02 3.137564e+02 2.929640e+02 2.709351e+02 2.535208e+02 2.387878e+02 2.276468e+02 2.216789e+02 
2.506217e+02 2.550133e+02 2.617866e+02 2.763610e+02 2.942215e+02 3.168626e+02 3.442912e+02 3.715944e+02 4.051332e+02 4.329426e+02 4.675739e+02 4.920915e+02 5.222930e+02 5.389246e+02 5.596322e+02 5.646813e+02 5.728429e+02 5.646813e+02 5.596322e+02 5.389246e+02 5.222930e+02 4.920915e+02 4.675739e+02 4.329426e+02 4.051332e+02 3.715944e+02 3.442912e+02 3.168626e+02 2.942215e+02 2.763610e+02 2.617866e+02 2.550133e+02 
2.683927e+02 2.748779e+02 2.817481e+02 3.004426e+02 3.208679e+02 3.493832e+02 3.820497e+02 4.162553e+02 4.572469e+02 4.919930e+02 5.349320e+02 5.658609e+02 6.038512e+02 6.252176e+02 6.515239e+02 6.583689e+02 6.685635e+02 6.583689e+02 6.515239e+02 6.252176e+02 6.038512e+02 5.658609e+02 5.349320e+02 4.919930e+02 4.572469e+02 4.162553e+02 3.820497e+02 3.493832e+02 3.208679e+02 3.004426e+02 2.817481e+02 2.748779e+02 
2.844037e+02 2.926974e+02 3.001310e+02 3.229029e+02 3.466647e+02 3.814633e+02 4.207337e+02 4.629873e+02 5.136429e+02 5.575170e+02 6.117793e+02 6.530362e+02 7.014504e+02 7.309390e+02 7.637508e+02 7.740718e+02 7.858556e+02 7.740718e+02 7.637508e+02 7.309390e+02 7.014504e+02 6.530362e+02 6.117793e+02 5.575170e+02 5.136429e+02 4.629873e+02 4.207337e+02 3.814633e+02 3.466647e+02 3.229029e+02 3.001310e+02 2.926974e+02 
2.850018e+02 2.960314e+02 3.029317e+02 3.307265e+02 3.567530e+02 3.989606e+02 4.444669e+02 4.955875e+02 5.567377e+02 6.098051e+02 6.761952e+02 7.269987e+02 7.873038e+02 8.245346e+02 8.660432e+02 8.799170e+02 8.944659e+02 8.799170e+02 8.660432e+02 8.245346e+02 7.873038e+02 7.269987e+02 6.761952e+02 6.098051e+02 5.567377e+02 4.955875e+02 4.444669e+02 3.989606e+02 3.567530e+02 3.307265e+02 3.029317e+02 2.960314e+02 
2.778066e+02 2.911075e+02 2.976473e+02 3.298226e+02 3.581294e+02 4.072167e+02 4.594950e+02 5.195918e+02 5.939809e+02 6.583776e+02 7.426188e+02 8.110623e+02 8.885778e+02 9.395896e+02 9.907249e+02 1.009813e+03 1.026533e+03 1.009813e+03 9.907249e+02 9.395896e+02 8.885778e+02 8.110623e+02 7.426188e+02 6.583776e+02 5.939809e+02 5.195918e+02 4.594950e+02 4.072167e+02 3.581294e+02 3.298226e+02 2.976473e+02 2.911075e+02 
2.539969e+02 2.704605e+02 2.747531e+02 3.119742e+02 3.396333e+02 3.968294e+02 4.534525e+02 5.226692e+02 6.124659e+02 6.894172e+02 7.927859e+02 8.769627e+02 9.741058e+02 1.038862e+03 1.104789e+03 1.131407e+03 1.152149e+03 1.131407e+03 1.104789e+03 1.038862e+03 9.741058e+02 8.769627e+02 7.927859e+02 6.894172e+02 6.124659e+02 5.226692e+02 4.534525e+02 3.968294e+02 3.396333e+02 3.119742e+02 2.747531e+02 2.704605e+02 
2.168907e+02 2.356285e+02 2.371546e+02 2.772891e+02 3.016779e+02 3.632380e+02 4.183115e+02 4.902662e+02 5.986067e+02 6.881589e+02 8.252495e+02 9.472079e+02 1.076461e+03 1.166465e+03 1.245398e+03 1.277873e+03 1.301605e+03 1.277873e+03 1.245398e+03 1.166465e+03 1.076461e+03 9.472079e+02 8.252495e+02 6.881589e+02 5.986067e+02 4.902662e+02 4.183115e+02 3.632380e+02 3.016779e+02 2.772891e+02 2.371546e+02 2.356285e+02 
1.647458e+02 1.856734e+02 1.813713e+02 2.228965e+02 2.355624e+02 3.008263e+02 3.380298e+02 4.007208e+02 5.364381e+02 6.529802e+02 8.306352e+02 9.834783e+02 1.148098e+03 1.264210e+03 1.370544e+03 1.419837e+03 1.450060e+03 1.419837e+03 1.370544e+03 1.264210e+03 1.148098e+03 9.834783e+02 8.306352e+02 6.529802e+02 5.364381e+02 4.007208e+02 3.380298e+02 3.008263e+02 2.355624e+02 2.228965e+02 1.813713e+02 1.856734e+02 
9.805924e+01 1.194155e+02 1.082309e+02 1.461169e+02 1.397434e+02 1.949227e+02 1.616679e+02 1.761683e+02 3.536795e+02 4.939886e+02 7.691169e+02 1.024603e+03 1.256698e+03 1.418190e+03 1.532259e+03 1.576822e+03 1.610692e+03 1.576822e+03 1.532259e+03 1.418190e+03 1.256698e+03 1.024603e+03 7.691169e+02 4.939886e+02 3.536795e+02 1.761683e+02 1.616679e+02 1.949227e+02 1.397434e+02 1.461169e+02 1.082309e+02 1.194155e+02 
2.714136e+01 4.614243e+01 2.560894e+01 5.144939e+01 7.388775e+00 3.834407e+01 -1.591771e+02 -1.818637e+02 6.551857e+01 3.587069e+02 7.088253e+02 1.007097e+03 1.298903e+03 1.503111e+03 1.668315e+03 1.750009e+03 1.795776e+03 1.750009e+03 1.668315e+03 1.503111e+03 1.298903e+03 1.007097e+03 7.088253e+02 3.587069e+02 6.551857e+01 -1.818637e+02 -1.591771e+02 3.834407e+01 7.388775e+00 5.144939e+01 2.560894e+01 4.614243e+01 
-5.184423e+01 -3.752945e+01 -6.775953e+01 -6.416074e+01 -1.437145e+02 -1.769066e+02 -4.722825e+02 -6.847528e+02 -5.774357e+02 -1.658818e+02 4.476996e+02 1.119584e+03 1.522624e+03 1.771068e+03 1.872656e+03 1.878259e+03 1.924144e+03 1.878259e+03 1.872656e+03 1.771068e+03 1.522624e+03 1.119584e+03 4.476996e+02 -1.658818e+02 -5.774357e+02 -6.847528e+02 -4.722825e+02 -1.769066e+02 -1.437145e+02 -6.416074e+01 -6.775953e+01 -3.752945e+01 
-1.124897e+02 -1.069406e+02 -1.366003e+02 -1.595279e+02 -2.380362e+02 -3.422167e+02 -5.829525e+02 -1.026700e+03 -1.186776e+03 -1.230396e+03 -9.223765e+02 -7.931985e+00 8.267736e+02 1.636074e+03 1.973731e+03 2.127225e+03 2.199538e+03 2.127225e+03 1.973731e+03 1.636074e+03 8.267736e+02 -7.931985e+00 -9.223765e+02 -1.230396e+03 -1.186776e+03 -1.026700e+03 -5.829525e+02 -3.422167e+02 -2.380362e+02 -1.595279e+02 -1.366003e+02 -1.069406e+02 
-1.724246e+02 -1.730997e+02 -2.029642e+02 -2.420005e+02 -3.189514e+02 -4.450844e+02 -6.287732e+02 -1.022479e+03 -1.323467e+03 -1.804636e+03 -2.141412e+03 -2.120006e+03 -1.820626e+03 -1.258046e+03 -7.080441e+02 -6.934122e+01 5.674883e+00 -6.934122e+01 -7.080441e+02 -1.258046e+03 -1.820626e+03 -2.120006e+03 -2.141412e+03 -1.804636e+03 -1.323467e+03 -1.022479e+03 -6.287732e+02 -4.450844e+02 -3.189514e+02 -2.420005e+02 -2.029642e+02 -1.730997e+02 
-2.085592e+02 -2.141583e+02 -2.399618e+02 -2.844729e+02 -3.515447e+02 -4.673684e+02 -6.047631e+02 -8.693763e+02 -1.078760e+03 -1.406801e+03 -1.781965e+03 -2.241077e+03 -2.430286e+03 -2.469558e+03 -2.282454e+03 -1.791385e+03 -1.851188e+03 -1.791385e+03 -2.282454e+03 -2.469558e+03 -2.430286e+03 -2.241077e+03 -1.781965e+03 -1.406801e+03 -1.078760e+03 -8.693763e+02 -6.047631e+02 -4.673684e+02 -3.515447e+02 -2.844729e+02 -2.399618e+02 -2.141583e+02 
-2.411481e+02 -2.505322e+02 -2.726201e+02 -3.206611e+02 -3.788098e+02 -4.883425e+02 -5.950096e+02 -8.034742e+02 -9.516947e+02 -1.165778e+03 -1.328056e+03 -1.455654e+03 -1.574185e+03 -1.713906e+03 -1.648410e+03 -1.330362e+03 -1.343700e+03 -1.330362e+03 -1.648410e+03 -1.713906e+03 -1.574185e+03 -1.455654e+03 -1.328056e+03 -1.165778e+03 -9.516947e+02 -8.034742e+02 -5.950096e+02 -4.883425e+02 -3.788098e+02 -3.206611e+02 -2.726201e+02 -2.505322e+02 
-2.547774e+02 -2.654640e+02 -2.836021e+02 -3.283020e+02 -3.772694e+02 -4.693350e+02 -5.546847e+02 -7.091804e+02 -8.283964e+02 -1.001354e+03 -1.140269e+03 -1.294530e+03 -1.374775e+03 -1.368898e+03 -1.310320e+03 -1.160029e+03 -1.197370e+03 -1.160029e+03 -1.310320e+03 -1.368898e+03 -1.374775e+03 -1.294530e+03 -1.140269e+03 -1.001354e+03 -8.283964e+02 -7.091804e+02 -5.546847e+02 -4.693350e+02 -3.772694e+02 -3.283020e+02 -2.836021e+02 -2.654640e+02 
-2.618061e+02 -2.739326e+02 -2.875659e+02 -3.294571e+02 -3.684915e+02 -4.472455e+02 -5.118534e+02 -6.289664e+02 -7.125486e+02 -8.294858e+02 -9.156159e+02 -9.955008e+02 -1.057256e+03 -1.099498e+03 -1.121105e+03 -1.039185e+03 -1.060414e+03 -1.039185e+03 -1.121105e+03 -1.099498e+03 -1.057256e+03 -9.955008e+02 -9.156159e+02 -8.294858e+02 -7.125486e+02 -6.289664e+02 -5.118534e+02 -4.472455e+02 -3.684915e+02 -3.294571e+02 -2.875659e+02 -2.739326e+02 
-2.581347e+02 -2.697367e+02 -2.806095e+02 -3.173091e+02 -3.498645e+02 -4.152240e+02 -4.686129e+02 -5.610649e+02 -6.304413e+02 -7.276287e+02 -7.997517e+02 -8.749174e+02 -9.210021e+02 -9.314183e+02 -9.412444e+02 -8.984223e+02 -9.248060e+02 -8.984223e+02 -9.412444e+02 -9.314183e+02 -9.210021e+02 -8.749174e+02 -7.997517e+02 -7.276287e+02 -6.304413e+02 -5.610649e+02 -4.686129e+02 -4.152240e+02 -3.498645e+02 -3.173091e+02 -2.806095e+02 -2.697367e+02 
-2.443803e+02 -2.559667e+02 -2.630881e+02 -2.950529e+02 -3.194967e+02 -3.726233e+02 -4.122520e+02 -4.817655e+02 -5.315358e+02 -5.996590e+02 -6.502534e+02 -6.991046e+02 -7.393224e+02 -7.612119e+02 -7.855839e+02 -7.659447e+02 -7.852801e+02 -7.659447e+02 -7.855839e+02 -7.612119e+02 -7.393224e+02 -6.991046e+02 -6.502534e+02 -5.996590e+02 -5.315358e+02 -4.817655e+02 -4.122520e+02 -3.726233e+02 -3.194967e+02 -2.950529e+02 -2.630881e+02 -2.559667e+02 
-2.278284e+02 -2.382201e+02 -2.436618e+02 -2.708865e+02 -2.909743e+02 -3.349170e+02 -3.676948e+02 -4.241658e+02 -4.654731e+02 -5.224342e+02 -5.642943e+02 -6.068494e+02 -6.380437e+02 -6.515188e+02 -6.692500e+02 -6.579386e+02 -6.737101e+02 -6.579386e+02 -6.692500e+02 -6.515188e+02 -6.380437e+02 -6.068494e+02 -5.642943e+02 -5.224342e+02 -4.654731e+02 -4.241658e+02 -3.676948e+02 -3.349170e+02 -2.909743e+02 -2.708865e+02 -2.436618e+02 -2.382201e+02 
-1.985476e+02 -2.082349e+02 -2.109845e+02 -2.335782e+02 -2.476715e+02 -2.822055e+02 -3.057585e+02 -3.479757e+02 -3.776787e+02 -4.187156e+02 -4.494750e+02 -4.802435e+02 -5.065155e+02 -5.215382e+02 -5.400321e+02 -5.364678e+02 -5.482898e+02 -5.364678e+02 -5.400321e+02 -5.215382e+02 -5.065155e+02 -4.802435e+02 -4.494750e+02 -4.187156e+02 -3.776787e+02 -3.479757e+02 -3.057585e+02 -2.822055e+02 -2.476715e+02 -2.335782e+02 -2.109845e+02 -2.082349e+02 
-1.726447e+02 -1.810196e+02 -1.827897e+02 -2.015464e+02 -2.126242e+02 -2.408174e+02 -2.596744e+02 -2.939818e+02 -3.178955e+02 -3.518191e+02 -3.764311e+02 -4.022766e+02 -4.225150e+02 -4.341993e+02 -4.479410e+02 -4.463555e+02 -4.550671e+02 -4.463555e+02 -4.479410e+02 -4.341993e+02 -4.225150e+02 -4.022766e+02 -3.764311e+02 -3.518191e+02 -3.178955e+02 -2.939818e+02 -2.596744e+02 -2.408174e+02 -2.126242e+02 -2.015464e+02 -1.827897e+02 -1.810196e+02 
-1.327537e+02 -1.401935e+02 -1.401274e+02 -1.549597e+02 -1.616873e+02 -1.829326e+02 -1.953587e+02 -2.203709e+02 -2.366801e+02 -2.610229e+02 -2.785493e+02 -2.975724e+02 -3.132991e+02 -3.237592e+02 -3.353076e+02 -3.360605e+02 -3.422805e+02 -3.360605e+02 -3.353076e+02 -3.237592e+02 -3.132991e+02 -2.975724e+02 -2.785493e+02 -2.610229e+02 -2.366801e+02 -2.203709e+02 -1.953587e+02 -1.829326e+02 -1.616873e+02 -1.549597e+02 -1.401274e+02 -1.401935e+02 
-1.005154e+02 -1.067185e+02 -1.060563e+02 -1.178051e+02 -1.222865e+02 -1.388803e+02 -1.477336e+02 -1.672906e+02 -1.791617e+02 -1.984529e+02 -2.112268e+02 -2.264926e+02 -2.376986e+02 -2.460675e+02 -2.540378e+02 -2.552726e+02 -2.593172e+02 -2.552726e+02 -2.540378e+02 -2.460675e+02 -2.376986e+02 -2.264926e+02 -2.112268e+02 -1.984529e+02 -1.791617e+02 -1.672906e+02 -1.477336e+02 -1.388803e+02 -1.222865e+02 -1.178051e+02 -1.060563e+02 -1.067185e+02 
-5.436972e+01 -5.960890e+01 -5.766678e+01 -6.616665e+01 -6.736252e+01 -7.866932e+01 -8.269134e+01 -9.565477e+01 -1.019042e+02 -1.146392e+02 -1.220551e+02 -1.324429e+02 -1.395663e+02 -1.459229e+02 -1.512606e+02 -1.528842e+02 -1.552580e+02 -1.528842e+02 -1.512606e+02 -1.459229e+02 -1.395663e+02 -1.324429e+02 -1.220551e+02 -1.146392e+02 -1.019042e+02 -9.565477e+01 -8.269134e+01 -7.866932e+01 -6.736252e+01 -6.616665e+01 -5.766678e+01 -5.960890e+01 
-1.855962e+01 -2.264559e+01 -2.028956e+01 -2.615472e+01 -2.547767e+01 -3.299897e+01 -3.396078e+01 -4.259601e+01 -4.500858e+01 -5.365741e+01 -5.696870e+01 -6.418978e+01 -6.749634e+01 -7.207773e+01 -7.447166e+01 -7.610283e+01 -7.685883e+01 -7.610283e+01 -7.447166e+01 -7.207773e+01 -6.749634e+01 -6.418978e+01 -5.696870e+01 -5.365741e+01 -4.500858e+01 -4.259601e+01 -3.396078e+01 -3.299897e+01 -2.547767e+01 -2.615472e+01 -2.028956e+01 -2.264559e+01 
