# vtk DataFile Version 2.0
Comment goes here
ASCII

DATASET STRUCTURED_POINTS
FIELD FieldData 1
TIME 1 1 double
0.00100000
DIMENSIONS    32   32   1

ORIGIN    0.000   0.000   0.000
SPACING   0.03125 0.03125   1.000

POINT_DATA   1024
VECTORS u double

-0.000000 -2.614251 0.000000 0.021218 -2.644655 0.000000 0.040945 -2.729434 0.000000 0.063084 -2.872130 0.000000 0.080389 -3.064766 0.000000 0.102022 -3.305804 0.000000 0.114697 -3.586325 0.000000 0.132407 -3.897519 0.000000 0.136815 -4.229930 0.000000 0.145154 -4.567228 0.000000 0.137602 -4.900178 0.000000 0.131687 -5.208584 0.000000 0.111481 -5.484357 0.000000 0.091462 -5.710095 0.000000 0.062624 -5.879225 0.000000 0.032855 -5.982646 0.000000 -0.000000 -6.017669 0.000000 -0.032855 -5.982646 0.000000 -0.062624 -5.879225 0.000000 -0.091462 -5.710095 0.000000 -0.111481 -5.484357 0.000000 -0.131687 -5.208584 0.000000 -0.137602 -4.900178 0.000000 -0.145154 -4.567228 0.000000 -0.136815 -4.229930 0.000000 -0.132407 -3.897519 0.000000 -0.114697 -3.586325 0.000000 -0.102022 -3.305804 0.000000 -0.080389 -3.064766 0.000000 -0.063084 -2.872130 0.000000 -0.040945 -2.729434 0.000000 -0.021218 -2.644655 0.000000 
-0.000000 -2.630557 0.000000 -0.030609 -2.661077 0.000000 -0.061270 -2.746894 0.000000 -0.086843 -2.890678 0.000000 -0.112598 -3.084886 0.000000 -0.128006 -3.327030 0.000000 -0.143947 -3.608013 0.000000 -0.145166 -3.918533 0.000000 -0.147852 -4.247818 0.000000 -0.134954 -4.580590 0.000000 -0.124998 -4.905351 0.000000 -0.103859 -5.205001 0.000000 -0.086385 -5.470336 0.000000 -0.063542 -5.686532 0.000000 -0.043453 -5.848993 0.000000 -0.021320 -5.947626 0.000000 -0.000000 -5.982029 0.000000 0.021320 -5.947626 0.000000 0.043453 -5.848993 0.000000 0.063542 -5.686532 0.000000 0.086385 -5.470336 0.000000 0.103859 -5.205001 0.000000 0.124998 -4.905351 0.000000 0.134954 -4.580590 0.000000 0.147852 -4.247818 0.000000 0.145166 -3.918533 0.000000 0.143947 -3.608013 0.000000 0.128006 -3.327030 0.000000 0.112598 -3.084886 0.000000 0.086843 -2.890678 0.000000 0.061270 -2.746894 0.000000 0.030609 -2.661077 0.000000 
-0.000000 -2.553032 0.000000 -0.095131 -2.583386 0.000000 -0.188679 -2.673201 0.000000 -0.274941 -2.820801 0.000000 -0.356003 -3.023602 0.000000 -0.421147 -3.274455 0.000000 -0.476846 -3.569165 0.000000 -0.507428 -3.893614 0.000000 -0.525253 -4.240142 0.000000 -0.512375 -4.590082 0.000000 -0.486777 -4.931273 0.000000 -0.433249 -5.247197 0.000000 -0.369986 -5.524674 0.000000 -0.287133 -5.753027 0.000000 -0.198421 -5.921447 0.000000 -0.100155 -6.026099 0.000000 -0.000000 -6.060308 0.000000 0.100155 -6.026099 0.000000 0.198421 -5.921447 0.000000 0.287133 -5.753027 0.000000 0.369986 -5.524674 0.000000 0.433249 -5.247197 0.000000 0.486777 -4.931273 0.000000 0.512375 -4.590082 0.000000 0.525253 -4.240142 0.000000 0.507428 -3.893614 0.000000 0.476846 -3.569165 0.000000 0.421147 -3.274455 0.000000 0.356003 -3.023602 0.000000 0.274941 -2.820801 0.000000 0.188679 -2.673201 0.000000 0.095131 -2.583386 0.000000 
-0.000000 -2.440294 0.000000 -0.150763 -2.472398 0.000000 -0.298657 -2.567084 0.000000 -0.437203 -2.723353 0.000000 -0.566204 -2.938680 0.000000 -0.673516 -3.206187 0.000000 -0.763059 -3.521731 0.000000 -0.816105 -3.870127 0.000000 -0.844304 -4.242871 0.000000 -0.826098 -4.619066 0.000000 -0.782148 -4.984478 0.000000 -0.697321 -5.321792 0.000000 -0.592284 -5.616452 0.000000 -0.460386 -5.858097 0.000000 -0.316578 -6.035971 0.000000 -0.160211 -6.146048 0.000000 -0.000000 -6.182338 0.000000 0.160211 -6.146048 0.000000 0.316578 -6.035971 0.000000 0.460386 -5.858097 0.000000 0.592284 -5.616452 0.000000 0.697321 -5.321792 0.000000 0.782148 -4.984478 0.000000 0.826098 -4.619066 0.000000 0.844304 -4.242871 0.000000 0.816105 -3.870127 0.000000 0.763059 -3.521731 0.000000 0.673516 -3.206187 0.000000 0.566204 -2.938680 0.000000 0.437203 -2.723353 0.000000 0.298657 -2.567084 0.000000 0.150763 -2.472398 0.000000 
-0.000000 -2.251506 0.000000 -0.221935 -2.284728 0.000000 -0.439662 -2.386762 0.000000 -0.646571 -2.553254 0.000000 -0.838884 -2.787289 0.000000 -1.004239 -3.077601 0.000000 -1.140830 -3.426576 0.000000 -1.228597 -3.812369 0.000000 -1.274203 -4.230148 0.000000 -1.253979 -4.652237 0.000000 -1.189467 -5.060050 0.000000 -1.065179 -5.437061 0.000000 -0.906227 -5.761609 0.000000 -0.706592 -6.028733 0.000000 -0.486321 -6.221622 0.000000 -0.246495 -6.342677 0.000000 -0.000000 -6.380731 0.000000 0.246495 -6.342677 0.000000 0.486321 -6.221622 0.000000 0.706592 -6.028733 0.000000 0.906227 -5.761609 0.000000 1.065179 -5.437061 0.000000 1.189467 -5.060050 0.000000 1.253979 -4.652237 0.000000 1.274203 -4.230148 0.000000 1.228597 -3.812369 0.000000 1.140830 -3.426576 0.000000 1.004239 -3.077601 0.000000 0.838884 -2.787289 0.000000 0.646571 -2.553254 0.000000 0.439662 -2.386762 0.000000 0.221935 -2.284728 0.000000 
-0.000000 -1.996425 0.000000 -0.286002 -2.032736 0.000000 -0.567151 -2.142447 0.000000 -0.837680 -2.324131 0.000000 -1.090496 -2.581013 0.000000 -1.312731 -2.904241 0.000000 -1.497770 -3.297373 0.000000 -1.619624 -3.736753 0.000000 -1.684152 -4.217489 0.000000 -1.656029 -4.703802 0.000000 -1.567017 -5.173278 0.000000 -1.398968 -5.605031 0.000000 -1.184042 -5.975039 0.000000 -0.920489 -6.278003 0.000000 -0.630588 -6.496068 0.000000 -0.319358 -6.632369 0.000000 -0.000000 -6.675329 0.000000 0.319358 -6.632369 0.000000 0.630588 -6.496068 0.000000 0.920489 -6.278003 0.000000 1.184042 -5.975039 0.000000 1.398968 -5.605031 0.000000 1.567017 -5.173278 0.000000 1.656029 -4.703802 0.000000 1.684152 -4.217489 0.000000 1.619624 -3.736753 0.000000 1.497770 -3.297373 0.000000 1.312731 -2.904241 0.000000 1.090496 -2.581013 0.000000 0.837680 -2.324131 0.000000 0.567151 -2.142447 0.000000 0.286002 -2.032736 0.000000 
-0.000000 -1.679502 0.000000 -0.367974 -1.717577 0.000000 -0.731094 -1.835084 0.000000 -1.085181 -2.029909 0.000000 -1.419061 -2.312238 0.000000 -1.720648 -2.670327 0.000000 -1.973408 -3.119684 0.000000 -2.148735 -3.625987 0.000000 -2.241266 -4.193744 0.000000 -2.209787 -4.769371 0.000000 -2.090640 -5.317111 0.000000 -1.866889 -5.820036 0.000000 -1.579097 -6.240089 0.000000 -1.227529 -6.582188 0.000000 -0.840605 -6.822752 0.000000 -0.425712 -6.973265 0.000000 -0.000000 -7.019447 0.000000 0.425712 -6.973265 0.000000 0.840605 -6.822752 0.000000 1.227529 -6.582188 0.000000 1.579097 -6.240089 0.000000 1.866889 -5.820036 0.000000 2.090640 -5.317111 0.000000 2.209787 -4.769371 0.000000 2.241266 -4.193744 0.000000 2.148735 -3.625987 0.000000 1.973408 -3.119684 0.000000 1.720648 -2.670327 0.000000 1.419061 -2.312238 0.000000 1.085181 -2.029909 0.000000 0.731094 -1.835084 0.000000 0.367974 -1.717577 0.000000 
-0.000000 -1.260476 0.000000 -0.441564 -1.301642 0.000000 -0.879445 -1.425241 0.000000 -1.314770 -1.636165 0.000000 -1.730839 -1.945546 0.000000 -2.120058 -2.349894 0.000000 -2.453339 -2.869286 0.000000 -2.693563 -3.468895 0.000000 -2.827490 -4.156436 0.000000 -2.779492 -4.854428 0.000000 -2.617767 -5.516176 0.000000 -2.322127 -6.116574 0.000000 -1.946352 -6.614398 0.000000 -1.503316 -7.016496 0.000000 -1.021789 -7.297885 0.000000 -0.516120 -7.472974 0.000000 -0.000000 -7.526754 0.000000 0.516120 -7.472974 0.000000 1.021789 -7.297885 0.000000 1.503316 -7.016496 0.000000 1.946352 -6.614398 0.000000 2.322127 -6.116574 0.000000 2.617767 -5.516176 0.000000 2.779492 -4.854428 0.000000 2.827490 -4.156436 0.000000 2.693563 -3.468895 0.000000 2.453339 -2.869286 0.000000 2.120058 -2.349894 0.000000 1.730839 -1.945546 0.000000 1.314770 -1.636165 0.000000 0.879445 -1.425241 0.000000 0.441564 -1.301642 0.000000 
-0.000000 -0.796373 0.000000 -0.532764 -0.838132 0.000000 -1.065669 -0.961878 0.000000 -1.605560 -1.178515 0.000000 -2.132911 -1.506950 0.000000 -2.644461 -1.947827 0.000000 -3.092541 -2.546179 0.000000 -3.435828 -3.251837 0.000000 -3.626801 -4.107814 0.000000 -3.569675 -4.979094 0.000000 -3.352658 -5.774476 0.000000 -2.965034 -6.491451 0.000000 -2.478796 -7.058900 0.000000 -1.910800 -7.506751 0.000000 -1.296899 -7.809949 0.000000 -0.654478 -7.995054 0.000000 -0.000000 -8.051687 0.000000 0.654478 -7.995054 0.000000 1.296899 -7.809949 0.000000 1.910800 -7.506751 0.000000 2.478796 -7.058900 0.000000 2.965034 -6.491451 0.000000 3.352658 -5.774476 0.000000 3.569675 -4.979094 0.000000 3.626801 -4.107814 0.000000 3.435828 -3.251837 0.000000 3.092541 -2.546179 0.000000 2.644461 -1.947827 0.000000 2.132911 -1.506950 0.000000 1.605560 -1.178515 0.000000 1.065669 -0.961878 0.000000 0.532764 -0.838132 0.000000 
-0.000000 -0.194949 0.000000 -0.607050 -0.235973 0.000000 -1.219771 -0.352445 0.000000 -1.859768 -0.568923 0.000000 -2.500030 -0.906644 0.000000 -3.159075 -1.390265 0.000000 -3.757162 -2.077919 0.000000 -4.254736 -2.934635 0.000000 -4.554582 -4.022589 0.000000 -4.446645 -5.128571 0.000000 -4.130363 -6.120818 0.000000 -3.606996 -6.990437 0.000000 -2.962049 -7.668632 0.000000 -2.254742 -8.198392 0.000000 -1.510398 -8.554206 0.000000 -0.758007 -8.769873 0.000000 -0.000000 -8.835710 0.000000 0.758007 -8.769873 0.000000 1.510398 -8.554206 0.000000 2.254742 -8.198392 0.000000 2.962049 -7.668632 0.000000 3.606996 -6.990437 0.000000 4.130363 -6.120818 0.000000 4.446645 -5.128571 0.000000 4.554582 -4.022589 0.000000 4.254736 -2.934635 0.000000 3.757162 -2.077919 0.000000 3.159075 -1.390265 0.000000 2.500030 -0.906644 0.000000 1.859768 -0.568923 0.000000 1.219771 -0.352445 0.000000 0.607050 -0.235973 0.000000 
-0.000000 0.417726 0.000000 -0.690295 0.381639 0.000000 -1.398681 0.290840 0.000000 -2.159916 0.101744 0.000000 -2.954501 -0.207643 0.000000 -3.815978 -0.690695 0.000000 -4.637300 -1.450518 0.000000 -5.379644 -2.454416 0.000000 -5.820523 -3.915905 0.000000 -5.669047 -5.403313 0.000000 -5.214113 -6.614125 0.000000 -4.512641 -7.659765 0.000000 -3.686157 -8.411154 0.000000 -2.795732 -8.958401 0.000000 -1.867896 -9.306683 0.000000 -0.935706 -9.505452 0.000000 -0.000000 -9.567701 0.000000 0.935706 -9.505452 0.000000 1.867896 -9.306683 0.000000 2.795732 -8.958401 0.000000 3.686157 -8.411154 0.000000 4.512641 -7.659765 0.000000 5.214113 -6.614125 0.000000 5.669047 -5.403313 0.000000 5.820523 -3.915905 0.000000 5.379644 -2.454416 0.000000 4.637300 -1.450518 0.000000 3.815978 -0.690695 0.000000 2.954501 -0.207643 0.000000 2.159916 0.101744 0.000000 1.398681 0.290840 0.000000 0.690295 0.381639 0.000000 
-0.000000 1.185641 0.000000 -0.733913 1.162708 0.000000 -1.499566 1.117176 0.000000 -2.358176 0.986898 0.000000 -3.292223 0.749417 0.000000 -4.401714 0.292534 0.000000 -5.520459 -0.514253 0.000000 -6.717470 -1.751412 0.000000 -7.502457 -3.733186 0.000000 -7.148469 -5.734980 0.000000 -6.387633 -7.277223 0.000000 -5.405019 -8.518393 0.000000 -4.261839 -9.385542 0.000000 -3.151315 -10.016653 0.000000 -2.058278 -10.414232 0.000000 -1.019410 -10.637769 0.000000 -0.000000 -10.707122 0.000000 1.019410 -10.637769 0.000000 2.058278 -10.414232 0.000000 3.151315 -10.016653 0.000000 4.261839 -9.385542 0.000000 5.405019 -8.518393 0.000000 6.387633 -7.277223 0.000000 7.148469 -5.734980 0.000000 7.502457 -3.733186 0.000000 6.717470 -1.751412 0.000000 5.520459 -0.514253 0.000000 4.401714 0.292534 0.000000 3.292223 0.749417 0.000000 2.358176 0.986898 0.000000 1.499566 1.117176 0.000000 0.733913 1.162708 0.000000 
-0.000000 1.885553 0.000000 -0.758778 1.881206 0.000000 -1.574504 1.915103 0.000000 -2.527913 1.894400 0.000000 -3.649342 1.835896 0.000000 -5.081167 1.537541 0.000000 -6.683482 0.865237 0.000000 -8.589695 -0.472418 0.000000 -9.799623 -3.484906 0.000000 -9.220968 -6.518137 0.000000 -7.994427 -8.357575 0.000000 -6.619755 -9.785559 0.000000 -5.182698 -10.664858 0.000000 -3.822473 -11.161962 0.000000 -2.487664 -11.438588 0.000000 -1.227945 -11.563730 0.000000 -0.000000 -11.606522 0.000000 1.227945 -11.563730 0.000000 2.487664 -11.438588 0.000000 3.822473 -11.161962 0.000000 5.182698 -10.664858 0.000000 6.619755 -9.785559 0.000000 7.994427 -8.357575 0.000000 9.220968 -6.518137 0.000000 9.799623 -3.484906 0.000000 8.589695 -0.472418 0.000000 6.683482 0.865237 0.000000 5.081167 1.537541 0.000000 3.649342 1.835896 0.000000 2.527913 1.894400 0.000000 1.574504 1.915103 0.000000 0.758778 1.881206 0.000000 
-0.000000 2.703197 0.000000 -0.704299 2.737212 0.000000 -1.486232 2.886311 0.000000 -2.437038 3.061736 0.000000 -3.648335 3.302671 0.000000 -5.372266 3.326674 0.000000 -7.529875 2.994276 0.000000 -11.043045 1.364729 0.000000 -13.492715 -3.101914 0.000000 -11.976100 -7.540176 0.000000 -9.645849 -9.878436 0.000000 -7.712044 -11.330122 0.000000 -5.641696 -12.182823 0.000000 -3.928665 -12.711686 0.000000 -2.462029 -13.008760 0.000000 -1.188243 -13.125433 0.000000 -0.000000 -13.163011 0.000000 1.188243 -13.125433 0.000000 2.462029 -13.008760 0.000000 3.928665 -12.711686 0.000000 5.641696 -12.182823 0.000000 7.712044 -11.330122 0.000000 9.645849 -9.878436 0.000000 11.976100 -7.540176 0.000000 13.492715 -3.101914 0.000000 11.043045 1.364729 0.000000 7.529875 2.994276 0.000000 5.372266 3.326674 0.000000 3.648335 3.302671 0.000000 2.437038 3.061736 0.000000 1.486232 2.886311 0.000000 0.704299 2.737212 0.000000 
-0.000000 3.294150 0.000000 -0.575648 3.367437 0.000000 -1.249977 3.647842 0.000000 -2.111053 4.056503 0.000000 -3.384069 4.771124 0.000000 -5.391372 5.419081 0.000000 -8.662638 6.536017 0.000000 -14.492291 5.490421 0.000000 -17.553937 -2.551851 0.000000 -14.805599 -10.365002 0.000000 -11.645010 -12.621631 0.000000 -8.905259 -13.789712 0.000000 -6.557641 -14.448237 0.000000 -4.643455 -14.341629 0.000000 -2.897782 -14.179011 0.000000 -1.381184 -14.025759 0.000000 -0.000000 -13.983007 0.000000 1.381184 -14.025759 0.000000 2.897782 -14.179011 0.000000 4.643455 -14.341629 0.000000 6.557641 -14.448237 0.000000 8.905259 -13.789712 0.000000 11.645010 -12.621631 0.000000 14.805599 -10.365002 0.000000 17.553937 -2.551851 0.000000 14.492291 5.490421 0.000000 8.662638 6.536017 0.000000 5.391372 5.419081 0.000000 3.384069 4.771124 0.000000 2.111053 4.056503 0.000000 1.249977 3.647842 0.000000 0.575648 3.367437 0.000000 
-0.000000 3.854492 0.000000 -0.350532 3.987189 0.000000 -0.797481 4.421717 0.000000 -1.312128 5.195829 0.000000 -2.282981 6.582990 0.000000 -3.511796 8.605243 0.000000 -6.462005 12.095194 0.000000 -10.085141 10.256028 0.000000 -9.553610 -2.788605 0.000000 -10.700504 -13.449103 0.000000 -12.229564 -15.778777 0.000000 -9.252713 -16.417491 0.000000 -6.155992 -16.444628 0.000000 -3.661744 -16.371545 0.000000 -2.143728 -16.271031 0.000000 -0.992170 -16.023215 0.000000 -0.000000 -15.925378 0.000000 0.992170 -16.023215 0.000000 2.143728 -16.271031 0.000000 3.661744 -16.371545 0.000000 6.155992 -16.444628 0.000000 9.252713 -16.417491 0.000000 12.229564 -15.778777 0.000000 10.700504 -13.449103 0.000000 9.553610 -2.788605 0.000000 10.085141 10.256028 0.000000 6.462005 12.095194 0.000000 3.511796 8.605243 0.000000 2.282981 6.582990 0.000000 1.312128 5.195829 0.000000 0.797481 4.421717 0.000000 0.350532 3.987189 0.000000 
-0.000000 3.995214 0.000000 -0.009043 4.164919 0.000000 -0.043754 4.609437 0.000000 0.043807 5.542003 0.000000 0.015715 6.970793 0.000000 0.554626 9.598105 0.000000 0.680601 13.109362 0.000000 3.077580 8.582026 0.000000 4.136635 -1.936489 0.000000 -4.526722 -7.689049 0.000000 -8.568219 -14.069422 0.000000 -6.478481 -19.863284 0.000000 -5.961765 -20.039206 0.000000 -4.320438 -18.353893 0.000000 -2.498830 -16.848584 0.000000 -1.026939 -16.169487 0.000000 -0.000000 -15.967347 0.000000 1.026939 -16.169487 0.000000 2.498830 -16.848584 0.000000 4.320438 -18.353893 0.000000 5.961765 -20.039206 0.000000 6.478481 -19.863284 0.000000 8.568219 -14.069422 0.000000 4.526722 -7.689049 0.000000 -4.136635 -1.936489 0.000000 -3.077580 8.582026 0.000000 -0.680601 13.109362 0.000000 -0.554626 9.598105 0.000000 -0.015715 6.970793 0.000000 -0.043807 5.542003 0.000000 0.043754 4.609437 0.000000 0.009043 4.164919 0.000000 
-0.000000 3.872579 0.000000 0.263996 4.030942 0.000000 0.580566 4.368866 0.000000 1.052609 5.136360 0.000000 1.797176 6.072171 0.000000 3.127118 7.940357 0.000000 5.603056 9.572240 0.000000 9.873549 6.799994 0.000000 8.144102 4.815697 0.000000 0.872746 -0.744250 0.000000 -1.733741 -13.827018 0.000000 -2.504991 -19.023945 0.000000 -0.851116 -18.602671 0.000000 1.003362 -19.834480 0.000000 0.585275 -19.564530 0.000000 0.021313 -18.522046 0.000000 -0.000000 -17.979256 0.000000 -0.021313 -18.522046 0.000000 -0.585275 -19.564530 0.000000 -1.003362 -19.834480 0.000000 0.851116 -18.602671 0.000000 2.504991 -19.023945 0.000000 1.733741 -13.827018 0.000000 -0.872746 -0.744250 0.000000 -8.144102 4.815697 0.000000 -9.873549 6.799994 0.000000 -5.603056 9.572240 0.000000 -3.127118 7.940357 0.000000 -1.797176 6.072171 0.000000 -1.052609 5.136360 0.000000 -0.580566 4.368866 0.000000 -0.263996 4.030942 0.000000 
-0.000000 3.467222 0.000000 0.487538 3.584352 0.000000 1.062440 3.820825 0.000000 1.751152 4.325393 0.000000 2.829317 4.896283 0.000000 4.159150 5.792226 0.000000 6.830397 6.362930 0.000000 9.574680 6.040980 0.000000 10.280948 7.064315 0.000000 11.621654 2.188794 0.000000 7.920017 -10.691685 0.000000 0.079916 -20.745909 0.000000 -0.943266 -23.547559 0.000000 1.374567 -19.790284 0.000000 2.223508 -15.866534 0.000000 1.616186 -15.584212 0.000000 -0.000000 -15.924722 0.000000 -1.616186 -15.584212 0.000000 -2.223508 -15.866534 0.000000 -1.374567 -19.790284 0.000000 0.943266 -23.547559 0.000000 -0.079916 -20.745909 0.000000 -7.920017 -10.691685 0.000000 -11.621654 2.188794 0.000000 -10.280948 7.064315 0.000000 -9.574680 6.040980 0.000000 -6.830397 6.362930 0.000000 -4.159150 5.792226 0.000000 -2.829317 4.896283 0.000000 -1.751152 4.325393 0.000000 -1.062440 3.820825 0.000000 -0.487538 3.584352 0.000000 
-0.000000 2.897502 0.000000 0.617765 2.968502 0.000000 1.321684 3.105253 0.000000 2.128671 3.369483 0.000000 3.261649 3.664173 0.000000 4.599487 3.939277 0.000000 6.729711 4.156710 0.000000 8.896923 3.349443 0.000000 11.698260 2.768723 0.000000 16.019869 1.616681 0.000000 16.599194 -2.285280 0.000000 10.590422 -10.160662 0.000000 1.607884 -19.897321 0.000000 -3.658294 -23.001253 0.000000 -3.397971 -19.806149 0.000000 -1.465050 -16.298538 0.000000 -0.000000 -14.746885 0.000000 1.465050 -16.298538 0.000000 3.397971 -19.806149 0.000000 3.658294 -23.001253 0.000000 -1.607884 -19.897321 0.000000 -10.590422 -10.160662 0.000000 -16.599194 -2.285280 0.000000 -16.019869 1.616681 0.000000 -11.698260 2.768723 0.000000 -8.896923 3.349443 0.000000 -6.729711 4.156710 0.000000 -4.599487 3.939277 0.000000 -3.261649 3.664173 0.000000 -2.128671 3.369483 0.000000 -1.321684 3.105253 0.000000 -0.617765 2.968502 0.000000 
-0.000000 2.231692 0.000000 0.695248 2.262669 0.000000 1.463366 2.309919 0.000000 2.309629 2.385428 0.000000 3.398872 2.425467 0.000000 4.649530 2.324164 0.000000 6.320733 2.065495 0.000000 8.248302 1.072431 0.000000 10.123455 -0.058631 0.000000 12.850263 -2.712140 0.000000 15.653300 -5.262239 0.000000 17.850482 -5.754598 0.000000 16.464038 -9.298843 0.000000 9.846671 -14.784429 0.000000 3.449774 -18.059778 0.000000 0.426066 -18.982184 0.000000 -0.000000 -18.854823 0.000000 -0.426066 -18.982184 0.000000 -3.449774 -18.059778 0.000000 -9.846671 -14.784429 0.000000 -16.464038 -9.298843 0.000000 -17.850482 -5.754598 0.000000 -15.653300 -5.262239 0.000000 -12.850263 -2.712140 0.000000 -10.123455 -0.058631 0.000000 -8.248302 1.072431 0.000000 -6.320733 2.065495 0.000000 -4.649530 2.324164 0.000000 -3.398872 2.425467 0.000000 -2.309629 2.385428 0.000000 -1.463366 2.309919 0.000000 -0.695248 2.262669 0.000000 
-0.000000 1.507007 0.000000 0.695983 1.505136 0.000000 1.444456 1.490871 0.000000 2.243957 1.433977 0.000000 3.200271 1.324272 0.000000 4.238028 1.017415 0.000000 5.481125 0.557938 0.000000 6.770892 -0.453279 0.000000 7.924669 -1.833238 0.000000 9.156121 -3.913164 0.000000 9.178662 -7.285498 0.000000 9.663935 -10.971400 0.000000 10.738504 -11.893510 0.000000 10.151593 -9.986989 0.000000 7.946772 -10.385544 0.000000 4.287262 -12.848764 0.000000 -0.000000 -13.894754 0.000000 -4.287262 -12.848764 0.000000 -7.946772 -10.385544 0.000000 -10.151593 -9.986989 0.000000 -10.738504 -11.893510 0.000000 -9.663935 -10.971400 0.000000 -9.178662 -7.285498 0.000000 -9.156121 -3.913164 0.000000 -7.924669 -1.833238 0.000000 -6.770892 -0.453279 0.000000 -5.481125 0.557938 0.000000 -4.238028 1.017415 0.000000 -3.200271 1.324272 0.000000 -2.243957 1.433977 0.000000 -1.444456 1.490871 0.000000 -0.695983 1.505136 0.000000 
-0.000000 0.839727 0.000000 0.679095 0.818213 0.000000 1.392271 0.761944 0.000000 2.143115 0.629613 0.000000 2.982997 0.431397 0.000000 3.884894 0.043310 0.000000 4.854604 -0.467369 0.000000 5.866713 -1.371114 0.000000 6.676181 -2.443860 0.000000 7.369571 -3.966133 0.000000 7.412371 -5.770053 0.000000 6.285528 -7.314441 0.000000 4.132442 -9.786501 0.000000 2.994172 -11.992696 0.000000 2.913899 -12.195447 0.000000 1.860173 -11.035412 0.000000 -0.000000 -10.280299 0.000000 -1.860173 -11.035412 0.000000 -2.913899 -12.195447 0.000000 -2.994172 -11.992696 0.000000 -4.132442 -9.786501 0.000000 -6.285528 -7.314441 0.000000 -7.412371 -5.770053 0.000000 -7.369571 -3.966133 0.000000 -6.676181 -2.443860 0.000000 -5.866713 -1.371114 0.000000 -4.854604 -0.467369 0.000000 -3.884894 0.043310 0.000000 -2.982997 0.431397 0.000000 -2.143115 0.629613 0.000000 -1.392271 0.761944 0.000000 -0.679095 0.818213 0.000000 
-0.000000 0.148817 0.000000 0.618166 0.112865 0.000000 1.255826 0.026851 0.000000 1.913235 -0.156749 0.000000 2.613775 -0.417507 0.000000 3.338603 -0.854192 0.000000 4.065449 -1.423881 0.000000 4.790945 -2.274856 0.000000 5.325411 -3.336097 0.000000 5.811876 -4.649353 0.000000 5.810767 -6.201455 0.000000 5.628439 -7.691471 0.000000 5.124755 -8.602154 0.000000 3.643020 -8.768447 0.000000 1.872788 -9.251545 0.000000 0.598450 -9.934865 0.000000 -0.000000 -10.174409 0.000000 -0.598450 -9.934865 0.000000 -1.872788 -9.251545 0.000000 -3.643020 -8.768447 0.000000 -5.124755 -8.602154 0.000000 -5.628439 -7.691471 0.000000 -5.810767 -6.201455 0.000000 -5.811876 -4.649353 0.000000 -5.325411 -3.336097 0.000000 -4.790945 -2.274856 0.000000 -4.065449 -1.423881 0.000000 -3.338603 -0.854192 0.000000 -2.613775 -0.417507 0.000000 -1.913235 -0.156749 0.000000 -1.255826 0.026851 0.000000 -0.618166 0.112865 0.000000 
-0.000000 -0.396606 0.000000 0.557166 -0.437613 0.000000 1.122761 -0.533124 0.000000 1.698968 -0.728336 0.000000 2.285955 -0.993971 0.000000 2.879297 -1.408364 0.000000 3.434927 -1.919711 0.000000 3.955993 -2.631076 0.000000 4.302497 -3.464791 0.000000 4.504347 -4.451489 0.000000 4.369821 -5.586617 0.000000 3.900321 -6.628429 0.000000 3.088159 -7.801082 0.000000 2.367039 -8.740729 0.000000 1.792687 -9.150877 0.000000 0.967772 -9.162624 0.000000 -0.000000 -9.083399 0.000000 -0.967772 -9.162624 0.000000 -1.792687 -9.150877 0.000000 -2.367039 -8.740729 0.000000 -3.088159 -7.801082 0.000000 -3.900321 -6.628429 0.000000 -4.369821 -5.586617 0.000000 -4.504347 -4.451489 0.000000 -4.302497 -3.464791 0.000000 -3.955993 -2.631076 0.000000 -3.434927 -1.919711 0.000000 -2.879297 -1.408364 0.000000 -2.285955 -0.993971 0.000000 -1.698968 -0.728336 0.000000 -1.122761 -0.533124 0.000000 -0.557166 -0.437613 0.000000 
-0.000000 -0.965515 0.000000 0.481626 -1.009896 0.000000 0.965070 -1.114951 0.000000 1.452311 -1.319943 0.000000 1.933643 -1.597836 0.000000 2.412673 -2.003163 0.000000 2.842485 -2.500577 0.000000 3.245387 -3.142426 0.000000 3.505021 -3.884451 0.000000 3.689666 -4.716677 0.000000 3.635597 -5.597429 0.000000 3.416624 -6.409809 0.000000 3.000102 -7.068872 0.000000 2.280031 -7.472975 0.000000 1.456934 -7.852278 0.000000 0.670364 -8.142178 0.000000 -0.000000 -8.238864 0.000000 -0.670364 -8.142178 0.000000 -1.456934 -7.852278 0.000000 -2.280031 -7.472975 0.000000 -3.000102 -7.068872 0.000000 -3.416624 -6.409809 0.000000 -3.635597 -5.597429 0.000000 -3.689666 -4.716677 0.000000 -3.505021 -3.884451 0.000000 -3.245387 -3.142426 0.000000 -2.842485 -2.500577 0.000000 -2.412673 -2.003163 0.000000 -1.933643 -1.597836 0.000000 -1.452311 -1.319943 0.000000 -0.965070 -1.114951 0.000000 -0.481626 -1.009896 0.000000 
-0.000000 -1.359859 0.000000 0.407754 -1.402683 0.000000 0.812761 -1.503809 0.000000 1.216169 -1.696909 0.000000 1.602832 -1.954333 0.000000 1.976696 -2.317206 0.000000 2.295721 -2.752424 0.000000 2.572100 -3.293612 0.000000 2.728071 -3.909071 0.000000 2.791066 -4.582065 0.000000 2.677366 -5.313575 0.000000 2.430846 -5.992934 0.000000 2.029186 -6.664488 0.000000 1.586130 -7.197560 0.000000 1.123190 -7.541209 0.000000 0.579088 -7.705691 0.000000 -0.000000 -7.742672 0.000000 -0.579088 -7.705691 0.000000 -1.123190 -7.541209 0.000000 -1.586130 -7.197560 0.000000 -2.029186 -6.664488 0.000000 -2.430846 -5.992934 0.000000 -2.677366 -5.313575 0.000000 -2.791066 -4.582065 0.000000 -2.728071 -3.909071 0.000000 -2.572100 -3.293612 0.000000 -2.295721 -2.752424 0.000000 -1.976696 -2.317206 0.000000 -1.602832 -1.954333 0.000000 -1.216169 -1.696909 0.000000 -0.812761 -1.503809 0.000000 -0.407754 -1.402683 0.000000 
-0.000000 -1.781023 0.000000 0.337673 -1.822657 0.000000 0.670838 -1.923366 0.000000 1.001784 -2.110014 0.000000 1.313349 -2.358363 0.000000 1.614597 -2.696053 0.000000 1.866140 -3.095980 0.000000 2.088819 -3.574775 0.000000 2.216818 -4.103417 0.000000 2.285370 -4.665973 0.000000 2.224935 -5.237210 0.000000 2.065511 -5.761628 0.000000 1.793561 -6.224155 0.000000 1.401348 -6.566979 0.000000 0.948937 -6.845237 0.000000 0.469629 -7.018988 0.000000 -0.000000 -7.080688 0.000000 -0.469629 -7.018988 0.000000 -0.948937 -6.845237 0.000000 -1.401348 -6.566979 0.000000 -1.793561 -6.224155 0.000000 -2.065511 -5.761628 0.000000 -2.224935 -5.237210 0.000000 -2.285370 -4.665973 0.000000 -2.216818 -4.103417 0.000000 -2.088819 -3.574775 0.000000 -1.866140 -3.095980 0.000000 -1.614597 -2.696053 0.000000 -1.313349 -2.358363 0.000000 -1.001784 -2.110014 0.000000 -0.670838 -1.923366 0.000000 -0.337673 -1.822657 0.000000 
-0.000000 -2.035204 0.000000 0.265415 -2.073521 0.000000 0.525406 -2.167921 0.000000 0.781174 -2.339420 0.000000 1.016777 -2.567146 0.000000 1.239048 -2.869997 0.000000 1.416927 -3.226646 0.000000 1.564550 -3.644291 0.000000 1.636782 -4.105622 0.000000 1.657200 -4.590181 0.000000 1.581963 -5.093716 0.000000 1.444351 -5.561560 0.000000 1.224681 -6.000325 0.000000 0.965710 -6.352936 0.000000 0.671326 -6.609490 0.000000 0.343518 -6.756754 0.000000 -0.000000 -6.803413 0.000000 -0.343518 -6.756754 0.000000 -0.671326 -6.609490 0.000000 -0.965710 -6.352936 0.000000 -1.224681 -6.000325 0.000000 -1.444351 -5.561560 0.000000 -1.581963 -5.093716 0.000000 -1.657200 -4.590181 0.000000 -1.636782 -4.105622 0.000000 -1.564550 -3.644291 0.000000 -1.416927 -3.226646 0.000000 -1.239048 -2.869997 0.000000 -1.016777 -2.567146 0.000000 -0.781174 -2.339420 0.000000 -0.525406 -2.167921 0.000000 -0.265415 -2.073521 0.000000 
-0.000000 -2.311853 0.000000 0.204963 -2.348064 0.000000 0.404956 -2.439125 0.000000 0.602587 -2.601384 0.000000 0.782816 -2.816236 0.000000 0.955156 -3.096203 0.000000 1.091935 -3.421482 0.000000 1.209938 -3.794630 0.000000 1.271047 -4.196068 0.000000 1.297346 -4.611154 0.000000 1.253533 -5.024360 0.000000 1.158721 -5.404346 0.000000 1.001740 -5.745514 0.000000 0.791725 -6.013625 0.000000 0.544944 -6.223045 0.000000 0.275713 -6.347662 0.000000 -0.000000 -6.393652 0.000000 -0.275713 -6.347662 0.000000 -0.544944 -6.223045 0.000000 -0.791725 -6.013625 0.000000 -1.001740 -5.745514 0.000000 -1.158721 -5.404346 0.000000 -1.253533 -5.024360 0.000000 -1.297346 -4.611154 0.000000 -1.271047 -4.196068 0.000000 -1.209938 -3.794630 0.000000 -1.091935 -3.421482 0.000000 -0.955156 -3.096203 0.000000 -0.782816 -2.816236 0.000000 -0.602587 -2.601384 0.000000 -0.404956 -2.439125 0.000000 -0.204963 -2.348064 0.000000 
-0.000000 -2.445130 0.000000 0.138134 -2.478477 0.000000 0.272069 -2.565544 0.000000 0.404037 -2.717279 0.000000 0.521918 -2.919716 0.000000 0.633748 -3.179116 0.000000 0.718437 -3.481428 0.000000 0.789894 -3.823403 0.000000 0.820222 -4.193030 0.000000 0.828897 -4.572667 0.000000 0.788871 -4.955092 0.000000 0.723355 -5.309768 0.000000 0.615647 -5.633329 0.000000 0.488402 -5.896140 0.000000 0.337412 -6.093479 0.000000 0.172957 -6.211810 0.000000 -0.000000 -6.251986 0.000000 -0.172957 -6.211810 0.000000 -0.337412 -6.093479 0.000000 -0.488402 -5.896140 0.000000 -0.615647 -5.633329 0.000000 -0.723355 -5.309768 0.000000 -0.788871 -4.955092 0.000000 -0.828897 -4.572667 0.000000 -0.820222 -4.193030 0.000000 -0.789894 -3.823403 0.000000 -0.718437 -3.481428 0.000000 -0.633748 -3.179116 0.000000 -0.521918 -2.919716 0.000000 -0.404037 -2.717279 0.000000 -0.272069 -2.565544 0.000000 -0.138134 -2.478477 0.000000 
-0.000000 -2.588122 0.000000 0.084561 -2.620132 0.000000 0.166178 -2.705028 0.000000 0.248451 -2.851234 0.000000 0.321028 -3.045948 0.000000 0.393501 -3.292722 0.000000 0.447716 -3.577627 0.000000 0.498398 -3.896415 0.000000 0.521832 -4.235071 0.000000 0.535298 -4.579803 0.000000 0.516393 -4.918818 0.000000 0.480385 -5.231122 0.000000 0.415210 -5.510561 0.000000 0.331412 -5.735390 0.000000 0.229164 -5.907600 0.000000 0.117159 -6.010250 0.000000 -0.000000 -6.047739 0.000000 -0.117159 -6.010250 0.000000 -0.229164 -5.907600 0.000000 -0.331412 -5.735390 0.000000 -0.415210 -5.510561 0.000000 -0.480385 -5.231122 0.000000 -0.516393 -4.918818 0.000000 -0.535298 -4.579803 0.000000 -0.521832 -4.235071 0.000000 -0.498398 -3.896415 0.000000 -0.447716 -3.577627 0.000000 -0.393501 -3.292722 0.000000 -0.321028 -3.045948 0.000000 -0.248451 -2.851234 0.000000 -0.166178 -2.705028 0.000000 -0.084561 -2.620132 0.000000 
