# vtk DataFile Version 2.0
Comment goes here
ASCII

DATASET STRUCTURED_POINTS
FIELD FieldData 1
TIME 1 1 double
0.00050000
DIMENSIONS    32   32   1

ORIGIN    0.000   0.000   0.000
SPACING   0.03125 0.03125   1.000

POINT_DATA   1024
SCALARS uX double
LOOKUP_TABLE default

1.703766e-15 4.998475e-03 9.404724e-03 1.444602e-02 1.784448e-02 2.207740e-02 2.402651e-02 2.633818e-02 2.638314e-02 2.590224e-02 2.388085e-02 2.087168e-02 1.736189e-02 1.330007e-02 9.331518e-03 4.686413e-03 -9.165386e-18 -4.686413e-03 -9.331518e-03 -1.330007e-02 -1.736189e-02 -2.087168e-02 -2.388085e-02 -2.590224e-02 -2.638314e-02 -2.633818e-02 -2.402651e-02 -2.207740e-02 -1.784448e-02 -1.444602e-02 -9.404724e-03 -4.998475e-03 
1.114095e-15 -2.412130e-02 -4.830935e-02 -6.938553e-02 -9.042452e-02 -1.053215e-01 -1.195149e-01 -1.253060e-01 -1.292627e-01 -1.246984e-01 -1.172752e-01 -1.040250e-01 -8.758171e-02 -6.848295e-02 -4.672681e-02 -2.393357e-02 1.015626e-15 2.393357e-02 4.672681e-02 6.848295e-02 8.758171e-02 1.040250e-01 1.172752e-01 1.246984e-01 1.292627e-01 1.253060e-01 1.195149e-01 1.053215e-01 9.042452e-02 6.938553e-02 4.830935e-02 2.412130e-02 
2.201863e-17 -5.961165e-02 -1.185124e-01 -1.726383e-01 -2.241001e-01 -2.655309e-01 -3.011959e-01 -3.218272e-01 -3.331158e-01 -3.271009e-01 -3.097953e-01 -2.778740e-01 -2.359713e-01 -1.845541e-01 -1.266476e-01 -6.441306e-02 2.120429e-15 6.441306e-02 1.266476e-01 1.845541e-01 2.359713e-01 2.778740e-01 3.097953e-01 3.271009e-01 3.331158e-01 3.218272e-01 3.011959e-01 2.655309e-01 2.241001e-01 1.726383e-01 1.185124e-01 5.961165e-02 
-2.689361e-16 -9.105454e-02 -1.809669e-01 -2.639814e-01 -3.428284e-01 -4.065113e-01 -4.614148e-01 -4.924267e-01 -5.094905e-01 -4.982815e-01 -4.705455e-01 -4.199726e-01 -3.551342e-01 -2.767752e-01 -1.893622e-01 -9.620838e-02 2.759420e-15 9.620838e-02 1.893622e-01 2.767752e-01 3.551342e-01 4.199726e-01 4.705455e-01 4.982815e-01 5.094905e-01 4.924267e-01 4.614148e-01 4.065113e-01 3.428284e-01 2.639814e-01 1.809669e-01 9.105454e-02 
-1.148566e-15 -1.304183e-01 -2.593548e-01 -3.798567e-01 -4.945377e-01 -5.897351e-01 -6.715952e-01 -7.210158e-01 -7.478548e-01 -7.346057e-01 -6.939736e-01 -6.207126e-01 -5.248022e-01 -4.092284e-01 -2.799490e-01 -1.421969e-01 5.008797e-15 1.421969e-01 2.799490e-01 4.092284e-01 5.248022e-01 6.207126e-01 6.939736e-01 7.346057e-01 7.478548e-01 7.210158e-01 6.715952e-01 5.897351e-01 4.945377e-01 3.798567e-01 2.593548e-01 1.304183e-01 
-3.144574e-16 -1.671697e-01 -3.327298e-01 -4.889729e-01 -6.385068e-01 -7.643125e-01 -8.738231e-01 -9.396060e-01 -9.767363e-01 -9.560328e-01 -9.002841e-01 -8.008150e-01 -6.730518e-01 -5.224413e-01 -3.555911e-01 -1.803348e-01 5.323661e-15 1.803348e-01 3.555911e-01 5.224413e-01 6.730518e-01 8.008150e-01 9.002841e-01 9.560328e-01 9.767363e-01 9.396060e-01 8.738231e-01 7.643125e-01 6.385068e-01 4.889729e-01 3.327298e-01 1.671697e-01 
-1.087803e-15 -2.126231e-01 -4.243703e-01 -6.266351e-01 -8.231037e-01 -9.925371e-01 -1.142796e+00 -1.237897e+00 -1.292733e+00 -1.269599e+00 -1.193435e+00 -1.061139e+00 -8.893056e-01 -6.894422e-01 -4.683396e-01 -2.373392e-01 8.887264e-15 2.373392e-01 4.683396e-01 6.894422e-01 8.893056e-01 1.061139e+00 1.193435e+00 1.269599e+00 1.292733e+00 1.237897e+00 1.142796e+00 9.925371e-01 8.231037e-01 6.266351e-01 4.243703e-01 2.126231e-01 
4.298013e-16 -2.558214e-01 -5.114461e-01 -7.604269e-01 -1.004645e+00 -1.222153e+00 -1.418628e+00 -1.545643e+00 -1.623335e+00 -1.585447e+00 -1.480811e+00 -1.304834e+00 -1.081214e+00 -8.318541e-01 -5.599617e-01 -2.830294e-01 1.100021e-14 2.830294e-01 5.599617e-01 8.318541e-01 1.081214e+00 1.304834e+00 1.480811e+00 1.585447e+00 1.623335e+00 1.545643e+00 1.418628e+00 1.222153e+00 1.004645e+00 7.604269e-01 5.114461e-01 2.558214e-01 
6.465415e-16 -3.060624e-01 -6.150228e-01 -9.215238e-01 -1.230717e+00 -1.515880e+00 -1.783761e+00 -1.968429e+00 -2.086834e+00 -2.044781e+00 -1.897705e+00 -1.664789e+00 -1.370617e+00 -1.050036e+00 -7.040853e-01 -3.550467e-01 1.258502e-14 3.550467e-01 7.040853e-01 1.050036e+00 1.370617e+00 1.664789e+00 1.897705e+00 2.044781e+00 2.086834e+00 1.968429e+00 1.783761e+00 1.515880e+00 1.230717e+00 9.215238e-01 6.150228e-01 3.060624e-01 
2.563908e-15 -3.515124e-01 -7.084090e-01 -1.074764e+00 -1.450002e+00 -1.818221e+00 -2.172698e+00 -2.435320e+00 -2.617097e+00 -2.535386e+00 -2.318456e+00 -2.001277e+00 -1.611083e+00 -1.217149e+00 -8.030734e-01 -4.029708e-01 1.835757e-14 4.029708e-01 8.030734e-01 1.217149e+00 1.611083e+00 2.001277e+00 2.318456e+00 2.535386e+00 2.617097e+00 2.435320e+00 2.172698e+00 1.818221e+00 1.450002e+00 1.074764e+00 7.084090e-01 3.515124e-01 
4.644496e-15 -3.961656e-01 -8.049988e-01 -1.237522e+00 -1.700985e+00 -2.181032e+00 -2.674729e+00 -3.075059e+00 -3.373019e+00 -3.276506e+00 -2.939829e+00 -2.503138e+00 -1.991285e+00 -1.490787e+00 -9.773344e-01 -4.878337e-01 2.163321e-14 4.878337e-01 9.773344e-01 1.490787e+00 1.991285e+00 2.503138e+00 2.939829e+00 3.276506e+00 3.373019e+00 3.075059e+00 2.674729e+00 2.181032e+00 1.700985e+00 1.237522e+00 8.049988e-01 3.961656e-01 
7.843730e-15 -4.269803e-01 -8.721802e-01 -1.368916e+00 -1.914258e+00 -2.540688e+00 -3.205100e+00 -3.841781e+00 -4.353387e+00 -4.120371e+00 -3.565076e+00 -2.947863e+00 -2.241750e+00 -1.632603e+00 -1.041325e+00 -5.147079e-01 2.746024e-14 5.147079e-01 1.041325e+00 1.632603e+00 2.241750e+00 2.947863e+00 3.565076e+00 4.120371e+00 4.353387e+00 3.841781e+00 3.205100e+00 2.540688e+00 1.914258e+00 1.368916e+00 8.721802e-01 4.269803e-01 
1.301321e-14 -4.372451e-01 -9.039625e-01 -1.451382e+00 -2.093454e+00 -2.895769e+00 -3.841356e+00 -4.873123e+00 -5.789140e+00 -5.484938e+00 -4.496513e+00 -3.580139e+00 -2.677085e+00 -1.921945e+00 -1.213849e+00 -5.933015e-01 3.174853e-14 5.933015e-01 1.213849e+00 1.921945e+00 2.677085e+00 3.580139e+00 4.496513e+00 5.484938e+00 5.789140e+00 4.873123e+00 3.841356e+00 2.895769e+00 2.093454e+00 1.451382e+00 9.039625e-01 4.372451e-01 
2.000198e-14 -4.144707e-01 -8.660245e-01 -1.433240e+00 -2.129643e+00 -3.134144e+00 -4.380668e+00 -6.269067e+00 -8.016019e+00 -7.158904e+00 -5.346489e+00 -4.037116e+00 -2.749928e+00 -1.851106e+00 -1.120584e+00 -5.380216e-01 3.943779e-14 5.380216e-01 1.120584e+00 1.851106e+00 2.749928e+00 4.037116e+00 5.346489e+00 7.158904e+00 8.016019e+00 6.269067e+00 4.380668e+00 3.134144e+00 2.129643e+00 1.433240e+00 8.660245e-01 4.144707e-01 
2.893257e-14 -3.386853e-01 -7.173827e-01 -1.234971e+00 -1.927145e+00 -3.077579e+00 -4.806114e+00 -7.981252e+00 -1.119581e+01 -9.942069e+00 -6.532691e+00 -4.409622e+00 -3.006153e+00 -2.023449e+00 -1.200822e+00 -5.567808e-01 4.201085e-14 5.567808e-01 1.200822e+00 2.023449e+00 3.006153e+00 4.409622e+00 6.532691e+00 9.942069e+00 1.119581e+01 7.981252e+00 4.806114e+00 3.077579e+00 1.927145e+00 1.234971e+00 7.173827e-01 3.386853e-01 
3.495005e-14 -2.121251e-01 -4.623256e-01 -8.152670e-01 -1.357225e+00 -2.285050e+00 -3.975103e+00 -7.069688e+00 -8.998664e+00 -8.108789e+00 -6.364825e+00 -4.159368e+00 -2.288256e+00 -1.197102e+00 -6.902852e-01 -3.241403e-01 4.536141e-14 3.241403e-01 6.902852e-01 1.197102e+00 2.288256e+00 4.159368e+00 6.364825e+00 8.108789e+00 8.998664e+00 7.069688e+00 3.975103e+00 2.285050e+00 1.357225e+00 8.152670e-01 4.623256e-01 2.121251e-01 
4.532894e-14 -2.127275e-02 -3.875346e-02 -7.305329e-02 -9.418293e-02 -1.542769e-01 -1.831284e-01 -2.740244e-01 9.041659e-01 -5.269203e-01 -2.261179e+00 -1.339373e+00 -1.510807e+00 -1.192705e+00 -5.809576e-01 -1.670894e-01 4.150355e-14 1.670894e-01 5.809576e-01 1.192705e+00 1.510807e+00 1.339373e+00 2.261179e+00 5.269203e-01 -9.041659e-01 2.740244e-01 1.831284e-01 1.542769e-01 9.418293e-02 7.305329e-02 3.875346e-02 2.127275e-02 
4.515938e-14 1.690965e-01 3.738830e-01 6.690388e-01 1.138316e+00 1.970755e+00 3.497074e+00 6.413627e+00 8.087555e+00 4.406127e+00 1.249607e+00 1.707722e+00 2.327274e+00 1.897788e+00 7.474771e-01 1.321619e-01 3.430020e-14 -1.321619e-01 -7.474771e-01 -1.897788e+00 -2.327274e+00 -1.707722e+00 -1.249607e+00 -4.406127e+00 -8.087555e+00 -6.413627e+00 -3.497074e+00 -1.970755e+00 -1.138316e+00 -6.690388e-01 -3.738830e-01 -1.690965e-01 
4.503632e-14 3.055115e-01 6.572316e-01 1.119938e+00 1.779407e+00 2.811882e+00 4.473943e+00 7.316441e+00 9.142968e+00 8.055272e+00 4.417066e+00 1.141985e+00 1.410502e+00 2.339232e+00 2.116469e+00 1.288550e+00 3.582528e-14 -1.288550e+00 -2.116469e+00 -2.339232e+00 -1.410502e+00 -1.141985e+00 -4.417066e+00 -8.055272e+00 -9.142968e+00 -7.316441e+00 -4.473943e+00 -2.811882e+00 -1.779407e+00 -1.119938e+00 -6.572316e-01 -3.055115e-01 
4.040033e-14 3.885762e-01 8.197051e-01 1.351598e+00 2.038987e+00 2.987336e+00 4.281098e+00 6.062983e+00 7.927709e+00 9.237488e+00 8.612479e+00 3.876870e+00 -1.367716e+00 -2.672055e+00 -1.622534e+00 -5.700218e-01 2.763479e-14 5.700218e-01 1.622534e+00 2.672055e+00 1.367716e+00 -3.876870e+00 -8.612479e+00 -9.237488e+00 -7.927709e+00 -6.062983e+00 -4.281098e+00 -2.987336e+00 -2.038987e+00 -1.351598e+00 -8.197051e-01 -3.885762e-01 
3.432768e-14 4.288104e-01 8.879057e-01 1.434464e+00 2.075679e+00 2.917339e+00 3.888272e+00 5.142292e+00 6.179299e+00 6.978625e+00 7.900427e+00 7.990495e+00 6.331739e+00 2.924182e+00 1.300901e-01 -6.858432e-01 2.461131e-14 6.858432e-01 -1.300901e-01 -2.924182e+00 -6.331739e+00 -7.990495e+00 -7.900427e+00 -6.978625e+00 -6.179299e+00 -5.142292e+00 -3.888272e+00 -2.917339e+00 -2.075679e+00 -1.434464e+00 -8.879057e-01 -4.288104e-01 
2.886923e-14 4.221803e-01 8.658648e-01 1.361525e+00 1.916623e+00 2.561834e+00 3.260091e+00 3.990488e+00 4.551883e+00 4.704090e+00 4.290105e+00 4.380816e+00 5.123029e+00 4.916609e+00 3.826477e+00 2.111096e+00 1.497280e-14 -2.111096e+00 -3.826477e+00 -4.916609e+00 -5.123029e+00 -4.380816e+00 -4.290105e+00 -4.704090e+00 -4.551883e+00 -3.990488e+00 -3.260091e+00 -2.561834e+00 -1.916623e+00 -1.361525e+00 -8.658648e-01 -4.221803e-01 
2.365577e-14 4.040969e-01 8.187027e-01 1.271954e+00 1.747283e+00 2.281048e+00 2.804382e+00 3.322948e+00 3.683578e+00 3.738364e+00 3.485536e+00 2.471619e+00 1.393581e+00 1.285301e+00 1.516877e+00 1.040743e+00 6.290074e-15 -1.040743e+00 -1.516877e+00 -1.285301e+00 -1.393581e+00 -2.471619e+00 -3.485536e+00 -3.738364e+00 -3.683578e+00 -3.322948e+00 -2.804382e+00 -2.281048e+00 -1.747283e+00 -1.271954e+00 -8.187027e-01 -4.040969e-01 
1.940533e-14 3.608029e-01 7.271152e-01 1.110520e+00 1.501587e+00 1.908027e+00 2.290389e+00 2.636202e+00 2.859362e+00 2.929298e+00 2.776636e+00 2.542807e+00 2.222014e+00 1.398653e+00 5.457674e-01 8.262484e-02 2.463460e-15 -8.262484e-02 -5.457674e-01 -1.398653e+00 -2.222014e+00 -2.542807e+00 -2.776636e+00 -2.929298e+00 -2.859362e+00 -2.636202e+00 -2.290389e+00 -1.908027e+00 -1.501587e+00 -1.110520e+00 -7.271152e-01 -3.608029e-01 
1.490288e-14 3.197291e-01 6.396288e-01 9.682081e-01 1.290299e+00 1.611615e+00 1.897540e+00 2.129367e+00 2.267361e+00 2.240626e+00 2.086152e+00 1.717147e+00 1.301026e+00 1.034274e+00 8.179224e-01 4.594983e-01 -1.757728e-15 -4.594983e-01 -8.179224e-01 -1.034274e+00 -1.301026e+00 -1.717147e+00 -2.086152e+00 -2.240626e+00 -2.267361e+00 -2.129367e+00 -1.897540e+00 -1.611615e+00 -1.290299e+00 -9.682081e-01 -6.396288e-01 -3.197291e-01 
1.176780e-14 2.713159e-01 5.410135e-01 8.117371e-01 1.072261e+00 1.323637e+00 1.540704e+00 1.717822e+00 1.819153e+00 1.836544e+00 1.752307e+00 1.575243e+00 1.341275e+00 9.592375e-01 5.738974e-01 2.476439e-01 -1.203298e-15 -2.476439e-01 -5.738974e-01 -9.592375e-01 -1.341275e+00 -1.575243e+00 -1.752307e+00 -1.836544e+00 -1.819153e+00 -1.717822e+00 -1.540704e+00 -1.323637e+00 -1.072261e+00 -8.117371e-01 -5.410135e-01 -2.713159e-01 
8.379734e-15 2.263357e-01 4.495045e-01 6.695006e-01 8.766883e-01 1.067717e+00 1.227951e+00 1.342123e+00 1.402069e+00 1.377493e+00 1.291033e+00 1.120471e+00 9.163641e-01 7.149086e-01 5.097785e-01 2.659743e-01 -2.860493e-15 -2.659743e-01 -5.097785e-01 -7.149086e-01 -9.163641e-01 -1.120471e+00 -1.291033e+00 -1.377493e+00 -1.402069e+00 -1.342123e+00 -1.227951e+00 -1.067717e+00 -8.766883e-01 -6.695006e-01 -4.495045e-01 -2.263357e-01 
6.986745e-15 1.840418e-01 3.646851e-01 5.414868e-01 7.057599e-01 8.570085e-01 9.810537e-01 1.075034e+00 1.124253e+00 1.123855e+00 1.071942e+00 9.621370e-01 8.188023e-01 6.168552e-01 4.077201e-01 1.965713e-01 -2.389012e-15 -1.965713e-01 -4.077201e-01 -6.168552e-01 -8.188023e-01 -9.621370e-01 -1.071942e+00 -1.123855e+00 -1.124253e+00 -1.075034e+00 -9.810537e-01 -8.570085e-01 -7.057599e-01 -5.414868e-01 -3.646851e-01 -1.840418e-01 
4.808955e-15 1.424441e-01 2.816934e-01 4.157251e-01 5.389796e-01 6.476042e-01 7.354857e-01 7.939151e-01 8.219369e-01 8.067382e-01 7.594548e-01 6.720428e-01 5.632499e-01 4.387582e-01 3.049061e-01 1.558474e-01 -1.061869e-15 -1.558474e-01 -3.049061e-01 -4.387582e-01 -5.632499e-01 -6.720428e-01 -7.594548e-01 -8.067382e-01 -8.219369e-01 -7.939151e-01 -7.354857e-01 -6.476042e-01 -5.389796e-01 -4.157251e-01 -2.816934e-01 -1.424441e-01 
3.715454e-15 1.074081e-01 2.119709e-01 3.131658e-01 4.050456e-01 4.878874e-01 5.534978e-01 6.014590e-01 6.248460e-01 6.216898e-01 5.923955e-01 5.326224e-01 4.545083e-01 3.496243e-01 2.380675e-01 1.182468e-01 -1.183544e-15 -1.182468e-01 -2.380675e-01 -3.496243e-01 -4.545083e-01 -5.326224e-01 -5.923955e-01 -6.216898e-01 -6.248460e-01 -6.014590e-01 -5.534978e-01 -4.878874e-01 -4.050456e-01 -3.131658e-01 -2.119709e-01 -1.074081e-01 
2.303334e-15 7.015797e-02 1.382864e-01 2.033467e-01 2.620464e-01 3.130572e-01 3.530747e-01 3.792016e-01 3.907414e-01 3.834994e-01 3.615719e-01 3.221548e-01 2.722028e-01 2.121926e-01 1.466105e-01 7.454472e-02 -1.065214e-15 -7.454472e-02 -1.466105e-01 -2.121926e-01 -2.722028e-01 -3.221548e-01 -3.615719e-01 -3.834994e-01 -3.907414e-01 -3.792016e-01 -3.530747e-01 -3.130572e-01 -2.620464e-01 -2.033467e-01 -1.382864e-01 -7.015797e-02 
2.326352e-15 3.983386e-02 7.815394e-02 1.158828e-01 1.489544e-01 1.799178e-01 2.030422e-01 2.212225e-01 2.292294e-01 2.288172e-01 2.182896e-01 1.970532e-01 1.688108e-01 1.308026e-01 9.003718e-02 4.502333e-02 -3.605346e-16 -4.502333e-02 -9.003718e-02 -1.308026e-01 -1.688108e-01 -1.970532e-01 -2.182896e-01 -2.288172e-01 -2.292294e-01 -2.212225e-01 -2.030422e-01 -1.799178e-01 -1.489544e-01 -1.158828e-01 -7.815394e-02 -3.983386e-02 
