# vtk DataFile Version 2.0
Comment goes here
ASCII

DATASET STRUCTURED_POINTS
FIELD FieldData 1
TIME 1 1 double
0.00350000
DIMENSIONS    32   32   1

ORIGIN    0.000   0.000   0.000
SPACING   0.03125 0.03125   1.000

POINT_DATA   1024
SCALARS uX double
LOOKUP_TABLE default

5.969313e-15 -2.604294e-03 -3.252682e-03 -5.594028e-03 -4.880625e-03 -2.844959e-03 -3.669930e-03 6.138355e-03 3.182561e-04 1.701195e-02 4.620759e-03 2.210803e-02 5.366978e-03 1.737587e-02 2.716599e-03 6.297697e-03 -5.912893e-15 -6.297697e-03 -2.716599e-03 -1.737587e-02 -5.366978e-03 -2.210803e-02 -4.620759e-03 -1.701195e-02 -3.182561e-04 -6.138355e-03 3.669930e-03 2.844959e-03 4.880625e-03 5.594028e-03 3.252682e-03 2.604294e-03 
9.901789e-15 -1.323719e-01 -2.575040e-01 -3.815876e-01 -4.855213e-01 -5.820281e-01 -6.504065e-01 -6.983561e-01 -7.184148e-01 -7.037835e-01 -6.703503e-01 -5.957379e-01 -5.140133e-01 -3.958610e-01 -2.779037e-01 -1.385205e-01 -1.558606e-14 1.385205e-01 2.779037e-01 3.958610e-01 5.140133e-01 5.957379e-01 6.703503e-01 7.037835e-01 7.184148e-01 6.983561e-01 6.504065e-01 5.820281e-01 4.855213e-01 3.815876e-01 2.575040e-01 1.323719e-01 
3.017865e-15 -2.681873e-01 -5.245521e-01 -7.770867e-01 -9.943924e-01 -1.197085e+00 -1.343673e+00 -1.456248e+00 -1.500861e+00 -1.491079e+00 -1.417858e+00 -1.282173e+00 -1.099372e+00 -8.626737e-01 -5.986834e-01 -3.037216e-01 -1.165865e-14 3.037216e-01 5.986834e-01 8.626737e-01 1.099372e+00 1.282173e+00 1.417858e+00 1.491079e+00 1.500861e+00 1.456248e+00 1.343673e+00 1.197085e+00 9.943924e-01 7.770867e-01 5.245521e-01 2.681873e-01 
1.016873e-14 -4.092861e-01 -8.010774e-01 -1.189347e+00 -1.523609e+00 -1.840865e+00 -2.067066e+00 -2.249781e+00 -2.315276e+00 -2.308822e+00 -2.187528e+00 -1.985092e+00 -1.693512e+00 -1.333777e+00 -9.204918e-01 -4.690417e-01 -1.054411e-14 4.690417e-01 9.204918e-01 1.333777e+00 1.693512e+00 1.985092e+00 2.187528e+00 2.308822e+00 2.315276e+00 2.249781e+00 2.067066e+00 1.840865e+00 1.523609e+00 1.189347e+00 8.010774e-01 4.092861e-01 
7.167297e-15 -5.612919e-01 -1.100528e+00 -1.637585e+00 -2.104359e+00 -2.552209e+00 -2.875627e+00 -3.142874e+00 -3.242260e+00 -3.242834e+00 -3.076044e+00 -2.797042e+00 -2.386640e+00 -1.882258e+00 -1.298335e+00 -6.622891e-01 -8.897412e-15 6.622891e-01 1.298335e+00 1.882258e+00 2.386640e+00 2.797042e+00 3.076044e+00 3.242834e+00 3.242260e+00 3.142874e+00 2.875627e+00 2.552209e+00 2.104359e+00 1.637585e+00 1.100528e+00 5.612919e-01 
1.183712e-14 -7.247375e-01 -1.423110e+00 -2.125716e+00 -2.740602e+00 -3.342310e+00 -3.778793e+00 -4.150866e+00 -4.288235e+00 -4.296507e+00 -4.071298e+00 -3.701944e+00 -3.152259e+00 -2.485032e+00 -1.710621e+00 -8.728767e-01 -2.146394e-14 8.728767e-01 1.710621e+00 2.485032e+00 3.152259e+00 3.701944e+00 4.071298e+00 4.296507e+00 4.288235e+00 4.150866e+00 3.778793e+00 3.342310e+00 2.740602e+00 2.125716e+00 1.423110e+00 7.247375e-01 
1.399425e-14 -9.007659e-01 -1.773202e+00 -2.659947e+00 -3.446777e+00 -4.231340e+00 -4.811957e+00 -5.319736e+00 -5.516886e+00 -5.540271e+00 -5.257985e+00 -4.780798e+00 -4.073123e+00 -3.206938e+00 -2.208080e+00 -1.125447e+00 -3.342038e-14 1.125447e+00 2.208080e+00 3.206938e+00 4.073123e+00 4.780798e+00 5.257985e+00 5.540271e+00 5.516886e+00 5.319736e+00 4.811957e+00 4.231340e+00 3.446777e+00 2.659947e+00 1.773202e+00 9.007659e-01 
1.188522e-14 -1.088692e+00 -2.150660e+00 -3.246561e+00 -4.236637e+00 -5.251771e+00 -6.018744e+00 -6.713787e+00 -6.988327e+00 -7.024277e+00 -6.658173e+00 -6.041170e+00 -5.134341e+00 -4.031700e+00 -2.769962e+00 -1.410424e+00 -4.401686e-14 1.410424e+00 2.769962e+00 4.031700e+00 5.134341e+00 6.041170e+00 6.658173e+00 7.024277e+00 6.988327e+00 6.713787e+00 6.018744e+00 5.251771e+00 4.236637e+00 3.246561e+00 2.150660e+00 1.088692e+00 
1.296193e-14 -1.282712e+00 -2.545736e+00 -3.870552e+00 -5.097646e+00 -6.393596e+00 -7.407391e+00 -8.361859e+00 -8.757408e+00 -8.818300e+00 -8.367407e+00 -7.578504e+00 -6.440207e+00 -5.038846e+00 -3.460570e+00 -1.757930e+00 -5.175475e-14 1.757930e+00 3.460570e+00 5.038846e+00 6.440207e+00 7.578504e+00 8.367407e+00 8.818300e+00 8.757408e+00 8.361859e+00 7.407391e+00 6.393596e+00 5.097646e+00 3.870552e+00 2.545736e+00 1.282712e+00 
5.157950e-15 -1.471955e+00 -2.942808e+00 -4.519925e+00 -6.036342e+00 -7.704589e+00 -9.068997e+00 -1.042255e+01 -1.099258e+01 -1.104631e+01 -1.044113e+01 -9.406327e+00 -7.958752e+00 -6.190689e+00 -4.235026e+00 -2.147946e+00 -6.731358e-14 2.147946e+00 4.235026e+00 6.190689e+00 7.958752e+00 9.406327e+00 1.044113e+01 1.104631e+01 1.099258e+01 1.042255e+01 9.068997e+00 7.704589e+00 6.036342e+00 4.519925e+00 2.942808e+00 1.471955e+00 
1.143031e-14 -1.642246e+00 -3.313174e+00 -5.146890e+00 -6.992532e+00 -9.111570e+00 -1.095574e+01 -1.289749e+01 -1.374502e+01 -1.379059e+01 -1.301478e+01 -1.166916e+01 -9.858901e+00 -7.609557e+00 -5.191576e+00 -2.624993e+00 -9.281411e-14 2.624993e+00 5.191576e+00 7.609557e+00 9.858901e+00 1.166916e+01 1.301478e+01 1.379059e+01 1.374502e+01 1.289749e+01 1.095574e+01 9.111570e+00 6.992532e+00 5.146890e+00 3.313174e+00 1.642246e+00 
4.709054e-15 -1.750048e+00 -3.584196e+00 -5.653961e+00 -7.897616e+00 -1.062426e+01 -1.321465e+01 -1.617311e+01 -1.744272e+01 -1.727565e+01 -1.614809e+01 -1.431327e+01 -1.201803e+01 -9.168686e+00 -6.203465e+00 -3.136982e+00 -1.222231e-13 3.136982e+00 6.203465e+00 9.168686e+00 1.201803e+01 1.431327e+01 1.614809e+01 1.727565e+01 1.744272e+01 1.617311e+01 1.321465e+01 1.062426e+01 7.897616e+00 5.653961e+00 3.584196e+00 1.750048e+00 
-7.777772e-15 -1.780524e+00 -3.717106e+00 -5.963195e+00 -8.616355e+00 -1.200878e+01 -1.560815e+01 -2.005337e+01 -2.187930e+01 -2.142840e+01 -2.000099e+01 -1.749592e+01 -1.470287e+01 -1.103702e+01 -7.395340e+00 -3.738677e+00 -1.468610e-13 3.738677e+00 7.395340e+00 1.103702e+01 1.470287e+01 1.749592e+01 2.000099e+01 2.142840e+01 2.187930e+01 2.005337e+01 1.560815e+01 1.200878e+01 8.616355e+00 5.963195e+00 3.717106e+00 1.780524e+00 
-2.297714e-14 -1.621919e+00 -3.497246e+00 -5.703525e+00 -8.741107e+00 -1.287704e+01 -1.815403e+01 -2.520723e+01 -2.692783e+01 -2.602972e+01 -2.406108e+01 -2.054686e+01 -1.725866e+01 -1.270396e+01 -8.311557e+00 -4.269804e+00 -1.827929e-13 4.269804e+00 8.311557e+00 1.270396e+01 1.725866e+01 2.054686e+01 2.406108e+01 2.602972e+01 2.692783e+01 2.520723e+01 1.815403e+01 1.287704e+01 8.741107e+00 5.703525e+00 3.497246e+00 1.621919e+00 
-3.991449e-14 -1.293753e+00 -2.939220e+00 -4.907467e+00 -8.286565e+00 -1.326878e+01 -2.074257e+01 -2.849475e+01 -2.749868e+01 -2.955958e+01 -2.661928e+01 -2.288269e+01 -1.920102e+01 -1.398524e+01 -8.700606e+00 -4.648199e+00 -2.163681e-13 4.648199e+00 8.700606e+00 1.398524e+01 1.920102e+01 2.288269e+01 2.661928e+01 2.955958e+01 2.749868e+01 2.849475e+01 2.074257e+01 1.326878e+01 8.286565e+00 4.907467e+00 2.939220e+00 1.293753e+00 
-4.803315e-14 -6.593845e-01 -1.672364e+00 -2.572491e+00 -5.023604e+00 -7.440619e+00 -1.462033e+01 -2.002434e+01 -2.028993e+01 -2.687269e+01 -2.181322e+01 -2.114226e+01 -1.693742e+01 -1.307316e+01 -7.139800e+00 -4.526733e+00 -2.340998e-13 4.526733e+00 7.139800e+00 1.307316e+01 1.693742e+01 2.114226e+01 2.181322e+01 2.687269e+01 2.028993e+01 2.002434e+01 1.462033e+01 7.440619e+00 5.023604e+00 2.572491e+00 1.672364e+00 6.593845e-01 
-7.537471e-14 2.016531e-01 2.034403e-01 9.636894e-01 8.525071e-01 3.736299e+00 2.174667e+00 3.936613e+00 9.488515e-02 -7.620277e+00 -9.294284e+00 -1.408521e+01 -1.082020e+01 -1.071253e+01 -5.198662e+00 -4.181299e+00 -1.616176e-13 4.181299e+00 5.198662e+00 1.071253e+01 1.082020e+01 1.408521e+01 9.294284e+00 7.620277e+00 -9.488515e-02 -3.936613e+00 -2.174667e+00 -3.736299e+00 -8.525071e-01 -9.636894e-01 -2.034403e-01 -2.016531e-01 
-8.002512e-14 9.050059e-01 1.869954e+00 3.566119e+00 5.601993e+00 1.033612e+01 1.573617e+01 2.471981e+01 2.442774e+01 2.357611e+01 1.396115e+01 4.555889e+00 -4.871563e-01 -6.378148e+00 -6.384191e+00 -4.158925e+00 6.081319e-14 4.158925e+00 6.384191e+00 6.378148e+00 4.871563e-01 -4.555889e+00 -1.396115e+01 -2.357611e+01 -2.442774e+01 -2.471981e+01 -1.573617e+01 -1.033612e+01 -5.601993e+00 -3.566119e+00 -1.869954e+00 -9.050059e-01 
-7.406834e-14 1.364911e+00 2.946538e+00 4.909783e+00 7.912109e+00 1.158262e+01 1.921440e+01 2.688098e+01 2.947993e+01 3.523063e+01 3.341509e+01 3.165188e+01 2.433123e+01 1.538471e+01 5.880873e+00 2.930538e+00 2.445059e-13 -2.930538e+00 -5.880873e+00 -1.538471e+01 -2.433123e+01 -3.165188e+01 -3.341509e+01 -3.523063e+01 -2.947993e+01 -2.688098e+01 -1.921440e+01 -1.158262e+01 -7.912109e+00 -4.909783e+00 -2.946538e+00 -1.364911e+00 
-7.846003e-14 1.620717e+00 3.495903e+00 5.526400e+00 8.614400e+00 1.153103e+01 1.779679e+01 2.213634e+01 2.404525e+01 2.798284e+01 2.967941e+01 3.340827e+01 3.387209e+01 3.347693e+01 2.620316e+01 1.557939e+01 1.854285e-13 -1.557939e+01 -2.620316e+01 -3.347693e+01 -3.387209e+01 -3.340827e+01 -2.967941e+01 -2.798284e+01 -2.404525e+01 -2.213634e+01 -1.779679e+01 -1.153103e+01 -8.614400e+00 -5.526400e+00 -3.495903e+00 -1.620717e+00 
-6.413014e-14 1.705188e+00 3.653905e+00 5.598452e+00 8.432037e+00 1.089079e+01 1.537322e+01 1.841408e+01 2.027441e+01 2.245764e+01 2.146730e+01 2.044117e+01 1.885353e+01 1.943669e+01 1.713957e+01 1.139351e+01 4.613135e-14 -1.139351e+01 -1.713957e+01 -1.943669e+01 -1.885353e+01 -2.044117e+01 -2.146730e+01 -2.245764e+01 -2.027441e+01 -1.841408e+01 -1.537322e+01 -1.089079e+01 -8.432037e+00 -5.598452e+00 -3.653905e+00 -1.705188e+00 
-5.687098e-14 1.663940e+00 3.515759e+00 5.300679e+00 7.695365e+00 9.731255e+00 1.277020e+01 1.492376e+01 1.631875e+01 1.779409e+01 1.739404e+01 1.617612e+01 1.128686e+01 5.602360e+00 4.803748e-01 -2.881089e-01 6.073849e-14 2.881089e-01 -4.803748e-01 -5.602360e+00 -1.128686e+01 -1.617612e+01 -1.739404e+01 -1.779409e+01 -1.631875e+01 -1.492376e+01 -1.277020e+01 -9.731255e+00 -7.695365e+00 -5.300679e+00 -3.515759e+00 -1.663940e+00 
-4.150759e-14 1.557536e+00 3.254197e+00 4.855847e+00 6.859951e+00 8.564335e+00 1.073057e+01 1.236880e+01 1.335482e+01 1.424751e+01 1.370456e+01 1.319764e+01 1.114530e+01 8.319294e+00 3.877536e+00 1.024836e+00 5.216457e-14 -1.024836e+00 -3.877536e+00 -8.319294e+00 -1.114530e+01 -1.319764e+01 -1.370456e+01 -1.424751e+01 -1.335482e+01 -1.236880e+01 -1.073057e+01 -8.564335e+00 -6.859951e+00 -4.855847e+00 -3.254197e+00 -1.557536e+00 
-4.141964e-14 1.395641e+00 2.880161e+00 4.272084e+00 5.893446e+00 7.279857e+00 8.833097e+00 1.004562e+01 1.075124e+01 1.134170e+01 1.089635e+01 1.029939e+01 8.754255e+00 7.466269e+00 5.121928e+00 2.663975e+00 4.172677e-14 -2.663975e+00 -5.121928e+00 -7.466269e+00 -8.754255e+00 -1.029939e+01 -1.089635e+01 -1.134170e+01 -1.075124e+01 -1.004562e+01 -8.833097e+00 -7.279857e+00 -5.893446e+00 -4.272084e+00 -2.880161e+00 -1.395641e+00 
-3.155315e-14 1.226130e+00 2.505698e+00 3.703510e+00 5.018346e+00 6.155930e+00 7.300011e+00 8.219627e+00 8.687262e+00 9.049540e+00 8.591564e+00 8.063501e+00 6.597118e+00 5.047307e+00 3.092734e+00 1.567560e+00 3.429240e-14 -1.567560e+00 -3.092734e+00 -5.047307e+00 -6.597118e+00 -8.063501e+00 -8.591564e+00 -9.049540e+00 -8.687262e+00 -8.219627e+00 -7.300011e+00 -6.155930e+00 -5.018346e+00 -3.703510e+00 -2.505698e+00 -1.226130e+00 
-2.380856e-14 1.042233e+00 2.111592e+00 3.114037e+00 4.161593e+00 5.075952e+00 5.930441e+00 6.627387e+00 6.973183e+00 7.227567e+00 6.896602e+00 6.509502e+00 5.521580e+00 4.546217e+00 3.012817e+00 1.535271e+00 2.017536e-14 -1.535271e+00 -3.012817e+00 -4.546217e+00 -5.521580e+00 -6.509502e+00 -6.896602e+00 -7.227567e+00 -6.973183e+00 -6.627387e+00 -5.930441e+00 -5.075952e+00 -4.161593e+00 -3.114037e+00 -2.111592e+00 -1.042233e+00 
-2.039660e-14 8.698443e-01 1.749441e+00 2.577061e+00 3.404346e+00 4.134948e+00 4.766346e+00 5.289174e+00 5.506109e+00 5.653848e+00 5.331603e+00 4.971130e+00 4.126219e+00 3.285678e+00 2.159018e+00 1.124849e+00 2.049115e-14 -1.124849e+00 -2.159018e+00 -3.285678e+00 -4.126219e+00 -4.971130e+00 -5.331603e+00 -5.653848e+00 -5.506109e+00 -5.289174e+00 -4.766346e+00 -4.134948e+00 -3.404346e+00 -2.577061e+00 -1.749441e+00 -8.698443e-01 
-2.008087e-14 7.018352e-01 1.404270e+00 2.067104e+00 2.710828e+00 3.283648e+00 3.760163e+00 4.158721e+00 4.324946e+00 4.436959e+00 4.208986e+00 3.950260e+00 3.337744e+00 2.721716e+00 1.826376e+00 9.514158e-01 2.671262e-14 -9.514158e-01 -1.826376e+00 -2.721716e+00 -3.337744e+00 -3.950260e+00 -4.208986e+00 -4.436959e+00 -4.324946e+00 -4.158721e+00 -3.760163e+00 -3.283648e+00 -2.710828e+00 -2.067104e+00 -1.404270e+00 -7.018352e-01 
-9.682128e-15 5.461012e-01 1.087107e+00 1.599909e+00 2.082319e+00 2.516208e+00 2.855795e+00 3.144265e+00 3.241339e+00 3.304186e+00 3.103352e+00 2.887938e+00 2.410676e+00 1.940660e+00 1.295924e+00 6.773799e-01 1.468862e-14 -6.773799e-01 -1.295924e+00 -1.940660e+00 -2.410676e+00 -2.887938e+00 -3.103352e+00 -3.304186e+00 -3.241339e+00 -3.144265e+00 -2.855795e+00 -2.516208e+00 -2.082319e+00 -1.599909e+00 -1.087107e+00 -5.461012e-01 
-2.524679e-15 4.000229e-01 7.946674e-01 1.169340e+00 1.517844e+00 1.832986e+00 2.076671e+00 2.286241e+00 2.359870e+00 2.410693e+00 2.275898e+00 2.131258e+00 1.795879e+00 1.462536e+00 9.853001e-01 5.168016e-01 7.880182e-15 -5.168016e-01 -9.853001e-01 -1.462536e+00 -1.795879e+00 -2.131258e+00 -2.275898e+00 -2.410693e+00 -2.359870e+00 -2.286241e+00 -2.076671e+00 -1.832986e+00 -1.517844e+00 -1.169340e+00 -7.946674e-01 -4.000229e-01 
-5.630013e-15 2.607210e-01 5.164459e-01 7.600637e-01 9.818926e-01 1.185074e+00 1.333754e+00 1.466641e+00 1.501356e+00 1.530952e+00 1.430542e+00 1.336130e+00 1.112898e+00 9.033561e-01 6.034772e-01 3.175886e-01 1.536865e-15 -3.175886e-01 -6.034772e-01 -9.033561e-01 -1.112898e+00 -1.336130e+00 -1.430542e+00 -1.530952e+00 -1.501356e+00 -1.466641e+00 -1.333754e+00 -1.185074e+00 -9.818926e-01 -7.600637e-01 -5.164459e-01 -2.607210e-01 
8.051628e-15 1.289991e-01 2.566607e-01 3.773502e-01 4.895708e-01 5.926357e-01 6.694906e-01 7.421323e-01 7.623398e-01 7.877948e-01 7.384380e-01 7.019811e-01 5.857454e-01 4.849802e-01 3.230641e-01 1.725110e-01 -1.792344e-14 -1.725110e-01 -3.230641e-01 -4.849802e-01 -5.857454e-01 -7.019811e-01 -7.384380e-01 -7.877948e-01 -7.623398e-01 -7.421323e-01 -6.694906e-01 -5.926357e-01 -4.895708e-01 -3.773502e-01 -2.566607e-01 -1.289991e-01 
