# vtk DataFile Version 2.0
Comment goes here
ASCII

DATASET STRUCTURED_POINTS
FIELD FieldData 1
TIME 1 1 double
0.00100000
DIMENSIONS    32   32   1

ORIGIN    0.000   0.000   0.000
SPACING   0.03125 0.03125   1.000

POINT_DATA   1024
SCALARS uX double
LOOKUP_TABLE default

-7.858630e-16 2.121754e-02 4.094512e-02 6.308377e-02 8.038914e-02 1.020217e-01 1.146972e-01 1.324072e-01 1.368154e-01 1.451538e-01 1.376015e-01 1.316872e-01 1.114810e-01 9.146216e-02 6.262355e-02 3.285486e-02 -1.230603e-15 -3.285486e-02 -6.262355e-02 -9.146216e-02 -1.114810e-01 -1.316872e-01 -1.376015e-01 -1.451538e-01 -1.368154e-01 -1.324072e-01 -1.146972e-01 -1.020217e-01 -8.038914e-02 -6.308377e-02 -4.094512e-02 -2.121754e-02 
-2.390235e-15 -3.060934e-02 -6.126961e-02 -8.684268e-02 -1.125982e-01 -1.280063e-01 -1.439473e-01 -1.451658e-01 -1.478523e-01 -1.349541e-01 -1.249982e-01 -1.038590e-01 -8.638543e-02 -6.354202e-02 -4.345298e-02 -2.131990e-02 -2.091664e-15 2.131990e-02 4.345298e-02 6.354202e-02 8.638543e-02 1.038590e-01 1.249982e-01 1.349541e-01 1.478523e-01 1.451658e-01 1.439473e-01 1.280063e-01 1.125982e-01 8.684268e-02 6.126961e-02 3.060934e-02 
-1.958122e-15 -9.513140e-02 -1.886791e-01 -2.749410e-01 -3.560034e-01 -4.211468e-01 -4.768461e-01 -5.074284e-01 -5.252528e-01 -5.123748e-01 -4.867767e-01 -4.332486e-01 -3.699863e-01 -2.871328e-01 -1.984214e-01 -1.001548e-01 -2.742988e-15 1.001548e-01 1.984214e-01 2.871328e-01 3.699863e-01 4.332486e-01 4.867767e-01 5.123748e-01 5.252528e-01 5.074284e-01 4.768461e-01 4.211468e-01 3.560034e-01 2.749410e-01 1.886791e-01 9.513140e-02 
-3.011208e-15 -1.507632e-01 -2.986571e-01 -4.372026e-01 -5.662043e-01 -6.735156e-01 -7.630586e-01 -8.161045e-01 -8.443036e-01 -8.260979e-01 -7.821481e-01 -6.973210e-01 -5.922842e-01 -4.603859e-01 -3.165780e-01 -1.602113e-01 -4.397730e-15 1.602113e-01 3.165780e-01 4.603859e-01 5.922842e-01 6.973210e-01 7.821481e-01 8.260979e-01 8.443036e-01 8.161045e-01 7.630586e-01 6.735156e-01 5.662043e-01 4.372026e-01 2.986571e-01 1.507632e-01 
-5.004956e-15 -2.219347e-01 -4.396620e-01 -6.465715e-01 -8.388840e-01 -1.004239e+00 -1.140830e+00 -1.228597e+00 -1.274203e+00 -1.253979e+00 -1.189467e+00 -1.065179e+00 -9.062274e-01 -7.065925e-01 -4.863212e-01 -2.464955e-01 -4.620262e-15 2.464955e-01 4.863212e-01 7.065925e-01 9.062274e-01 1.065179e+00 1.189467e+00 1.253979e+00 1.274203e+00 1.228597e+00 1.140830e+00 1.004239e+00 8.388840e-01 6.465715e-01 4.396620e-01 2.219347e-01 
-6.501727e-15 -2.860020e-01 -5.671515e-01 -8.376800e-01 -1.090496e+00 -1.312731e+00 -1.497770e+00 -1.619624e+00 -1.684152e+00 -1.656029e+00 -1.567017e+00 -1.398968e+00 -1.184042e+00 -9.204887e-01 -6.305878e-01 -3.193582e-01 -5.226796e-15 3.193582e-01 6.305878e-01 9.204887e-01 1.184042e+00 1.398968e+00 1.567017e+00 1.656029e+00 1.684152e+00 1.619624e+00 1.497770e+00 1.312731e+00 1.090496e+00 8.376800e-01 5.671515e-01 2.860020e-01 
-7.873326e-15 -3.679742e-01 -7.310942e-01 -1.085181e+00 -1.419061e+00 -1.720648e+00 -1.973408e+00 -2.148735e+00 -2.241266e+00 -2.209787e+00 -2.090640e+00 -1.866889e+00 -1.579097e+00 -1.227529e+00 -8.406047e-01 -4.257125e-01 -8.848566e-15 4.257125e-01 8.406047e-01 1.227529e+00 1.579097e+00 1.866889e+00 2.090640e+00 2.209787e+00 2.241266e+00 2.148735e+00 1.973408e+00 1.720648e+00 1.419061e+00 1.085181e+00 7.310942e-01 3.679742e-01 
-1.330944e-14 -4.415644e-01 -8.794451e-01 -1.314770e+00 -1.730839e+00 -2.120058e+00 -2.453339e+00 -2.693563e+00 -2.827490e+00 -2.779492e+00 -2.617767e+00 -2.322127e+00 -1.946352e+00 -1.503316e+00 -1.021789e+00 -5.161196e-01 -1.252074e-14 5.161196e-01 1.021789e+00 1.503316e+00 1.946352e+00 2.322127e+00 2.617767e+00 2.779492e+00 2.827490e+00 2.693563e+00 2.453339e+00 2.120058e+00 1.730839e+00 1.314770e+00 8.794451e-01 4.415644e-01 
-1.511642e-14 -5.327636e-01 -1.065669e+00 -1.605560e+00 -2.132911e+00 -2.644461e+00 -3.092541e+00 -3.435828e+00 -3.626801e+00 -3.569675e+00 -3.352658e+00 -2.965034e+00 -2.478796e+00 -1.910800e+00 -1.296899e+00 -6.544776e-01 -1.786769e-14 6.544776e-01 1.296899e+00 1.910800e+00 2.478796e+00 2.965034e+00 3.352658e+00 3.569675e+00 3.626801e+00 3.435828e+00 3.092541e+00 2.644461e+00 2.132911e+00 1.605560e+00 1.065669e+00 5.327636e-01 
-2.576187e-14 -6.070497e-01 -1.219771e+00 -1.859768e+00 -2.500030e+00 -3.159075e+00 -3.757162e+00 -4.254736e+00 -4.554582e+00 -4.446645e+00 -4.130363e+00 -3.606996e+00 -2.962049e+00 -2.254742e+00 -1.510398e+00 -7.580073e-01 -2.503255e-14 7.580073e-01 1.510398e+00 2.254742e+00 2.962049e+00 3.606996e+00 4.130363e+00 4.446645e+00 4.554582e+00 4.254736e+00 3.757162e+00 3.159075e+00 2.500030e+00 1.859768e+00 1.219771e+00 6.070497e-01 
-3.055174e-14 -6.902950e-01 -1.398681e+00 -2.159916e+00 -2.954501e+00 -3.815978e+00 -4.637300e+00 -5.379644e+00 -5.820523e+00 -5.669047e+00 -5.214113e+00 -4.512641e+00 -3.686157e+00 -2.795732e+00 -1.867896e+00 -9.357060e-01 -3.520957e-14 9.357060e-01 1.867896e+00 2.795732e+00 3.686157e+00 4.512641e+00 5.214113e+00 5.669047e+00 5.820523e+00 5.379644e+00 4.637300e+00 3.815978e+00 2.954501e+00 2.159916e+00 1.398681e+00 6.902950e-01 
-5.004844e-14 -7.339132e-01 -1.499566e+00 -2.358176e+00 -3.292223e+00 -4.401714e+00 -5.520459e+00 -6.717470e+00 -7.502457e+00 -7.148469e+00 -6.387633e+00 -5.405019e+00 -4.261839e+00 -3.151315e+00 -2.058278e+00 -1.019410e+00 -4.641988e-14 1.019410e+00 2.058278e+00 3.151315e+00 4.261839e+00 5.405019e+00 6.387633e+00 7.148469e+00 7.502457e+00 6.717470e+00 5.520459e+00 4.401714e+00 3.292223e+00 2.358176e+00 1.499566e+00 7.339132e-01 
-5.820419e-14 -7.587778e-01 -1.574504e+00 -2.527913e+00 -3.649342e+00 -5.081167e+00 -6.683482e+00 -8.589695e+00 -9.799623e+00 -9.220968e+00 -7.994427e+00 -6.619755e+00 -5.182698e+00 -3.822473e+00 -2.487664e+00 -1.227945e+00 -6.298027e-14 1.227945e+00 2.487664e+00 3.822473e+00 5.182698e+00 6.619755e+00 7.994427e+00 9.220968e+00 9.799623e+00 8.589695e+00 6.683482e+00 5.081167e+00 3.649342e+00 2.527913e+00 1.574504e+00 7.587778e-01 
-8.116503e-14 -7.042988e-01 -1.486232e+00 -2.437038e+00 -3.648335e+00 -5.372266e+00 -7.529875e+00 -1.104305e+01 -1.349271e+01 -1.197610e+01 -9.645849e+00 -7.712044e+00 -5.641696e+00 -3.928665e+00 -2.462029e+00 -1.188243e+00 -8.395412e-14 1.188243e+00 2.462029e+00 3.928665e+00 5.641696e+00 7.712044e+00 9.645849e+00 1.197610e+01 1.349271e+01 1.104305e+01 7.529875e+00 5.372266e+00 3.648335e+00 2.437038e+00 1.486232e+00 7.042988e-01 
-9.971386e-14 -5.756480e-01 -1.249977e+00 -2.111053e+00 -3.384069e+00 -5.391372e+00 -8.662638e+00 -1.449229e+01 -1.755394e+01 -1.480560e+01 -1.164501e+01 -8.905259e+00 -6.557641e+00 -4.643455e+00 -2.897782e+00 -1.381184e+00 -9.650603e-14 1.381184e+00 2.897782e+00 4.643455e+00 6.557641e+00 8.905259e+00 1.164501e+01 1.480560e+01 1.755394e+01 1.449229e+01 8.662638e+00 5.391372e+00 3.384069e+00 2.111053e+00 1.249977e+00 5.756480e-01 
-1.151221e-13 -3.505319e-01 -7.974814e-01 -1.312128e+00 -2.282981e+00 -3.511796e+00 -6.462005e+00 -1.008514e+01 -9.553610e+00 -1.070050e+01 -1.222956e+01 -9.252713e+00 -6.155992e+00 -3.661744e+00 -2.143728e+00 -9.921700e-01 -1.200696e-13 9.921700e-01 2.143728e+00 3.661744e+00 6.155992e+00 9.252713e+00 1.222956e+01 1.070050e+01 9.553610e+00 1.008514e+01 6.462005e+00 3.511796e+00 2.282981e+00 1.312128e+00 7.974814e-01 3.505319e-01 
-1.337453e-13 -9.043291e-03 -4.375370e-02 4.380678e-02 1.571549e-02 5.546259e-01 6.806011e-01 3.077580e+00 4.136635e+00 -4.526722e+00 -8.568219e+00 -6.478481e+00 -5.961765e+00 -4.320438e+00 -2.498830e+00 -1.026939e+00 -1.306586e-13 1.026939e+00 2.498830e+00 4.320438e+00 5.961765e+00 6.478481e+00 8.568219e+00 4.526722e+00 -4.136635e+00 -3.077580e+00 -6.806011e-01 -5.546259e-01 -1.571549e-02 -4.380678e-02 4.375370e-02 9.043291e-03 
-1.182552e-13 2.639958e-01 5.805661e-01 1.052609e+00 1.797176e+00 3.127118e+00 5.603056e+00 9.873549e+00 8.144102e+00 8.727457e-01 -1.733741e+00 -2.504991e+00 -8.511163e-01 1.003362e+00 5.852750e-01 2.131255e-02 -1.365071e-13 -2.131255e-02 -5.852750e-01 -1.003362e+00 8.511163e-01 2.504991e+00 1.733741e+00 -8.727457e-01 -8.144102e+00 -9.873549e+00 -5.603056e+00 -3.127118e+00 -1.797176e+00 -1.052609e+00 -5.805661e-01 -2.639958e-01 
-1.094709e-13 4.875383e-01 1.062440e+00 1.751152e+00 2.829317e+00 4.159150e+00 6.830397e+00 9.574680e+00 1.028095e+01 1.162165e+01 7.920017e+00 7.991605e-02 -9.432655e-01 1.374567e+00 2.223508e+00 1.616186e+00 -9.757750e-14 -1.616186e+00 -2.223508e+00 -1.374567e+00 9.432655e-01 -7.991605e-02 -7.920017e+00 -1.162165e+01 -1.028095e+01 -9.574680e+00 -6.830397e+00 -4.159150e+00 -2.829317e+00 -1.751152e+00 -1.062440e+00 -4.875383e-01 
-8.512037e-14 6.177651e-01 1.321684e+00 2.128671e+00 3.261649e+00 4.599487e+00 6.729711e+00 8.896923e+00 1.169826e+01 1.601987e+01 1.659919e+01 1.059042e+01 1.607884e+00 -3.658294e+00 -3.397971e+00 -1.465050e+00 -4.571357e-14 1.465050e+00 3.397971e+00 3.658294e+00 -1.607884e+00 -1.059042e+01 -1.659919e+01 -1.601987e+01 -1.169826e+01 -8.896923e+00 -6.729711e+00 -4.599487e+00 -3.261649e+00 -2.128671e+00 -1.321684e+00 -6.177651e-01 
-6.859383e-14 6.952475e-01 1.463366e+00 2.309629e+00 3.398872e+00 4.649530e+00 6.320733e+00 8.248302e+00 1.012346e+01 1.285026e+01 1.565330e+01 1.785048e+01 1.646404e+01 9.846671e+00 3.449774e+00 4.260655e-01 -3.645332e-14 -4.260655e-01 -3.449774e+00 -9.846671e+00 -1.646404e+01 -1.785048e+01 -1.565330e+01 -1.285026e+01 -1.012346e+01 -8.248302e+00 -6.320733e+00 -4.649530e+00 -3.398872e+00 -2.309629e+00 -1.463366e+00 -6.952475e-01 
-5.066056e-14 6.959827e-01 1.444456e+00 2.243957e+00 3.200271e+00 4.238028e+00 5.481125e+00 6.770892e+00 7.924669e+00 9.156121e+00 9.178662e+00 9.663935e+00 1.073850e+01 1.015159e+01 7.946772e+00 4.287262e+00 -6.007543e-14 -4.287262e+00 -7.946772e+00 -1.015159e+01 -1.073850e+01 -9.663935e+00 -9.178662e+00 -9.156121e+00 -7.924669e+00 -6.770892e+00 -5.481125e+00 -4.238028e+00 -3.200271e+00 -2.243957e+00 -1.444456e+00 -6.959827e-01 
-3.756846e-14 6.790953e-01 1.392271e+00 2.143115e+00 2.982997e+00 3.884894e+00 4.854604e+00 5.866713e+00 6.676181e+00 7.369571e+00 7.412371e+00 6.285528e+00 4.132442e+00 2.994172e+00 2.913899e+00 1.860173e+00 -6.218885e-14 -1.860173e+00 -2.913899e+00 -2.994172e+00 -4.132442e+00 -6.285528e+00 -7.412371e+00 -7.369571e+00 -6.676181e+00 -5.866713e+00 -4.854604e+00 -3.884894e+00 -2.982997e+00 -2.143115e+00 -1.392271e+00 -6.790953e-01 
-2.812424e-14 6.181662e-01 1.255826e+00 1.913235e+00 2.613775e+00 3.338603e+00 4.065449e+00 4.790945e+00 5.325411e+00 5.811876e+00 5.810767e+00 5.628439e+00 5.124755e+00 3.643020e+00 1.872788e+00 5.984498e-01 -3.542933e-14 -5.984498e-01 -1.872788e+00 -3.643020e+00 -5.124755e+00 -5.628439e+00 -5.810767e+00 -5.811876e+00 -5.325411e+00 -4.790945e+00 -4.065449e+00 -3.338603e+00 -2.613775e+00 -1.913235e+00 -1.255826e+00 -6.181662e-01 
-2.097361e-14 5.571658e-01 1.122761e+00 1.698968e+00 2.285955e+00 2.879297e+00 3.434927e+00 3.955993e+00 4.302497e+00 4.504347e+00 4.369821e+00 3.900321e+00 3.088159e+00 2.367039e+00 1.792687e+00 9.677721e-01 -2.799230e-14 -9.677721e-01 -1.792687e+00 -2.367039e+00 -3.088159e+00 -3.900321e+00 -4.369821e+00 -4.504347e+00 -4.302497e+00 -3.955993e+00 -3.434927e+00 -2.879297e+00 -2.285955e+00 -1.698968e+00 -1.122761e+00 -5.571658e-01 
-1.689328e-14 4.816264e-01 9.650695e-01 1.452311e+00 1.933643e+00 2.412673e+00 2.842485e+00 3.245387e+00 3.505021e+00 3.689666e+00 3.635597e+00 3.416624e+00 3.000102e+00 2.280031e+00 1.456934e+00 6.703636e-01 -1.581398e-14 -6.703636e-01 -1.456934e+00 -2.280031e+00 -3.000102e+00 -3.416624e+00 -3.635597e+00 -3.689666e+00 -3.505021e+00 -3.245387e+00 -2.842485e+00 -2.412673e+00 -1.933643e+00 -1.452311e+00 -9.650695e-01 -4.816264e-01 
-1.198319e-14 4.077542e-01 8.127614e-01 1.216169e+00 1.602832e+00 1.976696e+00 2.295721e+00 2.572100e+00 2.728071e+00 2.791066e+00 2.677366e+00 2.430846e+00 2.029186e+00 1.586130e+00 1.123190e+00 5.790884e-01 -1.411960e-14 -5.790884e-01 -1.123190e+00 -1.586130e+00 -2.029186e+00 -2.430846e+00 -2.677366e+00 -2.791066e+00 -2.728071e+00 -2.572100e+00 -2.295721e+00 -1.976696e+00 -1.602832e+00 -1.216169e+00 -8.127614e-01 -4.077542e-01 
-9.093984e-15 3.376725e-01 6.708384e-01 1.001784e+00 1.313349e+00 1.614597e+00 1.866140e+00 2.088819e+00 2.216818e+00 2.285370e+00 2.224935e+00 2.065511e+00 1.793561e+00 1.401348e+00 9.489367e-01 4.696295e-01 -9.035047e-15 -4.696295e-01 -9.489367e-01 -1.401348e+00 -1.793561e+00 -2.065511e+00 -2.224935e+00 -2.285370e+00 -2.216818e+00 -2.088819e+00 -1.866140e+00 -1.614597e+00 -1.313349e+00 -1.001784e+00 -6.708384e-01 -3.376725e-01 
-5.985717e-15 2.654148e-01 5.254064e-01 7.811745e-01 1.016777e+00 1.239048e+00 1.416927e+00 1.564550e+00 1.636782e+00 1.657200e+00 1.581963e+00 1.444351e+00 1.224681e+00 9.657098e-01 6.713261e-01 3.435180e-01 -5.939360e-15 -3.435180e-01 -6.713261e-01 -9.657098e-01 -1.224681e+00 -1.444351e+00 -1.581963e+00 -1.657200e+00 -1.636782e+00 -1.564550e+00 -1.416927e+00 -1.239048e+00 -1.016777e+00 -7.811745e-01 -5.254064e-01 -2.654148e-01 
-3.146718e-15 2.049631e-01 4.049560e-01 6.025865e-01 7.828156e-01 9.551563e-01 1.091935e+00 1.209938e+00 1.271047e+00 1.297346e+00 1.253533e+00 1.158721e+00 1.001740e+00 7.917250e-01 5.449438e-01 2.757133e-01 -3.946516e-15 -2.757133e-01 -5.449438e-01 -7.917250e-01 -1.001740e+00 -1.158721e+00 -1.253533e+00 -1.297346e+00 -1.271047e+00 -1.209938e+00 -1.091935e+00 -9.551563e-01 -7.828156e-01 -6.025865e-01 -4.049560e-01 -2.049631e-01 
-2.672900e-15 1.381345e-01 2.720686e-01 4.040367e-01 5.219181e-01 6.337484e-01 7.184370e-01 7.898936e-01 8.202217e-01 8.288972e-01 7.888712e-01 7.233550e-01 6.156472e-01 4.884019e-01 3.374121e-01 1.729565e-01 -5.266854e-15 -1.729565e-01 -3.374121e-01 -4.884019e-01 -6.156472e-01 -7.233550e-01 -7.888712e-01 -8.288972e-01 -8.202217e-01 -7.898936e-01 -7.184370e-01 -6.337484e-01 -5.219181e-01 -4.040367e-01 -2.720686e-01 -1.381345e-01 
-1.361449e-15 8.456065e-02 1.661782e-01 2.484510e-01 3.210284e-01 3.935012e-01 4.477160e-01 4.983977e-01 5.218324e-01 5.352977e-01 5.163930e-01 4.803846e-01 4.152095e-01 3.314125e-01 2.291643e-01 1.171589e-01 -3.731796e-15 -1.171589e-01 -2.291643e-01 -3.314125e-01 -4.152095e-01 -4.803846e-01 -5.163930e-01 -5.352977e-01 -5.218324e-01 -4.983977e-01 -4.477160e-01 -3.935012e-01 -3.210284e-01 -2.484510e-01 -1.661782e-01 -8.456065e-02 
