# vtk DataFile Version 2.0
Comment goes here
ASCII

DATASET STRUCTURED_POINTS
FIELD FieldData 1
TIME 1 1 double
0.00300000
DIMENSIONS    32   32   1

ORIGIN    0.000   0.000   0.000
SPACING   0.03125 0.03125   1.000

POINT_DATA   1024
SCALARS uY double
LOOKUP_TABLE default

-5.724543e+00 -5.816016e+00 -5.972978e+00 -6.305110e+00 -6.695531e+00 -7.235077e+00 -7.817568e+00 -8.499357e+00 -9.200327e+00 -9.925988e+00 -1.064115e+01 -1.129218e+01 -1.190298e+01 -1.236513e+01 -1.276412e+01 -1.295392e+01 -1.306917e+01 -1.295392e+01 -1.276412e+01 -1.236513e+01 -1.190298e+01 -1.129218e+01 -1.064115e+01 -9.925988e+00 -9.200327e+00 -8.499357e+00 -7.817568e+00 -7.235077e+00 -6.695531e+00 -6.305110e+00 -5.972978e+00 -5.816016e+00 
-5.700615e+00 -5.793725e+00 -5.952791e+00 -6.289148e+00 -6.686101e+00 -7.231128e+00 -7.823650e+00 -8.510381e+00 -9.221178e+00 -9.949114e+00 -1.066870e+01 -1.131869e+01 -1.192677e+01 -1.238722e+01 -1.277934e+01 -1.297090e+01 -1.308043e+01 -1.297090e+01 -1.277934e+01 -1.238722e+01 -1.192677e+01 -1.131869e+01 -1.066870e+01 -9.949114e+00 -9.221178e+00 -8.510381e+00 -7.823650e+00 -7.231128e+00 -6.686101e+00 -6.289148e+00 -5.952791e+00 -5.793725e+00 
-5.512716e+00 -5.608862e+00 -5.774872e+00 -6.123985e+00 -6.539949e+00 -7.108547e+00 -7.733412e+00 -8.453910e+00 -9.206358e+00 -9.972937e+00 -1.073310e+01 -1.141879e+01 -1.205782e+01 -1.254534e+01 -1.295430e+01 -1.316040e+01 -1.327071e+01 -1.316040e+01 -1.295430e+01 -1.254534e+01 -1.205782e+01 -1.141879e+01 -1.073310e+01 -9.972937e+00 -9.206358e+00 -8.453910e+00 -7.733412e+00 -7.108547e+00 -6.539949e+00 -6.123985e+00 -5.774872e+00 -5.608862e+00 
-5.228941e+00 -5.330907e+00 -5.506112e+00 -5.876146e+00 -6.319882e+00 -6.927075e+00 -7.601616e+00 -8.378002e+00 -9.197393e+00 -1.002811e+01 -1.085594e+01 -1.160025e+01 -1.229218e+01 -1.282225e+01 -1.326063e+01 -1.348758e+01 -1.360165e+01 -1.348758e+01 -1.326063e+01 -1.282225e+01 -1.229218e+01 -1.160025e+01 -1.085594e+01 -1.002811e+01 -9.197393e+00 -8.378002e+00 -7.601616e+00 -6.927075e+00 -6.319882e+00 -5.876146e+00 -5.506112e+00 -5.330907e+00 
-4.776661e+00 -4.886731e+00 -5.073931e+00 -5.473533e+00 -5.956066e+00 -6.621220e+00 -7.369794e+00 -8.234616e+00 -9.158441e+00 -1.009277e+01 -1.102682e+01 -1.186449e+01 -1.264076e+01 -1.323712e+01 -1.372467e+01 -1.398229e+01 -1.410538e+01 -1.398229e+01 -1.372467e+01 -1.323712e+01 -1.264076e+01 -1.186449e+01 -1.102682e+01 -1.009277e+01 -9.158441e+00 -8.234616e+00 -7.369794e+00 -6.621220e+00 -5.956066e+00 -5.473533e+00 -5.073931e+00 -4.886731e+00 
-4.202710e+00 -4.322754e+00 -4.522667e+00 -4.957398e+00 -5.485690e+00 -6.223004e+00 -7.065699e+00 -8.046408e+00 -9.111012e+00 -1.018517e+01 -1.126572e+01 -1.223215e+01 -1.312547e+01 -1.381401e+01 -1.436916e+01 -1.466942e+01 -1.480455e+01 -1.466942e+01 -1.436916e+01 -1.381401e+01 -1.312547e+01 -1.223215e+01 -1.126572e+01 -1.018517e+01 -9.111012e+00 -8.046408e+00 -7.065699e+00 -6.223004e+00 -5.485690e+00 -4.957398e+00 -4.522667e+00 -4.322754e+00 
-3.446142e+00 -3.578024e+00 -3.788206e+00 -4.262372e+00 -4.840729e+00 -5.668181e+00 -6.631418e+00 -7.770171e+00 -9.030527e+00 -1.029860e+01 -1.157471e+01 -1.270914e+01 -1.375363e+01 -1.455655e+01 -1.519837e+01 -1.554974e+01 -1.570170e+01 -1.554974e+01 -1.519837e+01 -1.455655e+01 -1.375363e+01 -1.270914e+01 -1.157471e+01 -1.029860e+01 -9.030527e+00 -7.770171e+00 -6.631418e+00 -5.668181e+00 -4.840729e+00 -4.262372e+00 -3.788206e+00 -3.578024e+00 
-2.536214e+00 -2.679823e+00 -2.895890e+00 -3.407682e+00 -4.034605e+00 -4.961198e+00 -6.065016e+00 -7.399060e+00 -8.915090e+00 -1.043405e+01 -1.197075e+01 -1.332958e+01 -1.457494e+01 -1.553241e+01 -1.628573e+01 -1.670652e+01 -1.687784e+01 -1.670652e+01 -1.628573e+01 -1.553241e+01 -1.457494e+01 -1.332958e+01 -1.197075e+01 -1.043405e+01 -8.915090e+00 -7.399060e+00 -6.065016e+00 -4.961198e+00 -4.034605e+00 -3.407682e+00 -2.895890e+00 -2.679823e+00 
-1.431600e+00 -1.585307e+00 -1.792091e+00 -2.330065e+00 -2.987492e+00 -4.019081e+00 -5.285495e+00 -6.878078e+00 -8.756466e+00 -1.062170e+01 -1.248740e+01 -1.411694e+01 -1.560053e+01 -1.673069e+01 -1.761368e+01 -1.811091e+01 -1.830511e+01 -1.811091e+01 -1.761368e+01 -1.673069e+01 -1.560053e+01 -1.411694e+01 -1.248740e+01 -1.062170e+01 -8.756466e+00 -6.878078e+00 -5.285495e+00 -4.019081e+00 -2.987492e+00 -2.330065e+00 -1.792091e+00 -1.585307e+00 
-1.497826e-01 -3.086817e-01 -4.895018e-01 -1.032320e+00 -1.692123e+00 -2.815821e+00 -4.247294e+00 -6.152344e+00 -8.510897e+00 -1.082284e+01 -1.312841e+01 -1.512084e+01 -1.691800e+01 -1.828012e+01 -1.932052e+01 -1.991734e+01 -2.013483e+01 -1.991734e+01 -1.932052e+01 -1.828012e+01 -1.691800e+01 -1.512084e+01 -1.312841e+01 -1.082284e+01 -8.510897e+00 -6.152344e+00 -4.247294e+00 -2.815821e+00 -1.692123e+00 -1.032320e+00 -4.895018e-01 -3.086817e-01 
1.303493e+00 1.151670e+00 1.038812e+00 5.459568e-01 -3.182141e-02 -1.201195e+00 -2.771692e+00 -5.095881e+00 -8.215786e+00 -1.119360e+01 -1.401832e+01 -1.640668e+01 -1.854707e+01 -2.013997e+01 -2.135112e+01 -2.205307e+01 -2.229253e+01 -2.205307e+01 -2.135112e+01 -2.013997e+01 -1.854707e+01 -1.640668e+01 -1.401832e+01 -1.119360e+01 -8.215786e+00 -5.095881e+00 -2.771692e+00 -1.201195e+00 -3.182141e-02 5.459568e-01 1.038812e+00 1.151670e+00 
2.916770e+00 2.787256e+00 2.781242e+00 2.403783e+00 2.003146e+00 8.767087e-01 -7.385225e-01 -3.559631e+00 -7.733465e+00 -1.159042e+01 -1.512121e+01 -1.805269e+01 -2.064673e+01 -2.255143e+01 -2.394202e+01 -2.476389e+01 -2.501975e+01 -2.476389e+01 -2.394202e+01 -2.255143e+01 -2.064673e+01 -1.805269e+01 -1.512121e+01 -1.159042e+01 -7.733465e+00 -3.559631e+00 -7.385225e-01 8.767087e-01 2.003146e+00 2.403783e+00 2.781242e+00 2.787256e+00 
4.565996e+00 4.493713e+00 4.674285e+00 4.562692e+00 4.594871e+00 3.755646e+00 2.407704e+00 -1.103296e+00 -7.299194e+00 -1.264517e+01 -1.681053e+01 -2.017502e+01 -2.320849e+01 -2.537394e+01 -2.695069e+01 -2.790741e+01 -2.816495e+01 -2.790741e+01 -2.695069e+01 -2.537394e+01 -2.320849e+01 -2.017502e+01 -1.681053e+01 -1.264517e+01 -7.299194e+00 -1.103296e+00 2.407704e+00 3.755646e+00 4.594871e+00 4.562692e+00 4.674285e+00 4.493713e+00 
6.253520e+00 6.269567e+00 6.697002e+00 6.992950e+00 7.669937e+00 7.431837e+00 6.829114e+00 2.474754e+00 -6.592357e+00 -1.376485e+01 -1.884965e+01 -2.294382e+01 -2.653891e+01 -2.910271e+01 -3.076473e+01 -3.180804e+01 -3.205242e+01 -3.180804e+01 -3.076473e+01 -2.910271e+01 -2.653891e+01 -2.294382e+01 -1.884965e+01 -1.376485e+01 -6.592357e+00 2.474754e+00 6.829114e+00 7.431837e+00 7.669937e+00 6.992950e+00 6.697002e+00 6.269567e+00 
7.606837e+00 7.767050e+00 8.485519e+00 9.447341e+00 1.129923e+01 1.261743e+01 1.440728e+01 7.984528e+00 -7.125637e+00 -1.655045e+01 -2.184117e+01 -2.623924e+01 -3.021519e+01 -3.319874e+01 -3.499752e+01 -3.622070e+01 -3.641489e+01 -3.622070e+01 -3.499752e+01 -3.319874e+01 -3.021519e+01 -2.623924e+01 -2.184117e+01 -1.655045e+01 -7.125637e+00 7.984528e+00 1.440728e+01 1.261743e+01 1.129923e+01 9.447341e+00 8.485519e+00 7.767050e+00 
8.697848e+00 9.031216e+00 1.007485e+01 1.194699e+01 1.542198e+01 1.942323e+01 2.281364e+01 9.975108e+00 -7.393747e+00 -1.513793e+01 -2.427098e+01 -2.999786e+01 -3.467402e+01 -3.852948e+01 -4.009874e+01 -4.116158e+01 -4.134192e+01 -4.116158e+01 -4.009874e+01 -3.852948e+01 -3.467402e+01 -2.999786e+01 -2.427098e+01 -1.513793e+01 -7.393747e+00 9.975108e+00 2.281364e+01 1.942323e+01 1.542198e+01 1.194699e+01 1.007485e+01 9.031216e+00 
8.890268e+00 9.368985e+00 1.029649e+01 1.256697e+01 1.567998e+01 2.150229e+01 2.630772e+01 1.164020e+01 -1.211347e+00 -1.154502e+01 -2.469279e+01 -2.979631e+01 -3.735350e+01 -4.226216e+01 -4.478409e+01 -4.586773e+01 -4.615823e+01 -4.586773e+01 -4.478409e+01 -4.226216e+01 -3.735350e+01 -2.979631e+01 -2.469279e+01 -1.154502e+01 -1.211347e+00 1.164020e+01 2.630772e+01 2.150229e+01 1.567998e+01 1.256697e+01 1.029649e+01 9.368985e+00 
8.406953e+00 8.913786e+00 9.468931e+00 1.144223e+01 1.298437e+01 1.789864e+01 2.057913e+01 1.046263e+01 7.680528e+00 -1.578808e+00 -1.695369e+01 -2.851164e+01 -3.919066e+01 -4.515723e+01 -4.853173e+01 -4.791992e+01 -4.937879e+01 -4.791992e+01 -4.853173e+01 -4.515723e+01 -3.919066e+01 -2.851164e+01 -1.695369e+01 -1.578808e+00 7.680528e+00 1.046263e+01 2.057913e+01 1.789864e+01 1.298437e+01 1.144223e+01 9.468931e+00 8.913786e+00 
7.348950e+00 7.751010e+00 8.030239e+00 9.299344e+00 9.919035e+00 1.229892e+01 1.241308e+01 5.993433e+00 5.702584e+00 2.508694e+00 -4.875915e+00 -1.768191e+01 -3.148870e+01 -4.283071e+01 -5.034771e+01 -5.173156e+01 -5.483719e+01 -5.173156e+01 -5.034771e+01 -4.283071e+01 -3.148870e+01 -1.768191e+01 -4.875915e+00 2.508694e+00 5.702584e+00 5.993433e+00 1.241308e+01 1.229892e+01 9.919035e+00 9.299344e+00 8.030239e+00 7.751010e+00 
5.975384e+00 6.270434e+00 6.316916e+00 6.981246e+00 7.062663e+00 7.630426e+00 7.055877e+00 2.368181e+00 8.954366e-02 -5.311927e+00 -1.062287e+01 -1.439833e+01 -1.930195e+01 -2.921091e+01 -4.131969e+01 -4.877943e+01 -5.343446e+01 -4.877943e+01 -4.131969e+01 -2.921091e+01 -1.930195e+01 -1.439833e+01 -1.062287e+01 -5.311927e+00 8.954366e-02 2.368181e+00 7.055877e+00 7.630426e+00 7.062663e+00 6.981246e+00 6.316916e+00 6.270434e+00 
4.432042e+00 4.599788e+00 4.509668e+00 4.696190e+00 4.439131e+00 4.063833e+00 3.109638e+00 -2.715110e-01 -2.485562e+00 -7.201049e+00 -1.344019e+01 -2.123772e+01 -2.713160e+01 -2.945529e+01 -2.991385e+01 -2.958703e+01 -3.138954e+01 -2.958703e+01 -2.991385e+01 -2.945529e+01 -2.713160e+01 -2.123772e+01 -1.344019e+01 -7.201049e+00 -2.485562e+00 -2.715110e-01 3.109638e+00 4.063833e+00 4.439131e+00 4.696190e+00 4.509668e+00 4.599788e+00 
2.854647e+00 2.926926e+00 2.748062e+00 2.616023e+00 2.164251e+00 1.312586e+00 2.086892e-01 -2.615909e+00 -4.901022e+00 -8.672751e+00 -1.257364e+01 -1.751889e+01 -2.359139e+01 -2.802249e+01 -2.831974e+01 -2.447582e+01 -2.322317e+01 -2.447582e+01 -2.831974e+01 -2.802249e+01 -2.359139e+01 -1.751889e+01 -1.257364e+01 -8.672751e+00 -4.901022e+00 -2.615909e+00 2.086892e-01 1.312586e+00 2.164251e+00 2.616023e+00 2.748062e+00 2.926926e+00 
1.357632e+00 1.356865e+00 1.136272e+00 8.232617e-01 2.688506e-01 -7.207319e-01 -1.864979e+00 -4.150421e+00 -6.198415e+00 -9.322153e+00 -1.255972e+01 -1.581999e+01 -1.866446e+01 -2.152917e+01 -2.440549e+01 -2.503044e+01 -2.556478e+01 -2.503044e+01 -2.440549e+01 -2.152917e+01 -1.866446e+01 -1.581999e+01 -1.255972e+01 -9.322153e+00 -6.198415e+00 -4.150421e+00 -1.864979e+00 -7.207319e-01 2.688506e-01 8.232617e-01 1.136272e+00 1.356865e+00 
-5.293760e-02 -1.052273e-01 -3.422852e-01 -7.633065e-01 -1.357685e+00 -2.395576e+00 -3.515988e+00 -5.473978e+00 -7.311458e+00 -9.862764e+00 -1.243265e+01 -1.523909e+01 -1.800052e+01 -1.975051e+01 -2.079544e+01 -2.085986e+01 -2.133309e+01 -2.085986e+01 -2.079544e+01 -1.975051e+01 -1.800052e+01 -1.523909e+01 -1.243265e+01 -9.862764e+00 -7.311458e+00 -5.473978e+00 -3.515988e+00 -2.395576e+00 -1.357685e+00 -7.633065e-01 -3.422852e-01 -1.052273e-01 
-1.273091e+00 -1.352543e+00 -1.588945e+00 -2.040874e+00 -2.632144e+00 -3.605983e+00 -4.649143e+00 -6.277345e+00 -7.855054e+00 -9.912251e+00 -1.194743e+01 -1.402666e+01 -1.599475e+01 -1.765438e+01 -1.913388e+01 -1.952274e+01 -1.990725e+01 -1.952274e+01 -1.913388e+01 -1.765438e+01 -1.599475e+01 -1.402666e+01 -1.194743e+01 -9.912251e+00 -7.855054e+00 -6.277345e+00 -4.649143e+00 -3.605983e+00 -2.632144e+00 -2.040874e+00 -1.588945e+00 -1.352543e+00 
-2.381467e+00 -2.480468e+00 -2.706413e+00 -3.170537e+00 -3.739681e+00 -4.653915e+00 -5.616513e+00 -7.020148e+00 -8.398248e+00 -1.010070e+01 -1.177701e+01 -1.345445e+01 -1.504794e+01 -1.616872e+01 -1.710270e+01 -1.740138e+01 -1.773962e+01 -1.740138e+01 -1.710270e+01 -1.616872e+01 -1.504794e+01 -1.345445e+01 -1.177701e+01 -1.010070e+01 -8.398248e+00 -7.020148e+00 -5.616513e+00 -4.653915e+00 -3.739681e+00 -3.170537e+00 -2.706413e+00 -2.480468e+00 
-3.271277e+00 -3.373706e+00 -3.585972e+00 -4.027423e+00 -4.559440e+00 -5.379381e+00 -6.246563e+00 -7.436293e+00 -8.619741e+00 -1.002489e+01 -1.140270e+01 -1.276440e+01 -1.405855e+01 -1.506840e+01 -1.597937e+01 -1.631828e+01 -1.660708e+01 -1.631828e+01 -1.597937e+01 -1.506840e+01 -1.405855e+01 -1.276440e+01 -1.140270e+01 -1.002489e+01 -8.619741e+00 -7.436293e+00 -6.246563e+00 -5.379381e+00 -4.559440e+00 -4.027423e+00 -3.585972e+00 -3.373706e+00 
-4.060125e+00 -4.166232e+00 -4.362521e+00 -4.784637e+00 -5.279524e+00 -6.027727e+00 -6.814246e+00 -7.850190e+00 -8.884789e+00 -1.006650e+01 -1.122294e+01 -1.232863e+01 -1.337631e+01 -1.414081e+01 -1.482184e+01 -1.508559e+01 -1.531363e+01 -1.508559e+01 -1.482184e+01 -1.414081e+01 -1.337631e+01 -1.232863e+01 -1.122294e+01 -1.006650e+01 -8.884789e+00 -7.850190e+00 -6.814246e+00 -6.027727e+00 -5.279524e+00 -4.784637e+00 -4.362521e+00 -4.166232e+00 
-4.639749e+00 -4.741026e+00 -4.924047e+00 -5.315126e+00 -5.773452e+00 -6.446428e+00 -7.158870e+00 -8.063681e+00 -8.974854e+00 -9.989972e+00 -1.098471e+01 -1.193260e+01 -1.283188e+01 -1.351535e+01 -1.413109e+01 -1.438859e+01 -1.458548e+01 -1.438859e+01 -1.413109e+01 -1.351535e+01 -1.283188e+01 -1.193260e+01 -1.098471e+01 -9.989972e+00 -8.974854e+00 -8.063681e+00 -7.158870e+00 -6.446428e+00 -5.773452e+00 -5.315126e+00 -4.924047e+00 -4.741026e+00 
-5.134076e+00 -5.233720e+00 -5.404196e+00 -5.773853e+00 -6.201984e+00 -6.821356e+00 -7.476187e+00 -8.285641e+00 -9.102649e+00 -9.987564e+00 -1.085435e+01 -1.165942e+01 -1.242133e+01 -1.298506e+01 -1.348936e+01 -1.370370e+01 -1.386392e+01 -1.370370e+01 -1.348936e+01 -1.298506e+01 -1.242133e+01 -1.165942e+01 -1.085435e+01 -9.987564e+00 -9.102649e+00 -8.285641e+00 -7.476187e+00 -6.821356e+00 -6.201984e+00 -5.773853e+00 -5.404196e+00 -5.233720e+00 
-5.439587e+00 -5.534156e+00 -5.697060e+00 -6.045430e+00 -6.451726e+00 -7.027323e+00 -7.641024e+00 -8.382378e+00 -9.136054e+00 -9.939235e+00 -1.072781e+01 -1.145846e+01 -1.214852e+01 -1.266904e+01 -1.313034e+01 -1.333676e+01 -1.347838e+01 -1.333676e+01 -1.313034e+01 -1.266904e+01 -1.214852e+01 -1.145846e+01 -1.072781e+01 -9.939235e+00 -9.136054e+00 -8.382378e+00 -7.641024e+00 -7.027323e+00 -6.451726e+00 -6.045430e+00 -5.697060e+00 -5.534156e+00 
-5.667801e+00 -5.761018e+00 -5.918222e+00 -6.255504e+00 -6.648032e+00 -7.197863e+00 -7.785762e+00 -8.483335e+00 -9.195162e+00 -9.939513e+00 -1.067120e+01 -1.133849e+01 -1.196703e+01 -1.243705e+01 -1.284927e+01 -1.303754e+01 -1.316094e+01 -1.303754e+01 -1.284927e+01 -1.243705e+01 -1.196703e+01 -1.133849e+01 -1.067120e+01 -9.939513e+00 -9.195162e+00 -8.483335e+00 -7.785762e+00 -7.197863e+00 -6.648032e+00 -6.255504e+00 -5.918222e+00 -5.761018e+00 
