# vtk DataFile Version 2.0
Comment goes here
ASCII

DATASET STRUCTURED_POINTS
DIMENSIONS    64   64   1

ORIGIN    0.000   0.000   0.000
SPACING   0.0156250.015625   1.000

POINT_DATA   4096
SCALARS Omega double
LOOKUP_TABLE default

-1.326001e-03 -2.949592e-03 -5.318170e-03 -8.905718e-03 -1.404497e-02 -2.111992e-02 -3.019355e-02 -4.106259e-02 -5.307314e-02 -6.511767e-02 -7.588064e-02 -8.391527e-02 -8.806977e-02 -8.764163e-02 -8.239226e-02 -7.277753e-02 -5.954706e-02 -4.399011e-02 -2.772439e-02 -1.252332e-02 -5.847513e-04 6.373642e-03 6.732073e-03 2.273586e-04 -1.235062e-02 -2.869272e-02 -4.565969e-02 -6.003198e-02 -6.940120e-02 -7.266851e-02 -7.024764e-02 -6.335241e-02 -5.378124e-02 -4.299428e-02 -3.217852e-02 -2.196170e-02 -1.257549e-02 -4.048751e-03 3.917197e-03 1.158427e-02 1.946197e-02 2.787292e-02 3.707098e-02 4.689812e-02 5.683959e-02 6.596590e-02 7.328457e-02 7.778405e-02 7.899991e-02 7.675679e-02 7.154299e-02 6.402051e-02 5.508658e-02 4.562910e-02 3.633644e-02 2.788373e-02 2.052781e-02 1.457081e-02 9.890237e-03 6.457806e-03 3.974248e-03 2.238554e-03 9.563765e-04 -1.450712e-04 
-7.251269e-04 -1.629271e-03 -2.921074e-03 -4.877713e-03 -7.655692e-03 -1.148877e-02 -1.640364e-02 -2.233470e-02 -2.895417e-02 -3.572639e-02 -4.196803e-02 -4.692561e-02 -4.993821e-02 -5.058158e-02 -4.863787e-02 -4.429574e-02 -3.789898e-02 -3.011491e-02 -2.177251e-02 -1.378140e-02 -7.248281e-03 -3.017285e-03 -1.885336e-03 -3.992861e-03 -8.989269e-03 -1.583680e-02 -2.309887e-02 -2.930861e-02 -3.335309e-02 -3.467954e-02 -3.346825e-02 -3.019883e-02 -2.571725e-02 -2.063265e-02 -1.551379e-02 -1.060200e-02 -5.990376e-03 -1.657412e-03 2.574381e-03 6.827433e-03 1.135763e-02 1.625899e-02 2.162313e-02 2.726573e-02 3.289222e-02 3.793174e-02 4.188253e-02 4.416433e-02 4.459157e-02 4.306598e-02 3.992377e-02 3.554211e-02 3.045020e-02 2.514360e-02 1.998509e-02 1.534185e-02 1.131210e-02 8.065832e-03 5.502482e-03 3.622264e-03 2.247390e-03 1.279581e-03 5.587094e-04 -6.640960e-05 
-4.059953e-04 -8.950086e-04 -1.567572e-03 -2.588731e-03 -4.011341e-03 -5.983928e-03 -8.498602e-03 -1.156030e-02 -1.499361e-02 -1.857192e-02 -2.193865e-02 -2.474496e-02 -2.661778e-02 -2.734920e-02 -2.676627e-02 -2.496201e-02 -2.205513e-02 -1.838273e-02 -1.432305e-02 -1.032356e-02 -6.903052e-03 -4.466562e-03 -3.388657e-03 -3.759194e-03 -5.435243e-03 -7.995411e-03 -1.081441e-02 -1.326919e-02 -1.486772e-02 -1.534584e-02 -1.477760e-02 -1.332580e-02 -1.136911e-02 -9.131253e-03 -6.867647e-03 -4.654884e-03 -2.518802e-03 -4.392378e-04 1.693403e-03 3.918274e-03 6.375516e-03 9.059653e-03 1.201885e-02 1.509093e-02 1.813675e-02 2.080103e-02 2.285944e-02 2.396745e-02 2.408021e-02 2.312544e-02 2.133046e-02 1.889161e-02 1.611426e-02 1.326315e-02 1.051946e-02 8.080291e-03 5.965985e-03 4.276413e-03 2.930765e-03 1.945197e-03 1.212302e-03 6.911070e-04 2.974346e-04 -4.989280e-05 
-2.166055e-04 -4.759437e-04 -8.112863e-04 -1.324436e-03 -2.015071e-03 -2.980166e-03 -4.193116e-03 -5.684823e-03 -7.356408e-03 -9.129153e-03 -1.082102e-02 -1.228843e-02 -1.333325e-02 -1.386598e-02 -1.377326e-02 -1.310003e-02 -1.187105e-02 -1.024532e-02 -8.376184e-03 -6.474414e-03 -4.764063e-03 -3.439592e-03 -2.664060e-03 -2.503122e-03 -2.898446e-03 -3.703857e-03 -4.658822e-03 -5.518392e-03 -6.079691e-03 -6.216437e-03 -5.968471e-03 -5.365037e-03 -4.580569e-03 -3.667780e-03 -2.744989e-03 -1.816438e-03 -8.886032e-04 5.397157e-05 1.076378e-03 2.179749e-03 3.447130e-03 4.839076e-03 6.394932e-03 7.987290e-03 9.569234e-03 1.091665e-02 1.195018e-02 1.245894e-02 1.246003e-02 1.189462e-02 1.091341e-02 9.609348e-03 8.154914e-03 6.686191e-03 5.287919e-03 4.064979e-03 3.005968e-03 2.170480e-03 1.497955e-03 1.007187e-03 6.348509e-04 3.653320e-04 1.588517e-04 -3.040173e-05 
-1.300056e-04 -2.695454e-04 -4.295588e-04 -6.818890e-04 -9.964514e-04 -1.446629e-03 -1.990691e-03 -2.674384e-03 -3.427909e-03 -4.248434e-03 -5.032041e-03 -5.743944e-03 -6.270336e-03 -6.593897e-03 -6.633368e-03 -6.424382e-03 -5.946577e-03 -5.281532e-03 -4.471409e-03 -3.618776e-03 -2.804054e-03 -2.125504e-03 -1.643001e-03 -1.407681e-03 -1.391003e-03 -1.560824e-03 -1.809559e-03 -2.054932e-03 -2.216627e-03 -2.238003e-03 -2.141479e-03 -1.914866e-03 -1.637675e-03 -1.304415e-03 -9.671933e-04 -6.127824e-04 -2.364996e-04 1.637429e-04 6.342009e-04 1.152613e-03 1.780922e-03 2.464888e-03 3.250944e-03 4.035146e-03 4.827747e-03 5.476175e-03 5.979628e-03 6.196491e-03 6.173414e-03 5.854197e-03 5.343667e-03 4.673989e-03 3.944824e-03 3.220340e-03 2.538269e-03 1.954060e-03 1.447033e-03 1.054542e-03 7.326276e-04 4.985904e-04 3.155624e-04 1.780020e-04 7.135160e-05 -3.419646e-05 
-7.268823e-05 -1.491822e-04 -2.210825e-04 -3.441238e-04 -4.767722e-04 -6.780015e-04 -9.015868e-04 -1.195574e-03 -1.505838e-03 -1.859192e-03 -2.191519e-03 -2.512973e-03 -2.756603e-03 -2.933882e-03 -2.990093e-03 -2.952274e-03 -2.790708e-03 -2.547648e-03 -2.221991e-03 -1.865124e-03 -1.495675e-03 -1.167537e-03 -8.938954e-04 -7.151286e-04 -6.117891e-04 -5.925195e-04 -6.113404e-04 -6.485287e-04 -6.750659e-04 -6.644182e-04 -6.333095e-04 -5.585369e-04 -4.806908e-04 -3.773802e-04 -2.733334e-04 -1.541477e-04 -1.160425e-05 1.470072e-04 3.585260e-04 5.900239e-04 8.942514e-04 1.213721e-03 1.599839e-03 1.966663e-03 2.352089e-03 2.646488e-03 2.883726e-03 2.963595e-03 2.940010e-03 2.762430e-03 2.504874e-03 2.169963e-03 1.816961e-03 1.472672e-03 1.153980e-03 8.887719e-04 6.589829e-04 4.859902e-04 3.418019e-04 2.367893e-04 1.530580e-04 8.480059e-05 3.332958e-05 -2.605977e-05 
-5.014653e-05 -9.633488e-05 -1.252811e-04 -1.880494e-04 -2.360125e-04 -3.239841e-04 -4.015427e-04 -5.195605e-04 -6.278931e-04 -7.678292e-04 -8.895313e-04 -1.024699e-03 -1.124655e-03 -1.216650e-03 -1.256815e-03 -1.272889e-03 -1.230994e-03 -1.160867e-03 -1.042092e-03 -9.073311e-04 -7.472349e-04 -5.978868e-04 -4.505865e-04 -3.394753e-04 -2.460029e-04 -1.923045e-04 -1.540116e-04 -1.358302e-04 -1.254617e-04 -1.130004e-04 -1.080668e-04 -9.211233e-05 -8.444864e-05 -6.631979e-05 -4.602461e-05 -1.772054e-05 3.260747e-05 8.738245e-05 1.831878e-04 2.785963e-04 4.262500e-04 5.653232e-04 7.537916e-04 9.137417e-04 1.099645e-03 1.222545e-03 1.334574e-03 1.355142e-03 1.341545e-03 1.244104e-03 1.121435e-03 9.582817e-04 7.957352e-04 6.382417e-04 4.972050e-04 3.828565e-04 2.850883e-04 2.128396e-04 1.524190e-04 1.057407e-04 6.942870e-05 3.275449e-05 8.792572e-06 -2.868286e-05 
-2.852227e-05 -5.796718e-05 -6.535731e-05 -9.943828e-05 -1.101707e-04 -1.490052e-04 -1.659567e-04 -2.105469e-04 -2.363554e-04 -2.873071e-04 -3.216491e-04 -3.759734e-04 -4.124796e-04 -4.607481e-04 -4.865108e-04 -5.139877e-04 -5.137022e-04 -5.071138e-04 -4.713241e-04 -4.287171e-04 -3.622914e-04 -2.981084e-04 -2.207604e-04 -1.581360e-04 -9.291185e-05 -4.820829e-05 -7.974278e-06 1.627219e-05 3.151549e-05 3.999590e-05 3.724074e-05 3.472015e-05 2.494565e-05 1.791531e-05 1.598497e-05 1.460782e-05 3.439849e-05 4.835052e-05 9.678404e-05 1.314812e-04 2.078978e-04 2.626870e-04 3.579261e-04 4.206852e-04 5.117602e-04 5.552955e-04 6.082232e-04 6.036811e-04 5.958319e-04 5.389363e-04 4.810905e-04 3.992428e-04 3.265104e-04 2.538505e-04 1.953815e-04 1.469353e-04 1.106848e-04 8.162427e-05 6.191176e-05 4.110712e-05 3.025412e-05 9.458663e-06 2.356305e-06 -2.227853e-05 
-2.187581e-05 -4.444904e-05 -4.166816e-05 -6.377249e-05 -5.876404e-05 -7.807065e-05 -7.125954e-05 -8.772909e-05 -8.201424e-05 -9.884977e-05 -9.892193e-05 -1.204824e-04 -1.291997e-04 -1.560980e-04 -1.700932e-04 -1.957637e-04 -2.049006e-04 -2.182084e-04 -2.111155e-04 -2.042058e-04 -1.764261e-04 -1.510789e-04 -1.089134e-04 -7.539019e-05 -3.214379e-05 -2.389788e-06 2.908541e-05 4.702862e-05 6.004064e-05 6.348059e-05 5.975829e-05 5.100038e-05 3.998959e-05 2.561056e-05 2.030530e-05 8.333177e-06 1.862159e-05 1.464322e-05 4.338175e-05 4.938848e-05 9.365202e-05 1.085609e-04 1.612551e-04 1.791886e-04 2.278832e-04 2.367256e-04 2.654608e-04 2.530232e-04 2.524904e-04 2.182557e-04 1.952581e-04 1.529247e-04 1.250946e-04 9.024157e-05 7.108026e-05 4.891164e-05 4.070493e-05 2.649009e-05 2.490870e-05 1.166114e-05 1.235845e-05 -4.074121e-06 -3.010455e-06 -2.332724e-05 
-1.048026e-05 -2.836748e-05 -1.939800e-05 -3.534885e-05 -2.379723e-05 -3.551238e-05 -2.117957e-05 -2.856315e-05 -1.401030e-05 -2.036591e-05 -1.067467e-05 -2.122219e-05 -2.084300e-05 -3.839089e-05 -4.674473e-05 -6.802237e-05 -7.806750e-05 -9.484927e-05 -9.691618e-05 -1.016766e-04 -8.988741e-05 -8.106415e-05 -5.715042e-05 -3.977342e-05 -1.182361e-05 5.855679e-06 2.804904e-05 3.865247e-05 4.880567e-05 4.868345e-05 4.742846e-05 3.770603e-05 3.228974e-05 1.768143e-05 1.767208e-05 3.409904e-06 1.514715e-05 4.347113e-06 2.839049e-05 2.190212e-05 5.446179e-05 5.171016e-05 8.675829e-05 8.510672e-05 1.150280e-04 1.090304e-04 1.262328e-04 1.105127e-04 1.122084e-04 8.697049e-05 7.874305e-05 5.087458e-05 4.292343e-05 1.996273e-05 1.911747e-05 3.190927e-06 9.491785e-06 -2.466022e-06 7.229272e-06 -4.919539e-06 4.817481e-06 -9.844190e-06 -1.293140e-06 -1.844823e-05 
-8.620597e-06 -2.584136e-05 -1.435489e-05 -2.852641e-05 -1.494164e-05 -2.444160e-05 -8.517359e-06 -1.358500e-05 2.553299e-06 -1.059630e-06 1.107925e-05 4.363453e-06 8.661011e-06 -4.002589e-06 -7.636023e-06 -2.450657e-05 -3.118357e-05 -4.649486e-05 -4.895940e-05 -5.681422e-05 -5.001814e-05 -4.829680e-05 -3.242372e-05 -2.382443e-05 -3.970297e-06 5.765083e-06 2.260652e-05 2.760748e-05 3.661055e-05 3.349710e-05 3.500463e-05 2.404823e-05 2.343971e-05 7.598485e-06 1.183881e-05 -5.541131e-06 7.840555e-06 -8.951594e-06 1.328199e-05 -1.868643e-06 2.543435e-05 1.251018e-05 3.971052e-05 2.861500e-05 5.072352e-05 3.925908e-05 5.304801e-05 3.830292e-05 4.433868e-05 2.547530e-05 2.855608e-05 7.884713e-06 1.391242e-05 -5.468967e-06 6.231073e-06 -1.080959e-05 4.997832e-06 -1.088047e-05 5.597287e-06 -1.077043e-05 3.868845e-06 -1.369326e-05 -1.416198e-06 -1.960135e-05 
-6.672380e-07 -1.673496e-05 -2.551463e-06 -1.531106e-05 -6.973384e-07 -9.445309e-06 5.965044e-06 6.856022e-07 1.537841e-05 1.120360e-05 2.215218e-05 1.575339e-05 2.028506e-05 9.631969e-06 7.805416e-06 -5.921599e-06 -1.052003e-05 -2.334863e-05 -2.544533e-05 -3.326017e-05 -2.905465e-05 -3.029493e-05 -1.957512e-05 -1.606872e-05 -2.043279e-06 2.116554e-06 1.492661e-05 1.544817e-05 2.410469e-05 1.840899e-05 2.361532e-05 1.161438e-05 1.745376e-05 8.172167e-07 1.217413e-05 -7.109266e-06 1.237689e-05 -8.001277e-06 1.847037e-05 -1.576113e-06 2.765096e-05 9.477897e-06 3.606571e-05 2.054951e-05 4.019147e-05 2.611765e-05 3.770564e-05 2.213148e-05 2.879893e-05 9.249911e-06 1.694427e-05 -6.613229e-06 7.172209e-06 -1.832817e-05 2.597396e-06 -2.256525e-05 2.587620e-06 -2.101472e-05 4.111729e-06 -1.771138e-05 4.372776e-06 -1.579576e-05 2.428110e-06 -1.598571e-05 
-1.181448e-06 -1.842835e-05 -3.830556e-06 -1.678846e-05 -2.730316e-06 -1.157608e-05 2.473209e-06 -3.208664e-06 9.849537e-06 5.273801e-06 1.528810e-05 9.278466e-06 1.450859e-05 5.561737e-06 6.176925e-06 -4.943069e-06 -6.387108e-06 -1.697287e-05 -1.678605e-05 -2.398641e-05 -1.944528e-05 -2.214122e-05 -1.292348e-05 -1.241259e-05 -5.287263e-07 1.479382e-07 1.177963e-05 9.260301e-06 1.883631e-05 1.080944e-05 1.909995e-05 4.901375e-06 1.507557e-05 -4.687364e-06 1.107209e-05 -1.308736e-05 1.010031e-05 -1.688362e-05 1.226181e-05 -1.514455e-05 1.541337e-05 -9.250362e-06 1.701662e-05 -2.451622e-06 1.574757e-05 1.072519e-06 1.219538e-05 -1.557359e-06 8.449801e-06 -9.508403e-06 6.671900e-06 -1.846230e-05 7.551477e-06 -2.394752e-05 9.914392e-06 -2.451143e-05 1.168903e-05 -2.191802e-05 1.125945e-05 -1.903498e-05 8.247380e-06 -1.772772e-05 3.526695e-06 -1.802758e-05 
5.930934e-06 -1.137345e-05 4.910126e-06 -7.629642e-06 6.458696e-06 -2.364974e-06 1.052967e-05 4.202517e-06 1.556059e-05 1.005730e-05 1.867310e-05 1.223361e-05 1.710255e-05 8.803329e-06 1.021187e-05 6.648618e-07 4.669236e-07 -8.490819e-06 -7.724184e-06 -1.426826e-05 -1.060624e-05 -1.418586e-05 -7.219260e-06 -9.008625e-06 2.715595e-07 -2.133820e-06 8.058093e-06 2.409256e-06 1.299666e-05 2.178662e-06 1.436932e-05 -2.488200e-06 1.399781e-05 -8.939400e-06 1.467542e-05 -1.378747e-05 1.808501e-05 -1.440530e-05 2.364478e-05 -9.736531e-06 2.891340e-05 -8.162311e-07 3.115804e-05 8.738685e-06 2.918386e-05 1.338338e-05 2.429712e-05 8.739759e-06 1.938947e-05 -4.522326e-06 1.664328e-05 -2.031297e-05 1.614231e-05 -3.151488e-05 1.647114e-05 -3.477547e-05 1.617824e-05 -3.144592e-05 1.459951e-05 -2.518892e-05 1.186208e-05 -1.918732e-05 8.633975e-06 -1.475018e-05 
3.210080e-06 -1.559341e-05 1.474663e-07 -1.262142e-05 2.394084e-07 -8.508196e-06 2.861209e-06 -3.517897e-06 6.484012e-06 8.944276e-07 8.913987e-06 2.739673e-06 8.234148e-06 8.104548e-07 4.039871e-06 -4.215487e-06 -2.016964e-06 -9.860677e-06 -7.007731e-06 -1.321674e-05 -8.386510e-06 -1.263993e-05 -5.388565e-06 -8.646423e-06 6.769083e-07 -3.571671e-06 7.289484e-06 -3.195003e-07 1.216978e-05 -9.176826e-07 1.448879e-05 -5.623395e-06 1.511740e-05 -1.295186e-05 1.574713e-05 -2.038526e-05 1.741696e-05 -2.521167e-05 1.940633e-05 -2.532158e-05 1.937816e-05 -2.035960e-05 1.509874e-05 -1.314651e-05 7.097162e-06 -9.416099e-06 5.831074e-08 -1.379270e-05 1.041719e-07 -2.483604e-05 8.942262e-06 -3.577260e-05 2.143837e-05 -4.073812e-05 3.014929e-05 -3.888265e-05 3.126652e-05 -3.307387e-05 2.589858e-05 -2.666841e-05 1.750896e-05 -2.161332e-05 9.293380e-06 -1.819658e-05 
1.107834e-05 -8.041384e-06 8.657920e-06 -3.757397e-06 8.645868e-06 4.354383e-08 1.030563e-05 3.616279e-06 1.244638e-05 6.317813e-06 1.359528e-05 7.101309e-06 1.257725e-05 5.380835e-06 9.219353e-06 1.683576e-06 4.601978e-06 -2.461092e-06 5.386513e-07 -5.378083e-06 -1.406126e-06 -6.229786e-06 -6.903937e-07 -5.450681e-06 2.098516e-06 -4.417851e-06 5.773024e-06 -4.652223e-06 9.329129e-06 -7.064562e-06 1.253850e-05 -1.161083e-05 1.605894e-05 -1.732500e-05 2.097397e-05 -2.241443e-05 2.781666e-05 -2.429827e-05 3.545992e-05 -2.010475e-05 4.083742e-05 -8.575388e-06 4.052806e-05 6.649082e-06 3.413440e-05 1.587160e-05 2.662994e-05 9.307261e-06 2.513612e-05 -1.280790e-05 3.147647e-05 -3.842670e-05 4.017908e-05 -5.422615e-05 4.423900e-05 -5.564531e-05 4.115748e-05 -4.667753e-05 3.318068e-05 -3.397853e-05 2.399392e-05 -2.240728e-05 1.624516e-05 -1.385770e-05 
5.146706e-06 -1.466976e-05 6.758611e-07 -1.116067e-05 -3.324839e-07 -8.253377e-06 6.113457e-07 -5.727414e-06 2.204813e-06 -3.839112e-06 3.364810e-06 -3.040124e-06 3.372365e-06 -3.551380e-06 2.096226e-06 -5.067059e-06 5.397251e-08 -6.822759e-06 -1.821165e-06 -7.991720e-06 -2.588577e-06 -8.129555e-06 -1.651877e-06 -7.397145e-06 1.077174e-06 -6.499373e-06 5.189029e-06 -6.468471e-06 9.930387e-06 -8.424562e-06 1.455139e-05 -1.327416e-05 1.881753e-05 -2.121070e-05 2.324004e-05 -3.106541e-05 2.830089e-05 -3.982010e-05 3.275066e-05 -4.291729e-05 3.263979e-05 -3.672149e-05 2.333319e-05 -2.384291e-05 5.395838e-06 -1.613083e-05 -1.004196e-05 -2.580495e-05 -6.857305e-06 -4.966211e-05 1.859574e-05 -7.027096e-05 5.012215e-05 -7.516517e-05 6.765035e-05 -6.604017e-05 6.481776e-05 -5.125993e-05 4.875096e-05 -3.731430e-05 2.981683e-05 -2.673385e-05 1.462373e-05 -1.950913e-05 
1.519235e-05 -4.547414e-06 1.057261e-05 -6.875774e-07 8.978313e-06 1.269430e-06 8.921729e-06 2.291266e-06 9.399513e-06 2.808810e-06 9.803969e-06 2.977478e-06 9.820523e-06 2.874053e-06 9.332696e-06 2.549500e-06 8.333394e-06 1.977174e-06 6.895164e-06 1.011451e-06 5.238611e-06 -5.639507e-07 3.836875e-06 -2.905953e-06 3.415664e-06 -5.985883e-06 4.731963e-06 -9.635375e-06 8.180819e-06 -1.387401e-05 1.358887e-05 -1.923815e-05 2.064808e-05 -2.646209e-05 2.971085e-05 -3.519903e-05 4.154405e-05 -4.232862e-05 5.514802e-05 -4.129635e-05 6.557245e-05 -2.509784e-05 6.535653e-05 4.225135e-06 5.217119e-05 2.671722e-05 3.757968e-05 1.600554e-05 4.045968e-05 -2.970063e-05 6.339593e-05 -7.965264e-05 8.820139e-05 -1.030951e-04 9.596239e-05 -9.567281e-05 8.401840e-05 -7.151107e-05 6.208683e-05 -4.542010e-05 4.055235e-05 -2.508725e-05 2.469257e-05 -1.197136e-05 
3.894270e-06 -1.432093e-05 -1.292020e-06 -1.048385e-05 -2.460176e-06 -8.830133e-06 -2.255109e-06 -8.492372e-06 -1.778134e-06 -8.619857e-06 -1.138892e-06 -8.434071e-06 -1.274551e-07 -7.498523e-06 1.202622e-06 -5.991669e-06 2.303437e-06 -4.664961e-06 2.443791e-06 -4.381209e-06 1.390843e-06 -5.522895e-06 -6.125675e-08 -7.708732e-06 -2.255927e-07 -1.005907e-05 2.541157e-06 -1.200057e-05 8.574252e-06 -1.426445e-05 1.646675e-05 -1.918808e-05 2.447151e-05 -2.947605e-05 3.273270e-05 -4.589290e-05 4.313471e-05 -6.507269e-05 5.524063e-05 -7.795224e-05 6.182150e-05 -7.198650e-05 4.985832e-05 -4.517343e-05 1.352092e-05 -2.393333e-05 -2.496965e-05 -4.599589e-05 -2.061810e-05 -1.046989e-04 4.031725e-05 -1.479636e-04 1.117897e-04 -1.466490e-04 1.417766e-04 -1.158318e-04 1.234231e-04 -8.025400e-05 8.230473e-05 -5.219685e-05 4.337192e-05 -3.328035e-05 1.732429e-05 -2.140024e-05 
1.776897e-05 4.681539e-07 1.127627e-05 2.741868e-06 8.678841e-06 2.139968e-06 7.388673e-06 3.119040e-07 6.561198e-06 -1.352449e-06 6.505040e-06 -1.594230e-06 7.794255e-06 2.407512e-07 1.033190e-05 3.614420e-06 1.291777e-05 6.810183e-06 1.377285e-05 7.787119e-06 1.177207e-05 5.313395e-06 7.510160e-06 -3.734935e-07 3.405798e-06 -7.653520e-06 2.578574e-06 -1.440854e-05 6.889944e-06 -1.970448e-05 1.556482e-05 -2.533035e-05 2.642909e-05 -3.520981e-05 3.956445e-05 -5.214841e-05 5.868924e-05 -7.346383e-05 8.580769e-05 -8.675925e-05 1.133179e-04 -6.965805e-05 1.221038e-04 -1.126057e-05 9.747669e-05 4.837369e-05 6.244401e-05 3.186625e-05 7.293647e-05 -7.326409e-05 1.349238e-04 -1.785560e-04 1.933109e-04 -2.074032e-04 1.999906e-04 -1.688829e-04 1.601915e-04 -1.086024e-04 1.060321e-04 -5.763095e-05 6.114298e-05 -2.482084e-05 3.261350e-05 -7.288820e-06 
-2.207379e-06 -1.389095e-05 -5.150880e-06 -9.654051e-06 -4.615900e-06 -9.488946e-06 -4.492407e-06 -1.181118e-05 -5.228665e-06 -1.442752e-05 -5.360725e-06 -1.496551e-05 -3.260064e-06 -1.209896e-05 1.191043e-06 -6.696830e-06 5.948037e-06 -1.645463e-06 7.935230e-06 -7.191819e-08 5.368045e-06 -3.246494e-06 -4.213204e-07 -9.695435e-06 -5.065080e-06 -1.596942e-05 -3.582977e-06 -1.890175e-05 5.735287e-06 -1.879585e-05 1.914982e-05 -2.118066e-05 3.106737e-05 -3.405756e-05 4.180312e-05 -6.257484e-05 5.941861e-05 -1.055956e-04 8.955069e-05 -1.495524e-04 1.216574e-04 -1.593007e-04 1.217424e-04 -1.047199e-04 5.330250e-05 -3.833467e-05 -5.084856e-05 -8.684763e-05 -5.726622e-05 -2.428921e-04 9.263904e-05 -3.338948e-04 2.582955e-04 -2.945793e-04 2.985574e-04 -2.018575e-04 2.270783e-04 -1.224927e-04 1.272486e-04 -7.134519e-05 5.247141e-05 -4.116590e-05 1.276473e-05 -2.361752e-05 
1.767351e-05 7.410810e-06 1.127672e-05 6.583782e-06 8.913439e-06 2.506849e-06 6.557378e-06 -3.029396e-06 3.835430e-06 -7.662660e-06 2.690045e-06 -8.486722e-06 5.365212e-06 -3.751305e-06 1.204165e-05 5.211433e-06 1.969400e-05 1.399898e-05 2.354889e-05 1.765346e-05 2.034387e-05 1.361108e-05 1.094449e-05 2.898002e-06 6.167594e-07 -1.034949e-05 -3.428206e-06 -2.061369e-05 3.115213e-06 -2.489682e-05 1.726317e-05 -2.745931e-05 3.143212e-05 -3.907935e-05 4.509038e-05 -6.978827e-05 7.182743e-05 -1.225913e-04 1.260501e-04 -1.837543e-04 2.010941e-04 -1.967926e-04 2.513188e-04 -9.023426e-05 2.114410e-04 7.525218e-05 1.113494e-04 5.871591e-05 1.388139e-04 -2.055756e-04 3.081955e-04 -4.349451e-04 4.437466e-04 -4.327160e-04 4.212823e-04 -2.946268e-04 2.970895e-04 -1.543468e-04 1.693210e-04 -6.301046e-05 8.252813e-05 -1.685217e-05 3.685059e-05 1.991406e-06 
-1.455153e-05 -1.339078e-05 -8.936569e-06 -8.012556e-06 -4.004040e-06 -9.529778e-06 -3.996669e-06 -1.567983e-05 -7.447735e-06 -2.228962e-05 -9.810873e-06 -2.413833e-05 -6.643132e-06 -1.803237e-05 2.687523e-06 -5.999046e-06 1.336341e-05 5.036357e-06 1.788128e-05 7.893386e-06 1.160461e-05 1.399382e-07 -3.125716e-06 -1.443107e-05 -1.687061e-05 -2.751000e-05 -1.784769e-05 -3.045497e-05 -1.474322e-06 -2.195067e-05 2.191235e-05 -1.448953e-05 3.555059e-05 -2.751052e-05 4.030783e-05 -7.352277e-05 6.235004e-05 -1.626268e-04 1.275606e-04 -2.962954e-04 2.302211e-04 -3.997638e-04 2.975831e-04 -3.218255e-04 1.858874e-04 -1.086512e-04 -1.184409e-04 -2.038144e-04 -1.938264e-04 -6.557059e-04 2.211782e-04 -8.225483e-04 6.378396e-04 -5.998119e-04 6.448990e-04 -3.368010e-04 4.033940e-04 -1.763164e-04 1.721019e-04 -9.458367e-05 4.163358e-05 -5.159141e-05 -7.097145e-06 -2.705121e-05 
1.407906e-05 1.455106e-05 1.221670e-05 9.796149e-06 1.213649e-05 2.103523e-06 8.503981e-06 -8.039510e-06 2.178588e-06 -1.711954e-05 -1.732287e-06 -1.900378e-05 2.488229e-06 -9.319943e-06 1.588502e-05 9.332628e-06 3.200960e-05 2.733131e-05 4.048008e-05 3.464525e-05 3.439365e-05 2.735072e-05 1.525222e-05 8.232737e-06 -6.927638e-06 -1.517356e-05 -1.773645e-05 -3.181613e-05 -8.128319e-06 -3.311245e-05 1.334311e-05 -2.657078e-05 2.463837e-05 -3.646752e-05 2.307078e-05 -8.353207e-05 4.816792e-05 -1.902703e-04 1.474996e-04 -3.881813e-04 3.313342e-04 -5.862163e-04 5.104289e-04 -4.931443e-04 4.528000e-04 -4.886721e-05 1.065832e-04 -5.632013e-06 2.132161e-04 -7.101646e-04 7.495654e-04 -1.173830e-03 1.093852e-03 -9.168389e-04 9.129166e-04 -4.795673e-04 5.376454e-04 -1.825487e-04 2.489076e-04 -4.338910e-05 9.492473e-05 4.803182e-06 3.208072e-05 1.554201e-05 
-3.058205e-05 -1.362128e-05 -6.713351e-06 -4.406363e-06 5.354428e-06 -6.817968e-06 4.051863e-06 -1.811896e-05 -5.225487e-06 -3.110381e-05 -1.246354e-05 -3.511538e-05 -7.868745e-06 -2.289071e-05 1.016648e-05 1.203250e-06 3.109638e-05 2.183122e-05 3.895091e-05 2.460783e-05 2.445212e-05 6.688509e-06 -8.167585e-06 -2.363253e-05 -4.131412e-05 -5.137532e-05 -5.098088e-05 -5.882291e-05 -2.640781e-05 -3.828399e-05 6.821346e-06 -1.312442e-05 5.771807e-06 -2.405240e-05 -2.145736e-05 -8.165495e-05 -8.257414e-06 -2.290134e-04 1.070931e-04 -6.010313e-04 3.364502e-04 -1.165179e-03 5.598202e-04 -1.387922e-03 3.603056e-04 -8.139797e-04 -6.249396e-04 -8.410939e-04 -9.280653e-04 -2.184630e-03 5.433132e-04 -2.217683e-03 1.752923e-03 -1.167831e-03 1.441675e-03 -4.944794e-04 6.663717e-04 -2.322459e-04 1.669947e-04 -1.276666e-04 -2.133753e-05 -7.120763e-05 -5.120043e-05 -3.529887e-05 
9.119586e-06 1.603406e-05 1.883882e-05 1.086950e-05 2.423173e-05 3.114417e-06 1.971555e-05 -1.047382e-05 8.177819e-06 -2.494135e-05 -1.766554e-07 -2.803443e-05 6.560745e-06 -9.779013e-06 3.085144e-05 2.467799e-05 5.945820e-05 5.521992e-05 7.263631e-05 6.445214e-05 5.969569e-05 5.067832e-05 2.405908e-05 1.982597e-05 -2.087215e-05 -2.468589e-05 -5.681859e-05 -7.475453e-05 -7.079794e-05 -1.065110e-04 -7.476381e-05 -1.083780e-04 -1.040586e-04 -1.162305e-04 -1.520085e-04 -1.486901e-04 -1.425694e-04 -2.854389e-04 -2.214938e-06 -8.482946e-04 2.766412e-04 -2.007020e-03 4.951816e-04 -2.998046e-03 9.192708e-06 -2.345090e-03 -1.513938e-03 -1.516635e-03 -2.536192e-04 -2.881326e-03 2.198892e-03 -3.243645e-03 3.203905e-03 -1.710050e-03 2.130435e-03 -5.741509e-04 9.549069e-04 -9.483632e-05 3.246926e-04 3.316687e-05 8.082750e-05 3.996734e-05 1.362631e-05 2.541047e-05 
-3.578777e-05 -1.553862e-05 1.494124e-05 5.093921e-06 3.583864e-05 7.116818e-06 3.292893e-05 -6.934343e-06 1.642184e-05 -2.654706e-05 3.194895e-06 -3.259269e-05 1.088941e-05 -1.035667e-05 4.174197e-05 3.100979e-05 7.429036e-05 6.016669e-05 8.048792e-05 5.402976e-05 4.887942e-05 1.650394e-05 -1.413715e-05 -4.058658e-05 -9.250667e-05 -1.164961e-04 -1.648767e-04 -2.085129e-04 -2.205567e-04 -2.837836e-04 -2.892487e-04 -3.121084e-04 -4.004599e-04 -3.248949e-04 -4.503804e-04 -2.736399e-04 -3.971467e-04 -3.444716e-04 -2.798490e-04 -1.360827e-03 -2.939539e-04 -4.325827e-03 -1.009460e-03 -8.662933e-03 -3.333143e-03 -9.466331e-03 -7.215824e-03 -6.175803e-03 -5.090259e-03 -7.620065e-03 3.351320e-03 -4.625117e-03 6.833562e-03 -1.028630e-03 3.705845e-03 -2.879271e-04 1.005735e-03 -2.495729e-04 -3.220203e-06 -1.956188e-04 -1.749057e-04 -1.179137e-04 -1.145761e-04 -5.575423e-05 
1.322527e-05 1.360268e-06 4.213660e-05 1.238065e-05 6.012347e-05 2.023362e-05 6.282906e-05 1.534959e-05 5.307919e-05 1.615505e-06 4.363083e-05 -2.539266e-06 5.202890e-05 2.179185e-05 8.184152e-05 6.706732e-05 1.115311e-04 9.808950e-05 1.158182e-04 9.523622e-05 9.063764e-05 7.522777e-05 3.834128e-05 3.563794e-05 -6.712174e-05 -1.037510e-04 -2.915452e-04 -4.571578e-04 -6.793522e-04 -9.581633e-04 -1.125776e-03 -1.256945e-03 -1.389127e-03 -1.199430e-03 -1.263751e-03 -8.208749e-04 -1.025986e-03 -6.171159e-04 -1.042017e-03 -2.350728e-03 -2.151387e-03 -9.192833e-03 -6.831466e-03 -2.345115e-02 -1.781398e-02 -3.330578e-02 -2.797742e-02 -1.884393e-02 -2.566712e-03 -4.991656e-03 1.926468e-02 1.002151e-03 1.777913e-02 1.965418e-03 7.220444e-03 1.096915e-03 2.076988e-03 5.405953e-04 4.422074e-04 2.214125e-04 4.360677e-05 6.395617e-05 -9.632211e-06 7.408535e-06 
6.645740e-06 -1.697094e-05 7.987060e-05 3.489197e-05 1.149738e-04 6.475398e-05 1.258850e-04 7.096714e-05 1.183848e-04 5.667763e-05 1.034965e-04 4.048466e-05 9.932493e-05 4.728866e-05 1.105716e-04 7.246169e-05 1.142346e-04 7.442955e-05 8.976233e-05 3.530960e-05 4.234204e-05 -1.745278e-05 -4.932667e-05 -1.253732e-04 -3.045707e-04 -5.149015e-04 -9.498397e-04 -1.503155e-03 -2.129056e-03 -2.955046e-03 -3.511585e-03 -3.866150e-03 -4.207933e-03 -3.549281e-03 -3.171294e-03 -2.046194e-03 -2.097435e-03 -1.074962e-03 -2.502544e-03 -4.656472e-03 -7.794551e-03 -2.289301e-02 -2.852281e-02 -7.298184e-02 -7.514341e-02 -1.242791e-01 -1.050225e-01 -5.763740e-02 -1.315979e-02 1.300129e-02 7.944218e-02 4.508556e-02 6.069075e-02 2.158857e-02 1.766682e-02 4.932218e-03 2.722190e-03 4.225423e-04 -2.027921e-04 -2.555632e-04 -3.390487e-04 -2.029001e-04 -1.344449e-04 -9.481519e-05 
5.329105e-05 -3.534023e-05 1.055481e-04 3.842963e-05 1.623553e-04 1.142914e-04 2.164701e-04 1.697817e-04 2.479660e-04 1.766622e-04 2.322546e-04 1.233582e-04 1.653196e-04 4.134547e-05 7.199688e-05 -2.420811e-05 -1.261990e-05 -6.968405e-05 -5.485814e-05 -9.208492e-05 -3.805177e-05 -5.813324e-05 -6.299379e-05 -1.453503e-04 -5.539113e-04 -1.090864e-03 -2.408829e-03 -4.078692e-03 -6.347833e-03 -8.988963e-03 -1.092316e-02 -1.207672e-02 -1.223165e-02 -1.025292e-02 -7.901335e-03 -5.320167e-03 -4.570657e-03 -2.674420e-03 -6.350738e-03 -1.086794e-02 -2.396617e-02 -5.868283e-02 -9.828467e-02 -2.196850e-01 -2.862625e-01 -4.385683e-01 -4.130140e-01 -1.917110e-01 7.070630e-02 2.046380e-01 3.958444e-01 2.747970e-01 2.214905e-01 9.680831e-02 5.521966e-02 2.276973e-02 1.084498e-02 4.860101e-03 1.804523e-03 8.675192e-04 2.203711e-04 4.019896e-05 2.743849e-05 -7.579384e-05 
1.560301e-04 -2.247406e-06 2.246309e-04 1.343012e-04 3.155285e-04 2.769158e-04 4.213197e-04 3.889801e-04 4.775337e-04 3.777883e-04 3.835195e-04 1.625256e-04 9.668725e-05 -2.018759e-04 -2.859080e-04 -5.237193e-04 -5.714796e-04 -6.703950e-04 -6.204570e-04 -6.482578e-04 -4.677467e-04 -5.431925e-04 -5.150811e-04 -9.716410e-04 -1.986983e-03 -3.865512e-03 -7.321708e-03 -1.226802e-02 -1.842641e-02 -2.602276e-02 -3.138336e-02 -3.499686e-02 -3.499186e-02 -2.812925e-02 -1.847285e-02 -1.215023e-02 -8.568354e-03 -5.622494e-03 -1.359001e-02 -2.638562e-02 -6.684697e-02 -1.580356e-01 -3.139442e-01 -6.792661e-01 -1.002654e+00 -1.525187e+00 -1.449178e+00 -5.119392e-01 3.427517e-01 1.019985e+00 1.688958e+00 1.284161e+00 8.413676e-01 3.834011e-01 1.740641e-01 6.926946e-02 2.679678e-02 1.012596e-02 3.373064e-03 9.703566e-04 3.379556e-04 -1.433897e-04 1.055155e-04 -1.303895e-04 
1.897460e-04 -5.628878e-05 2.642663e-04 1.845257e-04 4.582615e-04 4.795810e-04 7.106821e-04 7.228496e-04 8.261711e-04 6.334417e-04 4.793077e-04 -8.304034e-05 -4.980224e-04 -1.305837e-03 -1.748189e-03 -2.322464e-03 -2.486179e-03 -2.532159e-03 -2.293850e-03 -2.083001e-03 -1.555583e-03 -1.513025e-03 -1.442293e-03 -2.463596e-03 -5.052462e-03 -9.876953e-03 -1.920792e-02 -3.252628e-02 -5.081312e-02 -7.265355e-02 -8.996785e-02 -1.010795e-01 -9.701584e-02 -7.359615e-02 -4.099812e-02 -2.625214e-02 -1.647568e-02 -1.273034e-02 -3.102447e-02 -6.692227e-02 -1.783484e-01 -4.217999e-01 -9.310314e-01 -2.001854e+00 -3.281751e+00 -4.812590e+00 -5.348119e+00 -1.490343e+00 2.264084e+00 4.322616e+00 6.900062e+00 5.088652e+00 2.987547e+00 1.375429e+00 5.924642e-01 2.442951e-01 9.663789e-02 3.858770e-02 1.499936e-02 5.250882e-03 2.273820e-03 3.094584e-04 4.028156e-04 -1.900519e-04 
4.811127e-04 9.273871e-05 5.191510e-04 4.557536e-04 8.437472e-04 9.528009e-04 1.266214e-03 1.297465e-03 1.273819e-03 7.699471e-04 4.082754e-05 -1.382995e-03 -2.802589e-03 -4.800773e-03 -6.126401e-03 -7.386501e-03 -7.645476e-03 -7.372360e-03 -6.485783e-03 -5.617869e-03 -4.264111e-03 -4.204112e-03 -4.257394e-03 -7.523387e-03 -1.425429e-02 -2.790824e-02 -5.188427e-02 -8.812462e-02 -1.370097e-01 -1.990070e-01 -2.501579e-01 -2.904761e-01 -2.818917e-01 -1.925444e-01 -7.922736e-02 -4.967036e-02 -2.837139e-02 -2.409326e-02 -6.282874e-02 -1.610439e-01 -4.430579e-01 -1.087573e+00 -2.564515e+00 -5.651407e+00 -1.008300e+01 -1.279990e+01 -1.361138e+01 -3.413858e-01 7.230770e+00 1.465964e+01 2.741555e+01 1.794684e+01 9.668734e+00 4.307934e+00 1.759981e+00 6.860405e-01 2.639278e-01 9.873464e-02 3.928478e-02 1.333820e-02 6.156694e-03 1.380972e-03 1.198659e-03 2.438709e-06 
5.930364e-04 1.206192e-04 6.728444e-04 7.293333e-04 1.293013e-03 1.583158e-03 1.997894e-03 1.980076e-03 1.564176e-03 1.911494e-04 -2.007735e-03 -5.645827e-03 -9.609836e-03 -1.458120e-02 -1.804063e-02 -2.068722e-02 -2.075248e-02 -1.907068e-02 -1.615869e-02 -1.334061e-02 -1.015786e-02 -9.861421e-03 -1.066645e-02 -1.850992e-02 -3.512537e-02 -6.818701e-02 -1.278993e-01 -2.195212e-01 -3.539598e-01 -5.290323e-01 -7.048297e-01 -8.430480e-01 -8.085083e-01 -4.660523e-01 -1.093882e-01 -8.339136e-02 -4.796776e-02 -4.392763e-02 -1.259275e-01 -3.644533e-01 -1.021166e+00 -2.617413e+00 -6.546660e+00 -1.510883e+01 -2.759693e+01 -3.387826e+01 -5.984749e+01 -1.868125e+01 2.503408e+01 2.600496e+01 6.205838e+01 5.598285e+01 2.764131e+01 1.216980e+01 4.927310e+00 1.905661e+00 7.206101e-01 2.631298e-01 1.016489e-01 3.452207e-02 1.456105e-02 3.763839e-03 2.231027e-03 1.302290e-04 