# vtk DataFile Version 2.0
Comment goes here
ASCII

DATASET STRUCTURED_POINTS
DIMENSIONS    64   64   1

ORIGIN    0.000   0.000   0.000
SPACING   0.0156250.015625   1.000

POINT_DATA   4096
SCALARS Omega double
LOOKUP_TABLE default

-8.327328e-04 -1.961036e-03 -3.686143e-03 -6.435489e-03 -1.057415e-02 -1.654899e-02 -2.455649e-02 -3.459641e-02 -4.617284e-02 -5.839983e-02 -6.993057e-02 -7.937214e-02 -8.525314e-02 -8.678683e-02 -8.337974e-02 -7.544979e-02 -6.359942e-02 -4.908213e-02 -3.351011e-02 -1.851502e-02 -6.351249e-03 1.370651e-03 2.800736e-03 -2.388698e-03 -1.371570e-02 -2.897796e-02 -4.505896e-02 -5.879956e-02 -6.756565e-02 -7.043951e-02 -6.771425e-02 -6.079245e-02 -5.143963e-02 -4.106743e-02 -3.079505e-02 -2.109493e-02 -1.212981e-02 -3.895498e-03 3.961803e-03 1.165284e-02 1.975298e-02 2.861429e-02 3.849513e-02 4.929201e-02 6.028509e-02 7.042505e-02 7.838127e-02 8.298026e-02 8.365597e-02 8.034437e-02 7.375763e-02 6.483211e-02 5.467061e-02 4.431240e-02 3.445606e-02 2.578530e-02 1.845750e-02 1.272704e-02 8.360239e-03 5.288754e-03 3.146369e-03 1.736721e-03 7.539431e-04 -2.391473e-05 
-4.224043e-04 -1.030046e-03 -1.935820e-03 -3.370502e-03 -5.506578e-03 -8.591977e-03 -1.272049e-02 -1.793194e-02 -2.398569e-02 -3.049792e-02 -3.678712e-02 -4.220028e-02 -4.592311e-02 -4.755235e-02 -4.666218e-02 -4.343582e-02 -3.809220e-02 -3.124325e-02 -2.367341e-02 -1.614709e-02 -9.778067e-03 -5.280287e-03 -3.572219e-03 -4.803554e-03 -8.824809e-03 -1.471921e-02 -2.113201e-02 -2.672926e-02 -3.030660e-02 -3.143904e-02 -3.020146e-02 -2.713915e-02 -2.304088e-02 -1.844862e-02 -1.389415e-02 -9.503550e-03 -5.350081e-03 -1.368736e-03 2.631129e-03 6.756884e-03 1.128206e-02 1.630961e-02 2.191749e-02 2.794171e-02 3.398122e-02 3.940684e-02 4.355846e-02 4.577558e-02 4.584292e-02 4.371529e-02 3.986874e-02 3.481161e-02 2.919203e-02 2.356166e-02 1.827923e-02 1.369094e-02 9.827896e-03 6.826804e-03 4.522227e-03 2.902845e-03 1.752981e-03 9.927293e-04 4.508548e-04 2.017495e-05 
-2.736630e-04 -6.024283e-04 -1.067395e-03 -1.793914e-03 -2.843414e-03 -4.357436e-03 -6.356677e-03 -8.897174e-03 -1.184236e-02 -1.506523e-02 -1.821284e-02 -2.103638e-02 -2.309258e-02 -2.423331e-02 -2.417343e-02 -2.301804e-02 -2.079444e-02 -1.778961e-02 -1.432908e-02 -1.075129e-02 -7.569434e-03 -5.091098e-03 -3.760951e-03 -3.659337e-03 -4.763759e-03 -6.733060e-03 -9.007922e-03 -1.107151e-02 -1.239530e-02 -1.279695e-02 -1.228432e-02 -1.103845e-02 -9.401115e-03 -7.532946e-03 -5.684400e-03 -3.842334e-03 -2.049624e-03 -2.358299e-04 1.687381e-03 3.772798e-03 6.146048e-03 8.819519e-03 1.181802e-02 1.499974e-02 1.816687e-02 2.094430e-02 2.303407e-02 2.405447e-02 2.395742e-02 2.269151e-02 2.056749e-02 1.783615e-02 1.487004e-02 1.194640e-02 9.240688e-03 6.925790e-03 4.980179e-03 3.484697e-03 2.319980e-03 1.504928e-03 9.075269e-04 5.090250e-04 2.119412e-04 -2.870481e-05 
-1.322647e-04 -3.034655e-04 -5.301867e-04 -8.800049e-04 -1.363555e-03 -2.061932e-03 -2.964446e-03 -4.123075e-03 -5.456707e-03 -6.947242e-03 -8.411934e-03 -9.784201e-03 -1.082595e-02 -1.150843e-02 -1.165035e-02 -1.131968e-02 -1.047971e-02 -9.261393e-03 -7.783069e-03 -6.183765e-03 -4.686441e-03 -3.414812e-03 -2.571887e-03 -2.204825e-03 -2.318688e-03 -2.814532e-03 -3.466859e-03 -4.107421e-03 -4.512491e-03 -4.614213e-03 -4.411679e-03 -3.942036e-03 -3.360176e-03 -2.672152e-03 -2.006108e-03 -1.301007e-03 -5.918919e-04 1.809595e-04 1.053127e-03 2.046833e-03 3.224707e-03 4.564927e-03 6.088702e-03 7.683577e-03 9.274703e-03 1.063001e-02 1.164222e-02 1.207843e-02 1.196689e-02 1.124857e-02 1.012867e-02 8.712484e-03 7.215155e-03 5.764002e-03 4.443627e-03 3.336518e-03 2.408624e-03 1.708876e-03 1.153725e-03 7.704837e-04 4.772412e-04 2.810147e-04 1.259597e-04 -2.381435e-06 
-1.102924e-04 -2.068980e-04 -3.196270e-04 -4.903900e-04 -7.026805e-04 -1.011235e-03 -1.384824e-03 -1.874782e-03 -2.417959e-03 -3.047267e-03 -3.654314e-03 -4.259292e-03 -4.723806e-03 -5.080705e-03 -5.207741e-03 -5.163864e-03 -4.888721e-03 -4.450128e-03 -3.867180e-03 -3.200009e-03 -2.530688e-03 -1.913150e-03 -1.432366e-03 -1.122548e-03 -9.887539e-04 -1.021375e-03 -1.129175e-03 -1.274645e-03 -1.365202e-03 -1.378802e-03 -1.317350e-03 -1.168551e-03 -1.008867e-03 -7.954649e-04 -6.019175e-04 -3.624744e-04 -1.097331e-04 2.018055e-04 5.804727e-04 1.034033e-03 1.595437e-03 2.235140e-03 2.978036e-03 3.739220e-03 4.509719e-03 5.139643e-03 5.615932e-03 5.786046e-03 5.708342e-03 5.319420e-03 4.758831e-03 4.053934e-03 3.332126e-03 2.643161e-03 2.027896e-03 1.525290e-03 1.102676e-03 7.935804e-04 5.382836e-04 3.658596e-04 2.222891e-04 1.244982e-04 3.895020e-05 -3.567232e-05 
-5.084167e-05 -1.028793e-04 -1.547680e-04 -2.352635e-04 -3.197853e-04 -4.483426e-04 -5.857792e-04 -7.776729e-04 -9.739051e-04 -1.220516e-03 -1.447317e-03 -1.700248e-03 -1.893152e-03 -2.074340e-03 -2.160557e-03 -2.199955e-03 -2.136864e-03 -2.010076e-03 -1.806325e-03 -1.552987e-03 -1.273460e-03 -9.928476e-04 -7.407078e-04 -5.429856e-04 -3.969708e-04 -3.218642e-04 -2.765525e-04 -2.686598e-04 -2.596654e-04 -2.451106e-04 -2.313104e-04 -1.929838e-04 -1.755422e-04 -1.275500e-04 -9.828704e-05 -3.118469e-05 4.510780e-05 1.623925e-04 3.207085e-04 5.176924e-04 7.776164e-04 1.067074e-03 1.418072e-03 1.761328e-03 2.122432e-03 2.395502e-03 2.611256e-03 2.661374e-03 2.612227e-03 2.402362e-03 2.130538e-03 1.787876e-03 1.453388e-03 1.139737e-03 8.679062e-04 6.554439e-04 4.765266e-04 3.542397e-04 2.467805e-04 1.788992e-04 1.146792e-04 7.113840e-05 2.814296e-05 -1.177433e-05 
-5.530563e-05 -8.888370e-05 -1.142879e-04 -1.564290e-04 -1.860189e-04 -2.385273e-04 -2.757447e-04 -3.416835e-04 -3.901081e-04 -4.717240e-04 -5.315586e-04 -6.241473e-04 -6.867142e-04 -7.722938e-04 -8.175753e-04 -8.667478e-04 -8.690864e-04 -8.547212e-04 -7.966453e-04 -7.139957e-04 -6.029475e-04 -4.813208e-04 -3.528576e-04 -2.400977e-04 -1.352707e-04 -6.286557e-05 -1.214061e-06 3.231564e-05 5.433539e-05 6.538221e-05 5.750007e-05 5.631259e-05 3.104096e-05 2.693818e-05 8.251320e-06 1.865069e-05 3.445445e-05 7.656429e-05 1.432769e-04 2.268153e-04 3.481230e-04 4.739660e-04 6.395140e-04 7.864014e-04 9.552421e-04 1.065079e-03 1.164282e-03 1.169100e-03 1.144994e-03 1.033450e-03 9.091334e-04 7.461611e-04 5.985432e-04 4.607506e-04 3.464936e-04 2.621825e-04 1.899200e-04 1.457344e-04 1.008279e-04 7.473391e-05 4.340795e-05 2.072082e-05 -4.783066e-06 -3.132730e-05 
-2.219202e-05 -4.176037e-05 -5.069328e-05 -7.237549e-05 -7.762202e-05 -9.870186e-05 -9.943638e-05 -1.199686e-04 -1.192810e-04 -1.441327e-04 -1.494937e-04 -1.852877e-04 -2.030478e-04 -2.494394e-04 -2.761321e-04 -3.196456e-04 -3.394285e-04 -3.589464e-04 -3.525161e-04 -3.344526e-04 -2.936730e-04 -2.435085e-04 -1.784816e-04 -1.168047e-04 -4.889259e-05 3.366833e-06 5.376315e-05 8.553377e-05 1.064623e-04 1.163313e-04 1.071012e-04 1.002146e-04 7.302999e-05 6.073988e-05 3.732781e-05 3.352002e-05 3.313208e-05 4.659711e-05 7.684737e-05 1.096769e-04 1.688980e-04 2.188326e-04 2.986608e-04 3.544364e-04 4.337138e-04 4.689368e-04 5.137024e-04 4.997874e-04 4.869661e-04 4.231463e-04 3.661225e-04 2.863396e-04 2.226151e-04 1.631718e-04 1.184616e-04 8.929185e-05 6.471910e-05 5.440327e-05 4.020811e-05 3.453068e-05 2.327762e-05 1.421109e-05 3.236528e-06 -1.155005e-05 
-3.036983e-05 -4.566957e-05 -4.831314e-05 -6.252869e-05 -5.843578e-05 -6.781088e-05 -5.519105e-05 -5.899691e-05 -4.064072e-05 -4.384232e-05 -2.835344e-05 -3.982970e-05 -3.702683e-05 -6.184811e-05 -7.400046e-05 -1.061622e-04 -1.235328e-04 -1.478678e-04 -1.544684e-04 -1.575536e-04 -1.427096e-04 -1.226684e-04 -8.816771e-05 -5.477463e-05 -1.299895e-05 1.962959e-05 5.259994e-05 7.321010e-05 8.523781e-05 8.937930e-05 7.858843e-05 6.969958e-05 4.626594e-05 3.361692e-05 1.405709e-05 6.988978e-06 3.908041e-06 6.484515e-06 2.314622e-05 3.458221e-05 6.775235e-05 8.533969e-05 1.285829e-04 1.464587e-04 1.884049e-04 1.949558e-04 2.195651e-04 2.033806e-04 2.006483e-04 1.637595e-04 1.408718e-04 1.007626e-04 7.565959e-05 4.925867e-05 3.346850e-05 2.352363e-05 1.626569e-05 1.457965e-05 1.005534e-05 7.746142e-06 2.270861e-06 -5.048322e-06 -1.174175e-05 -2.425881e-05 
-8.736025e-06 -1.895379e-05 -1.580008e-05 -2.501760e-05 -1.679833e-05 -2.225165e-05 -7.850759e-06 -9.239450e-06 8.830492e-06 7.570790e-06 2.251534e-05 1.465452e-05 1.889804e-05 4.058588e-07 -8.113251e-06 -3.345965e-05 -4.808432e-05 -6.984136e-05 -7.902258e-05 -8.724007e-05 -8.231318e-05 -7.413495e-05 -5.456000e-05 -3.508254e-05 -8.296348e-06 1.318832e-05 3.575212e-05 5.051135e-05 5.938909e-05 6.313019e-05 5.650685e-05 5.103872e-05 3.616488e-05 2.748032e-05 1.581874e-05 9.478338e-06 9.243205e-06 7.053366e-06 1.970280e-05 2.049116e-05 4.276360e-05 4.458506e-05 7.126744e-05 7.124331e-05 9.536576e-05 8.865654e-05 1.022512e-04 8.491096e-05 8.410454e-05 5.888549e-05 4.855748e-05 2.506462e-05 1.500411e-05 1.519126e-06 -2.328384e-06 -5.484862e-06 -4.032041e-06 -2.554180e-06 3.543498e-07 5.471974e-07 2.339842e-06 -1.677179e-06 -1.207787e-06 -9.354150e-06 
-1.678817e-05 -2.674338e-05 -2.204382e-05 -3.014663e-05 -2.082518e-05 -2.502738e-05 -1.042810e-05 -1.076008e-05 6.847616e-06 7.145719e-06 2.234301e-05 1.802950e-05 2.492771e-05 1.269978e-05 9.421811e-06 -8.475171e-06 -1.752096e-05 -3.394984e-05 -4.064733e-05 -4.840964e-05 -4.631608e-05 -4.284563e-05 -3.104822e-05 -1.942763e-05 -2.770370e-06 1.056751e-05 2.423998e-05 3.298029e-05 3.729436e-05 3.828737e-05 3.246167e-05 2.689803e-05 1.646991e-05 8.251863e-06 1.349922e-06 -6.139066e-06 -3.988117e-06 -9.812370e-06 1.975413e-06 -2.948172e-06 1.549372e-05 1.050400e-05 3.127001e-05 2.507962e-05 4.343119e-05 3.414607e-05 4.578829e-05 3.198968e-05 3.545727e-05 1.881064e-05 1.719710e-05 2.391367e-06 9.816236e-07 -8.211430e-06 -6.428474e-06 -1.034451e-05 -6.144190e-06 -8.207204e-06 -3.940319e-06 -7.567180e-06 -4.680363e-06 -1.138662e-05 -9.640922e-06 -1.892131e-05 
-1.137431e-06 -9.342534e-06 -1.819403e-06 -8.701754e-06 1.135849e-06 -3.303422e-06 9.128532e-06 6.817859e-06 2.011215e-05 1.763002e-05 2.813757e-05 2.218650e-05 2.625489e-05 1.508914e-05 1.189538e-05 -2.563069e-06 -9.743992e-06 -2.252904e-05 -2.809859e-05 -3.435324e-05 -3.385765e-05 -3.184997e-05 -2.451030e-05 -1.636348e-05 -5.314764e-06 4.436984e-06 1.398392e-05 2.076840e-05 2.463553e-05 2.597230e-05 2.382598e-05 2.008788e-05 1.584856e-05 9.133713e-06 8.383986e-06 5.170750e-07 6.946756e-06 -1.530439e-06 1.211785e-05 2.877030e-06 2.084974e-05 1.086542e-05 2.904177e-05 1.839321e-05 3.282498e-05 2.111072e-05 2.927459e-05 1.606694e-05 1.825014e-05 4.391624e-06 3.949668e-06 -8.325857e-06 -7.114832e-06 -1.598222e-05 -1.089260e-05 -1.655818e-05 -8.328975e-06 -1.266563e-05 -3.503852e-06 -8.494985e-06 -1.633872e-07 -6.779392e-06 2.830411e-07 -7.707062e-06 
-8.763266e-06 -1.800380e-05 -1.023719e-05 -1.730511e-05 -7.773082e-06 -1.212819e-05 -6.713344e-07 -2.868005e-06 9.113814e-06 7.160310e-06 1.693933e-05 1.275008e-05 1.769262e-05 9.985261e-06 9.462127e-06 -4.716493e-07 -4.287110e-06 -1.304348e-05 -1.638175e-05 -2.059192e-05 -2.041006e-05 -1.885341e-05 -1.455781e-05 -8.768758e-06 -2.370488e-06 4.325810e-06 9.545296e-06 1.374005e-05 1.540470e-05 1.510507e-05 1.357418e-05 8.685335e-06 7.165413e-06 -1.245118e-06 1.402400e-06 -9.448054e-06 -6.511787e-08 -1.268479e-05 3.038256e-06 -1.061541e-05 8.488979e-06 -5.002308e-06 1.344427e-05 1.282124e-06 1.564195e-05 5.043981e-06 1.392786e-05 4.071378e-06 8.809518e-06 -1.248662e-06 2.612421e-06 -7.847834e-06 -1.795391e-06 -1.229926e-05 -3.082815e-06 -1.341776e-05 -2.269826e-06 -1.260850e-05 -1.567576e-06 -1.215094e-05 -2.605977e-06 -1.337164e-05 -5.470996e-06 -1.591222e-05 
3.939945e-06 -5.081657e-06 4.433364e-06 -2.567397e-06 6.762495e-06 1.732749e-06 1.118449e-05 7.465452e-06 1.625615e-05 1.248714e-05 1.900161e-05 1.369264e-05 1.646605e-05 9.084138e-06 7.980633e-06 -3.036630e-07 -3.676581e-06 -1.041444e-05 -1.351404e-05 -1.641730e-05 -1.721160e-05 -1.553994e-05 -1.355517e-05 -8.536324e-06 -4.911367e-06 8.873934e-07 4.302509e-06 8.135665e-06 1.019309e-05 1.016497e-05 1.155122e-05 6.972458e-06 1.020552e-05 1.218039e-06 9.324986e-06 -3.631681e-06 1.103427e-05 -5.176311e-06 1.514680e-05 -2.880843e-06 1.962863e-05 2.040709e-06 2.199298e-05 7.035665e-06 2.058767e-05 8.986132e-06 1.534744e-05 5.777112e-06 7.919731e-06 -1.989886e-06 9.940477e-07 -1.093169e-05 -3.064009e-06 -1.710416e-05 -3.489689e-06 -1.860361e-05 -1.329261e-06 -1.627566e-05 1.500769e-06 -1.242164e-05 3.448949e-06 -9.034180e-06 4.047525e-06 -6.799820e-06 
-3.753668e-06 -1.406200e-05 -4.780122e-06 -1.197590e-05 -3.255874e-06 -7.932113e-06 6.712769e-07 -2.390377e-06 5.627126e-06 2.932912e-06 9.246563e-06 5.725096e-06 9.285070e-06 4.502306e-06 5.116011e-06 -1.416509e-07 -1.544200e-06 -5.585186e-06 -7.461591e-06 -8.682052e-06 -9.774039e-06 -7.652207e-06 -7.606395e-06 -3.076895e-06 -2.406601e-06 2.495341e-06 3.061116e-06 5.965406e-06 6.399478e-06 5.321656e-06 6.937610e-06 6.177992e-07 5.904917e-06 -6.227382e-06 5.317903e-06 -1.254220e-05 6.424717e-06 -1.609443e-05 8.843449e-06 -1.578220e-05 1.092120e-05 -1.193271e-05 1.097154e-05 -6.426684e-06 8.576712e-06 -2.225481e-06 5.074420e-06 -1.793602e-06 2.673588e-06 -5.292215e-06 2.703938e-06 -1.048334e-05 4.609580e-06 -1.464924e-05 6.613164e-06 -1.649131e-05 7.143133e-06 -1.643129e-05 5.667859e-06 -1.566228e-05 2.645849e-06 -1.508301e-05 -8.998909e-07 -1.477452e-05 
8.019508e-06 -2.829078e-06 7.566578e-06 5.057865e-08 8.218805e-06 2.940223e-06 9.807041e-06 5.759154e-06 1.145758e-05 7.685141e-06 1.180196e-05 7.600113e-06 9.670913e-06 4.950508e-06 4.940318e-06 4.246761e-07 -1.124338e-06 -4.166467e-06 -6.407976e-06 -6.828331e-06 -9.051726e-06 -6.500402e-06 -8.375681e-06 -3.623056e-06 -5.075402e-06 1.232931e-07 -6.681108e-07 2.686339e-06 3.432815e-06 2.637908e-06 6.675494e-06 -1.948295e-07 9.522514e-06 -4.715880e-06 1.291003e-05 -9.036663e-06 1.731808e-05 -1.112358e-05 2.201210e-05 -9.482989e-06 2.505344e-05 -4.020835e-06 2.435975e-05 3.071435e-06 1.939082e-05 7.531963e-06 1.216575e-05 5.484393e-06 6.221148e-06 -3.202846e-06 3.988891e-06 -1.426745e-05 5.252784e-06 -2.230915e-05 7.987092e-06 -2.454445e-05 1.020023e-05 -2.168443e-05 1.098317e-05 -1.627909e-05 1.044159e-05 -1.072013e-05 9.200996e-06 -6.223579e-06 
-6.433651e-07 -1.228314e-05 -2.495057e-06 -9.583352e-06 -2.268383e-06 -6.597925e-06 -5.715740e-07 -3.454352e-06 1.687533e-06 -6.959114e-07 3.437177e-06 9.778616e-07 3.795561e-06 1.185984e-06 2.495216e-06 2.250214e-07 5.103024e-08 -1.004386e-06 -2.507875e-06 -1.500740e-06 -4.174921e-06 -7.593571e-07 -4.412172e-06 9.101189e-07 -3.265154e-06 2.493845e-06 -1.162922e-06 2.707803e-06 1.411984e-06 5.381683e-07 4.196142e-06 -4.307636e-06 7.252886e-06 -1.115930e-05 1.082032e-05 -1.840737e-05 1.480210e-05 -2.379409e-05 1.812014e-05 -2.501250e-05 1.866877e-05 -2.088629e-05 1.460899e-05 -1.301836e-05 6.688704e-06 -6.168342e-06 -5.737951e-07 -5.251229e-06 -1.543919e-06 -1.082610e-05 5.187392e-06 -1.867228e-05 1.496946e-05 -2.417674e-05 2.141608e-05 -2.567059e-05 2.154109e-05 -2.407149e-05 1.661284e-05 -2.104724e-05 9.739803e-06 -1.782978e-05 3.541354e-06 -1.492730e-05 
1.171905e-05 -7.783115e-07 9.368929e-06 1.878462e-06 8.152979e-06 3.305723e-06 7.585108e-06 3.930676e-06 7.173863e-06 3.942538e-06 6.501080e-06 3.422661e-06 5.292054e-06 2.500386e-06 3.460780e-06 1.420204e-06 1.102052e-06 4.887671e-07 -1.538437e-06 -3.789018e-08 -4.065833e-06 -5.920507e-08 -5.924085e-06 2.954232e-07 -6.445173e-06 6.318924e-07 -5.025256e-06 3.145269e-07 -1.406040e-06 -1.419640e-06 4.133011e-06 -5.181166e-06 1.095676e-05 -1.093782e-05 1.854916e-05 -1.748085e-05 2.654331e-05 -2.222903e-05 3.381185e-05 -2.178920e-05 3.763201e-05 -1.384637e-05 3.475135e-05 -4.607232e-07 2.475825e-05 1.024777e-05 1.284047e-05 8.872919e-06 7.047784e-06 -5.998842e-06 1.074949e-05 -2.519823e-05 1.973052e-05 -3.756872e-05 2.704414e-05 -3.882647e-05 2.888978e-05 -3.180904e-05 2.586415e-05 -2.168582e-05 2.062885e-05 -1.230561e-05 1.552947e-05 -5.309969e-06 
7.560474e-07 -1.108646e-05 -2.096788e-06 -7.928539e-06 -2.896934e-06 -5.999441e-06 -2.780501e-06 -4.886426e-06 -2.284943e-06 -4.062119e-06 -1.492301e-06 -2.994102e-06 -3.592706e-07 -1.363413e-06 9.240899e-07 7.293263e-07 1.776666e-06 2.782681e-06 1.457602e-06 4.205074e-06 -3.976202e-07 4.687850e-06 -3.303825e-06 4.315003e-06 -5.887952e-06 3.303634e-06 -6.422470e-06 1.542835e-06 -3.743710e-06 -1.718881e-06 2.035043e-06 -7.616313e-06 9.748496e-06 -1.672810e-05 1.823004e-05 -2.803237e-05 2.671945e-05 -3.848541e-05 3.363624e-05 -4.337621e-05 3.522469e-05 -3.834183e-05 2.706193e-05 -2.424557e-05 9.592633e-06 -1.086340e-05 -6.875059e-06 -1.051472e-05 -7.505985e-06 -2.417375e-05 1.111538e-05 -3.992528e-05 3.525617e-05 -4.736465e-05 4.835361e-05 -4.543392e-05 4.547230e-05 -3.827916e-05 3.262531e-05 -2.979518e-05 1.817818e-05 -2.203370e-05 7.174377e-06 -1.574852e-05 
1.500093e-05 2.308460e-06 1.047826e-05 4.267364e-06 7.565188e-06 3.878423e-06 5.184550e-06 2.159769e-06 3.101246e-06 2.718339e-07 1.768062e-06 -6.006131e-07 1.727240e-06 2.514714e-07 2.849615e-06 2.548957e-06 3.979378e-06 5.072492e-06 3.445039e-06 6.432498e-06 2.243127e-07 5.988989e-06 -5.063737e-06 4.154378e-06 -1.006587e-05 1.877488e-06 -1.167567e-05 -3.112642e-07 -7.740658e-06 -3.087648e-06 1.493816e-06 -8.249413e-06 1.368619e-05 -1.737242e-05 2.671704e-05 -2.992111e-05 4.030015e-05 -4.209397e-05 5.389833e-05 -4.675498e-05 6.308198e-05 -3.584960e-05 6.001834e-05 -9.020586e-06 4.137805e-05 1.702301e-05 1.820251e-05 1.702317e-05 1.105011e-05 -1.451833e-05 2.658627e-05 -5.330246e-05 5.030683e-05 -7.264681e-05 6.404913e-05 -6.754287e-05 6.184874e-05 -4.898927e-05 4.926069e-05 -2.884328e-05 3.450867e-05 -1.314836e-05 2.267820e-05 -3.074802e-06 
-9.987285e-08 -9.225435e-06 -2.963316e-06 -5.588454e-06 -4.018736e-06 -5.070953e-06 -5.204986e-06 -6.553544e-06 -6.556535e-06 -8.201478e-06 -6.822248e-06 -7.949288e-06 -4.687451e-06 -4.590031e-06 -1.879274e-07 1.227205e-06 4.643857e-06 7.132857e-06 6.687653e-06 1.054132e-05 3.783868e-06 1.038003e-05 -3.527962e-06 7.622802e-06 -1.176179e-05 4.305664e-06 -1.598867e-05 1.689780e-06 -1.261987e-05 -1.328143e-06 -1.887144e-06 -8.090526e-06 1.261040e-05 -2.165111e-05 2.780353e-05 -4.184381e-05 4.367536e-05 -6.442381e-05 5.984818e-05 -8.048929e-05 6.957388e-05 -7.737232e-05 5.988380e-05 -5.036447e-05 2.466376e-05 -2.019512e-05 -1.541958e-05 -2.198822e-05 -1.874120e-05 -5.833314e-05 2.668664e-05 -9.180070e-05 8.146614e-05 -9.806952e-05 1.033218e-04 -8.338168e-05 8.767606e-05 -6.228974e-05 5.551337e-05 -4.295675e-05 2.647843e-05 -2.765854e-05 8.310872e-06 -1.649590e-05 
1.718199e-05 7.360522e-06 1.115443e-05 8.010188e-06 7.194280e-06 5.106168e-06 3.049941e-06 1.052380e-07 -1.218236e-06 -4.670037e-06 -3.741511e-06 -6.371762e-06 -2.448298e-06 -3.217619e-06 2.756521e-06 3.822897e-06 8.858977e-06 1.111379e-05 1.110004e-05 1.473908e-05 6.175762e-06 1.324432e-05 -5.163925e-06 8.345704e-06 -1.782032e-05 3.346899e-06 -2.445940e-05 5.077211e-07 -1.954534e-05 -1.326887e-06 -3.545493e-06 -7.021086e-06 1.712829e-05 -2.178137e-05 3.715922e-05 -4.653583e-05 5.880772e-05 -7.637572e-05 8.630458e-05 -9.874282e-05 1.133007e-04 -9.089633e-05 1.190741e-04 -3.801462e-05 8.570079e-05 2.794660e-05 3.349824e-05 3.422438e-05 2.150850e-05 -4.068983e-05 6.656185e-05 -1.249046e-04 1.220782e-04 -1.502914e-04 1.422531e-04 -1.211605e-04 1.228191e-04 -7.467823e-05 8.592550e-05 -3.595335e-05 5.201487e-05 -1.137141e-05 2.937286e-05 1.747684e-06 
-4.193823e-06 -5.466648e-06 -4.140881e-06 -1.186974e-06 -3.992484e-06 -2.821193e-06 -6.702662e-06 -8.490636e-06 -1.126405e-05 -1.446001e-05 -1.391740e-05 -1.597995e-05 -1.072348e-05 -1.000012e-05 -1.051084e-06 1.972479e-06 1.054603e-05 1.403039e-05 1.650162e-05 1.995024e-05 1.132059e-05 1.772601e-05 -4.414171e-06 1.058366e-05 -2.350668e-05 4.352596e-06 -3.503688e-05 3.032811e-06 -3.046162e-05 4.348196e-06 -1.056394e-05 -8.226848e-07 1.463282e-05 -2.148171e-05 3.778476e-05 -5.868344e-05 6.389059e-05 -1.076981e-04 1.008544e-04 -1.563705e-04 1.391829e-04 -1.724081e-04 1.434188e-04 -1.234426e-04 7.673296e-05 -4.733428e-05 -2.885959e-05 -5.389049e-05 -4.750409e-05 -1.556343e-04 6.839400e-05 -2.242113e-04 1.955637e-04 -2.075494e-04 2.219647e-04 -1.519977e-04 1.624988e-04 -9.961956e-05 8.462842e-05 -6.114179e-05 2.957659e-05 -3.438961e-05 3.285382e-06 -1.633765e-05 
1.696868e-05 1.466114e-05 1.200311e-05 1.360074e-05 8.587217e-06 7.524942e-06 2.469886e-06 -2.407700e-06 -5.719945e-06 -1.231062e-05 -1.126547e-05 -1.607969e-05 -8.582936e-06 -9.295209e-06 3.521320e-06 6.056452e-06 1.862477e-05 2.141283e-05 2.584515e-05 2.791816e-05 1.752562e-05 2.328655e-05 -5.329006e-06 1.262040e-05 -3.284930e-05 4.121610e-06 -4.987496e-05 3.462309e-06 -4.358406e-05 8.076847e-06 -1.465745e-05 5.244810e-06 1.974510e-05 -1.864904e-05 4.549254e-05 -6.575248e-05 7.478384e-05 -1.322622e-04 1.305938e-04 -2.072796e-04 2.085224e-04 -2.375067e-04 2.568924e-04 -1.464144e-04 2.017744e-04 2.619492e-05 6.394295e-05 5.984102e-05 3.655722e-05 -1.344255e-04 1.696141e-04 -3.218708e-04 3.012200e-04 -3.239248e-04 3.155337e-04 -2.141216e-04 2.372322e-04 -1.049816e-04 1.409069e-04 -3.699812e-05 7.034580e-05 -3.834797e-06 3.235622e-05 1.006111e-05 
-1.184680e-05 1.464440e-06 -2.864079e-06 7.176110e-06 8.747557e-07 2.666862e-06 -4.273371e-06 -9.801047e-06 -1.525243e-05 -2.367660e-05 -2.348418e-05 -2.895659e-05 -1.933089e-05 -1.828078e-05 -1.811573e-07 5.315271e-06 2.435018e-05 2.817803e-05 3.757369e-05 3.673012e-05 2.776436e-05 2.838842e-05 -4.216369e-06 1.206475e-05 -4.489751e-05 1.531382e-06 -7.234575e-05 6.754422e-06 -6.707376e-05 2.273828e-05 -3.055788e-05 2.509333e-05 1.020352e-05 -9.165912e-06 3.637358e-05 -7.665817e-05 7.010687e-05 -1.749127e-04 1.492742e-04 -3.119246e-04 2.683214e-04 -4.253659e-04 3.428285e-04 -3.731993e-04 2.260300e-04 -1.747107e-04 -8.431944e-05 -1.897057e-04 -1.721611e-04 -4.934456e-04 1.682913e-04 -5.983642e-04 4.914595e-04 -4.451841e-04 4.838177e-04 -2.671518e-04 2.872588e-04 -1.522922e-04 1.081569e-04 -8.475328e-05 1.425903e-05 -4.230214e-05 -1.410724e-05 -1.474834e-05 
1.307978e-05 2.282322e-05 1.523450e-05 2.157247e-05 1.582499e-05 1.326117e-05 7.811041e-06 -3.096796e-06 -7.220214e-06 -2.155162e-05 -1.915915e-05 -2.942954e-05 -1.480770e-05 -1.602489e-05 1.001649e-05 1.484841e-05 4.178234e-05 4.360019e-05 5.714118e-05 5.168588e-05 4.139491e-05 3.807653e-05 -2.698475e-06 1.675541e-05 -5.808840e-05 4.700781e-06 -9.791656e-05 1.248694e-05 -9.494883e-05 3.329288e-05 -4.721611e-05 3.522488e-05 4.274643e-06 -1.168825e-05 2.155331e-05 -9.498730e-05 4.627070e-05 -2.183093e-04 1.557856e-04 -4.333741e-04 3.578606e-04 -6.632521e-04 5.388324e-04 -6.184993e-04 4.443442e-04 -1.940296e-04 -5.047329e-06 -4.818151e-05 -7.126137e-05 -5.742056e-04 4.059635e-04 -9.396815e-04 7.663252e-04 -7.151489e-04 7.120174e-04 -3.494179e-04 4.489506e-04 -1.170627e-04 2.141326e-04 -1.887407e-05 7.987403e-05 1.190357e-05 2.539354e-05 2.016657e-05 
-1.951816e-05 1.280487e-05 8.000518e-06 2.309768e-05 1.916060e-05 1.719618e-05 1.113632e-05 -3.669454e-06 -1.012020e-05 -2.948454e-05 -2.810293e-05 -4.062317e-05 -2.207164e-05 -2.045718e-05 1.478713e-05 2.455913e-05 6.179178e-05 6.334099e-05 8.454030e-05 6.922068e-05 6.356448e-05 4.456229e-05 3.116260e-06 1.203814e-05 -7.649238e-05 -3.336491e-06 -1.414091e-04 1.488149e-05 -1.539080e-04 5.386757e-05 -1.107026e-04 5.537380e-05 -6.594112e-05 -2.467209e-05 -5.836215e-05 -1.326813e-04 -2.877338e-05 -2.805500e-04 1.311309e-04 -6.387743e-04 4.188653e-04 -1.203891e-03 6.566951e-04 -1.500071e-03 3.948963e-04 -1.110834e-03 -6.721870e-04 -1.103229e-03 -1.015480e-03 -2.009955e-03 2.993044e-04 -1.792795e-03 1.304555e-03 -9.321863e-04 1.068034e-03 -4.251882e-04 4.604675e-04 -2.176896e-04 8.150640e-05 -1.170451e-04 -4.590717e-05 -5.408924e-05 -5.016202e-05 -1.252786e-05 
6.664818e-06 2.756925e-05 2.730590e-05 3.457851e-05 3.989620e-05 3.208263e-05 3.477893e-05 1.384849e-05 1.396924e-05 -1.282386e-05 -5.099087e-06 -2.475390e-05 3.770680e-06 9.375312e-07 5.003444e-05 5.634441e-05 1.048707e-04 9.822236e-05 1.230322e-04 9.374486e-05 8.731603e-05 5.754575e-05 1.125206e-05 2.522701e-05 -8.670877e-05 1.463642e-05 -1.878760e-04 1.877759e-05 -2.596109e-04 1.123907e-05 -2.711267e-04 -5.378095e-05 -2.494104e-04 -1.912584e-04 -2.612601e-04 -2.751352e-04 -2.377314e-04 -3.778111e-04 -2.303151e-05 -9.414988e-04 3.441863e-04 -2.143873e-03 5.939079e-04 -3.233560e-03 3.836973e-05 -2.742893e-03 -1.810657e-03 -1.947276e-03 -1.632356e-03 -3.046249e-03 8.048502e-04 -3.011693e-03 2.173156e-03 -1.430137e-03 1.723440e-03 -3.913853e-04 8.473332e-04 -2.778900e-05 2.911097e-04 3.723466e-05 5.997016e-05 2.917391e-05 5.454976e-07 2.272250e-05 
-1.314189e-05 3.017046e-05 4.410816e-05 5.612297e-05 7.189406e-05 6.228508e-05 7.118546e-05 4.557392e-05 4.811367e-05 1.544502e-05 2.506859e-05 1.812921e-06 3.692906e-05 3.599136e-05 9.624536e-05 1.049996e-04 1.611147e-04 1.446283e-04 1.730343e-04 1.169363e-04 1.225537e-04 5.887750e-05 3.121948e-05 1.759618e-05 -1.032872e-04 -1.121050e-05 -3.058430e-04 -7.452824e-05 -5.731858e-04 -2.216553e-04 -8.291080e-04 -4.628199e-04 -9.481941e-04 -6.986291e-04 -8.621060e-04 -6.342392e-04 -6.850869e-04 -5.453781e-04 -3.449281e-04 -1.459872e-03 -1.013710e-04 -4.291166e-03 -6.077638e-04 -8.410136e-03 -2.847037e-03 -9.698016e-03 -7.000820e-03 -8.071987e-03 -6.851228e-03 -9.611565e-03 5.448353e-04 -5.013516e-03 4.556272e-03 -1.097860e-03 2.704539e-03 -3.204311e-04 6.718196e-04 -2.484337e-04 -8.607505e-05 -1.663465e-04 -1.793534e-04 -7.797727e-05 -9.861306e-05 -1.311575e-05 
7.640963e-06 2.351949e-05 6.507695e-05 6.706232e-05 1.131938e-04 1.054842e-04 1.432425e-04 1.236719e-04 1.497316e-04 1.171092e-04 1.421428e-04 1.059538e-04 1.509555e-04 1.261765e-04 1.938367e-04 1.731244e-04 2.274573e-04 1.761691e-04 1.935508e-04 1.032600e-04 1.143363e-04 3.790945e-05 3.560984e-05 4.001056e-05 -1.096287e-04 -1.242795e-05 -5.469168e-04 -4.083134e-04 -1.470543e-03 -1.289883e-03 -2.572692e-03 -2.221655e-03 -2.997203e-03 -2.537261e-03 -2.453330e-03 -1.703566e-03 -1.765036e-03 -9.158968e-04 -1.271404e-03 -2.521597e-03 -1.891831e-03 -9.049666e-03 -5.653000e-03 -2.184054e-02 -1.442534e-02 -2.946468e-02 -2.259498e-02 -1.853725e-02 -1.217411e-02 -1.419181e-02 5.426013e-03 -5.108568e-03 1.123828e-02 9.364184e-04 6.159548e-03 1.220800e-03 2.039619e-03 5.607647e-04 4.212678e-04 1.613815e-04 8.309358e-10 1.560883e-05 -4.037405e-05 -5.286109e-06 
4.067290e-05 5.908762e-05 1.370618e-04 1.381824e-04 2.184061e-04 2.197532e-04 2.919786e-04 2.868097e-04 3.385182e-04 3.078085e-04 3.351296e-04 2.724793e-04 2.946522e-04 2.208388e-04 2.533071e-04 1.810105e-04 1.971158e-04 9.799160e-05 1.003407e-04 -3.236077e-05 3.602225e-05 -7.129271e-05 2.964414e-05 -2.775658e-05 -2.149540e-04 -3.612556e-04 -1.430268e-03 -1.905528e-03 -4.303538e-03 -4.920550e-03 -7.961522e-03 -7.673732e-03 -9.360240e-03 -7.626851e-03 -6.559526e-03 -4.173303e-03 -3.834971e-03 -1.595120e-03 -2.949569e-03 -4.644567e-03 -6.750450e-03 -2.096352e-02 -2.323972e-02 -6.237264e-02 -5.831806e-02 -9.915939e-02 -7.294176e-02 -5.134534e-02 -3.118245e-02 -3.351129e-02 2.600995e-02 1.274814e-02 3.673958e-02 1.436240e-02 1.359964e-02 4.333255e-03 2.359112e-03 5.583848e-04 -1.677088e-04 -1.220258e-04 -2.952765e-04 -1.087852e-04 -1.030139e-04 -2.088356e-05 
4.867983e-05 1.981750e-05 1.728806e-04 1.805272e-04 3.394776e-04 3.885205e-04 5.462666e-04 6.021853e-04 7.164472e-04 6.969070e-04 7.074719e-04 5.386468e-04 4.448633e-04 1.584804e-04 4.304779e-05 -2.313452e-04 -3.060298e-04 -4.955193e-04 -4.993644e-04 -6.216079e-04 -4.426948e-04 -4.738742e-04 -2.134330e-04 -2.530455e-04 -6.495681e-04 -1.346779e-03 -3.970551e-03 -6.420709e-03 -1.258158e-02 -1.632501e-02 -2.362577e-02 -2.433127e-02 -2.680944e-02 -2.227626e-02 -1.675979e-02 -1.007266e-02 -8.109869e-03 -2.779502e-03 -6.888583e-03 -1.021606e-02 -2.096850e-02 -5.159457e-02 -7.937161e-02 -1.796147e-01 -2.145506e-01 -3.254309e-01 -2.470221e-01 -9.809793e-02 -1.379751e-02 1.005753e-02 1.539531e-01 1.174818e-01 1.330080e-01 6.696651e-02 4.637730e-02 2.093910e-02 1.098319e-02 4.799535e-03 1.841164e-03 7.175758e-04 1.244807e-04 -5.216767e-05 -3.515702e-05 -8.890340e-05 
1.995129e-04 1.259570e-04 3.556708e-04 3.801150e-04 6.415648e-04 7.676131e-04 1.048756e-03 1.185593e-03 1.353740e-03 1.275214e-03 1.118280e-03 6.082267e-04 8.265705e-05 -7.592778e-04 -1.354072e-03 -2.052283e-03 -2.341025e-03 -2.564512e-03 -2.424320e-03 -2.328148e-03 -1.712693e-03 -1.531121e-03 -8.725045e-04 -1.215147e-03 -2.322933e-03 -5.268709e-03 -1.195116e-02 -2.068680e-02 -3.612558e-02 -4.906179e-02 -6.677326e-02 -7.029011e-02 -7.524205e-02 -5.927869e-02 -3.987781e-02 -2.158120e-02 -1.483890e-02 -3.887069e-03 -1.314806e-02 -2.212643e-02 -5.571760e-02 -1.314730e-01 -2.472066e-01 -5.310563e-01 -7.401091e-01 -1.082140e+00 -7.616999e-01 -1.092718e-01 8.425752e-02 2.122172e-01 7.512253e-01 6.317211e-01 4.867778e-01 2.566524e-01 1.336221e-01 6.098188e-02 2.599289e-02 1.122317e-02 3.973515e-03 1.539259e-03 4.913780e-04 6.161691e-05 1.384009e-04 -1.824261e-05 
2.197274e-04 9.602479e-05 4.751505e-04 5.876868e-04 1.039694e-03 1.359353e-03 1.851507e-03 2.145819e-03 2.318166e-03 2.000971e-03 1.251676e-03 -2.703490e-04 -2.102954e-03 -4.552827e-03 -6.485264e-03 -8.287362e-03 -8.852223e-03 -8.806588e-03 -7.946462e-03 -6.924817e-03 -5.305915e-03 -4.425878e-03 -3.248137e-03 -4.162632e-03 -7.523830e-03 -1.578776e-02 -3.314505e-02 -5.805983e-02 -9.829552e-02 -1.370370e-01 -1.803939e-01 -1.912717e-01 -1.973394e-01 -1.528683e-01 -8.934227e-02 -4.303863e-02 -2.509534e-02 -2.432975e-03 -2.562763e-02 -5.434218e-02 -1.470579e-01 -3.416497e-01 -7.218034e-01 -1.520569e+00 -2.376709e+00 -3.424648e+00 -2.641236e+00 -6.428600e-02 5.421388e-01 1.651676e+00 3.554227e+00 2.711666e+00 1.766540e+00 9.130282e-01 4.551564e-01 2.078629e-01 9.101614e-02 3.816316e-02 1.552704e-02 5.442389e-03 2.279209e-03 3.064232e-04 3.447113e-04 -1.497113e-04 