# vtk DataFile Version 2.0
Comment goes here
ASCII

DATASET STRUCTURED_POINTS
DIMENSIONS    64   64   1

ORIGIN    0.000   0.000   0.000
SPACING   0.0156250.015625   1.000

POINT_DATA   4096
SCALARS Omega double
LOOKUP_TABLE default

-6.589928e-04 -1.275624e-03 -2.104031e-03 -3.219479e-03 -4.579597e-03 -6.084508e-03 -7.361660e-03 -7.997535e-03 -7.451918e-03 -5.529106e-03 -2.561297e-03 3.834701e-04 1.598395e-03 -5.542403e-04 -7.091722e-03 -1.750713e-02 -2.966371e-02 -3.961557e-02 -4.402644e-02 -4.098773e-02 -3.153495e-02 -1.993125e-02 -1.047445e-02 -7.219098e-03 -1.101558e-02 -2.116683e-02 -3.440138e-02 -4.749768e-02 -5.723832e-02 -6.182500e-02 -6.128090e-02 -5.615156e-02 -4.848053e-02 -3.926054e-02 -2.995172e-02 -2.096439e-02 -1.250397e-02 -4.713139e-03 2.919767e-03 1.042778e-02 1.853751e-02 2.758199e-02 3.786936e-02 4.938070e-02 6.123691e-02 7.227115e-02 8.077869e-02 8.537916e-02 8.533427e-02 8.080648e-02 7.269151e-02 6.245649e-02 5.123399e-02 4.043684e-02 3.044507e-02 2.214174e-02 1.526025e-02 1.020131e-02 6.391299e-03 3.902163e-03 2.164267e-03 1.122746e-03 3.809672e-04 -1.365256e-04 
-3.764017e-04 -7.010040e-04 -1.108214e-03 -1.625059e-03 -2.201461e-03 -2.797747e-03 -3.223906e-03 -3.355139e-03 -3.017809e-03 -2.288030e-03 -1.495329e-03 -1.278810e-03 -2.494218e-03 -5.710285e-03 -1.109356e-02 -1.780739e-02 -2.448741e-02 -2.911094e-02 -3.025289e-02 -2.750205e-02 -2.159288e-02 -1.479475e-02 -9.019751e-03 -6.205908e-03 -6.584495e-03 -9.986452e-03 -1.486778e-02 -1.994749e-02 -2.378747e-02 -2.556834e-02 -2.534324e-02 -2.315505e-02 -2.002864e-02 -1.616484e-02 -1.233839e-02 -8.539247e-03 -4.904754e-03 -1.391815e-03 2.253294e-03 6.064302e-03 1.038441e-02 1.530658e-02 2.092360e-02 2.711516e-02 3.339727e-02 3.909771e-02 4.337570e-02 4.548810e-02 4.513124e-02 4.239765e-02 3.783333e-02 3.224930e-02 2.625434e-02 2.062666e-02 1.547596e-02 1.129310e-02 7.806785e-03 5.290681e-03 3.342572e-03 2.090277e-03 1.168382e-03 6.236357e-04 2.047928e-04 -8.215545e-05 
-2.560045e-04 -4.331784e-04 -6.424529e-04 -8.895655e-04 -1.134929e-03 -1.368303e-03 -1.490319e-03 -1.487437e-03 -1.312271e-03 -1.092157e-03 -1.045729e-03 -1.537598e-03 -2.949229e-03 -5.454023e-03 -8.947478e-03 -1.279477e-02 -1.622059e-02 -1.819871e-02 -1.822252e-02 -1.626580e-02 -1.280931e-02 -9.043693e-03 -5.702539e-03 -3.796083e-03 -3.227121e-03 -4.104607e-03 -5.629285e-03 -7.404620e-03 -8.769342e-03 -9.395748e-03 -9.335153e-03 -8.487186e-03 -7.379099e-03 -5.917323e-03 -4.534364e-03 -3.068839e-03 -1.645236e-03 -1.563681e-04 1.482891e-03 3.310993e-03 5.469104e-03 7.977257e-03 1.085883e-02 1.400563e-02 1.717789e-02 1.999444e-02 2.207015e-02 2.299812e-02 2.267909e-02 2.114669e-02 1.872075e-02 1.582794e-02 1.277507e-02 9.987227e-03 7.452638e-03 5.460900e-03 3.775879e-03 2.601574e-03 1.647599e-03 1.057555e-03 5.822108e-04 3.116269e-04 7.464026e-05 -8.339141e-05 
-1.540103e-04 -2.528183e-04 -3.614688e-04 -4.804385e-04 -5.791898e-04 -6.631652e-04 -6.757018e-04 -6.396926e-04 -5.441824e-04 -4.929222e-04 -6.129556e-04 -1.089375e-03 -2.092334e-03 -3.636470e-03 -5.615024e-03 -7.630953e-03 -9.283171e-03 -1.010961e-02 -9.892898e-03 -8.750835e-03 -6.884568e-03 -4.936694e-03 -3.134069e-03 -2.004030e-03 -1.391957e-03 -1.449006e-03 -1.767807e-03 -2.270960e-03 -2.672247e-03 -2.838724e-03 -2.835909e-03 -2.526372e-03 -2.213512e-03 -1.717261e-03 -1.309195e-03 -8.009993e-04 -3.100583e-04 2.747176e-04 9.614874e-04 1.782527e-03 2.796525e-03 3.994929e-03 5.394593e-03 6.906639e-03 8.436526e-03 9.757171e-03 1.072140e-02 1.109284e-02 1.087101e-02 1.004816e-02 8.816313e-03 7.382518e-03 5.897592e-03 4.586862e-03 3.400440e-03 2.513533e-03 1.742014e-03 1.237606e-03 7.926348e-04 5.373470e-04 2.985437e-04 1.711023e-04 3.633942e-05 -5.087587e-05 
-1.193794e-04 -1.777036e-04 -2.390651e-04 -3.010208e-04 -3.424295e-04 -3.734414e-04 -3.584309e-04 -3.268327e-04 -2.712397e-04 -2.655198e-04 -3.688642e-04 -6.793438e-04 -1.259469e-03 -2.095501e-03 -3.107494e-03 -4.078522e-03 -4.819827e-03 -5.121062e-03 -4.912058e-03 -4.288293e-03 -3.330084e-03 -2.381918e-03 -1.458527e-03 -8.713358e-04 -4.468787e-04 -3.499705e-04 -3.325998e-04 -4.426800e-04 -5.364759e-04 -5.736069e-04 -6.064363e-04 -5.176394e-04 -4.935686e-04 -3.592111e-04 -3.003182e-04 -1.467448e-04 -9.419754e-06 2.134249e-04 4.882847e-04 8.482533e-04 1.307003e-03 1.855539e-03 2.507753e-03 3.200848e-03 3.912381e-03 4.503894e-03 4.940484e-03 5.076471e-03 4.949423e-03 4.530284e-03 3.936184e-03 3.258466e-03 2.568111e-03 1.985502e-03 1.454429e-03 1.089514e-03 7.509102e-04 5.567157e-04 3.539578e-04 2.554706e-04 1.334211e-04 7.649745e-05 -4.262969e-06 -5.349499e-05 
-6.672489e-05 -9.923050e-05 -1.310417e-04 -1.608116e-04 -1.724874e-04 -1.785710e-04 -1.538328e-04 -1.258290e-04 -8.551994e-05 -8.176578e-05 -1.388091e-04 -3.063512e-04 -6.067194e-04 -1.023448e-03 -1.510643e-03 -1.962515e-03 -2.285165e-03 -2.405074e-03 -2.273231e-03 -1.979529e-03 -1.515704e-03 -1.087822e-03 -6.352597e-04 -3.519571e-04 -9.685177e-05 -1.866028e-06 8.100300e-05 8.769600e-05 8.582358e-05 9.261100e-05 5.849025e-05 8.237567e-05 3.383013e-05 6.141804e-05 2.665996e-05 6.834602e-05 8.958144e-05 1.732625e-04 2.777548e-04 4.289933e-04 6.293422e-04 8.657923e-04 1.158566e-03 1.455893e-03 1.773938e-03 2.017377e-03 2.204867e-03 2.236171e-03 2.163819e-03 1.948719e-03 1.669057e-03 1.356500e-03 1.046515e-03 8.020401e-04 5.756234e-04 4.436030e-04 3.037939e-04 2.456918e-04 1.575547e-04 1.299442e-04 6.843224e-05 4.697866e-05 -6.235313e-07 -2.669646e-05 
-5.712959e-05 -7.741117e-05 -9.655037e-05 -1.132822e-04 -1.160685e-04 -1.165876e-04 -9.591685e-05 -7.721338e-05 -4.903207e-05 -4.527783e-05 -6.984880e-05 -1.525688e-04 -2.949129e-04 -4.900360e-04 -7.096236e-04 -9.062040e-04 -1.035256e-03 -1.072516e-03 -9.913207e-04 -8.522154e-04 -6.273247e-04 -4.414376e-04 -2.206322e-04 -9.728561e-05 4.389314e-05 9.427710e-05 1.579760e-04 1.712508e-04 1.767913e-04 1.785758e-04 1.404458e-04 1.368584e-04 7.530546e-05 7.142186e-05 1.990694e-05 2.984392e-05 1.864822e-05 5.442974e-05 9.397671e-05 1.609233e-04 2.500765e-04 3.513879e-04 4.838326e-04 6.072265e-04 7.506515e-04 8.454726e-04 9.290146e-04 9.275968e-04 8.939907e-04 7.872146e-04 6.627676e-04 5.239390e-04 3.904875e-04 2.953397e-04 2.023085e-04 1.645234e-04 1.077622e-04 1.007000e-04 6.040644e-05 5.886467e-05 2.419856e-05 1.685079e-05 -1.457644e-05 -2.991182e-05 
-2.642223e-05 -3.656749e-05 -4.457102e-05 -5.132785e-05 -4.676464e-05 -4.277911e-05 -2.349748e-05 -9.059328e-06 1.302759e-05 1.780151e-05 1.008700e-05 -2.996733e-05 -9.654723e-05 -1.900375e-04 -2.906872e-04 -3.836794e-04 -4.388384e-04 -4.611561e-04 -4.195282e-04 -3.667631e-04 -2.595808e-04 -1.862157e-04 -7.623582e-05 -2.421786e-05 5.574462e-05 8.341777e-05 1.273205e-04 1.410828e-04 1.472086e-04 1.518600e-04 1.231151e-04 1.207321e-04 7.348658e-05 7.082870e-05 3.102532e-05 3.721330e-05 2.382626e-05 4.229377e-05 5.848690e-05 8.787526e-05 1.291494e-04 1.686881e-04 2.291957e-04 2.731602e-04 3.368277e-04 3.638487e-04 3.986377e-04 3.818527e-04 3.634885e-04 3.041100e-04 2.467996e-04 1.823026e-04 1.243943e-04 8.962841e-05 5.246041e-05 4.964719e-05 2.827037e-05 3.925884e-05 2.207619e-05 3.107342e-05 1.296272e-05 1.382247e-05 -4.422390e-06 -1.114692e-05 
-2.688009e-05 -3.413107e-05 -3.908098e-05 -4.375583e-05 -3.948361e-05 -3.720174e-05 -2.341863e-05 -1.520494e-05 5.559579e-08 2.716063e-06 2.023926e-06 -1.782838e-05 -4.712223e-05 -9.112781e-05 -1.343420e-04 -1.756263e-04 -1.948479e-04 -2.031085e-04 -1.764217e-04 -1.529278e-04 -9.563299e-05 -6.541826e-05 -5.815232e-06 1.430866e-05 5.984670e-05 6.961664e-05 9.406499e-05 9.712957e-05 9.546837e-05 9.286157e-05 6.646094e-05 6.030809e-05 2.208777e-05 1.818427e-05 -1.314407e-05 -9.538929e-06 -2.183846e-05 -1.090633e-05 -3.539186e-06 1.125242e-05 3.353390e-05 4.997518e-05 8.219453e-05 9.739277e-05 1.309032e-04 1.361313e-04 1.558098e-04 1.409759e-04 1.358517e-04 1.042101e-04 8.108082e-05 5.171817e-05 2.822511e-05 1.725385e-05 2.746149e-06 9.230071e-06 4.142449e-07 1.288558e-05 3.570739e-06 1.227867e-05 3.043009e-07 1.695654e-06 -1.129430e-05 -1.607862e-05 
-8.061401e-06 -1.107255e-05 -1.084791e-05 -1.208398e-05 -5.507151e-06 -2.604314e-06 9.507631e-06 1.504053e-05 2.677598e-05 2.774835e-05 2.904920e-05 1.658694e-05 1.702108e-06 -2.419869e-05 -4.637759e-05 -7.201883e-05 -8.189421e-05 -9.258855e-05 -7.889504e-05 -7.426015e-05 -4.337330e-05 -3.343335e-05 1.286962e-06 9.543775e-06 3.835633e-05 4.408964e-05 6.031519e-05 6.370239e-05 6.242354e-05 6.294574e-05 4.511347e-05 4.401992e-05 1.893855e-05 1.966280e-05 -9.676786e-08 4.653062e-06 -2.247105e-06 5.012045e-06 1.073290e-05 1.731922e-05 3.165467e-05 3.572191e-05 5.450192e-05 5.477531e-05 7.268381e-05 6.604680e-05 7.566751e-05 5.934010e-05 5.615758e-05 3.408815e-05 2.233176e-05 5.308131e-06 -5.891184e-06 -9.849099e-06 -1.583452e-05 -8.317347e-06 -1.112692e-05 2.573231e-07 -3.096259e-06 5.506597e-06 2.369387e-07 3.455467e-06 -2.527384e-06 -3.836274e-06 
-1.243807e-05 -1.605381e-05 -1.562379e-05 -1.783095e-05 -1.293732e-05 -1.236547e-05 -3.865383e-06 -1.752593e-06 6.434404e-06 5.789006e-06 8.000251e-06 1.267529e-07 -6.069869e-06 -2.036698e-05 -2.948114e-05 -4.274413e-05 -4.444445e-05 -4.961063e-05 -3.834714e-05 -3.579957e-05 -1.503355e-05 -1.011872e-05 1.267517e-05 1.617208e-05 3.448682e-05 3.579153e-05 4.450182e-05 4.359905e-05 3.947556e-05 3.653258e-05 2.102271e-05 1.752546e-05 -2.294784e-06 -3.898251e-06 -1.913479e-05 -1.771833e-05 -2.307968e-05 -2.005268e-05 -1.561084e-05 -1.335524e-05 -2.110338e-06 -2.012693e-06 1.261240e-05 9.928407e-06 2.415474e-05 1.758909e-05 2.708361e-05 1.599942e-05 1.829614e-05 5.335659e-06 2.473890e-06 -6.708920e-06 -1.016325e-05 -1.168982e-05 -1.329415e-05 -8.442186e-06 -9.165179e-06 -2.527553e-06 -4.298124e-06 5.342110e-08 -3.384458e-06 -2.893777e-06 -6.986711e-06 -9.605208e-06 
1.735623e-07 -1.660285e-06 1.824957e-06 8.965299e-07 6.945474e-06 7.482809e-06 1.514672e-05 1.592108e-05 2.234661e-05 2.043484e-05 2.212199e-05 1.494668e-05 1.083546e-05 -8.432280e-07 -7.066931e-06 -1.874944e-05 -2.074710e-05 -2.799613e-05 -2.203271e-05 -2.410325e-05 -1.151616e-05 -1.050401e-05 4.419610e-06 6.458688e-06 1.908900e-05 2.106292e-05 2.738684e-05 2.858050e-05 2.632605e-05 2.646020e-05 1.692373e-05 1.666832e-05 4.903503e-06 5.357608e-06 -2.601331e-06 -1.296644e-06 -1.989919e-06 -1.117013e-06 5.149465e-06 4.005970e-06 1.461133e-05 1.073288e-05 2.252764e-05 1.591450e-05 2.586779e-05 1.655791e-05 2.215168e-05 1.064430e-05 1.118437e-05 -3.380223e-07 -2.772692e-06 -1.085277e-05 -1.293260e-05 -1.540951e-05 -1.531254e-05 -1.309362e-05 -1.135670e-05 -7.413897e-06 -5.527024e-06 -2.640682e-06 -1.452930e-06 -8.451024e-07 -5.146821e-08 -1.338446e-06 
-5.461934e-06 -9.207093e-06 -6.148122e-06 -8.759410e-06 -4.065230e-06 -5.330689e-06 3.900608e-07 -4.752897e-07 4.485167e-06 2.181781e-06 4.381986e-06 -7.226464e-07 -1.644184e-06 -8.821675e-06 -1.050838e-05 -1.702872e-05 -1.584505e-05 -1.926923e-05 -1.324646e-05 -1.338854e-05 -3.565027e-06 -1.982163e-06 8.708258e-06 1.036723e-05 1.865337e-05 1.936565e-05 2.254716e-05 2.179745e-05 1.869806e-05 1.650597e-05 8.532473e-06 5.542634e-06 -3.433840e-06 -6.434450e-06 -1.198578e-05 -1.486389e-05 -1.435014e-05 -1.774526e-05 -1.123684e-05 -1.579201e-05 -5.296666e-06 -1.099312e-05 7.970578e-07 -5.587398e-06 4.928231e-06 -1.875526e-06 5.506508e-06 -1.604848e-06 2.266245e-06 -4.539819e-06 -2.788182e-06 -8.114559e-06 -6.399314e-06 -9.508294e-06 -6.697803e-06 -8.101785e-06 -4.547378e-06 -5.624421e-06 -2.338284e-06 -4.299929e-06 -1.901165e-06 -5.115654e-06 -3.392415e-06 -7.362253e-06 
4.260722e-06 1.224858e-06 6.510200e-06 4.437436e-06 9.987916e-06 8.678437e-06 1.405668e-05 1.258542e-05 1.660131e-05 1.361884e-05 1.506347e-05 9.732547e-06 8.570713e-06 1.518868e-06 -5.287417e-07 -7.333862e-06 -7.733865e-06 -1.235165e-05 -9.559601e-06 -1.131740e-05 -5.715439e-06 -5.188442e-06 1.401345e-06 3.143609e-06 8.454223e-06 1.036166e-05 1.253566e-05 1.376545e-05 1.219047e-05 1.227925e-05 8.238057e-06 7.148554e-06 3.552965e-06 1.355900e-06 1.331591e-06 -2.193019e-06 3.022670e-06 -2.257434e-06 7.650688e-06 5.317981e-07 1.281031e-05 4.449040e-06 1.608395e-05 7.410215e-06 1.584816e-05 7.487026e-06 1.163231e-05 3.727865e-06 4.503750e-06 -2.870848e-06 -2.953572e-06 -9.487375e-06 -7.836875e-06 -1.323919e-05 -8.710080e-06 -1.310079e-05 -6.321014e-06 -1.018920e-05 -2.674181e-06 -6.486565e-06 4.909562e-07 -3.388467e-06 2.609181e-06 -1.075245e-06 
-1.870950e-06 -7.237078e-06 -2.306281e-06 -6.024107e-06 -1.274446e-06 -3.777259e-06 7.157542e-07 -1.402453e-06 2.230835e-06 -4.573047e-07 1.690493e-06 -2.049393e-06 -1.313786e-06 -5.613216e-06 -5.242621e-06 -8.838352e-06 -7.434036e-06 -9.193804e-06 -6.051454e-06 -5.739955e-06 -1.339024e-06 3.946704e-07 4.757018e-06 6.877620e-06 9.786315e-06 1.127836e-05 1.180667e-05 1.186227e-05 1.006441e-05 8.183340e-06 5.372066e-06 1.355741e-06 -1.790182e-07 -6.388133e-06 -4.317147e-06 -1.274735e-05 -5.828498e-06 -1.626747e-05 -4.995203e-06 -1.657577e-05 -3.036090e-06 -1.416509e-05 -1.205645e-06 -1.021770e-05 -2.347614e-07 -6.429234e-06 -2.161731e-07 -4.390999e-06 -7.018734e-07 -4.632877e-06 -9.626530e-07 -6.263562e-06 -4.672946e-07 -7.781459e-06 6.815076e-07 -8.287077e-06 1.784333e-06 -7.937268e-06 2.061725e-06 -7.448460e-06 1.209456e-06 -7.326932e-06 -3.925054e-07 -7.461171e-06 
6.975299e-06 1.847296e-06 8.510017e-06 5.094835e-06 1.041880e-05 7.952107e-06 1.214437e-05 9.738314e-06 1.259334e-05 9.465961e-06 1.073472e-05 6.596843e-06 6.472871e-06 1.807198e-06 1.093000e-06 -3.019655e-06 -3.313126e-06 -5.798544e-06 -5.111774e-06 -5.467528e-06 -4.018573e-06 -2.459446e-06 -1.016195e-06 1.710607e-06 2.345774e-06 5.206579e-06 4.698517e-06 6.583424e-06 5.430693e-06 5.337489e-06 4.979443e-06 2.126166e-06 4.603710e-06 -1.547150e-06 5.604929e-06 -4.060207e-06 8.433026e-06 -4.357909e-06 1.228797e-05 -2.281847e-06 1.546652e-05 1.359198e-06 1.622530e-05 4.845417e-06 1.372675e-05 6.004108e-06 8.616797e-06 3.362759e-06 2.821377e-06 -2.599644e-06 -1.489021e-06 -9.424414e-06 -3.098314e-06 -1.423357e-05 -2.208138e-06 -1.549671e-05 4.855006e-08 -1.353849e-05 2.468052e-06 -9.762875e-06 4.374072e-06 -5.556325e-06 5.742692e-06 -1.656122e-06 
9.131026e-08 -7.327110e-06 -7.969830e-07 -5.486648e-06 -5.421126e-07 -3.619156e-06 2.865839e-07 -2.165679e-06 8.409949e-07 -1.677819e-06 4.220965e-07 -2.362957e-06 -1.022602e-06 -3.700671e-06 -2.739592e-06 -4.571194e-06 -3.620075e-06 -3.939397e-06 -2.970711e-06 -1.561492e-06 -9.492118e-07 1.859499e-06 1.639765e-06 5.085797e-06 3.880507e-06 6.908164e-06 5.166086e-06 6.532337e-06 5.343521e-06 3.739110e-06 4.661018e-06 -1.109528e-06 3.610867e-06 -7.156381e-06 2.699573e-06 -1.319121e-05 2.166924e-06 -1.784042e-05 1.779317e-06 -1.983800e-05 9.437978e-07 -1.847884e-05 -7.434440e-07 -1.424582e-05 -2.841788e-06 -9.082918e-06 -3.978219e-06 -5.552557e-06 -2.754225e-06 -5.130685e-06 9.227913e-07 -7.243664e-06 5.474161e-06 -1.005326e-05 8.765497e-06 -1.196875e-05 9.558287e-06 -1.244142e-05 8.004940e-06 -1.176893e-05 5.154431e-06 -1.049931e-05 2.215891e-06 -8.992028e-06 
9.457046e-06 2.148091e-06 9.811528e-06 5.442352e-06 1.045414e-05 7.514936e-06 1.081389e-05 8.184738e-06 1.023798e-05 7.289983e-06 8.326562e-06 4.989525e-06 5.234400e-06 1.969046e-06 1.699360e-06 -7.095266e-07 -1.314232e-06 -2.099093e-06 -3.131464e-06 -1.851745e-06 -3.639748e-06 -3.472183e-07 -3.153047e-06 1.556089e-06 -2.071078e-06 2.909378e-06 -6.285655e-07 2.989297e-06 1.155425e-06 1.486486e-06 3.411851e-06 -1.396663e-06 6.352961e-06 -4.919533e-06 1.017150e-05 -7.897374e-06 1.475500e-05 -8.974340e-06 1.925565e-05 -7.082193e-06 2.195183e-05 -2.172530e-06 2.094710e-05 3.920883e-06 1.567554e-05 7.526152e-06 8.103601e-06 5.248686e-06 1.999578e-06 -2.939613e-06 1.929424e-07 -1.308583e-05 2.461259e-06 -2.032899e-05 6.269741e-06 -2.223487e-05 9.178019e-06 -1.939381e-05 1.031231e-05 -1.391225e-05 1.015707e-05 -7.808915e-06 9.641735e-06 -2.299818e-06 
9.325460e-07 -8.157381e-06 -4.781902e-07 -5.417314e-06 -5.563513e-07 -3.447561e-06 -1.261094e-07 -2.336770e-06 1.456548e-07 -2.031380e-06 -4.737771e-08 -2.217258e-06 -5.917979e-07 -2.333022e-06 -1.118159e-06 -1.815063e-06 -1.336899e-06 -4.506371e-07 -1.293745e-06 1.449958e-06 -1.286911e-06 3.234719e-06 -1.478235e-06 4.302805e-06 -1.551571e-06 4.371691e-06 -7.985747e-07 3.385754e-06 1.319227e-06 1.171278e-06 4.570669e-06 -2.725277e-06 7.954460e-06 -8.643372e-06 1.039390e-05 -1.608478e-05 1.132867e-05 -2.335010e-05 1.048036e-05 -2.787144e-05 7.362378e-06 -2.726154e-05 1.764841e-06 -2.115699e-05 -4.806848e-06 -1.270073e-05 -8.565930e-06 -7.170950e-06 -5.711515e-06 -7.706225e-06 3.616467e-06 -1.273809e-05 1.446441e-05 -1.823455e-05 2.105038e-05 -2.125206e-05 2.109044e-05 -2.114403e-05 1.626708e-05 -1.873957e-05 9.830196e-06 -1.522198e-05 4.347923e-06 -1.151532e-05 
1.196070e-05 3.187426e-06 1.100741e-05 6.631601e-06 1.074378e-05 8.133153e-06 1.029252e-05 7.898567e-06 9.080391e-06 6.309832e-06 7.022628e-06 4.021301e-06 4.474129e-06 1.861890e-06 1.949898e-06 5.331120e-07 -2.341741e-07 2.957582e-07 -2.127701e-06 8.927861e-07 -3.950302e-06 1.770296e-06 -5.665453e-06 2.405510e-06 -6.690987e-06 2.474810e-06 -6.072488e-06 1.744287e-06 -3.109510e-06 -1.516706e-07 2.061271e-06 -3.646811e-06 8.593957e-06 -8.687470e-06 1.573130e-05 -1.412920e-05 2.316743e-05 -1.773852e-05 3.019023e-05 -1.676241e-05 3.448234e-05 -9.352282e-06 3.260311e-05 2.641755e-06 2.309331e-05 1.189669e-05 9.982044e-06 9.717736e-06 1.653086e-06 -5.078388e-06 3.514018e-06 -2.348580e-05 1.264482e-05 -3.502975e-05 2.141442e-05 -3.605295e-05 2.475780e-05 -2.936300e-05 2.278017e-05 -1.958901e-05 1.841250e-05 -1.007649e-05 1.439353e-05 -2.358144e-06 
3.614821e-07 -8.910204e-06 -1.111627e-06 -4.864311e-06 -8.543018e-07 -2.587546e-06 -2.739917e-07 -1.827250e-06 -5.792273e-08 -1.986535e-06 -1.701233e-07 -2.181747e-06 -1.716795e-07 -1.567214e-06 2.286124e-07 1.788860e-07 7.049316e-07 2.567927e-06 3.406170e-07 4.536919e-06 -1.705135e-06 5.146213e-06 -5.249852e-06 4.270906e-06 -8.568966e-06 2.717685e-06 -8.968216e-06 1.453578e-06 -4.533910e-06 3.017944e-07 4.029909e-06 -2.632425e-06 1.344184e-05 -9.636330e-06 2.034220e-05 -2.104642e-05 2.359705e-05 -3.429449e-05 2.344079e-05 -4.453146e-05 1.901791e-05 -4.597332e-05 8.747093e-06 -3.585567e-05 -5.575336e-06 -1.983958e-05 -1.550213e-05 -1.039292e-05 -1.055651e-05 -1.472385e-05 9.828383e-06 -2.714066e-05 3.278318e-05 -3.737125e-05 4.422294e-05 -4.033609e-05 4.069398e-05 -3.683943e-05 2.829861e-05 -2.984357e-05 1.494816e-05 -2.193844e-05 5.319177e-06 -1.470267e-05 
1.406861e-05 5.766592e-06 1.210266e-05 9.392769e-06 1.155331e-05 1.026819e-05 1.074001e-05 8.860020e-06 8.917996e-06 6.004253e-06 6.333355e-06 2.963637e-06 3.807787e-06 1.023970e-06 1.979422e-06 8.350330e-07 6.551477e-07 2.033295e-06 -1.166347e-06 3.541239e-06 -4.474819e-06 4.355853e-06 -9.149278e-06 4.203804e-06 -1.339328e-05 3.538035e-06 -1.434548e-05 2.754728e-06 -9.901389e-06 1.127795e-06 -5.464604e-07 -3.268380e-06 1.096224e-05 -1.178231e-05 2.245990e-05 -2.313854e-05 3.429622e-05 -3.353282e-05 4.720599e-05 -3.715034e-05 5.793232e-05 -2.729094e-05 5.836973e-05 -3.307362e-06 4.230054e-05 2.001411e-05 1.660551e-05 1.884424e-05 1.964666e-06 -1.231724e-05 1.182089e-05 -4.927659e-05 3.577101e-05 -6.702935e-05 5.302325e-05 -6.210851e-05 5.396965e-05 -4.519280e-05 4.319031e-05 -2.673008e-05 2.972351e-05 -1.169656e-05 1.952193e-05 -1.046721e-06 
-2.567872e-06 -8.793524e-06 -2.718170e-06 -2.968566e-06 -9.588219e-07 -3.811059e-07 3.011108e-07 -4.293769e-07 3.179595e-07 -1.862183e-06 -2.277457e-07 -2.859187e-06 -2.867793e-08 -1.782852e-06 1.579326e-06 1.718063e-06 3.586757e-06 6.178836e-06 3.492242e-06 9.079017e-06 -1.052152e-06 8.569112e-06 -1.001648e-05 5.004915e-06 -1.963747e-05 1.145332e-06 -2.336508e-05 2.339901e-07 -1.590172e-05 2.341348e-06 1.604579e-06 2.240283e-06 2.093877e-05 -6.937345e-06 3.404588e-05 -2.685284e-05 4.038113e-05 -5.301017e-05 4.356225e-05 -7.733251e-05 4.198026e-05 -8.696358e-05 2.803163e-05 -7.044596e-05 -4.518511e-07 -3.655455e-05 -2.628599e-05 -1.773784e-05 -1.920152e-05 -3.337339e-05 2.632198e-05 -6.310041e-05 7.528297e-05 -7.991475e-05 9.250992e-05 -7.766328e-05 7.599857e-05 -6.389710e-05 4.551874e-05 -4.677468e-05 1.897255e-05 -3.090116e-05 3.315334e-06 -1.809214e-05 
1.463053e-05 1.053710e-05 1.296252e-05 1.437735e-05 1.343925e-05 1.453888e-05 1.285245e-05 1.140166e-05 1.009947e-05 6.185291e-06 6.088290e-06 1.166097e-06 2.827676e-06 -1.240074e-06 1.710563e-06 -4.348588e-08 1.998456e-06 3.496251e-06 9.203991e-07 6.776705e-06 -4.348102e-06 7.843116e-06 -1.412714e-05 6.833092e-06 -2.477844e-05 5.826580e-06 -2.966651e-05 6.773093e-06 -2.333543e-05 8.142186e-06 -6.845722e-06 3.907412e-06 1.229298e-05 -1.110396e-05 2.872661e-05 -3.478928e-05 4.602408e-05 -6.105233e-05 7.122235e-05 -8.071127e-05 1.011447e-04 -7.507075e-05 1.159116e-04 -2.893534e-05 9.158566e-05 3.138303e-05 3.505077e-05 3.668595e-05 2.123665e-06 -3.682177e-05 3.322832e-05 -1.155767e-04 9.314618e-05 -1.367513e-04 1.238251e-04 -1.090947e-04 1.108447e-04 -6.779399e-05 7.619513e-05 -3.377426e-05 4.358976e-05 -1.121523e-05 2.325395e-05 2.538079e-06 
-9.225626e-06 -6.865764e-06 -4.914273e-06 1.361939e-06 3.964770e-07 4.257585e-06 2.956472e-06 2.598717e-06 2.101163e-06 -1.593566e-06 -1.565875e-07 -4.815968e-06 -4.676810e-07 -3.560964e-06 3.162269e-06 3.061252e-06 8.833655e-06 1.189009e-05 1.087613e-05 1.737651e-05 3.330421e-06 1.546194e-05 -1.522828e-05 6.977358e-06 -3.811981e-05 -1.369542e-06 -5.090871e-05 -5.002004e-07 -3.952017e-05 1.136709e-05 -4.859654e-06 2.041312e-05 3.231252e-05 7.257163e-06 5.202770e-05 -3.031409e-05 5.941369e-05 -8.194827e-05 7.235134e-05 -1.400304e-04 8.865179e-05 -1.805456e-04 8.134757e-05 -1.613997e-04 2.700866e-05 -8.488581e-05 -4.503441e-05 -4.103762e-05 -4.139193e-05 -9.117348e-05 6.949658e-05 -1.596240e-04 1.804171e-04 -1.763526e-04 1.979677e-04 -1.492582e-04 1.396657e-04 -1.085616e-04 6.708029e-05 -7.116162e-05 1.705768e-05 -4.198291e-05 -5.342955e-06 -2.097535e-05 
1.179042e-05 1.760616e-05 1.393754e-05 2.224102e-05 1.813493e-05 2.225356e-05 1.887688e-05 1.705012e-05 1.456428e-05 7.964728e-06 7.411767e-06 -9.710108e-07 2.025362e-06 -4.886901e-06 1.806029e-06 -1.757627e-06 5.341125e-06 5.574540e-06 6.446412e-06 1.160438e-05 -1.564523e-06 1.269631e-05 -2.061514e-05 9.975556e-06 -4.445861e-05 9.180917e-06 -5.900746e-05 1.650953e-05 -5.066824e-05 2.889480e-05 -2.154627e-05 2.818197e-05 8.151128e-06 -1.509954e-06 2.531527e-05 -5.015173e-05 4.469912e-05 -1.078023e-04 9.425480e-05 -1.739140e-04 1.760798e-04 -2.080731e-04 2.439542e-04 -1.357266e-04 2.159005e-04 2.067986e-05 7.230550e-05 5.502500e-05 -2.079275e-05 -1.379212e-04 8.068636e-05 -3.054095e-04 2.416842e-04 -2.929518e-04 2.884038e-04 -1.883187e-04 2.216699e-04 -9.343364e-05 1.258586e-04 -3.617801e-05 5.576968e-05 -6.663334e-06 2.132504e-05 8.737299e-06 
-2.038292e-05 -2.159696e-06 -5.665465e-06 9.757679e-06 6.641502e-06 1.384525e-05 1.173661e-05 1.038546e-05 9.268965e-06 1.922293e-06 3.441295e-06 -5.375036e-06 1.473036e-06 -4.336081e-06 8.359213e-06 7.384711e-06 2.108315e-05 2.382462e-05 2.840630e-05 3.412373e-05 1.753190e-05 3.023102e-05 -1.720117e-05 1.304156e-05 -6.653084e-05 -3.989752e-06 -1.017166e-04 1.952320e-06 -8.706094e-05 3.971111e-05 -1.945302e-05 7.244992e-05 4.801891e-05 4.436212e-05 6.370091e-05 -3.298560e-05 5.819689e-05 -1.240168e-04 9.833134e-05 -2.560032e-04 1.782126e-04 -4.109840e-04 2.138694e-04 -4.505843e-04 1.020513e-04 -2.935456e-04 -1.325152e-04 -1.829790e-04 -1.723230e-04 -3.389665e-04 1.546080e-04 -4.626885e-04 4.464689e-04 -4.058441e-04 4.313850e-04 -2.834383e-04 2.474414e-04 -1.781555e-04 8.256365e-05 -1.039985e-04 -2.702255e-06 -5.471104e-05 -2.651320e-05 -2.264717e-05 
3.929110e-06 2.559386e-05 1.734105e-05 3.401730e-05 3.065709e-05 3.751199e-05 3.623212e-05 3.304501e-05 3.189061e-05 2.117173e-05 2.146943e-05 7.966509e-06 1.334001e-05 1.735476e-06 1.385617e-05 5.740808e-06 2.043085e-05 1.481907e-05 2.230091e-05 2.062446e-05 8.328406e-06 1.949775e-05 -2.588951e-05 1.523995e-05 -7.274868e-05 1.900073e-05 -1.080533e-04 4.420316e-05 -1.035649e-04 8.187742e-05 -6.561800e-05 7.778020e-05 -4.077815e-05 -7.152833e-06 -4.775129e-05 -1.045513e-04 -3.926907e-05 -1.972807e-04 6.277298e-05 -3.786148e-04 2.679668e-04 -6.137452e-04 4.728980e-04 -6.402274e-04 4.285589e-04 -3.062652e-04 -3.591629e-05 -1.675747e-04 -3.540290e-04 -7.055669e-04 9.002312e-05 -9.524887e-04 6.275339e-04 -6.540400e-04 6.774507e-04 -3.006854e-04 4.291268e-04 -1.042697e-04 1.868303e-04 -2.612951e-05 5.269643e-05 1.806335e-06 5.941431e-06 1.518030e-05 
-3.307043e-05 5.933418e-06 1.349866e-06 2.567913e-05 2.717463e-05 3.713725e-05 4.125942e-05 3.936481e-05 4.391203e-05 3.400422e-05 4.065937e-05 2.838886e-05 4.134909e-05 3.169416e-05 5.228127e-05 4.600497e-05 6.817380e-05 6.300323e-05 7.417416e-05 7.097478e-05 5.473752e-05 6.318073e-05 -1.043662e-06 3.958235e-05 -9.068153e-05 1.421759e-05 -1.763035e-04 2.492553e-05 -1.870906e-04 9.541534e-05 -1.022639e-04 1.414274e-04 -2.492179e-05 2.402465e-05 -6.141200e-05 -1.363139e-04 -1.044332e-04 -2.149113e-04 3.230100e-05 -4.802969e-04 2.756750e-04 -1.095892e-03 3.543928e-04 -1.711851e-03 -7.827347e-05 -1.693710e-03 -1.057340e-03 -1.437187e-03 -1.347237e-03 -1.815607e-03 6.251486e-05 -1.610434e-03 1.125954e-03 -9.617395e-04 9.496344e-04 -5.128406e-04 4.007784e-04 -2.765070e-04 5.377591e-05 -1.460902e-04 -6.331878e-05 -6.967074e-05 -6.568378e-05 -2.353954e-05 
-6.610951e-06 3.092695e-05 3.130125e-05 5.438914e-05 6.681115e-05 7.841966e-05 9.549474e-05 9.856525e-05 1.158281e-04 1.123720e-04 1.289963e-04 1.203300e-04 1.369771e-04 1.214368e-04 1.361643e-04 1.091201e-04 1.178522e-04 7.995683e-05 8.085316e-05 4.607444e-05 3.522553e-05 2.977836e-05 -1.419721e-05 4.268848e-05 -7.711834e-05 7.758532e-05 -1.600335e-04 1.103057e-04 -2.663699e-04 7.429499e-05 -4.309090e-04 -1.400612e-04 -6.191508e-04 -4.826489e-04 -6.709692e-04 -5.578226e-04 -5.812640e-04 -4.846078e-04 -3.023443e-04 -9.131686e-04 6.875619e-05 -2.134788e-03 2.132109e-04 -3.586212e-03 -5.009166e-04 -3.784430e-03 -2.530058e-03 -3.236840e-03 -3.662832e-03 -4.458374e-03 -7.233619e-04 -3.400327e-03 1.782940e-03 -1.334770e-03 1.691865e-03 -3.170975e-04 8.061662e-04 -4.055122e-05 2.243734e-04 9.778780e-08 4.853084e-06 3.048037e-06 -3.188549e-05 1.250931e-05 
-3.348460e-05 1.824484e-05 3.303838e-05 6.219628e-05 9.292581e-05 1.149128e-04 1.578283e-04 1.808695e-04 2.327335e-04 2.570824e-04 3.119897e-04 3.291581e-04 3.749888e-04 3.678971e-04 3.880776e-04 3.424819e-04 3.310253e-04 2.580639e-04 2.310102e-04 1.700950e-04 1.449324e-04 1.398701e-04 8.755720e-05 1.644048e-04 -1.125160e-05 1.556885e-04 -2.633687e-04 -1.192018e-05 -7.271526e-04 -3.977848e-04 -1.303918e-03 -9.095977e-04 -1.647378e-03 -1.398649e-03 -1.545130e-03 -1.271271e-03 -1.223076e-03 -6.592847e-04 -6.139644e-04 -1.129313e-03 -3.136496e-04 -3.985583e-03 -1.523881e-03 -9.260679e-03 -5.237410e-03 -1.299024e-02 -1.003576e-02 -1.189561e-02 -1.095024e-02 -1.115966e-02 -1.584283e-03 -5.489347e-03 3.850269e-03 -1.496885e-03 2.529550e-03 -5.482214e-04 6.489587e-04 -3.328223e-04 -8.610121e-05 -1.929031e-04 -1.875258e-04 -9.189673e-05 -1.159258e-04 -2.753395e-05 
-3.523679e-06 3.211984e-05 8.159149e-05 1.106304e-04 1.871499e-04 2.350338e-04 3.422459e-04 4.230099e-04 5.593470e-04 6.647068e-04 8.066982e-04 8.958455e-04 9.910632e-04 9.951435e-04 9.838788e-04 8.522167e-04 7.313082e-04 5.038982e-04 3.633703e-04 1.643032e-04 1.119092e-04 5.431448e-05 8.044240e-05 1.896976e-04 8.302220e-05 2.595814e-04 -3.921470e-04 -4.051850e-04 -2.053498e-03 -2.441422e-03 -5.012032e-03 -5.179721e-03 -7.065442e-03 -6.160848e-03 -5.542263e-03 -3.856739e-03 -3.374846e-03 -1.755433e-03 -2.239113e-03 -2.922580e-03 -2.876531e-03 -9.642929e-03 -7.548809e-03 -2.373408e-02 -1.794347e-02 -3.526737e-02 -2.714985e-02 -2.832757e-02 -2.811499e-02 -2.642122e-02 -3.260228e-03 -7.876130e-03 1.038514e-02 1.497336e-03 6.480642e-03 1.480311e-03 1.986671e-03 4.729387e-04 2.561163e-04 5.099340e-05 -1.068319e-04 -3.708217e-05 -8.533988e-05 -1.878131e-05 
1.562840e-05 4.473451e-05 1.374657e-04 1.823336e-04 3.282756e-04 4.449909e-04 6.769138e-04 8.981408e-04 1.224420e-03 1.525386e-03 1.883877e-03 2.152127e-03 2.394797e-03 2.449305e-03 2.409086e-03 2.130228e-03 1.798165e-03 1.309276e-03 9.235152e-04 5.377332e-04 3.847483e-04 3.314056e-04 4.087286e-04 6.122684e-04 3.806171e-04 3.071655e-04 -1.418956e-03 -2.793276e-03 -7.227668e-03 -1.018937e-02 -1.625401e-02 -1.766880e-02 -2.051177e-02 -1.741365e-02 -1.351076e-02 -8.794060e-03 -6.408416e-03 -2.420199e-03 -3.697813e-03 -4.322143e-03 -7.157721e-03 -2.055958e-02 -2.542577e-02 -6.309229e-02 -6.545092e-02 -1.096553e-01 -8.411078e-02 -7.857535e-02 -6.992719e-02 -5.590500e-02 8.545995e-03 5.435334e-03 3.509781e-02 1.430470e-02 1.512978e-02 4.961118e-03 3.128550e-03 8.115454e-04 3.913461e-05 -6.948371e-05 -2.687397e-04 -1.136764e-04 -1.198466e-04 -4.111680e-05 
6.659851e-05 5.750130e-05 2.552951e-04 3.396779e-04 6.464664e-04 9.257330e-04 1.438415e-03 1.982773e-03 2.726615e-03 3.473653e-03 4.293727e-03 4.972475e-03 5.506504e-03 5.677605e-03 5.511866e-03 4.864377e-03 3.973428e-03 2.789351e-03 1.782228e-03 8.131222e-04 4.126936e-04 1.542054e-04 4.026565e-04 5.237467e-04 1.267815e-04 -1.074631e-03 -5.365566e-03 -1.128275e-02 -2.332018e-02 -3.545078e-02 -5.272550e-02 -6.083629e-02 -6.787459e-02 -5.648688e-02 -3.834501e-02 -2.052089e-02 -1.277018e-02 -4.447953e-03 -9.158706e-03 -1.234591e-02 -2.408479e-02 -5.411160e-02 -8.211001e-02 -1.753196e-01 -2.142212e-01 -3.301259e-01 -2.290660e-01 -1.453147e-01 -1.478378e-01 -1.021123e-01 8.053412e-02 9.019671e-02 1.306895e-01 7.385679e-02 5.186000e-02 2.425801e-02 1.225856e-02 5.213385e-03 1.799248e-03 6.199690e-04 1.490758e-05 -1.047500e-04 -6.074524e-05 -8.805381e-05 