# vtk DataFile Version 2.0
Comment goes here
ASCII

DATASET STRUCTURED_POINTS
DIMENSIONS    64   64   1

ORIGIN    0.000   0.000   0.000
SPACING   0.0156250.015625   1.000

POINT_DATA   4096
SCALARS Omega double
LOOKUP_TABLE default

-3.975134e-03 -7.487837e-03 -1.190023e-02 -1.758280e-02 -2.451146e-02 -3.275833e-02 -4.183430e-02 -5.130920e-02 -6.020821e-02 -6.774428e-02 -7.289970e-02 -7.504232e-02 -7.371885e-02 -6.886896e-02 -6.083464e-02 -5.015224e-02 -3.778230e-02 -2.471160e-02 -1.224203e-02 -1.613934e-03 5.943362e-03 9.454877e-03 8.499240e-03 3.165581e-03 -5.566487e-03 -1.632281e-02 -2.721179e-02 -3.657539e-02 -4.305449e-02 -4.600019e-02 -4.544805e-02 -4.192001e-02 -3.632406e-02 -2.953713e-02 -2.235561e-02 -1.536165e-02 -8.785251e-03 -2.852075e-03 2.681643e-03 7.739109e-03 1.275489e-02 1.759904e-02 2.262120e-02 2.751445e-02 3.238910e-02 3.677600e-02 4.059853e-02 4.339083e-02 4.508446e-02 4.540486e-02 4.445283e-02 4.220959e-02 3.896838e-02 3.488998e-02 3.037156e-02 2.561258e-02 2.098747e-02 1.660505e-02 1.271449e-02 9.263971e-03 6.335242e-03 3.712447e-03 1.323453e-03 -1.179576e-03 
-2.382618e-03 -4.532694e-03 -7.190765e-03 -1.065236e-02 -1.484186e-02 -1.987688e-02 -2.541835e-02 -3.128406e-02 -3.685722e-02 -4.172351e-02 -4.523559e-02 -4.702658e-02 -4.677234e-02 -4.441009e-02 -4.010114e-02 -3.414082e-02 -2.709221e-02 -1.953522e-02 -1.224595e-02 -5.946250e-03 -1.340020e-03 1.025167e-03 9.427575e-04 -1.536487e-03 -5.836138e-03 -1.122899e-02 -1.667372e-02 -2.131770e-02 -2.443875e-02 -2.571654e-02 -2.517912e-02 -2.310111e-02 -1.995979e-02 -1.621161e-02 -1.224620e-02 -8.394873e-03 -4.701801e-03 -1.368586e-03 1.863900e-03 4.804796e-03 7.851964e-03 1.073579e-02 1.381737e-02 1.672550e-02 1.967202e-02 2.223861e-02 2.449572e-02 2.608818e-02 2.705164e-02 2.717991e-02 2.658746e-02 2.521302e-02 2.329660e-02 2.084680e-02 1.819763e-02 1.534333e-02 1.263337e-02 9.992149e-03 7.704547e-03 5.606603e-03 3.873689e-03 2.263029e-03 8.379521e-04 -7.038979e-04 
-1.382935e-03 -2.658350e-03 -4.196015e-03 -6.235496e-03 -8.675602e-03 -1.165025e-02 -1.491627e-02 -1.843105e-02 -2.179991e-02 -2.482950e-02 -2.711050e-02 -2.844364e-02 -2.860907e-02 -2.755191e-02 -2.534954e-02 -2.214334e-02 -1.826789e-02 -1.403090e-02 -9.897289e-03 -6.254745e-03 -3.508800e-03 -1.948787e-03 -1.680295e-03 -2.679020e-03 -4.620728e-03 -7.144706e-03 -9.693075e-03 -1.185418e-02 -1.324933e-02 -1.373442e-02 -1.331757e-02 -1.214687e-02 -1.044559e-02 -8.464438e-03 -6.347354e-03 -4.325652e-03 -2.309420e-03 -5.357413e-04 1.309161e-03 2.915805e-03 4.723623e-03 6.331282e-03 8.173393e-03 9.800606e-03 1.153335e-02 1.295929e-02 1.425627e-02 1.512268e-02 1.566512e-02 1.569487e-02 1.536653e-02 1.453378e-02 1.347896e-02 1.202362e-02 1.056657e-02 8.872625e-03 7.375715e-03 5.801014e-03 4.527605e-03 3.267254e-03 2.292959e-03 1.319323e-03 5.088268e-04 -4.183570e-04 
-7.590435e-04 -1.504418e-03 -2.358023e-03 -3.530534e-03 -4.900958e-03 -6.608424e-03 -8.466624e-03 -1.050660e-02 -1.246784e-02 -1.428259e-02 -1.568870e-02 -1.659404e-02 -1.684804e-02 -1.642099e-02 -1.533905e-02 -1.367486e-02 -1.161076e-02 -9.311338e-03 -7.035135e-03 -4.989425e-03 -3.392405e-03 -2.399062e-03 -2.056997e-03 -2.364861e-03 -3.143287e-03 -4.230896e-03 -5.333742e-03 -6.270068e-03 -6.840675e-03 -6.990659e-03 -6.711322e-03 -6.087465e-03 -5.202325e-03 -4.208930e-03 -3.114125e-03 -2.114199e-03 -1.033250e-03 -1.559933e-04 8.930310e-04 1.695958e-03 2.771763e-03 3.587237e-03 4.691321e-03 5.527432e-03 6.542051e-03 7.280385e-03 8.011391e-03 8.453876e-03 8.747580e-03 8.730274e-03 8.563331e-03 8.056936e-03 7.531184e-03 6.661924e-03 5.943463e-03 4.930050e-03 4.190010e-03 3.242069e-03 2.605218e-03 1.839875e-03 1.343304e-03 7.490543e-04 3.232347e-04 -2.344368e-04 
-4.139951e-04 -8.403441e-04 -1.288434e-03 -1.941692e-03 -2.675678e-03 -3.622630e-03 -4.634245e-03 -5.776300e-03 -6.869215e-03 -7.913661e-03 -8.737847e-03 -9.311833e-03 -9.534402e-03 -9.391270e-03 -8.889948e-03 -8.058975e-03 -7.002899e-03 -5.793889e-03 -4.582915e-03 -3.463987e-03 -2.562946e-03 -1.950966e-03 -1.657649e-03 -1.684377e-03 -1.940352e-03 -2.357857e-03 -2.787520e-03 -3.156258e-03 -3.359295e-03 -3.383864e-03 -3.209642e-03 -2.897067e-03 -2.446906e-03 -1.984445e-03 -1.421519e-03 -9.767700e-04 -3.828712e-04 -1.461861e-05 6.142747e-04 9.330860e-04 1.615424e-03 1.937206e-03 2.638267e-03 2.984687e-03 3.601211e-03 3.927044e-03 4.343342e-03 4.539210e-03 4.710648e-03 4.656956e-03 4.626234e-03 4.273992e-03 4.109823e-03 3.524082e-03 3.281806e-03 2.606895e-03 2.337230e-03 1.714391e-03 1.464027e-03 9.688001e-04 7.584849e-04 3.828886e-04 1.859937e-04 -1.503107e-04 
-2.073440e-04 -4.576758e-04 -6.802974e-04 -1.041571e-03 -1.418507e-03 -1.931556e-03 -2.459900e-03 -3.079186e-03 -3.661398e-03 -4.238938e-03 -4.695450e-03 -5.036379e-03 -5.189688e-03 -5.158212e-03 -4.934431e-03 -4.535728e-03 -4.011825e-03 -3.398586e-03 -2.773003e-03 -2.181135e-03 -1.686350e-03 -1.325677e-03 -1.111507e-03 -1.052100e-03 -1.098412e-03 -1.231042e-03 -1.371185e-03 -1.499000e-03 -1.554287e-03 -1.545821e-03 -1.444832e-03 -1.303923e-03 -1.079462e-03 -8.917712e-04 -5.967272e-04 -4.427522e-04 -9.149508e-05 -5.015247e-06 4.192215e-04 4.495926e-04 9.494129e-04 9.650670e-04 1.486800e-03 1.534575e-03 1.968491e-03 2.057462e-03 2.308092e-03 2.372347e-03 2.454831e-03 2.380324e-03 2.412288e-03 2.125342e-03 2.189209e-03 1.723079e-03 1.800828e-03 1.272505e-03 1.319712e-03 8.446545e-04 8.486305e-04 4.827655e-04 4.535441e-04 1.882749e-04 1.278174e-04 -9.075624e-05 
-1.136972e-04 -2.575092e-04 -3.553655e-04 -5.482642e-04 -7.272723e-04 -9.951976e-04 -1.253897e-03 -1.577540e-03 -1.870119e-03 -2.177686e-03 -2.416757e-03 -2.610343e-03 -2.705756e-03 -2.713403e-03 -2.622627e-03 -2.440907e-03 -2.195085e-03 -1.894842e-03 -1.586378e-03 -1.281453e-03 -1.021404e-03 -8.146225e-04 -6.767515e-04 -6.061621e-04 -5.872849e-04 -6.093297e-04 -6.406334e-04 -6.723843e-04 -6.774892e-04 -6.641781e-04 -6.077378e-04 -5.539373e-04 -4.374625e-04 -3.867431e-04 -2.120706e-04 -2.123429e-04 4.031208e-05 -4.298023e-05 3.163134e-04 1.460184e-04 6.103515e-04 3.918173e-04 8.877195e-04 7.004887e-04 1.088425e-03 9.968775e-04 1.180856e-03 1.146443e-03 1.216887e-03 1.091998e-03 1.255723e-03 9.167748e-04 1.236613e-03 7.126202e-04 1.071196e-03 5.134477e-04 7.925692e-04 3.325727e-04 4.993290e-04 1.795515e-04 2.562998e-04 5.098449e-05 6.671453e-05 -7.842902e-05 
-5.152058e-05 -1.427519e-04 -1.820964e-04 -2.879303e-04 -3.685596e-04 -5.071975e-04 -6.265116e-04 -7.913030e-04 -9.286850e-04 -1.086760e-03 -1.202234e-03 -1.307145e-03 -1.357832e-03 -1.373883e-03 -1.337325e-03 -1.260150e-03 -1.147511e-03 -1.007782e-03 -8.592431e-04 -7.087353e-04 -5.744921e-04 -4.614355e-04 -3.767317e-04 -3.217426e-04 -2.894927e-04 -2.781491e-04 -2.731825e-04 -2.737824e-04 -2.654359e-04 -2.574579e-04 -2.269035e-04 -2.159010e-04 -1.514992e-04 -1.652948e-04 -4.539242e-05 -1.248258e-04 9.119141e-05 -9.793810e-05 2.609238e-04 -6.171209e-05 4.525159e-04 3.712289e-05 6.263445e-04 2.478105e-04 7.193656e-04 5.108371e-04 6.917356e-04 6.157889e-04 6.160065e-04 4.527238e-04 6.514156e-04 2.188665e-04 7.605295e-04 1.021588e-04 7.475827e-04 7.605987e-05 5.858287e-04 6.672770e-05 3.759133e-04 4.378268e-05 1.956165e-04 4.586935e-06 6.108968e-05 -5.302790e-05 
-4.071550e-05 -8.884889e-05 -9.851143e-05 -1.497067e-04 -1.796242e-04 -2.467965e-04 -2.943509e-04 -3.752464e-04 -4.324877e-04 -5.120841e-04 -5.627494e-04 -6.194563e-04 -6.447541e-04 -6.609975e-04 -6.494495e-04 -6.209686e-04 -5.748825e-04 -5.131459e-04 -4.478363e-04 -3.747331e-04 -3.112962e-04 -2.487485e-04 -2.037325e-04 -1.631592e-04 -1.408632e-04 -1.194995e-04 -1.125620e-04 -1.003283e-04 -9.696074e-05 -8.847326e-05 -7.673888e-05 -7.984773e-05 -4.222118e-05 -8.221976e-05 1.622529e-05 -1.076152e-04 1.124105e-04 -1.625814e-04 2.561484e-04 -2.282029e-04 4.324511e-04 -2.348243e-04 5.759270e-04 -9.354902e-05 5.732828e-04 1.384144e-04 3.779797e-04 1.768599e-04 2.270357e-04 -7.511044e-05 4.206051e-04 -2.857940e-04 7.231858e-04 -2.964188e-04 7.357217e-04 -2.151665e-04 5.176810e-04 -1.331706e-04 2.784349e-04 -7.929375e-05 1.131662e-04 -5.584749e-05 1.844158e-05 -5.917177e-05 
-2.451892e-05 -5.421310e-05 -5.848471e-05 -8.436962e-05 -9.479814e-05 -1.277594e-04 -1.426237e-04 -1.824290e-04 -2.003077e-04 -2.404101e-04 -2.566177e-04 -2.876345e-04 -2.954408e-04 -3.092871e-04 -3.035271e-04 -2.970549e-04 -2.771216e-04 -2.534802e-04 -2.239543e-04 -1.911564e-04 -1.599135e-04 -1.271795e-04 -1.018097e-04 -7.531843e-05 -5.987113e-05 -4.072655e-05 -3.494160e-05 -2.121242e-05 -2.156512e-05 -1.318656e-05 -1.185172e-05 -1.672837e-05 4.975628e-06 -3.847308e-05 4.561289e-05 -9.467914e-05 1.316952e-04 -2.079874e-04 2.794259e-04 -3.754618e-04 4.789485e-04 -4.957236e-04 6.717131e-04 -3.467345e-04 7.388627e-04 1.145657e-04 5.362722e-04 3.004800e-04 1.821669e-04 -2.397961e-04 3.113588e-04 -7.371093e-04 8.121977e-04 -6.750166e-04 9.122550e-04 -4.071043e-04 6.462253e-04 -1.957623e-04 3.398180e-04 -8.409640e-05 1.353935e-04 -4.208955e-05 2.827300e-05 -3.805707e-05 
-4.066106e-05 -3.798235e-05 -4.123459e-05 -4.383143e-05 -4.517153e-05 -5.772529e-05 -5.730517e-05 -7.702609e-05 -7.690288e-05 -9.903738e-05 -9.978644e-05 -1.193064e-04 -1.196050e-04 -1.321424e-04 -1.298546e-04 -1.326556e-04 -1.263450e-04 -1.190049e-04 -1.091058e-04 -9.363133e-05 -8.270752e-05 -6.253356e-05 -5.436955e-05 -3.260903e-05 -3.068209e-05 -8.882053e-06 -1.518811e-05 6.124416e-06 -8.005685e-06 1.078723e-05 -5.727582e-06 1.963827e-06 1.097296e-06 -2.949360e-05 3.258067e-05 -1.082231e-04 1.216247e-04 -2.787395e-04 3.060161e-04 -5.656723e-04 5.975196e-04 -8.510306e-04 9.122688e-04 -7.895340e-04 9.759697e-04 -2.679856e-04 4.390142e-04 -2.002902e-04 -1.570211e-04 -1.047744e-03 4.652219e-04 -1.407551e-03 1.432352e-03 -1.059164e-03 1.309830e-03 -6.444409e-04 7.100881e-04 -3.492457e-04 2.583204e-04 -1.724762e-04 4.482859e-05 -8.278068e-05 -2.645902e-05 -4.630268e-05 
-4.289262e-05 -3.030657e-05 -3.971043e-05 -3.558185e-05 -3.384412e-05 -3.992962e-05 -3.138445e-05 -4.373966e-05 -3.335377e-05 -4.817490e-05 -3.914827e-05 -5.361496e-05 -4.700614e-05 -5.884000e-05 -5.397210e-05 -6.118020e-05 -5.657046e-05 -5.773311e-05 -5.231306e-05 -4.707515e-05 -4.117027e-05 -3.028461e-05 -2.583095e-05 -1.048556e-05 -1.050807e-05 8.509277e-06 7.221512e-07 2.314897e-05 5.284013e-06 3.036511e-05 4.226289e-06 2.719614e-05 7.139517e-06 5.502460e-06 3.930548e-05 -6.745148e-05 1.456323e-04 -2.751913e-04 3.808324e-04 -7.245710e-04 7.688919e-04 -1.338928e-03 1.242823e-03 -1.457186e-03 1.612819e-03 -2.429472e-04 1.383089e-03 6.755696e-04 1.960941e-04 -1.088361e-03 6.063058e-04 -2.336906e-03 2.282009e-03 -1.573262e-03 2.081329e-03 -7.347278e-04 1.104729e-03 -2.848609e-04 4.045596e-04 -9.909031e-05 8.464518e-05 -3.880383e-05 -2.159428e-05 -2.722813e-05 
-6.317516e-05 -1.988574e-05 -3.259003e-05 -1.769620e-05 -1.373946e-05 -1.663757e-05 -4.045640e-06 -1.527011e-05 -6.311639e-07 -1.462944e-05 -2.014124e-06 -1.595891e-05 -7.123675e-06 -1.925300e-05 -1.411451e-05 -2.276570e-05 -2.023432e-05 -2.378454e-05 -2.293724e-05 -2.020099e-05 -2.132388e-05 -1.166746e-05 -1.661850e-05 5.491460e-07 -1.129600e-05 1.449628e-05 -7.928553e-06 2.768403e-05 -9.021967e-06 3.621373e-05 -1.646484e-05 3.503633e-05 -2.571678e-05 1.513859e-05 -1.264957e-05 -6.393996e-05 8.075419e-05 -3.340104e-04 3.520757e-04 -1.026407e-03 9.005179e-04 -2.198880e-03 1.667728e-03 -2.997104e-03 2.089270e-03 -1.926235e-03 8.487976e-04 -1.301277e-03 -8.242184e-04 -3.635750e-03 2.049409e-03 -3.669486e-03 4.861527e-03 -2.064187e-03 3.027707e-03 -1.081918e-03 1.043177e-03 -5.060120e-04 1.563043e-04 -2.041321e-04 -8.385737e-05 -7.528344e-05 -9.755697e-05 -3.129739e-05 
-7.456547e-05 -3.461805e-05 -4.123844e-05 -3.348874e-05 -1.925214e-05 -2.819551e-05 -6.265387e-06 -2.122439e-05 7.064796e-07 -1.508017e-05 3.054154e-06 -1.161614e-05 1.454865e-06 -1.131598e-05 -2.892135e-06 -1.295795e-05 -7.893665e-06 -1.416214e-05 -1.128016e-05 -1.257488e-05 -1.169900e-05 -6.766915e-06 -9.199901e-06 3.786344e-06 -4.932434e-06 1.895238e-05 -1.087542e-06 3.688132e-05 -1.835625e-06 5.270895e-05 -1.231454e-05 6.302911e-05 -2.875001e-05 7.123151e-05 -1.853737e-05 5.012473e-05 1.010009e-04 -1.798626e-04 4.697594e-04 -1.101259e-03 1.166355e-03 -3.410346e-03 1.766051e-03 -6.681904e-03 1.364014e-03 -6.087343e-03 1.002937e-03 -1.484289e-04 9.063899e-04 -8.904561e-04 6.424800e-03 -3.632110e-03 1.053718e-02 -1.752457e-03 5.606234e-03 -6.936876e-04 1.808165e-03 -2.171640e-04 3.213723e-04 -5.900767e-05 -6.706877e-05 -2.807940e-05 -1.076687e-04 -3.062438e-05 
-7.305819e-05 -2.318950e-05 -2.080414e-05 -2.104208e-05 2.497442e-06 -1.655764e-05 1.205620e-05 -1.078893e-05 1.530430e-05 -5.587873e-06 1.509696e-05 -2.370266e-06 1.244834e-05 -1.501246e-06 8.206762e-06 -2.125019e-06 3.524030e-06 -2.666270e-06 -6.693022e-07 -1.710868e-06 -4.366675e-06 1.629973e-06 -8.316653e-06 8.559738e-06 -1.275691e-05 2.159031e-05 -1.687802e-05 4.214519e-05 -2.227514e-05 6.390399e-05 -3.837803e-05 7.588355e-05 -7.491097e-05 8.583087e-05 -1.129989e-04 8.760826e-05 -7.711553e-05 -1.616198e-04 1.771325e-04 -1.583375e-03 6.199152e-04 -6.405042e-03 -4.862824e-04 -1.771951e-02 -8.727922e-03 -2.941318e-02 -1.960184e-02 -2.175441e-02 -2.656035e-03 3.746694e-03 3.580497e-02 9.705773e-03 2.940770e-02 2.025499e-03 8.393263e-03 -8.363753e-04 1.068898e-03 -5.562926e-04 -3.148619e-04 -1.879120e-04 -3.275921e-04 -5.600645e-05 -1.763061e-04 -2.698345e-05 
-7.879310e-05 -7.190450e-05 -2.585533e-05 -5.634543e-05 -2.750970e-06 -4.027947e-05 6.696470e-06 -2.636778e-05 1.014818e-05 -1.577960e-05 1.062371e-05 -8.922589e-06 9.203903e-06 -5.552495e-06 6.488838e-06 -4.772699e-06 3.058824e-06 -5.290205e-06 -7.115256e-07 -5.758258e-06 -4.817645e-06 -4.497674e-06 -9.063646e-06 1.865977e-06 -1.205473e-05 1.913611e-05 -1.225090e-05 5.029405e-05 -1.445323e-05 8.305474e-05 -3.627647e-05 9.783902e-05 -9.178611e-05 1.299244e-04 -1.507205e-04 2.573726e-04 -1.152730e-04 2.581157e-04 1.601437e-04 -1.455302e-03 -2.198376e-04 -1.198500e-02 -1.099875e-02 -5.449641e-02 -6.337070e-02 -1.285248e-01 -1.083337e-01 -7.828846e-02 1.004987e-02 1.066896e-01 1.730393e-01 9.821112e-02 1.005072e-01 2.635075e-02 2.236917e-02 3.449822e-03 2.821365e-03 2.598277e-04 -1.919395e-04 -4.129979e-05 -3.416197e-04 -7.722300e-05 -1.864945e-04 -8.156576e-05 
-2.077963e-05 -6.573305e-05 2.014626e-05 -5.053176e-05 2.777757e-05 -3.543015e-05 2.548975e-05 -2.270705e-05 2.122533e-05 -1.303032e-05 1.736610e-05 -6.252771e-06 1.446679e-05 -1.824301e-06 1.252261e-05 9.954106e-07 1.112489e-05 2.830742e-06 9.040227e-06 3.826585e-06 3.857624e-06 4.040079e-06 -7.080211e-06 6.123735e-06 -2.335225e-05 1.982511e-05 -3.803532e-05 5.844608e-05 -4.479215e-05 1.100151e-04 -6.249979e-05 1.181677e-04 -1.350128e-04 1.021677e-04 -2.703160e-04 2.468532e-04 -4.816511e-04 2.810964e-04 -1.236928e-03 -3.390532e-03 -7.995357e-03 -3.350445e-02 -6.216367e-02 -1.905465e-01 -3.090956e-01 -5.462917e-01 -5.654635e-01 -4.392781e-01 7.470202e-03 5.390034e-01 8.830810e-01 5.615325e-01 3.676280e-01 1.238580e-01 5.372539e-02 1.318601e-02 2.944695e-03 6.918989e-04 -9.759694e-04 -8.198746e-05 -5.135539e-04 -8.525424e-05 -1.569289e-04 -7.714149e-05 
6.373027e-06 -1.554426e-04 3.042377e-05 -1.012233e-04 2.992938e-05 -6.381461e-05 2.376222e-05 -3.878145e-05 1.766391e-05 -2.234841e-05 1.319089e-05 -1.182223e-05 1.054079e-05 -5.525278e-06 9.203944e-06 -2.600114e-06 7.957108e-06 -2.818517e-06 4.708125e-06 -6.384508e-06 -3.309535e-06 -1.282699e-05 -1.789805e-05 -1.692475e-05 -3.615680e-05 -2.062621e-06 -4.865929e-05 5.405115e-05 -5.317289e-05 1.279834e-04 -8.708961e-05 1.024287e-04 -2.034720e-04 -6.231060e-06 -3.865341e-04 1.671741e-04 -8.296085e-04 2.159766e-04 -3.587210e-03 -8.143113e-03 -2.895179e-02 -9.570603e-02 -2.383075e-01 -6.614938e-01 -1.264978e+00 -2.184577e+00 -2.314155e+00 -1.653384e+00 2.336343e-01 2.889805e+00 3.947640e+00 2.629953e+00 1.469827e+00 5.439448e-01 2.046799e-01 6.221960e-02 1.690814e-02 4.912335e-03 1.428604e-04 -2.735420e-05 -3.532109e-04 -2.975048e-04 -9.591438e-05 -2.286642e-04 
1.307169e-04 -1.737862e-04 9.469342e-05 -1.103329e-04 6.276122e-05 -6.849856e-05 4.006698e-05 -4.166746e-05 2.524561e-05 -2.432712e-05 1.671730e-05 -1.261527e-05 1.340423e-05 -4.256512e-06 1.415999e-05 1.790191e-06 1.720292e-05 5.702730e-06 1.927768e-05 6.397538e-06 1.414229e-05 7.275787e-07 -7.967604e-06 -1.309789e-05 -5.459942e-05 -1.920443e-05 -1.136969e-04 3.490987e-05 -1.448866e-04 1.688910e-04 -1.488268e-04 1.534008e-04 -2.399046e-04 -2.175442e-04 -4.937418e-04 -4.258361e-04 -1.713357e-03 -1.875623e-03 -1.196395e-02 -2.977030e-02 -1.081377e-01 -3.198540e-01 -8.830694e-01 -2.298831e+00 -4.707212e+00 -7.768048e+00 -7.991456e+00 -5.852399e+00 2.581489e+00 1.318627e+01 1.657239e+01 1.091674e+01 5.329675e+00 2.030651e+00 6.913009e-01 2.232025e-01 6.036443e-02 1.842907e-02 3.631076e-03 8.783224e-04 2.002312e-04 -2.927171e-04 1.423434e-04 -2.603580e-04 
2.094674e-04 -2.787761e-04 1.240830e-04 -1.590368e-04 7.394414e-05 -9.093728e-05 4.356524e-05 -5.152057e-05 2.518932e-05 -2.788248e-05 1.517307e-05 -1.296970e-05 1.158080e-05 -3.591001e-06 1.230574e-05 9.086248e-07 1.417445e-05 -2.927932e-07 1.208898e-05 -9.913845e-06 -2.729165e-06 -3.414254e-05 -4.333848e-05 -7.891004e-05 -1.205251e-04 -1.264278e-04 -2.240755e-04 -9.600692e-05 -3.143081e-04 7.067961e-05 -4.043758e-04 -1.849240e-05 -5.923199e-04 -8.596626e-04 -8.500647e-04 -1.927263e-03 -3.545222e-03 -8.747677e-03 -3.350054e-02 -9.636120e-02 -3.323789e-01 -9.802875e-01 -2.795497e+00 -7.211506e+00 -1.532040e+01 -2.341687e+01 -8.630519e+00 -4.255539e+00 8.131127e+00 4.159363e+01 5.220196e+01 3.828020e+01 1.845111e+01 6.978717e+00 2.358780e+00 7.455558e-01 2.176581e-01 5.961628e-02 1.690360e-02 2.818878e-03 1.562543e-03 -6.136417e-04 3.962129e-04 -4.811192e-04 
3.286100e-04 -3.415960e-04 1.681045e-04 -1.898296e-04 9.132413e-05 -1.073334e-04 4.982457e-05 -6.158943e-05 2.641296e-05 -3.472970e-05 1.459516e-05 -1.735589e-05 1.167122e-05 -5.398340e-06 1.551853e-05 2.398048e-06 2.386397e-05 6.727382e-06 3.272248e-05 5.977987e-06 2.944604e-05 -1.357029e-05 -2.051545e-05 -9.099247e-05 -1.832732e-04 -2.705304e-04 -5.164057e-04 -4.598771e-04 -9.065091e-04 -2.904116e-04 -1.012129e-03 -4.682069e-05 -8.808784e-04 -1.509160e-03 -1.114442e-03 -4.926088e-03 -7.471250e-03 -2.648169e-02 -8.615511e-02 -2.754435e-01 -9.265079e-01 -2.773632e+00 -8.049176e+00 -2.063142e+01 -4.362871e+01 -5.833852e+01 -1.678100e+01 -1.437004e+01 -2.551590e+01 1.480969e+01 7.259024e+01 9.969450e+01 5.280354e+01 2.035924e+01 6.916680e+00 2.201813e+00 6.511764e-01 1.793438e-01 5.167406e-02 1.060281e-02 4.554887e-03 -4.026924e-04 8.268667e-04 -5.930164e-04 
4.399943e-04 -3.822384e-04 2.054780e-04 -2.045522e-04 1.079477e-04 -1.099099e-04 5.809973e-05 -5.853815e-05 3.062835e-05 -2.874562e-05 1.682462e-05 -1.002274e-05 1.300541e-05 1.110185e-06 1.575599e-05 4.553112e-06 2.093261e-05 -7.478768e-07 2.055148e-05 -2.195429e-05 -1.031858e-05 -9.275915e-05 -1.394828e-04 -3.094275e-04 -5.106146e-04 -8.419676e-04 -1.330971e-03 -1.723847e-03 -2.601722e-03 -2.227056e-03 -3.525310e-03 -1.795914e-03 -3.039959e-03 -3.709362e-03 -2.187217e-03 -1.070922e-02 -1.554170e-02 -6.522411e-02 -2.019243e-01 -6.862889e-01 -2.246759e+00 -6.745752e+00 -1.926429e+01 -4.837524e+01 -9.148840e+01 -9.219411e+01 -4.231115e+01 -1.533967e+00 1.534966e+01 4.043715e+01 1.340987e+01 7.958244e+01 1.209793e+02 4.564073e+01 1.637146e+01 5.338562e+00 1.654990e+00 4.595402e-01 1.349797e-01 3.037824e-02 1.098874e-02 6.011719e-04 1.441660e-03 -6.369881e-04 
4.494645e-04 -4.713142e-04 1.812443e-04 -2.510858e-04 9.248244e-05 -1.344662e-04 4.913414e-05 -7.346318e-05 2.463631e-05 -3.953557e-05 1.163250e-05 -1.938803e-05 7.432540e-06 -8.907737e-06 9.988686e-06 -7.078798e-06 1.926877e-05 -1.088292e-05 3.302053e-05 -2.427665e-05 1.818153e-05 -1.058410e-04 -1.682609e-04 -5.048325e-04 -9.685688e-04 -1.916566e-03 -3.365893e-03 -5.319286e-03 -8.089912e-03 -9.133389e-03 -1.140595e-02 -6.280736e-03 -6.033680e-03 -3.866733e-03 -1.547479e-03 -1.779383e-02 -3.123958e-02 -1.372669e-01 -4.191263e-01 -1.451325e+00 -4.545708e+00 -1.337168e+01 -3.624261e+01 -9.308777e+01 -1.278295e+02 -5.653366e+00 2.218169e+01 -2.293903e+01 -2.419851e+00 -2.011828e+00 -1.761553e+01 8.206537e+01 1.526762e+02 6.628171e+01 2.776795e+01 1.014107e+01 3.361818e+00 9.985536e-01 2.963773e-01 7.351242e-02 2.319815e-02 3.147337e-03 2.219151e-03 -6.714044e-04 
6.225677e-04 -3.495411e-04 2.181447e-04 -2.051045e-04 1.115331e-04 -1.074833e-04 6.246784e-05 -5.344567e-05 3.341391e-05 -2.386534e-05 1.464752e-05 -9.637860e-06 3.110043e-06 -8.842709e-06 -2.669569e-06 -2.061933e-05 -2.598266e-06 -4.355204e-05 -9.141203e-06 -1.045555e-04 -1.133841e-04 -3.692036e-04 -6.759488e-04 -1.488741e-03 -2.866569e-03 -5.518073e-03 -9.792322e-03 -1.675801e-02 -2.581353e-02 -3.484525e-02 -4.184904e-02 -3.055903e-02 -2.037796e-02 -4.366446e-03 8.287216e-03 -2.163619e-02 -4.993643e-02 -2.420658e-01 -7.433861e-01 -2.540642e+00 -7.570788e+00 -2.107642e+01 -5.153561e+01 -1.110676e+02 -9.229471e+01 9.230079e+00 1.960742e+01 -1.737681e+01 5.643621e+00 -1.432833e+01 -1.771559e+01 3.916263e+01 6.982866e+01 6.638410e+01 3.493271e+01 1.485315e+01 5.484584e+00 1.816006e+00 5.626524e-01 1.579504e-01 4.678631e-02 1.036742e-02 4.066018e-03 2.053042e-05 
6.267673e-04 -3.814448e-04 1.288886e-04 -2.452135e-04 6.591176e-05 -1.290235e-04 4.252025e-05 -6.788704e-05 2.063085e-05 -4.272191e-05 -6.114259e-06 -4.365887e-05 -3.699080e-05 -6.571597e-05 -6.563884e-05 -1.012716e-04 -7.986410e-05 -1.450862e-04 -9.058343e-05 -2.511153e-04 -2.651571e-04 -7.622898e-04 -1.391456e-03 -3.249607e-03 -6.643961e-03 -1.388411e-02 -2.672248e-02 -4.997220e-02 -8.286516e-02 -1.242744e-01 -1.502169e-01 -1.159854e-01 -4.747531e-02 3.798113e-02 7.464386e-02 2.823588e-02 -4.599220e-02 -3.464914e-01 -1.128861e+00 -3.686494e+00 -1.052724e+01 -2.765119e+01 -6.313687e+01 -1.237958e+02 -2.350578e+01 1.624005e+01 -3.669160e+01 5.054946e+00 1.053399e+01 9.101709e+00 6.121855e+00 4.176994e+01 7.081937e+01 6.353199e+01 3.827725e+01 1.851046e+01 7.611171e+00 2.769579e+00 9.244224e-01 2.805655e-01 8.429572e-02 2.130178e-02 6.767947e-03 6.969280e-04 
1.117673e-03 -6.406159e-05 1.911729e-04 -1.424838e-04 9.317658e-05 -7.411882e-05 6.263599e-05 -3.691091e-05 2.194050e-05 -4.336162e-05 -4.501066e-05 -9.396250e-05 -1.309039e-04 -1.749389e-04 -2.082603e-04 -2.584744e-04 -2.502883e-04 -3.421703e-04 -3.126570e-04 -6.040688e-04 -8.505184e-04 -1.982225e-03 -3.969328e-03 -8.763567e-03 -1.869927e-02 -3.906608e-02 -7.865425e-02 -1.516326e-01 -2.658574e-01 -4.272592e-01 -5.441789e-01 -4.590021e-01 -1.580345e-01 1.903934e-01 3.822634e-01 2.994958e-01 1.165391e-01 -3.528445e-01 -1.430041e+00 -4.492238e+00 -1.247535e+01 -3.129849e+01 -6.842449e+01 -1.283507e+02 -4.021133e+01 4.039916e+01 -7.300923e+00 -1.927118e+00 -1.360785e+01 -1.624504e+01 -5.561160e+00 5.989343e+01 1.059891e+02 6.130056e+01 3.939466e+01 2.096210e+01 9.434084e+00 3.757337e+00 1.352869e+00 4.472635e-01 1.406979e-01 4.047144e-02 1.229061e-02 2.738031e-03 
1.580943e-03 1.067709e-04 1.270716e-04 -1.424402e-04 4.822740e-05 -7.780678e-05 3.930281e-05 -6.067086e-05 -3.094514e-05 -1.372261e-04 -1.913065e-04 -3.098744e-04 -4.117194e-04 -5.242583e-04 -6.052735e-04 -6.957708e-04 -7.025796e-04 -8.413846e-04 -8.446962e-04 -1.416587e-03 -2.055639e-03 -4.620269e-03 -9.274079e-03 -2.117897e-02 -4.633810e-02 -1.017291e-01 -2.145933e-01 -4.358018e-01 -8.134407e-01 -1.391798e+00 -1.871092e+00 -1.614787e+00 -4.157747e-01 8.581925e-01 1.431504e+00 1.447775e+00 9.374078e-01 1.870885e-02 -1.461346e+00 -4.717105e+00 -1.280405e+01 -3.046467e+01 -6.183421e+01 -9.526879e+01 -7.507957e+01 -1.391757e+01 -4.239606e+00 8.008557e-01 4.998257e+01 9.777035e+00 -3.329919e+01 1.885752e+01 6.528628e+01 5.605714e+01 3.930629e+01 2.237462e+01 1.087332e+01 4.667528e+00 1.802715e+00 6.396832e-01 2.118084e-01 6.546863e-02 1.978284e-02 5.160262e-03 
2.805896e-03 6.646674e-04 2.769735e-04 3.119118e-06 9.814879e-05 -1.021582e-05 4.746165e-05 -8.050294e-05 -1.493522e-04 -3.470154e-04 -5.658811e-04 -8.194595e-04 -1.104082e-03 -1.327438e-03 -1.510950e-03 -1.634203e-03 -1.640987e-03 -1.802656e-03 -1.897513e-03 -2.945105e-03 -4.685339e-03 -1.037653e-02 -2.222474e-02 -5.177284e-02 -1.183790e-01 -2.666059e-01 -5.848473e-01 -1.218945e+00 -2.384545e+00 -4.244164e+00 -6.024835e+00 -5.300441e+00 -1.023890e+00 2.724563e+00 4.096927e+00 5.019898e+00 4.095681e+00 1.679681e+00 -8.091143e-01 -4.301633e+00 -1.182728e+01 -2.709261e+01 -5.112083e+01 -6.899393e+01 -5.867351e+01 -3.422450e+00 4.015644e+00 -1.816450e+01 1.530880e+01 3.313704e+00 1.674123e+01 5.421101e+01 5.382233e+01 5.063891e+01 3.788439e+01 2.298114e+01 1.192645e+01 5.456825e+00 2.248714e+00 8.501871e-01 2.984652e-01 9.865340e-02 3.115553e-02 9.265907e-03 
4.346550e-03 1.228839e-03 3.812674e-04 8.391635e-05 9.020163e-05 -7.276431e-06 -3.670926e-05 -2.598509e-04 -5.228739e-04 -9.746849e-04 -1.526063e-03 -2.136772e-03 -2.769646e-03 -3.256402e-03 -3.593563e-03 -3.732092e-03 -3.685996e-03 -3.804642e-03 -4.067114e-03 -6.084754e-03 -1.006721e-02 -2.256493e-02 -4.954020e-02 -1.191788e-01 -2.779060e-01 -6.464123e-01 -1.449325e+00 -3.116871e+00 -6.314195e+00 -1.168170e+01 -1.770558e+01 -1.732350e+01 -1.003802e+00 1.136259e+01 8.332344e+00 1.339660e+01 1.497980e+01 7.284660e+00 1.612319e+00 -3.039087e+00 -1.017239e+01 -2.318357e+01 -4.181332e+01 -5.228921e+01 -4.559592e+01 -1.707218e+01 -2.948027e+00 -2.242010e+01 -2.595468e+01 2.872071e+00 2.588059e+01 3.864032e+01 4.698936e+01 4.600094e+01 3.593074e+01 2.299831e+01 1.260471e+01 6.093348e+00 2.655696e+00 1.061750e+00 3.933262e-01 1.373431e-01 4.530651e-02 1.435196e-02 
6.743186e-03 2.172920e-03 7.187444e-04 2.808238e-04 1.597423e-04 -1.269924e-05 -2.258324e-04 -7.190251e-04 -1.440359e-03 -2.479098e-03 -3.825979e-03 -5.199038e-03 -6.626504e-03 -7.566664e-03 -8.127626e-03 -8.105888e-03 -7.745092e-03 -7.537483e-03 -8.014443e-03 -1.148453e-02 -1.994357e-02 -4.506068e-02 -1.035119e-01 -2.548108e-01 -6.108479e-01 -1.446497e+00 -3.299345e+00 -7.167293e+00 -1.475038e+01 -2.767723e+01 -4.858422e+01 -3.768944e+01 -2.888795e+01 -1.494375e+01 2.948826e+00 3.345387e+01 5.284491e+01 2.366301e+01 8.536299e+00 3.986269e-02 -7.805159e+00 -1.927499e+01 -3.422251e+01 -4.295604e+01 -4.187948e+01 -3.194956e+01 -2.386381e+01 -2.853657e+01 -3.106177e+01 -8.021063e+00 2.066863e+01 3.664163e+01 4.316697e+01 4.203992e+01 3.374296e+01 2.253305e+01 1.293908e+01 6.561052e+00 3.006291e+00 1.263725e+00 4.929437e-01 1.811068e-01 6.286700e-02 2.108832e-02 
9.774662e-03 3.334655e-03 1.120886e-03 4.652388e-04 1.379686e-04 -2.097458e-04 -8.372409e-04 -1.948017e-03 -3.689793e-03 -6.069336e-03 -9.125275e-03 -1.221336e-02 -1.521385e-02 -1.702157e-02 -1.771461e-02 -1.697809e-02 -1.547604e-02 -1.414224e-02 -1.460436e-02 -2.051920e-02 -3.691276e-02 -8.523320e-02 -2.011279e-01 -5.036856e-01 -1.216419e+00 -2.889286e+00 -6.517308e+00 -1.390129e+01 -2.768886e+01 -5.791375e+01 -6.757439e+01 -4.304768e+01 -1.338668e+01 1.457075e+01 -8.432047e+00 3.604002e+01 9.989403e+01 5.830091e+01 2.248580e+01 6.193853e+00 -4.293545e+00 -1.544536e+01 -2.841588e+01 -3.715883e+01 -3.936906e+01 -3.481644e+01 -2.870874e+01 -2.188847e+01 -9.969662e+00 6.698014e+00 2.282650e+01 3.376466e+01 3.882077e+01 3.807549e+01 3.129902e+01 2.168674e+01 1.297058e+01 6.865650e+00 3.290512e+00 1.448077e+00 5.923389e-01 2.280435e-01 8.303250e-02 2.917509e-02 
1.362830e-02 4.879411e-03 1.745883e-03 6.875709e-04 3.155373e-05 -8.097512e-04 -2.293392e-03 -4.853686e-03 -8.805204e-03 -1.419849e-02 -2.103772e-02 -2.786939e-02 -3.423372e-02 -3.742889e-02 -3.771164e-02 -3.430941e-02 -2.939968e-02 -2.465756e-02 -2.457858e-02 -3.362330e-02 -6.326689e-02 -1.472745e-01 -3.563993e-01 -8.925333e-01 -2.151642e+00 -5.010477e+00 -1.091289e+01 -2.190055e+01 -3.885933e+01 -5.104453e+01 -2.436963e+01 -3.043677e+01 8.823523e+00 3.480353e+01 -1.188844e+01 -2.692534e-01 5.087262e+01 6.923549e+01 3.721274e+01 1.478094e+01 5.671329e-01 -1.147287e+01 -2.367965e+01 -3.273023e+01 -3.686564e+01 -3.503385e+01 -2.859491e+01 -1.767035e+01 -3.572429e+00 9.829797e+00 2.166471e+01 3.115621e+01 3.570962e+01 3.490536e+01 2.907444e+01 2.071472e+01 1.282191e+01 7.047026e+00 3.514503e+00 1.611594e+00 6.882775e-01 2.765852e-01 1.053649e-01 3.865441e-02 
1.826718e-02 6.793937e-03 2.481841e-03 8.159444e-04 -5.225172e-04 -2.388720e-03 -5.806313e-03 -1.146550e-02 -2.029412e-02 -3.226932e-02 -4.738955e-02 -6.245420e-02 -7.579634e-02 -8.133105e-02 -7.904670e-02 -6.778298e-02 -5.202376e-02 -3.779697e-02 -3.393561e-02 -4.700384e-02 -9.560656e-02 -2.307219e-01 -5.681867e-01 -1.415499e+00 -3.363451e+00 -7.579345e+00 -1.562882e+01 -2.851827e+01 -3.954074e+01 -5.128541e+01 -1.901125e+01 6.612777e+00 -6.749470e+00 -7.168043e+00 5.150058e+00 -1.323883e+01 7.910913e+00 6.357565e+01 4.941559e+01 2.336282e+01 6.239087e+00 -7.211137e+00 -1.939141e+01 -2.874981e+01 -3.382647e+01 -3.334913e+01 -2.749932e+01 -1.706606e+01 -4.199493e+00 8.509798e+00 1.975194e+01 2.836021e+01 3.263956e+01 3.202154e+01 2.696711e+01 1.964523e+01 1.251886e+01 7.113657e+00 3.677077e+00 1.750795e+00 7.780808e-01 3.254952e-01 1.294054e-01 4.945250e-02 
2.365894e-02 9.092359e-03 3.330967e-03 6.372644e-04 -1.971589e-03 -6.119516e-03 -1.350376e-02 -2.592247e-02 -4.505575e-02 -7.159747e-02 -1.048997e-01 -1.387409e-01 -1.676935e-01 -1.774829e-01 -1.667171e-01 -1.311546e-01 -8.495173e-02 -4.228395e-02 -2.826839e-02 -4.649055e-02 -1.237986e-01 -3.229733e-01 -8.134737e-01 -1.998641e+00 -4.664841e+00 -1.010936e+01 -1.972835e+01 -3.354973e+01 -4.597862e+01 -6.905852e+01 -2.054206e+01 3.120677e+01 -1.864710e+01 -8.764877e+00 1.883735e+01 1.128914e+01 2.886156e+01 5.285726e+01 5.494810e+01 2.947923e+01 1.148569e+01 -2.971223e+00 -1.535568e+01 -2.486248e+01 -3.012129e+01 -2.986763e+01 -2.431979e+01 -1.495751e+01 -3.634720e+00 8.074549e+00 1.847840e+01 2.614574e+01 2.990767e+01 2.937406e+01 2.497349e+01 1.853284e+01 1.211006e+01 7.087727e+00 3.783318e+00 1.864341e+00 8.592519e-01 3.731838e-01 1.543546e-01 6.132622e-02 