# vtk DataFile Version 2.0
Comment goes here
ASCII

DATASET STRUCTURED_POINTS
DIMENSIONS    64   64   1

ORIGIN    0.000   0.000   0.000
SPACING   0.0156250.015625   1.000

POINT_DATA   4096
SCALARS Omega double
LOOKUP_TABLE default

-4.975200e-04 -9.940772e-04 -1.647105e-03 -2.548871e-03 -3.639022e-03 -4.858501e-03 -5.875156e-03 -6.340508e-03 -5.798527e-03 -4.107791e-03 -1.698559e-03 2.994048e-04 1.110799e-04 -3.790457e-03 -1.215777e-02 -2.389812e-02 -3.657224e-02 -4.600312e-02 -4.905253e-02 -4.434958e-02 -3.331674e-02 -2.058109e-02 -1.040367e-02 -6.504883e-03 -9.559676e-03 -1.869475e-02 -3.086766e-02 -4.293416e-02 -5.199159e-02 -5.616287e-02 -5.570329e-02 -5.089224e-02 -4.393781e-02 -3.552230e-02 -2.713543e-02 -1.902347e-02 -1.129276e-02 -4.147214e-03 3.070560e-03 1.023906e-02 1.817990e-02 2.717247e-02 3.751705e-02 4.926719e-02 6.141641e-02 7.279170e-02 8.145645e-02 8.594625e-02 8.541803e-02 8.020519e-02 7.129417e-02 6.049580e-02 4.888298e-02 3.808677e-02 2.822173e-02 2.028066e-02 1.374390e-02 9.083970e-03 5.590511e-03 3.378721e-03 1.846749e-03 9.565263e-04 3.378011e-04 -8.648331e-05 
-3.379238e-04 -6.066911e-04 -9.341223e-04 -1.358032e-03 -1.817368e-03 -2.289156e-03 -2.600182e-03 -2.647960e-03 -2.301105e-03 -1.654502e-03 -1.089577e-03 -1.261734e-03 -3.052178e-03 -6.960315e-03 -1.302866e-02 -2.016873e-02 -2.688154e-02 -3.109796e-02 -3.151415e-02 -2.802332e-02 -2.150904e-02 -1.437002e-02 -8.406597e-03 -5.364842e-03 -5.374829e-03 -8.187098e-03 -1.243250e-02 -1.685833e-02 -2.028307e-02 -2.178511e-02 -2.163452e-02 -1.964184e-02 -1.699332e-02 -1.364811e-02 -1.043512e-02 -7.215536e-03 -4.084772e-03 -1.021902e-03 2.296785e-03 5.824376e-03 9.940026e-03 1.471570e-02 2.022386e-02 2.639971e-02 3.268990e-02 3.844592e-02 4.271609e-02 4.473298e-02 4.413561e-02 4.110976e-02 3.622278e-02 3.047497e-02 2.440237e-02 1.892124e-02 1.394953e-02 1.006963e-02 6.830969e-03 4.585911e-03 2.830716e-03 1.749974e-03 9.445480e-04 4.886079e-04 1.368475e-04 -9.988029e-05 
-2.101542e-04 -3.669238e-04 -5.434722e-04 -7.575027e-04 -9.579997e-04 -1.145691e-03 -1.222484e-03 -1.183484e-03 -9.942383e-04 -7.878794e-04 -8.011537e-04 -1.401848e-03 -2.979457e-03 -5.669889e-03 -9.328344e-03 -1.321446e-02 -1.652509e-02 -1.823774e-02 -1.792003e-02 -1.569673e-02 -1.208584e-02 -8.310876e-03 -5.011365e-03 -3.089630e-03 -2.393406e-03 -2.999680e-03 -4.207806e-03 -5.645835e-03 -6.802028e-03 -7.290093e-03 -7.296148e-03 -6.564818e-03 -5.740479e-03 -4.552042e-03 -3.510903e-03 -2.339520e-03 -1.194258e-03 5.545609e-05 1.496392e-03 3.144798e-03 5.149924e-03 7.527072e-03 1.029152e-02 1.336170e-02 1.646960e-02 1.924826e-02 2.126597e-02 2.211237e-02 2.166121e-02 2.000141e-02 1.745013e-02 1.453873e-02 1.151280e-02 8.879711e-03 6.502195e-03 4.731176e-03 3.217223e-03 2.220166e-03 1.386825e-03 9.008434e-04 4.935003e-04 2.719610e-04 7.129399e-05 -6.404742e-05 
-1.565206e-04 -2.459636e-04 -3.401249e-04 -4.451787e-04 -5.254963e-04 -5.898914e-04 -5.823298e-04 -5.246388e-04 -4.115844e-04 -3.425588e-04 -4.526890e-04 -9.223584e-04 -1.925737e-03 -3.462550e-03 -5.413633e-03 -7.356673e-03 -8.884750e-03 -9.567064e-03 -9.208989e-03 -8.008930e-03 -6.153652e-03 -4.298947e-03 -2.599344e-03 -1.534146e-03 -9.164815e-04 -8.785361e-04 -1.074295e-03 -1.417469e-03 -1.729890e-03 -1.814573e-03 -1.852232e-03 -1.585721e-03 -1.422272e-03 -1.054851e-03 -8.260085e-04 -4.647857e-04 -1.223711e-04 3.356009e-04 9.073067e-04 1.621028e-03 2.530648e-03 3.634572e-03 4.938156e-03 6.377601e-03 7.840287e-03 9.117447e-03 1.003810e-02 1.037135e-02 1.009946e-02 9.244900e-03 7.985626e-03 6.586701e-03 5.148829e-03 3.953577e-03 2.865531e-03 2.112753e-03 1.432299e-03 1.027085e-03 6.400429e-04 4.399277e-04 2.313997e-04 1.290451e-04 1.027743e-05 -6.562552e-05 
-9.998253e-05 -1.559502e-04 -2.119914e-04 -2.707477e-04 -3.064287e-04 -3.319393e-04 -3.099563e-04 -2.686863e-04 -2.012716e-04 -1.775501e-04 -2.587776e-04 -5.388797e-04 -1.083259e-03 -1.871853e-03 -2.826196e-03 -3.724561e-03 -4.383494e-03 -4.615553e-03 -4.356438e-03 -3.741606e-03 -2.828196e-03 -1.968143e-03 -1.129503e-03 -6.062820e-04 -2.049217e-04 -8.475572e-05 -2.679717e-05 -7.218623e-05 -1.367002e-04 -1.375319e-04 -2.004404e-04 -1.263758e-04 -1.794871e-04 -9.103875e-05 -1.156524e-04 -1.160690e-05 6.061754e-05 2.382170e-04 4.600331e-04 7.719789e-04 1.175243e-03 1.670522e-03 2.264675e-03 2.907762e-03 3.571204e-03 4.124937e-03 4.526438e-03 4.634086e-03 4.478152e-03 4.047267e-03 3.446267e-03 2.800063e-03 2.144521e-03 1.636279e-03 1.164714e-03 8.809420e-04 5.950345e-04 4.598589e-04 2.901568e-04 2.241774e-04 1.192931e-04 7.649002e-05 4.459778e-06 -3.978977e-05 
-7.415173e-05 -1.050131e-04 -1.343124e-04 -1.614958e-04 -1.699853e-04 -1.717307e-04 -1.424281e-04 -1.064495e-04 -5.667432e-05 -3.703028e-05 -7.401386e-05 -2.133788e-04 -4.796144e-04 -8.553094e-04 -1.295491e-03 -1.700319e-03 -1.975225e-03 -2.067226e-03 -1.919931e-03 -1.648896e-03 -1.221976e-03 -8.553408e-04 -4.577057e-04 -2.203677e-04 9.228736e-06 1.039504e-04 1.923627e-04 2.260001e-04 2.283556e-04 2.569104e-04 2.031418e-04 2.288217e-04 1.408610e-04 1.552489e-04 7.930789e-05 1.035554e-04 9.219946e-05 1.572208e-04 2.330683e-04 3.610175e-04 5.289845e-04 7.370857e-04 9.950636e-04 1.265220e-03 1.555381e-03 1.780476e-03 1.951872e-03 1.975283e-03 1.896035e-03 1.686263e-03 1.412140e-03 1.126026e-03 8.376887e-04 6.363597e-04 4.376039e-04 3.475187e-04 2.281766e-04 1.984950e-04 1.204430e-04 1.074710e-04 4.958777e-05 3.410959e-05 -1.198955e-05 -3.582520e-05 
-4.596930e-05 -6.573611e-05 -8.437608e-05 -1.007718e-04 -1.032888e-04 -1.028701e-04 -8.143754e-05 -5.977044e-05 -2.791844e-05 -1.631600e-05 -3.062172e-05 -9.772379e-05 -2.211246e-04 -3.932492e-04 -5.874748e-04 -7.604497e-04 -8.669297e-04 -8.948125e-04 -8.097158e-04 -6.877131e-04 -4.832714e-04 -3.311954e-04 -1.378453e-04 -3.989658e-05 8.672436e-05 1.330670e-04 1.947896e-04 2.178617e-04 2.197505e-04 2.320419e-04 1.794782e-04 1.816471e-04 9.863419e-05 9.814757e-05 2.751765e-05 4.106239e-05 1.679250e-05 5.401644e-05 8.230544e-05 1.444901e-04 2.192700e-04 3.090777e-04 4.240896e-04 5.328210e-04 6.598615e-04 7.416056e-04 8.127834e-04 8.029690e-04 7.617526e-04 6.551363e-04 5.307813e-04 4.052253e-04 2.813275e-04 2.098304e-04 1.306165e-04 1.172380e-04 7.174681e-05 8.270702e-05 4.894172e-05 5.787960e-05 2.632273e-05 2.391234e-05 -6.052151e-06 -1.957445e-05 
-3.365314e-05 -4.295344e-05 -5.098438e-05 -5.631614e-05 -5.115133e-05 -4.491159e-05 -2.431948e-05 -6.356686e-06 1.869101e-05 2.932843e-05 2.793130e-05 -2.806348e-06 -5.868015e-05 -1.400734e-04 -2.271673e-04 -3.094798e-04 -3.535244e-04 -3.738149e-04 -3.306968e-04 -2.887049e-04 -1.911326e-04 -1.354719e-04 -3.855831e-05 1.806767e-07 7.143958e-05 9.619288e-05 1.356120e-04 1.543752e-04 1.547616e-04 1.667513e-04 1.274744e-04 1.313355e-04 7.052571e-05 7.277440e-05 2.058672e-05 3.079587e-05 7.897668e-06 2.851926e-05 3.625695e-05 6.461857e-05 9.654201e-05 1.322236e-04 1.831296e-04 2.226061e-04 2.789738e-04 3.033855e-04 3.346298e-04 3.183963e-04 2.996489e-04 2.449233e-04 1.899325e-04 1.350098e-04 8.138601e-05 5.914271e-05 2.567706e-05 3.415493e-05 1.376985e-05 3.224178e-05 1.362127e-05 2.645736e-05 6.072431e-06 8.544229e-06 -1.152616e-05 -1.748735e-05 
-1.934685e-05 -2.568441e-05 -3.129587e-05 -3.540223e-05 -3.192912e-05 -2.905822e-05 -1.601351e-05 -6.849116e-06 8.263204e-06 1.273151e-05 1.330255e-05 -3.412721e-06 -2.946752e-05 -6.933133e-05 -1.078323e-04 -1.458666e-04 -1.609674e-04 -1.698409e-04 -1.423558e-04 -1.245824e-04 -7.029934e-05 -4.808810e-05 7.332377e-06 2.175693e-05 6.426541e-05 7.297941e-05 9.484485e-05 1.007822e-04 9.457917e-05 9.701512e-05 6.312253e-05 6.327372e-05 1.634381e-05 1.991834e-05 -1.870877e-05 -7.134959e-06 -2.448433e-05 -6.907934e-06 -3.593014e-06 1.483693e-05 3.260385e-05 4.933504e-05 7.628898e-05 8.934153e-05 1.175105e-04 1.195919e-04 1.344895e-04 1.170140e-04 1.080906e-04 7.612678e-05 5.097572e-05 2.513170e-05 1.791089e-06 -2.300165e-06 -1.545001e-05 -1.020214e-06 -8.612736e-06 1.076500e-05 2.000255e-06 1.569920e-05 3.733414e-06 8.260890e-06 -5.022246e-06 -8.059458e-06 
-1.475525e-05 -1.674971e-05 -1.738060e-05 -1.724235e-05 -1.089431e-05 -6.222301e-06 6.118440e-06 1.373076e-05 2.610920e-05 2.937118e-05 3.186680e-05 2.182220e-05 8.858797e-06 -1.478366e-05 -3.446642e-05 -5.880148e-05 -6.639593e-05 -7.779358e-05 -6.312484e-05 -6.140551e-05 -3.116351e-05 -2.495417e-05 8.230849e-06 1.396337e-05 4.094132e-05 4.652572e-05 6.020444e-05 6.572641e-05 6.024672e-05 6.438802e-05 4.038119e-05 4.364805e-05 1.130019e-05 1.672056e-05 -1.001484e-05 -6.230345e-07 -1.348638e-05 -2.212531e-06 -1.570372e-06 8.017571e-06 1.796164e-05 2.416766e-05 3.953465e-05 4.162224e-05 5.757748e-05 5.291919e-05 6.199234e-05 4.801843e-05 4.499257e-05 2.583316e-05 1.419736e-05 8.013861e-07 -1.088612e-05 -1.086659e-05 -1.843983e-05 -7.400161e-06 -1.296455e-05 9.566368e-07 -5.779600e-06 4.411717e-06 -4.100511e-06 1.284308e-07 -8.404907e-06 -8.863666e-06 
-6.546175e-06 -8.781015e-06 -9.493081e-06 -1.082223e-05 -7.158377e-06 -5.977019e-06 1.261538e-06 3.837106e-06 1.081481e-05 1.050766e-05 1.169355e-05 4.016729e-06 -2.834123e-06 -1.713604e-05 -2.637728e-05 -4.002690e-05 -4.138240e-05 -4.755072e-05 -3.577026e-05 -3.476795e-05 -1.357963e-05 -1.015270e-05 1.285684e-05 1.571149e-05 3.378993e-05 3.581393e-05 4.328399e-05 4.459151e-05 3.767487e-05 3.834719e-05 1.851195e-05 1.991506e-05 -4.974263e-06 -6.304227e-07 -2.066518e-05 -1.286987e-05 -2.226601e-05 -1.338331e-05 -1.237945e-05 -5.649809e-06 2.369857e-06 5.151333e-06 1.654350e-05 1.481455e-05 2.576902e-05 1.885844e-05 2.507394e-05 1.312601e-05 1.227494e-05 -9.653353e-07 -6.508801e-06 -1.438710e-05 -1.978157e-05 -1.817748e-05 -2.106221e-05 -1.187588e-05 -1.352833e-05 -2.313432e-06 -4.916159e-06 3.479851e-06 -8.129750e-07 2.798482e-06 -2.222044e-06 -2.683279e-06 
-6.384501e-06 -6.920647e-06 -4.637463e-06 -4.114041e-06 1.363233e-06 3.509103e-06 1.100482e-05 1.343863e-05 1.989825e-05 1.951628e-05 2.131655e-05 1.536607e-05 1.144251e-05 5.727092e-07 -5.314071e-06 -1.666104e-05 -1.815641e-05 -2.555122e-05 -1.905652e-05 -2.162073e-05 -8.689839e-06 -8.181170e-06 6.689252e-06 8.642917e-06 2.057876e-05 2.321881e-05 2.788285e-05 3.062215e-05 2.543952e-05 2.793206e-05 1.415488e-05 1.691808e-05 -4.018502e-08 3.927681e-06 -9.573479e-06 -4.466352e-06 -1.050544e-05 -5.791502e-06 -4.288538e-06 -1.745636e-06 5.021444e-06 4.612465e-06 1.383013e-05 1.048891e-05 1.924491e-05 1.301108e-05 1.842520e-05 9.774146e-06 1.035727e-05 1.515901e-06 -1.494569e-06 -6.968147e-06 -1.077763e-05 -1.072419e-05 -1.359857e-05 -9.067545e-06 -1.119090e-05 -5.291281e-06 -7.522318e-06 -3.046100e-06 -5.599664e-06 -3.659180e-06 -5.816540e-06 -5.864620e-06 
-5.698700e-08 -2.084944e-06 -4.852491e-07 -2.057573e-06 1.156264e-06 5.045005e-07 4.729055e-06 4.212538e-06 7.682894e-06 5.516586e-06 6.280802e-06 1.099860e-06 -1.097264e-06 -8.548496e-06 -1.118606e-05 -1.811312e-05 -1.741914e-05 -2.127915e-05 -1.529235e-05 -1.575357e-05 -5.696113e-06 -4.116151e-06 6.765395e-06 8.970532e-06 1.701831e-05 1.904995e-05 2.117085e-05 2.268975e-05 1.744093e-05 1.857013e-05 7.384686e-06 8.771639e-06 -4.123831e-06 -1.862572e-06 -1.155591e-05 -8.707417e-06 -1.222161e-05 -1.005666e-05 -7.366925e-06 -7.198127e-06 -3.528353e-07 -2.675826e-06 5.580283e-06 1.013072e-06 8.071786e-06 1.761840e-06 5.722631e-06 -1.491890e-06 -1.008446e-06 -7.463878e-06 -8.968597e-06 -1.257020e-05 -1.382763e-05 -1.353107e-05 -1.331307e-05 -1.005570e-05 -8.713817e-06 -4.719728e-06 -3.328398e-06 -6.336269e-07 1.024801e-07 6.156939e-07 8.179754e-07 -4.959568e-07 
-2.765664e-06 -4.187775e-06 -2.235204e-07 -7.223781e-07 4.188494e-06 4.464158e-06 9.590322e-06 9.683139e-06 1.360655e-05 1.207281e-05 1.344527e-05 9.342987e-06 8.089226e-06 1.985887e-06 -1.366372e-07 -6.266565e-06 -6.683488e-06 -1.083866e-05 -8.041155e-06 -9.447434e-06 -3.951814e-06 -3.040801e-06 3.133445e-06 5.472173e-06 9.833435e-06 1.273614e-05 1.319261e-05 1.596327e-05 1.169401e-05 1.394708e-05 6.133353e-06 7.844029e-06 -5.167216e-07 6.789815e-07 -4.820088e-06 -4.466353e-06 -4.997283e-06 -6.088388e-06 -1.635256e-06 -4.473538e-06 3.295090e-06 -9.112954e-07 7.741580e-06 2.938110e-06 1.010476e-05 5.286900e-06 9.355220e-06 4.770024e-06 5.518524e-06 1.435647e-06 1.378001e-07 -2.985049e-06 -4.422280e-06 -6.328715e-06 -6.601918e-06 -7.615930e-06 -6.547807e-06 -7.391046e-06 -5.502928e-06 -6.766039e-06 -4.556690e-06 -6.337319e-06 -3.879747e-06 -5.786882e-06 
3.904768e-06 4.680197e-07 3.645543e-06 9.666130e-07 4.043067e-06 2.064865e-06 4.908552e-06 3.052171e-06 5.056966e-06 2.489026e-06 3.069532e-06 -6.539199e-07 -1.341879e-06 -5.707510e-06 -6.505304e-06 -1.019724e-05 -9.615232e-06 -1.140418e-05 -8.739406e-06 -8.255717e-06 -4.126850e-06 -1.854212e-06 2.171621e-06 5.388428e-06 7.546329e-06 1.089081e-05 9.910451e-06 1.275243e-05 8.467602e-06 1.042819e-05 4.157015e-06 5.059993e-06 -6.757581e-07 -1.023312e-06 -3.567132e-06 -5.543766e-06 -3.388949e-06 -7.358746e-06 -8.462852e-07 -6.678087e-06 2.212318e-06 -4.614750e-06 3.911573e-06 -2.660944e-06 3.142073e-06 -2.220669e-06 -7.663361e-08 -3.962792e-06 -4.521996e-06 -7.201555e-06 -8.167572e-06 -1.008822e-05 -9.226137e-06 -1.084953e-05 -7.255489e-06 -9.051421e-06 -3.373822e-06 -5.742912e-06 5.827797e-07 -2.527629e-06 3.195648e-06 -4.935497e-07 4.098903e-06 2.700851e-07 
-1.220843e-06 -4.385729e-06 1.049285e-06 -6.490586e-07 4.194456e-06 3.357626e-06 7.406369e-06 6.593380e-06 9.386089e-06 7.786410e-06 8.949450e-06 6.211293e-06 5.907612e-06 2.460701e-06 1.511210e-06 -1.579511e-06 -2.150497e-06 -3.781856e-06 -3.455002e-06 -3.050296e-06 -2.156330e-06 1.941571e-07 7.169469e-07 4.442889e-06 3.591495e-06 7.869985e-06 5.100657e-06 9.021948e-06 4.637292e-06 7.337520e-06 2.626462e-06 3.370654e-06 3.193936e-07 -1.472747e-06 -9.163142e-07 -5.582640e-06 -3.889369e-07 -7.751373e-06 1.599803e-06 -7.437762e-06 4.068740e-06 -4.808447e-06 5.966588e-06 -7.917237e-07 6.638998e-06 2.985612e-06 5.981682e-06 4.757456e-06 4.353738e-06 3.600914e-06 2.350966e-06 5.057621e-08 5.160308e-07 -4.309190e-06 -8.792578e-07 -7.898341e-06 -1.839006e-06 -9.899027e-06 -2.458540e-06 -1.027387e-05 -2.719488e-06 -9.332097e-06 -2.411592e-06 -7.332519e-06 
7.113659e-06 1.635506e-06 6.116501e-06 2.241972e-06 5.338343e-06 2.547132e-06 4.662968e-06 2.321570e-06 3.563585e-06 1.131962e-06 1.532367e-06 -1.163107e-06 -1.372951e-06 -3.975001e-06 -4.315635e-06 -6.075495e-06 -6.106943e-06 -6.283477e-06 -5.994448e-06 -4.214514e-06 -4.136137e-06 -4.956951e-07 -1.421974e-06 3.598337e-06 1.077051e-06 6.700686e-06 2.601270e-06 7.803144e-06 2.964859e-06 6.551034e-06 2.590478e-06 3.360711e-06 2.297115e-06 -7.240994e-07 2.846433e-06 -4.432578e-06 4.414694e-06 -6.734875e-06 6.304969e-06 -7.167997e-06 7.167276e-06 -6.002368e-06 5.735252e-06 -4.279276e-06 1.748355e-06 -3.494336e-06 -3.538345e-06 -4.717609e-06 -7.815951e-06 -7.647220e-06 -9.073163e-06 -1.062854e-05 -6.845682e-06 -1.185925e-05 -2.344616e-06 -1.065227e-05 2.488541e-06 -7.668603e-06 6.089379e-06 -4.203374e-06 7.824575e-06 -1.321929e-06 7.928889e-06 5.686190e-07 
-6.817739e-07 -5.700553e-06 1.177316e-06 -1.358027e-06 3.600933e-06 2.361565e-06 5.782634e-06 4.847736e-06 6.933268e-06 5.675081e-06 6.580608e-06 4.866119e-06 4.842702e-06 3.055984e-06 2.433306e-06 1.305028e-06 2.822928e-07 5.757463e-07 -9.976135e-07 1.229573e-06 -1.378122e-06 2.903681e-06 -1.240323e-06 4.782485e-06 -9.792676e-07 5.994811e-06 -7.313327e-07 5.892753e-06 -3.808612e-07 4.159976e-06 2.487389e-07 8.427636e-07 1.238067e-06 -3.596580e-06 2.564315e-06 -8.228795e-06 4.116570e-06 -1.174000e-05 5.589859e-06 -1.273050e-05 6.440708e-06 -1.027281e-05 6.214685e-06 -4.696917e-06 5.094476e-06 1.912047e-06 4.021085e-06 6.384547e-06 3.965815e-06 6.350729e-06 4.925658e-06 1.843591e-06 5.824385e-06 -4.897474e-06 5.515635e-06 -1.105443e-05 3.778058e-06 -1.472707e-05 1.375401e-06 -1.539115e-05 -5.996494e-07 -1.352374e-05 -1.362523e-06 -1.000324e-05 
1.033461e-05 2.752635e-06 8.129980e-06 3.414843e-06 6.275687e-06 3.219449e-06 4.599872e-06 2.267146e-06 2.813816e-06 6.718498e-07 7.811965e-07 -1.252991e-06 -1.327693e-06 -2.938630e-06 -3.118647e-06 -3.751328e-06 -4.265667e-06 -3.323852e-06 -4.770993e-06 -1.757412e-06 -4.929484e-06 4.712613e-07 -4.999086e-06 2.776974e-06 -4.875296e-06 4.644914e-06 -4.088049e-06 5.608406e-06 -2.163788e-06 5.184849e-06 9.581204e-07 3.029725e-06 4.867439e-06 -6.842728e-07 9.001189e-06 -5.038749e-06 1.281132e-05 -8.616363e-06 1.543085e-05 -1.007595e-05 1.536185e-05 -8.862227e-06 1.109380e-05 -5.957868e-06 2.724292e-06 -3.929253e-06 -6.793865e-06 -5.279735e-06 -1.270534e-05 -9.997485e-06 -1.180400e-05 -1.516513e-05 -4.954378e-06 -1.750926e-05 3.898893e-06 -1.591915e-05 1.087543e-05 -1.157005e-05 1.425453e-05 -6.443785e-06 1.441354e-05 -2.039226e-06 1.268226e-05 1.020354e-06 
-9.236871e-07 -7.244121e-06 8.505557e-07 -1.676532e-06 3.163479e-06 2.319822e-06 4.996713e-06 4.469994e-06 5.768616e-06 4.953556e-06 5.437091e-06 4.375247e-06 4.400337e-06 3.578151e-06 3.183572e-06 3.289501e-06 2.051738e-06 3.781316e-06 8.252175e-07 4.791217e-06 -9.068932e-07 5.770647e-06 -3.277194e-06 6.262817e-06 -5.709804e-06 6.104179e-06 -6.988322e-06 5.267611e-06 -5.970368e-06 3.480891e-06 -2.523866e-06 1.008308e-07 2.212425e-06 -5.354062e-06 6.676669e-06 -1.235175e-05 9.931015e-06 -1.902260e-05 1.164757e-05 -2.257856e-05 1.139938e-05 -2.031835e-05 8.832105e-06 -1.151781e-05 4.929215e-06 6.162765e-07 2.531588e-06 9.633724e-06 4.331327e-06 1.022674e-05 9.746423e-06 2.398253e-06 1.482366e-05 -9.143763e-06 1.581831e-05 -1.897546e-05 1.224691e-05 -2.398093e-05 6.514065e-06 -2.378787e-05 1.544543e-06 -1.972814e-05 -9.792911e-07 -1.366051e-05 
1.372744e-05 4.634111e-06 1.000374e-05 5.311044e-06 7.202725e-06 4.600751e-06 4.788119e-06 2.835577e-06 2.431003e-06 5.299163e-07 2.243207e-07 -1.569344e-06 -1.457705e-06 -2.714667e-06 -2.386402e-06 -2.560211e-06 -2.884128e-06 -1.390887e-06 -3.804659e-06 1.018181e-07 -5.948269e-06 1.381758e-06 -9.242505e-06 2.484149e-06 -1.230861e-05 3.838160e-06 -1.292960e-05 5.502848e-06 -9.417081e-06 6.468547e-06 -1.990711e-06 4.991382e-06 7.252331e-06 1.012147e-07 1.605189e-05 -7.165628e-06 2.337411e-05 -1.417226e-05 2.856322e-05 -1.788980e-05 2.947971e-05 -1.616191e-05 2.278032e-05 -9.839872e-06 7.571871e-06 -4.308387e-06 -1.051683e-05 -6.196010e-06 -2.083423e-05 -1.613250e-05 -1.645705e-05 -2.691650e-05 -9.016193e-07 -3.101121e-05 1.573394e-05 -2.699641e-05 2.567282e-05 -1.841964e-05 2.747124e-05 -9.429529e-06 2.394590e-05 -2.361604e-06 1.861602e-05 2.225696e-06 
-2.250084e-06 -8.316558e-06 3.106920e-07 -7.053488e-07 3.350428e-06 3.907716e-06 5.323206e-06 5.597575e-06 5.716725e-06 5.187080e-06 4.996898e-06 4.058763e-06 4.147094e-06 3.623053e-06 3.881785e-06 4.605861e-06 3.958944e-06 6.653406e-06 3.152059e-06 8.638455e-06 6.479524e-08 9.498764e-06 -5.631073e-06 8.998875e-06 -1.229554e-05 7.843155e-06 -1.654959e-05 6.883626e-06 -1.511470e-05 5.772467e-06 -7.485768e-06 2.405276e-06 3.128691e-06 -5.489950e-06 1.243562e-05 -1.777494e-05 1.857182e-05 -3.132363e-05 2.185288e-05 -4.103968e-05 2.171691e-05 -4.071284e-05 1.651235e-05 -2.646827e-05 7.428703e-06 -3.084733e-06 1.382968e-06 1.523927e-05 6.247238e-06 1.599146e-05 2.079990e-05 1.513580e-07 3.392358e-05 -2.075735e-05 3.593374e-05 -3.594246e-05 2.686731e-05 -4.119009e-05 1.365484e-05 -3.768656e-05 3.046428e-06 -2.887487e-05 -2.064551e-06 -1.822701e-05 
1.685618e-05 7.943413e-06 1.162243e-05 8.539134e-06 8.289901e-06 7.116717e-06 5.380825e-06 4.068876e-06 2.275271e-06 2.936061e-07 -5.671352e-07 -2.752612e-06 -2.125728e-06 -3.705927e-06 -1.928726e-06 -2.280830e-06 -1.003711e-06 3.273936e-07 -1.708715e-06 2.263381e-06 -6.222527e-06 2.584328e-06 -1.457708e-05 2.261382e-06 -2.357331e-05 3.541904e-06 -2.769499e-05 7.634369e-06 -2.240719e-05 1.227703e-05 -8.120028e-06 1.224704e-05 9.476597e-06 3.961390e-06 2.473663e-05 -1.063766e-05 3.698701e-05 -2.605170e-05 4.792520e-05 -3.623275e-05 5.469833e-05 -3.510208e-05 4.832363e-05 -2.128708e-05 2.223045e-05 -6.102989e-06 -1.426309e-05 -8.334101e-06 -3.532820e-05 -3.135559e-05 -2.310743e-05 -5.491439e-05 1.145797e-05 -6.027879e-05 4.239438e-05 -4.790849e-05 5.454109e-05 -2.903824e-05 4.981276e-05 -1.257012e-05 3.756016e-05 -1.451048e-06 2.548300e-05 4.922333e-06 
-5.353208e-06 -7.971258e-06 -1.206460e-07 2.725508e-06 5.015815e-06 8.159484e-06 7.582183e-06 8.786549e-06 7.105057e-06 6.246728e-06 4.961739e-06 3.235037e-06 3.493097e-06 2.465902e-06 4.297869e-06 5.081741e-06 6.649559e-06 9.816072e-06 7.441291e-06 1.389482e-05 3.040585e-06 1.509125e-05 -8.001702e-06 1.337673e-05 -2.279891e-05 1.110400e-05 -3.392223e-05 1.116347e-05 -3.300124e-05 1.325333e-05 -1.786699e-05 1.158725e-05 3.592833e-06 -7.156923e-07 2.066297e-05 -2.372190e-05 3.101850e-05 -5.131212e-05 3.898197e-05 -7.572039e-05 4.376679e-05 -8.427393e-05 3.766684e-05 -6.280138e-05 1.829874e-05 -1.557393e-05 1.427963e-06 2.408788e-05 1.160148e-05 2.366464e-05 4.786781e-05 -1.108822e-05 7.830568e-05 -4.971684e-05 7.838937e-05 -7.119238e-05 5.323227e-05 -7.260399e-05 2.287037e-05 -6.029519e-05 1.844517e-06 -4.197531e-05 -6.422764e-06 -2.341202e-05 
1.845329e-05 1.320257e-05 1.271118e-05 1.373415e-05 1.007990e-05 1.149985e-05 7.176004e-06 6.453287e-06 2.772779e-06 -1.716146e-07 -1.849961e-06 -5.539888e-06 -3.939500e-06 -6.653113e-06 -1.834508e-06 -2.862096e-06 2.547371e-06 2.919899e-06 3.812841e-06 6.164652e-06 -3.568555e-06 4.677558e-06 -2.083577e-05 1.216957e-06 -4.207463e-05 2.363225e-06 -5.501649e-05 1.287657e-05 -4.789273e-05 2.797146e-05 -2.068390e-05 3.278268e-05 1.163971e-05 1.642261e-05 3.471104e-05 -1.506240e-05 5.146002e-05 -4.935016e-05 7.385024e-05 -7.761433e-05 1.001177e-04 -8.501840e-05 1.063471e-04 -5.756917e-05 6.452765e-05 -1.571062e-05 -1.522750e-05 -1.544358e-05 -6.484359e-05 -7.272529e-05 -3.136472e-05 -1.247546e-04 4.925200e-05 -1.237189e-04 1.061972e-04 -8.500632e-05 1.129191e-04 -4.277393e-05 8.738705e-05 -1.362996e-05 5.555099e-05 2.253445e-06 3.169530e-05 9.890204e-06 
-1.102674e-05 -4.742669e-06 5.990548e-07 1.041610e-05 1.017639e-05 1.698654e-05 1.394487e-05 1.561367e-05 1.145127e-05 8.821738e-06 5.692821e-06 1.555925e-06 1.916431e-06 -6.633595e-07 4.085103e-06 4.542190e-06 1.105334e-05 1.425162e-05 1.616919e-05 2.237906e-05 1.114934e-05 2.434613e-05 -8.627531e-06 2.037892e-05 -3.952525e-05 1.617072e-05 -6.682438e-05 1.988158e-05 -6.971822e-05 3.249341e-05 -3.987299e-05 3.822436e-05 2.991114e-06 1.661020e-05 3.057243e-05 -2.908513e-05 4.380771e-05 -8.266049e-05 6.443069e-05 -1.399136e-04 9.168463e-05 -1.811805e-04 9.616493e-05 -1.597028e-04 5.506946e-05 -6.247526e-05 1.323775e-06 2.962341e-05 1.829814e-05 2.320320e-05 1.140111e-04 -5.564978e-05 1.862445e-04 -1.230447e-04 1.708666e-04 -1.442238e-04 9.984437e-05 -1.288715e-04 3.113886e-05 -9.593615e-05 -7.419904e-06 -5.982774e-05 -1.742180e-05 -2.841184e-05 
1.620591e-05 2.043082e-05 1.337584e-05 2.177155e-05 1.450239e-05 1.963074e-05 1.303010e-05 1.230641e-05 6.615051e-06 9.868768e-07 -1.930782e-06 -8.970499e-06 -6.048419e-06 -1.084838e-05 -8.593420e-07 -2.657440e-06 1.068288e-05 9.370562e-06 1.740684e-05 1.501312e-05 6.861784e-06 9.156249e-06 -2.591764e-05 -2.077622e-06 -7.197846e-05 -2.101071e-06 -1.061488e-04 2.469765e-05 -9.841858e-05 6.916299e-05 -4.514919e-05 8.768623e-05 1.353704e-05 4.746968e-05 3.910410e-05 -2.383289e-05 5.054123e-05 -9.451016e-05 9.499152e-05 -1.693307e-04 1.778490e-04 -2.216503e-04 2.384052e-04 -1.852222e-04 1.776506e-04 -7.629944e-05 -2.112334e-05 -6.311533e-05 -1.579403e-04 -2.164708e-04 -5.064912e-05 -3.220629e-04 1.595746e-04 -2.660598e-04 2.620558e-04 -1.451009e-04 2.306441e-04 -5.335233e-05 1.468707e-04 -7.272542e-06 7.456700e-05 1.067570e-05 3.281835e-05 1.723950e-05 
-1.915064e-05 3.399981e-06 5.404024e-06 2.522697e-05 2.355667e-05 3.464212e-05 3.048779e-05 3.170076e-05 2.549267e-05 1.915386e-05 1.367480e-05 5.071089e-06 5.214099e-06 -1.378407e-07 8.621120e-06 8.225969e-06 2.247402e-05 2.448711e-05 3.474927e-05 3.767725e-05 3.032318e-05 4.062778e-05 -1.589342e-06 3.410379e-05 -6.070454e-05 2.855848e-05 -1.235504e-04 4.336022e-05 -1.419206e-04 8.493184e-05 -8.654906e-05 1.094718e-04 -5.369270e-06 5.443256e-05 2.450388e-05 -4.695898e-05 2.589642e-05 -1.348710e-04 8.357456e-05 -2.554356e-04 1.904973e-04 -4.123136e-04 2.435933e-04 -4.670442e-04 1.346799e-04 -2.997721e-04 -7.907031e-05 -8.447338e-05 -7.161388e-05 -1.021569e-04 2.391594e-04 -2.522398e-04 4.477268e-04 -3.216443e-04 3.710384e-04 -2.960370e-04 1.738115e-04 -2.270154e-04 2.493887e-05 -1.496858e-04 -3.670133e-05 -8.248245e-05 -4.004554e-05 -3.171323e-05 
7.385681e-06 2.849628e-05 1.570186e-05 3.475087e-05 2.779911e-05 3.812479e-05 3.366014e-05 3.350285e-05 2.917801e-05 2.066578e-05 1.851352e-05 7.560182e-06 1.312149e-05 5.699461e-06 2.216472e-05 1.837757e-05 4.104632e-05 3.443844e-05 5.168646e-05 3.712681e-05 3.450774e-05 1.981398e-05 -2.134464e-05 -5.507331e-06 -1.090576e-04 -4.696122e-06 -1.880826e-04 6.386645e-05 -1.914408e-04 1.813181e-04 -1.023276e-04 2.145706e-04 -1.899950e-05 7.247453e-05 -3.112049e-05 -9.557176e-05 -5.786791e-05 -2.005734e-04 4.078601e-05 -3.785587e-04 2.704848e-04 -6.371522e-04 4.751638e-04 -7.455331e-04 3.410723e-04 -5.743183e-04 -3.022897e-04 -5.514260e-04 -7.492022e-04 -9.550148e-04 -2.466438e-04 -1.011363e-03 4.539548e-04 -6.044942e-04 6.414532e-04 -2.224209e-04 4.575216e-04 -3.962625e-05 2.263833e-04 1.484791e-05 8.103539e-05 2.336729e-05 1.978382e-05 2.441005e-05 
-2.589251e-05 1.880904e-05 2.160501e-05 5.288811e-05 5.760956e-05 7.517412e-05 7.973924e-05 8.499861e-05 8.695091e-05 8.286070e-05 8.354517e-05 7.556871e-05 7.967098e-05 7.220837e-05 8.214971e-05 7.376600e-05 8.653213e-05 7.340767e-05 8.388494e-05 6.928575e-05 6.899129e-05 6.890793e-05 3.122706e-05 7.684196e-05 -5.160423e-05 9.433313e-05 -1.778647e-04 1.375981e-04 -2.740373e-04 2.106173e-04 -2.526033e-04 2.075301e-04 -1.735177e-04 -2.084128e-05 -1.969656e-04 -2.556059e-04 -2.294488e-04 -2.832198e-04 -2.467557e-05 -4.815984e-04 3.126522e-04 -1.092739e-03 4.037651e-04 -1.820614e-03 -1.781249e-04 -1.993313e-03 -1.308051e-03 -1.611211e-03 -1.434498e-03 -1.432468e-03 1.028644e-04 -1.241932e-03 1.052170e-03 -8.827147e-04 7.958888e-04 -5.992202e-04 2.594906e-04 -3.899993e-04 -3.737222e-05 -2.267187e-04 -1.077845e-04 -1.090467e-04 -7.824145e-05 -3.147898e-05 
-7.463602e-06 3.545720e-05 2.875852e-05 6.178928e-05 7.227319e-05 9.711503e-05 1.178816e-04 1.366994e-04 1.625024e-04 1.761471e-04 2.037541e-04 2.114027e-04 2.370477e-04 2.328787e-04 2.486946e-04 2.224958e-04 2.224488e-04 1.719064e-04 1.627058e-04 1.008799e-04 9.435612e-05 4.510027e-05 2.316935e-05 2.684094e-05 -8.324200e-05 6.760643e-05 -2.430666e-04 2.012843e-04 -4.114314e-04 3.305295e-04 -5.568268e-04 9.715459e-05 -7.143481e-04 -5.377824e-04 -8.455040e-04 -7.812400e-04 -8.137079e-04 -6.093350e-04 -4.599006e-04 -9.633786e-04 2.909925e-05 -2.244834e-03 1.264629e-04 -4.009216e-03 -1.067885e-03 -5.008488e-03 -3.998939e-03 -5.262269e-03 -5.607012e-03 -5.751929e-03 -1.983177e-03 -3.760725e-03 1.346110e-03 -1.265148e-03 1.658135e-03 -1.736843e-04 8.798650e-04 6.141914e-05 2.916797e-04 5.555930e-05 4.121875e-05 2.875272e-05 -2.012578e-05 2.262529e-05 
-1.758460e-05 4.503369e-05 6.813943e-05 1.135114e-04 1.563450e-04 2.040878e-04 2.692924e-04 3.308447e-04 4.152981e-04 4.881608e-04 5.761174e-04 6.384356e-04 6.965425e-04 7.067777e-04 6.940682e-04 6.167431e-04 5.282472e-04 3.862053e-04 2.861857e-04 1.633926e-04 1.343065e-04 1.121334e-04 1.458363e-04 2.584372e-04 1.816551e-04 4.403632e-04 -7.069201e-05 3.628519e-04 -8.746515e-04 -2.444391e-04 -2.040006e-03 -1.281884e-03 -2.725995e-03 -2.229940e-03 -2.500726e-03 -2.100118e-03 -1.929825e-03 -1.035676e-03 -9.536286e-04 -1.214587e-03 -3.153730e-04 -4.102950e-03 -1.716671e-03 -1.009432e-02 -6.725974e-03 -1.549132e-02 -1.334125e-02 -1.530918e-02 -1.380122e-02 -1.153889e-02 -2.499635e-03 -5.147399e-03 3.498760e-03 -1.553937e-03 2.209769e-03 -8.152102e-04 4.041166e-04 -5.656682e-04 -2.204122e-04 -3.209437e-04 -2.402694e-04 -1.379328e-04 -1.237749e-04 -2.709971e-05 
-1.267622e-05 4.646368e-05 8.652198e-05 1.495728e-04 2.418483e-04 3.466700e-04 5.083341e-04 6.814158e-04 9.158731e-04 1.144367e-03 1.406411e-03 1.613597e-03 1.793424e-03 1.846755e-03 1.812569e-03 1.614575e-03 1.349331e-03 9.801120e-04 6.646382e-04 3.461778e-04 2.174841e-04 1.078554e-04 2.104108e-04 2.874444e-04 3.251755e-04 4.598550e-04 -2.723402e-04 -1.703653e-04 -2.653122e-03 -2.568110e-03 -6.879485e-03 -6.615771e-03 -9.803746e-03 -8.759331e-03 -7.884759e-03 -5.714708e-03 -4.864390e-03 -2.434918e-03 -3.047769e-03 -3.290839e-03 -3.329468e-03 -1.051494e-02 -8.795111e-03 -2.636333e-02 -2.195730e-02 -4.150745e-02 -3.577019e-02 -4.059144e-02 -4.005456e-02 -3.371521e-02 -8.499909e-03 -9.172939e-03 1.000498e-02 2.146677e-03 6.900671e-03 1.971564e-03 2.247998e-03 6.706005e-04 3.599567e-04 1.252067e-04 -7.792139e-05 -5.840152e-06 -8.715071e-05 -3.883933e-06 
4.136649e-05 9.889782e-05 2.056785e-04 3.038943e-04 5.114896e-04 7.433861e-04 1.123452e-03 1.557011e-03 2.131531e-03 2.731477e-03 3.381389e-03 3.941702e-03 4.372264e-03 4.538479e-03 4.394682e-03 3.901358e-03 3.141778e-03 2.213611e-03 1.345128e-03 6.118970e-04 2.676048e-04 1.763820e-04 4.962235e-04 9.338634e-04 1.159641e-03 1.303165e-03 -6.131903e-04 -2.281926e-03 -9.114293e-03 -1.323168e-02 -2.399540e-02 -2.610372e-02 -3.179063e-02 -2.643930e-02 -2.062314e-02 -1.324077e-02 -9.613145e-03 -3.682816e-03 -5.279783e-03 -4.971716e-03 -7.966150e-03 -2.210217e-02 -2.818807e-02 -6.821711e-02 -7.365362e-02 -1.194209e-01 -1.013371e-01 -1.030562e-01 -9.296929e-02 -6.162742e-02 4.446539e-03 7.655245e-03 3.760202e-02 1.608060e-02 1.613828e-02 5.174216e-03 3.187188e-03 5.885075e-04 -6.606141e-05 -2.116705e-04 -3.176347e-04 -1.433350e-04 -1.207866e-04 -1.813287e-05 