# vtk DataFile Version 2.0
Comment goes here
ASCII

DATASET STRUCTURED_POINTS
DIMENSIONS    64   64   1

ORIGIN    0.000   0.000   0.000
SPACING   0.0156250.015625   1.000

POINT_DATA   4096
SCALARS Omega double
LOOKUP_TABLE default

-2.124023e-04 -3.944757e-04 -6.057888e-04 -9.553547e-04 -1.333295e-03 -1.777853e-03 -2.042435e-03 -1.938023e-03 -1.219939e-03 1.974990e-04 1.529395e-03 1.592853e-03 -1.770611e-03 -9.625911e-03 -2.138200e-02 -3.306123e-02 -4.049493e-02 -3.998514e-02 -3.338666e-02 -2.357730e-02 -1.438959e-02 -7.179909e-03 -2.750602e-03 2.544576e-04 2.237957e-03 3.027304e-03 3.580633e-03 2.650237e-03 2.336867e-03 1.980582e-03 2.221252e-03 2.946469e-03 2.674650e-03 2.063150e-03 1.275129e-03 2.400551e-04 9.605094e-04 1.192234e-03 3.307448e-03 5.387911e-03 9.097087e-03 1.422545e-02 2.067792e-02 2.931657e-02 3.877918e-02 4.906653e-02 5.718805e-02 6.053947e-02 5.686400e-02 4.753886e-02 3.545312e-02 2.464688e-02 1.634492e-02 1.097539e-02 7.292681e-03 4.942844e-03 3.138023e-03 1.996799e-03 1.135883e-03 6.574734e-04 3.198002e-04 1.374537e-04 8.099147e-06 -1.063396e-04 
-1.344687e-04 -2.758531e-04 -4.142026e-04 -6.356150e-04 -8.347694e-04 -1.059703e-03 -1.143457e-03 -1.021311e-03 -5.879117e-04 1.780266e-04 8.263960e-04 8.975878e-04 -6.506442e-04 -3.986571e-03 -8.882152e-03 -1.343648e-02 -1.607537e-02 -1.552646e-02 -1.264950e-02 -8.718261e-03 -5.299452e-03 -2.696499e-03 -1.167257e-03 -1.039270e-04 9.444810e-04 1.663498e-03 2.825856e-03 3.399809e-03 4.227677e-03 4.753742e-03 4.847767e-03 4.981950e-03 4.009997e-03 3.200941e-03 2.109773e-03 1.258516e-03 1.234627e-03 1.031750e-03 1.763932e-03 2.379332e-03 3.765665e-03 5.734865e-03 8.300058e-03 1.187102e-02 1.578240e-02 2.004633e-02 2.328503e-02 2.447210e-02 2.267002e-02 1.856280e-02 1.337354e-02 8.892012e-03 5.598832e-03 3.693523e-03 2.495656e-03 1.851147e-03 1.300375e-03 9.679352e-04 6.385227e-04 4.469631e-04 2.666835e-04 1.527201e-04 5.288316e-05 -4.595377e-05 
-1.475110e-04 -2.507500e-04 -3.447717e-04 -4.823308e-04 -5.854647e-04 -6.909024e-04 -6.906520e-04 -5.773755e-04 -2.915631e-04 1.325032e-04 4.980601e-04 5.722337e-04 -5.535002e-05 -1.395273e-03 -3.348406e-03 -5.001957e-03 -5.932226e-03 -5.506960e-03 -4.303706e-03 -2.760738e-03 -1.431612e-03 -5.607486e-04 3.990001e-05 3.015085e-04 8.237074e-04 1.071172e-03 1.811335e-03 2.165517e-03 2.749554e-03 3.045300e-03 3.032606e-03 2.976870e-03 2.314899e-03 1.812243e-03 1.177666e-03 7.453461e-04 6.958804e-04 5.671808e-04 8.475857e-04 1.020796e-03 1.489235e-03 2.178281e-03 3.074986e-03 4.430740e-03 5.923538e-03 7.583798e-03 8.836766e-03 9.225858e-03 8.435351e-03 6.713527e-03 4.595267e-03 2.837137e-03 1.591701e-03 1.003165e-03 6.689816e-04 5.954529e-04 4.660202e-04 4.269890e-04 3.034067e-04 2.434399e-04 1.406645e-04 7.652020e-05 -5.699482e-07 -7.446404e-05 
-7.466397e-05 -1.478130e-04 -2.038635e-04 -2.842956e-04 -3.265958e-04 -3.657849e-04 -3.324192e-04 -2.382015e-04 -6.367450e-05 1.739418e-04 3.517491e-04 4.106372e-04 1.351075e-04 -3.929315e-04 -1.174389e-03 -1.797690e-03 -2.127879e-03 -1.955139e-03 -1.482272e-03 -9.245813e-04 -4.467786e-04 -1.896264e-04 2.248212e-05 4.467196e-05 3.160749e-04 4.135750e-04 8.677162e-04 1.104980e-03 1.449609e-03 1.641991e-03 1.538882e-03 1.495480e-03 1.005902e-03 7.830218e-04 3.978001e-04 2.583161e-04 2.403799e-04 2.188473e-04 3.621131e-04 4.156883e-04 5.901636e-04 8.170711e-04 1.130664e-03 1.626052e-03 2.180467e-03 2.792021e-03 3.232785e-03 3.313086e-03 2.939153e-03 2.213452e-03 1.365901e-03 7.023895e-04 2.700397e-04 1.398613e-04 1.024716e-04 1.830786e-04 1.954729e-04 2.408313e-04 2.038498e-04 1.915729e-04 1.329543e-04 9.197165e-05 3.569030e-05 -2.116123e-05 
-8.778515e-05 -1.382499e-04 -1.733834e-04 -2.208253e-04 -2.343836e-04 -2.446324e-04 -2.011545e-04 -1.305228e-04 -1.224702e-05 1.195094e-04 2.172453e-04 2.434427e-04 1.129723e-04 -1.121158e-04 -4.508740e-04 -6.785383e-04 -8.068500e-04 -6.994703e-04 -4.811122e-04 -2.483754e-04 -4.829693e-06 6.590421e-05 2.123355e-04 1.541976e-04 3.227789e-04 2.863800e-04 5.160509e-04 5.516603e-04 6.899301e-04 7.215967e-04 6.121799e-04 5.656234e-04 2.857531e-04 2.076726e-04 2.087279e-05 1.203299e-05 2.191237e-05 5.633452e-05 1.341538e-04 1.667286e-04 2.287117e-04 3.002686e-04 3.993874e-04 5.669908e-04 7.715405e-04 9.804906e-04 1.147491e-03 1.136985e-03 9.804457e-04 6.636258e-04 3.269066e-04 6.956701e-05 -8.452899e-05 -9.180645e-05 -7.380916e-05 1.611147e-05 4.484603e-05 1.023021e-04 8.869395e-05 9.637285e-05 5.815836e-05 3.521844e-05 -7.356161e-06 -4.734599e-05 
-3.312862e-05 -6.593997e-05 -8.458843e-05 -1.097838e-04 -1.082335e-04 -1.037732e-04 -6.524011e-05 -1.290097e-05 5.916610e-05 1.342705e-04 1.770666e-04 1.844255e-04 1.047858e-04 -1.155338e-05 -1.794425e-04 -2.974751e-04 -3.612664e-04 -3.375190e-04 -2.423768e-04 -1.612690e-04 -4.093945e-05 -2.682285e-05 6.853755e-05 2.817900e-05 1.491869e-04 1.293201e-04 2.755437e-04 2.997615e-04 3.668943e-04 3.880018e-04 2.874516e-04 2.712686e-04 7.215023e-05 5.713060e-05 -7.241987e-05 -4.267331e-05 -4.541773e-05 -1.492043e-06 4.488573e-05 7.059021e-05 1.074776e-04 1.336451e-04 1.782324e-04 2.353511e-04 3.168678e-04 3.797576e-04 4.338842e-04 3.961722e-04 3.136389e-04 1.593588e-04 1.459690e-05 -9.206883e-05 -1.444316e-04 -1.231839e-04 -9.150031e-05 -1.840917e-05 1.499781e-05 6.645768e-05 6.828495e-05 8.235449e-05 6.147776e-05 4.896212e-05 2.077013e-05 -6.466497e-06 
-4.811165e-05 -7.005210e-05 -8.078018e-05 -9.519505e-05 -8.823338e-05 -8.106330e-05 -4.838988e-05 -1.313320e-05 3.598418e-05 7.759473e-05 1.010215e-04 9.925490e-05 5.110488e-05 -1.136900e-05 -1.014355e-04 -1.560433e-04 -1.863780e-04 -1.700356e-04 -1.076455e-04 -6.767225e-05 2.700556e-05 2.469536e-05 1.149688e-04 7.130995e-05 1.634583e-04 1.170922e-04 1.986339e-04 1.707795e-04 1.889988e-04 1.701149e-04 9.262745e-05 7.731888e-05 -4.503763e-05 -3.710030e-05 -1.136954e-04 -7.293271e-05 -7.726698e-05 -3.176867e-05 -6.640736e-06 1.921237e-05 4.008340e-05 5.290628e-05 7.706421e-05 9.382028e-05 1.366050e-04 1.479857e-04 1.787336e-04 1.412574e-04 1.100116e-04 2.483450e-05 -3.661823e-05 -9.173527e-05 -1.137658e-04 -9.974731e-05 -8.202402e-05 -3.528072e-05 -1.669751e-05 2.032537e-05 2.008870e-05 3.327696e-05 1.762942e-05 1.097355e-05 -1.031980e-05 -2.877015e-05 
-1.053269e-05 -2.329516e-05 -2.761071e-05 -3.393359e-05 -2.542402e-05 -1.693063e-05 6.897060e-06 3.100133e-05 6.022774e-05 8.298813e-05 9.103228e-05 8.325138e-05 4.839664e-05 3.262702e-06 -5.260812e-05 -9.737956e-05 -1.190548e-04 -1.285780e-04 -9.614230e-05 -8.774999e-05 -2.776297e-05 -3.299314e-05 3.463524e-05 1.380113e-05 8.589897e-05 6.750448e-05 1.272784e-04 1.201821e-04 1.302105e-04 1.273378e-04 6.906927e-05 6.828116e-05 -2.240889e-05 -8.853173e-06 -7.203113e-05 -3.999885e-05 -5.413427e-05 -2.063989e-05 -7.704168e-06 1.209769e-05 2.940560e-05 3.727146e-05 5.667895e-05 6.025930e-05 8.434325e-05 7.843824e-05 9.052046e-05 5.757084e-05 3.787891e-05 -1.475009e-05 -4.679496e-05 -7.814458e-05 -8.759493e-05 -7.719174e-05 -6.307135e-05 -3.013666e-05 -1.403022e-05 1.501239e-05 1.934859e-05 3.267344e-05 2.547418e-05 2.391578e-05 1.147201e-05 7.567944e-07 
-2.557710e-05 -3.413062e-05 -3.617732e-05 -3.976952e-05 -3.179932e-05 -2.538553e-05 -7.105981e-06 8.258119e-06 2.846738e-05 4.105919e-05 4.607332e-05 3.967809e-05 1.859897e-05 -7.725420e-06 -3.921903e-05 -6.346730e-05 -7.194994e-05 -7.684334e-05 -4.815740e-05 -4.503294e-05 7.084114e-06 -1.324772e-06 5.748662e-05 3.424905e-05 8.933173e-05 6.167788e-05 9.854282e-05 7.583376e-05 7.510931e-05 6.030225e-05 1.746417e-05 1.398988e-05 -4.634982e-05 -3.275938e-05 -7.590839e-05 -4.762057e-05 -6.066282e-05 -3.138742e-05 -2.532506e-05 -6.739751e-06 5.750945e-06 1.265890e-05 2.928015e-05 2.839524e-05 4.905479e-05 3.863752e-05 5.302731e-05 2.648470e-05 2.307264e-05 -1.302135e-05 -2.602067e-05 -4.907856e-05 -5.391139e-05 -5.165991e-05 -4.555558e-05 -2.736616e-05 -2.026487e-05 -2.080285e-06 -1.725235e-06 7.396348e-06 6.819477e-07 -1.685666e-07 -1.001051e-05 -1.736022e-05 
-1.406993e-07 -4.184485e-06 -3.784024e-06 -4.499967e-06 2.335531e-06 7.719111e-06 2.014426e-05 2.972767e-05 4.132631e-05 4.672565e-05 4.700410e-05 3.829414e-05 2.221780e-05 -6.768233e-07 -2.245985e-05 -4.631664e-05 -5.377107e-05 -6.683162e-05 -5.021839e-05 -5.534297e-05 -2.051998e-05 -2.686300e-05 1.624001e-05 6.112299e-06 4.840907e-05 3.859813e-05 6.740088e-05 6.129274e-05 6.209382e-05 5.991809e-05 2.958030e-05 3.267310e-05 -1.222438e-05 -6.063722e-07 -3.600704e-05 -1.691374e-05 -3.139365e-05 -1.228694e-05 -1.038710e-05 1.777835e-06 1.146268e-05 1.519942e-05 2.819044e-05 2.478030e-05 3.806783e-05 2.657366e-05 3.374087e-05 1.239315e-05 8.794648e-06 -1.636409e-05 -2.466375e-05 -4.000960e-05 -4.259418e-05 -4.080309e-05 -3.568801e-05 -2.219000e-05 -1.534612e-05 -6.090354e-07 2.371892e-06 1.138549e-05 9.426406e-06 1.128104e-05 6.691000e-06 3.626413e-06 
-1.377077e-05 -1.676004e-05 -1.614096e-05 -1.663910e-05 -1.109546e-05 -7.500683e-06 1.872029e-06 7.907858e-06 1.640193e-05 1.948036e-05 2.051257e-05 1.510823e-05 6.398084e-06 -6.825110e-06 -1.781624e-05 -3.122080e-05 -3.167140e-05 -3.935715e-05 -2.265074e-05 -2.725589e-05 2.911367e-06 -4.859703e-06 3.040786e-05 1.736012e-05 4.889145e-05 3.353830e-05 5.193759e-05 3.853310e-05 3.607871e-05 2.786437e-05 5.073450e-06 4.775341e-06 -2.677644e-05 -1.764716e-05 -4.297879e-05 -2.692172e-05 -3.847788e-05 -2.188917e-05 -2.141006e-05 -1.008209e-05 -2.303448e-06 1.741057e-06 1.371096e-05 1.087066e-05 2.428551e-05 1.451643e-05 2.460044e-05 8.034600e-06 1.105672e-05 -7.820527e-06 -9.547766e-06 -2.239656e-05 -2.330577e-05 -2.530877e-05 -2.341408e-05 -1.721446e-05 -1.490522e-05 -6.849211e-06 -6.892876e-06 -1.838245e-06 -4.730839e-06 -4.117774e-06 -8.272056e-06 -1.081712e-05 
3.961628e-06 3.164274e-06 4.849482e-06 5.340439e-06 9.815608e-06 1.235108e-05 1.853532e-05 2.157060e-05 2.617925e-05 2.593670e-05 2.500863e-05 1.803873e-05 1.074352e-05 -2.309890e-06 -1.088739e-05 -2.490769e-05 -2.658463e-05 -3.683870e-05 -2.687759e-05 -3.320356e-05 -1.303340e-05 -1.805486e-05 7.189738e-06 2.048261e-06 2.577760e-05 2.122127e-05 3.596773e-05 3.317836e-05 3.287822e-05 3.261120e-05 1.719800e-05 2.033759e-05 -2.461698e-06 4.782215e-06 -1.478872e-05 -4.631700e-06 -1.467588e-05 -4.936673e-06 -5.579239e-06 4.746265e-07 5.936404e-06 6.884051e-06 1.519140e-05 1.100276e-05 1.923113e-05 1.008522e-05 1.516932e-05 2.021324e-06 2.516818e-06 -1.101640e-05 -1.293560e-05 -2.145785e-05 -2.207412e-05 -2.264879e-05 -2.061143e-05 -1.502432e-05 -1.192108e-05 -4.554343e-06 -2.529570e-06 2.970769e-06 3.141069e-06 5.438657e-06 4.531905e-06 4.356277e-06 
-7.817817e-06 -8.838886e-06 -7.520826e-06 -7.420240e-06 -3.865736e-06 -2.235499e-06 2.632623e-06 4.681423e-06 8.575771e-06 8.660368e-06 9.144287e-06 5.299275e-06 2.199141e-06 -5.068217e-06 -8.206047e-06 -1.605052e-05 -1.391533e-05 -2.005484e-05 -9.659615e-06 -1.458472e-05 2.769100e-06 -2.967685e-06 1.703982e-05 9.496703e-06 2.674978e-05 1.831118e-05 2.758226e-05 2.018947e-05 1.822590e-05 1.386011e-05 1.684525e-06 1.863822e-06 -1.490441e-05 -9.811020e-06 -2.413760e-05 -1.568903e-05 -2.323263e-05 -1.452408e-05 -1.488411e-05 -8.861125e-06 -3.854544e-06 -2.027933e-06 6.122357e-06 3.515479e-06 1.245063e-05 5.721304e-06 1.285619e-05 3.029160e-06 6.732081e-06 -3.630069e-06 -2.715567e-06 -1.014165e-05 -1.000572e-05 -1.248848e-05 -1.194780e-05 -1.031989e-05 -9.708970e-06 -6.565797e-06 -6.700406e-06 -4.398784e-06 -5.482606e-06 -4.989949e-06 -6.374802e-06 -7.259199e-06 
5.322218e-06 5.417389e-06 7.345031e-06 7.740647e-06 1.065010e-05 1.145053e-05 1.461518e-05 1.490246e-05 1.680382e-05 1.493943e-05 1.415499e-05 8.954252e-06 5.637513e-06 -2.344950e-06 -5.709278e-06 -1.425078e-05 -1.408673e-05 -2.101644e-05 -1.509202e-05 -1.980565e-05 -8.569200e-06 -1.173319e-05 2.157528e-06 -1.397683e-07 1.258803e-05 1.106183e-05 1.865883e-05 1.815026e-05 1.796983e-05 1.877374e-05 1.118651e-05 1.358267e-05 2.265017e-06 6.243826e-06 -3.879457e-06 9.034645e-07 -4.682216e-06 -5.963580e-07 -1.064107e-06 8.628886e-07 4.166908e-06 3.183308e-06 8.289641e-06 4.365469e-06 9.328166e-06 2.906355e-06 6.144962e-06 -1.719941e-06 -7.401609e-07 -8.097303e-06 -8.444292e-06 -1.303453e-05 -1.313400e-05 -1.381557e-05 -1.283410e-05 -1.034693e-05 -8.614681e-06 -4.886429e-06 -3.208708e-06 -4.084774e-08 1.121422e-06 2.887714e-06 3.705537e-06 4.250129e-06 
-4.865446e-06 -5.384504e-06 -3.896351e-06 -3.893905e-06 -1.476530e-06 -9.320167e-07 1.846075e-06 2.293071e-06 4.400210e-06 3.701931e-06 4.282566e-06 1.719044e-06 1.013342e-06 -3.119313e-06 -3.414715e-06 -7.967343e-06 -5.583180e-06 -9.588875e-06 -3.264035e-06 -6.730947e-06 2.889799e-06 -7.095152e-07 9.972759e-06 5.801022e-06 1.462463e-05 1.016681e-05 1.449092e-05 1.060979e-05 9.098854e-06 6.809820e-06 2.664509e-07 3.085934e-07 -8.456166e-06 -6.035757e-06 -1.358709e-05 -9.661774e-06 -1.363149e-05 -9.710856e-06 -9.516848e-06 -7.037679e-06 -3.456209e-06 -3.225287e-06 2.342046e-06 1.933895e-07 6.141023e-06 1.946288e-06 6.774412e-06 1.298412e-06 4.153701e-06 -1.339315e-06 -2.643284e-07 -4.364459e-06 -4.186984e-06 -6.119686e-06 -6.085991e-06 -6.157545e-06 -6.064487e-06 -5.310135e-06 -5.287047e-06 -4.719341e-06 -4.813423e-06 -4.893285e-06 -4.871095e-06 -5.434087e-06 
5.723258e-06 5.868117e-06 7.769429e-06 7.823824e-06 9.846586e-06 9.724123e-06 1.146389e-05 1.067132e-05 1.148493e-05 9.346193e-06 8.784816e-06 4.954828e-06 3.323377e-06 -1.766746e-06 -3.231329e-06 -8.476015e-06 -8.168270e-06 -1.245272e-05 -9.370224e-06 -1.217942e-05 -6.529434e-06 -7.967254e-06 -1.074703e-06 -1.475447e-06 4.726087e-06 5.094081e-06 8.715322e-06 9.686660e-06 9.634616e-06 1.108732e-05 7.688555e-06 9.489406e-06 4.465730e-06 6.368394e-06 1.960820e-06 3.502734e-06 1.317187e-06 1.898107e-06 2.309506e-06 1.465077e-06 3.812377e-06 1.436342e-06 4.580048e-06 9.215036e-07 3.728071e-06 -7.227709e-07 9.758761e-07 -3.573186e-06 -3.100419e-06 -6.871789e-06 -7.055543e-06 -9.241006e-06 -9.239262e-06 -9.532117e-06 -8.812869e-06 -7.615325e-06 -6.198682e-06 -4.365498e-06 -2.609300e-06 -9.563200e-07 8.095529e-07 1.858038e-06 3.541434e-06 4.003167e-06 
-3.441977e-06 -3.905751e-06 -2.366909e-06 -2.524555e-06 -6.924535e-07 -6.592476e-07 1.153048e-06 1.014208e-06 2.379168e-06 1.617992e-06 2.285044e-06 6.658829e-07 8.860517e-07 -1.396214e-06 -8.268696e-07 -3.264266e-06 -1.421657e-06 -3.592371e-06 -5.433306e-08 -1.918563e-06 2.883774e-06 1.076653e-06 6.006661e-06 4.054190e-06 7.732320e-06 5.717737e-06 7.044286e-06 5.320937e-06 3.927560e-06 2.922721e-06 -5.878565e-07 -6.189311e-07 -4.843183e-06 -4.008384e-06 -7.335682e-06 -6.132557e-06 -7.427448e-06 -6.539456e-06 -5.493416e-06 -5.460569e-06 -2.507585e-06 -3.509108e-06 4.754369e-07 -1.408882e-06 2.593033e-06 1.340304e-07 3.284959e-06 5.964223e-07 2.458073e-06 -9.563843e-08 6.039415e-07 -1.479593e-06 -1.427122e-06 -2.873064e-06 -2.936498e-06 -3.837776e-06 -3.724732e-06 -4.353361e-06 -4.004232e-06 -4.617136e-06 -4.050311e-06 -4.737737e-06 -3.924056e-06 -4.590017e-06 
5.964450e-06 6.036260e-06 7.810778e-06 7.662559e-06 9.133011e-06 8.606043e-06 9.580266e-06 8.416395e-06 8.675265e-06 6.650632e-06 6.133660e-06 3.262121e-06 2.247761e-06 -1.095027e-06 -1.996427e-06 -5.170239e-06 -5.288607e-06 -7.671223e-06 -6.651829e-06 -7.887350e-06 -5.891391e-06 -5.934105e-06 -3.550041e-06 -2.558094e-06 -5.343901e-07 1.226066e-06 2.276361e-06 4.452909e-06 4.298772e-06 6.455656e-06 5.376067e-06 7.035874e-06 5.730531e-06 6.451902e-06 5.720169e-06 5.189387e-06 5.540117e-06 3.668283e-06 5.096174e-06 2.091382e-06 4.130350e-06 4.742221e-07 2.454913e-06 -1.252129e-06 1.087129e-07 -3.140138e-06 -2.611526e-06 -5.110557e-06 -5.190502e-06 -6.848783e-06 -7.001277e-06 -7.850872e-06 -7.522458e-06 -7.681698e-06 -6.586924e-06 -6.258646e-06 -4.467266e-06 -3.906067e-06 -1.713039e-06 -1.149557e-06 1.131435e-06 1.557337e-06 3.728474e-06 3.976178e-06 
-2.849313e-06 -3.190828e-06 -1.664649e-06 -1.779826e-06 -3.001153e-07 -4.017820e-07 8.752773e-07 5.656676e-07 1.513731e-06 8.536351e-07 1.486259e-06 4.991835e-07 1.033325e-06 -8.480841e-08 6.907414e-07 -3.070809e-07 9.495704e-07 2.121259e-07 1.873991e-06 1.355382e-06 3.006473e-06 2.573339e-06 3.658283e-06 3.240690e-06 3.350075e-06 3.013878e-06 2.080871e-06 1.957555e-06 2.853202e-07 4.219045e-07 -1.433363e-06 -1.185304e-06 -2.598841e-06 -2.567742e-06 -3.026351e-06 -3.575624e-06 -2.813593e-06 -4.139660e-06 -2.208116e-06 -4.189946e-06 -1.440397e-06 -3.648216e-06 -6.244657e-07 -2.533797e-06 2.015099e-07 -1.109390e-06 9.375816e-07 1.084246e-07 1.351239e-06 5.785929e-07 1.189890e-06 6.404214e-08 3.834102e-07 -1.224581e-06 -8.673106e-07 -2.782453e-06 -2.190243e-06 -4.096969e-06 -3.220104e-06 -4.840994e-06 -3.715772e-06 -4.899461e-06 -3.582144e-06 -4.305879e-06 
6.378999e-06 6.644312e-06 8.162961e-06 8.135146e-06 9.114322e-06 8.542571e-06 8.922182e-06 7.663314e-06 7.447644e-06 5.538820e-06 4.865724e-06 2.558462e-06 1.694981e-06 -5.978971e-07 -1.370918e-06 -3.208551e-06 -3.764163e-06 -4.808380e-06 -5.259154e-06 -5.315743e-06 -5.924082e-06 -4.902366e-06 -5.862433e-06 -3.751643e-06 -4.996681e-06 -1.935706e-06 -3.110359e-06 4.835905e-07 -1.418942e-07 3.232079e-06 3.510486e-06 5.715322e-06 6.974912e-06 7.194754e-06 9.256755e-06 7.152160e-06 9.682690e-06 5.550275e-06 8.118092e-06 2.816491e-06 4.931803e-06 -3.745870e-07 8.767150e-07 -3.360794e-06 -3.073651e-06 -5.693458e-06 -6.017726e-06 -7.215180e-06 -7.473761e-06 -7.972138e-06 -7.510326e-06 -8.030269e-06 -6.534150e-06 -7.370771e-06 -4.952036e-06 -5.949719e-06 -2.996426e-06 -3.820755e-06 -7.673256e-07 -1.184412e-06 1.649628e-06 1.658307e-06 4.107558e-06 4.376896e-06 
-2.783683e-06 -2.601701e-06 -1.185414e-06 -8.912261e-07 2.572353e-07 2.958019e-07 1.112129e-06 7.417485e-07 1.282367e-06 6.022647e-07 1.073195e-06 3.773085e-07 1.040800e-06 6.507851e-07 1.617702e-06 1.686102e-06 2.725942e-06 3.156708e-06 3.704627e-06 4.271659e-06 3.696255e-06 4.268992e-06 2.267967e-06 2.947545e-06 -1.705245e-07 8.632690e-07 -2.486682e-06 -9.798609e-07 -3.489126e-06 -1.792210e-06 -2.732184e-06 -1.552356e-06 -8.329838e-07 -9.793207e-07 9.913067e-07 -9.312433e-07 1.741811e-06 -1.763685e-06 1.144958e-06 -3.114909e-06 -3.432425e-07 -4.151116e-06 -1.800108e-06 -4.073536e-06 -2.246991e-06 -2.665365e-06 -1.225918e-06 -5.721395e-07 7.525946e-07 9.999112e-07 2.426315e-06 1.076284e-06 2.667253e-06 -4.311023e-07 1.273955e-06 -2.746409e-06 -1.003268e-06 -4.803487e-06 -3.070989e-06 -5.832956e-06 -4.129441e-06 -5.606996e-06 -3.945795e-06 -4.363223e-06 
7.109768e-06 8.137897e-06 9.209881e-06 9.773379e-06 1.016398e-05 9.828284e-06 9.536964e-06 8.204629e-06 7.372383e-06 5.325246e-06 4.280322e-06 2.085030e-06 1.199408e-06 -5.404960e-07 -1.139646e-06 -2.052557e-06 -2.695873e-06 -2.715929e-06 -4.093050e-06 -3.265255e-06 -6.000804e-06 -4.212693e-06 -8.363761e-06 -5.297152e-06 -1.008545e-05 -5.504673e-06 -9.496860e-06 -3.726290e-06 -5.480105e-06 2.771794e-07 1.426156e-06 5.318360e-06 8.921999e-06 9.281992e-06 1.417490e-05 1.040992e-05 1.537809e-05 8.259571e-06 1.236914e-05 3.691888e-06 6.269551e-06 -1.754371e-06 -1.027541e-06 -6.530060e-06 -7.266737e-06 -9.596339e-06 -1.057333e-05 -1.074531e-05 -1.044801e-05 -1.050183e-05 -8.028490e-06 -9.569531e-06 -5.112242e-06 -8.295860e-06 -2.848510e-06 -6.605941e-06 -1.276567e-06 -4.301565e-06 1.983470e-07 -1.351772e-06 2.105216e-06 2.014562e-06 4.530248e-06 5.361754e-06 
-3.118855e-06 -1.680235e-06 -4.765807e-07 7.526652e-07 1.504427e-06 1.884651e-06 2.137124e-06 1.551192e-06 1.501087e-06 3.729876e-07 4.986931e-07 -4.025842e-07 4.079178e-07 4.121276e-07 1.973641e-06 3.025508e-06 4.616804e-06 6.244714e-06 6.524617e-06 8.074396e-06 5.777274e-06 7.018104e-06 1.774393e-06 3.162219e-06 -4.027532e-06 -1.671797e-06 -8.629736e-06 -4.880115e-06 -9.215977e-06 -4.758534e-06 -5.185612e-06 -1.815770e-06 1.190815e-06 1.554574e-06 6.367691e-06 2.910081e-06 7.915865e-06 1.368098e-06 5.581718e-06 -2.154143e-06 8.192728e-07 -5.663144e-06 -3.966780e-06 -7.102426e-06 -6.143308e-06 -5.484044e-06 -4.183536e-06 -1.753744e-06 8.664981e-07 1.579629e-06 5.689196e-06 2.254625e-06 7.179404e-06 -6.865062e-08 4.732206e-06 -3.837648e-06 2.034246e-07 -6.975672e-06 -3.852129e-06 -8.150881e-06 -5.774668e-06 -7.165170e-06 -5.282036e-06 -4.665419e-06 
8.248417e-06 1.095650e-05 1.140162e-05 1.319626e-05 1.289542e-05 1.301060e-05 1.187628e-05 1.020996e-05 8.443889e-06 5.635939e-06 3.878417e-06 1.105146e-06 1.217636e-07 -1.498080e-06 -1.511456e-06 -1.575970e-06 -1.510825e-06 -4.467299e-07 -2.018256e-06 -4.242551e-07 -5.161195e-06 -2.960758e-06 -1.111386e-05 -7.334087e-06 -1.731893e-05 -1.076022e-05 -1.947415e-05 -9.955460e-06 -1.415859e-05 -3.598133e-06 -1.831707e-06 5.972879e-06 1.252212e-05 1.391630e-05 2.257259e-05 1.634432e-05 2.473108e-05 1.257175e-05 1.919958e-05 4.563344e-06 8.368903e-06 -4.718267e-06 -4.322269e-06 -1.243189e-05 -1.451071e-05 -1.661136e-05 -1.822666e-05 -1.698146e-05 -1.474766e-05 -1.501820e-05 -7.570416e-06 -1.258848e-05 -1.473334e-06 -1.050400e-05 1.202731e-06 -8.421794e-06 1.315450e-06 -5.676129e-06 1.074357e-06 -1.965655e-06 2.102923e-06 2.487664e-06 4.732853e-06 7.075010e-06 
-3.748606e-06 1.041098e-07 1.127443e-06 3.998751e-06 4.388208e-06 5.199970e-06 4.740658e-06 3.380991e-06 2.340641e-06 -2.272813e-07 -8.712266e-07 -2.906872e-06 -1.923728e-06 -1.863918e-06 1.120907e-06 3.526943e-06 7.119903e-06 1.056504e-05 1.192306e-05 1.467134e-05 1.104828e-05 1.251768e-05 2.955393e-06 4.371592e-06 -9.338222e-06 -5.691220e-06 -1.917793e-05 -1.178103e-05 -1.994458e-05 -1.001847e-05 -1.016293e-05 -1.927630e-06 4.471394e-06 6.454450e-06 1.548784e-05 9.633983e-06 1.802383e-05 6.260546e-06 1.250264e-05 -1.393621e-06 2.160276e-06 -9.400261e-06 -8.501852e-06 -1.356375e-05 -1.381926e-05 -1.123200e-05 -9.511270e-06 -3.801078e-06 2.525058e-06 3.246641e-06 1.401564e-05 4.738572e-06 1.726313e-05 1.759868e-07 1.143321e-05 -6.740283e-06 1.595581e-06 -1.177968e-05 -6.433396e-06 -1.283189e-05 -9.643803e-06 -1.012470e-05 -8.127591e-06 -5.186596e-06 
9.921010e-06 1.567032e-05 1.555711e-05 1.942346e-05 1.861868e-05 1.929647e-05 1.724049e-05 1.450740e-05 1.125211e-05 6.313057e-06 3.086494e-06 -1.603821e-06 -2.923955e-06 -4.947109e-06 -3.529777e-06 -2.263678e-06 1.775762e-07 3.124646e-06 2.790297e-06 5.343500e-06 -1.341994e-06 6.233095e-07 -1.349316e-05 -9.754788e-06 -2.873982e-05 -1.969968e-05 -3.749150e-05 -2.125502e-05 -3.076021e-05 -1.024548e-05 -8.043314e-06 8.532309e-06 1.962709e-05 2.377525e-05 3.802671e-05 2.736055e-05 4.083198e-05 1.937698e-05 3.048050e-05 4.716543e-06 1.173239e-05 -1.137021e-05 -1.055868e-05 -2.425543e-05 -2.853251e-05 -3.012098e-05 -3.277340e-05 -2.828045e-05 -2.124965e-05 -2.249933e-05 -3.506271e-06 -1.739323e-05 8.257980e-06 -1.438900e-05 9.864230e-06 -1.207370e-05 5.480292e-06 -8.705380e-06 1.268757e-06 -3.628901e-06 7.464097e-07 2.781739e-06 4.184177e-06 9.618482e-06 
-4.377811e-06 3.562473e-06 4.918432e-06 1.032831e-05 1.087925e-05 1.202676e-05 1.089436e-05 7.495603e-06 4.715779e-06 -1.457661e-06 -3.999864e-06 -9.192356e-06 -8.390236e-06 -8.830608e-06 -3.007068e-06 2.035063e-06 1.049565e-05 1.769520e-05 2.282810e-05 2.766743e-05 2.351582e-05 2.439660e-05 8.381783e-06 8.136395e-06 -1.721189e-05 -1.286637e-05 -3.931251e-05 -2.561383e-05 -4.200417e-05 -2.053735e-05 -2.055209e-05 -1.289804e-06 1.108288e-05 1.691078e-05 3.256266e-05 2.221620e-05 3.532546e-05 1.420183e-05 2.367835e-05 -1.314263e-06 4.078134e-06 -1.773409e-05 -1.751697e-05 -2.752231e-05 -2.999390e-05 -2.363103e-05 -2.066686e-05 -7.296917e-06 8.166313e-06 8.527807e-06 3.502813e-05 1.109897e-05 4.038678e-05 4.860952e-07 2.475436e-05 -1.347664e-05 2.601178e-06 -2.185886e-05 -1.305251e-05 -2.187760e-05 -1.769527e-05 -1.543876e-05 -1.335061e-05 -5.921412e-06 
1.238527e-05 2.298891e-05 2.321696e-05 3.020423e-05 3.004534e-05 3.128344e-05 2.876215e-05 2.343989e-05 1.775663e-05 7.733717e-06 1.142777e-06 -8.465511e-06 -1.117978e-05 -1.460491e-05 -1.028313e-05 -6.026026e-06 2.372541e-06 9.701883e-06 1.384056e-05 1.820772e-05 1.011100e-05 1.041766e-05 -1.307521e-05 -1.159631e-05 -4.718049e-05 -3.577684e-05 -7.227727e-05 -4.389837e-05 -6.529414e-05 -2.330715e-05 -2.090705e-05 1.599416e-05 3.472733e-05 4.539242e-05 6.730363e-05 4.786311e-05 6.763026e-05 2.917864e-05 4.804860e-05 2.030642e-06 1.764653e-05 -2.587989e-05 -2.155803e-05 -4.862426e-05 -5.699756e-05 -5.762641e-05 -6.302899e-05 -4.949499e-05 -3.115368e-05 -3.432040e-05 1.179265e-05 -2.429636e-05 3.342051e-05 -2.105333e-05 2.815983e-05 -1.940122e-05 1.146979e-05 -1.519059e-05 -1.194975e-06 -7.627816e-06 -3.921861e-06 2.203299e-06 1.920651e-06 1.290532e-05 
-4.119676e-06 9.954942e-06 1.337911e-05 2.236682e-05 2.498088e-05 2.622879e-05 2.529107e-05 1.751452e-05 1.170996e-05 -2.649767e-06 -1.004394e-05 -2.316820e-05 -2.437210e-05 -2.677655e-05 -1.585824e-05 -4.931884e-06 1.431294e-05 3.028031e-05 4.495416e-05 5.431002e-05 5.184236e-05 5.049019e-05 2.489897e-05 1.886848e-05 -2.784660e-05 -2.554734e-05 -7.921755e-05 -5.470734e-05 -8.984425e-05 -4.265319e-05 -4.257814e-05 2.993918e-06 2.663832e-05 4.092880e-05 6.551454e-05 4.571127e-05 6.267947e-05 2.591945e-05 3.980273e-05 -3.146889e-06 8.442035e-06 -3.453768e-05 -3.286031e-05 -5.769150e-05 -6.498891e-05 -5.214873e-05 -4.687191e-05 -1.338556e-05 2.473757e-05 2.483737e-05 8.926584e-05 2.770574e-05 9.418338e-05 1.525780e-07 5.028414e-05 -2.968464e-05 -2.743847e-08 -4.310221e-05 -2.899700e-05 -3.895021e-05 -3.338590e-05 -2.451711e-05 -2.196130e-05 -6.782831e-06 
1.620265e-05 3.349186e-05 3.702594e-05 4.835866e-05 5.246556e-05 5.449403e-05 5.373831e-05 4.337939e-05 3.391519e-05 1.269198e-05 -1.991094e-06 -2.371907e-05 -3.158774e-05 -3.914326e-05 -2.961690e-05 -1.812770e-05 4.032089e-06 2.223791e-05 3.804069e-05 4.645273e-05 3.905313e-05 3.467554e-05 -2.860004e-06 -8.948688e-06 -7.520835e-05 -6.410217e-05 -1.411830e-04 -9.136566e-05 -1.412550e-04 -5.056470e-05 -4.822440e-05 3.883403e-05 7.057633e-05 9.585863e-05 1.234706e-04 8.509752e-05 1.058779e-04 3.924155e-05 6.951745e-05 -8.857907e-06 3.015757e-05 -5.532764e-05 -3.604453e-05 -9.946104e-05 -1.165189e-04 -1.176634e-04 -1.324763e-04 -9.146298e-05 -4.560776e-05 -5.142731e-05 6.152090e-05 -3.328507e-05 9.724148e-05 -3.392869e-05 6.474020e-05 -3.550334e-05 1.671079e-05 -2.939929e-05 -1.177336e-05 -1.661989e-05 -1.566627e-05 -7.062057e-07 -3.437672e-06 1.629856e-05 
-7.178386e-07 2.093879e-05 3.078857e-05 4.443237e-05 5.437011e-05 5.616390e-05 5.910218e-05 4.390173e-05 3.363809e-05 2.152258e-06 -1.711971e-05 -4.961645e-05 -5.908668e-05 -6.813202e-05 -4.904091e-05 -2.508485e-05 1.708545e-05 5.351570e-05 8.925928e-05 1.085572e-04 1.129592e-04 1.065688e-04 6.912003e-05 4.908057e-05 -3.520525e-05 -4.360242e-05 -1.569263e-04 -1.153830e-04 -1.969281e-04 -8.896272e-05 -8.809115e-05 2.471857e-05 6.985689e-05 1.006216e-04 1.288591e-04 8.590918e-05 9.245408e-05 3.629506e-05 5.241747e-05 -8.783242e-06 2.406771e-05 -6.178914e-05 -4.717372e-05 -1.212117e-04 -1.413394e-04 -1.229740e-04 -1.164897e-04 -2.483893e-05 7.261735e-05 7.468540e-05 2.354603e-04 6.992695e-05 2.207927e-04 -6.815074e-06 9.426756e-05 -7.139845e-05 -1.843006e-05 -8.843663e-05 -6.586479e-05 -7.007636e-05 -6.164834e-05 -3.877831e-05 -3.401732e-05 -7.347989e-06 
2.253885e-05 4.668043e-05 6.077573e-05 7.787332e-05 9.557013e-05 1.008266e-04 1.096996e-04 9.298462e-05 8.002516e-05 3.716258e-05 4.660260e-06 -4.551096e-05 -6.930699e-05 -8.922541e-05 -7.221307e-05 -4.520241e-05 5.753543e-06 4.811907e-05 8.801314e-05 1.034099e-04 1.010363e-04 8.661610e-05 3.321047e-05 1.166539e-05 -1.061773e-04 -1.034334e-04 -2.711840e-04 -1.858442e-04 -3.100169e-04 -1.022062e-04 -9.948412e-05 1.210969e-04 1.710468e-04 2.235604e-04 2.292182e-04 1.436825e-04 1.289867e-04 3.028548e-05 6.828154e-05 -3.986548e-05 6.411222e-05 -1.043104e-04 -2.839833e-05 -2.016025e-04 -2.406316e-04 -2.600246e-04 -3.135987e-04 -1.836045e-04 -6.787833e-05 -7.551125e-05 2.148905e-04 -4.870772e-05 2.549320e-04 -6.709891e-05 1.287990e-04 -7.554341e-05 7.221011e-06 -6.156957e-05 -4.376408e-05 -3.581685e-05 -4.030969e-05 -8.617405e-06 -1.280662e-05 1.790419e-05 
1.069925e-05 3.772857e-05 6.318087e-05 8.269583e-05 1.129532e-04 1.206056e-04 1.410133e-04 1.209711e-04 1.116969e-04 5.308718e-05 1.303746e-05 -5.995822e-05 -9.145475e-05 -1.202669e-04 -9.225284e-05 -4.685379e-05 3.417080e-05 1.063615e-04 1.739131e-04 2.066798e-04 2.237644e-04 2.105882e-04 1.720139e-04 1.333975e-04 -1.976739e-07 -3.468843e-05 -2.761669e-04 -2.103864e-04 -4.156422e-04 -1.538385e-04 -1.486060e-04 1.456230e-04 2.204325e-04 2.634585e-04 2.389315e-04 1.251697e-04 5.003807e-05 4.938285e-06 6.003378e-06 -1.738734e-05 9.143435e-05 -7.003163e-05 1.156840e-05 -2.333292e-04 -2.978503e-04 -3.172682e-04 -3.441213e-04 -7.666777e-05 1.813516e-04 1.940407e-04 6.239892e-04 1.490307e-04 5.051066e-04 -5.960227e-05 1.443378e-04 -1.867521e-04 -9.257762e-05 -1.856426e-04 -1.464345e-04 -1.231957e-04 -1.058299e-04 -5.765796e-05 -4.508363e-05 -6.315727e-06 
3.356404e-05 5.871087e-05 9.809194e-05 1.233639e-04 1.768958e-04 1.991376e-04 2.465899e-04 2.417270e-04 2.502456e-04 1.926187e-04 1.491133e-04 5.847095e-05 9.730162e-06 -3.809065e-05 -2.019412e-05 1.470275e-05 8.818612e-05 1.388173e-04 1.805047e-04 1.750971e-04 1.687590e-04 1.402413e-04 1.017617e-04 8.731159e-05 -7.080247e-05 -6.541217e-05 -4.141681e-04 -2.612990e-04 -5.869917e-04 -7.652582e-05 -7.390516e-05 5.169726e-04 5.293486e-04 5.690566e-04 3.764424e-04 1.445340e-04 -6.170213e-05 -1.119374e-04 -1.023635e-04 -1.186859e-04 1.789401e-04 -1.217765e-04 1.733749e-04 -3.582475e-04 -4.795630e-04 -6.751602e-04 -9.640542e-04 -5.698898e-04 -2.935125e-04 -2.920363e-04 5.529178e-04 -2.073158e-04 5.694243e-04 -2.105153e-04 1.869555e-04 -1.925281e-04 -7.169804e-05 -1.377772e-04 -1.256148e-04 -7.511864e-05 -8.267147e-05 -2.561812e-05 -2.320672e-05 1.353593e-05 