# vtk DataFile Version 2.0
Comment goes here
ASCII

DATASET STRUCTURED_POINTS
DIMENSIONS    64   64   1

ORIGIN    0.000   0.000   0.000
SPACING   0.0156250.015625   1.000

POINT_DATA   4096
SCALARS Omega double
LOOKUP_TABLE default

-6.612290e-05 -1.130091e-04 -2.292396e-04 -3.321445e-04 -5.234654e-04 -7.004655e-04 -7.399309e-04 -8.264956e-04 -6.550621e-05 4.263361e-04 2.181036e-03 3.071556e-03 2.702488e-03 1.534506e-03 -2.871839e-03 -3.830261e-03 -1.167437e-03 6.330382e-04 4.114891e-03 2.289537e-03 1.766733e-03 1.661676e-03 2.224045e-04 8.578168e-04 1.085608e-03 3.075698e-04 3.181804e-03 6.606264e-04 3.323569e-03 2.709443e-03 4.514683e-04 1.692196e-03 -6.827351e-04 -1.517507e-03 1.872783e-03 2.614621e-04 1.917164e-03 1.182438e-03 9.209779e-04 8.995228e-04 2.220984e-04 1.897114e-04 -1.609384e-04 -3.345211e-04 -2.305885e-04 5.546245e-04 7.315157e-04 2.425502e-03 -9.521632e-04 -1.108272e-03 -6.831067e-04 -7.130024e-04 -2.980184e-04 -1.366249e-04 3.702627e-05 1.248186e-04 1.281150e-04 1.313239e-04 9.180679e-05 6.748350e-05 4.322500e-05 1.768326e-05 2.971956e-06 -2.427940e-05 
-1.156318e-04 -2.634854e-04 -3.523929e-04 -5.665218e-04 -7.231426e-04 -8.912701e-04 -9.805695e-04 -7.578758e-04 -4.544368e-04 4.820470e-04 1.152423e-03 1.883696e-03 1.541231e-03 -6.645352e-06 -1.941118e-03 -3.076238e-03 -3.546729e-03 -1.036132e-03 3.679046e-04 7.937570e-04 1.455375e-03 3.957021e-04 -4.883287e-05 -4.450435e-04 -1.591528e-03 -8.518323e-04 -1.487263e-03 -5.215212e-04 4.643269e-04 1.033078e-04 1.108028e-03 -2.421177e-04 -1.609682e-03 -1.532702e-03 -1.748055e-03 -8.539977e-04 -3.922191e-04 -1.345451e-04 2.781838e-04 8.067210e-05 2.069795e-04 -4.006386e-05 -9.637926e-05 -1.503409e-04 -1.816898e-04 3.797677e-04 2.852231e-04 1.067165e-03 -1.939598e-04 -2.640074e-04 -2.011529e-04 -2.611408e-04 -1.120548e-04 -1.228055e-05 9.464856e-06 1.099300e-04 6.294277e-05 1.075930e-04 6.107561e-05 5.956072e-05 3.915611e-05 1.185877e-06 -5.697704e-06 -8.826529e-05 
-8.473347e-05 -1.058594e-04 -1.695240e-04 -2.036199e-04 -2.486863e-04 -2.747290e-04 -1.864777e-04 -1.262392e-04 2.245514e-04 4.479020e-04 8.418988e-04 1.018639e-03 6.462482e-04 3.206543e-04 -6.642737e-04 -9.454115e-04 -4.957335e-04 -2.749948e-04 6.461080e-04 5.254649e-04 5.158427e-04 6.068032e-04 2.311871e-04 3.764385e-04 5.323953e-04 1.979375e-04 1.060900e-03 3.498898e-04 9.270226e-04 7.490825e-04 1.080211e-04 4.071270e-04 -1.820200e-04 -2.726383e-04 4.085854e-04 1.637111e-05 6.527962e-04 3.645568e-04 4.526439e-04 3.550170e-04 1.775771e-04 1.338731e-04 -7.801584e-06 7.392578e-06 -3.825739e-05 2.493949e-04 6.837766e-05 4.341984e-04 -1.823336e-04 -1.915451e-04 -2.202380e-04 -2.607266e-04 -1.305595e-04 -1.003709e-04 -1.446984e-05 2.316614e-05 4.050528e-05 5.611860e-05 3.834489e-05 3.803922e-05 1.143927e-05 4.546869e-06 -2.709061e-05 -3.877161e-05 
-1.029266e-04 -1.715812e-04 -2.164680e-04 -2.824460e-04 -3.267223e-04 -3.186834e-04 -2.994874e-04 -1.140676e-04 2.963068e-05 3.704867e-04 5.147852e-04 6.364577e-04 4.155895e-04 -2.419693e-05 -5.742616e-04 -8.458329e-04 -9.771542e-04 -4.999042e-04 -1.172387e-04 9.126498e-05 3.391339e-04 1.405611e-04 1.045812e-05 -7.789838e-05 -4.166250e-04 -1.983520e-04 -3.239453e-04 -9.446090e-05 2.025867e-04 3.875471e-05 2.600303e-04 -1.306713e-04 -4.166902e-04 -4.595731e-04 -6.217905e-04 -3.784608e-04 -2.905194e-04 -1.579756e-04 1.056101e-06 -3.936643e-05 5.926264e-05 -2.896772e-05 -2.957753e-06 -1.124579e-06 -1.858478e-05 1.645027e-04 5.452435e-05 2.578349e-04 -4.011589e-06 7.324700e-06 -4.384194e-05 -6.836795e-05 -3.272482e-05 -1.184283e-05 4.132915e-06 4.186823e-05 2.807253e-05 5.228454e-05 2.917229e-05 3.074351e-05 1.136613e-05 -1.069973e-05 -2.853544e-05 -7.534195e-05 
-6.470676e-05 -6.816327e-05 -9.836386e-05 -1.000364e-04 -1.028918e-04 -8.875955e-05 -2.646740e-05 2.629837e-05 1.554917e-04 2.427661e-04 3.156066e-04 3.521645e-04 1.821737e-04 8.500108e-05 -1.872253e-04 -2.784559e-04 -2.174952e-04 -1.831967e-04 4.475443e-05 8.832204e-05 1.238132e-04 1.982968e-04 1.286319e-04 1.656297e-04 2.437427e-04 1.229563e-04 3.702260e-04 1.652289e-04 2.839321e-04 2.305017e-04 3.064083e-05 1.174895e-04 -6.192648e-05 -5.099670e-05 9.711167e-05 -5.441216e-07 2.245282e-04 1.142975e-04 2.033220e-04 1.367297e-04 1.098214e-04 8.070927e-05 2.727425e-05 4.770899e-05 -5.197123e-06 9.470630e-05 -9.784546e-06 9.720360e-05 -6.429908e-05 -4.570597e-05 -8.256312e-05 -9.336762e-05 -5.484883e-05 -5.163262e-05 -1.219814e-05 -4.659845e-07 1.313453e-05 2.213632e-05 1.373059e-05 1.771260e-05 -2.924753e-06 -2.234462e-06 -3.011486e-05 -3.165631e-05 
-7.157302e-05 -9.689143e-05 -1.169856e-04 -1.270782e-04 -1.363633e-04 -1.008535e-04 -7.912048e-05 2.228985e-05 7.480258e-05 1.985558e-04 2.179278e-04 2.394821e-04 1.340704e-04 4.379434e-06 -1.752345e-04 -2.574826e-04 -3.102220e-04 -2.150092e-04 -1.114347e-04 -3.645699e-05 5.069051e-05 3.074462e-05 2.595306e-06 -2.561609e-06 -9.285873e-05 -2.760221e-05 -4.903843e-05 6.247909e-07 8.713815e-05 1.907314e-05 7.218715e-05 -5.384143e-05 -1.295953e-04 -1.615847e-04 -2.322850e-04 -1.674711e-04 -1.571179e-04 -1.041837e-04 -4.538204e-05 -4.793642e-05 7.112175e-06 -1.768356e-05 1.013909e-05 1.634257e-05 1.153341e-05 7.085897e-05 2.334192e-05 8.628486e-05 1.040053e-05 2.488906e-05 -7.227861e-06 -1.276935e-05 -8.620259e-06 -4.860182e-06 1.968437e-06 1.393876e-05 1.061344e-05 1.999523e-05 9.354344e-06 9.233792e-06 -3.979235e-06 -1.579060e-05 -3.085206e-05 -5.300494e-05 
-4.078781e-05 -3.670846e-05 -5.083774e-05 -4.277515e-05 -3.893771e-05 -2.138642e-05 8.989020e-06 3.987786e-05 8.276262e-05 1.169425e-04 1.226415e-04 1.311054e-04 5.872623e-05 2.747069e-05 -6.516419e-05 -9.492042e-05 -9.995805e-05 -8.994112e-05 -3.521543e-05 -2.235952e-06 2.206736e-05 5.993291e-05 6.126104e-05 7.236187e-05 1.104142e-04 6.898635e-05 1.388525e-04 7.833641e-05 9.525140e-05 8.169168e-05 8.813844e-06 4.039934e-05 -2.419073e-05 -7.951435e-06 2.456985e-05 1.181397e-06 8.059016e-05 3.858675e-05 8.973425e-05 5.421694e-05 6.114150e-05 4.313520e-05 2.538981e-05 3.292902e-05 1.817957e-06 3.644941e-05 -1.263049e-05 2.436891e-05 -3.005032e-05 -1.630543e-05 -3.497142e-05 -3.548273e-05 -2.368690e-05 -2.398841e-05 -6.491306e-06 -3.577248e-06 4.323760e-06 8.175150e-06 3.701037e-06 7.068145e-06 -6.791613e-06 -3.874718e-06 -2.326656e-05 -2.028912e-05 
-4.438651e-05 -5.064743e-05 -5.927926e-05 -5.342130e-05 -5.431359e-05 -2.596289e-05 -1.460805e-05 3.601081e-05 5.204453e-05 1.002494e-04 9.483126e-05 1.008779e-04 5.178393e-05 1.143247e-05 -5.610925e-05 -8.535474e-05 -1.117033e-04 -9.347266e-05 -6.750582e-05 -4.150395e-05 -1.120233e-05 -3.540728e-06 -4.233503e-06 4.261562e-06 -1.428842e-05 6.390280e-06 6.886361e-06 1.529195e-05 4.112944e-05 1.273274e-05 2.393538e-05 -2.016437e-05 -4.696291e-05 -6.286660e-05 -9.356959e-05 -7.606552e-05 -7.953671e-05 -5.933285e-05 -3.806965e-05 -3.415470e-05 -6.845228e-06 -1.167993e-05 6.571861e-06 1.091961e-05 1.234281e-05 3.244610e-05 1.488166e-05 3.640758e-05 9.623548e-06 1.775081e-05 1.592038e-06 1.058140e-06 -1.427485e-06 -1.296416e-06 4.832074e-07 3.202727e-06 2.302056e-06 4.562315e-06 -3.217479e-07 -1.617327e-06 -9.391181e-06 -1.528178e-05 -2.498492e-05 -3.376090e-05 
-2.316707e-05 -1.757362e-05 -2.444906e-05 -1.603522e-05 -1.325020e-05 -6.148559e-07 1.223246e-05 2.843688e-05 4.158442e-05 5.553326e-05 5.042743e-05 5.288303e-05 2.085088e-05 1.049025e-05 -2.690141e-05 -3.618332e-05 -4.737654e-05 -4.247989e-05 -2.976042e-05 -1.372280e-05 2.250100e-07 1.646313e-05 2.809179e-05 3.161764e-05 5.059089e-05 3.661077e-05 5.620324e-05 3.871648e-05 3.502461e-05 3.415569e-05 2.320148e-06 1.737763e-05 -1.048929e-05 1.104870e-06 6.352587e-06 2.296352e-06 3.075234e-05 1.469857e-05 4.041446e-05 2.258461e-05 3.271902e-05 2.143300e-05 1.727220e-05 1.755604e-05 2.992552e-06 1.431962e-05 -7.771920e-06 6.027599e-06 -1.546352e-05 -7.761756e-06 -1.665681e-05 -1.481400e-05 -1.123270e-05 -1.107537e-05 -3.596901e-06 -2.803274e-06 1.019837e-06 2.704675e-06 -4.081792e-08 2.319761e-06 -6.322016e-06 -3.273471e-06 -1.532920e-05 -1.132399e-05 
-2.583306e-05 -2.535027e-05 -2.896775e-05 -2.112320e-05 -2.070710e-05 -2.712271e-06 1.862252e-06 2.693487e-05 3.039678e-05 5.111313e-05 4.342885e-05 4.684857e-05 2.288847e-05 1.000023e-05 -1.927263e-05 -3.044371e-05 -4.532891e-05 -4.256762e-05 -3.792576e-05 -2.876779e-05 -1.793657e-05 -1.081266e-05 -6.090288e-06 5.457883e-07 8.011582e-07 7.777108e-06 1.221878e-05 1.247818e-05 2.082316e-05 9.083083e-06 9.624272e-06 -6.298384e-06 -1.904021e-05 -2.556988e-05 -4.065716e-05 -3.527306e-05 -4.010368e-05 -3.195619e-05 -2.459101e-05 -2.107252e-05 -8.049477e-06 -7.883418e-06 2.843144e-06 5.395712e-06 8.454966e-06 1.573848e-05 9.909033e-06 1.787940e-05 7.365842e-06 1.134164e-05 3.161652e-06 3.507525e-06 3.902356e-07 -1.532107e-07 -4.770519e-07 -6.560564e-07 -1.232711e-06 -1.612778e-06 -3.917965e-06 -5.440742e-06 -9.561810e-06 -1.234464e-05 -1.769703e-05 -2.038542e-05 
-1.222576e-05 -7.635760e-06 -1.095088e-05 -4.931699e-06 -3.368741e-06 4.107985e-06 9.439455e-06 1.734110e-05 2.119170e-05 2.691569e-05 2.225566e-05 2.307892e-05 8.149497e-06 4.720580e-06 -1.221493e-05 -1.482214e-05 -2.274890e-05 -2.008270e-05 -1.724781e-05 -1.033917e-05 -2.494990e-06 3.797481e-06 1.309197e-05 1.406963e-05 2.367312e-05 1.910225e-05 2.425390e-05 2.005680e-05 1.387771e-05 1.663810e-05 2.709115e-07 9.249735e-06 -5.044518e-06 2.789845e-06 1.575443e-06 2.335347e-06 1.271591e-05 6.375968e-06 1.907835e-05 9.765642e-06 1.752663e-05 1.001338e-05 1.066655e-05 8.183798e-06 2.515343e-06 5.318429e-06 -4.359592e-06 8.188703e-07 -8.599411e-06 -4.416615e-06 -9.077160e-06 -6.920509e-06 -6.337095e-06 -5.367713e-06 -2.645683e-06 -1.839956e-06 -5.199812e-07 6.675351e-07 -1.307973e-06 4.914467e-07 -4.737802e-06 -2.185025e-06 -9.206864e-06 -5.749312e-06 
-1.431476e-05 -1.230144e-05 -1.360167e-05 -7.573997e-06 -7.110202e-06 3.337237e-06 4.872996e-06 1.745613e-05 1.719411e-05 2.694281e-05 2.102476e-05 2.353087e-05 1.092412e-05 7.047197e-06 -7.492335e-06 -1.167151e-05 -2.075613e-05 -2.066222e-05 -2.145738e-05 -1.817488e-05 -1.410395e-05 -1.033052e-05 -5.772040e-06 -2.348849e-06 1.683020e-06 4.058745e-06 8.395993e-06 7.701561e-06 1.089280e-05 6.324182e-06 4.645935e-06 -7.848300e-07 -8.181769e-06 -1.013147e-05 -1.866963e-05 -1.628510e-05 -2.035171e-05 -1.663012e-05 -1.439212e-05 -1.215371e-05 -5.930529e-06 -5.110682e-06 1.082300e-06 2.384735e-06 5.248174e-06 8.033079e-06 6.462195e-06 9.639842e-06 5.185307e-06 7.133687e-06 2.700785e-06 3.090140e-06 4.613160e-07 -2.555002e-08 -1.071967e-06 -1.855421e-06 -2.467736e-06 -3.458965e-06 -4.565322e-06 -5.831567e-06 -7.752133e-06 -9.033386e-06 -1.153197e-05 -1.192984e-05 
-5.962661e-06 -3.037789e-06 -4.267501e-06 -9.112464e-07 4.035763e-07 3.972104e-06 6.786700e-06 9.969775e-06 1.156475e-05 1.342795e-05 1.090949e-05 1.084514e-05 3.849919e-06 2.545216e-06 -5.532398e-06 -6.171098e-06 -1.079854e-05 -9.379361e-06 -8.818308e-06 -5.958633e-06 -1.665171e-06 6.432791e-07 6.323073e-06 6.590949e-06 1.125000e-05 1.008748e-05 1.081476e-05 1.084374e-05 5.594022e-06 9.036181e-06 -4.799634e-07 5.588872e-06 -2.692648e-06 2.601618e-06 3.975914e-07 1.844398e-06 5.918107e-06 2.936196e-06 9.729372e-06 4.099862e-06 9.720286e-06 4.147682e-06 6.421316e-06 3.099055e-06 1.679752e-06 1.340896e-06 -2.691074e-06 -8.846124e-07 -5.412106e-06 -2.926112e-06 -5.879453e-06 -3.689210e-06 -4.520952e-06 -2.827255e-06 -2.588447e-06 -1.173846e-06 -1.414254e-06 7.174241e-09 -1.712016e-06 -6.207643e-08 -3.294390e-06 -1.276065e-06 -5.186292e-06 -2.727682e-06 
-7.334052e-06 -5.628427e-06 -5.674259e-06 -1.936699e-06 -1.360189e-06 4.260129e-06 4.802433e-06 1.104047e-05 1.005834e-05 1.483568e-05 1.078056e-05 1.254489e-05 5.322147e-06 4.490390e-06 -3.694207e-06 -4.993527e-06 -1.090934e-05 -1.093953e-05 -1.280965e-05 -1.158554e-05 -9.992353e-06 -8.395277e-06 -4.972300e-06 -3.619300e-06 3.563961e-07 1.034597e-06 4.568929e-06 4.109904e-06 5.769669e-06 4.286760e-06 2.658412e-06 1.308997e-06 -3.377289e-06 -3.277669e-06 -8.623506e-06 -6.986978e-06 -1.011980e-05 -8.121533e-06 -7.749923e-06 -6.496730e-06 -3.455700e-06 -2.976745e-06 6.553260e-07 1.121801e-06 3.327700e-06 4.326027e-06 4.158098e-06 5.460673e-06 3.380851e-06 4.376283e-06 1.712602e-06 2.059115e-06 -4.825797e-08 -2.880194e-07 -1.509060e-06 -2.124267e-06 -2.763124e-06 -3.581020e-06 -4.093608e-06 -4.946043e-06 -5.602272e-06 -6.187083e-06 -6.956473e-06 -6.742768e-06 
-2.501665e-06 -1.168476e-06 -9.251327e-07 1.487281e-07 1.961160e-06 2.665262e-06 5.246280e-06 5.424659e-06 7.246372e-06 6.771760e-06 6.410495e-06 5.393013e-06 2.666822e-06 1.628448e-06 -1.998606e-06 -2.333143e-06 -4.753355e-06 -4.062608e-06 -4.080846e-06 -2.817024e-06 -7.545457e-07 2.576137e-07 3.043137e-06 3.433124e-06 5.167660e-06 5.521425e-06 4.577855e-06 6.078947e-06 1.900997e-06 5.208397e-06 -8.311042e-07 3.503320e-06 -1.542107e-06 1.913373e-06 3.038574e-07 1.149971e-06 3.366339e-06 1.140992e-06 5.618871e-06 1.263238e-06 5.793696e-06 1.012056e-06 3.909102e-06 3.151225e-07 8.876161e-07 -6.447928e-07 -2.095056e-06 -1.624105e-06 -4.090058e-06 -2.290395e-06 -4.665273e-06 -2.304818e-06 -4.046585e-06 -1.646717e-06 -2.935510e-06 -7.226655e-07 -2.086439e-06 -9.544367e-08 -1.915136e-06 -1.054156e-07 -2.324814e-06 -6.591077e-07 -2.770733e-06 -1.250568e-06 
-2.934631e-06 -1.996504e-06 -1.186790e-06 6.196055e-07 1.543087e-06 4.062664e-06 4.568565e-06 7.246169e-06 6.509575e-06 8.582785e-06 5.922707e-06 6.906125e-06 2.422831e-06 2.511746e-06 -2.635529e-06 -2.737419e-06 -6.859185e-06 -6.611209e-06 -8.477120e-06 -7.912195e-06 -7.313317e-06 -6.776595e-06 -4.338319e-06 -4.069116e-06 -8.120297e-07 -8.525224e-07 2.028964e-06 1.770838e-06 3.068452e-06 2.861131e-06 1.833700e-06 2.096813e-06 -9.145184e-07 7.186915e-08 -3.482776e-06 -2.022035e-06 -4.425294e-06 -3.118484e-06 -3.448565e-06 -2.779086e-06 -1.304754e-06 -1.235588e-06 9.146609e-07 8.174655e-07 2.367945e-06 2.499501e-06 2.686106e-06 3.101743e-06 1.965096e-06 2.445676e-06 6.347801e-07 9.423067e-07 -7.917728e-07 -7.590077e-07 -1.975133e-06 -2.190975e-06 -2.828678e-06 -3.199742e-06 -3.409268e-06 -3.798911e-06 -3.740143e-06 -3.953549e-06 -3.683348e-06 -3.459361e-06 
-5.768692e-07 -5.785056e-07 8.849994e-07 4.402230e-08 2.841892e-06 1.228518e-06 4.709589e-06 2.506197e-06 5.631575e-06 3.153523e-06 4.965331e-06 2.648746e-06 2.835111e-06 1.151348e-06 2.614309e-07 -4.716793e-07 -1.423305e-06 -1.238208e-06 -1.491172e-06 -7.593492e-07 -2.769647e-07 5.979189e-07 1.160370e-06 2.113449e-06 1.784237e-06 3.177104e-06 1.207779e-06 3.486991e-06 -8.740814e-08 3.050997e-06 -1.060878e-06 2.138718e-06 -8.344540e-07 1.159100e-06 6.568147e-07 4.203070e-07 2.610489e-06 -5.207272e-08 3.924461e-06 -4.391641e-07 3.879709e-06 -8.968225e-07 2.452430e-06 -1.422564e-06 1.903588e-07 -1.897838e-06 -2.122954e-06 -2.178753e-06 -3.801886e-06 -2.142069e-06 -4.497275e-06 -1.737470e-06 -4.286195e-06 -1.066186e-06 -3.559008e-06 -3.799460e-07 -2.769480e-06 4.275043e-08 -2.196611e-06 5.816305e-08 -1.830267e-06 -2.494379e-07 -1.408587e-06 -5.874655e-07 
1.896446e-07 3.782083e-07 1.942099e-06 2.208564e-06 3.708917e-06 4.012919e-06 4.968634e-06 5.218061e-06 5.076921e-06 5.198478e-06 3.598299e-06 3.634431e-06 7.032873e-07 8.254130e-07 -2.713894e-06 -2.350645e-06 -5.428066e-06 -4.879622e-06 -6.552120e-06 -6.098146e-06 -5.935414e-06 -5.853820e-06 -4.051985e-06 -4.380784e-06 -1.661677e-06 -2.160008e-06 4.382340e-07 1.518874e-07 1.595676e-06 1.860864e-06 1.553511e-06 2.509369e-06 6.377679e-07 2.118992e-06 -3.942514e-07 1.171297e-06 -8.298859e-07 3.145286e-07 -4.217163e-07 1.413867e-08 5.535098e-07 3.550417e-07 1.544305e-06 1.050246e-06 2.040538e-06 1.613316e-06 1.786558e-06 1.620438e-06 8.482814e-07 9.406836e-07 -4.558142e-07 -2.113030e-07 -1.721398e-06 -1.434727e-06 -2.630708e-06 -2.371109e-06 -3.032061e-06 -2.828475e-06 -2.910564e-06 -2.762627e-06 -2.308108e-06 -2.191442e-06 -1.262674e-06 -1.133524e-06 
5.695889e-07 -5.406391e-07 2.084134e-06 -5.119768e-07 3.685721e-06 -1.767319e-07 4.998726e-06 3.257869e-07 5.572496e-06 7.535009e-07 5.136707e-06 9.092019e-07 3.826985e-06 7.835574e-07 2.179403e-06 5.674550e-07 8.283042e-07 5.027703e-07 1.086051e-07 7.033051e-07 -1.133790e-07 1.105024e-06 -2.501159e-07 1.547983e-06 -6.220309e-07 1.870831e-06 -1.190718e-06 1.951604e-06 -1.569511e-06 1.725939e-06 -1.301659e-06 1.212285e-06 -2.216534e-07 5.100214e-07 1.362699e-06 -2.599889e-07 2.805775e-06 -1.021351e-06 3.468052e-06 -1.741512e-06 3.022440e-06 -2.377105e-06 1.558811e-06 -2.841014e-06 -5.044324e-07 -3.027889e-06 -2.603132e-06 -2.866858e-06 -4.222395e-06 -2.360723e-06 -5.056186e-06 -1.602916e-06 -5.082400e-06 -7.695657e-07 -4.512326e-06 -7.260490e-08 -3.642555e-06 3.176819e-07 -2.697119e-06 3.422107e-07 -1.740708e-06 7.837759e-08 -6.936029e-07 -2.892490e-07 
2.905838e-06 2.491327e-06 4.894892e-06 3.832619e-06 6.196720e-06 4.545092e-06 6.340771e-06 4.344494e-06 5.070103e-06 3.161305e-06 2.540306e-06 1.221633e-06 -6.290601e-07 -1.017399e-06 -3.556622e-06 -3.066941e-06 -5.481436e-06 -4.598756e-06 -6.077583e-06 -5.476977e-06 -5.489842e-06 -5.638169e-06 -4.124085e-06 -4.994464e-06 -2.413295e-06 -3.497814e-06 -7.182858e-07 -1.315517e-06 6.715570e-07 1.073087e-06 1.560947e-06 3.014753e-06 1.927303e-06 4.013602e-06 1.955875e-06 4.010117e-06 1.936799e-06 3.371747e-06 2.069882e-06 2.606992e-06 2.324484e-06 2.038789e-06 2.456692e-06 1.663800e-06 2.166188e-06 1.251427e-06 1.290368e-06 5.736636e-07 -7.869249e-08 -4.041678e-07 -1.618565e-06 -1.489843e-06 -2.917618e-06 -2.379558e-06 -3.635690e-06 -2.811371e-06 -3.592996e-06 -2.652995e-06 -2.770705e-06 -1.905363e-06 -1.269742e-06 -6.684881e-07 7.181032e-07 8.814250e-07 
1.367672e-06 -6.987750e-07 3.160250e-06 -1.268077e-06 4.818535e-06 -1.671458e-06 6.069757e-06 -1.776211e-06 6.656451e-06 -1.463846e-06 6.474250e-06 -7.069644e-07 5.639448e-06 3.438447e-07 4.413826e-06 1.360620e-06 3.029708e-06 1.986163e-06 1.565343e-06 2.051417e-06 -6.927636e-09 1.685037e-06 -1.634508e-06 1.211063e-06 -3.029696e-06 9.132314e-07 -3.709773e-06 8.499059e-07 -3.263056e-06 8.458516e-07 -1.679708e-06 6.418955e-07 5.288111e-07 7.468960e-08 2.562837e-06 -8.397879e-07 3.740663e-06 -1.945626e-06 3.760789e-06 -3.035354e-06 2.698588e-06 -3.911464e-06 8.561095e-07 -4.410455e-06 -1.372062e-06 -4.419528e-06 -3.563981e-06 -3.907104e-06 -5.317984e-06 -2.956873e-06 -6.335848e-06 -1.771005e-06 -6.512744e-06 -6.172133e-07 -5.952715e-06 2.619300e-07 -4.882771e-06 7.255783e-07 -3.525323e-06 7.586908e-07 -2.011738e-06 4.444725e-07 -3.784034e-07 -8.647516e-08 
5.855563e-06 5.025278e-06 8.532093e-06 6.150825e-06 9.831737e-06 5.966990e-06 9.133818e-06 4.310525e-06 6.348650e-06 1.563619e-06 2.151016e-06 -1.411407e-06 -2.181975e-06 -3.708382e-06 -5.363940e-06 -4.928040e-06 -6.760652e-06 -5.369221e-06 -6.608730e-06 -5.643666e-06 -5.640196e-06 -6.045461e-06 -4.479465e-06 -6.233863e-06 -3.298763e-06 -5.471317e-06 -1.919173e-06 -3.227524e-06 -1.877700e-07 2.707120e-07 1.720453e-06 3.982025e-06 3.353868e-06 6.636823e-06 4.335031e-06 7.546467e-06 4.640108e-06 6.930925e-06 4.524764e-06 5.544664e-06 4.212863e-06 4.046455e-06 3.677984e-06 2.657915e-06 2.702756e-06 1.267267e-06 1.132968e-06 -2.446206e-07 -9.009829e-07 -1.776158e-06 -2.971516e-06 -3.029850e-06 -4.541155e-06 -3.695271e-06 -5.184871e-06 -3.596462e-06 -4.701184e-06 -2.718545e-06 -3.101711e-06 -1.165010e-06 -5.620220e-07 8.698908e-07 2.592103e-06 3.081639e-06 
2.043356e-06 -8.399780e-07 4.397570e-06 -2.128501e-06 6.487258e-06 -3.462592e-06 8.046172e-06 -4.406941e-06 8.892510e-06 -4.365790e-06 9.028623e-06 -2.936146e-06 8.595646e-06 -3.630011e-07 7.679046e-06 2.346577e-06 6.148095e-06 3.953082e-06 3.748623e-06 3.832639e-06 4.451241e-07 2.396285e-06 -3.255619e-06 7.169351e-07 -6.285121e-06 -2.579480e-07 -7.410071e-06 -2.695854e-07 -5.946587e-06 2.317172e-07 -2.379293e-06 5.012187e-07 1.724570e-06 1.376180e-08 4.648271e-06 -1.263557e-06 5.530990e-06 -2.969753e-06 4.573181e-06 -4.636208e-06 2.499449e-06 -5.897336e-06 -4.220098e-08 -6.533219e-06 -2.684310e-06 -6.425768e-06 -5.190552e-06 -5.550845e-06 -7.262836e-06 -4.040894e-06 -8.549278e-06 -2.222902e-06 -8.826594e-06 -5.246861e-07 -8.129249e-06 7.059489e-07 -6.695206e-06 1.322501e-06 -4.804904e-06 1.365891e-06 -2.656914e-06 9.600435e-07 -3.508952e-07 2.083706e-07 
9.599847e-06 8.647960e-06 1.373363e-05 9.914768e-06 1.566633e-05 8.834748e-06 1.425424e-05 5.124561e-06 9.302659e-06 -3.319299e-07 2.128247e-06 -5.559503e-06 -4.739133e-06 -8.542272e-06 -8.896648e-06 -8.663227e-06 -9.570569e-06 -7.203342e-06 -7.940470e-06 -6.234728e-06 -5.976061e-06 -6.867377e-06 -4.906190e-06 -8.398702e-06 -4.540226e-06 -8.853833e-06 -3.732593e-06 -6.400892e-06 -1.515818e-06 -8.236234e-07 1.937815e-06 5.969627e-06 5.357433e-06 1.113313e-05 7.443147e-06 1.295383e-05 7.872408e-06 1.179519e-05 7.257880e-06 9.224016e-06 6.327652e-06 6.550916e-06 5.266766e-06 4.139044e-06 3.735372e-06 1.724540e-06 1.384601e-06 -8.638557e-07 -1.646594e-06 -3.309418e-06 -4.673329e-06 -5.008935e-06 -6.841962e-06 -5.525279e-06 -7.549925e-06 -4.793984e-06 -6.588761e-06 -3.006695e-06 -4.044758e-06 -4.214522e-07 -1.730868e-07 2.689034e-06 4.606941e-06 5.931333e-06 
2.660271e-06 -7.312289e-07 5.965897e-06 -2.948533e-06 8.960432e-06 -5.739299e-06 1.125219e-05 -8.288572e-06 1.262652e-05 -9.118070e-06 1.322189e-05 -6.886400e-06 1.336112e-05 -1.730942e-06 1.304012e-05 4.104404e-06 1.158113e-05 7.518980e-06 8.010447e-06 6.910026e-06 2.016617e-06 3.345522e-06 -5.318713e-06 -5.021404e-07 -1.159479e-05 -2.409895e-06 -1.400983e-05 -1.890776e-06 -1.098575e-05 -1.119825e-07 -3.718903e-06 1.137687e-06 4.025496e-06 6.754399e-07 8.502140e-06 -1.449860e-06 8.568195e-06 -4.322338e-06 5.649443e-06 -6.961880e-06 1.824873e-06 -8.805397e-06 -1.718385e-06 -9.670862e-06 -4.859133e-06 -9.486846e-06 -7.815631e-06 -8.175549e-06 -1.043781e-05 -5.842543e-06 -1.215246e-05 -2.994018e-06 -1.247530e-05 -3.843366e-07 -1.140293e-05 1.404671e-06 -9.324519e-06 2.218302e-06 -6.686643e-06 2.240801e-06 -3.760531e-06 1.726139e-06 -6.319621e-07 7.727824e-07 
1.467071e-05 1.423029e-05 2.162975e-05 1.636035e-05 2.541616e-05 1.440929e-05 2.358061e-05 7.366304e-06 1.516855e-05 -3.342013e-06 2.348582e-06 -1.348950e-05 -9.734759e-06 -1.827758e-05 -1.592559e-05 -1.615112e-05 -1.487528e-05 -1.044779e-05 -9.865158e-06 -6.581054e-06 -5.672167e-06 -7.487195e-06 -4.843596e-06 -1.173437e-05 -6.408086e-06 -1.485388e-05 -7.139524e-06 -1.225591e-05 -4.236932e-06 -2.624686e-06 2.141772e-06 1.018308e-05 8.775903e-06 1.962757e-05 1.233581e-05 2.199746e-05 1.223157e-05 1.873006e-05 1.030780e-05 1.369775e-05 8.503706e-06 9.521707e-06 7.229431e-06 6.344506e-06 5.528321e-06 3.019846e-06 2.355080e-06 -1.051023e-06 -2.233122e-06 -5.089801e-06 -6.948810e-06 -7.692207e-06 -1.022038e-05 -8.084857e-06 -1.113345e-05 -6.461757e-06 -9.572342e-06 -3.443526e-06 -5.817530e-06 4.835316e-07 -2.010950e-07 5.058638e-06 6.884571e-06 9.931402e-06 
3.056548e-06 3.935934e-08 7.890841e-06 -3.274896e-06 1.256632e-05 -8.469268e-06 1.630556e-05 -1.438311e-05 1.863083e-05 -1.779918e-05 1.991545e-05 -1.487639e-05 2.110544e-05 -4.783594e-06 2.235000e-05 7.703724e-06 2.188681e-05 1.494494e-05 1.695686e-05 1.295404e-05 6.321554e-06 4.577827e-06 -8.050994e-06 -3.694091e-06 -2.125606e-05 -6.998934e-06 -2.708540e-05 -4.718810e-06 -2.136401e-05 1.710367e-07 -6.296212e-06 3.524448e-06 9.119222e-06 2.832915e-06 1.615930e-05 -1.321781e-06 1.357700e-05 -6.532559e-06 6.281153e-06 -1.076301e-05 -6.020962e-07 -1.332068e-05 -5.217886e-06 -1.442001e-05 -8.503637e-06 -1.422811e-05 -1.190540e-05 -1.242264e-05 -1.550926e-05 -8.796721e-06 -1.799937e-05 -4.138399e-06 -1.823035e-05 4.450691e-08 -1.627027e-05 2.654129e-06 -1.301673e-05 3.593720e-06 -9.311887e-06 3.443655e-06 -5.483079e-06 2.801805e-06 -1.424918e-06 1.812573e-06 
2.145933e-05 2.300826e-05 3.373418e-05 2.774685e-05 4.207414e-05 2.558253e-05 4.104680e-05 1.306255e-05 2.706284e-05 -8.367111e-06 3.045872e-06 -2.981558e-05 -2.018362e-05 -3.921944e-05 -3.046150e-05 -3.181939e-05 -2.477496e-05 -1.584349e-05 -1.173871e-05 -4.979081e-06 -2.724864e-06 -6.118259e-06 -2.858999e-06 -1.606103e-05 -9.281030e-06 -2.540696e-05 -1.421136e-05 -2.358523e-05 -1.038632e-05 -5.907196e-06 2.342706e-06 1.954965e-05 1.567362e-05 3.673413e-05 2.114837e-05 3.765315e-05 1.835359e-05 2.800668e-05 1.296418e-05 1.789581e-05 9.826466e-06 1.233177e-05 9.374070e-06 9.821640e-06 8.723490e-06 6.356770e-06 4.889309e-06 1.219479e-08 -2.357189e-06 -7.169738e-06 -1.019943e-05 -1.158968e-05 -1.538511e-05 -1.173431e-05 -1.654293e-05 -8.608716e-06 -1.405191e-05 -3.841234e-06 -8.717019e-06 1.749495e-06 -9.255269e-07 8.200147e-06 9.279888e-06 1.559228e-05 
2.613329e-06 2.243856e-06 9.841009e-06 -1.864896e-06 1.765508e-05 -1.080237e-05 2.433306e-05 -2.380370e-05 2.845317e-05 -3.449649e-05 3.069746e-05 -3.241740e-05 3.383978e-05 -1.243165e-05 3.908515e-05 1.538826e-05 4.224430e-05 3.139204e-05 3.595158e-05 2.544538e-05 1.663798e-05 5.668219e-06 -1.190416e-05 -1.190886e-05 -4.013678e-05 -1.709231e-05 -5.480154e-05 -9.905420e-06 -4.430799e-05 2.342082e-06 -1.131746e-05 1.016536e-05 2.166124e-05 8.161296e-06 3.248588e-05 -1.021118e-06 2.160954e-05 -1.097228e-05 4.265012e-06 -1.754923e-05 -7.702740e-06 -2.046621e-05 -1.244629e-05 -2.146095e-05 -1.434071e-05 -2.153171e-05 -1.795082e-05 -1.949601e-05 -2.366203e-05 -1.378138e-05 -2.777447e-05 -5.661401e-06 -2.744056e-05 1.389880e-06 -2.332500e-05 5.098511e-06 -1.783312e-05 5.737720e-06 -1.266221e-05 4.935936e-06 -8.044583e-06 4.092724e-06 -3.247859e-06 3.529570e-06 
2.975083e-05 3.657060e-05 5.179303e-05 4.814983e-05 7.082162e-05 4.890688e-05 7.504385e-05 2.828886e-05 5.290356e-05 -1.549514e-05 5.870261e-06 -6.438750e-05 -4.277408e-05 -8.654285e-05 -6.185378e-05 -6.624862e-05 -4.349953e-05 -2.450637e-05 -1.128409e-05 3.042224e-06 7.706158e-06 1.976043e-06 4.523209e-06 -1.929564e-05 -1.350504e-05 -4.298798e-05 -2.956584e-05 -4.624494e-05 -2.501182e-05 -1.263777e-05 2.857247e-06 4.162136e-05 3.167398e-05 7.333211e-05 3.870769e-05 6.483467e-05 2.645645e-05 3.735523e-05 1.225608e-05 1.733144e-05 7.425007e-06 1.283473e-05 1.101525e-05 1.604054e-05 1.489714e-05 1.511407e-05 1.114810e-05 4.603124e-06 -1.273372e-06 -9.721276e-06 -1.537416e-05 -1.793604e-05 -2.374071e-05 -1.713034e-05 -2.467607e-05 -1.104230e-05 -2.039630e-05 -3.732899e-06 -1.302611e-05 3.621737e-06 -2.895321e-06 1.211019e-05 1.104710e-05 2.318218e-05 
-2.731277e-07 7.128645e-06 1.052676e-05 4.184895e-06 2.434215e-05 -9.438492e-06 3.742996e-05 -3.678226e-05 4.538995e-05 -6.729913e-05 4.864805e-05 -7.347331e-05 5.503367e-05 -3.343585e-05 7.017941e-05 3.217200e-05 8.387087e-05 6.941221e-05 7.618816e-05 5.167092e-05 3.890264e-05 4.091369e-06 -1.848940e-05 -3.274500e-05 -7.878203e-05 -3.918144e-05 -1.164397e-04 -1.932723e-05 -9.874082e-05 1.003697e-05 -2.153394e-05 2.749283e-05 5.530819e-05 2.023928e-05 6.940730e-05 -1.740456e-06 3.318724e-05 -2.121677e-05 -6.909946e-06 -3.041485e-05 -2.595162e-05 -3.157832e-05 -2.665111e-05 -3.105035e-05 -2.273698e-05 -3.244990e-05 -2.603912e-05 -3.194223e-05 -3.728500e-05 -2.278443e-05 -4.518099e-05 -7.277383e-06 -4.253207e-05 5.346657e-06 -3.292907e-05 1.015800e-05 -2.305595e-05 9.079337e-06 -1.614227e-05 6.387019e-06 -1.163218e-05 5.081573e-06 -7.178858e-06 5.903174e-06 
3.752721e-05 5.621515e-05 7.670371e-05 8.426546e-05 1.200097e-04 9.878322e-05 1.436456e-04 7.051596e-05 1.136846e-04 -1.938989e-05 1.831393e-05 -1.384428e-04 -9.285611e-05 -1.988319e-04 -1.329370e-04 -1.455109e-04 -7.867370e-05 -3.650219e-05 -7.475699e-07 2.894710e-05 3.646225e-05 2.798811e-05 2.512167e-05 -1.236173e-05 -1.787800e-05 -6.715666e-05 -6.328766e-05 -9.319975e-05 -6.207769e-05 -2.991438e-05 4.764725e-06 9.726179e-05 7.310306e-05 1.569166e-04 7.618321e-05 1.099892e-04 3.375048e-05 3.472144e-05 -1.419262e-06 -1.886852e-06 -6.332960e-06 5.494082e-06 1.034328e-05 2.912283e-05 2.792275e-05 3.858510e-05 2.667519e-05 1.880777e-05 2.605710e-06 -1.386569e-05 -2.520454e-05 -3.011831e-05 -3.831668e-05 -2.543376e-05 -3.670137e-05 -1.287571e-05 -2.851566e-05 -2.024623e-06 -1.869855e-05 6.345235e-06 -6.983693e-06 1.613943e-05 1.022620e-05 3.198523e-05 
-9.182799e-06 1.599726e-05 6.239676e-06 2.057656e-05 3.152106e-05 5.341971e-06 5.954213e-05 -4.808880e-05 7.726595e-05 -1.310568e-04 8.057874e-05 -1.751972e-04 9.061479e-05 -9.578041e-05 1.305076e-04 7.008244e-05 1.730928e-04 1.613356e-04 1.610096e-04 1.061089e-04 8.070943e-05 -1.092851e-05 -3.478640e-05 -8.498444e-05 -1.591039e-04 -8.630351e-05 -2.572964e-04 -3.599499e-05 -2.383455e-04 3.273780e-05 -4.478868e-05 7.282371e-05 1.531117e-04 4.665757e-05 1.560110e-04 -8.568665e-06 4.281071e-05 -4.622148e-05 -4.545912e-05 -5.546303e-05 -6.843953e-05 -4.767139e-05 -5.266824e-05 -4.099530e-05 -3.237228e-05 -4.731140e-05 -3.441908e-05 -5.597124e-05 -6.215533e-05 -4.086426e-05 -7.937156e-05 -7.378937e-06 -6.776757e-05 1.657417e-05 -4.377454e-05 2.083295e-05 -2.556587e-05 1.404110e-05 -1.763090e-05 6.753892e-06 -1.611768e-05 4.321516e-06 -1.518093e-05 8.032943e-06 
3.855955e-05 8.053725e-05 1.048666e-04 1.446158e-04 2.004618e-04 2.047485e-04 2.850831e-04 1.885949e-04 2.673492e-04 1.015663e-05 7.179261e-05 -2.965003e-04 -2.066446e-04 -4.812714e-04 -3.034502e-04 -3.363956e-04 -1.388798e-04 -4.048052e-05 4.644626e-05 1.012487e-04 1.037960e-04 9.317625e-05 7.398294e-05 3.706939e-05 -1.084023e-05 -7.479002e-05 -1.350440e-04 -1.948009e-04 -1.657882e-04 -9.043445e-05 9.701691e-06 2.505810e-04 1.909598e-04 3.619220e-04 1.581172e-04 1.715737e-04 2.283139e-05 -2.543037e-05 -5.610784e-05 -7.670314e-05 -4.944722e-05 -2.154321e-05 2.753080e-06 5.958056e-05 5.654303e-05 1.019932e-04 6.613206e-05 5.953834e-05 1.232091e-05 -2.544842e-05 -4.842512e-05 -5.781654e-05 -6.577915e-05 -3.799596e-05 -5.330350e-05 -1.104012e-05 -3.666332e-05 3.505391e-06 -2.465351e-05 9.859241e-06 -1.423974e-05 1.821309e-05 2.867623e-06 3.873152e-05 