# vtk DataFile Version 2.0
Comment goes here
ASCII

DATASET STRUCTURED_POINTS
DIMENSIONS    64   64   1

ORIGIN    0.000   0.000   0.000
SPACING   0.0156250.015625   1.000

POINT_DATA   4096
SCALARS Omega double
LOOKUP_TABLE default

-1.922510e-03 -4.047711e-03 -7.063288e-03 -1.139390e-02 -1.735940e-02 -2.522833e-02 -3.491721e-02 -4.609579e-02 -5.790972e-02 -6.927474e-02 -7.880760e-02 -8.530027e-02 -8.773287e-02 -8.564822e-02 -7.900035e-02 -6.829788e-02 -5.440816e-02 -3.857801e-02 -2.240095e-02 -7.671570e-03 3.616899e-03 9.727788e-03 9.376400e-03 2.342090e-03 -1.039589e-02 -2.662502e-02 -4.332267e-02 -5.753984e-02 -6.693784e-02 -7.056655e-02 -6.860150e-02 -6.225829e-02 -5.308234e-02 -4.258089e-02 -3.190788e-02 -2.176480e-02 -1.246467e-02 -4.040305e-03 3.730232e-03 1.112559e-02 1.857696e-02 2.636985e-02 3.472184e-02 4.348338e-02 5.227178e-02 6.032920e-02 6.690583e-02 7.116202e-02 7.271858e-02 7.132901e-02 6.734258e-02 6.117270e-02 5.357634e-02 4.522631e-02 3.681125e-02 2.889618e-02 2.184055e-02 1.592280e-02 1.114198e-02 7.492437e-03 4.744381e-03 2.722993e-03 1.122899e-03 -3.156120e-04 
-1.125754e-03 -2.339410e-03 -4.041719e-03 -6.482228e-03 -9.824100e-03 -1.424436e-02 -1.968937e-02 -2.603006e-02 -3.280313e-02 -3.947543e-02 -4.527728e-02 -4.956170e-02 -5.170067e-02 -5.139432e-02 -4.853102e-02 -4.334217e-02 -3.626809e-02 -2.797808e-02 -1.933769e-02 -1.129861e-02 -4.911059e-03 -1.058630e-03 -3.916873e-04 -3.024456e-03 -8.475551e-03 -1.569667e-02 -2.322373e-02 -2.966977e-02 -3.389089e-02 -3.543128e-02 -3.433734e-02 -3.116665e-02 -2.663651e-02 -2.144773e-02 -1.614330e-02 -1.104090e-02 -6.266746e-03 -1.820440e-03 2.442082e-03 6.646154e-03 1.102076e-02 1.564635e-02 2.061597e-02 2.575491e-02 3.084955e-02 3.541272e-02 3.907056e-02 4.131859e-02 4.201398e-02 4.100132e-02 3.854479e-02 3.486896e-02 3.044243e-02 2.563427e-02 2.083665e-02 1.635508e-02 1.237205e-02 9.041134e-03 6.341097e-03 4.278511e-03 2.711532e-03 1.554316e-03 6.296528e-04 -2.024684e-04 
-5.891315e-04 -1.251283e-03 -2.164397e-03 -3.475976e-03 -5.256142e-03 -7.624142e-03 -1.053721e-02 -1.396611e-02 -1.765789e-02 -2.137480e-02 -2.469541e-02 -2.730050e-02 -2.881873e-02 -2.908190e-02 -2.798114e-02 -2.562132e-02 -2.220396e-02 -1.807235e-02 -1.366517e-02 -9.464945e-03 -5.995976e-03 -3.693135e-03 -2.871484e-03 -3.598511e-03 -5.651460e-03 -8.570016e-03 -1.168031e-02 -1.436808e-02 -1.610225e-02 -1.667119e-02 -1.608406e-02 -1.457068e-02 -1.245574e-02 -1.003017e-02 -7.543851e-03 -5.116650e-03 -2.797652e-03 -5.723064e-04 1.645845e-03 3.906103e-03 6.332482e-03 8.922259e-03 1.172452e-02 1.458902e-02 1.741476e-02 1.989132e-02 2.185252e-02 2.299158e-02 2.327877e-02 2.260866e-02 2.116950e-02 1.907260e-02 1.659970e-02 1.394458e-02 1.132181e-02 8.891882e-03 6.738773e-03 4.946677e-03 3.488228e-03 2.374864e-03 1.520642e-03 8.872164e-04 3.767985e-04 -8.403315e-05 
-3.457747e-04 -7.009189e-04 -1.173902e-03 -1.854337e-03 -2.758708e-03 -3.970175e-03 -5.446670e-03 -7.205094e-03 -9.099777e-03 -1.104641e-02 -1.281392e-02 -1.426768e-02 -1.519518e-02 -1.551956e-02 -1.515790e-02 -1.415787e-02 -1.260020e-02 -1.064699e-02 -8.505213e-03 -6.402416e-03 -4.589057e-03 -3.271236e-03 -2.599867e-03 -2.621420e-03 -3.240840e-03 -4.278581e-03 -5.435536e-03 -6.461660e-03 -7.114331e-03 -7.302627e-03 -7.018761e-03 -6.349283e-03 -5.430220e-03 -4.371047e-03 -3.277302e-03 -2.189564e-03 -1.118124e-03 -5.795944e-05 1.050481e-03 2.208961e-03 3.498678e-03 4.877665e-03 6.392336e-03 7.916156e-03 9.426459e-03 1.071450e-02 1.173363e-02 1.228327e-02 1.239245e-02 1.197559e-02 1.117140e-02 1.001874e-02 8.691152e-03 7.278385e-03 5.899505e-03 4.631978e-03 3.512883e-03 2.585877e-03 1.827077e-03 1.247095e-03 7.953620e-04 4.564171e-04 1.794129e-04 -7.401743e-05 
-1.664809e-04 -3.510127e-04 -5.825253e-04 -9.219049e-04 -1.356047e-03 -1.948055e-03 -2.655169e-03 -3.513517e-03 -4.431983e-03 -5.399713e-03 -6.285683e-03 -7.049545e-03 -7.567978e-03 -7.817609e-03 -7.737332e-03 -7.353916e-03 -6.689025e-03 -5.818737e-03 -4.830284e-03 -3.828562e-03 -2.923913e-03 -2.213582e-03 -1.763582e-03 -1.607465e-03 -1.703855e-03 -1.995275e-03 -2.352911e-03 -2.686393e-03 -2.890277e-03 -2.927732e-03 -2.793712e-03 -2.512152e-03 -2.141777e-03 -1.711421e-03 -1.266206e-03 -8.123412e-04 -3.470642e-04 1.280771e-04 6.565537e-04 1.217898e-03 1.873714e-03 2.568619e-03 3.353124e-03 4.122814e-03 4.899084e-03 5.536006e-03 6.046591e-03 6.293922e-03 6.328680e-03 6.080799e-03 5.650339e-03 5.040186e-03 4.356539e-03 3.635516e-03 2.942469e-03 2.311716e-03 1.758597e-03 1.303580e-03 9.303190e-04 6.442022e-04 4.194508e-04 2.467137e-04 1.056792e-04 -2.878682e-05 
-1.137149e-04 -2.127457e-04 -3.226441e-04 -4.895718e-04 -6.855525e-04 -9.620214e-04 -1.275646e-03 -1.669219e-03 -2.078350e-03 -2.525739e-03 -2.931221e-03 -3.300586e-03 -3.559312e-03 -3.712566e-03 -3.716419e-03 -3.589096e-03 -3.328026e-03 -2.966705e-03 -2.536925e-03 -2.082923e-03 -1.650691e-03 -1.284254e-03 -1.012124e-03 -8.577799e-04 -8.039209e-04 -8.411983e-04 -9.144456e-04 -9.988016e-04 -1.047445e-03 -1.048179e-03 -9.958239e-04 -8.936961e-04 -7.638461e-04 -6.097791e-04 -4.456187e-04 -2.735184e-04 -7.994303e-05 1.203807e-04 3.691439e-04 6.283124e-04 9.572439e-04 1.290932e-03 1.689709e-03 2.060052e-03 2.451390e-03 2.750315e-03 3.002478e-03 3.103281e-03 3.113962e-03 2.970011e-03 2.750678e-03 2.435513e-03 2.097702e-03 1.739885e-03 1.405514e-03 1.101003e-03 8.386669e-04 6.214353e-04 4.444022e-04 3.048349e-04 1.951427e-04 1.047073e-04 3.225261e-05 -4.333042e-05 
-4.875768e-05 -1.020783e-04 -1.485577e-04 -2.300123e-04 -3.103551e-04 -4.357657e-04 -5.630824e-04 -7.361546e-04 -9.042740e-04 -1.102313e-03 -1.275477e-03 -1.448050e-03 -1.570428e-03 -1.660352e-03 -1.684124e-03 -1.657918e-03 -1.569205e-03 -1.435336e-03 -1.262340e-03 -1.070236e-03 -8.740639e-04 -6.955107e-04 -5.435739e-04 -4.356008e-04 -3.618826e-04 -3.297377e-04 -3.141620e-04 -3.148200e-04 -3.106412e-04 -2.998196e-04 -2.789650e-04 -2.458544e-04 -2.078173e-04 -1.623829e-04 -1.095396e-04 -5.475896e-05 2.249157e-05 9.713785e-05 2.135679e-04 3.222542e-04 4.858439e-04 6.329235e-04 8.324588e-04 9.964713e-04 1.189581e-03 1.316962e-03 1.438168e-03 1.469040e-03 1.470739e-03 1.386204e-03 1.278332e-03 1.118061e-03 9.587396e-04 7.865173e-04 6.353756e-04 4.947971e-04 3.814792e-04 2.834879e-04 2.097665e-04 1.453945e-04 1.001759e-04 5.450004e-05 2.377896e-05 -1.817697e-05 
-4.599027e-05 -7.888042e-05 -9.622945e-05 -1.379302e-04 -1.648147e-04 -2.197125e-04 -2.606508e-04 -3.302935e-04 -3.852479e-04 -4.639471e-04 -5.242349e-04 -5.971686e-04 -6.460124e-04 -6.933798e-04 -7.123669e-04 -7.179371e-04 -6.954943e-04 -6.547378e-04 -5.925964e-04 -5.172750e-04 -4.326472e-04 -3.484714e-04 -2.677364e-04 -2.014879e-04 -1.450853e-04 -1.081968e-04 -7.924806e-05 -6.450891e-05 -5.324001e-05 -4.784448e-05 -4.379967e-05 -4.094831e-05 -3.649969e-05 -3.343563e-05 -1.948159e-05 -1.134085e-05 2.269825e-05 4.300976e-05 1.042286e-04 1.426981e-04 2.311660e-04 2.884940e-04 3.943185e-04 4.594789e-04 5.593555e-04 6.068955e-04 6.690465e-04 6.713074e-04 6.748049e-04 6.241549e-04 5.765366e-04 4.931648e-04 4.241724e-04 3.387074e-04 2.765399e-04 2.082239e-04 1.645890e-04 1.160275e-04 8.900192e-05 5.394796e-05 3.703672e-05 8.102553e-06 -4.536535e-06 -3.314544e-05 
-1.370523e-05 -3.520418e-05 -3.672809e-05 -6.013118e-05 -6.384068e-05 -8.960419e-05 -9.662423e-05 -1.254838e-04 -1.373757e-04 -1.694594e-04 -1.865396e-04 -2.196601e-04 -2.389929e-04 -2.674480e-04 -2.822260e-04 -2.977641e-04 -2.994001e-04 -2.949716e-04 -2.777113e-04 -2.525005e-04 -2.180022e-04 -1.797520e-04 -1.373733e-04 -9.862703e-05 -6.013077e-05 -3.095442e-05 -4.310993e-06 1.166931e-05 2.446149e-05 2.838882e-05 3.040851e-05 2.535110e-05 2.394843e-05 1.421319e-05 1.944135e-05 1.013851e-05 3.062939e-05 2.622584e-05 6.523509e-05 6.869417e-05 1.232627e-04 1.351752e-04 1.966742e-04 2.124964e-04 2.670597e-04 2.755139e-04 3.078627e-04 2.964427e-04 2.991510e-04 2.646574e-04 2.450052e-04 1.973309e-04 1.721100e-04 1.258114e-04 1.085187e-04 7.206981e-05 6.597270e-05 3.933562e-05 4.048399e-05 1.949673e-05 2.278185e-05 3.473949e-06 5.813535e-06 -1.412159e-05 
-2.227363e-05 -3.973091e-05 -3.475781e-05 -4.987664e-05 -4.351137e-05 -5.578496e-05 -4.796523e-05 -5.815760e-05 -5.098477e-05 -6.140586e-05 -5.834249e-05 -7.142922e-05 -7.474857e-05 -9.041422e-05 -9.844385e-05 -1.125287e-04 -1.193366e-04 -1.253576e-04 -1.240065e-04 -1.175939e-04 -1.048448e-04 -8.730081e-05 -6.594412e-05 -4.377852e-05 -2.086238e-05 -1.994450e-06 1.524265e-05 2.521824e-05 3.301502e-05 3.230865e-05 3.229983e-05 2.244167e-05 2.126447e-05 5.648121e-06 1.190388e-05 -5.967842e-06 1.381146e-05 -3.676375e-06 3.023984e-05 1.531184e-05 5.863920e-05 4.811986e-05 9.273459e-05 8.629610e-05 1.230683e-04 1.162377e-04 1.384123e-04 1.244365e-04 1.316384e-04 1.069949e-04 1.061234e-04 7.374665e-05 7.411562e-05 4.047470e-05 4.719027e-05 1.705060e-05 2.897730e-05 3.376618e-06 1.629813e-05 -5.964414e-06 4.596131e-06 -1.572880e-05 -8.421080e-06 -2.743816e-05 
1.588125e-07 -1.464619e-05 -5.371478e-06 -1.721273e-05 -7.742225e-06 -1.636938e-05 -6.022465e-06 -1.223489e-05 -2.512740e-06 -8.607004e-06 -2.631516e-06 -1.134566e-05 -1.170538e-05 -2.390896e-05 -3.012536e-05 -4.320222e-05 -5.105796e-05 -5.991629e-05 -6.365991e-05 -6.401544e-05 -5.990021e-05 -5.125277e-05 -3.972008e-05 -2.578841e-05 -1.096698e-05 2.322448e-06 1.515260e-05 2.242744e-05 2.999310e-05 2.837517e-05 3.168669e-05 2.113764e-05 2.548077e-05 7.690572e-06 1.994827e-05 -3.129638e-06 2.161032e-05 -4.916348e-06 3.180653e-05 4.409979e-06 4.732905e-05 2.261512e-05 6.278108e-05 4.326117e-05 7.241827e-05 5.674692e-05 7.186347e-05 5.488566e-05 6.059297e-05 3.737101e-05 4.328967e-05 1.319555e-05 2.729031e-05 -6.073136e-06 1.754292e-05 -1.459683e-05 1.392695e-05 -1.433927e-05 1.289261e-05 -1.104621e-05 1.086045e-05 -9.450030e-06 6.341824e-06 -1.110349e-05 
-1.192497e-05 -2.629324e-05 -1.574932e-05 -2.543408e-05 -1.446940e-05 -2.004952e-05 -7.917221e-06 -1.063998e-05 1.332861e-06 -8.781208e-07 8.090469e-06 3.730976e-06 7.115366e-06 -5.547724e-07 -2.987823e-06 -1.230443e-05 -1.776952e-05 -2.491437e-05 -2.913396e-05 -3.059652e-05 -3.041134e-05 -2.536416e-05 -2.046517e-05 -1.136634e-05 -4.091266e-06 4.592803e-06 1.109539e-05 1.493796e-05 1.914537e-05 1.529241e-05 1.901817e-05 6.441669e-06 1.464142e-05 -6.660448e-06 1.181293e-05 -1.786214e-05 1.422227e-05 -2.253699e-05 2.140622e-05 -1.874817e-05 2.967481e-05 -7.592988e-06 3.481532e-05 6.352169e-06 3.474347e-05 1.586635e-05 3.071514e-05 1.515815e-05 2.615041e-05 4.703321e-06 2.363883e-05 -8.986589e-06 2.289682e-05 -1.905048e-05 2.171416e-05 -2.303193e-05 1.823942e-05 -2.285968e-05 1.205370e-05 -2.191670e-05 3.928546e-06 -2.242090e-05 -4.682562e-06 -2.445346e-05 
7.727491e-06 -6.247922e-06 5.292046e-06 -4.138128e-06 5.832738e-06 -3.196021e-07 9.367221e-06 5.183391e-06 1.403514e-05 1.005657e-05 1.629485e-05 1.077035e-05 1.274767e-05 5.105431e-06 2.751396e-06 -5.585830e-06 -1.032136e-05 -1.647271e-05 -2.062253e-05 -2.197895e-05 -2.324566e-05 -1.917013e-05 -1.705060e-05 -9.442267e-06 -5.112368e-06 2.321297e-06 7.228242e-06 1.037113e-05 1.546940e-05 1.100344e-05 1.843261e-05 4.210610e-06 1.859985e-05 -6.718918e-06 2.008139e-05 -1.699206e-05 2.561326e-05 -2.203098e-05 3.456138e-05 -1.859543e-05 4.308308e-05 -6.349945e-06 4.632769e-05 9.755952e-06 4.173829e-05 1.952120e-05 3.155419e-05 1.401235e-05 2.176386e-05 -5.473282e-06 1.732335e-05 -2.728915e-05 1.831222e-05 -3.976089e-05 2.105508e-05 -3.963500e-05 2.216477e-05 -3.121513e-05 2.053937e-05 -2.085475e-05 1.675685e-05 -1.286626e-05 1.202487e-05 -8.409745e-06 
-7.675337e-06 -2.120880e-05 -9.909939e-06 -1.758681e-05 -7.665096e-06 -1.181598e-05 -1.977165e-06 -4.318459e-06 5.013122e-06 2.848712e-06 1.020863e-05 6.848603e-06 1.081718e-05 5.873356e-06 6.122803e-06 6.898431e-07 -1.704117e-06 -5.477996e-06 -8.702212e-06 -8.869904e-06 -1.146057e-05 -7.525306e-06 -9.014371e-06 -2.405421e-06 -3.080509e-06 3.261762e-06 3.322040e-06 5.796774e-06 7.883963e-06 2.904408e-06 1.040753e-05 -5.439036e-06 1.276311e-05 -1.726668e-05 1.742186e-05 -2.941430e-05 2.532833e-05 -3.804619e-05 3.424352e-05 -3.919855e-05 3.889255e-05 -3.084231e-05 3.404135e-05 -1.670965e-05 1.998632e-05 -7.228930e-06 5.888278e-06 -1.157149e-05 4.066833e-06 -2.701719e-05 1.745740e-05 -4.150035e-05 3.520210e-05 -4.684274e-05 4.376245e-05 -4.380731e-05 3.899070e-05 -3.719388e-05 2.580228e-05 -3.087743e-05 1.112598e-05 -2.644047e-05 -5.904574e-07 -2.364448e-05 
1.263119e-05 -9.608954e-07 9.438232e-06 1.480885e-06 9.125322e-06 3.876625e-06 1.070974e-05 6.495635e-06 1.265833e-05 8.356195e-06 1.303229e-05 7.969116e-06 1.028114e-05 4.562632e-06 4.277569e-06 -9.934404e-07 -3.284427e-06 -6.357742e-06 -9.632872e-06 -8.985077e-06 -1.237063e-05 -7.627426e-06 -1.065787e-05 -3.100663e-06 -5.440706e-06 2.046158e-06 1.276295e-06 4.668389e-06 7.639208e-06 2.350458e-06 1.302666e-05 -5.691696e-06 1.849529e-05 -1.837010e-05 2.623367e-05 -3.276134e-05 3.786555e-05 -4.379960e-05 5.212491e-05 -4.425830e-05 6.360682e-05 -2.810750e-05 6.478672e-05 6.865279e-07 5.227238e-05 2.215496e-05 3.341426e-05 1.378991e-05 2.325659e-05 -2.277097e-05 2.985056e-05 -6.002467e-05 4.533625e-05 -7.463028e-05 5.509761e-05 -6.587841e-05 5.281354e-05 -4.615203e-05 4.217875e-05 -2.678107e-05 2.963183e-05 -1.296035e-05 1.932620e-05 -5.005453e-06 
-8.179392e-06 -1.945116e-05 -1.002580e-05 -1.505739e-05 -7.654754e-06 -1.036078e-05 -3.161549e-06 -5.356683e-06 1.721434e-06 -8.042300e-07 5.398223e-06 2.232396e-06 6.679711e-06 3.136168e-06 5.292818e-06 2.285519e-06 2.059225e-06 9.227280e-07 -1.556077e-06 3.755298e-07 -4.232975e-06 1.195828e-06 -5.322405e-06 2.808347e-06 -4.783634e-06 3.805071e-06 -2.738157e-06 2.539282e-06 8.966462e-07 -2.421374e-06 6.505951e-06 -1.208526e-05 1.485753e-05 -2.675722e-05 2.711971e-05 -4.524065e-05 4.374739e-05 -6.330182e-05 6.150281e-05 -7.249908e-05 7.098905e-05 -6.355519e-05 6.002287e-05 -3.830049e-05 2.653724e-05 -1.962811e-05 -7.847454e-06 -3.303664e-05 -9.068571e-06 -6.996121e-05 3.093821e-05 -9.545214e-05 7.853613e-05 -9.399734e-05 9.638166e-05 -7.636151e-05 8.004758e-05 -5.671735e-05 4.841746e-05 -4.143154e-05 1.946716e-05 -3.110998e-05 6.803055e-07 -2.434196e-05 
1.543140e-05 4.198182e-06 1.074019e-05 5.199026e-06 9.488666e-06 5.362652e-06 9.610939e-06 5.302998e-06 9.739548e-06 4.894450e-06 8.967349e-06 3.806136e-06 6.827943e-06 1.972013e-06 3.380223e-06 -1.785868e-07 -8.214119e-07 -1.844541e-06 -4.930947e-06 -2.241935e-06 -8.051235e-06 -1.032044e-06 -9.368233e-06 1.389457e-06 -8.211682e-06 3.791936e-06 -4.208448e-06 4.192930e-06 2.456418e-06 1.818131e-07 1.111848e-05 -1.043843e-05 2.165641e-05 -2.882806e-05 3.587335e-05 -5.408138e-05 5.678367e-05 -8.071848e-05 8.421489e-05 -9.435401e-05 1.097376e-04 -7.356813e-05 1.170911e-04 -1.296362e-05 9.460491e-05 4.430286e-05 5.648145e-05 3.048540e-05 4.137516e-05 -5.505574e-05 6.868476e-05 -1.323376e-04 1.113534e-04 -1.459532e-04 1.280555e-04 -1.113567e-04 1.106384e-04 -6.562766e-05 7.758609e-05 -3.022849e-05 4.708009e-05 -9.384573e-06 2.650789e-05 4.975718e-07 
-1.405694e-05 -1.929948e-05 -1.388268e-05 -1.475057e-05 -1.019938e-05 -1.131964e-05 -5.934166e-06 -8.361303e-06 -2.165947e-06 -5.539231e-06 8.624114e-07 -2.700190e-06 3.144707e-06 1.847241e-07 4.590179e-06 3.011994e-06 4.883063e-06 5.527252e-06 3.554298e-06 7.369861e-06 3.237558e-07 8.199715e-06 -4.352448e-06 7.843491e-06 -8.835258e-06 6.287219e-06 -1.050799e-05 3.254029e-06 -7.005521e-06 -2.610057e-06 2.325775e-06 -1.418192e-05 1.686092e-05 -3.503616e-05 3.760496e-05 -6.735031e-05 6.805329e-05 -1.079746e-04 1.073256e-04 -1.415166e-04 1.391667e-04 -1.390617e-04 1.308484e-04 -8.703164e-05 6.130533e-05 -3.787572e-05 -2.662042e-05 -7.625590e-05 -3.504516e-05 -1.773923e-04 6.824588e-05 -2.248530e-04 1.829341e-04 -1.927632e-04 2.072410e-04 -1.342096e-04 1.517530e-04 -8.633914e-05 7.758928e-05 -5.553319e-05 2.321069e-05 -3.710720e-05 -4.733909e-06 -2.610687e-05 
1.544305e-05 9.854048e-06 1.046073e-05 8.120894e-06 9.345596e-06 5.755118e-06 8.784572e-06 3.342347e-06 7.665404e-06 1.233598e-06 6.098291e-06 -1.260873e-07 4.572900e-06 -3.921682e-07 3.235773e-06 3.533025e-07 1.538584e-06 1.588421e-06 -1.443569e-06 2.777705e-06 -6.115223e-06 3.861077e-06 -1.145449e-05 5.246960e-06 -1.482175e-05 7.075968e-06 -1.302359e-05 8.033714e-06 -4.503893e-06 4.583904e-06 9.101757e-06 -8.241242e-06 2.516342e-05 -3.498986e-05 4.597749e-05 -7.924885e-05 8.079415e-05 -1.407550e-04 1.363215e-04 -1.988226e-04 2.016116e-04 -1.932094e-04 2.398212e-04 -6.699185e-05 2.069876e-04 9.739672e-05 1.197468e-04 7.789301e-05 8.634289e-05 -1.485137e-04 1.659635e-04 -3.181854e-04 2.734208e-04 -2.975517e-04 2.885672e-04 -1.858853e-04 2.186641e-04 -8.525808e-05 1.310916e-04 -2.583255e-05 6.648849e-05 6.204516e-07 3.084816e-05 9.054878e-06 
-2.604305e-05 -2.052506e-05 -1.956211e-05 -1.596136e-05 -1.268938e-05 -1.392748e-05 -8.197689e-06 -1.301414e-05 -5.629107e-06 -1.170926e-05 -3.322171e-06 -8.610796e-06 1.576725e-07 -3.111417e-06 4.897421e-06 4.016543e-06 9.196743e-06 1.080726e-05 1.023334e-05 1.512937e-05 5.667942e-06 1.588673e-05 -4.497679e-06 1.365729e-05 -1.666418e-05 1.038068e-05 -2.417430e-05 7.681749e-06 -2.089328e-05 3.928559e-06 -6.354439e-06 -7.579502e-06 1.443074e-05 -3.644690e-05 4.169985e-05 -9.218175e-05 9.001712e-05 -1.814789e-04 1.738578e-04 -2.885177e-04 2.733828e-04 -3.385191e-04 3.074643e-04 -2.380327e-04 1.755004e-04 -8.439732e-05 -6.311077e-05 -1.890417e-04 -1.120730e-04 -4.929052e-04 1.688378e-04 -5.584464e-04 4.554664e-04 -3.951249e-04 4.508108e-04 -2.281766e-04 2.711387e-04 -1.273802e-04 1.031859e-04 -7.391390e-05 1.037097e-05 -4.520941e-05 -2.277385e-05 -2.931402e-05 
1.189093e-05 1.405281e-05 1.003888e-05 9.117625e-06 1.077612e-05 4.603200e-06 9.891092e-06 2.105775e-07 7.124445e-06 -3.406981e-06 4.227047e-06 -4.805544e-06 3.171648e-06 -3.028687e-06 4.331870e-06 1.149071e-06 5.601229e-06 5.384491e-06 3.443244e-06 7.529139e-06 -4.536176e-06 7.527351e-06 -1.711172e-05 7.684083e-06 -2.860132e-05 1.078763e-05 -3.087979e-05 1.663250e-05 -1.898594e-05 1.887928e-05 2.744073e-06 6.704800e-06 2.405415e-05 -2.844700e-05 4.701384e-05 -9.641308e-05 9.820832e-05 -2.223695e-04 2.078123e-04 -4.109963e-04 3.717319e-04 -5.317639e-04 5.161314e-04 -3.131355e-04 4.933110e-04 1.871833e-04 2.679956e-04 1.962399e-04 1.810993e-04 -4.699330e-04 4.243778e-04 -8.306272e-04 7.135173e-04 -6.055875e-04 6.629023e-04 -2.812787e-04 4.190020e-04 -8.341016e-05 2.031717e-04 -2.014667e-06 8.001292e-05 1.939053e-05 2.763355e-05 1.910752e-05 
-4.164006e-05 -2.425692e-05 -2.255136e-05 -1.906501e-05 -1.122649e-05 -1.836567e-05 -7.560677e-06 -1.989608e-05 -7.926812e-06 -2.051745e-05 -7.584697e-06 -1.687411e-05 -2.800001e-06 -7.387182e-06 6.842620e-06 6.063963e-06 1.744961e-05 1.876068e-05 2.242450e-05 2.600505e-05 1.590726e-05 2.593494e-05 -3.613071e-06 2.059300e-05 -3.037738e-05 1.536757e-05 -5.085152e-05 1.593560e-05 -5.033176e-05 2.086149e-05 -2.794136e-05 1.527577e-05 -2.484931e-06 -2.101858e-05 1.775100e-05 -1.066271e-04 7.401637e-05 -2.841876e-04 2.316962e-04 -5.983456e-04 4.945224e-04 -9.239141e-04 6.918055e-04 -8.540074e-04 4.558827e-04 -3.527453e-04 -2.453244e-04 -5.905988e-04 -4.264680e-04 -1.570265e-03 4.765955e-04 -1.451599e-03 1.260598e-03 -7.632287e-04 1.001613e-03 -3.526374e-04 4.391117e-04 -1.794522e-04 8.626090e-05 -1.004731e-04 -4.235919e-05 -5.893042e-05 -5.919005e-05 -3.620649e-05 
6.469972e-06 1.068093e-05 1.310038e-05 5.159603e-06 1.731190e-05 8.818103e-07 1.557728e-05 -4.401639e-06 9.584574e-06 -9.400037e-06 3.906083e-06 -1.056679e-05 3.198749e-06 -5.518354e-06 8.385508e-06 3.767531e-06 1.461278e-05 1.154399e-05 1.368515e-05 1.299770e-05 -4.337989e-07 8.820542e-06 -2.692006e-05 5.415977e-06 -5.610102e-05 1.083093e-05 -7.139738e-05 2.744660e-05 -5.938788e-05 4.300910e-05 -2.782485e-05 3.272886e-05 -6.673483e-06 -1.109553e-05 1.392296e-07 -8.420881e-05 5.724226e-05 -2.863172e-04 2.496777e-04 -8.170477e-04 5.923215e-04 -1.591978e-03 9.439987e-04 -1.676903e-03 8.877689e-04 -2.379550e-04 1.540748e-04 2.354574e-04 2.599724e-04 -1.666186e-03 1.343641e-03 -2.168757e-03 2.187115e-03 -1.059390e-03 1.612190e-03 -2.867698e-04 7.759584e-04 -1.042468e-06 2.754163e-04 5.412698e-05 7.051846e-05 4.116115e-05 1.198785e-05 2.200751e-05 
-4.851435e-05 -3.320071e-05 -1.287873e-05 -2.478817e-05 9.766075e-07 -2.426827e-05 3.103534e-07 -2.845674e-05 -6.532898e-06 -3.164400e-05 -1.039476e-05 -2.692116e-05 -3.933264e-06 -1.088980e-05 1.367152e-05 1.231944e-05 3.473795e-05 3.303969e-05 4.679221e-05 4.305180e-05 3.849964e-05 4.036338e-05 3.883639e-06 2.864516e-05 -5.311685e-05 1.609090e-05 -1.121371e-04 1.461827e-05 -1.388842e-04 2.862798e-05 -1.178159e-04 3.102633e-05 -9.421601e-05 -1.492881e-05 -1.153100e-04 -1.089834e-04 -1.063383e-04 -3.900191e-04 9.794192e-05 -1.263069e-03 5.373514e-04 -2.987115e-03 7.761477e-04 -4.536097e-03 -3.762414e-04 -3.679140e-03 -2.953615e-03 -3.131155e-03 -1.893434e-03 -5.064001e-03 2.741402e-03 -2.835634e-03 4.633312e-03 -8.151185e-04 2.387393e-03 -3.699539e-04 5.761230e-04 -2.437435e-04 -6.993280e-05 -1.508537e-04 -1.619825e-04 -8.819021e-05 -1.078230e-04 -5.231354e-05 
8.554938e-06 -1.154909e-05 2.752732e-05 -7.411500e-06 3.539102e-05 -4.554813e-06 3.169306e-05 -7.342320e-06 2.061261e-05 -1.268749e-05 1.050275e-05 -1.289061e-05 1.025250e-05 -2.742839e-06 2.167765e-05 1.337569e-05 3.519200e-05 2.340771e-05 3.530006e-05 1.879274e-05 1.054530e-05 3.009029e-06 -4.184749e-05 -1.248449e-05 -1.156372e-04 -1.820970e-05 -1.929617e-04 -1.380768e-05 -2.439536e-04 -1.564612e-05 -2.531528e-04 -6.454904e-05 -2.609944e-04 -1.400563e-04 -2.869618e-04 -1.009795e-04 -2.514852e-04 -2.384232e-04 -5.161581e-05 -1.650597e-03 2.604462e-05 -5.859373e-03 -1.166899e-03 -1.213615e-02 -5.237991e-03 -1.197360e-02 -9.907925e-03 -4.579791e-03 6.209109e-04 -1.404110e-03 1.219962e-02 3.501158e-04 1.141495e-02 9.841982e-04 4.949009e-03 6.073364e-04 1.482591e-03 3.226127e-04 3.108665e-04 1.362767e-04 2.263838e-05 3.526601e-05 -1.065611e-05 -4.473677e-06 
-1.674565e-05 -5.141682e-05 2.584358e-05 -3.223668e-05 3.473579e-05 -2.674281e-05 2.531938e-05 -3.097440e-05 9.125785e-06 -3.574576e-05 -6.058022e-07 -2.876990e-05 7.674985e-06 -4.162373e-06 3.463100e-05 2.950482e-05 6.746175e-05 5.560500e-05 8.870578e-05 6.480512e-05 8.232468e-05 5.765529e-05 2.730445e-05 2.840373e-05 -1.072791e-04 -4.495241e-05 -3.398660e-04 -1.739479e-04 -6.128470e-04 -3.058172e-04 -7.731015e-04 -3.825816e-04 -7.711674e-04 -4.341801e-04 -7.635990e-04 -3.329362e-04 -9.005367e-04 -5.544260e-04 -1.145624e-03 -3.212483e-03 -2.574824e-03 -1.332764e-02 -1.002904e-02 -3.688778e-02 -3.110929e-02 -5.420105e-02 -4.967750e-02 -3.041319e-02 -2.448816e-03 1.043478e-02 5.372419e-02 2.797883e-02 3.607100e-02 1.056786e-02 9.230007e-03 1.592327e-03 8.898123e-04 -1.341778e-04 -4.060875e-04 -2.275477e-04 -3.066649e-04 -1.466341e-04 -1.204007e-04 -8.712262e-05 
4.147926e-05 -6.477732e-05 6.627220e-05 -2.720402e-05 7.702833e-05 -9.470415e-07 7.464506e-05 9.463401e-06 6.163880e-05 8.478741e-06 4.643033e-05 7.547971e-06 4.116946e-05 1.584554e-05 5.012927e-05 2.790177e-05 6.164384e-05 2.660764e-05 5.652896e-05 2.493800e-06 1.799191e-05 -3.849389e-05 -8.306768e-05 -1.099446e-04 -3.185204e-04 -2.882849e-04 -7.947910e-04 -6.776035e-04 -1.511526e-03 -1.228112e-03 -2.155697e-03 -1.684102e-03 -2.299157e-03 -1.754758e-03 -1.869190e-03 -8.862344e-04 -1.693664e-03 -3.408394e-04 -2.526569e-03 -5.194540e-03 -9.588637e-03 -3.183145e-02 -4.315046e-02 -1.155089e-01 -1.299727e-01 -1.976538e-01 -1.908211e-01 -9.232336e-02 3.727443e-02 1.559832e-01 2.634166e-01 1.717906e-01 1.332634e-01 5.307166e-02 3.086766e-02 1.076587e-02 5.198800e-03 1.953775e-03 6.444838e-04 2.658762e-04 2.772772e-05 -6.077079e-05 5.979853e-06 -9.560948e-05 
9.724540e-05 -8.172730e-05 1.111642e-04 -3.207146e-05 1.081706e-04 -3.236187e-06 9.612597e-05 6.840383e-06 7.704231e-05 4.777523e-06 5.698572e-05 2.376338e-06 4.581469e-05 7.901251e-06 4.777411e-05 1.651683e-05 6.129482e-05 2.055371e-05 8.700025e-05 2.465192e-05 1.078428e-04 1.958233e-05 2.177235e-05 -1.165986e-04 -4.509121e-04 -7.181919e-04 -1.762581e-03 -2.187905e-03 -4.070645e-03 -4.236965e-03 -6.251360e-03 -5.334606e-03 -6.255141e-03 -4.611021e-03 -4.181861e-03 -2.466434e-03 -4.006389e-03 -2.112813e-03 -8.246579e-03 -1.444580e-02 -3.387882e-02 -8.720374e-02 -1.556899e-01 -3.682009e-01 -4.933931e-01 -7.175691e-01 -7.043703e-01 -3.561165e-01 1.896228e-01 7.764723e-01 1.193793e+00 8.387499e-01 5.043621e-01 2.118831e-01 8.956015e-02 3.223815e-02 1.051808e-02 3.689230e-03 6.466368e-04 1.238651e-04 -5.024798e-05 -1.970878e-04 4.046626e-05 -1.496424e-04 
1.427231e-04 -1.428348e-04 1.459295e-04 -3.133704e-05 1.698393e-04 5.566127e-05 1.950248e-04 1.094473e-04 1.967502e-04 1.124066e-04 1.504126e-04 5.412873e-05 5.557726e-05 -4.595561e-05 -5.143022e-05 -1.433730e-04 -1.204064e-04 -2.054576e-04 -1.334223e-04 -2.418913e-04 -1.448453e-04 -3.214389e-04 -3.879410e-04 -7.638906e-04 -1.524126e-03 -2.448054e-03 -4.798580e-03 -6.643489e-03 -1.111183e-02 -1.312239e-02 -1.808053e-02 -1.729320e-02 -1.855140e-02 -1.424451e-02 -1.024949e-02 -6.483851e-03 -7.774719e-03 -4.304561e-03 -1.759731e-02 -3.356106e-02 -9.414500e-02 -2.339814e-01 -5.046726e-01 -1.150137e+00 -1.701073e+00 -2.261252e+00 -2.234744e+00 -1.048840e+00 1.028442e+00 3.584871e+00 5.017076e+00 3.505638e+00 1.926374e+00 8.194290e-01 3.344971e-01 1.254204e-01 4.572651e-02 1.630704e-02 5.874866e-03 1.601490e-03 8.556713e-04 -1.795255e-04 2.216676e-04 -2.583651e-04 
3.195616e-04 -1.114794e-04 2.526477e-04 1.453021e-05 2.638241e-04 1.222063e-04 2.959842e-04 1.841087e-04 2.832192e-04 1.425986e-04 1.496282e-04 -5.001514e-05 -1.267108e-04 -3.561271e-04 -4.506176e-04 -6.290938e-04 -6.308890e-04 -7.120896e-04 -5.402012e-04 -5.997813e-04 -3.145110e-04 -5.568791e-04 -6.054774e-04 -1.562854e-03 -3.214185e-03 -6.157369e-03 -1.178687e-02 -1.842168e-02 -2.998361e-02 -3.906701e-02 -5.213390e-02 -5.185574e-02 -5.127300e-02 -3.575147e-02 -2.125032e-02 -1.396283e-02 -1.578592e-02 -1.373949e-02 -4.470611e-02 -9.467757e-02 -2.672141e-01 -6.544614e-01 -1.542883e+00 -3.469130e+00 -5.496374e+00 -6.832690e+00 -7.871368e+00 -4.277725e+00 -5.200249e-02 8.557457e+00 1.826902e+01 1.291405e+01 6.603603e+00 2.763097e+00 1.050546e+00 3.865782e-01 1.355620e-01 4.728727e-02 1.715124e-02 5.095993e-03 2.618034e-03 2.008681e-04 6.577024e-04 -2.074898e-04 
3.652576e-04 -1.740555e-04 2.937601e-04 6.179686e-05 3.914587e-04 2.935215e-04 5.237622e-04 4.305975e-04 5.054761e-04 2.655378e-04 8.720799e-05 -3.945567e-04 -8.071945e-04 -1.414230e-03 -1.803110e-03 -2.215310e-03 -2.255308e-03 -2.311892e-03 -1.974687e-03 -1.959705e-03 -1.557088e-03 -2.065761e-03 -2.614142e-03 -5.044783e-03 -9.406857e-03 -1.727013e-02 -3.141639e-02 -5.056464e-02 -8.141935e-02 -1.129551e-01 -1.514778e-01 -1.585430e-01 -1.507795e-01 -9.712341e-02 -4.500872e-02 -3.006005e-02 -3.073325e-02 -3.038082e-02 -9.366871e-02 -2.308210e-01 -6.604356e-01 -1.699486e+00 -4.299339e+00 -9.974292e+00 -1.800915e+01 -2.495346e+01 -4.985237e+01 -3.185069e+01 1.983866e+01 3.981271e+01 5.206437e+01 3.961709e+01 2.046279e+01 8.599180e+00 3.244531e+00 1.160528e+00 4.078217e-01 1.361881e-01 4.956595e-02 1.448429e-02 6.595248e-03 9.195363e-04 1.136918e-03 -2.966831e-04 
6.660872e-04 -5.377580e-05 4.734385e-04 2.287201e-04 6.237199e-04 5.419849e-04 7.982019e-04 6.281196e-04 5.663489e-04 -1.528633e-05 -6.403197e-04 -1.817958e-03 -2.949477e-03 -4.375284e-03 -5.367879e-03 -6.171921e-03 -6.217757e-03 -5.954903e-03 -5.029332e-03 -4.495771e-03 -3.498308e-03 -4.289699e-03 -5.588886e-03 -1.130001e-02 -2.153585e-02 -4.164940e-02 -7.636907e-02 -1.298894e-01 -2.138993e-01 -3.182704e-01 -4.363353e-01 -4.684463e-01 -4.153102e-01 -2.197875e-01 -6.238839e-02 -4.640334e-02 -5.548162e-02 -6.350502e-02 -1.961929e-01 -5.360530e-01 -1.556488e+00 -4.193826e+00 -1.120996e+01 -2.759988e+01 -6.289710e+01 -7.315601e+01 -5.804495e+01 -1.156763e+01 3.897589e+01 3.418192e+01 5.682083e+01 8.327764e+01 5.050930e+01 2.176962e+01 8.350689e+00 3.001986e+00 1.049839e+00 3.509410e-01 1.248738e-01 3.860730e-02 1.591353e-02 3.688309e-03 2.496077e-03 5.774207e-05 
8.914062e-04 6.667438e-05 6.075403e-04 4.602613e-04 9.457477e-04 9.750539e-04 1.239782e-03 9.537978e-04 4.770394e-04 -8.747129e-04 -2.765346e-03 -5.650316e-03 -8.788357e-03 -1.221453e-02 -1.466279e-02 -1.616254e-02 -1.578762e-02 -1.443638e-02 -1.205737e-02 -1.040145e-02 -8.796571e-03 -1.063266e-02 -1.496706e-02 -2.846645e-02 -5.381396e-02 -1.026212e-01 -1.884405e-01 -3.284009e-01 -5.559096e-01 -8.756226e-01 -1.242958e+00 -1.345530e+00 -1.143375e+00 -4.571455e-01 1.853579e-02 -4.287723e-02 -8.899865e-02 -1.078254e-01 -3.576327e-01 -1.100602e+00 -3.197995e+00 -9.102254e+00 -2.487214e+01 -6.477032e+01 -6.789128e+01 -1.348526e+01 1.472369e+01 2.338736e+01 8.373766e+00 -1.473175e+01 1.430329e+01 1.067503e+02 1.035092e+02 4.171065e+01 1.711543e+01 6.415042e+00 2.313689e+00 7.862082e-01 2.776369e-01 8.895854e-02 3.366654e-02 9.399959e-03 4.533707e-03 6.783863e-04 
1.458912e-03 4.083254e-04 9.405174e-04 9.095320e-04 1.480183e-03 1.557569e-03 1.643284e-03 8.090280e-04 -7.942825e-04 -4.134277e-03 -8.858850e-03 -1.557590e-02 -2.281167e-02 -3.029432e-02 -3.536148e-02 -3.782136e-02 -3.604849e-02 -3.158054e-02 -2.544366e-02 -2.072789e-02 -1.725186e-02 -2.085894e-02 -3.086319e-02 -6.057300e-02 -1.169427e-01 -2.290007e-01 -4.276293e-01 -7.743288e-01 -1.365007e+00 -2.299966e+00 -3.483604e+00 -3.638277e+00 -2.752795e+00 -5.207292e-01 7.717098e-01 2.075972e-01 -3.770654e-02 -1.062469e-01 -5.801781e-01 -1.920624e+00 -5.610817e+00 -1.630578e+01 -4.361709e+01 -1.065111e+02 -7.063553e+01 2.106073e+01 2.965895e+01 -8.614430e+00 -2.074762e+01 2.412824e+01 -2.303107e+01 4.373679e+01 1.223722e+02 5.688576e+01 2.632098e+01 1.094437e+01 4.219121e+00 1.516844e+00 5.464967e-01 1.831724e-01 6.718303e-02 2.077879e-02 8.604000e-03 2.066598e-03 