# vtk DataFile Version 2.0
Comment goes here
ASCII

DATASET STRUCTURED_POINTS
DIMENSIONS    64   64   1

ORIGIN    0.000   0.000   0.000
SPACING   0.0156250.015625   1.000

POINT_DATA   4096
SCALARS Omega double
LOOKUP_TABLE default

1.779417e-05 -5.091597e-05 -2.033369e-04 -4.137496e-04 -7.273396e-04 -1.148148e-03 -1.562144e-03 -1.919306e-03 -1.900380e-03 -1.261568e-03 -1.704732e-04 1.783741e-03 2.634341e-03 3.626937e-03 2.358504e-03 1.132646e-03 -6.020855e-05 -3.614326e-03 -3.142612e-03 -5.356643e-03 -2.639534e-03 -2.543783e-03 -3.505521e-04 4.073684e-04 1.905877e-03 3.071999e-03 6.703182e-03 6.958293e-03 1.295303e-02 1.051294e-02 1.547198e-02 1.125144e-02 1.088692e-02 6.929268e-03 4.169326e-03 3.164610e-03 2.147713e-03 2.064141e-03 1.864387e-03 2.123032e-03 2.821713e-03 5.005458e-03 7.384087e-03 1.230796e-02 1.698867e-02 2.418890e-02 3.072826e-02 3.336166e-02 3.076452e-02 2.116778e-02 1.227215e-02 5.109837e-03 2.502118e-03 1.625616e-03 1.427040e-03 1.558272e-03 1.103085e-03 1.063317e-03 6.147330e-04 5.442957e-04 2.866267e-04 2.465700e-04 1.268859e-04 1.014206e-04 
-1.200617e-04 -1.763022e-04 -3.162788e-04 -4.468855e-04 -6.357742e-04 -8.411589e-04 -9.586952e-04 -1.045056e-03 -7.521210e-04 -2.893430e-04 5.617356e-04 1.536971e-03 1.888394e-03 2.258978e-03 1.013877e-03 5.722696e-04 -6.940326e-04 -1.441974e-03 -1.269806e-03 -2.287985e-03 -8.048297e-04 -1.613661e-03 -5.855630e-04 -9.428059e-04 -3.408006e-04 -2.762414e-05 1.809898e-03 2.250981e-03 5.486538e-03 4.897004e-03 7.298744e-03 5.318535e-03 5.088682e-03 2.778731e-03 1.725175e-03 1.126943e-03 8.156147e-04 9.408921e-04 8.474890e-04 9.661284e-04 1.010155e-03 1.642669e-03 2.145418e-03 3.882119e-03 5.451395e-03 8.216307e-03 1.062081e-02 1.129875e-02 1.043975e-02 6.362505e-03 3.500037e-03 5.189918e-04 2.805989e-05 -1.517484e-04 1.512297e-04 4.911143e-04 4.369054e-04 5.729101e-04 3.451637e-04 3.531482e-04 1.601585e-04 1.391851e-04 1.228479e-05 -1.396248e-05 
-2.168040e-05 -7.589021e-05 -1.725850e-04 -2.901808e-04 -4.088492e-04 -5.674814e-04 -6.480256e-04 -6.970507e-04 -5.749360e-04 -2.448585e-04 1.623490e-04 8.654665e-04 1.160898e-03 1.598502e-03 1.339418e-03 1.040964e-03 6.950912e-04 -2.087527e-04 -9.779281e-05 -7.953715e-04 -2.683509e-04 -4.446032e-04 -6.574297e-05 5.685860e-05 3.842238e-04 5.367850e-04 1.535851e-03 1.226236e-03 2.909890e-03 1.662620e-03 2.931655e-03 1.201742e-03 1.311060e-03 2.600564e-04 3.112202e-05 1.146777e-04 1.108494e-04 3.759455e-04 3.521907e-04 4.263654e-04 3.578130e-04 5.453443e-04 5.942496e-04 1.187231e-03 1.706863e-03 2.621212e-03 3.496356e-03 3.482730e-03 3.182830e-03 1.526591e-03 5.804968e-04 -5.054736e-04 -5.190309e-04 -4.325162e-04 -1.599922e-04 1.634080e-04 1.882189e-04 3.757761e-04 2.395443e-04 3.126069e-04 1.651273e-04 1.856893e-04 7.614559e-05 6.523744e-05 
-8.588120e-05 -1.185103e-04 -1.891162e-04 -2.505607e-04 -2.961678e-04 -3.600306e-04 -3.239028e-04 -3.085345e-04 -1.237194e-04 6.278476e-05 3.196085e-04 6.038991e-04 5.935213e-04 7.150988e-04 2.547474e-04 1.702426e-04 -2.777297e-04 -4.584445e-04 -4.424266e-04 -7.095710e-04 -3.372532e-04 -5.966978e-04 -2.986460e-04 -4.154868e-04 -1.813356e-04 -1.421418e-04 4.106937e-04 3.668109e-04 1.242512e-03 7.861574e-04 1.413987e-03 5.999166e-04 6.862413e-04 5.612877e-05 1.459086e-05 -5.447618e-05 -5.726117e-06 1.208655e-04 1.307522e-04 1.891319e-04 1.285228e-04 2.025988e-04 1.639587e-04 4.158385e-04 6.054366e-04 9.750555e-04 1.334275e-03 1.211314e-03 1.162233e-03 3.098320e-04 7.585888e-05 -5.285729e-04 -4.030836e-04 -4.078281e-04 -1.974648e-04 -1.462962e-06 4.565114e-05 1.938790e-04 1.146340e-04 1.851741e-04 7.422496e-05 9.748460e-05 3.066073e-08 -5.007966e-06 
-3.134747e-05 -5.985886e-05 -1.139547e-04 -1.673824e-04 -2.055015e-04 -2.551826e-04 -2.491128e-04 -2.309124e-04 -1.463924e-04 -6.632557e-07 1.325162e-04 3.501633e-04 3.926535e-04 4.903131e-04 3.606626e-04 2.303051e-04 8.510729e-05 -1.807380e-04 -1.756810e-04 -3.599606e-04 -2.359772e-04 -2.403466e-04 -1.232748e-04 -1.440715e-05 1.367851e-04 1.905778e-04 5.380859e-04 3.208164e-04 8.315472e-04 2.506206e-04 6.400605e-04 -4.885585e-05 8.215772e-05 -2.844897e-04 -2.364460e-04 -1.935522e-04 -1.363392e-04 7.380806e-06 2.354956e-05 9.327964e-05 6.215598e-05 1.033513e-04 8.275229e-05 1.740813e-04 2.657909e-04 3.594531e-04 5.239816e-04 3.698166e-04 3.718796e-04 -5.849260e-05 -1.241659e-04 -4.076065e-04 -3.219175e-04 -3.025536e-04 -1.787054e-04 -3.397023e-05 -1.114697e-06 1.270812e-04 7.569847e-05 1.527620e-04 7.176433e-05 1.065449e-04 3.042420e-05 3.240785e-05 
-5.396213e-05 -6.617481e-05 -9.850937e-05 -1.217927e-04 -1.229851e-04 -1.377409e-04 -8.971236e-05 -6.509842e-05 3.108372e-05 1.102897e-04 1.907277e-04 2.836903e-04 2.338530e-04 2.686495e-04 6.553161e-05 3.448940e-05 -1.640653e-04 -2.236281e-04 -2.662215e-04 -3.369026e-04 -2.451473e-04 -2.982119e-04 -1.830363e-04 -1.856319e-04 -5.577831e-05 -3.237632e-05 1.879827e-04 1.350534e-04 4.246153e-04 2.040430e-04 4.167842e-04 9.054683e-05 1.667641e-04 -6.992607e-05 -3.931851e-05 -8.687035e-05 -5.236214e-05 -9.722384e-06 5.021243e-06 4.269169e-05 3.009169e-05 6.356921e-05 5.722074e-05 1.166674e-04 1.716424e-04 2.144353e-04 3.091769e-04 1.951554e-04 2.298143e-04 -4.687879e-05 -3.404819e-05 -2.486913e-04 -1.739182e-04 -2.087900e-04 -1.250083e-04 -5.287277e-05 -2.769302e-05 5.809899e-05 2.360666e-05 8.360306e-05 2.185102e-05 5.258101e-05 -9.891544e-06 -3.028749e-06 
-2.861570e-05 -3.860623e-05 -6.774562e-05 -8.763513e-05 -9.853380e-05 -1.102576e-04 -9.335413e-05 -7.230730e-05 -2.619765e-05 3.768889e-05 8.615390e-05 1.599665e-04 1.600470e-04 1.808883e-04 1.153609e-04 5.855855e-05 -1.887549e-05 -1.077865e-04 -1.383000e-04 -1.839542e-04 -1.655652e-04 -1.349745e-04 -9.231179e-05 -2.044743e-05 5.854496e-05 8.699966e-05 2.340631e-04 1.308993e-04 3.209277e-04 7.161957e-05 2.226057e-04 -6.171875e-05 1.336698e-05 -1.523504e-04 -1.149121e-04 -1.256313e-04 -9.865910e-05 -4.376651e-05 -3.201480e-05 1.387357e-05 1.204598e-05 4.046712e-05 4.660791e-05 6.851050e-05 1.088443e-04 9.956407e-05 1.584105e-04 6.132579e-05 9.121273e-05 -7.570783e-05 -5.857524e-05 -1.804811e-04 -1.366073e-04 -1.523065e-04 -1.043616e-04 -4.952485e-05 -3.497355e-05 3.463140e-05 1.077145e-05 6.487894e-05 2.028965e-05 5.112997e-05 3.626936e-06 1.217345e-05 
-3.175448e-05 -3.239553e-05 -4.680444e-05 -5.238015e-05 -4.496902e-05 -4.477781e-05 -1.247781e-05 4.666200e-06 5.088982e-05 8.591482e-05 1.122758e-04 1.475896e-04 1.139743e-04 1.267860e-04 3.283603e-05 2.088681e-05 -7.692031e-05 -9.863678e-05 -1.431128e-04 -1.610173e-04 -1.467491e-04 -1.496493e-04 -1.034440e-04 -8.795177e-05 -1.831993e-05 -4.381557e-06 9.706615e-05 6.828816e-05 1.846461e-04 8.731010e-05 1.753145e-04 3.972594e-05 8.223025e-05 -2.225448e-05 -2.847444e-06 -3.881316e-05 -2.451996e-05 -1.497439e-05 -6.505661e-06 1.418867e-05 1.699765e-05 3.739875e-05 4.638135e-05 6.393390e-05 9.318461e-05 8.568262e-05 1.271127e-04 5.880640e-05 8.980239e-05 -2.848463e-05 -2.588215e-06 -1.015494e-04 -6.554205e-05 -9.776881e-05 -6.451922e-05 -4.145640e-05 -3.197961e-05 1.162578e-05 -6.445333e-06 3.287244e-05 -1.569664e-06 2.393083e-05 -1.313876e-05 -2.265541e-06 
-2.256099e-05 -2.268600e-05 -3.867831e-05 -4.327877e-05 -4.643114e-05 -4.625576e-05 -3.429985e-05 -2.045491e-05 2.359901e-06 2.991199e-05 4.845519e-05 7.464274e-05 6.937007e-05 7.324212e-05 3.951076e-05 1.656858e-05 -2.640966e-05 -5.557213e-05 -8.399464e-05 -9.086339e-05 -9.628242e-05 -7.072374e-05 -5.480894e-05 -1.602467e-05 2.428935e-05 3.705952e-05 1.047663e-04 5.682861e-05 1.374466e-04 2.904402e-05 9.498803e-05 -2.791806e-05 1.020033e-05 -6.934283e-05 -4.998455e-05 -6.718131e-05 -5.589021e-05 -3.609730e-05 -2.981233e-05 -3.922290e-06 5.102949e-07 1.891979e-05 2.941131e-05 3.521778e-05 5.836235e-05 3.985787e-05 6.961940e-05 1.422958e-05 3.815752e-05 -4.032362e-05 -2.062129e-05 -8.203972e-05 -5.917458e-05 -7.703424e-05 -5.717123e-05 -3.765629e-05 -3.266205e-05 2.644595e-06 -1.050473e-05 2.284698e-05 -2.355587e-06 2.041740e-05 -8.060132e-06 2.169904e-06 
-1.818705e-05 -1.382974e-05 -2.067793e-05 -1.899805e-05 -1.290718e-05 -8.806027e-06 9.186653e-06 1.968514e-05 4.102492e-05 5.694993e-05 6.530400e-05 7.955762e-05 5.993796e-05 6.493752e-05 1.901071e-05 1.451258e-05 -3.602319e-05 -4.333810e-05 -7.458490e-05 -7.746382e-05 -8.119276e-05 -7.558728e-05 -5.672590e-05 -4.487475e-05 -8.508733e-06 -1.784160e-06 4.825519e-05 3.360442e-05 8.655197e-05 4.331768e-05 8.374849e-05 2.530447e-05 4.712899e-05 -5.593217e-07 9.238583e-06 -1.185719e-05 -6.314926e-06 -5.282255e-06 -1.196580e-06 9.183503e-06 1.360301e-05 2.419067e-05 3.317562e-05 3.709905e-05 5.422434e-05 4.096804e-05 6.319557e-05 2.363830e-05 4.446655e-05 -1.314325e-05 5.799170e-06 -4.405192e-05 -2.511410e-05 -4.701961e-05 -3.258438e-05 -2.653502e-05 -2.366742e-05 -2.430332e-06 -1.298169e-05 1.050823e-05 -9.021900e-06 9.236736e-06 -1.219214e-05 -1.482328e-06 
-1.670946e-05 -1.264647e-05 -2.203486e-05 -2.039138e-05 -2.194849e-05 -1.853542e-05 -1.214649e-05 -3.919604e-06 6.747340e-06 1.862595e-05 2.575037e-05 3.507600e-05 3.048556e-05 3.060774e-05 1.266501e-05 3.935852e-06 -1.986095e-05 -2.826083e-05 -4.725661e-05 -4.462201e-05 -5.212936e-05 -3.625103e-05 -3.005070e-05 -1.109703e-05 9.399533e-06 1.397175e-05 4.661381e-05 2.349215e-05 6.030141e-05 1.169963e-05 4.195122e-05 -1.280647e-05 5.616171e-06 -3.222624e-05 -2.309728e-05 -3.453674e-05 -2.994260e-05 -2.232129e-05 -1.915321e-05 -5.511191e-06 -1.252121e-06 8.871348e-06 1.724921e-05 1.772411e-05 3.179698e-05 1.710944e-05 3.438426e-05 2.533102e-06 1.879995e-05 -2.190224e-05 -7.598818e-06 -4.062538e-05 -2.769079e-05 -4.098522e-05 -3.189578e-05 -2.556523e-05 -2.436868e-05 -6.779812e-06 -1.480606e-05 4.839051e-06 -9.917496e-06 5.791426e-06 -1.125858e-05 -1.749135e-06 
-1.042008e-05 -4.611828e-06 -8.564841e-06 -4.406245e-06 -1.202547e-06 3.452369e-06 1.235350e-05 1.883658e-05 2.827590e-05 3.581240e-05 3.798146e-05 4.383341e-05 3.263656e-05 3.441913e-05 1.091728e-05 9.139538e-06 -1.768265e-05 -1.983370e-05 -3.912719e-05 -3.833924e-05 -4.410009e-05 -3.920488e-05 -3.123551e-05 -2.449805e-05 -5.456880e-06 -2.553747e-06 2.323843e-05 1.596425e-05 4.198728e-05 2.268755e-05 4.231399e-05 1.684734e-05 2.760785e-05 6.157734e-06 1.051832e-05 -1.138005e-07 1.659848e-06 1.276265e-06 2.956811e-06 7.717680e-06 1.093540e-05 1.532492e-05 2.174850e-05 2.076955e-05 3.125364e-05 2.013548e-05 3.333511e-05 1.008958e-05 2.352744e-05 -6.808251e-06 5.616365e-06 -2.090750e-05 -1.018631e-05 -2.386371e-05 -1.695410e-05 -1.628982e-05 -1.576581e-05 -5.455387e-06 -1.192825e-05 1.747110e-06 -9.613921e-06 2.795817e-06 -9.717418e-06 -6.604469e-07 
-1.203647e-05 -6.689990e-06 -1.284033e-05 -8.988705e-06 -1.060975e-05 -6.610889e-06 -3.956105e-06 1.108485e-06 5.748587e-06 1.107279e-05 1.371525e-05 1.699375e-05 1.390489e-05 1.336786e-05 3.765779e-06 5.796716e-07 -1.238511e-05 -1.412253e-05 -2.535738e-05 -2.179984e-05 -2.714220e-05 -1.845182e-05 -1.589572e-05 -7.278974e-06 3.136979e-06 4.149888e-06 2.020093e-05 8.728041e-06 2.605035e-05 3.939726e-06 1.787980e-05 -6.533977e-06 1.855250e-06 -1.538422e-05 -1.151889e-05 -1.722872e-05 -1.547747e-05 -1.204970e-05 -1.029705e-05 -3.537251e-06 -1.741292e-07 4.366440e-06 1.054655e-05 8.764886e-06 1.798565e-05 7.376654e-06 1.835573e-05 -6.875833e-07 1.014110e-05 -1.253094e-05 -2.989699e-06 -2.168107e-05 -1.406911e-05 -2.300071e-05 -1.855601e-05 -1.691197e-05 -1.710911e-05 -8.193732e-06 -1.343287e-05 -1.814904e-06 -1.086583e-05 -1.401789e-07 -1.066742e-05 -2.612891e-06 
-6.090967e-06 -3.749102e-07 -3.364467e-06 1.259325e-06 2.107139e-06 6.356722e-06 1.004596e-05 1.427702e-05 1.800889e-05 2.181045e-05 2.181107e-05 2.425398e-05 1.779590e-05 1.835052e-05 5.885397e-06 5.205037e-06 -9.340266e-06 -9.682915e-06 -2.107973e-05 -1.972268e-05 -2.422762e-05 -2.104238e-05 -1.762266e-05 -1.408030e-05 -4.054103e-06 -2.777842e-06 1.086042e-05 7.476475e-06 2.083411e-05 1.246270e-05 2.223755e-05 1.143785e-05 1.651361e-05 7.321499e-06 8.898119e-06 4.099318e-06 4.296503e-06 3.844176e-06 4.431098e-06 6.084795e-06 8.246555e-06 9.051579e-06 1.353735e-05 1.071996e-05 1.763295e-05 9.195016e-06 1.772562e-05 3.594035e-06 1.243149e-05 -4.478352e-06 3.568759e-06 -1.111589e-05 -4.765774e-06 -1.301000e-05 -9.462058e-06 -1.009483e-05 -1.034020e-05 -5.100053e-06 -9.236534e-06 -1.087421e-06 -7.981830e-06 4.728861e-07 -7.169843e-06 9.226123e-08 
-8.546119e-06 -3.125472e-06 -7.729346e-06 -3.309302e-06 -5.315932e-06 -1.442859e-06 -9.901687e-07 2.492814e-06 4.171494e-06 6.855865e-06 7.730945e-06 8.923835e-06 7.125082e-06 6.660670e-06 1.660598e-06 5.584431e-07 -6.333770e-06 -6.235663e-06 -1.255251e-05 -9.994604e-06 -1.338099e-05 -8.995034e-06 -8.152238e-06 -4.511510e-06 4.541855e-07 2.500954e-07 7.875306e-06 2.240068e-06 1.020285e-05 3.869074e-07 6.568162e-06 -3.813680e-06 -2.608416e-07 -7.402125e-06 -5.863920e-06 -8.066516e-06 -7.198176e-06 -5.541682e-06 -4.056969e-06 -1.298123e-06 1.710146e-06 2.647001e-06 7.612041e-06 4.544616e-06 1.126446e-05 3.250292e-06 1.085786e-05 -1.271743e-06 6.091716e-06 -7.363400e-06 -1.134620e-06 -1.215133e-05 -7.681948e-06 -1.339651e-05 -1.130111e-05 -1.104597e-05 -1.184576e-05 -6.975109e-06 -1.070303e-05 -3.462322e-06 -9.431824e-06 -1.851809e-06 -8.796485e-06 -2.113552e-06 
-3.641570e-06 1.492204e-06 -1.278672e-06 3.036112e-06 2.293394e-06 5.874407e-06 6.655682e-06 9.542358e-06 1.043809e-05 1.252301e-05 1.167792e-05 1.284114e-05 8.889861e-06 9.286895e-06 2.297923e-06 2.495854e-06 -5.799480e-06 -5.075939e-06 -1.205927e-05 -1.041514e-05 -1.383487e-05 -1.153037e-05 -1.042274e-05 -8.331394e-06 -3.267943e-06 -2.507062e-06 4.708916e-06 3.356160e-06 1.041189e-05 7.045664e-06 1.210279e-05 7.816443e-06 1.027518e-05 6.569625e-06 7.086567e-06 4.928458e-06 4.771455e-06 4.032781e-06 4.401519e-06 4.035306e-06 5.753459e-06 4.364060e-06 7.811146e-06 4.172878e-06 9.221001e-06 2.705755e-06 8.720447e-06 -2.588912e-07 5.816989e-06 -3.974455e-06 1.314076e-06 -6.917013e-06 -3.097120e-06 -7.793224e-06 -6.002728e-06 -6.476917e-06 -7.065659e-06 -3.967711e-06 -6.846784e-06 -1.555419e-06 -6.077162e-06 3.424907e-10 -5.079313e-06 7.760210e-07 
-5.945863e-06 -7.832804e-07 -4.715401e-06 -3.001550e-07 -2.701718e-06 9.072276e-07 7.897129e-08 2.797128e-06 2.981018e-06 4.671300e-06 4.842267e-06 5.473652e-06 4.586063e-06 4.478197e-06 2.034036e-06 1.914101e-06 -1.709538e-06 -1.046737e-06 -4.762527e-06 -3.033774e-06 -5.590857e-06 -3.372471e-06 -3.937411e-06 -2.436577e-06 -9.321136e-07 -1.279401e-06 1.621700e-06 -8.911492e-07 2.332642e-06 -1.570416e-06 1.058193e-06 -2.768198e-06 -1.045667e-06 -3.502741e-06 -2.337444e-06 -3.062957e-06 -1.758431e-06 -1.466501e-06 6.474983e-07 6.238628e-07 3.963394e-06 2.307213e-06 6.924792e-06 2.803565e-06 8.338685e-06 1.682607e-06 7.435111e-06 -9.175310e-07 4.258621e-06 -4.158114e-06 -1.805347e-07 -6.768386e-06 -4.368636e-06 -7.741541e-06 -7.140987e-06 -6.928671e-06 -8.222876e-06 -5.022437e-06 -8.096173e-06 -3.020151e-06 -7.459710e-06 -1.638236e-06 -6.747065e-06 -1.020104e-06 
-2.119038e-06 2.454621e-06 -3.865011e-07 3.374519e-06 1.599428e-06 4.397787e-06 3.516628e-06 5.396165e-06 4.754153e-06 5.939516e-06 4.592887e-06 5.468778e-06 2.610331e-06 3.650008e-06 -9.051873e-07 6.977292e-07 -4.869237e-06 -2.584719e-06 -7.808621e-06 -5.112478e-06 -8.544997e-06 -5.993451e-06 -6.735534e-06 -4.917162e-06 -3.003273e-06 -2.294691e-06 1.351179e-06 9.093304e-07 4.919749e-06 3.607854e-06 6.803097e-06 5.082124e-06 6.950083e-06 5.229113e-06 6.007124e-06 4.420638e-06 4.816831e-06 3.152690e-06 3.961439e-06 1.787628e-06 3.605282e-06 4.942294e-07 3.562621e-06 -7.163660e-07 3.422951e-06 -1.932270e-06 2.722813e-06 -3.218630e-06 1.214486e-06 -4.447011e-06 -9.056984e-07 -5.257428e-06 -3.061060e-06 -5.273375e-06 -4.648115e-06 -4.393774e-06 -5.366495e-06 -2.879407e-06 -5.271357e-06 -1.178848e-06 -4.591598e-06 3.313873e-07 -3.519173e-06 1.510053e-06 
-3.895192e-06 1.132000e-06 -2.654537e-06 1.657950e-06 -1.165599e-06 2.184406e-06 5.032650e-07 2.805872e-06 2.118751e-06 3.483306e-06 3.312130e-06 4.056695e-06 3.733208e-06 4.326042e-06 3.254011e-06 4.145285e-06 2.075353e-06 3.469635e-06 6.319833e-07 2.347214e-06 -6.497408e-07 8.970151e-07 -1.556216e-06 -6.909660e-07 -2.101963e-06 -2.145666e-06 -2.372846e-06 -3.143683e-06 -2.354240e-06 -3.407072e-06 -1.895200e-06 -2.834844e-06 -8.298071e-07 -1.581505e-06 8.554481e-07 -1.679771e-08 2.944074e-06 1.418339e-06 5.047929e-06 2.373115e-06 6.734361e-06 2.671375e-06 7.624057e-06 2.291058e-06 7.436853e-06 1.301344e-06 6.049377e-06 -1.483281e-07 3.603516e-06 -1.775635e-06 5.733206e-07 -3.161512e-06 -2.353784e-06 -3.893297e-06 -4.565091e-06 -3.777427e-06 -5.772923e-06 -2.938669e-06 -6.050476e-06 -1.727364e-06 -5.671869e-06 -5.207303e-07 -4.906154e-06 4.446151e-07 
-9.240379e-07 3.428364e-06 3.329067e-07 3.546508e-06 1.023132e-06 2.893145e-06 9.410603e-07 1.737214e-06 7.717665e-08 5.384958e-07 -1.364736e-06 -2.572095e-07 -3.031600e-06 -4.813657e-07 -4.549552e-06 -3.765556e-07 -5.638659e-06 -4.339686e-07 -6.138692e-06 -9.986732e-07 -5.960349e-06 -1.951403e-06 -5.048417e-06 -2.736141e-06 -3.404841e-06 -2.709580e-06 -1.148896e-06 -1.562353e-06 1.426402e-06 4.409730e-07 3.847413e-06 2.533858e-06 5.559920e-06 3.805105e-06 6.137762e-06 3.646289e-06 5.481868e-06 2.024796e-06 3.867181e-06 -5.436865e-07 1.819164e-06 -3.246295e-06 -9.367597e-08 -5.306242e-06 -1.475338e-06 -6.288970e-06 -2.261049e-06 -6.254566e-06 -2.710410e-06 -5.630497e-06 -3.180672e-06 -4.859636e-06 -3.830321e-06 -4.104168e-06 -4.501998e-06 -3.237592e-06 -4.860307e-06 -2.068129e-06 -4.631230e-06 -5.621988e-07 -3.757812e-06 1.086264e-06 -2.413419e-06 2.533756e-06 
-2.072694e-06 3.276182e-06 -8.157118e-07 3.567828e-06 1.394989e-07 3.264690e-06 7.484949e-07 2.700320e-06 1.227691e-06 2.486953e-06 1.955639e-06 3.230318e-06 3.182611e-06 5.070843e-06 4.699855e-06 7.361413e-06 5.774064e-06 8.843239e-06 5.517897e-06 8.335722e-06 3.480137e-06 5.487215e-06 2.576666e-08 1.064263e-06 -3.716659e-06 -3.362990e-06 -6.274891e-06 -6.133034e-06 -6.463886e-06 -6.280910e-06 -3.994744e-06 -4.022587e-06 3.114196e-07 -6.025999e-07 4.948114e-06 2.448345e-06 8.520648e-06 4.118236e-06 1.032671e-05 4.255733e-06 1.041869e-05 3.382650e-06 9.312224e-06 2.248076e-06 7.614819e-06 1.389785e-06 5.726443e-06 8.933965e-07 3.732392e-06 4.930369e-07 1.567200e-06 -5.720128e-08 -6.999276e-07 -6.878403e-07 -2.752733e-06 -1.064753e-06 -4.181953e-06 -8.769824e-07 -4.723734e-06 -6.668797e-08 -4.379261e-06 1.146416e-06 -3.378964e-06 2.386769e-06 
3.966906e-07 5.243666e-06 1.614380e-06 4.505897e-06 1.224936e-06 1.924859e-06 -9.677934e-07 -1.757063e-06 -4.385700e-06 -5.012626e-06 -7.765463e-06 -6.168463e-06 -9.723168e-06 -4.454311e-06 -9.578433e-06 -7.484687e-07 -7.828733e-06 2.769983e-06 -5.781768e-06 4.006930e-06 -4.591404e-06 2.306203e-06 -4.500368e-06 -1.234661e-06 -4.772069e-06 -4.513184e-06 -4.207010e-06 -5.625414e-06 -1.943805e-06 -3.928951e-06 1.828222e-06 -4.630437e-07 5.761223e-06 2.632669e-06 8.095066e-06 3.428171e-06 7.730514e-06 1.286885e-06 4.777247e-06 -2.969500e-06 3.461546e-07 -7.638111e-06 -4.006968e-06 -1.093396e-05 -6.884010e-06 -1.175507e-05 -7.654499e-06 -1.021458e-05 -6.801977e-06 -7.522718e-06 -5.555174e-06 -5.099246e-06 -4.945744e-06 -3.601555e-06 -5.116396e-06 -2.703382e-06 -5.428916e-06 -1.650663e-06 -5.101196e-06 3.640031e-08 -3.774461e-06 2.225093e-06 -1.700355e-06 4.252616e-06 
-1.674874e-07 6.392767e-06 1.443030e-06 6.355969e-06 1.883930e-06 4.835726e-06 1.055851e-06 2.477468e-06 -2.321812e-07 8.347997e-07 -4.552936e-07 1.722273e-06 1.682662e-06 5.903307e-06 5.985842e-06 1.199912e-05 1.032248e-05 1.681000e-05 1.177589e-05 1.719197e-05 8.642742e-06 1.208913e-05 1.627618e-06 3.187247e-06 -6.455907e-06 -5.964562e-06 -1.196612e-05 -1.162470e-05 -1.210245e-05 -1.166012e-05 -6.437506e-06 -6.720570e-06 2.653105e-06 1.642789e-07 1.136155e-05 5.560386e-06 1.669864e-05 7.612235e-06 1.777716e-05 6.579386e-06 1.552923e-05 4.069762e-06 1.175162e-05 1.939828e-06 8.228135e-06 1.357208e-06 5.958280e-06 2.211973e-06 4.707950e-06 3.325850e-06 3.441290e-06 3.533960e-06 1.413780e-06 2.671825e-06 -1.155570e-06 1.532960e-06 -3.367648e-06 1.074875e-06 -4.378772e-06 1.743778e-06 -3.897243e-06 3.325055e-06 -2.245305e-06 5.151073e-06 
2.333750e-06 9.058254e-06 4.372678e-06 7.548977e-06 3.152762e-06 2.328242e-06 -1.822849e-06 -5.335880e-06 -9.331180e-06 -1.224241e-05 -1.642067e-05 -1.444619e-05 -1.968942e-05 -9.820035e-06 -1.752153e-05 -2.565581e-07 -1.154832e-05 8.917495e-06 -5.632518e-06 1.246237e-05 -3.035058e-06 8.645896e-06 -4.378578e-06 -1.250193e-07 -7.639700e-06 -9.071824e-06 -9.467134e-06 -1.355709e-05 -7.109255e-06 -1.146566e-05 -3.768819e-07 -4.590545e-06 7.768669e-06 2.363316e-06 1.309062e-05 4.979595e-06 1.295379e-05 1.796123e-06 7.555886e-06 -5.550367e-06 -8.674478e-07 -1.378483e-05 -9.220245e-06 -1.944221e-05 -1.446035e-05 -2.019049e-05 -1.492901e-05 -1.617859e-05 -1.164188e-05 -1.015483e-05 -7.700772e-06 -5.408131e-06 -5.773454e-06 -3.285122e-06 -6.183790e-06 -2.752958e-06 -7.294986e-06 -1.916201e-06 -7.212620e-06 3.616685e-07 -5.092652e-06 3.869384e-06 -1.427696e-06 7.338731e-06 
2.162961e-06 1.154005e-05 4.991984e-06 1.134616e-05 5.073941e-06 7.943745e-06 1.875126e-06 2.213087e-06 -3.015950e-06 -2.714067e-06 -5.867776e-06 -2.463362e-06 -2.866175e-06 5.501553e-06 6.384649e-06 1.872972e-05 1.711187e-05 3.008763e-05 2.217399e-05 3.235997e-05 1.739679e-05 2.319332e-05 4.266628e-06 6.138776e-06 -1.136538e-05 -1.163886e-05 -2.210350e-05 -2.255993e-05 -2.213749e-05 -2.210521e-05 -1.060789e-05 -1.171879e-05 7.038873e-06 1.774074e-06 2.241458e-05 1.108392e-05 2.988109e-05 1.314678e-05 2.896626e-05 9.527259e-06 2.254848e-05 3.937499e-06 1.448306e-05 9.034589e-08 8.408544e-06 2.647695e-07 6.347959e-06 3.916104e-06 7.190640e-06 7.823068e-06 7.604252e-06 8.911847e-06 5.266043e-06 6.938887e-06 7.329510e-07 4.066887e-06 -3.626470e-06 2.584622e-06 -5.727028e-06 3.409400e-06 -4.883570e-06 6.065432e-06 -1.752477e-06 9.291838e-06 
5.626464e-06 1.682407e-05 1.022470e-05 1.508036e-05 8.798289e-06 6.044414e-06 -2.605249e-07 -8.763929e-06 -1.521091e-05 -2.335199e-05 -3.008425e-05 -2.885478e-05 -3.692613e-05 -1.940858e-05 -3.138461e-05 1.482599e-06 -1.721364e-05 2.155517e-05 -3.927452e-06 2.883615e-05 9.327522e-07 2.001675e-05 -3.597856e-06 7.306315e-07 -1.291161e-05 -1.906487e-05 -1.965980e-05 -2.958054e-05 -1.719789e-05 -2.562797e-05 -4.272760e-06 -1.063460e-05 1.257755e-05 4.744928e-06 2.360611e-05 1.078341e-05 2.350521e-05 5.121240e-06 1.355201e-05 -8.303149e-06 -1.800025e-06 -2.341428e-05 -1.727544e-05 -3.394277e-05 -2.687194e-05 -3.483031e-05 -2.628833e-05 -2.582126e-05 -1.749602e-05 -1.317495e-05 -8.209824e-06 -4.612919e-06 -4.826682e-06 -2.585643e-06 -7.363318e-06 -3.804494e-06 -1.130088e-05 -3.731092e-06 -1.227369e-05 -1.758794e-07 -8.722841e-06 6.177298e-06 -1.826809e-06 1.287914e-05 
5.347162e-06 2.030436e-05 1.136157e-05 2.085103e-05 1.185653e-05 1.483305e-05 4.685569e-06 2.616442e-06 -7.960944e-06 -1.019375e-05 -1.798878e-05 -1.345179e-05 -1.510082e-05 6.401845e-07 3.898069e-06 2.837018e-05 2.865125e-05 5.372553e-05 4.191359e-05 6.015657e-05 3.428849e-05 4.315397e-05 9.672532e-06 1.064141e-05 -2.023038e-05 -2.355700e-05 -4.145958e-05 -4.469144e-05 -4.193129e-05 -4.272209e-05 -1.889364e-05 -2.030117e-05 1.556501e-05 6.723730e-06 4.251089e-05 2.238607e-05 5.166793e-05 2.248633e-05 4.556477e-05 1.280154e-05 3.153701e-05 1.089378e-06 1.620698e-05 -6.085953e-06 6.177910e-06 -4.004657e-06 6.153488e-06 6.298866e-06 1.307284e-05 1.644712e-05 1.747998e-05 1.853794e-05 1.345894e-05 1.296457e-05 3.458131e-06 5.917600e-06 -6.063350e-06 2.568657e-06 -1.045648e-05 4.176063e-06 -8.743712e-06 9.276786e-06 -2.527202e-06 1.551296e-05 
1.155718e-05 3.183266e-05 2.224159e-05 3.175611e-05 2.251618e-05 1.772439e-05 7.613762e-06 -1.014423e-05 -2.145024e-05 -4.174373e-05 -5.350089e-05 -5.715682e-05 -6.977533e-05 -3.966831e-05 -5.771025e-05 5.183661e-06 -2.544715e-05 4.827773e-05 3.245993e-06 6.197613e-05 1.174203e-05 4.169192e-05 9.614875e-08 1.388321e-06 -2.187332e-05 -3.962859e-05 -3.990495e-05 -6.219269e-05 -3.865517e-05 -5.342498e-05 -1.279852e-05 -1.938115e-05 2.282970e-05 1.444713e-05 4.471218e-05 2.611967e-05 4.309801e-05 1.402819e-05 2.458597e-05 -1.107805e-05 -2.073880e-06 -3.904755e-05 -3.042894e-05 -6.006513e-05 -4.930846e-05 -6.219422e-05 -4.610330e-05 -4.203408e-05 -2.377396e-05 -1.462055e-05 -2.645886e-06 4.416228e-07 1.595681e-06 -6.851687e-07 -8.324613e-06 -7.523979e-06 -1.973900e-05 -9.412510e-06 -2.315396e-05 -3.002544e-06 -1.663240e-05 9.203877e-06 -3.349167e-06 2.252331e-05 
9.922091e-06 3.483993e-05 2.338404e-05 3.901070e-05 2.713150e-05 3.072377e-05 1.417300e-05 6.796081e-06 -1.488888e-05 -2.455640e-05 -4.404677e-05 -4.033749e-05 -4.610271e-05 -1.713250e-05 -7.020844e-06 4.159405e-05 5.032782e-05 9.814625e-05 8.193468e-05 1.129140e-04 6.776132e-05 7.968869e-05 2.090760e-05 1.805901e-05 -3.578577e-05 -4.735719e-05 -7.896719e-05 -8.974358e-05 -8.289569e-05 -8.456976e-05 -3.628338e-05 -3.426299e-05 3.375137e-05 2.187048e-05 8.077545e-05 4.646667e-05 8.679710e-05 3.756775e-05 6.778359e-05 1.454264e-05 4.118937e-05 -8.472292e-06 1.380904e-05 -2.278810e-05 -3.748610e-06 -1.694037e-05 2.932302e-06 1.007062e-05 2.734838e-05 3.558786e-05 4.178909e-05 3.781074e-05 3.162866e-05 2.135052e-05 7.250106e-06 4.472474e-06 -1.373811e-05 -1.860814e-06 -2.214685e-05 2.289055e-06 -1.812751e-05 1.240269e-05 -5.820503e-06 2.440077e-05 
2.233808e-05 5.908191e-05 4.597252e-05 6.614170e-05 5.345799e-05 4.816723e-05 3.201769e-05 -2.254767e-06 -2.350127e-05 -7.189333e-05 -9.481888e-05 -1.164466e-04 -1.371036e-04 -8.671164e-05 -1.118900e-04 1.233698e-05 -3.628592e-05 1.067500e-04 2.546405e-05 1.297751e-04 3.803492e-05 8.255419e-05 1.135241e-05 2.074852e-06 -3.519978e-05 -7.948893e-05 -7.951092e-05 -1.289025e-04 -8.620073e-05 -1.107064e-04 -3.287802e-05 -3.103032e-05 4.567682e-05 4.391854e-05 8.697157e-05 6.161354e-05 7.566309e-05 3.186103e-05 4.126923e-05 -1.340584e-05 3.234073e-07 -6.273683e-05 -5.069152e-05 -1.078467e-04 -9.326825e-05 -1.172142e-04 -8.523829e-05 -7.036562e-05 -2.698159e-05 -6.788012e-06 2.224519e-05 1.838687e-05 2.240182e-05 2.879334e-06 -9.770979e-06 -1.944727e-05 -3.864680e-05 -2.471922e-05 -4.572221e-05 -1.113557e-05 -3.208795e-05 1.275493e-05 -6.498967e-06 3.845400e-05 
1.637402e-05 5.717326e-05 4.592635e-05 7.276275e-05 6.174663e-05 6.778126e-05 4.411595e-05 2.590838e-05 -1.771044e-05 -4.760306e-05 -9.716482e-05 -1.030135e-04 -1.233642e-04 -7.032680e-05 -4.190811e-05 5.800438e-05 9.603631e-05 1.872269e-04 1.668384e-04 2.149060e-04 1.317790e-04 1.447601e-04 4.219210e-05 3.150298e-05 -6.022982e-05 -9.053709e-05 -1.499632e-04 -1.815648e-04 -1.712324e-04 -1.740781e-04 -7.466020e-05 -5.542583e-05 7.792125e-05 6.717104e-05 1.579188e-04 9.779586e-05 1.376082e-04 5.683703e-05 8.760739e-05 8.270446e-06 4.728092e-05 -3.093191e-05 1.929057e-06 -6.325968e-05 -3.655352e-05 -5.463910e-05 -1.287295e-05 1.683249e-05 6.401168e-05 8.367076e-05 1.040225e-04 7.910341e-05 7.179979e-05 2.987807e-05 9.877465e-06 -8.838134e-06 -3.454641e-05 -1.749393e-05 -4.762480e-05 -5.582167e-06 -3.716906e-05 1.401917e-05 -1.360774e-05 3.559121e-05 
4.139623e-05 1.044001e-04 9.021777e-05 1.323214e-04 1.195777e-04 1.215096e-04 9.862012e-05 3.873086e-05 -2.601454e-06 -1.143956e-04 -1.653533e-04 -2.444686e-04 -2.835909e-04 -2.027639e-04 -2.329714e-04 2.759854e-05 -4.404672e-05 2.418250e-04 8.719504e-05 2.669588e-04 9.299239e-05 1.529586e-04 3.789361e-05 4.709162e-06 -4.686130e-05 -1.477189e-04 -1.517906e-04 -2.653069e-04 -1.958177e-04 -2.379961e-04 -8.310224e-05 -4.284616e-05 1.029930e-04 1.274878e-04 1.735338e-04 1.357838e-04 1.159442e-04 5.509106e-05 5.385772e-05 -1.453278e-05 1.465434e-05 -8.726364e-05 -7.213434e-05 -1.930985e-04 -1.876169e-04 -2.396222e-04 -1.763987e-04 -1.226425e-04 -1.235507e-05 3.905629e-05 1.069425e-04 7.236151e-05 7.767742e-05 3.288981e-06 -1.877849e-05 -5.720639e-05 -8.389657e-05 -6.309131e-05 -9.102648e-05 -2.984832e-05 -5.912485e-05 1.649270e-05 -1.094852e-05 6.270260e-05 
2.437787e-05 8.633185e-05 8.573794e-05 1.318666e-04 1.379377e-04 1.535457e-04 1.326650e-04 9.677810e-05 1.454769e-05 -6.617092e-05 -1.939954e-04 -2.402668e-04 -3.148528e-04 -2.173321e-04 -1.442646e-04 7.493385e-05 2.105040e-04 3.833968e-04 3.553798e-04 4.113870e-04 2.386375e-04 2.470710e-04 7.248135e-05 5.948102e-05 -8.453766e-05 -1.494382e-04 -2.712791e-04 -3.647620e-04 -3.703254e-04 -3.814525e-04 -1.660346e-04 -8.198828e-05 2.027982e-04 2.041502e-04 3.262054e-04 2.036269e-04 1.840697e-04 5.640420e-05 6.342700e-05 -2.541015e-05 4.323985e-05 -6.532916e-05 -1.915259e-05 -1.522308e-04 -1.384065e-04 -1.701690e-04 -7.990716e-05 3.178045e-05 1.692432e-04 2.207622e-04 2.721277e-04 1.699727e-04 1.571398e-04 2.113626e-05 -2.488759e-06 -5.972744e-05 -8.795008e-05 -5.839388e-05 -9.790584e-05 -2.396036e-05 -7.002954e-05 1.173829e-05 -2.786431e-05 4.575245e-05 
7.276452e-05 1.694486e-04 1.652683e-04 2.483336e-04 2.521824e-04 2.886821e-04 2.696182e-04 1.877123e-04 1.100268e-04 -1.336021e-04 -2.589488e-04 -5.099824e-04 -6.051219e-04 -4.886567e-04 -5.169215e-04 8.223669e-05 -7.465656e-07 5.820225e-04 2.529846e-04 5.283532e-04 1.744998e-04 2.391396e-04 8.259225e-05 2.038954e-05 -1.536670e-05 -2.207550e-04 -2.513367e-04 -5.313280e-04 -4.535653e-04 -5.462545e-04 -2.141370e-04 -3.388091e-05 2.736334e-04 3.663705e-04 3.584542e-04 2.660520e-04 1.021378e-04 3.398600e-05 3.128460e-06 -1.502448e-05 8.069324e-05 -5.310406e-05 -3.822602e-05 -3.244693e-04 -4.088514e-04 -5.479154e-04 -4.282322e-04 -2.193413e-04 8.873012e-05 2.353916e-04 3.807316e-04 2.199790e-04 2.050451e-04 -3.579984e-05 -7.146447e-05 -1.751096e-04 -1.962841e-04 -1.531577e-04 -1.767580e-04 -6.533501e-05 -9.855848e-05 2.116054e-05 -1.280185e-05 9.478359e-05 