# vtk DataFile Version 2.0
Comment goes here
ASCII

DATASET STRUCTURED_POINTS
DIMENSIONS    64   64   1

ORIGIN    0.000   0.000   0.000
SPACING   0.0156250.015625   1.000

POINT_DATA   4096
SCALARS Omega double
LOOKUP_TABLE default

-3.319125e-04 -6.632119e-04 -1.073307e-03 -1.667940e-03 -2.355747e-03 -3.119103e-03 -3.693320e-03 -3.818630e-03 -3.212530e-03 -1.820509e-03 -2.809948e-04 1.814863e-04 -2.380346e-03 -9.342557e-03 -2.090789e-02 -3.486162e-02 -4.788034e-02 -5.552260e-02 -5.539924e-02 -4.746320e-02 -3.418136e-02 -2.031074e-02 -9.717509e-03 -4.916625e-03 -6.161522e-03 -1.256014e-02 -2.153527e-02 -3.101861e-02 -3.789249e-02 -4.147185e-02 -4.086346e-02 -3.736932e-02 -3.199693e-02 -2.592698e-02 -1.984675e-02 -1.404233e-02 -8.268947e-03 -2.738068e-03 3.251455e-03 9.531715e-03 1.677415e-02 2.540914e-02 3.541719e-02 4.729634e-02 5.961561e-02 7.142922e-02 8.027200e-02 8.439610e-02 8.290980e-02 7.617252e-02 6.588397e-02 5.409100e-02 4.226404e-02 3.187990e-02 2.286655e-02 1.599154e-02 1.048411e-02 6.760706e-03 4.002315e-03 2.358464e-03 1.230816e-03 6.163565e-04 2.022385e-04 -7.818824e-05 
-2.586429e-04 -4.582546e-04 -6.824813e-04 -9.882384e-04 -1.293181e-03 -1.593834e-03 -1.740327e-03 -1.648946e-03 -1.262361e-03 -6.820274e-04 -3.896161e-04 -1.038582e-03 -3.576952e-03 -8.390957e-03 -1.529713e-02 -2.279953e-02 -2.908979e-02 -3.214918e-02 -3.108079e-02 -2.638448e-02 -1.935876e-02 -1.227080e-02 -6.612580e-03 -3.477939e-03 -2.764898e-03 -4.287401e-03 -6.847450e-03 -9.923362e-03 -1.210933e-02 -1.334148e-02 -1.310575e-02 -1.193916e-02 -1.019101e-02 -8.208429e-03 -6.277521e-03 -4.349971e-03 -2.325076e-03 -2.081456e-04 2.319629e-03 5.201061e-03 8.723971e-03 1.305806e-02 1.811200e-02 2.405186e-02 3.013681e-02 3.583441e-02 4.000679e-02 4.171863e-02 4.067827e-02 3.698855e-02 3.164775e-02 2.565305e-02 1.979627e-02 1.481493e-02 1.055877e-02 7.438312e-03 4.892141e-03 3.236234e-03 1.928859e-03 1.180938e-03 6.082004e-04 3.049477e-04 6.628618e-05 -9.890890e-05 
-1.726660e-04 -3.045080e-04 -4.375645e-04 -6.112309e-04 -7.544284e-04 -8.838694e-04 -8.995518e-04 -8.005687e-04 -5.683884e-04 -3.282408e-04 -3.433678e-04 -9.711455e-04 -2.615510e-03 -5.361634e-03 -8.993894e-03 -1.264524e-02 -1.546888e-02 -1.652789e-02 -1.560914e-02 -1.308457e-02 -9.591885e-03 -6.208173e-03 -3.382466e-03 -1.679550e-03 -8.357814e-04 -9.716559e-04 -1.430660e-03 -2.261370e-03 -2.776589e-03 -3.131044e-03 -3.036261e-03 -2.721222e-03 -2.308165e-03 -1.821301e-03 -1.406481e-03 -9.055688e-04 -3.240485e-04 4.147596e-04 1.402345e-03 2.648579e-03 4.239740e-03 6.266908e-03 8.645906e-03 1.143868e-02 1.428783e-02 1.689656e-02 1.878212e-02 1.943379e-02 1.881576e-02 1.691333e-02 1.429678e-02 1.141927e-02 8.680300e-03 6.445258e-03 4.559072e-03 3.264615e-03 2.166820e-03 1.508085e-03 9.234513e-04 6.159937e-04 3.303911e-04 1.844822e-04 4.075668e-05 -6.404011e-05 
-1.353001e-04 -2.163058e-04 -2.910992e-04 -3.835350e-04 -4.430566e-04 -4.887053e-04 -4.594013e-04 -3.725824e-04 -2.264392e-04 -1.019025e-04 -1.445111e-04 -5.143845e-04 -1.396628e-03 -2.769681e-03 -4.504040e-03 -6.162718e-03 -7.350134e-03 -7.714452e-03 -7.154390e-03 -5.959017e-03 -4.335717e-03 -2.838015e-03 -1.512358e-03 -6.889782e-04 -1.046780e-04 4.556034e-05 1.529928e-04 2.062658e-05 7.915269e-06 -6.640646e-05 -4.115309e-05 -6.916240e-06 -1.336949e-05 2.064891e-05 -8.015084e-06 6.513701e-05 1.767856e-04 4.166745e-04 7.788452e-04 1.290229e-03 1.968930e-03 2.857747e-03 3.918126e-03 5.155749e-03 6.434077e-03 7.563659e-03 8.391015e-03 8.602785e-03 8.280963e-03 7.337317e-03 6.123907e-03 4.797838e-03 3.579146e-03 2.627425e-03 1.833228e-03 1.342781e-03 8.924308e-04 6.650754e-04 4.094200e-04 2.997276e-04 1.539925e-04 8.810835e-05 -8.944228e-07 -6.383551e-05 
-8.784561e-05 -1.431706e-04 -1.895261e-04 -2.458536e-04 -2.717863e-04 -2.916360e-04 -2.584117e-04 -2.019467e-04 -1.091278e-04 -4.204332e-05 -5.913886e-05 -2.455391e-04 -6.690841e-04 -1.305393e-03 -2.082361e-03 -2.786157e-03 -3.257041e-03 -3.350404e-03 -3.042569e-03 -2.497422e-03 -1.765170e-03 -1.141192e-03 -5.388258e-04 -1.894080e-04 1.441502e-04 2.576680e-04 4.236945e-04 4.343010e-04 5.091889e-04 4.952809e-04 4.865659e-04 4.510044e-04 3.527354e-04 2.939412e-04 1.813687e-04 1.630652e-04 1.483393e-04 2.314077e-04 3.571714e-04 5.691417e-04 8.463087e-04 1.220500e-03 1.670775e-03 2.189046e-03 2.738311e-03 3.194103e-03 3.542937e-03 3.583120e-03 3.425844e-03 2.968692e-03 2.432664e-03 1.848385e-03 1.337123e-03 9.663086e-04 6.589811e-04 5.111016e-04 3.446802e-04 2.970053e-04 1.915615e-04 1.670667e-04 9.118272e-05 6.262073e-05 4.214521e-06 -3.723667e-05 
-6.644961e-05 -9.817299e-05 -1.218173e-04 -1.491088e-04 -1.524624e-04 -1.524371e-04 -1.174404e-04 -7.347872e-05 -9.262935e-06 3.656470e-05 3.888586e-05 -4.175919e-05 -2.321438e-04 -5.149772e-04 -8.507994e-04 -1.152389e-03 -1.335892e-03 -1.374505e-03 -1.222193e-03 -1.006321e-03 -6.818985e-04 -4.436018e-04 -1.661741e-04 -3.038542e-05 1.576689e-04 2.183193e-04 3.477082e-04 3.721296e-04 4.368118e-04 4.292970e-04 4.069199e-04 3.649959e-04 2.714086e-04 2.192986e-04 1.250179e-04 1.082912e-04 7.870145e-05 1.173207e-04 1.628924e-04 2.541434e-04 3.683972e-04 5.198848e-04 7.099111e-04 9.135390e-04 1.148553e-03 1.314931e-03 1.464118e-03 1.444646e-03 1.376038e-03 1.148927e-03 9.220575e-04 6.630749e-04 4.562229e-04 3.168267e-04 2.027139e-04 1.735925e-04 1.134706e-04 1.227888e-04 7.607261e-05 8.126191e-05 3.783642e-05 2.808694e-05 -1.046381e-05 -3.396531e-05 
-4.090062e-05 -6.281304e-05 -7.778730e-05 -9.550890e-05 -9.401375e-05 -9.334007e-05 -6.714287e-05 -4.159408e-05 -5.465453e-07 2.415099e-05 3.106245e-05 -6.739184e-06 -9.141839e-05 -2.179706e-04 -3.618544e-04 -4.880032e-04 -5.556773e-04 -5.658656e-04 -4.852417e-04 -3.962014e-04 -2.423616e-04 -1.537563e-04 -1.627328e-05 2.843518e-05 1.340287e-04 1.527969e-04 2.323298e-04 2.384177e-04 2.738990e-04 2.610625e-04 2.342661e-04 2.018890e-04 1.302054e-04 9.915299e-05 3.204857e-05 2.806279e-05 2.423403e-06 2.855898e-05 4.465717e-05 8.989249e-05 1.381199e-04 2.000251e-04 2.811853e-04 3.553776e-04 4.565859e-04 5.058493e-04 5.706579e-04 5.362683e-04 5.089399e-04 3.919528e-04 3.006815e-04 1.865504e-04 1.093087e-04 6.514405e-05 3.009400e-05 4.346641e-05 2.723915e-05 5.477700e-05 3.558834e-05 5.129459e-05 2.594811e-05 2.434724e-05 -2.331369e-06 -1.761414e-05 
-3.053898e-05 -4.137125e-05 -4.678662e-05 -5.333049e-05 -4.536819e-05 -3.946423e-05 -1.581034e-05 3.602648e-06 3.338098e-05 4.941342e-05 5.761528e-05 3.895640e-05 1.348560e-07 -6.276968e-05 -1.279514e-04 -1.924090e-04 -2.200156e-04 -2.357470e-04 -1.940642e-04 -1.682294e-04 -8.920058e-05 -6.219129e-05 1.592767e-05 2.755479e-05 9.493589e-05 9.843704e-05 1.499644e-04 1.478746e-04 1.667728e-04 1.535885e-04 1.296152e-04 1.077284e-04 5.705881e-05 4.187722e-05 -2.166724e-06 2.418490e-06 -1.414336e-05 6.494383e-06 1.489790e-05 4.019002e-05 6.535304e-05 9.072344e-05 1.313013e-04 1.542672e-04 2.041549e-04 2.093713e-04 2.431459e-04 2.083971e-04 2.014214e-04 1.334462e-04 9.831155e-05 4.037728e-05 1.132153e-05 -5.063797e-06 -1.643517e-05 1.103785e-07 -5.730115e-06 1.837838e-05 7.237750e-06 2.249775e-05 5.666202e-06 8.242172e-06 -9.552006e-06 -1.666804e-05 
-1.708781e-05 -2.511520e-05 -2.883758e-05 -3.432351e-05 -2.839170e-05 -2.622710e-05 -1.031805e-05 -9.389855e-07 1.758248e-05 2.365223e-05 2.895871e-05 1.594401e-05 -3.193955e-06 -3.743305e-05 -6.759035e-05 -1.007471e-04 -1.096720e-04 -1.191489e-04 -9.188608e-05 -8.270400e-05 -3.428374e-05 -2.559387e-05 2.483783e-05 2.548345e-05 6.986491e-05 6.592310e-05 9.745698e-05 9.028935e-05 9.783840e-05 8.557852e-05 6.470953e-05 5.047714e-05 1.358503e-05 6.833378e-06 -2.457234e-05 -1.783883e-05 -3.102656e-05 -1.542523e-05 -1.205397e-05 3.409690e-06 1.757325e-05 2.815711e-05 5.086833e-05 5.449844e-05 8.194615e-05 7.246383e-05 9.252691e-05 6.299021e-05 6.459202e-05 2.280001e-05 1.187911e-05 -1.866297e-05 -2.666321e-05 -3.048383e-05 -3.085884e-05 -1.412918e-05 -1.373853e-05 7.456818e-06 2.439380e-06 1.660816e-05 6.097301e-06 9.880075e-06 -2.519241e-06 -7.045839e-06 
-1.337876e-05 -1.640347e-05 -1.560172e-05 -1.659750e-05 -8.423978e-06 -4.709003e-06 9.695103e-06 1.665481e-05 3.120712e-05 3.414134e-05 3.904383e-05 2.906055e-05 1.912565e-05 -4.122771e-06 -2.003724e-05 -4.436150e-05 -4.826597e-05 -6.147831e-05 -4.439163e-05 -4.730808e-05 -1.559361e-05 -1.642554e-05 1.939998e-05 1.644865e-05 4.900401e-05 4.425132e-05 6.625194e-05 5.949869e-05 6.314285e-05 5.385795e-05 3.778480e-05 2.903776e-05 2.992361e-06 7.760726e-07 -2.065387e-05 -1.375854e-05 -2.221777e-05 -1.046624e-05 -6.829087e-06 3.056497e-06 1.478793e-05 1.888355e-05 3.626715e-05 3.293301e-05 5.289792e-05 3.959837e-05 5.532802e-05 3.050587e-05 3.607566e-05 6.122839e-06 3.962494e-06 -1.749852e-05 -2.006044e-05 -2.432223e-05 -2.462637e-05 -1.500133e-05 -1.599121e-05 -2.118871e-06 -6.585300e-06 3.809306e-06 -3.683137e-06 4.154790e-07 -7.384190e-06 -8.482352e-06 
-5.581553e-06 -8.809382e-06 -8.399779e-06 -1.083711e-05 -5.473197e-06 -5.331204e-06 3.957499e-06 5.572497e-06 1.462379e-05 1.326633e-05 1.630504e-05 7.315079e-06 2.149253e-06 -1.377784e-05 -2.121207e-05 -3.688343e-05 -3.617255e-05 -4.507506e-05 -3.108102e-05 -3.384009e-05 -1.009767e-05 -1.144345e-05 1.520984e-05 1.242927e-05 3.594264e-05 3.151621e-05 4.613957e-05 4.023552e-05 4.114325e-05 3.423360e-05 2.149808e-05 1.593193e-05 -3.408914e-06 -4.254404e-06 -2.040334e-05 -1.563551e-05 -2.269375e-05 -1.547331e-05 -1.339596e-05 -8.318814e-06 3.555772e-07 3.256584e-07 1.334999e-05 6.971824e-06 2.177059e-05 8.255545e-06 2.073360e-05 8.236184e-07 7.768713e-06 -1.333278e-05 -1.079837e-05 -2.472069e-05 -2.295985e-05 -2.479455e-05 -2.245035e-05 -1.456416e-05 -1.328661e-05 -2.254956e-06 -3.777458e-06 4.664729e-06 5.078523e-07 3.888056e-06 -1.085494e-06 -2.207178e-06 
-5.539419e-06 -6.671433e-06 -3.514789e-06 -4.003243e-06 2.822404e-06 3.727352e-06 1.288221e-05 1.393874e-05 2.213485e-05 2.018468e-05 2.362319e-05 1.581352e-05 1.349340e-05 4.753131e-07 -3.508744e-06 -1.721659e-05 -1.615052e-05 -2.616698e-05 -1.630430e-05 -2.201410e-05 -4.889847e-06 -8.401733e-06 1.150600e-05 8.286319e-06 2.598190e-05 2.224228e-05 3.291912e-05 2.838362e-05 2.872062e-05 2.383000e-05 1.450819e-05 1.097286e-05 -2.595319e-06 -2.760093e-06 -1.354172e-05 -1.017544e-05 -1.382749e-05 -9.324194e-06 -5.537597e-06 -3.125217e-06 6.237160e-06 4.396612e-06 1.716635e-05 1.017731e-05 2.390206e-05 1.157216e-05 2.318323e-05 6.627591e-06 1.385592e-05 -3.192957e-06 3.626486e-09 -1.221564e-05 -1.095808e-05 -1.513123e-05 -1.452607e-05 -1.176784e-05 -1.205108e-05 -6.288715e-06 -7.924398e-06 -2.926302e-06 -5.488235e-06 -3.113878e-06 -5.285333e-06 -5.378836e-06 
1.987183e-07 -2.390918e-06 6.216921e-08 -2.465808e-06 2.189507e-06 3.226582e-07 6.352795e-06 4.418575e-06 9.777794e-06 5.935563e-06 8.444508e-06 1.233690e-06 6.126691e-07 -9.241254e-06 -1.023615e-05 -1.986528e-05 -1.711707e-05 -2.392967e-05 -1.523549e-05 -1.896130e-05 -5.442793e-06 -7.549178e-06 7.582651e-06 5.642097e-06 1.867051e-05 1.619544e-05 2.373731e-05 2.059643e-05 2.065026e-05 1.725413e-05 1.063741e-05 8.005909e-06 -1.432440e-06 -2.322379e-06 -9.719538e-06 -9.051496e-06 -1.122584e-05 -1.059404e-05 -7.054468e-06 -8.443285e-06 -4.555885e-07 -5.135721e-06 5.479243e-06 -2.835326e-06 8.390468e-06 -3.188395e-06 6.564663e-06 -6.922852e-06 4.800350e-08 -1.258182e-05 -8.092253e-06 -1.655670e-05 -1.326022e-05 -1.583698e-05 -1.294626e-05 -1.069925e-05 -8.430590e-06 -4.259260e-06 -3.102164e-06 1.755816e-07 2.670804e-07 1.186365e-06 9.663281e-07 -4.065862e-07 
-1.849257e-06 -3.749112e-06 9.269125e-07 -6.709922e-07 5.486127e-06 4.248223e-06 1.097999e-05 9.305624e-06 1.499616e-05 1.150658e-05 1.467014e-05 8.421059e-06 9.002809e-06 5.606566e-07 5.295641e-07 -8.116405e-06 -5.889953e-06 -1.278196e-05 -6.584780e-06 -1.111357e-05 -1.443878e-06 -4.265494e-06 6.693560e-06 4.561470e-06 1.398890e-05 1.178074e-05 1.712099e-05 1.449564e-05 1.445954e-05 1.159435e-05 7.101182e-06 4.622487e-06 -1.278639e-06 -2.836635e-06 -6.485203e-06 -7.374184e-06 -6.380700e-06 -7.705260e-06 -1.735219e-06 -4.760863e-06 4.982204e-06 -4.752237e-07 1.116148e-05 3.195107e-06 1.467058e-05 4.593399e-06 1.404478e-05 2.806034e-06 9.206341e-06 -1.515195e-06 2.125520e-06 -6.136251e-06 -4.077124e-06 -8.786806e-06 -7.250744e-06 -8.843919e-06 -7.409797e-06 -7.405904e-06 -6.028887e-06 -5.995188e-06 -4.531462e-06 -5.325257e-06 -3.337356e-06 -4.959007e-06 
3.679878e-06 -2.573665e-07 3.925851e-06 1.794188e-07 4.853090e-06 1.414148e-06 6.189207e-06 2.609962e-06 6.636271e-06 2.139779e-06 4.663531e-06 -1.193652e-06 -4.422076e-08 -6.760198e-06 -5.688682e-06 -1.195349e-05 -9.228238e-06 -1.384207e-05 -8.524802e-06 -1.119483e-05 -3.749945e-06 -5.042792e-06 3.011888e-06 2.246231e-06 9.060041e-06 8.127239e-06 1.216513e-05 1.066290e-05 1.132377e-05 9.156651e-06 7.255580e-06 4.550197e-06 2.179719e-06 -9.899233e-07 -1.413063e-06 -5.314969e-06 -2.226073e-06 -7.416368e-06 -6.765915e-07 -7.581588e-06 1.755178e-06 -6.797942e-06 3.497683e-06 -6.159534e-06 3.445780e-06 -6.540985e-06 1.211720e-06 -8.241484e-06 -2.583390e-06 -1.058110e-05 -6.283512e-06 -1.207486e-05 -8.012609e-06 -1.146465e-05 -6.938411e-06 -8.734909e-06 -3.799950e-06 -5.098129e-06 -2.421253e-07 -2.061428e-06 2.327980e-06 -4.702136e-07 3.463913e-06 -1.619147e-07 
2.084762e-07 -3.734915e-06 2.626426e-06 -6.009272e-07 5.725541e-06 2.923095e-06 8.781862e-06 5.808897e-06 1.054095e-05 6.725543e-06 9.840728e-06 4.876993e-06 6.547573e-06 8.463163e-07 2.041264e-06 -3.404932e-06 -1.423630e-06 -5.652816e-06 -2.136065e-06 -4.786060e-06 6.166552e-08 -1.330532e-06 3.868460e-06 3.031394e-06 7.341025e-06 6.319089e-06 8.792291e-06 7.032771e-06 7.515264e-06 4.759013e-06 4.173993e-06 4.108313e-07 5.419004e-07 -4.195223e-06 -1.466985e-06 -7.291983e-06 -8.761959e-07 -7.980680e-06 1.947760e-06 -6.399166e-06 5.720230e-06 -3.393027e-06 8.965745e-06 -1.542341e-07 1.053297e-05 2.044691e-06 9.862677e-06 2.244201e-06 7.173505e-06 3.165782e-07 3.451824e-06 -2.871252e-06 6.399471e-10 -5.989207e-06 -2.258619e-06 -8.057461e-06 -3.159468e-06 -8.834384e-06 -3.080961e-06 -8.590934e-06 -2.453545e-06 -7.644315e-06 -1.413490e-06 -6.068910e-06 
6.518051e-06 1.675614e-07 6.285154e-06 8.822889e-07 6.140177e-06 1.451848e-06 5.917938e-06 1.521733e-06 5.059606e-06 5.361852e-07 3.038551e-06 -1.743483e-06 -6.672585e-08 -4.768973e-06 -3.332203e-06 -7.281552e-06 -5.424953e-06 -8.024274e-06 -5.441505e-06 -6.532572e-06 -3.435149e-06 -3.358369e-06 -2.634771e-07 3.196122e-07 2.954470e-06 3.263633e-06 5.323138e-06 4.591411e-06 6.436736e-06 4.001023e-06 6.451316e-06 1.822244e-06 5.943179e-06 -1.159744e-06 5.546205e-06 -4.070865e-06 5.535663e-06 -6.291310e-06 5.637735e-06 -7.587217e-06 5.209940e-06 -8.071015e-06 3.675556e-06 -8.133067e-06 9.494424e-07 -8.321850e-06 -2.369997e-06 -9.039214e-06 -5.166963e-06 -1.016161e-05 -6.321163e-06 -1.099770e-05 -5.321454e-06 -1.076989e-05 -2.565040e-06 -9.216837e-06 8.881086e-07 -6.767143e-06 3.906606e-06 -4.196288e-06 5.807986e-06 -2.125618e-06 6.539295e-06 -7.380246e-07 
1.750452e-06 -4.894336e-06 3.550955e-06 -1.395224e-06 5.628793e-06 1.689564e-06 7.349792e-06 3.748806e-06 8.025931e-06 4.301512e-06 7.238897e-06 3.302854e-06 5.161831e-06 1.347448e-06 2.602676e-06 -5.038436e-07 6.194756e-07 -1.272440e-06 -7.125531e-08 -6.155402e-07 5.504737e-07 1.016401e-06 1.911301e-06 2.666979e-06 3.235635e-06 3.348920e-06 3.932410e-06 2.452897e-06 3.825737e-06 -2.547103e-08 3.203730e-06 -3.486188e-06 2.679411e-06 -6.957782e-06 2.880004e-06 -9.462194e-06 4.077169e-06 -1.031554e-05 5.973357e-06 -9.242835e-06 7.823251e-06 -6.412015e-06 8.851840e-06 -2.539255e-06 8.701634e-06 1.072726e-06 7.598325e-06 2.906051e-06 6.114244e-06 2.018985e-06 4.730524e-06 -1.322008e-06 3.578287e-06 -5.775973e-06 2.542146e-06 -9.717215e-06 1.545223e-06 -1.201645e-05 7.133248e-07 -1.232581e-05 3.208560e-07 -1.089581e-05 6.303288e-07 -8.237653e-06 
9.468559e-06 1.069484e-07 8.358324e-06 1.235690e-06 7.256966e-06 1.627425e-06 6.026169e-06 1.238715e-06 4.427807e-06 9.462015e-08 2.365701e-06 -1.550905e-06 5.280701e-08 -3.169541e-06 -2.041999e-06 -4.152752e-06 -3.467056e-06 -4.153201e-06 -4.057888e-06 -3.295145e-06 -3.942860e-06 -2.060848e-06 -3.277985e-06 -9.571270e-07 -1.992726e-06 -2.532028e-07 1.675930e-07 1.616312e-08 3.302402e-06 -1.537484e-07 7.034113e-06 -8.928841e-07 1.055647e-05 -2.371068e-06 1.304178e-05 -4.551799e-06 1.397535e-05 -7.043220e-06 1.309793e-05 -9.189638e-06 1.021757e-05 -1.039062e-05 5.377975e-06 -1.054050e-05 -6.305157e-07 -1.024955e-05 -6.037507e-06 -1.044595e-05 -8.740462e-06 -1.152634e-05 -7.602843e-06 -1.290783e-05 -3.278188e-06 -1.351175e-05 2.259073e-06 -1.263250e-05 6.997198e-06 -1.035407e-05 9.855070e-06 -7.326598e-06 1.080659e-05 -4.290450e-06 1.044439e-05 -1.745416e-06 
3.166651e-06 -6.375750e-06 4.425430e-06 -1.943765e-06 5.885071e-06 1.296610e-06 6.823022e-06 3.010235e-06 6.789205e-06 3.278641e-06 5.774521e-06 2.607133e-06 4.193266e-06 1.763265e-06 2.639913e-06 1.432577e-06 1.535881e-06 1.862124e-06 9.160327e-07 2.736878e-06 5.305154e-07 3.381795e-06 1.741833e-07 3.142284e-06 -4.732480e-08 1.697147e-06 2.430722e-07 -8.575056e-07 1.365892e-06 -4.145273e-06 3.269580e-06 -7.702771e-06 5.565326e-06 -1.105661e-05 7.860242e-06 -1.369007e-05 9.919005e-06 -1.500588e-05 1.143463e-05 -1.431753e-05 1.185072e-05 -1.106727e-05 1.073023e-05 -5.499974e-06 8.449488e-06 6.651190e-07 6.366076e-06 4.597837e-06 5.897758e-06 4.045031e-06 7.203210e-06 -9.896426e-07 8.942265e-06 -8.241445e-06 9.477581e-06 -1.472610e-05 8.233191e-06 -1.834010e-05 5.931765e-06 -1.848068e-05 3.824828e-06 -1.574832e-05 2.831998e-06 -1.130923e-05 
1.277416e-05 3.039890e-07 1.054028e-05 2.104591e-06 8.570624e-06 2.510929e-06 6.537878e-06 1.716276e-06 4.274606e-06 2.018688e-07 1.957362e-06 -1.296365e-06 -7.666856e-10 -2.057784e-06 -1.312025e-06 -1.793446e-06 -2.156280e-06 -8.936296e-07 -3.137978e-06 -2.244972e-07 -4.748690e-06 -5.347797e-07 -6.678216e-06 -1.881119e-06 -7.567863e-06 -3.519616e-06 -5.621569e-06 -4.440418e-06 8.709977e-08 -4.254588e-06 8.533624e-06 -3.687721e-06 1.703579e-05 -4.076735e-06 2.293482e-05 -6.251887e-06 2.502365e-05 -9.858796e-06 2.331371e-05 -1.350914e-05 1.794593e-05 -1.553387e-05 9.105238e-06 -1.520556e-05 -1.751305e-06 -1.368690e-05 -1.101244e-05 -1.333866e-05 -1.430368e-05 -1.544292e-05 -9.770319e-06 -1.880205e-05 7.664890e-08 -2.096263e-05 1.025447e-05 -2.034952e-05 1.689027e-05 -1.706521e-05 1.902600e-05 -1.226312e-05 1.791390e-05 -7.227678e-06 1.539335e-05 -2.874662e-06 
4.385192e-06 -7.514472e-06 5.479865e-06 -1.383120e-06 6.826937e-06 2.383097e-06 7.307839e-06 3.682862e-06 6.508947e-06 3.165318e-06 4.828282e-06 2.061372e-06 3.158216e-06 1.665785e-06 2.225713e-06 2.634967e-06 2.004184e-06 4.572900e-06 1.707387e-06 6.270864e-06 4.679542e-07 6.454753e-06 -1.785681e-06 4.511751e-06 -3.948472e-06 7.652705e-07 -4.259802e-06 -3.827497e-06 -1.553062e-06 -8.370615e-06 3.680710e-06 -1.255437e-05 9.588501e-06 -1.647686e-05 1.451127e-05 -2.006549e-05 1.794760e-05 -2.276977e-05 1.980258e-05 -2.330489e-05 1.935429e-05 -1.976237e-05 1.580920e-05 -1.124088e-05 1.015937e-05 -2.052423e-07 5.956754e-06 7.542433e-06 6.900108e-06 6.858509e-06 1.291671e-05 -2.281402e-06 1.960798e-05 -1.497181e-05 2.219313e-05 -2.535989e-05 1.941962e-05 -3.002304e-05 1.361948e-05 -2.864776e-05 8.100758e-06 -2.292875e-05 4.933198e-06 -1.519198e-05 
1.622100e-05 1.488369e-06 1.282640e-05 4.293054e-06 1.024160e-05 4.702795e-06 7.522840e-06 3.093424e-06 4.358301e-06 4.709196e-07 1.308386e-06 -1.626202e-06 -6.210980e-07 -1.820208e-06 -9.533263e-07 1.178225e-07 -5.504725e-07 2.820679e-06 -1.364811e-06 4.040835e-06 -4.976820e-06 2.183281e-06 -1.085896e-05 -2.427422e-06 -1.571951e-05 -7.457887e-06 -1.485516e-05 -9.974693e-06 -5.389368e-06 -8.805694e-06 1.065507e-05 -5.953771e-06 2.689116e-05 -5.115732e-06 3.735807e-05 -8.490652e-06 4.056410e-05 -1.538681e-05 3.808331e-05 -2.289567e-05 3.051334e-05 -2.709853e-05 1.685780e-05 -2.566094e-05 -1.767119e-06 -2.098177e-05 -1.855499e-05 -1.926296e-05 -2.349368e-05 -2.406440e-05 -1.227478e-05 -3.198236e-05 8.358098e-06 -3.677139e-05 2.651775e-05 -3.532609e-05 3.489609e-05 -2.873294e-05 3.385557e-05 -1.981636e-05 2.789311e-05 -1.100394e-05 2.129811e-05 -3.693756e-06 
4.895303e-06 -7.384452e-06 6.821434e-06 1.474456e-06 8.972143e-06 6.009815e-06 9.316549e-06 6.323552e-06 7.293534e-06 3.792380e-06 3.983009e-06 9.061251e-07 1.421682e-06 2.269822e-07 1.081802e-06 2.815537e-06 2.487528e-06 7.369631e-06 3.311162e-06 1.101536e-05 1.166030e-06 1.118485e-05 -4.242718e-06 7.110671e-06 -1.022711e-05 1.322586e-07 -1.230184e-05 -7.229613e-06 -7.314027e-06 -1.315075e-05 3.459130e-06 -1.789312e-05 1.498570e-05 -2.284172e-05 2.338019e-05 -2.852806e-05 2.887854e-05 -3.460240e-05 3.279957e-05 -3.919392e-05 3.356604e-05 -3.745101e-05 2.783778e-05 -2.472102e-05 1.617987e-05 -3.930848e-06 6.891766e-06 1.214904e-05 1.030010e-05 1.090142e-05 2.647455e-05 -7.216510e-06 4.311960e-05 -3.033881e-05 4.797210e-05 -4.658078e-05 3.953869e-05 -5.104146e-05 2.510580e-05 -4.517724e-05 1.265076e-05 -3.326823e-05 6.015813e-06 -1.961705e-05 
1.895809e-05 4.644586e-06 1.501526e-05 8.927533e-06 1.265610e-05 9.249386e-06 9.513295e-06 5.946297e-06 4.809281e-06 6.579063e-07 -1.139980e-07 -3.528126e-06 -2.637223e-06 -3.495146e-06 -1.204139e-06 1.439674e-06 2.423694e-06 8.204725e-06 3.445776e-06 1.159741e-05 -2.597763e-06 7.917281e-06 -1.566425e-05 -2.174751e-06 -2.920965e-05 -1.330365e-05 -3.232020e-05 -1.822749e-05 -1.693931e-05 -1.374360e-05 1.329995e-05 -5.161687e-06 4.307793e-05 -2.188155e-06 5.901480e-05 -9.408949e-06 6.150921e-05 -2.456747e-05 5.845906e-05 -4.211182e-05 5.146688e-05 -5.332401e-05 3.411275e-05 -5.052560e-05 2.922560e-06 -3.769050e-05 -2.997430e-05 -3.163337e-05 -3.948120e-05 -4.289471e-05 -1.323719e-05 -6.097670e-05 3.052322e-05 -6.943815e-05 6.239916e-05 -6.336246e-05 6.939008e-05 -4.814580e-05 5.804979e-05 -3.074727e-05 4.110986e-05 -1.535125e-05 2.721672e-05 -3.469526e-06 
3.673103e-06 -4.439256e-06 8.777267e-06 8.579317e-06 1.360422e-05 1.417462e-05 1.438333e-05 1.240178e-05 1.007453e-05 5.459961e-06 3.011558e-06 -1.880960e-06 -2.109285e-06 -4.160830e-06 -1.623608e-06 1.011921e-06 3.479654e-06 1.066199e-05 7.527682e-06 1.842523e-05 4.484943e-06 1.909260e-05 -7.030028e-06 1.157976e-05 -2.159161e-05 -7.793688e-07 -2.882931e-05 -1.204017e-05 -2.035646e-05 -1.831868e-05 9.842268e-07 -2.214228e-05 2.169019e-05 -2.861893e-05 3.304427e-05 -3.820454e-05 4.040096e-05 -5.109466e-05 5.112863e-05 -6.703115e-05 6.100601e-05 -7.527781e-05 5.707813e-05 -5.908899e-05 3.414629e-05 -1.812389e-05 1.085791e-05 1.808930e-05 1.840597e-05 1.559648e-05 5.924951e-05 -2.249946e-05 9.788352e-05 -6.533498e-05 1.028551e-04 -8.886736e-05 7.650973e-05 -8.850077e-05 4.130013e-05 -7.150242e-05 1.530041e-05 -4.753517e-05 3.843907e-06 -2.382590e-05 
1.919419e-05 1.111865e-05 1.699842e-05 1.778139e-05 1.713315e-05 1.827320e-05 1.443862e-05 1.206923e-05 6.968633e-06 1.232688e-06 -2.470737e-06 -8.228803e-06 -7.361983e-06 -8.956364e-06 -2.752889e-06 1.611748e-06 8.534145e-06 1.721654e-05 1.562982e-05 2.628860e-05 7.212124e-06 2.042048e-05 -1.919286e-05 3.180857e-07 -5.200522e-05 -2.287345e-05 -6.704344e-05 -3.169960e-05 -4.189033e-05 -1.676614e-05 1.796282e-05 7.432636e-06 7.305957e-05 1.392569e-05 9.079764e-05 -4.268756e-06 8.321946e-05 -3.787336e-05 8.069022e-05 -7.995382e-05 8.644706e-05 -1.136864e-04 7.559422e-05 -1.133780e-04 2.492568e-05 -8.027810e-05 -4.725314e-05 -6.101447e-05 -7.184179e-05 -8.911915e-05 -7.582214e-06 -1.297215e-04 9.058570e-05 -1.390230e-04 1.447810e-04 -1.153022e-04 1.365963e-04 -7.898248e-05 9.621944e-05 -4.527275e-05 5.599679e-05 -1.937570e-05 3.028586e-05 -1.069661e-06 
-7.250144e-07 3.732360e-06 1.252050e-05 2.307852e-05 2.385393e-05 3.079598e-05 2.666127e-05 2.589112e-05 1.853010e-05 1.077740e-05 3.684016e-06 -5.969523e-06 -7.556801e-06 -1.262532e-05 -6.041880e-06 -3.349520e-06 6.791875e-06 1.559760e-05 1.822679e-05 3.079900e-05 1.450160e-05 3.248538e-05 -8.621840e-06 1.930287e-05 -4.169701e-05 -2.001387e-06 -6.229082e-05 -1.796194e-05 -4.783692e-05 -1.946724e-05 -4.368927e-06 -1.802206e-05 2.917570e-05 -3.079476e-05 3.297042e-05 -4.869296e-05 3.634929e-05 -7.130030e-05 6.789368e-05 -1.144865e-04 1.142343e-04 -1.595881e-04 1.309608e-04 -1.539468e-04 8.436966e-05 -7.487997e-05 1.349860e-05 1.080567e-05 2.436701e-05 5.730147e-06 1.351700e-04 -7.518179e-05 2.296354e-04 -1.498342e-04 2.227457e-04 -1.746199e-04 1.432117e-04 -1.547467e-04 5.983898e-05 -1.121781e-04 9.703460e-06 -6.592160e-05 -6.084571e-06 -2.618011e-05 
1.415285e-05 2.245763e-05 1.958161e-05 3.376931e-05 2.765492e-05 3.679946e-05 2.873230e-05 2.808810e-05 1.808403e-05 8.628535e-06 3.145916e-07 -1.106113e-05 -1.037715e-05 -1.487030e-05 -1.013160e-06 4.642561e-06 2.471202e-05 3.570636e-05 4.463223e-05 5.515676e-05 3.457376e-05 4.682520e-05 -1.444968e-05 1.047261e-05 -8.622310e-05 -3.458836e-05 -1.315832e-04 -4.825238e-05 -8.896153e-05 -1.787483e-06 3.750453e-05 6.276953e-05 1.377864e-04 6.453876e-05 1.272176e-04 1.068436e-05 7.353709e-05 -5.593900e-05 8.007978e-05 -1.506687e-04 1.423708e-04 -2.565095e-04 1.770585e-04 -2.928149e-04 9.118569e-05 -2.268653e-04 -1.052590e-04 -1.795392e-04 -1.913843e-04 -2.533988e-04 -4.181189e-06 -3.274228e-04 2.481434e-04 -2.996430e-04 3.364308e-04 -2.112772e-04 2.652889e-04 -1.247700e-04 1.501848e-04 -6.208930e-05 6.519506e-05 -2.137338e-05 2.408425e-05 4.809158e-06 
-9.225737e-06 2.031046e-05 2.147564e-05 5.005948e-05 4.749570e-05 6.520968e-05 5.917349e-05 6.167933e-05 5.080424e-05 3.934665e-05 2.750248e-05 1.055690e-05 7.670329e-06 -3.641740e-06 9.318801e-06 7.674612e-06 2.983246e-05 3.294743e-05 4.628311e-05 5.106117e-05 3.714577e-05 5.198121e-05 -4.175432e-06 3.593990e-05 -6.716677e-05 9.827835e-06 -1.122210e-04 -2.217395e-06 -8.292886e-05 1.862676e-05 3.495190e-06 2.211974e-05 2.617542e-05 -4.640916e-05 -4.475410e-05 -9.170053e-05 -6.937546e-05 -1.036641e-04 3.497636e-05 -1.964381e-04 2.081305e-04 -3.641055e-04 3.039714e-04 -4.711436e-04 1.637502e-04 -3.940683e-04 -1.429273e-04 -2.242435e-04 -1.617620e-04 -2.125815e-04 2.310166e-04 -3.208425e-04 5.324565e-04 -3.831183e-04 4.801251e-04 -3.553902e-04 2.523347e-04 -2.711631e-04 6.529033e-05 -1.724703e-04 -1.950915e-05 -8.712812e-05 -3.111105e-05 -2.388926e-05 
1.491528e-06 3.996994e-05 2.693738e-05 6.289601e-05 5.661805e-05 8.117879e-05 7.796417e-05 8.680709e-05 8.191301e-05 7.565109e-05 7.125840e-05 5.829277e-05 6.454195e-05 5.563107e-05 7.906856e-05 7.565679e-05 1.067890e-04 1.014240e-04 1.190207e-04 1.098427e-04 9.315395e-05 9.396818e-05 1.793800e-05 5.259445e-05 -1.031292e-04 -2.779865e-06 -1.992018e-04 -3.329274e-06 -1.216539e-04 1.236386e-04 1.338191e-04 2.441841e-04 2.484485e-04 1.250657e-04 4.168108e-05 -5.631392e-05 -1.594057e-04 -1.209059e-04 -6.576549e-05 -2.874392e-04 1.979968e-04 -6.402334e-04 3.475395e-04 -9.919407e-04 4.692158e-05 -1.118327e-03 -7.767074e-04 -1.160242e-03 -1.159958e-03 -1.271353e-03 -3.061055e-04 -1.118501e-03 6.002336e-04 -7.311018e-04 7.684707e-04 -3.918612e-04 4.911876e-04 -1.877185e-04 2.031747e-04 -7.850496e-05 4.740885e-05 -1.987740e-05 -2.510988e-06 1.457813e-05 
-1.887739e-05 4.878648e-05 4.515496e-05 1.006249e-04 1.083218e-04 1.514080e-04 1.679128e-04 1.983998e-04 2.174627e-04 2.342817e-04 2.526912e-04 2.563475e-04 2.747482e-04 2.619509e-04 2.752219e-04 2.343270e-04 2.315271e-04 1.632985e-04 1.463299e-04 8.272571e-05 6.448360e-05 5.475084e-05 1.558643e-05 9.562119e-05 -2.284997e-05 1.615521e-04 -4.881390e-05 2.260575e-04 1.250210e-05 2.600338e-04 4.856091e-05 4.020259e-05 -2.894195e-04 -4.817360e-04 -7.685927e-04 -5.699905e-04 -7.847776e-04 -3.202655e-04 -3.319317e-04 -4.183463e-04 2.426847e-04 -1.036950e-03 4.097571e-04 -2.061568e-03 -5.693436e-04 -2.981796e-03 -2.543204e-03 -3.135282e-03 -2.819896e-03 -2.579981e-03 -4.860889e-04 -1.721507e-03 1.115179e-03 -1.109553e-03 1.001989e-03 -7.483396e-04 3.813653e-04 -4.752462e-04 1.651391e-06 -2.582873e-04 -1.032629e-04 -1.076544e-04 -7.880224e-05 -1.346373e-05 
-1.467670e-05 6.568911e-05 5.511420e-05 1.263896e-04 1.519537e-04 2.270840e-04 2.899039e-04 3.784744e-04 4.736157e-04 5.713739e-04 6.810309e-04 7.625704e-04 8.503491e-04 8.647517e-04 8.788632e-04 7.756897e-04 6.958195e-04 5.026346e-04 3.901578e-04 2.197648e-04 1.673985e-04 1.273033e-04 1.201523e-04 2.441441e-04 1.304607e-04 4.126357e-04 8.177543e-05 5.222341e-04 1.010350e-04 5.405264e-04 9.335381e-05 5.320559e-05 -6.216896e-04 -1.044936e-03 -1.640230e-03 -1.329863e-03 -1.813916e-03 -7.101049e-04 -9.923918e-04 -7.447977e-04 -1.432277e-04 -2.179748e-03 -4.296363e-04 -5.196400e-03 -3.156718e-03 -8.621036e-03 -8.339522e-03 -1.046476e-02 -1.011742e-02 -8.990076e-03 -3.557174e-03 -4.749698e-03 1.433162e-03 -1.788544e-03 1.834944e-03 -6.476158e-04 8.375590e-04 -2.569162e-04 1.793341e-04 -9.635835e-05 -4.287769e-05 -1.843428e-05 -6.095741e-05 2.558436e-05 
-1.367730e-05 9.563551e-05 1.144498e-04 2.198765e-04 3.067811e-04 4.600101e-04 6.459278e-04 8.882143e-04 1.183363e-03 1.504759e-03 1.852711e-03 2.151993e-03 2.405171e-03 2.485804e-03 2.445909e-03 2.131494e-03 1.748481e-03 1.148648e-03 6.887710e-04 1.806762e-04 2.748910e-06 -1.082816e-04 5.762309e-05 3.896250e-04 5.735735e-04 1.175742e-03 9.025310e-04 1.409328e-03 3.907973e-04 1.169265e-04 -1.914406e-03 -3.384918e-03 -5.896775e-03 -6.579977e-03 -7.102791e-03 -4.809029e-03 -5.013435e-03 -2.061312e-03 -2.569216e-03 -1.722681e-03 -1.119297e-03 -4.690864e-03 -3.064140e-03 -1.311411e-02 -1.203266e-02 -2.473817e-02 -2.595204e-02 -2.944052e-02 -2.705570e-02 -2.122192e-02 -7.243815e-03 -7.462047e-03 3.736423e-03 -1.986600e-03 2.830622e-03 -1.108546e-03 5.655618e-04 -7.337089e-04 -2.422899e-04 -3.642679e-04 -2.787620e-04 -1.214036e-04 -1.427090e-04 7.552095e-06 