# vtk DataFile Version 2.0
Comment goes here
ASCII

DATASET STRUCTURED_POINTS
DIMENSIONS    64   64   1

ORIGIN    0.000   0.000   0.000
SPACING   0.0156250.015625   1.000

POINT_DATA   4096
SCALARS Omega double
LOOKUP_TABLE default

-9.045598e-05 -2.453040e-04 -4.246711e-04 -6.955937e-04 -1.034441e-03 -1.418314e-03 -1.743494e-03 -1.844216e-03 -1.419990e-03 -3.275423e-04 1.474732e-03 3.153512e-03 3.522714e-03 9.233300e-04 -3.579348e-03 -8.894554e-03 -9.953425e-03 -7.054197e-03 -2.928615e-03 -6.586661e-05 1.122250e-03 8.922691e-04 3.720439e-04 -3.406499e-04 -3.370574e-04 1.901573e-04 2.573046e-03 4.756115e-03 8.999544e-03 1.014200e-02 1.321971e-02 1.074980e-02 9.402833e-03 5.121216e-03 3.078367e-03 2.105791e-03 1.815352e-03 1.928804e-03 1.851545e-03 1.734770e-03 1.693250e-03 2.999017e-03 3.297832e-03 6.974365e-03 9.500741e-03 1.537532e-02 2.155240e-02 2.467219e-02 2.217670e-02 1.474894e-02 5.752525e-03 1.972009e-03 -7.755708e-04 6.359535e-04 1.686760e-04 1.212786e-03 7.788915e-04 9.355455e-04 6.166702e-04 4.792603e-04 3.260083e-04 1.749789e-04 1.092417e-04 -1.481601e-05 
-1.361905e-04 -2.561754e-04 -3.739023e-04 -5.478400e-04 -7.221965e-04 -8.994173e-04 -9.822904e-04 -9.152119e-04 -5.526939e-04 7.697135e-05 9.388888e-04 1.568363e-03 1.611975e-03 4.337713e-04 -1.200102e-03 -3.023924e-03 -3.291762e-03 -2.129676e-03 -5.379851e-04 5.484882e-04 1.077890e-03 9.689256e-04 7.153032e-04 4.143078e-04 3.692590e-04 5.568865e-04 1.517312e-03 2.134668e-03 3.845299e-03 3.767986e-03 4.934484e-03 3.693942e-03 3.301845e-03 1.871285e-03 1.190784e-03 1.173553e-03 1.029549e-03 1.135882e-03 9.996699e-04 7.803705e-04 6.210735e-04 8.121605e-04 7.906093e-04 1.806959e-03 2.853621e-03 4.741743e-03 6.875607e-03 7.730501e-03 6.514231e-03 3.926210e-03 7.574262e-04 -3.372463e-04 -1.181137e-03 -1.920141e-04 -3.039333e-04 5.362799e-04 2.796418e-04 5.639336e-04 3.104201e-04 3.134124e-04 1.666988e-04 9.168189e-05 2.025983e-05 -7.074158e-05 
-7.614723e-05 -1.727624e-04 -2.572356e-04 -3.713746e-04 -4.618068e-04 -5.377589e-04 -5.280049e-04 -4.177090e-04 -1.475373e-04 2.390936e-04 6.626235e-04 9.088135e-04 8.121756e-04 1.724685e-04 -5.742444e-04 -1.374322e-03 -1.406768e-03 -9.516030e-04 -1.969463e-04 2.956262e-04 5.674308e-04 4.669644e-04 2.848319e-04 2.387986e-07 -8.462846e-05 -1.247650e-04 3.761411e-04 5.871573e-04 1.508679e-03 1.275093e-03 1.787968e-03 7.376402e-04 5.523578e-04 -3.534422e-04 -3.411079e-04 -2.708789e-04 1.037104e-06 2.507862e-04 3.279817e-04 3.368880e-04 1.552663e-04 2.129837e-04 -4.760322e-05 3.341392e-04 6.510935e-04 1.372685e-03 2.300567e-03 2.462887e-03 2.067325e-03 1.088677e-03 -2.535561e-04 -4.418239e-04 -1.016555e-03 -2.667499e-04 -4.259552e-04 2.320719e-04 9.144902e-05 3.709643e-04 2.332180e-04 2.737334e-04 1.762499e-04 1.264344e-04 6.249927e-05 -1.455731e-05 
-8.988650e-05 -1.542231e-04 -2.027179e-04 -2.680485e-04 -2.990868e-04 -3.192122e-04 -2.680595e-04 -1.664049e-04 2.617937e-05 2.451370e-04 4.586531e-04 5.273695e-04 4.245016e-04 5.246060e-05 -3.310663e-04 -7.053533e-04 -7.392873e-04 -5.245728e-04 -1.577061e-04 1.357373e-04 3.382345e-04 3.814240e-04 3.523826e-04 2.895923e-04 2.771175e-04 2.612374e-04 4.749574e-04 4.408922e-04 7.974105e-04 5.057876e-04 6.981821e-04 1.971736e-04 1.642918e-04 -1.066803e-04 -8.513879e-05 6.505684e-05 1.459317e-04 2.923452e-04 2.913048e-04 2.553387e-04 1.801305e-04 1.139029e-04 6.835498e-05 1.185427e-04 3.408242e-04 5.252560e-04 8.802071e-04 8.525796e-04 6.105154e-04 2.134425e-04 -3.613822e-04 -3.954565e-04 -6.531397e-04 -2.342889e-04 -3.276365e-04 9.797948e-05 -1.245037e-05 2.187980e-04 9.883535e-05 1.687887e-04 7.747076e-05 6.515168e-05 5.076088e-06 -4.215915e-05 
-4.812748e-05 -9.611744e-05 -1.289643e-04 -1.705754e-04 -1.810081e-04 -1.816274e-04 -1.320405e-04 -5.234955e-05 7.266962e-05 2.044352e-04 3.088867e-04 3.249763e-04 2.338205e-04 4.683359e-06 -2.193493e-04 -4.435360e-04 -4.680517e-04 -3.927775e-04 -1.995583e-04 -4.553833e-05 7.597480e-05 1.069414e-04 9.947859e-05 6.024266e-05 6.949590e-05 5.823654e-05 2.113484e-04 1.894593e-04 4.167992e-04 2.094574e-04 3.137491e-04 -8.095426e-05 -9.992507e-05 -3.659161e-04 -3.113240e-04 -2.796648e-04 -1.721142e-04 -5.581128e-05 -2.092968e-05 2.343970e-05 -3.404018e-05 -2.459658e-05 -7.921521e-05 -2.893951e-05 9.138869e-05 1.731871e-04 3.976394e-04 3.417315e-04 2.768474e-04 8.575343e-05 -2.259046e-04 -1.959801e-04 -4.325135e-04 -1.382304e-04 -2.690944e-04 4.732896e-05 -4.748381e-05 1.460545e-04 6.504225e-05 1.366125e-04 7.329268e-05 7.230643e-05 2.540175e-05 -9.574953e-06 
-5.061186e-05 -7.839078e-05 -9.438725e-05 -1.151330e-04 -1.080446e-04 -9.839546e-05 -5.016255e-05 6.151150e-06 9.117496e-05 1.630895e-04 2.178848e-04 2.091509e-04 1.452616e-04 8.471931e-06 -1.253260e-04 -2.450750e-04 -2.754143e-04 -2.309445e-04 -1.336802e-04 -2.247942e-05 6.380768e-05 1.281106e-04 1.514489e-04 1.685028e-04 1.853363e-04 1.797756e-04 2.455142e-04 1.909964e-04 2.785220e-04 1.312149e-04 1.696098e-04 -1.309012e-05 -1.853825e-05 -9.504188e-05 -8.130731e-05 -2.005410e-05 6.703874e-06 8.180289e-05 8.605428e-05 9.675016e-05 8.493446e-05 5.501568e-05 7.291475e-05 4.954076e-05 1.455837e-04 1.336888e-04 2.332654e-04 1.705649e-04 1.111771e-04 1.150420e-05 -1.588509e-04 -1.402427e-04 -2.738701e-04 -1.062935e-04 -1.909956e-04 1.057730e-05 -6.225920e-05 8.071125e-05 1.175856e-05 7.895717e-05 2.239653e-05 3.527195e-05 -5.600421e-06 -2.231935e-05 
-2.634103e-05 -4.595820e-05 -5.685932e-05 -7.020672e-05 -6.266108e-05 -5.364005e-05 -1.936056e-05 1.852503e-05 6.993169e-05 1.113613e-04 1.356210e-04 1.228131e-04 7.465832e-05 -1.337540e-05 -9.822848e-05 -1.788896e-04 -2.037219e-04 -1.938686e-04 -1.443627e-04 -8.535503e-05 -3.445959e-05 8.012143e-06 2.919284e-05 4.767437e-05 7.145512e-05 7.853255e-05 1.352031e-04 1.096055e-04 1.742704e-04 7.477308e-05 9.834700e-05 -5.161923e-05 -6.122004e-05 -1.610130e-04 -1.541941e-04 -1.531310e-04 -1.301093e-04 -8.246375e-05 -7.441821e-05 -3.992442e-05 -4.983323e-05 -3.620958e-05 -2.724819e-05 -1.972696e-05 4.747851e-05 4.370482e-05 1.261676e-04 8.265904e-05 7.425048e-05 1.832480e-05 -8.408699e-05 -6.023400e-05 -1.749018e-04 -5.210541e-05 -1.410612e-04 1.093841e-05 -5.692391e-05 5.858497e-05 4.234453e-06 6.408162e-05 2.165421e-05 3.721026e-05 5.797862e-06 -4.440452e-06 
-2.592046e-05 -3.496356e-05 -3.850964e-05 -4.345560e-05 -3.151505e-05 -2.222788e-05 6.974026e-06 3.161525e-05 6.722122e-05 8.888010e-05 1.021855e-04 8.930417e-05 5.724170e-05 4.960114e-06 -4.917440e-05 -9.197538e-05 -1.139677e-04 -1.019414e-04 -7.846826e-05 -3.065232e-05 2.632182e-06 4.679901e-05 6.649446e-05 9.135299e-05 1.058369e-04 1.085845e-04 1.302040e-04 1.022739e-04 1.229179e-04 6.132555e-05 6.471627e-05 -1.298603e-06 -1.053872e-05 -3.514774e-05 -3.947916e-05 -1.442218e-05 -1.215552e-05 2.425252e-05 2.605571e-05 4.048004e-05 4.578423e-05 3.627918e-05 6.004302e-05 3.929776e-05 8.690754e-05 5.924905e-05 9.743190e-05 5.713724e-05 3.915088e-05 4.044762e-06 -6.202517e-05 -4.764076e-05 -1.193184e-04 -4.447162e-05 -1.038439e-04 -4.565885e-06 -5.493509e-05 2.815076e-05 -1.585445e-05 3.361326e-05 -2.171883e-06 1.647339e-05 -9.313741e-06 -1.056781e-05 
-1.320845e-05 -1.927449e-05 -2.227293e-05 -2.587566e-05 -1.773857e-05 -1.190194e-05 6.848605e-06 2.170281e-05 4.209264e-05 5.312914e-05 5.710223e-05 4.544760e-05 2.142553e-05 -1.434634e-05 -5.062332e-05 -8.173523e-05 -9.866770e-05 -9.752732e-05 -8.654528e-05 -6.002366e-05 -3.964640e-05 -9.672467e-06 6.966049e-06 2.912115e-05 4.598038e-05 5.587429e-05 7.759306e-05 6.545340e-05 8.293820e-05 4.042454e-05 4.112280e-05 -1.722360e-05 -2.897994e-05 -6.862525e-05 -7.732088e-05 -7.988427e-05 -8.149842e-05 -6.131672e-05 -6.143158e-05 -4.144314e-05 -3.881734e-05 -2.910814e-05 -1.206676e-05 -1.281749e-05 2.474525e-05 1.235448e-05 4.935407e-05 2.476659e-05 2.623217e-05 6.631862e-06 -3.314147e-05 -1.781292e-05 -7.503882e-05 -1.736902e-05 -7.207399e-05 4.515148e-06 -4.155497e-05 2.504064e-05 -1.219982e-05 2.974441e-05 1.023646e-06 1.856148e-05 -1.877005e-06 -9.952590e-07 
-1.245166e-05 -1.355271e-05 -1.307408e-05 -1.323478e-05 -3.944732e-06 1.172223e-06 1.716002e-05 2.649310e-05 4.166181e-05 4.698684e-05 4.963898e-05 4.106354e-05 2.518959e-05 4.269719e-06 -1.998408e-05 -3.563776e-05 -4.935477e-05 -4.400183e-05 -4.029504e-05 -1.756580e-05 -5.636908e-06 2.011289e-05 3.065041e-05 4.872152e-05 5.642265e-05 6.152912e-05 6.750579e-05 5.692729e-05 5.847741e-05 3.521900e-05 2.916109e-05 6.479534e-06 -4.069051e-06 -1.042871e-05 -1.878434e-05 -6.403976e-06 -9.795055e-06 8.115447e-06 9.395619e-06 1.867122e-05 2.643767e-05 2.262849e-05 4.023561e-05 2.618747e-05 5.092401e-05 3.024744e-05 4.732411e-05 2.412569e-05 1.736887e-05 2.883273e-06 -2.697686e-05 -1.728807e-05 -5.646103e-05 -1.905761e-05 -5.718366e-05 -5.414554e-06 -3.935344e-05 8.673801e-06 -2.028877e-05 1.294611e-05 -9.958209e-06 6.791485e-06 -8.998724e-06 -4.465940e-06 
-6.130704e-06 -6.855137e-06 -7.321980e-06 -8.082628e-06 -2.412668e-06 -8.937109e-08 9.581377e-06 1.411498e-05 2.232678e-05 2.364849e-05 2.314368e-05 1.533089e-05 3.228492e-06 -1.234941e-05 -2.921571e-05 -4.170423e-05 -5.174973e-05 -5.093555e-05 -4.950726e-05 -3.598825e-05 -2.766942e-05 -9.311858e-06 4.058147e-07 1.640911e-05 2.581202e-05 3.438990e-05 4.229793e-05 3.897482e-05 4.156636e-05 2.520194e-05 1.936959e-05 -2.841142e-06 -1.435507e-05 -2.968970e-05 -4.042146e-05 -4.177259e-05 -4.801568e-05 -3.943875e-05 -4.074994e-05 -3.124494e-05 -2.630232e-05 -2.206528e-05 -8.083848e-06 -1.109148e-05 1.062950e-05 7.673395e-07 1.977030e-05 6.552949e-06 9.295172e-06 2.110629e-06 -1.515169e-05 -5.029570e-06 -3.475831e-05 -4.731550e-06 -3.745927e-05 3.350059e-06 -2.671313e-05 1.179352e-05 -1.326526e-05 1.420533e-05 -5.005386e-06 9.460912e-06 -3.629472e-06 7.263061e-07 
-5.594161e-06 -4.165694e-06 -2.549487e-06 -1.763463e-06 4.599816e-06 6.724898e-06 1.556142e-05 1.835555e-05 2.537002e-05 2.562165e-05 2.597323e-05 2.077574e-05 1.292198e-05 3.973211e-06 -7.613104e-06 -1.350727e-05 -2.148688e-05 -1.841246e-05 -1.928411e-05 -7.886657e-06 -3.968587e-06 1.019225e-05 1.485500e-05 2.614383e-05 2.916777e-05 3.416085e-05 3.439262e-05 3.218979e-05 2.853009e-05 2.149780e-05 1.386797e-05 7.673199e-06 -1.586218e-06 -1.439970e-06 -8.806094e-06 -1.874285e-06 -5.069747e-06 3.497139e-06 5.254243e-06 9.353839e-06 1.651240e-05 1.329375e-05 2.556419e-05 1.574790e-05 2.982275e-05 1.611123e-05 2.491280e-05 1.157678e-05 8.573259e-06 1.996567e-06 -1.319286e-05 -6.819531e-06 -2.911379e-05 -8.824508e-06 -3.275102e-05 -4.327029e-06 -2.659314e-05 1.467011e-06 -1.744251e-05 3.969312e-06 -1.052008e-05 2.186607e-06 -7.173860e-06 -1.726929e-06 
-2.438606e-06 -1.749338e-06 -1.323842e-06 -1.657631e-06 2.056329e-06 2.222425e-06 7.386395e-06 7.687160e-06 1.131565e-05 9.742892e-06 8.847965e-06 3.709033e-06 -2.342332e-06 -9.800200e-06 -1.792032e-05 -2.327927e-05 -2.873308e-05 -2.790912e-05 -2.824469e-05 -2.096529e-05 -1.725461e-05 -6.583172e-06 -1.313378e-06 8.915606e-06 1.365198e-05 2.024001e-05 2.259238e-05 2.341459e-05 2.153356e-05 1.660485e-05 9.913481e-06 2.381645e-06 -7.140260e-06 -1.251784e-05 -2.134082e-05 -2.187260e-05 -2.721101e-05 -2.419623e-05 -2.471211e-05 -2.171240e-05 -1.671296e-05 -1.670636e-05 -6.207618e-06 -1.026211e-05 3.358047e-06 -3.857896e-06 7.293746e-06 -9.013568e-08 2.524538e-06 -9.187769e-08 -8.171567e-06 -1.414277e-06 -1.751605e-05 -6.691860e-07 -2.017293e-05 2.621028e-06 -1.643680e-05 6.042724e-06 -1.024887e-05 7.053123e-06 -5.332901e-06 4.995011e-06 -3.054330e-06 1.238205e-06 
-2.094726e-06 -5.594480e-07 1.500488e-06 1.961987e-06 6.499513e-06 6.880195e-06 1.222998e-05 1.233558e-05 1.617418e-05 1.491293e-05 1.516296e-05 1.181962e-05 8.125343e-06 3.792925e-06 -1.788391e-06 -4.322852e-06 -8.669353e-06 -7.064446e-06 -8.404370e-06 -2.755315e-06 -1.650111e-06 5.798900e-06 7.519870e-06 1.410977e-05 1.471284e-05 1.870317e-05 1.703143e-05 1.810921e-05 1.369208e-05 1.305077e-05 6.476504e-06 6.293830e-06 -6.416131e-07 1.331195e-06 -3.710316e-06 1.140806e-07 -1.402550e-06 1.980413e-06 4.599138e-06 4.925778e-06 1.143513e-05 7.448973e-06 1.662297e-05 8.900076e-06 1.807981e-05 8.636351e-06 1.406104e-05 5.913239e-06 4.581500e-06 1.218409e-06 -7.165201e-06 -3.117010e-06 -1.627630e-05 -4.773955e-06 -1.965114e-05 -3.590768e-06 -1.773458e-05 -1.360717e-06 -1.320684e-05 1.621059e-08 -8.631513e-06 -6.788194e-08 -5.078160e-06 -7.857457e-07 
-3.992554e-07 -1.539714e-08 1.042695e-06 2.975113e-07 3.041336e-06 1.978611e-06 5.151090e-06 3.751645e-06 5.780650e-06 3.432062e-06 3.061452e-06 -5.829533e-07 -3.400514e-06 -7.521100e-06 -1.130071e-05 -1.398398e-05 -1.660639e-05 -1.613801e-05 -1.633475e-05 -1.248180e-05 -1.049614e-05 -4.530162e-06 -1.614554e-06 4.579147e-06 6.901128e-06 1.162071e-05 1.193537e-05 1.412534e-05 1.148277e-05 1.111993e-05 5.629729e-06 3.834487e-06 -3.030466e-06 -4.675165e-06 -1.066547e-05 -1.132284e-05 -1.447200e-05 -1.466142e-05 -1.387557e-05 -1.491043e-05 -9.985421e-06 -1.290696e-05 -4.620725e-06 -9.505397e-06 3.742795e-08 -5.760955e-06 1.775816e-06 -2.900636e-06 -4.403466e-07 -1.491244e-06 -5.275453e-06 -8.698505e-07 -9.717128e-06 5.834526e-08 -1.136487e-05 1.574478e-06 -9.952130e-06 2.964170e-06 -6.907414e-06 3.348982e-06 -3.908197e-06 2.498328e-06 -1.801071e-06 1.017997e-06 
-7.021264e-08 5.483512e-07 3.124534e-06 2.823936e-06 6.554163e-06 5.853191e-06 9.662191e-06 8.582735e-06 1.125279e-05 9.507199e-06 1.014133e-05 7.661876e-06 6.241174e-06 3.653851e-06 1.181329e-06 -3.321864e-07 -2.438206e-06 -1.938946e-06 -2.802978e-06 -3.124938e-07 -8.254058e-08 3.482674e-06 3.918687e-06 7.416277e-06 7.024067e-06 9.712117e-06 7.769939e-06 9.552635e-06 5.945904e-06 7.265073e-06 2.664394e-06 4.109133e-06 -1.381850e-07 1.611781e-06 -7.641131e-07 6.957624e-07 1.258591e-06 1.270126e-06 5.044602e-06 2.597127e-06 9.024484e-06 3.917932e-06 1.164969e-05 4.688350e-06 1.170321e-05 4.464299e-06 8.552017e-06 2.973770e-06 2.650504e-06 5.179735e-07 -4.222645e-06 -1.927721e-06 -9.715801e-06 -3.355200e-06 -1.225449e-05 -3.483815e-06 -1.177877e-05 -2.810510e-06 -9.351488e-06 -2.021154e-06 -6.216098e-06 -1.412411e-06 -3.097889e-06 -7.367586e-07 
9.621144e-07 2.998189e-07 2.191209e-06 7.023059e-07 3.268648e-06 1.386744e-06 3.856829e-06 1.678423e-06 3.270862e-06 6.965217e-07 9.234249e-07 -1.991147e-06 -3.003069e-06 -5.752634e-06 -7.226928e-06 -8.951711e-06 -9.880174e-06 -9.868155e-06 -9.622740e-06 -7.785810e-06 -6.446435e-06 -3.350693e-06 -1.586706e-06 1.892544e-06 3.153386e-06 6.201819e-06 6.105442e-06 8.185085e-06 6.285600e-06 7.220398e-06 3.789045e-06 3.717841e-06 -1.977134e-07 -1.049667e-06 -3.982908e-06 -5.595283e-06 -6.244904e-06 -8.875997e-06 -6.546616e-06 -1.047651e-05 -5.252215e-06 -1.041196e-05 -3.195646e-06 -8.973101e-06 -1.421731e-06 -6.734833e-06 -8.870541e-07 -4.450537e-06 -1.962629e-06 -2.680647e-06 -4.072958e-06 -1.496083e-06 -5.994687e-06 -6.321164e-07 -6.687937e-06 1.036353e-07 -5.913699e-06 6.468804e-07 -4.172987e-06 8.356244e-07 -2.192846e-06 6.609160e-07 -4.529295e-07 3.611110e-07 
1.496252e-06 7.369839e-07 4.150965e-06 2.889442e-06 6.537775e-06 4.997689e-06 8.255640e-06 6.485875e-06 8.783683e-06 6.763255e-06 7.787272e-06 5.621010e-06 5.492399e-06 3.532724e-06 2.784450e-06 1.518325e-06 8.001512e-07 5.438240e-07 2.340397e-07 9.085628e-07 9.248493e-07 2.133824e-06 2.053151e-06 3.378006e-06 2.726700e-06 3.967412e-06 2.499841e-06 3.685468e-06 1.567364e-06 2.763649e-06 6.189022e-07 1.682947e-06 4.508624e-07 9.019314e-07 1.515093e-06 6.375854e-07 3.657418e-06 8.252277e-07 6.202231e-06 1.256720e-06 8.276831e-06 1.727359e-06 9.120802e-06 2.044657e-06 8.260156e-06 1.965528e-06 5.630186e-06 1.254886e-06 1.703470e-06 -1.011817e-07 -2.533486e-06 -1.765159e-06 -5.926034e-06 -3.208945e-06 -7.668347e-06 -4.030333e-06 -7.606970e-06 -4.121202e-06 -6.136631e-06 -3.587534e-06 -3.848048e-06 -2.566574e-06 -1.217245e-06 -1.118958e-06 
2.186483e-06 1.086562e-07 3.191232e-06 7.723108e-07 3.722655e-06 1.119106e-06 3.532818e-06 8.099604e-07 2.393585e-06 -3.855168e-07 3.024348e-07 -2.355040e-06 -2.329548e-06 -4.531551e-06 -4.707218e-06 -6.075154e-06 -5.981749e-06 -6.301395e-06 -5.696259e-06 -5.052604e-06 -4.013894e-06 -2.734353e-06 -1.579174e-06 -5.358308e-08 8.251651e-07 2.281151e-06 2.576075e-06 3.723048e-06 3.356766e-06 3.940550e-06 3.176636e-06 2.849018e-06 2.299731e-06 6.335646e-07 1.103027e-06 -2.275925e-06 -7.749177e-08 -5.283875e-06 -1.033113e-06 -7.737366e-06 -1.684233e-06 -9.070286e-06 -2.058744e-06 -8.999296e-06 -2.288074e-06 -7.695886e-06 -2.570355e-06 -5.763706e-06 -3.040787e-06 -3.940976e-06 -3.622658e-06 -2.711027e-06 -4.027348e-06 -2.125247e-06 -3.942330e-06 -1.931277e-06 -3.240730e-06 -1.823125e-06 -2.036771e-06 -1.601146e-06 -5.805021e-07 -1.190689e-06 8.844343e-07 -5.980866e-07 
3.172042e-06 7.642683e-07 5.426297e-06 3.071226e-06 7.124870e-06 4.773088e-06 7.950275e-06 5.565276e-06 7.747263e-06 5.382490e-06 6.648917e-06 4.479943e-06 5.095552e-06 3.358172e-06 3.656491e-06 2.501977e-06 2.714135e-06 2.083433e-06 2.233201e-06 1.873516e-06 1.824822e-06 1.464319e-06 1.086488e-06 6.339450e-07 -3.120074e-08 -4.384193e-07 -1.103068e-06 -1.278198e-06 -1.453259e-06 -1.466561e-06 -5.869494e-07 -9.661225e-07 1.468354e-06 -1.535944e-07 4.153124e-06 4.671946e-07 6.671443e-06 6.205316e-07 8.344681e-06 4.018928e-07 8.813551e-06 1.365876e-07 8.058606e-06 8.458093e-08 6.310168e-06 1.959809e-07 3.923034e-06 9.904792e-08 1.284163e-06 -6.266274e-07 -1.212598e-06 -2.077800e-06 -3.173266e-06 -3.876033e-06 -4.263678e-06 -5.367445e-06 -4.306997e-06 -5.982362e-06 -3.335555e-06 -5.476374e-06 -1.556842e-06 -3.949070e-06 7.255328e-07 -1.726453e-06 
3.610393e-06 -1.213226e-07 4.586996e-06 1.114052e-06 4.843655e-06 1.474658e-06 4.124686e-06 7.937882e-07 2.448495e-06 -7.319072e-07 2.094625e-07 -2.540180e-06 -1.913371e-06 -3.920357e-06 -3.266734e-06 -4.385363e-06 -3.579979e-06 -3.948754e-06 -3.091721e-06 -3.066998e-06 -2.322686e-06 -2.270658e-06 -1.667717e-06 -1.775482e-06 -1.118322e-06 -1.371356e-06 -3.113237e-07 -6.764595e-07 1.120606e-06 4.126947e-07 3.131218e-06 1.432671e-06 5.117921e-06 1.539668e-06 6.226605e-06 1.030873e-07 5.875064e-06 -2.770506e-06 4.073654e-06 -6.198355e-06 1.376874e-06 -8.952469e-06 -1.384015e-06 -1.006647e-05 -3.423785e-06 -9.326466e-06 -4.313626e-06 -7.398989e-06 -4.148764e-06 -5.440580e-06 -3.406919e-06 -4.372141e-06 -2.571601e-06 -4.355662e-06 -1.840814e-06 -4.857568e-06 -1.124541e-06 -5.137000e-06 -2.371131e-07 -4.708586e-06 9.189643e-07 -3.511622e-06 2.276276e-06 -1.828631e-06 
5.330465e-06 1.088129e-06 7.450902e-06 3.938102e-06 8.703503e-06 5.498268e-06 8.730135e-06 5.616285e-06 7.607743e-06 4.676772e-06 5.919272e-06 3.493396e-06 4.512105e-06 2.886117e-06 3.974018e-06 3.121731e-06 4.165673e-06 3.646071e-06 4.237841e-06 3.417127e-06 3.220103e-06 1.664494e-06 7.829351e-07 -1.464643e-06 -2.354853e-06 -4.819642e-06 -4.656049e-06 -6.827898e-06 -4.588106e-06 -6.482092e-06 -1.628964e-06 -4.098038e-06 3.262124e-06 -1.162487e-06 8.176725e-06 7.149125e-07 1.138112e-05 8.516512e-07 1.210910e-05 -2.729823e-07 1.061910e-05 -1.560139e-06 7.830398e-06 -2.066813e-06 4.874368e-06 -1.598039e-06 2.610189e-06 -8.613491e-07 1.251749e-06 -9.860619e-07 4.411800e-07 -2.615267e-06 -2.455457e-07 -5.321680e-06 -8.641044e-07 -7.880660e-06 -1.105054e-06 -9.080960e-06 -6.003403e-07 -8.360583e-06 7.968863e-07 -5.921447e-06 2.918144e-06 -2.474311e-06 
5.496341e-06 -1.324755e-08 6.811826e-06 2.279095e-06 7.056570e-06 2.864983e-06 5.788258e-06 1.625528e-06 3.160888e-06 -8.091319e-07 6.144784e-08 -3.181547e-06 -2.230629e-06 -4.224499e-06 -2.825317e-06 -3.506922e-06 -1.911326e-06 -1.833309e-06 -6.907270e-07 -7.277430e-07 -4.870203e-07 -1.324170e-06 -1.718406e-06 -3.505697e-06 -3.488945e-06 -5.861503e-06 -4.035020e-06 -6.514001e-06 -1.845895e-06 -4.467923e-06 3.099292e-06 -6.264146e-07 8.940615e-06 2.560262e-06 1.298243e-05 2.808993e-06 1.339245e-05 -3.984590e-07 1.009148e-05 -5.633264e-06 4.442729e-06 -1.053168e-05 -1.502123e-06 -1.305659e-05 -5.708905e-06 -1.248540e-05 -6.954778e-06 -9.832251e-06 -5.490510e-06 -7.238333e-06 -2.815105e-06 -6.440602e-06 -5.281371e-07 -7.569355e-06 6.805212e-07 -9.336627e-06 1.115874e-06 -1.019356e-05 1.495195e-06 -9.304781e-06 2.358333e-06 -6.774373e-06 3.803391e-06 -3.346779e-06 
8.290867e-06 2.191774e-06 1.071984e-05 6.174274e-06 1.178790e-05 7.745961e-06 1.085839e-05 6.779280e-06 8.144031e-06 4.206077e-06 4.913421e-06 1.845532e-06 2.974826e-06 1.454491e-06 3.444723e-06 3.394773e-06 5.656393e-06 6.038028e-06 7.331843e-06 6.702876e-06 6.138072e-06 3.540000e-06 1.426904e-06 -3.066209e-06 -5.061893e-06 -1.042225e-05 -9.858823e-06 -1.482268e-05 -9.604371e-06 -1.382097e-05 -3.356348e-06 -8.176864e-06 6.347463e-06 -1.549225e-06 1.505639e-05 2.269018e-06 1.937050e-05 1.955081e-06 1.853209e-05 -1.113258e-06 1.390371e-05 -4.376071e-06 7.856632e-06 -5.679788e-06 2.962982e-06 -4.383586e-06 9.821920e-07 -1.896515e-06 1.774137e-06 -8.885419e-07 3.502845e-06 -3.112626e-06 4.326958e-06 -7.817523e-06 3.800960e-06 -1.242203e-05 2.775166e-06 -1.450313e-05 2.401160e-06 -1.314079e-05 3.332547e-06 -8.933760e-06 5.507008e-06 -3.298259e-06 
8.096005e-06 9.687108e-07 1.043533e-05 5.142093e-06 1.111554e-05 6.174732e-06 9.136021e-06 3.774413e-06 4.616074e-06 -8.830812e-07 -7.292689e-07 -5.185038e-06 -4.188648e-06 -6.370470e-06 -3.878375e-06 -3.601239e-06 -5.036571e-07 9.739484e-07 2.814453e-06 3.540254e-06 2.866265e-06 1.396150e-06 -1.198865e-06 -5.111480e-06 -7.126229e-06 -1.254463e-05 -1.059244e-05 -1.606652e-05 -7.636415e-06 -1.256126e-05 2.251660e-06 -3.586806e-06 1.480086e-05 5.031703e-06 2.362397e-05 7.660565e-06 2.476457e-05 2.954768e-06 1.852024e-05 -6.141463e-06 7.904968e-06 -1.502988e-05 -3.132223e-06 -1.977428e-05 -1.052787e-05 -1.870374e-05 -1.156791e-05 -1.363489e-05 -6.951932e-06 -9.093059e-06 -5.415063e-07 -8.734299e-06 3.831407e-06 -1.235566e-05 4.981681e-06 -1.671231e-05 4.161286e-06 -1.855982e-05 3.298223e-06 -1.663747e-05 3.650990e-06 -1.162476e-05 5.451575e-06 -5.157297e-06 
1.238601e-05 4.841757e-06 1.595815e-05 1.096387e-05 1.738368e-05 1.276369e-05 1.521400e-05 9.793241e-06 9.510465e-06 3.644818e-06 2.708487e-06 -1.872710e-06 -1.115981e-06 -2.587690e-06 9.067089e-07 2.684502e-06 7.458404e-06 1.029069e-05 1.320511e-05 1.390215e-05 1.265297e-05 9.091619e-06 4.143310e-06 -3.662841e-06 -8.924092e-06 -1.889617e-05 -1.936613e-05 -2.845739e-05 -1.967223e-05 -2.631661e-05 -7.378817e-06 -1.387635e-05 1.169216e-05 1.267632e-07 2.739231e-05 7.020431e-06 3.317388e-05 4.750595e-06 2.913179e-05 -2.805593e-06 1.897790e-05 -1.021524e-05 7.249477e-06 -1.318690e-05 -1.033759e-06 -9.981335e-06 -1.987044e-06 -3.261482e-06 3.602335e-06 5.960412e-07 1.031750e-05 -2.950074e-06 1.321556e-05 -1.209795e-05 1.164493e-05 -2.084892e-05 8.229397e-06 -2.429449e-05 5.867987e-06 -2.128817e-05 5.996335e-06 -1.361551e-05 8.524339e-06 -4.050111e-06 
1.165789e-05 3.747642e-06 1.636975e-05 1.129943e-05 1.853077e-05 1.330148e-05 1.574978e-05 8.638810e-06 7.521419e-06 -1.015326e-06 -3.065338e-06 -1.034139e-05 -9.916208e-06 -1.277084e-05 -8.165462e-06 -5.785016e-06 8.579461e-07 5.745125e-06 9.626408e-06 1.270409e-05 1.047035e-05 8.754358e-06 1.381680e-06 -5.640567e-06 -1.302102e-05 -2.343198e-05 -2.349703e-05 -3.361882e-05 -2.039622e-05 -2.759592e-05 -1.148154e-06 -7.731315e-06 2.472600e-05 1.200138e-05 4.218627e-05 1.824719e-05 4.343763e-05 9.048937e-06 3.119576e-05 -8.328039e-06 1.203631e-05 -2.503746e-05 -7.691442e-06 -3.398597e-05 -2.056405e-05 -3.116808e-05 -2.006290e-05 -1.960546e-05 -7.639576e-06 -9.821355e-06 6.724149e-06 -1.050576e-05 1.408535e-05 -2.003787e-05 1.328958e-05 -2.990083e-05 8.697719e-06 -3.327246e-05 4.948887e-06 -2.881516e-05 4.341421e-06 -1.898856e-05 6.977623e-06 -7.167682e-06 
1.796418e-05 1.033008e-05 2.433561e-05 2.044168e-05 2.753959e-05 2.321516e-05 2.408840e-05 1.677448e-05 1.279244e-05 2.985447e-06 -2.160854e-06 -1.047040e-05 -1.138597e-05 -1.325854e-05 -6.849114e-06 -1.113347e-06 9.471040e-06 1.808357e-05 2.507127e-05 2.944219e-05 2.712588e-05 2.283254e-05 1.183286e-05 -1.316120e-06 -1.459884e-05 -3.276359e-05 -3.814418e-05 -5.416603e-05 -4.163063e-05 -5.000493e-05 -1.732695e-05 -2.204758e-05 2.149393e-05 7.842433e-06 5.032308e-05 1.916218e-05 5.669609e-05 1.046544e-05 4.559210e-05 -7.028425e-06 2.604396e-05 -2.284954e-05 4.390475e-06 -2.975186e-05 -1.053223e-05 -2.260899e-05 -8.529671e-06 -5.283029e-06 8.949692e-06 6.233868e-06 2.664881e-05 -4.828170e-07 3.209520e-05 -2.008845e-05 2.594173e-05 -3.741027e-05 1.623370e-05 -4.251299e-05 9.615230e-06 -3.525258e-05 8.366011e-06 -2.076186e-05 1.178412e-05 -4.338297e-06 
1.634709e-05 9.821763e-06 2.604973e-05 2.355728e-05 3.228218e-05 2.819317e-05 2.942285e-05 1.985078e-05 1.428163e-05 -4.864459e-07 -8.358381e-06 -2.236787e-05 -2.448245e-05 -2.944532e-05 -2.051792e-05 -1.348106e-05 1.864287e-06 1.464712e-05 2.414398e-05 3.285003e-05 2.806341e-05 2.703478e-05 9.756419e-06 -1.960808e-06 -2.197865e-05 -4.140805e-05 -4.941719e-05 -6.801993e-05 -4.943534e-05 -5.797722e-05 -1.123381e-05 -1.293956e-05 4.354641e-05 3.143968e-05 7.691367e-05 4.235217e-05 7.442613e-05 2.057144e-05 4.969641e-05 -1.379231e-05 1.712534e-05 -4.530062e-05 -1.733122e-05 -6.349683e-05 -4.149948e-05 -5.728166e-05 -3.668418e-05 -2.897710e-05 -4.330278e-06 -5.267685e-06 2.780089e-05 -9.465798e-06 3.821909e-05 -3.410111e-05 2.935451e-05 -5.571945e-05 1.501203e-05 -6.043273e-05 5.336099e-06 -4.933957e-05 3.281743e-06 -3.002803e-05 7.730499e-06 -9.035833e-06 
2.527381e-05 2.059650e-05 3.759962e-05 3.818710e-05 4.628588e-05 4.463486e-05 4.313560e-05 3.338918e-05 2.197563e-05 3.811805e-06 -1.168529e-05 -2.954638e-05 -3.617470e-05 -4.035918e-05 -2.821743e-05 -1.385445e-05 1.065476e-05 3.255384e-05 4.957602e-05 6.248732e-05 5.850332e-05 5.436377e-05 3.120588e-05 9.587317e-06 -2.149067e-05 -5.534067e-05 -7.564588e-05 -1.057895e-04 -9.157382e-05 -9.927557e-05 -4.220209e-05 -3.331930e-05 4.175526e-05 3.291333e-05 9.497079e-05 4.774536e-05 9.454371e-05 1.949758e-05 6.742434e-05 -1.806671e-05 3.497015e-05 -4.902762e-05 -2.941979e-06 -6.656678e-05 -3.374176e-05 -5.352126e-05 -2.496464e-05 -8.716163e-06 2.417363e-05 2.435154e-05 6.761716e-05 8.484877e-06 7.358796e-05 -3.752786e-05 5.211549e-05 -7.240026e-05 2.723557e-05 -7.727376e-05 1.252892e-05 -5.877225e-05 9.461501e-06 -3.095561e-05 1.479488e-05 -3.248625e-06 
2.196128e-05 2.115318e-05 4.137130e-05 4.631995e-05 5.795038e-05 5.885192e-05 5.912425e-05 4.683168e-05 3.249405e-05 4.777821e-06 -1.789831e-05 -4.863256e-05 -5.991247e-05 -7.141086e-05 -5.390102e-05 -3.611196e-05 9.114346e-07 3.209943e-05 5.593511e-05 7.663398e-05 6.718987e-05 6.916806e-05 3.240352e-05 1.495700e-05 -3.225210e-05 -6.861561e-05 -1.003121e-04 -1.381139e-04 -1.172841e-04 -1.248647e-04 -3.891896e-05 -1.713045e-05 8.480936e-05 8.560245e-05 1.464683e-04 9.674167e-05 1.224092e-04 3.935851e-05 7.137109e-05 -2.635116e-05 2.476137e-05 -8.209683e-05 -3.254733e-05 -1.241196e-04 -8.645672e-05 -1.167548e-04 -7.322369e-05 -4.412070e-05 1.376162e-05 1.852769e-05 8.727193e-05 4.325380e-07 9.420242e-05 -6.532084e-05 5.852582e-05 -1.110996e-04 2.131625e-05 -1.122811e-04 1.394831e-06 -8.339445e-05 -1.659437e-06 -4.555260e-05 6.522821e-06 -9.910209e-06 
3.406524e-05 3.775150e-05 5.769976e-05 6.929436e-05 8.097708e-05 8.815572e-05 8.599173e-05 7.477742e-05 5.027316e-05 1.450020e-05 -2.628804e-05 -6.936747e-05 -9.473011e-05 -1.082344e-04 -8.534921e-05 -5.131376e-05 7.834256e-06 6.082378e-05 1.015809e-04 1.319425e-04 1.236735e-04 1.221865e-04 7.622682e-05 4.436390e-05 -2.223887e-05 -8.655057e-05 -1.475830e-04 -2.135744e-04 -2.100147e-04 -2.126573e-04 -1.069150e-04 -4.609505e-05 9.171620e-05 1.090574e-04 1.881440e-04 1.107944e-04 1.451759e-04 2.363230e-05 8.142391e-05 -4.694664e-05 4.624181e-05 -9.660172e-05 -1.292366e-05 -1.474503e-04 -9.253972e-05 -1.372320e-04 -7.290324e-05 -1.632007e-05 6.907367e-05 8.178986e-05 1.756019e-04 3.380339e-05 1.657675e-04 -8.356814e-05 9.727457e-05 -1.518668e-04 3.882286e-05 -1.442958e-04 1.169697e-05 -9.615668e-05 7.988995e-06 -4.309792e-05 1.693834e-05 1.103475e-06 
2.717805e-05 3.893734e-05 6.358482e-05 8.493032e-05 1.049231e-04 1.208418e-04 1.258025e-04 1.144102e-04 8.604402e-05 3.227613e-05 -2.744390e-05 -1.014027e-04 -1.442225e-04 -1.766014e-04 -1.435690e-04 -9.920600e-05 -6.205296e-06 6.979370e-05 1.279130e-04 1.702001e-04 1.480065e-04 1.577479e-04 8.562952e-05 6.978225e-05 -2.861059e-05 -9.450747e-05 -1.913688e-04 -2.826758e-04 -2.820020e-04 -2.881680e-04 -1.172759e-04 -1.046208e-05 1.922197e-04 2.407554e-04 2.977371e-04 2.146036e-04 1.774785e-04 5.292438e-05 7.172214e-05 -5.518062e-05 4.500559e-05 -1.323874e-04 -3.667669e-05 -2.456857e-04 -1.895981e-04 -2.712036e-04 -1.701775e-04 -7.088795e-05 8.553090e-05 1.109969e-04 2.577678e-04 3.264440e-05 2.209772e-04 -1.508295e-04 1.036760e-04 -2.395649e-04 1.863674e-05 -2.121567e-04 -1.344820e-05 -1.363151e-04 -1.312005e-05 -6.388450e-05 1.953847e-06 -8.098448e-06 
4.256617e-05 6.172276e-05 8.457084e-05 1.182816e-04 1.430457e-04 1.748158e-04 1.846092e-04 1.815743e-04 1.404144e-04 7.059715e-05 -3.113261e-05 -1.420727e-04 -2.288219e-04 -2.768801e-04 -2.371256e-04 -1.555316e-04 -5.209061e-06 1.242423e-04 2.181936e-04 2.758079e-04 2.471745e-04 2.529058e-04 1.694996e-04 1.434117e-04 2.041936e-05 -9.641693e-05 -2.640682e-04 -4.383722e-04 -5.033545e-04 -5.050778e-04 -2.895127e-04 -4.669913e-05 2.416191e-04 3.431925e-04 4.026049e-04 2.359371e-04 1.656265e-04 -3.048630e-05 2.037991e-05 -1.222529e-04 6.973083e-05 -1.525154e-04 1.050137e-05 -3.176646e-04 -2.504703e-04 -3.933057e-04 -2.352422e-04 -3.564262e-05 2.173945e-04 2.754698e-04 4.783783e-04 9.311830e-05 3.675200e-04 -2.270016e-04 1.622459e-04 -3.426594e-04 3.921687e-05 -2.708448e-04 2.182083e-06 -1.473997e-04 4.486154e-06 -5.033249e-05 1.860841e-05 1.205600e-05 