# vtk DataFile Version 2.0
Comment goes here
ASCII

DATASET STRUCTURED_POINTS
DIMENSIONS    64   64   1

ORIGIN    0.000   0.000   0.000
SPACING   0.0156250.015625   1.000

POINT_DATA   4096
SCALARS Omega double
LOOKUP_TABLE default

-2.438957e-05 -1.028898e-04 -2.527113e-04 -4.457474e-04 -7.337050e-04 -1.077386e-03 -1.421469e-03 -1.640943e-03 -1.460979e-03 -6.691018e-04 9.128995e-04 3.046600e-03 4.737611e-03 5.380037e-03 4.031684e-03 2.236762e-03 3.624806e-05 -1.153547e-03 -1.039334e-03 -9.805724e-04 2.166508e-04 -4.141062e-05 9.027387e-05 -7.795194e-04 -9.799970e-04 -7.894208e-04 7.089835e-04 3.042138e-03 6.139501e-03 8.463995e-03 1.020505e-02 9.395163e-03 6.759217e-03 3.434924e-03 1.586219e-03 1.379055e-03 1.309611e-03 1.590876e-03 1.189461e-03 1.051970e-03 6.823926e-04 1.073935e-03 1.263219e-03 2.802562e-03 5.286898e-03 9.145877e-03 1.429292e-02 1.745010e-02 1.421822e-02 8.005155e-03 8.026905e-04 -1.842387e-03 -1.875108e-03 -8.141689e-04 3.055252e-04 7.521637e-04 9.861928e-04 8.535928e-04 6.956794e-04 5.021629e-04 3.311738e-04 2.238410e-04 1.168809e-04 6.304866e-05 
-6.729424e-05 -1.483574e-04 -2.768669e-04 -4.307437e-04 -6.327409e-04 -8.434228e-04 -1.022006e-03 -1.073713e-03 -8.837311e-04 -3.401258e-04 5.220140e-04 1.586525e-03 2.274564e-03 2.434858e-03 1.591453e-03 5.328293e-04 -6.322788e-04 -1.221961e-03 -1.047833e-03 -7.847352e-04 2.130273e-06 1.774717e-04 4.486942e-04 3.260935e-04 3.240031e-04 5.040268e-04 1.075146e-03 1.758701e-03 2.865011e-03 3.089062e-03 3.518784e-03 2.499865e-03 1.504654e-03 2.336214e-04 -1.388863e-04 2.548572e-04 3.311122e-04 7.426767e-04 4.945815e-04 4.406046e-04 2.270121e-04 2.063855e-04 2.592220e-04 6.094952e-04 1.591292e-03 2.885015e-03 4.532885e-03 5.413022e-03 3.904668e-03 1.790642e-03 -8.252434e-04 -1.569827e-03 -1.514874e-03 -8.223569e-04 -1.743084e-04 2.269866e-04 4.553631e-04 4.653104e-04 4.210001e-04 3.238663e-04 2.265689e-04 1.502247e-04 6.974649e-05 1.401569e-05 
-2.982954e-05 -9.270827e-05 -1.828961e-04 -2.744874e-04 -3.794551e-04 -4.682731e-04 -5.065980e-04 -4.582049e-04 -2.597597e-04 9.699569e-05 5.591198e-04 1.047915e-03 1.242026e-03 1.190268e-03 6.071070e-04 3.748661e-05 -5.799406e-04 -8.548178e-04 -7.368605e-04 -6.620377e-04 -2.704367e-04 -3.108774e-04 -1.825778e-04 -3.441484e-04 -3.162705e-04 -2.230848e-04 1.161354e-04 5.671532e-04 1.112268e-03 1.322376e-03 1.381783e-03 8.342040e-04 3.184858e-04 -2.885267e-04 -3.467646e-04 -2.244066e-04 -1.388168e-06 1.908669e-04 1.880055e-04 1.682052e-04 5.136825e-06 -5.607639e-05 -1.473693e-04 -2.162273e-05 4.156094e-04 1.001374e-03 1.663152e-03 1.966576e-03 1.233703e-03 4.195762e-04 -7.273064e-04 -1.013340e-03 -1.000358e-03 -6.464119e-04 -2.333389e-04 3.495928e-05 2.578845e-04 3.025247e-04 3.242402e-04 2.720542e-04 2.171844e-04 1.576094e-04 9.190489e-05 4.044421e-05 
-6.573800e-05 -1.187859e-04 -1.892616e-04 -2.551205e-04 -3.245973e-04 -3.691847e-04 -3.757519e-04 -3.097855e-04 -1.604105e-04 8.828176e-05 3.634348e-04 6.399640e-04 7.184666e-04 6.535335e-04 2.957029e-04 -7.590599e-05 -4.574888e-04 -6.512514e-04 -6.145524e-04 -5.189406e-04 -2.621864e-04 -1.259909e-04 3.614222e-05 1.214055e-04 2.021299e-04 3.174996e-04 4.837568e-04 5.899590e-04 7.983312e-04 6.477374e-04 6.408535e-04 1.888705e-04 -1.776801e-06 -3.096464e-04 -2.941740e-04 -1.604844e-04 -6.399254e-05 1.185831e-04 9.981461e-05 1.292542e-04 6.868853e-05 3.141065e-05 5.095048e-05 8.527475e-05 3.235841e-04 5.352999e-04 7.567698e-04 8.171065e-04 4.174046e-04 6.721185e-05 -4.883906e-04 -6.049639e-04 -6.514734e-04 -4.503662e-04 -2.488936e-04 -6.196981e-05 7.759987e-05 1.368627e-04 1.651264e-04 1.480190e-04 1.188678e-04 8.096901e-05 3.373509e-05 -8.533821e-06 
-2.041250e-05 -5.674749e-05 -1.013288e-04 -1.366212e-04 -1.671705e-04 -1.759710e-04 -1.540233e-04 -8.937224e-05 2.072134e-05 1.747607e-04 3.198468e-04 4.539888e-04 4.499242e-04 3.866301e-04 1.464384e-04 -6.686418e-05 -3.020152e-04 -4.272054e-04 -4.309221e-04 -4.251135e-04 -3.001510e-04 -2.763034e-04 -1.817893e-04 -1.575532e-04 -8.374609e-05 9.140800e-06 1.375838e-04 2.724932e-04 3.996279e-04 3.959427e-04 3.706892e-04 1.504279e-04 2.612068e-05 -1.795346e-04 -1.777357e-04 -1.895230e-04 -1.054236e-04 -5.582061e-05 -2.659096e-05 -2.024181e-05 -4.706784e-05 -5.779181e-05 -5.091323e-05 -2.276741e-06 1.310870e-04 2.705474e-04 3.782995e-04 4.182319e-04 2.039304e-04 3.962845e-05 -2.694140e-04 -3.429468e-04 -3.942355e-04 -2.998733e-04 -1.787071e-04 -6.712069e-05 4.330787e-05 8.981808e-05 1.296155e-04 1.237461e-04 1.132934e-04 8.662762e-05 5.388190e-05 2.145491e-05 
-4.966896e-05 -7.706387e-05 -1.099132e-04 -1.328084e-04 -1.513928e-04 -1.491276e-04 -1.272947e-04 -7.157425e-05 7.084042e-06 1.152351e-04 2.077586e-04 2.915206e-04 2.874243e-04 2.440210e-04 9.800907e-05 -4.237901e-05 -1.964715e-04 -2.834725e-04 -3.060159e-04 -2.809344e-04 -2.045760e-04 -1.253747e-04 -4.413455e-05 3.988925e-05 1.038669e-04 1.782072e-04 2.484397e-04 2.725172e-04 3.284405e-04 2.371534e-04 2.269480e-04 4.517084e-05 7.216866e-07 -1.240312e-04 -1.164017e-04 -1.031244e-04 -6.702466e-05 -5.388893e-06 6.140940e-06 3.644673e-05 3.538631e-05 3.992950e-05 6.914815e-05 8.962719e-05 1.671333e-04 2.154324e-04 2.459504e-04 2.395904e-04 1.037307e-04 1.276009e-05 -1.700513e-04 -2.101735e-04 -2.647564e-04 -2.088595e-04 -1.578283e-04 -8.154850e-05 -2.060936e-05 2.055355e-05 4.661350e-05 5.107448e-05 4.520272e-05 2.984968e-05 6.185858e-06 -1.763777e-05 
-1.060247e-05 -2.794320e-05 -4.698838e-05 -5.772127e-05 -6.330173e-05 -5.448479e-05 -3.268093e-05 8.369325e-06 5.896165e-05 1.234859e-04 1.684314e-04 2.089812e-04 1.870877e-04 1.534920e-04 5.135337e-05 -3.443420e-05 -1.371560e-04 -1.987982e-04 -2.250763e-04 -2.325496e-04 -1.963334e-04 -1.718283e-04 -1.211843e-04 -7.834008e-05 -2.689703e-05 3.468374e-05 9.138134e-05 1.439859e-04 1.826624e-04 1.695395e-04 1.575947e-04 6.855929e-05 3.151112e-05 -6.003806e-05 -6.349255e-05 -9.752803e-05 -7.050613e-05 -6.735974e-05 -4.694725e-05 -4.050356e-05 -3.260236e-05 -2.352311e-05 -3.097876e-06 2.606753e-05 7.139957e-05 1.160839e-04 1.308143e-04 1.391855e-04 5.985692e-05 1.633296e-05 -9.413263e-05 -1.191841e-04 -1.588871e-04 -1.320225e-04 -1.009231e-04 -5.626009e-05 -9.899539e-06 1.803028e-05 4.419716e-05 4.899019e-05 5.078548e-05 4.073307e-05 2.673103e-05 1.018997e-05 
-3.375880e-05 -4.546332e-05 -5.863573e-05 -6.408498e-05 -6.598425e-05 -5.555017e-05 -3.722057e-05 -4.106151e-06 3.296342e-05 7.936994e-05 1.107750e-04 1.381038e-04 1.259444e-04 1.040930e-04 4.043594e-05 -1.550245e-05 -8.467983e-05 -1.230281e-04 -1.480806e-04 -1.401085e-04 -1.205290e-04 -7.843662e-05 -4.228997e-05 9.908880e-06 4.597473e-05 8.769688e-05 1.201670e-04 1.280673e-04 1.478162e-04 1.044825e-04 1.018487e-04 2.539011e-05 1.358751e-05 -4.455941e-05 -4.237368e-05 -5.204455e-05 -3.822488e-05 -1.915231e-05 -7.642979e-06 1.143948e-05 2.158480e-05 3.424218e-05 5.342083e-05 6.725505e-05 9.238343e-05 1.055732e-04 1.032247e-04 9.522196e-05 3.917976e-05 9.147792e-06 -6.394794e-05 -7.947819e-05 -1.146069e-04 -9.748375e-05 -8.947456e-05 -5.830880e-05 -3.587242e-05 -1.313801e-05 9.343921e-07 8.120212e-06 8.035608e-06 3.253790e-06 -7.416805e-06 -1.838456e-05 
-4.113736e-06 -1.102751e-05 -1.788800e-05 -1.958344e-05 -1.832086e-05 -9.266727e-06 4.177533e-06 2.610684e-05 4.759305e-05 7.430692e-05 8.686333e-05 9.907998e-05 8.199165e-05 6.477493e-05 1.756696e-05 -1.926500e-05 -6.790167e-05 -9.682967e-05 -1.177364e-04 -1.225348e-04 -1.136374e-04 -9.680447e-05 -7.268078e-05 -4.191863e-05 -1.335799e-05 2.253443e-05 4.917754e-05 7.346211e-05 8.813148e-05 8.134131e-05 7.705839e-05 3.908243e-05 2.632610e-05 -1.722621e-05 -2.018607e-05 -4.558540e-05 -3.631219e-05 -4.283876e-05 -3.098526e-05 -2.799233e-05 -1.725754e-05 -8.162214e-06 5.687625e-06 2.184476e-05 3.680966e-05 5.400851e-05 5.115332e-05 5.448136e-05 1.977481e-05 7.572348e-06 -3.806185e-05 -4.571897e-05 -6.898703e-05 -5.946470e-05 -5.400602e-05 -3.523618e-05 -1.759966e-05 -2.665312e-06 1.083808e-05 1.623717e-05 1.961549e-05 1.682939e-05 1.175620e-05 4.716176e-06 
-2.195386e-05 -2.574323e-05 -2.990482e-05 -2.937634e-05 -2.685408e-05 -1.806661e-05 -6.436598e-06 1.127899e-05 2.835060e-05 4.837799e-05 5.899085e-05 6.816732e-05 5.879642e-05 4.805784e-05 1.800079e-05 -5.277415e-06 -3.872024e-05 -5.489709e-05 -7.230018e-05 -6.822148e-05 -6.533858e-05 -4.328234e-05 -2.842287e-05 3.060775e-07 1.820550e-05 4.048902e-05 5.587046e-05 5.980608e-05 6.820326e-05 4.874779e-05 4.859090e-05 1.504407e-05 1.175583e-05 -1.621189e-05 -1.508065e-05 -2.463505e-05 -1.827584e-05 -1.289457e-05 -4.886514e-06 5.402047e-06 1.416930e-05 2.392555e-05 3.429863e-05 4.260157e-05 5.026502e-05 5.458613e-05 4.804740e-05 4.344662e-05 1.708183e-05 5.865191e-06 -2.719763e-05 -3.323919e-05 -5.376116e-05 -4.768379e-05 -5.050079e-05 -3.716576e-05 -3.069327e-05 -1.881766e-05 -1.299949e-05 -7.322552e-06 -6.800936e-06 -7.223664e-06 -1.165492e-05 -1.555758e-05 
-5.778745e-07 -2.595548e-06 -4.334100e-06 -3.363005e-06 -9.927215e-07 5.088134e-06 1.232835e-05 2.312965e-05 3.182848e-05 4.263171e-05 4.501802e-05 4.809540e-05 3.692331e-05 2.777257e-05 4.287685e-06 -1.240262e-05 -3.682773e-05 -5.001535e-05 -6.332152e-05 -6.499606e-05 -6.395547e-05 -5.339787e-05 -4.248962e-05 -2.373360e-05 -9.049692e-06 1.121338e-05 2.429684e-05 3.708127e-05 4.378078e-05 4.151817e-05 4.023747e-05 2.361356e-05 1.879052e-05 -2.375019e-06 -4.034997e-06 -1.947992e-05 -1.583595e-05 -2.235094e-05 -1.578481e-05 -1.530027e-05 -7.891981e-06 -2.621381e-06 4.907301e-06 1.312876e-05 1.781487e-05 2.530054e-05 2.062418e-05 2.271736e-05 5.883565e-06 2.897654e-06 -1.806234e-05 -1.964699e-05 -3.271842e-05 -2.822609e-05 -2.935299e-05 -2.067205e-05 -1.473198e-05 -6.740937e-06 -6.239280e-07 3.525186e-06 5.982855e-06 6.087853e-06 4.722440e-06 2.494094e-06 
-1.409794e-05 -1.442929e-05 -1.496149e-05 -1.292712e-05 -9.881783e-06 -4.033608e-06 2.890200e-06 1.194882e-05 2.002568e-05 2.867125e-05 3.230086e-05 3.523756e-05 2.933126e-05 2.390147e-05 8.905895e-06 -1.179001e-06 -1.817370e-05 -2.481486e-05 -3.558114e-05 -3.289382e-05 -3.431315e-05 -2.267371e-05 -1.714747e-05 -1.889403e-06 6.271155e-06 1.812334e-05 2.525606e-05 2.786344e-05 3.165321e-05 2.330097e-05 2.356668e-05 8.594573e-06 7.709705e-06 -5.801154e-06 -4.890938e-06 -1.110170e-05 -7.534468e-06 -6.406272e-06 -1.159970e-06 3.832428e-06 9.754354e-06 1.543365e-05 2.090786e-05 2.537626e-05 2.756698e-05 2.917577e-05 2.400295e-05 2.164546e-05 8.176183e-06 3.598803e-06 -1.285543e-05 -1.526364e-05 -2.728122e-05 -2.476143e-05 -2.932841e-05 -2.322314e-05 -2.267738e-05 -1.639779e-05 -1.479053e-05 -1.083525e-05 -1.074712e-05 -9.598591e-06 -1.133597e-05 -1.189589e-05 
1.148328e-06 1.136341e-06 1.231696e-06 2.594629e-06 4.558312e-06 8.020450e-06 1.171008e-05 1.662129e-05 1.997419e-05 2.396556e-05 2.350060e-05 2.353268e-05 1.664775e-05 1.148199e-05 -7.738356e-07 -8.742913e-06 -2.147120e-05 -2.743566e-05 -3.529295e-05 -3.542400e-05 -3.623781e-05 -2.978833e-05 -2.495628e-05 -1.400688e-05 -6.645015e-06 4.882030e-06 1.150932e-05 1.895103e-05 2.239712e-05 2.239311e-05 2.217385e-05 1.501788e-05 1.309559e-05 2.770161e-06 1.968730e-06 -6.859320e-06 -5.192711e-06 -1.008666e-05 -6.479091e-06 -7.390560e-06 -3.003389e-06 -9.351200e-07 2.958518e-06 6.583701e-06 8.007125e-06 1.128998e-05 7.873429e-06 9.196481e-06 6.122598e-07 2.939575e-07 -1.005362e-05 -9.761688e-06 -1.711831e-05 -1.447860e-05 -1.670157e-05 -1.218935e-05 -1.065527e-05 -6.126870e-06 -3.637349e-06 -6.256354e-07 8.081479e-07 1.937532e-06 1.892741e-06 1.822238e-06 
-9.055272e-06 -8.115576e-06 -7.461356e-06 -5.437516e-06 -2.912643e-06 6.367369e-07 4.786140e-06 9.244995e-06 1.336320e-05 1.694027e-05 1.838337e-05 1.899578e-05 1.572775e-05 1.273404e-05 5.171145e-06 5.183039e-07 -8.257845e-06 -1.100615e-05 -1.732364e-05 -1.553978e-05 -1.758470e-05 -1.135435e-05 -9.766844e-06 -1.645840e-06 1.607378e-06 8.076233e-06 1.103293e-05 1.300005e-05 1.450586e-05 1.123344e-05 1.134136e-05 4.737956e-06 4.574130e-06 -1.917266e-06 -1.046612e-06 -4.696396e-06 -2.276846e-06 -2.526801e-06 1.060567e-06 3.048831e-06 6.990401e-06 9.629713e-06 1.277982e-05 1.477434e-05 1.549779e-05 1.594889e-05 1.269832e-05 1.139615e-05 4.217814e-06 2.151722e-06 -6.595106e-06 -7.623677e-06 -1.479751e-05 -1.362536e-05 -1.760015e-05 -1.460219e-05 -1.590453e-05 -1.243982e-05 -1.262892e-05 -9.912222e-06 -1.021602e-05 -8.659389e-06 -9.352487e-06 -8.552601e-06 
1.996200e-06 2.657082e-06 3.224435e-06 4.301095e-06 5.622596e-06 7.310548e-06 9.105842e-06 1.097007e-05 1.213348e-05 1.311792e-05 1.211969e-05 1.112186e-05 7.034547e-06 3.868404e-06 -2.630844e-06 -6.676169e-06 -1.335505e-05 -1.607576e-05 -2.047184e-05 -2.007653e-05 -2.096997e-05 -1.704934e-05 -1.488525e-05 -8.509506e-06 -4.819636e-06 1.908479e-06 5.346507e-06 1.002350e-05 1.192611e-05 1.287090e-05 1.301348e-05 1.018406e-05 9.458668e-06 4.444933e-06 4.154203e-06 -9.083851e-07 1.223835e-08 -3.610441e-06 -1.553425e-06 -3.262581e-06 -7.038245e-07 -7.511241e-07 1.383183e-06 2.336780e-06 2.911879e-06 4.015684e-06 2.083741e-06 2.713652e-06 -1.628622e-06 -1.360869e-06 -6.586670e-06 -5.914364e-06 -9.991025e-06 -8.289886e-06 -1.011407e-05 -7.519655e-06 -7.413426e-06 -4.647995e-06 -3.714142e-06 -1.491555e-06 -6.911286e-07 7.042792e-07 1.048038e-06 1.820411e-06 
-5.753228e-06 -4.506307e-06 -3.659413e-06 -2.056235e-06 -2.151748e-07 1.797745e-06 4.347463e-06 6.356152e-06 8.701659e-06 9.891684e-06 1.078460e-05 1.040981e-05 8.982243e-06 7.047421e-06 3.513654e-06 1.100285e-06 -3.215322e-06 -4.448551e-06 -7.925889e-06 -6.800161e-06 -8.513784e-06 -5.093670e-06 -5.172062e-06 -7.103846e-07 3.693960e-08 3.780386e-06 4.491780e-06 6.095980e-06 6.330493e-06 5.368082e-06 5.280235e-06 2.492493e-06 2.668518e-06 -5.069744e-07 5.189106e-07 -1.772158e-06 2.877480e-07 -6.303957e-07 2.161289e-06 2.336600e-06 5.225370e-06 5.853408e-06 8.005725e-06 8.444765e-06 8.956028e-06 8.769483e-06 7.019397e-06 6.161128e-06 2.335254e-06 1.268244e-06 -3.511948e-06 -4.035527e-06 -8.335004e-06 -7.802082e-06 -1.074289e-05 -9.228709e-06 -1.081636e-05 -8.844175e-06 -9.617805e-06 -7.745192e-06 -8.217565e-06 -6.717267e-06 -7.035305e-06 -5.821869e-06 
2.582620e-06 3.356526e-06 3.939985e-06 4.589762e-06 5.362093e-06 5.900393e-06 6.648284e-06 6.881953e-06 7.087868e-06 6.666484e-06 5.727276e-06 4.388893e-06 2.035255e-06 -6.410621e-08 -3.422890e-06 -5.575638e-06 -8.922510e-06 -1.013115e-05 -1.236634e-05 -1.185613e-05 -1.238926e-05 -1.000288e-05 -8.985899e-06 -5.259703e-06 -3.400573e-06 6.171584e-07 2.445530e-06 5.541018e-06 6.699588e-06 7.948645e-06 8.306165e-06 7.464725e-06 7.404277e-06 4.965160e-06 5.082718e-06 1.937504e-06 2.644524e-06 -3.686643e-07 9.532456e-07 -1.395869e-06 2.236955e-07 -1.261874e-06 1.211112e-07 -5.805395e-07 -4.208863e-08 -2.295585e-07 -9.639626e-07 -9.143687e-07 -2.841652e-06 -2.624868e-06 -5.067701e-06 -4.517916e-06 -6.572898e-06 -5.508665e-06 -6.600991e-06 -5.054037e-06 -5.187847e-06 -3.416106e-06 -2.988798e-06 -1.312291e-06 -7.512096e-07 6.171102e-07 1.104127e-06 2.126211e-06 
-3.389364e-06 -2.218885e-06 -1.505736e-06 -3.756877e-07 8.369841e-07 1.832087e-06 3.361386e-06 3.983522e-06 5.413359e-06 5.358992e-06 6.170535e-06 5.283571e-06 5.117792e-06 3.623052e-06 2.513044e-06 1.058690e-06 -5.724064e-07 -1.186534e-06 -2.797767e-06 -2.063745e-06 -3.323431e-06 -1.322498e-06 -2.226841e-06 4.117707e-07 -3.188906e-07 2.085389e-06 1.403508e-06 2.827415e-06 2.281977e-06 2.377004e-06 2.254120e-06 1.154219e-06 1.777386e-06 -2.807492e-08 1.493705e-06 -4.383609e-07 1.840183e-06 2.050281e-07 2.836310e-06 1.666124e-06 4.116875e-06 3.358480e-06 5.095934e-06 4.563750e-06 5.160926e-06 4.644502e-06 3.910610e-06 3.301349e-06 1.414351e-06 8.001857e-07 -1.703814e-06 -2.075207e-06 -4.538860e-06 -4.431943e-06 -6.388682e-06 -5.741720e-06 -7.060683e-06 -6.004541e-06 -6.799519e-06 -5.549906e-06 -5.981465e-06 -4.712788e-06 -4.842069e-06 -3.626341e-06 
3.331749e-06 4.009694e-06 4.570351e-06 4.788742e-06 5.153807e-06 4.874866e-06 4.921136e-06 4.157776e-06 3.748585e-06 2.576733e-06 1.637513e-06 2.248379e-07 -1.166406e-06 -2.544674e-06 -4.121866e-06 -5.120204e-06 -6.502244e-06 -6.802680e-06 -7.650274e-06 -7.072745e-06 -7.229604e-06 -5.793721e-06 -5.326278e-06 -3.252747e-06 -2.387092e-06 -6.705364e-08 9.206210e-07 2.980105e-06 3.870218e-06 5.146433e-06 5.852173e-06 5.950907e-06 6.536868e-06 5.323918e-06 5.949341e-06 3.601506e-06 4.413960e-06 1.370255e-06 2.413349e-06 -7.461129e-07 4.332690e-07 -2.283717e-06 -1.178810e-06 -3.088490e-06 -2.320498e-06 -3.359706e-06 -3.132830e-06 -3.499167e-06 -3.832361e-06 -3.798588e-06 -4.474394e-06 -4.199453e-06 -4.863102e-06 -4.348377e-06 -4.698087e-06 -3.887332e-06 -3.807851e-06 -2.708424e-06 -2.267531e-06 -9.953506e-07 -3.476029e-07 9.084973e-07 1.617277e-06 2.661181e-06 
-1.379271e-06 -4.045305e-07 1.492435e-07 8.456196e-07 1.485719e-06 1.746798e-06 2.413872e-06 2.130654e-06 2.803339e-06 1.973719e-06 2.655750e-06 1.443519e-06 2.117667e-06 8.573747e-07 1.429915e-06 5.388665e-07 8.219365e-07 6.426392e-07 4.055032e-07 1.066106e-06 1.413424e-07 1.518332e-06 -8.098504e-08 1.706197e-06 -2.953989e-07 1.514145e-06 -3.710995e-07 1.054775e-06 -8.992390e-08 5.636176e-07 6.530037e-07 2.386793e-07 1.709582e-06 1.597904e-07 2.743014e-06 3.165948e-07 3.435199e-06 6.607838e-07 3.652633e-06 1.119508e-06 3.466326e-06 1.589170e-06 3.051578e-06 1.936654e-06 2.540305e-06 2.001840e-06 1.910286e-06 1.617378e-06 1.008029e-06 6.914874e-07 -2.754147e-07 -6.740962e-07 -1.821555e-06 -2.156210e-06 -3.280168e-06 -3.338672e-06 -4.250749e-06 -3.904195e-06 -4.483737e-06 -3.747453e-06 -3.959364e-06 -2.962463e-06 -2.840216e-06 -1.762032e-06 
4.619912e-06 5.170139e-06 5.886884e-06 5.682222e-06 5.757837e-06 4.757960e-06 4.110297e-06 2.533611e-06 1.330763e-06 -3.781282e-07 -1.745719e-06 -3.070660e-06 -4.162826e-06 -4.748920e-06 -5.310379e-06 -5.130781e-06 -5.214303e-06 -4.536060e-06 -4.408323e-06 -3.577404e-06 -3.487837e-06 -2.701180e-06 -2.697787e-06 -1.917203e-06 -1.823895e-06 -8.718161e-07 -4.206926e-07 7.958724e-07 1.763127e-06 3.024428e-06 4.420650e-06 5.140353e-06 6.680308e-06 6.142983e-06 7.545831e-06 5.327536e-06 6.486301e-06 2.763854e-06 3.743761e-06 -7.217069e-07 2.083151e-07 -3.974923e-06 -2.985777e-06 -6.047115e-06 -4.950471e-06 -6.597296e-06 -5.447029e-06 -5.997004e-06 -4.955320e-06 -5.029075e-06 -4.266771e-06 -4.325420e-06 -3.872956e-06 -3.969362e-06 -3.667058e-06 -3.562727e-06 -3.159665e-06 -2.622730e-06 -1.930218e-06 -9.472288e-07 6.401757e-08 1.265800e-06 2.455626e-06 3.513336e-06 
7.514569e-07 1.565651e-06 2.093081e-06 2.429424e-06 2.470640e-06 2.130057e-06 1.710474e-06 6.893861e-07 2.098233e-07 -1.242728e-06 -1.151650e-06 -2.584449e-06 -1.460422e-06 -2.404293e-06 -3.816032e-07 -5.716182e-07 1.526905e-06 2.053354e-06 3.112396e-06 4.118675e-06 3.347088e-06 4.608168e-06 1.966758e-06 3.407983e-06 -3.269431e-07 1.310220e-06 -2.186168e-06 -4.936083e-07 -2.363251e-06 -1.145999e-06 -5.302889e-07 -6.218618e-07 2.428318e-06 3.971118e-07 4.984976e-06 1.136776e-06 5.956511e-06 1.233918e-06 5.110828e-06 7.818799e-07 3.110680e-06 1.329827e-07 1.070936e-06 -2.756346e-07 -1.276887e-08 -1.279711e-07 1.691536e-07 4.863655e-07 1.009546e-06 1.009357e-06 1.439824e-06 8.234921e-07 7.965221e-07 -1.983163e-07 -6.933197e-07 -1.561483e-06 -2.184471e-06 -2.518203e-06 -2.858805e-06 -2.544082e-06 -2.382914e-06 -1.579101e-06 -9.799070e-07 2.968592e-09 
6.913721e-06 7.472659e-06 8.704927e-06 8.106481e-06 7.976813e-06 6.177860e-06 4.517831e-06 1.990953e-06 -7.146395e-07 -3.025173e-06 -5.718915e-06 -6.774182e-06 -8.349272e-06 -7.627658e-06 -7.636200e-06 -5.540222e-06 -4.506049e-06 -2.148111e-06 -1.151570e-06 3.602802e-07 4.814949e-07 6.905498e-07 -1.184634e-07 -8.292229e-07 -1.848241e-06 -2.522497e-06 -2.710738e-06 -2.413013e-06 -1.075288e-06 3.868337e-07 3.093502e-06 4.778613e-06 7.936617e-06 8.194811e-06 1.081825e-05 8.366082e-06 1.003582e-05 4.824677e-06 5.722661e-06 -1.016055e-06 -4.337628e-07 -6.837701e-06 -6.048572e-06 -1.053111e-05 -9.054843e-06 -1.108139e-05 -8.756107e-06 -9.058576e-06 -6.305162e-06 -6.244408e-06 -3.849381e-06 -4.347789e-06 -2.842473e-06 -3.837804e-06 -3.106666e-06 -3.906282e-06 -3.359810e-06 -3.357640e-06 -2.399861e-06 -1.498698e-06 1.181716e-07 1.530507e-06 3.612302e-06 4.908304e-06 
3.478160e-06 4.350170e-06 5.139147e-06 5.281058e-06 4.573650e-06 3.719651e-06 1.484978e-06 -2.784352e-07 -3.079384e-06 -5.186093e-06 -6.831956e-06 -8.379020e-06 -7.379330e-06 -7.605793e-06 -3.935164e-06 -2.729473e-06 1.803041e-06 3.831646e-06 6.608994e-06 8.610475e-06 7.788132e-06 9.305264e-06 4.732546e-06 5.997336e-06 -7.875103e-07 8.890343e-07 -5.468403e-06 -3.036683e-06 -6.233517e-06 -3.825538e-06 -2.282788e-06 -1.781019e-06 4.122518e-06 1.028702e-06 9.246856e-06 2.620765e-06 1.051571e-05 2.363325e-06 7.780133e-06 7.282310e-07 2.791255e-06 -1.392108e-06 -1.852264e-06 -2.872887e-06 -3.757513e-06 -2.622195e-06 -2.073036e-06 -5.094389e-07 1.629346e-06 2.062610e-06 4.388898e-06 3.177002e-06 4.293000e-06 2.107921e-06 1.817347e-06 -1.869182e-07 -1.024454e-06 -2.039223e-06 -2.392243e-06 -2.273215e-06 -1.627511e-06 -7.226226e-07 7.422743e-07 1.897008e-06 
1.091638e-05 1.192471e-05 1.429674e-05 1.347692e-05 1.322823e-05 1.045306e-05 7.014111e-06 3.069588e-06 -2.725266e-06 -6.036643e-06 -1.190540e-05 -1.245280e-05 -1.579390e-05 -1.256148e-05 -1.228770e-05 -6.439318e-06 -3.885581e-06 1.809075e-06 3.973638e-06 6.978962e-06 6.797057e-06 6.238302e-06 3.645763e-06 5.282401e-07 -2.782259e-06 -6.134014e-06 -7.685246e-06 -8.732800e-06 -6.756141e-06 -4.416132e-06 7.596074e-07 4.829868e-06 1.086219e-05 1.301479e-05 1.747609e-05 1.472199e-05 1.683807e-05 8.896680e-06 9.329433e-06 -1.473904e-06 -1.724320e-06 -1.188887e-05 -1.175911e-05 -1.827267e-05 -1.648509e-05 -1.837621e-05 -1.419702e-05 -1.321315e-05 -7.590538e-06 -6.830626e-06 -1.965985e-06 -3.238456e-06 -6.783465e-07 -3.341059e-06 -2.816280e-06 -5.010249e-06 -5.020559e-06 -5.457199e-06 -4.555314e-06 -3.199028e-06 -7.878602e-07 1.518917e-06 5.087938e-06 7.240482e-06 
7.382931e-06 8.870887e-06 1.049558e-05 1.088691e-05 9.167725e-06 8.028403e-06 2.443237e-06 -1.360927e-07 -7.896639e-06 -1.086776e-05 -1.691772e-05 -1.844461e-05 -1.880618e-05 -1.738535e-05 -1.129680e-05 -7.037933e-06 1.731632e-06 7.020776e-06 1.274644e-05 1.690941e-05 1.577790e-05 1.784679e-05 9.591282e-06 1.038025e-05 -2.188896e-06 -6.102595e-07 -1.261001e-05 -8.581857e-06 -1.466292e-05 -9.211297e-06 -6.213956e-06 -3.641714e-06 7.398766e-06 2.730397e-06 1.744929e-05 5.541594e-06 1.885495e-05 4.414834e-06 1.236393e-05 9.670477e-07 1.914030e-06 -3.435810e-06 -7.544542e-06 -6.990685e-06 -1.097777e-05 -6.852053e-06 -6.041221e-06 -1.863340e-06 3.629429e-06 4.730008e-06 1.053164e-05 7.856821e-06 1.017482e-05 5.685512e-06 4.396001e-06 7.228104e-07 -1.719529e-06 -3.181718e-06 -4.326591e-06 -3.721332e-06 -2.569556e-06 -8.056435e-07 2.141844e-06 4.130704e-06 
1.772565e-05 2.024646e-05 2.488300e-05 2.448504e-05 2.436914e-05 2.054012e-05 1.388601e-05 7.610562e-06 -4.579041e-06 -9.978306e-06 -2.303511e-05 -2.288203e-05 -3.061498e-05 -2.237191e-05 -2.186321e-05 -8.238296e-06 -2.637693e-06 9.866117e-06 1.424201e-05 2.022069e-05 1.914969e-05 1.722390e-05 1.075167e-05 3.150822e-06 -5.218765e-06 -1.374625e-05 -1.869011e-05 -2.226843e-05 -1.945946e-05 -1.461423e-05 -4.571474e-06 5.650515e-06 1.702787e-05 2.417071e-05 3.109056e-05 2.836748e-05 3.006374e-05 1.721136e-05 1.611680e-05 -2.005227e-06 -4.135146e-06 -2.092282e-05 -2.277700e-05 -3.236608e-05 -3.099033e-05 -3.120327e-05 -2.388063e-05 -1.878824e-05 -7.514223e-06 -4.657434e-06 4.596541e-06 1.520627e-06 4.798925e-06 -1.435060e-06 -2.981691e-06 -7.480871e-06 -9.922436e-06 -1.024039e-05 -1.035499e-05 -7.134730e-06 -3.854611e-06 8.898734e-07 6.788873e-06 1.114054e-05 
1.323500e-05 1.654476e-05 2.021007e-05 2.199685e-05 1.910284e-05 1.847957e-05 6.741507e-06 3.387380e-06 -1.498729e-05 -1.935837e-05 -3.612684e-05 -3.755386e-05 -4.241729e-05 -3.736429e-05 -2.700845e-05 -1.595749e-05 1.309154e-06 1.368910e-05 2.501098e-05 3.362207e-05 3.166382e-05 3.451279e-05 1.936719e-05 1.838649e-05 -5.155389e-06 -4.870081e-06 -2.836126e-05 -2.140559e-05 -3.410230e-05 -2.092701e-05 -1.574907e-05 -6.537589e-06 1.394125e-05 7.258341e-06 3.354128e-05 1.086154e-05 3.364035e-05 7.050762e-06 1.940219e-05 1.171974e-06 -8.819136e-07 -6.396768e-06 -1.972780e-05 -1.463495e-05 -2.689393e-05 -1.596720e-05 -1.467120e-05 -4.676351e-06 9.071875e-06 1.141776e-05 2.451267e-05 1.834208e-05 2.121587e-05 1.214783e-05 6.296977e-06 3.976254e-07 -7.102136e-06 -7.825350e-06 -1.154208e-05 -8.578551e-06 -7.038793e-06 -2.707793e-06 2.684684e-06 6.865846e-06 
2.892667e-05 3.520541e-05 4.422004e-05 4.614386e-05 4.716275e-05 4.296896e-05 3.088735e-05 2.080319e-05 -4.509751e-06 -1.477809e-05 -4.418310e-05 -4.376642e-05 -6.202041e-05 -4.355494e-05 -4.234714e-05 -1.198666e-05 8.325404e-07 2.725980e-05 3.628703e-05 4.765639e-05 4.445849e-05 3.983430e-05 2.540221e-05 9.415848e-06 -9.823775e-06 -2.894051e-05 -4.243535e-05 -5.189899e-05 -4.855432e-05 -3.767633e-05 -1.719348e-05 8.703308e-06 3.077932e-05 5.053890e-05 5.952961e-05 5.751764e-05 5.520636e-05 3.325687e-05 2.844249e-05 -2.534839e-06 -7.988669e-06 -3.641632e-05 -4.384037e-05 -5.833443e-05 -6.100671e-05 -5.506036e-05 -4.269893e-05 -2.534579e-05 -1.814185e-06 6.815365e-06 2.443669e-05 1.631878e-05 1.815309e-05 3.645679e-06 -5.308830e-06 -1.339629e-05 -2.275262e-05 -2.070327e-05 -2.393042e-05 -1.531931e-05 -1.127936e-05 -9.236875e-07 8.435492e-06 1.753076e-05 
2.193769e-05 2.937635e-05 3.764389e-05 4.357599e-05 4.037296e-05 4.278137e-05 2.058141e-05 1.720192e-05 -2.359576e-05 -3.068909e-05 -7.361069e-05 -7.540589e-05 -9.338178e-05 -8.039048e-05 -6.137189e-05 -3.480171e-05 9.121250e-07 2.888880e-05 5.059070e-05 6.823578e-05 6.372680e-05 6.758501e-05 4.021706e-05 3.408991e-05 -9.369543e-06 -1.489997e-05 -6.218542e-05 -5.139697e-05 -7.998686e-05 -4.764055e-05 -3.911535e-05 -9.837581e-06 2.889754e-05 1.978892e-05 6.616591e-05 1.879083e-05 5.764630e-05 6.180710e-06 2.745744e-05 -2.485960e-07 -8.171361e-06 -9.246883e-06 -4.564797e-05 -2.934764e-05 -6.483482e-05 -3.878246e-05 -3.658538e-05 -1.227981e-05 2.358390e-05 2.915076e-05 5.815018e-05 4.351431e-05 4.246673e-05 2.418761e-05 3.503695e-06 -4.208796e-06 -2.464095e-05 -2.044806e-05 -3.003634e-05 -2.002418e-05 -1.825290e-05 -7.895400e-06 1.363500e-06 1.013602e-05 
4.629830e-05 6.052385e-05 7.791404e-05 8.708771e-05 9.282900e-05 9.188563e-05 7.241079e-05 5.694641e-05 5.355361e-06 -1.685911e-05 -8.453104e-05 -8.733485e-05 -1.319581e-04 -9.187084e-05 -8.791852e-05 -1.953210e-05 1.133748e-05 6.603236e-05 8.400898e-05 1.033031e-04 9.459116e-05 8.466852e-05 5.550901e-05 2.552666e-05 -1.541960e-05 -5.623283e-05 -9.157409e-05 -1.173312e-04 -1.166525e-04 -9.296428e-05 -4.754367e-05 1.902398e-05 6.517388e-05 1.157695e-04 1.209009e-04 1.186270e-04 9.958324e-05 5.990933e-05 4.824911e-05 -2.983570e-06 -1.092001e-05 -5.866560e-05 -8.140139e-05 -1.051737e-04 -1.274362e-04 -1.031179e-04 -8.459412e-05 -2.977701e-05 2.310916e-05 4.764834e-05 8.137502e-05 5.737767e-05 4.813123e-05 1.371076e-05 -1.751868e-05 -2.938217e-05 -5.543504e-05 -4.332704e-05 -5.325269e-05 -3.091018e-05 -2.631334e-05 -4.497501e-06 9.590658e-06 2.751664e-05 
3.398369e-05 4.932601e-05 6.741764e-05 8.361406e-05 8.505377e-05 9.776432e-05 6.116300e-05 6.140310e-05 -2.531945e-05 -3.838231e-05 -1.466787e-04 -1.519378e-04 -2.084822e-04 -1.775501e-04 -1.383970e-04 -7.444698e-05 3.904899e-06 6.680462e-05 1.044501e-04 1.398292e-04 1.258113e-04 1.314977e-04 8.526452e-05 6.755879e-05 -7.921399e-06 -3.338537e-05 -1.310116e-04 -1.221851e-04 -1.922323e-04 -1.131389e-04 -9.851499e-05 -7.952062e-06 7.008409e-05 5.709798e-05 1.357593e-04 2.354377e-05 8.703847e-05 -1.813254e-05 2.541737e-05 -9.047900e-06 -2.238698e-05 -2.217827e-06 -9.644772e-05 -5.580159e-05 -1.620373e-04 -1.034576e-04 -1.007361e-04 -3.568336e-05 6.423279e-05 8.078880e-05 1.435024e-04 1.069770e-04 8.111627e-05 4.433034e-05 -1.971399e-05 -2.363377e-05 -7.298080e-05 -5.108506e-05 -7.084609e-05 -4.295487e-05 -4.044296e-05 -1.791370e-05 -3.064714e-06 1.368661e-05 
7.022053e-05 9.895143e-05 1.319022e-04 1.598656e-04 1.815902e-04 1.969335e-04 1.743772e-04 1.558491e-04 5.510577e-05 3.492743e-06 -1.572284e-04 -1.792926e-04 -2.959415e-04 -2.073591e-04 -1.931813e-04 -3.079354e-05 4.633450e-05 1.570024e-04 1.859503e-04 2.088441e-04 1.830305e-04 1.636996e-04 1.133652e-04 6.849382e-05 -8.969842e-06 -9.146100e-05 -1.845429e-04 -2.614581e-04 -2.825968e-04 -2.370657e-04 -1.250450e-04 5.393706e-05 1.639423e-04 2.883653e-04 2.590171e-04 2.405178e-04 1.614985e-04 8.531149e-05 6.805546e-05 -3.304170e-06 3.919768e-06 -6.931789e-05 -1.338783e-04 -1.829643e-04 -2.882101e-04 -2.149165e-04 -1.978359e-04 -1.960282e-05 1.136176e-04 1.828302e-04 2.443431e-04 1.654205e-04 1.062672e-04 2.415187e-05 -6.954877e-05 -7.575138e-05 -1.370745e-04 -9.102080e-05 -1.113459e-04 -5.705947e-05 -5.149737e-05 -9.227120e-06 1.016992e-05 4.169815e-05 
4.752930e-05 7.530197e-05 1.127301e-04 1.515180e-04 1.750108e-04 2.179028e-04 1.745769e-04 1.933457e-04 2.009058e-05 -5.753038e-06 -2.827340e-04 -3.052830e-04 -4.835101e-04 -4.083282e-04 -3.153571e-04 -1.539045e-04 2.868484e-05 1.716391e-04 2.150708e-04 2.818257e-04 2.306787e-04 2.423632e-04 1.791331e-04 1.459185e-04 3.676295e-05 -4.622242e-05 -2.532418e-04 -2.898147e-04 -4.825828e-04 -2.936394e-04 -2.638505e-04 2.611788e-05 2.059996e-04 1.775100e-04 2.950221e-04 -1.073207e-05 7.854718e-05 -1.457945e-04 -3.676352e-05 -4.377704e-05 -3.359534e-05 6.570863e-05 -1.728294e-04 -8.933261e-05 -4.322683e-04 -3.106084e-04 -3.155174e-04 -1.109506e-04 1.932134e-04 2.507614e-04 3.727796e-04 2.719175e-04 1.345453e-04 6.294344e-05 -1.192890e-04 -9.204486e-05 -1.958484e-04 -1.201551e-04 -1.500098e-04 -8.163012e-05 -7.507940e-05 -3.172156e-05 -1.059041e-05 1.671397e-05 