# vtk DataFile Version 2.0
Comment goes here
ASCII

DATASET STRUCTURED_POINTS
DIMENSIONS    64   64   1

ORIGIN    0.000   0.000   0.000
SPACING   0.0156250.015625   1.000

POINT_DATA   4096
SCALARS Omega double
LOOKUP_TABLE default

-3.876832e-03 -6.629838e-03 -9.651005e-03 -1.335438e-02 -1.702465e-02 -2.066887e-02 -2.319064e-02 -2.417610e-02 -2.269871e-02 -1.838350e-02 -1.142748e-02 -2.277815e-03 7.402944e-03 1.561729e-02 2.108227e-02 2.052692e-02 1.668012e-02 7.873204e-03 3.050831e-04 -5.523113e-03 -8.774855e-03 -9.760023e-03 -1.097288e-02 -1.392984e-02 -2.016457e-02 -2.924785e-02 -4.032649e-02 -5.078462e-02 -5.925613e-02 -6.348479e-02 -6.369803e-02 -5.949552e-02 -5.247211e-02 -4.333626e-02 -3.355717e-02 -2.380762e-02 -1.463694e-02 -6.325657e-03 1.363024e-03 8.410264e-03 1.538526e-02 2.227392e-02 2.950175e-02 3.674991e-02 4.400740e-02 5.054931e-02 5.608719e-02 5.981039e-02 6.162675e-02 6.107854e-02 5.855018e-02 5.405531e-02 4.832583e-02 4.163537e-02 3.475580e-02 2.793637e-02 2.175489e-02 1.624538e-02 1.171591e-02 7.935566e-03 5.010839e-03 2.502914e-03 4.494464e-04 -1.710912e-03 
-2.037402e-03 -3.580258e-03 -5.191560e-03 -7.214611e-03 -9.139468e-03 -1.109448e-02 -1.237156e-02 -1.289530e-02 -1.206298e-02 -9.889913e-03 -6.364805e-03 -2.026669e-03 2.433420e-03 5.741061e-03 7.481446e-03 6.053256e-03 3.158002e-03 -2.078048e-03 -6.018999e-03 -9.078438e-03 -1.008066e-02 -9.917520e-03 -9.734388e-03 -1.054226e-02 -1.325896e-02 -1.753505e-02 -2.305007e-02 -2.820929e-02 -3.246550e-02 -3.442098e-02 -3.440031e-02 -3.199529e-02 -2.821858e-02 -2.327863e-02 -1.804861e-02 -1.278438e-02 -7.789830e-03 -3.193940e-03 1.180654e-03 5.264109e-03 9.437353e-03 1.356690e-02 1.795932e-02 2.228452e-02 2.662098e-02 3.042333e-02 3.363634e-02 3.569222e-02 3.665726e-02 3.618545e-02 3.460806e-02 3.186111e-02 2.845649e-02 2.448293e-02 2.045478e-02 1.644583e-02 1.284846e-02 9.613155e-03 6.980704e-03 4.749062e-03 3.053989e-03 1.568628e-03 4.019167e-04 -8.527520e-04 
-9.920790e-04 -1.811403e-03 -2.586423e-03 -3.610519e-03 -4.512004e-03 -5.456376e-03 -6.020323e-03 -6.231915e-03 -5.807525e-03 -4.792054e-03 -3.256752e-03 -1.527436e-03 9.899201e-05 8.362187e-04 8.851311e-04 -8.105626e-04 -2.806351e-03 -5.788359e-03 -7.762798e-03 -9.057503e-03 -9.116295e-03 -8.498473e-03 -7.805396e-03 -7.672556e-03 -8.510765e-03 -1.024915e-02 -1.264461e-02 -1.494553e-02 -1.684782e-02 -1.763661e-02 -1.750844e-02 -1.619412e-02 -1.425519e-02 -1.172256e-02 -9.064323e-03 -6.371390e-03 -3.776709e-03 -1.367026e-03 1.017523e-03 3.258288e-03 5.649859e-03 7.992162e-03 1.055385e-02 1.300860e-02 1.551190e-02 1.762618e-02 1.944079e-02 2.052472e-02 2.103195e-02 2.067426e-02 1.974080e-02 1.811550e-02 1.617133e-02 1.388474e-02 1.161477e-02 9.330602e-03 7.316951e-03 5.473388e-03 4.004788e-03 2.723012e-03 1.785502e-03 9.279025e-04 3.057532e-04 -3.991142e-04 
-5.217295e-04 -9.861017e-04 -1.367160e-03 -1.926236e-03 -2.358575e-03 -2.872900e-03 -3.138339e-03 -3.311020e-03 -3.132843e-03 -2.787473e-03 -2.185578e-03 -1.652270e-03 -1.180856e-03 -1.281242e-03 -1.660286e-03 -2.918060e-03 -4.100557e-03 -5.740957e-03 -6.548920e-03 -7.068269e-03 -6.694512e-03 -6.067502e-03 -5.306712e-03 -4.892117e-03 -4.991371e-03 -5.570549e-03 -6.555222e-03 -7.495841e-03 -8.336066e-03 -8.611428e-03 -8.529290e-03 -7.836883e-03 -6.905194e-03 -5.653042e-03 -4.363150e-03 -3.037127e-03 -1.735198e-03 -5.227577e-04 7.407214e-04 1.913518e-03 3.242719e-03 4.503532e-03 5.949000e-03 7.272557e-03 8.673840e-03 9.793704e-03 1.079333e-02 1.133459e-02 1.160281e-02 1.135529e-02 1.083621e-02 9.909822e-03 8.851806e-03 7.583470e-03 6.362295e-03 5.107342e-03 4.031475e-03 3.015886e-03 2.232944e-03 1.514657e-03 1.015105e-03 5.200249e-04 1.922671e-04 -2.200074e-04 
-2.156278e-04 -4.564425e-04 -6.018988e-04 -8.730205e-04 -1.032968e-03 -1.271544e-03 -1.359899e-03 -1.453315e-03 -1.381644e-03 -1.311288e-03 -1.145477e-03 -1.138963e-03 -1.156080e-03 -1.588833e-03 -2.039838e-03 -2.993391e-03 -3.696871e-03 -4.603610e-03 -4.921824e-03 -5.057080e-03 -4.659685e-03 -4.130747e-03 -3.498992e-03 -3.061989e-03 -2.863244e-03 -2.940190e-03 -3.223340e-03 -3.530043e-03 -3.822849e-03 -3.878556e-03 -3.808601e-03 -3.462943e-03 -3.036193e-03 -2.460226e-03 -1.869111e-03 -1.266546e-03 -6.421268e-04 -8.110201e-05 5.684455e-04 1.133677e-03 1.854729e-03 2.482959e-03 3.280093e-03 3.944725e-03 4.712485e-03 5.264558e-03 5.804958e-03 6.046793e-03 6.188852e-03 6.015599e-03 5.739863e-03 5.216833e-03 4.664203e-03 3.972825e-03 3.344762e-03 2.669445e-03 2.124412e-03 1.577425e-03 1.187600e-03 7.950351e-04 5.543490e-04 2.783968e-04 1.324189e-04 -9.478322e-05 
-1.456091e-04 -3.051299e-04 -3.664277e-04 -5.389858e-04 -6.006429e-04 -7.549866e-04 -7.802728e-04 -8.712491e-04 -8.344579e-04 -8.738504e-04 -8.293138e-04 -9.428310e-04 -1.026413e-03 -1.377996e-03 -1.666001e-03 -2.240969e-03 -2.574089e-03 -3.052127e-03 -3.100566e-03 -3.129992e-03 -2.782574e-03 -2.440798e-03 -1.989050e-03 -1.675036e-03 -1.468416e-03 -1.410573e-03 -1.479722e-03 -1.559074e-03 -1.679166e-03 -1.675374e-03 -1.660050e-03 -1.498020e-03 -1.328380e-03 -1.076467e-03 -8.188048e-04 -5.605784e-04 -2.603201e-04 -1.971906e-05 3.232483e-04 5.718857e-04 9.723148e-04 1.257374e-03 1.703091e-03 2.009016e-03 2.434092e-03 2.684433e-03 2.983394e-03 3.078299e-03 3.167063e-03 3.054355e-03 2.929490e-03 2.643364e-03 2.381481e-03 2.014045e-03 1.717669e-03 1.360131e-03 1.105571e-03 8.106906e-04 6.300626e-04 4.075979e-04 2.964701e-04 1.262349e-04 5.919552e-05 -9.168703e-05 
-2.910166e-05 -1.158115e-04 -1.120225e-04 -2.006714e-04 -1.941604e-04 -2.731004e-04 -2.542931e-04 -3.150380e-04 -2.868756e-04 -3.572758e-04 -3.598611e-04 -5.157673e-04 -6.099715e-04 -9.135609e-04 -1.104663e-03 -1.495327e-03 -1.668759e-03 -1.943685e-03 -1.930444e-03 -1.922254e-03 -1.686826e-03 -1.463466e-03 -1.165612e-03 -9.427401e-04 -7.623119e-04 -6.640543e-04 -6.295985e-04 -6.137361e-04 -6.326476e-04 -6.057404e-04 -5.922963e-04 -5.193304e-04 -4.511179e-04 -3.560288e-04 -2.439799e-04 -1.568062e-04 -7.138423e-06 6.683427e-05 2.584297e-04 3.347330e-04 5.691315e-04 6.638769e-04 9.230319e-04 1.030819e-03 1.270999e-03 1.355539e-03 1.520106e-03 1.531797e-03 1.583178e-03 1.495142e-03 1.440578e-03 1.269767e-03 1.154586e-03 9.478845e-04 8.243843e-04 6.276289e-04 5.299891e-04 3.682237e-04 3.077750e-04 1.839678e-04 1.565085e-04 5.961025e-05 5.368325e-05 -3.208034e-05 
-5.727547e-05 -1.346194e-04 -1.215203e-04 -1.983120e-04 -1.784329e-04 -2.467965e-04 -2.157434e-04 -2.719834e-04 -2.349656e-04 -2.961331e-04 -2.772912e-04 -3.830540e-04 -4.113368e-04 -5.891883e-04 -6.580774e-04 -8.717283e-04 -9.161982e-04 -1.063653e-03 -1.005746e-03 -1.006945e-03 -8.440119e-04 -7.321233e-04 -5.520996e-04 -4.317346e-04 -3.237719e-04 -2.591688e-04 -2.370575e-04 -2.162670e-04 -2.349162e-04 -2.200283e-04 -2.328453e-04 -2.085897e-04 -1.934816e-04 -1.693702e-04 -1.193450e-04 -1.082970e-04 -1.914843e-05 -2.331115e-05 1.063714e-04 9.635956e-05 2.590317e-04 2.563192e-04 4.314051e-04 4.407939e-04 5.974038e-04 6.064052e-04 7.154791e-04 6.992305e-04 7.494592e-04 6.891105e-04 6.923062e-04 5.899007e-04 5.700131e-04 4.457420e-04 4.232162e-04 3.003081e-04 2.850528e-04 1.773471e-04 1.711252e-04 8.053842e-05 8.177231e-05 2.447091e-06 8.889230e-06 -6.705641e-05 
2.105859e-05 -2.621133e-05 8.756886e-06 -3.846235e-05 -3.339908e-07 -4.568160e-05 -4.795818e-06 -5.098392e-05 -1.413758e-05 -7.553463e-05 -5.750068e-05 -1.560001e-04 -1.689774e-04 -3.110895e-04 -3.449554e-04 -4.975734e-04 -5.141302e-04 -6.144745e-04 -5.748759e-04 -5.823188e-04 -4.877706e-04 -4.235675e-04 -3.177776e-04 -2.382682e-04 -1.653279e-04 -1.081167e-04 -7.887080e-05 -4.649765e-05 -4.424164e-05 -2.552832e-05 -2.790894e-05 -1.868183e-05 -8.214305e-06 -1.343412e-05 2.337782e-05 -2.604841e-06 7.032297e-05 2.269901e-05 1.334381e-04 7.171995e-05 2.090721e-04 1.473688e-04 2.871124e-04 2.376528e-04 3.508974e-04 3.129396e-04 3.820366e-04 3.396238e-04 3.701852e-04 3.053035e-04 3.203687e-04 2.296424e-04 2.502683e-04 1.470133e-04 1.795664e-04 8.195523e-05 1.214235e-04 4.049983e-05 8.006999e-05 1.651761e-05 5.306983e-05 1.033986e-06 3.507776e-05 -1.243286e-05 
-3.632048e-05 -8.947126e-05 -5.956895e-05 -1.097513e-04 -7.348774e-05 -1.186219e-04 -7.579477e-05 -1.162826e-04 -7.114738e-05 -1.142835e-04 -7.552728e-05 -1.333175e-04 -1.079194e-04 -1.852406e-04 -1.688915e-04 -2.513597e-04 -2.274068e-04 -2.857088e-04 -2.396995e-04 -2.532932e-04 -1.903125e-04 -1.664995e-04 -1.092880e-04 -7.311771e-05 -4.174002e-05 -1.259511e-05 -9.856064e-06 7.044834e-06 -7.236697e-06 -1.427922e-06 -1.621664e-05 -2.281744e-05 -2.188448e-05 -4.667341e-05 -1.544274e-05 -6.557566e-05 6.272524e-06 -7.236555e-05 4.073707e-05 -5.969264e-05 8.024451e-05 -2.341741e-05 1.146077e-04 3.010401e-05 1.363825e-04 8.046932e-05 1.463850e-04 1.050913e-04 1.525393e-04 9.946861e-05 1.588574e-04 7.776887e-05 1.578687e-04 5.423713e-05 1.404654e-04 3.333261e-05 1.075486e-04 1.312004e-05 6.757351e-05 -9.263606e-06 2.831498e-05 -3.496433e-05 -6.628639e-06 -6.282191e-05 
4.177812e-05 4.858977e-06 4.404090e-05 6.735989e-06 4.742932e-05 9.270187e-06 5.104544e-05 1.042983e-05 4.989356e-05 1.927553e-06 3.392154e-05 -2.705527e-05 -5.661419e-06 -7.869231e-05 -6.459179e-05 -1.365758e-04 -1.205986e-04 -1.713017e-04 -1.460278e-04 -1.623857e-04 -1.299211e-04 -1.155068e-04 -8.608653e-05 -5.556546e-05 -3.851091e-05 -5.989400e-06 -3.157121e-06 2.282404e-05 1.700906e-05 3.118373e-05 2.725464e-05 2.399863e-05 3.590537e-05 7.590971e-06 5.104064e-05 -1.092823e-05 7.727155e-05 -2.321233e-05 1.126037e-04 -1.942575e-05 1.474728e-04 8.036236e-06 1.680019e-04 5.364770e-05 1.641955e-04 8.980265e-05 1.391899e-04 8.232142e-05 1.087709e-04 2.859929e-05 8.732223e-05 -3.336387e-05 7.636995e-05 -6.676022e-05 6.751538e-05 -6.606004e-05 5.691654e-05 -4.640153e-05 4.745599e-05 -2.396590e-05 4.208672e-05 -7.495699e-06 4.074721e-05 1.325028e-06 
-3.668127e-05 -7.944254e-05 -4.640378e-05 -8.537128e-05 -4.716622e-05 -8.306021e-05 -4.010603e-05 -7.343996e-05 -2.835661e-05 -6.169442e-05 -1.818574e-05 -5.525474e-05 -1.615985e-05 -5.794048e-05 -2.339363e-05 -6.473056e-05 -3.285451e-05 -6.404128e-05 -3.442964e-05 -4.773662e-05 -2.403055e-05 -1.916442e-05 -7.169640e-06 9.609063e-06 6.720790e-06 2.714457e-05 1.186317e-05 2.848784e-05 8.662832e-06 1.470092e-05 2.008171e-06 -1.032514e-05 -1.308882e-06 -4.251710e-05 4.930064e-06 -7.819800e-05 2.339189e-05 -1.116971e-04 4.985244e-05 -1.317422e-04 7.160025e-05 -1.239016e-04 7.182568e-05 -8.647689e-05 4.410022e-05 -4.759815e-05 1.009138e-05 -4.466366e-05 1.200621e-05 -7.041193e-05 6.478851e-05 -8.341920e-05 1.249118e-04 -7.110753e-05 1.420824e-04 -5.160399e-05 1.122912e-04 -4.116562e-05 6.250489e-05 -4.318060e-05 1.650337e-05 -5.380787e-05 -1.651244e-05 -6.757288e-05 
5.575806e-05 2.271189e-05 5.848467e-05 2.461444e-05 6.131594e-05 2.523834e-05 6.282637e-05 2.425426e-05 6.083039e-05 1.873139e-05 5.197401e-05 5.393746e-06 3.377101e-05 -1.557070e-05 7.899481e-06 -3.809682e-05 -1.873297e-05 -5.257341e-05 -3.739827e-05 -5.207982e-05 -4.304307e-05 -3.705044e-05 -3.679529e-05 -1.428230e-05 -2.371147e-05 7.588228e-06 -8.968844e-06 2.168785e-05 4.457686e-06 2.414119e-05 1.664547e-05 1.386647e-05 3.101396e-05 -8.177059e-06 5.364978e-05 -3.918024e-05 9.007659e-05 -7.191571e-05 1.390488e-04 -8.931209e-05 1.867334e-04 -6.566754e-05 2.084554e-04 7.737269e-06 1.855150e-04 8.070311e-05 1.313130e-04 6.281975e-05 9.013273e-05 -5.646083e-05 8.977333e-05 -1.678430e-04 1.145820e-04 -1.905128e-04 1.222681e-04 -1.442201e-04 1.039931e-04 -8.029654e-05 7.878464e-05 -2.930316e-05 6.180621e-05 1.686741e-06 5.547236e-05 1.682902e-05 
-5.054610e-05 -8.374907e-05 -5.139974e-05 -8.190363e-05 -4.459003e-05 -7.452404e-05 -3.340643e-05 -6.284748e-05 -2.018460e-05 -4.964656e-05 -7.641793e-06 -3.803095e-05 1.560000e-06 -2.944683e-05 6.272398e-06 -2.239429e-05 7.567239e-06 -1.352477e-05 7.628833e-06 -6.948893e-07 7.784511e-06 1.469550e-05 7.666423e-06 2.819289e-05 6.249448e-06 3.481249e-05 3.389816e-06 3.128978e-05 3.979112e-07 1.672531e-05 -2.138153e-07 -8.492083e-06 5.304197e-06 -4.489923e-05 2.222600e-05 -9.495221e-05 5.533134e-05 -1.578028e-04 1.019237e-04 -2.160435e-04 1.423046e-04 -2.292778e-04 1.387403e-04 -1.691683e-04 6.323093e-05 -9.488422e-05 -4.211076e-05 -1.276320e-04 -5.439938e-05 -2.366760e-04 8.795160e-05 -2.657331e-04 2.457404e-04 -2.024227e-04 2.724283e-04 -1.288798e-04 1.883784e-04 -8.706468e-05 8.215109e-05 -7.399117e-05 5.219140e-06 -7.544242e-05 -3.539496e-05 -8.067639e-05 
6.815570e-05 3.857698e-05 6.793871e-05 3.567230e-05 6.779248e-05 3.189421e-05 6.587951e-05 2.735738e-05 6.129479e-05 2.074549e-05 5.304083e-05 1.086522e-05 4.038882e-05 -1.797894e-06 2.384536e-05 -1.440721e-05 5.571894e-06 -2.276981e-05 -1.132650e-05 -2.353095e-05 -2.407804e-05 -1.600956e-05 -3.099943e-05 -2.544915e-06 -3.137361e-05 1.235993e-05 -2.517422e-05 2.316961e-05 -1.327572e-05 2.433079e-05 2.714329e-06 1.118592e-05 2.302975e-05 -1.987803e-05 5.417844e-05 -7.220972e-05 1.087372e-04 -1.448068e-04 1.939289e-04 -2.134266e-04 2.930147e-04 -2.088606e-04 3.559983e-04 -5.810432e-05 3.277425e-04 1.557271e-04 2.275579e-04 1.424339e-04 1.723251e-04 -1.722855e-04 2.183421e-04 -4.181458e-04 3.130104e-04 -3.941379e-04 3.142529e-04 -2.398327e-04 2.325331e-04 -9.880509e-05 1.469858e-04 -1.390265e-05 9.505727e-05 2.494053e-05 7.359021e-05 3.759222e-05 
-7.705782e-05 -9.785623e-05 -6.531363e-05 -8.864544e-05 -5.011691e-05 -7.670568e-05 -3.503482e-05 -6.330560e-05 -2.097898e-05 -4.999421e-05 -8.470210e-06 -3.793299e-05 1.812973e-06 -2.722855e-05 9.230397e-06 -1.677244e-05 1.335256e-05 -4.986223e-06 1.386506e-05 8.853840e-06 1.054710e-05 2.364451e-05 3.772322e-06 3.652590e-05 -4.625035e-06 4.381621e-05 -1.117208e-05 4.212456e-05 -1.223692e-05 2.919697e-05 -6.009682e-06 3.869503e-06 8.759567e-06 -3.717844e-05 3.850454e-05 -1.062419e-04 9.726070e-05 -2.216822e-04 1.943560e-04 -3.728568e-04 3.063322e-04 -4.647386e-04 3.488280e-04 -3.547349e-04 2.059263e-04 -1.348628e-04 -8.992220e-05 -2.675671e-04 -1.872718e-04 -6.782039e-04 2.031361e-04 -7.143826e-04 6.096881e-04 -4.623036e-04 5.860799e-04 -2.527893e-04 3.238453e-04 -1.539878e-04 9.191079e-05 -1.192792e-04 -3.160659e-05 -1.088355e-04 -7.428103e-05 -1.039920e-04 
8.099638e-05 5.291517e-05 7.807110e-05 4.297826e-05 7.484166e-05 3.488237e-05 6.967018e-05 2.766735e-05 6.264146e-05 1.991630e-05 5.384789e-05 1.080565e-05 4.311452e-05 7.251375e-07 3.023135e-05 -8.610021e-06 1.518535e-05 -1.467679e-05 -1.697748e-06 -1.508309e-05 -1.947364e-05 -8.488855e-06 -3.595708e-05 4.737150e-06 -4.711907e-05 2.193033e-05 -4.784934e-05 3.737354e-05 -3.549237e-05 4.220809e-05 -1.394076e-05 2.688670e-05 1.018156e-05 -1.624175e-05 4.364041e-05 -9.966476e-05 1.176443e-04 -2.489857e-04 2.688281e-04 -4.639831e-04 4.919151e-04 -6.036538e-04 6.904533e-04 -3.488509e-04 6.945247e-04 3.131208e-04 4.906035e-04 4.089343e-04 4.424927e-04 -5.427494e-04 6.104409e-04 -1.097065e-03 9.039660e-04 -7.987361e-04 7.927621e-04 -3.528582e-04 4.827554e-04 -7.893543e-05 2.468475e-04 3.527245e-05 1.320712e-04 6.537288e-05 9.151510e-05 6.318845e-05 
-1.122698e-04 -1.223984e-04 -8.056786e-05 -1.032135e-04 -5.553167e-05 -8.519749e-05 -3.692669e-05 -6.900002e-05 -2.250870e-05 -5.495707e-05 -1.044780e-05 -4.279238e-05 1.263116e-07 -3.154438e-05 9.018438e-06 -1.980061e-05 1.492203e-05 -6.243581e-06 1.563192e-05 9.717757e-06 8.964945e-06 2.753744e-05 -5.349228e-06 4.539556e-05 -2.341169e-05 5.999393e-05 -3.674574e-05 6.617842e-05 -3.670053e-05 5.795664e-05 -2.217151e-05 3.290385e-05 1.016106e-06 -8.357176e-06 3.884720e-05 -8.826399e-05 1.273159e-04 -2.836256e-04 3.165431e-04 -6.693990e-04 6.098817e-04 -1.103430e-03 8.539007e-04 -1.037369e-03 6.659883e-04 -2.735133e-04 -1.647178e-04 -6.050449e-04 -6.356903e-04 -2.152568e-03 6.222378e-04 -1.912146e-03 1.749028e-03 -9.464059e-04 1.303862e-03 -4.410592e-04 4.957490e-04 -2.622223e-04 2.832737e-05 -1.968373e-04 -1.279696e-04 -1.648827e-04 -1.410437e-04 -1.424387e-04 
9.849942e-05 5.808971e-05 9.355943e-05 4.264119e-05 8.638088e-05 3.293997e-05 7.720244e-05 2.543537e-05 6.731773e-05 1.789617e-05 5.751649e-05 9.464380e-06 4.783209e-05 4.783106e-07 3.744788e-05 -7.769712e-06 2.465938e-05 -1.328302e-05 7.198901e-06 -1.358810e-05 -1.666769e-05 -6.032339e-06 -4.592930e-05 1.154825e-05 -7.385213e-05 3.908049e-05 -8.717676e-05 7.041339e-05 -7.396166e-05 8.915978e-05 -4.088418e-05 7.433384e-05 -1.526881e-05 1.861408e-05 -6.713854e-07 -8.857314e-05 7.204347e-05 -3.425641e-04 3.176065e-04 -9.179783e-04 7.888382e-04 -1.740301e-03 1.313087e-03 -1.824264e-03 1.381423e-03 7.474638e-05 7.807589e-04 1.171440e-03 1.501658e-03 -1.725990e-03 2.198316e-03 -2.770926e-03 3.035085e-03 -1.354798e-03 2.034024e-03 -3.294597e-04 9.196890e-04 5.820344e-05 3.546658e-04 1.359717e-04 1.583971e-04 1.163882e-04 1.085148e-04 8.303694e-05 
-1.391855e-04 -1.599804e-04 -8.435901e-05 -1.253072e-04 -5.248746e-05 -9.831294e-05 -3.374814e-05 -7.772865e-05 -2.127348e-05 -6.204607e-05 -1.082085e-05 -4.935389e-05 -1.814597e-07 -3.758866e-05 1.072539e-05 -2.494712e-05 1.943881e-05 -1.014827e-05 2.103087e-05 7.683121e-06 9.567619e-06 2.937916e-05 -1.826224e-05 5.564283e-05 -5.747837e-05 8.515840e-05 -9.077863e-05 1.098694e-04 -9.586251e-05 1.121263e-04 -6.964740e-05 8.107526e-05 -3.981785e-05 4.415147e-05 -1.620157e-05 5.841226e-06 7.121563e-05 -2.414700e-04 3.563793e-04 -1.166801e-03 9.132057e-04 -3.081283e-03 1.421075e-03 -4.772128e-03 7.040923e-04 -3.170892e-03 -2.333064e-03 -2.467818e-03 -2.055714e-03 -6.176438e-03 4.603173e-03 -3.262113e-03 6.876294e-03 -1.013788e-03 3.069246e-03 -6.131290e-04 5.279712e-04 -4.662910e-04 -2.494156e-04 -3.478209e-04 -3.157768e-04 -2.634282e-04 -2.245296e-04 -2.043290e-04 
1.319481e-04 3.769486e-05 1.202857e-04 2.685175e-05 1.048676e-04 2.272959e-05 8.914099e-05 1.937163e-05 7.503320e-05 1.440522e-05 6.345438e-05 7.483086e-06 5.450105e-05 -7.243250e-07 4.691523e-05 -9.037187e-06 3.739512e-05 -1.561569e-05 2.048031e-05 -1.729377e-05 -1.040163e-05 -9.052131e-06 -5.959906e-05 1.566290e-05 -1.215506e-04 6.275484e-05 -1.706013e-04 1.293178e-04 -1.669992e-04 1.847481e-04 -1.081291e-04 1.701379e-04 -7.616416e-05 8.470468e-05 -1.321476e-04 4.231098e-06 -1.581776e-04 -2.771917e-04 8.427698e-05 -1.643103e-03 5.856365e-04 -5.604316e-03 2.562038e-04 -1.204470e-02 -3.847540e-03 -1.329899e-02 -1.172097e-02 -2.306234e-03 9.693059e-03 4.582359e-03 2.202543e-02 3.597674e-03 1.737282e-02 1.858287e-03 6.318473e-03 8.159603e-04 1.662093e-03 4.695589e-04 4.125962e-04 2.640295e-04 1.692677e-04 1.346587e-04 1.385546e-04 6.709035e-05 
-1.185031e-04 -2.120803e-04 -5.772866e-05 -1.533376e-04 -3.207775e-05 -1.133464e-04 -2.101869e-05 -8.656656e-05 -1.482739e-05 -6.838332e-05 -8.128587e-06 -5.460713e-05 2.178562e-06 -4.187189e-05 1.640578e-05 -2.819805e-05 3.063429e-05 -1.283066e-05 3.580672e-05 5.059530e-06 1.855429e-05 2.818809e-05 -3.447681e-05 6.188207e-05 -1.255704e-04 1.108136e-04 -2.280553e-04 1.663498e-04 -2.824399e-04 1.835227e-04 -2.547136e-04 1.020712e-04 -2.173076e-04 2.327626e-05 -2.507037e-04 1.653950e-04 -3.078476e-04 8.850534e-05 -3.231255e-04 -2.177563e-03 -1.071250e-03 -1.176066e-02 -7.174881e-03 -3.688385e-02 -3.090247e-02 -6.764590e-02 -7.152381e-02 -4.327324e-02 6.051668e-03 3.720778e-02 9.714860e-02 5.187332e-02 5.653547e-02 1.481295e-02 1.149590e-02 1.038383e-03 3.262816e-04 -7.617698e-04 -8.398990e-04 -6.322407e-04 -5.315351e-04 -4.299217e-04 -2.566911e-04 -2.983429e-04 
1.999355e-04 -2.926301e-05 1.619875e-04 -1.177692e-05 1.295466e-04 2.444530e-06 1.041202e-04 1.004066e-05 8.482398e-05 1.130158e-05 7.121927e-05 7.732258e-06 6.322202e-05 7.291631e-07 5.944674e-05 -8.816467e-06 5.542872e-05 -1.935866e-05 4.241684e-05 -2.653983e-05 6.015502e-06 -2.235695e-05 -7.473346e-05 2.887783e-06 -2.185818e-04 5.909948e-05 -4.045703e-04 1.559654e-04 -5.218091e-04 2.652191e-04 -4.547216e-04 2.295855e-04 -3.624586e-04 5.566969e-06 -5.326733e-04 3.893571e-05 -9.891658e-04 -4.718709e-05 -1.906302e-03 -4.095285e-03 -7.182047e-03 -2.779162e-02 -3.752534e-02 -1.169408e-01 -1.536636e-01 -2.924784e-01 -3.559638e-01 -1.921813e-01 1.268017e-01 3.349826e-01 4.695746e-01 2.992724e-01 2.104986e-01 7.874675e-02 3.967806e-02 1.290481e-02 5.210526e-03 1.959087e-03 6.859419e-04 3.057080e-04 2.720680e-04 1.260058e-05 2.344696e-04 -3.647762e-05 
8.669389e-07 -2.737828e-04 1.445491e-05 -1.803874e-04 1.098391e-05 -1.228800e-04 5.018975e-06 -8.771923e-05 1.238601e-06 -6.542477e-05 2.922542e-06 -4.894645e-05 1.310126e-05 -3.381811e-05 3.243278e-05 -1.868205e-05 5.601819e-05 -4.422093e-06 7.012641e-05 8.207650e-06 4.796162e-05 1.992656e-05 -5.556784e-05 2.996032e-05 -2.994208e-04 2.955343e-05 -7.080388e-04 -4.026197e-07 -1.156015e-03 -1.094015e-04 -1.361124e-03 -4.461703e-04 -1.270617e-03 -7.854409e-04 -1.198555e-03 -1.904529e-04 -1.875550e-03 -3.496769e-05 -5.517443e-03 -9.736435e-03 -2.779550e-02 -7.733688e-02 -1.525335e-01 -4.001974e-01 -6.567330e-01 -1.217070e+00 -1.526477e+00 -9.601412e-01 2.681219e-01 1.431878e+00 2.074602e+00 1.395679e+00 7.928572e-01 3.049645e-01 1.172819e-01 3.630900e-02 9.721376e-03 1.979024e-03 -2.164057e-04 -7.849418e-04 -3.176208e-04 -6.518604e-04 -7.807795e-05 -4.239303e-04 
3.090211e-04 -1.505131e-04 2.090964e-04 -7.112899e-05 1.532096e-04 -2.223743e-05 1.205728e-04 6.095100e-06 1.006953e-04 2.088896e-05 8.926315e-05 2.607199e-05 8.475191e-05 2.241264e-05 8.520317e-05 8.664229e-06 8.623557e-05 -1.449284e-05 7.882010e-05 -4.092383e-05 3.836607e-05 -6.639638e-05 -1.075403e-04 -1.179019e-04 -5.226944e-04 -2.857789e-04 -1.409540e-03 -6.509832e-04 -2.630581e-03 -1.045211e-03 -3.258818e-03 -1.292028e-03 -2.693554e-03 -1.627249e-03 -2.114750e-03 -1.250032e-03 -4.074609e-03 -2.586523e-03 -1.494606e-02 -2.867345e-02 -8.786066e-02 -2.265706e-01 -5.367579e-01 -1.340033e+00 -2.521268e+00 -4.534433e+00 -6.254354e+00 -3.954459e+00 2.949784e-01 4.909341e+00 8.278762e+00 5.702672e+00 2.990307e+00 1.205697e+00 4.490519e-01 1.546776e-01 5.012235e-02 1.531586e-02 5.526535e-03 8.446634e-04 1.106154e-03 -3.198813e-04 5.037002e-04 -2.649672e-04 
2.260349e-04 -3.235723e-04 1.218437e-04 -1.879806e-04 7.430180e-05 -1.077409e-04 5.277204e-05 -5.760060e-05 4.588444e-05 -2.256638e-05 5.005625e-05 5.082287e-06 6.482731e-05 2.733076e-05 8.967511e-05 4.219994e-05 1.211000e-04 4.662364e-05 1.448167e-04 3.403595e-05 1.082369e-04 -3.036685e-05 -1.522985e-04 -2.807195e-04 -1.038544e-03 -1.060769e-03 -3.224034e-03 -2.866260e-03 -6.987703e-03 -5.549714e-03 -1.030532e-02 -7.444420e-03 -9.339921e-03 -6.964021e-03 -5.443236e-03 -4.139448e-03 -8.276976e-03 -8.963817e-03 -3.798329e-02 -8.432314e-02 -2.613909e-01 -6.730857e-01 -1.755337e+00 -4.346148e+00 -8.928923e+00 -1.587571e+01 -2.146281e+01 -1.191608e+01 -6.812667e+00 1.226845e+01 3.345375e+01 2.059907e+01 1.004835e+01 3.985839e+00 1.435881e+00 4.846435e-01 1.559824e-01 4.567993e-02 1.547646e-02 2.562222e-03 1.968371e-03 -6.387998e-04 5.098681e-04 -5.396960e-04 
4.184170e-04 -2.848906e-04 2.293470e-04 -1.259542e-04 1.666510e-04 -2.563106e-05 1.510811e-04 4.416516e-05 1.569680e-04 9.675600e-05 1.712077e-04 1.318703e-04 1.830141e-04 1.396363e-04 1.831303e-04 1.090510e-04 1.684157e-04 3.927844e-05 1.385701e-04 -6.663963e-05 4.369642e-05 -2.794003e-04 -4.092696e-04 -9.931425e-04 -2.216422e-03 -3.412633e-03 -7.610636e-03 -9.652048e-03 -1.869651e-02 -1.944404e-02 -2.963394e-02 -2.317194e-02 -2.418711e-02 -1.449682e-02 -8.804316e-03 -8.703966e-03 -1.611078e-02 -2.672527e-02 -8.978517e-02 -2.309950e-01 -7.007160e-01 -1.898872e+00 -5.204789e+00 -1.323209e+01 -2.868892e+01 -5.754746e+01 -6.354622e+01 3.261672e-01 3.117491e+01 4.580366e+01 8.682704e+01 6.864142e+01 3.085923e+01 1.221006e+01 4.376070e+00 1.465761e+00 4.793916e-01 1.403078e-01 4.802334e-02 1.049438e-02 5.652047e-03 -7.959657e-05 1.133028e-03 -5.010141e-04 
4.833293e-04 -2.982026e-04 2.240005e-04 -1.355798e-04 1.604490e-04 -1.801511e-05 1.641276e-04 8.032579e-05 2.021305e-04 1.722741e-04 2.539031e-04 2.503651e-04 2.981125e-04 2.948738e-04 3.196319e-04 2.902128e-04 3.205792e-04 2.346686e-04 2.980103e-04 9.229716e-05 1.019418e-04 -4.303886e-04 -1.024152e-03 -2.533339e-03 -5.613896e-03 -9.783305e-03 -2.001607e-02 -2.965386e-02 -5.334537e-02 -6.599890e-02 -9.414892e-02 -8.493104e-02 -7.791448e-02 -4.482217e-02 -1.827021e-02 -1.765616e-02 -3.123852e-02 -6.254717e-02 -1.995009e-01 -5.681975e-01 -1.716232e+00 -4.810275e+00 -1.344806e+01 -3.475164e+01 -8.258459e+01 -8.117997e+01 -2.478893e+01 2.276307e+01 -1.235664e+01 4.452911e+00 8.713233e+01 1.082495e+02 7.719069e+01 3.043619e+01 1.100799e+01 3.743123e+00 1.232823e+00 3.709515e-01 1.208977e-01 3.091693e-02 1.242044e-02 1.576632e-03 1.806015e-03 -4.021095e-04 
5.221569e-04 -2.982515e-04 2.014773e-04 -1.110374e-04 1.937498e-04 7.210591e-05 2.781839e-04 2.560758e-04 4.084375e-04 4.404812e-04 5.424825e-04 5.868839e-04 6.231035e-04 6.331543e-04 6.002200e-04 5.320127e-04 4.661794e-04 2.774944e-04 2.296113e-04 -1.993215e-04 -3.671223e-04 -1.566173e-03 -2.916765e-03 -6.856918e-03 -1.360336e-02 -2.632043e-02 -5.089945e-02 -8.579137e-02 -1.500748e-01 -2.097867e-01 -2.890795e-01 -2.707540e-01 -2.137394e-01 -7.646991e-02 1.542947e-03 -9.760132e-03 -4.655258e-02 -1.221242e-01 -3.954674e-01 -1.213900e+00 -3.597622e+00 -1.030173e+01 -2.796920e+01 -6.922242e+01 -8.066461e+01 -1.710798e+01 1.997614e-01 7.296520e-01 -1.926097e+01 -2.589844e+01 -8.372918e+00 6.885247e+01 1.156430e+02 5.441671e+01 2.132295e+01 7.703142e+00 2.659819e+00 8.371114e-01 2.727027e-01 7.604124e-02 2.665412e-02 5.527705e-03 3.017634e-03 -1.184318e-04 
8.710454e-04 -3.904180e-05 3.246508e-04 6.223373e-05 3.376698e-04 2.858199e-04 5.107471e-04 5.738410e-04 7.738869e-04 8.991157e-04 1.047949e-03 1.175581e-03 1.218313e-03 1.287259e-03 1.193567e-03 1.164927e-03 9.767091e-04 8.108296e-04 5.604867e-04 -1.466173e-05 -8.069289e-04 -3.181278e-03 -7.262986e-03 -1.679155e-02 -3.480605e-02 -6.905031e-02 -1.348685e-01 -2.400631e-01 -4.269032e-01 -6.472691e-01 -9.060388e-01 -8.845973e-01 -6.149261e-01 -1.331829e-01 1.352837e-01 8.612954e-02 -2.981251e-02 -1.857673e-01 -6.858417e-01 -2.186107e+00 -6.344911e+00 -1.785324e+01 -4.557725e+01 -9.675512e+01 -3.794549e+01 1.246878e+01 -1.821362e+01 -9.106643e+00 1.756817e+01 2.473500e+01 -9.618885e+00 4.830595e+01 1.023634e+02 6.273265e+01 2.964766e+01 1.237024e+01 4.648247e+00 1.599744e+00 5.343410e-01 1.636994e-01 5.409467e-02 1.461273e-02 5.780325e-03 9.775417e-04 
1.105042e-03 8.421231e-05 2.410008e-04 1.167957e-04 3.938296e-04 5.086685e-04 8.157681e-04 1.066668e-03 1.386410e-03 1.703482e-03 1.952578e-03 2.229395e-03 2.280754e-03 2.395268e-03 2.162016e-03 2.030557e-03 1.540007e-03 1.080008e-03 3.003185e-04 -1.069426e-03 -3.262376e-03 -8.688747e-03 -1.839823e-02 -4.095403e-02 -8.327741e-02 -1.708800e-01 -3.359804e-01 -6.387419e-01 -1.168573e+00 -1.926123e+00 -2.780028e+00 -2.726953e+00 -1.608496e+00 1.369851e-01 9.210170e-01 6.728464e-01 2.627091e-01 -1.130087e-01 -9.966505e-01 -3.236918e+00 -9.134455e+00 -2.398088e+01 -5.662322e+01 -1.122221e+02 -4.701357e+01 -1.184471e+01 -2.319261e+00 1.216286e+01 -1.573026e+01 -3.388944e+00 2.911128e+00 5.083343e+01 7.649233e+01 5.725218e+01 3.382846e+01 1.621346e+01 6.786428e+00 2.578355e+00 9.130287e-01 3.037874e-01 1.001584e-01 3.059990e-02 1.034949e-02 2.623427e-03 
2.285905e-03 8.006041e-04 6.433904e-04 6.108783e-04 8.906789e-04 1.202314e-03 1.640873e-03 2.148588e-03 2.673095e-03 3.261094e-03 3.705634e-03 4.189217e-03 4.310102e-03 4.496437e-03 4.110742e-03 3.909292e-03 3.026862e-03 2.340285e-03 7.544148e-04 -1.644228e-03 -6.749114e-03 -1.792841e-02 -4.115147e-02 -9.198485e-02 -1.948261e-01 -4.072928e-01 -8.283088e-01 -1.634939e+00 -3.129493e+00 -5.500176e+00 -8.629360e+00 -8.310981e+00 -4.502039e+00 1.492047e+00 4.844427e+00 3.665946e+00 2.029577e+00 6.110964e-01 -1.032555e+00 -3.948120e+00 -1.100528e+01 -2.692695e+01 -5.749998e+01 -9.708360e+01 -4.594918e+01 1.405364e+00 1.062951e+01 -1.187764e+01 -1.248138e+01 1.249170e+01 -1.702212e+01 1.616587e+01 6.063529e+01 5.392994e+01 3.568828e+01 1.905865e+01 8.799460e+00 3.638009e+00 1.386151e+00 4.942463e-01 1.704348e-01 5.619822e-02 1.905073e-02 5.994594e-03 
3.680549e-03 1.393619e-03 7.872235e-04 9.145173e-04 1.278000e-03 1.945738e-03 2.667103e-03 3.631181e-03 4.529341e-03 5.597116e-03 6.369930e-03 7.229266e-03 7.456013e-03 7.750309e-03 7.085994e-03 6.581816e-03 4.928373e-03 3.314025e-03 -3.879203e-05 -5.380330e-03 -1.657594e-02 -4.041069e-02 -9.041435e-02 -1.996360e-01 -4.240255e-01 -9.040035e-01 -1.878359e+00 -3.879558e+00 -7.737285e+00 -1.491385e+01 -2.886778e+01 -2.664514e+01 -1.063965e+01 1.659807e+01 2.880454e+01 1.751064e+01 1.093605e+01 4.294224e+00 -1.151380e-02 -3.944482e+00 -1.153723e+01 -2.698253e+01 -5.161390e+01 -6.669162e+01 -5.387125e+01 -2.289047e+01 2.074984e+01 9.395781e+00 1.525174e+00 1.376911e+01 5.960231e+00 2.601974e+01 5.365413e+01 5.182694e+01 3.623673e+01 2.093470e+01 1.046721e+01 4.668755e+00 1.906672e+00 7.276986e-01 2.642743e-01 9.279143e-02 3.192518e-02 1.081069e-02 
6.696470e-03 2.977870e-03 1.821779e-03 2.063412e-03 2.609693e-03 3.752961e-03 4.928189e-03 6.535067e-03 8.023812e-03 9.758455e-03 1.109861e-02 1.245049e-02 1.296726e-02 1.334991e-02 1.239266e-02 1.143571e-02 8.710324e-03 5.854131e-03 -1.585160e-04 -9.973385e-03 -3.164786e-02 -7.727649e-02 -1.775159e-01 -3.936989e-01 -8.570089e-01 -1.854146e+00 -3.961843e+00 -8.396432e+00 -1.767720e+01 -3.741622e+01 -5.408376e+01 -4.165151e+01 -3.758436e+01 5.684861e+00 1.806008e+01 2.044738e+01 4.552830e+01 1.819497e+01 4.678403e+00 -2.463970e+00 -1.067825e+01 -2.487935e+01 -4.449012e+01 -5.678726e+01 -6.572574e+01 -4.588540e+01 3.566859e+00 2.765092e+01 -9.794305e+00 -2.134408e+01 2.419454e+01 4.462467e+01 5.138085e+01 4.731945e+01 3.528186e+01 2.179698e+01 1.166613e+01 5.558428e+00 2.422159e+00 9.832565e-01 3.783158e-01 1.404376e-01 5.075399e-02 1.836301e-02 