# vtk DataFile Version 2.0
Comment goes here
ASCII

DATASET STRUCTURED_POINTS
DIMENSIONS    64   64   1

ORIGIN    0.000   0.000   0.000
SPACING   0.0156250.015625   1.000

POINT_DATA   4096
SCALARS Omega double
LOOKUP_TABLE default

-4.385130e-03 -7.355449e-03 -1.061038e-02 -1.450496e-02 -1.834199e-02 -2.209200e-02 -2.467476e-02 -2.572014e-02 -2.426127e-02 -2.007463e-02 -1.314413e-02 -4.150711e-03 5.604355e-03 1.399925e-02 1.983248e-02 2.026897e-02 1.729057e-02 9.816121e-03 3.093679e-03 -2.672607e-03 -6.145122e-03 -8.062860e-03 -1.022860e-02 -1.381675e-02 -2.025559e-02 -2.893141e-02 -3.933529e-02 -4.890911e-02 -5.675172e-02 -6.050464e-02 -6.071976e-02 -5.666214e-02 -5.009796e-02 -4.140486e-02 -3.215498e-02 -2.285086e-02 -1.409793e-02 -6.152072e-03 1.215834e-03 7.925240e-03 1.456775e-02 2.103471e-02 2.780504e-02 3.449933e-02 4.121045e-02 4.722266e-02 5.236969e-02 5.587402e-02 5.770337e-02 5.739193e-02 5.528799e-02 5.135598e-02 4.624032e-02 4.016938e-02 3.383538e-02 2.747619e-02 2.162495e-02 1.633908e-02 1.191247e-02 8.155844e-03 5.170188e-03 2.558479e-03 3.436829e-04 -1.996765e-03 
-2.294708e-03 -3.956052e-03 -5.685662e-03 -7.806183e-03 -9.807856e-03 -1.178887e-02 -1.306764e-02 -1.353093e-02 -1.264125e-02 -1.036597e-02 -6.748822e-03 -2.313844e-03 2.325164e-03 5.777447e-03 7.876099e-03 6.858656e-03 4.404165e-03 -1.933526e-04 -4.087834e-03 -7.108638e-03 -8.611442e-03 -9.039610e-03 -9.448372e-03 -1.069680e-02 -1.349110e-02 -1.765609e-02 -2.280778e-02 -2.759129e-02 -3.152566e-02 -3.326723e-02 -3.323008e-02 -3.087495e-02 -2.728897e-02 -2.252326e-02 -1.750758e-02 -1.242192e-02 -7.591188e-03 -3.157116e-03 1.081438e-03 4.984170e-03 8.988209e-03 1.286848e-02 1.701100e-02 2.101496e-02 2.505954e-02 2.857145e-02 3.159294e-02 3.354797e-02 3.455333e-02 3.423873e-02 3.292472e-02 3.050570e-02 2.745234e-02 2.381876e-02 2.008472e-02 1.631149e-02 1.287838e-02 9.743036e-03 7.149733e-03 4.912117e-03 3.173301e-03 1.619853e-03 3.633761e-04 -9.940424e-04 
-1.172613e-03 -2.086208e-03 -2.965035e-03 -4.092253e-03 -5.083898e-03 -6.111044e-03 -6.709124e-03 -6.950352e-03 -6.466014e-03 -5.398067e-03 -3.686596e-03 -1.787630e-03 1.183054e-04 1.162604e-03 1.521107e-03 1.984862e-04 -1.554922e-03 -4.341901e-03 -6.278534e-03 -7.787798e-03 -8.089590e-03 -7.890130e-03 -7.540838e-03 -7.678187e-03 -8.666424e-03 -1.039136e-02 -1.272737e-02 -1.487118e-02 -1.669175e-02 -1.736478e-02 -1.724556e-02 -1.590822e-02 -1.403852e-02 -1.153280e-02 -8.941136e-03 -6.290153e-03 -3.741329e-03 -1.389416e-03 9.500710e-04 3.099161e-03 5.414246e-03 7.613756e-03 1.004823e-02 1.232047e-02 1.467442e-02 1.663193e-02 1.835596e-02 1.939714e-02 1.994256e-02 1.968831e-02 1.891155e-02 1.747947e-02 1.573082e-02 1.363408e-02 1.151775e-02 9.356979e-03 7.419339e-03 5.620534e-03 4.157700e-03 2.862159e-03 1.884650e-03 9.783921e-04 2.882346e-04 -4.895187e-04 
-5.696218e-04 -1.066954e-03 -1.483279e-03 -2.073791e-03 -2.535230e-03 -3.065205e-03 -3.336439e-03 -3.493844e-03 -3.280866e-03 -2.884588e-03 -2.193777e-03 -1.581287e-03 -9.661044e-04 -9.677952e-04 -1.187133e-03 -2.327080e-03 -3.426044e-03 -4.975643e-03 -5.868176e-03 -6.449077e-03 -6.292758e-03 -5.852073e-03 -5.291491e-03 -5.021728e-03 -5.183579e-03 -5.783566e-03 -6.722519e-03 -7.610655e-03 -8.396565e-03 -8.622538e-03 -8.527200e-03 -7.813428e-03 -6.893136e-03 -5.637309e-03 -4.354877e-03 -3.036542e-03 -1.731857e-03 -5.445872e-04 7.196278e-04 1.840401e-03 3.150481e-03 4.327883e-03 5.724497e-03 6.945291e-03 8.283606e-03 9.319222e-03 1.028419e-02 1.080501e-02 1.110292e-02 1.091117e-02 1.047942e-02 9.650341e-03 8.694241e-03 7.514076e-03 6.367972e-03 5.162235e-03 4.119584e-03 3.113755e-03 2.330345e-03 1.597461e-03 1.079318e-03 5.595324e-04 2.053281e-04 -2.361107e-04 
-2.806642e-04 -5.611350e-04 -7.415596e-04 -1.059130e-03 -1.250006e-03 -1.532216e-03 -1.630416e-03 -1.746495e-03 -1.643319e-03 -1.552896e-03 -1.303186e-03 -1.219943e-03 -1.115620e-03 -1.429263e-03 -1.765728e-03 -2.613269e-03 -3.255343e-03 -4.144250e-03 -4.478584e-03 -4.709689e-03 -4.394682e-03 -4.002271e-03 -3.470449e-03 -3.125470e-03 -2.992727e-03 -3.092188e-03 -3.402036e-03 -3.687299e-03 -3.990761e-03 -4.012250e-03 -3.949770e-03 -3.571732e-03 -3.145314e-03 -2.544200e-03 -1.941326e-03 -1.327270e-03 -6.821475e-04 -1.301350e-04 5.400050e-04 1.072541e-03 1.803245e-03 2.377737e-03 3.166841e-03 3.768995e-03 4.517869e-03 5.022872e-03 5.555518e-03 5.790165e-03 5.955559e-03 5.818593e-03 5.594760e-03 5.128583e-03 4.633383e-03 3.989225e-03 3.401308e-03 2.747425e-03 2.217117e-03 1.667208e-03 1.271448e-03 8.609868e-04 6.021980e-04 3.007444e-04 1.297794e-04 -1.290704e-04 
-1.311982e-04 -2.955501e-04 -3.582375e-04 -5.366981e-04 -6.005025e-04 -7.611330e-04 -7.854209e-04 -8.807419e-04 -8.332843e-04 -8.733903e-04 -8.026053e-04 -9.134649e-04 -9.575909e-04 -1.304036e-03 -1.557809e-03 -2.124639e-03 -2.455995e-03 -2.928890e-03 -3.019300e-03 -3.063415e-03 -2.780159e-03 -2.469045e-03 -2.067831e-03 -1.776956e-03 -1.588985e-03 -1.534478e-03 -1.599726e-03 -1.667390e-03 -1.778044e-03 -1.756477e-03 -1.732855e-03 -1.553269e-03 -1.372980e-03 -1.109301e-03 -8.337689e-04 -5.758401e-04 -2.496047e-04 -2.584756e-05 3.475531e-04 5.627946e-04 9.908460e-04 1.231106e-03 1.694034e-03 1.954178e-03 2.384944e-03 2.602469e-03 2.904791e-03 2.989876e-03 3.091992e-03 2.989556e-03 2.891066e-03 2.620600e-03 2.389350e-03 2.028841e-03 1.756489e-03 1.393479e-03 1.152153e-03 8.447401e-04 6.691383e-04 4.341501e-04 3.244615e-04 1.454157e-04 7.906181e-05 -7.736369e-05 
-6.342787e-05 -1.722838e-04 -1.767058e-04 -2.892088e-04 -2.881683e-04 -3.898649e-04 -3.688779e-04 -4.450316e-04 -4.015924e-04 -4.724007e-04 -4.447778e-04 -5.823189e-04 -6.377816e-04 -9.112676e-04 -1.068718e-03 -1.436150e-03 -1.592236e-03 -1.869081e-03 -1.856748e-03 -1.876031e-03 -1.654671e-03 -1.464811e-03 -1.187488e-03 -9.864861e-04 -8.275487e-04 -7.353830e-04 -7.204387e-04 -6.984429e-04 -7.324528e-04 -6.919629e-04 -6.860185e-04 -5.976157e-04 -5.263893e-04 -4.213118e-04 -2.941776e-04 -2.098796e-04 -3.317447e-05 2.079128e-05 2.487911e-04 2.892753e-04 5.630057e-04 6.135261e-04 9.057141e-04 9.728533e-04 1.233643e-03 1.293179e-03 1.469310e-03 1.476606e-03 1.541520e-03 1.463146e-03 1.431766e-03 1.270983e-03 1.185299e-03 9.782686e-04 8.808269e-04 6.717040e-04 5.898713e-04 4.085263e-04 3.531772e-04 2.079460e-04 1.781466e-04 6.041784e-05 4.817374e-05 -5.830842e-05 
-2.758691e-05 -1.049197e-04 -8.322437e-05 -1.614560e-04 -1.352030e-04 -2.084425e-04 -1.729765e-04 -2.388173e-04 -1.982217e-04 -2.742274e-04 -2.513552e-04 -3.761230e-04 -4.005344e-04 -5.978042e-04 -6.668819e-04 -8.942902e-04 -9.471888e-04 -1.098558e-03 -1.056195e-03 -1.053253e-03 -9.062915e-04 -7.860153e-04 -6.162795e-04 -4.856264e-04 -3.813941e-04 -3.058106e-04 -2.836938e-04 -2.516176e-04 -2.686595e-04 -2.428226e-04 -2.517616e-04 -2.196156e-04 -1.952872e-04 -1.715525e-04 -1.027298e-04 -1.062032e-04 1.500314e-05 -2.120455e-05 1.542060e-04 9.685268e-05 3.129758e-04 2.568383e-04 4.806602e-04 4.440545e-04 6.322333e-04 6.125022e-04 7.342640e-04 7.043573e-04 7.610744e-04 6.891978e-04 7.080467e-04 5.845014e-04 5.927537e-04 4.369568e-04 4.470838e-04 2.906769e-04 3.041394e-04 1.698809e-04 1.854903e-04 7.895927e-05 9.638837e-05 1.025691e-05 2.945624e-05 -4.796347e-05 
-8.600123e-06 -7.313491e-05 -3.710913e-05 -9.991322e-05 -5.849010e-05 -1.170750e-04 -6.952472e-05 -1.247894e-04 -7.720804e-05 -1.415936e-04 -1.092855e-04 -2.043399e-04 -2.018630e-04 -3.369060e-04 -3.574042e-04 -5.046642e-04 -5.118919e-04 -6.127174e-04 -5.679205e-04 -5.808823e-04 -4.853571e-04 -4.270206e-04 -3.255090e-04 -2.486068e-04 -1.853481e-04 -1.267948e-04 -1.103583e-04 -7.352175e-05 -8.315731e-05 -5.872696e-05 -6.787245e-05 -5.545482e-05 -4.271511e-05 -5.325762e-05 -8.336463e-07 -4.757241e-05 5.883456e-05 -2.985420e-05 1.340536e-04 1.246854e-05 2.166689e-04 8.767279e-05 2.916029e-04 1.862203e-04 3.418038e-04 2.736569e-04 3.588778e-04 3.087322e-04 3.491358e-04 2.800091e-04 3.239048e-04 2.151810e-04 2.863925e-04 1.484274e-04 2.349202e-04 9.489110e-05 1.745454e-04 5.389786e-05 1.156176e-04 2.002032e-05 6.542959e-05 -1.127927e-05 2.494947e-05 -4.239594e-05 
-1.102750e-06 -5.502241e-05 -1.500151e-05 -6.761327e-05 -2.393262e-05 -7.476382e-05 -2.711011e-05 -7.749189e-05 -2.990895e-05 -8.735980e-05 -4.819513e-05 -1.234951e-04 -9.962556e-05 -1.943014e-04 -1.817089e-04 -2.765340e-04 -2.585502e-04 -3.204088e-04 -2.814825e-04 -2.895805e-04 -2.332446e-04 -1.977329e-04 -1.459871e-04 -9.554410e-05 -6.870974e-05 -2.533469e-05 -2.649490e-05 3.191608e-06 -1.371107e-05 1.974444e-06 -1.210371e-05 -1.486497e-05 -5.834968e-06 -3.844370e-05 1.481928e-05 -6.234819e-05 5.350872e-05 -7.797552e-05 1.063091e-04 -7.235162e-05 1.605419e-04 -3.265407e-05 1.982784e-04 3.864703e-05 2.074612e-04 1.089794e-04 1.956812e-04 1.324317e-04 1.873322e-04 9.916097e-05 1.938671e-04 4.595544e-05 1.956424e-04 6.888913e-06 1.717190e-04 -1.167938e-05 1.271198e-04 -1.832824e-05 8.036382e-05 -2.244138e-05 4.338754e-05 -2.951993e-05 1.744814e-05 -4.098543e-05 
7.368811e-06 -4.406613e-05 -5.896830e-07 -4.896801e-05 -2.029351e-06 -4.817443e-05 1.676606e-06 -4.353048e-05 5.475233e-06 -4.354323e-05 -1.154808e-06 -6.024400e-05 -2.851042e-05 -9.824046e-05 -7.482193e-05 -1.439870e-04 -1.204816e-04 -1.699125e-04 -1.397262e-04 -1.557790e-04 -1.223009e-04 -1.069370e-04 -8.160276e-05 -4.834460e-05 -4.021981e-05 -3.274789e-06 -1.192521e-05 1.892649e-05 2.578079e-06 1.977685e-05 1.004277e-05 4.171680e-06 1.955912e-05 -2.333728e-05 4.006401e-05 -5.811060e-05 7.711256e-05 -9.197593e-05 1.276738e-04 -1.087364e-04 1.758525e-04 -8.717014e-05 1.955232e-04 -2.336129e-05 1.672983e-04 3.984490e-05 1.067013e-04 3.529431e-05 6.776632e-05 -3.854372e-05 8.706280e-05 -1.024532e-04 1.345689e-04 -1.085810e-04 1.535056e-04 -7.886421e-05 1.305527e-04 -4.835005e-05 8.861620e-05 -3.231278e-05 5.010674e-05 -3.022519e-05 2.332878e-05 -3.618003e-05 
4.328019e-06 -3.954728e-05 1.781772e-06 -4.078474e-05 3.248641e-06 -3.913333e-05 7.521084e-06 -3.504678e-05 1.186864e-05 -3.310191e-05 1.067942e-05 -3.945411e-05 -1.430246e-06 -5.570116e-05 -2.353234e-05 -7.400053e-05 -4.583951e-05 -8.034460e-05 -5.577109e-05 -6.562836e-05 -4.831755e-05 -3.395906e-05 -2.979129e-05 7.850757e-07 -1.115535e-05 2.527351e-05 5.883826e-07 3.308162e-05 5.214203e-06 2.401258e-05 7.491152e-06 4.122935e-07 1.504001e-05 -3.580883e-05 3.663496e-05 -8.347860e-05 7.856815e-05 -1.374399e-04 1.376278e-04 -1.788627e-04 1.939618e-04 -1.725014e-04 2.133212e-04 -9.613656e-05 1.716563e-04 -1.369496e-07 9.841153e-05 4.945797e-06 7.850428e-05 -9.389765e-05 1.496307e-04 -1.749273e-04 2.252300e-04 -1.778586e-04 2.213156e-04 -1.358747e-04 1.561602e-04 -9.023524e-05 8.544356e-05 -5.863401e-05 3.792538e-05 -4.288916e-05 1.395414e-05 -3.851011e-05 
9.137707e-06 -3.435390e-05 7.434386e-06 -3.348975e-05 1.116811e-05 -2.924360e-05 1.714763e-05 -2.313583e-05 2.245734e-05 -1.905907e-05 2.312065e-05 -2.133223e-05 1.565693e-05 -3.101521e-05 3.224648e-07 -4.327253e-05 -1.756833e-05 -4.935793e-05 -3.066060e-05 -4.278817e-05 -3.463058e-05 -2.427458e-05 -3.032385e-05 -8.876190e-07 -2.144235e-05 1.865798e-05 -1.129213e-05 2.775798e-05 -1.451846e-06 2.290948e-05 8.631004e-06 2.771802e-06 2.302362e-05 -3.398839e-05 5.061909e-05 -9.009341e-05 1.020923e-04 -1.640690e-04 1.795632e-04 -2.328564e-04 2.619431e-04 -2.388184e-04 2.976647e-04 -1.317356e-04 2.307202e-04 1.202947e-05 8.190367e-05 -1.703964e-05 -8.307444e-07 -2.380703e-04 9.198224e-05 -3.724744e-04 2.516506e-04 -3.119794e-04 2.969682e-04 -1.855725e-04 2.269378e-04 -9.288595e-05 1.297488e-04 -4.851388e-05 5.916413e-05 -3.443068e-05 2.265580e-05 -3.310210e-05 
-3.698917e-07 -3.390411e-05 3.204374e-06 -3.214222e-05 8.670709e-06 -2.885285e-05 1.445217e-05 -2.405108e-05 1.964140e-05 -1.973766e-05 2.246386e-05 -1.818576e-05 2.100250e-05 -1.968867e-05 1.496326e-05 -2.133960e-05 6.443579e-06 -1.847924e-05 -1.435614e-06 -8.184377e-06 -6.812798e-06 8.161844e-06 -9.873369e-06 2.543324e-05 -1.145520e-05 3.749282e-05 -1.140579e-05 3.957275e-05 -8.537089e-06 2.895111e-05 -1.273562e-06 3.885335e-06 1.399175e-05 -3.923213e-05 4.695423e-05 -1.089740e-04 1.127790e-04 -2.136015e-04 2.186143e-04 -3.342165e-04 3.395125e-04 -3.876216e-04 4.028315e-04 -2.606252e-04 3.239690e-04 -2.074016e-05 1.361696e-04 -3.033469e-05 8.368263e-05 -3.554206e-04 3.192032e-04 -5.202941e-04 5.326328e-04 -4.271718e-04 4.737233e-04 -2.690152e-04 2.784065e-04 -1.494704e-04 1.172176e-04 -8.088016e-05 3.368256e-05 -4.884076e-05 4.228983e-06 -3.714191e-05 
1.046167e-06 -3.355486e-05 5.619508e-06 -3.032445e-05 1.290970e-05 -2.499908e-05 1.933845e-05 -1.932098e-05 2.371138e-05 -1.547004e-05 2.493459e-05 -1.510116e-05 2.191553e-05 -1.809128e-05 1.442534e-05 -2.191196e-05 3.603853e-06 -2.256670e-05 -8.499274e-06 -1.679607e-05 -1.975390e-05 -4.046714e-06 -2.816402e-05 1.299293e-05 -3.151340e-05 2.910441e-05 -2.772960e-05 3.778327e-05 -1.664937e-05 3.294347e-05 -8.730391e-07 1.042036e-05 1.895504e-05 -3.459911e-05 5.394938e-05 -1.165602e-04 1.297212e-04 -2.594196e-04 2.697834e-04 -4.538604e-04 4.596274e-04 -5.727254e-04 6.031109e-04 -3.829895e-04 5.261991e-04 5.914687e-05 1.783782e-04 2.210768e-05 -3.769545e-05 -7.005127e-04 2.593666e-04 -9.963979e-04 7.089279e-04 -6.656865e-04 7.112389e-04 -3.033014e-04 4.399299e-04 -1.156602e-04 1.937167e-04 -5.023590e-05 6.022299e-05 -3.539356e-05 1.043632e-05 -3.422419e-05 
-1.073058e-05 -3.348454e-05 7.836320e-07 -3.125563e-05 9.384558e-06 -2.761861e-05 1.543013e-05 -2.291093e-05 2.000573e-05 -1.842966e-05 2.333246e-05 -1.514637e-05 2.489498e-05 -1.279780e-05 2.403604e-05 -9.672456e-06 2.026588e-05 -3.428846e-06 1.313997e-05 7.411571e-06 2.272183e-06 2.227945e-05 -1.177728e-05 3.842333e-05 -2.593042e-05 5.161320e-05 -3.428382e-05 5.687804e-05 -3.152879e-05 4.914280e-05 -1.818902e-05 2.421830e-05 2.383655e-06 -2.366122e-05 4.139050e-05 -1.160889e-04 1.372439e-04 -3.032157e-04 3.348956e-04 -6.173875e-04 6.264502e-04 -9.210709e-04 8.741742e-04 -7.907225e-04 8.050186e-04 -8.082611e-05 3.188310e-04 -5.547889e-05 1.175797e-04 -1.220290e-03 9.124172e-04 -1.449632e-03 1.476831e-03 -9.136057e-04 1.065628e-03 -4.614662e-04 4.675921e-04 -2.128149e-04 1.245334e-04 -9.638522e-05 2.340717e-06 -5.080476e-05 -1.907939e-05 -3.693280e-05 
-1.284936e-05 -4.314704e-05 3.022592e-06 -3.546047e-05 1.453263e-05 -2.735292e-05 2.104293e-05 -2.084324e-05 2.400165e-05 -1.715949e-05 2.436190e-05 -1.663552e-05 2.224539e-05 -1.843937e-05 1.721822e-05 -2.049787e-05 8.571075e-06 -1.990607e-05 -4.370684e-06 -1.374816e-05 -2.149003e-05 -7.178035e-08 -4.040812e-05 2.097008e-05 -5.507083e-05 4.551278e-05 -5.692521e-05 6.450987e-05 -4.148321e-05 6.564252e-05 -1.652488e-05 4.160672e-05 4.386363e-06 -7.207686e-06 3.231983e-05 -1.047361e-04 1.249219e-04 -3.475867e-04 3.639574e-04 -8.524709e-04 7.876448e-04 -1.475710e-03 1.260609e-03 -1.421342e-03 1.309956e-03 -4.121048e-05 4.485468e-04 2.653097e-04 -4.125421e-05 -2.202292e-03 1.017577e-03 -2.642028e-03 2.312264e-03 -1.218096e-03 1.756219e-03 -3.632562e-04 7.897600e-04 -9.593662e-05 2.263575e-04 -4.724341e-05 2.006144e-05 -4.676017e-05 -2.173858e-05 -4.762946e-05 
-1.657927e-05 -4.210943e-05 3.474208e-06 -3.858221e-05 1.296491e-05 -3.306681e-05 1.740849e-05 -2.707109e-05 2.031255e-05 -2.183288e-05 2.326962e-05 -1.764616e-05 2.653554e-05 -1.375014e-05 2.926836e-05 -8.558915e-06 2.942054e-05 -2.086206e-07 2.368514e-05 1.273761e-05 8.283860e-06 3.070688e-05 -1.841265e-05 5.278853e-05 -5.133846e-05 7.621392e-05 -7.584908e-05 9.467717e-05 -7.530158e-05 9.691261e-05 -5.177164e-05 7.344445e-05 -3.080295e-05 2.797699e-05 -1.137667e-05 -5.871060e-05 9.041117e-05 -3.312732e-04 4.172123e-04 -1.073994e-03 1.044943e-03 -2.382975e-03 1.725303e-03 -3.220352e-03 1.633423e-03 -1.540668e-03 8.679094e-05 -5.211341e-04 2.136145e-04 -4.096258e-03 4.068392e-03 -3.335391e-03 5.058491e-03 -1.468773e-03 2.434225e-03 -6.392985e-04 6.264371e-04 -2.620075e-04 1.956782e-05 -1.037149e-04 -7.810681e-05 -5.420291e-05 -5.058307e-05 -4.421746e-05 
-1.768474e-05 -7.005943e-05 1.105328e-05 -5.000451e-05 2.382546e-05 -3.466096e-05 2.776530e-05 -2.476107e-05 2.777507e-05 -1.996212e-05 2.639020e-05 -1.930596e-05 2.438401e-05 -2.134393e-05 2.096588e-05 -2.412680e-05 1.374142e-05 -2.501960e-05 -9.507794e-07 -2.031999e-05 -2.650935e-05 -5.095718e-06 -6.254318e-05 2.551066e-05 -9.965167e-05 7.151394e-05 -1.172794e-04 1.194170e-04 -9.655499e-05 1.386130e-04 -5.214664e-05 1.071375e-04 -3.735985e-05 5.782497e-05 -6.078861e-05 8.646802e-06 -1.129441e-05 -2.815712e-04 2.942545e-04 -1.451583e-03 9.602528e-04 -4.208216e-03 1.563486e-03 -7.552127e-03 3.028066e-04 -6.500440e-03 -4.211003e-03 -1.643066e-03 1.452672e-03 -3.446101e-03 1.028790e-02 -2.379000e-03 1.113469e-02 -4.572985e-05 4.792241e-03 1.181075e-04 1.216670e-03 -2.011796e-05 1.001589e-04 -9.399447e-05 -9.375368e-05 -1.063135e-04 -6.499873e-05 -9.170039e-05 
4.437014e-06 -7.097279e-05 2.172958e-05 -5.900261e-05 2.426800e-05 -4.643913e-05 2.288823e-05 -3.597590e-05 2.208416e-05 -2.829478e-05 2.380003e-05 -2.262905e-05 2.870972e-05 -1.741941e-05 3.597943e-05 -1.081794e-05 4.232116e-05 -9.101047e-07 4.105720e-05 1.433929e-05 2.225444e-05 3.719382e-05 -2.372454e-05 7.004442e-05 -9.565143e-05 1.142681e-04 -1.657082e-04 1.642477e-04 -1.829691e-04 1.935058e-04 -1.355920e-04 1.638706e-04 -1.132829e-04 1.116404e-04 -1.807164e-04 1.194246e-04 -1.992576e-04 -9.659691e-05 9.511238e-05 -1.707786e-03 6.148564e-04 -7.482135e-03 -9.252759e-04 -2.102701e-02 -1.196679e-02 -3.499033e-02 -3.087454e-02 -2.055029e-02 4.593118e-03 8.975006e-03 5.241471e-02 1.842908e-02 3.222875e-02 5.434740e-03 7.418466e-03 2.975154e-04 6.096354e-04 -1.912663e-04 -2.751973e-04 -1.124906e-04 -1.730552e-04 -8.319253e-05 -5.078460e-05 -7.843464e-05 
2.046947e-05 -1.209475e-04 4.456739e-05 -7.453687e-05 4.682514e-05 -4.557387e-05 4.196437e-05 -2.922390e-05 3.604468e-05 -2.177789e-05 3.162780e-05 -2.036887e-05 2.948490e-05 -2.292345e-05 2.832370e-05 -2.798885e-05 2.384012e-05 -3.371073e-05 8.163660e-06 -3.561916e-05 -2.922915e-05 -2.402280e-05 -9.694474e-05 1.635138e-05 -1.894654e-04 9.881478e-05 -2.684675e-04 2.106399e-04 -2.680393e-04 2.771706e-04 -1.858373e-04 1.988970e-04 -1.799402e-04 8.857977e-05 -3.554505e-04 2.284845e-04 -5.653315e-04 1.642448e-04 -7.875496e-04 -2.638895e-03 -2.598185e-03 -1.688529e-02 -1.607141e-02 -6.612870e-02 -7.536956e-02 -1.557062e-01 -1.705551e-01 -1.018076e-01 3.131098e-02 1.294103e-01 2.276206e-01 1.349319e-01 1.133845e-01 3.815206e-02 2.267992e-02 5.625802e-03 2.374378e-03 2.145290e-04 -2.266744e-04 -3.405200e-04 -2.175232e-04 -2.839628e-04 -5.664124e-05 -1.905819e-04 
7.974356e-05 -1.361845e-04 6.182972e-05 -9.716713e-05 4.412884e-05 -6.766649e-05 3.180454e-05 -4.785053e-05 2.522809e-05 -3.537654e-05 2.484313e-05 -2.712177e-05 3.153273e-05 -2.020101e-05 4.511802e-05 -1.243536e-05 6.205502e-05 -1.879955e-06 7.251635e-05 1.434738e-05 5.661189e-05 4.063950e-05 -1.747480e-05 8.221285e-05 -1.799369e-04 1.455178e-04 -4.070557e-04 2.367907e-04 -5.562272e-04 3.201817e-04 -4.835481e-04 2.475180e-04 -4.064836e-04 6.657014e-05 -6.657744e-04 2.742499e-04 -1.243549e-03 2.897787e-04 -2.731733e-03 -4.881417e-03 -1.194046e-02 -4.152498e-02 -7.343495e-02 -2.224382e-01 -3.548040e-01 -6.779007e-01 -7.723450e-01 -4.885963e-01 7.025319e-02 6.597146e-01 1.092128e+00 6.958716e-01 4.193107e-01 1.558819e-01 6.262552e-02 1.945036e-02 5.201737e-03 1.680824e-03 1.331310e-05 -5.568899e-05 -2.340903e-05 -1.980342e-04 7.239764e-05 -1.781488e-04 
1.411108e-04 -1.917911e-04 1.106671e-04 -1.042021e-04 8.317273e-05 -5.571529e-05 6.279012e-05 -3.005844e-05 4.887782e-05 -1.802143e-05 4.105277e-05 -1.422812e-05 3.927538e-05 -1.631270e-05 4.184628e-05 -2.453958e-05 4.285255e-05 -3.983021e-05 2.942785e-05 -5.939887e-05 -2.223662e-05 -7.141055e-05 -1.511174e-04 -5.215731e-05 -4.016654e-04 2.835366e-05 -7.629300e-04 1.776708e-04 -1.055190e-03 2.842664e-04 -1.031033e-03 1.676356e-05 -9.601322e-04 -4.482672e-04 -1.363502e-03 -3.426395e-05 -2.551306e-03 -2.320814e-04 -8.043777e-03 -1.406720e-02 -4.538299e-02 -1.255006e-01 -2.914987e-01 -7.773620e-01 -1.451953e+00 -2.615134e+00 -2.987581e+00 -1.717882e+00 3.814167e-01 3.146527e+00 4.613750e+00 3.092175e+00 1.638095e+00 6.434313e-01 2.398351e-01 7.722427e-02 2.338356e-02 5.598019e-03 1.567323e-03 -5.550214e-04 1.600212e-04 -5.972464e-04 1.527317e-04 -3.476679e-04 
2.054347e-04 -2.440753e-04 1.123900e-04 -1.485081e-04 6.656590e-05 -8.948506e-05 4.337331e-05 -5.436295e-05 3.255687e-05 -3.345141e-05 3.130251e-05 -1.999922e-05 4.045598e-05 -1.001852e-05 6.133614e-05 -1.778972e-06 9.270561e-05 6.224956e-06 1.254485e-04 1.711661e-05 1.273252e-04 3.055491e-05 8.607685e-06 2.334537e-05 -4.136420e-04 -6.803076e-05 -1.330143e-03 -2.818016e-04 -2.503700e-03 -4.799719e-04 -2.900802e-03 -7.123681e-04 -2.313978e-03 -1.203062e-03 -2.363211e-03 -8.427055e-04 -4.968991e-03 -3.537250e-03 -2.122389e-02 -4.319362e-02 -1.415480e-01 -3.777001e-01 -1.000872e+00 -2.591904e+00 -5.306890e+00 -9.033005e+00 -8.908319e+00 -4.524512e+00 2.960748e+00 1.294741e+01 1.777657e+01 1.211865e+01 5.822153e+00 2.291736e+00 8.157871e-01 2.764589e-01 8.632492e-02 2.602136e-02 8.544182e-03 1.488657e-03 1.269520e-03 -4.173679e-04 4.198464e-04 -3.806607e-04 
3.301900e-04 -2.556323e-04 1.869190e-04 -1.247611e-04 1.213650e-04 -5.404128e-05 8.876184e-05 -1.486680e-05 7.262704e-05 7.539390e-06 6.670568e-05 1.981706e-05 6.856659e-05 2.237634e-05 7.555324e-05 1.047494e-05 8.161775e-05 -2.309686e-05 7.083177e-05 -8.622215e-05 -5.861343e-06 -1.967611e-04 -2.937973e-04 -4.188528e-04 -1.139922e-03 -9.244029e-04 -3.082561e-03 -1.955913e-03 -6.139115e-03 -3.371009e-03 -8.182746e-03 -4.486042e-03 -6.877713e-03 -4.725925e-03 -5.394793e-03 -3.741954e-03 -1.014978e-02 -1.330990e-02 -5.270242e-02 -1.287959e-01 -4.129948e-01 -1.136157e+00 -3.181320e+00 -8.219395e+00 -1.729143e+01 -2.896688e+01 -3.623841e+01 -2.157900e+01 3.372893e+01 5.121357e+01 4.296068e+01 4.089909e+01 1.940560e+01 7.491204e+00 2.639804e+00 8.595244e-01 2.758156e-01 7.637233e-02 2.616070e-02 4.415086e-03 3.092242e-03 -5.575332e-04 7.452390e-04 -4.836655e-04 
3.188488e-04 -3.520616e-04 1.412291e-04 -1.857196e-04 8.399979e-05 -8.838047e-05 6.620474e-05 -2.830208e-05 6.572346e-05 1.273653e-05 7.500609e-05 4.207504e-05 9.146335e-05 5.989611e-05 1.156145e-04 6.378531e-05 1.520330e-04 5.379367e-05 2.018031e-04 2.524731e-05 2.114990e-04 -8.902449e-05 -1.032067e-04 -6.073713e-04 -1.676770e-03 -2.480730e-03 -6.563034e-03 -7.338357e-03 -1.644243e-02 -1.461821e-02 -2.492399e-02 -1.650655e-02 -1.856480e-02 -1.046865e-02 -8.936309e-03 -7.273986e-03 -1.873522e-02 -3.641084e-02 -1.236640e-01 -3.436489e-01 -1.083265e+00 -3.094502e+00 -8.860825e+00 -2.277834e+01 -5.321896e+01 -4.843170e+01 -2.450987e+01 -2.977528e+01 -6.710268e-01 2.709841e+01 7.077480e+01 1.027142e+02 5.403072e+01 2.107647e+01 7.427960e+00 2.460525e+00 7.843610e-01 2.281451e-01 7.274696e-02 1.679639e-02 7.237496e-03 1.834980e-04 1.105873e-03 -5.741596e-04 
4.998122e-04 -2.507534e-04 2.229574e-04 -1.097851e-04 1.499536e-04 -1.311812e-05 1.368120e-04 5.797654e-05 1.496963e-04 1.166238e-04 1.726113e-04 1.615717e-04 1.921201e-04 1.807323e-04 1.973216e-04 1.579467e-04 1.830905e-04 7.522612e-05 1.322445e-04 -1.219809e-04 -9.278989e-05 -6.826502e-04 -1.127448e-03 -2.531138e-03 -5.126326e-03 -8.407217e-03 -1.762583e-02 -2.411152e-02 -4.640285e-02 -5.193058e-02 -7.845128e-02 -6.224651e-02 -5.666265e-02 -2.834071e-02 -1.526611e-02 -1.396347e-02 -3.499609e-02 -8.467379e-02 -2.640917e-01 -8.088178e-01 -2.486349e+00 -7.289061e+00 -2.049901e+01 -5.037250e+01 -6.687092e+01 -5.170795e+01 -3.706645e+01 2.368732e+01 -1.087785e+01 -1.903467e+01 3.544016e+01 9.989777e+01 1.207616e+02 4.497627e+01 1.658866e+01 5.663136e+00 1.873486e+00 5.580321e-01 1.769407e-01 4.566836e-02 1.654691e-02 2.644851e-03 2.072168e-03 -2.788303e-04 
4.546842e-04 -3.174971e-04 1.392158e-04 -1.490687e-04 1.144918e-04 -6.289648e-06 1.536065e-04 1.152899e-04 2.199422e-04 2.270304e-04 2.908523e-04 3.167492e-04 3.395621e-04 3.580733e-04 3.473501e-04 3.308141e-04 3.220927e-04 2.277767e-04 2.708549e-04 -3.330481e-05 -2.469628e-05 -1.023411e-03 -1.887741e-03 -5.226378e-03 -1.062559e-02 -2.123896e-02 -4.290423e-02 -7.155594e-02 -1.317838e-01 -1.767217e-01 -2.512984e-01 -2.118570e-01 -1.555870e-01 -4.440262e-02 5.907749e-03 8.381748e-03 -4.562803e-02 -1.539126e-01 -5.021174e-01 -1.599935e+00 -4.812644e+00 -1.402328e+01 -3.873066e+01 -9.553352e+01 -6.856909e+01 -3.928652e+00 -3.581267e+01 2.288505e+01 -7.765972e+00 -7.051955e+00 2.536750e+01 2.562411e+01 9.746350e+01 6.122154e+01 2.688994e+01 1.032993e+01 3.639063e+00 1.166842e+00 3.716787e-01 1.047990e-01 3.392833e-02 7.440199e-03 3.297345e-03 -4.895486e-05 
8.003234e-04 -4.716984e-05 2.240710e-04 -8.234210e-06 2.072787e-04 1.470502e-04 3.059921e-04 3.315748e-04 4.557692e-04 5.289521e-04 6.080555e-04 6.931330e-04 6.977211e-04 7.582661e-04 6.697016e-04 6.738853e-04 5.083368e-04 3.966725e-04 1.480300e-04 -3.614370e-04 -1.081772e-03 -3.217807e-03 -6.596315e-03 -1.492594e-02 -3.001092e-02 -5.968403e-02 -1.177939e-01 -2.097167e-01 -3.854962e-01 -5.741406e-01 -8.196589e-01 -7.345818e-01 -4.322048e-01 -3.180090e-02 1.715713e-01 1.676505e-01 7.678080e-03 -2.206692e-01 -8.231783e-01 -2.660876e+00 -7.695582e+00 -2.132707e+01 -5.311052e+01 -1.142618e+02 -4.813242e+01 4.642734e+00 -2.410073e+01 8.088644e+00 6.501364e-01 -3.212719e+01 2.002683e+01 5.050668e+01 4.469201e+01 5.967888e+01 3.346527e+01 1.480499e+01 5.788669e+00 2.053701e+00 6.854675e-01 2.137815e-01 6.746619e-02 1.887086e-02 6.529461e-03 1.291432e-03 
1.182778e-03 1.186521e-04 2.171306e-04 6.276963e-05 2.661999e-04 3.068925e-04 5.034324e-04 6.396649e-04 8.241803e-04 1.009770e-03 1.138371e-03 1.315268e-03 1.315665e-03 1.424631e-03 1.246434e-03 1.251715e-03 9.052100e-04 7.356183e-04 1.594455e-04 -7.167108e-04 -2.434612e-03 -6.715012e-03 -1.450855e-02 -3.344004e-02 -6.893758e-02 -1.458120e-01 -2.942479e-01 -5.750540e-01 -1.092277e+00 -1.817995e+00 -2.658979e+00 -2.438346e+00 -1.090302e+00 1.963163e-01 9.224983e-01 1.085337e+00 4.771923e-01 -9.149942e-02 -1.114130e+00 -3.616757e+00 -1.009402e+01 -2.601141e+01 -5.943860e+01 -1.111583e+02 -2.991420e+01 -1.335479e+01 -2.613806e+00 1.834939e+01 1.692879e+01 3.374866e+00 -2.457627e+01 6.742380e+01 8.130466e+01 5.788959e+01 3.603586e+01 1.814652e+01 7.884660e+00 3.066362e+00 1.103360e+00 3.690839e-01 1.205624e-01 3.650188e-02 1.185258e-02 3.034621e-03 
2.209581e-03 6.559550e-04 3.977500e-04 3.162670e-04 4.883325e-04 6.740156e-04 9.421809e-04 1.253508e-03 1.556016e-03 1.922162e-03 2.154153e-03 2.472530e-03 2.484032e-03 2.652142e-03 2.322378e-03 2.290067e-03 1.565128e-03 1.209861e-03 -2.510576e-04 -2.044208e-03 -6.724457e-03 -1.600762e-02 -3.624117e-02 -8.020136e-02 -1.709411e-01 -3.648406e-01 -7.605039e-01 -1.553732e+00 -3.085292e+00 -5.496603e+00 -8.533602e+00 -8.018280e+00 -3.345309e+00 2.239435e-01 3.917551e+00 5.343244e+00 2.915694e+00 9.096181e-01 -1.022393e+00 -4.113335e+00 -1.133915e+01 -2.710280e+01 -5.595808e+01 -9.128857e+01 -6.289207e+01 -1.244841e+01 3.145904e+01 -2.446339e+01 -3.662797e+01 4.051774e+01 -4.711287e+00 1.467966e+01 7.561599e+01 5.556347e+01 3.680846e+01 2.037663e+01 9.689324e+00 4.108164e+00 1.591293e+00 5.736854e-01 1.970246e-01 6.464143e-02 2.113642e-02 6.510555e-03 
3.911183e-03 1.405233e-03 7.159457e-04 6.769161e-04 8.731345e-04 1.267976e-03 1.697594e-03 2.286494e-03 2.811250e-03 3.469181e-03 3.895879e-03 4.437099e-03 4.498906e-03 4.733703e-03 4.205237e-03 4.036654e-03 2.780071e-03 1.960191e-03 -8.200391e-04 -4.558134e-03 -1.423424e-02 -3.352548e-02 -7.692988e-02 -1.717249e-01 -3.747633e-01 -8.257639e-01 -1.785950e+00 -3.865438e+00 -8.013947e+00 -1.544926e+01 -2.773522e+01 -2.541275e+01 -7.574522e+00 1.005566e+01 2.501931e+01 2.492585e+01 1.349446e+01 5.256279e+00 3.269463e-01 -3.883957e+00 -1.143047e+01 -2.616100e+01 -4.851757e+01 -6.306279e+01 -6.992805e+01 -2.300288e+01 -4.554854e+00 9.699253e+00 1.371392e+01 -2.718951e+01 -1.540777e+00 2.744630e+01 5.019805e+01 4.986700e+01 3.646921e+01 2.168066e+01 1.111706e+01 5.066260e+00 2.102613e+00 8.100757e-01 2.947018e-01 1.027415e-01 3.490981e-02 1.160469e-02 
6.538123e-03 2.566094e-03 1.275880e-03 1.266585e-03 1.544984e-03 2.254447e-03 2.974582e-03 3.988485e-03 4.891467e-03 5.988255e-03 6.751316e-03 7.614187e-03 7.794493e-03 8.090175e-03 7.279332e-03 6.808264e-03 4.661759e-03 2.884479e-03 -2.398778e-03 -9.953117e-03 -2.960197e-02 -6.799829e-02 -1.584803e-01 -3.525692e-01 -7.922313e-01 -1.777056e+00 -3.983142e+00 -8.862840e+00 -1.905540e+01 -3.935665e+01 -5.466054e+01 -3.940592e+01 -3.499049e+01 -2.392269e+00 1.466997e+01 2.946716e+01 5.052019e+01 2.032651e+01 5.740600e+00 -2.021803e+00 -1.030561e+01 -2.385026e+01 -4.215184e+01 -5.417266e+01 -5.616083e+01 -2.274337e+01 -1.442181e+01 2.352058e+01 2.187948e+01 -2.622561e+01 1.947485e+01 4.927681e+01 4.915299e+01 4.609546e+01 3.521886e+01 2.227440e+01 1.215296e+01 5.888138e+00 2.598292e+00 1.062423e+00 4.089917e-01 1.507326e-01 5.363339e-02 1.887291e-02 
1.058204e-02 4.422136e-03 2.347047e-03 2.305345e-03 2.763526e-03 3.914039e-03 5.105421e-03 6.741474e-03 8.230532e-03 9.984743e-03 1.128475e-02 1.265872e-02 1.308788e-02 1.350262e-02 1.235758e-02 1.136610e-02 7.955547e-03 4.408986e-03 -4.678993e-03 -1.919096e-02 -5.483974e-02 -1.269643e-01 -2.953150e-01 -6.621033e-01 -1.502850e+00 -3.421258e+00 -7.790679e+00 -1.781684e+01 -4.185155e+01 -7.126887e+01 -3.647929e+01 -7.971409e+00 -3.025459e+01 1.227859e+01 1.189783e+01 1.346334e+00 6.121076e+01 5.308806e+01 1.870130e+01 2.852257e+00 -7.787497e+00 -2.065425e+01 -3.629125e+01 -4.670831e+01 -4.796737e+01 -3.443637e+01 -2.371320e+01 -2.270121e+01 -2.192561e+01 1.309705e+01 4.305835e+01 4.131484e+01 4.305391e+01 4.146834e+01 3.311078e+01 2.207789e+01 1.272215e+01 6.511753e+00 3.038526e+00 1.313288e+00 5.343262e-01 2.077457e-01 7.789965e-02 2.886209e-02 