# vtk DataFile Version 2.0
Comment goes here
ASCII

DATASET STRUCTURED_POINTS
DIMENSIONS    64   64   1

ORIGIN    0.000   0.000   0.000
SPACING   0.0156250.015625   1.000

POINT_DATA   4096
SCALARS Omega double
LOOKUP_TABLE default

-1.485537e-04 -1.831361e-04 -3.732949e-04 -5.251651e-04 -8.291442e-04 -1.071862e-03 -1.293814e-03 -1.302148e-03 -7.222703e-04 1.249688e-04 2.027412e-03 2.899333e-03 3.420363e-03 7.853720e-04 -2.583037e-03 -4.349575e-03 -4.449954e-03 -3.836580e-04 1.890230e-03 1.869726e-03 1.892451e-03 1.692322e-03 3.575475e-04 1.187915e-03 -1.173251e-05 8.302362e-04 1.951885e-03 8.186776e-04 4.899238e-03 1.069848e-03 2.904832e-03 -8.619586e-05 -2.519495e-03 -2.466219e-03 -6.516345e-04 6.046208e-04 1.530816e-03 1.836430e-03 1.232151e-03 1.921227e-03 1.288350e-03 6.387739e-04 1.998323e-03 -2.476464e-03 1.096248e-03 -1.208956e-03 1.569511e-03 3.987741e-03 1.790476e-03 -8.730358e-04 1.190842e-03 -3.664058e-03 1.132609e-03 -2.341151e-03 6.276501e-04 -7.219975e-04 2.238103e-04 -7.174307e-05 2.063633e-05 4.727980e-05 -4.974054e-05 2.544100e-05 -7.598948e-05 -3.520664e-05 
-7.625283e-05 -1.989199e-04 -3.044892e-04 -4.722414e-04 -6.285176e-04 -7.709671e-04 -8.413395e-04 -6.736063e-04 -3.519057e-04 4.445299e-04 1.118646e-03 1.858700e-03 1.539737e-03 3.730483e-04 -1.290293e-03 -2.615330e-03 -2.114541e-03 -7.548557e-04 7.255086e-04 1.124002e-03 7.828231e-04 8.199245e-04 -5.573579e-04 -2.172633e-04 -1.379122e-03 -8.546931e-04 -5.741622e-04 -5.705415e-04 1.486030e-03 -2.740358e-05 1.549489e-03 -9.490878e-04 -1.050319e-03 -1.872681e-03 -9.035893e-04 -1.695419e-04 2.671100e-04 7.450602e-04 3.602679e-04 6.259313e-04 -1.465472e-04 -2.262003e-04 -5.688517e-04 -1.279030e-03 -1.710595e-04 -4.289420e-04 1.657337e-03 1.234742e-03 1.314555e-03 -7.189424e-04 -4.061735e-04 -1.769449e-03 -3.012149e-04 -1.086411e-03 3.674204e-04 -2.072437e-04 5.815150e-04 1.439752e-04 4.428596e-04 1.590522e-04 2.421739e-04 7.760182e-05 8.061832e-05 -3.080013e-05 
-1.413659e-04 -1.643478e-04 -2.615547e-04 -3.139925e-04 -4.002758e-04 -4.354287e-04 -3.863988e-04 -2.842845e-04 8.189415e-05 3.690012e-04 9.247889e-04 9.737486e-04 8.985750e-04 1.600176e-04 -7.424748e-04 -1.136444e-03 -1.332530e-03 -5.188413e-04 -1.593259e-05 4.069055e-04 4.744584e-04 6.841726e-04 3.143178e-04 6.246886e-04 4.013173e-04 4.985970e-04 1.072702e-03 3.944120e-04 1.602871e-03 1.799795e-04 7.024670e-04 -4.134054e-04 -7.286000e-04 -8.038092e-04 -4.809230e-04 -1.066645e-05 2.897140e-04 5.814073e-04 5.384684e-04 5.885280e-04 5.974095e-04 7.031937e-06 5.500404e-04 -6.809365e-04 1.754204e-04 -6.580091e-05 1.693226e-04 9.492975e-04 4.056986e-04 9.971628e-06 5.384999e-04 -9.897841e-04 5.363573e-04 -9.509054e-04 3.756431e-04 -4.836974e-04 1.933864e-04 -1.573591e-04 6.342303e-05 -3.451409e-05 -1.321409e-05 -2.249729e-05 -6.815898e-05 -6.703901e-05 
-5.715120e-05 -1.341051e-04 -1.757802e-04 -2.376693e-04 -2.765451e-04 -2.739464e-04 -2.454447e-04 -8.997726e-05 6.190996e-05 3.673578e-04 5.187752e-04 6.616165e-04 4.697648e-04 8.488115e-05 -3.406829e-04 -7.562722e-04 -6.518628e-04 -4.798749e-04 -9.725465e-05 1.316957e-04 5.504292e-05 2.257187e-04 -2.410923e-04 -2.495076e-05 -4.021361e-04 -2.124179e-04 -5.530691e-05 -1.619747e-04 5.151342e-04 -1.213595e-04 4.608682e-04 -4.203367e-04 -1.920113e-04 -5.992950e-04 -3.155376e-04 -1.853975e-04 -2.724871e-05 1.696700e-04 8.013088e-05 1.709855e-04 -2.584787e-05 -9.586956e-05 -1.143293e-04 -2.994943e-04 5.242380e-05 -1.182532e-05 4.276039e-04 2.764100e-04 3.432286e-04 -1.788027e-04 -6.351092e-05 -5.791184e-04 -1.167947e-04 -4.915585e-04 8.283814e-05 -2.034951e-04 2.177868e-04 -1.142775e-05 2.154529e-04 4.426942e-05 1.411593e-04 2.115499e-05 4.721584e-05 -4.174830e-05 
-9.609855e-05 -1.139949e-04 -1.478470e-04 -1.635486e-04 -1.698631e-04 -1.624641e-04 -9.155165e-05 -3.334783e-05 1.378006e-04 2.185633e-04 3.803453e-04 3.462734e-04 2.689154e-04 5.766415e-05 -2.389538e-04 -3.292306e-04 -4.668519e-04 -2.462394e-04 -1.731025e-04 6.817771e-05 8.795348e-05 2.647658e-04 1.859295e-04 3.097322e-04 3.133562e-04 2.724475e-04 5.336656e-04 1.871906e-04 5.992739e-04 2.571136e-05 2.470530e-04 -2.077364e-04 -1.981496e-04 -3.011057e-04 -2.020804e-04 -8.102044e-05 5.283987e-05 1.360669e-04 2.227276e-04 1.410561e-04 2.606149e-04 -4.656655e-05 1.840660e-04 -1.752538e-04 3.535269e-05 5.684882e-05 1.303534e-05 3.123977e-04 1.210410e-04 8.301161e-05 2.261072e-04 -2.748727e-04 2.605126e-04 -3.702902e-04 2.170830e-04 -2.612273e-04 1.384872e-04 -1.317506e-04 6.319376e-05 -6.033178e-05 3.877494e-06 -4.479456e-05 -4.553682e-05 -6.714638e-05 
-3.314383e-05 -7.802788e-05 -8.599578e-05 -1.067404e-04 -1.074546e-04 -8.363576e-05 -5.412064e-05 3.067856e-05 9.077201e-05 2.007293e-04 2.310619e-04 2.515716e-04 1.720142e-04 3.074997e-05 -9.219014e-05 -2.474713e-04 -2.328768e-04 -2.304435e-04 -1.397910e-04 -4.667545e-05 -7.792729e-05 3.832303e-05 -1.193121e-04 1.554327e-06 -1.191456e-04 -4.777378e-05 2.215647e-05 -5.466361e-05 1.908703e-04 -8.344216e-05 1.640230e-04 -1.866526e-04 -2.561895e-05 -2.343062e-04 -1.034751e-04 -1.237780e-04 -3.989148e-05 1.526127e-06 1.325316e-05 2.432761e-05 9.239518e-06 -3.484869e-05 6.430443e-06 -5.885297e-05 6.565865e-05 3.150330e-05 1.446513e-04 8.090186e-05 1.049885e-04 -5.982187e-05 -1.384607e-05 -2.137021e-04 -4.566081e-05 -2.239573e-04 1.660242e-05 -1.346918e-04 8.089561e-05 -4.771252e-05 9.757433e-05 -7.262350e-06 7.200633e-05 -9.255343e-06 2.387646e-05 -3.790193e-05 
-5.417626e-05 -7.174952e-05 -7.352360e-05 -8.135586e-05 -6.551190e-05 -5.874375e-05 -9.310329e-06 1.372279e-05 8.896495e-05 1.084000e-04 1.562126e-04 1.337117e-04 8.813166e-05 2.742528e-05 -9.060920e-05 -1.037904e-04 -1.862030e-04 -1.012687e-04 -1.145650e-04 5.670129e-06 5.320373e-06 1.056686e-04 1.009307e-04 1.498289e-04 1.897539e-04 1.413357e-04 2.670970e-04 9.034896e-05 2.571643e-04 1.517303e-06 1.149193e-04 -9.659718e-05 -4.416099e-05 -1.316518e-04 -6.835921e-05 -6.923656e-05 1.495795e-05 4.363549e-06 9.295204e-05 1.220678e-05 1.114635e-04 -3.404009e-05 7.013153e-05 -4.383109e-05 8.366401e-06 4.491923e-05 -4.927683e-06 1.210456e-04 4.056234e-05 5.482374e-05 9.900764e-05 -7.622437e-05 1.309579e-04 -1.436857e-04 1.245116e-04 -1.306631e-04 9.179741e-05 -8.799453e-05 5.043006e-05 -5.580267e-05 1.092785e-05 -4.581197e-05 -2.408037e-05 -5.438483e-05 
-1.631973e-05 -4.277928e-05 -3.685353e-05 -4.475241e-05 -3.568081e-05 -1.912921e-05 3.387629e-07 3.929595e-05 6.356124e-05 1.014482e-04 1.073423e-04 1.037435e-04 7.332014e-05 1.447392e-05 -2.589500e-05 -9.083791e-05 -9.472666e-05 -1.080971e-04 -9.182417e-05 -5.462132e-05 -7.211739e-05 -1.013043e-05 -6.460084e-05 -3.116491e-06 -4.009163e-05 -1.284524e-05 2.050671e-05 -2.404689e-05 7.580726e-05 -4.883495e-05 6.535568e-05 -8.991253e-05 3.641427e-06 -1.080620e-04 -3.279148e-05 -7.712452e-05 -2.096809e-05 -3.215696e-05 2.510151e-06 -1.195210e-05 1.520344e-05 -1.369825e-05 2.618005e-05 -4.998550e-06 4.661118e-05 2.481434e-05 6.000407e-05 2.874520e-05 3.727928e-05 -2.551173e-05 -5.046208e-06 -8.919531e-05 -2.016060e-05 -1.074833e-04 3.320340e-07 -8.210603e-05 2.874126e-05 -4.611721e-05 4.132888e-05 -2.354336e-05 3.324653e-05 -1.984270e-05 1.088046e-05 -2.966188e-05 
-2.613785e-05 -4.377937e-05 -3.276595e-05 -4.085676e-05 -2.234215e-05 -2.167711e-05 8.581153e-06 1.509089e-05 4.854970e-05 5.185703e-05 6.556321e-05 5.609150e-05 3.005844e-05 1.498865e-05 -4.000548e-05 -3.370435e-05 -8.153898e-05 -3.921618e-05 -6.125489e-05 -9.986743e-07 -5.223278e-06 4.548328e-05 5.512462e-05 7.259629e-05 1.076674e-04 7.178989e-05 1.389670e-04 4.479823e-05 1.257534e-04 -6.982000e-07 6.537227e-05 -4.607136e-05 1.673861e-06 -6.496832e-05 -1.597540e-05 -4.920819e-05 9.614569e-06 -2.470456e-05 3.996924e-05 -1.702096e-05 4.685580e-05 -2.166119e-05 2.749134e-05 -1.065582e-05 1.380102e-06 2.681680e-05 -4.551289e-06 5.346198e-05 1.615719e-05 3.176840e-05 4.716129e-05 -1.912330e-05 6.899654e-05 -5.628952e-05 7.224562e-05 -6.395729e-05 5.908377e-05 -5.386001e-05 3.702225e-05 -4.226513e-05 1.282278e-05 -3.749359e-05 -9.317108e-06 -3.972739e-05 
-6.833696e-06 -2.324536e-05 -1.326670e-05 -1.793252e-05 -7.790266e-06 -5.094232e-08 1.248032e-05 2.823640e-05 3.964523e-05 5.130161e-05 5.332363e-05 4.641957e-05 3.514477e-05 7.789632e-06 -7.303649e-06 -3.670838e-05 -4.264250e-05 -5.214510e-05 -5.302778e-05 -3.785098e-05 -4.795951e-05 -1.793145e-05 -3.712685e-05 -8.044632e-06 -1.758956e-05 -7.962538e-06 1.056345e-05 -1.457132e-05 3.159947e-05 -2.874381e-05 2.826509e-05 -4.688360e-05 6.620821e-06 -5.562363e-05 -9.196401e-06 -4.681956e-05 -7.778163e-06 -2.927407e-05 2.806670e-06 -1.526329e-05 1.334641e-05 -6.077063e-06 2.226445e-05 4.677048e-06 2.933015e-05 1.559203e-05 2.877632e-05 1.200459e-05 1.538244e-05 -1.269298e-05 -2.834570e-06 -4.196664e-05 -1.058662e-05 -5.551726e-05 -3.813534e-06 -5.005699e-05 8.451817e-06 -3.609776e-05 1.572938e-05 -2.465504e-05 1.378848e-05 -2.034049e-05 4.504804e-06 -2.165511e-05 
-1.025096e-05 -2.673280e-05 -1.259415e-05 -2.147871e-05 -5.676379e-06 -8.765976e-06 9.470981e-06 9.665651e-06 2.513368e-05 2.495431e-05 2.805546e-05 2.546971e-05 9.907336e-06 9.011580e-06 -1.984809e-05 -1.015190e-05 -3.806295e-05 -1.392363e-05 -3.050901e-05 5.912230e-07 -2.795122e-06 2.160164e-05 3.152721e-05 3.584822e-05 6.110909e-05 3.632126e-05 7.599331e-05 2.251150e-05 6.839642e-05 -6.823588e-07 4.150151e-05 -2.346558e-05 1.326507e-05 -3.519918e-05 1.775905e-06 -3.299008e-05 7.740678e-06 -2.474414e-05 1.756098e-05 -1.874783e-05 1.882407e-05 -1.388673e-05 9.682005e-06 -2.704288e-06 -1.348998e-06 1.512858e-05 -3.146292e-06 2.620436e-05 7.604097e-06 1.847351e-05 2.455531e-05 -2.736036e-06 3.832929e-05 -2.230591e-05 4.296346e-05 -3.152243e-05 3.794754e-05 -3.192453e-05 2.637903e-05 -2.921918e-05 1.224784e-05 -2.751493e-05 -9.697165e-07 -2.745750e-05 
-2.120692e-06 -1.287641e-05 -2.960257e-06 -6.864726e-06 2.022429e-06 4.285355e-06 1.285099e-05 1.802861e-05 2.462313e-05 2.689306e-05 2.859988e-05 2.263451e-05 1.860648e-05 4.722789e-06 -1.680332e-06 -1.591804e-05 -2.060409e-05 -2.621133e-05 -2.976721e-05 -2.372300e-05 -2.936239e-05 -1.579671e-05 -2.239220e-05 -9.726281e-06 -1.040175e-05 -8.124481e-06 3.674530e-06 -1.107061e-05 1.323360e-05 -1.800240e-05 1.288419e-05 -2.620713e-05 5.219162e-06 -3.051609e-05 -1.241875e-06 -2.774722e-05 -1.209729e-06 -1.991156e-05 3.905618e-06 -1.096149e-05 1.036503e-05 -2.590363e-06 1.564705e-05 5.037844e-06 1.793785e-05 9.406422e-06 1.517106e-05 5.614194e-06 7.108584e-06 -7.155181e-06 -2.115828e-06 -2.217249e-05 -6.681596e-06 -3.116832e-05 -4.740556e-06 -3.152410e-05 5.084354e-07 -2.648935e-05 4.488452e-06 -2.079472e-05 4.704314e-06 -1.713324e-05 1.622830e-06 -1.528483e-05 
-2.267692e-06 -1.653259e-05 -3.382794e-06 -1.199165e-05 2.190081e-07 -4.158990e-06 7.024766e-06 5.331764e-06 1.278183e-05 1.231689e-05 1.206983e-05 1.252508e-05 2.672620e-06 5.875519e-06 -1.065446e-05 -1.906351e-06 -1.851524e-05 -3.826168e-06 -1.455198e-05 1.975162e-06 7.316591e-08 1.133543e-05 1.920610e-05 1.818439e-05 3.577856e-05 1.839261e-05 4.381311e-05 1.119598e-05 4.028023e-05 -8.807698e-07 2.772155e-05 -1.299805e-05 1.396174e-05 -2.041038e-05 6.359833e-06 -2.156451e-05 5.855234e-06 -1.871286e-05 7.600328e-06 -1.455604e-05 6.547662e-06 -9.143578e-06 1.877642e-06 -1.069405e-06 -2.732573e-06 8.340322e-06 -2.565778e-06 1.376928e-05 3.870832e-06 1.091460e-05 1.377111e-05 1.429515e-06 2.245795e-05 -8.987832e-06 2.641890e-05 -1.597508e-05 2.474812e-05 -1.887588e-05 1.873471e-05 -1.934472e-05 1.067649e-05 -1.904936e-05 2.968046e-06 -1.840828e-05 
2.272179e-08 -7.296141e-06 1.185096e-06 -2.287167e-06 4.939720e-06 4.547675e-06 1.074487e-05 1.147452e-05 1.593278e-05 1.505076e-05 1.671505e-05 1.220800e-05 1.089146e-05 3.285268e-06 2.375313e-07 -7.165646e-06 -1.038627e-05 -1.378140e-05 -1.679818e-05 -1.477316e-05 -1.780049e-05 -1.230062e-05 -1.421616e-05 -9.504758e-06 -7.547422e-06 -8.307335e-06 -1.098890e-07 -9.309897e-06 5.031250e-06 -1.218666e-05 5.910117e-06 -1.554829e-05 3.605682e-06 -1.725830e-05 1.384964e-06 -1.588858e-05 1.662371e-06 -1.175459e-05 4.384533e-06 -6.215772e-06 7.969020e-06 -5.391499e-07 1.068012e-05 4.057259e-06 1.112788e-05 5.747904e-06 8.530896e-06 2.745011e-06 3.443910e-06 -4.609463e-06 -1.915642e-06 -1.315005e-05 -4.976003e-06 -1.911255e-05 -4.802529e-06 -2.083509e-05 -2.574921e-06 -1.921980e-05 -3.088711e-07 -1.624042e-05 6.689291e-07 -1.331682e-05 3.878548e-07 -1.061955e-05 
1.301322e-06 -1.031397e-05 4.960932e-07 -7.004890e-06 2.003895e-06 -2.269759e-06 4.722509e-06 2.820604e-06 6.491620e-06 6.351611e-06 5.115892e-06 6.709173e-06 1.516830e-07 4.113692e-06 -5.979584e-06 9.596613e-07 -9.164330e-06 8.619014e-08 -6.509164e-06 2.437430e-06 1.703896e-06 6.450504e-06 1.249356e-05 9.405323e-06 2.189967e-05 9.177094e-06 2.658138e-05 5.243578e-06 2.514938e-05 -1.189367e-06 1.901695e-05 -7.794841e-06 1.173167e-05 -1.233047e-05 6.543044e-06 -1.384468e-05 4.177229e-06 -1.284348e-05 2.994707e-06 -1.019951e-05 1.125644e-06 -6.191590e-06 -1.607514e-06 -9.351790e-07 -3.512387e-06 4.380916e-06 -2.547573e-06 7.394103e-06 1.832536e-06 6.363214e-06 8.135923e-06 1.836917e-06 1.384397e-05 -3.868746e-06 1.689541e-05 -8.570054e-06 1.656600e-05 -1.140291e-05 1.344182e-05 -1.262803e-05 8.868427e-06 -1.279648e-05 4.377106e-06 -1.211325e-05 
9.606767e-07 -4.093535e-06 2.765354e-06 -1.884647e-07 5.546254e-06 4.124251e-06 8.782181e-06 7.804300e-06 1.108566e-05 9.285991e-06 1.080113e-05 7.425024e-06 7.144076e-06 2.591130e-06 1.035776e-06 -3.199844e-06 -5.288234e-06 -7.590950e-06 -9.670511e-06 -9.498944e-06 -1.108520e-05 -9.452036e-06 -9.650670e-06 -8.669883e-06 -6.225391e-06 -8.124050e-06 -2.170453e-06 -8.240974e-06 1.005470e-06 -8.946012e-06 2.414677e-06 -9.707787e-06 2.407007e-06 -9.735698e-06 2.221336e-06 -8.456588e-06 2.893914e-06 -5.882452e-06 4.525135e-06 -2.530491e-06 6.414760e-06 8.304454e-07 7.588271e-06 3.240690e-06 7.237466e-06 3.613274e-06 5.068776e-06 1.244367e-06 1.591800e-06 -3.432396e-06 -1.953517e-06 -8.769096e-06 -4.257546e-06 -1.285252e-05 -4.750523e-06 -1.462983e-05 -3.830013e-06 -1.423275e-05 -2.383322e-06 -1.246267e-05 -1.109564e-06 -1.006559e-05 -1.327023e-07 -7.323169e-06 
2.683255e-06 -6.332080e-06 2.017076e-06 -4.045513e-06 2.423966e-06 -1.195488e-06 3.230376e-06 1.602920e-06 3.404723e-06 3.505666e-06 2.115087e-06 3.925041e-06 -5.619098e-07 3.052368e-06 -3.352412e-06 1.882936e-06 -4.386885e-06 1.536224e-06 -2.395014e-06 2.394917e-06 2.447443e-06 3.838676e-06 8.610743e-06 4.728564e-06 1.398569e-05 4.147063e-06 1.680205e-05 1.887179e-06 1.636456e-05 -1.482965e-06 1.333973e-05 -4.926686e-06 9.309081e-06 -7.455956e-06 5.726385e-06 -8.566920e-06 3.066846e-06 -8.281198e-06 9.003281e-07 -6.814970e-06 -1.267393e-06 -4.335632e-06 -3.226624e-06 -1.153337e-06 -4.049115e-06 1.924521e-06 -2.821270e-06 3.710732e-06 5.175833e-07 3.374258e-06 4.958997e-06 1.083064e-06 8.965268e-06 -2.141947e-06 1.127800e-05 -5.154471e-06 1.143349e-05 -7.269192e-06 9.779722e-06 -8.338507e-06 7.160044e-06 -8.484023e-06 4.533511e-06 -7.814690e-06 
1.443686e-06 -2.026359e-06 3.491767e-06 1.093613e-06 5.682558e-06 3.967649e-06 7.601504e-06 5.985303e-06 8.550133e-06 6.475732e-06 7.854030e-06 5.097163e-06 5.316566e-06 2.182664e-06 1.485759e-06 -1.316322e-06 -2.543959e-06 -4.359210e-06 -5.676168e-06 -6.393484e-06 -7.260628e-06 -7.472001e-06 -7.187962e-06 -7.921020e-06 -5.771727e-06 -7.988804e-06 -3.608919e-06 -7.754401e-06 -1.392718e-06 -7.211310e-06 3.761631e-07 -6.336863e-06 1.617253e-06 -5.110755e-06 2.602680e-06 -3.545482e-06 3.628434e-06 -1.729766e-06 4.725413e-06 1.467351e-07 5.616122e-06 1.765401e-06 5.864084e-06 2.651458e-06 5.093049e-06 2.267240e-06 3.212020e-06 3.160480e-07 5.661948e-07 -2.917679e-06 -2.126027e-06 -6.550059e-06 -4.094066e-06 -9.510893e-06 -4.895725e-06 -1.106950e-05 -4.569225e-06 -1.107194e-05 -3.476369e-06 -9.801775e-06 -2.007336e-06 -7.675157e-06 -3.679502e-07 -5.016694e-06 
3.144179e-06 -3.542942e-06 2.694413e-06 -1.947021e-06 2.634586e-06 -2.786315e-07 2.565737e-06 1.159492e-06 2.058499e-06 2.094998e-06 9.251169e-07 2.431607e-06 -5.595408e-07 2.335679e-06 -1.685032e-06 2.144837e-06 -1.655771e-06 2.121634e-06 -6.939917e-08 2.249721e-06 2.816494e-06 2.259820e-06 6.196442e-06 1.853644e-06 9.086611e-06 9.227699e-07 1.072302e-05 -3.957554e-07 1.082217e-05 -1.825055e-06 9.609155e-06 -3.103063e-06 7.595706e-06 -4.072015e-06 5.240281e-06 -4.659225e-06 2.745652e-06 -4.790724e-06 1.609158e-07 -4.340188e-06 -2.318161e-06 -3.212214e-06 -4.156426e-06 -1.540842e-06 -4.636394e-06 1.824955e-07 -3.315495e-06 1.258492e-06 -4.329157e-07 1.177189e-06 3.099665e-06 -5.452527e-08 6.144189e-06 -1.938976e-06 7.882326e-06 -3.809456e-06 8.105481e-06 -5.156637e-06 7.151839e-06 -5.755946e-06 5.635704e-06 -5.608475e-06 4.163930e-06 -4.822865e-06 
1.889695e-06 -4.274642e-07 4.206038e-06 2.291848e-06 6.140259e-06 4.330667e-06 7.340629e-06 5.316675e-06 7.494604e-06 5.077940e-06 6.473846e-06 3.750270e-06 4.441629e-06 1.747582e-06 1.820849e-06 -4.421723e-07 -8.782238e-07 -2.507608e-06 -3.241582e-06 -4.394133e-06 -5.008916e-06 -6.131341e-06 -6.009360e-06 -7.580355e-06 -6.101896e-06 -8.363441e-06 -5.214930e-06 -8.072611e-06 -3.453766e-06 -6.598307e-06 -1.156530e-06 -4.294769e-06 1.194051e-06 -1.822021e-06 3.166700e-06 2.143924e-07 4.535179e-06 1.534835e-06 5.274694e-06 2.187595e-06 5.435018e-06 2.340698e-06 5.017816e-06 2.054827e-06 3.959516e-06 1.205785e-06 2.232063e-06 -3.844698e-07 -1.336639e-08 -2.698255e-06 -2.383084e-06 -5.361008e-06 -4.341746e-06 -7.729881e-06 -5.429217e-06 -9.177414e-06 -5.439667e-06 -9.351301e-06 -4.448321e-06 -8.250144e-06 -2.704967e-06 -6.132856e-06 -5.022249e-07 -3.383512e-06 
3.371917e-06 -1.266078e-06 3.337322e-06 -6.097964e-08 3.210551e-06 7.765121e-07 2.708693e-06 1.162775e-06 1.753090e-06 1.246327e-06 5.839721e-07 1.340219e-06 -3.086922e-07 1.698054e-06 -4.519550e-07 2.267342e-06 3.078445e-07 2.648476e-06 1.708184e-06 2.358334e-06 3.263760e-06 1.219787e-06 4.576989e-06 -4.383172e-07 5.523783e-06 -1.933535e-06 6.214103e-06 -2.641550e-06 6.779857e-06 -2.406503e-06 7.140807e-06 -1.657367e-06 6.944203e-06 -1.099700e-06 5.771350e-06 -1.192551e-06 3.466233e-06 -1.838188e-06 3.398805e-07 -2.515489e-06 -2.850678e-06 -2.696003e-06 -5.118644e-06 -2.212465e-06 -5.624873e-06 -1.357576e-06 -4.117746e-06 -6.867621e-07 -1.159950e-06 -6.646255e-07 2.117902e-06 -1.387220e-06 4.621405e-06 -2.557670e-06 5.806763e-06 -3.690712e-06 5.783553e-06 -4.364983e-06 5.062874e-06 -4.369093e-06 4.212236e-06 -3.716241e-06 3.613717e-06 -2.588113e-06 
2.586126e-06 1.150660e-06 5.437140e-06 3.873928e-06 7.412551e-06 5.395006e-06 8.129320e-06 5.444230e-06 7.519451e-06 4.250014e-06 5.917742e-06 2.487452e-06 3.922068e-06 9.038884e-07 2.039867e-06 -1.915203e-07 3.768266e-07 -1.149917e-06 -1.336601e-06 -2.647933e-06 -3.372251e-06 -5.019023e-06 -5.598673e-06 -7.787446e-06 -7.357742e-06 -9.766110e-06 -7.732793e-06 -9.710350e-06 -6.118205e-06 -7.175083e-06 -2.760229e-06 -2.969534e-06 1.215416e-06 1.250024e-06 4.449693e-06 3.999588e-06 6.154090e-06 4.751135e-06 6.384668e-06 3.947442e-06 5.695850e-06 2.472760e-06 4.617174e-06 1.074704e-06 3.350417e-06 7.692021e-09 1.785784e-06 -1.008611e-06 -2.438055e-07 -2.463116e-06 -2.650696e-06 -4.530084e-06 -4.970685e-06 -6.796017e-06 -6.550342e-06 -8.480069e-06 -6.882938e-06 -8.902361e-06 -5.825160e-06 -7.805990e-06 -3.589592e-06 -5.390959e-06 -6.093656e-07 -2.177181e-06 
3.760133e-06 1.046277e-06 4.495645e-06 2.145462e-06 4.624250e-06 2.262676e-06 3.808008e-06 1.460526e-06 2.209572e-06 3.682877e-07 5.656677e-07 -6.200400e-08 -1.550425e-07 7.767854e-07 5.713566e-07 2.497871e-06 2.318526e-06 3.770768e-06 3.921430e-06 3.242373e-06 4.341556e-06 6.245466e-07 3.448748e-06 -2.969567e-06 2.117542e-06 -5.652595e-06 1.653052e-06 -5.899897e-06 2.888153e-06 -3.555359e-06 5.441298e-06 -5.064788e-08 7.751325e-06 2.511113e-06 8.082819e-06 2.826031e-06 5.719127e-06 1.149769e-06 1.341188e-06 -1.202674e-06 -3.448861e-06 -2.931699e-06 -6.859192e-06 -3.480282e-06 -7.592740e-06 -3.108848e-06 -5.467888e-06 -2.528348e-06 -1.636807e-06 -2.392560e-06 2.051886e-06 -2.910358e-06 4.208376e-06 -3.792536e-06 4.588209e-06 -4.508851e-06 3.876167e-06 -4.608562e-06 3.011092e-06 -3.901551e-06 2.649639e-06 -2.481012e-06 2.977354e-06 -6.710222e-07 
3.823952e-06 3.159803e-06 7.724809e-06 6.407726e-06 1.009581e-05 7.582696e-06 1.033699e-05 6.346412e-06 8.529380e-06 3.394825e-06 5.634343e-06 3.616562e-07 3.095821e-06 -1.102591e-06 1.871735e-06 -6.188606e-07 1.635371e-06 4.277742e-07 9.956356e-07 -1.097930e-07 -1.337733e-06 -3.392918e-06 -5.443193e-06 -8.555615e-06 -9.869750e-06 -1.298464e-05 -1.222185e-05 -1.373882e-05 -1.055568e-05 -9.525153e-06 -4.970078e-06 -1.952729e-06 2.045302e-06 5.331211e-06 7.302447e-06 9.192800e-06 9.168449e-06 8.854490e-06 8.199305e-06 5.671802e-06 6.048503e-06 1.799351e-06 4.109126e-06 -9.515055e-07 2.838568e-06 -1.839446e-06 1.770276e-06 -1.551607e-06 4.986713e-08 -1.692093e-06 -2.726094e-06 -3.376761e-06 -6.001122e-06 -6.251322e-06 -8.576231e-06 -8.882861e-06 -9.400723e-06 -9.884601e-06 -8.101122e-06 -8.669238e-06 -4.976111e-06 -5.501073e-06 -7.165644e-07 -1.195998e-06 
4.586843e-06 3.979733e-06 6.746133e-06 5.368318e-06 7.564358e-06 4.728897e-06 6.367788e-06 2.106353e-06 3.459504e-06 -1.168734e-06 3.940184e-07 -2.823998e-06 -6.926669e-07 -1.199715e-06 1.302091e-06 2.964004e-06 5.144273e-06 6.466512e-06 7.853251e-06 5.979724e-06 7.041478e-06 7.907348e-07 2.794686e-06 -6.565668e-06 -2.361994e-06 -1.189679e-05 -4.925073e-06 -1.179786e-05 -2.527553e-06 -5.874340e-06 4.087767e-06 2.524521e-06 1.095311e-05 8.386869e-06 1.363266e-05 8.803463e-06 1.048857e-05 4.736290e-06 3.215126e-06 -6.216329e-07 -4.902963e-06 -4.518569e-06 -1.062370e-05 -5.960194e-06 -1.167978e-05 -5.505001e-06 -7.835598e-06 -4.468779e-06 -1.523614e-06 -4.056563e-06 3.577332e-06 -4.644116e-06 5.269603e-06 -5.699564e-06 4.003590e-06 -6.341378e-06 1.750120e-06 -5.933512e-06 3.100156e-07 -4.311623e-06 4.898701e-07 -1.718154e-06 2.157280e-06 1.307223e-06 
5.988073e-06 6.238962e-06 1.185838e-05 1.088364e-05 1.524619e-05 1.191537e-05 1.489652e-05 8.502040e-06 1.079302e-05 1.910383e-06 4.939167e-06 -4.262194e-06 7.116497e-07 -6.030580e-06 4.525254e-07 -2.382661e-06 3.194201e-06 3.169256e-06 5.142933e-06 5.112699e-06 2.765383e-06 3.533451e-07 -4.604940e-06 -9.614532e-06 -1.417222e-05 -1.941563e-05 -2.061839e-05 -2.244280e-05 -1.890722e-05 -1.517093e-05 -8.544516e-06 -7.886238e-07 4.758542e-06 1.245757e-05 1.351472e-05 1.796020e-05 1.468212e-05 1.506055e-05 1.064471e-05 7.402961e-06 5.615392e-06 -5.698060e-07 2.468544e-06 -5.333292e-06 1.845379e-06 -5.206576e-06 2.357471e-06 -1.729710e-06 1.547403e-06 8.226822e-07 -2.069661e-06 -7.517377e-07 -7.503761e-06 -5.734749e-06 -1.213898e-05 -1.079126e-05 -1.381757e-05 -1.300816e-05 -1.195668e-05 -1.142330e-05 -7.237754e-06 -6.696321e-06 -8.357943e-07 -2.436783e-07 
6.103757e-06 8.294796e-06 1.091004e-05 1.077911e-05 1.329890e-05 9.401241e-06 1.164328e-05 3.615626e-06 6.004014e-06 -4.282022e-06 -6.541160e-07 -9.100143e-06 -3.351951e-06 -6.156333e-06 1.027331e-06 3.622462e-06 9.853182e-06 1.272270e-05 1.586163e-05 1.299179e-05 1.341929e-05 2.748236e-06 2.974666e-06 -1.240238e-05 -9.777336e-06 -2.364542e-05 -1.696831e-05 -2.355009e-05 -1.253932e-05 -1.062649e-05 2.597312e-06 7.801154e-06 1.892385e-05 1.983457e-05 2.557464e-05 1.916140e-05 1.958358e-05 9.315897e-06 5.870671e-06 -1.857231e-06 -8.771913e-06 -8.952583e-06 -1.888443e-05 -1.083567e-05 -2.032092e-05 -9.094785e-06 -1.216173e-05 -6.435221e-06 3.230675e-07 -5.364318e-06 8.707249e-06 -6.536987e-06 9.001999e-06 -8.586738e-06 3.855018e-06 -9.662440e-06 -1.659349e-06 -8.746594e-06 -4.204517e-06 -5.815770e-06 -3.072566e-06 -1.402614e-06 8.557892e-07 3.687048e-06 
9.588926e-06 1.139178e-05 1.909056e-05 1.914709e-05 2.489875e-05 2.072569e-05 2.402234e-05 1.355075e-05 1.539701e-05 -8.472716e-07 2.683760e-06 -1.479890e-05 -6.108001e-06 -1.817720e-05 -4.569585e-06 -7.496003e-06 5.243937e-06 8.825243e-06 1.373123e-05 1.705665e-05 1.233641e-05 9.935942e-06 -8.125931e-07 -9.744812e-06 -2.082469e-05 -3.150448e-05 -3.677036e-05 -4.080761e-05 -3.585685e-05 -2.775759e-05 -1.487993e-05 1.489654e-06 1.236662e-05 2.695506e-05 2.718285e-05 3.419992e-05 2.447536e-05 2.491902e-05 1.280561e-05 8.738447e-06 2.213711e-06 -6.404087e-06 -2.437935e-06 -1.473407e-05 -6.983257e-07 -1.194450e-05 4.243659e-06 -5.872636e-07 6.136716e-06 8.143448e-06 6.663992e-07 5.731075e-06 -9.742172e-06 -5.111160e-06 -1.867533e-05 -1.569998e-05 -2.170269e-05 -2.003188e-05 -1.846171e-05 -1.726060e-05 -1.086850e-05 -9.430877e-06 -9.851103e-07 9.220725e-07 
8.505889e-06 1.498048e-05 1.819055e-05 2.046185e-05 2.422783e-05 1.909693e-05 2.259770e-05 7.880368e-06 1.158215e-05 -1.027978e-05 -3.829932e-06 -2.378327e-05 -1.174657e-05 -1.916646e-05 -2.642870e-06 3.859735e-06 1.835234e-05 2.702657e-05 3.290781e-05 2.972683e-05 2.771372e-05 8.881677e-06 4.944265e-06 -2.244330e-05 -2.345331e-05 -4.671379e-05 -4.156253e-05 -4.820721e-05 -3.407453e-05 -2.085116e-05 1.542508e-07 2.002128e-05 3.782542e-05 4.446981e-05 5.091973e-05 3.835727e-05 3.579323e-05 1.427129e-05 8.134164e-06 -8.168947e-06 -1.826381e-05 -1.950317e-05 -3.653280e-05 -2.033496e-05 -3.902470e-05 -1.468215e-05 -2.060001e-05 -7.728187e-06 7.316654e-06 -5.217309e-06 2.278834e-05 -8.388354e-06 1.809452e-05 -1.327987e-05 3.384097e-06 -1.562638e-05 -8.660749e-06 -1.394883e-05 -1.263459e-05 -8.923299e-06 -9.331970e-06 -1.713852e-06 -1.470688e-06 6.699773e-06 
1.511954e-05 2.007270e-05 3.123709e-05 3.448647e-05 4.293665e-05 3.917713e-05 4.295211e-05 2.628715e-05 2.584105e-05 -4.876161e-06 -3.025466e-06 -3.868467e-05 -2.432714e-05 -4.835005e-05 -1.936719e-05 -2.144380e-05 7.884496e-06 2.131699e-05 3.228732e-05 4.469672e-05 3.444936e-05 3.385524e-05 1.165407e-05 -4.620164e-06 -2.915223e-05 -5.279410e-05 -6.831376e-05 -7.996440e-05 -7.276294e-05 -5.639456e-05 -2.704743e-05 7.811183e-06 3.360003e-05 5.936435e-05 5.805919e-05 6.499471e-05 4.066237e-05 3.933626e-05 1.085324e-05 8.268429e-06 -9.128473e-06 -1.828050e-05 -1.487174e-05 -3.451853e-05 -7.194970e-06 -2.686748e-05 9.209126e-06 4.517106e-06 1.888517e-05 2.841425e-05 8.762685e-06 2.118901e-05 -1.386770e-05 -5.567647e-06 -3.176144e-05 -2.796861e-05 -3.616833e-05 -3.477117e-05 -2.921181e-05 -2.816408e-05 -1.638891e-05 -1.426325e-05 -1.211847e-06 2.647572e-06 
1.163168e-05 2.497605e-05 2.998269e-05 3.790137e-05 4.467529e-05 4.020860e-05 4.618668e-05 2.101355e-05 2.575602e-05 -2.005124e-05 -1.084561e-05 -5.829189e-05 -3.510721e-05 -5.415280e-05 -1.688217e-05 1.136292e-06 3.483528e-05 6.033418e-05 7.014265e-05 6.822473e-05 5.787126e-05 2.355351e-05 1.017037e-05 -4.001232e-05 -4.915294e-05 -9.204963e-05 -9.373864e-05 -1.021402e-04 -8.474423e-05 -4.514254e-05 -5.430631e-06 5.030098e-05 8.469853e-05 1.012173e-04 1.056654e-04 7.419288e-05 6.124935e-05 1.452596e-05 4.363818e-06 -2.827229e-05 -3.914913e-05 -4.259310e-05 -7.216770e-05 -3.854713e-05 -8.118053e-05 -2.395269e-05 -3.921031e-05 -6.061723e-06 2.985495e-05 -3.990574e-07 6.017715e-05 -9.929931e-06 3.769063e-05 -2.210259e-05 -7.804161e-07 -2.681724e-05 -2.458950e-05 -2.312216e-05 -2.854808e-05 -1.436006e-05 -1.996044e-05 -3.077083e-06 -5.599079e-06 1.016897e-05 
2.240180e-05 3.377800e-05 5.019091e-05 6.205668e-05 7.634644e-05 7.829826e-05 8.412335e-05 6.031607e-05 5.321969e-05 -5.843417e-06 -1.417944e-05 -9.200483e-05 -7.131352e-05 -1.247947e-04 -6.020601e-05 -5.897107e-05 1.211852e-05 5.118716e-05 7.330546e-05 1.080506e-04 8.261131e-05 9.030711e-05 4.669316e-05 1.992141e-05 -3.123390e-05 -8.447540e-05 -1.290474e-04 -1.653761e-04 -1.599658e-04 -1.263374e-04 -5.327549e-05 2.843950e-05 9.569265e-05 1.383084e-04 1.300879e-04 1.216136e-04 6.155818e-05 5.264953e-05 -8.479032e-06 2.512753e-06 -3.797815e-05 -3.608303e-05 -4.206979e-05 -7.512645e-05 -2.443043e-05 -6.547554e-05 2.068575e-05 2.059414e-05 5.405552e-05 8.473808e-05 3.019031e-05 5.596224e-05 -2.486415e-05 -1.451427e-05 -6.081670e-05 -5.967902e-05 -6.327456e-05 -6.477133e-05 -4.600373e-05 -4.652443e-05 -2.377913e-05 -2.121839e-05 -1.622605e-06 5.398005e-06 
1.402406e-05 3.785199e-05 4.651683e-05 6.780347e-05 8.147084e-05 8.654699e-05 9.855391e-05 6.171980e-05 6.621210e-05 -2.870226e-05 -2.126032e-05 -1.393110e-04 -9.749792e-05 -1.513470e-04 -6.336075e-05 -1.339575e-05 7.114898e-05 1.423980e-04 1.546160e-04 1.541349e-04 1.149265e-04 5.033478e-05 1.751429e-05 -7.014204e-05 -9.401852e-05 -1.762934e-04 -2.035072e-04 -2.250421e-04 -2.142802e-04 -1.124626e-04 -2.305009e-05 1.300952e-04 2.114818e-04 2.405014e-04 2.275179e-04 1.365588e-04 8.652702e-05 -1.226326e-05 -2.737674e-05 -8.409572e-05 -7.757652e-05 -8.860511e-05 -1.351353e-04 -7.284178e-05 -1.825911e-04 -4.324891e-05 -8.929358e-05 5.182114e-06 1.025601e-04 1.845741e-05 1.610262e-04 -1.206331e-05 7.471835e-05 -4.208602e-05 -2.154972e-05 -4.888967e-05 -6.127545e-05 -3.845946e-05 -5.671663e-05 -2.248478e-05 -3.580281e-05 -6.035370e-06 -1.220137e-05 1.275143e-05 
2.871073e-05 5.201701e-05 7.540918e-05 1.075380e-04 1.359034e-04 1.599450e-04 1.765868e-04 1.534377e-04 1.328792e-04 2.058752e-05 -2.625301e-05 -2.077283e-04 -1.921457e-04 -3.256030e-04 -1.718452e-04 -1.609875e-04 2.773600e-05 1.333953e-04 1.682139e-04 2.512299e-04 1.761879e-04 2.119488e-04 1.352938e-04 1.084425e-04 1.343744e-05 -1.030950e-04 -2.348477e-04 -3.559904e-04 -3.874287e-04 -3.187754e-04 -1.216401e-04 1.028559e-04 2.925697e-04 3.497555e-04 3.028729e-04 2.118666e-04 5.886211e-05 2.594209e-05 -8.774059e-05 -1.560237e-05 -9.542597e-05 -3.661845e-05 -9.048185e-05 -1.545671e-04 -7.709286e-05 -1.876867e-04 4.062740e-05 6.775029e-05 1.565234e-04 2.486348e-04 8.405248e-05 1.256644e-04 -6.373280e-05 -6.501715e-05 -1.310445e-04 -1.427057e-04 -1.135744e-04 -1.226524e-04 -6.866928e-05 -7.250679e-05 -3.073328e-05 -2.785761e-05 -2.431151e-06 9.544334e-06 