# vtk DataFile Version 2.0
Comment goes here
ASCII

DATASET STRUCTURED_POINTS
DIMENSIONS    64   64   1

ORIGIN    0.000   0.000   0.000
SPACING   0.0156250.015625   1.000

POINT_DATA   4096
SCALARS Omega double
LOOKUP_TABLE default

-6.314119e-03 -1.012885e-02 -1.402362e-02 -1.850447e-02 -2.269574e-02 -2.681016e-02 -2.975901e-02 -3.161567e-02 -3.135299e-02 -2.936303e-02 -2.497795e-02 -1.949662e-02 -1.252089e-02 -6.358174e-03 -3.143932e-04 3.432205e-03 6.065666e-03 6.932011e-03 6.706952e-03 5.712537e-03 3.566845e-03 5.458347e-04 -3.999060e-03 -9.564456e-03 -1.636368e-02 -2.329187e-02 -3.024438e-02 -3.568963e-02 -3.971759e-02 -4.102830e-02 -4.035434e-02 -3.717268e-02 -3.262907e-02 -2.689071e-02 -2.076996e-02 -1.480775e-02 -8.927888e-03 -3.977330e-03 1.088171e-03 4.989332e-03 9.483038e-03 1.282283e-02 1.704001e-02 2.016378e-02 2.397687e-02 2.676875e-02 2.966940e-02 3.160844e-02 3.311336e-02 3.357896e-02 3.352821e-02 3.220530e-02 3.072401e-02 2.785475e-02 2.529812e-02 2.158052e-02 1.851596e-02 1.472997e-02 1.171960e-02 8.337543e-03 5.621098e-03 2.599032e-03 -5.393868e-05 -3.201174e-03 
-3.594236e-03 -5.915775e-03 -8.148519e-03 -1.081830e-02 -1.315378e-02 -1.550129e-02 -1.695232e-02 -1.778813e-02 -1.715175e-02 -1.557241e-02 -1.245893e-02 -8.927503e-03 -4.631630e-03 -1.190155e-03 1.852256e-03 3.167161e-03 3.594282e-03 2.768694e-03 1.518620e-03 -4.700372e-05 -1.757690e-03 -3.602891e-03 -5.967030e-03 -8.629682e-03 -1.201794e-02 -1.536178e-02 -1.893008e-02 -2.155494e-02 -2.358272e-02 -2.397334e-02 -2.341012e-02 -2.136466e-02 -1.866556e-02 -1.529733e-02 -1.171637e-02 -8.337523e-03 -4.825829e-03 -2.116013e-03 1.066186e-03 3.095067e-03 6.087896e-03 7.727088e-03 1.061733e-02 1.212316e-02 1.469683e-02 1.610141e-02 1.796290e-02 1.899478e-02 1.994838e-02 2.012006e-02 2.030826e-02 1.928823e-02 1.882261e-02 1.676273e-02 1.567060e-02 1.309867e-02 1.157323e-02 9.032547e-03 7.394999e-03 5.180625e-03 3.631808e-03 1.700584e-03 1.641696e-04 -1.794354e-03 
-1.862153e-03 -3.249907e-03 -4.468921e-03 -6.025767e-03 -7.274658e-03 -8.601303e-03 -9.294769e-03 -9.704312e-03 -9.166655e-03 -8.202130e-03 -6.309174e-03 -4.381952e-03 -2.032037e-03 -4.337693e-04 9.155277e-04 1.088125e-03 7.865860e-04 -2.161431e-04 -1.373376e-03 -2.489061e-03 -3.563568e-03 -4.441973e-03 -5.525765e-03 -6.638255e-03 -8.171648e-03 -9.664112e-03 -1.135942e-02 -1.252952e-02 -1.346848e-02 -1.347430e-02 -1.306379e-02 -1.180015e-02 -1.026451e-02 -8.356806e-03 -6.329258e-03 -4.508425e-03 -2.431191e-03 -1.088994e-03 9.696257e-04 1.800882e-03 3.944632e-03 4.430101e-03 6.629445e-03 7.000650e-03 8.923445e-03 9.359212e-03 1.056637e-02 1.098453e-02 1.149082e-02 1.143142e-02 1.177707e-02 1.083377e-02 1.119308e-02 9.489291e-03 9.541623e-03 7.570196e-03 7.175022e-03 5.355772e-03 4.674032e-03 3.173210e-03 2.402515e-03 1.153372e-03 3.321875e-04 -8.798163e-04 
-1.018707e-03 -1.842260e-03 -2.458077e-03 -3.363087e-03 -3.981175e-03 -4.742462e-03 -5.040042e-03 -5.282260e-03 -4.908620e-03 -4.416982e-03 -3.365770e-03 -2.434469e-03 -1.271713e-03 -6.497642e-04 -1.686673e-04 -4.033808e-04 -8.322804e-04 -1.650681e-03 -2.403003e-03 -3.087048e-03 -3.595478e-03 -3.926818e-03 -4.316487e-03 -4.653530e-03 -5.284008e-03 -5.821442e-03 -6.598477e-03 -7.004382e-03 -7.435204e-03 -7.267804e-03 -7.021617e-03 -6.236123e-03 -5.408327e-03 -4.355473e-03 -3.232217e-03 -2.330701e-03 -1.069972e-03 -5.831636e-04 8.644877e-04 8.503012e-04 2.597266e-03 2.156382e-03 4.143391e-03 3.553932e-03 5.367615e-03 5.039889e-03 6.089267e-03 6.103372e-03 6.471057e-03 6.156434e-03 6.915365e-03 5.638650e-03 6.928872e-03 4.962946e-03 5.988430e-03 4.049363e-03 4.440969e-03 2.921219e-03 2.833082e-03 1.743363e-03 1.436044e-03 6.169923e-04 2.207620e-04 -5.247205e-04 
-4.491807e-04 -9.494569e-04 -1.239339e-03 -1.773831e-03 -2.058964e-03 -2.510786e-03 -2.625093e-03 -2.806094e-03 -2.582171e-03 -2.409006e-03 -1.878401e-03 -1.543322e-03 -1.031962e-03 -9.265951e-04 -8.286340e-04 -1.164448e-03 -1.522568e-03 -2.052302e-03 -2.484691e-03 -2.789990e-03 -2.983704e-03 -2.993581e-03 -3.059164e-03 -3.042261e-03 -3.234925e-03 -3.347732e-03 -3.658593e-03 -3.740199e-03 -3.922984e-03 -3.740115e-03 -3.617522e-03 -3.147538e-03 -2.745054e-03 -2.183116e-03 -1.595803e-03 -1.201098e-03 -4.193715e-04 -4.167661e-04 7.186736e-04 1.636914e-04 1.856160e-03 7.172896e-04 2.952873e-03 1.530499e-03 3.708325e-03 2.648834e-03 3.687234e-03 3.315274e-03 3.339327e-03 2.702461e-03 3.845980e-03 1.984327e-03 4.500063e-03 1.922900e-03 4.097648e-03 1.880070e-03 3.021325e-03 1.547710e-03 1.905920e-03 1.014222e-03 9.959172e-04 4.154536e-04 2.581385e-04 -2.209702e-04 
-2.823273e-04 -5.766174e-04 -6.764594e-04 -9.935268e-04 -1.087945e-03 -1.362661e-03 -1.374581e-03 -1.513188e-03 -1.371695e-03 -1.347213e-03 -1.089462e-03 -1.018721e-03 -8.213837e-04 -9.007965e-04 -9.394484e-04 -1.236838e-03 -1.476671e-03 -1.811535e-03 -2.017518e-03 -2.148639e-03 -2.171817e-03 -2.080582e-03 -2.023627e-03 -1.888255e-03 -1.921049e-03 -1.852500e-03 -1.984832e-03 -1.912680e-03 -2.018061e-03 -1.826162e-03 -1.806468e-03 -1.487441e-03 -1.333371e-03 -1.004963e-03 -7.123154e-04 -5.661090e-04 -2.753748e-05 -3.166930e-04 7.194639e-04 -3.200813e-04 1.541575e-03 -4.746156e-04 2.356192e-03 -3.258844e-04 2.870371e-03 6.945610e-04 2.533811e-03 1.700542e-03 1.765577e-03 4.511829e-04 2.949183e-03 -5.031490e-04 4.141401e-03 -8.775212e-05 3.427342e-03 3.793494e-04 2.101418e-03 4.952194e-04 1.094065e-03 3.567088e-04 4.770052e-04 1.020549e-04 7.247844e-05 -2.082170e-04 
-9.713687e-05 -2.972709e-04 -3.111768e-04 -5.237950e-04 -5.293061e-04 -7.194730e-04 -6.871030e-04 -8.124300e-04 -7.176157e-04 -7.764996e-04 -6.494206e-04 -7.086189e-04 -6.401102e-04 -7.852887e-04 -8.461214e-04 -1.074289e-03 -1.217466e-03 -1.402277e-03 -1.491567e-03 -1.508107e-03 -1.475259e-03 -1.341155e-03 -1.259067e-03 -1.096178e-03 -1.071003e-03 -9.532545e-04 -1.003529e-03 -8.986176e-04 -9.692167e-04 -8.136585e-04 -8.581545e-04 -6.420213e-04 -6.455781e-04 -4.371459e-04 -3.574052e-04 -3.152749e-04 1.017762e-05 -4.151701e-04 5.282325e-04 -8.495845e-04 1.320578e-03 -1.503101e-03 2.457856e-03 -1.651582e-03 3.485168e-03 -3.180527e-04 2.668758e-03 1.002928e-03 5.951638e-04 -1.799905e-03 2.443656e-03 -3.409979e-03 4.894732e-03 -1.738751e-03 3.876691e-03 -3.415105e-04 2.102112e-03 1.999341e-04 9.649865e-04 2.481524e-04 4.022913e-04 1.091698e-04 1.126307e-04 -8.300611e-05 
-1.097821e-04 -2.253903e-04 -1.784508e-04 -3.197949e-04 -2.683088e-04 -4.017893e-04 -3.400851e-04 -4.413353e-04 -3.642876e-04 -4.379723e-04 -3.657328e-04 -4.502699e-04 -4.258122e-04 -5.588637e-04 -6.035251e-04 -7.668438e-04 -8.389047e-04 -9.519091e-04 -9.766503e-04 -9.711850e-04 -9.250357e-04 -8.172070e-04 -7.541304e-04 -6.161526e-04 -6.011974e-04 -4.773162e-04 -5.246821e-04 -4.000623e-04 -4.852346e-04 -3.242068e-04 -4.263833e-04 -2.174192e-04 -3.226163e-04 -1.041800e-04 -1.516791e-04 -6.320635e-05 1.541198e-04 -2.584513e-04 7.154046e-04 -9.901393e-04 1.627434e-03 -2.564946e-03 2.808513e-03 -4.429200e-03 3.896262e-03 -3.766852e-03 3.298815e-03 1.000046e-04 3.048053e-04 -4.600538e-03 6.069492e-03 -6.282087e-03 8.832693e-03 -3.214091e-03 4.821218e-03 -1.275776e-03 1.598010e-03 -4.228703e-04 3.221935e-04 -1.359355e-04 -1.130619e-05 -9.460509e-05 -7.353275e-05 -1.433488e-04 
-3.815137e-05 -1.567069e-04 -7.360444e-05 -2.070684e-04 -1.222158e-04 -2.445541e-04 -1.637077e-04 -2.639158e-04 -1.882939e-04 -2.744505e-04 -2.156940e-04 -3.098381e-04 -2.872353e-04 -4.022071e-04 -4.194792e-04 -5.328768e-04 -5.613939e-04 -6.222173e-04 -6.220449e-04 -5.965646e-04 -5.595471e-04 -4.651718e-04 -4.238385e-04 -3.071717e-04 -2.991008e-04 -1.886636e-04 -2.270294e-04 -1.159264e-04 -1.979947e-04 -6.081773e-05 -1.898482e-04 -3.369376e-06 -1.873918e-04 4.522268e-05 -1.639398e-04 4.217315e-06 -5.137295e-05 -3.783443e-04 2.862302e-04 -1.655266e-03 1.065093e-03 -4.574386e-03 2.476513e-03 -8.992239e-03 4.015346e-03 -1.098013e-02 1.813913e-03 -4.310385e-03 7.519959e-04 -5.121957e-03 1.662833e-02 -7.924582e-03 1.817103e-02 -3.204783e-03 8.016390e-03 -8.484971e-04 2.336585e-03 -7.150262e-05 4.708875e-04 4.235153e-05 4.210171e-05 -1.913357e-05 -2.102845e-05 -9.494594e-05 
-4.193208e-05 -1.458016e-04 -2.055835e-05 -1.464956e-04 -3.378465e-05 -1.464212e-04 -5.274512e-05 -1.439618e-04 -6.863557e-05 -1.470867e-04 -9.326666e-05 -1.743709e-04 -1.475206e-04 -2.376584e-04 -2.340351e-04 -3.174967e-04 -3.187729e-04 -3.646636e-04 -3.521493e-04 -3.406147e-04 -3.163325e-04 -2.556059e-04 -2.424199e-04 -1.557644e-04 -1.763138e-04 -7.660892e-05 -1.399492e-04 -2.004112e-05 -1.305938e-04 3.017324e-05 -1.425651e-04 8.925360e-05 -1.684217e-04 1.681762e-04 -1.621043e-04 2.396759e-04 1.912468e-05 7.809616e-05 6.424439e-04 -1.207306e-03 1.708545e-03 -6.517471e-03 7.940758e-04 -2.274564e-02 -9.010366e-03 -4.833985e-02 -2.001840e-02 -2.996661e-02 1.526272e-03 1.415029e-02 8.101553e-02 1.208695e-02 4.820434e-02 1.073524e-03 1.150609e-02 -1.273473e-03 1.035455e-03 -6.765330e-04 -5.158301e-04 -2.876262e-04 -3.705995e-04 -1.731956e-04 -1.455785e-04 -1.492683e-04 
6.681633e-07 -1.889260e-04 7.446790e-06 -1.618822e-04 -6.661092e-06 -1.386463e-04 -2.142752e-05 -1.212400e-04 -3.357943e-05 -1.149513e-04 -5.224777e-05 -1.286042e-04 -8.916621e-05 -1.641964e-04 -1.429208e-04 -2.053389e-04 -1.913929e-04 -2.218901e-04 -2.062023e-04 -1.933563e-04 -1.782706e-04 -1.271155e-04 -1.251802e-04 -4.930025e-05 -7.311017e-05 1.913946e-05 -3.860549e-05 7.287498e-05 -3.042916e-05 1.156448e-04 -6.059972e-05 1.607644e-04 -1.386461e-04 2.422574e-04 -2.455054e-04 3.504342e-04 -3.270126e-04 1.004842e-04 -4.349617e-04 -2.460858e-03 -2.124198e-03 -1.563531e-02 -1.651397e-02 -6.870308e-02 -8.139862e-02 -1.949123e-01 -1.684145e-01 -1.840231e-01 1.353305e-03 2.055395e-01 3.756681e-01 1.636556e-01 1.578416e-01 3.516562e-02 2.793946e-02 4.050972e-03 2.701019e-03 3.084222e-04 -2.840697e-04 -1.286247e-04 -2.505083e-04 -2.107556e-04 -7.000656e-05 -2.127631e-04 
9.341266e-05 -1.775350e-04 8.497638e-05 -1.273356e-04 5.830390e-05 -9.160909e-05 3.663247e-05 -6.796121e-05 2.163405e-05 -5.740039e-05 5.815963e-06 -6.302509e-05 -1.886566e-05 -8.342164e-05 -5.202945e-05 -1.069474e-04 -8.221029e-05 -1.158876e-04 -9.602553e-05 -9.981721e-05 -9.128746e-05 -6.394561e-05 -7.859245e-05 -2.132400e-05 -6.920532e-05 2.210269e-05 -6.540894e-05 6.999100e-05 -6.882902e-05 1.214766e-04 -1.004933e-04 1.731311e-04 -1.954013e-04 2.751815e-04 -3.447409e-04 5.359383e-04 -4.521040e-04 7.086269e-04 -6.892847e-04 -2.529273e-03 -6.906324e-03 -3.436860e-02 -7.146215e-02 -2.307625e-01 -4.205159e-01 -8.508820e-01 -8.386230e-01 -8.649448e-01 -1.548073e-01 1.203325e+00 1.822036e+00 9.607037e-01 5.838595e-01 1.763264e-01 6.981961e-02 1.631410e-02 2.423281e-03 4.580205e-04 -1.221948e-03 -4.131097e-04 -3.926066e-04 -3.332012e-04 3.860871e-06 -2.452694e-04 
1.411877e-04 -3.083782e-04 8.913715e-05 -2.004087e-04 4.908184e-05 -1.327160e-04 2.582159e-05 -9.099406e-05 1.368485e-05 -6.838830e-05 4.057731e-06 -6.211450e-05 -9.998719e-06 -6.800447e-05 -2.919761e-05 -7.685723e-05 -4.724984e-05 -7.684101e-05 -5.630551e-05 -6.047510e-05 -5.393308e-05 -2.839379e-05 -4.390752e-05 1.500193e-05 -3.059635e-05 6.796118e-05 -1.620711e-05 1.274042e-04 -1.075566e-05 1.728754e-04 -4.956061e-05 1.827899e-04 -1.797839e-04 2.495543e-04 -4.143570e-04 5.810745e-04 -9.478135e-04 4.524072e-04 -4.487567e-03 -1.064379e-02 -3.889444e-02 -1.214418e-01 -3.175298e-01 -8.564556e-01 -1.828093e+00 -3.428018e+00 -3.248192e+00 -3.461800e+00 -8.767638e-01 6.075257e+00 7.736997e+00 4.509594e+00 2.273385e+00 7.830200e-01 2.661576e-01 7.739993e-02 1.922095e-02 4.713176e-03 5.540445e-04 -6.703028e-04 5.530790e-05 -7.105508e-04 1.649620e-04 -4.774541e-04 
3.355840e-04 -2.953351e-04 1.939714e-04 -1.711789e-04 1.122712e-04 -9.908617e-05 6.895748e-05 -5.783444e-05 4.718065e-05 -3.646055e-05 3.484873e-05 -2.931124e-05 2.431717e-05 -3.137714e-05 1.301007e-05 -3.584690e-05 2.254814e-06 -3.577867e-05 -6.974544e-06 -2.822915e-05 -1.815599e-05 -1.518994e-05 -3.753735e-05 3.348631e-06 -6.462435e-05 4.068181e-05 -8.241069e-05 1.191494e-04 -7.064642e-05 2.202080e-04 -6.202779e-05 2.423655e-04 -1.679958e-04 1.939042e-04 -5.038916e-04 3.092150e-04 -1.847449e-03 -1.452937e-03 -1.313089e-02 -3.483528e-02 -1.254904e-01 -3.799593e-01 -1.083699e+00 -2.938700e+00 -6.884816e+00 -1.317339e+01 -7.960550e+00 -1.022691e+01 -6.009818e+00 2.143264e+01 2.805235e+01 1.760498e+01 8.242597e+00 2.946656e+00 9.372701e-01 2.842219e-01 7.453247e-02 1.941423e-02 5.271145e-03 -7.425753e-05 9.771933e-04 -7.946288e-04 5.547526e-04 -5.055573e-04 
3.843943e-04 -4.566657e-04 1.841157e-04 -2.535647e-04 8.944785e-05 -1.456753e-04 4.604717e-05 -8.676215e-05 2.764898e-05 -5.532492e-05 1.978259e-05 -4.099942e-05 1.430134e-05 -3.729346e-05 7.674126e-06 -3.819441e-05 -5.136496e-07 -3.798324e-05 -1.013678e-05 -3.253776e-05 -2.270859e-05 -1.890785e-05 -4.048931e-05 9.276810e-06 -6.149735e-05 6.803456e-05 -7.472215e-05 1.720118e-04 -7.422889e-05 2.619856e-04 -1.149422e-04 1.269266e-04 -3.163849e-04 -2.669111e-04 -7.831320e-04 -7.709933e-04 -3.799469e-03 -8.210581e-03 -3.782238e-02 -1.139712e-01 -4.010253e-01 -1.213676e+00 -3.571791e+00 -9.641957e+00 -2.328844e+01 -4.895074e+01 -4.089589e+01 -1.020451e+01 2.632002e+01 6.450779e+01 7.113898e+01 5.636506e+01 2.668895e+01 9.772767e+00 3.168819e+00 9.455271e-01 2.719538e-01 6.519648e-02 2.160590e-02 1.154817e-03 2.723422e-03 -1.433049e-03 8.484103e-04 -8.466390e-04 
5.456600e-04 -4.600773e-04 2.552022e-04 -2.351645e-04 1.284102e-04 -1.220868e-04 7.107052e-05 -6.435438e-05 4.591827e-05 -3.550573e-05 3.576656e-05 -2.260454e-05 3.235724e-05 -1.809170e-05 3.207433e-05 -1.644547e-05 3.292268e-05 -1.416464e-05 3.071212e-05 -1.153660e-05 1.519118e-05 -1.266313e-05 -2.953715e-05 -1.618678e-05 -1.105901e-04 1.315511e-05 -1.894281e-04 1.704130e-04 -1.623526e-04 4.865157e-04 -1.694126e-06 5.383104e-04 1.926703e-05 -2.424760e-04 -5.838124e-04 -2.577735e-03 -8.081569e-03 -2.715141e-02 -1.023598e-01 -3.320032e-01 -1.122263e+00 -3.396892e+00 -9.897701e+00 -2.642481e+01 -6.750931e+01 -9.276627e+01 -3.446580e+01 5.796736e+00 -2.390768e+01 2.061552e+01 9.619654e+01 1.173949e+02 7.436203e+01 2.730972e+01 9.054666e+00 2.751077e+00 8.046820e-01 2.042174e-01 6.238209e-02 9.587186e-03 6.181272e-03 -1.171971e-03 1.375589e-03 -8.939557e-04 
5.530410e-04 -5.279902e-04 2.267646e-04 -2.708934e-04 1.000842e-04 -1.438714e-04 4.742924e-05 -7.921120e-05 2.690672e-05 -4.617473e-05 2.037189e-05 -3.067686e-05 1.910193e-05 -2.563209e-05 1.857236e-05 -2.693381e-05 1.556793e-05 -3.208470e-05 5.553529e-06 -3.980334e-05 -1.992471e-05 -4.883440e-05 -7.452246e-05 -5.200326e-05 -1.722376e-04 -1.572470e-05 -3.055993e-04 1.497737e-04 -4.173616e-04 4.597626e-04 -5.089204e-04 1.818001e-04 -9.062164e-04 -1.887498e-03 -2.303674e-03 -8.353872e-03 -1.960752e-02 -7.274445e-02 -2.447944e-01 -8.201810e-01 -2.666907e+00 -7.954873e+00 -2.240924e+01 -5.593128e+01 -7.118793e+01 -6.606522e+01 -6.599603e+01 -1.206102e+01 -1.420503e+01 -2.244469e+01 -1.958561e+01 1.000065e+02 1.670509e+02 5.866485e+01 2.029167e+01 6.419490e+00 1.977059e+00 5.222878e-01 1.560956e-01 3.054179e-02 1.272617e-02 -3.362067e-04 1.815040e-03 -9.983791e-04 
5.084097e-04 -5.553647e-04 1.951017e-04 -2.707917e-04 8.929290e-05 -1.332779e-04 4.562103e-05 -6.713086e-05 2.841603e-05 -3.532729e-05 2.403613e-05 -2.054394e-05 2.711683e-05 -1.371308e-05 3.601862e-05 -9.417847e-06 4.967435e-05 -5.044379e-06 6.271111e-05 -3.445844e-06 5.595362e-05 -1.971281e-05 -1.801405e-05 -8.407379e-05 -2.362453e-04 -1.941644e-04 -6.226967e-04 -1.204982e-04 -8.978488e-04 7.050295e-04 -4.792106e-04 1.565937e-03 7.490700e-05 -1.227110e-03 -2.092441e-03 -1.482139e-02 -3.843739e-02 -1.541204e-01 -5.096078e-01 -1.719622e+00 -5.382924e+00 -1.559034e+01 -4.231116e+01 -1.040809e+02 -8.497658e+01 4.353940e+00 -1.157192e+01 -6.387245e+00 1.310378e+01 8.458250e+00 -3.536265e+01 5.347045e+01 1.587461e+02 7.265296e+01 3.133079e+01 1.164465e+01 3.853849e+00 1.137321e+00 3.345898e-01 7.961129e-02 2.522482e-02 2.539315e-03 2.396276e-03 -9.520535e-04 
5.444354e-04 -4.131277e-04 1.654257e-04 -2.238149e-04 6.644699e-05 -1.152373e-04 2.931014e-05 -5.968123e-05 1.658210e-05 -3.140458e-05 1.487021e-05 -1.789581e-05 1.816139e-05 -1.362195e-05 2.298696e-05 -1.707061e-05 2.522435e-05 -2.976999e-05 1.580449e-05 -5.727950e-05 -2.835730e-05 -1.159011e-04 -1.657616e-04 -2.531431e-04 -5.340742e-04 -5.693506e-04 -1.383457e-03 -1.070306e-03 -2.812644e-03 -1.002145e-03 -3.803406e-03 -1.236308e-04 -3.475281e-03 -5.202301e-03 -7.465171e-03 -3.036629e-02 -7.713176e-02 -2.941998e-01 -9.313574e-01 -3.068952e+00 -9.024274e+00 -2.452831e+01 -5.873660e+01 -1.139943e+02 -6.029452e+01 1.208636e+01 2.664757e+01 1.714463e+01 3.875780e+00 1.037506e+01 1.213366e+01 3.286287e+01 5.888093e+01 6.411588e+01 3.700552e+01 1.615759e+01 6.062691e+00 2.023262e+00 6.252041e-01 1.727955e-01 4.976785e-02 1.026455e-02 3.935184e-03 -2.048320e-04 
4.245412e-04 -4.335592e-04 4.229893e-05 -2.413432e-04 8.746327e-06 -1.181887e-04 2.571353e-06 -5.766408e-05 2.888740e-06 -2.848200e-05 7.387074e-06 -1.436143e-05 1.672300e-05 -6.798828e-06 3.345621e-05 -7.186930e-07 6.092138e-05 6.851492e-06 9.762182e-05 1.066415e-05 1.135483e-04 -3.756484e-05 -3.031782e-05 -3.495706e-04 -7.947823e-04 -1.555372e-03 -3.266759e-03 -4.590993e-03 -8.394514e-03 -7.546939e-03 -1.148654e-02 -1.419214e-03 -2.158962e-03 8.226701e-04 -3.294710e-03 -4.092751e-02 -1.249920e-01 -4.566328e-01 -1.436358e+00 -4.474590e+00 -1.246796e+01 -3.135766e+01 -6.784319e+01 -1.128786e+02 -4.963174e+01 -1.114572e+01 -1.954170e+01 -1.546081e+01 2.165690e+01 -2.175893e+01 -5.098900e+01 6.966300e+01 8.834334e+01 6.314623e+01 3.934145e+01 1.974819e+01 8.310110e+00 3.060998e+00 1.022780e+00 3.066194e-01 8.937764e-02 2.147215e-02 6.317460e-03 4.037494e-04 
8.211420e-04 -8.916024e-05 6.407423e-05 -1.306122e-04 6.520948e-06 -6.876828e-05 6.447531e-07 -3.083144e-05 3.139754e-06 -9.630443e-06 9.353338e-06 2.362981e-06 1.805613e-05 7.740567e-06 2.801297e-05 4.161833e-06 3.471080e-05 -1.782148e-05 1.987332e-05 -8.766513e-05 -8.901444e-05 -3.198791e-04 -5.772498e-04 -1.205733e-03 -2.537431e-03 -4.678855e-03 -9.633347e-03 -1.625609e-02 -2.957705e-02 -3.943800e-02 -5.495301e-02 -3.296638e-02 -1.760369e-02 9.517911e-03 1.774704e-02 -3.731268e-02 -1.652632e-01 -6.113414e-01 -1.892185e+00 -5.550041e+00 -1.468834e+01 -3.449578e+01 -6.895881e+01 -1.100263e+02 -7.906330e+01 -7.145548e+00 1.662856e+01 -2.348821e+01 -1.690605e+01 1.109470e+01 -1.412288e+01 4.030547e+01 8.976985e+01 6.107251e+01 4.070246e+01 2.245217e+01 1.035447e+01 4.179501e+00 1.504794e+00 4.927408e-01 1.504294e-01 4.195050e-02 1.178030e-02 2.507996e-03 
1.163268e-03 2.179504e-05 -4.108859e-05 -1.487641e-04 -6.337402e-05 -8.019964e-05 -3.579906e-05 -3.501829e-05 -1.721971e-05 -1.062440e-05 -3.988771e-06 2.973623e-06 8.951748e-06 1.118930e-05 2.726095e-05 1.630086e-05 5.788802e-05 1.602633e-05 9.745270e-05 -2.370661e-05 4.806224e-05 -3.510292e-04 -7.375198e-04 -2.405316e-03 -5.564961e-03 -1.302409e-02 -2.790439e-02 -5.599557e-02 -1.033701e-01 -1.653022e-01 -2.235523e-01 -1.704694e-01 -3.743982e-02 1.340660e-01 1.983812e-01 9.955867e-02 -1.236331e-01 -6.754382e-01 -2.163280e+00 -6.050524e+00 -1.538829e+01 -3.434490e+01 -6.358002e+01 -8.367964e+01 -5.934621e+01 -1.987512e+01 2.235129e+01 2.866752e+01 -1.187084e+01 3.112741e+01 4.187143e+01 1.926631e+00 4.275003e+01 5.525887e+01 4.160243e+01 2.440554e+01 1.210580e+01 5.233835e+00 2.016914e+00 7.060519e-01 2.276525e-01 6.799973e-02 1.925131e-02 4.751976e-03 
2.311280e-03 5.428319e-04 7.938140e-05 -1.962922e-05 -3.721944e-05 -2.072574e-05 -1.928860e-05 3.494058e-06 -7.469388e-08 2.287409e-05 1.579082e-05 3.883367e-05 2.963610e-05 5.051681e-05 4.078032e-05 4.898610e-05 3.896564e-05 -7.046454e-07 -4.008080e-05 -2.537247e-04 -5.528749e-04 -1.500847e-03 -3.410344e-03 -7.967407e-03 -1.844279e-02 -4.084600e-02 -9.012829e-02 -1.865980e-01 -3.651610e-01 -6.414436e-01 -9.345209e-01 -8.419679e-01 -1.787739e-01 6.050448e-01 9.621152e-01 7.996836e-01 3.120514e-01 -4.944776e-01 -2.133973e+00 -5.964860e+00 -1.478038e+01 -3.191769e+01 -5.613363e+01 -7.091562e+01 -6.139263e+01 -3.483712e+01 6.451392e+00 1.613023e+01 -1.449435e+01 1.624989e+00 4.404391e+01 5.260194e+01 5.491138e+01 5.305037e+01 4.094353e+01 2.542163e+01 1.337676e+01 6.133682e+00 2.515356e+00 9.368768e-01 3.210937e-01 1.027997e-01 3.083203e-02 8.781904e-03 
3.715222e-03 9.618392e-04 1.245977e-04 -1.023594e-05 -7.722429e-05 -2.971908e-05 -4.303507e-05 4.491782e-06 -9.191032e-06 3.213749e-05 1.352510e-05 5.217797e-05 2.660724e-05 6.305744e-05 3.068822e-05 5.432431e-05 1.626540e-05 -2.708169e-05 -1.183152e-04 -4.905013e-04 -1.108499e-03 -3.242523e-03 -7.717231e-03 -1.999428e-02 -4.833833e-02 -1.164496e-01 -2.680631e-01 -5.925255e-01 -1.214868e+00 -2.292299e+00 -3.544572e+00 -3.524418e+00 -6.571118e-01 2.653420e+00 3.982243e+00 3.660497e+00 2.150188e+00 4.645025e-01 -1.629066e+00 -5.316739e+00 -1.320746e+01 -2.802867e+01 -4.816750e+01 -6.033940e+01 -5.333164e+01 -2.751177e+01 -1.463584e+01 -2.796739e+01 -2.042811e+01 9.144646e+00 3.114397e+01 4.688076e+01 5.190304e+01 4.972414e+01 3.922716e+01 2.547242e+01 1.409842e+01 6.815144e+00 2.954672e+00 1.163721e+00 4.220924e-01 1.428361e-01 4.516325e-02 1.360246e-02 
5.950553e-03 1.755492e-03 3.920584e-04 1.243841e-04 -1.801691e-05 2.999602e-05 -1.502779e-06 5.718841e-05 3.783869e-05 9.244103e-05 6.969677e-05 1.258986e-04 8.822824e-05 1.495095e-04 8.321094e-05 1.348020e-04 4.409867e-06 -6.554036e-05 -4.745618e-04 -1.312483e-03 -3.451266e-03 -8.932912e-03 -2.236372e-02 -5.626496e-02 -1.392841e-01 -3.358333e-01 -7.913153e-01 -1.773438e+00 -3.777119e+00 -7.440990e+00 -1.252421e+01 -1.268589e+01 -3.188724e+00 7.548187e+00 1.298612e+01 1.328129e+01 8.882826e+00 3.803422e+00 -2.412453e-02 -4.072588e+00 -1.115202e+01 -2.376656e+01 -4.048603e+01 -5.062498e+01 -4.636441e+01 -3.137687e+01 -2.153479e+01 -2.142304e+01 -1.891053e+01 -4.581856e-01 2.285030e+01 3.833635e+01 4.593132e+01 4.532782e+01 3.679162e+01 2.486602e+01 1.438567e+01 7.290191e+00 3.322941e+00 1.377023e+00 5.269693e-01 1.879268e-01 6.289772e-02 2.007589e-02 
8.753776e-03 2.670446e-03 6.848194e-04 2.033374e-04 5.735338e-06 4.637256e-05 1.793383e-05 9.395191e-05 7.915961e-05 1.543029e-04 1.271911e-04 2.026570e-04 1.423887e-04 2.189672e-04 9.677020e-05 1.460330e-04 -1.218451e-04 -3.235131e-04 -1.228988e-03 -3.117466e-03 -8.037373e-03 -2.097875e-02 -5.323318e-02 -1.380648e-01 -3.468538e-01 -8.613360e-01 -2.060164e+00 -4.734174e+00 -1.034280e+01 -2.135655e+01 -3.907736e+01 -3.422268e+01 -1.224952e+01 2.599774e+00 2.565614e+01 4.065898e+01 2.927715e+01 1.407186e+01 4.630167e+00 -1.546212e+00 -8.532324e+00 -1.939439e+01 -3.335506e+01 -4.241436e+01 -4.213149e+01 -3.587885e+01 -2.950856e+01 -2.243066e+01 -1.277862e+01 1.465105e+00 1.842930e+01 3.220804e+01 4.020466e+01 4.083453e+01 3.406892e+01 2.386066e+01 1.435224e+01 7.589217e+00 3.618032e+00 1.570773e+00 6.312753e-01 2.362459e-01 8.325104e-02 2.781882e-02 
1.233346e-02 3.955934e-03 1.182222e-03 3.959655e-04 1.231474e-04 1.340683e-04 1.157865e-04 2.008145e-04 2.049467e-04 2.978086e-04 2.826547e-04 3.792667e-04 3.088726e-04 4.086580e-04 2.264488e-04 2.788798e-04 -2.073714e-04 -6.460810e-04 -2.582209e-03 -6.610305e-03 -1.788050e-02 -4.693553e-02 -1.226232e-01 -3.200980e-01 -8.135653e-01 -2.020384e+00 -4.815829e+00 -1.093015e+01 -2.379500e+01 -4.842497e+01 -7.048431e+01 -4.077860e+01 -1.366676e+01 -1.383740e+01 -1.450753e+00 5.435132e+01 7.705874e+01 3.676500e+01 1.512038e+01 3.500264e+00 -5.052056e+00 -1.510429e+01 -2.710605e+01 -3.571756e+01 -3.809804e+01 -3.553512e+01 -3.017900e+01 -2.174334e+01 -9.908407e+00 3.576951e+00 1.722566e+01 2.918926e+01 3.630871e+01 3.711023e+01 3.156635e+01 2.275697e+01 1.415435e+01 7.770220e+00 3.853865e+00 1.744642e+00 7.327068e-01 2.866345e-01 1.058994e-01 3.700227e-02 
1.666609e-02 5.558294e-03 1.811642e-03 6.181223e-04 2.582410e-04 2.338263e-04 2.444813e-04 3.569876e-04 3.972170e-04 5.290864e-04 5.321021e-04 6.592625e-04 5.655807e-04 6.684945e-04 3.742862e-04 3.381528e-04 -5.503942e-04 -1.617809e-03 -5.495670e-03 -1.393952e-02 -3.739742e-02 -9.803417e-02 -2.565068e-01 -6.668412e-01 -1.675736e+00 -4.087721e+00 -9.426223e+00 -2.050152e+01 -4.156316e+01 -5.604196e+01 -4.049392e+01 -3.158005e+01 -2.116880e+01 -3.574334e+00 -8.338533e+00 3.224295e+01 8.132591e+01 6.193969e+01 3.113242e+01 1.189757e+01 -1.231426e-01 -1.065994e+01 -2.169975e+01 -3.020659e+01 -3.420816e+01 -3.341663e+01 -2.841253e+01 -1.929005e+01 -7.010236e+00 6.092407e+00 1.799971e+01 2.757074e+01 3.331658e+01 3.396169e+01 2.926726e+01 2.160222e+01 1.383175e+01 7.850994e+00 4.034822e+00 1.897625e+00 8.295914e-01 3.382261e-01 1.305300e-01 4.757203e-02 
2.176045e-02 7.593344e-03 2.677619e-03 9.924036e-04 5.171226e-04 4.496881e-04 5.051404e-04 6.512832e-04 7.541625e-04 9.301473e-04 9.753586e-04 1.131304e-03 1.022974e-03 1.113525e-03 6.754640e-04 4.772957e-04 -1.020893e-03 -3.184865e-03 -1.032853e-02 -2.644782e-02 -7.104154e-02 -1.853067e-01 -4.826257e-01 -1.230770e+00 -3.019696e+00 -7.075757e+00 -1.547178e+01 -3.133541e+01 -6.106268e+01 -7.498836e+01 -1.466144e+01 1.785234e+01 1.056629e+01 7.098583e+00 -1.704555e+00 -2.443559e+01 3.018773e+01 8.694959e+01 4.812672e+01 2.192688e+01 6.080773e+00 -5.968512e+00 -1.694195e+01 -2.561495e+01 -3.063293e+01 -3.103689e+01 -2.671600e+01 -1.798616e+01 -6.383252e+00 6.063678e+00 1.742724e+01 2.613293e+01 3.101735e+01 3.138403e+01 2.725218e+01 2.048766e+01 1.345088e+01 7.863645e+00 4.171577e+00 2.030668e+00 9.204141e-01 3.897688e-01 1.564963e-01 5.937960e-02 
2.764041e-02 1.006788e-02 3.777020e-03 1.494830e-03 8.820865e-04 7.806706e-04 9.153467e-04 1.141404e-03 1.350376e-03 1.622234e-03 1.741477e-03 1.955434e-03 1.833096e-03 1.877932e-03 1.218468e-03 6.562316e-04 -1.838523e-03 -6.015046e-03 -1.850068e-02 -4.724209e-02 -1.249385e-01 -3.200868e-01 -8.168539e-01 -2.015783e+00 -4.762412e+00 -1.058079e+01 -2.160466e+01 -3.918598e+01 -5.453395e+01 -5.062222e+01 -2.642838e+01 2.495444e+00 -2.151965e-01 -1.266760e+01 1.434006e+01 -9.236583e+00 1.358379e+01 7.463524e+01 5.272295e+01 2.943916e+01 1.217904e+01 -1.352144e+00 -1.269855e+01 -2.170847e+01 -2.731543e+01 -2.850111e+01 -2.491174e+01 -1.699938e+01 -6.197359e+00 5.580669e+00 1.635641e+01 2.447152e+01 2.885887e+01 2.908599e+01 2.539616e+01 1.937596e+01 1.299987e+01 7.802852e+00 4.260289e+00 2.140361e+00 1.003026e+00 4.401149e-01 1.834026e-01 7.233132e-02 
3.428177e-02 1.307788e-02 5.215848e-03 2.264104e-03 1.484229e-03 1.365303e-03 1.613292e-03 1.953419e-03 2.317409e-03 2.707592e-03 2.935554e-03 3.197561e-03 3.047485e-03 2.970153e-03 1.960855e-03 7.555977e-04 -3.258670e-03 -1.065539e-02 -3.093890e-02 -7.814776e-02 -2.007194e-01 -5.013337e-01 -1.236121e+00 -2.927131e+00 -6.576858e+00 -1.373458e+01 -2.603463e+01 -4.403616e+01 -5.969327e+01 -2.846668e+01 -9.310512e+00 -1.152628e+01 2.302691e+00 -8.490236e-01 9.892327e+00 4.144222e+00 1.235853e+01 4.572172e+01 4.552018e+01 3.215490e+01 1.641815e+01 2.585809e+00 -9.064833e+00 -1.833888e+01 -2.428356e+01 -2.590166e+01 -2.278946e+01 -1.551499e+01 -5.567206e+00 5.255437e+00 1.520070e+01 2.274261e+01 2.679064e+01 2.697790e+01 2.367392e+01 1.828515e+01 1.250267e+01 7.683439e+00 4.306758e+00 2.227485e+00 1.076532e+00 4.883405e-01 2.106817e-01 8.624110e-02 
4.165511e-02 1.660956e-02 7.010968e-03 3.304478e-03 2.354780e-03 2.257892e-03 2.692851e-03 3.240104e-03 3.852863e-03 4.466990e-03 4.886511e-03 5.268265e-03 5.127694e-03 4.885821e-03 3.431779e-03 1.233781e-03 -4.890720e-03 -1.691228e-02 -4.762124e-02 -1.185712e-01 -2.948148e-01 -7.125335e-01 -1.685527e+00 -3.812580e+00 -8.119900e+00 -1.599561e+01 -2.842230e+01 -4.570627e+01 -6.840723e+01 -3.473126e+01 -5.242180e+00 5.777826e+00 2.331461e+01 -3.308793e+00 -8.012323e+00 -5.318261e+00 3.169961e+00 3.070463e+01 3.795934e+01 3.119879e+01 1.845128e+01 5.391622e+00 -6.154573e+00 -1.545692e+01 -2.147244e+01 -2.325649e+01 -2.045524e+01 -1.372435e+01 -4.498215e+00 5.490517e+00 1.457494e+01 2.137430e+01 2.496309e+01 2.506043e+01 2.206388e+01 1.721232e+01 1.196344e+01 7.508772e+00 4.311574e+00 2.290943e+00 1.139688e+00 5.334855e-01 2.378779e-01 1.009041e-01 
4.978370e-02 2.080983e-02 9.330431e-03 4.829539e-03 3.699920e-03 3.677485e-03 4.363108e-03 5.189759e-03 6.133229e-03 7.020458e-03 7.687271e-03 8.173142e-03 7.998381e-03 7.432163e-03 5.252942e-03 1.524611e-03 -7.600010e-03 -2.596446e-02 -6.961862e-02 -1.686725e-01 -4.013446e-01 -9.326312e-01 -2.101838e+00 -4.532796e+00 -9.146989e+00 -1.703612e+01 -2.846591e+01 -4.152664e+01 -4.816747e+01 -2.183408e+01 -3.853728e+00 -6.035561e+00 -1.387875e+01 -2.069232e+01 7.336645e-01 2.750000e+01 2.120985e+01 1.800663e+01 3.089886e+01 2.858740e+01 1.879009e+01 7.076668e+00 -3.958316e+00 -1.299780e+01 -1.883910e+01 -2.058413e+01 -1.798282e+01 -1.173642e+01 -3.217935e+00 5.932628e+00 1.415722e+01 2.022074e+01 2.333558e+01 2.331180e+01 2.055893e+01 1.616858e+01 1.139964e+01 7.292177e+00 4.281455e+00 2.332933e+00 1.192601e+00 5.751293e-01 2.646311e-01 1.162059e-01 
5.856953e-02 2.562633e-02 1.218553e-02 6.843738e-03 5.564301e-03 5.681936e-03 6.727193e-03 7.964255e-03 9.380319e-03 1.070941e-02 1.177194e-02 1.250797e-02 1.240112e-02 1.148672e-02 8.510216e-03 2.795491e-03 -9.951701e-03 -3.596111e-02 -9.423800e-02 -2.223829e-01 -5.086744e-01 -1.132800e+00 -2.438139e+00 -5.011558e+00 -9.631918e+00 -1.699891e+01 -2.671796e+01 -3.559536e+01 -3.769037e+01 -3.114318e+01 -1.024623e+01 -6.686431e+00 -3.600635e+00 1.609397e+01 -4.475036e+00 1.861410e+00 2.292238e+01 1.906223e+01 2.649826e+01 2.575413e+01 1.816102e+01 7.870372e+00 -2.398323e+00 -1.093101e+01 -1.642989e+01 -1.804560e+01 -1.563285e+01 -9.895870e+00 -2.112666e+00 6.213195e+00 1.366299e+01 1.909970e+01 2.181662e+01 2.168772e+01 1.914002e+01 1.515123e+01 1.081596e+01 7.038406e+00 4.218499e+00 2.353494e+00 1.234548e+00 6.124706e-01 2.904389e-01 1.318533e-01 