# vtk DataFile Version 2.0
Comment goes here
ASCII

DATASET STRUCTURED_POINTS
DIMENSIONS    64   64   1

ORIGIN    0.000   0.000   0.000
SPACING   0.0156250.015625   1.000

POINT_DATA   4096
SCALARS Omega double
LOOKUP_TABLE default

-6.006709e-05 -1.663060e-04 -3.627437e-04 -5.815480e-04 -9.055182e-04 -1.223558e-03 -1.516572e-03 -1.553346e-03 -1.164468e-03 -1.065189e-04 1.440771e-03 3.043621e-03 3.431281e-03 1.490807e-03 -1.353510e-03 -4.877015e-03 -4.096937e-03 -1.174963e-03 1.673119e-03 2.621178e-03 2.477662e-03 2.002851e-03 1.012424e-03 2.836637e-04 -4.398574e-04 -5.624946e-04 3.429802e-05 1.379110e-03 3.482279e-03 5.006503e-03 6.319142e-03 6.005312e-03 3.161344e-03 7.718376e-04 -3.154758e-05 7.410642e-04 1.387607e-03 1.621428e-03 1.260336e-03 7.271304e-04 3.270157e-04 -1.120812e-04 2.631487e-04 1.656650e-04 2.798379e-03 5.573403e-03 9.072228e-03 1.297677e-02 7.710429e-03 3.427193e-03 -2.305950e-03 -3.363460e-03 -1.953059e-03 -6.501378e-04 7.555895e-04 1.248234e-03 1.361452e-03 1.237030e-03 9.178794e-04 7.115116e-04 4.378234e-04 3.117994e-04 1.468249e-04 7.096421e-05 
-1.867612e-04 -2.628097e-04 -4.087080e-04 -5.356565e-04 -7.293867e-04 -8.452471e-04 -9.310593e-04 -7.793601e-04 -4.216585e-04 2.657153e-04 1.029568e-03 1.576531e-03 1.415822e-03 2.287375e-04 -1.300504e-03 -2.523682e-03 -2.268180e-03 -9.599128e-04 6.306559e-04 1.163207e-03 1.269641e-03 1.057168e-03 4.362858e-04 1.481681e-04 -2.220814e-04 -1.553894e-04 2.533176e-04 7.794736e-04 1.601138e-03 1.806019e-03 1.679343e-03 1.142827e-03 -2.219895e-04 -8.060321e-04 -6.965558e-04 -4.526470e-05 5.536606e-04 7.942549e-04 7.261177e-04 5.112080e-04 1.674100e-04 -1.030766e-04 -4.522546e-04 -6.966870e-04 -1.204147e-04 7.101159e-04 2.304912e-03 3.397060e-03 2.299997e-03 8.909041e-04 -1.546670e-03 -1.695849e-03 -1.824982e-03 -1.069160e-03 -4.921651e-04 -1.417564e-04 1.911432e-04 1.583302e-04 2.361030e-04 1.181764e-04 9.440771e-05 1.206698e-05 -4.325289e-05 -9.896412e-05 
-3.888242e-05 -1.076158e-04 -2.209663e-04 -3.028111e-04 -4.137738e-04 -4.533132e-04 -4.594692e-04 -3.044240e-04 -5.177199e-05 3.847547e-04 7.666225e-04 1.018900e-03 8.374840e-04 1.178308e-04 -6.156396e-04 -1.410820e-03 -1.232491e-03 -7.314708e-04 6.735351e-05 5.084359e-04 7.023630e-04 6.768180e-04 4.484765e-04 2.451622e-04 4.373912e-05 -1.633022e-05 1.050004e-04 3.030559e-04 6.308316e-04 7.376770e-04 6.744542e-04 3.667438e-04 -1.991024e-04 -4.646594e-04 -4.448815e-04 -1.098656e-04 1.742359e-04 3.636172e-04 3.601588e-04 2.191912e-04 1.255117e-04 -1.435875e-04 -1.034023e-05 -1.254199e-04 4.399710e-04 1.074627e-03 1.279841e-03 2.004493e-03 5.692691e-04 2.107397e-04 -1.033574e-03 -1.094629e-03 -8.942731e-04 -5.229810e-04 -9.218693e-07 2.547102e-04 4.702088e-04 5.022705e-04 4.705763e-04 4.057039e-04 2.995575e-04 2.277106e-04 1.234606e-04 6.134146e-05 
-1.308616e-04 -1.724088e-04 -2.369506e-04 -2.708162e-04 -3.212153e-04 -3.027620e-04 -2.681290e-04 -1.212471e-04 5.675332e-05 3.157391e-04 4.984206e-04 5.711907e-04 3.934283e-04 -7.302921e-06 -4.577909e-04 -8.050548e-04 -7.720016e-04 -5.364120e-04 -9.094683e-05 1.452438e-04 3.175249e-04 3.398163e-04 2.441978e-04 1.974216e-04 1.295528e-04 1.574275e-04 2.712759e-04 3.542993e-04 4.790930e-04 4.171592e-04 2.340238e-04 3.217871e-06 -3.414528e-04 -4.331066e-04 -4.040788e-04 -2.081329e-04 -1.908699e-05 1.109840e-04 1.288268e-04 9.052282e-05 -2.360743e-05 -1.370325e-04 -2.134024e-04 -2.692387e-04 -7.904060e-05 1.486718e-04 4.137714e-04 6.486796e-04 3.026208e-04 1.580793e-04 -4.885890e-04 -4.759815e-04 -6.842048e-04 -4.596227e-04 -3.438106e-04 -1.804665e-04 -3.537292e-05 -7.088443e-06 6.401836e-05 2.452902e-05 3.465001e-05 -1.436361e-05 -3.920881e-05 -8.224524e-05 
-1.322533e-05 -4.874759e-05 -1.046625e-04 -1.272588e-04 -1.605967e-04 -1.392840e-04 -1.115881e-04 -7.447832e-06 9.762575e-05 2.541893e-04 3.398140e-04 3.658235e-04 2.536793e-04 2.028590e-06 -2.260224e-04 -4.728535e-04 -4.541851e-04 -3.752540e-04 -1.472949e-04 1.580519e-05 1.377062e-04 1.921460e-04 1.684704e-04 1.471692e-04 1.038289e-04 1.028693e-04 1.319258e-04 1.727842e-04 2.215993e-04 2.104692e-04 1.395271e-04 3.216069e-05 -1.165451e-04 -1.749833e-04 -1.795522e-04 -9.369923e-05 -8.157137e-06 6.142551e-05 9.573460e-05 6.135085e-05 7.122920e-05 -1.086993e-05 6.410498e-05 6.779638e-05 1.986804e-04 4.117055e-04 3.286391e-04 5.554022e-04 6.858115e-05 8.266357e-05 -3.548460e-04 -3.333398e-04 -3.714512e-04 -2.506160e-04 -8.698943e-05 2.425385e-05 1.491872e-04 1.876435e-04 2.165479e-04 2.010988e-04 1.706882e-04 1.354428e-04 8.301920e-05 4.509416e-05 
-7.959580e-05 -9.856154e-05 -1.207521e-04 -1.232425e-04 -1.285437e-04 -9.577332e-05 -6.143260e-05 1.923041e-05 8.992837e-05 1.818341e-04 2.186374e-04 2.185109e-04 1.298765e-04 -8.944131e-06 -1.596274e-04 -2.795527e-04 -2.906764e-04 -2.515190e-04 -1.236135e-04 -3.350136e-05 5.903987e-05 1.067076e-04 1.196683e-04 1.364290e-04 1.378222e-04 1.578449e-04 1.881895e-04 1.995194e-04 2.054395e-04 1.601136e-04 7.325703e-05 -1.462335e-05 -1.291039e-04 -1.664826e-04 -1.814879e-04 -1.351237e-04 -8.672313e-05 -3.983259e-05 -2.379756e-05 -2.566244e-05 -4.784535e-05 -7.535108e-05 -7.650837e-05 -7.041679e-05 -4.741071e-06 8.169394e-05 1.224714e-04 2.090488e-04 6.938216e-05 7.860254e-05 -1.594891e-04 -1.313735e-04 -2.645838e-04 -1.834304e-04 -1.856468e-04 -1.138672e-04 -6.638650e-05 -4.150571e-05 -3.403208e-06 -1.480014e-05 -1.442365e-06 -2.662948e-05 -3.396363e-05 -5.938074e-05 
2.416161e-06 -1.392116e-05 -3.866589e-05 -4.193135e-05 -5.091925e-05 -2.882442e-05 -1.111740e-05 4.065424e-05 7.745279e-05 1.310554e-04 1.442179e-04 1.370548e-04 8.275035e-05 -9.326062e-06 -9.082868e-05 -1.779276e-04 -1.863558e-04 -1.777561e-04 -1.126240e-04 -5.215068e-05 2.189178e-06 4.713950e-05 5.788155e-05 7.695434e-05 7.079441e-05 8.427607e-05 8.693488e-05 9.835193e-05 9.550889e-05 8.271963e-05 4.578575e-05 7.095319e-06 -4.185955e-05 -6.403933e-05 -7.067434e-05 -5.287921e-05 -2.314908e-05 -2.875605e-06 2.556031e-05 1.867088e-05 4.286573e-05 2.668579e-05 6.020734e-05 8.228955e-05 1.002803e-04 1.861497e-04 1.070905e-04 1.996389e-04 9.754249e-07 4.369792e-05 -1.406121e-04 -1.085964e-04 -1.627137e-04 -1.103514e-04 -6.678131e-05 -1.615381e-05 4.118369e-05 6.603107e-05 9.361794e-05 9.224167e-05 8.872561e-05 7.267572e-05 5.087092e-05 3.076116e-05 
-4.502732e-05 -5.294029e-05 -5.707860e-05 -5.290526e-05 -4.736205e-05 -2.504639e-05 -4.689302e-06 3.349810e-05 5.940384e-05 9.192263e-05 9.496704e-05 8.792631e-05 4.626463e-05 -4.956928e-06 -6.251401e-05 -1.071425e-04 -1.203349e-04 -1.143342e-04 -7.672231e-05 -3.984966e-05 2.018921e-06 3.649501e-05 5.775443e-05 8.096495e-05 9.104786e-05 1.057342e-04 1.121717e-04 1.124920e-04 1.008388e-04 7.682714e-05 3.535644e-05 -2.299675e-06 -4.871894e-05 -7.021410e-05 -8.545274e-05 -7.939406e-05 -6.809078e-05 -5.502571e-05 -4.451403e-05 -4.184616e-05 -3.873515e-05 -4.049298e-05 -3.054578e-05 -1.665064e-05 4.261538e-06 4.356299e-05 4.041695e-05 8.214616e-05 1.585768e-05 4.055940e-05 -6.201295e-05 -3.606769e-05 -1.102516e-04 -7.267634e-05 -9.523495e-05 -6.152447e-05 -5.218601e-05 -3.677094e-05 -2.102058e-05 -2.356794e-05 -1.448699e-05 -2.660230e-05 -2.640651e-05 -3.973563e-05 
8.764121e-06 1.605699e-06 -8.046773e-06 -6.956176e-06 -8.880450e-06 4.480618e-06 1.248897e-05 3.555353e-05 4.649740e-05 6.452180e-05 6.181314e-05 5.404894e-05 2.728796e-05 -8.293880e-06 -4.222610e-05 -7.488385e-05 -8.488566e-05 -8.498792e-05 -6.743166e-05 -4.209563e-05 -2.066552e-05 7.566762e-06 1.716136e-05 3.768231e-05 3.801784e-05 5.151381e-05 4.849346e-05 5.427071e-05 4.520307e-05 3.874129e-05 1.984859e-05 4.140376e-06 -1.468418e-05 -2.596652e-05 -2.871204e-05 -2.805696e-05 -1.435705e-05 -1.031115e-05 8.561958e-06 7.905974e-06 2.571754e-05 2.667777e-05 3.952281e-05 5.726952e-05 4.989690e-05 8.947756e-05 3.828094e-05 8.231940e-05 -9.735491e-06 2.215555e-05 -6.429287e-05 -3.835987e-05 -7.696600e-05 -4.870248e-05 -4.204406e-05 -1.644091e-05 6.794106e-06 2.142016e-05 3.844675e-05 4.027886e-05 4.397038e-05 3.704206e-05 3.015081e-05 2.026624e-05 
-2.467480e-05 -2.799077e-05 -2.581187e-05 -2.219306e-05 -1.570341e-05 -3.655247e-06 7.239195e-06 2.419940e-05 3.343285e-05 4.510119e-05 4.194066e-05 3.722116e-05 1.695312e-05 -2.773171e-06 -2.781820e-05 -4.463237e-05 -5.409767e-05 -5.229707e-05 -4.156982e-05 -2.414329e-05 -6.249609e-06 1.500090e-05 2.864517e-05 4.605594e-05 5.329641e-05 6.358508e-05 6.398244e-05 6.394990e-05 5.376087e-05 4.185487e-05 2.078300e-05 2.766906e-06 -1.890742e-05 -3.222380e-05 -4.217581e-05 -4.575085e-05 -4.340540e-05 -4.183803e-05 -3.512745e-05 -3.358634e-05 -2.668857e-05 -2.351840e-05 -1.542279e-05 -4.601118e-06 1.568732e-06 2.190142e-05 1.300948e-05 3.590725e-05 1.672814e-06 2.121070e-05 -2.790873e-05 -8.859680e-06 -4.974393e-05 -2.914550e-05 -4.923141e-05 -3.174387e-05 -3.454880e-05 -2.547227e-05 -2.073325e-05 -2.069839e-05 -1.574419e-05 -2.137637e-05 -1.889817e-05 -2.555871e-05 
9.816718e-06 6.617181e-06 3.752300e-06 4.900812e-06 5.000273e-06 1.163122e-05 1.470333e-05 2.432907e-05 2.649816e-05 3.239276e-05 2.749937e-05 2.278742e-05 8.628758e-06 -5.598481e-06 -2.198172e-05 -3.436210e-05 -4.213688e-05 -4.187788e-05 -3.853704e-05 -2.616441e-05 -1.865280e-05 -1.965516e-06 2.885493e-06 1.760937e-05 1.812493e-05 2.831993e-05 2.517800e-05 2.948781e-05 2.256825e-05 2.020988e-05 1.035973e-05 3.520380e-06 -4.511874e-06 -1.080567e-05 -1.133457e-05 -1.399727e-05 -6.393849e-06 -6.801465e-06 4.694903e-06 4.994688e-06 1.549850e-05 1.899830e-05 2.323056e-05 3.457981e-05 2.481842e-05 4.477960e-05 1.438815e-05 3.727700e-05 -9.006061e-06 1.122437e-05 -3.263578e-05 -1.487418e-05 -3.938573e-05 -2.252464e-05 -2.574883e-05 -1.144353e-05 -3.171121e-06 5.583109e-06 1.467053e-05 1.685738e-05 2.127218e-05 1.849721e-05 1.784266e-05 1.316822e-05 
-1.345136e-05 -1.504878e-05 -1.138937e-05 -9.447641e-06 -4.197679e-06 1.501374e-06 7.418696e-06 1.460291e-05 1.796437e-05 2.217073e-05 1.899199e-05 1.655100e-05 6.171991e-06 -1.476605e-06 -1.363482e-05 -1.964092e-05 -2.581557e-05 -2.408202e-05 -2.158670e-05 -1.219965e-05 -4.816839e-06 7.763988e-06 1.494130e-05 2.618784e-05 3.019657e-05 3.705121e-05 3.626808e-05 3.686317e-05 3.020730e-05 2.449543e-05 1.320516e-05 4.044298e-06 -7.157981e-06 -1.534487e-05 -2.140499e-05 -2.603442e-05 -2.581702e-05 -2.741073e-05 -2.331132e-05 -2.304054e-05 -1.754377e-05 -1.482603e-05 -9.626363e-06 -2.767819e-06 -9.886588e-07 1.020042e-05 3.334157e-06 1.652406e-05 -1.771742e-06 1.122991e-05 -1.395134e-05 -1.251530e-06 -2.413859e-05 -1.191407e-05 -2.617694e-05 -1.630023e-05 -2.163914e-05 -1.617302e-05 -1.592387e-05 -1.523401e-05 -1.287570e-05 -1.544114e-05 -1.283177e-05 -1.616806e-05 
8.664523e-06 7.083502e-06 7.077537e-06 7.542491e-06 8.264286e-06 1.107460e-05 1.216071e-05 1.587095e-05 1.546674e-05 1.720618e-05 1.308465e-05 1.057025e-05 2.494207e-06 -3.270809e-06 -1.221124e-05 -1.674183e-05 -2.230732e-05 -2.136610e-05 -2.209026e-05 -1.531861e-05 -1.328949e-05 -3.575504e-06 -1.737326e-06 7.647871e-06 7.653663e-06 1.458138e-05 1.233721e-05 1.571763e-05 1.141362e-05 1.110085e-05 5.881779e-06 3.032153e-06 -6.723515e-07 -4.013938e-06 -3.815314e-06 -6.175242e-06 -1.733966e-06 -2.895609e-06 3.788335e-06 3.925763e-06 9.676600e-06 1.224120e-05 1.337161e-05 1.983830e-05 1.258605e-05 2.295600e-05 5.513061e-06 1.779335e-05 -6.640091e-06 5.455819e-06 -1.801166e-05 -6.726879e-06 -2.180483e-05 -1.145142e-05 -1.620242e-05 -7.674021e-06 -5.366229e-06 8.461362e-08 4.669097e-06 6.556795e-06 1.012467e-05 9.175651e-06 1.071352e-05 8.525135e-06 
-7.385947e-06 -8.383168e-06 -4.901093e-06 -4.231181e-06 -3.024838e-07 2.014694e-06 5.493949e-06 8.293027e-06 9.691064e-06 1.110915e-05 8.945493e-06 7.774260e-06 2.244431e-06 -6.413349e-07 -7.006576e-06 -8.834635e-06 -1.272264e-05 -1.101669e-05 -1.092956e-05 -5.487037e-06 -2.539759e-06 4.797146e-06 8.296320e-06 1.511834e-05 1.714385e-05 2.151228e-05 2.074143e-05 2.157941e-05 1.756554e-05 1.495846e-05 8.649941e-06 3.953984e-06 -2.301036e-06 -7.137580e-06 -1.090984e-05 -1.451544e-05 -1.486595e-05 -1.690370e-05 -1.454974e-05 -1.505061e-05 -1.141401e-05 -1.004597e-05 -6.767365e-06 -3.009376e-06 -2.219563e-06 3.874772e-06 -1.538344e-07 7.409888e-06 -2.289692e-06 5.782720e-06 -7.530489e-06 5.134589e-07 -1.244526e-05 -5.000786e-06 -1.436887e-05 -8.502610e-06 -1.332981e-05 -9.952488e-06 -1.113540e-05 -1.040904e-05 -9.402040e-06 -1.057798e-05 -8.448448e-06 -1.021428e-05 
6.996951e-06 6.057116e-06 7.194219e-06 7.108277e-06 8.072413e-06 8.946953e-06 9.406081e-06 1.055607e-05 9.676819e-06 9.941425e-06 6.965391e-06 5.607371e-06 7.322164e-07 -1.641645e-06 -6.940407e-06 -8.477547e-06 -1.233976e-05 -1.130921e-05 -1.289918e-05 -9.022330e-06 -8.962718e-06 -3.394800e-06 -2.976628e-06 2.668551e-06 2.399157e-06 6.848772e-06 5.415926e-06 7.986054e-06 5.497521e-06 6.113328e-06 3.326259e-06 2.492258e-06 6.883759e-07 -7.761675e-07 -4.541907e-07 -1.873436e-06 7.488975e-07 -2.657919e-07 3.605476e-06 3.351083e-06 6.566554e-06 7.691984e-06 8.025945e-06 1.113204e-05 6.694170e-06 1.179539e-05 2.072292e-06 8.480163e-06 -4.713421e-06 2.160057e-06 -1.078740e-05 -3.984877e-06 -1.313998e-05 -6.830882e-06 -1.079898e-05 -5.595714e-06 -5.347534e-06 -1.893893e-06 4.947934e-07 1.939724e-06 4.658233e-06 4.436097e-06 6.578123e-06 5.510601e-06 
-4.019234e-06 -4.827339e-06 -1.862162e-06 -1.955923e-06 1.029778e-06 1.635589e-06 3.952633e-06 4.745331e-06 5.558149e-06 5.813140e-06 4.580356e-06 3.935189e-06 9.656766e-07 -1.045817e-07 -3.538734e-06 -3.884150e-06 -6.230516e-06 -4.853617e-06 -5.289425e-06 -2.099506e-06 -9.505575e-07 3.220789e-06 4.881990e-06 8.822751e-06 9.816275e-06 1.247734e-05 1.194076e-05 1.274681e-05 1.041053e-05 9.392870e-06 5.785074e-06 3.526189e-06 -1.409474e-07 -2.820115e-06 -5.245909e-06 -7.689417e-06 -8.175074e-06 -1.003876e-05 -8.721276e-06 -9.780207e-06 -7.408579e-06 -7.354142e-06 -5.042111e-06 -3.565662e-06 -2.656825e-06 2.863781e-07 -1.437155e-06 2.655911e-06 -2.117727e-06 2.630679e-06 -4.307106e-06 5.943989e-07 -6.691426e-06 -2.185128e-06 -8.083048e-06 -4.578210e-06 -8.194515e-06 -6.151593e-06 -7.488283e-06 -6.972413e-06 -6.518895e-06 -7.139021e-06 -5.449627e-06 -6.518840e-06 
5.569848e-06 4.852352e-06 6.489410e-06 6.049517e-06 7.181302e-06 7.086096e-06 7.465037e-06 7.447536e-06 6.725486e-06 6.369332e-06 4.355798e-06 3.469400e-06 4.410480e-07 -6.356350e-07 -3.894279e-06 -4.387142e-06 -6.979165e-06 -6.199959e-06 -7.666339e-06 -5.504642e-06 -6.032731e-06 -2.982588e-06 -3.150461e-06 5.022747e-08 -3.285779e-07 2.406309e-06 1.504004e-06 3.433582e-06 2.053818e-06 3.105173e-06 1.670772e-06 1.958024e-06 1.143383e-06 8.544155e-07 1.250316e-06 5.551431e-07 2.273011e-06 1.348400e-06 3.833944e-06 2.985895e-06 5.139527e-06 4.838363e-06 5.348217e-06 6.053040e-06 3.870421e-06 5.772214e-06 6.661563e-07 3.601073e-06 -3.487563e-06 1.092990e-07 -7.112331e-06 -3.262513e-06 -8.749966e-06 -5.068810e-06 -7.830973e-06 -4.765706e-06 -4.941362e-06 -2.869625e-06 -1.322983e-06 -3.946536e-07 1.891875e-06 1.836048e-06 4.164031e-06 3.532524e-06 
-1.964301e-06 -2.755413e-06 -1.420445e-07 -6.899699e-07 1.769890e-06 1.465588e-06 3.262690e-06 3.022391e-06 3.723708e-06 3.333307e-06 2.783030e-06 2.207356e-06 6.990167e-07 2.076669e-07 -1.563772e-06 -1.511120e-06 -2.783531e-06 -1.851018e-06 -2.210132e-06 -4.407400e-07 -5.409121e-10 2.198289e-06 2.937147e-06 5.019329e-06 5.450924e-06 6.965280e-06 6.619752e-06 7.328981e-06 6.043059e-06 5.929182e-06 3.945165e-06 3.140314e-06 1.057435e-06 -2.588473e-07 -1.727455e-06 -3.396193e-06 -3.742321e-06 -5.596109e-06 -4.715915e-06 -6.485225e-06 -4.695625e-06 -5.976868e-06 -3.931977e-06 -4.302337e-06 -2.856047e-06 -2.072653e-06 -2.027760e-06 -1.560495e-07 -1.903027e-06 7.139421e-07 -2.546099e-06 3.246675e-07 -3.595197e-06 -9.813520e-07 -4.542308e-06 -2.605718e-06 -5.042101e-06 -4.013639e-06 -4.996773e-06 -4.861938e-06 -4.443997e-06 -4.968146e-06 -3.426229e-06 -4.254582e-06 
4.675498e-06 3.972638e-06 5.984342e-06 5.288737e-06 6.625624e-06 5.967834e-06 6.458409e-06 5.773953e-06 5.323000e-06 4.542178e-06 3.224568e-06 2.394640e-06 5.194862e-07 -1.404928e-07 -2.098242e-06 -2.289325e-06 -3.896552e-06 -3.431039e-06 -4.503825e-06 -3.430272e-06 -4.075020e-06 -2.623898e-06 -3.098382e-06 -1.515473e-06 -2.045285e-06 -4.733518e-07 -1.143252e-06 3.615980e-07 -3.674243e-07 9.943141e-07 4.356824e-07 1.471743e-06 1.405286e-06 1.842608e-06 2.557201e-06 2.157191e-06 3.729713e-06 2.457743e-06 4.610320e-06 2.747230e-06 4.841376e-06 2.943926e-06 4.150357e-06 2.845528e-06 2.456079e-06 2.171122e-06 -5.171698e-08 7.420660e-07 -2.872430e-06 -1.278653e-06 -5.273390e-06 -3.323068e-06 -6.544780e-06 -4.670891e-06 -6.319375e-06 -4.846065e-06 -4.730143e-06 -3.838169e-06 -2.294803e-06 -2.016986e-06 3.652878e-07 1.269637e-07 2.771818e-06 2.201323e-06 
-4.543726e-07 -1.324604e-06 1.291630e-06 4.255301e-07 2.731954e-06 1.833308e-06 3.443594e-06 2.486687e-06 3.204995e-06 2.243749e-06 2.139591e-06 1.335361e-06 7.270990e-07 2.928219e-07 -3.936100e-07 -3.179052e-07 -7.550284e-07 -2.048510e-07 -3.013570e-07 5.267459e-07 6.452585e-07 1.521504e-06 1.643408e-06 2.438093e-06 2.388379e-06 3.103527e-06 2.790339e-06 3.468967e-06 2.880049e-06 3.464785e-06 2.673197e-06 2.928856e-06 2.122490e-06 1.700006e-06 1.184151e-06 -1.980688e-07 -8.204381e-08 -2.444649e-06 -1.468475e-06 -4.470641e-06 -2.653774e-06 -5.644669e-06 -3.306635e-06 -5.538590e-06 -3.248756e-06 -4.189334e-06 -2.608925e-06 -2.193455e-06 -1.823504e-06 -4.728940e-07 -1.404285e-06 2.157698e-07 -1.615334e-06 -3.129049e-07 -2.317004e-06 -1.641974e-06 -3.079962e-06 -3.055306e-06 -3.440123e-06 -3.909367e-06 -3.107192e-06 -3.859657e-06 -2.045245e-06 -2.905184e-06 
4.439933e-06 3.643319e-06 6.166821e-06 5.244587e-06 6.870444e-06 5.762714e-06 6.387765e-06 5.112714e-06 4.825964e-06 3.529469e-06 2.622103e-06 1.555361e-06 4.362423e-07 -1.649775e-07 -1.148383e-06 -1.219460e-06 -1.947262e-06 -1.651654e-06 -2.248717e-06 -1.856365e-06 -2.537259e-06 -2.203660e-06 -3.071724e-06 -2.695682e-06 -3.647180e-06 -2.929294e-06 -3.712818e-06 -2.400773e-06 -2.764844e-06 -9.414714e-07 -7.434769e-07 1.053575e-06 1.863144e-06 2.821149e-06 4.284010e-06 3.706196e-06 5.854933e-06 3.521101e-06 6.238952e-06 2.552072e-06 5.437882e-06 1.310778e-06 3.721835e-06 2.342314e-07 1.523488e-06 -5.455518e-07 -7.280488e-07 -1.255937e-06 -2.751697e-06 -2.256110e-06 -4.389948e-06 -3.636892e-06 -5.458343e-06 -5.015041e-06 -5.695958e-06 -5.745819e-06 -4.905989e-06 -5.348782e-06 -3.127311e-06 -3.776674e-06 -6.648008e-07 -1.383809e-06 2.019538e-06 1.277049e-06 
9.629292e-07 -2.200273e-08 3.048027e-06 1.929828e-06 4.406891e-06 2.989963e-06 4.558594e-06 2.865383e-06 3.526293e-06 1.823585e-06 1.902755e-06 6.039232e-07 5.802184e-07 -3.387143e-09 2.032067e-07 3.016028e-07 7.116882e-07 1.101004e-06 1.391905e-06 1.599852e-06 1.452365e-06 1.281839e-06 6.563642e-07 3.388041e-07 -4.785722e-07 -4.389177e-07 -1.025249e-06 -2.281292e-07 -3.052683e-07 1.156784e-06 1.555017e-06 2.969685e-06 3.605229e-06 3.932789e-06 4.669760e-06 3.084002e-06 4.080881e-06 3.907421e-07 1.985018e-06 -3.254041e-06 -8.220703e-07 -6.460706e-06 -3.243379e-06 -7.908875e-06 -4.300738e-06 -6.968095e-06 -3.645069e-06 -4.175109e-06 -1.880519e-06 -1.083548e-06 -2.492585e-07 6.741938e-07 2.366479e-07 4.276510e-07 -5.313599e-07 -1.256158e-06 -1.826365e-06 -3.144815e-06 -2.683417e-06 -4.142643e-06 -2.469048e-06 -3.765654e-06 -1.112386e-06 -2.185084e-06 
4.991234e-06 4.107955e-06 7.435389e-06 6.340485e-06 8.347492e-06 6.774884e-06 7.419334e-06 5.380625e-06 4.954377e-06 2.820975e-06 1.938382e-06 3.098976e-07 -3.345243e-07 -1.000787e-06 -1.043115e-06 -8.147325e-07 -4.867621e-07 1.687304e-08 5.942619e-08 1.164247e-07 -6.877409e-07 -1.320150e-06 -2.995823e-06 -3.840193e-06 -5.815626e-06 -5.938362e-06 -7.357516e-06 -5.994817e-06 -6.202106e-06 -3.423656e-06 -2.306345e-06 7.453558e-07 2.860304e-06 4.455258e-06 7.264003e-06 6.000300e-06 9.495981e-06 4.984402e-06 9.219133e-06 2.232977e-06 6.916581e-06 -8.651893e-07 3.564364e-06 -3.008011e-06 3.516121e-07 -3.573671e-06 -1.843883e-06 -3.058169e-06 -3.001287e-06 -2.790672e-06 -3.796448e-06 -3.796487e-06 -4.736204e-06 -5.845237e-06 -5.574725e-06 -7.671243e-06 -5.594569e-06 -8.006896e-06 -4.275722e-06 -6.380901e-06 -1.666939e-06 -3.197584e-06 1.685250e-06 6.366600e-07 
2.610046e-06 1.613952e-06 5.692222e-06 4.461023e-06 7.396397e-06 5.463767e-06 6.950128e-06 4.275525e-06 4.538382e-06 1.655833e-06 1.471803e-06 -7.098164e-07 -3.955186e-07 -1.187987e-06 5.958659e-08 5.122864e-07 2.189730e-06 2.897119e-06 3.891261e-06 3.760814e-06 3.231613e-06 1.942226e-06 -1.940100e-08 -1.744718e-06 -4.136116e-06 -4.966945e-06 -6.441208e-06 -5.304837e-06 -4.966518e-06 -1.949796e-06 7.011615e-08 3.406555e-06 6.146079e-06 7.514913e-06 1.011186e-05 7.811755e-06 1.021429e-05 3.924748e-06 6.703798e-06 -2.541451e-06 1.187389e-06 -8.974844e-06 -4.077140e-06 -1.262096e-05 -6.783409e-06 -1.168992e-05 -5.711144e-06 -6.741784e-06 -1.894471e-06 -8.565191e-07 1.837752e-06 2.454940e-06 3.076151e-06 1.834708e-06 1.572063e-06 -1.369060e-06 -1.060197e-06 -4.627406e-06 -2.860105e-06 -6.006389e-06 -2.707616e-06 -4.926931e-06 -6.056280e-07 -1.976924e-06 
6.565290e-06 5.838077e-06 1.038297e-05 9.354253e-06 1.181904e-05 9.777589e-06 1.013335e-05 6.932788e-06 5.718335e-06 2.053332e-06 4.843050e-07 -2.298553e-06 -2.798005e-06 -3.561459e-06 -2.346601e-06 -1.198015e-06 9.151207e-07 2.462836e-06 3.679261e-06 3.847758e-06 2.767054e-06 9.633243e-07 -2.402852e-06 -5.091806e-06 -9.319351e-06 -1.076083e-05 -1.378236e-05 -1.212299e-05 -1.238343e-05 -7.545266e-06 -4.959837e-06 7.110870e-07 4.967045e-06 7.862886e-06 1.278494e-05 1.022112e-05 1.591192e-05 7.382436e-06 1.436090e-05 1.417218e-06 9.458197e-06 -4.831098e-06 3.151191e-06 -8.658075e-06 -2.024343e-06 -8.445811e-06 -4.063082e-06 -5.171331e-06 -3.365213e-06 -2.363284e-06 -2.499109e-06 -3.090538e-06 -3.413416e-06 -7.080882e-06 -5.596886e-06 -1.132527e-05 -7.058763e-06 -1.289253e-05 -6.283653e-06 -1.078551e-05 -3.104005e-06 -5.839172e-06 1.611949e-06 2.782064e-07 
4.790284e-06 4.208731e-06 1.001664e-05 9.114384e-06 1.279216e-05 1.045452e-05 1.156535e-05 7.440470e-06 6.451923e-06 1.456070e-06 1.382188e-08 -3.862145e-06 -3.616806e-06 -4.624636e-06 -1.705924e-06 -7.114569e-09 4.205027e-06 6.304861e-06 8.892363e-06 8.816665e-06 7.680671e-06 4.730422e-06 1.166629e-07 -4.080678e-06 -9.827649e-06 -1.233325e-05 -1.601601e-05 -1.426725e-05 -1.358438e-05 -7.431748e-06 -2.635045e-06 4.629477e-06 1.092575e-05 1.435280e-05 1.976075e-05 1.608011e-05 2.044841e-05 9.471958e-06 1.411154e-05 -2.173961e-06 3.829560e-06 -1.439257e-05 -6.545957e-06 -2.208191e-05 -1.226496e-05 -2.080118e-05 -9.884739e-06 -1.075636e-05 -1.251167e-06 1.321540e-06 6.870763e-06 7.341105e-06 8.903480e-06 4.811622e-06 4.922497e-06 -2.415324e-06 -9.468357e-07 -8.713765e-06 -4.641136e-06 -1.069564e-05 -4.420152e-06 -8.025765e-06 -7.284461e-07 -2.291801e-06 
9.588812e-06 9.743524e-06 1.604967e-05 1.580835e-05 1.882328e-05 1.654439e-05 1.603066e-05 1.099473e-05 7.651367e-06 9.722407e-07 -2.861802e-06 -8.188829e-06 -9.263034e-06 -1.021958e-05 -6.851272e-06 -3.288176e-06 2.560599e-06 7.082309e-06 1.091888e-05 1.204143e-05 1.051362e-05 6.788132e-06 -2.791624e-08 -6.299085e-06 -1.530059e-05 -1.956587e-05 -2.619716e-05 -2.410569e-05 -2.470852e-05 -1.545471e-05 -9.990296e-06 1.519757e-06 9.542284e-06 1.543407e-05 2.327669e-05 1.844296e-05 2.706193e-05 1.133323e-05 2.287920e-05 -7.182687e-07 1.355601e-05 -1.278519e-05 1.752700e-06 -2.004623e-05 -7.505915e-06 -1.811791e-05 -8.791276e-06 -8.177992e-06 -3.083483e-06 7.400330e-07 1.834969e-06 1.763338e-07 4.144720e-07 -8.882456e-06 -5.375217e-06 -1.853887e-05 -1.004076e-05 -2.222008e-05 -1.013600e-05 -1.858169e-05 -5.631740e-06 -9.972243e-06 1.658126e-06 3.827277e-07 
7.847285e-06 8.753517e-06 1.728892e-05 1.788832e-05 2.272113e-05 2.056064e-05 2.070382e-05 1.441377e-05 1.030549e-05 1.185724e-06 -3.935520e-06 -1.150520e-05 -1.247590e-05 -1.381650e-05 -7.719168e-06 -2.600294e-06 7.375116e-06 1.342990e-05 1.988039e-05 2.062897e-05 1.852181e-05 1.255123e-05 2.586757e-06 -6.567392e-06 -1.943341e-05 -2.575326e-05 -3.462679e-05 -3.213789e-05 -3.127371e-05 -1.854002e-05 -8.151385e-06 7.775259e-06 2.071800e-05 2.850472e-05 3.790640e-05 3.146815e-05 3.800894e-05 1.872971e-05 2.619488e-05 -2.048602e-06 8.037994e-06 -2.471832e-05 -1.184202e-05 -4.114286e-05 -2.419329e-05 -3.977963e-05 -1.867575e-05 -1.781834e-05 1.899059e-06 8.794193e-06 1.993835e-05 1.968556e-05 2.199551e-05 1.081566e-05 1.073823e-05 -6.187811e-06 -2.620913e-06 -1.847764e-05 -9.798103e-06 -2.075309e-05 -8.906510e-06 -1.437481e-05 -1.981581e-06 -3.228931e-06 
1.472722e-05 1.737159e-05 2.615792e-05 2.848576e-05 3.239992e-05 3.091197e-05 2.874952e-05 2.094858e-05 1.281060e-05 -8.773222e-08 -9.973829e-06 -2.142044e-05 -2.518614e-05 -2.694582e-05 -1.944194e-05 -9.905957e-06 4.523406e-06 1.668639e-05 2.667221e-05 3.056251e-05 2.833014e-05 2.090617e-05 7.147688e-06 -6.561704e-06 -2.551227e-05 -3.642814e-05 -5.116425e-05 -4.922766e-05 -5.073417e-05 -3.204007e-05 -1.986779e-05 5.038917e-06 2.039241e-05 3.286620e-05 4.371095e-05 3.426498e-05 4.545758e-05 1.685731e-05 3.609936e-05 -5.915301e-06 2.067720e-05 -2.829996e-05 -1.298133e-06 -4.398599e-05 -2.054818e-05 -3.972083e-05 -1.980634e-05 -1.315513e-05 2.322823e-07 1.161081e-05 1.556061e-05 1.022513e-05 1.100694e-05 -1.240400e-05 -4.853735e-06 -3.408215e-05 -1.665840e-05 -4.063773e-05 -1.777796e-05 -3.240155e-05 -1.019493e-05 -1.632136e-05 1.735525e-06 1.470731e-06 
1.213565e-05 1.671366e-05 2.939516e-05 3.421282e-05 4.122060e-05 4.122984e-05 3.982912e-05 3.063517e-05 1.969704e-05 2.060732e-06 -1.277782e-05 -2.936476e-05 -3.524728e-05 -3.777231e-05 -2.525837e-05 -1.126942e-05 1.258395e-05 2.896788e-05 4.469017e-05 4.773773e-05 4.374061e-05 3.176165e-05 1.108421e-05 -7.945837e-06 -3.557065e-05 -5.086126e-05 -7.200097e-05 -6.995063e-05 -6.971825e-05 -4.298151e-05 -1.965230e-05 1.635681e-05 4.309175e-05 5.961928e-05 7.336843e-05 5.972971e-05 6.675018e-05 3.256194e-05 4.495492e-05 -1.891110e-06 1.678599e-05 -4.169375e-05 -2.060367e-05 -7.937167e-05 -5.066006e-05 -8.241811e-05 -3.902938e-05 -3.164698e-05 1.313174e-05 3.145446e-05 5.477831e-05 5.026906e-05 5.181730e-05 2.147127e-05 1.982360e-05 -1.862401e-05 -1.000208e-05 -4.116498e-05 -2.230821e-05 -4.097779e-05 -1.843432e-05 -2.597257e-05 -5.148296e-06 -4.872036e-06 
2.276113e-05 3.084385e-05 4.308232e-05 5.190751e-05 5.820988e-05 6.088151e-05 5.696729e-05 4.589249e-05 2.808845e-05 2.133937e-06 -2.320300e-05 -5.040178e-05 -6.361046e-05 -6.898297e-05 -5.328752e-05 -2.891261e-05 6.327721e-06 3.790854e-05 6.214248e-05 7.237440e-05 6.825787e-05 5.310849e-05 2.568057e-05 -2.806462e-06 -4.180613e-05 -6.842189e-05 -1.020685e-04 -1.044398e-04 -1.087982e-04 -6.995448e-05 -3.970926e-05 1.743260e-05 4.938272e-05 7.497958e-05 8.484729e-05 6.275459e-05 7.145609e-05 1.963810e-05 5.319066e-05 -1.759284e-05 3.607347e-05 -5.477134e-05 -3.883123e-06 -9.444061e-05 -5.282181e-05 -9.321453e-05 -4.922840e-05 -2.304457e-05 1.442678e-05 4.585755e-05 5.712506e-05 3.747238e-05 3.766884e-05 -2.329181e-05 -6.518454e-06 -7.074326e-05 -3.280350e-05 -7.769262e-05 -3.276814e-05 -5.594147e-05 -1.766218e-05 -2.499482e-05 2.102470e-06 4.693133e-06 
1.772645e-05 2.963003e-05 4.837504e-05 6.310331e-05 7.536581e-05 8.346491e-05 8.184980e-05 7.057449e-05 4.651732e-05 1.098320e-05 -2.876784e-05 -6.929709e-05 -9.235257e-05 -1.002755e-04 -7.469665e-05 -3.730200e-05 2.182279e-05 6.512823e-05 1.023190e-04 1.091047e-04 9.920396e-05 7.454510e-05 3.319816e-05 -3.158618e-06 -5.938517e-05 -9.539377e-05 -1.465473e-04 -1.532041e-04 -1.583076e-04 -1.019133e-04 -4.434017e-05 4.188272e-05 1.014018e-04 1.332566e-04 1.453316e-04 1.072556e-04 1.055755e-04 4.360120e-05 6.805093e-05 -5.289775e-07 4.102511e-05 -5.924154e-05 -2.627942e-05 -1.541278e-04 -1.123925e-04 -1.879484e-04 -9.365527e-05 -6.244498e-05 5.042211e-05 1.004001e-04 1.507574e-04 1.260082e-04 1.185840e-04 3.437862e-05 2.811508e-05 -5.830425e-05 -3.479844e-05 -9.301003e-05 -5.005670e-05 -7.914227e-05 -3.585517e-05 -4.475504e-05 -1.082945e-05 -6.987274e-06 
3.384884e-05 5.167896e-05 6.860980e-05 9.180303e-05 1.056283e-04 1.222886e-04 1.209945e-04 1.102218e-04 7.570384e-05 2.310867e-05 -4.130552e-05 -1.111591e-04 -1.561127e-04 -1.767744e-04 -1.451454e-04 -8.227245e-05 6.808491e-06 8.934048e-05 1.453071e-04 1.661348e-04 1.528528e-04 1.199602e-04 6.735293e-05 1.436635e-05 -6.089259e-05 -1.230115e-04 -2.034283e-04 -2.306371e-04 -2.481881e-04 -1.673621e-04 -8.242071e-05 5.985339e-05 1.370464e-04 1.842662e-04 1.713123e-04 1.048965e-04 8.907795e-05 -5.110117e-06 6.064818e-05 -4.172281e-05 7.957398e-05 -8.262694e-05 1.339081e-05 -1.977256e-04 -1.383741e-04 -2.424791e-04 -1.421404e-04 -4.759634e-05 6.808359e-05 1.553564e-04 1.830523e-04 1.062318e-04 9.771351e-05 -6.642958e-05 -2.493536e-05 -1.631011e-04 -7.389773e-05 -1.514220e-04 -6.007726e-05 -9.185451e-05 -2.680111e-05 -3.317780e-05 4.293382e-06 1.219767e-05 
2.338924e-05 4.705422e-05 7.379776e-05 1.091012e-04 1.353939e-04 1.678717e-04 1.765504e-04 1.728615e-04 1.294524e-04 5.812003e-05 -4.445813e-05 -1.525596e-04 -2.346417e-04 -2.671093e-04 -2.160575e-04 -1.132952e-04 4.298194e-05 1.597785e-04 2.440226e-04 2.466430e-04 2.103271e-04 1.563846e-04 7.943788e-05 2.501290e-05 -7.588770e-05 -1.565756e-04 -2.845707e-04 -3.422749e-04 -3.799389e-04 -2.643930e-04 -1.039499e-04 1.244670e-04 2.760321e-04 3.253474e-04 2.972822e-04 1.658678e-04 1.201212e-04 3.657713e-06 6.845254e-05 5.745802e-06 1.208382e-04 -2.768166e-05 1.752519e-05 -2.874379e-04 -2.679988e-04 -4.835312e-04 -2.689458e-04 -1.408963e-04 1.796926e-04 3.228222e-04 4.277297e-04 3.122108e-04 2.589720e-04 2.049140e-05 7.373519e-06 -1.808532e-04 -1.086324e-04 -2.073008e-04 -1.056503e-04 -1.439321e-04 -6.149198e-05 -6.923871e-05 -1.766439e-05 -8.297503e-06 