# vtk DataFile Version 2.0
Comment goes here
ASCII

DATASET STRUCTURED_POINTS
DIMENSIONS    64   64   1

ORIGIN    0.000   0.000   0.000
SPACING   0.0156250.015625   1.000

POINT_DATA   4096
SCALARS Omega double
LOOKUP_TABLE default

-4.197970e-03 -7.926617e-03 -1.242561e-02 -1.815848e-02 -2.493143e-02 -3.286286e-02 -4.137944e-02 -5.009666e-02 -5.809433e-02 -6.465324e-02 -6.891895e-02 -7.031201e-02 -6.854069e-02 -6.354661e-02 -5.575236e-02 -4.565981e-02 -3.420904e-02 -2.231931e-02 -1.114967e-02 -1.811459e-03 4.728612e-03 7.641763e-03 6.756493e-03 2.150682e-03 -5.179891e-03 -1.414632e-02 -2.310396e-02 -3.077146e-02 -3.602576e-02 -3.838055e-02 -3.785890e-02 -3.490374e-02 -3.021155e-02 -2.457266e-02 -1.851411e-02 -1.271311e-02 -7.100936e-03 -2.217246e-03 2.546905e-03 6.632147e-03 1.090880e-02 1.471282e-02 1.885328e-02 2.261318e-02 2.650061e-02 2.988236e-02 3.293849e-02 3.520647e-02 3.676532e-02 3.724127e-02 3.695041e-02 3.542960e-02 3.342110e-02 3.029678e-02 2.713086e-02 2.320802e-02 1.966077e-02 1.579142e-02 1.253653e-02 9.253674e-03 6.562514e-03 3.855983e-03 1.446001e-03 -1.270045e-03 
-2.570088e-03 -4.887545e-03 -7.628669e-03 -1.117655e-02 -1.533085e-02 -2.025422e-02 -2.553657e-02 -3.102315e-02 -3.611287e-02 -4.041800e-02 -4.338588e-02 -4.466479e-02 -4.404643e-02 -4.145671e-02 -3.713840e-02 -3.135489e-02 -2.468854e-02 -1.767270e-02 -1.102055e-02 -5.387265e-03 -1.331500e-03 6.599286e-04 5.369682e-04 -1.677997e-03 -5.360729e-03 -9.951051e-03 -1.449358e-02 -1.834626e-02 -2.087703e-02 -2.187370e-02 -2.133415e-02 -1.953737e-02 -1.681016e-02 -1.364607e-02 -1.019963e-02 -6.998766e-03 -3.747323e-03 -1.055936e-03 1.822305e-03 4.092211e-03 6.775119e-03 8.911062e-03 1.151468e-02 1.364327e-02 1.601772e-02 1.794274e-02 1.974932e-02 2.102442e-02 2.197022e-02 2.215613e-02 2.213247e-02 2.107433e-02 2.014157e-02 1.808207e-02 1.647011e-02 1.392840e-02 1.201708e-02 9.534449e-03 7.706643e-03 5.612725e-03 4.053086e-03 2.336326e-03 9.044776e-04 -8.013905e-04 
-1.476501e-03 -2.889940e-03 -4.503857e-03 -6.647594e-03 -9.118518e-03 -1.209723e-02 -1.527918e-02 -1.864106e-02 -2.178392e-02 -2.452140e-02 -2.649456e-02 -2.750516e-02 -2.740473e-02 -2.613481e-02 -2.382506e-02 -2.061350e-02 -1.684238e-02 -1.281750e-02 -8.954088e-03 -5.634367e-03 -3.161524e-03 -1.825213e-03 -1.618009e-03 -2.556950e-03 -4.258881e-03 -6.464363e-03 -8.628235e-03 -1.045438e-02 -1.158880e-02 -1.195447e-02 -1.152935e-02 -1.049279e-02 -8.960409e-03 -7.267553e-03 -5.352290e-03 -3.686323e-03 -1.815014e-03 -4.509043e-04 1.314196e-03 2.432517e-03 4.169836e-03 5.215121e-03 6.912847e-03 7.990605e-03 9.468967e-03 1.049695e-02 1.153551e-02 1.222004e-02 1.275578e-02 1.274325e-02 1.286867e-02 1.202312e-02 1.179903e-02 1.031284e-02 9.746625e-03 8.002539e-03 7.189964e-03 5.544712e-03 4.667047e-03 3.311274e-03 2.496745e-03 1.404795e-03 6.086315e-04 -4.533612e-04 
-8.582338e-04 -1.693246e-03 -2.599300e-03 -3.853843e-03 -5.264633e-03 -7.012549e-03 -8.859540e-03 -1.085813e-02 -1.272962e-02 -1.441267e-02 -1.566503e-02 -1.639130e-02 -1.648335e-02 -1.590324e-02 -1.471726e-02 -1.299089e-02 -1.092368e-02 -8.678586e-03 -6.495242e-03 -4.585369e-03 -3.110397e-03 -2.239689e-03 -1.946740e-03 -2.267109e-03 -2.966283e-03 -3.946877e-03 -4.895477e-03 -5.699246e-03 -6.152061e-03 -6.248262e-03 -5.946354e-03 -5.379275e-03 -4.536215e-03 -3.688284e-03 -2.630865e-03 -1.853131e-03 -7.498462e-04 -1.934971e-04 9.568752e-04 1.315015e-03 2.540512e-03 2.820865e-03 4.032146e-03 4.373059e-03 5.347504e-03 5.776003e-03 6.360541e-03 6.656787e-03 7.019624e-03 6.818197e-03 7.264931e-03 6.388613e-03 6.873710e-03 5.522032e-03 5.780162e-03 4.340522e-03 4.275821e-03 3.037980e-03 2.757644e-03 1.817810e-03 1.458633e-03 7.528326e-04 3.475431e-04 -3.006122e-04 
-4.371848e-04 -9.344241e-04 -1.427493e-03 -2.154026e-03 -2.933728e-03 -3.938707e-03 -4.974375e-03 -6.131322e-03 -7.204026e-03 -8.204154e-03 -8.958900e-03 -9.441914e-03 -9.566856e-03 -9.323465e-03 -8.733127e-03 -7.835343e-03 -6.732383e-03 -5.517104e-03 -4.313205e-03 -3.243550e-03 -2.381808e-03 -1.834345e-03 -1.566762e-03 -1.623205e-03 -1.859049e-03 -2.255045e-03 -2.631528e-03 -2.958212e-03 -3.115971e-03 -3.121130e-03 -2.932074e-03 -2.644652e-03 -2.193630e-03 -1.809814e-03 -1.217872e-03 -9.300624e-04 -2.275678e-04 -1.436399e-04 7.204690e-04 5.882283e-04 1.638409e-03 1.390057e-03 2.491362e-03 2.339329e-03 3.174495e-03 3.276894e-03 3.628216e-03 3.763894e-03 3.942371e-03 3.553741e-03 4.159246e-03 3.034712e-03 4.083447e-03 2.572903e-03 3.518685e-03 2.110648e-03 2.631285e-03 1.570445e-03 1.711645e-03 9.962379e-04 9.260431e-04 4.399622e-04 2.634554e-04 -1.464041e-04 
-2.768245e-04 -5.542889e-04 -7.975168e-04 -1.201179e-03 -1.602600e-03 -2.162553e-03 -2.711075e-03 -3.361501e-03 -3.945660e-03 -4.521738e-03 -4.952417e-03 -5.257335e-03 -5.360771e-03 -5.273794e-03 -4.992461e-03 -4.543100e-03 -3.974558e-03 -3.337201e-03 -2.693539e-03 -2.111212e-03 -1.622096e-03 -1.290957e-03 -1.087546e-03 -1.052046e-03 -1.095594e-03 -1.230150e-03 -1.352618e-03 -1.465282e-03 -1.501157e-03 -1.477458e-03 -1.363820e-03 -1.224663e-03 -9.834450e-04 -8.376043e-04 -4.865842e-04 -4.632292e-04 4.609190e-05 -1.710206e-04 5.975837e-04 6.643583e-05 1.148964e-03 3.736657e-04 1.607095e-03 9.023716e-04 1.814343e-03 1.526868e-03 1.750517e-03 1.639607e-03 1.820437e-03 1.098940e-03 2.433680e-03 7.403483e-04 2.849581e-03 7.425342e-04 2.491011e-03 7.454012e-04 1.724452e-03 6.111205e-04 1.002406e-03 3.895739e-04 4.756772e-04 1.394548e-04 9.380483e-05 -1.475086e-04 
-1.105530e-04 -2.822787e-04 -4.014048e-04 -6.368794e-04 -8.337113e-04 -1.149903e-03 -1.423825e-03 -1.787038e-03 -2.085510e-03 -2.411079e-03 -2.638454e-03 -2.823868e-03 -2.888119e-03 -2.868039e-03 -2.733985e-03 -2.519809e-03 -2.231716e-03 -1.910178e-03 -1.572252e-03 -1.265953e-03 -9.928185e-04 -8.010702e-04 -6.603802e-04 -6.083526e-04 -5.879505e-04 -6.199505e-04 -6.480619e-04 -6.774569e-04 -6.815727e-04 -6.575615e-04 -6.049904e-04 -5.422105e-04 -4.250950e-04 -3.925405e-04 -1.771532e-04 -2.859821e-04 1.313091e-04 -2.734236e-04 5.212481e-04 -3.365605e-04 9.874076e-04 -3.031334e-04 1.416159e-03 1.613906e-04 1.573902e-03 1.068286e-03 1.389017e-03 1.368946e-03 1.385115e-03 2.131122e-04 1.948329e-03 -7.689936e-04 2.491156e-03 -5.631971e-04 2.172402e-03 -5.762371e-05 1.443268e-03 2.097939e-04 8.087830e-04 2.289919e-04 3.893440e-04 1.207273e-04 1.184160e-04 -4.691629e-05 
-1.242614e-04 -2.050936e-04 -2.380638e-04 -3.653922e-04 -4.372170e-04 -6.129372e-04 -7.276192e-04 -9.297604e-04 -1.064380e-03 -1.248209e-03 -1.356171e-03 -1.469092e-03 -1.502898e-03 -1.510536e-03 -1.448810e-03 -1.354731e-03 -1.214849e-03 -1.060443e-03 -8.900354e-04 -7.350353e-04 -5.882610e-04 -4.815148e-04 -3.920486e-04 -3.472902e-04 -3.138457e-04 -3.070574e-04 -3.029457e-04 -2.954095e-04 -2.932336e-04 -2.618938e-04 -2.468918e-04 -2.011489e-04 -1.561890e-04 -1.462803e-04 -1.370297e-05 -1.555542e-04 2.109651e-04 -3.081228e-04 5.605984e-04 -6.575987e-04 1.030937e-03 -1.045159e-03 1.459450e-03 -8.871976e-04 1.431359e-03 1.047855e-04 5.795140e-04 -1.396341e-05 -5.431391e-05 -2.234232e-03 1.871405e-03 -2.692409e-03 3.319876e-03 -1.597949e-03 2.492548e-03 -7.169347e-04 1.191269e-03 -2.852745e-04 3.999323e-04 -1.201142e-04 6.849695e-05 -8.490172e-05 -5.118973e-05 -1.170302e-04 
-2.821569e-05 -9.957472e-05 -9.944854e-05 -1.958274e-04 -2.042916e-04 -3.214407e-04 -3.495966e-04 -4.742808e-04 -5.163406e-04 -6.270404e-04 -6.628728e-04 -7.353427e-04 -7.419951e-04 -7.603380e-04 -7.254489e-04 -6.910621e-04 -6.197271e-04 -5.516026e-04 -4.634761e-04 -3.895682e-04 -3.088512e-04 -2.527384e-04 -1.966128e-04 -1.661461e-04 -1.385784e-04 -1.238355e-04 -1.191815e-04 -1.016500e-04 -1.136576e-04 -7.980936e-05 -1.042906e-04 -5.738391e-05 -7.880447e-05 -5.763316e-05 -1.260401e-05 -1.415298e-04 1.525895e-04 -4.304816e-04 5.159694e-04 -1.062945e-03 1.162597e-03 -1.893780e-03 1.960310e-03 -1.907666e-03 2.281653e-03 1.461560e-04 1.542947e-03 1.592519e-03 1.568745e-03 -2.202720e-03 3.401595e-03 -4.607355e-03 4.973153e-03 -2.660854e-03 3.440604e-03 -8.628878e-04 1.616190e-03 -9.539664e-05 6.066559e-04 8.323217e-05 1.933890e-04 5.491933e-05 4.276075e-05 -1.869319e-05 
-9.136563e-05 -1.213531e-04 -7.180430e-05 -1.397156e-04 -9.765293e-05 -1.821274e-04 -1.573971e-04 -2.433062e-04 -2.348475e-04 -3.095497e-04 -3.079592e-04 -3.602787e-04 -3.536298e-04 -3.767489e-04 -3.569142e-04 -3.516118e-04 -3.177962e-04 -2.926646e-04 -2.507926e-04 -2.186590e-04 -1.776702e-04 -1.495809e-04 -1.170929e-04 -9.666477e-05 -7.713030e-05 -5.862885e-05 -5.568473e-05 -2.694875e-05 -4.711661e-05 5.293186e-06 -4.574426e-05 3.873345e-05 -3.829980e-05 6.112237e-05 1.358386e-05 1.182889e-05 1.947973e-04 -3.025690e-04 6.465561e-04 -1.269639e-03 1.490972e-03 -3.155003e-03 2.524153e-03 -4.744045e-03 2.702536e-03 -2.743531e-03 3.113120e-04 -1.651288e-03 -2.147787e-03 -8.855893e-03 6.858529e-03 -7.797375e-03 9.823004e-03 -3.566825e-03 4.682737e-03 -1.580593e-03 1.104202e-03 -7.205224e-04 -7.061942e-05 -3.415171e-04 -2.333600e-04 -1.863397e-04 -1.598910e-04 -1.310486e-04 
6.997138e-07 -8.910843e-05 -5.238461e-06 -1.054179e-04 -2.535582e-05 -1.188073e-04 -5.642402e-05 -1.360004e-04 -9.284439e-05 -1.556357e-04 -1.268042e-04 -1.711534e-04 -1.495121e-04 -1.749243e-04 -1.542651e-04 -1.624263e-04 -1.393302e-04 -1.346102e-04 -1.088913e-04 -9.752516e-05 -7.161320e-05 -5.939101e-05 -3.742272e-05 -2.642784e-05 -1.418732e-05 -1.040225e-08 -6.368237e-06 2.263894e-05 -1.593945e-05 4.512712e-05 -4.284640e-05 6.922600e-05 -8.029055e-05 8.688416e-05 -9.848170e-05 3.162577e-05 -5.748238e-06 -3.669970e-04 4.162910e-04 -1.811393e-03 1.453658e-03 -5.380059e-03 2.643655e-03 -1.071797e-02 1.064886e-03 -1.092489e-02 -4.279643e-03 -1.148444e-03 7.271058e-03 -8.120457e-04 2.309885e-02 -6.762791e-03 2.065625e-02 -2.611687e-03 8.271546e-03 -3.458232e-04 2.284347e-03 2.184862e-04 4.591025e-04 1.598816e-04 5.277758e-05 2.733924e-05 -7.872009e-07 -5.316780e-05 
-3.500872e-05 -1.348684e-04 1.249665e-05 -1.035720e-04 1.561789e-05 -8.657727e-05 1.203426e-06 -7.966297e-05 -1.938457e-05 -7.966111e-05 -4.059040e-05 -8.294050e-05 -5.848865e-05 -8.555308e-05 -6.983278e-05 -8.422206e-05 -7.259137e-05 -7.742827e-05 -6.672749e-05 -6.575339e-05 -5.429603e-05 -5.073661e-05 -3.852861e-05 -3.247634e-05 -2.287891e-05 -8.121729e-06 -1.188594e-05 2.599184e-05 -1.360058e-05 7.067541e-05 -3.770119e-05 1.296818e-04 -8.149702e-05 2.229985e-04 -1.047608e-04 3.396004e-04 1.053143e-05 1.784380e-04 5.042754e-04 -1.611956e-03 1.307788e-03 -9.239056e-03 -9.089163e-04 -3.056890e-02 -1.699524e-02 -5.528973e-02 -4.134288e-02 -3.820704e-02 -6.181733e-03 1.351830e-02 9.736363e-02 2.312725e-02 5.727495e-02 4.523970e-03 1.179229e-02 -1.323003e-03 2.154823e-04 -1.127313e-03 -9.381236e-04 -5.718084e-04 -5.198474e-04 -3.055979e-04 -1.845582e-04 -1.910989e-04 
7.188364e-05 -1.752169e-04 5.996000e-05 -1.330139e-04 4.159491e-05 -9.783442e-05 2.470845e-05 -7.212778e-05 1.076373e-05 -5.492769e-05 -7.397872e-07 -4.429700e-05 -1.000224e-05 -3.765307e-05 -1.607991e-05 -3.198435e-05 -1.723913e-05 -2.469717e-05 -1.224133e-05 -1.475097e-05 -1.835073e-06 -2.925496e-06 1.044972e-05 9.784299e-06 1.857535e-05 2.487570e-05 1.478862e-05 4.656271e-05 -1.007211e-05 7.720798e-05 -6.640705e-05 1.197349e-04 -1.626930e-04 2.020853e-04 -2.970898e-04 3.464513e-04 -4.340270e-04 1.877222e-04 -5.391638e-04 -2.768464e-03 -2.207608e-03 -2.056642e-02 -2.078262e-02 -9.419171e-02 -1.124369e-01 -2.398620e-01 -2.465184e-01 -1.801426e-01 7.492760e-02 3.046691e-01 4.595491e-01 2.240246e-01 1.930991e-01 5.289807e-02 3.424428e-02 8.195187e-03 3.965965e-03 1.256526e-03 2.201265e-04 6.782888e-05 2.462472e-06 -1.844870e-04 5.686788e-05 -2.097404e-04 
1.298297e-04 -2.107095e-04 1.131507e-04 -1.340751e-04 8.200255e-05 -8.558548e-05 5.545837e-05 -5.465838e-05 3.539355e-05 -3.567432e-05 1.967954e-05 -2.539925e-05 6.274333e-06 -2.143168e-05 -5.568613e-06 -2.154774e-05 -1.541230e-05 -2.394553e-05 -2.240953e-05 -2.763863e-05 -2.583364e-05 -3.145680e-05 -2.467093e-05 -3.059485e-05 -1.730051e-05 -1.326146e-05 -5.048331e-06 3.362651e-05 -2.164532e-06 1.049664e-04 -3.979920e-05 1.821520e-04 -1.382278e-04 3.278307e-04 -2.800466e-04 7.338690e-04 -4.765530e-04 1.153940e-03 -1.422916e-03 -3.416161e-03 -1.227486e-02 -5.120864e-02 -1.045788e-01 -3.257914e-01 -5.370945e-01 -1.031162e+00 -1.083214e+00 -8.850343e-01 8.200259e-02 1.527200e+00 2.165927e+00 1.228915e+00 7.146739e-01 2.301427e-01 8.593733e-02 2.070049e-02 3.068032e-03 -2.895667e-04 -1.291732e-03 -9.435773e-04 -3.509451e-04 -5.618099e-04 5.390489e-05 -3.369518e-04 
2.425901e-04 -3.325118e-04 1.473350e-04 -2.032293e-04 8.911041e-05 -1.238744e-04 5.498952e-05 -7.430000e-05 3.510563e-05 -4.293557e-05 2.301260e-05 -2.326812e-05 1.512364e-05 -1.107947e-05 1.026038e-05 -2.991229e-06 8.949017e-06 3.565103e-06 1.217290e-05 9.433384e-06 1.978796e-05 1.337351e-05 2.907233e-05 1.458944e-05 3.375383e-05 1.886475e-05 2.356390e-05 4.012464e-05 -1.621362e-05 7.810609e-05 -1.038250e-04 9.406583e-05 -2.529919e-04 1.156137e-04 -5.164171e-04 3.491047e-04 -1.350260e-03 2.739193e-05 -6.735418e-03 -1.472040e-02 -5.404062e-02 -1.658702e-01 -4.162871e-01 -1.130137e+00 -2.161323e+00 -3.928905e+00 -4.520927e+00 -3.566961e+00 6.267641e-01 6.954402e+00 8.967837e+00 5.568075e+00 2.796358e+00 1.014559e+00 3.526395e-01 1.105301e-01 3.155288e-02 7.916485e-03 2.687956e-03 -6.115842e-04 6.466037e-04 -8.261231e-04 3.864897e-04 -5.409589e-04 
3.935088e-04 -3.443150e-04 2.248201e-04 -1.954843e-04 1.311722e-04 -1.113006e-04 7.882714e-05 -6.213082e-05 4.849675e-05 -3.298541e-05 2.952972e-05 -1.617831e-05 1.616670e-05 -7.595142e-06 5.407734e-06 -5.058272e-06 -4.377327e-06 -8.114952e-06 -1.439668e-05 -1.833809e-05 -2.529513e-05 -3.769020e-05 -3.473130e-05 -6.065771e-05 -3.342736e-05 -5.965071e-05 -8.377339e-06 1.350302e-05 2.869902e-05 1.534930e-04 4.697108e-06 2.024897e-04 -1.353383e-04 1.010787e-04 -3.934433e-04 1.336998e-04 -1.914218e-03 -2.066533e-03 -1.753850e-02 -4.568183e-02 -1.732268e-01 -5.079624e-01 -1.431694e+00 -3.717420e+00 -7.884361e+00 -1.480469e+01 -1.856429e+01 -1.539978e+01 -7.572490e+00 1.562949e+01 3.251439e+01 2.128596e+01 9.864957e+00 3.573291e+00 1.174458e+00 3.611314e-01 1.036409e-01 2.528834e-02 8.588759e-03 -2.187952e-04 1.510869e-03 -1.031336e-03 7.001695e-04 -6.133055e-04 
4.742451e-04 -4.942955e-04 2.367604e-04 -2.675164e-04 1.247819e-04 -1.489545e-04 6.835197e-05 -8.318718e-05 3.866536e-05 -4.463737e-05 2.260701e-05 -2.096159e-05 1.412822e-05 -5.628648e-06 1.078929e-05 5.392108e-06 1.213908e-05 1.451436e-05 1.850089e-05 2.129965e-05 2.947289e-05 2.032038e-05 4.165465e-05 3.009317e-06 4.523733e-05 -2.700349e-05 2.138642e-05 -2.881233e-05 -5.493039e-05 2.931581e-05 -2.029308e-04 -4.742405e-05 -3.754406e-04 -5.797053e-04 -7.011391e-04 -1.997043e-03 -4.498588e-03 -1.343610e-02 -5.047177e-02 -1.550200e-01 -5.328827e-01 -1.569190e+00 -4.468370e+00 -1.146160e+01 -2.504669e+01 -5.342958e+01 -8.990167e+01 -4.311870e+01 3.985653e+01 7.452032e+01 9.044152e+01 6.901077e+01 3.178811e+01 1.174814e+01 3.892865e+00 1.187961e+00 3.600719e-01 8.679721e-02 3.060951e-02 2.125473e-03 3.805984e-03 -1.604350e-03 1.076504e-03 -9.421705e-04 
5.695059e-04 -4.985855e-04 2.718261e-04 -2.606354e-04 1.415734e-04 -1.388620e-04 7.775356e-05 -7.334977e-05 4.394441e-05 -3.622740e-05 2.476263e-05 -1.433902e-05 1.314249e-05 -1.546225e-06 5.189644e-06 4.500536e-06 -2.334460e-06 3.000140e-06 -1.368624e-05 -1.202525e-05 -3.477956e-05 -5.422690e-05 -6.945656e-05 -1.363529e-04 -1.058143e-04 -2.263466e-04 -9.805798e-05 -1.753185e-04 -4.588664e-06 1.641266e-04 3.358223e-05 2.728346e-04 -1.688814e-04 -8.727145e-04 -6.582333e-04 -4.876822e-03 -9.207558e-03 -3.842157e-02 -1.277342e-01 -4.254732e-01 -1.407501e+00 -4.165103e+00 -1.177593e+01 -2.971878e+01 -6.357021e+01 -6.306918e+01 -6.297075e+01 -1.485617e+01 -1.109611e+01 7.406493e+00 9.554273e+01 1.229503e+02 8.662760e+01 3.153563e+01 1.056906e+01 3.293072e+00 1.001738e+00 2.608284e-01 8.104560e-02 1.360239e-02 7.662488e-03 -1.057304e-03 1.500199e-03 -9.503410e-04 
5.974877e-04 -5.348858e-04 2.633909e-04 -2.775586e-04 1.295695e-04 -1.487124e-04 6.576379e-05 -8.048926e-05 3.303225e-05 -4.145629e-05 1.600246e-05 -1.725828e-05 8.115251e-06 -1.113750e-06 6.556461e-06 1.093271e-05 1.051071e-05 2.199565e-05 1.998787e-05 3.138021e-05 3.326135e-05 2.388509e-05 4.046797e-05 -4.556203e-05 7.899329e-06 -2.419624e-04 -1.400519e-04 -5.248091e-04 -4.716391e-04 -5.559777e-04 -8.828641e-04 -4.709975e-04 -9.733935e-04 -2.185604e-03 -1.673769e-03 -1.183053e-02 -2.147493e-02 -9.567763e-02 -2.924737e-01 -1.020525e+00 -3.219772e+00 -9.541138e+00 -2.596129e+01 -6.360541e+01 -7.842053e+01 -4.748225e+01 7.038117e+00 8.077991e+01 -1.176752e+01 -5.392560e+01 -1.511786e+01 8.118586e+01 1.485831e+02 6.136765e+01 2.205695e+01 7.262012e+00 2.318876e+00 6.370082e-01 1.927022e-01 4.028389e-02 1.554947e-02 2.797032e-04 2.018718e-03 -9.771415e-04 
4.772583e-04 -5.645488e-04 1.883868e-04 -2.916999e-04 9.469127e-05 -1.516835e-04 5.048448e-05 -7.868723e-05 2.677843e-05 -3.763629e-05 1.360097e-05 -1.251010e-05 6.697007e-06 3.255363e-06 3.259715e-06 1.183113e-05 -1.749415e-07 1.273589e-05 -1.159258e-05 -4.380578e-06 -5.254301e-05 -8.388733e-05 -1.712127e-04 -3.408420e-04 -4.455854e-04 -9.380900e-04 -9.183859e-04 -1.745885e-03 -1.374252e-03 -1.609478e-03 -1.379950e-03 -1.855223e-04 -1.285363e-03 -2.852242e-03 -3.180663e-03 -2.139018e-02 -4.340262e-02 -1.910072e-01 -5.858080e-01 -2.032838e+00 -6.212267e+00 -1.797186e+01 -4.722542e+01 -1.050703e+02 -4.748340e+01 -1.862943e+01 -3.682119e+01 7.485669e+00 -3.495653e+00 2.470485e+01 1.113669e+01 4.150507e+01 1.131847e+02 7.032546e+01 3.166004e+01 1.240197e+01 4.287394e+00 1.318072e+00 3.937156e-01 9.839569e-02 2.985135e-02 4.045686e-03 2.574753e-03 -8.439136e-04 
6.017071e-04 -3.581271e-04 1.989158e-04 -2.141801e-04 9.511505e-05 -1.175343e-04 4.770489e-05 -6.324805e-05 2.254147e-05 -3.051417e-05 9.291216e-06 -9.173681e-06 3.555750e-06 4.171409e-06 3.190725e-06 1.157452e-05 7.800323e-06 1.777935e-05 1.529120e-05 2.199196e-05 8.001548e-06 -2.380986e-05 -8.826044e-05 -3.378734e-04 -5.359271e-04 -1.564038e-03 -2.063769e-03 -4.717092e-03 -5.535954e-03 -8.411094e-03 -8.379320e-03 -5.539729e-03 -4.409291e-03 -2.527059e-03 -3.526358e-03 -3.321004e-02 -8.131231e-02 -3.331631e-01 -1.017753e+00 -3.359982e+00 -9.736191e+00 -2.608183e+01 -6.164005e+01 -1.279419e+02 -7.661530e+01 -6.093528e+00 4.195764e+00 -4.978295e+01 -4.056505e+01 6.033540e+00 5.392473e-01 4.742208e+01 6.625425e+01 6.073778e+01 3.691293e+01 1.683124e+01 6.530644e+00 2.247575e+00 7.060354e-01 2.012835e-01 5.760887e-02 1.305396e-02 4.516994e-03 1.114353e-04 
4.437375e-04 -4.114068e-04 3.238497e-05 -2.612142e-04 1.155091e-05 -1.408142e-04 8.227908e-06 -7.482804e-05 3.970945e-06 -3.690473e-05 -1.754112e-07 -1.357129e-05 -3.118008e-06 -1.094930e-06 -4.529149e-06 1.028212e-06 -5.137613e-06 -5.735368e-06 -1.895667e-05 -3.973474e-05 -1.234760e-04 -2.451727e-04 -6.146674e-04 -1.247586e-03 -2.455126e-03 -5.030847e-03 -8.075648e-03 -1.536688e-02 -1.987364e-02 -2.922564e-02 -2.668800e-02 -1.699057e-02 -9.373161e-03 1.840415e-03 2.115454e-03 -4.336154e-02 -1.243051e-01 -4.858470e-01 -1.476705e+00 -4.593658e+00 -1.266264e+01 -3.168884e+01 -6.867957e+01 -1.278539e+02 -7.732278e+01 1.673756e+01 4.901643e+01 6.204497e+00 -6.034615e+00 1.568431e+01 -2.452990e+00 4.441077e+01 7.190924e+01 6.120362e+01 3.995720e+01 2.043198e+01 8.767813e+00 3.285776e+00 1.111902e+00 3.405832e-01 9.978810e-02 2.526489e-02 7.165668e-03 7.847062e-04 
1.030848e-03 2.279502e-05 1.225383e-04 -1.092708e-04 4.210330e-05 -6.967193e-05 2.339109e-05 -3.793082e-05 1.183603e-05 -1.717528e-05 2.399851e-06 -5.426572e-06 -5.890712e-06 -5.754566e-06 -1.230417e-05 -2.090477e-05 -1.499543e-05 -5.001779e-05 -3.398720e-05 -1.280104e-04 -2.096419e-04 -5.270257e-04 -1.164300e-03 -2.601326e-03 -5.414786e-03 -1.181471e-02 -2.163596e-02 -4.377870e-02 -6.686320e-02 -1.067913e-01 -1.099664e-01 -8.174636e-02 -2.997979e-02 3.787180e-02 6.662035e-02 1.152486e-02 -1.229379e-01 -5.906748e-01 -1.845706e+00 -5.400527e+00 -1.426192e+01 -3.364162e+01 -6.810720e+01 -1.067864e+02 -4.955301e+01 2.168232e+01 2.719021e+00 1.096336e+01 8.149030e+00 4.223587e+00 3.192281e+01 4.001287e+01 6.157956e+01 6.187518e+01 4.133038e+01 2.278019e+01 1.059904e+01 4.311032e+00 1.572051e+00 5.224253e-01 1.621440e-01 4.661950e-02 1.333043e-02 3.171965e-03 
1.337360e-03 7.367390e-05 -2.798294e-05 -1.686997e-04 -5.566123e-05 -1.075600e-04 -2.757229e-05 -6.399378e-05 -1.931106e-05 -4.500892e-05 -2.871779e-05 -4.474832e-05 -4.916180e-05 -6.274527e-05 -7.111572e-05 -1.018710e-04 -8.741887e-05 -1.738000e-04 -1.482326e-04 -3.915519e-04 -6.201998e-04 -1.488745e-03 -3.321391e-03 -7.302955e-03 -1.638627e-02 -3.466979e-02 -6.996104e-02 -1.373559e-01 -2.290587e-01 -3.636343e-01 -3.809247e-01 -2.629902e-01 -9.906060e-02 9.824491e-02 2.793291e-01 2.461560e-01 5.143891e-02 -5.462714e-01 -1.973191e+00 -5.628910e+00 -1.438486e+01 -3.240064e+01 -6.105537e+01 -8.368376e+01 -6.707593e+01 -1.383665e+01 -1.514350e+01 2.575324e+00 4.212684e+01 -2.898511e+01 -2.158667e+01 4.492093e+01 6.011222e+01 5.677575e+01 4.116994e+01 2.407380e+01 1.196759e+01 5.206033e+00 2.027715e+00 7.192067e-01 2.357525e-01 7.196613e-02 2.079132e-02 5.366813e-03 
2.653593e-03 6.884356e-04 1.649584e-04 8.215557e-06 5.285593e-06 -2.260108e-05 2.793918e-06 -2.099174e-05 -1.187604e-05 -3.720523e-05 -5.181969e-05 -7.678351e-05 -1.085249e-04 -1.393019e-04 -1.607670e-04 -2.283228e-04 -1.988042e-04 -3.905664e-04 -3.545084e-04 -9.603908e-04 -1.514606e-03 -3.836538e-03 -8.226661e-03 -1.891847e-02 -4.227957e-02 -9.239408e-02 -1.932950e-01 -3.922302e-01 -7.022259e-01 -1.167907e+00 -1.313257e+00 -8.533485e-01 -3.860030e-01 1.402834e-01 9.177204e-01 1.263060e+00 9.799976e-01 -1.499380e-02 -1.728715e+00 -5.315879e+00 -1.341719e+01 -2.934615e+01 -5.283019e+01 -6.883857e+01 -5.858890e+01 -1.552002e+01 -5.141522e+00 -2.081777e+01 7.565460e+00 6.467693e+00 1.909364e+01 5.532514e+01 5.591574e+01 5.182862e+01 3.933945e+01 2.433254e+01 1.283294e+01 5.923573e+00 2.454440e+00 9.260707e-01 3.228318e-01 1.054219e-01 3.243476e-02 9.551697e-03 
3.948254e-03 1.041034e-03 1.634724e-04 -1.631123e-05 -6.222929e-05 -5.945845e-05 -5.006499e-05 -7.402049e-05 -8.859143e-05 -1.508198e-04 -2.033838e-04 -2.877483e-04 -3.621622e-04 -4.492817e-04 -4.983686e-04 -6.199592e-04 -5.916626e-04 -9.316442e-04 -9.474671e-04 -2.202151e-03 -3.580576e-03 -9.030028e-03 -1.972773e-02 -4.699368e-02 -1.086730e-01 -2.446448e-01 -5.378134e-01 -1.110163e+00 -2.110294e+00 -3.543251e+00 -4.089738e+00 -1.887085e+00 -1.377647e+00 -8.068769e-01 1.895551e+00 3.782035e+00 4.315299e+00 2.078519e+00 -6.037607e-01 -4.331304e+00 -1.161974e+01 -2.524165e+01 -4.425850e+01 -5.557981e+01 -4.790960e+01 -2.334533e+01 -1.064756e+01 -2.267193e+01 -2.278518e+01 4.272767e+00 2.813770e+01 4.174254e+01 4.820238e+01 4.683039e+01 3.691155e+01 2.395885e+01 1.328568e+01 6.460081e+00 2.824751e+00 1.125058e+00 4.139110e-01 1.422926e-01 4.585572e-02 1.407919e-02 
6.179646e-03 1.889476e-03 4.786260e-04 1.627930e-04 1.716875e-05 7.566954e-06 -4.222751e-05 -9.576222e-05 -1.917581e-04 -3.233349e-04 -4.894917e-04 -6.643264e-04 -8.487567e-04 -1.003033e-03 -1.101208e-03 -1.270597e-03 -1.224569e-03 -1.777490e-03 -1.947754e-03 -4.477001e-03 -7.911641e-03 -2.046428e-02 -4.604039e-02 -1.130670e-01 -2.642795e-01 -6.103052e-01 -1.359047e+00 -2.869771e+00 -5.607020e+00 -9.859079e+00 -1.310543e+01 -3.602834e+00 -9.149854e+00 -2.602883e+00 1.226233e+01 1.193914e+01 1.561017e+01 8.803864e+00 2.696032e+00 -2.337818e+00 -9.230612e+00 -2.078419e+01 -3.614238e+01 -4.515131e+01 -4.233545e+01 -3.271870e+01 -2.662526e+01 -2.490256e+01 -2.079138e+01 -3.589815e+00 1.937418e+01 3.513983e+01 4.296725e+01 4.250406e+01 3.442644e+01 2.323242e+01 1.344384e+01 6.840992e+00 3.137568e+00 1.312258e+00 5.079309e-01 1.836056e-01 6.244329e-02 2.030562e-02 
8.725915e-03 2.726892e-03 7.265313e-04 2.268318e-04 2.875285e-06 -3.797146e-05 -1.580843e-04 -3.099633e-04 -5.617677e-04 -9.113537e-04 -1.321599e-03 -1.775800e-03 -2.191350e-03 -2.529268e-03 -2.721236e-03 -2.930148e-03 -2.889497e-03 -3.716335e-03 -4.353948e-03 -9.133810e-03 -1.691123e-02 -4.309075e-02 -9.893487e-02 -2.464303e-01 -5.829433e-01 -1.370114e+00 -3.097488e+00 -6.661306e+00 -1.361614e+01 -2.630206e+01 -4.777823e+01 -8.977571e+00 -2.600613e+01 -9.795676e+00 1.548559e+01 1.546847e+01 5.527512e+01 2.737393e+01 1.155851e+01 2.031610e+00 -6.005093e+00 -1.638044e+01 -2.921380e+01 -3.774368e+01 -3.912993e+01 -3.532044e+01 -3.007905e+01 -2.330575e+01 -1.205769e+01 2.773549e+00 1.825226e+01 3.115513e+01 3.830271e+01 3.851129e+01 3.194016e+01 2.228489e+01 1.338298e+01 7.090677e+00 3.392786e+00 1.482562e+00 6.004911e-01 2.269271e-01 8.081861e-02 2.735891e-02 
1.201562e-02 3.964044e-03 1.215571e-03 4.212039e-04 5.968794e-05 -9.445399e-05 -3.842882e-04 -7.744802e-04 -1.390742e-03 -2.187331e-03 -3.148917e-03 -4.118883e-03 -5.005985e-03 -5.581341e-03 -5.841139e-03 -5.913382e-03 -5.687666e-03 -6.701948e-03 -8.082290e-03 -1.646981e-02 -3.247200e-02 -8.323229e-02 -1.965912e-01 -4.931014e-01 -1.170642e+00 -2.746015e+00 -6.134921e+00 -1.305635e+01 -2.736293e+01 -6.769789e+01 -9.396613e+01 -5.279272e+01 -1.486903e+01 5.975701e+00 1.083220e+00 2.055976e+01 7.393399e+01 6.227309e+01 2.897107e+01 1.033159e+01 -1.269243e+00 -1.192602e+01 -2.348101e+01 -3.216631e+01 -3.592631e+01 -3.455242e+01 -2.896912e+01 -1.943775e+01 -6.773055e+00 6.487377e+00 1.892303e+01 2.935173e+01 3.519122e+01 3.528775e+01 2.970792e+01 2.128348e+01 1.319198e+01 7.240141e+00 3.594903e+00 1.633449e+00 6.890355e-01 2.713631e-01 1.009513e-01 3.566528e-02 
1.582524e-02 5.406902e-03 1.764203e-03 5.847001e-04 1.378193e-05 -3.619887e-04 -1.017556e-03 -1.960893e-03 -3.403724e-03 -5.284430e-03 -7.501539e-03 -9.756431e-03 -1.165664e-02 -1.277685e-02 -1.297933e-02 -1.246846e-02 -1.152830e-02 -1.239018e-02 -1.502791e-02 -2.924293e-02 -5.969936e-02 -1.505499e-01 -3.589700e-01 -8.872269e-01 -2.074574e+00 -4.704416e+00 -1.001052e+01 -1.962340e+01 -3.529989e+01 -5.343118e+01 -3.949620e+01 -6.944521e+01 5.836765e+00 5.882495e+00 -1.035909e+01 3.509198e+01 1.023724e+01 5.624758e+01 4.664641e+01 2.098359e+01 4.860194e+00 -7.362682e+00 -1.867171e+01 -2.758628e+01 -3.249695e+01 -3.245642e+01 -2.752220e+01 -1.804052e+01 -5.461314e+00 7.733110e+00 1.938916e+01 2.807374e+01 3.267959e+01 3.250038e+01 2.760919e+01 2.019976e+01 1.286805e+01 7.287452e+00 3.741314e+00 1.761502e+00 7.712900e-01 3.156096e-01 1.222404e-01 4.489646e-02 
2.020836e-02 7.170707e-03 2.461059e-03 7.303318e-04 -2.129103e-04 -1.110693e-03 -2.562487e-03 -4.760979e-03 -8.003026e-03 -1.222888e-02 -1.717194e-02 -2.207733e-02 -2.603521e-02 -2.787942e-02 -2.733859e-02 -2.461301e-02 -2.120224e-02 -2.038177e-02 -2.432610e-02 -4.621348e-02 -9.806425e-02 -2.446841e-01 -5.865347e-01 -1.414758e+00 -3.216035e+00 -6.908721e+00 -1.362466e+01 -2.416802e+01 -3.713017e+01 -2.241288e+01 -6.001717e+00 -2.227224e+01 1.746408e+01 1.751136e+01 -1.279752e+01 9.909301e-01 5.640602e+00 5.855422e+01 6.979748e+01 3.204284e+01 1.137506e+01 -2.723696e+00 -1.440158e+01 -2.365760e+01 -2.922834e+01 -3.001198e+01 -2.569348e+01 -1.692736e+01 -5.403767e+00 6.797548e+00 1.777639e+01 2.597854e+01 3.020110e+01 2.998576e+01 2.566585e+01 1.910005e+01 1.245873e+01 7.254922e+00 3.838080e+00 1.866591e+00 8.455420e-01 3.585579e-01 1.441251e-01 5.496811e-02 
2.515390e-02 9.238812e-03 3.242067e-03 7.530093e-04 -8.951476e-04 -2.829973e-03 -6.028640e-03 -1.092678e-02 -1.818284e-02 -2.768348e-02 -3.886590e-02 -5.004037e-02 -5.874366e-02 -6.226916e-02 -5.901167e-02 -4.962727e-02 -3.734463e-02 -3.005849e-02 -3.316074e-02 -6.519440e-02 -1.452727e-01 -3.631207e-01 -8.651506e-01 -2.033290e+00 -4.460154e+00 -9.112750e+00 -1.684028e+01 -2.804406e+01 -4.405658e+01 -6.717725e+01 -2.754319e+01 2.145633e+01 4.313244e+00 3.375910e+01 7.979723e+00 -2.067204e+01 -2.277285e+00 4.186439e+01 7.892431e+01 3.989412e+01 1.698633e+01 1.589373e+00 -1.065566e+01 -2.016766e+01 -2.613548e+01 -2.741333e+01 -2.366268e+01 -1.567660e+01 -5.120366e+00 6.165811e+00 1.644182e+01 2.408430e+01 2.795358e+01 2.771881e+01 2.385860e+01 1.799796e+01 1.198110e+01 7.152357e+00 3.889169e+00 1.948967e+00 9.113340e-01 3.996480e-01 1.663967e-01 6.579158e-02 
3.053831e-02 1.151769e-02 3.946832e-03 2.625001e-04 -2.751041e-03 -6.965822e-03 -1.386967e-02 -2.470890e-02 -4.060041e-02 -6.176444e-02 -8.679444e-02 -1.122165e-01 -1.320063e-01 -1.391199e-01 -1.282492e-01 -9.841075e-02 -6.016101e-02 -3.074577e-02 -2.798826e-02 -7.125584e-02 -1.866882e-01 -4.821296e-01 -1.151956e+00 -2.642330e+00 -5.644282e+00 -1.111218e+01 -1.981376e+01 -3.210366e+01 -4.880830e+01 -6.726922e+01 8.334788e-03 9.619776e+00 -2.428230e+01 -4.129750e+00 4.341034e+00 6.261862e+00 -1.629645e+01 1.993298e+01 5.893554e+01 3.941543e+01 1.994678e+01 4.817829e+00 -7.531914e+00 -1.706918e+01 -2.310998e+01 -2.453167e+01 -2.113190e+01 -1.373438e+01 -3.924165e+00 6.495846e+00 1.580299e+01 2.260144e+01 2.597121e+01 2.567203e+01 2.218737e+01 1.692661e+01 1.146891e+01 7.000661e+00 3.903332e+00 2.010967e+00 9.683891e-01 4.382448e-01 1.885329e-01 7.713588e-02 
3.640606e-02 1.399853e-02 4.406493e-03 -1.172101e-03 -6.863963e-03 -1.561417e-02 -3.028636e-02 -5.348241e-02 -8.808174e-02 -1.347965e-01 -1.917394e-01 -2.515097e-01 -3.008056e-01 -3.212950e-01 -2.935532e-01 -2.091908e-01 -8.579175e-02 1.369518e-02 4.531096e-02 -1.384517e-02 -1.773584e-01 -5.588897e-01 -1.382097e+00 -3.135885e+00 -6.590885e+00 -1.270019e+01 -2.213500e+01 -3.453703e+01 -4.507190e+01 -3.568704e+01 -2.298129e+01 -1.200206e+01 8.570054e-02 -1.599759e+01 -5.455236e+00 1.434644e+01 2.735109e+01 4.059732e+01 4.001468e+01 3.341506e+01 2.007815e+01 6.700659e+00 -5.072687e+00 -1.434888e+01 -2.021425e+01 -2.163622e+01 -1.853664e+01 -1.174035e+01 -2.742732e+00 6.769182e+00 1.521636e+01 2.130048e+01 2.421594e+01 2.382006e+01 2.063092e+01 1.588088e+01 1.092685e+01 6.804661e+00 3.882977e+00 2.052901e+00 1.016476e+00 4.739862e-01 2.104284e-01 8.897978e-02 