# vtk DataFile Version 2.0
Comment goes here
ASCII

DATASET STRUCTURED_POINTS
DIMENSIONS    64   64   1

ORIGIN    0.000   0.000   0.000
SPACING   0.0156250.015625   1.000

POINT_DATA   4096
SCALARS Omega double
LOOKUP_TABLE default

-4.111350e-04 -8.090531e-04 -1.319780e-03 -2.047091e-03 -2.905516e-03 -3.876388e-03 -4.646370e-03 -4.940574e-03 -4.368147e-03 -2.858969e-03 -9.267516e-04 2.289401e-04 -1.243868e-03 -6.779701e-03 -1.687063e-02 -2.981220e-02 -4.280125e-02 -5.145624e-02 -5.297355e-02 -4.660637e-02 -3.424783e-02 -2.071333e-02 -1.011736e-02 -5.669809e-03 -7.858079e-03 -1.572419e-02 -2.649910e-02 -3.735872e-02 -4.552264e-02 -4.934308e-02 -4.891553e-02 -4.460780e-02 -3.842347e-02 -3.102771e-02 -2.369246e-02 -1.665780e-02 -9.808633e-03 -3.456716e-03 3.215488e-03 9.950518e-03 1.760521e-02 2.646156e-02 3.671909e-02 4.861090e-02 6.092441e-02 7.258379e-02 8.137470e-02 8.571169e-02 8.472506e-02 7.875229e-02 6.913286e-02 5.776861e-02 4.594834e-02 3.524899e-02 2.569071e-02 1.821256e-02 1.211379e-02 7.907922e-03 4.749011e-03 2.834944e-03 1.495945e-03 7.619597e-04 2.475793e-04 -8.904227e-05 
-2.847406e-04 -5.148328e-04 -7.843682e-04 -1.143169e-03 -1.511939e-03 -1.890464e-03 -2.104447e-03 -2.081849e-03 -1.713145e-03 -1.119742e-03 -7.199420e-04 -1.187194e-03 -3.429643e-03 -7.888320e-03 -1.449016e-02 -2.191755e-02 -2.851633e-02 -3.221549e-02 -3.188692e-02 -2.772824e-02 -2.083101e-02 -1.358281e-02 -7.660986e-03 -4.508726e-03 -4.149287e-03 -6.315702e-03 -9.764266e-03 -1.348630e-02 -1.634396e-02 -1.763416e-02 -1.749334e-02 -1.583983e-02 -1.368338e-02 -1.098449e-02 -8.427716e-03 -5.847106e-03 -3.256922e-03 -6.581693e-04 2.294608e-03 5.523121e-03 9.376772e-03 1.396798e-02 1.928571e-02 2.538876e-02 3.160542e-02 3.736448e-02 4.158942e-02 4.346094e-02 4.263532e-02 3.926905e-02 3.413746e-02 2.823381e-02 2.222736e-02 1.695665e-02 1.229967e-02 8.783274e-03 5.864885e-03 3.920829e-03 2.376388e-03 1.475085e-03 7.784218e-04 4.088833e-04 1.094400e-04 -8.583673e-05 
-1.987203e-04 -3.372145e-04 -4.866893e-04 -6.755188e-04 -8.383365e-04 -9.920484e-04 -1.028234e-03 -9.580037e-04 -7.443191e-04 -5.316396e-04 -5.618476e-04 -1.207163e-03 -2.862238e-03 -5.631095e-03 -9.338202e-03 -1.315419e-02 -1.626236e-02 -1.766060e-02 -1.701962e-02 -1.460021e-02 -1.096875e-02 -7.317943e-03 -4.186892e-03 -2.329420e-03 -1.543121e-03 -1.897725e-03 -2.765292e-03 -3.885519e-03 -4.786901e-03 -5.175457e-03 -5.194094e-03 -4.622864e-03 -4.035713e-03 -3.159452e-03 -2.433841e-03 -1.588065e-03 -7.165469e-04 2.679288e-04 1.494159e-03 2.935593e-03 4.752009e-03 6.964182e-03 9.561991e-03 1.251716e-02 1.552190e-02 1.823624e-02 2.019995e-02 2.095211e-02 2.041348e-02 1.861704e-02 1.601151e-02 1.308566e-02 1.016590e-02 7.701845e-03 5.534831e-03 3.991467e-03 2.663420e-03 1.842001e-03 1.121257e-03 7.371355e-04 3.849093e-04 2.127440e-04 3.874470e-05 -7.299309e-05 
-1.384429e-04 -2.232424e-04 -3.084538e-04 -4.079852e-04 -4.761802e-04 -5.321071e-04 -5.101184e-04 -4.393241e-04 -3.076150e-04 -2.164367e-04 -2.987259e-04 -7.338540e-04 -1.696445e-03 -3.177690e-03 -5.048897e-03 -6.875536e-03 -8.249664e-03 -8.778779e-03 -8.306450e-03 -7.088298e-03 -5.317656e-03 -3.615369e-03 -2.080141e-03 -1.117409e-03 -5.075508e-04 -3.915017e-04 -4.366690e-04 -6.401071e-04 -8.172921e-04 -8.574864e-04 -8.928327e-04 -7.147846e-04 -6.714893e-04 -4.640739e-04 -3.937674e-04 -1.843287e-04 2.549449e-05 3.667985e-04 8.293516e-04 1.442381e-03 2.239688e-03 3.243673e-03 4.431486e-03 5.781003e-03 7.155689e-03 8.366793e-03 9.239045e-03 9.511678e-03 9.209045e-03 8.304790e-03 7.060864e-03 5.691854e-03 4.355234e-03 3.280756e-03 2.334042e-03 1.720443e-03 1.151939e-03 8.479282e-04 5.231528e-04 3.789817e-04 1.974517e-04 1.201344e-04 1.200458e-05 -5.439276e-05 
-1.019566e-04 -1.544218e-04 -2.041450e-04 -2.597761e-04 -2.876206e-04 -3.091132e-04 -2.777006e-04 -2.280917e-04 -1.447473e-04 -9.982513e-05 -1.489382e-04 -3.853745e-04 -8.743274e-04 -1.592258e-03 -2.464887e-03 -3.269422e-03 -3.834776e-03 -3.994528e-03 -3.700078e-03 -3.111855e-03 -2.273919e-03 -1.524437e-03 -7.954823e-04 -3.534758e-04 1.184174e-05 1.368112e-04 2.333812e-04 2.292197e-04 2.065591e-04 2.185384e-04 1.526916e-04 1.941328e-04 9.754536e-05 1.290347e-04 5.114243e-05 9.931462e-05 1.262593e-04 2.534615e-04 4.292451e-04 6.868697e-04 1.031366e-03 1.465415e-03 1.993852e-03 2.577990e-03 3.190890e-03 3.699349e-03 4.077826e-03 4.151069e-03 3.992394e-03 3.542433e-03 2.966207e-03 2.342653e-03 1.747918e-03 1.303320e-03 9.027688e-04 6.882481e-04 4.529784e-04 3.674010e-04 2.226905e-04 1.846269e-04 8.918159e-05 5.991499e-05 -8.051399e-06 -4.608107e-05 
-6.410947e-05 -9.539490e-05 -1.236135e-04 -1.521080e-04 -1.587855e-04 -1.614631e-04 -1.290829e-04 -9.079621e-05 -3.285059e-05 -1.519897e-06 -1.819820e-05 -1.301188e-04 -3.593251e-04 -6.916756e-04 -1.081549e-03 -1.437906e-03 -1.667086e-03 -1.733634e-03 -1.580820e-03 -1.337086e-03 -9.585980e-04 -6.559076e-04 -3.178259e-04 -1.281311e-04 8.065002e-05 1.692535e-04 2.767538e-04 3.243427e-04 3.511052e-04 3.820155e-04 3.300949e-04 3.367323e-04 2.279351e-04 2.144574e-04 1.124059e-04 1.145963e-04 8.227760e-05 1.309065e-04 1.853957e-04 2.933552e-04 4.316724e-04 6.115239e-04 8.339332e-04 1.071665e-03 1.332655e-03 1.528947e-03 1.687277e-03 1.689165e-03 1.613601e-03 1.395508e-03 1.144397e-03 8.743178e-04 6.271780e-04 4.626461e-04 3.071012e-04 2.559109e-04 1.661273e-04 1.645169e-04 1.003689e-04 1.032523e-04 4.961336e-05 4.126632e-05 -4.266897e-06 -2.604730e-05 
-5.074556e-05 -6.937622e-05 -8.552452e-05 -1.010626e-04 -1.000152e-04 -9.845555e-05 -7.260165e-05 -4.813139e-05 -9.442397e-06 9.811139e-06 8.317132e-06 -4.262757e-05 -1.446560e-04 -2.921960e-04 -4.591191e-04 -6.069233e-04 -6.911716e-04 -7.092836e-04 -6.233838e-04 -5.185974e-04 -3.380767e-04 -2.196454e-04 -5.600908e-05 1.447754e-05 1.248092e-04 1.597136e-04 2.195448e-04 2.404674e-04 2.441554e-04 2.539752e-04 1.991940e-04 1.960183e-04 1.079694e-04 1.025203e-04 2.887650e-05 3.976236e-05 1.449600e-05 4.812539e-05 7.213999e-05 1.255297e-04 1.894277e-04 2.646640e-04 3.652337e-04 4.567334e-04 5.731473e-04 6.389483e-04 7.082537e-04 6.857002e-04 6.508548e-04 5.375200e-04 4.267976e-04 3.051877e-04 1.997293e-04 1.413191e-04 7.822832e-05 7.951404e-05 4.250372e-05 6.450711e-05 3.251234e-05 4.825788e-05 1.565119e-05 1.703777e-05 -1.369623e-05 -2.519685e-05 
-2.617569e-05 -3.630664e-05 -4.456103e-05 -5.147802e-05 -4.603522e-05 -4.143540e-05 -1.999249e-05 -2.822141e-06 2.437907e-05 3.649890e-05 4.008683e-05 1.449971e-05 -3.250094e-05 -1.055183e-04 -1.813211e-04 -2.558428e-04 -2.913127e-04 -3.107417e-04 -2.680955e-04 -2.356095e-04 -1.474977e-04 -1.066840e-04 -1.964852e-05 7.724171e-06 7.654664e-05 9.697527e-05 1.411337e-04 1.592967e-04 1.652537e-04 1.753608e-04 1.369937e-04 1.363487e-04 7.186041e-05 6.969066e-05 1.295281e-05 2.118520e-05 -5.266986e-06 1.455708e-05 1.821364e-05 4.393849e-05 6.965316e-05 9.919097e-05 1.428157e-04 1.731836e-04 2.245106e-04 2.387428e-04 2.699069e-04 2.445391e-04 2.311706e-04 1.712659e-04 1.266745e-04 7.345833e-05 3.321810e-05 1.877716e-05 -2.643115e-06 1.558252e-05 2.647389e-06 2.936085e-05 1.359959e-05 3.192155e-05 1.165384e-05 1.691890e-05 -3.973970e-06 -9.297773e-06 
-2.500505e-05 -3.065853e-05 -3.480130e-05 -3.828717e-05 -3.241896e-05 -2.880557e-05 -1.286275e-05 -2.622429e-06 1.574371e-05 2.201208e-05 2.652634e-05 1.281127e-05 -8.155636e-06 -4.400172e-05 -7.665394e-05 -1.113736e-04 -1.218327e-04 -1.309387e-04 -1.025764e-04 -8.992544e-05 -3.878752e-05 -2.448168e-05 2.637521e-05 3.339997e-05 7.232282e-05 7.566273e-05 9.521006e-05 9.752886e-05 8.940263e-05 8.945612e-05 5.377567e-05 5.298312e-05 5.358483e-06 9.861187e-06 -2.751432e-05 -1.373410e-05 -2.867441e-05 -9.361922e-06 -4.278540e-06 1.391191e-05 3.200941e-05 4.619959e-05 7.305804e-05 8.179292e-05 1.112452e-04 1.079061e-04 1.262637e-04 1.028716e-04 9.883679e-05 6.167824e-05 4.169042e-05 1.300449e-05 -6.117269e-06 -1.036122e-05 -2.157361e-05 -5.740295e-06 -1.404297e-05 7.125136e-06 -3.947555e-06 1.136871e-05 -2.958373e-06 2.842691e-06 -1.175032e-05 -1.386142e-05 
-7.986802e-06 -1.071410e-05 -1.177200e-05 -1.307302e-05 -6.889505e-06 -3.934490e-06 8.495613e-06 1.443797e-05 2.714006e-05 2.897512e-05 3.210400e-05 2.096697e-05 9.108707e-06 -1.538371e-05 -3.347921e-05 -5.884303e-05 -6.478847e-05 -7.800445e-05 -6.220263e-05 -6.322790e-05 -3.218404e-05 -2.886299e-05 5.845669e-06 9.547826e-06 3.947821e-05 4.415461e-05 6.161614e-05 6.672276e-05 6.424227e-05 6.760414e-05 4.450856e-05 4.647350e-05 1.307485e-05 1.732254e-05 -1.127145e-05 -2.414497e-06 -1.708644e-05 -6.074863e-06 -7.090121e-06 1.625454e-06 1.005044e-05 1.405796e-05 2.848569e-05 2.682549e-05 4.317093e-05 3.354215e-05 4.477896e-05 2.551200e-05 2.629413e-05 3.010766e-06 -3.627787e-06 -1.853104e-05 -2.486038e-05 -2.346691e-05 -2.650135e-05 -1.224722e-05 -1.493667e-05 2.613180e-06 -2.946600e-06 1.020035e-05 1.696871e-06 7.645741e-06 -1.415379e-06 -1.493543e-06 
-1.274800e-05 -1.449673e-05 -1.406536e-05 -1.488342e-05 -9.312949e-06 -7.576161e-06 1.953022e-06 5.088729e-06 1.438844e-05 1.454745e-05 1.787971e-05 1.047930e-05 5.613618e-06 -8.689476e-06 -1.598678e-05 -3.010415e-05 -2.961221e-05 -3.701877e-05 -2.380129e-05 -2.494813e-05 -3.004054e-06 -2.393280e-06 2.065822e-05 2.045840e-05 3.793165e-05 3.705280e-05 4.336072e-05 4.226005e-05 3.385419e-05 3.294353e-05 1.179307e-05 1.271287e-05 -1.266393e-05 -7.672153e-06 -2.701206e-05 -1.784501e-05 -2.561570e-05 -1.535874e-05 -1.233213e-05 -4.859603e-06 5.366437e-06 7.928556e-06 2.196877e-05 1.893659e-05 3.326346e-05 2.393360e-05 3.399516e-05 1.867144e-05 2.134476e-05 4.356857e-06 1.194645e-06 -9.940650e-06 -1.458270e-05 -1.516940e-05 -1.898856e-05 -1.089639e-05 -1.472683e-05 -3.796484e-06 -8.991948e-06 -4.031772e-07 -6.843643e-06 -2.820551e-06 -8.971024e-06 -8.956382e-06 
6.470284e-07 -6.044803e-07 1.313258e-06 4.249188e-07 5.607745e-06 5.963283e-06 1.326612e-05 1.376298e-05 2.009754e-05 1.772618e-05 1.943382e-05 1.144820e-05 7.527172e-06 -5.397749e-06 -1.098741e-05 -2.431367e-05 -2.498084e-05 -3.415316e-05 -2.615078e-05 -3.017953e-05 -1.500044e-05 -1.554977e-05 2.294253e-06 3.643131e-06 1.906322e-05 2.148036e-05 2.959864e-05 3.225956e-05 2.974814e-05 3.200629e-05 1.956168e-05 2.180754e-05 4.845636e-06 8.138459e-06 -6.234598e-06 -1.810005e-06 -9.058236e-06 -5.113918e-06 -4.785841e-06 -3.415595e-06 2.504847e-06 1.478677e-07 9.171807e-06 2.900114e-06 1.240285e-05 2.412344e-06 9.600681e-06 -3.004265e-06 2.249074e-07 -1.177433e-05 -1.158055e-05 -1.850659e-05 -1.899362e-05 -1.841063e-05 -1.836201e-05 -1.181593e-05 -1.181891e-05 -3.341096e-06 -4.375019e-06 2.354601e-06 2.203904e-07 3.517165e-06 1.273789e-06 1.491042e-06 
-6.984591e-06 -8.705989e-06 -5.974070e-06 -7.150487e-06 -2.149993e-06 -2.366388e-06 3.973970e-06 3.855095e-06 9.475856e-06 7.557909e-06 1.030652e-05 5.110933e-06 4.677536e-06 -3.126867e-06 -4.150953e-06 -1.181156e-05 -9.583799e-06 -1.460237e-05 -7.217698e-06 -9.304605e-06 1.835655e-06 1.339580e-06 1.279449e-05 1.259730e-05 2.060745e-05 2.015580e-05 2.169045e-05 2.097150e-05 1.484080e-05 1.429748e-05 2.336023e-06 2.835322e-06 -1.032557e-05 -8.125405e-06 -1.736259e-05 -1.391904e-05 -1.630447e-05 -1.322037e-05 -8.870625e-06 -7.845662e-06 1.179940e-06 -7.151625e-07 1.035933e-05 5.484243e-06 1.597486e-05 8.431430e-06 1.600085e-05 6.667390e-06 1.014637e-05 1.031317e-06 1.152239e-06 -5.114628e-06 -6.461202e-06 -8.376154e-06 -9.762538e-06 -8.055722e-06 -9.199273e-06 -6.117436e-06 -7.285323e-06 -5.000536e-06 -6.202450e-06 -5.750184e-06 -6.462775e-06 -7.612414e-06 
5.231584e-06 2.955942e-06 6.688920e-06 4.641500e-06 9.263246e-06 7.590742e-06 1.243561e-05 1.041211e-05 1.408424e-05 1.039699e-05 1.156581e-05 5.329077e-06 3.993872e-06 -4.178102e-06 -6.089632e-06 -1.414062e-05 -1.382369e-05 -1.965278e-05 -1.539961e-05 -1.816418e-05 -1.040046e-05 -1.051568e-05 -1.320984e-06 2.964110e-07 8.182013e-06 1.059326e-05 1.463157e-05 1.700346e-05 1.582595e-05 1.761148e-05 1.195865e-05 1.304376e-05 5.754015e-06 6.196291e-06 7.970185e-07 3.356000e-07 -8.046597e-07 -2.816410e-06 6.294962e-07 -3.459982e-06 3.266064e-06 -2.850592e-06 5.138200e-06 -2.450921e-06 4.805871e-06 -3.522512e-06 1.590440e-06 -6.597377e-06 -3.897155e-06 -1.074254e-05 -9.444814e-06 -1.371112e-05 -1.230528e-05 -1.354272e-05 -1.115109e-05 -1.016290e-05 -6.944901e-06 -5.316680e-06 -1.956347e-06 -1.118498e-06 1.902795e-06 1.313620e-06 4.060303e-06 2.263955e-06 
-4.197035e-06 -7.516624e-06 -2.984364e-06 -5.393516e-06 -3.831760e-07 -2.013415e-06 3.030216e-06 1.520201e-06 5.742376e-06 3.431656e-06 6.087519e-06 2.443407e-06 3.626708e-06 -9.189522e-07 -3.622294e-08 -4.246444e-06 -2.145375e-06 -4.881294e-06 -8.757413e-07 -1.863781e-06 3.353172e-06 3.572989e-06 8.348911e-06 8.980878e-06 1.152018e-05 1.194567e-05 1.104682e-05 1.096667e-05 6.631991e-06 6.054873e-06 -1.857815e-07 -1.095314e-06 -6.563147e-06 -7.792519e-06 -9.798700e-06 -1.170503e-05 -8.789714e-06 -1.191005e-05 -4.381803e-06 -8.939546e-06 1.456727e-06 -4.165315e-06 6.696062e-06 7.354252e-07 9.806245e-06 4.087138e-06 9.967820e-06 4.698535e-06 7.347904e-06 2.545392e-06 3.221775e-06 -1.084621e-06 -6.270944e-07 -4.461935e-06 -2.998387e-06 -6.576225e-06 -3.864793e-06 -7.512888e-06 -3.992350e-06 -7.913739e-06 -4.107876e-06 -8.216162e-06 -4.338657e-06 -8.278343e-06 
8.471467e-06 4.121242e-06 9.464737e-06 5.886477e-06 1.049202e-05 7.412791e-06 1.116226e-05 7.993453e-06 1.047760e-05 6.557699e-06 7.450200e-06 2.498459e-06 2.046778e-06 -3.473462e-06 -4.294338e-06 -9.290810e-06 -9.237217e-06 -1.258363e-05 -1.089891e-05 -1.201762e-05 -8.849884e-06 -7.864043e-06 -4.104079e-06 -1.646186e-06 1.542717e-06 4.569982e-06 6.250254e-06 8.860953e-06 8.778108e-06 1.008097e-05 8.962831e-06 8.294981e-06 7.720598e-06 4.665801e-06 6.396065e-06 7.644085e-07 5.849137e-06 -2.215100e-06 5.966668e-06 -3.837434e-06 5.893196e-06 -4.376847e-06 4.679356e-06 -4.591453e-06 1.883086e-06 -5.389550e-06 -2.110892e-06 -7.294058e-06 -6.123972e-06 -9.920146e-06 -8.646573e-06 -1.203611e-05 -8.626567e-06 -1.238029e-05 -6.086952e-06 -1.055662e-05 -2.069478e-06 -7.217132e-06 2.034161e-06 -3.495366e-06 5.224481e-06 -2.756279e-07 7.247266e-06 2.179596e-06 
-2.822891e-06 -8.387472e-06 -2.055942e-06 -5.797732e-06 -3.649049e-07 -2.882660e-06 1.719658e-06 -2.817283e-07 3.373677e-06 1.279143e-06 3.895983e-06 1.462997e-06 3.226663e-06 7.246268e-07 2.121394e-06 1.749831e-07 1.675998e-06 8.498113e-07 2.499965e-06 2.947505e-06 4.249435e-06 5.667783e-06 5.876364e-06 7.691545e-06 6.291899e-06 7.858010e-06 4.954843e-06 5.657323e-06 2.141555e-06 1.420794e-06 -1.143237e-06 -3.797720e-06 -3.587992e-06 -8.609571e-06 -4.179090e-06 -1.178036e-05 -2.685369e-06 -1.257114e-05 2.573162e-07 -1.082578e-05 3.501646e-06 -6.955310e-06 5.959802e-06 -1.983235e-06 7.067459e-06 2.505335e-06 6.916948e-06 4.847964e-06 6.028951e-06 4.157507e-06 4.936602e-06 8.752809e-07 3.875578e-06 -3.547301e-06 2.773736e-06 -7.563607e-06 1.477069e-06 -1.025778e-05 -1.942935e-08 -1.145231e-05 -1.492338e-06 -1.137633e-05 -2.558518e-06 -1.029964e-05 
1.165090e-05 4.837241e-06 1.172814e-05 6.733835e-06 1.149780e-05 7.547963e-06 1.066221e-05 7.030941e-06 8.756278e-06 4.952218e-06 5.492091e-06 1.428805e-06 1.114241e-06 -2.828293e-06 -3.512618e-06 -6.633532e-06 -7.234889e-06 -8.822368e-06 -9.154203e-06 -8.780311e-06 -8.972263e-06 -6.641107e-06 -6.945155e-06 -3.123468e-06 -3.626596e-06 7.615686e-07 3.379412e-07 3.960270e-06 4.302698e-06 5.595417e-06 7.701492e-06 5.210350e-06 1.018001e-05 2.973208e-06 1.167652e-05 -3.277913e-07 1.227408e-05 -3.580679e-06 1.186212e-05 -5.807757e-06 9.973957e-06 -6.605245e-06 6.144328e-06 -6.430998e-06 6.393383e-07 -6.471589e-06 -5.094138e-06 -7.852572e-06 -8.907260e-06 -1.061768e-05 -9.240341e-06 -1.349775e-05 -6.155269e-06 -1.483434e-05 -1.162034e-06 -1.374641e-05 3.879126e-06 -1.052444e-05 7.737800e-06 -6.186584e-06 1.008647e-05 -1.793595e-06 1.122444e-05 1.971372e-06 
-2.337473e-06 -1.022889e-05 -2.108159e-06 -6.839292e-06 -9.401615e-07 -3.794828e-06 5.527939e-07 -1.425575e-06 1.831404e-06 1.473855e-07 2.638414e-06 1.116586e-06 3.089334e-06 1.963160e-06 3.532166e-06 3.196296e-06 4.204209e-06 4.971069e-06 4.935907e-06 6.880939e-06 5.187253e-06 8.127252e-06 4.439330e-06 7.960388e-06 2.647610e-06 6.077439e-06 3.972351e-07 2.720153e-06 -1.381326e-06 -1.538387e-06 -1.938483e-06 -6.083589e-06 -1.064788e-06 -1.035648e-05 9.511031e-07 -1.374237e-05 3.552281e-06 -1.547633e-05 6.006294e-06 -1.473321e-05 7.470943e-06 -1.100626e-05 7.392614e-06 -4.796747e-06 6.116721e-06 1.891543e-06 4.979786e-06 6.137838e-06 5.357411e-06 5.837541e-06 7.336619e-06 1.172045e-06 9.475741e-06 -5.638880e-06 1.001895e-05 -1.191123e-05 8.289944e-06 -1.588714e-05 4.983866e-06 -1.711343e-05 1.446921e-06 -1.605057e-05 -1.172665e-06 -1.350083e-05 
1.535586e-05 6.197070e-06 1.431202e-05 8.424713e-06 1.304760e-05 8.832196e-06 1.116086e-05 7.502404e-06 8.367829e-06 4.740127e-06 4.724943e-06 1.151330e-06 6.615288e-07 -2.439055e-06 -3.216286e-06 -5.252913e-06 -6.428762e-06 -6.840932e-06 -8.783751e-06 -7.156453e-06 -1.023686e-05 -6.376027e-06 -1.057408e-05 -4.671794e-06 -9.256347e-06 -2.198972e-06 -5.697059e-06 6.420717e-07 1.072105e-07 2.941314e-06 7.116125e-06 3.468247e-06 1.357301e-05 1.444625e-06 1.803488e-05 -2.705844e-06 2.004618e-05 -7.407103e-06 1.965252e-05 -1.070957e-05 1.649815e-05 -1.130161e-05 9.975639e-06 -9.535678e-06 6.636195e-07 -7.760749e-06 -8.467075e-06 -8.822302e-06 -1.307603e-05 -1.336730e-05 -1.066181e-05 -1.891979e-05 -2.775057e-06 -2.205445e-05 6.366601e-06 -2.103647e-05 1.316636e-05 -1.641971e-05 1.647004e-05 -9.956565e-06 1.708158e-05 -3.373356e-06 1.638233e-05 2.195631e-06 
-2.855222e-06 -1.249654e-05 -2.902158e-06 -7.760232e-06 -1.771167e-06 -4.238216e-06 -4.196289e-07 -1.993052e-06 6.806715e-07 -6.153131e-07 1.627633e-06 6.613247e-07 2.852314e-06 2.603093e-06 4.623929e-06 5.475029e-06 6.585865e-06 8.728539e-06 7.718359e-06 1.118405e-05 6.887577e-06 1.166936e-05 3.698796e-06 9.714854e-06 -9.121272e-07 5.838497e-06 -4.863708e-06 1.169070e-06 -6.020906e-06 -3.402613e-06 -3.596438e-06 -7.818175e-06 1.345430e-06 -1.249279e-05 6.877745e-06 -1.734281e-05 1.154849e-05 -2.128581e-05 1.450560e-05 -2.242538e-05 1.483195e-05 -1.876367e-05 1.188022e-05 -9.888369e-06 6.839553e-06 1.169693e-06 3.387401e-06 8.564887e-06 5.241752e-06 7.725648e-06 1.219894e-05 -8.328883e-07 1.959122e-05 -1.236204e-05 2.234041e-05 -2.180964e-05 1.900616e-05 -2.654498e-05 1.192325e-05 -2.650841e-05 4.600071e-06 -2.307007e-05 -5.502773e-07 -1.792494e-05 
1.973812e-05 9.122662e-06 1.754942e-05 1.188726e-05 1.554114e-05 1.190354e-05 1.283549e-05 9.511196e-06 9.076088e-06 5.490309e-06 4.625988e-06 1.042247e-06 3.067366e-07 -2.609408e-06 -3.225786e-06 -4.816711e-06 -6.031278e-06 -5.804438e-06 -8.826510e-06 -6.307706e-06 -1.221033e-05 -6.773146e-06 -1.569474e-05 -6.798397e-06 -1.734177e-05 -5.378764e-06 -1.457966e-05 -2.011424e-06 -6.110781e-06 2.063286e-06 6.345948e-06 3.917784e-06 1.854562e-05 1.047407e-06 2.681884e-05 -6.266629e-06 3.055865e-05 -1.503065e-05 3.090668e-05 -2.130203e-05 2.757300e-05 -2.183960e-05 1.845021e-05 -1.647091e-05 3.193566e-06 -1.023009e-05 -1.276794e-05 -1.060911e-05 -1.971906e-05 -1.980325e-05 -1.215642e-05 -3.153046e-05 5.044109e-06 -3.765957e-05 2.139269e-05 -3.519138e-05 2.997706e-05 -2.641214e-05 3.068355e-05 -1.527170e-05 2.716172e-05 -4.780526e-06 2.294651e-05 3.530739e-06 
-5.039825e-06 -1.470665e-05 -4.526283e-06 -7.872232e-06 -2.608108e-06 -3.677477e-06 -1.007556e-06 -1.903732e-06 -2.515542e-07 -1.474278e-06 3.376047e-07 -6.624872e-07 2.012271e-06 2.110455e-06 5.434949e-06 7.177578e-06 9.672563e-06 1.308024e-05 1.226792e-05 1.722941e-05 1.062368e-05 1.745686e-05 3.904242e-06 1.340330e-05 -5.730487e-06 6.846965e-06 -1.352715e-05 5.637819e-07 -1.465529e-05 -3.928422e-06 -7.774298e-06 -7.864880e-06 3.662165e-06 -1.375514e-05 1.463857e-05 -2.223666e-05 2.279063e-05 -3.133143e-05 2.799185e-05 -3.733652e-05 2.886598e-05 -3.523636e-05 2.280088e-05 -2.183828e-05 1.089337e-05 -1.705336e-06 1.753013e-06 1.229825e-05 5.894192e-06 9.441624e-06 2.328682e-05 -7.995014e-06 4.116428e-05 -2.843591e-05 4.664659e-05 -4.209132e-05 3.783293e-05 -4.594896e-05 2.196680e-05 -4.189665e-05 7.325914e-06 -3.342337e-05 -1.750697e-06 -2.364432e-05 
2.448894e-05 1.468922e-05 2.162382e-05 1.819635e-05 1.955815e-05 1.767311e-05 1.628005e-05 1.354069e-05 1.109103e-05 7.074429e-06 4.892473e-06 4.958857e-07 -4.573156e-07 -3.928795e-06 -3.667687e-06 -5.358117e-06 -5.401085e-06 -5.067689e-06 -8.116045e-06 -5.390111e-06 -1.409818e-05 -7.571492e-06 -2.300943e-05 -1.031570e-05 -3.070873e-05 -1.028312e-05 -3.060360e-05 -4.826444e-06 -1.806723e-05 4.211272e-06 4.224003e-06 9.615985e-06 2.627536e-05 4.497826e-06 3.943090e-05 -1.056066e-05 4.437342e-05 -2.898356e-05 4.684280e-05 -4.334926e-05 4.710589e-05 -4.609621e-05 3.784713e-05 -3.368771e-05 1.333714e-05 -1.612741e-05 -1.752765e-05 -1.398073e-05 -3.084702e-05 -3.457681e-05 -1.169691e-05 -6.010997e-05 2.573974e-05 -7.026108e-05 5.466656e-05 -6.152458e-05 6.243862e-05 -4.247889e-05 5.428402e-05 -2.214289e-05 4.119330e-05 -5.235664e-06 3.057528e-05 6.984598e-06 
-1.012186e-05 -1.612898e-05 -6.995648e-06 -6.138839e-06 -2.703177e-06 -1.102134e-06 -3.539713e-07 -6.086980e-07 -6.359210e-07 -2.713777e-06 -1.722126e-06 -3.912889e-06 -3.738141e-07 -6.641649e-07 5.503868e-06 8.020375e-06 1.434004e-05 1.912190e-05 2.083980e-05 2.713285e-05 1.903869e-05 2.762492e-05 6.422342e-06 2.016162e-05 -1.326425e-05 8.979482e-06 -3.005699e-05 6.610218e-07 -3.266001e-05 -1.582637e-06 -1.770618e-05 -2.630284e-06 5.528469e-06 -1.080447e-05 2.459159e-05 -2.743638e-05 3.731968e-05 -4.779755e-05 4.858473e-05 -6.625966e-05 5.629750e-05 -7.210687e-05 4.972526e-05 -5.289203e-05 2.459813e-05 -1.318238e-05 -5.866472e-08 1.661555e-05 7.489434e-06 8.263020e-06 4.991802e-05 -2.925873e-05 9.104892e-05 -6.572532e-05 9.804576e-05 -8.287202e-05 7.225301e-05 -8.058986e-05 3.584427e-05 -6.653244e-05 7.334776e-06 -4.822549e-05 -7.147866e-06 -3.056894e-05 
2.865729e-05 2.416098e-05 2.688445e-05 2.879915e-05 2.646119e-05 2.775545e-05 2.318408e-05 2.092748e-05 1.557408e-05 9.943422e-06 5.593772e-06 -1.086490e-06 -2.380096e-06 -7.367859e-06 -5.015540e-06 -7.128838e-06 -3.699442e-06 -3.685788e-06 -4.553001e-06 -2.964236e-06 -1.393428e-05 -8.254000e-06 -3.286499e-05 -1.671495e-05 -5.382102e-05 -1.986335e-05 -6.178586e-05 -9.081339e-06 -4.303409e-05 1.360461e-05 -8.390590e-07 2.947270e-05 3.982976e-05 1.890672e-05 5.690653e-05 -1.423298e-05 5.810163e-05 -5.328953e-05 6.564142e-05 -8.818744e-05 8.206805e-05 -1.035422e-04 8.469464e-05 -8.035661e-05 4.746954e-05 -3.373419e-05 -1.983301e-05 -2.269178e-05 -5.286876e-05 -7.321748e-05 -3.975381e-06 -1.296505e-04 8.193743e-05 -1.400705e-04 1.317148e-04 -1.094524e-04 1.264556e-04 -6.641698e-05 9.256453e-05 -2.938482e-05 5.874011e-05 -3.121844e-06 3.751317e-05 1.391824e-05 
-1.969420e-05 -1.558588e-05 -9.559151e-06 -7.755826e-07 1.569266e-07 5.716094e-06 4.232205e-06 3.926915e-06 1.542694e-06 -3.425438e-06 -4.072588e-06 -9.689544e-06 -5.080520e-06 -6.929865e-06 4.398359e-06 7.902448e-06 2.225384e-05 2.894238e-05 3.764794e-05 4.475377e-05 3.762503e-05 4.634945e-05 1.534005e-05 3.277049e-05 -2.428397e-05 1.282829e-05 -6.177699e-05 2.204801e-06 -7.016866e-05 9.484423e-06 -3.913450e-05 1.896336e-05 6.388318e-06 4.282071e-06 3.346938e-05 -3.215928e-05 4.701554e-05 -7.448384e-05 7.351208e-05 -1.222051e-04 1.101073e-04 -1.582976e-04 1.184190e-04 -1.408899e-04 6.607344e-05 -6.079845e-05 -8.311749e-06 8.544370e-06 8.706923e-07 -1.468109e-05 1.127550e-04 -9.628176e-05 2.120847e-04 -1.553359e-04 2.107165e-04 -1.650783e-04 1.346084e-04 -1.412940e-04 5.122542e-05 -1.047308e-04 -1.637624e-06 -6.847591e-05 -2.126308e-05 -3.824924e-05 
3.061415e-05 3.859608e-05 3.450519e-05 4.569352e-05 3.963329e-05 4.555852e-05 3.832195e-05 3.599414e-05 2.739996e-05 1.809384e-05 1.041303e-05 -9.337786e-07 -3.141437e-06 -1.094327e-05 -5.059549e-06 -7.698436e-06 2.505304e-06 1.604357e-06 6.480806e-06 3.999676e-06 -7.378498e-06 -7.607163e-06 -4.391300e-05 -2.787575e-05 -9.205901e-05 -3.828379e-05 -1.211232e-04 -1.440851e-05 -9.342033e-05 4.540130e-05 -8.701297e-06 8.974378e-05 6.714774e-05 5.886877e-05 7.354646e-05 -2.005561e-05 4.941115e-05 -9.524179e-05 7.103369e-05 -1.763575e-04 1.425475e-04 -2.458391e-04 1.980040e-04 -2.265363e-04 1.449015e-04 -1.148780e-04 -3.199966e-05 -8.032128e-05 -1.372530e-04 -2.148638e-04 9.021828e-06 -3.281619e-04 2.325592e-04 -2.987079e-04 3.132678e-04 -1.941210e-04 2.510110e-04 -9.732407e-05 1.494432e-04 -3.332376e-05 7.484862e-05 3.954989e-06 3.919997e-05 2.550598e-05 
-3.452094e-05 -1.140262e-05 -9.146467e-06 1.151322e-05 1.195368e-05 2.271654e-05 2.144284e-05 2.046146e-05 1.698541e-05 6.938499e-06 4.658327e-06 -7.074499e-06 -1.047808e-06 -6.142266e-06 1.274648e-05 1.671968e-05 4.359169e-05 5.121869e-05 7.233066e-05 7.741594e-05 7.638515e-05 8.117684e-05 4.150304e-05 6.029883e-05 -3.122198e-05 2.827500e-05 -1.111834e-04 1.869708e-05 -1.378239e-04 5.533735e-05 -7.954897e-05 8.902451e-05 -1.733403e-06 3.647048e-05 8.854727e-06 -5.768317e-05 -1.057896e-06 -1.274178e-04 6.941425e-05 -2.321552e-04 2.064267e-04 -3.765897e-04 2.807173e-04 -4.399063e-04 1.416975e-04 -3.262394e-04 -1.464171e-04 -1.778960e-04 -1.638086e-04 -2.273350e-04 2.073395e-04 -3.587454e-04 5.025444e-04 -3.910646e-04 4.573279e-04 -3.330791e-04 2.386130e-04 -2.452885e-04 5.406269e-05 -1.616189e-04 -3.413489e-05 -9.473011e-05 -5.106930e-05 -4.583161e-05 
2.906550e-05 5.787376e-05 4.826167e-05 7.240035e-05 6.826974e-05 8.140752e-05 7.847654e-05 7.859487e-05 7.280473e-05 6.183507e-05 5.473279e-05 3.974703e-05 3.830885e-05 2.706250e-05 3.586977e-05 2.866728e-05 4.272382e-05 3.235794e-05 4.011816e-05 2.228015e-05 1.182215e-05 -4.856008e-06 -4.915381e-05 -3.920177e-05 -1.366177e-04 -5.272334e-05 -2.060633e-04 8.058331e-06 -1.719973e-04 1.570285e-04 -1.814172e-05 2.468219e-04 8.879694e-05 9.933844e-05 -6.493014e-07 -1.080773e-04 -1.122952e-04 -1.942444e-04 -2.300684e-05 -3.508921e-04 2.147222e-04 -6.464678e-04 4.000247e-04 -8.392109e-04 2.391126e-04 -7.359997e-04 -4.236572e-04 -7.204711e-04 -8.372059e-04 -1.047934e-03 -1.755467e-04 -1.065227e-03 6.022615e-04 -6.972228e-04 7.349967e-04 -3.357995e-04 4.769812e-04 -1.264297e-04 2.147469e-04 -2.785497e-05 7.308080e-05 1.709814e-05 2.709750e-05 4.083209e-05 
-5.072443e-05 -1.308823e-06 3.414074e-06 3.887782e-05 5.053854e-05 7.213700e-05 8.707186e-05 9.603271e-05 1.101854e-04 1.088291e-04 1.227496e-04 1.165182e-04 1.348446e-04 1.280731e-04 1.517496e-04 1.414948e-04 1.642734e-04 1.460850e-04 1.620462e-04 1.412606e-04 1.466939e-04 1.399722e-04 1.121894e-04 1.420264e-04 2.939046e-05 1.366525e-04 -1.043910e-04 1.503979e-04 -2.084527e-04 2.125094e-04 -2.164418e-04 1.809052e-04 -2.303954e-04 -1.291746e-04 -3.735841e-04 -3.732654e-04 -4.352576e-04 -3.393919e-04 -1.713710e-04 -4.994883e-04 2.652275e-04 -1.081531e-03 4.116967e-04 -1.884720e-03 -3.599735e-04 -2.377900e-03 -1.933780e-03 -2.329199e-03 -2.146951e-03 -2.124289e-03 -2.123414e-04 -1.632138e-03 1.148353e-03 -1.061155e-03 9.853400e-04 -6.712525e-04 3.741305e-04 -4.176962e-04 -4.274506e-06 -2.436501e-04 -1.180707e-04 -1.275621e-04 -1.029177e-04 -5.258822e-05 
2.742966e-05 8.026074e-05 8.031073e-05 1.214357e-04 1.444819e-04 1.818382e-04 2.219948e-04 2.605428e-04 3.105737e-04 3.488854e-04 3.990602e-04 4.278744e-04 4.626719e-04 4.611665e-04 4.579261e-04 4.019937e-04 3.516380e-04 2.477857e-04 1.810504e-04 7.654302e-05 4.022198e-05 -1.251459e-05 -2.428636e-05 6.311564e-06 -6.758466e-05 9.221704e-05 -1.583237e-04 2.278918e-04 -2.703360e-04 3.491925e-04 -4.028330e-04 9.662778e-05 -6.984868e-04 -7.244779e-04 -1.143783e-03 -1.087696e-03 -1.226839e-03 -6.715103e-04 -6.657085e-04 -8.200430e-04 -4.072871e-05 -2.203029e-03 -1.358398e-04 -4.503116e-03 -1.844606e-03 -6.311341e-03 -5.478681e-03 -7.140938e-03 -7.247287e-03 -7.026498e-03 -2.394315e-03 -4.209397e-03 1.607422e-03 -1.580102e-03 1.804472e-03 -4.630549e-04 8.524925e-04 -1.174280e-04 2.328438e-04 -1.185044e-05 1.674706e-05 2.845457e-05 -8.299566e-06 5.289080e-05 
-5.042456e-05 2.044421e-05 5.532688e-05 1.136723e-04 1.847245e-04 2.620531e-04 3.802253e-04 4.972757e-04 6.637958e-04 8.143870e-04 1.000699e-03 1.136794e-03 1.272558e-03 1.305209e-03 1.299804e-03 1.156147e-03 9.917932e-04 7.253015e-04 5.261406e-04 3.057229e-04 2.409092e-04 2.050461e-04 2.966814e-04 4.557282e-04 4.933859e-04 7.653594e-04 3.714235e-04 6.737682e-04 -5.327000e-04 -2.498556e-04 -2.337421e-03 -2.055187e-03 -3.982873e-03 -3.637362e-03 -4.096331e-03 -3.160761e-03 -3.144381e-03 -1.577713e-03 -1.745506e-03 -1.606924e-03 -8.067703e-04 -4.525270e-03 -2.351379e-03 -1.137097e-02 -8.954379e-03 -1.915302e-02 -1.877886e-02 -2.117321e-02 -1.948099e-02 -1.620595e-02 -4.654469e-03 -6.636414e-03 3.856324e-03 -1.888880e-03 2.744268e-03 -9.100780e-04 5.985083e-04 -6.062560e-04 -2.124162e-04 -3.506522e-04 -2.834182e-04 -1.692788e-04 -1.680559e-04 -5.910581e-05 
4.691587e-05 1.107107e-04 1.749774e-04 2.592786e-04 4.104769e-04 5.863773e-04 8.697394e-04 1.192336e-03 1.624496e-03 2.073772e-03 2.569982e-03 2.995378e-03 3.335507e-03 3.463060e-03 3.367426e-03 2.975093e-03 2.393754e-03 1.642539e-03 9.582714e-04 3.359029e-04 4.089391e-05 -1.016591e-04 1.115063e-04 4.086054e-04 6.980256e-04 1.053630e-03 4.558863e-04 3.099336e-04 -2.419682e-03 -3.446687e-03 -8.542660e-03 -9.607811e-03 -1.349140e-02 -1.258957e-02 -1.161999e-02 -8.356134e-03 -7.246554e-03 -3.092239e-03 -3.820291e-03 -2.975527e-03 -3.519583e-03 -1.076641e-02 -1.071318e-02 -3.022312e-02 -2.830029e-02 -5.117346e-02 -4.757317e-02 -5.524845e-02 -5.409488e-02 -4.346538e-02 -1.157756e-02 -1.033021e-02 1.165716e-02 1.942537e-03 7.575081e-03 1.505567e-03 2.136046e-03 3.606228e-04 2.015858e-04 3.602483e-05 -1.188345e-04 1.243251e-05 -5.628418e-05 4.576664e-05 