# vtk DataFile Version 2.0
Comment goes here
ASCII

DATASET STRUCTURED_POINTS
DIMENSIONS    64   64   1

ORIGIN    0.000   0.000   0.000
SPACING   0.0156250.015625   1.000

POINT_DATA   4096
SCALARS Omega double
LOOKUP_TABLE default

-1.029770e-05 -7.604887e-05 -2.123060e-04 -3.683681e-04 -6.012997e-04 -8.760230e-04 -1.086520e-03 -1.252493e-03 -9.172811e-04 -3.489905e-04 1.104840e-03 2.346187e-03 3.388739e-03 2.894262e-03 1.078782e-03 -2.560062e-04 -9.594943e-04 -8.560412e-04 -7.129587e-05 1.960322e-04 4.856673e-04 6.908330e-04 -2.918908e-04 -3.307689e-04 -1.565690e-03 -1.254993e-03 -1.062723e-03 -2.030135e-04 2.613226e-03 2.582125e-03 4.660020e-03 2.484949e-03 1.017983e-04 -2.004776e-03 -1.089863e-03 4.933091e-05 1.066505e-03 1.774646e-03 9.537409e-04 1.278966e-03 3.377093e-04 1.014393e-04 2.164892e-04 -1.509673e-03 3.369575e-04 4.968287e-04 3.953887e-03 4.302195e-03 4.706153e-03 -1.438382e-03 -6.812659e-04 -3.886644e-03 -4.608815e-04 -1.353390e-03 7.871213e-04 3.388582e-04 9.964543e-04 6.004847e-04 6.565942e-04 3.895950e-04 3.223400e-04 1.913540e-04 1.244577e-04 6.631241e-05 
-8.002532e-05 -1.366502e-04 -2.527238e-04 -3.865108e-04 -5.590328e-04 -7.427791e-04 -8.619976e-04 -9.021027e-04 -6.435755e-04 -2.173686e-04 6.091156e-04 1.242077e-03 1.685381e-03 1.225853e-03 1.999561e-04 -8.138981e-04 -1.617026e-03 -1.318117e-03 -1.312752e-03 -5.008394e-04 -3.827047e-04 2.386874e-04 -9.845519e-05 3.237178e-04 -2.619699e-05 4.413605e-04 1.002434e-03 1.088901e-03 2.713698e-03 1.443200e-03 2.203119e-03 2.000904e-04 -7.245221e-04 -1.489866e-03 -1.133577e-03 -1.985896e-04 1.739125e-04 7.285307e-04 5.256894e-04 7.193882e-04 4.143834e-04 2.130845e-04 2.175512e-05 -6.667924e-04 -2.492653e-04 6.011748e-04 1.866697e-03 2.606951e-03 2.911359e-03 -2.260500e-04 4.937749e-04 -2.534488e-03 -3.307094e-04 -1.925164e-03 -1.722648e-04 -6.963262e-04 2.890660e-05 -6.820890e-05 6.959022e-05 8.274347e-05 4.122561e-05 6.223657e-05 -1.919563e-06 -6.735910e-06 
-2.409129e-06 -7.290678e-05 -1.338263e-04 -2.241087e-04 -2.865719e-04 -3.726432e-04 -3.490665e-04 -3.232371e-04 -6.220884e-05 1.887974e-04 6.597822e-04 9.221169e-04 1.046606e-03 7.876633e-04 2.169406e-04 -2.545780e-04 -5.780484e-04 -6.114674e-04 -4.340873e-04 -2.581218e-04 -1.957454e-04 4.227561e-06 -3.094309e-04 -1.267508e-04 -4.866327e-04 -2.310371e-04 -1.091655e-04 1.119304e-04 8.016493e-04 5.439968e-04 9.164999e-04 6.254158e-05 -2.199903e-04 -7.760752e-04 -4.731943e-04 -2.421756e-04 1.252397e-04 4.133422e-04 3.239339e-04 3.939832e-04 1.945879e-04 -5.133514e-05 1.331312e-05 -4.469339e-04 -3.111282e-05 6.394204e-05 5.281730e-04 4.594426e-04 6.060231e-04 -6.821793e-04 -1.177198e-04 -1.283678e-03 -1.256167e-04 -7.332506e-04 2.402594e-04 -7.428856e-05 4.190625e-04 1.996137e-04 3.655395e-04 2.062721e-04 2.330869e-04 1.285821e-04 1.096235e-04 3.777718e-05 
-8.894961e-05 -1.282239e-04 -1.828077e-04 -2.420727e-04 -2.897560e-04 -3.349579e-04 -3.116444e-04 -2.666988e-04 -8.586618e-05 9.170131e-05 3.831558e-04 5.208236e-04 5.957427e-04 3.946527e-04 5.348843e-05 -2.846302e-04 -6.287731e-04 -6.027495e-04 -7.025282e-04 -3.966243e-04 -4.110090e-04 -6.376954e-05 -1.433015e-04 1.503601e-04 1.325914e-04 3.364411e-04 6.138293e-04 5.386202e-04 1.037655e-03 4.802611e-04 7.099889e-04 -4.993959e-05 -1.594197e-04 -5.034423e-04 -4.103222e-04 -2.397554e-04 -8.541376e-05 1.115537e-04 1.304273e-04 1.688412e-04 1.112395e-04 -4.898321e-07 -4.111351e-05 -1.103989e-04 -2.473534e-05 3.440475e-04 5.271475e-04 7.052298e-04 8.338250e-04 3.539984e-06 3.877023e-04 -7.723108e-04 2.641042e-05 -8.163849e-04 -4.349339e-05 -4.607099e-04 -5.894673e-06 -1.611149e-04 1.497439e-05 -2.924669e-05 4.038025e-06 -9.263889e-06 -2.940678e-05 -4.772525e-05 
8.866323e-06 -4.303674e-05 -6.180947e-05 -1.082374e-04 -1.124957e-04 -1.359459e-04 -8.724232e-05 -5.351979e-05 7.768200e-05 1.722473e-04 3.274102e-04 3.843263e-04 3.935136e-04 2.878488e-04 1.033735e-04 -7.288095e-05 -2.153690e-04 -2.725167e-04 -2.734556e-04 -2.116148e-04 -2.164859e-04 -9.738813e-05 -1.957264e-04 -5.568801e-05 -1.529230e-04 -8.144457e-06 4.666931e-05 1.180410e-04 3.132327e-04 1.803578e-04 2.972950e-04 -1.924652e-05 -2.237431e-05 -2.548784e-04 -1.512521e-04 -1.558298e-04 -1.344058e-05 4.861350e-05 9.353371e-05 8.198763e-05 8.524864e-05 -3.183365e-05 2.582480e-05 -9.894530e-05 1.522844e-05 4.076413e-05 1.211329e-04 7.371531e-05 1.295765e-04 -2.413087e-04 -1.367003e-05 -4.650862e-04 -2.419492e-05 -3.504633e-04 9.441853e-05 -1.107039e-04 1.872221e-04 4.643457e-05 1.949488e-04 9.114023e-05 1.467809e-04 7.005929e-05 7.979339e-05 2.053885e-05 
-7.198260e-05 -9.478130e-05 -1.140159e-04 -1.356342e-04 -1.402157e-04 -1.434426e-04 -1.062077e-04 -6.932804e-05 2.462818e-05 9.313527e-05 1.991853e-04 2.271329e-04 2.375173e-04 1.536512e-04 2.636509e-05 -9.676152e-05 -2.485018e-04 -2.599998e-04 -3.410474e-04 -2.257030e-04 -2.532236e-04 -8.470283e-05 -9.386073e-05 6.050848e-05 1.009642e-04 1.843776e-04 3.221170e-04 2.579569e-04 4.452632e-04 1.976358e-04 3.049675e-04 -9.121180e-06 8.588079e-06 -1.761870e-04 -1.301661e-04 -1.398050e-04 -6.727530e-05 -2.806319e-05 1.539335e-05 1.506316e-05 2.494723e-05 -5.686285e-06 -5.490770e-06 2.275225e-05 3.824705e-05 1.839541e-04 2.127451e-04 2.581541e-04 3.160793e-04 3.406687e-05 2.140853e-04 -2.576128e-04 7.551370e-05 -3.477966e-04 1.036717e-05 -2.606073e-04 -9.588824e-07 -1.396943e-04 -2.336312e-06 -6.420659e-05 -1.303546e-05 -4.186596e-05 -3.638831e-05 -5.714736e-05 
1.474247e-05 -1.890388e-05 -1.962910e-05 -4.315760e-05 -3.384806e-05 -3.978238e-05 -6.176504e-06 1.275420e-05 7.177594e-05 1.050239e-04 1.579742e-04 1.665355e-04 1.619369e-04 1.136642e-04 4.743763e-05 -2.672000e-05 -8.858564e-05 -1.256943e-04 -1.467097e-04 -1.273985e-04 -1.391353e-04 -7.901156e-05 -1.083878e-04 -2.974994e-05 -5.222900e-05 2.010269e-05 4.432153e-05 6.962000e-05 1.320097e-04 7.091034e-05 1.178493e-04 -1.003301e-05 1.456593e-05 -9.510320e-05 -4.519066e-05 -8.612598e-05 -1.786012e-05 -2.658778e-05 2.480506e-05 -1.690236e-06 3.563160e-05 -1.779892e-05 2.268038e-05 -2.016646e-05 1.812559e-05 1.540711e-05 3.436167e-05 1.991559e-06 2.883637e-05 -1.042964e-04 -4.083948e-06 -1.897275e-04 -1.485818e-06 -1.669881e-04 4.465175e-05 -7.901460e-05 8.980070e-05 -1.277750e-06 1.037133e-04 3.447743e-05 8.726990e-05 3.369259e-05 5.375132e-05 1.151329e-05 
-5.094344e-05 -6.387219e-05 -6.661450e-05 -7.294794e-05 -6.617671e-05 -6.013374e-05 -3.356029e-05 -1.172321e-05 3.358525e-05 6.025652e-05 1.004805e-04 1.041071e-04 1.023776e-04 6.554078e-05 1.216080e-05 -3.703105e-05 -1.058948e-04 -1.159454e-04 -1.622359e-04 -1.175840e-04 -1.340984e-04 -5.819970e-05 -5.015628e-05 2.103940e-05 5.942652e-05 8.983805e-05 1.630204e-04 1.211702e-04 2.062470e-04 8.889424e-05 1.482390e-04 3.901497e-06 3.469337e-05 -6.812730e-05 -3.619795e-05 -7.478034e-05 -3.514845e-05 -4.196254e-05 -9.537899e-06 -1.577351e-05 1.965004e-06 -3.378949e-07 6.129071e-06 3.459500e-05 3.700919e-05 9.440773e-05 1.005226e-04 1.079582e-04 1.389317e-04 2.342672e-05 1.130009e-04 -9.433610e-05 6.022254e-05 -1.538706e-04 2.190372e-05 -1.414119e-04 3.813779e-06 -9.845169e-05 -5.861201e-06 -6.257125e-05 -1.675070e-05 -4.744144e-05 -3.221032e-05 -5.084862e-05 
1.566744e-05 -5.176454e-06 -1.597149e-08 -1.250626e-05 -2.989889e-06 -4.961526e-06 1.401690e-05 2.228366e-05 4.807359e-05 5.852378e-05 7.737007e-05 7.465958e-05 7.053135e-05 4.575078e-05 1.987044e-05 -1.493820e-05 -4.176738e-05 -6.299368e-05 -7.685886e-05 -7.204441e-05 -7.863948e-05 -5.089114e-05 -5.780505e-05 -1.881682e-05 -2.061314e-05 1.331034e-05 2.610955e-05 3.534813e-05 5.939300e-05 3.092514e-05 5.314848e-05 -3.400384e-06 1.619477e-05 -3.924013e-05 -1.060902e-05 -4.555281e-05 -7.857119e-06 -2.928631e-05 7.379348e-06 -1.557946e-05 1.579789e-05 -1.121900e-05 1.464600e-05 -5.308820e-06 1.183529e-05 2.603012e-06 1.087987e-05 -1.104720e-05 5.026986e-06 -5.236765e-05 -3.312356e-06 -8.644164e-05 1.838688e-06 -8.259520e-05 2.294280e-05 -4.884221e-05 4.546654e-05 -1.189006e-05 5.582459e-05 1.040014e-05 5.092693e-05 1.498517e-05 3.523323e-05 7.122472e-06 
-3.367124e-05 -4.153343e-05 -3.792221e-05 -3.921842e-05 -3.122193e-05 -2.520988e-05 -9.009769e-06 2.928595e-06 2.456871e-05 3.541201e-05 5.133054e-05 5.026882e-05 4.722385e-05 3.012067e-05 5.989507e-06 -1.545376e-05 -4.718805e-05 -5.360331e-05 -7.653697e-05 -5.970658e-05 -6.626515e-05 -3.445088e-05 -2.375935e-05 5.513065e-06 3.343800e-05 4.130407e-05 8.330084e-05 5.647441e-05 1.016295e-04 4.164878e-05 7.734588e-05 4.770040e-06 2.956696e-05 -2.903888e-05 -6.853142e-06 -3.971911e-05 -1.663045e-05 -3.077121e-05 -1.081003e-05 -1.589812e-05 -3.088094e-06 8.977624e-07 6.274601e-06 2.413766e-05 2.524278e-05 4.830331e-05 5.196788e-05 4.932836e-05 6.811664e-05 1.360193e-05 6.108783e-05 -3.765033e-05 3.987695e-05 -7.158004e-05 1.918081e-05 -7.683958e-05 4.741083e-06 -6.429954e-05 -5.433122e-06 -4.941445e-05 -1.473556e-05 -4.090303e-05 -2.458097e-05 -3.969315e-05 
1.402131e-05 1.235896e-06 7.241560e-06 6.780599e-08 7.138381e-06 5.699260e-06 1.580985e-05 1.847191e-05 2.981749e-05 3.190960e-05 3.895115e-05 3.426766e-05 3.189782e-05 1.791979e-05 7.363945e-06 -1.063608e-05 -2.203071e-05 -3.430847e-05 -4.085952e-05 -4.097412e-05 -4.302014e-05 -3.130045e-05 -3.095449e-05 -1.316867e-05 -9.725450e-06 5.269053e-06 1.354663e-05 1.646159e-05 2.828613e-05 1.416757e-05 2.646697e-05 -6.700794e-07 1.250421e-05 -1.694131e-05 5.424102e-07 -2.319679e-05 -1.062796e-06 -1.932673e-05 3.922731e-06 -1.266624e-05 8.201632e-06 -7.374870e-06 8.734109e-06 -3.190274e-06 6.739848e-06 -2.369830e-06 3.619459e-06 -1.123674e-05 -4.525901e-07 -2.907908e-05 -2.871419e-06 -4.348285e-05 1.148429e-06 -4.315368e-05 1.186562e-05 -2.926119e-05 2.369119e-05 -1.148366e-05 3.048338e-05 1.499208e-06 2.979485e-05 6.498576e-06 2.307413e-05 5.047352e-06 
-2.144726e-05 -2.674845e-05 -2.147143e-05 -2.163581e-05 -1.495207e-05 -1.085402e-05 -1.285940e-06 5.054543e-06 1.565166e-05 2.026888e-05 2.692224e-05 2.544467e-05 2.325219e-05 1.482411e-05 3.608163e-06 -6.654154e-06 -2.111071e-05 -2.542684e-05 -3.553088e-05 -3.015655e-05 -3.107927e-05 -1.931193e-05 -9.703746e-06 1.955586e-07 1.941392e-05 1.832343e-05 4.395532e-05 2.618936e-05 5.273597e-05 1.977807e-05 4.218481e-05 3.096365e-06 2.041018e-05 -1.351048e-05 1.165258e-06 -2.128206e-05 -7.712693e-06 -1.921869e-05 -7.777891e-06 -1.113359e-05 -3.428291e-06 3.224001e-07 4.037711e-06 1.382487e-05 1.539180e-05 2.458684e-05 2.827232e-05 2.377871e-05 3.603486e-05 7.586338e-06 3.416881e-05 -1.621279e-05 2.496100e-05 -3.502948e-05 1.375189e-05 -4.246173e-05 3.875055e-06 -4.069673e-05 -4.222330e-06 -3.550479e-05 -1.122321e-05 -3.120918e-05 -1.730629e-05 -2.887137e-05 
1.160422e-05 3.746212e-06 8.882771e-06 4.420922e-06 9.222532e-06 7.715886e-06 1.309086e-05 1.314187e-05 1.828893e-05 1.740482e-05 2.023431e-05 1.584068e-05 1.475206e-05 6.212273e-06 1.984281e-06 -8.183911e-06 -1.267708e-05 -2.016287e-05 -2.245493e-05 -2.412548e-05 -2.376210e-05 -1.950516e-05 -1.709771e-05 -9.702169e-06 -5.497515e-06 5.614540e-07 6.545963e-06 6.864974e-06 1.405384e-05 6.476988e-06 1.420790e-05 2.682117e-07 9.016411e-06 -7.171793e-06 3.822622e-06 -1.112752e-05 2.254107e-06 -1.059719e-05 3.668302e-06 -7.722019e-06 5.343249e-06 -4.712613e-06 5.443379e-06 -2.875912e-06 3.806090e-06 -3.824389e-06 1.110051e-06 -9.174076e-06 -1.600479e-06 -1.756254e-05 -2.568667e-06 -2.401179e-05 -4.978600e-08 -2.408514e-05 5.749297e-06 -1.777430e-05 1.235228e-05 -8.770003e-06 1.683986e-05 -1.131417e-06 1.770072e-05 3.063613e-06 1.534699e-05 4.076517e-06 
-1.333233e-05 -1.721160e-05 -1.215739e-05 -1.239165e-05 -7.289990e-06 -4.977750e-06 7.896729e-07 4.022237e-06 9.497922e-06 1.145739e-05 1.451659e-05 1.331371e-05 1.216598e-05 7.688923e-06 2.635548e-06 -2.825744e-06 -9.015234e-06 -1.221681e-05 -1.583829e-05 -1.518590e-05 -1.353835e-05 -1.049902e-05 -2.700141e-06 -1.109590e-06 1.203703e-05 7.961037e-06 2.427006e-05 1.214261e-05 2.865573e-05 9.468452e-06 2.376619e-05 1.715846e-06 1.311660e-05 -6.637673e-06 2.617911e-06 -1.146278e-05 -3.628113e-06 -1.136806e-05 -5.032723e-06 -7.258799e-06 -2.814869e-06 -6.194111e-07 2.048625e-06 6.801432e-06 8.826587e-06 1.206746e-05 1.574922e-05 1.158037e-05 1.998639e-05 4.083039e-06 1.966790e-05 -7.425493e-06 1.535961e-05 -1.785400e-05 9.110418e-06 -2.386162e-05 2.697503e-06 -2.535945e-05 -3.061106e-06 -2.421301e-05 -7.920528e-06 -2.224514e-05 -1.157932e-05 -2.010634e-05 
9.366165e-06 4.550749e-06 8.449610e-06 5.512552e-06 8.655912e-06 7.118326e-06 1.002058e-05 8.953456e-06 1.139199e-05 9.528666e-06 1.081170e-05 7.099402e-06 6.788754e-06 1.175345e-06 -2.748565e-07 -6.498696e-06 -7.886826e-06 -1.271744e-05 -1.295070e-05 -1.490293e-05 -1.361661e-05 -1.260087e-05 -9.985042e-06 -7.355156e-06 -3.697041e-06 -1.647038e-06 2.793043e-06 2.166234e-06 7.098106e-06 2.762188e-06 8.064237e-06 5.360979e-07 6.522062e-06 -2.610395e-06 4.558877e-06 -4.661313e-06 3.719615e-06 -4.892853e-06 3.978480e-06 -3.926797e-06 4.309506e-06 -2.830165e-06 3.808584e-06 -2.561695e-06 2.261401e-06 -3.940469e-06 8.634421e-08 -7.275972e-06 -1.864460e-06 -1.156846e-05 -2.513201e-06 -1.462301e-05 -1.086207e-06 -1.457220e-05 2.216094e-06 -1.129037e-05 6.185360e-06 -6.286294e-06 9.343622e-06 -1.485833e-06 1.078145e-05 1.880769e-06 1.052148e-05 3.663105e-06 
-8.002883e-06 -1.097401e-05 -6.730448e-06 -7.268358e-06 -3.478901e-06 -2.473627e-06 1.143988e-06 2.579932e-06 5.622514e-06 6.278693e-06 7.920799e-06 6.928669e-06 6.595373e-06 3.972922e-06 2.026062e-06 -1.209933e-06 -3.356282e-06 -5.858085e-06 -6.358770e-06 -7.508555e-06 -4.949570e-06 -5.459808e-06 6.202223e-07 -9.989287e-07 8.041712e-06 3.470074e-06 1.411255e-05 5.693842e-06 1.625540e-05 4.660753e-06 1.380480e-05 1.072822e-06 8.302840e-06 -3.138032e-06 2.424602e-06 -6.014285e-06 -1.666676e-06 -6.566552e-06 -3.155612e-06 -4.852460e-06 -2.219447e-06 -1.530182e-06 6.257206e-07 2.321527e-06 4.651529e-06 5.128305e-06 8.690887e-06 5.236775e-06 1.130821e-05 2.005603e-06 1.154092e-05 -3.516797e-06 9.445683e-06 -9.251916e-06 5.860623e-06 -1.346892e-05 1.769531e-06 -1.558103e-05 -2.099292e-06 -1.593853e-05 -5.279073e-06 -1.514399e-05 -7.387211e-06 -1.351800e-05 
7.710108e-06 4.841183e-06 7.602212e-06 5.620287e-06 7.590037e-06 6.107078e-06 7.640993e-06 6.111539e-06 7.274814e-06 5.119062e-06 5.791839e-06 2.658333e-06 2.796529e-06 -1.159123e-06 -1.313878e-06 -5.378503e-06 -5.353161e-06 -8.575792e-06 -7.942611e-06 -9.659246e-06 -8.246141e-06 -8.454546e-06 -6.313332e-06 -5.688332e-06 -2.949926e-06 -2.545572e-06 6.565536e-07 -1.504574e-07 3.407444e-06 8.597598e-07 4.766186e-06 5.688280e-07 4.969765e-06 -3.491160e-07 4.718726e-06 -1.134382e-06 4.545287e-06 -1.443816e-06 4.441609e-06 -1.442500e-06 4.032222e-06 -1.552840e-06 2.996520e-06 -2.208661e-06 1.344454e-06 -3.705487e-06 -5.590186e-07 -5.986666e-06 -2.114242e-06 -8.425130e-06 -2.689463e-06 -9.978788e-06 -1.910394e-06 -9.798171e-06 9.088999e-08 -7.782750e-06 2.697852e-06 -4.595123e-06 5.126591e-06 -1.202909e-06 6.806212e-06 1.632019e-06 7.586987e-06 3.608475e-06 
-4.329642e-06 -6.656554e-06 -3.247809e-06 -4.059094e-06 -1.263180e-06 -1.183977e-06 1.143019e-06 1.423150e-06 3.199921e-06 3.052957e-06 4.080707e-06 3.132855e-06 3.346423e-06 1.638544e-06 1.344859e-06 -7.085461e-07 -8.034019e-07 -2.723962e-06 -1.755477e-06 -3.405249e-06 -7.059374e-07 -2.479525e-06 2.156194e-06 -4.916086e-07 5.741143e-06 1.546384e-06 8.587775e-06 2.677382e-06 9.547035e-06 2.431478e-06 8.307289e-06 9.939721e-07 5.484984e-06 -9.604922e-07 2.219497e-06 -2.657128e-06 -4.277817e-07 -3.557813e-06 -1.835618e-06 -3.450800e-06 -1.812908e-06 -2.393469e-06 -4.629925e-07 -7.232896e-07 1.832162e-06 8.832247e-07 4.369277e-06 1.561964e-06 6.265525e-06 7.139713e-07 6.830472e-06 -1.581927e-06 5.890353e-06 -4.602367e-06 3.798543e-06 -7.422500e-06 1.183090e-06 -9.367292e-06 -1.331500e-06 -1.017421e-05 -3.270946e-06 -9.885696e-06 -4.327419e-06 -8.659617e-06 
6.791857e-06 5.263138e-06 7.102038e-06 5.782792e-06 6.873673e-06 5.453092e-06 6.093348e-06 4.299880e-06 4.719001e-06 2.404054e-06 2.757755e-06 -2.444965e-08 3.756255e-07 -2.593154e-06 -2.054654e-06 -4.781655e-06 -4.041801e-06 -6.122648e-06 -5.166902e-06 -6.403742e-06 -5.245716e-06 -5.737601e-06 -4.359978e-06 -4.457209e-06 -2.776822e-06 -2.941019e-06 -8.399129e-07 -1.494835e-06 1.120746e-06 -3.190647e-07 2.856020e-06 4.858927e-07 4.223374e-06 9.042317e-07 5.142625e-06 9.682589e-07 5.515578e-06 7.096590e-07 5.210303e-06 1.358823e-07 4.157821e-06 -7.633874e-07 2.476380e-06 -2.002556e-06 4.982722e-07 -3.564505e-06 -1.331825e-06 -5.310688e-06 -2.604168e-06 -6.891111e-06 -3.044683e-06 -7.794397e-06 -2.558185e-06 -7.580181e-06 -1.244426e-06 -6.132834e-06 6.201817e-07 -3.733404e-06 2.659082e-06 -9.151598e-07 4.510906e-06 1.766026e-06 5.925164e-06 3.898927e-06 
-1.452414e-06 -3.286097e-06 -5.015236e-07 -1.527008e-06 5.283301e-07 -1.218397e-07 1.295870e-06 6.524000e-07 1.580405e-06 7.364714e-07 1.361388e-06 2.964850e-07 8.339348e-07 -3.512442e-07 3.354334e-07 -8.765744e-07 2.066010e-07 -1.067586e-06 6.506631e-07 -8.913852e-07 1.652202e-06 -4.604896e-07 2.983479e-06 6.311788e-08 4.292579e-06 5.588952e-07 5.232195e-06 9.678657e-07 5.563511e-06 1.234101e-06 5.193510e-06 1.242407e-06 4.164580e-06 8.425102e-07 2.642744e-06 -3.751636e-08 9.149933e-07 -1.276837e-06 -6.303879e-07 -2.530473e-06 -1.564705e-06 -3.317991e-06 -1.540746e-06 -3.244769e-06 -4.746805e-07 -2.293352e-06 1.299103e-06 -9.761814e-07 3.069724e-06 -1.256700e-07 4.066323e-06 -3.830135e-07 3.870020e-06 -1.778677e-06 2.614581e-06 -3.739725e-06 8.522186e-07 -5.463219e-06 -7.661029e-07 -6.330724e-06 -1.765975e-06 -6.117423e-06 -1.965216e-06 -4.973367e-06 
6.717444e-06 6.270982e-06 7.393002e-06 6.596450e-06 6.943026e-06 5.499445e-06 5.359607e-06 3.204676e-06 2.959146e-06 3.099940e-07 3.467839e-07 -2.368076e-06 -1.799946e-06 -4.130772e-06 -3.051961e-06 -4.732234e-06 -3.433248e-06 -4.462951e-06 -3.332717e-06 -3.905679e-06 -3.184083e-06 -3.542272e-06 -3.155053e-06 -3.468373e-06 -3.038634e-06 -3.370841e-06 -2.391660e-06 -2.783416e-06 -8.526227e-07 -1.480916e-06 1.533461e-06 2.684584e-07 4.216246e-06 1.822885e-06 6.369393e-06 2.575485e-06 7.279084e-06 2.296911e-06 6.632329e-06 1.166156e-06 4.616021e-06 -4.350695e-07 1.860003e-06 -2.149202e-06 -7.869796e-07 -3.761959e-06 -2.634072e-06 -5.187771e-06 -3.459836e-06 -6.346898e-06 -3.475935e-06 -7.036751e-06 -2.983734e-06 -6.945171e-06 -2.094651e-06 -5.828971e-06 -7.552989e-07 -3.703834e-06 1.046252e-06 -8.908066e-07 3.136999e-06 2.085336e-06 5.168778e-06 4.644923e-06 
1.310420e-06 -7.135189e-08 2.414827e-06 1.228964e-06 2.716215e-06 1.354812e-06 1.919851e-06 2.623484e-07 2.991241e-07 -1.431904e-06 -1.336398e-06 -2.718625e-06 -2.043172e-06 -2.793136e-06 -1.340332e-06 -1.604673e-06 4.457803e-07 1.038314e-07 2.405184e-06 1.325045e-06 3.652662e-06 1.452252e-06 3.832148e-06 6.182559e-07 3.240385e-06 -4.209463e-07 2.594064e-06 -7.571554e-07 2.558359e-06 5.768738e-08 3.251238e-06 1.627641e-06 4.092365e-06 2.907429e-06 4.209686e-06 2.884547e-06 3.093107e-06 1.208549e-06 9.474723e-07 -1.628027e-06 -1.426102e-06 -4.496365e-06 -3.012305e-06 -6.082889e-06 -3.052060e-06 -5.566165e-06 -1.500580e-06 -3.259400e-06 8.100643e-07 -5.898988e-07 2.611679e-06 8.410424e-07 3.028382e-06 3.751921e-07 2.099650e-06 -1.393395e-06 6.067978e-07 -3.221365e-06 -5.208563e-07 -4.057409e-06 -7.164038e-07 -3.525114e-06 4.051118e-08 -1.942789e-06 
7.671813e-06 8.380808e-06 8.958064e-06 8.679708e-06 8.289405e-06 6.639837e-06 5.562502e-06 2.660541e-06 1.485812e-06 -1.987483e-06 -2.499879e-06 -5.544814e-06 -4.854237e-06 -6.680919e-06 -4.877370e-06 -5.365673e-06 -3.221743e-06 -2.913947e-06 -1.440489e-06 -1.089960e-06 -9.097402e-07 -9.980493e-07 -1.976150e-06 -2.497640e-06 -3.789841e-06 -4.338082e-06 -4.773751e-06 -4.912769e-06 -3.539549e-06 -3.337178e-06 1.402843e-07 -1.699908e-07 5.010917e-06 2.931583e-06 9.056160e-06 4.429750e-06 1.066061e-05 3.864833e-06 9.280121e-06 1.819300e-06 5.476564e-06 -7.284917e-07 6.895658e-07 -2.969469e-06 -3.249460e-06 -4.539067e-06 -5.045483e-06 -5.563993e-06 -4.783028e-06 -6.410726e-06 -3.691981e-06 -7.197478e-06 -2.905310e-06 -7.536071e-06 -2.541030e-06 -6.810101e-06 -1.922181e-06 -4.680470e-06 -3.961880e-07 -1.347233e-06 2.114772e-06 2.534270e-06 5.090242e-06 6.080680e-06 
4.594149e-06 3.829981e-06 6.459095e-06 5.238636e-06 6.263426e-06 4.055831e-06 3.519513e-06 3.813294e-07 -9.744070e-07 -4.206336e-06 -5.136128e-06 -7.214806e-06 -6.603920e-06 -6.763427e-06 -4.363918e-06 -3.054938e-06 3.369737e-07 1.628411e-06 4.797196e-06 4.543928e-06 6.712096e-06 4.261449e-06 5.469000e-06 1.324690e-06 2.267673e-06 -2.189499e-06 -5.941283e-07 -3.802949e-06 -9.951826e-07 -2.143770e-06 1.555076e-06 1.969569e-06 5.372963e-06 5.959330e-06 7.796206e-06 7.288988e-06 7.130688e-06 4.973110e-06 3.541085e-06 -2.221785e-07 -1.397802e-06 -6.241966e-06 -5.528964e-06 -1.032868e-05 -6.927737e-06 -1.023042e-05 -4.940232e-06 -5.971653e-06 -9.194754e-07 -3.691845e-07 2.527024e-06 3.039090e-06 3.525068e-06 2.774696e-06 2.195866e-06 8.471251e-08 1.372851e-07 -2.594969e-06 -9.637323e-07 -3.442802e-06 -2.983242e-07 -2.023158e-06 1.889943e-06 8.870547e-07 
1.002759e-05 1.238769e-05 1.261677e-05 1.305207e-05 1.185490e-05 9.709383e-06 7.242249e-06 2.783668e-06 -5.952118e-08 -5.396660e-06 -7.095673e-06 -1.117131e-05 -1.042745e-05 -1.166608e-05 -8.518449e-06 -7.050069e-06 -3.155203e-06 -6.306433e-07 1.775835e-06 3.525977e-06 3.073829e-06 3.164949e-06 6.755989e-08 -1.176177e-06 -5.263606e-06 -6.593881e-06 -9.273312e-06 -9.297512e-06 -8.531980e-06 -7.012566e-06 -2.213414e-06 -9.350990e-07 6.909107e-06 5.017446e-06 1.437378e-05 7.465873e-06 1.702643e-05 5.885889e-06 1.415503e-05 1.977224e-06 6.958350e-06 -2.176333e-06 -1.824218e-06 -5.119578e-06 -8.346280e-06 -6.310328e-06 -9.715522e-06 -6.356068e-06 -6.614065e-06 -6.639842e-06 -2.834648e-06 -7.920562e-06 -1.491650e-06 -9.406081e-06 -2.461196e-06 -9.499708e-06 -3.458841e-06 -7.189883e-06 -2.508436e-06 -2.646136e-06 7.976187e-07 3.086797e-06 5.511496e-06 8.597399e-06 
9.123222e-06 9.577924e-06 1.300950e-05 1.216918e-05 1.282850e-05 9.555925e-06 7.280350e-06 1.612012e-06 -2.375777e-06 -8.576086e-06 -1.173816e-05 -1.541134e-05 -1.522349e-05 -1.431910e-05 -1.022945e-05 -5.751770e-06 2.147430e-07 4.719296e-06 9.622285e-06 1.079757e-05 1.292633e-05 9.633485e-06 9.146076e-06 2.608281e-06 1.070922e-06 -5.865811e-06 -6.143924e-06 -1.027106e-05 -7.347137e-06 -7.116303e-06 -1.031959e-06 2.017782e-06 8.694426e-06 1.121283e-05 1.522609e-05 1.496578e-05 1.479912e-05 1.159165e-05 8.132651e-06 2.523202e-06 -1.570070e-06 -9.004881e-06 -1.029865e-05 -1.785699e-05 -1.393214e-05 -1.850018e-05 -1.031861e-05 -9.896330e-06 -2.014066e-06 1.746936e-06 4.930406e-06 8.170739e-06 6.323666e-06 6.582872e-06 2.974573e-06 5.932984e-07 -1.254591e-06 -4.421854e-06 -2.998527e-06 -5.309860e-06 -1.108851e-06 -1.920127e-06 3.588082e-06 3.935996e-06 
1.446425e-05 1.958622e-05 1.988147e-05 2.161404e-05 1.961738e-05 1.662100e-05 1.193110e-05 4.372451e-06 -1.788796e-06 -1.120766e-05 -1.569653e-05 -2.229963e-05 -2.179469e-05 -2.201011e-05 -1.608781e-05 -1.063167e-05 -2.868047e-06 3.911709e-06 8.602457e-06 1.262464e-05 1.143068e-05 1.128271e-05 4.587384e-06 1.271869e-06 -7.871849e-06 -1.153782e-05 -1.840502e-05 -1.882443e-05 -1.901893e-05 -1.480309e-05 -7.148902e-06 -2.011928e-06 1.079847e-05 9.882982e-06 2.464941e-05 1.333294e-05 2.873773e-05 8.736501e-06 2.302529e-05 9.472297e-07 9.662631e-06 -6.022218e-06 -7.146120e-06 -1.000269e-05 -1.934930e-05 -9.975415e-06 -1.929816e-05 -7.315303e-06 -8.700881e-06 -6.040020e-06 1.553591e-06 -8.670046e-06 3.354722e-06 -1.310387e-05 -1.593880e-06 -1.513009e-05 -6.538758e-06 -1.241064e-05 -6.779566e-06 -5.468233e-06 -1.818859e-06 3.677424e-06 6.229882e-06 1.278030e-05 
1.581374e-05 1.896172e-05 2.432052e-05 2.507503e-05 2.568229e-05 2.131927e-05 1.616006e-05 5.940789e-06 -3.374021e-06 -1.593396e-05 -2.423873e-05 -3.183408e-05 -3.298206e-05 -2.995204e-05 -2.228640e-05 -1.081104e-05 6.677306e-07 1.186643e-05 2.030684e-05 2.395196e-05 2.615979e-05 2.071115e-05 1.733750e-05 5.521229e-06 -5.760848e-07 -1.338747e-05 -1.742827e-05 -2.445430e-05 -2.109717e-05 -1.858027e-05 -6.617091e-06 1.405806e-06 1.607475e-05 2.116149e-05 3.044702e-05 2.886044e-05 2.919467e-05 2.341657e-05 1.617928e-05 8.290206e-06 -2.078553e-06 -1.303732e-05 -1.953022e-05 -3.225940e-05 -2.790377e-05 -3.524118e-05 -2.025246e-05 -1.629252e-05 -1.355944e-06 9.479165e-06 1.332097e-05 2.097150e-05 1.393758e-05 1.362640e-05 4.397153e-06 -1.228123e-06 -5.338568e-06 -1.129093e-05 -8.637794e-06 -1.175253e-05 -4.473357e-06 -4.121222e-06 4.841712e-06 7.616921e-06 
2.207453e-05 3.192878e-05 3.340539e-05 3.786917e-05 3.566289e-05 3.173765e-05 2.361038e-05 1.018991e-05 -2.839881e-06 -2.125610e-05 -3.265714e-05 -4.545057e-05 -4.634952e-05 -4.435498e-05 -3.241050e-05 -1.786077e-05 -1.448050e-06 1.402473e-05 2.374569e-05 3.139479e-05 2.925487e-05 2.785601e-05 1.488591e-05 6.757158e-06 -1.193236e-05 -2.173893e-05 -3.722220e-05 -3.998860e-05 -4.212377e-05 -3.207858e-05 -1.798045e-05 -2.723545e-06 1.936729e-05 2.233340e-05 4.470111e-05 2.523968e-05 4.940886e-05 1.205282e-05 3.872809e-05 -3.313495e-06 1.553795e-05 -1.466372e-05 -1.761807e-05 -2.055438e-05 -4.417001e-05 -1.781379e-05 -4.071343e-05 -7.704819e-06 -9.664251e-06 -1.794124e-06 1.649495e-05 -8.193832e-06 1.656923e-05 -2.032496e-05 -9.325845e-08 -2.669461e-05 -1.417167e-05 -2.271444e-05 -1.615011e-05 -1.094767e-05 -7.352980e-06 4.178722e-06 7.002969e-06 1.937588e-05 
2.571109e-05 3.461325e-05 4.399111e-05 4.951716e-05 5.138115e-05 4.713566e-05 3.762331e-05 1.943088e-05 -8.742960e-07 -2.769444e-05 -4.849578e-05 -6.643523e-05 -7.164945e-05 -6.415000e-05 -4.818413e-05 -2.009476e-05 3.644095e-06 2.911934e-05 4.415353e-05 5.150867e-05 5.356879e-05 4.323546e-05 3.505368e-05 1.282056e-05 -1.945079e-06 -2.785107e-05 -4.099765e-05 -5.594775e-05 -5.312183e-05 -4.550956e-05 -2.003188e-05 -2.276150e-08 3.337141e-05 4.178358e-05 6.232437e-05 5.332386e-05 5.499223e-05 4.280540e-05 2.912647e-05 2.081593e-05 -2.485811e-06 -1.624579e-05 -3.654144e-05 -6.033883e-05 -5.768775e-05 -7.286171e-05 -4.143971e-05 -2.772455e-05 4.997038e-06 3.420429e-05 3.751009e-05 5.337432e-05 3.197245e-05 2.627007e-05 5.123002e-06 -1.053449e-05 -1.673534e-05 -2.958713e-05 -2.203720e-05 -2.692642e-05 -1.278660e-05 -1.026005e-05 4.923086e-06 1.231453e-05 
3.427302e-05 5.175404e-05 5.727452e-05 6.785032e-05 6.809360e-05 6.493036e-05 5.247952e-05 2.894629e-05 1.622562e-06 -3.707025e-05 -6.639707e-05 -9.539985e-05 -1.019880e-04 -9.476712e-05 -6.886328e-05 -3.169927e-05 4.288034e-06 3.775618e-05 5.720975e-05 6.930167e-05 6.549559e-05 6.090682e-05 3.767595e-05 2.053478e-05 -1.579454e-05 -4.085117e-05 -7.539837e-05 -8.815854e-05 -9.515883e-05 -7.300787e-05 -4.202643e-05 3.054162e-07 4.166049e-05 5.620994e-05 8.497944e-05 4.900719e-05 8.214461e-05 1.144214e-05 6.427615e-05 -1.613000e-05 3.154382e-05 -3.129641e-05 -3.479594e-05 -4.263927e-05 -1.034101e-04 -3.677974e-05 -9.446655e-05 -5.603478e-06 -3.810075e-06 1.471188e-05 6.257349e-05 -3.538508e-06 4.889749e-05 -3.642666e-05 -1.370316e-06 -5.145063e-05 -3.437891e-05 -4.247865e-05 -3.613934e-05 -2.046543e-05 -1.786731e-05 4.547984e-06 7.769760e-06 2.898785e-05 
3.934621e-05 5.945925e-05 7.682564e-05 9.472495e-05 1.025309e-04 1.043335e-04 9.056221e-05 6.029772e-05 1.770486e-05 -4.190624e-05 -9.485823e-05 -1.421455e-04 -1.604268e-04 -1.431250e-04 -1.058074e-04 -3.463420e-05 1.716000e-05 7.304939e-05 9.732125e-05 1.066216e-04 1.063178e-04 8.570353e-05 7.180311e-05 3.237100e-05 3.257191e-06 -5.171395e-05 -8.812985e-05 -1.274379e-04 -1.317756e-04 -1.124125e-04 -5.408334e-05 1.545652e-07 7.937257e-05 8.999161e-05 1.318918e-04 9.170768e-05 9.553762e-05 6.573778e-05 4.473918e-05 4.861796e-05 1.661850e-06 -4.180732e-06 -6.246225e-05 -1.130685e-04 -1.254803e-04 -1.672658e-04 -9.464589e-05 -5.031084e-05 3.032681e-05 1.126970e-04 1.055234e-04 1.357354e-04 7.136192e-05 4.357094e-05 -2.415150e-06 -4.422475e-05 -4.734271e-05 -7.360789e-05 -5.092327e-05 -5.748561e-05 -2.935390e-05 -2.221726e-05 2.668769e-06 1.818090e-05 
5.188395e-05 7.994695e-05 9.597685e-05 1.203712e-04 1.317052e-04 1.379538e-04 1.244882e-04 8.747729e-05 3.170679e-05 -5.346311e-05 -1.313508e-04 -2.070713e-04 -2.352511e-04 -2.152327e-04 -1.531919e-04 -5.373608e-05 2.724183e-05 9.673938e-05 1.300337e-04 1.395751e-04 1.310733e-04 1.209224e-04 8.530149e-05 5.816599e-05 -6.526951e-06 -6.824982e-05 -1.479528e-04 -2.010411e-04 -2.247879e-04 -1.805340e-04 -9.782631e-05 2.092992e-05 1.111676e-04 1.543847e-04 1.696465e-04 9.169060e-05 1.174974e-04 -1.544905e-05 9.519582e-05 -5.070671e-05 8.289406e-05 -5.370676e-05 -4.685813e-05 -8.668553e-05 -2.552081e-04 -9.242645e-05 -2.500753e-04 3.636741e-06 3.271870e-05 7.191372e-05 2.026288e-04 1.074295e-05 1.196362e-04 -7.978783e-05 -2.387172e-05 -1.070982e-04 -8.763808e-05 -7.848739e-05 -7.520205e-05 -3.402604e-05 -3.384552e-05 5.501698e-06 9.552874e-06 4.102379e-05 
5.450220e-05 9.342583e-05 1.258390e-04 1.725625e-04 2.006768e-04 2.296892e-04 2.220931e-04 1.829302e-04 9.919624e-05 -3.540107e-05 -1.757290e-04 -3.133824e-04 -3.779411e-04 -3.391806e-04 -2.385775e-04 -4.170641e-05 7.591271e-05 1.939957e-04 2.156795e-04 2.040805e-04 1.912857e-04 1.509991e-04 1.421939e-04 8.827252e-05 4.738784e-05 -7.209498e-05 -1.684374e-04 -2.949350e-04 -3.386172e-04 -2.972619e-04 -1.488680e-04 1.952725e-05 2.217757e-04 2.214886e-04 2.919818e-04 1.296897e-04 1.336608e-04 5.142269e-05 4.026972e-05 1.099386e-04 3.386469e-05 9.124145e-05 -7.395671e-05 -1.954462e-04 -2.919845e-04 -4.361919e-04 -2.559832e-04 -9.932773e-05 1.244141e-04 3.740193e-04 3.012502e-04 3.427652e-04 1.462103e-04 3.854070e-05 -5.023346e-05 -1.536900e-04 -1.261352e-04 -1.715345e-04 -1.068397e-04 -1.098685e-04 -5.593169e-05 -3.952770e-05 -2.851408e-06 2.438073e-05 