# vtk DataFile Version 2.0
Comment goes here
ASCII

DATASET STRUCTURED_POINTS
DIMENSIONS    64   64   1

ORIGIN    0.000   0.000   0.000
SPACING   0.0156250.015625   1.000

POINT_DATA   4096
SCALARS P double
LOOKUP_TABLE default

2.367772e+00 2.177321e+00 2.501633e+00 2.279929e+00 2.576233e+00 2.322607e+00 2.570890e+00 2.284748e+00 2.462222e+00 2.146007e+00 2.230780e+00 1.893135e+00 1.872803e+00 1.529710e+00 1.413373e+00 1.083821e+00 9.083487e-01 6.043519e-01 4.203456e-01 1.427522e-01 -1.278427e-02 -2.560967e-01 -3.587969e-01 -5.560200e-01 -5.972193e-01 -7.362321e-01 -7.254079e-01 -7.937940e-01 -7.568693e-01 -7.429130e-01 -7.169580e-01 -6.143576e-01 -6.381463e-01 -4.497827e-01 -5.501740e-01 -2.840827e-01 -4.662628e-01 -1.343504e-01 -3.875126e-01 -2.369962e-03 -3.071294e-01 1.185466e-01 -2.122808e-01 2.385408e-01 -8.611509e-02 3.679315e-01 8.769846e-02 5.138966e-01 3.172550e-01 6.781677e-01 5.941497e-01 8.604699e-01 8.937183e-01 1.056317e+00 1.192724e+00 1.259887e+00 1.477058e+00 1.465450e+00 1.740190e+00 1.667260e+00 1.978986e+00 1.858887e+00 2.190153e+00 2.032379e+00 
2.228768e+00 2.036884e+00 2.340717e+00 2.118491e+00 2.392764e+00 2.138408e+00 2.367762e+00 2.079333e+00 2.247312e+00 1.925728e+00 2.017004e+00 1.669538e+00 1.674832e+00 1.317142e+00 1.240247e+00 8.935759e-01 7.567774e-01 4.394927e-01 2.800840e-01 2.441773e-03 -1.441297e-01 -3.733945e-01 -4.849014e-01 -6.576112e-01 -7.288391e-01 -8.376643e-01 -8.786366e-01 -9.168326e-01 -9.475554e-01 -9.094844e-01 -9.530437e-01 -8.359541e-01 -9.121292e-01 -7.173118e-01 -8.388705e-01 -5.711359e-01 -7.428187e-01 -4.105319e-01 -6.314721e-01 -2.441169e-01 -5.071323e-01 -7.594767e-02 -3.647030e-01 9.329845e-02 -1.936021e-01 2.643002e-01 1.644199e-02 4.376129e-01 2.673842e-01 6.137561e-01 5.478410e-01 7.944597e-01 8.397984e-01 9.823351e-01 1.127303e+00 1.177088e+00 1.399664e+00 1.374594e+00 1.650537e+00 1.568127e+00 1.875640e+00 1.749526e+00 2.070521e+00 1.909448e+00 
2.098910e+00 1.938478e+00 2.190155e+00 1.999182e+00 2.226758e+00 2.007134e+00 2.195503e+00 1.949505e+00 2.083708e+00 1.815636e+00 1.883643e+00 1.601163e+00 1.598556e+00 1.312713e+00 1.247601e+00 9.705646e-01 8.645864e-01 6.060369e-01 4.875193e-01 2.537655e-01 1.469614e-01 -5.442441e-02 -1.332165e-01 -2.932488e-01 -3.381783e-01 -4.475983e-01 -4.643212e-01 -5.143174e-01 -5.186400e-01 -5.020120e-01 -5.160849e-01 -4.293203e-01 -4.756484e-01 -3.202925e-01 -4.147277e-01 -1.964134e-01 -3.435491e-01 -7.100395e-02 -2.650709e-01 5.112709e-02 -1.765548e-01 1.711359e-01 -7.121707e-02 2.932763e-01 5.967911e-02 4.224728e-01 2.236619e-01 5.622872e-01 4.230308e-01 7.137955e-01 6.517266e-01 8.760954e-01 8.963641e-01 1.046084e+00 1.142586e+00 1.219377e+00 1.379213e+00 1.391011e+00 1.598672e+00 1.555543e+00 1.795488e+00 1.706794e+00 1.964414e+00 1.837419e+00 
1.962652e+00 1.799418e+00 2.037477e+00 1.844404e+00 2.058085e+00 1.836258e+00 2.013595e+00 1.764420e+00 1.894107e+00 1.621070e+00 1.694150e+00 1.404450e+00 1.417144e+00 1.122218e+00 1.079099e+00 7.929716e-01 7.084430e-01 4.442942e-01 3.397526e-01 1.077874e-01 4.220633e-03 -1.870744e-01 -2.753744e-01 -4.186217e-01 -4.869783e-01 -5.758290e-01 -6.288099e-01 -6.579851e-01 -7.066536e-01 -6.723560e-01 -7.303277e-01 -6.310358e-01 -7.106592e-01 -5.476908e-01 -6.574370e-01 -4.349475e-01 -5.782608e-01 -3.031074e-01 -4.784884e-01 -1.596733e-01 -3.602136e-01 -9.324567e-03 -2.218075e-01 1.454938e-01 -5.927987e-02 3.036094e-01 1.306149e-01 4.643561e-01 3.467435e-01 6.273764e-01 5.818555e-01 7.927171e-01 8.249854e-01 9.603181e-01 1.065146e+00 1.128635e+00 1.293374e+00 1.294049e+00 1.502865e+00 1.451148e+00 1.688062e+00 1.593181e+00 1.843477e+00 1.712279e+00 
1.872881e+00 1.739598e+00 1.932924e+00 1.770815e+00 1.944753e+00 1.756876e+00 1.900276e+00 1.690140e+00 1.793097e+00 1.565517e+00 1.621192e+00 1.382851e+00 1.389890e+00 1.149175e+00 1.113657e+00 8.795633e-01 8.147187e-01 5.954399e-01 5.181157e-01 3.206994e-01 2.462978e-01 7.782861e-02 1.704949e-02 -1.151260e-01 -1.582149e-01 -2.469292e-01 -2.754990e-01 -3.143664e-01 -3.378502e-01 -3.221052e-01 -3.536846e-01 -2.812130e-01 -3.341643e-01 -2.061375e-01 -2.899553e-01 -1.106206e-01 -2.284285e-01 -4.616142e-03 -1.528796e-01 1.065507e-01 -6.301290e-02 2.213487e-01 4.398954e-02 3.405667e-01 1.719354e-01 4.658107e-01 3.236240e-01 5.982410e-01 4.987393e-01 7.378254e-01 6.925603e-01 8.832241e-01 8.966246e-01 1.031774e+00 1.101293e+00 1.179822e+00 1.297860e+00 1.323045e+00 1.479207e+00 1.456561e+00 1.639363e+00 1.574849e+00 1.772648e+00 1.671599e+00 
1.740547e+00 1.603798e+00 1.788141e+00 1.623159e+00 1.788200e+00 1.597517e+00 1.734130e+00 1.520738e+00 1.621087e+00 1.389407e+00 1.448082e+00 1.204726e+00 1.220271e+00 9.741233e-01 9.503903e-01 7.117077e-01 6.580357e-01 4.369058e-01 3.662244e-01 1.714907e-01 9.662510e-02 -6.409649e-02 -1.338947e-01 -2.540809e-01 -3.150599e-01 -3.892733e-01 -4.432700e-01 -4.672704e-01 -5.203030e-01 -4.913324e-01 -5.513530e-01 -4.685464e-01 -5.431098e-01 -4.078122e-01 -5.022658e-01 -3.181276e-01 -4.345424e-01 -2.074890e-01 -3.442040e-01 -8.233206e-02 -2.336191e-01 5.261232e-02 -1.032745e-01 1.940865e-01 4.734237e-02 3.398545e-01 2.181101e-01 4.882776e-01 4.065752e-01 6.380645e-01 6.072453e-01 7.880852e-01 8.125202e-01 9.369742e-01 1.014327e+00 1.082520e+00 1.205282e+00 1.221317e+00 1.379009e+00 1.348792e+00 1.529847e+00 1.459385e+00 1.652303e+00 1.546729e+00 
1.686773e+00 1.577253e+00 1.723663e+00 1.587379e+00 1.718827e+00 1.559204e+00 1.667541e+00 1.488464e+00 1.567020e+00 1.373256e+00 1.417966e+00 1.215389e+00 1.226015e+00 1.021454e+00 1.002307e+00 8.030055e-01 7.624456e-01 5.754351e-01 5.238939e-01 3.557541e-01 3.030443e-01 1.601335e-01 1.132796e-01 1.757899e-03 -3.635530e-02 -1.107895e-01 -1.418167e-01 -1.743558e-01 -2.038479e-01 -1.911243e-01 -2.269341e-01 -1.675902e-01 -2.176499e-01 -1.126925e-01 -1.827431e-01 -3.553511e-02 -1.275297e-01 5.642875e-02 -5.517764e-02 1.581760e-01 3.322080e-02 2.669523e-01 1.380467e-01 3.815852e-01 2.601834e-01 5.016380e-01 3.998230e-01 6.266452e-01 5.553414e-01 7.556004e-01 7.227067e-01 8.867429e-01 8.958211e-01 1.017512e+00 1.067651e+00 1.144658e+00 1.231306e+00 1.264390e+00 1.380552e+00 1.372452e+00 1.509770e+00 1.464130e+00 1.613632e+00 1.534254e+00 
1.558876e+00 1.445691e+00 1.586147e+00 1.446741e+00 1.572267e+00 1.409751e+00 1.513474e+00 1.331450e+00 1.407876e+00 1.210948e+00 1.256685e+00 1.050793e+00 1.065353e+00 8.577409e-01 8.440643e-01 6.427687e-01 6.070251e-01 4.201011e-01 3.704526e-01 2.053487e-01 1.499274e-01 1.324675e-02 -4.181568e-02 -1.444038e-01 -1.961948e-01 -2.600409e-01 -3.090646e-01 -3.306739e-01 -3.801349e-01 -3.573732e-01 -4.118851e-01 -3.442239e-01 -4.083660e-01 -2.970826e-01 -3.741570e-01 -2.224331e-01 -3.135979e-01 -1.265384e-01 -2.303090e-01 -1.492035e-02 -1.269269e-01 1.078632e-01 -5.176499e-03 2.381919e-01 1.336123e-01 3.731968e-01 2.876549e-01 5.105322e-01 4.538958e-01 6.481744e-01 6.276838e-01 7.842191e-01 8.031566e-01 9.166064e-01 9.739980e-01 1.042801e+00 1.134077e+00 1.159586e+00 1.277733e+00 1.263031e+00 1.399738e+00 1.348587e+00 1.495100e+00 1.411234e+00 
1.536747e+00 1.447627e+00 1.555977e+00 1.442110e+00 1.539219e+00 1.403976e+00 1.483922e+00 1.331146e+00 1.389369e+00 1.223554e+00 1.257545e+00 1.083906e+00 1.093818e+00 9.181727e-01 9.070431e-01 7.355179e-01 7.088138e-01 5.475066e-01 5.119350e-01 3.667202e-01 3.286734e-01 2.051544e-01 1.693309e-01 7.274773e-02 4.124783e-02 -2.373430e-02 -5.168707e-02 -8.128345e-02 -1.089445e-01 -1.006120e-01 -1.327218e-01 -8.550262e-02 -1.269217e-01 -4.166648e-02 -9.598591e-02 2.460388e-02 -4.390027e-02 1.075664e-01 2.635887e-02 2.026535e-01 1.129077e-01 3.065705e-01 2.146597e-01 4.170303e-01 3.307687e-01 5.323219e-01 4.599481e-01 6.508754e-01 5.998649e-01 7.709319e-01 7.468423e-01 8.903602e-01 8.960232e-01 1.006590e+00 1.041902e+00 1.116634e+00 1.178892e+00 1.217150e+00 1.301678e+00 1.304494e+00 1.405312e+00 1.374762e+00 1.485142e+00 1.423858e+00 
1.413576e+00 1.320872e+00 1.425189e+00 1.308261e+00 1.401145e+00 1.263203e+00 1.339531e+00 1.184278e+00 1.240176e+00 1.072057e+00 1.105353e+00 9.296832e-01 9.403240e-01 7.632137e-01 7.534300e-01 5.814756e-01 5.555014e-01 3.953443e-01 3.585974e-01 2.165238e-01 1.744126e-01 5.609811e-02 1.285108e-02 -7.680077e-02 -1.189124e-01 -1.759008e-01 -2.167602e-01 -2.381257e-01 -2.794088e-01 -2.633923e-01 -3.078155e-01 -2.540246e-01 -3.044364e-01 -2.139824e-01 -2.725114e-01 -1.480919e-01 -2.154841e-01 -6.140859e-02 -1.366001e-01 4.123146e-02 -3.869604e-02 1.554678e-01 7.578097e-02 2.775020e-01 2.045063e-01 4.040622e-01 3.448515e-01 5.323025e-01 4.934872e-01 6.596762e-01 6.462273e-01 7.837855e-01 7.981967e-01 9.021986e-01 9.441989e-01 1.012264e+00 1.079072e+00 1.110981e+00 1.197904e+00 1.194971e+00 1.296092e+00 1.260534e+00 1.369326e+00 1.303788e+00 
1.418988e+00 1.347192e+00 1.424191e+00 1.329378e+00 1.398075e+00 1.283378e+00 1.339495e+00 1.208529e+00 1.248932e+00 1.105849e+00 1.128974e+00 9.784540e-01 9.846169e-01 8.317640e-01 8.231886e-01 6.733436e-01 6.537906e-01 5.123157e-01 4.863215e-01 3.584289e-01 3.303441e-01 2.209730e-01 1.940738e-01 1.077552e-01 8.363634e-02 2.431158e-02 2.679369e-03 -2.652607e-02 -4.762145e-02 -4.464278e-02 -6.819268e-02 -3.224834e-02 -6.143167e-02 6.826027e-03 -3.047150e-02 6.796240e-02 2.147310e-02 1.465002e-01 9.153028e-02 2.382255e-01 1.773168e-01 3.395663e-01 2.768348e-01 4.475510e-01 3.881882e-01 5.596319e-01 5.092194e-01 6.734674e-01 6.371872e-01 7.867341e-01 7.686113e-01 8.970017e-01 8.993486e-01 1.001670e+00 1.024856e+00 1.097955e+00 1.140500e+00 1.182911e+00 1.241791e+00 1.253456e+00 1.324508e+00 1.306430e+00 1.384750e+00 1.338676e+00 
1.300830e+00 1.225674e+00 1.299818e+00 1.202171e+00 1.267538e+00 1.150469e+00 1.203282e+00 1.070357e+00 1.107897e+00 9.632720e-01 9.841821e-01 8.326228e-01 8.371167e-01 6.839108e-01 6.737888e-01 5.245349e-01 5.029141e-01 3.632389e-01 3.339854e-01 2.092663e-01 1.762349e-01 7.137929e-02 3.767166e-02 -4.305118e-02 -7.560686e-02 -1.287045e-01 -1.597300e-01 -1.826165e-01 -2.130084e-01 -2.041326e-01 -2.356173e-01 -1.945848e-01 -2.291329e-01 -1.568081e-01 -1.960395e-01 -9.461135e-02 -1.392893e-01 -1.229558e-02 -6.196759e-02 8.573016e-02 3.290717e-02 1.952146e-01 1.424303e-01 3.122162e-01 2.637086e-01 4.331607e-01 3.936667e-01 5.548315e-01 5.288613e-01 6.743134e-01 6.654069e-01 7.889015e-01 7.990537e-01 8.959833e-01 9.253723e-01 9.929194e-01 1.039956e+00 1.076957e+00 1.138577e+00 1.145206e+00 1.217276e+00 1.194681e+00 1.272432e+00 1.222420e+00 
1.330197e+00 1.273032e+00 1.323670e+00 1.244788e+00 1.289354e+00 1.191591e+00 1.227017e+00 1.113711e+00 1.137858e+00 1.012827e+00 1.024771e+00 8.922634e-01 8.924545e-01 7.570509e-01 7.472696e-01 6.137410e-01 5.968031e-01 4.699473e-01 4.491795e-01 3.336685e-01 3.122672e-01 2.125096e-01 1.929365e-01 1.129367e-01 9.648746e-02 3.968960e-02 2.632333e-02 -4.559625e-03 -1.610033e-02 -1.925838e-02 -3.106857e-02 -5.745326e-03 -2.020852e-02 3.319220e-02 1.399901e-02 9.386416e-02 6.868318e-02 1.721987e-01 1.409280e-01 2.641383e-01 2.279524e-01 3.658728e-01 3.271285e-01 4.739225e-01 4.358744e-01 5.851209e-01 5.514833e-01 6.965445e-01 6.709639e-01 8.054337e-01 7.909593e-01 9.091253e-01 9.077819e-01 1.005005e+00 1.017545e+00 1.090478e+00 1.116334e+00 1.162959e+00 1.200359e+00 1.219882e+00 1.266077e+00 1.258735e+00 1.310277e+00 1.277149e+00 
1.217442e+00 1.157188e+00 1.205674e+00 1.124247e+00 1.165878e+00 1.066119e+00 1.098136e+00 9.833849e-01 1.003926e+00 8.780261e-01 8.863368e-01 7.535968e-01 7.501439e-01 6.152407e-01 6.016631e-01 4.694808e-01 4.483475e-01 3.237751e-01 2.981593e-01 1.858852e-01 1.588303e-01 6.316121e-02 3.716157e-02 -3.812840e-02 -6.151013e-02 -1.133067e-01 -1.336046e-01 -1.595657e-01 -1.773409e-01 -1.760000e-01 -1.925734e-01 -1.634332e-01 -1.804934e-01 -1.241051e-01 -1.432708e-01 -6.129215e-02 -8.370329e-02 2.107274e-02 -4.919240e-03 1.187394e-01 8.983321e-02 2.274126e-01 1.972925e-01 3.429490e-01 3.141904e-01 4.614819e-01 4.371900e-01 5.794816e-01 5.628110e-01 6.937588e-01 6.873940e-01 8.014228e-01 8.071336e-01 8.998030e-01 9.181682e-01 9.863607e-01 1.016693e+00 1.058617e+00 1.099069e+00 1.114122e+00 1.161919e+00 1.150487e+00 1.202224e+00 1.165479e+00 
1.267809e+00 1.222963e+00 1.250909e+00 1.185125e+00 1.208631e+00 1.124471e+00 1.141343e+00 1.041882e+00 1.050697e+00 9.394682e-01 9.397808e-01 8.207006e-01 8.131382e-01 6.904096e-01 6.766059e-01 5.545928e-01 5.369421e-01 4.200307e-01 4.012915e-01 2.937511e-01 2.765695e-01 1.824181e-01 1.688727e-01 9.174452e-02 8.300308e-02 2.601670e-02 2.217168e-02 -1.219999e-02 -1.209128e-02 -2.214171e-02 -1.982686e-02 -4.718175e-03 -2.380615e-03 3.778026e-02 3.795367e-02 1.020686e-01 9.830207e-02 1.842649e-01 1.755220e-01 2.802338e-01 2.664151e-01 3.858412e-01 3.678292e-01 4.971172e-01 4.766665e-01 6.103455e-01 5.898318e-01 7.221020e-01 7.041657e-01 8.292606e-01 8.164038e-01 9.289765e-01 9.231856e-01 1.018653e+00 1.021113e+00 1.095896e+00 1.106835e+00 1.158475e+00 1.177149e+00 1.204296e+00 1.229087e+00 1.231415e+00 1.260026e+00 1.238102e+00 
1.161006e+00 1.113323e+00 1.139536e+00 1.071495e+00 1.092149e+00 1.006362e+00 1.019447e+00 9.190279e-01 9.233226e-01 8.118378e-01 8.070815e-01 6.884803e-01 6.754401e-01 5.539517e-01 5.343481e-01 4.143450e-01 3.906245e-01 2.764635e-01 2.514402e-01 1.473017e-01 1.237271e-01 3.346773e-02 1.361105e-02 -5.936294e-02 -7.403884e-02 -1.268782e-01 -1.358886e-01 -1.663914e-01 -1.702283e-01 -1.769184e-01 -1.768897e-01 -1.590874e-01 -1.570366e-01 -1.149227e-01 -1.128779e-01 -4.755158e-02 -4.735611e-02 3.912050e-02 3.614524e-02 1.407281e-01 1.340398e-01 2.527334e-01 2.427017e-01 3.706660e-01 3.585482e-01 4.903068e-01 4.780573e-01 6.078095e-01 5.977480e-01 7.197569e-01 7.141574e-01 8.231524e-01 8.238387e-01 9.153603e-01 9.233872e-01 9.940166e-01 1.009493e+00 1.056945e+00 1.079009e+00 1.102106e+00 1.129040e+00 1.127608e+00 1.157052e+00 1.131782e+00 
1.230075e+00 1.195570e+00 1.203508e+00 1.148268e+00 1.152908e+00 1.079277e+00 1.079022e+00 9.898727e-01 9.838004e-01 8.824543e-01 8.705059e-01 7.606478e-01 7.436960e-01 6.292752e-01 6.090521e-01 4.941647e-01 4.730407e-01 3.618012e-01 3.424419e-01 2.388514e-01 2.238088e-01 1.316267e-01 1.229389e-01 4.556164e-02 4.443372e-02 -1.521537e-02 -8.597206e-03 -4.816406e-02 -3.465758e-02 -5.243645e-02 -3.381066e-02 -2.880613e-02 -7.477184e-03 2.054664e-02 4.186671e-02 9.234238e-02 1.110306e-01 1.825437e-01 1.964311e-01 2.866810e-01 2.943480e-01 4.001319e-01 4.010963e-01 5.183458e-01 5.131135e-01 6.370186e-01 6.269829e-01 7.522204e-01 7.394198e-01 8.604777e-01 8.472457e-01 9.588010e-01 9.473727e-01 1.044658e+00 1.036806e+00 1.115900e+00 1.112669e+00 1.170674e+00 1.172243e+00 1.207348e+00 1.213038e+00 1.224477e+00 1.232887e+00 1.220846e+00 
1.129969e+00 1.092810e+00 1.099300e+00 1.042040e+00 1.043728e+00 9.688018e-01 9.641781e-01 8.745242e-01 8.628322e-01 7.618112e-01 7.432182e-01 6.345235e-01 6.101729e-01 4.977234e-01 4.696446e-01 3.574602e-01 3.283357e-01 2.204023e-01 1.932180e-01 9.335540e-02 7.098954e-02 -1.726892e-02 -3.244747e-02 -1.059567e-01 -1.124129e-01 -1.684980e-01 -1.657294e-01 -2.022496e-01 -1.908388e-01 -2.062376e-01 -1.877603e-01 -1.811113e-01 -1.579175e-01 -1.289742e-01 -1.038710e-01 -5.312983e-02 -2.900227e-02 4.222298e-02 6.280961e-02 1.523146e-01 1.674756e-01 2.721231e-01 2.809211e-01 3.966663e-01 3.992315e-01 5.212515e-01 5.187193e-01 6.416610e-01 6.359276e-01 7.542595e-01 7.475953e-01 8.560085e-01 8.506104e-01 9.443984e-01 9.419765e-01 1.017327e+00 1.018809e+00 1.072970e+00 1.078367e+00 1.109689e+00 1.118128e+00 1.126012e+00 1.135899e+00 1.120685e+00 
1.216073e+00 1.190186e+00 1.180127e+00 1.133093e+00 1.120466e+00 1.054496e+00 1.038033e+00 9.558760e-01 9.349741e-01 8.398245e-01 8.147396e-01 7.101519e-01 6.820753e-01 5.718628e-01 5.428464e-01 4.309667e-01 4.037005e-01 2.941286e-01 2.715943e-01 1.681916e-01 1.532471e-01 5.963535e-02 5.459822e-02 -2.595332e-02 -1.965512e-02 -8.432182e-02 -6.638266e-02 -1.128498e-01 -8.417507e-02 -1.106755e-01 -7.331978e-02 -7.865138e-02 -3.561517e-02 -1.915592e-02 2.593783e-02 6.419395e-02 1.075097e-01 1.668782e-01 2.048175e-01 2.838115e-01 3.134468e-01 4.096571e-01 4.290905e-01 5.391091e-01 5.476976e-01 6.671467e-01 6.655449e-01 7.892543e-01 7.792487e-01 9.015847e-01 8.857355e-01 1.001034e+00 9.821903e-01 1.085210e+00 1.066002e+00 1.152300e+00 1.134721e+00 1.200907e+00 1.186052e+00 1.229886e+00 1.217883e+00 1.238256e+00 1.228371e+00 1.225206e+00 
1.123651e+00 1.095178e+00 1.083955e+00 1.035047e+00 1.019282e+00 9.522808e-01 9.307047e-01 8.484559e-01 8.206079e-01 7.263561e-01 6.927803e-01 5.900705e-01 5.523766e-01 4.449428e-01 4.057028e-01 2.973475e-01 2.598297e-01 1.543009e-01 1.220744e-01 2.295147e-02 -5.769348e-04 -8.998210e-02 -1.020194e-01 -1.787407e-01 -1.774803e-01 -2.389529e-01 -2.238221e-01 -2.679153e-01 -2.396796e-01 -2.647111e-01 -2.254322e-01 -2.301789e-01 -1.830307e-01 -1.667565e-01 -1.157060e-01 -7.823074e-02 -2.760218e-02 3.058058e-02 7.661612e-02 1.541835e-01 1.921313e-01 2.867779e-01 3.142738e-01 4.226207e-01 4.387291e-01 5.563582e-01 5.616411e-01 6.832968e-01 6.796139e-01 7.995696e-01 7.896369e-01 9.021677e-01 8.889699e-01 9.888326e-01 9.750320e-01 1.057854e+00 1.045332e+00 1.107853e+00 1.097463e+00 1.137615e+00 1.129157e+00 1.146024e+00 1.138410e+00 1.132108e+00 
1.225695e+00 1.206859e+00 1.180449e+00 1.139414e+00 1.110790e+00 1.049736e+00 1.017671e+00 9.393106e-01 9.033202e-01 8.108123e-01 7.713961e-01 6.682638e-01 6.270060e-01 5.170417e-01 4.765377e-01 3.636878e-01 3.272936e-01 2.155248e-01 1.869543e-01 8.011476e-02 6.294786e-02 -3.536514e-02 -3.818159e-02 -1.247338e-01 -1.113159e-01 -1.833156e-01 -1.531496e-01 -2.082835e-01 -1.623840e-01 -1.988056e-01 -1.397164e-01 -1.560020e-01 -8.763177e-02 -8.273779e-02 -1.003102e-02 1.669575e-02 8.824054e-02 1.369564e-01 2.018768e-01 2.720278e-01 3.255291e-01 4.155749e-01 4.541178e-01 5.612816e-01 5.830315e-01 7.031906e-01 7.082293e-01 8.360376e-01 8.262591e-01 9.555294e-01 9.342067e-01 1.058485e+00 1.029589e+00 1.142779e+00 1.110220e+00 1.207115e+00 1.174093e+00 1.250702e+00 1.219299e+00 1.272976e+00 1.244022e+00 1.273414e+00 1.246605e+00 1.251506e+00 
1.142246e+00 1.120732e+00 1.093577e+00 1.050681e+00 1.018733e+00 9.568165e-01 9.187492e-01 8.406615e-01 7.961108e-01 7.050827e-01 6.549106e-01 5.544501e-01 5.008364e-01 3.946136e-01 3.409394e-01 2.326623e-01 1.831781e-01 7.647192e-02 3.579262e-02 -6.590529e-02 -9.339182e-02 -1.869123e-01 -1.976167e-01 -2.801164e-01 -2.717128e-01 -3.407042e-01 -3.124453e-01 -3.657929e-01 -3.186684e-01 -3.545534e-01 -2.912958e-01 -3.081697e-01 -2.330968e-01 -2.296666e-01 -1.483406e-01 -1.236321e-01 -4.232856e-02 4.139669e-03 7.912030e-02 1.470589e-01 2.101575e-01 2.981833e-01 3.453096e-01 4.506749e-01 4.797597e-01 5.982493e-01 6.094804e-01 7.355701e-01 7.312138e-01 8.585108e-01 8.423176e-01 9.642030e-01 9.405374e-01 1.050843e+00 1.023780e+00 1.117335e+00 1.089956e+00 1.162907e+00 1.136932e+00 1.186836e+00 1.162576e+00 1.188318e+00 1.164897e+00 1.166516e+00 
1.259626e+00 1.246308e+00 1.205170e+00 1.167960e+00 1.124565e+00 1.065718e+00 1.018535e+00 9.408143e-01 8.892332e-01 7.958440e-01 7.405084e-01 6.350380e-01 5.779981e-01 4.643343e-01 4.089813e-01 2.911925e-01 2.419511e-01 1.241354e-01 8.594402e-02 -2.793181e-02 -5.027125e-02 -1.565221e-01 -1.590038e-01 -2.543501e-01 -2.343273e-01 -3.159741e-01 -2.725659e-01 -3.382122e-01 -2.725422e-01 -3.203064e-01 -2.355716e-01 -2.638504e-01 -1.651983e-01 -1.725172e-01 -6.669548e-02 -5.164820e-02 5.359045e-02 9.221308e-02 1.889102e-01 2.517631e-01 3.326682e-01 4.193284e-01 4.788117e-01 5.872427e-01 6.220666e-01 7.482777e-01 7.580549e-01 8.961432e-01 8.833101e-01 1.025961e+00 9.951862e-01 1.134532e+00 1.091668e+00 1.220235e+00 1.171121e+00 1.282600e+00 1.232056e+00 1.321739e+00 1.272960e+00 1.337839e+00 1.292244e+00 1.330869e+00 1.288290e+00 1.300512e+00 
1.186831e+00 1.170529e+00 1.129356e+00 1.090114e+00 1.043313e+00 9.836355e-01 9.294400e-01 8.522842e-01 7.901664e-01 6.988543e-01 6.299020e-01 5.280199e-01 4.551002e-01 3.463788e-01 2.740145e-01 1.621888e-01 9.611855e-02 -1.520494e-02 -6.872882e-02 -1.761733e-01 -2.112102e-01 -3.116919e-01 -3.233909e-01 -4.141585e-01 -3.993595e-01 -4.780059e-01 -4.356283e-01 -5.000483e-01 -4.313008e-01 -4.795847e-01 -3.880279e-01 -4.183177e-01 -3.097545e-01 -3.201370e-01 -2.022570e-01 -1.907904e-01 -7.250958e-02 -3.746108e-02 7.202430e-02 1.317214e-01 2.240594e-01 3.082141e-01 3.770363e-01 4.836342e-01 5.255011e-01 6.503721e-01 6.652770e-01 8.021873e-01 7.933980e-01 9.346487e-01 9.078218e-01 1.045224e+00 1.007010e+00 1.132925e+00 1.089514e+00 1.197654e+00 1.153703e+00 1.239531e+00 1.197663e+00 1.258439e+00 1.219260e+00 1.253846e+00 1.216311e+00 1.224870e+00 
1.319310e+00 1.309874e+00 1.256016e+00 1.220378e+00 1.163750e+00 1.104349e+00 1.042657e+00 9.623735e-01 8.945550e-01 7.966986e-01 7.233880e-01 6.116924e-01 5.354730e-01 4.140414e-01 3.394075e-01 2.125814e-01 1.455481e-01 1.771783e-02 -3.490170e-02 -1.595007e-01 -1.910224e-01 -3.084926e-01 -3.132888e-01 -4.202263e-01 -3.944801e-01 -4.880768e-01 -4.303019e-01 -5.083419e-01 -4.197026e-01 -4.804102e-01 -3.648793e-01 -4.066215e-01 -2.709366e-01 -2.918685e-01 -1.451764e-01 -1.430111e-01 3.881414e-03 3.176226e-02 1.674862e-01 2.234692e-01 3.374053e-01 4.227191e-01 5.063754e-01 6.200640e-01 6.683416e-01 8.065047e-01 8.185742e-01 9.742503e-01 9.536840e-01 1.117578e+00 1.071487e+00 1.233367e+00 1.170688e+00 1.320936e+00 1.250446e+00 1.381219e+00 1.309956e+00 1.415725e+00 1.348161e+00 1.425697e+00 1.363634e+00 1.411653e+00 1.354635e+00 1.373320e+00 
1.259369e+00 1.246364e+00 1.193670e+00 1.155588e+00 1.095703e+00 1.035308e+00 9.655123e-01 8.859693e-01 8.051935e-01 7.100127e-01 6.194080e-01 5.123747e-01 4.156202e-01 3.006650e-01 2.038658e-01 8.488462e-02 -4.029810e-03 -1.233486e-01 -1.956622e-01 -3.119391e-01 -3.593805e-01 -4.695767e-01 -4.854324e-01 -5.868773e-01 -5.667641e-01 -6.571719e-01 -5.994661e-01 -6.768679e-01 -5.829350e-01 -6.454732e-01 -5.198120e-01 -5.654261e-01 -4.156803e-01 -4.418112e-01 -2.784593e-01 -2.819609e-01 -1.175057e-01 -9.493765e-02 5.740352e-02 1.090549e-01 2.369972e-01 3.192975e-01 4.132495e-01 5.252502e-01 5.798976e-01 7.173803e-01 7.326811e-01 8.881056e-01 8.692156e-01 1.032602e+00 9.884817e-01 1.149032e+00 1.090072e+00 1.237884e+00 1.173466e+00 1.300727e+00 1.237581e+00 1.339030e+00 1.280668e+00 1.353463e+00 1.300417e+00 1.343692e+00 1.294198e+00 1.308538e+00 
1.406910e+00 1.399442e+00 1.335793e+00 1.299296e+00 1.231729e+00 1.168901e+00 1.093760e+00 1.007608e+00 9.229150e-01 8.168604e-01 7.229852e-01 6.009640e-01 5.010630e-01 3.675241e-01 2.675861e-01 1.273341e-01 3.568807e-02 -1.063916e-01 -1.801299e-01 -3.193500e-01 -3.656864e-01 -4.977818e-01 -5.087124e-01 -6.300522e-01 -6.000703e-01 -7.078350e-01 -6.345287e-01 -7.267390e-01 -6.111557e-01 -6.864379e-01 -5.333705e-01 -5.904162e-01 -4.085490e-01 -4.453739e-01 -2.470027e-01 -2.603300e-01 -6.041432e-02 -4.565453e-02 1.397137e-01 1.876039e-01 3.430584e-01 4.279854e-01 5.409064e-01 6.637533e-01 7.263034e-01 8.833765e-01 8.941533e-01 1.076707e+00 1.041281e+00 1.236640e+00 1.166286e+00 1.360313e+00 1.269032e+00 1.448803e+00 1.349894e+00 1.505489e+00 1.409040e+00 1.534129e+00 1.445983e+00 1.537470e+00 1.459404e+00 1.516643e+00 1.447234e+00 1.471178e+00 
1.362714e+00 1.350743e+00 1.290202e+00 1.250522e+00 1.180275e+00 1.116005e+00 1.031677e+00 9.462401e-01 8.456526e-01 7.428208e-01 6.268791e-01 5.107670e-01 3.840650e-01 2.589827e-01 1.298116e-01 -1.187284e-05 -1.204931e-01 -2.511866e-01 -3.505662e-01 -4.787154e-01 -5.452786e-01 -6.678624e-01 -6.922600e-01 -8.066710e-01 -7.828680e-01 -8.870082e-01 -8.126085e-01 -9.048499e-01 -7.812319e-01 -8.600823e-01 -6.926712e-01 -7.561636e-01 -5.547555e-01 -5.997739e-01 -3.784466e-01 -4.003490e-01 -1.765027e-01 -1.694220e-01 3.805694e-02 8.010194e-02 2.532347e-01 3.346320e-01 4.590191e-01 5.806403e-01 6.480989e-01 8.057298e-01 8.162568e-01 1.000169e+00 9.622038e-01 1.158519e+00 1.086700e+00 1.280296e+00 1.191202e+00 1.368720e+00 1.276559e+00 1.428205e+00 1.342358e+00 1.462274e+00 1.386892e+00 1.472581e+00 1.407441e+00 1.458828e+00 1.400612e+00 1.419155e+00 
1.525222e+00 1.517348e+00 1.448451e+00 1.408405e+00 1.333562e+00 1.264302e+00 1.177693e+00 1.082255e+00 9.803136e-01 8.621298e-01 7.445267e-01 6.077363e-01 4.781550e-01 3.277104e-01 1.941285e-01 3.557038e-02 -9.031399e-02 -2.513265e-01 -3.556858e-01 -5.137914e-01 -5.829524e-01 -7.333057e-01 -7.558816e-01 -8.944473e-01 -8.626435e-01 -9.865602e-01 -8.966759e-01 -1.004433e+00 -8.571116e-01 -9.482758e-01 -7.489856e-01 -8.233137e-01 -5.829662e-01 -6.389520e-01 -3.739409e-01 -4.073405e-01 -1.383105e-01 -1.417063e-01 1.086690e-01 1.445664e-01 3.541517e-01 4.378126e-01 5.878247e-01 7.235232e-01 8.017327e-01 9.864573e-01 9.903513e-01 1.212448e+00 1.150871e+00 1.391821e+00 1.283184e+00 1.522276e+00 1.389084e+00 1.608293e+00 1.470874e+00 1.657627e+00 1.530156e+00 1.677666e+00 1.567172e+00 1.673271e+00 1.580636e+00 1.646152e+00 1.567883e+00 1.595214e+00 
1.500576e+00 1.486842e+00 1.424069e+00 1.379679e+00 1.303451e+00 1.231888e+00 1.135210e+00 1.040111e+00 9.188028e-01 8.042114e-01 6.583323e-01 5.288368e-01 3.638875e-01 2.244552e-01 5.174406e-02 -9.278810e-02 -2.572553e-01 -4.027357e-01 -5.409012e-01 -6.839445e-01 -7.789824e-01 -9.165640e-01 -9.555416e-01 -1.085021e+00 -1.059926e+00 -1.179431e+00 -1.086960e+00 -1.195534e+00 -1.036806e+00 -1.133934e+00 -9.149767e-01 -9.994572e-01 -7.323090e-01 -8.008477e-01 -5.041454e-01 -5.503061e-01 -2.481844e-01 -2.625637e-01 1.802694e-02 4.608310e-02 2.787970e-01 3.584210e-01 5.214123e-01 6.568657e-01 7.371200e-01 9.246213e-01 9.219139e-01 1.148183e+00 1.076484e+00 1.320843e+00 1.204731e+00 1.444726e+00 1.311280e+00 1.528297e+00 1.399011e+00 1.580905e+00 1.468207e+00 1.609100e+00 1.516932e+00 1.615601e+00 1.541696e+00 1.599748e+00 1.537974e+00 1.558402e+00 
1.677520e+00 1.666216e+00 1.599126e+00 1.552582e+00 1.476290e+00 1.397568e+00 1.303059e+00 1.194908e+00 1.076047e+00 9.416020e-01 7.965790e-01 6.400766e-01 4.728251e-01 2.999451e-01 1.210073e-01 -6.150496e-02 -2.354675e-01 -4.207661e-01 -5.694292e-01 -7.512628e-01 -8.546423e-01 -1.027291e+00 -1.069313e+00 -1.227973e+00 -1.198052e+00 -1.339641e+00 -1.232538e+00 -1.356282e+00 -1.171756e+00 -1.279045e+00 -1.022621e+00 -1.115729e+00 -8.005065e-01 -8.798839e-01 -5.275865e-01 -5.884618e-01 -2.276443e-01 -2.584737e-01 7.903936e-02 9.447980e-02 3.769688e-01 4.550905e-01 6.544053e-01 8.059629e-01 9.023199e-01 1.126339e+00 1.114476e+00 1.394622e+00 1.288450e+00 1.595685e+00 1.426236e+00 1.728407e+00 1.532964e+00 1.804183e+00 1.614077e+00 1.838786e+00 1.673273e+00 1.845391e+00 1.711685e+00 1.831585e+00 1.727894e+00 1.799308e+00 1.718284e+00 1.746039e+00 
1.677397e+00 1.658408e+00 1.601926e+00 1.549351e+00 1.474144e+00 1.391658e+00 1.286813e+00 1.178015e+00 1.035927e+00 9.049958e-01 7.236708e-01 5.758352e-01 3.613194e-01 2.027111e-01 -2.955643e-02 -1.929396e-01 -4.194579e-01 -5.831059e-01 -7.768877e-01 -9.378498e-01 -1.074299e+00 -1.229523e+00 -1.291097e+00 -1.437526e+00 -1.414447e+00 -1.550279e+00 -1.438620e+00 -1.564051e+00 -1.364188e+00 -1.480790e+00 -1.198252e+00 -1.307007e+00 -9.554842e-01 -1.053965e+00 -6.577550e-01 -7.375615e-01 -3.302160e-01 -3.766973e-01 3.345281e-03 8.285548e-03 3.224135e-01 3.959996e-01 6.105864e-01 7.636431e-01 8.568852e-01 1.087520e+00 1.057572e+00 1.346861e+00 1.216814e+00 1.531658e+00 1.344152e+00 1.649160e+00 1.449855e+00 1.718520e+00 1.539682e+00 1.757711e+00 1.614235e+00 1.777342e+00 1.670673e+00 1.780732e+00 1.704218e+00 1.765961e+00 1.708830e+00 1.727693e+00 
1.867263e+00 1.848722e+00 1.794092e+00 1.737994e+00 1.669283e+00 1.578358e+00 1.482089e+00 1.358096e+00 1.224126e+00 1.069193e+00 8.928073e-01 7.109278e-01 4.954480e-01 2.934072e-01 5.243363e-02 -1.608590e-01 -4.032384e-01 -6.190600e-01 -8.320201e-01 -1.043296e+00 -1.196976e+00 -1.396730e+00 -1.468791e+00 -1.650641e+00 -1.627853e+00 -1.787907e+00 -1.663834e+00 -1.802190e+00 -1.574939e+00 -1.696086e+00 -1.369431e+00 -1.480855e+00 -1.069034e+00 -1.176549e+00 -7.084058e-01 -8.082735e-01 -3.238400e-01 -3.983093e-01 5.805828e-02 3.663405e-02 4.201623e-01 4.819822e-01 7.503534e-01 9.187273e-01 1.038449e+00 1.318072e+00 1.276485e+00 1.643683e+00 1.461827e+00 1.867474e+00 1.599884e+00 1.991013e+00 1.701967e+00 2.040765e+00 1.778726e+00 2.047494e+00 1.836752e+00 2.033138e+00 1.878045e+00 2.008048e+00 1.900681e+00 1.973194e+00 1.899609e+00 1.923209e+00 
1.898033e+00 1.869538e+00 1.831908e+00 1.767482e+00 1.704230e+00 1.607228e+00 1.501829e+00 1.375161e+00 1.214288e+00 1.061798e+00 8.389726e-01 6.666822e-01 3.871465e-01 2.033843e-01 -1.119535e-01 -2.986814e-01 -6.142428e-01 -7.990014e-01 -1.072995e+00 -1.254929e+00 -1.450331e+00 -1.626266e+00 -1.720221e+00 -1.885415e+00 -1.868290e+00 -2.020274e+00 -1.889058e+00 -2.029784e+00 -1.783267e+00 -1.918363e+00 -1.558564e+00 -1.694005e+00 -1.233818e+00 -1.370616e+00 -8.413462e-01 -9.694180e-01 -4.184064e-01 -5.150629e-01 3.042110e-03 -3.235462e-02 3.967970e-01 4.535035e-01 7.414487e-01 9.139666e-01 1.021978e+00 1.314622e+00 1.234275e+00 1.619637e+00 1.388540e+00 1.809245e+00 1.504648e+00 1.901179e+00 1.603740e+00 1.938364e+00 1.695090e+00 1.953569e+00 1.777898e+00 1.961376e+00 1.846895e+00 1.963645e+00 1.895330e+00 1.955356e+00 1.915455e+00 1.927749e+00 