# vtk DataFile Version 2.0
Comment goes here
ASCII

DATASET STRUCTURED_POINTS
DIMENSIONS    64   64   1

ORIGIN    0.000   0.000   0.000
SPACING   0.0156250.015625   1.000

POINT_DATA   4096
SCALARS P double
LOOKUP_TABLE default

2.548563e+00 2.888150e+00 3.169198e+00 3.381503e+00 3.833865e+00 3.921708e+00 4.589748e+00 4.539403e+00 5.450511e+00 5.221098e+00 6.361687e+00 5.872218e+00 7.153727e+00 6.288945e+00 7.526766e+00 6.216895e+00 7.176877e+00 5.599894e+00 6.133590e+00 4.821774e+00 4.868872e+00 3.997610e+00 3.623922e+00 3.084273e+00 2.402349e+00 1.979726e+00 1.092153e+00 5.724754e-01 -4.273150e-01 -1.191428e+00 -2.189380e+00 -3.205033e+00 -4.051560e+00 -5.114343e+00 -5.691879e+00 -6.418847e+00 -6.843692e+00 -7.142261e+00 -7.524523e+00 -7.500573e+00 -7.895177e+00 -7.669153e+00 -8.098236e+00 -7.703906e+00 -8.165370e+00 -7.524470e+00 -7.967461e+00 -6.939643e+00 -7.239072e+00 -5.784583e+00 -5.829997e+00 -4.198869e+00 -4.073712e+00 -2.524307e+00 -2.358737e+00 -1.028043e+00 -8.973764e-01 1.812130e-01 2.650313e-01 1.110517e+00 1.174212e+00 1.821272e+00 1.908290e+00 2.389493e+00 
2.020530e+00 2.266910e+00 2.597905e+00 2.707754e+00 3.185806e+00 3.167957e+00 3.821705e+00 3.679702e+00 4.520427e+00 4.248849e+00 5.255702e+00 4.834473e+00 5.937837e+00 5.333028e+00 6.406880e+00 5.601603e+00 6.481925e+00 5.557600e+00 6.093407e+00 5.272375e+00 5.381652e+00 4.762564e+00 4.497714e+00 4.040122e+00 3.521544e+00 3.108433e+00 2.452120e+00 1.949102e+00 1.238840e+00 5.469537e-01 -1.599762e-01 -1.043572e+00 -1.698241e+00 -2.626488e+00 -3.189125e+00 -3.920819e+00 -4.416053e+00 -4.853278e+00 -5.311408e+00 -5.481562e+00 -5.919200e+00 -5.880374e+00 -6.306069e+00 -6.079201e+00 -6.493445e+00 -6.038806e+00 -6.418787e+00 -5.663962e+00 -5.949750e+00 -4.880200e+00 -5.010960e+00 -3.763266e+00 -3.755910e+00 -2.507634e+00 -2.426415e+00 -1.303373e+00 -1.202089e+00 -2.622532e-01 -1.610053e-01 5.843128e-01 6.950394e-01 1.256865e+00 1.404464e+00 1.800322e+00 
2.283147e+00 2.600702e+00 2.905902e+00 3.094966e+00 3.529593e+00 3.588088e+00 4.173731e+00 4.088354e+00 4.828953e+00 4.572061e+00 5.440699e+00 4.971296e+00 5.897261e+00 5.176840e+00 6.045236e+00 5.082443e+00 5.762729e+00 4.675933e+00 5.073406e+00 4.077357e+00 4.152042e+00 3.354179e+00 3.129522e+00 2.506621e+00 2.043036e+00 1.500118e+00 8.691954e-01 3.009697e-01 -4.219677e-01 -1.081893e+00 -1.814715e+00 -2.553869e+00 -3.213207e+00 -3.922970e+00 -4.457953e+00 -4.978530e+00 -5.417766e+00 -5.678403e+00 -6.068918e+00 -6.086038e+00 -6.460315e+00 -6.273359e+00 -6.644587e+00 -6.266102e+00 -6.627078e+00 -6.029737e+00 -6.347271e+00 -5.492957e+00 -5.711496e+00 -4.617113e+00 -4.698339e+00 -3.482227e+00 -3.453983e+00 -2.254838e+00 -2.173098e+00 -1.087761e+00 -9.938368e-01 -6.749070e-02 2.589635e-02 7.840234e-01 8.877807e-01 1.486151e+00 1.625235e+00 2.077379e+00 
1.870008e+00 2.107509e+00 2.440711e+00 2.554266e+00 2.998744e+00 2.993126e+00 3.561199e+00 3.438095e+00 4.127026e+00 3.883762e+00 4.667683e+00 4.297192e+00 5.120598e+00 4.617012e+00 5.395415e+00 4.771410e+00 5.405364e+00 4.717218e+00 5.119803e+00 4.462385e+00 4.589056e+00 4.016022e+00 3.885110e+00 3.387086e+00 3.058396e+00 2.582909e+00 2.125987e+00 1.609665e+00 1.085185e+00 4.872059e-01 -5.698690e-02 -7.242845e-01 -1.250952e+00 -1.908628e+00 -2.394109e+00 -2.930992e+00 -3.376135e+00 -3.726464e+00 -4.140603e+00 -4.293152e+00 -4.683269e+00 -4.649972e+00 -5.018074e+00 -4.803504e+00 -5.144308e+00 -4.734858e+00 -5.031118e+00 -4.410055e+00 -4.632687e+00 -3.816361e+00 -3.941437e+00 -3.004776e+00 -3.037537e+00 -2.079647e+00 -2.046843e+00 -1.150803e+00 -1.078756e+00 -2.958564e-01 -1.969282e-01 4.497547e-01 5.790790e-01 1.084519e+00 1.259528e+00 1.627588e+00 
2.052878e+00 2.342303e+00 2.641665e+00 2.809563e+00 3.204885e+00 3.247321e+00 3.746654e+00 3.653874e+00 4.250890e+00 4.007516e+00 4.674869e+00 4.264075e+00 4.949309e+00 4.364661e+00 4.994154e+00 4.260072e+00 4.755351e+00 3.943972e+00 4.244998e+00 3.457318e+00 3.536019e+00 2.834750e+00 2.698829e+00 2.087609e+00 1.770919e+00 1.213138e+00 7.633909e-01 2.132917e-01 -3.153574e-01 -8.835632e-01 -1.434733e+00 -2.006273e+00 -2.528974e+00 -3.045370e+00 -3.509111e+00 -3.893704e+00 -4.300509e+00 -4.506581e+00 -4.873063e+00 -4.891780e+00 -5.232595e+00 -5.072198e+00 -5.392745e+00 -5.057456e+00 -5.351107e+00 -4.835440e+00 -5.083064e+00 -4.385342e+00 -4.561318e+00 -3.708702e+00 -3.797884e+00 -2.858098e+00 -2.870778e+00 -1.925051e+00 -1.885831e+00 -1.000664e+00 -9.307747e-01 -1.474349e-01 -5.540155e-02 6.069146e-01 7.257660e-01 1.261927e+00 1.421711e+00 1.833161e+00 
1.759257e+00 1.981270e+00 2.296178e+00 2.408684e+00 2.807249e+00 2.812197e+00 3.297307e+00 3.195799e+00 3.758785e+00 3.550889e+00 4.167404e+00 3.853461e+00 4.481456e+00 4.066351e+00 4.648810e+00 4.149779e+00 4.624272e+00 4.077425e+00 4.391333e+00 3.843826e+00 3.969626e+00 3.452012e+00 3.395240e+00 2.909336e+00 2.700875e+00 2.226432e+00 1.908136e+00 1.419200e+00 1.032681e+00 5.161204e-01 9.738304e-02 -4.323305e-01 -8.548646e-01 -1.352743e+00 -1.760371e+00 -2.168072e+00 -2.553804e+00 -2.828531e+00 -3.191648e+00 -3.314727e+00 -3.655279e+00 -3.622939e+00 -3.938723e+00 -3.750026e+00 -4.034637e+00 -3.687087e+00 -3.928708e+00 -3.425051e+00 -3.608455e+00 -2.970412e+00 -3.084568e+00 -2.359819e+00 -2.405955e+00 -1.655370e+00 -1.644661e+00 -9.243375e-01 -8.691602e-01 -2.201330e-01 -1.270304e-01 4.260323e-01 5.586754e-01 1.003858e+00 1.184557e+00 1.517996e+00 
1.864984e+00 2.125781e+00 2.402997e+00 2.553659e+00 2.901633e+00 2.937757e+00 3.357121e+00 3.272309e+00 3.753090e+00 3.540064e+00 4.058571e+00 3.712832e+00 4.230936e+00 3.757653e+00 4.226714e+00 3.649200e+00 4.019497e+00 3.382528e+00 3.615134e+00 2.973105e+00 3.048095e+00 2.439769e+00 2.358773e+00 1.795844e+00 1.578373e+00 1.051536e+00 7.287549e-01 2.226363e-01 -1.682239e-01 -6.595078e-01 -1.080033e+00 -1.542519e+00 -1.958983e+00 -2.358650e+00 -2.749082e+00 -3.044301e+00 -3.402111e+00 -3.562363e+00 -3.890229e+00 -3.902265e+00 -4.204259e+00 -4.066201e+00 -4.342695e+00 -4.056099e+00 -4.301547e+00 -3.869237e+00 -4.072564e+00 -3.504276e+00 -3.652830e+00 -2.974258e+00 -3.061100e+00 -2.316417e+00 -2.345410e+00 -1.586604e+00 -1.568671e+00 -8.424064e-01 -7.880330e-01 -1.284985e-01 -4.250025e-02 5.291416e-01 6.489663e-01 1.121479e+00 1.282956e+00 1.651030e+00 
1.686279e+00 1.890893e+00 2.177491e+00 2.287007e+00 2.636759e+00 2.651187e+00 3.061990e+00 2.982014e+00 3.443398e+00 3.270524e+00 3.761692e+00 3.499388e+00 3.989012e+00 3.645124e+00 4.094093e+00 3.683915e+00 4.051569e+00 3.598860e+00 3.851622e+00 3.383466e+00 3.502874e+00 3.038869e+00 3.025352e+00 2.571833e+00 2.441721e+00 1.994267e+00 1.772966e+00 1.324491e+00 1.039936e+00 5.902818e-01 2.685581e-01 -1.684865e-01 -5.056556e-01 -9.019470e-01 -1.238776e+00 -1.560021e+00 -1.887078e+00 -2.104888e+00 -2.416922e+00 -2.514329e+00 -2.807505e+00 -2.777071e+00 -3.046929e+00 -2.886601e+00 -3.126833e+00 -2.838427e+00 -3.040636e+00 -2.632659e+00 -2.787863e+00 -2.280417e+00 -2.382428e+00 -1.808718e+00 -1.857056e+00 -1.257674e+00 -1.256685e+00 -6.710461e-01 -6.261930e-01 -8.637529e-02 -7.088608e-04 4.706430e-01 5.980947e-01 9.868812e-01 1.160767e+00 1.459263e+00 
1.721101e+00 1.956127e+00 2.203709e+00 2.341532e+00 2.641531e+00 2.677740e+00 3.027114e+00 2.957543e+00 3.345784e+00 3.167602e+00 3.575390e+00 3.289536e+00 3.689148e+00 3.303920e+00 3.662263e+00 3.196541e+00 3.480778e+00 2.963814e+00 3.147915e+00 2.612769e+00 2.682417e+00 2.155338e+00 2.109769e+00 1.604441e+00 1.455029e+00 9.745274e-01 7.414632e-01 2.852210e-01 -6.297564e-03 -4.346390e-01 -7.582473e-01 -1.145735e+00 -1.477902e+00 -1.802463e+00 -2.126156e+00 -2.362488e+00 -2.668638e+00 -2.796277e+00 -3.081483e+00 -3.088696e+00 -3.351514e+00 -3.234236e+00 -3.472229e+00 -3.231504e+00 -3.439823e+00 -3.081136e+00 -3.252816e+00 -2.788269e+00 -2.916339e+00 -2.367641e+00 -2.448274e+00 -1.846708e+00 -1.881091e+00 -1.262541e+00 -1.255411e+00 -6.538580e-01 -6.101877e-01 -5.329403e-02 2.446355e-02 5.166705e-01 6.296383e-01 1.043813e+00 1.196161e+00 1.523696e+00 
1.647600e+00 1.836032e+00 2.090745e+00 2.197265e+00 2.500304e+00 2.523531e+00 2.870490e+00 2.810546e+00 3.191125e+00 3.049800e+00 3.446953e+00 3.228432e+00 3.618808e+00 3.330834e+00 3.686983e+00 3.341889e+00 3.636287e+00 3.250631e+00 3.460712e+00 3.052310e+00 3.164902e+00 2.748174e+00 2.761580e+00 2.344869e+00 2.267691e+00 1.854302e+00 1.702059e+00 1.294180e+00 1.085504e+00 6.889564e-01 4.425124e-01 7.002071e-02 -1.975938e-01 -5.265435e-01 -8.020321e-01 -1.065179e+00 -1.338824e+00 -1.516679e+00 -1.781462e+00 -1.860648e+00 -2.110900e+00 -2.084432e+00 -2.314670e+00 -2.180895e+00 -2.385141e+00 -2.147369e+00 -2.319147e+00 -1.986747e+00 -2.119938e+00 -1.709882e+00 -1.800228e+00 -1.336959e+00 -1.383155e+00 -8.955615e-01 -8.988306e-01 -4.157994e-01 -3.782178e-01 7.503192e-02 1.522930e-01 5.560300e-01 6.736443e-01 1.013758e+00 1.174134e+00 1.441279e+00 
1.619548e+00 1.833497e+00 2.049206e+00 2.178600e+00 2.433672e+00 2.474126e+00 2.764021e+00 2.712523e+00 3.027546e+00 2.883265e+00 3.208055e+00 2.973794e+00 3.288003e+00 2.971946e+00 3.252411e+00 2.869227e+00 3.093428e+00 2.663410e+00 2.813318e+00 2.358805e+00 2.423874e+00 1.964358e+00 1.942847e+00 1.492049e+00 1.390508e+00 9.569129e-01 7.883603e-01 3.783539e-01 1.598033e-01 -2.185590e-01 -4.687808e-01 -8.033545e-01 -1.068246e+00 -1.343008e+00 -1.609022e+00 -1.806917e+00 -2.064812e+00 -2.171554e+00 -2.415555e+00 -2.421996e+00 -2.648082e+00 -2.550536e+00 -2.754882e+00 -2.554545e+00 -2.732697e+00 -2.435532e+00 -2.582536e+00 -2.200022e+00 -2.311433e+00 -1.861330e+00 -1.934565e+00 -1.440234e+00 -1.475269e+00 -9.629929e-01 -9.616927e-01 -4.571905e-01 -4.217719e-01 5.250964e-02 1.209015e-01 5.470204e-01 6.489596e-01 1.013405e+00 1.150945e+00 1.443812e+00 
1.639240e+00 1.814689e+00 2.037583e+00 2.142490e+00 2.403218e+00 2.435128e+00 2.728542e+00 2.686839e+00 3.003656e+00 2.889695e+00 3.216189e+00 3.033703e+00 3.352283e+00 3.107884e+00 3.398742e+00 3.102175e+00 3.345887e+00 3.009465e+00 3.190039e+00 2.826974e+00 2.934446e+00 2.556653e+00 2.588379e+00 2.205171e+00 2.165406e+00 1.783889e+00 1.682071e+00 1.308955e+00 1.157494e+00 8.013243e-01 6.135572e-01 2.861436e-01 7.477634e-02 -2.090724e-01 -4.329495e-01 -6.574734e-01 -8.847325e-01 -1.036004e+00 -1.259208e+00 -1.327158e+00 -1.539966e+00 -1.519123e+00 -1.715714e+00 -1.605185e+00 -1.779921e+00 -1.583414e+00 -1.730878e+00 -1.457080e+00 -1.572519e+00 -1.235407e+00 -1.315392e+00 -9.336773e-01 -9.765065e-01 -5.718144e-01 -5.772652e-01 -1.716232e-01 -1.401410e-01 2.462704e-01 3.144539e-01 6.646850e-01 7.700545e-01 1.070838e+00 1.214525e+00 1.456065e+00 
1.556940e+00 1.755447e+00 1.939896e+00 2.065246e+00 2.279930e+00 2.327639e+00 2.567752e+00 2.535158e+00 2.792326e+00 2.679140e+00 2.941283e+00 2.750428e+00 3.002399e+00 2.740843e+00 2.965947e+00 2.645009e+00 2.827202e+00 2.461790e+00 2.588049e+00 2.194676e+00 2.256908e+00 1.851238e+00 1.847233e+00 1.442484e+00 1.375796e+00 9.827215e-01 8.616644e-01 4.898370e-01 3.259253e-01 -1.460840e-02 -2.084444e-01 -5.061327e-01 -7.172902e-01 -9.593130e-01 -1.176885e+00 -1.350623e+00 -1.566039e+00 -1.661024e+00 -1.867843e+00 -1.877192e+00 -2.070377e+00 -1.991362e+00 -2.166519e+00 -2.000605e+00 -2.153546e+00 -1.906423e+00 -2.033196e+00 -1.714958e+00 -1.812292e+00 -1.437420e+00 -1.503281e+00 -1.089906e+00 -1.123725e+00 -6.920054e-01 -6.943196e-01 -2.644204e-01 -2.361095e-01 1.735023e-01 2.319530e-01 6.054950e-01 6.943516e-01 1.018975e+00 1.139109e+00 1.404646e+00 
1.657251e+00 1.824170e+00 2.017127e+00 2.122879e+00 2.346440e+00 2.387651e+00 2.636804e+00 2.611985e+00 2.878766e+00 2.788438e+00 3.061864e+00 2.908796e+00 3.175394e+00 2.964825e+00 3.209814e+00 2.949461e+00 3.158480e+00 2.858082e+00 3.019111e+00 2.689469e+00 2.794467e+00 2.446297e+00 2.492088e+00 2.135275e+00 2.123486e+00 1.767124e+00 1.703321e+00 1.356422e+00 1.248836e+00 9.212334e-01 7.794350e-01 4.822955e-01 3.160803e-01 6.158107e-02 -1.198182e-01 -3.196387e-01 -5.079530e-01 -6.427068e-01 -8.306734e-01 -8.928604e-01 -1.074046e+00 -1.059721e+00 -1.228303e+00 -1.137312e+00 -1.287953e+00 -1.124026e+00 -1.251927e+00 -1.022753e+00 -1.123870e+00 -8.409903e-01 -9.123150e-01 -5.905289e-01 -6.302149e-01 -2.863964e-01 -2.935833e-01 5.484964e-02 8.046473e-02 4.169864e-01 4.756084e-01 7.855998e-01 8.775947e-01 1.148844e+00 1.274669e+00 1.497451e+00 
1.529205e+00 1.718398e+00 1.873508e+00 1.999295e+00 2.178399e+00 2.236025e+00 2.434732e+00 2.421330e+00 2.632726e+00 2.547711e+00 2.762351e+00 2.607936e+00 2.814362e+00 2.595988e+00 2.781775e+00 2.508176e+00 2.661380e+00 2.344061e+00 2.454767e+00 2.106871e+00 2.168475e+00 1.803435e+00 1.813381e+00 1.443925e+00 1.403779e+00 1.041653e+00 9.565754e-01 6.128785e-01 4.906752e-01 1.764149e-01 2.636249e-02 -2.472640e-01 -4.155935e-01 -6.374956e-01 -8.151940e-01 -9.752436e-01 -1.154620e+00 -1.244728e+00 -1.419403e+00 -1.434386e+00 -1.599065e+00 -1.537111e+00 -1.687270e+00 -1.550087e+00 -1.681768e+00 -1.474595e+00 -1.584408e+00 -1.315964e+00 -1.401257e+00 -1.083485e+00 -1.142540e+00 -7.899647e-01 -8.220301e-01 -4.507014e-01 -4.557509e-01 -8.198787e-02 -6.030013e-02 3.004248e-01 3.486673e-01 6.824811e-01 7.573833e-01 1.052352e+00 1.154198e+00 1.400350e+00 
1.697969e+00 1.861658e+00 2.027232e+00 2.137206e+00 2.328612e+00 2.380611e+00 2.593467e+00 2.585011e+00 2.812738e+00 2.743276e+00 2.977108e+00 2.848217e+00 3.077613e+00 2.893157e+00 3.106641e+00 2.872761e+00 3.059108e+00 2.783932e+00 2.933460e+00 2.626527e+00 2.732226e+00 2.403791e+00 2.462022e+00 2.122509e+00 2.133129e+00 1.792908e+00 1.758892e+00 1.428371e+00 1.355089e+00 1.044888e+00 9.392615e-01 6.602206e-01 5.299221e-01 2.927377e-01 1.455446e-01 -3.995659e-02 -1.965910e-01 -3.223250e-01 -4.814886e-01 -5.418569e-01 -6.972437e-01 -6.895915e-01 -8.355007e-01 -7.603175e-01 -8.916643e-01 -7.526275e-01 -8.650076e-01 -6.689185e-01 -7.587216e-01 -5.152728e-01 -5.797842e-01 -3.010522e-01 -3.384556e-01 -3.809286e-02 -4.731845e-02 2.604308e-01 2.799743e-01 5.812246e-01 6.299198e-01 9.118829e-01 9.900466e-01 1.241485e+00 1.349303e+00 1.560725e+00 
1.532173e+00 1.718499e+00 1.846531e+00 1.977510e+00 2.125424e+00 2.195836e+00 2.360053e+00 2.366426e+00 2.541493e+00 2.482436e+00 2.661033e+00 2.537619e+00 2.710925e+00 2.526995e+00 2.685408e+00 2.447645e+00 2.581776e+00 2.299407e+00 2.401163e+00 2.085312e+00 2.148844e+00 1.811704e+00 1.834036e+00 1.488131e+00 1.469363e+00 1.127086e+00 1.070183e+00 7.436080e-01 6.538363e-01 3.546498e-01 2.388093e-01 -2.184788e-02 -1.562568e-01 -3.681671e-01 -5.136822e-01 -6.681315e-01 -8.178488e-01 -9.082583e-01 -1.056086e+00 -1.078511e+00 -1.219210e+00 -1.172609e+00 -1.301728e+00 -1.188034e+00 -1.301847e+00 -1.125905e+00 -1.221410e+00 -9.908181e-01 -1.065786e+00 -7.905880e-01 -8.435896e-01 -5.357655e-01 -5.661036e-01 -2.388469e-01 -2.463535e-01 8.674563e-02 1.019922e-01 4.277034e-01 4.656322e-01 7.716516e-01 8.323151e-01 1.107601e+00 1.191092e+00 1.426002e+00 
1.758091e+00 1.924530e+00 2.065218e+00 2.183673e+00 2.347309e+00 2.412576e+00 2.595713e+00 2.604170e+00 2.801611e+00 2.751436e+00 2.956218e+00 2.847639e+00 3.051307e+00 2.886823e+00 3.080030e+00 2.864496e+00 3.037853e+00 2.778360e+00 2.923394e+00 2.628915e+00 2.738956e+00 2.419835e+00 2.490645e+00 2.158060e+00 2.188115e+00 1.853630e+00 1.844029e+00 1.519263e+00 1.473364e+00 1.169722e+00 1.092597e+00 8.209589e-01 7.187989e-01 4.891041e-01 3.686625e-01 1.893984e-01 5.753090e-02 -6.478087e-02 -2.014480e-01 -2.626518e-01 -3.979404e-01 -3.964717e-01 -5.247928e-01 -4.617404e-01 -5.781965e-01 -4.572487e-01 -5.577187e-01 -3.850213e-01 -4.662253e-01 -2.501309e-01 -3.096455e-01 -6.031498e-02 -9.650544e-02 1.746456e-01 1.627901e-01 4.437408e-01 4.568306e-01 7.355972e-01 7.740495e-01 1.039221e+00 1.103368e+00 1.344486e+00 1.434526e+00 1.642305e+00 
1.561864e+00 1.752083e+00 1.855016e+00 1.996409e+00 2.116714e+00 2.203381e+00 2.338562e+00 2.366101e+00 2.512158e+00 2.477987e+00 2.629364e+00 2.533108e+00 2.682896e+00 2.526730e+00 2.667157e+00 2.456002e+00 2.579153e+00 2.320610e+00 2.419265e+00 2.123266e+00 2.191703e+00 1.869940e+00 1.904556e+00 1.569808e+00 1.569457e+00 1.234953e+00 1.200958e+00 8.798164e-01 8.156764e-01 5.204218e-01 4.312928e-01 1.733863e-01 6.543573e-02 -1.451970e-01 -2.654328e-01 -4.208599e-01 -5.470093e-01 -6.416651e-01 -7.678849e-01 -7.987912e-01 -9.199616e-01 -8.867805e-01 -9.985837e-01 -9.035344e-01 -1.002479e+00 -8.501716e-01 -9.335978e-01 -7.308132e-01 -7.968843e-01 -5.522825e-01 -5.999276e-01 -3.236613e-01 -3.524401e-01 -5.566584e-02 -6.555133e-02 2.401141e-01 2.489900e-01 5.519911e-01 5.795532e-01 8.688205e-01 9.151519e-01 1.180395e+00 1.245680e+00 1.477559e+00 
1.834648e+00 2.010483e+00 2.128238e+00 2.260380e+00 2.399694e+00 2.481848e+00 2.640463e+00 2.667654e+00 2.841775e+00 2.810659e+00 2.994843e+00 2.904080e+00 3.091366e+00 2.941999e+00 3.124318e+00 2.920040e+00 3.088879e+00 2.836097e+00 2.983308e+00 2.690940e+00 2.809558e+00 2.488573e+00 2.573489e+00 2.236267e+00 2.284657e+00 1.944286e+00 1.955745e+00 1.625329e+00 1.601742e+00 1.293778e+00 1.238962e+00 9.647861e-01 8.840120e-01 6.533194e-01 5.527738e-01 3.732253e-01 2.594984e-01 1.364537e-01 1.610474e-02 -4.749879e-02 -1.682781e-01 -1.719042e-01 -2.875347e-01 -2.329247e-01 -3.386112e-01 -2.296065e-01 -3.214466e-01 -1.637881e-01 -2.388163e-01 -3.991520e-02 -9.606819e-02 1.352768e-01 9.928833e-02 3.532487e-01 3.381529e-01 6.042887e-01 6.105078e-01 8.782006e-01 9.060786e-01 1.164918e+00 1.214849e+00 1.454932e+00 1.527343e+00 1.739476e+00 
1.614586e+00 1.815863e+00 1.894954e+00 2.052659e+00 2.147853e+00 2.255180e+00 2.365323e+00 2.416608e+00 2.539214e+00 2.530304e+00 2.661370e+00 2.590096e+00 2.724136e+00 2.590815e+00 2.721171e+00 2.529022e+00 2.648415e+00 2.403764e+00 2.505041e+00 2.217204e+00 2.294148e+00 1.974982e+00 2.023028e+00 1.686210e+00 1.702952e+00 1.363101e+00 1.348514e+00 1.020282e+00 9.766181e-01 6.738330e-01 6.052473e-01 3.401656e-01 2.521365e-01 3.484933e-02 -6.647866e-02 -2.284487e-01 -3.368738e-01 -4.387526e-01 -5.484842e-01 -5.882091e-01 -6.941681e-01 -6.721869e-01 -7.701661e-01 -6.891502e-01 -7.758853e-01 -6.404322e-01 -7.136160e-01 -5.299790e-01 -5.882240e-01 -3.640660e-01 -4.067947e-01 -1.509300e-01 -1.781764e-01 9.973145e-02 8.759883e-02 3.773856e-01 3.799659e-01 6.713258e-01 6.884379e-01 9.712433e-01 1.003058e+00 1.267599e+00 1.314610e+00 1.551752e+00 
1.924921e+00 2.117542e+00 2.213391e+00 2.365512e+00 2.482766e+00 2.586781e+00 2.724667e+00 2.773937e+00 2.930183e+00 2.919462e+00 3.090013e+00 3.016022e+00 3.194995e+00 3.057052e+00 3.236996e+00 3.037567e+00 3.210035e+00 2.955048e+00 3.111401e+00 2.810178e+00 2.942481e+00 2.607251e+00 2.709096e+00 2.354151e+00 2.421278e+00 2.061915e+00 2.092554e+00 1.743988e+00 1.738895e+00 1.415270e+00 1.377494e+00 1.091086e+00 1.025512e+00 7.861594e-01 6.989210e-01 5.137276e-01 4.115830e-01 2.848674e-01 1.746454e-01 1.081058e-01 -3.743114e-03 -1.072266e-02 -1.184579e-01 -6.844855e-02 -1.672682e-01 -6.446562e-02 -1.506414e-01 -6.101137e-04 -7.152636e-02 1.189805e-01 6.489941e-02 2.880878e-01 2.515728e-01 4.987823e-01 4.800240e-01 7.419635e-01 7.409681e-01 1.007997e+00 1.024907e+00 1.287315e+00 1.322606e+00 1.570844e+00 1.625348e+00 1.850183e+00 
1.686913e+00 1.906955e+00 1.962359e+00 2.143184e+00 2.214418e+00 2.348069e+00 2.435661e+00 2.514845e+00 2.618005e+00 2.636526e+00 2.752763e+00 2.706156e+00 2.831110e+00 2.717413e+00 2.844975e+00 2.665509e+00 2.788294e+00 2.548220e+00 2.658338e+00 2.366804e+00 2.456823e+00 2.126576e+00 2.190457e+00 1.836947e+00 1.870811e+00 1.510961e+00 1.513528e+00 1.164378e+00 1.137034e+00 8.144607e-01 7.609389e-01 4.785911e-01 4.043379e-01 1.728745e-01 8.425174e-02 -8.903462e-02 -1.855260e-01 -2.966897e-01 -3.950117e-01 -4.431069e-01 -5.380609e-01 -5.246076e-01 -6.120266e-01 -5.404467e-01 -6.172789e-01 -4.924267e-01 -5.567547e-01 -3.846032e-01 -4.355986e-01 -2.230709e-01 -2.608489e-01 -1.572321e-02 -4.106836e-02 2.281367e-01 2.141579e-01 4.983711e-01 4.948365e-01 7.846827e-01 7.911737e-01 1.077226e+00 1.094030e+00 1.367005e+00 1.395116e+00 1.645987e+00 
2.026294e+00 2.243987e+00 2.317639e+00 2.497340e+00 2.593309e+00 2.725825e+00 2.845255e+00 2.921847e+00 3.064275e+00 3.077227e+00 3.240029e+00 3.183493e+00 3.361602e+00 3.232619e+00 3.418633e+00 3.218129e+00 3.402865e+00 3.136351e+00 3.309781e+00 2.987473e+00 3.139867e+00 2.776103e+00 2.899135e+00 2.511169e+00 2.598805e+00 2.205236e+00 2.254296e+00 1.873435e+00 1.883789e+00 1.532227e+00 1.506609e+00 1.198122e+00 1.141621e+00 8.865013e-01 8.058135e-01 6.106552e-01 5.132660e-01 3.811803e-01 2.746360e-01 2.057754e-01 9.711690e-02 8.935496e-02 -1.528694e-02 3.431749e-02 -6.136359e-02 4.080152e-02 -4.232609e-02 1.068316e-01 3.845096e-02 2.283583e-01 1.756175e-01 3.993101e-01 3.620776e-01 6.118278e-01 5.894006e-01 8.567837e-01 8.484322e-01 1.124506e+00 1.129973e+00 1.405500e+00 1.425320e+00 1.690944e+00 1.726522e+00 1.972867e+00 
1.775588e+00 2.022784e+00 2.053148e+00 2.265050e+00 2.311799e+00 2.479064e+00 2.544897e+00 2.658176e+00 2.744379e+00 2.794798e+00 2.900569e+00 2.880588e+00 3.002563e+00 2.907172e+00 3.039327e+00 2.867383e+00 3.001447e+00 2.756801e+00 2.883197e+00 2.575218e+00 2.684350e+00 2.327569e+00 2.411168e+00 2.024044e+00 2.076309e+00 1.679419e+00 1.697753e+00 1.311806e+00 1.297048e+00 9.410394e-01 8.971331e-01 5.868608e-01 5.200198e-01 2.670888e-01 1.846692e-01 -3.877735e-03 -9.447356e-02 -2.158670e-01 -3.079777e-01 -3.629226e-01 -4.510374e-01 -4.426900e-01 -5.225996e-01 -4.556018e-01 -5.244472e-01 -4.042236e-01 -4.605230e-01 -2.929345e-01 -3.365642e-01 -1.278898e-01 -1.599315e-01 8.297256e-02 6.059562e-02 3.301681e-01 3.152653e-01 6.032791e-01 5.940482e-01 8.918069e-01 8.873896e-01 1.185971e+00 1.186769e+00 1.477205e+00 1.484908e+00 1.758233e+00 
2.136092e+00 2.388195e+00 2.437560e+00 2.654033e+00 2.727573e+00 2.897325e+00 2.998770e+00 3.110394e+00 3.241629e+00 3.284102e+00 3.444222e+00 3.408101e+00 3.592751e+00 3.471800e+00 3.673068e+00 3.465980e+00 3.673008e+00 3.384754e+00 3.584990e+00 3.227261e+00 3.408071e+00 2.998520e+00 3.148771e+00 2.709189e+00 2.820511e+00 2.374422e+00 2.442037e+00 2.012287e+00 2.035354e+00 1.642074e+00 1.623530e+00 1.282668e+00 1.228550e+00 9.510626e-01 8.694448e-01 6.612069e-01 5.610303e-01 4.234203e-01 3.135142e-01 2.444583e-01 1.328603e-01 1.280479e-01 2.155522e-02 7.556035e-02 -2.057511e-02 8.652092e-02 4.247282e-03 1.587747e-01 9.203609e-02 2.883091e-01 2.370388e-01 4.689642e-01 4.317166e-01 6.924325e-01 6.670659e-01 9.488343e-01 9.333852e-01 1.227742e+00 1.221230e+00 1.519229e+00 1.522176e+00 1.814561e+00 1.829125e+00 2.106347e+00 
1.877378e+00 2.160894e+00 2.162843e+00 2.415164e+00 2.434730e+00 2.644960e+00 2.687746e+00 2.843997e+00 2.914042e+00 3.003901e+00 3.102568e+00 3.114225e+00 3.239246e+00 3.163305e+00 3.308323e+00 3.140048e+00 3.294972e+00 3.036383e+00 3.188655e+00 2.849700e+00 2.986215e+00 2.584438e+00 2.693561e+00 2.252241e+00 2.325505e+00 1.870867e+00 1.904128e+00 1.462387e+00 1.456268e+00 1.051029e+00 1.010520e+00 6.607203e-01 5.939318e-01 3.124935e-01 2.288730e-01 2.229788e-02 -6.906360e-02 -1.999807e-01 -2.913894e-01 -3.500280e-01 -4.355114e-01 -4.276283e-01 -5.028859e-01 -4.350463e-01 -4.973851e-01 -3.759301e-01 -4.243233e-01 -2.550199e-01 -2.902005e-01 -7.852470e-02 -1.029058e-01 1.453362e-01 1.281190e-01 4.062843e-01 3.922600e-01 6.927696e-01 6.787008e-01 9.932928e-01 9.775654e-01 1.297646e+00 1.280747e+00 1.597606e+00 1.582158e+00 1.886951e+00 
2.251385e+00 2.548404e+00 2.568936e+00 2.833263e+00 2.880652e+00 3.099040e+00 3.180617e+00 3.338294e+00 3.459248e+00 3.540678e+00 3.702474e+00 3.693006e+00 3.892107e+00 3.780496e+00 4.007877e+00 3.789237e+00 4.031106e+00 3.709427e+00 3.949098e+00 3.538299e+00 3.758656e+00 3.281532e+00 3.467367e+00 2.952646e+00 3.092431e+00 2.570976e+00 2.657987e+00 2.159210e+00 2.192061e+00 1.741106e+00 1.723606e+00 1.339404e+00 1.279602e+00 9.738643e-01 8.823844e-01 6.596827e-01 5.478945e-01 4.068317e-01 2.855285e-01 2.205872e-01 9.925291e-02 1.028158e-01 -1.077939e-02 5.335265e-02 -4.674198e-02 7.094433e-02 -1.214922e-02 1.534343e-01 8.840302e-02 2.971361e-01 2.487805e-01 4.958018e-01 4.606793e-01 7.400994e-01 7.137569e-01 1.018375e+00 9.968088e-01 1.318392e+00 1.299384e+00 1.629107e+00 1.613027e+00 1.941718e+00 1.931707e+00 2.249761e+00 
1.988920e+00 2.318671e+00 2.286113e+00 2.589748e+00 2.576528e+00 2.841611e+00 2.857310e+00 3.068946e+00 3.121473e+00 3.262585e+00 3.356414e+00 3.409108e+00 3.543528e+00 3.491775e+00 3.659747e+00 3.493123e+00 3.681462e+00 3.398981e+00 3.590237e+00 3.202759e+00 3.378298e+00 2.908241e+00 3.051360e+00 2.529617e+00 2.628028e+00 2.089422e+00 2.136986e+00 1.615849e+00 1.613373e+00 1.139966e+00 1.094737e+00 6.924933e-01 6.163033e-01 2.998606e-01 2.059461e-01 -1.944871e-02 -1.192685e-01 -2.563290e-01 -3.530057e-01 -4.095815e-01 -4.967317e-01 -4.827491e-01 -5.560459e-01 -4.810243e-01 -5.378815e-01 -4.094295e-01 -4.491814e-01 -2.726889e-01 -2.970050e-01 -7.652382e-02 -8.960660e-02 1.706137e-01 1.625285e-01 4.568633e-01 4.469552e-01 7.682208e-01 7.509282e-01 1.090946e+00 1.063421e+00 1.413708e+00 1.376493e+00 1.728619e+00 1.685593e+00 2.031067e+00 
2.368804e+00 2.722387e+00 2.706143e+00 3.031565e+00 3.045480e+00 3.327266e+00 3.383794e+00 3.603053e+00 3.712265e+00 3.847297e+00 4.014313e+00 4.042740e+00 4.265318e+00 4.167936e+00 4.435221e+00 4.201044e+00 4.494437e+00 4.125421e+00 4.421640e+00 3.934984e+00 4.210087e+00 3.636669e+00 3.869610e+00 3.248894e+00 3.423857e+00 2.797626e+00 2.905416e+00 2.312463e+00 2.351296e+00 1.823718e+00 1.799230e+00 1.359958e+00 1.283869e+00 9.452913e-01 8.325936e-01 5.968182e-01 4.626324e-01 3.236320e-01 1.814501e-01 1.282409e-01 -1.059996e-02 9.272922e-03 -1.171862e-01 -3.591359e-02 -1.434677e-01 -9.535086e-03 -9.451021e-02 8.687743e-02 2.493808e-02 2.509941e-01 2.089932e-01 4.770019e-01 4.484557e-01 7.537824e-01 7.304667e-01 1.066165e+00 1.040704e+00 1.398335e+00 1.366464e+00 1.737080e+00 1.698838e+00 2.073436e+00 2.033286e+00 2.402565e+00 
2.106592e+00 2.492966e+00 2.416154e+00 2.783538e+00 2.727953e+00 3.062784e+00 3.043488e+00 3.327586e+00 3.358123e+00 3.568382e+00 3.658082e+00 3.767846e+00 3.918701e+00 3.901563e+00 4.105671e+00 3.941687e+00 4.180890e+00 3.863657e+00 4.112533e+00 3.654107e+00 3.885385e+00 3.316151e+00 3.505560e+00 2.868565e+00 2.998269e+00 2.341363e+00 2.402419e+00 1.771625e+00 1.765495e+00 1.200491e+00 1.138736e+00 6.694186e-01 5.705783e-01 2.138944e-01 9.786440e-02 -1.436315e-01 -2.609540e-01 -3.963082e-01 -5.046311e-01 -5.492203e-01 -6.423611e-01 -6.127618e-01 -6.866825e-01 -5.968717e-01 -6.489118e-01 -5.080738e-01 -5.375123e-01 -3.497810e-01 -3.590264e-01 -1.254940e-01 -1.210391e-01 1.567798e-01 1.646491e-01 4.823334e-01 4.821041e-01 8.323016e-01 8.146330e-01 1.188558e+00 1.148695e+00 1.537616e+00 1.476204e+00 1.872089e+00 1.794795e+00 2.190021e+00 
2.484397e+00 2.907001e+00 2.841347e+00 3.243327e+00 3.211324e+00 3.575388e+00 3.596806e+00 3.899334e+00 3.991696e+00 4.202700e+00 4.377182e+00 4.462708e+00 4.719618e+00 4.647456e+00 4.973240e+00 4.721583e+00 5.089777e+00 4.656237e+00 5.032936e+00 4.439556e+00 4.790442e+00 4.081279e+00 4.377125e+00 3.608647e+00 3.827969e+00 3.058173e+00 3.188521e+00 2.469285e+00 2.508474e+00 1.881315e+00 1.838147e+00 1.331378e+00 1.224046e+00 8.504950e-01 7.014848e-01 4.586530e-01 2.885868e-01 1.626345e-01 -1.176384e-02 -4.052893e-02 -2.059191e-01 -1.580542e-01 -3.039000e-01 -1.967507e-01 -3.154363e-01 -1.600562e-01 -2.473692e-01 -4.739166e-02 -1.031443e-01 1.429531e-01 1.137857e-01 4.074203e-01 3.936711e-01 7.318524e-01 7.189396e-01 1.094157e+00 1.069069e+00 1.471691e+00 1.426924e+00 1.847430e+00 1.782567e+00 2.212369e+00 2.133791e+00 2.564661e+00 
2.226490e+00 2.679624e+00 2.543950e+00 2.988643e+00 2.875635e+00 3.298389e+00 3.230560e+00 3.610224e+00 3.609442e+00 3.915506e+00 3.999085e+00 4.192331e+00 4.367514e+00 4.404946e+00 4.663340e+00 4.508401e+00 4.823885e+00 4.459846e+00 4.793612e+00 4.233850e+00 4.545148e+00 3.833681e+00 4.087236e+00 3.287134e+00 3.457086e+00 2.635856e+00 2.708943e+00 1.928809e+00 1.907441e+00 1.220956e+00 1.124100e+00 5.707806e-01 4.293725e-01 2.991252e-02 -1.241301e-01 -3.726729e-01 -5.177782e-01 -6.360533e-01 -7.621945e-01 -7.782278e-01 -8.813943e-01 -8.222051e-01 -8.994109e-01 -7.856272e-01 -8.335716e-01 -6.762136e-01 -6.929265e-01 -4.928670e-01 -4.805416e-01 -2.324497e-01 -2.001645e-01 9.966631e-02 1.350068e-01 4.833863e-01 5.021776e-01 8.900885e-01 8.767994e-01 1.293362e+00 1.240513e+00 1.676100e+00 1.584826e+00 2.032090e+00 1.910783e+00 2.363949e+00 
2.593640e+00 3.097608e+00 2.963514e+00 3.459331e+00 3.361654e+00 3.831596e+00 3.800400e+00 4.216157e+00 4.280516e+00 4.601424e+00 4.783077e+00 4.957909e+00 5.262703e+00 5.237585e+00 5.648322e+00 5.381597e+00 5.858483e+00 5.338401e+00 5.829885e+00 5.085744e+00 5.541619e+00 4.640272e+00 5.020472e+00 4.046267e+00 4.322360e+00 3.357147e+00 3.512215e+00 2.625166e+00 2.655926e+00 1.900809e+00 1.820835e+00 1.233659e+00 1.072675e+00 6.665992e-01 4.607026e-01 2.246476e-01 1.984732e-03 -9.121413e-02 -3.111778e-01 -2.949326e-01 -4.974137e-01 -4.042128e-01 -5.770594e-01 -4.329884e-01 -5.670118e-01 -3.865614e-01 -4.763956e-01 -2.593548e-01 -3.039496e-01 -3.922307e-02 -4.439953e-02 2.778588e-01 2.934820e-01 6.720315e-01 6.825350e-01 1.106900e+00 1.089694e+00 1.546821e+00 1.489586e+00 1.968564e+00 1.870709e+00 2.363929e+00 2.234906e+00 2.736695e+00 