# vtk DataFile Version 2.0
Comment goes here
ASCII

DATASET STRUCTURED_POINTS
DIMENSIONS    64   64   1

ORIGIN    0.000   0.000   0.000
SPACING   0.0156250.015625   1.000

POINT_DATA   4096
SCALARS P double
LOOKUP_TABLE default

4.424552e-01 4.027153e-01 4.108559e-01 3.615062e-01 3.818676e-01 3.255062e-01 3.549204e-01 2.945690e-01 3.296233e-01 2.688699e-01 3.061962e-01 2.492641e-01 2.860518e-01 2.375555e-01 2.724683e-01 2.365090e-01 2.708385e-01 2.492599e-01 2.871318e-01 2.777436e-01 3.235530e-01 3.214134e-01 3.773340e-01 3.781933e-01 4.423034e-01 4.439838e-01 5.116608e-01 5.137903e-01 5.796679e-01 5.829900e-01 6.421254e-01 6.479516e-01 6.962424e-01 7.061249e-01 7.403303e-01 7.558589e-01 7.734922e-01 7.961229e-01 7.953765e-01 8.262367e-01 8.060328e-01 8.456822e-01 8.058767e-01 8.540170e-01 7.957052e-01 8.508716e-01 7.766608e-01 8.360084e-01 7.500938e-01 8.094870e-01 7.173996e-01 7.719764e-01 6.799819e-01 7.250842e-01 6.393583e-01 6.713918e-01 5.972025e-01 6.140762e-01 5.552062e-01 5.563151e-01 5.148326e-01 5.007575e-01 4.770951e-01 4.492314e-01 
4.693702e-01 4.195481e-01 4.364448e-01 3.774941e-01 4.067890e-01 3.413879e-01 3.788512e-01 3.101493e-01 3.511933e-01 2.829973e-01 3.231111e-01 2.598846e-01 2.955615e-01 2.419184e-01 2.721780e-01 2.316464e-01 2.594334e-01 2.329768e-01 2.643922e-01 2.503250e-01 2.904627e-01 2.865445e-01 3.380070e-01 3.411041e-01 4.029052e-01 4.101670e-01 4.785343e-01 4.883561e-01 5.582831e-01 5.704115e-01 6.368206e-01 6.519885e-01 7.102490e-01 7.297262e-01 7.757297e-01 8.009278e-01 8.310000e-01 8.631351e-01 8.740131e-01 9.138069e-01 9.028335e-01 9.502545e-01 9.158457e-01 9.699077e-01 9.122184e-01 9.708507e-01 8.924096e-01 9.524209e-01 8.583943e-01 9.156145e-01 8.133947e-01 8.631625e-01 7.612416e-01 7.992867e-01 7.057725e-01 7.290264e-01 6.503876e-01 6.573437e-01 5.977514e-01 5.883559e-01 5.496281e-01 5.249123e-01 5.068462e-01 4.685244e-01 
4.411159e-01 3.999013e-01 4.106162e-01 3.604264e-01 3.849761e-01 3.288086e-01 3.637614e-01 3.047095e-01 3.467409e-01 2.880304e-01 3.341913e-01 2.791390e-01 3.272052e-01 2.789732e-01 3.278956e-01 2.889463e-01 3.392160e-01 3.105412e-01 3.639692e-01 3.445729e-01 4.030987e-01 3.905870e-01 4.549594e-01 4.469132e-01 5.158671e-01 5.106891e-01 5.813013e-01 5.783760e-01 6.468864e-01 6.464086e-01 7.088772e-01 7.116334e-01 7.642709e-01 7.714726e-01 8.107289e-01 8.238899e-01 8.464521e-01 8.672576e-01 8.701070e-01 9.002175e-01 8.808618e-01 9.215914e-01 8.785276e-01 9.303511e-01 8.637070e-01 9.256215e-01 8.377955e-01 9.067290e-01 8.027273e-01 8.734190e-01 7.605782e-01 8.263923e-01 7.133676e-01 7.679423e-01 6.632359e-01 7.019434e-01 6.124956e-01 6.330436e-01 5.633923e-01 5.656259e-01 5.177668e-01 5.030723e-01 4.768284e-01 4.475041e-01 
4.500627e-01 3.979439e-01 4.184083e-01 3.581367e-01 3.923715e-01 3.270027e-01 3.705812e-01 3.032597e-01 3.519820e-01 2.860009e-01 3.362477e-01 2.749711e-01 3.242464e-01 2.707711e-01 3.183645e-01 2.749224e-01 3.222711e-01 2.896642e-01 3.397196e-01 3.173296e-01 3.728666e-01 3.593099e-01 4.217977e-01 4.152164e-01 4.842047e-01 4.828547e-01 5.561660e-01 5.589447e-01 6.332968e-01 6.399475e-01 7.115108e-01 7.225623e-01 7.872346e-01 8.038061e-01 8.572389e-01 8.807770e-01 9.183171e-01 9.502788e-01 9.670347e-01 1.008518e+00 9.997492e-01 1.051106e+00 1.013063e+00 1.073547e+00 1.004728e+00 1.072224e+00 9.747364e-01 1.045573e+00 9.259507e-01 9.948540e-01 8.635819e-01 9.241934e-01 7.936912e-01 8.401709e-01 7.219916e-01 7.504510e-01 6.531170e-01 6.620941e-01 5.902878e-01 5.803965e-01 5.352932e-01 5.085259e-01 4.886831e-01 4.477504e-01 
4.333273e-01 3.880471e-01 4.048389e-01 3.510581e-01 3.833744e-01 3.244654e-01 3.683338e-01 3.074206e-01 3.593425e-01 2.993366e-01 3.564571e-01 3.000341e-01 3.603076e-01 3.097642e-01 3.721110e-01 3.290903e-01 3.934364e-01 3.586079e-01 4.256161e-01 3.985389e-01 4.689614e-01 4.483856e-01 5.223478e-01 5.068278e-01 5.833752e-01 5.717589e-01 6.488876e-01 6.405390e-01 7.154940e-01 7.103358e-01 7.798977e-01 7.783951e-01 8.390181e-01 8.421711e-01 8.899823e-01 8.993315e-01 9.300937e-01 9.477009e-01 9.568944e-01 9.852146e-01 9.684060e-01 1.009931e+00 9.635481e-01 1.020090e+00 9.425962e-01 1.014146e+00 9.073757e-01 9.907524e-01 8.608606e-01 9.489578e-01 8.062291e-01 8.891533e-01 7.462489e-01 8.146280e-01 6.838735e-01 7.315111e-01 6.223628e-01 6.469330e-01 5.647627e-01 5.670721e-01 5.133520e-01 4.961324e-01 4.694135e-01 4.362686e-01 
4.225470e-01 3.654297e-01 3.940828e-01 3.296800e-01 3.734294e-01 3.050995e-01 3.590484e-01 2.898729e-01 3.498645e-01 2.827105e-01 3.454993e-01 2.829905e-01 3.464641e-01 2.908143e-01 3.542057e-01 3.069520e-01 3.708387e-01 3.326220e-01 3.984824e-01 3.690682e-01 4.384560e-01 4.170019e-01 4.908474e-01 4.761781e-01 5.543795e-01 5.453502e-01 6.267342e-01 6.225799e-01 7.050764e-01 7.056419e-01 7.864341e-01 7.922701e-01 8.677752e-01 8.801194e-01 9.457976e-01 9.664317e-01 1.016554e+00 1.047508e+00 1.075117e+00 1.118201e+00 1.115568e+00 1.171797e+00 1.131673e+00 1.200722e+00 1.118522e+00 1.198352e+00 1.074924e+00 1.161427e+00 1.005217e+00 1.091598e+00 9.183541e-01 9.951418e-01 8.241657e-01 8.826817e-01 7.312195e-01 7.663421e-01 6.457685e-01 6.563876e-01 5.714911e-01 5.594882e-01 5.098233e-01 4.787165e-01 4.605720e-01 4.144470e-01 
4.166233e-01 3.639906e-01 3.913120e-01 3.308171e-01 3.750215e-01 3.103960e-01 3.667356e-01 3.011050e-01 3.657499e-01 3.017490e-01 3.717963e-01 3.116258e-01 3.850823e-01 3.304798e-01 4.062251e-01 3.583627e-01 4.360397e-01 3.954106e-01 4.751720e-01 4.415725e-01 5.236779e-01 4.963726e-01 5.807642e-01 5.587859e-01 6.447958e-01 6.272299e-01 7.134990e-01 6.996768e-01 7.842031e-01 7.738250e-01 8.540007e-01 8.472438e-01 9.197816e-01 9.174358e-01 9.781728e-01 9.818168e-01 1.025488e+00 1.037663e+00 1.057839e+00 1.082106e+00 1.071574e+00 1.112250e+00 1.064113e+00 1.125395e+00 1.035041e+00 1.119183e+00 9.869142e-01 1.091371e+00 9.247642e-01 1.039557e+00 8.537651e-01 9.626402e-01 7.772050e-01 8.653112e-01 6.989908e-01 7.579289e-01 6.238890e-01 6.519755e-01 5.561551e-01 5.562493e-01 4.985222e-01 4.756460e-01 4.520684e-01 4.117425e-01 
3.840420e-01 3.185798e-01 3.611317e-01 2.894916e-01 3.478059e-01 2.735822e-01 3.421196e-01 2.682785e-01 3.427700e-01 2.717988e-01 3.491733e-01 2.831445e-01 3.614879e-01 3.020266e-01 3.805396e-01 3.287302e-01 4.075870e-01 3.638971e-01 4.439240e-01 4.082272e-01 4.904423e-01 4.621518e-01 5.473468e-01 5.256045e-01 6.140695e-01 5.979931e-01 6.894039e-01 6.783590e-01 7.717333e-01 7.655944e-01 8.591693e-01 8.585464e-01 9.494593e-01 9.558571e-01 1.039608e+00 1.055437e+00 1.125246e+00 1.153560e+00 1.199916e+00 1.243781e+00 1.254651e+00 1.316218e+00 1.278579e+00 1.358225e+00 1.261553e+00 1.357562e+00 1.199261e+00 1.307697e+00 1.098537e+00 1.211204e+00 9.761523e-01 1.077244e+00 8.482637e-01 9.237034e-01 7.276014e-01 7.706209e-01 6.222869e-01 6.330533e-01 5.359278e-01 5.188075e-01 4.687519e-01 4.297414e-01 4.189980e-01 3.641129e-01 
3.881686e-01 3.241255e-01 3.678005e-01 2.971237e-01 3.581255e-01 2.848100e-01 3.575193e-01 2.845947e-01 3.648592e-01 2.946470e-01 3.795552e-01 3.138332e-01 4.015056e-01 3.415787e-01 4.309834e-01 3.776859e-01 4.684473e-01 4.221221e-01 5.142848e-01 4.747968e-01 5.685445e-01 5.353666e-01 6.307467e-01 6.031059e-01 6.998238e-01 6.768582e-01 7.741666e-01 7.550683e-01 8.516997e-01 8.358559e-01 9.299015e-01 9.170750e-01 1.005707e+00 9.963048e-01 1.075296e+00 1.070759e+00 1.133866e+00 1.137153e+00 1.175631e+00 1.191645e+00 1.194344e+00 1.230039e+00 1.184667e+00 1.248361e+00 1.144507e+00 1.243464e+00 1.077536e+00 1.212460e+00 9.933042e-01 1.150318e+00 9.013862e-01 1.050493e+00 8.035373e-01 9.195920e-01 7.046404e-01 7.768058e-01 6.122932e-01 6.415623e-01 5.327141e-01 5.262033e-01 4.689355e-01 4.354888e-01 4.212128e-01 3.690727e-01 
3.316448e-01 2.538488e-01 3.174460e-01 2.352490e-01 3.138412e-01 2.309156e-01 3.183890e-01 2.374590e-01 3.295259e-01 2.526569e-01 3.464829e-01 2.752509e-01 3.691846e-01 3.047409e-01 3.981091e-01 3.411779e-01 4.340836e-01 3.849449e-01 4.780240e-01 4.365258e-01 5.306763e-01 4.962961e-01 5.924450e-01 5.643976e-01 6.633451e-01 6.407463e-01 7.430726e-01 7.251696e-01 8.311156e-01 8.175945e-01 9.267767e-01 9.181494e-01 1.028962e+00 1.026986e+00 1.135604e+00 1.143578e+00 1.242622e+00 1.265253e+00 1.342417e+00 1.384941e+00 1.422296e+00 1.488810e+00 1.463965e+00 1.555760e+00 1.446695e+00 1.562394e+00 1.357654e+00 1.495496e+00 1.207583e+00 1.361506e+00 1.032148e+00 1.171048e+00 8.571688e-01 9.562540e-01 7.009189e-01 7.521028e-01 5.731061e-01 5.803557e-01 4.757737e-01 4.483011e-01 4.062290e-01 3.539880e-01 3.598139e-01 2.914274e-01 
3.448760e-01 2.646066e-01 3.322019e-01 2.476438e-01 3.312540e-01 2.463883e-01 3.397115e-01 2.572437e-01 3.560558e-01 2.778549e-01 3.794670e-01 3.068397e-01 4.096895e-01 3.435257e-01 4.468778e-01 3.877090e-01 4.914147e-01 4.394285e-01 5.437094e-01 4.987560e-01 6.039953e-01 5.656110e-01 6.721690e-01 6.396211e-01 7.476945e-01 7.200388e-01 8.295690e-01 8.057241e-01 9.163074e-01 8.951676e-01 1.005870e+00 9.865068e-01 1.095432e+00 1.077465e+00 1.180923e+00 1.165161e+00 1.256410e+00 1.245791e+00 1.313648e+00 1.314302e+00 1.342341e+00 1.364502e+00 1.331898e+00 1.390344e+00 1.275825e+00 1.388260e+00 1.178785e+00 1.357191e+00 1.061055e+00 1.289354e+00 9.450440e-01 1.158977e+00 8.205613e-01 9.755529e-01 6.940353e-01 7.791763e-01 5.796967e-01 6.040355e-01 4.870403e-01 4.660720e-01 4.185886e-01 3.671654e-01 3.724191e-01 3.023149e-01 
2.627452e-01 1.681027e-01 2.614819e-01 1.653746e-01 2.705736e-01 1.764064e-01 2.872131e-01 1.972131e-01 3.097211e-01 2.253900e-01 3.372948e-01 2.596700e-01 3.698067e-01 2.995856e-01 4.076240e-01 3.452018e-01 4.514268e-01 3.968916e-01 5.020242e-01 4.551420e-01 5.601970e-01 5.204059e-01 6.266061e-01 5.930354e-01 7.017921e-01 6.733332e-01 7.862583e-01 7.617370e-01 8.805827e-01 8.591033e-01 9.854529e-01 9.669894e-01 1.101468e+00 1.087708e+00 1.228483e+00 1.223714e+00 1.364152e+00 1.375602e+00 1.501269e+00 1.537997e+00 1.623833e+00 1.693521e+00 1.702761e+00 1.807423e+00 1.696188e+00 1.832409e+00 1.567094e+00 1.739248e+00 1.329482e+00 1.554611e+00 1.073651e+00 1.274695e+00 8.334122e-01 9.648040e-01 6.334386e-01 6.900394e-01 4.834211e-01 4.793118e-01 3.802405e-01 3.336882e-01 3.151193e-01 2.419996e-01 2.786143e-01 1.907078e-01 
2.837279e-01 1.819172e-01 2.828539e-01 1.807862e-01 2.935522e-01 1.946346e-01 3.129263e-01 2.191439e-01 3.392403e-01 2.517674e-01 3.716343e-01 2.911840e-01 4.098959e-01 3.369013e-01 4.542722e-01 3.889610e-01 5.052961e-01 4.477025e-01 5.636148e-01 5.135569e-01 6.298207e-01 5.868605e-01 7.042961e-01 6.676912e-01 7.870899e-01 7.557482e-01 8.778378e-01 8.502928e-01 9.757177e-01 9.501561e-01 1.079369e+00 1.053766e+00 1.186599e+00 1.159093e+00 1.293612e+00 1.263377e+00 1.393691e+00 1.362533e+00 1.475767e+00 1.450073e+00 1.523563e+00 1.516354e+00 1.516563e+00 1.550670e+00 1.436605e+00 1.548920e+00 1.285277e+00 1.521733e+00 1.108363e+00 1.470894e+00 9.770539e-01 1.300171e+00 8.204267e-01 1.026528e+00 6.548253e-01 7.459473e-01 5.126166e-01 5.185807e-01 4.078175e-01 3.592093e-01 3.394298e-01 2.594831e-01 3.005564e-01 2.048215e-01 
1.757186e-01 5.959071e-02 1.927404e-01 7.971177e-02 2.180154e-01 1.106093e-01 2.488129e-01 1.483577e-01 2.836781e-01 1.908853e-01 3.220377e-01 2.373059e-01 3.639353e-01 2.874872e-01 4.098401e-01 3.417587e-01 4.604905e-01 4.006965e-01 5.167640e-01 4.649555e-01 5.795839e-01 5.351503e-01 6.498886e-01 6.118135e-01 7.286854e-01 6.954742e-01 8.171928e-01 7.869071e-01 9.170411e-01 8.875921e-01 1.030452e+00 1.000380e+00 1.160265e+00 1.130219e+00 1.309557e+00 1.284372e+00 1.480209e+00 1.470630e+00 1.669131e+00 1.691144e+00 1.861010e+00 1.930109e+00 2.015274e+00 2.133978e+00 2.050940e+00 2.200764e+00 1.861147e+00 2.048350e+00 1.440490e+00 1.812056e+00 1.069164e+00 1.378243e+00 7.420609e-01 9.136036e-01 4.942276e-01 5.454594e-01 3.308525e-01 2.999339e-01 2.353612e-01 1.559493e-01 1.876692e-01 8.334955e-02 1.715639e-01 5.706299e-02 
2.025108e-01 7.406480e-02 2.190881e-01 9.654459e-02 2.451008e-01 1.304026e-01 2.775695e-01 1.714329e-01 3.149347e-01 2.175280e-01 3.565930e-01 2.678804e-01 4.026092e-01 3.225092e-01 4.535266e-01 3.819630e-01 5.102215e-01 4.471077e-01 5.737682e-01 5.189402e-01 6.452933e-01 5.983991e-01 7.258156e-01 6.861647e-01 8.160817e-01 7.824725e-01 9.164392e-01 8.869946e-01 1.026807e+00 9.988440e-01 1.146732e+00 1.116684e+00 1.275267e+00 1.238789e+00 1.409973e+00 1.362843e+00 1.544482e+00 1.485197e+00 1.665369e+00 1.598229e+00 1.748787e+00 1.686117e+00 1.756790e+00 1.725119e+00 1.641492e+00 1.702648e+00 1.378816e+00 1.668184e+00 1.063887e+00 1.723929e+00 9.878910e-01 1.499416e+00 7.890892e-01 1.049593e+00 5.616666e-01 6.346784e-01 3.868489e-01 3.482314e-01 2.779983e-01 1.814455e-01 2.214360e-01 9.928171e-02 2.005065e-01 7.059792e-02 
7.100149e-02 -7.049926e-02 1.124048e-01 -1.956324e-02 1.574868e-01 3.580871e-02 2.044128e-01 9.295040e-02 2.524780e-01 1.508932e-01 3.016808e-01 2.096246e-01 3.524777e-01 2.696788e-01 4.056274e-01 3.318917e-01 4.620798e-01 3.972316e-01 5.228947e-01 4.666616e-01 5.891941e-01 5.410303e-01 6.621754e-01 6.210119e-01 7.432141e-01 7.071564e-01 8.340846e-01 8.001434e-01 9.372942e-01 9.013785e-01 1.056490e+00 1.014134e+00 1.196923e+00 1.145480e+00 1.365968e+00 1.308819e+00 1.572999e+00 1.524684e+00 1.825594e+00 1.814206e+00 2.121039e+00 2.181774e+00 2.420776e+00 2.564593e+00 2.588821e+00 2.737579e+00 2.323285e+00 2.373755e+00 1.425288e+00 2.186446e+00 9.446866e-01 1.441138e+00 5.106858e-01 7.159036e-01 2.286733e-01 2.454072e-01 8.319061e-02 -2.233768e-03 2.528696e-02 -1.068756e-01 1.748640e-02 -1.305013e-01 3.701326e-02 -1.112589e-01 
1.011981e-01 -5.736776e-02 1.420684e-01 -2.329048e-03 1.873847e-01 5.651870e-02 2.350916e-01 1.166134e-01 2.844231e-01 1.772008e-01 3.354095e-01 2.385301e-01 3.886353e-01 3.014693e-01 4.451178e-01 3.673137e-01 5.062350e-01 4.376627e-01 5.736550e-01 5.142937e-01 6.492297e-01 5.989838e-01 7.348232e-01 6.932543e-01 8.320677e-01 7.980602e-01 9.421161e-01 9.135281e-01 1.065590e+00 1.038916e+00 1.202978e+00 1.172879e+00 1.355283e+00 1.313780e+00 1.523342e+00 1.459798e+00 1.703489e+00 1.609352e+00 1.882131e+00 1.756270e+00 2.029401e+00 1.875556e+00 2.081896e+00 1.907576e+00 1.923810e+00 1.779523e+00 1.417590e+00 1.609707e+00 6.491315e-01 2.119668e+00 9.954696e-01 1.809165e+00 6.891547e-01 9.628611e-01 3.536686e-01 3.492116e-01 1.581468e-01 3.069238e-02 7.398142e-02 -9.770684e-02 5.448404e-02 -1.248727e-01 6.912259e-02 -1.025452e-01 
-4.749942e-02 -2.160099e-01 2.402568e-02 -1.269850e-01 9.191726e-02 -4.357993e-02 1.563487e-01 3.442654e-02 2.179778e-01 1.080498e-01 2.777256e-01 1.786389e-01 3.366752e-01 2.476842e-01 3.960198e-01 3.167260e-01 4.570268e-01 3.872832e-01 5.210082e-01 4.607660e-01 5.893074e-01 5.383589e-01 6.633323e-01 6.208955e-01 7.446878e-01 7.087816e-01 8.354634e-01 8.020857e-01 9.386888e-01 9.009947e-01 1.058884e+00 1.007059e+00 1.202814e+00 1.126367e+00 1.381523e+00 1.276631e+00 1.614463e+00 1.495980e+00 1.926321e+00 1.838856e+00 2.348527e+00 2.374768e+00 2.898242e+00 3.119298e+00 3.443500e+00 3.662666e+00 3.231034e+00 2.327146e+00 7.556499e-01 2.869337e+00 5.483430e-01 1.283737e+00 -2.968185e-02 1.513375e-01 -2.605763e-01 -3.396016e-01 -2.999169e-01 -4.826493e-01 -2.620216e-01 -4.713042e-01 -1.960104e-01 -3.996806e-01 -1.218407e-01 -3.089751e-01 
-1.600786e-02 -2.045020e-01 5.576218e-02 -1.091299e-01 1.237365e-01 -2.173740e-02 1.881919e-01 5.873519e-02 2.498640e-01 1.338506e-01 3.097741e-01 2.053842e-01 3.692103e-01 2.752927e-01 4.297714e-01 3.457677e-01 4.934300e-01 4.192902e-01 5.625768e-01 4.986252e-01 6.399985e-01 5.866941e-01 7.287162e-01 6.862561e-01 8.316051e-01 7.993735e-01 9.508174e-01 9.268005e-01 1.087387e+00 1.067709e+00 1.242009e+00 1.220175e+00 1.417826e+00 1.381762e+00 1.622187e+00 1.549216e+00 1.857749e+00 1.725284e+00 2.113912e+00 1.914404e+00 2.365244e+00 2.087150e+00 2.525596e+00 2.105427e+00 2.350008e+00 1.617904e+00 1.388038e+00 5.253605e-01 -1.307349e+00 2.870991e+00 1.246765e+00 2.308447e+00 3.357177e-01 4.649223e-01 -1.299521e-01 -3.197213e-01 -2.466609e-01 -5.222444e-01 -2.280601e-01 -5.027593e-01 -1.652002e-01 -4.128481e-01 -9.081897e-02 -3.074000e-01 
-1.711369e-01 -3.640565e-01 -6.606142e-02 -2.333025e-01 2.593283e-02 -1.209760e-01 1.080409e-01 -2.250118e-02 1.827608e-01 6.576693e-02 2.521689e-01 1.468272e-01 3.180962e-01 2.232683e-01 3.822424e-01 2.974322e-01 4.462422e-01 3.714966e-01 5.116950e-01 4.474628e-01 5.801715e-01 5.270347e-01 6.532380e-01 6.113863e-01 7.325801e-01 7.008569e-01 8.203475e-01 7.946518e-01 9.197321e-01 8.906042e-01 1.035343e+00 9.851073e-01 1.172798e+00 1.075135e+00 1.341140e+00 1.171759e+00 1.570332e+00 1.330864e+00 1.895484e+00 1.632715e+00 2.390562e+00 2.258233e+00 3.228554e+00 3.623284e+00 4.680547e+00 5.974636e+00 5.808846e+00 -1.543570e-01 -2.932817e+00 4.859263e+00 -2.087224e-01 6.040530e-02 -1.364212e+00 -1.326577e+00 -1.129227e+00 -1.395548e+00 -8.450473e-01 -1.176147e+00 -6.189998e-01 -9.261203e-01 -4.397932e-01 -7.046547e-01 -2.936333e-01 -5.189712e-01 
-1.387721e-01 -3.510931e-01 -3.248461e-02 -2.127911e-01 5.946375e-02 -9.671121e-02 1.408274e-01 3.243236e-03 2.142992e-01 9.144589e-02 2.820541e-01 1.713323e-01 3.461118e-01 2.459455e-01 4.086244e-01 3.183431e-01 4.721301e-01 3.919064e-01 5.397797e-01 4.705396e-01 6.154919e-01 5.586843e-01 7.039115e-01 6.609961e-01 8.099107e-01 7.814828e-01 9.373249e-01 9.221088e-01 1.087145e+00 1.081694e+00 1.257521e+00 1.256837e+00 1.451114e+00 1.443136e+00 1.688417e+00 1.625955e+00 1.982924e+00 1.810822e+00 2.320603e+00 2.034563e+00 2.706264e+00 2.299981e+00 3.076474e+00 2.403877e+00 2.974912e+00 1.212634e+00 2.215875e+00 -4.879601e+00 -9.487891e+00 5.458047e+00 3.868863e+00 3.166471e+00 -1.261558e+00 -1.518629e+00 -1.238073e+00 -1.739128e+00 -8.942060e-01 -1.368884e+00 -6.227460e-01 -1.012730e+00 -4.211146e-01 -7.348830e-01 -2.651534e-01 -5.206168e-01 
-2.865642e-01 -4.953277e-01 -1.491221e-01 -3.262612e-01 -3.450288e-02 -1.883108e-01 6.373457e-02 -7.231285e-02 1.499713e-01 2.794409e-02 2.274180e-01 1.169818e-01 2.986145e-01 1.983732e-01 3.657308e-01 2.751980e-01 4.307491e-01 3.503106e-01 4.955546e-01 4.264392e-01 5.619491e-01 5.060912e-01 6.316203e-01 5.912231e-01 7.061955e-01 6.826823e-01 7.876797e-01 7.794728e-01 8.795360e-01 8.775317e-01 9.870744e-01 9.658014e-01 1.111309e+00 1.016681e+00 1.238517e+00 9.993927e-01 1.419058e+00 9.996818e-01 1.652814e+00 1.027144e+00 1.964486e+00 1.181477e+00 2.606695e+00 2.514684e+00 5.333740e+00 1.271691e+01 1.405161e+01 -7.966351e+00 -2.979877e+01 8.012087e+00 1.230176e+01 -5.183136e+00 -4.082051e+00 -4.584426e+00 -2.372147e+00 -2.965244e+00 -1.473443e+00 -1.990499e+00 -9.884376e-01 -1.392610e+00 -6.788568e-01 -9.943880e-01 -4.571007e-01 -7.099410e-01 
-2.510866e-01 -4.741544e-01 -1.126750e-01 -2.994659e-01 1.309526e-03 -1.594500e-01 9.788575e-02 -4.365903e-02 1.815015e-01 5.454305e-02 2.552859e-01 1.398189e-01 3.217785e-01 2.159378e-01 3.834556e-01 2.865240e-01 4.431918e-01 3.556508e-01 5.047282e-01 4.283387e-01 5.731588e-01 5.109015e-01 6.553146e-01 6.108806e-01 7.595444e-01 7.359444e-01 8.936526e-01 8.909553e-01 1.059325e+00 1.074080e+00 1.245220e+00 1.278837e+00 1.438685e+00 1.505348e+00 1.693407e+00 1.690769e+00 2.045919e+00 1.820476e+00 2.414933e+00 2.000349e+00 2.879159e+00 2.392221e+00 3.748982e+00 3.762204e+00 6.767645e+00 1.659373e+01 3.168351e+01 5.582394e+00 -2.591593e+01 2.423970e+00 -1.226982e+01 -1.858074e+01 -5.881591e+00 -8.052501e+00 -2.891565e+00 -3.964204e+00 -1.618486e+00 -2.298187e+00 -1.011348e+00 -1.487550e+00 -6.615717e-01 -1.015149e+00 -4.261191e-01 -7.014362e-01 
-3.786278e-01 -5.887385e-01 -2.156565e-01 -3.933162e-01 -8.301175e-02 -2.375565e-01 2.797701e-02 -1.095247e-01 1.230314e-01 -1.468950e-03 2.061611e-01 9.202287e-02 2.803826e-01 1.750906e-01 3.481701e-01 2.512800e-01 4.117417e-01 3.239916e-01 4.732145e-01 3.967373e-01 5.346150e-01 4.731447e-01 5.977201e-01 5.566001e-01 6.638420e-01 6.495003e-01 7.342651e-01 7.525284e-01 8.132460e-01 8.644784e-01 9.136667e-01 9.760934e-01 1.040753e+00 1.018458e+00 1.072353e+00 7.901426e-01 1.182494e+00 5.839091e-01 1.238829e+00 1.417970e-01 9.823169e-01 -1.292196e+00 -8.881225e-02 -5.955031e+00 -2.935375e+00 -3.217578e+01 -3.723350e+01 -2.026028e+01 -3.171738e+01 -1.886293e+01 -3.197679e+01 -1.563809e+01 -4.459097e+00 -7.091129e+00 -2.810401e+00 -4.014113e+00 -1.844470e+00 -2.525218e+00 -1.250642e+00 -1.703573e+00 -8.614673e-01 -1.192413e+00 -5.858741e-01 -8.434746e-01 
-3.366113e-01 -5.523382e-01 -1.747284e-01 -3.566408e-01 -4.383618e-02 -2.017602e-01 6.452421e-02 -7.604174e-02 1.556637e-01 2.781721e-02 2.331026e-01 1.147336e-01 2.994406e-01 1.884855e-01 3.570185e-01 2.526477e-01 4.085357e-01 3.114251e-01 4.577517e-01 3.705132e-01 5.104399e-01 4.380605e-01 5.757358e-01 5.255480e-01 6.675491e-01 6.474030e-01 8.036273e-01 8.159169e-01 9.943631e-01 1.027640e+00 1.208342e+00 1.261040e+00 1.347673e+00 1.586588e+00 1.573816e+00 1.770609e+00 2.034017e+00 1.688625e+00 2.282011e+00 1.559269e+00 2.427312e+00 1.484343e+00 2.874231e+00 2.292604e+00 6.448780e+00 -1.003372e+01 -2.704870e+01 -2.389174e+01 -2.485258e+01 5.182333e+00 1.613621e-02 -6.345183e+00 -2.397538e+00 -5.333806e+00 -2.456118e+00 -3.693726e+00 -1.763703e+00 -2.452828e+00 -1.205725e+00 -1.668079e+00 -8.193324e-01 -1.159209e+00 -5.434832e-01 -8.083988e-01 
-4.357616e-01 -6.301391e-01 -2.578537e-01 -4.256077e-01 -1.140420e-01 -2.626619e-01 4.953773e-03 -1.296594e-01 1.052935e-01 -1.893090e-02 1.912190e-01 7.485305e-02 2.658265e-01 1.557360e-01 3.315912e-01 2.272333e-01 3.907349e-01 2.929299e-01 4.454540e-01 3.569435e-01 4.979444e-01 4.241467e-01 5.500125e-01 4.998408e-01 6.019534e-01 5.885082e-01 6.512792e-01 6.927644e-01 6.978820e-01 8.207986e-01 7.792710e-01 1.015713e+00 1.024591e+00 1.239443e+00 7.688981e-01 4.798766e-01 8.997541e-01 2.657713e-01 9.627888e-01 1.923689e-02 6.483268e-01 -3.936117e-01 2.839312e-02 6.049366e-01 1.598379e+00 1.017923e+01 1.563337e+01 -3.468227e+00 -3.043708e+01 2.785125e+00 1.239267e+01 -1.916350e+00 -2.082021e+00 -4.299331e+00 -2.473285e+00 -3.425977e+00 -1.899241e+00 -2.447585e+00 -1.360629e+00 -1.741523e+00 -9.592644e-01 -1.248781e+00 -6.621042e-01 -8.946048e-01 
-3.862026e-01 -5.771973e-01 -2.115220e-01 -3.776525e-01 -7.038733e-02 -2.182651e-01 4.540781e-02 -8.925002e-02 1.410092e-01 1.561331e-02 2.196068e-01 1.003363e-01 2.832407e-01 1.677719e-01 3.334656e-01 2.205385e-01 3.719867e-01 2.619495e-01 4.014080e-01 2.971285e-01 4.264528e-01 3.347133e-01 4.565241e-01 3.897680e-01 5.110391e-01 4.874135e-01 6.274706e-01 6.593782e-01 8.580349e-01 9.015039e-01 1.175634e+00 1.064438e+00 1.074562e+00 1.694808e+00 1.092533e+00 1.966593e+00 2.061821e+00 1.403213e+00 2.024510e+00 8.124419e-01 1.563661e+00 -6.493362e-02 7.524456e-01 -1.608986e+00 -1.628476e-01 -4.263959e+00 3.392532e-01 7.861616e-01 -2.743255e+01 -1.431987e+01 -7.283978e-02 -1.281977e+00 -2.414240e+00 -3.044692e+00 -2.271376e+00 -2.837528e+00 -1.765335e+00 -2.187540e+00 -1.274419e+00 -1.608137e+00 -8.943963e-01 -1.165300e+00 -6.072946e-01 -8.321085e-01 
-4.527521e-01 -6.180281e-01 -2.711942e-01 -4.205386e-01 -1.238248e-01 -2.608421e-01 -2.083068e-03 -1.299169e-01 9.971895e-02 -2.161682e-02 1.854119e-01 6.831981e-02 2.576726e-01 1.430635e-01 3.185490e-01 2.053917e-01 3.698714e-01 2.583742e-01 4.135649e-01 3.060752e-01 4.517808e-01 3.541493e-01 4.863769e-01 4.096361e-01 5.158815e-01 4.775354e-01 5.252033e-01 5.499495e-01 4.681872e-01 6.053346e-01 3.421634e-01 8.470231e-01 1.311921e+00 2.207310e+00 -1.702028e-01 -6.488378e-01 4.062892e-01 -3.038076e-01 7.851951e-01 -2.047050e-01 5.620023e-01 -5.118309e-01 1.262939e-01 -8.700576e-01 1.474621e-01 -2.052871e+00 -8.182989e-01 8.156073e-01 -7.315217e+00 -4.191609e+00 -5.457004e+00 -2.938665e+00 -3.284080e+00 -3.086621e+00 -2.550272e+00 -2.716381e+00 -1.895788e+00 -2.120922e+00 -1.369830e+00 -1.596043e+00 -9.772405e-01 -1.184478e+00 -6.814870e-01 -8.664680e-01 
-3.970157e-01 -5.526065e-01 -2.195529e-01 -3.623368e-01 -7.479457e-02 -2.070720e-01 4.414747e-02 -8.038804e-02 1.414149e-01 2.167470e-02 2.191766e-01 1.012299e-01 2.782618e-01 1.592459e-01 3.187194e-01 1.963104e-01 3.402945e-01 2.134152e-01 3.427695e-01 2.127844e-01 3.263677e-01 1.993873e-01 2.935847e-01 1.856515e-01 2.573299e-01 2.052349e-01 2.694732e-01 3.394455e-01 5.008155e-01 6.660068e-01 1.300112e+00 5.519272e-02 2.892507e-01 1.704400e+00 -8.121656e-01 2.525749e+00 2.654070e+00 7.654035e-01 1.883565e+00 1.013056e-01 1.016766e+00 -5.316866e-01 1.891612e-01 -1.264946e+00 -6.997526e-01 -2.037502e+00 -2.526082e+00 -1.832013e+00 -8.252055e+00 -3.889906e+00 -3.670270e+00 -2.472158e+00 -2.760139e+00 -2.492587e+00 -2.228362e+00 -2.276310e+00 -1.710481e+00 -1.856932e+00 -1.256500e+00 -1.435618e+00 -8.975007e-01 -1.077855e+00 -6.178188e-01 -7.871820e-01 
-4.294411e-01 -5.602659e-01 -2.546016e-01 -3.810439e-01 -1.107578e-01 -2.325407e-01 8.843356e-03 -1.092867e-01 1.086398e-01 -7.495142e-03 1.914460e-01 7.527890e-02 2.589913e-01 1.405784e-01 3.123712e-01 1.895701e-01 3.524310e-01 2.236910e-01 3.800906e-01 2.454838e-01 3.966967e-01 2.597175e-01 4.043603e-01 2.744447e-01 4.038284e-01 2.973706e-01 3.728761e-01 2.975065e-01 1.310884e-01 -3.812053e-02 -1.535842e+00 -9.394727e-01 3.472025e+00 6.678624e+00 -3.835130e+00 -5.675902e+00 -4.784022e-01 -1.096378e+00 8.991906e-01 -2.173509e-01 6.782605e-01 -2.816833e-01 2.218227e-01 -5.357639e-01 -2.644526e-01 -9.149429e-01 -1.453462e+00 -7.885179e-01 -3.562457e+00 -2.036183e+00 -3.389582e+00 -2.099288e+00 -2.675855e+00 -2.215049e+00 -2.190630e+00 -2.064998e+00 -1.699120e+00 -1.719551e+00 -1.263111e+00 -1.357454e+00 -9.167182e-01 -1.041023e+00 -6.452994e-01 -7.774602e-01 
-3.705777e-01 -4.884175e-01 -1.986137e-01 -3.149445e-01 -5.575359e-02 -1.692146e-01 6.294649e-02 -4.829913e-02 1.600523e-01 4.901759e-02 2.361615e-01 1.222834e-01 2.903175e-01 1.697464e-01 3.204517e-01 1.889555e-01 3.236698e-01 1.772438e-01 2.957827e-01 1.313077e-01 2.290146e-01 4.520163e-02 1.069309e-01 -9.090391e-02 -1.012330e-01 -2.719784e-01 -4.189533e-01 -3.101477e-01 -5.746535e-01 1.279607e+00 2.033570e+00 -5.595524e+00 -2.178196e+00 7.762809e-01 -1.305655e+01 7.553202e-01 7.078440e+00 -1.336410e+00 1.593499e+00 -7.762461e-01 4.455545e-01 -7.101060e-01 -1.642613e-01 -9.708787e-01 -9.560260e-01 -1.382195e+00 -2.265595e+00 -1.670067e+00 -3.918203e+00 -2.202275e+00 -2.975057e+00 -2.011589e+00 -2.404940e+00 -1.972672e+00 -1.970917e+00 -1.807635e+00 -1.541759e+00 -1.521473e+00 -1.154635e+00 -1.215147e+00 -8.362767e-01 -9.356998e-01 -5.794386e-01 -6.938838e-01 
-3.705540e-01 -4.687165e-01 -2.102842e-01 -3.133532e-01 -7.543835e-02 -1.805571e-01 3.829725e-02 -6.826413e-02 1.335980e-01 2.473378e-02 2.117957e-01 9.864750e-02 2.731934e-01 1.527808e-01 3.173905e-01 1.857821e-01 3.435179e-01 1.960059e-01 3.502135e-01 1.819507e-01 3.355313e-01 1.431170e-01 2.988322e-01 8.467666e-02 2.554568e-01 5.028393e-02 3.360739e-01 3.445383e-01 1.455312e+00 2.870101e+00 1.130482e+01 5.001320e+00 -3.785394e+00 -1.048106e+01 3.406439e+00 2.503981e+01 8.853000e+00 2.132842e+00 2.521155e+00 6.669032e-01 1.042869e+00 2.239616e-01 4.037053e-01 -8.182259e-02 -1.959001e-01 -4.092103e-01 -1.016059e+00 -6.315793e-01 -1.875654e+00 -1.118077e+00 -2.073857e+00 -1.378540e+00 -1.930856e+00 -1.538681e+00 -1.701902e+00 -1.508558e+00 -1.391796e+00 -1.321743e+00 -1.072358e+00 -1.085544e+00 -7.939326e-01 -8.556521e-01 -5.624466e-01 -6.490311e-01 
-3.120144e-01 -3.959049e-01 -1.513932e-01 -2.419562e-01 -1.419423e-02 -1.077950e-01 1.023681e-01 6.608644e-03 1.990248e-01 9.978628e-02 2.744477e-01 1.683673e-01 3.254178e-01 2.071847e-01 3.472861e-01 2.099764e-01 3.345325e-01 1.701351e-01 2.802241e-01 7.920394e-02 1.711783e-01 -8.222285e-02 -2.777885e-02 -3.718485e-01 -4.158483e-01 -9.625065e-01 -1.271775e+00 -2.362688e+00 -3.327940e+00 -6.178715e+00 -7.248551e+00 1.437485e+00 -5.744683e-01 -1.006547e+01 6.216317e+00 8.431013e-01 -1.215990e+01 -3.165877e+00 -2.821697e+00 -1.104129e+00 -6.669913e-01 -5.760786e-01 -3.890527e-01 -5.973873e-01 -7.908664e-01 -8.447092e-01 -1.499199e+00 -1.081783e+00 -2.120334e+00 -1.324604e+00 -2.021866e+00 -1.412493e+00 -1.826536e+00 -1.458258e+00 -1.585074e+00 -1.378547e+00 -1.287087e+00 -1.194793e+00 -9.877002e-01 -9.777008e-01 -7.241065e-01 -7.653345e-01 -5.008068e-01 -5.703513e-01 
-2.843129e-01 -3.554893e-01 -1.430176e-01 -2.249429e-01 -2.037005e-02 -1.090663e-01 8.546574e-02 -8.485830e-03 1.752422e-01 7.566312e-02 2.485447e-01 1.412784e-01 3.038853e-01 1.850719e-01 3.389398e-01 2.024992e-01 3.506404e-01 1.876186e-01 3.342395e-01 1.322390e-01 2.799004e-01 2.205370e-02 1.643762e-01 -1.774530e-01 -7.408460e-02 -5.525126e-01 -6.065910e-01 -1.291925e+00 -1.941160e+00 -2.969199e+00 -9.379490e+00 -1.055427e+01 -9.473207e+00 -1.412512e+01 -4.572806e+00 -8.620467e-01 -3.532128e+00 6.540368e-01 9.758212e-02 6.734004e-01 5.566639e-01 5.098106e-01 4.267837e-01 3.028428e-01 5.127425e-02 3.786288e-02 -4.608421e-01 -2.186762e-01 -9.407834e-01 -5.379967e-01 -1.202808e+00 -8.151476e-01 -1.281082e+00 -1.006482e+00 -1.224705e+00 -1.047715e+00 -1.055766e+00 -9.603124e-01 -8.414180e-01 -8.148088e-01 -6.329915e-01 -6.552368e-01 -4.468493e-01 -4.997873e-01 
-2.290987e-01 -2.858168e-01 -8.292714e-02 -1.507812e-01 4.686348e-02 -2.741634e-02 1.611645e-01 8.237936e-02 2.589933e-01 1.749411e-01 3.369724e-01 2.438837e-01 3.891197e-01 2.798260e-01 4.074491e-01 2.716157e-01 3.838075e-01 2.093643e-01 3.120560e-01 8.665917e-02 1.866230e-01 -1.055268e-01 -7.849443e-03 -3.941063e-01 -2.988464e-01 -8.079868e-01 -6.509097e-01 -1.170529e+00 -5.452118e-01 -2.383927e-01 4.538673e-01 -4.551051e+00 -1.223757e+01 -1.802155e+01 -6.024028e+00 1.060301e+01 5.832853e+00 1.577733e+00 8.933571e-01 2.094449e-01 8.337920e-02 -2.388288e-02 -1.050111e-01 -1.344461e-01 -3.966675e-01 -3.213491e-01 -8.080986e-01 -5.298650e-01 -1.159021e+00 -7.411639e-01 -1.280343e+00 -9.107441e-01 -1.283649e+00 -1.012377e+00 -1.185150e+00 -9.979317e-01 -1.000652e+00 -8.900372e-01 -7.855242e-01 -7.419596e-01 -5.793205e-01 -5.848816e-01 -3.937771e-01 -4.312112e-01 