# vtk DataFile Version 2.0
Comment goes here
ASCII

DATASET STRUCTURED_POINTS
DIMENSIONS    64   64   1

ORIGIN    0.000   0.000   0.000
SPACING   0.0156250.015625   1.000

POINT_DATA   4096
SCALARS P double
LOOKUP_TABLE default

1.146687e+00 1.190387e+00 1.287776e+00 1.301915e+00 1.396358e+00 1.377397e+00 1.449416e+00 1.391107e+00 1.418289e+00 1.312561e+00 1.271658e+00 1.110992e+00 9.821025e-01 7.639382e-01 5.367029e-01 2.692387e-01 -4.828822e-02 -3.442226e-01 -7.058508e-01 -1.011124e+00 -1.308138e+00 -1.609180e+00 -1.754392e+00 -2.042032e+00 -2.001031e+00 -2.261962e+00 -2.042240e+00 -2.252469e+00 -1.889320e+00 -2.016691e+00 -1.570998e+00 -1.591985e+00 -1.152389e+00 -1.076411e+00 -7.401939e-01 -6.084120e-01 -4.218091e-01 -2.708166e-01 -2.239293e-01 -7.478057e-02 -1.341833e-01 7.095374e-03 -1.222564e-01 1.712082e-02 -1.449586e-01 6.439857e-03 -1.498790e-01 2.871288e-02 -9.504361e-02 1.164543e-01 2.092464e-02 2.527967e-01 1.735684e-01 4.014942e-01 3.379124e-01 5.420166e-01 5.021124e-01 6.728043e-01 6.647352e-01 8.003617e-01 8.274235e-01 9.301049e-01 9.897309e-01 1.062191e+00 
1.212009e+00 1.278603e+00 1.333587e+00 1.371618e+00 1.428853e+00 1.430761e+00 1.471052e+00 1.425704e+00 1.428919e+00 1.323361e+00 1.270991e+00 1.095371e+00 9.752427e-01 7.313627e-01 5.438447e-01 2.528482e-01 1.645920e-02 -2.874143e-01 -5.318923e-01 -8.283437e-01 -1.015246e+00 -1.294221e+00 -1.368597e+00 -1.626706e+00 -1.563799e+00 -1.796552e+00 -1.601007e+00 -1.796721e+00 -1.496348e+00 -1.636539e+00 -1.278122e+00 -1.345874e+00 -9.895043e-01 -9.788325e-01 -6.811142e-01 -5.937720e-01 -3.831487e-01 -2.359721e-01 -1.129739e-01 7.091484e-02 1.182170e-01 3.198367e-01 3.041290e-01 5.123806e-01 4.441938e-01 6.552851e-01 5.445542e-01 7.604770e-01 6.169437e-01 8.405940e-01 6.727918e-01 8.966211e-01 7.152500e-01 9.266961e-01 7.540105e-01 9.438646e-01 8.032721e-01 9.677158e-01 8.738402e-01 1.012765e+00 9.691702e-01 1.083842e+00 1.085299e+00 1.176480e+00 
9.368552e-01 9.694951e-01 1.031176e+00 1.035679e+00 1.091428e+00 1.065282e+00 1.100994e+00 1.040483e+00 1.041079e+00 9.421106e-01 8.935848e-01 7.533384e-01 6.460169e-01 4.653144e-01 2.983505e-01 8.386297e-02 -1.290462e-01 -3.650382e-01 -5.889354e-01 -8.331908e-01 -1.011999e+00 -1.252652e+00 -1.337457e+00 -1.563698e+00 -1.530240e+00 -1.729497e+00 -1.579495e+00 -1.735696e+00 -1.492497e+00 -1.588676e+00 -1.293606e+00 -1.319788e+00 -1.027086e+00 -9.887228e-01 -7.519180e-01 -6.682517e-01 -5.182006e-01 -4.096516e-01 -3.494781e-01 -2.302684e-01 -2.455190e-01 -1.217925e-01 -1.905437e-01 -6.136799e-02 -1.591141e-01 -1.915485e-02 -1.223067e-01 3.397059e-02 -5.810539e-02 1.150953e-01 3.836287e-02 2.210108e-01 1.586139e-01 3.378130e-01 2.907888e-01 4.544895e-01 4.265923e-01 5.670891e-01 5.619900e-01 6.759008e-01 6.947113e-01 7.813538e-01 8.215961e-01 8.812538e-01 
1.034879e+00 1.083291e+00 1.106569e+00 1.127205e+00 1.150662e+00 1.138281e+00 1.148439e+00 1.096441e+00 1.080130e+00 9.821379e-01 9.286507e-01 7.815130e-01 6.856662e-01 4.932814e-01 3.588684e-01 1.342372e-01 -2.327356e-02 -2.617841e-01 -4.145531e-01 -6.520559e-01 -7.633321e-01 -9.896722e-01 -1.027798e+00 -1.236107e+00 -1.184916e+00 -1.368413e+00 -1.229707e+00 -1.379267e+00 -1.170853e+00 -1.275478e+00 -1.027578e+00 -1.077989e+00 -8.275146e-01 -8.199786e-01 -6.010024e-01 -5.379308e-01 -3.715380e-01 -2.625661e-01 -1.553467e-01 -1.382009e-02 3.685449e-02 1.985667e-01 1.990069e-01 3.720996e-01 3.296053e-01 5.091990e-01 4.315341e-01 6.155953e-01 5.109072e-01 6.975542e-01 5.744664e-01 7.584725e-01 6.274495e-01 8.016027e-01 6.767022e-01 8.348802e-01 7.300748e-01 8.686003e-01 7.933993e-01 9.106683e-01 8.682734e-01 9.636723e-01 9.514094e-01 1.024198e+00 
7.477189e-01 7.704517e-01 8.084201e-01 8.058220e-01 8.369657e-01 8.073649e-01 8.218269e-01 7.632040e-01 7.512066e-01 6.618059e-01 6.153339e-01 4.946784e-01 4.097956e-01 2.599042e-01 1.395464e-01 -3.420540e-02 -1.774344e-01 -3.666516e-01 -5.089466e-01 -7.039540e-01 -8.135315e-01 -1.004600e+00 -1.053263e+00 -1.230759e+00 -1.203128e+00 -1.356858e+00 -1.253307e+00 -1.372461e+00 -1.207997e+00 -1.282971e+00 -1.084294e+00 -1.110301e+00 -9.108316e-01 -8.909363e-01 -7.225259e-01 -6.665748e-01 -5.498691e-01 -4.694885e-01 -4.104646e-01 -3.149892e-01 -3.080308e-01 -2.027623e-01 -2.354894e-01 -1.218514e-01 -1.789802e-01 -5.599024e-02 -1.225699e-01 1.081673e-02 -5.388652e-02 8.851108e-02 3.157641e-02 1.778870e-01 1.312866e-01 2.738117e-01 2.395844e-01 3.706295e-01 3.510507e-01 4.648033e-01 4.615424e-01 5.544915e-01 5.675110e-01 6.378926e-01 6.648097e-01 7.117449e-01 
8.693324e-01 9.029892e-01 9.069695e-01 9.154650e-01 9.186128e-01 8.985599e-01 8.917502e-01 8.394968e-01 8.143736e-01 7.271214e-01 6.777157e-01 5.551930e-01 4.798487e-01 3.259828e-01 2.292025e-01 5.258420e-02 -5.390521e-02 -2.419280e-01 -3.397389e-01 -5.284462e-01 -5.957354e-01 -7.763383e-01 -7.943759e-01 -9.597230e-01 -9.184798e-01 -1.061892e+00 -9.623072e-01 -1.076719e+00 -9.301345e-01 -1.008475e+00 -8.342046e-01 -8.710263e-01 -6.923074e-01 -6.855280e-01 -5.241019e-01 -4.756721e-01 -3.468445e-01 -2.627178e-01 -1.738745e-01 -6.233277e-02 -1.460687e-02 1.160121e-01 1.252294e-01 2.680903e-01 2.433844e-01 3.936061e-01 3.407107e-01 4.948618e-01 4.203282e-01 5.751902e-01 4.863581e-01 6.377114e-01 5.430038e-01 6.859783e-01 5.948995e-01 7.251178e-01 6.465811e-01 7.608546e-01 7.011091e-01 7.973967e-01 7.588591e-01 8.357749e-01 8.169663e-01 8.731660e-01 
5.806250e-01 5.946056e-01 6.176708e-01 6.096640e-01 6.260488e-01 5.950254e-01 5.980073e-01 5.430344e-01 5.264558e-01 4.470997e-01 4.066250e-01 3.035420e-01 2.381781e-01 1.137316e-01 2.739414e-02 -1.139974e-01 -2.113440e-01 -3.634303e-01 -4.559200e-01 -6.113776e-01 -6.799413e-01 -8.310540e-01 -8.589655e-01 -9.979380e-01 -9.757708e-01 -1.094812e+00 -1.022742e+00 -1.114467e+00 -1.002078e+00 -1.060649e+00 -9.249487e-01 -9.477505e-01 -8.096209e-01 -7.983803e-01 -6.776685e-01 -6.378135e-01 -5.484498e-01 -4.868810e-01 -4.346260e-01 -3.575514e-01 -3.407890e-01 -2.525304e-01 -2.645611e-01 -1.674292e-01 -1.989480e-01 -9.396238e-02 -1.353440e-01 -2.345401e-02 -6.669740e-02 4.999562e-02 1.028969e-02 1.279538e-01 9.511318e-02 2.086562e-01 1.849489e-01 2.891650e-01 2.762272e-01 3.667765e-01 3.653798e-01 4.391683e-01 4.487675e-01 5.038038e-01 5.222255e-01 5.572263e-01 
7.183830e-01 7.399225e-01 7.332457e-01 7.330043e-01 7.249643e-01 7.009041e-01 6.854831e-01 6.357851e-01 6.078235e-01 5.315969e-01 4.879364e-01 3.861145e-01 3.267764e-01 2.028482e-01 1.319745e-01 -7.973898e-03 -8.183139e-02 -2.300851e-01 -2.947768e-01 -4.434825e-01 -4.855060e-01 -6.275388e-01 -6.355169e-01 -7.646041e-01 -7.323894e-01 -8.428022e-01 -7.710347e-01 -8.573775e-01 -7.533495e-01 -8.108564e-01 -6.869924e-01 -7.123163e-01 -5.835904e-01 -5.756282e-01 -4.564084e-01 -4.166703e-01 -3.179927e-01 -2.504236e-01 -1.788134e-01 -8.890819e-02 -4.675312e-02 5.962648e-02 7.299472e-02 1.905380e-01 1.778232e-01 3.021460e-01 2.674054e-01 3.948914e-01 3.431391e-01 4.704317e-01 4.074285e-01 5.309802e-01 4.630931e-01 5.792561e-01 5.130921e-01 6.185498e-01 5.600308e-01 6.521193e-01 6.054049e-01 6.821289e-01 6.489175e-01 7.087245e-01 6.881154e-01 7.295777e-01 
4.347747e-01 4.409896e-01 4.554920e-01 4.431213e-01 4.514645e-01 4.199621e-01 4.176180e-01 3.667348e-01 3.499111e-01 2.799449e-01 2.464658e-01 1.585928e-01 1.088412e-01 5.424208e-03 -5.684845e-02 -1.721224e-01 -2.394484e-01 -3.617157e-01 -4.234727e-01 -5.470861e-01 -5.913693e-01 -7.103210e-01 -7.269145e-01 -8.351629e-01 -8.182941e-01 -9.100460e-01 -8.598880e-01 -9.300295e-01 -8.527242e-01 -8.975186e-01 -8.039139e-01 -8.217966e-01 -7.251477e-01 -7.171460e-01 -6.301858e-01 -5.995283e-01 -5.317387e-01 -4.827627e-01 -4.388990e-01 -3.758862e-01 -3.560364e-01 -2.824604e-01 -2.831248e-01 -2.014672e-01 -2.170292e-01 -1.290909e-01 -1.532975e-01 -6.080019e-02 -8.799388e-02 6.823241e-03 -1.898408e-02 7.511892e-02 5.377105e-02 1.435336e-01 1.287100e-01 2.104410e-01 2.033692e-01 2.738226e-01 2.748295e-01 3.314687e-01 3.398135e-01 3.808104e-01 3.945749e-01 4.186478e-01 
5.827511e-01 5.940468e-01 5.825904e-01 5.756627e-01 5.624511e-01 5.362136e-01 5.173411e-01 4.710983e-01 4.434592e-01 3.773323e-01 3.393991e-01 2.547945e-01 2.073235e-01 1.072495e-01 5.373199e-02 -5.726155e-02 -1.106355e-01 -2.269757e-01 -2.720472e-01 -3.878813e-01 -4.160125e-01 -5.257566e-01 -5.298238e-01 -6.283911e-01 -6.045751e-01 -6.873934e-01 -6.361690e-01 -6.992150e-01 -6.253363e-01 -6.653605e-01 -5.769356e-01 -5.918689e-01 -4.987607e-01 -4.881096e-01 -4.000451e-01 -3.650546e-01 -2.899893e-01 -2.334792e-01 -1.767111e-01 -1.025719e-01 -6.666538e-02 2.079998e-02 3.559316e-02 1.322227e-01 1.274110e-01 2.294710e-01 2.078414e-01 3.120296e-01 2.772799e-01 3.805476e-01 3.370015e-01 4.363886e-01 3.887178e-01 4.813774e-01 4.342097e-01 5.175719e-01 4.749112e-01 5.468209e-01 5.114361e-01 5.701657e-01 5.431766e-01 5.873210e-01 5.680939e-01 5.964144e-01 
3.083340e-01 3.075247e-01 3.179950e-01 3.018184e-01 3.066451e-01 2.749212e-01 2.710417e-01 2.239554e-01 2.090629e-01 1.473121e-01 1.204482e-01 4.542237e-02 7.536210e-03 -7.853794e-02 -1.242093e-01 -2.182273e-01 -2.661529e-01 -3.642448e-01 -4.071754e-01 -5.049490e-01 -5.351710e-01 -6.280035e-01 -6.390559e-01 -7.223777e-01 -7.106402e-01 -7.802223e-01 -7.458412e-01 -7.981424e-01 -7.450785e-01 -7.776669e-01 -7.129032e-01 -7.248456e-01 -6.569398e-01 -6.489526e-01 -5.862561e-01 -5.604576e-01 -5.094850e-01 -4.688136e-01 -4.332579e-01 -3.808230e-01 -3.613964e-01 -3.000107e-01 -2.949398e-01 -2.269471e-01 -2.328201e-01 -1.602026e-01 -1.729035e-01 -9.755946e-02 -1.130833e-01 -3.711217e-02 -5.209595e-02 2.206617e-02 1.014637e-02 7.981490e-02 7.264758e-02 1.351396e-01 1.336055e-01 1.865058e-01 1.906543e-01 2.319835e-01 2.409885e-01 2.692416e-01 2.814023e-01 2.954964e-01 
4.618789e-01 4.641409e-01 4.518654e-01 4.393481e-01 4.248698e-01 3.971587e-01 3.779404e-01 3.350381e-01 3.092497e-01 2.518203e-01 2.188590e-01 1.484655e-01 1.093714e-01 2.860159e-02 -1.374920e-02 -1.013626e-01 -1.424109e-01 -2.326933e-01 -2.667807e-01 -3.553311e-01 -3.766929e-01 -4.592406e-01 -4.632173e-01 -5.358428e-01 -5.199563e-01 -5.792089e-01 -5.437821e-01 -5.867847e-01 -5.349552e-01 -5.595682e-01 -4.967224e-01 -5.017604e-01 -4.345395e-01 -4.199553e-01 -3.550836e-01 -3.220196e-01 -2.652632e-01 -2.159177e-01 -1.714261e-01 -1.087431e-01 -7.883900e-02 -6.116104e-03 8.581438e-03 8.804244e-02 8.833088e-02 1.714399e-01 1.592079e-01 2.431509e-01 2.210696e-01 3.032691e-01 2.745042e-01 3.525662e-01 3.204837e-01 3.922033e-01 3.600295e-01 4.234495e-01 3.938788e-01 4.473416e-01 4.221661e-01 4.643155e-01 4.441807e-01 4.739126e-01 4.582638e-01 4.746558e-01 
1.991149e-01 1.917558e-01 2.014685e-01 1.816747e-01 1.860454e-01 1.539217e-01 1.508128e-01 1.068294e-01 9.482627e-02 3.990300e-02 1.870632e-02 -4.569950e-02 -7.495555e-02 -1.467921e-01 -1.813915e-01 -2.580237e-01 -2.937976e-01 -3.721061e-01 -4.039245e-01 -4.804811e-01 -5.031046e-01 -5.743886e-01 -5.835231e-01 -6.461500e-01 -6.394004e-01 -6.903575e-01 -6.677958e-01 -7.046925e-01 -6.688889e-01 -6.902077e-01 -6.457269e-01 -6.510151e-01 -6.034986e-01 -5.934081e-01 -5.484581e-01 -5.245778e-01 -4.867290e-01 -4.512474e-01 -4.232905e-01 -3.786140e-01 -3.613900e-01 -3.098438e-01 -3.024579e-01 -2.461422e-01 -2.464506e-01 -1.872533e-01 -1.924604e-01 -1.321713e-01 -1.393928e-01 -7.983559e-02 -8.652174e-02 -2.962142e-02 -3.380220e-02 1.845076e-02 1.805888e-02 6.372549e-02 6.767930e-02 1.050089e-01 1.131241e-01 1.406548e-01 1.520189e-01 1.686206e-01 1.816544e-01 1.865245e-01 
3.545958e-01 3.484822e-01 3.380917e-01 3.204073e-01 3.071991e-01 2.780180e-01 2.602842e-01 2.200625e-01 1.967276e-01 1.464354e-01 1.174059e-01 5.863605e-02 2.504257e-02 -3.995701e-02 -7.570020e-02 -1.441103e-01 -1.784912e-01 -2.471198e-01 -2.759875e-01 -3.415284e-01 -3.607802e-01 -4.200547e-01 -4.264203e-01 -4.765587e-01 -4.682821e-01 -5.068497e-01 -4.840870e-01 -5.091883e-01 -4.740249e-01 -4.844138e-01 -4.405066e-01 -4.356968e-01 -3.876367e-01 -3.679759e-01 -3.205274e-01 -2.871893e-01 -2.445890e-01 -1.994597e-01 -1.649215e-01 -1.103915e-01 -8.587396e-02 -2.458498e-02 -1.078730e-02 5.460180e-02 5.809273e-02 1.250694e-01 1.195548e-01 1.858307e-01 1.732451e-01 2.367672e-01 2.194137e-01 2.783492e-01 2.586277e-01 3.113588e-01 2.914850e-01 3.366179e-01 3.183458e-01 3.547193e-01 3.391077e-01 3.657863e-01 3.530606e-01 3.693103e-01 3.588536e-01 3.641165e-01 
1.049689e-01 9.127333e-02 1.026917e-01 7.918297e-02 8.523456e-02 5.224606e-02 5.132139e-02 9.524556e-03 7.094819e-04 -4.884238e-02 -6.550606e-02 -1.213439e-01 -1.446857e-01 -2.049208e-01 -2.326168e-01 -2.949839e-01 -3.237363e-01 -3.856907e-01 -4.116370e-01 -4.704984e-01 -4.898192e-01 -5.429408e-01 -5.525539e-01 -5.975009e-01 -5.956690e-01 -6.303945e-01 -6.170834e-01 -6.400955e-01 -6.169876e-01 -6.274915e-01 -5.976515e-01 -5.956339e-01 -5.629029e-01 -5.491189e-01 -5.173792e-01 -4.932253e-01 -4.657095e-01 -4.330065e-01 -4.118094e-01 -3.725602e-01 -3.584376e-01 -3.146253e-01 -3.070730e-01 -2.605431e-01 -2.580879e-01 -2.105199e-01 -2.111222e-01 -1.640662e-01 -1.655382e-01 -1.204742e-01 -1.208349e-01 -7.921103e-02 -7.693723e-02 -4.016530e-02 -3.433881e-02 -3.748975e-03 5.876921e-03 2.909852e-02 4.209310e-02 5.695967e-02 7.226172e-02 7.802113e-02 9.404049e-02 9.019231e-02 
2.595314e-01 2.452438e-01 2.386863e-01 2.157674e-01 2.055370e-01 1.744353e-01 1.592609e-01 1.207533e-01 9.996455e-02 5.521839e-02 2.898950e-02 -2.040467e-02 -5.091262e-02 -1.029626e-01 -1.356108e-01 -1.880119e-01 -2.198769e-01 -2.701606e-01 -2.979115e-01 -3.436247e-01 -3.640374e-01 -4.029118e-01 -4.134233e-01 -4.435126e-01 -4.426913e-01 -4.624721e-01 -4.502901e-01 -4.587383e-01 -4.365853e-01 -4.332369e-01 -4.036772e-01 -3.886712e-01 -3.550058e-01 -3.290929e-01 -2.948281e-01 -2.593267e-01 -2.276664e-01 -1.843587e-01 -1.578147e-01 -1.087914e-01 -8.896286e-02 -3.644395e-02 -2.396330e-02 2.987040e-02 3.525705e-02 8.839154e-02 8.765412e-02 1.383148e-01 1.329170e-01 1.795903e-01 1.712451e-01 2.126668e-01 2.030890e-01 2.382204e-01 2.288923e-01 2.568962e-01 2.488645e-01 2.690849e-01 2.628128e-01 2.747578e-01 2.700590e-01 2.733899e-01 2.694591e-01 2.639897e-01 
2.400357e-02 3.944034e-03 1.907643e-02 -8.474815e-03 8.664392e-04 -3.365360e-02 -3.148073e-02 -7.214133e-02 -7.781099e-02 -1.234591e-01 -1.367611e-01 -1.859198e-01 -2.056718e-01 -2.565717e-01 -2.806632e-01 -3.313109e-01 -3.569052e-01 -4.051878e-01 -4.290822e-01 -4.728970e-01 -4.919982e-01 -5.293945e-01 -5.412244e-01 -5.705409e-01 -5.736619e-01 -5.936500e-01 -5.879073e-01 -5.978314e-01 -5.843544e-01 -5.840577e-01 -5.650163e-01 -5.549370e-01 -5.331081e-01 -5.142320e-01 -4.924690e-01 -4.662167e-01 -4.469388e-01 -4.150069e-01 -3.998150e-01 -3.640051e-01 -3.534899e-01 -3.155620e-01 -3.093199e-01 -2.708937e-01 -2.677181e-01 -2.302289e-01 -2.284177e-01 -1.931172e-01 -1.908238e-01 -1.588088e-01 -1.543694e-01 -1.266152e-01 -1.188062e-01 -9.618951e-02 -8.439180e-02 -6.769511e-02 -5.196626e-02 -4.186567e-02 -2.293010e-02 -1.997274e-02 8.579650e-04 -3.719479e-03 1.724594e-02 4.925436e-03 
1.753644e-01 1.527215e-01 1.515714e-01 1.229754e-01 1.169935e-01 8.319870e-02 7.125403e-02 3.329593e-02 1.487821e-02 -2.591103e-02 -5.050166e-02 -9.251242e-02 -1.220749e-01 -1.634815e-01 -1.959593e-01 -2.348219e-01 -2.675027e-01 -3.018976e-01 -3.317566e-01 -3.599133e-01 -3.840504e-01 -4.044738e-01 -4.205641e-01 -4.321302e-01 -4.387932e-01 -4.408136e-01 -4.378236e-01 -4.300840e-01 -4.183772e-01 -4.011527e-01 -3.826388e-01 -3.566849e-01 -3.339060e-01 -3.004200e-01 -2.761333e-01 -2.366828e-01 -2.134491e-01 -1.698679e-01 -1.497186e-01 -1.039775e-01 -8.820638e-02 -4.227281e-02 -3.136574e-02 1.292913e-02 1.923779e-02 6.030518e-02 6.287687e-02 9.943400e-02 9.950722e-02 1.305918e-01 1.295371e-01 1.544787e-01 1.535604e-01 1.719248e-01 1.720952e-01 1.836236e-01 1.853694e-01 1.899282e-01 1.931831e-01 1.907357e-01 1.948706e-01 1.854736e-01 1.893654e-01 1.731871e-01 
-4.529673e-02 -7.196187e-02 -5.126998e-02 -8.338132e-02 -6.937361e-02 -1.062491e-01 -1.003055e-01 -1.409798e-01 -1.437155e-01 -1.869351e-01 -1.980593e-01 -2.423078e-01 -2.605822e-01 -3.041408e-01 -3.274656e-01 -3.685085e-01 -3.941487e-01 -4.308638e-01 -4.558010e-01 -4.865221e-01 -5.078828e-01 -5.312175e-01 -5.467026e-01 -5.616397e-01 -5.698685e-01 -5.758572e-01 -5.765537e-01 -5.735482e-01 -5.675313e-01 -5.559960e-01 -5.449755e-01 -5.258474e-01 -5.120664e-01 -4.866745e-01 -4.724681e-01 -4.424167e-01 -4.297758e-01 -3.968084e-01 -3.870317e-01 -3.528962e-01 -3.463940e-01 -3.127266e-01 -3.090037e-01 -2.772438e-01 -2.750528e-01 -2.463906e-01 -2.440156e-01 -2.193766e-01 -2.149839e-01 -1.950471e-01 -1.870333e-01 -1.722771e-01 -1.595534e-01 -1.503137e-01 -1.324877e-01 -1.290108e-01 -1.064543e-01 -1.089280e-01 -8.273902e-02 -9.129716e-02 -6.317643e-02 -7.787834e-02 -4.994396e-02 -7.073546e-02 
1.009729e-01 6.946905e-02 7.523139e-02 4.020889e-02 3.960651e-02 2.087172e-03 -6.118235e-03 -4.485617e-02 -6.120422e-02 -9.964483e-02 -1.237997e-01 -1.602528e-01 -1.909281e-01 -2.236321e-01 -2.586533e-01 -2.859030e-01 -3.224258e-01 -3.427049e-01 -3.775734e-01 -3.896710e-01 -4.198586e-01 -4.229580e-01 -4.460079e-01 -4.397420e-01 -4.541158e-01 -4.385922e-01 -4.438577e-01 -4.196564e-01 -4.164859e-01 -3.846299e-01 -3.746185e-01 -3.365179e-01 -3.218669e-01 -2.792374e-01 -2.623664e-01 -2.171292e-01 -2.002891e-01 -1.544593e-01 -1.394105e-01 -9.497988e-02 -8.278131e-02 -4.159848e-02 -3.253258e-02 3.814106e-03 1.018037e-02 4.046324e-02 4.510203e-02 6.851548e-02 7.268567e-02 8.884796e-02 9.381667e-02 1.027073e-01 1.094944e-01 1.113463e-01 1.205281e-01 1.157118e-01 1.273017e-01 1.162352e-01 1.296478e-01 1.127535e-01 1.268465e-01 1.045571e-01 1.177446e-01 9.054625e-02 
-1.039944e-01 -1.376871e-01 -1.094982e-01 -1.468466e-01 -1.267929e-01 -1.669847e-01 -1.566563e-01 -1.985948e-01 -1.986888e-01 -2.409944e-01 -2.511812e-01 -2.922370e-01 -3.111358e-01 -3.491790e-01 -3.744742e-01 -4.077254e-01 -4.364318e-01 -4.632473e-01 -4.921019e-01 -5.111246e-01 -5.370446e-01 -5.473318e-01 -5.678532e-01 -5.689646e-01 -5.825771e-01 -5.746150e-01 -5.809310e-01 -5.645332e-01 -5.642657e-01 -5.405548e-01 -5.353114e-01 -5.058038e-01 -4.977346e-01 -4.642193e-01 -4.555782e-01 -4.199797e-01 -4.126771e-01 -3.769211e-01 -3.721502e-01 -3.380474e-01 -3.360550e-01 -3.052051e-01 -3.052508e-01 -2.789648e-01 -2.794771e-01 -2.587166e-01 -2.576144e-01 -2.429602e-01 -2.380744e-01 -2.297418e-01 -2.192446e-01 -2.171557e-01 -1.999107e-01 -2.038068e-01 -1.795810e-01 -1.891389e-01 -1.586565e-01 -1.735710e-01 -1.384270e-01 -1.584395e-01 -1.209093e-01 -1.457861e-01 -1.085723e-01 -1.380457e-01 
3.553659e-02 -5.610100e-03 8.765702e-03 -3.370021e-02 -2.768494e-02 -7.020309e-02 -7.413051e-02 -1.151614e-01 -1.297771e-01 -1.675578e-01 -1.925653e-01 -2.252221e-01 -2.591866e-01 -2.848939e-01 -3.253045e-01 -3.424593e-01 -3.859820e-01 -3.933582e-01 -4.362639e-01 -4.331219e-01 -4.718177e-01 -4.579628e-01 -4.895118e-01 -4.653087e-01 -4.878257e-01 -4.541803e-01 -4.670289e-01 -4.253440e-01 -4.291137e-01 -3.812160e-01 -3.775048e-01 -3.255400e-01 -3.165960e-01 -2.628988e-01 -2.511911e-01 -1.981481e-01 -1.859406e-01 -1.358658e-01 -1.248585e-01 -7.988543e-02 -7.097773e-02 -3.295407e-02 -2.616419e-02 3.463586e-03 8.912589e-03 2.921601e-02 3.465983e-02 4.530869e-02 5.230552e-02 5.356174e-02 6.353133e-02 5.613298e-02 7.004770e-02 5.501254e-02 7.319148e-02 5.160995e-02 7.363021e-02 4.651546e-02 7.122961e-02 3.945766e-02 6.509647e-02 2.943238e-02 5.377264e-02 1.495560e-02 
-1.526287e-01 -1.939073e-01 -1.559481e-01 -1.993407e-01 -1.716516e-01 -2.162517e-01 -2.008427e-01 -2.454212e-01 -2.432055e-01 -2.862113e-01 -2.968439e-01 -3.364684e-01 -3.583103e-01 -3.926165e-01 -4.228703e-01 -4.499739e-01 -4.850118e-01 -5.032863e-01 -5.391429e-01 -5.474123e-01 -5.803563e-01 -5.780399e-01 -6.051079e-01 -5.922951e-01 -6.116781e-01 -5.891303e-01 -6.003518e-01 -5.694412e-01 -5.733142e-01 -5.359116e-01 -5.342940e-01 -4.926162e-01 -4.880041e-01 -4.444372e-01 -4.394511e-01 -3.963742e-01 -3.932177e-01 -3.528565e-01 -3.528461e-01 -3.171706e-01 -3.204303e-01 -2.910824e-01 -2.964709e-01 -2.746948e-01 -2.799939e-01 -2.665546e-01 -2.688972e-01 -2.640153e-01 -2.604668e-01 -2.638213e-01 -2.519789e-01 -2.628216e-01 -2.412897e-01 -2.586496e-01 -2.273000e-01 -2.502013e-01 -2.101973e-01 -2.378119e-01 -1.914361e-01 -2.231349e-01 -1.734914e-01 -2.088067e-01 -1.594659e-01 -1.979935e-01 
-2.138042e-02 -7.317501e-02 -4.802999e-02 -9.920141e-02 -8.498677e-02 -1.340392e-01 -1.329443e-01 -1.780282e-01 -1.912097e-01 -2.302025e-01 -2.574998e-01 -2.881852e-01 -3.279520e-01 -3.482661e-01 -3.974023e-01 -4.056896e-01 -4.599431e-01 -4.551579e-01 -5.096953e-01 -4.915107e-01 -5.416526e-01 -5.104815e-01 -5.524152e-01 -5.093719e-01 -5.406684e-01 -4.875009e-01 -5.073421e-01 -4.463486e-01 -4.554592e-01 -3.893743e-01 -3.897137e-01 -3.215486e-01 -3.158408e-01 -2.486863e-01 -2.398773e-01 -1.767102e-01 -1.674347e-01 -1.109771e-01 -1.031119e-01 -5.574445e-02 -5.011067e-02 -1.379635e-02 -1.006150e-02 1.377737e-02 1.697066e-02 2.762417e-02 3.231167e-02 2.993107e-02 3.833178e-02 2.393927e-02 3.793496e-02 1.322482e-02 3.394667e-02 9.296509e-04 2.852845e-02 -1.083388e-02 2.276492e-02 -2.127405e-02 1.651232e-02 -3.090000e-02 8.509647e-03 -4.126424e-02 -3.308828e-03 -5.456278e-02 
-1.911281e-01 -2.406235e-01 -1.900293e-01 -2.403667e-01 -2.030331e-01 -2.532658e-01 -2.318645e-01 -2.806300e-01 -2.764524e-01 -3.219632e-01 -3.346846e-01 -3.748116e-01 -4.023982e-01 -4.348498e-01 -4.736938e-01 -4.962757e-01 -5.416139e-01 -5.525245e-01 -5.991161e-01 -5.972158e-01 -6.401479e-01 -6.251425e-01 -6.605656e-01 -6.330716e-01 -6.587004e-01 -6.201986e-01 -6.355113e-01 -5.882196e-01 -5.943737e-01 -5.410626e-01 -5.405739e-01 -4.843374e-01 -4.805621e-01 -4.245599e-01 -4.210260e-01 -3.682390e-01 -3.679135e-01 -3.209706e-01 -3.255988e-01 -2.867022e-01 -2.963582e-01 -2.672632e-01 -2.802158e-01 -2.621814e-01 -2.751379e-01 -2.687994e-01 -2.775244e-01 -2.827389e-01 -2.829327e-01 -2.987286e-01 -2.869380e-01 -3.116899e-01 -2.860001e-01 -3.178052e-01 -2.781686e-01 -3.152450e-01 -2.634358e-01 -3.043796e-01 -2.436666e-01 -2.875172e-01 -2.221885e-01 -2.683418e-01 -2.031992e-01 -2.512369e-01 
-6.973779e-02 -1.333383e-01 -9.453099e-02 -1.558985e-01 -1.312960e-01 -1.887277e-01 -1.814558e-01 -2.327120e-01 -2.446221e-01 -2.870413e-01 -3.182774e-01 -3.490542e-01 -3.977262e-01 -4.143023e-01 -4.764189e-01 -4.768850e-01 -5.467048e-01 -5.300863e-01 -6.009370e-01 -5.672986e-01 -6.327008e-01 -5.831019e-01 -6.378498e-01 -5.742210e-01 -6.151149e-01 -5.401300e-01 -5.662378e-01 -4.832031e-01 -4.956939e-01 -4.084108e-01 -4.100750e-01 -3.226176e-01 -3.171990e-01 -2.336071e-01 -2.250612e-01 -1.490440e-01 -1.408240e-01 -7.559781e-02 -7.005445e-02 -1.832537e-02 -1.629987e-02 1.973088e-02 1.905074e-02 3.781218e-02 3.671073e-02 3.756223e-02 3.927104e-02 2.283549e-02 3.075535e-02 -9.852805e-04 1.590331e-02 -2.813495e-02 -7.575432e-04 -5.372252e-02 -1.582658e-02 -7.464059e-02 -2.764960e-02 -8.991554e-02 -3.649096e-02 -1.005524e-01 -4.429259e-02 -1.090530e-01 -5.416209e-02 -1.187868e-01 
-2.186824e-01 -2.770038e-01 -2.100281e-01 -2.682510e-01 -2.186017e-01 -2.758239e-01 -2.471412e-01 -3.018758e-01 -2.960647e-01 -3.462051e-01 -3.630541e-01 -4.059705e-01 -4.429158e-01 -4.757030e-01 -5.279064e-01 -5.477657e-01 -6.086496e-01 -6.133360e-01 -6.755783e-01 -6.638051e-01 -7.205752e-01 -6.922696e-01 -7.383318e-01 -6.946820e-01 -7.270760e-01 -6.704079e-01 -6.886516e-01 -6.222117e-01 -6.281295e-01 -5.558163e-01 -5.530996e-01 -4.791418e-01 -4.726756e-01 -4.012518e-01 -3.962049e-01 -3.310718e-01 -3.318349e-01 -2.761002e-01 -2.852966e-01 -2.414161e-01 -2.592040e-01 -2.290971e-01 -2.529109e-01 -2.379790e-01 -2.628327e-01 -2.637380e-01 -2.831485e-01 -2.994353e-01 -3.068268e-01 -3.366965e-01 -3.268735e-01 -3.674459e-01 -3.376455e-01 -3.856850e-01 -3.359859e-01 -3.886451e-01 -3.217607e-01 -3.769939e-01 -2.976542e-01 -3.542568e-01 -2.684395e-01 -3.258429e-01 -2.400495e-01 -2.980173e-01 
-1.089015e-01 -1.855103e-01 -1.290778e-01 -2.023383e-01 -1.642233e-01 -2.322691e-01 -2.169714e-01 -2.770572e-01 -2.875549e-01 -3.362036e-01 -3.732719e-01 -4.066969e-01 -4.682683e-01 -4.830154e-01 -5.638564e-01 -5.574760e-01 -6.495369e-01 -6.210208e-01 -7.146667e-01 -6.645162e-01 -7.503862e-01 -6.804313e-01 -7.511939e-01 -6.643095e-01 -7.157318e-01 -6.156272e-01 -6.468306e-01 -5.379562e-01 -5.510346e-01 -4.384802e-01 -4.377236e-01 -3.269329e-01 -3.178469e-01 -2.141052e-01 -2.023691e-01 -1.102809e-01 -1.007666e-01 -2.406072e-02 -1.999990e-02 3.829659e-02 3.589883e-02 7.322035e-02 6.583723e-02 8.016326e-02 7.153129e-02 6.195658e-02 5.728194e-02 2.480530e-02 2.948377e-02 -2.261873e-02 -4.358474e-03 -7.110245e-02 -3.709876e-02 -1.130943e-01 -6.347627e-02 -1.441409e-01 -8.109432e-02 -1.632420e-01 -9.057890e-02 -1.723815e-01 -9.506569e-02 -1.756412e-01 -9.934039e-02 -1.782174e-01 
-2.335607e-01 -3.011520e-01 -2.128270e-01 -2.798307e-01 -2.142255e-01 -2.799184e-01 -2.420512e-01 -3.048559e-01 -2.976272e-01 -3.550206e-01 -3.785682e-01 -4.271720e-01 -4.783233e-01 -5.142374e-01 -5.863871e-01 -6.057633e-01 -6.895221e-01 -6.892690e-01 -7.739964e-01 -7.524263e-01 -8.282701e-01 -7.854828e-01 -8.451423e-01 -7.830191e-01 -8.226570e-01 -7.445841e-01 -7.639308e-01 -6.744489e-01 -6.764364e-01 -5.808933e-01 -5.710629e-01 -4.752014e-01 -4.608768e-01 -3.702675e-01 -3.593204e-01 -2.787244e-01 -2.779575e-01 -2.109660e-01 -2.245782e-01 -1.737859e-01 -2.022773e-01 -1.697502e-01 -2.094179e-01 -1.969221e-01 -2.401621e-01 -2.487677e-01 -2.854438e-01 -3.146071e-01 -3.343940e-01 -3.812284e-01 -3.761351e-01 -4.357754e-01 -4.017834e-01 -4.689140e-01 -4.064365e-01 -4.767280e-01 -3.900358e-01 -4.607609e-01 -3.568151e-01 -4.267320e-01 -3.139230e-01 -3.828042e-01 -2.699241e-01 -3.380238e-01 
-1.374829e-01 -2.281721e-01 -1.486808e-01 -2.356935e-01 -1.795683e-01 -2.609674e-01 -2.346692e-01 -3.070567e-01 -3.153708e-01 -3.740326e-01 -4.190046e-01 -4.585307e-01 -5.382378e-01 -5.536051e-01 -6.612228e-01 -6.490033e-01 -7.729430e-01 -7.320268e-01 -8.578328e-01 -7.893395e-01 -9.030122e-01 -8.098281e-01 -9.008392e-01 -7.869945e-01 -8.498225e-01 -7.201538e-01 -7.543556e-01 -6.145568e-01 -6.239290e-01 -4.806620e-01 -4.719764e-01 -3.325657e-01 -3.141324e-01 -1.856324e-01 -1.658352e-01 -5.394194e-02 -3.990347e-02 5.131428e-02 5.489470e-02 1.223284e-01 1.140301e-01 1.546655e-01 1.368376e-01 1.476338e-01 1.262591e-01 1.052566e-01 8.879747e-02 3.699735e-02 3.420315e-02 -4.325451e-02 -2.578350e-02 -1.206320e-01 -7.986984e-02 -1.834843e-01 -1.199546e-01 -2.256568e-01 -1.427394e-01 -2.465932e-01 -1.497253e-01 -2.501440e-01 -1.461027e-01 -2.429560e-01 -1.392743e-01 -2.329646e-01 
-2.328601e-01 -3.097904e-01 -1.935322e-01 -2.700322e-01 -1.834519e-01 -2.591867e-01 -2.092353e-01 -2.826279e-01 -2.738485e-01 -3.418656e-01 -3.752944e-01 -4.334744e-01 -5.054517e-01 -5.483278e-01 -6.498286e-01 -6.718008e-01 -7.890872e-01 -7.855770e-01 -9.026470e-01 -8.711839e-01 -9.734015e-01 -9.142616e-01 -9.913516e-01 -9.073815e-01 -9.545271e-01 -8.505203e-01 -8.680328e-01 -7.501686e-01 -7.426809e-01 -6.181657e-01 -5.938978e-01 -4.705558e-01 -4.405044e-01 -3.259373e-01 -3.022932e-01 -2.026308e-01 -1.961421e-01 -1.152880e-01 -1.328240e-01 -7.304509e-02 -1.159518e-01 -7.923145e-02 -1.423670e-01 -1.312338e-01 -2.030059e-01 -2.198571e-01 -2.841308e-01 -3.290675e-01 -3.692415e-01 -4.379231e-01 -4.415738e-01 -5.256166e-01 -4.870130e-01 -5.775769e-01 -4.980445e-01 -5.886979e-01 -4.752337e-01 -5.626857e-01 -4.257414e-01 -5.091883e-01 -3.605941e-01 -4.406853e-01 -2.922286e-01 -3.701745e-01 
-1.531218e-01 -2.585570e-01 -1.486309e-01 -2.513241e-01 -1.707300e-01 -2.688728e-01 -2.267928e-01 -3.161898e-01 -3.202808e-01 -3.943618e-01 -4.491651e-01 -4.998148e-01 -6.044845e-01 -6.239015e-01 -7.698848e-01 -7.529360e-01 -9.232125e-01 -8.687727e-01 -1.040745e+00 -9.510182e-01 -1.103028e+00 -9.825855e-01 -1.099369e+00 -9.537343e-01 -1.028408e+00 -8.634914e-01 -8.968892e-01 -7.195127e-01 -7.184010e-01 -5.371006e-01 -5.121731e-01 -3.370856e-01 -3.009213e-01 -1.419605e-01 -1.069821e-01 2.879228e-02 5.205090e-02 1.608945e-01 1.654113e-01 2.449990e-01 2.284456e-01 2.754357e-01 2.411720e-01 2.503951e-01 2.078053e-01 1.743673e-01 1.373661e-01 6.109095e-02 4.422170e-02 -6.687257e-02 -5.321151e-02 -1.848032e-01 -1.367498e-01 -2.746689e-01 -1.938392e-01 -3.285136e-01 -2.202831e-01 -3.474210e-01 -2.195683e-01 -3.387210e-01 -2.004195e-01 -3.131354e-01 -1.742309e-01 -2.825606e-01 
-2.121894e-01 -2.978604e-01 -1.450421e-01 -2.313654e-01 -1.168541e-01 -2.042033e-01 -1.376221e-01 -2.246317e-01 -2.132689e-01 -2.963637e-01 -3.433467e-01 -4.165539e-01 -5.184061e-01 -5.738197e-01 -7.184379e-01 -7.475604e-01 -9.143964e-01 -9.100883e-01 -1.074145e+00 -1.032518e+00 -1.171382e+00 -1.093060e+00 -1.192390e+00 -1.081800e+00 -1.136133e+00 -1.000031e+00 -1.011069e+00 -8.576277e-01 -8.324397e-01 -6.711285e-01 -6.214273e-01 -4.629910e-01 -4.050286e-01 -2.603548e-01 -2.132753e-01 -9.062369e-02 -7.155395e-02 2.544251e-02 5.319215e-03 7.607475e-02 1.359868e-02 5.704418e-02 -4.116697e-02 -2.899866e-02 -1.454544e-01 -1.704570e-01 -2.789406e-01 -3.440113e-01 -4.169957e-01 -5.159398e-01 -5.340529e-01 -6.513712e-01 -6.068138e-01 -7.272607e-01 -6.236647e-01 -7.379689e-01 -5.872753e-01 -6.922406e-01 -5.104658e-01 -6.067697e-01 -4.106014e-01 -5.006696e-01 -3.056288e-01 -3.922731e-01 