# vtk DataFile Version 2.0
Comment goes here
ASCII

DATASET STRUCTURED_POINTS
DIMENSIONS    64   64   1

ORIGIN    0.000   0.000   0.000
SPACING   0.0156250.015625   1.000

POINT_DATA   4096
SCALARS P double
LOOKUP_TABLE default

-4.369236e-01 -4.655117e-01 -4.512466e-01 -4.775259e-01 -4.546713e-01 -4.773117e-01 -4.443123e-01 -4.628207e-01 -4.170337e-01 -4.318053e-01 -3.701299e-01 -3.823849e-01 -3.024436e-01 -3.139707e-01 -2.157393e-01 -2.283637e-01 -1.156290e-01 -1.304352e-01 -1.100421e-02 -2.771284e-02 8.850029e-02 7.119947e-02 1.751869e-01 1.590430e-01 2.442877e-01 2.309932e-01 2.935805e-01 2.845938e-01 3.226766e-01 3.192501e-01 3.323670e-01 3.355558e-01 3.241345e-01 3.347512e-01 3.000730e-01 3.185126e-01 2.629260e-01 2.888940e-01 2.156395e-01 2.481780e-01 1.608663e-01 1.985356e-01 1.008047e-01 1.417338e-01 3.741661e-02 7.912938e-02 -2.726097e-02 1.196750e-02 -9.106664e-02 -5.816146e-02 -1.520317e-01 -1.290154e-01 -2.087649e-01 -1.978613e-01 -2.605344e-01 -2.620696e-01 -3.070836e-01 -3.196447e-01 -3.483435e-01 -3.693694e-01 -3.841506e-01 -4.105915e-01 -4.140122e-01 -4.428494e-01 
-4.625917e-01 -4.853904e-01 -4.669939e-01 -4.898837e-01 -4.639402e-01 -4.857759e-01 -4.509535e-01 -4.713222e-01 -4.256092e-01 -4.447555e-01 -3.860957e-01 -4.047208e-01 -3.320001e-01 -3.509791e-01 -2.651607e-01 -2.852689e-01 -1.902000e-01 -2.118799e-01 -1.143063e-01 -1.373817e-01 -4.595304e-02 -6.945661e-02 7.874212e-03 -1.464008e-02 4.317276e-02 2.314658e-02 5.892968e-02 4.286085e-02 5.649302e-02 4.588271e-02 3.878796e-02 3.517230e-02 9.525832e-03 1.426516e-02 -2.748534e-02 -1.362792e-02 -6.893142e-02 -4.604426e-02 -1.123677e-01 -8.123352e-02 -1.561043e-01 -1.179343e-01 -1.988383e-01 -1.552540e-01 -2.393873e-01 -1.927019e-01 -2.766982e-01 -2.301834e-01 -3.100528e-01 -2.677263e-01 -3.392468e-01 -3.050361e-01 -3.645825e-01 -3.412998e-01 -3.867066e-01 -3.754370e-01 -4.063374e-01 -4.064527e-01 -4.239737e-01 -4.335883e-01 -4.396714e-01 -4.562442e-01 -4.529176e-01 -4.737911e-01 
-3.700866e-01 -3.954532e-01 -3.819937e-01 -4.059066e-01 -3.837289e-01 -4.050800e-01 -3.733238e-01 -3.916009e-01 -3.489152e-01 -3.642118e-01 -3.092324e-01 -3.221648e-01 -2.542519e-01 -2.657555e-01 -1.858495e-01 -1.968500e-01 -1.080947e-01 -1.191167e-01 -2.679155e-02 -3.769611e-02 5.176475e-02 4.168755e-02 1.221183e-01 1.138718e-01 1.803524e-01 1.749602e-01 2.241404e-01 2.224987e-01 2.525003e-01 2.553421e-01 2.654869e-01 2.733672e-01 2.639198e-01 2.771705e-01 2.492178e-01 2.678500e-01 2.232566e-01 2.468487e-01 1.881085e-01 2.157957e-01 1.457848e-01 1.763167e-01 9.812157e-02 1.298934e-01 4.682833e-02 7.785791e-02 -6.414058e-03 2.153210e-02 -5.994634e-02 -3.756898e-02 -1.122561e-01 -9.761606e-02 -1.621286e-01 -1.565510e-01 -2.086860e-01 -2.123506e-01 -2.513022e-01 -2.632842e-01 -2.894505e-01 -3.080156e-01 -3.225421e-01 -3.455329e-01 -3.497860e-01 -3.749763e-01 
-4.163821e-01 -4.367521e-01 -4.190368e-01 -4.398445e-01 -4.148529e-01 -4.351047e-01 -4.022024e-01 -4.213904e-01 -3.796824e-01 -3.977371e-01 -3.465047e-01 -3.636702e-01 -3.029582e-01 -3.196179e-01 -2.508263e-01 -2.673228e-01 -1.935577e-01 -2.100294e-01 -1.359856e-01 -1.522224e-01 -8.348771e-02 -9.888211e-02 -4.070028e-02 -5.438205e-02 -1.064694e-02 -2.165851e-02 5.475038e-03 -1.915081e-03 8.077997e-03 5.232147e-03 -1.231601e-03 1.322489e-03 -2.013998e-02 -1.152066e-02 -4.609937e-02 -3.112911e-02 -7.673012e-02 -5.562333e-02 -1.100700e-01 -8.351139e-02 -1.445941e-01 -1.136523e-01 -1.790930e-01 -1.452059e-01 -2.125598e-01 -1.776079e-01 -2.441773e-01 -2.105112e-01 -2.733828e-01 -2.436299e-01 -2.999236e-01 -2.765369e-01 -3.238330e-01 -3.085669e-01 -3.453225e-01 -3.388922e-01 -3.646175e-01 -3.666637e-01 -3.817852e-01 -3.910939e-01 -3.965984e-01 -4.114436e-01 -4.084592e-01 -4.269506e-01 
-3.124430e-01 -3.361695e-01 -3.236223e-01 -3.462429e-01 -3.255696e-01 -3.461199e-01 -3.169343e-01 -3.348653e-01 -2.966258e-01 -3.118019e-01 -2.641347e-01 -2.767664e-01 -2.199016e-01 -2.304062e-01 -1.656185e-01 -1.744246e-01 -1.042920e-01 -1.116359e-01 -3.992423e-02 -4.572587e-02 2.314966e-02 1.925685e-02 8.097494e-02 7.950978e-02 1.304411e-01 1.319242e-01 1.694352e-01 1.742882e-01 1.967960e-01 2.052985e-01 2.121816e-01 2.244514e-01 2.159132e-01 2.318800e-01 2.088291e-01 2.281898e-01 1.921356e-01 2.143134e-01 1.672349e-01 1.913769e-01 1.355725e-01 1.605807e-01 9.855723e-02 1.231208e-01 5.755606e-02 8.017999e-02 1.391714e-02 3.298733e-02 -3.103727e-02 -1.709607e-02 -7.606319e-02 -6.853103e-02 -1.200542e-01 -1.196457e-01 -1.620563e-01 -1.687603e-01 -2.012277e-01 -2.143192e-01 -2.367634e-01 -2.549618e-01 -2.678134e-01 -2.895133e-01 -2.934135e-01 -3.169198e-01 
-3.760752e-01 -3.954115e-01 -3.784684e-01 -3.981525e-01 -3.747180e-01 -3.938688e-01 -3.637621e-01 -3.818181e-01 -3.448212e-01 -3.615172e-01 -3.176543e-01 -3.329478e-01 -2.828216e-01 -2.967875e-01 -2.418779e-01 -2.545958e-01 -1.973932e-01 -2.088466e-01 -1.527118e-01 -1.627146e-01 -1.114338e-01 -1.196160e-01 -7.674253e-02 -8.261342e-02 -5.089248e-02 -5.393067e-02 -3.500379e-02 -3.472187e-02 -2.911639e-02 -2.509528e-02 -3.240476e-02 -2.432915e-02 -4.347261e-02 -3.119431e-02 -6.066317e-02 -4.428237e-02 -8.232976e-02 -6.224574e-02 -1.070139e-01 -8.391714e-02 -1.335028e-01 -1.083384e-01 -1.608016e-01 -1.347498e-01 -1.880892e-01 -1.625650e-01 -2.147039e-01 -1.913210e-01 -2.401575e-01 -2.205899e-01 -2.641432e-01 -2.498773e-01 -2.865058e-01 -2.785657e-01 -3.071692e-01 -3.059305e-01 -3.260369e-01 -3.311940e-01 -3.428919e-01 -3.535695e-01 -3.573204e-01 -3.722708e-01 -3.686739e-01 -3.864963e-01 
-2.631536e-01 -2.865227e-01 -2.749072e-01 -2.971660e-01 -2.783568e-01 -2.986315e-01 -2.725423e-01 -2.902457e-01 -2.568196e-01 -2.716501e-01 -2.310615e-01 -2.429582e-01 -1.958582e-01 -2.049152e-01 -1.526487e-01 -1.590043e-01 -1.037023e-01 -1.074334e-01 -5.190108e-02 -5.296464e-02 -3.591487e-04 1.392295e-03 4.798772e-02 5.273492e-02 9.068680e-02 9.855874e-02 1.259188e-01 1.369299e-01 1.525242e-01 1.665441e-01 1.699532e-01 1.866989e-01 1.781754e-01 1.972089e-01 1.775725e-01 1.982984e-01 1.688222e-01 1.904914e-01 1.527821e-01 1.745118e-01 1.303961e-01 1.512036e-01 1.026425e-01 1.214817e-01 7.052298e-02 8.632273e-02 3.506743e-02 4.678838e-02 -2.669651e-03 4.061630e-03 -4.163023e-02 -4.053672e-02 -8.077728e-02 -8.557403e-02 -1.191042e-01 -1.295713e-01 -1.556233e-01 -1.710792e-01 -1.893404e-01 -2.087347e-01 -2.192286e-01 -2.412821e-01 -2.442095e-01 -2.675673e-01 
-3.411770e-01 -3.606048e-01 -3.443694e-01 -3.637789e-01 -3.420593e-01 -3.606481e-01 -3.335425e-01 -3.507174e-01 -3.184043e-01 -3.337742e-01 -2.966797e-01 -3.100169e-01 -2.689960e-01 -2.801784e-01 -2.366531e-01 -2.455994e-01 -2.015866e-01 -2.082016e-01 -1.661821e-01 -1.703234e-01 -1.329515e-01 -1.344299e-01 -1.041490e-01 -1.027658e-01 -8.146201e-02 -7.706042e-02 -6.585699e-02 -5.836284e-02 -5.757881e-02 -4.702425e-02 -5.626423e-02 -4.280314e-02 -6.112173e-02 -4.504732e-02 -7.113232e-02 -5.289398e-02 -8.522917e-02 -6.543362e-02 -1.024217e-01 -8.181119e-02 -1.218497e-01 -1.012699e-01 -1.427832e-01 -1.231585e-01 -1.646022e-01 -1.469179e-01 -1.867824e-01 -1.720502e-01 -2.088904e-01 -1.980696e-01 -2.305754e-01 -2.244481e-01 -2.515442e-01 -2.505796e-01 -2.715159e-01 -2.757765e-01 -2.901664e-01 -2.992895e-01 -3.070753e-01 -3.203328e-01 -3.216923e-01 -3.381034e-01 -3.333282e-01 -3.517934e-01 
-2.213744e-01 -2.454686e-01 -2.347453e-01 -2.574860e-01 -2.406063e-01 -2.611721e-01 -2.382272e-01 -2.559933e-01 -2.272070e-01 -2.417476e-01 -2.075931e-01 -2.186577e-01 -1.799842e-01 -1.874521e-01 -1.455771e-01 -1.494013e-01 -1.061225e-01 -1.062814e-01 -6.377095e-02 -6.024797e-02 -2.083883e-02 -1.363925e-02 2.044391e-02 3.124683e-02 5.813543e-02 7.234826e-02 9.070179e-02 1.079738e-01 1.170586e-01 1.368700e-01 1.365540e-01 1.582273e-01 1.489137e-01 1.716408e-01 1.541646e-01 1.770439e-01 1.525532e-01 1.746325e-01 1.444706e-01 1.647962e-01 1.304007e-01 1.480648e-01 1.108974e-01 1.250783e-01 8.658939e-02 9.658212e-02 5.819422e-02 6.344041e-02 2.652885e-02 2.665535e-02 -7.493365e-03 -1.262487e-02 -4.287563e-02 -5.312210e-02 -7.855399e-02 -9.346947e-02 -1.134126e-01 -1.322667e-01 -1.462979e-01 -1.681339e-01 -1.760340e-01 -1.997541e-01 -2.014433e-01 -2.259023e-01 
-3.111914e-01 -3.316552e-01 -3.159635e-01 -3.358725e-01 -3.157505e-01 -3.343525e-01 -3.100622e-01 -3.267381e-01 -2.986855e-01 -3.129543e-01 -2.817819e-01 -2.932865e-01 -2.599587e-01 -2.684406e-01 -2.342899e-01 -2.395613e-01 -2.062615e-01 -2.081834e-01 -1.776298e-01 -1.761055e-01 -1.502098e-01 -1.451972e-01 -1.256411e-01 -1.171826e-01 -1.051958e-01 -9.345350e-02 -8.967458e-02 -7.495536e-02 -7.939713e-02 -6.216028e-02 -7.427094e-02 -5.511828e-02 -7.390823e-02 -5.356082e-02 -7.775876e-02 -5.702208e-02 -8.522681e-02 -6.494540e-02 -9.574948e-02 -7.675586e-02 -1.088281e-01 -9.189740e-02 -1.240231e-01 -1.098442e-01 -1.409328e-01 -1.300967e-01 -1.591737e-01 -1.521662e-01 -1.783667e-01 -1.755509e-01 -1.981277e-01 -1.997068e-01 -2.180520e-01 -2.240249e-01 -2.376945e-01 -2.478225e-01 -2.565477e-01 -2.703507e-01 -2.740246e-01 -2.908127e-01 -2.894558e-01 -3.083882e-01 -3.021029e-01 -3.222615e-01 
-1.863626e-01 -2.121360e-01 -2.022380e-01 -2.262552e-01 -2.111969e-01 -2.326624e-01 -2.126324e-01 -2.308804e-01 -2.062651e-01 -2.207669e-01 -1.922087e-01 -2.025663e-01 -1.710145e-01 -1.769455e-01 -1.436760e-01 -1.449952e-01 -1.115759e-01 -1.081846e-01 -7.637141e-02 -6.826445e-02 -3.983840e-02 -2.713030e-02 -3.706541e-03 1.332777e-02 3.047618e-02 5.136208e-02 6.142945e-02 8.546994e-02 8.817364e-02 1.144541e-01 1.100183e-01 1.374416e-01 1.265198e-01 1.538683e-01 1.374234e-01 1.634388e-01 1.426062e-01 1.660781e-01 1.420339e-01 1.618843e-01 1.357441e-01 1.510963e-01 1.238574e-01 1.340806e-01 1.066115e-01 1.113365e-01 8.440269e-02 8.351551e-02 5.782054e-02 5.144239e-02 2.766057e-02 1.612555e-02 -5.087019e-03 -2.125283e-02 -3.927055e-02 -5.937085e-02 -7.362386e-02 -9.681997e-02 -1.068194e-01 -1.321671e-01 -1.375214e-01 -1.640160e-01 -1.644366e-01 -1.910613e-01 
-2.856931e-01 -3.080196e-01 -2.926539e-01 -3.137896e-01 -2.949876e-01 -3.142065e-01 -2.923207e-01 -3.089734e-01 -2.845444e-01 -2.980714e-01 -2.718687e-01 -2.818056e-01 -2.548526e-01 -2.608300e-01 -2.343936e-01 -2.361369e-01 -2.116667e-01 -2.090005e-01 -1.880118e-01 -1.808737e-01 -1.647846e-01 -1.532509e-01 -1.432036e-01 -1.275226e-01 -1.242277e-01 -1.048520e-01 -1.084934e-01 -8.609835e-02 -9.631755e-02 -7.179456e-02 -8.775514e-02 -6.217571e-02 -8.269038e-02 -5.724049e-02 -8.093222e-02 -5.682412e-02 -8.228879e-02 -6.066196e-02 -8.660383e-02 -6.843173e-02 -9.375350e-02 -7.977359e-02 -1.036154e-01 -9.429566e-02 -1.160292e-01 -1.115737e-01 -1.307637e-01 -1.311488e-01 -1.474981e-01 -1.525208e-01 -1.658157e-01 -1.751370e-01 -1.852045e-01 -1.983771e-01 -2.050626e-01 -2.215445e-01 -2.247073e-01 -2.438689e-01 -2.433898e-01 -2.645232e-01 -2.603161e-01 -2.826527e-01 -2.746781e-01 -2.974139e-01 
-1.575451e-01 -1.858699e-01 -1.767331e-01 -2.027983e-01 -1.893579e-01 -2.123751e-01 -1.948698e-01 -2.141247e-01 -1.930444e-01 -2.079087e-01 -1.840106e-01 -1.939518e-01 -1.682614e-01 -1.728507e-01 -1.466344e-01 -1.455570e-01 -1.202550e-01 -1.133287e-01 -9.044415e-02 -7.764898e-02 -5.860330e-02 -4.012366e-02 -2.609867e-02 -2.371104e-03 5.832131e-03 3.407725e-02 3.613564e-02 6.785438e-02 6.395570e-02 9.780699e-02 8.860990e-02 1.230163e-01 1.095416e-01 1.427932e-01 1.262652e-01 1.566543e-01 1.383209e-01 1.642891e-01 1.452573e-01 1.655282e-01 1.466464e-01 1.603265e-01 1.421359e-01 1.487660e-01 1.315272e-01 1.310801e-01 1.148628e-01 1.076908e-01 9.249815e-02 7.924498e-02 6.513566e-02 4.663713e-02 3.380821e-02 1.100365e-02 -1.833909e-04 -2.631382e-02 -3.536167e-02 -6.383285e-02 -7.017241e-02 -1.000109e-01 -1.030773e-01 -1.333288e-01 -1.326315e-01 -1.623671e-01 
-2.643743e-01 -2.893137e-01 -2.740407e-01 -2.971064e-01 -2.792571e-01 -2.997295e-01 -2.797045e-01 -2.968903e-01 -2.753215e-01 -2.885755e-01 -2.663321e-01 -2.750798e-01 -2.532508e-01 -2.570096e-01 -2.368544e-01 -2.352568e-01 -2.181162e-01 -2.109355e-01 -1.981072e-01 -1.852906e-01 -1.778788e-01 -1.595875e-01 -1.583498e-01 -1.350051e-01 -1.402270e-01 -1.125516e-01 -1.239748e-01 -9.301536e-02 -1.098436e-01 -7.695734e-02 -9.794205e-02 -6.473493e-02 -8.833208e-02 -5.654516e-02 -8.111352e-02 -5.246869e-02 -7.647049e-02 -5.250030e-02 -7.466574e-02 -5.655918e-02 -7.598890e-02 -6.448331e-02 -8.068037e-02 -7.601989e-02 -8.885677e-02 -9.082389e-02 -1.004573e-01 -1.084679e-01 -1.152190e-01 -1.284552e-01 -1.326786e-01 -1.502228e-01 -1.521955e-01 -1.731328e-01 -1.729878e-01 -1.964603e-01 -1.941758e-01 -2.193933e-01 -2.148272e-01 -2.410495e-01 -2.340015e-01 -2.605126e-01 -2.507930e-01 -2.768791e-01 
-1.345664e-01 -1.662606e-01 -1.578495e-01 -1.867290e-01 -1.746536e-01 -1.999246e-01 -1.844514e-01 -2.053387e-01 -1.870426e-01 -2.028073e-01 -1.825568e-01 -1.925206e-01 -1.714418e-01 -1.750161e-01 -1.544303e-01 -1.511510e-01 -1.324794e-01 -1.220501e-01 -1.066876e-01 -8.903171e-02 -7.819767e-02 -5.352137e-02 -4.810519e-02 -1.696415e-02 -1.739051e-02 1.925089e-02 1.311081e-02 5.384795e-02 4.269422e-02 8.570092e-02 7.073540e-02 1.138503e-01 9.661818e-02 1.375021e-01 1.196644e-01 1.560110e-01 1.390887e-01 1.688530e-01 1.539973e-01 1.756002e-01 1.634376e-01 1.759127e-01 1.664999e-01 1.695594e-01 1.624590e-01 1.564691e-01 1.509321e-01 1.368012e-01 1.320137e-01 1.110138e-01 1.063426e-01 7.990768e-02 7.507287e-02 4.462654e-02 3.975986e-02 6.607574e-03 2.200009e-03 -3.250884e-02 -3.573376e-02 -7.099205e-02 -7.223115e-02 -1.071349e-01 -1.056466e-01 -1.393528e-01 
-2.470792e-01 -2.753281e-01 -2.599319e-01 -2.856253e-01 -2.683143e-01 -2.907216e-01 -2.719225e-01 -2.902842e-01 -2.707125e-01 -2.842738e-01 -2.649131e-01 -2.729645e-01 -2.550169e-01 -2.569376e-01 -2.417400e-01 -2.370415e-01 -2.259497e-01 -2.143207e-01 -2.085642e-01 -1.899202e-01 -1.904413e-01 -1.649828e-01 -1.722803e-01 -1.405588e-01 -1.545620e-01 -1.175461e-01 -1.375483e-01 -9.666721e-02 -1.213461e-01 -7.848322e-02 -1.060216e-01 -6.343081e-02 -9.173174e-02 -5.186491e-02 -7.882594e-02 -4.408795e-02 -6.787746e-02 -4.035209e-02 -5.962787e-02 -4.083208e-02 -5.486409e-02 -4.558073e-02 -5.427019e-02 -5.449121e-02 -5.829714e-02 -6.728951e-02 -6.707846e-02 -8.356285e-02 -8.039962e-02 -1.028032e-01 -9.771533e-02 -1.244313e-01 -1.182038e-01 -1.477867e-01 -1.408455e-01 -1.721057e-01 -1.645107e-01 -1.965132e-01 -1.880404e-01 -2.200426e-01 -2.103125e-01 -2.416786e-01 -2.302934e-01 -2.604166e-01 
-1.173329e-01 -1.531689e-01 -1.454997e-01 -1.779653e-01 -1.669747e-01 -1.952632e-01 -1.812439e-01 -2.045006e-01 -1.881261e-01 -2.054754e-01 -1.877586e-01 -1.983446e-01 -1.805723e-01 -1.836090e-01 -1.672498e-01 -1.620792e-01 -1.486602e-01 -1.348178e-01 -1.257738e-01 -1.030638e-01 -9.956564e-02 -6.814816e-02 -7.092687e-02 -3.141674e-02 -4.060777e-02 5.829749e-03 -9.209011e-03 4.237377e-02 2.277044e-02 7.710192e-02 5.483730e-02 1.090149e-01 8.638410e-02 1.372273e-01 1.165802e-01 1.609523e-01 1.443092e-01 1.794704e-01 1.681770e-01 1.920951e-01 1.865977e-01 1.981634e-01 1.979561e-01 1.970738e-01 2.008383e-01 1.883784e-01 1.943018e-01 1.719093e-01 1.781210e-01 1.479035e-01 1.529132e-01 1.170840e-01 1.200837e-01 8.066724e-02 8.161769e-02 4.028808e-02 3.980256e-02 -2.139351e-03 -3.032138e-03 -4.458811e-02 -4.471076e-02 -8.507566e-02 -8.333289e-02 -1.217887e-01 
-2.338341e-01 -2.660433e-01 -2.503554e-01 -2.793853e-01 -2.621717e-01 -2.872619e-01 -2.689694e-01 -2.892600e-01 -2.707067e-01 -2.852905e-01 -2.676224e-01 -2.756094e-01 -2.602216e-01 -2.608062e-01 -2.492279e-01 -2.417542e-01 -2.354990e-01 -2.195203e-01 -2.199092e-01 -1.952506e-01 -2.032200e-01 -1.700538e-01 -1.859682e-01 -1.449101e-01 -1.684072e-01 -1.206262e-01 -1.505292e-01 -9.784203e-02 -1.321808e-01 -7.707979e-02 -1.132538e-01 -5.881319e-02 -9.390035e-02 -4.352936e-02 -7.469312e-02 -3.175619e-02 -5.665662e-02 -2.403794e-02 -4.114169e-02 -2.085732e-02 -2.958822e-02 -2.252746e-02 -2.326077e-02 -2.910120e-02 -2.303336e-02 -4.034944e-02 -2.926394e-02 -5.582651e-02 -4.176185e-02 -7.497754e-02 -5.983147e-02 -9.719980e-02 -8.237384e-02 -1.218156e-01 -1.080295e-01 -1.480181e-01 -1.353302e-01 -1.748480e-01 -1.628255e-01 -2.012163e-01 -1.891699e-01 -2.259625e-01 -2.131739e-01 -2.479297e-01 
-1.060620e-01 -1.467588e-01 -1.399146e-01 -1.767510e-01 -1.665381e-01 -1.986873e-01 -1.854438e-01 -2.119437e-01 -1.964823e-01 -2.162780e-01 -1.998189e-01 -2.118238e-01 -1.959047e-01 -1.990754e-01 -1.854323e-01 -1.788494e-01 -1.692653e-01 -1.522199e-01 -1.483398e-01 -1.204281e-01 -1.235492e-01 -8.478673e-02 -9.563595e-02 -4.659948e-02 -6.512611e-02 -7.114075e-03 -3.233458e-02 3.249217e-02 2.543457e-03 7.111038e-02 3.926609e-02 1.077009e-01 7.734097e-02 1.412986e-01 1.158427e-01 1.710012e-01 1.533097e-01 1.959202e-01 1.877544e-01 2.151127e-01 2.167876e-01 2.275465e-01 2.378517e-01 2.321520e-01 2.485690e-01 2.279746e-01 2.471930e-01 2.143987e-01 2.330586e-01 1.913710e-01 2.068307e-01 1.595471e-01 1.703930e-01 1.203090e-01 1.264523e-01 7.563974e-02 7.805492e-02 2.789596e-02 2.818088e-02 -2.044893e-02 -2.051767e-02 -6.702501e-02 -6.583965e-02 -1.097188e-01 
-2.248790e-01 -2.616481e-01 -2.455763e-01 -2.786804e-01 -2.611018e-01 -2.897226e-01 -2.711130e-01 -2.942375e-01 -2.755598e-01 -2.920619e-01 -2.747010e-01 -2.834396e-01 -2.690966e-01 -2.690149e-01 -2.595584e-01 -2.497707e-01 -2.470480e-01 -2.269089e-01 -2.325232e-01 -2.016911e-01 -2.167589e-01 -1.752807e-01 -2.001861e-01 -1.486303e-01 -1.828052e-01 -1.224461e-01 -1.642203e-01 -9.723324e-02 -1.438247e-01 -7.340391e-02 -1.211209e-01 -5.140817e-02 -9.609834e-02 -3.184154e-02 -6.952706e-02 -1.548756e-02 -4.301449e-02 -3.267360e-03 -1.876476e-02 3.912675e-03 8.577665e-04 5.380644e-03 1.378603e-02 8.953580e-04 1.859244e-02 -9.296917e-03 1.466218e-02 -2.460621e-02 2.213401e-03 -4.435629e-02 -1.779080e-02 -6.792871e-02 -4.381226e-02 -9.466362e-02 -7.398377e-02 -1.237225e-01 -1.063644e-01 -1.540374e-01 -1.391290e-01 -1.843479e-01 -1.706682e-01 -2.132869e-01 -1.996217e-01 -2.394812e-01 
-1.013377e-01 -1.475393e-01 -1.416746e-01 -1.836848e-01 -1.738949e-01 -2.108538e-01 -1.975670e-01 -2.283624e-01 -2.125960e-01 -2.359295e-01 -2.191992e-01 -2.336769e-01 -2.178878e-01 -2.221248e-01 -2.094304e-01 -2.021585e-01 -1.947803e-01 -1.749498e-01 -1.749528e-01 -1.418367e-01 -1.508650e-01 -1.041916e-01 -1.231743e-01 -6.332077e-02 -9.217408e-02 -2.043009e-02 -5.779896e-02 2.334813e-02 -1.977181e-02 6.691021e-02 2.212027e-02 1.091697e-01 6.767981e-02 1.490897e-01 1.159846e-01 1.856959e-01 1.652114e-01 2.179926e-01 2.126477e-01 2.448070e-01 2.548619e-01 2.646794e-01 2.879986e-01 2.759114e-01 3.082602e-01 2.768148e-01 3.126452e-01 2.661068e-01 2.998101e-01 2.433121e-01 2.705936e-01 2.090214e-01 2.277744e-01 1.649274e-01 1.752806e-01 1.136013e-01 1.173307e-01 5.809865e-02 5.781209e-02 1.550142e-03 -3.554050e-05 -5.314888e-02 -5.369929e-02 -1.035148e-01 
-2.206998e-01 -2.625665e-01 -2.461189e-01 -2.840898e-01 -2.656516e-01 -2.988022e-01 -2.789039e-01 -3.059850e-01 -2.857982e-01 -3.053643e-01 -2.866163e-01 -2.971733e-01 -2.820175e-01 -2.821682e-01 -2.730006e-01 -2.615584e-01 -2.607810e-01 -2.368371e-01 -2.465770e-01 -2.095376e-01 -2.313354e-01 -1.809881e-01 -2.154666e-01 -1.521470e-01 -1.986787e-01 -1.235703e-01 -1.799994e-01 -9.551737e-02 -1.580464e-01 -6.815787e-02 -1.315556e-01 -4.181190e-02 -1.000632e-01 -1.714502e-02 -6.448631e-02 4.746797e-03 -2.726222e-02 2.240632e-02 8.108561e-03 3.427652e-02 3.787314e-02 3.912260e-02 5.881298e-02 3.645033e-02 6.876832e-02 2.666254e-02 6.684729e-02 1.075564e-02 5.339270e-02 -1.031224e-02 2.982339e-02 -3.598191e-02 -1.614672e-03 -6.572641e-02 -3.827305e-02 -9.871460e-02 -7.754241e-02 -1.337348e-01 -1.171289e-01 -1.692816e-01 -1.551413e-01 -2.036979e-01 -1.900646e-01 -2.353143e-01 
-1.041760e-01 -1.564199e-01 -1.517407e-01 -1.997568e-01 -1.899408e-01 -2.328061e-01 -2.184483e-01 -2.548330e-01 -2.372437e-01 -2.655126e-01 -2.466110e-01 -2.649551e-01 -2.471520e-01 -2.537359e-01 -2.397813e-01 -2.328836e-01 -2.256611e-01 -2.037857e-01 -2.060442e-01 -1.680080e-01 -1.820306e-01 -1.270801e-01 -1.542948e-01 -8.234218e-02 -1.228876e-01 -3.492807e-02 -8.721333e-02 1.412358e-02 -4.624362e-02 6.372725e-02 1.034873e-03 1.127162e-01 5.502989e-02 1.599639e-01 1.149922e-01 2.045011e-01 1.787177e-01 2.453739e-01 2.425930e-01 2.812825e-01 3.018412e-01 3.102825e-01 3.508216e-01 3.297903e-01 3.835731e-01 3.369852e-01 3.949797e-01 3.295205e-01 3.825046e-01 3.062596e-01 3.474240e-01 2.677193e-01 2.942246e-01 2.161491e-01 2.289333e-01 1.551127e-01 1.575678e-01 8.877012e-02 8.523113e-02 2.120542e-02 1.581321e-02 -4.400266e-02 -4.793529e-02 -1.039537e-01 
-2.220602e-01 -2.694923e-01 -2.527905e-01 -2.965217e-01 -2.766687e-01 -3.155802e-01 -2.932080e-01 -3.256850e-01 -3.022569e-01 -3.263831e-01 -3.040968e-01 -3.178775e-01 -2.995201e-01 -3.011011e-01 -2.898314e-01 -2.776569e-01 -2.767114e-01 -2.495704e-01 -2.619115e-01 -2.188906e-01 -2.468139e-01 -1.872737e-01 -2.319700e-01 -1.557125e-01 -2.167704e-01 -1.245025e-01 -1.993898e-01 -9.344558e-02 -1.771388e-01 -6.222619e-02 -1.473048e-01 -3.084102e-02 -1.083965e-01 5.345052e-05 -6.134605e-02 2.897119e-02 -9.887025e-03 5.364882e-02 4.036602e-02 7.144912e-02 8.347829e-02 8.014798e-02 1.145489e-01 7.883295e-02 1.304723e-01 6.836162e-02 1.301152e-01 5.077616e-02 1.141167e-01 2.770184e-02 8.462437e-02 -6.942926e-04 4.504504e-02 -3.432771e-02 -7.296322e-04 -7.244204e-02 -4.914212e-02 -1.136040e-01 -9.735563e-02 -1.559410e-01 -1.432451e-01 -1.973881e-01 -1.852219e-01 -2.358813e-01 
-1.160861e-01 -1.747746e-01 -1.714759e-01 -2.263854e-01 -2.159198e-01 -2.660008e-01 -2.492441e-01 -2.928446e-01 -2.715049e-01 -3.065187e-01 -2.830338e-01 -3.070864e-01 -2.845235e-01 -2.951858e-01 -2.770960e-01 -2.720801e-01 -2.622769e-01 -2.395527e-01 -2.417994e-01 -1.996097e-01 -2.172169e-01 -1.540888e-01 -1.894161e-01 -1.043786e-01 -1.582232e-01 -5.142341e-02 -1.222917e-01 3.978835e-03 -7.939051e-02 6.079790e-02 -2.711534e-02 1.176639e-01 3.609218e-02 1.732373e-01 1.099441e-01 2.266860e-01 1.917988e-01 2.774484e-01 2.768875e-01 3.243880e-01 3.587810e-01 3.650623e-01 4.295031e-01 3.955910e-01 4.797617e-01 4.113064e-01 5.005991e-01 4.080743e-01 4.870706e-01 3.836848e-01 4.415191e-01 3.385400e-01 3.718390e-01 2.758906e-01 2.877239e-01 2.010156e-01 1.978966e-01 1.198374e-01 1.089575e-01 3.780047e-02 2.534899e-02 -4.068438e-02 -5.019101e-02 -1.123249e-01 
-2.300205e-01 -2.834320e-01 -2.666982e-01 -3.172671e-01 -2.953323e-01 -3.415945e-01 -3.152622e-01 -3.550399e-01 -3.261593e-01 -3.568386e-01 -3.282214e-01 -3.470848e-01 -3.223676e-01 -3.269437e-01 -3.103407e-01 -2.986561e-01 -2.945911e-01 -2.651797e-01 -2.778429e-01 -2.294943e-01 -2.623737e-01 -1.938529e-01 -2.492032e-01 -1.593130e-01 -2.374515e-01 -1.256975e-01 -2.240802e-01 -9.196737e-02 -2.042443e-01 -5.688664e-02 -1.725376e-01 -1.978209e-02 -1.252482e-01 1.885953e-02 -6.296014e-02 5.709521e-02 8.362380e-03 9.143707e-02 7.941813e-02 1.173699e-01 1.407272e-01 1.307732e-01 1.849384e-01 1.298488e-01 2.078233e-01 1.164899e-01 2.082190e-01 9.540213e-02 1.873520e-01 6.996478e-02 1.483818e-01 3.863175e-02 9.668866e-02 3.231994e-04 3.824911e-02 -4.428690e-02 -2.205092e-02 -9.333232e-02 -8.086899e-02 -1.443609e-01 -1.360551e-01 -1.947359e-01 -1.861487e-01 -2.418843e-01 
-1.391058e-01 -2.045024e-01 -2.026339e-01 -2.654378e-01 -2.534043e-01 -3.123228e-01 -2.914297e-01 -3.443370e-01 -3.167901e-01 -3.609184e-01 -3.297725e-01 -3.619649e-01 -3.310869e-01 -3.481215e-01 -3.220854e-01 -3.209905e-01 -3.048519e-01 -2.830477e-01 -2.819881e-01 -2.371317e-01 -2.559874e-01 -1.856678e-01 -2.283384e-01 -1.300820e-01 -1.987467e-01 -7.082282e-02 -1.648163e-01 -8.059933e-03 -1.223925e-01 5.734558e-02 -6.665973e-02 1.234504e-01 6.082871e-03 1.882158e-01 9.649840e-02 2.511642e-01 2.012609e-01 3.129518e-01 3.139617e-01 3.733201e-01 4.263920e-01 4.294495e-01 5.280005e-01 4.755041e-01 6.045186e-01 5.036478e-01 6.394975e-01 5.066012e-01 6.223548e-01 4.804572e-01 5.582769e-01 4.253318e-01 4.623543e-01 3.463222e-01 3.507324e-01 2.517901e-01 2.359753e-01 1.505055e-01 1.261819e-01 4.978911e-02 2.585252e-02 -4.506385e-02 -6.286031e-02 -1.305635e-01 
-2.459233e-01 -3.057478e-01 -2.892422e-01 -3.480542e-01 -3.231811e-01 -3.789343e-01 -3.467549e-01 -3.964264e-01 -3.592554e-01 -3.991960e-01 -3.605940e-01 -3.870099e-01 -3.517085e-01 -3.612574e-01 -3.348942e-01 -3.251737e-01 -3.138045e-01 -2.833458e-01 -2.928598e-01 -2.404356e-01 -2.760453e-01 -1.997615e-01 -2.654870e-01 -1.624775e-01 -2.602817e-01 -1.275496e-01 -2.558082e-01 -9.241628e-02 -2.438028e-01 -5.414981e-02 -2.139074e-01 -1.080714e-02 -1.576007e-01 3.757678e-02 -7.406387e-02 8.865943e-02 2.643562e-02 1.371758e-01 1.277251e-01 1.752875e-01 2.144505e-01 1.950389e-01 2.758050e-01 1.923686e-01 3.065071e-01 1.710864e-01 3.060881e-01 1.427402e-01 2.768895e-01 1.161666e-01 2.228455e-01 8.281987e-02 1.529914e-01 3.920071e-02 7.709513e-02 -1.358264e-02 1.785829e-03 -7.269497e-02 -6.950517e-02 -1.347644e-01 -1.351637e-01 -1.963737e-01 -1.942507e-01 -2.543273e-01 
-1.757614e-01 -2.480491e-01 -2.472781e-01 -3.191978e-01 -3.042260e-01 -3.740618e-01 -3.467783e-01 -4.117335e-01 -3.748892e-01 -4.312749e-01 -3.885753e-01 -4.321235e-01 -3.883390e-01 -4.147170e-01 -3.756702e-01 -3.810800e-01 -3.534269e-01 -3.348956e-01 -3.257103e-01 -2.806160e-01 -2.968531e-01 -2.218394e-01 -2.697198e-01 -1.599977e-01 -2.441984e-01 -9.433035e-02 -2.164802e-01 -2.338977e-02 -1.793678e-01 5.253741e-02 -1.238498e-01 1.299540e-01 -4.217158e-02 2.044519e-01 6.819729e-02 2.762966e-01 2.022954e-01 3.493549e-01 3.507475e-01 4.258537e-01 5.040683e-01 5.030330e-01 6.504852e-01 5.720753e-01 7.692376e-01 6.194330e-01 8.284349e-01 6.319546e-01 8.020931e-01 6.035454e-01 7.041660e-01 5.332082e-01 5.658333e-01 4.296012e-01 4.143209e-01 3.069346e-01 2.668563e-01 1.785901e-01 1.320866e-01 5.427207e-02 1.325110e-02 -6.010367e-02 -8.916847e-02 -1.613928e-01 
-2.713103e-01 -3.381803e-01 -3.220599e-01 -3.910734e-01 -3.621193e-01 -4.303286e-01 -3.899267e-01 -4.531046e-01 -4.040368e-01 -4.570106e-01 -4.036565e-01 -4.409547e-01 -3.894049e-01 -4.063228e-01 -3.641267e-01 -3.578399e-01 -3.332743e-01 -3.030063e-01 -3.041756e-01 -2.495941e-01 -2.839561e-01 -2.028104e-01 -2.770144e-01 -1.639195e-01 -2.830931e-01 -1.303460e-01 -2.958751e-01 -9.681346e-02 -3.020896e-01 -5.732087e-02 -2.824739e-01 -7.646017e-03 -2.178564e-01 5.293995e-02 -1.026925e-01 1.222377e-01 4.319920e-02 1.927597e-01 1.899830e-01 2.508256e-01 3.126341e-01 2.806103e-01 3.958731e-01 2.718085e-01 4.341176e-01 2.303018e-01 4.297609e-01 1.850425e-01 3.877143e-01 1.652667e-01 3.092232e-01 1.332420e-01 2.114490e-01 8.348146e-02 1.118203e-01 2.021351e-02 1.862038e-02 -5.174714e-02 -6.617255e-02 -1.277253e-01 -1.427203e-01 -2.033036e-01 -2.112206e-01 -2.745780e-01 
-2.288759e-01 -3.083264e-01 -3.075780e-01 -3.902217e-01 -3.703214e-01 -4.538005e-01 -4.172995e-01 -4.979462e-01 -4.480397e-01 -5.209221e-01 -4.618498e-01 -5.210670e-01 -4.585146e-01 -4.980187e-01 -4.392788e-01 -4.541578e-01 -4.079080e-01 -3.952773e-01 -3.710306e-01 -3.290810e-01 -3.365300e-01 -2.616555e-01 -3.101501e-01 -1.944478e-01 -2.926538e-01 -1.239510e-01 -2.784683e-01 -4.464319e-02 -2.557304e-01 4.527380e-02 -2.081284e-01 1.384767e-01 -1.198947e-01 2.226001e-01 1.555978e-02 2.996320e-01 1.884554e-01 3.817323e-01 3.820292e-01 4.768513e-01 5.875791e-01 5.833189e-01 7.987351e-01 6.879905e-01 9.904249e-01 7.665235e-01 1.098577e+00 7.935051e-01 1.048287e+00 7.630432e-01 8.849892e-01 6.687963e-01 6.772038e-01 5.269356e-01 4.691852e-01 3.635559e-01 2.811831e-01 1.992769e-01 1.190136e-01 4.618123e-02 -1.810915e-02 -9.025792e-02 -1.330957e-01 -2.084194e-01 
-3.077229e-01 -3.828091e-01 -3.668839e-01 -4.489126e-01 -4.143682e-01 -4.991709e-01 -4.476717e-01 -5.294682e-01 -4.640504e-01 -5.354868e-01 -4.612274e-01 -5.140807e-01 -4.386793e-01 -4.657648e-01 -3.994178e-01 -3.973242e-01 -3.514386e-01 -3.216974e-01 -3.070818e-01 -2.526304e-01 -2.791641e-01 -1.986101e-01 -2.762870e-01 -1.608907e-01 -3.002088e-01 -1.341698e-01 -3.437351e-01 -1.084150e-01 -3.875236e-01 -7.197810e-02 -3.972479e-01 -1.658349e-02 -3.295887e-01 5.870360e-02 -1.626856e-01 1.540126e-01 5.860351e-02 2.602539e-01 2.757709e-01 3.536846e-01 4.489724e-01 4.028765e-01 5.583467e-01 3.806060e-01 5.997918e-01 2.880430e-01 5.845447e-01 1.946658e-01 5.272627e-01 2.181293e-01 4.066059e-01 1.929423e-01 2.638640e-01 1.339327e-01 1.334132e-01 5.683221e-02 2.178623e-02 -3.128018e-02 -7.505419e-02 -1.244680e-01 -1.612806e-01 -2.170741e-01 -2.388142e-01 -3.044234e-01 
-3.011122e-01 -3.884094e-01 -3.854173e-01 -4.809789e-01 -4.534470e-01 -5.541300e-01 -5.051026e-01 -6.063026e-01 -5.390016e-01 -6.342319e-01 -5.530196e-01 -6.339114e-01 -5.452244e-01 -6.027241e-01 -5.155548e-01 -5.427493e-01 -4.683626e-01 -4.634311e-01 -4.144544e-01 -3.792977e-01 -3.686995e-01 -3.019595e-01 -3.425588e-01 -2.331591e-01 -3.389710e-01 -1.636376e-01 -3.504643e-01 -7.798399e-02 -3.585596e-01 3.314974e-02 -3.345455e-01 1.546230e-01 -2.459716e-01 2.467884e-01 -7.518891e-02 3.173355e-01 1.535771e-01 4.006020e-01 4.008219e-01 5.153757e-01 6.640055e-01 6.628295e-01 9.629201e-01 8.251409e-01 1.288423e+00 9.571129e-01 1.516939e+00 1.001471e+00 1.395731e+00 9.735721e-01 1.098064e+00 8.398368e-01 7.775914e-01 6.356858e-01 4.948530e-01 4.132407e-01 2.626986e-01 2.029293e-01 7.577882e-02 1.713951e-02 -7.532061e-02 -1.418420e-01 -1.989539e-01 -2.760485e-01 