# vtk DataFile Version 2.0
Comment goes here
ASCII

DATASET STRUCTURED_POINTS
DIMENSIONS    64   64   1

ORIGIN    0.000   0.000   0.000
SPACING   0.0156250.015625   1.000

POINT_DATA   4096
SCALARS P double
LOOKUP_TABLE default

-3.078970e-01 -4.650639e-01 -3.220662e-01 -4.847866e-01 -3.393689e-01 -5.023631e-01 -3.548282e-01 -5.146227e-01 -3.626800e-01 -5.177934e-01 -3.563151e-01 -5.077325e-01 -3.287087e-01 -4.800727e-01 -2.739029e-01 -4.305979e-01 -1.903175e-01 -3.577064e-01 -8.595690e-02 -2.688701e-01 1.995549e-02 -1.767123e-01 1.102965e-01 -9.524836e-02 1.717916e-01 -3.182273e-02 1.981806e-01 1.630348e-02 1.906302e-01 5.851547e-02 1.547364e-01 1.017143e-01 9.546926e-02 1.415563e-01 1.514739e-02 1.647017e-01 -8.161814e-02 1.592538e-01 -1.913504e-01 1.212313e-01 -3.090271e-01 5.461645e-02 -4.243125e-01 -3.074751e-02 -5.207269e-01 -1.217244e-01 -5.793508e-01 -2.056735e-01 -5.873156e-01 -2.745281e-01 -5.482900e-01 -3.240669e-01 -4.843326e-01 -3.571473e-01 -4.180597e-01 -3.794294e-01 -3.634702e-01 -3.962382e-01 -3.260996e-01 -4.114984e-01 -3.061653e-01 -4.276046e-01 -3.012652e-01 -4.455462e-01 
-3.204212e-01 -4.899195e-01 -3.397685e-01 -5.147098e-01 -3.650934e-01 -5.407787e-01 -3.921147e-01 -5.651945e-01 -4.156196e-01 -5.839523e-01 -4.291764e-01 -5.919806e-01 -4.252681e-01 -5.833945e-01 -3.966225e-01 -5.526315e-01 -3.396804e-01 -4.975103e-01 -2.600223e-01 -4.240948e-01 -1.751520e-01 -3.466596e-01 -1.064759e-01 -2.811622e-01 -7.029380e-02 -2.372954e-01 -7.338417e-02 -2.152243e-01 -1.124469e-01 -2.068923e-01 -1.760019e-01 -2.004987e-01 -2.491067e-01 -1.870480e-01 -3.201239e-01 -1.663833e-01 -3.845893e-01 -1.465466e-01 -4.458639e-01 -1.373229e-01 -5.067580e-01 -1.445557e-01 -5.631640e-01 -1.687021e-01 -6.038767e-01 -2.062921e-01 -6.158783e-01 -2.519628e-01 -5.929850e-01 -2.997527e-01 -5.423360e-01 -3.436256e-01 -4.790131e-01 -3.785231e-01 -4.173581e-01 -4.033951e-01 -3.668629e-01 -4.209307e-01 -3.320286e-01 -4.353209e-01 -3.137402e-01 -4.503075e-01 -3.106987e-01 -4.682444e-01 
-2.516035e-01 -3.755006e-01 -2.580948e-01 -3.913885e-01 -2.658578e-01 -4.038027e-01 -2.710040e-01 -4.104133e-01 -2.692491e-01 -4.085365e-01 -2.561310e-01 -3.953853e-01 -2.275821e-01 -3.684153e-01 -1.810768e-01 -3.259774e-01 -1.174178e-01 -2.686954e-01 -4.252319e-02 -2.012054e-01 3.297796e-02 -1.308434e-01 9.822997e-02 -6.522716e-02 1.445102e-01 -8.916360e-03 1.669425e-01 3.801295e-02 1.647694e-01 7.830218e-02 1.400550e-01 1.136007e-01 9.567994e-02 1.412099e-01 3.444147e-02 1.549063e-01 -4.002336e-02 1.489465e-01 -1.236367e-01 1.212569e-01 -2.109513e-01 7.418052e-02 -2.939817e-01 1.365456e-02 -3.624223e-01 -5.240536e-02 -4.060443e-01 -1.162451e-01 -4.189308e-01 -1.722260e-01 -4.035014e-01 -2.174311e-01 -3.703058e-01 -2.523461e-01 -3.316730e-01 -2.794318e-01 -2.969067e-01 -3.015628e-01 -2.710362e-01 -3.211352e-01 -2.555889e-01 -3.397078e-01 -2.498085e-01 -3.579158e-01 
-2.759805e-01 -4.114775e-01 -2.878782e-01 -4.322261e-01 -3.034462e-01 -4.521319e-01 -3.192265e-01 -4.689472e-01 -3.312016e-01 -4.797500e-01 -3.348868e-01 -4.811474e-01 -3.257753e-01 -4.697319e-01 -3.004511e-01 -4.430414e-01 -2.585090e-01 -4.011650e-01 -2.046640e-01 -3.483716e-01 -1.490534e-01 -2.926417e-01 -1.037948e-01 -2.426411e-01 -7.864520e-02 -2.040841e-01 -7.823793e-02 -1.778819e-01 -1.013774e-01 -1.606294e-01 -1.421098e-01 -1.469463e-01 -1.923255e-01 -1.327510e-01 -2.450260e-01 -1.178617e-01 -2.963523e-01 -1.058471e-01 -3.454888e-01 -1.014353e-01 -3.916234e-01 -1.078445e-01 -4.313453e-01 -1.256517e-01 -4.586127e-01 -1.530890e-01 -4.673198e-01 -1.869263e-01 -4.550962e-01 -2.232928e-01 -4.256366e-01 -2.583439e-01 -3.868368e-01 -2.891072e-01 -3.471264e-01 -3.145660e-01 -3.129909e-01 -3.356395e-01 -2.882254e-01 -3.542678e-01 -2.742333e-01 -3.724017e-01 -2.706611e-01 -3.913447e-01 
-1.908921e-01 -2.878910e-01 -1.930770e-01 -3.016735e-01 -1.951437e-01 -3.112146e-01 -1.942210e-01 -3.148224e-01 -1.872854e-01 -3.106485e-01 -1.714544e-01 -2.969261e-01 -1.444806e-01 -2.722989e-01 -1.054950e-01 -2.363074e-01 -5.588851e-02 -1.900439e-01 1.145419e-04 -1.366165e-01 5.598013e-02 -8.052183e-02 1.047320e-01 -2.634365e-02 1.404954e-01 2.273325e-02 1.595414e-01 6.553651e-02 1.605533e-01 1.021575e-01 1.441290e-01 1.323111e-01 1.119559e-01 1.540818e-01 6.633618e-02 1.642667e-01 1.027325e-02 1.600191e-01 -5.254585e-02 1.403827e-01 -1.174648e-01 1.068666e-01 -1.786355e-01 6.312262e-02 -2.294884e-01 1.403608e-02 -2.641796e-01 -3.547459e-02 -2.796673e-01 -8.153901e-02 -2.773119e-01 -1.219022e-01 -2.625156e-01 -1.561307e-01 -2.421412e-01 -1.850591e-01 -2.220679e-01 -2.100175e-01 -2.060666e-01 -2.322459e-01 -1.957685e-01 -2.525630e-01 -1.911196e-01 -2.712239e-01 
-2.251947e-01 -3.326346e-01 -2.325057e-01 -3.507597e-01 -2.417366e-01 -3.667153e-01 -2.502603e-01 -3.788211e-01 -2.551620e-01 -3.850360e-01 -2.534625e-01 -3.831952e-01 -2.425592e-01 -3.714159e-01 -2.209773e-01 -3.487275e-01 -1.893569e-01 -3.158554e-01 -1.512368e-01 -2.757487e-01 -1.128324e-01 -2.331413e-01 -8.133847e-02 -1.930544e-01 -6.272907e-02 -1.590498e-01 -6.015246e-02 -1.322437e-01 -7.339206e-02 -1.114869e-01 -9.939648e-02 -9.453658e-02 -1.336450e-01 -7.966576e-02 -1.717824e-01 -6.686621e-02 -2.106780e-01 -5.785515e-02 -2.484123e-01 -5.499530e-02 -2.831799e-01 -6.002507e-02 -3.123056e-01 -7.334467e-02 -3.323247e-01 -9.398075e-02 -3.402108e-01 -1.199586e-01 -3.350439e-01 -1.487936e-01 -3.189170e-01 -1.779948e-01 -2.962014e-01 -2.056035e-01 -2.719001e-01 -2.306673e-01 -2.502554e-01 -2.532629e-01 -2.340757e-01 -2.741016e-01 -2.246585e-01 -2.940099e-01 -2.220190e-01 -3.135191e-01 
-1.279614e-01 -2.033445e-01 -1.283332e-01 -2.163449e-01 -1.275438e-01 -2.246773e-01 -1.235502e-01 -2.271080e-01 -1.142968e-01 -2.223863e-01 -9.798851e-02 -2.094394e-01 -7.345819e-02 -1.876184e-01 -4.061457e-02 -1.569982e-01 -8.616117e-04 -1.186714e-01 4.274852e-02 -7.484585e-02 8.590619e-02 -2.848698e-02 1.239652e-01 1.736326e-02 1.528583e-01 6.028921e-02 1.697531e-01 9.879353e-02 1.732967e-01 1.319896e-01 1.634666e-01 1.589313e-01 1.412314e-01 1.781316e-01 1.082941e-01 1.877309e-01 6.701720e-02 1.862148e-01 2.038541e-02 1.731513e-01 -2.797444e-02 1.495308e-01 -7.388350e-02 1.176329e-01 -1.130475e-01 8.053091e-02 -1.419112e-01 4.141824e-02 -1.586885e-01 2.983605e-03 -1.640304e-01 -3.297554e-02 -1.607687e-01 -6.566612e-02 -1.527466e-01 -9.507206e-02 -1.435513e-01 -1.215709e-01 -1.357349e-01 -1.455843e-01 -1.305860e-01 -1.673398e-01 -1.282467e-01 -1.867445e-01 
-1.704364e-01 -2.549322e-01 -1.753440e-01 -2.715841e-01 -1.808388e-01 -2.852464e-01 -1.849992e-01 -2.946658e-01 -1.857914e-01 -2.984446e-01 -1.813013e-01 -2.952430e-01 -1.700808e-01 -2.840728e-01 -1.516122e-01 -2.646730e-01 -1.267967e-01 -2.378762e-01 -9.821834e-02 -2.057553e-01 -6.986783e-02 -1.712993e-01 -4.622214e-02 -1.376322e-01 -3.107183e-02 -1.071361e-01 -2.660160e-02 -8.092966e-02 -3.302378e-02 -5.892729e-02 -4.881603e-02 -4.041224e-02 -7.141955e-02 -2.482484e-02 -9.807800e-02 -1.234489e-02 -1.264160e-01 -3.933417e-03 -1.545201e-01 -8.673522e-04 -1.805857e-01 -4.123508e-03 -2.025936e-01 -1.396005e-02 -2.184243e-01 -2.981713e-02 -2.264533e-01 -5.046732e-02 -2.262921e-01 -7.429390e-02 -2.191551e-01 -9.961600e-02 -2.075276e-01 -1.250155e-01 -1.943778e-01 -1.495829e-01 -1.823833e-01 -1.729525e-01 -1.734500e-01 -1.951322e-01 -1.685483e-01 -2.162411e-01 -1.677622e-01 -2.362713e-01 
-6.450900e-02 -1.225224e-01 -6.485937e-02 -1.357853e-01 -6.323491e-02 -1.441239e-01 -5.820946e-02 -1.466137e-01 -4.842231e-02 -1.424083e-01 -3.279875e-02 -1.308823e-01 -1.080471e-02 -1.117962e-01 1.729181e-02 -8.546551e-02 5.022690e-02 -5.288512e-02 8.573039e-02 -1.572031e-02 1.207956e-01 2.391179e-02 1.521904e-01 6.380790e-02 1.770025e-01 1.020344e-01 1.930591e-01 1.370873e-01 1.991307e-01 1.677855e-01 1.949216e-01 1.930099e-01 1.809383e-01 2.115289e-01 1.583519e-01 2.220941e-01 1.289092e-01 2.237732e-01 9.486231e-02 2.163084e-01 5.889179e-02 2.003021e-01 2.394288e-02 1.771587e-01 -7.108249e-03 1.488191e-01 -3.195787e-02 1.173856e-01 -4.940173e-02 8.476044e-02 -5.962934e-02 5.240030e-02 -6.406728e-02 2.123193e-02 -6.480434e-02 -8.261454e-03 -6.391552e-02 -3.585636e-02 -6.296731e-02 -6.139748e-02 -6.279325e-02 -8.465174e-02 -6.348570e-02 -1.052229e-01 
-1.135599e-01 -1.793443e-01 -1.176865e-01 -1.954827e-01 -1.213478e-01 -2.080885e-01 -1.231646e-01 -2.162073e-01 -1.217522e-01 -2.188830e-01 -1.159161e-01 -2.153067e-01 -1.048977e-01 -2.050102e-01 -8.864981e-02 -1.880749e-01 -6.807000e-02 -1.652959e-01 -4.506478e-02 -1.381953e-01 -2.231957e-02 -1.087987e-01 -2.766029e-03 -7.920784e-02 1.107355e-02 -5.113982e-02 1.761979e-02 -2.564540e-02 1.647762e-02 -3.121357e-03 8.342009e-03 1.641202e-02 -5.354858e-03 3.292209e-02 -2.288421e-02 4.607258e-02 -4.255272e-02 5.518489e-02 -6.281238e-02 5.944706e-02 -8.218643e-02 5.822324e-02 -9.919904e-02 5.129795e-02 -1.124801e-01 3.897070e-02 -1.210626e-01 2.200551e-02 -1.247182e-01 1.483309e-03 -1.241077e-01 -2.139309e-02 -1.206122e-01 -4.549704e-02 -1.159354e-01 -6.992560e-02 -1.116713e-01 -9.404329e-02 -1.089914e-01 -1.174200e-01 -1.084935e-01 -1.397092e-01 -1.101869e-01 -1.605234e-01 
-1.825753e-03 -4.582497e-02 -3.436500e-03 -6.021989e-02 -2.386905e-03 -6.947537e-02 2.321398e-03 -7.286106e-02 1.157461e-02 -6.979200e-02 2.598175e-02 -5.992556e-02 4.570515e-02 -4.326258e-02 7.031124e-02 -2.023483e-02 9.868656e-02 8.251442e-03 1.290734e-01 4.085484e-02 1.592571e-01 7.594083e-02 1.868753e-01 1.117902e-01 2.097536e-01 1.467948e-01 2.261797e-01 1.795573e-01 2.350617e-01 2.088680e-01 2.359663e-01 2.336127e-01 2.290748e-01 2.527162e-01 2.151111e-01 2.652016e-01 1.952702e-01 2.703534e-01 1.711439e-01 2.678975e-01 1.446259e-01 2.581040e-01 1.177605e-01 2.417674e-01 9.250967e-02 2.200732e-01 7.045415e-02 1.943981e-01 5.251422e-02 1.661073e-01 3.880971e-02 1.364054e-01 2.874927e-02 1.062694e-01 2.132558e-02 7.646760e-02 1.548175e-02 4.763265e-02 1.041099e-02 2.034871e-02 5.723780e-03 -4.778653e-03 1.487152e-03 -2.708226e-02 
-5.601239e-02 -1.065137e-01 -6.055842e-02 -1.229722e-01 -6.375077e-02 -1.354633e-01 -6.459805e-02 -1.432295e-01 -6.216932e-02 -1.456063e-01 -5.574404e-02 -1.421235e-01 -4.497759e-02 -1.326225e-01 -3.006002e-02 -1.173645e-01 -1.182124e-02 -9.709387e-02 8.280034e-03 -7.300528e-02 2.833131e-02 -4.658888e-02 4.629215e-02 -1.938174e-02 6.037806e-02 7.286513e-03 6.937825e-02 3.245112e-02 7.281355e-02 5.551456e-02 7.090601e-02 7.610851e-02 6.439993e-02 9.389528e-02 5.432423e-02 1.084151e-01 4.179527e-02 1.190576e-01 2.791770e-02 1.251630e-01 1.376763e-02 1.261905e-01 3.810118e-04 1.218721e-01 -1.132486e-02 1.122981e-01 -2.070321e-02 9.791917e-02 -2.753425e-02 7.947950e-02 -3.208755e-02 5.790631e-02 -3.503431e-02 3.418610e-02 -3.724108e-02 9.260986e-03 -3.953150e-02 -1.602596e-02 -4.249402e-02 -4.093027e-02 -4.637213e-02 -6.476751e-02 -5.103562e-02 -8.686316e-02 
5.908527e-02 2.646170e-02 5.527231e-02 1.015770e-02 5.476186e-02 -7.337017e-04 5.827611e-02 -5.592872e-03 6.639155e-02 -3.999190e-03 7.942111e-02 4.208382e-03 9.730477e-02 1.887631e-02 1.195275e-01 3.950000e-02 1.450909e-01 6.522263e-02 1.725621e-01 9.488481e-02 2.002108e-01 1.271267e-01 2.262091e-01 1.605193e-01 2.488487e-01 1.936824e-01 2.667227e-01 2.253526e-01 2.788419e-01 2.543870e-01 2.846803e-01 2.797332e-01 2.841663e-01 3.004117e-01 2.776449e-01 3.155496e-01 2.658297e-01 3.244640e-01 2.497437e-01 3.267579e-01 2.306420e-01 3.223871e-01 2.099004e-01 3.116693e-01 1.888638e-01 2.952347e-01 1.686706e-01 2.739383e-01 1.500990e-01 2.487608e-01 1.334925e-01 2.207253e-01 1.188038e-01 1.908438e-01 1.057439e-01 1.600984e-01 9.397590e-02 1.294447e-01 8.328496e-02 9.982423e-02 7.368429e-02 7.217276e-02 6.544811e-02 4.741740e-02 
1.043197e-03 -3.692959e-02 -4.829622e-03 -5.446940e-02 -8.531855e-03 -6.759277e-02 -9.331783e-03 -7.566385e-02 -6.602572e-03 -7.820867e-02 6.817018e-05 -7.497879e-02 1.076987e-02 -6.601553e-02 2.518057e-02 -5.169796e-02 4.252700e-02 -3.275200e-02 6.162345e-02 -1.019971e-02 8.100540e-02 1.475656e-02 9.914113e-02 4.089209e-02 1.146687e-01 6.711047e-02 1.265910e-01 9.253413e-02 1.343779e-01 1.165052e-01 1.379584e-01 1.385059e-01 1.376254e-01 1.580437e-01 1.339022e-01 1.745600e-01 1.274238e-01 1.874077e-01 1.188653e-01 1.959081e-01 1.089115e-01 1.994596e-01 9.823569e-02 1.976557e-01 8.745335e-02 1.903752e-01 7.704769e-02 1.778237e-01 6.729462e-02 1.605221e-01 5.823128e-02 1.392497e-01 4.969462e-02 1.149601e-01 4.142005e-02 8.869170e-02 3.316386e-02 6.149519e-02 2.481032e-02 3.438961e-02 1.643965e-02 8.345020e-03 8.350638e-03 -1.571867e-02 
1.173934e-01 9.405016e-02 1.106400e-01 7.508919e-02 1.078589e-01 6.195216e-02 1.096107e-01 5.520532e-02 1.162799e-01 5.516541e-02 1.279926e-01 6.186703e-02 1.445487e-01 7.504061e-02 1.653807e-01 9.411000e-02 1.895556e-01 1.182183e-01 2.158301e-01 1.462865e-01 2.427577e-01 1.770993e-01 2.688305e-01 2.094007e-01 2.926256e-01 2.419741e-01 3.129272e-01 2.736875e-01 3.288062e-01 3.034977e-01 3.396537e-01 3.304315e-01 3.451813e-01 3.535702e-01 3.454021e-01 3.720588e-01 3.406039e-01 3.851467e-01 3.313157e-01 3.922456e-01 3.182630e-01 3.929856e-01 3.023029e-01 3.872551e-01 2.843381e-01 3.752174e-01 2.652190e-01 3.573059e-01 2.456575e-01 3.342031e-01 2.261802e-01 3.068066e-01 2.071384e-01 2.761865e-01 1.887711e-01 2.435370e-01 1.712924e-01 2.101251e-01 1.549740e-01 1.772412e-01 1.401971e-01 1.461515e-01 1.274672e-01 1.180560e-01 
5.661686e-02 2.894257e-02 4.869526e-02 9.588813e-03 4.376279e-02 -4.792971e-03 4.239130e-02 -1.363670e-02 4.501281e-02 -1.659545e-02 5.184012e-02 -1.357790e-02 6.279609e-02 -4.777446e-03 7.746699e-02 9.318432e-03 9.509754e-02 2.795161e-02 1.146419e-01 5.015721e-02 1.348727e-01 7.486394e-02 1.545315e-01 1.010105e-01 1.724857e-01 1.276455e-01 1.878524e-01 1.539805e-01 2.000601e-01 1.793782e-01 2.088407e-01 2.032865e-01 2.141681e-01 2.251473e-01 2.161763e-01 2.443223e-01 2.150882e-01 2.600685e-01 2.111766e-01 2.715765e-01 2.047545e-01 2.780640e-01 1.961765e-01 2.788945e-01 1.858304e-01 2.736941e-01 1.741110e-01 2.624359e-01 1.613836e-01 2.454766e-01 1.479565e-01 2.235354e-01 1.340800e-01 1.976260e-01 1.199722e-01 1.689579e-01 1.058639e-01 1.388344e-01 9.204429e-02 1.085656e-01 7.889312e-02 7.940640e-02 6.689289e-02 5.251759e-02 
1.723387e-01 1.565575e-01 1.620060e-01 1.341727e-01 1.564046e-01 1.182332e-01 1.560174e-01 1.092879e-01 1.611180e-01 1.075823e-01 1.717145e-01 1.130467e-01 1.875078e-01 1.252980e-01 2.078760e-01 1.436629e-01 2.318971e-01 1.672263e-01 2.584105e-01 1.949042e-01 2.861128e-01 2.255311e-01 3.136704e-01 2.579456e-01 3.398260e-01 2.910521e-01 3.634777e-01 3.238469e-01 3.837236e-01 3.554070e-01 3.998727e-01 3.848547e-01 4.114385e-01 4.113204e-01 4.181269e-01 4.339246e-01 4.198305e-01 4.517883e-01 4.166271e-01 4.640726e-01 4.087746e-01 4.700407e-01 3.966962e-01 4.691339e-01 3.809493e-01 4.610526e-01 3.621827e-01 4.458312e-01 3.410906e-01 4.238899e-01 3.183749e-01 3.960468e-01 2.947271e-01 3.634819e-01 2.708286e-01 3.276548e-01 2.473650e-01 2.901953e-01 2.250419e-01 2.527886e-01 2.045929e-01 2.170722e-01 1.867734e-01 1.845548e-01 
1.097968e-01 9.056050e-02 9.920495e-02 6.865420e-02 9.248119e-02 5.245720e-02 9.011368e-02 4.249978e-02 9.241867e-02 3.903817e-02 9.948011e-02 4.203580e-02 1.111011e-01 5.115669e-02 1.267814e-01 6.578182e-02 1.457331e-01 8.505727e-02 1.669417e-01 1.079757e-01 1.892676e-01 1.334816e-01 2.115700e-01 1.605785e-01 2.328235e-01 1.884099e-01 2.521998e-01 2.162894e-01 2.690956e-01 2.436680e-01 2.831073e-01 2.700497e-01 2.939718e-01 2.948845e-01 3.015021e-01 3.174763e-01 3.055458e-01 3.369440e-01 3.059807e-01 3.522532e-01 3.027442e-01 3.623187e-01 2.958787e-01 3.661572e-01 2.855703e-01 3.630562e-01 2.721619e-01 3.527220e-01 2.561369e-01 3.353693e-01 2.380796e-01 3.117298e-01 2.186301e-01 2.829783e-01 1.984484e-01 2.506006e-01 1.781960e-01 2.162405e-01 1.585341e-01 1.815604e-01 1.401294e-01 1.481369e-01 1.236576e-01 1.173933e-01 
2.231445e-01 2.134214e-01 2.086161e-01 1.867918e-01 1.997227e-01 1.675100e-01 1.969299e-01 1.561267e-01 2.004578e-01 1.528277e-01 2.102381e-01 1.574368e-01 2.258872e-01 1.694349e-01 2.467079e-01 1.880034e-01 2.717273e-01 2.120964e-01 2.997722e-01 2.405379e-01 3.295710e-01 2.721286e-01 3.598596e-01 3.057407e-01 3.894678e-01 3.403755e-01 4.173657e-01 3.751712e-01 4.426684e-01 4.093609e-01 4.646108e-01 4.421992e-01 4.825184e-01 4.728834e-01 4.957946e-01 5.004963e-01 5.039364e-01 5.239884e-01 5.065719e-01 5.422058e-01 5.035050e-01 5.539666e-01 4.947538e-01 5.581826e-01 4.805725e-01 5.540167e-01 4.614548e-01 5.410528e-01 4.381155e-01 5.194388e-01 4.114541e-01 4.899535e-01 3.825041e-01 4.539715e-01 3.523788e-01 4.133299e-01 3.222212e-01 3.701376e-01 2.931630e-01 3.265770e-01 2.662954e-01 2.847361e-01 2.426438e-01 2.464889e-01 
1.596719e-01 1.472222e-01 1.458235e-01 1.219926e-01 1.368309e-01 1.034592e-01 1.331585e-01 9.213771e-02 1.350670e-01 8.821210e-02 1.425598e-01 9.152469e-02 1.553432e-01 1.015807e-01 1.728148e-01 1.175819e-01 1.940935e-01 1.384973e-01 2.180953e-01 1.631728e-01 2.436456e-01 1.904625e-01 2.696056e-01 2.193553e-01 2.949774e-01 2.490618e-01 3.189613e-01 2.790315e-01 3.409485e-01 3.088892e-01 3.604598e-01 3.383026e-01 3.770583e-01 3.668194e-01 3.902762e-01 3.937234e-01 3.995879e-01 4.179607e-01 4.044443e-01 4.381669e-01 4.043593e-01 4.527998e-01 3.990232e-01 4.603581e-01 3.884057e-01 4.596433e-01 3.728152e-01 4.500057e-01 3.528937e-01 4.315120e-01 3.295495e-01 4.049829e-01 3.038522e-01 3.718905e-01 2.769247e-01 3.341525e-01 2.498634e-01 2.938931e-01 2.236958e-01 2.532312e-01 1.993705e-01 2.141312e-01 1.777616e-01 1.783152e-01 
2.689427e-01 2.638171e-01 2.495677e-01 2.320449e-01 2.369270e-01 2.088796e-01 2.315163e-01 1.948785e-01 2.335440e-01 1.901645e-01 2.428919e-01 1.944363e-01 2.590913e-01 2.069955e-01 2.813314e-01 2.268064e-01 3.085138e-01 2.525956e-01 3.393515e-01 2.829886e-01 3.724992e-01 3.166594e-01 4.066778e-01 3.524570e-01 4.407592e-01 3.894741e-01 4.737829e-01 4.270340e-01 5.049068e-01 4.646009e-01 5.333221e-01 5.016401e-01 5.581778e-01 5.374716e-01 5.785576e-01 5.711569e-01 5.935231e-01 6.014446e-01 6.022057e-01 6.267877e-01 6.039149e-01 6.454355e-01 5.982395e-01 6.556113e-01 5.851268e-01 6.557696e-01 5.649333e-01 6.449030e-01 5.384329e-01 6.228211e-01 5.067753e-01 5.903026e-01 4.713947e-01 5.490533e-01 4.338895e-01 5.014812e-01 3.959021e-01 4.503736e-01 3.590213e-01 3.985772e-01 3.247185e-01 3.487489e-01 2.943110e-01 3.031994e-01 
2.052686e-01 1.979902e-01 1.875620e-01 1.686161e-01 1.758471e-01 1.472402e-01 1.706167e-01 1.343764e-01 1.721292e-01 1.301468e-01 1.803475e-01 1.342679e-01 1.948927e-01 1.460532e-01 2.150308e-01 1.644539e-01 2.397121e-01 1.881541e-01 2.676711e-01 2.157216e-01 2.975737e-01 2.457945e-01 3.281780e-01 2.772623e-01 3.584590e-01 3.093868e-01 3.876540e-01 3.418190e-01 4.152117e-01 3.744903e-01 4.406645e-01 4.073957e-01 4.634746e-01 4.403224e-01 4.829185e-01 4.726061e-01 4.980610e-01 5.029910e-01 5.078367e-01 5.296468e-01 5.112212e-01 5.503538e-01 5.074475e-01 5.628301e-01 4.962088e-01 5.651441e-01 4.777842e-01 5.561237e-01 4.530430e-01 5.356519e-01 4.233258e-01 5.047447e-01 3.902425e-01 4.653804e-01 3.554626e-01 4.201510e-01 3.205611e-01 3.718728e-01 2.869425e-01 3.232712e-01 2.558316e-01 2.767837e-01 2.282954e-01 2.344698e-01 
3.087071e-01 3.065693e-01 2.837577e-01 2.686700e-01 2.668856e-01 2.410736e-01 2.586563e-01 2.243377e-01 2.593061e-01 2.185126e-01 2.686910e-01 2.231444e-01 2.862484e-01 2.372965e-01 3.110007e-01 2.596157e-01 3.416242e-01 2.884660e-01 3.765899e-01 3.221254e-01 4.143537e-01 3.590151e-01 4.535391e-01 3.978947e-01 4.930448e-01 4.379627e-01 5.320304e-01 4.788193e-01 5.697838e-01 5.202998e-01 6.055278e-01 5.622273e-01 6.382574e-01 6.041565e-01 6.666919e-01 6.451790e-01 6.893634e-01 6.838231e-01 7.047954e-01 7.180528e-01 7.117004e-01 7.453704e-01 7.091561e-01 7.630509e-01 6.967520e-01 7.685337e-01 6.746984e-01 7.599416e-01 6.438721e-01 7.365960e-01 6.057667e-01 6.993214e-01 5.623410e-01 6.503832e-01 5.158029e-01 5.930858e-01 4.683933e-01 5.312164e-01 4.222227e-01 4.685348e-01 3.791772e-01 4.084206e-01 3.408836e-01 3.536945e-01 
2.455023e-01 2.416168e-01 2.232797e-01 2.072181e-01 2.083606e-01 1.824955e-01 2.013218e-01 1.679731e-01 2.024791e-01 1.637255e-01 2.118025e-01 1.693407e-01 2.288408e-01 1.838998e-01 2.526892e-01 2.060090e-01 2.820304e-01 2.339167e-01 3.152703e-01 2.657268e-01 3.507557e-01 2.996821e-01 3.870184e-01 3.344524e-01 4.229623e-01 3.693363e-01 4.579142e-01 4.042965e-01 4.915095e-01 4.397888e-01 5.234466e-01 4.764059e-01 5.532013e-01 5.144185e-01 5.798186e-01 5.533509e-01 6.018701e-01 5.917261e-01 6.176009e-01 6.270611e-01 6.252292e-01 6.561294e-01 6.233269e-01 6.754545e-01 6.111841e-01 6.819617e-01 5.890453e-01 6.736624e-01 5.581291e-01 6.501795e-01 5.204117e-01 6.128991e-01 4.782573e-01 5.646578e-01 4.340402e-01 5.091134e-01 3.898904e-01 4.500916e-01 3.476003e-01 3.911203e-01 3.086467e-01 3.351980e-01 2.742624e-01 2.847399e-01 
3.411944e-01 3.400535e-01 3.098355e-01 2.949641e-01 2.881786e-01 2.623889e-01 2.769024e-01 2.428747e-01 2.763230e-01 2.363949e-01 2.863081e-01 2.423226e-01 3.061984e-01 2.594164e-01 3.347809e-01 2.858732e-01 3.703659e-01 3.194963e-01 4.109929e-01 3.579897e-01 4.547372e-01 3.993257e-01 5.000185e-01 4.420772e-01 5.457784e-01 4.855868e-01 5.914314e-01 5.299000e-01 6.365903e-01 5.754728e-01 6.806722e-01 6.227410e-01 7.225663e-01 6.716882e-01 7.605362e-01 7.215334e-01 7.924033e-01 7.705831e-01 8.158837e-01 8.162073e-01 8.289146e-01 8.549249e-01 8.299142e-01 8.826697e-01 8.180038e-01 8.953461e-01 7.932021e-01 8.896925e-01 7.565395e-01 8.642400e-01 7.100084e-01 8.199253e-01 6.563132e-01 7.599796e-01 5.984906e-01 6.891628e-01 5.395460e-01 6.127740e-01 4.822050e-01 5.358368e-01 4.288024e-01 4.626301e-01 3.812729e-01 3.965309e-01 
2.791444e-01 2.764728e-01 2.516545e-01 2.361113e-01 2.329664e-01 2.075279e-01 2.238117e-01 1.912792e-01 2.246487e-01 1.874284e-01 2.355289e-01 1.954557e-01 2.559626e-01 2.141782e-01 2.848329e-01 2.417403e-01 3.204197e-01 2.757422e-01 3.605834e-01 3.135407e-01 4.031078e-01 3.526966e-01 4.461134e-01 3.914599e-01 4.883837e-01 4.291322e-01 5.294511e-01 4.661602e-01 5.693846e-01 5.038828e-01 6.083342e-01 5.439479e-01 6.459976e-01 5.875328e-01 6.812286e-01 6.346038e-01 7.119562e-01 6.834641e-01 7.354342e-01 7.307136e-01 7.487406e-01 7.716238e-01 7.494207e-01 8.008704e-01 7.361238e-01 8.135504e-01 7.090409e-01 8.063349e-01 6.699568e-01 7.784366e-01 6.218571e-01 7.319287e-01 5.682417e-01 6.711396e-01 5.124474e-01 6.014483e-01 4.572556e-01 5.281573e-01 4.048231e-01 4.558274e-01 3.568064e-01 3.880693e-01 3.145343e-01 3.276124e-01 
3.648968e-01 3.620939e-01 3.261629e-01 3.087032e-01 2.990559e-01 2.706139e-01 2.844264e-01 2.483555e-01 2.827549e-01 2.418511e-01 2.940008e-01 2.503156e-01 3.174346e-01 2.721503e-01 3.515315e-01 3.049341e-01 3.940297e-01 3.456163e-01 4.422311e-01 3.909583e-01 4.935228e-01 4.381537e-01 5.459447e-01 4.854207e-01 5.985318e-01 5.323150e-01 6.512307e-01 5.796228e-01 7.043752e-01 6.288523e-01 7.579098e-01 6.814851e-01 8.107146e-01 7.382433e-01 8.604117e-01 7.986189e-01 9.037716e-01 8.607173e-01 9.373747e-01 9.212267e-01 9.581196e-01 9.754147e-01 9.635424e-01 1.017317e+00 9.521010e-01 1.040438e+00 9.235069e-01 1.039174e+00 8.789953e-01 1.010656e+00 8.213127e-01 9.560489e-01 7.542928e-01 8.803209e-01 6.821701e-01 7.906808e-01 6.089649e-01 6.947539e-01 5.381286e-01 5.992959e-01 4.724502e-01 5.096377e-01 4.141266e-01 4.296711e-01 
3.048134e-01 3.004868e-01 2.711718e-01 2.531784e-01 2.479971e-01 2.201896e-01 2.362776e-01 2.021590e-01 2.367482e-01 1.992279e-01 2.496765e-01 2.108503e-01 2.746202e-01 2.355879e-01 3.102270e-01 2.709957e-01 3.541903e-01 3.137248e-01 4.034829e-01 3.599388e-01 4.549127e-01 4.060318e-01 5.058649e-01 4.494734e-01 5.549174e-01 4.894773e-01 6.020236e-01 5.272293e-01 6.481431e-01 5.655347e-01 6.944113e-01 6.078773e-01 7.411380e-01 6.570788e-01 7.870652e-01 7.139977e-01 8.292271e-01 7.767544e-01 8.633833e-01 8.406546e-01 8.848271e-01 8.987325e-01 8.894385e-01 9.427983e-01 8.747879e-01 9.649676e-01 8.409605e-01 9.596048e-01 7.907037e-01 9.251976e-01 7.287017e-01 8.651150e-01 6.602727e-01 7.863861e-01 5.901119e-01 6.972418e-01 5.217223e-01 6.051268e-01 4.575011e-01 5.158412e-01 3.991091e-01 4.335368e-01 3.478311e-01 3.610849e-01 
3.780138e-01 3.698697e-01 3.307946e-01 3.070817e-01 2.974035e-01 2.629622e-01 2.789512e-01 2.380456e-01 2.762344e-01 2.323059e-01 2.894729e-01 2.449063e-01 3.179732e-01 2.738995e-01 3.598407e-01 3.160540e-01 4.119410e-01 3.670228e-01 4.703170e-01 4.220052e-01 5.311003e-01 4.768248e-01 5.916102e-01 5.290335e-01 6.510612e-01 5.785107e-01 7.104595e-01 6.272949e-01 7.716396e-01 6.786981e-01 8.357502e-01 7.359808e-01 9.018549e-01 8.010725e-01 9.665242e-01 8.738894e-01 1.024812e+00 9.523628e-01 1.071649e+00 1.032498e+00 1.102576e+00 1.108122e+00 1.113961e+00 1.170669e+00 1.103266e+00 1.209822e+00 1.069624e+00 1.215793e+00 1.014490e+00 1.183014e+00 9.417945e-01 1.113123e+00 8.571948e-01 1.014389e+00 7.667439e-01 8.982990e-01 6.758326e-01 7.760908e-01 5.887296e-01 6.568023e-01 5.086023e-01 5.468272e-01 4.377720e-01 4.503209e-01 
3.210040e-01 3.111206e-01 2.801420e-01 2.558556e-01 2.515096e-01 2.178373e-01 2.365029e-01 1.978932e-01 2.363465e-01 1.964329e-01 2.517676e-01 2.130893e-01 2.825722e-01 2.462836e-01 3.272167e-01 2.928786e-01 3.825741e-01 3.481600e-01 4.441750e-01 4.063808e-01 5.071091e-01 4.619247e-01 5.674136e-01 5.108146e-01 6.232799e-01 5.519507e-01 6.754543e-01 5.876133e-01 7.266198e-01 6.230170e-01 7.798993e-01 6.648214e-01 8.369566e-01 7.187930e-01 8.965585e-01 7.874536e-01 9.544079e-01 8.688127e-01 1.003957e+00 9.563351e-01 1.037660e+00 1.039767e+00 1.048624e+00 1.106524e+00 1.032517e+00 1.143796e+00 9.891732e-01 1.141771e+00 9.230325e-01 1.097459e+00 8.417862e-01 1.016752e+00 7.538329e-01 9.118418e-01 6.657985e-01 7.958018e-01 5.818221e-01 6.790762e-01 5.041696e-01 5.687053e-01 4.341421e-01 4.690099e-01 3.727394e-01 3.825890e-01 
3.784657e-01 3.598725e-01 3.215005e-01 2.867059e-01 2.807353e-01 2.360394e-01 2.576783e-01 2.085022e-01 2.537053e-01 2.043704e-01 2.696336e-01 2.230559e-01 3.050940e-01 2.624365e-01 3.578610e-01 3.183012e-01 4.235102e-01 3.843443e-01 4.959134e-01 4.531252e-01 5.688484e-01 5.179943e-01 6.382076e-01 5.752396e-01 7.034913e-01 6.252369e-01 7.677342e-01 6.721685e-01 8.357900e-01 7.224798e-01 9.114154e-01 7.824921e-01 9.942648e-01 8.560207e-01 1.078876e+00 9.433714e-01 1.157179e+00 1.042233e+00 1.221723e+00 1.148174e+00 1.266465e+00 1.253795e+00 1.286337e+00 1.347284e+00 1.277229e+00 1.412226e+00 1.237048e+00 1.430956e+00 1.167318e+00 1.392238e+00 1.073913e+00 1.298758e+00 9.656567e-01 1.165518e+00 8.514860e-01 1.011752e+00 7.386195e-01 8.542523e-01 6.321161e-01 7.047778e-01 5.352583e-01 5.703700e-01 4.501853e-01 4.547747e-01 
3.261751e-01 3.054216e-01 2.767674e-01 2.411839e-01 2.413049e-01 1.973286e-01 2.218029e-01 1.750748e-01 2.203026e-01 1.754604e-01 2.384152e-01 1.987320e-01 2.766244e-01 2.435177e-01 3.334277e-01 3.060059e-01 4.046378e-01 3.795724e-01 4.834401e-01 4.553972e-01 5.618200e-01 5.243458e-01 6.332617e-01 5.797601e-01 6.951728e-01 6.197273e-01 7.497155e-01 6.480721e-01 8.027948e-01 6.739105e-01 8.614231e-01 7.094172e-01 9.300549e-01 7.656530e-01 1.007647e+00 8.480669e-01 1.087751e+00 9.545811e-01 1.160253e+00 1.075983e+00 1.213099e+00 1.197343e+00 1.234727e+00 1.299565e+00 1.217290e+00 1.361707e+00 1.159941e+00 1.365958e+00 1.070178e+00 1.305811e+00 9.612572e-01 1.192263e+00 8.471416e-01 1.048096e+00 7.371012e-01 8.947308e-01 6.352954e-01 7.463844e-01 5.429458e-01 6.106476e-01 4.603247e-01 4.910050e-01 3.877965e-01 3.889771e-01 
3.639848e-01 3.279840e-01 2.958674e-01 2.437076e-01 2.462492e-01 1.858893e-01 2.172321e-01 1.554722e-01 2.111987e-01 1.535464e-01 2.301933e-01 1.804440e-01 2.748404e-01 2.344219e-01 3.429256e-01 3.102940e-01 4.282390e-01 3.988354e-01 5.208704e-01 4.880390e-01 6.100350e-01 5.666355e-01 6.887056e-01 6.285011e-01 7.567465e-01 6.747945e-01 8.209427e-01 7.133952e-01 8.920944e-01 7.562804e-01 9.795800e-01 8.152204e-01 1.084664e+00 8.969150e-01 1.197327e+00 1.001157e+00 1.303139e+00 1.124870e+00 1.391449e+00 1.264026e+00 1.455068e+00 1.411433e+00 1.487498e+00 1.552232e+00 1.482015e+00 1.660557e+00 1.433694e+00 1.703198e+00 1.343410e+00 1.655776e+00 1.220406e+00 1.523659e+00 1.079529e+00 1.336674e+00 9.344399e-01 1.128480e+00 7.946126e-01 9.239942e-01 6.654953e-01 7.373634e-01 5.498376e-01 5.748440e-01 4.490154e-01 4.383352e-01 
3.189217e-01 2.802197e-01 2.592835e-01 2.059842e-01 2.150096e-01 1.551015e-01 1.889953e-01 1.295199e-01 1.845558e-01 1.315178e-01 2.048855e-01 1.627832e-01 2.520044e-01 2.229713e-01 3.251487e-01 3.079667e-01 4.190108e-01 4.086186e-01 5.230042e-01 5.111521e-01 6.233121e-01 6.001269e-01 7.084447e-01 6.639394e-01 7.742008e-01 6.988767e-01 8.251756e-01 7.107623e-01 8.731381e-01 7.148506e-01 9.326579e-01 7.330062e-01 1.013923e+00 7.860842e-01 1.115991e+00 8.843744e-01 1.228508e+00 1.025295e+00 1.336039e+00 1.195515e+00 1.419582e+00 1.373862e+00 1.459660e+00 1.532413e+00 1.441645e+00 1.637124e+00 1.362678e+00 1.654046e+00 1.235941e+00 1.566992e+00 1.085334e+00 1.397802e+00 9.357890e-01 1.192975e+00 7.996199e-01 9.881181e-01 6.788228e-01 8.006292e-01 5.715775e-01 6.361189e-01 4.760746e-01 4.950833e-01 3.916773e-01 3.766553e-01 
3.323368e-01 2.698007e-01 2.515403e-01 1.740803e-01 1.910098e-01 1.082019e-01 1.536799e-01 7.383952e-02 1.435625e-01 7.380502e-02 1.650119e-01 1.106682e-01 2.210654e-01 1.844315e-01 3.106738e-01 2.895262e-01 4.255434e-01 4.125490e-01 5.491558e-01 5.334048e-01 6.615305e-01 6.317980e-01 7.495852e-01 6.970555e-01 8.135243e-01 7.316884e-01 8.667995e-01 7.499112e-01 9.316147e-01 7.735668e-01 1.029688e+00 8.247570e-01 1.167075e+00 9.148927e-01 1.322322e+00 1.039211e+00 1.466388e+00 1.191885e+00 1.585704e+00 1.371456e+00 1.674666e+00 1.575449e+00 1.726282e+00 1.789303e+00 1.729201e+00 1.974051e+00 1.671690e+00 2.064785e+00 1.551418e+00 2.003135e+00 1.383841e+00 1.802483e+00 1.196671e+00 1.528131e+00 1.011276e+00 1.240714e+00 8.391787e-01 9.752450e-01 6.848450e-01 7.453426e-01 5.491420e-01 5.529294e-01 4.317197e-01 3.954508e-01 