# vtk DataFile Version 2.0
Comment goes here
ASCII

DATASET STRUCTURED_POINTS
DIMENSIONS    64   64   1

ORIGIN    0.000   0.000   0.000
SPACING   0.0156250.015625   1.000

POINT_DATA   4096
SCALARS P double
LOOKUP_TABLE default

5.952388e-01 5.709520e-01 6.371922e-01 6.230482e-01 6.797548e-01 6.732280e-01 7.182626e-01 7.162902e-01 7.462192e-01 7.447437e-01 7.551081e-01 7.488689e-01 7.351225e-01 7.185071e-01 6.781929e-01 6.483868e-01 5.844275e-01 5.473957e-01 4.686639e-01 4.438181e-01 3.542061e-01 3.566036e-01 2.568120e-01 2.949496e-01 1.840849e-01 2.606988e-01 1.380183e-01 2.505609e-01 1.173524e-01 2.579281e-01 1.190426e-01 2.746555e-01 1.389063e-01 2.934042e-01 1.721228e-01 3.098698e-01 2.138119e-01 3.225369e-01 2.594459e-01 3.308143e-01 3.050276e-01 3.341046e-01 3.471451e-01 3.323142e-01 3.831756e-01 3.269300e-01 4.116100e-01 3.214163e-01 4.322924e-01 3.201635e-01 4.465210e-01 3.264660e-01 4.570297e-01 3.413771e-01 4.672911e-01 3.643965e-01 4.805880e-01 3.945800e-01 4.993385e-01 4.311068e-01 5.248082e-01 4.732927e-01 5.571003e-01 5.203308e-01 
6.643628e-01 6.391911e-01 6.995384e-01 6.848451e-01 7.362549e-01 7.293866e-01 7.693321e-01 7.669862e-01 7.918479e-01 7.898025e-01 7.954613e-01 7.886566e-01 7.719359e-01 7.556750e-01 7.167205e-01 6.898966e-01 6.341175e-01 6.038242e-01 5.395340e-01 5.214487e-01 4.518751e-01 4.587044e-01 3.823537e-01 4.207726e-01 3.347055e-01 4.056787e-01 3.077051e-01 4.075198e-01 2.977563e-01 4.188499e-01 3.009551e-01 4.327095e-01 3.142939e-01 4.444598e-01 3.359435e-01 4.527440e-01 3.647309e-01 4.584677e-01 3.993597e-01 4.628190e-01 4.377627e-01 4.661242e-01 4.768982e-01 4.680020e-01 5.131218e-01 4.682393e-01 5.430008e-01 4.675231e-01 5.642951e-01 4.674455e-01 5.767541e-01 4.698166e-01 5.823644e-01 4.760456e-01 5.847905e-01 4.872295e-01 5.882338e-01 5.043374e-01 5.963151e-01 5.281355e-01 6.113846e-01 5.589474e-01 6.342838e-01 5.963994e-01 
5.576171e-01 5.309594e-01 5.888616e-01 5.705491e-01 6.188077e-01 6.068405e-01 6.436878e-01 6.357015e-01 6.587163e-01 6.519333e-01 6.583693e-01 6.498228e-01 6.373181e-01 6.247070e-01 5.924087e-01 5.758544e-01 5.254904e-01 5.097046e-01 4.451148e-01 4.396392e-01 3.636023e-01 3.772689e-01 2.912311e-01 3.296644e-01 2.343495e-01 2.993322e-01 1.957035e-01 2.851212e-01 1.754200e-01 2.834138e-01 1.719160e-01 2.894506e-01 1.825309e-01 2.987338e-01 2.040013e-01 3.081056e-01 2.328679e-01 3.158478e-01 2.657843e-01 3.211096e-01 2.997195e-01 3.235273e-01 3.321007e-01 3.233388e-01 3.609816e-01 3.217013e-01 3.852320e-01 3.207122e-01 4.046754e-01 3.228576e-01 4.201178e-01 3.301307e-01 4.332205e-01 3.434872e-01 4.461023e-01 3.629829e-01 4.608234e-01 3.881921e-01 4.789506e-01 4.184966e-01 5.012984e-01 4.531396e-01 5.278262e-01 4.911124e-01 
6.297920e-01 6.022293e-01 6.544720e-01 6.353088e-01 6.787861e-01 6.660519e-01 6.988498e-01 6.901521e-01 7.099008e-01 7.024912e-01 7.068548e-01 6.979855e-01 6.855164e-01 6.733729e-01 6.445334e-01 6.298259e-01 5.874121e-01 5.748591e-01 5.226917e-01 5.203306e-01 4.605986e-01 4.757356e-01 4.086448e-01 4.455933e-01 3.705079e-01 4.300073e-01 3.466957e-01 4.261455e-01 3.358018e-01 4.297858e-01 3.357129e-01 4.367194e-01 3.444206e-01 4.438615e-01 3.603200e-01 4.497572e-01 3.820666e-01 4.542223e-01 4.082430e-01 4.575335e-01 4.370701e-01 4.598610e-01 4.663432e-01 4.612207e-01 4.936624e-01 4.617720e-01 5.168958e-01 4.620978e-01 5.347183e-01 4.632084e-01 5.470224e-01 4.662743e-01 5.550098e-01 4.723532e-01 5.608728e-01 4.823228e-01 5.671783e-01 4.968751e-01 5.762146e-01 5.164378e-01 5.895078e-01 5.410238e-01 6.075661e-01 5.700610e-01 
5.179395e-01 4.906832e-01 5.413357e-01 5.209040e-01 5.625240e-01 5.475201e-01 5.786388e-01 5.674461e-01 5.863250e-01 5.772219e-01 5.821132e-01 5.735664e-01 5.631578e-01 5.544144e-01 5.283755e-01 5.203254e-01 4.796592e-01 4.755446e-01 4.222511e-01 4.272882e-01 3.633098e-01 3.825732e-01 3.094674e-01 3.463195e-01 2.654610e-01 3.208025e-01 2.338589e-01 3.059066e-01 2.153678e-01 2.997858e-01 2.093111e-01 2.997026e-01 2.140743e-01 3.028770e-01 2.274788e-01 3.071098e-01 2.470937e-01 3.109744e-01 2.704847e-01 3.136916e-01 2.954040e-01 3.149985e-01 3.199425e-01 3.151556e-01 3.426667e-01 3.150018e-01 3.627368e-01 3.158695e-01 3.799762e-01 3.192720e-01 3.948587e-01 3.264758e-01 4.083886e-01 3.382147e-01 4.218543e-01 3.546761e-01 4.365182e-01 3.756428e-01 4.533331e-01 4.006198e-01 4.727410e-01 4.288701e-01 4.945609e-01 4.593646e-01 
5.922663e-01 5.639077e-01 6.093627e-01 5.877429e-01 6.252363e-01 6.090619e-01 6.371112e-01 6.248338e-01 6.418277e-01 6.318165e-01 6.363443e-01 6.272281e-01 6.185447e-01 6.097967e-01 5.882518e-01 5.809180e-01 5.480030e-01 5.451265e-01 5.028358e-01 5.088645e-01 4.587059e-01 4.777916e-01 4.205206e-01 4.551862e-01 3.912253e-01 4.417644e-01 3.718427e-01 4.362766e-01 3.620121e-01 4.363833e-01 3.606420e-01 4.395342e-01 3.664189e-01 4.436604e-01 3.780613e-01 4.475118e-01 3.943352e-01 4.505747e-01 4.139479e-01 4.527520e-01 4.354476e-01 4.540920e-01 4.572302e-01 4.547140e-01 4.776908e-01 4.548869e-01 4.954869e-01 4.551170e-01 5.098290e-01 4.561326e-01 5.206857e-01 4.587620e-01 5.288100e-01 4.637933e-01 5.355467e-01 4.718905e-01 5.424788e-01 4.835362e-01 5.510323e-01 4.989522e-01 5.621487e-01 5.179955e-01 5.760754e-01 5.400458e-01 
4.778236e-01 4.511303e-01 4.956786e-01 4.745624e-01 5.110423e-01 4.946464e-01 5.217983e-01 5.091397e-01 5.256464e-01 5.157658e-01 5.204318e-01 5.126372e-01 5.046498e-01 4.988734e-01 4.780705e-01 4.752621e-01 4.422578e-01 4.445741e-01 4.005894e-01 4.110367e-01 3.575081e-01 3.789672e-01 3.173591e-01 3.516753e-01 2.835403e-01 3.309624e-01 2.581590e-01 3.171262e-01 2.420643e-01 3.092932e-01 2.350702e-01 3.059148e-01 2.362320e-01 3.052826e-01 2.441132e-01 3.059239e-01 2.570235e-01 3.067914e-01 2.732192e-01 3.072864e-01 2.910681e-01 3.072319e-01 3.091841e-01 3.068582e-01 3.265348e-01 3.067785e-01 3.425164e-01 3.078915e-01 3.569835e-01 3.111875e-01 3.702186e-01 3.175165e-01 3.828345e-01 3.274194e-01 3.956110e-01 3.410789e-01 4.092975e-01 3.583530e-01 4.244254e-01 3.788213e-01 4.411631e-01 4.018017e-01 4.592239e-01 4.263320e-01 
5.534826e-01 5.253005e-01 5.651950e-01 5.424451e-01 5.754627e-01 5.574211e-01 5.823518e-01 5.681418e-01 5.838029e-01 5.725688e-01 5.780091e-01 5.691720e-01 5.639179e-01 5.575102e-01 5.417497e-01 5.387304e-01 5.132888e-01 5.156195e-01 4.816579e-01 4.918980e-01 4.505122e-01 4.709886e-01 4.230667e-01 4.551114e-01 4.014988e-01 4.450107e-01 3.868251e-01 4.401695e-01 3.791052e-01 4.392767e-01 3.777769e-01 4.407544e-01 3.819632e-01 4.431952e-01 3.906674e-01 4.456075e-01 4.028465e-01 4.474431e-01 4.174110e-01 4.484864e-01 4.332185e-01 4.487317e-01 4.491109e-01 4.483231e-01 4.640168e-01 4.475558e-01 4.771017e-01 4.468851e-01 4.879183e-01 4.468973e-01 4.965031e-01 4.482372e-01 5.033683e-01 4.515217e-01 5.093771e-01 4.572662e-01 5.155274e-01 4.658199e-01 5.227054e-01 4.772952e-01 5.314678e-01 4.914929e-01 5.418888e-01 5.078319e-01 
4.381532e-01 4.126811e-01 4.522784e-01 4.313649e-01 4.639869e-01 4.472044e-01 4.717226e-01 4.585709e-01 4.739096e-01 4.639490e-01 4.692034e-01 4.622268e-01 4.568152e-01 4.530470e-01 4.368487e-01 4.371105e-01 4.105205e-01 4.162411e-01 3.800953e-01 3.930467e-01 3.484661e-01 3.702446e-01 3.185419e-01 3.500379e-01 2.927310e-01 3.337598e-01 2.726601e-01 3.218077e-01 2.591172e-01 3.138019e-01 2.521419e-01 3.088721e-01 2.511882e-01 3.059735e-01 2.553080e-01 3.041481e-01 2.633292e-01 3.026837e-01 2.740170e-01 3.011770e-01 2.862110e-01 2.995453e-01 2.989376e-01 2.980116e-01 3.114903e-01 2.970632e-01 3.234763e-01 2.973654e-01 3.348208e-01 2.996317e-01 3.457275e-01 3.044807e-01 3.565967e-01 3.123250e-01 3.679094e-01 3.233180e-01 3.800949e-01 3.373460e-01 3.934060e-01 3.540395e-01 4.078202e-01 3.727801e-01 4.229767e-01 3.927003e-01 
5.143264e-01 4.867967e-01 5.222768e-01 4.991485e-01 5.289202e-01 5.099090e-01 5.329174e-01 5.176430e-01 5.329291e-01 5.210560e-01 5.278815e-01 5.192895e-01 5.172685e-01 5.122338e-01 5.014160e-01 5.007359e-01 4.815821e-01 4.865414e-01 4.597826e-01 4.718834e-01 4.383488e-01 4.588554e-01 4.194038e-01 4.488978e-01 4.044872e-01 4.425795e-01 3.944174e-01 4.396620e-01 3.893523e-01 4.393474e-01 3.889582e-01 4.405939e-01 3.925959e-01 4.423998e-01 3.994667e-01 4.439874e-01 4.087018e-01 4.448688e-01 4.194093e-01 4.448233e-01 4.307104e-01 4.438450e-01 4.417870e-01 4.420997e-01 4.519512e-01 4.399006e-01 4.607272e-01 4.376862e-01 4.679224e-01 4.359843e-01 4.736597e-01 4.353572e-01 4.783511e-01 4.363383e-01 4.826057e-01 4.393685e-01 4.870890e-01 4.447348e-01 4.923639e-01 4.525107e-01 4.987479e-01 4.625019e-01 5.062111e-01 4.742058e-01 
3.993146e-01 3.753407e-01 4.111311e-01 3.908741e-01 4.207854e-01 4.041357e-01 4.271080e-01 4.139145e-01 4.289952e-01 4.191663e-01 4.255890e-01 4.192034e-01 4.164797e-01 4.138901e-01 4.018857e-01 4.037750e-01 3.827414e-01 3.900754e-01 3.606204e-01 3.744570e-01 3.374822e-01 3.586635e-01 3.153199e-01 3.441538e-01 2.958396e-01 3.318669e-01 2.802549e-01 3.221526e-01 2.692116e-01 3.148474e-01 2.628178e-01 3.094438e-01 2.607391e-01 3.052904e-01 2.623260e-01 3.017717e-01 2.667502e-01 2.984327e-01 2.731362e-01 2.950454e-01 2.806770e-01 2.916299e-01 2.887257e-01 2.884410e-01 2.968549e-01 2.859260e-01 3.048794e-01 2.846512e-01 3.128407e-01 2.852060e-01 3.209568e-01 2.881021e-01 3.295458e-01 2.936914e-01 3.389339e-01 3.021143e-01 3.493619e-01 3.132776e-01 3.609023e-01 3.268509e-01 3.733981e-01 3.422725e-01 3.864302e-01 3.587616e-01 
4.751446e-01 4.483709e-01 4.805271e-01 4.573295e-01 4.849280e-01 4.653456e-01 4.874019e-01 4.714100e-01 4.870640e-01 4.746760e-01 4.832701e-01 4.746448e-01 4.757983e-01 4.713313e-01 4.649799e-01 4.653406e-01 4.517225e-01 4.577901e-01 4.373792e-01 4.500547e-01 4.234853e-01 4.434160e-01 4.114514e-01 4.387602e-01 4.023242e-01 4.364242e-01 3.966713e-01 4.362096e-01 3.945883e-01 4.375221e-01 3.957867e-01 4.395718e-01 3.997150e-01 4.415706e-01 4.056740e-01 4.428782e-01 4.129099e-01 4.430770e-01 4.206830e-01 4.419852e-01 4.283230e-01 4.396342e-01 4.352780e-01 4.362330e-01 4.411599e-01 4.321340e-01 4.457820e-01 4.277990e-01 4.491789e-01 4.237605e-01 4.515976e-01 4.205749e-01 4.534542e-01 4.187682e-01 4.552564e-01 4.187772e-01 4.575023e-01 4.208897e-01 4.605751e-01 4.251917e-01 4.646503e-01 4.315267e-01 4.696348e-01 4.394766e-01 
3.613748e-01 3.389051e-01 3.720272e-01 3.525604e-01 3.808376e-01 3.644899e-01 3.868795e-01 3.737466e-01 3.893396e-01 3.795673e-01 3.876442e-01 3.814943e-01 3.815833e-01 3.794810e-01 3.714043e-01 3.739417e-01 3.578363e-01 3.657079e-01 3.420183e-01 3.558764e-01 3.253316e-01 3.455848e-01 3.091792e-01 3.357888e-01 2.947773e-01 3.271098e-01 2.830083e-01 3.197816e-01 2.743528e-01 3.136935e-01 2.688944e-01 3.084990e-01 2.663796e-01 3.037549e-01 2.663125e-01 2.990523e-01 2.680668e-01 2.941164e-01 2.710012e-01 2.888652e-01 2.745633e-01 2.834284e-01 2.783688e-01 2.781322e-01 2.822443e-01 2.734562e-01 2.862292e-01 2.699672e-01 2.905365e-01 2.682392e-01 2.954851e-01 2.687722e-01 3.014150e-01 2.719211e-01 3.086033e-01 2.778454e-01 3.171917e-01 2.864789e-01 3.271338e-01 2.975219e-01 3.381671e-01 3.104501e-01 3.498085e-01 3.245392e-01 
4.359376e-01 4.097558e-01 4.396553e-01 4.163730e-01 4.427990e-01 4.226876e-01 4.446622e-01 4.279500e-01 4.446326e-01 4.315749e-01 4.423156e-01 4.332589e-01 4.376414e-01 4.330643e-01 4.309263e-01 4.314352e-01 4.228589e-01 4.291160e-01 4.143960e-01 4.269776e-01 4.065867e-01 4.257970e-01 4.003742e-01 4.260647e-01 3.964333e-01 4.278796e-01 3.950811e-01 4.309508e-01 3.962677e-01 4.346909e-01 3.996308e-01 4.383638e-01 4.045874e-01 4.412428e-01 4.104376e-01 4.427402e-01 4.164638e-01 4.424863e-01 4.220148e-01 4.403532e-01 4.265730e-01 4.364382e-01 4.298023e-01 4.310243e-01 4.315741e-01 4.245367e-01 4.319721e-01 4.175022e-01 4.312719e-01 4.105126e-01 4.298980e-01 4.041848e-01 4.283601e-01 3.991086e-01 4.271761e-01 3.957850e-01 4.267904e-01 3.945601e-01 4.274988e-01 3.955703e-01 4.293924e-01 3.987096e-01 4.323291e-01 4.036270e-01 
3.242080e-01 3.030660e-01 3.346720e-01 3.159026e-01 3.436044e-01 3.274802e-01 3.502062e-01 3.369988e-01 3.538268e-01 3.438530e-01 3.540524e-01 3.477105e-01 3.507808e-01 3.485650e-01 3.442640e-01 3.467413e-01 3.351002e-01 3.428392e-01 3.241643e-01 3.376147e-01 3.124832e-01 3.318256e-01 3.010832e-01 3.260833e-01 2.908444e-01 3.207510e-01 2.823921e-01 3.159104e-01 2.760413e-01 3.113970e-01 2.717926e-01 3.068863e-01 2.693758e-01 3.020061e-01 2.683289e-01 2.964458e-01 2.681038e-01 2.900431e-01 2.681808e-01 2.828346e-01 2.681761e-01 2.750683e-01 2.679198e-01 2.671813e-01 2.674885e-01 2.597509e-01 2.671850e-01 2.534273e-01 2.674680e-01 2.488588e-01 2.688508e-01 2.466153e-01 2.717919e-01 2.471190e-01 2.766026e-01 2.505861e-01 2.833849e-01 2.569905e-01 2.920037e-01 2.660520e-01 3.020903e-01 2.772523e-01 3.130699e-01 2.898754e-01 
3.964875e-01 3.705450e-01 3.992710e-01 3.756557e-01 4.019028e-01 3.810516e-01 4.037946e-01 3.861177e-01 4.044819e-01 3.904119e-01 4.037120e-01 3.937423e-01 4.015067e-01 3.962048e-01 3.981830e-01 3.981641e-01 3.943160e-01 4.001683e-01 3.906448e-01 4.028082e-01 3.879349e-01 4.065527e-01 3.868295e-01 4.116081e-01 3.877269e-01 4.178399e-01 3.907086e-01 4.247765e-01 3.955290e-01 4.316925e-01 4.016610e-01 4.377464e-01 4.083831e-01 4.421378e-01 4.148894e-01 4.442454e-01 4.204052e-01 4.437137e-01 4.242928e-01 4.404778e-01 4.261330e-01 4.347339e-01 4.257731e-01 4.268790e-01 4.233376e-01 4.174497e-01 4.192007e-01 4.070776e-01 4.139276e-01 3.964625e-01 4.081932e-01 3.863442e-01 4.026899e-01 3.774515e-01 3.980389e-01 3.704242e-01 3.947122e-01 3.657255e-01 3.929762e-01 3.635731e-01 3.928623e-01 3.639081e-01 3.941678e-01 3.664092e-01 
2.875840e-01 2.674764e-01 2.987645e-01 2.804432e-01 3.086567e-01 2.925020e-01 3.164962e-01 3.029084e-01 3.217047e-01 3.111350e-01 3.239538e-01 3.169231e-01 3.232071e-01 3.203021e-01 3.197309e-01 3.215658e-01 3.140640e-01 3.212027e-01 3.069441e-01 3.197861e-01 2.992011e-01 3.178469e-01 2.916351e-01 3.157593e-01 2.849039e-01 3.136681e-01 2.794380e-01 3.114727e-01 2.753937e-01 3.088709e-01 2.726463e-01 3.054473e-01 2.708260e-01 3.007856e-01 2.693941e-01 2.945796e-01 2.677568e-01 2.867199e-01 2.654013e-01 2.773418e-01 2.620270e-01 2.668273e-01 2.576403e-01 2.557691e-01 2.525858e-01 2.449075e-01 2.474999e-01 2.350548e-01 2.431936e-01 2.270172e-01 2.404935e-01 2.215167e-01 2.400811e-01 2.191118e-01 2.423753e-01 2.201227e-01 2.474727e-01 2.245780e-01 2.551480e-01 2.321994e-01 2.648944e-01 2.424285e-01 2.759915e-01 2.544899e-01 
3.564407e-01 3.302538e-01 3.589533e-01 3.345916e-01 3.617007e-01 3.397172e-01 3.641128e-01 3.450495e-01 3.657835e-01 3.502119e-01 3.665391e-01 3.550864e-01 3.664738e-01 3.598229e-01 3.659425e-01 3.647938e-01 3.655042e-01 3.704945e-01 3.658207e-01 3.774025e-01 3.675260e-01 3.858250e-01 3.710918e-01 3.957680e-01 3.767170e-01 4.068651e-01 3.842633e-01 4.183863e-01 3.932474e-01 4.293324e-01 4.028911e-01 4.385979e-01 4.122210e-01 4.451666e-01 4.202031e-01 4.482883e-01 4.258930e-01 4.475894e-01 4.285770e-01 4.430902e-01 4.278787e-01 4.351387e-01 4.238136e-01 4.243029e-01 4.167827e-01 4.112736e-01 4.075103e-01 3.968174e-01 3.969374e-01 3.817780e-01 3.860904e-01 3.670809e-01 3.759467e-01 3.536846e-01 3.673190e-01 3.424646e-01 3.607710e-01 3.340745e-01 3.565704e-01 3.288419e-01 3.546839e-01 3.267352e-01 3.548093e-01 3.274010e-01 
2.512338e-01 2.317961e-01 2.640551e-01 2.458255e-01 2.757113e-01 2.591437e-01 2.853940e-01 2.709858e-01 2.925328e-01 2.808505e-01 2.968423e-01 2.885337e-01 2.983420e-01 2.941250e-01 2.973443e-01 2.979591e-01 2.944038e-01 3.005252e-01 2.902316e-01 3.023447e-01 2.855859e-01 3.038406e-01 2.811586e-01 3.052288e-01 2.774760e-01 3.064564e-01 2.748259e-01 3.072023e-01 2.732157e-01 3.069404e-01 2.723606e-01 3.050504e-01 2.717115e-01 3.009561e-01 2.705328e-01 2.942615e-01 2.680420e-01 2.848551e-01 2.635940e-01 2.729602e-01 2.568701e-01 2.591228e-01 2.480166e-01 2.441493e-01 2.376884e-01 2.290169e-01 2.269726e-01 2.147809e-01 2.171979e-01 2.024921e-01 2.096729e-01 1.931160e-01 2.054339e-01 1.874347e-01 2.050768e-01 1.859353e-01 2.087018e-01 1.887208e-01 2.159520e-01 1.954852e-01 2.261119e-01 2.055604e-01 2.382286e-01 2.180181e-01 
3.153640e-01 2.883576e-01 3.183014e-01 2.926650e-01 3.217752e-01 2.981358e-01 3.251415e-01 3.041320e-01 3.279836e-01 3.102874e-01 3.301710e-01 3.165500e-01 3.318787e-01 3.231701e-01 3.335575e-01 3.306289e-01 3.358536e-01 3.395116e-01 3.394853e-01 3.503403e-01 3.450936e-01 3.633943e-01 3.530940e-01 3.785567e-01 3.635567e-01 3.952263e-01 3.761365e-01 4.123253e-01 3.900656e-01 4.284193e-01 4.042152e-01 4.419423e-01 4.172218e-01 4.514799e-01 4.276676e-01 4.560364e-01 4.342901e-01 4.551945e-01 4.361851e-01 4.491180e-01 4.329586e-01 4.384086e-01 4.247945e-01 4.238969e-01 4.124294e-01 4.064731e-01 3.970435e-01 3.870398e-01 3.800903e-01 3.665886e-01 3.630918e-01 3.462923e-01 3.474388e-01 3.274681e-01 3.342328e-01 3.113771e-01 3.241829e-01 2.989703e-01 3.175651e-01 2.907161e-01 3.142432e-01 2.865649e-01 3.137434e-01 2.860335e-01 
2.149045e-01 1.957309e-01 2.303984e-01 2.118320e-01 2.446682e-01 2.272092e-01 2.567929e-01 2.410099e-01 2.661625e-01 2.527240e-01 2.725136e-01 2.622072e-01 2.759354e-01 2.696579e-01 2.768384e-01 2.755448e-01 2.758809e-01 2.804824e-01 2.738594e-01 2.850739e-01 2.715783e-01 2.897484e-01 2.697256e-01 2.946303e-01 2.687747e-01 2.994746e-01 2.689185e-01 3.036819e-01 2.700298e-01 3.063922e-01 2.716370e-01 3.066411e-01 2.729292e-01 3.035518e-01 2.728291e-01 2.965262e-01 2.701731e-01 2.853931e-01 2.639885e-01 2.704684e-01 2.537932e-01 2.525179e-01 2.398238e-01 2.326463e-01 2.231183e-01 2.121578e-01 2.054057e-01 1.924363e-01 1.887980e-01 1.748670e-01 1.753490e-01 1.607699e-01 1.666309e-01 1.512770e-01 1.634851e-01 1.471406e-01 1.659831e-01 1.485671e-01 1.735399e-01 1.551719e-01 1.851039e-01 1.660681e-01 1.993591e-01 1.800387e-01 
2.727865e-01 2.443254e-01 2.769822e-01 2.494709e-01 2.818692e-01 2.559609e-01 2.866363e-01 2.630092e-01 2.907954e-01 2.702176e-01 2.942411e-01 2.776128e-01 2.972594e-01 2.856174e-01 3.004788e-01 2.949503e-01 3.047587e-01 3.064568e-01 3.110257e-01 3.208856e-01 3.200800e-01 3.386463e-01 3.324062e-01 3.595937e-01 3.480220e-01 3.828899e-01 3.663874e-01 4.069934e-01 3.863925e-01 4.298130e-01 4.064311e-01 4.490360e-01 4.245662e-01 4.625791e-01 4.387797e-01 4.690325e-01 4.472810e-01 4.679257e-01 4.488162e-01 4.597019e-01 4.428999e-01 4.454192e-01 4.299048e-01 4.263343e-01 4.110072e-01 4.035809e-01 3.880138e-01 3.781246e-01 3.630995e-01 3.510210e-01 3.384925e-01 3.237416e-01 3.161703e-01 2.981794e-01 2.976392e-01 2.762441e-01 2.838026e-01 2.593603e-01 2.749235e-01 2.481682e-01 2.706825e-01 2.425073e-01 2.703145e-01 2.416012e-01 
1.784166e-01 1.590800e-01 1.978116e-01 1.784360e-01 2.156607e-01 1.967625e-01 2.308683e-01 2.130550e-01 2.427484e-01 2.267718e-01 2.510541e-01 2.378512e-01 2.559764e-01 2.466757e-01 2.580986e-01 2.539721e-01 2.582951e-01 2.606412e-01 2.575801e-01 2.675339e-01 2.569332e-01 2.752198e-01 2.571422e-01 2.838034e-01 2.586988e-01 2.928385e-01 2.617474e-01 3.013587e-01 2.660534e-01 3.080167e-01 2.709536e-01 3.113106e-01 2.752984e-01 3.098646e-01 2.774815e-01 3.027239e-01 2.756736e-01 2.895887e-01 2.682675e-01 2.708977e-01 2.543832e-01 2.477412e-01 2.342606e-01 2.216562e-01 2.094270e-01 1.943909e-01 1.825610e-01 1.677392e-01 1.570042e-01 1.434981e-01 1.359912e-01 1.234799e-01 1.218936e-01 1.093749e-01 1.158519e-01 1.023765e-01 1.178024e-01 1.028413e-01 1.267420e-01 1.102126e-01 1.410733e-01 1.232031e-01 1.589275e-01 1.401017e-01 
2.282407e-01 1.976643e-01 2.347881e-01 2.047783e-01 2.419471e-01 2.131137e-01 2.486359e-01 2.216371e-01 2.542353e-01 2.298814e-01 2.586559e-01 2.379819e-01 2.623456e-01 2.466352e-01 2.662233e-01 2.569686e-01 2.715275e-01 2.703128e-01 2.795891e-01 2.878892e-01 2.915608e-01 3.104578e-01 3.081538e-01 3.379888e-01 3.294292e-01 3.694255e-01 3.546717e-01 4.026146e-01 3.823590e-01 4.344823e-01 4.102428e-01 4.615167e-01 4.355578e-01 4.805152e-01 4.553701e-01 4.893793e-01 4.670423e-01 4.876033e-01 4.687332e-01 4.762007e-01 4.597694e-01 4.570966e-01 4.407632e-01 4.322897e-01 4.135001e-01 4.031991e-01 3.806741e-01 3.705971e-01 3.455024e-01 3.352900e-01 3.112357e-01 2.990613e-01 2.806755e-01 2.648019e-01 2.558805e-01 2.355833e-01 2.379944e-01 2.136029e-01 2.272060e-01 1.996819e-01 2.228675e-01 1.933525e-01 2.237324e-01 1.932660e-01 
1.417372e-01 1.218059e-01 1.665508e-01 1.458819e-01 1.891262e-01 1.682050e-01 2.081384e-01 1.875574e-01 2.227951e-01 2.033499e-01 2.328682e-01 2.156395e-01 2.386977e-01 2.250943e-01 2.411421e-01 2.328713e-01 2.414444e-01 2.403823e-01 2.410145e-01 2.489618e-01 2.411676e-01 2.595073e-01 2.429015e-01 2.721962e-01 2.467850e-01 2.863581e-01 2.529522e-01 3.005263e-01 2.611161e-01 3.126440e-01 2.704785e-01 3.203882e-01 2.795175e-01 3.215825e-01 2.858541e-01 3.146708e-01 2.865391e-01 2.991317e-01 2.788178e-01 2.756062e-01 2.610139e-01 2.457087e-01 2.331985e-01 2.116373e-01 1.975214e-01 1.757483e-01 1.581005e-01 1.402912e-01 1.202846e-01 1.074791e-01 8.925817e-02 7.977431e-02 6.857868e-02 5.981808e-02 5.967434e-02 4.959439e-02 6.208820e-02 4.968458e-02 7.404969e-02 5.916813e-02 9.308286e-02 7.603749e-02 1.165001e-01 9.776883e-02 
1.813180e-01 1.479950e-01 1.917184e-01 1.586363e-01 2.022886e-01 1.698974e-01 2.115571e-01 1.803919e-01 2.187075e-01 1.895499e-01 2.236603e-01 1.976568e-01 2.270933e-01 2.058147e-01 2.303677e-01 2.157895e-01 2.353306e-01 2.297104e-01 2.439903e-01 2.496268e-01 2.581188e-01 2.769830e-01 2.788683e-01 3.121073e-01 3.064780e-01 3.538028e-01 3.400949e-01 3.991353e-01 3.777099e-01 4.435710e-01 4.162235e-01 4.816490e-01 4.516885e-01 5.082448e-01 4.797790e-01 5.200702e-01 4.965000e-01 5.166461e-01 4.990412e-01 5.001565e-01 4.864183e-01 4.742266e-01 4.595918e-01 4.422441e-01 4.212197e-01 4.059767e-01 3.752710e-01 3.653286e-01 3.265027e-01 3.199308e-01 2.796856e-01 2.717763e-01 2.387615e-01 2.257033e-01 2.065322e-01 1.870077e-01 1.844276e-01 1.591567e-01 1.724376e-01 1.430515e-01 1.693319e-01 1.374926e-01 1.730816e-01 1.400734e-01 
1.050813e-01 8.414394e-02 1.372116e-01 1.148041e-01 1.659021e-01 1.423935e-01 1.895547e-01 1.654283e-01 2.072412e-01 1.832548e-01 2.187487e-01 1.960858e-01 2.246187e-01 2.049981e-01 2.261188e-01 2.118142e-01 2.250808e-01 2.187907e-01 2.235732e-01 2.281076e-01 2.234732e-01 2.412789e-01 2.261080e-01 2.586896e-01 2.321365e-01 2.794036e-01 2.416800e-01 3.012568e-01 2.544959e-01 3.211657e-01 2.698650e-01 3.355709e-01 2.860185e-01 3.410116e-01 2.995054e-01 3.349003e-01 3.054759e-01 3.163504e-01 2.991331e-01 2.863863e-01 2.773274e-01 2.475286e-01 2.396263e-01 2.030579e-01 1.889139e-01 1.562019e-01 1.314920e-01 1.096066e-01 7.612648e-02 6.564118e-02 3.143322e-02 2.752124e-02 2.679819e-03 -3.043721e-04 -8.645187e-03 -1.431280e-02 -3.960419e-03 -1.360947e-02 1.357721e-02 8.956163e-05 4.010161e-02 2.346813e-02 7.175367e-02 5.269158e-02 
1.317552e-01 9.518969e-02 1.481006e-01 1.115411e-01 1.636266e-01 1.271740e-01 1.763410e-01 1.402473e-01 1.851501e-01 1.500517e-01 1.899670e-01 1.570634e-01 1.917740e-01 1.629446e-01 1.925745e-01 1.704006e-01 1.951487e-01 1.828040e-01 2.025828e-01 2.035593e-01 2.176545e-01 2.353114e-01 2.422575e-01 2.791640e-01 2.769978e-01 3.340018e-01 3.209608e-01 3.959851e-01 3.715938e-01 4.584547e-01 4.247075e-01 5.127381e-01 4.746956e-01 5.502762e-01 5.151146e-01 5.655983e-01 5.397368e-01 5.583760e-01 5.441237e-01 5.331734e-01 5.268515e-01 4.969898e-01 4.894748e-01 4.559816e-01 4.359166e-01 4.125074e-01 3.719584e-01 3.640232e-01 3.046882e-01 3.063853e-01 2.412609e-01 2.413615e-01 1.870988e-01 1.781525e-01 1.460033e-01 1.265622e-01 1.197581e-01 9.204434e-02 1.079130e-01 7.508697e-02 1.082071e-01 7.284339e-02 1.173473e-01 8.101718e-02 
6.905591e-02 4.677731e-02 1.108603e-01 8.639682e-02 1.473492e-01 1.208057e-01 1.766284e-01 1.482210e-01 1.975912e-01 1.678915e-01 2.100047e-01 1.801900e-01 2.146410e-01 1.867222e-01 2.133401e-01 1.902877e-01 2.088503e-01 1.944994e-01 2.043284e-01 2.029746e-01 2.025762e-01 2.183111e-01 2.053752e-01 2.413030e-01 2.133564e-01 2.706685e-01 2.264705e-01 3.032547e-01 2.446459e-01 3.345205e-01 2.678209e-01 3.590968e-01 2.946021e-01 3.714469e-01 3.201616e-01 3.670961e-01 3.362677e-01 3.445513e-01 3.344626e-01 3.056153e-01 3.090366e-01 2.544457e-01 2.584502e-01 1.962141e-01 1.862316e-01 1.355535e-01 1.018513e-01 7.523011e-02 2.014563e-02 1.670354e-02 -4.361389e-02 -3.638411e-02 -8.198918e-02 -7.559761e-02 -9.428787e-02 -9.419304e-02 -8.406891e-02 -9.101321e-02 -5.693287e-02 -6.961185e-02 -1.888420e-02 -3.572006e-02 2.462111e-02 4.763071e-03 
7.958015e-02 3.961431e-02 1.047668e-01 6.468906e-02 1.273413e-01 8.661574e-02 1.446630e-01 1.030298e-01 1.552581e-01 1.130315e-01 1.589726e-01 1.172913e-01 1.571448e-01 1.181747e-01 1.526643e-01 1.197035e-01 1.497159e-01 1.271280e-01 1.530790e-01 1.460024e-01 1.671152e-01 1.809574e-01 1.948713e-01 2.345600e-01 2.375673e-01 3.062979e-01 2.943631e-01 3.915403e-01 3.621813e-01 4.807162e-01 4.355338e-01 5.598222e-01 5.065693e-01 6.138726e-01 5.656452e-01 6.331191e-01 6.026816e-01 6.175820e-01 6.103436e-01 5.766329e-01 5.867765e-01 5.239188e-01 5.347373e-01 4.713272e-01 4.599515e-01 4.229188e-01 3.706204e-01 3.704281e-01 2.774570e-01 2.985067e-01 1.918190e-01 2.072789e-01 1.205498e-01 1.171684e-01 6.887542e-02 4.739586e-02 3.912405e-02 5.955823e-03 2.992622e-02 -8.759704e-03 3.715992e-02 -3.162579e-03 5.548985e-02 1.521698e-02 
3.485742e-02 1.110235e-02 8.918985e-02 6.263664e-02 1.354922e-01 1.057458e-01 1.715866e-01 1.383563e-01 1.961076e-01 1.595324e-01 2.086766e-01 1.697020e-01 2.102351e-01 1.710387e-01 2.033556e-01 1.677006e-01 1.922018e-01 1.654633e-01 1.817820e-01 1.704070e-01 1.764892e-01 1.870014e-01 1.786989e-01 2.167326e-01 1.885607e-01 2.577888e-01 2.052254e-01 3.055764e-01 2.287912e-01 3.535670e-01 2.612131e-01 3.939355e-01 3.035675e-01 4.178174e-01 3.495801e-01 4.168706e-01 3.843947e-01 3.886021e-01 3.928523e-01 3.364860e-01 3.652169e-01 2.676451e-01 2.979287e-01 1.906977e-01 1.943186e-01 1.130319e-01 6.770888e-02 3.705303e-02 -5.594020e-02 -4.003966e-02 -1.464072e-01 -1.166426e-01 -1.951227e-01 -1.738578e-01 -2.046827e-01 -1.979251e-01 -1.830502e-01 -1.883877e-01 -1.399817e-01 -1.532272e-01 -8.463168e-02 -1.026320e-01 -2.446762e-02 -4.558785e-02 
2.535730e-02 -1.746885e-02 6.330162e-02 2.032486e-02 9.571080e-02 5.102738e-02 1.192104e-01 7.175762e-02 1.318045e-01 8.132861e-02 1.331051e-01 8.048354e-02 1.247508e-01 7.233113e-02 1.107716e-01 6.263568e-02 9.745636e-02 5.944763e-02 9.228787e-02 7.169891e-02 1.021106e-01 1.071497e-01 1.316439e-01 1.708566e-01 1.829741e-01 2.639733e-01 2.555484e-01 3.819378e-01 3.459818e-01 5.118050e-01 4.474751e-01 6.308242e-01 5.493646e-01 7.113472e-01 6.374095e-01 7.347321e-01 6.943862e-01 7.016192e-01 7.072052e-01 6.311752e-01 6.743679e-01 5.497253e-01 6.014604e-01 4.809935e-01 4.965787e-01 4.352861e-01 3.705021e-01 3.934423e-01 2.396335e-01 3.065432e-01 1.246341e-01 1.685360e-01 3.101260e-02 3.256531e-02 -3.327071e-02 -6.290621e-02 -6.467142e-02 -1.091319e-01 -6.657539e-02 -1.147075e-01 -4.659856e-02 -9.333450e-02 -1.336564e-02 -5.766790e-02 
4.522456e-03 -2.039644e-02 7.467865e-02 4.653185e-02 1.331504e-01 1.005585e-01 1.775436e-01 1.393928e-01 2.060743e-01 1.617000e-01 2.178924e-01 1.675854e-01 2.138011e-01 1.595526e-01 1.971424e-01 1.434802e-01 1.742371e-01 1.286163e-01 1.534022e-01 1.254168e-01 1.420220e-01 1.415961e-01 1.432794e-01 1.796577e-01 1.556382e-01 2.367737e-01 1.755560e-01 3.061204e-01 2.024661e-01 3.786253e-01 2.431350e-01 4.438075e-01 3.075820e-01 4.878884e-01 3.892617e-01 4.932146e-01 4.582531e-01 4.559422e-01 4.867871e-01 3.833959e-01 4.602155e-01 2.877966e-01 3.721852e-01 1.839499e-01 2.227927e-01 8.582062e-02 2.690048e-02 -4.093968e-03 -1.695822e-01 -1.021553e-01 -2.956827e-01 -2.212098e-01 -3.520194e-01 -3.096373e-01 -3.503388e-01 -3.388795e-01 -3.068044e-01 -3.142533e-01 -2.379180e-01 -2.544895e-01 -1.571743e-01 -1.776749e-01 -7.420889e-02 -9.686138e-02 
-2.941253e-02 -7.329237e-02 2.636479e-02 -1.783604e-02 7.219780e-02 2.469646e-02 1.040125e-01 5.104186e-02 1.190807e-01 5.950448e-02 1.163737e-01 5.047114e-02 9.746663e-02 2.750150e-02 6.765784e-02 -1.535200e-03 3.639647e-02 -2.438910e-02 1.569735e-02 -2.670051e-02 1.636860e-02 3.949693e-03 4.531144e-02 7.631504e-02 1.055076e-01 1.950615e-01 1.969491e-01 3.584330e-01 3.166250e-01 5.516451e-01 4.569825e-01 7.384115e-01 6.043106e-01 8.645248e-01 7.391267e-01 8.920325e-01 8.296725e-01 8.224915e-01 8.492892e-01 6.959728e-01 8.010980e-01 5.612275e-01 6.980031e-01 4.647589e-01 5.504501e-01 4.393667e-01 3.694792e-01 4.554667e-01 1.794240e-01 3.582666e-01 2.890305e-02 1.203084e-01 -9.479414e-02 -9.893072e-02 -1.741778e-01 -2.274996e-01 -2.025241e-01 -2.686735e-01 -1.883341e-01 -2.504094e-01 -1.460700e-01 -1.998585e-01 -8.950224e-02 -1.366068e-01 
-1.879682e-02 -4.369307e-02 7.069140e-02 4.231365e-02 1.439898e-01 1.097590e-01 1.986369e-01 1.562879e-01 2.321344e-01 1.797028e-01 2.424565e-01 1.788358e-01 2.293829e-01 1.555394e-01 1.965755e-01 1.174055e-01 1.534821e-01 7.930651e-02 1.146501e-01 6.001643e-02 9.371013e-02 7.295092e-02 9.515468e-02 1.217475e-01 1.130683e-01 2.012608e-01 1.363233e-01 3.007973e-01 1.595153e-01 4.081022e-01 1.984907e-01 5.121354e-01 2.920667e-01 5.947657e-01 4.402146e-01 6.112144e-01 5.720122e-01 5.581522e-01 6.355653e-01 4.526399e-01 6.157691e-01 3.142780e-01 5.051446e-01 1.675189e-01 2.922313e-01 4.371852e-02 -2.185561e-02 -4.630169e-02 -3.633444e-01 -1.546203e-01 -5.252867e-01 -3.672362e-01 -5.767514e-01 -5.134057e-01 -5.458289e-01 -5.403881e-01 -4.618880e-01 -4.801533e-01 -3.520058e-01 -3.763193e-01 -2.349770e-01 -2.592295e-01 -1.218737e-01 -1.455982e-01 