# vtk DataFile Version 2.0
Comment goes here
ASCII

DATASET STRUCTURED_POINTS
DIMENSIONS    64   64   1

ORIGIN    0.000   0.000   0.000
SPACING   0.0156250.015625   1.000

POINT_DATA   4096
SCALARS P double
LOOKUP_TABLE default

8.434425e-01 9.320441e-01 9.489199e-01 1.055756e+00 1.052020e+00 1.173136e+00 1.148152e+00 1.278099e+00 1.231658e+00 1.363103e+00 1.296083e+00 1.419670e+00 1.334943e+00 1.439808e+00 1.342931e+00 1.418300e+00 1.317257e+00 1.355140e+00 1.258673e+00 1.256543e+00 1.172093e+00 1.134218e+00 1.066018e+00 1.001241e+00 9.491596e-01 8.679758e-01 8.278829e-01 7.405805e-01 7.061961e-01 6.217139e-01 5.873287e-01 5.120779e-01 4.753583e-01 4.121597e-01 3.757366e-01 3.234446e-01 2.938670e-01 2.480689e-01 2.330350e-01 1.881720e-01 1.939943e-01 1.454894e-01 1.756214e-01 1.211888e-01 1.757803e-01 1.157904e-01 1.920123e-01 1.291578e-01 2.220703e-01 1.607716e-01 2.643936e-01 2.101681e-01 3.183049e-01 2.768745e-01 3.834944e-01 3.598360e-01 4.594267e-01 4.571109e-01 5.450810e-01 5.660449e-01 6.389630e-01 6.836315e-01 7.391811e-01 8.067359e-01 
8.968705e-01 9.684599e-01 9.818932e-01 1.069781e+00 1.066059e+00 1.165875e+00 1.144997e+00 1.251085e+00 1.213260e+00 1.318687e+00 1.264458e+00 1.361281e+00 1.291812e+00 1.371740e+00 1.289339e+00 1.344865e+00 1.253728e+00 1.279781e+00 1.186235e+00 1.182149e+00 1.093032e+00 1.063065e+00 9.839688e-01 9.355974e-01 8.694705e-01 8.113537e-01 7.582103e-01 6.986586e-01 6.564491e-01 6.021874e-01 5.683038e-01 5.233211e-01 4.961238e-01 4.609941e-01 4.408104e-01 4.129789e-01 4.021159e-01 3.770641e-01 3.788628e-01 3.516141e-01 3.692506e-01 3.357096e-01 3.712065e-01 3.290868e-01 3.827324e-01 3.320213e-01 4.022083e-01 3.451946e-01 4.286007e-01 3.695226e-01 4.615293e-01 4.059098e-01 5.011990e-01 4.549572e-01 5.481857e-01 5.166904e-01 6.030699e-01 5.904086e-01 6.660760e-01 6.747013e-01 7.368476e-01 7.675640e-01 8.143570e-01 8.664914e-01 
8.092511e-01 8.829065e-01 8.937715e-01 9.825021e-01 9.749809e-01 1.075115e+00 1.049142e+00 1.155837e+00 1.111955e+00 1.219122e+00 1.158841e+00 1.259292e+00 1.185485e+00 1.271488e+00 1.188593e+00 1.252965e+00 1.166668e+00 1.204268e+00 1.120571e+00 1.129642e+00 1.053665e+00 1.036337e+00 9.712356e-01 9.326061e-01 8.790015e-01 8.256542e-01 7.818859e-01 7.206062e-01 6.837972e-01 6.205960e-01 5.881782e-01 5.274727e-01 4.986393e-01 4.426595e-01 4.190879e-01 3.677372e-01 3.531111e-01 3.044507e-01 3.031255e-01 2.544693e-01 2.700651e-01 2.191640e-01 2.535925e-01 1.994741e-01 2.525348e-01 1.958476e-01 2.653316e-01 2.082589e-01 2.904192e-01 2.363366e-01 3.265179e-01 2.795169e-01 3.727247e-01 3.370190e-01 4.283245e-01 4.076516e-01 4.925210e-01 4.896898e-01 5.642617e-01 5.809242e-01 6.421714e-01 6.787971e-01 7.245332e-01 7.804924e-01 
8.640116e-01 9.225645e-01 9.302085e-01 1.002471e+00 9.942885e-01 1.076529e+00 1.052754e+00 1.140268e+00 1.101482e+00 1.188736e+00 1.135957e+00 1.216900e+00 1.151765e+00 1.220386e+00 1.145413e+00 1.196533e+00 1.115356e+00 1.145612e+00 1.062854e+00 1.071594e+00 9.920835e-01 9.815419e-01 9.093510e-01 8.838882e-01 8.215943e-01 7.865669e-01 7.350699e-01 6.957752e-01 6.547202e-01 6.155051e-01 5.840739e-01 5.476325e-01 5.253608e-01 4.923811e-01 4.796803e-01 4.490086e-01 4.471838e-01 4.164645e-01 4.272607e-01 3.938134e-01 4.187661e-01 3.804302e-01 4.202757e-01 3.760436e-01 4.303390e-01 3.806977e-01 4.476971e-01 3.946669e-01 4.714353e-01 4.183346e-01 5.010447e-01 4.520368e-01 5.363848e-01 4.958852e-01 5.775474e-01 5.496082e-01 6.246420e-01 6.124498e-01 6.775703e-01 6.831456e-01 7.358509e-01 7.599477e-01 7.985096e-01 8.406486e-01 
7.744813e-01 8.358564e-01 8.412440e-01 9.155692e-01 9.043656e-01 9.883791e-01 9.609045e-01 1.050451e+00 1.007653e+00 1.097755e+00 1.041374e+00 1.126461e+00 1.059183e+00 1.133559e+00 1.059022e+00 1.117586e+00 1.040105e+00 1.079209e+00 1.003215e+00 1.021364e+00 9.506976e-01 9.487735e-01 8.860744e-01 8.669055e-01 8.133103e-01 7.808768e-01 7.361793e-01 6.947945e-01 6.580439e-01 6.116562e-01 5.819907e-01 5.336295e-01 5.110321e-01 4.624540e-01 4.481011e-01 3.997349e-01 3.957562e-01 3.470050e-01 3.557998e-01 3.056442e-01 3.290963e-01 2.767681e-01 3.156424e-01 2.611454e-01 3.147948e-01 2.591552e-01 3.255431e-01 2.707930e-01 3.467617e-01 2.957244e-01 3.773941e-01 3.333456e-01 4.165230e-01 3.827822e-01 4.633085e-01 4.428308e-01 5.168664e-01 5.119180e-01 5.761598e-01 5.881190e-01 6.399291e-01 6.692106e-01 7.066477e-01 7.527087e-01 
8.298430e-01 8.781068e-01 8.801053e-01 9.405055e-01 9.276573e-01 9.970446e-01 9.698148e-01 1.044304e+00 1.003558e+00 1.078708e+00 1.025760e+00 1.096869e+00 1.033577e+00 1.096104e+00 1.024970e+00 1.075078e+00 9.992841e-01 1.034419e+00 9.576535e-01 9.769857e-01 9.030032e-01 9.074954e-01 8.395792e-01 8.315961e-01 7.721470e-01 7.548141e-01 7.052264e-01 6.817554e-01 6.426111e-01 6.157090e-01 5.871784e-01 5.586096e-01 5.408727e-01 5.112588e-01 5.047715e-01 4.736902e-01 4.791911e-01 4.455471e-01 4.638217e-01 4.263711e-01 4.578948e-01 4.157745e-01 4.603732e-01 4.135144e-01 4.701401e-01 4.194966e-01 4.861637e-01 4.337325e-01 5.076152e-01 4.562627e-01 5.339238e-01 4.870615e-01 5.647627e-01 5.259313e-01 5.999670e-01 5.724084e-01 6.394004e-01 6.256957e-01 6.828043e-01 6.846310e-01 7.296643e-01 7.476799e-01 7.791091e-01 8.129352e-01 
7.402946e-01 7.917939e-01 7.919442e-01 8.551560e-01 8.399775e-01 9.120455e-01 8.821429e-01 9.595323e-01 9.160900e-01 9.947115e-01 9.395553e-01 1.014993e+00 9.506228e-01 1.018493e+00 9.480194e-01 1.004445e+00 9.313765e-01 9.734940e-01 9.013771e-01 9.277235e-01 8.597199e-01 8.703477e-01 8.088751e-01 8.051348e-01 7.516946e-01 7.357946e-01 6.910577e-01 6.655622e-01 6.296918e-01 5.970630e-01 5.701566e-01 5.323964e-01 5.148721e-01 4.733087e-01 4.660683e-01 4.213355e-01 4.256262e-01 3.778485e-01 3.948893e-01 3.440288e-01 3.745644e-01 3.208107e-01 3.647494e-01 3.088310e-01 3.650581e-01 3.083982e-01 3.747884e-01 3.194879e-01 3.930856e-01 3.417641e-01 4.190676e-01 3.746080e-01 4.518846e-01 4.171297e-01 4.907090e-01 4.681631e-01 5.346802e-01 5.262635e-01 5.828395e-01 5.897242e-01 6.340741e-01 6.566043e-01 6.870732e-01 7.247492e-01 
7.957598e-01 8.360737e-01 8.323942e-01 8.841096e-01 8.661537e-01 9.265923e-01 8.950563e-01 9.609725e-01 9.169578e-01 9.847172e-01 9.297473e-01 9.955716e-01 9.316257e-01 9.919076e-01 9.214431e-01 9.731067e-01 8.990217e-01 9.398711e-01 8.653536e-01 8.943131e-01 8.225670e-01 8.397085e-01 7.736376e-01 7.799699e-01 7.219286e-01 7.190296e-01 6.707263e-01 6.603306e-01 6.228995e-01 6.065279e-01 5.807132e-01 5.594072e-01 5.457622e-01 5.199703e-01 5.189776e-01 4.886237e-01 5.006813e-01 4.653928e-01 4.906767e-01 4.501091e-01 4.883707e-01 4.425409e-01 4.929180e-01 4.424668e-01 5.033707e-01 4.496991e-01 5.188113e-01 4.640698e-01 5.384540e-01 4.853911e-01 5.616990e-01 5.134013e-01 5.881343e-01 5.477064e-01 6.174855e-01 5.877266e-01 6.495258e-01 6.326535e-01 6.839656e-01 6.814238e-01 7.203464e-01 7.327042e-01 7.579539e-01 7.848843e-01 
7.073721e-01 7.511420e-01 7.460168e-01 8.009984e-01 7.812607e-01 8.449362e-01 8.114330e-01 8.807640e-01 8.348560e-01 9.064178e-01 8.499856e-01 9.201621e-01 8.555866e-01 9.208331e-01 8.509165e-01 9.080722e-01 8.358742e-01 8.824710e-01 8.110710e-01 8.455582e-01 7.777903e-01 7.996037e-01 7.378339e-01 7.472854e-01 6.932986e-01 6.913340e-01 6.463657e-01 6.342699e-01 5.991655e-01 5.782841e-01 5.537181e-01 5.252417e-01 5.119006e-01 4.767454e-01 4.753871e-01 4.341958e-01 4.455508e-01 3.988142e-01 4.233621e-01 3.716270e-01 4.093327e-01 3.534316e-01 4.035315e-01 3.447607e-01 4.056606e-01 3.458562e-01 4.151649e-01 3.566586e-01 4.313445e-01 3.768146e-01 4.534462e-01 4.056957e-01 4.807160e-01 4.424196e-01 5.124067e-01 4.858691e-01 5.477530e-01 5.347124e-01 5.859281e-01 5.874261e-01 6.260003e-01 6.423188e-01 6.668952e-01 6.975497e-01 
7.626028e-01 7.969821e-01 7.873712e-01 8.331054e-01 8.093628e-01 8.641143e-01 8.271789e-01 8.881641e-01 8.393579e-01 9.035062e-01 8.445305e-01 9.086776e-01 8.416156e-01 9.027283e-01 8.300325e-01 8.854475e-01 8.098830e-01 8.575217e-01 7.820456e-01 8.205539e-01 7.481318e-01 7.768991e-01 7.103018e-01 7.293488e-01 6.709847e-01 6.807592e-01 6.325866e-01 6.337250e-01 5.972533e-01 5.903655e-01 5.667164e-01 5.522357e-01 5.422132e-01 5.203441e-01 5.244641e-01 4.952397e-01 5.136916e-01 4.771296e-01 5.096774e-01 4.659941e-01 5.118516e-01 4.616785e-01 5.194077e-01 4.639562e-01 5.314305e-01 4.725594e-01 5.470179e-01 4.871851e-01 5.653802e-01 5.074821e-01 5.859002e-01 5.330278e-01 6.081468e-01 5.633016e-01 6.318400e-01 5.976591e-01 6.567785e-01 6.353093e-01 6.827464e-01 6.752958e-01 7.094190e-01 7.164831e-01 7.362863e-01 7.575484e-01 
6.760837e-01 7.140598e-01 7.033476e-01 7.526408e-01 7.275127e-01 7.858487e-01 7.473908e-01 8.120942e-01 7.618384e-01 8.299564e-01 7.698604e-01 8.383165e-01 7.707260e-01 8.365052e-01 7.640789e-01 8.244293e-01 7.500167e-01 8.026391e-01 7.291160e-01 7.723006e-01 7.023928e-01 7.350670e-01 6.712008e-01 6.928807e-01 6.370954e-01 6.477627e-01 6.017043e-01 6.016499e-01 5.666321e-01 5.563066e-01 5.334001e-01 5.133035e-01 5.034007e-01 4.740332e-01 4.778423e-01 4.397283e-01 4.576814e-01 4.114629e-01 4.435598e-01 3.901344e-01 4.357718e-01 3.764337e-01 4.342767e-01 3.708119e-01 4.387531e-01 3.734538e-01 4.486812e-01 3.842614e-01 4.634312e-01 4.028547e-01 4.823384e-01 4.285896e-01 5.047510e-01 4.605868e-01 5.300413e-01 4.977683e-01 5.575881e-01 5.388941e-01 5.867403e-01 5.825955e-01 6.167767e-01 6.274020e-01 6.468727e-01 6.717618e-01 
7.308328e-01 7.610701e-01 7.450162e-01 7.871294e-01 7.566748e-01 8.085358e-01 7.648837e-01 8.240133e-01 7.687108e-01 8.324109e-01 7.673376e-01 8.328352e-01 7.601947e-01 8.247951e-01 7.470933e-01 8.083319e-01 7.283232e-01 7.840982e-01 7.046903e-01 7.533491e-01 6.774708e-01 7.178306e-01 6.482867e-01 6.795856e-01 6.189280e-01 6.407247e-01 5.911647e-01 6.032186e-01 5.665835e-01 5.687473e-01 5.464674e-01 5.386205e-01 5.317188e-01 5.137605e-01 5.228202e-01 4.947324e-01 5.198285e-01 4.817998e-01 5.224051e-01 4.749907e-01 5.298811e-01 4.741601e-01 5.413569e-01 4.790408e-01 5.558254e-01 4.892789e-01 5.723022e-01 5.044530e-01 5.899390e-01 5.240809e-01 6.080997e-01 5.476197e-01 6.263828e-01 5.744622e-01 6.445879e-01 6.039322e-01 6.626393e-01 6.352769e-01 6.804875e-01 6.676566e-01 6.980123e-01 7.001320e-01 7.149466e-01 7.316551e-01 
6.466080e-01 6.805898e-01 6.636932e-01 7.095940e-01 6.780019e-01 7.336867e-01 6.887457e-01 7.517781e-01 6.952128e-01 7.629603e-01 6.968454e-01 7.665896e-01 6.933132e-01 7.623685e-01 6.845720e-01 7.504075e-01 6.708941e-01 7.312438e-01 6.528618e-01 7.058070e-01 6.313229e-01 6.753305e-01 6.073175e-01 6.412317e-01 5.819921e-01 6.049898e-01 5.565220e-01 5.680533e-01 5.320525e-01 5.317866e-01 5.096563e-01 4.974525e-01 4.902947e-01 4.662109e-01 4.747718e-01 4.391167e-01 4.636822e-01 4.171060e-01 4.573635e-01 4.009697e-01 4.558738e-01 3.913190e-01 4.590031e-01 3.885475e-01 4.663224e-01 3.927972e-01 4.772594e-01 4.039345e-01 4.911846e-01 4.215449e-01 5.074862e-01 4.449516e-01 5.256156e-01 4.732562e-01 5.450953e-01 5.053931e-01 5.654913e-01 5.401835e-01 5.863679e-01 5.763823e-01 6.072405e-01 6.127101e-01 6.275416e-01 6.478749e-01 
7.006511e-01 7.284275e-01 7.051196e-01 7.457610e-01 7.074026e-01 7.588645e-01 7.069512e-01 7.669261e-01 7.032431e-01 7.692640e-01 6.958793e-01 7.654145e-01 6.846772e-01 7.552201e-01 6.697454e-01 7.388996e-01 6.515276e-01 7.170815e-01 6.308024e-01 6.907839e-01 6.086347e-01 6.613375e-01 5.862855e-01 6.302660e-01 5.650963e-01 5.991468e-01 5.463689e-01 5.694823e-01 5.312567e-01 5.425979e-01 5.206741e-01 5.195754e-01 5.152267e-01 5.012176e-01 5.151586e-01 4.880419e-01 5.203240e-01 4.802944e-01 5.301903e-01 4.779813e-01 5.438840e-01 4.809101e-01 5.602842e-01 4.887341e-01 5.781595e-01 5.009929e-01 5.963299e-01 5.171433e-01 6.138190e-01 5.365818e-01 6.299601e-01 5.586610e-01 6.444277e-01 5.827055e-01 6.571895e-01 6.080244e-01 6.684009e-01 6.339168e-01 6.782754e-01 6.596675e-01 6.869663e-01 6.845333e-01 6.944828e-01 7.077300e-01 
6.190121e-01 6.507567e-01 6.267606e-01 6.714248e-01 6.320328e-01 6.875142e-01 6.343678e-01 6.983648e-01 6.334100e-01 7.035013e-01 6.289690e-01 7.026779e-01 6.210615e-01 6.959134e-01 6.099298e-01 6.835052e-01 5.960303e-01 6.660149e-01 5.799958e-01 6.442237e-01 5.625798e-01 6.190658e-01 5.445944e-01 5.915560e-01 5.268574e-01 5.627287e-01 5.101544e-01 5.336010e-01 4.952182e-01 5.051589e-01 4.827134e-01 4.783587e-01 4.732148e-01 4.541261e-01 4.671701e-01 4.333457e-01 4.648510e-01 4.168343e-01 4.663075e-01 4.053039e-01 4.713426e-01 3.993175e-01 4.795237e-01 3.992414e-01 4.902353e-01 4.051979e-01 5.027678e-01 4.170264e-01 5.164226e-01 4.342680e-01 5.306056e-01 4.561855e-01 5.448779e-01 4.818208e-01 5.589501e-01 5.100749e-01 5.726282e-01 5.397879e-01 5.857386e-01 5.698012e-01 5.980610e-01 5.989958e-01 6.092869e-01 6.263112e-01 
6.720749e-01 6.990822e-01 6.673605e-01 7.085947e-01 6.608471e-01 7.142285e-01 6.522708e-01 7.155607e-01 6.414236e-01 7.122929e-01 6.282372e-01 7.043077e-01 6.128449e-01 6.917155e-01 5.956140e-01 6.748835e-01 5.771450e-01 6.544380e-01 5.582389e-01 6.312374e-01 5.398398e-01 6.063183e-01 5.229644e-01 5.808248e-01 5.086282e-01 5.559336e-01 4.977770e-01 5.327842e-01 4.912242e-01 5.124176e-01 4.895881e-01 4.957219e-01 4.932275e-01 4.833843e-01 5.021722e-01 4.758537e-01 5.160638e-01 4.733205e-01 5.341234e-01 4.757206e-01 5.551725e-01 4.827634e-01 5.777267e-01 4.939786e-01 6.001664e-01 5.087666e-01 6.209640e-01 5.264440e-01 6.389148e-01 5.462778e-01 6.533008e-01 5.675139e-01 6.639335e-01 5.894091e-01 6.710666e-01 6.112615e-01 6.752220e-01 6.324301e-01 6.769944e-01 6.523326e-01 6.768881e-01 6.704267e-01 6.752172e-01 6.861853e-01 
5.933004e-01 6.246362e-01 5.922579e-01 6.378078e-01 5.889847e-01 6.465754e-01 5.832793e-01 6.506648e-01 5.750844e-01 6.499917e-01 5.645377e-01 6.446773e-01 5.519903e-01 6.350468e-01 5.379859e-01 6.216031e-01 5.232058e-01 6.049790e-01 5.083911e-01 5.858750e-01 4.942630e-01 5.649993e-01 4.814609e-01 5.430270e-01 4.705128e-01 5.205876e-01 4.618394e-01 4.982833e-01 4.557786e-01 4.767233e-01 4.526098e-01 4.565568e-01 4.525565e-01 4.384838e-01 4.557541e-01 4.232386e-01 4.621919e-01 4.115494e-01 4.716502e-01 4.040864e-01 4.836594e-01 4.014061e-01 4.975063e-01 4.038908e-01 5.122972e-01 4.116800e-01 5.270806e-01 4.246055e-01 5.410016e-01 4.421524e-01 5.534432e-01 4.634792e-01 5.640959e-01 4.875016e-01 5.729245e-01 5.130170e-01 5.800560e-01 5.388247e-01 5.856463e-01 5.638101e-01 5.897732e-01 5.869859e-01 5.923847e-01 6.075007e-01 
6.449752e-01 6.730537e-01 6.313507e-01 6.752777e-01 6.163354e-01 6.738864e-01 5.998550e-01 6.687916e-01 5.819343e-01 6.600260e-01 5.627773e-01 6.477753e-01 5.428053e-01 6.323933e-01 5.226490e-01 6.143964e-01 5.031013e-01 5.944385e-01 4.850444e-01 5.732734e-01 4.693743e-01 5.517156e-01 4.569381e-01 5.306067e-01 4.484961e-01 5.107950e-01 4.447041e-01 4.931216e-01 4.460995e-01 4.783988e-01 4.530710e-01 4.673685e-01 4.657968e-01 4.606367e-01 4.841484e-01 4.585983e-01 5.075804e-01 4.613778e-01 5.350405e-01 4.688055e-01 5.649457e-01 4.804409e-01 5.952717e-01 4.956337e-01 6.237802e-01 5.135992e-01 6.483661e-01 5.334827e-01 6.674380e-01 5.544018e-01 6.801955e-01 5.754781e-01 6.866878e-01 5.958832e-01 6.876399e-01 6.148952e-01 6.841434e-01 6.319367e-01 6.773361e-01 6.465732e-01 6.681657e-01 6.584772e-01 6.572715e-01 6.673828e-01 
5.694428e-01 6.024045e-01 5.599283e-01 6.085585e-01 5.483422e-01 6.103000e-01 5.346675e-01 6.077174e-01 5.190955e-01 6.011042e-01 5.020781e-01 5.909549e-01 4.843250e-01 5.779305e-01 4.667407e-01 5.627917e-01 4.503119e-01 5.463064e-01 4.359699e-01 5.291558e-01 4.244668e-01 5.118655e-01 4.163007e-01 4.947845e-01 4.117087e-01 4.781225e-01 4.107237e-01 4.620344e-01 4.132666e-01 4.467220e-01 4.192304e-01 4.325149e-01 4.285163e-01 4.199012e-01 4.410017e-01 4.094997e-01 4.564505e-01 4.019957e-01 4.744077e-01 3.980669e-01 4.941200e-01 3.983181e-01 5.145233e-01 4.032102e-01 5.343213e-01 4.129644e-01 5.521656e-01 4.274455e-01 5.669096e-01 4.460735e-01 5.778557e-01 4.678319e-01 5.848710e-01 4.914011e-01 5.882988e-01 5.153641e-01 5.887279e-01 5.383972e-01 5.867481e-01 5.593838e-01 5.827810e-01 5.774488e-01 5.770170e-01 5.919411e-01 
6.190862e-01 6.503840e-01 5.966616e-01 6.455278e-01 5.732505e-01 6.372219e-01 5.488559e-01 6.256733e-01 5.236566e-01 6.112160e-01 4.980944e-01 5.943276e-01 4.728906e-01 5.756154e-01 4.489908e-01 5.557730e-01 4.274551e-01 5.355214e-01 4.093257e-01 5.155521e-01 3.955137e-01 4.964915e-01 3.867367e-01 4.789019e-01 3.835206e-01 4.633204e-01 3.862472e-01 4.503129e-01 3.952100e-01 4.405064e-01 4.106306e-01 4.345612e-01 4.325999e-01 4.330733e-01 4.609374e-01 4.364383e-01 4.949953e-01 4.447318e-01 5.334651e-01 4.576497e-01 5.742646e-01 4.745344e-01 6.145965e-01 4.944747e-01 6.512533e-01 5.164339e-01 6.811722e-01 5.393478e-01 7.021037e-01 5.621622e-01 7.131184e-01 5.838440e-01 7.146911e-01 6.034379e-01 7.083415e-01 6.201735e-01 6.960564e-01 6.335411e-01 6.797520e-01 6.432834e-01 6.609297e-01 6.493223e-01 6.405512e-01 6.516727e-01 
5.473875e-01 5.843757e-01 5.295825e-01 5.836566e-01 5.097338e-01 5.783074e-01 4.879142e-01 5.687662e-01 4.645133e-01 5.557114e-01 4.403034e-01 5.400486e-01 4.164197e-01 5.228467e-01 3.942444e-01 5.052186e-01 3.752090e-01 4.881638e-01 3.605611e-01 4.724156e-01 3.511611e-01 4.583389e-01 3.473741e-01 4.459222e-01 3.490919e-01 4.348740e-01 3.558710e-01 4.248026e-01 3.671328e-01 4.154222e-01 3.823471e-01 4.067116e-01 4.011233e-01 3.989702e-01 4.231648e-01 3.927616e-01 4.481112e-01 3.887950e-01 4.753448e-01 3.878161e-01 5.038360e-01 3.905424e-01 5.320857e-01 3.976038e-01 5.582110e-01 4.094168e-01 5.802125e-01 4.259714e-01 5.964118e-01 4.466243e-01 6.059266e-01 4.700678e-01 6.089057e-01 4.945566e-01 6.063144e-01 5.182795e-01 5.994549e-01 5.396765e-01 5.895174e-01 5.575883e-01 5.773213e-01 5.712565e-01 5.632599e-01 5.802478e-01 
5.939922e-01 6.311508e-01 5.628471e-01 6.191400e-01 5.310730e-01 6.037385e-01 4.986032e-01 5.854106e-01 4.656853e-01 5.647784e-01 4.329863e-01 5.426298e-01 4.015865e-01 5.198717e-01 3.728596e-01 4.974374e-01 3.482676e-01 4.761743e-01 3.291286e-01 4.567484e-01 3.164324e-01 4.395991e-01 3.107681e-01 4.249738e-01 3.123819e-01 4.130466e-01 3.213293e-01 4.040792e-01 3.376454e-01 3.985426e-01 3.614428e-01 3.971110e-01 3.928635e-01 4.005023e-01 4.318659e-01 4.092278e-01 4.778873e-01 4.233674e-01 5.294707e-01 4.424510e-01 5.839705e-01 4.654978e-01 6.375057e-01 4.912017e-01 6.853412e-01 5.181730e-01 7.227882e-01 5.451039e-01 7.464384e-01 5.707694e-01 7.551641e-01 5.939427e-01 7.502405e-01 6.134519e-01 7.345740e-01 6.284125e-01 7.115909e-01 6.383902e-01 6.843269e-01 6.433699e-01 6.549512e-01 6.435970e-01 6.246876e-01 6.394113e-01 
5.270649e-01 5.710307e-01 5.011377e-01 5.632690e-01 4.729924e-01 5.504190e-01 4.426592e-01 5.332517e-01 4.106611e-01 5.128462e-01 3.781151e-01 4.905875e-01 3.467019e-01 4.680753e-01 3.184814e-01 4.469339e-01 2.955669e-01 4.285508e-01 2.797270e-01 4.138138e-01 2.720397e-01 4.029385e-01 2.727182e-01 3.954581e-01 2.811740e-01 3.904038e-01 2.962904e-01 3.866353e-01 3.168074e-01 3.832210e-01 3.416813e-01 3.797313e-01 3.702711e-01 3.763290e-01 4.022591e-01 3.736351e-01 4.373479e-01 3.724854e-01 4.749055e-01 3.737533e-01 5.136787e-01 3.783222e-01 5.516421e-01 3.871105e-01 5.860551e-01 4.009397e-01 6.138301e-01 4.201352e-01 6.322898e-01 4.440346e-01 6.401471e-01 4.708335e-01 6.380647e-01 4.980079e-01 6.281248e-01 5.230465e-01 6.127984e-01 5.440007e-01 5.941296e-01 5.596585e-01 5.733797e-01 5.694388e-01 5.510428e-01 5.731907e-01 
5.691034e-01 6.154644e-01 5.294801e-01 5.959911e-01 4.894532e-01 5.730615e-01 4.486851e-01 5.473466e-01 4.073890e-01 5.197514e-01 3.664679e-01 4.914248e-01 3.274838e-01 4.636697e-01 2.924473e-01 4.377736e-01 2.634575e-01 4.148080e-01 2.422933e-01 3.954596e-01 2.300975e-01 3.799483e-01 2.272761e-01 3.680916e-01 2.336467e-01 3.595432e-01 2.487718e-01 3.541437e-01 2.723338e-01 3.522145e-01 3.043835e-01 3.546021e-01 3.453236e-01 3.623910e-01 3.955825e-01 3.764267e-01 4.550489e-01 3.969046e-01 5.224049e-01 4.231441e-01 5.944837e-01 4.536500e-01 6.659332e-01 4.864725e-01 7.295869e-01 5.197002e-01 7.778975e-01 5.517857e-01 8.053078e-01 5.814331e-01 8.103858e-01 6.071900e-01 7.959977e-01 6.274557e-01 7.675645e-01 6.410778e-01 7.308659e-01 6.477246e-01 6.905283e-01 6.477688e-01 6.494532e-01 6.419288e-01 6.089331e-01 6.309514e-01 
5.083906e-01 5.630327e-01 4.746808e-01 5.477732e-01 4.382592e-01 5.266886e-01 3.989181e-01 5.008346e-01 3.572176e-01 4.716968e-01 3.146529e-01 4.412347e-01 2.736386e-01 4.117730e-01 2.372422e-01 3.857110e-01 2.086574e-01 3.650877e-01 1.905224e-01 3.511200e-01 1.843074e-01 3.438852e-01 1.900135e-01 3.422852e-01 2.063034e-01 3.443482e-01 2.310063e-01 3.478100e-01 2.618255e-01 3.508020e-01 2.970173e-01 3.523941e-01 3.357654e-01 3.527400e-01 3.780261e-01 3.527528e-01 4.239109e-01 3.535653e-01 4.730537e-01 3.561989e-01 5.241220e-01 3.616730e-01 5.745022e-01 3.713196e-01 6.202256e-01 3.867611e-01 6.563621e-01 4.091538e-01 6.782679e-01 4.379913e-01 6.837103e-01 4.705793e-01 6.744185e-01 5.029076e-01 6.546391e-01 5.312223e-01 6.288311e-01 5.530053e-01 6.002402e-01 5.670793e-01 5.705361e-01 5.732218e-01 5.400761e-01 5.717121e-01 
5.436371e-01 6.034466e-01 4.962271e-01 5.760474e-01 4.483436e-01 5.449630e-01 3.990998e-01 5.109804e-01 3.485403e-01 4.752823e-01 2.978380e-01 4.394719e-01 2.492522e-01 4.054214e-01 2.057925e-01 3.749745e-01 1.706057e-01 3.495970e-01 1.462478e-01 3.300783e-01 1.341173e-01 3.163568e-01 1.342909e-01 3.075852e-01 1.458298e-01 3.025532e-01 1.674350e-01 3.003921e-01 1.981930e-01 3.012337e-01 2.381093e-01 3.063806e-01 2.881687e-01 3.177534e-01 3.498251e-01 3.369317e-01 4.240746e-01 3.644427e-01 5.103711e-01 3.993267e-01 6.053558e-01 4.392086e-01 7.018297e-01 4.809937e-01 7.887588e-01 5.219210e-01 8.533751e-01 5.603246e-01 8.858554e-01 5.952730e-01 8.843137e-01 6.251161e-01 8.549745e-01 6.472542e-01 8.079836e-01 6.598983e-01 7.529892e-01 6.629212e-01 6.967658e-01 6.574205e-01 6.428113e-01 6.448828e-01 5.920144e-01 6.265939e-01 
4.912817e-01 5.612188e-01 4.505740e-01 5.377851e-01 4.061527e-01 5.074634e-01 3.572884e-01 4.714686e-01 3.044144e-01 4.316543e-01 2.494253e-01 3.906670e-01 1.957403e-01 3.518501e-01 1.479639e-01 3.188156e-01 1.110533e-01 2.947144e-01 8.912792e-02 2.814100e-01 8.435208e-02 2.788794e-01 9.638764e-02 2.850955e-01 1.226495e-01 2.965110e-01 1.592138e-01 3.090581e-01 2.020764e-01 3.193946e-01 2.484200e-01 3.259417e-01 2.974028e-01 3.291589e-01 3.498587e-01 3.307751e-01 4.069253e-01 3.325383e-01 4.689780e-01 3.354981e-01 5.349100e-01 3.404900e-01 6.015883e-01 3.492759e-01 6.634230e-01 3.650335e-01 7.124102e-01 3.909569e-01 7.398415e-01 4.272573e-01 7.410148e-01 4.695279e-01 7.201962e-01 5.107335e-01 6.861193e-01 5.448971e-01 6.466564e-01 5.688002e-01 6.065958e-01 5.816550e-01 5.677244e-01 5.840256e-01 5.297530e-01 5.769016e-01 
5.166370e-01 5.951893e-01 4.629970e-01 5.593912e-01 4.082277e-01 5.194306e-01 3.505197e-01 4.760400e-01 2.895582e-01 4.306594e-01 2.268329e-01 3.855040e-01 1.656411e-01 3.433150e-01 1.106068e-01 3.068427e-01 6.665276e-02 2.782449e-01 3.767735e-02 2.585862e-01 2.549855e-02 2.474602e-01 2.956102e-02 2.429376e-01 4.752356e-02 2.422502e-01 7.649129e-02 2.431752e-01 1.144324e-01 2.454917e-01 1.612503e-01 2.515099e-01 2.190147e-01 2.649315e-01 2.911148e-01 2.887607e-01 3.807157e-01 3.242716e-01 4.892954e-01 3.701389e-01 6.143152e-01 4.224042e-01 7.467157e-01 4.757687e-01 8.694986e-01 5.258607e-01 9.600250e-01 5.712787e-01 9.992607e-01 6.129641e-01 9.847295e-01 6.493663e-01 9.302288e-01 6.751587e-01 8.550599e-01 6.870479e-01 7.751055e-01 6.855082e-01 6.996629e-01 6.731585e-01 6.321235e-01 6.528156e-01 5.719616e-01 6.264776e-01 
4.757106e-01 5.665467e-01 4.296242e-01 5.341908e-01 3.780349e-01 4.934976e-01 3.192843e-01 4.455625e-01 2.533868e-01 3.924594e-01 1.825812e-01 3.376239e-01 1.116346e-01 2.858494e-01 4.752411e-02 2.426898e-01 -1.841050e-03 2.132321e-01 -2.974562e-02 2.005812e-01 -3.278662e-02 2.047313e-01 -1.189285e-02 2.222508e-01 2.820565e-02 2.470303e-01 8.059021e-02 2.719720e-01 1.382978e-01 2.912356e-01 1.966582e-01 3.023194e-01 2.550960e-01 3.067393e-01 3.166699e-01 3.082609e-01 3.845748e-01 3.099305e-01 4.606163e-01 3.123187e-01 5.444344e-01 3.149262e-01 6.327946e-01 3.194572e-01 7.184565e-01 3.320513e-01 7.886846e-01 3.609661e-01 8.260760e-01 4.088406e-01 8.185343e-01 4.676709e-01 7.773917e-01 5.237547e-01 7.212122e-01 5.671509e-01 6.634835e-01 5.941989e-01 6.104041e-01 6.055226e-01 5.629037e-01 6.033646e-01 5.190457e-01 5.898863e-01 
4.870919e-01 5.906911e-01 4.302106e-01 5.462881e-01 3.704918e-01 4.968202e-01 3.047234e-01 4.426520e-01 2.319310e-01 3.854230e-01 1.539261e-01 3.282146e-01 7.553052e-02 2.751575e-01 4.012326e-03 2.305091e-01 -5.261047e-02 1.976142e-01 -8.804710e-02 1.781836e-01 -9.977179e-02 1.715175e-01 -8.955480e-02 1.739286e-01 -6.235667e-02 1.797287e-01 -2.406119e-02 1.839104e-01 2.113387e-02 1.853941e-01 7.281219e-02 1.886390e-01 1.349694e-01 2.011928e-01 2.144378e-01 2.284746e-01 3.179636e-01 2.733208e-01 4.513288e-01 3.340363e-01 6.152826e-01 4.037720e-01 8.003018e-01 4.727559e-01 9.811370e-01 5.329771e-01 1.116122e+00 5.839899e-01 1.164211e+00 6.335664e-01 1.122681e+00 6.816906e-01 1.023687e+00 7.145320e-01 9.046015e-01 7.254655e-01 7.906650e-01 7.170844e-01 6.929466e-01 6.954063e-01 6.126786e-01 6.655579e-01 5.459800e-01 6.303710e-01 
4.618346e-01 5.799674e-01 4.133397e-01 5.381857e-01 3.563972e-01 4.861515e-01 2.878557e-01 4.242915e-01 2.067734e-01 3.545288e-01 1.154397e-01 2.811010e-01 2.029513e-02 2.108520e-01 -6.803130e-02 1.525015e-01 -1.365584e-01 1.145778e-01 -1.738690e-01 1.025442e-01 -1.743110e-01 1.167230e-01 -1.399300e-01 1.515422e-01 -7.919324e-02 1.966674e-01 -4.126049e-03 2.397643e-01 7.304987e-02 2.704505e-01 1.440386e-01 2.846352e-01 2.089904e-01 2.866271e-01 2.766336e-01 2.851324e-01 3.536612e-01 2.861621e-01 4.440054e-01 2.883315e-01 5.486963e-01 2.865069e-01 6.654904e-01 2.801227e-01 7.870125e-01 2.806494e-01 8.951335e-01 3.092175e-01 9.540648e-01 3.760813e-01 9.262096e-01 4.649657e-01 8.461821e-01 5.460959e-01 7.546849e-01 6.028539e-01 6.729468e-01 6.329494e-01 6.064267e-01 6.409841e-01 5.527019e-01 6.325412e-01 5.064625e-01 6.115685e-01 
4.542462e-01 5.897871e-01 3.992410e-01 5.373409e-01 3.379794e-01 4.781580e-01 2.652634e-01 4.116874e-01 1.789297e-01 3.396156e-01 8.090074e-02 2.662940e-01 -2.190432e-02 1.981687e-01 -1.178776e-01 1.420372e-01 -1.934387e-01 1.031375e-01 -2.378868e-01 8.458355e-02 -2.474732e-01 8.595008e-02 -2.262841e-01 1.008198e-01 -1.841373e-01 1.179416e-01 -1.324666e-01 1.263377e-01 -7.967536e-02 1.225169e-01 -2.708420e-02 1.155596e-01 3.280921e-02 1.220339e-01 1.131304e-01 1.501385e-01 2.249566e-01 2.060707e-01 3.823109e-01 2.882717e-01 5.943687e-01 3.847346e-01 8.565326e-01 4.765397e-01 1.135991e+00 5.462954e-01 1.355267e+00 5.940600e-01 1.414145e+00 6.507109e-01 1.313163e+00 7.242233e-01 1.132440e+00 7.712302e-01 9.447099e-01 7.793791e-01 7.864414e-01 7.589104e-01 6.659551e-01 7.234452e-01 5.774834e-01 6.817964e-01 5.105148e-01 6.373252e-01 
4.502508e-01 6.021935e-01 4.042708e-01 5.513316e-01 3.453652e-01 4.877227e-01 2.681426e-01 4.101544e-01 1.697096e-01 3.196041e-01 5.150582e-02 2.208351e-01 -7.837974e-02 1.234782e-01 -2.038290e-01 4.147624e-02 -3.028892e-01 -1.035534e-02 -3.552758e-01 -2.215348e-02 -3.511838e-01 7.472823e-03 -2.950474e-01 6.969725e-02 -2.018949e-01 1.472468e-01 -9.215655e-02 2.186806e-01 1.264790e-02 2.648365e-01 9.616627e-02 2.779823e-01 1.591820e-01 2.691632e-01 2.265842e-01 2.589896e-01 3.090738e-01 2.608813e-01 4.126415e-01 2.676386e-01 5.398982e-01 2.610861e-01 6.913101e-01 2.309720e-01 8.649968e-01 1.967083e-01 1.044787e+00 2.130761e-01 1.161853e+00 3.138781e-01 1.078707e+00 4.624178e-01 9.194087e-01 5.862023e-01 7.723206e-01 6.599501e-01 6.623452e-01 6.897180e-01 5.859657e-01 6.898675e-01 5.322577e-01 6.719382e-01 4.902016e-01 6.421150e-01 
4.182251e-01 5.921300e-01 3.730457e-01 5.338100e-01 3.157322e-01 4.657011e-01 2.384383e-01 3.854152e-01 1.367962e-01 2.942891e-01 1.195451e-02 1.985362e-01 -1.267463e-01 1.086675e-01 -2.606427e-01 3.591664e-02 -3.657658e-01 -1.205969e-02 -4.229883e-01 -2.938493e-02 -4.265037e-01 -1.378582e-02 -3.848158e-01 2.445228e-02 -3.166592e-01 6.347920e-02 -2.435674e-01 7.926284e-02 -1.820755e-01 6.097899e-02 -1.360169e-01 2.749643e-02 -9.109970e-02 2.018070e-02 -2.040308e-02 4.349268e-02 8.616310e-02 1.122875e-01 2.582909e-01 2.274849e-01 5.222403e-01 3.682882e-01 8.926015e-01 4.982023e-01 1.345289e+00 5.747201e-01 1.745653e+00 5.858737e-01 1.813145e+00 6.396310e-01 1.572284e+00 7.820209e-01 1.237935e+00 8.574849e-01 9.468423e-01 8.547955e-01 7.379223e-01 8.104515e-01 6.021694e-01 7.537813e-01 5.173147e-01 6.979846e-01 4.618043e-01 6.451888e-01 
4.423999e-01 6.333631e-01 4.063645e-01 5.756483e-01 3.512397e-01 5.019601e-01 2.684713e-01 4.079075e-01 1.514281e-01 2.919703e-01 -1.579643e-03 1.583903e-01 -1.821675e-01 2.015676e-02 -3.665282e-01 -1.001479e-01 -5.162717e-01 -1.756642e-01 -5.935311e-01 -1.887071e-01 -5.806792e-01 -1.351099e-01 -4.881770e-01 -2.869301e-02 -3.427281e-01 1.021326e-01 -1.773650e-01 2.205275e-01 -2.899175e-02 2.896714e-01 6.626172e-02 2.910683e-01 1.031022e-01 2.515381e-01 1.605257e-01 2.202078e-01 2.432077e-01 2.305446e-01 3.573427e-01 2.592958e-01 5.053968e-01 2.560085e-01 6.902476e-01 1.789505e-01 9.272165e-01 5.073876e-02 1.241257e+00 1.748213e-02 1.552656e+00 1.854947e-01 1.289734e+00 4.666288e-01 9.644219e-01 6.623338e-01 7.402841e-01 7.509468e-01 6.091291e-01 7.690033e-01 5.365642e-01 7.518184e-01 4.957926e-01 7.196426e-01 4.687214e-01 6.801285e-01 