# vtk DataFile Version 2.0
Comment goes here
ASCII

DATASET STRUCTURED_POINTS
DIMENSIONS    64   64   1

ORIGIN    0.000   0.000   0.000
SPACING   0.0156250.015625   1.000

POINT_DATA   4096
SCALARS P double
LOOKUP_TABLE default

-2.757899e-01 -2.525889e-01 -3.507782e-01 -3.431552e-01 -4.241516e-01 -4.303346e-01 -4.900873e-01 -5.087157e-01 -5.399167e-01 -5.702855e-01 -5.618934e-01 -6.035508e-01 -5.423534e-01 -5.936946e-01 -4.697217e-01 -5.265885e-01 -3.423348e-01 -4.006787e-01 -1.775858e-01 -2.419890e-01 -1.319646e-02 -9.046699e-02 1.204354e-01 3.062176e-02 2.140334e-01 1.162554e-01 2.719013e-01 1.716804e-01 3.027844e-01 2.056472e-01 3.150254e-01 2.267210e-01 3.149915e-01 2.416300e-01 3.070411e-01 2.546889e-01 2.940050e-01 2.678561e-01 2.776545e-01 2.811407e-01 2.589593e-01 2.931091e-01 2.381898e-01 3.013951e-01 2.150322e-01 3.032214e-01 1.887992e-01 2.959232e-01 1.586822e-01 2.774185e-01 1.239436e-01 2.465263e-01 8.399635e-02 2.030614e-01 3.840800e-02 1.477090e-01 -1.310357e-02 8.176842e-02 -7.064410e-02 6.885452e-03 -1.340680e-01 -7.513013e-02 -2.028374e-01 -1.623461e-01 
-2.707995e-01 -2.474302e-01 -3.289682e-01 -3.211531e-01 -3.830122e-01 -3.891323e-01 -4.270453e-01 -4.456760e-01 -4.530206e-01 -4.831831e-01 -4.511571e-01 -4.923065e-01 -4.118200e-01 -4.634894e-01 -3.296675e-01 -3.910335e-01 -2.095726e-01 -2.796028e-01 -6.993445e-02 -1.480242e-01 6.419579e-02 -2.129240e-02 1.736875e-01 8.311389e-02 2.518088e-01 1.592210e-01 3.004850e-01 2.091586e-01 3.251285e-01 2.386855e-01 3.315049e-01 2.542050e-01 3.245080e-01 2.612542e-01 3.079847e-01 2.638958e-01 2.849527e-01 2.645930e-01 2.577973e-01 2.643220e-01 2.283057e-01 2.627993e-01 1.976178e-01 2.588007e-01 1.662354e-01 2.505618e-01 1.341370e-01 2.362058e-01 1.009438e-01 2.141211e-01 6.606315e-02 1.832259e-01 2.879160e-02 1.430902e-01 -1.159241e-02 9.392512e-02 -5.571713e-02 3.648358e-02 -1.039837e-01 -2.806311e-02 -1.564132e-01 -9.820815e-02 -2.124646e-01 -1.721025e-01 
-1.856594e-01 -1.675842e-01 -2.459659e-01 -2.436633e-01 -3.018888e-01 -3.138823e-01 -3.484804e-01 -3.733733e-01 -3.792705e-01 -4.158462e-01 -3.866240e-01 -4.336374e-01 -3.630416e-01 -4.187497e-01 -3.038315e-01 -3.658608e-01 -2.109243e-01 -2.775378e-01 -9.587447e-02 -1.680154e-01 2.197146e-02 -5.727047e-02 1.255042e-01 4.003033e-02 2.062980e-01 1.177081e-01 2.635076e-01 1.760297e-01 3.002903e-01 2.186035e-01 3.209922e-01 2.500050e-01 3.296818e-01 2.743415e-01 3.296236e-01 2.945249e-01 3.232225e-01 3.120387e-01 3.121288e-01 3.270318e-01 2.973490e-01 3.385906e-01 2.793386e-01 3.450973e-01 2.581108e-01 3.446246e-01 2.333801e-01 3.353254e-01 2.047193e-01 3.157715e-01 1.716950e-01 2.851908e-01 1.339598e-01 2.435635e-01 9.131089e-02 1.915792e-01 4.373669e-02 1.304969e-01 -8.530725e-03 6.197787e-02 -6.494090e-02 -1.204106e-02 -1.245115e-01 -8.938767e-02 
-1.710145e-01 -1.542758e-01 -2.177021e-01 -2.169154e-01 -2.585795e-01 -2.723050e-01 -2.889795e-01 -3.157951e-01 -3.032574e-01 -3.419201e-01 -2.954419e-01 -3.448934e-01 -2.606855e-01 -3.199048e-01 -1.975811e-01 -2.654173e-01 -1.106116e-01 -1.857907e-01 -1.072577e-02 -9.193823e-02 8.803554e-02 2.384330e-03 1.739822e-01 8.622664e-02 2.410292e-01 1.540712e-01 2.880911e-01 2.051870e-01 3.170076e-01 2.417378e-01 3.307717e-01 2.670501e-01 3.325132e-01 2.844478e-01 3.250688e-01 2.965936e-01 3.108598e-01 3.051932e-01 2.918678e-01 3.109393e-01 2.696074e-01 3.136166e-01 2.451005e-01 3.123202e-01 2.188878e-01 3.057484e-01 1.910947e-01 2.925206e-01 1.615341e-01 2.714681e-01 1.298212e-01 2.418554e-01 9.549091e-02 2.035050e-01 5.811780e-02 1.568224e-01 1.743870e-02 1.027445e-01 -2.652498e-02 4.265439e-02 -7.334548e-02 -2.169074e-02 -1.220588e-01 -8.817682e-02 
-9.718032e-02 -8.543198e-02 -1.461880e-01 -1.506260e-01 -1.894737e-01 -2.086396e-01 -2.230879e-01 -2.554473e-01 -2.424030e-01 -2.864288e-01 -2.425950e-01 -2.967078e-01 -2.196547e-01 -2.821033e-01 -1.719667e-01 -2.408977e-01 -1.020641e-01 -1.760068e-01 -1.747437e-02 -9.579448e-02 7.081162e-02 -1.132643e-02 1.524941e-01 6.813591e-02 2.210858e-01 1.373161e-01 2.742161e-01 1.946859e-01 3.123629e-01 2.411796e-01 3.374202e-01 2.788598e-01 3.516924e-01 3.099055e-01 3.573462e-01 3.359781e-01 3.561744e-01 3.579155e-01 3.495273e-01 3.756845e-01 3.383192e-01 3.885138e-01 3.230727e-01 3.951392e-01 3.039901e-01 3.941025e-01 2.810460e-01 3.840561e-01 2.540889e-01 3.640267e-01 2.229387e-01 3.336019e-01 1.874745e-01 2.930137e-01 1.477106e-01 2.431180e-01 1.038639e-01 1.852973e-01 5.641790e-02 1.213343e-01 6.188895e-03 5.330393e-02 -4.559279e-02 -1.647777e-02 
-7.418037e-02 -6.519224e-02 -1.127780e-01 -1.204045e-01 -1.450302e-01 -1.677498e-01 -1.673499e-01 -2.035797e-01 -1.758475e-01 -2.240685e-01 -1.669082e-01 -2.256867e-01 -1.381515e-01 -2.060744e-01 -8.965210e-02 -1.652390e-01 -2.492974e-02 -1.065828e-01 4.914919e-02 -3.681026e-02 1.241152e-01 3.590988e-02 1.924495e-01 1.045220e-01 2.493179e-01 1.646292e-01 2.927339e-01 2.145887e-01 3.228007e-01 2.547662e-01 3.408091e-01 2.866058e-01 3.485596e-01 3.118496e-01 3.479561e-01 3.319969e-01 3.407868e-01 3.479916e-01 3.286045e-01 3.600994e-01 3.126495e-01 3.679386e-01 2.938038e-01 3.706274e-01 2.725819e-01 3.670121e-01 2.491617e-01 3.559305e-01 2.234532e-01 3.364657e-01 1.951982e-01 3.081458e-01 1.640923e-01 2.710612e-01 1.299168e-01 2.258878e-01 9.266583e-02 1.738348e-01 5.265490e-02 1.165520e-01 1.060996e-02 5.603984e-02 -3.225731e-02 -5.404604e-03 
-1.186193e-02 -7.552043e-03 -5.257015e-02 -6.515318e-02 -8.705073e-02 -1.148886e-01 -1.122310e-01 -1.535683e-01 -1.248487e-01 -1.779027e-01 -1.218773e-01 -1.848479e-01 -1.012145e-01 -1.722677e-01 -6.256362e-02 -1.398805e-01 -8.213351e-03 -9.013785e-02 5.681126e-02 -2.827747e-02 1.257245e-01 3.904191e-02 1.919088e-01 1.057852e-01 2.505149e-01 1.678344e-01 2.989438e-01 2.231933e-01 3.364732e-01 2.715050e-01 3.635882e-01 3.133474e-01 3.813775e-01 3.495846e-01 3.911114e-01 3.808858e-01 3.939904e-01 4.074426e-01 3.910166e-01 4.288744e-01 3.829444e-01 4.442925e-01 3.702817e-01 4.524812e-01 3.533246e-01 4.521480e-01 3.322113e-01 4.421903e-01 3.069849e-01 4.219292e-01 2.776636e-01 3.912672e-01 2.443160e-01 3.507469e-01 2.071383e-01 3.015121e-01 1.665286e-01 2.452011e-01 1.231510e-01 1.838127e-01 7.798972e-02 1.195894e-01 3.239693e-02 5.494516e-02 
1.882914e-02 1.888345e-02 -1.456162e-02 -3.207008e-02 -4.166432e-02 -7.492622e-02 -5.971611e-02 -1.068638e-01 -6.600951e-02 -1.252218e-01 -5.832445e-02 -1.278507e-01 -3.551922e-02 -1.136390e-01 1.843117e-03 -8.310972e-02 5.111187e-02 -3.879971e-02 1.077628e-01 1.495979e-02 1.663465e-01 7.301293e-02 2.217824e-01 1.306585e-01 2.703312e-01 1.845428e-01 3.098873e-01 2.328894e-01 3.397548e-01 2.752297e-01 3.602249e-01 3.119180e-01 3.721754e-01 3.436381e-01 3.767681e-01 3.710011e-01 3.752395e-01 3.942719e-01 3.687552e-01 4.132311e-01 3.583049e-01 4.271668e-01 3.446295e-01 4.349853e-01 3.281810e-01 4.354152e-01 3.091236e-01 4.272678e-01 2.873801e-01 4.097006e-01 2.627258e-01 3.824247e-01 2.349221e-01 3.458115e-01 2.038631e-01 3.008856e-01 1.697082e-01 2.492276e-01 1.329768e-01 1.928344e-01 9.460263e-02 1.339838e-01 5.595338e-02 7.513625e-02 
6.946918e-02 6.506056e-02 3.451524e-02 1.220164e-02 5.873911e-03 -3.235622e-02 -1.406226e-02 -6.614321e-02 -2.297414e-02 -8.685490e-02 -1.894144e-02 -9.261346e-02 -8.833325e-04 -8.237599e-02 3.096411e-02 -5.641633e-02 7.471154e-02 -1.666588e-02 1.268652e-01 3.340099e-02 1.829200e-01 8.949299e-02 2.383444e-01 1.475166e-01 2.894544e-01 2.043239e-01 3.338165e-01 2.579605e-01 3.702044e-01 3.075068e-01 3.983164e-01 3.527135e-01 4.184451e-01 3.935949e-01 4.311925e-01 4.300799e-01 4.372630e-01 4.617747e-01 4.373298e-01 4.878616e-01 4.319644e-01 5.071369e-01 4.216134e-01 5.181744e-01 4.066073e-01 5.195774e-01 3.871855e-01 5.102626e-01 3.635302e-01 4.897097e-01 3.358108e-01 4.581116e-01 3.042432e-01 4.163955e-01 2.691637e-01 3.661265e-01 2.311046e-01 3.093397e-01 1.908571e-01 2.483594e-01 1.495113e-01 1.856482e-01 1.084742e-01 1.237122e-01 
1.077168e-01 9.733581e-02 7.710679e-02 4.795903e-02 5.249402e-02 6.857101e-03 3.607153e-02 -2.379798e-02 2.979384e-02 -4.215877e-02 3.507967e-02 -4.692419e-02 5.246359e-02 -3.763118e-02 8.128328e-02 -1.493392e-02 1.195476e-01 1.927889e-02 1.641307e-01 6.208395e-02 2.113137e-01 1.100648e-01 2.574880e-01 1.599915e-01 2.997263e-01 2.093390e-01 3.360473e-01 2.564887e-01 3.653984e-01 3.006413e-01 3.874858e-01 3.415608e-01 4.025640e-01 3.792614e-01 4.112428e-01 4.137134e-01 4.143241e-01 4.446118e-01 4.126648e-01 4.712350e-01 4.070566e-01 4.924144e-01 3.981243e-01 5.066287e-01 3.862502e-01 5.122249e-01 3.715389e-01 5.077317e-01 3.538449e-01 4.921948e-01 3.328723e-01 4.654349e-01 3.083353e-01 4.281469e-01 2.801405e-01 3.818266e-01 2.485355e-01 3.285755e-01 2.141912e-01 2.708653e-01 1.782152e-01 2.113305e-01 1.421123e-01 1.526237e-01 
1.463940e-01 1.315894e-01 1.150588e-01 8.107852e-02 8.996510e-02 3.931271e-02 7.302089e-02 8.163340e-03 6.592481e-02 -1.078906e-02 6.993346e-02 -1.642075e-02 8.558897e-02 -8.295386e-03 1.124644e-01 1.310304e-02 1.490262e-01 4.625239e-02 1.927241e-01 8.872073e-02 2.403545e-01 1.375763e-01 2.886054e-01 1.899298e-01 3.345656e-01 2.433706e-01 3.760278e-01 2.961625e-01 4.115593e-01 3.472033e-01 4.404135e-01 3.958266e-01 4.623672e-01 4.415341e-01 4.775450e-01 4.837289e-01 4.862635e-01 5.215074e-01 4.889131e-01 5.535525e-01 4.858851e-01 5.781650e-01 4.775415e-01 5.934442e-01 4.642129e-01 5.975999e-01 4.462068e-01 5.893267e-01 4.238142e-01 5.681333e-01 3.973228e-01 5.345150e-01 3.670572e-01 4.899153e-01 3.334488e-01 4.365136e-01 2.971204e-01 3.769334e-01 2.589513e-01 3.139671e-01 2.201067e-01 2.503746e-01 1.820281e-01 1.887714e-01 
1.924862e-01 1.696082e-01 1.625698e-01 1.195575e-01 1.383533e-01 7.812076e-02 1.216710e-01 4.694868e-02 1.140192e-01 2.729712e-02 1.163659e-01 1.991380e-02 1.289560e-01 2.489763e-02 1.511658e-01 4.158518e-02 1.814754e-01 6.854074e-02 2.176205e-01 1.037131e-01 2.569166e-01 1.447534e-01 2.966631e-01 1.893944e-01 3.344928e-01 2.357532e-01 3.685793e-01 2.824711e-01 3.976976e-01 3.286867e-01 4.211871e-01 3.738890e-01 4.388690e-01 4.177064e-01 4.509485e-01 4.596798e-01 4.579088e-01 4.990518e-01 4.603942e-01 5.346066e-01 4.590798e-01 5.646050e-01 4.545352e-01 5.868650e-01 4.470969e-01 5.990326e-01 4.367835e-01 5.990254e-01 4.232951e-01 5.855412e-01 4.061301e-01 5.584437e-01 3.848098e-01 5.188605e-01 3.591355e-01 4.689798e-01 3.293791e-01 4.116689e-01 2.963521e-01 3.500752e-01 2.613614e-01 2.873158e-01 2.260956e-01 2.262918e-01 
2.186965e-01 1.911885e-01 1.891618e-01 1.410644e-01 1.658064e-01 1.003017e-01 1.502205e-01 7.025673e-02 1.437122e-01 5.195233e-02 1.471492e-01 4.599207e-02 1.607940e-01 5.244360e-02 1.841719e-01 7.073557e-02 2.160213e-01 9.963196e-02 2.543778e-01 1.373395e-01 2.968018e-01 1.817521e-01 3.407003e-01 2.307588e-01 3.836432e-01 2.825041e-01 4.235913e-01 3.355246e-01 4.590073e-01 3.887434e-01 4.888678e-01 4.413464e-01 5.126055e-01 4.925794e-01 5.300094e-01 5.415109e-01 5.411070e-01 5.868111e-01 5.460572e-01 6.266116e-01 5.450810e-01 6.585167e-01 5.384405e-01 6.798251e-01 5.264485e-01 6.879723e-01 5.094728e-01 6.811079e-01 4.879129e-01 6.586193e-01 4.621641e-01 6.213767e-01 4.326234e-01 5.715882e-01 3.997666e-01 5.123656e-01 3.642595e-01 4.472057e-01 3.270423e-01 3.795629e-01 2.893508e-01 3.125873e-01 2.526781e-01 2.490191e-01 
2.732388e-01 2.349898e-01 2.421340e-01 1.823970e-01 2.165782e-01 1.390573e-01 1.982047e-01 1.061595e-01 1.882397e-01 8.448172e-02 1.873964e-01 7.436226e-02 1.957818e-01 7.565425e-02 2.128427e-01 8.770012e-02 2.373850e-01 1.093660e-01 2.676880e-01 1.391615e-01 3.017054e-01 1.754347e-01 3.373036e-01 2.165893e-01 3.724796e-01 2.612571e-01 4.055140e-01 3.083790e-01 4.350571e-01 3.571876e-01 4.601685e-01 4.071073e-01 4.803298e-01 4.576000e-01 4.954354e-01 5.079711e-01 5.057483e-01 5.571502e-01 5.118094e-01 6.034722e-01 5.142945e-01 6.445257e-01 5.138270e-01 6.771825e-01 5.107713e-01 6.979362e-01 5.050595e-01 7.035906e-01 4.961335e-01 6.921331e-01 4.830906e-01 6.634068e-01 4.650385e-01 6.192129e-01 4.415153e-01 5.628398e-01 4.127671e-01 4.983298e-01 3.797912e-01 4.298076e-01 3.441935e-01 3.610388e-01 3.079618e-01 2.952285e-01 
2.862155e-01 2.428125e-01 2.568755e-01 1.915346e-01 2.337683e-01 1.505015e-01 2.182976e-01 1.205855e-01 2.115389e-01 1.023379e-01 2.141364e-01 9.596218e-02 2.262108e-01 1.012650e-01 2.472939e-01 1.176187e-01 2.763186e-01 1.439718e-01 3.116847e-01 1.789322e-01 3.514031e-01 2.209204e-01 3.932930e-01 2.683542e-01 4.351888e-01 3.198091e-01 4.751199e-01 3.741116e-01 5.114421e-01 4.303412e-01 5.429163e-01 4.877388e-01 5.687268e-01 5.455239e-01 5.884332e-01 6.026357e-01 6.018641e-01 6.574401e-01 6.089967e-01 7.074857e-01 6.098833e-01 7.494382e-01 6.046584e-01 7.793366e-01 5.935987e-01 7.932556e-01 5.771548e-01 7.882819e-01 5.558836e-01 7.634603e-01 5.303115e-01 7.202173e-01 5.008701e-01 6.619999e-01 4.680020e-01 5.933974e-01 4.323507e-01 5.192162e-01 3.948952e-01 4.438252e-01 3.569656e-01 3.708483e-01 3.201599e-01 3.031246e-01 
3.500134e-01 2.924360e-01 3.159192e-01 2.358103e-01 2.874926e-01 1.894631e-01 2.662679e-01 1.541098e-01 2.533065e-01 1.300807e-01 2.491623e-01 1.173533e-01 2.538623e-01 1.155652e-01 2.669103e-01 1.240358e-01 2.873292e-01 1.418189e-01 3.137489e-01 1.677978e-01 3.445292e-01 2.008090e-01 3.778972e-01 2.397656e-01 4.120716e-01 2.837448e-01 4.453651e-01 3.320163e-01 4.762724e-01 3.840117e-01 5.035632e-01 4.392459e-01 5.263849e-01 4.971995e-01 5.443527e-01 5.571477e-01 5.575851e-01 6.179081e-01 5.666444e-01 6.774988e-01 5.723748e-01 7.327865e-01 5.756414e-01 7.793400e-01 5.769968e-01 8.118020e-01 5.763409e-01 8.249947e-01 5.727262e-01 8.155476e-01 5.645252e-01 7.832197e-01 5.500512e-01 7.309968e-01 5.283371e-01 6.640302e-01 4.995786e-01 5.882152e-01 4.651001e-01 5.090840e-01 4.270158e-01 4.312290e-01 3.878148e-01 3.581649e-01 
3.487332e-01 2.850799e-01 3.180946e-01 2.315572e-01 2.939359e-01 1.894677e-01 2.775734e-01 1.591787e-01 2.699510e-01 1.407985e-01 2.715858e-01 1.341829e-01 2.825251e-01 1.389196e-01 3.023230e-01 1.543196e-01 3.300469e-01 1.794386e-01 3.643239e-01 2.131400e-01 4.034262e-01 2.541953e-01 4.453878e-01 3.014010e-01 4.881403e-01 3.536833e-01 5.296603e-01 4.101657e-01 5.681262e-01 4.701821e-01 6.020666e-01 5.332101e-01 6.304613e-01 5.986932e-01 6.527351e-01 6.657220e-01 6.686233e-01 7.325855e-01 6.779780e-01 7.962960e-01 6.806568e-01 8.523040e-01 6.765881e-01 8.947075e-01 6.659654e-01 9.172314e-01 6.493853e-01 9.149580e-01 6.277139e-01 8.861932e-01 6.017063e-01 8.333241e-01 5.717664e-01 7.619585e-01 5.381501e-01 6.791175e-01 5.013628e-01 5.915766e-01 4.624033e-01 5.049115e-01 4.227581e-01 4.232342e-01 3.842316e-01 3.493511e-01 
4.226345e-01 3.404112e-01 3.837318e-01 2.787020e-01 3.510083e-01 2.287215e-01 3.259424e-01 1.906340e-01 3.094638e-01 1.642919e-01 3.019907e-01 1.493025e-01 3.034702e-01 1.450713e-01 3.134257e-01 1.508463e-01 3.310161e-01 1.657811e-01 3.551045e-01 1.890155e-01 3.843293e-01 2.197605e-01 4.171633e-01 2.573629e-01 4.519567e-01 3.013282e-01 4.869765e-01 3.512955e-01 5.204767e-01 4.069789e-01 5.508356e-01 4.680999e-01 5.767698e-01 5.343201e-01 5.975695e-01 6.051238e-01 6.132521e-01 6.795426e-01 6.245486e-01 7.556119e-01 6.327134e-01 8.296038e-01 6.391691e-01 8.953923e-01 6.449808e-01 9.446503e-01 6.502072e-01 9.685962e-01 6.533601e-01 9.612072e-01 6.515013e-01 9.221079e-01 6.414162e-01 8.565769e-01 6.212275e-01 7.730767e-01 5.911314e-01 6.804675e-01 5.531127e-01 5.862466e-01 5.101864e-01 4.959438e-01 4.656610e-01 4.132460e-01 
4.058791e-01 3.161715e-01 3.724717e-01 2.598511e-01 3.460597e-01 2.164310e-01 3.279360e-01 1.857152e-01 3.189690e-01 1.673647e-01 3.195946e-01 1.609067e-01 3.298151e-01 1.657237e-01 3.492050e-01 1.810492e-01 3.769261e-01 2.059887e-01 4.117538e-01 2.395680e-01 4.521137e-01 2.808024e-01 4.961294e-01 3.287739e-01 5.416932e-01 3.827024e-01 5.865841e-01 4.420063e-01 6.286611e-01 5.063450e-01 6.661209e-01 5.756080e-01 6.977375e-01 6.497730e-01 7.229237e-01 7.285171e-01 7.415008e-01 8.105125e-01 7.532912e-01 8.925041e-01 7.578769e-01 9.684985e-01 7.547654e-01 1.029652e+00 7.439139e-01 1.065592e+00 7.261932e-01 1.067537e+00 7.031774e-01 1.032228e+00 6.761306e-01 9.639305e-01 6.452759e-01 8.722703e-01 6.103270e-01 7.683876e-01 5.714211e-01 6.619786e-01 5.295724e-01 5.600652e-01 4.865646e-01 4.670554e-01 4.445880e-01 3.853757e-01 
4.905370e-01 3.767584e-01 4.449323e-01 3.095036e-01 4.065559e-01 2.558249e-01 3.767995e-01 2.152100e-01 3.564258e-01 1.869685e-01 3.456803e-01 1.702996e-01 3.443880e-01 1.643363e-01 3.520385e-01 1.681978e-01 3.678623e-01 1.810623e-01 3.908923e-01 2.022489e-01 4.199949e-01 2.312881e-01 4.538568e-01 2.679489e-01 4.909323e-01 3.122027e-01 5.293843e-01 3.641269e-01 5.670951e-01 4.237892e-01 6.018382e-01 4.911827e-01 6.316549e-01 5.662550e-01 6.553428e-01 6.489609e-01 6.728168e-01 7.390739e-01 6.851504e-01 8.353990e-01 6.943489e-01 9.342289e-01 7.028984e-01 1.027526e+00 7.130123e-01 1.102232e+00 7.254471e-01 1.142755e+00 7.380992e-01 1.137569e+00 7.455901e-01 1.086220e+00 7.416152e-01 9.988005e-01 7.226899e-01 8.898986e-01 6.893092e-01 7.730904e-01 6.448616e-01 6.584144e-01 5.939674e-01 5.521752e-01 5.412216e-01 4.577845e-01 
4.570254e-01 3.337841e-01 4.193334e-01 2.748026e-01 3.895081e-01 2.303553e-01 3.688420e-01 1.996157e-01 3.581391e-01 1.817924e-01 3.577602e-01 1.761004e-01 3.676624e-01 1.817253e-01 3.874301e-01 1.978077e-01 4.162986e-01 2.234600e-01 4.531617e-01 2.578081e-01 4.965593e-01 3.000443e-01 5.446451e-01 3.494761e-01 5.951666e-01 4.055693e-01 6.455251e-01 4.680064e-01 6.930090e-01 5.367864e-01 7.352434e-01 6.123488e-01 7.707249e-01 6.955817e-01 7.990680e-01 7.874359e-01 8.205695e-01 8.878733e-01 8.352479e-01 9.941676e-01 8.422279e-01 1.098976e+00 8.400558e-01 1.189168e+00 8.279719e-01 1.247139e+00 8.073334e-01 1.256315e+00 7.814639e-01 1.209927e+00 7.529233e-01 1.116355e+00 7.212832e-01 9.931584e-01 6.848235e-01 8.585705e-01 6.428666e-01 7.264162e-01 5.965208e-01 6.050595e-01 5.481876e-01 4.985282e-01 5.007618e-01 4.081342e-01 
5.525340e-01 3.986252e-01 4.982792e-01 3.261897e-01 4.530056e-01 2.694447e-01 4.178932e-01 2.270643e-01 3.934300e-01 1.977546e-01 3.795990e-01 1.802674e-01 3.760230e-01 1.734157e-01 3.820862e-01 1.761231e-01 3.970352e-01 1.875147e-01 4.200483e-01 2.070263e-01 4.502411e-01 2.344906e-01 4.865802e-01 2.701483e-01 5.276967e-01 3.145475e-01 5.716524e-01 3.683307e-01 6.157945e-01 4.319898e-01 6.569129e-01 5.057524e-01 6.918720e-01 5.897839e-01 7.185938e-01 6.846760e-01 7.368277e-01 7.917112e-01 7.481979e-01 9.119920e-01 7.558948e-01 1.043633e+00 7.642050e-01 1.177357e+00 7.776660e-01 1.292873e+00 7.991496e-01 1.361201e+00 8.263977e-01 1.358374e+00 8.493045e-01 1.284458e+00 8.547858e-01 1.160490e+00 8.366242e-01 1.012689e+00 7.966992e-01 8.618421e-01 7.414299e-01 7.206711e-01 6.782488e-01 5.953659e-01 6.136475e-01 4.880286e-01 
5.011490e-01 3.351839e-01 4.575784e-01 2.745663e-01 4.232128e-01 2.300513e-01 3.993090e-01 2.001601e-01 3.865683e-01 1.836853e-01 3.852448e-01 1.795722e-01 3.952248e-01 1.868299e-01 4.160853e-01 2.044948e-01 4.471311e-01 2.316492e-01 4.873941e-01 2.674732e-01 5.355692e-01 3.112977e-01 5.898733e-01 3.626259e-01 6.478639e-01 4.211269e-01 7.063468e-01 4.866606e-01 7.616018e-01 5.594491e-01 8.101462e-01 6.404660e-01 8.499359e-01 7.318750e-01 8.811953e-01 8.369234e-01 9.056268e-01 9.585357e-01 9.240371e-01 1.096425e+00 9.347593e-01 1.243054e+00 9.340904e-01 1.379675e+00 9.191241e-01 1.475927e+00 8.918800e-01 1.498701e+00 8.602289e-01 1.432465e+00 8.303402e-01 1.295812e+00 7.995100e-01 1.122824e+00 7.622819e-01 9.438872e-01 7.163960e-01 7.779329e-01 6.634825e-01 6.334657e-01 6.072925e-01 5.124548e-01 5.519770e-01 4.137513e-01 
6.065081e-01 4.025160e-01 5.417478e-01 3.263983e-01 4.885876e-01 2.680654e-01 4.477563e-01 2.253071e-01 4.192902e-01 1.962218e-01 4.027737e-01 1.791068e-01 3.975139e-01 1.724105e-01 4.026928e-01 1.747750e-01 4.175094e-01 1.851683e-01 4.412873e-01 2.030641e-01 4.734877e-01 2.285964e-01 5.135568e-01 2.625948e-01 5.605558e-01 3.064149e-01 6.126101e-01 3.615276e-01 6.663875e-01 4.289694e-01 7.170608e-01 5.089918e-01 7.593119e-01 6.014602e-01 7.893783e-01 7.072969e-01 8.067554e-01 8.301262e-01 8.138919e-01 9.761290e-01 8.156041e-01 1.149628e+00 8.188049e-01 1.343713e+00 8.322789e-01 1.528544e+00 8.645490e-01 1.648114e+00 9.160457e-01 1.647122e+00 9.671749e-01 1.529378e+00 9.882693e-01 1.342705e+00 9.691511e-01 1.135512e+00 9.166017e-01 9.383327e-01 8.435195e-01 7.649426e-01 7.620202e-01 6.189077e-01 6.810747e-01 4.990329e-01 
5.366348e-01 3.174367e-01 4.855515e-01 2.572870e-01 4.456094e-01 2.143583e-01 4.179100e-01 1.866312e-01 4.029590e-01 1.726138e-01 4.008353e-01 1.710794e-01 4.113035e-01 1.809028e-01 4.339018e-01 2.010033e-01 4.680101e-01 2.303853e-01 5.128680e-01 2.682371e-01 5.674754e-01 3.140172e-01 6.303080e-01 3.674482e-01 6.988466e-01 4.283985e-01 7.691002e-01 4.967565e-01 8.355958e-01 5.725910e-01 8.925453e-01 6.569651e-01 9.365087e-01 7.533868e-01 9.690565e-01 8.687457e-01 9.956033e-01 1.011754e+00 1.019269e+00 1.188566e+00 1.037118e+00 1.395390e+00 1.040340e+00 1.608256e+00 1.019768e+00 1.775190e+00 9.772641e-01 1.826296e+00 9.330009e-01 1.720965e+00 9.041145e-01 1.506905e+00 8.795632e-01 1.253977e+00 8.441830e-01 1.012315e+00 7.933229e-01 8.047287e-01 7.307557e-01 6.358357e-01 6.631867e-01 5.020630e-01 5.969028e-01 3.976823e-01 
6.490365e-01 3.845874e-01 5.723548e-01 3.077087e-01 5.108402e-01 2.502044e-01 4.644226e-01 2.090983e-01 4.324657e-01 1.820055e-01 4.139956e-01 1.668287e-01 4.078603e-01 1.616154e-01 4.129031e-01 1.645995e-01 4.281723e-01 1.744155e-01 4.531284e-01 1.904272e-01 4.877410e-01 2.130466e-01 5.323224e-01 2.438828e-01 5.869415e-01 2.855373e-01 6.503428e-01 3.408897e-01 7.185797e-01 4.118919e-01 7.842096e-01 4.984116e-01 8.376496e-01 5.985211e-01 8.716725e-01 7.117377e-01 8.857310e-01 8.440746e-01 8.835997e-01 1.011136e+00 8.719139e-01 1.232788e+00 8.603808e-01 1.516179e+00 8.641968e-01 1.825209e+00 9.056060e-01 2.050194e+00 1.000070e+00 2.046439e+00 1.108806e+00 1.836890e+00 1.155917e+00 1.539607e+00 1.129674e+00 1.243343e+00 1.052454e+00 9.869993e-01 9.503544e-01 7.786972e-01 8.423959e-01 6.138616e-01 7.399621e-01 4.848285e-01 
5.610002e-01 2.779190e-01 5.009011e-01 2.214768e-01 4.545889e-01 1.823971e-01 4.227859e-01 1.584772e-01 4.056603e-01 1.482229e-01 4.030204e-01 1.504133e-01 4.144323e-01 1.638537e-01 4.393329e-01 1.873101e-01 4.771636e-01 2.196141e-01 5.274750e-01 2.598823e-01 5.898653e-01 3.077173e-01 6.635569e-01 3.632026e-01 7.464603e-01 4.265633e-01 8.338390e-01 4.975979e-01 9.173454e-01 5.754444e-01 9.862488e-01 6.598101e-01 1.033017e+00 7.545510e-01 1.061620e+00 8.716134e-01 1.087162e+00 1.029708e+00 1.118693e+00 1.248697e+00 1.151709e+00 1.538715e+00 1.166685e+00 1.878403e+00 1.136846e+00 2.184169e+00 1.056967e+00 2.302409e+00 9.815358e-01 2.109000e+00 9.643133e-01 1.747583e+00 9.617294e-01 1.365680e+00 9.340520e-01 1.040032e+00 8.759278e-01 7.876920e-01 7.984053e-01 5.991927e-01 7.143290e-01 4.593571e-01 6.332312e-01 3.552813e-01 
6.750423e-01 3.413344e-01 5.860717e-01 2.681255e-01 5.166414e-01 2.147163e-01 4.655069e-01 1.778255e-01 4.311683e-01 1.549166e-01 4.119549e-01 1.436568e-01 4.060960e-01 1.416611e-01 4.118919e-01 1.465434e-01 4.280354e-01 1.562795e-01 4.540295e-01 1.698077e-01 4.905264e-01 1.876826e-01 5.393108e-01 2.125239e-01 6.025803e-01 2.489399e-01 6.811255e-01 3.024863e-01 7.712600e-01 3.772418e-01 8.616103e-01 4.724146e-01 9.337835e-01 5.809655e-01 9.726013e-01 6.957460e-01 9.796048e-01 8.217915e-01 9.611367e-01 9.892551e-01 9.252070e-01 1.250386e+00 8.816761e-01 1.656867e+00 8.505764e-01 2.196876e+00 8.824198e-01 2.669226e+00 1.056623e+00 2.638179e+00 1.298866e+00 2.219104e+00 1.384970e+00 1.724431e+00 1.331177e+00 1.302563e+00 1.205374e+00 9.810678e-01 1.057217e+00 7.441459e-01 9.129925e-01 5.694667e-01 7.842471e-01 4.392187e-01 
5.705642e-01 2.151923e-01 5.004685e-01 1.665492e-01 4.475028e-01 1.338663e-01 4.117041e-01 1.154593e-01 3.927547e-01 1.103013e-01 3.901032e-01 1.174443e-01 4.030185e-01 1.357006e-01 4.307090e-01 1.635817e-01 4.725746e-01 1.995276e-01 5.285389e-01 2.423846e-01 5.992278e-01 2.919158e-01 6.855644e-01 3.489318e-01 7.872652e-01 4.146349e-01 8.998858e-01 4.890489e-01 1.011083e+00 5.692505e-01 1.099703e+00 6.500782e-01 1.145811e+00 7.317212e-01 1.155900e+00 8.321658e-01 1.171528e+00 9.852455e-01 1.214811e+00 1.235045e+00 1.280758e+00 1.627152e+00 1.330989e+00 2.173507e+00 1.292229e+00 2.766994e+00 1.115050e+00 3.071812e+00 9.510517e-01 2.643860e+00 9.891969e-01 1.988469e+00 1.050718e+00 1.404964e+00 1.039986e+00 9.825838e-01 9.674394e-01 6.983573e-01 8.652014e-01 5.078876e-01 7.572931e-01 3.766155e-01 6.570068e-01 2.830754e-01 
6.777234e-01 2.707752e-01 5.779805e-01 2.067577e-01 5.024000e-01 1.611333e-01 4.483710e-01 1.312405e-01 4.135053e-01 1.149783e-01 3.954011e-01 1.100584e-01 3.915137e-01 1.136240e-01 3.992851e-01 1.223079e-01 4.166329e-01 1.328228e-01 4.427586e-01 1.430261e-01 4.790138e-01 1.531715e-01 5.293929e-01 1.669991e-01 6.000958e-01 1.922400e-01 6.971425e-01 2.396768e-01 8.204858e-01 3.190568e-01 9.543137e-01 4.304054e-01 1.061170e+00 5.553618e-01 1.104052e+00 6.673387e-01 1.097941e+00 7.566745e-01 1.054339e+00 8.705251e-01 9.817554e-01 1.115636e+00 8.810255e-01 1.650759e+00 7.560901e-01 2.614623e+00 6.892408e-01 3.762557e+00 1.011953e+00 3.585314e+00 1.613980e+00 2.646937e+00 1.727776e+00 1.813783e+00 1.584854e+00 1.245410e+00 1.366711e+00 8.795593e-01 1.150692e+00 6.398333e-01 9.617264e-01 4.754644e-01 8.046128e-01 3.576112e-01 
5.601989e-01 1.301977e-01 4.803226e-01 9.341519e-02 4.212887e-01 6.929964e-02 3.821924e-01 5.772246e-02 3.621866e-01 5.876046e-02 3.603495e-01 7.208821e-02 3.755536e-01 9.659715e-02 4.065323e-01 1.303163e-01 4.523063e-01 1.708092e-01 5.129854e-01 2.161345e-01 5.906220e-01 2.660846e-01 6.893530e-01 3.228782e-01 8.137026e-01 3.903414e-01 9.633764e-01 4.706461e-01 1.123179e+00 5.583451e-01 1.251852e+00 6.360852e-01 1.292014e+00 6.879922e-01 1.243520e+00 7.392461e-01 1.227724e+00 8.429372e-01 1.286585e+00 1.075143e+00 1.419779e+00 1.550978e+00 1.569985e+00 2.400212e+00 1.557356e+00 3.602907e+00 1.114397e+00 4.524721e+00 6.612565e-01 3.350138e+00 9.380237e-01 2.107246e+00 1.168703e+00 1.248623e+00 1.178072e+00 7.647604e-01 1.069711e+00 5.009525e-01 9.256466e-01 3.480311e-01 7.848513e-01 2.499064e-01 6.617514e-01 1.809438e-01 
6.492096e-01 1.740073e-01 5.428716e-01 1.245324e-01 4.644745e-01 8.991598e-02 4.103726e-01 6.945182e-02 3.776253e-01 6.229499e-02 3.632810e-01 6.661852e-02 3.639136e-01 7.904814e-02 3.756189e-01 9.464049e-02 3.947197e-01 1.077657e-01 4.192287e-01 1.139259e-01 4.506790e-01 1.119638e-01 4.957030e-01 1.062518e-01 5.669370e-01 1.086832e-01 6.816952e-01 1.396001e-01 8.536451e-01 2.234708e-01 1.068949e+00 3.701383e-01 1.249229e+00 5.399219e-01 1.283219e+00 6.607541e-01 1.253379e+00 6.658227e-01 1.174572e+00 6.152071e-01 1.058483e+00 6.755318e-01 8.830041e-01 1.182006e+00 5.564356e-01 2.787902e+00 2.712303e-02 6.097295e+00 5.891825e-01 5.201389e+00 2.333506e+00 2.890408e+00 2.261946e+00 1.587906e+00 1.871202e+00 9.547938e-01 1.500265e+00 6.330254e-01 1.201750e+00 4.484594e-01 9.691612e-01 3.275007e-01 7.887115e-01 2.400731e-01 
5.235247e-01 2.740740e-02 4.361457e-01 4.892936e-03 3.728049e-01 -9.866403e-03 3.317637e-01 -1.430834e-02 3.119046e-01 -6.553285e-03 3.121303e-01 1.411917e-02 3.308740e-01 4.677031e-02 3.659668e-01 8.854077e-02 4.152301e-01 1.351335e-01 4.780755e-01 1.825447e-01 5.577968e-01 2.298624e-01 6.634088e-01 2.815211e-01 8.094639e-01 3.472979e-01 1.010035e+00 4.377116e-01 1.258640e+00 5.496104e-01 1.484943e+00 6.408051e-01 1.521823e+00 6.406450e-01 1.297105e+00 5.932982e-01 1.209458e+00 5.709418e-01 1.281622e+00 6.636753e-01 1.529364e+00 1.075998e+00 1.935577e+00 2.212576e+00 2.169010e+00 4.609388e+00 9.850554e-01 7.917799e+00 -5.487276e-01 3.952948e+00 7.786933e-01 1.698626e+00 1.387956e+00 6.381606e-01 1.368802e+00 2.834072e-01 1.172969e+00 1.679204e-01 9.633664e-01 1.187823e-01 7.832386e-01 8.509834e-02 6.378394e-01 5.488589e-02 
5.824601e-01 5.649985e-02 4.764114e-01 2.456736e-02 3.998046e-01 2.402248e-03 3.491292e-01 -7.367593e-03 3.217608e-01 -3.378818e-03 3.147349e-01 1.361567e-02 3.237714e-01 3.975372e-02 3.429074e-01 6.761574e-02 3.653755e-01 8.737170e-02 3.861140e-01 8.988861e-02 4.051692e-01 7.030953e-02 4.308009e-01 3.156043e-02 4.833503e-01 -1.119506e-02 5.999039e-01 -2.336823e-02 8.323452e-01 5.377381e-02 1.207253e+00 2.754273e-01 1.575392e+00 5.644336e-01 1.522082e+00 7.670005e-01 1.455632e+00 6.262689e-01 1.325981e+00 2.344061e-01 1.172822e+00 -2.528454e-01 9.761525e-01 -4.886004e-01 4.174317e-01 1.068875e+00 -1.975066e+00 1.236598e+01 -1.361175e+00 7.947250e+00 4.624194e+00 1.891275e+00 2.927421e+00 5.723122e-01 2.042165e+00 2.907434e-01 1.514331e+00 2.166822e-01 1.162491e+00 1.755903e-01 9.109231e-01 1.356397e-01 7.238339e-01 9.480831e-02 
4.542124e-01 -8.492317e-02 3.642142e-01 -9.447219e-02 2.994234e-01 -1.015932e-01 2.581926e-01 -1.003047e-01 2.399266e-01 -8.631338e-02 2.439298e-01 -5.729883e-02 2.683537e-01 -1.376701e-02 3.095161e-01 4.002030e-02 3.623945e-01 9.611927e-02 4.233307e-01 1.455587e-01 4.948843e-01 1.843073e-01 5.909565e-01 2.188482e-01 7.419990e-01 2.694020e-01 9.964747e-01 3.693026e-01 1.400136e+00 5.437607e-01 1.888219e+00 7.163020e-01 1.996926e+00 6.220768e-01 1.205065e+00 4.159001e-01 1.025872e+00 1.743187e-01 1.088164e+00 -9.375596e-02 1.441222e+00 -1.956067e-01 2.369339e+00 5.772843e-01 3.939408e+00 4.365270e+00 8.146141e-01 1.808334e+01 -5.308895e+00 2.349651e+00 9.181372e-01 -2.976328e-01 1.886874e+00 -8.604757e-01 1.599691e+00 -5.236066e-01 1.227889e+00 -2.742303e-01 9.408064e-01 -1.481870e-01 7.304930e-01 -9.549676e-02 5.734885e-01 -8.117028e-02 