# vtk DataFile Version 2.0
Comment goes here
ASCII

DATASET STRUCTURED_POINTS
DIMENSIONS    64   64   1

ORIGIN    0.000   0.000   0.000
SPACING   0.0156250.015625   1.000

POINT_DATA   4096
SCALARS P double
LOOKUP_TABLE default

4.573738e-01 8.095875e-01 8.825114e-01 1.139700e+00 1.296394e+00 1.478707e+00 1.745576e+00 1.862598e+00 2.261298e+00 2.306198e+00 2.837689e+00 2.778221e+00 3.401418e+00 3.175009e+00 3.798548e+00 3.336194e+00 3.860502e+00 3.181309e+00 3.574739e+00 2.908294e+00 3.086891e+00 2.544027e+00 2.514503e+00 2.090072e+00 1.942362e+00 1.582835e+00 1.414981e+00 1.062538e+00 9.243613e-01 5.330974e-01 4.124951e-01 -5.978769e-02 -1.888102e-01 -8.033587e-01 -8.950184e-01 -1.703834e+00 -1.732784e+00 -2.636345e+00 -2.608293e+00 -3.469578e+00 -3.426370e+00 -4.124208e+00 -4.144220e+00 -4.563726e+00 -4.753751e+00 -4.776893e+00 -5.226152e+00 -4.770860e+00 -5.430135e+00 -4.525891e+00 -5.131248e+00 -3.912791e+00 -4.348166e+00 -3.041057e+00 -3.321966e+00 -2.109695e+00 -2.286941e+00 -1.261577e+00 -1.375287e+00 -5.565994e-01 -6.275118e-01 3.171282e-03 -2.970976e-02 4.453057e-01 
2.761525e-01 5.857798e-01 6.352236e-01 8.616215e-01 9.679681e-01 1.129201e+00 1.312797e+00 1.420026e+00 1.697831e+00 1.750567e+00 2.128150e+00 2.107651e+00 2.569002e+00 2.435730e+00 2.936695e+00 2.647483e+00 3.120129e+00 2.680169e+00 3.040765e+00 2.546865e+00 2.695669e+00 2.212665e+00 2.128188e+00 1.665156e+00 1.403335e+00 9.340696e-01 5.811885e-01 6.940624e-02 -2.931578e-01 -8.747483e-01 -1.183077e+00 -1.843271e+00 -2.049663e+00 -2.778538e+00 -2.855167e+00 -3.622106e+00 -3.598897e+00 -4.341053e+00 -4.278323e+00 -4.923226e+00 -4.884517e+00 -5.356383e+00 -5.394497e+00 -5.612603e+00 -5.758119e+00 -5.648154e+00 -5.888362e+00 -5.416690e+00 -5.677179e+00 -4.882973e+00 -5.070612e+00 -4.062750e+00 -4.168446e+00 -3.102853e+00 -3.156804e+00 -2.161506e+00 -2.192812e+00 -1.337249e+00 -1.361414e+00 -6.656623e-01 -6.856144e-01 -1.408143e-01 -1.507517e-01 2.644019e-01 
4.809848e-01 8.259349e-01 9.086637e-01 1.162303e+00 1.316476e+00 1.489932e+00 1.727999e+00 1.825149e+00 2.153212e+00 2.167671e+00 2.576962e+00 2.490190e+00 2.949207e+00 2.734451e+00 3.190071e+00 2.830658e+00 3.226637e+00 2.751404e+00 3.050548e+00 2.550439e+00 2.718903e+00 2.256394e+00 2.297624e+00 1.885945e+00 1.840064e+00 1.460778e+00 1.376399e+00 9.997727e-01 9.082739e-01 5.047010e-01 4.136021e-01 -4.439367e-02 -1.343753e-01 -6.716638e-01 -7.449238e-01 -1.365318e+00 -1.413014e+00 -2.063495e+00 -2.093658e+00 -2.692473e+00 -2.733322e+00 -3.195443e+00 -3.292452e+00 -3.537528e+00 -3.741324e+00 -3.700783e+00 -4.038542e+00 -3.676854e+00 -4.110993e+00 -3.452407e+00 -3.878422e+00 -3.006939e+00 -3.356285e+00 -2.396130e+00 -2.654440e+00 -1.718923e+00 -1.899291e+00 -1.061393e+00 -1.181222e+00 -4.730727e-01 -5.438986e-01 3.057583e-02 5.283700e-03 4.569605e-01 
2.637442e-01 5.652999e-01 6.302408e-01 8.537988e-01 9.660027e-01 1.121696e+00 1.292325e+00 1.385584e+00 1.621510e+00 1.650468e+00 1.949504e+00 1.903239e+00 2.249269e+00 2.110083e+00 2.470810e+00 2.225310e+00 2.555087e+00 2.213374e+00 2.460000e+00 2.062302e+00 2.178229e+00 1.758518e+00 1.731065e+00 1.300956e+00 1.156021e+00 7.086872e-01 4.936922e-01 1.500230e-02 -2.191954e-01 -7.400040e-01 -9.498517e-01 -1.513355e+00 -1.667565e+00 -2.261347e+00 -2.346359e+00 -2.943209e+00 -2.972474e+00 -3.529093e+00 -3.534202e+00 -3.998958e+00 -4.016158e+00 -4.334877e+00 -4.394146e+00 -4.514856e+00 -4.630580e+00 -4.513347e+00 -4.675408e+00 -4.308611e+00 -4.481260e+00 -3.894312e+00 -4.037206e+00 -3.298311e+00 -3.398448e+00 -2.598257e+00 -2.662811e+00 -1.883341e+00 -1.924293e+00 -1.220458e+00 -1.245943e+00 -6.443224e-01 -6.563424e-01 -1.627223e-01 -1.577606e-01 2.340878e-01 
5.526082e-01 8.748623e-01 9.546768e-01 1.193623e+00 1.332851e+00 1.493552e+00 1.696744e+00 1.780387e+00 2.046607e+00 2.049165e+00 2.367734e+00 2.280443e+00 2.628268e+00 2.441920e+00 2.785710e+00 2.500518e+00 2.805406e+00 2.443183e+00 2.682044e+00 2.285639e+00 2.440574e+00 2.045116e+00 2.116880e+00 1.736479e+00 1.743629e+00 1.374523e+00 1.341987e+00 9.710399e-01 9.184423e-01 5.302320e-01 4.678698e-01 4.898957e-02 -1.732443e-02 -4.738017e-01 -5.372248e-01 -1.022390e+00 -1.080698e+00 -1.559878e+00 -1.620133e+00 -2.041404e+00 -2.121096e+00 -2.427644e+00 -2.551363e+00 -2.690367e+00 -2.880952e+00 -2.812169e+00 -3.076149e+00 -2.783681e+00 -3.097524e+00 -2.600319e+00 -2.915818e+00 -2.266790e+00 -2.544515e+00 -1.817863e+00 -2.040389e+00 -1.308640e+00 -1.474624e+00 -7.921042e-01 -9.064381e-01 -3.049429e-01 -3.721615e-01 1.351979e-01 1.137454e-01 5.259925e-01 
3.063327e-01 5.875175e-01 6.559801e-01 8.665719e-01 9.734616e-01 1.118206e+00 1.268973e+00 1.350157e+00 1.546364e+00 1.562479e+00 1.799074e+00 1.744694e+00 2.007755e+00 1.875918e+00 2.142172e+00 1.930181e+00 2.169387e+00 1.885745e+00 2.065927e+00 1.730550e+00 1.826207e+00 1.458200e+00 1.461805e+00 1.071444e+00 9.959065e-01 5.846523e-01 4.566256e-01 2.182800e-02 -1.275663e-01 -5.870103e-01 -7.295946e-01 -1.208876e+00 -1.324382e+00 -1.810327e+00 -1.890268e+00 -2.360285e+00 -2.410513e+00 -2.833129e+00 -2.870009e+00 -3.208647e+00 -3.252033e+00 -3.469444e+00 -3.535677e+00 -3.598896e+00 -3.694925e+00 -3.582113e+00 -3.701740e+00 -3.410304e+00 -3.535735e+00 -3.087503e+00 -3.199035e+00 -2.638105e+00 -2.725686e+00 -2.108721e+00 -2.171877e+00 -1.553312e+00 -1.595677e+00 -1.017040e+00 -1.041754e+00 -5.285244e-01 -5.360681e-01 -9.988750e-02 -8.770473e-02 2.693430e-01 
6.610206e-01 9.538804e-01 1.024582e+00 1.243758e+00 1.363509e+00 1.510254e+00 1.679522e+00 1.753677e+00 1.968739e+00 1.968161e+00 2.219076e+00 2.140494e+00 2.410364e+00 2.252248e+00 2.519022e+00 2.286277e+00 2.527211e+00 2.235144e+00 2.431679e+00 2.103798e+00 2.244480e+00 1.901929e+00 1.985640e+00 1.640319e+00 1.675483e+00 1.329791e+00 1.329350e+00 9.796275e-01 9.555143e-01 5.961680e-01 5.566849e-01 1.838539e-01 1.344178e-01 -2.502282e-01 -3.059540e-01 -6.906246e-01 -7.524461e-01 -1.112260e+00 -1.185152e+00 -1.485651e+00 -1.579685e+00 -1.783414e+00 -1.911098e+00 -1.984215e+00 -2.155118e+00 -2.073964e+00 -2.287759e+00 -2.045514e+00 -2.287392e+00 -1.898546e+00 -2.143080e+00 -1.642192e+00 -1.865768e+00 -1.300015e+00 -1.488089e+00 -9.057580e-01 -1.052431e+00 -4.935018e-01 -5.977679e-01 -8.983509e-02 -1.520667e-01 2.891354e-01 2.692436e-01 6.369258e-01 
3.932998e-01 6.488402e-01 7.138737e-01 9.067565e-01 1.002879e+00 1.134395e+00 1.263728e+00 1.334353e+00 1.495887e+00 1.504578e+00 1.692668e+00 1.637101e+00 1.840497e+00 1.718657e+00 1.920729e+00 1.733708e+00 1.914349e+00 1.668883e+00 1.808108e+00 1.515986e+00 1.598864e+00 1.272310e+00 1.294022e+00 9.419565e-01 9.091285e-01 5.366157e-01 4.644079e-01 7.461974e-02 -1.815590e-02 -4.210392e-01 -5.166128e-01 -9.248507e-01 -1.010124e+00 -1.410826e+00 -1.479857e+00 -1.854483e+00 -1.909358e+00 -2.234496e+00 -2.283377e+00 -2.533088e+00 -2.586404e+00 -2.735434e+00 -2.801725e+00 -2.829302e+00 -2.911810e+00 -2.806038e+00 -2.901021e+00 -2.663084e+00 -2.761100e+00 -2.407357e+00 -2.497734e+00 -2.057957e+00 -2.133566e+00 -1.645297e+00 -1.703447e+00 -1.204227e+00 -1.244843e+00 -7.659356e-01 -7.893592e-01 -3.528980e-01 -3.584895e-01 2.231840e-02 3.666408e-02 3.556306e-01 
7.976446e-01 1.059963e+00 1.119121e+00 1.317262e+00 1.417079e+00 1.550023e+00 1.689094e+00 1.755902e+00 1.929746e+00 1.929304e+00 2.129450e+00 2.061119e+00 2.275059e+00 2.140286e+00 2.352770e+00 2.157179e+00 2.352725e+00 2.107301e+00 2.272985e+00 1.992463e+00 2.120024e+00 1.818472e+00 1.905693e+00 1.593069e+00 1.643266e+00 1.324694e+00 1.344350e+00 1.021510e+00 1.017517e+00 6.909455e-01 6.688908e-01 3.404553e-01 3.042377e-01 -2.038189e-02 -6.858357e-02 -3.776589e-01 -4.380075e-01 -7.129165e-01 -7.883873e-01 -1.005556e+00 -1.101451e+00 -1.236178e+00 -1.358288e+00 -1.389162e+00 -1.540727e+00 -1.454016e+00 -1.632461e+00 -1.425925e+00 -1.621319e+00 -1.306230e+00 -1.503466e+00 -1.103486e+00 -1.287488e+00 -8.343096e-01 -9.938335e-01 -5.209228e-01 -6.492784e-01 -1.863455e-01 -2.801555e-01 1.499424e-01 9.240878e-02 4.742323e-01 4.542691e-01 7.786784e-01 
5.163179e-01 7.454424e-01 8.033258e-01 9.772086e-01 1.060444e+00 1.178256e+00 1.287164e+00 1.348274e+00 1.480782e+00 1.484361e+00 1.635206e+00 1.580451e+00 1.740833e+00 1.627872e+00 1.785889e+00 1.617095e+00 1.759163e+00 1.540092e+00 1.653283e+00 1.392212e+00 1.467108e+00 1.173104e+00 1.206273e+00 8.874514e-01 8.821503e-01 5.452163e-01 5.099987e-01 1.610487e-01 1.071133e-01 -2.469435e-01 -3.086061e-01 -6.586863e-01 -7.196721e-01 -1.053663e+00 -1.109710e+00 -1.412340e+00 -1.463727e+00 -1.717300e+00 -1.767788e+00 -1.953805e+00 -2.008536e+00 -2.109950e+00 -2.173063e+00 -2.176906e+00 -2.249617e+00 -2.149715e+00 -2.229494e+00 -2.028682e+00 -2.109996e+00 -1.820916e+00 -1.897338e+00 -1.541104e+00 -1.607489e+00 -1.210323e+00 -1.263570e+00 -8.524075e-01 -8.909326e-01 -4.896155e-01 -5.123769e-01 -1.394823e-01 -1.452120e-01 1.864035e-01 1.995380e-01 4.820025e-01 
9.561647e-01 1.190020e+00 1.237174e+00 1.415297e+00 1.496590e+00 1.616666e+00 1.730026e+00 1.790598e+00 1.931694e+00 1.932029e+00 2.093904e+00 2.034385e+00 2.207635e+00 2.090586e+00 2.264256e+00 2.094838e+00 2.257924e+00 2.044404e+00 2.187510e+00 1.940271e+00 2.056935e+00 1.786421e+00 1.873829e+00 1.588788e+00 1.647511e+00 1.354404e+00 1.387233e+00 1.090771e+00 1.101279e+00 8.056412e-01 7.970923e-01 5.073875e-01 4.822014e-01 2.058814e-01 1.653685e-01 -8.673686e-02 -1.426354e-01 -3.562138e-01 -4.289641e-01 -5.874991e-01 -6.794735e-01 -7.666058e-01 -8.799076e-01 -8.822656e-01 -1.017074e+00 -9.270422e-01 -1.080081e+00 -8.979751e-01 -1.062012e+00 -7.969975e-01 -9.620362e-01 -6.312475e-01 -7.869406e-01 -4.128459e-01 -5.505186e-01 -1.573044e-01 -2.707195e-01 1.190790e-01 3.400055e-02 4.017012e-01 3.475796e-01 6.791596e-01 6.577743e-01 9.435818e-01 
6.690986e-01 8.737071e-01 9.226593e-01 1.078370e+00 1.148400e+00 1.253136e+00 1.343696e+00 1.396115e+00 1.504865e+00 1.504127e+00 1.626535e+00 1.572455e+00 1.701737e+00 1.595271e+00 1.722827e+00 1.566696e+00 1.683122e+00 1.482175e+00 1.578747e+00 1.339670e+00 1.410002e+00 1.140446e+00 1.181798e+00 8.895251e-01 9.031836e-01 5.957398e-01 5.863020e-01 2.712882e-01 2.451940e-01 -6.911339e-02 -1.052753e-01 -4.093040e-01 -4.502716e-01 -7.328133e-01 -7.756069e-01 -1.023929e+00 -1.068079e+00 -1.268575e+00 -1.315543e+00 -1.454904e+00 -1.506917e+00 -1.573685e+00 -1.632399e+00 -1.618692e+00 -1.684125e+00 -1.587265e+00 -1.657371e+00 -1.481036e+00 -1.552095e+00 -1.306539e+00 -1.374184e+00 -1.075238e+00 -1.135530e+00 -8.025015e-01 -8.524520e-01 -5.054861e-01 -5.429706e-01 -2.006584e-01 -2.240248e-01 9.816055e-02 9.046547e-02 3.807585e-01 3.903707e-01 6.405193e-01 
1.132063e+00 1.341232e+00 1.376817e+00 1.537236e+00 1.602080e+00 1.710741e+00 1.802722e+00 1.857789e+00 1.973092e+00 1.973824e+00 2.106829e+00 2.053800e+00 2.197311e+00 2.092828e+00 2.238686e+00 2.087173e+00 2.227197e+00 2.035197e+00 2.162193e+00 1.937789e+00 2.046371e+00 1.798146e+00 1.885167e+00 1.621256e+00 1.685701e+00 1.413360e+00 1.455775e+00 1.181527e+00 1.203253e+00 9.334561e-01 9.359779e-01 6.775627e-01 6.620892e-01 4.232435e-01 3.904752e-01 1.810286e-01 1.310453e-01 -3.771814e-02 -1.053766e-01 -2.216363e-01 -3.075878e-01 -3.604963e-01 -4.648118e-01 -4.462696e-01 -5.676003e-01 -4.739309e-01 -6.088020e-01 -4.419547e-01 -5.846404e-01 -3.525571e-01 -4.957589e-01 -2.116795e-01 -3.477494e-01 -2.853969e-02 -1.506048e-01 1.854570e-01 8.290157e-02 4.182525e-01 3.392866e-01 6.586134e-01 6.061277e-01 8.971145e-01 8.730791e-01 1.126461e+00 
8.470387e-01 1.030487e+00 1.069807e+00 1.209422e+00 1.266793e+00 1.359795e+00 1.434352e+00 1.478913e+00 1.568442e+00 1.563567e+00 1.664330e+00 1.609960e+00 1.716748e+00 1.614050e+00 1.720554e+00 1.572239e+00 1.671748e+00 1.482238e+00 1.568576e+00 1.343846e+00 1.412347e+00 1.159483e+00 1.207723e+00 9.344615e-01 9.624724e-01 6.769245e-01 6.868176e-01 3.974697e-01 3.926206e-01 1.084960e-01 9.256650e-02 -1.766138e-01 -2.005488e-01 -4.443680e-01 -4.743849e-01 -6.819996e-01 -7.174583e-01 -8.781799e-01 -9.194052e-01 -1.023567e+00 -1.071206e+00 -1.111215e+00 -1.165506e+00 -1.136932e+00 -1.197128e+00 -1.099634e+00 -1.163787e+00 -1.001671e+00 -1.066850e+00 -8.489766e-01 -9.117991e-01 -6.508163e-01 -7.080219e-01 -4.189687e-01 -4.677621e-01 -1.663886e-01 -2.044929e-01 9.429499e-02 6.876745e-02 3.520120e-01 3.407163e-01 5.979392e-01 6.023716e-01 8.255988e-01 
1.322189e+00 1.511205e+00 1.535947e+00 1.681669e+00 1.732186e+00 1.831270e+00 1.905688e+00 1.955991e+00 2.051118e+00 2.051672e+00 2.163005e+00 2.114158e+00 2.236084e+00 2.139749e+00 2.265976e+00 2.125822e+00 2.249979e+00 2.071416e+00 2.187689e+00 1.977537e+00 2.081186e+00 1.847114e+00 1.934760e+00 1.684729e+00 1.754345e+00 1.496253e+00 1.546900e+00 1.288519e+00 1.319967e+00 1.069090e+00 1.081464e+00 8.461579e-01 8.396901e-01 6.284934e-01 6.033861e-01 4.253163e-01 3.817072e-01 2.459386e-01 1.839897e-01 9.915747e-02 1.930055e-02 -7.484444e-03 -1.041620e-01 -6.839713e-02 -1.797247e-01 -8.046897e-02 -2.028999e-01 -4.336730e-02 -1.720054e-01 4.039159e-02 -8.862793e-02 1.656152e-01 4.228937e-02 3.248998e-01 2.129327e-01 5.094111e-01 4.136329e-01 7.098532e-01 6.341088e-01 9.173792e-01 8.645601e-01 1.124218e+00 1.096348e+00 1.323913e+00 
1.046872e+00 1.213215e+00 1.242731e+00 1.369028e+00 1.414609e+00 1.497703e+00 1.558471e+00 1.596169e+00 1.670219e+00 1.661260e+00 1.745591e+00 1.689762e+00 1.780370e+00 1.678722e+00 1.770889e+00 1.625967e+00 1.714736e+00 1.530692e+00 1.611458e+00 1.393991e+00 1.463080e+00 1.219180e+00 1.274270e+00 1.011912e+00 1.052157e+00 7.800242e-01 8.058660e-01 5.331654e-01 5.458936e-01 2.822357e-01 2.834582e-01 3.871385e-02 2.988308e-02 -1.860532e-01 -2.039375e-01 -3.815305e-01 -4.079758e-01 -5.385891e-01 -5.734243e-01 -6.499797e-01 -6.930069e-01 -7.106888e-01 -7.613008e-01 -7.182005e-01 -7.751011e-01 -6.726786e-01 -7.338070e-01 -5.770453e-01 -6.397295e-01 -4.368852e-01 -4.981554e-01 -2.600862e-01 -3.170121e-01 -5.617343e-02 -1.060964e-01 1.645991e-01 1.239807e-01 3.922078e-01 3.628605e-01 6.176458e-01 6.012519e-01 8.333800e-01 8.313535e-01 1.033442e+00 
1.524396e+00 1.698003e+00 1.712595e+00 1.846962e+00 1.885029e+00 1.976677e+00 2.036720e+00 2.083229e+00 2.162684e+00 2.162710e+00 2.257984e+00 2.211409e+00 2.318040e+00 2.226182e+00 2.339149e+00 2.204945e+00 2.319052e+00 2.147104e+00 2.257395e+00 2.053824e+00 2.155919e+00 1.928043e+00 2.018340e+00 1.774291e+00 1.850011e+00 1.598404e+00 1.657507e+00 1.407205e+00 1.448243e+00 1.208226e+00 1.230215e+00 1.009482e+00 1.011813e+00 8.192508e-01 8.016642e-01 6.457984e-01 6.084003e-01 4.969919e-01 4.403208e-01 3.798047e-01 3.049556e-01 2.997905e-01 2.085813e-01 2.606267e-01 1.557557e-01 2.638116e-01 1.489236e-01 3.085552e-01 1.881367e-01 3.918683e-01 2.709524e-01 5.088424e-01 3.925917e-01 6.531069e-01 5.464043e-01 8.174294e-01 7.245814e-01 9.943657e-01 9.189504e-01 1.176829e+00 1.121652e+00 1.358461e+00 1.325560e+00 1.533765e+00 
1.266361e+00 1.419897e+00 1.439630e+00 1.555767e+00 1.590438e+00 1.665814e+00 1.714703e+00 1.746794e+00 1.808369e+00 1.795538e+00 1.867443e+00 1.809101e+00 1.888248e+00 1.785107e+00 1.867895e+00 1.722209e+00 1.804844e+00 1.620572e+00 1.699438e+00 1.482243e+00 1.554240e+00 1.311334e+00 1.374113e+00 1.113982e+00 1.166016e+00 8.980936e-01 9.385891e-01 6.729297e-01 7.016224e-01 4.485639e-01 4.654819e-01 2.352819e-01 2.405522e-01 4.296619e-02 3.671938e-02 -1.194870e-01 -1.370910e-01 -2.446741e-01 -2.733165e-01 -3.270827e-01 -3.661024e-01 -3.633688e-01 -4.115940e-01 -3.525103e-01 -4.081736e-01 -2.958409e-01 -3.566164e-01 -1.969510e-01 -2.601126e-01 -6.143570e-02 -1.240888e-01 1.035276e-01 4.421661e-02 2.897596e-01 2.363989e-01 4.887474e-01 4.436434e-01 6.922874e-01 6.574344e-01 8.929787e-01 8.700709e-01 1.084488e+00 1.074913e+00 1.261570e+00 
1.737237e+00 1.900077e+00 1.905006e+00 2.031497e+00 2.058611e+00 2.145245e+00 2.193479e+00 2.237534e+00 2.304913e+00 2.304530e+00 2.388202e+00 2.342581e+00 2.438941e+00 2.348624e+00 2.453524e+00 2.320667e+00 2.429680e+00 2.258229e+00 2.366919e+00 2.162611e+00 2.266753e+00 2.036939e+00 2.132665e+00 1.885987e+00 1.969851e+00 1.715866e+00 1.784869e+00 1.533669e+00 1.585280e+00 1.347126e+00 1.379333e+00 1.164292e+00 1.175677e+00 9.932266e-01 9.830526e-01 8.416308e-01 8.099044e-01 7.164211e-01 6.639330e-01 6.232739e-01 5.516153e-01 5.662097e-01 4.777711e-01 5.472961e-01 4.452377e-01 5.665279e-01 4.546960e-01 6.219028e-01 5.046696e-01 7.096794e-01 5.917024e-01 8.247750e-01 7.107144e-01 9.612524e-01 8.555057e-01 1.112831e+00 1.019333e+00 1.273349e+00 1.195456e+00 1.437106e+00 1.377536e+00 1.599032e+00 1.559843e+00 1.754680e+00 
1.504024e+00 1.649031e+00 1.658989e+00 1.768325e+00 1.792809e+00 1.862987e+00 1.901530e+00 1.929651e+00 1.981111e+00 1.964991e+00 2.027561e+00 1.965994e+00 2.037283e+00 1.930392e+00 2.007595e+00 1.857189e+00 1.937307e+00 1.747142e+00 1.827207e+00 1.603075e+00 1.680327e+00 1.429932e+00 1.501924e+00 1.234587e+00 1.299200e+00 1.025438e+00 1.080848e+00 8.118948e-01 8.565201e-01 6.038062e-01 6.362895e-01 4.108808e-01 4.301188e-01 2.421190e-01 2.473482e-01 1.052854e-01 9.620352e-02 6.456905e-03 -1.665316e-02 -5.031445e-02 -8.649615e-02 -6.319923e-02 -1.108026e-01 -3.263649e-02 -8.938604e-02 3.877197e-02 -2.437545e-02 1.465152e-01 7.998050e-02 2.845640e-01 2.176915e-01 4.458717e-01 3.815633e-01 6.229355e-01 5.638265e-01 8.083419e-01 7.567544e-01 9.952136e-01 9.531578e-01 1.177491e+00 1.146680e+00 1.350019e+00 1.331864e+00 1.508451e+00 
1.959704e+00 2.116126e+00 2.111579e+00 2.233703e+00 2.250928e+00 2.335269e+00 2.373669e+00 2.417132e+00 2.475285e+00 2.475291e+00 2.550966e+00 2.505758e+00 2.595995e+00 2.505062e+00 2.606324e+00 2.470868e+00 2.579224e+00 2.402530e+00 2.513843e+00 2.301450e+00 2.411509e+00 2.171115e+00 2.275715e+00 2.016851e+00 2.111857e+00 1.845405e+00 1.926836e+00 1.664479e+00 1.728672e+00 1.482317e+00 1.526156e+00 1.307332e+00 1.328508e+00 1.147731e+00 1.144961e+00 1.011075e+00 9.842286e-01 9.037847e-01 8.538882e-01 8.306563e-01 7.597983e-01 7.944740e-01 7.056468e-01 7.958160e-01 6.927238e-01 8.330968e-01 7.199490e-01 9.028449e-01 7.841389e-01 1.000168e+00 8.804684e-01 1.119323e+00 1.003054e+00 1.254295e+00 1.145567e+00 1.399291e+00 1.301788e+00 1.549093e+00 1.466001e+00 1.699214e+00 1.633192e+00 1.845879e+00 1.799035e+00 1.985844e+00 
1.758880e+00 1.899449e+00 1.899489e+00 2.005511e+00 2.020277e+00 2.088157e+00 2.117494e+00 2.143828e+00 2.186983e+00 2.168780e+00 2.224406e+00 2.159489e+00 2.225726e+00 2.113275e+00 2.187895e+00 2.029009e+00 2.109581e+00 1.907733e+00 1.991755e+00 1.752981e+00 1.837935e+00 1.570733e+00 1.654054e+00 1.368995e+00 1.448011e+00 1.157177e+00 1.229079e+00 9.454047e-01 1.007317e+00 7.438842e-01 7.930335e-01 5.623142e-01 5.962814e-01 4.093410e-01 4.263475e-01 2.920491e-01 2.912063e-01 2.155267e-01 1.969932e-01 1.825629e-01 1.475707e-01 1.935185e-01 1.442635e-01 2.463878e-01 1.858054e-01 3.370471e-01 2.685181e-01 4.596739e-01 3.867163e-01 6.073034e-01 5.333086e-01 7.724590e-01 7.005154e-01 9.477685e-01 8.805861e-01 1.126471e+00 1.066386e+00 1.302733e+00 1.251759e+00 1.471752e+00 1.431623e+00 1.629643e+00 1.601835e+00 1.773180e+00 
2.190965e+00 2.344880e+00 2.330676e+00 2.451917e+00 2.459852e+00 2.544997e+00 2.574982e+00 2.620431e+00 2.671589e+00 2.673743e+00 2.744381e+00 2.700095e+00 2.787748e+00 2.694998e+00 2.796550e+00 2.655210e+00 2.767047e+00 2.579573e+00 2.697720e+00 2.469544e+00 2.589721e+00 2.329218e+00 2.446827e+00 2.164898e+00 2.275023e+00 1.984425e+00 2.081946e+00 1.796526e+00 1.876416e+00 1.610330e+00 1.668109e+00 1.434989e+00 1.467235e+00 1.279290e+00 1.284055e+00 1.151151e+00 1.128158e+00 1.056984e+00 1.007591e+00 1.001090e+00 9.280406e-01 9.852105e-01 8.922912e-01 1.008394e+00 9.000588e-01 1.067195e+00 9.482337e-01 1.156209e+00 1.031465e+00 1.268822e+00 1.142975e+00 1.398053e+00 1.275462e+00 1.537311e+00 1.421919e+00 1.680946e+00 1.576249e+00 1.824518e+00 1.733567e+00 1.964779e+00 1.890195e+00 2.099425e+00 2.043401e+00 2.226691e+00 
2.030168e+00 2.170072e+00 2.159810e+00 2.266113e+00 2.271316e+00 2.340298e+00 2.361183e+00 2.388723e+00 2.424920e+00 2.406810e+00 2.457353e+00 2.389905e+00 2.453321e+00 2.334206e+00 2.408674e+00 2.237840e+00 2.321366e+00 2.101796e+00 2.192295e+00 1.930382e+00 2.025604e+00 1.731022e+00 1.828346e+00 1.513485e+00 1.609707e+00 1.288869e+00 1.380138e+00 1.068663e+00 1.150635e+00 8.640115e-01 9.322433e-01 6.851500e-01 7.356233e-01 5.408800e-01 5.705513e-01 4.380408e-01 4.452787e-01 3.810350e-01 3.658466e-01 3.715175e-01 3.355201e-01 4.083194e-01 3.544785e-01 4.876194e-01 4.198247e-01 6.033522e-01 5.259247e-01 7.478281e-01 6.650565e-01 9.125158e-01 8.283098e-01 1.088892e+00 1.006602e+00 1.269209e+00 1.191614e+00 1.447039e+00 1.376444e+00 1.617496e+00 1.555868e+00 1.777140e+00 1.726218e+00 1.923622e+00 1.884970e+00 2.055177e+00 
2.430079e+00 2.584787e+00 2.560309e+00 2.684087e+00 2.682820e+00 2.772371e+00 2.794818e+00 2.845849e+00 2.891707e+00 2.899153e+00 2.967220e+00 2.925878e+00 3.014065e+00 2.919624e+00 3.025078e+00 2.875397e+00 2.994690e+00 2.791006e+00 2.920268e+00 2.667932e+00 2.802825e+00 2.511314e+00 2.646849e+00 2.329099e+00 2.459464e+00 2.130869e+00 2.249507e+00 1.926872e+00 2.026936e+00 1.727491e+00 1.802630e+00 1.543002e+00 1.588268e+00 1.383291e+00 1.395863e+00 1.257253e+00 1.236756e+00 1.171910e+00 1.120274e+00 1.131505e+00 1.052480e+00 1.136882e+00 1.035416e+00 1.185349e+00 1.066984e+00 1.271078e+00 1.141459e+00 1.385971e+00 1.250508e+00 1.520857e+00 1.384503e+00 1.666756e+00 1.533896e+00 1.815950e+00 1.690397e+00 1.962664e+00 1.847722e+00 2.103252e+00 2.001823e+00 2.235958e+00 2.150620e+00 2.360352e+00 2.293408e+00 2.476614e+00 
2.317012e+00 2.459548e+00 2.438265e+00 2.548568e+00 2.543993e+00 2.618198e+00 2.631002e+00 2.663955e+00 2.694160e+00 2.679830e+00 2.726765e+00 2.659114e+00 2.721529e+00 2.595803e+00 2.672115e+00 2.486348e+00 2.574913e+00 2.331228e+00 2.430453e+00 2.135729e+00 2.243838e+00 1.909488e+00 2.024016e+00 1.665053e+00 1.782335e+00 1.416153e+00 1.531127e+00 1.176367e+00 1.282841e+00 9.583491e-01 1.049680e+00 7.733941e-01 8.434156e-01 6.309875e-01 6.749542e-01 5.381978e-01 5.535091e-01 4.990529e-01 4.855928e-01 5.141509e-01 4.741830e-01 5.806200e-01 5.183041e-01 6.924160e-01 6.130888e-01 8.409121e-01 7.502981e-01 1.015768e+00 9.192745e-01 1.206038e+00 1.108271e+00 1.401383e+00 1.305968e+00 1.593137e+00 1.502824e+00 1.774980e+00 1.691906e+00 1.943072e+00 1.869048e+00 2.095690e+00 2.032408e+00 2.232526e+00 2.181659e+00 2.353831e+00 
2.675634e+00 2.833566e+00 2.797658e+00 2.927271e+00 2.916302e+00 3.014550e+00 3.029763e+00 3.091441e+00 3.133200e+00 3.151141e+00 3.218727e+00 3.184639e+00 3.276212e+00 3.182220e+00 3.295005e+00 3.135748e+00 3.266365e+00 3.041119e+00 3.185833e+00 2.899864e+00 3.054463e+00 2.719006e+00 2.878277e+00 2.509315e+00 2.666475e+00 2.283081e+00 2.429683e+00 2.052604e+00 2.179192e+00 1.829760e+00 1.927207e+00 1.626240e+00 1.687343e+00 1.453618e+00 1.474371e+00 1.322658e+00 1.302729e+00 1.241896e+00 1.184267e+00 1.216135e+00 1.126189e+00 1.245458e+00 1.129908e+00 1.325041e+00 1.190998e+00 1.445793e+00 1.300106e+00 1.595738e+00 1.444601e+00 1.761878e+00 1.610629e+00 1.932162e+00 1.785222e+00 2.097071e+00 1.958049e+00 2.250507e+00 2.122420e+00 2.389870e+00 2.275381e+00 2.515450e+00 2.417053e+00 2.629409e+00 2.549533e+00 2.734627e+00 
2.617955e+00 2.765720e+00 2.732243e+00 2.850413e+00 2.835390e+00 2.919968e+00 2.924670e+00 2.969068e+00 2.993951e+00 2.989439e+00 3.034020e+00 2.970916e+00 3.033915e+00 2.903545e+00 2.983341e+00 2.780517e+00 2.875717e+00 2.601038e+00 2.710765e+00 2.371814e+00 2.495278e+00 2.106147e+00 2.241546e+00 1.821083e+00 1.964486e+00 1.534324e+00 1.679195e+00 1.262304e+00 1.399920e+00 1.019625e+00 1.140217e+00 8.190901e-01 9.134045e-01 6.714782e-01 7.323404e-01 5.847094e-01 6.082100e-01 5.628274e-01 5.488318e-01 6.054120e-01 5.573135e-01 7.075927e-01 6.314643e-01 8.605104e-01 7.639266e-01 1.052109e+00 9.429031e-01 1.268291e+00 1.153472e+00 1.494484e+00 1.379532e+00 1.717463e+00 1.606174e+00 1.926976e+00 1.821805e+00 2.116675e+00 2.019309e+00 2.284124e+00 2.196009e+00 2.430021e+00 2.352707e+00 2.556962e+00 2.492245e+00 2.668073e+00 
2.925264e+00 3.087579e+00 3.038389e+00 3.176882e+00 3.154964e+00 3.267117e+00 3.274732e+00 3.354221e+00 3.392602e+00 3.429330e+00 3.498274e+00 3.479316e+00 3.577049e+00 3.488869e+00 3.612362e+00 3.444252e+00 3.589928e+00 3.337858e+00 3.502232e+00 3.171396e+00 3.350912e+00 2.955532e+00 3.145320e+00 2.706073e+00 2.898477e+00 2.439539e+00 2.623561e+00 2.170704e+00 2.332944e+00 1.912709e+00 2.039662e+00 1.678582e+00 1.759525e+00 1.482283e+00 1.511546e+00 1.337865e+00 1.315521e+00 1.256880e+00 1.187875e+00 1.245679e+00 1.138099e+00 1.303772e+00 1.167029e+00 1.423557e+00 1.266990e+00 1.591312e+00 1.423361e+00 1.789305e+00 1.617156e+00 1.998755e+00 1.828188e+00 2.202944e+00 2.038311e+00 2.389664e+00 2.234156e+00 2.552424e+00 2.408530e+00 2.690272e+00 2.560230e+00 2.806561e+00 2.692680e+00 2.907209e+00 2.812036e+00 2.998918e+00 
2.930318e+00 3.084845e+00 3.037363e+00 3.167395e+00 3.140653e+00 3.242193e+00 3.238338e+00 3.302909e+00 3.322955e+00 3.337945e+00 3.381447e+00 3.331565e+00 3.396770e+00 3.266943e+00 3.351617e+00 3.131134e+00 3.233849e+00 2.920589e+00 3.041610e+00 2.644338e+00 2.784961e+00 2.322200e+00 2.482403e+00 1.978809e+00 2.154865e+00 1.637755e+00 1.821247e+00 1.318901e+00 1.497425e+00 1.038756e+00 1.197863e+00 8.118646e-01 9.376452e-01 6.511265e-01 7.327940e-01 5.663345e-01 5.981599e-01 5.621355e-01 5.442108e-01 6.370775e-01 5.747737e-01 7.838285e-01 6.863103e-01 9.899227e-01 8.682476e-01 1.238719e+00 1.103914e+00 1.510797e+00 1.372176e+00 1.786139e+00 1.650210e+00 2.047008e+00 1.917391e+00 2.280631e+00 2.158915e+00 2.480621e+00 2.367515e+00 2.646730e+00 2.542970e+00 2.783311e+00 2.690167e+00 2.897230e+00 2.816656e+00 2.995777e+00 
3.174996e+00 3.340950e+00 3.275669e+00 3.425561e+00 3.390432e+00 3.522815e+00 3.521597e+00 3.628998e+00 3.664204e+00 3.732639e+00 3.804718e+00 3.814424e+00 3.921349e+00 3.849684e+00 3.987461e+00 3.814532e+00 3.978751e+00 3.694660e+00 3.882246e+00 3.492329e+00 3.701631e+00 3.225651e+00 3.453612e+00 2.919906e+00 3.158554e+00 2.598301e+00 2.833144e+00 2.277968e+00 2.489362e+00 1.971791e+00 2.138974e+00 1.693096e+00 1.799547e+00 1.459070e+00 1.496761e+00 1.289637e+00 1.259930e+00 1.202077e+00 1.113613e+00 1.205923e+00 1.071301e+00 1.300387e+00 1.133119e+00 1.474099e+00 1.286570e+00 1.706585e+00 1.509185e+00 1.971415e+00 1.772464e+00 2.240892e+00 2.046649e+00 2.491197e+00 2.305678e+00 2.706219e+00 2.531735e+00 2.879253e+00 2.717315e+00 3.012234e+00 2.864332e+00 3.113315e+00 2.981401e+00 3.193946e+00 3.080669e+00 3.266257e+00 
3.249298e+00 3.410485e+00 3.346236e+00 3.492129e+00 3.451520e+00 3.578497e+00 3.565073e+00 3.662430e+00 3.678086e+00 3.727868e+00 3.772045e+00 3.750458e+00 3.820103e+00 3.701530e+00 3.792507e+00 3.556485e+00 3.666449e+00 3.305837e+00 3.436865e+00 2.962742e+00 3.120551e+00 2.559502e+00 2.748240e+00 2.134193e+00 2.351320e+00 1.718984e+00 1.953498e+00 1.336791e+00 1.570664e+00 1.004635e+00 1.216164e+00 7.384871e-01 9.065200e-01 5.548300e-01 6.630342e-01 4.673679e-01 5.074292e-01 4.823044e-01 4.550799e-01 5.969363e-01 5.112585e-01 8.007241e-01 6.707512e-01 1.076632e+00 9.188344e-01 1.402042e+00 1.232328e+00 1.750026e+00 1.581107e+00 2.092255e+00 1.931741e+00 2.403797e+00 2.254265e+00 2.667921e+00 2.528949e+00 2.878454e+00 2.748865e+00 3.038867e+00 2.918188e+00 3.159266e+00 3.048333e+00 3.252869e+00 3.153893e+00 3.332958e+00 
3.418382e+00 3.584403e+00 3.498857e+00 3.661595e+00 3.609497e+00 3.769584e+00 3.757018e+00 3.906314e+00 3.937900e+00 4.057806e+00 4.135046e+00 4.196056e+00 4.316168e+00 4.280908e+00 4.437382e+00 4.269529e+00 4.455358e+00 4.133917e+00 4.346362e+00 3.877606e+00 4.119745e+00 3.534837e+00 3.808943e+00 3.149603e+00 3.448986e+00 2.755794e+00 3.061107e+00 2.371081e+00 2.652391e+00 2.003394e+00 2.227324e+00 1.662941e+00 1.802921e+00 1.371262e+00 1.416012e+00 1.159535e+00 1.113816e+00 1.055865e+00 9.353408e-01 1.075541e+00 9.003789e-01 1.217744e+00 1.007579e+00 1.465858e+00 1.236983e+00 1.789508e+00 1.554333e+00 2.148873e+00 1.916849e+00 2.502204e+00 2.280255e+00 2.814736e+00 2.606016e+00 3.064766e+00 2.869795e+00 3.246136e+00 3.064667e+00 3.366096e+00 3.198383e+00 3.440516e+00 3.287924e+00 3.489003e+00 3.354241e+00 3.531212e+00 
3.566744e+00 3.732007e+00 3.646761e+00 3.812135e+00 3.754116e+00 3.917235e+00 3.892349e+00 4.040446e+00 4.052273e+00 4.160644e+00 4.208549e+00 4.240876e+00 4.319092e+00 4.232239e+00 4.331859e+00 4.087434e+00 4.202570e+00 3.783519e+00 3.918847e+00 3.341278e+00 3.512137e+00 2.818862e+00 3.038684e+00 2.279471e+00 2.548673e+00 1.767195e+00 2.070749e+00 1.304641e+00 1.615560e+00 9.045068e-01 1.189602e+00 5.826189e-01 8.092390e-01 3.623401e-01 5.054029e-01 2.660047e-01 3.134537e-01 3.027796e-01 2.574277e-01 4.676430e-01 3.444270e-01 7.455066e-01 5.665925e-01 1.113845e+00 9.040011e-01 1.542777e+00 1.325451e+00 1.994983e+00 1.788185e+00 2.429036e+00 2.241380e+00 2.808001e+00 2.638981e+00 3.108811e+00 2.953750e+00 3.326417e+00 3.180808e+00 3.471027e+00 3.332584e+00 3.562017e+00 3.431081e+00 3.622022e+00 3.501285e+00 3.672700e+00 
3.645431e+00 3.803853e+00 3.691878e+00 3.866832e+00 3.791676e+00 3.987613e+00 3.959076e+00 4.168869e+00 4.195331e+00 4.396213e+00 4.481401e+00 4.631085e+00 4.770903e+00 4.808360e+00 4.990538e+00 4.848753e+00 5.058919e+00 4.693867e+00 4.928075e+00 4.349335e+00 4.622030e+00 3.886489e+00 4.213430e+00 3.387877e+00 3.767354e+00 2.904198e+00 3.309924e+00 2.447176e+00 2.831783e+00 2.007764e+00 2.315009e+00 1.584005e+00 1.768784e+00 1.203498e+00 1.250522e+00 9.213683e-01 8.439612e-01 7.862993e-01 6.135466e-01 8.226217e-01 5.873040e-01 1.029172e+00 7.598517e-01 1.382065e+00 1.099455e+00 1.836704e+00 1.554285e+00 2.332362e+00 2.060308e+00 2.804321e+00 2.551492e+00 3.200785e+00 2.968342e+00 3.491978e+00 3.276775e+00 3.674430e+00 3.473182e+00 3.765494e+00 3.576611e+00 3.793648e+00 3.617669e+00 3.790335e+00 3.629986e+00 3.785185e+00 