# vtk DataFile Version 2.0
Comment goes here
ASCII

DATASET STRUCTURED_POINTS
DIMENSIONS    64   64   1

ORIGIN    0.000   0.000   0.000
SPACING   0.0156250.015625   1.000

POINT_DATA   4096
SCALARS P double
LOOKUP_TABLE default

2.081811e+00 1.926087e+00 1.811446e+00 1.634630e+00 1.513773e+00 1.307447e+00 1.174290e+00 9.339971e-01 7.723956e-01 5.030980e-01 2.855993e-01 7.617390e-03 -3.017745e-01 -5.536277e-01 -9.855756e-01 -1.184558e+00 -1.732504e+00 -1.904499e+00 -2.490549e+00 -2.695785e+00 -3.206346e+00 -3.415649e+00 -3.787900e+00 -3.932376e+00 -4.161240e+00 -4.175149e+00 -4.289843e+00 -4.121360e+00 -4.166983e+00 -3.789258e+00 -3.810624e+00 -3.253433e+00 -3.262203e+00 -2.639624e+00 -2.583036e+00 -2.033739e+00 -1.885782e+00 -1.474629e+00 -1.244820e+00 -9.736723e-01 -6.702784e-01 -5.139190e-01 -1.239758e-01 -5.288354e-02 4.466199e-01 4.637614e-01 1.067128e+00 1.073917e+00 1.706549e+00 1.739391e+00 2.285538e+00 2.284715e+00 2.678629e+00 2.620707e+00 2.856302e+00 2.754140e+00 2.858559e+00 2.733178e+00 2.742845e+00 2.608693e+00 2.556830e+00 2.419090e+00 2.331344e+00 2.187930e+00 
1.824337e+00 1.731535e+00 1.596194e+00 1.478670e+00 1.334045e+00 1.188994e+00 1.028865e+00 8.551424e-01 6.652203e-01 4.654926e-01 2.246083e-01 7.103720e-03 -3.071496e-01 -5.294520e-01 -9.274856e-01 -1.143184e+00 -1.604675e+00 -1.814358e+00 -2.280040e+00 -2.493577e+00 -2.890594e+00 -3.080400e+00 -3.370146e+00 -3.486988e+00 -3.669521e+00 -3.663429e+00 -3.762469e+00 -3.594005e+00 -3.641299e+00 -3.295835e+00 -3.315736e+00 -2.827723e+00 -2.819967e+00 -2.285390e+00 -2.221148e+00 -1.752702e+00 -1.616690e+00 -1.280630e+00 -1.078029e+00 -8.887222e-01 -6.239213e-01 -5.642023e-01 -2.288785e-01 -2.652091e-01 1.539467e-01 6.910848e-02 5.669972e-01 4.948001e-01 1.025436e+00 1.016224e+00 1.501684e+00 1.535692e+00 1.902527e+00 1.941116e+00 2.163673e+00 2.183785e+00 2.277279e+00 2.272386e+00 2.269340e+00 2.240658e+00 2.173986e+00 2.123886e+00 2.019589e+00 1.948805e+00 
1.783892e+00 1.640344e+00 1.537933e+00 1.377256e+00 1.257349e+00 1.076239e+00 9.347964e-01 7.331245e-01 5.599580e-01 3.433758e-01 1.231926e-01 -9.543973e-02 -3.789767e-01 -5.825313e-01 -9.375752e-01 -1.114948e+00 -1.527750e+00 -1.685354e+00 -2.112192e+00 -2.262375e+00 -2.646308e+00 -2.773173e+00 -3.075381e+00 -3.143511e+00 -3.352810e+00 -3.324968e+00 -3.451370e+00 -3.300118e+00 -3.364338e+00 -3.082528e+00 -3.104085e+00 -2.717434e+00 -2.700536e+00 -2.270748e+00 -2.199000e+00 -1.797456e+00 -1.659007e+00 -1.330580e+00 -1.125145e+00 -8.834018e-01 -6.128125e-01 -4.512410e-01 -1.132455e-01 -1.623025e-02 3.896845e-01 4.419200e-01 8.992319e-01 9.282897e-01 1.392519e+00 1.410635e+00 1.823265e+00 1.815591e+00 2.135981e+00 2.093265e+00 2.308914e+00 2.234805e+00 2.354234e+00 2.258016e+00 2.299695e+00 2.189413e+00 2.173561e+00 2.053202e+00 1.997342e+00 1.866839e+00 
1.544230e+00 1.461319e+00 1.340815e+00 1.237074e+00 1.098393e+00 9.730316e-01 8.130319e-01 6.666765e-01 4.776570e-01 3.133986e-01 8.509744e-02 -9.098135e-02 -3.669716e-01 -5.466416e-01 -8.697320e-01 -1.045256e+00 -1.398549e+00 -1.565145e+00 -1.914830e+00 -2.067049e+00 -2.374677e+00 -2.493834e+00 -2.734663e+00 -2.792406e+00 -2.960721e+00 -2.928613e+00 -3.032833e+00 -2.891327e+00 -2.945601e+00 -2.693494e+00 -2.708765e+00 -2.372465e+00 -2.349213e+00 -1.982628e+00 -1.911318e+00 -1.575723e+00 -1.449493e+00 -1.187763e+00 -1.006516e+00 -8.351090e-01 -6.001252e-01 -5.140386e-01 -2.244961e-01 -2.042942e-01 1.387656e-01 1.221644e-01 5.062857e-01 4.857695e-01 8.800030e-01 8.789939e-01 1.239423e+00 1.255672e+00 1.542111e+00 1.560960e+00 1.754007e+00 1.762846e+00 1.864636e+00 1.857083e+00 1.882559e+00 1.856676e+00 1.824648e+00 1.780201e+00 1.707722e+00 1.644461e+00 
1.518437e+00 1.391153e+00 1.299006e+00 1.157781e+00 1.042866e+00 8.871138e-01 7.475683e-01 5.788753e-01 4.094270e-01 2.327039e-01 2.616497e-02 -1.502525e-01 -3.997616e-01 -5.661337e-01 -8.579731e-01 -1.007321e+00 -1.328699e+00 -1.459533e+00 -1.784168e+00 -1.895178e+00 -2.191371e+00 -2.271204e+00 -2.514651e+00 -2.543623e+00 -2.723511e+00 -2.681250e+00 -2.798859e+00 -2.671875e+00 -2.735311e+00 -2.523669e+00 -2.541159e+00 -2.263405e+00 -2.237090e+00 -1.928758e+00 -1.853592e+00 -1.554917e+00 -1.426212e+00 -1.166936e+00 -9.840090e-01 -7.781968e-01 -5.426540e-01 -3.915155e-01 -1.060418e-01 -2.918804e-03 3.258067e-01 3.914429e-01 7.471273e-01 7.861361e-01 1.140486e+00 1.158802e+00 1.478492e+00 1.473358e+00 1.732720e+00 1.701578e+00 1.888897e+00 1.833483e+00 1.949626e+00 1.874447e+00 1.928047e+00 1.837599e+00 1.840306e+00 1.737377e+00 1.700514e+00 1.585821e+00 
1.304001e+00 1.232165e+00 1.124408e+00 1.035244e+00 9.056496e-01 7.993540e-01 6.471919e-01 5.251082e-01 3.472633e-01 2.123839e-01 5.078331e-03 -1.378012e-01 -3.761364e-01 -5.208814e-01 -7.859626e-01 -9.260616e-01 -1.204986e+00 -1.333968e+00 -1.606098e+00 -1.715724e+00 -1.958713e+00 -2.035577e+00 -2.233242e+00 -2.260289e+00 -2.406031e+00 -2.367394e+00 -2.462713e+00 -2.349296e+00 -2.399667e+00 -2.214457e+00 -2.224654e+00 -1.986148e+00 -1.956935e+00 -1.697073e+00 -1.625521e+00 -1.379917e+00 -1.263532e+00 -1.059669e+00 -8.984839e-01 -7.499603e-01 -5.456206e-01 -4.525943e-01 -2.078278e-01 -1.602046e-01 1.191405e-01 1.378546e-01 4.391088e-01 4.468838e-01 7.486725e-01 7.581670e-01 1.033832e+00 1.046981e+00 1.272473e+00 1.284155e+00 1.445565e+00 1.449489e+00 1.544626e+00 1.536344e+00 1.571533e+00 1.548682e+00 1.534254e+00 1.495715e+00 1.442363e+00 1.387465e+00 
1.290306e+00 1.180639e+00 1.096768e+00 9.755830e-01 8.675257e-01 7.355500e-01 6.031727e-01 4.625524e-01 3.040075e-01 1.588083e-01 -2.820594e-02 -1.721520e-01 -3.882618e-01 -5.244352e-01 -7.658436e-01 -8.886535e-01 -1.144889e+00 -1.250252e+00 -1.504406e+00 -1.587588e+00 -1.820379e+00 -1.872856e+00 -2.068406e+00 -2.078563e+00 -2.227843e+00 -2.184609e+00 -2.285407e+00 -2.182585e+00 -2.237064e+00 -2.077035e+00 -2.088309e+00 -1.883941e+00 -1.853203e+00 -1.626111e+00 -1.552170e+00 -1.326628e+00 -1.208322e+00 -1.004131e+00 -8.420943e-01 -6.710051e-01 -4.678248e-01 -3.337850e-01 -9.417817e-02 4.511309e-03 2.723008e-01 3.404571e-01 6.227769e-01 6.657957e-01 9.435666e-01 9.648784e-01 1.217256e+00 1.217275e+00 1.427313e+00 1.406024e+00 1.564187e+00 1.522940e+00 1.627234e+00 1.568561e+00 1.622497e+00 1.549068e+00 1.559053e+00 1.472823e+00 1.445936e+00 1.347873e+00 
1.104972e+00 1.044604e+00 9.471422e-01 8.723595e-01 7.525879e-01 6.640147e-01 5.228099e-01 4.220045e-01 2.591169e-01 1.488197e-01 -3.592011e-02 -1.517318e-01 -3.567024e-01 -4.730241e-01 -6.930103e-01 -8.041492e-01 -1.029347e+00 -1.128961e+00 -1.345884e+00 -1.426336e+00 -1.620873e+00 -1.672504e+00 -1.833618e+00 -1.845823e+00 -1.967521e+00 -1.931423e+00 -2.012398e+00 -1.924052e+00 -1.965775e+00 -1.828944e+00 -1.833321e+00 -1.660661e+00 -1.628419e+00 -1.439670e+00 -1.370360e+00 -1.187270e+00 -1.080684e+00 -9.210902e-01 -7.783157e-01 -6.525128e-01 -4.760955e-01 -3.862224e-01 -1.804030e-01 -1.218606e-01 1.064122e-01 1.424674e-01 3.822150e-01 4.056371e-01 6.416546e-01 6.597377e-01 8.747199e-01 8.898917e-01 1.068367e+00 1.079163e+00 1.211134e+00 1.214581e+00 1.296740e+00 1.290083e+00 1.324652e+00 1.305952e+00 1.298431e+00 1.266474e+00 1.223442e+00 1.177483e+00 
1.100066e+00 1.007927e+00 9.302211e-01 8.283500e-01 7.272864e-01 6.169433e-01 4.935826e-01 3.769708e-01 2.316310e-01 1.121232e-01 -5.473811e-02 -1.727340e-01 -3.592358e-01 -4.708034e-01 -6.722455e-01 -7.726005e-01 -9.805980e-01 -1.065222e+00 -1.268188e+00 -1.332058e+00 -1.517342e+00 -1.554072e+00 -1.710785e+00 -1.713181e+00 -1.834103e+00 -1.796078e+00 -1.877942e+00 -1.796883e+00 -1.839316e+00 -1.718030e+00 -1.721894e+00 -1.569306e+00 -1.535319e+00 -1.365207e+00 -1.293632e+00 -1.121427e+00 -1.012871e+00 -8.520167e-01 -7.082744e-01 -5.679622e-01 -3.924275e-01 -2.771875e-01 -7.521255e-02 1.422314e-02 2.347135e-01 2.999921e-01 5.280096e-01 5.716140e-01 7.936297e-01 8.175443e-01 1.019535e+00 1.024746e+00 1.194985e+00 1.182209e+00 1.313221e+00 1.283603e+00 1.372565e+00 1.327716e+00 1.375612e+00 1.317229e+00 1.327442e+00 1.256931e+00 1.233844e+00 1.152179e+00 
9.452827e-01 8.963912e-01 8.065852e-01 7.455603e-01 6.347377e-01 5.623287e-01 4.323340e-01 3.500664e-01 2.023079e-01 1.126157e-01 -5.117907e-02 -1.449254e-01 -3.217490e-01 -4.153373e-01 -6.000352e-01 -6.885551e-01 -8.735158e-01 -9.514042e-01 -1.127228e+00 -1.188169e+00 -1.345295e+00 -1.382297e+00 -1.512862e+00 -1.519098e+00 -1.618068e+00 -1.588442e+00 -1.653621e+00 -1.586568e+00 -1.617751e+00 -1.516634e+00 -1.514474e+00 -1.387919e+00 -1.353101e+00 -1.213716e+00 -1.146852e+00 -1.008442e+00 -9.105652e-01 -7.849451e-01 -6.580337e-01 -5.528119e-01 -4.000800e-01 -3.179593e-01 -1.441468e-01 -8.352974e-02 1.046394e-01 1.481827e-01 3.416252e-01 3.734071e-01 5.609659e-01 5.852176e-01 7.550016e-01 7.736639e-01 9.151305e-01 9.280090e-01 1.033855e+00 1.039571e+00 1.106532e+00 1.103435e+00 1.131883e+00 1.118544e+00 1.111355e+00 1.086721e+00 1.047978e+00 1.011368e+00 
9.458800e-01 8.705262e-01 7.967544e-01 7.129372e-01 6.178094e-01 5.268960e-01 4.122353e-01 3.162598e-01 1.836683e-01 8.544328e-02 -6.314455e-02 -1.601074e-01 -3.216986e-01 -4.134452e-01 -5.833035e-01 -6.657218e-01 -8.370682e-01 -9.059719e-01 -1.070405e+00 -1.121348e+00 -1.270024e+00 -1.298196e+00 -1.423306e+00 -1.424021e+00 -1.519873e+00 -1.489659e+00 -1.552983e+00 -1.490875e+00 -1.520412e+00 -1.428943e+00 -1.424679e+00 -1.310101e+00 -1.272596e+00 -1.144036e+00 -1.074210e+00 -9.419039e-01 -8.412946e-01 -7.145889e-01 -5.857419e-01 -4.716783e-01 -3.184356e-01 -2.212639e-01 -4.899896e-02 2.953583e-02 2.137089e-01 2.736288e-01 4.608634e-01 5.030755e-01 6.833466e-01 7.088893e-01 8.722074e-01 8.819053e-01 1.019812e+00 1.014413e+00 1.121098e+00 1.101497e+00 1.174156e+00 1.141425e+00 1.179914e+00 1.135164e+00 1.141236e+00 1.085465e+00 1.061916e+00 9.959635e-01 
8.215827e-01 7.840200e-01 6.991667e-01 6.511509e-01 5.474344e-01 4.896648e-01 3.694738e-01 3.033102e-01 1.689544e-01 9.649728e-02 -4.935938e-02 -1.252517e-01 -2.790830e-01 -3.548474e-01 -5.118695e-01 -5.833334e-01 -7.374560e-01 -7.999363e-01 -9.442239e-01 -9.926488e-01 -1.120226e+00 -1.149427e+00 -1.254481e+00 -1.259838e+00 -1.338284e+00 -1.316690e+00 -1.366286e+00 -1.317155e+00 -1.337156e+00 -1.263122e+00 -1.253745e+00 -1.160684e+00 -1.122683e+00 -1.018858e+00 -9.534061e-01 -8.478609e-01 -7.567145e-01 -6.574605e-01 -5.431981e-01 -4.558541e-01 -3.220697e-01 -2.492982e-01 -1.007721e-01 -4.250997e-02 1.146355e-01 1.603564e-01 3.186505e-01 3.545641e-01 5.055594e-01 5.340423e-01 6.691769e-01 6.915250e-01 8.032916e-01 8.196293e-01 9.026146e-01 9.122513e-01 9.636419e-01 9.655295e-01 9.849816e-01 9.780560e-01 9.671124e-01 9.504825e-01 9.118173e-01 8.848610e-01 
8.247746e-01 7.652661e-01 6.931002e-01 6.259690e-01 5.349564e-01 4.614386e-01 3.538770e-01 2.757247e-01 1.539482e-01 7.349399e-02 -5.981233e-02 -1.396967e-01 -2.811120e-01 -3.571500e-01 -5.022021e-01 -5.708696e-01 -7.139667e-01 -7.715946e-01 -9.063421e-01 -9.491647e-01 -1.069048e+00 -1.093345e+00 -1.192552e+00 -1.195054e+00 -1.269117e+00 -1.247676e+00 -1.293727e+00 -1.248036e+00 -1.264698e+00 -1.196796e+00 -1.183845e+00 -1.098152e+00 -1.056206e+00 -9.589669e-01 -8.893443e-01 -7.875957e-01 -6.923826e-01 -5.927855e-01 -4.749878e-01 -3.829246e-01 -2.465985e-01 -1.657501e-01 -1.608163e-02 5.153117e-02 2.082302e-01 2.618870e-01 4.183583e-01 4.581443e-01 6.066528e-01 6.330059e-01 7.661021e-01 7.795451e-01 8.909245e-01 8.920111e-01 9.771726e-01 9.665171e-01 1.023024e+00 1.001297e+00 1.028631e+00 9.965120e-01 9.956561e-01 9.537818e-01 9.266910e-01 8.756688e-01 
7.300544e-01 7.036677e-01 6.210560e-01 5.853503e-01 4.863522e-01 4.418630e-01 3.291667e-01 2.770071e-01 1.533911e-01 9.531105e-02 -3.613318e-02 -9.773433e-02 -2.333571e-01 -2.954696e-01 -4.309060e-01 -4.899973e-01 -6.202171e-01 -6.723621e-01 -7.919880e-01 -8.330665e-01 -9.369081e-01 -9.629265e-01 -1.046557e+00 -1.054143e+00 -1.114309e+00 -1.101332e+00 -1.136093e+00 -1.102249e+00 -1.110856e+00 -1.058025e+00 -1.040682e+00 -9.728503e-01 -9.304937e-01 -8.531871e-01 -7.873915e-01 -7.066995e-01 -6.197050e-01 -5.411985e-01 -4.359911e-01 -3.638620e-01 -2.442456e-01 -1.808857e-01 -5.152479e-02 2.415264e-03 1.360070e-01 1.811727e-01 3.127667e-01 3.504372e-01 4.734330e-01 5.048524e-01 6.128482e-01 6.387578e-01 7.262400e-01 7.467264e-01 8.096662e-01 8.242691e-01 8.604331e-01 8.683683e-01 8.772804e-01 8.776587e-01 8.602859e-01 8.522823e-01 8.105862e-01 7.935639e-01 
7.334198e-01 6.888919e-01 6.159100e-01 5.642277e-01 4.750348e-01 4.171601e-01 3.143649e-01 2.517027e-01 1.380570e-01 7.250178e-02 -4.894308e-02 -1.150259e-01 -2.407368e-01 -3.045899e-01 -4.304273e-01 -4.890124e-01 -6.102554e-01 -6.603719e-01 -7.719498e-01 -8.103714e-01 -9.072786e-01 -9.309648e-01 -1.008745e+00 -1.015180e+00 -1.070326e+00 -1.057962e+00 -1.088126e+00 -1.056812e+00 -1.060823e+00 -1.012069e+00 -9.898159e-01 -9.267647e-01 -8.790581e-01 -8.061060e-01 -7.345978e-01 -6.567482e-01 -5.639219e-01 -4.860526e-01 -3.752447e-01 -3.015019e-01 -1.769048e-01 -1.103588e-01 2.302546e-02 8.043774e-02 2.169197e-01 2.642304e-01 3.976702e-01 4.345953e-01 5.587863e-01 5.854305e-01 6.946047e-01 7.112423e-01 8.005923e-01 8.075520e-01 8.736265e-01 8.712449e-01 9.121179e-01 9.007166e-01 9.159176e-01 8.957887e-01 8.860546e-01 8.574674e-01 8.244083e-01 7.876528e-01 
6.669849e-01 6.517294e-01 5.686439e-01 5.447135e-01 4.477462e-01 4.154244e-01 3.074449e-01 2.675398e-01 1.515731e-01 1.054710e-01 -1.521009e-02 -6.552940e-02 -1.873079e-01 -2.393014e-01 -3.581819e-01 -4.088257e-01 -5.205197e-01 -5.664499e-01 -6.666042e-01 -7.043304e-01 -7.888639e-01 -8.150722e-01 -8.805313e-01 -8.924776e-01 -9.363082e-01 -9.322492e-01 -9.529253e-01 -9.324908e-01 -9.295022e-01 -8.938859e-01 -8.676413e-01 -8.195147e-01 -7.712300e-01 -7.143512e-01 -6.459732e-01 -5.845630e-01 -4.987349e-01 -4.367836e-01 -3.368275e-01 -2.775207e-01 -1.674080e-01 -1.128081e-01 2.901111e-03 5.187460e-02 1.681415e-01 2.114735e-01 3.229692e-01 3.611531e-01 4.625528e-01 4.961675e-01 5.825398e-01 6.119238e-01 6.791520e-01 7.042462e-01 7.493744e-01 7.697266e-01 7.911398e-01 8.060105e-01 8.034150e-01 8.119215e-01 7.861575e-01 7.874168e-01 7.401795e-01 7.334370e-01 
6.685802e-01 6.384141e-01 5.620807e-01 5.248846e-01 4.349043e-01 3.912675e-01 2.904880e-01 2.414209e-01 1.328556e-01 7.983394e-02 -3.328203e-02 -8.832068e-02 -2.024661e-01 -2.571724e-01 -3.685159e-01 -4.202185e-01 -5.246788e-01 -5.705091e-01 -6.639243e-01 -7.009842e-01 -7.793737e-01 -8.049638e-01 -8.648268e-01 -8.767430e-01 -9.153210e-01 -9.121858e-01 -9.276372e-01 -9.091896e-01 -9.006634e-01 -8.679172e-01 -8.355504e-01 -7.907464e-01 -7.356262e-01 -6.819596e-01 -6.060805e-01 -5.472537e-01 -4.534751e-01 -3.931888e-01 -2.851760e-01 -2.266833e-01 -1.088116e-01 -5.463098e-02 6.815922e-02 1.163399e-01 2.387442e-01 2.799942e-01 3.966075e-01 4.305687e-01 5.362076e-01 5.628707e-01 6.529274e-01 6.724325e-01 7.432022e-01 7.556991e-01 8.046116e-01 8.101824e-01 8.358929e-01 8.345237e-01 8.368564e-01 8.284474e-01 8.082274e-01 7.926360e-01 7.514606e-01 7.285746e-01 
6.290556e-01 6.250935e-01 5.387827e-01 5.263448e-01 4.285387e-01 4.075767e-01 3.012896e-01 2.722534e-01 1.606635e-01 1.245599e-01 1.102550e-02 -3.055477e-02 -1.424840e-01 -1.873823e-01 -2.939949e-01 -3.395552e-01 -4.370759e-01 -4.802823e-01 -5.650456e-01 -6.027336e-01 -6.714127e-01 -7.005556e-01 -7.503982e-01 -7.684477e-01 -7.974695e-01 -8.026994e-01 -8.098023e-01 -8.015831e-01 -7.865919e-01 -7.655190e-01 -7.291587e-01 -6.969787e-01 -6.408205e-01 -6.001486e-01 -5.265457e-01 -4.804268e-01 -3.924432e-01 -3.438607e-01 -2.451847e-01 -1.966369e-01 -9.146777e-02 -4.470732e-02 6.238945e-02 1.064124e-01 2.106840e-01 2.516895e-01 3.484130e-01 3.865314e-01 4.712675e-01 5.067385e-01 5.756057e-01 6.085221e-01 6.584530e-01 6.886061e-01 7.175375e-01 7.443774e-01 7.513333e-01 7.740216e-01 7.590773e-01 7.765948e-01 7.407435e-01 7.520206e-01 6.969829e-01 7.010317e-01 
6.273546e-01 6.112998e-01 5.289241e-01 5.056244e-01 4.120106e-01 3.816008e-01 2.798247e-01 2.428769e-01 1.361574e-01 9.373168e-02 -1.457600e-02 -6.091976e-02 -1.673310e-01 -2.155614e-01 -3.164923e-01 -3.641803e-01 -4.560201e-01 -5.004619e-01 -5.796959e-01 -6.180926e-01 -6.814667e-01 -7.111639e-01 -7.558702e-01 -7.746443e-01 -7.984987e-01 -8.048528e-01 -8.064444e-01 -7.998502e-01 -7.786508e-01 -7.596724e-01 -7.161052e-01 -6.863548e-01 -6.218260e-01 -5.837435e-01 -5.006327e-01 -4.571295e-01 -3.587314e-01 -3.127756e-01 -2.031806e-01 -1.574199e-01 -4.133164e-02 2.171765e-03 1.196731e-01 1.595537e-01 2.732853e-01 3.088340e-01 4.138031e-01 4.448111e-01 5.365038e-01 5.630469e-01 6.376890e-01 6.599127e-01 7.146703e-01 7.326229e-01 7.657172e-01 7.792542e-01 7.899776e-01 7.987397e-01 7.873802e-01 7.908327e-01 7.585312e-01 7.560468e-01 7.046206e-01 6.955885e-01 
6.134663e-01 6.212629e-01 5.288872e-01 5.279909e-01 4.263318e-01 4.162804e-01 3.085078e-01 2.893340e-01 1.787632e-01 1.510676e-01 4.113079e-02 6.131164e-03 -9.965979e-02 -1.401185e-01 -2.382380e-01 -2.817312e-01 -3.687432e-01 -4.123906e-01 -4.850897e-01 -5.257663e-01 -5.813432e-01 -6.159697e-01 -6.521798e-01 -6.780595e-01 -6.933713e-01 -7.085200e-01 -7.022258e-01 -7.056271e-01 -6.779092e-01 -6.696337e-01 -6.215872e-01 -6.027392e-01 -5.363549e-01 -5.088453e-01 -4.269537e-01 -3.931425e-01 -2.993155e-01 -2.616024e-01 -1.600075e-01 -1.204649e-01 -1.567357e-02 2.419882e-02 1.274364e-01 1.667897e-01 2.637899e-01 3.023390e-01 3.887306e-01 4.265436e-01 4.984989e-01 5.357326e-01 5.901628e-01 6.268191e-01 6.615165e-01 6.972769e-01 7.109879e-01 7.451527e-01 7.375755e-01 7.690997e-01 7.408129e-01 7.684107e-01 7.207508e-01 7.430338e-01 6.779473e-01 6.935702e-01 
6.072891e-01 6.055673e-01 5.142466e-01 5.047085e-01 4.043864e-01 3.866311e-01 2.806403e-01 2.547518e-01 1.465237e-01 1.131338e-01 6.150287e-03 -3.352981e-02 -1.357904e-01 -1.799739e-01 -2.741027e-01 -3.204796e-01 -4.032138e-01 -4.490655e-01 -5.173728e-01 -5.597604e-01 -6.109282e-01 -6.469557e-01 -6.786903e-01 -7.058195e-01 -7.163622e-01 -7.327342e-01 -7.209954e-01 -7.256914e-01 -6.913962e-01 -6.845745e-01 -6.284011e-01 -6.112654e-01 -5.349476e-01 -5.095394e-01 -4.159011e-01 -3.847539e-01 -2.776445e-01 -2.433720e-01 -1.274898e-01 -9.239871e-02 2.698757e-02 6.117965e-02 1.785757e-01 2.108659e-01 3.209181e-01 3.509750e-01 4.488132e-01 4.767927e-01 5.583128e-01 5.845906e-01 6.466510e-01 6.715451e-01 7.120684e-01 7.356209e-01 7.536039e-01 7.754658e-01 7.709142e-01 7.903416e-01 7.641496e-01 7.800902e-01 7.338907e-01 7.451236e-01 6.811305e-01 6.864270e-01 
6.179696e-01 6.383921e-01 5.369632e-01 5.480711e-01 4.393891e-01 4.402162e-01 3.276434e-01 3.177317e-01 2.047479e-01 1.842430e-01 7.439262e-02 4.412897e-02 -5.904878e-02 -9.749250e-02 -1.905543e-01 -2.348607e-01 -3.145690e-01 -3.617827e-01 -4.252262e-01 -4.719717e-01 -5.166905e-01 -5.594979e-01 -5.836071e-01 -6.193021e-01 -6.216116e-01 -6.476969e-01 -6.278232e-01 -6.427755e-01 -6.012361e-01 -6.046548e-01 -5.429318e-01 -5.355057e-01 -4.560650e-01 -4.393580e-01 -3.456061e-01 -3.217024e-01 -2.178650e-01 -1.889480e-01 -7.986264e-02 -4.782400e-02 6.133955e-02 9.517420e-02 1.992368e-01 2.342067e-01 3.283073e-01 3.643322e-01 4.442210e-01 4.815710e-01 5.438358e-01 5.828289e-01 6.250313e-01 6.657441e-01 6.864624e-01 7.285281e-01 7.273205e-01 7.698539e-01 7.471646e-01 7.888100e-01 7.458436e-01 7.849097e-01 7.234943e-01 7.581285e-01 6.805837e-01 7.089474e-01 
6.064205e-01 6.198294e-01 5.163831e-01 5.210074e-01 4.106452e-01 4.054600e-01 2.918239e-01 2.763632e-01 1.631451e-01 1.375797e-01 2.844255e-02 -6.360574e-03 -1.078792e-01 -1.503254e-01 -2.409148e-01 -2.886988e-01 -3.653601e-01 -4.155601e-01 -4.756535e-01 -5.249282e-01 -5.661836e-01 -6.110795e-01 -6.316021e-01 -6.689458e-01 -6.672672e-01 -6.945765e-01 -6.697825e-01 -6.856114e-01 -6.375426e-01 -6.416752e-01 -5.711616e-01 -5.646002e-01 -4.736691e-01 -4.584028e-01 -3.503864e-01 -3.289822e-01 -2.084621e-01 -1.835665e-01 -5.612699e-02 -2.998797e-02 9.819197e-02 1.240759e-01 2.467214e-01 2.717528e-01 3.829963e-01 4.074057e-01 5.022173e-01 5.267930e-01 6.012813e-01 6.269759e-01 6.785312e-01 7.060534e-01 7.333449e-01 7.628459e-01 7.657118e-01 7.966417e-01 7.759207e-01 8.070653e-01 7.644083e-01 7.940569e-01 7.317464e-01 7.579248e-01 6.787170e-01 6.994233e-01 
6.408597e-01 6.752823e-01 5.616018e-01 5.856806e-01 4.666136e-01 4.787779e-01 3.579252e-01 3.571306e-01 2.381898e-01 2.240416e-01 1.107388e-01 8.363268e-02 -2.037455e-02 -5.912060e-02 -1.503619e-01 -1.984369e-01 -2.737519e-01 -3.279080e-01 -3.845553e-01 -4.408401e-01 -4.765856e-01 -5.307492e-01 -5.439473e-01 -5.919559e-01 -5.816464e-01 -6.201930e-01 -5.862225e-01 -6.131280e-01 -5.562846e-01 -5.707103e-01 -4.928445e-01 -4.952778e-01 -3.993738e-01 -3.913864e-01 -2.815485e-01 -2.653687e-01 -1.466831e-01 -1.246699e-01 -2.924483e-03 2.293759e-02 1.416523e-01 1.701119e-01 2.798607e-01 3.105288e-01 4.059804e-01 4.392110e-01 5.160110e-01 5.525787e-01 6.075935e-01 6.482671e-01 6.796652e-01 7.247986e-01 7.319811e-01 7.812351e-01 7.646652e-01 8.169212e-01 7.779151e-01 8.313721e-01 7.718978e-01 8.242845e-01 7.467933e-01 7.956179e-01 7.029176e-01 7.456934e-01 
6.232887e-01 6.533150e-01 5.342165e-01 5.540278e-01 4.299842e-01 4.378351e-01 3.128622e-01 3.076586e-01 1.857883e-01 1.671805e-01 5.235249e-02 2.083173e-02 -8.325533e-02 -1.262693e-01 -2.163181e-01 -2.684307e-01 -3.416588e-01 -3.995484e-01 -4.536983e-01 -5.133136e-01 -5.465514e-01 -6.034898e-01 -6.142688e-01 -6.643097e-01 -6.513243e-01 -6.910180e-01 -6.533287e-01 -6.805072e-01 -6.178350e-01 -6.319208e-01 -5.450397e-01 -5.470646e-01 -4.381874e-01 -4.304967e-01 -3.035200e-01 -2.892131e-01 -1.496967e-01 -1.319303e-01 1.324690e-02 3.193224e-02 1.751822e-01 1.933555e-01 3.271190e-01 3.446613e-01 4.621263e-01 4.801001e-01 5.757768e-01 5.959956e-01 6.660617e-01 6.904643e-01 7.328451e-01 7.628437e-01 7.770652e-01 8.130633e-01 7.999738e-01 8.411853e-01 8.026444e-01 8.472155e-01 7.858117e-01 8.311417e-01 7.499648e-01 7.930900e-01 6.955660e-01 7.335071e-01 
6.809437e-01 7.313578e-01 6.019656e-01 6.405866e-01 5.075337e-01 5.320802e-01 3.992502e-01 4.079679e-01 2.793443e-01 2.711575e-01 1.507451e-01 1.254789e-01 1.717233e-02 -2.418697e-02 -1.167673e-01 -1.718591e-01 -2.455217e-01 -3.105730e-01 -3.626578e-01 -4.327326e-01 -4.611497e-01 -5.307046e-01 -5.339516e-01 -5.975820e-01 -5.748066e-01 -6.279953e-01 -5.791391e-01 -6.188385e-01 -5.448401e-01 -5.697878e-01 -4.727938e-01 -4.835170e-01 -3.670447e-01 -3.655499e-01 -2.345389e-01 -2.237250e-01 -8.440310e-02 -6.730829e-02 7.318744e-02 9.412640e-02 2.283267e-01 2.518026e-01 3.725686e-01 3.985830e-01 4.997404e-01 5.294021e-01 6.062492e-01 6.412637e-01 6.908631e-01 7.328595e-01 7.540554e-01 8.039449e-01 7.971305e-01 8.546882e-01 8.214409e-01 8.852189e-01 8.279282e-01 8.954672e-01 8.170328e-01 8.852324e-01 7.888571e-01 8.543593e-01 7.434274e-01 8.029203e-01 
6.569473e-01 7.058911e-01 5.672058e-01 6.039497e-01 4.622094e-01 4.841904e-01 3.438497e-01 3.492527e-01 2.147907e-01 2.026495e-01 7.843233e-02 4.877416e-02 -6.117828e-02 -1.071544e-01 -1.994447e-01 -2.592075e-01 -3.312597e-01 -4.008906e-01 -4.509306e-01 -5.252893e-01 -5.520562e-01 -6.252583e-01 -6.275995e-01 -6.937885e-01 -6.704354e-01 -7.246826e-01 -6.743770e-01 -7.134843e-01 -6.354342e-01 -6.584427e-01 -5.529809e-01 -5.612483e-01 -4.305276e-01 -4.273145e-01 -2.758167e-01 -2.654512e-01 -1.000584e-01 -8.688104e-02 8.362373e-02 9.628589e-02 2.621667e-01 2.727479e-01 4.244429e-01 4.334331e-01 5.626102e-01 5.723344e-01 6.726986e-01 6.866216e-01 7.543399e-01 7.760377e-01 8.097186e-01 8.417893e-01 8.420933e-01 8.853735e-01 8.544701e-01 9.078150e-01 8.488675e-01 9.094643e-01 8.262250e-01 8.901987e-01 7.867304e-01 8.497811e-01 7.302887e-01 7.881950e-01 
7.375158e-01 8.066363e-01 6.577774e-01 7.132226e-01 5.623005e-01 6.009840e-01 4.521934e-01 4.714993e-01 3.291883e-01 3.271382e-01 1.957220e-01 1.713096e-01 5.508397e-02 8.750835e-03 -8.835913e-02 -1.542412e-01 -2.289108e-01 -3.097942e-01 -3.594054e-01 -4.488149e-01 -4.714053e-01 -5.617575e-01 -5.559050e-01 -6.396762e-01 -6.044929e-01 -6.753731e-01 -6.106917e-01 -6.644500e-01 -5.711483e-01 -6.060938e-01 -4.864529e-01 -5.034631e-01 -3.614805e-01 -3.635827e-01 -2.051689e-01 -1.966848e-01 -2.958824e-02 -1.497496e-02 1.517400e-01 1.690655e-01 3.258886e-01 3.443835e-01 4.823391e-01 5.025940e-01 6.141589e-01 6.385460e-01 7.183804e-01 7.502087e-01 7.955543e-01 8.379557e-01 8.485622e-01 9.034263e-01 8.810422e-01 9.483467e-01 8.960345e-01 9.737919e-01 8.953167e-01 9.800379e-01 8.794403e-01 9.668112e-01 8.481666e-01 9.336596e-01 8.009837e-01 8.802644e-01 
7.070012e-01 7.780999e-01 6.154455e-01 6.716852e-01 5.077941e-01 5.457200e-01 3.855326e-01 4.025087e-01 2.510893e-01 2.453870e-01 1.077613e-01 7.876665e-02 -4.044831e-02 -9.191786e-02 -1.890254e-01 -2.603570e-01 -3.330072e-01 -4.195200e-01 -4.667106e-01 -5.616977e-01 -5.831456e-01 -6.784690e-01 -6.736407e-01 -7.609077e-01 -7.284447e-01 -8.004451e-01 -7.383148e-01 -7.903112e-01 -6.965498e-01 -7.271252e-01 -6.009294e-01 -6.121801e-01 -4.551335e-01 -4.520712e-01 -2.691694e-01 -2.584057e-01 -5.835183e-02 -4.643736e-02 1.591330e-01 1.673369e-01 3.654131e-01 3.679109e-01 5.458716e-01 5.439827e-01 6.911683e-01 6.891764e-01 7.980608e-01 8.021112e-01 8.688734e-01 8.852677e-01 9.095896e-01 9.428942e-01 9.271142e-01 9.788188e-01 9.269419e-01 9.952304e-01 9.121265e-01 9.926214e-01 8.834858e-01 9.704019e-01 8.404383e-01 9.276351e-01 7.819062e-01 8.635953e-01 
8.103511e-01 9.016943e-01 7.293218e-01 8.046782e-01 6.316921e-01 6.871288e-01 5.180296e-01 5.499027e-01 3.894889e-01 3.945822e-01 2.478665e-01 2.238665e-01 9.579738e-02 4.211839e-02 -6.284514e-02 -1.440660e-01 -2.223593e-01 -3.255514e-01 -3.746503e-01 -4.909795e-01 -5.091646e-01 -6.278392e-01 -6.137747e-01 -7.239978e-01 -6.765735e-01 -7.693776e-01 -6.879923e-01 -7.575031e-01 -6.426154e-01 -6.866851e-01 -5.403967e-01 -5.606721e-01 -3.872647e-01 -3.886488e-01 -1.950793e-01 -1.844731e-01 1.946554e-02 3.501244e-02 2.374574e-01 2.527151e-01 4.411332e-01 4.540630e-01 6.167272e-01 6.288555e-01 7.561663e-01 7.719691e-01 8.575542e-01 8.830563e-01 9.244093e-01 9.653136e-01 9.635941e-01 1.023444e+00 9.824361e-01 1.061468e+00 9.863291e-01 1.081553e+00 9.778525e-01 1.084071e+00 9.572333e-01 1.068305e+00 9.233751e-01 1.033195e+00 8.748161e-01 9.778342e-01 
7.737001e-01 8.712227e-01 6.797758e-01 7.589665e-01 5.679842e-01 6.244909e-01 4.393929e-01 4.696702e-01 2.962680e-01 2.976182e-01 1.419673e-01 1.128182e-01 -1.935578e-02 -7.893171e-02 -1.832063e-01 -2.707877e-01 -3.450377e-01 -4.551397e-01 -4.997631e-01 -6.235177e-01 -6.401793e-01 -7.660180e-01 -7.553776e-01 -8.709346e-01 -8.313932e-01 -9.258858e-01 -8.538940e-01 -9.201987e-01 -8.115284e-01 -8.475763e-01 -6.990619e-01 -7.082869e-01 -5.199174e-01 -5.103968e-01 -2.873870e-01 -2.696759e-01 -2.332387e-02 -7.811721e-03 2.458379e-01 2.515774e-01 4.944747e-01 4.875666e-01 7.024572e-01 6.854004e-01 8.581223e-01 8.382649e-01 9.594897e-01 9.473643e-01 1.013488e+00 1.020012e+00 1.032640e+00 1.065687e+00 1.029825e+00 1.091766e+00 1.014052e+00 1.101657e+00 9.892069e-01 1.095381e+00 9.551488e-01 1.071146e+00 9.096251e-01 1.026756e+00 8.498908e-01 9.604458e-01 
8.997427e-01 1.017622e+00 8.174606e-01 9.166616e-01 7.171111e-01 7.929451e-01 5.987389e-01 6.463948e-01 4.628657e-01 4.774157e-01 3.104519e-01 2.874500e-01 1.430787e-01 7.991612e-02 -3.646443e-02 -1.385963e-01 -2.230356e-01 -3.573732e-01 -4.076774e-01 -5.617201e-01 -5.768345e-01 -7.346299e-01 -7.134629e-01 -8.591063e-01 -8.000421e-01 -9.206451e-01 -8.220965e-01 -9.095100e-01 -7.709329e-01 -8.224845e-01 -6.452626e-01 -6.639090e-01 -4.521130e-01 -4.458899e-01 -2.073629e-01 -1.875969e-01 6.505437e-02 8.675782e-02 3.374688e-01 3.527001e-01 5.844353e-01 5.902845e-01 7.872466e-01 7.867832e-01 9.362060e-01 9.373980e-01 1.031250e+00 1.044704e+00 1.080929e+00 1.116766e+00 1.098962e+00 1.163542e+00 1.098767e+00 1.192508e+00 1.088976e+00 1.206863e+00 1.072512e+00 1.206374e+00 1.048248e+00 1.189131e+00 1.013270e+00 1.152971e+00 9.645438e-01 1.096174e+00 
8.581261e-01 9.873736e-01 7.619675e-01 8.684621e-01 6.449690e-01 7.236017e-01 5.077816e-01 5.540565e-01 3.526169e-01 3.625898e-01 1.831885e-01 1.538110e-01 4.255708e-03 -6.584836e-02 -1.794157e-01 -2.887318e-01 -3.641828e-01 -5.067428e-01 -5.471324e-01 -7.112247e-01 -7.224378e-01 -8.911598e-01 -8.763042e-01 -1.030936e+00 -9.878646e-01 -1.111974e+00 -1.034348e+00 -1.117032e+00 -9.966172e-01 -1.034706e+00 -8.638830e-01 -8.630086e-01 -6.381003e-01 -6.115704e-01 -3.371536e-01 -3.021083e-01 6.587164e-03 3.327051e-02 3.530527e-01 3.592020e-01 6.641829e-01 6.453631e-01 9.113555e-01 8.717708e-01 1.079361e+00 1.031095e+00 1.168260e+00 1.129039e+00 1.192916e+00 1.181697e+00 1.177636e+00 1.208049e+00 1.145482e+00 1.220882e+00 1.110233e+00 1.224240e+00 1.075497e+00 1.216092e+00 1.038272e+00 1.192036e+00 9.930154e-01 1.147790e+00 9.343243e-01 1.080203e+00 
1.006607e+00 1.155951e+00 9.236613e-01 1.051396e+00 8.205484e-01 9.215902e-01 6.969437e-01 7.653094e-01 5.527763e-01 5.812278e-01 3.879880e-01 3.685925e-01 2.025208e-01 1.286818e-01 -3.064604e-03 -1.328744e-01 -2.256503e-01 -4.036391e-01 -4.561996e-01 -6.639121e-01 -6.770449e-01 -8.898666e-01 -8.632121e-01 -1.057163e+00 -9.880471e-01 -1.144597e+00 -1.029430e+00 -1.137419e+00 -9.737675e-01 -1.029850e+00 -8.176181e-01 -8.266121e-01 -5.685733e-01 -5.434381e-01 -2.473300e-01 -2.068256e-01 1.106217e-01 1.468713e-01 4.628953e-01 4.810086e-01 7.718529e-01 7.675717e-01 1.011575e+00 9.905754e-01 1.170124e+00 1.146094e+00 1.250287e+00 1.241525e+00 1.269082e+00 1.293434e+00 1.252545e+00 1.321396e+00 1.224668e+00 1.338121e+00 1.198263e+00 1.346991e+00 1.174937e+00 1.345406e+00 1.149949e+00 1.328856e+00 1.116894e+00 1.293367e+00 1.070333e+00 1.236261e+00 