# vtk DataFile Version 2.0
Comment goes here
ASCII

DATASET STRUCTURED_POINTS
DIMENSIONS    64   64   1

ORIGIN    0.000   0.000   0.000
SPACING   0.0156250.015625   1.000

POINT_DATA   4096
SCALARS P double
LOOKUP_TABLE default

7.059816e-01 4.850090e-01 5.334867e-01 2.889481e-01 3.479759e-01 7.671365e-02 1.451358e-01 -1.580570e-01 -8.212040e-02 -4.237026e-01 -3.442254e-01 -7.292555e-01 -6.539411e-01 -1.079817e+00 -1.020411e+00 -1.466277e+00 -1.434030e+00 -1.852002e+00 -1.847176e+00 -2.175370e+00 -2.186584e+00 -2.396431e+00 -2.420131e+00 -2.502231e+00 -2.537417e+00 -2.484912e+00 -2.529671e+00 -2.333455e+00 -2.385452e+00 -2.039680e+00 -2.096948e+00 -1.611774e+00 -1.672534e+00 -1.088056e+00 -1.148405e+00 -5.387952e-01 -5.863975e-01 -1.818650e-02 -5.033732e-02 4.422074e-01 4.188186e-01 8.264639e-01 8.034575e-01 1.125688e+00 1.098549e+00 1.334932e+00 1.304154e+00 1.457964e+00 1.425045e+00 1.508652e+00 1.471129e+00 1.492702e+00 1.452957e+00 1.420150e+00 1.385392e+00 1.306543e+00 1.283555e+00 1.166644e+00 1.159048e+00 1.010721e+00 1.019164e+00 8.442967e-01 8.677006e-01 6.692712e-01 
7.055864e-01 5.085675e-01 5.323331e-01 3.078733e-01 3.448815e-01 9.234179e-02 1.396011e-01 -1.432199e-01 -8.897207e-02 -4.047964e-01 -3.476862e-01 -6.974754e-01 -6.428767e-01 -1.021632e+00 -9.756556e-01 -1.366434e+00 -1.333953e+00 -1.703447e+00 -1.685714e+00 -1.990974e+00 -1.985580e+00 -2.199997e+00 -2.205028e+00 -2.316020e+00 -2.327761e+00 -2.327164e+00 -2.339820e+00 -2.219446e+00 -2.227417e+00 -1.982563e+00 -1.983363e+00 -1.623149e+00 -1.618661e+00 -1.176409e+00 -1.169493e+00 -6.985194e-01 -6.861928e-01 -2.344436e-01 -2.137688e-01 1.899249e-01 2.186738e-01 5.637667e-01 5.959609e-01 8.835754e-01 9.090504e-01 1.145628e+00 1.149054e+00 1.341131e+00 1.308355e+00 1.457315e+00 1.387601e+00 1.488186e+00 1.396431e+00 1.443838e+00 1.349896e+00 1.343831e+00 1.263266e+00 1.207683e+00 1.148814e+00 1.049811e+00 1.014916e+00 8.787333e-01 8.664558e-01 6.981937e-01 
6.448819e-01 4.446562e-01 4.854053e-01 2.623997e-01 3.115533e-01 6.480332e-02 1.206866e-01 -1.514387e-01 -9.123868e-02 -3.899226e-01 -3.291626e-01 -6.529136e-01 -5.971125e-01 -9.381144e-01 -8.939931e-01 -1.233875e+00 -1.206918e+00 -1.515568e+00 -1.506558e+00 -1.749849e+00 -1.755233e+00 -1.910072e+00 -1.927293e+00 -1.980938e+00 -2.008332e+00 -1.953358e+00 -1.989198e+00 -1.821593e+00 -1.863984e+00 -1.585738e+00 -1.632706e+00 -1.257315e+00 -1.306548e+00 -8.635294e-01 -9.115905e-01 -4.440905e-01 -4.859750e-01 -3.517179e-02 -6.925067e-02 3.370900e-01 3.084686e-01 6.560257e-01 6.291861e-01 9.116477e-01 8.841135e-01 1.099170e+00 1.070419e+00 1.219528e+00 1.189860e+00 1.278472e+00 1.247965e+00 1.281852e+00 1.252449e+00 1.237548e+00 1.213093e+00 1.155588e+00 1.139963e+00 1.045830e+00 1.041563e+00 9.160293e-01 9.240284e-01 7.712108e-01 7.911767e-01 6.139094e-01 
6.412696e-01 4.655418e-01 4.828437e-01 2.812361e-01 3.095232e-01 8.295244e-02 1.196126e-01 -1.314771e-01 -8.937150e-02 -3.640242e-01 -3.198831e-01 -6.149533e-01 -5.726644e-01 -8.804324e-01 -8.439111e-01 -1.149644e+00 -1.121867e+00 -1.403298e+00 -1.385361e+00 -1.617076e+00 -1.608211e+00 -1.770518e+00 -1.769165e+00 -1.849534e+00 -1.853125e+00 -1.843809e+00 -1.848982e+00 -1.745767e+00 -1.749413e+00 -1.553459e+00 -1.553906e+00 -1.275898e+00 -1.273197e+00 -9.362215e-01 -9.308535e-01 -5.669020e-01 -5.580479e-01 -1.977914e-01 -1.848594e-01 1.496624e-01 1.655131e-01 4.623027e-01 4.773598e-01 7.321670e-01 7.399894e-01 9.529381e-01 9.455054e-01 1.117857e+00 1.089046e+00 1.220603e+00 1.170780e+00 1.259324e+00 1.196111e+00 1.239654e+00 1.173937e+00 1.172540e+00 1.114073e+00 1.070082e+00 1.025252e+00 9.424881e-01 9.141725e-01 7.968800e-01 7.853348e-01 6.373541e-01 
5.967524e-01 4.171188e-01 4.515255e-01 2.510360e-01 2.920040e-01 7.141242e-02 1.171853e-01 -1.226761e-01 -7.443853e-02 -3.317040e-01 -2.841276e-01 -5.544091e-01 -5.113950e-01 -7.858991e-01 -7.515861e-01 -1.015613e+00 -9.931714e-01 -1.226637e+00 -1.217027e+00 -1.398526e+00 -1.400695e+00 -1.513300e+00 -1.525819e+00 -1.558472e+00 -1.579957e+00 -1.526547e+00 -1.555531e+00 -1.414557e+00 -1.449430e+00 -1.225241e+00 -1.264224e+00 -9.691329e-01 -1.010170e+00 -6.654396e-01 -7.060697e-01 -3.394010e-01 -3.770674e-01 -1.581377e-02 -4.940335e-02 2.850842e-01 2.549082e-01 5.486586e-01 5.204098e-01 7.653515e-01 7.378422e-01 9.300695e-01 9.029043e-01 1.041877e+00 1.015253e+00 1.103148e+00 1.077666e+00 1.117955e+00 1.095097e+00 1.091928e+00 1.073979e+00 1.031864e+00 1.021154e+00 9.446097e-01 9.428179e-01 8.360003e-01 8.438900e-01 7.103253e-01 7.278366e-01 5.702708e-01 
5.911377e-01 4.348515e-01 4.481052e-01 2.684479e-01 2.906391e-01 8.960496e-02 1.186063e-01 -1.016977e-01 -6.831198e-02 -3.049305e-01 -2.698623e-01 -5.179297e-01 -4.840344e-01 -7.355519e-01 -7.055149e-01 -9.484776e-01 -9.243180e-01 -1.143112e+00 -1.125760e+00 -1.303633e+00 -1.292904e+00 -1.415651e+00 -1.410569e+00 -1.468086e+00 -1.467018e+00 -1.453217e+00 -1.454148e+00 -1.366949e+00 -1.368012e+00 -1.210304e+00 -1.210296e+00 -9.914437e-01 -9.899351e-01 -7.262336e-01 -7.231414e-01 -4.354842e-01 -4.306372e-01 -1.397773e-01 -1.333930e-01 1.439826e-01 1.506526e-01 4.033854e-01 4.077092e-01 6.295614e-01 6.276798e-01 8.157256e-01 8.034793e-01 9.563262e-01 9.310558e-01 1.047472e+00 1.009885e+00 1.088410e+00 1.042848e+00 1.082482e+00 1.035261e+00 1.036196e+00 9.934770e-01 9.572727e-01 9.236409e-01 8.528890e-01 8.309272e-01 7.287072e-01 7.192270e-01 5.886071e-01 
5.626171e-01 4.023790e-01 4.318186e-01 2.531037e-01 2.876528e-01 9.239730e-02 1.304100e-01 -7.904606e-02 -3.963569e-02 -2.598659e-01 -2.215649e-01 -4.471687e-01 -4.128009e-01 -6.355110e-01 -6.078395e-01 -8.161005e-01 -7.972269e-01 -9.769227e-01 -9.677815e-01 -1.104425e+00 -1.104846e+00 -1.186288e+00 -1.195545e+00 -1.213328e+00 -1.230443e+00 -1.180107e+00 -1.203920e+00 -1.085234e+00 -1.114415e+00 -9.319881e-01 -9.650427e-01 -7.290049e-01 -7.642686e-01 -4.901180e-01 -5.258127e-01 -2.325922e-01 -2.670995e-01 2.598834e-02 -6.418117e-03 2.702026e-01 2.399617e-01 4.879729e-01 4.594809e-01 6.707961e-01 6.436617e-01 8.135944e-01 7.877550e-01 9.144232e-01 8.901848e-01 9.739107e-01 9.519387e-01 9.944909e-01 9.759039e-01 9.799585e-01 9.662199e-01 9.349864e-01 9.275511e-01 8.644519e-01 8.644047e-01 7.727957e-01 7.806599e-01 6.636216e-01 6.793474e-01 5.395680e-01 
5.558251e-01 4.166967e-01 4.276988e-01 2.680072e-01 2.862390e-01 1.086423e-01 1.324189e-01 -6.004930e-02 -3.267478e-02 -2.361211e-01 -2.072664e-01 -4.163287e-01 -3.881410e-01 -5.954154e-01 -5.698471e-01 -7.656595e-01 -7.441934e-01 -9.171082e-01 -9.005433e-01 -1.038787e+00 -1.027200e+00 -1.120498e+00 -1.113368e+00 -1.154127e+00 -1.150476e+00 -1.134280e+00 -1.132890e+00 -1.058830e+00 -1.058536e+00 -9.297240e-01 -9.296706e-01 -7.536945e-01 -7.534159e-01 -5.420945e-01 -5.414080e-01 -3.092741e-01 -3.081903e-01 -7.001878e-02 -6.891846e-02 1.624837e-01 1.626030e-01 3.775203e-01 3.749523e-01 5.667737e-01 5.593165e-01 7.238545e-01 7.094188e-01 8.440066e-01 8.215381e-01 9.242908e-01 8.945803e-01 9.641018e-01 9.298666e-01 9.654076e-01 9.305329e-01 9.322441e-01 9.007030e-01 8.696990e-01 8.447026e-01 7.828933e-01 7.664921e-01 6.762879e-01 6.693593e-01 5.533787e-01 
5.424454e-01 3.996308e-01 4.253929e-01 2.665246e-01 2.963083e-01 1.240552e-01 1.563798e-01 -2.609278e-02 7.002550e-03 -1.815904e-01 -1.497378e-01 -3.389314e-01 -3.104462e-01 -4.929196e-01 -4.697913e-01 -6.364069e-01 -6.201736e-01 -7.605907e-01 -7.521027e-01 -8.560469e-01 -8.554671e-01 -9.142077e-01 -9.212102e-01 -9.285897e-01 -9.425302e-01 -8.955075e-01 -9.155106e-01 -8.145090e-01 -8.395140e-01 -6.887300e-01 -7.175218e-01 -5.250460e-01 -5.562957e-01 -3.336826e-01 -3.660329e-01 -1.270481e-01 -1.592845e-01 8.198423e-02 5.071145e-02 2.816162e-01 2.517299e-01 4.620913e-01 4.337373e-01 6.161140e-01 5.893953e-01 7.389183e-01 7.140684e-01 8.281165e-01 8.055682e-01 8.833628e-01 8.637653e-01 9.059078e-01 8.901274e-01 8.981966e-01 8.872266e-01 8.634536e-01 8.582271e-01 8.052224e-01 8.064151e-01 7.269428e-01 7.348477e-01 6.316583e-01 6.461499e-01 5.218854e-01 
5.350170e-01 4.104690e-01 4.205536e-01 2.781763e-01 2.941402e-01 1.369524e-01 1.574564e-01 -1.106562e-02 1.241917e-02 -1.632152e-01 -1.384247e-01 -3.158857e-01 -2.914533e-01 -4.641599e-01 -4.415806e-01 -6.016810e-01 -5.821162e-01 -7.209293e-01 -7.050853e-01 -8.139776e-01 -8.020738e-01 -8.735193e-01 -8.653438e-01 -8.937695e-01 -8.887824e-01 -8.711027e-01 -8.685824e-01 -8.045570e-01 -8.037724e-01 -6.962752e-01 -6.966328e-01 -5.517210e-01 -5.528347e-01 -3.793610e-01 -3.810493e-01 -1.896572e-01 -1.919426e-01 6.357069e-03 3.176684e-03 1.983291e-01 1.936016e-01 3.773199e-01 3.700527e-01 5.360342e-01 5.250761e-01 6.687779e-01 6.531889e-01 7.714096e-01 7.509353e-01 8.414288e-01 8.168648e-01 8.781368e-01 8.513389e-01 8.826382e-01 8.561386e-01 8.575129e-01 8.339470e-01 8.062360e-01 7.878355e-01 7.325631e-01 7.208570e-01 6.400566e-01 6.357881e-01 5.318257e-01 
5.355470e-01 4.076660e-01 4.309382e-01 2.892532e-01 3.157579e-01 1.633461e-01 1.917572e-01 3.217189e-02 6.096862e-02 -1.015054e-01 -7.397518e-02 -2.340792e-01 -2.094878e-01 -3.608635e-01 -3.407428e-01 -4.760559e-01 -4.616188e-01 -5.730343e-01 -5.650459e-01 -6.450244e-01 -6.437831e-01 -6.859840e-01 -6.913939e-01 -6.914148e-01 -7.030749e-01 -6.589461e-01 -6.762175e-01 -5.887089e-01 -6.107623e-01 -4.835358e-01 -5.093930e-01 -3.489286e-01 -3.775120e-01 -1.926712e-01 -2.228767e-01 -2.403621e-02 -5.483763e-02 1.472658e-01 1.167129e-01 3.120867e-01 2.824114e-01 4.625685e-01 4.342448e-01 5.925559e-01 5.660077e-01 6.977461e-01 6.734365e-01 7.756467e-01 7.541221e-01 8.253866e-01 8.072850e-01 8.474391e-01 8.334682e-01 8.433198e-01 8.341895e-01 8.152659e-01 8.115815e-01 7.659090e-01 7.680597e-01 6.979783e-01 7.060602e-01 6.140835e-01 6.278691e-01 5.166013e-01 
5.278382e-01 4.151194e-01 4.253068e-01 2.972300e-01 3.122702e-01 1.720184e-01 1.908132e-01 4.201785e-02 6.329039e-02 -8.981630e-02 -6.742557e-02 -2.198660e-01 -1.976945e-01 -3.436862e-01 -3.229371e-01 -4.560084e-01 -4.376438e-01 -5.509909e-01 -5.356572e-01 -6.227266e-01 -6.107299e-01 -6.658991e-01 -6.572334e-01 -6.764140e-01 -6.708283e-01 -6.519095e-01 -6.490016e-01 -5.921412e-01 -5.914633e-01 -4.992287e-01 -5.003783e-01 -3.776810e-01 -3.803578e-01 -2.340883e-01 -2.381172e-01 -7.645289e-02 -8.180134e-02 8.668689e-02 7.988185e-02 2.470766e-01 2.384943e-01 3.973213e-01 3.865012e-01 5.311897e-01 5.176622e-01 6.437328e-01 6.272342e-01 7.313374e-01 7.120512e-01 7.917821e-01 7.705001e-01 8.242748e-01 8.023771e-01 8.293870e-01 8.086267e-01 8.088240e-01 7.910052e-01 7.650645e-01 7.517372e-01 7.009712e-01 6.932247e-01 6.194664e-01 6.178436e-01 5.233284e-01 
5.408811e-01 4.251291e-01 4.470112e-01 3.194369e-01 3.439928e-01 2.078724e-01 2.338943e-01 9.291350e-02 1.190657e-01 -2.254718e-02 2.333718e-03 -1.350390e-01 -1.128105e-01 -2.404233e-01 -2.221002e-01 -3.339473e-01 -3.205457e-01 -4.105010e-01 -4.027211e-01 -4.650769e-01 -4.632790e-01 -4.933453e-01 -4.975743e-01 -4.922096e-01 -5.022395e-01 -4.602382e-01 -4.756160e-01 -3.979420e-01 -4.180264e-01 -3.078805e-01 -3.318797e-01 -1.945671e-01 -2.215817e-01 -6.413586e-02 -9.321394e-02 7.622174e-02 4.601992e-02 2.189548e-01 1.884987e-01 3.568328e-01 3.268970e-01 4.834833e-01 4.547638e-01 5.937390e-01 5.668917e-01 6.838037e-01 6.594777e-01 7.512690e-01 7.301194e-01 7.950178e-01 7.776959e-01 8.150521e-01 8.021760e-01 8.122803e-01 8.043848e-01 7.882830e-01 7.857555e-01 7.450757e-01 7.480949e-01 6.848930e-01 6.933868e-01 6.100228e-01 6.236534e-01 5.227094e-01 
5.331393e-01 4.294081e-01 4.405285e-01 3.235728e-01 3.387914e-01 2.118474e-01 2.302127e-01 9.691380e-02 1.173353e-01 -1.822028e-02 3.108604e-03 -1.300935e-01 -1.089811e-01 -2.347300e-01 -2.148513e-01 -3.276986e-01 -3.098925e-01 -4.043287e-01 -3.892059e-01 -4.600771e-01 -4.480017e-01 -4.909857e-01 -4.820904e-01 -4.941395e-01 -4.883663e-01 -4.680541e-01 -4.652127e-01 -4.129530e-01 -4.127857e-01 -3.309046e-01 -3.331435e-01 -2.257710e-01 -2.301792e-01 -1.029354e-01 -1.093303e-01 3.118019e-02 2.291193e-02 1.697102e-01 1.596047e-01 3.059203e-01 2.939446e-01 4.336548e-01 4.197490e-01 5.476268e-01 5.317886e-01 6.435795e-01 6.259811e-01 7.183725e-01 6.994747e-01 7.700266e-01 7.506393e-01 7.977242e-01 7.789688e-01 8.017359e-01 7.849087e-01 7.832535e-01 7.696333e-01 7.441504e-01 7.348110e-01 6.867201e-01 6.823957e-01 6.134473e-01 6.144675e-01 5.268501e-01 
5.572722e-01 4.506677e-01 4.722010e-01 3.554647e-01 3.792837e-01 2.557719e-01 2.807427e-01 1.541401e-01 1.790507e-01 5.342787e-02 7.704077e-02 -4.312041e-02 -2.200278e-02 -1.318590e-01 -1.143201e-01 -2.088282e-01 -1.957658e-01 -2.699707e-01 -2.620443e-01 -3.114693e-01 -3.090766e-01 -3.301528e-01 -3.334343e-01 -3.238922e-01 -3.327519e-01 -2.919173e-01 -3.060480e-01 -2.350103e-01 -2.539200e-01 -1.555509e-01 -1.785900e-01 -5.739630e-02 -8.378931e-02 5.440640e-02 2.552274e-02 1.740470e-01 1.435820e-01 2.954519e-01 2.643234e-01 4.127685e-01 3.818786e-01 5.207607e-01 4.909886e-01 6.150828e-01 5.872828e-01 6.924273e-01 6.674231e-01 7.505672e-01 7.291334e-01 7.883134e-01 7.711457e-01 8.054113e-01 7.930902e-01 8.023986e-01 7.953487e-01 7.804390e-01 7.788914e-01 7.411482e-01 7.451119e-01 6.864309e-01 6.956799e-01 6.183496e-01 6.324266e-01 5.390381e-01 
5.496882e-01 4.520587e-01 4.648495e-01 3.557821e-01 3.721343e-01 2.548671e-01 2.738961e-01 1.519972e-01 1.727177e-01 5.010413e-02 7.149515e-02 -4.756815e-02 -2.649859e-02 -1.374536e-01 -1.176091e-01 -2.157429e-01 -1.978886e-01 -2.785693e-01 -2.632983e-01 -3.222957e-01 -3.100153e-01 -3.438641e-01 -3.348039e-01 -3.411510e-01 -3.353863e-01 -3.132692e-01 -3.107559e-01 -2.607731e-01 -2.613850e-01 -1.857284e-01 -1.892913e-01 -9.162352e-02 -9.794071e-02 1.688378e-02 8.015153e-03 1.343538e-01 1.231347e-01 2.550175e-01 2.416478e-01 3.732109e-01 3.579029e-01 4.837267e-01 4.667366e-01 5.820603e-01 5.637360e-01 6.645606e-01 6.453960e-01 7.285153e-01 7.091898e-01 7.721881e-01 7.535680e-01 7.948116e-01 7.778973e-01 7.965239e-01 7.823485e-01 7.782447e-01 7.677491e-01 7.415046e-01 7.354214e-01 6.882564e-01 6.870284e-01 6.207042e-01 6.244480e-01 5.411767e-01 
5.835488e-01 4.830109e-01 5.052136e-01 3.959621e-01 4.201815e-01 3.055964e-01 3.307306e-01 2.144372e-01 2.393450e-01 1.252313e-01 1.487738e-01 4.098104e-02 6.207007e-02 -3.507340e-02 -1.742299e-02 -9.954844e-02 -8.616925e-02 -1.491021e-01 -1.406359e-01 -1.807014e-01 -1.775785e-01 -1.919367e-01 -1.943724e-01 -1.813297e-01 -1.893312e-01 -1.485767e-01 -1.619557e-01 -9.468468e-02 -1.130701e-01 -2.197220e-02 -4.482482e-02 6.607301e-02 3.944227e-02 1.650632e-01 1.354701e-01 2.700688e-01 2.384286e-01 3.760077e-01 3.433089e-01 4.780068e-01 4.452866e-01 5.716923e-01 5.400131e-01 6.533897e-01 6.238107e-01 7.202385e-01 6.937765e-01 7.702358e-01 7.478155e-01 8.022246e-01 7.846246e-01 8.158387e-01 8.036431e-01 8.114135e-01 8.049757e-01 7.898715e-01 7.892949e-01 7.525920e-01 7.577287e-01 7.012815e-01 7.117470e-01 6.378620e-01 6.530612e-01 5.643894e-01 
5.762880e-01 4.818434e-01 4.970268e-01 3.926125e-01 4.109861e-01 2.998302e-01 3.205107e-01 2.060966e-01 2.281379e-01 1.142025e-01 1.366476e-01 2.716533e-02 4.909443e-02 -5.178020e-02 -3.120694e-02 -1.192604e-01 -1.007683e-01 -1.719255e-01 -1.561030e-01 -2.066942e-01 -1.939842e-01 -2.210537e-01 -2.117578e-01 -2.133680e-01 -2.076600e-01 -1.831424e-01 -1.810858e-01 -1.311897e-01 -1.327553e-01 -5.966113e-02 -6.474256e-02 2.807563e-02 1.965038e-02 1.277003e-01 1.161617e-01 2.343018e-01 2.199366e-01 3.427715e-01 3.259290e-01 4.481626e-01 4.292683e-01 5.459694e-01 5.255469e-01 6.323169e-01 6.110102e-01 7.040748e-01 6.826602e-01 7.589213e-01 7.382964e-01 7.953720e-01 7.765132e-01 8.127744e-01 7.966635e-01 8.112599e-01 7.987926e-01 7.916490e-01 7.835448e-01 7.553182e-01 7.520500e-01 7.040509e-01 7.058061e-01 6.398965e-01 6.465723e-01 5.650614e-01 
6.186224e-01 5.210023e-01 5.449049e-01 4.397611e-01 4.654863e-01 3.562052e-01 3.826462e-01 2.727759e-01 2.988206e-01 1.920759e-01 2.166360e-01 1.168836e-01 1.389281e-01 5.012805e-02 6.872032e-02 -5.198292e-03 9.136374e-03 -4.620112e-02 -3.676874e-02 -7.031682e-02 -6.625295e-02 -7.558965e-02 -7.717616e-02 -6.094689e-02 -6.828217e-02 -2.641467e-02 -3.941536e-02 2.677671e-02 8.375852e-03 9.622910e-02 7.287542e-02 1.785552e-01 1.508745e-01 2.696684e-01 2.384549e-01 3.651291e-01 3.313303e-01 4.604836e-01 4.251816e-01 5.515471e-01 5.159365e-01 6.346056e-01 5.999604e-01 7.065403e-01 6.741636e-01 7.648937e-01 7.360452e-01 8.078993e-01 7.837082e-01 8.344880e-01 8.158658e-01 8.442729e-01 8.318447e-01 8.375047e-01 8.315726e-01 8.149960e-01 8.155375e-01 7.780200e-01 7.847160e-01 7.281973e-01 7.404780e-01 6.673896e-01 6.844886e-01 5.976162e-01 
6.118409e-01 5.176207e-01 5.359668e-01 4.329807e-01 4.542623e-01 3.457370e-01 3.690172e-01 2.583526e-01 2.826729e-01 1.734422e-01 1.978611e-01 9.380545e-02 1.174327e-01 2.242439e-02 4.444954e-02 -3.759982e-02 -1.788462e-02 -8.318977e-02 -6.637672e-02 -1.115201e-01 -9.808289e-02 -1.203131e-01 -1.106118e-01 -1.081565e-01 -1.024449e-01 -7.477981e-02 -7.321082e-02 -2.122254e-02 -2.384826e-02 5.015706e-02 4.338687e-02 1.358488e-01 1.250884e-01 2.315079e-01 2.170162e-01 3.323568e-01 3.145006e-01 4.335875e-01 4.128500e-01 5.306890e-01 5.076868e-01 6.196667e-01 5.951682e-01 6.971597e-01 6.720927e-01 7.604945e-01 7.359289e-01 8.077114e-01 7.848061e-01 8.375841e-01 8.174995e-01 8.496248e-01 8.334166e-01 8.440550e-01 8.325731e-01 8.217305e-01 8.155440e-01 7.840247e-01 7.833852e-01 7.326914e-01 7.375356e-01 6.697338e-01 6.797154e-01 5.973005e-01 
6.615243e-01 5.636014e-01 5.902817e-01 4.858625e-01 5.142032e-01 4.066806e-01 4.355426e-01 3.283826e-01 3.566537e-01 2.534120e-01 2.800208e-01 1.843488e-01 2.082841e-01 1.238979e-01 1.442353e-01 7.482248e-02 9.075443e-02 3.980197e-02 5.066335e-02 2.120814e-02 2.649118e-02 2.081854e-02 2.017594e-02 3.951674e-02 3.276138e-02 7.705305e-02 6.416366e-02 1.319387e-01 1.130749e-01 2.015179e-01 1.770389e-01 2.822141e-01 2.526922e-01 3.698958e-01 3.361187e-01 4.602729e-01 4.232377e-01 5.492362e-01 5.101406e-01 6.330854e-01 5.933131e-01 7.086409e-01 6.697275e-01 7.732722e-01 7.368364e-01 8.248942e-01 7.925264e-01 8.619704e-01 8.350921e-01 8.835372e-01 8.632620e-01 8.892325e-01 8.762646e-01 8.792999e-01 8.738929e-01 8.545460e-01 8.565242e-01 8.162517e-01 8.250780e-01 7.660577e-01 7.809231e-01 7.058482e-01 7.257622e-01 6.376562e-01 
6.553703e-01 5.583387e-01 5.807222e-01 4.759406e-01 5.010700e-01 3.917782e-01 4.186186e-01 3.081322e-01 3.356738e-01 2.274078e-01 2.546909e-01 1.521896e-01 1.783241e-01 8.527008e-02 1.094528e-01 2.962099e-02 5.114865e-02 -1.172402e-02 6.549884e-03 -3.589967e-02 -2.137868e-02 -4.054492e-02 -3.018745e-02 -2.419388e-02 -1.832860e-02 1.336821e-02 1.450042e-02 7.088527e-02 6.714933e-02 1.456258e-01 1.370142e-01 2.336202e-01 2.202684e-01 3.300964e-01 3.122888e-01 4.300081e-01 4.081813e-01 5.285183e-01 5.032726e-01 6.213320e-01 5.934560e-01 7.048461e-01 6.753444e-01 7.761599e-01 7.462615e-01 8.330288e-01 8.041504e-01 8.738362e-01 8.474855e-01 8.976101e-01 8.752386e-01 9.040577e-01 8.868979e-01 8.935685e-01 8.825000e-01 8.671520e-01 8.626302e-01 8.263159e-01 8.283697e-01 7.729161e-01 7.811984e-01 7.090125e-01 7.228822e-01 6.367592e-01 
7.114082e-01 6.098654e-01 6.404790e-01 5.333950e-01 5.654935e-01 4.562660e-01 4.886633e-01 3.806599e-01 4.122295e-01 3.088407e-01 3.385090e-01 2.432015e-01 2.699508e-01 1.862902e-01 2.091785e-01 1.407830e-01 1.589746e-01 1.093682e-01 1.221632e-01 9.451286e-02 1.013590e-01 9.811661e-02 9.860192e-02 1.211138e-01 1.149572e-01 1.631381e-01 1.501990e-01 2.223709e-01 2.026847e-01 2.956532e-01 2.694779e-01 3.788539e-01 3.467059e-01 4.673995e-01 4.300653e-01 5.568097e-01 5.153444e-01 6.430900e-01 5.988208e-01 7.229117e-01 6.774446e-01 7.935993e-01 7.488003e-01 8.530137e-01 8.109276e-01 8.994380e-01 8.621263e-01 9.315420e-01 9.008581e-01 9.484394e-01 9.258020e-01 9.497915e-01 9.360258e-01 9.358795e-01 9.311701e-01 9.075940e-01 9.115452e-01 8.663399e-01 8.781068e-01 8.138932e-01 8.323365e-01 7.522546e-01 7.760824e-01 6.835320e-01 
7.060119e-01 6.030140e-01 6.304651e-01 5.206519e-01 5.506674e-01 4.372962e-01 4.687086e-01 3.549873e-01 3.867109e-01 2.758663e-01 3.069033e-01 2.022745e-01 2.317182e-01 1.368429e-01 1.638845e-01 8.253188e-02 1.064679e-01 4.256180e-02 6.279257e-02 2.017408e-02 3.618619e-02 1.820441e-02 2.954375e-02 3.852911e-02 4.478679e-02 8.152773e-02 8.235705e-02 1.457330e-01 1.408945e-01 2.278038e-01 2.172168e-01 3.228750e-01 3.066500e-01 4.252196e-01 4.036627e-01 5.290382e-01 5.026437e-01 6.291303e-01 5.985906e-01 7.212656e-01 6.875132e-01 8.022215e-01 7.664886e-01 8.696021e-01 8.334551e-01 9.216193e-01 8.869177e-01 9.569829e-01 9.257310e-01 9.749412e-01 9.490459e-01 9.753964e-01 9.564009e-01 9.589697e-01 9.478558e-01 9.269479e-01 9.240611e-01 8.811249e-01 8.862200e-01 8.236015e-01 8.359662e-01 7.566041e-01 7.752121e-01 6.823565e-01 
7.675223e-01 6.589121e-01 6.947155e-01 5.815725e-01 6.186182e-01 5.043210e-01 5.413819e-01 4.291469e-01 4.650895e-01 3.580878e-01 3.918329e-01 2.933246e-01 3.238291e-01 2.372753e-01 2.635479e-01 1.926445e-01 2.137929e-01 1.623636e-01 1.776414e-01 1.493413e-01 1.581595e-01 1.559978e-01 1.578893e-01 1.836547e-01 1.782350e-01 2.319803e-01 2.189550e-01 2.987164e-01 2.779499e-01 3.798328e-01 3.514463e-01 4.701141e-01 4.345559e-01 5.640095e-01 5.220663e-01 6.564539e-01 6.092349e-01 7.433874e-01 6.923419e-01 8.218640e-01 7.688385e-01 8.898271e-01 8.370985e-01 9.457421e-01 8.959437e-01 9.882959e-01 9.441839e-01 1.016307e+00 9.803939e-01 1.028863e+00 1.003033e+00 1.025580e+00 1.010828e+00 1.006790e+00 1.003171e+00 9.735632e-01 9.803316e-01 9.275727e-01 9.434212e-01 8.708760e-01 8.941926e-01 8.057072e-01 8.347891e-01 7.343223e-01 
7.629716e-01 6.506849e-01 6.844390e-01 5.663407e-01 6.024134e-01 4.817578e-01 5.188300e-01 3.986492e-01 4.355536e-01 3.187926e-01 3.544899e-01 2.441963e-01 2.777567e-01 1.772904e-01 2.078925e-01 1.210940e-01 1.480354e-01 7.925276e-02 1.019508e-01 5.581160e-02 7.376592e-02 5.463503e-02 6.736238e-02 7.854774e-02 8.554248e-02 1.284450e-01 1.292099e-01 2.026761e-01 1.968161e-01 2.969415e-01 2.842700e-01 4.048185e-01 3.854162e-01 5.188354e-01 4.930374e-01 6.317672e-01 6.001155e-01 7.376786e-01 7.009147e-01 8.323642e-01 7.915050e-01 9.131617e-01 8.696321e-01 9.783982e-01 9.341425e-01 1.026851e+00 9.843200e-01 1.057515e+00 1.019452e+00 1.069746e+00 1.038779e+00 1.063577e+00 1.041759e+00 1.039917e+00 1.028409e+00 1.000491e+00 9.994834e-01 9.475798e-01 9.564302e-01 8.837109e-01 9.011877e-01 8.114033e-01 8.359502e-01 7.330152e-01 
8.291459e-01 7.098623e-01 7.522208e-01 6.296442e-01 6.728674e-01 5.502873e-01 5.931471e-01 4.735118e-01 5.149073e-01 4.010341e-01 4.398989e-01 3.347294e-01 3.699786e-01 2.768353e-01 3.073828e-01 2.301466e-01 2.549956e-01 1.980857e-01 2.164326e-01 1.844710e-01 1.957251e-01 1.928524e-01 1.965319e-01 2.254941e-01 2.211041e-01 2.823747e-01 2.693975e-01 3.606411e-01 3.386731e-01 4.548065e-01 4.237618e-01 5.577219e-01 5.179686e-01 6.620369e-01 6.143780e-01 7.615821e-01 7.071627e-01 8.521217e-01 7.924561e-01 9.313154e-01 8.684567e-01 9.980918e-01 9.348014e-01 1.051820e+00 9.915527e-01 1.091681e+00 1.038253e+00 1.116500e+00 1.073471e+00 1.125091e+00 1.095069e+00 1.116830e+00 1.101031e+00 1.092081e+00 1.090296e+00 1.052237e+00 1.063130e+00 9.994535e-01 1.020998e+00 9.362781e-01 9.661749e-01 8.653309e-01 9.013195e-01 7.891028e-01 
8.254492e-01 7.003384e-01 7.418799e-01 6.122465e-01 6.556989e-01 5.247306e-01 5.686321e-01 4.390492e-01 4.821744e-01 3.564513e-01 3.977382e-01 2.784207e-01 3.169180e-01 2.070200e-01 2.418825e-01 1.452892e-01 1.758162e-01 9.752751e-02 1.231901e-01 6.916277e-02 8.953950e-02 6.594830e-02 8.056656e-02 9.254730e-02 1.007744e-01 1.509882e-01 1.520827e-01 2.395404e-01 2.328459e-01 3.524210e-01 3.375859e-01 4.805769e-01 4.576642e-01 6.134948e-01 5.829159e-01 7.414810e-01 7.038320e-01 8.574225e-01 8.134190e-01 9.573260e-01 9.079359e-01 1.039641e+00 9.863703e-01 1.103955e+00 1.049140e+00 1.149844e+00 1.096740e+00 1.176446e+00 1.128939e+00 1.182904e+00 1.144808e+00 1.169188e+00 1.143386e+00 1.136562e+00 1.124466e+00 1.087447e+00 1.088961e+00 1.024922e+00 1.038762e+00 9.521954e-01 9.763454e-01 8.722298e-01 9.043816e-01 7.875744e-01 
8.954813e-01 7.617559e-01 8.121251e-01 6.768296e-01 7.274622e-01 5.936548e-01 6.434164e-01 5.135662e-01 5.614814e-01 4.377971e-01 4.828662e-01 3.677139e-01 4.087925e-01 3.051785e-01 3.409956e-01 2.530065e-01 2.823568e-01 2.153426e-01 2.373461e-01 1.975795e-01 2.117485e-01 2.054150e-01 2.113747e-01 2.430566e-01 2.402118e-01 3.113394e-01 2.988134e-01 4.066195e-01 3.835361e-01 5.209818e-01 4.869120e-01 6.438842e-01 5.991341e-01 7.647927e-01 7.102750e-01 8.756807e-01 8.125483e-01 9.721724e-01 9.018355e-01 1.053159e+00 9.777072e-01 1.119381e+00 1.042075e+00 1.171741e+00 1.097185e+00 1.210072e+00 1.143768e+00 1.232876e+00 1.180118e+00 1.238111e+00 1.202676e+00 1.224496e+00 1.207856e+00 1.192389e+00 1.193773e+00 1.143770e+00 1.160815e+00 1.081650e+00 1.111193e+00 1.009383e+00 1.048127e+00 9.301785e-01 9.751171e-01 8.468500e-01 
8.925152e-01 7.508059e-01 8.018966e-01 6.575455e-01 7.098437e-01 5.658467e-01 6.178054e-01 4.763491e-01 5.267580e-01 3.895291e-01 4.373562e-01 3.060022e-01 3.502803e-01 2.270654e-01 2.668871e-01 1.554983e-01 1.901370e-01 9.638363e-02 1.254292e-01 5.733632e-02 8.060489e-02 4.741417e-02 6.455309e-02 7.466389e-02 8.486235e-02 1.433721e-01 1.454518e-01 2.520223e-01 2.448456e-01 3.925680e-01 3.755078e-01 5.515158e-01 5.246838e-01 7.130318e-01 6.770771e-01 8.631902e-01 8.188290e-01 9.931599e-01 9.409486e-01 1.099835e+00 1.040406e+00 1.184077e+00 1.118730e+00 1.247892e+00 1.179262e+00 1.292069e+00 1.224505e+00 1.315453e+00 1.254688e+00 1.316154e+00 1.268046e+00 1.293617e+00 1.262412e+00 1.249595e+00 1.237005e+00 1.187708e+00 1.193032e+00 1.112370e+00 1.133217e+00 1.027833e+00 1.060971e+00 9.376747e-01 9.797184e-01 8.446580e-01 
9.654830e-01 8.134339e-01 8.732946e-01 7.222277e-01 7.814082e-01 6.339088e-01 6.915502e-01 5.492803e-01 6.047154e-01 4.688565e-01 5.212735e-01 3.931340e-01 4.413112e-01 3.231406e-01 3.654302e-01 2.613374e-01 2.960660e-01 2.126730e-01 2.388175e-01 1.850573e-01 2.025127e-01 1.881322e-01 1.969644e-01 2.299309e-01 2.295064e-01 3.132529e-01 3.020537e-01 4.334572e-01 4.096876e-01 5.785565e-01 5.411570e-01 7.319822e-01 6.813237e-01 8.775156e-01 8.149870e-01 1.004128e+00 9.308728e-01 1.107685e+00 1.024588e+00 1.189727e+00 1.098421e+00 1.254489e+00 1.158563e+00 1.305637e+00 1.211293e+00 1.343925e+00 1.259443e+00 1.366735e+00 1.300467e+00 1.369874e+00 1.327554e+00 1.350537e+00 1.333825e+00 1.309086e+00 1.316006e+00 1.248686e+00 1.275049e+00 1.173884e+00 1.214731e+00 1.089333e+00 1.139937e+00 9.990713e-01 1.055471e+00 9.063005e-01 
9.629297e-01 8.006231e-01 8.632971e-01 7.012393e-01 7.639360e-01 6.047286e-01 6.659581e-01 5.109455e-01 5.696712e-01 4.192919e-01 4.746261e-01 3.289729e-01 3.799377e-01 2.397195e-01 2.852245e-01 1.532305e-01 1.923883e-01 7.514330e-02 1.077524e-01 1.634966e-02 4.285899e-02 -8.334034e-03 1.213253e-02 1.527146e-02 2.861656e-02 9.575446e-02 9.995535e-02 2.325400e-01 2.255094e-01 4.142377e-01 3.948438e-01 6.198098e-01 5.884119e-01 8.238530e-01 7.818074e-01 1.005021e+00 9.533891e-01 1.152127e+00 1.091073e+00 1.264712e+00 1.193941e+00 1.348869e+00 1.268805e+00 1.411380e+00 1.324585e+00 1.454984e+00 1.367227e+00 1.477018e+00 1.397138e+00 1.472496e+00 1.410131e+00 1.439370e+00 1.401051e+00 1.380325e+00 1.367942e+00 1.301262e+00 1.312787e+00 1.208870e+00 1.239968e+00 1.108967e+00 1.154492e+00 1.005878e+00 1.060917e+00 9.024996e-01 
1.037608e+00 8.633832e-01 9.341029e-01 7.646866e-01 8.332797e-01 6.704325e-01 7.366241e-01 5.807579e-01 6.445253e-01 4.951876e-01 5.561735e-01 4.128000e-01 4.697214e-01 3.328864e-01 3.833194e-01 2.565005e-01 2.976268e-01 1.889203e-01 2.193070e-01 1.418035e-01 1.624750e-01 1.320759e-01 1.444101e-01 1.752227e-01 1.787342e-01 2.782150e-01 2.701381e-01 4.353233e-01 4.119286e-01 6.277253e-01 5.866268e-01 8.278951e-01 7.699400e-01 1.009088e+00 9.374041e-01 1.155564e+00 1.071301e+00 1.264653e+00 1.167161e+00 1.343513e+00 1.232763e+00 1.403140e+00 1.282388e+00 1.452304e+00 1.329882e+00 1.493130e+00 1.382115e+00 1.520098e+00 1.434584e+00 1.523918e+00 1.473052e+00 1.498484e+00 1.483681e+00 1.444531e+00 1.461183e+00 1.367816e+00 1.408470e+00 1.275705e+00 1.332595e+00 1.174857e+00 1.241295e+00 1.070360e+00 1.141249e+00 9.657582e-01 
1.034895e+00 8.478656e-01 9.243559e-01 7.419987e-01 8.165915e-01 6.408363e-01 7.123770e-01 5.433751e-01 6.113068e-01 4.476885e-01 5.115071e-01 3.508483e-01 4.095885e-01 2.495791e-01 3.016524e-01 1.425273e-01 1.864023e-01 3.457057e-02 7.029048e-02 -5.879228e-02 -2.910376e-02 -1.124247e-01 -8.755736e-02 -1.010617e-01 -8.255273e-02 -8.241809e-03 1.646123e-04 1.680546e-01 1.623033e-01 4.119287e-01 3.898477e-01 6.895242e-01 6.522089e-01 9.574480e-01 9.082498e-01 1.180820e+00 1.121753e+00 1.345529e+00 1.275918e+00 1.457922e+00 1.375371e+00 1.535190e+00 1.437832e+00 1.593620e+00 1.482879e+00 1.639268e+00 1.522482e+00 1.664889e+00 1.556266e+00 1.657160e+00 1.574016e+00 1.610743e+00 1.563429e+00 1.530785e+00 1.520639e+00 1.427876e+00 1.449955e+00 1.312651e+00 1.359164e+00 1.193101e+00 1.255947e+00 1.074224e+00 1.146404e+00 9.587288e-01 
1.109486e+00 9.095557e-01 9.921450e-01 8.026290e-01 8.809182e-01 7.023198e-01 7.770889e-01 6.080862e-01 6.805444e-01 5.182982e-01 5.891347e-01 4.299573e-01 4.980448e-01 3.390698e-01 4.004614e-01 2.428199e-01 2.917719e-01 1.446596e-01 1.782587e-01 6.110792e-02 8.361136e-02 2.308192e-02 3.939791e-02 6.059288e-02 7.080244e-02 1.889703e-01 1.877446e-01 4.017914e-01 3.811603e-01 6.690152e-01 6.233733e-01 9.426765e-01 8.742971e-01 1.175279e+00 1.093286e+00 1.344300e+00 1.249675e+00 1.451769e+00 1.339906e+00 1.516444e+00 1.382991e+00 1.562150e+00 1.408226e+00 1.607155e+00 1.443560e+00 1.655958e+00 1.504296e+00 1.696280e+00 1.582368e+00 1.706826e+00 1.646017e+00 1.674556e+00 1.666296e+00 1.602382e+00 1.636242e+00 1.502033e+00 1.564768e+00 1.386001e+00 1.465651e+00 1.263815e+00 1.351213e+00 1.141587e+00 1.230478e+00 1.022859e+00 