# vtk DataFile Version 2.0
Comment goes here
ASCII

DATASET STRUCTURED_POINTS
DIMENSIONS    64   64   1

ORIGIN    0.000   0.000   0.000
SPACING   0.0156250.015625   1.000

POINT_DATA   4096
SCALARS P double
LOOKUP_TABLE default

1.093457e+00 1.004033e+00 1.102462e+00 1.022412e+00 1.116327e+00 1.049640e+00 1.133149e+00 1.084115e+00 1.149326e+00 1.121750e+00 1.159383e+00 1.154998e+00 1.156129e+00 1.172635e+00 1.131490e+00 1.162340e+00 1.078686e+00 1.118105e+00 9.970868e-01 1.048243e+00 8.994491e-01 9.656445e-01 8.060597e-01 8.872474e-01 7.338112e-01 8.267497e-01 6.907248e-01 7.902799e-01 6.767742e-01 7.772941e-01 6.872832e-01 7.835527e-01 7.160388e-01 8.037218e-01 7.571356e-01 8.328314e-01 8.056593e-01 8.667583e-01 8.576649e-01 9.021644e-01 9.098820e-01 9.362753e-01 9.594506e-01 9.667395e-01 1.003835e+00 9.916459e-01 1.040925e+00 1.009654e+00 1.069255e+00 1.020156e+00 1.088251e+00 1.023401e+00 1.098388e+00 1.020527e+00 1.101186e+00 1.013457e+00 1.098986e+00 1.004663e+00 1.094565e+00 9.968609e-01 1.090702e+00 9.926940e-01 1.089776e+00 9.944842e-01 
7.816405e-01 6.858385e-01 7.847361e-01 6.917029e-01 7.869054e-01 6.997499e-01 7.864018e-01 7.093128e-01 7.808386e-01 7.190704e-01 7.673703e-01 7.266841e-01 7.431790e-01 7.285320e-01 7.063630e-01 7.202124e-01 6.570920e-01 6.988070e-01 5.985650e-01 6.662986e-01 5.373557e-01 6.286000e-01 4.836748e-01 5.921904e-01 4.456004e-01 5.629749e-01 4.264209e-01 5.446141e-01 4.254118e-01 5.380438e-01 4.396608e-01 5.421467e-01 4.655503e-01 5.547323e-01 4.995595e-01 5.732664e-01 5.385243e-01 5.952349e-01 5.796140e-01 6.182735e-01 6.202545e-01 6.402413e-01 6.581437e-01 6.593477e-01 6.913927e-01 6.743319e-01 7.187271e-01 6.846058e-01 7.396383e-01 6.902754e-01 7.543990e-01 6.920233e-01 7.639230e-01 6.909069e-01 7.695188e-01 6.881491e-01 7.726218e-01 6.849633e-01 7.745620e-01 6.824231e-01 7.763812e-01 6.813778e-01 7.787027e-01 6.824117e-01 
1.079769e+00 9.976534e-01 1.076376e+00 1.004502e+00 1.077468e+00 1.018639e+00 1.081237e+00 1.038115e+00 1.084676e+00 1.059290e+00 1.083689e+00 1.076683e+00 1.073489e+00 1.083508e+00 1.049489e+00 1.073600e+00 1.008923e+00 1.044754e+00 9.532281e-01 1.001128e+00 8.899211e-01 9.506619e-01 8.300731e-01 9.031278e-01 7.836710e-01 8.668434e-01 7.565958e-01 8.464406e-01 7.502748e-01 8.427513e-01 7.629467e-01 8.539643e-01 7.912322e-01 8.769587e-01 8.312775e-01 9.082282e-01 8.793057e-01 9.443086e-01 9.317238e-01 9.818739e-01 9.850288e-01 1.017731e+00 1.035737e+00 1.048891e+00 1.080476e+00 1.072788e+00 1.116276e+00 1.087608e+00 1.141011e+00 1.092594e+00 1.153820e+00 1.088220e+00 1.155362e+00 1.076145e+00 1.147709e+00 1.058944e+00 1.133913e+00 1.039685e+00 1.117392e+00 1.021478e+00 1.101334e+00 1.007088e+00 1.088263e+00 9.986809e-01 
7.619149e-01 6.762886e-01 7.591213e-01 6.781764e-01 7.559774e-01 6.822998e-01 7.510179e-01 6.878047e-01 7.424600e-01 6.934013e-01 7.284128e-01 6.972665e-01 7.072588e-01 6.971221e-01 6.782204e-01 6.907656e-01 6.420039e-01 6.772160e-01 6.012644e-01 6.578762e-01 5.606088e-01 6.361681e-01 5.259396e-01 6.161756e-01 5.022418e-01 6.016416e-01 4.921784e-01 5.950792e-01 4.960683e-01 5.974095e-01 5.125810e-01 6.081424e-01 5.394794e-01 6.257896e-01 5.741046e-01 6.482378e-01 6.135844e-01 6.729965e-01 6.548956e-01 6.973819e-01 6.949375e-01 7.187472e-01 7.307359e-01 7.348223e-01 7.598028e-01 7.441221e-01 7.805642e-01 7.462691e-01 7.926798e-01 7.420452e-01 7.970649e-01 7.331009e-01 7.955482e-01 7.214607e-01 7.903079e-01 7.090694e-01 7.833715e-01 6.975178e-01 7.763214e-01 6.879449e-01 7.701815e-01 6.810516e-01 7.654070e-01 6.771618e-01 
1.059960e+00 9.826414e-01 1.045193e+00 9.789111e-01 1.035621e+00 9.821442e-01 1.029516e+00 9.903524e-01 1.024345e+00 1.000502e+00 1.017021e+00 1.008687e+00 1.004326e+00 1.010721e+00 9.836135e-01 1.003337e+00 9.538131e-01 9.857119e-01 9.164998e-01 9.603108e-01 8.763241e-01 9.319940e-01 8.397602e-01 9.066677e-01 8.129529e-01 8.895800e-01 8.000816e-01 8.840834e-01 8.028752e-01 8.913309e-01 8.210122e-01 9.106721e-01 8.528376e-01 9.402684e-01 8.959571e-01 9.775791e-01 9.475315e-01 1.019599e+00 1.004307e+00 1.062919e+00 1.062525e+00 1.103771e+00 1.117912e+00 1.138240e+00 1.165905e+00 1.162736e+00 1.202218e+00 1.174662e+00 1.223665e+00 1.173031e+00 1.228993e+00 1.158754e+00 1.219309e+00 1.134451e+00 1.197827e+00 1.103876e+00 1.168985e+00 1.071157e+00 1.137398e+00 1.040113e+00 1.107019e+00 1.013797e+00 1.080684e+00 9.942871e-01 
7.405301e-01 6.632717e-01 7.333055e-01 6.620706e-01 7.266138e-01 6.633607e-01 7.191517e-01 6.661950e-01 7.095282e-01 6.694187e-01 6.964443e-01 6.716821e-01 6.789628e-01 6.715868e-01 6.568565e-01 6.680544e-01 6.309527e-01 6.608856e-01 6.033272e-01 6.511855e-01 5.771788e-01 6.411780e-01 5.562805e-01 6.335633e-01 5.439664e-01 6.308712e-01 5.423786e-01 6.349175e-01 5.522803e-01 6.465139e-01 5.732534e-01 6.654341e-01 6.039794e-01 6.905117e-01 6.424173e-01 7.197498e-01 6.858515e-01 7.504130e-01 7.309026e-01 7.791783e-01 7.736517e-01 8.024665e-01 8.100114e-01 8.170414e-01 8.363973e-01 8.208157e-01 8.505847e-01 8.135733e-01 8.524223e-01 7.971589e-01 8.439455e-01 7.748581e-01 8.286447e-01 7.502944e-01 8.102180e-01 7.265155e-01 7.916385e-01 7.055918e-01 7.748186e-01 6.886419e-01 7.606831e-01 6.760547e-01 7.493877e-01 6.677321e-01 
1.033264e+00 9.590427e-01 1.008298e+00 9.460470e-01 9.900867e-01 9.405914e-01 9.768021e-01 9.406511e-01 9.661432e-01 9.436417e-01 9.556238e-01 9.466782e-01 9.429391e-01 9.470420e-01 9.264469e-01 9.428763e-01 9.057271e-01 9.339060e-01 8.820441e-01 9.217451e-01 8.583751e-01 9.094788e-01 8.387274e-01 9.008549e-01 8.270613e-01 8.993332e-01 8.263981e-01 9.073599e-01 8.384419e-01 9.260839e-01 8.636584e-01 9.554444e-01 9.015485e-01 9.944023e-01 9.508625e-01 1.041103e+00 1.009614e+00 1.092873e+00 1.074897e+00 1.146090e+00 1.142628e+00 1.196108e+00 1.207421e+00 1.237524e+00 1.262879e+00 1.264986e+00 1.302531e+00 1.274498e+00 1.321354e+00 1.264667e+00 1.317407e+00 1.237202e+00 1.292705e+00 1.196456e+00 1.252635e+00 1.148230e+00 1.204133e+00 1.098394e+00 1.153797e+00 1.051848e+00 1.106712e+00 1.012033e+00 1.066064e+00 9.808898e-01 
7.165593e-01 6.463011e-01 7.064247e-01 6.431405e-01 6.977845e-01 6.427699e-01 6.893711e-01 6.441764e-01 6.800126e-01 6.463437e-01 6.687569e-01 6.482851e-01 6.550409e-01 6.491618e-01 6.388898e-01 6.485041e-01 6.210902e-01 6.464797e-01 6.032520e-01 6.440503e-01 5.876768e-01 6.428527e-01 5.770011e-01 6.448531e-01 5.736812e-01 6.519459e-01 5.795753e-01 6.655980e-01 5.957556e-01 6.866019e-01 6.224842e-01 7.149315e-01 6.592017e-01 7.496347e-01 7.044215e-01 7.887074e-01 7.555287e-01 8.289643e-01 8.086005e-01 8.660375e-01 8.584472e-01 8.947262e-01 8.991031e-01 9.099225e-01 9.249396e-01 9.081351e-01 9.323214e-01 8.891195e-01 9.212191e-01 8.565165e-01 8.956788e-01 8.165533e-01 8.623079e-01 7.755661e-01 8.274203e-01 7.382116e-01 7.953212e-01 7.070019e-01 7.681257e-01 6.827189e-01 7.463298e-01 6.650773e-01 7.294634e-01 6.532701e-01 
9.977277e-01 9.258556e-01 9.640779e-01 9.052731e-01 9.393559e-01 8.933791e-01 9.213542e-01 8.879617e-01 9.077266e-01 8.866499e-01 8.962518e-01 8.871488e-01 8.850950e-01 8.875544e-01 8.730961e-01 8.867354e-01 8.600498e-01 8.846628e-01 8.468759e-01 8.825012e-01 8.355386e-01 8.823500e-01 8.286453e-01 8.867524e-01 8.288786e-01 8.981339e-01 8.385181e-01 9.183636e-01 8.592126e-01 9.485443e-01 8.919800e-01 9.890027e-01 9.372814e-01 1.039339e+00 9.949874e-01 1.098369e+00 1.064115e+00 1.163838e+00 1.142315e+00 1.231916e+00 1.225222e+00 1.296729e+00 1.305947e+00 1.350459e+00 1.375227e+00 1.384603e+00 1.422819e+00 1.392506e+00 1.440286e+00 1.372000e+00 1.424298e+00 1.326284e+00 1.378594e+00 1.262848e+00 1.312723e+00 1.191027e+00 1.238047e+00 1.119440e+00 1.164257e+00 1.054445e+00 1.097830e+00 9.997858e-01 1.042046e+00 9.569643e-01 
6.887113e-01 6.246884e-01 6.773902e-01 6.209615e-01 6.683748e-01 6.201720e-01 6.603455e-01 6.212602e-01 6.522433e-01 6.233380e-01 6.433211e-01 6.256964e-01 6.332261e-01 6.278725e-01 6.220975e-01 6.297671e-01 6.106410e-01 6.317695e-01 6.001336e-01 6.348087e-01 5.923227e-01 6.402693e-01 5.892181e-01 6.497884e-01 5.928309e-01 6.650060e-01 6.049560e-01 6.873233e-01 6.270379e-01 7.176934e-01 6.600592e-01 7.564174e-01 7.043357e-01 8.028850e-01 7.591263e-01 8.551965e-01 8.220721e-01 9.096869e-01 8.886235e-01 9.605399e-01 9.517597e-01 9.999173e-01 1.002425e+00 1.019199e+00 1.031180e+00 1.011754e+00 1.031305e+00 9.766657e-01 1.002482e+00 9.208201e-01 9.524770e-01 8.561247e-01 8.941252e-01 7.936468e-01 8.382459e-01 7.402071e-01 7.906832e-01 6.982876e-01 7.530860e-01 6.675353e-01 7.247230e-01 6.463005e-01 7.038968e-01 6.326230e-01 
9.502781e-01 8.811889e-01 9.101618e-01 8.552509e-01 8.814578e-01 8.393692e-01 8.612589e-01 8.309475e-01 8.469333e-01 8.276192e-01 8.362912e-01 8.273978e-01 8.277139e-01 8.288458e-01 8.202730e-01 8.312518e-01 8.138261e-01 8.347535e-01 8.090343e-01 8.403205e-01 8.072441e-01 8.495550e-01 8.102315e-01 8.643630e-01 8.198940e-01 8.865976e-01 8.380245e-01 9.177895e-01 8.662459e-01 9.590323e-01 9.060746e-01 1.011003e+00 9.589699e-01 1.073997e+00 1.026177e+00 1.147774e+00 1.108209e+00 1.230978e+00 1.203891e+00 1.319996e+00 1.309021e+00 1.407544e+00 1.414956e+00 1.481993e+00 1.508054e+00 1.529048e+00 1.571448e+00 1.536745e+00 1.590067e+00 1.501448e+00 1.557451e+00 1.429231e+00 1.480608e+00 1.333408e+00 1.377422e+00 1.229484e+00 1.267168e+00 1.130271e+00 1.164041e+00 1.043780e+00 1.075716e+00 9.735199e-01 1.004695e+00 9.198236e-01 
6.555591e-01 5.977357e-01 6.451175e-01 5.951273e-01 6.373836e-01 5.952316e-01 6.309825e-01 5.970035e-01 6.249441e-01 5.997048e-01 6.186732e-01 6.028685e-01 6.119614e-01 6.063191e-01 6.050143e-01 6.102271e-01 5.984698e-01 6.151639e-01 5.933799e-01 6.221129e-01 5.911453e-01 6.324102e-01 5.934149e-01 6.476233e-01 6.019870e-01 6.693985e-01 6.187509e-01 6.993054e-01 6.456574e-01 7.386785e-01 6.846264e-01 7.884106e-01 7.372341e-01 8.486001e-01 8.040317e-01 9.179128e-01 8.834696e-01 9.925713e-01 9.706226e-01 1.065144e+00 1.056147e+00 1.123838e+00 1.126145e+00 1.153613e+00 1.164150e+00 1.140852e+00 1.156613e+00 1.081875e+00 1.101342e+00 9.898443e-01 1.013128e+00 8.885788e-01 9.184321e-01 7.975429e-01 8.357089e-01 7.258296e-01 7.715081e-01 6.742310e-01 7.250120e-01 6.395118e-01 6.926477e-01 6.174995e-01 6.705729e-01 6.045135e-01 
8.868545e-01 8.224886e-01 8.437180e-01 7.942869e-01 8.143067e-01 7.772896e-01 7.947484e-01 7.683619e-01 7.819907e-01 7.650232e-01 7.737805e-01 7.654594e-01 7.686243e-01 7.685496e-01 7.657553e-01 7.738994e-01 7.650936e-01 7.818424e-01 7.671667e-01 7.933582e-01 7.729655e-01 8.098860e-01 7.837502e-01 8.330633e-01 8.008764e-01 8.644606e-01 8.257370e-01 9.054058e-01 8.598824e-01 9.569729e-01 9.052801e-01 1.020147e+00 9.645293e-01 1.096053e+00 1.040746e+00 1.185954e+00 1.136867e+00 1.290513e+00 1.254207e+00 1.407716e+00 1.390086e+00 1.529471e+00 1.534558e+00 1.638516e+00 1.667719e+00 1.709622e+00 1.761014e+00 1.719569e+00 1.786095e+00 1.662202e+00 1.728866e+00 1.549406e+00 1.602554e+00 1.405626e+00 1.442983e+00 1.257348e+00 1.283693e+00 1.123449e+00 1.144572e+00 1.013028e+00 1.032912e+00 9.278500e-01 9.483034e-01 8.656339e-01 
6.158549e-01 5.650017e-01 6.087731e-01 5.654636e-01 6.040977e-01 5.678116e-01 6.005245e-01 5.711590e-01 5.972404e-01 5.749898e-01 5.938262e-01 5.790899e-01 5.902183e-01 5.835425e-01 5.866946e-01 5.887537e-01 5.838597e-01 5.954784e-01 5.826163e-01 6.048222e-01 5.841272e-01 6.182043e-01 5.897911e-01 6.372893e-01 6.012700e-01 6.639050e-01 6.205967e-01 6.999653e-01 6.503333e-01 7.473957e-01 6.936430e-01 8.080155e-01 7.540152e-01 8.832332e-01 8.343290e-01 9.732529e-01 9.350806e-01 1.075366e+00 1.051973e+00 1.181198e+00 1.173409e+00 1.273814e+00 1.278568e+00 1.326947e+00 1.338350e+00 1.311324e+00 1.323969e+00 1.213694e+00 1.226000e+00 1.060209e+00 1.072044e+00 9.022244e-01 9.223013e-01 7.738286e-01 8.067877e-01 6.840672e-01 7.279453e-01 6.273822e-01 6.775146e-01 5.942503e-01 6.463202e-01 5.763604e-01 6.273450e-01 5.678605e-01 
8.027912e-01 7.469313e-01 7.619221e-01 7.207639e-01 7.361281e-01 7.061296e-01 7.205249e-01 6.993573e-01 7.117071e-01 6.978823e-01 7.074369e-01 7.000702e-01 7.064088e-01 7.051076e-01 7.080789e-01 7.129352e-01 7.125254e-01 7.241770e-01 7.202982e-01 7.400194e-01 7.322374e-01 7.620133e-01 7.492780e-01 7.918116e-01 7.723138e-01 8.309012e-01 8.022389e-01 8.804354e-01 8.402818e-01 9.413015e-01 8.886292e-01 1.014531e+00 9.510872e-01 1.102017e+00 1.033276e+00 1.207205e+00 1.141929e+00 1.334797e+00 1.283173e+00 1.487733e+00 1.459014e+00 1.660111e+00 1.660774e+00 1.827681e+00 1.860865e+00 1.944151e+00 2.010331e+00 1.960215e+00 2.054042e+00 1.867086e+00 1.957883e+00 1.688785e+00 1.746427e+00 1.471457e+00 1.498157e+00 1.261655e+00 1.271752e+00 1.085921e+00 1.091254e+00 9.516221e-01 9.583619e-01 8.553169e-01 8.654178e-01 7.896294e-01 
5.689765e-01 5.266489e-01 5.680563e-01 5.322507e-01 5.682563e-01 5.381225e-01 5.686254e-01 5.437767e-01 5.686624e-01 5.490366e-01 5.682041e-01 5.539813e-01 5.673770e-01 5.589525e-01 5.665683e-01 5.645841e-01 5.663934e-01 5.718278e-01 5.676577e-01 5.819614e-01 5.713254e-01 5.965729e-01 5.785367e-01 6.175282e-01 5.907352e-01 6.469396e-01 6.099635e-01 6.871574e-01 6.393310e-01 7.408087e-01 6.834923e-01 8.108942e-01 7.487180e-01 9.008366e-01 8.418880e-01 1.013977e+00 9.678448e-01 1.151322e+00 1.125306e+00 1.306352e+00 1.302196e+00 1.457642e+00 1.469612e+00 1.561188e+00 1.577149e+00 1.552898e+00 1.562088e+00 1.386972e+00 1.391072e+00 1.118331e+00 1.109994e+00 8.695309e-01 8.761222e-01 6.967797e-01 7.277728e-01 5.974247e-01 6.454487e-01 5.480389e-01 6.029661e-01 5.272307e-01 5.821658e-01 5.211974e-01 5.726848e-01 5.223093e-01 
6.937277e-01 6.521391e-01 6.627404e-01 6.337379e-01 6.460365e-01 6.255901e-01 6.381414e-01 6.237909e-01 6.356791e-01 6.259261e-01 6.367117e-01 6.306891e-01 6.403237e-01 6.376674e-01 6.463571e-01 6.472252e-01 6.552135e-01 6.604126e-01 6.676609e-01 6.788352e-01 6.846016e-01 7.044387e-01 7.068072e-01 7.391889e-01 7.347011e-01 7.846906e-01 7.683776e-01 8.418795e-01 8.081309e-01 9.110375e-01 8.556696e-01 9.924530e-01 9.157111e-01 1.087970e+00 9.969299e-01 1.203323e+00 1.111393e+00 1.350091e+00 1.273349e+00 1.543053e+00 1.495777e+00 1.787786e+00 1.779107e+00 2.056456e+00 2.090308e+00 2.262493e+00 2.345607e+00 2.287923e+00 2.438015e+00 2.131783e+00 2.277465e+00 1.842883e+00 1.904889e+00 1.509563e+00 1.513507e+00 1.216459e+00 1.200434e+00 9.957310e-01 9.806855e-01 8.442956e-01 8.371332e-01 7.466483e-01 7.475572e-01 6.867995e-01 
5.154841e-01 4.838294e-01 5.234829e-01 4.964191e-01 5.301900e-01 5.068290e-01 5.354070e-01 5.152675e-01 5.391435e-01 5.220209e-01 5.415960e-01 5.274980e-01 5.431455e-01 5.322979e-01 5.443432e-01 5.372751e-01 5.458718e-01 5.435865e-01 5.484860e-01 5.527159e-01 5.529550e-01 5.664771e-01 5.600651e-01 5.870045e-01 5.707855e-01 6.167461e-01 5.867441e-01 6.584821e-01 6.111361e-01 7.154371e-01 6.499947e-01 7.916579e-01 7.132445e-01 8.928948e-01 8.141880e-01 1.027596e+00 9.658090e-01 1.205339e+00 1.174141e+00 1.428435e+00 1.432119e+00 1.678176e+00 1.706689e+00 1.889869e+00 1.916513e+00 1.926047e+00 1.924823e+00 1.627366e+00 1.628303e+00 1.116549e+00 1.062053e+00 7.240361e-01 7.114236e-01 5.177440e-01 5.578040e-01 4.402925e-01 5.055390e-01 4.259161e-01 4.947346e-01 4.357475e-01 4.985715e-01 4.522870e-01 5.067278e-01 4.689840e-01 
5.573931e-01 5.373817e-01 5.461254e-01 5.337495e-01 5.447706e-01 5.365991e-01 5.484245e-01 5.425363e-01 5.545075e-01 5.497616e-01 5.618616e-01 5.575595e-01 5.702661e-01 5.660657e-01 5.801690e-01 5.761787e-01 5.925064e-01 5.895191e-01 6.085115e-01 6.083466e-01 6.294373e-01 6.353506e-01 6.561480e-01 6.732371e-01 6.886332e-01 7.240973e-01 7.257225e-01 7.886880e-01 7.655990e-01 8.660295e-01 8.078519e-01 9.540099e-01 8.569773e-01 1.051814e+00 9.249361e-01 1.165085e+00 1.029884e+00 1.314359e+00 1.197043e+00 1.537919e+00 1.460671e+00 1.876070e+00 1.849708e+00 2.321695e+00 2.341496e+00 2.719961e+00 2.792407e+00 2.739202e+00 3.012763e+00 2.463940e+00 2.748114e+00 1.984431e+00 2.033254e+00 1.466309e+00 1.415912e+00 1.071205e+00 1.012765e+00 8.180863e-01 7.789408e-01 6.712972e-01 6.521560e-01 5.923237e-01 5.874648e-01 5.534724e-01 
4.576062e-01 4.389637e-01 4.765627e-01 4.596348e-01 4.908853e-01 4.750795e-01 5.014787e-01 4.864231e-01 5.090135e-01 4.944689e-01 5.141231e-01 4.999433e-01 5.175014e-01 5.036718e-01 5.199276e-01 5.067028e-01 5.222284e-01 5.103903e-01 5.251827e-01 5.164423e-01 5.293898e-01 5.269431e-01 5.351618e-01 5.443599e-01 5.425895e-01 5.715352e-01 5.520636e-01 6.116466e-01 5.656577e-01 6.681636e-01 5.896945e-01 7.451783e-01 6.380317e-01 8.494058e-01 7.336121e-01 9.953240e-01 9.034863e-01 1.208526e+00 1.166124e+00 1.512518e+00 1.530595e+00 1.914131e+00 1.978774e+00 2.352249e+00 2.401834e+00 2.564404e+00 2.505451e+00 1.977829e+00 2.028474e+00 8.847827e-01 6.938341e-01 2.994804e-01 2.714438e-01 1.487870e-01 2.363966e-01 1.823143e-01 2.935959e-01 2.562948e-01 3.531121e-01 3.229618e-01 3.988882e-01 3.738444e-01 4.325424e-01 4.112894e-01 
3.964209e-01 4.053090e-01 4.155151e-01 4.237716e-01 4.354521e-01 4.418133e-01 4.538420e-01 4.577463e-01 4.699619e-01 4.710131e-01 4.840053e-01 4.817875e-01 4.967621e-01 4.908766e-01 5.094944e-01 4.997741e-01 5.238773e-01 5.107676e-01 5.419021e-01 5.270009e-01 5.656087e-01 5.523576e-01 5.964933e-01 5.909878e-01 6.344934e-01 6.462982e-01 6.767934e-01 7.194003e-01 7.175337e-01 8.075207e-01 7.506689e-01 9.035847e-01 7.776004e-01 9.984462e-01 8.141440e-01 1.088265e+00 8.826137e-01 1.198199e+00 1.015599e+00 1.403346e+00 1.279990e+00 1.823903e+00 1.773330e+00 2.567911e+00 2.542830e+00 3.438207e+00 3.314926e+00 3.307923e+00 3.881872e+00 2.800706e+00 3.490954e+00 2.007782e+00 1.940404e+00 1.207601e+00 1.032009e+00 7.316762e-01 6.151561e-01 5.040821e-01 4.467671e-01 4.126587e-01 3.910548e-01 3.868584e-01 3.839333e-01 3.902549e-01 
3.992203e-01 3.956159e-01 4.297003e-01 4.241553e-01 4.519213e-01 4.444232e-01 4.679088e-01 4.583903e-01 4.789850e-01 4.672687e-01 4.862233e-01 4.720012e-01 4.906587e-01 4.735540e-01 4.933633e-01 4.731060e-01 4.954170e-01 4.721738e-01 4.977699e-01 4.726877e-01 5.009879e-01 4.770398e-01 5.049061e-01 4.881239e-01 5.083347e-01 5.093591e-01 5.092223e-01 5.445501e-01 5.061489e-01 5.972215e-01 5.024863e-01 6.694007e-01 5.140923e-01 7.629604e-01 5.775139e-01 8.936336e-01 7.449325e-01 1.113920e+00 1.045472e+00 1.478929e+00 1.516845e+00 2.063262e+00 2.206525e+00 2.926185e+00 3.046407e+00 3.784060e+00 3.385253e+00 2.485805e+00 2.935058e+00 -2.195896e-01 -9.272526e-01 -8.366863e-01 -7.732521e-01 -5.477260e-01 -2.844498e-01 -1.886297e-01 2.534171e-02 5.537650e-02 1.961787e-01 2.042103e-01 2.946461e-01 2.958766e-01 3.567590e-01 3.551826e-01 
2.215447e-01 2.638248e-01 2.790812e-01 3.099672e-01 3.240235e-01 3.458992e-01 3.586297e-01 3.729550e-01 3.850036e-01 3.923780e-01 4.051231e-01 4.054108e-01 4.209718e-01 4.135184e-01 4.347091e-01 4.186988e-01 4.488564e-01 4.238514e-01 4.664353e-01 4.331318e-01 4.908862e-01 4.521306e-01 5.254152e-01 4.875500e-01 5.712514e-01 5.458556e-01 6.244894e-01 6.303934e-01 6.727049e-01 7.372816e-01 6.967324e-01 8.521670e-01 6.873875e-01 9.492746e-01 6.707496e-01 9.895026e-01 6.671111e-01 9.782578e-01 6.883647e-01 1.025479e+00 8.287998e-01 1.371218e+00 1.312479e+00 2.494823e+00 2.473425e+00 4.778908e+00 3.516174e+00 3.657119e+00 5.062327e+00 2.745153e+00 4.806660e+00 1.541890e+00 8.480027e-01 3.998815e-01 -2.127592e-04 4.235079e-02 -1.022354e-01 4.691499e-03 -3.365919e-02 6.243043e-02 6.194239e-02 1.373663e-01 1.493130e-01 2.062696e-01 
3.448050e-01 3.576171e-01 3.857093e-01 3.923766e-01 4.152744e-01 4.166143e-01 4.361647e-01 4.326146e-01 4.501523e-01 4.416909e-01 4.586681e-01 4.447999e-01 4.630739e-01 4.428995e-01 4.647874e-01 4.371871e-01 4.652826e-01 4.292647e-01 4.659336e-01 4.212428e-01 4.676323e-01 4.158169e-01 4.700969e-01 4.163924e-01 4.708619e-01 4.273362e-01 4.642748e-01 4.541263e-01 4.417465e-01 5.019896e-01 3.963510e-01 5.695826e-01 3.371622e-01 6.387446e-01 3.171365e-01 7.004531e-01 4.486209e-01 8.630984e-01 7.334397e-01 1.185949e+00 1.222089e+00 1.816039e+00 2.112872e+00 3.177943e+00 3.721935e+00 6.483560e+00 4.170479e+00 3.230724e+00 6.209619e+00 -4.420980e+00 -7.595167e+00 -3.642306e+00 -2.763569e+00 -1.649013e+00 -8.481527e-01 -5.833231e-01 -1.963940e-01 -1.127377e-01 6.843112e-02 1.116547e-01 2.042690e-01 2.333137e-01 2.877519e-01 3.078246e-01 
5.282594e-02 1.268534e-01 1.495796e-01 2.016063e-01 2.188566e-01 2.552862e-01 2.684606e-01 2.928755e-01 3.035754e-01 3.175286e-01 3.279715e-01 3.314285e-01 3.447174e-01 3.364260e-01 3.567036e-01 3.346604e-01 3.671505e-01 3.292713e-01 3.801681e-01 3.252275e-01 4.012318e-01 3.301549e-01 4.370313e-01 3.547432e-01 4.934101e-01 4.116659e-01 5.691990e-01 5.111600e-01 6.444172e-01 6.521906e-01 6.707333e-01 8.142126e-01 6.022675e-01 9.551631e-01 5.129685e-01 9.382404e-01 4.185085e-01 6.817124e-01 2.098126e-01 2.893992e-01 -6.217253e-02 -3.321532e-02 -7.906065e-02 7.854794e-01 1.990924e+00 9.864728e+00 9.777336e+00 1.206211e+01 -3.983965e+00 -1.560894e+01 5.227883e+00 5.252664e-01 -3.827967e+00 -1.617232e+00 -2.062081e+00 -1.146712e+00 -1.105199e+00 -6.648925e-01 -5.915640e-01 -3.400838e-01 -2.840833e-01 -1.246477e-01 -8.415988e-02 2.279562e-02 
2.975552e-01 3.274492e-01 3.471844e-01 3.662091e-01 3.831233e-01 3.933952e-01 4.080769e-01 4.107990e-01 4.240256e-01 4.194359e-01 4.326323e-01 4.200180e-01 4.355229e-01 4.132891e-01 4.344715e-01 4.002936e-01 4.314779e-01 3.825788e-01 4.286748e-01 3.623112e-01 4.279210e-01 3.423358e-01 4.298202e-01 3.263755e-01 4.317707e-01 3.198525e-01 4.247230e-01 3.318790e-01 3.892808e-01 3.766357e-01 2.950578e-01 4.601410e-01 1.158901e-01 5.165956e-01 -9.966225e-02 3.969373e-01 -1.680404e-02 4.211971e-01 1.659726e-01 4.951480e-01 3.800402e-01 6.155831e-01 1.019852e+00 1.412910e+00 4.563290e+00 1.326533e+01 2.046931e+00 -1.091454e+01 -1.867279e+01 -2.805849e+00 7.545005e+00 -5.504022e+00 -1.605049e-01 -1.883698e+00 -3.895906e-01 -5.889827e-01 -1.671720e-01 -1.229837e-01 1.187437e-02 8.230847e-02 1.385685e-01 1.977317e-01 2.301769e-01 2.736806e-01 
-8.486186e-02 1.190117e-02 4.161612e-02 1.094024e-01 1.291864e-01 1.771444e-01 1.895652e-01 2.228064e-01 2.301359e-01 2.508185e-01 2.559020e-01 2.637642e-01 2.705544e-01 2.632878e-01 2.772062e-01 2.509345e-01 2.791716e-01 2.291894e-01 2.810819e-01 2.028998e-01 2.904671e-01 1.811941e-01 3.194149e-01 1.797359e-01 3.844987e-01 2.219294e-01 4.994402e-01 3.343744e-01 6.475855e-01 5.284994e-01 7.227092e-01 7.801686e-01 5.243610e-01 1.103185e+00 3.441366e-01 1.102831e+00 2.503574e-01 4.655441e-01 -2.890985e-01 -6.498802e-01 -1.399783e+00 -2.766522e+00 -3.616535e+00 -7.926458e+00 -7.881746e+00 -3.058379e+01 -3.021787e+01 -2.357944e+01 -2.246942e+01 -1.386166e+01 -2.336176e+01 -1.344605e+01 -6.048605e+00 -5.326016e+00 -3.284043e+00 -2.467953e+00 -1.794250e+00 -1.263995e+00 -1.004340e+00 -6.739835e-01 -5.516829e-01 -3.394546e-01 -2.702661e-01 -1.290502e-01 
2.588435e-01 3.050502e-01 3.164707e-01 3.467873e-01 3.578724e-01 3.764436e-01 3.858798e-01 3.949304e-01 4.026067e-01 4.027153e-01 4.098198e-01 4.000261e-01 4.092768e-01 3.871398e-01 4.030147e-01 3.646982e-01 3.935749e-01 3.339683e-01 3.841072e-01 2.969338e-01 3.781929e-01 2.561439e-01 3.789730e-01 2.145442e-01 3.866513e-01 1.764340e-01 3.926166e-01 1.533022e-01 3.680815e-01 1.822826e-01 2.464835e-01 3.418058e-01 -1.009242e-01 5.325406e-01 -8.544849e-01 -1.026394e-01 -6.475843e-01 -1.655465e-01 -5.584063e-01 -4.254528e-01 -1.088794e+00 -1.346880e+00 -2.738165e+00 -3.361586e+00 -5.451290e+00 -2.381763e+01 -1.928114e+01 -1.158051e+01 -1.167606e+01 -1.238910e+01 -1.117993e+00 9.313317e+00 1.235149e+00 1.697776e+00 -1.239692e-01 2.244532e-01 -1.826573e-01 5.057884e-02 -5.020975e-02 1.023174e-01 7.875574e-02 1.806751e-01 1.811386e-01 2.499200e-01 
-1.726758e-01 -6.663431e-02 -3.315274e-02 4.232171e-02 6.279509e-02 1.177515e-01 1.275355e-01 1.677388e-01 1.690293e-01 1.968068e-01 1.925964e-01 2.071224e-01 2.018592e-01 1.992883e-01 1.993455e-01 1.731471e-01 1.872358e-01 1.289467e-01 1.688803e-01 6.920540e-02 1.518149e-01 1.818496e-03 1.529308e-01 -5.455878e-02 2.057754e-01 -6.242237e-02 3.649912e-01 3.816766e-02 6.759216e-01 2.913673e-01 9.829673e-01 5.969521e-01 3.549994e-01 1.486511e+00 -5.502651e-03 1.794864e+00 4.003517e-01 5.715254e-01 -4.005912e-01 -8.214556e-01 -1.818077e+00 -2.436558e+00 -4.030349e+00 -3.860643e+00 -6.310636e+00 -3.950700e+00 -2.385530e+01 -4.077136e+01 -1.123288e+01 -6.277631e+00 -6.713962e+00 -6.101502e-01 -3.641587e+00 -2.639179e+00 -2.808773e+00 -2.048170e+00 -1.831373e+00 -1.307311e+00 -1.132543e+00 -7.902608e-01 -6.765591e-01 -4.505111e-01 -3.758543e-01 -2.229754e-01 
2.315560e-01 2.893742e-01 2.965802e-01 3.351086e-01 3.423763e-01 3.675975e-01 3.722710e-01 3.873619e-01 3.884610e-01 3.943282e-01 3.926204e-01 3.880299e-01 3.863829e-01 3.679500e-01 3.717689e-01 3.339598e-01 3.515941e-01 2.867194e-01 3.298758e-01 2.277363e-01 3.121814e-01 1.586373e-01 3.055813e-01 7.923706e-02 3.169711e-01 -1.555063e-02 3.460248e-01 -1.348059e-01 3.663509e-01 -2.429250e-01 2.956462e-01 3.342069e-02 -6.639099e-02 1.189180e+00 -2.765785e+00 -1.390403e+00 -1.386345e+00 -7.999425e-01 -9.146847e-01 -9.569111e-01 -1.575489e+00 -2.031497e+00 -3.230743e+00 -3.882885e+00 -5.629026e+00 -5.900539e+00 -1.469172e+01 -1.326582e+01 5.829931e+00 -9.412160e-01 -3.896688e+00 -7.973095e-01 -1.124368e+00 -9.127997e-02 -7.182994e-01 -1.200432e-01 -3.984005e-01 -4.001094e-02 -1.534462e-01 6.184564e-02 1.880605e-02 1.534846e-01 1.419528e-01 2.292742e-01 
-2.050347e-01 -1.040478e-01 -6.940815e-02 4.761220e-03 2.426872e-02 8.103276e-02 8.633649e-02 1.314612e-01 1.238704e-01 1.596571e-01 1.416947e-01 1.666499e-01 1.427848e-01 1.511722e-01 1.282605e-01 1.100651e-01 9.744778e-02 3.916876e-02 4.896983e-02 -6.505131e-02 -1.567359e-02 -2.025469e-01 -8.390918e-02 -3.623263e-01 -1.137095e-01 -5.020124e-01 1.154429e-02 -5.027093e-01 5.727179e-01 -1.815705e-01 1.932455e+00 -4.846061e-01 -3.823392e-01 2.079815e+00 -1.519807e+00 3.618103e+00 1.361936e+00 4.884367e-01 -2.018297e-01 -1.049565e+00 -1.521317e+00 -2.032162e+00 -2.465834e+00 -2.419155e+00 -2.302365e+00 -1.348719e+00 8.352321e-01 1.371395e+00 2.836385e+00 -2.568455e+00 -1.832253e+00 -1.258231e+00 -2.353999e+00 -1.769242e+00 -2.133231e+00 -1.586460e+00 -1.568484e+00 -1.147890e+00 -1.053448e+00 -7.590001e-01 -6.706392e-01 -4.673421e-01 -3.979331e-01 -2.560999e-01 
2.212878e-01 2.823398e-01 2.913206e-01 3.330916e-01 3.398250e-01 3.690738e-01 3.702974e-01 3.908006e-01 3.846919e-01 3.976393e-01 3.842276e-01 3.881465e-01 3.699977e-01 3.605278e-01 3.434965e-01 3.133070e-01 3.071359e-01 2.460677e-01 2.648545e-01 1.596920e-01 2.229769e-01 5.493786e-02 1.913759e-01 -7.256060e-02 1.844321e-01 -2.468663e-01 2.166675e-01 -5.600940e-01 2.772974e-01 -1.303104e+00 2.874996e-01 -1.627467e+00 1.818977e+00 4.967660e+00 -9.372990e+00 -6.507166e+00 -1.799880e+00 -1.190057e+00 -4.833564e-01 -8.187470e-01 -1.102374e+00 -1.643595e+00 -2.137859e+00 -2.673731e+00 -2.939171e+00 -3.321708e+00 -2.716074e+00 -3.373415e+00 6.712841e-02 -2.158288e+00 -1.958723e+00 -1.237721e+00 -1.307143e+00 -6.791365e-01 -8.764033e-01 -3.891409e-01 -4.981217e-01 -1.596372e-01 -2.113407e-01 6.497903e-03 -1.391663e-02 1.257992e-01 1.233941e-01 2.147444e-01 
-1.870998e-01 -1.034646e-01 -6.790458e-02 -3.470378e-03 1.473184e-02 6.808514e-02 6.791011e-02 1.159308e-01 9.706242e-02 1.424301e-01 1.062227e-01 1.472430e-01 9.772575e-02 1.267726e-01 7.110084e-02 7.376738e-02 2.141038e-02 -2.245817e-02 -6.174902e-02 -1.755463e-01 -1.927117e-01 -4.031040e-01 -3.852990e-01 -7.279296e-01 -6.427405e-01 -1.159831e+00 -8.910135e-01 -1.516312e+00 -5.276493e-01 -1.864266e-01 5.046919e+00 -6.071417e+00 -7.472204e+00 -4.901369e+00 -1.346488e+01 7.041778e+00 6.236841e+00 -1.658675e+00 -5.672295e-01 -2.028973e+00 -1.598933e+00 -1.958398e+00 -1.673132e+00 -1.727259e+00 -1.169104e+00 -1.114735e+00 -3.722823e-02 -4.749936e-01 4.459198e-01 -1.294506e+00 -8.495609e-01 -1.257302e+00 -1.446210e+00 -1.366326e+00 -1.485719e+00 -1.226729e+00 -1.201191e+00 -9.365129e-01 -8.613325e-01 -6.514022e-01 -5.737868e-01 -4.185854e-01 -3.520470e-01 -2.388721e-01 
2.325890e-01 2.874618e-01 3.038898e-01 3.430709e-01 3.530893e-01 3.831111e-01 3.830035e-01 4.079965e-01 3.947710e-01 4.163549e-01 3.886455e-01 4.053487e-01 3.646430e-01 3.711697e-01 3.230779e-01 3.100134e-01 2.649626e-01 2.195503e-01 1.923773e-01 1.000611e-01 1.091176e-01 -4.682600e-02 2.183344e-02 -2.228161e-01 -5.379711e-02 -4.329072e-01 -4.877473e-02 -6.238006e-01 5.158523e-01 -4.379332e-02 9.377257e+00 1.160839e+01 -7.437734e-01 -3.588991e+00 2.282261e+01 3.386681e+01 8.429979e+00 3.557195e+00 1.690958e+00 4.142443e-01 -1.997122e-01 -8.845035e-01 -1.124578e+00 -1.693952e+00 -1.610860e+00 -2.133727e+00 -1.515758e+00 -2.091214e+00 -7.649482e-01 -1.550484e+00 -1.057283e+00 -1.091901e+00 -9.624685e-01 -7.489519e-01 -7.365060e-01 -4.597282e-01 -4.479414e-01 -2.075942e-01 -1.928992e-01 -1.920079e-02 -3.119897e-03 1.152413e-01 1.335843e-01 2.135702e-01 
-1.291505e-01 -7.172417e-02 -3.317624e-02 1.428997e-02 3.272409e-02 7.743437e-02 7.236764e-02 1.208740e-01 8.948302e-02 1.462032e-01 8.770097e-02 1.522995e-01 6.980233e-02 1.335687e-01 3.523096e-02 7.819785e-02 -2.464681e-02 -3.217845e-02 -1.318432e-01 -2.219252e-01 -3.233562e-01 -5.286481e-01 -6.546731e-01 -1.033821e+00 -1.245914e+00 -1.966477e+00 -2.420226e+00 -4.000541e+00 -5.008707e+00 -9.062127e+00 -7.276548e+00 1.712222e+01 1.178868e+01 9.254717e+00 2.731010e+01 -4.068692e+00 -2.184725e+01 -8.013024e+00 -6.596191e+00 -3.448456e+00 -2.624716e+00 -1.974108e+00 -1.394150e+00 -1.348787e+00 -7.704180e-01 -9.275994e-01 -2.375452e-01 -6.401497e-01 -3.089152e-02 -7.704287e-01 -4.438926e-01 -8.714333e-01 -8.261503e-01 -9.626969e-01 -9.489362e-01 -8.938324e-01 -8.308528e-01 -7.079135e-01 -6.249834e-01 -5.055280e-01 -4.253774e-01 -3.285606e-01 -2.590017e-01 -1.846421e-01 