# vtk DataFile Version 2.0
Comment goes here
ASCII

DATASET STRUCTURED_POINTS
DIMENSIONS    64   64   1

ORIGIN    0.000   0.000   0.000
SPACING   0.0156250.015625   1.000

POINT_DATA   4096
SCALARS P double
LOOKUP_TABLE default

8.127876e-01 9.171657e-01 9.167982e-01 1.018501e+00 1.009280e+00 1.099162e+00 1.081469e+00 1.148263e+00 1.121455e+00 1.152341e+00 1.114446e+00 1.096983e+00 1.045096e+00 9.710180e-01 9.031891e-01 7.730001e-01 6.922189e-01 5.172631e-01 4.357160e-01 2.380111e-01 1.739983e-01 -1.340593e-02 -5.013823e-02 -2.047343e-01 -2.146451e-01 -3.290039e-01 -3.188176e-01 -3.943443e-01 -3.734545e-01 -4.141977e-01 -3.921269e-01 -4.023637e-01 -3.865977e-01 -3.712008e-01 -3.652409e-01 -3.304919e-01 -3.329881e-01 -2.863324e-01 -2.920710e-01 -2.409714e-01 -2.431910e-01 -1.938328e-01 -1.866348e-01 -1.429527e-01 -1.229037e-01 -8.616995e-02 -5.280971e-02 -2.179067e-02 2.281800e-02 5.137851e-02 1.036085e-01 1.343305e-01 1.898924e-01 2.277360e-01 2.822118e-01 3.313546e-01 3.807034e-01 4.437071e-01 4.847805e-01 5.622061e-01 5.930756e-01 6.834584e-01 7.034346e-01 8.034092e-01 
8.394571e-01 9.246849e-01 9.223462e-01 1.004961e+00 9.938085e-01 1.065598e+00 1.045785e+00 1.096971e+00 1.067864e+00 1.087794e+00 1.047966e+00 1.026738e+00 9.746834e-01 9.060058e-01 8.419537e-01 7.266406e-01 6.550631e-01 5.033440e-01 4.339443e-01 2.649389e-01 2.093676e-01 4.823020e-02 1.174134e-02 -1.233210e-01 -1.417289e-01 -2.430929e-01 -2.479348e-01 -3.150130e-01 -3.119581e-01 -3.470260e-01 -3.412355e-01 -3.474759e-01 -3.424359e-01 -3.239049e-01 -3.207608e-01 -2.828496e-01 -2.804083e-01 -2.297298e-01 -2.251294e-01 -1.687795e-01 -1.585567e-01 -1.030435e-01 -8.423296e-02 -3.443075e-02 -5.378822e-03 3.621105e-02 7.545354e-02 1.089696e-01 1.566563e-01 1.846331e-01 2.376503e-01 2.643172e-01 3.187687e-01 3.490180e-01 4.009307e-01 4.391868e-01 4.851243e-01 5.344327e-01 5.718895e-01 6.334084e-01 6.609495e-01 7.338113e-01 7.509862e-01 8.323667e-01 
7.665845e-01 8.496887e-01 8.459375e-01 9.252662e-01 9.124410e-01 9.807410e-01 9.591279e-01 1.008088e+00 9.775405e-01 9.985489e-01 9.584958e-01 9.441198e-01 8.940431e-01 8.402280e-01 7.808281e-01 6.891374e-01 6.240240e-01 5.026887e-01 4.393600e-01 3.027610e-01 2.505071e-01 1.167823e-01 8.155743e-02 -3.498675e-02 -5.226170e-02 -1.442880e-01 -1.466574e-01 -2.123617e-01 -2.050075e-01 -2.455672e-01 -2.340735e-01 -2.520650e-01 -2.409206e-01 -2.398719e-01 -2.313360e-01 -2.156667e-01 -2.093365e-01 -1.840355e-01 -1.773470e-01 -1.473090e-01 -1.367318e-01 -1.060014e-01 -8.837115e-02 -5.954535e-02 -3.304556e-02 -6.987153e-03 2.844518e-02 5.255310e-02 9.537322e-02 1.197095e-01 1.672476e-01 1.948467e-01 2.438570e-01 2.779338e-01 3.250502e-01 3.682909e-01 4.104275e-01 4.644216e-01 4.991132e-01 5.640172e-01 5.896271e-01 6.640430e-01 6.797898e-01 7.607725e-01 
7.959987e-01 8.638870e-01 8.573350e-01 9.220438e-01 9.063883e-01 9.615206e-01 9.370519e-01 9.754428e-01 9.421868e-01 9.566351e-01 9.144815e-01 8.989856e-01 8.482038e-01 7.996760e-01 7.418328e-01 6.618546e-01 6.007347e-01 4.964796e-01 4.380512e-01 3.216021e-01 2.722023e-01 1.580044e-01 1.213366e-01 2.114320e-02 -2.334114e-03 -8.181461e-02 -9.397782e-02 -1.503875e-01 -1.541988e-01 -1.878630e-01 -1.862731e-01 -1.990220e-01 -1.941643e-01 -1.888949e-01 -1.816437e-01 -1.621991e-01 -1.521462e-01 -1.230629e-01 -1.088785e-01 -7.488083e-02 -5.491526e-02 -2.025173e-02 6.821051e-03 3.902027e-02 7.369935e-02 1.018752e-01 1.435706e-01 1.678894e-01 2.149205e-01 2.370984e-01 2.869155e-01 3.097473e-01 3.593153e-01 3.860046e-01 4.322537e-01 4.656866e-01 5.059175e-01 5.480459e-01 5.802072e-01 6.316462e-01 6.544510e-01 7.142987e-01 7.271888e-01 7.930081e-01 
7.271665e-01 7.949624e-01 7.873860e-01 8.516502e-01 8.349771e-01 8.900516e-01 8.647020e-01 9.044751e-01 8.707912e-01 8.893775e-01 8.477062e-01 8.404798e-01 7.915147e-01 7.563853e-01 7.017753e-01 6.403156e-01 5.833101e-01 5.011804e-01 4.467055e-01 3.530480e-01 3.065218e-01 2.121229e-01 1.773840e-01 9.146504e-02 6.974100e-02 -1.875137e-03 -1.173952e-02 -6.654255e-02 -6.720644e-02 -1.050346e-01 -9.962255e-02 -1.217813e-01 -1.129380e-01 -1.216938e-01 -1.109029e-01 -1.091804e-01 -9.651381e-02 -8.755365e-02 -7.192443e-02 -5.883526e-02 -3.862773e-02 -2.391610e-02 2.276683e-03 1.707670e-02 4.987088e-02 6.437838e-02 1.033218e-01 1.182714e-01 1.618840e-01 1.788982e-01 2.249362e-01 2.461549e-01 2.919642e-01 3.195797e-01 3.624405e-01 3.982211e-01 4.356524e-01 4.805439e-01 5.105446e-01 5.644063e-01 5.855971e-01 6.470764e-01 6.587236e-01 7.252388e-01 
7.594658e-01 8.153226e-01 8.041601e-01 8.574090e-01 8.369964e-01 8.826748e-01 8.535544e-01 8.863783e-01 8.491064e-01 8.640915e-01 8.193552e-01 8.126816e-01 7.616023e-01 7.316312e-01 6.761870e-01 6.243446e-01 5.676654e-01 4.987634e-01 4.449063e-01 3.665394e-01 3.195387e-01 2.404811e-01 2.030947e-01 1.309876e-01 1.042240e-01 4.417830e-02 2.757358e-02 -1.791483e-02 -2.568197e-02 -5.613156e-02 -5.659513e-02 -7.290869e-02 -6.730674e-02 -7.136109e-02 -6.034825e-02 -5.472510e-02 -3.833885e-02 -2.603547e-02 -3.889848e-03 1.206018e-02 4.043683e-02 5.739914e-02 9.219556e-02 1.083363e-01 1.491653e-01 1.637215e-01 2.094715e-01 2.228240e-01 2.716782e-01 2.852074e-01 3.348115e-01 3.505638e-01 3.982986e-01 4.185277e-01 4.618206e-01 4.884963e-01 5.251016e-01 5.594808e-01 5.876764e-01 6.300008e-01 6.486767e-01 6.980171e-01 7.066572e-01 7.608852e-01 
6.955126e-01 7.528653e-01 7.410934e-01 7.959943e-01 7.750841e-01 8.230777e-01 7.936732e-01 8.301666e-01 7.930152e-01 8.138167e-01 7.698400e-01 7.718538e-01 7.223452e-01 7.043176e-01 6.512253e-01 6.143161e-01 5.604521e-01 5.083607e-01 4.572712e-01 3.957400e-01 3.510469e-01 2.867133e-01 2.511698e-01 1.899996e-01 1.649154e-01 1.111390e-01 9.638450e-02 5.227557e-02 4.669362e-02 1.289282e-02 1.487900e-02 -9.146538e-03 -1.084249e-03 -1.665367e-02 -3.491502e-03 -1.239774e-02 5.555096e-03 1.350841e-03 2.432450e-02 2.301679e-02 5.144427e-02 5.169064e-02 8.580225e-02 8.695246e-02 1.264453e-01 1.286415e-01 1.725173e-01 1.766454e-01 2.232373e-01 2.307436e-01 2.778922e-01 2.904993e-01 3.358046e-01 3.551713e-01 3.962566e-01 4.236380e-01 4.583840e-01 4.943452e-01 5.210671e-01 5.652881e-01 5.828344e-01 6.340159e-01 6.417825e-01 6.976435e-01 
7.306603e-01 7.787694e-01 7.625364e-01 8.093270e-01 7.836420e-01 8.251797e-01 7.908712e-01 8.231314e-01 7.811677e-01 8.005184e-01 7.520803e-01 7.558676e-01 7.025042e-01 6.896539e-01 6.334578e-01 6.049221e-01 5.485923e-01 5.074258e-01 4.540611e-01 4.049737e-01 3.575644e-01 3.059686e-01 2.668027e-01 2.176238e-01 1.879872e-01 1.448313e-01 1.250683e-01 8.998494e-02 7.978277e-02 5.344569e-02 5.218145e-02 3.420971e-02 4.124443e-02 3.050321e-02 4.535381e-02 4.021663e-02 6.258089e-02 6.119479e-02 9.084527e-02 9.142223e-02 1.280184e-01 1.291334e-01 1.720194e-01 1.728642e-01 2.209170e-01 2.214531e-01 2.730268e-01 2.739973e-01 3.269796e-01 3.297718e-01 3.817416e-01 3.881231e-01 4.365730e-01 4.483504e-01 4.909274e-01 5.095900e-01 5.443044e-01 5.707155e-01 5.960825e-01 6.302611e-01 6.453596e-01 6.863702e-01 6.908224e-01 7.367686e-01 
6.716804e-01 7.225758e-01 7.061361e-01 7.561646e-01 7.303973e-01 7.759295e-01 7.417390e-01 7.791610e-01 7.376291e-01 7.637484e-01 7.161725e-01 7.286789e-01 6.766691e-01 6.745742e-01 6.201677e-01 6.040933e-01 5.497947e-01 5.219770e-01 4.706134e-01 4.345441e-01 3.888895e-01 3.486230e-01 3.109228e-01 2.702338e-01 2.418808e-01 2.036354e-01 1.851212e-01 1.510433e-01 1.421406e-01 1.128999e-01 1.129657e-01 8.841753e-02 9.670274e-02 7.615641e-02 9.203063e-02 7.450774e-02 9.754267e-02 8.202602e-02 1.119255e-01 9.759799e-02 1.340150e-01 1.204653e-01 1.627833e-01 1.501434e-01 1.973038e-01 1.862873e-01 2.367225e-01 2.285525e-01 2.802404e-01 2.764777e-01 3.270990e-01 3.293993e-01 3.765517e-01 3.863910e-01 4.278109e-01 4.462234e-01 4.799766e-01 5.073430e-01 5.319591e-01 5.678707e-01 5.824072e-01 6.256141e-01 6.296527e-01 6.780921e-01 
7.095359e-01 7.534179e-01 7.314700e-01 7.757697e-01 7.440058e-01 7.854524e-01 7.450016e-01 7.803455e-01 7.325155e-01 7.588920e-01 7.052015e-01 7.205221e-01 6.627716e-01 6.660812e-01 6.064151e-01 5.981162e-01 5.390087e-01 5.208470e-01 4.649498e-01 4.397030e-01 3.895595e-01 3.604690e-01 3.182007e-01 2.883105e-01 2.554248e-01 2.270791e-01 2.044514e-01 1.790813e-01 1.670649e-01 1.452233e-01 1.438130e-01 1.253414e-01 1.343195e-01 1.185573e-01 1.375782e-01 1.235793e-01 1.521740e-01 1.389287e-01 1.764389e-01 1.631001e-01 2.085729e-01 1.946673e-01 2.467534e-01 2.323436e-01 2.892408e-01 2.749996e-01 3.344737e-01 3.216463e-01 3.811384e-01 3.713890e-01 4.281954e-01 4.233640e-01 4.748559e-01 4.766673e-01 5.205069e-01 5.302855e-01 5.645984e-01 5.830339e-01 6.065116e-01 6.335073e-01 6.454336e-01 6.800480e-01 6.802591e-01 7.207371e-01 
6.551781e-01 7.029754e-01 6.811942e-01 7.300108e-01 6.985026e-01 7.452104e-01 7.051651e-01 7.467225e-01 6.995179e-01 7.332705e-01 6.804824e-01 7.044679e-01 6.479089e-01 6.611159e-01 6.028718e-01 6.053808e-01 5.477949e-01 5.407386e-01 4.862958e-01 4.716089e-01 4.227145e-01 4.027124e-01 3.614308e-01 3.383287e-01 3.061901e-01 2.817282e-01 2.596674e-01 2.349386e-01 2.233585e-01 1.988273e-01 1.977370e-01 1.733783e-01 1.825418e-01 1.580315e-01 1.770738e-01 1.519914e-01 1.804282e-01 1.544539e-01 1.916409e-01 1.647343e-01 2.097607e-01 1.823005e-01 2.338737e-01 2.067328e-01 2.631069e-01 2.376414e-01 2.966264e-01 2.745704e-01 3.336366e-01 3.169142e-01 3.733753e-01 3.638580e-01 4.150942e-01 4.143464e-01 4.580216e-01 4.670745e-01 5.013075e-01 5.204954e-01 5.439639e-01 5.728388e-01 5.848089e-01 6.221376e-01 6.224306e-01 6.662627e-01 
6.955416e-01 7.382175e-01 7.096495e-01 7.547590e-01 7.158068e-01 7.604338e-01 7.125455e-01 7.538518e-01 6.986406e-01 7.341368e-01 6.733900e-01 7.011966e-01 6.369036e-01 6.559615e-01 5.903329e-01 6.005099e-01 5.359484e-01 5.379932e-01 4.769909e-01 4.723183e-01 4.172886e-01 4.076322e-01 3.607252e-01 3.477530e-01 3.107212e-01 2.957333e-01 2.698765e-01 2.536569e-01 2.398346e-01 2.226523e-01 2.213297e-01 2.030398e-01 2.143321e-01 1.945279e-01 2.182158e-01 1.964028e-01 2.319098e-01 2.076886e-01 2.540266e-01 2.272737e-01 2.829771e-01 2.540051e-01 3.170856e-01 2.867506e-01 3.547064e-01 3.244299e-01 3.943335e-01 3.660172e-01 4.346872e-01 4.105215e-01 4.747586e-01 4.569544e-01 5.137991e-01 5.042939e-01 5.512563e-01 5.514498e-01 5.866700e-01 5.972321e-01 6.195505e-01 6.403253e-01 6.492672e-01 6.792715e-01 6.749672e-01 7.124721e-01 
6.452175e-01 6.928962e-01 6.648285e-01 7.155900e-01 6.771702e-01 7.281169e-01 6.808502e-01 7.292111e-01 6.747614e-01 7.181149e-01 6.582977e-01 6.947715e-01 6.315659e-01 6.599848e-01 5.955419e-01 6.154866e-01 5.521048e-01 5.638547e-01 5.039000e-01 5.082563e-01 4.540294e-01 4.520510e-01 4.056323e-01 3.983532e-01 3.614754e-01 3.496866e-01 3.236675e-01 3.078166e-01 2.935538e-01 2.737639e-01 2.717690e-01 2.479443e-01 2.583850e-01 2.303619e-01 2.530831e-01 2.207958e-01 2.553026e-01 2.189444e-01 2.643461e-01 2.245085e-01 2.794424e-01 2.372148e-01 2.997830e-01 2.567873e-01 3.245465e-01 2.828853e-01 3.529208e-01 3.150292e-01 3.841252e-01 3.525373e-01 4.174236e-01 3.944897e-01 4.521188e-01 4.397259e-01 4.875221e-01 4.868688e-01 5.229030e-01 5.343639e-01 5.574310e-01 5.805212e-01 5.901260e-01 6.235555e-01 6.198312e-01 6.616278e-01 
6.878405e-01 7.320804e-01 6.956634e-01 7.445271e-01 6.969571e-01 7.476242e-01 6.906959e-01 7.404673e-01 6.760912e-01 7.225916e-01 6.527946e-01 6.941438e-01 6.210862e-01 6.560153e-01 5.820034e-01 6.098921e-01 5.373611e-01 5.581773e-01 4.896302e-01 5.037744e-01 4.416811e-01 4.497660e-01 3.964439e-01 3.990668e-01 3.565721e-01 3.541416e-01 3.241894e-01 3.168456e-01 3.007569e-01 2.883861e-01 2.870525e-01 2.693708e-01 2.832208e-01 2.598986e-01 2.888566e-01 2.596630e-01 3.030945e-01 2.680533e-01 3.247015e-01 2.842484e-01 3.521768e-01 3.072983e-01 3.838694e-01 3.361898e-01 4.181139e-01 3.698876e-01 4.533739e-01 4.073524e-01 4.883654e-01 4.475382e-01 5.221312e-01 4.893820e-01 5.540416e-01 5.317932e-01 5.837227e-01 5.736474e-01 6.109330e-01 6.137804e-01 6.354260e-01 6.509802e-01 6.568290e-01 6.839799e-01 6.745670e-01 7.114613e-01 
6.408700e-01 6.912616e-01 6.556259e-01 7.112581e-01 6.644399e-01 7.224175e-01 6.662764e-01 7.238756e-01 6.603684e-01 7.151999e-01 6.463699e-01 6.965046e-01 6.244898e-01 6.685304e-01 5.955726e-01 6.326579e-01 5.610912e-01 5.908258e-01 5.230331e-01 5.453503e-01 4.836849e-01 4.986725e-01 4.453615e-01 4.530934e-01 4.101429e-01 4.105651e-01 3.796845e-01 3.725839e-01 3.551323e-01 3.401874e-01 3.371362e-01 3.140287e-01 3.259249e-01 2.944830e-01 3.214041e-01 2.817515e-01 3.232425e-01 2.759405e-01 3.309363e-01 2.771041e-01 3.438502e-01 2.852488e-01 3.612505e-01 3.002992e-01 3.823411e-01 3.220364e-01 4.063106e-01 3.500234e-01 4.323853e-01 3.835475e-01 4.598721e-01 4.215999e-01 4.881694e-01 4.629055e-01 5.167357e-01 5.059874e-01 5.450259e-01 5.492464e-01 5.724184e-01 5.910303e-01 5.981578e-01 6.296874e-01 6.213290e-01 6.636074e-01 
6.854338e-01 7.339916e-01 6.881060e-01 7.435724e-01 6.856078e-01 7.450358e-01 6.771673e-01 7.377923e-01 6.622275e-01 7.216175e-01 6.406050e-01 6.967629e-01 6.126226e-01 6.640336e-01 5.791855e-01 6.248024e-01 5.417762e-01 5.809430e-01 5.023562e-01 5.346810e-01 4.631821e-01 4.883874e-01 4.265724e-01 4.443613e-01 3.946741e-01 4.046470e-01 3.692732e-01 3.709152e-01 3.516748e-01 3.444072e-01 3.426502e-01 3.259257e-01 3.424324e-01 3.158508e-01 3.507391e-01 3.141732e-01 3.668096e-01 3.205441e-01 3.894557e-01 3.343413e-01 4.171396e-01 3.547458e-01 4.480921e-01 3.808156e-01 4.804819e-01 4.115415e-01 5.126180e-01 4.458757e-01 5.431443e-01 4.827374e-01 5.711652e-01 5.210129e-01 5.962563e-01 5.595643e-01 6.183580e-01 5.972502e-01 6.375952e-01 6.329451e-01 6.540854e-01 6.655456e-01 6.677872e-01 6.939649e-01 6.784158e-01 7.171294e-01 
6.411517e-01 6.971616e-01 6.522657e-01 7.156918e-01 6.586334e-01 7.263877e-01 6.594258e-01 7.286658e-01 6.540607e-01 7.223047e-01 6.423188e-01 7.075091e-01 6.244316e-01 6.849453e-01 6.011205e-01 6.557262e-01 5.735698e-01 6.213353e-01 5.433265e-01 5.834940e-01 5.121388e-01 5.439954e-01 4.817653e-01 5.045424e-01 4.537958e-01 4.666296e-01 4.295233e-01 4.314916e-01 4.098862e-01 4.001125e-01 3.954738e-01 3.732744e-01 3.865716e-01 3.516138e-01 3.832150e-01 3.356670e-01 3.852306e-01 3.258958e-01 3.922571e-01 3.226948e-01 4.037547e-01 3.263756e-01 4.190215e-01 3.371207e-01 4.372356e-01 3.549039e-01 4.575330e-01 3.793928e-01 4.791103e-01 4.098719e-01 5.013176e-01 4.452291e-01 5.236944e-01 4.840237e-01 5.459239e-01 5.246128e-01 5.677278e-01 5.652869e-01 5.887529e-01 6.043766e-01 6.084893e-01 6.403151e-01 6.262417e-01 6.716698e-01 
6.872130e-01 7.430577e-01 6.856163e-01 7.506609e-01 6.801443e-01 7.511195e-01 6.701139e-01 7.440383e-01 6.550384e-01 7.293206e-01 6.347678e-01 7.072468e-01 6.095918e-01 6.785220e-01 5.802901e-01 6.442755e-01 5.481147e-01 6.060037e-01 5.147041e-01 5.654640e-01 4.819394e-01 5.245395e-01 4.517674e-01 4.851024e-01 4.260238e-01 4.489024e-01 4.062831e-01 4.174863e-01 3.937511e-01 3.921420e-01 3.891972e-01 3.738487e-01 3.929167e-01 3.632292e-01 4.047065e-01 3.605139e-01 4.238506e-01 3.655404e-01 4.491205e-01 3.778002e-01 4.788135e-01 3.965235e-01 5.108677e-01 4.207781e-01 5.430782e-01 4.495494e-01 5.734051e-01 4.817782e-01 6.002999e-01 5.163591e-01 6.229296e-01 5.521324e-01 6.411963e-01 5.879078e-01 6.555486e-01 6.225198e-01 6.666782e-01 6.548802e-01 6.752207e-01 6.839966e-01 6.815442e-01 7.089585e-01 6.856556e-01 7.289132e-01 
6.450597e-01 7.098874e-01 6.535403e-01 7.278777e-01 6.583378e-01 7.387338e-01 6.587010e-01 7.420780e-01 6.541150e-01 7.378347e-01 6.443989e-01 7.262652e-01 6.297687e-01 7.079775e-01 6.108522e-01 6.838948e-01 5.886476e-01 6.551813e-01 5.644261e-01 6.231343e-01 5.395937e-01 5.890657e-01 5.155375e-01 5.542047e-01 4.934917e-01 5.196475e-01 4.744508e-01 4.863618e-01 4.591430e-01 4.552324e-01 4.480526e-01 4.271118e-01 4.414639e-01 4.028480e-01 4.394952e-01 3.832780e-01 4.421011e-01 3.692036e-01 4.490450e-01 3.613669e-01 4.598589e-01 3.604232e-01 4.738238e-01 3.668862e-01 4.900095e-01 3.810166e-01 5.073960e-01 4.026661e-01 5.250626e-01 4.311397e-01 5.423784e-01 4.651685e-01 5.590856e-01 5.030368e-01 5.752107e-01 5.428113e-01 5.908654e-01 5.825715e-01 6.060477e-01 6.205640e-01 6.205172e-01 6.552679e-01 6.337652e-01 6.853981e-01 
6.919627e-01 7.585166e-01 6.868773e-01 7.648001e-01 6.791631e-01 7.646897e-01 6.680629e-01 7.578924e-01 6.530188e-01 7.443599e-01 6.338109e-01 7.243544e-01 6.106478e-01 6.984837e-01 5.842022e-01 6.676921e-01 5.555845e-01 6.332081e-01 5.262578e-01 5.964607e-01 4.979089e-01 5.589865e-01 4.722963e-01 5.223499e-01 4.511007e-01 4.880918e-01 4.357986e-01 4.576972e-01 4.275670e-01 4.325514e-01 4.272125e-01 4.138574e-01 4.351116e-01 4.025098e-01 4.511493e-01 3.989716e-01 4.746461e-01 4.032125e-01 5.042854e-01 4.147441e-01 5.380789e-01 4.327389e-01 5.734478e-01 4.561882e-01 6.075012e-01 4.840309e-01 6.375231e-01 5.152006e-01 6.615543e-01 5.485851e-01 6.788168e-01 5.829714e-01 6.897432e-01 6.170776e-01 6.956092e-01 6.496742e-01 6.979812e-01 6.796962e-01 6.982251e-01 7.062726e-01 6.972067e-01 7.286839e-01 6.952017e-01 7.462957e-01 
6.515757e-01 7.289438e-01 6.583539e-01 7.470859e-01 6.623828e-01 7.585218e-01 6.628663e-01 7.630337e-01 6.592581e-01 7.606558e-01 6.513532e-01 7.516980e-01 6.393386e-01 7.367421e-01 6.237917e-01 7.165984e-01 6.056242e-01 6.922229e-01 5.859739e-01 6.646109e-01 5.660626e-01 6.346963e-01 5.470464e-01 6.032917e-01 5.298968e-01 5.710959e-01 5.153428e-01 5.387710e-01 5.038834e-01 5.070524e-01 4.958536e-01 4.768341e-01 4.914992e-01 4.491757e-01 4.910110e-01 4.252319e-01 4.944919e-01 4.061607e-01 5.018628e-01 3.930703e-01 5.127390e-01 3.870079e-01 5.263383e-01 3.889219e-01 5.414960e-01 3.995127e-01 5.568454e-01 4.189553e-01 5.711642e-01 4.466128e-01 5.837695e-01 4.809504e-01 5.947112e-01 5.197655e-01 6.045748e-01 5.606177e-01 6.140702e-01 6.012243e-01 6.236708e-01 6.396788e-01 6.334299e-01 6.744922e-01 6.429689e-01 7.045328e-01 
6.983260e-01 7.797201e-01 6.905993e-01 7.851989e-01 6.814520e-01 7.848558e-01 6.698755e-01 7.784175e-01 6.551018e-01 7.658174e-01 6.367497e-01 7.472663e-01 6.149135e-01 7.232847e-01 5.901871e-01 6.946863e-01 5.636261e-01 6.625185e-01 5.366514e-01 6.279796e-01 5.109127e-01 5.923438e-01 4.881350e-01 5.569262e-01 4.699774e-01 5.230990e-01 4.579203e-01 4.923330e-01 4.531861e-01 4.661968e-01 4.566771e-01 4.462397e-01 4.689095e-01 4.337466e-01 4.899206e-01 4.294655e-01 5.191327e-01 4.334551e-01 5.551682e-01 4.451203e-01 5.956640e-01 4.634116e-01 6.372412e-01 4.871068e-01 6.758292e-01 5.150474e-01 7.074540e-01 5.462025e-01 7.293275e-01 5.795193e-01 7.407098e-01 6.137192e-01 7.429507e-01 6.473260e-01 7.387198e-01 6.789476e-01 7.309600e-01 7.075147e-01 7.220658e-01 7.323151e-01 7.134832e-01 7.528744e-01 7.056777e-01 7.688069e-01 
6.596500e-01 7.540423e-01 6.657163e-01 7.728360e-01 6.698281e-01 7.851155e-01 6.710167e-01 7.907893e-01 6.686112e-01 7.899778e-01 6.623339e-01 7.830442e-01 6.523448e-01 7.705898e-01 6.392294e-01 7.533964e-01 6.239231e-01 7.323208e-01 6.075768e-01 7.081612e-01 5.913817e-01 6.815393e-01 5.763880e-01 6.528498e-01 5.633707e-01 6.223253e-01 5.527861e-01 5.902166e-01 5.448423e-01 5.570280e-01 5.396500e-01 5.236846e-01 5.373772e-01 4.915215e-01 5.383120e-01 4.620943e-01 5.427905e-01 4.369610e-01 5.510075e-01 4.176010e-01 5.627471e-01 4.054837e-01 5.771424e-01 4.021341e-01 5.926091e-01 4.089645e-01 6.070865e-01 4.267621e-01 6.186618e-01 4.550464e-01 6.264214e-01 4.918082e-01 6.309396e-01 5.339496e-01 6.337889e-01 5.781411e-01 6.366480e-01 6.215210e-01 6.406479e-01 6.619801e-01 6.461375e-01 6.981079e-01 6.527563e-01 7.289956e-01 
7.047506e-01 8.060917e-01 6.955034e-01 8.112197e-01 6.859905e-01 8.109659e-01 6.747466e-01 8.049837e-01 6.606460e-01 7.931170e-01 6.430600e-01 7.754950e-01 6.219445e-01 7.525691e-01 5.978554e-01 7.250837e-01 5.718920e-01 6.939906e-01 5.455731e-01 6.603358e-01 5.206689e-01 6.251726e-01 4.990199e-01 5.895577e-01 4.823829e-01 5.546605e-01 4.723292e-01 5.219452e-01 4.701922e-01 4.932831e-01 4.770361e-01 4.708110e-01 4.936031e-01 4.564697e-01 5.202100e-01 4.514338e-01 5.565561e-01 4.558073e-01 6.013804e-01 4.686813e-01 6.519690e-01 4.884962e-01 7.038127e-01 5.135721e-01 7.508691e-01 5.425848e-01 7.868165e-01 5.746911e-01 8.071843e-01 6.091173e-01 8.112463e-01 6.445159e-01 8.020588e-01 6.789574e-01 7.847502e-01 7.106604e-01 7.644691e-01 7.385167e-01 7.450360e-01 7.620806e-01 7.284970e-01 7.812573e-01 7.153003e-01 7.959907e-01 
6.681801e-01 7.850758e-01 6.747458e-01 8.048557e-01 6.799747e-01 8.181237e-01 6.825837e-01 8.248724e-01 6.816833e-01 8.252780e-01 6.768793e-01 8.197643e-01 6.683193e-01 8.090101e-01 6.566737e-01 7.938773e-01 6.430385e-01 7.752589e-01 6.287566e-01 7.538783e-01 6.151737e-01 7.300999e-01 6.033766e-01 7.038449e-01 5.939937e-01 6.747066e-01 5.871478e-01 6.422976e-01 5.826094e-01 6.067263e-01 5.801111e-01 5.689571e-01 5.796722e-01 5.307803e-01 5.817396e-01 4.943583e-01 5.870600e-01 4.617203e-01 5.963625e-01 4.346397e-01 6.098334e-01 4.149376e-01 6.265834e-01 4.048769e-01 6.443641e-01 4.070893e-01 6.597990e-01 4.236188e-01 6.694439e-01 4.544215e-01 6.716836e-01 4.966039e-01 6.681289e-01 5.453435e-01 6.622518e-01 5.957336e-01 6.573609e-01 6.440449e-01 6.554729e-01 6.880024e-01 6.571443e-01 7.264541e-01 6.617992e-01 7.588908e-01 
7.094345e-01 8.370592e-01 7.003295e-01 8.423257e-01 6.919882e-01 8.425665e-01 6.822521e-01 8.372329e-01 6.694807e-01 8.259872e-01 6.527127e-01 8.088411e-01 6.317517e-01 7.862074e-01 6.071745e-01 7.588498e-01 5.802492e-01 7.277389e-01 5.527649e-01 6.938595e-01 5.267975e-01 6.580540e-01 5.044641e-01 6.210190e-01 4.877314e-01 5.835500e-01 4.783225e-01 5.470009e-01 4.777200e-01 5.136902e-01 4.872012e-01 4.868006e-01 5.078306e-01 4.694868e-01 5.403817e-01 4.636401e-01 5.851609e-01 4.693388e-01 6.415040e-01 4.849904e-01 7.066822e-01 5.079879e-01 7.747880e-01 5.357120e-01 8.365523e-01 5.665425e-01 8.811824e-01 6.002430e-01 9.006498e-01 6.369887e-01 8.942254e-01 6.754081e-01 8.684067e-01 7.124173e-01 8.328506e-01 7.453274e-01 7.962643e-01 7.729910e-01 7.643305e-01 7.955191e-01 7.394986e-01 8.134891e-01 7.217259e-01 8.273283e-01 
6.760023e-01 8.220619e-01 6.846990e-01 8.430279e-01 6.924106e-01 8.573582e-01 6.973857e-01 8.650477e-01 6.984166e-01 8.662664e-01 6.949485e-01 8.614938e-01 6.871380e-01 8.515602e-01 6.758396e-01 8.375600e-01 6.624902e-01 8.206264e-01 6.488713e-01 8.016001e-01 6.367501e-01 7.806787e-01 6.274568e-01 7.572033e-01 6.215317e-01 7.297929e-01 6.186218e-01 6.969559e-01 6.177550e-01 6.580514e-01 6.179616e-01 6.141096e-01 6.189617e-01 5.678147e-01 6.214708e-01 5.224218e-01 6.269437e-01 4.805345e-01 6.371519e-01 4.439070e-01 6.532092e-01 4.143126e-01 6.744827e-01 3.948231e-01 6.978326e-01 3.902416e-01 7.175207e-01 4.053785e-01 7.267008e-01 4.414207e-01 7.216836e-01 4.937216e-01 7.065076e-01 5.539252e-01 6.885892e-01 6.142893e-01 6.739971e-01 6.699166e-01 6.657849e-01 7.186678e-01 6.643610e-01 7.601038e-01 6.684589e-01 7.944667e-01 
7.103110e-01 8.719526e-01 7.038987e-01 8.780257e-01 6.989826e-01 8.793857e-01 6.924589e-01 8.750867e-01 6.820153e-01 8.644739e-01 6.662750e-01 8.473931e-01 6.448840e-01 8.242703e-01 6.185227e-01 7.960333e-01 5.888006e-01 7.638661e-01 5.580137e-01 7.288522e-01 5.287934e-01 6.916332e-01 5.037353e-01 6.523107e-01 4.851206e-01 6.108616e-01 4.748363e-01 5.681379e-01 4.744900e-01 5.270140e-01 4.855816e-01 4.926066e-01 5.095638e-01 4.705002e-01 5.478201e-01 4.638266e-01 6.017404e-01 4.724701e-01 6.723298e-01 4.934838e-01 7.579444e-01 5.222050e-01 8.514547e-01 5.540595e-01 9.385334e-01 5.867484e-01 9.996584e-01 6.216351e-01 1.018757e+00 6.618560e-01 9.952058e-01 7.062493e-01 9.430343e-01 7.485032e-01 8.805497e-01 7.838611e-01 8.220857e-01 8.113809e-01 7.753690e-01 8.324845e-01 7.424769e-01 8.490075e-01 7.218896e-01 8.620973e-01 
6.819293e-01 8.650335e-01 6.950496e-01 8.873189e-01 7.071078e-01 9.028063e-01 7.157322e-01 9.113236e-01 7.192934e-01 9.129053e-01 7.170219e-01 9.080482e-01 7.090999e-01 8.978232e-01 6.966820e-01 8.837832e-01 6.817860e-01 8.676340e-01 6.669924e-01 8.506871e-01 6.549176e-01 8.331928e-01 6.474973e-01 8.137895e-01 6.453022e-01 7.895275e-01 6.472474e-01 7.568690e-01 6.510151e-01 7.136190e-01 6.542528e-01 6.608894e-01 6.560644e-01 6.033177e-01 6.576554e-01 5.464344e-01 6.615679e-01 4.935722e-01 6.715552e-01 4.455729e-01 6.907246e-01 4.028783e-01 7.194537e-01 3.689434e-01 7.538215e-01 3.524774e-01 7.842943e-01 3.647114e-01 7.964393e-01 4.103457e-01 7.799553e-01 4.809616e-01 7.456840e-01 5.603959e-01 7.097277e-01 6.358007e-01 6.825648e-01 7.011290e-01 6.678677e-01 7.553777e-01 6.648759e-01 7.998032e-01 6.707319e-01 8.359977e-01 
7.051386e-01 9.098635e-01 7.052752e-01 9.178252e-01 7.070213e-01 9.213561e-01 7.061116e-01 9.188146e-01 6.994258e-01 9.090252e-01 6.850892e-01 8.915913e-01 6.625826e-01 8.670340e-01 6.327960e-01 8.366894e-01 5.979231e-01 8.023138e-01 5.611195e-01 7.654316e-01 5.259485e-01 7.265888e-01 4.957720e-01 6.848905e-01 4.732859e-01 6.385176e-01 4.604514e-01 5.867009e-01 4.588542e-01 5.326736e-01 4.701669e-01 4.852593e-01 4.962367e-01 4.553616e-01 5.389388e-01 4.480942e-01 6.010796e-01 4.626671e-01 6.875419e-01 4.936239e-01 8.005647e-01 5.324312e-01 9.334922e-01 5.703782e-01 1.064955e+00 6.031207e-01 1.158156e+00 6.355793e-01 1.177136e+00 6.800437e-01 1.122231e+00 7.365662e-01 1.025387e+00 7.889347e-01 9.218019e-01 8.279722e-01 8.340265e-01 8.542842e-01 7.708019e-01 8.724841e-01 7.317179e-01 8.867292e-01 7.119166e-01 8.991321e-01 
6.848843e-01 9.138484e-01 7.056429e-01 9.376855e-01 7.245805e-01 9.546297e-01 7.385901e-01 9.640218e-01 7.455147e-01 9.655143e-01 7.442857e-01 9.595138e-01 7.350929e-01 9.474254e-01 7.195022e-01 9.315901e-01 7.004106e-01 9.148321e-01 6.817263e-01 8.996026e-01 6.676339e-01 8.867618e-01 6.613709e-01 8.742347e-01 6.638500e-01 8.565302e-01 6.728655e-01 8.261720e-01 6.835950e-01 7.774873e-01 6.908420e-01 7.114634e-01 6.924396e-01 6.372855e-01 6.907800e-01 5.657675e-01 6.895193e-01 5.011487e-01 6.961523e-01 4.411934e-01 7.177989e-01 3.815866e-01 7.573893e-01 3.239592e-01 8.115791e-01 2.837227e-01 8.665057e-01 2.876562e-01 8.914110e-01 3.507196e-01 8.523822e-01 4.556211e-01 7.829499e-01 5.673882e-01 7.187838e-01 6.643818e-01 6.758640e-01 7.409736e-01 6.559801e-01 7.999781e-01 6.547727e-01 8.462314e-01 6.663009e-01 8.835248e-01 
6.918076e-01 9.494731e-01 7.040808e-01 9.612099e-01 7.169492e-01 9.687075e-01 7.249022e-01 9.691979e-01 7.239261e-01 9.606837e-01 7.115481e-01 9.423923e-01 6.870336e-01 9.150444e-01 6.515872e-01 8.807773e-01 6.083271e-01 8.425696e-01 5.618204e-01 8.031336e-01 5.171737e-01 7.633856e-01 4.789913e-01 7.209342e-01 4.504809e-01 6.702265e-01 4.333680e-01 6.059796e-01 4.288136e-01 5.302579e-01 4.386145e-01 4.591219e-01 4.651491e-01 4.166111e-01 5.097965e-01 4.098272e-01 5.754988e-01 4.358904e-01 6.755827e-01 4.851233e-01 8.223103e-01 5.421939e-01 1.015262e+00 5.897331e-01 1.226759e+00 6.165360e-01 1.386744e+00 6.331951e-01 1.404484e+00 6.810306e-01 1.286025e+00 7.657632e-01 1.109510e+00 8.379655e-01 9.428427e-01 8.808953e-01 8.177836e-01 9.022050e-01 7.392439e-01 9.140511e-01 6.995025e-01 9.244717e-01 6.872802e-01 9.364495e-01 
6.842000e-01 9.678933e-01 7.169436e-01 9.939670e-01 7.461037e-01 1.013214e+00 7.678093e-01 1.023948e+00 7.792593e-01 1.025012e+00 7.789268e-01 1.016486e+00 7.668970e-01 1.000171e+00 7.451881e-01 9.796459e-01 7.178920e-01 9.597052e-01 6.909769e-01 9.451556e-01 6.714184e-01 9.388143e-01 6.651418e-01 9.383884e-01 6.742257e-01 9.344536e-01 6.949024e-01 9.118844e-01 7.176938e-01 8.567814e-01 7.312535e-01 7.685406e-01 7.306448e-01 6.673962e-01 7.225921e-01 5.774928e-01 7.090495e-01 5.035417e-01 7.052047e-01 4.356137e-01 7.258135e-01 3.565494e-01 7.783339e-01 2.584048e-01 8.642884e-01 1.659751e-01 9.723441e-01 1.450372e-01 1.042933e+00 2.415111e-01 9.475468e-01 4.155528e-01 8.077000e-01 5.823718e-01 7.003921e-01 7.080107e-01 6.412355e-01 7.943522e-01 6.217443e-01 8.543168e-01 6.292384e-01 8.993903e-01 6.528404e-01 9.363626e-01 
6.690061e-01 9.889004e-01 7.010018e-01 1.007708e+00 7.307906e-01 1.022168e+00 7.518055e-01 1.027833e+00 7.591249e-01 1.021450e+00 7.494965e-01 1.001611e+00 7.217728e-01 9.693113e-01 6.774928e-01 9.280576e-01 6.211552e-01 8.831513e-01 5.596425e-01 8.400167e-01 5.006384e-01 8.014466e-01 4.508852e-01 7.634150e-01 4.142251e-01 7.132579e-01 3.913271e-01 6.342269e-01 3.818714e-01 5.207434e-01 3.879650e-01 4.022133e-01 4.141393e-01 3.406365e-01 4.585267e-01 3.379760e-01 5.150883e-01 3.855309e-01 6.165860e-01 4.678997e-01 7.966122e-01 5.592465e-01 1.075406e+00 6.253741e-01 1.433977e+00 6.328185e-01 1.747920e+00 5.898312e-01 1.756715e+00 6.333565e-01 1.496381e+00 7.959455e-01 1.173292e+00 9.068058e-01 9.136688e-01 9.482886e-01 7.485211e-01 9.543638e-01 6.641955e-01 9.532737e-01 6.364353e-01 9.579399e-01 6.435181e-01 9.707435e-01 
6.801292e-01 1.025699e+00 7.303620e-01 1.055800e+00 7.739607e-01 1.079309e+00 8.063837e-01 1.092717e+00 8.240210e-01 1.093374e+00 8.245700e-01 1.080560e+00 8.076925e-01 1.056416e+00 7.757056e-01 1.026300e+00 7.340804e-01 9.981728e-01 6.917050e-01 9.811898e-01 6.603882e-01 9.832289e-01 6.515275e-01 1.003802e+00 6.703955e-01 1.028167e+00 7.116313e-01 1.026760e+00 7.574589e-01 9.656809e-01 7.824005e-01 8.354820e-01 7.737420e-01 6.841767e-01 7.585598e-01 5.724664e-01 7.185721e-01 4.996576e-01 6.895848e-01 4.401367e-01 7.003207e-01 3.471794e-01 7.609846e-01 1.797312e-01 8.847288e-01 -3.521637e-02 1.098974e+00 -1.306147e-01 1.342465e+00 3.571358e-02 1.069013e+00 3.642896e-01 7.836259e-01 6.243530e-01 6.212209e-01 7.808878e-01 5.580110e-01 8.671623e-01 5.544430e-01 9.187638e-01 5.834754e-01 9.573332e-01 6.287879e-01 9.923009e-01 