# vtk DataFile Version 2.0
Comment goes here
ASCII

DATASET STRUCTURED_POINTS
DIMENSIONS    64   64   1

ORIGIN    0.000   0.000   0.000
SPACING   0.0156250.015625   1.000

POINT_DATA   4096
VECTORS u double

-0.053906 -0.129002 1.000000 -0.045471 -0.118832 1.000000 -0.035032 -0.115359 1.000000 -0.026819 -0.106939 1.000000 -0.015170 -0.106474 1.000000 -0.007847 -0.100030 1.000000 0.005116 -0.102488 1.000000 0.010717 -0.098442 1.000000 0.025004 -0.103266 1.000000 0.028005 -0.102306 1.000000 0.043285 -0.108244 1.000000 0.043096 -0.111398 1.000000 0.058289 -0.116553 1.000000 0.055134 -0.125018 1.000000 0.068082 -0.127546 1.000000 0.063422 -0.141828 1.000000 0.071484 -0.141291 1.000000 0.067764 -0.159417 1.000000 0.070757 -0.157084 1.000000 0.071331 -0.175139 1.000000 0.072205 -0.173421 1.000000 0.079224 -0.189719 1.000000 0.079125 -0.192167 1.000000 0.089875 -0.207032 1.000000 0.089012 -0.215208 1.000000 0.099681 -0.230026 1.000000 0.097375 -0.243689 1.000000 0.104757 -0.259340 1.000000 0.099704 -0.276696 1.000000 0.101871 -0.292501 1.000000 0.093215 -0.310682 1.000000 0.089979 -0.324831 1.000000 0.078082 -0.341027 1.000000 0.070765 -0.351837 1.000000 0.056990 -0.364326 1.000000 0.047550 -0.371082 1.000000 0.033465 -0.379477 1.000000 0.023590 -0.382467 1.000000 0.010270 -0.387318 1.000000 0.000826 -0.387352 1.000000 -0.011455 -0.389448 1.000000 -0.020453 -0.387191 1.000000 -0.032021 -0.386894 1.000000 -0.040933 -0.382390 1.000000 -0.052101 -0.379407 1.000000 -0.060980 -0.372171 1.000000 -0.071515 -0.365946 1.000000 -0.079793 -0.355541 1.000000 -0.088901 -0.345884 1.000000 -0.095618 -0.332433 1.000000 -0.102356 -0.319828 1.000000 -0.106629 -0.304076 1.000000 -0.110340 -0.289553 1.000000 -0.111695 -0.272597 1.000000 -0.112207 -0.257402 1.000000 -0.110665 -0.240346 1.000000 -0.108252 -0.225632 1.000000 -0.104208 -0.209340 1.000000 -0.099391 -0.195995 1.000000 -0.093418 -0.180997 1.000000 -0.086745 -0.169628 1.000000 -0.079432 -0.156174 1.000000 -0.071327 -0.147176 1.000000 -0.063206 -0.135348 1.000000 
-0.046843 -0.136260 1.000000 -0.039875 -0.126747 1.000000 -0.030561 -0.122991 1.000000 -0.023947 -0.115347 1.000000 -0.013586 -0.114298 1.000000 -0.007928 -0.108823 1.000000 0.003537 -0.110390 1.000000 0.007557 -0.107531 1.000000 0.020120 -0.111278 1.000000 0.021897 -0.111631 1.000000 0.035334 -0.116660 1.000000 0.034678 -0.120898 1.000000 0.048284 -0.125907 1.000000 0.045850 -0.134470 1.000000 0.058173 -0.138120 1.000000 0.055603 -0.150555 1.000000 0.064608 -0.152058 1.000000 0.063849 -0.166405 1.000000 0.068358 -0.165905 1.000000 0.070816 -0.180023 1.000000 0.071775 -0.179301 1.000000 0.077777 -0.192973 1.000000 0.076675 -0.195241 1.000000 0.084617 -0.208852 1.000000 0.082398 -0.215877 1.000000 0.090004 -0.229985 1.000000 0.086561 -0.241742 1.000000 0.091695 -0.256486 1.000000 0.086205 -0.271494 1.000000 0.087467 -0.286094 1.000000 0.079309 -0.302017 1.000000 0.076484 -0.315052 1.000000 0.065870 -0.329596 1.000000 0.059843 -0.339782 1.000000 0.047720 -0.351446 1.000000 0.039890 -0.358184 1.000000 0.027407 -0.366458 1.000000 0.019035 -0.369864 1.000000 0.007034 -0.374963 1.000000 -0.001159 -0.375540 1.000000 -0.012373 -0.377907 1.000000 -0.020249 -0.376090 1.000000 -0.030777 -0.375939 1.000000 -0.038459 -0.371779 1.000000 -0.048403 -0.368936 1.000000 -0.055831 -0.362162 1.000000 -0.064950 -0.356317 1.000000 -0.071670 -0.346711 1.000000 -0.079366 -0.337828 1.000000 -0.084676 -0.325565 1.000000 -0.090266 -0.314092 1.000000 -0.093530 -0.299793 1.000000 -0.096543 -0.286582 1.000000 -0.097426 -0.271137 1.000000 -0.097745 -0.257224 1.000000 -0.096271 -0.241548 1.000000 -0.094108 -0.227921 1.000000 -0.090589 -0.212773 1.000000 -0.086344 -0.200241 1.000000 -0.081240 -0.186142 1.000000 -0.075345 -0.175295 1.000000 -0.069148 -0.162559 1.000000 -0.061950 -0.153810 1.000000 -0.055135 -0.142616 1.000000 
-0.038006 -0.144262 1.000000 -0.032140 -0.135114 1.000000 -0.023541 -0.131286 1.000000 -0.017991 -0.123914 1.000000 -0.008471 -0.122493 1.000000 -0.003717 -0.117154 1.000000 0.006662 -0.117974 1.000000 0.010098 -0.115025 1.000000 0.021157 -0.117606 1.000000 0.022827 -0.117519 1.000000 0.034148 -0.121024 1.000000 0.033888 -0.124348 1.000000 0.044684 -0.127725 1.000000 0.042858 -0.134907 1.000000 0.051969 -0.137299 1.000000 0.049569 -0.148262 1.000000 0.055869 -0.149538 1.000000 0.054328 -0.163168 1.000000 0.057653 -0.164051 1.000000 0.058494 -0.178556 1.000000 0.059754 -0.180383 1.000000 0.063692 -0.194619 1.000000 0.063561 -0.199006 1.000000 0.069531 -0.212755 1.000000 0.068231 -0.220595 1.000000 0.074315 -0.234189 1.000000 0.071569 -0.245379 1.000000 0.075890 -0.258984 1.000000 0.071138 -0.272468 1.000000 0.072461 -0.285605 1.000000 0.065369 -0.299699 1.000000 0.063426 -0.311393 1.000000 0.054251 -0.324386 1.000000 0.049649 -0.333688 1.000000 0.039152 -0.344373 1.000000 0.032934 -0.350768 1.000000 0.022021 -0.358623 1.000000 0.015174 -0.362094 1.000000 0.004541 -0.367124 1.000000 -0.002309 -0.367944 1.000000 -0.012340 -0.370358 1.000000 -0.018972 -0.368787 1.000000 -0.028361 -0.368685 1.000000 -0.034751 -0.364764 1.000000 -0.043475 -0.362035 1.000000 -0.049504 -0.355624 1.000000 -0.057330 -0.350107 1.000000 -0.062641 -0.341125 1.000000 -0.069111 -0.332878 1.000000 -0.073196 -0.321533 1.000000 -0.077812 -0.310974 1.000000 -0.080218 -0.297799 1.000000 -0.082633 -0.285658 1.000000 -0.083123 -0.271395 1.000000 -0.083251 -0.258556 1.000000 -0.081849 -0.243983 1.000000 -0.079841 -0.231314 1.000000 -0.076785 -0.217103 1.000000 -0.072940 -0.205344 1.000000 -0.068588 -0.191997 1.000000 -0.063235 -0.181719 1.000000 -0.057984 -0.169569 1.000000 -0.051399 -0.161189 1.000000 -0.045643 -0.150455 1.000000 
-0.031487 -0.149762 1.000000 -0.026867 -0.141211 1.000000 -0.019316 -0.137141 1.000000 -0.015089 -0.130418 1.000000 -0.006744 -0.128572 1.000000 -0.003306 -0.123955 1.000000 0.005780 -0.124205 1.000000 0.008044 -0.122026 1.000000 0.017740 -0.124007 1.000000 0.018572 -0.124623 1.000000 0.028576 -0.127722 1.000000 0.028024 -0.131434 1.000000 0.037766 -0.134876 1.000000 0.036339 -0.141754 1.000000 0.044931 -0.144830 1.000000 0.043568 -0.154455 1.000000 0.049994 -0.156817 1.000000 0.049722 -0.168189 1.000000 0.053398 -0.170070 1.000000 0.054915 -0.182124 1.000000 0.056092 -0.184499 1.000000 0.059466 -0.196780 1.000000 0.058780 -0.201079 1.000000 0.063238 -0.213522 1.000000 0.061179 -0.220661 1.000000 0.065489 -0.233324 1.000000 0.062111 -0.243318 1.000000 0.065032 -0.256055 1.000000 0.060075 -0.268064 1.000000 0.060755 -0.280325 1.000000 0.054038 -0.292982 1.000000 0.052273 -0.303934 1.000000 0.043992 -0.315818 1.000000 0.040196 -0.324684 1.000000 0.030901 -0.334730 1.000000 0.025822 -0.341053 1.000000 0.016186 -0.348699 1.000000 0.010567 -0.352384 1.000000 0.001144 -0.357480 1.000000 -0.004505 -0.358659 1.000000 -0.013409 -0.361244 1.000000 -0.018852 -0.360069 1.000000 -0.027123 -0.360160 1.000000 -0.032271 -0.356665 1.000000 -0.039819 -0.354182 1.000000 -0.044540 -0.348307 1.000000 -0.051155 -0.343181 1.000000 -0.055179 -0.334930 1.000000 -0.060520 -0.327273 1.000000 -0.063490 -0.316865 1.000000 -0.067201 -0.307070 1.000000 -0.068810 -0.294971 1.000000 -0.070654 -0.283677 1.000000 -0.070748 -0.270519 1.000000 -0.070674 -0.258498 1.000000 -0.069291 -0.244957 1.000000 -0.067425 -0.232985 1.000000 -0.064759 -0.219674 1.000000 -0.061336 -0.208437 1.000000 -0.057678 -0.195847 1.000000 -0.052958 -0.185899 1.000000 -0.048638 -0.174395 1.000000 -0.042845 -0.166151 1.000000 -0.038201 -0.156009 1.000000 
-0.023200 -0.155595 1.000000 -0.019501 -0.147285 1.000000 -0.012725 -0.143064 1.000000 -0.009387 -0.136486 1.000000 -0.001967 -0.134276 1.000000 0.000701 -0.129678 1.000000 0.008647 -0.129324 1.000000 0.010355 -0.126985 1.000000 0.018617 -0.128133 1.000000 0.019165 -0.128356 1.000000 0.027385 -0.130476 1.000000 0.026784 -0.133538 1.000000 0.034426 -0.136040 1.000000 0.032994 -0.142072 1.000000 0.039398 -0.144528 1.000000 0.037768 -0.153324 1.000000 0.042370 -0.155691 1.000000 0.041357 -0.166572 1.000000 0.044007 -0.169244 1.000000 0.044351 -0.181250 1.000000 0.045342 -0.184934 1.000000 0.047316 -0.197307 1.000000 0.046970 -0.202778 1.000000 0.050076 -0.215155 1.000000 0.048545 -0.222847 1.000000 0.051791 -0.235121 1.000000 0.048998 -0.244922 1.000000 0.051334 -0.256947 1.000000 0.047084 -0.268190 1.000000 0.047769 -0.279568 1.000000 0.041985 -0.291218 1.000000 0.040795 -0.301347 1.000000 0.033680 -0.312309 1.000000 0.030883 -0.320596 1.000000 0.022895 -0.329998 1.000000 0.019041 -0.336054 1.000000 0.010731 -0.343368 1.000000 0.006401 -0.347051 1.000000 -0.001764 -0.352052 1.000000 -0.006138 -0.353392 1.000000 -0.013858 -0.356010 1.000000 -0.018037 -0.355074 1.000000 -0.025157 -0.355266 1.000000 -0.029022 -0.352068 1.000000 -0.035416 -0.349765 1.000000 -0.038843 -0.344287 1.000000 -0.044327 -0.339468 1.000000 -0.047123 -0.331761 1.000000 -0.051440 -0.324567 1.000000 -0.053370 -0.314851 1.000000 -0.056267 -0.305654 1.000000 -0.057134 -0.294346 1.000000 -0.058448 -0.283720 1.000000 -0.058163 -0.271375 1.000000 -0.057865 -0.260013 1.000000 -0.056471 -0.247232 1.000000 -0.054660 -0.235846 1.000000 -0.052310 -0.223193 1.000000 -0.049165 -0.212426 1.000000 -0.046082 -0.200374 1.000000 -0.041806 -0.190759 1.000000 -0.038247 -0.179682 1.000000 -0.033017 -0.171626 1.000000 -0.029250 -0.161812 1.000000 
-0.016957 -0.159511 1.000000 -0.014326 -0.151687 1.000000 -0.008507 -0.147255 1.000000 -0.006285 -0.141176 1.000000 0.000082 -0.138660 1.000000 0.001669 -0.134570 1.000000 0.008496 -0.133858 1.000000 0.009259 -0.131995 1.000000 0.016392 -0.132817 1.000000 0.016252 -0.133391 1.000000 0.023421 -0.135341 1.000000 0.022493 -0.138475 1.000000 0.029279 -0.141086 1.000000 0.027923 -0.146726 1.000000 0.033776 -0.149605 1.000000 0.032540 -0.157427 1.000000 0.036905 -0.160405 1.000000 0.036352 -0.169826 1.000000 0.038904 -0.173065 1.000000 0.039402 -0.183459 1.000000 0.040184 -0.187464 1.000000 0.041745 -0.198408 1.000000 0.041024 -0.203839 1.000000 0.043243 -0.215097 1.000000 0.041272 -0.222377 1.000000 0.043477 -0.233777 1.000000 0.040352 -0.242860 1.000000 0.041842 -0.254140 1.000000 0.037538 -0.264499 1.000000 0.037815 -0.275226 1.000000 0.032347 -0.286008 1.000000 0.031262 -0.295629 1.000000 0.024813 -0.305906 1.000000 0.022563 -0.313899 1.000000 0.015486 -0.322889 1.000000 0.012480 -0.328888 1.000000 0.005202 -0.336059 1.000000 0.001882 -0.339889 1.000000 -0.005215 -0.344942 1.000000 -0.008499 -0.346565 1.000000 -0.015148 -0.349344 1.000000 -0.018186 -0.348771 1.000000 -0.024221 -0.349175 1.000000 -0.026898 -0.346405 1.000000 -0.032192 -0.344360 1.000000 -0.034417 -0.339396 1.000000 -0.038820 -0.334901 1.000000 -0.040475 -0.327817 1.000000 -0.043810 -0.321026 1.000000 -0.044766 -0.312038 1.000000 -0.046872 -0.303306 1.000000 -0.047030 -0.292791 1.000000 -0.047815 -0.282648 1.000000 -0.047150 -0.271102 1.000000 -0.046620 -0.260190 1.000000 -0.045190 -0.248163 1.000000 -0.043437 -0.237146 1.000000 -0.041374 -0.225169 1.000000 -0.038544 -0.214665 1.000000 -0.036027 -0.203206 1.000000 -0.032278 -0.193734 1.000000 -0.029509 -0.183184 1.000000 -0.024978 -0.175149 1.000000 -0.022168 -0.165826 1.000000 
-0.009059 -0.163437 1.000000 -0.007238 -0.155735 1.000000 -0.002208 -0.151106 1.000000 -0.000782 -0.145075 1.000000 0.004649 -0.142230 1.000000 0.005517 -0.138092 1.000000 0.011235 -0.136914 1.000000 0.011410 -0.134881 1.000000 0.017235 -0.135126 1.000000 0.016657 -0.135385 1.000000 0.022319 -0.136717 1.000000 0.021063 -0.139396 1.000000 0.026208 -0.141470 1.000000 0.024523 -0.146568 1.000000 0.028760 -0.149145 1.000000 0.027051 -0.156453 1.000000 0.030063 -0.159504 1.000000 0.028802 -0.168571 1.000000 0.030475 -0.172294 1.000000 0.030051 -0.182530 1.000000 0.030472 -0.187277 1.000000 0.031008 -0.198148 1.000000 0.030328 -0.204276 1.000000 0.031575 -0.215403 1.000000 0.029892 -0.223081 1.000000 0.031334 -0.234201 1.000000 0.028659 -0.243287 1.000000 0.029723 -0.254132 1.000000 0.026028 -0.264164 1.000000 0.026292 -0.274377 1.000000 0.021613 -0.284666 1.000000 0.020925 -0.293813 1.000000 0.015435 -0.303610 1.000000 0.013920 -0.311270 1.000000 0.007921 -0.319914 1.000000 0.005880 -0.325769 1.000000 -0.000267 -0.332771 1.000000 -0.002485 -0.336634 1.000000 -0.008451 -0.341671 1.000000 -0.010558 -0.343458 1.000000 -0.016094 -0.346324 1.000000 -0.017908 -0.346001 1.000000 -0.022844 -0.346553 1.000000 -0.024270 -0.344097 1.000000 -0.028484 -0.342247 1.000000 -0.029469 -0.337660 1.000000 -0.032842 -0.333410 1.000000 -0.033344 -0.326770 1.000000 -0.035760 -0.320277 1.000000 -0.035740 -0.311790 1.000000 -0.037104 -0.303390 1.000000 -0.036549 -0.293403 1.000000 -0.036823 -0.283600 1.000000 -0.035756 -0.272570 1.000000 -0.034967 -0.261973 1.000000 -0.033458 -0.250415 1.000000 -0.031690 -0.239662 1.000000 -0.029844 -0.228085 1.000000 -0.027215 -0.217773 1.000000 -0.025159 -0.206640 1.000000 -0.021790 -0.197278 1.000000 -0.019663 -0.186983 1.000000 -0.015661 -0.178967 1.000000 -0.013610 -0.169833 1.000000 
-0.002858 -0.165883 1.000000 -0.001992 -0.158537 1.000000 0.002156 -0.153711 1.000000 0.002596 -0.148033 1.000000 0.007069 -0.144960 1.000000 0.006989 -0.141156 1.000000 0.011711 -0.139751 1.000000 0.011052 -0.137995 1.000000 0.015892 -0.138064 1.000000 0.014667 -0.138475 1.000000 0.019417 -0.139748 1.000000 0.017753 -0.142364 1.000000 0.022125 -0.144546 1.000000 0.020275 -0.149278 1.000000 0.023926 -0.152132 1.000000 0.022228 -0.158730 1.000000 0.024838 -0.162156 1.000000 0.023621 -0.170238 1.000000 0.024999 -0.174314 1.000000 0.024473 -0.183457 1.000000 0.024608 -0.188421 1.000000 0.024782 -0.198264 1.000000 0.023792 -0.204406 1.000000 0.024457 -0.214661 1.000000 0.022485 -0.222136 1.000000 0.023281 -0.232543 1.000000 0.020428 -0.241249 1.000000 0.020973 -0.251510 1.000000 0.017301 -0.261068 1.000000 0.017320 -0.270811 1.000000 0.012919 -0.280641 1.000000 0.012325 -0.289451 1.000000 0.007361 -0.298901 1.000000 0.006263 -0.306385 1.000000 0.000990 -0.314850 1.000000 -0.000375 -0.320700 1.000000 -0.005664 -0.327693 1.000000 -0.007020 -0.331705 1.000000 -0.012046 -0.336868 1.000000 -0.013161 -0.338922 1.000000 -0.017706 -0.341995 1.000000 -0.018433 -0.342020 1.000000 -0.022343 -0.342813 1.000000 -0.022622 -0.340766 1.000000 -0.025792 -0.339161 1.000000 -0.025620 -0.335037 1.000000 -0.027976 -0.331026 1.000000 -0.027387 -0.324899 1.000000 -0.028875 -0.318631 1.000000 -0.027921 -0.310693 1.000000 -0.028524 -0.302497 1.000000 -0.027273 -0.293072 1.000000 -0.027012 -0.283440 1.000000 -0.025545 -0.272958 1.000000 -0.024483 -0.262488 1.000000 -0.022892 -0.251439 1.000000 -0.021118 -0.240760 1.000000 -0.019493 -0.229644 1.000000 -0.017106 -0.219350 1.000000 -0.015536 -0.208631 1.000000 -0.012624 -0.199230 1.000000 -0.011198 -0.189313 1.000000 -0.007829 -0.181202 1.000000 -0.006636 -0.172428 1.000000 
0.004834 -0.168080 1.000000 0.004937 -0.160749 1.000000 0.008298 -0.155693 1.000000 0.007973 -0.149988 1.000000 0.011528 -0.146623 1.000000 0.010730 -0.142735 1.000000 0.014400 -0.140978 1.000000 0.013101 -0.139061 1.000000 0.016757 -0.138741 1.000000 0.014977 -0.138910 1.000000 0.018435 -0.139803 1.000000 0.016273 -0.142104 1.000000 0.019305 -0.143991 1.000000 0.016953 -0.148369 1.000000 0.019325 -0.151098 1.000000 0.017051 -0.157366 1.000000 0.018580 -0.160897 1.000000 0.016673 -0.168731 1.000000 0.017281 -0.173145 1.000000 0.015968 -0.182138 1.000000 0.015682 -0.187586 1.000000 0.015040 -0.197332 1.000000 0.013939 -0.203950 1.000000 0.013853 -0.214096 1.000000 0.012013 -0.221905 1.000000 0.012223 -0.232144 1.000000 0.009693 -0.240979 1.000000 0.009906 -0.251006 1.000000 0.006728 -0.260511 1.000000 0.006720 -0.269994 1.000000 0.002975 -0.279671 1.000000 0.002667 -0.288255 1.000000 -0.001497 -0.297547 1.000000 -0.002028 -0.304898 1.000000 -0.006392 -0.313276 1.000000 -0.006962 -0.319116 1.000000 -0.011272 -0.326127 1.000000 -0.011660 -0.330252 1.000000 -0.015671 -0.335529 1.000000 -0.015689 -0.337799 1.000000 -0.019199 -0.341052 1.000000 -0.018734 -0.341364 1.000000 -0.021603 -0.342365 1.000000 -0.020631 -0.340648 1.000000 -0.022772 -0.339248 1.000000 -0.021352 -0.335476 1.000000 -0.022725 -0.331644 1.000000 -0.020969 -0.325870 1.000000 -0.021574 -0.319742 1.000000 -0.019625 -0.312141 1.000000 -0.019501 -0.304038 1.000000 -0.017506 -0.294915 1.000000 -0.016721 -0.285327 1.000000 -0.014813 -0.275099 1.000000 -0.013456 -0.264627 1.000000 -0.011736 -0.253780 1.000000 -0.009901 -0.243061 1.000000 -0.008437 -0.232098 1.000000 -0.006205 -0.221729 1.000000 -0.005040 -0.211122 1.000000 -0.002474 -0.201616 1.000000 -0.001635 -0.191778 1.000000 0.001223 -0.183529 1.000000 0.001710 -0.174804 1.000000 
0.011196 -0.169109 1.000000 0.010396 -0.162001 1.000000 0.012917 -0.156748 1.000000 0.011667 -0.151263 1.000000 0.014322 -0.147717 1.000000 0.012636 -0.144029 1.000000 0.015384 -0.142122 1.000000 0.013290 -0.140352 1.000000 0.016043 -0.139940 1.000000 0.013606 -0.140153 1.000000 0.016224 -0.141043 1.000000 0.013568 -0.143234 1.000000 0.015862 -0.145226 1.000000 0.013175 -0.149297 1.000000 0.014937 -0.152230 1.000000 0.012441 -0.157985 1.000000 0.013485 -0.161779 1.000000 0.011388 -0.168939 1.000000 0.011605 -0.173609 1.000000 0.010045 -0.181858 1.000000 0.009423 -0.187493 1.000000 0.008427 -0.196521 1.000000 0.007032 -0.203218 1.000000 0.006506 -0.212734 1.000000 0.004439 -0.220507 1.000000 0.004208 -0.230224 1.000000 0.001564 -0.238932 1.000000 0.001439 -0.248545 1.000000 -0.001689 -0.257882 1.000000 -0.001841 -0.267057 1.000000 -0.005344 -0.276588 1.000000 -0.005553 -0.284980 1.000000 -0.009283 -0.294206 1.000000 -0.009466 -0.301490 1.000000 -0.013228 -0.309916 1.000000 -0.013226 -0.315820 1.000000 -0.016800 -0.322995 1.000000 -0.016423 -0.327306 1.000000 -0.019595 -0.332840 1.000000 -0.018685 -0.335394 1.000000 -0.021275 -0.338950 1.000000 -0.019750 -0.339617 1.000000 -0.021633 -0.340915 1.000000 -0.019510 -0.339596 1.000000 -0.020627 -0.338440 1.000000 -0.018024 -0.335084 1.000000 -0.018380 -0.331409 1.000000 -0.015493 -0.326050 1.000000 -0.015155 -0.319974 1.000000 -0.012225 -0.312767 1.000000 -0.011305 -0.304616 1.000000 -0.008567 -0.295852 1.000000 -0.007201 -0.286134 1.000000 -0.004849 -0.276223 1.000000 -0.003169 -0.265565 1.000000 -0.001326 -0.254995 1.000000 0.000562 -0.244059 1.000000 0.001838 -0.233340 1.000000 0.003869 -0.222746 1.000000 0.004577 -0.212362 1.000000 0.006720 -0.202634 1.000000 0.006889 -0.193010 1.000000 0.009144 -0.184548 1.000000 0.008814 -0.176039 1.000000 
0.018872 -0.169662 1.000000 0.017300 -0.162471 1.000000 0.019036 -0.156965 1.000000 0.017006 -0.151393 1.000000 0.018763 -0.147592 1.000000 0.016328 -0.143797 1.000000 0.018078 -0.141631 1.000000 0.015285 -0.139720 1.000000 0.016956 -0.139057 1.000000 0.013875 -0.139090 1.000000 0.015355 -0.139766 1.000000 0.012093 -0.141743 1.000000 0.013244 -0.143598 1.000000 0.009953 -0.147444 1.000000 0.010640 -0.150363 1.000000 0.007508 -0.155914 1.000000 0.007630 -0.159845 1.000000 0.004850 -0.166851 1.000000 0.004366 -0.171803 1.000000 0.002090 -0.179956 1.000000 0.001022 -0.185968 1.000000 -0.000682 -0.194942 1.000000 -0.002273 -0.202030 1.000000 -0.003434 -0.211503 1.000000 -0.005478 -0.219607 1.000000 -0.006202 -0.229269 1.000000 -0.008629 -0.238210 1.000000 -0.009046 -0.247753 1.000000 -0.011785 -0.257232 1.000000 -0.011987 -0.266339 1.000000 -0.014949 -0.275959 1.000000 -0.014951 -0.284317 1.000000 -0.018007 -0.293634 1.000000 -0.017738 -0.300952 1.000000 -0.020721 -0.309517 1.000000 -0.020041 -0.315544 1.000000 -0.022758 -0.322929 1.000000 -0.021504 -0.327457 1.000000 -0.023760 -0.333267 1.000000 -0.021798 -0.336119 1.000000 -0.023425 -0.339987 1.000000 -0.020700 -0.341006 1.000000 -0.021585 -0.342604 1.000000 -0.018158 -0.341655 1.000000 -0.018264 -0.340734 1.000000 -0.014324 -0.337723 1.000000 -0.013695 -0.334174 1.000000 -0.009538 -0.329095 1.000000 -0.008296 -0.323011 1.000000 -0.004270 -0.315991 1.000000 -0.002589 -0.307696 1.000000 0.000975 -0.299018 1.000000 0.002906 -0.289046 1.000000 0.005756 -0.279131 1.000000 0.007770 -0.268149 1.000000 0.009770 -0.257511 1.000000 0.011753 -0.246225 1.000000 0.012876 -0.235404 1.000000 0.014772 -0.224468 1.000000 0.015072 -0.213973 1.000000 0.016877 -0.203929 1.000000 0.016452 -0.194203 1.000000 0.018194 -0.185454 1.000000 0.017150 -0.176855 1.000000 
0.025579 -0.169260 1.000000 0.023094 -0.162165 1.000000 0.023995 -0.156453 1.000000 0.021040 -0.150991 1.000000 0.021918 -0.147038 1.000000 0.018597 -0.143343 1.000000 0.019460 -0.141079 1.000000 0.015864 -0.139230 1.000000 0.016672 -0.138530 1.000000 0.012897 -0.138552 1.000000 0.013570 -0.139261 1.000000 0.009736 -0.141123 1.000000 0.010161 -0.143086 1.000000 0.006412 -0.146693 1.000000 0.006468 -0.149786 1.000000 0.002963 -0.154975 1.000000 0.002550 -0.159121 1.000000 -0.000565 -0.165675 1.000000 -0.001498 -0.170849 1.000000 -0.004116 -0.178513 1.000000 -0.005561 -0.184722 1.000000 -0.007633 -0.193226 1.000000 -0.009529 -0.200466 1.000000 -0.011070 -0.209530 1.000000 -0.013328 -0.217739 1.000000 -0.014396 -0.227073 1.000000 -0.016921 -0.236088 1.000000 -0.017583 -0.245389 1.000000 -0.020276 -0.254941 1.000000 -0.020569 -0.263894 1.000000 -0.023324 -0.273624 1.000000 -0.023228 -0.281921 1.000000 -0.025919 -0.291419 1.000000 -0.025349 -0.298776 1.000000 -0.027821 -0.307612 1.000000 -0.026638 -0.313783 1.000000 -0.028714 -0.321532 1.000000 -0.026760 -0.326304 1.000000 -0.028258 -0.332546 1.000000 -0.025405 -0.335729 1.000000 -0.026164 -0.340048 1.000000 -0.022368 -0.341456 1.000000 -0.022284 -0.343457 1.000000 -0.017641 -0.342917 1.000000 -0.016697 -0.342274 1.000000 -0.011465 -0.339653 1.000000 -0.009755 -0.336195 1.000000 -0.004331 -0.331450 1.000000 -0.002054 -0.325242 1.000000 0.003089 -0.318475 1.000000 0.005667 -0.309861 1.000000 0.010083 -0.301346 1.000000 0.012685 -0.290915 1.000000 0.016048 -0.281087 1.000000 0.018451 -0.269579 1.000000 0.020598 -0.258978 1.000000 0.022669 -0.247165 1.000000 0.023596 -0.236358 1.000000 0.025299 -0.224943 1.000000 0.025116 -0.214467 1.000000 0.026490 -0.204014 1.000000 0.025365 -0.194328 1.000000 0.026491 -0.185246 1.000000 0.024606 -0.176717 1.000000 
0.033424 -0.168150 1.000000 0.030108 -0.160887 1.000000 0.030209 -0.154911 1.000000 0.026422 -0.149316 1.000000 0.026411 -0.145149 1.000000 0.022288 -0.141338 1.000000 0.022190 -0.138897 1.000000 0.017836 -0.136932 1.000000 0.017633 -0.136091 1.000000 0.013145 -0.135988 1.000000 0.012784 -0.136604 1.000000 0.008268 -0.138334 1.000000 0.007674 -0.140274 1.000000 0.003255 -0.143751 1.000000 0.002358 -0.146914 1.000000 -0.001825 -0.151996 1.000000 -0.003069 -0.156317 1.000000 -0.006876 -0.162802 1.000000 -0.008472 -0.168252 1.000000 -0.011782 -0.175894 1.000000 -0.013691 -0.182451 1.000000 -0.016425 -0.190974 1.000000 -0.018578 -0.198593 1.000000 -0.020707 -0.207703 1.000000 -0.023022 -0.216280 1.000000 -0.024552 -0.225676 1.000000 -0.026946 -0.235024 1.000000 -0.027899 -0.244398 1.000000 -0.030291 -0.254246 1.000000 -0.030670 -0.263291 1.000000 -0.032976 -0.273299 1.000000 -0.032745 -0.281722 1.000000 -0.034862 -0.291513 1.000000 -0.033930 -0.299050 1.000000 -0.035728 -0.308228 1.000000 -0.033960 -0.314650 1.000000 -0.035280 -0.322807 1.000000 -0.032518 -0.327913 1.000000 -0.033185 -0.334623 1.000000 -0.029299 -0.338213 1.000000 -0.029153 -0.343023 1.000000 -0.024108 -0.344886 1.000000 -0.023047 -0.347331 1.000000 -0.016976 -0.347241 1.000000 -0.015001 -0.346911 1.000000 -0.008245 -0.344665 1.000000 -0.005493 -0.341308 1.000000 0.001415 -0.336796 1.000000 0.004678 -0.330431 1.000000 0.011113 -0.323712 1.000000 0.014539 -0.314690 1.000000 0.019921 -0.306036 1.000000 0.023163 -0.295011 1.000000 0.027091 -0.284897 1.000000 0.029879 -0.272699 1.000000 0.032185 -0.261730 1.000000 0.034372 -0.249223 1.000000 0.035099 -0.238034 1.000000 0.036663 -0.225987 1.000000 0.036002 -0.215163 1.000000 0.037015 -0.204178 1.000000 0.035221 -0.194204 1.000000 0.035805 -0.184694 1.000000 0.033137 -0.175943 1.000000 
0.040634 -0.166231 1.000000 0.036333 -0.158950 1.000000 0.035564 -0.152768 1.000000 0.030802 -0.147193 1.000000 0.029895 -0.142904 1.000000 0.024849 -0.139122 1.000000 0.023865 -0.136627 1.000000 0.018670 -0.134673 1.000000 0.017614 -0.133839 1.000000 0.012384 -0.133703 1.000000 0.011223 -0.134383 1.000000 0.006067 -0.136014 1.000000 0.004742 -0.138073 1.000000 -0.000227 -0.141378 1.000000 -0.001776 -0.144706 1.000000 -0.006439 -0.149548 1.000000 -0.008256 -0.154070 1.000000 -0.012499 -0.160273 1.000000 -0.014590 -0.165943 1.000000 -0.018314 -0.173294 1.000000 -0.020640 -0.180078 1.000000 -0.023773 -0.188338 1.000000 -0.026258 -0.196184 1.000000 -0.028756 -0.205087 1.000000 -0.031302 -0.213894 1.000000 -0.033140 -0.223149 1.000000 -0.035644 -0.232741 1.000000 -0.036805 -0.242044 1.000000 -0.039169 -0.252169 1.000000 -0.039623 -0.261209 1.000000 -0.041757 -0.271550 1.000000 -0.041443 -0.280036 1.000000 -0.043248 -0.290233 1.000000 -0.042063 -0.297910 1.000000 -0.043422 -0.307582 1.000000 -0.041217 -0.314231 1.000000 -0.041978 -0.322974 1.000000 -0.038575 -0.328399 1.000000 -0.038560 -0.335765 1.000000 -0.033804 -0.339761 1.000000 -0.032838 -0.345238 1.000000 -0.026676 -0.347563 1.000000 -0.024640 -0.350589 1.000000 -0.017221 -0.350963 1.000000 -0.014123 -0.351005 1.000000 -0.005861 -0.349161 1.000000 -0.001887 -0.345856 1.000000 0.006546 -0.341621 1.000000 0.011030 -0.334940 1.000000 0.018830 -0.328336 1.000000 0.023341 -0.318669 1.000000 0.029764 -0.309971 1.000000 0.033824 -0.298085 1.000000 0.038361 -0.287803 1.000000 0.041617 -0.274673 1.000000 0.044075 -0.263470 1.000000 0.046364 -0.250080 1.000000 0.046833 -0.238650 1.000000 0.048170 -0.225845 1.000000 0.046927 -0.214818 1.000000 0.047449 -0.203232 1.000000 0.044849 -0.193118 1.000000 0.044752 -0.183162 1.000000 0.041151 -0.174336 1.000000 
0.048810 -0.163333 1.000000 0.043571 -0.155817 1.000000 0.041967 -0.149379 1.000000 0.036288 -0.143648 1.000000 0.034482 -0.139197 1.000000 0.028565 -0.135308 1.000000 0.026639 -0.132718 1.000000 0.020625 -0.130682 1.000000 0.018604 -0.129805 1.000000 0.012602 -0.129597 1.000000 0.010472 -0.130287 1.000000 0.004579 -0.131853 1.000000 0.002310 -0.133981 1.000000 -0.003377 -0.137233 1.000000 -0.005813 -0.140702 1.000000 -0.011189 -0.145515 1.000000 -0.013794 -0.150257 1.000000 -0.018748 -0.156469 1.000000 -0.021494 -0.162437 1.000000 -0.025917 -0.169844 1.000000 -0.028735 -0.176992 1.000000 -0.032531 -0.185356 1.000000 -0.035328 -0.193610 1.000000 -0.038416 -0.202660 1.000000 -0.041085 -0.211896 1.000000 -0.043400 -0.221334 1.000000 -0.045842 -0.231359 1.000000 -0.047326 -0.240872 1.000000 -0.049457 -0.251427 1.000000 -0.050051 -0.260703 1.000000 -0.051804 -0.271480 1.000000 -0.051428 -0.280231 1.000000 -0.052735 -0.290893 1.000000 -0.051279 -0.298877 1.000000 -0.052049 -0.309074 1.000000 -0.049351 -0.316095 1.000000 -0.049448 -0.325449 1.000000 -0.045307 -0.331330 1.000000 -0.044548 -0.339394 1.000000 -0.038770 -0.343936 1.000000 -0.036955 -0.350151 1.000000 -0.029458 -0.353083 1.000000 -0.026449 -0.356787 1.000000 -0.017392 -0.357758 1.000000 -0.013199 -0.358270 1.000000 -0.003095 -0.356902 1.000000 0.002046 -0.353715 1.000000 0.012332 -0.349714 1.000000 0.017962 -0.342715 1.000000 0.027384 -0.336023 1.000000 0.032903 -0.325624 1.000000 0.040507 -0.316519 1.000000 0.045330 -0.303607 1.000000 0.050505 -0.292690 1.000000 0.054212 -0.278414 1.000000 0.056779 -0.266477 1.000000 0.059191 -0.251982 1.000000 0.059334 -0.239840 1.000000 0.060494 -0.226081 1.000000 0.058616 -0.214442 1.000000 0.058715 -0.202100 1.000000 0.055292 -0.191508 1.000000 0.054586 -0.180996 1.000000 0.050069 -0.171824 1.000000 
0.056641 -0.159733 1.000000 0.050287 -0.152106 1.000000 0.047732 -0.145485 1.000000 0.040985 -0.139709 1.000000 0.038235 -0.135181 1.000000 0.031328 -0.131278 1.000000 0.028490 -0.128688 1.000000 0.021583 -0.126638 1.000000 0.018697 -0.125816 1.000000 0.011902 -0.125571 1.000000 0.008967 -0.126360 1.000000 0.002373 -0.127852 1.000000 -0.000639 -0.130116 1.000000 -0.006947 -0.133255 1.000000 -0.010059 -0.136895 1.000000 -0.015994 -0.141566 1.000000 -0.019210 -0.146510 1.000000 -0.024678 -0.152573 1.000000 -0.027965 -0.158774 1.000000 -0.032868 -0.166053 1.000000 -0.036151 -0.173464 1.000000 -0.040391 -0.181746 1.000000 -0.043562 -0.190300 1.000000 -0.047042 -0.199329 1.000000 -0.049976 -0.208910 1.000000 -0.052604 -0.218392 1.000000 -0.055182 -0.228815 1.000000 -0.056873 -0.238428 1.000000 -0.059001 -0.249444 1.000000 -0.059675 -0.258863 1.000000 -0.061285 -0.270172 1.000000 -0.060856 -0.279104 1.000000 -0.061895 -0.290383 1.000000 -0.060244 -0.298596 1.000000 -0.060641 -0.309510 1.000000 -0.057591 -0.316832 1.000000 -0.057214 -0.327018 1.000000 -0.052519 -0.333300 1.000000 -0.051167 -0.342302 1.000000 -0.044561 -0.347353 1.000000 -0.041987 -0.354550 1.000000 -0.033311 -0.358069 1.000000 -0.029317 -0.362655 1.000000 -0.018704 -0.364213 1.000000 -0.013267 -0.365301 1.000000 -0.001305 -0.364406 1.000000 0.005300 -0.361284 1.000000 0.017547 -0.357537 1.000000 0.024721 -0.349991 1.000000 0.035923 -0.343276 1.000000 0.042845 -0.331792 1.000000 0.051783 -0.322397 1.000000 0.057651 -0.308083 1.000000 0.063557 -0.296685 1.000000 0.067829 -0.280947 1.000000 0.070509 -0.268449 1.000000 0.073000 -0.252635 1.000000 0.072736 -0.239953 1.000000 0.073567 -0.225127 1.000000 0.070908 -0.213040 1.000000 0.070382 -0.199908 1.000000 0.065955 -0.188989 1.000000 0.064436 -0.177938 1.000000 0.058814 -0.168559 1.000000 