# vtk DataFile Version 2.0
Comment goes here
ASCII

DATASET STRUCTURED_POINTS
DIMENSIONS    64   64   1

ORIGIN    0.000   0.000   0.000
SPACING   0.0156250.015625   1.000

POINT_DATA   4096
VECTORS u double

0.012544 -0.220650 1.000000 0.016434 -0.210732 1.000000 0.021864 -0.199710 1.000000 0.025767 -0.193319 1.000000 0.031077 -0.185585 1.000000 0.035024 -0.182993 1.000000 0.039883 -0.178735 1.000000 0.043756 -0.180065 1.000000 0.047583 -0.179436 1.000000 0.051039 -0.184498 1.000000 0.053017 -0.187535 1.000000 0.055437 -0.195575 1.000000 0.054761 -0.201987 1.000000 0.055407 -0.211509 1.000000 0.051955 -0.220405 1.000000 0.050555 -0.229601 1.000000 0.045596 -0.239628 1.000000 0.042931 -0.247685 1.000000 0.038525 -0.257823 1.000000 0.036358 -0.265345 1.000000 0.033999 -0.276577 1.000000 0.032448 -0.284699 1.000000 0.032128 -0.297512 1.000000 0.030868 -0.307634 1.000000 0.031466 -0.322435 1.000000 0.029808 -0.335335 1.000000 0.029892 -0.352215 1.000000 0.026991 -0.367673 1.000000 0.025386 -0.386096 1.000000 0.020614 -0.403019 1.000000 0.016740 -0.421850 1.000000 0.010020 -0.438685 1.000000 0.004034 -0.456556 1.000000 -0.004061 -0.471819 1.000000 -0.011382 -0.487565 1.000000 -0.019837 -0.500205 1.000000 -0.027434 -0.513079 1.000000 -0.035151 -0.522534 1.000000 -0.042040 -0.532131 1.000000 -0.048143 -0.538141 1.000000 -0.053644 -0.544164 1.000000 -0.057631 -0.546521 1.000000 -0.061409 -0.548588 1.000000 -0.063132 -0.546998 1.000000 -0.065111 -0.544624 1.000000 -0.064685 -0.538770 1.000000 -0.064933 -0.531565 1.000000 -0.062647 -0.521342 1.000000 -0.061313 -0.509289 1.000000 -0.057583 -0.495023 1.000000 -0.054890 -0.478666 1.000000 -0.050206 -0.461180 1.000000 -0.046439 -0.441598 1.000000 -0.041292 -0.422089 1.000000 -0.036766 -0.400676 1.000000 -0.031569 -0.380474 1.000000 -0.026581 -0.358657 1.000000 -0.021615 -0.338989 1.000000 -0.016395 -0.317996 1.000000 -0.011792 -0.299852 1.000000 -0.006476 -0.280606 1.000000 -0.002228 -0.264717 1.000000 0.003136 -0.247844 1.000000 0.007133 -0.234739 1.000000 
0.025224 -0.224854 1.000000 0.027607 -0.214898 1.000000 0.031385 -0.204021 1.000000 0.033695 -0.197468 1.000000 0.037249 -0.189933 1.000000 0.039557 -0.186955 1.000000 0.042597 -0.182867 1.000000 0.044824 -0.183480 1.000000 0.046859 -0.182864 1.000000 0.048742 -0.186814 1.000000 0.049161 -0.189543 1.000000 0.050247 -0.196164 1.000000 0.048561 -0.201838 1.000000 0.048340 -0.210001 1.000000 0.044639 -0.217855 1.000000 0.042913 -0.226287 1.000000 0.038173 -0.235399 1.000000 0.035409 -0.243436 1.000000 0.030960 -0.253271 1.000000 0.028194 -0.261255 1.000000 0.024922 -0.272313 1.000000 0.022352 -0.281278 1.000000 0.020508 -0.293974 1.000000 0.018019 -0.304882 1.000000 0.017058 -0.319479 1.000000 0.014248 -0.332712 1.000000 0.013180 -0.349160 1.000000 0.009483 -0.364391 1.000000 0.007363 -0.382170 1.000000 0.002342 -0.398479 1.000000 -0.001353 -0.416646 1.000000 -0.007722 -0.432803 1.000000 -0.012914 -0.450257 1.000000 -0.020146 -0.465076 1.000000 -0.026231 -0.480850 1.000000 -0.033469 -0.493439 1.000000 -0.039566 -0.506836 1.000000 -0.045844 -0.516631 1.000000 -0.051076 -0.527156 1.000000 -0.055568 -0.533787 1.000000 -0.059259 -0.540975 1.000000 -0.061429 -0.544090 1.000000 -0.063197 -0.547373 1.000000 -0.062858 -0.546562 1.000000 -0.062609 -0.545294 1.000000 -0.059908 -0.540169 1.000000 -0.057804 -0.533833 1.000000 -0.053185 -0.524251 1.000000 -0.049591 -0.512752 1.000000 -0.043720 -0.499019 1.000000 -0.039127 -0.482884 1.000000 -0.032759 -0.465815 1.000000 -0.027679 -0.446174 1.000000 -0.021488 -0.426967 1.000000 -0.016344 -0.405313 1.000000 -0.010796 -0.385309 1.000000 -0.005863 -0.363177 1.000000 -0.001178 -0.343627 1.000000 0.003427 -0.322337 1.000000 0.007251 -0.304262 1.000000 0.011535 -0.284803 1.000000 0.014648 -0.268957 1.000000 0.018694 -0.251993 1.000000 0.021326 -0.238905 1.000000 
0.036646 -0.226931 1.000000 0.037423 -0.216893 1.000000 0.039516 -0.205799 1.000000 0.040149 -0.199184 1.000000 0.041956 -0.191447 1.000000 0.042519 -0.188340 1.000000 0.043831 -0.184002 1.000000 0.044247 -0.184328 1.000000 0.044711 -0.183355 1.000000 0.044753 -0.186800 1.000000 0.043949 -0.189040 1.000000 0.043291 -0.194974 1.000000 0.040929 -0.200080 1.000000 0.039275 -0.207587 1.000000 0.035480 -0.214978 1.000000 0.032804 -0.223135 1.000000 0.028281 -0.232124 1.000000 0.024973 -0.240473 1.000000 0.020711 -0.250609 1.000000 0.017399 -0.259307 1.000000 0.014122 -0.270736 1.000000 0.010983 -0.280284 1.000000 0.008773 -0.293179 1.000000 0.005680 -0.304184 1.000000 0.004052 -0.318664 1.000000 0.000660 -0.331458 1.000000 -0.001122 -0.347450 1.000000 -0.005239 -0.361856 1.000000 -0.007833 -0.378955 1.000000 -0.012958 -0.394303 1.000000 -0.016692 -0.411786 1.000000 -0.022763 -0.427124 1.000000 -0.027511 -0.444132 1.000000 -0.034052 -0.458502 1.000000 -0.039278 -0.474242 1.000000 -0.045492 -0.486869 1.000000 -0.050424 -0.500704 1.000000 -0.055387 -0.511024 1.000000 -0.059224 -0.522408 1.000000 -0.062092 -0.529958 1.000000 -0.064181 -0.538302 1.000000 -0.064358 -0.542583 1.000000 -0.064312 -0.547159 1.000000 -0.061578 -0.547585 1.000000 -0.059341 -0.547574 1.000000 -0.053930 -0.543576 1.000000 -0.049793 -0.538288 1.000000 -0.042395 -0.529556 1.000000 -0.036941 -0.518754 1.000000 -0.028578 -0.505486 1.000000 -0.022529 -0.489627 1.000000 -0.014293 -0.472629 1.000000 -0.008325 -0.452869 1.000000 -0.001085 -0.433424 1.000000 0.004324 -0.411367 1.000000 0.010092 -0.390954 1.000000 0.014712 -0.368276 1.000000 0.018921 -0.348279 1.000000 0.022739 -0.326424 1.000000 0.025579 -0.307960 1.000000 0.028723 -0.288003 1.000000 0.030527 -0.271877 1.000000 0.033181 -0.254522 1.000000 0.034315 -0.241268 1.000000 
0.049651 -0.227963 1.000000 0.048825 -0.217769 1.000000 0.049217 -0.206746 1.000000 0.048211 -0.199908 1.000000 0.048295 -0.192302 1.000000 0.047238 -0.188831 1.000000 0.046866 -0.184596 1.000000 0.045735 -0.184360 1.000000 0.044635 -0.183371 1.000000 0.043268 -0.186052 1.000000 0.041139 -0.188081 1.000000 0.039290 -0.193144 1.000000 0.035962 -0.197822 1.000000 0.033406 -0.204552 1.000000 0.029031 -0.211384 1.000000 0.025715 -0.219088 1.000000 0.020821 -0.227568 1.000000 0.016964 -0.235866 1.000000 0.012224 -0.245697 1.000000 0.008208 -0.254666 1.000000 0.004115 -0.265897 1.000000 0.000097 -0.275929 1.000000 -0.003187 -0.288671 1.000000 -0.007238 -0.300161 1.000000 -0.009946 -0.314458 1.000000 -0.014216 -0.327537 1.000000 -0.016833 -0.343261 1.000000 -0.021583 -0.357680 1.000000 -0.024604 -0.374451 1.000000 -0.029995 -0.389620 1.000000 -0.033690 -0.406841 1.000000 -0.039621 -0.421984 1.000000 -0.043900 -0.438968 1.000000 -0.049932 -0.453309 1.000000 -0.054349 -0.469410 1.000000 -0.059754 -0.482293 1.000000 -0.063616 -0.496941 1.000000 -0.067507 -0.507830 1.000000 -0.070034 -0.520451 1.000000 -0.071542 -0.528830 1.000000 -0.072026 -0.538709 1.000000 -0.070482 -0.543959 1.000000 -0.068456 -0.550153 1.000000 -0.063583 -0.551533 1.000000 -0.058968 -0.552942 1.000000 -0.051036 -0.549717 1.000000 -0.044241 -0.545367 1.000000 -0.034136 -0.537104 1.000000 -0.026024 -0.526569 1.000000 -0.015096 -0.513431 1.000000 -0.006761 -0.497169 1.000000 0.003535 -0.480019 1.000000 0.011097 -0.459382 1.000000 0.019632 -0.439616 1.000000 0.025792 -0.416490 1.000000 0.032016 -0.395697 1.000000 0.036582 -0.372006 1.000000 0.040495 -0.351654 1.000000 0.043607 -0.328996 1.000000 0.045574 -0.310246 1.000000 0.047553 -0.289752 1.000000 0.048097 -0.273415 1.000000 0.049296 -0.255781 1.000000 0.048940 -0.242369 1.000000 
0.061271 -0.226816 1.000000 0.058683 -0.216459 1.000000 0.057439 -0.205184 1.000000 0.054675 -0.198261 1.000000 0.053135 -0.190475 1.000000 0.050345 -0.186911 1.000000 0.048433 -0.182498 1.000000 0.045606 -0.182097 1.000000 0.043144 -0.180888 1.000000 0.040151 -0.183304 1.000000 0.036940 -0.185062 1.000000 0.033603 -0.189798 1.000000 0.029547 -0.194196 1.000000 0.025724 -0.200656 1.000000 0.020956 -0.207287 1.000000 0.016647 -0.214925 1.000000 0.011559 -0.223373 1.000000 0.006935 -0.231876 1.000000 0.002035 -0.241852 1.000000 -0.002657 -0.251198 1.000000 -0.006987 -0.262625 1.000000 -0.011636 -0.272982 1.000000 -0.015303 -0.285844 1.000000 -0.019950 -0.297426 1.000000 -0.023153 -0.311686 1.000000 -0.027954 -0.324570 1.000000 -0.031050 -0.340084 1.000000 -0.036193 -0.354085 1.000000 -0.039520 -0.370543 1.000000 -0.045093 -0.385217 1.000000 -0.048807 -0.402160 1.000000 -0.054664 -0.416914 1.000000 -0.058638 -0.433820 1.000000 -0.064332 -0.448052 1.000000 -0.068139 -0.464420 1.000000 -0.072936 -0.477602 1.000000 -0.075914 -0.492950 1.000000 -0.078881 -0.504607 1.000000 -0.080245 -0.518374 1.000000 -0.080398 -0.527966 1.000000 -0.079397 -0.539361 1.000000 -0.075916 -0.546152 1.000000 -0.072035 -0.554059 1.000000 -0.064544 -0.557074 1.000000 -0.057736 -0.560120 1.000000 -0.046591 -0.558302 1.000000 -0.037439 -0.555188 1.000000 -0.023871 -0.547773 1.000000 -0.013550 -0.537794 1.000000 0.000541 -0.524750 1.000000 0.010607 -0.508258 1.000000 0.023234 -0.490486 1.000000 0.031837 -0.468966 1.000000 0.041594 -0.448120 1.000000 0.048054 -0.423752 1.000000 0.054420 -0.401744 1.000000 0.058623 -0.376754 1.000000 0.061830 -0.355305 1.000000 0.064067 -0.331504 1.000000 0.064767 -0.311906 1.000000 0.065513 -0.290526 1.000000 0.064477 -0.273619 1.000000 0.064219 -0.255365 1.000000 0.062142 -0.241624 1.000000 
0.074830 -0.224504 1.000000 0.070482 -0.213937 1.000000 0.067450 -0.202739 1.000000 0.062966 -0.195604 1.000000 0.059700 -0.187972 1.000000 0.055279 -0.184129 1.000000 0.051751 -0.179857 1.000000 0.047418 -0.179070 1.000000 0.043496 -0.177916 1.000000 0.039156 -0.179849 1.000000 0.034695 -0.181532 1.000000 0.030195 -0.185750 1.000000 0.025136 -0.189944 1.000000 0.020345 -0.195962 1.000000 0.014800 -0.202307 1.000000 0.009679 -0.209691 1.000000 0.003941 -0.217857 1.000000 -0.001425 -0.226342 1.000000 -0.006992 -0.236105 1.000000 -0.012451 -0.245644 1.000000 -0.017554 -0.256918 1.000000 -0.023014 -0.267613 1.000000 -0.027529 -0.280356 1.000000 -0.032983 -0.292312 1.000000 -0.036990 -0.306455 1.000000 -0.042511 -0.319640 1.000000 -0.046234 -0.335022 1.000000 -0.051920 -0.349209 1.000000 -0.055608 -0.365551 1.000000 -0.061484 -0.380334 1.000000 -0.065263 -0.397270 1.000000 -0.071169 -0.412154 1.000000 -0.074941 -0.429300 1.000000 -0.080452 -0.443808 1.000000 -0.083840 -0.460805 1.000000 -0.088241 -0.474517 1.000000 -0.090600 -0.490996 1.000000 -0.092923 -0.503500 1.000000 -0.093407 -0.518935 1.000000 -0.092555 -0.529678 1.000000 -0.090262 -0.543191 1.000000 -0.085240 -0.551321 1.000000 -0.079463 -0.561525 1.000000 -0.069739 -0.565832 1.000000 -0.060313 -0.570896 1.000000 -0.046232 -0.570013 1.000000 -0.033854 -0.568087 1.000000 -0.016891 -0.560993 1.000000 -0.003154 -0.550980 1.000000 0.014288 -0.537589 1.000000 0.027352 -0.519862 1.000000 0.042687 -0.501250 1.000000 0.053329 -0.477742 1.000000 0.064732 -0.455832 1.000000 0.072061 -0.429315 1.000000 0.078930 -0.406267 1.000000 0.082945 -0.379416 1.000000 0.085690 -0.357098 1.000000 0.086960 -0.331933 1.000000 0.086523 -0.311692 1.000000 0.085817 -0.289462 1.000000 0.083248 -0.272121 1.000000 0.081288 -0.253447 1.000000 0.077495 -0.239421 1.000000 
0.086760 -0.219804 1.000000 0.080459 -0.209079 1.000000 0.075787 -0.197668 1.000000 0.069463 -0.190512 1.000000 0.064634 -0.182788 1.000000 0.058490 -0.178962 1.000000 0.053525 -0.174637 1.000000 0.047580 -0.173842 1.000000 0.042399 -0.172626 1.000000 0.036567 -0.174502 1.000000 0.031067 -0.176101 1.000000 0.025219 -0.180239 1.000000 0.019363 -0.184346 1.000000 0.013392 -0.190320 1.000000 0.007267 -0.196621 1.000000 0.001147 -0.204065 1.000000 -0.005029 -0.212269 1.000000 -0.011240 -0.220943 1.000000 -0.017187 -0.230826 1.000000 -0.023387 -0.240636 1.000000 -0.028875 -0.252062 1.000000 -0.035001 -0.263007 1.000000 -0.039935 -0.275874 1.000000 -0.045988 -0.287965 1.000000 -0.050424 -0.302158 1.000000 -0.056466 -0.315325 1.000000 -0.060561 -0.330675 1.000000 -0.066663 -0.344711 1.000000 -0.070584 -0.360979 1.000000 -0.076752 -0.375562 1.000000 -0.080571 -0.392474 1.000000 -0.086643 -0.407236 1.000000 -0.090248 -0.424537 1.000000 -0.095801 -0.439153 1.000000 -0.098824 -0.456632 1.000000 -0.103108 -0.470842 1.000000 -0.104891 -0.488268 1.000000 -0.106818 -0.501800 1.000000 -0.106437 -0.518742 1.000000 -0.104668 -0.531111 1.000000 -0.101071 -0.546676 1.000000 -0.094281 -0.556951 1.000000 -0.086597 -0.569560 1.000000 -0.073965 -0.576224 1.000000 -0.061982 -0.583628 1.000000 -0.043850 -0.584761 1.000000 -0.028495 -0.584529 1.000000 -0.006842 -0.578473 1.000000 0.009773 -0.568973 1.000000 0.031580 -0.555255 1.000000 0.046868 -0.536657 1.000000 0.065285 -0.516463 1.000000 0.077184 -0.491012 1.000000 0.089964 -0.466852 1.000000 0.097561 -0.437949 1.000000 0.104278 -0.412628 1.000000 0.107748 -0.383515 1.000000 0.109286 -0.359319 1.000000 0.109446 -0.332337 1.000000 0.107222 -0.310763 1.000000 0.105069 -0.287250 1.000000 0.100486 -0.269090 1.000000 0.096914 -0.249612 1.000000 0.091087 -0.235166 1.000000 
0.100922 -0.213875 1.000000 0.092626 -0.202963 1.000000 0.086027 -0.191743 1.000000 0.077858 -0.184451 1.000000 0.071264 -0.176998 1.000000 0.063447 -0.173019 1.000000 0.056890 -0.168947 1.000000 0.049448 -0.167944 1.000000 0.042856 -0.166903 1.000000 0.035699 -0.168517 1.000000 0.028977 -0.170184 1.000000 0.021970 -0.174046 1.000000 0.015075 -0.178117 1.000000 0.008094 -0.183866 1.000000 0.001086 -0.190061 1.000000 -0.005931 -0.197395 1.000000 -0.012892 -0.205471 1.000000 -0.019932 -0.214184 1.000000 -0.026631 -0.223958 1.000000 -0.033634 -0.233956 1.000000 -0.039875 -0.245304 1.000000 -0.046782 -0.256553 1.000000 -0.052448 -0.269369 1.000000 -0.059235 -0.281822 1.000000 -0.064319 -0.295977 1.000000 -0.070999 -0.309504 1.000000 -0.075593 -0.324825 1.000000 -0.082198 -0.339186 1.000000 -0.086430 -0.355462 1.000000 -0.092952 -0.370346 1.000000 -0.096911 -0.387379 1.000000 -0.103209 -0.402477 1.000000 -0.106838 -0.420142 1.000000 -0.112530 -0.435232 1.000000 -0.115519 -0.453498 1.000000 -0.119867 -0.468451 1.000000 -0.121557 -0.487286 1.000000 -0.123393 -0.501954 1.000000 -0.122728 -0.521085 1.000000 -0.120492 -0.535044 1.000000 -0.116122 -0.553578 1.000000 -0.108135 -0.565795 1.000000 -0.098764 -0.581840 1.000000 -0.083828 -0.590446 1.000000 -0.068886 -0.601011 1.000000 -0.047165 -0.603501 1.000000 -0.027605 -0.605096 1.000000 -0.001374 -0.599260 1.000000 0.020024 -0.589402 1.000000 0.046567 -0.574684 1.000000 0.066102 -0.553567 1.000000 0.088300 -0.531565 1.000000 0.102898 -0.502421 1.000000 0.117770 -0.476208 1.000000 0.126250 -0.443629 1.000000 0.133346 -0.416455 1.000000 0.136228 -0.384424 1.000000 0.136858 -0.358795 1.000000 0.135499 -0.329869 1.000000 0.131605 -0.307316 1.000000 0.127481 -0.282725 1.000000 0.120886 -0.263965 1.000000 0.115211 -0.244048 1.000000 0.107306 -0.229267 1.000000 
0.113064 -0.205124 1.000000 0.102594 -0.194183 1.000000 0.094302 -0.182900 1.000000 0.084212 -0.175749 1.000000 0.076072 -0.168376 1.000000 0.066547 -0.164588 1.000000 0.058607 -0.160639 1.000000 0.049633 -0.159809 1.000000 0.041834 -0.158877 1.000000 0.033295 -0.160624 1.000000 0.025549 -0.162371 1.000000 0.017297 -0.166337 1.000000 0.009556 -0.170470 1.000000 0.001465 -0.176331 1.000000 -0.006239 -0.182596 1.000000 -0.014236 -0.190088 1.000000 -0.021788 -0.198268 1.000000 -0.029695 -0.207204 1.000000 -0.036924 -0.217125 1.000000 -0.044699 -0.227392 1.000000 -0.051440 -0.238914 1.000000 -0.059039 -0.250433 1.000000 -0.065180 -0.263422 1.000000 -0.072578 -0.276094 1.000000 -0.078090 -0.290394 1.000000 -0.085300 -0.304052 1.000000 -0.090230 -0.319476 1.000000 -0.097290 -0.333874 1.000000 -0.101732 -0.350225 1.000000 -0.108659 -0.365082 1.000000 -0.112693 -0.382217 1.000000 -0.119399 -0.397310 1.000000 -0.122997 -0.415217 1.000000 -0.129150 -0.430471 1.000000 -0.132041 -0.449294 1.000000 -0.136891 -0.464804 1.000000 -0.138397 -0.484743 1.000000 -0.140612 -0.500629 1.000000 -0.139537 -0.521642 1.000000 -0.137158 -0.537718 1.000000 -0.131840 -0.559033 1.000000 -0.122544 -0.574309 1.000000 -0.111270 -0.593867 1.000000 -0.093144 -0.606102 1.000000 -0.075062 -0.620291 1.000000 -0.047952 -0.626042 1.000000 -0.024277 -0.630320 1.000000 0.008831 -0.626102 1.000000 0.034329 -0.616913 1.000000 0.067399 -0.601334 1.000000 0.089967 -0.578390 1.000000 0.116424 -0.553259 1.000000 0.132517 -0.520481 1.000000 0.148753 -0.490203 1.000000 0.157290 -0.453526 1.000000 0.163481 -0.422605 1.000000 0.165388 -0.387026 1.000000 0.163838 -0.358591 1.000000 0.160912 -0.327084 1.000000 0.154364 -0.302745 1.000000 0.148413 -0.276531 1.000000 0.139162 -0.256820 1.000000 0.131609 -0.236032 1.000000 0.121261 -0.220877 1.000000 
0.127619 -0.195208 1.000000 0.114854 -0.184201 1.000000 0.104465 -0.173361 1.000000 0.092387 -0.166222 1.000000 0.082430 -0.159333 1.000000 0.071189 -0.155554 1.000000 0.061674 -0.152033 1.000000 0.051215 -0.151171 1.000000 0.042046 -0.150564 1.000000 0.032211 -0.152233 1.000000 0.023271 -0.154186 1.000000 0.013878 -0.158053 1.000000 0.005090 -0.162286 1.000000 -0.004021 -0.168071 1.000000 -0.012658 -0.174360 1.000000 -0.021588 -0.181846 1.000000 -0.029991 -0.190012 1.000000 -0.038771 -0.199048 1.000000 -0.046800 -0.208954 1.000000 -0.055406 -0.219440 1.000000 -0.062899 -0.230965 1.000000 -0.071277 -0.242813 1.000000 -0.078097 -0.255829 1.000000 -0.086199 -0.268912 1.000000 -0.092270 -0.283255 1.000000 -0.100076 -0.297364 1.000000 -0.105409 -0.312835 1.000000 -0.112943 -0.327685 1.000000 -0.117634 -0.344093 1.000000 -0.124941 -0.359385 1.000000 -0.129135 -0.376639 1.000000 -0.136205 -0.392173 1.000000 -0.139997 -0.410391 1.000000 -0.146603 -0.426188 1.000000 -0.149852 -0.445757 1.000000 -0.155311 -0.462094 1.000000 -0.157386 -0.483565 1.000000 -0.160285 -0.500814 1.000000 -0.159826 -0.524539 1.000000 -0.157873 -0.542741 1.000000 -0.152727 -0.568192 1.000000 -0.142959 -0.586365 1.000000 -0.130576 -0.611240 1.000000 -0.110247 -0.626654 1.000000 -0.088845 -0.646203 1.000000 -0.057196 -0.654287 1.000000 -0.027676 -0.661879 1.000000 0.012027 -0.657866 1.000000 0.044785 -0.647971 1.000000 0.085091 -0.630322 1.000000 0.114163 -0.602592 1.000000 0.146215 -0.574116 1.000000 0.165930 -0.534749 1.000000 0.184733 -0.500981 1.000000 0.193823 -0.458357 1.000000 0.199852 -0.424553 1.000000 0.200225 -0.384781 1.000000 0.196805 -0.354319 1.000000 0.191337 -0.320394 1.000000 0.182161 -0.294816 1.000000 0.173403 -0.267523 1.000000 0.161387 -0.247162 1.000000 0.151154 -0.226147 1.000000 0.138218 -0.210721 1.000000 
0.139584 -0.181759 1.000000 0.124440 -0.171030 1.000000 0.112281 -0.160433 1.000000 0.098241 -0.153714 1.000000 0.086742 -0.147179 1.000000 0.073848 -0.143832 1.000000 0.062993 -0.140664 1.000000 0.051104 -0.140180 1.000000 0.040774 -0.139873 1.000000 0.029675 -0.141850 1.000000 0.019732 -0.144038 1.000000 0.009200 -0.148155 1.000000 -0.000457 -0.152571 1.000000 -0.010602 -0.158583 1.000000 -0.020006 -0.165030 1.000000 -0.029880 -0.172754 1.000000 -0.038979 -0.181084 1.000000 -0.048625 -0.190395 1.000000 -0.057303 -0.200490 1.000000 -0.066700 -0.211294 1.000000 -0.074804 -0.223042 1.000000 -0.083896 -0.235235 1.000000 -0.091272 -0.248500 1.000000 -0.099999 -0.261921 1.000000 -0.106538 -0.276517 1.000000 -0.114878 -0.290913 1.000000 -0.120549 -0.306609 1.000000 -0.128548 -0.321649 1.000000 -0.133430 -0.338227 1.000000 -0.141204 -0.353580 1.000000 -0.145480 -0.370953 1.000000 -0.153150 -0.386448 1.000000 -0.157013 -0.404818 1.000000 -0.164515 -0.420616 1.000000 -0.167948 -0.440587 1.000000 -0.174695 -0.457270 1.000000 -0.177123 -0.479769 1.000000 -0.181578 -0.498190 1.000000 -0.181474 -0.524054 1.000000 -0.180797 -0.544816 1.000000 -0.175482 -0.573946 1.000000 -0.165575 -0.596460 1.000000 -0.151585 -0.626580 1.000000 -0.128093 -0.647833 1.000000 -0.102722 -0.673342 1.000000 -0.063632 -0.687211 1.000000 -0.027876 -0.699544 1.000000 0.022727 -0.698563 1.000000 0.061867 -0.689977 1.000000 0.112784 -0.670712 1.000000 0.146165 -0.639514 1.000000 0.184291 -0.605026 1.000000 0.205627 -0.558999 1.000000 0.225166 -0.518096 1.000000 0.233690 -0.468645 1.000000 0.237070 -0.429007 1.000000 0.235600 -0.383979 1.000000 0.228232 -0.349703 1.000000 0.220404 -0.312440 1.000000 0.207237 -0.284811 1.000000 0.196061 -0.255758 1.000000 0.180538 -0.234571 1.000000 0.168048 -0.212863 1.000000 0.152201 -0.197342 1.000000 
0.153933 -0.167447 1.000000 0.136183 -0.156898 1.000000 0.121784 -0.147162 1.000000 0.105642 -0.140683 1.000000 0.092315 -0.134940 1.000000 0.077706 -0.131805 1.000000 0.065328 -0.129290 1.000000 0.052007 -0.128952 1.000000 0.040378 -0.129135 1.000000 0.028048 -0.131190 1.000000 0.016967 -0.133712 1.000000 0.005346 -0.137864 1.000000 -0.005335 -0.142483 1.000000 -0.016477 -0.148523 1.000000 -0.026825 -0.155082 1.000000 -0.037638 -0.162872 1.000000 -0.047627 -0.171267 1.000000 -0.058172 -0.180724 1.000000 -0.067694 -0.190878 1.000000 -0.077954 -0.201939 1.000000 -0.086836 -0.213770 1.000000 -0.096732 -0.226345 1.000000 -0.104780 -0.239725 1.000000 -0.114214 -0.253646 1.000000 -0.121260 -0.268376 1.000000 -0.130169 -0.283353 1.000000 -0.136143 -0.299166 1.000000 -0.144561 -0.314804 1.000000 -0.149564 -0.331437 1.000000 -0.157667 -0.347335 1.000000 -0.162002 -0.364692 1.000000 -0.170070 -0.380640 1.000000 -0.174165 -0.399026 1.000000 -0.182371 -0.415253 1.000000 -0.186507 -0.435577 1.000000 -0.194488 -0.452919 1.000000 -0.198310 -0.476682 1.000000 -0.204559 -0.496463 1.000000 -0.206464 -0.525319 1.000000 -0.207744 -0.548733 1.000000 -0.204393 -0.583415 1.000000 -0.195561 -0.610261 1.000000 -0.181982 -0.648722 1.000000 -0.156978 -0.675517 1.000000 -0.128256 -0.710664 1.000000 -0.083386 -0.729133 1.000000 -0.039042 -0.748238 1.000000 0.021602 -0.747609 1.000000 0.072643 -0.738028 1.000000 0.135587 -0.714621 1.000000 0.179834 -0.674100 1.000000 0.226773 -0.633579 1.000000 0.252814 -0.575624 1.000000 0.275121 -0.529044 1.000000 0.282870 -0.470261 1.000000 0.284539 -0.426463 1.000000 0.279506 -0.375943 1.000000 0.268355 -0.339123 1.000000 0.256220 -0.299400 1.000000 0.238850 -0.270473 1.000000 0.223643 -0.240824 1.000000 0.204286 -0.219149 1.000000 0.188386 -0.197810 1.000000 0.169324 -0.182257 1.000000 
0.164944 -0.148618 1.000000 0.144724 -0.138881 1.000000 0.128497 -0.129892 1.000000 0.110462 -0.124245 1.000000 0.095620 -0.119243 1.000000 0.079499 -0.116845 1.000000 0.065846 -0.114966 1.000000 0.051259 -0.115230 1.000000 0.038537 -0.115914 1.000000 0.025098 -0.118439 1.000000 0.013059 -0.121335 1.000000 0.000430 -0.125853 1.000000 -0.011115 -0.130748 1.000000 -0.023200 -0.137093 1.000000 -0.034353 -0.143870 1.000000 -0.046063 -0.151952 1.000000 -0.056828 -0.160549 1.000000 -0.068233 -0.170328 1.000000 -0.078515 -0.180709 1.000000 -0.089589 -0.192152 1.000000 -0.099207 -0.204264 1.000000 -0.109849 -0.217291 1.000000 -0.118570 -0.231018 1.000000 -0.128650 -0.245441 1.000000 -0.136243 -0.260562 1.000000 -0.145669 -0.276030 1.000000 -0.151999 -0.292217 1.000000 -0.160820 -0.308228 1.000000 -0.165961 -0.325120 1.000000 -0.174461 -0.341142 1.000000 -0.178785 -0.358550 1.000000 -0.187485 -0.374285 1.000000 -0.191626 -0.392517 1.000000 -0.201065 -0.408274 1.000000 -0.205616 -0.428470 1.000000 -0.215797 -0.445468 1.000000 -0.220671 -0.469698 1.000000 -0.230204 -0.490036 1.000000 -0.233759 -0.520868 1.000000 -0.238866 -0.546887 1.000000 -0.237039 -0.586130 1.000000 -0.230834 -0.618871 1.000000 -0.216887 -0.665162 1.000000 -0.189984 -0.701559 1.000000 -0.156397 -0.746934 1.000000 -0.101197 -0.776424 1.000000 -0.046402 -0.804531 1.000000 0.032912 -0.810248 1.000000 0.094847 -0.803962 1.000000 0.176744 -0.777903 1.000000 0.227190 -0.730700 1.000000 0.282841 -0.678006 1.000000 0.310092 -0.607347 1.000000 0.330580 -0.548153 1.000000 0.336204 -0.478064 1.000000 0.331411 -0.425643 1.000000 0.322904 -0.367795 1.000000 0.304783 -0.326417 1.000000 0.289038 -0.282934 1.000000 0.265814 -0.252235 1.000000 0.247380 -0.221195 1.000000 0.223552 -0.199314 1.000000 0.204940 -0.177900 1.000000 0.182564 -0.162888 1.000000 
0.177944 -0.129607 1.000000 0.154910 -0.120451 1.000000 0.136422 -0.112900 1.000000 0.116292 -0.107806 1.000000 0.099717 -0.103977 1.000000 0.081984 -0.102031 1.000000 0.066944 -0.101050 1.000000 0.051059 -0.101643 1.000000 0.037169 -0.102974 1.000000 0.022628 -0.105713 1.000000 0.009554 -0.109043 1.000000 -0.004068 -0.113689 1.000000 -0.016575 -0.118854 1.000000 -0.029599 -0.125285 1.000000 -0.041683 -0.132219 1.000000 -0.054317 -0.140397 1.000000 -0.066001 -0.149097 1.000000 -0.078332 -0.159037 1.000000 -0.089516 -0.169522 1.000000 -0.101508 -0.181247 1.000000 -0.111975 -0.193509 1.000000 -0.123487 -0.206982 1.000000 -0.132928 -0.220925 1.000000 -0.143759 -0.235973 1.000000 -0.151848 -0.251357 1.000000 -0.161825 -0.267597 1.000000 -0.168341 -0.284014 1.000000 -0.177466 -0.300842 1.000000 -0.182478 -0.317796 1.000000 -0.191099 -0.334511 1.000000 -0.195144 -0.351668 1.000000 -0.204038 -0.367799 1.000000 -0.208152 -0.385447 1.000000 -0.218324 -0.401263 1.000000 -0.223701 -0.420845 1.000000 -0.235714 -0.437864 1.000000 -0.242881 -0.462275 1.000000 -0.255716 -0.483375 1.000000 -0.263330 -0.516658 1.000000 -0.272969 -0.545453 1.000000 -0.276411 -0.591446 1.000000 -0.274516 -0.630414 1.000000 -0.264730 -0.689572 1.000000 -0.238645 -0.736007 1.000000 -0.203195 -0.799452 1.000000 -0.140912 -0.839128 1.000000 -0.072897 -0.882346 1.000000 0.022216 -0.888858 1.000000 0.105021 -0.881860 1.000000 0.208967 -0.846964 1.000000 0.279670 -0.780198 1.000000 0.350242 -0.716480 1.000000 0.382513 -0.623362 1.000000 0.404470 -0.555155 1.000000 0.405284 -0.471092 1.000000 0.394845 -0.413164 1.000000 0.378700 -0.349315 1.000000 0.353234 -0.305257 1.000000 0.330399 -0.260431 1.000000 0.300598 -0.228815 1.000000 0.276568 -0.198562 1.000000 0.247585 -0.176709 1.000000 0.224816 -0.156822 1.000000 0.198608 -0.142262 1.000000 
0.186757 -0.104920 1.000000 0.161431 -0.097359 1.000000 0.141143 -0.091274 1.000000 0.119385 -0.087540 1.000000 0.101396 -0.084935 1.000000 0.082426 -0.084072 1.000000 0.066234 -0.084041 1.000000 0.049335 -0.085455 1.000000 0.034467 -0.087483 1.000000 0.019030 -0.090824 1.000000 0.005083 -0.094639 1.000000 -0.009381 -0.099724 1.000000 -0.022710 -0.105217 1.000000 -0.036564 -0.111986 1.000000 -0.049464 -0.119152 1.000000 -0.062940 -0.127634 1.000000 -0.075467 -0.136534 1.000000 -0.088657 -0.146813 1.000000 -0.100723 -0.157533 1.000000 -0.113574 -0.169693 1.000000 -0.124940 -0.182285 1.000000 -0.137266 -0.196338 1.000000 -0.147559 -0.210746 1.000000 -0.159082 -0.226521 1.000000 -0.167865 -0.242496 1.000000 -0.178327 -0.259537 1.000000 -0.185244 -0.276575 1.000000 -0.194605 -0.294091 1.000000 -0.199629 -0.311487 1.000000 -0.208337 -0.328476 1.000000 -0.212071 -0.345612 1.000000 -0.221267 -0.361277 1.000000 -0.225090 -0.378231 1.000000 -0.236466 -0.392725 1.000000 -0.242215 -0.411080 1.000000 -0.257228 -0.426288 1.000000 -0.266186 -0.449695 1.000000 -0.284579 -0.469587 1.000000 -0.295854 -0.503615 1.000000 -0.313613 -0.533806 1.000000 -0.322042 -0.584583 1.000000 -0.328842 -0.630553 1.000000 -0.322548 -0.701033 1.000000 -0.299641 -0.763094 1.000000 -0.259583 -0.844667 1.000000 -0.183893 -0.906722 1.000000 -0.096187 -0.967660 1.000000 0.033390 -0.988166 1.000000 0.136703 -0.990713 1.000000 0.278430 -0.952552 1.000000 0.357479 -0.871975 1.000000 0.439798 -0.780850 1.000000 0.471087 -0.661576 1.000000 0.482909 -0.570924 1.000000 0.478016 -0.468438 1.000000 0.453210 -0.399058 1.000000 0.430751 -0.326184 1.000000 0.393672 -0.278116 1.000000 0.365467 -0.230298 1.000000 0.327683 -0.198404 1.000000 0.299487 -0.168181 1.000000 0.265291 -0.147562 1.000000 0.239389 -0.128923 1.000000 0.209777 -0.116016 1.000000 
0.196606 -0.081261 1.000000 0.168557 -0.074836 1.000000 0.146243 -0.070854 1.000000 0.122631 -0.068059 1.000000 0.103187 -0.067018 1.000000 0.082879 -0.066869 1.000000 0.065562 -0.067959 1.000000 0.047618 -0.069876 1.000000 0.031801 -0.072669 1.000000 0.015471 -0.076329 1.000000 0.000653 -0.080632 1.000000 -0.014646 -0.085896 1.000000 -0.028837 -0.091670 1.000000 -0.043534 -0.098531 1.000000 -0.057331 -0.105843 1.000000 -0.071699 -0.114394 1.000000 -0.085180 -0.123380 1.000000 -0.099330 -0.133782 1.000000 -0.112397 -0.144605 1.000000 -0.126261 -0.157030 1.000000 -0.138619 -0.169817 1.000000 -0.151949 -0.184363 1.000000 -0.163111 -0.199109 1.000000 -0.175511 -0.215667 1.000000 -0.184862 -0.232112 1.000000 -0.195906 -0.250218 1.000000 -0.202893 -0.267737 1.000000 -0.212381 -0.286457 1.000000 -0.216860 -0.304064 1.000000 -0.225227 -0.322069 1.000000 -0.227944 -0.338739 1.000000 -0.236662 -0.354780 1.000000 -0.239597 -0.370247 1.000000 -0.251176 -0.384138 1.000000 -0.257260 -0.400082 1.000000 -0.274333 -0.413893 1.000000 -0.286179 -0.434924 1.000000 -0.309630 -0.453706 1.000000 -0.327557 -0.487623 1.000000 -0.353883 -0.519266 1.000000 -0.373187 -0.576218 1.000000 -0.390753 -0.629907 1.000000 -0.397278 -0.718773 1.000000 -0.381701 -0.798971 1.000000 -0.346584 -0.915199 1.000000 -0.262956 -1.002524 1.000000 -0.153747 -1.099630 1.000000 -0.000143 -1.121748 1.000000 0.140740 -1.126899 1.000000 0.327621 -1.067740 1.000000 0.450259 -0.941566 1.000000 0.560354 -0.830088 1.000000 0.591519 -0.666473 1.000000 0.597556 -0.562084 1.000000 0.576892 -0.441394 1.000000 0.537133 -0.365899 1.000000 0.499614 -0.289778 1.000000 0.449141 -0.239972 1.000000 0.410125 -0.194442 1.000000 0.362723 -0.162836 1.000000 0.327424 -0.136171 1.000000 0.286846 -0.116610 1.000000 0.256369 -0.101307 1.000000 0.222613 -0.089631 1.000000 