# vtk DataFile Version 2.0
Comment goes here
ASCII

DATASET STRUCTURED_POINTS
DIMENSIONS    64   64   1

ORIGIN    0.000   0.000   0.000
SPACING   0.0156250.015625   1.000

POINT_DATA   4096
VECTORS u double

-0.021145 0.005189 1.000000 -0.028272 0.012962 1.000000 -0.016348 0.009629 1.000000 -0.023151 0.016306 1.000000 -0.010897 0.013474 1.000000 -0.017780 0.019173 1.000000 -0.004677 0.016559 1.000000 -0.012289 0.020927 1.000000 0.001864 0.018337 1.000000 -0.007420 0.020524 1.000000 0.007342 0.018124 1.000000 -0.004512 0.016907 1.000000 0.009646 0.015780 1.000000 -0.004290 0.010083 1.000000 0.007634 0.012337 1.000000 -0.004887 0.002431 1.000000 0.002961 0.009477 1.000000 -0.003860 -0.000599 1.000000 -0.001488 0.008915 1.000000 -0.003761 0.002973 1.000000 -0.004698 0.011484 1.000000 -0.005410 0.011780 1.000000 -0.003560 0.018115 1.000000 -0.004491 0.021801 1.000000 0.003403 0.025954 1.000000 0.001366 0.027620 1.000000 0.014279 0.030288 1.000000 0.010660 0.024372 1.000000 0.023926 0.026911 1.000000 0.018495 0.010680 1.000000 0.026470 0.015619 1.000000 0.020035 -0.007120 1.000000 0.022851 0.004126 1.000000 0.018735 -0.018342 1.000000 0.019964 0.001087 1.000000 0.022038 -0.018010 1.000000 0.022082 0.002059 1.000000 0.028928 -0.014521 1.000000 0.028781 0.004411 1.000000 0.040565 -0.014636 1.000000 0.036998 0.003401 1.000000 0.056049 -0.022014 1.000000 0.040739 -0.006912 1.000000 0.069074 -0.036379 1.000000 0.032547 -0.029925 1.000000 0.067490 -0.051393 1.000000 0.010139 -0.059268 1.000000 0.041302 -0.055426 1.000000 -0.013655 -0.074463 1.000000 0.005256 -0.046210 1.000000 -0.029250 -0.073591 1.000000 -0.025437 -0.034575 1.000000 -0.037874 -0.060400 1.000000 -0.043020 -0.022913 1.000000 -0.040046 -0.043107 1.000000 -0.048837 -0.012940 1.000000 -0.038097 -0.027554 1.000000 -0.047701 -0.005179 1.000000 -0.034303 -0.015533 1.000000 -0.043522 0.000728 1.000000 -0.029977 -0.006684 1.000000 -0.038443 0.005394 1.000000 -0.025599 -0.000061 1.000000 -0.033314 0.009357 1.000000 
-0.020242 0.007552 1.000000 -0.026981 0.015046 1.000000 -0.016785 0.011349 1.000000 -0.023305 0.017402 1.000000 -0.012710 0.014058 1.000000 -0.019175 0.018709 1.000000 -0.007838 0.015559 1.000000 -0.014531 0.018470 1.000000 -0.002255 0.015643 1.000000 -0.009629 0.016230 1.000000 0.003369 0.014418 1.000000 -0.005205 0.012144 1.000000 0.007595 0.012777 1.000000 -0.002236 0.007539 1.000000 0.008614 0.012125 1.000000 -0.001255 0.004483 1.000000 0.005581 0.012674 1.000000 -0.002018 0.004221 1.000000 0.000901 0.013055 1.000000 -0.003464 0.006523 1.000000 -0.002012 0.014014 1.000000 -0.004160 0.011213 1.000000 -0.000351 0.017182 1.000000 -0.001662 0.016301 1.000000 0.006863 0.021323 1.000000 0.005123 0.018782 1.000000 0.017998 0.023686 1.000000 0.014819 0.016472 1.000000 0.028750 0.022277 1.000000 0.023539 0.009927 1.000000 0.033556 0.017971 1.000000 0.026829 0.003284 1.000000 0.030216 0.014876 1.000000 0.024871 0.000033 1.000000 0.022863 0.014879 1.000000 0.023480 -0.000619 1.000000 0.018679 0.014970 1.000000 0.024817 -0.001960 1.000000 0.019041 0.013474 1.000000 0.030116 -0.007035 1.000000 0.021662 0.007503 1.000000 0.038395 -0.017613 1.000000 0.022317 -0.006387 1.000000 0.045178 -0.032488 1.000000 0.016508 -0.029063 1.000000 0.043007 -0.045885 1.000000 0.002868 -0.054363 1.000000 0.026884 -0.049739 1.000000 -0.012758 -0.068748 1.000000 0.004804 -0.044077 1.000000 -0.023250 -0.068109 1.000000 -0.015678 -0.034089 1.000000 -0.029084 -0.056276 1.000000 -0.029424 -0.022615 1.000000 -0.031105 -0.040290 1.000000 -0.035944 -0.012068 1.000000 -0.030572 -0.025280 1.000000 -0.037389 -0.003535 1.000000 -0.028661 -0.013226 1.000000 -0.036053 0.002998 1.000000 -0.026127 -0.004175 1.000000 -0.033456 0.007992 1.000000 -0.023308 0.002525 1.000000 -0.030350 0.011914 1.000000 
-0.018014 0.001820 1.000000 -0.024471 0.009505 1.000000 -0.013987 0.005953 1.000000 -0.020430 0.012231 1.000000 -0.009575 0.009345 1.000000 -0.016258 0.014300 1.000000 -0.004892 0.011915 1.000000 -0.012179 0.015345 1.000000 -0.000360 0.013435 1.000000 -0.008644 0.014900 1.000000 0.003233 0.013700 1.000000 -0.006196 0.012682 1.000000 0.004984 0.012810 1.000000 -0.004978 0.009064 1.000000 0.004565 0.011356 1.000000 -0.004304 0.005464 1.000000 0.002734 0.010240 1.000000 -0.003447 0.004080 1.000000 0.000846 0.010360 1.000000 -0.002806 0.005886 1.000000 0.000012 0.012180 1.000000 -0.002257 0.010119 1.000000 0.001557 0.015617 1.000000 -0.000347 0.014588 1.000000 0.005924 0.019169 1.000000 0.003744 0.016485 1.000000 0.011983 0.020592 1.000000 0.009249 0.013620 1.000000 0.017338 0.018191 1.000000 0.014166 0.005874 1.000000 0.019785 0.012330 1.000000 0.016956 -0.003779 1.000000 0.019638 0.006084 1.000000 0.018797 -0.010988 1.000000 0.019341 0.002478 1.000000 0.022140 -0.013826 1.000000 0.020731 0.000722 1.000000 0.027416 -0.014884 1.000000 0.023693 -0.000888 1.000000 0.034578 -0.017257 1.000000 0.026424 -0.004878 1.000000 0.042166 -0.022668 1.000000 0.025881 -0.013695 1.000000 0.046432 -0.030570 1.000000 0.019156 -0.027754 1.000000 0.042196 -0.037754 1.000000 0.006234 -0.043145 1.000000 0.026876 -0.039800 1.000000 -0.008033 -0.052382 1.000000 0.005919 -0.035717 1.000000 -0.019247 -0.053109 1.000000 -0.013545 -0.028742 1.000000 -0.026389 -0.046654 1.000000 -0.026995 -0.020891 1.000000 -0.029510 -0.036587 1.000000 -0.033816 -0.013473 1.000000 -0.029583 -0.026109 1.000000 -0.035650 -0.007090 1.000000 -0.027784 -0.016868 1.000000 -0.034475 -0.001806 1.000000 -0.024992 -0.009282 1.000000 -0.031746 0.002575 1.000000 -0.021681 -0.003167 1.000000 -0.028287 0.006292 1.000000 
-0.017027 0.003736 1.000000 -0.022844 0.011019 1.000000 -0.014054 0.007308 1.000000 -0.019905 0.012990 1.000000 -0.010632 0.009886 1.000000 -0.016593 0.014027 1.000000 -0.006780 0.011480 1.000000 -0.013000 0.013937 1.000000 -0.002696 0.012108 1.000000 -0.009369 0.012637 1.000000 0.001133 0.011971 1.000000 -0.006120 0.010393 1.000000 0.003946 0.011558 1.000000 -0.003710 0.007958 1.000000 0.005009 0.011452 1.000000 -0.002358 0.006315 1.000000 0.004223 0.011817 1.000000 -0.001878 0.006109 1.000000 0.002731 0.012414 1.000000 -0.001638 0.007357 1.000000 0.002236 0.013465 1.000000 -0.000734 0.009668 1.000000 0.004122 0.015273 1.000000 0.001873 0.011934 1.000000 0.008752 0.017231 1.000000 0.006527 0.012722 1.000000 0.015104 0.018181 1.000000 0.012397 0.011117 1.000000 0.020959 0.017360 1.000000 0.017658 0.007480 1.000000 0.023885 0.015181 1.000000 0.020588 0.003431 1.000000 0.023031 0.013035 1.000000 0.021289 0.000330 1.000000 0.020039 0.011536 1.000000 0.021727 -0.002010 1.000000 0.017610 0.009694 1.000000 0.023192 -0.004922 1.000000 0.016651 0.006312 1.000000 0.026111 -0.009766 1.000000 0.016233 -0.000085 1.000000 0.029577 -0.017070 1.000000 0.014400 -0.010653 1.000000 0.031136 -0.025762 1.000000 0.009320 -0.024827 1.000000 0.027614 -0.032963 1.000000 0.000817 -0.039044 1.000000 0.017615 -0.035471 1.000000 -0.008690 -0.047791 1.000000 0.004077 -0.032863 1.000000 -0.016293 -0.048645 1.000000 -0.009189 -0.026947 1.000000 -0.021252 -0.042826 1.000000 -0.019326 -0.019493 1.000000 -0.023700 -0.033469 1.000000 -0.025449 -0.011996 1.000000 -0.024197 -0.023446 1.000000 -0.028142 -0.005334 1.000000 -0.023379 -0.014401 1.000000 -0.028466 0.000206 1.000000 -0.021747 -0.006904 1.000000 -0.027340 0.004680 1.000000 -0.019591 -0.000933 1.000000 -0.025362 0.008247 1.000000 
-0.015241 -0.000699 1.000000 -0.020895 0.006532 1.000000 -0.012012 0.003014 1.000000 -0.017845 0.008809 1.000000 -0.008531 0.006032 1.000000 -0.014655 0.010447 1.000000 -0.004974 0.008322 1.000000 -0.011543 0.011260 1.000000 -0.001658 0.009805 1.000000 -0.008786 0.011071 1.000000 0.000976 0.010452 1.000000 -0.006626 0.009869 1.000000 0.002528 0.010400 1.000000 -0.005096 0.008001 1.000000 0.002916 0.010005 1.000000 -0.003932 0.006250 1.000000 0.002540 0.009760 1.000000 -0.002837 0.005572 1.000000 0.002110 0.010120 1.000000 -0.001751 0.006381 1.000000 0.002339 0.011276 1.000000 -0.000449 0.008233 1.000000 0.003839 0.013010 1.000000 0.001612 0.009958 1.000000 0.006724 0.014515 1.000000 0.004696 0.010133 1.000000 0.010378 0.014722 1.000000 0.008425 0.007766 1.000000 0.013684 0.012930 1.000000 0.011981 0.002948 1.000000 0.015723 0.009400 1.000000 0.014817 -0.002926 1.000000 0.016545 0.005383 1.000000 0.017316 -0.007996 1.000000 0.017011 0.002039 1.000000 0.020306 -0.011397 1.000000 0.017820 -0.000743 1.000000 0.024031 -0.013924 1.000000 0.018846 -0.003807 1.000000 0.028176 -0.016839 1.000000 0.019120 -0.008344 1.000000 0.031600 -0.020836 1.000000 0.017193 -0.015253 1.000000 0.032265 -0.025490 1.000000 0.011953 -0.024233 1.000000 0.027976 -0.029250 1.000000 0.003714 -0.033146 1.000000 0.018120 -0.030293 1.000000 -0.005435 -0.038845 1.000000 0.005071 -0.028114 1.000000 -0.013328 -0.039843 1.000000 -0.007706 -0.023783 1.000000 -0.018931 -0.036517 1.000000 -0.017620 -0.018443 1.000000 -0.022015 -0.030465 1.000000 -0.023785 -0.012977 1.000000 -0.022928 -0.023415 1.000000 -0.026604 -0.007908 1.000000 -0.022252 -0.016545 1.000000 -0.026979 -0.003439 1.000000 -0.020524 -0.010408 1.000000 -0.025775 0.000420 1.000000 -0.018117 -0.005144 1.000000 -0.023618 0.003728 1.000000 
-0.014222 0.001013 1.000000 -0.019128 0.007790 1.000000 -0.011773 0.004258 1.000000 -0.016881 0.009509 1.000000 -0.008989 0.006696 1.000000 -0.014298 0.010470 1.000000 -0.005963 0.008368 1.000000 -0.011514 0.010621 1.000000 -0.002886 0.009350 1.000000 -0.008726 0.010003 1.000000 -0.000078 0.009811 1.000000 -0.006183 0.008842 1.000000 0.002066 0.010028 1.000000 -0.004111 0.007570 1.000000 0.003255 0.010287 1.000000 -0.002600 0.006691 1.000000 0.003554 0.010722 1.000000 -0.001511 0.006538 1.000000 0.003553 0.011329 1.000000 -0.000478 0.007128 1.000000 0.004097 0.012162 1.000000 0.000998 0.008168 1.000000 0.005848 0.013212 1.000000 0.003371 0.009049 1.000000 0.008922 0.014147 1.000000 0.006725 0.009068 1.000000 0.012723 0.014452 1.000000 0.010596 0.007811 1.000000 0.016125 0.013804 1.000000 0.014122 0.005441 1.000000 0.018004 0.012346 1.000000 0.016573 0.002608 1.000000 0.017968 0.010535 1.000000 0.017953 -0.000136 1.000000 0.016645 0.008546 1.000000 0.018948 -0.002818 1.000000 0.015081 0.005969 1.000000 0.020125 -0.005948 1.000000 0.013729 0.002167 1.000000 0.021570 -0.010040 1.000000 0.012229 -0.003509 1.000000 0.022669 -0.015144 1.000000 0.009741 -0.011317 1.000000 0.022160 -0.020522 1.000000 0.005560 -0.020538 1.000000 0.018697 -0.024724 1.000000 -0.000226 -0.029188 1.000000 0.011905 -0.026323 1.000000 -0.006516 -0.034742 1.000000 0.003076 -0.024970 1.000000 -0.011970 -0.035868 1.000000 -0.005854 -0.021343 1.000000 -0.015921 -0.032911 1.000000 -0.013262 -0.016409 1.000000 -0.018243 -0.027304 1.000000 -0.018390 -0.011083 1.000000 -0.019132 -0.020627 1.000000 -0.021267 -0.006010 1.000000 -0.018913 -0.014026 1.000000 -0.022327 -0.001522 1.000000 -0.017890 -0.008108 1.000000 -0.022074 0.002273 1.000000 -0.016283 -0.003091 1.000000 -0.020916 0.005372 1.000000 
-0.012823 -0.002486 1.000000 -0.017648 0.004084 1.000000 -0.010292 0.000767 1.000000 -0.015404 0.006025 1.000000 -0.007567 0.003449 1.000000 -0.012979 0.007421 1.000000 -0.004820 0.005538 1.000000 -0.010559 0.008184 1.000000 -0.002277 0.007016 1.000000 -0.008328 0.008263 1.000000 -0.000192 0.007908 1.000000 -0.006417 0.007724 1.000000 0.001248 0.008328 1.000000 -0.004843 0.006813 1.000000 0.002034 0.008494 1.000000 -0.003495 0.005951 1.000000 0.002391 0.008672 1.000000 -0.002224 0.005572 1.000000 0.002708 0.009086 1.000000 -0.000914 0.005838 1.000000 0.003388 0.009801 1.000000 0.000603 0.006481 1.000000 0.004728 0.010637 1.000000 0.002548 0.006884 1.000000 0.006747 0.011160 1.000000 0.005001 0.006331 1.000000 0.009119 0.010852 1.000000 0.007775 0.004364 1.000000 0.011309 0.009404 1.000000 0.010522 0.001069 1.000000 0.012885 0.006948 1.000000 0.013010 -0.002891 1.000000 0.013803 0.004004 1.000000 0.015333 -0.006672 1.000000 0.014332 0.001044 1.000000 0.017733 -0.009833 1.000000 0.014692 -0.001920 1.000000 0.020231 -0.012573 1.000000 0.014754 -0.005252 1.000000 0.022500 -0.015338 1.000000 0.014015 -0.009443 1.000000 0.023793 -0.018348 1.000000 0.011814 -0.014744 1.000000 0.023044 -0.021310 1.000000 0.007750 -0.020770 1.000000 0.019323 -0.023464 1.000000 0.002110 -0.026353 1.000000 0.012562 -0.024002 1.000000 -0.004086 -0.030016 1.000000 0.003947 -0.022660 1.000000 -0.009699 -0.030914 1.000000 -0.004742 -0.019832 1.000000 -0.013995 -0.029108 1.000000 -0.012005 -0.016121 1.000000 -0.016690 -0.025337 1.000000 -0.017103 -0.012087 1.000000 -0.017857 -0.020538 1.000000 -0.020000 -0.008127 1.000000 -0.017767 -0.015485 1.000000 -0.021060 -0.004462 1.000000 -0.016733 -0.010662 1.000000 -0.020757 -0.001188 1.000000 -0.015019 -0.006302 1.000000 -0.019512 0.001666 1.000000 
-0.011803 -0.000851 1.000000 -0.015873 0.005259 1.000000 -0.009830 0.002014 1.000000 -0.014197 0.006783 1.000000 -0.007592 0.004270 1.000000 -0.012206 0.007723 1.000000 -0.005199 0.005949 1.000000 -0.010036 0.008079 1.000000 -0.002808 0.007119 1.000000 -0.007837 0.007917 1.000000 -0.000622 0.007900 1.000000 -0.005767 0.007402 1.000000 0.001151 0.008454 1.000000 -0.003950 0.006784 1.000000 0.002392 0.008939 1.000000 -0.002421 0.006334 1.000000 0.003179 0.009451 1.000000 -0.001093 0.006221 1.000000 0.003824 0.010019 1.000000 0.000239 0.006447 1.000000 0.004745 0.010646 1.000000 0.001834 0.006828 1.000000 0.006252 0.011267 1.000000 0.003891 0.007030 1.000000 0.008365 0.011694 1.000000 0.006413 0.006696 1.000000 0.010748 0.011678 1.000000 0.009144 0.005621 1.000000 0.012824 0.011057 1.000000 0.011664 0.003865 1.000000 0.014041 0.009858 1.000000 0.013630 0.001691 1.000000 0.014189 0.008212 1.000000 0.014997 -0.000665 1.000000 0.013486 0.006146 1.000000 0.015985 -0.003178 1.000000 0.012342 0.003471 1.000000 0.016793 -0.006010 1.000000 0.010961 -0.000102 1.000000 0.017379 -0.009300 1.000000 0.009216 -0.004802 1.000000 0.017369 -0.012943 1.000000 0.006777 -0.010568 1.000000 0.016135 -0.016458 1.000000 0.003406 -0.016818 1.000000 0.013111 -0.019084 1.000000 -0.000765 -0.022427 1.000000 0.008238 -0.020127 1.000000 -0.005176 -0.026127 1.000000 0.002176 -0.019357 1.000000 -0.009145 -0.027179 1.000000 -0.004046 -0.017047 1.000000 -0.012215 -0.025648 1.000000 -0.009485 -0.013715 1.000000 -0.014213 -0.022207 1.000000 -0.013586 -0.009916 1.000000 -0.015175 -0.017730 1.000000 -0.016211 -0.006099 1.000000 -0.015251 -0.012965 1.000000 -0.017502 -0.002556 1.000000 -0.014617 -0.008411 1.000000 -0.017712 0.000559 1.000000 -0.013429 -0.004336 1.000000 -0.017099 0.003175 1.000000 
-0.010739 -0.003712 1.000000 -0.014781 0.002110 1.000000 -0.008767 -0.000909 1.000000 -0.013147 0.003788 1.000000 -0.006626 0.001458 1.000000 -0.011299 0.005028 1.000000 -0.004463 0.003368 1.000000 -0.009389 0.005792 1.000000 -0.002440 0.004817 1.000000 -0.007549 0.006078 1.000000 -0.000711 0.005838 1.000000 -0.005866 0.005951 1.000000 0.000628 0.006511 1.000000 -0.004359 0.005572 1.000000 0.001582 0.006965 1.000000 -0.002982 0.005164 1.000000 0.002281 0.007344 1.000000 -0.001654 0.004927 1.000000 0.002938 0.007754 1.000000 -0.000285 0.004917 1.000000 0.003774 0.008206 1.000000 0.001226 0.004974 1.000000 0.004934 0.008579 1.000000 0.002976 0.004771 1.000000 0.006415 0.008637 1.000000 0.004984 0.003948 1.000000 0.008043 0.008121 1.000000 0.007154 0.002288 1.000000 0.009549 0.006884 1.000000 0.009322 -0.000148 1.000000 0.010708 0.004982 1.000000 0.011365 -0.003038 1.000000 0.011447 0.002637 1.000000 0.013270 -0.005970 1.000000 0.011820 0.000056 1.000000 0.015061 -0.008689 1.000000 0.011861 -0.002728 1.000000 0.016659 -0.011193 1.000000 0.011464 -0.005839 1.000000 0.017800 -0.013593 1.000000 0.010373 -0.009433 1.000000 0.018027 -0.015908 1.000000 0.008298 -0.013510 1.000000 0.016794 -0.017938 1.000000 0.005122 -0.017746 1.000000 0.013713 -0.019293 1.000000 0.001066 -0.021480 1.000000 0.008861 -0.019591 1.000000 -0.003317 -0.023954 1.000000 0.002896 -0.018692 1.000000 -0.007389 -0.024692 1.000000 -0.003207 -0.016761 1.000000 -0.010663 -0.023669 1.000000 -0.008561 -0.014123 1.000000 -0.012891 -0.021236 1.000000 -0.012622 -0.011125 1.000000 -0.014041 -0.017913 1.000000 -0.015233 -0.008051 1.000000 -0.014225 -0.014195 1.000000 -0.016505 -0.005096 1.000000 -0.013619 -0.010452 1.000000 -0.016681 -0.002376 1.000000 -0.012404 -0.006915 1.000000 -0.016027 0.000041 1.000000 
-0.009734 -0.002097 1.000000 -0.013069 0.003287 1.000000 -0.008151 0.000380 1.000000 -0.011829 0.004642 1.000000 -0.006351 0.002421 1.000000 -0.010296 0.005560 1.000000 -0.004435 0.004039 1.000000 -0.008587 0.006057 1.000000 -0.002523 0.005279 1.000000 -0.006818 0.006188 1.000000 -0.000750 0.006217 1.000000 -0.005096 0.006063 1.000000 0.000770 0.006947 1.000000 -0.003497 0.005830 1.000000 0.001983 0.007562 1.000000 -0.002042 0.005634 1.000000 0.002944 0.008122 1.000000 -0.000681 0.005564 1.000000 0.003816 0.008650 1.000000 0.000693 0.005612 1.000000 0.004804 0.009135 1.000000 0.002207 0.005668 1.000000 0.006049 0.009517 1.000000 0.003948 0.005549 1.000000 0.007540 0.009686 1.000000 0.005895 0.005068 1.000000 0.009086 0.009508 1.000000 0.007905 0.004115 1.000000 0.010384 0.008890 1.000000 0.009762 0.002706 1.000000 0.011150 0.007815 1.000000 0.011285 0.000951 1.000000 0.011257 0.006307 1.000000 0.012417 -0.001038 1.000000 0.010768 0.004354 1.000000 0.013203 -0.003219 1.000000 0.009838 0.001873 1.000000 0.013683 -0.005613 1.000000 0.008560 -0.001243 1.000000 0.013786 -0.008209 1.000000 0.006899 -0.005029 1.000000 0.013292 -0.010869 1.000000 0.004746 -0.009335 1.000000 0.011899 -0.013282 1.000000 0.002051 -0.013736 1.000000 0.009376 -0.015028 1.000000 -0.001062 -0.017575 1.000000 0.005762 -0.015743 1.000000 -0.004278 -0.020163 1.000000 0.001437 -0.015285 1.000000 -0.007216 -0.021075 1.000000 -0.003022 -0.013773 1.000000 -0.009580 -0.020294 1.000000 -0.007050 -0.011487 1.000000 -0.011217 -0.018146 1.000000 -0.010261 -0.008767 1.000000 -0.012103 -0.015120 1.000000 -0.012491 -0.005915 1.000000 -0.012297 -0.011692 1.000000 -0.013757 -0.003162 1.000000 -0.011899 -0.008235 1.000000 -0.014174 -0.000656 1.000000 -0.011012 -0.004990 1.000000 -0.013895 0.001511 1.000000 
-0.008962 -0.004539 1.000000 -0.012303 0.000527 1.000000 -0.007413 -0.002149 1.000000 -0.011106 0.001988 1.000000 -0.005707 -0.000075 1.000000 -0.009680 0.003112 1.000000 -0.003967 0.001659 1.000000 -0.008149 0.003881 1.000000 -0.002310 0.003049 1.000000 -0.006613 0.004304 1.000000 -0.000837 0.004116 1.000000 -0.005137 0.004432 1.000000 0.000393 0.004912 1.000000 -0.003745 0.004359 1.000000 0.001385 0.005510 1.000000 -0.002422 0.004203 1.000000 0.002212 0.005983 1.000000 -0.001125 0.004055 1.000000 0.002988 0.006380 1.000000 0.000200 0.003929 1.000000 0.003832 0.006691 1.000000 0.001609 0.003729 1.000000 0.004817 0.006839 1.000000 0.003145 0.003281 1.000000 0.005935 0.006690 1.000000 0.004806 0.002402 1.000000 0.007090 0.006111 1.000000 0.006536 0.000990 1.000000 0.008139 0.005027 1.000000 0.008247 -0.000915 1.000000 0.008952 0.003459 1.000000 0.009857 -0.003144 1.000000 0.009458 0.001506 1.000000 0.011318 -0.005480 1.000000 0.009639 -0.000730 1.000000 0.012581 -0.007759 1.000000 0.009468 -0.003208 1.000000 0.013544 -0.009915 1.000000 0.008868 -0.005941 1.000000 0.014014 -0.011932 1.000000 0.007712 -0.008939 1.000000 0.013721 -0.013756 1.000000 0.005885 -0.012116 1.000000 0.012392 -0.015243 1.000000 0.003375 -0.015223 1.000000 0.009873 -0.016181 1.000000 0.000351 -0.017867 1.000000 0.006272 -0.016375 1.000000 -0.002860 -0.019628 1.000000 0.001984 -0.015754 1.000000 -0.005876 -0.020233 1.000000 -0.002425 -0.014397 1.000000 -0.008378 -0.019640 1.000000 -0.006411 -0.012486 1.000000 -0.010170 -0.018025 1.000000 -0.009594 -0.010240 1.000000 -0.011189 -0.015682 1.000000 -0.011804 -0.007857 1.000000 -0.011472 -0.012929 1.000000 -0.013047 -0.005494 1.000000 -0.011115 -0.010034 1.000000 -0.013436 -0.003262 1.000000 -0.010237 -0.007194 1.000000 -0.013132 -0.001238 1.000000 
-0.007969 -0.002926 1.000000 -0.010678 0.001738 1.000000 -0.006689 -0.000817 1.000000 -0.009753 0.002936 1.000000 -0.005226 0.000996 1.000000 -0.008561 0.003820 1.000000 -0.003665 0.002509 1.000000 -0.007198 0.004400 1.000000 -0.002101 0.003743 1.000000 -0.005752 0.004715 1.000000 -0.000623 0.004741 1.000000 -0.004301 0.004833 1.000000 0.000696 0.005556 1.000000 -0.002900 0.004838 1.000000 0.001826 0.006239 1.000000 -0.001568 0.004808 1.000000 0.002797 0.006825 1.000000 -0.000284 0.004788 1.000000 0.003691 0.007326 1.000000 0.001004 0.004768 1.000000 0.004605 0.007726 1.000000 0.002355 0.004682 1.000000 0.005601 0.007982 1.000000 0.003800 0.004431 1.000000 0.006659 0.008025 1.000000 0.005316 0.003913 1.000000 0.007673 0.007777 1.000000 0.006820 0.003066 1.000000 0.008477 0.007179 1.000000 0.008193 0.001894 1.000000 0.008920 0.006204 1.000000 0.009332 0.000445 1.000000 0.008921 0.004846 1.000000 0.010181 -0.001218 1.000000 0.008489 0.003091 1.000000 0.010726 -0.003049 1.000000 0.007682 0.000911 1.000000 0.010950 -0.005014 1.000000 0.006543 -0.001713 1.000000 0.010788 -0.007053 1.000000 0.005075 -0.004737 1.000000 0.010116 -0.009041 1.000000 0.003259 -0.008005 1.000000 0.008791 -0.010773 1.000000 0.001113 -0.011218 1.000000 0.006731 -0.012004 1.000000 -0.001257 -0.013974 1.000000 0.004000 -0.012532 1.000000 -0.003657 -0.015875 1.000000 0.000832 -0.012269 1.000000 -0.005859 -0.016666 1.000000 -0.002429 -0.011271 1.000000 -0.007671 -0.016308 1.000000 -0.005433 -0.009695 1.000000 -0.008973 -0.014963 1.000000 -0.007917 -0.007747 1.000000 -0.009722 -0.012910 1.000000 -0.009737 -0.005632 1.000000 -0.009935 -0.010450 1.000000 -0.010861 -0.003519 1.000000 -0.009667 -0.007845 1.000000 -0.011333 -0.001534 1.000000 -0.008987 -0.005294 1.000000 -0.011239 0.000236 1.000000 
-0.007461 -0.005099 1.000000 -0.010194 -0.000754 1.000000 -0.006214 -0.003074 1.000000 -0.009292 0.000524 1.000000 -0.004823 -0.001267 1.000000 -0.008167 0.001552 1.000000 -0.003387 0.000295 1.000000 -0.006916 0.002317 1.000000 -0.001995 0.001603 1.000000 -0.005616 0.002826 1.000000 -0.000720 0.002666 1.000000 -0.004323 0.003113 1.000000 0.000397 0.003511 1.000000 -0.003063 0.003229 1.000000 0.001355 0.004177 1.000000 -0.001836 0.003232 1.000000 0.002192 0.004699 1.000000 -0.000623 0.003162 1.000000 0.002968 0.005092 1.000000 0.000601 0.003015 1.000000 0.003748 0.005341 1.000000 0.001867 0.002733 1.000000 0.004567 0.005394 1.000000 0.003188 0.002222 1.000000 0.005417 0.005174 1.000000 0.004558 0.001388 1.000000 0.006244 0.004608 1.000000 0.005938 0.000186 1.000000 0.006966 0.003653 1.000000 0.007272 -0.001358 1.000000 0.007502 0.002320 1.000000 0.008500 -0.003145 1.000000 0.007796 0.000657 1.000000 0.009564 -0.005048 1.000000 0.007808 -0.001275 1.000000 0.010402 -0.006952 1.000000 0.007503 -0.003432 1.000000 0.010921 -0.008777 1.000000 0.006829 -0.005779 1.000000 0.010990 -0.010464 1.000000 0.005724 -0.008268 1.000000 0.010453 -0.011939 1.000000 0.004152 -0.010791 1.000000 0.009178 -0.013097 1.000000 0.002143 -0.013163 1.000000 0.007117 -0.013811 1.000000 -0.000177 -0.015135 1.000000 0.004371 -0.013975 1.000000 -0.002598 -0.016461 1.000000 0.001194 -0.013551 1.000000 -0.004878 -0.016973 1.000000 -0.002067 -0.012585 1.000000 -0.006801 -0.016636 1.000000 -0.005066 -0.011185 1.000000 -0.008222 -0.015541 1.000000 -0.007539 -0.009491 1.000000 -0.009074 -0.013863 1.000000 -0.009342 -0.007643 1.000000 -0.009359 -0.011806 1.000000 -0.010442 -0.005762 1.000000 -0.009130 -0.009562 1.000000 -0.010884 -0.003943 1.000000 -0.008466 -0.007288 1.000000 -0.010763 -0.002256 1.000000 
-0.006467 -0.003495 1.000000 -0.008654 0.000490 1.000000 -0.005411 -0.001719 1.000000 -0.007945 0.001546 1.000000 -0.004198 -0.000129 1.000000 -0.006999 0.002384 1.000000 -0.002901 0.001257 1.000000 -0.005890 0.003008 1.000000 -0.001591 0.002443 1.000000 -0.004689 0.003440 1.000000 -0.000337 0.003448 1.000000 -0.003456 0.003715 1.000000 0.000811 0.004295 1.000000 -0.002235 0.003880 1.000000 0.001829 0.005012 1.000000 -0.001047 0.003972 1.000000 0.002728 0.005613 1.000000 0.000110 0.004011 1.000000 0.003544 0.006101 1.000000 0.001254 0.003988 1.000000 0.004323 0.006460 1.000000 0.002408 0.003864 1.000000 0.005089 0.006660 1.000000 0.003580 0.003581 1.000000 0.005825 0.006655 1.000000 0.004749 0.003086 1.000000 0.006469 0.006397 1.000000 0.005865 0.002345 1.000000 0.006933 0.005845 1.000000 0.006860 0.001357 1.000000 0.007132 0.004977 1.000000 0.007670 0.000151 1.000000 0.007018 0.003782 1.000000 0.008249 -0.001230 1.000000 0.006585 0.002253 1.000000 0.008570 -0.002744 1.000000 0.005857 0.000392 1.000000 0.008603 -0.004339 1.000000 0.004857 -0.001781 1.000000 0.008300 -0.005949 1.000000 0.003600 -0.004200 1.000000 0.007593 -0.007469 1.000000 0.002101 -0.006729 1.000000 0.006419 -0.008764 1.000000 0.000399 -0.009157 1.000000 0.004759 -0.009684 1.000000 -0.001421 -0.011228 1.000000 0.002674 -0.010110 1.000000 -0.003234 -0.012698 1.000000 0.000320 -0.009990 1.000000 -0.004893 -0.013405 1.000000 -0.002091 -0.009348 1.000000 -0.006272 -0.013309 1.000000 -0.004338 -0.008274 1.000000 -0.007280 -0.012490 1.000000 -0.006239 -0.006896 1.000000 -0.007875 -0.011107 1.000000 -0.007680 -0.005347 1.000000 -0.008055 -0.009351 1.000000 -0.008617 -0.003748 1.000000 -0.007848 -0.007403 1.000000 -0.009058 -0.002198 1.000000 -0.007301 -0.005414 1.000000 -0.009049 -0.000768 1.000000 
-0.006203 -0.005494 1.000000 -0.008418 -0.001810 1.000000 -0.005158 -0.003783 1.000000 -0.007702 -0.000688 1.000000 -0.003985 -0.002213 1.000000 -0.006781 0.000254 1.000000 -0.002763 -0.000813 1.000000 -0.005729 0.001007 1.000000 -0.001564 0.000401 1.000000 -0.004612 0.001572 1.000000 -0.000445 0.001432 1.000000 -0.003476 0.001965 1.000000 0.000561 0.002290 1.000000 -0.002346 0.002210 1.000000 0.001447 0.002990 1.000000 -0.001234 0.002333 1.000000 0.002231 0.003542 1.000000 -0.000135 0.002345 1.000000 0.002946 0.003948 1.000000 0.000962 0.002236 1.000000 0.003624 0.004187 1.000000 0.002067 0.001967 1.000000 0.004285 0.004222 1.000000 0.003183 0.001486 1.000000 0.004922 0.004005 1.000000 0.004300 0.000744 1.000000 0.005502 0.003491 1.000000 0.005387 -0.000277 1.000000 0.005978 0.002658 1.000000 0.006404 -0.001557 1.000000 0.006296 0.001510 1.000000 0.007304 -0.003032 1.000000 0.006414 0.000078 1.000000 0.008036 -0.004616 1.000000 0.006295 -0.001596 1.000000 0.008541 -0.006223 1.000000 0.005908 -0.003465 1.000000 0.008748 -0.007777 1.000000 0.005219 -0.005476 1.000000 0.008571 -0.009207 1.000000 0.004204 -0.007561 1.000000 0.007925 -0.010440 1.000000 0.002858 -0.009617 1.000000 0.006749 -0.011396 1.000000 0.001223 -0.011503 1.000000 0.005046 -0.011990 1.000000 -0.000604 -0.013051 1.000000 0.002901 -0.012163 1.000000 -0.002478 -0.014106 1.000000 0.000487 -0.011892 1.000000 -0.004235 -0.014561 1.000000 -0.001970 -0.011206 1.000000 -0.005727 -0.014389 1.000000 -0.004246 -0.010177 1.000000 -0.006844 -0.013640 1.000000 -0.006155 -0.008896 1.000000 -0.007525 -0.012421 1.000000 -0.007586 -0.007463 1.000000 -0.007761 -0.010869 1.000000 -0.008493 -0.005969 1.000000 -0.007580 -0.009121 1.000000 -0.008895 -0.004491 1.000000 -0.007037 -0.007297 1.000000 -0.008844 -0.003089 1.000000 
-0.005188 -0.003921 1.000000 -0.006942 -0.000555 1.000000 -0.004289 -0.002435 1.000000 -0.006375 0.000372 1.000000 -0.003256 -0.001051 1.000000 -0.005600 0.001162 1.000000 -0.002148 0.000206 1.000000 -0.004676 0.001810 1.000000 -0.001027 0.001326 1.000000 -0.003659 0.002321 1.000000 0.000056 0.002311 1.000000 -0.002599 0.002709 1.000000 0.001056 0.003166 1.000000 -0.001536 0.002994 1.000000 0.001952 0.003900 1.000000 -0.000494 0.003188 1.000000 0.002740 0.004514 1.000000 0.000515 0.003297 1.000000 0.003435 0.005004 1.000000 0.001493 0.003310 1.000000 0.004054 0.005355 1.000000 0.002443 0.003203 1.000000 0.004608 0.005544 1.000000 0.003362 0.002944 1.000000 0.005083 0.005539 1.000000 0.004236 0.002505 1.000000 0.005447 0.005309 1.000000 0.005032 0.001869 1.000000 0.005653 0.004828 1.000000 0.005712 0.001038 1.000000 0.005657 0.004077 1.000000 0.006237 0.000034 1.000000 0.005433 0.003050 1.000000 0.006575 -0.001112 1.000000 0.004978 0.001748 1.000000 0.006702 -0.002356 1.000000 0.004303 0.000185 1.000000 0.006592 -0.003651 1.000000 0.003426 -0.001605 1.000000 0.006215 -0.004933 1.000000 0.002366 -0.003554 1.000000 0.005537 -0.006123 1.000000 0.001146 -0.005554 1.000000 0.004533 -0.007129 1.000000 -0.000195 -0.007454 1.000000 0.003210 -0.007857 1.000000 -0.001593 -0.009083 1.000000 0.001619 -0.008236 1.000000 -0.002963 -0.010284 1.000000 -0.000136 -0.008232 1.000000 -0.004208 -0.010947 1.000000 -0.001919 -0.007856 1.000000 -0.005242 -0.011034 1.000000 -0.003588 -0.007158 1.000000 -0.005999 -0.010580 1.000000 -0.005020 -0.006214 1.000000 -0.006442 -0.009677 1.000000 -0.006128 -0.005111 1.000000 -0.006562 -0.008443 1.000000 -0.006868 -0.003930 1.000000 -0.006371 -0.007002 1.000000 -0.007234 -0.002741 1.000000 -0.005899 -0.005465 1.000000 -0.007245 -0.001602 1.000000 