# vtk DataFile Version 2.0
Comment goes here
ASCII

DATASET STRUCTURED_POINTS
DIMENSIONS    64   64   1

ORIGIN    0.000   0.000   0.000
SPACING   0.0156250.015625   1.000

POINT_DATA   4096
VECTORS u double

-0.001879 -0.211530 1.000000 0.003504 -0.203141 1.000000 0.009295 -0.192261 1.000000 0.014963 -0.187242 1.000000 0.020424 -0.179555 1.000000 0.026393 -0.178125 1.000000 0.031145 -0.173969 1.000000 0.037251 -0.176167 1.000000 0.040772 -0.175816 1.000000 0.046539 -0.181345 1.000000 0.048248 -0.184821 1.000000 0.052803 -0.192867 1.000000 0.052328 -0.199560 1.000000 0.054631 -0.208728 1.000000 0.052286 -0.217013 1.000000 0.052072 -0.225799 1.000000 0.049050 -0.233626 1.000000 0.047818 -0.241483 1.000000 0.045105 -0.248485 1.000000 0.045243 -0.255446 1.000000 0.043923 -0.264467 1.000000 0.044696 -0.271628 1.000000 0.044987 -0.283988 1.000000 0.045341 -0.292964 1.000000 0.046426 -0.308591 1.000000 0.045574 -0.320357 1.000000 0.046158 -0.338556 1.000000 0.043417 -0.352980 1.000000 0.042309 -0.372638 1.000000 0.037215 -0.388594 1.000000 0.033757 -0.408250 1.000000 0.026343 -0.424074 1.000000 0.020636 -0.442218 1.000000 0.011552 -0.456315 1.000000 0.004353 -0.471777 1.000000 -0.005345 -0.483053 1.000000 -0.012991 -0.495182 1.000000 -0.022209 -0.503122 1.000000 -0.029364 -0.511679 1.000000 -0.037283 -0.516142 1.000000 -0.043341 -0.521036 1.000000 -0.049532 -0.521974 1.000000 -0.054228 -0.523030 1.000000 -0.058578 -0.520308 1.000000 -0.061845 -0.517226 1.000000 -0.064389 -0.510670 1.000000 -0.066200 -0.503196 1.000000 -0.067011 -0.492799 1.000000 -0.067328 -0.480993 1.000000 -0.066514 -0.467121 1.000000 -0.065336 -0.451515 1.000000 -0.063083 -0.434958 1.000000 -0.060506 -0.416520 1.000000 -0.057096 -0.398372 1.000000 -0.053330 -0.378317 1.000000 -0.049104 -0.359763 1.000000 -0.044435 -0.339322 1.000000 -0.039722 -0.321445 1.000000 -0.034444 -0.301674 1.000000 -0.029491 -0.285348 1.000000 -0.023849 -0.267058 1.000000 -0.018780 -0.252932 1.000000 -0.012950 -0.236707 1.000000 -0.007764 -0.225261 1.000000 
0.011477 -0.216025 1.000000 0.015548 -0.207559 1.000000 0.020148 -0.196516 1.000000 0.024295 -0.191212 1.000000 0.028539 -0.183282 1.000000 0.032732 -0.181234 1.000000 0.036281 -0.176667 1.000000 0.040305 -0.177781 1.000000 0.042679 -0.176755 1.000000 0.046077 -0.180663 1.000000 0.046749 -0.183157 1.000000 0.048852 -0.189165 1.000000 0.047479 -0.194749 1.000000 0.047702 -0.201922 1.000000 0.044484 -0.209604 1.000000 0.042987 -0.217137 1.000000 0.038831 -0.225735 1.000000 0.036978 -0.233450 1.000000 0.032951 -0.242623 1.000000 0.032378 -0.250648 1.000000 0.029526 -0.261546 1.000000 0.029906 -0.270500 1.000000 0.028652 -0.283604 1.000000 0.028925 -0.294238 1.000000 0.028756 -0.309482 1.000000 0.027949 -0.322177 1.000000 0.027797 -0.339200 1.000000 0.025212 -0.353698 1.000000 0.024011 -0.371797 1.000000 0.019310 -0.387211 1.000000 0.016427 -0.405346 1.000000 0.009755 -0.420426 1.000000 0.005196 -0.437440 1.000000 -0.002805 -0.450968 1.000000 -0.008475 -0.465887 1.000000 -0.016849 -0.476972 1.000000 -0.022793 -0.489152 1.000000 -0.030549 -0.497289 1.000000 -0.035963 -0.506351 1.000000 -0.042316 -0.511288 1.000000 -0.046622 -0.516945 1.000000 -0.051107 -0.518493 1.000000 -0.054002 -0.520400 1.000000 -0.056454 -0.518327 1.000000 -0.057845 -0.516077 1.000000 -0.058321 -0.510167 1.000000 -0.058237 -0.503452 1.000000 -0.056947 -0.493683 1.000000 -0.055499 -0.482524 1.000000 -0.052764 -0.469244 1.000000 -0.050137 -0.454138 1.000000 -0.046363 -0.438108 1.000000 -0.042806 -0.420000 1.000000 -0.038420 -0.402289 1.000000 -0.034209 -0.382396 1.000000 -0.029591 -0.364178 1.000000 -0.024987 -0.343755 1.000000 -0.020412 -0.326119 1.000000 -0.015620 -0.306269 1.000000 -0.011228 -0.290107 1.000000 -0.006382 -0.271690 1.000000 -0.002188 -0.257668 1.000000 0.002641 -0.241305 1.000000 0.006716 -0.229895 1.000000 
0.020545 -0.220361 1.000000 0.023155 -0.211812 1.000000 0.025848 -0.201008 1.000000 0.028472 -0.195633 1.000000 0.030747 -0.187992 1.000000 0.033414 -0.185867 1.000000 0.035047 -0.181542 1.000000 0.037625 -0.182565 1.000000 0.038322 -0.181587 1.000000 0.040500 -0.185415 1.000000 0.039995 -0.187597 1.000000 0.041322 -0.193597 1.000000 0.039541 -0.198409 1.000000 0.039625 -0.205733 1.000000 0.036851 -0.212298 1.000000 0.035719 -0.220146 1.000000 0.032570 -0.227618 1.000000 0.030864 -0.235602 1.000000 0.027947 -0.243884 1.000000 0.026449 -0.252021 1.000000 0.024262 -0.261996 1.000000 0.022868 -0.270754 1.000000 0.021521 -0.283007 1.000000 0.019793 -0.293068 1.000000 0.018914 -0.307615 1.000000 0.016399 -0.319399 1.000000 0.015325 -0.335819 1.000000 0.011628 -0.349194 1.000000 0.009707 -0.366736 1.000000 0.004616 -0.381010 1.000000 0.001486 -0.398695 1.000000 -0.004876 -0.412844 1.000000 -0.009133 -0.429658 1.000000 -0.016257 -0.442644 1.000000 -0.021155 -0.457733 1.000000 -0.028257 -0.468735 1.000000 -0.033093 -0.481482 1.000000 -0.039319 -0.489953 1.000000 -0.043393 -0.499912 1.000000 -0.048016 -0.505483 1.000000 -0.050795 -0.512246 1.000000 -0.053342 -0.514593 1.000000 -0.054528 -0.517683 1.000000 -0.054827 -0.516466 1.000000 -0.054362 -0.515359 1.000000 -0.052534 -0.510277 1.000000 -0.050565 -0.504571 1.000000 -0.046988 -0.495538 1.000000 -0.043823 -0.485176 1.000000 -0.039063 -0.472483 1.000000 -0.035107 -0.457916 1.000000 -0.029799 -0.442290 1.000000 -0.025465 -0.424463 1.000000 -0.020180 -0.406968 1.000000 -0.015809 -0.387146 1.000000 -0.010953 -0.368985 1.000000 -0.006771 -0.348501 1.000000 -0.002543 -0.330812 1.000000 0.001339 -0.310858 1.000000 0.004925 -0.294586 1.000000 0.008484 -0.276099 1.000000 0.011551 -0.261955 1.000000 0.014814 -0.245612 1.000000 0.017553 -0.234096 1.000000 
0.033811 -0.221627 1.000000 0.034983 -0.212862 1.000000 0.036444 -0.201833 1.000000 0.037466 -0.196111 1.000000 0.038498 -0.188223 1.000000 0.039409 -0.185533 1.000000 0.039831 -0.180879 1.000000 0.040513 -0.181056 1.000000 0.040067 -0.179630 1.000000 0.040267 -0.182336 1.000000 0.038708 -0.183979 1.000000 0.038113 -0.188710 1.000000 0.035349 -0.193052 1.000000 0.033770 -0.199232 1.000000 0.030008 -0.205697 1.000000 0.027621 -0.212857 1.000000 0.023374 -0.220881 1.000000 0.020774 -0.228827 1.000000 0.016655 -0.238207 1.000000 0.014435 -0.246964 1.000000 0.010987 -0.257965 1.000000 0.009097 -0.267758 1.000000 0.006552 -0.280530 1.000000 0.004547 -0.291631 1.000000 0.002696 -0.306087 1.000000 0.000067 -0.318588 1.000000 -0.001606 -0.334429 1.000000 -0.005256 -0.348080 1.000000 -0.007306 -0.364786 1.000000 -0.012135 -0.378990 1.000000 -0.014899 -0.395854 1.000000 -0.020740 -0.409807 1.000000 -0.024191 -0.426059 1.000000 -0.030540 -0.438946 1.000000 -0.034303 -0.453887 1.000000 -0.040411 -0.465034 1.000000 -0.043899 -0.478090 1.000000 -0.048936 -0.486989 1.000000 -0.051517 -0.497653 1.000000 -0.054735 -0.503886 1.000000 -0.055884 -0.511619 1.000000 -0.056755 -0.514759 1.000000 -0.056151 -0.518915 1.000000 -0.054468 -0.518493 1.000000 -0.052056 -0.518370 1.000000 -0.047986 -0.513965 1.000000 -0.043995 -0.508998 1.000000 -0.038081 -0.500424 1.000000 -0.032989 -0.490449 1.000000 -0.026049 -0.477959 1.000000 -0.020472 -0.463402 1.000000 -0.013406 -0.447750 1.000000 -0.007938 -0.429619 1.000000 -0.001504 -0.411945 1.000000 0.003429 -0.391624 1.000000 0.008767 -0.373216 1.000000 0.012953 -0.352165 1.000000 0.017052 -0.334228 1.000000 0.020471 -0.313736 1.000000 0.023435 -0.297253 1.000000 0.026186 -0.278316 1.000000 0.028267 -0.263998 1.000000 0.030494 -0.247307 1.000000 0.031988 -0.235626 1.000000 
0.043329 -0.223356 1.000000 0.042987 -0.214445 1.000000 0.042654 -0.203491 1.000000 0.042156 -0.197687 1.000000 0.041416 -0.189934 1.000000 0.040867 -0.187199 1.000000 0.039642 -0.182646 1.000000 0.038997 -0.182802 1.000000 0.037158 -0.181341 1.000000 0.036249 -0.184055 1.000000 0.033695 -0.185442 1.000000 0.032297 -0.190238 1.000000 0.029044 -0.194066 1.000000 0.026994 -0.200391 1.000000 0.023243 -0.206149 1.000000 0.020575 -0.213512 1.000000 0.016674 -0.220771 1.000000 0.013649 -0.228884 1.000000 0.009955 -0.237545 1.000000 0.006856 -0.246353 1.000000 0.003640 -0.256658 1.000000 0.000471 -0.266318 1.000000 -0.002189 -0.278457 1.000000 -0.005605 -0.289212 1.000000 -0.007871 -0.303134 1.000000 -0.011756 -0.315097 1.000000 -0.013951 -0.330497 1.000000 -0.018492 -0.343494 1.000000 -0.020945 -0.359856 1.000000 -0.026192 -0.373417 1.000000 -0.029074 -0.390090 1.000000 -0.034848 -0.403551 1.000000 -0.038067 -0.419859 1.000000 -0.043919 -0.432531 1.000000 -0.047115 -0.447862 1.000000 -0.052370 -0.459139 1.000000 -0.054997 -0.472957 1.000000 -0.058867 -0.482334 1.000000 -0.060312 -0.494113 1.000000 -0.062035 -0.501116 1.000000 -0.061759 -0.510226 1.000000 -0.060760 -0.514326 1.000000 -0.058423 -0.519970 1.000000 -0.054475 -0.520561 1.000000 -0.050061 -0.521840 1.000000 -0.043418 -0.518338 1.000000 -0.037305 -0.514476 1.000000 -0.028737 -0.506544 1.000000 -0.021663 -0.497208 1.000000 -0.012319 -0.485000 1.000000 -0.005192 -0.470558 1.000000 0.003708 -0.454824 1.000000 0.010087 -0.436366 1.000000 0.017592 -0.418334 1.000000 0.022727 -0.397417 1.000000 0.028347 -0.378509 1.000000 0.032086 -0.356786 1.000000 0.035784 -0.338330 1.000000 0.038236 -0.317240 1.000000 0.040291 -0.300302 1.000000 0.041701 -0.280931 1.000000 0.042538 -0.266263 1.000000 0.043178 -0.249333 1.000000 0.043240 -0.237413 1.000000 
0.056794 -0.221375 1.000000 0.054873 -0.212186 1.000000 0.053235 -0.201002 1.000000 0.051066 -0.194873 1.000000 0.049039 -0.186935 1.000000 0.046758 -0.183759 1.000000 0.044295 -0.179009 1.000000 0.041887 -0.178572 1.000000 0.038880 -0.176882 1.000000 0.036226 -0.178872 1.000000 0.032575 -0.180027 1.000000 0.029528 -0.184060 1.000000 0.025230 -0.187749 1.000000 0.021720 -0.193431 1.000000 0.016930 -0.199279 1.000000 0.013058 -0.206288 1.000000 0.008081 -0.213955 1.000000 0.004100 -0.222107 1.000000 -0.000698 -0.231414 1.000000 -0.004555 -0.240649 1.000000 -0.008857 -0.251580 1.000000 -0.012590 -0.261928 1.000000 -0.016238 -0.274454 1.000000 -0.020033 -0.285950 1.000000 -0.023090 -0.299936 1.000000 -0.027195 -0.312507 1.000000 -0.029891 -0.327693 1.000000 -0.034495 -0.341086 1.000000 -0.037098 -0.357085 1.000000 -0.042239 -0.370861 1.000000 -0.044906 -0.387198 1.000000 -0.050395 -0.400814 1.000000 -0.053070 -0.416988 1.000000 -0.058460 -0.429898 1.000000 -0.060848 -0.445436 1.000000 -0.065463 -0.457153 1.000000 -0.067072 -0.471594 1.000000 -0.070084 -0.481673 1.000000 -0.070314 -0.494485 1.000000 -0.070876 -0.502440 1.000000 -0.069145 -0.512895 1.000000 -0.066565 -0.518095 1.000000 -0.062475 -0.525199 1.000000 -0.056442 -0.526856 1.000000 -0.049958 -0.529427 1.000000 -0.040761 -0.526720 1.000000 -0.032354 -0.523678 1.000000 -0.020974 -0.516066 1.000000 -0.011611 -0.506867 1.000000 0.000436 -0.494431 1.000000 0.009543 -0.479429 1.000000 0.020636 -0.463030 1.000000 0.028413 -0.443503 1.000000 0.037323 -0.424585 1.000000 0.043146 -0.402379 1.000000 0.049312 -0.382575 1.000000 0.053059 -0.359602 1.000000 0.056543 -0.340378 1.000000 0.058455 -0.318243 1.000000 0.059716 -0.300717 1.000000 0.060204 -0.280563 1.000000 0.059855 -0.265475 1.000000 0.059342 -0.248009 1.000000 0.057972 -0.235778 1.000000 
0.066924 -0.220257 1.000000 0.063368 -0.210886 1.000000 0.059978 -0.199685 1.000000 0.056240 -0.193491 1.000000 0.052551 -0.185626 1.000000 0.048817 -0.182456 1.000000 0.044856 -0.177776 1.000000 0.041153 -0.177387 1.000000 0.036887 -0.175680 1.000000 0.033133 -0.177750 1.000000 0.028533 -0.178744 1.000000 0.024601 -0.182893 1.000000 0.019702 -0.186259 1.000000 0.015498 -0.192092 1.000000 0.010430 -0.197487 1.000000 0.005954 -0.204663 1.000000 0.000924 -0.211814 1.000000 -0.003729 -0.220105 1.000000 -0.008499 -0.228890 1.000000 -0.013221 -0.238194 1.000000 -0.017553 -0.248623 1.000000 -0.022326 -0.258938 1.000000 -0.026141 -0.271013 1.000000 -0.031027 -0.282360 1.000000 -0.034372 -0.295973 1.000000 -0.039460 -0.308296 1.000000 -0.042473 -0.323196 1.000000 -0.047828 -0.336287 1.000000 -0.050661 -0.352112 1.000000 -0.056248 -0.365608 1.000000 -0.058972 -0.381934 1.000000 -0.064589 -0.395387 1.000000 -0.067108 -0.411794 1.000000 -0.072332 -0.424753 1.000000 -0.074345 -0.440859 1.000000 -0.078511 -0.452916 1.000000 -0.079512 -0.468336 1.000000 -0.081757 -0.479092 1.000000 -0.081092 -0.493322 1.000000 -0.080461 -0.502285 1.000000 -0.077446 -0.514536 1.000000 -0.073100 -0.520996 1.000000 -0.067234 -0.530093 1.000000 -0.058758 -0.533077 1.000000 -0.049994 -0.537522 1.000000 -0.037743 -0.535942 1.000000 -0.026731 -0.534263 1.000000 -0.012010 -0.527288 1.000000 -0.000114 -0.518619 1.000000 0.015033 -0.506153 1.000000 0.026126 -0.490758 1.000000 0.039559 -0.473694 1.000000 0.048461 -0.453053 1.000000 0.058655 -0.433068 1.000000 0.064681 -0.409406 1.000000 0.071081 -0.388422 1.000000 0.074242 -0.364017 1.000000 0.077116 -0.343726 1.000000 0.077872 -0.320413 1.000000 0.077956 -0.302051 1.000000 0.076930 -0.281070 1.000000 0.075086 -0.265401 1.000000 0.072869 -0.247451 1.000000 0.069874 -0.234866 1.000000 
0.080779 -0.214868 1.000000 0.075453 -0.205240 1.000000 0.070641 -0.193874 1.000000 0.065139 -0.187447 1.000000 0.060090 -0.179512 1.000000 0.054626 -0.176064 1.000000 0.049383 -0.171345 1.000000 0.044002 -0.170603 1.000000 0.038536 -0.168861 1.000000 0.033181 -0.170518 1.000000 0.027451 -0.171494 1.000000 0.022032 -0.175229 1.000000 0.016052 -0.178646 1.000000 0.010518 -0.184159 1.000000 0.004391 -0.189735 1.000000 -0.001230 -0.196782 1.000000 -0.007315 -0.204272 1.000000 -0.012924 -0.212684 1.000000 -0.018732 -0.221922 1.000000 -0.024236 -0.231595 1.000000 -0.029551 -0.242475 1.000000 -0.034937 -0.253340 1.000000 -0.039623 -0.265753 1.000000 -0.044961 -0.277719 1.000000 -0.048996 -0.291503 1.000000 -0.054393 -0.304406 1.000000 -0.057855 -0.319326 1.000000 -0.063385 -0.332898 1.000000 -0.066392 -0.348665 1.000000 -0.072036 -0.362550 1.000000 -0.074660 -0.378857 1.000000 -0.080233 -0.392677 1.000000 -0.082416 -0.409246 1.000000 -0.087508 -0.422662 1.000000 -0.088999 -0.439257 1.000000 -0.092930 -0.451985 1.000000 -0.093246 -0.468347 1.000000 -0.095067 -0.480094 1.000000 -0.093514 -0.495781 1.000000 -0.092095 -0.506085 1.000000 -0.087873 -0.520256 1.000000 -0.082136 -0.528308 1.000000 -0.074583 -0.539541 1.000000 -0.063897 -0.544095 1.000000 -0.052858 -0.550443 1.000000 -0.037538 -0.549983 1.000000 -0.023740 -0.549411 1.000000 -0.005373 -0.542683 1.000000 0.009481 -0.533910 1.000000 0.028255 -0.520671 1.000000 0.041959 -0.503955 1.000000 0.058303 -0.485364 1.000000 0.069001 -0.462599 1.000000 0.080940 -0.440805 1.000000 0.087759 -0.414804 1.000000 0.094681 -0.392136 1.000000 0.097732 -0.365638 1.000000 0.100134 -0.344008 1.000000 0.100116 -0.319083 1.000000 0.099054 -0.299775 1.000000 0.096848 -0.277693 1.000000 0.093473 -0.261414 1.000000 0.089877 -0.242797 1.000000 0.085170 -0.229833 1.000000 
0.091517 -0.210539 1.000000 0.084362 -0.200748 1.000000 0.077772 -0.189371 1.000000 0.070604 -0.182939 1.000000 0.063937 -0.175112 1.000000 0.056989 -0.171749 1.000000 0.050323 -0.167153 1.000000 0.043643 -0.166539 1.000000 0.036979 -0.164859 1.000000 0.030507 -0.166665 1.000000 0.023830 -0.167596 1.000000 0.017459 -0.171494 1.000000 0.010785 -0.174744 1.000000 0.004426 -0.180430 1.000000 -0.002170 -0.185738 1.000000 -0.008557 -0.192957 1.000000 -0.014947 -0.200120 1.000000 -0.021344 -0.208687 1.000000 -0.027374 -0.217578 1.000000 -0.033740 -0.227375 1.000000 -0.039266 -0.237922 1.000000 -0.045577 -0.248866 1.000000 -0.050497 -0.260989 1.000000 -0.056759 -0.272987 1.000000 -0.061042 -0.286542 1.000000 -0.067272 -0.299437 1.000000 -0.070952 -0.314204 1.000000 -0.077156 -0.327750 1.000000 -0.080303 -0.343461 1.000000 -0.086432 -0.357341 1.000000 -0.089090 -0.373737 1.000000 -0.094971 -0.387631 1.000000 -0.097087 -0.404519 1.000000 -0.102337 -0.418171 1.000000 -0.103667 -0.435437 1.000000 -0.107598 -0.448669 1.000000 -0.107624 -0.466199 1.000000 -0.109190 -0.478825 1.000000 -0.107092 -0.496293 1.000000 -0.104937 -0.507925 1.000000 -0.099682 -0.524496 1.000000 -0.092392 -0.534286 1.000000 -0.083041 -0.548331 1.000000 -0.069673 -0.554803 1.000000 -0.055903 -0.563881 1.000000 -0.036730 -0.565060 1.000000 -0.019454 -0.566428 1.000000 0.003468 -0.560509 1.000000 0.021877 -0.552246 1.000000 0.044969 -0.538631 1.000000 0.061413 -0.520806 1.000000 0.080900 -0.500736 1.000000 0.093000 -0.475690 1.000000 0.106442 -0.451826 1.000000 0.113333 -0.423147 1.000000 0.120241 -0.398395 1.000000 0.122355 -0.369469 1.000000 0.123668 -0.346110 1.000000 0.122095 -0.319334 1.000000 0.119343 -0.298784 1.000000 0.115284 -0.275489 1.000000 0.109981 -0.258430 1.000000 0.104447 -0.239148 1.000000 0.097802 -0.225767 1.000000 
0.105802 -0.201429 1.000000 0.096627 -0.191495 1.000000 0.088456 -0.180116 1.000000 0.079403 -0.173611 1.000000 0.071286 -0.165896 1.000000 0.062591 -0.162450 1.000000 0.054599 -0.158000 1.000000 0.046303 -0.157260 1.000000 0.038416 -0.155725 1.000000 0.030450 -0.157368 1.000000 0.022629 -0.158447 1.000000 0.014891 -0.162185 1.000000 0.007125 -0.165613 1.000000 -0.000466 -0.171204 1.000000 -0.008124 -0.176752 1.000000 -0.015598 -0.184004 1.000000 -0.023027 -0.191485 1.000000 -0.030365 -0.200257 1.000000 -0.037401 -0.209526 1.000000 -0.044563 -0.219704 1.000000 -0.051027 -0.230638 1.000000 -0.057991 -0.242108 1.000000 -0.063733 -0.254571 1.000000 -0.070507 -0.267175 1.000000 -0.075440 -0.280990 1.000000 -0.082051 -0.294496 1.000000 -0.086163 -0.309441 1.000000 -0.092639 -0.323547 1.000000 -0.095979 -0.339389 1.000000 -0.102308 -0.353763 1.000000 -0.104946 -0.370318 1.000000 -0.111011 -0.384680 1.000000 -0.112953 -0.401881 1.000000 -0.118422 -0.416083 1.000000 -0.119497 -0.433995 1.000000 -0.123686 -0.448028 1.000000 -0.123405 -0.466754 1.000000 -0.125156 -0.480626 1.000000 -0.122620 -0.500035 1.000000 -0.120292 -0.513495 1.000000 -0.114244 -0.532800 1.000000 -0.105968 -0.544950 1.000000 -0.095112 -0.562260 1.000000 -0.079446 -0.571233 1.000000 -0.063128 -0.583386 1.000000 -0.040091 -0.586432 1.000000 -0.019199 -0.589609 1.000000 0.008800 -0.584015 1.000000 0.031350 -0.575411 1.000000 0.059688 -0.560206 1.000000 0.079842 -0.539885 1.000000 0.103418 -0.516951 1.000000 0.117896 -0.488141 1.000000 0.133482 -0.461138 1.000000 0.141175 -0.428603 1.000000 0.148361 -0.401158 1.000000 0.150004 -0.369065 1.000000 0.150271 -0.343748 1.000000 0.147435 -0.314758 1.000000 0.142901 -0.292964 1.000000 0.137200 -0.268331 1.000000 0.129818 -0.250578 1.000000 0.122541 -0.230618 1.000000 0.113782 -0.216903 1.000000 
0.116922 -0.193384 1.000000 0.105673 -0.183402 1.000000 0.095656 -0.172147 1.000000 0.084823 -0.165770 1.000000 0.075098 -0.158301 1.000000 0.064885 -0.155063 1.000000 0.055514 -0.150864 1.000000 0.045918 -0.150356 1.000000 0.036872 -0.149006 1.000000 0.027786 -0.150877 1.000000 0.019015 -0.152036 1.000000 0.010296 -0.155990 1.000000 0.001771 -0.159388 1.000000 -0.006707 -0.165182 1.000000 -0.014963 -0.170607 1.000000 -0.023281 -0.178054 1.000000 -0.031189 -0.185353 1.000000 -0.039373 -0.194314 1.000000 -0.046810 -0.203380 1.000000 -0.054842 -0.213749 1.000000 -0.061659 -0.224494 1.000000 -0.069502 -0.236159 1.000000 -0.075557 -0.248473 1.000000 -0.083173 -0.261280 1.000000 -0.088359 -0.274998 1.000000 -0.095721 -0.288714 1.000000 -0.100001 -0.303616 1.000000 -0.107104 -0.317933 1.000000 -0.110517 -0.333791 1.000000 -0.117361 -0.348374 1.000000 -0.120007 -0.365034 1.000000 -0.126534 -0.379624 1.000000 -0.128490 -0.397108 1.000000 -0.134450 -0.411627 1.000000 -0.135614 -0.430173 1.000000 -0.140354 -0.444761 1.000000 -0.140227 -0.464729 1.000000 -0.142466 -0.479610 1.000000 -0.139969 -0.501157 1.000000 -0.137695 -0.516302 1.000000 -0.131151 -0.538820 1.000000 -0.121844 -0.553418 1.000000 -0.109340 -0.574853 1.000000 -0.090796 -0.586786 1.000000 -0.071118 -0.603236 1.000000 -0.042959 -0.608989 1.000000 -0.017047 -0.615319 1.000000 0.017659 -0.611057 1.000000 0.045680 -0.603134 1.000000 0.080494 -0.587123 1.000000 0.104661 -0.564536 1.000000 0.132651 -0.538790 1.000000 0.148801 -0.505754 1.000000 0.165990 -0.475105 1.000000 0.173298 -0.438026 1.000000 0.179787 -0.407224 1.000000 0.179752 -0.371379 1.000000 0.177979 -0.343540 1.000000 0.172871 -0.311963 1.000000 0.165771 -0.288549 1.000000 0.157664 -0.262407 1.000000 0.147694 -0.243770 1.000000 0.138119 -0.223112 1.000000 0.126989 -0.209029 1.000000 
0.131431 -0.180112 1.000000 0.117867 -0.170229 1.000000 0.106092 -0.159267 1.000000 0.093252 -0.153054 1.000000 0.081996 -0.145958 1.000000 0.070031 -0.142866 1.000000 0.059309 -0.139033 1.000000 0.048163 -0.138618 1.000000 0.037898 -0.137593 1.000000 0.027421 -0.139510 1.000000 0.017518 -0.140956 1.000000 0.007541 -0.144941 1.000000 -0.002064 -0.148610 1.000000 -0.011683 -0.154470 1.000000 -0.020992 -0.160178 1.000000 -0.030340 -0.167778 1.000000 -0.039283 -0.175393 1.000000 -0.048388 -0.184637 1.000000 -0.056831 -0.194057 1.000000 -0.065673 -0.204855 1.000000 -0.073433 -0.215978 1.000000 -0.081968 -0.228210 1.000000 -0.088852 -0.240901 1.000000 -0.097031 -0.254372 1.000000 -0.102873 -0.268441 1.000000 -0.110670 -0.282854 1.000000 -0.115381 -0.298059 1.000000 -0.122814 -0.313031 1.000000 -0.126419 -0.329132 1.000000 -0.133552 -0.344273 1.000000 -0.136196 -0.361145 1.000000 -0.143084 -0.376197 1.000000 -0.144956 -0.393965 1.000000 -0.151486 -0.408959 1.000000 -0.152632 -0.428092 1.000000 -0.158238 -0.443415 1.000000 -0.158258 -0.464642 1.000000 -0.161575 -0.480884 1.000000 -0.159320 -0.504807 1.000000 -0.157940 -0.522313 1.000000 -0.151374 -0.548651 1.000000 -0.141984 -0.566760 1.000000 -0.128497 -0.593308 1.000000 -0.107816 -0.609455 1.000000 -0.085345 -0.631222 1.000000 -0.052170 -0.640502 1.000000 -0.021271 -0.650227 1.000000 0.020987 -0.646742 1.000000 0.055288 -0.638247 1.000000 0.098297 -0.619188 1.000000 0.128171 -0.592042 1.000000 0.162216 -0.561091 1.000000 0.181562 -0.521481 1.000000 0.201227 -0.485635 1.000000 0.209034 -0.442400 1.000000 0.215020 -0.407611 1.000000 0.213673 -0.367257 1.000000 0.209695 -0.336868 1.000000 0.202420 -0.302550 1.000000 0.192462 -0.277757 1.000000 0.181978 -0.250254 1.000000 0.169119 -0.231032 1.000000 0.157285 -0.209913 1.000000 0.143514 -0.195707 1.000000 
0.142399 -0.167736 1.000000 0.126517 -0.158063 1.000000 0.112830 -0.147532 1.000000 0.098130 -0.141674 1.000000 0.085286 -0.135080 1.000000 0.071809 -0.132375 1.000000 0.059761 -0.128996 1.000000 0.047356 -0.128945 1.000000 0.035979 -0.128264 1.000000 0.024423 -0.130497 1.000000 0.013583 -0.132156 1.000000 0.002643 -0.136409 1.000000 -0.007756 -0.140164 1.000000 -0.018274 -0.146254 1.000000 -0.028269 -0.151950 1.000000 -0.038494 -0.159762 1.000000 -0.048045 -0.167304 1.000000 -0.058033 -0.176767 1.000000 -0.067024 -0.186095 1.000000 -0.076760 -0.197146 1.000000 -0.085010 -0.208199 1.000000 -0.094424 -0.220741 1.000000 -0.101716 -0.233410 1.000000 -0.110712 -0.247259 1.000000 -0.116839 -0.261358 1.000000 -0.125340 -0.276206 1.000000 -0.130177 -0.291472 1.000000 -0.138179 -0.306895 1.000000 -0.141759 -0.323053 1.000000 -0.149375 -0.338597 1.000000 -0.151930 -0.355502 1.000000 -0.159355 -0.370863 1.000000 -0.161253 -0.388706 1.000000 -0.168577 -0.403952 1.000000 -0.170072 -0.423422 1.000000 -0.176899 -0.439135 1.000000 -0.177701 -0.461392 1.000000 -0.182622 -0.478548 1.000000 -0.181409 -0.504792 1.000000 -0.181522 -0.524248 1.000000 -0.175617 -0.554776 1.000000 -0.166479 -0.576294 1.000000 -0.152063 -0.609021 1.000000 -0.128692 -0.629938 1.000000 -0.102194 -0.658881 1.000000 -0.061965 -0.673064 1.000000 -0.023306 -0.688476 1.000000 0.029629 -0.687616 1.000000 0.073230 -0.680445 1.000000 0.126707 -0.660006 1.000000 0.162749 -0.628455 1.000000 0.203240 -0.592181 1.000000 0.224230 -0.544764 1.000000 0.245097 -0.502578 1.000000 0.251292 -0.451820 1.000000 0.254945 -0.411863 1.000000 0.250474 -0.366053 1.000000 0.242694 -0.332287 1.000000 0.231970 -0.294731 1.000000 0.218069 -0.268107 1.000000 0.204384 -0.239063 1.000000 0.188033 -0.219076 1.000000 0.173441 -0.197507 1.000000 0.156788 -0.183175 1.000000 
0.156548 -0.149841 1.000000 0.138073 -0.140659 1.000000 0.122485 -0.130880 1.000000 0.105706 -0.125510 1.000000 0.091298 -0.119636 1.000000 0.076116 -0.117340 1.000000 0.062741 -0.114580 1.000000 0.048896 -0.114837 1.000000 0.036346 -0.114660 1.000000 0.023530 -0.117114 1.000000 0.011607 -0.119177 1.000000 -0.000466 -0.123601 1.000000 -0.011909 -0.127692 1.000000 -0.023468 -0.133957 1.000000 -0.034499 -0.139958 1.000000 -0.045694 -0.148002 1.000000 -0.056287 -0.155854 1.000000 -0.067179 -0.165658 1.000000 -0.077209 -0.175330 1.000000 -0.087777 -0.186869 1.000000 -0.097027 -0.198314 1.000000 -0.107180 -0.211504 1.000000 -0.115369 -0.224613 1.000000 -0.124980 -0.239249 1.000000 -0.131819 -0.253813 1.000000 -0.140786 -0.269516 1.000000 -0.146070 -0.285219 1.000000 -0.154397 -0.301449 1.000000 -0.158121 -0.317936 1.000000 -0.166003 -0.334102 1.000000 -0.168461 -0.351165 1.000000 -0.176288 -0.366874 1.000000 -0.178045 -0.384742 1.000000 -0.186202 -0.400140 1.000000 -0.187817 -0.419770 1.000000 -0.196203 -0.435785 1.000000 -0.197675 -0.458919 1.000000 -0.204965 -0.477177 1.000000 -0.205032 -0.505906 1.000000 -0.207900 -0.528104 1.000000 -0.203444 -0.563694 1.000000 -0.196191 -0.590315 1.000000 -0.182177 -0.631095 1.000000 -0.157637 -0.659323 1.000000 -0.128508 -0.697949 1.000000 -0.081746 -0.719391 1.000000 -0.035837 -0.741821 1.000000 0.029029 -0.743278 1.000000 0.082915 -0.735325 1.000000 0.150330 -0.708707 1.000000 0.195987 -0.668575 1.000000 0.245961 -0.622572 1.000000 0.271114 -0.563338 1.000000 0.294210 -0.512697 1.000000 0.299702 -0.452248 1.000000 0.300809 -0.406794 1.000000 0.293226 -0.355007 1.000000 0.281030 -0.318363 1.000000 0.266594 -0.277924 1.000000 0.248138 -0.250171 1.000000 0.231011 -0.220219 1.000000 0.210680 -0.200089 1.000000 0.193190 -0.178668 1.000000 0.173289 -0.164664 1.000000 
0.166403 -0.132520 1.000000 0.145476 -0.124000 1.000000 0.127978 -0.115164 1.000000 0.109372 -0.110488 1.000000 0.093455 -0.105490 1.000000 0.076863 -0.103819 1.000000 0.062264 -0.101776 1.000000 0.047276 -0.102550 1.000000 0.033701 -0.102899 1.000000 0.019905 -0.105758 1.000000 0.007096 -0.108160 1.000000 -0.005873 -0.112892 1.000000 -0.018112 -0.117162 1.000000 -0.030540 -0.123664 1.000000 -0.042314 -0.129724 1.000000 -0.054391 -0.137974 1.000000 -0.065700 -0.145818 1.000000 -0.077508 -0.155845 1.000000 -0.088234 -0.165498 1.000000 -0.099743 -0.177328 1.000000 -0.109644 -0.188797 1.000000 -0.120723 -0.202399 1.000000 -0.129459 -0.215610 1.000000 -0.139912 -0.230808 1.000000 -0.147105 -0.245552 1.000000 -0.156747 -0.261956 1.000000 -0.162109 -0.277862 1.000000 -0.170898 -0.294844 1.000000 -0.174411 -0.311447 1.000000 -0.182606 -0.328256 1.000000 -0.184702 -0.345218 1.000000 -0.192933 -0.361280 1.000000 -0.194517 -0.378792 1.000000 -0.203604 -0.394179 1.000000 -0.205718 -0.413420 1.000000 -0.216045 -0.429277 1.000000 -0.219097 -0.452630 1.000000 -0.229596 -0.471192 1.000000 -0.232350 -0.501857 1.000000 -0.239279 -0.525835 1.000000 -0.237859 -0.566485 1.000000 -0.233823 -0.597562 1.000000 -0.221125 -0.647576 1.000000 -0.195481 -0.683607 1.000000 -0.162332 -0.734772 1.000000 -0.105818 -0.765735 1.000000 -0.047244 -0.799252 1.000000 0.036101 -0.806368 1.000000 0.107784 -0.801745 1.000000 0.193488 -0.773078 1.000000 0.248853 -0.724087 1.000000 0.308554 -0.667308 1.000000 0.334016 -0.593013 1.000000 0.356241 -0.531167 1.000000 0.357122 -0.458419 1.000000 0.352211 -0.405387 1.000000 0.338867 -0.346275 1.000000 0.319785 -0.305655 1.000000 0.300147 -0.261838 1.000000 0.275774 -0.232523 1.000000 0.254462 -0.201605 1.000000 0.229582 -0.181256 1.000000 0.208865 -0.160116 1.000000 0.185613 -0.146533 1.000000 
0.179086 -0.109705 1.000000 0.155431 -0.102234 1.000000 0.136000 -0.094776 1.000000 0.115381 -0.090987 1.000000 0.097969 -0.087127 1.000000 0.079831 -0.086148 1.000000 0.064012 -0.084993 1.000000 0.047773 -0.086275 1.000000 0.033138 -0.087289 1.000000 0.018269 -0.090509 1.000000 0.004474 -0.093399 1.000000 -0.009467 -0.098394 1.000000 -0.022680 -0.103026 1.000000 -0.036030 -0.109754 1.000000 -0.048809 -0.116106 1.000000 -0.061789 -0.124616 1.000000 -0.074156 -0.132737 1.000000 -0.086859 -0.143125 1.000000 -0.098692 -0.153095 1.000000 -0.111077 -0.165459 1.000000 -0.122097 -0.177333 1.000000 -0.133994 -0.191689 1.000000 -0.143778 -0.205425 1.000000 -0.154924 -0.221603 1.000000 -0.162966 -0.236978 1.000000 -0.173098 -0.254513 1.000000 -0.178957 -0.271067 1.000000 -0.187984 -0.289147 1.000000 -0.191531 -0.306229 1.000000 -0.199777 -0.323812 1.000000 -0.201484 -0.340838 1.000000 -0.209864 -0.357058 1.000000 -0.210944 -0.374072 1.000000 -0.220832 -0.388939 1.000000 -0.222915 -0.407329 1.000000 -0.235411 -0.422406 1.000000 -0.239594 -0.445368 1.000000 -0.254182 -0.463923 1.000000 -0.259690 -0.496223 1.000000 -0.272490 -0.522595 1.000000 -0.275210 -0.569151 1.000000 -0.277193 -0.607049 1.000000 -0.268292 -0.669437 1.000000 -0.244693 -0.718116 1.000000 -0.210717 -0.787613 1.000000 -0.146120 -0.834478 1.000000 -0.076495 -0.883739 1.000000 0.026594 -0.898307 1.000000 0.116259 -0.892711 1.000000 0.228128 -0.849776 1.000000 0.301679 -0.783641 1.000000 0.377164 -0.707734 1.000000 0.407061 -0.611026 1.000000 0.428871 -0.535802 1.000000 0.425369 -0.448217 1.000000 0.412990 -0.388539 1.000000 0.392925 -0.322580 1.000000 0.365485 -0.279644 1.000000 0.339726 -0.233913 1.000000 0.308380 -0.204486 1.000000 0.282286 -0.174026 1.000000 0.252174 -0.154492 1.000000 0.227920 -0.134700 1.000000 0.200887 -0.122203 1.000000 