# vtk DataFile Version 2.0
Comment goes here
ASCII

DATASET STRUCTURED_POINTS
DIMENSIONS    64   64   1

ORIGIN    0.000   0.000   0.000
SPACING   0.0156250.015625   1.000

POINT_DATA   4096
VECTORS u double

0.006444 -0.214107 1.000000 0.015892 -0.208850 1.000000 0.025341 -0.204145 1.000000 0.034531 -0.202487 1.000000 0.043449 -0.201630 1.000000 0.051746 -0.203804 1.000000 0.059353 -0.206956 1.000000 0.065881 -0.212886 1.000000 0.071218 -0.219776 1.000000 0.075018 -0.228827 1.000000 0.077233 -0.238536 1.000000 0.077647 -0.249423 1.000000 0.076425 -0.260440 1.000000 0.073500 -0.271496 1.000000 0.069373 -0.282140 1.000000 0.063999 -0.291870 1.000000 0.058277 -0.300864 1.000000 0.051965 -0.308473 1.000000 0.046341 -0.315392 1.000000 0.040753 -0.321064 1.000000 0.036741 -0.326518 1.000000 0.033127 -0.331399 1.000000 0.031489 -0.336869 1.000000 0.030142 -0.342675 1.000000 0.030487 -0.349898 1.000000 0.030520 -0.358106 1.000000 0.031389 -0.368151 1.000000 0.031121 -0.379133 1.000000 0.030703 -0.391719 1.000000 0.028567 -0.404455 1.000000 0.025646 -0.418089 1.000000 0.020990 -0.430736 1.000000 0.015453 -0.443541 1.000000 0.008685 -0.454348 1.000000 0.001322 -0.464868 1.000000 -0.006519 -0.472764 1.000000 -0.014579 -0.480274 1.000000 -0.022410 -0.484924 1.000000 -0.030215 -0.489286 1.000000 -0.037302 -0.490804 1.000000 -0.044328 -0.492112 1.000000 -0.050381 -0.490681 1.000000 -0.056480 -0.488931 1.000000 -0.061471 -0.484549 1.000000 -0.066599 -0.479537 1.000000 -0.070476 -0.472055 1.000000 -0.074451 -0.463567 1.000000 -0.076980 -0.452942 1.000000 -0.079438 -0.441049 1.000000 -0.080265 -0.427599 1.000000 -0.080813 -0.412827 1.000000 -0.079649 -0.397286 1.000000 -0.078045 -0.380564 1.000000 -0.074805 -0.363953 1.000000 -0.071058 -0.346422 1.000000 -0.065896 -0.329835 1.000000 -0.060249 -0.312625 1.000000 -0.053495 -0.297052 1.000000 -0.046325 -0.281126 1.000000 -0.038372 -0.267358 1.000000 -0.030084 -0.253468 1.000000 -0.021305 -0.242098 1.000000 -0.012271 -0.230818 1.000000 -0.002993 -0.222309 1.000000 
0.012941 -0.223156 1.000000 0.020754 -0.217889 1.000000 0.028501 -0.213063 1.000000 0.035960 -0.211161 1.000000 0.043118 -0.209881 1.000000 0.049702 -0.211482 1.000000 0.055646 -0.213798 1.000000 0.060663 -0.218760 1.000000 0.064666 -0.224359 1.000000 0.067385 -0.232102 1.000000 0.068834 -0.240187 1.000000 0.068766 -0.249651 1.000000 0.067470 -0.259012 1.000000 0.064662 -0.268870 1.000000 0.061060 -0.278210 1.000000 0.056200 -0.287277 1.000000 0.051304 -0.295628 1.000000 0.045568 -0.303262 1.000000 0.040672 -0.310311 1.000000 0.035368 -0.316626 1.000000 0.031630 -0.322823 1.000000 0.027748 -0.328657 1.000000 0.025752 -0.335064 1.000000 0.023547 -0.341645 1.000000 0.023015 -0.349477 1.000000 0.021860 -0.357835 1.000000 0.021727 -0.367803 1.000000 0.020410 -0.378162 1.000000 0.019353 -0.390014 1.000000 0.016739 -0.401604 1.000000 0.013857 -0.414221 1.000000 0.009462 -0.425666 1.000000 0.004647 -0.437614 1.000000 -0.001235 -0.447557 1.000000 -0.007415 -0.457655 1.000000 -0.014003 -0.465187 1.000000 -0.020694 -0.472744 1.000000 -0.027131 -0.477471 1.000000 -0.033568 -0.482215 1.000000 -0.039227 -0.484082 1.000000 -0.044933 -0.485926 1.000000 -0.049508 -0.484957 1.000000 -0.054276 -0.483783 1.000000 -0.057678 -0.479919 1.000000 -0.061414 -0.475524 1.000000 -0.063596 -0.468651 1.000000 -0.066155 -0.460880 1.000000 -0.067005 -0.451011 1.000000 -0.068164 -0.439973 1.000000 -0.067528 -0.427425 1.000000 -0.067072 -0.413611 1.000000 -0.064854 -0.399048 1.000000 -0.062682 -0.383302 1.000000 -0.058919 -0.367640 1.000000 -0.055101 -0.351003 1.000000 -0.049970 -0.335246 1.000000 -0.044727 -0.318776 1.000000 -0.038501 -0.303861 1.000000 -0.032138 -0.288498 1.000000 -0.025116 -0.275207 1.000000 -0.017952 -0.261711 1.000000 -0.010411 -0.250656 1.000000 -0.002746 -0.239618 1.000000 0.005065 -0.231271 1.000000 
0.019886 -0.229797 1.000000 0.026100 -0.224411 1.000000 0.032259 -0.219351 1.000000 0.038003 -0.217104 1.000000 0.043544 -0.215372 1.000000 0.048402 -0.216332 1.000000 0.052827 -0.217917 1.000000 0.056269 -0.221906 1.000000 0.059022 -0.226498 1.000000 0.060516 -0.232995 1.000000 0.061151 -0.239917 1.000000 0.060374 -0.248060 1.000000 0.058776 -0.256336 1.000000 0.055818 -0.265085 1.000000 0.052356 -0.273677 1.000000 0.047784 -0.282114 1.000000 0.043264 -0.290232 1.000000 0.037998 -0.297842 1.000000 0.033438 -0.305193 1.000000 0.028476 -0.312022 1.000000 0.024775 -0.318897 1.000000 0.020856 -0.325521 1.000000 0.018468 -0.332668 1.000000 0.015783 -0.339937 1.000000 0.014512 -0.348210 1.000000 0.012613 -0.356818 1.000000 0.011691 -0.366701 1.000000 0.009718 -0.376760 1.000000 0.008188 -0.388048 1.000000 0.005336 -0.398959 1.000000 0.002539 -0.410813 1.000000 -0.001530 -0.421526 1.000000 -0.005686 -0.432844 1.000000 -0.010745 -0.442286 1.000000 -0.015846 -0.452100 1.000000 -0.021292 -0.459486 1.000000 -0.026684 -0.467145 1.000000 -0.031828 -0.472050 1.000000 -0.036891 -0.477189 1.000000 -0.041192 -0.479439 1.000000 -0.045499 -0.481832 1.000000 -0.048651 -0.481338 1.000000 -0.051978 -0.480760 1.000000 -0.053870 -0.477412 1.000000 -0.056111 -0.473619 1.000000 -0.056720 -0.467314 1.000000 -0.057790 -0.460158 1.000000 -0.057111 -0.450933 1.000000 -0.056920 -0.440525 1.000000 -0.054965 -0.428692 1.000000 -0.053457 -0.415500 1.000000 -0.050289 -0.401675 1.000000 -0.047493 -0.386499 1.000000 -0.043253 -0.371534 1.000000 -0.039296 -0.355371 1.000000 -0.034187 -0.340209 1.000000 -0.029275 -0.324094 1.000000 -0.023531 -0.309642 1.000000 -0.017903 -0.294511 1.000000 -0.011749 -0.281544 1.000000 -0.005642 -0.268173 1.000000 0.000724 -0.257305 1.000000 0.007091 -0.246294 1.000000 0.013485 -0.237995 1.000000 
0.026558 -0.235771 1.000000 0.031266 -0.230262 1.000000 0.035915 -0.224967 1.000000 0.040103 -0.222445 1.000000 0.044126 -0.220280 1.000000 0.047481 -0.220765 1.000000 0.050501 -0.221665 1.000000 0.052624 -0.224955 1.000000 0.054233 -0.228607 1.000000 0.054730 -0.234231 1.000000 0.054620 -0.240045 1.000000 0.053257 -0.247277 1.000000 0.051376 -0.254456 1.000000 0.048233 -0.262450 1.000000 0.044885 -0.270176 1.000000 0.040403 -0.278185 1.000000 0.036212 -0.285842 1.000000 0.031105 -0.293436 1.000000 0.026851 -0.300788 1.000000 0.021897 -0.307963 1.000000 0.018266 -0.315203 1.000000 0.014052 -0.322349 1.000000 0.011397 -0.329991 1.000000 0.008099 -0.337689 1.000000 0.006296 -0.346307 1.000000 0.003622 -0.355014 1.000000 0.002132 -0.364907 1.000000 -0.000509 -0.374659 1.000000 -0.002366 -0.385632 1.000000 -0.005526 -0.395956 1.000000 -0.008224 -0.407354 1.000000 -0.012127 -0.417441 1.000000 -0.015732 -0.428399 1.000000 -0.020183 -0.437397 1.000000 -0.024382 -0.447109 1.000000 -0.028889 -0.454349 1.000000 -0.033170 -0.462207 1.000000 -0.037154 -0.467264 1.000000 -0.041002 -0.472851 1.000000 -0.043978 -0.475475 1.000000 -0.047007 -0.478467 1.000000 -0.048677 -0.478478 1.000000 -0.050663 -0.478564 1.000000 -0.050920 -0.475786 1.000000 -0.051768 -0.472674 1.000000 -0.050648 -0.466972 1.000000 -0.050339 -0.460489 1.000000 -0.047969 -0.451881 1.000000 -0.046535 -0.442119 1.000000 -0.043109 -0.430887 1.000000 -0.040638 -0.418286 1.000000 -0.036393 -0.405011 1.000000 -0.033027 -0.390339 1.000000 -0.028214 -0.375837 1.000000 -0.024136 -0.360069 1.000000 -0.018987 -0.345267 1.000000 -0.014393 -0.329432 1.000000 -0.009098 -0.315233 1.000000 -0.004173 -0.300279 1.000000 0.001128 -0.287469 1.000000 0.006223 -0.274184 1.000000 0.011430 -0.263388 1.000000 0.016550 -0.252379 1.000000 0.021571 -0.244066 1.000000 
0.033709 -0.239492 1.000000 0.036941 -0.233767 1.000000 0.040135 -0.228188 1.000000 0.042781 -0.225315 1.000000 0.045354 -0.222750 1.000000 0.047194 -0.222707 1.000000 0.048871 -0.223060 1.000000 0.049623 -0.225638 1.000000 0.050107 -0.228604 1.000000 0.049501 -0.233382 1.000000 0.048578 -0.238445 1.000000 0.046473 -0.244816 1.000000 0.044131 -0.251312 1.000000 0.040622 -0.258594 1.000000 0.037118 -0.265847 1.000000 0.032569 -0.273442 1.000000 0.028403 -0.280934 1.000000 0.023371 -0.288480 1.000000 0.019156 -0.295985 1.000000 0.014238 -0.303438 1.000000 0.010512 -0.311052 1.000000 0.006154 -0.318652 1.000000 0.003199 -0.326716 1.000000 -0.000454 -0.334837 1.000000 -0.002708 -0.343734 1.000000 -0.005845 -0.352653 1.000000 -0.007773 -0.362570 1.000000 -0.010792 -0.372262 1.000000 -0.012873 -0.383030 1.000000 -0.016144 -0.393101 1.000000 -0.018712 -0.404212 1.000000 -0.022363 -0.414018 1.000000 -0.025461 -0.424789 1.000000 -0.029308 -0.433636 1.000000 -0.032689 -0.443394 1.000000 -0.036317 -0.450698 1.000000 -0.039561 -0.458880 1.000000 -0.042467 -0.464218 1.000000 -0.045133 -0.470365 1.000000 -0.046871 -0.473435 1.000000 -0.048602 -0.477133 1.000000 -0.048884 -0.477682 1.000000 -0.049463 -0.478517 1.000000 -0.048194 -0.476306 1.000000 -0.047550 -0.473892 1.000000 -0.044821 -0.468744 1.000000 -0.043013 -0.462837 1.000000 -0.039071 -0.454737 1.000000 -0.036264 -0.445385 1.000000 -0.031465 -0.434589 1.000000 -0.027901 -0.422216 1.000000 -0.022638 -0.409286 1.000000 -0.018586 -0.394678 1.000000 -0.013215 -0.380425 1.000000 -0.008923 -0.364597 1.000000 -0.003711 -0.349952 1.000000 0.000630 -0.333982 1.000000 0.005524 -0.319862 1.000000 0.009788 -0.304738 1.000000 0.014294 -0.291940 1.000000 0.018404 -0.278475 1.000000 0.022508 -0.267632 1.000000 0.026406 -0.256435 1.000000 0.030099 -0.248003 1.000000 
0.040804 -0.242613 1.000000 0.042589 -0.236688 1.000000 0.044399 -0.230806 1.000000 0.045590 -0.227664 1.000000 0.046801 -0.224694 1.000000 0.047265 -0.224281 1.000000 0.047693 -0.224094 1.000000 0.047237 -0.226191 1.000000 0.046681 -0.228485 1.000000 0.045114 -0.232702 1.000000 0.043438 -0.237017 1.000000 0.040665 -0.242829 1.000000 0.037884 -0.248606 1.000000 0.033985 -0.255437 1.000000 0.030313 -0.262123 1.000000 0.025570 -0.269470 1.000000 0.021398 -0.276644 1.000000 0.016244 -0.284189 1.000000 0.012046 -0.291654 1.000000 0.006947 -0.299319 1.000000 0.003139 -0.307118 1.000000 -0.001546 -0.315037 1.000000 -0.004733 -0.323384 1.000000 -0.008866 -0.331783 1.000000 -0.011459 -0.340916 1.000000 -0.015140 -0.349949 1.000000 -0.017389 -0.359960 1.000000 -0.020867 -0.369559 1.000000 -0.023096 -0.380281 1.000000 -0.026598 -0.390117 1.000000 -0.029035 -0.401135 1.000000 -0.032609 -0.410692 1.000000 -0.035269 -0.421453 1.000000 -0.038723 -0.430169 1.000000 -0.041396 -0.440100 1.000000 -0.044343 -0.447476 1.000000 -0.046676 -0.456058 1.000000 -0.048640 -0.461693 1.000000 -0.050239 -0.468447 1.000000 -0.050782 -0.472006 1.000000 -0.051309 -0.476454 1.000000 -0.050134 -0.477616 1.000000 -0.049384 -0.479254 1.000000 -0.046411 -0.477699 1.000000 -0.044343 -0.476047 1.000000 -0.039747 -0.471509 1.000000 -0.036500 -0.466239 1.000000 -0.030692 -0.458630 1.000000 -0.026566 -0.449725 1.000000 -0.020117 -0.439250 1.000000 -0.015505 -0.427114 1.000000 -0.009011 -0.414326 1.000000 -0.004306 -0.399761 1.000000 0.001745 -0.385500 1.000000 0.006233 -0.369573 1.000000 0.011543 -0.354820 1.000000 0.015629 -0.338667 1.000000 0.020094 -0.324391 1.000000 0.023709 -0.309050 1.000000 0.027363 -0.296085 1.000000 0.030513 -0.282398 1.000000 0.033460 -0.271390 1.000000 0.036174 -0.259970 1.000000 0.038517 -0.251369 1.000000 
0.048394 -0.243564 1.000000 0.048759 -0.237363 1.000000 0.049176 -0.231188 1.000000 0.048918 -0.227716 1.000000 0.048771 -0.224425 1.000000 0.047842 -0.223599 1.000000 0.047023 -0.223032 1.000000 0.045312 -0.224627 1.000000 0.043692 -0.226481 1.000000 0.041082 -0.230139 1.000000 0.038580 -0.233996 1.000000 0.035025 -0.239262 1.000000 0.031671 -0.244632 1.000000 0.027255 -0.251023 1.000000 0.023231 -0.257433 1.000000 0.018184 -0.264527 1.000000 0.013806 -0.271609 1.000000 0.008467 -0.279128 1.000000 0.004114 -0.286687 1.000000 -0.001156 -0.294531 1.000000 -0.005151 -0.302558 1.000000 -0.010069 -0.310779 1.000000 -0.013512 -0.319396 1.000000 -0.017954 -0.328110 1.000000 -0.020841 -0.337460 1.000000 -0.024852 -0.346724 1.000000 -0.027343 -0.356844 1.000000 -0.031069 -0.366555 1.000000 -0.033385 -0.377299 1.000000 -0.036951 -0.387162 1.000000 -0.039244 -0.398200 1.000000 -0.042640 -0.407785 1.000000 -0.044904 -0.418675 1.000000 -0.047929 -0.427508 1.000000 -0.049977 -0.437774 1.000000 -0.052261 -0.445418 1.000000 -0.053774 -0.454583 1.000000 -0.054858 -0.460655 1.000000 -0.055458 -0.468224 1.000000 -0.054897 -0.472364 1.000000 -0.054242 -0.477781 1.000000 -0.051724 -0.479607 1.000000 -0.049597 -0.482240 1.000000 -0.045047 -0.481347 1.000000 -0.041432 -0.480556 1.000000 -0.035092 -0.476586 1.000000 -0.030220 -0.471892 1.000000 -0.022648 -0.464671 1.000000 -0.016978 -0.455960 1.000000 -0.008944 -0.445650 1.000000 -0.003064 -0.433323 1.000000 0.004636 -0.420485 1.000000 0.010168 -0.405434 1.000000 0.016913 -0.390964 1.000000 0.021703 -0.374396 1.000000 0.027152 -0.359349 1.000000 0.031024 -0.342533 1.000000 0.035115 -0.327941 1.000000 0.038073 -0.312007 1.000000 0.040933 -0.298744 1.000000 0.043089 -0.284572 1.000000 0.044931 -0.273293 1.000000 0.046425 -0.261491 1.000000 0.047457 -0.252632 1.000000 
0.056075 -0.243914 1.000000 0.054971 -0.237470 1.000000 0.054055 -0.230965 1.000000 0.052366 -0.227259 1.000000 0.050935 -0.223618 1.000000 0.048683 -0.222534 1.000000 0.046696 -0.221563 1.000000 0.043826 -0.222860 1.000000 0.041215 -0.224255 1.000000 0.037655 -0.227590 1.000000 0.034379 -0.230960 1.000000 0.030097 -0.235921 1.000000 0.026196 -0.240835 1.000000 0.021258 -0.246997 1.000000 0.016881 -0.253052 1.000000 0.011463 -0.260045 1.000000 0.006860 -0.266928 1.000000 0.001222 -0.274496 1.000000 -0.003310 -0.282031 1.000000 -0.008885 -0.290054 1.000000 -0.013078 -0.298205 1.000000 -0.018360 -0.306676 1.000000 -0.022044 -0.315499 1.000000 -0.026911 -0.324454 1.000000 -0.030057 -0.334019 1.000000 -0.034507 -0.343447 1.000000 -0.037202 -0.353743 1.000000 -0.041303 -0.363517 1.000000 -0.043685 -0.374399 1.000000 -0.047482 -0.384257 1.000000 -0.049641 -0.395446 1.000000 -0.053069 -0.405033 1.000000 -0.054980 -0.416165 1.000000 -0.057811 -0.425095 1.000000 -0.059300 -0.435767 1.000000 -0.061147 -0.443679 1.000000 -0.061913 -0.453461 1.000000 -0.062283 -0.460009 1.000000 -0.061955 -0.468408 1.000000 -0.060348 -0.473222 1.000000 -0.058569 -0.479627 1.000000 -0.054612 -0.482262 1.000000 -0.051151 -0.485931 1.000000 -0.044758 -0.485864 1.000000 -0.039619 -0.486002 1.000000 -0.031121 -0.482721 1.000000 -0.024629 -0.478683 1.000000 -0.014805 -0.471872 1.000000 -0.007591 -0.463429 1.000000 0.002477 -0.453165 1.000000 0.009618 -0.440694 1.000000 0.018840 -0.427559 1.000000 0.025179 -0.412038 1.000000 0.032755 -0.397035 1.000000 0.037821 -0.379812 1.000000 0.043386 -0.364141 1.000000 0.047019 -0.346629 1.000000 0.050607 -0.331439 1.000000 0.052896 -0.314868 1.000000 0.054792 -0.301101 1.000000 0.055958 -0.286396 1.000000 0.056538 -0.274726 1.000000 0.056834 -0.262496 1.000000 0.056446 -0.253339 1.000000 
0.064265 -0.242089 1.000000 0.061712 -0.235343 1.000000 0.059390 -0.228584 1.000000 0.056272 -0.224596 1.000000 0.053505 -0.220742 1.000000 0.049908 -0.219360 1.000000 0.046710 -0.218175 1.000000 0.042638 -0.219146 1.000000 0.038984 -0.220310 1.000000 0.034404 -0.223302 1.000000 0.030278 -0.226438 1.000000 0.025182 -0.231078 1.000000 0.020629 -0.235793 1.000000 0.015073 -0.241708 1.000000 0.010217 -0.247638 1.000000 0.004341 -0.254506 1.000000 -0.000613 -0.261368 1.000000 -0.006607 -0.268958 1.000000 -0.011420 -0.276580 1.000000 -0.017309 -0.284763 1.000000 -0.021755 -0.293084 1.000000 -0.027350 -0.301813 1.000000 -0.031279 -0.310845 1.000000 -0.036464 -0.320097 1.000000 -0.039826 -0.329864 1.000000 -0.044568 -0.339578 1.000000 -0.047406 -0.350048 1.000000 -0.051718 -0.360073 1.000000 -0.054118 -0.371120 1.000000 -0.057993 -0.381206 1.000000 -0.060014 -0.392613 1.000000 -0.063353 -0.402446 1.000000 -0.064962 -0.413933 1.000000 -0.067527 -0.423188 1.000000 -0.068559 -0.434438 1.000000 -0.069953 -0.442805 1.000000 -0.070105 -0.453447 1.000000 -0.069805 -0.460613 1.000000 -0.068676 -0.470160 1.000000 -0.066121 -0.475750 1.000000 -0.063292 -0.483516 1.000000 -0.058036 -0.487025 1.000000 -0.053212 -0.492094 1.000000 -0.045132 -0.492879 1.000000 -0.038308 -0.494193 1.000000 -0.027793 -0.491576 1.000000 -0.019392 -0.488208 1.000000 -0.007414 -0.481709 1.000000 0.001707 -0.473243 1.000000 0.013769 -0.462859 1.000000 0.022521 -0.449686 1.000000 0.033276 -0.436046 1.000000 0.040675 -0.419349 1.000000 0.049126 -0.403605 1.000000 0.054584 -0.385027 1.000000 0.060327 -0.368547 1.000000 0.063717 -0.349754 1.000000 0.066871 -0.333818 1.000000 0.068405 -0.316192 1.000000 0.069402 -0.301807 1.000000 0.069461 -0.286318 1.000000 0.068831 -0.274169 1.000000 0.067812 -0.261399 1.000000 0.066040 -0.251873 1.000000 
0.072606 -0.239586 1.000000 0.068478 -0.232596 1.000000 0.064804 -0.225525 1.000000 0.060211 -0.221373 1.000000 0.056174 -0.217255 1.000000 0.051255 -0.215740 1.000000 0.046917 -0.214293 1.000000 0.041700 -0.215134 1.000000 0.037069 -0.216021 1.000000 0.031538 -0.218885 1.000000 0.026615 -0.221738 1.000000 0.020757 -0.226271 1.000000 0.015581 -0.230726 1.000000 0.009429 -0.236586 1.000000 0.004099 -0.242321 1.000000 -0.002251 -0.249214 1.000000 -0.007577 -0.255980 1.000000 -0.013976 -0.263690 1.000000 -0.019103 -0.271330 1.000000 -0.025379 -0.279719 1.000000 -0.030118 -0.288164 1.000000 -0.036114 -0.297152 1.000000 -0.040323 -0.306385 1.000000 -0.045926 -0.315906 1.000000 -0.049534 -0.325915 1.000000 -0.054689 -0.335866 1.000000 -0.057695 -0.346593 1.000000 -0.062373 -0.356805 1.000000 -0.064816 -0.368124 1.000000 -0.068973 -0.378362 1.000000 -0.070880 -0.390086 1.000000 -0.074388 -0.400084 1.000000 -0.075721 -0.411991 1.000000 -0.078314 -0.421499 1.000000 -0.078916 -0.433342 1.000000 -0.080154 -0.442133 1.000000 -0.079723 -0.453609 1.000000 -0.078995 -0.461438 1.000000 -0.077096 -0.472092 1.000000 -0.073705 -0.478606 1.000000 -0.069851 -0.487711 1.000000 -0.063193 -0.492341 1.000000 -0.057012 -0.498835 1.000000 -0.046863 -0.500768 1.000000 -0.038325 -0.503340 1.000000 -0.025145 -0.501637 1.000000 -0.014772 -0.499062 1.000000 0.000150 -0.492971 1.000000 0.011249 -0.484613 1.000000 0.026026 -0.473979 1.000000 0.036421 -0.460201 1.000000 0.049170 -0.445713 1.000000 0.057612 -0.427888 1.000000 0.067073 -0.410944 1.000000 0.072872 -0.391014 1.000000 0.078656 -0.373274 1.000000 0.081742 -0.353173 1.000000 0.084169 -0.336128 1.000000 0.084903 -0.317399 1.000000 0.084665 -0.302157 1.000000 0.083594 -0.285826 1.000000 0.081458 -0.273077 1.000000 0.079129 -0.259705 1.000000 0.075756 -0.249791 1.000000 
0.081461 -0.234811 1.000000 0.075773 -0.227540 1.000000 0.070614 -0.220317 1.000000 0.064544 -0.215967 1.000000 0.059140 -0.211785 1.000000 0.052872 -0.210103 1.000000 0.047319 -0.208621 1.000000 0.040914 -0.209298 1.000000 0.035236 -0.210148 1.000000 0.028691 -0.212848 1.000000 0.022897 -0.215658 1.000000 0.016199 -0.220044 1.000000 0.010319 -0.224465 1.000000 0.003485 -0.230226 1.000000 -0.002404 -0.235957 1.000000 -0.009311 -0.242830 1.000000 -0.015082 -0.249643 1.000000 -0.021951 -0.257432 1.000000 -0.027443 -0.265177 1.000000 -0.034138 -0.273748 1.000000 -0.039184 -0.282349 1.000000 -0.045568 -0.291608 1.000000 -0.050030 -0.301032 1.000000 -0.055992 -0.310886 1.000000 -0.059784 -0.321101 1.000000 -0.065246 -0.331418 1.000000 -0.068344 -0.342364 1.000000 -0.073249 -0.352952 1.000000 -0.075675 -0.364521 1.000000 -0.079954 -0.375141 1.000000 -0.081737 -0.387198 1.000000 -0.085258 -0.397605 1.000000 -0.086378 -0.410007 1.000000 -0.088878 -0.419993 1.000000 -0.089194 -0.432598 1.000000 -0.090218 -0.441998 1.000000 -0.089413 -0.454605 1.000000 -0.088287 -0.463240 1.000000 -0.085846 -0.475450 1.000000 -0.081739 -0.482995 1.000000 -0.077032 -0.494028 1.000000 -0.069160 -0.499864 1.000000 -0.061645 -0.508424 1.000000 -0.049639 -0.511566 1.000000 -0.039182 -0.515911 1.000000 -0.023518 -0.515129 1.000000 -0.010732 -0.513502 1.000000 0.007031 -0.507730 1.000000 0.020693 -0.499118 1.000000 0.038179 -0.488031 1.000000 0.050781 -0.472831 1.000000 0.065588 -0.457237 1.000000 0.075437 -0.437251 1.000000 0.086000 -0.418865 1.000000 0.092249 -0.396610 1.000000 0.098170 -0.377418 1.000000 0.100858 -0.355267 1.000000 0.102646 -0.336979 1.000000 0.102374 -0.316687 1.000000 0.100976 -0.300498 1.000000 0.098539 -0.283112 1.000000 0.094953 -0.269703 1.000000 0.091097 -0.255697 1.000000 0.086160 -0.245351 1.000000 
0.090417 -0.229199 1.000000 0.082973 -0.221749 1.000000 0.076377 -0.214296 1.000000 0.068745 -0.209900 1.000000 0.062040 -0.205583 1.000000 0.054420 -0.203918 1.000000 0.047723 -0.202334 1.000000 0.040175 -0.203051 1.000000 0.033521 -0.203798 1.000000 0.026030 -0.206546 1.000000 0.019421 -0.209246 1.000000 0.011952 -0.213693 1.000000 0.005402 -0.218012 1.000000 -0.002060 -0.223862 1.000000 -0.008503 -0.229525 1.000000 -0.015934 -0.236536 1.000000 -0.022175 -0.243339 1.000000 -0.029507 -0.251329 1.000000 -0.035417 -0.259143 1.000000 -0.042549 -0.267979 1.000000 -0.047977 -0.276733 1.000000 -0.054795 -0.286306 1.000000 -0.059599 -0.295961 1.000000 -0.065995 -0.306152 1.000000 -0.070066 -0.316661 1.000000 -0.075951 -0.327306 1.000000 -0.079228 -0.338590 1.000000 -0.084531 -0.349474 1.000000 -0.087006 -0.361418 1.000000 -0.091650 -0.372299 1.000000 -0.093344 -0.384781 1.000000 -0.097197 -0.395444 1.000000 -0.098110 -0.408371 1.000000 -0.100904 -0.418683 1.000000 -0.100923 -0.432001 1.000000 -0.102159 -0.441914 1.000000 -0.100967 -0.455540 1.000000 -0.099837 -0.465005 1.000000 -0.096854 -0.478640 1.000000 -0.092280 -0.487420 1.000000 -0.086725 -0.500290 1.000000 -0.077588 -0.507729 1.000000 -0.068719 -0.518356 1.000000 -0.054349 -0.523231 1.000000 -0.041894 -0.529461 1.000000 -0.022738 -0.530088 1.000000 -0.007376 -0.529611 1.000000 0.014532 -0.524396 1.000000 0.030945 -0.515760 1.000000 0.052315 -0.504067 1.000000 0.067213 -0.487610 1.000000 0.084753 -0.470368 1.000000 0.095978 -0.448300 1.000000 0.107718 -0.427756 1.000000 0.114314 -0.403184 1.000000 0.120002 -0.381883 1.000000 0.122176 -0.357649 1.000000 0.122751 -0.337644 1.000000 0.121382 -0.315728 1.000000 0.118241 -0.298322 1.000000 0.114388 -0.279803 1.000000 0.108874 -0.265635 1.000000 0.103480 -0.250912 1.000000 0.096644 -0.240155 1.000000 
0.099867 -0.221140 1.000000 0.090677 -0.213500 1.000000 0.082462 -0.206089 1.000000 0.073257 -0.201629 1.000000 0.065122 -0.197460 1.000000 0.056122 -0.195786 1.000000 0.048186 -0.194376 1.000000 0.039450 -0.195096 1.000000 0.031742 -0.196002 1.000000 0.023243 -0.198748 1.000000 0.015751 -0.201580 1.000000 0.007434 -0.206026 1.000000 0.000151 -0.210453 1.000000 -0.008027 -0.216321 1.000000 -0.015078 -0.222083 1.000000 -0.023124 -0.229158 1.000000 -0.029874 -0.236069 1.000000 -0.037754 -0.244190 1.000000 -0.044091 -0.252135 1.000000 -0.051727 -0.261188 1.000000 -0.057510 -0.270103 1.000000 -0.064795 -0.279986 1.000000 -0.069874 -0.289832 1.000000 -0.076691 -0.300419 1.000000 -0.080938 -0.311146 1.000000 -0.087175 -0.322256 1.000000 -0.090513 -0.333784 1.000000 -0.096078 -0.345174 1.000000 -0.098501 -0.357402 1.000000 -0.103317 -0.368803 1.000000 -0.104883 -0.381651 1.000000 -0.108848 -0.392840 1.000000 -0.109617 -0.406300 1.000000 -0.112506 -0.417179 1.000000 -0.112427 -0.431343 1.000000 -0.113754 -0.441955 1.000000 -0.112506 -0.456927 1.000000 -0.111383 -0.467353 1.000000 -0.108266 -0.483007 1.000000 -0.103383 -0.493124 1.000000 -0.097348 -0.508721 1.000000 -0.087222 -0.517870 1.000000 -0.077152 -0.531663 1.000000 -0.060741 -0.538391 1.000000 -0.046044 -0.547522 1.000000 -0.023670 -0.549646 1.000000 -0.005042 -0.550773 1.000000 0.020882 -0.546052 1.000000 0.041020 -0.536901 1.000000 0.066333 -0.524299 1.000000 0.084475 -0.505269 1.000000 0.104905 -0.486002 1.000000 0.118042 -0.460217 1.000000 0.131122 -0.437201 1.000000 0.138114 -0.408894 1.000000 0.143710 -0.385280 1.000000 0.145092 -0.358017 1.000000 0.144571 -0.336185 1.000000 0.141694 -0.312177 1.000000 0.136902 -0.293504 1.000000 0.131226 -0.273744 1.000000 0.123845 -0.258795 1.000000 0.116576 -0.243467 1.000000 0.107875 -0.232289 1.000000 
0.109206 -0.212000 1.000000 0.098026 -0.204344 1.000000 0.088248 -0.196876 1.000000 0.077374 -0.192559 1.000000 0.067883 -0.188448 1.000000 0.057504 -0.186983 1.000000 0.048414 -0.185663 1.000000 0.038550 -0.186607 1.000000 0.029868 -0.187591 1.000000 0.020452 -0.190554 1.000000 0.012143 -0.193437 1.000000 0.003080 -0.198093 1.000000 -0.004894 -0.202551 1.000000 -0.013690 -0.208634 1.000000 -0.021339 -0.214427 1.000000 -0.029919 -0.221740 1.000000 -0.037207 -0.228710 1.000000 -0.045573 -0.237112 1.000000 -0.052413 -0.245170 1.000000 -0.060517 -0.254560 1.000000 -0.066774 -0.263665 1.000000 -0.074523 -0.273942 1.000000 -0.080031 -0.284066 1.000000 -0.087309 -0.295088 1.000000 -0.091902 -0.306177 1.000000 -0.098590 -0.317731 1.000000 -0.102147 -0.329686 1.000000 -0.108150 -0.341486 1.000000 -0.110636 -0.354179 1.000000 -0.115898 -0.365918 1.000000 -0.117381 -0.379251 1.000000 -0.121846 -0.390710 1.000000 -0.122450 -0.404712 1.000000 -0.125945 -0.415872 1.000000 -0.125701 -0.430754 1.000000 -0.127738 -0.441835 1.000000 -0.126368 -0.457911 1.000000 -0.125912 -0.469245 1.000000 -0.122630 -0.486640 1.000000 -0.117987 -0.498338 1.000000 -0.111479 -0.516451 1.000000 -0.100523 -0.527925 1.000000 -0.089249 -0.544837 1.000000 -0.070206 -0.554339 1.000000 -0.053155 -0.566532 1.000000 -0.025992 -0.571090 1.000000 -0.003785 -0.574163 1.000000 0.028404 -0.570457 1.000000 0.052698 -0.561212 1.000000 0.083953 -0.547522 1.000000 0.105506 -0.526181 1.000000 0.129818 -0.503935 1.000000 0.144770 -0.474517 1.000000 0.159052 -0.447827 1.000000 0.166224 -0.415773 1.000000 0.170885 -0.388861 1.000000 0.171263 -0.358510 1.000000 0.168594 -0.334247 1.000000 0.164058 -0.308059 1.000000 0.156676 -0.287853 1.000000 0.149095 -0.266746 1.000000 0.139151 -0.250985 1.000000 0.129986 -0.234942 1.000000 0.118971 -0.223446 1.000000 
0.118970 -0.200195 1.000000 0.105802 -0.192542 1.000000 0.094247 -0.185437 1.000000 0.081686 -0.181264 1.000000 0.070698 -0.177591 1.000000 0.058907 -0.176317 1.000000 0.048563 -0.175422 1.000000 0.037522 -0.176550 1.000000 0.027794 -0.177905 1.000000 0.017396 -0.181024 1.000000 0.008212 -0.184208 1.000000 -0.001679 -0.188988 1.000000 -0.010391 -0.193682 1.000000 -0.019904 -0.199876 1.000000 -0.028184 -0.205855 1.000000 -0.037407 -0.213290 1.000000 -0.045246 -0.220415 1.000000 -0.054214 -0.228984 1.000000 -0.061539 -0.237191 1.000000 -0.070222 -0.246827 1.000000 -0.076891 -0.256097 1.000000 -0.085195 -0.266729 1.000000 -0.091020 -0.277046 1.000000 -0.098802 -0.288548 1.000000 -0.103581 -0.299865 1.000000 -0.110684 -0.312011 1.000000 -0.114267 -0.324223 1.000000 -0.120570 -0.336685 1.000000 -0.122932 -0.349654 1.000000 -0.128390 -0.362058 1.000000 -0.129675 -0.375703 1.000000 -0.134308 -0.387772 1.000000 -0.134780 -0.402201 1.000000 -0.138546 -0.413927 1.000000 -0.138392 -0.429550 1.000000 -0.140908 -0.441287 1.000000 -0.139921 -0.458753 1.000000 -0.140105 -0.471091 1.000000 -0.137365 -0.490932 1.000000 -0.133185 -0.504275 1.000000 -0.126945 -0.526185 1.000000 -0.115597 -0.540099 1.000000 -0.103578 -0.561980 1.000000 -0.082429 -0.574485 1.000000 -0.062804 -0.591735 1.000000 -0.031300 -0.599017 1.000000 -0.004411 -0.605170 1.000000 0.033835 -0.602535 1.000000 0.063952 -0.592450 1.000000 0.101377 -0.577107 1.000000 0.128051 -0.551134 1.000000 0.156587 -0.525266 1.000000 0.174133 -0.489450 1.000000 0.189881 -0.458655 1.000000 0.197064 -0.420727 1.000000 0.200983 -0.390318 1.000000 0.199697 -0.355726 1.000000 0.195028 -0.328981 1.000000 0.188084 -0.300259 1.000000 0.178217 -0.278541 1.000000 0.168093 -0.256220 1.000000 0.155651 -0.239686 1.000000 0.144115 -0.223287 1.000000 0.130817 -0.211509 1.000000 
0.128175 -0.186985 1.000000 0.112784 -0.179620 1.000000 0.099526 -0.172760 1.000000 0.085221 -0.169011 1.000000 0.072831 -0.165668 1.000000 0.059674 -0.164848 1.000000 0.048181 -0.164278 1.000000 0.036068 -0.165838 1.000000 0.025395 -0.167465 1.000000 0.014150 -0.170973 1.000000 0.004178 -0.174361 1.000000 -0.006395 -0.179490 1.000000 -0.015782 -0.184327 1.000000 -0.025863 -0.190841 1.000000 -0.034752 -0.196924 1.000000 -0.044479 -0.204678 1.000000 -0.052902 -0.211902 1.000000 -0.062349 -0.220820 1.000000 -0.070256 -0.229163 1.000000 -0.079422 -0.239207 1.000000 -0.086675 -0.248692 1.000000 -0.095473 -0.259813 1.000000 -0.101850 -0.270459 1.000000 -0.110128 -0.282527 1.000000 -0.115365 -0.294295 1.000000 -0.122949 -0.307045 1.000000 -0.126820 -0.319801 1.000000 -0.133582 -0.332821 1.000000 -0.136009 -0.346359 1.000000 -0.141947 -0.359174 1.000000 -0.143096 -0.373333 1.000000 -0.148345 -0.385605 1.000000 -0.148606 -0.400475 1.000000 -0.153292 -0.412260 1.000000 -0.153063 -0.428391 1.000000 -0.156937 -0.440306 1.000000 -0.156176 -0.458715 1.000000 -0.158082 -0.471801 1.000000 -0.155823 -0.493559 1.000000 -0.153227 -0.508757 1.000000 -0.147317 -0.534040 1.000000 -0.136301 -0.551292 1.000000 -0.123654 -0.578005 1.000000 -0.099951 -0.595113 1.000000 -0.077703 -0.617661 1.000000 -0.039431 -0.629483 1.000000 -0.007310 -0.639297 1.000000 0.041122 -0.638820 1.000000 0.078126 -0.628754 1.000000 0.125291 -0.611621 1.000000 0.157337 -0.581390 1.000000 0.191535 -0.550017 1.000000 0.211356 -0.507811 1.000000 0.227798 -0.470758 1.000000 0.234538 -0.426875 1.000000 0.235897 -0.391494 1.000000 0.232585 -0.352555 1.000000 0.224065 -0.322634 1.000000 0.214492 -0.291247 1.000000 0.200716 -0.267862 1.000000 0.187949 -0.244180 1.000000 0.172085 -0.227007 1.000000 0.158162 -0.210108 1.000000 0.142065 -0.198301 1.000000 