# vtk DataFile Version 2.0
Comment goes here
ASCII

DATASET STRUCTURED_POINTS
DIMENSIONS    64   64   1

ORIGIN    0.000   0.000   0.000
SPACING   0.0156250.015625   1.000

POINT_DATA   4096
VECTORS u double

-0.026571 -0.145125 1.000000 -0.015707 -0.140809 1.000000 -0.003685 -0.137154 1.000000 0.007366 -0.136113 1.000000 0.019218 -0.135895 1.000000 0.029762 -0.138420 1.000000 0.040586 -0.141854 1.000000 0.049633 -0.148015 1.000000 0.058277 -0.154922 1.000000 0.064653 -0.164208 1.000000 0.069956 -0.173669 1.000000 0.072777 -0.184733 1.000000 0.074160 -0.195080 1.000000 0.073408 -0.206003 1.000000 0.071348 -0.215364 1.000000 0.068081 -0.224365 1.000000 0.064075 -0.231408 1.000000 0.060109 -0.237539 1.000000 0.056236 -0.241969 1.000000 0.053572 -0.245533 1.000000 0.051752 -0.248282 1.000000 0.051856 -0.250879 1.000000 0.053006 -0.253983 1.000000 0.056022 -0.258019 1.000000 0.059403 -0.263853 1.000000 0.063760 -0.271392 1.000000 0.067078 -0.281312 1.000000 0.070102 -0.292726 1.000000 0.070676 -0.306029 1.000000 0.070100 -0.319606 1.000000 0.066411 -0.333888 1.000000 0.061600 -0.346899 1.000000 0.053927 -0.359527 1.000000 0.045867 -0.369746 1.000000 0.035719 -0.379083 1.000000 0.026118 -0.385549 1.000000 0.015229 -0.391246 1.000000 0.005574 -0.394158 1.000000 -0.004861 -0.396758 1.000000 -0.013857 -0.396902 1.000000 -0.023497 -0.397159 1.000000 -0.031944 -0.395192 1.000000 -0.041082 -0.393405 1.000000 -0.049426 -0.389351 1.000000 -0.058348 -0.385142 1.000000 -0.066681 -0.378483 1.000000 -0.075108 -0.371206 1.000000 -0.082854 -0.361487 1.000000 -0.089926 -0.350876 1.000000 -0.096086 -0.338219 1.000000 -0.100782 -0.324707 1.000000 -0.104414 -0.309895 1.000000 -0.106003 -0.294489 1.000000 -0.106576 -0.278695 1.000000 -0.104828 -0.262643 1.000000 -0.102314 -0.247085 1.000000 -0.097477 -0.231557 1.000000 -0.092237 -0.217241 1.000000 -0.084847 -0.203146 1.000000 -0.077427 -0.190773 1.000000 -0.068099 -0.178732 1.000000 -0.059054 -0.168749 1.000000 -0.048348 -0.159181 1.000000 -0.038170 -0.151894 1.000000 
-0.021238 -0.155439 1.000000 -0.011888 -0.151311 1.000000 -0.001419 -0.147720 1.000000 0.007993 -0.146580 1.000000 0.018197 -0.146113 1.000000 0.027063 -0.148150 1.000000 0.036269 -0.150911 1.000000 0.043790 -0.156093 1.000000 0.051097 -0.161849 1.000000 0.056397 -0.169688 1.000000 0.060959 -0.177657 1.000000 0.063423 -0.187069 1.000000 0.064859 -0.195943 1.000000 0.064523 -0.205446 1.000000 0.063239 -0.213780 1.000000 0.060922 -0.221997 1.000000 0.058076 -0.228747 1.000000 0.055150 -0.234930 1.000000 0.052293 -0.239854 1.000000 0.050244 -0.244217 1.000000 0.048782 -0.248030 1.000000 0.048670 -0.251759 1.000000 0.049246 -0.255970 1.000000 0.051151 -0.260801 1.000000 0.053207 -0.267096 1.000000 0.055981 -0.274464 1.000000 0.057853 -0.283753 1.000000 0.059578 -0.293876 1.000000 0.059335 -0.305617 1.000000 0.058369 -0.317258 1.000000 0.054881 -0.329703 1.000000 0.050713 -0.340881 1.000000 0.044117 -0.352063 1.000000 0.037396 -0.361078 1.000000 0.028749 -0.369675 1.000000 0.020690 -0.375688 1.000000 0.011273 -0.381274 1.000000 0.002987 -0.384278 1.000000 -0.006256 -0.387090 1.000000 -0.014168 -0.387527 1.000000 -0.022869 -0.387993 1.000000 -0.030363 -0.386263 1.000000 -0.038581 -0.384551 1.000000 -0.045844 -0.380678 1.000000 -0.053649 -0.376548 1.000000 -0.060650 -0.370233 1.000000 -0.067756 -0.363303 1.000000 -0.074032 -0.354312 1.000000 -0.079783 -0.344479 1.000000 -0.084602 -0.332992 1.000000 -0.088249 -0.320657 1.000000 -0.090928 -0.307326 1.000000 -0.091939 -0.293320 1.000000 -0.092092 -0.279099 1.000000 -0.090306 -0.264455 1.000000 -0.087915 -0.250356 1.000000 -0.083526 -0.236075 1.000000 -0.078868 -0.222974 1.000000 -0.072298 -0.209880 1.000000 -0.065802 -0.198439 1.000000 -0.057554 -0.187144 1.000000 -0.049680 -0.177824 1.000000 -0.040241 -0.168771 1.000000 -0.031420 -0.161908 1.000000 
-0.015945 -0.164657 1.000000 -0.007926 -0.160628 1.000000 0.001154 -0.157035 1.000000 0.009151 -0.155730 1.000000 0.017922 -0.154964 1.000000 0.025368 -0.156492 1.000000 0.033209 -0.158581 1.000000 0.039454 -0.162843 1.000000 0.045651 -0.167530 1.000000 0.050027 -0.174070 1.000000 0.053945 -0.180694 1.000000 0.056006 -0.188634 1.000000 0.057379 -0.196180 1.000000 0.057173 -0.204384 1.000000 0.056322 -0.211763 1.000000 0.054489 -0.219201 1.000000 0.052306 -0.225635 1.000000 0.049913 -0.231757 1.000000 0.047592 -0.237063 1.000000 0.045787 -0.242022 1.000000 0.044398 -0.246708 1.000000 0.043979 -0.251344 1.000000 0.043998 -0.256464 1.000000 0.045006 -0.261979 1.000000 0.046016 -0.268682 1.000000 0.047601 -0.276038 1.000000 0.048396 -0.284909 1.000000 0.049168 -0.294208 1.000000 0.048354 -0.304821 1.000000 0.047118 -0.315152 1.000000 0.043857 -0.326232 1.000000 0.040206 -0.336136 1.000000 0.034554 -0.346210 1.000000 0.028917 -0.354378 1.000000 0.021607 -0.362377 1.000000 0.014858 -0.368072 1.000000 0.006832 -0.373543 1.000000 -0.000187 -0.376629 1.000000 -0.008188 -0.379602 1.000000 -0.014971 -0.380290 1.000000 -0.022584 -0.380964 1.000000 -0.029003 -0.379480 1.000000 -0.036159 -0.377924 1.000000 -0.042254 -0.374282 1.000000 -0.048902 -0.370336 1.000000 -0.054585 -0.364377 1.000000 -0.060455 -0.357824 1.000000 -0.065370 -0.349460 1.000000 -0.069963 -0.340307 1.000000 -0.073581 -0.329753 1.000000 -0.076347 -0.318381 1.000000 -0.078183 -0.306205 1.000000 -0.078733 -0.293325 1.000000 -0.078509 -0.280328 1.000000 -0.076726 -0.266820 1.000000 -0.074432 -0.253865 1.000000 -0.070468 -0.240604 1.000000 -0.066311 -0.228469 1.000000 -0.060498 -0.216212 1.000000 -0.054815 -0.205516 1.000000 -0.047561 -0.194854 1.000000 -0.040726 -0.186062 1.000000 -0.032451 -0.177441 1.000000 -0.024835 -0.170896 1.000000 
-0.010954 -0.172348 1.000000 -0.004232 -0.168410 1.000000 0.003537 -0.164797 1.000000 0.010159 -0.163348 1.000000 0.017580 -0.162329 1.000000 0.023658 -0.163436 1.000000 0.030216 -0.164997 1.000000 0.035242 -0.168535 1.000000 0.040383 -0.172422 1.000000 0.043861 -0.177982 1.000000 0.047127 -0.183636 1.000000 0.048755 -0.190503 1.000000 0.049980 -0.197110 1.000000 0.049826 -0.204390 1.000000 0.049283 -0.211096 1.000000 0.047845 -0.217981 1.000000 0.046215 -0.224170 1.000000 0.044295 -0.230216 1.000000 0.042468 -0.235729 1.000000 0.040910 -0.241023 1.000000 0.039662 -0.246222 1.000000 0.039041 -0.251359 1.000000 0.038708 -0.256998 1.000000 0.039048 -0.262819 1.000000 0.039323 -0.269691 1.000000 0.040015 -0.276843 1.000000 0.040038 -0.285319 1.000000 0.040102 -0.293835 1.000000 0.038880 -0.303567 1.000000 0.037463 -0.312762 1.000000 0.034384 -0.322792 1.000000 0.031175 -0.331577 1.000000 0.026252 -0.340774 1.000000 0.021533 -0.348132 1.000000 0.015282 -0.355616 1.000000 0.009678 -0.360913 1.000000 0.002800 -0.366229 1.000000 -0.003055 -0.369258 1.000000 -0.009969 -0.372306 1.000000 -0.015653 -0.373130 1.000000 -0.022258 -0.373961 1.000000 -0.027605 -0.372688 1.000000 -0.033757 -0.371301 1.000000 -0.038722 -0.367936 1.000000 -0.044302 -0.364217 1.000000 -0.048777 -0.358680 1.000000 -0.053541 -0.352517 1.000000 -0.057253 -0.344805 1.000000 -0.060820 -0.336268 1.000000 -0.063395 -0.326607 1.000000 -0.065369 -0.316055 1.000000 -0.066469 -0.304940 1.000000 -0.066577 -0.292994 1.000000 -0.066015 -0.281106 1.000000 -0.064185 -0.268532 1.000000 -0.061966 -0.256615 1.000000 -0.058329 -0.244195 1.000000 -0.054620 -0.232944 1.000000 -0.049445 -0.221377 1.000000 -0.044512 -0.211375 1.000000 -0.038142 -0.201233 1.000000 -0.032292 -0.192934 1.000000 -0.025085 -0.184662 1.000000 -0.018634 -0.178414 1.000000 
-0.005933 -0.179059 1.000000 -0.000356 -0.175120 1.000000 0.006246 -0.171426 1.000000 0.011668 -0.169772 1.000000 0.017909 -0.168463 1.000000 0.022808 -0.169128 1.000000 0.028261 -0.170164 1.000000 0.032231 -0.173010 1.000000 0.036462 -0.176150 1.000000 0.039131 -0.180814 1.000000 0.041796 -0.185588 1.000000 0.042949 -0.191487 1.000000 0.043940 -0.197251 1.000000 0.043649 -0.203686 1.000000 0.043186 -0.209782 1.000000 0.041843 -0.216134 1.000000 0.040455 -0.222085 1.000000 0.038683 -0.228009 1.000000 0.037050 -0.233678 1.000000 0.035496 -0.239216 1.000000 0.034209 -0.244839 1.000000 0.033309 -0.250390 1.000000 0.032622 -0.256471 1.000000 0.032394 -0.262593 1.000000 0.032089 -0.269650 1.000000 0.032099 -0.276753 1.000000 0.031564 -0.284995 1.000000 0.031109 -0.293051 1.000000 0.029636 -0.302182 1.000000 0.028107 -0.310656 1.000000 0.025248 -0.319943 1.000000 0.022409 -0.328003 1.000000 0.018156 -0.336569 1.000000 0.014202 -0.343408 1.000000 0.008920 -0.350522 1.000000 0.004308 -0.355590 1.000000 -0.001482 -0.360810 1.000000 -0.006265 -0.363861 1.000000 -0.012093 -0.367005 1.000000 -0.016694 -0.368001 1.000000 -0.022251 -0.369013 1.000000 -0.026496 -0.367981 1.000000 -0.031608 -0.366806 1.000000 -0.035420 -0.363736 1.000000 -0.039944 -0.360281 1.000000 -0.043224 -0.355138 1.000000 -0.046951 -0.349348 1.000000 -0.049509 -0.342181 1.000000 -0.052155 -0.334165 1.000000 -0.053744 -0.325204 1.000000 -0.055027 -0.315307 1.000000 -0.055430 -0.304998 1.000000 -0.055163 -0.293779 1.000000 -0.054266 -0.282720 1.000000 -0.052411 -0.270868 1.000000 -0.050231 -0.259721 1.000000 -0.046899 -0.247951 1.000000 -0.043569 -0.237353 1.000000 -0.038981 -0.226319 1.000000 -0.034706 -0.216820 1.000000 -0.029143 -0.207075 1.000000 -0.024168 -0.199119 1.000000 -0.017935 -0.191099 1.000000 -0.012519 -0.185027 1.000000 
-0.001042 -0.184512 1.000000 0.003411 -0.180590 1.000000 0.008900 -0.176821 1.000000 0.013147 -0.175011 1.000000 0.018260 -0.173468 1.000000 0.022011 -0.173788 1.000000 0.026407 -0.174421 1.000000 0.029353 -0.176736 1.000000 0.032702 -0.179321 1.000000 0.034575 -0.183317 1.000000 0.036632 -0.187454 1.000000 0.037292 -0.192647 1.000000 0.037998 -0.197809 1.000000 0.037522 -0.203635 1.000000 0.037062 -0.209291 1.000000 0.035758 -0.215250 1.000000 0.034539 -0.221010 1.000000 0.032877 -0.226811 1.000000 0.031407 -0.232542 1.000000 0.029866 -0.238183 1.000000 0.028578 -0.244034 1.000000 0.027478 -0.249772 1.000000 0.026558 -0.256083 1.000000 0.025916 -0.262287 1.000000 0.025212 -0.269395 1.000000 0.024726 -0.276318 1.000000 0.023806 -0.284330 1.000000 0.022990 -0.291908 1.000000 0.021356 -0.300564 1.000000 0.019784 -0.308373 1.000000 0.017115 -0.317094 1.000000 0.014620 -0.324485 1.000000 0.010907 -0.332567 1.000000 0.007628 -0.338896 1.000000 0.003136 -0.345721 1.000000 -0.000588 -0.350511 1.000000 -0.005461 -0.355656 1.000000 -0.009254 -0.358647 1.000000 -0.014129 -0.361877 1.000000 -0.017699 -0.362972 1.000000 -0.022296 -0.364159 1.000000 -0.025478 -0.363331 1.000000 -0.029616 -0.362377 1.000000 -0.032325 -0.359599 1.000000 -0.035858 -0.356413 1.000000 -0.038018 -0.351674 1.000000 -0.040772 -0.346232 1.000000 -0.042266 -0.339601 1.000000 -0.044041 -0.332032 1.000000 -0.044725 -0.323735 1.000000 -0.045335 -0.314369 1.000000 -0.045093 -0.304804 1.000000 -0.044430 -0.294158 1.000000 -0.043212 -0.283858 1.000000 -0.041273 -0.272567 1.000000 -0.039116 -0.262127 1.000000 -0.036010 -0.250858 1.000000 -0.033025 -0.240863 1.000000 -0.028938 -0.230240 1.000000 -0.025286 -0.221212 1.000000 -0.020453 -0.211771 1.000000 -0.016322 -0.204142 1.000000 -0.010996 -0.196311 1.000000 -0.006593 -0.190416 1.000000 
0.003896 -0.189062 1.000000 0.007340 -0.185061 1.000000 0.011834 -0.181162 1.000000 0.015034 -0.179132 1.000000 0.019149 -0.177327 1.000000 0.021881 -0.177275 1.000000 0.025346 -0.177507 1.000000 0.027376 -0.179305 1.000000 0.029937 -0.181371 1.000000 0.031067 -0.184744 1.000000 0.032547 -0.188305 1.000000 0.032685 -0.192853 1.000000 0.033051 -0.197481 1.000000 0.032271 -0.202750 1.000000 0.031677 -0.208018 1.000000 0.030227 -0.213611 1.000000 0.028991 -0.219204 1.000000 0.027237 -0.224877 1.000000 0.025753 -0.230667 1.000000 0.024067 -0.236388 1.000000 0.022669 -0.242451 1.000000 0.021298 -0.248370 1.000000 0.020137 -0.254909 1.000000 0.019107 -0.261247 1.000000 0.018081 -0.268460 1.000000 0.017186 -0.275347 1.000000 0.015998 -0.283260 1.000000 0.014901 -0.290601 1.000000 0.013199 -0.298975 1.000000 0.011604 -0.306414 1.000000 0.009161 -0.314779 1.000000 0.006958 -0.321795 1.000000 0.003765 -0.329577 1.000000 0.001064 -0.335638 1.000000 -0.002683 -0.342306 1.000000 -0.005620 -0.346992 1.000000 -0.009617 -0.352144 1.000000 -0.012490 -0.355193 1.000000 -0.016430 -0.358560 1.000000 -0.018996 -0.359833 1.000000 -0.022639 -0.361234 1.000000 -0.024753 -0.360661 1.000000 -0.027928 -0.359959 1.000000 -0.029520 -0.357494 1.000000 -0.032094 -0.354589 1.000000 -0.033128 -0.350224 1.000000 -0.034971 -0.345100 1.000000 -0.035404 -0.338912 1.000000 -0.036383 -0.331705 1.000000 -0.036171 -0.323909 1.000000 -0.036179 -0.314939 1.000000 -0.035292 -0.305903 1.000000 -0.034279 -0.295661 1.000000 -0.032725 -0.285876 1.000000 -0.030721 -0.274964 1.000000 -0.028553 -0.264985 1.000000 -0.025659 -0.254042 1.000000 -0.022968 -0.244424 1.000000 -0.019343 -0.234058 1.000000 -0.016246 -0.225305 1.000000 -0.012079 -0.216039 1.000000 -0.008711 -0.208575 1.000000 -0.004210 -0.200829 1.000000 -0.000719 -0.194982 1.000000 
0.008880 -0.192571 1.000000 0.011314 -0.188527 1.000000 0.014833 -0.184516 1.000000 0.016988 -0.182326 1.000000 0.020125 -0.180315 1.000000 0.021843 -0.179986 1.000000 0.024392 -0.179915 1.000000 0.025508 -0.181327 1.000000 0.027287 -0.183013 1.000000 0.027670 -0.185927 1.000000 0.028556 -0.189073 1.000000 0.028155 -0.193151 1.000000 0.028143 -0.197395 1.000000 0.027029 -0.202261 1.000000 0.026247 -0.207246 1.000000 0.024619 -0.212564 1.000000 0.023317 -0.218020 1.000000 0.021454 -0.223572 1.000000 0.019931 -0.229372 1.000000 0.018113 -0.235099 1.000000 0.016623 -0.241266 1.000000 0.015039 -0.247239 1.000000 0.013696 -0.253892 1.000000 0.012378 -0.260232 1.000000 0.011121 -0.267475 1.000000 0.009934 -0.274234 1.000000 0.008560 -0.282044 1.000000 0.007282 -0.289109 1.000000 0.005550 -0.297268 1.000000 0.003986 -0.304334 1.000000 0.001740 -0.312447 1.000000 -0.000172 -0.319089 1.000000 -0.002931 -0.326673 1.000000 -0.005097 -0.332448 1.000000 -0.008216 -0.339038 1.000000 -0.010425 -0.343577 1.000000 -0.013663 -0.348787 1.000000 -0.015672 -0.351834 1.000000 -0.018775 -0.355370 1.000000 -0.020383 -0.356763 1.000000 -0.023138 -0.358403 1.000000 -0.024221 -0.358043 1.000000 -0.026474 -0.357609 1.000000 -0.026986 -0.355432 1.000000 -0.028623 -0.352806 1.000000 -0.028569 -0.348797 1.000000 -0.029504 -0.343956 1.000000 -0.028915 -0.338188 1.000000 -0.029082 -0.331266 1.000000 -0.028001 -0.323939 1.000000 -0.027367 -0.315249 1.000000 -0.025848 -0.306704 1.000000 -0.024430 -0.296725 1.000000 -0.022537 -0.287416 1.000000 -0.020400 -0.276739 1.000000 -0.018209 -0.267188 1.000000 -0.015460 -0.256442 1.000000 -0.013048 -0.247179 1.000000 -0.009825 -0.236962 1.000000 -0.007271 -0.228476 1.000000 -0.003725 -0.219306 1.000000 -0.001113 -0.212011 1.000000 0.002597 -0.204303 1.000000 0.005175 -0.198522 1.000000 
0.013891 -0.195202 1.000000 0.015398 -0.191015 1.000000 0.018037 -0.186837 1.000000 0.019238 -0.184424 1.000000 0.021494 -0.182181 1.000000 0.022287 -0.181543 1.000000 0.024011 -0.181173 1.000000 0.024287 -0.182200 1.000000 0.025347 -0.183532 1.000000 0.025018 -0.186013 1.000000 0.025335 -0.188791 1.000000 0.024378 -0.192439 1.000000 0.023958 -0.196354 1.000000 0.022438 -0.200855 1.000000 0.021393 -0.205608 1.000000 0.019473 -0.210681 1.000000 0.018002 -0.216038 1.000000 0.015903 -0.221491 1.000000 0.014243 -0.227327 1.000000 0.012187 -0.233080 1.000000 0.010541 -0.239377 1.000000 0.008683 -0.245443 1.000000 0.007152 -0.252248 1.000000 0.005530 -0.258672 1.000000 0.004083 -0.266016 1.000000 0.002619 -0.272786 1.000000 0.001125 -0.280607 1.000000 -0.000322 -0.287591 1.000000 -0.002027 -0.295680 1.000000 -0.003575 -0.302605 1.000000 -0.005594 -0.310621 1.000000 -0.007268 -0.317124 1.000000 -0.009594 -0.324652 1.000000 -0.011301 -0.330353 1.000000 -0.013812 -0.336977 1.000000 -0.015369 -0.341545 1.000000 -0.017874 -0.346897 1.000000 -0.019074 -0.350081 1.000000 -0.021363 -0.353850 1.000000 -0.022034 -0.355470 1.000000 -0.023925 -0.357396 1.000000 -0.023968 -0.357326 1.000000 -0.025329 -0.357194 1.000000 -0.024730 -0.355345 1.000000 -0.025475 -0.353005 1.000000 -0.024296 -0.349343 1.000000 -0.024382 -0.344754 1.000000 -0.022734 -0.339334 1.000000 -0.022154 -0.332620 1.000000 -0.020172 -0.325624 1.000000 -0.018959 -0.317092 1.000000 -0.016782 -0.308841 1.000000 -0.015003 -0.298971 1.000000 -0.012749 -0.289906 1.000000 -0.010500 -0.279292 1.000000 -0.008262 -0.269925 1.000000 -0.005654 -0.259203 1.000000 -0.003491 -0.250060 1.000000 -0.000642 -0.239834 1.000000 0.001408 -0.231405 1.000000 0.004384 -0.222197 1.000000 0.006292 -0.214897 1.000000 0.009279 -0.207117 1.000000 0.011013 -0.201265 1.000000 
0.019131 -0.196956 1.000000 0.019681 -0.192673 1.000000 0.021426 -0.188356 1.000000 0.021646 -0.185783 1.000000 0.023008 -0.183365 1.000000 0.022853 -0.182503 1.000000 0.023738 -0.181915 1.000000 0.023152 -0.182663 1.000000 0.023476 -0.183744 1.000000 0.022415 -0.185915 1.000000 0.022135 -0.188432 1.000000 0.020597 -0.191774 1.000000 0.019732 -0.195456 1.000000 0.017782 -0.199696 1.000000 0.016429 -0.204280 1.000000 0.014196 -0.209173 1.000000 0.012515 -0.214450 1.000000 0.010173 -0.219814 1.000000 0.008350 -0.225657 1.000000 0.006071 -0.231397 1.000000 0.004265 -0.237762 1.000000 0.002174 -0.243850 1.000000 0.000472 -0.250738 1.000000 -0.001388 -0.257163 1.000000 -0.002992 -0.264564 1.000000 -0.004657 -0.271276 1.000000 -0.006245 -0.279103 1.000000 -0.007792 -0.285957 1.000000 -0.009466 -0.294015 1.000000 -0.010956 -0.300767 1.000000 -0.012780 -0.308754 1.000000 -0.014205 -0.315089 1.000000 -0.016161 -0.322641 1.000000 -0.017423 -0.328230 1.000000 -0.019409 -0.334969 1.000000 -0.020345 -0.339515 1.000000 -0.022199 -0.345082 1.000000 -0.022625 -0.348344 1.000000 -0.024166 -0.352410 1.000000 -0.023931 -0.354201 1.000000 -0.024998 -0.356469 1.000000 -0.024023 -0.356640 1.000000 -0.024499 -0.356847 1.000000 -0.022803 -0.355286 1.000000 -0.022629 -0.353239 1.000000 -0.020327 -0.349890 1.000000 -0.019505 -0.345519 1.000000 -0.016790 -0.340416 1.000000 -0.015380 -0.333827 1.000000 -0.012481 -0.327134 1.000000 -0.010592 -0.318639 1.000000 -0.007733 -0.310660 1.000000 -0.005499 -0.300757 1.000000 -0.002862 -0.291918 1.000000 -0.000422 -0.281227 1.000000 0.001879 -0.272035 1.000000 0.004403 -0.261213 1.000000 0.006320 -0.252192 1.000000 0.008829 -0.241861 1.000000 0.010366 -0.233501 1.000000 0.012783 -0.224191 1.000000 0.013967 -0.216907 1.000000 0.016229 -0.209023 1.000000 0.017090 -0.203134 1.000000 
0.024353 -0.197792 1.000000 0.023999 -0.193310 1.000000 0.024927 -0.188802 1.000000 0.024230 -0.186006 1.000000 0.024776 -0.183389 1.000000 0.023738 -0.182273 1.000000 0.023852 -0.181472 1.000000 0.022458 -0.181938 1.000000 0.022097 -0.182796 1.000000 0.020332 -0.184672 1.000000 0.019478 -0.186973 1.000000 0.017356 -0.190037 1.000000 0.016037 -0.193539 1.000000 0.013616 -0.197552 1.000000 0.011919 -0.202022 1.000000 0.009306 -0.206767 1.000000 0.007363 -0.212015 1.000000 0.004699 -0.217325 1.000000 0.002663 -0.223225 1.000000 0.000086 -0.228995 1.000000 -0.001908 -0.235480 1.000000 -0.004290 -0.241650 1.000000 -0.006160 -0.248686 1.000000 -0.008295 -0.255207 1.000000 -0.010028 -0.262747 1.000000 -0.011920 -0.269534 1.000000 -0.013557 -0.277472 1.000000 -0.015235 -0.284369 1.000000 -0.016838 -0.292515 1.000000 -0.018316 -0.299291 1.000000 -0.019918 -0.307372 1.000000 -0.021157 -0.313744 1.000000 -0.022737 -0.321434 1.000000 -0.023629 -0.327105 1.000000 -0.025098 -0.334055 1.000000 -0.025482 -0.338755 1.000000 -0.026704 -0.344617 1.000000 -0.026403 -0.348113 1.000000 -0.027221 -0.352544 1.000000 -0.026093 -0.354639 1.000000 -0.026365 -0.357304 1.000000 -0.024347 -0.357825 1.000000 -0.023978 -0.358414 1.000000 -0.021125 -0.357215 1.000000 -0.020083 -0.355480 1.000000 -0.016579 -0.352466 1.000000 -0.014912 -0.348292 1.000000 -0.011046 -0.343459 1.000000 -0.008876 -0.336929 1.000000 -0.004988 -0.330413 1.000000 -0.002488 -0.321840 1.000000 0.001099 -0.313934 1.000000 0.003737 -0.303842 1.000000 0.006780 -0.294983 1.000000 0.009383 -0.284033 1.000000 0.011752 -0.274749 1.000000 0.014188 -0.263644 1.000000 0.015860 -0.254486 1.000000 0.018048 -0.243880 1.000000 0.019079 -0.235359 1.000000 0.020978 -0.225799 1.000000 0.021460 -0.218342 1.000000 0.023053 -0.210240 1.000000 0.023080 -0.204167 1.000000 
0.029989 -0.197875 1.000000 0.028671 -0.193248 1.000000 0.028730 -0.188586 1.000000 0.027059 -0.185632 1.000000 0.026741 -0.182873 1.000000 0.024771 -0.181580 1.000000 0.024073 -0.180635 1.000000 0.021829 -0.180908 1.000000 0.020743 -0.181618 1.000000 0.018238 -0.183295 1.000000 0.016770 -0.185455 1.000000 0.014031 -0.188333 1.000000 0.012217 -0.191716 1.000000 0.009299 -0.195578 1.000000 0.007214 -0.199971 1.000000 0.004204 -0.204617 1.000000 0.001958 -0.209842 1.000000 -0.001036 -0.215113 1.000000 -0.003318 -0.221045 1.000000 -0.006182 -0.226826 1.000000 -0.008389 -0.233386 1.000000 -0.011031 -0.239597 1.000000 -0.013084 -0.246732 1.000000 -0.015448 -0.253295 1.000000 -0.017319 -0.260940 1.000000 -0.019382 -0.267746 1.000000 -0.021081 -0.275788 1.000000 -0.022836 -0.282677 1.000000 -0.024389 -0.290934 1.000000 -0.025814 -0.297686 1.000000 -0.027234 -0.305913 1.000000 -0.028266 -0.312271 1.000000 -0.029523 -0.320170 1.000000 -0.030045 -0.325869 1.000000 -0.031059 -0.333116 1.000000 -0.030907 -0.337909 1.000000 -0.031557 -0.344160 1.000000 -0.030552 -0.347827 1.000000 -0.030692 -0.352721 1.000000 -0.028692 -0.355057 1.000000 -0.028185 -0.358214 1.000000 -0.025133 -0.359028 1.000000 -0.023890 -0.360069 1.000000 -0.019870 -0.359180 1.000000 -0.017881 -0.357785 1.000000 -0.013140 -0.355061 1.000000 -0.010501 -0.351052 1.000000 -0.005428 -0.346453 1.000000 -0.002336 -0.339885 1.000000 0.002607 -0.333522 1.000000 0.005886 -0.324726 1.000000 0.010264 -0.316885 1.000000 0.013451 -0.306438 1.000000 0.016947 -0.297564 1.000000 0.019812 -0.286198 1.000000 0.022269 -0.276840 1.000000 0.024666 -0.265321 1.000000 0.026085 -0.256052 1.000000 0.027956 -0.245080 1.000000 0.028447 -0.236431 1.000000 0.029800 -0.226572 1.000000 0.029527 -0.218981 1.000000 0.030404 -0.210644 1.000000 0.029539 -0.204434 1.000000 
0.035539 -0.196925 1.000000 0.033288 -0.192051 1.000000 0.032544 -0.187190 1.000000 0.029945 -0.184017 1.000000 0.028828 -0.181101 1.000000 0.025976 -0.179605 1.000000 0.024524 -0.178529 1.000000 0.021475 -0.178607 1.000000 0.019709 -0.179205 1.000000 0.016495 -0.180699 1.000000 0.014440 -0.182766 1.000000 0.011094 -0.185484 1.000000 0.008791 -0.188807 1.000000 0.005362 -0.192549 1.000000 0.002880 -0.196927 1.000000 -0.000565 -0.201510 1.000000 -0.003132 -0.206776 1.000000 -0.006503 -0.212049 1.000000 -0.009049 -0.218079 1.000000 -0.012255 -0.223924 1.000000 -0.014678 -0.230631 1.000000 -0.017635 -0.236955 1.000000 -0.019857 -0.244269 1.000000 -0.022502 -0.250973 1.000000 -0.024480 -0.258814 1.000000 -0.026768 -0.265772 1.000000 -0.028488 -0.274018 1.000000 -0.030382 -0.281061 1.000000 -0.031848 -0.289536 1.000000 -0.033295 -0.296446 1.000000 -0.034503 -0.304920 1.000000 -0.035414 -0.311454 1.000000 -0.036336 -0.319655 1.000000 -0.036575 -0.325569 1.000000 -0.037138 -0.333193 1.000000 -0.036526 -0.338258 1.000000 -0.036621 -0.344971 1.000000 -0.034963 -0.348977 1.000000 -0.034452 -0.354405 1.000000 -0.031586 -0.357146 1.000000 -0.030337 -0.360863 1.000000 -0.026202 -0.362120 1.000000 -0.024131 -0.363677 1.000000 -0.018842 -0.363224 1.000000 -0.015964 -0.362210 1.000000 -0.009846 -0.359846 1.000000 -0.006306 -0.356004 1.000000 0.000121 -0.351625 1.000000 0.004054 -0.344964 1.000000 0.010172 -0.338634 1.000000 0.014149 -0.329497 1.000000 0.019387 -0.321499 1.000000 0.023057 -0.310524 1.000000 0.027020 -0.301344 1.000000 0.030107 -0.289356 1.000000 0.032629 -0.279604 1.000000 0.034975 -0.267460 1.000000 0.036102 -0.257776 1.000000 0.037669 -0.246242 1.000000 0.037587 -0.237202 1.000000 0.038428 -0.226879 1.000000 0.037388 -0.218947 1.000000 0.037600 -0.210251 1.000000 0.035850 -0.203751 1.000000 
0.041689 -0.195314 1.000000 0.038407 -0.190253 1.000000 0.036765 -0.185243 1.000000 0.033148 -0.181916 1.000000 0.031153 -0.178905 1.000000 0.027343 -0.177276 1.000000 0.025070 -0.176133 1.000000 0.021153 -0.176093 1.000000 0.018651 -0.176639 1.000000 0.014677 -0.178026 1.000000 0.011984 -0.180054 1.000000 0.007990 -0.182684 1.000000 0.005151 -0.185984 1.000000 0.001179 -0.189666 1.000000 -0.001747 -0.194044 1.000000 -0.005645 -0.198606 1.000000 -0.008581 -0.203903 1.000000 -0.012338 -0.209196 1.000000 -0.015193 -0.215293 1.000000 -0.018734 -0.221198 1.000000 -0.021418 -0.228007 1.000000 -0.024668 -0.234418 1.000000 -0.027102 -0.241865 1.000000 -0.029993 -0.248673 1.000000 -0.032118 -0.256674 1.000000 -0.034587 -0.263738 1.000000 -0.036369 -0.272173 1.000000 -0.038353 -0.279317 1.000000 -0.039775 -0.288022 1.000000 -0.041199 -0.295031 1.000000 -0.042243 -0.303793 1.000000 -0.043001 -0.310439 1.000000 -0.043638 -0.319009 1.000000 -0.043582 -0.325067 1.000000 -0.043749 -0.333164 1.000000 -0.042685 -0.338426 1.000000 -0.042277 -0.345723 1.000000 -0.039985 -0.349996 1.000000 -0.038861 -0.356098 1.000000 -0.035149 -0.359173 1.000000 -0.033161 -0.363598 1.000000 -0.027947 -0.365233 1.000000 -0.024995 -0.367430 1.000000 -0.018403 -0.367348 1.000000 -0.014505 -0.366781 1.000000 -0.006935 -0.364719 1.000000 -0.002280 -0.361018 1.000000 0.005611 -0.356813 1.000000 0.010654 -0.349936 1.000000 0.018075 -0.343617 1.000000 0.023021 -0.333942 1.000000 0.029237 -0.325793 1.000000 0.033606 -0.314071 1.000000 0.038116 -0.304613 1.000000 0.041550 -0.291807 1.000000 0.044165 -0.281708 1.000000 0.046494 -0.268794 1.000000 0.047304 -0.258747 1.000000 0.048530 -0.246566 1.000000 0.047810 -0.237190 1.000000 0.048055 -0.226372 1.000000 0.046156 -0.218153 1.000000 0.045600 -0.209106 1.000000 0.042865 -0.202373 1.000000 
0.047659 -0.192467 1.000000 0.043360 -0.187127 1.000000 0.040880 -0.181931 1.000000 0.036283 -0.178405 1.000000 0.033468 -0.175296 1.000000 0.028748 -0.173522 1.000000 0.025707 -0.172339 1.000000 0.020970 -0.172188 1.000000 0.017775 -0.172729 1.000000 0.013080 -0.174032 1.000000 0.009782 -0.176080 1.000000 0.005165 -0.178651 1.000000 0.001809 -0.181995 1.000000 -0.002699 -0.185650 1.000000 -0.006060 -0.190102 1.000000 -0.010423 -0.194676 1.000000 -0.013722 -0.200083 1.000000 -0.017893 -0.205437 1.000000 -0.021051 -0.211682 1.000000 -0.024968 -0.217699 1.000000 -0.027898 -0.224697 1.000000 -0.031493 -0.231271 1.000000 -0.034111 -0.238945 1.000000 -0.037310 -0.245957 1.000000 -0.039545 -0.254220 1.000000 -0.042268 -0.261522 1.000000 -0.044068 -0.270252 1.000000 -0.046230 -0.277656 1.000000 -0.047563 -0.286691 1.000000 -0.049066 -0.293978 1.000000 -0.049912 -0.303118 1.000000 -0.050630 -0.310059 1.000000 -0.050964 -0.319075 1.000000 -0.050728 -0.325458 1.000000 -0.050498 -0.334091 1.000000 -0.049085 -0.339730 1.000000 -0.048192 -0.347671 1.000000 -0.045338 -0.352393 1.000000 -0.043630 -0.359241 1.000000 -0.039086 -0.362846 1.000000 -0.036397 -0.368065 1.000000 -0.030033 -0.370287 1.000000 -0.026247 -0.373220 1.000000 -0.018193 -0.373714 1.000000 -0.013336 -0.373678 1.000000 -0.004083 -0.372071 1.000000 0.001600 -0.368550 1.000000 0.011204 -0.364559 1.000000 0.017250 -0.357428 1.000000 0.026167 -0.351001 1.000000 0.031973 -0.340659 1.000000 0.039259 -0.332084 1.000000 0.044237 -0.319403 1.000000 0.049286 -0.309288 1.000000 0.053012 -0.295405 1.000000 0.055644 -0.284547 1.000000 0.057934 -0.270599 1.000000 0.058331 -0.259812 1.000000 0.059225 -0.246747 1.000000 0.057782 -0.236728 1.000000 0.057465 -0.225226 1.000000 0.054654 -0.216491 1.000000 0.053379 -0.206960 1.000000 0.049643 -0.199841 1.000000 
0.054403 -0.189031 1.000000 0.048943 -0.183474 1.000000 0.045487 -0.178166 1.000000 0.039783 -0.174503 1.000000 0.036036 -0.171369 1.000000 0.030301 -0.169515 1.000000 0.026404 -0.168355 1.000000 0.020763 -0.168161 1.000000 0.016806 -0.168749 1.000000 0.011325 -0.170033 1.000000 0.007365 -0.172139 1.000000 0.002075 -0.174712 1.000000 -0.001848 -0.178120 1.000000 -0.006929 -0.181797 1.000000 -0.010773 -0.186320 1.000000 -0.015626 -0.190943 1.000000 -0.019341 -0.196434 1.000000 -0.023937 -0.201868 1.000000 -0.027456 -0.208218 1.000000 -0.031749 -0.214350 1.000000 -0.034990 -0.221481 1.000000 -0.038916 -0.228205 1.000000 -0.041789 -0.236049 1.000000 -0.045267 -0.243239 1.000000 -0.047683 -0.251715 1.000000 -0.050618 -0.259215 1.000000 -0.052504 -0.268211 1.000000 -0.054793 -0.275822 1.000000 -0.056097 -0.285185 1.000000 -0.057626 -0.292682 1.000000 -0.058325 -0.302229 1.000000 -0.058958 -0.309386 1.000000 -0.059037 -0.318911 1.000000 -0.058598 -0.325532 1.000000 -0.058021 -0.334807 1.000000 -0.056265 -0.340733 1.000000 -0.054941 -0.349471 1.000000 -0.051554 -0.354557 1.000000 -0.049315 -0.362350 1.000000 -0.043973 -0.366407 1.000000 -0.040603 -0.372651 1.000000 -0.033102 -0.375383 1.000000 -0.028423 -0.379270 1.000000 -0.018861 -0.380258 1.000000 -0.012863 -0.380891 1.000000 -0.001808 -0.379656 1.000000 0.005231 -0.376305 1.000000 0.016734 -0.372462 1.000000 0.024211 -0.364899 1.000000 0.034844 -0.358340 1.000000 0.041938 -0.347034 1.000000 0.050494 -0.338057 1.000000 0.056400 -0.324098 1.000000 0.062116 -0.313388 1.000000 0.066290 -0.298165 1.000000 0.068973 -0.286631 1.000000 0.071228 -0.271481 1.000000 0.071157 -0.260037 1.000000 0.071613 -0.246017 1.000000 0.069333 -0.235431 1.000000 0.068291 -0.223245 1.000000 0.064422 -0.214066 1.000000 0.062250 -0.204094 1.000000 0.057359 -0.196653 1.000000 