# vtk DataFile Version 2.0
Comment goes here
ASCII

DATASET STRUCTURED_POINTS
DIMENSIONS    64   64   1

ORIGIN    0.000   0.000   0.000
SPACING   0.0156250.015625   1.000

POINT_DATA   4096
VECTORS u double

-0.015682 -0.174885 1.000000 -0.004873 -0.169888 1.000000 0.006259 -0.166343 1.000000 0.017095 -0.164767 1.000000 0.027947 -0.164828 1.000000 0.038113 -0.166968 1.000000 0.047845 -0.170838 1.000000 0.056358 -0.176720 1.000000 0.063893 -0.184175 1.000000 0.069621 -0.193235 1.000000 0.073941 -0.203325 1.000000 0.076037 -0.214225 1.000000 0.076706 -0.225305 1.000000 0.075133 -0.236198 1.000000 0.072678 -0.246423 1.000000 0.068404 -0.255622 1.000000 0.064246 -0.263642 1.000000 0.059001 -0.270266 1.000000 0.055006 -0.275724 1.000000 0.050729 -0.280060 1.000000 0.048585 -0.283795 1.000000 0.046727 -0.287285 1.000000 0.047248 -0.291142 1.000000 0.048059 -0.295921 1.000000 0.050642 -0.302027 1.000000 0.052862 -0.309922 1.000000 0.055564 -0.319511 1.000000 0.056945 -0.330903 1.000000 0.057435 -0.343452 1.000000 0.055998 -0.356931 1.000000 0.052839 -0.370423 1.000000 0.047914 -0.383620 1.000000 0.041167 -0.395738 1.000000 0.033468 -0.406587 1.000000 0.024309 -0.415767 1.000000 0.015242 -0.423203 1.000000 0.005159 -0.428948 1.000000 -0.003973 -0.432897 1.000000 -0.013849 -0.435485 1.000000 -0.022325 -0.436418 1.000000 -0.031518 -0.436361 1.000000 -0.039262 -0.434730 1.000000 -0.047811 -0.432253 1.000000 -0.055038 -0.428102 1.000000 -0.063035 -0.422977 1.000000 -0.069751 -0.415991 1.000000 -0.076930 -0.407824 1.000000 -0.082689 -0.397759 1.000000 -0.088392 -0.386466 1.000000 -0.092455 -0.373533 1.000000 -0.095920 -0.359582 1.000000 -0.097605 -0.344524 1.000000 -0.098293 -0.328855 1.000000 -0.097237 -0.312753 1.000000 -0.095003 -0.296518 1.000000 -0.091244 -0.280510 1.000000 -0.086318 -0.264809 1.000000 -0.080201 -0.249878 1.000000 -0.073047 -0.235595 1.000000 -0.065063 -0.222477 1.000000 -0.056211 -0.210251 1.000000 -0.046852 -0.199464 1.000000 -0.036795 -0.189759 1.000000 -0.026504 -0.181692 1.000000 
-0.009735 -0.184980 1.000000 -0.000483 -0.180086 1.000000 0.009123 -0.176456 1.000000 0.018254 -0.174685 1.000000 0.027513 -0.174338 1.000000 0.035914 -0.175869 1.000000 0.044114 -0.178911 1.000000 0.050992 -0.183672 1.000000 0.057277 -0.189852 1.000000 0.061785 -0.197318 1.000000 0.065384 -0.205844 1.000000 0.066941 -0.214945 1.000000 0.067547 -0.224528 1.000000 0.066195 -0.233866 1.000000 0.064234 -0.243070 1.000000 0.060765 -0.251386 1.000000 0.057356 -0.259134 1.000000 0.053107 -0.265766 1.000000 0.049719 -0.271735 1.000000 0.046149 -0.276876 1.000000 0.044084 -0.281656 1.000000 0.042247 -0.286339 1.000000 0.042110 -0.291267 1.000000 0.042159 -0.296999 1.000000 0.043492 -0.303591 1.000000 0.044490 -0.311627 1.000000 0.045861 -0.320738 1.000000 0.046185 -0.331297 1.000000 0.045893 -0.342531 1.000000 0.044105 -0.354567 1.000000 0.041079 -0.366464 1.000000 0.036668 -0.378226 1.000000 0.030900 -0.389054 1.000000 0.024351 -0.398941 1.000000 0.016666 -0.407443 1.000000 0.009001 -0.414530 1.000000 0.000494 -0.420183 1.000000 -0.007291 -0.424253 1.000000 -0.015736 -0.427100 1.000000 -0.023031 -0.428361 1.000000 -0.030968 -0.428649 1.000000 -0.037605 -0.427345 1.000000 -0.044940 -0.425174 1.000000 -0.050969 -0.421325 1.000000 -0.057661 -0.416539 1.000000 -0.063016 -0.409973 1.000000 -0.068808 -0.402347 1.000000 -0.073147 -0.392977 1.000000 -0.077543 -0.382532 1.000000 -0.080347 -0.370611 1.000000 -0.082798 -0.357784 1.000000 -0.083596 -0.343962 1.000000 -0.083725 -0.329556 1.000000 -0.082281 -0.314749 1.000000 -0.079998 -0.299745 1.000000 -0.076361 -0.284934 1.000000 -0.071853 -0.270299 1.000000 -0.066301 -0.256367 1.000000 -0.059935 -0.242918 1.000000 -0.052858 -0.230567 1.000000 -0.045063 -0.218936 1.000000 -0.036873 -0.208692 1.000000 -0.028068 -0.199361 1.000000 -0.019153 -0.191627 1.000000 
-0.004101 -0.193555 1.000000 0.003735 -0.188746 1.000000 0.011803 -0.185080 1.000000 0.019439 -0.183157 1.000000 0.027100 -0.182488 1.000000 0.034023 -0.183569 1.000000 0.040699 -0.185917 1.000000 0.046276 -0.189883 1.000000 0.051317 -0.194968 1.000000 0.054901 -0.201343 1.000000 0.057759 -0.208482 1.000000 0.058920 -0.216387 1.000000 0.059406 -0.224559 1.000000 0.058188 -0.232885 1.000000 0.056655 -0.240993 1.000000 0.053665 -0.248745 1.000000 0.050963 -0.255985 1.000000 0.047235 -0.262628 1.000000 0.044461 -0.268766 1.000000 0.041126 -0.274425 1.000000 0.039246 -0.279893 1.000000 0.037126 -0.285311 1.000000 0.036582 -0.291055 1.000000 0.035816 -0.297303 1.000000 0.036268 -0.304358 1.000000 0.036194 -0.312291 1.000000 0.036606 -0.321205 1.000000 0.036064 -0.330935 1.000000 0.035207 -0.341373 1.000000 0.033158 -0.352117 1.000000 0.030241 -0.362986 1.000000 0.026290 -0.373442 1.000000 0.021278 -0.383422 1.000000 0.015746 -0.392352 1.000000 0.009222 -0.400416 1.000000 0.002846 -0.407031 1.000000 -0.004369 -0.412656 1.000000 -0.010833 -0.416667 1.000000 -0.018031 -0.419745 1.000000 -0.024076 -0.421187 1.000000 -0.030837 -0.421786 1.000000 -0.036261 -0.420758 1.000000 -0.042413 -0.418890 1.000000 -0.047175 -0.415381 1.000000 -0.052607 -0.410930 1.000000 -0.056616 -0.404844 1.000000 -0.061100 -0.397693 1.000000 -0.064109 -0.389024 1.000000 -0.067286 -0.379266 1.000000 -0.068943 -0.368278 1.000000 -0.070440 -0.356332 1.000000 -0.070441 -0.343597 1.000000 -0.070017 -0.330170 1.000000 -0.068223 -0.316480 1.000000 -0.065844 -0.302438 1.000000 -0.062317 -0.288654 1.000000 -0.058149 -0.274869 1.000000 -0.053114 -0.261797 1.000000 -0.047457 -0.249037 1.000000 -0.041224 -0.237348 1.000000 -0.034428 -0.226236 1.000000 -0.027331 -0.216459 1.000000 -0.019751 -0.207479 1.000000 -0.012114 -0.200025 1.000000 
0.001566 -0.200830 1.000000 0.008038 -0.195990 1.000000 0.014790 -0.192160 1.000000 0.020969 -0.189982 1.000000 0.027286 -0.188922 1.000000 0.032749 -0.189468 1.000000 0.038158 -0.191164 1.000000 0.042410 -0.194290 1.000000 0.046404 -0.198477 1.000000 0.048972 -0.203759 1.000000 0.051143 -0.209864 1.000000 0.051744 -0.216593 1.000000 0.051969 -0.223796 1.000000 0.050682 -0.231115 1.000000 0.049253 -0.238547 1.000000 0.046571 -0.245695 1.000000 0.044159 -0.252703 1.000000 0.040878 -0.259264 1.000000 0.038335 -0.265626 1.000000 0.035303 -0.271662 1.000000 0.033370 -0.277656 1.000000 0.031187 -0.283675 1.000000 0.030200 -0.289957 1.000000 0.028963 -0.296685 1.000000 0.028678 -0.303969 1.000000 0.027912 -0.311965 1.000000 0.027585 -0.320607 1.000000 0.026470 -0.329898 1.000000 0.025218 -0.339626 1.000000 0.023020 -0.349602 1.000000 0.020263 -0.359596 1.000000 0.016694 -0.369263 1.000000 0.012386 -0.378510 1.000000 0.007676 -0.386885 1.000000 0.002228 -0.394543 1.000000 -0.003076 -0.400939 1.000000 -0.009052 -0.406503 1.000000 -0.014361 -0.410591 1.000000 -0.020306 -0.413858 1.000000 -0.025192 -0.415555 1.000000 -0.030733 -0.416465 1.000000 -0.034981 -0.415768 1.000000 -0.039920 -0.414260 1.000000 -0.043451 -0.411132 1.000000 -0.047649 -0.407097 1.000000 -0.050379 -0.401480 1.000000 -0.053647 -0.394854 1.000000 -0.055415 -0.386791 1.000000 -0.057504 -0.377698 1.000000 -0.058101 -0.367456 1.000000 -0.058767 -0.356286 1.000000 -0.058024 -0.344385 1.000000 -0.057126 -0.331775 1.000000 -0.054988 -0.318922 1.000000 -0.052533 -0.305651 1.000000 -0.049079 -0.292629 1.000000 -0.045215 -0.279502 1.000000 -0.040632 -0.267060 1.000000 -0.035602 -0.254808 1.000000 -0.030137 -0.243595 1.000000 -0.024226 -0.232830 1.000000 -0.018146 -0.223370 1.000000 -0.011646 -0.214578 1.000000 -0.005224 -0.207277 1.000000 
0.007197 -0.206818 1.000000 0.012430 -0.201969 1.000000 0.017854 -0.198010 1.000000 0.022743 -0.195654 1.000000 0.027711 -0.194268 1.000000 0.031919 -0.194441 1.000000 0.036065 -0.195578 1.000000 0.039209 -0.198129 1.000000 0.042157 -0.201530 1.000000 0.043883 -0.206081 1.000000 0.045349 -0.211254 1.000000 0.045457 -0.217214 1.000000 0.045380 -0.223497 1.000000 0.043940 -0.230169 1.000000 0.042561 -0.236882 1.000000 0.039960 -0.243651 1.000000 0.037792 -0.250291 1.000000 0.034645 -0.256804 1.000000 0.032326 -0.263191 1.000000 0.029292 -0.269460 1.000000 0.027372 -0.275777 1.000000 0.024923 -0.282142 1.000000 0.023652 -0.288831 1.000000 0.021887 -0.295780 1.000000 0.021092 -0.303308 1.000000 0.019696 -0.311198 1.000000 0.018851 -0.319763 1.000000 0.017256 -0.328568 1.000000 0.015734 -0.337923 1.000000 0.013426 -0.347162 1.000000 0.010809 -0.356660 1.000000 0.007583 -0.365565 1.000000 0.003833 -0.374404 1.000000 -0.000144 -0.382194 1.000000 -0.004725 -0.389665 1.000000 -0.009044 -0.395751 1.000000 -0.013984 -0.401371 1.000000 -0.018185 -0.405413 1.000000 -0.023027 -0.408915 1.000000 -0.026752 -0.410760 1.000000 -0.031159 -0.411996 1.000000 -0.034207 -0.411571 1.000000 -0.037974 -0.410420 1.000000 -0.040255 -0.407653 1.000000 -0.043242 -0.404002 1.000000 -0.044700 -0.398845 1.000000 -0.046770 -0.392656 1.000000 -0.047327 -0.385168 1.000000 -0.048331 -0.376581 1.000000 -0.047900 -0.367015 1.000000 -0.047716 -0.356408 1.000000 -0.046244 -0.345238 1.000000 -0.044829 -0.333206 1.000000 -0.042333 -0.321073 1.000000 -0.039741 -0.308347 1.000000 -0.036319 -0.295972 1.000000 -0.032696 -0.283316 1.000000 -0.028507 -0.271410 1.000000 -0.024054 -0.259532 1.000000 -0.019289 -0.248725 1.000000 -0.014231 -0.238227 1.000000 -0.009094 -0.229039 1.000000 -0.003664 -0.220401 1.000000 0.001636 -0.213237 1.000000 
0.012841 -0.211624 1.000000 0.016859 -0.206647 1.000000 0.021127 -0.202472 1.000000 0.024745 -0.199839 1.000000 0.028549 -0.198099 1.000000 0.031508 -0.197822 1.000000 0.034564 -0.198455 1.000000 0.036582 -0.200382 1.000000 0.038606 -0.203151 1.000000 0.039433 -0.206952 1.000000 0.040224 -0.211437 1.000000 0.039738 -0.216623 1.000000 0.039267 -0.222280 1.000000 0.037555 -0.228296 1.000000 0.036026 -0.234567 1.000000 0.033403 -0.240925 1.000000 0.031222 -0.247388 1.000000 0.028164 -0.253798 1.000000 0.025832 -0.260273 1.000000 0.022837 -0.266708 1.000000 0.020780 -0.273287 1.000000 0.018202 -0.279954 1.000000 0.016618 -0.286921 1.000000 0.014539 -0.294125 1.000000 0.013316 -0.301778 1.000000 0.011524 -0.309724 1.000000 0.010294 -0.318167 1.000000 0.008402 -0.326781 1.000000 0.006723 -0.335796 1.000000 0.004382 -0.344677 1.000000 0.001954 -0.353754 1.000000 -0.000964 -0.362288 1.000000 -0.004170 -0.370783 1.000000 -0.007526 -0.378328 1.000000 -0.011285 -0.385643 1.000000 -0.014753 -0.391680 1.000000 -0.018702 -0.397362 1.000000 -0.021908 -0.401548 1.000000 -0.025674 -0.405290 1.000000 -0.028311 -0.407422 1.000000 -0.031602 -0.409010 1.000000 -0.033485 -0.408954 1.000000 -0.036107 -0.408212 1.000000 -0.037161 -0.405864 1.000000 -0.038993 -0.402652 1.000000 -0.039203 -0.397952 1.000000 -0.040157 -0.392227 1.000000 -0.039535 -0.385231 1.000000 -0.039548 -0.377125 1.000000 -0.038118 -0.368071 1.000000 -0.037167 -0.357942 1.000000 -0.034982 -0.347273 1.000000 -0.033101 -0.335686 1.000000 -0.030247 -0.324009 1.000000 -0.027530 -0.311665 1.000000 -0.024125 -0.299674 1.000000 -0.020712 -0.287314 1.000000 -0.016891 -0.275702 1.000000 -0.012949 -0.264026 1.000000 -0.008854 -0.253417 1.000000 -0.004555 -0.243025 1.000000 -0.000329 -0.233937 1.000000 0.004153 -0.225308 1.000000 0.008361 -0.218138 1.000000 
0.018693 -0.215316 1.000000 0.021589 -0.210255 1.000000 0.024672 -0.205895 1.000000 0.027134 -0.203076 1.000000 0.029753 -0.201032 1.000000 0.031597 -0.200456 1.000000 0.033550 -0.200652 1.000000 0.034572 -0.202171 1.000000 0.035661 -0.204381 1.000000 0.035685 -0.207699 1.000000 0.035780 -0.211559 1.000000 0.034728 -0.216258 1.000000 0.033829 -0.221314 1.000000 0.031779 -0.226928 1.000000 0.030057 -0.232730 1.000000 0.027259 -0.238847 1.000000 0.025030 -0.245052 1.000000 0.021858 -0.251413 1.000000 0.019499 -0.257864 1.000000 0.016345 -0.264408 1.000000 0.014180 -0.271142 1.000000 0.011331 -0.277980 1.000000 0.009513 -0.285168 1.000000 0.007059 -0.292479 1.000000 0.005521 -0.300292 1.000000 0.003336 -0.308176 1.000000 0.001826 -0.316641 1.000000 -0.000337 -0.324997 1.000000 -0.002125 -0.333903 1.000000 -0.004495 -0.342393 1.000000 -0.006766 -0.351314 1.000000 -0.009414 -0.359442 1.000000 -0.012179 -0.367842 1.000000 -0.014982 -0.375079 1.000000 -0.018061 -0.382437 1.000000 -0.020753 -0.388333 1.000000 -0.023849 -0.394216 1.000000 -0.026117 -0.398441 1.000000 -0.028912 -0.402512 1.000000 -0.030492 -0.404833 1.000000 -0.032722 -0.406822 1.000000 -0.033450 -0.407065 1.000000 -0.034937 -0.406744 1.000000 -0.034759 -0.404768 1.000000 -0.035408 -0.401960 1.000000 -0.034360 -0.397681 1.000000 -0.034142 -0.392325 1.000000 -0.032322 -0.385777 1.000000 -0.031269 -0.377998 1.000000 -0.028811 -0.369396 1.000000 -0.027006 -0.359544 1.000000 -0.024066 -0.349304 1.000000 -0.021634 -0.337941 1.000000 -0.018369 -0.326643 1.000000 -0.015453 -0.314470 1.000000 -0.012005 -0.302790 1.000000 -0.008753 -0.290550 1.000000 -0.005240 -0.279173 1.000000 -0.001784 -0.267569 1.000000 0.001701 -0.257119 1.000000 0.005241 -0.246752 1.000000 0.008619 -0.237747 1.000000 0.012134 -0.229091 1.000000 0.015322 -0.221925 1.000000 
0.024513 -0.217890 1.000000 0.026284 -0.212626 1.000000 0.028311 -0.208017 1.000000 0.029616 -0.204920 1.000000 0.031181 -0.202562 1.000000 0.031905 -0.201618 1.000000 0.032870 -0.201429 1.000000 0.032880 -0.202493 1.000000 0.033111 -0.204264 1.000000 0.032296 -0.207071 1.000000 0.031711 -0.210480 1.000000 0.030035 -0.214673 1.000000 0.028653 -0.219331 1.000000 0.026198 -0.224524 1.000000 0.024165 -0.230047 1.000000 0.021137 -0.235898 1.000000 0.018709 -0.241987 1.000000 0.015401 -0.248267 1.000000 0.012879 -0.254760 1.000000 0.009594 -0.261389 1.000000 0.007236 -0.268273 1.000000 0.004199 -0.275288 1.000000 0.002137 -0.282649 1.000000 -0.000570 -0.290133 1.000000 -0.002368 -0.298056 1.000000 -0.004812 -0.306029 1.000000 -0.006514 -0.314493 1.000000 -0.008848 -0.322829 1.000000 -0.010661 -0.331638 1.000000 -0.013017 -0.340036 1.000000 -0.015083 -0.348835 1.000000 -0.017482 -0.356875 1.000000 -0.019798 -0.365215 1.000000 -0.022114 -0.372446 1.000000 -0.024535 -0.379872 1.000000 -0.026530 -0.385893 1.000000 -0.028809 -0.391998 1.000000 -0.030206 -0.396485 1.000000 -0.032073 -0.400916 1.000000 -0.032632 -0.403612 1.000000 -0.033850 -0.406052 1.000000 -0.033427 -0.406739 1.000000 -0.033836 -0.406903 1.000000 -0.032408 -0.405393 1.000000 -0.031943 -0.403051 1.000000 -0.029609 -0.399218 1.000000 -0.028299 -0.394265 1.000000 -0.025254 -0.388104 1.000000 -0.023214 -0.380635 1.000000 -0.019709 -0.372333 1.000000 -0.017116 -0.362686 1.000000 -0.013416 -0.352645 1.000000 -0.010472 -0.341384 1.000000 -0.006802 -0.330190 1.000000 -0.003699 -0.318028 1.000000 -0.000222 -0.306374 1.000000 0.002891 -0.294079 1.000000 0.006080 -0.282671 1.000000 0.009098 -0.270966 1.000000 0.011957 -0.260443 1.000000 0.014813 -0.249943 1.000000 0.017330 -0.240830 1.000000 0.019974 -0.232012 1.000000 0.022137 -0.224697 1.000000 
0.030765 -0.219463 1.000000 0.031464 -0.214054 1.000000 0.032381 -0.209227 1.000000 0.032593 -0.205946 1.000000 0.033061 -0.203321 1.000000 0.032738 -0.202144 1.000000 0.032684 -0.201626 1.000000 0.031749 -0.202412 1.000000 0.031098 -0.203797 1.000000 0.029487 -0.206299 1.000000 0.028197 -0.209298 1.000000 0.025898 -0.213200 1.000000 0.024002 -0.217476 1.000000 0.021088 -0.222440 1.000000 0.018709 -0.227669 1.000000 0.015346 -0.233390 1.000000 0.012685 -0.239316 1.000000 0.009107 -0.245583 1.000000 0.006398 -0.252057 1.000000 0.002850 -0.258765 1.000000 0.000295 -0.265747 1.000000 -0.003033 -0.272881 1.000000 -0.005322 -0.280399 1.000000 -0.008341 -0.287973 1.000000 -0.010371 -0.296050 1.000000 -0.013096 -0.304030 1.000000 -0.014969 -0.312606 1.000000 -0.017480 -0.320849 1.000000 -0.019330 -0.329733 1.000000 -0.021689 -0.337971 1.000000 -0.023602 -0.346850 1.000000 -0.025791 -0.354726 1.000000 -0.027749 -0.363209 1.000000 -0.029638 -0.370342 1.000000 -0.031508 -0.378021 1.000000 -0.032878 -0.384059 1.000000 -0.034442 -0.390539 1.000000 -0.035035 -0.395177 1.000000 -0.036042 -0.400086 1.000000 -0.035632 -0.403056 1.000000 -0.035858 -0.406028 1.000000 -0.034310 -0.407079 1.000000 -0.033604 -0.407762 1.000000 -0.030923 -0.406660 1.000000 -0.029250 -0.404759 1.000000 -0.025593 -0.401325 1.000000 -0.023050 -0.396680 1.000000 -0.018714 -0.390863 1.000000 -0.015520 -0.383542 1.000000 -0.010883 -0.375493 1.000000 -0.007338 -0.365838 1.000000 -0.002780 -0.355948 1.000000 0.000807 -0.344555 1.000000 0.004975 -0.333417 1.000000 0.008352 -0.321050 1.000000 0.011936 -0.309380 1.000000 0.014944 -0.296851 1.000000 0.017870 -0.285380 1.000000 0.020441 -0.273446 1.000000 0.022721 -0.262834 1.000000 0.024853 -0.252126 1.000000 0.026550 -0.242908 1.000000 0.028266 -0.233898 1.000000 0.029445 -0.226463 1.000000 
0.036923 -0.219909 1.000000 0.036522 -0.214241 1.000000 0.036421 -0.209146 1.000000 0.035525 -0.205601 1.000000 0.034985 -0.202707 1.000000 0.033603 -0.201241 1.000000 0.032606 -0.200441 1.000000 0.030714 -0.200907 1.000000 0.029229 -0.202002 1.000000 0.026802 -0.204171 1.000000 0.024817 -0.206891 1.000000 0.021865 -0.210478 1.000000 0.019423 -0.214520 1.000000 0.016016 -0.219230 1.000000 0.013225 -0.224305 1.000000 0.009500 -0.229874 1.000000 0.006527 -0.235748 1.000000 0.002670 -0.241981 1.000000 -0.000293 -0.248503 1.000000 -0.004088 -0.255286 1.000000 -0.006872 -0.262390 1.000000 -0.010447 -0.269670 1.000000 -0.012950 -0.277341 1.000000 -0.016217 -0.285084 1.000000 -0.018423 -0.293300 1.000000 -0.021366 -0.301431 1.000000 -0.023332 -0.310110 1.000000 -0.025975 -0.318468 1.000000 -0.027784 -0.327429 1.000000 -0.030134 -0.335764 1.000000 -0.031838 -0.344733 1.000000 -0.033841 -0.352728 1.000000 -0.035415 -0.361367 1.000000 -0.036926 -0.368686 1.000000 -0.038251 -0.376632 1.000000 -0.039048 -0.382959 1.000000 -0.039929 -0.389841 1.000000 -0.039753 -0.394884 1.000000 -0.039954 -0.400318 1.000000 -0.038576 -0.403796 1.000000 -0.037877 -0.407374 1.000000 -0.035166 -0.408992 1.000000 -0.033424 -0.410290 1.000000 -0.029412 -0.409747 1.000000 -0.026616 -0.408381 1.000000 -0.021539 -0.405417 1.000000 -0.017847 -0.401145 1.000000 -0.012125 -0.395634 1.000000 -0.007854 -0.388467 1.000000 -0.002015 -0.380516 1.000000 0.002421 -0.370789 1.000000 0.007861 -0.360790 1.000000 0.012052 -0.349139 1.000000 0.016699 -0.337735 1.000000 0.020335 -0.324990 1.000000 0.023975 -0.312967 1.000000 0.026889 -0.300013 1.000000 0.029483 -0.288167 1.000000 0.031642 -0.275818 1.000000 0.033277 -0.264854 1.000000 0.034738 -0.253771 1.000000 0.035558 -0.244243 1.000000 0.036419 -0.234907 1.000000 0.036573 -0.227197 1.000000 
0.043721 -0.219413 1.000000 0.042228 -0.213551 1.000000 0.041022 -0.208229 1.000000 0.039034 -0.204511 1.000000 0.037422 -0.201399 1.000000 0.035005 -0.199765 1.000000 0.033018 -0.198737 1.000000 0.030190 -0.199034 1.000000 0.027836 -0.199885 1.000000 0.024601 -0.201888 1.000000 0.021893 -0.204361 1.000000 0.018272 -0.207806 1.000000 0.015253 -0.211627 1.000000 0.011307 -0.216241 1.000000 0.008068 -0.221153 1.000000 0.003907 -0.226692 1.000000 0.000582 -0.232487 1.000000 -0.003644 -0.238763 1.000000 -0.006903 -0.245300 1.000000 -0.011033 -0.252186 1.000000 -0.014086 -0.259388 1.000000 -0.017981 -0.266803 1.000000 -0.020734 -0.274629 1.000000 -0.024299 -0.282500 1.000000 -0.026717 -0.290901 1.000000 -0.029905 -0.299121 1.000000 -0.032007 -0.307997 1.000000 -0.034800 -0.316398 1.000000 -0.036627 -0.325573 1.000000 -0.038993 -0.333917 1.000000 -0.040566 -0.343143 1.000000 -0.042425 -0.351150 1.000000 -0.043708 -0.360125 1.000000 -0.044904 -0.367506 1.000000 -0.045781 -0.375899 1.000000 -0.046087 -0.382381 1.000000 -0.046367 -0.389834 1.000000 -0.045512 -0.395151 1.000000 -0.044955 -0.401263 1.000000 -0.042688 -0.405133 1.000000 -0.041056 -0.409438 1.000000 -0.037228 -0.411533 1.000000 -0.034363 -0.413516 1.000000 -0.029017 -0.413468 1.000000 -0.024925 -0.412632 1.000000 -0.018361 -0.410094 1.000000 -0.013272 -0.406095 1.000000 -0.006040 -0.400856 1.000000 -0.000407 -0.393652 1.000000 0.006791 -0.385768 1.000000 0.012384 -0.375714 1.000000 0.018868 -0.365579 1.000000 0.023860 -0.353393 1.000000 0.029122 -0.341700 1.000000 0.033119 -0.328326 1.000000 0.036913 -0.315934 1.000000 0.039743 -0.302359 1.000000 0.042064 -0.290133 1.000000 0.043753 -0.277240 1.000000 0.044768 -0.265931 1.000000 0.045464 -0.254407 1.000000 0.045415 -0.244589 1.000000 0.045312 -0.234912 1.000000 0.044442 -0.226968 1.000000 
0.050340 -0.217695 1.000000 0.047707 -0.211543 1.000000 0.045461 -0.205953 1.000000 0.042356 -0.202001 1.000000 0.039731 -0.198677 1.000000 0.036266 -0.196836 1.000000 0.033338 -0.195626 1.000000 0.029568 -0.195726 1.000000 0.026375 -0.196414 1.000000 0.022326 -0.198228 1.000000 0.018900 -0.200561 1.000000 0.014600 -0.203838 1.000000 0.010989 -0.207555 1.000000 0.006492 -0.212045 1.000000 0.002775 -0.216906 1.000000 -0.001832 -0.222388 1.000000 -0.005542 -0.228197 1.000000 -0.010141 -0.234496 1.000000 -0.013714 -0.241114 1.000000 -0.018174 -0.248102 1.000000 -0.021487 -0.255442 1.000000 -0.025686 -0.263023 1.000000 -0.028646 -0.271023 1.000000 -0.032488 -0.279101 1.000000 -0.035044 -0.287694 1.000000 -0.038463 -0.296140 1.000000 -0.040609 -0.305215 1.000000 -0.043551 -0.313848 1.000000 -0.045303 -0.323236 1.000000 -0.047704 -0.331825 1.000000 -0.049072 -0.341301 1.000000 -0.050824 -0.349586 1.000000 -0.051772 -0.358888 1.000000 -0.052701 -0.366613 1.000000 -0.053127 -0.375450 1.000000 -0.052983 -0.382373 1.000000 -0.052700 -0.390416 1.000000 -0.051181 -0.396296 1.000000 -0.049937 -0.403142 1.000000 -0.046751 -0.407695 1.000000 -0.044279 -0.412834 1.000000 -0.039244 -0.415686 1.000000 -0.035361 -0.418501 1.000000 -0.028529 -0.419186 1.000000 -0.023244 -0.419037 1.000000 -0.015002 -0.417071 1.000000 -0.008611 -0.413465 1.000000 0.000317 -0.408498 1.000000 0.007232 -0.401299 1.000000 0.015923 -0.393307 1.000000 0.022608 -0.382865 1.000000 0.030182 -0.372265 1.000000 0.035930 -0.359393 1.000000 0.041766 -0.346994 1.000000 0.046100 -0.332780 1.000000 0.049942 -0.319590 1.000000 0.052688 -0.305164 1.000000 0.054603 -0.292178 1.000000 0.055844 -0.278521 1.000000 0.056109 -0.266565 1.000000 0.056079 -0.254418 1.000000 0.055054 -0.244091 1.000000 0.054041 -0.233934 1.000000 0.052072 -0.225606 1.000000 
0.057784 -0.215048 1.000000 0.053970 -0.208672 1.000000 0.050564 -0.202878 1.000000 0.046311 -0.198780 1.000000 0.042587 -0.195310 1.000000 0.038056 -0.193372 1.000000 0.034129 -0.192039 1.000000 0.029403 -0.192071 1.000000 0.025334 -0.192643 1.000000 0.020454 -0.194413 1.000000 0.016283 -0.196636 1.000000 0.011278 -0.199895 1.000000 0.007046 -0.203519 1.000000 0.001956 -0.208027 1.000000 -0.002274 -0.212829 1.000000 -0.007383 -0.218376 1.000000 -0.011525 -0.224178 1.000000 -0.016560 -0.230591 1.000000 -0.020508 -0.237266 1.000000 -0.025360 -0.244413 1.000000 -0.029006 -0.251875 1.000000 -0.033562 -0.259644 1.000000 -0.036811 -0.267827 1.000000 -0.040969 -0.276101 1.000000 -0.043755 -0.284926 1.000000 -0.047426 -0.293557 1.000000 -0.049716 -0.302909 1.000000 -0.052822 -0.311703 1.000000 -0.054604 -0.321420 1.000000 -0.057059 -0.330149 1.000000 -0.058329 -0.340023 1.000000 -0.060012 -0.348449 1.000000 -0.060735 -0.358248 1.000000 -0.061465 -0.366152 1.000000 -0.061542 -0.375618 1.000000 -0.061052 -0.382808 1.000000 -0.060291 -0.391636 1.000000 -0.058238 -0.397914 1.000000 -0.056355 -0.405693 1.000000 -0.052379 -0.410790 1.000000 -0.049048 -0.416945 1.000000 -0.042894 -0.420452 1.000000 -0.037865 -0.424231 1.000000 -0.029554 -0.425585 1.000000 -0.022812 -0.426159 1.000000 -0.012790 -0.424727 1.000000 -0.004701 -0.421414 1.000000 0.006125 -0.416698 1.000000 0.014783 -0.409258 1.000000 0.025224 -0.401145 1.000000 0.033425 -0.389973 1.000000 0.042340 -0.378901 1.000000 0.049130 -0.364977 1.000000 0.055737 -0.351870 1.000000 0.060521 -0.336502 1.000000 0.064530 -0.322522 1.000000 0.067154 -0.307021 1.000000 0.068708 -0.293289 1.000000 0.069365 -0.278745 1.000000 0.068872 -0.266166 1.000000 0.067938 -0.253353 1.000000 0.065899 -0.242551 1.000000 0.063796 -0.231930 1.000000 0.060682 -0.223267 1.000000 
0.064936 -0.210983 1.000000 0.059877 -0.204322 1.000000 0.055353 -0.198294 1.000000 0.049925 -0.194025 1.000000 0.045140 -0.190422 1.000000 0.039537 -0.188378 1.000000 0.034638 -0.186973 1.000000 0.028963 -0.186931 1.000000 0.024033 -0.187465 1.000000 0.018333 -0.189176 1.000000 0.013418 -0.191385 1.000000 0.007717 -0.194601 1.000000 0.002856 -0.198234 1.000000 -0.002819 -0.202725 1.000000 -0.007574 -0.207567 1.000000 -0.013181 -0.213138 1.000000 -0.017757 -0.219020 1.000000 -0.023228 -0.225512 1.000000 -0.027535 -0.232314 1.000000 -0.032782 -0.239604 1.000000 -0.036718 -0.247239 1.000000 -0.041637 -0.255217 1.000000 -0.045102 -0.263617 1.000000 -0.049587 -0.272157 1.000000 -0.052500 -0.281237 1.000000 -0.056446 -0.290180 1.000000 -0.058756 -0.299820 1.000000 -0.062062 -0.308960 1.000000 -0.063749 -0.318999 1.000000 -0.066308 -0.328100 1.000000 -0.067372 -0.338348 1.000000 -0.069048 -0.347180 1.000000 -0.069476 -0.357436 1.000000 -0.070071 -0.365806 1.000000 -0.069784 -0.375863 1.000000 -0.069000 -0.383624 1.000000 -0.067807 -0.393229 1.000000 -0.065237 -0.400232 1.000000 -0.062814 -0.409001 1.000000 -0.058001 -0.415002 1.000000 -0.053943 -0.422319 1.000000 -0.046529 -0.426869 1.000000 -0.040496 -0.431842 1.000000 -0.030456 -0.434240 1.000000 -0.022387 -0.435801 1.000000 -0.010257 -0.435181 1.000000 -0.000582 -0.432380 1.000000 0.012473 -0.427982 1.000000 0.022784 -0.420398 1.000000 0.035209 -0.411949 1.000000 0.044853 -0.399981 1.000000 0.055179 -0.387971 1.000000 0.062959 -0.372790 1.000000 0.070243 -0.358385 1.000000 0.075447 -0.341573 1.000000 0.079424 -0.326224 1.000000 0.081920 -0.309343 1.000000 0.082880 -0.294388 1.000000 0.082966 -0.278685 1.000000 0.081503 -0.265138 1.000000 0.079694 -0.251445 1.000000 0.076478 -0.239949 1.000000 0.073325 -0.228717 1.000000 0.068955 -0.219594 1.000000 
0.073057 -0.205970 1.000000 0.066659 -0.199089 1.000000 0.060861 -0.192926 1.000000 0.054183 -0.188567 1.000000 0.048234 -0.184922 1.000000 0.041505 -0.182870 1.000000 0.035576 -0.181465 1.000000 0.028911 -0.181465 1.000000 0.023088 -0.182013 1.000000 0.016535 -0.183798 1.000000 0.010858 -0.186020 1.000000 0.004428 -0.189334 1.000000 -0.001079 -0.192982 1.000000 -0.007378 -0.197597 1.000000 -0.012687 -0.202468 1.000000 -0.018835 -0.208192 1.000000 -0.023899 -0.214130 1.000000 -0.029853 -0.220813 1.000000 -0.034599 -0.227712 1.000000 -0.040286 -0.235231 1.000000 -0.044618 -0.243020 1.000000 -0.049939 -0.251260 1.000000 -0.053751 -0.259877 1.000000 -0.058589 -0.268703 1.000000 -0.061778 -0.278067 1.000000 -0.066010 -0.287301 1.000000 -0.068495 -0.297294 1.000000 -0.072001 -0.306710 1.000000 -0.073745 -0.317174 1.000000 -0.076409 -0.326526 1.000000 -0.077408 -0.337283 1.000000 -0.079100 -0.346345 1.000000 -0.079362 -0.357225 1.000000 -0.079891 -0.365843 1.000000 -0.079361 -0.376689 1.000000 -0.078416 -0.384785 1.000000 -0.076901 -0.395398 1.000000 -0.074009 -0.402907 1.000000 -0.071127 -0.412929 1.000000 -0.065695 -0.419661 1.000000 -0.060918 -0.428417 1.000000 -0.052416 -0.433899 1.000000 -0.045239 -0.440305 1.000000 -0.033512 -0.443693 1.000000 -0.023756 -0.446357 1.000000 -0.009370 -0.446532 1.000000 0.002496 -0.444145 1.000000 0.018105 -0.440064 1.000000 0.030815 -0.431994 1.000000 0.045640 -0.423214 1.000000 0.057401 -0.409943 1.000000 0.069533 -0.397007 1.000000 0.078714 -0.380040 1.000000 0.086956 -0.364359 1.000000 0.092681 -0.345684 1.000000 0.096763 -0.328994 1.000000 0.098988 -0.310477 1.000000 0.099368 -0.294335 1.000000 0.098613 -0.277368 1.000000 0.096113 -0.262894 1.000000 0.093126 -0.248327 1.000000 0.088629 -0.236182 1.000000 0.084150 -0.224407 1.000000 0.078417 -0.214878 1.000000 
0.080725 -0.199225 1.000000 0.072921 -0.192125 1.000000 0.065875 -0.185817 1.000000 0.057930 -0.181399 1.000000 0.050837 -0.177744 1.000000 0.042994 -0.175719 1.000000 0.036043 -0.174379 1.000000 0.028416 -0.174443 1.000000 0.021700 -0.175089 1.000000 0.014326 -0.176946 1.000000 0.007881 -0.179278 1.000000 0.000754 -0.182664 1.000000 -0.005407 -0.186428 1.000000 -0.012304 -0.191117 1.000000 -0.018169 -0.196109 1.000000 -0.024843 -0.201925 1.000000 -0.030378 -0.208002 1.000000 -0.036811 -0.214813 1.000000 -0.041954 -0.221881 1.000000 -0.048090 -0.229585 1.000000 -0.052746 -0.237586 1.000000 -0.058494 -0.246084 1.000000 -0.062544 -0.254966 1.000000 -0.067777 -0.264131 1.000000 -0.071097 -0.273816 1.000000 -0.075673 -0.283462 1.000000 -0.078165 -0.293828 1.000000 -0.081943 -0.303710 1.000000 -0.083564 -0.314591 1.000000 -0.086417 -0.324437 1.000000 -0.087192 -0.335656 1.000000 -0.088990 -0.345227 1.000000 -0.088975 -0.356645 1.000000 -0.089533 -0.365807 1.000000 -0.088727 -0.377338 1.000000 -0.087708 -0.386084 1.000000 -0.085931 -0.397637 1.000000 -0.082766 -0.406007 1.000000 -0.079570 -0.417315 1.000000 -0.073486 -0.425211 1.000000 -0.068184 -0.435598 1.000000 -0.058414 -0.442547 1.000000 -0.050293 -0.450746 1.000000 -0.036506 -0.455723 1.000000 -0.025228 -0.459943 1.000000 -0.008044 -0.461433 1.000000 0.005888 -0.459855 1.000000 0.024626 -0.456302 1.000000 0.039636 -0.447933 1.000000 0.057264 -0.438534 1.000000 0.071059 -0.423874 1.000000 0.085086 -0.409284 1.000000 0.095605 -0.390213 1.000000 0.104603 -0.372352 1.000000 0.110809 -0.351380 1.000000 0.114634 -0.332531 1.000000 0.116576 -0.311948 1.000000 0.115991 -0.294012 1.000000 0.114404 -0.275430 1.000000 0.110546 -0.259652 1.000000 0.106406 -0.243961 1.000000 0.100399 -0.230974 1.000000 0.094628 -0.218505 1.000000 0.087393 -0.208501 1.000000 