# vtk DataFile Version 2.0
Comment goes here
ASCII

DATASET STRUCTURED_POINTS
DIMENSIONS    64   64   1

ORIGIN    0.000   0.000   0.000
SPACING   0.0156250.015625   1.000

POINT_DATA   4096
VECTORS u double

-0.027460 0.002649 1.000000 -0.020651 0.001953 1.000000 -0.017117 0.004386 1.000000 -0.010742 0.003265 1.000000 -0.007588 0.004289 1.000000 -0.001785 0.002616 1.000000 0.000744 0.002410 1.000000 0.005765 0.000173 1.000000 0.007159 -0.001004 1.000000 0.011163 -0.003353 1.000000 0.010931 -0.004964 1.000000 0.014106 -0.006207 1.000000 0.012673 -0.007701 1.000000 0.016111 -0.006586 1.000000 0.015481 -0.008771 1.000000 0.019637 -0.005974 1.000000 0.021611 -0.010802 1.000000 0.023145 -0.008321 1.000000 0.027547 -0.012706 1.000000 0.026548 -0.010503 1.000000 0.033446 -0.012240 1.000000 0.032888 -0.010442 1.000000 0.043493 -0.011428 1.000000 0.044458 -0.012796 1.000000 0.058160 -0.015328 1.000000 0.059781 -0.023021 1.000000 0.073645 -0.028056 1.000000 0.074309 -0.043926 1.000000 0.082956 -0.050407 1.000000 0.081625 -0.072671 1.000000 0.079484 -0.077475 1.000000 0.077471 -0.100163 1.000000 0.063197 -0.101450 1.000000 0.062233 -0.118005 1.000000 0.040789 -0.116696 1.000000 0.043387 -0.123254 1.000000 0.021605 -0.122167 1.000000 0.027197 -0.119907 1.000000 0.009344 -0.121611 1.000000 0.015687 -0.114231 1.000000 0.002257 -0.120543 1.000000 0.005524 -0.110765 1.000000 -0.004876 -0.121496 1.000000 -0.009043 -0.109948 1.000000 -0.017176 -0.122133 1.000000 -0.030931 -0.108451 1.000000 -0.035293 -0.117261 1.000000 -0.055361 -0.102651 1.000000 -0.053896 -0.104721 1.000000 -0.073102 -0.092713 1.000000 -0.068228 -0.087442 1.000000 -0.082495 -0.078779 1.000000 -0.076088 -0.067257 1.000000 -0.083195 -0.061357 1.000000 -0.076310 -0.047161 1.000000 -0.076939 -0.043536 1.000000 -0.070369 -0.029964 1.000000 -0.066659 -0.028049 1.000000 -0.060821 -0.016764 1.000000 -0.054803 -0.015974 1.000000 -0.049753 -0.007371 1.000000 -0.042816 -0.007267 1.000000 -0.038426 -0.001120 1.000000 -0.031361 -0.001453 1.000000 
-0.025925 -0.000337 1.000000 -0.020253 -0.000951 1.000000 -0.016879 0.001196 1.000000 -0.011380 0.000163 1.000000 -0.008370 0.001010 1.000000 -0.003241 -0.000468 1.000000 -0.000771 -0.000728 1.000000 0.003802 -0.002561 1.000000 0.005425 -0.003670 1.000000 0.009301 -0.005434 1.000000 0.009888 -0.006977 1.000000 0.013199 -0.007807 1.000000 0.013221 -0.009460 1.000000 0.016481 -0.008556 1.000000 0.017269 -0.010829 1.000000 0.020440 -0.008481 1.000000 0.022969 -0.012367 1.000000 0.024365 -0.009742 1.000000 0.028391 -0.013698 1.000000 0.028427 -0.011533 1.000000 0.034180 -0.014129 1.000000 0.034757 -0.013203 1.000000 0.042967 -0.015036 1.000000 0.044649 -0.017258 1.000000 0.054663 -0.019469 1.000000 0.056589 -0.026906 1.000000 0.065989 -0.030003 1.000000 0.066676 -0.043723 1.000000 0.071661 -0.047178 1.000000 0.070119 -0.065715 1.000000 0.067330 -0.068278 1.000000 0.064463 -0.087132 1.000000 0.053409 -0.088341 1.000000 0.051238 -0.102129 1.000000 0.034585 -0.102376 1.000000 0.034622 -0.108404 1.000000 0.016786 -0.109740 1.000000 0.018989 -0.108801 1.000000 0.003272 -0.113100 1.000000 0.006333 -0.107737 1.000000 -0.006220 -0.116007 1.000000 -0.004658 -0.108286 1.000000 -0.014289 -0.119758 1.000000 -0.016745 -0.110352 1.000000 -0.023518 -0.121885 1.000000 -0.031215 -0.110671 1.000000 -0.034327 -0.117614 1.000000 -0.046056 -0.105405 1.000000 -0.044937 -0.104705 1.000000 -0.057929 -0.094007 1.000000 -0.054006 -0.086567 1.000000 -0.065390 -0.078270 1.000000 -0.060124 -0.066371 1.000000 -0.067461 -0.060413 1.000000 -0.061721 -0.047107 1.000000 -0.064409 -0.043222 1.000000 -0.058783 -0.030914 1.000000 -0.057683 -0.028666 1.000000 -0.052508 -0.018525 1.000000 -0.048911 -0.017428 1.000000 -0.044287 -0.009697 1.000000 -0.039316 -0.009363 1.000000 -0.035198 -0.003829 1.000000 -0.029636 -0.004020 1.000000 
-0.024386 -0.006734 1.000000 -0.019110 -0.007092 1.000000 -0.015991 -0.004487 1.000000 -0.010911 -0.005244 1.000000 -0.008197 -0.003851 1.000000 -0.003495 -0.004983 1.000000 -0.001318 -0.004632 1.000000 0.002852 -0.006022 1.000000 0.004303 -0.006504 1.000000 0.007855 -0.007816 1.000000 0.008528 -0.008861 1.000000 0.011573 -0.009541 1.000000 0.011874 -0.010984 1.000000 0.014728 -0.010634 1.000000 0.015593 -0.012730 1.000000 0.018194 -0.011674 1.000000 0.020453 -0.014727 1.000000 0.021881 -0.013744 1.000000 0.025773 -0.016768 1.000000 0.026100 -0.016292 1.000000 0.031741 -0.018570 1.000000 0.031951 -0.019229 1.000000 0.039416 -0.021320 1.000000 0.040012 -0.024491 1.000000 0.048499 -0.027268 1.000000 0.049230 -0.034347 1.000000 0.056781 -0.038143 1.000000 0.057067 -0.049598 1.000000 0.060844 -0.053850 1.000000 0.060409 -0.068340 1.000000 0.057913 -0.071820 1.000000 0.057292 -0.086242 1.000000 0.048096 -0.088225 1.000000 0.048140 -0.099181 1.000000 0.034476 -0.100080 1.000000 0.035985 -0.105454 1.000000 0.021177 -0.106533 1.000000 0.023803 -0.106393 1.000000 0.010376 -0.108955 1.000000 0.012756 -0.104739 1.000000 0.001688 -0.109552 1.000000 0.001747 -0.102696 1.000000 -0.006966 -0.109408 1.000000 -0.011227 -0.100720 1.000000 -0.017585 -0.107663 1.000000 -0.026808 -0.097642 1.000000 -0.030241 -0.102421 1.000000 -0.042694 -0.092042 1.000000 -0.042701 -0.092849 1.000000 -0.055087 -0.083643 1.000000 -0.052515 -0.079980 1.000000 -0.062289 -0.072661 1.000000 -0.058195 -0.065186 1.000000 -0.063925 -0.059761 1.000000 -0.059109 -0.050213 1.000000 -0.060763 -0.046474 1.000000 -0.055822 -0.036691 1.000000 -0.054287 -0.034324 1.000000 -0.049593 -0.025536 1.000000 -0.045984 -0.024195 1.000000 -0.041694 -0.016966 1.000000 -0.036951 -0.016357 1.000000 -0.033084 -0.010800 1.000000 -0.027867 -0.010726 1.000000 
-0.022288 -0.009095 1.000000 -0.018000 -0.009346 1.000000 -0.015023 -0.007002 1.000000 -0.010733 -0.007632 1.000000 -0.008095 -0.006406 1.000000 -0.004006 -0.007346 1.000000 -0.001793 -0.007075 1.000000 0.001943 -0.008182 1.000000 0.003636 -0.008673 1.000000 0.006937 -0.009658 1.000000 0.008142 -0.010695 1.000000 0.011048 -0.011154 1.000000 0.012102 -0.012615 1.000000 0.014729 -0.012274 1.000000 0.016247 -0.014295 1.000000 0.018486 -0.013341 1.000000 0.020943 -0.016054 1.000000 0.022354 -0.015062 1.000000 0.025848 -0.017917 1.000000 0.026616 -0.017501 1.000000 0.031226 -0.019980 1.000000 0.031992 -0.020878 1.000000 0.037696 -0.023098 1.000000 0.038700 -0.026341 1.000000 0.044810 -0.028688 1.000000 0.045718 -0.035188 1.000000 0.050726 -0.037840 1.000000 0.050951 -0.047785 1.000000 0.052872 -0.050520 1.000000 0.052109 -0.062784 1.000000 0.049373 -0.065161 1.000000 0.048035 -0.077314 1.000000 0.040453 -0.079189 1.000000 0.039395 -0.088510 1.000000 0.028323 -0.090220 1.000000 0.028177 -0.095105 1.000000 0.015847 -0.097558 1.000000 0.016559 -0.098000 1.000000 0.004915 -0.102052 1.000000 0.005726 -0.099050 1.000000 -0.004181 -0.104998 1.000000 -0.004520 -0.099631 1.000000 -0.012312 -0.106783 1.000000 -0.015011 -0.099733 1.000000 -0.020460 -0.106304 1.000000 -0.026016 -0.098016 1.000000 -0.028799 -0.101728 1.000000 -0.036561 -0.092945 1.000000 -0.036603 -0.092312 1.000000 -0.045094 -0.084192 1.000000 -0.043016 -0.079365 1.000000 -0.050583 -0.072591 1.000000 -0.047192 -0.064735 1.000000 -0.052480 -0.059498 1.000000 -0.048420 -0.050269 1.000000 -0.050894 -0.046509 1.000000 -0.046635 -0.037390 1.000000 -0.046540 -0.034895 1.000000 -0.042386 -0.026828 1.000000 -0.040349 -0.025327 1.000000 -0.036455 -0.018729 1.000000 -0.033155 -0.017973 1.000000 -0.029569 -0.012914 1.000000 -0.025569 -0.012718 1.000000 
-0.021011 -0.014302 1.000000 -0.017012 -0.014357 1.000000 -0.014271 -0.011754 1.000000 -0.010307 -0.012172 1.000000 -0.007902 -0.010578 1.000000 -0.004154 -0.011285 1.000000 -0.002145 -0.010581 1.000000 0.001259 -0.011452 1.000000 0.002827 -0.011498 1.000000 0.005824 -0.012323 1.000000 0.007018 -0.012972 1.000000 0.009636 -0.013501 1.000000 0.010741 -0.014665 1.000000 0.013047 -0.014779 1.000000 0.014536 -0.016487 1.000000 0.016456 -0.016369 1.000000 0.018756 -0.018595 1.000000 0.020035 -0.018649 1.000000 0.023338 -0.021030 1.000000 0.024033 -0.021670 1.000000 0.028353 -0.023947 1.000000 0.028820 -0.025699 1.000000 0.033943 -0.028028 1.000000 0.034413 -0.031605 1.000000 0.039643 -0.034285 1.000000 0.040069 -0.040263 1.000000 0.044170 -0.043377 1.000000 0.044374 -0.051745 1.000000 0.045820 -0.055007 1.000000 0.045752 -0.064841 1.000000 0.043361 -0.067746 1.000000 0.043257 -0.077323 1.000000 0.036896 -0.079584 1.000000 0.037113 -0.087050 1.000000 0.027884 -0.088862 1.000000 0.028645 -0.092979 1.000000 0.018277 -0.094915 1.000000 0.019300 -0.095461 1.000000 0.009317 -0.098122 1.000000 0.009802 -0.095642 1.000000 0.001101 -0.099307 1.000000 -0.000041 -0.094565 1.000000 -0.007070 -0.098916 1.000000 -0.010752 -0.092571 1.000000 -0.015878 -0.096659 1.000000 -0.022249 -0.089303 1.000000 -0.025198 -0.091875 1.000000 -0.033305 -0.084238 1.000000 -0.033967 -0.084316 1.000000 -0.042146 -0.077231 1.000000 -0.040902 -0.074491 1.000000 -0.047647 -0.068485 1.000000 -0.045082 -0.063289 1.000000 -0.049452 -0.058533 1.000000 -0.046109 -0.051798 1.000000 -0.047886 -0.048258 1.000000 -0.044208 -0.041045 1.000000 -0.043733 -0.038573 1.000000 -0.040029 -0.031727 1.000000 -0.037891 -0.030126 1.000000 -0.034342 -0.024160 1.000000 -0.031138 -0.023244 1.000000 -0.027829 -0.018386 1.000000 -0.024047 -0.018007 1.000000 
-0.018637 -0.016130 1.000000 -0.015450 -0.016086 1.000000 -0.012835 -0.013707 1.000000 -0.009551 -0.014001 1.000000 -0.007202 -0.012559 1.000000 -0.004004 -0.013103 1.000000 -0.001956 -0.012488 1.000000 0.001027 -0.013154 1.000000 0.002762 -0.013238 1.000000 0.005457 -0.013850 1.000000 0.006954 -0.014507 1.000000 0.009344 -0.014876 1.000000 0.010817 -0.016026 1.000000 0.012908 -0.016070 1.000000 0.014664 -0.017704 1.000000 0.016392 -0.017561 1.000000 0.018677 -0.019633 1.000000 0.019930 -0.019644 1.000000 0.022833 -0.021915 1.000000 0.023701 -0.022516 1.000000 0.027195 -0.024767 1.000000 0.027907 -0.026468 1.000000 0.031787 -0.028691 1.000000 0.032442 -0.032041 1.000000 0.036150 -0.034344 1.000000 0.036624 -0.039715 1.000000 0.039236 -0.042144 1.000000 0.039315 -0.049436 1.000000 0.039764 -0.051898 1.000000 0.039364 -0.060325 1.000000 0.036881 -0.062666 1.000000 0.036199 -0.070848 1.000000 0.030729 -0.073045 1.000000 0.030128 -0.079498 1.000000 0.022404 -0.081753 1.000000 0.022134 -0.085498 1.000000 0.013370 -0.088212 1.000000 0.013354 -0.089040 1.000000 0.004735 -0.092554 1.000000 0.004540 -0.090834 1.000000 -0.003103 -0.095156 1.000000 -0.004128 -0.091460 1.000000 -0.010315 -0.096071 1.000000 -0.012754 -0.090925 1.000000 -0.017195 -0.094807 1.000000 -0.021237 -0.088696 1.000000 -0.023747 -0.090671 1.000000 -0.029012 -0.084175 1.000000 -0.029605 -0.083472 1.000000 -0.035271 -0.077257 1.000000 -0.034263 -0.073863 1.000000 -0.039375 -0.068411 1.000000 -0.037228 -0.062931 1.000000 -0.040985 -0.058471 1.000000 -0.038137 -0.051835 1.000000 -0.040143 -0.048410 1.000000 -0.036948 -0.041543 1.000000 -0.037226 -0.039074 1.000000 -0.033942 -0.032670 1.000000 -0.032787 -0.031014 1.000000 -0.029575 -0.025483 1.000000 -0.027383 -0.024487 1.000000 -0.024332 -0.020004 1.000000 -0.021484 -0.019536 1.000000 
-0.017559 -0.020337 1.000000 -0.014585 -0.020159 1.000000 -0.012183 -0.017652 1.000000 -0.009156 -0.017805 1.000000 -0.007000 -0.016125 1.000000 -0.004079 -0.016531 1.000000 -0.002195 -0.015612 1.000000 0.000508 -0.016170 1.000000 0.002128 -0.015928 1.000000 0.004550 -0.016515 1.000000 0.005985 -0.016860 1.000000 0.008111 -0.017364 1.000000 0.009542 -0.018229 1.000000 0.011369 -0.018625 1.000000 0.013049 -0.019970 1.000000 0.014535 -0.020382 1.000000 0.016682 -0.022133 1.000000 0.017760 -0.022805 1.000000 0.020470 -0.024800 1.000000 0.021182 -0.026031 1.000000 0.024399 -0.028153 1.000000 0.024893 -0.030291 1.000000 0.028366 -0.032563 1.000000 0.028755 -0.035969 1.000000 0.031964 -0.038468 1.000000 0.032263 -0.043349 1.000000 0.034440 -0.046067 1.000000 0.034614 -0.052273 1.000000 0.034923 -0.055056 1.000000 0.034980 -0.061957 1.000000 0.032833 -0.064582 1.000000 0.032878 -0.071171 1.000000 0.028246 -0.073513 1.000000 0.028408 -0.078725 1.000000 0.021886 -0.080868 1.000000 0.022187 -0.083945 1.000000 0.014735 -0.086135 1.000000 0.014955 -0.086826 1.000000 0.007520 -0.089308 1.000000 0.007197 -0.087805 1.000000 0.000473 -0.090639 1.000000 -0.000958 -0.087354 1.000000 -0.006538 -0.090291 1.000000 -0.009489 -0.085691 1.000000 -0.013653 -0.088176 1.000000 -0.018117 -0.082751 1.000000 -0.020684 -0.084100 1.000000 -0.026111 -0.078380 1.000000 -0.027052 -0.078057 1.000000 -0.032538 -0.072572 1.000000 -0.032052 -0.070387 1.000000 -0.036711 -0.065521 1.000000 -0.035133 -0.061678 1.000000 -0.038353 -0.057624 1.000000 -0.036042 -0.052641 1.000000 -0.037595 -0.049447 1.000000 -0.034870 -0.043962 1.000000 -0.034862 -0.041579 1.000000 -0.031970 -0.036166 1.000000 -0.030706 -0.034493 1.000000 -0.027815 -0.029564 1.000000 -0.025660 -0.028487 1.000000 -0.022877 -0.024286 1.000000 -0.020173 -0.023702 1.000000 
-0.015093 -0.021718 1.000000 -0.012764 -0.021462 1.000000 -0.010479 -0.019136 1.000000 -0.008022 -0.019184 1.000000 -0.005925 -0.017636 1.000000 -0.003489 -0.017908 1.000000 -0.001595 -0.017075 1.000000 0.000711 -0.017477 1.000000 0.002415 -0.017281 1.000000 0.004522 -0.017707 1.000000 0.006101 -0.018068 1.000000 0.007972 -0.018433 1.000000 0.009553 -0.019285 1.000000 0.011167 -0.019577 1.000000 0.012910 -0.020870 1.000000 0.014234 -0.021194 1.000000 0.016261 -0.022858 1.000000 0.017270 -0.023431 1.000000 0.019612 -0.025337 1.000000 0.020351 -0.026445 1.000000 0.022936 -0.028477 1.000000 0.023497 -0.030435 1.000000 0.026108 -0.032553 1.000000 0.026535 -0.035639 1.000000 0.028767 -0.037852 1.000000 0.029022 -0.042192 1.000000 0.030309 -0.044495 1.000000 0.030323 -0.049919 1.000000 0.030074 -0.052264 1.000000 0.029836 -0.058235 1.000000 0.027664 -0.060564 1.000000 0.027270 -0.066262 1.000000 0.023177 -0.068575 1.000000 0.022778 -0.073138 1.000000 0.017189 -0.075532 1.000000 0.016872 -0.078347 1.000000 0.010492 -0.080981 1.000000 0.010183 -0.081824 1.000000 0.003759 -0.084796 1.000000 0.003210 -0.083788 1.000000 -0.002651 -0.087002 1.000000 -0.003778 -0.084449 1.000000 -0.008652 -0.087539 1.000000 -0.010638 -0.083810 1.000000 -0.014255 -0.086180 1.000000 -0.017162 -0.081665 1.000000 -0.019380 -0.082677 1.000000 -0.022972 -0.077808 1.000000 -0.023799 -0.077045 1.000000 -0.027602 -0.072257 1.000000 -0.027210 -0.069691 1.000000 -0.030663 -0.065330 1.000000 -0.029326 -0.061289 1.000000 -0.031947 -0.057562 1.000000 -0.029955 -0.052593 1.000000 -0.031464 -0.049583 1.000000 -0.029078 -0.044276 1.000000 -0.029431 -0.041974 1.000000 -0.026856 -0.036827 1.000000 -0.026187 -0.035168 1.000000 -0.023571 -0.030528 1.000000 -0.022107 -0.029425 1.000000 -0.019547 -0.025492 1.000000 -0.017535 -0.024854 1.000000 
-0.014166 -0.025109 1.000000 -0.012002 -0.024772 1.000000 -0.009905 -0.022394 1.000000 -0.007655 -0.022360 1.000000 -0.005723 -0.020659 1.000000 -0.003518 -0.020861 1.000000 -0.001764 -0.019812 1.000000 0.000301 -0.020180 1.000000 0.001895 -0.019738 1.000000 0.003761 -0.020200 1.000000 0.005256 -0.020309 1.000000 0.006891 -0.020816 1.000000 0.008397 -0.021424 1.000000 0.009783 -0.021982 1.000000 0.011433 -0.023038 1.000000 0.012551 -0.023733 1.000000 0.014449 -0.025169 1.000000 0.015284 -0.026157 1.000000 0.017458 -0.027882 1.000000 0.018042 -0.029355 1.000000 0.020409 -0.031298 1.000000 0.020816 -0.033463 1.000000 0.023160 -0.035601 1.000000 0.023452 -0.038628 1.000000 0.025408 -0.040956 1.000000 0.025617 -0.044890 1.000000 0.026709 -0.047368 1.000000 0.026842 -0.052038 1.000000 0.026602 -0.054569 1.000000 0.026679 -0.059547 1.000000 0.024805 -0.062016 1.000000 0.024867 -0.066684 1.000000 0.021371 -0.069020 1.000000 0.021451 -0.072737 1.000000 0.016679 -0.074962 1.000000 0.016739 -0.077248 1.000000 0.011258 -0.079446 1.000000 0.011139 -0.080093 1.000000 0.005555 -0.082335 1.000000 0.004989 -0.081395 1.000000 -0.000190 -0.083651 1.000000 -0.001496 -0.081352 1.000000 -0.005900 -0.083430 1.000000 -0.008131 -0.080088 1.000000 -0.011511 -0.081652 1.000000 -0.014616 -0.077626 1.000000 -0.016830 -0.078290 1.000000 -0.020481 -0.073961 1.000000 -0.021503 -0.073428 1.000000 -0.025184 -0.069160 1.000000 -0.025122 -0.067326 1.000000 -0.028307 -0.063405 1.000000 -0.027361 -0.060395 1.000000 -0.029655 -0.056995 1.000000 -0.028060 -0.053124 1.000000 -0.029278 -0.050324 1.000000 -0.027259 -0.045995 1.000000 -0.027414 -0.043800 1.000000 -0.025163 -0.039410 1.000000 -0.024408 -0.037778 1.000000 -0.022072 -0.033644 1.000000 -0.020625 -0.032512 1.000000 -0.018306 -0.028857 1.000000 -0.016398 -0.028155 1.000000 
-0.011710 -0.026114 1.000000 -0.010048 -0.025723 1.000000 -0.008066 -0.023483 1.000000 -0.006286 -0.023367 1.000000 -0.004426 -0.021773 1.000000 -0.002642 -0.021868 1.000000 -0.000914 -0.020894 1.000000 0.000785 -0.021136 1.000000 0.002394 -0.020740 1.000000 0.003949 -0.021068 1.000000 0.005483 -0.021198 1.000000 0.006856 -0.021574 1.000000 0.008387 -0.022177 1.000000 0.009553 -0.022613 1.000000 0.011161 -0.023637 1.000000 0.012105 -0.024210 1.000000 0.013840 -0.025591 1.000000 0.014560 -0.026440 1.000000 0.016416 -0.028095 1.000000 0.016936 -0.029397 1.000000 0.018829 -0.031251 1.000000 0.019194 -0.033185 1.000000 0.020943 -0.035189 1.000000 0.021180 -0.037887 1.000000 0.022504 -0.040017 1.000000 0.022609 -0.043493 1.000000 0.023158 -0.045721 1.000000 0.023119 -0.049811 1.000000 0.022562 -0.052100 1.000000 0.022388 -0.056438 1.000000 0.020526 -0.058752 1.000000 0.020266 -0.062828 1.000000 0.017124 -0.065158 1.000000 0.016838 -0.068446 1.000000 0.012680 -0.070820 1.000000 0.012390 -0.072926 1.000000 0.007651 -0.075381 1.000000 0.007295 -0.076120 1.000000 0.002458 -0.078645 1.000000 0.001895 -0.078043 1.000000 -0.002606 -0.080517 1.000000 -0.003556 -0.078739 1.000000 -0.007387 -0.080905 1.000000 -0.008860 -0.078198 1.000000 -0.011794 -0.079694 1.000000 -0.013801 -0.076346 1.000000 -0.015717 -0.076813 1.000000 -0.018111 -0.073135 1.000000 -0.018998 -0.072341 1.000000 -0.021500 -0.068638 1.000000 -0.021453 -0.066568 1.000000 -0.023732 -0.063091 1.000000 -0.022914 -0.059941 1.000000 -0.024675 -0.056862 1.000000 -0.023281 -0.052971 1.000000 -0.024336 -0.050384 1.000000 -0.022553 -0.046140 1.000000 -0.022846 -0.044070 1.000000 -0.020833 -0.039832 1.000000 -0.020422 -0.038260 1.000000 -0.018305 -0.034311 1.000000 -0.017320 -0.033190 1.000000 -0.015190 -0.029719 1.000000 -0.013787 -0.028994 1.000000 
-0.010895 -0.028848 1.000000 -0.009371 -0.028416 1.000000 -0.007548 -0.026156 1.000000 -0.005944 -0.026000 1.000000 -0.004224 -0.024302 1.000000 -0.002640 -0.024372 1.000000 -0.001033 -0.023240 1.000000 0.000455 -0.023489 1.000000 0.001962 -0.022902 1.000000 0.003302 -0.023289 1.000000 0.004749 -0.023216 1.000000 0.005910 -0.023720 1.000000 0.007357 -0.024122 1.000000 0.008323 -0.024756 1.000000 0.009837 -0.025589 1.000000 0.010598 -0.026413 1.000000 0.012220 -0.027623 1.000000 0.012781 -0.028732 1.000000 0.014502 -0.030259 1.000000 0.014887 -0.031768 1.000000 0.016622 -0.033556 1.000000 0.016876 -0.035577 1.000000 0.018456 -0.037587 1.000000 0.018623 -0.040188 1.000000 0.019800 -0.042385 1.000000 0.019910 -0.045545 1.000000 0.020389 -0.047878 1.000000 0.020461 -0.051442 1.000000 0.019973 -0.053839 1.000000 0.020026 -0.057511 1.000000 0.018414 -0.059894 1.000000 0.018461 -0.063281 1.000000 0.015752 -0.065592 1.000000 0.015789 -0.068294 1.000000 0.012200 -0.070514 1.000000 0.012179 -0.072218 1.000000 0.008064 -0.074351 1.000000 0.007874 -0.074900 1.000000 0.003632 -0.076935 1.000000 0.003117 -0.076331 1.000000 -0.000888 -0.078200 1.000000 -0.001884 -0.076571 1.000000 -0.005360 -0.078127 1.000000 -0.006921 -0.075681 1.000000 -0.009661 -0.076711 1.000000 -0.011736 -0.073703 1.000000 -0.013620 -0.073980 1.000000 -0.016010 -0.070680 1.000000 -0.017006 -0.070038 1.000000 -0.019411 -0.066706 1.000000 -0.019575 -0.065095 1.000000 -0.021679 -0.061943 1.000000 -0.021131 -0.059451 1.000000 -0.022685 -0.056629 1.000000 -0.021580 -0.053463 1.000000 -0.022446 -0.051053 1.000000 -0.020945 -0.047485 1.000000 -0.021107 -0.045520 1.000000 -0.019353 -0.041833 1.000000 -0.018886 -0.040305 1.000000 -0.017001 -0.036747 1.000000 -0.016034 -0.035627 1.000000 -0.014109 -0.032389 1.000000 -0.012792 -0.031636 1.000000 
-0.008490 -0.029535 1.000000 -0.007357 -0.029069 1.000000 -0.005649 -0.026911 1.000000 -0.004431 -0.026691 1.000000 -0.002798 -0.025076 1.000000 -0.001580 -0.025059 1.000000 -0.000031 -0.023989 1.000000 0.001122 -0.024131 1.000000 0.002593 -0.023587 1.000000 0.003634 -0.023854 1.000000 0.005052 -0.023806 1.000000 0.005949 -0.024182 1.000000 0.007350 -0.024590 1.000000 0.008086 -0.025092 1.000000 0.009505 -0.025913 1.000000 0.010073 -0.026594 1.000000 0.011523 -0.027774 1.000000 0.011926 -0.028721 1.000000 0.013381 -0.030201 1.000000 0.013640 -0.031518 1.000000 0.015021 -0.033240 1.000000 0.015163 -0.035020 1.000000 0.016332 -0.036936 1.000000 0.016381 -0.039231 1.000000 0.017147 -0.041303 1.000000 0.017115 -0.044082 1.000000 0.017260 -0.046273 1.000000 0.017157 -0.049396 1.000000 0.016492 -0.051664 1.000000 0.016332 -0.054879 1.000000 0.014756 -0.057188 1.000000 0.014567 -0.060165 1.000000 0.012111 -0.062486 1.000000 0.011917 -0.064895 1.000000 0.008757 -0.067210 1.000000 0.008554 -0.068790 1.000000 0.004970 -0.071076 1.000000 0.004713 -0.071689 1.000000 0.001029 -0.073888 1.000000 0.000631 -0.073523 1.000000 -0.002846 -0.075516 1.000000 -0.003482 -0.074267 1.000000 -0.006498 -0.075869 1.000000 -0.007443 -0.073897 1.000000 -0.009816 -0.074879 1.000000 -0.011069 -0.072387 1.000000 -0.012695 -0.072538 1.000000 -0.014169 -0.069749 1.000000 -0.015024 -0.068940 1.000000 -0.016557 -0.066069 1.000000 -0.016689 -0.064301 1.000000 -0.018088 -0.061535 1.000000 -0.017599 -0.058935 1.000000 -0.018686 -0.056414 1.000000 -0.017704 -0.053209 1.000000 -0.018359 -0.051019 1.000000 -0.017019 -0.047479 1.000000 -0.017194 -0.045661 1.000000 -0.015618 -0.042053 1.000000 -0.015337 -0.040613 1.000000 -0.013627 -0.037163 1.000000 -0.012961 -0.036082 1.000000 -0.011198 -0.032962 1.000000 -0.010247 -0.032208 1.000000 
-0.007756 -0.031738 1.000000 -0.006747 -0.031258 1.000000 -0.005170 -0.029082 1.000000 -0.004109 -0.028851 1.000000 -0.002592 -0.027154 1.000000 -0.001553 -0.027139 1.000000 -0.000105 -0.025942 1.000000 0.000856 -0.026113 1.000000 0.002238 -0.025414 1.000000 0.003083 -0.025747 1.000000 0.004420 -0.025531 1.000000 0.005125 -0.026018 1.000000 0.006447 -0.026259 1.000000 0.007001 -0.026911 1.000000 0.008335 -0.027576 1.000000 0.008737 -0.028430 1.000000 0.010094 -0.029477 1.000000 0.010355 -0.030591 1.000000 0.011706 -0.031973 1.000000 0.011849 -0.033408 1.000000 0.013120 -0.035079 1.000000 0.013180 -0.036889 1.000000 0.014245 -0.038805 1.000000 0.014256 -0.041003 1.000000 0.014948 -0.043118 1.000000 0.014939 -0.045658 1.000000 0.015074 -0.047919 1.000000 0.015069 -0.050673 1.000000 0.014489 -0.053015 1.000000 0.014502 -0.055775 1.000000 0.013127 -0.058128 1.000000 0.013162 -0.060637 1.000000 0.011022 -0.062942 1.000000 0.011065 -0.064940 1.000000 0.008305 -0.067151 1.000000 0.008313 -0.068431 1.000000 0.005166 -0.070510 1.000000 0.005063 -0.070959 1.000000 0.001798 -0.072853 1.000000 0.001488 -0.072457 1.000000 -0.001632 -0.074087 1.000000 -0.002237 -0.072919 1.000000 -0.004990 -0.074166 1.000000 -0.005931 -0.072364 1.000000 -0.008153 -0.073085 1.000000 -0.009396 -0.070823 1.000000 -0.010982 -0.070880 1.000000 -0.012413 -0.068351 1.000000 -0.013328 -0.067650 1.000000 -0.014772 -0.065040 1.000000 -0.015040 -0.063564 1.000000 -0.016313 -0.061033 1.000000 -0.016009 -0.058854 1.000000 -0.016958 -0.056523 1.000000 -0.016183 -0.053790 1.000000 -0.016717 -0.051739 1.000000 -0.015586 -0.048650 1.000000 -0.015681 -0.046921 1.000000 -0.014304 -0.043690 1.000000 -0.013996 -0.042296 1.000000 -0.012470 -0.039122 1.000000 -0.011833 -0.038055 1.000000 -0.010236 -0.035103 1.000000 -0.009365 -0.034344 1.000000 
-0.005405 -0.032153 1.000000 -0.004701 -0.031655 1.000000 -0.003242 -0.029548 1.000000 -0.002503 -0.029269 1.000000 -0.001087 -0.027633 1.000000 -0.000367 -0.027545 1.000000 0.000995 -0.026398 1.000000 0.001650 -0.026474 1.000000 0.002958 -0.025814 1.000000 0.003516 -0.026036 1.000000 0.004781 -0.025848 1.000000 0.005221 -0.026209 1.000000 0.006457 -0.026466 1.000000 0.006770 -0.026981 1.000000 0.007986 -0.027650 1.000000 0.008172 -0.028352 1.000000 0.009363 -0.029391 1.000000 0.009431 -0.030333 1.000000 0.010564 -0.031696 1.000000 0.010534 -0.032932 1.000000 0.011541 -0.034570 1.000000 0.011438 -0.036144 1.000000 0.012218 -0.038013 1.000000 0.012067 -0.039933 1.000000 0.012490 -0.041987 1.000000 0.012313 -0.044208 1.000000 0.012244 -0.046402 1.000000 0.012061 -0.048811 1.000000 0.011389 -0.051098 1.000000 0.011218 -0.053517 1.000000 0.009894 -0.055848 1.000000 0.009753 -0.058060 1.000000 0.007809 -0.060389 1.000000 0.007709 -0.062178 1.000000 0.005266 -0.064458 1.000000 0.005196 -0.065650 1.000000 0.002444 -0.067826 1.000000 0.002371 -0.068321 1.000000 -0.000469 -0.070313 1.000000 -0.000602 -0.070093 1.000000 -0.003307 -0.071792 1.000000 -0.003561 -0.070909 1.000000 -0.005942 -0.072174 1.000000 -0.006362 -0.070734 1.000000 -0.008276 -0.071414 1.000000 -0.008865 -0.069557 1.000000 -0.010224 -0.069522 1.000000 -0.010939 -0.067404 1.000000 -0.011713 -0.066581 1.000000 -0.012471 -0.064357 1.000000 -0.012682 -0.062759 1.000000 -0.013378 -0.060566 1.000000 -0.013088 -0.058291 1.000000 -0.013622 -0.056239 1.000000 -0.012919 -0.053450 1.000000 -0.013219 -0.051616 1.000000 -0.012200 -0.048515 1.000000 -0.012235 -0.046943 1.000000 -0.010993 -0.043738 1.000000 -0.010769 -0.042447 1.000000 -0.009386 -0.039325 1.000000 -0.008943 -0.038316 1.000000 -0.007487 -0.035430 1.000000 -0.006881 -0.034688 1.000000 
-0.004724 -0.033918 1.000000 -0.004142 -0.033420 1.000000 -0.002784 -0.031280 1.000000 -0.002195 -0.031006 1.000000 -0.000868 -0.029289 1.000000 -0.000318 -0.029221 1.000000 0.000965 -0.027959 1.000000 0.001439 -0.028076 1.000000 0.002675 -0.027280 1.000000 0.003049 -0.027570 1.000000 0.004246 -0.027236 1.000000 0.004506 -0.027694 1.000000 0.005675 -0.027807 1.000000 0.005817 -0.028441 1.000000 0.006964 -0.028978 1.000000 0.006996 -0.029807 1.000000 0.008114 -0.030736 1.000000 0.008051 -0.031791 1.000000 0.009107 -0.033075 1.000000 0.008974 -0.034386 1.000000 0.009908 -0.035984 1.000000 0.009737 -0.037565 1.000000 0.010456 -0.039434 1.000000 0.010281 -0.041275 1.000000 0.010672 -0.043365 1.000000 0.010524 -0.045413 1.000000 0.010471 -0.047667 1.000000 0.010373 -0.049818 1.000000 0.009783 -0.052172 1.000000 0.009751 -0.054279 1.000000 0.008584 -0.056663 1.000000 0.008620 -0.058552 1.000000 0.006905 -0.060898 1.000000 0.006996 -0.062396 1.000000 0.004833 -0.064639 1.000000 0.004946 -0.065610 1.000000 0.002495 -0.067684 1.000000 0.002575 -0.068046 1.000000 0.000026 -0.069881 1.000000 0.000009 -0.069618 1.000000 -0.002449 -0.071127 1.000000 -0.002620 -0.070283 1.000000 -0.004816 -0.071366 1.000000 -0.005172 -0.070030 1.000000 -0.006976 -0.070582 1.000000 -0.007504 -0.068875 1.000000 -0.008829 -0.068805 1.000000 -0.009472 -0.066862 1.000000 -0.010281 -0.066118 1.000000 -0.010950 -0.064072 1.000000 -0.011250 -0.062658 1.000000 -0.011845 -0.060627 1.000000 -0.011681 -0.058610 1.000000 -0.012117 -0.056692 1.000000 -0.011559 -0.054192 1.000000 -0.011782 -0.052458 1.000000 -0.010913 -0.049635 1.000000 -0.010904 -0.048129 1.000000 -0.009808 -0.045156 1.000000 -0.009583 -0.043903 1.000000 -0.008338 -0.040949 1.000000 -0.007938 -0.039955 1.000000 -0.006607 -0.037165 1.000000 -0.006088 -0.036426 1.000000 
-0.002399 -0.034098 1.000000 -0.002063 -0.033596 1.000000 -0.000828 -0.031495 1.000000 -0.000513 -0.031186 1.000000 0.000699 -0.029510 1.000000 0.000963 -0.029377 1.000000 0.002140 -0.028154 1.000000 0.002328 -0.028185 1.000000 0.003464 -0.027424 1.000000 0.003560 -0.027607 1.000000 0.004657 -0.027305 1.000000 0.004650 -0.027638 1.000000 0.005710 -0.027778 1.000000 0.005600 -0.028271 1.000000 0.006620 -0.028828 1.000000 0.006414 -0.029502 1.000000 0.007379 -0.030446 1.000000 0.007092 -0.031326 1.000000 0.007970 -0.032619 1.000000 0.007626 -0.033733 1.000000 0.008362 -0.035333 1.000000 0.007988 -0.036693 1.000000 0.008508 -0.038557 1.000000 0.008136 -0.040150 1.000000 0.008353 -0.042229 1.000000 0.008011 -0.044007 1.000000 0.007838 -0.046251 1.000000 0.007555 -0.048124 1.000000 0.006928 -0.050476 1.000000 0.006726 -0.052318 1.000000 0.005621 -0.054717 1.000000 0.005518 -0.056381 1.000000 0.003965 -0.058765 1.000000 0.003968 -0.060107 1.000000 0.002053 -0.062408 1.000000 0.002151 -0.063312 1.000000 0.000008 -0.065455 1.000000 0.000174 -0.065851 1.000000 -0.002040 -0.067747 1.000000 -0.001847 -0.067619 1.000000 -0.003972 -0.069163 1.000000 -0.003799 -0.068541 1.000000 -0.005690 -0.069622 1.000000 -0.005577 -0.068575 1.000000 -0.007120 -0.069082 1.000000 -0.007088 -0.067704 1.000000 -0.008210 -0.067553 1.000000 -0.008252 -0.065952 1.000000 -0.008923 -0.065103 1.000000 -0.009011 -0.063388 1.000000 -0.009238 -0.061864 1.000000 -0.009330 -0.060135 1.000000 -0.009153 -0.058019 1.000000 -0.009204 -0.056360 1.000000 -0.008685 -0.053785 1.000000 -0.008662 -0.052262 1.000000 -0.007871 -0.049393 1.000000 -0.007757 -0.048048 1.000000 -0.006766 -0.045058 1.000000 -0.006561 -0.043918 1.000000 -0.005438 -0.040971 1.000000 -0.005159 -0.040046 1.000000 -0.003958 -0.037281 1.000000 -0.003634 -0.036571 1.000000 