# vtk DataFile Version 2.0
Comment goes here
ASCII

DATASET STRUCTURED_POINTS
DIMENSIONS    64   64   1

ORIGIN    0.000   0.000   0.000
SPACING   0.0156250.015625   1.000

POINT_DATA   4096
VECTORS u double

-0.044688 -0.154581 1.000000 -0.036200 -0.143727 1.000000 -0.026652 -0.139652 1.000000 -0.018270 -0.130611 1.000000 -0.007617 -0.129694 1.000000 0.000010 -0.122667 1.000000 0.011940 -0.124934 1.000000 0.017890 -0.120291 1.000000 0.031232 -0.125337 1.000000 0.034317 -0.123769 1.000000 0.048929 -0.130462 1.000000 0.047953 -0.133151 1.000000 0.062943 -0.139443 1.000000 0.057516 -0.147934 1.000000 0.070735 -0.151198 1.000000 0.062748 -0.166319 1.000000 0.071133 -0.164951 1.000000 0.065522 -0.184630 1.000000 0.067611 -0.180846 1.000000 0.067998 -0.200235 1.000000 0.066235 -0.197946 1.000000 0.073586 -0.214837 1.000000 0.070710 -0.217658 1.000000 0.081673 -0.232811 1.000000 0.078623 -0.241838 1.000000 0.089194 -0.256743 1.000000 0.085481 -0.271200 1.000000 0.092689 -0.286703 1.000000 0.087101 -0.304641 1.000000 0.089307 -0.320223 1.000000 0.080943 -0.338969 1.000000 0.078005 -0.353107 1.000000 0.066987 -0.370086 1.000000 0.060040 -0.381263 1.000000 0.047400 -0.394782 1.000000 0.038177 -0.402231 1.000000 0.025228 -0.411723 1.000000 0.015309 -0.415511 1.000000 0.003035 -0.421233 1.000000 -0.006627 -0.421898 1.000000 -0.017865 -0.424385 1.000000 -0.027001 -0.422407 1.000000 -0.037329 -0.421951 1.000000 -0.046013 -0.417389 1.000000 -0.055603 -0.413858 1.000000 -0.063759 -0.406407 1.000000 -0.072429 -0.399513 1.000000 -0.079587 -0.388923 1.000000 -0.086768 -0.378677 1.000000 -0.092206 -0.365134 1.000000 -0.097226 -0.352076 1.000000 -0.100304 -0.336266 1.000000 -0.102704 -0.321377 1.000000 -0.103110 -0.304292 1.000000 -0.102802 -0.288730 1.000000 -0.100614 -0.271389 1.000000 -0.097854 -0.256239 1.000000 -0.093444 -0.239476 1.000000 -0.088675 -0.225600 1.000000 -0.082547 -0.209976 1.000000 -0.076227 -0.197989 1.000000 -0.068881 -0.183820 1.000000 -0.061357 -0.174153 1.000000 -0.053234 -0.161596 1.000000 
-0.037474 -0.160181 1.000000 -0.030739 -0.149813 1.000000 -0.022450 -0.145497 1.000000 -0.016066 -0.137092 1.000000 -0.006853 -0.135742 1.000000 -0.001397 -0.129600 1.000000 0.008865 -0.131267 1.000000 0.012685 -0.127824 1.000000 0.024106 -0.132202 1.000000 0.025562 -0.132076 1.000000 0.038060 -0.138264 1.000000 0.036714 -0.142233 1.000000 0.049663 -0.148575 1.000000 0.045918 -0.157306 1.000000 0.057740 -0.161625 1.000000 0.053410 -0.174967 1.000000 0.061712 -0.175752 1.000000 0.059761 -0.191914 1.000000 0.062999 -0.190245 1.000000 0.065228 -0.206450 1.000000 0.064566 -0.205077 1.000000 0.070746 -0.220070 1.000000 0.068182 -0.222317 1.000000 0.076226 -0.236472 1.000000 0.072833 -0.243869 1.000000 0.080301 -0.258018 1.000000 0.076039 -0.270236 1.000000 0.080947 -0.284772 1.000000 0.075132 -0.300229 1.000000 0.076294 -0.314634 1.000000 0.068372 -0.331090 1.000000 0.065637 -0.344176 1.000000 0.055730 -0.359459 1.000000 0.049880 -0.370037 1.000000 0.038744 -0.382638 1.000000 0.031039 -0.390037 1.000000 0.019652 -0.399298 1.000000 0.011288 -0.403445 1.000000 0.000415 -0.409358 1.000000 -0.007822 -0.410538 1.000000 -0.017834 -0.413354 1.000000 -0.025631 -0.411850 1.000000 -0.034774 -0.411719 1.000000 -0.042067 -0.407570 1.000000 -0.050376 -0.404411 1.000000 -0.057032 -0.397452 1.000000 -0.064331 -0.391129 1.000000 -0.069979 -0.381259 1.000000 -0.075852 -0.371872 1.000000 -0.079979 -0.359316 1.000000 -0.083958 -0.347362 1.000000 -0.086124 -0.332714 1.000000 -0.087902 -0.319028 1.000000 -0.087908 -0.303124 1.000000 -0.087446 -0.288695 1.000000 -0.085379 -0.272410 1.000000 -0.082885 -0.258193 1.000000 -0.079052 -0.242284 1.000000 -0.074874 -0.229078 1.000000 -0.069687 -0.214103 1.000000 -0.064186 -0.202520 1.000000 -0.058076 -0.188853 1.000000 -0.051531 -0.179353 1.000000 -0.044906 -0.167238 1.000000 
-0.027216 -0.168749 1.000000 -0.021430 -0.158751 1.000000 -0.013806 -0.154325 1.000000 -0.008334 -0.146208 1.000000 0.000107 -0.144363 1.000000 0.004773 -0.138385 1.000000 0.014039 -0.139016 1.000000 0.017296 -0.135533 1.000000 0.027300 -0.138214 1.000000 0.028513 -0.137722 1.000000 0.038935 -0.141614 1.000000 0.037688 -0.144754 1.000000 0.047803 -0.148647 1.000000 0.044327 -0.156011 1.000000 0.052916 -0.158690 1.000000 0.048547 -0.170291 1.000000 0.054228 -0.171302 1.000000 0.051251 -0.185918 1.000000 0.053413 -0.186313 1.000000 0.053581 -0.201802 1.000000 0.053024 -0.203464 1.000000 0.056708 -0.218454 1.000000 0.054623 -0.223138 1.000000 0.060436 -0.237462 1.000000 0.057467 -0.245912 1.000000 0.063357 -0.259950 1.000000 0.059450 -0.271847 1.000000 0.063595 -0.285796 1.000000 0.058293 -0.299988 1.000000 0.059562 -0.313464 1.000000 0.052524 -0.328312 1.000000 0.050674 -0.340465 1.000000 0.042041 -0.354328 1.000000 0.037610 -0.364278 1.000000 0.027979 -0.375941 1.000000 0.021925 -0.383139 1.000000 0.012066 -0.391972 1.000000 0.005347 -0.396275 1.000000 -0.004103 -0.402123 1.000000 -0.010802 -0.403649 1.000000 -0.019497 -0.406576 1.000000 -0.025826 -0.405468 1.000000 -0.033663 -0.405515 1.000000 -0.039472 -0.401787 1.000000 -0.046405 -0.398893 1.000000 -0.051533 -0.392452 1.000000 -0.057405 -0.386566 1.000000 -0.061568 -0.377402 1.000000 -0.066088 -0.368677 1.000000 -0.068932 -0.357027 1.000000 -0.071794 -0.345931 1.000000 -0.073032 -0.332323 1.000000 -0.074048 -0.319592 1.000000 -0.073566 -0.304748 1.000000 -0.072736 -0.291259 1.000000 -0.070621 -0.275949 1.000000 -0.068117 -0.262567 1.000000 -0.064612 -0.247488 1.000000 -0.060697 -0.234965 1.000000 -0.056123 -0.220664 1.000000 -0.051064 -0.209600 1.000000 -0.045756 -0.196475 1.000000 -0.039757 -0.187323 1.000000 -0.034043 -0.175653 1.000000 
-0.020550 -0.172794 1.000000 -0.016271 -0.163223 1.000000 -0.009848 -0.158593 1.000000 -0.006015 -0.151004 1.000000 0.001079 -0.148849 1.000000 0.004086 -0.143532 1.000000 0.011869 -0.143789 1.000000 0.013644 -0.141084 1.000000 0.022064 -0.143419 1.000000 0.022283 -0.143712 1.000000 0.031113 -0.147439 1.000000 0.029725 -0.151101 1.000000 0.038420 -0.155213 1.000000 0.035888 -0.162419 1.000000 0.043493 -0.165845 1.000000 0.040908 -0.176279 1.000000 0.046265 -0.178457 1.000000 0.045030 -0.191099 1.000000 0.047448 -0.192575 1.000000 0.048434 -0.206061 1.000000 0.048252 -0.208204 1.000000 0.051366 -0.221669 1.000000 0.049422 -0.226045 1.000000 0.053682 -0.239317 1.000000 0.050592 -0.246790 1.000000 0.054668 -0.260001 1.000000 0.050574 -0.270474 1.000000 0.053263 -0.283615 1.000000 0.047988 -0.296195 1.000000 0.048519 -0.308866 1.000000 0.041920 -0.322203 1.000000 0.040126 -0.333692 1.000000 0.032361 -0.346395 1.000000 0.028630 -0.355976 1.000000 0.020165 -0.366952 1.000000 0.015204 -0.374124 1.000000 0.006631 -0.382720 1.000000 0.001176 -0.387276 1.000000 -0.006995 -0.393209 1.000000 -0.012383 -0.395144 1.000000 -0.019841 -0.398330 1.000000 -0.024837 -0.397684 1.000000 -0.031447 -0.398073 1.000000 -0.035885 -0.394828 1.000000 -0.041570 -0.392351 1.000000 -0.045307 -0.386453 1.000000 -0.049944 -0.381094 1.000000 -0.052789 -0.372576 1.000000 -0.056189 -0.364507 1.000000 -0.057926 -0.353610 1.000000 -0.059907 -0.343262 1.000000 -0.060377 -0.330461 1.000000 -0.060846 -0.318494 1.000000 -0.060012 -0.304435 1.000000 -0.059007 -0.291639 1.000000 -0.056970 -0.277029 1.000000 -0.054641 -0.264203 1.000000 -0.051607 -0.249704 1.000000 -0.048164 -0.237567 1.000000 -0.044397 -0.223737 1.000000 -0.040046 -0.212887 1.000000 -0.035824 -0.200160 1.000000 -0.030719 -0.191066 1.000000 -0.026323 -0.179779 1.000000 
-0.010649 -0.178801 1.000000 -0.007205 -0.169453 1.000000 -0.001555 -0.164581 1.000000 0.001457 -0.157135 1.000000 0.007635 -0.154464 1.000000 0.009904 -0.149175 1.000000 0.016563 -0.148574 1.000000 0.017749 -0.145728 1.000000 0.024750 -0.146853 1.000000 0.024564 -0.146772 1.000000 0.031606 -0.149056 1.000000 0.029966 -0.152061 1.000000 0.036533 -0.154810 1.000000 0.033761 -0.161084 1.000000 0.039146 -0.163710 1.000000 0.036075 -0.173062 1.000000 0.039587 -0.175424 1.000000 0.037367 -0.187101 1.000000 0.038701 -0.189717 1.000000 0.038210 -0.202606 1.000000 0.037646 -0.206396 1.000000 0.039067 -0.219624 1.000000 0.037137 -0.225453 1.000000 0.039834 -0.238631 1.000000 0.036923 -0.246898 1.000000 0.039830 -0.259933 1.000000 0.036024 -0.270441 1.000000 0.038091 -0.283210 1.000000 0.033290 -0.295244 1.000000 0.033809 -0.307396 1.000000 0.027953 -0.319919 1.000000 0.026714 -0.330905 1.000000 0.019964 -0.342832 1.000000 0.017220 -0.352082 1.000000 0.009960 -0.362515 1.000000 0.006246 -0.369604 1.000000 -0.001036 -0.377945 1.000000 -0.005129 -0.382649 1.000000 -0.011997 -0.388564 1.000000 -0.015986 -0.390802 1.000000 -0.022143 -0.394121 1.000000 -0.025718 -0.393862 1.000000 -0.031004 -0.394468 1.000000 -0.033992 -0.391664 1.000000 -0.038321 -0.389470 1.000000 -0.040605 -0.384078 1.000000 -0.043891 -0.379084 1.000000 -0.045360 -0.371157 1.000000 -0.047507 -0.363540 1.000000 -0.048060 -0.353309 1.000000 -0.048997 -0.343480 1.000000 -0.048580 -0.331384 1.000000 -0.048301 -0.319957 1.000000 -0.046943 -0.306587 1.000000 -0.045522 -0.294301 1.000000 -0.043334 -0.280315 1.000000 -0.040908 -0.267930 1.000000 -0.038061 -0.253964 1.000000 -0.034792 -0.242175 1.000000 -0.031483 -0.228783 1.000000 -0.027514 -0.218173 1.000000 -0.023948 -0.205801 1.000000 -0.019381 -0.196824 1.000000 -0.015765 -0.185823 1.000000 
-0.004175 -0.181353 1.000000 -0.002040 -0.172318 1.000000 0.002483 -0.167255 1.000000 0.004123 -0.160194 1.000000 0.009063 -0.157296 1.000000 0.010005 -0.152461 1.000000 0.015347 -0.151634 1.000000 0.015399 -0.149271 1.000000 0.021053 -0.150234 1.000000 0.020111 -0.150568 1.000000 0.025855 -0.152842 1.000000 0.024006 -0.156028 1.000000 0.029439 -0.159008 1.000000 0.027051 -0.165033 1.000000 0.031596 -0.168159 1.000000 0.029312 -0.176720 1.000000 0.032364 -0.179749 1.000000 0.030905 -0.190213 1.000000 0.032114 -0.193418 1.000000 0.031927 -0.205005 1.000000 0.031386 -0.209060 1.000000 0.032440 -0.221159 1.000000 0.030518 -0.226813 1.000000 0.032324 -0.239103 1.000000 0.029367 -0.246785 1.000000 0.031204 -0.259103 1.000000 0.027384 -0.268735 1.000000 0.028556 -0.280881 1.000000 0.023908 -0.291913 1.000000 0.023951 -0.303529 1.000000 0.018519 -0.315108 1.000000 0.017309 -0.325703 1.000000 0.011271 -0.336901 1.000000 0.009014 -0.345972 1.000000 0.002695 -0.355978 1.000000 -0.000192 -0.363127 1.000000 -0.006396 -0.371345 1.000000 -0.009442 -0.376315 1.000000 -0.015168 -0.382352 1.000000 -0.017976 -0.384999 1.000000 -0.022960 -0.388598 1.000000 -0.025264 -0.388822 1.000000 -0.029355 -0.389798 1.000000 -0.031016 -0.387512 1.000000 -0.034139 -0.385738 1.000000 -0.035094 -0.380883 1.000000 -0.037213 -0.376339 1.000000 -0.037442 -0.368959 1.000000 -0.038543 -0.361808 1.000000 -0.038059 -0.352120 1.000000 -0.038164 -0.342742 1.000000 -0.037016 -0.331157 1.000000 -0.036192 -0.320131 1.000000 -0.034475 -0.307214 1.000000 -0.032834 -0.295249 1.000000 -0.030675 -0.281642 1.000000 -0.028350 -0.269476 1.000000 -0.025895 -0.255820 1.000000 -0.023015 -0.244145 1.000000 -0.020415 -0.231014 1.000000 -0.017079 -0.220421 1.000000 -0.014482 -0.208293 1.000000 -0.010745 -0.199249 1.000000 -0.008298 -0.188511 1.000000 
0.005547 -0.185060 1.000000 0.006901 -0.176111 1.000000 0.010578 -0.170744 1.000000 0.011431 -0.163715 1.000000 0.015382 -0.160345 1.000000 0.015584 -0.155458 1.000000 0.019771 -0.153969 1.000000 0.019170 -0.151434 1.000000 0.023473 -0.151565 1.000000 0.021978 -0.151574 1.000000 0.026167 -0.152951 1.000000 0.023829 -0.155644 1.000000 0.027561 -0.157855 1.000000 0.024657 -0.163241 1.000000 0.027518 -0.165971 1.000000 0.024564 -0.173831 1.000000 0.026182 -0.177017 1.000000 0.023801 -0.186850 1.000000 0.024010 -0.190739 1.000000 0.022670 -0.201879 1.000000 0.021577 -0.206909 1.000000 0.021387 -0.218756 1.000000 0.019248 -0.225337 1.000000 0.019908 -0.237480 1.000000 0.016960 -0.245778 1.000000 0.017915 -0.257949 1.000000 0.014283 -0.267794 1.000000 0.014952 -0.279733 1.000000 0.010685 -0.290639 1.000000 0.010657 -0.302007 1.000000 0.005823 -0.313278 1.000000 0.004960 -0.323657 1.000000 -0.000270 -0.334537 1.000000 -0.001830 -0.343506 1.000000 -0.007173 -0.353309 1.000000 -0.009106 -0.360513 1.000000 -0.014218 -0.368695 1.000000 -0.016137 -0.373877 1.000000 -0.020691 -0.380031 1.000000 -0.022250 -0.383011 1.000000 -0.025997 -0.386832 1.000000 -0.026958 -0.387466 1.000000 -0.029748 -0.388717 1.000000 -0.029996 -0.386880 1.000000 -0.031770 -0.385392 1.000000 -0.031293 -0.381005 1.000000 -0.032064 -0.376736 1.000000 -0.030927 -0.369826 1.000000 -0.030769 -0.362923 1.000000 -0.029090 -0.353689 1.000000 -0.028124 -0.344523 1.000000 -0.026050 -0.333355 1.000000 -0.024429 -0.322498 1.000000 -0.022119 -0.309945 1.000000 -0.019998 -0.298102 1.000000 -0.017599 -0.284800 1.000000 -0.015116 -0.272709 1.000000 -0.012751 -0.259299 1.000000 -0.010002 -0.247654 1.000000 -0.007768 -0.234719 1.000000 -0.004801 -0.224106 1.000000 -0.002779 -0.212136 1.000000 0.000400 -0.203007 1.000000 0.002134 -0.192393 1.000000 
0.012107 -0.186120 1.000000 0.012279 -0.177349 1.000000 0.014882 -0.171784 1.000000 0.014528 -0.164998 1.000000 0.017324 -0.161449 1.000000 0.016387 -0.156849 1.000000 0.019376 -0.155221 1.000000 0.017809 -0.152973 1.000000 0.020918 -0.153041 1.000000 0.018733 -0.153262 1.000000 0.021794 -0.154693 1.000000 0.019118 -0.157422 1.000000 0.021860 -0.159836 1.000000 0.018964 -0.164989 1.000000 0.021041 -0.168065 1.000000 0.018316 -0.175384 1.000000 0.019398 -0.178985 1.000000 0.017245 -0.188041 1.000000 0.017144 -0.192288 1.000000 0.015815 -0.202572 1.000000 0.014557 -0.207776 1.000000 0.014055 -0.218831 1.000000 0.011825 -0.225334 1.000000 0.011908 -0.236814 1.000000 0.008916 -0.244792 1.000000 0.009204 -0.256425 1.000000 0.005614 -0.265773 1.000000 0.005725 -0.277283 1.000000 0.001649 -0.287618 1.000000 0.001325 -0.298667 1.000000 -0.003118 -0.309411 1.000000 -0.003939 -0.319610 1.000000 -0.008567 -0.330110 1.000000 -0.009750 -0.339070 1.000000 -0.014307 -0.348702 1.000000 -0.015574 -0.356082 1.000000 -0.019760 -0.364315 1.000000 -0.020781 -0.369842 1.000000 -0.024310 -0.376239 1.000000 -0.024787 -0.379693 1.000000 -0.027433 -0.383889 1.000000 -0.027169 -0.385071 1.000000 -0.028797 -0.386760 1.000000 -0.027723 -0.385490 1.000000 -0.028303 -0.384441 1.000000 -0.026479 -0.380588 1.000000 -0.026082 -0.376705 1.000000 -0.023676 -0.370254 1.000000 -0.022455 -0.363645 1.000000 -0.019704 -0.354766 1.000000 -0.017873 -0.345781 1.000000 -0.015029 -0.334852 1.000000 -0.012816 -0.324063 1.000000 -0.010106 -0.311645 1.000000 -0.007711 -0.299768 1.000000 -0.005299 -0.286524 1.000000 -0.002864 -0.274324 1.000000 -0.000849 -0.260935 1.000000 0.001557 -0.249128 1.000000 0.003128 -0.236214 1.000000 0.005500 -0.225411 1.000000 0.006616 -0.213494 1.000000 0.008996 -0.204163 1.000000 0.009650 -0.193658 1.000000 
0.021857 -0.187688 1.000000 0.021241 -0.178886 1.000000 0.022932 -0.172994 1.000000 0.021772 -0.166158 1.000000 0.023535 -0.162204 1.000000 0.021817 -0.157510 1.000000 0.023652 -0.155390 1.000000 0.021357 -0.152976 1.000000 0.023190 -0.152490 1.000000 0.020334 -0.152450 1.000000 0.022013 -0.153336 1.000000 0.018696 -0.155709 1.000000 0.020005 -0.157700 1.000000 0.016446 -0.162422 1.000000 0.017142 -0.165324 1.000000 0.013671 -0.172188 1.000000 0.013551 -0.175946 1.000000 0.010531 -0.184596 1.000000 0.009508 -0.189308 1.000000 0.007211 -0.199293 1.000000 0.005340 -0.205150 1.000000 0.003849 -0.216023 1.000000 0.001278 -0.223189 1.000000 0.000462 -0.234572 1.000000 -0.002645 -0.243074 1.000000 -0.003061 -0.254647 1.000000 -0.006571 -0.264315 1.000000 -0.006889 -0.275768 1.000000 -0.010695 -0.286239 1.000000 -0.011132 -0.297240 1.000000 -0.015116 -0.308014 1.000000 -0.015734 -0.318208 1.000000 -0.019725 -0.328726 1.000000 -0.020418 -0.337766 1.000000 -0.024182 -0.347486 1.000000 -0.024717 -0.355060 1.000000 -0.027978 -0.363488 1.000000 -0.028061 -0.369327 1.000000 -0.030545 -0.376024 1.000000 -0.029903 -0.379888 1.000000 -0.031384 -0.384451 1.000000 -0.029838 -0.386102 1.000000 -0.030181 -0.388163 1.000000 -0.027691 -0.387374 1.000000 -0.026886 -0.386636 1.000000 -0.023576 -0.383226 1.000000 -0.021753 -0.379539 1.000000 -0.017890 -0.373452 1.000000 -0.015304 -0.366895 1.000000 -0.011247 -0.358272 1.000000 -0.008231 -0.349197 1.000000 -0.004349 -0.338412 1.000000 -0.001237 -0.327422 1.000000 0.002165 -0.315051 1.000000 0.005111 -0.302909 1.000000 0.007837 -0.289647 1.000000 0.010466 -0.277159 1.000000 0.012440 -0.263719 1.000000 0.014714 -0.251632 1.000000 0.015947 -0.238662 1.000000 0.017917 -0.227594 1.000000 0.018470 -0.215632 1.000000 0.020235 -0.206041 1.000000 0.020179 -0.195503 1.000000 
0.028724 -0.187182 1.000000 0.026974 -0.178424 1.000000 0.027609 -0.172315 1.000000 0.025320 -0.165601 1.000000 0.025972 -0.161494 1.000000 0.023202 -0.156967 1.000000 0.023911 -0.154761 1.000000 0.020711 -0.152511 1.000000 0.021443 -0.152018 1.000000 0.017889 -0.152085 1.000000 0.018536 -0.153055 1.000000 0.014758 -0.155414 1.000000 0.015151 -0.157587 1.000000 0.011349 -0.162126 1.000000 0.011283 -0.165290 1.000000 0.007709 -0.171793 1.000000 0.007004 -0.175845 1.000000 0.003901 -0.183998 1.000000 0.002462 -0.188968 1.000000 -0.000010 -0.198404 1.000000 -0.002161 -0.204414 1.000000 -0.003973 -0.214769 1.000000 -0.006717 -0.221947 1.000000 -0.007972 -0.232892 1.000000 -0.011155 -0.241268 1.000000 -0.012035 -0.252500 1.000000 -0.015506 -0.261945 1.000000 -0.016199 -0.273158 1.000000 -0.019824 -0.283375 1.000000 -0.020450 -0.294246 1.000000 -0.024086 -0.304810 1.000000 -0.024653 -0.315002 1.000000 -0.028126 -0.325426 1.000000 -0.028510 -0.334612 1.000000 -0.031601 -0.344404 1.000000 -0.031576 -0.352286 1.000000 -0.034030 -0.360971 1.000000 -0.033318 -0.367275 1.000000 -0.034873 -0.374396 1.000000 -0.033216 -0.378853 1.000000 -0.033652 -0.383955 1.000000 -0.030885 -0.386275 1.000000 -0.030076 -0.388907 1.000000 -0.026202 -0.388785 1.000000 -0.024165 -0.388556 1.000000 -0.019391 -0.385721 1.000000 -0.016318 -0.382390 1.000000 -0.011041 -0.376703 1.000000 -0.007285 -0.370288 1.000000 -0.002015 -0.361839 1.000000 0.001978 -0.352679 1.000000 0.006739 -0.341847 1.000000 0.010538 -0.330577 1.000000 0.014404 -0.317992 1.000000 0.017689 -0.305441 1.000000 0.020449 -0.291880 1.000000 0.023061 -0.278927 1.000000 0.024676 -0.265183 1.000000 0.026612 -0.252635 1.000000 0.027166 -0.239417 1.000000 0.028529 -0.227933 1.000000 0.028169 -0.215813 1.000000 0.029124 -0.205872 1.000000 0.028004 -0.195280 1.000000 
0.038714 -0.186658 1.000000 0.036110 -0.177771 1.000000 0.035755 -0.171339 1.000000 0.032596 -0.164521 1.000000 0.032171 -0.160086 1.000000 0.028553 -0.155449 1.000000 0.028109 -0.152900 1.000000 0.024103 -0.150508 1.000000 0.023618 -0.149667 1.000000 0.019299 -0.149544 1.000000 0.018685 -0.150205 1.000000 0.014167 -0.152323 1.000000 0.013296 -0.154291 1.000000 0.008748 -0.158554 1.000000 0.007480 -0.161684 1.000000 0.003123 -0.167909 1.000000 0.001352 -0.172138 1.000000 -0.002584 -0.180053 1.000000 -0.004892 -0.185397 1.000000 -0.008228 -0.194670 1.000000 -0.011021 -0.201187 1.000000 -0.013679 -0.211466 1.000000 -0.016843 -0.219190 1.000000 -0.018858 -0.230135 1.000000 -0.022253 -0.239012 1.000000 -0.023738 -0.250295 1.000000 -0.027230 -0.260150 1.000000 -0.028320 -0.271451 1.000000 -0.031783 -0.281987 1.000000 -0.032568 -0.292978 1.000000 -0.035872 -0.303811 1.000000 -0.036351 -0.314169 1.000000 -0.039335 -0.324869 1.000000 -0.039395 -0.334292 1.000000 -0.041855 -0.344420 1.000000 -0.041282 -0.352631 1.000000 -0.042968 -0.361746 1.000000 -0.041485 -0.368483 1.000000 -0.042124 -0.376127 1.000000 -0.039461 -0.381109 1.000000 -0.038808 -0.386781 1.000000 -0.034791 -0.389678 1.000000 -0.032694 -0.392846 1.000000 -0.027342 -0.393285 1.000000 -0.023827 -0.393446 1.000000 -0.017413 -0.391073 1.000000 -0.012740 -0.387889 1.000000 -0.005791 -0.382485 1.000000 -0.000446 -0.375922 1.000000 0.006358 -0.367535 1.000000 0.011757 -0.357952 1.000000 0.017750 -0.346971 1.000000 0.022614 -0.335087 1.000000 0.027299 -0.322201 1.000000 0.031221 -0.308954 1.000000 0.034351 -0.295020 1.000000 0.037162 -0.281387 1.000000 0.038731 -0.267270 1.000000 0.040479 -0.254122 1.000000 0.040650 -0.240580 1.000000 0.041519 -0.228597 1.000000 0.040532 -0.216226 1.000000 0.040769 -0.205876 1.000000 0.038870 -0.195103 1.000000 
0.046056 -0.184422 1.000000 0.042293 -0.175466 1.000000 0.040858 -0.168801 1.000000 0.036573 -0.162016 1.000000 0.035042 -0.157451 1.000000 0.030389 -0.152905 1.000000 0.028850 -0.150311 1.000000 0.023944 -0.148020 1.000000 0.022405 -0.147214 1.000000 0.017350 -0.147153 1.000000 0.015756 -0.147923 1.000000 0.010673 -0.150024 1.000000 0.008920 -0.152168 1.000000 0.003959 -0.156310 1.000000 0.001930 -0.159665 1.000000 -0.002740 -0.165665 1.000000 -0.005137 -0.170138 1.000000 -0.009353 -0.177755 1.000000 -0.012152 -0.183324 1.000000 -0.015796 -0.192274 1.000000 -0.018954 -0.198963 1.000000 -0.021972 -0.208947 1.000000 -0.025384 -0.216769 1.000000 -0.027792 -0.227482 1.000000 -0.031315 -0.236388 1.000000 -0.033173 -0.247523 1.000000 -0.036662 -0.257363 1.000000 -0.038037 -0.268605 1.000000 -0.041352 -0.279127 1.000000 -0.042275 -0.290158 1.000000 -0.045279 -0.301027 1.000000 -0.045712 -0.311539 1.000000 -0.048250 -0.322382 1.000000 -0.048061 -0.332092 1.000000 -0.049941 -0.342517 1.000000 -0.048903 -0.351173 1.000000 -0.049884 -0.360768 1.000000 -0.047699 -0.368119 1.000000 -0.047501 -0.376420 1.000000 -0.043870 -0.382170 1.000000 -0.042224 -0.388625 1.000000 -0.036950 -0.392388 1.000000 -0.033686 -0.396357 1.000000 -0.026804 -0.397652 1.000000 -0.021956 -0.398485 1.000000 -0.013835 -0.396808 1.000000 -0.007732 -0.394013 1.000000 0.000925 -0.388997 1.000000 0.007663 -0.382437 1.000000 0.015955 -0.374042 1.000000 0.022541 -0.364070 1.000000 0.029605 -0.352704 1.000000 0.035307 -0.340126 1.000000 0.040537 -0.326599 1.000000 0.044870 -0.312493 1.000000 0.048016 -0.297821 1.000000 0.050810 -0.283308 1.000000 0.051942 -0.268500 1.000000 0.053300 -0.254554 1.000000 0.052691 -0.240457 1.000000 0.052882 -0.227816 1.000000 0.050891 -0.215063 1.000000 0.050246 -0.204210 1.000000 0.047223 -0.193225 1.000000 
0.056473 -0.181728 1.000000 0.051733 -0.172572 1.000000 0.049205 -0.165619 1.000000 0.043948 -0.158705 1.000000 0.041283 -0.153903 1.000000 0.035695 -0.149257 1.000000 0.032994 -0.146454 1.000000 0.027203 -0.144063 1.000000 0.024485 -0.143074 1.000000 0.018592 -0.142894 1.000000 0.015814 -0.143528 1.000000 0.009924 -0.145488 1.000000 0.007010 -0.147577 1.000000 0.001253 -0.151565 1.000000 -0.001875 -0.154986 1.000000 -0.007348 -0.160842 1.000000 -0.010737 -0.165524 1.000000 -0.015768 -0.173038 1.000000 -0.019411 -0.178954 1.000000 -0.023865 -0.187868 1.000000 -0.027693 -0.195011 1.000000 -0.031485 -0.205037 1.000000 -0.035379 -0.213371 1.000000 -0.038477 -0.224203 1.000000 -0.042295 -0.233630 1.000000 -0.044714 -0.244949 1.000000 -0.048313 -0.255287 1.000000 -0.050084 -0.266761 1.000000 -0.053336 -0.277749 1.000000 -0.054469 -0.289051 1.000000 -0.057253 -0.300375 1.000000 -0.057705 -0.311198 1.000000 -0.059888 -0.322520 1.000000 -0.059530 -0.332600 1.000000 -0.060935 -0.343578 1.000000 -0.059531 -0.352688 1.000000 -0.059913 -0.362950 1.000000 -0.057134 -0.370866 1.000000 -0.056176 -0.379956 1.000000 -0.051664 -0.386386 1.000000 -0.049027 -0.393701 1.000000 -0.042521 -0.398217 1.000000 -0.037960 -0.402991 1.000000 -0.029469 -0.405014 1.000000 -0.022985 -0.406415 1.000000 -0.012941 -0.405297 1.000000 -0.004930 -0.402649 1.000000 0.005783 -0.397880 1.000000 0.014507 -0.390951 1.000000 0.024725 -0.382413 1.000000 0.033093 -0.371602 1.000000 0.041694 -0.359738 1.000000 0.048718 -0.346019 1.000000 0.054933 -0.331764 1.000000 0.059996 -0.316433 1.000000 0.063536 -0.300960 1.000000 0.066483 -0.285313 1.000000 0.067486 -0.269759 1.000000 0.068521 -0.254871 1.000000 0.067389 -0.240163 1.000000 0.066913 -0.226797 1.000000 0.064140 -0.213590 1.000000 0.062606 -0.202208 1.000000 0.058659 -0.190914 1.000000 
0.064396 -0.177496 1.000000 0.058402 -0.168198 1.000000 0.054724 -0.161016 1.000000 0.048289 -0.154093 1.000000 0.044488 -0.149198 1.000000 0.037837 -0.144616 1.000000 0.034042 -0.141820 1.000000 0.027324 -0.139511 1.000000 0.023573 -0.138602 1.000000 0.016896 -0.138481 1.000000 0.013161 -0.139255 1.000000 0.006625 -0.141221 1.000000 0.002841 -0.143496 1.000000 -0.003449 -0.147425 1.000000 -0.007348 -0.151064 1.000000 -0.013277 -0.156803 1.000000 -0.017332 -0.161718 1.000000 -0.022782 -0.169081 1.000000 -0.026982 -0.175227 1.000000 -0.031850 -0.183992 1.000000 -0.036122 -0.191344 1.000000 -0.040331 -0.201261 1.000000 -0.044550 -0.209777 1.000000 -0.048051 -0.220566 1.000000 -0.052061 -0.230151 1.000000 -0.054830 -0.241504 1.000000 -0.058475 -0.251993 1.000000 -0.060500 -0.263583 1.000000 -0.063642 -0.274742 1.000000 -0.064901 -0.286241 1.000000 -0.067426 -0.297791 1.000000 -0.067858 -0.308903 1.000000 -0.069653 -0.320557 1.000000 -0.069118 -0.331045 1.000000 -0.070031 -0.342516 1.000000 -0.068274 -0.352195 1.000000 -0.068064 -0.363165 1.000000 -0.064704 -0.371856 1.000000 -0.063024 -0.381890 1.000000 -0.057614 -0.389319 1.000000 -0.054059 -0.397767 1.000000 -0.046240 -0.403456 1.000000 -0.040486 -0.409409 1.000000 -0.030227 -0.412626 1.000000 -0.022241 -0.415012 1.000000 -0.010069 -0.414864 1.000000 -0.000315 -0.412737 1.000000 0.012625 -0.408434 1.000000 0.023129 -0.401379 1.000000 0.035306 -0.392627 1.000000 0.045216 -0.381040 1.000000 0.055189 -0.368329 1.000000 0.063280 -0.353364 1.000000 0.070126 -0.337877 1.000000 0.075673 -0.321096 1.000000 0.079138 -0.304308 1.000000 0.082010 -0.287258 1.000000 0.082385 -0.270538 1.000000 0.082896 -0.254456 1.000000 0.080766 -0.238849 1.000000 0.079454 -0.224567 1.000000 0.075482 -0.210756 1.000000 0.072922 -0.198729 1.000000 0.067704 -0.187092 1.000000 
0.075367 -0.172426 1.000000 0.068214 -0.162901 1.000000 0.063310 -0.155507 1.000000 0.055768 -0.148468 1.000000 0.050760 -0.143450 1.000000 0.043075 -0.138811 1.000000 0.038100 -0.135941 1.000000 0.030422 -0.133594 1.000000 0.025514 -0.132646 1.000000 0.017940 -0.132482 1.000000 0.013074 -0.133257 1.000000 0.005684 -0.135168 1.000000 0.000805 -0.137503 1.000000 -0.006314 -0.141376 1.000000 -0.011254 -0.145158 1.000000 -0.018001 -0.150859 1.000000 -0.023015 -0.156019 1.000000 -0.029276 -0.163387 1.000000 -0.034323 -0.169886 1.000000 -0.039982 -0.178727 1.000000 -0.044963 -0.186530 1.000000 -0.049918 -0.196609 1.000000 -0.054684 -0.205651 1.000000 -0.058852 -0.216692 1.000000 -0.063234 -0.226851 1.000000 -0.066557 -0.238535 1.000000 -0.070393 -0.249617 1.000000 -0.072832 -0.261594 1.000000 -0.075993 -0.273348 1.000000 -0.077518 -0.285267 1.000000 -0.079915 -0.297418 1.000000 -0.080471 -0.308971 1.000000 -0.082030 -0.321260 1.000000 -0.081487 -0.332222 1.000000 -0.082086 -0.344422 1.000000 -0.080178 -0.354655 1.000000 -0.079575 -0.366520 1.000000 -0.075857 -0.375906 1.000000 -0.073639 -0.387046 1.000000 -0.067538 -0.395351 1.000000 -0.063165 -0.405074 1.000000 -0.054160 -0.411790 1.000000 -0.047133 -0.419004 1.000000 -0.035070 -0.423259 1.000000 -0.025225 -0.426574 1.000000 -0.010666 -0.427223 1.000000 0.001499 -0.425343 1.000000 0.017141 -0.421324 1.000000 0.030312 -0.413632 1.000000 0.045063 -0.404500 1.000000 0.057388 -0.391485 1.000000 0.069372 -0.377801 1.000000 0.079168 -0.360956 1.000000 0.087202 -0.344157 1.000000 0.093562 -0.325445 1.000000 0.097376 -0.307298 1.000000 0.100251 -0.288559 1.000000 0.100290 -0.270645 1.000000 0.100208 -0.253252 1.000000 0.097279 -0.236721 1.000000 0.095006 -0.221513 1.000000 0.089978 -0.207058 1.000000 0.086269 -0.194430 1.000000 0.079894 -0.182388 1.000000 
0.083882 -0.165815 1.000000 0.075322 -0.156140 1.000000 0.069155 -0.148570 1.000000 0.060346 -0.141543 1.000000 0.054144 -0.136506 1.000000 0.045346 -0.131956 1.000000 0.039258 -0.129166 1.000000 0.030619 -0.126925 1.000000 0.024683 -0.126121 1.000000 0.016286 -0.126041 1.000000 0.010473 -0.126999 1.000000 0.002378 -0.128952 1.000000 -0.003368 -0.131498 1.000000 -0.011103 -0.135366 1.000000 -0.016832 -0.139377 1.000000 -0.024137 -0.145042 1.000000 -0.029861 -0.150444 1.000000 -0.036648 -0.157773 1.000000 -0.042322 -0.164520 1.000000 -0.048493 -0.173352 1.000000 -0.054004 -0.181408 1.000000 -0.059451 -0.191540 1.000000 -0.064632 -0.200842 1.000000 -0.069250 -0.212015 1.000000 -0.073903 -0.222446 1.000000 -0.077596 -0.234346 1.000000 -0.081534 -0.245718 1.000000 -0.084231 -0.257983 1.000000 -0.087315 -0.270056 1.000000 -0.088971 -0.282319 1.000000 -0.091130 -0.294838 1.000000 -0.091700 -0.306789 1.000000 -0.092905 -0.319541 1.000000 -0.092280 -0.330988 1.000000 -0.092465 -0.343825 1.000000 -0.090372 -0.354707 1.000000 -0.089317 -0.367486 1.000000 -0.085229 -0.377792 1.000000 -0.082472 -0.390209 1.000000 -0.075639 -0.399793 1.000000 -0.070502 -0.411146 1.000000 -0.060168 -0.419488 1.000000 -0.051958 -0.428499 1.000000 -0.037796 -0.434534 1.000000 -0.026208 -0.439417 1.000000 -0.008836 -0.441587 1.000000 0.005584 -0.440544 1.000000 0.024337 -0.437247 1.000000 0.039954 -0.429301 1.000000 0.057457 -0.419703 1.000000 0.071916 -0.405349 1.000000 0.085723 -0.390109 1.000000 0.096922 -0.371194 1.000000 0.105641 -0.352271 1.000000 0.112529 -0.331270 1.000000 0.116028 -0.310996 1.000000 0.118660 -0.290171 1.000000 0.117693 -0.270494 1.000000 0.116818 -0.251446 1.000000 0.112507 -0.233648 1.000000 0.109115 -0.217266 1.000000 0.102566 -0.202019 1.000000 0.097590 -0.188645 1.000000 0.089708 -0.176190 1.000000 