# vtk DataFile Version 2.0
Comment goes here
ASCII

DATASET STRUCTURED_POINTS
DIMENSIONS    64   64   1

ORIGIN    0.000   0.000   0.000
SPACING   0.0156250.015625   1.000

POINT_DATA   4096
VECTORS u double

0.057007 -0.261449 1.000000 0.061676 -0.253524 1.000000 0.067457 -0.247216 1.000000 0.071511 -0.243459 1.000000 0.076420 -0.241693 1.000000 0.079439 -0.242183 1.000000 0.082920 -0.244854 1.000000 0.084255 -0.249352 1.000000 0.085602 -0.255959 1.000000 0.084554 -0.263754 1.000000 0.083161 -0.273290 1.000000 0.079291 -0.283179 1.000000 0.074975 -0.294236 1.000000 0.068396 -0.304755 1.000000 0.061605 -0.315876 1.000000 0.053076 -0.325722 1.000000 0.044843 -0.335837 1.000000 0.035590 -0.344274 1.000000 0.027251 -0.353017 1.000000 0.018609 -0.360097 1.000000 0.011384 -0.367913 1.000000 0.004372 -0.374459 1.000000 -0.001052 -0.382437 1.000000 -0.006114 -0.389715 1.000000 -0.009870 -0.399131 1.000000 -0.013499 -0.408271 1.000000 -0.016474 -0.419946 1.000000 -0.019745 -0.431351 1.000000 -0.023113 -0.445202 1.000000 -0.027065 -0.458333 1.000000 -0.031659 -0.473428 1.000000 -0.036735 -0.487118 1.000000 -0.042663 -0.502155 1.000000 -0.048542 -0.515158 1.000000 -0.055227 -0.528961 1.000000 -0.061036 -0.540335 1.000000 -0.067530 -0.552068 1.000000 -0.072219 -0.561228 1.000000 -0.077555 -0.570310 1.000000 -0.080217 -0.576857 1.000000 -0.083643 -0.582739 1.000000 -0.083716 -0.586229 1.000000 -0.084790 -0.588229 1.000000 -0.082112 -0.588060 1.000000 -0.080701 -0.585392 1.000000 -0.075500 -0.580911 1.000000 -0.071747 -0.572944 1.000000 -0.064584 -0.563731 1.000000 -0.058879 -0.550350 1.000000 -0.050534 -0.536531 1.000000 -0.043444 -0.518381 1.000000 -0.034735 -0.500763 1.000000 -0.026880 -0.479209 1.000000 -0.018457 -0.459162 1.000000 -0.010375 -0.435986 1.000000 -0.002625 -0.415123 1.000000 0.005310 -0.392132 1.000000 0.012259 -0.371988 1.000000 0.019844 -0.350714 1.000000 0.026046 -0.332533 1.000000 0.033214 -0.314109 1.000000 0.038807 -0.298797 1.000000 0.045561 -0.283986 1.000000 0.050678 -0.272159 1.000000 
0.067054 -0.266093 1.000000 0.069629 -0.257903 1.000000 0.073396 -0.251292 1.000000 0.075328 -0.247108 1.000000 0.078254 -0.244850 1.000000 0.079243 -0.244648 1.000000 0.080906 -0.246537 1.000000 0.080464 -0.250017 1.000000 0.080331 -0.255535 1.000000 0.077936 -0.262039 1.000000 0.075556 -0.270302 1.000000 0.070895 -0.278819 1.000000 0.066148 -0.288669 1.000000 0.059335 -0.298020 1.000000 0.052587 -0.308287 1.000000 0.044230 -0.317438 1.000000 0.036299 -0.327259 1.000000 0.027366 -0.335612 1.000000 0.019302 -0.344670 1.000000 0.010842 -0.352231 1.000000 0.003606 -0.360824 1.000000 -0.003586 -0.368170 1.000000 -0.009451 -0.377076 1.000000 -0.015115 -0.385108 1.000000 -0.019688 -0.395236 1.000000 -0.024192 -0.404749 1.000000 -0.028116 -0.416677 1.000000 -0.032234 -0.427943 1.000000 -0.036358 -0.441606 1.000000 -0.040829 -0.454224 1.000000 -0.045746 -0.468945 1.000000 -0.050856 -0.482056 1.000000 -0.056612 -0.496866 1.000000 -0.062052 -0.509523 1.000000 -0.068145 -0.523497 1.000000 -0.073140 -0.534933 1.000000 -0.078734 -0.547328 1.000000 -0.082307 -0.556987 1.000000 -0.086483 -0.567167 1.000000 -0.087725 -0.574574 1.000000 -0.089687 -0.581834 1.000000 -0.087962 -0.586418 1.000000 -0.087182 -0.589864 1.000000 -0.082272 -0.590882 1.000000 -0.078587 -0.589499 1.000000 -0.070787 -0.586155 1.000000 -0.064461 -0.579100 1.000000 -0.054578 -0.570842 1.000000 -0.046301 -0.557868 1.000000 -0.035491 -0.544727 1.000000 -0.026222 -0.526477 1.000000 -0.015674 -0.509235 1.000000 -0.006369 -0.487214 1.000000 0.003031 -0.467283 1.000000 0.011680 -0.443472 1.000000 0.019504 -0.422548 1.000000 0.027161 -0.398926 1.000000 0.033399 -0.378627 1.000000 0.040021 -0.356827 1.000000 0.044915 -0.338462 1.000000 0.050633 -0.319650 1.000000 0.054515 -0.304152 1.000000 0.059508 -0.289064 1.000000 0.062664 -0.277040 1.000000 
0.076222 -0.268414 1.000000 0.076624 -0.259867 1.000000 0.078483 -0.252915 1.000000 0.078295 -0.248317 1.000000 0.079354 -0.245608 1.000000 0.078381 -0.244835 1.000000 0.078348 -0.246076 1.000000 0.076232 -0.248776 1.000000 0.074722 -0.253431 1.000000 0.071072 -0.258979 1.000000 0.067768 -0.266249 1.000000 0.062358 -0.273771 1.000000 0.057194 -0.282676 1.000000 0.050119 -0.291194 1.000000 0.043395 -0.300772 1.000000 0.035126 -0.309434 1.000000 0.027477 -0.318973 1.000000 0.018759 -0.327276 1.000000 0.010994 -0.336492 1.000000 0.002632 -0.344401 1.000000 -0.004514 -0.353485 1.000000 -0.011907 -0.361402 1.000000 -0.018014 -0.370908 1.000000 -0.024224 -0.379477 1.000000 -0.029336 -0.390054 1.000000 -0.034610 -0.399844 1.000000 -0.039181 -0.411904 1.000000 -0.044055 -0.423109 1.000000 -0.048687 -0.436607 1.000000 -0.053661 -0.448945 1.000000 -0.058764 -0.463401 1.000000 -0.063989 -0.476252 1.000000 -0.069556 -0.490959 1.000000 -0.074707 -0.503624 1.000000 -0.080285 -0.517873 1.000000 -0.084626 -0.529746 1.000000 -0.089452 -0.542900 1.000000 -0.092020 -0.553479 1.000000 -0.095199 -0.564892 1.000000 -0.095024 -0.573653 1.000000 -0.095716 -0.582503 1.000000 -0.092054 -0.588734 1.000000 -0.089650 -0.593919 1.000000 -0.082222 -0.596656 1.000000 -0.076530 -0.596877 1.000000 -0.065729 -0.595036 1.000000 -0.057125 -0.589152 1.000000 -0.044088 -0.581891 1.000000 -0.033529 -0.569437 1.000000 -0.019915 -0.556610 1.000000 -0.008714 -0.538198 1.000000 0.003803 -0.520617 1.000000 0.014394 -0.497914 1.000000 0.024674 -0.477210 1.000000 0.033817 -0.452460 1.000000 0.041461 -0.430604 1.000000 0.048845 -0.406027 1.000000 0.054051 -0.384848 1.000000 0.059768 -0.362230 1.000000 0.063046 -0.343145 1.000000 0.067399 -0.323709 1.000000 0.069320 -0.307672 1.000000 0.072646 -0.292135 1.000000 0.073673 -0.279705 1.000000 
0.086937 -0.269044 1.000000 0.085216 -0.260164 1.000000 0.085083 -0.252963 1.000000 0.082837 -0.247979 1.000000 0.082015 -0.244936 1.000000 0.079147 -0.243642 1.000000 0.077439 -0.244387 1.000000 0.073690 -0.246390 1.000000 0.070811 -0.250376 1.000000 0.065891 -0.255086 1.000000 0.061603 -0.261588 1.000000 0.055342 -0.268245 1.000000 0.049600 -0.276431 1.000000 0.042078 -0.284221 1.000000 0.035115 -0.293295 1.000000 0.026697 -0.301520 1.000000 0.019005 -0.310892 1.000000 0.010266 -0.319129 1.000000 0.002471 -0.328543 1.000000 -0.005966 -0.336723 1.000000 -0.013292 -0.346286 1.000000 -0.020950 -0.354670 1.000000 -0.027475 -0.364759 1.000000 -0.034179 -0.373785 1.000000 -0.039916 -0.384850 1.000000 -0.045829 -0.394904 1.000000 -0.051094 -0.407232 1.000000 -0.056590 -0.418436 1.000000 -0.061806 -0.432000 1.000000 -0.067220 -0.444147 1.000000 -0.072665 -0.458617 1.000000 -0.078061 -0.471265 1.000000 -0.083680 -0.486149 1.000000 -0.088719 -0.498794 1.000000 -0.094083 -0.513578 1.000000 -0.098041 -0.525766 1.000000 -0.102402 -0.539934 1.000000 -0.104284 -0.551240 1.000000 -0.106696 -0.564162 1.000000 -0.105420 -0.574058 1.000000 -0.104907 -0.584804 1.000000 -0.099559 -0.592484 1.000000 -0.095339 -0.599696 1.000000 -0.085509 -0.604002 1.000000 -0.077295 -0.605992 1.000000 -0.063429 -0.605559 1.000000 -0.051721 -0.600742 1.000000 -0.035291 -0.594438 1.000000 -0.021465 -0.582040 1.000000 -0.004699 -0.569542 1.000000 0.009328 -0.550196 1.000000 0.024192 -0.532343 1.000000 0.036643 -0.508084 1.000000 0.048132 -0.486706 1.000000 0.057968 -0.460259 1.000000 0.065672 -0.437576 1.000000 0.072690 -0.411516 1.000000 0.077018 -0.389550 1.000000 0.081581 -0.365822 1.000000 0.083332 -0.346093 1.000000 0.086033 -0.325923 1.000000 0.086046 -0.309399 1.000000 0.087458 -0.293417 1.000000 0.086399 -0.280617 1.000000 
0.096700 -0.267231 1.000000 0.092755 -0.258012 1.000000 0.090746 -0.250536 1.000000 0.086438 -0.245249 1.000000 0.083850 -0.241917 1.000000 0.079144 -0.240259 1.000000 0.075871 -0.240619 1.000000 0.070577 -0.242148 1.000000 0.066421 -0.245632 1.000000 0.060309 -0.249771 1.000000 0.055100 -0.255700 1.000000 0.048031 -0.261768 1.000000 0.041739 -0.269412 1.000000 0.033761 -0.276709 1.000000 0.026565 -0.285391 1.000000 0.017946 -0.293324 1.000000 0.010221 -0.302542 1.000000 0.001390 -0.310742 1.000000 -0.006389 -0.320260 1.000000 -0.014962 -0.328638 1.000000 -0.022360 -0.338501 1.000000 -0.030307 -0.347219 1.000000 -0.037066 -0.357679 1.000000 -0.044243 -0.367036 1.000000 -0.050359 -0.378404 1.000000 -0.056863 -0.388666 1.000000 -0.062553 -0.401143 1.000000 -0.068635 -0.412397 1.000000 -0.074195 -0.425976 1.000000 -0.080070 -0.438086 1.000000 -0.085684 -0.452561 1.000000 -0.091342 -0.465237 1.000000 -0.096932 -0.480301 1.000000 -0.102012 -0.493221 1.000000 -0.107166 -0.508551 1.000000 -0.110920 -0.521428 1.000000 -0.114898 -0.536658 1.000000 -0.116244 -0.549185 1.000000 -0.118045 -0.563757 1.000000 -0.115715 -0.575442 1.000000 -0.114224 -0.588364 1.000000 -0.107049 -0.598302 1.000000 -0.101304 -0.607968 1.000000 -0.088674 -0.614700 1.000000 -0.078272 -0.618957 1.000000 -0.060684 -0.620610 1.000000 -0.046228 -0.617290 1.000000 -0.025622 -0.612147 1.000000 -0.008880 -0.600030 1.000000 0.011684 -0.587404 1.000000 0.028240 -0.567089 1.000000 0.045687 -0.547931 1.000000 0.059808 -0.521854 1.000000 0.072306 -0.498535 1.000000 0.082766 -0.470000 1.000000 0.090058 -0.445326 1.000000 0.096738 -0.417372 1.000000 0.099644 -0.393739 1.000000 0.103141 -0.368544 1.000000 0.102887 -0.347598 1.000000 0.104049 -0.326423 1.000000 0.101802 -0.309096 1.000000 0.101418 -0.292488 1.000000 0.098054 -0.279185 1.000000 
0.108124 -0.263745 1.000000 0.101939 -0.254210 1.000000 0.097888 -0.246646 1.000000 0.091521 -0.241083 1.000000 0.087093 -0.237643 1.000000 0.080563 -0.235663 1.000000 0.075700 -0.235820 1.000000 0.068864 -0.236940 1.000000 0.063409 -0.240108 1.000000 0.056074 -0.243764 1.000000 0.049883 -0.249309 1.000000 0.041924 -0.254883 1.000000 0.034958 -0.262160 1.000000 0.026393 -0.269048 1.000000 0.018776 -0.277480 1.000000 0.009794 -0.285176 1.000000 0.001802 -0.294336 1.000000 -0.007276 -0.302518 1.000000 -0.015285 -0.312191 1.000000 -0.024102 -0.320752 1.000000 -0.031795 -0.330940 1.000000 -0.040069 -0.339963 1.000000 -0.047242 -0.350823 1.000000 -0.054852 -0.360493 1.000000 -0.061487 -0.372230 1.000000 -0.068497 -0.382710 1.000000 -0.074741 -0.395460 1.000000 -0.081327 -0.406795 1.000000 -0.087393 -0.420566 1.000000 -0.093703 -0.432658 1.000000 -0.099719 -0.447345 1.000000 -0.105714 -0.460016 1.000000 -0.111592 -0.475479 1.000000 -0.116910 -0.488560 1.000000 -0.122248 -0.504670 1.000000 -0.126119 -0.518034 1.000000 -0.130149 -0.534610 1.000000 -0.131381 -0.548093 1.000000 -0.132972 -0.564691 1.000000 -0.130052 -0.577879 1.000000 -0.127816 -0.593470 1.000000 -0.119216 -0.605405 1.000000 -0.111815 -0.618072 1.000000 -0.096583 -0.627034 1.000000 -0.083309 -0.633982 1.000000 -0.061875 -0.637603 1.000000 -0.043382 -0.635804 1.000000 -0.018161 -0.631786 1.000000 0.003140 -0.619346 1.000000 0.028109 -0.606662 1.000000 0.048663 -0.584198 1.000000 0.069308 -0.563911 1.000000 0.085912 -0.534703 1.000000 0.099887 -0.509664 1.000000 0.111073 -0.478012 1.000000 0.118224 -0.451548 1.000000 0.124202 -0.421102 1.000000 0.125793 -0.395952 1.000000 0.127673 -0.369066 1.000000 0.125423 -0.347002 1.000000 0.124509 -0.324837 1.000000 0.119969 -0.306768 1.000000 0.117363 -0.289670 1.000000 0.111661 -0.275899 1.000000 
0.118395 -0.257510 1.000000 0.109870 -0.247777 1.000000 0.103897 -0.240118 1.000000 0.095476 -0.234454 1.000000 0.089317 -0.230960 1.000000 0.081031 -0.228866 1.000000 0.074674 -0.228919 1.000000 0.066389 -0.229857 1.000000 0.059716 -0.232842 1.000000 0.051246 -0.236246 1.000000 0.044132 -0.241549 1.000000 0.035340 -0.246843 1.000000 0.027739 -0.253881 1.000000 0.018605 -0.260527 1.000000 0.010593 -0.268792 1.000000 0.001231 -0.276351 1.000000 -0.006996 -0.285472 1.000000 -0.016360 -0.293655 1.000000 -0.024538 -0.303434 1.000000 -0.033643 -0.312128 1.000000 -0.041519 -0.322534 1.000000 -0.050149 -0.331773 1.000000 -0.057562 -0.342896 1.000000 -0.065617 -0.352791 1.000000 -0.072541 -0.364760 1.000000 -0.080055 -0.375411 1.000000 -0.086595 -0.388313 1.000000 -0.093694 -0.399746 1.000000 -0.100009 -0.413600 1.000000 -0.106801 -0.425760 1.000000 -0.112998 -0.440549 1.000000 -0.119436 -0.453364 1.000000 -0.125444 -0.469105 1.000000 -0.131175 -0.482566 1.000000 -0.136623 -0.499342 1.000000 -0.140845 -0.513526 1.000000 -0.144956 -0.531395 1.000000 -0.146324 -0.546362 1.000000 -0.147847 -0.565085 1.000000 -0.144503 -0.580598 1.000000 -0.141781 -0.599200 1.000000 -0.131676 -0.614302 1.000000 -0.122978 -0.630601 1.000000 -0.104626 -0.643205 1.000000 -0.088898 -0.653666 1.000000 -0.062562 -0.660538 1.000000 -0.040473 -0.661004 1.000000 -0.009227 -0.658669 1.000000 0.016179 -0.646300 1.000000 0.046775 -0.632927 1.000000 0.070920 -0.608288 1.000000 0.095131 -0.585180 1.000000 0.113984 -0.552433 1.000000 0.128954 -0.523696 1.000000 0.140819 -0.488337 1.000000 0.146932 -0.458455 1.000000 0.152288 -0.424941 1.000000 0.151656 -0.397210 1.000000 0.152062 -0.368174 1.000000 0.147101 -0.344434 1.000000 0.144268 -0.320968 1.000000 0.136963 -0.301950 1.000000 0.132283 -0.284180 1.000000 0.123983 -0.269945 1.000000 
0.130295 -0.249633 1.000000 0.119340 -0.239712 1.000000 0.111223 -0.232251 1.000000 0.100697 -0.226503 1.000000 0.092706 -0.223198 1.000000 0.082637 -0.221020 1.000000 0.074750 -0.221178 1.000000 0.064993 -0.221981 1.000000 0.057082 -0.224965 1.000000 0.047439 -0.228181 1.000000 0.039364 -0.233404 1.000000 0.029677 -0.238491 1.000000 0.021362 -0.245425 1.000000 0.011569 -0.251902 1.000000 0.003036 -0.260106 1.000000 -0.006808 -0.267588 1.000000 -0.015433 -0.276745 1.000000 -0.025178 -0.284976 1.000000 -0.033708 -0.294908 1.000000 -0.043163 -0.303771 1.000000 -0.051409 -0.314434 1.000000 -0.060406 -0.323921 1.000000 -0.068239 -0.335356 1.000000 -0.076697 -0.345514 1.000000 -0.084088 -0.357791 1.000000 -0.092031 -0.368655 1.000000 -0.099056 -0.381822 1.000000 -0.106593 -0.393381 1.000000 -0.113386 -0.407459 1.000000 -0.120631 -0.419669 1.000000 -0.127305 -0.434709 1.000000 -0.134253 -0.447571 1.000000 -0.140781 -0.463740 1.000000 -0.147135 -0.477381 1.000000 -0.153203 -0.494999 1.000000 -0.158165 -0.509700 1.000000 -0.162988 -0.529132 1.000000 -0.165067 -0.545202 1.000000 -0.167220 -0.566512 1.000000 -0.164167 -0.583945 1.000000 -0.161541 -0.606297 1.000000 -0.150623 -0.624207 1.000000 -0.140748 -0.645122 1.000000 -0.119666 -0.661114 1.000000 -0.100678 -0.676045 1.000000 -0.069247 -0.686029 1.000000 -0.041553 -0.689139 1.000000 -0.003497 -0.688438 1.000000 0.028839 -0.675348 1.000000 0.066092 -0.661403 1.000000 0.096361 -0.632554 1.000000 0.125146 -0.606976 1.000000 0.147347 -0.568527 1.000000 0.163972 -0.536499 1.000000 0.176272 -0.495989 1.000000 0.181611 -0.463017 1.000000 0.185417 -0.425826 1.000000 0.182552 -0.395726 1.000000 0.180431 -0.364510 1.000000 0.172624 -0.339208 1.000000 0.166984 -0.314699 1.000000 0.156754 -0.294783 1.000000 0.149365 -0.276690 1.000000 0.138334 -0.262011 1.000000 
0.140697 -0.238516 1.000000 0.127257 -0.228705 1.000000 0.117113 -0.221475 1.000000 0.104539 -0.215937 1.000000 0.094812 -0.212899 1.000000 0.083069 -0.210910 1.000000 0.073734 -0.211275 1.000000 0.062629 -0.212188 1.000000 0.053548 -0.215288 1.000000 0.042844 -0.218528 1.000000 0.033862 -0.223788 1.000000 0.023363 -0.228841 1.000000 0.014373 -0.235772 1.000000 0.003968 -0.242202 1.000000 -0.005050 -0.250416 1.000000 -0.015366 -0.257882 1.000000 -0.024347 -0.267102 1.000000 -0.034491 -0.275380 1.000000 -0.043306 -0.285449 1.000000 -0.053145 -0.294427 1.000000 -0.061650 -0.305290 1.000000 -0.071057 -0.314942 1.000000 -0.079142 -0.326606 1.000000 -0.088041 -0.336942 1.000000 -0.095673 -0.349425 1.000000 -0.104077 -0.360443 1.000000 -0.111312 -0.373752 1.000000 -0.119321 -0.385416 1.000000 -0.126289 -0.399562 1.000000 -0.134043 -0.411841 1.000000 -0.140892 -0.426927 1.000000 -0.148460 -0.439888 1.000000 -0.155249 -0.456224 1.000000 -0.162428 -0.470144 1.000000 -0.168940 -0.488312 1.000000 -0.174972 -0.503741 1.000000 -0.180461 -0.524493 1.000000 -0.183697 -0.542130 1.000000 -0.186601 -0.565986 1.000000 -0.184280 -0.586277 1.000000 -0.182062 -0.612743 1.000000 -0.170494 -0.635096 1.000000 -0.159911 -0.661559 1.000000 -0.135551 -0.683276 1.000000 -0.113837 -0.704085 1.000000 -0.075668 -0.719663 1.000000 -0.042895 -0.726754 1.000000 0.004556 -0.729061 1.000000 0.043206 -0.715888 1.000000 0.089583 -0.700449 1.000000 0.125323 -0.667342 1.000000 0.159180 -0.636166 1.000000 0.184419 -0.591259 1.000000 0.201505 -0.552622 1.000000 0.214261 -0.505976 1.000000 0.217099 -0.467599 1.000000 0.219552 -0.425882 1.000000 0.212971 -0.392225 1.000000 0.208567 -0.358246 1.000000 0.196912 -0.330987 1.000000 0.188688 -0.305099 1.000000 0.174972 -0.284330 1.000000 0.165054 -0.265760 1.000000 0.151043 -0.250875 1.000000 
0.152466 -0.225847 1.000000 0.136383 -0.216129 1.000000 0.123994 -0.209533 1.000000 0.109278 -0.204202 1.000000 0.097740 -0.201729 1.000000 0.084270 -0.199942 1.000000 0.073482 -0.200738 1.000000 0.060993 -0.201795 1.000000 0.050757 -0.205181 1.000000 0.038958 -0.208495 1.000000 0.029071 -0.213922 1.000000 0.017714 -0.219002 1.000000 0.008022 -0.226030 1.000000 -0.003052 -0.232479 1.000000 -0.012622 -0.240772 1.000000 -0.023473 -0.248291 1.000000 -0.032912 -0.257620 1.000000 -0.043508 -0.266017 1.000000 -0.052742 -0.276254 1.000000 -0.062992 -0.285427 1.000000 -0.071914 -0.296523 1.000000 -0.081714 -0.306429 1.000000 -0.090232 -0.318371 1.000000 -0.099511 -0.328983 1.000000 -0.107585 -0.341754 1.000000 -0.116353 -0.353017 1.000000 -0.124026 -0.366578 1.000000 -0.132400 -0.378404 1.000000 -0.139809 -0.392737 1.000000 -0.147994 -0.405065 1.000000 -0.155350 -0.420293 1.000000 -0.163547 -0.433215 1.000000 -0.171037 -0.449772 1.000000 -0.179222 -0.463689 1.000000 -0.186801 -0.482455 1.000000 -0.194342 -0.498180 1.000000 -0.201383 -0.520407 1.000000 -0.206553 -0.539062 1.000000 -0.211381 -0.565929 1.000000 -0.210909 -0.588485 1.000000 -0.210380 -0.620083 1.000000 -0.199418 -0.646358 1.000000 -0.188956 -0.680064 1.000000 -0.162179 -0.707187 1.000000 -0.137094 -0.735928 1.000000 -0.091930 -0.756971 1.000000 -0.050978 -0.769364 1.000000 0.007344 -0.774540 1.000000 0.057423 -0.760375 1.000000 0.114648 -0.743519 1.000000 0.160601 -0.702151 1.000000 0.201268 -0.666072 1.000000 0.230836 -0.610852 1.000000 0.249289 -0.566341 1.000000 0.261251 -0.511584 1.000000 0.261721 -0.468308 1.000000 0.260766 -0.421698 1.000000 0.250194 -0.384741 1.000000 0.241657 -0.348451 1.000000 0.225771 -0.319330 1.000000 0.213637 -0.292759 1.000000 0.196094 -0.271148 1.000000 0.182819 -0.252761 1.000000 0.165579 -0.237654 1.000000 
0.162224 -0.209319 1.000000 0.143574 -0.200232 1.000000 0.129042 -0.194370 1.000000 0.112346 -0.189683 1.000000 0.099076 -0.187892 1.000000 0.084065 -0.186651 1.000000 0.071886 -0.187998 1.000000 0.058192 -0.189464 1.000000 0.046854 -0.193253 1.000000 0.034111 -0.196842 1.000000 0.023363 -0.202544 1.000000 0.011265 -0.207792 1.000000 0.000906 -0.215006 1.000000 -0.010762 -0.221557 1.000000 -0.020852 -0.229995 1.000000 -0.032204 -0.237591 1.000000 -0.042063 -0.247067 1.000000 -0.053117 -0.255550 1.000000 -0.062708 -0.265966 1.000000 -0.073407 -0.275254 1.000000 -0.082647 -0.286568 1.000000 -0.092901 -0.296625 1.000000 -0.101693 -0.308808 1.000000 -0.111422 -0.319589 1.000000 -0.119705 -0.332583 1.000000 -0.128899 -0.344002 1.000000 -0.136698 -0.357705 1.000000 -0.145479 -0.369633 1.000000 -0.152949 -0.383967 1.000000 -0.161598 -0.396300 1.000000 -0.169041 -0.411374 1.000000 -0.177938 -0.424200 1.000000 -0.185722 -0.440549 1.000000 -0.195109 -0.454380 1.000000 -0.203430 -0.473192 1.000000 -0.212920 -0.489159 1.000000 -0.221347 -0.512282 1.000000 -0.229207 -0.532132 1.000000 -0.236035 -0.561630 1.000000 -0.238408 -0.587278 1.000000 -0.239959 -0.624234 1.000000 -0.230438 -0.656520 1.000000 -0.220778 -0.698797 1.000000 -0.191384 -0.735138 1.000000 -0.163657 -0.774335 1.000000 -0.109102 -0.805778 1.000000 -0.060468 -0.826028 1.000000 0.013559 -0.837462 1.000000 0.074252 -0.823193 1.000000 0.147895 -0.803627 1.000000 0.202743 -0.753962 1.000000 0.250576 -0.706401 1.000000 0.284068 -0.639280 1.000000 0.300823 -0.583037 1.000000 0.312228 -0.518407 1.000000 0.307006 -0.467114 1.000000 0.303089 -0.414356 1.000000 0.286228 -0.373116 1.000000 0.273970 -0.333823 1.000000 0.252608 -0.302967 1.000000 0.236870 -0.275422 1.000000 0.214973 -0.253512 1.000000 0.198551 -0.235245 1.000000 0.177960 -0.220523 1.000000 
0.172757 -0.191460 1.000000 0.151333 -0.182947 1.000000 0.134543 -0.178305 1.000000 0.115758 -0.174235 1.000000 0.100773 -0.173447 1.000000 0.084167 -0.172753 1.000000 0.070671 -0.174865 1.000000 0.055741 -0.176763 1.000000 0.043382 -0.181100 1.000000 0.029671 -0.185003 1.000000 0.018124 -0.191076 1.000000 0.005256 -0.196545 1.000000 -0.005738 -0.204004 1.000000 -0.018036 -0.210720 1.000000 -0.028652 -0.219330 1.000000 -0.040541 -0.227080 1.000000 -0.050867 -0.236708 1.000000 -0.062403 -0.245372 1.000000 -0.072442 -0.255963 1.000000 -0.083591 -0.265487 1.000000 -0.093282 -0.277029 1.000000 -0.103951 -0.287383 1.000000 -0.113195 -0.299851 1.000000 -0.123284 -0.310971 1.000000 -0.131997 -0.324277 1.000000 -0.141476 -0.336024 1.000000 -0.149656 -0.349998 1.000000 -0.158662 -0.362153 1.000000 -0.166476 -0.376618 1.000000 -0.175401 -0.388974 1.000000 -0.183250 -0.403953 1.000000 -0.192725 -0.416533 1.000000 -0.201217 -0.432601 1.000000 -0.211866 -0.445981 1.000000 -0.221582 -0.464644 1.000000 -0.233431 -0.480263 1.000000 -0.244364 -0.504119 1.000000 -0.255894 -0.524374 1.000000 -0.266545 -0.556728 1.000000 -0.273486 -0.584561 1.000000 -0.279658 -0.628053 1.000000 -0.273921 -0.665538 1.000000 -0.267626 -0.719118 1.000000 -0.237645 -0.764308 1.000000 -0.207789 -0.818210 1.000000 -0.143615 -0.860160 1.000000 -0.082712 -0.892025 1.000000 0.010124 -0.909260 1.000000 0.091195 -0.894710 1.000000 0.183938 -0.872010 1.000000 0.257706 -0.804832 1.000000 0.316078 -0.747396 1.000000 0.354052 -0.661099 1.000000 0.370237 -0.594501 1.000000 0.377086 -0.517767 1.000000 0.365801 -0.459170 1.000000 0.354729 -0.400920 1.000000 0.330735 -0.355621 1.000000 0.311794 -0.314831 1.000000 0.284172 -0.282230 1.000000 0.263089 -0.255124 1.000000 0.236270 -0.232829 1.000000 0.215807 -0.215749 1.000000 0.191505 -0.201327 1.000000 
0.180607 -0.169147 1.000000 0.156732 -0.162019 1.000000 0.137755 -0.158795 1.000000 0.117207 -0.155913 1.000000 0.100559 -0.156300 1.000000 0.082648 -0.156549 1.000000 0.067877 -0.159573 1.000000 0.051960 -0.162175 1.000000 0.038615 -0.167182 1.000000 0.024137 -0.171584 1.000000 0.011822 -0.178128 1.000000 -0.001661 -0.183930 1.000000 -0.013267 -0.191715 1.000000 -0.026086 -0.198643 1.000000 -0.037211 -0.207489 1.000000 -0.049580 -0.215377 1.000000 -0.060353 -0.225205 1.000000 -0.072370 -0.233975 1.000000 -0.082822 -0.244777 1.000000 -0.094472 -0.254415 1.000000 -0.104541 -0.266209 1.000000 -0.115721 -0.276711 1.000000 -0.125281 -0.289475 1.000000 -0.135847 -0.300787 1.000000 -0.144757 -0.314391 1.000000 -0.154621 -0.326343 1.000000 -0.162826 -0.340519 1.000000 -0.172099 -0.352812 1.000000 -0.179770 -0.367228 1.000000 -0.188934 -0.379526 1.000000 -0.196599 -0.394050 1.000000 -0.206588 -0.406233 1.000000 -0.215168 -0.421407 1.000000 -0.227153 -0.434016 1.000000 -0.237710 -0.451627 1.000000 -0.252392 -0.466376 1.000000 -0.265457 -0.489819 1.000000 -0.281802 -0.509951 1.000000 -0.296231 -0.544038 1.000000 -0.309685 -0.574165 1.000000 -0.320968 -0.623800 1.000000 -0.321392 -0.668552 1.000000 -0.319610 -0.735074 1.000000 -0.290316 -0.794975 1.000000 -0.259568 -0.868365 1.000000 -0.182817 -0.930855 1.000000 -0.109531 -0.979766 1.000000 0.010964 -1.011369 1.000000 0.111608 -0.997007 1.000000 0.238042 -0.970137 1.000000 0.327175 -0.886102 1.000000 0.394528 -0.802748 1.000000 0.436661 -0.693439 1.000000 0.444228 -0.606071 1.000000 0.447411 -0.513971 1.000000 0.423880 -0.444757 1.000000 0.406602 -0.379289 1.000000 0.372331 -0.330181 1.000000 0.347362 -0.287260 1.000000 0.312325 -0.254262 1.000000 0.286277 -0.227520 1.000000 0.254355 -0.206230 1.000000 0.230058 -0.190481 1.000000 0.202253 -0.177473 1.000000 
0.188211 -0.145939 1.000000 0.161686 -0.140095 1.000000 0.140648 -0.138780 1.000000 0.118255 -0.137039 1.000000 0.100136 -0.138888 1.000000 0.080896 -0.140071 1.000000 0.065044 -0.144177 1.000000 0.048133 -0.147501 1.000000 0.033974 -0.153277 1.000000 0.018726 -0.158210 1.000000 0.005778 -0.165277 1.000000 -0.008330 -0.171456 1.000000 -0.020451 -0.179578 1.000000 -0.033809 -0.186777 1.000000 -0.045385 -0.195836 1.000000 -0.058255 -0.203938 1.000000 -0.069465 -0.213918 1.000000 -0.081974 -0.222904 1.000000 -0.092882 -0.233861 1.000000 -0.105022 -0.243768 1.000000 -0.115578 -0.255779 1.000000 -0.127217 -0.266643 1.000000 -0.137270 -0.279725 1.000000 -0.148200 -0.291495 1.000000 -0.157553 -0.305504 1.000000 -0.167603 -0.317955 1.000000 -0.176126 -0.332520 1.000000 -0.185372 -0.345209 1.000000 -0.193190 -0.359783 1.000000 -0.202225 -0.372144 1.000000 -0.209957 -0.386299 1.000000 -0.220085 -0.397965 1.000000 -0.228999 -0.412036 1.000000 -0.242091 -0.423440 1.000000 -0.253942 -0.439405 1.000000 -0.271631 -0.452515 1.000000 -0.287945 -0.474709 1.000000 -0.310115 -0.493600 1.000000 -0.330783 -0.528845 1.000000 -0.353213 -0.559825 1.000000 -0.374102 -0.616347 1.000000 -0.385036 -0.666896 1.000000 -0.394104 -0.750194 1.000000 -0.370526 -0.824349 1.000000 -0.343567 -0.925709 1.000000 -0.254498 -1.010197 1.000000 -0.162961 -1.085806 1.000000 -0.007009 -1.130399 1.000000 0.132170 -1.121788 1.000000 0.294741 -1.087577 1.000000 0.424147 -0.961318 1.000000 0.508756 -0.856882 1.000000 0.550025 -0.710800 1.000000 0.549723 -0.605251 1.000000 0.538171 -0.497418 1.000000 0.500490 -0.418360 1.000000 0.469253 -0.349371 1.000000 0.422759 -0.296382 1.000000 0.387703 -0.254825 1.000000 0.343907 -0.221144 1.000000 0.311120 -0.197154 1.000000 0.273307 -0.176610 1.000000 0.244564 -0.163647 1.000000 0.212840 -0.151877 1.000000 
0.192391 -0.117993 1.000000 0.163897 -0.114456 1.000000 0.140811 -0.115364 1.000000 0.117102 -0.115401 1.000000 0.097525 -0.118941 1.000000 0.077362 -0.121457 1.000000 0.060447 -0.126810 1.000000 0.042860 -0.131105 1.000000 0.027905 -0.137775 1.000000 0.012138 -0.143388 1.000000 -0.001425 -0.151072 1.000000 -0.015962 -0.157702 1.000000 -0.028587 -0.166236 1.000000 -0.042344 -0.173708 1.000000 -0.054372 -0.183043 1.000000 -0.067662 -0.191297 1.000000 -0.079319 -0.201486 1.000000 -0.092312 -0.210558 1.000000 -0.103685 -0.221729 1.000000 -0.116389 -0.231719 1.000000 -0.127417 -0.244014 1.000000 -0.139667 -0.255019 1.000000 -0.150133 -0.268493 1.000000 -0.161626 -0.280504 1.000000 -0.171217 -0.294988 1.000000 -0.181637 -0.307771 1.000000 -0.190081 -0.322750 1.000000 -0.199364 -0.335748 1.000000 -0.206704 -0.350376 1.000000 -0.215452 -0.362759 1.000000 -0.222419 -0.376190 1.000000 -0.232328 -0.387191 1.000000 -0.240639 -0.399402 1.000000 -0.254526 -0.409073 1.000000 -0.266777 -0.422087 1.000000 -0.287701 -0.432374 1.000000 -0.306531 -0.451335 1.000000 -0.335931 -0.467112 1.000000 -0.362445 -0.500939 1.000000 -0.397107 -0.530846 1.000000 -0.428025 -0.591977 1.000000 -0.454866 -0.648550 1.000000 -0.476877 -0.749583 1.000000 -0.464577 -0.845512 1.000000 -0.444348 -0.984393 1.000000 -0.340490 -1.111462 1.000000 -0.227513 -1.227256 1.000000 -0.023145 -1.306500 1.000000 0.154693 -1.298757 1.000000 0.397308 -1.262115 1.000000 0.554087 -1.100116 1.000000 0.643513 -0.928625 1.000000 0.686085 -0.734406 1.000000 0.657152 -0.594218 1.000000 0.633844 -0.464738 1.000000 0.571901 -0.375838 1.000000 0.528557 -0.301559 1.000000 0.466906 -0.248631 1.000000 0.422627 -0.208407 1.000000 0.370017 -0.177679 1.000000 0.330828 -0.156920 1.000000 0.287873 -0.139674 1.000000 0.254798 -0.130014 1.000000 0.219968 -0.121120 1.000000 
0.194872 -0.089868 1.000000 0.164320 -0.088515 1.000000 0.139701 -0.091985 1.000000 0.114681 -0.093753 1.000000 0.094079 -0.099148 1.000000 0.073028 -0.102993 1.000000 0.055395 -0.109675 1.000000 0.037169 -0.114959 1.000000 0.021690 -0.122556 1.000000 0.005430 -0.128879 1.000000 -0.008537 -0.137176 1.000000 -0.023493 -0.144294 1.000000 -0.036458 -0.153197 1.000000 -0.050616 -0.160992 1.000000 -0.062975 -0.170518 1.000000 -0.076698 -0.178992 1.000000 -0.088726 -0.189269 1.000000 -0.102216 -0.198537 1.000000 -0.114042 -0.209784 1.000000 -0.127307 -0.220036 1.000000 -0.138878 -0.232502 1.000000 -0.151696 -0.243927 1.000000 -0.162756 -0.257765 1.000000 -0.174695 -0.270411 1.000000 -0.184819 -0.285493 1.000000 -0.195365 -0.299090 1.000000 -0.204103 -0.314793 1.000000 -0.213000 -0.328586 1.000000 -0.220201 -0.343694 1.000000 -0.228040 -0.356429 1.000000 -0.234387 -0.369424 1.000000 -0.243301 -0.379744 1.000000 -0.250878 -0.389838 1.000000 -0.264784 -0.397302 1.000000 -0.277237 -0.406230 1.000000 -0.300898 -0.412762 1.000000 -0.322680 -0.426479 1.000000 -0.359749 -0.437687 1.000000 -0.394524 -0.467669 1.000000 -0.444208 -0.494244 1.000000 -0.491743 -0.558588 1.000000 -0.541934 -0.618044 1.000000 -0.590043 -0.740483 1.000000 -0.601323 -0.856879 1.000000 -0.603787 -1.049796 1.000000 -0.486453 -1.227032 1.000000 -0.346912 -1.403150 1.000000 -0.070869 -1.512605 1.000000 0.174179 -1.542242 1.000000 0.480806 -1.486972 1.000000 0.738300 -1.207522 1.000000 0.863654 -0.988880 1.000000 0.876648 -0.724439 1.000000 0.816857 -0.553011 1.000000 0.755284 -0.412167 1.000000 0.663314 -0.313072 1.000000 0.596324 -0.244377 1.000000 0.515860 -0.190452 1.000000 0.458643 -0.157935 1.000000 0.395387 -0.129345 1.000000 0.349122 -0.115011 1.000000 0.300215 -0.100580 1.000000 0.263113 -0.095742 1.000000 0.224865 -0.089470 1.000000 