# vtk DataFile Version 2.0
Comment goes here
ASCII

DATASET STRUCTURED_POINTS
DIMENSIONS    64   64   1

ORIGIN    0.000   0.000   0.000
SPACING   0.0156250.015625   1.000

POINT_DATA   4096
SCALARS uMag double
LOOKUP_TABLE default

2.490475e-02 1.711293e-02 1.038691e-02 3.563424e-03 4.112227e-03 1.562410e-02 1.894755e-02 3.227787e-02 3.441001e-02 4.903301e-02 5.014421e-02 6.387619e-02 6.468893e-02 7.374989e-02 7.529787e-02 7.581236e-02 7.879903e-02 6.979002e-02 7.548565e-02 6.151537e-02 6.945063e-02 5.794935e-02 7.043998e-02 6.681022e-02 8.476703e-02 8.843975e-02 1.075796e-01 1.152788e-01 1.295911e-01 1.384363e-01 1.437395e-01 1.519578e-01 1.493646e-01 1.554883e-01 1.504296e-01 1.529399e-01 1.490392e-01 1.480466e-01 1.464528e-01 1.444091e-01 1.456158e-01 1.450484e-01 1.484601e-01 1.497457e-01 1.527232e-01 1.540235e-01 1.534512e-01 1.525519e-01 1.482819e-01 1.443995e-01 1.384227e-01 1.322208e-01 1.247081e-01 1.172650e-01 1.081062e-01 1.004414e-01 9.028000e-02 8.288008e-02 7.260050e-02 6.548951e-02 5.575833e-02 4.873447e-02 3.991382e-02 3.267216e-02 
2.190150e-02 1.582285e-02 8.965463e-03 7.380814e-03 6.878335e-03 1.648889e-02 1.900474e-02 2.977541e-02 3.179277e-02 4.272161e-02 4.428088e-02 5.372942e-02 5.564321e-02 6.122498e-02 6.448216e-02 6.408850e-02 6.896382e-02 6.238140e-02 6.883672e-02 5.922853e-02 6.708672e-02 5.910231e-02 6.975438e-02 6.699397e-02 8.120019e-02 8.437776e-02 9.981162e-02 1.077124e-01 1.205200e-01 1.311183e-01 1.380799e-01 1.485943e-01 1.489879e-01 1.563044e-01 1.523687e-01 1.548547e-01 1.497842e-01 1.484736e-01 1.447246e-01 1.421484e-01 1.409384e-01 1.392480e-01 1.402363e-01 1.400821e-01 1.414205e-01 1.419224e-01 1.413543e-01 1.407671e-01 1.373960e-01 1.342689e-01 1.286484e-01 1.231306e-01 1.156629e-01 1.087853e-01 9.989456e-02 9.272041e-02 8.309615e-02 7.618403e-02 6.651705e-02 5.995409e-02 5.073666e-02 4.438633e-02 3.588640e-02 2.959072e-02 
2.635193e-02 2.188068e-02 1.659097e-02 1.616637e-02 1.467628e-02 2.113640e-02 2.263264e-02 3.210368e-02 3.419862e-02 4.423265e-02 4.640142e-02 5.519060e-02 5.762829e-02 6.314266e-02 6.625045e-02 6.688171e-02 7.100120e-02 6.675930e-02 7.232486e-02 6.555294e-02 7.271788e-02 6.693085e-02 7.624544e-02 7.409293e-02 8.543154e-02 8.741451e-02 9.889401e-02 1.039107e-01 1.127696e-01 1.192306e-01 1.236083e-01 1.300651e-01 1.303744e-01 1.355953e-01 1.340007e-01 1.371187e-01 1.355190e-01 1.365471e-01 1.358743e-01 1.357737e-01 1.362382e-01 1.360527e-01 1.371296e-01 1.371181e-01 1.375409e-01 1.370693e-01 1.355417e-01 1.337192e-01 1.299958e-01 1.264341e-01 1.211293e-01 1.160815e-01 1.095227e-01 1.035499e-01 9.592562e-02 8.961921e-02 8.130766e-02 7.505229e-02 6.654404e-02 6.048942e-02 5.222225e-02 4.639820e-02 3.869537e-02 3.320321e-02 
2.625415e-02 2.324915e-02 1.850950e-02 1.904105e-02 1.743763e-02 2.253040e-02 2.349416e-02 3.069461e-02 3.263014e-02 3.998252e-02 4.242889e-02 4.851367e-02 5.164792e-02 5.514667e-02 5.925539e-02 5.931349e-02 6.445550e-02 6.131303e-02 6.744976e-02 6.278675e-02 6.993715e-02 6.611084e-02 7.459809e-02 7.352827e-02 8.332408e-02 8.574022e-02 9.574450e-02 1.012024e-01 1.095876e-01 1.168083e-01 1.219984e-01 1.292179e-01 1.307997e-01 1.362934e-01 1.351996e-01 1.380534e-01 1.358226e-01 1.363388e-01 1.343026e-01 1.335592e-01 1.323970e-01 1.314332e-01 1.309931e-01 1.302325e-01 1.296603e-01 1.288041e-01 1.270724e-01 1.253969e-01 1.219826e-01 1.188936e-01 1.138864e-01 1.093901e-01 1.030428e-01 9.760251e-02 9.024722e-02 8.444446e-02 7.651416e-02 7.077370e-02 6.271338e-02 5.725068e-02 4.943419e-02 4.436701e-02 3.709186e-02 3.265302e-02 
3.193085e-02 2.954319e-02 2.595988e-02 2.629038e-02 2.506030e-02 2.869292e-02 2.948825e-02 3.526927e-02 3.716434e-02 4.351771e-02 4.601259e-02 5.155098e-02 5.456503e-02 5.808653e-02 6.171435e-02 6.248168e-02 6.684394e-02 6.502717e-02 7.026428e-02 6.710038e-02 7.328452e-02 7.053997e-02 7.771822e-02 7.682486e-02 8.468928e-02 8.617001e-02 9.377137e-02 9.727279e-02 1.033436e-01 1.080158e-01 1.117094e-01 1.165766e-01 1.180139e-01 1.222028e-01 1.222763e-01 1.252096e-01 1.248588e-01 1.264399e-01 1.262266e-01 1.267976e-01 1.268392e-01 1.268241e-01 1.268098e-01 1.263524e-01 1.256591e-01 1.245478e-01 1.225810e-01 1.204823e-01 1.170636e-01 1.138301e-01 1.091671e-01 1.049367e-01 9.927537e-02 9.437170e-02 8.794593e-02 8.274295e-02 7.584609e-02 7.065023e-02 6.362514e-02 5.864821e-02 5.184131e-02 4.727012e-02 4.102677e-02 3.718179e-02 
3.285736e-02 3.122285e-02 2.785739e-02 2.837344e-02 2.700708e-02 2.983166e-02 3.029400e-02 3.457185e-02 3.627873e-02 4.084505e-02 4.342713e-02 4.725572e-02 5.062663e-02 5.292171e-02 5.708669e-02 5.745848e-02 6.237291e-02 6.106397e-02 6.665852e-02 6.459291e-02 7.082540e-02 6.925580e-02 7.611704e-02 7.610954e-02 8.339685e-02 8.544342e-02 9.254021e-02 9.645283e-02 1.024510e-01 1.074785e-01 1.115943e-01 1.166790e-01 1.186661e-01 1.228038e-01 1.230496e-01 1.256640e-01 1.249037e-01 1.260130e-01 1.249399e-01 1.249772e-01 1.239691e-01 1.234194e-01 1.224303e-01 1.215391e-01 1.201788e-01 1.188691e-01 1.166571e-01 1.146566e-01 1.113113e-01 1.083989e-01 1.039200e-01 1.001189e-01 9.466559e-02 9.022810e-02 8.404962e-02 7.932715e-02 7.273519e-02 6.804892e-02 6.137616e-02 5.697490e-02 5.054464e-02 4.665626e-02 4.079536e-02 3.774713e-02 
3.801152e-02 3.658172e-02 3.393655e-02 3.425823e-02 3.322995e-02 3.540456e-02 3.586197e-02 3.936082e-02 4.091539e-02 4.486736e-02 4.719955e-02 5.072014e-02 5.368014e-02 5.604959e-02 5.959562e-02 6.043771e-02 6.456522e-02 6.401940e-02 6.873055e-02 6.746484e-02 7.272759e-02 7.167513e-02 7.738966e-02 7.735143e-02 8.323997e-02 8.459158e-02 9.013422e-02 9.276822e-02 9.734898e-02 1.008049e-01 1.040122e-01 1.076756e-01 1.095204e-01 1.128065e-01 1.136549e-01 1.161559e-01 1.164517e-01 1.180226e-01 1.180641e-01 1.187879e-01 1.186408e-01 1.186726e-01 1.181733e-01 1.175815e-01 1.164219e-01 1.151444e-01 1.130393e-01 1.109697e-01 1.078176e-01 1.049313e-01 1.008245e-01 9.723345e-02 9.234964e-02 8.827379e-02 8.282608e-02 7.853105e-02 7.276840e-02 6.850807e-02 6.270926e-02 5.870958e-02 5.317191e-02 4.966645e-02 4.471098e-02 4.201477e-02 
3.908893e-02 3.802250e-02 3.544435e-02 3.574820e-02 3.459856e-02 3.623863e-02 3.647102e-02 3.901940e-02 4.040259e-02 4.321685e-02 4.552933e-02 4.797763e-02 5.108425e-02 5.269214e-02 5.650287e-02 5.707294e-02 6.149289e-02 6.119336e-02 6.612175e-02 6.546936e-02 7.080923e-02 7.048871e-02 7.612668e-02 7.673348e-02 8.245599e-02 8.428414e-02 8.971066e-02 9.266464e-02 9.730730e-02 1.009477e-01 1.043918e-01 1.080891e-01 1.101763e-01 1.133243e-01 1.142042e-01 1.164169e-01 1.164310e-01 1.176258e-01 1.171227e-01 1.174466e-01 1.166313e-01 1.162965e-01 1.151660e-01 1.143050e-01 1.126866e-01 1.112999e-01 1.089728e-01 1.069798e-01 1.038091e-01 1.011552e-01 9.714726e-02 9.388944e-02 8.916367e-02 8.547695e-02 8.022928e-02 7.635676e-02 7.083244e-02 6.702584e-02 6.149497e-02 5.798774e-02 5.273077e-02 4.975380e-02 4.506546e-02 4.288604e-02 
4.335466e-02 4.237538e-02 4.027072e-02 4.046270e-02 3.954696e-02 4.088173e-02 4.110688e-02 4.327595e-02 4.446799e-02 4.697467e-02 4.894838e-02 5.126345e-02 5.388565e-02 5.558391e-02 5.876940e-02 5.964436e-02 6.332948e-02 6.346861e-02 6.758996e-02 6.735879e-02 7.183026e-02 7.173602e-02 7.642386e-02 7.691867e-02 8.160493e-02 8.292698e-02 8.730260e-02 8.941911e-02 9.315440e-02 9.580557e-02 9.867463e-02 1.014783e-01 1.034475e-01 1.060174e-01 1.072224e-01 1.092657e-01 1.099001e-01 1.112675e-01 1.114726e-01 1.121434e-01 1.119493e-01 1.119616e-01 1.112845e-01 1.106641e-01 1.093534e-01 1.080897e-01 1.060110e-01 1.040885e-01 1.011995e-01 9.865037e-02 9.501706e-02 9.194779e-02 8.771059e-02 8.429320e-02 7.963705e-02 7.607969e-02 7.122036e-02 6.773764e-02 6.291269e-02 5.971370e-02 5.517547e-02 5.247407e-02 4.848699e-02 4.652046e-02 
4.430689e-02 4.349212e-02 4.139104e-02 4.150147e-02 4.048500e-02 4.144719e-02 4.151430e-02 4.307345e-02 4.412816e-02 4.591615e-02 4.783333e-02 4.947780e-02 5.214283e-02 5.336623e-02 5.667342e-02 5.736880e-02 6.120855e-02 6.147866e-02 6.573586e-02 6.586965e-02 7.042413e-02 7.079858e-02 7.551209e-02 7.645628e-02 8.114157e-02 8.281852e-02 8.722106e-02 8.957050e-02 9.340072e-02 9.615847e-02 9.917280e-02 1.019572e-01 1.040404e-01 1.064731e-01 1.076645e-01 1.094787e-01 1.099238e-01 1.110118e-01 1.108752e-01 1.112607e-01 1.106471e-01 1.104110e-01 1.093287e-01 1.085375e-01 1.069150e-01 1.055914e-01 1.033359e-01 1.014775e-01 9.854031e-02 9.616597e-02 9.257738e-02 8.976519e-02 8.563172e-02 8.252543e-02 7.801208e-02 7.479983e-02 7.011080e-02 6.699562e-02 6.235690e-02 5.953784e-02 5.518530e-02 5.285451e-02 4.902781e-02 4.737253e-02 
4.769275e-02 4.693846e-02 4.515262e-02 4.521964e-02 4.434959e-02 4.517894e-02 4.521357e-02 4.660646e-02 4.746619e-02 4.912645e-02 5.070694e-02 5.231955e-02 5.452245e-02 5.583595e-02 5.857495e-02 5.946926e-02 6.266241e-02 6.318495e-02 6.674485e-02 6.709466e-02 7.091765e-02 7.137207e-02 7.532676e-02 7.613837e-02 8.005504e-02 8.136305e-02 8.503866e-02 8.682782e-02 9.006067e-02 9.217506e-02 9.481793e-02 9.701574e-02 9.901312e-02 1.010372e-01 1.024178e-01 1.040567e-01 1.048875e-01 1.060086e-01 1.063423e-01 1.068891e-01 1.067311e-01 1.066934e-01 1.059985e-01 1.053804e-01 1.040767e-01 1.028841e-01 1.009152e-01 9.916782e-02 9.653153e-02 9.428432e-02 9.104596e-02 8.840154e-02 8.468354e-02 8.178764e-02 7.775265e-02 7.477814e-02 7.061501e-02 6.774386e-02 6.365652e-02 6.106829e-02 5.726674e-02 5.513500e-02 5.182677e-02 5.031568e-02 
4.844972e-02 4.774989e-02 4.593689e-02 4.590070e-02 4.494624e-02 4.550383e-02 4.542400e-02 4.641316e-02 4.716933e-02 4.837039e-02 4.989277e-02 5.108523e-02 5.329005e-02 5.431024e-02 5.710396e-02 5.788889e-02 6.116737e-02 6.177316e-02 6.542307e-02 6.600709e-02 6.990695e-02 7.067293e-02 7.468822e-02 7.581210e-02 7.978501e-02 8.134875e-02 8.509492e-02 8.705205e-02 9.037842e-02 9.256249e-02 9.530518e-02 9.747720e-02 9.953953e-02 1.014556e-01 1.028217e-01 1.042934e-01 1.050084e-01 1.059330e-01 1.060619e-01 1.064142e-01 1.060024e-01 1.058018e-01 1.048553e-01 1.041322e-01 1.026250e-01 1.014046e-01 9.930696e-02 9.761612e-02 9.492859e-02 9.281552e-02 8.958910e-02 8.714005e-02 8.347875e-02 8.082043e-02 7.687177e-02 7.415983e-02 7.010095e-02 6.750248e-02 6.352598e-02 6.120427e-02 5.750626e-02 5.561104e-02 5.238118e-02 5.103961e-02 
5.104609e-02 5.040574e-02 4.879784e-02 4.876662e-02 4.789208e-02 4.841262e-02 4.827713e-02 4.921659e-02 4.978554e-02 5.096036e-02 5.217623e-02 5.339466e-02 5.519029e-02 5.629928e-02 5.860232e-02 5.952577e-02 6.225730e-02 6.301428e-02 6.608570e-02 6.677951e-02 7.008902e-02 7.086698e-02 7.429612e-02 7.529379e-02 7.870577e-02 7.999682e-02 8.324232e-02 8.481161e-02 8.774629e-02 8.949310e-02 9.200158e-02 9.376819e-02 9.578108e-02 9.739343e-02 9.888594e-02 1.001912e-01 1.011643e-01 1.020531e-01 1.025098e-01 1.029193e-01 1.028478e-01 1.027507e-01 1.021220e-01 1.015124e-01 1.002934e-01 9.918145e-02 9.735661e-02 9.577352e-02 9.336552e-02 9.137262e-02 8.845181e-02 8.614537e-02 8.282605e-02 8.033353e-02 7.676318e-02 7.423228e-02 7.057909e-02 6.816436e-02 6.460528e-02 6.245650e-02 5.916661e-02 5.741988e-02 5.456238e-02 5.333092e-02 
5.160125e-02 5.094585e-02 4.929127e-02 4.914604e-02 4.819690e-02 4.850747e-02 4.828585e-02 4.894680e-02 4.944021e-02 5.031591e-02 5.148574e-02 5.244154e-02 5.422945e-02 5.516393e-02 5.749475e-02 5.836405e-02 6.114772e-02 6.197453e-02 6.510909e-02 6.597123e-02 6.934543e-02 7.034521e-02 7.383815e-02 7.506161e-02 7.854036e-02 8.002031e-02 8.334085e-02 8.503659e-02 8.805391e-02 8.985476e-02 9.244150e-02 9.419239e-02 9.625761e-02 9.779659e-02 9.929377e-02 1.004866e-01 1.014061e-01 1.021655e-01 1.025164e-01 1.028016e-01 1.025924e-01 1.023964e-01 1.016254e-01 1.009590e-01 9.961832e-02 9.850274e-02 9.659281e-02 9.506254e-02 9.261025e-02 9.072171e-02 8.779213e-02 8.563052e-02 8.232865e-02 8.000744e-02 7.647145e-02 7.412397e-02 7.051372e-02 6.828031e-02 6.476457e-02 6.277959e-02 5.952422e-02 5.790497e-02 5.506281e-02 5.389948e-02 
5.350535e-02 5.291310e-02 5.138244e-02 5.127428e-02 5.035401e-02 5.068466e-02 5.038809e-02 5.106803e-02 5.138310e-02 5.229437e-02 5.319078e-02 5.421113e-02 5.564526e-02 5.667458e-02 5.859129e-02 5.957297e-02 6.190559e-02 6.283642e-02 6.550631e-02 6.643032e-02 6.934653e-02 7.033335e-02 7.339236e-02 7.450682e-02 7.759344e-02 7.886717e-02 8.185898e-02 8.327342e-02 8.605040e-02 8.753621e-02 8.999311e-02 9.144469e-02 9.350057e-02 9.479895e-02 9.639889e-02 9.743426e-02 9.854276e-02 9.922946e-02 9.982032e-02 1.001016e-01 1.001502e-01 9.999509e-02 9.947764e-02 9.887644e-02 9.777715e-02 9.673947e-02 9.506301e-02 9.362088e-02 9.140430e-02 8.961659e-02 8.693520e-02 8.488930e-02 8.185442e-02 7.966241e-02 7.641282e-02 7.420274e-02 7.089286e-02 6.879732e-02 6.558493e-02 6.372983e-02 6.076489e-02 5.925936e-02 5.667464e-02 5.560185e-02 
5.386627e-02 5.320706e-02 5.161268e-02 5.137911e-02 5.038798e-02 5.054375e-02 5.017937e-02 5.065659e-02 5.091856e-02 5.163077e-02 5.249770e-02 5.335753e-02 5.478886e-02 5.572594e-02 5.766330e-02 5.863779e-02 6.100719e-02 6.201484e-02 6.472986e-02 6.579616e-02 6.876089e-02 6.992498e-02 7.303513e-02 7.432813e-02 7.747091e-02 7.889560e-02 8.195113e-02 8.347013e-02 8.631729e-02 8.785387e-02 9.038045e-02 9.183177e-02 9.394519e-02 9.520257e-02 9.683602e-02 9.780454e-02 9.891561e-02 9.952629e-02 1.000897e-01 1.003018e-01 1.003010e-01 1.000973e-01 9.952064e-02 9.890131e-02 9.774473e-02 9.672456e-02 9.500066e-02 9.361141e-02 9.135991e-02 8.965496e-02 8.694951e-02 8.500696e-02 8.195514e-02 7.987590e-02 7.661252e-02 7.451312e-02 7.118902e-02 6.919086e-02 6.596035e-02 6.417815e-02 6.118746e-02 5.971880e-02 5.709699e-02 5.601360e-02 
5.516360e-02 5.456840e-02 5.303506e-02 5.285820e-02 5.185498e-02 5.206692e-02 5.161020e-02 5.215171e-02 5.224079e-02 5.303301e-02 5.365322e-02 5.461164e-02 5.573593e-02 5.678538e-02 5.837454e-02 5.946181e-02 6.146443e-02 6.256489e-02 6.491731e-02 6.603321e-02 6.865934e-02 6.980956e-02 7.262070e-02 7.382512e-02 7.672050e-02 7.798407e-02 8.085388e-02 8.215584e-02 8.488749e-02 8.617911e-02 8.866579e-02 8.987683e-02 9.202537e-02 9.307610e-02 9.481112e-02 9.562526e-02 9.688854e-02 9.740280e-02 9.814954e-02 9.831795e-02 9.851326e-02 9.830748e-02 9.792640e-02 9.733493e-02 9.636722e-02 9.539622e-02 9.385468e-02 9.253096e-02 9.045960e-02 8.883395e-02 8.631200e-02 8.446022e-02 8.159964e-02 7.961934e-02 7.655630e-02 7.455954e-02 7.144215e-02 6.954536e-02 6.652066e-02 6.483396e-02 6.203659e-02 6.065404e-02 5.819802e-02 5.718947e-02 
5.533429e-02 5.462606e-02 5.301060e-02 5.269187e-02 5.161649e-02 5.166959e-02 5.115729e-02 5.154094e-02 5.159618e-02 5.225340e-02 5.286313e-02 5.373103e-02 5.486525e-02 5.588498e-02 5.749788e-02 5.862275e-02 6.065511e-02 6.185489e-02 6.423699e-02 6.549715e-02 6.815083e-02 6.946637e-02 7.230518e-02 7.367077e-02 7.659916e-02 7.799871e-02 8.091224e-02 8.231175e-02 8.510036e-02 8.644683e-02 8.900160e-02 9.022853e-02 9.244983e-02 9.348708e-02 9.529109e-02 9.607516e-02 9.739620e-02 9.787727e-02 9.866616e-02 9.881032e-02 9.903128e-02 9.881914e-02 9.844859e-02 9.787344e-02 9.690313e-02 9.597126e-02 9.441522e-02 9.314908e-02 9.105147e-02 8.949406e-02 8.693380e-02 8.515136e-02 8.224054e-02 8.032103e-02 7.719686e-02 7.524379e-02 7.205618e-02 7.017904e-02 6.707703e-02 6.538058e-02 6.250069e-02 6.107506e-02 5.853332e-02 5.744626e-02 
5.609636e-02 5.544643e-02 5.384115e-02 5.358841e-02 5.246614e-02 5.259917e-02 5.197698e-02 5.245960e-02 5.234166e-02 5.311869e-02 5.349830e-02 5.450328e-02 5.536376e-02 5.652779e-02 5.784292e-02 5.910334e-02 6.083735e-02 6.214457e-02 6.425137e-02 6.557186e-02 6.799308e-02 6.930753e-02 7.196982e-02 7.326681e-02 7.608014e-02 7.734774e-02 8.020663e-02 8.142493e-02 8.421380e-02 8.535115e-02 8.795306e-02 8.896718e-02 9.127349e-02 9.211636e-02 9.403393e-02 9.465812e-02 9.611214e-02 9.647603e-02 9.740858e-02 9.747922e-02 9.784665e-02 9.760065e-02 9.737303e-02 9.679741e-02 9.596238e-02 9.505678e-02 9.362704e-02 9.240779e-02 9.042899e-02 8.893341e-02 8.648806e-02 8.477681e-02 8.198129e-02 8.013690e-02 7.713144e-02 7.525265e-02 7.218711e-02 7.037999e-02 6.739923e-02 6.576698e-02 6.299914e-02 6.163248e-02 5.918192e-02 5.815127e-02 
5.607061e-02 5.526085e-02 5.355144e-02 5.313349e-02 5.193356e-02 5.190958e-02 5.124104e-02 5.159075e-02 5.145841e-02 5.214302e-02 5.253525e-02 5.350225e-02 5.439230e-02 5.558080e-02 5.692968e-02 5.827630e-02 6.003668e-02 6.148134e-02 6.360042e-02 6.509103e-02 6.751074e-02 6.900521e-02 7.165937e-02 7.312431e-02 7.593452e-02 7.734115e-02 8.021424e-02 8.153360e-02 8.436301e-02 8.556271e-02 8.823440e-02 8.927833e-02 9.167983e-02 9.253068e-02 9.456003e-02 9.518295e-02 9.675433e-02 9.711989e-02 9.816481e-02 9.824979e-02 9.871554e-02 9.850221e-02 9.835139e-02 9.782712e-02 9.704109e-02 9.620041e-02 9.478693e-02 9.363655e-02 9.163842e-02 9.020376e-02 8.770371e-02 8.603391e-02 8.315194e-02 8.132058e-02 7.820338e-02 7.630392e-02 7.310920e-02 7.124613e-02 6.812671e-02 6.640474e-02 6.349618e-02 6.200987e-02 5.942357e-02 5.824915e-02 
5.635847e-02 5.559105e-02 5.384925e-02 5.349608e-02 5.221805e-02 5.228936e-02 5.149160e-02 5.197137e-02 5.165843e-02 5.250611e-02 5.267264e-02 5.382648e-02 5.445971e-02 5.584234e-02 5.692476e-02 5.845132e-02 5.996224e-02 6.155009e-02 6.346399e-02 6.504190e-02 6.732268e-02 6.883659e-02 7.142963e-02 7.284329e-02 7.566883e-02 7.695978e-02 7.991139e-02 8.106463e-02 8.401474e-02 8.501684e-02 8.782887e-02 8.866446e-02 9.120770e-02 9.185889e-02 9.402097e-02 9.446859e-02 9.616085e-02 9.638601e-02 9.754147e-02 9.752622e-02 9.809412e-02 9.782143e-02 9.776417e-02 9.721860e-02 9.651514e-02 9.568579e-02 9.434126e-02 9.322750e-02 9.128430e-02 8.990277e-02 8.744683e-02 8.583728e-02 8.299450e-02 8.122188e-02 7.814489e-02 7.629633e-02 7.314598e-02 7.132316e-02 6.825075e-02 6.655959e-02 6.369433e-02 6.223431e-02 5.967761e-02 5.853278e-02 
5.611712e-02 5.513818e-02 5.326456e-02 5.271506e-02 5.134977e-02 5.125477e-02 5.041933e-02 5.077783e-02 5.047412e-02 5.125934e-02 5.146997e-02 5.263029e-02 5.332264e-02 5.478408e-02 5.591788e-02 5.758955e-02 5.912510e-02 6.090825e-02 6.281057e-02 6.461006e-02 6.684615e-02 6.858123e-02 7.111127e-02 7.272203e-02 7.548869e-02 7.693673e-02 7.985752e-02 8.112199e-02 8.408830e-02 8.515960e-02 8.804368e-02 8.891741e-02 9.158559e-02 9.225830e-02 9.458554e-02 9.505273e-02 9.693266e-02 9.718808e-02 9.853508e-02 9.856972e-02 9.931556e-02 9.911568e-02 9.920671e-02 9.875299e-02 9.815367e-02 9.742382e-02 9.612756e-02 9.510394e-02 9.314656e-02 9.182714e-02 8.929516e-02 8.770415e-02 8.473148e-02 8.292497e-02 7.967755e-02 7.774154e-02 7.439546e-02 7.243712e-02 6.915817e-02 6.729330e-02 6.422342e-02 6.256372e-02 5.981570e-02 5.845842e-02 
5.598821e-02 5.502014e-02 5.307773e-02 5.257845e-02 5.110588e-02 5.111357e-02 5.012686e-02 5.064678e-02 5.014700e-02 5.114838e-02 5.112397e-02 5.253929e-02 5.297225e-02 5.470125e-02 5.557608e-02 5.749608e-02 5.880616e-02 6.078809e-02 6.253398e-02 6.446016e-02 6.663774e-02 6.841634e-02 7.099875e-02 7.257048e-02 7.549203e-02 7.682861e-02 7.997794e-02 8.107471e-02 8.430126e-02 8.516779e-02 8.830092e-02 8.895265e-02 9.182769e-02 9.228015e-02 9.476053e-02 9.502603e-02 9.701185e-02 9.709766e-02 9.851898e-02 9.842545e-02 9.922836e-02 9.894661e-02 9.908365e-02 9.859447e-02 9.802776e-02 9.730424e-02 9.602117e-02 9.503638e-02 9.306957e-02 9.180830e-02 8.924787e-02 8.771898e-02 8.470843e-02 8.295365e-02 7.966988e-02 7.776542e-02 7.439175e-02 7.244185e-02 6.914478e-02 6.726962e-02 6.418532e-02 6.250709e-02 5.973818e-02 5.836874e-02 
5.549800e-02 5.425903e-02 5.214831e-02 5.141344e-02 4.983855e-02 4.966150e-02 4.864684e-02 4.904767e-02 4.858989e-02 4.955121e-02 4.961785e-02 5.108193e-02 5.162034e-02 5.348941e-02 5.444480e-02 5.658703e-02 5.792086e-02 6.018415e-02 6.188239e-02 6.411516e-02 6.618077e-02 6.825409e-02 7.068700e-02 7.251029e-02 7.528446e-02 7.681062e-02 7.985733e-02 8.107835e-02 8.428149e-02 8.521787e-02 8.842376e-02 8.911103e-02 9.215070e-02 9.262676e-02 9.534229e-02 9.563882e-02 9.790103e-02 9.804000e-02 9.974966e-02 9.974079e-02 1.008173e-01 1.006538e-01 1.010248e-01 1.006793e-01 1.002829e-01 9.970894e-02 9.851199e-02 9.765440e-02 9.567744e-02 9.449091e-02 9.182512e-02 9.029572e-02 8.709933e-02 8.525965e-02 8.173304e-02 7.966445e-02 7.601613e-02 7.383868e-02 7.025694e-02 6.811197e-02 6.475022e-02 6.278200e-02 5.975733e-02 5.809828e-02 
5.501706e-02 5.373381e-02 5.152300e-02 5.080400e-02 4.909369e-02 4.901568e-02 4.782451e-02 4.842014e-02 4.774268e-02 4.898973e-02 4.879716e-02 5.061229e-02 5.086573e-02 5.310837e-02 5.378150e-02 5.627001e-02 5.736792e-02 5.990613e-02 6.146644e-02 6.387435e-02 6.594483e-02 6.808427e-02 7.068557e-02 7.247306e-02 7.556432e-02 7.697009e-02 8.043190e-02 8.146900e-02 8.511070e-02 8.582025e-02 8.941215e-02 8.984902e-02 9.317031e-02 9.339146e-02 9.627264e-02 9.632889e-02 9.866521e-02 9.859634e-02 1.003289e-01 1.001592e-01 1.012409e-01 1.009736e-01 1.013454e-01 1.009567e-01 1.005502e-01 9.999017e-02 9.875687e-02 9.795824e-02 9.590915e-02 9.480642e-02 9.203741e-02 9.059090e-02 8.727715e-02 8.549465e-02 8.185609e-02 7.980274e-02 7.606071e-02 7.385318e-02 7.019806e-02 6.798688e-02 6.456473e-02 6.251265e-02 5.942782e-02 5.769129e-02 
5.423123e-02 5.260835e-02 5.017844e-02 4.917686e-02 4.733916e-02 4.705050e-02 4.584208e-02 4.631337e-02 4.572631e-02 4.694988e-02 4.692244e-02 4.882861e-02 4.926296e-02 5.171873e-02 5.252112e-02 5.533682e-02 5.645861e-02 5.940684e-02 6.086271e-02 6.371198e-02 6.556335e-02 6.811783e-02 7.043098e-02 7.255916e-02 7.536000e-02 7.700477e-02 8.024654e-02 8.141943e-02 8.497146e-02 8.573640e-02 8.939849e-02 8.984801e-02 9.339007e-02 9.361888e-02 9.683190e-02 9.691797e-02 9.964790e-02 9.964833e-02 1.017928e-01 1.017429e-01 1.032194e-01 1.031249e-01 1.038410e-01 1.036668e-01 1.035179e-01 1.031836e-01 1.020872e-01 1.014788e-01 9.942400e-02 9.842588e-02 9.550988e-02 9.404639e-02 9.047089e-02 8.854043e-02 8.456598e-02 8.225013e-02 7.813777e-02 7.558590e-02 7.155576e-02 6.895604e-02 6.517361e-02 6.272341e-02 5.930749e-02 5.719132e-02 
5.348777e-02 5.173023e-02 4.917300e-02 4.812172e-02 4.612024e-02 4.590776e-02 4.449444e-02 4.519512e-02 4.435845e-02 4.596186e-02 4.563799e-02 4.803295e-02 4.813154e-02 5.111299e-02 5.156976e-02 5.486704e-02 5.569197e-02 5.901180e-02 6.030025e-02 6.337591e-02 6.526742e-02 6.790016e-02 7.050278e-02 7.258172e-02 7.590279e-02 7.740179e-02 8.131183e-02 8.227163e-02 8.651119e-02 8.701700e-02 9.125069e-02 9.141072e-02 9.531888e-02 9.524520e-02 9.861068e-02 9.840393e-02 1.011349e-01 1.008769e-01 1.029586e-01 1.027072e-01 1.041239e-01 1.039020e-01 1.045816e-01 1.043634e-01 1.041803e-01 1.038839e-01 1.027176e-01 1.022142e-01 1.000298e-01 9.917272e-02 9.607500e-02 9.474396e-02 9.096657e-02 8.911581e-02 8.495430e-02 8.263823e-02 7.837403e-02 7.573941e-02 7.159398e-02 6.884738e-02 6.497358e-02 6.234310e-02 5.884093e-02 5.654749e-02 
5.235053e-02 5.017554e-02 4.732407e-02 4.593753e-02 4.376245e-02 4.330811e-02 4.188536e-02 4.244944e-02 4.177678e-02 4.336445e-02 4.332765e-02 4.585079e-02 4.625748e-02 4.953605e-02 5.020485e-02 5.397279e-02 5.482342e-02 5.874768e-02 5.984091e-02 6.357163e-02 6.507282e-02 6.831502e-02 7.040700e-02 7.297014e-02 7.576828e-02 7.758061e-02 8.107645e-02 8.217650e-02 8.621488e-02 8.673062e-02 9.102817e-02 9.114041e-02 9.535584e-02 9.524496e-02 9.908312e-02 9.888700e-02 1.021702e-01 1.019876e-01 1.046404e-01 1.045424e-01 1.065101e-01 1.065280e-01 1.077002e-01 1.077966e-01 1.079959e-01 1.080447e-01 1.070917e-01 1.068867e-01 1.047047e-01 1.040105e-01 1.007046e-01 9.934018e-02 9.519332e-02 9.310513e-02 8.848490e-02 8.576643e-02 8.101647e-02 7.787694e-02 7.325579e-02 6.996503e-02 6.564127e-02 6.247832e-02 5.855949e-02 5.578025e-02 
5.148753e-02 4.903905e-02 4.603420e-02 4.448356e-02 4.211197e-02 4.167490e-02 4.001500e-02 4.083864e-02 3.988669e-02 4.198342e-02 4.161068e-02 4.482206e-02 4.482294e-02 4.884284e-02 4.905482e-02 5.348322e-02 5.390105e-02 5.830743e-02 5.912246e-02 6.311802e-02 6.464131e-02 6.794529e-02 7.045027e-02 7.291922e-02 7.650756e-02 7.812578e-02 8.265941e-02 8.350786e-02 8.861008e-02 8.883392e-02 9.397438e-02 9.375542e-02 9.842791e-02 9.795563e-02 1.018698e-01 1.013111e-01 1.044339e-01 1.039248e-01 1.063631e-01 1.060101e-01 1.078342e-01 1.076967e-01 1.088212e-01 1.088796e-01 1.090669e-01 1.091989e-01 1.081797e-01 1.081633e-01 1.058066e-01 1.053603e-01 1.017863e-01 1.006493e-01 9.620614e-02 9.424315e-02 8.936180e-02 8.662200e-02 8.167548e-02 7.837280e-02 7.361472e-02 7.005745e-02 6.563198e-02 6.214957e-02 5.813473e-02 5.503336e-02 
4.994842e-02 4.700018e-02 4.358336e-02 4.164475e-02 3.900669e-02 3.829543e-02 3.661810e-02 3.728500e-02 3.661362e-02 3.868052e-02 3.880680e-02 4.215328e-02 4.268486e-02 4.707688e-02 4.764394e-02 5.273158e-02 5.317934e-02 5.848709e-02 5.896148e-02 6.395495e-02 6.481786e-02 6.904770e-02 7.068983e-02 7.387838e-02 7.656751e-02 7.861832e-02 8.241379e-02 8.339426e-02 8.810521e-02 8.823282e-02 9.342895e-02 9.303022e-02 9.815754e-02 9.755745e-02 1.021611e-01 1.015699e-01 1.054597e-01 1.050156e-01 1.082223e-01 1.080480e-01 1.106200e-01 1.108012e-01 1.126232e-01 1.131409e-01 1.139006e-01 1.145725e-01 1.138940e-01 1.143664e-01 1.120316e-01 1.118570e-01 1.079799e-01 1.067867e-01 1.018131e-01 9.946839e-02 9.396309e-02 9.060405e-02 8.503750e-02 8.099538e-02 7.566024e-02 7.134687e-02 6.638600e-02 6.220208e-02 5.768066e-02 5.397111e-02 
4.920723e-02 4.579359e-02 4.218985e-02 3.990284e-02 3.701699e-02 3.619554e-02 3.423747e-02 3.517303e-02 3.420971e-02 3.696395e-02 3.674947e-02 4.107086e-02 4.114212e-02 4.656758e-02 4.652872e-02 5.248884e-02 5.226328e-02 5.814784e-02 5.809186e-02 6.333845e-02 6.409908e-02 6.830942e-02 7.047528e-02 7.346495e-02 7.731665e-02 7.908966e-02 8.449302e-02 8.518307e-02 9.156886e-02 9.139512e-02 9.786575e-02 9.711029e-02 1.027805e-01 1.017502e-01 1.062090e-01 1.051608e-01 1.085463e-01 1.076813e-01 1.103980e-01 1.098960e-01 1.122210e-01 1.122119e-01 1.140465e-01 1.145392e-01 1.154183e-01 1.162440e-01 1.155863e-01 1.163837e-01 1.138530e-01 1.141145e-01 1.098639e-01 1.090671e-01 1.036836e-01 1.015375e-01 9.570071e-02 9.227495e-02 8.648999e-02 8.215030e-02 7.668553e-02 7.192801e-02 6.688024e-02 6.218807e-02 5.757772e-02 5.335645e-02 
4.725689e-02 4.327241e-02 3.906622e-02 3.635317e-02 3.300345e-02 3.188334e-02 2.984776e-02 3.059756e-02 3.012147e-02 3.277128e-02 3.345981e-02 3.780662e-02 3.881784e-02 4.460006e-02 4.516726e-02 5.200658e-02 5.181399e-02 5.906200e-02 5.843131e-02 6.523446e-02 6.492102e-02 7.057389e-02 7.133694e-02 7.544070e-02 7.779311e-02 8.021211e-02 8.433010e-02 8.513503e-02 9.079324e-02 9.029891e-02 9.682015e-02 9.560768e-02 1.020119e-01 1.006963e-01 1.061988e-01 1.050518e-01 1.094855e-01 1.086461e-01 1.123478e-01 1.120194e-01 1.153225e-01 1.157151e-01 1.185355e-01 1.196985e-01 1.214606e-01 1.231539e-01 1.230701e-01 1.247058e-01 1.222479e-01 1.229843e-01 1.182714e-01 1.173696e-01 1.111994e-01 1.084120e-01 1.017266e-01 9.732281e-02 9.077531e-02 8.534045e-02 7.921996e-02 7.341425e-02 6.777245e-02 6.217090e-02 5.697373e-02 5.201484e-02 
4.703641e-02 4.237904e-02 3.792631e-02 3.460978e-02 3.090131e-02 2.941689e-02 2.700349e-02 2.796612e-02 2.723981e-02 3.082299e-02 3.130807e-02 3.701981e-02 3.764763e-02 4.480638e-02 4.465974e-02 5.254519e-02 5.132345e-02 5.913315e-02 5.747220e-02 6.438208e-02 6.362887e-02 6.904903e-02 7.038970e-02 7.407812e-02 7.811010e-02 8.010616e-02 8.674202e-02 8.723666e-02 9.562596e-02 9.490350e-02 1.034565e-01 1.019244e-01 1.089190e-01 1.070899e-01 1.119016e-01 1.101587e-01 1.133713e-01 1.119724e-01 1.146832e-01 1.139258e-01 1.168742e-01 1.170344e-01 1.201075e-01 1.212682e-01 1.235295e-01 1.254722e-01 1.256767e-01 1.278384e-01 1.252054e-01 1.267061e-01 1.214633e-01 1.212544e-01 1.145226e-01 1.120304e-01 1.049522e-01 1.003617e-01 9.360734e-02 8.763527e-02 8.142227e-02 7.491498e-02 6.921670e-02 6.288170e-02 5.760594e-02 5.193834e-02 
4.478062e-02 3.953766e-02 3.418564e-02 3.046392e-02 2.586258e-02 2.408357e-02 2.136846e-02 2.211302e-02 2.235629e-02 2.557682e-02 2.785157e-02 3.307302e-02 3.543186e-02 4.257566e-02 4.347836e-02 5.241836e-02 5.120265e-02 6.113156e-02 5.850698e-02 6.790315e-02 6.547192e-02 7.316352e-02 7.232198e-02 7.778763e-02 7.939178e-02 8.246488e-02 8.687487e-02 8.751575e-02 9.453685e-02 9.304090e-02 1.016417e-01 9.904417e-02 1.073564e-01 1.050141e-01 1.114889e-01 1.095911e-01 1.141799e-01 1.127074e-01 1.165544e-01 1.158779e-01 1.200239e-01 1.206484e-01 1.251238e-01 1.272649e-01 1.309543e-01 1.343319e-01 1.355731e-01 1.392466e-01 1.368249e-01 1.391883e-01 1.331849e-01 1.327309e-01 1.247744e-01 1.211310e-01 1.129022e-01 1.067136e-01 9.907903e-02 9.146655e-02 8.458359e-02 7.663595e-02 7.034240e-02 6.286386e-02 5.695032e-02 5.044083e-02 
4.567311e-02 3.968588e-02 3.398310e-02 2.945746e-02 2.425030e-02 2.166549e-02 1.820966e-02 1.892404e-02 1.909055e-02 2.358750e-02 2.619740e-02 3.322629e-02 3.568149e-02 4.447727e-02 4.486861e-02 5.477221e-02 5.215030e-02 6.226519e-02 5.766106e-02 6.670686e-02 6.307562e-02 7.008016e-02 6.971337e-02 7.434668e-02 7.831886e-02 8.070005e-02 8.908540e-02 8.944261e-02 1.011167e-01 9.969727e-02 1.118199e-01 1.091293e-01 1.179438e-01 1.149502e-01 1.194500e-01 1.167248e-01 1.186146e-01 1.163651e-01 1.183170e-01 1.170663e-01 1.208052e-01 1.211675e-01 1.265585e-01 1.287522e-01 1.338785e-01 1.376082e-01 1.397993e-01 1.442312e-01 1.417230e-01 1.454391e-01 1.386100e-01 1.393784e-01 1.306334e-01 1.273571e-01 1.186895e-01 1.119908e-01 1.041877e-01 9.559907e-02 8.865360e-02 7.965282e-02 7.329370e-02 6.487871e-02 5.884623e-02 5.153789e-02 