# vtk DataFile Version 2.0
Comment goes here
ASCII

DATASET STRUCTURED_POINTS
DIMENSIONS    64   64   1

ORIGIN    0.000   0.000   0.000
SPACING   0.0156250.015625   1.000

POINT_DATA   4096
SCALARS uMag double
LOOKUP_TABLE default

4.953200e-02 4.082200e-02 3.273229e-02 2.808231e-02 2.659121e-02 3.028879e-02 3.668191e-02 4.507212e-02 5.423680e-02 6.350814e-02 7.247759e-02 8.114276e-02 8.782607e-02 9.515120e-02 9.824568e-02 1.038450e-01 1.037220e-01 1.070626e-01 1.048934e-01 1.070956e-01 1.047137e-01 1.083637e-01 1.086697e-01 1.171448e-01 1.222503e-01 1.364114e-01 1.451987e-01 1.618679e-01 1.713434e-01 1.854862e-01 1.936892e-01 2.015916e-01 2.084430e-01 2.094730e-01 2.153946e-01 2.115334e-01 2.165539e-01 2.108709e-01 2.153846e-01 2.107869e-01 2.156323e-01 2.137301e-01 2.188704e-01 2.191145e-01 2.228582e-01 2.230747e-01 2.232592e-01 2.214441e-01 2.171691e-01 2.126694e-01 2.044067e-01 1.974877e-01 1.862067e-01 1.773455e-01 1.642455e-01 1.540859e-01 1.403750e-01 1.295691e-01 1.161296e-01 1.051868e-01 9.250303e-02 8.179821e-02 7.009505e-02 5.999906e-02 
5.104701e-02 4.404442e-02 3.733116e-02 3.409052e-02 3.256313e-02 3.526486e-02 3.948067e-02 4.610245e-02 5.298010e-02 6.077037e-02 6.785800e-02 7.548847e-02 8.119376e-02 8.803066e-02 9.151809e-02 9.717276e-02 9.865110e-02 1.027870e-01 1.029195e-01 1.062335e-01 1.060512e-01 1.104436e-01 1.118606e-01 1.196232e-01 1.242406e-01 1.359801e-01 1.435350e-01 1.571773e-01 1.659323e-01 1.779123e-01 1.862297e-01 1.936501e-01 2.008129e-01 2.028605e-01 2.087135e-01 2.065754e-01 2.111939e-01 2.071184e-01 2.110067e-01 2.072176e-01 2.109954e-01 2.087258e-01 2.122687e-01 2.112230e-01 2.133021e-01 2.120641e-01 2.111453e-01 2.083533e-01 2.037505e-01 1.989268e-01 1.909967e-01 1.843246e-01 1.738934e-01 1.657546e-01 1.538177e-01 1.446958e-01 1.322230e-01 1.226072e-01 1.103342e-01 1.006412e-01 8.902739e-02 7.962648e-02 6.897390e-02 6.032037e-02 
5.770121e-02 5.209642e-02 4.670351e-02 4.441988e-02 4.312385e-02 4.520167e-02 4.813068e-02 5.352432e-02 5.886597e-02 6.572752e-02 7.151845e-02 7.855277e-02 8.333222e-02 8.978034e-02 9.274949e-02 9.822384e-02 9.943661e-02 1.038769e-01 1.039910e-01 1.080698e-01 1.081974e-01 1.132021e-01 1.147392e-01 1.220169e-01 1.259145e-01 1.357023e-01 1.417318e-01 1.525583e-01 1.595901e-01 1.690040e-01 1.759715e-01 1.819871e-01 1.884241e-01 1.904859e-01 1.962742e-01 1.951980e-01 2.002733e-01 1.975845e-01 2.020244e-01 1.992302e-01 2.031679e-01 2.011230e-01 2.043138e-01 2.028750e-01 2.044894e-01 2.027569e-01 2.018128e-01 1.988456e-01 1.948681e-01 1.902396e-01 1.834255e-01 1.771937e-01 1.681367e-01 1.605947e-01 1.500811e-01 1.416526e-01 1.305000e-01 1.216462e-01 1.105425e-01 1.016945e-01 9.115077e-02 8.272985e-02 7.317113e-02 6.570998e-02 
6.006952e-02 5.551621e-02 5.080049e-02 4.905164e-02 4.759076e-02 4.921842e-02 5.101961e-02 5.534718e-02 5.923204e-02 6.498463e-02 6.953403e-02 7.569726e-02 7.982179e-02 8.575988e-02 8.887217e-02 9.422975e-02 9.630632e-02 1.010026e-01 1.024083e-01 1.068741e-01 1.082807e-01 1.134240e-01 1.157735e-01 1.225182e-01 1.265505e-01 1.350444e-01 1.407647e-01 1.499800e-01 1.566909e-01 1.648624e-01 1.716870e-01 1.772760e-01 1.835957e-01 1.860251e-01 1.915253e-01 1.912516e-01 1.958408e-01 1.939449e-01 1.977254e-01 1.953413e-01 1.984188e-01 1.962212e-01 1.983892e-01 1.963442e-01 1.969888e-01 1.945279e-01 1.929444e-01 1.894508e-01 1.853014e-01 1.804959e-01 1.739547e-01 1.679020e-01 1.594780e-01 1.524283e-01 1.427879e-01 1.350880e-01 1.249183e-01 1.169474e-01 1.068442e-01 9.897896e-02 8.941997e-02 8.205957e-02 7.347601e-02 6.713422e-02 
6.658018e-02 6.277841e-02 5.876083e-02 5.736696e-02 5.600462e-02 5.733481e-02 5.854632e-02 6.215810e-02 6.511798e-02 7.011379e-02 7.373502e-02 7.926981e-02 8.263483e-02 8.811526e-02 9.069444e-02 9.580370e-02 9.754243e-02 1.022568e-01 1.034928e-01 1.081529e-01 1.095007e-01 1.146990e-01 1.168722e-01 1.231355e-01 1.266226e-01 1.339442e-01 1.387311e-01 1.463460e-01 1.519696e-01 1.586482e-01 1.645268e-01 1.692076e-01 1.749096e-01 1.771866e-01 1.824478e-01 1.826218e-01 1.872738e-01 1.860725e-01 1.900227e-01 1.882161e-01 1.913694e-01 1.894284e-01 1.915332e-01 1.894618e-01 1.900639e-01 1.875023e-01 1.861268e-01 1.826560e-01 1.790756e-01 1.744808e-01 1.688191e-01 1.631358e-01 1.557841e-01 1.492198e-01 1.407226e-01 1.335901e-01 1.245409e-01 1.172018e-01 1.081550e-01 1.009872e-01 9.242888e-02 8.583995e-02 7.823030e-02 7.271471e-02 
6.880293e-02 6.561633e-02 6.195256e-02 6.080279e-02 5.930811e-02 6.037476e-02 6.096392e-02 6.393255e-02 6.603926e-02 7.027655e-02 7.313381e-02 7.800280e-02 8.094113e-02 8.596209e-02 8.857717e-02 9.346588e-02 9.567124e-02 1.003640e-01 1.023381e-01 1.070373e-01 1.091584e-01 1.142610e-01 1.170110e-01 1.228649e-01 1.266113e-01 1.331853e-01 1.379622e-01 1.446887e-01 1.501751e-01 1.561383e-01 1.618423e-01 1.662080e-01 1.716789e-01 1.740592e-01 1.789804e-01 1.795162e-01 1.837086e-01 1.828983e-01 1.862838e-01 1.846967e-01 1.871985e-01 1.852080e-01 1.866290e-01 1.842834e-01 1.842860e-01 1.813774e-01 1.796218e-01 1.758961e-01 1.722337e-01 1.675743e-01 1.621310e-01 1.566013e-01 1.497230e-01 1.435189e-01 1.356796e-01 1.290779e-01 1.207929e-01 1.141110e-01 1.058701e-01 9.944539e-02 9.169062e-02 8.589062e-02 7.904236e-02 7.429677e-02 
7.441950e-02 7.164182e-02 6.838689e-02 6.738323e-02 6.594118e-02 6.681730e-02 6.708722e-02 6.960995e-02 7.115656e-02 7.485306e-02 7.707868e-02 8.143660e-02 8.379528e-02 8.840408e-02 9.055147e-02 9.516487e-02 9.702102e-02 1.015812e-01 1.033045e-01 1.079418e-01 1.098559e-01 1.148059e-01 1.172824e-01 1.227176e-01 1.260160e-01 1.318446e-01 1.359850e-01 1.417667e-01 1.465281e-01 1.516062e-01 1.566453e-01 1.604298e-01 1.654114e-01 1.676194e-01 1.722715e-01 1.729830e-01 1.770963e-01 1.766400e-01 1.800510e-01 1.788106e-01 1.813581e-01 1.795936e-01 1.810626e-01 1.788212e-01 1.789404e-01 1.760974e-01 1.746240e-01 1.710175e-01 1.678555e-01 1.634141e-01 1.586708e-01 1.534578e-01 1.474181e-01 1.416120e-01 1.346781e-01 1.285362e-01 1.211620e-01 1.149868e-01 1.076240e-01 1.017419e-01 9.481433e-02 8.957550e-02 8.348581e-02 7.927439e-02 
7.621206e-02 7.379883e-02 7.074654e-02 6.986284e-02 6.833448e-02 6.903891e-02 6.895418e-02 7.107234e-02 7.212582e-02 7.531404e-02 7.708396e-02 8.095635e-02 8.304704e-02 8.727555e-02 8.942246e-02 9.378914e-02 9.590336e-02 1.003257e-01 1.024813e-01 1.070149e-01 1.094070e-01 1.141892e-01 1.170617e-01 1.221859e-01 1.257188e-01 1.310891e-01 1.352951e-01 1.405644e-01 1.452637e-01 1.499212e-01 1.548104e-01 1.583791e-01 1.631333e-01 1.653492e-01 1.696927e-01 1.705645e-01 1.742934e-01 1.740333e-01 1.770008e-01 1.758857e-01 1.779567e-01 1.761915e-01 1.771964e-01 1.748444e-01 1.745803e-01 1.715884e-01 1.698847e-01 1.661760e-01 1.629818e-01 1.585455e-01 1.539744e-01 1.489006e-01 1.432131e-01 1.376809e-01 1.312360e-01 1.254858e-01 1.186867e-01 1.129939e-01 1.062434e-01 1.009014e-01 9.457833e-02 8.989442e-02 8.435179e-02 8.064664e-02 
8.078768e-02 7.860501e-02 7.580770e-02 7.498384e-02 7.348489e-02 7.405436e-02 7.377572e-02 7.560084e-02 7.629766e-02 7.911088e-02 8.044837e-02 8.393919e-02 8.559789e-02 8.949225e-02 9.125432e-02 9.536329e-02 9.715513e-02 1.013946e-01 1.032809e-01 1.076623e-01 1.098046e-01 1.143839e-01 1.169712e-01 1.217621e-01 1.249255e-01 1.298099e-01 1.335553e-01 1.382509e-01 1.424459e-01 1.465697e-01 1.509877e-01 1.541873e-01 1.585711e-01 1.606437e-01 1.647508e-01 1.656834e-01 1.693031e-01 1.692269e-01 1.721775e-01 1.712749e-01 1.733860e-01 1.717986e-01 1.728933e-01 1.706737e-01 1.705763e-01 1.677034e-01 1.662837e-01 1.627232e-01 1.599530e-01 1.557209e-01 1.517035e-01 1.468957e-01 1.418574e-01 1.366457e-01 1.309012e-01 1.255138e-01 1.194244e-01 1.141228e-01 1.080577e-01 1.031194e-01 9.743135e-02 9.313971e-02 8.815278e-02 8.478841e-02 
8.211090e-02 8.014158e-02 7.746499e-02 7.669610e-02 7.514410e-02 7.559270e-02 7.510914e-02 7.666916e-02 7.708151e-02 7.955287e-02 8.062392e-02 8.376908e-02 8.526674e-02 8.886492e-02 9.062100e-02 9.450516e-02 9.644590e-02 1.005210e-01 1.026667e-01 1.069064e-01 1.093472e-01 1.137594e-01 1.166099e-01 1.211728e-01 1.245111e-01 1.291075e-01 1.329197e-01 1.373127e-01 1.414739e-01 1.453496e-01 1.496503e-01 1.527118e-01 1.569082e-01 1.589654e-01 1.628249e-01 1.638319e-01 1.671558e-01 1.671851e-01 1.698086e-01 1.689858e-01 1.707617e-01 1.691970e-01 1.699812e-01 1.677318e-01 1.673901e-01 1.644689e-01 1.629117e-01 1.593288e-01 1.565537e-01 1.523612e-01 1.484765e-01 1.437898e-01 1.390077e-01 1.340025e-01 1.286104e-01 1.235063e-01 1.178311e-01 1.128716e-01 1.072457e-01 1.026822e-01 9.742035e-02 9.350055e-02 8.888529e-02 8.584205e-02 
8.568541e-02 8.384653e-02 8.132791e-02 8.057828e-02 7.903749e-02 7.938660e-02 7.877319e-02 8.013481e-02 8.030814e-02 8.252194e-02 8.329133e-02 8.616365e-02 8.734205e-02 9.068763e-02 9.213877e-02 9.581066e-02 9.747532e-02 1.013781e-01 1.032743e-01 1.073580e-01 1.095586e-01 1.137905e-01 1.163835e-01 1.207050e-01 1.237459e-01 1.280316e-01 1.315047e-01 1.355509e-01 1.393558e-01 1.429121e-01 1.468805e-01 1.497137e-01 1.536415e-01 1.555958e-01 1.592737e-01 1.602965e-01 1.635284e-01 1.636543e-01 1.662628e-01 1.655697e-01 1.673931e-01 1.659566e-01 1.668465e-01 1.647140e-01 1.645462e-01 1.617423e-01 1.604421e-01 1.569966e-01 1.545687e-01 1.505482e-01 1.470928e-01 1.426174e-01 1.383251e-01 1.335668e-01 1.286971e-01 1.238667e-01 1.187175e-01 1.140462e-01 1.089240e-01 1.046475e-01 9.984312e-02 9.618805e-02 9.195908e-02 8.912993e-02 
8.657075e-02 8.484541e-02 8.239330e-02 8.165697e-02 8.008034e-02 8.033657e-02 7.960263e-02 8.078374e-02 8.079390e-02 8.277649e-02 8.339462e-02 8.602643e-02 8.711491e-02 9.024298e-02 9.169462e-02 9.518723e-02 9.694415e-02 1.007025e-01 1.027584e-01 1.067145e-01 1.091016e-01 1.132000e-01 1.159622e-01 1.201284e-01 1.232864e-01 1.273969e-01 1.309170e-01 1.347902e-01 1.385704e-01 1.419888e-01 1.458689e-01 1.486259e-01 1.524131e-01 1.543597e-01 1.578564e-01 1.589241e-01 1.619468e-01 1.621401e-01 1.645257e-01 1.638924e-01 1.654961e-01 1.640940e-01 1.647888e-01 1.626655e-01 1.623516e-01 1.595477e-01 1.581727e-01 1.547412e-01 1.523239e-01 1.483520e-01 1.449952e-01 1.406156e-01 1.365012e-01 1.318895e-01 1.272595e-01 1.226216e-01 1.177510e-01 1.133061e-01 1.084756e-01 1.044405e-01 9.991341e-02 9.648914e-02 9.249406e-02 8.985358e-02 
8.922853e-02 8.757065e-02 8.520464e-02 8.446460e-02 8.288032e-02 8.306044e-02 8.223014e-02 8.327497e-02 8.311764e-02 8.492615e-02 8.533102e-02 8.777667e-02 8.863202e-02 9.158400e-02 9.280285e-02 9.614277e-02 9.767831e-02 1.013084e-01 1.031556e-01 1.069961e-01 1.091794e-01 1.131546e-01 1.157057e-01 1.197229e-01 1.226528e-01 1.265843e-01 1.298597e-01 1.335395e-01 1.370724e-01 1.403134e-01 1.439667e-01 1.465939e-01 1.501986e-01 1.520813e-01 1.554561e-01 1.565247e-01 1.594914e-01 1.597336e-01 1.621255e-01 1.615662e-01 1.632321e-01 1.619114e-01 1.627205e-01 1.606802e-01 1.605331e-01 1.578183e-01 1.566650e-01 1.533381e-01 1.511959e-01 1.473516e-01 1.443152e-01 1.400888e-01 1.363261e-01 1.318904e-01 1.276257e-01 1.231796e-01 1.186699e-01 1.144225e-01 1.099310e-01 1.060862e-01 1.018596e-01 9.860265e-02 9.485270e-02 9.233851e-02 
8.971834e-02 8.810034e-02 8.575688e-02 8.499752e-02 8.338094e-02 8.348195e-02 8.257742e-02 8.349492e-02 8.324583e-02 8.489933e-02 8.522464e-02 8.751036e-02 8.832452e-02 9.112980e-02 9.236060e-02 9.557624e-02 9.717631e-02 1.007039e-01 1.026532e-01 1.064050e-01 1.087040e-01 1.125938e-01 1.152479e-01 1.191764e-01 1.221752e-01 1.260162e-01 1.293148e-01 1.329127e-01 1.364216e-01 1.396043e-01 1.431922e-01 1.457964e-01 1.493040e-01 1.512011e-01 1.544577e-01 1.555698e-01 1.584072e-01 1.587061e-01 1.609675e-01 1.604622e-01 1.620065e-01 1.607269e-01 1.614344e-01 1.594212e-01 1.592043e-01 1.565100e-01 1.553290e-01 1.520273e-01 1.499056e-01 1.461024e-01 1.431349e-01 1.389727e-01 1.353216e-01 1.309757e-01 1.268552e-01 1.225217e-01 1.181750e-01 1.140554e-01 1.097303e-01 1.060166e-01 1.019429e-01 9.880448e-02 9.517723e-02 9.275084e-02 
9.154029e-02 8.994376e-02 8.762571e-02 8.684534e-02 8.520004e-02 8.523930e-02 8.425521e-02 8.507868e-02 8.470838e-02 8.624912e-02 8.642461e-02 8.859423e-02 8.924377e-02 9.194325e-02 9.300616e-02 9.613492e-02 9.757105e-02 1.010321e-01 1.028236e-01 1.065230e-01 1.086678e-01 1.125085e-01 1.150069e-01 1.188787e-01 1.217167e-01 1.254889e-01 1.286229e-01 1.321442e-01 1.354930e-01 1.386032e-01 1.420492e-01 1.445983e-01 1.479969e-01 1.498653e-01 1.530574e-01 1.541676e-01 1.569911e-01 1.573091e-01 1.596070e-01 1.591329e-01 1.607602e-01 1.595173e-01 1.603488e-01 1.583764e-01 1.583187e-01 1.556724e-01 1.546796e-01 1.514383e-01 1.495269e-01 1.458003e-01 1.430564e-01 1.389880e-01 1.355647e-01 1.313270e-01 1.274293e-01 1.232125e-01 1.190754e-01 1.150731e-01 1.109364e-01 1.073311e-01 1.034168e-01 1.003675e-01 9.686255e-02 9.449571e-02 
9.166838e-02 9.005020e-02 8.771313e-02 8.688326e-02 8.519875e-02 8.516329e-02 8.412894e-02 8.486017e-02 8.444191e-02 8.588370e-02 8.602776e-02 8.810269e-02 8.874815e-02 9.136533e-02 9.245553e-02 9.551805e-02 9.700853e-02 1.004187e-01 1.022801e-01 1.059405e-01 1.081553e-01 1.119646e-01 1.145179e-01 1.183637e-01 1.212306e-01 1.249832e-01 1.281157e-01 1.316284e-01 1.349477e-01 1.380655e-01 1.414619e-01 1.440379e-01 1.473766e-01 1.492899e-01 1.524210e-01 1.535884e-01 1.563566e-01 1.567353e-01 1.589880e-01 1.585700e-01 1.601647e-01 1.589678e-01 1.597807e-01 1.578432e-01 1.577821e-01 1.551623e-01 1.541821e-01 1.509636e-01 1.490803e-01 1.453779e-01 1.426761e-01 1.386366e-01 1.352660e-01 1.310630e-01 1.272244e-01 1.230468e-01 1.189699e-01 1.150078e-01 1.109265e-01 1.073564e-01 1.034864e-01 1.004603e-01 9.698221e-02 9.461913e-02 
9.271642e-02 9.107994e-02 8.871191e-02 8.784346e-02 8.610700e-02 8.601649e-02 8.491046e-02 8.557693e-02 8.507054e-02 8.644666e-02 8.649087e-02 8.850858e-02 8.904771e-02 9.162430e-02 9.260645e-02 9.565027e-02 9.703453e-02 1.004489e-01 1.022077e-01 1.058913e-01 1.080071e-01 1.118513e-01 1.143081e-01 1.181917e-01 1.209633e-01 1.247494e-01 1.277891e-01 1.313267e-01 1.345604e-01 1.376940e-01 1.410199e-01 1.436042e-01 1.468972e-01 1.488136e-01 1.519330e-01 1.530994e-01 1.558965e-01 1.562708e-01 1.585947e-01 1.581695e-01 1.598742e-01 1.586691e-01 1.596224e-01 1.576789e-01 1.577763e-01 1.551570e-01 1.543395e-01 1.511321e-01 1.494028e-01 1.457240e-01 1.431577e-01 1.391538e-01 1.358951e-01 1.317365e-01 1.279853e-01 1.238557e-01 1.198434e-01 1.159265e-01 1.118898e-01 1.083559e-01 1.045123e-01 1.015077e-01 9.803811e-02 9.567766e-02 
9.250278e-02 9.078635e-02 8.835593e-02 8.740636e-02 8.561603e-02 8.544871e-02 8.430397e-02 8.490333e-02 8.437929e-02 8.570225e-02 8.575319e-02 8.773381e-02 8.830329e-02 9.085870e-02 9.188936e-02 9.492608e-02 9.636749e-02 9.978643e-02 1.015993e-01 1.052974e-01 1.074528e-01 1.113210e-01 1.137946e-01 1.177123e-01 1.204752e-01 1.243068e-01 1.273160e-01 1.309114e-01 1.341021e-01 1.373051e-01 1.405881e-01 1.432505e-01 1.465130e-01 1.485113e-01 1.516215e-01 1.528682e-01 1.556809e-01 1.561289e-01 1.584914e-01 1.581297e-01 1.598897e-01 1.587361e-01 1.597526e-01 1.578479e-01 1.580071e-01 1.554143e-01 1.546488e-01 1.514562e-01 1.497626e-01 1.460875e-01 1.435372e-01 1.395258e-01 1.362629e-01 1.320854e-01 1.283116e-01 1.241514e-01 1.201013e-01 1.161419e-01 1.120558e-01 1.084676e-01 1.045662e-01 1.014964e-01 9.796371e-02 9.552905e-02 
9.281649e-02 9.104116e-02 8.852389e-02 8.751406e-02 8.564695e-02 8.542408e-02 8.421179e-02 8.476660e-02 8.418248e-02 8.547784e-02 8.547384e-02 8.744909e-02 8.796650e-02 9.054301e-02 9.152307e-02 9.460998e-02 9.600224e-02 9.950073e-02 1.012671e-01 1.050714e-01 1.071847e-01 1.111792e-01 1.136164e-01 1.176716e-01 1.204040e-01 1.243728e-01 1.273571e-01 1.310773e-01 1.342499e-01 1.375540e-01 1.408288e-01 1.435604e-01 1.468316e-01 1.488631e-01 1.520080e-01 1.532536e-01 1.561359e-01 1.565547e-01 1.590262e-01 1.586166e-01 1.605218e-01 1.593115e-01 1.604968e-01 1.585355e-01 1.588664e-01 1.562236e-01 1.556083e-01 1.523764e-01 1.507905e-01 1.470877e-01 1.445901e-01 1.405605e-01 1.372943e-01 1.331033e-01 1.292790e-01 1.251042e-01 1.209709e-01 1.169904e-01 1.128029e-01 1.091837e-01 1.051754e-01 1.020632e-01 9.842634e-02 9.593931e-02 
9.226739e-02 9.034979e-02 8.772208e-02 8.659471e-02 8.465319e-02 8.434638e-02 8.310127e-02 8.360985e-02 8.303498e-02 8.432026e-02 8.436183e-02 8.635678e-02 8.694458e-02 8.956176e-02 9.062160e-02 9.376191e-02 9.522673e-02 9.878624e-02 1.006031e-01 1.044753e-01 1.066065e-01 1.106789e-01 1.130975e-01 1.172448e-01 1.199264e-01 1.240042e-01 1.269183e-01 1.307630e-01 1.338647e-01 1.373031e-01 1.405278e-01 1.433943e-01 1.466544e-01 1.488121e-01 1.519953e-01 1.533516e-01 1.563218e-01 1.568332e-01 1.594327e-01 1.590980e-01 1.611543e-01 1.600029e-01 1.613414e-01 1.594235e-01 1.598880e-01 1.572722e-01 1.567524e-01 1.535281e-01 1.519868e-01 1.482686e-01 1.457594e-01 1.416879e-01 1.383569e-01 1.340951e-01 1.301622e-01 1.258878e-01 1.216149e-01 1.175090e-01 1.131646e-01 1.094002e-01 1.052302e-01 1.019622e-01 9.817028e-02 9.552799e-02 
9.186588e-02 8.984187e-02 8.706922e-02 8.585200e-02 8.380801e-02 8.343734e-02 8.212939e-02 8.260682e-02 8.200177e-02 8.329218e-02 8.332610e-02 8.536375e-02 8.595554e-02 8.865329e-02 8.972033e-02 9.297932e-02 9.445093e-02 9.816711e-02 9.999192e-02 1.040571e-01 1.062020e-01 1.104987e-01 1.129412e-01 1.173341e-01 1.200507e-01 1.243796e-01 1.273367e-01 1.314166e-01 1.345649e-01 1.381987e-01 1.414714e-01 1.444731e-01 1.477870e-01 1.500085e-01 1.532630e-01 1.546137e-01 1.576879e-01 1.581379e-01 1.608855e-01 1.604540e-01 1.627016e-01 1.614380e-01 1.629930e-01 1.609634e-01 1.616359e-01 1.589186e-01 1.585572e-01 1.552460e-01 1.537784e-01 1.499869e-01 1.474494e-01 1.433133e-01 1.398563e-01 1.355309e-01 1.313967e-01 1.270515e-01 1.225331e-01 1.183437e-01 1.137399e-01 1.098779e-01 1.054587e-01 1.020820e-01 9.806746e-02 9.531278e-02 
9.097682e-02 8.873645e-02 8.579771e-02 8.441751e-02 8.227341e-02 8.180704e-02 8.047159e-02 8.092394e-02 8.036030e-02 8.168801e-02 8.181721e-02 8.393750e-02 8.465459e-02 8.746022e-02 8.865484e-02 9.203013e-02 9.360520e-02 9.743750e-02 9.932082e-02 1.035032e-01 1.056495e-01 1.100731e-01 1.124583e-01 1.169982e-01 1.196097e-01 1.241115e-01 1.269387e-01 1.312150e-01 1.342410e-01 1.380829e-01 1.412768e-01 1.444808e-01 1.477889e-01 1.501901e-01 1.535270e-01 1.550253e-01 1.582667e-01 1.588321e-01 1.618118e-01 1.614694e-01 1.639827e-01 1.627887e-01 1.646055e-01 1.626289e-01 1.635221e-01 1.608388e-01 1.606258e-01 1.573230e-01 1.559104e-01 1.520929e-01 1.495105e-01 1.453045e-01 1.417113e-01 1.372660e-01 1.329242e-01 1.284085e-01 1.236363e-01 1.192321e-01 1.143532e-01 1.102453e-01 1.055513e-01 1.019162e-01 9.764625e-02 9.464252e-02 
8.986500e-02 8.745639e-02 8.430986e-02 8.279710e-02 8.052435e-02 7.997614e-02 7.858735e-02 7.901657e-02 7.846204e-02 7.982548e-02 8.000530e-02 8.221529e-02 8.300102e-02 8.594503e-02 8.720787e-02 9.076776e-02 9.240317e-02 9.646698e-02 9.840719e-02 1.028695e-01 1.050809e-01 1.098315e-01 1.123006e-01 1.172059e-01 1.199224e-01 1.248080e-01 1.277526e-01 1.323978e-01 1.355388e-01 1.396929e-01 1.429871e-01 1.464073e-01 1.498019e-01 1.523003e-01 1.557280e-01 1.572071e-01 1.605730e-01 1.610291e-01 1.641938e-01 1.636897e-01 1.664551e-01 1.650823e-01 1.671942e-01 1.650461e-01 1.662223e-01 1.633877e-01 1.633750e-01 1.599447e-01 1.585896e-01 1.546646e-01 1.519695e-01 1.476661e-01 1.438038e-01 1.392567e-01 1.345346e-01 1.298994e-01 1.246918e-01 1.201431e-01 1.148244e-01 1.105476e-01 1.054459e-01 1.016264e-01 9.700385e-02 9.381474e-02 
8.862738e-02 8.590610e-02 8.252639e-02 8.078949e-02 7.838499e-02 7.772342e-02 7.631607e-02 7.674611e-02 7.627963e-02 7.774011e-02 7.808779e-02 8.045772e-02 8.145037e-02 8.458011e-02 8.604429e-02 8.978650e-02 9.157783e-02 9.580761e-02 9.782879e-02 1.024466e-01 1.046476e-01 1.095628e-01 1.119287e-01 1.170294e-01 1.195656e-01 1.246901e-01 1.274123e-01 1.323365e-01 1.352648e-01 1.397175e-01 1.428689e-01 1.465759e-01 1.499484e-01 1.526925e-01 1.562434e-01 1.579126e-01 1.615391e-01 1.621345e-01 1.656617e-01 1.652626e-01 1.684403e-01 1.671533e-01 1.696676e-01 1.675922e-01 1.691026e-01 1.663237e-01 1.665280e-01 1.631246e-01 1.618376e-01 1.578934e-01 1.551097e-01 1.507214e-01 1.466318e-01 1.419198e-01 1.368681e-01 1.319855e-01 1.263888e-01 1.215210e-01 1.157917e-01 1.111470e-01 1.056435e-01 1.014382e-01 9.644685e-02 9.288998e-02 
8.680932e-02 8.383282e-02 8.017396e-02 7.824004e-02 7.567903e-02 7.490397e-02 7.346208e-02 7.387293e-02 7.347462e-02 7.500340e-02 7.548354e-02 7.799211e-02 7.913615e-02 8.245948e-02 8.405905e-02 8.804402e-02 8.994293e-02 9.446879e-02 9.658293e-02 1.015595e-01 1.038666e-01 1.092110e-01 1.117207e-01 1.173193e-01 1.200426e-01 1.257118e-01 1.286450e-01 1.341127e-01 1.372397e-01 1.421640e-01 1.454685e-01 1.495021e-01 1.529747e-01 1.558548e-01 1.594835e-01 1.611024e-01 1.648429e-01 1.652522e-01 1.689892e-01 1.683370e-01 1.718471e-01 1.702991e-01 1.732374e-01 1.709277e-01 1.728629e-01 1.698896e-01 1.703953e-01 1.668376e-01 1.656200e-01 1.615538e-01 1.585625e-01 1.540655e-01 1.495246e-01 1.446904e-01 1.390299e-01 1.339878e-01 1.277217e-01 1.226462e-01 1.162644e-01 1.113679e-01 1.052772e-01 1.007924e-01 9.530425e-02 9.146512e-02 
8.522464e-02 8.180138e-02 7.782464e-02 7.557792e-02 7.284364e-02 7.192758e-02 7.048324e-02 7.093060e-02 7.069365e-02 7.240221e-02 7.316245e-02 7.593304e-02 7.740859e-02 8.101199e-02 8.292558e-02 8.716091e-02 8.929906e-02 9.402739e-02 9.626550e-02 1.014129e-01 1.037059e-01 1.092299e-01 1.115826e-01 1.174118e-01 1.198520e-01 1.258280e-01 1.283976e-01 1.342440e-01 1.370060e-01 1.423465e-01 1.453856e-01 1.498175e-01 1.532158e-01 1.564235e-01 1.602125e-01 1.620653e-01 1.661847e-01 1.667512e-01 1.710247e-01 1.704909e-01 1.746114e-01 1.731735e-01 1.767052e-01 1.745072e-01 1.769313e-01 1.740629e-01 1.748794e-01 1.714005e-01 1.702681e-01 1.662234e-01 1.630818e-01 1.585090e-01 1.536167e-01 1.485787e-01 1.424314e-01 1.370509e-01 1.302318e-01 1.247031e-01 1.177557e-01 1.123303e-01 1.056964e-01 1.006564e-01 9.467193e-02 9.030436e-02 
8.273200e-02 7.892454e-02 7.458144e-02 7.203595e-02 6.910937e-02 6.802637e-02 6.657989e-02 6.701032e-02 6.693744e-02 6.875646e-02 6.977635e-02 7.274030e-02 7.448364e-02 7.832875e-02 8.045363e-02 8.497028e-02 8.724675e-02 9.230963e-02 9.464766e-02 1.002076e-01 1.026253e-01 1.086667e-01 1.112231e-01 1.176908e-01 1.204269e-01 1.271476e-01 1.300657e-01 1.366977e-01 1.397816e-01 1.458299e-01 1.490850e-01 1.540088e-01 1.574892e-01 1.608807e-01 1.646709e-01 1.664071e-01 1.705635e-01 1.708134e-01 1.752873e-01 1.743663e-01 1.789228e-01 1.771237e-01 1.812931e-01 1.788021e-01 1.819132e-01 1.788236e-01 1.801502e-01 1.765142e-01 1.755118e-01 1.713625e-01 1.678940e-01 1.632367e-01 1.576381e-01 1.524840e-01 1.454176e-01 1.398459e-01 1.320604e-01 1.262503e-01 1.184009e-01 1.126164e-01 1.051977e-01 9.975007e-02 9.311336e-02 8.832741e-02 
8.084224e-02 7.639283e-02 7.161886e-02 6.862276e-02 6.546013e-02 6.418795e-02 6.276464e-02 6.328348e-02 6.349153e-02 6.561147e-02 6.708930e-02 7.045477e-02 7.271928e-02 7.696006e-02 7.956656e-02 8.439873e-02 8.704016e-02 9.231305e-02 9.484819e-02 1.005497e-01 1.029669e-01 1.091610e-01 1.115066e-01 1.182167e-01 1.205390e-01 1.276357e-01 1.299835e-01 1.371201e-01 1.395882e-01 1.462136e-01 1.489804e-01 1.544568e-01 1.577490e-01 1.615687e-01 1.655522e-01 1.675532e-01 1.722493e-01 1.726493e-01 1.779021e-01 1.771023e-01 1.825455e-01 1.808965e-01 1.859267e-01 1.836230e-01 1.874417e-01 1.845556e-01 1.863280e-01 1.828821e-01 1.819907e-01 1.779671e-01 1.742579e-01 1.695767e-01 1.634509e-01 1.580580e-01 1.502978e-01 1.442622e-01 1.357284e-01 1.292716e-01 1.206886e-01 1.141458e-01 1.060386e-01 9.979825e-02 9.253089e-02 8.699094e-02 
7.779555e-02 7.276669e-02 6.750748e-02 6.404441e-02 6.062442e-02 5.909213e-02 5.771403e-02 5.822312e-02 5.876104e-02 6.106000e-02 6.301179e-02 6.663578e-02 6.934421e-02 7.385442e-02 7.675666e-02 8.186425e-02 8.463351e-02 9.022424e-02 9.280197e-02 9.891393e-02 1.014266e-01 1.081830e-01 1.107912e-01 1.182709e-01 1.210529e-01 1.291412e-01 1.320690e-01 1.403421e-01 1.433465e-01 1.510557e-01 1.541361e-01 1.603747e-01 1.636765e-01 1.677404e-01 1.715245e-01 1.732663e-01 1.777837e-01 1.776339e-01 1.829940e-01 1.816045e-01 1.876124e-01 1.854895e-01 1.915167e-01 1.888875e-01 1.938787e-01 1.907806e-01 1.934778e-01 1.899070e-01 1.892947e-01 1.852323e-01 1.810220e-01 1.763385e-01 1.691151e-01 1.636505e-01 1.545287e-01 1.482714e-01 1.383923e-01 1.315502e-01 1.217864e-01 1.147307e-01 1.056429e-01 9.881406e-02 9.074518e-02 8.459279e-02 
7.574604e-02 6.978992e-02 6.394017e-02 5.979942e-02 5.602839e-02 5.421117e-02 5.288999e-02 5.356607e-02 5.458948e-02 5.737216e-02 6.006710e-02 6.427877e-02 6.778869e-02 7.282966e-02 7.645066e-02 8.192546e-02 8.523809e-02 9.099086e-02 9.387940e-02 1.000233e-01 1.025830e-01 1.093962e-01 1.117644e-01 1.194634e-01 1.216937e-01 1.302305e-01 1.323069e-01 1.412486e-01 1.432334e-01 1.517474e-01 1.539372e-01 1.609514e-01 1.638421e-01 1.684534e-01 1.724632e-01 1.744458e-01 1.797394e-01 1.796570e-01 1.861460e-01 1.848501e-01 1.921392e-01 1.902419e-01 1.975143e-01 1.952236e-01 2.012417e-01 1.985329e-01 2.018801e-01 1.987147e-01 1.982621e-01 1.945511e-01 1.899653e-01 1.853830e-01 1.773729e-01 1.716215e-01 1.615325e-01 1.545990e-01 1.437528e-01 1.359497e-01 1.252954e-01 1.171333e-01 1.072360e-01 9.927586e-02 9.045796e-02 8.323739e-02 
7.248184e-02 6.566408e-02 5.914867e-02 5.425300e-02 5.006507e-02 4.780776e-02 4.658313e-02 4.728256e-02 4.894854e-02 5.204519e-02 5.559755e-02 6.014212e-02 6.437114e-02 6.965177e-02 7.365044e-02 7.930080e-02 8.263140e-02 8.858379e-02 9.131696e-02 9.776346e-02 1.002890e-01 1.076102e-01 1.102956e-01 1.188386e-01 1.217993e-01 1.316138e-01 1.346936e-01 1.452935e-01 1.482309e-01 1.584667e-01 1.611622e-01 1.694211e-01 1.721544e-01 1.770857e-01 1.804525e-01 1.818592e-01 1.864751e-01 1.854025e-01 1.917192e-01 1.895246e-01 1.975238e-01 1.950592e-01 2.039433e-01 2.013802e-01 2.094833e-01 2.066436e-01 2.117421e-01 2.085181e-01 2.086612e-01 2.050416e-01 1.996527e-01 1.952497e-01 1.854890e-01 1.797618e-01 1.676574e-01 1.604425e-01 1.477807e-01 1.394097e-01 1.273007e-01 1.183862e-01 1.073625e-01 9.856144e-02 8.884066e-02 8.074791e-02 
7.063989e-02 6.251192e-02 5.517762e-02 4.922252e-02 4.442933e-02 4.166710e-02 4.052706e-02 4.152920e-02 4.406881e-02 4.792691e-02 5.267347e-02 5.801616e-02 6.342695e-02 6.937025e-02 7.439592e-02 8.044003e-02 8.454819e-02 9.051910e-02 9.372033e-02 9.995135e-02 1.026233e-01 1.098051e-01 1.122995e-01 1.210072e-01 1.233472e-01 1.336990e-01 1.356083e-01 1.470872e-01 1.483747e-01 1.597321e-01 1.607986e-01 1.701701e-01 1.720711e-01 1.776831e-01 1.813328e-01 1.827837e-01 1.885541e-01 1.872579e-01 1.952201e-01 1.930173e-01 2.028721e-01 2.008061e-01 2.115055e-01 2.096065e-01 2.192145e-01 2.171047e-01 2.231729e-01 2.207391e-01 2.211576e-01 2.183627e-01 2.123958e-01 2.083371e-01 1.973894e-01 1.912434e-01 1.778169e-01 1.694940e-01 1.556544e-01 1.457617e-01 1.326656e-01 1.220980e-01 1.102165e-01 9.981469e-02 8.928603e-02 7.972375e-02 
6.794030e-02 5.863340e-02 5.036912e-02 4.319207e-02 3.753772e-02 3.391366e-02 3.285898e-02 3.402891e-02 3.788984e-02 4.235148e-02 4.863375e-02 5.434989e-02 6.088524e-02 6.689031e-02 7.233264e-02 7.826738e-02 8.205055e-02 8.794386e-02 9.048485e-02 9.673914e-02 9.904377e-02 1.064836e-01 1.093413e-01 1.187999e-01 1.223412e-01 1.342336e-01 1.379445e-01 1.518518e-01 1.549432e-01 1.691687e-01 1.711774e-01 1.827405e-01 1.841440e-01 1.901673e-01 1.922571e-01 1.923904e-01 1.964150e-01 1.932486e-01 2.003672e-01 1.967974e-01 2.074982e-01 2.048982e-01 2.182738e-01 2.163958e-01 2.298312e-01 2.278130e-01 2.373195e-01 2.348618e-01 2.365189e-01 2.340099e-01 2.266251e-01 2.231256e-01 2.092491e-01 2.032840e-01 1.868557e-01 1.780696e-01 1.618675e-01 1.510387e-01 1.362883e-01 1.245856e-01 1.115546e-01 9.999250e-02 8.857360e-02 7.786595e-02 
6.705753e-02 5.609001e-02 4.675120e-02 3.797486e-02 3.108995e-02 2.634193e-02 2.531071e-02 2.715572e-02 3.277008e-02 3.836903e-02 4.643614e-02 5.303249e-02 6.114860e-02 6.787964e-02 7.470453e-02 8.105358e-02 8.590553e-02 9.151818e-02 9.470356e-02 1.002482e-01 1.028412e-01 1.098222e-01 1.127084e-01 1.223116e-01 1.254387e-01 1.380308e-01 1.404050e-01 1.554276e-01 1.559584e-01 1.716797e-01 1.706460e-01 1.838536e-01 1.836400e-01 1.905039e-01 1.930736e-01 1.925556e-01 1.983980e-01 1.941528e-01 2.036721e-01 1.998175e-01 2.132330e-01 2.114952e-01 2.275859e-01 2.271468e-01 2.428093e-01 2.421368e-01 2.530856e-01 2.520281e-01 2.542830e-01 2.536390e-01 2.453681e-01 2.426128e-01 2.268918e-01 2.200474e-01 2.018662e-01 1.909951e-01 1.734894e-01 1.600914e-01 1.443834e-01 1.301765e-01 1.163526e-01 1.025987e-01 9.041308e-02 7.783991e-02 
6.638956e-02 5.421923e-02 4.376890e-02 3.342897e-02 2.462246e-02 1.774412e-02 1.623490e-02 1.908269e-02 2.765582e-02 3.431365e-02 4.476211e-02 5.157259e-02 6.129958e-02 6.762040e-02 7.479128e-02 8.040841e-02 8.405672e-02 8.912799e-02 9.046937e-02 9.552733e-02 9.702656e-02 1.036722e-01 1.069774e-01 1.168392e-01 1.220119e-01 1.361542e-01 1.418281e-01 1.603153e-01 1.644305e-01 1.851667e-01 1.861515e-01 2.036137e-01 2.022092e-01 2.095849e-01 2.087689e-01 2.050857e-01 2.069820e-01 1.990147e-01 2.062338e-01 2.003440e-01 2.146880e-01 2.128963e-01 2.335129e-01 2.340209e-01 2.568533e-01 2.567959e-01 2.747501e-01 2.733527e-01 2.781526e-01 2.779808e-01 2.668798e-01 2.655652e-01 2.446418e-01 2.381609e-01 2.154882e-01 2.035853e-01 1.831559e-01 1.680580e-01 1.506502e-01 1.347246e-01 1.198866e-01 1.046630e-01 9.174147e-02 7.793029e-02 