# vtk DataFile Version 2.0
Comment goes here
ASCII

DATASET STRUCTURED_POINTS
DIMENSIONS    64   64   1

ORIGIN    0.000   0.000   0.000
SPACING   0.0156250.015625   1.000

POINT_DATA   4096
SCALARS uMag double
LOOKUP_TABLE default

1.675462e-02 2.198308e-02 1.854555e-02 2.190070e-02 2.139438e-02 2.148686e-02 2.499582e-02 2.065501e-02 2.852804e-02 1.964774e-02 3.035083e-02 1.917188e-02 2.830969e-02 1.960993e-02 2.214270e-02 1.928844e-02 1.828982e-02 1.537530e-02 1.654182e-02 1.650234e-02 2.238365e-02 2.742962e-02 3.730675e-02 4.423581e-02 5.417454e-02 6.283358e-02 6.594730e-02 7.649437e-02 6.401575e-02 7.356712e-02 4.314675e-02 4.603951e-02 1.689920e-02 8.158151e-03 2.224973e-02 2.016742e-02 3.313941e-02 3.347602e-02 3.395382e-02 3.497466e-02 2.874525e-02 2.952915e-02 2.222518e-02 2.163809e-02 1.837474e-02 1.630509e-02 1.816489e-02 1.700779e-02 1.977162e-02 1.692376e-02 1.884406e-02 1.887618e-02 1.947515e-02 2.106979e-02 1.978891e-02 2.215898e-02 1.894302e-02 2.229334e-02 1.756570e-02 2.208817e-02 1.644046e-02 2.193544e-02 1.608222e-02 2.193200e-02 
2.306215e-02 2.723011e-02 2.625619e-02 2.879333e-02 2.948100e-02 2.968587e-02 3.239868e-02 2.962470e-02 3.444114e-02 2.859712e-02 3.486601e-02 2.713524e-02 3.300804e-02 2.564269e-02 2.884512e-02 2.274720e-02 2.437499e-02 1.858527e-02 2.563272e-02 2.031434e-02 2.940332e-02 2.236442e-02 3.036997e-02 1.955424e-02 2.524665e-02 1.342449e-02 1.283883e-02 2.112742e-02 1.731900e-02 3.932274e-02 4.101859e-02 5.047657e-02 5.438470e-02 4.821506e-02 5.099311e-02 3.574931e-02 3.727273e-02 2.094956e-02 2.110655e-02 1.051530e-02 8.045379e-03 9.464584e-03 6.112029e-03 1.164925e-02 1.006847e-02 1.204955e-02 1.142002e-02 1.112566e-02 1.122077e-02 8.945609e-03 8.931636e-03 8.844711e-03 8.094408e-03 1.108206e-02 9.271177e-03 1.435751e-02 1.165648e-02 1.762653e-02 1.438900e-02 2.051231e-02 1.717380e-02 2.302679e-02 2.003719e-02 2.526305e-02 
1.547135e-02 1.885088e-02 1.682634e-02 1.842101e-02 1.885551e-02 1.780777e-02 2.121923e-02 1.707294e-02 2.329740e-02 1.646799e-02 2.421825e-02 1.634860e-02 2.324772e-02 1.675278e-02 2.077410e-02 1.710588e-02 1.898274e-02 1.731166e-02 1.992764e-02 2.067966e-02 2.482865e-02 2.805061e-02 3.303003e-02 3.791266e-02 4.139825e-02 4.746397e-02 4.586059e-02 5.251607e-02 4.245650e-02 4.814484e-02 2.990732e-02 3.253998e-02 1.329867e-02 1.158914e-02 9.096064e-03 6.602539e-03 1.711693e-02 1.736806e-02 2.045134e-02 2.132467e-02 1.974184e-02 2.053299e-02 1.753187e-02 1.770462e-02 1.605663e-02 1.557954e-02 1.604432e-02 1.552055e-02 1.674549e-02 1.604358e-02 1.694532e-02 1.731140e-02 1.717765e-02 1.858687e-02 1.712018e-02 1.936451e-02 1.656469e-02 1.961735e-02 1.574819e-02 1.955679e-02 1.507725e-02 1.937358e-02 1.490956e-02 1.914541e-02 
2.092368e-02 2.367968e-02 2.344606e-02 2.477421e-02 2.583962e-02 2.533569e-02 2.785401e-02 2.526137e-02 2.913669e-02 2.458452e-02 2.930915e-02 2.349256e-02 2.814725e-02 2.206736e-02 2.588739e-02 2.008174e-02 2.361902e-02 1.794608e-02 2.297889e-02 1.707051e-02 2.296441e-02 1.608479e-02 2.125676e-02 1.327822e-02 1.607927e-02 1.096882e-02 8.363686e-03 1.646825e-02 1.290646e-02 2.600457e-02 2.564322e-02 3.204718e-02 3.347005e-02 3.140273e-02 3.306132e-02 2.507330e-02 2.639282e-02 1.641115e-02 1.714588e-02 8.790381e-03 8.564392e-03 5.556809e-03 4.143758e-03 6.749790e-03 5.865693e-03 7.989631e-03 7.614578e-03 8.426863e-03 8.263743e-03 8.503667e-03 8.063532e-03 9.325548e-03 8.293620e-03 1.112836e-02 9.462866e-03 1.350367e-02 1.135169e-02 1.598533e-02 1.358667e-02 1.830753e-02 1.595990e-02 2.038098e-02 1.841093e-02 2.218449e-02 
1.432239e-02 1.637632e-02 1.536302e-02 1.588269e-02 1.684172e-02 1.534717e-02 1.848834e-02 1.488492e-02 1.990511e-02 1.469200e-02 2.066296e-02 1.494876e-02 2.054648e-02 1.566000e-02 1.990932e-02 1.669916e-02 1.974929e-02 1.829850e-02 2.111844e-02 2.146721e-02 2.434247e-02 2.633435e-02 2.874500e-02 3.198409e-02 3.262108e-02 3.666779e-02 3.379147e-02 3.807587e-02 3.043985e-02 3.411468e-02 2.229857e-02 2.452343e-02 1.152927e-02 1.207091e-02 3.169507e-03 2.578005e-03 7.808032e-03 8.581149e-03 1.177686e-02 1.288177e-02 1.323445e-02 1.427149e-02 1.342643e-02 1.412246e-02 1.353064e-02 1.385847e-02 1.400884e-02 1.419086e-02 1.464821e-02 1.487383e-02 1.505367e-02 1.578535e-02 1.523716e-02 1.662264e-02 1.514328e-02 1.716640e-02 1.476861e-02 1.737643e-02 1.426361e-02 1.732744e-02 1.387257e-02 1.711223e-02 1.383737e-02 1.678874e-02 
1.888923e-02 2.066622e-02 2.089661e-02 2.149570e-02 2.272285e-02 2.192047e-02 2.419180e-02 2.190311e-02 2.508986e-02 2.146722e-02 2.522435e-02 2.068373e-02 2.452580e-02 1.959075e-02 2.317115e-02 1.818224e-02 2.162940e-02 1.661261e-02 2.034163e-02 1.513769e-02 1.889329e-02 1.339943e-02 1.632162e-02 1.117196e-02 1.196258e-02 1.011653e-02 7.174472e-03 1.297325e-02 9.392391e-03 1.783940e-02 1.632368e-02 2.106122e-02 2.103349e-02 2.082814e-02 2.146449e-02 1.735111e-02 1.815507e-02 1.209302e-02 1.281075e-02 6.756904e-03 7.237950e-03 3.180996e-03 3.249301e-03 3.683405e-03 3.473155e-03 5.419737e-03 5.211566e-03 6.730203e-03 6.412723e-03 7.799982e-03 7.167074e-03 9.061939e-03 8.014545e-03 1.068574e-02 9.260117e-03 1.256817e-02 1.088880e-02 1.451538e-02 1.276122e-02 1.637237e-02 1.476087e-02 1.805008e-02 1.682023e-02 1.949732e-02 
1.331802e-02 1.444190e-02 1.414515e-02 1.402244e-02 1.527887e-02 1.366818e-02 1.652882e-02 1.349459e-02 1.765227e-02 1.363269e-02 1.843627e-02 1.416763e-02 1.882459e-02 1.509599e-02 1.903659e-02 1.639343e-02 1.953532e-02 1.817785e-02 2.075729e-02 2.070494e-02 2.274287e-02 2.386512e-02 2.500127e-02 2.704027e-02 2.656695e-02 2.918664e-02 2.629917e-02 2.908629e-02 2.336273e-02 2.584582e-02 1.775866e-02 1.957763e-02 1.054526e-02 1.174898e-02 3.333666e-03 5.012920e-03 2.543087e-03 4.981331e-03 6.563045e-03 8.265139e-03 8.966791e-03 1.037218e-02 1.037509e-02 1.146727e-02 1.137149e-02 1.218068e-02 1.223520e-02 1.289756e-02 1.295736e-02 1.365052e-02 1.343083e-02 1.438726e-02 1.364264e-02 1.499205e-02 1.360471e-02 1.537301e-02 1.337031e-02 1.550764e-02 1.306028e-02 1.542942e-02 1.284382e-02 1.519282e-02 1.289084e-02 1.484893e-02 
1.699879e-02 1.809262e-02 1.861517e-02 1.876303e-02 2.005081e-02 1.913158e-02 2.118210e-02 1.918144e-02 2.187549e-02 1.892229e-02 2.202419e-02 1.838039e-02 2.159878e-02 1.757416e-02 2.068692e-02 1.651532e-02 1.946812e-02 1.524754e-02 1.805249e-02 1.381678e-02 1.625269e-02 1.217012e-02 1.370262e-02 1.045806e-02 1.027249e-02 9.569723e-03 6.942995e-03 1.058020e-02 7.080105e-03 1.275428e-02 1.048239e-02 1.427066e-02 1.323650e-02 1.400776e-02 1.375833e-02 1.188257e-02 1.205146e-02 8.519978e-03 8.885335e-03 4.763938e-03 5.232994e-03 1.434332e-03 2.105845e-03 1.956672e-03 2.060527e-03 4.089516e-03 3.875266e-03 5.778005e-03 5.347985e-03 7.198505e-03 6.509663e-03 8.579683e-03 7.625324e-03 1.004661e-02 8.880012e-03 1.159625e-02 1.031907e-02 1.315546e-02 1.190549e-02 1.464197e-02 1.358265e-02 1.599118e-02 1.529819e-02 1.715520e-02 
1.245318e-02 1.292893e-02 1.314091e-02 1.263809e-02 1.406677e-02 1.248460e-02 1.510030e-02 1.255965e-02 1.608899e-02 1.293589e-02 1.691420e-02 1.363906e-02 1.755254e-02 1.464788e-02 1.811144e-02 1.593665e-02 1.878865e-02 1.752007e-02 1.973778e-02 1.940718e-02 2.090406e-02 2.142814e-02 2.195981e-02 2.316520e-02 2.235773e-02 2.400847e-02 2.150583e-02 2.332775e-02 1.902508e-02 2.075109e-02 1.499241e-02 1.646295e-02 1.001472e-02 1.132689e-02 5.083594e-03 6.822973e-03 2.288183e-03 5.181174e-03 4.325989e-03 6.592422e-03 6.701189e-03 8.426170e-03 8.491419e-03 9.846669e-03 9.840507e-03 1.092398e-02 1.088295e-02 1.181166e-02 1.165793e-02 1.256792e-02 1.215923e-02 1.319126e-02 1.240124e-02 1.364732e-02 1.242061e-02 1.390549e-02 1.228374e-02 1.396286e-02 1.209384e-02 1.384549e-02 1.198051e-02 1.359768e-02 1.207122e-02 1.327230e-02 
1.525475e-02 1.586218e-02 1.657571e-02 1.643181e-02 1.774036e-02 1.678121e-02 1.865911e-02 1.689801e-02 1.924178e-02 1.678073e-02 1.941905e-02 1.643401e-02 1.916612e-02 1.586143e-02 1.851327e-02 1.506653e-02 1.752164e-02 1.406175e-02 1.621472e-02 1.286641e-02 1.451658e-02 1.151329e-02 1.231597e-02 1.016447e-02 9.663350e-03 9.239896e-03 7.108671e-03 9.173967e-03 6.025308e-03 9.750837e-03 6.995072e-03 1.014786e-02 8.288711e-03 9.688267e-03 8.580373e-03 8.200608e-03 7.598254e-03 5.932253e-03 5.635033e-03 3.326615e-03 3.184661e-03 1.022206e-03 7.482479e-04 1.931262e-03 1.585028e-03 3.802289e-03 3.407590e-03 5.406625e-03 4.885581e-03 6.799849e-03 6.123253e-03 8.094010e-03 7.270294e-03 9.367693e-03 8.443847e-03 1.064096e-02 9.697646e-03 1.189038e-02 1.103477e-02 1.307523e-02 1.243190e-02 1.415488e-02 1.385369e-02 1.509412e-02 
1.171020e-02 1.173103e-02 1.230863e-02 1.158002e-02 1.311280e-02 1.161225e-02 1.402898e-02 1.188599e-02 1.495086e-02 1.242610e-02 1.579597e-02 1.321813e-02 1.653582e-02 1.422161e-02 1.720448e-02 1.539343e-02 1.786906e-02 1.669607e-02 1.856211e-02 1.806431e-02 1.920798e-02 1.933947e-02 1.959592e-02 2.024526e-02 1.941868e-02 2.043001e-02 1.837402e-02 1.957347e-02 1.630158e-02 1.753680e-02 1.330098e-02 1.450062e-02 9.772068e-03 1.101616e-02 6.396000e-03 7.964817e-03 4.282669e-03 6.412710e-03 4.554916e-03 6.706104e-03 6.094833e-03 7.875491e-03 7.670619e-03 9.109257e-03 8.989217e-03 1.017007e-02 1.002115e-02 1.103815e-02 1.077423e-02 1.172639e-02 1.125967e-02 1.223927e-02 1.150263e-02 1.257180e-02 1.154666e-02 1.272166e-02 1.145803e-02 1.270077e-02 1.132748e-02 1.253916e-02 1.126231e-02 1.228287e-02 1.136613e-02 1.199057e-02 
1.364014e-02 1.389023e-02 1.473937e-02 1.439534e-02 1.571760e-02 1.474800e-02 1.650598e-02 1.493466e-02 1.703684e-02 1.494508e-02 1.725655e-02 1.477118e-02 1.713731e-02 1.440637e-02 1.668004e-02 1.384767e-02 1.590112e-02 1.310027e-02 1.480586e-02 1.218199e-02 1.337387e-02 1.113608e-02 1.159377e-02 1.006832e-02 9.547891e-03 9.165123e-03 7.518491e-03 8.595868e-03 6.026231e-03 8.310144e-03 5.480538e-03 7.997258e-03 5.508396e-03 7.323443e-03 5.341948e-03 6.158633e-03 4.592445e-03 4.624984e-03 3.287310e-03 3.086339e-03 1.697344e-03 2.313862e-03 8.440514e-04 2.945078e-03 2.139544e-03 4.175560e-03 3.575886e-03 5.428347e-03 4.840474e-03 6.590266e-03 5.952750e-03 7.675614e-03 6.983813e-03 8.716978e-03 8.003686e-03 9.730116e-03 9.057265e-03 1.070976e-02 1.016102e-02 1.163777e-02 1.130933e-02 1.249169e-02 1.248069e-02 1.324938e-02 
1.106397e-02 1.075775e-02 1.160639e-02 1.073930e-02 1.234378e-02 1.093396e-02 1.320058e-02 1.136586e-02 1.409012e-02 1.202164e-02 1.494001e-02 1.285872e-02 1.570882e-02 1.382184e-02 1.638743e-02 1.485598e-02 1.698076e-02 1.590467e-02 1.747357e-02 1.689004e-02 1.779708e-02 1.768642e-02 1.781963e-02 1.811579e-02 1.737255e-02 1.797876e-02 1.630868e-02 1.711893e-02 1.457628e-02 1.550411e-02 1.228084e-02 1.329367e-02 9.711802e-03 1.086001e-02 7.343244e-03 8.749325e-03 5.819523e-03 7.534898e-03 5.635945e-03 7.434590e-03 6.467604e-03 8.083378e-03 7.623396e-03 8.983802e-03 8.721301e-03 9.854930e-03 9.623347e-03 1.058949e-02 1.028805e-02 1.115387e-02 1.071219e-02 1.153946e-02 1.091631e-02 1.174713e-02 1.094167e-02 1.178652e-02 1.085067e-02 1.167988e-02 1.072597e-02 1.146469e-02 1.066328e-02 1.119384e-02 1.075462e-02 1.093345e-02 
1.212777e-02 1.210405e-02 1.306353e-02 1.257142e-02 1.391961e-02 1.294662e-02 1.463864e-02 1.321248e-02 1.516352e-02 1.335093e-02 1.544615e-02 1.334460e-02 1.545484e-02 1.317936e-02 1.517652e-02 1.284758e-02 1.461137e-02 1.235148e-02 1.376330e-02 1.170627e-02 1.263722e-02 1.094543e-02 1.125524e-02 1.012895e-02 9.688548e-03 9.338677e-03 8.084406e-03 8.640133e-03 6.651374e-03 8.024128e-03 5.559925e-03 7.393444e-03 4.790859e-03 6.633531e-03 4.131506e-03 5.712036e-03 3.388695e-03 4.737774e-03 2.579090e-03 3.969600e-03 2.036134e-03 3.725990e-03 2.260512e-03 4.089939e-03 3.091677e-03 4.819967e-03 4.080638e-03 5.667692e-03 5.037338e-03 6.515003e-03 5.922057e-03 7.329175e-03 6.754484e-03 8.111010e-03 7.572183e-03 8.866447e-03 8.408997e-03 9.596113e-03 9.285569e-03 1.029459e-02 1.020690e-02 1.095282e-02 1.116264e-02 1.155999e-02 
1.048592e-02 9.933833e-03 1.099641e-02 1.003712e-02 1.170628e-02 1.037628e-02 1.254435e-02 1.094194e-02 1.342769e-02 1.168936e-02 1.428226e-02 1.255559e-02 1.505436e-02 1.347588e-02 1.571098e-02 1.439084e-02 1.622924e-02 1.524238e-02 1.657864e-02 1.596157e-02 1.670561e-02 1.645729e-02 1.653109e-02 1.661839e-02 1.596742e-02 1.633539e-02 1.495231e-02 1.553946e-02 1.349004e-02 1.424738e-02 1.168604e-02 1.259584e-02 9.763649e-03 1.084750e-02 8.059028e-03 9.353610e-03 6.965441e-03 8.445585e-03 6.728597e-03 8.250288e-03 7.205437e-03 8.603694e-03 8.020364e-03 9.217437e-03 8.873307e-03 9.865961e-03 9.604344e-03 1.042410e-02 1.014370e-02 1.083418e-02 1.047134e-02 1.107512e-02 1.059875e-02 1.114657e-02 1.056224e-02 1.106361e-02 1.042084e-02 1.085656e-02 1.025390e-02 1.057204e-02 1.015390e-02 1.027275e-02 1.021028e-02 1.003393e-02 
1.068399e-02 1.043931e-02 1.150480e-02 1.089275e-02 1.229250e-02 1.131168e-02 1.299426e-02 1.167314e-02 1.355558e-02 1.195040e-02 1.392774e-02 1.211706e-02 1.407432e-02 1.215178e-02 1.397452e-02 1.204241e-02 1.362228e-02 1.178838e-02 1.302299e-02 1.140125e-02 1.219226e-02 1.090443e-02 1.116105e-02 1.033190e-02 9.984799e-03 9.721995e-03 8.747493e-03 9.103114e-03 7.548898e-03 8.478682e-03 6.471538e-03 7.828477e-03 5.546740e-03 7.134603e-03 4.758030e-03 6.417468e-03 4.095442e-03 5.756043e-03 3.616577e-03 5.273290e-03 3.440357e-03 5.077956e-03 3.630664e-03 5.190867e-03 4.104059e-03 5.535285e-03 4.712914e-03 6.003862e-03 5.349551e-03 6.516774e-03 5.966166e-03 7.033342e-03 6.558000e-03 7.539919e-03 7.143609e-03 8.035729e-03 7.749519e-03 8.523986e-03 8.399556e-03 9.007969e-03 9.107843e-03 9.489565e-03 9.874559e-03 9.968192e-03 
9.946052e-03 9.196852e-03 1.044611e-02 9.416844e-03 1.116319e-02 9.894878e-03 1.201936e-02 1.058746e-02 1.292490e-02 1.142207e-02 1.379801e-02 1.232029e-02 1.457461e-02 1.321223e-02 1.520899e-02 1.403976e-02 1.566751e-02 1.475143e-02 1.591869e-02 1.529380e-02 1.592508e-02 1.560540e-02 1.564301e-02 1.561988e-02 1.503326e-02 1.528102e-02 1.408149e-02 1.456703e-02 1.282269e-02 1.351691e-02 1.136153e-02 1.224817e-02 9.881011e-03 1.095477e-02 8.629097e-03 9.873212e-03 7.857266e-03 9.206163e-03 7.690012e-03 9.024175e-03 8.028697e-03 9.232177e-03 8.638129e-03 9.648419e-03 9.299675e-03 1.010475e-02 9.870845e-03 1.048766e-02 1.027596e-02 1.073441e-02 1.048597e-02 1.081853e-02 1.050570e-02 1.073914e-02 1.036799e-02 1.051570e-02 1.013134e-02 1.018676e-02 9.877267e-03 9.810182e-03 9.702834e-03 9.461997e-03 9.703388e-03 9.229873e-03 
9.269930e-03 8.836277e-03 1.001943e-02 9.300701e-03 1.078935e-02 9.789802e-03 1.152481e-02 1.027133e-02 1.216691e-02 1.070687e-02 1.266070e-02 1.105890e-02 1.296251e-02 1.129778e-02 1.304503e-02 1.140673e-02 1.289915e-02 1.138343e-02 1.253263e-02 1.123826e-02 1.196749e-02 1.099024e-02 1.123792e-02 1.066181e-02 1.038917e-02 1.027312e-02 9.475016e-03 9.836525e-03 8.551469e-03 9.354746e-03 7.667442e-03 8.826140e-03 6.858224e-03 8.256797e-03 6.148855e-03 7.672781e-03 5.566415e-03 7.123587e-03 5.148359e-03 6.671468e-03 4.931819e-03 6.368752e-03 4.926039e-03 6.234904e-03 5.095655e-03 6.250164e-03 5.376225e-03 6.370779e-03 5.705153e-03 6.551744e-03 6.041980e-03 6.761180e-03 6.373082e-03 6.983295e-03 6.707440e-03 7.215263e-03 7.068931e-03 7.463044e-03 7.487205e-03 7.737809e-03 7.987970e-03 8.052477e-03 8.584134e-03 8.417536e-03 
9.413492e-03 8.494706e-03 9.927639e-03 8.838934e-03 1.069031e-02 9.466772e-03 1.160581e-02 1.029659e-02 1.256878e-02 1.122904e-02 1.348542e-02 1.217332e-02 1.428245e-02 1.305788e-02 1.490758e-02 1.382989e-02 1.532505e-02 1.444868e-02 1.550867e-02 1.487764e-02 1.543615e-02 1.507914e-02 1.508836e-02 1.501657e-02 1.445609e-02 1.466489e-02 1.355354e-02 1.402744e-02 1.243483e-02 1.315315e-02 1.120711e-02 1.214618e-02 1.003228e-02 1.115906e-02 9.105077e-03 1.036132e-02 8.591804e-03 9.882780e-03 8.543542e-03 9.756182e-03 8.863751e-03 9.907063e-03 9.376303e-03 1.020285e-02 9.914067e-03 1.051302e-02 1.035764e-02 1.074047e-02 1.063602e-02 1.082640e-02 1.071780e-02 1.074499e-02 1.060480e-02 1.049764e-02 1.032930e-02 1.010967e-02 9.953157e-03 9.629618e-03 9.566155e-03 9.130013e-03 9.278659e-03 8.705802e-03 9.201761e-03 8.463606e-03 
7.841073e-03 7.236400e-03 8.563018e-03 7.741974e-03 9.369445e-03 8.337140e-03 1.019523e-02 8.973715e-03 1.096890e-02 9.595730e-03 1.162252e-02 1.015066e-02 1.210084e-02 1.059899e-02 1.236877e-02 1.092012e-02 1.241556e-02 1.111333e-02 1.225423e-02 1.119346e-02 1.191610e-02 1.118278e-02 1.144229e-02 1.110153e-02 1.087523e-02 1.096046e-02 1.025251e-02 1.075776e-02 9.604150e-03 1.048235e-02 8.953070e-03 1.012277e-02 8.318260e-03 9.678188e-03 7.719167e-03 9.166087e-03 7.179151e-03 8.622460e-03 6.725123e-03 8.093746e-03 6.381569e-03 7.623497e-03 6.160721e-03 7.239675e-03 6.054895e-03 6.948830e-03 6.037413e-03 6.739724e-03 6.072583e-03 6.592962e-03 6.128956e-03 6.490374e-03 6.189824e-03 6.420677e-03 6.258647e-03 6.382068e-03 6.359362e-03 6.383452e-03 6.531273e-03 6.444298e-03 6.817967e-03 6.591330e-03 7.251963e-03 6.850601e-03 
8.856030e-03 7.783905e-03 9.417527e-03 8.279501e-03 1.027506e-02 9.088496e-03 1.130124e-02 1.008238e-02 1.236600e-02 1.113430e-02 1.335982e-02 1.214383e-02 1.420069e-02 1.304135e-02 1.483331e-02 1.378305e-02 1.522460e-02 1.434203e-02 1.535721e-02 1.469878e-02 1.522329e-02 1.483481e-02 1.482184e-02 1.473281e-02 1.416274e-02 1.438492e-02 1.327797e-02 1.380696e-02 1.223664e-02 1.305283e-02 1.115549e-02 1.222066e-02 1.019371e-02 1.144201e-02 9.518188e-03 1.084930e-02 9.237573e-03 1.052814e-02 9.343829e-03 1.048107e-02 9.721663e-03 1.063211e-02 1.021593e-02 1.086686e-02 1.068891e-02 1.107437e-02 1.104004e-02 1.116980e-02 1.120524e-02 1.110031e-02 1.115323e-02 1.084394e-02 1.088482e-02 1.040697e-02 1.043409e-02 9.822621e-03 9.870167e-03 9.151970e-03 9.297678e-03 8.486903e-03 8.850946e-03 7.950363e-03 8.670649e-03 7.680430e-03 
6.346178e-03 5.579642e-03 7.091090e-03 6.168777e-03 8.000799e-03 6.922818e-03 8.986529e-03 7.764196e-03 9.953496e-03 8.610308e-03 1.081268e-02 9.389112e-03 1.149140e-02 1.005019e-02 1.194398e-02 1.057157e-02 1.215962e-02 1.096023e-02 1.216286e-02 1.124454e-02 1.200384e-02 1.145980e-02 1.174083e-02 1.163166e-02 1.142201e-02 1.176357e-02 1.107409e-02 1.183355e-02 1.070161e-02 1.180253e-02 1.029544e-02 1.163134e-02 9.845440e-03 1.129906e-02 9.351335e-03 1.081417e-02 8.827535e-03 1.021331e-02 8.300950e-03 9.549443e-03 7.803572e-03 8.875596e-03 7.362981e-03 8.231621e-03 6.994012e-03 7.639222e-03 6.694549e-03 7.105422e-03 6.447403e-03 6.629717e-03 6.228214e-03 6.209267e-03 6.016983e-03 5.841004e-03 5.809912e-03 5.524341e-03 5.628700e-03 5.267671e-03 5.524184e-03 5.096850e-03 5.568707e-03 5.058274e-03 5.831685e-03 5.207086e-03 
8.239379e-03 7.030325e-03 8.897886e-03 7.734422e-03 9.918260e-03 8.780926e-03 1.112132e-02 9.980969e-03 1.234243e-02 1.118040e-02 1.345339e-02 1.227339e-02 1.436406e-02 1.319718e-02 1.501880e-02 1.392196e-02 1.539100e-02 1.443846e-02 1.547560e-02 1.474539e-02 1.528022e-02 1.484021e-02 1.481855e-02 1.471722e-02 1.411169e-02 1.437523e-02 1.320132e-02 1.383370e-02 1.217055e-02 1.314995e-02 1.115804e-02 1.242533e-02 1.034342e-02 1.178891e-02 9.887463e-03 1.135686e-02 9.848939e-03 1.118444e-02 1.015348e-02 1.124345e-02 1.064962e-02 1.144180e-02 1.118493e-02 1.166479e-02 1.164057e-02 1.180803e-02 1.193124e-02 1.179296e-02 1.199816e-02 1.157147e-02 1.180857e-02 1.112647e-02 1.136129e-02 1.047107e-02 1.069311e-02 9.648243e-03 9.883691e-03 8.733688e-03 9.059189e-03 7.843740e-03 8.391171e-03 7.143314e-03 8.071536e-03 6.826457e-03 
4.725980e-03 3.803545e-03 5.565058e-03 4.549320e-03 6.670993e-03 5.546003e-03 7.906407e-03 6.660236e-03 9.141925e-03 7.775056e-03 1.026058e-02 8.797725e-03 1.116535e-02 9.667399e-03 1.179473e-02 1.036427e-02 1.213891e-02 1.091207e-02 1.224452e-02 1.136658e-02 1.219875e-02 1.179078e-02 1.209591e-02 1.222544e-02 1.200182e-02 1.266688e-02 1.193301e-02 1.306169e-02 1.185877e-02 1.332324e-02 1.172236e-02 1.336472e-02 1.146996e-02 1.313454e-02 1.107415e-02 1.263602e-02 1.054305e-02 1.192223e-02 9.914091e-03 1.107177e-02 9.238821e-03 1.016012e-02 8.567098e-03 9.240631e-03 7.935798e-03 8.342069e-03 7.362797e-03 7.479636e-03 6.845519e-03 6.667879e-03 6.364483e-03 5.923505e-03 5.893030e-03 5.257319e-03 5.412518e-03 4.667449e-03 4.930387e-03 4.147361e-03 4.499046e-03 3.711660e-03 4.229615e-03 3.428592e-03 4.271776e-03 3.424194e-03 
7.527262e-03 6.216418e-03 8.361545e-03 7.233073e-03 9.640940e-03 8.602255e-03 1.110531e-02 1.006228e-02 1.254687e-02 1.143719e-02 1.381811e-02 1.262278e-02 1.482230e-02 1.357075e-02 1.550638e-02 1.427359e-02 1.585458e-02 1.474634e-02 1.587955e-02 1.500872e-02 1.560905e-02 1.507263e-02 1.507103e-02 1.493758e-02 1.428914e-02 1.459836e-02 1.330217e-02 1.406788e-02 1.220414e-02 1.340555e-02 1.117559e-02 1.272879e-02 1.045574e-02 1.218654e-02 1.022503e-02 1.189702e-02 1.047880e-02 1.188881e-02 1.104487e-02 1.209341e-02 1.171629e-02 1.238863e-02 1.233888e-02 1.264723e-02 1.281462e-02 1.276260e-02 1.307425e-02 1.265670e-02 1.306032e-02 1.228321e-02 1.273167e-02 1.162984e-02 1.208009e-02 1.071837e-02 1.114436e-02 9.603301e-03 1.001739e-02 8.375113e-03 8.852751e-03 7.176659e-03 7.874277e-03 6.233519e-03 7.360215e-03 5.846555e-03 
2.916064e-03 1.859086e-03 3.984868e-03 2.935143e-03 5.423858e-03 4.298314e-03 7.013784e-03 5.752708e-03 8.598778e-03 7.169907e-03 1.003609e-02 8.443961e-03 1.119442e-02 9.501172e-03 1.198262e-02 1.032387e-02 1.238775e-02 1.096371e-02 1.249417e-02 1.152611e-02 1.245917e-02 1.212627e-02 1.244823e-02 1.283705e-02 1.256470e-02 1.364893e-02 1.281148e-02 1.445881e-02 1.309951e-02 1.509911e-02 1.329358e-02 1.540142e-02 1.327150e-02 1.526623e-02 1.296989e-02 1.470006e-02 1.239885e-02 1.379919e-02 1.162407e-02 1.269683e-02 1.073336e-02 1.150777e-02 9.807916e-03 1.029794e-02 8.907871e-03 9.089379e-03 8.068971e-03 7.891670e-03 7.302083e-03 6.733687e-03 6.592300e-03 5.667297e-03 5.903153e-03 4.737520e-03 5.191189e-03 3.944993e-03 4.427999e-03 3.237575e-03 3.627593e-03 2.548211e-03 2.896920e-03 1.875696e-03 2.533039e-03 1.466479e-03 
6.685179e-03 5.365960e-03 7.826109e-03 6.867435e-03 9.498628e-03 8.669080e-03 1.132678e-02 1.044685e-02 1.305915e-02 1.201660e-02 1.453209e-02 1.328331e-02 1.564495e-02 1.422451e-02 1.635104e-02 1.487064e-02 1.665120e-02 1.527343e-02 1.658503e-02 1.547832e-02 1.621313e-02 1.551191e-02 1.558413e-02 1.537440e-02 1.471101e-02 1.504191e-02 1.359957e-02 1.450089e-02 1.233637e-02 1.380599e-02 1.117492e-02 1.311075e-02 1.049478e-02 1.262088e-02 1.054185e-02 1.247936e-02 1.119424e-02 1.267924e-02 1.211055e-02 1.308857e-02 1.300917e-02 1.353920e-02 1.374900e-02 1.388474e-02 1.427208e-02 1.401161e-02 1.453243e-02 1.383603e-02 1.446507e-02 1.330812e-02 1.400355e-02 1.241981e-02 1.312099e-02 1.120539e-02 1.185701e-02 9.734177e-03 1.032231e-02 8.108659e-03 8.701841e-03 6.489150e-03 7.282858e-03 5.174689e-03 6.484442e-03 4.684178e-03 
9.452237e-04 7.864880e-04 2.594047e-03 1.958378e-03 4.474221e-03 3.558832e-03 6.463229e-03 5.278268e-03 8.446344e-03 6.963211e-03 1.025903e-02 8.463695e-03 1.170629e-02 9.659093e-03 1.262673e-02 1.051461e-02 1.298172e-02 1.112130e-02 1.291450e-02 1.167268e-02 1.271520e-02 1.238000e-02 1.268901e-02 1.338029e-02 1.301330e-02 1.466551e-02 1.366694e-02 1.605377e-02 1.445496e-02 1.723447e-02 1.510360e-02 1.789013e-02 1.537669e-02 1.783916e-02 1.516164e-02 1.711068e-02 1.449097e-02 1.589894e-02 1.349492e-02 1.444652e-02 1.232766e-02 1.293509e-02 1.111486e-02 1.143508e-02 9.939216e-03 9.929993e-03 8.850674e-03 8.396070e-03 7.874848e-03 6.881591e-03 7.005425e-03 5.521057e-03 6.196051e-03 4.461116e-03 5.373702e-03 3.739050e-03 4.467169e-03 3.221316e-03 3.427434e-03 2.696466e-03 2.234182e-03 2.011432e-03 9.357184e-04 1.150458e-03 
5.696880e-03 4.615042e-03 7.366061e-03 6.832022e-03 9.604454e-03 9.175772e-03 1.190977e-02 1.132568e-02 1.400438e-02 1.309623e-02 1.571265e-02 1.439772e-02 1.693169e-02 1.524929e-02 1.762688e-02 1.575362e-02 1.782306e-02 1.602402e-02 1.759972e-02 1.613398e-02 1.708114e-02 1.612773e-02 1.636540e-02 1.601230e-02 1.543554e-02 1.572315e-02 1.418854e-02 1.517050e-02 1.263360e-02 1.437613e-02 1.113651e-02 1.356472e-02 1.040541e-02 1.307557e-02 1.086024e-02 1.311445e-02 1.210372e-02 1.360328e-02 1.348141e-02 1.429847e-02 1.463484e-02 1.497152e-02 1.548845e-02 1.546205e-02 1.607167e-02 1.564976e-02 1.637811e-02 1.543424e-02 1.631304e-02 1.474991e-02 1.574436e-02 1.359189e-02 1.460347e-02 1.201742e-02 1.293428e-02 1.012132e-02 1.087944e-02 8.015328e-03 8.659622e-03 5.847211e-03 6.618000e-03 3.947409e-03 5.381777e-03 3.291323e-03 
1.922536e-03 3.264735e-03 2.705596e-03 3.224564e-03 4.409522e-03 4.090219e-03 6.542675e-03 5.633885e-03 8.863373e-03 7.421237e-03 1.110191e-02 9.086070e-03 1.290744e-02 1.034326e-02 1.394173e-02 1.107239e-02 1.406873e-02 1.141469e-02 1.351674e-02 1.172903e-02 1.283537e-02 1.240159e-02 1.260922e-02 1.369193e-02 1.315809e-02 1.562046e-02 1.441054e-02 1.788476e-02 1.597024e-02 1.991133e-02 1.730808e-02 2.109241e-02 1.798826e-02 2.109213e-02 1.782900e-02 2.001089e-02 1.693599e-02 1.825986e-02 1.558147e-02 1.629955e-02 1.404181e-02 1.442520e-02 1.250282e-02 1.268420e-02 1.105808e-02 1.094583e-02 9.759513e-03 9.090366e-03 8.651688e-03 7.203670e-03 7.745789e-03 5.626703e-03 6.980019e-03 4.752491e-03 6.241714e-03 4.589742e-03 5.431382e-03 4.692990e-03 4.501155e-03 4.663116e-03 3.463500e-03 4.352894e-03 2.437790e-03 3.807630e-03 
4.626541e-03 4.349412e-03 7.169791e-03 7.422181e-03 1.015325e-02 1.038565e-02 1.304812e-02 1.297603e-02 1.557843e-02 1.495800e-02 1.754499e-02 1.620326e-02 1.883720e-02 1.679080e-02 1.944666e-02 1.698089e-02 1.943188e-02 1.700688e-02 1.891634e-02 1.694438e-02 1.815723e-02 1.685976e-02 1.740506e-02 1.682710e-02 1.659745e-02 1.671322e-02 1.533564e-02 1.621485e-02 1.333986e-02 1.522696e-02 1.109571e-02 1.411367e-02 1.009748e-02 1.353233e-02 1.125180e-02 1.382672e-02 1.341329e-02 1.473570e-02 1.535631e-02 1.580999e-02 1.671636e-02 1.676710e-02 1.760696e-02 1.746700e-02 1.823933e-02 1.778878e-02 1.867746e-02 1.758767e-02 1.874053e-02 1.675057e-02 1.813230e-02 1.527370e-02 1.669924e-02 1.326551e-02 1.451351e-02 1.087682e-02 1.179346e-02 8.238922e-03 8.812490e-03 5.452037e-03 5.925169e-03 2.687130e-03 3.979146e-03 1.728519e-03 
4.945491e-03 6.455868e-03 5.016030e-03 5.979529e-03 5.869092e-03 6.112770e-03 7.607555e-03 7.143747e-03 1.005763e-02 8.850570e-03 1.278811e-02 1.065125e-02 1.512621e-02 1.191587e-02 1.631953e-02 1.227482e-02 1.594101e-02 1.193069e-02 1.432719e-02 1.159097e-02 1.256201e-02 1.194994e-02 1.180238e-02 1.347596e-02 1.263407e-02 1.631164e-02 1.487124e-02 1.999704e-02 1.772588e-02 2.345762e-02 2.018576e-02 2.548650e-02 2.145303e-02 2.543063e-02 2.124519e-02 2.359099e-02 1.986648e-02 2.086033e-02 1.789985e-02 1.813102e-02 1.584532e-02 1.588897e-02 1.395709e-02 1.408285e-02 1.229329e-02 1.229011e-02 1.087097e-02 1.014984e-02 9.763692e-03 7.832500e-03 9.009987e-03 6.171623e-03 8.490475e-03 5.940620e-03 8.006133e-03 6.659439e-03 7.431036e-03 7.388364e-03 6.751254e-03 7.710774e-03 6.028163e-03 7.578043e-03 5.370127e-03 7.094743e-03 
3.836811e-03 5.127544e-03 7.580396e-03 8.910799e-03 1.141854e-02 1.257751e-02 1.502134e-02 1.577003e-02 1.809356e-02 1.805515e-02 2.034569e-02 1.912572e-02 2.162974e-02 1.911478e-02 2.201488e-02 1.866542e-02 2.162166e-02 1.830342e-02 2.053819e-02 1.792289e-02 1.929138e-02 1.759517e-02 1.863180e-02 1.776549e-02 1.848553e-02 1.821628e-02 1.769101e-02 1.802276e-02 1.514725e-02 1.668466e-02 1.128646e-02 1.485270e-02 9.414459e-03 1.397642e-02 1.196323e-02 1.469703e-02 1.554649e-02 1.622023e-02 1.805013e-02 1.773112e-02 1.938075e-02 1.898615e-02 2.007959e-02 1.996479e-02 2.070833e-02 2.055309e-02 2.146699e-02 2.048475e-02 2.195287e-02 1.951375e-02 2.145320e-02 1.763449e-02 1.965829e-02 1.508031e-02 1.676037e-02 1.213016e-02 1.316774e-02 8.975329e-03 9.262409e-03 5.699350e-03 5.347176e-03 2.345145e-03 2.201666e-03 1.527633e-03 
8.709388e-03 1.034013e-02 8.623460e-03 9.660774e-03 8.896640e-03 9.366881e-03 9.957489e-03 9.931893e-03 1.225268e-02 1.155149e-02 1.560176e-02 1.364884e-02 1.890451e-02 1.503356e-02 2.051587e-02 1.469905e-02 1.921090e-02 1.289812e-02 1.541066e-02 1.120064e-02 1.138307e-02 1.077428e-02 9.480338e-03 1.227223e-02 1.074632e-02 1.633121e-02 1.473388e-02 2.243375e-02 1.989013e-02 2.849396e-02 2.426916e-02 3.199896e-02 2.640357e-02 3.157481e-02 2.584219e-02 2.809065e-02 2.340418e-02 2.351786e-02 2.035512e-02 1.958508e-02 1.759421e-02 1.708794e-02 1.541019e-02 1.569129e-02 1.368755e-02 1.427409e-02 1.230897e-02 1.189884e-02 1.140997e-02 8.927394e-03 1.106760e-02 7.331548e-03 1.098359e-02 8.214786e-03 1.080333e-02 9.912729e-03 1.041764e-02 1.114303e-02 9.905501e-03 1.165163e-02 9.394671e-03 1.155477e-02 8.980880e-03 1.104989e-02 
4.275876e-03 7.093525e-03 8.982301e-03 1.139827e-02 1.369161e-02 1.598059e-02 1.819689e-02 2.018212e-02 2.205611e-02 2.312956e-02 2.470169e-02 2.398652e-02 2.582577e-02 2.276985e-02 2.575481e-02 2.108286e-02 2.485079e-02 2.038742e-02 2.266516e-02 1.946312e-02 2.018198e-02 1.818366e-02 1.981249e-02 1.871737e-02 2.169421e-02 2.080000e-02 2.264362e-02 2.158833e-02 1.966144e-02 1.957949e-02 1.254645e-02 1.603997e-02 8.082507e-03 1.442320e-02 1.381542e-02 1.601103e-02 1.938581e-02 1.837194e-02 2.206666e-02 2.018499e-02 2.272615e-02 2.160180e-02 2.271050e-02 2.293953e-02 2.319590e-02 2.407817e-02 2.471019e-02 2.442367e-02 2.632658e-02 2.336941e-02 2.621994e-02 2.091126e-02 2.385612e-02 1.760508e-02 1.984712e-02 1.400381e-02 1.504878e-02 1.041765e-02 1.006767e-02 6.993778e-03 5.181975e-03 4.122518e-03 4.829226e-04 3.912099e-03 