# vtk DataFile Version 2.0
Comment goes here
ASCII

DATASET STRUCTURED_POINTS
DIMENSIONS    64   64   1

ORIGIN    0.000   0.000   0.000
SPACING   0.0156250.015625   1.000

POINT_DATA   4096
SCALARS uMag double
LOOKUP_TABLE default

1.357782e-01 1.294270e-01 1.249823e-01 1.237597e-01 1.249823e-01 1.292209e-01 1.356702e-01 1.442746e-01 1.541533e-01 1.651725e-01 1.762019e-01 1.875999e-01 1.977243e-01 2.078396e-01 2.156610e-01 2.234583e-01 2.284438e-01 2.336288e-01 2.361790e-01 2.393657e-01 2.408602e-01 2.437412e-01 2.464510e-01 2.514414e-01 2.576838e-01 2.665373e-01 2.770506e-01 2.893463e-01 3.025261e-01 3.158999e-01 3.289946e-01 3.408475e-01 3.516539e-01 3.604207e-01 3.679894e-01 3.733124e-01 3.777680e-01 3.801227e-01 3.821920e-01 3.824030e-01 3.828685e-01 3.815636e-01 3.807163e-01 3.778946e-01 3.753176e-01 3.704143e-01 3.653428e-01 3.577616e-01 3.496732e-01 3.392578e-01 3.281799e-01 3.153003e-01 3.017591e-01 2.871466e-01 2.719730e-01 2.565137e-01 2.406495e-01 2.252260e-01 2.095923e-01 1.950232e-01 1.805064e-01 1.676099e-01 1.551739e-01 1.449263e-01 
1.455909e-01 1.399972e-01 1.361320e-01 1.348609e-01 1.356243e-01 1.388467e-01 1.438548e-01 1.507885e-01 1.587203e-01 1.679168e-01 1.770299e-01 1.868733e-01 1.955355e-01 2.046329e-01 2.117055e-01 2.191427e-01 2.241830e-01 2.296826e-01 2.330104e-01 2.370718e-01 2.397640e-01 2.436804e-01 2.473880e-01 2.528767e-01 2.591837e-01 2.674401e-01 2.768340e-01 2.875836e-01 2.989761e-01 3.105813e-01 3.220179e-01 3.325488e-01 3.423290e-01 3.504800e-01 3.577322e-01 3.630546e-01 3.676973e-01 3.703939e-01 3.728225e-01 3.733939e-01 3.740788e-01 3.729229e-01 3.720267e-01 3.691446e-01 3.663811e-01 3.614174e-01 3.562858e-01 3.488756e-01 3.410540e-01 3.311482e-01 3.207206e-01 3.086681e-01 2.961106e-01 2.825564e-01 2.686048e-01 2.543401e-01 2.398431e-01 2.256808e-01 2.114969e-01 1.982174e-01 1.851926e-01 1.735765e-01 1.626022e-01 1.535140e-01 
1.538416e-01 1.489336e-01 1.453492e-01 1.441008e-01 1.443852e-01 1.468435e-01 1.506726e-01 1.562268e-01 1.626157e-01 1.701679e-01 1.777918e-01 1.860932e-01 1.936739e-01 2.016340e-01 2.082495e-01 2.151528e-01 2.204149e-01 2.260431e-01 2.301591e-01 2.348645e-01 2.386115e-01 2.432980e-01 2.478505e-01 2.536849e-01 2.601357e-01 2.679090e-01 2.765861e-01 2.861047e-01 2.962540e-01 3.063798e-01 3.165926e-01 3.259109e-01 3.348692e-01 3.423305e-01 3.492561e-01 3.543997e-01 3.590863e-01 3.619354e-01 3.645477e-01 3.653653e-01 3.661524e-01 3.651599e-01 3.641912e-01 3.613716e-01 3.584441e-01 3.535708e-01 3.483640e-01 3.412296e-01 3.335712e-01 3.242109e-01 3.142418e-01 3.030009e-01 2.911747e-01 2.786416e-01 2.656299e-01 2.525233e-01 2.391022e-01 2.261719e-01 2.131366e-01 2.011141e-01 1.892511e-01 1.788578e-01 1.689652e-01 1.609450e-01 
1.616534e-01 1.570935e-01 1.537576e-01 1.523493e-01 1.522763e-01 1.540213e-01 1.569244e-01 1.613550e-01 1.664779e-01 1.727597e-01 1.790872e-01 1.862419e-01 1.927778e-01 1.999171e-01 2.059266e-01 2.124387e-01 2.175991e-01 2.232715e-01 2.277250e-01 2.328040e-01 2.371211e-01 2.422610e-01 2.472748e-01 2.532924e-01 2.597446e-01 2.671731e-01 2.752656e-01 2.839563e-01 2.931444e-01 3.022772e-01 3.115276e-01 3.200319e-01 3.283129e-01 3.353187e-01 3.419405e-01 3.469816e-01 3.516621e-01 3.546390e-01 3.573850e-01 3.584017e-01 3.593099e-01 3.584745e-01 3.575493e-01 3.548376e-01 3.519288e-01 3.472014e-01 3.421083e-01 3.352635e-01 3.279157e-01 3.190452e-01 3.096215e-01 2.990645e-01 2.879991e-01 2.762983e-01 2.642116e-01 2.520269e-01 2.396354e-01 2.276627e-01 2.157057e-01 2.046279e-01 1.938316e-01 1.843085e-01 1.753795e-01 1.680496e-01 
1.679464e-01 1.637374e-01 1.604736e-01 1.589869e-01 1.585412e-01 1.597383e-01 1.618681e-01 1.653715e-01 1.694951e-01 1.746625e-01 1.800031e-01 1.860828e-01 1.918668e-01 1.981706e-01 2.038093e-01 2.098548e-01 2.150650e-01 2.206671e-01 2.255156e-01 2.308215e-01 2.356934e-01 2.411356e-01 2.466014e-01 2.527168e-01 2.592737e-01 2.663981e-01 2.741621e-01 2.821657e-01 2.907278e-01 2.990086e-01 3.075915e-01 3.153404e-01 3.231242e-01 3.296354e-01 3.360119e-01 3.408486e-01 3.454959e-01 3.484878e-01 3.513052e-01 3.524452e-01 3.534207e-01 3.527302e-01 3.518181e-01 3.492567e-01 3.463385e-01 3.418178e-01 3.367744e-01 3.302622e-01 3.230993e-01 3.147285e-01 3.056612e-01 2.957698e-01 2.852274e-01 2.743256e-01 2.628966e-01 2.515978e-01 2.399540e-01 2.289051e-01 2.177357e-01 2.075686e-01 1.975395e-01 1.888486e-01 1.805810e-01 1.739080e-01 
1.738761e-01 1.697745e-01 1.665804e-01 1.648804e-01 1.641410e-01 1.647995e-01 1.663049e-01 1.690257e-01 1.723185e-01 1.766039e-01 1.810827e-01 1.863417e-01 1.914038e-01 1.970796e-01 2.022577e-01 2.079420e-01 2.129978e-01 2.185104e-01 2.234706e-01 2.288883e-01 2.340136e-01 2.396253e-01 2.453019e-01 2.514655e-01 2.580148e-01 2.649399e-01 2.724090e-01 2.799743e-01 2.880370e-01 2.957786e-01 3.038311e-01 3.111112e-01 3.184890e-01 3.247141e-01 3.308788e-01 3.356343e-01 3.402465e-01 3.433151e-01 3.462041e-01 3.475037e-01 3.485830e-01 3.480763e-01 3.472631e-01 3.448974e-01 3.420901e-01 3.378079e-01 3.329387e-01 3.267510e-01 3.198745e-01 3.119386e-01 3.032925e-01 2.939413e-01 2.839484e-01 2.736655e-01 2.628872e-01 2.522493e-01 2.413195e-01 2.309337e-01 2.204970e-01 2.109521e-01 2.016192e-01 1.934559e-01 1.857733e-01 1.794606e-01 
1.784061e-01 1.744459e-01 1.712061e-01 1.693724e-01 1.683278e-01 1.685706e-01 1.695459e-01 1.716255e-01 1.742627e-01 1.777919e-01 1.816252e-01 1.861469e-01 1.907052e-01 1.957844e-01 2.006905e-01 2.059986e-01 2.110407e-01 2.164125e-01 2.215724e-01 2.270263e-01 2.324575e-01 2.381599e-01 2.441051e-01 2.502688e-01 2.569219e-01 2.636545e-01 2.710124e-01 2.781907e-01 2.859806e-01 2.932361e-01 3.009731e-01 3.077997e-01 3.149321e-01 3.208355e-01 3.268818e-01 3.314832e-01 3.360974e-01 3.391595e-01 3.421222e-01 3.435142e-01 3.446831e-01 3.443245e-01 3.435852e-01 3.414086e-01 3.386661e-01 3.346293e-01 3.298495e-01 3.239897e-01 3.172642e-01 3.097539e-01 3.013434e-01 2.925113e-01 2.828424e-01 2.731511e-01 2.627729e-01 2.527681e-01 2.422901e-01 2.325426e-01 2.225749e-01 2.136319e-01 2.047386e-01 1.970896e-01 1.897556e-01 1.838059e-01 
1.826651e-01 1.786487e-01 1.753656e-01 1.732810e-01 1.719804e-01 1.717872e-01 1.723209e-01 1.738304e-01 1.759128e-01 1.788201e-01 1.820852e-01 1.860259e-01 1.901021e-01 1.947200e-01 1.993028e-01 2.043158e-01 2.092217e-01 2.144688e-01 2.196569e-01 2.251150e-01 2.306681e-01 2.364242e-01 2.424852e-01 2.486583e-01 2.553291e-01 2.619606e-01 2.691975e-01 2.761614e-01 2.837231e-01 2.907114e-01 2.981936e-01 3.047860e-01 3.117198e-01 3.174890e-01 3.234410e-01 3.280335e-01 3.326607e-01 3.358255e-01 3.388791e-01 3.404512e-01 3.417498e-01 3.416156e-01 3.410190e-01 3.390952e-01 3.365059e-01 3.327525e-01 3.281528e-01 3.226159e-01 3.161180e-01 3.089733e-01 3.008504e-01 2.924191e-01 2.830983e-01 2.738265e-01 2.638459e-01 2.542578e-01 2.442066e-01 2.348486e-01 2.253072e-01 2.166985e-01 2.081916e-01 2.007873e-01 1.937498e-01 1.879143e-01 
1.856441e-01 1.816188e-01 1.782095e-01 1.759495e-01 1.743822e-01 1.738532e-01 1.740058e-01 1.750567e-01 1.767020e-01 1.790928e-01 1.819418e-01 1.853848e-01 1.891403e-01 1.933499e-01 1.977594e-01 2.024987e-01 2.073942e-01 2.125105e-01 2.178254e-01 2.232622e-01 2.290188e-01 2.347960e-01 2.410588e-01 2.472176e-01 2.540196e-01 2.605456e-01 2.678124e-01 2.745721e-01 2.820820e-01 2.888097e-01 2.962134e-01 3.025557e-01 3.094431e-01 3.150319e-01 3.210043e-01 3.255176e-01 3.302339e-01 3.334213e-01 3.366086e-01 3.382860e-01 3.397293e-01 3.397602e-01 3.392928e-01 3.375794e-01 3.350950e-01 3.315946e-01 3.270830e-01 3.218439e-01 3.154334e-01 3.086304e-01 3.006108e-01 2.925569e-01 2.833664e-01 2.744927e-01 2.646726e-01 2.554840e-01 2.456167e-01 2.366369e-01 2.272854e-01 2.190072e-01 2.106676e-01 2.035151e-01 1.965846e-01 1.908871e-01 
1.884234e-01 1.842097e-01 1.806723e-01 1.781217e-01 1.763163e-01 1.754081e-01 1.752330e-01 1.758483e-01 1.771191e-01 1.790642e-01 1.815478e-01 1.845860e-01 1.880400e-01 1.919287e-01 1.961410e-01 2.006690e-01 2.054870e-01 2.105031e-01 2.158467e-01 2.212707e-01 2.271222e-01 2.329300e-01 2.392991e-01 2.454816e-01 2.523504e-01 2.588569e-01 2.661262e-01 2.728176e-01 2.802762e-01 2.869138e-01 2.942510e-01 3.005253e-01 3.073762e-01 3.129595e-01 3.189571e-01 3.235490e-01 3.283606e-01 3.317114e-01 3.350509e-01 3.369610e-01 3.385881e-01 3.388992e-01 3.386221e-01 3.372156e-01 3.349113e-01 3.317278e-01 3.273806e-01 3.224545e-01 3.161962e-01 3.096891e-01 3.018172e-01 2.940302e-01 2.849904e-01 2.763452e-01 2.666825e-01 2.576765e-01 2.479701e-01 2.391206e-01 2.299211e-01 2.217127e-01 2.134952e-01 2.063401e-01 1.994745e-01 1.936877e-01 
1.900229e-01 1.856739e-01 1.819428e-01 1.791732e-01 1.771181e-01 1.759179e-01 1.754550e-01 1.757305e-01 1.767088e-01 1.783029e-01 1.805307e-01 1.832476e-01 1.865217e-01 1.901554e-01 1.942900e-01 1.986520e-01 2.035010e-01 2.084423e-01 2.139103e-01 2.193305e-01 2.253659e-01 2.312029e-01 2.377723e-01 2.439737e-01 2.510219e-01 2.575043e-01 2.649131e-01 2.715291e-01 2.790936e-01 2.856228e-01 2.930578e-01 2.992259e-01 3.061961e-01 3.117122e-01 3.178703e-01 3.224597e-01 3.274741e-01 3.308961e-01 3.344641e-01 3.365139e-01 3.383670e-01 3.388722e-01 3.387882e-01 3.376140e-01 3.354468e-01 3.325184e-01 3.282417e-01 3.235794e-01 3.173288e-01 3.110808e-01 3.031691e-01 2.956239e-01 2.865181e-01 2.780868e-01 2.683515e-01 2.595231e-01 2.497488e-01 2.410331e-01 2.317706e-01 2.236442e-01 2.153578e-01 2.082227e-01 2.012639e-01 1.954240e-01 
1.914601e-01 1.867976e-01 1.828637e-01 1.797543e-01 1.774634e-01 1.759101e-01 1.751929e-01 1.751209e-01 1.758499e-01 1.771250e-01 1.791366e-01 1.815859e-01 1.847034e-01 1.881393e-01 1.921950e-01 1.964387e-01 2.012918e-01 2.061919e-01 2.117369e-01 2.171783e-01 2.233398e-01 2.292359e-01 2.359491e-01 2.422196e-01 2.493999e-01 2.559405e-01 2.634535e-01 2.701113e-01 2.777550e-01 2.843214e-01 2.918300e-01 2.980550e-01 3.051204e-01 3.107388e-01 3.170365e-01 3.217930e-01 3.270013e-01 3.306629e-01 3.344718e-01 3.368280e-01 3.389460e-01 3.398069e-01 3.399790e-01 3.391822e-01 3.372287e-01 3.346649e-01 3.305346e-01 3.261877e-01 3.200066e-01 3.139939e-01 3.060817e-01 2.986734e-01 2.895158e-01 2.811202e-01 2.713028e-01 2.624188e-01 2.525480e-01 2.437013e-01 2.343345e-01 2.260172e-01 2.176154e-01 2.102415e-01 2.031468e-01 1.970278e-01 
1.917989e-01 1.868777e-01 1.826845e-01 1.793027e-01 1.767629e-01 1.749360e-01 1.739916e-01 1.736599e-01 1.741998e-01 1.752461e-01 1.771246e-01 1.793925e-01 1.824477e-01 1.857624e-01 1.898348e-01 1.940233e-01 1.989709e-01 2.038787e-01 2.095851e-01 2.150825e-01 2.214534e-01 2.274308e-01 2.343790e-01 2.407301e-01 2.481515e-01 2.547510e-01 2.625005e-01 2.691871e-01 2.770646e-01 2.836365e-01 2.913880e-01 2.976147e-01 3.049472e-01 3.105888e-01 3.171883e-01 3.220126e-01 3.275564e-01 3.313446e-01 3.355061e-01 3.380500e-01 3.405056e-01 3.416046e-01 3.420574e-01 3.415280e-01 3.397557e-01 3.374611e-01 3.333831e-01 3.292772e-01 3.230135e-01 3.171865e-01 3.090767e-01 3.017801e-01 2.923470e-01 2.839822e-01 2.738521e-01 2.649223e-01 2.547336e-01 2.457758e-01 2.361038e-01 2.276230e-01 2.189335e-01 2.113554e-01 2.039868e-01 1.976321e-01 
1.919730e-01 1.866053e-01 1.821354e-01 1.783516e-01 1.755670e-01 1.733930e-01 1.722448e-01 1.716287e-01 1.720154e-01 1.728443e-01 1.746286e-01 1.767476e-01 1.797733e-01 1.830064e-01 1.871155e-01 1.912861e-01 1.963330e-01 2.012794e-01 2.071380e-01 2.127200e-01 2.192805e-01 2.253745e-01 2.325305e-01 2.390147e-01 2.466439e-01 2.533806e-01 2.613263e-01 2.681488e-01 2.762106e-01 2.829216e-01 2.908572e-01 2.972401e-01 3.047769e-01 3.106116e-01 3.174577e-01 3.225323e-01 3.283790e-01 3.324899e-01 3.370069e-01 3.399492e-01 3.427859e-01 3.443441e-01 3.451547e-01 3.451087e-01 3.436118e-01 3.417673e-01 3.378312e-01 3.340754e-01 3.277959e-01 3.221612e-01 3.138886e-01 3.065976e-01 2.968919e-01 2.883528e-01 2.778866e-01 2.686373e-01 2.580884e-01 2.487127e-01 2.386823e-01 2.297306e-01 2.206974e-01 2.126320e-01 2.049394e-01 1.981083e-01 
1.911225e-01 1.853611e-01 1.805612e-01 1.764373e-01 1.733925e-01 1.709448e-01 1.696124e-01 1.687955e-01 1.690773e-01 1.697791e-01 1.715369e-01 1.735983e-01 1.766711e-01 1.799095e-01 1.841320e-01 1.883628e-01 1.935809e-01 1.986334e-01 2.047116e-01 2.104337e-01 2.172526e-01 2.235056e-01 2.309494e-01 2.375946e-01 2.455335e-01 2.524170e-01 2.606907e-01 2.676360e-01 2.760450e-01 2.828547e-01 2.911628e-01 2.976316e-01 3.055747e-01 3.115037e-01 3.187972e-01 3.239999e-01 3.303344e-01 3.346286e-01 3.396569e-01 3.428468e-01 3.461776e-01 3.480386e-01 3.492624e-01 3.495459e-01 3.483081e-01 3.467762e-01 3.428875e-01 3.393762e-01 3.329153e-01 3.274101e-01 3.187582e-01 3.114517e-01 3.012331e-01 2.925304e-01 2.814886e-01 2.719498e-01 2.608197e-01 2.510650e-01 2.404831e-01 2.311025e-01 2.215646e-01 2.130555e-01 2.049121e-01 1.976508e-01 
1.900578e-01 1.836992e-01 1.785435e-01 1.739410e-01 1.706339e-01 1.678333e-01 1.663369e-01 1.652896e-01 1.655037e-01 1.660841e-01 1.678615e-01 1.698913e-01 1.730580e-01 1.763343e-01 1.807117e-01 1.850332e-01 1.904552e-01 1.956393e-01 2.019601e-01 2.078468e-01 2.149362e-01 2.213801e-01 2.291104e-01 2.359652e-01 2.441939e-01 2.512980e-01 2.598546e-01 2.670249e-01 2.757066e-01 2.827446e-01 2.913237e-01 2.980314e-01 3.062657e-01 3.124623e-01 3.200974e-01 3.256232e-01 3.323767e-01 3.370780e-01 3.426074e-01 3.463061e-01 3.501870e-01 3.526508e-01 3.543982e-01 3.553315e-01 3.544876e-01 3.535624e-01 3.498427e-01 3.467773e-01 3.402140e-01 3.348878e-01 3.258838e-01 3.184405e-01 3.076917e-01 2.985612e-01 2.868959e-01 2.767152e-01 2.649383e-01 2.544214e-01 2.432149e-01 2.330361e-01 2.229218e-01 2.136425e-01 2.049854e-01 1.970261e-01 
1.880553e-01 1.811433e-01 1.755763e-01 1.705469e-01 1.669585e-01 1.638706e-01 1.622262e-01 1.610294e-01 1.612203e-01 1.617725e-01 1.636313e-01 1.657281e-01 1.690554e-01 1.724671e-01 1.770607e-01 1.815644e-01 1.872421e-01 1.926411e-01 1.992484e-01 2.053734e-01 2.127784e-01 2.194749e-01 2.275514e-01 2.346612e-01 2.432695e-01 2.506158e-01 2.595876e-01 2.669729e-01 2.761074e-01 2.833258e-01 2.923980e-01 2.992577e-01 3.080316e-01 3.143741e-01 3.226060e-01 3.283062e-01 3.357216e-01 3.406609e-01 3.469065e-01 3.509274e-01 3.555286e-01 3.583918e-01 3.607653e-01 3.621360e-01 3.616969e-01 3.611801e-01 3.575358e-01 3.547664e-01 3.479134e-01 3.426892e-01 3.330847e-01 3.254968e-01 3.139487e-01 3.044286e-01 2.918831e-01 2.811195e-01 2.684692e-01 2.572524e-01 2.452305e-01 2.343101e-01 2.234631e-01 2.134622e-01 2.041682e-01 1.955538e-01 
1.857339e-01 1.780474e-01 1.720340e-01 1.664334e-01 1.625571e-01 1.591057e-01 1.573356e-01 1.559681e-01 1.561814e-01 1.567212e-01 1.587214e-01 1.609188e-01 1.644716e-01 1.680535e-01 1.729271e-01 1.776397e-01 1.836324e-01 1.892636e-01 1.962111e-01 2.025880e-01 2.103528e-01 2.173230e-01 2.257727e-01 2.331782e-01 2.421627e-01 2.498214e-01 2.591593e-01 2.668628e-01 2.763440e-01 2.838763e-01 2.932806e-01 3.004493e-01 3.095694e-01 3.162345e-01 3.248781e-01 3.309545e-01 3.389044e-01 3.443268e-01 3.512583e-01 3.559158e-01 3.613195e-01 3.649848e-01 3.681601e-01 3.704451e-01 3.706260e-01 3.709970e-01 3.676112e-01 3.654942e-01 3.584501e-01 3.534401e-01 3.432439e-01 3.353447e-01 3.229427e-01 3.126506e-01 2.991371e-01 2.872981e-01 2.736746e-01 2.612498e-01 2.483125e-01 2.361878e-01 2.245157e-01 2.134055e-01 2.033956e-01 1.938226e-01 
1.826051e-01 1.741685e-01 1.676418e-01 1.615020e-01 1.573109e-01 1.535483e-01 1.516672e-01 1.502069e-01 1.504913e-01 1.511175e-01 1.533250e-01 1.557316e-01 1.595742e-01 1.634347e-01 1.686367e-01 1.736613e-01 1.799962e-01 1.859563e-01 1.932546e-01 1.999745e-01 2.081071e-01 2.154335e-01 2.242826e-01 2.320500e-01 2.414792e-01 2.494873e-01 2.593231e-01 2.673393e-01 2.773730e-01 2.851614e-01 2.951713e-01 3.025394e-01 3.123224e-01 3.191585e-01 3.285435e-01 3.348172e-01 3.436207e-01 3.493294e-01 3.572423e-01 3.623176e-01 3.687788e-01 3.729912e-01 3.771496e-01 3.800558e-01 3.809184e-01 3.818830e-01 3.786684e-01 3.769827e-01 3.695281e-01 3.646425e-01 3.535576e-01 3.453724e-01 3.318048e-01 3.208270e-01 3.060627e-01 2.932499e-01 2.784154e-01 2.648736e-01 2.508264e-01 2.375677e-01 2.249114e-01 2.127401e-01 2.018848e-01 1.913842e-01 
1.789903e-01 1.695676e-01 1.624800e-01 1.556567e-01 1.511395e-01 1.470032e-01 1.450398e-01 1.434903e-01 1.439079e-01 1.446652e-01 1.471609e-01 1.498337e-01 1.540526e-01 1.582379e-01 1.638540e-01 1.692147e-01 1.759769e-01 1.822692e-01 1.900036e-01 1.970600e-01 2.056422e-01 2.133265e-01 2.226399e-01 2.307980e-01 2.406959e-01 2.491235e-01 2.594098e-01 2.678532e-01 2.782942e-01 2.864891e-01 2.968566e-01 3.045935e-01 3.147219e-01 3.219067e-01 3.317169e-01 3.383821e-01 3.478121e-01 3.540525e-01 3.628812e-01 3.687304e-01 3.763783e-01 3.816666e-01 3.871057e-01 3.913478e-01 3.932612e-01 3.956170e-01 3.928705e-01 3.922529e-01 3.845087e-01 3.799552e-01 3.679425e-01 3.591901e-01 3.443317e-01 3.320551e-01 3.158903e-01 3.013696e-01 2.851793e-01 2.698206e-01 2.545327e-01 2.395501e-01 2.257951e-01 2.121021e-01 2.003043e-01 1.885358e-01 
1.747902e-01 1.643700e-01 1.566262e-01 1.491146e-01 1.442250e-01 1.397432e-01 1.377107e-01 1.361459e-01 1.367595e-01 1.377574e-01 1.406244e-01 1.436860e-01 1.483514e-01 1.529803e-01 1.590461e-01 1.648531e-01 1.720374e-01 1.787680e-01 1.869012e-01 1.944012e-01 2.033848e-01 2.115336e-01 2.212839e-01 2.299263e-01 2.403240e-01 2.492294e-01 2.600919e-01 2.689612e-01 2.800515e-01 2.885761e-01 2.996521e-01 3.076091e-01 3.185002e-01 3.258357e-01 3.364996e-01 3.433410e-01 3.538090e-01 3.603685e-01 3.705115e-01 3.769082e-01 3.861275e-01 3.921978e-01 3.992415e-01 4.044160e-01 4.075485e-01 4.108332e-01 4.084933e-01 4.085902e-01 4.002958e-01 3.959800e-01 3.826742e-01 3.734571e-01 3.569355e-01 3.435302e-01 3.256430e-01 3.095757e-01 2.917691e-01 2.747182e-01 2.579790e-01 2.413547e-01 2.263249e-01 2.111510e-01 1.982596e-01 1.852299e-01 
1.698778e-01 1.582181e-01 1.497495e-01 1.414105e-01 1.361270e-01 1.312611e-01 1.291992e-01 1.276692e-01 1.285691e-01 1.299074e-01 1.332570e-01 1.368075e-01 1.420286e-01 1.471664e-01 1.537854e-01 1.600570e-01 1.677697e-01 1.749163e-01 1.835667e-01 1.914684e-01 2.009830e-01 2.095650e-01 2.198750e-01 2.290134e-01 2.399872e-01 2.494486e-01 2.608597e-01 2.703027e-01 2.818532e-01 2.909024e-01 3.023100e-01 3.106883e-01 3.218217e-01 3.294836e-01 3.404622e-01 3.476364e-01 3.587428e-01 3.658158e-01 3.771423e-01 3.844368e-01 3.954337e-01 4.029464e-01 4.121137e-01 4.192942e-01 4.243132e-01 4.298984e-01 4.284780e-01 4.304763e-01 4.217557e-01 4.180342e-01 4.032729e-01 3.930263e-01 3.745857e-01 3.589822e-01 3.391346e-01 3.203783e-01 3.007600e-01 2.810410e-01 2.626907e-01 2.436838e-01 2.272452e-01 2.100630e-01 1.959628e-01 1.813083e-01 
1.647688e-01 1.518011e-01 1.424511e-01 1.332137e-01 1.274438e-01 1.221775e-01 1.200925e-01 1.186685e-01 1.199475e-01 1.217592e-01 1.257104e-01 1.298934e-01 1.357552e-01 1.415270e-01 1.487181e-01 1.555617e-01 1.637509e-01 1.714201e-01 1.804797e-01 1.889050e-01 1.988181e-01 2.079723e-01 2.187302e-01 2.285000e-01 2.400161e-01 2.501244e-01 2.621904e-01 2.722076e-01 2.845104e-01 2.939658e-01 3.061786e-01 3.147507e-01 3.266991e-01 3.344025e-01 3.462502e-01 3.534878e-01 3.657326e-01 3.731210e-01 3.861403e-01 3.941750e-01 4.075328e-01 4.162250e-01 4.281189e-01 4.367658e-01 4.440851e-01 4.511825e-01 4.507014e-01 4.539553e-01 4.445108e-01 4.413227e-01 4.246553e-01 4.136577e-01 3.928346e-01 3.753396e-01 3.531341e-01 3.319234e-01 3.101714e-01 2.879436e-01 2.677189e-01 2.464226e-01 2.283508e-01 2.091913e-01 1.936812e-01 1.773750e-01 
1.587000e-01 1.441947e-01 1.338526e-01 1.235787e-01 1.172692e-01 1.115901e-01 1.095359e-01 1.083461e-01 1.101468e-01 1.126284e-01 1.173364e-01 1.223190e-01 1.289464e-01 1.354390e-01 1.433070e-01 1.507219e-01 1.595030e-01 1.676236e-01 1.772440e-01 1.860871e-01 1.965937e-01 2.062309e-01 2.176535e-01 2.280387e-01 2.402750e-01 2.511315e-01 2.638901e-01 2.747069e-01 2.875390e-01 2.977006e-01 3.101526e-01 3.191968e-01 3.311003e-01 3.390181e-01 3.508103e-01 3.581773e-01 3.708637e-01 3.786062e-01 3.930662e-01 4.020621e-01 4.181018e-01 4.287065e-01 4.442385e-01 4.559387e-01 4.668201e-01 4.778782e-01 4.792881e-01 4.861777e-01 4.760273e-01 4.739505e-01 4.549069e-01 4.418701e-01 4.181803e-01 3.968125e-01 3.719060e-01 3.464312e-01 3.223091e-01 2.962374e-01 2.739604e-01 2.494961e-01 2.296451e-01 2.079603e-01 1.909097e-01 1.726068e-01 
1.531034e-01 1.369207e-01 1.253138e-01 1.138186e-01 1.067685e-01 1.005729e-01 9.853194e-02 9.765597e-02 1.001334e-01 1.034740e-01 1.091214e-01 1.150767e-01 1.225719e-01 1.299019e-01 1.384352e-01 1.465034e-01 1.557537e-01 1.644159e-01 1.743867e-01 1.837828e-01 1.946273e-01 2.049372e-01 2.167848e-01 2.279941e-01 2.408084e-01 2.525631e-01 2.660722e-01 2.776875e-01 2.914077e-01 3.020653e-01 3.154374e-01 3.245586e-01 3.372580e-01 3.449231e-01 3.573670e-01 3.644830e-01 3.781279e-01 3.860923e-01 4.025538e-01 4.126143e-01 4.322095e-01 4.447355e-01 4.650869e-01 4.792106e-01 4.946813e-01 5.082226e-01 5.117732e-01 5.208751e-01 5.097574e-01 5.089194e-01 4.869764e-01 4.725827e-01 4.453738e-01 4.206302e-01 3.924085e-01 3.629686e-01 3.359587e-01 3.062332e-01 2.814859e-01 2.539676e-01 2.319982e-01 2.078251e-01 1.889409e-01 1.685909e-01 
1.464028e-01 1.283652e-01 1.152998e-01 1.024128e-01 9.446850e-02 8.773204e-02 8.577190e-02 8.547628e-02 8.888529e-02 9.345325e-02 1.002513e-01 1.074307e-01 1.158985e-01 1.241567e-01 1.334193e-01 1.420901e-01 1.519076e-01 1.609496e-01 1.714528e-01 1.811827e-01 1.926521e-01 2.034402e-01 2.160840e-01 2.280483e-01 2.418105e-01 2.546096e-01 2.690707e-01 2.818752e-01 2.962781e-01 3.079721e-01 3.214302e-01 3.310912e-01 3.431374e-01 3.507203e-01 3.622094e-01 3.689637e-01 3.823736e-01 3.902520e-01 4.082556e-01 4.192147e-01 4.428335e-01 4.578649e-01 4.845993e-01 5.033485e-01 5.258834e-01 5.464024e-01 5.540411e-01 5.706440e-01 5.580092e-01 5.592354e-01 5.331904e-01 5.142229e-01 4.826769e-01 4.507557e-01 4.188130e-01 3.825829e-01 3.524433e-01 3.173523e-01 2.899502e-01 2.584646e-01 2.342247e-01 2.071144e-01 1.862577e-01 1.636277e-01 
1.412796e-01 1.212140e-01 1.062500e-01 9.160943e-02 8.231756e-02 7.473071e-02 7.275892e-02 7.318711e-02 7.783195e-02 8.394780e-02 9.216402e-02 1.007578e-01 1.102894e-01 1.195406e-01 1.294548e-01 1.387422e-01 1.488952e-01 1.583621e-01 1.690415e-01 1.792546e-01 1.909223e-01 2.024702e-01 2.154880e-01 2.285614e-01 2.429555e-01 2.570740e-01 2.724354e-01 2.864295e-01 3.019467e-01 3.142706e-01 3.288709e-01 3.383134e-01 3.510940e-01 3.577378e-01 3.691664e-01 3.748965e-01 3.883427e-01 3.961131e-01 4.159941e-01 4.286344e-01 4.575051e-01 4.760271e-01 5.115580e-01 5.346271e-01 5.669138e-01 5.914250e-01 6.040352e-01 6.242346e-01 6.102354e-01 6.144952e-01 5.838839e-01 5.619506e-01 5.247701e-01 4.863198e-01 4.492965e-01 4.065714e-01 3.722000e-01 3.319643e-01 3.011068e-01 2.658243e-01 2.387507e-01 2.087975e-01 1.855476e-01 1.606242e-01 
1.352933e-01 1.131899e-01 9.604176e-02 7.938724e-02 6.828544e-02 5.959767e-02 5.766124e-02 5.941110e-02 6.584246e-02 7.416653e-02 8.401141e-02 9.429920e-02 1.048566e-01 1.151301e-01 1.256317e-01 1.353813e-01 1.459078e-01 1.554838e-01 1.665478e-01 1.768283e-01 1.891123e-01 2.010313e-01 2.150421e-01 2.290380e-01 2.447795e-01 2.604229e-01 2.772472e-01 2.931480e-01 3.097509e-01 3.237933e-01 3.383556e-01 3.484958e-01 3.594753e-01 3.653229e-01 3.738263e-01 3.781177e-01 3.896373e-01 3.963198e-01 4.173414e-01 4.306919e-01 4.654308e-01 4.873975e-01 5.341877e-01 5.641042e-01 6.110569e-01 6.476757e-01 6.697910e-01 7.069914e-01 6.886303e-01 6.965282e-01 6.586026e-01 6.251099e-01 5.812689e-01 5.289818e-01 4.866176e-01 4.332635e-01 3.944440e-01 3.471632e-01 3.126299e-01 2.728516e-01 2.427761e-01 2.098342e-01 1.840710e-01 1.568967e-01 
1.325301e-01 1.083758e-01 8.859135e-02 6.947968e-02 5.560444e-02 4.483957e-02 4.255470e-02 4.616487e-02 5.509288e-02 6.612383e-02 7.782316e-02 8.987407e-02 1.014308e-01 1.126518e-01 1.235400e-01 1.336359e-01 1.441429e-01 1.537824e-01 1.646709e-01 1.751850e-01 1.874349e-01 2.001834e-01 2.145330e-01 2.301115e-01 2.466335e-01 2.643703e-01 2.823711e-01 3.002265e-01 3.183519e-01 3.332972e-01 3.495642e-01 3.588463e-01 3.707544e-01 3.741705e-01 3.809256e-01 3.823722e-01 3.912377e-01 3.968023e-01 4.182080e-01 4.344908e-01 4.764754e-01 5.056919e-01 5.686273e-01 6.073860e-01 6.764420e-01 7.192287e-01 7.536256e-01 7.946708e-01 7.742516e-01 7.904398e-01 7.452209e-01 7.039118e-01 6.491919e-01 5.834353e-01 5.318885e-01 4.680712e-01 4.222441e-01 3.682144e-01 3.284809e-01 2.844880e-01 2.505396e-01 2.148160e-01 1.860365e-01 1.567388e-01 
1.298904e-01 1.041281e-01 8.171661e-02 6.017889e-02 4.263482e-02 2.820062e-02 2.511634e-02 3.281109e-02 4.538843e-02 5.975736e-02 7.302147e-02 8.680837e-02 9.890871e-02 1.109229e-01 1.218745e-01 1.320038e-01 1.424205e-01 1.515731e-01 1.625193e-01 1.725264e-01 1.853462e-01 1.981833e-01 2.138763e-01 2.305742e-01 2.491742e-01 2.692064e-01 2.896622e-01 3.107666e-01 3.309786e-01 3.491887e-01 3.656853e-01 3.762436e-01 3.843425e-01 3.852273e-01 3.848630e-01 3.826595e-01 3.858949e-01 3.881107e-01 4.090568e-01 4.261421e-01 4.761645e-01 5.116887e-01 5.936893e-01 6.427586e-01 7.429618e-01 8.041074e-01 8.626338e-01 9.471831e-01 9.114280e-01 9.327439e-01 8.753065e-01 8.022151e-01 7.369743e-01 6.445378e-01 5.841620e-01 5.047231e-01 4.515150e-01 3.892198e-01 3.438672e-01 2.955441e-01 2.575136e-01 2.193671e-01 1.875550e-01 1.566150e-01 
1.322611e-01 1.052794e-01 8.058430e-02 5.726192e-02 3.617381e-02 1.604777e-02 8.508864e-03 2.435097e-02 4.053425e-02 5.759385e-02 7.197773e-02 8.709918e-02 9.951194e-02 1.120484e-01 1.227218e-01 1.325819e-01 1.422880e-01 1.507336e-01 1.608805e-01 1.705455e-01 1.830049e-01 1.967222e-01 2.128754e-01 2.320002e-01 2.518331e-01 2.754435e-01 2.976227e-01 3.222943e-01 3.446763e-01 3.644973e-01 3.840493e-01 3.924542e-01 4.033314e-01 3.988434e-01 3.931865e-01 3.840349e-01 3.779712e-01 3.759545e-01 3.923523e-01 4.148868e-01 4.732243e-01 5.257360e-01 6.350701e-01 7.062248e-01 8.577326e-01 9.290389e-01 1.021145e+00 1.097762e+00 1.059029e+00 1.105789e+00 1.035718e+00 9.407095e-01 8.477679e-01 7.279689e-01 6.483527e-01 5.536235e-01 4.879984e-01 4.180080e-01 3.647632e-01 3.124795e-01 2.693776e-01 2.290315e-01 1.938284e-01 1.614764e-01 
1.362782e-01 1.090417e-01 8.318356e-02 5.985658e-02 3.838020e-02 1.983180e-02 1.384778e-02 2.773936e-02 4.301609e-02 6.052984e-02 7.438853e-02 9.008355e-02 1.017188e-01 1.143939e-01 1.240772e-01 1.331987e-01 1.419824e-01 1.488474e-01 1.584531e-01 1.665215e-01 1.794907e-01 1.927550e-01 2.109741e-01 2.314388e-01 2.547104e-01 2.817035e-01 3.081260e-01 3.383787e-01 3.650320e-01 3.917838e-01 4.134146e-01 4.256165e-01 4.294413e-01 4.180776e-01 3.962217e-01 3.798210e-01 3.607998e-01 3.495428e-01 3.613970e-01 3.868419e-01 4.553918e-01 5.263527e-01 6.622219e-01 7.542082e-01 9.661604e-01 1.047578e+00 1.202506e+00 1.410113e+00 1.310701e+00 1.353430e+00 1.265688e+00 1.083601e+00 9.775672e-01 8.136366e-01 7.170576e-01 6.033526e-01 5.240016e-01 4.462217e-01 3.842010e-01 3.287196e-01 2.803702e-01 2.386829e-01 2.003438e-01 1.674112e-01 
1.458217e-01 1.186145e-01 9.263129e-02 7.037625e-02 5.105078e-02 3.702646e-02 3.304020e-02 4.055124e-02 5.243227e-02 6.845165e-02 8.135806e-02 9.709118e-02 1.079308e-01 1.204764e-01 1.288272e-01 1.366798e-01 1.435855e-01 1.482525e-01 1.559593e-01 1.624531e-01 1.746447e-01 1.888278e-01 2.081629e-01 2.325707e-01 2.583670e-01 2.916992e-01 3.210067e-01 3.582910e-01 3.877371e-01 4.181788e-01 4.451818e-01 4.524536e-01 4.684248e-01 4.474736e-01 4.129205e-01 3.811130e-01 3.382634e-01 3.125349e-01 3.074782e-01 3.433813e-01 4.180908e-01 5.294939e-01 6.946158e-01 8.465529e-01 1.157914e+00 1.267528e+00 1.505909e+00 1.635978e+00 1.533360e+00 1.657727e+00 1.505539e+00 1.286301e+00 1.114380e+00 9.172129e-01 7.897510e-01 6.626749e-01 5.650894e-01 4.810569e-01 4.089159e-01 3.503493e-01 2.964600e-01 2.532534e-01 2.119361e-01 1.783697e-01 
1.579243e-01 1.315145e-01 1.064740e-01 8.615928e-02 6.982230e-02 5.891671e-02 5.600451e-02 6.035126e-02 6.884133e-02 8.225066e-02 9.274146e-02 1.076418e-01 1.160674e-01 1.280298e-01 1.337393e-01 1.398052e-01 1.445155e-01 1.456718e-01 1.517324e-01 1.545872e-01 1.672709e-01 1.802536e-01 2.033883e-01 2.294426e-01 2.613153e-01 2.989106e-01 3.352732e-01 3.809303e-01 4.183301e-01 4.637729e-01 4.998784e-01 5.222802e-01 5.264245e-01 4.876727e-01 4.166898e-01 3.785184e-01 3.124828e-01 2.575518e-01 2.366820e-01 2.847526e-01 3.759633e-01 5.405252e-01 7.148708e-01 9.240293e-01 1.296009e+00 1.335162e+00 1.678511e+00 2.226249e+00 1.910242e+00 1.937612e+00 1.639428e+00 1.265136e+00 1.179056e+00 9.860254e-01 8.458357e-01 7.165154e-01 5.996437e-01 5.131648e-01 4.303444e-01 3.706463e-01 3.115953e-01 2.680455e-01 2.244352e-01 1.910579e-01 
1.738587e-01 1.479160e-01 1.242059e-01 1.051256e-01 9.090391e-02 8.083349e-02 7.821700e-02 8.028607e-02 8.704915e-02 9.825786e-02 1.075090e-01 1.218384e-01 1.288752e-01 1.404504e-01 1.435364e-01 1.469410e-01 1.479577e-01 1.439318e-01 1.460168e-01 1.444841e-01 1.558632e-01 1.699662e-01 1.963959e-01 2.289451e-01 2.665125e-01 3.146789e-01 3.564049e-01 4.158013e-01 4.552044e-01 5.107586e-01 5.508114e-01 5.596864e-01 6.177204e-01 5.734932e-01 4.691088e-01 3.993752e-01 2.931273e-01 1.904805e-01 1.183709e-01 1.966199e-01 3.029095e-01 5.214751e-01 6.515432e-01 9.524158e-01 1.423885e+00 1.724425e+00 1.977625e+00 2.106185e+00 1.917127e+00 2.192404e+00 1.755205e+00 1.201627e+00 9.822023e-01 9.170556e-01 8.407404e-01 7.482879e-01 6.296875e-01 5.441898e-01 4.551860e-01 3.931515e-01 3.305813e-01 2.856151e-01 2.406424e-01 2.068754e-01 