# vtk DataFile Version 2.0
Comment goes here
ASCII

DATASET STRUCTURED_POINTS
DIMENSIONS    64   64   1

ORIGIN    0.000   0.000   0.000
SPACING   0.0156250.015625   1.000

POINT_DATA   4096
SCALARS uMag double
LOOKUP_TABLE default

9.818922e-02 8.772848e-02 7.839309e-02 7.044914e-02 6.436958e-02 6.040462e-02 5.895295e-02 5.973749e-02 6.267233e-02 6.663720e-02 7.188436e-02 7.661301e-02 8.248441e-02 8.679779e-02 9.309037e-02 9.778880e-02 1.054916e-01 1.126253e-01 1.213182e-01 1.312156e-01 1.397789e-01 1.513744e-01 1.605380e-01 1.737150e-01 1.848647e-01 1.997991e-01 2.131534e-01 2.287804e-01 2.428689e-01 2.570254e-01 2.697529e-01 2.805163e-01 2.904294e-01 2.970659e-01 3.038005e-01 3.067693e-01 3.108320e-01 3.113407e-01 3.137109e-01 3.131926e-01 3.147755e-01 3.141915e-01 3.151284e-01 3.143486e-01 3.137704e-01 3.117237e-01 3.084093e-01 3.039716e-01 2.972594e-01 2.899458e-01 2.800124e-01 2.700119e-01 2.575816e-01 2.455017e-01 2.315118e-01 2.181502e-01 2.035208e-01 1.896634e-01 1.751426e-01 1.614309e-01 1.475551e-01 1.344734e-01 1.216342e-01 1.095976e-01 
1.016564e-01 9.250138e-02 8.428276e-02 7.753233e-02 7.230102e-02 6.891324e-02 6.746481e-02 6.777527e-02 6.982533e-02 7.278650e-02 7.693929e-02 8.092727e-02 8.594420e-02 9.006427e-02 9.571357e-02 1.003841e-01 1.072195e-01 1.137438e-01 1.215845e-01 1.304105e-01 1.387197e-01 1.494211e-01 1.585166e-01 1.708045e-01 1.814338e-01 1.950612e-01 2.072759e-01 2.212717e-01 2.340035e-01 2.467373e-01 2.584321e-01 2.684474e-01 2.779383e-01 2.846069e-01 2.914917e-01 2.950617e-01 2.995975e-01 3.008912e-01 3.036963e-01 3.037060e-01 3.053475e-01 3.047370e-01 3.052738e-01 3.039837e-01 3.028285e-01 3.001777e-01 2.965197e-01 2.917698e-01 2.851714e-01 2.780034e-01 2.686256e-01 2.592093e-01 2.476504e-01 2.364882e-01 2.235425e-01 2.112983e-01 1.977662e-01 1.851109e-01 1.716728e-01 1.591842e-01 1.463640e-01 1.345157e-01 1.227342e-01 1.119643e-01 
1.054291e-01 9.725358e-02 8.993638e-02 8.400088e-02 7.933746e-02 7.626257e-02 7.472350e-02 7.464165e-02 7.600836e-02 7.822241e-02 8.161245e-02 8.508333e-02 8.964823e-02 9.380957e-02 9.924817e-02 1.043585e-01 1.107792e-01 1.175134e-01 1.247332e-01 1.332138e-01 1.409357e-01 1.507836e-01 1.592604e-01 1.702689e-01 1.799695e-01 1.919322e-01 2.028311e-01 2.150299e-01 2.263386e-01 2.375811e-01 2.481415e-01 2.573091e-01 2.661831e-01 2.727088e-01 2.794813e-01 2.834371e-01 2.881805e-01 2.900857e-01 2.931496e-01 2.936641e-01 2.953740e-01 2.949377e-01 2.952932e-01 2.938670e-01 2.924638e-01 2.895992e-01 2.859020e-01 2.811086e-01 2.748416e-01 2.679182e-01 2.592337e-01 2.503437e-01 2.397346e-01 2.293118e-01 2.174452e-01 2.060667e-01 1.936385e-01 1.819042e-01 1.695376e-01 1.579900e-01 1.461995e-01 1.353098e-01 1.245336e-01 1.147478e-01 
1.090164e-01 1.017521e-01 9.515784e-02 8.992951e-02 8.570275e-02 8.291659e-02 8.133180e-02 8.102329e-02 8.187924e-02 8.355852e-02 8.623040e-02 8.918606e-02 9.305925e-02 9.686743e-02 1.016872e-01 1.064627e-01 1.122608e-01 1.184332e-01 1.251183e-01 1.328509e-01 1.402742e-01 1.493855e-01 1.576402e-01 1.678828e-01 1.771632e-01 1.881941e-01 1.983809e-01 2.095339e-01 2.200064e-01 2.303329e-01 2.401987e-01 2.488141e-01 2.573031e-01 2.637102e-01 2.704112e-01 2.745815e-01 2.794460e-01 2.816956e-01 2.848945e-01 2.856604e-01 2.873665e-01 2.869492e-01 2.871323e-01 2.855212e-01 2.839011e-01 2.808203e-01 2.770477e-01 2.721962e-01 2.661142e-01 2.593938e-01 2.511654e-01 2.427487e-01 2.328090e-01 2.230819e-01 2.120184e-01 2.014865e-01 1.899228e-01 1.791192e-01 1.676311e-01 1.570529e-01 1.461350e-01 1.362286e-01 1.263140e-01 1.175035e-01 
1.126415e-01 1.060384e-01 1.000297e-01 9.528389e-02 9.137683e-02 8.876090e-02 8.712880e-02 8.664278e-02 8.713978e-02 8.845219e-02 9.066005e-02 9.330770e-02 9.678601e-02 1.004858e-01 1.049783e-01 1.097667e-01 1.151758e-01 1.212407e-01 1.274504e-01 1.348049e-01 1.417182e-01 1.501738e-01 1.578572e-01 1.671962e-01 1.757495e-01 1.856797e-01 1.949659e-01 2.049667e-01 2.144938e-01 2.238399e-01 2.329089e-01 2.408986e-01 2.488706e-01 2.550586e-01 2.615360e-01 2.658142e-01 2.706647e-01 2.731901e-01 2.764532e-01 2.774885e-01 2.792244e-01 2.789547e-01 2.791062e-01 2.775200e-01 2.758848e-01 2.728046e-01 2.691561e-01 2.643986e-01 2.586601e-01 2.521961e-01 2.445337e-01 2.365440e-01 2.273410e-01 2.181816e-01 2.079541e-01 1.980851e-01 1.873923e-01 1.773048e-01 1.666797e-01 1.568424e-01 1.467594e-01 1.376009e-01 1.284808e-01 1.204021e-01 
1.158280e-01 1.098368e-01 1.042840e-01 9.997196e-02 9.630327e-02 9.385396e-02 9.217196e-02 9.156579e-02 9.174506e-02 9.274267e-02 9.447671e-02 9.675294e-02 9.971955e-02 1.030627e-01 1.070632e-01 1.114724e-01 1.164240e-01 1.220149e-01 1.278430e-01 1.346414e-01 1.412784e-01 1.491558e-01 1.565937e-01 1.653278e-01 1.735493e-01 1.828153e-01 1.916379e-01 2.009498e-01 2.099502e-01 2.186947e-01 2.272990e-01 2.348883e-01 2.425513e-01 2.485831e-01 2.549249e-01 2.592474e-01 2.640845e-01 2.667525e-01 2.700399e-01 2.712029e-01 2.729293e-01 2.727019e-01 2.727963e-01 2.711759e-01 2.694912e-01 2.663777e-01 2.627727e-01 2.580759e-01 2.525350e-01 2.462851e-01 2.389862e-01 2.313770e-01 2.226772e-01 2.140439e-01 2.044161e-01 1.951810e-01 1.851408e-01 1.757544e-01 1.658012e-01 1.566978e-01 1.472825e-01 1.388605e-01 1.303827e-01 1.230070e-01 
1.189483e-01 1.133873e-01 1.082087e-01 1.041878e-01 1.007078e-01 9.835950e-02 9.665007e-02 9.595673e-02 9.592787e-02 9.672644e-02 9.816199e-02 1.002344e-01 1.028918e-01 1.060864e-01 1.097822e-01 1.140658e-01 1.186834e-01 1.240766e-01 1.295254e-01 1.359836e-01 1.422005e-01 1.495815e-01 1.565452e-01 1.646431e-01 1.723081e-01 1.808400e-01 1.890289e-01 1.975937e-01 2.059483e-01 2.140489e-01 2.220918e-01 2.292385e-01 2.364988e-01 2.423257e-01 2.484428e-01 2.527647e-01 2.575216e-01 2.603125e-01 2.636024e-01 2.649203e-01 2.666774e-01 2.665740e-01 2.667119e-01 2.651761e-01 2.635787e-01 2.605508e-01 2.571299e-01 2.525750e-01 2.473519e-01 2.413376e-01 2.344923e-01 2.272216e-01 2.190840e-01 2.108790e-01 2.018814e-01 1.931402e-01 1.837583e-01 1.749053e-01 1.656069e-01 1.570532e-01 1.482665e-01 1.403884e-01 1.324917e-01 1.256252e-01 
1.215337e-01 1.163677e-01 1.114625e-01 1.077050e-01 1.043487e-01 1.020940e-01 1.003322e-01 9.956099e-02 9.931892e-02 9.991176e-02 1.010277e-01 1.028287e-01 1.051236e-01 1.080198e-01 1.113558e-01 1.153127e-01 1.196006e-01 1.246220e-01 1.297926e-01 1.358396e-01 1.418316e-01 1.487818e-01 1.555360e-01 1.631878e-01 1.706070e-01 1.786760e-01 1.865614e-01 1.946705e-01 2.026931e-01 2.103993e-01 2.181413e-01 2.250109e-01 2.320527e-01 2.377446e-01 2.437425e-01 2.480532e-01 2.527714e-01 2.556245e-01 2.589172e-01 2.603128e-01 2.620797e-01 2.620318e-01 2.621777e-01 2.606757e-01 2.591074e-01 2.561259e-01 2.527932e-01 2.483426e-01 2.432971e-01 2.374775e-01 2.309073e-01 2.239320e-01 2.161551e-01 2.083374e-01 1.997634e-01 1.914810e-01 1.825600e-01 1.742119e-01 1.653884e-01 1.573598e-01 1.490412e-01 1.416809e-01 1.342223e-01 1.278335e-01 
1.240212e-01 1.191136e-01 1.144285e-01 1.108337e-01 1.075758e-01 1.053697e-01 1.035769e-01 1.027487e-01 1.023678e-01 1.028364e-01 1.037482e-01 1.054054e-01 1.074693e-01 1.102285e-01 1.133206e-01 1.171344e-01 1.211584e-01 1.259916e-01 1.308703e-01 1.366514e-01 1.423196e-01 1.489172e-01 1.553091e-01 1.625325e-01 1.695445e-01 1.771382e-01 1.845818e-01 1.922178e-01 1.998005e-01 2.070980e-01 2.144534e-01 2.210316e-01 2.277835e-01 2.333246e-01 2.391469e-01 2.434342e-01 2.480803e-01 2.509972e-01 2.542936e-01 2.557921e-01 2.576106e-01 2.576692e-01 2.579033e-01 2.565020e-01 2.550670e-01 2.521953e-01 2.490602e-01 2.447531e-01 2.399830e-01 2.343595e-01 2.281411e-01 2.214205e-01 2.140563e-01 2.065461e-01 1.984225e-01 1.904868e-01 1.820298e-01 1.740513e-01 1.656841e-01 1.580304e-01 1.501418e-01 1.431426e-01 1.360690e-01 1.300044e-01 
1.259467e-01 1.212691e-01 1.167211e-01 1.132673e-01 1.100515e-01 1.078809e-01 1.060257e-01 1.051303e-01 1.045932e-01 1.049141e-01 1.056051e-01 1.070647e-01 1.088792e-01 1.114131e-01 1.142580e-01 1.178262e-01 1.216267e-01 1.261934e-01 1.308837e-01 1.363811e-01 1.418928e-01 1.481972e-01 1.544441e-01 1.613692e-01 1.682229e-01 1.755178e-01 1.827793e-01 1.901315e-01 1.975213e-01 2.045773e-01 2.117584e-01 2.181656e-01 2.247902e-01 2.302446e-01 2.359998e-01 2.402774e-01 2.449109e-01 2.478703e-01 2.511906e-01 2.527537e-01 2.546142e-01 2.547384e-01 2.550244e-01 2.536864e-01 2.523192e-01 2.495224e-01 2.464854e-01 2.422858e-01 2.376568e-01 2.321902e-01 2.261603e-01 2.196529e-01 2.125204e-01 2.052761e-01 1.974170e-01 1.897890e-01 1.816165e-01 1.739718e-01 1.658956e-01 1.585838e-01 1.509779e-01 1.443083e-01 1.374917e-01 1.317203e-01 
1.277711e-01 1.232133e-01 1.187591e-01 1.153659e-01 1.121713e-01 1.099980e-01 1.080920e-01 1.071393e-01 1.064924e-01 1.067218e-01 1.072653e-01 1.086215e-01 1.102699e-01 1.127001e-01 1.153691e-01 1.188273e-01 1.224408e-01 1.268739e-01 1.313614e-01 1.366862e-01 1.419746e-01 1.480622e-01 1.540614e-01 1.607319e-01 1.673129e-01 1.743325e-01 1.813050e-01 1.883885e-01 1.954948e-01 2.023212e-01 2.092541e-01 2.154990e-01 2.219378e-01 2.273111e-01 2.329582e-01 2.372310e-01 2.418340e-01 2.448457e-01 2.482011e-01 2.498485e-01 2.517946e-01 2.520150e-01 2.524254e-01 2.511874e-01 2.499794e-01 2.472896e-01 2.444470e-01 2.403706e-01 2.359704e-01 2.306511e-01 2.248796e-01 2.185459e-01 2.116917e-01 2.046446e-01 1.970720e-01 1.896571e-01 1.817675e-01 1.743424e-01 1.665343e-01 1.594375e-01 1.520747e-01 1.456028e-01 1.389929e-01 1.333877e-01 
1.290365e-01 1.245726e-01 1.201427e-01 1.167894e-01 1.135676e-01 1.113752e-01 1.093881e-01 1.083615e-01 1.075880e-01 1.077019e-01 1.080901e-01 1.093056e-01 1.107906e-01 1.130680e-01 1.155842e-01 1.188841e-01 1.223683e-01 1.266395e-01 1.310261e-01 1.361871e-01 1.413983e-01 1.473223e-01 1.532554e-01 1.597642e-01 1.662763e-01 1.731396e-01 1.800341e-01 1.869749e-01 1.940002e-01 2.007111e-01 2.075753e-01 2.137459e-01 2.201450e-01 2.254927e-01 2.311389e-01 2.354322e-01 2.400726e-01 2.431386e-01 2.465609e-01 2.482803e-01 2.503100e-01 2.506072e-01 2.511076e-01 2.499460e-01 2.488295e-01 2.462190e-01 2.434691e-01 2.394831e-01 2.351793e-01 2.299690e-01 2.242995e-01 2.180976e-01 2.113517e-01 2.044585e-01 1.970001e-01 1.897563e-01 1.819845e-01 1.747395e-01 1.670491e-01 1.601308e-01 1.528789e-01 1.465714e-01 1.400560e-01 1.345872e-01 
1.302074e-01 1.257395e-01 1.212890e-01 1.179031e-01 1.146280e-01 1.123776e-01 1.103085e-01 1.092074e-01 1.083319e-01 1.083669e-01 1.086444e-01 1.097877e-01 1.111621e-01 1.133783e-01 1.157874e-01 1.190329e-01 1.224112e-01 1.266253e-01 1.309021e-01 1.359940e-01 1.410858e-01 1.469245e-01 1.527243e-01 1.591333e-01 1.654969e-01 1.722535e-01 1.789896e-01 1.858292e-01 1.926991e-01 1.993293e-01 2.060599e-01 2.121835e-01 2.184903e-01 2.238319e-01 2.294413e-01 2.337680e-01 2.384332e-01 2.415638e-01 2.450691e-01 2.468726e-01 2.490331e-01 2.494232e-01 2.500886e-01 2.490221e-01 2.480901e-01 2.455748e-01 2.430158e-01 2.391250e-01 2.350068e-01 2.298923e-01 2.243943e-01 2.182878e-01 2.116937e-01 2.048933e-01 1.975646e-01 1.904079e-01 1.827439e-01 1.755766e-01 1.679722e-01 1.611181e-01 1.539300e-01 1.476686e-01 1.411926e-01 1.357469e-01 
1.308365e-01 1.263397e-01 1.218109e-01 1.183714e-01 1.150024e-01 1.126761e-01 1.104993e-01 1.093066e-01 1.083170e-01 1.082542e-01 1.084218e-01 1.094709e-01 1.107511e-01 1.128837e-01 1.152234e-01 1.183985e-01 1.217369e-01 1.258930e-01 1.301582e-01 1.352027e-01 1.403044e-01 1.461039e-01 1.519246e-01 1.583012e-01 1.646866e-01 1.714171e-01 1.781710e-01 1.849935e-01 1.918799e-01 1.985074e-01 2.052621e-01 2.114037e-01 2.177533e-01 2.231374e-01 2.288170e-01 2.332098e-01 2.379746e-01 2.411891e-01 2.448180e-01 2.467143e-01 2.490106e-01 2.494930e-01 2.502909e-01 2.493093e-01 2.484915e-01 2.460504e-01 2.435754e-01 2.397487e-01 2.356786e-01 2.306203e-01 2.251350e-01 2.190794e-01 2.124692e-01 2.057156e-01 1.983513e-01 1.912373e-01 1.835269e-01 1.763963e-01 1.687414e-01 1.619144e-01 1.546736e-01 1.484253e-01 1.418927e-01 1.364410e-01 
1.313789e-01 1.267570e-01 1.220960e-01 1.185296e-01 1.150307e-01 1.125843e-01 1.102861e-01 1.089901e-01 1.078948e-01 1.077550e-01 1.078386e-01 1.088426e-01 1.100634e-01 1.121829e-01 1.144858e-01 1.176745e-01 1.209929e-01 1.251808e-01 1.294346e-01 1.345205e-01 1.396110e-01 1.454559e-01 1.512580e-01 1.576808e-01 1.640362e-01 1.708133e-01 1.775262e-01 1.843974e-01 1.912384e-01 1.979195e-01 2.046374e-01 2.108404e-01 2.171784e-01 2.226333e-01 2.283432e-01 2.328164e-01 2.376652e-01 2.409683e-01 2.447377e-01 2.467282e-01 2.492138e-01 2.497923e-01 2.508096e-01 2.499213e-01 2.493268e-01 2.469703e-01 2.446944e-01 2.409370e-01 2.370178e-01 2.320069e-01 2.266110e-01 2.205758e-01 2.139917e-01 2.072293e-01 1.998362e-01 1.926849e-01 1.849044e-01 1.777107e-01 1.699578e-01 1.630458e-01 1.556903e-01 1.493390e-01 1.426817e-01 1.371136e-01 
1.314093e-01 1.266371e-01 1.217976e-01 1.180820e-01 1.144199e-01 1.118344e-01 1.093942e-01 1.079793e-01 1.067710e-01 1.065419e-01 1.065497e-01 1.075004e-01 1.086880e-01 1.107918e-01 1.131053e-01 1.163129e-01 1.196820e-01 1.239174e-01 1.282541e-01 1.334089e-01 1.386036e-01 1.445321e-01 1.504483e-01 1.569637e-01 1.634332e-01 1.703083e-01 1.771301e-01 1.841025e-01 1.910481e-01 1.978337e-01 2.046585e-01 2.109707e-01 2.174277e-01 2.229981e-01 2.288488e-01 2.334440e-01 2.384608e-01 2.418901e-01 2.458519e-01 2.479674e-01 2.506556e-01 2.513496e-01 2.525562e-01 2.517642e-01 2.513171e-01 2.490296e-01 2.468336e-01 2.431124e-01 2.391914e-01 2.341828e-01 2.287041e-01 2.226391e-01 2.159056e-01 2.090849e-01 2.014977e-01 1.942637e-01 1.862670e-01 1.789699e-01 1.709966e-01 1.639640e-01 1.563944e-01 1.499087e-01 1.430482e-01 1.373353e-01 
1.313576e-01 1.263323e-01 1.212460e-01 1.173007e-01 1.134268e-01 1.106490e-01 1.080406e-01 1.064839e-01 1.051589e-01 1.048480e-01 1.047946e-01 1.057266e-01 1.069068e-01 1.090513e-01 1.114038e-01 1.147026e-01 1.181454e-01 1.225111e-01 1.269429e-01 1.322566e-01 1.375545e-01 1.436615e-01 1.496774e-01 1.563836e-01 1.629399e-01 1.700108e-01 1.769014e-01 1.840674e-01 1.910647e-01 1.980343e-01 2.049029e-01 2.113831e-01 2.178936e-01 2.236128e-01 2.295495e-01 2.342750e-01 2.394317e-01 2.429778e-01 2.471449e-01 2.493697e-01 2.523232e-01 2.531227e-01 2.546286e-01 2.539361e-01 2.537792e-01 2.515757e-01 2.496112e-01 2.459439e-01 2.421539e-01 2.371531e-01 2.316840e-01 2.255693e-01 2.187284e-01 2.117971e-01 2.040092e-01 1.966086e-01 1.883499e-01 1.808416e-01 1.725752e-01 1.653004e-01 1.574302e-01 1.506854e-01 1.435327e-01 1.375571e-01 
1.308440e-01 1.255386e-01 1.201702e-01 1.159699e-01 1.118567e-01 1.088651e-01 1.060710e-01 1.043575e-01 1.029119e-01 1.025131e-01 1.024126e-01 1.033304e-01 1.045379e-01 1.067378e-01 1.091850e-01 1.125975e-01 1.161892e-01 1.207129e-01 1.253312e-01 1.308333e-01 1.363388e-01 1.426531e-01 1.488828e-01 1.558059e-01 1.625710e-01 1.698611e-01 1.769489e-01 1.843309e-01 1.915135e-01 1.986923e-01 2.057402e-01 2.124212e-01 2.191169e-01 2.250285e-01 2.311715e-01 2.360827e-01 2.414790e-01 2.452045e-01 2.496459e-01 2.520408e-01 2.552863e-01 2.562376e-01 2.580161e-01 2.574428e-01 2.574899e-01 2.553579e-01 2.534824e-01 2.498282e-01 2.459858e-01 2.409360e-01 2.352757e-01 2.290516e-01 2.219086e-01 2.148129e-01 2.066534e-01 1.990417e-01 1.903823e-01 1.826261e-01 1.739609e-01 1.664124e-01 1.581635e-01 1.511305e-01 1.436277e-01 1.373615e-01 
1.302453e-01 1.245436e-01 1.188072e-01 1.142589e-01 1.098439e-01 1.065728e-01 1.035557e-01 1.016500e-01 1.000716e-01 9.958058e-02 9.944208e-02 1.003698e-01 1.016287e-01 1.039317e-01 1.065045e-01 1.100970e-01 1.138683e-01 1.186313e-01 1.234628e-01 1.292487e-01 1.349822e-01 1.416130e-01 1.480681e-01 1.553300e-01 1.623023e-01 1.699411e-01 1.772050e-01 1.849300e-01 1.922513e-01 1.997491e-01 2.069037e-01 2.138631e-01 2.206546e-01 2.267943e-01 2.330573e-01 2.381476e-01 2.437274e-01 2.475959e-01 2.523119e-01 2.548317e-01 2.584431e-01 2.595157e-01 2.617154e-01 2.612620e-01 2.617158e-01 2.596883e-01 2.581193e-01 2.545264e-01 2.508177e-01 2.457539e-01 2.400219e-01 2.336848e-01 2.262801e-01 2.189665e-01 2.104047e-01 2.024827e-01 1.933408e-01 1.852061e-01 1.760309e-01 1.680635e-01 1.593143e-01 1.518480e-01 1.438769e-01 1.371858e-01 
1.292749e-01 1.231446e-01 1.170161e-01 1.120870e-01 1.073456e-01 1.037666e-01 1.005073e-01 9.839167e-02 9.667575e-02 9.609150e-02 9.593322e-02 9.688846e-02 9.824281e-02 1.006813e-01 1.034465e-01 1.072587e-01 1.112924e-01 1.163333e-01 1.214693e-01 1.275693e-01 1.336255e-01 1.405900e-01 1.473674e-01 1.549704e-01 1.622503e-01 1.702281e-01 1.777761e-01 1.858297e-01 1.934087e-01 2.012186e-01 2.086107e-01 2.158620e-01 2.228879e-01 2.292994e-01 2.358199e-01 2.411660e-01 2.470542e-01 2.511672e-01 2.562551e-01 2.590083e-01 2.630361e-01 2.643191e-01 2.669220e-01 2.666329e-01 2.673917e-01 2.654560e-01 2.640109e-01 2.604199e-01 2.566076e-01 2.514504e-01 2.453956e-01 2.388713e-01 2.309777e-01 2.233895e-01 2.142450e-01 2.059733e-01 1.962217e-01 1.876796e-01 1.779133e-01 1.695019e-01 1.602036e-01 1.522782e-01 1.438080e-01 1.366628e-01 
1.282033e-01 1.215105e-01 1.148846e-01 1.094662e-01 1.043212e-01 1.003533e-01 9.680392e-02 9.442883e-02 9.255753e-02 9.186485e-02 9.169612e-02 9.269663e-02 9.417519e-02 9.679361e-02 9.978979e-02 1.038860e-01 1.082238e-01 1.136243e-01 1.191078e-01 1.256233e-01 1.320460e-01 1.394700e-01 1.466110e-01 1.547068e-01 1.623245e-01 1.708132e-01 1.786490e-01 1.872075e-01 1.950057e-01 2.032828e-01 2.108230e-01 2.184719e-01 2.256008e-01 2.323205e-01 2.389560e-01 2.445229e-01 2.506102e-01 2.548821e-01 2.603126e-01 2.632010e-01 2.677304e-01 2.691580e-01 2.723729e-01 2.722486e-01 2.736164e-01 2.718448e-01 2.708558e-01 2.673767e-01 2.637377e-01 2.585768e-01 2.523595e-01 2.456681e-01 2.373154e-01 2.293872e-01 2.195845e-01 2.108271e-01 2.003251e-01 1.911994e-01 1.806736e-01 1.716308e-01 1.616141e-01 1.530511e-01 1.439276e-01 1.361700e-01 
1.269238e-01 1.196257e-01 1.124886e-01 1.065338e-01 1.009577e-01 9.655711e-02 9.268782e-02 9.002543e-02 8.798549e-02 8.718500e-02 8.702585e-02 8.810413e-02 8.976418e-02 9.261746e-02 9.592925e-02 1.003705e-01 1.051088e-01 1.109205e-01 1.168468e-01 1.238086e-01 1.306853e-01 1.385713e-01 1.461552e-01 1.547154e-01 1.627475e-01 1.716917e-01 1.798997e-01 1.888947e-01 1.970145e-01 2.057009e-01 2.135161e-01 2.215432e-01 2.289244e-01 2.359931e-01 2.429054e-01 2.488010e-01 2.552495e-01 2.598443e-01 2.657607e-01 2.689735e-01 2.740988e-01 2.758361e-01 2.796671e-01 2.797952e-01 2.816504e-01 2.800255e-01 2.792431e-01 2.757769e-01 2.719815e-01 2.666966e-01 2.599839e-01 2.530319e-01 2.439450e-01 2.356229e-01 2.249736e-01 2.157049e-01 2.043484e-01 1.946246e-01 1.832982e-01 1.736077e-01 1.628676e-01 1.536428e-01 1.438724e-01 1.354686e-01 
1.255060e-01 1.174515e-01 1.096810e-01 1.030653e-01 9.696726e-02 9.203447e-02 8.778658e-02 8.476905e-02 8.253892e-02 8.160486e-02 8.147155e-02 8.264487e-02 8.452885e-02 8.766464e-02 9.134382e-02 9.619448e-02 1.013865e-01 1.076882e-01 1.141145e-01 1.216252e-01 1.290232e-01 1.375109e-01 1.456148e-01 1.548259e-01 1.633465e-01 1.729767e-01 1.816005e-01 1.912837e-01 1.997042e-01 2.090293e-01 2.170078e-01 2.255669e-01 2.330021e-01 2.404579e-01 2.474082e-01 2.535486e-01 2.601534e-01 2.648985e-01 2.712106e-01 2.745539e-01 2.803654e-01 2.822806e-01 2.870282e-01 2.874094e-01 2.902277e-01 2.888987e-01 2.888573e-01 2.856353e-01 2.821141e-01 2.768945e-01 2.699015e-01 2.627386e-01 2.529113e-01 2.440895e-01 2.324324e-01 2.224378e-01 2.099906e-01 1.994087e-01 1.870312e-01 1.764377e-01 1.647439e-01 1.546336e-01 1.440213e-01 1.347859e-01 
1.241690e-01 1.152978e-01 1.068902e-01 9.954254e-02 9.288315e-02 8.734544e-02 8.266181e-02 7.923635e-02 7.677819e-02 7.570578e-02 7.561649e-02 7.693729e-02 7.912475e-02 8.263032e-02 8.679196e-02 9.214148e-02 9.790719e-02 1.047675e-01 1.117993e-01 1.198920e-01 1.278939e-01 1.369700e-01 1.456548e-01 1.554488e-01 1.645066e-01 1.747011e-01 1.837948e-01 1.940100e-01 2.028106e-01 2.126259e-01 2.208878e-01 2.298938e-01 2.375442e-01 2.454112e-01 2.525899e-01 2.591242e-01 2.660952e-01 2.712527e-01 2.781748e-01 2.819780e-01 2.886520e-01 2.910525e-01 2.967773e-01 2.975842e-01 3.012266e-01 3.001635e-01 3.005023e-01 2.973408e-01 2.936045e-01 2.882562e-01 2.805213e-01 2.730342e-01 2.621303e-01 2.527748e-01 2.399262e-01 2.292094e-01 2.156162e-01 2.041821e-01 1.907790e-01 1.792734e-01 1.666850e-01 1.556608e-01 1.442640e-01 1.341513e-01 
1.226250e-01 1.127815e-01 1.036053e-01 9.539392e-02 8.807143e-02 8.180826e-02 7.661534e-02 7.268571e-02 6.997206e-02 6.872334e-02 6.871243e-02 7.021109e-02 7.277472e-02 7.671384e-02 8.142832e-02 8.734037e-02 9.373653e-02 1.012183e-01 1.089160e-01 1.176765e-01 1.263679e-01 1.361727e-01 1.455575e-01 1.561562e-01 1.658891e-01 1.769591e-01 1.866359e-01 1.977551e-01 2.069580e-01 2.176222e-01 2.260345e-01 2.357307e-01 2.432942e-01 2.516186e-01 2.586262e-01 2.653890e-01 2.723556e-01 2.776027e-01 2.849269e-01 2.888244e-01 2.964352e-01 2.990635e-01 3.061999e-01 3.074263e-01 3.126620e-01 3.121630e-01 3.137834e-01 3.111556e-01 3.079006e-01 3.027947e-01 2.945925e-01 2.868530e-01 2.747631e-01 2.646581e-01 2.502924e-01 2.384781e-01 2.233492e-01 2.106579e-01 1.958650e-01 1.830928e-01 1.693083e-01 1.570942e-01 1.446792e-01 1.334849e-01 
1.216401e-01 1.107411e-01 1.008054e-01 9.163012e-02 8.358479e-02 7.647849e-02 7.066357e-02 6.612263e-02 6.305606e-02 6.160323e-02 6.168042e-02 6.344108e-02 6.650353e-02 7.101260e-02 7.644519e-02 8.304403e-02 9.022517e-02 9.841697e-02 1.069022e-01 1.163726e-01 1.258353e-01 1.363465e-01 1.464753e-01 1.577679e-01 1.681935e-01 1.799242e-01 1.901992e-01 2.019209e-01 2.115723e-01 2.227674e-01 2.314372e-01 2.416023e-01 2.492497e-01 2.580045e-01 2.650524e-01 2.722360e-01 2.794545e-01 2.851981e-01 2.932392e-01 2.978022e-01 3.066789e-01 3.101204e-01 3.188687e-01 3.208732e-01 3.275743e-01 3.275840e-01 3.299368e-01 3.274666e-01 3.239148e-01 3.187240e-01 3.094019e-01 3.012951e-01 2.876234e-01 2.767940e-01 2.607700e-01 2.479118e-01 2.312863e-01 2.173616e-01 2.013069e-01 1.872509e-01 1.724157e-01 1.589633e-01 1.456502e-01 1.333060e-01 
1.203360e-01 1.082588e-01 9.744029e-02 8.719201e-02 7.832060e-02 7.023460e-02 6.369651e-02 5.839256e-02 5.491967e-02 5.320293e-02 5.344603e-02 5.555294e-02 5.925775e-02 6.444399e-02 7.068353e-02 7.801935e-02 8.601705e-02 9.493155e-02 1.042365e-01 1.144462e-01 1.247648e-01 1.360902e-01 1.471247e-01 1.593569e-01 1.707030e-01 1.835140e-01 1.946204e-01 2.075133e-01 2.177343e-01 2.300555e-01 2.388465e-01 2.498976e-01 2.571669e-01 2.664194e-01 2.728405e-01 2.801454e-01 2.869668e-01 2.926284e-01 3.009656e-01 3.055269e-01 3.156743e-01 3.194312e-01 3.304038e-01 3.331426e-01 3.425813e-01 3.436821e-01 3.483688e-01 3.470302e-01 3.443533e-01 3.397852e-01 3.296335e-01 3.211954e-01 3.055638e-01 2.935176e-01 2.751997e-01 2.606060e-01 2.418584e-01 2.260583e-01 2.082330e-01 1.924103e-01 1.761491e-01 1.611420e-01 1.466697e-01 1.329842e-01 
1.203086e-01 1.069534e-01 9.528451e-02 8.385406e-02 7.408696e-02 6.486519e-02 5.740420e-02 5.112270e-02 4.699984e-02 4.491417e-02 4.531268e-02 4.791761e-02 5.247873e-02 5.854618e-02 6.582206e-02 7.404184e-02 8.304338e-02 9.278774e-02 1.030532e-01 1.140736e-01 1.253382e-01 1.374787e-01 1.494572e-01 1.624969e-01 1.747574e-01 1.883202e-01 2.002316e-01 2.137581e-01 2.245502e-01 2.373562e-01 2.463573e-01 2.577877e-01 2.648594e-01 2.744634e-01 2.804526e-01 2.880910e-01 2.947699e-01 3.009417e-01 3.100052e-01 3.155391e-01 3.275662e-01 3.327809e-01 3.465206e-01 3.507940e-01 3.629716e-01 3.650778e-01 3.712177e-01 3.701561e-01 3.670078e-01 3.624959e-01 3.506206e-01 3.418170e-01 3.238201e-01 3.107188e-01 2.900858e-01 2.738679e-01 2.531936e-01 2.355240e-01 2.161878e-01 1.985297e-01 1.810778e-01 1.644153e-01 1.489609e-01 1.338296e-01 
1.197977e-01 1.051516e-01 9.254571e-02 7.992528e-02 6.919126e-02 5.873626e-02 5.021449e-02 4.269246e-02 3.774150e-02 3.514643e-02 3.590450e-02 3.929721e-02 4.503122e-02 5.216192e-02 6.053025e-02 6.961076e-02 7.953959e-02 9.000318e-02 1.011688e-01 1.129001e-01 1.251531e-01 1.381173e-01 1.512289e-01 1.653050e-01 1.788200e-01 1.936875e-01 2.068318e-01 2.218859e-01 2.335801e-01 2.479184e-01 2.570503e-01 2.696320e-01 2.757851e-01 2.858411e-01 2.902732e-01 2.977199e-01 3.031572e-01 3.088327e-01 3.178454e-01 3.231798e-01 3.369068e-01 3.426370e-01 3.599356e-01 3.655533e-01 3.825830e-01 3.867980e-01 3.974151e-01 3.987002e-01 3.971412e-01 3.940267e-01 3.805083e-01 3.711126e-01 3.497102e-01 3.344032e-01 3.102637e-01 2.911379e-01 2.675831e-01 2.470500e-01 2.255362e-01 2.054306e-01 1.863540e-01 1.677338e-01 1.510298e-01 1.343464e-01 
1.214828e-01 1.054501e-01 9.198243e-02 7.812635e-02 6.642264e-02 5.466428e-02 4.486540e-02 3.577670e-02 2.937469e-02 2.584416e-02 2.692917e-02 3.148964e-02 3.877661e-02 4.717694e-02 5.685869e-02 6.689490e-02 7.793496e-02 8.924612e-02 1.014726e-01 1.140769e-01 1.274368e-01 1.413430e-01 1.556542e-01 1.707065e-01 1.854853e-01 2.012450e-01 2.155780e-01 2.312662e-01 2.438178e-01 2.584216e-01 2.677625e-01 2.803738e-01 2.858387e-01 2.959891e-01 2.989417e-01 3.063415e-01 3.106081e-01 3.165256e-01 3.259687e-01 3.326930e-01 3.492218e-01 3.577311e-01 3.799609e-01 3.888528e-01 4.112786e-01 4.175928e-01 4.311993e-01 4.326348e-01 4.300373e-01 4.273624e-01 4.112129e-01 4.015510e-01 3.764920e-01 3.593794e-01 3.319415e-01 3.099969e-01 2.839496e-01 2.604187e-01 2.370894e-01 2.143214e-01 1.938869e-01 1.731019e-01 1.553297e-01 1.369363e-01 
1.224737e-01 1.052612e-01 9.090381e-02 7.604299e-02 6.341310e-02 5.052926e-02 3.945480e-02 2.860489e-02 2.012778e-02 1.488914e-02 1.715376e-02 2.403375e-02 3.331430e-02 4.301272e-02 5.373247e-02 6.445074e-02 7.625162e-02 8.806388e-02 1.011074e-01 1.142482e-01 1.286556e-01 1.432952e-01 1.589783e-01 1.751146e-01 1.915994e-01 2.089234e-01 2.251466e-01 2.428892e-01 2.570426e-01 2.738711e-01 2.835747e-01 2.977715e-01 3.013595e-01 3.116852e-01 3.111901e-01 3.176259e-01 3.189354e-01 3.233681e-01 3.319416e-01 3.381211e-01 3.568920e-01 3.665154e-01 3.944637e-01 4.059529e-01 4.371374e-01 4.474869e-01 4.702062e-01 4.764476e-01 4.766375e-01 4.769341e-01 4.571488e-01 4.459968e-01 4.146890e-01 3.931311e-01 3.603158e-01 3.332389e-01 3.033777e-01 2.754202e-01 2.494874e-01 2.234078e-01 2.011574e-01 1.780538e-01 1.589581e-01 1.389558e-01 
1.265557e-01 1.080718e-01 9.294589e-02 7.715707e-02 6.379381e-02 5.008114e-02 3.801082e-02 2.587510e-02 1.488828e-02 5.362269e-03 9.519668e-03 1.945356e-02 3.046516e-02 4.109721e-02 5.279811e-02 6.414234e-02 7.686457e-02 8.939826e-02 1.034653e-01 1.175422e-01 1.331818e-01 1.489957e-01 1.662159e-01 1.836946e-01 2.020220e-01 2.206121e-01 2.387744e-01 2.572432e-01 2.729467e-01 2.895090e-01 2.996804e-01 3.129001e-01 3.151379e-01 3.251351e-01 3.209295e-01 3.262430e-01 3.239604e-01 3.274314e-01 3.353457e-01 3.433185e-01 3.662159e-01 3.814020e-01 4.183807e-01 4.374129e-01 4.798229e-01 4.951502e-01 5.243832e-01 5.289558e-01 5.258258e-01 5.277721e-01 5.045700e-01 4.934399e-01 4.560427e-01 4.306040e-01 3.928294e-01 3.603124e-01 3.270742e-01 2.941334e-01 2.658585e-01 2.359543e-01 2.120053e-01 1.861983e-01 1.658431e-01 1.439912e-01 
1.297345e-01 1.104811e-01 9.458136e-02 7.839749e-02 6.447176e-02 5.062248e-02 3.815949e-02 2.619972e-02 1.515385e-02 7.675626e-03 1.132007e-02 2.102582e-02 3.169533e-02 4.228913e-02 5.392883e-02 6.525025e-02 7.816354e-02 9.075259e-02 1.053699e-01 1.196828e-01 1.363506e-01 1.527324e-01 1.715729e-01 1.901541e-01 2.107697e-01 2.312535e-01 2.523218e-01 2.736943e-01 2.924194e-01 3.125975e-01 3.241324e-01 3.399257e-01 3.386257e-01 3.479085e-01 3.363090e-01 3.389544e-01 3.303771e-01 3.298351e-01 3.352002e-01 3.421435e-01 3.681011e-01 3.865174e-01 4.326205e-01 4.571449e-01 5.151795e-01 5.380375e-01 5.870386e-01 6.013529e-01 6.024983e-01 6.106940e-01 5.787567e-01 5.633365e-01 5.139408e-01 4.787976e-01 4.329617e-01 3.910885e-01 3.529474e-01 3.132769e-01 2.818483e-01 2.477329e-01 2.216313e-01 1.933598e-01 1.714929e-01 1.482450e-01 
1.364597e-01 1.162679e-01 9.973203e-02 8.318943e-02 6.901266e-02 5.534785e-02 4.313143e-02 3.229592e-02 2.295431e-02 1.828349e-02 1.923052e-02 2.592648e-02 3.509960e-02 4.493334e-02 5.648699e-02 6.780665e-02 8.122178e-02 9.439972e-02 1.098819e-01 1.253133e-01 1.432828e-01 1.613191e-01 1.821329e-01 2.028799e-01 2.262904e-01 2.491064e-01 2.735718e-01 2.963759e-01 3.182439e-01 3.372039e-01 3.502337e-01 3.620412e-01 3.591658e-01 3.684138e-01 3.483828e-01 3.472307e-01 3.297802e-01 3.240948e-01 3.258464e-01 3.344046e-01 3.662696e-01 3.961651e-01 4.587337e-01 5.015316e-01 5.839850e-01 6.216220e-01 6.862059e-01 6.884996e-01 6.763479e-01 6.909348e-01 6.586997e-01 6.437370e-01 5.821407e-01 5.368223e-01 4.827993e-01 4.298521e-01 3.866232e-01 3.388271e-01 3.038810e-01 2.646012e-01 2.360100e-01 2.046523e-01 1.810843e-01 1.560662e-01 
1.422011e-01 1.218113e-01 1.045479e-01 8.830062e-02 7.391418e-02 6.112035e-02 4.943694e-02 4.048200e-02 3.293665e-02 3.044364e-02 3.087663e-02 3.605382e-02 4.317766e-02 5.189403e-02 6.233219e-02 7.299511e-02 8.602911e-02 9.880168e-02 1.145538e-01 1.298994e-01 1.488889e-01 1.673571e-01 1.901133e-01 2.120501e-01 2.384792e-01 2.636322e-01 2.923557e-01 3.193846e-01 3.467754e-01 3.724205e-01 3.900756e-01 4.075994e-01 3.983272e-01 4.042599e-01 3.684944e-01 3.617449e-01 3.322937e-01 3.151303e-01 3.110084e-01 3.181221e-01 3.552838e-01 3.962877e-01 4.732566e-01 5.293149e-01 6.373171e-01 6.879892e-01 7.975828e-01 8.197966e-01 8.107125e-01 8.381089e-01 7.833781e-01 7.569394e-01 6.721739e-01 6.044526e-01 5.394864e-01 4.696239e-01 4.200688e-01 3.628531e-01 3.235780e-01 2.796657e-01 2.480707e-01 2.145746e-01 1.889938e-01 1.630905e-01 