# vtk DataFile Version 2.0
Comment goes here
ASCII

DATASET STRUCTURED_POINTS
DIMENSIONS    64   64   1

ORIGIN    0.000   0.000   0.000
SPACING   0.0156250.015625   1.000

POINT_DATA   4096
SCALARS uMag double
LOOKUP_TABLE default

1.537788e-02 1.898540e-02 1.583377e-02 1.906631e-02 1.735774e-02 2.028460e-02 1.977866e-02 2.218673e-02 2.229416e-02 2.366530e-02 2.324883e-02 2.300837e-02 2.078193e-02 1.897999e-02 1.512961e-02 1.299977e-02 1.040743e-02 8.813969e-03 5.988701e-03 1.158631e-02 1.153103e-02 1.850022e-02 1.811317e-02 2.292653e-02 2.197505e-02 2.612491e-02 2.471924e-02 3.129313e-02 2.925207e-02 3.734378e-02 3.656213e-02 3.806528e-02 4.285992e-02 3.428338e-02 3.891998e-02 2.713425e-02 2.728187e-02 1.841971e-02 1.615232e-02 1.429972e-02 1.363104e-02 2.062692e-02 2.050056e-02 3.278721e-02 3.236441e-02 4.263046e-02 4.600704e-02 4.256050e-02 5.471382e-02 3.735578e-02 4.921451e-02 3.422224e-02 3.819212e-02 3.269649e-02 2.864431e-02 3.083376e-02 2.264159e-02 2.814847e-02 1.924423e-02 2.507931e-02 1.716760e-02 2.223347e-02 1.587814e-02 2.009530e-02 
1.548417e-02 1.967267e-02 1.266313e-02 1.706888e-02 1.006371e-02 1.440150e-02 7.151826e-03 1.095499e-02 3.592134e-03 6.333460e-03 3.095225e-03 2.527728e-03 7.723701e-03 5.913588e-03 1.105441e-02 8.569672e-03 1.127676e-02 9.024571e-03 1.031663e-02 7.838936e-03 6.303697e-03 6.476965e-03 6.384275e-03 1.162825e-02 1.426331e-02 2.002443e-02 2.193384e-02 2.781067e-02 2.731998e-02 3.244790e-02 3.057744e-02 3.169743e-02 3.114837e-02 2.562784e-02 2.551113e-02 1.907499e-02 1.842886e-02 1.421932e-02 1.240877e-02 1.073728e-02 1.055593e-02 1.282956e-02 1.410486e-02 1.908953e-02 2.135209e-02 2.471494e-02 3.269460e-02 2.962305e-02 4.413708e-02 3.713204e-02 4.815044e-02 4.281603e-02 4.597427e-02 4.389734e-02 4.058178e-02 4.115101e-02 3.426424e-02 3.646524e-02 2.828294e-02 3.135598e-02 2.313451e-02 2.667838e-02 1.890200e-02 2.278140e-02 
1.440482e-02 1.802615e-02 1.473588e-02 1.788063e-02 1.564736e-02 1.826898e-02 1.686512e-02 1.881865e-02 1.781128e-02 1.886977e-02 1.763922e-02 1.765082e-02 1.565347e-02 1.483304e-02 1.211863e-02 1.125975e-02 8.516732e-03 8.902337e-03 6.264813e-03 1.001794e-02 8.677085e-03 1.380286e-02 1.280602e-02 1.749481e-02 1.632599e-02 2.097005e-02 1.966557e-02 2.483868e-02 2.378717e-02 2.823181e-02 2.845074e-02 2.914182e-02 3.151758e-02 2.745575e-02 3.013851e-02 2.405880e-02 2.534319e-02 2.043042e-02 2.071337e-02 1.928113e-02 1.970021e-02 2.226954e-02 2.320876e-02 2.772900e-02 2.967906e-02 3.200987e-02 3.649393e-02 3.230925e-02 4.014730e-02 3.017651e-02 3.783544e-02 2.810818e-02 3.200759e-02 2.669159e-02 2.582564e-02 2.536511e-02 2.099353e-02 2.375459e-02 1.777949e-02 2.193466e-02 1.581651e-02 2.019199e-02 1.474634e-02 1.882047e-02 
1.553947e-02 1.875373e-02 1.275513e-02 1.611157e-02 1.006582e-02 1.339027e-02 7.196367e-03 1.028415e-02 3.947798e-03 6.684903e-03 4.231464e-04 3.016520e-03 2.880799e-03 1.646840e-03 4.997028e-03 3.098002e-03 5.315299e-03 3.524611e-03 4.065189e-03 3.497429e-03 1.917923e-03 5.665028e-03 5.666602e-03 1.050223e-02 1.147132e-02 1.613886e-02 1.686980e-02 2.106499e-02 2.102573e-02 2.398678e-02 2.361780e-02 2.403233e-02 2.413144e-02 2.151364e-02 2.193694e-02 1.824381e-02 1.868993e-02 1.566983e-02 1.608799e-02 1.451415e-02 1.557310e-02 1.562415e-02 1.783508e-02 1.862921e-02 2.266897e-02 2.228766e-02 2.925203e-02 2.629975e-02 3.532037e-02 3.086235e-02 3.811972e-02 3.432313e-02 3.748267e-02 3.543478e-02 3.452298e-02 3.424926e-02 3.046899e-02 3.155201e-02 2.620001e-02 2.818877e-02 2.219673e-02 2.476360e-02 1.864405e-02 2.159447e-02 
1.375517e-02 1.695221e-02 1.381837e-02 1.665467e-02 1.422156e-02 1.657989e-02 1.470663e-02 1.647890e-02 1.489503e-02 1.599397e-02 1.435810e-02 1.479868e-02 1.284117e-02 1.286735e-02 1.056910e-02 1.074133e-02 8.330325e-03 9.477697e-03 7.229934e-03 1.006277e-02 8.431491e-03 1.230746e-02 1.110127e-02 1.514179e-02 1.410789e-02 1.811486e-02 1.728497e-02 2.106237e-02 2.069905e-02 2.343383e-02 2.392607e-02 2.447957e-02 2.593845e-02 2.408222e-02 2.582303e-02 2.274060e-02 2.410809e-02 2.136642e-02 2.239716e-02 2.111641e-02 2.224499e-02 2.254140e-02 2.417951e-02 2.493665e-02 2.753025e-02 2.677391e-02 3.083187e-02 2.694807e-02 3.234624e-02 2.587282e-02 3.101701e-02 2.447319e-02 2.761187e-02 2.322371e-02 2.355154e-02 2.208162e-02 1.990542e-02 2.090343e-02 1.713513e-02 1.968023e-02 1.527584e-02 1.852440e-02 1.419704e-02 1.758047e-02 
1.539983e-02 1.780320e-02 1.286851e-02 1.541243e-02 1.041230e-02 1.297061e-02 7.922329e-03 1.037444e-02 5.367270e-03 7.638430e-03 2.910784e-03 4.997816e-03 1.165992e-03 2.928093e-03 1.237991e-03 2.002100e-03 1.182937e-03 2.331376e-03 3.205009e-04 3.811549e-03 2.715754e-03 6.513767e-03 6.360323e-03 1.011477e-02 1.046778e-02 1.395828e-02 1.437613e-02 1.728948e-02 1.757654e-02 1.943290e-02 1.972719e-02 2.001800e-02 2.054463e-02 1.925121e-02 1.999115e-02 1.791685e-02 1.880391e-02 1.682278e-02 1.791837e-02 1.650793e-02 1.811668e-02 1.728412e-02 1.980118e-02 1.905798e-02 2.288046e-02 2.145419e-02 2.672182e-02 2.419719e-02 3.012597e-02 2.698835e-02 3.188066e-02 2.907857e-02 3.168287e-02 2.986840e-02 2.992526e-02 2.927310e-02 2.722947e-02 2.760912e-02 2.414530e-02 2.532053e-02 2.104179e-02 2.278776e-02 1.810930e-02 2.025112e-02 
1.338992e-02 1.596878e-02 1.319777e-02 1.559148e-02 1.323544e-02 1.529599e-02 1.329699e-02 1.493137e-02 1.314186e-02 1.431774e-02 1.255355e-02 1.333587e-02 1.145635e-02 1.205622e-02 1.004297e-02 1.083257e-02 8.802941e-03 1.022743e-02 8.376248e-03 1.069161e-02 9.218930e-03 1.219260e-02 1.109531e-02 1.429973e-02 1.350670e-02 1.663768e-02 1.617030e-02 1.891267e-02 1.888456e-02 2.076479e-02 2.129436e-02 2.185370e-02 2.290402e-02 2.211534e-02 2.340507e-02 2.181246e-02 2.308333e-02 2.143173e-02 2.267914e-02 2.148972e-02 2.291226e-02 2.219204e-02 2.404767e-02 2.322734e-02 2.576081e-02 2.395689e-02 2.729382e-02 2.391766e-02 2.779626e-02 2.319541e-02 2.680113e-02 2.215080e-02 2.457482e-02 2.106852e-02 2.178022e-02 2.003768e-02 1.904489e-02 1.904786e-02 1.675725e-02 1.809948e-02 1.506769e-02 1.723452e-02 1.397239e-02 1.651173e-02 
1.515004e-02 1.689716e-02 1.295321e-02 1.486068e-02 1.083405e-02 1.280455e-02 8.769027e-03 1.071767e-02 6.786085e-03 8.654863e-03 5.006338e-03 6.775795e-03 3.638202e-03 5.332831e-03 2.863952e-03 4.594045e-03 2.738072e-03 4.741746e-03 3.407253e-03 5.833945e-03 5.067144e-03 7.774685e-03 7.544144e-03 1.028425e-02 1.042999e-02 1.295086e-02 1.329150e-02 1.532391e-02 1.576539e-02 1.702301e-02 1.758496e-02 1.785968e-02 1.859317e-02 1.793622e-02 1.884133e-02 1.761922e-02 1.870253e-02 1.734157e-02 1.868032e-02 1.743700e-02 1.920736e-02 1.808525e-02 2.050377e-02 1.927862e-02 2.249488e-02 2.086731e-02 2.478728e-02 2.264899e-02 2.674531e-02 2.435110e-02 2.777037e-02 2.558562e-02 2.763265e-02 2.604330e-02 2.646115e-02 2.564082e-02 2.456634e-02 2.450547e-02 2.227721e-02 2.286696e-02 1.985207e-02 2.095397e-02 1.745211e-02 1.893449e-02 
1.322250e-02 1.515242e-02 1.285174e-02 1.474979e-02 1.265986e-02 1.437830e-02 1.249640e-02 1.395109e-02 1.221034e-02 1.338499e-02 1.169310e-02 1.265260e-02 1.094006e-02 1.184117e-02 1.010352e-02 1.117705e-02 9.486681e-03 1.096173e-02 9.438326e-03 1.141452e-02 1.016953e-02 1.253488e-02 1.160717e-02 1.412519e-02 1.351280e-02 1.593451e-02 1.565239e-02 1.771717e-02 1.780343e-02 1.923083e-02 1.970751e-02 2.028743e-02 2.110607e-02 2.084449e-02 2.188039e-02 2.103111e-02 2.217955e-02 2.109065e-02 2.235113e-02 2.126148e-02 2.273032e-02 2.162932e-02 2.343877e-02 2.205667e-02 2.430848e-02 2.227153e-02 2.495440e-02 2.207065e-02 2.495899e-02 2.146217e-02 2.410014e-02 2.059807e-02 2.248453e-02 1.964311e-02 2.044245e-02 1.869800e-02 1.834222e-02 1.780502e-02 1.646533e-02 1.698501e-02 1.496854e-02 1.625914e-02 1.389868e-02 1.564699e-02 
1.483908e-02 1.606242e-02 1.298584e-02 1.439171e-02 1.121551e-02 1.272842e-02 9.542536e-03 1.109803e-02 8.008946e-03 9.560674e-03 6.698703e-03 8.226353e-03 5.726373e-03 7.244315e-03 5.199559e-03 6.765749e-03 5.196923e-03 6.898836e-03 5.786893e-03 7.677680e-03 7.005099e-03 9.035430e-03 8.762353e-03 1.079223e-02 1.084111e-02 1.268841e-02 1.297273e-02 1.444517e-02 1.490775e-02 1.583281e-02 1.645633e-02 1.673554e-02 1.752055e-02 1.719185e-02 1.813964e-02 1.737704e-02 1.850888e-02 1.752085e-02 1.889737e-02 1.781998e-02 1.953965e-02 1.838846e-02 2.054875e-02 1.923867e-02 2.186599e-02 2.029469e-02 2.325819e-02 2.142043e-02 2.438148e-02 2.243103e-02 2.492027e-02 2.311219e-02 2.472612e-02 2.329718e-02 2.383770e-02 2.292873e-02 2.241400e-02 2.206105e-02 2.065164e-02 2.081626e-02 1.872594e-02 1.933167e-02 1.676358e-02 1.772191e-02 
1.316441e-02 1.449982e-02 1.269596e-02 1.410741e-02 1.238199e-02 1.373911e-02 1.211732e-02 1.334529e-02 1.180654e-02 1.289114e-02 1.139466e-02 1.238499e-02 1.089979e-02 1.190273e-02 1.043266e-02 1.158739e-02 1.017941e-02 1.160505e-02 1.033478e-02 1.206802e-02 1.101014e-02 1.297700e-02 1.217782e-02 1.422570e-02 1.370650e-02 1.565254e-02 1.542737e-02 1.708181e-02 1.716168e-02 1.834844e-02 1.872855e-02 1.933212e-02 1.997717e-02 1.999560e-02 2.084710e-02 2.039414e-02 2.140796e-02 2.064287e-02 2.182033e-02 2.085246e-02 2.223720e-02 2.106141e-02 2.270838e-02 2.120932e-02 2.314225e-02 2.117785e-02 2.334233e-02 2.087591e-02 2.310244e-02 2.030098e-02 2.231659e-02 1.952704e-02 2.103915e-02 1.865524e-02 1.945064e-02 1.777174e-02 1.777564e-02 1.693384e-02 1.621166e-02 1.617546e-02 1.489210e-02 1.551549e-02 1.387782e-02 1.496003e-02 
1.448955e-02 1.529542e-02 1.295408e-02 1.396257e-02 1.150818e-02 1.266104e-02 1.017991e-02 1.142568e-02 9.009520e-03 1.030812e-02 8.054758e-03 9.382663e-03 7.384221e-03 8.739256e-03 7.062292e-03 8.464303e-03 7.138508e-03 8.617465e-03 7.644623e-03 9.212393e-03 8.581063e-03 1.020195e-02 9.887713e-03 1.147378e-02 1.143757e-02 1.286757e-02 1.306483e-02 1.421018e-02 1.460436e-02 1.535673e-02 1.592540e-02 1.622719e-02 1.695942e-02 1.682643e-02 1.772201e-02 1.723556e-02 1.831184e-02 1.757408e-02 1.886878e-02 1.795333e-02 1.951477e-02 1.844262e-02 2.030276e-02 1.905337e-02 2.118856e-02 1.974115e-02 2.203444e-02 2.041851e-02 2.265007e-02 2.097033e-02 2.286337e-02 2.127621e-02 2.258553e-02 2.124627e-02 2.182884e-02 2.084851e-02 2.068127e-02 2.011164e-02 1.926501e-02 1.910636e-02 1.770068e-02 1.791875e-02 1.608607e-02 1.662813e-02 
1.314574e-02 1.396909e-02 1.263930e-02 1.360704e-02 1.227639e-02 1.328102e-02 1.198344e-02 1.296062e-02 1.169749e-02 1.263220e-02 1.138848e-02 1.231387e-02 1.107723e-02 1.206407e-02 1.084104e-02 1.197387e-02 1.079661e-02 1.213820e-02 1.105868e-02 1.261620e-02 1.169091e-02 1.340390e-02 1.267846e-02 1.443481e-02 1.393925e-02 1.560219e-02 1.535418e-02 1.678450e-02 1.679118e-02 1.786753e-02 1.812301e-02 1.876691e-02 1.925077e-02 1.944676e-02 2.013108e-02 1.992286e-02 2.078774e-02 2.024443e-02 2.128906e-02 2.046073e-02 2.169972e-02 2.058858e-02 2.203463e-02 2.060079e-02 2.224058e-02 2.044486e-02 2.221563e-02 2.008052e-02 2.185785e-02 1.950911e-02 2.111984e-02 1.877520e-02 2.003893e-02 1.794814e-02 1.872600e-02 1.709958e-02 1.732758e-02 1.628867e-02 1.598551e-02 1.555645e-02 1.480852e-02 1.492535e-02 1.385808e-02 1.440011e-02 
1.410557e-02 1.457504e-02 1.284798e-02 1.353912e-02 1.169030e-02 1.255790e-02 1.066207e-02 1.166270e-02 9.795557e-03 1.089149e-02 9.128026e-03 1.029133e-02 8.698594e-03 9.914321e-03 8.542012e-03 9.807786e-03 8.683586e-03 1.000202e-02 9.135430e-03 1.049938e-02 9.888869e-03 1.126640e-02 1.090270e-02 1.223227e-02 1.209923e-02 1.329791e-02 1.337526e-02 1.435505e-02 1.462300e-02 1.530988e-02 1.575283e-02 1.610415e-02 1.671278e-02 1.672690e-02 1.750053e-02 1.721110e-02 1.816007e-02 1.761535e-02 1.875884e-02 1.799881e-02 1.935495e-02 1.839974e-02 1.996824e-02 1.882362e-02 2.056493e-02 1.924205e-02 2.106200e-02 1.960034e-02 2.135184e-02 1.983004e-02 2.133965e-02 1.986534e-02 2.097647e-02 1.966139e-02 2.027111e-02 1.920670e-02 1.928009e-02 1.852425e-02 1.808619e-02 1.766218e-02 1.677702e-02 1.667972e-02 1.542997e-02 1.563453e-02 
1.311711e-02 1.350637e-02 1.260787e-02 1.318377e-02 1.224010e-02 1.291692e-02 1.195945e-02 1.268321e-02 1.171997e-02 1.247557e-02 1.150142e-02 1.231090e-02 1.132044e-02 1.223181e-02 1.123079e-02 1.229761e-02 1.130901e-02 1.256476e-02 1.162722e-02 1.306418e-02 1.222393e-02 1.378716e-02 1.308807e-02 1.468605e-02 1.416322e-02 1.568628e-02 1.536399e-02 1.670221e-02 1.659372e-02 1.765254e-02 1.776015e-02 1.847447e-02 1.879110e-02 1.913378e-02 1.964783e-02 1.962605e-02 2.032815e-02 1.996696e-02 2.085354e-02 2.017500e-02 2.124495e-02 2.025544e-02 2.150021e-02 2.019453e-02 2.158550e-02 1.996824e-02 2.144608e-02 1.955989e-02 2.103180e-02 1.897565e-02 2.032534e-02 1.824888e-02 1.935848e-02 1.743344e-02 1.820882e-02 1.659153e-02 1.698110e-02 1.578164e-02 1.578356e-02 1.504961e-02 1.470720e-02 1.442357e-02 1.381144e-02 1.391222e-02 
1.367852e-02 1.387059e-02 1.265554e-02 1.309018e-02 1.174923e-02 1.239011e-02 1.098464e-02 1.179234e-02 1.038313e-02 1.131938e-02 9.963784e-03 1.099580e-02 9.742977e-03 1.084677e-02 9.733048e-03 1.089370e-02 9.941249e-03 1.114838e-02 1.036822e-02 1.160710e-02 1.100402e-02 1.224632e-02 1.182204e-02 1.302153e-02 1.277561e-02 1.387158e-02 1.380151e-02 1.472849e-02 1.483032e-02 1.553048e-02 1.580013e-02 1.623429e-02 1.666940e-02 1.682259e-02 1.742455e-02 1.730346e-02 1.807813e-02 1.770153e-02 1.865647e-02 1.804437e-02 1.918152e-02 1.834952e-02 1.965462e-02 1.861651e-02 2.004840e-02 1.882565e-02 2.031046e-02 1.894319e-02 2.037829e-02 1.893055e-02 2.020018e-02 1.875525e-02 1.975316e-02 1.840085e-02 1.905032e-02 1.787241e-02 1.813624e-02 1.719571e-02 1.707499e-02 1.641137e-02 1.593659e-02 1.556640e-02 1.478628e-02 1.470641e-02 
1.304433e-02 1.305886e-02 1.254855e-02 1.277804e-02 1.220034e-02 1.257690e-02 1.195468e-02 1.243318e-02 1.177196e-02 1.233842e-02 1.163338e-02 1.230379e-02 1.154934e-02 1.235938e-02 1.155802e-02 1.254521e-02 1.171300e-02 1.289632e-02 1.206330e-02 1.342781e-02 1.263380e-02 1.412707e-02 1.341499e-02 1.495547e-02 1.436530e-02 1.585681e-02 1.542157e-02 1.676781e-02 1.651142e-02 1.762812e-02 1.756476e-02 1.838885e-02 1.852403e-02 1.901815e-02 1.935141e-02 1.950203e-02 2.003003e-02 1.983925e-02 2.055694e-02 2.003247e-02 2.093086e-02 2.007998e-02 2.114088e-02 1.997275e-02 2.116259e-02 1.969861e-02 2.096430e-02 1.925150e-02 2.052114e-02 1.864062e-02 1.983074e-02 1.789480e-02 1.892288e-02 1.706064e-02 1.785899e-02 1.619563e-02 1.672229e-02 1.535876e-02 1.560296e-02 1.460113e-02 1.458255e-02 1.395827e-02 1.372039e-02 1.344568e-02 
1.319034e-02 1.314606e-02 1.236021e-02 1.258456e-02 1.167300e-02 1.213439e-02 1.114650e-02 1.180570e-02 1.078910e-02 1.160448e-02 1.060152e-02 1.153464e-02 1.057904e-02 1.159900e-02 1.071410e-02 1.179909e-02 1.099883e-02 1.213345e-02 1.142612e-02 1.259500e-02 1.198775e-02 1.316804e-02 1.267002e-02 1.382624e-02 1.344921e-02 1.453339e-02 1.429035e-02 1.524758e-02 1.515070e-02 1.592789e-02 1.598727e-02 1.654172e-02 1.676529e-02 1.706999e-02 1.746423e-02 1.750802e-02 1.807824e-02 1.786154e-02 1.861003e-02 1.813931e-02 1.906096e-02 1.834546e-02 1.942170e-02 1.847461e-02 1.966797e-02 1.851149e-02 1.976354e-02 1.843502e-02 1.967001e-02 1.822530e-02 1.935965e-02 1.787101e-02 1.882622e-02 1.737503e-02 1.808939e-02 1.675626e-02 1.719192e-02 1.604745e-02 1.619178e-02 1.529010e-02 1.515247e-02 1.452812e-02 1.413465e-02 1.380223e-02 
1.290201e-02 1.257907e-02 1.242414e-02 1.233931e-02 1.210966e-02 1.220785e-02 1.191456e-02 1.215706e-02 1.179710e-02 1.217161e-02 1.173399e-02 1.225466e-02 1.172869e-02 1.242664e-02 1.180943e-02 1.271621e-02 1.201743e-02 1.314672e-02 1.238982e-02 1.372425e-02 1.294449e-02 1.443281e-02 1.367320e-02 1.523745e-02 1.454386e-02 1.609184e-02 1.550808e-02 1.694601e-02 1.650973e-02 1.775276e-02 1.749262e-02 1.847242e-02 1.840711e-02 1.907591e-02 1.921492e-02 1.954529e-02 1.989045e-02 1.987112e-02 2.041754e-02 2.004785e-02 2.078321e-02 2.006932e-02 2.097174e-02 1.992721e-02 2.096259e-02 1.961340e-02 2.073428e-02 1.912571e-02 2.027303e-02 1.847419e-02 1.958271e-02 1.768542e-02 1.869172e-02 1.680279e-02 1.765381e-02 1.588259e-02 1.654251e-02 1.498670e-02 1.544098e-02 1.417340e-02 1.442929e-02 1.348812e-02 1.357106e-02 1.295601e-02 
1.261498e-02 1.236178e-02 1.193870e-02 1.198872e-02 1.144528e-02 1.176744e-02 1.114405e-02 1.169510e-02 1.102797e-02 1.175954e-02 1.107668e-02 1.194275e-02 1.126198e-02 1.222509e-02 1.155482e-02 1.258923e-02 1.193190e-02 1.302239e-02 1.237960e-02 1.351583e-02 1.289361e-02 1.406164e-02 1.347405e-02 1.464859e-02 1.411828e-02 1.525921e-02 1.481479e-02 1.586977e-02 1.554132e-02 1.645334e-02 1.626796e-02 1.698460e-02 1.696362e-02 1.744440e-02 1.760249e-02 1.782168e-02 1.816717e-02 1.811203e-02 1.864670e-02 1.831343e-02 1.903082e-02 1.842150e-02 1.930391e-02 1.842669e-02 1.944210e-02 1.831501e-02 1.941598e-02 1.807208e-02 1.919816e-02 1.768916e-02 1.877308e-02 1.716880e-02 1.814483e-02 1.652800e-02 1.734014e-02 1.579802e-02 1.640585e-02 1.502104e-02 1.540230e-02 1.424474e-02 1.439518e-02 1.351646e-02 1.344780e-02 1.287798e-02 
1.266842e-02 1.202414e-02 1.220750e-02 1.182506e-02 1.193902e-02 1.177077e-02 1.181157e-02 1.182187e-02 1.177236e-02 1.195032e-02 1.178752e-02 1.214873e-02 1.185273e-02 1.243006e-02 1.199082e-02 1.281769e-02 1.223857e-02 1.333029e-02 1.262883e-02 1.396936e-02 1.317688e-02 1.471568e-02 1.387590e-02 1.553443e-02 1.470045e-02 1.638349e-02 1.561261e-02 1.722018e-02 1.656739e-02 1.800525e-02 1.751708e-02 1.870512e-02 1.841557e-02 1.929339e-02 1.922263e-02 1.975121e-02 1.990649e-02 2.006581e-02 2.044339e-02 2.022771e-02 2.081427e-02 2.022786e-02 2.100065e-02 2.005669e-02 2.098272e-02 1.970594e-02 2.074170e-02 1.917306e-02 2.026616e-02 1.846682e-02 1.956024e-02 1.761180e-02 1.865017e-02 1.665009e-02 1.758634e-02 1.563920e-02 1.644017e-02 1.464636e-02 1.529634e-02 1.374000e-02 1.424136e-02 1.297929e-02 1.334960e-02 1.240345e-02 
1.191841e-02 1.147452e-02 1.135846e-02 1.126426e-02 1.104124e-02 1.126168e-02 1.096728e-02 1.145018e-02 1.111031e-02 1.179597e-02 1.142277e-02 1.225407e-02 1.184621e-02 1.277731e-02 1.232418e-02 1.332631e-02 1.281432e-02 1.387660e-02 1.329633e-02 1.441993e-02 1.377291e-02 1.495919e-02 1.426263e-02 1.549978e-02 1.478750e-02 1.604169e-02 1.536020e-02 1.657537e-02 1.597639e-02 1.708283e-02 1.661472e-02 1.754239e-02 1.724361e-02 1.793447e-02 1.783075e-02 1.824500e-02 1.835010e-02 1.846502e-02 1.878302e-02 1.858725e-02 1.911383e-02 1.860205e-02 1.932360e-02 1.849570e-02 1.938667e-02 1.825238e-02 1.927313e-02 1.785946e-02 1.895678e-02 1.731399e-02 1.842528e-02 1.662773e-02 1.768812e-02 1.582896e-02 1.677916e-02 1.496074e-02 1.575355e-02 1.407638e-02 1.468078e-02 1.323358e-02 1.363639e-02 1.248837e-02 1.269404e-02 1.188967e-02 
1.232162e-02 1.135333e-02 1.187713e-02 1.119874e-02 1.167386e-02 1.123923e-02 1.164164e-02 1.141369e-02 1.170393e-02 1.167198e-02 1.180788e-02 1.199165e-02 1.194011e-02 1.238032e-02 1.212357e-02 1.286308e-02 1.239912e-02 1.346158e-02 1.280240e-02 1.417703e-02 1.334913e-02 1.498663e-02 1.403384e-02 1.585225e-02 1.483625e-02 1.673165e-02 1.572703e-02 1.758514e-02 1.666972e-02 1.837763e-02 1.762142e-02 1.907907e-02 1.853547e-02 1.966530e-02 1.936684e-02 2.011847e-02 2.007777e-02 2.042585e-02 2.063990e-02 2.057703e-02 2.103192e-02 2.056128e-02 2.123465e-02 2.036653e-02 2.122740e-02 1.998127e-02 2.098870e-02 1.939919e-02 2.050247e-02 1.862524e-02 1.976736e-02 1.768120e-02 1.880532e-02 1.660839e-02 1.766558e-02 1.546693e-02 1.642298e-02 1.433152e-02 1.517126e-02 1.328417e-02 1.401218e-02 1.240353e-02 1.304004e-02 1.175056e-02 
1.105809e-02 1.043786e-02 1.057434e-02 1.036516e-02 1.042293e-02 1.058100e-02 1.059606e-02 1.105455e-02 1.104169e-02 1.172370e-02 1.167403e-02 1.250556e-02 1.239189e-02 1.331381e-02 1.309986e-02 1.407858e-02 1.372869e-02 1.476153e-02 1.425000e-02 1.535927e-02 1.467926e-02 1.589349e-02 1.506393e-02 1.639363e-02 1.546116e-02 1.688033e-02 1.591407e-02 1.735630e-02 1.643631e-02 1.780699e-02 1.700973e-02 1.820874e-02 1.759484e-02 1.853904e-02 1.814757e-02 1.878272e-02 1.863326e-02 1.893122e-02 1.903051e-02 1.897699e-02 1.932477e-02 1.890769e-02 1.949750e-02 1.870422e-02 1.951933e-02 1.834481e-02 1.935231e-02 1.781333e-02 1.896114e-02 1.710818e-02 1.832786e-02 1.624761e-02 1.746283e-02 1.527004e-02 1.640746e-02 1.423034e-02 1.522939e-02 1.319409e-02 1.401354e-02 1.223142e-02 1.285275e-02 1.141140e-02 1.183952e-02 1.079676e-02 
1.183647e-02 1.052499e-02 1.141537e-02 1.042877e-02 1.131570e-02 1.060252e-02 1.142923e-02 1.094434e-02 1.163407e-02 1.136427e-02 1.184474e-02 1.181645e-02 1.203782e-02 1.230663e-02 1.224643e-02 1.287384e-02 1.252925e-02 1.355554e-02 1.293366e-02 1.435857e-02 1.347743e-02 1.525467e-02 1.415464e-02 1.619742e-02 1.494937e-02 1.714022e-02 1.584160e-02 1.804307e-02 1.680347e-02 1.887160e-02 1.779402e-02 1.959621e-02 1.876042e-02 2.019396e-02 1.964727e-02 2.064994e-02 2.040854e-02 2.095511e-02 2.101345e-02 2.110148e-02 2.144326e-02 2.107787e-02 2.168199e-02 2.086841e-02 2.170791e-02 2.045507e-02 2.149180e-02 1.982375e-02 2.100461e-02 1.897242e-02 2.023177e-02 1.791826e-02 1.918698e-02 1.670144e-02 1.791923e-02 1.538500e-02 1.651163e-02 1.405210e-02 1.507473e-02 1.280143e-02 1.373591e-02 1.173878e-02 1.262291e-02 1.096026e-02 
9.983647e-03 9.206335e-03 9.524482e-03 9.235355e-03 9.533127e-03 9.675280e-03 9.995384e-03 1.048167e-02 1.082144e-02 1.155147e-02 1.186869e-02 1.274321e-02 1.297298e-02 1.390912e-02 1.398017e-02 1.493218e-02 1.477924e-02 1.575586e-02 1.533034e-02 1.639104e-02 1.567254e-02 1.689557e-02 1.590289e-02 1.733936e-02 1.613494e-02 1.777239e-02 1.645578e-02 1.820801e-02 1.689865e-02 1.862563e-02 1.743933e-02 1.898871e-02 1.801570e-02 1.926614e-02 1.856007e-02 1.944375e-02 1.902647e-02 1.952056e-02 1.939792e-02 1.949599e-02 1.967208e-02 1.935773e-02 1.983817e-02 1.907833e-02 1.986140e-02 1.862293e-02 1.968511e-02 1.796472e-02 1.925031e-02 1.709934e-02 1.852172e-02 1.605087e-02 1.750588e-02 1.486889e-02 1.625378e-02 1.362090e-02 1.485130e-02 1.238460e-02 1.340541e-02 1.124218e-02 1.203285e-02 1.027724e-02 1.085331e-02 9.572835e-03 
1.118230e-02 9.493894e-03 1.081005e-02 9.491416e-03 1.089246e-02 9.878786e-03 1.124562e-02 1.047286e-02 1.166272e-02 1.110946e-02 1.200327e-02 1.170456e-02 1.223461e-02 1.227004e-02 1.242145e-02 1.288435e-02 1.266785e-02 1.362731e-02 1.304711e-02 1.452126e-02 1.357612e-02 1.552538e-02 1.424152e-02 1.657483e-02 1.503123e-02 1.761415e-02 1.593959e-02 1.860110e-02 1.695130e-02 1.949760e-02 1.802476e-02 2.026856e-02 1.909108e-02 2.088974e-02 2.007286e-02 2.135260e-02 2.091007e-02 2.165832e-02 2.157292e-02 2.180666e-02 2.205434e-02 2.178781e-02 2.235029e-02 2.158007e-02 2.244046e-02 2.115394e-02 2.228128e-02 2.048187e-02 2.181758e-02 1.955032e-02 2.100846e-02 1.836947e-02 1.985256e-02 1.697720e-02 1.839928e-02 1.543843e-02 1.674574e-02 1.384365e-02 1.502776e-02 1.230884e-02 1.341047e-02 1.097499e-02 1.207469e-02 9.995748e-03 
8.644496e-03 7.755839e-03 8.126825e-03 7.811248e-03 8.286464e-03 8.472834e-03 9.108595e-03 9.687810e-03 1.044031e-02 1.128661e-02 1.205217e-02 1.303081e-02 1.368764e-02 1.467038e-02 1.510089e-02 1.600920e-02 1.611049e-02 1.696428e-02 1.665667e-02 1.758095e-02 1.682247e-02 1.798854e-02 1.679453e-02 1.833000e-02 1.678289e-02 1.870127e-02 1.694274e-02 1.912228e-02 1.732864e-02 1.954644e-02 1.789169e-02 1.990125e-02 1.851757e-02 2.013547e-02 1.909026e-02 2.024124e-02 1.954708e-02 2.024009e-02 1.989047e-02 2.015212e-02 2.015370e-02 1.996974e-02 2.034979e-02 1.965036e-02 2.043704e-02 1.913225e-02 2.032134e-02 1.836572e-02 1.989431e-02 1.733979e-02 1.908480e-02 1.608797e-02 1.789122e-02 1.467620e-02 1.638098e-02 1.318701e-02 1.466861e-02 1.170821e-02 1.289099e-02 1.032818e-02 1.119226e-02 9.137900e-03 9.722446e-03 8.239769e-03 
1.032092e-02 8.209266e-03 1.006180e-02 8.382571e-03 1.048277e-02 9.148780e-03 1.124510e-02 1.015254e-02 1.198788e-02 1.109470e-02 1.248100e-02 1.183016e-02 1.268587e-02 1.239199e-02 1.274280e-02 1.295145e-02 1.286167e-02 1.369088e-02 1.316732e-02 1.466671e-02 1.365775e-02 1.580060e-02 1.429119e-02 1.698569e-02 1.506022e-02 1.815574e-02 1.598819e-02 1.926962e-02 1.708388e-02 2.027733e-02 1.830201e-02 2.112283e-02 1.953814e-02 2.177388e-02 2.066786e-02 2.223694e-02 2.160545e-02 2.253777e-02 2.232983e-02 2.269397e-02 2.286552e-02 2.269993e-02 2.323975e-02 2.252412e-02 2.344119e-02 2.211702e-02 2.340155e-02 2.142831e-02 2.301472e-02 2.042645e-02 2.218898e-02 1.911196e-02 2.089686e-02 1.751924e-02 1.919121e-02 1.571284e-02 1.719273e-02 1.378591e-02 1.507227e-02 1.186623e-02 1.304442e-02 1.013203e-02 1.136909e-02 8.826122e-03 
7.026193e-03 6.170947e-03 6.283727e-03 6.051863e-03 6.556710e-03 6.871326e-03 7.849335e-03 8.598568e-03 9.876479e-03 1.093198e-02 1.227811e-02 1.346276e-02 1.467096e-02 1.576492e-02 1.666161e-02 1.749911e-02 1.793847e-02 1.853803e-02 1.839970e-02 1.900530e-02 1.821142e-02 1.917348e-02 1.772926e-02 1.932045e-02 1.733414e-02 1.961747e-02 1.728870e-02 2.007971e-02 1.766737e-02 2.059044e-02 1.835925e-02 2.099093e-02 1.913871e-02 2.118690e-02 1.979091e-02 2.119299e-02 2.022722e-02 2.108717e-02 2.050460e-02 2.093885e-02 2.074328e-02 2.075417e-02 2.101464e-02 2.046092e-02 2.126844e-02 1.994148e-02 2.133590e-02 1.909968e-02 2.100865e-02 1.791582e-02 2.014728e-02 1.644659e-02 1.874136e-02 1.478821e-02 1.689446e-02 1.304416e-02 1.477195e-02 1.130966e-02 1.255289e-02 9.667512e-03 1.040611e-02 8.192742e-03 8.496648e-03 6.974863e-03 
9.204955e-03 6.614163e-03 9.200790e-03 7.152187e-03 1.025633e-02 8.623335e-03 1.171204e-02 1.030329e-02 1.295592e-02 1.168657e-02 1.362006e-02 1.253441e-02 1.365232e-02 1.290906e-02 1.334621e-02 1.317267e-02 1.315764e-02 1.375660e-02 1.331729e-02 1.479459e-02 1.373720e-02 1.608755e-02 1.429196e-02 1.742852e-02 1.498996e-02 1.875825e-02 1.592208e-02 2.006082e-02 1.714654e-02 2.125355e-02 1.860995e-02 2.221484e-02 2.013238e-02 2.288655e-02 2.148713e-02 2.331550e-02 2.253942e-02 2.358571e-02 2.329721e-02 2.375084e-02 2.385990e-02 2.381379e-02 2.432713e-02 2.372563e-02 2.471513e-02 2.339977e-02 2.491264e-02 2.274629e-02 2.471159e-02 2.170635e-02 2.391994e-02 2.026938e-02 2.246836e-02 1.846605e-02 2.042655e-02 1.635756e-02 1.795930e-02 1.403257e-02 1.528481e-02 1.161619e-02 1.267188e-02 9.304801e-03 1.048384e-02 7.449763e-03 
5.319173e-03 5.002597e-03 3.953690e-03 4.154853e-03 4.159246e-03 4.744974e-03 6.105010e-03 7.081559e-03 9.092305e-03 1.047344e-02 1.260229e-02 1.418039e-02 1.611007e-02 1.746927e-02 1.897137e-02 1.971858e-02 2.060967e-02 2.071099e-02 2.082138e-02 2.075025e-02 1.993543e-02 2.039889e-02 1.864204e-02 2.018446e-02 1.763154e-02 2.040387e-02 1.732996e-02 2.104064e-02 1.781701e-02 2.181185e-02 1.885085e-02 2.235974e-02 1.997895e-02 2.250079e-02 2.078111e-02 2.232147e-02 2.112763e-02 2.203319e-02 2.121345e-02 2.181318e-02 2.135745e-02 2.169952e-02 2.176147e-02 2.156030e-02 2.236391e-02 2.115839e-02 2.284330e-02 2.030028e-02 2.278432e-02 1.896298e-02 2.191979e-02 1.726594e-02 2.024485e-02 1.536500e-02 1.795059e-02 1.339439e-02 1.530134e-02 1.145685e-02 1.254414e-02 9.623404e-03 9.869245e-03 7.928403e-03 7.413406e-03 6.374770e-03 
7.776450e-03 4.646924e-03 8.316412e-03 5.993691e-03 1.050450e-02 8.711957e-03 1.306930e-02 1.143757e-02 1.508354e-02 1.347272e-02 1.596198e-02 1.440971e-02 1.555834e-02 1.426616e-02 1.441707e-02 1.372333e-02 1.358274e-02 1.383090e-02 1.353198e-02 1.494041e-02 1.385963e-02 1.645100e-02 1.422751e-02 1.791516e-02 1.472671e-02 1.939216e-02 1.561343e-02 2.098763e-02 1.703700e-02 2.252095e-02 1.892697e-02 2.367022e-02 2.095109e-02 2.430639e-02 2.265149e-02 2.459914e-02 2.379919e-02 2.476863e-02 2.448560e-02 2.493034e-02 2.497809e-02 2.510300e-02 2.553179e-02 2.520829e-02 2.623251e-02 2.508464e-02 2.689505e-02 2.456794e-02 2.709690e-02 2.355974e-02 2.643918e-02 2.204220e-02 2.479519e-02 2.004256e-02 2.229740e-02 1.761647e-02 1.920250e-02 1.484533e-02 1.579459e-02 1.183752e-02 1.238268e-02 8.757336e-03 9.424591e-03 5.982012e-03 
4.601501e-03 5.821443e-03 2.208111e-03 3.827016e-03 8.414199e-04 2.287461e-03 3.892806e-03 4.889834e-03 8.057281e-03 9.839485e-03 1.305917e-02 1.538581e-02 1.826004e-02 2.026176e-02 2.253575e-02 2.323507e-02 2.472403e-02 2.386568e-02 2.435652e-02 2.290152e-02 2.209970e-02 2.149734e-02 1.934901e-02 2.063074e-02 1.736602e-02 2.080949e-02 1.678483e-02 2.193429e-02 1.762927e-02 2.335214e-02 1.942580e-02 2.424528e-02 2.127998e-02 2.424086e-02 2.232543e-02 2.365066e-02 2.236397e-02 2.298717e-02 2.193121e-02 2.264644e-02 2.178370e-02 2.273673e-02 2.239696e-02 2.300997e-02 2.369297e-02 2.296617e-02 2.503249e-02 2.219129e-02 2.555339e-02 2.069347e-02 2.474807e-02 1.876174e-02 2.268370e-02 1.665789e-02 1.976288e-02 1.454538e-02 1.644532e-02 1.253455e-02 1.309943e-02 1.069945e-02 9.960795e-03 9.050126e-03 7.135449e-03 7.492810e-03 
5.966270e-03 2.245261e-03 7.584991e-03 5.396306e-03 1.156622e-02 9.901739e-03 1.577260e-02 1.410115e-02 1.902045e-02 1.718885e-02 2.031309e-02 1.835245e-02 1.910453e-02 1.725857e-02 1.620417e-02 1.493917e-02 1.411122e-02 1.393968e-02 1.396963e-02 1.536642e-02 1.422872e-02 1.722963e-02 1.410758e-02 1.854548e-02 1.408529e-02 1.997386e-02 1.482781e-02 2.206979e-02 1.658036e-02 2.432272e-02 1.922985e-02 2.579958e-02 2.218476e-02 2.619484e-02 2.442950e-02 2.608842e-02 2.555691e-02 2.600306e-02 2.589219e-02 2.611349e-02 2.606639e-02 2.648086e-02 2.664688e-02 2.699491e-02 2.787930e-02 2.731742e-02 2.946473e-02 2.712738e-02 3.050569e-02 2.627974e-02 3.014866e-02 2.477004e-02 2.822548e-02 2.261330e-02 2.506924e-02 1.985973e-02 2.113337e-02 1.660415e-02 1.679878e-02 1.295672e-02 1.237342e-02 9.020437e-03 8.299523e-03 4.958477e-03 