# vtk DataFile Version 2.0
Comment goes here
ASCII

DATASET STRUCTURED_POINTS
DIMENSIONS    64   64   1

ORIGIN    0.000   0.000   0.000
SPACING   0.0156250.015625   1.000

POINT_DATA   4096
SCALARS uMag double
LOOKUP_TABLE default

4.284541e-02 3.489999e-02 2.739597e-02 2.387748e-02 2.149265e-02 2.731436e-02 3.053059e-02 4.140355e-02 4.642848e-02 5.803553e-02 6.372972e-02 7.327291e-02 7.958732e-02 8.434888e-02 9.135897e-02 8.998378e-02 9.739149e-02 9.135136e-02 9.760516e-02 9.033637e-02 9.523442e-02 9.052487e-02 9.704361e-02 9.853302e-02 1.094165e-01 1.177641e-01 1.317699e-01 1.439648e-01 1.573897e-01 1.692212e-01 1.790287e-01 1.875504e-01 1.928274e-01 1.972812e-01 1.986796e-01 1.999063e-01 1.987451e-01 1.985554e-01 1.967246e-01 1.972818e-01 1.966002e-01 1.991592e-01 1.999591e-01 2.037588e-01 2.044001e-01 2.070829e-01 2.053999e-01 2.048278e-01 2.000006e-01 1.956213e-01 1.881223e-01 1.806239e-01 1.709802e-01 1.613178e-01 1.501563e-01 1.393912e-01 1.275089e-01 1.165202e-01 1.046147e-01 9.393150e-02 8.249094e-02 7.236951e-02 6.172517e-02 5.236082e-02 
4.593067e-02 3.995495e-02 3.406926e-02 3.240930e-02 3.103406e-02 3.558631e-02 3.829100e-02 4.656692e-02 5.088093e-02 5.974477e-02 6.436481e-02 7.143875e-02 7.609586e-02 7.955371e-02 8.456128e-02 8.383499e-02 8.950017e-02 8.582692e-02 9.154676e-02 8.724203e-02 9.279301e-02 9.052278e-02 9.734927e-02 9.949413e-02 1.090634e-01 1.161004e-01 1.277377e-01 1.376896e-01 1.490129e-01 1.588540e-01 1.676874e-01 1.751807e-01 1.807416e-01 1.852429e-01 1.878943e-01 1.900139e-01 1.907098e-01 1.917160e-01 1.916786e-01 1.929505e-01 1.932343e-01 1.954676e-01 1.961664e-01 1.987269e-01 1.987032e-01 1.999246e-01 1.976896e-01 1.961026e-01 1.910459e-01 1.863519e-01 1.788410e-01 1.716401e-01 1.622490e-01 1.533840e-01 1.427582e-01 1.330887e-01 1.219204e-01 1.121337e-01 1.010112e-01 9.154501e-02 8.090529e-02 7.204253e-02 6.225288e-02 5.435556e-02 
5.056784e-02 4.557171e-02 4.060820e-02 3.904167e-02 3.748059e-02 4.037484e-02 4.219983e-02 4.829365e-02 5.225208e-02 5.927309e-02 6.440564e-02 7.033906e-02 7.618597e-02 7.949549e-02 8.576387e-02 8.587717e-02 9.221065e-02 8.992831e-02 9.583096e-02 9.295974e-02 9.855425e-02 9.718147e-02 1.035673e-01 1.054175e-01 1.135628e-01 1.190276e-01 1.285489e-01 1.363817e-01 1.457218e-01 1.538389e-01 1.613926e-01 1.680638e-01 1.730473e-01 1.775562e-01 1.800530e-01 1.826169e-01 1.832523e-01 1.846854e-01 1.843764e-01 1.856414e-01 1.851821e-01 1.867878e-01 1.863121e-01 1.878990e-01 1.867499e-01 1.872766e-01 1.845453e-01 1.830066e-01 1.782492e-01 1.742902e-01 1.676423e-01 1.615414e-01 1.533535e-01 1.456803e-01 1.364113e-01 1.278454e-01 1.180325e-01 1.092016e-01 9.935889e-02 9.074977e-02 8.132023e-02 7.332288e-02 6.472355e-02 5.780021e-02 
5.470251e-02 5.076892e-02 4.669762e-02 4.563038e-02 4.445198e-02 4.665744e-02 4.815890e-02 5.269163e-02 5.590877e-02 6.113752e-02 6.523688e-02 6.964726e-02 7.422239e-02 7.676799e-02 8.171179e-02 8.212943e-02 8.739040e-02 8.633059e-02 9.172307e-02 9.044411e-02 9.600801e-02 9.595361e-02 1.022216e-01 1.045438e-01 1.119940e-01 1.169402e-01 1.252821e-01 1.319841e-01 1.401766e-01 1.471467e-01 1.540639e-01 1.600164e-01 1.650475e-01 1.694028e-01 1.725371e-01 1.754054e-01 1.770365e-01 1.789445e-01 1.796358e-01 1.811752e-01 1.813716e-01 1.828008e-01 1.825103e-01 1.835085e-01 1.822409e-01 1.820579e-01 1.791796e-01 1.771369e-01 1.723503e-01 1.682618e-01 1.617182e-01 1.558678e-01 1.479397e-01 1.408403e-01 1.319973e-01 1.242279e-01 1.149761e-01 1.070639e-01 9.787793e-02 9.025172e-02 8.155661e-02 7.459802e-02 6.682396e-02 6.100506e-02 
5.901016e-02 5.560477e-02 5.204218e-02 5.096685e-02 4.976837e-02 5.124055e-02 5.236949e-02 5.577712e-02 5.871616e-02 6.289568e-02 6.705793e-02 7.081218e-02 7.574822e-02 7.819315e-02 8.356018e-02 8.440111e-02 8.990586e-02 8.956600e-02 9.499359e-02 9.442923e-02 9.985959e-02 1.001878e-01 1.060309e-01 1.081264e-01 1.147147e-01 1.187966e-01 1.259381e-01 1.314378e-01 1.384105e-01 1.442785e-01 1.502400e-01 1.554851e-01 1.598953e-01 1.639688e-01 1.667231e-01 1.695750e-01 1.709091e-01 1.728387e-01 1.731613e-01 1.745606e-01 1.742197e-01 1.752790e-01 1.743337e-01 1.748657e-01 1.730466e-01 1.725724e-01 1.695000e-01 1.675529e-01 1.630296e-01 1.594320e-01 1.535344e-01 1.484386e-01 1.414167e-01 1.351879e-01 1.273913e-01 1.204962e-01 1.123310e-01 1.052437e-01 9.712355e-02 9.027469e-02 8.260087e-02 7.639678e-02 6.958270e-02 6.448215e-02 
6.287671e-02 6.000829e-02 5.691668e-02 5.596257e-02 5.489431e-02 5.590289e-02 5.674777e-02 5.922310e-02 6.154763e-02 6.463415e-02 6.795887e-02 7.078977e-02 7.476807e-02 7.674216e-02 8.116756e-02 8.213239e-02 8.686942e-02 8.716034e-02 9.210618e-02 9.239603e-02 9.757390e-02 9.863057e-02 1.042226e-01 1.066291e-01 1.127656e-01 1.166476e-01 1.231459e-01 1.280832e-01 1.344269e-01 1.396544e-01 1.452362e-01 1.500116e-01 1.544120e-01 1.582943e-01 1.613862e-01 1.642904e-01 1.661852e-01 1.682709e-01 1.691914e-01 1.706738e-01 1.707939e-01 1.717455e-01 1.710509e-01 1.712968e-01 1.695714e-01 1.687624e-01 1.657408e-01 1.635688e-01 1.591367e-01 1.555241e-01 1.497914e-01 1.449143e-01 1.381506e-01 1.323509e-01 1.249155e-01 1.186082e-01 1.108992e-01 1.045004e-01 9.691533e-02 9.080889e-02 8.373243e-02 7.828672e-02 7.211067e-02 6.772600e-02 
6.643748e-02 6.388779e-02 6.112599e-02 6.017888e-02 5.914644e-02 5.981162e-02 6.048454e-02 6.240110e-02 6.452825e-02 6.706320e-02 7.029817e-02 7.277297e-02 7.678202e-02 7.869131e-02 8.318785e-02 8.436009e-02 8.911370e-02 8.976310e-02 9.463017e-02 9.525879e-02 1.002426e-01 1.014413e-01 1.066692e-01 1.088904e-01 1.144460e-01 1.178050e-01 1.235485e-01 1.277598e-01 1.333082e-01 1.378145e-01 1.426976e-01 1.469189e-01 1.507769e-01 1.543185e-01 1.570026e-01 1.597232e-01 1.612786e-01 1.632338e-01 1.638139e-01 1.651267e-01 1.648715e-01 1.655885e-01 1.645205e-01 1.645319e-01 1.625421e-01 1.616216e-01 1.585623e-01 1.565014e-01 1.523130e-01 1.490498e-01 1.438170e-01 1.394725e-01 1.333996e-01 1.282374e-01 1.216084e-01 1.159743e-01 1.091189e-01 1.033844e-01 9.664809e-02 9.117646e-02 8.490588e-02 8.004999e-02 7.459615e-02 7.071435e-02 
6.966025e-02 6.738420e-02 6.486959e-02 6.392532e-02 6.290945e-02 6.325753e-02 6.368231e-02 6.502811e-02 6.667643e-02 6.854899e-02 7.114504e-02 7.305800e-02 7.635333e-02 7.796272e-02 8.176553e-02 8.297388e-02 8.714226e-02 8.811584e-02 9.255519e-02 9.364578e-02 9.833055e-02 9.993937e-02 1.049008e-01 1.073228e-01 1.125575e-01 1.158477e-01 1.212126e-01 1.251439e-01 1.303406e-01 1.344912e-01 1.391609e-01 1.430843e-01 1.469359e-01 1.503097e-01 1.531916e-01 1.558704e-01 1.577644e-01 1.597412e-01 1.607027e-01 1.620181e-01 1.620955e-01 1.627407e-01 1.619119e-01 1.617820e-01 1.599523e-01 1.588811e-01 1.559509e-01 1.538084e-01 1.497629e-01 1.465430e-01 1.414937e-01 1.373376e-01 1.315047e-01 1.266666e-01 1.203418e-01 1.151385e-01 1.086491e-01 1.034147e-01 9.709536e-02 9.215380e-02 8.633233e-02 8.199250e-02 7.698737e-02 7.354608e-02 
7.244921e-02 7.038162e-02 6.809879e-02 6.717784e-02 6.621382e-02 6.640045e-02 6.674248e-02 6.781149e-02 6.932507e-02 7.091597e-02 7.339406e-02 7.512116e-02 7.833643e-02 7.990879e-02 8.364709e-02 8.495712e-02 8.903938e-02 9.018780e-02 9.449227e-02 9.573582e-02 1.002151e-01 1.018590e-01 1.065170e-01 1.087904e-01 1.136069e-01 1.165598e-01 1.214130e-01 1.248825e-01 1.295344e-01 1.332014e-01 1.373611e-01 1.408683e-01 1.442855e-01 1.473489e-01 1.498746e-01 1.523353e-01 1.539285e-01 1.557369e-01 1.564262e-01 1.575829e-01 1.574076e-01 1.578949e-01 1.568567e-01 1.566021e-01 1.546596e-01 1.535546e-01 1.506650e-01 1.486273e-01 1.448041e-01 1.418391e-01 1.371834e-01 1.334075e-01 1.281030e-01 1.237278e-01 1.180183e-01 1.133171e-01 1.074819e-01 1.027531e-01 9.708415e-02 9.262520e-02 8.741241e-02 8.350604e-02 7.902844e-02 7.593414e-02 
7.497171e-02 7.304347e-02 7.088361e-02 6.993160e-02 6.893246e-02 6.890579e-02 6.903790e-02 6.975427e-02 7.090151e-02 7.209109e-02 7.409149e-02 7.547754e-02 7.816343e-02 7.954618e-02 8.276692e-02 8.407978e-02 8.771022e-02 8.902860e-02 9.297466e-02 9.447431e-02 9.867774e-02 1.005597e-01 1.049838e-01 1.073888e-01 1.119753e-01 1.149143e-01 1.195376e-01 1.228690e-01 1.273266e-01 1.307957e-01 1.348480e-01 1.381684e-01 1.415994e-01 1.445325e-01 1.471936e-01 1.495870e-01 1.514037e-01 1.531834e-01 1.541318e-01 1.552615e-01 1.553310e-01 1.557683e-01 1.549333e-01 1.546084e-01 1.528289e-01 1.516625e-01 1.489164e-01 1.468651e-01 1.431900e-01 1.402891e-01 1.358041e-01 1.321825e-01 1.270827e-01 1.229471e-01 1.174815e-01 1.130873e-01 1.075334e-01 1.031534e-01 9.779368e-02 9.369468e-02 8.880083e-02 8.522896e-02 8.105059e-02 7.821981e-02 
7.706384e-02 7.527106e-02 7.327425e-02 7.234739e-02 7.139616e-02 7.129407e-02 7.138375e-02 7.196413e-02 7.301886e-02 7.406950e-02 7.596307e-02 7.725967e-02 7.984092e-02 8.121104e-02 8.432594e-02 8.569632e-02 8.920628e-02 9.061551e-02 9.441224e-02 9.598280e-02 9.999431e-02 1.018743e-01 1.060502e-01 1.083452e-01 1.126210e-01 1.153390e-01 1.196003e-01 1.226315e-01 1.267053e-01 1.298479e-01 1.335304e-01 1.365479e-01 1.396496e-01 1.423315e-01 1.447130e-01 1.469095e-01 1.484923e-01 1.501148e-01 1.508675e-01 1.518650e-01 1.517767e-01 1.521048e-01 1.511643e-01 1.507700e-01 1.489638e-01 1.477951e-01 1.451281e-01 1.431647e-01 1.396874e-01 1.369707e-01 1.327958e-01 1.294420e-01 1.247423e-01 1.209336e-01 1.159274e-01 1.118908e-01 1.068218e-01 1.028037e-01 9.792215e-02 9.416530e-02 8.971217e-02 8.643943e-02 8.263442e-02 8.003394e-02 
7.892441e-02 7.719813e-02 7.525168e-02 7.428800e-02 7.327870e-02 7.303667e-02 7.295176e-02 7.331713e-02 7.409251e-02 7.490512e-02 7.644360e-02 7.754051e-02 7.973056e-02 8.099019e-02 8.371975e-02 8.509151e-02 8.825697e-02 8.976564e-02 9.327792e-02 9.500131e-02 9.878740e-02 1.008152e-01 1.048088e-01 1.071958e-01 1.113159e-01 1.140442e-01 1.181735e-01 1.211398e-01 1.251194e-01 1.281523e-01 1.318000e-01 1.347010e-01 1.378417e-01 1.404281e-01 1.429206e-01 1.450519e-01 1.467984e-01 1.483789e-01 1.493185e-01 1.502826e-01 1.503764e-01 1.506697e-01 1.498897e-01 1.494612e-01 1.477923e-01 1.466042e-01 1.440610e-01 1.421117e-01 1.387583e-01 1.361042e-01 1.320653e-01 1.288285e-01 1.242850e-01 1.206440e-01 1.158176e-01 1.119879e-01 1.071204e-01 1.033309e-01 9.866422e-02 9.513631e-02 9.089619e-02 8.782716e-02 8.421061e-02 8.175970e-02 
8.040497e-02 7.875424e-02 7.691291e-02 7.596234e-02 7.498504e-02 7.470443e-02 7.459209e-02 7.489156e-02 7.560025e-02 7.635073e-02 7.780159e-02 7.886690e-02 8.095876e-02 8.222993e-02 8.485228e-02 8.627273e-02 8.931798e-02 9.089012e-02 9.426314e-02 9.603353e-02 9.965456e-02 1.016825e-01 1.054789e-01 1.077990e-01 1.116880e-01 1.142800e-01 1.181506e-01 1.209272e-01 1.246365e-01 1.274545e-01 1.308403e-01 1.335303e-01 1.364351e-01 1.388342e-01 1.411267e-01 1.431019e-01 1.446874e-01 1.461414e-01 1.469590e-01 1.478223e-01 1.478353e-01 1.480547e-01 1.472424e-01 1.467752e-01 1.451342e-01 1.439554e-01 1.415107e-01 1.396290e-01 1.364485e-01 1.339219e-01 1.301244e-01 1.270669e-01 1.228186e-01 1.193936e-01 1.148963e-01 1.113010e-01 1.067742e-01 1.032191e-01 9.888252e-02 9.557173e-02 9.162997e-02 8.874461e-02 8.537536e-02 8.305973e-02 
8.166082e-02 8.003242e-02 7.819626e-02 7.721083e-02 7.616554e-02 7.579665e-02 7.553960e-02 7.571532e-02 7.621072e-02 7.683161e-02 7.801948e-02 7.898296e-02 8.078804e-02 8.201219e-02 8.435167e-02 8.579111e-02 8.858112e-02 9.022940e-02 9.338968e-02 9.526749e-02 9.872218e-02 1.008551e-01 1.045271e-01 1.069199e-01 1.107195e-01 1.133351e-01 1.171491e-01 1.199008e-01 1.235897e-01 1.263492e-01 1.297572e-01 1.323754e-01 1.353476e-01 1.376794e-01 1.400793e-01 1.420006e-01 1.437201e-01 1.451341e-01 1.460943e-01 1.469276e-01 1.470752e-01 1.472715e-01 1.465759e-01 1.460938e-01 1.445504e-01 1.433710e-01 1.410109e-01 1.391506e-01 1.360510e-01 1.335739e-01 1.298627e-01 1.268840e-01 1.227342e-01 1.194142e-01 1.150305e-01 1.115589e-01 1.071590e-01 1.037357e-01 9.953274e-02 9.634896e-02 9.253538e-02 8.975733e-02 8.649434e-02 8.425054e-02 
8.259856e-02 8.098883e-02 7.920334e-02 7.820790e-02 7.717096e-02 7.677325e-02 7.648953e-02 7.663299e-02 7.707613e-02 7.767822e-02 7.879656e-02 7.976754e-02 8.149086e-02 8.275288e-02 8.500002e-02 8.650110e-02 8.918759e-02 9.090564e-02 9.394945e-02 9.588490e-02 9.920781e-02 1.013669e-01 1.048897e-01 1.072641e-01 1.108970e-01 1.134469e-01 1.170808e-01 1.197273e-01 1.232323e-01 1.258624e-01 1.290948e-01 1.315772e-01 1.343943e-01 1.365982e-01 1.388729e-01 1.406828e-01 1.423123e-01 1.436352e-01 1.445430e-01 1.453069e-01 1.454410e-01 1.455916e-01 1.449228e-01 1.444228e-01 1.429482e-01 1.417829e-01 1.395339e-01 1.377221e-01 1.347732e-01 1.323766e-01 1.288488e-01 1.259763e-01 1.220325e-01 1.188341e-01 1.146668e-01 1.113212e-01 1.071357e-01 1.038320e-01 9.982871e-02 9.674867e-02 9.310885e-02 9.041080e-02 8.728594e-02 8.509262e-02 
8.330098e-02 8.168150e-02 7.987043e-02 7.884210e-02 7.773250e-02 7.728347e-02 7.687903e-02 7.696372e-02 7.724397e-02 7.779551e-02 7.872093e-02 7.966589e-02 8.118279e-02 8.245510e-02 8.450044e-02 8.605093e-02 8.855681e-02 9.035556e-02 9.325221e-02 9.528315e-02 9.849883e-02 1.007480e-01 1.042047e-01 1.066461e-01 1.102521e-01 1.128354e-01 1.164791e-01 1.191248e-01 1.226737e-01 1.252762e-01 1.285838e-01 1.310236e-01 1.339419e-01 1.360997e-01 1.384922e-01 1.402610e-01 1.420129e-01 1.433035e-01 1.443256e-01 1.450669e-01 1.452969e-01 1.454344e-01 1.448379e-01 1.443347e-01 1.429095e-01 1.417520e-01 1.395356e-01 1.377436e-01 1.348193e-01 1.324545e-01 1.289526e-01 1.261219e-01 1.222126e-01 1.190630e-01 1.149424e-01 1.116486e-01 1.075208e-01 1.042673e-01 1.003273e-01 9.729057e-02 9.371013e-02 9.104282e-02 8.796128e-02 8.578058e-02 
8.374096e-02 8.208133e-02 8.026650e-02 7.919625e-02 7.806622e-02 7.758239e-02 7.714410e-02 7.721114e-02 7.744683e-02 7.800666e-02 7.887832e-02 7.986232e-02 8.131670e-02 8.265750e-02 8.463155e-02 8.627206e-02 8.869802e-02 9.059518e-02 9.340360e-02 9.552571e-02 9.864507e-02 1.009635e-01 1.043158e-01 1.067940e-01 1.102884e-01 1.128719e-01 1.163997e-01 1.190116e-01 1.224460e-01 1.249892e-01 1.281922e-01 1.305585e-01 1.333913e-01 1.354727e-01 1.378077e-01 1.395065e-01 1.412352e-01 1.424689e-01 1.435050e-01 1.442067e-01 1.444871e-01 1.446048e-01 1.440908e-01 1.435880e-01 1.422708e-01 1.411326e-01 1.390414e-01 1.372832e-01 1.344925e-01 1.321697e-01 1.288016e-01 1.260138e-01 1.222313e-01 1.191186e-01 1.151125e-01 1.118441e-01 1.078147e-01 1.045722e-01 1.007116e-01 9.767035e-02 9.414846e-02 9.146190e-02 8.841732e-02 8.620482e-02 
8.392906e-02 8.223032e-02 8.036600e-02 7.926172e-02 7.805540e-02 7.754789e-02 7.700745e-02 7.706731e-02 7.717928e-02 7.775440e-02 7.848795e-02 7.951371e-02 8.082509e-02 8.223436e-02 8.407161e-02 8.580260e-02 8.810961e-02 9.010991e-02 9.282815e-02 9.505381e-02 9.812037e-02 1.005303e-01 1.038724e-01 1.064201e-01 1.099481e-01 1.125739e-01 1.161762e-01 1.188030e-01 1.223461e-01 1.248817e-01 1.282170e-01 1.305604e-01 1.335366e-01 1.355881e-01 1.380633e-01 1.397326e-01 1.415848e-01 1.427950e-01 1.439272e-01 1.446150e-01 1.449571e-01 1.450716e-01 1.445833e-01 1.440874e-01 1.427634e-01 1.416393e-01 1.395172e-01 1.377760e-01 1.349420e-01 1.326338e-01 1.292219e-01 1.264417e-01 1.226247e-01 1.195094e-01 1.154831e-01 1.122010e-01 1.081652e-01 1.048985e-01 1.010401e-01 9.796664e-02 9.444697e-02 9.172273e-02 8.867086e-02 8.641829e-02 
8.389109e-02 8.208832e-02 8.016365e-02 7.897802e-02 7.771912e-02 7.716131e-02 7.657631e-02 7.662355e-02 7.669627e-02 7.730018e-02 7.799527e-02 7.909083e-02 8.036013e-02 8.187501e-02 8.366401e-02 8.552668e-02 8.777916e-02 8.992405e-02 9.258316e-02 9.495167e-02 9.795660e-02 1.004937e-01 1.037732e-01 1.064214e-01 1.098868e-01 1.125796e-01 1.161207e-01 1.187798e-01 1.222664e-01 1.248031e-01 1.280928e-01 1.304143e-01 1.333640e-01 1.353810e-01 1.378588e-01 1.394919e-01 1.413838e-01 1.425662e-01 1.437787e-01 1.444543e-01 1.449138e-01 1.450346e-01 1.446904e-01 1.442167e-01 1.430477e-01 1.419539e-01 1.399796e-01 1.382655e-01 1.355563e-01 1.332596e-01 1.299388e-01 1.271443e-01 1.233805e-01 1.202203e-01 1.162104e-01 1.128535e-01 1.088027e-01 1.054370e-01 1.015394e-01 9.835091e-02 9.477600e-02 9.193055e-02 8.881512e-02 8.644510e-02 
8.359310e-02 8.171802e-02 7.972138e-02 7.849570e-02 7.715496e-02 7.659586e-02 7.592231e-02 7.600974e-02 7.599035e-02 7.667392e-02 7.727593e-02 7.848379e-02 7.966193e-02 8.131089e-02 8.301544e-02 8.502092e-02 8.720357e-02 8.948711e-02 9.210186e-02 9.459418e-02 9.759216e-02 1.002310e-01 1.035510e-01 1.062752e-01 1.098333e-01 1.125762e-01 1.162595e-01 1.189449e-01 1.226121e-01 1.251551e-01 1.286455e-01 1.309583e-01 1.341069e-01 1.361061e-01 1.387597e-01 1.403728e-01 1.424003e-01 1.435674e-01 1.448644e-01 1.455350e-01 1.460235e-01 1.461524e-01 1.457827e-01 1.453284e-01 1.440867e-01 1.430171e-01 1.409358e-01 1.392407e-01 1.364073e-01 1.341134e-01 1.306693e-01 1.278528e-01 1.239808e-01 1.207698e-01 1.166739e-01 1.132390e-01 1.091234e-01 1.056593e-01 1.017111e-01 9.841374e-02 9.479253e-02 9.183918e-02 8.867312e-02 8.620762e-02 
8.307141e-02 8.102072e-02 7.890297e-02 7.754947e-02 7.612189e-02 7.549105e-02 7.476258e-02 7.483865e-02 7.478758e-02 7.552005e-02 7.610172e-02 7.741418e-02 7.857253e-02 8.037324e-02 8.205249e-02 8.424486e-02 8.639645e-02 8.888749e-02 9.146919e-02 9.417376e-02 9.714149e-02 9.998162e-02 1.032772e-01 1.061777e-01 1.097177e-01 1.126010e-01 1.162716e-01 1.190552e-01 1.227153e-01 1.253141e-01 1.288069e-01 1.311393e-01 1.343091e-01 1.363037e-01 1.390103e-01 1.406100e-01 1.427355e-01 1.438959e-01 1.453421e-01 1.460247e-01 1.467082e-01 1.468722e-01 1.467246e-01 1.463228e-01 1.453014e-01 1.442859e-01 1.423918e-01 1.407299e-01 1.380246e-01 1.357207e-01 1.323311e-01 1.294461e-01 1.255538e-01 1.222125e-01 1.180314e-01 1.144129e-01 1.101633e-01 1.064791e-01 1.023668e-01 9.883308e-02 9.503633e-02 9.185016e-02 8.851384e-02 8.583673e-02 
8.231046e-02 8.014427e-02 7.792798e-02 7.652136e-02 7.500114e-02 7.438901e-02 7.358070e-02 7.374769e-02 7.363186e-02 7.451738e-02 7.504629e-02 7.655475e-02 7.766688e-02 7.968216e-02 8.131896e-02 8.372049e-02 8.583766e-02 8.851392e-02 9.108187e-02 9.393749e-02 9.693029e-02 9.988530e-02 1.032627e-01 1.062455e-01 1.099353e-01 1.128743e-01 1.167612e-01 1.195793e-01 1.235060e-01 1.261222e-01 1.299030e-01 1.322383e-01 1.356822e-01 1.376688e-01 1.406032e-01 1.421900e-01 1.444738e-01 1.456253e-01 1.471489e-01 1.478356e-01 1.485133e-01 1.486998e-01 1.484676e-01 1.481049e-01 1.469312e-01 1.459608e-01 1.438661e-01 1.422378e-01 1.393104e-01 1.370090e-01 1.334043e-01 1.304750e-01 1.263966e-01 1.229579e-01 1.186285e-01 1.148643e-01 1.104997e-01 1.066352e-01 1.024285e-01 9.869921e-02 9.481471e-02 9.143903e-02 8.801182e-02 8.517251e-02 
8.127320e-02 7.884977e-02 7.644459e-02 7.485663e-02 7.321408e-02 7.250530e-02 7.163648e-02 7.179385e-02 7.166238e-02 7.262126e-02 7.315590e-02 7.481177e-02 7.593002e-02 7.815473e-02 7.978702e-02 8.244572e-02 8.454864e-02 8.751351e-02 9.006641e-02 9.322401e-02 9.621128e-02 9.946228e-02 1.028495e-01 1.061028e-01 1.098169e-01 1.129829e-01 1.169027e-01 1.198908e-01 1.238532e-01 1.265766e-01 1.303963e-01 1.327814e-01 1.362786e-01 1.382740e-01 1.412975e-01 1.428761e-01 1.453092e-01 1.464615e-01 1.482089e-01 1.489266e-01 1.498963e-01 1.501525e-01 1.502502e-01 1.499865e-01 1.491320e-01 1.482616e-01 1.464222e-01 1.448543e-01 1.420761e-01 1.397552e-01 1.361737e-01 1.331204e-01 1.289431e-01 1.252750e-01 1.207467e-01 1.166691e-01 1.120366e-01 1.078085e-01 1.032976e-01 9.919025e-02 9.499534e-02 9.125867e-02 8.754121e-02 8.438309e-02 
8.007843e-02 7.747882e-02 7.493635e-02 7.327133e-02 7.151441e-02 7.084351e-02 6.989765e-02 7.020743e-02 7.003812e-02 7.124394e-02 7.176786e-02 7.372880e-02 7.484442e-02 7.738862e-02 7.901186e-02 8.196467e-02 8.405171e-02 8.725861e-02 8.980583e-02 9.314398e-02 9.616562e-02 9.954141e-02 1.030354e-01 1.063719e-01 1.102878e-01 1.135102e-01 1.177301e-01 1.207583e-01 1.250964e-01 1.278475e-01 1.320731e-01 1.344730e-01 1.383490e-01 1.403454e-01 1.436700e-01 1.452401e-01 1.478651e-01 1.490112e-01 1.508310e-01 1.515605e-01 1.524852e-01 1.527830e-01 1.527257e-01 1.525332e-01 1.514281e-01 1.506435e-01 1.484854e-01 1.469890e-01 1.438666e-01 1.415685e-01 1.376645e-01 1.345567e-01 1.301129e-01 1.263017e-01 1.215719e-01 1.172711e-01 1.124881e-01 1.079809e-01 1.033451e-01 9.893483e-02 9.461737e-02 9.058793e-02 8.673775e-02 8.332994e-02 
7.846798e-02 7.551758e-02 7.270632e-02 7.079906e-02 6.888314e-02 6.808923e-02 6.708849e-02 6.739499e-02 6.724474e-02 6.855725e-02 6.912958e-02 7.129191e-02 7.244588e-02 7.527032e-02 7.690332e-02 8.019979e-02 8.227390e-02 8.587109e-02 8.840419e-02 9.215921e-02 9.518801e-02 9.898312e-02 1.025170e-01 1.062473e-01 1.102318e-01 1.137928e-01 1.180938e-01 1.213785e-01 1.257917e-01 1.287020e-01 1.329883e-01 1.354538e-01 1.393904e-01 1.413840e-01 1.448070e-01 1.463459e-01 1.491559e-01 1.502873e-01 1.524120e-01 1.531816e-01 1.545274e-01 1.549380e-01 1.553703e-01 1.553501e-01 1.547210e-01 1.541203e-01 1.523337e-01 1.509602e-01 1.480354e-01 1.457260e-01 1.418181e-01 1.385227e-01 1.338880e-01 1.297187e-01 1.246535e-01 1.198698e-01 1.146595e-01 1.096068e-01 1.045020e-01 9.954132e-02 9.475559e-02 9.021469e-02 8.593292e-02 8.208291e-02 
7.689489e-02 7.368009e-02 7.066602e-02 6.863955e-02 6.656521e-02 6.582681e-02 6.474274e-02 6.528201e-02 6.512623e-02 6.681473e-02 6.743051e-02 7.004861e-02 7.125098e-02 7.453710e-02 7.618818e-02 7.988848e-02 8.194239e-02 8.584759e-02 8.834791e-02 9.230882e-02 9.534324e-02 9.926164e-02 1.028974e-01 1.066996e-01 1.109265e-01 1.145366e-01 1.192339e-01 1.225620e-01 1.274957e-01 1.304468e-01 1.353054e-01 1.378018e-01 1.422669e-01 1.442720e-01 1.480969e-01 1.496273e-01 1.526713e-01 1.537916e-01 1.559807e-01 1.567657e-01 1.580198e-01 1.584973e-01 1.586913e-01 1.587955e-01 1.577932e-01 1.573541e-01 1.550944e-01 1.538730e-01 1.504448e-01 1.482163e-01 1.438569e-01 1.405174e-01 1.355387e-01 1.311794e-01 1.258816e-01 1.207787e-01 1.154098e-01 1.099506e-01 1.047106e-01 9.930735e-02 9.437065e-02 8.940112e-02 8.493597e-02 8.071749e-02 
7.463274e-02 7.096158e-02 6.757559e-02 6.523784e-02 6.296393e-02 6.207665e-02 6.096548e-02 6.151778e-02 6.145434e-02 6.329637e-02 6.403672e-02 6.692170e-02 6.820513e-02 7.185244e-02 7.351120e-02 7.765511e-02 7.966392e-02 8.408247e-02 8.653529e-02 9.105951e-02 9.409247e-02 9.859460e-02 1.022973e-01 1.066637e-01 1.110152e-01 1.151205e-01 1.199624e-01 1.236651e-01 1.287177e-01 1.318864e-01 1.368094e-01 1.393659e-01 1.438557e-01 1.458054e-01 1.496852e-01 1.511132e-01 1.543421e-01 1.553908e-01 1.579700e-01 1.587833e-01 1.606392e-01 1.612829e-01 1.622146e-01 1.626082e-01 1.623388e-01 1.622335e-01 1.605432e-01 1.595690e-01 1.564292e-01 1.542249e-01 1.498363e-01 1.462239e-01 1.409358e-01 1.360305e-01 1.302221e-01 1.243968e-01 1.184020e-01 1.121565e-01 1.062477e-01 1.000823e-01 9.448788e-02 8.883302e-02 8.376390e-02 7.896484e-02 
7.280123e-02 6.873745e-02 6.502883e-02 6.249747e-02 5.997443e-02 5.915266e-02 5.793451e-02 5.882773e-02 5.880731e-02 6.120952e-02 6.207961e-02 6.563432e-02 6.704123e-02 7.134611e-02 7.304880e-02 7.773829e-02 7.969021e-02 8.448879e-02 8.682557e-02 9.156639e-02 9.451247e-02 9.911315e-02 1.028597e-01 1.072664e-01 1.118748e-01 1.160110e-01 1.213590e-01 1.251082e-01 1.308812e-01 1.341121e-01 1.398535e-01 1.424683e-01 1.477068e-01 1.496838e-01 1.540994e-01 1.555105e-01 1.590124e-01 1.600273e-01 1.626480e-01 1.634682e-01 1.651772e-01 1.659207e-01 1.665240e-01 1.671293e-01 1.663387e-01 1.665312e-01 1.641602e-01 1.634955e-01 1.596333e-01 1.576365e-01 1.526370e-01 1.490253e-01 1.433329e-01 1.381848e-01 1.321611e-01 1.258862e-01 1.197742e-01 1.129493e-01 1.069249e-01 1.001323e-01 9.436186e-02 8.810119e-02 8.277620e-02 7.744985e-02 
6.980896e-02 6.517571e-02 6.094283e-02 5.802017e-02 5.524081e-02 5.424625e-02 5.307256e-02 5.401406e-02 5.424334e-02 5.686246e-02 5.800356e-02 6.189099e-02 6.343974e-02 6.817829e-02 6.984873e-02 7.508001e-02 7.688441e-02 8.233550e-02 8.452405e-02 9.001264e-02 9.291156e-02 9.831966e-02 1.021625e-01 1.073805e-01 1.122024e-01 1.170729e-01 1.226724e-01 1.269793e-01 1.329399e-01 1.364674e-01 1.422548e-01 1.448908e-01 1.500396e-01 1.518388e-01 1.561576e-01 1.573116e-01 1.609174e-01 1.617293e-01 1.648176e-01 1.656121e-01 1.681845e-01 1.691575e-01 1.708990e-01 1.719813e-01 1.723580e-01 1.731501e-01 1.716884e-01 1.715089e-01 1.680917e-01 1.662007e-01 1.611404e-01 1.571176e-01 1.509468e-01 1.449477e-01 1.381746e-01 1.308171e-01 1.238235e-01 1.158877e-01 1.089491e-01 1.011426e-01 9.448551e-02 8.735532e-02 8.121125e-02 7.516419e-02 
6.797515e-02 6.277246e-02 5.799263e-02 5.474410e-02 5.152312e-02 5.057603e-02 4.923258e-02 5.065965e-02 5.102051e-02 5.446477e-02 5.589476e-02 6.075332e-02 6.255732e-02 6.822099e-02 6.997235e-02 7.593006e-02 7.759538e-02 8.349722e-02 8.539698e-02 9.108052e-02 9.369540e-02 9.913748e-02 1.028744e-01 1.080732e-01 1.131130e-01 1.179863e-01 1.242099e-01 1.285724e-01 1.355371e-01 1.391654e-01 1.461548e-01 1.488980e-01 1.551358e-01 1.569899e-01 1.620125e-01 1.631202e-01 1.669969e-01 1.677094e-01 1.707693e-01 1.715332e-01 1.739003e-01 1.750163e-01 1.763644e-01 1.778022e-01 1.775006e-01 1.788308e-01 1.764002e-01 1.768279e-01 1.723641e-01 1.709343e-01 1.650590e-01 1.611362e-01 1.545532e-01 1.482350e-01 1.413627e-01 1.333597e-01 1.263707e-01 1.176127e-01 1.106112e-01 1.019383e-01 9.506951e-02 8.711737e-02 8.060064e-02 7.383139e-02 
6.424128e-02 5.836743e-02 5.280016e-02 4.905955e-02 4.546348e-02 4.431925e-02 4.318724e-02 4.473712e-02 4.570871e-02 4.943914e-02 5.144260e-02 5.664411e-02 5.868401e-02 6.477896e-02 6.637611e-02 7.292382e-02 7.419552e-02 8.088486e-02 8.240577e-02 8.906380e-02 9.152317e-02 9.807984e-02 1.019588e-01 1.083402e-01 1.137604e-01 1.197598e-01 1.264444e-01 1.316840e-01 1.389794e-01 1.430374e-01 1.500382e-01 1.527043e-01 1.585934e-01 1.600243e-01 1.645728e-01 1.651230e-01 1.688452e-01 1.690885e-01 1.726555e-01 1.732545e-01 1.768754e-01 1.782859e-01 1.814414e-01 1.836548e-01 1.852798e-01 1.876830e-01 1.867580e-01 1.881271e-01 1.843663e-01 1.832055e-01 1.772093e-01 1.726102e-01 1.652830e-01 1.575728e-01 1.496063e-01 1.399569e-01 1.317469e-01 1.214495e-01 1.132300e-01 1.032792e-01 9.524829e-02 8.627992e-02 7.867382e-02 7.108570e-02 
6.292675e-02 5.628207e-02 4.976628e-02 4.547120e-02 4.100490e-02 3.979933e-02 3.833163e-02 4.055340e-02 4.184851e-02 4.677009e-02 4.937763e-02 5.594525e-02 5.849074e-02 6.586332e-02 6.761974e-02 7.512388e-02 7.611286e-02 8.331093e-02 8.422873e-02 9.099778e-02 9.280980e-02 9.927558e-02 1.027486e-01 1.090264e-01 1.145198e-01 1.205019e-01 1.279104e-01 1.332389e-01 1.419421e-01 1.461696e-01 1.550046e-01 1.578624e-01 1.654071e-01 1.669493e-01 1.723862e-01 1.728075e-01 1.766450e-01 1.766174e-01 1.799561e-01 1.804233e-01 1.838018e-01 1.854222e-01 1.882492e-01 1.910602e-01 1.919153e-01 1.952688e-01 1.929604e-01 1.954918e-01 1.901567e-01 1.899537e-01 1.828653e-01 1.785425e-01 1.709321e-01 1.627506e-01 1.549894e-01 1.443692e-01 1.363880e-01 1.249193e-01 1.166910e-01 1.055794e-01 9.724616e-02 8.723023e-02 7.905862e-02 7.056100e-02 
5.868875e-02 5.135216e-02 4.355061e-02 3.862003e-02 3.342208e-02 3.197022e-02 3.113742e-02 3.365887e-02 3.648563e-02 4.166786e-02 4.549068e-02 5.214270e-02 5.507896e-02 6.261058e-02 6.392558e-02 7.189276e-02 7.195428e-02 8.002121e-02 8.008184e-02 8.809459e-02 8.954131e-02 9.753824e-02 1.012511e-01 1.092746e-01 1.154818e-01 1.232632e-01 1.315631e-01 1.383845e-01 1.477483e-01 1.526805e-01 1.615140e-01 1.640738e-01 1.707473e-01 1.713970e-01 1.755008e-01 1.748090e-01 1.778561e-01 1.768470e-01 1.806275e-01 1.806249e-01 1.858536e-01 1.878132e-01 1.936012e-01 1.976523e-01 2.018146e-01 2.070822e-01 2.073652e-01 2.117341e-01 2.075046e-01 2.078935e-01 2.005412e-01 1.949613e-01 1.861512e-01 1.755530e-01 1.661678e-01 1.530126e-01 1.433404e-01 1.298190e-01 1.199881e-01 1.074172e-01 9.759121e-02 8.656547e-02 7.697346e-02 6.770914e-02 
5.886156e-02 5.067142e-02 4.135526e-02 3.556322e-02 2.849940e-02 2.656813e-02 2.489180e-02 2.832210e-02 3.199250e-02 3.875981e-02 4.380483e-02 5.222618e-02 5.614331e-02 6.540507e-02 6.707010e-02 7.631500e-02 7.586811e-02 8.448623e-02 8.339670e-02 9.132131e-02 9.150213e-02 9.920551e-02 1.019856e-01 1.098429e-01 1.157865e-01 1.236111e-01 1.326291e-01 1.396488e-01 1.509554e-01 1.561703e-01 1.679364e-01 1.708135e-01 1.802050e-01 1.811143e-01 1.862405e-01 1.851965e-01 1.877370e-01 1.860040e-01 1.890140e-01 1.886433e-01 1.936968e-01 1.960190e-01 2.019835e-01 2.070584e-01 2.106743e-01 2.175543e-01 2.158233e-01 2.223757e-01 2.156131e-01 2.179431e-01 2.090874e-01 2.040329e-01 1.954158e-01 1.839712e-01 1.754161e-01 1.607058e-01 1.515348e-01 1.363273e-01 1.264077e-01 1.123327e-01 1.019530e-01 8.970519e-02 7.925338e-02 6.901303e-02 
5.498986e-02 4.638440e-02 3.500722e-02 2.848118e-02 1.940892e-02 1.694264e-02 1.738231e-02 2.160290e-02 2.919570e-02 3.551217e-02 4.290981e-02 5.030286e-02 5.485646e-02 6.329072e-02 6.392700e-02 7.305144e-02 7.057128e-02 7.998989e-02 7.709051e-02 8.657230e-02 8.602608e-02 9.579327e-02 9.904368e-02 1.094735e-01 1.167921e-01 1.275955e-01 1.383746e-01 1.481680e-01 1.608945e-01 1.674902e-01 1.794052e-01 1.814584e-01 1.889937e-01 1.881365e-01 1.899889e-01 1.868380e-01 1.871777e-01 1.834804e-01 1.866328e-01 1.851713e-01 1.930020e-01 1.956636e-01 2.066322e-01 2.136290e-01 2.231808e-01 2.334187e-01 2.363788e-01 2.465901e-01 2.414918e-01 2.450922e-01 2.356346e-01 2.279107e-01 2.172549e-01 2.013670e-01 1.903151e-01 1.717360e-01 1.601767e-01 1.424726e-01 1.304278e-01 1.150163e-01 1.027356e-01 8.983497e-02 7.759358e-02 6.697508e-02 