# vtk DataFile Version 2.0
Comment goes here
ASCII

DATASET STRUCTURED_POINTS
DIMENSIONS    64   64   1

ORIGIN    0.000   0.000   0.000
SPACING   0.0156250.015625   1.000

POINT_DATA   4096
SCALARS uMag double
LOOKUP_TABLE default

6.469719e-02 5.538859e-02 4.707496e-02 3.925454e-02 3.295860e-02 2.804042e-02 2.582097e-02 2.568186e-02 2.835725e-02 3.121043e-02 3.574745e-02 3.873270e-02 4.324654e-02 4.615334e-02 5.108013e-02 5.568426e-02 6.219070e-02 6.989815e-02 7.730331e-02 8.684998e-02 9.368201e-02 1.039914e-01 1.115811e-01 1.236821e-01 1.335162e-01 1.478647e-01 1.592733e-01 1.744894e-01 1.852374e-01 1.987891e-01 2.069243e-01 2.165438e-01 2.217142e-01 2.263639e-01 2.295536e-01 2.296319e-01 2.322337e-01 2.292987e-01 2.325892e-01 2.288647e-01 2.335873e-01 2.308534e-01 2.363742e-01 2.348640e-01 2.389064e-01 2.374582e-01 2.374759e-01 2.347897e-01 2.298058e-01 2.252421e-01 2.160721e-01 2.094486e-01 1.975611e-01 1.889657e-01 1.757986e-01 1.657076e-01 1.524177e-01 1.415106e-01 1.288273e-01 1.177250e-01 1.059955e-01 9.516257e-02 8.449726e-02 7.426802e-02 
6.579876e-02 5.762689e-02 5.023389e-02 4.365036e-02 3.832092e-02 3.443349e-02 3.241807e-02 3.217338e-02 3.368988e-02 3.598880e-02 3.927372e-02 4.225542e-02 4.598547e-02 4.921593e-02 5.357623e-02 5.793203e-02 6.358433e-02 6.998684e-02 7.654599e-02 8.476416e-02 9.151310e-02 1.011254e-01 1.086694e-01 1.200305e-01 1.291278e-01 1.422148e-01 1.523978e-01 1.660281e-01 1.757679e-01 1.879363e-01 1.957763e-01 2.046532e-01 2.101833e-01 2.149145e-01 2.187339e-01 2.196175e-01 2.226818e-01 2.209143e-01 2.241366e-01 2.213613e-01 2.252104e-01 2.227228e-01 2.266776e-01 2.247300e-01 2.272060e-01 2.250907e-01 2.243405e-01 2.211560e-01 2.164407e-01 2.116737e-01 2.034961e-01 1.970132e-01 1.864736e-01 1.784079e-01 1.666715e-01 1.574251e-01 1.454637e-01 1.355739e-01 1.240374e-01 1.140095e-01 1.032518e-01 9.349425e-02 8.368465e-02 7.453536e-02 
6.763954e-02 6.050194e-02 5.377990e-02 4.822397e-02 4.352295e-02 4.030280e-02 3.838042e-02 3.793106e-02 3.883003e-02 4.047870e-02 4.315676e-02 4.583300e-02 4.935077e-02 5.280800e-02 5.704314e-02 6.184064e-02 6.698531e-02 7.355536e-02 7.936451e-02 8.733173e-02 9.343971e-02 1.023903e-01 1.091637e-01 1.192425e-01 1.271119e-01 1.382683e-01 1.469132e-01 1.583398e-01 1.667710e-01 1.770767e-01 1.843231e-01 1.921768e-01 1.978881e-01 2.025801e-01 2.070467e-01 2.086738e-01 2.124766e-01 2.118095e-01 2.154799e-01 2.136277e-01 2.173411e-01 2.152124e-01 2.184793e-01 2.163288e-01 2.180108e-01 2.154618e-01 2.143588e-01 2.108592e-01 2.064506e-01 2.016603e-01 1.942898e-01 1.881191e-01 1.786125e-01 1.711665e-01 1.604624e-01 1.520451e-01 1.409813e-01 1.320188e-01 1.212150e-01 1.121423e-01 1.019935e-01 9.319854e-02 8.394841e-02 7.578518e-02 
6.946900e-02 6.323589e-02 5.720855e-02 5.248574e-02 4.828720e-02 4.560906e-02 4.368791e-02 4.328430e-02 4.359298e-02 4.501239e-02 4.688626e-02 4.940460e-02 5.221941e-02 5.555655e-02 5.918730e-02 6.358924e-02 6.813645e-02 7.390842e-02 7.924632e-02 8.634279e-02 9.226892e-02 1.005134e-01 1.071500e-01 1.165031e-01 1.239967e-01 1.342176e-01 1.422735e-01 1.526161e-01 1.605051e-01 1.698331e-01 1.768095e-01 1.840464e-01 1.897700e-01 1.943260e-01 1.989233e-01 2.008443e-01 2.046787e-01 2.045373e-01 2.079585e-01 2.065791e-01 2.096769e-01 2.077414e-01 2.101371e-01 2.078769e-01 2.087622e-01 2.059656e-01 2.045025e-01 2.008073e-01 1.966187e-01 1.917890e-01 1.851120e-01 1.791072e-01 1.705762e-01 1.635257e-01 1.539042e-01 1.460868e-01 1.360841e-01 1.278647e-01 1.180339e-01 1.097878e-01 1.005117e-01 9.258790e-02 8.413261e-02 7.686671e-02 
7.194244e-02 6.644702e-02 6.090832e-02 5.680513e-02 5.295856e-02 5.060708e-02 4.873811e-02 4.825584e-02 4.831135e-02 4.941934e-02 5.096515e-02 5.323985e-02 5.581613e-02 5.909102e-02 6.249321e-02 6.689647e-02 7.106911e-02 7.670796e-02 8.153304e-02 8.826255e-02 9.362638e-02 1.012351e-01 1.072119e-01 1.155908e-01 1.222490e-01 1.311745e-01 1.382989e-01 1.472213e-01 1.543137e-01 1.624136e-01 1.689461e-01 1.754223e-01 1.811003e-01 1.854648e-01 1.902857e-01 1.924954e-01 1.966233e-01 1.970260e-01 2.006118e-01 1.997566e-01 2.027646e-01 2.011317e-01 2.032182e-01 2.010089e-01 2.015721e-01 1.986996e-01 1.971499e-01 1.934152e-01 1.894962e-01 1.847700e-01 1.786693e-01 1.729522e-01 1.651726e-01 1.585895e-01 1.497629e-01 1.425516e-01 1.332962e-01 1.257684e-01 1.166008e-01 1.090902e-01 1.004015e-01 9.323412e-02 8.532061e-02 7.881762e-02 
7.388169e-02 6.905300e-02 6.400363e-02 6.046230e-02 5.690652e-02 5.490625e-02 5.301852e-02 5.262188e-02 5.234298e-02 5.335080e-02 5.439097e-02 5.650030e-02 5.855413e-02 6.160410e-02 6.452457e-02 6.855115e-02 7.229613e-02 7.737592e-02 8.187468e-02 8.797065e-02 9.313723e-02 1.001267e-01 1.059417e-01 1.136752e-01 1.200935e-01 1.282900e-01 1.350873e-01 1.432305e-01 1.499976e-01 1.573925e-01 1.636943e-01 1.696766e-01 1.752341e-01 1.793898e-01 1.841354e-01 1.864016e-01 1.904004e-01 1.910220e-01 1.943434e-01 1.937250e-01 1.963119e-01 1.948177e-01 1.964029e-01 1.942065e-01 1.943549e-01 1.914295e-01 1.897263e-01 1.859607e-01 1.822307e-01 1.775602e-01 1.719552e-01 1.664176e-01 1.593426e-01 1.530805e-01 1.450618e-01 1.383057e-01 1.298756e-01 1.229106e-01 1.145320e-01 1.076589e-01 9.970027e-02 9.321444e-02 8.596772e-02 8.016027e-02 
7.639207e-02 7.206098e-02 6.735331e-02 6.418931e-02 6.085300e-02 5.903583e-02 5.719329e-02 5.676337e-02 5.636911e-02 5.720495e-02 5.805458e-02 5.997360e-02 6.182867e-02 6.472615e-02 6.742425e-02 7.129609e-02 7.474323e-02 7.958296e-02 8.369761e-02 8.941016e-02 9.412788e-02 1.005627e-01 1.058623e-01 1.128524e-01 1.186858e-01 1.259811e-01 1.321751e-01 1.393710e-01 1.456221e-01 1.521916e-01 1.581635e-01 1.635923e-01 1.690326e-01 1.729728e-01 1.777580e-01 1.801092e-01 1.842045e-01 1.850957e-01 1.884700e-01 1.881611e-01 1.907001e-01 1.894444e-01 1.909034e-01 1.888429e-01 1.888854e-01 1.860373e-01 1.843657e-01 1.806929e-01 1.771962e-01 1.726921e-01 1.675087e-01 1.622402e-01 1.557119e-01 1.498242e-01 1.424032e-01 1.361096e-01 1.282690e-01 1.218271e-01 1.139975e-01 1.076815e-01 1.002234e-01 9.430542e-02 8.751459e-02 8.226006e-02 
7.814329e-02 7.429737e-02 6.992993e-02 6.716012e-02 6.400874e-02 6.244315e-02 6.058900e-02 6.024780e-02 5.965325e-02 6.044376e-02 6.097034e-02 6.275445e-02 6.424382e-02 6.692750e-02 6.927041e-02 7.282873e-02 7.596169e-02 8.038568e-02 8.425112e-02 8.948508e-02 9.402069e-02 9.995069e-02 1.050951e-01 1.115527e-01 1.172088e-01 1.239356e-01 1.299174e-01 1.365355e-01 1.425675e-01 1.486158e-01 1.543983e-01 1.594367e-01 1.647273e-01 1.684518e-01 1.731027e-01 1.754067e-01 1.793414e-01 1.803021e-01 1.834564e-01 1.832590e-01 1.855189e-01 1.843544e-01 1.855231e-01 1.835118e-01 1.833401e-01 1.805198e-01 1.787983e-01 1.751720e-01 1.718352e-01 1.674327e-01 1.626070e-01 1.575193e-01 1.514965e-01 1.458806e-01 1.390507e-01 1.331183e-01 1.258980e-01 1.198932e-01 1.126721e-01 1.068487e-01 9.996223e-02 9.456773e-02 8.829542e-02 8.356511e-02 
8.039927e-02 7.687888e-02 7.274065e-02 7.020152e-02 6.718832e-02 6.572812e-02 6.390487e-02 6.354232e-02 6.288252e-02 6.356177e-02 6.396209e-02 6.559600e-02 6.692695e-02 6.944778e-02 7.160032e-02 7.496964e-02 7.786409e-02 8.203756e-02 8.560977e-02 9.050177e-02 9.469634e-02 1.001781e-01 1.049417e-01 1.108452e-01 1.160940e-01 1.221895e-01 1.277712e-01 1.337475e-01 1.394391e-01 1.449272e-01 1.504755e-01 1.551186e-01 1.602954e-01 1.638301e-01 1.684624e-01 1.707680e-01 1.747295e-01 1.758241e-01 1.790000e-01 1.789919e-01 1.812406e-01 1.802585e-01 1.813951e-01 1.795343e-01 1.793566e-01 1.766675e-01 1.750226e-01 1.715400e-01 1.683961e-01 1.641790e-01 1.596601e-01 1.548160e-01 1.491832e-01 1.438721e-01 1.374742e-01 1.318989e-01 1.251156e-01 1.195045e-01 1.127003e-01 1.072885e-01 1.007860e-01 9.580080e-02 8.987272e-02 8.552550e-02 
8.183815e-02 7.867032e-02 7.476154e-02 7.250519e-02 6.961090e-02 6.833645e-02 6.650546e-02 6.622133e-02 6.543522e-02 6.609555e-02 6.628485e-02 6.782020e-02 6.889964e-02 7.125111e-02 7.314926e-02 7.627782e-02 7.894124e-02 8.280721e-02 8.618714e-02 9.072209e-02 9.476289e-02 9.985547e-02 1.044854e-01 1.099745e-01 1.150866e-01 1.207491e-01 1.261812e-01 1.317270e-01 1.372635e-01 1.423620e-01 1.477637e-01 1.520997e-01 1.571442e-01 1.604808e-01 1.649871e-01 1.672036e-01 1.710293e-01 1.721186e-01 1.751376e-01 1.751696e-01 1.772456e-01 1.763157e-01 1.772922e-01 1.754809e-01 1.752016e-01 1.725657e-01 1.709229e-01 1.675153e-01 1.645020e-01 1.604007e-01 1.561369e-01 1.514633e-01 1.461841e-01 1.411048e-01 1.351229e-01 1.298394e-01 1.234989e-01 1.182309e-01 1.118673e-01 1.068353e-01 1.007493e-01 9.616119e-02 9.060787e-02 8.665035e-02 
8.370709e-02 8.073943e-02 7.696756e-02 7.484326e-02 7.202370e-02 7.080142e-02 6.897824e-02 6.866949e-02 6.783124e-02 6.840855e-02 6.850153e-02 6.991828e-02 7.087071e-02 7.308018e-02 7.482382e-02 7.778224e-02 8.025992e-02 8.391233e-02 8.707381e-02 9.133755e-02 9.513177e-02 9.988926e-02 1.042532e-01 1.093484e-01 1.141887e-01 1.194197e-01 1.245959e-01 1.297130e-01 1.350368e-01 1.397609e-01 1.450160e-01 1.490787e-01 1.540497e-01 1.572393e-01 1.617328e-01 1.639242e-01 1.677723e-01 1.689293e-01 1.719793e-01 1.721318e-01 1.742321e-01 1.734404e-01 1.744387e-01 1.727658e-01 1.725272e-01 1.700306e-01 1.684740e-01 1.652185e-01 1.623542e-01 1.584305e-01 1.543788e-01 1.499154e-01 1.448971e-01 1.400609e-01 1.343670e-01 1.293536e-01 1.233066e-01 1.183252e-01 1.122436e-01 1.075016e-01 1.016748e-01 9.736501e-02 9.203970e-02 8.833130e-02 
8.479287e-02 8.207737e-02 7.844580e-02 7.652245e-02 7.377019e-02 7.268293e-02 7.084743e-02 7.060210e-02 6.967782e-02 7.025062e-02 7.020242e-02 7.155466e-02 7.233590e-02 7.442702e-02 7.599353e-02 7.878325e-02 8.109621e-02 8.453436e-02 8.755387e-02 9.156613e-02 9.524159e-02 9.971910e-02 1.039788e-01 1.087722e-01 1.135113e-01 1.184268e-01 1.234984e-01 1.283016e-01 1.335190e-01 1.379540e-01 1.431066e-01 1.469297e-01 1.518060e-01 1.548221e-01 1.592271e-01 1.613142e-01 1.650750e-01 1.661865e-01 1.691467e-01 1.692943e-01 1.713067e-01 1.705342e-01 1.714612e-01 1.698231e-01 1.695522e-01 1.671080e-01 1.655798e-01 1.624021e-01 1.596393e-01 1.558278e-01 1.519491e-01 1.476387e-01 1.428517e-01 1.382114e-01 1.327875e-01 1.280099e-01 1.222512e-01 1.175381e-01 1.117449e-01 1.072923e-01 1.017383e-01 9.772409e-02 9.264213e-02 8.921758e-02 
8.621839e-02 8.360465e-02 8.002875e-02 7.816187e-02 7.542766e-02 7.434878e-02 7.249253e-02 7.221178e-02 7.123199e-02 7.173574e-02 7.160479e-02 7.286526e-02 7.354329e-02 7.552561e-02 7.697151e-02 7.963332e-02 8.180872e-02 8.509279e-02 8.795904e-02 9.178411e-02 9.529490e-02 9.954950e-02 1.036405e-01 1.081795e-01 1.127564e-01 1.173994e-01 1.223289e-01 1.268643e-01 1.319741e-01 1.361745e-01 1.412652e-01 1.449128e-01 1.497755e-01 1.526908e-01 1.571230e-01 1.591846e-01 1.629984e-01 1.641472e-01 1.671702e-01 1.673981e-01 1.694724e-01 1.688048e-01 1.697911e-01 1.682713e-01 1.680641e-01 1.657483e-01 1.642992e-01 1.612622e-01 1.586017e-01 1.549459e-01 1.511942e-01 1.470551e-01 1.424147e-01 1.379587e-01 1.326919e-01 1.281064e-01 1.225055e-01 1.179849e-01 1.123416e-01 1.080734e-01 1.026547e-01 9.880726e-02 9.384006e-02 9.055477e-02 
8.694954e-02 8.450625e-02 8.099288e-02 7.926019e-02 7.654622e-02 7.555860e-02 7.367762e-02 7.344329e-02 7.239769e-02 7.290543e-02 7.267789e-02 7.390436e-02 7.446899e-02 7.638325e-02 7.771291e-02 8.027535e-02 8.234256e-02 8.549843e-02 8.827049e-02 9.194159e-02 9.537243e-02 9.945044e-02 1.034713e-01 1.078143e-01 1.123251e-01 1.167577e-01 1.216217e-01 1.259417e-01 1.309876e-01 1.349809e-01 1.400131e-01 1.434767e-01 1.482897e-01 1.510558e-01 1.554486e-01 1.574010e-01 1.611845e-01 1.622624e-01 1.652626e-01 1.654526e-01 1.675120e-01 1.668336e-01 1.678173e-01 1.663111e-01 1.661206e-01 1.638442e-01 1.624381e-01 1.594696e-01 1.568825e-01 1.533272e-01 1.496784e-01 1.456726e-01 1.411590e-01 1.368667e-01 1.317431e-01 1.273462e-01 1.218961e-01 1.175817e-01 1.120883e-01 1.080342e-01 1.027566e-01 9.912037e-02 9.427694e-02 9.118829e-02 
8.790993e-02 8.548307e-02 8.195042e-02 8.020829e-02 7.745876e-02 7.643841e-02 7.450535e-02 7.422030e-02 7.310823e-02 7.355406e-02 7.324922e-02 7.440840e-02 7.488829e-02 7.673234e-02 7.797199e-02 8.045966e-02 8.243303e-02 8.550527e-02 8.818183e-02 9.175591e-02 9.509357e-02 9.905866e-02 1.029946e-01 1.072098e-01 1.116514e-01 1.159471e-01 1.207659e-01 1.249501e-01 1.299824e-01 1.338548e-01 1.389093e-01 1.422801e-01 1.471510e-01 1.498619e-01 1.543414e-01 1.562795e-01 1.601677e-01 1.612695e-01 1.643801e-01 1.646256e-01 1.667900e-01 1.661915e-01 1.672678e-01 1.658597e-01 1.657472e-01 1.635829e-01 1.622412e-01 1.593951e-01 1.568613e-01 1.534351e-01 1.498306e-01 1.459558e-01 1.414795e-01 1.373148e-01 1.322225e-01 1.279445e-01 1.225202e-01 1.183111e-01 1.128381e-01 1.088715e-01 1.036078e-01 1.000379e-01 9.520029e-02 9.215391e-02 
8.830463e-02 8.597508e-02 8.243253e-02 8.076372e-02 7.798785e-02 7.701678e-02 7.504035e-02 7.478262e-02 7.361276e-02 7.406736e-02 7.369575e-02 7.484858e-02 7.525948e-02 7.708428e-02 7.825897e-02 8.071508e-02 8.263178e-02 8.565944e-02 8.828900e-02 9.180405e-02 9.510294e-02 9.899271e-02 1.028950e-01 1.070170e-01 1.114271e-01 1.156116e-01 1.204004e-01 1.244583e-01 1.294644e-01 1.332012e-01 1.382382e-01 1.414726e-01 1.463395e-01 1.489218e-01 1.534141e-01 1.552388e-01 1.591573e-01 1.601663e-01 1.633217e-01 1.634987e-01 1.657181e-01 1.650781e-01 1.662141e-01 1.647947e-01 1.647412e-01 1.625982e-01 1.613107e-01 1.585201e-01 1.560331e-01 1.526951e-01 1.491294e-01 1.453708e-01 1.409262e-01 1.368986e-01 1.318327e-01 1.277043e-01 1.223031e-01 1.182470e-01 1.127949e-01 1.089766e-01 1.037309e-01 1.002976e-01 9.547253e-02 9.254516e-02 
8.879289e-02 8.639757e-02 8.276475e-02 8.102196e-02 7.815882e-02 7.711241e-02 7.505150e-02 7.472395e-02 7.347326e-02 7.386939e-02 7.342194e-02 7.453122e-02 7.487249e-02 7.666914e-02 7.778131e-02 8.022226e-02 8.208458e-02 8.510579e-02 8.769112e-02 9.120359e-02 9.447194e-02 9.835861e-02 1.022489e-01 1.063641e-01 1.107863e-01 1.149585e-01 1.197887e-01 1.238293e-01 1.289096e-01 1.326265e-01 1.377708e-01 1.409869e-01 1.459908e-01 1.485617e-01 1.532136e-01 1.550390e-01 1.591290e-01 1.601556e-01 1.634820e-01 1.636972e-01 1.660736e-01 1.654940e-01 1.667598e-01 1.654219e-01 1.654603e-01 1.634152e-01 1.621748e-01 1.594907e-01 1.570042e-01 1.537713e-01 1.501636e-01 1.464986e-01 1.419786e-01 1.380243e-01 1.328612e-01 1.287803e-01 1.232714e-01 1.192350e-01 1.136734e-01 1.098478e-01 1.044964e-01 1.010315e-01 9.610654e-02 9.312784e-02 
8.888248e-02 8.651136e-02 8.279786e-02 8.106615e-02 7.812854e-02 7.708658e-02 7.495866e-02 7.463565e-02 7.332771e-02 7.373418e-02 7.324176e-02 7.437068e-02 7.468084e-02 7.650711e-02 7.760178e-02 8.008022e-02 8.193637e-02 8.499859e-02 8.758523e-02 9.113625e-02 9.440888e-02 9.832470e-02 1.022184e-01 1.063460e-01 1.107692e-01 1.149305e-01 1.197608e-01 1.237625e-01 1.288472e-01 1.324962e-01 1.376569e-01 1.407790e-01 1.458197e-01 1.482774e-01 1.529928e-01 1.546960e-01 1.588780e-01 1.597856e-01 1.632283e-01 1.633401e-01 1.658459e-01 1.651901e-01 1.665823e-01 1.652045e-01 1.653480e-01 1.633051e-01 1.621328e-01 1.594934e-01 1.570291e-01 1.538777e-01 1.502461e-01 1.466885e-01 1.421062e-01 1.382716e-01 1.330201e-01 1.290574e-01 1.234470e-01 1.195164e-01 1.138507e-01 1.101116e-01 1.046598e-01 1.012592e-01 9.624047e-02 9.330438e-02 
8.889788e-02 8.637373e-02 8.250218e-02 8.062678e-02 7.755189e-02 7.638678e-02 7.414195e-02 7.372558e-02 7.232125e-02 7.267035e-02 7.210202e-02 7.321193e-02 7.346600e-02 7.531017e-02 7.636762e-02 7.889654e-02 8.073398e-02 8.387333e-02 8.646095e-02 9.010915e-02 9.340555e-02 9.743151e-02 1.013765e-01 1.056193e-01 1.101262e-01 1.143991e-01 1.193496e-01 1.234504e-01 1.286930e-01 1.324206e-01 1.377747e-01 1.409507e-01 1.462141e-01 1.487022e-01 1.536605e-01 1.553781e-01 1.598116e-01 1.607301e-01 1.644186e-01 1.645521e-01 1.672801e-01 1.666683e-01 1.682383e-01 1.669310e-01 1.671868e-01 1.652362e-01 1.640940e-01 1.615554e-01 1.590331e-01 1.559727e-01 1.522024e-01 1.487079e-01 1.439252e-01 1.401125e-01 1.346240e-01 1.306366e-01 1.247767e-01 1.207764e-01 1.148674e-01 1.110208e-01 1.053434e-01 1.018079e-01 9.658606e-02 9.349976e-02 
8.872828e-02 8.614674e-02 8.212300e-02 8.018772e-02 7.698732e-02 7.577371e-02 7.343375e-02 7.299267e-02 7.152704e-02 7.188425e-02 7.128960e-02 7.244456e-02 7.270458e-02 7.462965e-02 7.571857e-02 7.835872e-02 8.024358e-02 8.351597e-02 8.615662e-02 8.994908e-02 9.329503e-02 9.746413e-02 1.014491e-01 1.058200e-01 1.103557e-01 1.147271e-01 1.196988e-01 1.238547e-01 1.291199e-01 1.328497e-01 1.382408e-01 1.413630e-01 1.466925e-01 1.490763e-01 1.541423e-01 1.557195e-01 1.603076e-01 1.610700e-01 1.649540e-01 1.649388e-01 1.678844e-01 1.671531e-01 1.689323e-01 1.675524e-01 1.679736e-01 1.660073e-01 1.649563e-01 1.624592e-01 1.599367e-01 1.569641e-01 1.531038e-01 1.497226e-01 1.447776e-01 1.410795e-01 1.353821e-01 1.314893e-01 1.254001e-01 1.214606e-01 1.153220e-01 1.114976e-01 1.056030e-01 1.020539e-01 9.663396e-02 9.350628e-02 
8.827545e-02 8.544048e-02 8.119473e-02 7.903436e-02 7.564871e-02 7.425457e-02 7.176589e-02 7.120171e-02 6.962432e-02 6.992351e-02 6.925334e-02 7.041664e-02 7.063464e-02 7.262983e-02 7.370629e-02 7.647033e-02 7.836924e-02 8.181023e-02 8.449108e-02 8.848789e-02 9.190317e-02 9.630288e-02 1.003918e-01 1.050078e-01 1.096887e-01 1.143040e-01 1.194667e-01 1.238465e-01 1.293496e-01 1.332636e-01 1.389349e-01 1.421868e-01 1.478300e-01 1.502848e-01 1.556861e-01 1.572854e-01 1.622176e-01 1.629763e-01 1.671973e-01 1.671813e-01 1.704339e-01 1.697299e-01 1.717546e-01 1.704422e-01 1.710106e-01 1.691468e-01 1.681131e-01 1.657311e-01 1.630834e-01 1.602062e-01 1.560912e-01 1.527546e-01 1.474605e-01 1.437360e-01 1.376405e-01 1.336448e-01 1.271499e-01 1.230395e-01 1.165173e-01 1.124704e-01 1.062303e-01 1.024277e-01 9.670530e-02 9.331421e-02 
8.791491e-02 8.492275e-02 8.045128e-02 7.814293e-02 7.457627e-02 7.306589e-02 7.044885e-02 6.982003e-02 6.817401e-02 6.847400e-02 6.779666e-02 6.903111e-02 6.929669e-02 7.142930e-02 7.259347e-02 7.555084e-02 7.755871e-02 8.123557e-02 8.402784e-02 8.828806e-02 9.180177e-02 9.647509e-02 1.006395e-01 1.055183e-01 1.102485e-01 1.150911e-01 1.202820e-01 1.248275e-01 1.303510e-01 1.343473e-01 1.400528e-01 1.432921e-01 1.490091e-01 1.513607e-01 1.568997e-01 1.583257e-01 1.634732e-01 1.640207e-01 1.685297e-01 1.683022e-01 1.718864e-01 1.710060e-01 1.733548e-01 1.719302e-01 1.727536e-01 1.708596e-01 1.699576e-01 1.676288e-01 1.649612e-01 1.622009e-01 1.579201e-01 1.547267e-01 1.491553e-01 1.455577e-01 1.391192e-01 1.352011e-01 1.283403e-01 1.242415e-01 1.173611e-01 1.132601e-01 1.066868e-01 1.027760e-01 9.675301e-02 9.321840e-02 
8.700997e-02 8.364187e-02 7.889048e-02 7.625617e-02 7.245888e-02 7.069499e-02 6.789799e-02 6.710689e-02 6.533473e-02 6.557458e-02 6.482502e-02 6.610104e-02 6.634261e-02 6.860775e-02 6.978673e-02 7.295220e-02 7.500564e-02 7.895208e-02 8.181783e-02 8.639821e-02 9.001665e-02 9.505079e-02 9.935930e-02 1.046261e-01 1.095499e-01 1.147861e-01 1.202288e-01 1.251429e-01 1.309790e-01 1.352831e-01 1.413558e-01 1.448113e-01 1.509369e-01 1.533991e-01 1.593726e-01 1.608165e-01 1.664116e-01 1.669227e-01 1.718782e-01 1.716122e-01 1.756160e-01 1.747420e-01 1.774371e-01 1.760891e-01 1.771226e-01 1.753688e-01 1.744821e-01 1.723184e-01 1.694450e-01 1.668171e-01 1.621327e-01 1.589843e-01 1.528754e-01 1.492036e-01 1.421723e-01 1.380583e-01 1.306155e-01 1.262199e-01 1.188094e-01 1.143431e-01 1.073082e-01 1.029984e-01 9.658208e-02 9.264617e-02 
8.656348e-02 8.290888e-02 7.785602e-02 7.495828e-02 7.091791e-02 6.894630e-02 6.597996e-02 6.506725e-02 6.321525e-02 6.344120e-02 6.270730e-02 6.408279e-02 6.442448e-02 6.689216e-02 6.822964e-02 7.168212e-02 7.392033e-02 7.821910e-02 8.126611e-02 8.624628e-02 9.001898e-02 9.548009e-02 9.990003e-02 1.055933e-01 1.105786e-01 1.162035e-01 1.216615e-01 1.268821e-01 1.327052e-01 1.371921e-01 1.432569e-01 1.467463e-01 1.529139e-01 1.552635e-01 1.613757e-01 1.625909e-01 1.684543e-01 1.686721e-01 1.740269e-01 1.734606e-01 1.779537e-01 1.768262e-01 1.800178e-01 1.785077e-01 1.799388e-01 1.781452e-01 1.774628e-01 1.753878e-01 1.724783e-01 1.700348e-01 1.650907e-01 1.621532e-01 1.556257e-01 1.521158e-01 1.445859e-01 1.405334e-01 1.325769e-01 1.281265e-01 1.202274e-01 1.156024e-01 1.081221e-01 1.035779e-01 9.676349e-02 9.255061e-02 
8.524936e-02 8.106431e-02 7.568389e-02 7.233012e-02 6.801649e-02 6.569343e-02 6.251464e-02 6.138483e-02 5.939315e-02 5.955544e-02 5.875936e-02 6.022130e-02 6.056759e-02 6.324711e-02 6.463533e-02 6.839441e-02 7.071200e-02 7.539010e-02 7.853864e-02 8.396046e-02 8.786152e-02 9.382155e-02 9.840946e-02 1.046490e-01 1.098592e-01 1.160530e-01 1.218091e-01 1.275767e-01 1.337792e-01 1.387308e-01 1.452488e-01 1.490619e-01 1.557349e-01 1.582343e-01 1.648816e-01 1.660875e-01 1.725060e-01 1.726199e-01 1.785481e-01 1.778753e-01 1.829392e-01 1.817872e-01 1.854822e-01 1.840769e-01 1.858354e-01 1.842677e-01 1.836233e-01 1.818274e-01 1.786112e-01 1.763932e-01 1.708407e-01 1.679761e-01 1.606587e-01 1.570196e-01 1.486538e-01 1.442787e-01 1.355413e-01 1.306217e-01 1.220466e-01 1.168658e-01 1.088227e-01 1.036911e-01 9.641248e-02 9.162398e-02 
8.487994e-02 8.023852e-02 7.447978e-02 7.070908e-02 6.608016e-02 6.342218e-02 6.001881e-02 5.868297e-02 5.659219e-02 5.671449e-02 5.596358e-02 5.755833e-02 5.807723e-02 6.103715e-02 6.267937e-02 6.683163e-02 6.943246e-02 7.459118e-02 7.800921e-02 8.398337e-02 8.810825e-02 9.467508e-02 9.941740e-02 1.062870e-01 1.115660e-01 1.183599e-01 1.240961e-01 1.303610e-01 1.364728e-01 1.417435e-01 1.481480e-01 1.520516e-01 1.586645e-01 1.610245e-01 1.677544e-01 1.686404e-01 1.753571e-01 1.750544e-01 1.815179e-01 1.804204e-01 1.862028e-01 1.846931e-01 1.891571e-01 1.875238e-01 1.899188e-01 1.883065e-01 1.879966e-01 1.863626e-01 1.830993e-01 1.811986e-01 1.752595e-01 1.727342e-01 1.648156e-01 1.613992e-01 1.523506e-01 1.480058e-01 1.385973e-01 1.335126e-01 1.243235e-01 1.188251e-01 1.102362e-01 1.046914e-01 9.692936e-02 9.168431e-02 
8.325532e-02 7.788891e-02 7.177159e-02 6.737479e-02 6.243117e-02 5.928366e-02 5.562740e-02 5.399096e-02 5.174445e-02 5.179777e-02 5.100899e-02 5.275875e-02 5.333611e-02 5.661580e-02 5.836601e-02 6.293904e-02 6.566252e-02 7.131035e-02 7.485602e-02 8.138542e-02 8.565129e-02 9.285071e-02 9.776655e-02 1.053509e-01 1.108632e-01 1.184329e-01 1.244926e-01 1.315335e-01 1.380801e-01 1.440280e-01 1.509712e-01 1.553434e-01 1.625597e-01 1.651078e-01 1.724635e-01 1.732691e-01 1.806335e-01 1.800937e-01 1.872631e-01 1.859350e-01 1.924919e-01 1.909066e-01 1.961302e-01 1.946618e-01 1.976094e-01 1.963941e-01 1.962022e-01 1.950769e-01 1.913747e-01 1.898902e-01 1.830409e-01 1.806532e-01 1.715888e-01 1.679588e-01 1.577663e-01 1.528995e-01 1.424948e-01 1.366831e-01 1.266916e-01 1.203695e-01 1.111536e-01 1.047718e-01 9.651332e-02 9.047130e-02 
8.320965e-02 7.717304e-02 7.060238e-02 6.559171e-02 6.024517e-02 5.658568e-02 5.262093e-02 5.064781e-02 4.826218e-02 4.823016e-02 4.752602e-02 4.945327e-02 5.031151e-02 5.396696e-02 5.610622e-02 6.118461e-02 6.432242e-02 7.057749e-02 7.450862e-02 8.174683e-02 8.633280e-02 9.434132e-02 9.947899e-02 1.079459e-01 1.135475e-01 1.220026e-01 1.279925e-01 1.358035e-01 1.421255e-01 1.485896e-01 1.552145e-01 1.597482e-01 1.666787e-01 1.690263e-01 1.762966e-01 1.766273e-01 1.842626e-01 1.831201e-01 1.909870e-01 1.890655e-01 1.966859e-01 1.946085e-01 2.010528e-01 1.992656e-01 2.032691e-01 2.019999e-01 2.023819e-01 2.015459e-01 1.977926e-01 1.968740e-01 1.894528e-01 1.876312e-01 1.777206e-01 1.743938e-01 1.633023e-01 1.583776e-01 1.471434e-01 1.409611e-01 1.302473e-01 1.233518e-01 1.135130e-01 1.064607e-01 9.765495e-02 9.091992e-02 
8.147592e-02 7.448400e-02 6.754822e-02 6.169711e-02 5.599089e-02 5.164072e-02 4.735591e-02 4.493914e-02 4.236575e-02 4.225469e-02 4.156910e-02 4.377251e-02 4.480324e-02 4.893386e-02 5.128403e-02 5.690248e-02 6.022797e-02 6.705229e-02 7.114478e-02 7.900799e-02 8.374647e-02 9.248363e-02 9.778848e-02 1.071267e-01 1.129456e-01 1.224123e-01 1.287223e-01 1.376094e-01 1.444055e-01 1.518497e-01 1.591058e-01 1.643183e-01 1.719586e-01 1.745283e-01 1.824850e-01 1.825761e-01 1.908892e-01 1.892496e-01 1.979232e-01 1.955456e-01 2.042101e-01 2.019714e-01 2.096105e-01 2.081026e-01 2.131069e-01 2.125587e-01 2.132707e-01 2.133894e-01 2.090108e-01 2.088740e-01 2.000598e-01 1.984816e-01 1.869008e-01 1.831882e-01 1.705667e-01 1.647693e-01 1.523324e-01 1.450134e-01 1.334279e-01 1.253229e-01 1.148630e-01 1.066469e-01 9.737572e-02 8.957501e-02 
8.210194e-02 7.420489e-02 6.674721e-02 6.006160e-02 5.384569e-02 4.875001e-02 4.401616e-02 4.104804e-02 3.823826e-02 3.795700e-02 3.741094e-02 3.986570e-02 4.135419e-02 4.597562e-02 4.890828e-02 5.512242e-02 5.903248e-02 6.655210e-02 7.118331e-02 7.988407e-02 8.508799e-02 9.484072e-02 1.004973e-01 1.110244e-01 1.170125e-01 1.277576e-01 1.339704e-01 1.440366e-01 1.504208e-01 1.586836e-01 1.652692e-01 1.707304e-01 1.776434e-01 1.798753e-01 1.873613e-01 1.866935e-01 1.951208e-01 1.925863e-01 2.021365e-01 1.989524e-01 2.092117e-01 2.063353e-01 2.159729e-01 2.140222e-01 2.208542e-01 2.201993e-01 2.219411e-01 2.225375e-01 2.181127e-01 2.190122e-01 2.093321e-01 2.087108e-01 1.959487e-01 1.925998e-01 1.788356e-01 1.727358e-01 1.593251e-01 1.512395e-01 1.388500e-01 1.297606e-01 1.186253e-01 1.093836e-01 9.952197e-02 9.074324e-02 
8.062425e-02 7.154734e-02 6.374879e-02 5.599605e-02 4.936830e-02 4.330166e-02 3.811217e-02 3.441919e-02 3.132135e-02 3.093055e-02 3.054490e-02 3.353067e-02 3.545321e-02 4.076708e-02 4.409255e-02 5.091398e-02 5.510967e-02 6.317440e-02 6.802932e-02 7.730829e-02 8.270871e-02 9.318161e-02 9.902034e-02 1.105099e-01 1.166907e-01 1.286879e-01 1.351811e-01 1.467146e-01 1.535880e-01 1.632800e-01 1.706207e-01 1.770853e-01 1.848644e-01 1.873411e-01 1.955128e-01 1.942551e-01 2.032174e-01 1.996718e-01 2.099961e-01 2.059526e-01 2.175965e-01 2.144241e-01 2.260246e-01 2.245580e-01 2.333137e-01 2.339715e-01 2.365680e-01 2.389818e-01 2.336360e-01 2.360061e-01 2.240903e-01 2.238296e-01 2.086021e-01 2.044587e-01 1.887127e-01 1.810801e-01 1.663320e-01 1.564428e-01 1.432269e-01 1.323806e-01 1.207339e-01 1.099266e-01 9.970824e-02 8.957780e-02 
8.234956e-02 7.218981e-02 6.381114e-02 5.506925e-02 4.782187e-02 4.077383e-02 3.490641e-02 3.029177e-02 2.668795e-02 2.592831e-02 2.577271e-02 2.917335e-02 3.187427e-02 3.778531e-02 4.194787e-02 4.935272e-02 5.432802e-02 6.306972e-02 6.865538e-02 7.882089e-02 8.491136e-02 9.657205e-02 1.030240e-01 1.160544e-01 1.226472e-01 1.364707e-01 1.429667e-01 1.563264e-01 1.625952e-01 1.736086e-01 1.797221e-01 1.865357e-01 1.927726e-01 1.945992e-01 2.014898e-01 1.988982e-01 2.075433e-01 2.026029e-01 2.139612e-01 2.088801e-01 2.229477e-01 2.190775e-01 2.340635e-01 2.320131e-01 2.440918e-01 2.444123e-01 2.489518e-01 2.520196e-01 2.466374e-01 2.509938e-01 2.377076e-01 2.390677e-01 2.222029e-01 2.183175e-01 2.011740e-01 1.926179e-01 1.767703e-01 1.653724e-01 1.512739e-01 1.388153e-01 1.264276e-01 1.141510e-01 1.032849e-01 9.189541e-02 
8.169904e-02 7.025312e-02 6.158257e-02 5.167196e-02 4.398118e-02 3.570734e-02 2.915425e-02 2.323446e-02 1.894593e-02 1.791663e-02 1.838912e-02 2.296817e-02 2.668721e-02 3.344668e-02 3.822952e-02 4.607064e-02 5.144013e-02 6.046632e-02 6.640049e-02 7.687797e-02 8.331963e-02 9.548772e-02 1.022538e-01 1.161735e-01 1.229942e-01 1.382448e-01 1.449496e-01 1.602648e-01 1.669861e-01 1.801148e-01 1.871956e-01 1.955469e-01 2.030146e-01 2.050995e-01 2.125772e-01 2.085965e-01 2.172020e-01 2.101916e-01 2.219126e-01 2.152744e-01 2.311152e-01 2.267914e-01 2.451303e-01 2.439170e-01 2.598660e-01 2.625280e-01 2.692083e-01 2.757958e-01 2.689287e-01 2.760737e-01 2.589392e-01 2.606302e-01 2.400982e-01 2.344057e-01 2.148560e-01 2.034994e-01 1.863718e-01 1.721043e-01 1.573930e-01 1.424512e-01 1.297567e-01 1.154903e-01 1.044172e-01 9.145983e-02 
8.492516e-02 7.241452e-02 6.310892e-02 5.231531e-02 4.396731e-02 3.475958e-02 2.733685e-02 2.004814e-02 1.445226e-02 1.227382e-02 1.329488e-02 1.876268e-02 2.379948e-02 3.102517e-02 3.684503e-02 4.499641e-02 5.129958e-02 6.081851e-02 6.768829e-02 7.897774e-02 8.643097e-02 9.986508e-02 1.077355e-01 1.235544e-01 1.313871e-01 1.492248e-01 1.564058e-01 1.746364e-01 1.807266e-01 1.961150e-01 2.011636e-01 2.099706e-01 2.144475e-01 2.151916e-01 2.197272e-01 2.131320e-01 2.204404e-01 2.110521e-01 2.238343e-01 2.159951e-01 2.355497e-01 2.309096e-01 2.551707e-01 2.533873e-01 2.757024e-01 2.772128e-01 2.877835e-01 2.947066e-01 2.877938e-01 2.991075e-01 2.796705e-01 2.840523e-01 2.612941e-01 2.551188e-01 2.339146e-01 2.201859e-01 2.017769e-01 1.847069e-01 1.689080e-01 1.514960e-01 1.378513e-01 1.216631e-01 1.097702e-01 9.539080e-02 
8.582657e-02 7.219817e-02 6.262937e-02 5.094240e-02 4.223621e-02 3.210147e-02 2.406719e-02 1.522097e-02 7.874001e-03 3.478519e-03 8.339143e-03 1.580055e-02 2.220788e-02 2.959880e-02 3.594355e-02 4.383890e-02 5.055704e-02 5.977388e-02 6.721133e-02 7.827364e-02 8.646847e-02 9.991671e-02 1.085576e-01 1.248995e-01 1.332652e-01 1.524853e-01 1.598440e-01 1.805645e-01 1.869229e-01 2.055008e-01 2.118909e-01 2.231646e-01 2.300052e-01 2.311390e-01 2.360538e-01 2.261246e-01 2.317474e-01 2.179636e-01 2.297490e-01 2.192368e-01 2.409344e-01 2.359375e-01 2.660565e-01 2.657292e-01 2.960081e-01 3.014545e-01 3.173653e-01 3.313269e-01 3.216016e-01 3.383327e-01 3.117077e-01 3.156074e-01 2.875221e-01 2.770292e-01 2.533228e-01 2.344118e-01 2.151196e-01 1.935951e-01 1.775129e-01 1.567899e-01 1.429965e-01 1.245067e-01 1.124524e-01 9.649842e-02 