# vtk DataFile Version 2.0
Comment goes here
ASCII

DATASET STRUCTURED_POINTS
DIMENSIONS    64   64   1

ORIGIN    0.000   0.000   0.000
SPACING   0.0156250.015625   1.000

POINT_DATA   4096
SCALARS uMag double
LOOKUP_TABLE default

7.627900e-02 6.717214e-02 6.105822e-02 5.761476e-02 5.876913e-02 6.263685e-02 7.057799e-02 7.920878e-02 9.043701e-02 1.007014e-01 1.120838e-01 1.220719e-01 1.311023e-01 1.397882e-01 1.448766e-01 1.517521e-01 1.528349e-01 1.574322e-01 1.559338e-01 1.584713e-01 1.567494e-01 1.592915e-01 1.603961e-01 1.662634e-01 1.728080e-01 1.837708e-01 1.955318e-01 2.096977e-01 2.235348e-01 2.369996e-01 2.494774e-01 2.592436e-01 2.685435e-01 2.737157e-01 2.796838e-01 2.810057e-01 2.844595e-01 2.834856e-01 2.857170e-01 2.841860e-01 2.863833e-01 2.854114e-01 2.877538e-01 2.870758e-01 2.883385e-01 2.865657e-01 2.849755e-01 2.807985e-01 2.752711e-01 2.682553e-01 2.587980e-01 2.492100e-01 2.365965e-01 2.249892e-01 2.103745e-01 1.974107e-01 1.819958e-01 1.683382e-01 1.530969e-01 1.393436e-01 1.249667e-01 1.117083e-01 9.878288e-02 8.682577e-02 
8.300576e-02 7.576654e-02 7.067468e-02 6.807131e-02 6.863635e-02 7.148816e-02 7.743304e-02 8.425852e-02 9.333734e-02 1.019485e-01 1.116821e-01 1.204480e-01 1.287301e-01 1.366208e-01 1.420459e-01 1.484606e-01 1.507515e-01 1.553786e-01 1.554852e-01 1.587495e-01 1.585157e-01 1.620142e-01 1.637811e-01 1.696989e-01 1.753468e-01 1.847849e-01 1.943267e-01 2.061099e-01 2.175841e-01 2.291031e-01 2.400630e-01 2.490583e-01 2.578988e-01 2.634090e-01 2.696363e-01 2.719125e-01 2.758755e-01 2.759189e-01 2.784558e-01 2.774912e-01 2.794055e-01 2.782376e-01 2.796441e-01 2.781564e-01 2.782441e-01 2.755754e-01 2.731593e-01 2.684642e-01 2.627995e-01 2.557924e-01 2.468973e-01 2.377949e-01 2.262735e-01 2.155360e-01 2.023073e-01 1.904971e-01 1.765475e-01 1.642450e-01 1.504328e-01 1.382011e-01 1.252143e-01 1.136575e-01 1.021524e-01 9.209126e-02 
9.060286e-02 8.455558e-02 8.030587e-02 7.814227e-02 7.835941e-02 8.051369e-02 8.486731e-02 9.038722e-02 9.728830e-02 1.046095e-01 1.121543e-01 1.199321e-01 1.264962e-01 1.338131e-01 1.384066e-01 1.447260e-01 1.472509e-01 1.523509e-01 1.535675e-01 1.577571e-01 1.590127e-01 1.633640e-01 1.662455e-01 1.721811e-01 1.778725e-01 1.861005e-01 1.945538e-01 2.043004e-01 2.141544e-01 2.236242e-01 2.331150e-01 2.406641e-01 2.485693e-01 2.534472e-01 2.593593e-01 2.617069e-01 2.658309e-01 2.663273e-01 2.691712e-01 2.686287e-01 2.706345e-01 2.695648e-01 2.707160e-01 2.690278e-01 2.687288e-01 2.658435e-01 2.632719e-01 2.586020e-01 2.532346e-01 2.465620e-01 2.384229e-01 2.299132e-01 2.194904e-01 2.095393e-01 1.975963e-01 1.867137e-01 1.741013e-01 1.628364e-01 1.503448e-01 1.392563e-01 1.275792e-01 1.172807e-01 1.071100e-01 9.839042e-02 
9.671086e-02 9.171089e-02 8.794027e-02 8.615531e-02 8.603669e-02 8.768585e-02 9.096990e-02 9.540453e-02 1.009850e-01 1.070885e-01 1.135231e-01 1.202284e-01 1.262002e-01 1.327052e-01 1.373420e-01 1.431503e-01 1.462463e-01 1.511890e-01 1.532350e-01 1.576061e-01 1.596073e-01 1.642069e-01 1.673675e-01 1.731555e-01 1.783708e-01 1.857931e-01 1.931066e-01 2.016362e-01 2.101654e-01 2.185541e-01 2.270249e-01 2.340255e-01 2.414066e-01 2.463129e-01 2.520980e-01 2.548417e-01 2.590085e-01 2.599755e-01 2.627906e-01 2.625232e-01 2.642524e-01 2.631179e-01 2.637356e-01 2.617096e-01 2.608149e-01 2.575530e-01 2.546007e-01 2.497480e-01 2.444013e-01 2.378503e-01 2.301663e-01 2.220881e-01 2.124791e-01 2.032295e-01 1.923337e-01 1.823683e-01 1.709118e-01 1.607293e-01 1.494176e-01 1.395399e-01 1.290266e-01 1.200290e-01 1.109722e-01 1.035507e-01 
1.032021e-01 9.883996e-02 9.544273e-02 9.381926e-02 9.339857e-02 9.463273e-02 9.693314e-02 1.005605e-01 1.047471e-01 1.099469e-01 1.149341e-01 1.208659e-01 1.256689e-01 1.316656e-01 1.356617e-01 1.412941e-01 1.443680e-01 1.494732e-01 1.520021e-01 1.567520e-01 1.594522e-01 1.643593e-01 1.680427e-01 1.737186e-01 1.789484e-01 1.856607e-01 1.924146e-01 1.997847e-01 2.074124e-01 2.145623e-01 2.221275e-01 2.281525e-01 2.348686e-01 2.392261e-01 2.446740e-01 2.472741e-01 2.513765e-01 2.524539e-01 2.553257e-01 2.552239e-01 2.569723e-01 2.559178e-01 2.564611e-01 2.544253e-01 2.534522e-01 2.502011e-01 2.473261e-01 2.426226e-01 2.376216e-01 2.314061e-01 2.243524e-01 2.167835e-01 2.080354e-01 1.994358e-01 1.895473e-01 1.803393e-01 1.699543e-01 1.606103e-01 1.503776e-01 1.413986e-01 1.319385e-01 1.238671e-01 1.157943e-01 1.092441e-01 
1.082069e-01 1.044463e-01 1.013074e-01 9.986186e-02 9.924318e-02 1.001622e-01 1.018642e-01 1.048007e-01 1.082093e-01 1.125546e-01 1.168429e-01 1.219414e-01 1.263204e-01 1.316219e-01 1.355498e-01 1.406876e-01 1.440003e-01 1.488371e-01 1.517628e-01 1.564309e-01 1.594852e-01 1.643519e-01 1.681413e-01 1.736164e-01 1.785716e-01 1.848126e-01 1.909469e-01 1.976657e-01 2.045309e-01 2.110788e-01 2.179728e-01 2.236405e-01 2.299035e-01 2.341991e-01 2.394004e-01 2.421519e-01 2.461180e-01 2.474154e-01 2.501450e-01 2.501930e-01 2.517122e-01 2.506641e-01 2.508943e-01 2.487499e-01 2.474751e-01 2.441087e-01 2.410788e-01 2.363712e-01 2.314621e-01 2.254244e-01 2.187372e-01 2.115453e-01 2.034046e-01 1.953663e-01 1.862579e-01 1.777651e-01 1.682567e-01 1.597454e-01 1.504199e-01 1.423499e-01 1.337731e-01 1.266288e-01 1.193516e-01 1.136464e-01 
1.133709e-01 1.099671e-01 1.069829e-01 1.055936e-01 1.047202e-01 1.053681e-01 1.064213e-01 1.088448e-01 1.113497e-01 1.150895e-01 1.184240e-01 1.229679e-01 1.265472e-01 1.314472e-01 1.348801e-01 1.398204e-01 1.429959e-01 1.478311e-01 1.509146e-01 1.556929e-01 1.590400e-01 1.639719e-01 1.679819e-01 1.733073e-01 1.782403e-01 1.840303e-01 1.898508e-01 1.958775e-01 2.022294e-01 2.080162e-01 2.143607e-01 2.193807e-01 2.251992e-01 2.290689e-01 2.339981e-01 2.365573e-01 2.404128e-01 2.416879e-01 2.444041e-01 2.445064e-01 2.460401e-01 2.450530e-01 2.453003e-01 2.432135e-01 2.419962e-01 2.387265e-01 2.358655e-01 2.313464e-01 2.267722e-01 2.210421e-01 2.148673e-01 2.080998e-01 2.006218e-01 1.931070e-01 1.847632e-01 1.768693e-01 1.681743e-01 1.603125e-01 1.518011e-01 1.444023e-01 1.365951e-01 1.301002e-01 1.234892e-01 1.183393e-01 
1.172573e-01 1.141974e-01 1.113616e-01 1.100432e-01 1.090503e-01 1.094718e-01 1.101781e-01 1.121346e-01 1.141798e-01 1.173205e-01 1.202238e-01 1.241490e-01 1.274405e-01 1.317888e-01 1.351298e-01 1.396387e-01 1.428977e-01 1.474404e-01 1.507025e-01 1.553019e-01 1.588098e-01 1.636026e-01 1.676441e-01 1.727779e-01 1.775441e-01 1.830396e-01 1.885061e-01 1.941691e-01 2.000682e-01 2.055190e-01 2.114252e-01 2.162293e-01 2.216998e-01 2.255078e-01 2.301930e-01 2.328139e-01 2.364948e-01 2.378860e-01 2.404463e-01 2.406488e-01 2.420100e-01 2.410691e-01 2.411322e-01 2.390486e-01 2.376835e-01 2.344250e-01 2.315198e-01 2.270806e-01 2.226187e-01 2.170790e-01 2.111909e-01 2.047402e-01 1.977073e-01 1.906303e-01 1.828510e-01 1.754970e-01 1.674369e-01 1.601885e-01 1.523325e-01 1.455821e-01 1.384004e-01 1.325348e-01 1.264620e-01 1.218460e-01 
1.211675e-01 1.183089e-01 1.155088e-01 1.142008e-01 1.129898e-01 1.132269e-01 1.134816e-01 1.151057e-01 1.165464e-01 1.192879e-01 1.215517e-01 1.250965e-01 1.278344e-01 1.318874e-01 1.348507e-01 1.391830e-01 1.422734e-01 1.467518e-01 1.500216e-01 1.546178e-01 1.582232e-01 1.629885e-01 1.671063e-01 1.721013e-01 1.768309e-01 1.820316e-01 1.873158e-01 1.925533e-01 1.981610e-01 2.031385e-01 2.087232e-01 2.131029e-01 2.183000e-01 2.217998e-01 2.263054e-01 2.287534e-01 2.323538e-01 2.336847e-01 2.362392e-01 2.364520e-01 2.378518e-01 2.369573e-01 2.370911e-01 2.350812e-01 2.338334e-01 2.306913e-01 2.279801e-01 2.237227e-01 2.195558e-01 2.142769e-01 2.087895e-01 2.026775e-01 1.961355e-01 1.894636e-01 1.822363e-01 1.753357e-01 1.678534e-01 1.610846e-01 1.537947e-01 1.475220e-01 1.408547e-01 1.354273e-01 1.297687e-01 1.255010e-01 
1.240408e-01 1.213622e-01 1.186405e-01 1.173358e-01 1.160457e-01 1.161019e-01 1.161485e-01 1.174393e-01 1.186063e-01 1.209218e-01 1.229239e-01 1.260170e-01 1.285702e-01 1.322033e-01 1.350909e-01 1.390742e-01 1.421893e-01 1.464051e-01 1.497569e-01 1.541655e-01 1.578474e-01 1.624648e-01 1.665916e-01 1.714348e-01 1.760669e-01 1.810869e-01 1.861678e-01 1.912067e-01 1.965446e-01 2.013459e-01 2.066505e-01 2.109185e-01 2.158696e-01 2.193413e-01 2.236523e-01 2.261439e-01 2.295933e-01 2.310069e-01 2.334346e-01 2.337341e-01 2.350177e-01 2.341930e-01 2.342251e-01 2.322719e-01 2.309605e-01 2.278859e-01 2.251820e-01 2.210337e-01 2.169715e-01 2.118671e-01 2.065913e-01 2.007300e-01 1.944978e-01 1.881505e-01 1.813081e-01 1.747933e-01 1.677398e-01 1.613961e-01 1.545439e-01 1.487046e-01 1.424459e-01 1.374191e-01 1.320992e-01 1.281484e-01 
1.268322e-01 1.242573e-01 1.214930e-01 1.201730e-01 1.186864e-01 1.186118e-01 1.183263e-01 1.193996e-01 1.201477e-01 1.222048e-01 1.237699e-01 1.266135e-01 1.287818e-01 1.322143e-01 1.348218e-01 1.386739e-01 1.416343e-01 1.457838e-01 1.490902e-01 1.534676e-01 1.571670e-01 1.617412e-01 1.658886e-01 1.706300e-01 1.752354e-01 1.800706e-01 1.850560e-01 1.898374e-01 1.950251e-01 1.995370e-01 2.046751e-01 2.086735e-01 2.134843e-01 2.167469e-01 2.209729e-01 2.233333e-01 2.267616e-01 2.281171e-01 2.305795e-01 2.308763e-01 2.322365e-01 2.314482e-01 2.315905e-01 2.297064e-01 2.285409e-01 2.255728e-01 2.230598e-01 2.190640e-01 2.152450e-01 2.103444e-01 2.053638e-01 1.997558e-01 1.938609e-01 1.878076e-01 1.813277e-01 1.751339e-01 1.684465e-01 1.624327e-01 1.559255e-01 1.504030e-01 1.444403e-01 1.396898e-01 1.345851e-01 1.308392e-01 
1.288091e-01 1.262977e-01 1.235553e-01 1.221875e-01 1.206365e-01 1.204027e-01 1.199859e-01 1.208081e-01 1.213938e-01 1.231425e-01 1.245563e-01 1.270737e-01 1.291371e-01 1.322619e-01 1.348284e-01 1.384176e-01 1.413963e-01 1.453402e-01 1.486999e-01 1.529264e-01 1.566784e-01 1.611400e-01 1.653039e-01 1.699501e-01 1.745125e-01 1.792559e-01 1.841358e-01 1.888304e-01 1.938675e-01 1.983128e-01 2.032838e-01 2.072533e-01 2.119073e-01 2.151872e-01 2.192819e-01 2.217007e-01 2.250256e-01 2.264647e-01 2.288467e-01 2.292343e-01 2.305322e-01 2.298303e-01 2.299299e-01 2.281276e-01 2.269486e-01 2.240681e-01 2.215841e-01 2.176965e-01 2.139601e-01 2.092009e-01 2.043598e-01 1.989325e-01 1.932287e-01 1.873943e-01 1.811443e-01 1.751990e-01 1.687623e-01 1.630117e-01 1.567548e-01 1.514883e-01 1.457523e-01 1.412234e-01 1.362974e-01 1.327082e-01 
1.306056e-01 1.281257e-01 1.252781e-01 1.238733e-01 1.221329e-01 1.218000e-01 1.211238e-01 1.218035e-01 1.220892e-01 1.236784e-01 1.247907e-01 1.271594e-01 1.289593e-01 1.319681e-01 1.343386e-01 1.378551e-01 1.407172e-01 1.446278e-01 1.479422e-01 1.521565e-01 1.559097e-01 1.603534e-01 1.645329e-01 1.691294e-01 1.736937e-01 1.783409e-01 1.831954e-01 1.877508e-01 1.927400e-01 1.970230e-01 2.019422e-01 2.057540e-01 2.103751e-01 2.135265e-01 2.176250e-01 2.199583e-01 2.233313e-01 2.247299e-01 2.272019e-01 2.275881e-01 2.290095e-01 2.283378e-01 2.285854e-01 2.268406e-01 2.258274e-01 2.230315e-01 2.207268e-01 2.169528e-01 2.134058e-01 2.087897e-01 2.041438e-01 1.988863e-01 1.933777e-01 1.877331e-01 1.816713e-01 1.759260e-01 1.696616e-01 1.641082e-01 1.579971e-01 1.529103e-01 1.472801e-01 1.428969e-01 1.380208e-01 1.345266e-01 
1.317815e-01 1.292715e-01 1.263917e-01 1.248934e-01 1.230856e-01 1.225995e-01 1.218334e-01 1.223132e-01 1.225062e-01 1.238687e-01 1.249070e-01 1.270450e-01 1.288062e-01 1.316018e-01 1.339759e-01 1.373131e-01 1.402161e-01 1.439907e-01 1.473677e-01 1.514901e-01 1.553064e-01 1.596954e-01 1.639171e-01 1.684853e-01 1.730560e-01 1.776926e-01 1.825139e-01 1.870732e-01 1.919973e-01 1.963017e-01 2.011395e-01 2.049951e-01 2.095352e-01 2.127547e-01 2.167856e-01 2.192079e-01 2.225329e-01 2.240332e-01 2.264777e-01 2.269686e-01 2.283806e-01 2.278094e-01 2.280637e-01 2.264128e-01 2.254217e-01 2.227158e-01 2.204493e-01 2.167671e-01 2.132745e-01 2.087575e-01 2.041812e-01 1.990331e-01 1.936062e-01 1.880808e-01 1.821080e-01 1.764868e-01 1.703126e-01 1.648796e-01 1.588520e-01 1.538695e-01 1.483067e-01 1.439969e-01 1.391623e-01 1.356958e-01 
1.326747e-01 1.301326e-01 1.270892e-01 1.255291e-01 1.235272e-01 1.229580e-01 1.219770e-01 1.223649e-01 1.223383e-01 1.236150e-01 1.244490e-01 1.265209e-01 1.281128e-01 1.308711e-01 1.331250e-01 1.364564e-01 1.392937e-01 1.430885e-01 1.464494e-01 1.506054e-01 1.544421e-01 1.588614e-01 1.631229e-01 1.677024e-01 1.723170e-01 1.769360e-01 1.817969e-01 1.863096e-01 1.912697e-01 1.955077e-01 2.003863e-01 2.041702e-01 2.087681e-01 2.119253e-01 2.160419e-01 2.184218e-01 2.218668e-01 2.233494e-01 2.259473e-01 2.264448e-01 2.280364e-01 2.274929e-01 2.279401e-01 2.263344e-01 2.255336e-01 2.228876e-01 2.207926e-01 2.171829e-01 2.138297e-01 2.093954e-01 2.049184e-01 1.998600e-01 1.944908e-01 1.890569e-01 1.831035e-01 1.775696e-01 1.713817e-01 1.660245e-01 1.599546e-01 1.550289e-01 1.493968e-01 1.451180e-01 1.401852e-01 1.367191e-01 
1.331163e-01 1.304588e-01 1.273264e-01 1.256261e-01 1.235414e-01 1.228134e-01 1.217641e-01 1.219837e-01 1.219126e-01 1.230222e-01 1.238432e-01 1.257604e-01 1.273745e-01 1.300011e-01 1.323105e-01 1.355421e-01 1.384605e-01 1.421934e-01 1.456489e-01 1.497828e-01 1.537130e-01 1.581477e-01 1.624880e-01 1.671143e-01 1.717833e-01 1.764733e-01 1.813605e-01 1.859624e-01 1.909240e-01 1.952650e-01 2.001296e-01 2.040277e-01 2.086084e-01 2.118887e-01 2.159966e-01 2.185052e-01 2.219583e-01 2.235706e-01 2.261966e-01 2.268196e-01 2.284569e-01 2.280293e-01 2.285324e-01 2.270290e-01 2.262842e-01 2.237244e-01 2.216748e-01 2.181347e-01 2.148072e-01 2.104267e-01 2.059504e-01 2.009308e-01 1.955367e-01 1.901267e-01 1.841262e-01 1.785999e-01 1.723484e-01 1.669797e-01 1.608351e-01 1.558756e-01 1.501615e-01 1.458233e-01 1.408038e-01 1.372503e-01 
1.331624e-01 1.304067e-01 1.270515e-01 1.252572e-01 1.229654e-01 1.221579e-01 1.209222e-01 1.210862e-01 1.208555e-01 1.219400e-01 1.226344e-01 1.245599e-01 1.260855e-01 1.287528e-01 1.310145e-01 1.343141e-01 1.372251e-01 1.410449e-01 1.445296e-01 1.487587e-01 1.527481e-01 1.572745e-01 1.616959e-01 1.664001e-01 1.711643e-01 1.759111e-01 1.809024e-01 1.855375e-01 1.906107e-01 1.949641e-01 1.999504e-01 2.038469e-01 2.085654e-01 2.118389e-01 2.161084e-01 2.186135e-01 2.222587e-01 2.238769e-01 2.267269e-01 2.273680e-01 2.292535e-01 2.288553e-01 2.296123e-01 2.281452e-01 2.276318e-01 2.251100e-01 2.232379e-01 2.197319e-01 2.165020e-01 2.121471e-01 2.076761e-01 2.026697e-01 1.971922e-01 1.917797e-01 1.856237e-01 1.800764e-01 1.736201e-01 1.682102e-01 1.618335e-01 1.568124e-01 1.508559e-01 1.464380e-01 1.411769e-01 1.375306e-01 
1.329100e-01 1.299512e-01 1.264443e-01 1.244569e-01 1.220582e-01 1.210769e-01 1.197844e-01 1.198001e-01 1.195643e-01 1.205292e-01 1.212674e-01 1.231034e-01 1.247139e-01 1.273232e-01 1.297005e-01 1.329760e-01 1.360209e-01 1.398539e-01 1.434787e-01 1.477609e-01 1.518857e-01 1.565053e-01 1.610484e-01 1.658821e-01 1.707479e-01 1.756532e-01 1.807229e-01 1.855359e-01 1.906653e-01 1.952059e-01 2.002323e-01 2.043168e-01 2.090700e-01 2.125264e-01 2.168383e-01 2.195181e-01 2.232248e-01 2.250080e-01 2.279443e-01 2.287382e-01 2.307310e-01 2.304691e-01 2.313403e-01 2.299867e-01 2.295727e-01 2.271348e-01 2.253229e-01 2.218658e-01 2.186369e-01 2.142926e-01 2.097532e-01 2.047178e-01 1.991048e-01 1.936240e-01 1.872791e-01 1.816257e-01 1.749465e-01 1.693960e-01 1.627824e-01 1.575919e-01 1.514019e-01 1.467932e-01 1.413156e-01 1.374669e-01 
1.321328e-01 1.289986e-01 1.252063e-01 1.230810e-01 1.204571e-01 1.193895e-01 1.179327e-01 1.179212e-01 1.175790e-01 1.185758e-01 1.192592e-01 1.211789e-01 1.227787e-01 1.255114e-01 1.279142e-01 1.313394e-01 1.344404e-01 1.384368e-01 1.421447e-01 1.465934e-01 1.508264e-01 1.556071e-01 1.602820e-01 1.652642e-01 1.702830e-01 1.753185e-01 1.805589e-01 1.854793e-01 1.907932e-01 1.954166e-01 2.006390e-01 2.047830e-01 2.097456e-01 2.132432e-01 2.177855e-01 2.204960e-01 2.244649e-01 2.262769e-01 2.295147e-01 2.303413e-01 2.326692e-01 2.324443e-01 2.336582e-01 2.323401e-01 2.322302e-01 2.298164e-01 2.282146e-01 2.247603e-01 2.216010e-01 2.172310e-01 2.126003e-01 2.075062e-01 2.016535e-01 1.960785e-01 1.893821e-01 1.835994e-01 1.765037e-01 1.707922e-01 1.637411e-01 1.583651e-01 1.517502e-01 1.469434e-01 1.410756e-01 1.370314e-01 
1.312061e-01 1.277680e-01 1.237529e-01 1.213706e-01 1.186090e-01 1.173440e-01 1.158387e-01 1.156931e-01 1.153870e-01 1.163078e-01 1.170980e-01 1.189902e-01 1.207472e-01 1.234925e-01 1.260817e-01 1.295556e-01 1.328536e-01 1.369368e-01 1.408390e-01 1.454174e-01 1.498338e-01 1.547904e-01 1.596330e-01 1.648358e-01 1.700029e-01 1.752947e-01 1.806609e-01 1.858586e-01 1.912745e-01 1.961787e-01 2.014830e-01 2.058962e-01 2.109316e-01 2.146777e-01 2.193016e-01 2.222379e-01 2.263162e-01 2.283340e-01 2.317197e-01 2.327341e-01 2.352440e-01 2.351853e-01 2.365919e-01 2.354088e-01 2.354640e-01 2.331417e-01 2.316335e-01 2.282163e-01 2.250427e-01 2.206479e-01 2.158772e-01 2.106919e-01 2.045806e-01 1.988469e-01 1.918017e-01 1.857964e-01 1.783004e-01 1.723119e-01 1.648466e-01 1.591546e-01 1.521426e-01 1.470008e-01 1.407769e-01 1.364016e-01 
1.296059e-01 1.258927e-01 1.215258e-01 1.189429e-01 1.159370e-01 1.145670e-01 1.129216e-01 1.127743e-01 1.124200e-01 1.134346e-01 1.142486e-01 1.163094e-01 1.181397e-01 1.211022e-01 1.237953e-01 1.275107e-01 1.309321e-01 1.352628e-01 1.393053e-01 1.441270e-01 1.487042e-01 1.538950e-01 1.589246e-01 1.643492e-01 1.697323e-01 1.752289e-01 1.808370e-01 1.862157e-01 1.918911e-01 1.969454e-01 2.025173e-01 2.070458e-01 2.123539e-01 2.161825e-01 2.210939e-01 2.240895e-01 2.284919e-01 2.305594e-01 2.343288e-01 2.353948e-01 2.383517e-01 2.383484e-01 2.402320e-01 2.390981e-01 2.395859e-01 2.372888e-01 2.360708e-01 2.326380e-01 2.295278e-01 2.250656e-01 2.200982e-01 2.147878e-01 2.082475e-01 2.023289e-01 1.946934e-01 1.884455e-01 1.802816e-01 1.740013e-01 1.658630e-01 1.598454e-01 1.522064e-01 1.467275e-01 1.399535e-01 1.352571e-01 
1.280154e-01 1.238715e-01 1.191989e-01 1.162763e-01 1.130955e-01 1.114957e-01 1.098126e-01 1.095458e-01 1.092801e-01 1.102679e-01 1.112689e-01 1.133695e-01 1.154476e-01 1.184939e-01 1.214589e-01 1.252921e-01 1.289827e-01 1.334685e-01 1.377633e-01 1.427884e-01 1.475977e-01 1.530507e-01 1.582935e-01 1.640404e-01 1.696179e-01 1.754854e-01 1.812645e-01 1.870387e-01 1.928553e-01 1.983006e-01 2.039826e-01 2.088723e-01 2.142719e-01 2.184194e-01 2.234317e-01 2.267061e-01 2.312538e-01 2.335721e-01 2.375550e-01 2.388540e-01 2.420894e-01 2.422994e-01 2.444904e-01 2.435338e-01 2.442940e-01 2.421167e-01 2.410611e-01 2.376726e-01 2.345507e-01 2.300445e-01 2.248604e-01 2.194068e-01 2.124602e-01 2.062930e-01 1.981155e-01 1.915174e-01 1.827435e-01 1.760287e-01 1.672728e-01 1.607652e-01 1.525458e-01 1.465575e-01 1.392717e-01 1.340860e-01 
1.255839e-01 1.210268e-01 1.159318e-01 1.127155e-01 1.092731e-01 1.075337e-01 1.057449e-01 1.055033e-01 1.052654e-01 1.064238e-01 1.075472e-01 1.099218e-01 1.121738e-01 1.155495e-01 1.187061e-01 1.228840e-01 1.267673e-01 1.315892e-01 1.360791e-01 1.414241e-01 1.464444e-01 1.522035e-01 1.576896e-01 1.637323e-01 1.695948e-01 1.757449e-01 1.818470e-01 1.878796e-01 1.940398e-01 1.997041e-01 2.057269e-01 2.107845e-01 2.165084e-01 2.207721e-01 2.261052e-01 2.294580e-01 2.343679e-01 2.367518e-01 2.411959e-01 2.425715e-01 2.463984e-01 2.467013e-01 2.495779e-01 2.487117e-01 2.501312e-01 2.480077e-01 2.474081e-01 2.440070e-01 2.409798e-01 2.363795e-01 2.308716e-01 2.252349e-01 2.176076e-01 2.111637e-01 2.020829e-01 1.951170e-01 1.853607e-01 1.782007e-01 1.684933e-01 1.614887e-01 1.524153e-01 1.459139e-01 1.379045e-01 1.322321e-01 
1.233509e-01 1.181913e-01 1.126907e-01 1.090207e-01 1.053573e-01 1.033445e-01 1.015358e-01 1.011977e-01 1.011250e-01 1.023241e-01 1.037474e-01 1.062440e-01 1.088640e-01 1.123980e-01 1.159314e-01 1.202875e-01 1.245187e-01 1.295499e-01 1.343469e-01 1.399585e-01 1.452528e-01 1.513607e-01 1.571015e-01 1.635832e-01 1.696871e-01 1.763495e-01 1.826707e-01 1.892487e-01 1.955865e-01 2.017782e-01 2.079231e-01 2.134476e-01 2.192503e-01 2.239029e-01 2.293195e-01 2.329970e-01 2.380630e-01 2.407412e-01 2.454662e-01 2.471345e-01 2.513716e-01 2.519661e-01 2.553267e-01 2.547201e-01 2.565924e-01 2.546558e-01 2.543509e-01 2.510361e-01 2.480333e-01 2.434009e-01 2.375899e-01 2.317776e-01 2.235517e-01 2.167680e-01 2.068952e-01 1.994270e-01 1.888021e-01 1.810073e-01 1.704454e-01 1.627240e-01 1.528655e-01 1.456250e-01 1.369310e-01 1.305585e-01 
1.201032e-01 1.143288e-01 1.083296e-01 1.042203e-01 1.002794e-01 9.806558e-02 9.620402e-02 9.592387e-02 9.598929e-02 9.746583e-02 9.914815e-02 1.020602e-01 1.049828e-01 1.089851e-01 1.128097e-01 1.176249e-01 1.221156e-01 1.275680e-01 1.326046e-01 1.386016e-01 1.441469e-01 1.506237e-01 1.566616e-01 1.635120e-01 1.699797e-01 1.770096e-01 1.837556e-01 1.906793e-01 1.974681e-01 2.039537e-01 2.105236e-01 2.162656e-01 2.224273e-01 2.272161e-01 2.329391e-01 2.366936e-01 2.421006e-01 2.448467e-01 2.500793e-01 2.518577e-01 2.568676e-01 2.576290e-01 2.620052e-01 2.615835e-01 2.645205e-01 2.627165e-01 2.631956e-01 2.599055e-01 2.570939e-01 2.523640e-01 2.460541e-01 2.400140e-01 2.307387e-01 2.235835e-01 2.123708e-01 2.043860e-01 1.923728e-01 1.839377e-01 1.720955e-01 1.636522e-01 1.526923e-01 1.447022e-01 1.351045e-01 1.280156e-01 
1.173001e-01 1.106768e-01 1.041458e-01 9.941422e-02 9.518750e-02 9.263836e-02 9.078526e-02 9.045376e-02 9.080393e-02 9.242953e-02 9.458039e-02 9.772545e-02 1.011818e-01 1.054185e-01 1.097472e-01 1.147783e-01 1.196944e-01 1.253771e-01 1.307582e-01 1.370591e-01 1.429006e-01 1.498081e-01 1.561332e-01 1.635622e-01 1.703249e-01 1.780544e-01 1.850837e-01 1.927570e-01 1.997687e-01 2.069605e-01 2.136468e-01 2.199750e-01 2.261495e-01 2.313808e-01 2.370977e-01 2.411914e-01 2.467110e-01 2.497766e-01 2.553528e-01 2.575043e-01 2.631122e-01 2.643056e-01 2.694476e-01 2.694477e-01 2.731445e-01 2.716660e-01 2.726862e-01 2.695857e-01 2.668983e-01 2.622078e-01 2.554903e-01 2.492787e-01 2.391316e-01 2.315357e-01 2.191897e-01 2.104942e-01 1.972888e-01 1.879334e-01 1.749678e-01 1.654868e-01 1.535258e-01 1.444760e-01 1.340133e-01 1.259291e-01 
1.133425e-01 1.058013e-01 9.868231e-02 9.327157e-02 8.874166e-02 8.587759e-02 8.404833e-02 8.382058e-02 8.447938e-02 8.654616e-02 8.915743e-02 9.291769e-02 9.684645e-02 1.017241e-01 1.064544e-01 1.120622e-01 1.172918e-01 1.234596e-01 1.290999e-01 1.358208e-01 1.419317e-01 1.492484e-01 1.559195e-01 1.637878e-01 1.710121e-01 1.792102e-01 1.868075e-01 1.949360e-01 2.025577e-01 2.101309e-01 2.173602e-01 2.239492e-01 2.304966e-01 2.358557e-01 2.417709e-01 2.458944e-01 2.515992e-01 2.546981e-01 2.607319e-01 2.630375e-01 2.696273e-01 2.711340e-01 2.778216e-01 2.782106e-01 2.837139e-01 2.825419e-01 2.849954e-01 2.820072e-01 2.797222e-01 2.749646e-01 2.674634e-01 2.610020e-01 2.492156e-01 2.411439e-01 2.268197e-01 2.174085e-01 2.022895e-01 1.920204e-01 1.774044e-01 1.668873e-01 1.535822e-01 1.434550e-01 1.319246e-01 1.227992e-01 
1.101727e-01 1.014209e-01 9.359996e-02 8.729812e-02 8.237028e-02 7.906992e-02 7.728795e-02 7.710326e-02 7.824634e-02 8.065442e-02 8.399797e-02 8.814885e-02 9.284073e-02 9.801579e-02 1.033971e-01 1.092020e-01 1.149135e-01 1.212615e-01 1.272382e-01 1.342451e-01 1.406313e-01 1.484473e-01 1.554224e-01 1.640478e-01 1.716420e-01 1.808104e-01 1.888017e-01 1.979830e-01 2.059128e-01 2.144436e-01 2.217710e-01 2.290758e-01 2.354757e-01 2.412745e-01 2.469487e-01 2.513326e-01 2.569906e-01 2.603694e-01 2.667888e-01 2.695763e-01 2.770467e-01 2.792576e-01 2.871759e-01 2.883209e-01 2.951089e-01 2.945366e-01 2.979804e-01 2.953865e-01 2.934558e-01 2.889255e-01 2.808765e-01 2.743130e-01 2.612271e-01 2.525727e-01 2.366248e-01 2.261622e-01 2.094497e-01 1.978039e-01 1.817857e-01 1.697462e-01 1.552477e-01 1.436009e-01 1.310469e-01 1.205105e-01 
1.058407e-01 9.572501e-02 8.719248e-02 7.979969e-02 7.448643e-02 7.064076e-02 6.897756e-02 6.897231e-02 7.070283e-02 7.382878e-02 7.793776e-02 8.299127e-02 8.837206e-02 9.439186e-02 1.002818e-01 1.067620e-01 1.128062e-01 1.196449e-01 1.258532e-01 1.332448e-01 1.398815e-01 1.481030e-01 1.554680e-01 1.646063e-01 1.727983e-01 1.825774e-01 1.913605e-01 2.011544e-01 2.099603e-01 2.189822e-01 2.270593e-01 2.346503e-01 2.414234e-01 2.472843e-01 2.528729e-01 2.571338e-01 2.625300e-01 2.658100e-01 2.723930e-01 2.753861e-01 2.840297e-01 2.868520e-01 2.971727e-01 2.991478e-01 3.091361e-01 3.092357e-01 3.154387e-01 3.130971e-01 3.119732e-01 3.074520e-01 2.980712e-01 2.912818e-01 2.755355e-01 2.662697e-01 2.473835e-01 2.358893e-01 2.166033e-01 2.036149e-01 1.855788e-01 1.720416e-01 1.560200e-01 1.428444e-01 1.291236e-01 1.171042e-01 
1.027905e-01 9.095812e-02 8.148352e-02 7.274489e-02 6.679347e-02 6.230345e-02 6.072434e-02 6.097442e-02 6.355538e-02 6.739129e-02 7.265009e-02 7.830710e-02 8.474879e-02 9.106598e-02 9.775094e-02 1.042819e-01 1.108028e-01 1.176293e-01 1.240647e-01 1.316183e-01 1.384227e-01 1.471847e-01 1.548480e-01 1.649928e-01 1.736850e-01 1.848622e-01 1.942615e-01 2.056038e-01 2.149154e-01 2.252855e-01 2.334600e-01 2.418978e-01 2.481928e-01 2.543455e-01 2.591533e-01 2.633562e-01 2.682986e-01 2.716269e-01 2.785847e-01 2.822000e-01 2.921838e-01 2.962840e-01 3.086325e-01 3.121069e-01 3.242695e-01 3.255152e-01 3.335023e-01 3.319002e-01 3.316548e-01 3.277894e-01 3.176441e-01 3.109285e-01 2.931380e-01 2.829921e-01 2.617487e-01 2.485374e-01 2.271839e-01 2.120188e-01 1.923468e-01 1.765317e-01 1.592142e-01 1.438767e-01 1.290532e-01 1.150750e-01 
9.890446e-02 8.514418e-02 7.476801e-02 6.423941e-02 5.761396e-02 5.204169e-02 5.064234e-02 5.124294e-02 5.491717e-02 5.998799e-02 6.645158e-02 7.339764e-02 8.075055e-02 8.811221e-02 9.536515e-02 1.026038e-01 1.094040e-01 1.166003e-01 1.231575e-01 1.309184e-01 1.378957e-01 1.469843e-01 1.550857e-01 1.658486e-01 1.753530e-01 1.873915e-01 1.979520e-01 2.101735e-01 2.208336e-01 2.318387e-01 2.411840e-01 2.498796e-01 2.565883e-01 2.626348e-01 2.667550e-01 2.704440e-01 2.740595e-01 2.768996e-01 2.831664e-01 2.870274e-01 2.982263e-01 3.035681e-01 3.196869e-01 3.249739e-01 3.430132e-01 3.457190e-01 3.593274e-01 3.580774e-01 3.593080e-01 3.555878e-01 3.429144e-01 3.361142e-01 3.137826e-01 3.027805e-01 2.771479e-01 2.622926e-01 2.376021e-01 2.203475e-01 1.983875e-01 1.803833e-01 1.615149e-01 1.440733e-01 1.281166e-01 1.121456e-01 
9.697559e-02 8.095370e-02 6.933441e-02 5.673275e-02 4.888024e-02 4.208169e-02 4.073575e-02 4.216779e-02 4.747426e-02 5.397570e-02 6.217111e-02 6.991067e-02 7.861858e-02 8.608634e-02 9.421502e-02 1.011056e-01 1.082406e-01 1.149686e-01 1.214327e-01 1.290362e-01 1.359082e-01 1.455297e-01 1.539029e-01 1.660543e-01 1.763197e-01 1.904833e-01 2.021190e-01 2.167754e-01 2.284086e-01 2.414527e-01 2.510188e-01 2.606821e-01 2.662742e-01 2.721482e-01 2.742795e-01 2.770196e-01 2.792424e-01 2.813680e-01 2.878796e-01 2.924997e-01 3.058727e-01 3.137920e-01 3.333952e-01 3.419963e-01 3.636697e-01 3.686907e-01 3.853334e-01 3.852255e-01 3.886278e-01 3.865439e-01 3.727017e-01 3.662784e-01 3.404564e-01 3.277365e-01 2.986252e-01 2.805931e-01 2.533337e-01 2.324370e-01 2.087397e-01 1.873025e-01 1.671953e-01 1.467849e-01 1.297888e-01 1.112832e-01 
9.515348e-02 7.687576e-02 6.416547e-02 4.892942e-02 3.954672e-02 3.011947e-02 2.864646e-02 3.112899e-02 3.860593e-02 4.730216e-02 5.706949e-02 6.644465e-02 7.609515e-02 8.470849e-02 9.332503e-02 1.008335e-01 1.080681e-01 1.148022e-01 1.211404e-01 1.284910e-01 1.353655e-01 1.451171e-01 1.540225e-01 1.670209e-01 1.784866e-01 1.940413e-01 2.074588e-01 2.235213e-01 2.373316e-01 2.512004e-01 2.628454e-01 2.725612e-01 2.788542e-01 2.843400e-01 2.846409e-01 2.859498e-01 2.844529e-01 2.850043e-01 2.887548e-01 2.935924e-01 3.078002e-01 3.183601e-01 3.438084e-01 3.564745e-01 3.891454e-01 3.974890e-01 4.264524e-01 4.262204e-01 4.317818e-01 4.301193e-01 4.109703e-01 4.049791e-01 3.709970e-01 3.567610e-01 3.211351e-01 3.000701e-01 2.687328e-01 2.443696e-01 2.183276e-01 1.937042e-01 1.722087e-01 1.491042e-01 1.311529e-01 1.103283e-01 
9.597742e-02 7.538392e-02 6.134366e-02 4.361832e-02 3.189697e-02 1.913742e-02 1.699087e-02 2.288597e-02 3.357380e-02 4.455201e-02 5.626604e-02 6.622158e-02 7.727832e-02 8.540529e-02 9.483806e-02 1.011797e-01 1.083616e-01 1.137096e-01 1.191855e-01 1.257040e-01 1.318853e-01 1.420850e-01 1.512704e-01 1.662858e-01 1.790770e-01 1.980372e-01 2.134346e-01 2.336297e-01 2.494412e-01 2.667663e-01 2.792081e-01 2.899979e-01 2.939997e-01 2.982746e-01 2.938406e-01 2.920555e-01 2.871000e-01 2.847272e-01 2.882975e-01 2.938197e-01 3.119176e-01 3.281497e-01 3.600388e-01 3.808740e-01 4.194023e-01 4.330872e-01 4.660765e-01 4.665648e-01 4.780083e-01 4.804331e-01 4.591497e-01 4.537560e-01 4.131850e-01 3.946185e-01 3.538428e-01 3.262843e-01 2.919642e-01 2.613385e-01 2.336342e-01 2.039740e-01 1.814120e-01 1.545550e-01 1.357256e-01 1.120999e-01 
9.848820e-02 7.644086e-02 6.156034e-02 4.230093e-02 2.874567e-02 1.163544e-02 2.801942e-03 1.651527e-02 2.914542e-02 4.245841e-02 5.471851e-02 6.612477e-02 7.755406e-02 8.675403e-02 9.635500e-02 1.031324e-01 1.100521e-01 1.145953e-01 1.194443e-01 1.246526e-01 1.304797e-01 1.404531e-01 1.504567e-01 1.669355e-01 1.817495e-01 2.033093e-01 2.215378e-01 2.443134e-01 2.636164e-01 2.820287e-01 2.984627e-01 3.084233e-01 3.143478e-01 3.182239e-01 3.100908e-01 3.048213e-01 2.908098e-01 2.837517e-01 2.799475e-01 2.855064e-01 3.034020e-01 3.256283e-01 3.661605e-01 3.961278e-01 4.546992e-01 4.766813e-01 5.394639e-01 5.364445e-01 5.482859e-01 5.521914e-01 5.192850e-01 5.161503e-01 4.602338e-01 4.378255e-01 3.877145e-01 3.537650e-01 3.148770e-01 2.783260e-01 2.483863e-01 2.143051e-01 1.904841e-01 1.606351e-01 1.409459e-01 1.153324e-01 