# vtk DataFile Version 2.0
Comment goes here
ASCII

DATASET STRUCTURED_POINTS
DIMENSIONS    64   64   1

ORIGIN    0.000   0.000   0.000
SPACING   0.0156250.015625   1.000

POINT_DATA   4096
SCALARS uMag double
LOOKUP_TABLE default

2.675918e-01 2.609186e-01 2.562543e-01 2.537445e-01 2.534866e-01 2.548785e-01 2.585133e-01 2.632021e-01 2.698938e-01 2.769761e-01 2.856628e-01 2.940701e-01 3.036381e-01 3.123352e-01 3.218276e-01 3.300181e-01 3.388179e-01 3.461082e-01 3.540670e-01 3.605780e-01 3.680892e-01 3.744843e-01 3.824387e-01 3.897628e-01 3.992527e-01 4.084940e-01 4.202687e-01 4.318023e-01 4.458014e-01 4.591312e-01 4.744855e-01 4.885013e-01 5.039640e-01 5.174400e-01 5.318363e-01 5.437709e-01 5.561830e-01 5.658557e-01 5.755593e-01 5.824081e-01 5.887117e-01 5.921763e-01 5.943086e-01 5.937652e-01 5.909284e-01 5.857965e-01 5.774183e-01 5.674185e-01 5.534908e-01 5.389058e-01 5.201985e-01 5.019666e-01 4.799627e-01 4.595325e-01 4.361094e-01 4.151318e-01 3.921683e-01 3.721901e-01 3.512745e-01 3.335513e-01 3.158603e-01 3.013062e-01 2.876178e-01 2.768375e-01 
2.744116e-01 2.671370e-01 2.617916e-01 2.583348e-01 2.570511e-01 2.571610e-01 2.594728e-01 2.626461e-01 2.678645e-01 2.733836e-01 2.806635e-01 2.876909e-01 2.961509e-01 3.038695e-01 3.127404e-01 3.205042e-01 3.292664e-01 3.367258e-01 3.452106e-01 3.523976e-01 3.608420e-01 3.681873e-01 3.771945e-01 3.854045e-01 3.957256e-01 4.054710e-01 4.176245e-01 4.291548e-01 4.431002e-01 4.560554e-01 4.711713e-01 4.847312e-01 5.000808e-01 5.132879e-01 5.279140e-01 5.399096e-01 5.529616e-01 5.630356e-01 5.737222e-01 5.812327e-01 5.887056e-01 5.929787e-01 5.962721e-01 5.965825e-01 5.947141e-01 5.904133e-01 5.826770e-01 5.734452e-01 5.597859e-01 5.458818e-01 5.271296e-01 5.094762e-01 4.872555e-01 4.672924e-01 4.436258e-01 4.229982e-01 3.998494e-01 3.800976e-01 3.590643e-01 3.414292e-01 3.236350e-01 3.089991e-01 2.951261e-01 2.840389e-01 
2.790270e-01 2.709280e-01 2.648123e-01 2.603680e-01 2.581087e-01 2.570757e-01 2.582473e-01 2.601940e-01 2.642167e-01 2.685543e-01 2.747376e-01 2.807826e-01 2.884040e-01 2.954757e-01 3.038861e-01 3.114217e-01 3.201543e-01 3.278136e-01 3.366719e-01 3.444111e-01 3.535142e-01 3.615982e-01 3.713453e-01 3.802497e-01 3.911555e-01 4.013387e-01 4.137628e-01 4.253959e-01 4.393135e-01 4.521403e-01 4.671118e-01 4.805318e-01 4.958620e-01 5.091352e-01 5.240594e-01 5.364629e-01 5.502205e-01 5.610767e-01 5.728581e-01 5.814696e-01 5.903145e-01 5.958874e-01 6.006468e-01 6.022945e-01 6.017635e-01 5.986554e-01 5.919154e-01 5.835592e-01 5.704235e-01 5.569662e-01 5.382687e-01 5.206308e-01 4.981217e-01 4.778474e-01 4.537219e-01 4.325960e-01 4.089540e-01 3.886254e-01 3.671274e-01 3.488892e-01 3.306513e-01 3.153839e-01 3.010324e-01 2.892449e-01 
2.827418e-01 2.737648e-01 2.668886e-01 2.614489e-01 2.583027e-01 2.561748e-01 2.563624e-01 2.571739e-01 2.601966e-01 2.634582e-01 2.687434e-01 2.738940e-01 2.808453e-01 2.873191e-01 2.953893e-01 3.027000e-01 3.114726e-01 3.192937e-01 3.285522e-01 3.367758e-01 3.465407e-01 3.552884e-01 3.657920e-01 3.753449e-01 3.869146e-01 3.975542e-01 4.104248e-01 4.222454e-01 4.363989e-01 4.492050e-01 4.643375e-01 4.776860e-01 4.932982e-01 5.066227e-01 5.221243e-01 5.348286e-01 5.495584e-01 5.610175e-01 5.741629e-01 5.836572e-01 5.941389e-01 6.007905e-01 6.072276e-01 6.100250e-01 6.109015e-01 6.088722e-01 6.029642e-01 5.954846e-01 5.824356e-01 5.695618e-01 5.502748e-01 5.328923e-01 5.094039e-01 4.890802e-01 4.638954e-01 4.424764e-01 4.178863e-01 3.970908e-01 3.748085e-01 3.559845e-01 3.370869e-01 3.211414e-01 3.061743e-01 2.936162e-01 
2.841890e-01 2.741783e-01 2.664642e-01 2.600358e-01 2.560364e-01 2.529588e-01 2.522971e-01 2.522240e-01 2.544535e-01 2.569491e-01 2.615693e-01 2.661381e-01 2.726260e-01 2.787612e-01 2.866242e-01 2.938729e-01 3.027145e-01 3.107455e-01 3.203240e-01 3.289784e-01 3.392388e-01 3.485391e-01 3.595947e-01 3.696928e-01 3.817401e-01 3.928032e-01 4.059913e-01 4.180697e-01 4.323895e-01 4.453430e-01 4.606004e-01 4.741187e-01 4.899845e-01 5.036603e-01 5.197198e-01 5.330946e-01 5.488198e-01 5.613528e-01 5.759829e-01 5.869609e-01 5.993492e-01 6.078030e-01 6.163502e-01 6.210629e-01 6.238869e-01 6.235701e-01 6.190189e-01 6.126826e-01 6.000952e-01 5.875201e-01 5.677919e-01 5.498325e-01 5.252698e-01 5.037514e-01 4.772315e-01 4.543413e-01 4.284363e-01 4.061519e-01 3.827049e-01 3.625055e-01 3.426051e-01 3.254290e-01 3.095721e-01 2.959031e-01 
2.850477e-01 2.738879e-01 2.653607e-01 2.578699e-01 2.530995e-01 2.490530e-01 2.476721e-01 2.467446e-01 2.483399e-01 2.501309e-01 2.542505e-01 2.583083e-01 2.644810e-01 2.703395e-01 2.781143e-01 2.853444e-01 2.943418e-01 3.026057e-01 3.125654e-01 3.216567e-01 3.324639e-01 3.423166e-01 3.539895e-01 3.646422e-01 3.772737e-01 3.887909e-01 4.024613e-01 4.148445e-01 4.295497e-01 4.426882e-01 4.583242e-01 4.720068e-01 4.883984e-01 5.023534e-01 5.192649e-01 5.331649e-01 5.502239e-01 5.636192e-01 5.801362e-01 5.923326e-01 6.070774e-01 6.170310e-01 6.281044e-01 6.344284e-01 6.394321e-01 6.405986e-01 6.372819e-01 6.320472e-01 6.193542e-01 6.073128e-01 5.862213e-01 5.681545e-01 5.415613e-01 5.193598e-01 4.907467e-01 4.667685e-01 4.390367e-01 4.154544e-01 3.905251e-01 3.689733e-01 3.478819e-01 3.293918e-01 3.125426e-01 2.976377e-01 
2.834231e-01 2.710441e-01 2.616315e-01 2.531488e-01 2.476284e-01 2.427868e-01 2.407909e-01 2.392524e-01 2.403778e-01 2.417397e-01 2.455478e-01 2.493602e-01 2.553918e-01 2.611906e-01 2.690008e-01 2.763534e-01 2.855576e-01 2.941104e-01 3.044243e-01 3.139356e-01 3.251953e-01 3.355414e-01 3.476941e-01 3.588411e-01 3.719029e-01 3.838516e-01 3.978517e-01 4.105789e-01 4.255198e-01 4.389507e-01 4.548101e-01 4.688323e-01 4.855881e-01 5.000766e-01 5.176952e-01 5.324909e-01 5.508115e-01 5.656166e-01 5.841063e-01 5.983106e-01 6.157454e-01 6.282563e-01 6.424807e-01 6.516593e-01 6.596830e-01 6.634939e-01 6.622420e-01 6.587336e-01 6.465024e-01 6.346529e-01 6.124080e-01 5.928626e-01 5.640696e-01 5.393394e-01 5.082353e-01 4.814249e-01 4.514052e-01 4.251770e-01 3.983406e-01 3.745311e-01 3.519006e-01 3.315606e-01 3.134602e-01 2.970557e-01 
2.815906e-01 2.677759e-01 2.575096e-01 2.478778e-01 2.416856e-01 2.359635e-01 2.334680e-01 2.313004e-01 2.320942e-01 2.330598e-01 2.366998e-01 2.403302e-01 2.463527e-01 2.521672e-01 2.601241e-01 2.676746e-01 2.771749e-01 2.860861e-01 2.968287e-01 3.068224e-01 3.186085e-01 3.295050e-01 3.422280e-01 3.539237e-01 3.675391e-01 3.799688e-01 3.944618e-01 4.075664e-01 4.229408e-01 4.366622e-01 4.529665e-01 4.672725e-01 4.846382e-01 4.995412e-01 5.181652e-01 5.336764e-01 5.536653e-01 5.696423e-01 5.906762e-01 6.065829e-01 6.274484e-01 6.421228e-01 6.602970e-01 6.718565e-01 6.835009e-01 6.895146e-01 6.903905e-01 6.884468e-01 6.759636e-01 6.646968e-01 6.398516e-01 6.197428e-01 5.873107e-01 5.609975e-01 5.263815e-01 4.973605e-01 4.644428e-01 4.358035e-01 4.067226e-01 3.806061e-01 3.562573e-01 3.338693e-01 3.144319e-01 2.962870e-01 
2.769210e-01 2.617257e-01 2.505328e-01 2.399109e-01 2.330570e-01 2.266788e-01 2.237720e-01 2.212380e-01 2.218477e-01 2.226883e-01 2.263349e-01 2.300301e-01 2.362100e-01 2.422341e-01 2.504666e-01 2.583389e-01 2.682091e-01 2.775312e-01 2.887153e-01 2.991853e-01 3.114530e-01 3.228587e-01 3.360578e-01 3.482541e-01 3.622864e-01 3.751680e-01 3.899752e-01 4.034634e-01 4.190447e-01 4.331056e-01 4.495748e-01 4.642644e-01 4.819150e-01 4.974117e-01 5.167105e-01 5.332636e-01 5.546701e-01 5.724066e-01 5.959531e-01 6.145570e-01 6.392188e-01 6.575824e-01 6.806109e-01 6.965918e-01 7.132282e-01 7.236297e-01 7.280190e-01 7.290753e-01 7.171911e-01 7.061542e-01 6.790076e-01 6.557785e-01 6.193527e-01 5.882134e-01 5.494716e-01 5.155397e-01 4.791440e-01 4.463150e-01 4.145361e-01 3.851323e-01 3.587322e-01 3.338546e-01 3.128437e-01 2.928352e-01 
2.724935e-01 2.555619e-01 2.434716e-01 2.316034e-01 2.241596e-01 2.169753e-01 2.137643e-01 2.108110e-01 2.113656e-01 2.121031e-01 2.158885e-01 2.197173e-01 2.261728e-01 2.324988e-01 2.411025e-01 2.493984e-01 2.597139e-01 2.695515e-01 2.812437e-01 2.922949e-01 3.051184e-01 3.171366e-01 3.309110e-01 3.437035e-01 3.582884e-01 3.716972e-01 3.869907e-01 4.008978e-01 4.168796e-01 4.312541e-01 4.480841e-01 4.630581e-01 4.811947e-01 4.971201e-01 5.173558e-01 5.347445e-01 5.580128e-01 5.772799e-01 6.041173e-01 6.251377e-01 6.547996e-01 6.764214e-01 7.058270e-01 7.255451e-01 7.485889e-01 7.625323e-01 7.710506e-01 7.745745e-01 7.625399e-01 7.523067e-01 7.202837e-01 6.958163e-01 6.530123e-01 6.187787e-01 5.744305e-01 5.364798e-01 4.958107e-01 4.589366e-01 4.240472e-01 3.910805e-01 3.624205e-01 3.346253e-01 3.119470e-01 2.896476e-01 
2.648229e-01 2.463870e-01 2.333059e-01 2.204575e-01 2.124130e-01 2.047085e-01 2.012731e-01 1.981992e-01 1.988518e-01 1.997754e-01 2.038867e-01 2.080972e-01 2.150083e-01 2.218182e-01 2.309380e-01 2.397641e-01 2.506219e-01 2.610121e-01 2.732581e-01 2.848749e-01 2.982484e-01 3.108323e-01 3.251217e-01 3.384552e-01 3.534694e-01 3.673586e-01 3.829353e-01 3.972309e-01 4.133091e-01 4.279809e-01 4.447505e-01 4.600086e-01 4.780966e-01 4.944986e-01 5.150677e-01 5.334894e-01 5.580564e-01 5.793966e-01 6.092131e-01 6.338247e-01 6.687666e-01 6.957874e-01 7.328441e-01 7.596422e-01 7.914404e-01 8.131309e-01 8.282379e-01 8.375717e-01 8.265348e-01 8.171221e-01 7.807456e-01 7.495271e-01 6.995522e-01 6.560695e-01 6.051714e-01 5.589706e-01 5.133750e-01 4.702568e-01 4.318527e-01 3.944617e-01 3.632691e-01 3.323881e-01 3.078355e-01 2.833732e-01 
2.578800e-01 2.374263e-01 2.233710e-01 2.091838e-01 2.005966e-01 1.921655e-01 1.886059e-01 1.853435e-01 1.862233e-01 1.873673e-01 1.919332e-01 1.966156e-01 2.040842e-01 2.114906e-01 2.211934e-01 2.306709e-01 2.421117e-01 2.531829e-01 2.660169e-01 2.783362e-01 2.923125e-01 3.056054e-01 3.205051e-01 3.345177e-01 3.501124e-01 3.645920e-01 3.806516e-01 3.953835e-01 4.117708e-01 4.266919e-01 4.435744e-01 4.589583e-01 4.771079e-01 4.937475e-01 5.147742e-01 5.339877e-01 5.602229e-01 5.834808e-01 6.172461e-01 6.453732e-01 6.875025e-01 7.197042e-01 7.673030e-01 8.004006e-01 8.441825e-01 8.720665e-01 8.958519e-01 9.093168e-01 8.993455e-01 8.911984e-01 8.450842e-01 8.114841e-01 7.499370e-01 7.003622e-01 6.405282e-01 5.870670e-01 5.353218e-01 4.856458e-01 4.430963e-01 4.005086e-01 3.664754e-01 3.317119e-01 3.051561e-01 2.778614e-01 
2.474462e-01 2.254220e-01 2.102198e-01 1.950547e-01 1.858541e-01 1.770265e-01 1.734092e-01 1.702958e-01 1.715841e-01 1.732730e-01 1.785203e-01 1.839375e-01 1.921736e-01 2.003484e-01 2.107997e-01 2.210097e-01 2.331517e-01 2.449116e-01 2.584089e-01 2.713888e-01 2.859999e-01 2.999344e-01 3.154225e-01 3.300414e-01 3.461165e-01 3.611195e-01 3.774462e-01 3.925490e-01 4.088690e-01 4.239531e-01 4.403712e-01 4.557454e-01 4.731613e-01 4.898655e-01 5.103653e-01 5.302910e-01 5.571269e-01 5.826338e-01 6.194592e-01 6.523572e-01 7.015313e-01 7.417916e-01 8.015508e-01 8.463264e-01 9.063292e-01 9.486379e-01 9.858697e-01 1.011429e+00 1.003234e+00 9.989146e-01 9.445743e-01 8.944584e-01 8.194699e-01 7.514395e-01 6.814277e-01 6.143961e-01 5.560441e-01 4.976442e-01 4.507535e-01 4.027359e-01 3.656772e-01 3.274556e-01 2.986797e-01 2.690782e-01 
2.381630e-01 2.139369e-01 1.975899e-01 1.810078e-01 1.712226e-01 1.617531e-01 1.581695e-01 1.551557e-01 1.569973e-01 1.593143e-01 1.653779e-01 1.716587e-01 1.807392e-01 1.898118e-01 2.010264e-01 2.120952e-01 2.249143e-01 2.374989e-01 2.516307e-01 2.654286e-01 2.806800e-01 2.954366e-01 3.115912e-01 3.270055e-01 3.437374e-01 3.594246e-01 3.762837e-01 3.918320e-01 4.083699e-01 4.235396e-01 4.396687e-01 4.547673e-01 4.713959e-01 4.877595e-01 5.075067e-01 5.277817e-01 5.552125e-01 5.829345e-01 6.237748e-01 6.619389e-01 7.209959e-01 7.700671e-01 8.474131e-01 9.037928e-01 9.874086e-01 1.041762e+00 1.097966e+00 1.130421e+00 1.129548e+00 1.126808e+00 1.050730e+00 9.965335e-01 8.987568e-01 8.176333e-01 7.328388e-01 6.523151e-01 5.850286e-01 5.163021e-01 4.639500e-01 4.088727e-01 3.683280e-01 3.254039e-01 2.942649e-01 2.614715e-01 
2.256916e-01 1.999057e-01 1.820345e-01 1.644086e-01 1.538118e-01 1.440022e-01 1.404801e-01 1.379331e-01 1.405730e-01 1.439005e-01 1.510792e-01 1.585073e-01 1.686762e-01 1.787946e-01 1.909481e-01 2.029108e-01 2.165364e-01 2.299048e-01 2.447738e-01 2.593069e-01 2.752774e-01 2.907598e-01 3.076170e-01 3.237371e-01 3.410766e-01 3.573720e-01 3.745643e-01 3.904774e-01 4.068047e-01 4.219173e-01 4.370225e-01 4.515449e-01 4.662927e-01 4.817924e-01 4.993270e-01 5.193444e-01 5.455866e-01 5.753636e-01 6.183093e-01 6.629420e-01 7.305083e-01 7.921615e-01 8.884178e-01 9.647392e-01 1.080034e+00 1.162446e+00 1.248167e+00 1.306705e+00 1.307937e+00 1.323173e+00 1.231775e+00 1.129802e+00 1.005020e+00 8.859700e-01 7.859647e-01 6.843427e-01 6.085311e-01 5.289789e-01 4.712188e-01 4.104659e-01 3.661571e-01 3.199685e-01 2.860517e-01 2.511100e-01 
2.145956e-01 1.866438e-01 1.672653e-01 1.481260e-01 1.366791e-01 1.262562e-01 1.228702e-01 1.208190e-01 1.244601e-01 1.289937e-01 1.374417e-01 1.461942e-01 1.574755e-01 1.687610e-01 1.817748e-01 1.947321e-01 2.090330e-01 2.233046e-01 2.387776e-01 2.542106e-01 2.708214e-01 2.872491e-01 3.048483e-01 3.219326e-01 3.400945e-01 3.572432e-01 3.751700e-01 3.915838e-01 4.081839e-01 4.231361e-01 4.375053e-01 4.509999e-01 4.635875e-01 4.774509e-01 4.918160e-01 5.107951e-01 5.347958e-01 5.665587e-01 6.118524e-01 6.645288e-01 7.441981e-01 8.219924e-01 9.468191e-01 1.046819e+00 1.211045e+00 1.319941e+00 1.445399e+00 1.514264e+00 1.552046e+00 1.562773e+00 1.415343e+00 1.312928e+00 1.137244e+00 9.864461e-01 8.604280e-01 7.334851e-01 6.444550e-01 5.498945e-01 4.850743e-01 4.160066e-01 3.675783e-01 3.166150e-01 2.799914e-01 2.420102e-01 
2.016976e-01 1.723065e-01 1.506623e-01 1.302166e-01 1.173344e-01 1.063893e-01 1.030647e-01 1.019106e-01 1.069542e-01 1.131877e-01 1.233051e-01 1.336633e-01 1.462985e-01 1.588240e-01 1.728431e-01 1.867425e-01 2.018378e-01 2.168973e-01 2.331046e-01 2.493023e-01 2.666998e-01 2.839497e-01 3.024249e-01 3.203851e-01 3.394244e-01 3.573784e-01 3.759117e-01 3.927869e-01 4.092213e-01 4.238799e-01 4.366389e-01 4.486631e-01 4.576957e-01 4.689007e-01 4.781476e-01 4.945250e-01 5.136966e-01 5.463171e-01 5.906965e-01 6.526739e-01 7.402829e-01 8.398023e-01 9.906122e-01 1.126244e+00 1.353303e+00 1.514638e+00 1.707454e+00 1.831900e+00 1.859156e+00 1.946086e+00 1.769373e+00 1.512667e+00 1.290018e+00 1.068756e+00 9.237946e-01 7.698046e-01 6.689418e-01 5.643579e-01 4.916945e-01 4.185679e-01 3.648710e-01 3.118171e-01 2.714697e-01 2.319629e-01 
1.902155e-01 1.590511e-01 1.352961e-01 1.131080e-01 9.856535e-02 8.670242e-02 8.345142e-02 8.344129e-02 9.028816e-02 9.863454e-02 1.105749e-01 1.227103e-01 1.365876e-01 1.503918e-01 1.651786e-01 1.800435e-01 1.956445e-01 2.115634e-01 2.282175e-01 2.453383e-01 2.633054e-01 2.816429e-01 3.009483e-01 3.201469e-01 3.403155e-01 3.594706e-01 3.792552e-01 3.968772e-01 4.140956e-01 4.283984e-01 4.402989e-01 4.501674e-01 4.552385e-01 4.623547e-01 4.642325e-01 4.761146e-01 4.870516e-01 5.195411e-01 5.609202e-01 6.347847e-01 7.329241e-01 8.630278e-01 1.052279e+00 1.236973e+00 1.560644e+00 1.774317e+00 2.025031e+00 2.162398e+00 2.348757e+00 2.353725e+00 1.962047e+00 1.809963e+00 1.486547e+00 1.195967e+00 1.014325e+00 8.208777e-01 7.032765e-01 5.820867e-01 5.016060e-01 4.215996e-01 3.637051e-01 3.073913e-01 2.642804e-01 2.227357e-01 
1.797004e-01 1.474536e-01 1.205226e-01 9.650655e-02 7.902455e-02 6.564565e-02 6.207966e-02 6.384269e-02 7.335548e-02 8.449000e-02 9.865656e-02 1.126822e-01 1.278923e-01 1.428506e-01 1.584400e-01 1.740682e-01 1.902562e-01 2.068169e-01 2.240852e-01 2.419350e-01 2.607286e-01 2.800202e-01 3.004617e-01 3.208577e-01 3.424104e-01 3.628306e-01 3.839048e-01 4.024062e-01 4.200237e-01 4.340305e-01 4.440806e-01 4.514199e-01 4.508702e-01 4.524039e-01 4.446710e-01 4.488659e-01 4.484021e-01 4.775650e-01 5.123642e-01 5.999634e-01 7.004194e-01 8.702313e-01 1.070940e+00 1.309503e+00 1.717499e+00 1.975178e+00 2.412751e+00 2.652825e+00 2.609924e+00 2.777445e+00 2.369648e+00 1.762666e+00 1.527679e+00 1.230538e+00 1.056097e+00 8.597730e-01 7.217179e-01 6.003238e-01 5.066543e-01 4.270543e-01 3.617016e-01 3.054472e-01 2.576868e-01 2.156906e-01 
1.709186e-01 1.377442e-01 1.083892e-01 8.241385e-02 6.147314e-02 4.539418e-02 4.103296e-02 4.572704e-02 5.891074e-02 7.334622e-02 8.955520e-02 1.053432e-01 1.214581e-01 1.373955e-01 1.533302e-01 1.696154e-01 1.859096e-01 2.031108e-01 2.205026e-01 2.392245e-01 2.584110e-01 2.789829e-01 3.003296e-01 3.224449e-01 3.456016e-01 3.679513e-01 3.913076e-01 4.113159e-01 4.312479e-01 4.451722e-01 4.555241e-01 4.595753e-01 4.535926e-01 4.474073e-01 4.260579e-01 4.185701e-01 3.986821e-01 4.200190e-01 4.415179e-01 5.426210e-01 6.421485e-01 8.522306e-01 1.047434e+00 1.331360e+00 1.898709e+00 2.317929e+00 2.645518e+00 2.791766e+00 2.841110e+00 2.719182e+00 2.422577e+00 2.061565e+00 1.446014e+00 1.111058e+00 1.041405e+00 8.577167e-01 7.249570e-01 6.017188e-01 5.053651e-01 4.249615e-01 3.573634e-01 3.008336e-01 2.512127e-01 2.088027e-01 
1.663248e-01 1.329242e-01 1.007974e-01 7.334715e-02 4.788137e-02 2.683278e-02 1.888313e-02 2.977561e-02 4.799253e-02 6.561040e-02 8.345964e-02 1.004539e-01 1.171548e-01 1.335993e-01 1.497355e-01 1.662758e-01 1.827125e-01 2.002113e-01 2.179621e-01 2.372981e-01 2.573211e-01 2.790550e-01 3.019158e-01 3.258392e-01 3.512330e-01 3.758597e-01 4.018826e-01 4.239810e-01 4.459875e-01 4.604864e-01 4.699640e-01 4.710973e-01 4.577266e-01 4.429730e-01 4.064906e-01 3.825958e-01 3.395970e-01 3.443379e-01 3.539262e-01 4.686468e-01 5.650604e-01 8.060556e-01 8.810806e-01 1.208940e+00 2.158149e+00 2.878574e+00 2.636336e+00 2.852862e+00 2.743645e+00 2.573688e+00 2.748837e+00 2.734811e+00 1.110745e+00 8.944996e-01 8.645587e-01 8.558810e-01 7.078982e-01 6.144996e-01 5.050626e-01 4.310546e-01 3.567809e-01 3.021812e-01 2.487694e-01 2.069421e-01 
1.645433e-01 1.313829e-01 9.857357e-02 7.093474e-02 4.369648e-02 2.018930e-02 4.862344e-03 2.483126e-02 4.491977e-02 6.378552e-02 8.181656e-02 9.918894e-02 1.156864e-01 1.322222e-01 1.479337e-01 1.645042e-01 1.804328e-01 1.981568e-01 2.155437e-01 2.356217e-01 2.557354e-01 2.790397e-01 3.028140e-01 3.293012e-01 3.568721e-01 3.848866e-01 4.148393e-01 4.403522e-01 4.680526e-01 4.841677e-01 4.985552e-01 4.965061e-01 4.789559e-01 4.538276e-01 3.977447e-01 3.527666e-01 2.718747e-01 2.458996e-01 2.330987e-01 3.506970e-01 4.470991e-01 6.233459e-01 5.309602e-01 1.091148e+00 2.551136e+00 2.724618e+00 2.562534e+00 2.832959e+00 2.610340e+00 2.675359e+00 3.119592e+00 2.619414e+00 1.218782e+00 4.955709e-01 5.884405e-01 7.163698e-01 6.557847e-01 5.877561e-01 4.932047e-01 4.241982e-01 3.525865e-01 2.995903e-01 2.465704e-01 2.054144e-01 
1.679270e-01 1.357038e-01 1.031310e-01 7.703593e-02 5.168934e-02 3.393745e-02 2.619839e-02 3.555569e-02 5.103825e-02 6.802159e-02 8.469468e-02 1.012266e-01 1.168772e-01 1.327527e-01 1.477611e-01 1.637709e-01 1.792053e-01 1.966609e-01 2.140315e-01 2.344958e-01 2.554413e-01 2.802055e-01 3.060251e-01 3.353820e-01 3.664900e-01 3.988273e-01 4.338490e-01 4.644317e-01 4.979397e-01 5.177629e-01 5.352765e-01 5.324205e-01 5.072211e-01 4.756455e-01 4.040196e-01 3.414025e-01 2.251762e-01 1.435275e-01 1.120329e-01 2.286494e-01 3.759122e-01 4.079852e-01 3.464179e-01 1.370742e+00 2.995122e+00 2.527085e+00 2.690646e+00 2.973788e+00 2.605741e+00 2.612476e+00 2.533025e+00 2.373752e+00 1.520490e+00 5.667544e-01 4.434797e-01 5.981414e-01 6.172859e-01 5.688431e-01 4.885507e-01 4.235245e-01 3.536701e-01 3.021993e-01 2.491228e-01 2.089641e-01 
1.750969e-01 1.438840e-01 1.133413e-01 8.927402e-02 6.761238e-02 5.394754e-02 4.807951e-02 5.276879e-02 6.328570e-02 7.706708e-02 9.140350e-02 1.064046e-01 1.205982e-01 1.354430e-01 1.491677e-01 1.643798e-01 1.785817e-01 1.956551e-01 2.120628e-01 2.330368e-01 2.536838e-01 2.804319e-01 3.070778e-01 3.403830e-01 3.741136e-01 4.125512e-01 4.533998e-01 4.916168e-01 5.367019e-01 5.631948e-01 5.982849e-01 5.955238e-01 5.747449e-01 5.353610e-01 4.464641e-01 3.714402e-01 2.324200e-01 1.151727e-01 9.747532e-02 2.080737e-01 3.691655e-01 2.924492e-01 9.234732e-02 1.216244e+00 3.021025e+00 2.638386e+00 2.629556e+00 2.737412e+00 2.528165e+00 3.076646e+00 2.798132e+00 2.556550e+00 1.663835e+00 5.153920e-01 2.583820e-01 5.155957e-01 5.643989e-01 5.495051e-01 4.796414e-01 4.209546e-01 3.547419e-01 3.047499e-01 2.537841e-01 2.144286e-01 
1.850470e-01 1.554587e-01 1.272336e-01 1.055246e-01 8.695683e-02 7.570132e-02 7.045595e-02 7.267611e-02 7.960439e-02 9.002695e-02 1.015853e-01 1.142881e-01 1.264963e-01 1.395334e-01 1.516288e-01 1.652773e-01 1.782171e-01 1.941842e-01 2.100864e-01 2.309910e-01 2.524840e-01 2.809569e-01 3.103980e-01 3.480600e-01 3.871456e-01 4.334789e-01 4.830402e-01 5.329453e-01 5.908215e-01 6.297617e-01 6.789977e-01 6.820552e-01 6.522455e-01 6.198777e-01 5.306187e-01 4.691897e-01 3.474755e-01 2.661141e-01 2.569157e-01 3.280589e-01 4.227002e-01 3.956256e-01 2.957924e-01 1.256352e+00 2.640755e+00 2.826726e+00 2.773343e+00 2.595092e+00 2.653225e+00 2.854549e+00 2.866498e+00 2.603414e+00 1.623047e+00 6.344841e-01 6.392831e-02 3.918637e-01 5.028210e-01 5.144861e-01 4.667002e-01 4.150095e-01 3.557827e-01 3.080587e-01 2.601496e-01 2.222687e-01 
1.986185e-01 1.701205e-01 1.444754e-01 1.241812e-01 1.078593e-01 9.728712e-02 9.198822e-02 9.220368e-02 9.659162e-02 1.041856e-01 1.132776e-01 1.237392e-01 1.339139e-01 1.450785e-01 1.551894e-01 1.671291e-01 1.780489e-01 1.927728e-01 2.070462e-01 2.280210e-01 2.489136e-01 2.798315e-01 3.101351e-01 3.536703e-01 3.954798e-01 4.522781e-01 5.081735e-01 5.738991e-01 6.492763e-01 7.072506e-01 8.048045e-01 8.159130e-01 8.138263e-01 7.749495e-01 6.675210e-01 6.187732e-01 5.149227e-01 4.459415e-01 4.490132e-01 5.120329e-01 5.668262e-01 5.911846e-01 5.848663e-01 1.321159e+00 2.454951e+00 2.916803e+00 2.785780e+00 2.874237e+00 2.788028e+00 2.413126e+00 2.644121e+00 2.423352e+00 1.508554e+00 7.332095e-01 6.872760e-02 3.023391e-01 4.597710e-01 4.887612e-01 4.595764e-01 4.131998e-01 3.607469e-01 3.144116e-01 2.701040e-01 2.330908e-01 
2.120715e-01 1.853614e-01 1.621166e-01 1.435434e-01 1.290047e-01 1.192699e-01 1.139972e-01 1.130463e-01 1.155114e-01 1.206990e-01 1.272655e-01 1.351194e-01 1.427420e-01 1.512174e-01 1.587762e-01 1.679385e-01 1.765701e-01 1.888991e-01 2.019521e-01 2.219469e-01 2.437903e-01 2.762904e-01 3.105482e-01 3.594883e-01 4.089759e-01 4.775282e-01 5.461527e-01 6.345020e-01 7.309413e-01 8.235745e-01 9.621356e-01 9.949163e-01 9.607881e-01 9.528238e-01 8.721512e-01 8.603431e-01 7.679465e-01 6.784339e-01 6.596397e-01 6.953947e-01 7.196513e-01 7.548194e-01 7.871346e-01 1.321171e+00 2.156711e+00 2.541509e+00 2.448733e+00 2.572019e+00 2.980540e+00 2.859808e+00 2.660134e+00 2.286474e+00 1.514101e+00 8.028141e-01 2.034664e-01 2.341267e-01 4.097553e-01 4.556483e-01 4.450192e-01 4.064309e-01 3.621101e-01 3.188473e-01 2.787325e-01 2.436620e-01 
2.281744e-01 2.025873e-01 1.814471e-01 1.636600e-01 1.503024e-01 1.404509e-01 1.349031e-01 1.325448e-01 1.334849e-01 1.365416e-01 1.411582e-01 1.467419e-01 1.522227e-01 1.582368e-01 1.631619e-01 1.695026e-01 1.750240e-01 1.847110e-01 1.952816e-01 2.144707e-01 2.358921e-01 2.711206e-01 3.072685e-01 3.637155e-01 4.161584e-01 4.989991e-01 5.685267e-01 6.806896e-01 7.772211e-01 9.094889e-01 1.155451e+00 1.222727e+00 1.281831e+00 1.234391e+00 1.090976e+00 1.127426e+00 1.029365e+00 8.880608e-01 8.488319e-01 8.658906e-01 8.551739e-01 8.675684e-01 8.767253e-01 1.236653e+00 1.832278e+00 2.215550e+00 2.348953e+00 2.503731e+00 2.805665e+00 2.891975e+00 2.694059e+00 2.214227e+00 1.539416e+00 8.712228e-01 3.033516e-01 2.082516e-01 3.756495e-01 4.324623e-01 4.365322e-01 4.046993e-01 3.675392e-01 3.268271e-01 2.906474e-01 2.569819e-01 
2.425903e-01 2.188984e-01 1.997765e-01 1.834666e-01 1.713410e-01 1.621794e-01 1.567133e-01 1.538691e-01 1.536381e-01 1.550841e-01 1.575385e-01 1.605775e-01 1.630524e-01 1.655408e-01 1.666642e-01 1.685130e-01 1.699780e-01 1.751165e-01 1.831318e-01 1.998170e-01 2.226457e-01 2.586429e-01 3.008093e-01 3.605820e-01 4.228237e-01 5.111302e-01 5.905258e-01 7.141481e-01 8.100042e-01 1.000313e+00 1.307882e+00 1.499865e+00 1.399948e+00 1.434901e+00 1.419688e+00 1.525484e+00 1.280948e+00 1.083808e+00 1.000565e+00 9.872583e-01 9.482355e-01 9.285126e-01 9.123406e-01 1.133048e+00 1.578684e+00 1.979338e+00 2.257162e+00 2.497058e+00 2.764969e+00 2.774972e+00 2.574403e+00 2.141367e+00 1.515606e+00 9.052625e-01 3.796089e-01 2.207881e-01 3.485470e-01 4.103491e-01 4.244359e-01 3.998269e-01 3.692668e-01 3.322700e-01 2.999782e-01 2.686854e-01 
2.585727e-01 2.362291e-01 2.188463e-01 2.032729e-01 1.920319e-01 1.827808e-01 1.772120e-01 1.733747e-01 1.722294e-01 1.720151e-01 1.730636e-01 1.739540e-01 1.744080e-01 1.739444e-01 1.716526e-01 1.690971e-01 1.653634e-01 1.651646e-01 1.689972e-01 1.833080e-01 2.070538e-01 2.459822e-01 2.932586e-01 3.592760e-01 4.252892e-01 5.187190e-01 5.782575e-01 6.865737e-01 6.374783e-01 8.168991e-01 1.159212e+00 1.753498e+00 1.881114e+00 1.672678e+00 1.550577e+00 1.911499e+00 1.246959e+00 1.014809e+00 9.804834e-01 1.051563e+00 1.001330e+00 9.620956e-01 9.170177e-01 1.056241e+00 1.420228e+00 1.826805e+00 2.190339e+00 2.478150e+00 2.676696e+00 2.658869e+00 2.441814e+00 2.020323e+00 1.467882e+00 9.091872e-01 4.316960e-01 2.469521e-01 3.342340e-01 3.962677e-01 4.169784e-01 3.987424e-01 3.737941e-01 3.402521e-01 3.114703e-01 2.821885e-01 
2.723189e-01 2.520332e-01 2.364716e-01 2.225454e-01 2.125520e-01 2.044223e-01 1.993696e-01 1.959090e-01 1.943372e-01 1.934661e-01 1.928259e-01 1.915543e-01 1.885493e-01 1.837493e-01 1.758152e-01 1.662357e-01 1.551143e-01 1.463425e-01 1.444701e-01 1.545584e-01 1.818014e-01 2.221281e-01 2.790745e-01 3.418514e-01 4.161438e-01 4.761908e-01 5.191037e-01 4.816287e-01 3.748880e-01 6.737693e-01 1.257056e+00 1.657042e+00 2.098903e+00 1.583176e+00 1.604310e+00 1.675965e+00 1.434189e+00 9.479210e-01 7.490587e-01 8.914670e-01 9.389465e-01 9.092600e-01 8.710721e-01 9.686124e-01 1.286775e+00 1.691326e+00 2.088134e+00 2.386466e+00 2.565234e+00 2.519479e+00 2.300993e+00 1.915459e+00 1.412536e+00 9.065751e-01 4.714820e-01 2.811922e-01 3.285488e-01 3.853075e-01 4.087549e-01 3.959001e-01 3.755594e-01 3.458066e-01 3.202337e-01 2.935590e-01 
2.867418e-01 2.681377e-01 2.542629e-01 2.414052e-01 2.324812e-01 2.247130e-01 2.200553e-01 2.161878e-01 2.144530e-01 2.124896e-01 2.113334e-01 2.083561e-01 2.041970e-01 1.965710e-01 1.850278e-01 1.694979e-01 1.492535e-01 1.292192e-01 1.178786e-01 1.233179e-01 1.563568e-01 2.027056e-01 2.686412e-01 3.330398e-01 4.056939e-01 4.457095e-01 4.497075e-01 3.677037e-01 4.645008e-01 9.422633e-01 1.314336e+00 1.616761e+00 1.752076e+00 1.492057e+00 1.569208e+00 1.654337e+00 1.777102e+00 1.293120e+00 7.771984e-01 7.709612e-01 8.786906e-01 8.507976e-01 8.273289e-01 9.035465e-01 1.192222e+00 1.582137e+00 1.978696e+00 2.271296e+00 2.428107e+00 2.391055e+00 2.184305e+00 1.819142e+00 1.358126e+00 8.912253e-01 4.960716e-01 3.080849e-01 3.283193e-01 3.788506e-01 4.032825e-01 3.951724e-01 3.787462e-01 3.526272e-01 3.300142e-01 3.057377e-01 
2.986530e-01 2.822687e-01 2.702944e-01 2.594918e-01 2.522520e-01 2.464361e-01 2.431890e-01 2.410722e-01 2.401906e-01 2.392953e-01 2.376313e-01 2.338846e-01 2.263692e-01 2.144658e-01 1.954342e-01 1.707513e-01 1.393727e-01 1.031427e-01 7.508603e-02 7.539802e-02 1.235916e-01 1.809324e-01 2.593479e-01 3.255576e-01 3.999482e-01 4.211564e-01 3.965441e-01 2.919642e-01 4.007015e-01 1.037734e+00 1.798787e+00 1.765803e+00 1.810003e+00 1.735012e+00 1.601068e+00 1.707673e+00 1.607915e+00 1.265545e+00 5.259182e-01 5.382106e-01 6.991805e-01 7.351924e-01 7.331173e-01 8.172256e-01 1.095937e+00 1.472290e+00 1.858274e+00 2.138859e+00 2.288399e+00 2.249788e+00 2.053367e+00 1.716255e+00 1.294841e+00 8.707533e-01 5.130133e-01 3.350367e-01 3.342016e-01 3.755780e-01 3.985407e-01 3.934832e-01 3.800037e-01 3.571786e-01 3.371731e-01 3.154820e-01 
3.106004e-01 2.962533e-01 2.861587e-01 2.770055e-01 2.713575e-01 2.667242e-01 2.647139e-01 2.631425e-01 2.632132e-01 2.621348e-01 2.615934e-01 2.572945e-01 2.517013e-01 2.395472e-01 2.211889e-01 1.936858e-01 1.518649e-01 9.875261e-02 4.187770e-02 3.549587e-02 1.109654e-01 1.821268e-01 2.676774e-01 3.342655e-01 4.026457e-01 3.984143e-01 3.350028e-01 7.752579e-02 4.052962e-01 1.270464e+00 1.674969e+00 1.480564e+00 1.780700e+00 1.567815e+00 1.708399e+00 1.716489e+00 1.445859e+00 1.485934e+00 7.050011e-01 3.213133e-01 4.653556e-01 5.853303e-01 6.288277e-01 7.478287e-01 1.024789e+00 1.385540e+00 1.749401e+00 2.013554e+00 2.148536e+00 2.113278e+00 1.929266e+00 1.616515e+00 1.231426e+00 8.443025e-01 5.216771e-01 3.549786e-01 3.407766e-01 3.741509e-01 3.949700e-01 3.925983e-01 3.815960e-01 3.620011e-01 3.444599e-01 3.252947e-01 
3.195150e-01 3.074570e-01 2.995143e-01 2.928697e-01 2.896223e-01 2.880001e-01 2.887576e-01 2.908998e-01 2.939632e-01 2.969806e-01 2.986116e-01 2.971123e-01 2.899096e-01 2.762649e-01 2.494626e-01 2.177272e-01 1.761537e-01 1.197810e-01 7.236255e-02 7.625231e-02 1.333758e-01 2.061874e-01 2.894314e-01 3.570596e-01 4.126807e-01 4.053563e-01 2.924902e-01 9.762232e-02 5.976417e-01 1.302196e+00 1.497043e+00 1.582237e+00 1.750609e+00 1.571281e+00 1.814694e+00 1.738929e+00 1.469945e+00 1.364432e+00 7.737556e-01 3.670598e-01 3.490033e-01 4.709007e-01 5.379353e-01 6.779498e-01 9.501613e-01 1.293365e+00 1.635126e+00 1.882581e+00 2.008626e+00 1.975085e+00 1.804291e+00 1.517007e+00 1.165977e+00 8.159506e-01 5.267878e-01 3.741097e-01 3.505727e-01 3.748445e-01 3.922180e-01 3.908006e-01 3.814800e-01 3.643853e-01 3.489665e-01 3.321435e-01 