# vtk DataFile Version 2.0
Comment goes here
ASCII

DATASET STRUCTURED_POINTS
DIMENSIONS    64   64   1

ORIGIN    0.000   0.000   0.000
SPACING   0.0156250.015625   1.000

POINT_DATA   4096
SCALARS uMag double
LOOKUP_TABLE default

5.971682e-02 5.151590e-02 4.272894e-02 3.574193e-02 2.851892e-02 2.396430e-02 2.022949e-02 2.036851e-02 2.189230e-02 2.525861e-02 2.892334e-02 3.241310e-02 3.611851e-02 3.976588e-02 4.398665e-02 4.981806e-02 5.526713e-02 6.457419e-02 7.006755e-02 8.141143e-02 8.552299e-02 9.803067e-02 1.024998e-01 1.172453e-01 1.236493e-01 1.406425e-01 1.484759e-01 1.654998e-01 1.732190e-01 1.866929e-01 1.934117e-01 2.004968e-01 2.065525e-01 2.068835e-01 2.127259e-01 2.083307e-01 2.137905e-01 2.077391e-01 2.129318e-01 2.080610e-01 2.135575e-01 2.113865e-01 2.169980e-01 2.169750e-01 2.210257e-01 2.210759e-01 2.215118e-01 2.197298e-01 2.157426e-01 2.115087e-01 2.036163e-01 1.971833e-01 1.863732e-01 1.781866e-01 1.656574e-01 1.563268e-01 1.432763e-01 1.334307e-01 1.207318e-01 1.108655e-01 9.898936e-02 8.944470e-02 7.856448e-02 6.957888e-02 
5.926101e-02 5.208711e-02 4.415461e-02 3.826413e-02 3.202615e-02 2.848248e-02 2.524580e-02 2.534789e-02 2.582353e-02 2.867387e-02 3.105729e-02 3.465148e-02 3.747627e-02 4.147854e-02 4.491765e-02 5.029028e-02 5.471810e-02 6.229192e-02 6.699801e-02 7.653390e-02 8.084970e-02 9.206116e-02 9.688778e-02 1.101226e-01 1.164499e-01 1.313937e-01 1.391168e-01 1.540556e-01 1.622639e-01 1.745189e-01 1.823358e-01 1.896535e-01 1.967131e-01 1.985461e-01 2.047285e-01 2.023619e-01 2.076143e-01 2.033337e-01 2.079701e-01 2.039863e-01 2.084482e-01 2.059709e-01 2.100372e-01 2.087938e-01 2.112483e-01 2.098973e-01 2.092839e-01 2.065386e-01 2.022494e-01 1.976700e-01 1.901132e-01 1.838865e-01 1.739142e-01 1.664008e-01 1.550112e-01 1.466606e-01 1.348112e-01 1.260761e-01 1.144813e-01 1.057351e-01 9.481457e-02 8.634283e-02 7.629559e-02 6.833584e-02 
6.150267e-02 5.517178e-02 4.796261e-02 4.303558e-02 3.757089e-02 3.481682e-02 3.191715e-02 3.194754e-02 3.187754e-02 3.413730e-02 3.589254e-02 3.929999e-02 4.186533e-02 4.624972e-02 4.943043e-02 5.544180e-02 5.923786e-02 6.727461e-02 7.126629e-02 8.086863e-02 8.471281e-02 9.544573e-02 9.968861e-02 1.115881e-01 1.168358e-01 1.295287e-01 1.357217e-01 1.479157e-01 1.545049e-01 1.643364e-01 1.708372e-01 1.768346e-01 1.831045e-01 1.849939e-01 1.909886e-01 1.897150e-01 1.952812e-01 1.924210e-01 1.974819e-01 1.945421e-01 1.990850e-01 1.969082e-01 2.006052e-01 1.990660e-01 2.010844e-01 1.993350e-01 1.987391e-01 1.958893e-01 1.922541e-01 1.878987e-01 1.814523e-01 1.756434e-01 1.669934e-01 1.600019e-01 1.499338e-01 1.421517e-01 1.314695e-01 1.233190e-01 1.126806e-01 1.045356e-01 9.438749e-02 8.655648e-02 7.717132e-02 6.993036e-02 
6.200209e-02 5.648743e-02 5.000786e-02 4.583204e-02 4.096124e-02 3.870213e-02 3.593996e-02 3.597467e-02 3.539151e-02 3.737190e-02 3.832176e-02 4.153034e-02 4.334101e-02 4.752055e-02 5.001541e-02 5.543253e-02 5.860539e-02 6.552965e-02 6.916823e-02 7.751630e-02 8.146503e-02 9.104061e-02 9.559054e-02 1.062705e-01 1.117828e-01 1.231150e-01 1.295748e-01 1.405005e-01 1.475065e-01 1.565770e-01 1.636120e-01 1.696298e-01 1.762970e-01 1.789069e-01 1.849478e-01 1.847301e-01 1.899997e-01 1.880999e-01 1.926010e-01 1.901802e-01 1.939238e-01 1.916730e-01 1.944003e-01 1.923148e-01 1.934128e-01 1.909694e-01 1.897696e-01 1.863937e-01 1.826010e-01 1.780367e-01 1.718572e-01 1.661710e-01 1.581300e-01 1.515556e-01 1.423197e-01 1.351717e-01 1.254111e-01 1.180216e-01 1.082940e-01 1.009657e-01 9.167168e-02 8.467146e-02 7.608238e-02 6.966974e-02 
6.493305e-02 6.002829e-02 5.413900e-02 5.053983e-02 4.615673e-02 4.426192e-02 4.170687e-02 4.172140e-02 4.100294e-02 4.271602e-02 4.341554e-02 4.643042e-02 4.805765e-02 5.223706e-02 5.453667e-02 6.003026e-02 6.286968e-02 6.975506e-02 7.296375e-02 8.102704e-02 8.452410e-02 9.347232e-02 9.744932e-02 1.070405e-01 1.117285e-01 1.215209e-01 1.269194e-01 1.360988e-01 1.419710e-01 1.495161e-01 1.555586e-01 1.606701e-01 1.666409e-01 1.691116e-01 1.748088e-01 1.750618e-01 1.802828e-01 1.791118e-01 1.836848e-01 1.818895e-01 1.856407e-01 1.837084e-01 1.863387e-01 1.842959e-01 1.853430e-01 1.828611e-01 1.818685e-01 1.785563e-01 1.753213e-01 1.709760e-01 1.656400e-01 1.602924e-01 1.532530e-01 1.470916e-01 1.388879e-01 1.321934e-01 1.233979e-01 1.164841e-01 1.076076e-01 1.007766e-01 9.222146e-02 8.575091e-02 7.782099e-02 7.198188e-02 
6.582904e-02 6.151535e-02 5.617163e-02 5.306289e-02 4.904752e-02 4.743789e-02 4.494333e-02 4.497023e-02 4.396801e-02 4.549454e-02 4.570289e-02 4.845303e-02 4.955095e-02 5.337395e-02 5.518992e-02 6.011669e-02 6.257846e-02 6.865281e-02 7.168394e-02 7.881922e-02 8.238928e-02 9.040180e-02 9.461141e-02 1.032570e-01 1.082222e-01 1.170741e-01 1.227555e-01 1.311233e-01 1.372852e-01 1.443362e-01 1.506334e-01 1.556898e-01 1.617819e-01 1.645951e-01 1.702029e-01 1.710124e-01 1.759344e-01 1.753015e-01 1.794086e-01 1.779401e-01 1.811050e-01 1.792011e-01 1.811970e-01 1.789327e-01 1.794188e-01 1.766155e-01 1.752680e-01 1.716963e-01 1.683883e-01 1.639447e-01 1.588190e-01 1.535660e-01 1.469761e-01 1.410939e-01 1.335083e-01 1.272429e-01 1.191553e-01 1.127745e-01 1.046305e-01 9.839399e-02 9.055556e-02 8.470838e-02 7.745999e-02 7.224587e-02 
6.877042e-02 6.487222e-02 5.997893e-02 5.721683e-02 5.354009e-02 5.212678e-02 4.980286e-02 4.982903e-02 4.882938e-02 5.021615e-02 5.033866e-02 5.292684e-02 5.391849e-02 5.761381e-02 5.928857e-02 6.408110e-02 6.632032e-02 7.216847e-02 7.488754e-02 8.163254e-02 8.480917e-02 9.221529e-02 9.591965e-02 1.037071e-01 1.080187e-01 1.157962e-01 1.206941e-01 1.279177e-01 1.332531e-01 1.393158e-01 1.448619e-01 1.492909e-01 1.548038e-01 1.574321e-01 1.626748e-01 1.636700e-01 1.684182e-01 1.681657e-01 1.722147e-01 1.711321e-01 1.742776e-01 1.726473e-01 1.746460e-01 1.725352e-01 1.731068e-01 1.704105e-01 1.693177e-01 1.658893e-01 1.630465e-01 1.588201e-01 1.543422e-01 1.493757e-01 1.435478e-01 1.380023e-01 1.312170e-01 1.253196e-01 1.180076e-01 1.120143e-01 1.045842e-01 9.875079e-02 9.155429e-02 8.612568e-02 7.945382e-02 7.466844e-02 
6.975385e-02 6.626631e-02 6.176564e-02 5.932386e-02 5.588994e-02 5.465156e-02 5.236868e-02 5.239709e-02 5.123460e-02 5.247524e-02 5.229701e-02 5.463270e-02 5.527721e-02 5.861763e-02 5.997205e-02 6.427882e-02 6.628252e-02 7.151350e-02 7.413171e-02 8.018151e-02 8.340797e-02 9.009921e-02 9.396334e-02 1.010471e-01 1.055652e-01 1.126863e-01 1.177907e-01 1.244764e-01 1.299872e-01 1.357194e-01 1.413752e-01 1.457337e-01 1.512489e-01 1.540419e-01 1.591532e-01 1.604518e-01 1.649407e-01 1.650036e-01 1.686941e-01 1.678303e-01 1.705586e-01 1.689970e-01 1.705750e-01 1.683994e-01 1.686194e-01 1.657952e-01 1.644922e-01 1.609566e-01 1.580893e-01 1.538379e-01 1.495270e-01 1.446466e-01 1.391536e-01 1.338087e-01 1.274843e-01 1.218878e-01 1.151138e-01 1.094982e-01 1.026386e-01 9.723391e-02 9.060621e-02 8.563125e-02 7.950036e-02 7.516552e-02 
7.237135e-02 6.916394e-02 6.499864e-02 6.277343e-02 5.958605e-02 5.846501e-02 5.632373e-02 5.635639e-02 5.523793e-02 5.639430e-02 5.619380e-02 5.840050e-02 5.898216e-02 6.217167e-02 6.341954e-02 6.753761e-02 6.937143e-02 7.433775e-02 7.671004e-02 8.238325e-02 8.528260e-02 9.146231e-02 9.490854e-02 1.013425e-01 1.053469e-01 1.117167e-01 1.162321e-01 1.221542e-01 1.270531e-01 1.321320e-01 1.372217e-01 1.411453e-01 1.461998e-01 1.488217e-01 1.536085e-01 1.549666e-01 1.592626e-01 1.595265e-01 1.631250e-01 1.625030e-01 1.652078e-01 1.638596e-01 1.654751e-01 1.634677e-01 1.638099e-01 1.611336e-01 1.600719e-01 1.567000e-01 1.542086e-01 1.501585e-01 1.463421e-01 1.417033e-01 1.367849e-01 1.317141e-01 1.259980e-01 1.206979e-01 1.145250e-01 1.092193e-01 1.029256e-01 9.783824e-02 9.172717e-02 8.707141e-02 8.140307e-02 7.737850e-02 
7.328835e-02 7.035450e-02 6.646437e-02 6.444244e-02 6.141905e-02 6.039996e-02 5.829001e-02 5.830815e-02 5.709387e-02 5.812587e-02 5.773928e-02 5.972778e-02 6.008638e-02 6.297134e-02 6.401069e-02 6.773767e-02 6.942016e-02 7.391930e-02 7.622701e-02 8.138677e-02 8.431460e-02 8.997041e-02 9.351590e-02 9.944605e-02 1.035824e-01 1.095011e-01 1.141438e-01 1.197099e-01 1.247016e-01 1.295630e-01 1.346869e-01 1.385533e-01 1.435649e-01 1.462736e-01 1.509327e-01 1.524686e-01 1.565605e-01 1.570229e-01 1.603616e-01 1.598964e-01 1.623155e-01 1.610488e-01 1.623906e-01 1.603927e-01 1.605175e-01 1.578116e-01 1.566301e-01 1.532333e-01 1.507458e-01 1.467120e-01 1.430286e-01 1.384686e-01 1.337990e-01 1.288760e-01 1.234992e-01 1.184113e-01 1.126369e-01 1.075956e-01 1.017289e-01 9.694194e-02 9.125877e-02 8.691989e-02 8.165565e-02 7.794092e-02 
7.543456e-02 7.268735e-02 6.903586e-02 6.715126e-02 6.430333e-02 6.335655e-02 6.135523e-02 6.137623e-02 6.020955e-02 6.118520e-02 6.079809e-02 6.268747e-02 6.300683e-02 6.575795e-02 6.671728e-02 7.026829e-02 7.181981e-02 7.608372e-02 7.819990e-02 8.304902e-02 8.571919e-02 9.098150e-02 9.420080e-02 9.966175e-02 1.034077e-01 1.088111e-01 1.130176e-01 1.180767e-01 1.226202e-01 1.270508e-01 1.317566e-01 1.353266e-01 1.399880e-01 1.425600e-01 1.469592e-01 1.485029e-01 1.524284e-01 1.529972e-01 1.562522e-01 1.559382e-01 1.583425e-01 1.572312e-01 1.586231e-01 1.567693e-01 1.570166e-01 1.544499e-01 1.534749e-01 1.502276e-01 1.480335e-01 1.441707e-01 1.408561e-01 1.364915e-01 1.322427e-01 1.275359e-01 1.226035e-01 1.177464e-01 1.124137e-01 1.076110e-01 1.021635e-01 9.761638e-02 9.231747e-02 8.821249e-02 8.329024e-02 7.979322e-02 
7.621391e-02 7.363333e-02 7.016468e-02 6.839554e-02 6.565350e-02 6.475275e-02 6.277148e-02 6.275966e-02 6.153334e-02 6.239846e-02 6.189420e-02 6.360262e-02 6.377939e-02 6.628649e-02 6.711107e-02 7.036229e-02 7.181501e-02 7.573573e-02 7.780681e-02 8.228943e-02 8.497084e-02 8.986713e-02 9.314042e-02 9.825917e-02 1.020781e-01 1.071867e-01 1.114596e-01 1.162961e-01 1.208787e-01 1.251799e-01 1.298827e-01 1.334248e-01 1.380331e-01 1.406667e-01 1.449628e-01 1.466269e-01 1.504072e-01 1.511153e-01 1.541975e-01 1.540055e-01 1.562292e-01 1.552011e-01 1.564283e-01 1.546174e-01 1.547420e-01 1.521929e-01 1.511603e-01 1.479279e-01 1.457562e-01 1.419268e-01 1.387177e-01 1.344191e-01 1.303514e-01 1.257495e-01 1.210584e-01 1.163442e-01 1.112934e-01 1.066656e-01 1.015197e-01 9.716945e-02 9.217181e-02 8.827193e-02 8.363126e-02 8.033035e-02 
7.783205e-02 7.536926e-02 7.205279e-02 7.036644e-02 6.773656e-02 6.687704e-02 6.496794e-02 6.495464e-02 6.376406e-02 6.458944e-02 6.408974e-02 6.572628e-02 6.587919e-02 6.828461e-02 6.905437e-02 7.217021e-02 7.353055e-02 7.727449e-02 7.920877e-02 8.346679e-02 8.596267e-02 9.058578e-02 9.362448e-02 9.842987e-02 1.019707e-01 1.067462e-01 1.107116e-01 1.152273e-01 1.194952e-01 1.235253e-01 1.279331e-01 1.312845e-01 1.356423e-01 1.381796e-01 1.422865e-01 1.439414e-01 1.475999e-01 1.483630e-01 1.513884e-01 1.512868e-01 1.535129e-01 1.525882e-01 1.538731e-01 1.521677e-01 1.524050e-01 1.499639e-01 1.490994e-01 1.459837e-01 1.440320e-01 1.403332e-01 1.373863e-01 1.332339e-01 1.294557e-01 1.250135e-01 1.206224e-01 1.160768e-01 1.113211e-01 1.068653e-01 1.019977e-01 9.781690e-02 9.307285e-02 8.933331e-02 8.491620e-02 8.175888e-02 
7.844486e-02 7.606052e-02 7.285024e-02 7.120756e-02 6.863500e-02 6.777428e-02 6.587036e-02 6.580576e-02 6.457332e-02 6.529758e-02 6.472245e-02 6.621230e-02 6.627511e-02 6.849447e-02 6.917930e-02 7.207751e-02 7.337455e-02 7.688007e-02 7.878222e-02 8.279520e-02 8.529040e-02 8.967792e-02 9.273862e-02 9.733385e-02 1.009050e-01 1.055109e-01 1.094999e-01 1.138999e-01 1.181730e-01 1.221503e-01 1.265384e-01 1.299010e-01 1.342126e-01 1.368156e-01 1.408526e-01 1.426089e-01 1.461804e-01 1.470569e-01 1.499873e-01 1.499900e-01 1.521240e-01 1.512810e-01 1.524889e-01 1.508399e-01 1.510282e-01 1.486246e-01 1.477501e-01 1.446643e-01 1.427486e-01 1.390839e-01 1.362197e-01 1.321144e-01 1.284613e-01 1.240840e-01 1.198517e-01 1.153894e-01 1.108150e-01 1.064582e-01 1.017821e-01 9.771014e-02 9.315503e-02 8.952573e-02 8.528241e-02 8.222573e-02 
7.951914e-02 7.719672e-02 7.405717e-02 7.245409e-02 6.993321e-02 6.908804e-02 6.721777e-02 6.714538e-02 6.593055e-02 6.662626e-02 6.605455e-02 6.749765e-02 6.754965e-02 6.970463e-02 7.036141e-02 7.317556e-02 7.442208e-02 7.782048e-02 7.964406e-02 8.352453e-02 8.590917e-02 9.013972e-02 9.305696e-02 9.747653e-02 1.008748e-01 1.052978e-01 1.090934e-01 1.133198e-01 1.173929e-01 1.212242e-01 1.254230e-01 1.286817e-01 1.328317e-01 1.353795e-01 1.392961e-01 1.410425e-01 1.445422e-01 1.454434e-01 1.483520e-01 1.484006e-01 1.505601e-01 1.497735e-01 1.510494e-01 1.494618e-01 1.497546e-01 1.474175e-01 1.466776e-01 1.436661e-01 1.419068e-01 1.383267e-01 1.356318e-01 1.316219e-01 1.281415e-01 1.238683e-01 1.198039e-01 1.154507e-01 1.110334e-01 1.067859e-01 1.022523e-01 9.828490e-02 9.385570e-02 9.032140e-02 8.618626e-02 8.321027e-02 
7.995877e-02 7.763675e-02 7.453573e-02 7.291251e-02 7.040459e-02 6.951496e-02 6.763179e-02 6.748919e-02 6.623952e-02 6.684033e-02 6.621958e-02 6.754619e-02 6.754480e-02 6.956619e-02 7.017488e-02 7.284430e-02 7.405507e-02 7.730533e-02 7.910829e-02 8.284680e-02 8.522381e-02 8.932908e-02 9.224561e-02 9.656659e-02 9.996344e-02 1.043230e-01 1.081101e-01 1.123138e-01 1.163686e-01 1.202195e-01 1.243908e-01 1.277081e-01 1.318251e-01 1.344613e-01 1.383442e-01 1.401958e-01 1.436657e-01 1.446745e-01 1.475611e-01 1.477076e-01 1.498554e-01 1.491491e-01 1.504261e-01 1.488988e-01 1.492073e-01 1.469132e-01 1.462048e-01 1.432243e-01 1.415128e-01 1.379575e-01 1.353256e-01 1.313391e-01 1.279345e-01 1.236866e-01 1.197075e-01 1.153825e-01 1.110560e-01 1.068387e-01 1.023967e-01 9.845905e-02 9.411704e-02 9.060801e-02 8.654976e-02 8.358943e-02 
8.049044e-02 7.817987e-02 7.506975e-02 7.344676e-02 7.093053e-02 7.003160e-02 6.814217e-02 6.798320e-02 6.673044e-02 6.731036e-02 6.669000e-02 6.799297e-02 6.799417e-02 6.998957e-02 7.059976e-02 7.323990e-02 7.444624e-02 7.766253e-02 7.944971e-02 8.314861e-02 8.549369e-02 8.955393e-02 9.241924e-02 9.669151e-02 1.000174e-01 1.043277e-01 1.080271e-01 1.121854e-01 1.161428e-01 1.199564e-01 1.240312e-01 1.273224e-01 1.313562e-01 1.339783e-01 1.378034e-01 1.396515e-01 1.430983e-01 1.441112e-01 1.470139e-01 1.471690e-01 1.493709e-01 1.486761e-01 1.500380e-01 1.485256e-01 1.489385e-01 1.466646e-01 1.460664e-01 1.431136e-01 1.415051e-01 1.379864e-01 1.354402e-01 1.314988e-01 1.281575e-01 1.239604e-01 1.200221e-01 1.157497e-01 1.114449e-01 1.072776e-01 1.028433e-01 9.894938e-02 9.460601e-02 9.113135e-02 8.706677e-02 8.412968e-02 
8.076346e-02 7.837854e-02 7.524345e-02 7.353866e-02 7.099233e-02 7.000606e-02 6.808331e-02 6.783380e-02 6.654769e-02 6.703636e-02 6.638629e-02 6.759963e-02 6.757767e-02 6.948737e-02 7.008200e-02 7.264327e-02 7.384016e-02 7.698854e-02 7.876849e-02 8.241600e-02 8.475075e-02 8.878242e-02 9.162932e-02 9.590154e-02 9.919838e-02 1.035408e-01 1.072022e-01 1.114248e-01 1.153411e-01 1.192475e-01 1.232871e-01 1.266918e-01 1.307058e-01 1.334520e-01 1.372798e-01 1.392519e-01 1.427265e-01 1.438544e-01 1.468083e-01 1.470629e-01 1.493336e-01 1.487194e-01 1.501598e-01 1.487084e-01 1.492007e-01 1.469690e-01 1.464433e-01 1.435161e-01 1.419674e-01 1.384595e-01 1.359575e-01 1.320137e-01 1.287007e-01 1.244895e-01 1.205657e-01 1.162681e-01 1.119673e-01 1.077643e-01 1.033264e-01 9.938651e-02 9.503403e-02 9.150337e-02 8.742471e-02 8.442205e-02 
8.076062e-02 7.833644e-02 7.511163e-02 7.336631e-02 7.075068e-02 6.972755e-02 6.775728e-02 6.747924e-02 6.616814e-02 6.664015e-02 6.598733e-02 6.719788e-02 6.719360e-02 6.911493e-02 6.974416e-02 7.233121e-02 7.357467e-02 7.676251e-02 7.859505e-02 8.229518e-02 8.468203e-02 8.877846e-02 9.167037e-02 9.601712e-02 9.934601e-02 1.037681e-01 1.074448e-01 1.117455e-01 1.156601e-01 1.196348e-01 1.236606e-01 1.271161e-01 1.311140e-01 1.338885e-01 1.377114e-01 1.396886e-01 1.431834e-01 1.442963e-01 1.473043e-01 1.475305e-01 1.498898e-01 1.492408e-01 1.507941e-01 1.493084e-01 1.499186e-01 1.476584e-01 1.472322e-01 1.442852e-01 1.427965e-01 1.392785e-01 1.367844e-01 1.328382e-01 1.294801e-01 1.252700e-01 1.212571e-01 1.169593e-01 1.125399e-01 1.083309e-01 1.037609e-01 9.980594e-02 9.532106e-02 9.176548e-02 8.756362e-02 8.452733e-02 
8.088424e-02 7.830808e-02 7.499536e-02 7.310353e-02 7.041404e-02 6.925765e-02 6.723192e-02 6.684036e-02 6.549564e-02 6.587801e-02 6.521423e-02 6.636035e-02 6.636458e-02 6.824593e-02 6.889572e-02 7.146594e-02 7.273139e-02 7.592545e-02 7.776971e-02 8.150099e-02 8.387921e-02 8.803502e-02 9.089236e-02 9.532978e-02 9.859952e-02 1.031443e-01 1.067466e-01 1.111981e-01 1.150397e-01 1.191848e-01 1.231587e-01 1.267915e-01 1.307767e-01 1.337222e-01 1.375823e-01 1.397136e-01 1.432967e-01 1.445409e-01 1.476799e-01 1.480129e-01 1.505299e-01 1.499645e-01 1.516820e-01 1.502581e-01 1.510184e-01 1.487989e-01 1.484905e-01 1.455631e-01 1.441475e-01 1.406266e-01 1.381563e-01 1.341831e-01 1.308023e-01 1.265397e-01 1.224665e-01 1.180906e-01 1.135853e-01 1.092740e-01 1.046037e-01 1.005254e-01 9.593530e-02 9.224016e-02 8.793451e-02 8.474876e-02 
8.036021e-02 7.768847e-02 7.420299e-02 7.222345e-02 6.940141e-02 6.817411e-02 6.605762e-02 6.561964e-02 6.422701e-02 6.459266e-02 6.392361e-02 6.508502e-02 6.512457e-02 6.705343e-02 6.777525e-02 7.042478e-02 7.179367e-02 7.509888e-02 7.707133e-02 8.094591e-02 8.346852e-02 8.779862e-02 9.080571e-02 9.544314e-02 9.885513e-02 1.036140e-01 1.073381e-01 1.119996e-01 1.159331e-01 1.202613e-01 1.242953e-01 1.280634e-01 1.320858e-01 1.351055e-01 1.389987e-01 1.411423e-01 1.447772e-01 1.459829e-01 1.492108e-01 1.494721e-01 1.521197e-01 1.514677e-01 1.533432e-01 1.518321e-01 1.527461e-01 1.504482e-01 1.502490e-01 1.472562e-01 1.458703e-01 1.422970e-01 1.397588e-01 1.357419e-01 1.321999e-01 1.278954e-01 1.235899e-01 1.191661e-01 1.143879e-01 1.100169e-01 1.050629e-01 1.009108e-01 9.604886e-02 9.226706e-02 8.771613e-02 8.443564e-02 
8.036465e-02 7.745383e-02 7.381531e-02 7.161596e-02 6.867376e-02 6.726037e-02 6.506470e-02 6.448591e-02 6.306063e-02 6.333689e-02 6.268103e-02 6.380404e-02 6.389332e-02 6.582909e-02 6.661989e-02 6.931431e-02 7.074950e-02 7.413223e-02 7.614630e-02 8.012941e-02 8.265159e-02 8.712282e-02 9.007880e-02 9.489240e-02 9.820632e-02 1.031762e-01 1.067732e-01 1.116746e-01 1.154820e-01 1.200656e-01 1.240108e-01 1.280309e-01 1.320338e-01 1.352827e-01 1.392440e-01 1.415809e-01 1.453712e-01 1.467308e-01 1.501838e-01 1.505636e-01 1.534761e-01 1.529138e-01 1.550578e-01 1.536127e-01 1.547625e-01 1.525082e-01 1.524815e-01 1.495079e-01 1.482105e-01 1.446269e-01 1.420871e-01 1.380238e-01 1.343981e-01 1.300055e-01 1.255533e-01 1.209974e-01 1.160330e-01 1.114882e-01 1.063303e-01 1.019697e-01 9.690235e-02 9.288818e-02 8.814160e-02 8.461803e-02 
7.934338e-02 7.626877e-02 7.237136e-02 7.002457e-02 6.688306e-02 6.535300e-02 6.302002e-02 6.236767e-02 6.086985e-02 6.112344e-02 6.046074e-02 6.161390e-02 6.175970e-02 6.377634e-02 6.468213e-02 6.750577e-02 6.910849e-02 7.266911e-02 7.489637e-02 7.910893e-02 8.188014e-02 8.663433e-02 8.985993e-02 9.500527e-02 9.858763e-02 1.039212e-01 1.077593e-01 1.130246e-01 1.170220e-01 1.219274e-01 1.259993e-01 1.302571e-01 1.343311e-01 1.377070e-01 1.417134e-01 1.440652e-01 1.479167e-01 1.492017e-01 1.527693e-01 1.530204e-01 1.561157e-01 1.554045e-01 1.577797e-01 1.561897e-01 1.575663e-01 1.551844e-01 1.553099e-01 1.522307e-01 1.509503e-01 1.472813e-01 1.445950e-01 1.404580e-01 1.365356e-01 1.320681e-01 1.272133e-01 1.225682e-01 1.171508e-01 1.124941e-01 1.068813e-01 1.023845e-01 9.689393e-02 9.272398e-02 8.760362e-02 8.391404e-02 
7.927933e-02 7.586123e-02 7.174167e-02 6.908646e-02 6.577374e-02 6.399283e-02 6.155434e-02 6.072724e-02 5.920124e-02 5.936534e-02 5.875199e-02 5.989719e-02 6.015350e-02 6.222955e-02 6.327630e-02 6.620981e-02 6.794658e-02 7.165519e-02 7.397366e-02 7.836746e-02 8.115873e-02 8.612896e-02 8.928796e-02 9.468858e-02 9.812054e-02 1.037508e-01 1.073808e-01 1.129785e-01 1.167591e-01 1.220150e-01 1.259242e-01 1.305221e-01 1.345449e-01 1.382203e-01 1.423191e-01 1.449110e-01 1.489966e-01 1.504617e-01 1.543733e-01 1.547571e-01 1.582558e-01 1.576449e-01 1.604243e-01 1.589118e-01 1.606357e-01 1.583110e-01 1.586792e-01 1.556325e-01 1.544589e-01 1.507871e-01 1.480638e-01 1.438730e-01 1.397873e-01 1.352007e-01 1.300921e-01 1.252565e-01 1.195357e-01 1.146215e-01 1.086898e-01 1.038824e-01 9.808041e-02 9.356644e-02 8.815563e-02 8.411078e-02 
7.780946e-02 7.413930e-02 6.967260e-02 6.678922e-02 6.320534e-02 6.124226e-02 5.861365e-02 5.767076e-02 5.604394e-02 5.617111e-02 5.555078e-02 5.673779e-02 5.707758e-02 5.926476e-02 6.047715e-02 6.358245e-02 6.555964e-02 6.950072e-02 7.212913e-02 7.682533e-02 7.998780e-02 8.534224e-02 8.891555e-02 9.478557e-02 9.864222e-02 1.048094e-01 1.088285e-01 1.149839e-01 1.190690e-01 1.248304e-01 1.289270e-01 1.338995e-01 1.379973e-01 1.418639e-01 1.459747e-01 1.485717e-01 1.526849e-01 1.540145e-01 1.580455e-01 1.582196e-01 1.619662e-01 1.611296e-01 1.642600e-01 1.625413e-01 1.646300e-01 1.621333e-01 1.627551e-01 1.595739e-01 1.584326e-01 1.546588e-01 1.516999e-01 1.474241e-01 1.428674e-01 1.381882e-01 1.324590e-01 1.275002e-01 1.211052e-01 1.160249e-01 1.094408e-01 1.044252e-01 9.803590e-02 9.328210e-02 8.736536e-02 8.306523e-02 
7.776186e-02 7.361711e-02 6.885482e-02 6.555078e-02 6.173663e-02 5.943880e-02 5.667220e-02 5.551012e-02 5.386392e-02 5.390284e-02 5.338825e-02 5.460815e-02 5.515269e-02 5.746348e-02 5.892778e-02 6.221440e-02 6.443135e-02 6.859003e-02 7.139229e-02 7.633513e-02 7.956246e-02 8.519611e-02 8.869674e-02 9.488816e-02 9.852896e-02 1.050691e-01 1.087591e-01 1.153385e-01 1.190554e-01 1.252721e-01 1.290687e-01 1.344856e-01 1.384567e-01 1.427060e-01 1.469224e-01 1.498098e-01 1.542558e-01 1.557893e-01 1.603240e-01 1.606446e-01 1.649831e-01 1.642643e-01 1.679835e-01 1.663685e-01 1.689564e-01 1.665515e-01 1.675108e-01 1.644026e-01 1.633904e-01 1.596510e-01 1.566025e-01 1.522881e-01 1.474572e-01 1.426346e-01 1.365118e-01 1.312921e-01 1.244523e-01 1.190047e-01 1.119743e-01 1.065130e-01 9.970306e-02 9.446031e-02 8.815918e-02 8.336138e-02 
7.594316e-02 7.142820e-02 6.623231e-02 6.258698e-02 5.842208e-02 5.584385e-02 5.282115e-02 5.147523e-02 4.969134e-02 4.966717e-02 4.914866e-02 5.042101e-02 5.108766e-02 5.353731e-02 5.523001e-02 5.871653e-02 6.125696e-02 6.567526e-02 6.889722e-02 7.418217e-02 7.792610e-02 8.401902e-02 8.811714e-02 9.491172e-02 9.918626e-02 1.064670e-01 1.107506e-01 1.181459e-01 1.223219e-01 1.293077e-01 1.333530e-01 1.393442e-01 1.433452e-01 1.478680e-01 1.519801e-01 1.548356e-01 1.591922e-01 1.604815e-01 1.650935e-01 1.650839e-01 1.697517e-01 1.687132e-01 1.729843e-01 1.711046e-01 1.743143e-01 1.717068e-01 1.731286e-01 1.698763e-01 1.689603e-01 1.651291e-01 1.617311e-01 1.573507e-01 1.518015e-01 1.468911e-01 1.398488e-01 1.344775e-01 1.266829e-01 1.210036e-01 1.130935e-01 1.073295e-01 9.976244e-02 9.416897e-02 8.723646e-02 8.206577e-02 
7.605225e-02 7.089569e-02 6.532902e-02 6.111839e-02 5.665109e-02 5.362458e-02 5.041582e-02 4.878808e-02 4.699501e-02 4.688771e-02 4.656337e-02 4.793045e-02 4.895043e-02 5.160791e-02 5.372239e-02 5.746951e-02 6.041024e-02 6.511172e-02 6.864094e-02 7.422503e-02 7.812430e-02 8.453916e-02 8.859035e-02 9.574614e-02 9.974015e-02 1.074435e-01 1.112302e-01 1.191254e-01 1.226879e-01 1.302376e-01 1.337365e-01 1.402945e-01 1.440168e-01 1.490173e-01 1.532307e-01 1.564180e-01 1.612412e-01 1.627401e-01 1.680816e-01 1.682262e-01 1.737514e-01 1.728631e-01 1.779824e-01 1.762629e-01 1.801852e-01 1.777434e-01 1.796370e-01 1.765482e-01 1.757923e-01 1.720897e-01 1.685218e-01 1.641583e-01 1.581732e-01 1.530992e-01 1.454756e-01 1.397400e-01 1.313310e-01 1.251178e-01 1.166274e-01 1.102201e-01 1.021306e-01 9.584751e-02 8.844865e-02 8.259341e-02 
7.407937e-02 6.839722e-02 6.232146e-02 5.761264e-02 5.270275e-02 4.924440e-02 4.568349e-02 4.375592e-02 4.176639e-02 4.155181e-02 4.123648e-02 4.267526e-02 4.388495e-02 4.671049e-02 4.913761e-02 5.308438e-02 5.644068e-02 6.137161e-02 6.544034e-02 7.133310e-02 7.592155e-02 8.280277e-02 8.769099e-02 9.554922e-02 1.004748e-01 1.091498e-01 1.138426e-01 1.229111e-01 1.271772e-01 1.359025e-01 1.397310e-01 1.471802e-01 1.508070e-01 1.561899e-01 1.600289e-01 1.630831e-01 1.675373e-01 1.685887e-01 1.738674e-01 1.734974e-01 1.794509e-01 1.781378e-01 1.841523e-01 1.821351e-01 1.871586e-01 1.845164e-01 1.872878e-01 1.840743e-01 1.835672e-01 1.798225e-01 1.757349e-01 1.713736e-01 1.642845e-01 1.591589e-01 1.501831e-01 1.442633e-01 1.345378e-01 1.279936e-01 1.183715e-01 1.115210e-01 1.025173e-01 9.572797e-02 8.760072e-02 8.121611e-02 
7.456639e-02 6.803832e-02 6.152291e-02 5.606993e-02 5.076603e-02 4.670315e-02 4.286994e-02 4.056189e-02 3.856021e-02 3.827466e-02 3.829377e-02 3.993082e-02 4.172911e-02 4.487569e-02 4.797133e-02 5.226076e-02 5.624147e-02 6.151160e-02 6.608685e-02 7.231625e-02 7.722797e-02 8.444864e-02 8.939529e-02 9.761228e-02 1.022399e-01 1.113300e-01 1.153247e-01 1.249161e-01 1.281868e-01 1.375651e-01 1.404108e-01 1.485661e-01 1.516265e-01 1.575878e-01 1.614998e-01 1.648814e-01 1.700015e-01 1.712074e-01 1.775489e-01 1.773216e-01 1.845173e-01 1.834249e-01 1.906607e-01 1.889288e-01 1.949726e-01 1.926433e-01 1.960860e-01 1.932151e-01 1.929220e-01 1.895122e-01 1.851311e-01 1.809125e-01 1.731422e-01 1.678194e-01 1.580066e-01 1.515315e-01 1.409968e-01 1.336308e-01 1.233050e-01 1.154980e-01 1.058983e-01 9.813088e-02 8.948636e-02 8.217298e-02 
7.278904e-02 6.555313e-02 5.848198e-02 5.233580e-02 4.648213e-02 4.175964e-02 3.740833e-02 3.458539e-02 3.226475e-02 3.179596e-02 3.187295e-02 3.364460e-02 3.577962e-02 3.913536e-02 4.266302e-02 4.709342e-02 5.157720e-02 5.693657e-02 6.216516e-02 6.852803e-02 7.432461e-02 8.187096e-02 8.796891e-02 9.687983e-02 1.028778e-01 1.131657e-01 1.185775e-01 1.298450e-01 1.342588e-01 1.454811e-01 1.488115e-01 1.584084e-01 1.611131e-01 1.676043e-01 1.705822e-01 1.735725e-01 1.777283e-01 1.780883e-01 1.840264e-01 1.830003e-01 1.907362e-01 1.891356e-01 1.978639e-01 1.958870e-01 2.039385e-01 2.014808e-01 2.066298e-01 2.036801e-01 2.039557e-01 2.006040e-01 1.954003e-01 1.913384e-01 1.818088e-01 1.765122e-01 1.646950e-01 1.579661e-01 1.456537e-01 1.377717e-01 1.260599e-01 1.175796e-01 1.069563e-01 9.845989e-02 8.905074e-02 8.101093e-02 
7.397110e-02 6.567376e-02 5.811682e-02 5.104388e-02 4.468626e-02 3.916112e-02 3.436601e-02 3.098257e-02 2.857784e-02 2.805692e-02 2.870536e-02 3.086546e-02 3.395516e-02 3.776882e-02 4.227233e-02 4.710821e-02 5.247419e-02 5.822244e-02 6.421429e-02 7.096207e-02 7.736021e-02 8.526605e-02 9.169190e-02 1.009219e-01 1.067667e-01 1.173655e-01 1.219222e-01 1.336036e-01 1.364615e-01 1.483388e-01 1.499064e-01 1.603598e-01 1.619640e-01 1.691298e-01 1.721333e-01 1.752943e-01 1.804461e-01 1.807256e-01 1.882358e-01 1.872902e-01 1.968407e-01 1.956397e-01 2.061425e-01 2.047446e-01 2.142684e-01 2.124058e-01 2.185310e-01 2.162498e-01 2.168620e-01 2.142851e-01 2.085993e-01 2.049214e-01 1.943207e-01 1.887091e-01 1.757091e-01 1.680105e-01 1.546893e-01 1.454448e-01 1.329492e-01 1.229967e-01 1.117581e-01 1.018706e-01 9.194241e-02 8.267446e-02 
7.294542e-02 6.379184e-02 5.568777e-02 4.776602e-02 4.076033e-02 3.430626e-02 2.869264e-02 2.436297e-02 2.128896e-02 2.042690e-02 2.133976e-02 2.387238e-02 2.765147e-02 3.172078e-02 3.678499e-02 4.157337e-02 4.746188e-02 5.297601e-02 5.967913e-02 6.615317e-02 7.362684e-02 8.144249e-02 8.941331e-02 9.906724e-02 1.069239e-01 1.188279e-01 1.256614e-01 1.397018e-01 1.445596e-01 1.594461e-01 1.618774e-01 1.748301e-01 1.755844e-01 1.834795e-01 1.844359e-01 1.865461e-01 1.895257e-01 1.881404e-01 1.945102e-01 1.923349e-01 2.025337e-01 2.008723e-01 2.139153e-01 2.125682e-01 2.258343e-01 2.240608e-01 2.335839e-01 2.312314e-01 2.330600e-01 2.306804e-01 2.235448e-01 2.203558e-01 2.067970e-01 2.013393e-01 1.853293e-01 1.771766e-01 1.615157e-01 1.513732e-01 1.372816e-01 1.262670e-01 1.139831e-01 1.030616e-01 9.241673e-02 8.221313e-02 
7.520054e-02 6.484045e-02 5.624579e-02 4.732561e-02 3.973300e-02 3.234506e-02 2.599532e-02 2.076149e-02 1.721970e-02 1.628815e-02 1.827493e-02 2.156862e-02 2.677994e-02 3.137600e-02 3.763835e-02 4.282910e-02 4.978142e-02 5.577838e-02 6.349416e-02 7.051751e-02 7.898323e-02 8.730254e-02 9.615104e-02 1.061442e-01 1.143892e-01 1.264051e-01 1.325156e-01 1.465841e-01 1.491670e-01 1.644308e-01 1.636686e-01 1.776217e-01 1.762865e-01 1.849658e-01 1.859506e-01 1.876159e-01 1.921983e-01 1.899800e-01 1.987087e-01 1.964230e-01 2.093202e-01 2.085580e-01 2.242456e-01 2.242235e-01 2.396198e-01 2.389755e-01 2.499064e-01 2.487380e-01 2.512421e-01 2.506233e-01 2.427200e-01 2.403142e-01 2.250257e-01 2.188091e-01 2.011708e-01 1.910826e-01 1.742665e-01 1.617215e-01 1.468511e-01 1.335277e-01 1.206693e-01 1.078013e-01 9.667195e-02 8.492882e-02 
7.565696e-02 6.445991e-02 5.538879e-02 4.572407e-02 3.751259e-02 2.924301e-02 2.180960e-02 1.506041e-02 9.493316e-03 7.564825e-03 1.110422e-02 1.554508e-02 2.190171e-02 2.656972e-02 3.323435e-02 3.792717e-02 4.517420e-02 5.039676e-02 5.871173e-02 6.477803e-02 7.441663e-02 8.181983e-02 9.263615e-02 1.022513e-01 1.133863e-01 1.263718e-01 1.361862e-01 1.533928e-01 1.597166e-01 1.801050e-01 1.812323e-01 1.999678e-01 1.968408e-01 2.065079e-01 2.032621e-01 2.021337e-01 2.021470e-01 1.965077e-01 2.026067e-01 1.984894e-01 2.121230e-01 2.113987e-01 2.314556e-01 2.324150e-01 2.548745e-01 2.548595e-01 2.727635e-01 2.711882e-01 2.762295e-01 2.758866e-01 2.650812e-01 2.639696e-01 2.433887e-01 2.374764e-01 2.152798e-01 2.041462e-01 1.843708e-01 1.701328e-01 1.535558e-01 1.385428e-01 1.247032e-01 1.104389e-01 9.868378e-02 8.586842e-02 