# vtk DataFile Version 2.0
Comment goes here
ASCII

DATASET STRUCTURED_POINTS
DIMENSIONS    64   64   1

ORIGIN    0.000   0.000   0.000
SPACING   0.0156250.015625   1.000

POINT_DATA   4096
SCALARS uMag double
LOOKUP_TABLE default

1.998428e-01 1.928037e-01 1.815300e-01 1.783289e-01 1.706479e-01 1.716733e-01 1.679745e-01 1.731900e-01 1.735645e-01 1.822225e-01 1.863783e-01 1.969002e-01 2.039927e-01 2.141731e-01 2.224695e-01 2.303359e-01 2.376102e-01 2.429771e-01 2.488554e-01 2.534202e-01 2.615335e-01 2.668889e-01 2.788534e-01 2.863222e-01 3.020210e-01 3.122717e-01 3.307249e-01 3.434548e-01 3.632451e-01 3.773216e-01 3.968281e-01 4.107224e-01 4.284554e-01 4.407788e-01 4.556877e-01 4.655190e-01 4.770654e-01 4.839703e-01 4.919800e-01 4.958298e-01 5.002532e-01 5.009881e-01 5.016953e-01 4.991681e-01 4.959003e-01 4.899076e-01 4.824318e-01 4.729122e-01 4.612687e-01 4.485063e-01 4.331645e-01 4.178495e-01 3.996831e-01 3.828093e-01 3.629309e-01 3.456071e-01 3.251601e-01 3.084303e-01 2.884280e-01 2.731668e-01 2.544281e-01 2.413336e-01 2.245136e-01 2.141709e-01 
2.060121e-01 1.990007e-01 1.882521e-01 1.845964e-01 1.772536e-01 1.770522e-01 1.733460e-01 1.763329e-01 1.762048e-01 1.816431e-01 1.846985e-01 1.914617e-01 1.969381e-01 2.038596e-01 2.106018e-01 2.170520e-01 2.239028e-01 2.301754e-01 2.372053e-01 2.439333e-01 2.531576e-01 2.611753e-01 2.734535e-01 2.833057e-01 2.984950e-01 3.103194e-01 3.277076e-01 3.411158e-01 3.596148e-01 3.737266e-01 3.920417e-01 4.057173e-01 4.226146e-01 4.347880e-01 4.493314e-01 4.592340e-01 4.708491e-01 4.780362e-01 4.864120e-01 4.906513e-01 4.955740e-01 4.966943e-01 4.979136e-01 4.957141e-01 4.929299e-01 4.872246e-01 4.802225e-01 4.710002e-01 4.598501e-01 4.474326e-01 4.326137e-01 4.176994e-01 4.000742e-01 3.836422e-01 3.643056e-01 3.474418e-01 3.275279e-01 3.112558e-01 2.917843e-01 2.769615e-01 2.587690e-01 2.460660e-01 2.298197e-01 2.197559e-01 
2.109015e-01 2.040793e-01 1.936510e-01 1.901032e-01 1.828231e-01 1.826284e-01 1.786523e-01 1.815951e-01 1.808970e-01 1.863802e-01 1.887035e-01 1.957629e-01 2.005472e-01 2.080398e-01 2.143921e-01 2.214059e-01 2.284313e-01 2.347808e-01 2.424141e-01 2.486526e-01 2.580140e-01 2.649259e-01 2.767570e-01 2.850755e-01 2.994191e-01 3.095396e-01 3.258914e-01 3.376574e-01 3.551346e-01 3.678591e-01 3.853744e-01 3.980675e-01 4.145462e-01 4.262130e-01 4.407750e-01 4.506180e-01 4.626346e-01 4.701007e-01 4.791329e-01 4.838459e-01 4.895311e-01 4.911917e-01 4.931597e-01 4.914923e-01 4.893796e-01 4.841803e-01 4.777586e-01 4.690272e-01 4.583781e-01 4.464446e-01 4.320664e-01 4.176214e-01 4.003982e-01 3.844027e-01 3.654532e-01 3.489770e-01 3.294593e-01 3.135219e-01 2.944766e-01 2.799445e-01 2.622179e-01 2.497753e-01 2.340187e-01 2.241889e-01 
2.151535e-01 2.079130e-01 1.976262e-01 1.932988e-01 1.860190e-01 1.845525e-01 1.803499e-01 1.814717e-01 1.802640e-01 1.834825e-01 1.850245e-01 1.897154e-01 1.935886e-01 1.991760e-01 2.048156e-01 2.109805e-01 2.178855e-01 2.246472e-01 2.328008e-01 2.403643e-01 2.503333e-01 2.590191e-01 2.711262e-01 2.811844e-01 2.953442e-01 3.068146e-01 3.226012e-01 3.352070e-01 3.519240e-01 3.650712e-01 3.818526e-01 3.947541e-01 4.107144e-01 4.225704e-01 4.369371e-01 4.470673e-01 4.592251e-01 4.671024e-01 4.765501e-01 4.817585e-01 4.880305e-01 4.902039e-01 4.928223e-01 4.916265e-01 4.901407e-01 4.853373e-01 4.794612e-01 4.710379e-01 4.608226e-01 4.491120e-01 4.350510e-01 4.207568e-01 4.037516e-01 3.878541e-01 3.690563e-01 3.526421e-01 3.332488e-01 3.173450e-01 2.984320e-01 2.838984e-01 2.663344e-01 2.538261e-01 2.382639e-01 2.282427e-01 
2.185220e-01 2.112413e-01 2.009170e-01 1.965523e-01 1.891237e-01 1.876347e-01 1.831517e-01 1.843056e-01 1.827136e-01 1.860792e-01 1.871982e-01 1.921877e-01 1.956817e-01 2.016640e-01 2.070614e-01 2.135429e-01 2.204113e-01 2.272086e-01 2.354512e-01 2.427077e-01 2.526219e-01 2.606644e-01 2.724910e-01 2.816581e-01 2.953603e-01 3.058161e-01 3.210578e-01 3.326558e-01 3.488516e-01 3.611241e-01 3.775328e-01 3.898002e-01 4.056448e-01 4.171722e-01 4.317380e-01 4.418538e-01 4.545186e-01 4.626523e-01 4.728505e-01 4.785086e-01 4.856707e-01 4.883991e-01 4.919275e-01 4.913141e-01 4.906444e-01 4.863935e-01 4.811508e-01 4.732109e-01 4.633991e-01 4.520780e-01 4.381958e-01 4.241846e-01 4.071873e-01 3.914669e-01 3.725842e-01 3.562551e-01 3.367584e-01 3.208709e-01 3.018871e-01 2.873283e-01 2.697458e-01 2.571955e-01 2.416548e-01 2.315904e-01 
2.208896e-01 2.128693e-01 2.023855e-01 1.970630e-01 1.894065e-01 1.866962e-01 1.818758e-01 1.815583e-01 1.795098e-01 1.812642e-01 1.818502e-01 1.853141e-01 1.883107e-01 1.931616e-01 1.982671e-01 2.042917e-01 2.112155e-01 2.183257e-01 2.269387e-01 2.351338e-01 2.454914e-01 2.548318e-01 2.669429e-01 2.774702e-01 2.911874e-01 3.028308e-01 3.178323e-01 3.303368e-01 3.461411e-01 3.590588e-01 3.750724e-01 3.878245e-01 4.034159e-01 4.153877e-01 4.299488e-01 4.405601e-01 4.535173e-01 4.622392e-01 4.730126e-01 4.793416e-01 4.872895e-01 4.907198e-01 4.951269e-01 4.951689e-01 4.953287e-01 4.916013e-01 4.870038e-01 4.793843e-01 4.699442e-01 4.587084e-01 4.449095e-01 4.307702e-01 4.136242e-01 3.976220e-01 3.784542e-01 3.617539e-01 3.419312e-01 3.256267e-01 3.063449e-01 2.913370e-01 2.735182e-01 2.604706e-01 2.447540e-01 2.341020e-01 
2.227423e-01 2.144279e-01 2.036376e-01 1.981009e-01 1.901498e-01 1.873276e-01 1.822215e-01 1.819191e-01 1.796065e-01 1.815183e-01 1.818778e-01 1.856239e-01 1.884434e-01 1.936311e-01 1.986206e-01 2.049242e-01 2.117988e-01 2.190281e-01 2.276246e-01 2.357417e-01 2.460367e-01 2.551098e-01 2.670801e-01 2.771925e-01 2.907050e-01 3.018457e-01 3.166182e-01 3.286018e-01 3.442130e-01 3.566677e-01 3.726025e-01 3.850247e-01 4.007343e-01 4.125704e-01 4.275124e-01 4.382172e-01 4.518476e-01 4.608937e-01 4.726113e-01 4.794613e-01 4.885437e-01 4.926265e-01 4.982180e-01 4.989569e-01 5.001691e-01 4.970884e-01 4.932305e-01 4.861227e-01 4.769902e-01 4.660719e-01 4.521417e-01 4.381020e-01 4.204908e-01 4.043868e-01 3.845800e-01 3.676224e-01 3.471322e-01 3.304733e-01 3.105884e-01 2.951850e-01 2.768639e-01 2.634249e-01 2.473014e-01 2.362949e-01 
2.233627e-01 2.140497e-01 2.028475e-01 1.962285e-01 1.878715e-01 1.838807e-01 1.783604e-01 1.768425e-01 1.741224e-01 1.748650e-01 1.748719e-01 1.776386e-01 1.802350e-01 1.847982e-01 1.897713e-01 1.959348e-01 2.030327e-01 2.106387e-01 2.196400e-01 2.285663e-01 2.393061e-01 2.494595e-01 2.617728e-01 2.730510e-01 2.867235e-01 2.989611e-01 3.137064e-01 3.266325e-01 3.420923e-01 3.553270e-01 3.710940e-01 3.841855e-01 3.998365e-01 4.123126e-01 4.274228e-01 4.388190e-01 4.529292e-01 4.627727e-01 4.753101e-01 4.830726e-01 4.932627e-01 4.983234e-01 5.051654e-01 5.068373e-01 5.092174e-01 5.068703e-01 5.038482e-01 4.971193e-01 4.883155e-01 4.773357e-01 4.632062e-01 4.487019e-01 4.304882e-01 4.136445e-01 3.930259e-01 3.751910e-01 3.538552e-01 3.362763e-01 3.156229e-01 2.992995e-01 2.803304e-01 2.659725e-01 2.493156e-01 2.373673e-01 
2.237703e-01 2.138717e-01 2.021438e-01 1.950962e-01 1.863259e-01 1.820883e-01 1.762682e-01 1.747006e-01 1.717951e-01 1.726779e-01 1.726000e-01 1.756553e-01 1.782383e-01 1.831645e-01 1.881648e-01 1.946800e-01 2.018249e-01 2.097055e-01 2.187564e-01 2.278521e-01 2.386241e-01 2.488407e-01 2.611614e-01 2.724113e-01 2.860720e-01 2.982124e-01 3.129443e-01 3.257349e-01 3.412139e-01 3.543167e-01 3.701922e-01 3.832099e-01 3.991371e-01 4.116601e-01 4.273026e-01 4.389271e-01 4.539007e-01 4.641960e-01 4.779552e-01 4.863955e-01 4.981060e-01 5.040191e-01 5.125031e-01 5.150950e-01 5.189503e-01 5.174472e-01 5.154039e-01 5.092980e-01 5.007362e-01 4.900501e-01 4.753973e-01 4.608068e-01 4.415084e-01 4.242324e-01 4.022735e-01 3.837566e-01 3.610828e-01 3.426875e-01 3.208459e-01 3.036731e-01 2.837136e-01 2.685487e-01 2.510879e-01 2.384255e-01 
2.228299e-01 2.116892e-01 1.993229e-01 1.910691e-01 1.817318e-01 1.763410e-01 1.700316e-01 1.674148e-01 1.641334e-01 1.641500e-01 1.638607e-01 1.663232e-01 1.689035e-01 1.735871e-01 1.788080e-01 1.854699e-01 1.930281e-01 2.014292e-01 2.110069e-01 2.209266e-01 2.322299e-01 2.434661e-01 2.562222e-01 2.685679e-01 2.825065e-01 2.957163e-01 3.105590e-01 3.243281e-01 3.397935e-01 3.537680e-01 3.695951e-01 3.834085e-01 3.993791e-01 4.126909e-01 4.286163e-01 4.411121e-01 4.567494e-01 4.680803e-01 4.829741e-01 4.926512e-01 5.059484e-01 5.132529e-01 5.235920e-01 5.275738e-01 5.331908e-01 5.328129e-01 5.319828e-01 5.264295e-01 5.181938e-01 5.072870e-01 4.920550e-01 4.765411e-01 4.560187e-01 4.373841e-01 4.139282e-01 3.938839e-01 3.697373e-01 3.498166e-01 3.266831e-01 3.080622e-01 2.870318e-01 2.705081e-01 2.521701e-01 2.382195e-01 
2.219116e-01 2.098462e-01 1.967643e-01 1.878246e-01 1.779625e-01 1.721501e-01 1.655121e-01 1.627530e-01 1.593400e-01 1.594790e-01 1.592275e-01 1.620213e-01 1.647515e-01 1.698904e-01 1.753110e-01 1.824676e-01 1.902333e-01 1.991093e-01 2.088840e-01 2.192305e-01 2.307159e-01 2.423210e-01 2.552446e-01 2.678981e-01 2.819905e-01 2.954446e-01 3.104300e-01 3.243820e-01 3.399954e-01 3.541064e-01 3.701326e-01 3.840767e-01 4.003869e-01 4.138960e-01 4.304345e-01 4.432926e-01 4.599670e-01 4.719209e-01 4.883873e-01 4.989967e-01 5.143903e-01 5.228963e-01 5.356364e-01 5.409444e-01 5.488075e-01 5.496571e-01 5.503159e-01 5.456503e-01 5.376653e-01 5.271176e-01 5.108122e-01 4.950073e-01 4.724972e-01 4.529830e-01 4.272207e-01 4.059044e-01 3.795770e-01 3.582142e-01 3.332315e-01 3.131752e-01 2.906596e-01 2.728190e-01 2.533104e-01 2.382221e-01 
2.196654e-01 2.061018e-01 1.921674e-01 1.818672e-01 1.712709e-01 1.642614e-01 1.570378e-01 1.533118e-01 1.495306e-01 1.490154e-01 1.486794e-01 1.511888e-01 1.541356e-01 1.593667e-01 1.652595e-01 1.728481e-01 1.812532e-01 1.908407e-01 2.013183e-01 2.125842e-01 2.247362e-01 2.373914e-01 2.508641e-01 2.646212e-01 2.790926e-01 2.936349e-01 3.088126e-01 3.237872e-01 3.394332e-01 3.544809e-01 3.704600e-01 3.852775e-01 4.016030e-01 4.159976e-01 4.328177e-01 4.466978e-01 4.641595e-01 4.774138e-01 4.953799e-01 5.076657e-01 5.253367e-01 5.358727e-01 5.514584e-01 5.589417e-01 5.696381e-01 5.723747e-01 5.749937e-01 5.713118e-01 5.637166e-01 5.527580e-01 5.352941e-01 5.178351e-01 4.931629e-01 4.713433e-01 4.431318e-01 4.193667e-01 3.907842e-01 3.671067e-01 3.402498e-01 3.181124e-01 2.941015e-01 2.744143e-01 2.537079e-01 2.369678e-01 
2.176169e-01 2.027414e-01 1.879223e-01 1.766331e-01 1.653906e-01 1.577390e-01 1.501299e-01 1.461404e-01 1.422600e-01 1.418584e-01 1.416869e-01 1.446181e-01 1.479068e-01 1.537505e-01 1.600570e-01 1.683387e-01 1.771578e-01 1.874499e-01 1.983154e-01 2.102672e-01 2.227809e-01 2.360910e-01 2.499022e-01 2.642704e-01 2.790507e-01 2.941392e-01 3.095807e-01 3.250106e-01 3.408669e-01 3.562649e-01 3.724305e-01 3.875182e-01 4.041120e-01 4.187891e-01 4.361643e-01 4.505031e-01 4.690898e-01 4.831702e-01 5.031071e-01 5.167168e-01 5.373222e-01 5.496579e-01 5.689107e-01 5.784541e-01 5.928236e-01 5.975077e-01 6.026770e-01 6.004176e-01 5.932584e-01 5.828986e-01 5.634799e-01 5.454628e-01 5.173256e-01 4.939132e-01 4.619486e-01 4.359882e-01 4.041130e-01 3.780770e-01 3.486171e-01 3.242540e-01 2.982713e-01 2.766342e-01 2.544372e-01 2.360655e-01 
2.144582e-01 1.978113e-01 1.819295e-01 1.690806e-01 1.569047e-01 1.479300e-01 1.395837e-01 1.346144e-01 1.303326e-01 1.294228e-01 1.293001e-01 1.322368e-01 1.360071e-01 1.422880e-01 1.493724e-01 1.583909e-01 1.681225e-01 1.793430e-01 1.911276e-01 2.041294e-01 2.174767e-01 2.319098e-01 2.464002e-01 2.619202e-01 2.771726e-01 2.933950e-01 3.090679e-01 3.255673e-01 3.414138e-01 3.577848e-01 3.737614e-01 3.897369e-01 4.061243e-01 4.216977e-01 4.391400e-01 4.545811e-01 4.739143e-01 4.895693e-01 5.113632e-01 5.272506e-01 5.511002e-01 5.664744e-01 5.902094e-01 6.033122e-01 6.225107e-01 6.306049e-01 6.392524e-01 6.390127e-01 6.323919e-01 6.213363e-01 5.997705e-01 5.787270e-01 5.468807e-01 5.195390e-01 4.837331e-01 4.539009e-01 4.187825e-01 3.893322e-01 3.573649e-01 3.301260e-01 3.022446e-01 2.782068e-01 2.545323e-01 2.341249e-01 
2.116134e-01 1.932467e-01 1.763295e-01 1.621506e-01 1.491732e-01 1.392718e-01 1.304188e-01 1.250111e-01 1.206241e-01 1.198286e-01 1.200242e-01 1.235454e-01 1.279161e-01 1.350476e-01 1.428189e-01 1.527760e-01 1.631638e-01 1.753268e-01 1.877099e-01 2.016388e-01 2.155404e-01 2.308851e-01 2.458968e-01 2.623016e-01 2.780265e-01 2.950697e-01 3.111197e-01 3.283144e-01 3.443854e-01 3.612638e-01 3.772957e-01 3.935832e-01 4.099630e-01 4.257724e-01 4.434497e-01 4.593348e-01 4.796538e-01 4.963443e-01 5.204706e-01 5.382913e-01 5.662564e-01 5.844916e-01 6.140244e-01 6.305601e-01 6.561432e-01 6.675474e-01 6.809720e-01 6.831346e-01 6.776047e-01 6.677671e-01 6.426189e-01 6.205620e-01 5.825235e-01 5.522435e-01 5.103486e-01 4.767119e-01 4.367927e-01 4.035578e-01 3.681527e-01 3.376040e-01 3.073189e-01 2.805657e-01 2.551657e-01 2.325875e-01 
2.081726e-01 1.877862e-01 1.695960e-01 1.536298e-01 1.394554e-01 1.279955e-01 1.181307e-01 1.115853e-01 1.066696e-01 1.054488e-01 1.058598e-01 1.097270e-01 1.149590e-01 1.229404e-01 1.318877e-01 1.429094e-01 1.545289e-01 1.678280e-01 1.813696e-01 1.964662e-01 2.113890e-01 2.279267e-01 2.437695e-01 2.613818e-01 2.776844e-01 2.959166e-01 3.122186e-01 3.305246e-01 3.464636e-01 3.643081e-01 3.798330e-01 3.969169e-01 4.125771e-01 4.291239e-01 4.462755e-01 4.631671e-01 4.838290e-01 5.023144e-01 5.284944e-01 5.494175e-01 5.819013e-01 6.047998e-01 6.415179e-01 6.640862e-01 6.983490e-01 7.162907e-01 7.364526e-01 7.432418e-01 7.383887e-01 7.272612e-01 6.981662e-01 6.700783e-01 6.255609e-01 5.882878e-01 5.404440e-01 5.005874e-01 4.561855e-01 4.179377e-01 3.793614e-01 3.449300e-01 3.123850e-01 2.826299e-01 2.555262e-01 2.305524e-01 
2.050852e-01 1.826428e-01 1.632898e-01 1.456659e-01 1.304693e-01 1.177110e-01 1.070711e-01 9.978254e-02 9.465239e-02 9.354531e-02 9.450100e-02 9.925530e-02 1.054875e-01 1.146688e-01 1.246510e-01 1.368756e-01 1.494020e-01 1.638405e-01 1.781770e-01 1.943810e-01 2.100455e-01 2.276964e-01 2.442609e-01 2.629955e-01 2.799746e-01 2.992854e-01 3.161206e-01 3.353450e-01 3.515181e-01 3.699672e-01 3.852902e-01 4.025697e-01 4.176359e-01 4.341022e-01 4.506891e-01 4.677254e-01 4.887243e-01 5.083722e-01 5.369798e-01 5.608081e-01 5.989604e-01 6.267142e-01 6.728252e-01 7.015909e-01 7.475927e-01 7.715849e-01 8.013183e-01 8.120021e-01 8.103277e-01 8.020137e-01 7.658472e-01 7.357419e-01 6.793048e-01 6.361472e-01 5.782099e-01 5.315112e-01 4.802859e-01 4.359816e-01 3.931332e-01 3.539531e-01 3.187107e-01 2.854063e-01 2.564750e-01 2.288462e-01 
2.023031e-01 1.777540e-01 1.569322e-01 1.373713e-01 1.206397e-01 1.059815e-01 9.381072e-02 8.494341e-02 7.890446e-02 7.735222e-02 7.879753e-02 8.443318e-02 9.215607e-02 1.027214e-01 1.143810e-01 1.279658e-01 1.420414e-01 1.577361e-01 1.734550e-01 1.908667e-01 2.077508e-01 2.266183e-01 2.442076e-01 2.641892e-01 2.819089e-01 3.024660e-01 3.196109e-01 3.399850e-01 3.558611e-01 3.752127e-01 3.895087e-01 4.073159e-01 4.207184e-01 4.374241e-01 4.522402e-01 4.697675e-01 4.899740e-01 5.114082e-01 5.417545e-01 5.698303e-01 6.139642e-01 6.491013e-01 7.067523e-01 7.460068e-01 8.083787e-01 8.454026e-01 8.894593e-01 9.120031e-01 9.102846e-01 8.990056e-01 8.557837e-01 8.121466e-01 7.437918e-01 6.874025e-01 6.202617e-01 5.632904e-01 5.060359e-01 4.543808e-01 4.076425e-01 3.633816e-01 3.255222e-01 2.886844e-01 2.578464e-01 2.276252e-01 
1.998030e-01 1.731352e-01 1.510738e-01 1.297137e-01 1.116886e-01 9.532000e-02 8.181930e-02 7.157346e-02 6.487877e-02 6.339164e-02 6.584621e-02 7.302116e-02 8.243385e-02 9.465457e-02 1.077185e-01 1.226719e-01 1.378213e-01 1.547068e-01 1.713394e-01 1.899097e-01 2.076910e-01 2.277812e-01 2.463231e-01 2.676200e-01 2.863171e-01 3.082151e-01 3.261897e-01 3.477311e-01 3.639561e-01 3.839716e-01 3.977238e-01 4.153692e-01 4.271423e-01 4.429140e-01 4.555167e-01 4.721997e-01 4.910430e-01 5.134024e-01 5.454661e-01 5.780021e-01 6.295028e-01 6.734685e-01 7.464247e-01 7.980380e-01 8.833040e-01 9.328254e-01 9.970941e-01 1.024112e+00 1.032628e+00 1.028723e+00 9.696338e-01 9.215334e-01 8.274581e-01 7.578874e-01 6.736457e-01 6.038794e-01 5.373546e-01 4.761688e-01 4.245455e-01 3.738663e-01 3.332464e-01 2.921912e-01 2.595698e-01 2.264883e-01 
1.988528e-01 1.704101e-01 1.467725e-01 1.237044e-01 1.038872e-01 8.542747e-02 6.958430e-02 5.675671e-02 4.793855e-02 4.566030e-02 4.935232e-02 5.856986e-02 7.055026e-02 8.468684e-02 9.984869e-02 1.162019e-01 1.330583e-01 1.510963e-01 1.692484e-01 1.889237e-01 2.081283e-01 2.293881e-01 2.492356e-01 2.718063e-01 2.915521e-01 3.147822e-01 3.332780e-01 3.560441e-01 3.718719e-01 3.926923e-01 4.047155e-01 4.223639e-01 4.309214e-01 4.457962e-01 4.542943e-01 4.699897e-01 4.855246e-01 5.089654e-01 5.412537e-01 5.797153e-01 6.383223e-01 6.947039e-01 7.856585e-01 8.560385e-01 9.733737e-01 1.048649e+00 1.146436e+00 1.208227e+00 1.210018e+00 1.197114e+00 1.127724e+00 1.045475e+00 9.276864e-01 8.314098e-01 7.329639e-01 6.458030e-01 5.711432e-01 4.994348e-01 4.428790e-01 3.860359e-01 3.422359e-01 2.975136e-01 2.626859e-01 2.272499e-01 
1.979673e-01 1.678865e-01 1.430632e-01 1.186005e-01 9.742784e-02 7.728382e-02 5.944741e-02 4.404911e-02 3.278188e-02 3.011510e-02 3.653039e-02 4.884790e-02 6.341364e-02 7.933431e-02 9.591090e-02 1.133913e-01 1.312003e-01 1.501944e-01 1.692102e-01 1.899052e-01 2.100988e-01 2.325746e-01 2.536542e-01 2.776955e-01 2.989028e-01 3.237935e-01 3.437347e-01 3.680558e-01 3.847052e-01 4.063390e-01 4.175832e-01 4.344374e-01 4.397508e-01 4.518555e-01 4.550521e-01 4.673278e-01 4.777608e-01 5.007140e-01 5.321334e-01 5.774309e-01 6.442611e-01 7.176394e-01 8.323209e-01 9.299498e-01 1.094386e+00 1.201425e+00 1.343397e+00 1.398084e+00 1.435737e+00 1.443472e+00 1.330613e+00 1.240768e+00 1.060890e+00 9.320904e-01 8.058584e-01 6.947877e-01 6.090061e-01 5.233571e-01 4.619125e-01 3.974200e-01 3.510183e-01 3.020737e-01 2.655604e-01 2.276596e-01 
1.998777e-01 1.689905e-01 1.427248e-01 1.175504e-01 9.493977e-02 7.367201e-02 5.363059e-02 3.524853e-02 1.819435e-02 1.144997e-02 2.377161e-02 3.993352e-02 5.742882e-02 7.467914e-02 9.296250e-02 1.112236e-01 1.304956e-01 1.502146e-01 1.707403e-01 1.922943e-01 2.141387e-01 2.377055e-01 2.605403e-01 2.859374e-01 3.088011e-01 3.352408e-01 3.562963e-01 3.820947e-01 3.985717e-01 4.210303e-01 4.298263e-01 4.459323e-01 4.457147e-01 4.547653e-01 4.497946e-01 4.575014e-01 4.596079e-01 4.809474e-01 5.087902e-01 5.626824e-01 6.361665e-01 7.328902e-01 8.724837e-01 1.005943e+00 1.232444e+00 1.378907e+00 1.602855e+00 1.777413e+00 1.766856e+00 1.734220e+00 1.616997e+00 1.438314e+00 1.216171e+00 1.033914e+00 8.875684e-01 7.481241e-01 6.503710e-01 5.514535e-01 4.828722e-01 4.123901e-01 3.616609e-01 3.099496e-01 2.706999e-01 2.314294e-01 
2.014932e-01 1.700271e-01 1.428619e-01 1.174273e-01 9.411951e-02 7.267889e-02 5.200661e-02 3.319136e-02 1.477264e-02 7.157494e-03 2.329167e-02 4.009218e-02 5.819647e-02 7.561734e-02 9.425788e-02 1.127564e-01 1.324176e-01 1.525649e-01 1.736899e-01 1.959638e-01 2.188047e-01 2.434945e-01 2.679025e-01 2.949309e-01 3.200273e-01 3.486151e-01 3.723401e-01 4.004807e-01 4.191507e-01 4.430854e-01 4.515803e-01 4.662670e-01 4.606690e-01 4.636394e-01 4.480657e-01 4.463917e-01 4.358839e-01 4.519478e-01 4.729095e-01 5.367656e-01 6.163463e-01 7.454361e-01 9.115802e-01 1.102420e+00 1.413383e+00 1.651878e+00 1.960472e+00 2.051622e+00 2.176943e+00 2.184164e+00 1.880621e+00 1.736923e+00 1.390989e+00 1.141145e+00 9.700887e-01 7.943364e-01 6.883975e-01 5.735015e-01 5.009326e-01 4.236497e-01 3.704483e-01 3.157861e-01 2.748388e-01 2.342616e-01 
2.065875e-01 1.756839e-01 1.475489e-01 1.228639e-01 9.927954e-02 7.896926e-02 5.908614e-02 4.285282e-02 2.941571e-02 2.524889e-02 3.321899e-02 4.593500e-02 6.276275e-02 7.899918e-02 9.784621e-02 1.159801e-01 1.365023e-01 1.567857e-01 1.793146e-01 2.021944e-01 2.269946e-01 2.528029e-01 2.796999e-01 3.083972e-01 3.362979e-01 3.670385e-01 3.932715e-01 4.236914e-01 4.433189e-01 4.687035e-01 4.745754e-01 4.880200e-01 4.739503e-01 4.708030e-01 4.407746e-01 4.269375e-01 3.985765e-01 4.044238e-01 4.146417e-01 4.907632e-01 5.739469e-01 7.471447e-01 9.265194e-01 1.179931e+00 1.565368e+00 1.757022e+00 2.292475e+00 2.822473e+00 2.628029e+00 2.296715e+00 2.046870e+00 1.745372e+00 1.489202e+00 1.216808e+00 1.045692e+00 8.483686e-01 7.244290e-01 6.020903e-01 5.186371e-01 4.395045e-01 3.804442e-01 3.256091e-01 2.814183e-01 2.411875e-01 
2.109308e-01 1.805669e-01 1.520346e-01 1.282249e-01 1.049633e-01 8.614009e-02 6.788668e-02 5.457143e-02 4.484337e-02 4.247648e-02 4.814018e-02 5.786551e-02 7.248385e-02 8.718859e-02 1.050877e-01 1.225775e-01 1.427785e-01 1.629842e-01 1.857258e-01 2.090473e-01 2.347692e-01 2.616377e-01 2.904917e-01 3.210794e-01 3.523417e-01 3.860572e-01 4.171860e-01 4.516299e-01 4.767894e-01 5.059274e-01 5.143875e-01 5.271192e-01 5.057889e-01 4.921556e-01 4.441211e-01 4.090693e-01 3.541289e-01 3.402211e-01 3.332092e-01 4.219216e-01 5.091893e-01 7.210184e-01 8.682520e-01 1.140250e+00 1.578943e+00 2.280313e+00 2.726276e+00 2.440366e+00 2.458576e+00 2.620790e+00 2.499244e+00 1.893601e+00 1.258047e+00 1.049698e+00 1.034526e+00 8.515834e-01 7.418369e-01 6.154574e-01 5.301989e-01 4.491194e-01 3.876654e-01 3.324084e-01 2.865506e-01 2.465265e-01 
2.186238e-01 1.898431e-01 1.610551e-01 1.388470e-01 1.162513e-01 9.935598e-02 8.282671e-02 7.174966e-02 6.375405e-02 6.126844e-02 6.495609e-02 7.171173e-02 8.417772e-02 9.673606e-02 1.139163e-01 1.303111e-01 1.508948e-01 1.708451e-01 1.949356e-01 2.188039e-01 2.469249e-01 2.752355e-01 3.076938e-01 3.407791e-01 3.768502e-01 4.142144e-01 4.507760e-01 4.897112e-01 5.191023e-01 5.521689e-01 5.598986e-01 5.726818e-01 5.404802e-01 5.196599e-01 4.513551e-01 3.933118e-01 3.051359e-01 2.529812e-01 2.229114e-01 3.257327e-01 4.224068e-01 6.498730e-01 6.799157e-01 1.022219e+00 2.066335e+00 2.738966e+00 2.671468e+00 2.191509e+00 2.275188e+00 2.715396e+00 2.312235e+00 2.302974e+00 1.136026e+00 7.852847e-01 8.595620e-01 8.317358e-01 7.232913e-01 6.275780e-01 5.336436e-01 4.606306e-01 3.939927e-01 3.420553e-01 2.935103e-01 2.554659e-01 
2.249672e-01 1.972542e-01 1.686589e-01 1.476665e-01 1.259131e-01 1.105664e-01 9.559627e-02 8.626140e-02 7.975438e-02 7.791514e-02 8.121545e-02 8.693372e-02 9.798942e-02 1.093333e-01 1.253503e-01 1.410093e-01 1.608912e-01 1.806703e-01 2.046317e-01 2.289451e-01 2.578370e-01 2.873739e-01 3.221212e-01 3.576002e-01 3.984351e-01 4.401155e-01 4.851164e-01 5.313444e-01 5.733596e-01 6.164602e-01 6.365426e-01 6.544760e-01 6.154802e-01 5.819721e-01 4.920025e-01 3.992925e-01 2.749196e-01 1.622784e-01 8.580500e-02 2.140171e-01 3.625132e-01 5.072464e-01 4.732354e-01 1.054248e+00 2.481816e+00 2.324915e+00 2.393205e+00 2.545769e+00 2.710710e+00 2.801462e+00 2.344704e+00 2.244874e+00 1.155856e+00 4.967941e-01 6.627663e-01 7.481125e-01 6.942388e-01 6.219658e-01 5.337461e-01 4.657198e-01 3.984302e-01 3.483822e-01 2.990146e-01 2.621615e-01 
2.341414e-01 2.081641e-01 1.800744e-01 1.606428e-01 1.398921e-01 1.259793e-01 1.122400e-01 1.038133e-01 9.787842e-02 9.555856e-02 9.801112e-02 1.019508e-01 1.117010e-01 1.211732e-01 1.365003e-01 1.509103e-01 1.710455e-01 1.904598e-01 2.158028e-01 2.408392e-01 2.726141e-01 3.042831e-01 3.440461e-01 3.836029e-01 4.323284e-01 4.807631e-01 5.367136e-01 5.927823e-01 6.467753e-01 7.010773e-01 7.278024e-01 7.514538e-01 7.025831e-01 6.715945e-01 5.687071e-01 4.597631e-01 3.162134e-01 1.621249e-01 8.178599e-02 1.862794e-01 3.687913e-01 3.561439e-01 2.912384e-01 1.016679e+00 2.659107e+00 2.483385e+00 2.620652e+00 2.294358e+00 2.246408e+00 2.501375e+00 2.697702e+00 2.726499e+00 1.255523e+00 3.376524e-01 4.638859e-01 6.405042e-01 6.464982e-01 6.072605e-01 5.282020e-01 4.691380e-01 4.020843e-01 3.557514e-01 3.059537e-01 2.713544e-01 
2.410542e-01 2.160270e-01 1.886539e-01 1.701840e-01 1.503897e-01 1.375241e-01 1.249041e-01 1.174436e-01 1.123739e-01 1.105364e-01 1.130971e-01 1.168802e-01 1.260834e-01 1.351416e-01 1.497008e-01 1.638808e-01 1.833174e-01 2.029647e-01 2.279601e-01 2.539055e-01 2.862003e-01 3.197335e-01 3.618477e-01 4.047537e-01 4.594211e-01 5.139472e-01 5.825505e-01 6.505446e-01 7.288264e-01 8.065481e-01 8.725148e-01 9.220165e-01 8.724001e-01 8.335580e-01 7.148391e-01 5.670294e-01 4.427597e-01 3.125683e-01 2.754353e-01 3.341904e-01 4.347992e-01 3.914965e-01 1.919150e-01 1.078958e+00 2.673530e+00 2.616830e+00 2.492382e+00 2.284828e+00 2.566471e+00 2.527370e+00 2.251206e+00 2.638876e+00 1.486669e+00 3.882538e-01 2.460309e-01 5.450195e-01 5.867809e-01 5.875865e-01 5.185586e-01 4.688713e-01 4.038105e-01 3.601471e-01 3.110380e-01 2.776940e-01 
2.503260e-01 2.266664e-01 2.003786e-01 1.830742e-01 1.643452e-01 1.523421e-01 1.405833e-01 1.333863e-01 1.285955e-01 1.261102e-01 1.282309e-01 1.305490e-01 1.390334e-01 1.463659e-01 1.605151e-01 1.733346e-01 1.930516e-01 2.122189e-01 2.385448e-01 2.653702e-01 3.007159e-01 3.371255e-01 3.853167e-01 4.342493e-01 5.002333e-01 5.660103e-01 6.535756e-01 7.405572e-01 8.433164e-01 9.471293e-01 1.032497e+00 1.098859e+00 1.057215e+00 1.054184e+00 9.472239e-01 7.999200e-01 6.545767e-01 5.240297e-01 4.739547e-01 5.269475e-01 5.427706e-01 5.468798e-01 3.883158e-01 1.144593e+00 2.218675e+00 2.471522e+00 2.570570e+00 2.365095e+00 2.495446e+00 2.736214e+00 2.435417e+00 2.315670e+00 1.469396e+00 5.345408e-01 8.021327e-02 4.306300e-01 5.322328e-01 5.565944e-01 5.075232e-01 4.650726e-01 4.054821e-01 3.645094e-01 3.174011e-01 2.857450e-01 
2.562005e-01 2.331140e-01 2.078841e-01 1.911577e-01 1.733584e-01 1.619744e-01 1.510573e-01 1.444597e-01 1.403300e-01 1.383150e-01 1.407870e-01 1.434055e-01 1.518950e-01 1.594756e-01 1.733281e-01 1.865838e-01 2.057889e-01 2.258844e-01 2.517223e-01 2.803384e-01 3.157721e-01 3.553040e-01 4.052008e-01 4.590680e-01 5.302958e-01 6.028802e-01 7.022099e-01 7.967270e-01 9.209701e-01 1.047682e+00 1.215553e+00 1.366558e+00 1.363627e+00 1.387184e+00 1.238058e+00 9.697411e-01 9.116005e-01 7.716205e-01 6.902093e-01 7.266077e-01 6.880093e-01 6.920797e-01 5.772589e-01 1.086796e+00 1.972929e+00 2.401708e+00 2.649034e+00 2.491015e+00 2.167019e+00 2.507958e+00 2.670068e+00 2.237431e+00 1.386158e+00 6.399860e-01 5.752568e-02 3.343575e-01 4.795189e-01 5.241981e-01 4.937780e-01 4.583332e-01 4.048038e-01 3.657517e-01 3.210835e-01 2.902102e-01 
2.642706e-01 2.422106e-01 2.183050e-01 2.024305e-01 1.856203e-01 1.747672e-01 1.644813e-01 1.578575e-01 1.539033e-01 1.510982e-01 1.533380e-01 1.544079e-01 1.625421e-01 1.681351e-01 1.818432e-01 1.932528e-01 2.127485e-01 2.318484e-01 2.586764e-01 2.878442e-01 3.256083e-01 3.679203e-01 4.228866e-01 4.827985e-01 5.644988e-01 6.473479e-01 7.638497e-01 8.664692e-01 9.951658e-01 1.128831e+00 1.232627e+00 1.455536e+00 1.537952e+00 1.711617e+00 1.526746e+00 1.236478e+00 1.048660e+00 9.366877e-01 8.589095e-01 8.895703e-01 8.107824e-01 7.876395e-01 6.773157e-01 1.032721e+00 1.733256e+00 2.179576e+00 2.300316e+00 2.239562e+00 2.579229e+00 2.863966e+00 2.456131e+00 2.015426e+00 1.360983e+00 6.943528e-01 1.671308e-01 2.666931e-01 4.345225e-01 4.918606e-01 4.798016e-01 4.503761e-01 4.043062e-01 3.673948e-01 3.260237e-01 2.963891e-01 
2.677638e-01 2.459998e-01 2.232305e-01 2.076322e-01 1.916451e-01 1.811103e-01 1.714767e-01 1.652341e-01 1.618400e-01 1.594874e-01 1.622191e-01 1.638302e-01 1.723324e-01 1.786101e-01 1.924164e-01 2.047885e-01 2.239747e-01 2.446009e-01 2.707865e-01 3.025745e-01 3.396790e-01 3.864873e-01 4.409330e-01 5.073139e-01 5.868809e-01 6.706121e-01 7.687998e-01 8.136650e-01 8.454895e-01 9.374927e-01 1.569254e+00 1.737729e+00 1.537351e+00 1.729095e+00 1.512141e+00 1.544522e+00 1.234438e+00 9.808494e-01 8.782280e-01 9.882280e-01 8.923700e-01 8.510679e-01 7.254430e-01 9.403458e-01 1.481021e+00 1.927334e+00 2.238675e+00 2.357995e+00 2.544663e+00 2.750870e+00 2.445951e+00 1.939378e+00 1.327250e+00 7.334659e-01 2.556497e-01 2.366245e-01 3.996426e-01 4.626156e-01 4.644968e-01 4.402041e-01 4.008116e-01 3.655272e-01 3.272484e-01 2.981455e-01 
2.737387e-01 2.529154e-01 2.313614e-01 2.165337e-01 2.013212e-01 1.912516e-01 1.820171e-01 1.756962e-01 1.723637e-01 1.691246e-01 1.717207e-01 1.714724e-01 1.798970e-01 1.834610e-01 1.974299e-01 2.068139e-01 2.263431e-01 2.447220e-01 2.713279e-01 3.025149e-01 3.402142e-01 3.878470e-01 4.424633e-01 5.085195e-01 5.830869e-01 6.513452e-01 7.107409e-01 6.458462e-01 6.072719e-01 1.402032e+00 1.936522e+00 1.508241e+00 1.333774e+00 1.612127e+00 1.412007e+00 1.482343e+00 1.672057e+00 8.232823e-01 7.959734e-01 9.452367e-01 9.160519e-01 8.588534e-01 7.497954e-01 8.931996e-01 1.324311e+00 1.755853e+00 2.133297e+00 2.388626e+00 2.574075e+00 2.576032e+00 2.270711e+00 1.864803e+00 1.307119e+00 7.731467e-01 3.359247e-01 2.427865e-01 3.753456e-01 4.382061e-01 4.505802e-01 4.310268e-01 3.981844e-01 3.650797e-01 3.301216e-01 3.022173e-01 
2.740370e-01 2.533845e-01 2.328228e-01 2.180521e-01 2.034862e-01 1.934827e-01 1.847253e-01 1.785682e-01 1.757026e-01 1.728099e-01 1.759770e-01 1.763299e-01 1.853911e-01 1.898388e-01 2.042291e-01 2.147693e-01 2.341394e-01 2.540685e-01 2.798736e-01 3.134733e-01 3.495484e-01 4.011701e-01 4.510319e-01 5.219091e-01 5.757594e-01 6.359541e-01 5.932218e-01 4.232538e-01 4.388633e-01 1.550989e+00 1.640087e+00 1.471970e+00 1.513593e+00 1.830791e+00 1.482246e+00 1.473672e+00 1.954915e+00 7.088545e-01 5.263672e-01 7.470508e-01 8.608803e-01 8.129119e-01 7.387497e-01 8.480701e-01 1.229723e+00 1.660139e+00 2.053062e+00 2.311823e+00 2.431900e+00 2.426069e+00 2.171107e+00 1.784233e+00 1.275979e+00 7.876804e-01 3.902369e-01 2.638989e-01 3.590441e-01 4.170858e-01 4.352496e-01 4.194108e-01 3.917484e-01 3.603926e-01 3.282453e-01 3.009116e-01 