# vtk DataFile Version 2.0
Comment goes here
ASCII

DATASET STRUCTURED_POINTS
DIMENSIONS    64   64   1

ORIGIN    0.000   0.000   0.000
SPACING   0.0156250.015625   1.000

POINT_DATA   4096
SCALARS uX double
LOOKUP_TABLE default

-6.192501e-02 -5.203602e-02 -4.247859e-02 -3.239140e-02 -2.281395e-02 -1.302961e-02 -3.836081e-03 4.993797e-03 1.332719e-02 2.050804e-02 2.766122e-02 3.283096e-02 3.905279e-02 4.264426e-02 4.905853e-02 5.232753e-02 6.030112e-02 6.404508e-02 7.277324e-02 7.725232e-02 8.496002e-02 9.058131e-02 9.713349e-02 1.036280e-01 1.090346e-01 1.150306e-01 1.179644e-01 1.210788e-01 1.194615e-01 1.177201e-01 1.105468e-01 1.038003e-01 9.206014e-02 8.191589e-02 6.788832e-02 5.653272e-02 4.250191e-02 3.157313e-02 1.888021e-02 8.846155e-03 -2.493385e-03 -1.231995e-02 -2.324256e-02 -3.389897e-02 -4.521488e-02 -5.694737e-02 -6.840796e-02 -8.021999e-02 -9.057628e-02 -1.007890e-01 -1.085790e-01 -1.157012e-01 -1.199490e-01 -1.231982e-01 -1.236747e-01 -1.230585e-01 -1.201763e-01 -1.162663e-01 -1.107731e-01 -1.043645e-01 -9.704157e-02 -8.889726e-02 -8.039261e-02 -7.113345e-02 
-5.506517e-02 -4.635085e-02 -3.776938e-02 -2.886064e-02 -2.024115e-02 -1.157977e-02 -3.277096e-03 4.619639e-03 1.224027e-02 1.886075e-02 2.560444e-02 3.067272e-02 3.678182e-02 4.050097e-02 4.672733e-02 4.978414e-02 5.678517e-02 5.986191e-02 6.694864e-02 7.056100e-02 7.670359e-02 8.131305e-02 8.645422e-02 9.172941e-02 9.574071e-02 1.004550e-01 1.022963e-01 1.046168e-01 1.028165e-01 1.012976e-01 9.516360e-02 8.966178e-02 7.989187e-02 7.152248e-02 5.975082e-02 5.009407e-02 3.800413e-02 2.829803e-02 1.693553e-02 7.622515e-03 -2.870352e-03 -1.212014e-02 -2.223375e-02 -3.197357e-02 -4.211760e-02 -5.238340e-02 -6.228457e-02 -7.230048e-02 -8.103297e-02 -8.956874e-02 -9.606822e-02 -1.020211e-01 -1.055662e-01 -1.083325e-01 -1.087388e-01 -1.082889e-01 -1.058478e-01 -1.025845e-01 -9.785699e-02 -9.238540e-02 -8.598807e-02 -7.892687e-02 -7.140169e-02 -6.328949e-02 
-4.893853e-02 -4.132696e-02 -3.377560e-02 -2.602448e-02 -1.842256e-02 -1.093693e-02 -3.578888e-03 3.211816e-03 1.006059e-02 1.578954e-02 2.201613e-02 2.656195e-02 3.235733e-02 3.599081e-02 4.184065e-02 4.511861e-02 5.140287e-02 5.473472e-02 6.107263e-02 6.463797e-02 7.029886e-02 7.419162e-02 7.884394e-02 8.281145e-02 8.613906e-02 8.936111e-02 9.058419e-02 9.182273e-02 8.996617e-02 8.823391e-02 8.287191e-02 7.805713e-02 6.971456e-02 6.258654e-02 5.246388e-02 4.415817e-02 3.353093e-02 2.497909e-02 1.469890e-02 6.295338e-03 -3.406775e-03 -1.178688e-02 -2.111515e-02 -2.974205e-02 -3.886348e-02 -4.766643e-02 -5.631566e-02 -6.468818e-02 -7.217697e-02 -7.920722e-02 -8.475683e-02 -8.962180e-02 -9.269351e-02 -9.492752e-02 -9.536946e-02 -9.493011e-02 -9.294684e-02 -9.012593e-02 -8.614188e-02 -8.140732e-02 -7.591495e-02 -6.977224e-02 -6.322985e-02 -5.614596e-02 
-4.252652e-02 -3.589154e-02 -2.918825e-02 -2.241582e-02 -1.564746e-02 -9.084049e-03 -2.502359e-03 3.505826e-03 9.693148e-03 1.485906e-02 2.057353e-02 2.477844e-02 3.015169e-02 3.352607e-02 3.884448e-02 4.172113e-02 4.713441e-02 4.986264e-02 5.505712e-02 5.790565e-02 6.241881e-02 6.552588e-02 6.912182e-02 7.224499e-02 7.463899e-02 7.708225e-02 7.768134e-02 7.849339e-02 7.661199e-02 7.506169e-02 7.041451e-02 6.640043e-02 5.936732e-02 5.342237e-02 4.487184e-02 3.781833e-02 2.869908e-02 2.124893e-02 1.223633e-02 4.749969e-03 -3.895776e-03 -1.140157e-02 -1.971239e-02 -2.731792e-02 -3.530928e-02 -4.287693e-02 -5.029226e-02 -5.733914e-02 -6.365287e-02 -6.949777e-02 -7.413183e-02 -7.815842e-02 -8.070851e-02 -8.255582e-02 -8.290017e-02 -8.251896e-02 -8.080439e-02 -7.840425e-02 -7.495489e-02 -7.089711e-02 -6.610597e-02 -6.080173e-02 -5.505149e-02 -4.889904e-02 
-3.683283e-02 -3.111947e-02 -2.529259e-02 -1.948796e-02 -1.358559e-02 -7.988895e-03 -2.217046e-03 2.894374e-03 8.379602e-03 1.280342e-02 1.794922e-02 2.163599e-02 2.653163e-02 2.962162e-02 3.444381e-02 3.719230e-02 4.201829e-02 4.463456e-02 4.925448e-02 5.184086e-02 5.589085e-02 5.844165e-02 6.162140e-02 6.392409e-02 6.591105e-02 6.748072e-02 6.781320e-02 6.800883e-02 6.622297e-02 6.455646e-02 6.048769e-02 5.689768e-02 5.084757e-02 4.571512e-02 3.833935e-02 3.226568e-02 2.429787e-02 1.782820e-02 9.827788e-03 3.277098e-03 -4.478030e-03 -1.102481e-02 -1.846135e-02 -2.498662e-02 -3.203449e-02 -3.838171e-02 -4.480612e-02 -5.059520e-02 -5.599390e-02 -6.071597e-02 -6.465884e-02 -6.785414e-02 -7.003760e-02 -7.143203e-02 -7.175994e-02 -7.131154e-02 -6.989169e-02 -6.775898e-02 -6.484257e-02 -6.131091e-02 -5.721488e-02 -5.262184e-02 -4.766733e-02 -4.235281e-02 
-3.080613e-02 -2.590994e-02 -2.082483e-02 -1.584938e-02 -1.068831e-02 -5.884566e-03 -8.218791e-04 3.583049e-03 8.419327e-03 1.225768e-02 1.681926e-02 2.003045e-02 2.436330e-02 2.701740e-02 3.120942e-02 3.347265e-02 3.752880e-02 3.958283e-02 4.333163e-02 4.530997e-02 4.849913e-02 5.042821e-02 5.283513e-02 5.453948e-02 5.590854e-02 5.699471e-02 5.698133e-02 5.695687e-02 5.523466e-02 5.373344e-02 5.019667e-02 4.716423e-02 4.203876e-02 3.774409e-02 3.151462e-02 2.640049e-02 1.962286e-02 1.411299e-02 7.236694e-03 1.609265e-03 -5.102008e-03 -1.072077e-02 -1.714274e-02 -2.267496e-02 -2.869370e-02 -3.397722e-02 -3.938092e-02 -4.411392e-02 -4.859011e-02 -5.239150e-02 -5.561794e-02 -5.814573e-02 -5.989556e-02 -6.094275e-02 -6.114319e-02 -6.067483e-02 -5.940795e-02 -5.754321e-02 -5.500512e-02 -5.196734e-02 -4.841239e-02 -4.447471e-02 -4.016845e-02 -3.561420e-02 
-2.543615e-02 -2.131582e-02 -1.698484e-02 -1.283078e-02 -8.425227e-03 -4.443188e-03 -1.031775e-04 3.531149e-03 7.707194e-03 1.087716e-02 1.485180e-02 1.753124e-02 2.133059e-02 2.358914e-02 2.726178e-02 2.922322e-02 3.275791e-02 3.453104e-02 3.779539e-02 3.943135e-02 4.221225e-02 4.368019e-02 4.575194e-02 4.690066e-02 4.801823e-02 4.856889e-02 4.845850e-02 4.807978e-02 4.651408e-02 4.496792e-02 4.189229e-02 3.915651e-02 3.475732e-02 3.103738e-02 2.569255e-02 2.132414e-02 1.547441e-02 1.079079e-02 4.813046e-03 5.358687e-05 -5.800514e-03 -1.049991e-02 -1.607886e-02 -2.062025e-02 -2.579082e-02 -3.002831e-02 -3.460514e-02 -3.830802e-02 -4.204991e-02 -4.494094e-02 -4.760905e-02 -4.944321e-02 -5.087172e-02 -5.150312e-02 -5.164123e-02 -5.105105e-02 -4.996545e-02 -4.825142e-02 -4.609853e-02 -4.344049e-02 -4.042620e-02 -3.704681e-02 -3.339042e-02 -2.952492e-02 
-1.970668e-02 -1.628796e-02 -1.262147e-02 -9.193606e-03 -5.466917e-03 -2.196962e-03 1.474296e-03 4.443883e-03 7.978000e-03 1.054926e-02 1.390939e-02 1.604967e-02 1.924055e-02 2.098811e-02 2.402368e-02 2.546679e-02 2.831674e-02 2.955307e-02 3.211085e-02 3.320681e-02 3.531751e-02 3.626866e-02 3.776519e-02 3.845931e-02 3.915678e-02 3.937880e-02 3.907640e-02 3.857609e-02 3.711452e-02 3.571502e-02 3.306326e-02 3.074731e-02 2.704906e-02 2.396813e-02 1.950936e-02 1.591729e-02 1.103811e-02 7.197742e-03 2.202761e-03 -1.681569e-03 -6.569927e-03 -1.036448e-02 -1.499426e-02 -1.859671e-02 -2.283613e-02 -2.612131e-02 -2.981425e-02 -3.260965e-02 -3.557284e-02 -3.768196e-02 -3.974210e-02 -4.099503e-02 -4.203547e-02 -4.233379e-02 -4.232330e-02 -4.166018e-02 -4.065505e-02 -3.910924e-02 -3.723407e-02 -3.494680e-02 -3.236574e-02 -2.951311e-02 -2.640317e-02 -2.317370e-02 
-1.453796e-02 -1.179032e-02 -8.788389e-03 -6.079937e-03 -3.031666e-03 -4.889807e-04 2.517669e-03 4.791845e-03 7.696520e-03 9.638552e-03 1.241400e-02 1.401212e-02 1.665875e-02 1.795138e-02 2.047286e-02 2.152631e-02 2.389274e-02 2.476762e-02 2.689183e-02 2.761575e-02 2.936493e-02 2.991324e-02 3.113379e-02 3.141540e-02 3.194321e-02 3.180815e-02 3.148302e-02 3.076727e-02 2.947564e-02 2.807178e-02 2.580288e-02 2.371700e-02 2.059140e-02 1.794995e-02 1.419625e-02 1.120175e-02 7.094981e-03 3.960805e-03 -2.425300e-04 -3.342146e-03 -7.441079e-03 -1.038417e-02 -1.423082e-02 -1.692568e-02 -2.039580e-02 -2.274709e-02 -2.571233e-02 -2.760442e-02 -2.992972e-02 -3.123938e-02 -3.280550e-02 -3.343239e-02 -3.416516e-02 -3.405956e-02 -3.394797e-02 -3.312310e-02 -3.221984e-02 -3.074735e-02 -2.915485e-02 -2.714923e-02 -2.499900e-02 -2.259889e-02 -2.003196e-02 -1.738482e-02 
-8.996866e-03 -6.875911e-03 -4.489250e-03 -2.442335e-03 -3.465893e-05 1.843837e-03 4.205523e-03 5.837967e-03 8.107019e-03 9.443685e-03 1.159660e-02 1.262540e-02 1.465638e-02 1.540394e-02 1.730726e-02 1.782713e-02 1.957348e-02 1.992443e-02 2.144769e-02 2.166949e-02 2.287456e-02 2.296556e-02 2.374233e-02 2.364503e-02 2.387501e-02 2.348443e-02 2.305347e-02 2.225427e-02 2.108445e-02 1.980400e-02 1.789328e-02 1.614263e-02 1.358528e-02 1.146459e-02 8.436174e-03 6.103868e-03 2.818862e-03 4.447178e-04 -2.890113e-03 -5.163163e-03 -8.378155e-03 -1.044783e-02 -1.341372e-02 -1.520788e-02 -1.782036e-02 -1.927665e-02 -2.143991e-02 -2.249370e-02 -2.411799e-02 -2.470708e-02 -2.572083e-02 -2.580094e-02 -2.616701e-02 -2.572630e-02 -2.545152e-02 -2.451665e-02 -2.365057e-02 -2.228328e-02 -2.090812e-02 -1.919570e-02 -1.741239e-02 -1.545659e-02 -1.337180e-02 -1.127988e-02 
-3.896006e-03 -2.381576e-03 -6.002565e-04 7.889905e-04 2.567866e-03 3.773961e-03 5.507799e-03 6.485694e-03 8.146496e-03 8.872372e-03 1.044777e-02 1.092508e-02 1.241343e-02 1.267140e-02 1.406882e-02 1.415127e-02 1.543492e-02 1.538342e-02 1.650118e-02 1.633937e-02 1.721312e-02 1.693527e-02 1.747150e-02 1.703763e-02 1.713770e-02 1.648174e-02 1.605634e-02 1.511123e-02 1.410465e-02 1.283713e-02 1.125406e-02 9.691633e-03 7.610374e-03 5.844862e-03 3.406733e-03 1.572902e-03 -1.047580e-03 -2.806085e-03 -5.435572e-03 -6.996434e-03 -9.487092e-03 -1.076429e-02 -1.300139e-02 -1.394349e-02 -1.583987e-02 -1.641940e-02 -1.790719e-02 -1.811163e-02 -1.913999e-02 -1.896975e-02 -1.950955e-02 -1.898043e-02 -1.903014e-02 -1.817546e-02 -1.776273e-02 -1.663201e-02 -1.580946e-02 -1.446417e-02 -1.330115e-02 -1.180932e-02 -1.038263e-02 -8.814392e-03 -7.200596e-03 -5.625444e-03 
1.579853e-03 2.506011e-03 3.695294e-03 4.455557e-03 5.611195e-03 6.175905e-03 7.274809e-03 7.619995e-03 8.647663e-03 8.761869e-03 9.713188e-03 9.603395e-03 1.047933e-02 1.017228e-02 1.097143e-02 1.050829e-02 1.121650e-02 1.064213e-02 1.122650e-02 1.057655e-02 1.098740e-02 1.027670e-02 1.045351e-02 9.670431e-03 9.548031e-03 8.660511e-03 8.179437e-03 7.154101e-03 6.278133e-03 5.105718e-03 3.841456e-03 2.555953e-03 9.634208e-04 -3.554504e-04 -2.168454e-03 -3.410639e-03 -5.308437e-03 -6.358991e-03 -8.203235e-03 -8.966838e-03 -1.063734e-02 -1.105368e-02 -1.245940e-02 -1.250701e-02 -1.358765e-02 -1.327928e-02 -1.400227e-02 -1.337673e-02 -1.373394e-02 -1.284785e-02 -1.285306e-02 -1.177284e-02 -1.145847e-02 -1.025243e-02 -9.664360e-03 -8.395977e-03 -7.587098e-03 -6.310884e-03 -5.335126e-03 -4.095648e-03 -3.003745e-03 -1.837449e-03 -6.748732e-04 3.865256e-04 
6.754472e-03 7.100128e-03 7.715052e-03 7.843054e-03 8.395138e-03 8.309762e-03 8.798915e-03 8.504482e-03 8.933928e-03 8.440255e-03 8.817187e-03 8.144271e-03 8.477802e-03 7.656801e-03 7.952440e-03 7.021823e-03 7.274509e-03 6.272869e-03 6.462576e-03 5.421008e-03 5.513498e-03 4.449830e-03 4.401069e-03 3.318081e-03 3.080260e-03 1.970635e-03 1.501014e-03 3.598802e-04 -3.663195e-04 -1.524990e-03 -2.500809e-03 -3.631620e-03 -4.810298e-03 -5.834610e-03 -7.132103e-03 -7.948779e-03 -9.256563e-03 -9.761475e-03 -1.096500e-02 -1.107283e-02 -1.206982e-02 -1.173224e-02 -1.244671e-02 -1.166323e-02 -1.205348e-02 -1.087360e-02 -1.093461e-02 -9.451147e-03 -9.211804e-03 -7.546139e-03 -7.061484e-03 -5.343321e-03 -4.682676e-03 -3.029445e-03 -2.263239e-03 -7.650276e-04 4.589388e-05 1.332321e-03 2.142393e-03 3.190759e-03 3.970231e-03 4.776197e-03 5.508075e-03 6.078892e-03 
1.229566e-02 1.205769e-02 1.207911e-02 1.158239e-02 1.150908e-02 1.078403e-02 1.063474e-02 9.704207e-03 9.495695e-03 8.380500e-03 8.129238e-03 6.854016e-03 6.576132e-03 5.173027e-03 4.881934e-03 3.390686e-03 3.093538e-03 1.558169e-03 1.253460e-03 -2.829834e-04 -6.054361e-04 -2.106073e-03 -2.463659e-03 -3.900382e-03 -4.315364e-03 -5.666425e-03 -6.161222e-03 -7.403423e-03 -7.992163e-03 -9.090535e-03 -9.768586e-03 -1.066864e-02 -1.140449e-02 -1.203150e-02 -1.276508e-02 -1.303191e-02 -1.368107e-02 -1.350311e-02 -1.397706e-02 -1.329128e-02 -1.350837e-02 -1.229263e-02 -1.219839e-02 -1.048660e-02 -1.006787e-02 -7.955987e-03 -7.246785e-03 -4.885404e-03 -3.961792e-03 -1.534308e-03 -4.987158e-04 1.810066e-03 2.850496e-03 4.885478e-03 5.839482e-03 7.496142e-03 8.301518e-03 9.531535e-03 1.015838e-02 1.096162e-02 1.140735e-02 1.181602e-02 1.209609e-02 1.215738e-02 
1.769061e-02 1.686003e-02 1.631068e-02 1.517320e-02 1.449859e-02 1.311748e-02 1.235879e-02 1.078227e-02 9.973239e-03 8.240050e-03 7.409407e-03 5.555039e-03 4.728147e-03 2.789553e-03 1.988339e-03 5.905051e-06 -7.523907e-04 -2.735345e-03 -3.439351e-03 -5.378501e-03 -6.023004e-03 -7.875245e-03 -8.460903e-03 -1.018568e-02 -1.071840e-02 -1.227682e-02 -1.276576e-02 -1.411688e-02 -1.456969e-02 -1.566489e-02 -1.608043e-02 -1.685821e-02 -1.721866e-02 -1.760278e-02 -1.786848e-02 -1.777193e-02 -1.788182e-02 -1.721820e-02 -1.709819e-02 -1.580107e-02 -1.538049e-02 -1.342842e-02 -1.266196e-02 -1.010330e-02 -8.992389e-03 -5.960294e-03 -4.565588e-03 -1.272923e-03 2.891358e-04 3.579833e-03 5.158131e-03 8.182789e-03 9.623992e-03 1.216605e-02 1.334631e-02 1.526909e-02 1.611367e-02 1.736785e-02 1.785445e-02 1.846398e-02 1.861298e-02 1.864962e-02 1.850808e-02 1.806467e-02 
2.342746e-02 2.198492e-02 2.081628e-02 1.903221e-02 1.771124e-02 1.567361e-02 1.425937e-02 1.203235e-02 1.057123e-02 8.202011e-03 6.732040e-03 4.259200e-03 2.814027e-03 2.750439e-04 -1.113522e-03 -3.676995e-03 -4.978002e-03 -7.517479e-03 -8.700988e-03 -1.116083e-02 -1.219903e-02 -1.451773e-02 -1.538724e-02 -1.749938e-02 -1.818435e-02 -2.002218e-02 -2.051649e-02 -2.201053e-02 -2.231672e-02 -2.339552e-02 -2.351904e-02 -2.410829e-02 -2.404777e-02 -2.406989e-02 -2.380651e-02 -2.318233e-02 -2.267391e-02 -2.133017e-02 -2.051576e-02 -1.840245e-02 -1.722077e-02 -1.433883e-02 -1.275789e-02 -9.190631e-03 -7.238529e-03 -3.172568e-03 -9.550698e-04 3.325465e-03 5.632333e-03 9.785982e-03 1.196941e-02 1.566194e-02 1.751947e-02 2.048817e-02 2.187000e-02 2.396363e-02 2.479506e-02 2.597939e-02 2.625959e-02 2.659472e-02 2.637855e-02 2.598260e-02 2.535610e-02 2.436931e-02 
2.918913e-02 2.710212e-02 2.533840e-02 2.287220e-02 2.092972e-02 1.820467e-02 1.616443e-02 1.326714e-02 1.119092e-02 8.182721e-03 6.119149e-03 3.046340e-03 1.037066e-03 -2.059577e-03 -3.974921e-03 -7.052569e-03 -8.833216e-03 -1.184187e-02 -1.344473e-02 -1.632460e-02 -1.770530e-02 -2.038670e-02 -2.150318e-02 -2.390866e-02 -2.472699e-02 -2.677516e-02 -2.727568e-02 -2.888543e-02 -2.906607e-02 -3.015927e-02 -3.003250e-02 -3.053338e-02 -3.011553e-02 -2.994630e-02 -2.924157e-02 -2.831787e-02 -2.730432e-02 -2.553823e-02 -2.416570e-02 -2.148471e-02 -1.969211e-02 -1.607690e-02 -1.382825e-02 -9.361090e-03 -6.688390e-03 -1.591218e-03 1.375687e-03 6.740028e-03 9.775907e-03 1.495570e-02 1.778082e-02 2.232869e-02 2.467398e-02 2.824190e-02 2.991049e-02 3.230765e-02 3.320774e-02 3.440616e-02 3.454855e-02 3.464787e-02 3.411901e-02 3.329373e-02 3.222054e-02 3.067018e-02 
3.524171e-02 3.248048e-02 3.004727e-02 2.688789e-02 2.426020e-02 2.084585e-02 1.812033e-02 1.454962e-02 1.179790e-02 8.136064e-03 5.413733e-03 1.705774e-03 -9.385234e-04 -4.655087e-03 -7.172102e-03 -1.085634e-02 -1.319114e-02 -1.679042e-02 -1.888048e-02 -2.232526e-02 -2.410248e-02 -2.730470e-02 -2.870186e-02 -3.155721e-02 -3.251817e-02 -3.491227e-02 -3.540348e-02 -3.722087e-02 -3.723906e-02 -3.837254e-02 -3.794307e-02 -3.829898e-02 -3.746115e-02 -3.695732e-02 -3.573949e-02 -3.429721e-02 -3.269256e-02 -3.023264e-02 -2.819157e-02 -2.464935e-02 -2.210131e-02 -1.746948e-02 -1.437406e-02 -8.764512e-03 -5.173367e-03 1.130807e-03 5.032679e-03 1.157377e-02 1.547674e-02 2.169083e-02 2.522440e-02 3.056369e-02 3.338771e-02 3.744186e-02 3.932563e-02 4.189106e-02 4.274876e-02 4.382791e-02 4.370608e-02 4.345542e-02 4.249096e-02 4.115046e-02 3.952218e-02 3.735236e-02 
4.150690e-02 3.800608e-02 3.492406e-02 3.100878e-02 2.771746e-02 2.356186e-02 2.017833e-02 1.589890e-02 1.250689e-02 8.177385e-03 4.839237e-03 5.071896e-04 -2.724109e-03 -7.021665e-03 -1.009192e-02 -1.431482e-02 -1.716090e-02 -2.125507e-02 -2.380109e-02 -2.769143e-02 -2.985025e-02 -3.343833e-02 -3.511940e-02 -3.828706e-02 -3.941048e-02 -4.202962e-02 -4.254373e-02 -4.449029e-02 -4.438627e-02 -4.555324e-02 -4.486798e-02 -4.516961e-02 -4.396957e-02 -4.333105e-02 -4.167822e-02 -4.001487e-02 -3.792851e-02 -3.513191e-02 -3.256847e-02 -2.852232e-02 -2.539422e-02 -2.003310e-02 -1.627062e-02 -9.672710e-03 -5.308503e-03 2.216637e-03 6.981021e-03 1.486870e-02 1.965812e-02 2.717446e-02 3.151514e-02 3.793470e-02 4.138026e-02 4.616556e-02 4.841347e-02 5.131380e-02 5.225780e-02 5.330160e-02 5.301267e-02 5.242782e-02 5.109377e-02 4.920738e-02 4.706585e-02 4.422029e-02 
4.796985e-02 4.369675e-02 3.987087e-02 3.519301e-02 3.116197e-02 2.627228e-02 2.216390e-02 1.718427e-02 1.308637e-02 8.086902e-03 4.063570e-03 -9.170407e-04 -4.809727e-03 -9.744825e-03 -1.344525e-02 -1.830293e-02 -2.173404e-02 -2.646271e-02 -2.952736e-02 -3.404521e-02 -3.662859e-02 -4.081872e-02 -4.279948e-02 -4.651254e-02 -4.778289e-02 -5.084881e-02 -5.134003e-02 -5.358809e-02 -5.329288e-02 -5.457470e-02 -5.355301e-02 -5.375764e-02 -5.211438e-02 -5.116302e-02 -4.899797e-02 -4.681629e-02 -4.416563e-02 -4.065347e-02 -3.745706e-02 -3.249247e-02 -2.861930e-02 -2.212501e-02 -1.746408e-02 -9.528750e-03 -4.113856e-03 4.886324e-03 1.078226e-02 2.014777e-02 2.601742e-02 3.483996e-02 4.006348e-02 4.746052e-02 5.148086e-02 5.682507e-02 5.929546e-02 6.233136e-02 6.316770e-02 6.398615e-02 6.332458e-02 6.224880e-02 6.035674e-02 5.781154e-02 5.499980e-02 5.140920e-02 
5.484858e-02 4.969314e-02 4.513346e-02 3.959493e-02 3.483771e-02 2.913505e-02 2.432451e-02 1.858917e-02 1.381908e-02 8.120716e-03 3.454999e-03 -2.173319e-03 -6.680846e-03 -1.221948e-02 -1.650779e-02 -2.193005e-02 -2.591740e-02 -3.117224e-02 -3.474849e-02 -3.974778e-02 -4.277516e-02 -4.738815e-02 -4.971351e-02 -5.377158e-02 -5.525157e-02 -5.856590e-02 -5.910224e-02 -6.149278e-02 -6.106715e-02 -6.239373e-02 -6.108361e-02 -6.126072e-02 -5.921676e-02 -5.819328e-02 -5.557360e-02 -5.327835e-02 -5.016347e-02 -4.645177e-02 -4.278594e-02 -3.743893e-02 -3.304613e-02 -2.585988e-02 -2.055175e-02 -1.151284e-02 -5.255937e-03 5.262044e-03 1.219911e-02 2.334394e-02 3.036061e-02 4.093926e-02 4.724115e-02 5.607080e-02 6.091773e-02 6.717262e-02 7.010445e-02 7.348108e-02 7.439655e-02 7.505913e-02 7.415012e-02 7.255479e-02 7.017733e-02 6.688789e-02 6.344213e-02 5.899759e-02 
6.176699e-02 5.570428e-02 5.030442e-02 4.391506e-02 3.835297e-02 3.186601e-02 2.628697e-02 1.982831e-02 1.432018e-02 7.944379e-03 2.563962e-03 -3.715948e-03 -8.918672e-03 -1.510421e-02 -2.006512e-02 -2.614788e-02 -3.077246e-02 -3.671237e-02 -4.086640e-02 -4.657430e-02 -5.008507e-02 -5.541256e-02 -5.808456e-02 -6.282554e-02 -6.447374e-02 -6.838242e-02 -6.888070e-02 -7.170801e-02 -7.103924e-02 -7.258053e-02 -7.086165e-02 -7.099374e-02 -6.844553e-02 -6.712062e-02 -6.397265e-02 -6.115104e-02 -5.751540e-02 -5.307186e-02 -4.885241e-02 -4.254131e-02 -3.745563e-02 -2.900876e-02 -2.275003e-02 -1.211171e-02 -4.600947e-03 7.795027e-03 1.619242e-02 2.929060e-02 3.774690e-02 5.006094e-02 5.753067e-02 6.761434e-02 7.317578e-02 8.006777e-02 8.320649e-02 8.662416e-02 8.730098e-02 8.753711e-02 8.606709e-02 8.374236e-02 8.061125e-02 7.643775e-02 7.215025e-02 6.677612e-02 
6.931189e-02 6.217394e-02 5.592351e-02 4.854267e-02 4.217538e-02 3.479411e-02 2.846284e-02 2.120193e-02 1.498986e-02 7.889568e-03 1.842469e-03 -5.101733e-03 -1.094654e-02 -1.775292e-02 -2.334104e-02 -3.001370e-02 -3.525249e-02 -4.175612e-02 -4.650030e-02 -5.273935e-02 -5.678828e-02 -6.259489e-02 -6.570765e-02 -7.084517e-02 -7.277966e-02 -7.696954e-02 -7.754607e-02 -8.052119e-02 -7.969621e-02 -8.126827e-02 -7.918260e-02 -7.928633e-02 -7.624056e-02 -7.490294e-02 -7.123643e-02 -6.845307e-02 -6.436643e-02 -5.995707e-02 -5.536647e-02 -4.892057e-02 -4.345346e-02 -3.445331e-02 -2.763502e-02 -1.577980e-02 -7.362660e-03 7.000985e-03 1.671135e-02 3.230634e-02 4.234451e-02 5.716903e-02 6.617052e-02 7.823829e-02 8.494346e-02 9.297468e-02 9.668822e-02 1.003800e-01 1.010725e-01 1.008999e-01 9.901329e-02 9.584487e-02 9.202311e-02 8.679206e-02 8.167680e-02 7.518911e-02 
7.664345e-02 6.842909e-02 6.122692e-02 5.289690e-02 4.565856e-02 3.744838e-02 3.031087e-02 2.231860e-02 1.534348e-02 7.578344e-03 7.908492e-04 -6.786804e-03 -1.336374e-02 -2.080808e-02 -2.712410e-02 -3.447198e-02 -4.042433e-02 -4.766467e-02 -5.308084e-02 -6.012726e-02 -6.476082e-02 -7.143193e-02 -7.497990e-02 -8.099487e-02 -8.314659e-02 -8.814751e-02 -8.866942e-02 -9.228115e-02 -9.112138e-02 -9.304576e-02 -9.040866e-02 -9.051624e-02 -8.683350e-02 -8.517451e-02 -8.093199e-02 -7.759485e-02 -7.307146e-02 -6.794054e-02 -6.298254e-02 -5.559055e-02 -4.960237e-02 -3.925540e-02 -3.148148e-02 -1.770378e-02 -7.734042e-03 9.114088e-03 2.084055e-02 3.915773e-02 5.124646e-02 6.849966e-02 7.913513e-02 9.287056e-02 1.004828e-01 1.092101e-01 1.130513e-01 1.165622e-01 1.167607e-01 1.157966e-01 1.130304e-01 1.087460e-01 1.038704e-01 9.742095e-02 9.122285e-02 8.355316e-02 
8.479885e-02 7.527072e-02 6.707335e-02 5.760753e-02 4.947737e-02 4.029659e-02 3.236146e-02 2.353469e-02 1.583492e-02 7.337257e-03 -1.285577e-04 -8.370306e-03 -1.560682e-02 -2.367677e-02 -3.065744e-02 -3.861577e-02 -4.525131e-02 -5.309926e-02 -5.921200e-02 -6.685867e-02 -7.216989e-02 -7.940689e-02 -8.354874e-02 -9.004457e-02 -9.261265e-02 -9.794578e-02 -9.860537e-02 -1.023542e-01 -1.009885e-01 -1.028722e-01 -9.970998e-02 -9.971389e-02 -9.532690e-02 -9.367927e-02 -8.876574e-02 -8.567349e-02 -8.070006e-02 -7.600158e-02 -7.086117e-02 -6.383062e-02 -5.776804e-02 -4.724995e-02 -3.917413e-02 -2.415147e-02 -1.327172e-02 6.216714e-03 1.966567e-02 4.171296e-02 5.613668e-02 7.719553e-02 9.015133e-02 1.067428e-01 1.159934e-01 1.261113e-01 1.306286e-01 1.341668e-01 1.341897e-01 1.323171e-01 1.288066e-01 1.231335e-01 1.172251e-01 1.092467e-01 1.019303e-01 9.279295e-02 
9.235720e-02 8.156187e-02 7.230138e-02 6.179497e-02 5.274351e-02 4.271196e-02 3.395446e-02 2.441941e-02 1.595206e-02 6.837311e-03 -1.380225e-03 -1.020135e-02 -1.820293e-02 -2.686915e-02 -3.464320e-02 -4.326721e-02 -5.072005e-02 -5.934719e-02 -6.627203e-02 -7.483843e-02 -8.089769e-02 -8.919340e-02 -9.392767e-02 -1.015749e-01 -1.044630e-01 -1.109320e-01 -1.115283e-01 -1.162237e-01 -1.143674e-01 -1.168056e-01 -1.128176e-01 -1.128514e-01 -1.075477e-01 -1.054664e-01 -9.985037e-02 -9.611264e-02 -9.085616e-02 -8.550314e-02 -8.040504e-02 -7.262155e-02 -6.649271e-02 -5.471402e-02 -4.584390e-02 -2.855916e-02 -1.569850e-02 7.206445e-03 2.365550e-02 4.972487e-02 6.726227e-02 9.191238e-02 1.072773e-01 1.261649e-01 1.365634e-01 1.473458e-01 1.517494e-01 1.546206e-01 1.536564e-01 1.503419e-01 1.454217e-01 1.380239e-01 1.306167e-01 1.209466e-01 1.122273e-01 1.015863e-01 
1.008801e-01 8.850827e-02 7.809365e-02 6.631983e-02 5.629904e-02 4.524968e-02 3.567036e-02 2.530267e-02 1.611660e-02 6.294864e-03 -2.585030e-03 -1.204008e-02 -2.069491e-02 -2.996816e-02 -3.843079e-02 -4.767343e-02 -5.588358e-02 -6.516665e-02 -7.292673e-02 -8.218934e-02 -8.913051e-02 -9.812945e-02 -1.037042e-01 -1.119802e-01 -1.155156e-01 -1.224146e-01 -1.232727e-01 -1.280780e-01 -1.259410e-01 -1.281533e-01 -1.233417e-01 -1.230193e-01 -1.165918e-01 -1.144276e-01 -1.077999e-01 -1.045597e-01 -9.880698e-02 -9.454328e-02 -8.961128e-02 -8.314586e-02 -7.758689e-02 -6.655671e-02 -5.802674e-02 -3.978470e-02 -2.621813e-02 3.095811e-04 1.909054e-02 5.113915e-02 7.239001e-02 1.031685e-01 1.223010e-01 1.454378e-01 1.582405e-01 1.705686e-01 1.756346e-01 1.778631e-01 1.762474e-01 1.710703e-01 1.647981e-01 1.551263e-01 1.461410e-01 1.342689e-01 1.240213e-01 1.114653e-01 
1.082570e-01 9.443704e-02 8.287798e-02 7.000904e-02 5.905954e-02 4.718496e-02 3.681122e-02 2.580965e-02 1.589035e-02 5.552814e-03 -4.060985e-03 -1.398665e-02 -2.342461e-02 -3.319989e-02 -4.252590e-02 -5.238057e-02 -6.154100e-02 -7.161872e-02 -8.039008e-02 -9.068635e-02 -9.863081e-02 -1.089290e-01 -1.153703e-01 -1.251801e-01 -1.292489e-01 -1.377825e-01 -1.386122e-01 -1.448769e-01 -1.420007e-01 -1.451027e-01 -1.389449e-01 -1.386183e-01 -1.306878e-01 -1.277270e-01 -1.200639e-01 -1.158850e-01 -1.100958e-01 -1.053350e-01 -1.012886e-01 -9.467126e-02 -9.012348e-02 -7.840634e-02 -6.971144e-02 -4.901067e-02 -3.287957e-02 -1.448614e-03 2.221833e-02 6.062466e-02 8.687340e-02 1.232753e-01 1.461423e-01 1.725520e-01 1.867297e-01 1.994004e-01 2.037138e-01 2.042363e-01 2.006866e-01 1.929262e-01 1.843810e-01 1.720604e-01 1.609470e-01 1.467548e-01 1.347130e-01 1.202832e-01 
1.166070e-01 1.009770e-01 8.812179e-02 7.391333e-02 6.195411e-02 4.907898e-02 3.790352e-02 2.613069e-02 1.554524e-02 4.578843e-03 -5.634130e-03 -1.611744e-02 -2.615790e-02 -3.648308e-02 -4.648812e-02 -5.694386e-02 -6.692642e-02 -7.770518e-02 -8.748158e-02 -9.860300e-02 -1.077215e-01 -1.189414e-01 -1.266214e-01 -1.373322e-01 -1.424711e-01 -1.516540e-01 -1.530259e-01 -1.593905e-01 -1.561581e-01 -1.586457e-01 -1.511220e-01 -1.497847e-01 -1.398971e-01 -1.364521e-01 -1.270321e-01 -1.235923e-01 -1.171124e-01 -1.144634e-01 -1.111885e-01 -1.076440e-01 -1.049456e-01 -9.602300e-02 -8.913540e-02 -6.870418e-02 -5.266272e-02 -1.629877e-02 1.055344e-02 5.940286e-02 9.206509e-02 1.389532e-01 1.684191e-01 2.013100e-01 2.190070e-01 2.328790e-01 2.374044e-01 2.356533e-01 2.303625e-01 2.189783e-01 2.079988e-01 1.920343e-01 1.785218e-01 1.612380e-01 1.471352e-01 1.302912e-01 
1.230802e-01 1.058941e-01 9.189393e-02 7.661898e-02 6.380485e-02 5.020858e-02 3.833950e-02 2.608044e-02 1.485769e-02 3.549608e-03 -7.331150e-03 -1.809980e-02 -2.891058e-02 -3.956489e-02 -5.049678e-02 -6.143805e-02 -7.252984e-02 -8.406206e-02 -9.511802e-02 -1.073603e-01 -1.178664e-01 -1.306574e-01 -1.396751e-01 -1.524356e-01 -1.585504e-01 -1.701434e-01 -1.716691e-01 -1.804001e-01 -1.760727e-01 -1.801091e-01 -1.702628e-01 -1.687873e-01 -1.561809e-01 -1.509290e-01 -1.396076e-01 -1.343568e-01 -1.281612e-01 -1.252747e-01 -1.245207e-01 -1.223053e-01 -1.229981e-01 -1.151804e-01 -1.099975e-01 -8.754254e-02 -6.830922e-02 -2.453178e-02 1.128319e-02 7.100981e-02 1.119346e-01 1.681050e-01 2.036890e-01 2.414415e-01 2.604572e-01 2.734897e-01 2.756561e-01 2.699971e-01 2.609819e-01 2.450618e-01 2.304658e-01 2.105344e-01 1.940782e-01 1.737285e-01 1.574216e-01 1.383547e-01 
1.302910e-01 1.111948e-01 9.583138e-02 7.927664e-02 6.549041e-02 5.102049e-02 3.844178e-02 2.555945e-02 1.379123e-02 2.003103e-03 -9.343844e-03 -2.053081e-02 -3.182040e-02 -4.290870e-02 -5.444332e-02 -6.591885e-02 -7.785713e-02 -9.011053e-02 -1.023545e-01 -1.155775e-01 -1.276539e-01 -1.417017e-01 -1.525890e-01 -1.667536e-01 -1.747198e-01 -1.874790e-01 -1.901954e-01 -1.991813e-01 -1.945274e-01 -1.972437e-01 -1.850619e-01 -1.810007e-01 -1.648062e-01 -1.579741e-01 -1.432855e-01 -1.388722e-01 -1.313943e-01 -1.320662e-01 -1.330661e-01 -1.369216e-01 -1.418546e-01 -1.410916e-01 -1.408623e-01 -1.224893e-01 -1.057229e-01 -5.591138e-02 -1.602683e-02 6.409639e-02 1.171414e-01 1.922066e-01 2.403198e-01 2.880839e-01 3.118677e-01 3.239965e-01 3.245649e-01 3.128948e-01 2.997948e-01 2.771592e-01 2.583189e-01 2.327979e-01 2.128168e-01 1.883588e-01 1.693923e-01 1.474850e-01 
1.347482e-01 1.141662e-01 9.781168e-02 8.036331e-02 6.592402e-02 5.094717e-02 3.787955e-02 2.474816e-02 1.252414e-02 6.554970e-04 -1.122242e-02 -2.241027e-02 -3.440422e-02 -4.553623e-02 -5.803512e-02 -6.975707e-02 -8.297441e-02 -9.583876e-02 -1.096918e-01 -1.240387e-01 -1.380451e-01 -1.539071e-01 -1.669170e-01 -1.837666e-01 -1.936123e-01 -2.099592e-01 -2.134323e-01 -2.264564e-01 -2.203101e-01 -2.260866e-01 -2.097437e-01 -2.053844e-01 -1.840258e-01 -1.727301e-01 -1.539201e-01 -1.452730e-01 -1.383537e-01 -1.390785e-01 -1.455827e-01 -1.540408e-01 -1.672707e-01 -1.722382e-01 -1.787650e-01 -1.608446e-01 -1.411658e-01 -7.928209e-02 -2.004919e-02 8.041409e-02 1.463931e-01 2.371905e-01 2.961892e-01 3.517395e-01 3.754803e-01 3.830357e-01 3.773242e-01 3.571394e-01 3.370782e-01 3.067678e-01 2.824173e-01 2.512822e-01 2.274801e-01 1.992705e-01 1.778166e-01 1.535140e-01 
1.393317e-01 1.170401e-01 9.941956e-02 8.097553e-02 6.572921e-02 5.016055e-02 3.657181e-02 2.307025e-02 1.050352e-02 -1.617751e-03 -1.373995e-02 -2.513205e-02 -3.737159e-02 -4.873789e-02 -6.164243e-02 -7.374292e-02 -8.772984e-02 -1.012587e-01 -1.164383e-01 -1.319013e-01 -1.479553e-01 -1.655366e-01 -1.813649e-01 -2.005053e-01 -2.136224e-01 -2.323169e-01 -2.384646e-01 -2.525347e-01 -2.465319e-01 -2.499297e-01 -2.294577e-01 -2.186512e-01 -1.905779e-01 -1.752340e-01 -1.496493e-01 -1.416995e-01 -1.319854e-01 -1.379774e-01 -1.477350e-01 -1.667911e-01 -1.883328e-01 -2.084075e-01 -2.260367e-01 -2.225756e-01 -2.115779e-01 -1.461677e-01 -8.392951e-02 6.237342e-02 1.535294e-01 2.788142e-01 3.633574e-01 4.344224e-01 4.626266e-01 4.616657e-01 4.488455e-01 4.146272e-01 3.858760e-01 3.439431e-01 3.126672e-01 2.736396e-01 2.450378e-01 2.119160e-01 1.873263e-01 1.600960e-01 
1.402828e-01 1.168937e-01 9.867654e-02 7.971655e-02 6.419058e-02 4.845552e-02 3.470971e-02 2.128093e-02 8.542302e-03 -3.315599e-03 -1.574022e-02 -2.673175e-02 -3.952728e-02 -5.049317e-02 -6.434306e-02 -7.628392e-02 -9.169756e-02 -1.055376e-01 -1.226568e-01 -1.390627e-01 -1.577152e-01 -1.771718e-01 -1.963454e-01 -2.187722e-01 -2.355453e-01 -2.594315e-01 -2.680093e-01 -2.891199e-01 -2.814945e-01 -2.916638e-01 -2.633215e-01 -2.527694e-01 -2.149973e-01 -1.883171e-01 -1.530013e-01 -1.345616e-01 -1.255039e-01 -1.316689e-01 -1.519834e-01 -1.822895e-01 -2.211179e-01 -2.575404e-01 -2.943862e-01 -2.994689e-01 -2.914567e-01 -2.032906e-01 -9.069798e-02 9.516476e-02 1.992246e-01 3.494217e-01 4.558800e-01 5.420578e-01 5.642956e-01 5.476361e-01 5.197574e-01 4.680758e-01 4.272800e-01 3.734392e-01 3.345942e-01 2.885364e-01 2.556032e-01 2.185592e-01 1.916155e-01 1.622671e-01 