# vtk DataFile Version 2.0
Comment goes here
ASCII

DATASET STRUCTURED_POINTS
DIMENSIONS    64   64   1

ORIGIN    0.000   0.000   0.000
SPACING   0.0156250.015625   1.000

POINT_DATA   4096
SCALARS uX double
LOOKUP_TABLE default

-4.562642e-02 -3.777470e-02 -3.150496e-02 -2.387309e-02 -1.826742e-02 -1.122913e-02 -6.359605e-03 -4.252421e-04 3.652856e-03 7.938471e-03 1.151829e-02 1.415582e-02 1.839293e-02 2.062910e-02 2.701115e-02 3.063154e-02 3.851331e-02 4.437354e-02 5.097920e-02 5.913751e-02 6.263689e-02 7.373427e-02 7.573280e-02 9.008868e-02 9.074316e-02 1.063534e-01 1.034108e-01 1.163217e-01 1.069495e-01 1.132643e-01 9.742107e-02 9.613684e-02 7.775233e-02 7.077911e-02 5.459167e-02 4.486624e-02 3.368824e-02 2.394873e-02 1.809052e-02 9.083148e-03 6.592857e-03 -3.530289e-03 -5.735890e-03 -1.979018e-02 -2.385554e-02 -4.263779e-02 -4.800665e-02 -6.866546e-02 -7.288841e-02 -9.104006e-02 -9.237707e-02 -1.052320e-01 -1.032082e-01 -1.098372e-01 -1.048628e-01 -1.059106e-01 -9.901730e-02 -9.596242e-02 -8.822551e-02 -8.257557e-02 -7.476410e-02 -6.768773e-02 -6.023616e-02 -5.252159e-02 
-4.097425e-02 -3.400435e-02 -2.829295e-02 -2.137389e-02 -1.617979e-02 -9.648328e-03 -5.042561e-03 7.111395e-04 4.712255e-03 9.331540e-03 1.298422e-02 1.649185e-02 2.055905e-02 2.367676e-02 2.896247e-02 3.268302e-02 3.865750e-02 4.365953e-02 4.861356e-02 5.554205e-02 5.849163e-02 6.812922e-02 6.954452e-02 8.173599e-02 8.130209e-02 9.413147e-02 9.027527e-02 1.005943e-01 9.170050e-02 9.660348e-02 8.304153e-02 8.166743e-02 6.634209e-02 6.005218e-02 4.634667e-02 3.754124e-02 2.759867e-02 1.838397e-02 1.250362e-02 3.479685e-03 3.646239e-04 -9.587540e-03 -1.193124e-02 -2.446888e-02 -2.738422e-02 -4.283547e-02 -4.604747e-02 -6.251507e-02 -6.467646e-02 -7.930488e-02 -7.945054e-02 -9.018942e-02 -8.805387e-02 -9.404375e-02 -8.984998e-02 -9.135392e-02 -8.570128e-02 -8.368207e-02 -7.726033e-02 -7.283133e-02 -6.619270e-02 -6.029848e-02 -5.380066e-02 -4.713142e-02 
-3.948397e-02 -3.349212e-02 -2.807849e-02 -2.211264e-02 -1.717417e-02 -1.155971e-02 -7.122728e-03 -2.166172e-03 1.821409e-03 5.927430e-03 9.718778e-03 1.313468e-02 1.725164e-02 2.064488e-02 2.550281e-02 2.970738e-02 3.484723e-02 4.037474e-02 4.462343e-02 5.169995e-02 5.424952e-02 6.303559e-02 6.398729e-02 7.417862e-02 7.327977e-02 8.355518e-02 7.983959e-02 8.810927e-02 8.064772e-02 8.499481e-02 7.411465e-02 7.388814e-02 6.151319e-02 5.744722e-02 4.596338e-02 3.945914e-02 3.048908e-02 2.284909e-02 1.676241e-02 8.425740e-03 4.427836e-03 -5.202177e-03 -8.450073e-03 -2.025493e-02 -2.367368e-02 -3.761753e-02 -4.101814e-02 -5.557884e-02 -5.795693e-02 -7.093025e-02 -7.143744e-02 -8.117742e-02 -7.952350e-02 -8.530746e-02 -8.167943e-02 -8.364438e-02 -7.856793e-02 -7.741273e-02 -7.151318e-02 -6.811462e-02 -6.192188e-02 -5.708078e-02 -5.096163e-02 -4.530977e-02 
-3.476484e-02 -2.945396e-02 -2.456831e-02 -1.915937e-02 -1.464294e-02 -9.420061e-03 -5.309137e-03 -5.198366e-04 3.219918e-03 7.427769e-03 1.097033e-02 1.468473e-02 1.834920e-02 2.196339e-02 2.595195e-02 2.998532e-02 3.395856e-02 3.884858e-02 4.205317e-02 4.816736e-02 5.005470e-02 5.759465e-02 5.800177e-02 6.659417e-02 6.516299e-02 7.362304e-02 6.967654e-02 7.631034e-02 6.936402e-02 7.268425e-02 6.317540e-02 6.264422e-02 5.206152e-02 4.821563e-02 3.833226e-02 3.229707e-02 2.436288e-02 1.718653e-02 1.154614e-02 3.649273e-03 -1.788885e-04 -9.072968e-03 -1.194345e-02 -2.228330e-02 -2.479736e-02 -3.644293e-02 -3.854507e-02 -5.043691e-02 -5.159930e-02 -6.223508e-02 -6.199963e-02 -7.016468e-02 -6.837647e-02 -7.345135e-02 -7.022939e-02 -7.221253e-02 -6.788585e-02 -6.722549e-02 -6.220848e-02 -5.954363e-02 -5.421574e-02 -5.017722e-02 -4.482657e-02 -3.994417e-02 
-3.327121e-02 -2.877537e-02 -2.415745e-02 -1.953664e-02 -1.524392e-02 -1.075257e-02 -6.803890e-03 -2.631638e-03 1.020346e-03 4.802864e-03 8.298602e-03 1.182581e-02 1.536751e-02 1.899605e-02 2.266033e-02 2.681465e-02 3.031351e-02 3.529400e-02 3.806878e-02 4.400841e-02 4.559883e-02 5.245117e-02 5.264987e-02 6.003039e-02 5.856869e-02 6.561846e-02 6.208128e-02 6.763711e-02 6.177395e-02 6.481481e-02 5.698002e-02 5.708263e-02 4.831628e-02 4.573805e-02 3.731309e-02 3.270528e-02 2.557338e-02 1.958816e-02 1.408600e-02 7.034258e-03 2.905386e-03 -5.295548e-03 -8.594515e-03 -1.808968e-02 -2.094591e-02 -3.145936e-02 -3.380866e-02 -4.444088e-02 -4.586716e-02 -5.541378e-02 -5.551701e-02 -6.298406e-02 -6.160243e-02 -6.645984e-02 -6.368869e-02 -6.589460e-02 -6.202730e-02 -6.190679e-02 -5.732383e-02 -5.538142e-02 -5.044442e-02 -4.720910e-02 -4.220399e-02 -3.814536e-02 
-2.869211e-02 -2.471148e-02 -2.057788e-02 -1.639774e-02 -1.252550e-02 -8.366654e-03 -4.786259e-03 -8.121580e-04 2.497501e-03 6.215049e-03 9.336742e-03 1.286619e-02 1.591021e-02 1.946664e-02 2.244703e-02 2.631120e-02 2.901147e-02 3.343186e-02 3.546640e-02 4.060566e-02 4.162764e-02 4.746825e-02 4.723950e-02 5.342761e-02 5.168721e-02 5.748070e-02 5.394437e-02 5.839017e-02 5.296801e-02 5.525158e-02 4.831016e-02 4.808493e-02 4.045974e-02 3.791920e-02 3.059414e-02 2.626779e-02 1.999550e-02 1.443179e-02 9.519260e-03 3.030529e-03 -6.434775e-04 -8.011618e-03 -1.078270e-02 -1.902767e-02 -2.115572e-02 -3.000969e-02 -3.149585e-02 -4.030178e-02 -4.094308e-02 -4.884478e-02 -4.843881e-02 -5.469639e-02 -5.317063e-02 -5.735024e-02 -5.478203e-02 -5.680127e-02 -5.339108e-02 -5.345357e-02 -4.946531e-02 -4.793587e-02 -4.363263e-02 -4.092132e-02 -3.652483e-02 -3.301493e-02 
-2.724073e-02 -2.392990e-02 -2.003989e-02 -1.651143e-02 -1.284701e-02 -9.290483e-03 -5.877604e-03 -2.417717e-03 7.614254e-04 4.091091e-03 7.093231e-03 1.037673e-02 1.326042e-02 1.668694e-02 1.942642e-02 2.321430e-02 2.562249e-02 2.992763e-02 3.170060e-02 3.656466e-02 3.741448e-02 4.272519e-02 4.244324e-02 4.787384e-02 4.626904e-02 5.126002e-02 4.816139e-02 5.203108e-02 4.742061e-02 4.958386e-02 4.375430e-02 4.392779e-02 3.748800e-02 3.573975e-02 2.941401e-02 2.604516e-02 2.041428e-02 1.577091e-02 1.111272e-02 5.429461e-03 1.717313e-03 -4.903237e-03 -7.857705e-03 -1.530542e-02 -1.764853e-02 -2.561395e-02 -2.731595e-02 -3.522040e-02 -3.610401e-02 -4.323574e-02 -4.311877e-02 -4.886038e-02 -4.766758e-02 -5.164500e-02 -4.943952e-02 -5.156111e-02 -4.852311e-02 -4.893294e-02 -4.530617e-02 -4.429174e-02 -4.032577e-02 -3.822751e-02 -3.413822e-02 -3.128767e-02 
-2.290212e-02 -1.998141e-02 -1.652849e-02 -1.335738e-02 -1.009947e-02 -6.841771e-03 -3.812679e-03 -5.808581e-04 2.218094e-03 5.379703e-03 7.972567e-03 1.110285e-02 1.350979e-02 1.672263e-02 1.890356e-02 2.234466e-02 2.415449e-02 2.794546e-02 2.916163e-02 3.334953e-02 3.374898e-02 3.824636e-02 3.764441e-02 4.216991e-02 4.040694e-02 4.448727e-02 4.145564e-02 4.452994e-02 4.026913e-02 4.186422e-02 3.665372e-02 3.653997e-02 3.088349e-02 2.911610e-02 2.359326e-02 2.042576e-02 1.550880e-02 1.124506e-02 7.183279e-03 2.057282e-03 -1.125687e-03 -6.968628e-03 -9.378081e-03 -1.579130e-02 -1.752711e-02 -2.424036e-02 -2.530925e-02 -3.188463e-02 -3.221117e-02 -3.812593e-02 -3.763054e-02 -4.242080e-02 -4.108428e-02 -4.445170e-02 -4.233677e-02 -4.418712e-02 -4.142921e-02 -4.184910e-02 -3.862689e-02 -3.782300e-02 -3.432338e-02 -3.255650e-02 -2.894791e-02 -2.648332e-02 
-2.151429e-02 -1.914647e-02 -1.591615e-02 -1.329106e-02 -1.022922e-02 -7.482929e-03 -4.623191e-03 -1.841209e-03 8.096950e-04 3.604091e-03 6.055166e-03 8.906233e-03 1.115627e-02 1.416021e-02 1.615847e-02 1.942173e-02 2.104186e-02 2.463104e-02 2.569209e-02 2.959512e-02 2.991483e-02 3.401129e-02 3.344062e-02 3.748022e-02 3.590482e-02 3.951863e-02 3.687925e-02 3.964893e-02 3.600020e-02 3.756993e-02 3.313539e-02 3.331127e-02 2.847037e-02 2.725005e-02 2.244065e-02 1.996462e-02 1.555728e-02 1.202146e-02 8.234946e-03 3.817741e-03 7.112874e-04 -4.438425e-03 -6.901284e-03 -1.260936e-02 -1.446731e-02 -2.046122e-02 -2.169188e-02 -2.758044e-02 -2.810554e-02 -3.344295e-02 -3.318456e-02 -3.757714e-02 -3.651139e-02 -3.970012e-02 -3.787961e-02 -3.977154e-02 -3.731852e-02 -3.797051e-02 -3.505046e-02 -3.462355e-02 -3.141314e-02 -3.012073e-02 -2.678210e-02 -2.484814e-02 
-1.744066e-02 -1.537460e-02 -1.253589e-02 -1.021033e-02 -7.532978e-03 -5.063932e-03 -2.584373e-03 -4.987515e-05 2.215222e-03 4.782911e-03 6.827356e-03 9.444748e-03 1.125386e-02 1.397625e-02 1.550098e-02 1.839645e-02 1.953773e-02 2.265286e-02 2.327481e-02 2.659994e-02 2.656287e-02 2.999856e-02 2.918400e-02 3.251955e-02 3.084283e-02 3.377028e-02 3.120526e-02 3.338107e-02 3.000270e-02 3.113883e-02 2.715445e-02 2.709659e-02 2.282728e-02 2.157935e-02 1.738544e-02 1.507330e-02 1.126266e-02 8.065381e-03 4.831322e-03 9.229825e-04 -1.663397e-03 -6.127618e-03 -8.075335e-03 -1.292650e-02 -1.426265e-02 -1.927242e-02 -1.999897e-02 -2.486685e-02 -2.495907e-02 -2.935232e-02 -2.878825e-02 -3.241051e-02 -3.120105e-02 -3.385014e-02 -3.205270e-02 -3.364666e-02 -3.136198e-02 -3.193202e-02 -2.928898e-02 -2.894971e-02 -2.608557e-02 -2.499800e-02 -2.204132e-02 -2.038080e-02 
-1.611851e-02 -1.451737e-02 -1.188196e-02 -1.002435e-02 -7.531389e-03 -5.509729e-03 -3.196051e-03 -1.068241e-03 1.045970e-03 3.261382e-03 5.162845e-03 7.485302e-03 9.151845e-03 1.162607e-02 1.300839e-02 1.567976e-02 1.669234e-02 1.957776e-02 2.010964e-02 2.317248e-02 2.311191e-02 2.624445e-02 2.550016e-02 2.851736e-02 2.703155e-02 2.968623e-02 2.745247e-02 2.947795e-02 2.656768e-02 2.773774e-02 2.431794e-02 2.449842e-02 2.081711e-02 1.998429e-02 1.631980e-02 1.454110e-02 1.113854e-02 8.532290e-03 5.558579e-03 2.258796e-03 -2.052643e-04 -4.058159e-03 -5.990522e-03 -1.023125e-02 -1.162609e-02 -1.603951e-02 -1.687695e-02 -2.119577e-02 -2.144078e-02 -2.537844e-02 -2.500324e-02 -2.830632e-02 -2.731520e-02 -2.980792e-02 -2.824987e-02 -2.985466e-02 -2.782086e-02 -2.855352e-02 -2.616348e-02 -2.611056e-02 -2.349372e-02 -2.278333e-02 -2.006260e-02 -1.883778e-02 
-1.228370e-02 -1.092639e-02 -8.642035e-03 -7.046130e-03 -4.912833e-03 -3.154311e-03 -1.207337e-03 6.623887e-04 2.400190e-03 4.357744e-03 5.868574e-03 7.917748e-03 9.177684e-03 1.134114e-02 1.230811e-02 1.461102e-02 1.521938e-02 1.766842e-02 1.783621e-02 2.039827e-02 2.004380e-02 2.262850e-02 2.168674e-02 2.413998e-02 2.257638e-02 2.469412e-02 2.252134e-02 2.408638e-02 2.138318e-02 2.221446e-02 1.913450e-02 1.912848e-02 1.588513e-02 1.503095e-02 1.185752e-02 1.022206e-02 7.324381e-03 5.019886e-03 2.542622e-03 -3.030105e-04 -2.283634e-03 -5.537990e-03 -6.996728e-03 -1.051410e-02 -1.144840e-02 -1.505521e-02 -1.546400e-02 -1.895747e-02 -1.883754e-02 -2.200614e-02 -2.136283e-02 -2.401962e-02 -2.287993e-02 -2.489252e-02 -2.331170e-02 -2.461768e-02 -2.267721e-02 -2.328246e-02 -2.108133e-02 -2.104553e-02 -1.868842e-02 -1.810488e-02 -1.569120e-02 -1.466747e-02 
-1.101530e-02 -1.006111e-02 -7.962072e-03 -6.779536e-03 -4.818557e-03 -3.463544e-03 -1.675542e-03 -1.831546e-04 1.407865e-03 3.025026e-03 4.399086e-03 6.148157e-03 7.280234e-03 9.179058e-03 1.003055e-02 1.209283e-02 1.260861e-02 1.482680e-02 1.494148e-02 1.727191e-02 1.692280e-02 1.927637e-02 1.841683e-02 2.065868e-02 1.926945e-02 2.123153e-02 1.933239e-02 2.083977e-02 1.850100e-02 1.940553e-02 1.675198e-02 1.696076e-02 1.416003e-02 1.364744e-02 1.088225e-02 9.682818e-03 7.117976e-03 5.307576e-03 3.065942e-03 7.433532e-04 -1.100229e-03 -3.821499e-03 -5.229043e-03 -8.217533e-03 -9.168990e-03 -1.226931e-02 -1.274846e-02 -1.578435e-02 -1.577722e-02 -1.856888e-02 -1.807277e-02 -2.046236e-02 -1.949694e-02 -2.137115e-02 -1.998429e-02 -2.128589e-02 -1.955167e-02 -2.027824e-02 -1.828872e-02 -1.848158e-02 -1.633546e-02 -1.606405e-02 -1.385602e-02 -1.320232e-02 
-7.361100e-03 -6.617604e-03 -4.835987e-03 -3.893779e-03 -2.269208e-03 -1.169734e-03 2.676452e-04 1.496097e-03 2.724544e-03 4.068267e-03 5.069423e-03 6.527671e-03 7.280325e-03 8.859474e-03 9.334096e-03 1.103761e-02 1.119489e-02 1.301093e-02 1.280646e-02 1.469581e-02 1.408940e-02 1.597713e-02 1.494321e-02 1.671799e-02 1.525531e-02 1.678030e-02 1.492129e-02 1.605645e-02 1.387472e-02 1.450458e-02 1.211534e-02 1.217202e-02 9.720857e-03 9.193663e-03 6.834540e-03 5.763761e-03 3.634246e-03 2.094881e-03 2.982144e-04 -1.616959e-03 -3.016985e-03 -5.207117e-03 -6.179306e-03 -8.536465e-03 -9.069864e-03 -1.147656e-02 -1.157072e-02 -1.390154e-02 -1.356413e-02 -1.569527e-02 -1.494583e-02 -1.676967e-02 -1.564455e-02 -1.708306e-02 -1.563730e-02 -1.664928e-02 -1.495398e-02 -1.553461e-02 -1.367072e-02 -1.384501e-02 -1.189555e-02 -1.170848e-02 -9.751419e-03 -9.257942e-03 
-6.124660e-03 -5.745269e-03 -4.132544e-03 -3.569219e-03 -2.105249e-03 -1.381730e-03 -9.530407e-05 7.743493e-04 1.862241e-03 2.874064e-03 3.745738e-03 4.903524e-03 5.539614e-03 6.849178e-03 7.224804e-03 8.685359e-03 8.769680e-03 1.036420e-02 1.012452e-02 1.181158e-02 1.122082e-02 1.293024e-02 1.197506e-02 1.360953e-02 1.229746e-02 1.374175e-02 1.210717e-02 1.324452e-02 1.135244e-02 1.208429e-02 1.002912e-02 1.029186e-02 8.188643e-03 7.961833e-03 5.930855e-03 5.234984e-03 3.384857e-03 2.271709e-03 6.873011e-04 -7.714734e-04 -2.032496e-03 -3.753541e-03 -4.656215e-03 -6.547870e-03 -7.072063e-03 -9.035602e-03 -9.170381e-03 -1.110334e-02 -1.084677e-02 -1.265046e-02 -1.201382e-02 -1.360335e-02 -1.261580e-02 -1.392873e-02 -1.263890e-02 -1.363963e-02 -1.211292e-02 -1.279195e-02 -1.110424e-02 -1.147339e-02 -9.703318e-03 -9.788885e-03 -8.010675e-03 -7.846336e-03 
-2.573381e-03 -2.392415e-03 -1.071719e-03 -7.417583e-04 4.042678e-04 8.730142e-04 1.822606e-03 2.423541e-03 3.161050e-03 3.891710e-03 4.404400e-03 5.265307e-03 5.540133e-03 6.531413e-03 6.552905e-03 7.668777e-03 7.419390e-03 8.641547e-03 8.105121e-03 9.396664e-03 8.564119e-03 9.866141e-03 8.741603e-03 9.974683e-03 8.580722e-03 9.652896e-03 8.034207e-03 8.854860e-03 7.079371e-03 7.575588e-03 5.731328e-03 5.861423e-03 4.048214e-03 3.807796e-03 2.125205e-03 1.544251e-03 7.955033e-05 -7.873164e-04 -1.967193e-03 -3.052646e-03 -3.903228e-03 -5.137015e-03 -5.633527e-03 -6.947983e-03 -7.080829e-03 -8.412906e-03 -8.184698e-03 -9.476815e-03 -8.902355e-03 -1.010381e-02 -9.211868e-03 -1.028092e-02 -9.115318e-03 -1.002098e-02 -8.639169e-03 -9.361880e-03 -7.830804e-03 -8.361744e-03 -6.752080e-03 -7.091394e-03 -5.471653e-03 -5.626080e-03 -4.057874e-03 -4.038272e-03 
-1.340131e-03 -1.504430e-03 -3.382058e-04 -3.703458e-04 6.254324e-04 7.315496e-04 1.537433e-03 1.788349e-03 2.390829e-03 2.793532e-03 3.182180e-03 3.742824e-03 3.907751e-03 4.628751e-03 4.559296e-03 5.435051e-03 5.120596e-03 6.132793e-03 5.565923e-03 6.679728e-03 5.860850e-03 7.023367e-03 5.965234e-03 7.107486e-03 5.838397e-03 6.881616e-03 5.446702e-03 6.312559e-03 4.772733e-03 5.395470e-03 3.823511e-03 4.160680e-03 2.634498e-03 2.673052e-03 1.267484e-03 1.023495e-03 -1.968895e-04 -6.843291e-04 -1.669205e-03 -2.347434e-03 -3.060828e-03 -3.873267e-03 -4.291143e-03 -5.184696e-03 -5.292493e-03 -6.221784e-03 -6.014072e-03 -6.942875e-03 -6.425587e-03 -7.326310e-03 -6.519998e-03 -7.371974e-03 -6.313638e-03 -7.100908e-03 -5.842724e-03 -6.552050e-03 -5.156958e-03 -5.776555e-03 -4.312037e-03 -4.831119e-03 -3.362885e-03 -3.771731e-03 -2.358702e-03 -2.648864e-03 
2.197123e-03 1.827928e-03 2.718177e-03 2.446104e-03 3.135368e-03 2.980000e-03 3.457483e-03 3.433384e-03 3.692713e-03 3.809790e-03 3.847055e-03 4.110466e-03 3.922908e-03 4.332039e-03 3.917920e-03 4.464388e-03 3.824508e-03 4.489630e-03 3.630419e-03 4.383010e-03 3.320355e-03 4.116035e-03 2.878489e-03 3.661755e-03 2.291985e-03 3.001877e-03 1.555676e-03 2.134666e-03 6.773873e-04 1.081616e-03 -3.175862e-04 -1.096872e-04 -1.384648e-03 -1.368215e-03 -2.461678e-03 -2.607348e-03 -3.474251e-03 -3.735850e-03 -4.343434e-03 -4.669342e-03 -4.995238e-03 -5.340306e-03 -5.370688e-03 -5.705496e-03 -5.435115e-03 -5.750208e-03 -5.184779e-03 -5.488976e-03 -4.648670e-03 -4.962276e-03 -3.884000e-03 -4.229317e-03 -2.965775e-03 -3.358166e-03 -1.973348e-03 -2.415589e-03 -9.780603e-04 -1.459122e-03 -3.517960e-05 -5.327495e-04 8.188668e-04 3.338179e-04 1.564929e-03 1.123322e-03 
3.461036e-03 2.746755e-03 3.494418e-03 2.860721e-03 3.407774e-03 2.889960e-03 3.228833e-03 2.854037e-03 2.981552e-03 2.768975e-03 2.684484e-03 2.645542e-03 2.349949e-03 2.487929e-03 1.983995e-03 2.293199e-03 1.587396e-03 2.052045e-03 1.157638e-03 1.751038e-03 6.913982e-04 1.375948e-03 1.867070e-04 9.154661e-04 -3.556428e-04 3.647875e-04 -9.312901e-04 -2.712107e-04 -1.531555e-03 -9.755008e-04 -2.142230e-03 -1.717581e-03 -2.741686e-03 -2.453805e-03 -3.298643e-03 -3.129780e-03 -3.770827e-03 -3.685142e-03 -4.106490e-03 -4.060685e-03 -4.250480e-03 -4.207367e-03 -4.154968e-03 -4.095797e-03 -3.792579e-03 -3.723886e-03 -3.167715e-03 -3.120020e-03 -2.321442e-03 -2.339934e-03 -1.326946e-03 -1.457369e-03 -2.760886e-04 -5.509400e-04 7.385315e-04 3.088549e-04 1.639801e-03 1.068884e-03 2.375910e-03 1.697207e-03 2.922509e-03 2.181955e-03 3.278878e-03 2.527042e-03 
7.078746e-03 6.134680e-03 6.611915e-03 5.718223e-03 5.961531e-03 5.167489e-03 5.179253e-03 4.520218e-03 4.305291e-03 3.803625e-03 3.368226e-03 3.034734e-03 2.386518e-03 2.221848e-03 1.371312e-03 1.367014e-03 3.302294e-04 4.694539e-04 -7.283669e-04 -4.703896e-04 -1.791612e-03 -1.446815e-03 -2.839914e-03 -2.445549e-03 -3.846808e-03 -3.441724e-03 -4.780721e-03 -4.399584e-03 -5.607798e-03 -5.274024e-03 -6.294387e-03 -6.013556e-03 -6.807610e-03 -6.563665e-03 -7.113154e-03 -6.869659e-03 -7.171588e-03 -6.879469e-03 -6.937156e-03 -6.548607e-03 -6.363634e-03 -5.849367e-03 -5.418836e-03 -4.783451e-03 -4.104091e-03 -3.393416e-03 -2.470559e-03 -1.766591e-03 -6.235130e-04 -2.701869e-05 1.290296e-03 1.684049e-03 3.109511e-03 3.233176e-03 4.689547e-03 4.516778e-03 5.927043e-03 5.473587e-03 6.770531e-03 6.085707e-03 7.217360e-03 6.370784e-03 7.301591e-03 6.369805e-03 
8.410966e-03 7.103667e-03 7.447056e-03 6.176502e-03 6.282413e-03 5.113532e-03 4.988594e-03 3.968889e-03 3.622098e-03 2.782822e-03 2.224297e-03 1.582461e-03 8.235810e-04 3.842099e-04 -5.606799e-04 -8.022913e-04 -1.912694e-03 -1.968940e-03 -3.214207e-03 -3.103650e-03 -4.439601e-03 -4.186109e-03 -5.554089e-03 -5.186320e-03 -6.516246e-03 -6.066623e-03 -7.284496e-03 -6.786564e-03 -7.825294e-03 -7.308580e-03 -8.119131e-03 -7.601659e-03 -8.160408e-03 -7.640932e-03 -7.949653e-03 -7.403730e-03 -7.481415e-03 -6.865833e-03 -6.735543e-03 -6.002819e-03 -5.679657e-03 -4.799691e-03 -4.285622e-03 -3.267173e-03 -2.555042e-03 -1.457863e-03 -5.426609e-04 5.266798e-04 1.634551e-03 2.543999e-03 3.809762e-03 4.433377e-03 5.797667e-03 6.045653e-03 7.433086e-03 7.269516e-03 8.601675e-03 8.046025e-03 9.253339e-03 8.369110e-03 9.398114e-03 8.275299e-03 9.090658e-03 7.828308e-03 
1.220435e-02 1.062275e-02 1.068919e-02 9.124592e-03 8.919572e-03 7.451491e-03 6.992698e-03 5.676371e-03 4.980980e-03 3.849765e-03 2.934050e-03 2.003002e-03 8.836276e-04 1.535818e-04 -1.149448e-03 -1.687695e-03 -3.146592e-03 -3.508531e-03 -5.082561e-03 -5.287298e-03 -6.918545e-03 -6.987411e-03 -8.599683e-03 -8.555401e-03 -1.005847e-02 -9.923573e-03 -1.122381e-02 -1.101716e-02 -1.203335e-02 -1.176450e-02 -1.244451e-02 -1.210684e-02 -1.243831e-02 -1.200328e-02 -1.201187e-02 -1.142824e-02 -1.116193e-02 -1.036383e-02 -9.870073e-03 -8.796282e-03 -8.103341e-03 -6.725088e-03 -5.836896e-03 -4.185477e-03 -3.091776e-03 -1.273364e-03 3.021559e-05 1.843069e-03 3.334899e-03 4.936730e-03 6.559148e-03 7.759325e-03 9.423903e-03 1.009002e-02 1.169492e-02 1.177594e-02 1.322612e-02 1.275101e-02 1.397290e-02 1.303124e-02 1.397846e-02 1.269383e-02 1.334534e-02 1.185044e-02 
1.364509e-02 1.166305e-02 1.160040e-02 9.628037e-03 9.286196e-03 7.418739e-03 6.821014e-03 5.125145e-03 4.293951e-03 2.810972e-03 1.767041e-03 5.172853e-04 -7.192256e-04 -1.731261e-03 -3.137609e-03 -3.917670e-03 -5.463317e-03 -6.021929e-03 -7.662209e-03 -8.010654e-03 -9.681504e-03 -9.830436e-03 -1.144714e-02 -1.140797e-02 -1.287060e-02 -1.265828e-02 -1.386496e-02 -1.349971e-02 -1.436583e-02 -1.387050e-02 -1.434853e-02 -1.373953e-02 -1.383122e-02 -1.310460e-02 -1.285830e-02 -1.197848e-02 -1.146982e-02 -1.037172e-02 -9.674742e-03 -8.285096e-03 -7.447026e-03 -5.721364e-03 -4.752761e-03 -2.715241e-03 -1.599174e-03 6.330484e-04 1.917705e-03 4.140714e-03 5.592639e-03 7.555952e-03 9.133791e-03 1.060127e-02 1.222387e-02 1.303069e-02 1.459441e-02 1.467755e-02 1.608042e-02 1.547660e-02 1.663762e-02 1.545792e-02 1.632594e-02 1.472181e-02 1.527466e-02 1.340719e-02 
1.770415e-02 1.538124e-02 1.502090e-02 1.270586e-02 1.203483e-02 9.837463e-03 8.890955e-03 6.883984e-03 5.691874e-03 3.916068e-03 2.503387e-03 9.739510e-04 -6.365902e-04 -1.922820e-03 -3.706153e-03 -4.762887e-03 -6.684645e-03 -7.528681e-03 -9.536829e-03 -1.018298e-02 -1.220039e-02 -1.266021e-02 -1.458179e-02 -1.486508e-02 -1.656346e-02 -1.667992e-02 -1.802251e-02 -1.798087e-02 -1.885711e-02 -1.865990e-02 -1.901192e-02 -1.864599e-02 -1.848931e-02 -1.791446e-02 -1.733424e-02 -1.647629e-02 -1.559439e-02 -1.435145e-02 -1.327800e-02 -1.154763e-02 -1.034280e-02 -8.069178e-03 -6.733563e-03 -3.959909e-03 -2.456211e-03 6.424545e-04 2.348390e-03 5.475538e-03 7.373744e-03 1.017153e-02 1.218739e-02 1.432647e-02 1.633190e-02 1.759162e-02 1.943999e-02 1.974598e-02 2.130957e-02 2.072334e-02 2.191650e-02 2.059448e-02 2.137831e-02 1.952290e-02 1.989700e-02 1.771538e-02 
1.929431e-02 1.651323e-02 1.602317e-02 1.325374e-02 1.244087e-02 9.808142e-03 8.715240e-03 6.301920e-03 4.965619e-03 2.818623e-03 1.269155e-03 -5.929994e-04 -2.329882e-03 -3.908841e-03 -5.807204e-03 -7.115212e-03 -9.140791e-03 -1.019052e-02 -1.228987e-02 -1.308669e-02 -1.517709e-02 -1.571706e-02 -1.768228e-02 -1.795676e-02 -1.965381e-02 -1.965866e-02 -2.093859e-02 -2.068331e-02 -2.142426e-02 -2.093407e-02 -2.107782e-02 -2.038138e-02 -1.995777e-02 -1.905960e-02 -1.818277e-02 -1.703404e-02 -1.586510e-02 -1.435763e-02 -1.304680e-02 -1.104450e-02 -9.681009e-03 -7.085335e-03 -5.679120e-03 -2.505291e-03 -1.006371e-03 2.564803e-03 4.220254e-03 7.847371e-03 9.684642e-03 1.293796e-02 1.490888e-02 1.738517e-02 1.936948e-02 2.079834e-02 2.264012e-02 2.293346e-02 2.448789e-02 2.372496e-02 2.489078e-02 2.326416e-02 2.399335e-02 2.174682e-02 2.203695e-02 1.941555e-02 
2.369438e-02 2.048094e-02 1.965537e-02 1.648003e-02 1.530781e-02 1.230842e-02 1.084434e-02 8.105976e-03 6.392147e-03 3.956593e-03 2.024255e-03 -1.003676e-04 -2.227150e-03 -4.055857e-03 -6.353900e-03 -7.912367e-03 -1.034909e-02 -1.166046e-02 -1.417989e-02 -1.525594e-02 -1.776456e-02 -1.860556e-02 -2.096365e-02 -2.156482e-02 -2.359090e-02 -2.395005e-02 -2.544534e-02 -2.556626e-02 -2.636032e-02 -2.624809e-02 -2.625660e-02 -2.590277e-02 -2.517285e-02 -2.453242e-02 -2.324169e-02 -2.221125e-02 -2.060370e-02 -1.901818e-02 -1.730497e-02 -1.497364e-02 -1.325631e-02 -1.004397e-02 -8.298210e-03 -4.227235e-03 -2.347654e-03 2.327733e-03 4.445978e-03 9.245166e-03 1.162424e-02 1.594732e-02 1.848452e-02 2.178332e-02 2.427599e-02 2.620401e-02 2.842335e-02 2.889310e-02 3.065565e-02 2.980205e-02 3.100529e-02 2.910058e-02 2.972141e-02 2.708801e-02 2.716027e-02 2.410694e-02 
2.547196e-02 2.172044e-02 2.075698e-02 1.706537e-02 1.573871e-02 1.225797e-02 1.063329e-02 7.455634e-03 5.584043e-03 2.754580e-03 6.738658e-04 -1.798981e-03 -4.062157e-03 -6.195782e-03 -8.620470e-03 -1.044379e-02 -1.300282e-02 -1.453838e-02 -1.717955e-02 -1.842869e-02 -2.105483e-02 -2.199445e-02 -2.445101e-02 -2.504329e-02 -2.712343e-02 -2.733602e-02 -2.881077e-02 -2.864043e-02 -2.931430e-02 -2.880088e-02 -2.858053e-02 -2.779241e-02 -2.673950e-02 -2.571868e-02 -2.405040e-02 -2.274080e-02 -2.076150e-02 -1.898046e-02 -1.696669e-02 -1.444995e-02 -1.255120e-02 -9.069976e-03 -7.276144e-03 -2.785020e-03 -9.670039e-04 4.284504e-03 6.285493e-03 1.174636e-02 1.401700e-02 1.896359e-02 2.144749e-02 2.520326e-02 2.770476e-02 2.984417e-02 3.210845e-02 3.253309e-02 3.434011e-02 3.322573e-02 3.444424e-02 3.212697e-02 3.271978e-02 2.958577e-02 2.958549e-02 2.599486e-02 
3.025775e-02 2.595543e-02 2.459826e-02 2.042470e-02 1.869650e-02 1.480999e-02 1.278624e-02 9.274780e-03 7.008049e-03 3.904733e-03 1.428735e-03 -1.275961e-03 -3.942162e-03 -6.287654e-03 -9.133081e-03 -1.117022e-02 -1.417802e-02 -1.594508e-02 -1.906942e-02 -2.057516e-02 -2.371472e-02 -2.494163e-02 -2.791751e-02 -2.883870e-02 -3.139092e-02 -3.198898e-02 -3.380699e-02 -3.408560e-02 -3.488154e-02 -3.486310e-02 -3.448099e-02 -3.418459e-02 -3.270402e-02 -3.210154e-02 -2.985649e-02 -2.881848e-02 -2.627430e-02 -2.453664e-02 -2.208222e-02 -1.928477e-02 -1.707934e-02 -1.290556e-02 -1.085502e-02 -5.232360e-03 -3.081669e-03 3.650936e-03 6.159281e-03 1.323018e-02 1.619256e-02 2.258911e-02 2.584978e-02 3.065528e-02 3.386347e-02 3.654799e-02 3.932137e-02 3.982056e-02 4.188436e-02 4.049150e-02 4.172780e-02 3.891807e-02 3.934201e-02 3.562178e-02 3.532845e-02 3.114348e-02 
3.225099e-02 2.730806e-02 2.579383e-02 2.102899e-02 1.912334e-02 1.470236e-02 1.249479e-02 8.507787e-03 6.063197e-03 2.543001e-03 -9.551767e-05 -3.161509e-03 -5.971882e-03 -8.631215e-03 -1.160949e-02 -1.392567e-02 -1.707055e-02 -1.909073e-02 -2.237102e-02 -2.409566e-02 -2.741202e-02 -2.878905e-02 -3.194352e-02 -3.288588e-02 -3.557755e-02 -3.600121e-02 -3.786567e-02 -3.774080e-02 -3.844055e-02 -3.783619e-02 -3.719009e-02 -3.626893e-02 -3.436978e-02 -3.328261e-02 -3.051873e-02 -2.923065e-02 -2.616467e-02 -2.437376e-02 -2.150781e-02 -1.870480e-02 -1.628114e-02 -1.195914e-02 -9.906908e-03 -3.848557e-03 -1.870105e-03 5.612735e-03 7.872673e-03 1.589064e-02 1.865067e-02 2.596714e-02 2.915884e-02 3.462031e-02 3.789283e-02 4.084220e-02 4.374822e-02 4.412924e-02 4.631968e-02 4.451810e-02 4.582636e-02 4.243235e-02 4.285619e-02 3.847445e-02 3.811335e-02 3.325759e-02 
3.740989e-02 3.177241e-02 2.978315e-02 2.445297e-02 2.209326e-02 1.723162e-02 1.459562e-02 1.027811e-02 7.424856e-03 3.663559e-03 6.249880e-04 -2.620121e-03 -5.836654e-03 -8.648018e-03 -1.205784e-02 -1.453556e-02 -1.816061e-02 -2.037486e-02 -2.420573e-02 -2.615881e-02 -3.010826e-02 -3.174793e-02 -3.560127e-02 -3.685969e-02 -4.024794e-02 -4.108116e-02 -4.350891e-02 -4.392317e-02 -4.487636e-02 -4.493342e-02 -4.408112e-02 -4.387108e-02 -4.130623e-02 -4.087142e-02 -3.720700e-02 -3.642523e-02 -3.255564e-02 -3.102550e-02 -2.767075e-02 -2.472319e-02 -2.212395e-02 -1.706063e-02 -1.496039e-02 -7.446634e-03 -5.282184e-03 4.279082e-03 7.081078e-03 1.743570e-02 2.113641e-02 3.052315e-02 3.485688e-02 4.170018e-02 4.600508e-02 4.951211e-02 5.311349e-02 5.335017e-02 5.583272e-02 5.342599e-02 5.468002e-02 5.045896e-02 5.059089e-02 4.533784e-02 4.455405e-02 3.888977e-02 
3.962470e-02 3.322490e-02 3.104359e-02 2.503961e-02 2.246534e-02 1.701395e-02 1.415856e-02 9.329534e-03 6.268968e-03 2.070992e-03 -1.147154e-03 -4.758365e-03 -8.119730e-03 -1.124113e-02 -1.477443e-02 -1.753655e-02 -2.129893e-02 -2.380359e-02 -2.782273e-02 -3.007506e-02 -3.427961e-02 -3.618097e-02 -4.033380e-02 -4.171004e-02 -4.537671e-02 -4.604124e-02 -4.863167e-02 -4.848389e-02 -4.938976e-02 -4.853329e-02 -4.736865e-02 -4.616523e-02 -4.303191e-02 -4.191374e-02 -3.749184e-02 -3.652660e-02 -3.187182e-02 -3.057944e-02 -2.661941e-02 -2.403599e-02 -2.115905e-02 -1.621232e-02 -1.419979e-02 -6.261213e-03 -4.477320e-03 6.126234e-03 8.426803e-03 2.023762e-02 2.355463e-02 3.439457e-02 3.864280e-02 4.646894e-02 5.095751e-02 5.477548e-02 5.867079e-02 5.862405e-02 6.136388e-02 5.828554e-02 5.968565e-02 5.461016e-02 5.476563e-02 4.862218e-02 4.776091e-02 4.125287e-02 
4.504450e-02 3.779113e-02 3.503066e-02 2.838248e-02 2.529686e-02 1.938447e-02 1.607706e-02 1.094165e-02 7.470082e-03 3.091366e-03 -5.167639e-04 -4.219237e-03 -7.970513e-03 -1.114745e-02 -1.510000e-02 -1.794850e-02 -2.220092e-02 -2.486074e-02 -2.948602e-02 -3.193900e-02 -3.691325e-02 -3.903334e-02 -4.413275e-02 -4.577194e-02 -5.049044e-02 -5.155222e-02 -5.510190e-02 -5.559060e-02 -5.703054e-02 -5.707489e-02 -5.565949e-02 -5.549556e-02 -5.123412e-02 -5.108969e-02 -4.511162e-02 -4.498678e-02 -3.907142e-02 -3.841728e-02 -3.392160e-02 -3.152168e-02 -2.878581e-02 -2.316626e-02 -2.157997e-02 -1.177065e-02 -1.016537e-02 3.478546e-03 6.312984e-03 2.171073e-02 2.641361e-02 4.036606e-02 4.643168e-02 5.610886e-02 6.218250e-02 6.645032e-02 7.129342e-02 7.064332e-02 7.365359e-02 6.940474e-02 7.056981e-02 6.415492e-02 6.378836e-02 5.638131e-02 5.488736e-02 4.730537e-02 
4.744313e-02 3.929865e-02 3.628974e-02 2.888966e-02 2.553452e-02 1.898287e-02 1.540339e-02 9.723852e-03 5.999827e-03 1.169034e-03 -2.642544e-03 -6.701128e-03 -1.058427e-02 -1.403684e-02 -1.806826e-02 -2.117497e-02 -2.552805e-02 -2.851284e-02 -3.334292e-02 -3.622180e-02 -4.155181e-02 -4.415136e-02 -4.973652e-02 -5.173273e-02 -5.696284e-02 -5.796858e-02 -6.189047e-02 -6.161728e-02 -6.311288e-02 -6.164625e-02 -5.986125e-02 -5.794754e-02 -5.290050e-02 -5.168450e-02 -4.454819e-02 -4.438441e-02 -3.721210e-02 -3.738114e-02 -3.193892e-02 -3.064642e-02 -2.753691e-02 -2.259141e-02 -2.125612e-02 -1.110701e-02 -1.026231e-02 4.920246e-03 6.762886e-03 2.454190e-02 2.849895e-02 4.490535e-02 5.089543e-02 6.208586e-02 6.861868e-02 7.316776e-02 7.861156e-02 7.730720e-02 8.077968e-02 7.539085e-02 7.678774e-02 6.910115e-02 6.876053e-02 6.015149e-02 5.854024e-02 4.990677e-02 
5.284974e-02 4.370372e-02 3.999711e-02 3.190015e-02 2.798464e-02 2.098010e-02 1.694312e-02 1.101026e-02 6.892735e-03 1.977900e-03 -2.192555e-03 -6.200423e-03 -1.042762e-02 -1.377241e-02 -1.816936e-02 -2.124957e-02 -2.605758e-02 -2.918224e-02 -3.462684e-02 -3.770617e-02 -4.392944e-02 -4.667775e-02 -5.352924e-02 -5.564513e-02 -6.248025e-02 -6.376546e-02 -6.937400e-02 -6.980916e-02 -7.247757e-02 -7.227796e-02 -7.029027e-02 -6.995038e-02 -6.286386e-02 -6.301007e-02 -5.293737e-02 -5.401615e-02 -4.469550e-02 -4.613417e-02 -4.015697e-02 -3.977972e-02 -3.751983e-02 -3.231184e-02 -3.241014e-02 -1.994474e-02 -2.010740e-02 -2.989093e-04 1.929724e-03 2.556424e-02 3.176999e-02 5.311776e-02 6.226159e-02 7.591640e-02 8.499095e-02 8.953865e-02 9.622253e-02 9.337164e-02 9.692073e-02 8.939776e-02 9.015979e-02 8.037633e-02 7.910676e-02 6.872770e-02 6.616287e-02 5.615924e-02 