# vtk DataFile Version 2.0
Comment goes here
ASCII

DATASET STRUCTURED_POINTS
DIMENSIONS    64   64   1

ORIGIN    0.000   0.000   0.000
SPACING   0.0156250.015625   1.000

POINT_DATA   4096
SCALARS uX double
LOOKUP_TABLE default

-4.080990e-02 -2.877157e-02 -1.728930e-02 -5.292763e-03 6.362677e-03 1.760197e-02 2.886393e-02 3.830661e-02 4.815290e-02 5.446365e-02 6.151943e-02 6.364891e-02 6.685107e-02 6.506135e-02 6.446184e-02 6.068117e-02 5.756756e-02 5.444894e-02 5.124625e-02 5.105913e-02 5.041271e-02 5.451774e-02 5.774920e-02 6.581497e-02 7.177779e-02 8.116707e-02 8.634931e-02 9.295798e-02 9.347772e-02 9.417886e-02 8.847426e-02 8.304224e-02 7.259310e-02 6.318815e-02 5.094258e-02 4.033429e-02 2.889723e-02 1.906754e-02 9.669921e-03 1.028871e-03 -6.841467e-03 -1.547989e-02 -2.350772e-02 -3.379667e-02 -4.328020e-02 -5.565871e-02 -6.620239e-02 -7.926267e-02 -8.903478e-02 -1.004410e-01 -1.074667e-01 -1.152173e-01 -1.183067e-01 -1.213707e-01 -1.203290e-01 -1.187245e-01 -1.141285e-01 -1.086092e-01 -1.013599e-01 -9.294640e-02 -8.389069e-02 -7.354299e-02 -6.331082e-02 -5.180765e-02 
-3.685519e-02 -2.648689e-02 -1.623412e-02 -5.985658e-03 4.379258e-03 1.384245e-02 2.379924e-02 3.164146e-02 4.037317e-02 4.567253e-02 5.216368e-02 5.433344e-02 5.781145e-02 5.721003e-02 5.767014e-02 5.573124e-02 5.408296e-02 5.266539e-02 5.061787e-02 5.129533e-02 5.073101e-02 5.433704e-02 5.621716e-02 6.235970e-02 6.590380e-02 7.265650e-02 7.547043e-02 8.000197e-02 7.946035e-02 7.963692e-02 7.464960e-02 7.027812e-02 6.179565e-02 5.432401e-02 4.434711e-02 3.567192e-02 2.601576e-02 1.750135e-02 9.052708e-03 1.015651e-03 -6.502805e-03 -1.475545e-02 -2.236644e-02 -3.177750e-02 -4.023070e-02 -5.093260e-02 -5.987196e-02 -7.078887e-02 -7.889758e-02 -8.832430e-02 -9.415692e-02 -1.005993e-01 -1.032367e-01 -1.058818e-01 -1.051155e-01 -1.039131e-01 -1.001148e-01 -9.558416e-02 -8.941054e-02 -8.232768e-02 -7.444882e-02 -6.560456e-02 -5.656497e-02 -4.665687e-02 
-3.239355e-02 -2.316881e-02 -1.408798e-02 -4.962785e-03 4.105296e-03 1.252969e-02 2.109043e-02 2.811376e-02 3.549352e-02 4.040139e-02 4.585345e-02 4.821676e-02 5.123915e-02 5.131399e-02 5.200039e-02 5.083441e-02 4.997051e-02 4.901287e-02 4.791106e-02 4.844813e-02 4.841417e-02 5.112591e-02 5.272810e-02 5.729437e-02 5.987358e-02 6.483567e-02 6.665928e-02 6.993475e-02 6.914129e-02 6.912304e-02 6.488336e-02 6.128744e-02 5.418507e-02 4.793082e-02 3.937399e-02 3.182534e-02 2.319171e-02 1.542064e-02 7.466542e-03 -1.718374e-04 -7.500188e-03 -1.534607e-02 -2.261268e-02 -3.117686e-02 -3.877538e-02 -4.803794e-02 -5.565081e-02 -6.479197e-02 -7.147288e-02 -7.923829e-02 -8.394836e-02 -8.921817e-02 -9.127629e-02 -9.341183e-02 -9.264236e-02 -9.156490e-02 -8.822273e-02 -8.429624e-02 -7.887295e-02 -7.269354e-02 -6.572591e-02 -5.794188e-02 -4.990228e-02 -4.112105e-02 
-2.878642e-02 -2.092611e-02 -1.288675e-02 -5.155559e-03 2.864928e-03 9.942846e-03 1.750904e-02 2.338232e-02 2.995009e-02 3.412602e-02 3.912816e-02 4.138062e-02 4.444262e-02 4.504390e-02 4.621571e-02 4.595578e-02 4.578489e-02 4.568503e-02 4.509119e-02 4.602258e-02 4.592866e-02 4.829429e-02 4.911376e-02 5.260498e-02 5.390072e-02 5.745214e-02 5.805942e-02 6.022527e-02 5.889647e-02 5.857393e-02 5.474266e-02 5.171948e-02 4.576349e-02 4.065014e-02 3.352483e-02 2.725332e-02 1.991996e-02 1.324141e-02 6.256331e-03 -5.412077e-04 -7.153802e-03 -1.421726e-02 -2.075858e-02 -2.832221e-02 -3.497475e-02 -4.291561e-02 -4.939554e-02 -5.706488e-02 -6.266806e-02 -6.912509e-02 -7.307384e-02 -7.746685e-02 -7.922563e-02 -8.104602e-02 -8.044483e-02 -7.960005e-02 -7.679857e-02 -7.354425e-02 -6.890483e-02 -6.370340e-02 -5.765360e-02 -5.104175e-02 -4.398561e-02 -3.649599e-02 
-2.477610e-02 -1.782649e-02 -1.078836e-02 -3.946985e-03 3.005232e-03 9.277376e-03 1.575364e-02 2.099302e-02 2.655047e-02 3.036415e-02 3.458483e-02 3.680052e-02 3.944712e-02 4.026941e-02 4.143657e-02 4.146238e-02 4.160868e-02 4.163386e-02 4.145515e-02 4.217730e-02 4.231532e-02 4.406278e-02 4.475706e-02 4.729723e-02 4.818197e-02 5.071464e-02 5.093394e-02 5.238406e-02 5.103915e-02 5.056431e-02 4.722625e-02 4.460183e-02 3.950610e-02 3.511388e-02 2.894112e-02 2.344959e-02 1.693434e-02 1.093577e-02 4.556753e-03 -1.656350e-03 -7.782027e-03 -1.421115e-02 -2.019265e-02 -2.690241e-02 -3.278187e-02 -3.960624e-02 -4.513080e-02 -5.155832e-02 -5.620465e-02 -6.152684e-02 -6.472466e-02 -6.829425e-02 -6.964303e-02 -7.106038e-02 -7.042485e-02 -6.960194e-02 -6.709635e-02 -6.421865e-02 -6.012335e-02 -5.555388e-02 -5.021824e-02 -4.439969e-02 -3.817421e-02 -3.156491e-02 
-2.141930e-02 -1.556977e-02 -9.398809e-03 -3.667248e-03 2.433878e-03 7.661499e-03 1.335689e-02 1.772062e-02 2.264837e-02 2.587575e-02 2.970765e-02 3.171472e-02 3.426368e-02 3.524175e-02 3.656252e-02 3.696272e-02 3.737250e-02 3.775860e-02 3.774546e-02 3.858728e-02 3.860697e-02 4.009449e-02 4.032732e-02 4.225341e-02 4.246368e-02 4.424135e-02 4.386041e-02 4.473433e-02 4.316400e-02 4.254914e-02 3.950256e-02 3.723622e-02 3.287232e-02 2.920967e-02 2.399710e-02 1.940068e-02 1.385875e-02 8.754136e-03 3.241369e-03 -2.132187e-03 -7.490923e-03 -1.307449e-02 -1.829825e-02 -2.406270e-02 -2.912353e-02 -3.488325e-02 -3.955892e-02 -4.490087e-02 -4.878887e-02 -5.317043e-02 -5.583464e-02 -5.875882e-02 -5.988180e-02 -6.103321e-02 -6.049283e-02 -5.979182e-02 -5.765921e-02 -5.524213e-02 -5.172750e-02 -4.788185e-02 -4.326507e-02 -3.835746e-02 -3.293484e-02 -2.735872e-02 
-1.774942e-02 -1.262803e-02 -7.299380e-03 -2.284172e-03 2.937569e-03 7.514036e-03 1.233907e-02 1.617452e-02 2.031140e-02 2.318385e-02 2.638974e-02 2.823131e-02 3.038885e-02 3.134536e-02 3.252629e-02 3.294489e-02 3.341097e-02 3.373331e-02 3.385325e-02 3.445505e-02 3.454861e-02 3.558874e-02 3.575966e-02 3.708837e-02 3.714066e-02 3.831939e-02 3.782876e-02 3.829062e-02 3.681887e-02 3.611195e-02 3.344165e-02 3.141258e-02 2.764692e-02 2.445399e-02 1.993503e-02 1.591402e-02 1.104567e-02 6.536260e-03 1.628338e-03 -3.141744e-03 -7.934424e-03 -1.285586e-02 -1.747959e-02 -2.246591e-02 -2.684434e-02 -3.171039e-02 -3.564809e-02 -4.006236e-02 -4.325194e-02 -4.679987e-02 -4.891727e-02 -5.122061e-02 -5.202940e-02 -5.284498e-02 -5.225385e-02 -5.151761e-02 -4.958322e-02 -4.740079e-02 -4.429222e-02 -4.089463e-02 -3.684434e-02 -3.253507e-02 -2.779890e-02 -2.291241e-02 
-1.455783e-02 -1.032872e-02 -5.725868e-03 -1.609612e-03 2.906054e-03 6.640583e-03 1.082364e-02 1.394588e-02 1.755656e-02 1.991305e-02 2.275518e-02 2.431785e-02 2.629256e-02 2.718935e-02 2.833778e-02 2.883116e-02 2.933368e-02 2.973846e-02 2.985522e-02 3.042547e-02 3.038709e-02 3.121394e-02 3.110457e-02 3.206063e-02 3.175957e-02 3.252246e-02 3.175317e-02 3.192108e-02 3.039627e-02 2.965287e-02 2.723200e-02 2.546869e-02 2.222748e-02 1.955345e-02 1.573355e-02 1.238730e-02 8.279694e-03 4.512590e-03 3.521500e-04 -3.649760e-03 -7.726532e-03 -1.184782e-02 -1.576838e-02 -1.990365e-02 -2.357950e-02 -2.755728e-02 -3.082177e-02 -3.437613e-02 -3.698919e-02 -3.980290e-02 -4.151470e-02 -4.330111e-02 -4.392569e-02 -4.449982e-02 -4.395960e-02 -4.327274e-02 -4.160489e-02 -3.974094e-02 -3.707467e-02 -3.421989e-02 -3.074163e-02 -2.714573e-02 -2.306856e-02 -1.901161e-02 
-1.112405e-02 -7.490525e-03 -3.599464e-03 -7.881581e-05 3.701345e-03 6.883266e-03 1.034747e-02 1.299974e-02 1.595781e-02 1.795539e-02 2.026264e-02 2.158214e-02 2.317739e-02 2.391823e-02 2.484953e-02 2.521701e-02 2.563322e-02 2.587663e-02 2.597626e-02 2.630110e-02 2.624930e-02 2.673596e-02 2.658328e-02 2.714323e-02 2.679073e-02 2.718536e-02 2.642520e-02 2.635248e-02 2.497220e-02 2.418753e-02 2.208128e-02 2.048931e-02 1.770997e-02 1.537986e-02 1.210913e-02 9.218562e-03 5.687098e-03 2.440063e-03 -1.149819e-03 -4.583466e-03 -8.093133e-03 -1.158845e-02 -1.492503e-02 -1.836650e-02 -2.143277e-02 -2.466632e-02 -2.732071e-02 -3.013553e-02 -3.219458e-02 -3.435153e-02 -3.563145e-02 -3.691848e-02 -3.728509e-02 -3.756762e-02 -3.696840e-02 -3.621534e-02 -3.468538e-02 -3.296806e-02 -3.061515e-02 -2.808645e-02 -2.506658e-02 -2.193258e-02 -1.842729e-02 -1.492178e-02 
-8.018011e-03 -5.124760e-03 -1.854163e-03 9.151717e-04 4.090428e-03 6.562011e-03 9.472296e-03 1.150632e-02 1.399626e-02 1.550984e-02 1.746131e-02 1.845120e-02 1.981042e-02 2.036228e-02 2.115730e-02 2.142755e-02 2.176177e-02 2.193028e-02 2.194605e-02 2.215401e-02 2.197421e-02 2.226937e-02 2.194024e-02 2.225066e-02 2.171676e-02 2.186853e-02 2.099977e-02 2.077936e-02 1.944122e-02 1.867848e-02 1.680705e-02 1.543743e-02 1.307584e-02 1.115136e-02 8.431828e-03 6.084081e-03 3.175524e-03 5.602522e-04 -2.383738e-03 -5.128296e-03 -7.994111e-03 -1.075650e-02 -1.346000e-02 -1.613489e-02 -1.858966e-02 -2.104925e-02 -2.314113e-02 -2.522510e-02 -2.681412e-02 -2.834906e-02 -2.929730e-02 -3.013385e-02 -3.034032e-02 -3.038755e-02 -2.981192e-02 -2.905576e-02 -2.772430e-02 -2.622717e-02 -2.422340e-02 -2.210976e-02 -1.955742e-02 -1.699330e-02 -1.403970e-02 -1.121331e-02 
-4.720508e-03 -2.334255e-03 3.231731e-04 2.574786e-03 5.118261e-03 7.096386e-03 9.390053e-03 1.098427e-02 1.290870e-02 1.405505e-02 1.552545e-02 1.622352e-02 1.720876e-02 1.752810e-02 1.806067e-02 1.812674e-02 1.829396e-02 1.825211e-02 1.816585e-02 1.813318e-02 1.788564e-02 1.790793e-02 1.753141e-02 1.756221e-02 1.701388e-02 1.692754e-02 1.611127e-02 1.574942e-02 1.456681e-02 1.380010e-02 1.220451e-02 1.098032e-02 9.004505e-03 7.359173e-03 5.105059e-03 3.140828e-03 7.435604e-04 -1.410713e-03 -3.820985e-03 -6.042561e-03 -8.361457e-03 -1.054532e-02 -1.269098e-02 -1.474060e-02 -1.663520e-02 -1.844629e-02 -2.000024e-02 -2.145497e-02 -2.256781e-02 -2.354698e-02 -2.412484e-02 -2.453139e-02 -2.450942e-02 -2.429049e-02 -2.364862e-02 -2.280730e-02 -2.157424e-02 -2.016885e-02 -1.841588e-02 -1.654985e-02 -1.437914e-02 -1.218665e-02 -9.719575e-03 -7.351774e-03 
-1.620614e-03 1.274005e-04 2.236213e-03 3.832304e-03 5.836730e-03 7.185127e-03 8.978190e-03 1.000704e-02 1.149474e-02 1.216886e-02 1.328397e-02 1.361547e-02 1.433143e-02 1.438157e-02 1.471964e-02 1.458621e-02 1.460936e-02 1.439979e-02 1.419135e-02 1.398903e-02 1.362162e-02 1.345724e-02 1.296424e-02 1.280348e-02 1.216754e-02 1.192236e-02 1.108926e-02 1.065118e-02 9.563763e-03 8.846469e-03 7.480912e-03 6.452920e-03 4.837985e-03 3.531322e-03 1.742617e-03 2.376470e-04 -1.625725e-03 -3.227200e-03 -5.068277e-03 -6.666624e-03 -8.405338e-03 -9.913750e-03 -1.148615e-02 -1.282809e-02 -1.417543e-02 -1.527697e-02 -1.633596e-02 -1.712323e-02 -1.782635e-02 -1.823254e-02 -1.851880e-02 -1.849696e-02 -1.832612e-02 -1.786065e-02 -1.722356e-02 -1.633545e-02 -1.525695e-02 -1.400189e-02 -1.253699e-02 -1.099828e-02 -9.224734e-03 -7.504122e-03 -5.514748e-03 -3.723631e-03 
1.638125e-03 2.930084e-03 4.493876e-03 5.615197e-03 7.057842e-03 7.942578e-03 9.185304e-03 9.785530e-03 1.076148e-02 1.105716e-02 1.172226e-02 1.172939e-02 1.207237e-02 1.184450e-02 1.189096e-02 1.150980e-02 1.131593e-02 1.087121e-02 1.050665e-02 1.007043e-02 9.594876e-03 9.199346e-03 8.642071e-03 8.269687e-03 7.622142e-03 7.213584e-03 6.439963e-03 5.918674e-03 4.980421e-03 4.284409e-03 3.166405e-03 2.273648e-03 9.988865e-04 -6.397022e-05 -1.437082e-03 -2.603778e-03 -3.997230e-03 -5.181305e-03 -6.516360e-03 -7.630650e-03 -8.840505e-03 -9.809226e-03 -1.084159e-02 -1.160347e-02 -1.241576e-02 -1.292220e-02 -1.347606e-02 -1.369013e-02 -1.395072e-02 -1.384956e-02 -1.379043e-02 -1.336963e-02 -1.297935e-02 -1.225588e-02 -1.154273e-02 -1.055458e-02 -9.547214e-03 -8.350072e-03 -7.094965e-03 -5.757239e-03 -4.314448e-03 -2.912287e-03 -1.351436e-03 3.546643e-05 
4.813937e-03 5.525499e-03 6.582633e-03 7.101216e-03 8.041808e-03 8.338887e-03 9.108863e-03 9.167795e-03 9.720747e-03 9.543381e-03 9.848946e-03 9.460775e-03 9.512343e-03 8.962746e-03 8.780881e-03 8.135979e-03 7.764556e-03 7.093153e-03 6.587745e-03 5.944274e-03 5.355933e-03 4.766346e-03 4.127048e-03 3.583337e-03 2.899891e-03 2.366477e-03 1.626457e-03 1.057212e-03 2.443766e-04 -3.958968e-04 -1.284568e-03 -2.002956e-03 -2.947211e-03 -3.716402e-03 -4.673714e-03 -5.437616e-03 -6.352942e-03 -7.040094e-03 -7.858361e-03 -8.397132e-03 -9.072633e-03 -9.403473e-03 -9.903403e-03 -9.986236e-03 -1.028932e-02 -1.010672e-02 -1.020027e-02 -9.757852e-03 -9.636127e-03 -8.960772e-03 -8.625399e-03 -7.760944e-03 -7.222060e-03 -6.222874e-03 -5.499549e-03 -4.423615e-03 -3.543107e-03 -2.446579e-03 -1.442899e-03 -3.772103e-04 7.102373e-04 1.698833e-03 2.826016e-03 3.695483e-03 
8.130373e-03 8.403718e-03 8.956097e-03 9.013054e-03 9.433668e-03 9.272950e-03 9.531720e-03 9.158048e-03 9.229782e-03 8.658829e-03 8.530105e-03 7.792729e-03 7.467993e-03 6.611019e-03 6.115152e-03 5.196783e-03 4.572070e-03 3.652158e-03 2.949554e-03 2.077440e-03 1.344621e-03 5.488084e-04 -1.804967e-04 -8.966344e-04 -1.607370e-03 -2.261429e-03 -2.953663e-03 -3.572277e-03 -4.251037e-03 -4.854266e-03 -5.517851e-03 -6.105811e-03 -6.738208e-03 -7.284816e-03 -7.855204e-03 -8.310733e-03 -8.779283e-03 -9.080181e-03 -9.406891e-03 -9.489529e-03 -9.642623e-03 -9.457363e-03 -9.418941e-03 -8.941620e-03 -8.709880e-03 -7.948689e-03 -7.537198e-03 -6.533612e-03 -5.968424e-03 -4.791523e-03 -4.106861e-03 -2.841848e-03 -2.075073e-03 -8.090175e-04 4.027001e-06 1.194828e-03 2.022894e-03 3.080397e-03 3.897587e-03 4.783321e-03 5.567675e-03 6.259303e-03 6.990042e-03 7.475758e-03 
1.146761e-02 1.117782e-02 1.123845e-02 1.070806e-02 1.063892e-02 9.901342e-03 9.694738e-03 8.781932e-03 8.430637e-03 7.376299e-03 6.879066e-03 5.721787e-03 5.088471e-03 3.872873e-03 3.127175e-03 1.901789e-03 1.080159e-03 -1.077066e-04 -9.611759e-04 -2.071866e-03 -2.913073e-03 -3.919871e-03 -4.712140e-03 -5.603153e-03 -6.321502e-03 -7.096920e-03 -7.727489e-03 -8.392614e-03 -8.927834e-03 -9.483953e-03 -9.916110e-03 -1.035217e-02 -1.066848e-02 -1.095623e-02 -1.113740e-02 -1.123159e-02 -1.125410e-02 -1.109842e-02 -1.093966e-02 -1.047827e-02 -1.012338e-02 -9.316628e-03 -8.765330e-03 -7.606464e-03 -6.877939e-03 -5.405631e-03 -4.539426e-03 -2.840576e-03 -1.892354e-03 -9.176839e-05 8.753548e-04 2.636713e-03 3.562658e-03 5.153584e-03 5.990323e-03 7.310381e-03 8.026798e-03 9.016421e-03 9.598156e-03 1.023726e-02 1.068250e-02 1.098124e-02 1.129457e-02 1.128123e-02 
1.493709e-02 1.419586e-02 1.376632e-02 1.276022e-02 1.218891e-02 1.097803e-02 1.027812e-02 8.914893e-03 8.095957e-03 6.627512e-03 5.700631e-03 4.171869e-03 3.154595e-03 1.610200e-03 5.297295e-04 -9.858658e-04 -2.092406e-03 -3.537002e-03 -4.625346e-03 -5.961955e-03 -6.985718e-03 -8.185209e-03 -9.101489e-03 -1.014375e-02 -1.091747e-02 -1.179034e-02 -1.239605e-02 -1.309188e-02 -1.351283e-02 -1.402314e-02 -1.424841e-02 -1.455763e-02 -1.457865e-02 -1.465868e-02 -1.446636e-02 -1.427417e-02 -1.385798e-02 -1.333918e-02 -1.268944e-02 -1.178991e-02 -1.090421e-02 -9.589019e-03 -8.481622e-03 -6.756868e-03 -5.467493e-03 -3.397229e-03 -1.994277e-03 2.959383e-04 1.721174e-03 4.058908e-03 5.406460e-03 7.602708e-03 8.781767e-03 1.066676e-02 1.161083e-02 1.306248e-02 1.373700e-02 1.469352e-02 1.509459e-02 1.555085e-02 1.569739e-02 1.569042e-02 1.561343e-02 1.520449e-02 
1.852343e-02 1.719645e-02 1.626459e-02 1.465185e-02 1.358068e-02 1.177648e-02 1.060059e-02 8.682361e-03 7.428160e-03 5.458241e-03 4.148433e-03 2.177367e-03 8.355031e-04 -1.094728e-03 -2.440713e-03 -4.294023e-03 -5.609982e-03 -7.354086e-03 -8.599724e-03 -1.020443e-02 -1.133513e-02 -1.277106e-02 -1.374118e-02 -1.497929e-02 -1.574628e-02 -1.675837e-02 -1.728696e-02 -1.804665e-02 -1.831194e-02 -1.879494e-02 -1.878343e-02 -1.896538e-02 -1.867317e-02 -1.852467e-02 -1.795337e-02 -1.743405e-02 -1.658649e-02 -1.564366e-02 -1.452288e-02 -1.310080e-02 -1.171591e-02 -9.778198e-03 -8.156531e-03 -5.717249e-03 -3.917552e-03 -1.068685e-03 8.129909e-04 3.892965e-03 5.730853e-03 8.797526e-03 1.045648e-02 1.324592e-02 1.460689e-02 1.689008e-02 1.787121e-02 1.949514e-02 2.006165e-02 2.096468e-02 2.112609e-02 2.132866e-02 2.112695e-02 2.070769e-02 2.020206e-02 1.927038e-02 
2.223810e-02 2.041495e-02 1.898311e-02 1.685385e-02 1.527748e-02 1.296402e-02 1.129593e-02 8.896020e-03 7.175414e-03 4.764557e-03 3.022039e-03 6.571587e-04 -1.079812e-03 -3.356146e-03 -5.058347e-03 -7.213470e-03 -8.846120e-03 -1.085248e-02 -1.237295e-02 -1.420325e-02 -1.556081e-02 -1.718412e-02 -1.832236e-02 -1.970291e-02 -2.056494e-02 -2.166427e-02 -2.220012e-02 -2.298167e-02 -2.315569e-02 -2.358864e-02 -2.338422e-02 -2.344278e-02 -2.286163e-02 -2.251803e-02 -2.157372e-02 -2.078805e-02 -1.949697e-02 -1.821244e-02 -1.658883e-02 -1.474187e-02 -1.280326e-02 -1.035186e-02 -8.135856e-03 -5.099532e-03 -2.684123e-03 8.207567e-04 3.306527e-03 7.055713e-03 9.441038e-03 1.312853e-02 1.522978e-02 1.852704e-02 2.018476e-02 2.281090e-02 2.392036e-02 2.569487e-02 2.621945e-02 2.708042e-02 2.704620e-02 2.703618e-02 2.651369e-02 2.574703e-02 2.482904e-02 2.345587e-02 
2.615938e-02 2.368576e-02 2.171577e-02 1.892636e-02 1.681863e-02 1.387040e-02 1.169887e-02 8.712847e-03 6.533106e-03 3.597050e-03 1.451167e-03 -1.375713e-03 -3.454039e-03 -6.135065e-03 -8.115497e-03 -1.062910e-02 -1.247971e-02 -1.481033e-02 -1.649275e-02 -1.862091e-02 -2.008672e-02 -2.198085e-02 -2.317126e-02 -2.478470e-02 -2.563546e-02 -2.691063e-02 -2.736200e-02 -2.824061e-02 -2.824941e-02 -2.868367e-02 -2.823238e-02 -2.818966e-02 -2.728738e-02 -2.674291e-02 -2.541651e-02 -2.433621e-02 -2.261571e-02 -2.094128e-02 -1.884960e-02 -1.650295e-02 -1.406095e-02 -1.097798e-02 -8.227349e-03 -4.415555e-03 -1.448681e-03 2.955201e-03 5.978166e-03 1.068356e-02 1.354633e-02 1.814294e-02 2.061277e-02 2.465935e-02 2.653705e-02 2.966572e-02 3.082575e-02 3.281555e-02 3.322230e-02 3.401864e-02 3.371742e-02 3.340514e-02 3.249702e-02 3.125057e-02 2.986320e-02 2.789618e-02 
3.020304e-02 2.715416e-02 2.465047e-02 2.127615e-02 1.864196e-02 1.512815e-02 1.245276e-02 8.940660e-03 6.287854e-03 2.877644e-03 2.920793e-04 -2.951526e-03 -5.437401e-03 -8.478400e-03 -1.083714e-02 -1.365941e-02 -1.586083e-02 -1.845633e-02 -2.045965e-02 -2.281460e-02 -2.456234e-02 -2.664528e-02 -2.806224e-02 -2.981955e-02 -3.081974e-02 -3.218214e-02 -3.268363e-02 -3.358180e-02 -3.352544e-02 -3.390688e-02 -3.327104e-02 -3.310675e-02 -3.190993e-02 -3.118258e-02 -2.947003e-02 -2.814749e-02 -2.596755e-02 -2.398056e-02 -2.136585e-02 -1.861311e-02 -1.558430e-02 -1.197687e-02 -8.574515e-03 -4.110059e-03 -4.396473e-04 4.724122e-03 8.463594e-03 1.397766e-02 1.750681e-02 2.287252e-02 2.588689e-02 3.056614e-02 3.280702e-02 3.635513e-02 3.766616e-02 3.982584e-02 4.017395e-02 4.089724e-02 4.035679e-02 3.976650e-02 3.848190e-02 3.680565e-02 3.495076e-02 3.245697e-02 
3.453507e-02 3.072403e-02 2.762043e-02 2.349741e-02 2.027920e-02 1.606588e-02 1.284319e-02 8.701633e-03 5.554356e-03 1.592939e-03 -1.422675e-03 -5.142072e-03 -7.987196e-03 -1.144064e-02 -1.408749e-02 -1.727703e-02 -1.970070e-02 -2.263738e-02 -2.480503e-02 -2.748823e-02 -2.934789e-02 -3.174692e-02 -3.322176e-02 -3.526815e-02 -3.626226e-02 -3.785884e-02 -3.827598e-02 -3.932143e-02 -3.909113e-02 -3.950941e-02 -3.860917e-02 -3.836659e-02 -3.682744e-02 -3.592106e-02 -3.380969e-02 -3.222649e-02 -2.961041e-02 -2.728214e-02 -2.419910e-02 -2.099151e-02 -1.745113e-02 -1.321501e-02 -9.243370e-03 -3.922046e-03 3.719877e-04 6.621494e-03 1.100207e-02 1.774305e-02 2.186356e-02 2.843126e-02 3.191109e-02 3.758289e-02 4.010249e-02 4.429810e-02 4.567207e-02 4.808297e-02 4.828404e-02 4.888949e-02 4.802404e-02 4.702290e-02 4.528035e-02 4.299342e-02 4.059427e-02 3.737805e-02 
3.897271e-02 3.446847e-02 3.077367e-02 2.596833e-02 2.218711e-02 1.733174e-02 1.358536e-02 8.860890e-03 5.231312e-03 7.570336e-04 -2.703978e-03 -6.862331e-03 -1.012457e-02 -1.394641e-02 -1.699191e-02 -2.048946e-02 -2.330050e-02 -2.649898e-02 -2.904268e-02 -3.195374e-02 -3.416683e-02 -3.676299e-02 -3.854455e-02 -4.074793e-02 -4.196799e-02 -4.366288e-02 -4.418896e-02 -4.525642e-02 -4.499111e-02 -4.535028e-02 -4.426443e-02 -4.389475e-02 -4.203706e-02 -4.095803e-02 -3.842911e-02 -3.663869e-02 -3.353760e-02 -3.094898e-02 -2.732305e-02 -2.375287e-02 -1.959391e-02 -1.483216e-02 -1.013851e-02 -4.087749e-03 1.036390e-03 8.208203e-03 1.348083e-02 2.125834e-02 2.623594e-02 3.381794e-02 3.800400e-02 4.451024e-02 4.749001e-02 5.221809e-02 5.376283e-02 5.635651e-02 5.645287e-02 5.691647e-02 5.572464e-02 5.432706e-02 5.210605e-02 4.925211e-02 4.628884e-02 4.241212e-02 
4.376613e-02 3.833482e-02 3.395163e-02 2.827326e-02 2.383451e-02 1.819401e-02 1.384036e-02 8.434909e-03 4.263932e-03 -7.846926e-04 -4.708818e-03 -9.344660e-03 -1.298439e-02 -1.720824e-02 -2.054651e-02 -2.440103e-02 -2.743071e-02 -3.097415e-02 -3.367905e-02 -3.694804e-02 -3.927833e-02 -4.225073e-02 -4.410573e-02 -4.668225e-02 -4.791568e-02 -4.993516e-02 -5.038822e-02 -5.167679e-02 -5.122958e-02 -5.166589e-02 -5.028549e-02 -4.984625e-02 -4.760350e-02 -4.634825e-02 -4.338456e-02 -4.136646e-02 -3.781746e-02 -3.496903e-02 -3.088566e-02 -2.696553e-02 -2.230152e-02 -1.696802e-02 -1.166735e-02 -4.678776e-03 1.177771e-03 9.709823e-03 1.579462e-02 2.523576e-02 3.099471e-02 4.025610e-02 4.506523e-02 5.294305e-02 5.628914e-02 6.186132e-02 6.347526e-02 6.632934e-02 6.621716e-02 6.643399e-02 6.481399e-02 6.280394e-02 6.000592e-02 5.632236e-02 5.269839e-02 4.789861e-02 
4.862514e-02 4.233907e-02 3.728428e-02 3.079679e-02 2.574739e-02 1.936952e-02 1.447029e-02 8.414206e-03 3.756211e-03 -1.847824e-03 -6.214427e-03 -1.130811e-02 -1.536472e-02 -1.995522e-02 -2.370538e-02 -2.785305e-02 -3.130676e-02 -3.509664e-02 -3.824409e-02 -4.173874e-02 -4.451805e-02 -4.770524e-02 -4.998116e-02 -5.274630e-02 -5.431839e-02 -5.646487e-02 -5.711255e-02 -5.843057e-02 -5.798509e-02 -5.834302e-02 -5.675824e-02 -5.616408e-02 -5.354482e-02 -5.211622e-02 -4.867200e-02 -4.650017e-02 -4.243108e-02 -3.942344e-02 -3.479532e-02 -3.061664e-02 -2.533040e-02 -1.951043e-02 -1.342261e-02 -5.616480e-03 1.242557e-03 1.093827e-02 1.818754e-02 2.902963e-02 3.595247e-02 4.663109e-02 5.240316e-02 6.143962e-02 6.538555e-02 7.165146e-02 7.344126e-02 7.646643e-02 7.614905e-02 7.608555e-02 7.398216e-02 7.137333e-02 6.792837e-02 6.346362e-02 5.912562e-02 5.347080e-02 
5.387937e-02 4.644320e-02 4.058533e-02 3.306656e-02 2.726667e-02 2.000183e-02 1.441976e-02 7.628704e-03 2.369971e-03 -3.821691e-03 -8.691804e-03 -1.424323e-02 -1.869470e-02 -2.364630e-02 -2.768334e-02 -3.214472e-02 -3.579686e-02 -3.991053e-02 -4.320265e-02 -4.707957e-02 -4.998115e-02 -5.362613e-02 -5.600731e-02 -5.927512e-02 -6.090625e-02 -6.352269e-02 -6.413096e-02 -6.578453e-02 -6.515276e-02 -6.563111e-02 -6.369923e-02 -6.300445e-02 -5.991646e-02 -5.825941e-02 -5.430787e-02 -5.192201e-02 -4.738966e-02 -4.426157e-02 -3.922521e-02 -3.493269e-02 -2.920282e-02 -2.301164e-02 -1.630319e-02 -7.533948e-03 2.113246e-04 1.166111e-02 2.000392e-02 3.323387e-02 4.125540e-02 5.441434e-02 6.106520e-02 7.207255e-02 7.651209e-02 8.387594e-02 8.572112e-02 8.894033e-02 8.829431e-02 8.771422e-02 8.500835e-02 8.143716e-02 7.723086e-02 7.159379e-02 6.642724e-02 5.955925e-02 
5.911780e-02 5.061989e-02 4.399073e-02 3.550993e-02 2.904770e-02 2.093513e-02 1.479219e-02 7.274318e-03 1.537918e-03 -5.254016e-03 -1.054472e-02 -1.656645e-02 -2.141397e-02 -2.671288e-02 -3.115798e-02 -3.587093e-02 -3.997749e-02 -4.429633e-02 -4.810964e-02 -5.220001e-02 -5.568076e-02 -5.957333e-02 -6.254373e-02 -6.606707e-02 -6.821124e-02 -7.101932e-02 -7.195664e-02 -7.365761e-02 -7.307737e-02 -7.342727e-02 -7.123810e-02 -7.030281e-02 -6.671211e-02 -6.484301e-02 -6.028338e-02 -5.782231e-02 -5.271981e-02 -4.962733e-02 -4.409744e-02 -3.977854e-02 -3.351094e-02 -2.697474e-02 -1.946568e-02 -9.804621e-03 -8.322329e-04 1.213221e-02 2.207434e-02 3.729107e-02 4.698395e-02 6.223833e-02 7.027039e-02 8.296780e-02 8.820607e-02 9.648384e-02 9.846528e-02 1.017737e-01 1.007180e-01 9.958672e-02 9.612545e-02 9.161736e-02 8.649914e-02 7.975817e-02 7.365991e-02 6.566818e-02 
6.473876e-02 5.481182e-02 4.724333e-02 3.754746e-02 3.022667e-02 2.111764e-02 1.420173e-02 5.899681e-03 -5.119011e-04 -7.887123e-03 -1.373313e-02 -2.015947e-02 -2.541859e-02 -3.098840e-02 -3.569509e-02 -4.062105e-02 -4.487132e-02 -4.944443e-02 -5.335464e-02 -5.783461e-02 -6.143732e-02 -6.589983e-02 -6.903645e-02 -7.326961e-02 -7.557054e-02 -7.909571e-02 -8.007533e-02 -8.230724e-02 -8.154979e-02 -8.206976e-02 -7.944136e-02 -7.828174e-02 -7.405524e-02 -7.176360e-02 -6.654114e-02 -6.380065e-02 -5.820846e-02 -5.522176e-02 -4.942352e-02 -4.549025e-02 -3.898309e-02 -3.260921e-02 -2.455621e-02 -1.410378e-02 -4.034685e-03 1.123612e-02 2.275450e-02 4.162445e-02 5.295796e-02 7.209553e-02 8.142624e-02 9.705897e-02 1.029692e-01 1.126323e-01 1.145994e-01 1.178444e-01 1.162287e-01 1.140472e-01 1.096937e-01 1.036378e-01 9.748202e-02 8.905684e-02 8.190052e-02 7.230136e-02 
7.019527e-02 5.896187e-02 5.051277e-02 3.968728e-02 3.165998e-02 2.158628e-02 1.411251e-02 5.001871e-03 -1.851840e-03 -9.875546e-03 -1.608763e-02 -2.298977e-02 -2.858758e-02 -3.445820e-02 -3.953495e-02 -4.462176e-02 -4.933663e-02 -5.401902e-02 -5.853790e-02 -6.319304e-02 -6.755298e-02 -7.232171e-02 -7.630199e-02 -8.092905e-02 -8.402510e-02 -8.788686e-02 -8.942326e-02 -9.175274e-02 -9.112758e-02 -9.140628e-02 -8.840384e-02 -8.677856e-02 -8.178255e-02 -7.913186e-02 -7.303001e-02 -7.031860e-02 -6.406723e-02 -6.148383e-02 -5.536411e-02 -5.189285e-02 -4.515246e-02 -3.880105e-02 -3.010084e-02 -1.875502e-02 -7.183452e-03 1.010660e-02 2.395839e-02 4.576588e-02 5.964126e-02 8.206778e-02 9.348807e-02 1.117156e-01 1.186985e-01 1.295474e-01 1.314903e-01 1.345605e-01 1.321285e-01 1.288713e-01 1.233009e-01 1.157514e-01 1.082824e-01 9.828340e-02 8.989702e-02 7.882348e-02 
7.593177e-02 6.295463e-02 5.342189e-02 4.119286e-02 3.219390e-02 2.102056e-02 1.267140e-02 2.738930e-03 -4.886543e-03 -1.346671e-02 -2.030970e-02 -2.751811e-02 -3.355062e-02 -3.952603e-02 -4.480720e-02 -4.990732e-02 -5.464035e-02 -5.941356e-02 -6.390973e-02 -6.891670e-02 -7.337897e-02 -7.887021e-02 -8.313138e-02 -8.880807e-02 -9.226346e-02 -9.728310e-02 -9.904804e-02 -1.022790e-01 -1.015272e-01 -1.020602e-01 -9.845970e-02 -9.629154e-02 -9.032191e-02 -8.671400e-02 -7.959265e-02 -7.629469e-02 -6.947835e-02 -6.733279e-02 -6.127727e-02 -5.919359e-02 -5.275298e-02 -4.782406e-02 -3.890931e-02 -2.749864e-02 -1.455115e-02 5.770920e-03 2.209493e-02 4.993812e-02 6.640097e-02 9.529109e-02 1.087099e-01 1.314437e-01 1.393305e-01 1.517574e-01 1.534710e-01 1.557627e-01 1.523241e-01 1.469958e-01 1.400555e-01 1.300114e-01 1.211038e-01 1.086951e-01 9.895462e-02 8.577744e-02 
8.125334e-02 6.671606e-02 5.620430e-02 4.268991e-02 3.296559e-02 2.071946e-02 1.184827e-02 1.021372e-03 -6.971030e-03 -1.626049e-02 -2.336636e-02 -3.105840e-02 -3.731361e-02 -4.350856e-02 -4.905896e-02 -5.414113e-02 -5.929969e-02 -6.396875e-02 -6.915647e-02 -7.423448e-02 -7.969388e-02 -8.559252e-02 -9.108673e-02 -9.744005e-02 -1.021625e-01 -1.078454e-01 -1.105808e-01 -1.140605e-01 -1.136028e-01 -1.136698e-01 -1.094660e-01 -1.062780e-01 -9.898432e-02 -9.458835e-02 -8.598469e-02 -8.283358e-02 -7.515052e-02 -7.409331e-02 -6.813702e-02 -6.750244e-02 -6.163704e-02 -5.756909e-02 -4.860907e-02 -3.650194e-02 -2.176284e-02 1.302703e-03 2.131348e-02 5.361821e-02 7.415673e-02 1.085776e-01 1.253484e-01 1.523027e-01 1.615985e-01 1.754422e-01 1.766563e-01 1.780540e-01 1.729979e-01 1.655879e-01 1.566654e-01 1.442337e-01 1.334327e-01 1.188003e-01 1.074509e-01 9.238003e-02 
8.661162e-02 7.003539e-02 5.831715e-02 4.324691e-02 3.245307e-02 1.903011e-02 9.173240e-03 -2.500819e-03 -1.139924e-02 -2.120308e-02 -2.907111e-02 -3.692212e-02 -4.366951e-02 -4.969303e-02 -5.534710e-02 -6.007392e-02 -6.497983e-02 -6.939229e-02 -7.427102e-02 -7.955267e-02 -8.504059e-02 -9.185770e-02 -9.784795e-02 -1.058105e-01 -1.113049e-01 -1.189521e-01 -1.223262e-01 -1.274696e-01 -1.270492e-01 -1.276061e-01 -1.225443e-01 -1.181141e-01 -1.091740e-01 -1.025022e-01 -9.201896e-02 -8.732174e-02 -7.882242e-02 -7.861358e-02 -7.344681e-02 -7.611758e-02 -7.184436e-02 -7.197168e-02 -6.378193e-02 -5.379191e-02 -3.734103e-02 -1.052764e-02 1.383101e-02 5.713380e-02 8.190395e-02 1.277472e-01 1.476960e-01 1.817077e-01 1.921523e-01 2.072121e-01 2.076139e-01 2.064639e-01 1.995370e-01 1.881670e-01 1.771022e-01 1.607195e-01 1.479254e-01 1.299354e-01 1.168835e-01 9.915853e-02 
9.116264e-02 7.283138e-02 6.008373e-02 4.363443e-02 3.214619e-02 1.757602e-02 7.280331e-03 -5.381604e-03 -1.452162e-02 -2.513697e-02 -3.310151e-02 -4.148312e-02 -4.825083e-02 -5.438650e-02 -6.009939e-02 -6.447817e-02 -6.966030e-02 -7.349235e-02 -7.910400e-02 -8.418905e-02 -9.098228e-02 -9.837377e-02 -1.061890e-01 -1.153937e-01 -1.229598e-01 -1.319986e-01 -1.371372e-01 -1.429821e-01 -1.432344e-01 -1.429423e-01 -1.368604e-01 -1.300716e-01 -1.186792e-01 -1.100841e-01 -9.673941e-02 -9.230273e-02 -8.237996e-02 -8.453725e-02 -8.037746e-02 -8.643887e-02 -8.464347e-02 -8.742184e-02 -8.092181e-02 -7.087194e-02 -5.250994e-02 -2.183814e-02 9.058941e-03 5.902786e-02 9.052529e-02 1.465104e-01 1.722215e-01 2.135753e-01 2.256613e-01 2.418933e-01 2.405063e-01 2.366302e-01 2.265305e-01 2.111929e-01 1.969299e-01 1.767951e-01 1.613342e-01 1.403039e-01 1.252216e-01 1.051800e-01 
9.531330e-02 7.477996e-02 6.077892e-02 4.272514e-02 3.012131e-02 1.434523e-02 2.955600e-03 -1.058386e-02 -2.083099e-02 -3.194298e-02 -4.092894e-02 -4.929735e-02 -5.673356e-02 -6.227372e-02 -6.795668e-02 -7.132664e-02 -7.568336e-02 -7.854634e-02 -8.316452e-02 -8.804686e-02 -9.466242e-02 -1.031931e-01 -1.119145e-01 -1.236289e-01 -1.327943e-01 -1.452652e-01 -1.519203e-01 -1.610613e-01 -1.617924e-01 -1.627713e-01 -1.554314e-01 -1.459925e-01 -1.317001e-01 -1.177545e-01 -1.003772e-01 -9.178965e-02 -8.026356e-02 -8.364024e-02 -8.179374e-02 -9.465345e-02 -9.736313e-02 -1.100430e-01 -1.069504e-01 -1.048725e-01 -8.459891e-02 -5.070095e-02 -1.081074e-02 6.196640e-02 1.002316e-01 1.773001e-01 2.081605e-01 2.605872e-01 2.738875e-01 2.889467e-01 2.852420e-01 2.747219e-01 2.611013e-01 2.384950e-01 2.208972e-01 1.947675e-01 1.766169e-01 1.511698e-01 1.340442e-01 1.108858e-01 