# vtk DataFile Version 2.0
Comment goes here
ASCII

DATASET STRUCTURED_POINTS
DIMENSIONS    64   64   1

ORIGIN    0.000   0.000   0.000
SPACING   0.0156250.015625   1.000

POINT_DATA   4096
SCALARS uX double
LOOKUP_TABLE default

-4.221508e-03 -6.330019e-03 8.257483e-04 -7.303687e-04 5.306186e-03 4.344987e-03 8.474807e-03 7.940749e-03 9.013818e-03 8.433356e-03 5.446975e-03 4.164261e-03 -2.152293e-03 -4.473584e-03 -9.735741e-03 -1.344655e-02 -1.176152e-02 -1.809363e-02 -8.994783e-03 -1.615082e-02 -2.327766e-03 -7.966437e-03 7.434999e-03 4.640943e-03 1.930537e-02 1.965477e-02 3.128028e-02 3.426307e-02 3.985066e-02 4.441118e-02 4.168206e-02 4.706209e-02 3.831551e-02 4.368790e-02 3.111950e-02 3.519758e-02 2.071721e-02 2.441066e-02 1.165638e-02 1.528237e-02 5.752576e-03 8.192068e-03 1.201021e-03 1.065937e-03 -5.486704e-03 -7.893913e-03 -1.700563e-02 -1.829419e-02 -3.083894e-02 -2.777817e-02 -3.841256e-02 -3.309131e-02 -3.848706e-02 -3.454934e-02 -3.392475e-02 -3.258689e-02 -2.763132e-02 -2.846701e-02 -2.121518e-02 -2.330341e-02 -1.518851e-02 -1.773717e-02 -9.559065e-03 -1.204458e-02 
-1.216813e-02 -1.347977e-02 -6.635719e-03 -7.654896e-03 -1.988337e-03 -2.479908e-03 1.700034e-03 1.812610e-03 4.227757e-03 4.756127e-03 5.501779e-03 5.892648e-03 6.027126e-03 5.318840e-03 6.955598e-03 3.629285e-03 8.234856e-03 1.227934e-03 8.553983e-03 7.093974e-04 1.076421e-02 5.328830e-03 1.707105e-02 1.538168e-02 2.711546e-02 2.882512e-02 3.822450e-02 4.187357e-02 4.602204e-02 4.968326e-02 4.641879e-02 4.910175e-02 3.979006e-02 4.233322e-02 3.076964e-02 3.438935e-02 2.383722e-02 2.851739e-02 2.048653e-02 2.512643e-02 1.878140e-02 2.131532e-02 1.420141e-02 1.256074e-02 1.941344e-03 -4.033028e-03 -1.901700e-02 -2.559136e-02 -4.184636e-02 -4.344232e-02 -5.649090e-02 -5.285266e-02 -5.940044e-02 -5.417246e-02 -5.395910e-02 -4.986031e-02 -4.483194e-02 -4.272739e-02 -3.514616e-02 -3.477213e-02 -2.630380e-02 -2.704153e-02 -1.866901e-02 -1.992640e-02 
-4.638228e-03 -6.288484e-03 -7.775544e-04 -2.186232e-03 2.407728e-03 1.255602e-03 4.431255e-03 3.409381e-03 4.671319e-03 3.507652e-03 2.723282e-03 1.086153e-03 -8.818471e-04 -3.233800e-03 -4.186326e-03 -7.465378e-03 -4.997865e-03 -9.351169e-03 -2.939307e-03 -7.529710e-03 1.735561e-03 -1.950793e-03 8.415606e-03 6.431900e-03 1.615777e-02 1.615102e-02 2.352380e-02 2.529191e-02 2.866892e-02 3.169582e-02 3.018018e-02 3.390645e-02 2.824411e-02 3.208658e-02 2.354388e-02 2.697346e-02 1.702394e-02 2.010865e-02 1.050788e-02 1.320692e-02 4.882720e-03 6.765440e-03 -4.161210e-04 2.670967e-04 -6.647111e-03 -6.798750e-03 -1.445116e-02 -1.408098e-02 -2.236858e-02 -2.038612e-02 -2.731736e-02 -2.442220e-02 -2.832358e-02 -2.594915e-02 -2.625390e-02 -2.516733e-02 -2.246194e-02 -2.267466e-02 -1.798257e-02 -1.912151e-02 -1.337630e-02 -1.500375e-02 -8.887539e-03 -1.064747e-02 
-1.205046e-02 -1.285135e-02 -7.296820e-03 -8.026253e-03 -3.244619e-03 -3.764716e-03 5.447162e-05 -2.471218e-04 2.546615e-03 2.298188e-03 4.288880e-03 3.728181e-03 5.589551e-03 4.176066e-03 6.910806e-03 4.052471e-03 8.379120e-03 3.987777e-03 9.988780e-03 5.293002e-03 1.275932e-02 9.272116e-03 1.746158e-02 1.600518e-02 2.373602e-02 2.427862e-02 3.006123e-02 3.194278e-02 3.425525e-02 3.660292e-02 3.459182e-02 3.690210e-02 3.120993e-02 3.362203e-02 2.598431e-02 2.880340e-02 2.091452e-02 2.401690e-02 1.675506e-02 1.949734e-02 1.262465e-02 1.402257e-02 6.529191e-03 5.815432e-03 -3.314777e-03 -5.882883e-03 -1.668407e-02 -1.936676e-02 -3.030310e-02 -3.096032e-02 -3.981623e-02 -3.812349e-02 -4.319484e-02 -4.043208e-02 -4.133552e-02 -3.882524e-02 -3.631940e-02 -3.473221e-02 -2.999861e-02 -2.941354e-02 -2.353145e-02 -2.371900e-02 -1.747981e-02 -1.812204e-02 
-4.667426e-03 -5.992736e-03 -1.710047e-03 -2.989686e-03 6.590803e-04 -5.624276e-04 2.151119e-03 9.132274e-04 2.502720e-03 1.101108e-03 1.676037e-03 -5.961717e-05 1.245437e-04 -2.074718e-03 -1.159695e-03 -3.886881e-03 -1.159126e-03 -4.326959e-03 5.223501e-04 -2.631181e-03 3.823293e-03 1.287512e-03 8.337533e-03 6.890884e-03 1.337405e-02 1.322080e-02 1.799336e-02 1.906303e-02 2.116846e-02 2.318921e-02 2.216958e-02 2.478263e-02 2.092089e-02 2.375042e-02 1.776768e-02 2.050611e-02 1.333723e-02 1.586603e-02 8.481853e-03 1.069009e-02 3.695452e-03 5.402389e-03 -1.100779e-03 1.637470e-05 -6.243711e-03 -5.482612e-03 -1.174258e-02 -1.078664e-02 -1.680149e-02 -1.526951e-02 -2.015944e-02 -1.831560e-02 -2.124592e-02 -1.969146e-02 -2.030912e-02 -1.946591e-02 -1.797928e-02 -1.794030e-02 -1.487579e-02 -1.550145e-02 -1.144612e-02 -1.250754e-02 -7.976595e-03 -9.253191e-03 
-1.125771e-02 -1.177908e-02 -7.259699e-03 -7.839413e-03 -3.755105e-03 -4.315281e-03 -7.942405e-04 -1.343560e-03 1.611736e-03 9.606501e-04 3.532748e-03 2.568049e-03 5.151780e-03 3.608547e-03 6.705649e-03 4.384790e-03 8.354985e-03 5.366085e-03 1.026758e-02 7.217734e-03 1.283670e-02 1.047619e-02 1.628359e-02 1.509090e-02 2.029936e-02 2.033514e-02 2.402682e-02 2.501223e-02 2.636141e-02 2.788776e-02 2.650114e-02 2.827996e-02 2.446741e-02 2.643313e-02 2.103336e-02 2.318402e-02 1.708610e-02 1.926274e-02 1.300232e-02 1.483481e-02 8.437091e-03 9.462413e-03 2.605461e-03 2.549904e-03 -5.047393e-03 -5.948151e-03 -1.408936e-02 -1.502138e-02 -2.285115e-02 -2.292231e-02 -2.927868e-02 -2.827355e-02 -3.222972e-02 -3.061836e-02 -3.186390e-02 -3.027481e-02 -2.910413e-02 -2.795767e-02 -2.499195e-02 -2.442709e-02 -2.034073e-02 -2.029705e-02 -1.566734e-02 -1.599112e-02 
-4.346269e-03 -5.441703e-03 -2.057596e-03 -3.221869e-03 -2.182018e-04 -1.435367e-03 1.005140e-03 -2.996798e-04 1.511628e-03 4.742487e-05 1.363285e-03 -3.393151e-04 8.733174e-04 -1.117836e-03 5.723951e-04 -1.696973e-03 9.816927e-04 -1.446978e-03 2.364545e-03 5.131744e-05 4.705015e-03 2.850461e-03 7.740118e-03 6.627770e-03 1.100759e-02 1.077988e-02 1.391359e-02 1.455324e-02 1.585789e-02 1.721795e-02 1.641970e-02 1.827963e-02 1.549678e-02 1.761623e-02 1.326078e-02 1.543293e-02 1.007585e-02 1.216507e-02 6.390924e-03 8.290538e-03 2.520497e-03 4.137566e-03 -1.440614e-03 -1.266800e-04 -5.487315e-03 -4.357907e-03 -9.464694e-03 -8.300171e-03 -1.291904e-02 -1.159045e-02 -1.526681e-02 -1.389462e-02 -1.619242e-02 -1.504924e-02 -1.575882e-02 -1.507057e-02 -1.427052e-02 -1.411995e-02 -1.209500e-02 -1.243566e-02 -9.555752e-03 -1.027127e-02 -6.905737e-03 -7.865498e-03 
-1.005388e-02 -1.043571e-02 -6.731123e-03 -7.239790e-03 -3.725089e-03 -4.316962e-03 -1.090944e-03 -1.773986e-03 1.162825e-03 3.240313e-04 3.085351e-03 1.982531e-03 4.785282e-03 3.306051e-03 6.400966e-03 4.502731e-03 8.058796e-03 5.867927e-03 9.887954e-03 7.737839e-03 1.203893e-02 1.032849e-02 1.453801e-02 1.354888e-02 1.715028e-02 1.695803e-02 1.938647e-02 1.988273e-02 2.066796e-02 2.165612e-02 2.058876e-02 2.189427e-02 1.912371e-02 2.064102e-02 1.659241e-02 1.823517e-02 1.339466e-02 1.501852e-02 9.733621e-03 1.112010e-02 5.517859e-03 6.442168e-03 5.031770e-04 8.670627e-04 -5.391202e-03 -5.438226e-03 -1.177247e-02 -1.184655e-02 -1.773048e-02 -1.743823e-02 -2.221772e-02 -2.143827e-02 -2.458191e-02 -2.349832e-02 -2.478451e-02 -2.369867e-02 -2.323815e-02 -2.239491e-02 -2.052151e-02 -2.003827e-02 -1.717040e-02 -1.704990e-02 -1.359047e-02 -1.376625e-02 
-3.755420e-03 -4.688046e-03 -1.957767e-03 -3.022894e-03 -4.818723e-04 -1.659772e-03 5.743036e-04 -7.245820e-04 1.176424e-03 -2.696813e-04 1.396292e-03 -2.230515e-04 1.435952e-03 -3.602602e-04 1.591066e-03 -3.414054e-04 2.143069e-03 1.808207e-04 3.247184e-03 1.433925e-03 4.893505e-03 3.438485e-03 6.912043e-03 5.992636e-03 9.004523e-03 8.719730e-03 1.079975e-02 1.115391e-02 1.193611e-02 1.285032e-02 1.215851e-02 1.349945e-02 1.138463e-02 1.299816e-02 9.700095e-03 1.144271e-02 7.313837e-03 9.071749e-03 4.486511e-03 6.170630e-03 1.436875e-03 2.983633e-03 -1.695559e-03 -3.037132e-04 -4.800631e-03 -3.520035e-03 -7.706593e-03 -6.461344e-03 -1.013759e-02 -8.897100e-03 -1.179288e-02 -1.062797e-02 -1.249731e-02 -1.154605e-02 -1.226341e-02 -1.165073e-02 -1.124914e-02 -1.103452e-02 -9.677976e-03 -9.850112e-03 -7.776309e-03 -8.276424e-03 -5.744838e-03 -6.496355e-03 
-8.636545e-03 -8.958411e-03 -5.886808e-03 -6.368319e-03 -3.324457e-03 -3.939940e-03 -1.007921e-03 -1.759339e-03 1.046280e-03 1.290815e-04 2.863383e-03 1.734791e-03 4.505059e-03 3.130583e-03 6.052761e-03 4.449061e-03 7.588012e-03 5.862261e-03 9.184714e-03 7.536963e-03 1.089302e-02 9.552222e-03 1.267957e-02 1.181905e-02 1.437759e-02 1.406566e-02 1.570194e-02 1.590460e-02 1.633742e-02 1.695948e-02 1.606393e-02 1.699855e-02 1.484602e-02 1.599931e-02 1.281687e-02 1.409596e-02 1.016639e-02 1.145649e-02 7.020431e-03 8.185637e-03 3.398348e-03 4.318917e-03 -7.191380e-04 -8.631088e-05 -5.248064e-03 -4.825239e-03 -9.878312e-03 -9.488202e-03 -1.407990e-02 -1.354744e-02 -1.727978e-02 -1.654603e-02 -1.909569e-02 -1.824042e-02 -1.945333e-02 -1.862743e-02 -1.854107e-02 -1.788462e-02 -1.668409e-02 -1.628040e-02 -1.422788e-02 -1.409754e-02 -1.146989e-02 -1.158831e-02 
-2.973510e-03 -3.791984e-03 -1.537157e-03 -2.522851e-03 -3.267926e-04 -1.456962e-03 5.971738e-04 -6.689840e-04 1.224329e-03 -1.771146e-04 1.611251e-03 7.864114e-05 1.884110e-03 2.412624e-04 2.211687e-03 5.089826e-04 2.750067e-03 1.076070e-03 3.586323e-03 2.065007e-03 4.709903e-03 3.478104e-03 6.010950e-03 5.186069e-03 7.300272e-03 6.953879e-03 8.347199e-03 8.493363e-03 8.931122e-03 9.530181e-03 8.895357e-03 9.868721e-03 8.183067e-03 9.432646e-03 6.840247e-03 8.266946e-03 4.992465e-03 6.508387e-03 2.804556e-03 4.336651e-03 4.361874e-04 1.929869e-03 -1.978010e-03 -5.517358e-04 -4.312876e-03 -2.956043e-03 -6.422059e-03 -5.126408e-03 -8.129630e-03 -6.908310e-03 -9.268039e-03 -8.175738e-03 -9.739721e-03 -8.858649e-03 -9.548177e-03 -8.953648e-03 -8.784658e-03 -8.518263e-03 -7.591519e-03 -7.654262e-03 -6.126854e-03 -6.488223e-03 -4.542288e-03 -5.155888e-03 
-7.135754e-03 -7.441666e-03 -4.855535e-03 -5.335646e-03 -2.678458e-03 -3.315464e-03 -6.626063e-04 -1.452216e-03 1.167530e-03 2.178613e-04 2.818033e-03 1.698027e-03 4.319526e-03 3.032453e-03 5.716447e-03 4.299494e-03 7.054399e-03 5.593811e-03 8.368762e-03 6.995048e-03 9.668470e-03 8.524617e-03 1.090967e-02 1.010987e-02 1.197888e-02 1.158125e-02 1.270702e-02 1.271066e-02 1.291684e-02 1.327843e-02 1.248422e-02 1.314043e-02 1.137959e-02 1.226065e-02 9.662337e-03 1.069214e-02 7.433488e-03 8.525622e-03 4.783590e-03 5.847011e-03 1.774546e-03 2.734013e-03 -1.529846e-03 -7.062040e-04 -5.003542e-03 -4.288250e-03 -8.412690e-03 -7.733693e-03 -1.143094e-02 -1.071803e-02 -1.372583e-02 -1.295923e-02 -1.506767e-02 -1.429104e-02 -1.539170e-02 -1.468651e-02 -1.478803e-02 -1.423573e-02 -1.344517e-02 -1.310090e-02 -1.158659e-02 -1.147134e-02 -9.424447e-03 -9.531093e-03 
-2.059582e-03 -2.801560e-03 -8.910307e-04 -1.819974e-03 1.143225e-04 -9.764331e-04 9.168590e-04 -3.170194e-04 1.512977e-03 1.522510e-04 1.941027e-03 4.741172e-04 2.277908e-03 7.376953e-04 2.621041e-03 1.059325e-03 3.058242e-03 1.548754e-03 3.637455e-03 2.271786e-03 4.348771e-03 3.223325e-03 5.122091e-03 4.320440e-03 5.839404e-03 5.417156e-03 6.359022e-03 6.336063e-03 6.547233e-03 6.908434e-03 6.309646e-03 7.012156e-03 5.612201e-03 6.595988e-03 4.485096e-03 5.683375e-03 3.010992e-03 4.357842e-03 1.303010e-03 2.737546e-03 -5.186645e-04 9.508574e-04 -2.339783e-03 -8.768770e-04 -4.050574e-03 -2.625390e-03 -5.538452e-03 -4.179211e-03 -6.689824e-03 -5.433793e-03 -7.409028e-03 -6.308607e-03 -7.644808e-03 -6.760188e-03 -7.404675e-03 -6.787919e-03 -6.749728e-03 -6.431290e-03 -5.776627e-03 -5.760841e-03 -4.597440e-03 -4.866602e-03 -3.324219e-03 -3.847310e-03 
-5.626535e-03 -5.941685e-03 -3.721279e-03 -4.217334e-03 -1.871364e-03 -2.534122e-03 -1.314951e-04 -9.517059e-04 1.468790e-03 4.970173e-04 2.922201e-03 1.807414e-03 4.238819e-03 3.001682e-03 5.438830e-03 4.122143e-03 6.543730e-03 5.217824e-03 7.566844e-03 6.324451e-03 8.502077e-03 7.441314e-03 9.311715e-03 8.514720e-03 9.921444e-03 9.439002e-03 1.023083e-02 1.007843e-02 1.013920e-02 1.030305e-02 9.576856e-03 1.002370e-02 8.525873e-03 9.210196e-03 7.019302e-03 7.885831e-03 5.121572e-03 6.106550e-03 2.905947e-03 3.942599e-03 4.461990e-04 1.476190e-03 -2.171180e-03 -1.184374e-03 -4.823545e-03 -3.887921e-03 -7.337957e-03 -6.440416e-03 -9.505359e-03 -8.632125e-03 -1.112496e-02 -1.028239e-02 -1.205740e-02 -1.127855e-02 -1.225759e-02 -1.159214e-02 -1.177385e-02 -1.127094e-02 -1.072159e-02 -1.041609e-02 -9.248588e-03 -9.155764e-03 -7.505417e-03 -7.623113e-03 
-1.049787e-03 -1.747197e-03 -8.192904e-05 -9.792272e-04 7.581259e-04 -3.118119e-04 1.443028e-03 2.252653e-04 1.969969e-03 6.293547e-04 2.362311e-03 9.281647e-04 2.665595e-03 1.176088e-03 2.936127e-03 1.441602e-03 3.223992e-03 1.787527e-03 3.556147e-03 2.249971e-03 3.925591e-03 2.823178e-03 4.289533e-03 3.455612e-03 4.576819e-03 4.058684e-03 4.703025e-03 4.525623e-03 4.589902e-03 4.755412e-03 4.184310e-03 4.675268e-03 3.471171e-03 4.255384e-03 2.476885e-03 3.512325e-03 1.263282e-03 2.501769e-03 -8.491111e-05 1.304673e-03 -1.474093e-03 1.286463e-05 -2.811846e-03 -1.281091e-03 -4.011016e-03 -2.489100e-03 -4.990983e-03 -3.530903e-03 -5.681680e-03 -4.338919e-03 -6.032958e-03 -4.864932e-03 -6.025458e-03 -5.086040e-03 -5.675793e-03 -5.007054e-03 -5.032878e-03 -4.658551e-03 -4.167829e-03 -4.091507e-03 -3.162148e-03 -3.370267e-03 -2.097728e-03 -2.565415e-03 
-4.143686e-03 -4.484710e-03 -2.531727e-03 -3.057961e-03 -9.542424e-04 -1.651985e-03 5.392805e-04 -3.173817e-04 1.917119e-03 9.147081e-04 3.163379e-03 2.033087e-03 4.274804e-03 3.044684e-03 5.256174e-03 3.969325e-03 6.114516e-03 4.830576e-03 6.852461e-03 5.643401e-03 7.461057e-03 6.401406e-03 7.913618e-03 7.068754e-03 8.164468e-03 7.581704e-03 8.155876e-03 7.861052e-03 7.832538e-03 7.831573e-03 7.158331e-03 7.440911e-03 6.127810e-03 6.670311e-03 4.767403e-03 5.534143e-03 3.127516e-03 4.071914e-03 1.272427e-03 2.340483e-03 -7.244937e-04 4.124076e-04 -2.777509e-03 -1.619633e-03 -4.781502e-03 -3.638695e-03 -6.610254e-03 -5.508018e-03 -8.127608e-03 -7.087855e-03 -9.211254e-03 -8.259911e-03 -9.779360e-03 -8.948893e-03 -9.807306e-03 -9.132754e-03 -9.328022e-03 -8.839854e-03 -8.418559e-03 -8.136767e-03 -7.180583e-03 -7.112515e-03 -5.722010e-03 -5.863951e-03 
3.997321e-05 -6.427192e-04 8.548702e-04 -3.801115e-05 1.557037e-03 4.831470e-04 2.127211e-03 9.006391e-04 2.561703e-03 1.211902e-03 2.872808e-03 1.433230e-03 3.086094e-03 1.596903e-03 3.233787e-03 1.743360e-03 3.345264e-03 1.909650e-03 3.437397e-03 2.117354e-03 3.507905e-03 2.363904e-03 3.533809e-03 2.620360e-03 3.475666e-03 2.836589e-03 3.286803e-03 2.952516e-03 2.925474e-03 2.912372e-03 2.366829e-03 2.678015e-03 1.611421e-03 2.237739e-03 6.879889e-04 1.608530e-03 -3.498966e-04 8.320391e-04 -1.431898e-03 -3.360015e-05 -2.480974e-03 -9.229890e-04 -3.422459e-03 -1.771149e-03 -4.190544e-03 -2.518827e-03 -4.732575e-03 -3.116191e-03 -5.012680e-03 -3.525969e-03 -5.015394e-03 -3.726248e-03 -4.748058e-03 -3.712204e-03 -4.240024e-03 -3.495974e-03 -3.538095e-03 -3.104603e-03 -2.699659e-03 -2.576575e-03 -1.785643e-03 -1.957716e-03 -8.548496e-04 -1.297038e-03 
-2.694454e-03 -3.075286e-03 -1.307705e-03 -1.877851e-03 4.685211e-05 -6.984712e-04 1.325795e-03 4.195164e-04 2.497122e-03 1.446201e-03 3.539485e-03 2.365599e-03 4.440866e-03 3.174608e-03 5.196454e-03 3.879769e-03 5.805518e-03 4.491585e-03 6.267234e-03 5.017035e-03 6.575938e-03 5.452102e-03 6.717196e-03 5.777203e-03 6.667002e-03 5.958059e-03 6.395805e-03 5.952534e-03 5.876898e-03 5.721250e-03 5.096234e-03 5.237953e-03 4.059680e-03 4.495825e-03 2.794974e-03 3.508328e-03 1.348632e-03 2.306315e-03 -2.192825e-04 9.348845e-04 -1.839101e-03 -5.474944e-04 -3.432864e-03 -2.067924e-03 -4.914711e-03 -3.539251e-03 -6.193966e-03 -4.865166e-03 -7.183585e-03 -5.951464e-03 -7.813105e-03 -6.720641e-03 -8.041462e-03 -7.124488e-03 -7.864191e-03 -7.150224e-03 -7.312274e-03 -6.819007e-03 -6.443927e-03 -6.178626e-03 -5.333079e-03 -5.293592e-03 -4.058296e-03 -4.235496e-03 
1.209596e-03 5.112845e-04 1.904344e-03 9.867018e-04 2.487916e-03 1.381768e-03 2.947105e-03 1.682292e-03 3.276891e-03 1.884463e-03 3.481195e-03 1.996018e-03 3.572215e-03 2.034948e-03 3.567623e-03 2.025240e-03 3.485793e-03 1.990303e-03 3.340202e-03 1.945873e-03 3.134830e-03 1.894778e-03 2.862252e-03 1.825454e-03 2.505449e-03 1.714940e-03 2.043320e-03 1.535594e-03 1.458624e-03 1.263582e-03 7.462979e-04 8.866284e-04 -8.021787e-05 4.088986e-04 -9.864518e-04 -1.481368e-04 -1.919001e-03 -7.486742e-04 -2.811854e-03 -1.348197e-03 -3.595461e-03 -1.900069e-03 -4.206445e-03 -2.361612e-03 -4.596047e-03 -2.698749e-03 -4.735964e-03 -2.888952e-03 -4.620915e-03 -2.922464e-03 -4.267721e-03 -2.801922e-03 -3.711228e-03 -2.540661e-03 -2.998057e-03 -2.160181e-03 -2.179768e-03 -1.687458e-03 -1.307054e-03 -1.152607e-03 -4.259348e-04 -5.870972e-04 4.239514e-04 -2.240272e-05 
-1.268114e-03 -1.703118e-03 -5.148776e-05 -6.797122e-04 1.123568e-03 3.164305e-04 2.219953e-03 1.247741e-03 3.206136e-03 2.085017e-03 4.056615e-03 2.808521e-03 4.752721e-03 3.408356e-03 5.283203e-03 3.883480e-03 5.643764e-03 4.238861e-03 5.834905e-03 4.480966e-03 5.858182e-03 4.612720e-03 5.712206e-03 4.629902e-03 5.390587e-03 4.520829e-03 4.883539e-03 4.269805e-03 4.183117e-03 3.862935e-03 3.290098e-03 3.293768e-03 2.219723e-03 2.566604e-03 1.004162e-03 1.696904e-03 -3.087211e-04 7.100187e-04 -1.659127e-03 -3.598561e-04 -2.979790e-03 -1.469406e-03 -4.200147e-03 -2.565355e-03 -5.250517e-03 -3.585247e-03 -6.067318e-03 -4.461967e-03 -6.599670e-03 -5.132243e-03 -6.816124e-03 -5.546766e-03 -6.709183e-03 -5.678253e-03 -6.295689e-03 -5.524690e-03 -5.612896e-03 -5.107345e-03 -4.711727e-03 -4.465147e-03 -3.649447e-03 -3.647745e-03 -2.483602e-03 -2.709178e-03 
2.470076e-03 1.723495e-03 3.064950e-03 2.091719e-03 3.543154e-03 2.374912e-03 3.896402e-03 2.562311e-03 4.117588e-03 2.647679e-03 4.202903e-03 2.631469e-03 4.153961e-03 2.521643e-03 3.978680e-03 2.332336e-03 3.690040e-03 2.080417e-03 3.302752e-03 1.781043e-03 2.828974e-03 1.443911e-03 2.274997e-03 1.071815e-03 1.640708e-03 6.622221e-04 9.225878e-04 2.114289e-04 1.195793e-04 -2.802273e-04 -7.599243e-04 -8.040110e-04 -1.692093e-03 -1.340724e-03 -2.634595e-03 -1.861415e-03 -3.527848e-03 -2.330501e-03 -4.301101e-03 -2.710493e-03 -4.882582e-03 -2.967467e-03 -5.211784e-03 -3.076412e-03 -5.251168e-03 -3.025511e-03 -4.994229e-03 -2.818325e-03 -4.467196e-03 -2.472975e-03 -3.723256e-03 -2.018336e-03 -2.831002e-03 -1.488399e-03 -1.861149e-03 -9.167100e-04 -8.758245e-04 -3.325233e-04 7.716783e-05 2.406269e-04 9.650051e-04 7.842664e-04 1.766971e-03 1.283171e-03 
1.570938e-04 -3.483274e-04 1.246291e-03 5.456551e-04 2.278946e-03 1.396142e-03 3.224314e-03 2.169998e-03 4.050870e-03 2.837623e-03 4.728137e-03 3.375124e-03 5.230202e-03 3.766806e-03 5.539839e-03 4.006889e-03 5.651361e-03 4.099341e-03 5.570359e-03 4.055180e-03 5.309621e-03 3.887876e-03 4.882854e-03 3.608868e-03 4.299649e-03 3.225594e-03 3.564733e-03 2.742971e-03 2.682017e-03 2.166935e-03 1.661366e-03 1.507548e-03 5.249443e-04 7.798429e-04 -6.893792e-04 2.570995e-06 -1.928625e-03 -8.033782e-04 -3.128778e-03 -1.614986e-03 -4.220818e-03 -2.404956e-03 -5.137420e-03 -3.138863e-03 -5.819875e-03 -3.774426e-03 -6.225104e-03 -4.265228e-03 -6.331647e-03 -4.568796e-03 -6.142543e-03 -4.655950e-03 -5.683457e-03 -4.517084e-03 -4.996468e-03 -4.162939e-03 -4.131854e-03 -3.620530e-03 -3.140587e-03 -2.926867e-03 -2.069336e-03 -2.123065e-03 -9.585211e-04 -1.250376e-03 
3.838754e-03 3.007749e-03 4.342181e-03 3.281707e-03 4.723299e-03 3.463808e-03 4.977735e-03 3.544349e-03 5.094155e-03 3.512490e-03 5.058885e-03 3.360568e-03 4.862066e-03 3.087844e-03 4.503094e-03 2.702040e-03 3.992908e-03 2.217960e-03 3.351759e-03 1.653943e-03 2.603313e-03 1.028017e-03 1.768112e-03 3.557338e-04 8.599177e-04 -3.491950e-04 -1.131011e-04 -1.071771e-03 -1.142829e-03 -1.791849e-03 -2.213400e-03 -2.481734e-03 -3.293633e-03 -3.106447e-03 -4.332046e-03 -3.626412e-03 -5.256775e-03 -4.001517e-03 -5.982174e-03 -4.195847e-03 -6.421991e-03 -4.182867e-03 -6.506898e-03 -3.950971e-03 -6.202535e-03 -3.508459e-03 -5.522509e-03 -2.885790e-03 -4.530320e-03 -2.132756e-03 -3.327065e-03 -1.310073e-03 -2.028342e-03 -4.779364e-04 -7.396831e-04 3.142191e-04 4.604864e-04 1.033416e-03 1.526576e-03 1.663346e-03 2.441833e-03 2.200333e-03 3.208842e-03 2.647281e-03 
1.608710e-03 1.014480e-03 2.600575e-03 1.814458e-03 3.521569e-03 2.552436e-03 4.347456e-03 3.198466e-03 5.044893e-03 3.720362e-03 5.574881e-03 4.087576e-03 5.900133e-03 4.276866e-03 5.994579e-03 4.277903e-03 5.851430e-03 4.096365e-03 5.485469e-03 3.752459e-03 4.927027e-03 3.274696e-03 4.209936e-03 2.692119e-03 3.360491e-03 2.029789e-03 2.393842e-03 1.309641e-03 1.318962e-03 5.543413e-04 1.484489e-04 -2.103649e-04 -1.091976e-03 -9.574258e-04 -2.358110e-03 -1.663183e-03 -3.587756e-03 -2.311198e-03 -4.706645e-03 -2.891800e-03 -5.637333e-03 -3.396577e-03 -6.308820e-03 -3.810702e-03 -6.666402e-03 -4.108358e-03 -6.681525e-03 -4.255726e-03 -6.359252e-03 -4.221774e-03 -5.738960e-03 -3.991155e-03 -4.885655e-03 -3.571177e-03 -3.874866e-03 -2.989413e-03 -2.777431e-03 -2.284928e-03 -1.649380e-03 -1.498694e-03 -5.287445e-04 -6.672657e-04 5.617808e-04 1.790460e-04 
5.333880e-03 4.378445e-03 5.741649e-03 4.563465e-03 6.030044e-03 4.654180e-03 6.197017e-03 4.638742e-03 6.222389e-03 4.497375e-03 6.076440e-03 4.210522e-03 5.732366e-03 3.767175e-03 5.178741e-03 3.170026e-03 4.426709e-03 2.435393e-03 3.508002e-03 1.588686e-03 2.464367e-03 6.584557e-04 1.334250e-03 -3.276424e-04 1.440758e-04 -1.342825e-03 -1.091900e-03 -2.357303e-03 -2.364231e-03 -3.333556e-03 -3.657144e-03 -4.224628e-03 -4.937043e-03 -4.977024e-03 -6.143318e-03 -5.536422e-03 -7.185175e-03 -5.853438e-03 -7.948921e-03 -5.888558e-03 -8.316307e-03 -5.617126e-03 -8.191197e-03 -5.036010e-03 -7.529444e-03 -4.171415e-03 -6.362852e-03 -3.083535e-03 -4.804469e-03 -1.862192e-03 -3.026352e-03 -6.113257e-04 -1.215640e-03 5.724466e-04 4.702779e-04 1.618086e-03 1.930916e-03 2.488640e-03 3.126871e-03 3.179036e-03 4.066951e-03 3.706450e-03 4.787816e-03 4.097844e-03 
3.115356e-03 2.412662e-03 4.025650e-03 3.145151e-03 4.859199e-03 3.800575e-03 5.598968e-03 4.351014e-03 6.206343e-03 4.757806e-03 6.626402e-03 4.978025e-03 6.800939e-03 4.975245e-03 6.686944e-03 4.731483e-03 6.274254e-03 4.255662e-03 5.592938e-03 3.583466e-03 4.702972e-03 2.766254e-03 3.669355e-03 1.855165e-03 2.538647e-03 8.919489e-04 1.331382e-03 -8.835010e-05 5.172045e-05 -1.048727e-03 -1.294497e-03 -1.945932e-03 -2.683288e-03 -2.736112e-03 -4.063547e-03 -3.386819e-03 -5.357887e-03 -3.886522e-03 -6.472895e-03 -4.244459e-03 -7.313110e-03 -4.478811e-03 -7.794056e-03 -4.598952e-03 -7.855245e-03 -4.592533e-03 -7.475219e-03 -4.427538e-03 -6.684850e-03 -4.071430e-03 -5.568450e-03 -3.515712e-03 -4.245409e-03 -2.787005e-03 -2.839931e-03 -1.938517e-03 -1.453581e-03 -1.030978e-03 -1.506832e-04 -1.156430e-04 1.042022e-03 7.736727e-04 2.125701e-03 1.619313e-03 
6.967252e-03 5.844629e-03 7.260368e-03 5.939374e-03 7.458056e-03 5.950545e-03 7.557763e-03 5.858968e-03 7.521893e-03 5.627762e-03 7.292170e-03 5.217086e-03 6.812326e-03 4.600435e-03 6.052864e-03 3.775529e-03 5.027141e-03 2.764796e-03 3.789032e-03 1.606790e-03 2.411773e-03 3.446644e-04 9.604342e-04 -9.818672e-04 -5.258007e-04 -2.336924e-03 -2.034055e-03 -3.680755e-03 -3.564787e-03 -4.960226e-03 -5.113814e-03 -6.106184e-03 -6.654220e-03 -7.040776e-03 -8.119289e-03 -7.689072e-03 -9.391961e-03 -7.987467e-03 -1.031217e-02 -7.887895e-03 -1.070310e-02 -7.360961e-03 -1.041196e-02 -6.404272e-03 -9.360963e-03 -5.057384e-03 -7.594827e-03 -3.414620e-03 -5.298345e-03 -1.621224e-03 -2.758339e-03 1.543534e-04 -2.782518e-04 1.760852e-03 1.905493e-03 3.097045e-03 3.666092e-03 4.124118e-03 4.983149e-03 4.857823e-03 5.911370e-03 5.348656e-03 6.541619e-03 5.659190e-03 
4.701293e-03 3.871562e-03 5.527311e-03 4.552702e-03 6.290401e-03 5.153495e-03 6.982700e-03 5.647091e-03 7.555050e-03 5.981865e-03 7.923547e-03 6.091658e-03 7.990462e-03 5.914797e-03 7.678119e-03 5.417156e-03 6.965628e-03 4.611157e-03 5.908818e-03 3.559222e-03 4.622325e-03 2.351520e-03 3.225796e-03 1.070398e-03 1.793552e-03 -2.285161e-04 3.417003e-04 -1.505886e-03 -1.148604e-03 -2.714725e-03 -2.694756e-03 -3.788556e-03 -4.283349e-03 -4.654505e-03 -5.855325e-03 -5.261702e-03 -7.307789e-03 -5.603729e-03 -8.514246e-03 -5.720668e-03 -9.348243e-03 -5.675125e-03 -9.698874e-03 -5.513602e-03 -9.484961e-03 -5.235181e-03 -8.678982e-03 -4.790463e-03 -7.336460e-03 -4.120748e-03 -5.604771e-03 -3.213262e-03 -3.687801e-03 -2.122511e-03 -1.785926e-03 -9.464913e-04 -4.619749e-05 2.153618e-04 1.458349e-03 1.293559e-03 2.721929e-03 2.258331e-03 3.783676e-03 3.111818e-03 
8.733065e-03 7.401355e-03 8.874306e-03 7.398579e-03 8.983752e-03 7.349345e-03 9.053812e-03 7.218609e-03 9.015131e-03 6.937644e-03 8.758141e-03 6.429893e-03 8.172181e-03 5.642271e-03 7.193450e-03 4.566964e-03 5.839884e-03 3.241253e-03 4.208893e-03 1.728629e-03 2.432920e-03 9.501325e-05 6.214068e-04 -1.607503e-03 -1.173406e-03 -3.341815e-03 -2.953192e-03 -5.067952e-03 -4.746518e-03 -6.719960e-03 -6.578945e-03 -8.199078e-03 -8.447060e-03 -9.391170e-03 -1.028824e-02 -1.019209e-02 -1.195171e-02 -1.051983e-02 -1.320496e-02 -1.031473e-02 -1.377186e-02 -9.534366e-03 -1.339225e-02 -8.162228e-03 -1.190714e-02 -6.238678e-03 -9.356848e-03 -3.896136e-03 -6.035817e-03 -1.362692e-03 -2.430729e-03 1.088700e-03 9.551973e-04 3.219347e-03 3.763795e-03 4.885203e-03 5.844952e-03 6.053222e-03 7.228484e-03 6.779747e-03 8.053939e-03 7.171323e-03 8.500105e-03 7.345637e-03 
6.378705e-03 5.408822e-03 7.091607e-03 6.040219e-03 7.791983e-03 6.613187e-03 8.485995e-03 7.101711e-03 9.107455e-03 7.430972e-03 9.522488e-03 7.492377e-03 9.559712e-03 7.175630e-03 9.069787e-03 6.411333e-03 8.001206e-03 5.212224e-03 6.453861e-03 3.690156e-03 4.651162e-03 2.009815e-03 2.817748e-03 3.035003e-04 1.068392e-03 -1.369955e-03 -6.087618e-04 -2.991159e-03 -2.292309e-03 -4.515226e-03 -4.052342e-03 -5.839187e-03 -5.900500e-03 -6.832198e-03 -7.767439e-03 -7.402229e-03 -9.504464e-03 -7.546149e-03 -1.092858e-02 -7.359197e-03 -1.186689e-02 -6.987099e-03 -1.216786e-02 -6.544793e-03 -1.170595e-02 -6.043891e-03 -1.041865e-02 -5.378419e-03 -8.377285e-03 -4.408032e-03 -5.826935e-03 -3.094142e-03 -3.115596e-03 -1.543082e-03 -5.698805e-04 6.006641e-05 1.596579e-03 1.545711e-03 3.308648e-03 2.816417e-03 4.603881e-03 3.854348e-03 5.585835e-03 4.697982e-03 
1.059049e-02 9.016326e-03 1.051968e-02 8.903742e-03 1.054827e-02 8.829009e-03 1.065802e-02 8.727985e-03 1.072638e-02 8.474314e-03 1.055334e-02 7.923186e-03 9.925496e-03 6.972609e-03 8.709426e-03 5.609117e-03 6.929940e-03 3.904138e-03 4.773013e-03 1.970580e-03 2.488816e-03 -8.638180e-05 2.653373e-04 -2.201333e-03 -1.835648e-03 -4.354086e-03 -3.857708e-03 -6.528005e-03 -5.887980e-03 -8.651622e-03 -8.008040e-03 -1.057899e-02 -1.026760e-02 -1.213348e-02 -1.263610e-02 -1.316910e-02 -1.492259e-02 -1.358563e-02 -1.678447e-02 -1.331715e-02 -1.778699e-02 -1.229931e-02 -1.747735e-02 -1.047060e-02 -1.551749e-02 -7.837722e-03 -1.188896e-02 -4.568196e-03 -7.057639e-03 -1.022911e-03 -1.884826e-03 2.342754e-03 2.765330e-03 5.142240e-03 6.349483e-03 7.171515e-03 8.721801e-03 8.424436e-03 1.003236e-02 9.037167e-03 1.057613e-02 9.211555e-03 1.067192e-02 9.150709e-03 
8.135876e-03 7.025137e-03 8.667918e-03 7.585480e-03 9.299136e-03 8.156437e-03 1.006097e-02 8.714879e-03 1.086582e-02 9.147955e-03 1.149964e-02 9.272229e-03 1.165726e-02 8.885311e-03 1.104107e-02 7.840780e-03 9.515369e-03 6.135443e-03 7.253090e-03 3.978048e-03 4.709495e-03 1.693218e-03 2.325124e-03 -4.962008e-04 2.715670e-04 -2.562553e-03 -1.551263e-03 -4.571855e-03 -3.357784e-03 -6.514700e-03 -5.321315e-03 -8.221215e-03 -7.500004e-03 -9.434249e-03 -9.811107e-03 -9.969766e-03 -1.201527e-02 -9.819426e-03 -1.382952e-02 -9.182383e-03 -1.502327e-02 -8.368648e-03 -1.539905e-02 -7.633815e-03 -1.475040e-02 -7.016590e-03 -1.291077e-02 -6.271439e-03 -9.927424e-03 -5.039444e-03 -6.211708e-03 -3.212415e-03 -2.378925e-03 -1.015273e-03 1.025364e-03 1.184910e-03 3.694332e-03 3.091657e-03 5.576403e-03 4.572417e-03 6.799484e-03 5.644761e-03 7.577154e-03 6.416809e-03 
1.243712e-02 1.060911e-02 1.206508e-02 1.037018e-02 1.203060e-02 1.033367e-02 1.230231e-02 1.038879e-02 1.267819e-02 1.030822e-02 1.280377e-02 9.817296e-03 1.226874e-02 8.717974e-03 1.079035e-02 6.993664e-03 8.397244e-03 4.794451e-03 5.462729e-03 2.333948e-03 2.482264e-03 -2.112146e-04 -2.140905e-04 -2.757599e-03 -2.576318e-03 -5.343827e-03 -4.751850e-03 -8.035632e-03 -6.936886e-03 -1.077732e-02 -9.296801e-03 -1.333201e-02 -1.198116e-02 -1.539642e-02 -1.506857e-02 -1.676654e-02 -1.831951e-02 -1.733712e-02 -2.122369e-02 -1.706959e-02 -2.311408e-02 -1.587523e-02 -2.321151e-02 -1.358125e-02 -2.079421e-02 -1.007033e-02 -1.562222e-02 -5.515312e-03 -8.421945e-03 -5.060229e-04 -8.186074e-04 4.160379e-03 5.640101e-03 7.834809e-03 1.014719e-02 1.023527e-02 1.266137e-02 1.143726e-02 1.360394e-02 1.173395e-02 1.354690e-02 1.148751e-02 1.302118e-02 1.102936e-02 
9.919417e-03 8.688913e-03 1.014425e-02 9.118981e-03 1.067419e-02 9.710360e-03 1.159095e-02 1.045152e-02 1.279376e-02 1.117330e-02 1.395358e-02 1.156543e-02 1.453146e-02 1.125603e-02 1.392450e-02 9.932400e-03 1.176577e-02 7.508722e-03 8.330895e-03 4.390438e-03 4.606091e-03 1.279513e-03 1.500571e-03 -1.419082e-03 -7.553046e-04 -3.810335e-03 -2.506950e-03 -6.215162e-03 -4.262024e-03 -8.747606e-03 -6.374021e-03 -1.109822e-02 -8.970224e-03 -1.271750e-02 -1.196509e-02 -1.322472e-02 -1.491740e-02 -1.257851e-02 -1.735185e-02 -1.118097e-02 -1.899892e-02 -9.670364e-03 -1.965397e-02 -8.603701e-03 -1.898091e-02 -8.115483e-03 -1.654181e-02 -7.651763e-03 -1.221139e-02 -6.267875e-03 -6.718270e-03 -3.701369e-03 -1.216223e-03 -4.891825e-04 3.356494e-03 2.604955e-03 6.580588e-03 5.064766e-03 8.504362e-03 6.737326e-03 9.441032e-03 7.735554e-03 9.787475e-03 8.299185e-03 