# vtk DataFile Version 2.0
Comment goes here
ASCII

DATASET STRUCTURED_POINTS
DIMENSIONS    64   64   1

ORIGIN    0.000   0.000   0.000
SPACING   0.0156250.015625   1.000

POINT_DATA   4096
SCALARS uX double
LOOKUP_TABLE default

5.700725e-02 6.167603e-02 6.745653e-02 7.151101e-02 7.642013e-02 7.943949e-02 8.291954e-02 8.425530e-02 8.560166e-02 8.455430e-02 8.316145e-02 7.929088e-02 7.497527e-02 6.839577e-02 6.160534e-02 5.307551e-02 4.484349e-02 3.558996e-02 2.725053e-02 1.860905e-02 1.138443e-02 4.372425e-03 -1.051678e-03 -6.114306e-03 -9.869978e-03 -1.349856e-02 -1.647363e-02 -1.974481e-02 -2.311334e-02 -2.706457e-02 -3.165923e-02 -3.673489e-02 -4.266333e-02 -4.854228e-02 -5.522685e-02 -6.103640e-02 -6.753020e-02 -7.221880e-02 -7.755452e-02 -8.021748e-02 -8.364340e-02 -8.371592e-02 -8.479031e-02 -8.211178e-02 -8.070061e-02 -7.549955e-02 -7.174659e-02 -6.458370e-02 -5.887859e-02 -5.053438e-02 -4.344430e-02 -3.473455e-02 -2.687958e-02 -1.845741e-02 -1.037494e-02 -2.625326e-03 5.309629e-03 1.225886e-02 1.984385e-02 2.604551e-02 3.321352e-02 3.880713e-02 4.556134e-02 5.067840e-02 
6.705380e-02 6.962928e-02 7.339620e-02 7.532788e-02 7.825391e-02 7.924261e-02 8.090648e-02 8.046428e-02 8.033083e-02 7.793604e-02 7.555558e-02 7.089462e-02 6.614759e-02 5.933469e-02 5.258714e-02 4.423018e-02 3.629928e-02 2.736598e-02 1.930218e-02 1.084153e-02 3.605777e-03 -3.586159e-03 -9.450820e-03 -1.511521e-02 -1.968837e-02 -2.419205e-02 -2.811559e-02 -3.223420e-02 -3.635764e-02 -4.082867e-02 -4.574568e-02 -5.085613e-02 -5.661163e-02 -6.205168e-02 -6.814517e-02 -7.313964e-02 -7.873366e-02 -8.230731e-02 -8.648262e-02 -8.772514e-02 -8.968740e-02 -8.796159e-02 -8.718239e-02 -8.227185e-02 -7.858666e-02 -7.078655e-02 -6.446137e-02 -5.457772e-02 -4.630101e-02 -3.549078e-02 -2.622216e-02 -1.567381e-02 -6.368715e-03 3.030507e-03 1.167959e-02 1.950440e-02 2.716060e-02 3.339867e-02 4.002068e-02 4.491477e-02 5.063328e-02 5.451472e-02 5.950813e-02 6.266392e-02 
7.622217e-02 7.662427e-02 7.848333e-02 7.829520e-02 7.935378e-02 7.838144e-02 7.834811e-02 7.623171e-02 7.472151e-02 7.107225e-02 6.776791e-02 6.235763e-02 5.719359e-02 5.011914e-02 4.339453e-02 3.512636e-02 2.747729e-02 1.875923e-02 1.099397e-02 2.631627e-03 -4.513864e-03 -1.190669e-02 -1.801356e-02 -2.422406e-02 -2.933612e-02 -3.460958e-02 -3.918099e-02 -4.405462e-02 -4.868734e-02 -5.366059e-02 -5.876448e-02 -6.398932e-02 -6.955577e-02 -7.470659e-02 -8.028502e-02 -8.462608e-02 -8.945210e-02 -9.202011e-02 -9.519914e-02 -9.502446e-02 -9.571565e-02 -9.205430e-02 -8.964996e-02 -8.222197e-02 -7.653014e-02 -6.572910e-02 -5.712535e-02 -4.408759e-02 -3.352943e-02 -1.991545e-02 -8.713882e-03 3.803374e-03 1.439398e-02 2.467384e-02 3.381733e-02 4.146123e-02 4.884479e-02 5.405098e-02 5.976773e-02 6.304645e-02 6.739904e-02 6.931996e-02 7.264591e-02 7.367306e-02 
8.693740e-02 8.521611e-02 8.508277e-02 8.283736e-02 8.201498e-02 7.914674e-02 7.743871e-02 7.368987e-02 7.081074e-02 6.589065e-02 6.160281e-02 5.534221e-02 4.960021e-02 4.207822e-02 3.511539e-02 2.669696e-02 1.900546e-02 1.026581e-02 2.471458e-03 -5.966233e-03 -1.329165e-02 -2.095045e-02 -2.747492e-02 -3.417940e-02 -3.991633e-02 -4.582934e-02 -5.109445e-02 -5.658950e-02 -6.180577e-02 -6.722048e-02 -7.266464e-02 -7.806062e-02 -8.368015e-02 -8.871912e-02 -9.408320e-02 -9.804134e-02 -1.024017e-01 -1.042839e-01 -1.066959e-01 -1.054197e-01 -1.049067e-01 -9.955854e-02 -9.533901e-02 -8.550918e-02 -7.729486e-02 -6.342899e-02 -5.172062e-02 -3.529111e-02 -2.146541e-02 -4.698775e-03 9.328392e-03 2.419225e-02 3.664268e-02 4.813234e-02 5.796797e-02 6.567216e-02 7.268986e-02 7.701757e-02 8.158051e-02 8.333238e-02 8.603306e-02 8.604628e-02 8.745781e-02 8.639911e-02 
9.669976e-02 9.275512e-02 9.074614e-02 8.643760e-02 8.384996e-02 7.914406e-02 7.587092e-02 7.057700e-02 6.642079e-02 6.030950e-02 5.509967e-02 4.803082e-02 4.173852e-02 3.376071e-02 2.656542e-02 1.794577e-02 1.022130e-02 1.389787e-03 -6.389114e-03 -1.496163e-02 -2.235968e-02 -3.030730e-02 -3.706643e-02 -4.424300e-02 -5.035890e-02 -5.686347e-02 -6.255315e-02 -6.863520e-02 -7.419461e-02 -8.006968e-02 -8.568390e-02 -9.134178e-02 -9.693238e-02 -1.020117e-01 -1.071663e-01 -1.109199e-01 -1.148982e-01 -1.162439e-01 -1.180454e-01 -1.157147e-01 -1.142241e-01 -1.070490e-01 -1.013036e-01 -8.867374e-02 -7.827228e-02 -6.068373e-02 -4.622828e-02 -2.562202e-02 -8.879972e-03 1.168432e-02 2.823961e-02 4.568656e-02 5.980799e-02 7.230566e-02 8.276591e-02 9.005780e-02 9.673845e-02 9.964436e-02 1.031406e-01 1.028875e-01 1.040491e-01 1.018015e-01 1.014177e-01 9.805427e-02 
1.081235e-01 1.019393e-01 9.788843e-02 9.152075e-02 8.709333e-02 8.056333e-02 7.569993e-02 6.886366e-02 6.340853e-02 5.607444e-02 4.988294e-02 4.192377e-02 3.495807e-02 2.639263e-02 1.877595e-02 9.794291e-03 1.802235e-03 -7.275661e-03 -1.528510e-02 -2.410221e-02 -3.179538e-02 -4.006935e-02 -4.724164e-02 -5.485236e-02 -6.148665e-02 -6.849664e-02 -7.474145e-02 -8.132675e-02 -8.739315e-02 -9.370280e-02 -9.971939e-02 -1.057141e-01 -1.115922e-01 -1.169098e-01 -1.222479e-01 -1.261186e-01 -1.301492e-01 -1.313809e-01 -1.329722e-01 -1.300522e-01 -1.278156e-01 -1.192163e-01 -1.118149e-01 -9.658325e-02 -8.330946e-02 -6.187503e-02 -4.338210e-02 -1.816122e-02 3.140228e-03 2.810919e-02 4.866322e-02 6.930768e-02 8.591250e-02 9.988686e-02 1.110735e-01 1.182242e-01 1.242020e-01 1.257934e-01 1.276733e-01 1.254233e-01 1.245094e-01 1.199687e-01 1.173629e-01 1.116610e-01 
1.183953e-01 1.098701e-01 1.038970e-01 9.547551e-02 8.931708e-02 8.103099e-02 7.467440e-02 6.638909e-02 5.971561e-02 5.124593e-02 4.413174e-02 3.534047e-02 2.773905e-02 1.860477e-02 1.059265e-02 1.231400e-03 -6.995648e-03 -1.635994e-02 -2.453784e-02 -3.364294e-02 -4.151899e-02 -5.014930e-02 -5.756164e-02 -6.561658e-02 -7.254107e-02 -8.005544e-02 -8.659547e-02 -9.369380e-02 -1.000095e-01 -1.068008e-01 -1.129982e-01 -1.194361e-01 -1.254436e-01 -1.311749e-01 -1.366226e-01 -1.408455e-01 -1.449559e-01 -1.463236e-01 -1.478467e-01 -1.445032e-01 -1.417806e-01 -1.316760e-01 -1.229783e-01 -1.046259e-01 -8.889820e-02 -6.256222e-02 -4.047291e-02 -9.226935e-03 1.617872e-02 4.677489e-02 7.091956e-02 9.513083e-02 1.139840e-01 1.289542e-01 1.408191e-01 1.469321e-01 1.522880e-01 1.516560e-01 1.520620e-01 1.471008e-01 1.442681e-01 1.369626e-01 1.322829e-01 1.239827e-01 
1.302952e-01 1.193398e-01 1.112232e-01 1.006973e-01 9.270638e-02 8.263718e-02 7.475047e-02 6.499312e-02 5.708194e-02 4.743915e-02 3.936440e-02 2.967733e-02 2.136178e-02 1.156878e-02 3.036258e-03 -6.807732e-03 -1.543288e-02 -2.517782e-02 -3.370831e-02 -4.316252e-02 -5.140881e-02 -6.040619e-02 -6.823904e-02 -7.669667e-02 -8.408819e-02 -9.203098e-02 -9.905622e-02 -1.065926e-01 -1.133862e-01 -1.206311e-01 -1.273050e-01 -1.342531e-01 -1.407811e-01 -1.471348e-01 -1.532027e-01 -1.581646e-01 -1.629881e-01 -1.650672e-01 -1.672205e-01 -1.641667e-01 -1.615414e-01 -1.506234e-01 -1.407481e-01 -1.196659e-01 -1.006777e-01 -6.924667e-02 -4.155277e-02 -3.496548e-03 2.883933e-02 6.609195e-02 9.636142e-02 1.251463e-01 1.473470e-01 1.639725e-01 1.762725e-01 1.816109e-01 1.854167e-01 1.825521e-01 1.804312e-01 1.726235e-01 1.669844e-01 1.567544e-01 1.493650e-01 1.383339e-01 
1.406967e-01 1.272570e-01 1.171131e-01 1.045386e-01 9.481236e-02 8.306884e-02 7.373428e-02 6.262860e-02 5.354758e-02 4.284407e-02 3.386159e-02 2.336268e-02 1.437287e-02 3.968332e-03 -5.050060e-03 -1.536621e-02 -2.434674e-02 -3.449106e-02 -4.330576e-02 -5.314546e-02 -6.165040e-02 -7.105658e-02 -7.914248e-02 -8.804106e-02 -9.567325e-02 -1.040773e-01 -1.113119e-01 -1.193212e-01 -1.262888e-01 -1.340430e-01 -1.408925e-01 -1.484597e-01 -1.552486e-01 -1.624279e-01 -1.689403e-01 -1.749724e-01 -1.804611e-01 -1.836972e-01 -1.866010e-01 -1.842798e-01 -1.820615e-01 -1.704939e-01 -1.599107e-01 -1.355514e-01 -1.138373e-01 -7.566849e-02 -4.289534e-02 4.556207e-03 4.320645e-02 8.958283e-02 1.253231e-01 1.591799e-01 1.844191e-01 2.015049e-01 2.142610e-01 2.170994e-01 2.195522e-01 2.129715e-01 2.085667e-01 1.969118e-01 1.886883e-01 1.749719e-01 1.650539e-01 1.510429e-01 
1.524664e-01 1.363829e-01 1.239939e-01 1.092780e-01 9.773998e-02 8.427025e-02 7.348168e-02 6.099310e-02 5.075723e-02 3.895768e-02 2.907096e-02 1.771377e-02 8.022491e-03 -3.052226e-03 -1.262216e-02 -2.347327e-02 -3.291227e-02 -4.350824e-02 -5.274159e-02 -6.299172e-02 -7.191430e-02 -8.171358e-02 -9.023213e-02 -9.951095e-02 -1.075849e-01 -1.163534e-01 -1.240256e-01 -1.323996e-01 -1.398086e-01 -1.479939e-01 -1.553495e-01 -1.635475e-01 -1.710369e-01 -1.792218e-01 -1.868009e-01 -1.943420e-01 -2.013831e-01 -2.065532e-01 -2.113809e-01 -2.109094e-01 -2.103805e-01 -1.994182e-01 -1.889560e-01 -1.621795e-01 -1.370936e-01 -9.192977e-02 -5.097799e-02 7.343578e-03 5.742286e-02 1.146480e-01 1.606005e-01 2.012681e-01 2.308358e-01 2.492889e-01 2.612513e-01 2.617208e-01 2.607662e-01 2.501943e-01 2.416569e-01 2.257711e-01 2.136369e-01 1.960937e-01 1.828187e-01 1.655791e-01 
1.622240e-01 1.435740e-01 1.290422e-01 1.123464e-01 9.907551e-02 8.406465e-02 7.188635e-02 5.819220e-02 4.685446e-02 3.411116e-02 2.336292e-02 1.126454e-02 9.062219e-04 -1.076235e-02 -2.085235e-02 -3.220434e-02 -4.206324e-02 -5.311653e-02 -6.270810e-02 -7.340750e-02 -8.264734e-02 -9.290100e-02 -1.016933e-01 -1.114216e-01 -1.197049e-01 -1.288992e-01 -1.366977e-01 -1.454791e-01 -1.529490e-01 -1.615982e-01 -1.690407e-01 -1.779382e-01 -1.857222e-01 -1.951091e-01 -2.034304e-01 -2.129197e-01 -2.213470e-01 -2.292074e-01 -2.360349e-01 -2.384082e-01 -2.399586e-01 -2.304376e-01 -2.207779e-01 -1.913841e-01 -1.636574e-01 -1.091025e-01 -6.046829e-02 1.355936e-02 7.425250e-02 1.478945e-01 2.027430e-01 2.505757e-01 2.840676e-01 3.008233e-01 3.122277e-01 3.070059e-01 3.030893e-01 2.862276e-01 2.739695e-01 2.526082e-01 2.368695e-01 2.149731e-01 1.985505e-01 1.779604e-01 
1.727572e-01 1.513331e-01 1.345434e-01 1.157582e-01 1.007730e-01 8.416657e-02 7.067072e-02 5.574138e-02 4.338213e-02 2.967091e-02 1.812405e-02 5.255686e-03 -5.738108e-03 -1.803559e-02 -2.865217e-02 -4.054076e-02 -5.086698e-02 -6.240281e-02 -7.244230e-02 -8.359145e-02 -9.328187e-02 -1.039513e-01 -1.131951e-01 -1.232843e-01 -1.319971e-01 -1.414757e-01 -1.496560e-01 -1.586620e-01 -1.664761e-01 -1.754011e-01 -1.832500e-01 -1.927246e-01 -2.012172e-01 -2.118663e-01 -2.215815e-01 -2.334315e-01 -2.443638e-01 -2.558940e-01 -2.665450e-01 -2.734863e-01 -2.796580e-01 -2.739212e-01 -2.676258e-01 -2.376448e-01 -2.077892e-01 -1.436148e-01 -8.271202e-02 1.012405e-02 9.119533e-02 1.839383e-01 2.577060e-01 3.160781e-01 3.540524e-01 3.702373e-01 3.770865e-01 3.658013e-01 3.547291e-01 3.307346e-01 3.117941e-01 2.841718e-01 2.630893e-01 2.362697e-01 2.158072e-01 1.915053e-01 
1.806071e-01 1.567324e-01 1.377550e-01 1.172071e-01 1.005585e-01 8.264841e-02 6.787697e-02 5.195970e-02 3.861498e-02 2.413730e-02 1.182180e-02 -1.661318e-03 -1.326710e-02 -2.608641e-02 -3.721076e-02 -4.958018e-02 -6.035314e-02 -7.236969e-02 -8.282169e-02 -9.447171e-02 -1.045415e-01 -1.157215e-01 -1.252811e-01 -1.358473e-01 -1.447572e-01 -1.546206e-01 -1.628264e-01 -1.720993e-01 -1.797697e-01 -1.889342e-01 -1.965994e-01 -2.065878e-01 -2.151681e-01 -2.271529e-01 -2.377096e-01 -2.523921e-01 -2.654573e-01 -2.818019e-01 -2.962310e-01 -3.096849e-01 -3.209677e-01 -3.213917e-01 -3.196096e-01 -2.903156e-01 -2.595679e-01 -1.828166e-01 -1.095306e-01 1.096368e-02 1.116083e-01 2.380422e-01 3.271754e-01 3.945277e-01 4.366612e-01 4.442283e-01 4.474115e-01 4.238798e-01 4.066016e-01 3.723313e-01 3.473624e-01 3.123249e-01 2.862771e-01 2.543547e-01 2.300577e-01 2.022532e-01 
1.882109e-01 1.616863e-01 1.406483e-01 1.182549e-01 1.001362e-01 8.089553e-02 6.504398e-02 4.813306e-02 3.397368e-02 1.872607e-02 5.777698e-03 -8.329895e-03 -2.045074e-02 -3.380892e-02 -4.538540e-02 -5.825510e-02 -6.946472e-02 -8.197392e-02 -9.288154e-02 -1.050223e-01 -1.155778e-01 -1.272174e-01 -1.372705e-01 -1.482001e-01 -1.575531e-01 -1.676035e-01 -1.761255e-01 -1.853725e-01 -1.931899e-01 -2.022246e-01 -2.099565e-01 -2.200851e-01 -2.289990e-01 -2.420911e-01 -2.539419e-01 -2.716311e-01 -2.879445e-01 -3.101150e-01 -3.307833e-01 -3.532132e-01 -3.741017e-01 -3.850355e-01 -3.941044e-01 -3.705265e-01 -3.435674e-01 -2.544983e-01 -1.629611e-01 -7.008525e-03 1.321698e-01 2.947414e-01 4.241474e-01 5.087556e-01 5.500247e-01 5.497226e-01 5.381710e-01 5.004896e-01 4.692527e-01 4.227594e-01 3.877034e-01 3.439071e-01 3.111203e-01 2.733069e-01 2.445637e-01 2.128399e-01 
1.923908e-01 1.638966e-01 1.408110e-01 1.171018e-01 9.752520e-02 7.736201e-02 6.044667e-02 4.286020e-02 2.790524e-02 1.213846e-02 -1.425272e-03 -1.596223e-02 -2.858748e-02 -4.234353e-02 -5.437231e-02 -6.766200e-02 -7.931855e-02 -9.231190e-02 -1.036855e-01 -1.163894e-01 -1.274168e-01 -1.396666e-01 -1.501330e-01 -1.616261e-01 -1.712169e-01 -1.816370e-01 -1.900810e-01 -1.993637e-01 -2.067039e-01 -2.154524e-01 -2.224186e-01 -2.323277e-01 -2.406393e-01 -2.545256e-01 -2.667772e-01 -2.877007e-01 -3.065309e-01 -3.359311e-01 -3.624447e-01 -3.971072e-01 -4.280249e-01 -4.548662e-01 -4.768771e-01 -4.645766e-01 -4.443477e-01 -3.404895e-01 -2.275131e-01 -2.314510e-02 1.546927e-01 3.973082e-01 5.540875e-01 6.435126e-01 6.860849e-01 6.571516e-01 6.338444e-01 5.719007e-01 5.285568e-01 4.669061e-01 4.226269e-01 3.700166e-01 3.308281e-01 2.878734e-01 2.547978e-01 2.199684e-01 
1.948719e-01 1.643198e-01 1.397013e-01 1.146810e-01 9.407861e-02 7.302822e-02 5.539454e-02 3.716938e-02 2.169025e-02 5.429958e-03 -8.536847e-03 -2.349289e-02 -3.645785e-02 -5.061576e-02 -6.297473e-02 -7.669755e-02 -8.872569e-02 -1.022162e-01 -1.140421e-01 -1.273070e-01 -1.388776e-01 -1.516962e-01 -1.627562e-01 -1.746953e-01 -1.848193e-01 -1.953654e-01 -2.041029e-01 -2.129998e-01 -2.202011e-01 -2.280405e-01 -2.343865e-01 -2.433012e-01 -2.508778e-01 -2.647841e-01 -2.772373e-01 -3.008978e-01 -3.226797e-01 -3.597488e-01 -3.945237e-01 -4.442084e-01 -4.917425e-01 -5.419342e-01 -5.900430e-01 -6.013226e-01 -6.037867e-01 -4.864530e-01 -3.469122e-01 -7.086904e-02 1.741787e-01 4.808060e-01 7.383004e-01 8.636539e-01 8.766485e-01 8.168567e-01 7.552844e-01 6.633145e-01 5.963240e-01 5.158604e-01 4.586431e-01 3.953875e-01 3.491223e-01 3.002146e-01 2.631133e-01 2.248647e-01 
1.933432e-01 1.617862e-01 1.355705e-01 1.099425e-01 8.828316e-02 6.683820e-02 4.847845e-02 2.998084e-02 1.398406e-02 -2.481458e-03 -1.684099e-02 -3.198269e-02 -4.528555e-02 -5.966374e-02 -7.237277e-02 -8.641279e-02 -9.886361e-02 -1.128269e-01 -1.251853e-01 -1.391078e-01 -1.513075e-01 -1.649294e-01 -1.766174e-01 -1.893534e-01 -1.998964e-01 -2.109373e-01 -2.195769e-01 -2.282663e-01 -2.345464e-01 -2.411853e-01 -2.457314e-01 -2.527459e-01 -2.581914e-01 -2.709211e-01 -2.822232e-01 -3.079598e-01 -3.314217e-01 -3.771281e-01 -4.188878e-01 -4.878016e-01 -5.511210e-01 -6.344241e-01 -7.105941e-01 -7.593333e-01 -7.893352e-01 -6.494482e-01 -4.652705e-01 -1.255704e-01 1.798977e-01 6.723927e-01 9.651417e-01 1.072255e+00 1.091485e+00 9.584618e-01 8.698008e-01 7.386224e-01 6.509491e-01 5.533443e-01 4.837675e-01 4.129812e-01 3.596084e-01 3.071644e-01 2.659091e-01 2.258553e-01 
1.884579e-01 1.560518e-01 1.292041e-01 1.031231e-01 8.108139e-02 5.936811e-02 4.076486e-02 2.208682e-02 5.929459e-03 -1.068246e-02 -2.515754e-02 -4.045581e-02 -5.386914e-02 -6.846376e-02 -8.133006e-02 -9.570335e-02 -1.084214e-01 -1.228866e-01 -1.356835e-01 -1.502936e-01 -1.631345e-01 -1.775650e-01 -1.900573e-01 -2.035185e-01 -2.148646e-01 -2.261620e-01 -2.352653e-01 -2.432202e-01 -2.491245e-01 -2.536369e-01 -2.565096e-01 -2.602944e-01 -2.628856e-01 -2.728393e-01 -2.814425e-01 -3.074199e-01 -3.309808e-01 -3.837558e-01 -4.326495e-01 -5.214399e-01 -6.061869e-01 -7.311153e-01 -8.534397e-01 -9.615628e-01 -1.044389e+00 -8.615691e-01 -6.223451e-01 -1.413534e-01 2.002495e-01 6.140492e-01 1.125142e+00 1.425569e+00 1.355335e+00 1.149157e+00 9.959246e-01 8.154524e-01 7.007890e-01 5.816214e-01 5.012981e-01 4.215677e-01 3.635888e-01 3.073143e-01 2.638860e-01 2.220934e-01 
1.794949e-01 1.474536e-01 1.198414e-01 9.404551e-02 7.155707e-02 5.006816e-02 3.119932e-02 1.270676e-02 -3.606673e-03 -2.006227e-02 -3.463724e-02 -4.982328e-02 -6.334093e-02 -7.791602e-02 -9.096963e-02 -1.054987e-01 -1.185778e-01 -1.334752e-01 -1.468848e-01 -1.622857e-01 -1.760106e-01 -1.915897e-01 -2.051326e-01 -2.199200e-01 -2.321741e-01 -2.444908e-01 -2.537830e-01 -2.615774e-01 -2.661720e-01 -2.682772e-01 -2.677675e-01 -2.665490e-01 -2.641703e-01 -2.684385e-01 -2.724988e-01 -2.960518e-01 -3.179853e-01 -3.766533e-01 -4.298721e-01 -5.406562e-01 -6.400029e-01 -8.157792e-01 -9.672356e-01 -1.141994e+00 -1.229467e+00 -8.341853e-01 -4.871694e-01 -1.182997e-01 1.460515e-01 3.814337e-01 5.920965e-01 1.193462e+00 1.471299e+00 1.225298e+00 1.055857e+00 8.562040e-01 7.173008e-01 5.937586e-01 5.014951e-01 4.213527e-01 3.578702e-01 3.019578e-01 2.558686e-01 2.145087e-01 
1.658646e-01 1.346760e-01 1.075742e-01 8.239378e-02 6.027721e-02 3.923527e-02 2.065382e-02 2.492709e-03 -1.357975e-02 -2.979058e-02 -4.415355e-02 -5.918408e-02 -7.253103e-02 -8.708022e-02 -1.000549e-01 -1.147657e-01 -1.279465e-01 -1.433336e-01 -1.571362e-01 -1.734161e-01 -1.879197e-01 -2.047514e-01 -2.194731e-01 -2.356499e-01 -2.493146e-01 -2.625391e-01 -2.729656e-01 -2.800761e-01 -2.845171e-01 -2.829908e-01 -2.796362e-01 -2.713976e-01 -2.627049e-01 -2.588260e-01 -2.546567e-01 -2.720813e-01 -2.870182e-01 -3.458511e-01 -3.971043e-01 -5.209318e-01 -6.273986e-01 -8.420494e-01 -1.006673e+00 -1.227339e+00 -1.204810e+00 -3.363612e-01 -1.173622e-01 -6.561584e-02 8.158151e-02 7.078459e-02 -1.237739e-01 5.218407e-01 1.295443e+00 1.107869e+00 1.026294e+00 8.221790e-01 6.958540e-01 5.700839e-01 4.810618e-01 4.017799e-01 3.399475e-01 2.853994e-01 2.403674e-01 2.001547e-01 
1.489205e-01 1.194771e-01 9.274148e-02 6.871911e-02 4.690390e-02 2.668283e-02 8.368320e-03 -9.159387e-03 -2.497275e-02 -4.065097e-02 -5.476022e-02 -6.933211e-02 -8.247117e-02 -9.667843e-02 -1.095869e-01 -1.241909e-01 -1.375932e-01 -1.532896e-01 -1.677656e-01 -1.849703e-01 -2.007174e-01 -2.192234e-01 -2.357277e-01 -2.542437e-01 -2.698818e-01 -2.855203e-01 -2.972008e-01 -3.052593e-01 -3.085744e-01 -3.037819e-01 -2.949735e-01 -2.767264e-01 -2.582071e-01 -2.401847e-01 -2.256053e-01 -2.309446e-01 -2.378629e-01 -2.913615e-01 -3.383887e-01 -4.676986e-01 -5.638776e-01 -8.024384e-01 -8.779289e-01 -1.124975e+00 -5.371477e-01 -6.550950e-02 -1.155704e-01 -1.458917e-01 -8.793816e-02 -3.780289e-01 -1.346070e-01 3.169367e-01 4.891781e-01 8.808434e-01 8.077597e-01 7.519965e-01 6.253116e-01 5.344146e-01 4.441676e-01 3.760696e-01 3.142766e-01 2.647806e-01 2.201732e-01 1.827730e-01 
1.270563e-01 1.001055e-01 7.495050e-02 5.254150e-02 3.179949e-02 1.268674e-02 -4.846976e-03 -2.156059e-02 -3.674862e-02 -5.178850e-02 -6.534578e-02 -7.940981e-02 -9.204645e-02 -1.059075e-01 -1.184121e-01 -1.329460e-01 -1.461737e-01 -1.622662e-01 -1.769951e-01 -1.952862e-01 -2.119346e-01 -2.323739e-01 -2.505983e-01 -2.717847e-01 -2.899451e-01 -3.082463e-01 -3.227373e-01 -3.315036e-01 -3.362867e-01 -3.267891e-01 -3.147406e-01 -2.834464e-01 -2.535878e-01 -2.189035e-01 -1.874241e-01 -1.758382e-01 -1.647225e-01 -2.036556e-01 -2.325029e-01 -3.428851e-01 -4.009165e-01 -5.959666e-01 -5.299227e-01 -6.757884e-01 3.504155e-01 2.290731e-01 -3.397322e-03 2.846104e-01 1.151104e-01 1.419275e-01 1.802652e-01 -7.937116e-02 -1.733753e-01 4.365965e-01 5.028548e-01 5.753623e-01 5.028643e-01 4.536750e-01 3.810119e-01 3.285474e-01 2.743344e-01 2.322679e-01 1.917411e-01 1.584507e-01 
1.032725e-01 7.896328e-02 5.530190e-02 3.467158e-02 1.494975e-02 -2.896314e-03 -1.965661e-02 -3.537603e-02 -4.989209e-02 -6.405005e-02 -7.695945e-02 -9.017576e-02 -1.021964e-01 -1.152747e-01 -1.273133e-01 -1.412968e-01 -1.544424e-01 -1.705217e-01 -1.858664e-01 -2.050817e-01 -2.233643e-01 -2.460875e-01 -2.671733e-01 -2.922990e-01 -3.144028e-01 -3.380390e-01 -3.564910e-01 -3.700135e-01 -3.757644e-01 -3.646053e-01 -3.450658e-01 -2.962216e-01 -2.479464e-01 -1.845852e-01 -1.338523e-01 -9.563827e-02 -6.832164e-02 -8.488865e-02 -1.062549e-01 -1.818398e-01 -2.396422e-01 -3.525768e-01 -3.463763e-01 -3.585429e-01 1.260755e-02 1.245031e-01 -8.386270e-02 1.911691e-01 -1.794876e-01 8.992545e-02 2.107645e-01 -2.283528e-01 1.487814e-01 2.242004e-01 4.098377e-01 4.367464e-01 4.187743e-01 3.778889e-01 3.241209e-01 2.804759e-01 2.340283e-01 1.981005e-01 1.615764e-01 1.323147e-01 
7.566558e-02 5.474874e-02 3.337359e-02 1.497840e-02 -3.181950e-03 -1.946998e-02 -3.509226e-02 -4.963374e-02 -6.322188e-02 -7.639324e-02 -8.843448e-02 -1.007593e-01 -1.118968e-01 -1.241940e-01 -1.353729e-01 -1.488444e-01 -1.613408e-01 -1.774985e-01 -1.927355e-01 -2.130877e-01 -2.322228e-01 -2.576683e-01 -2.810258e-01 -3.108391e-01 -3.370649e-01 -3.670236e-01 -3.915154e-01 -4.104548e-01 -4.225089e-01 -4.082703e-01 -3.884485e-01 -3.160046e-01 -2.491143e-01 -1.576024e-01 -7.705360e-02 -8.201463e-03 4.970957e-02 5.735679e-02 5.526366e-02 2.115092e-02 -1.978820e-02 -4.179767e-02 -8.364095e-02 3.732695e-02 -2.578403e-01 -3.233195e-01 4.345791e-02 -2.805110e-01 -3.298296e-01 -3.014282e-01 -1.065923e-01 4.061351e-02 1.275149e-01 1.417286e-01 2.410390e-01 3.020648e-01 2.972394e-01 2.874375e-01 2.479323e-01 2.207630e-01 1.830508e-01 1.561984e-01 1.250981e-01 1.012351e-01 
4.728625e-02 2.938426e-02 1.024743e-02 -6.100689e-03 -2.274817e-02 -3.756399e-02 -5.205151e-02 -6.539848e-02 -7.797905e-02 -8.999730e-02 -1.009885e-01 -1.120457e-01 -1.220409e-01 -1.329465e-01 -1.430260e-01 -1.551983e-01 -1.669948e-01 -1.824155e-01 -1.978903e-01 -2.187418e-01 -2.396911e-01 -2.677279e-01 -2.951600e-01 -3.307473e-01 -3.638969e-01 -4.039733e-01 -4.379273e-01 -4.708316e-01 -4.908082e-01 -4.850320e-01 -4.577804e-01 -3.560560e-01 -2.536824e-01 -1.078179e-01 4.014664e-03 1.164993e-01 2.056024e-01 2.368675e-01 2.467020e-01 2.489337e-01 2.331708e-01 2.899741e-01 2.864482e-01 5.085600e-01 1.823920e-01 -8.935059e-02 4.762370e-01 6.207051e-02 6.246969e-01 3.405261e-01 -3.518791e-02 1.847576e-01 -1.681987e-01 2.352874e-02 6.327789e-02 1.712008e-01 1.835154e-01 1.988795e-01 1.760404e-01 1.616715e-01 1.336364e-01 1.140617e-01 8.864224e-02 6.936029e-02 
1.711268e-02 2.662449e-03 -1.393885e-02 -2.790996e-02 -4.280757e-02 -5.591283e-02 -6.911790e-02 -8.111184e-02 -9.261197e-02 -1.033913e-01 -1.132727e-01 -1.230389e-01 -1.317316e-01 -1.412619e-01 -1.498387e-01 -1.607345e-01 -1.710768e-01 -1.857895e-01 -2.003774e-01 -2.218859e-01 -2.431770e-01 -2.743317e-01 -3.041250e-01 -3.466797e-01 -3.853132e-01 -4.375803e-01 -4.817254e-01 -5.310056e-01 -5.667650e-01 -5.683156e-01 -5.537570e-01 -4.040105e-01 -2.743478e-01 -9.311897e-02 6.767269e-02 2.337158e-01 3.800680e-01 4.230722e-01 4.437990e-01 4.621098e-01 4.625731e-01 5.419624e-01 5.566589e-01 7.139848e-01 4.567267e-01 1.611837e-01 1.694996e-01 -1.262904e-01 1.296287e-01 2.318857e-01 1.415036e-01 2.562744e-02 -1.805334e-01 -9.523306e-02 -4.173453e-02 5.327056e-02 8.359471e-02 1.117793e-01 1.033734e-01 1.003614e-01 8.126143e-02 6.933843e-02 4.960055e-02 3.542838e-02 
-1.305523e-02 -2.470300e-02 -3.884999e-02 -5.089761e-02 -6.413695e-02 -7.586166e-02 -8.782148e-02 -9.865667e-02 -1.089828e-01 -1.184930e-01 -1.269711e-01 -1.350581e-01 -1.419459e-01 -1.492590e-01 -1.557454e-01 -1.641227e-01 -1.726098e-01 -1.851852e-01 -1.989934e-01 -2.197113e-01 -2.423013e-01 -2.752242e-01 -3.096416e-01 -3.584564e-01 -4.068914e-01 -4.736443e-01 -5.348768e-01 -6.127650e-01 -6.702602e-01 -7.115560e-01 -6.945823e-01 -4.982747e-01 -3.029312e-01 -2.669972e-02 1.595220e-01 3.899585e-01 6.077288e-01 6.527181e-01 6.588296e-01 6.675249e-01 6.659746e-01 7.342407e-01 7.477779e-01 8.033229e-01 5.640433e-01 1.318419e-01 -1.409507e-01 -2.998707e-01 -5.086838e-01 -2.802762e-01 -2.419375e-02 -2.306265e-01 -2.492318e-01 -2.172987e-01 -1.482029e-01 -5.669574e-02 -1.025619e-02 2.917208e-02 3.496655e-02 4.121222e-02 3.130731e-02 2.550786e-02 1.157441e-02 1.514222e-03 
-4.294192e-02 -5.164313e-02 -6.343805e-02 -7.337255e-02 -8.499138e-02 -9.516137e-02 -1.059592e-01 -1.155088e-01 -1.248324e-01 -1.330158e-01 -1.403040e-01 -1.467305e-01 -1.519019e-01 -1.570604e-01 -1.611513e-01 -1.670166e-01 -1.727250e-01 -1.830069e-01 -1.944870e-01 -2.142720e-01 -2.358801e-01 -2.708490e-01 -3.064456e-01 -3.626910e-01 -4.153396e-01 -4.988132e-01 -5.680739e-01 -6.756939e-01 -7.460308e-01 -8.184349e-01 -8.363009e-01 -5.328481e-01 -3.332119e-01 -8.012664e-02 1.490990e-01 4.778636e-01 8.290266e-01 8.670405e-01 8.471491e-01 8.391868e-01 8.144107e-01 8.537248e-01 8.407632e-01 8.175266e-01 5.722942e-01 1.904222e-01 -1.497271e-02 -3.681153e-03 -7.703498e-02 -1.786946e-01 -1.481542e-01 -2.661050e-01 -2.942083e-01 -2.709241e-01 -2.137935e-01 -1.337037e-01 -8.355228e-02 -4.025289e-02 -2.596368e-02 -1.315318e-02 -1.625256e-02 -1.663527e-02 -2.575077e-02 -3.175594e-02 
-7.233014e-02 -7.884928e-02 -8.846414e-02 -9.693114e-02 -1.071290e-01 -1.163300e-01 -1.261130e-01 -1.348696e-01 -1.431506e-01 -1.502440e-01 -1.559427e-01 -1.604009e-01 -1.629840e-01 -1.648591e-01 -1.653462e-01 -1.667920e-01 -1.686513e-01 -1.744282e-01 -1.831042e-01 -1.995681e-01 -2.206595e-01 -2.544621e-01 -2.929924e-01 -3.512100e-01 -4.120400e-01 -5.027908e-01 -5.867725e-01 -7.140242e-01 -7.962096e-01 -9.462463e-01 -8.974742e-01 -6.232522e-01 -3.130243e-01 2.008411e-02 1.098886e-01 4.835456e-01 9.505495e-01 1.064600e+00 9.987325e-01 9.606570e-01 9.124106e-01 9.165285e-01 8.879413e-01 8.214279e-01 6.136334e-01 3.347873e-01 1.723812e-01 1.521797e-01 1.323822e-01 1.677784e-02 -9.596911e-02 -2.320246e-01 -2.846892e-01 -3.023991e-01 -2.599612e-01 -1.983796e-01 -1.466890e-01 -1.033355e-01 -8.146925e-02 -6.428613e-02 -6.074456e-02 -5.711976e-02 -6.146929e-02 -6.442025e-02 
-9.982526e-02 -1.041545e-01 -1.118946e-01 -1.187831e-01 -1.277618e-01 -1.358512e-01 -1.448893e-01 -1.527336e-01 -1.604301e-01 -1.663924e-01 -1.711503e-01 -1.737277e-01 -1.743238e-01 -1.731218e-01 -1.700221e-01 -1.671452e-01 -1.640704e-01 -1.648254e-01 -1.688288e-01 -1.811063e-01 -1.989743e-01 -2.310252e-01 -2.679311e-01 -3.281274e-01 -3.863975e-01 -4.833135e-01 -5.466545e-01 -6.747027e-01 -6.373190e-01 -7.616228e-01 -2.978939e-01 -4.854317e-01 -6.946782e-03 2.445773e-01 1.404705e-01 4.330246e-01 3.686339e-01 9.859584e-01 9.677726e-01 1.007949e+00 9.537462e-01 9.453285e-01 9.040921e-01 8.297524e-01 6.667895e-01 4.670212e-01 3.236331e-01 2.669503e-01 2.001094e-01 6.401306e-02 -5.566995e-02 -2.092366e-01 -2.813555e-01 -3.153250e-01 -2.906119e-01 -2.425557e-01 -1.953594e-01 -1.534159e-01 -1.284216e-01 -1.082736e-01 -1.005606e-01 -9.358757e-02 -9.444900e-02 -9.456135e-02 
-1.265087e-01 -1.294085e-01 -1.355710e-01 -1.416582e-01 -1.498039e-01 -1.576539e-01 -1.663355e-01 -1.742149e-01 -1.815042e-01 -1.871154e-01 -1.905246e-01 -1.912552e-01 -1.884739e-01 -1.827319e-01 -1.737458e-01 -1.635111e-01 -1.533214e-01 -1.459469e-01 -1.438746e-01 -1.492614e-01 -1.634528e-01 -1.898763e-01 -2.249019e-01 -2.771381e-01 -3.326271e-01 -4.039151e-01 -4.505277e-01 -4.702740e-01 -3.697369e-01 -1.152504e-01 2.707327e-01 7.839013e-02 1.356974e-01 -5.619623e-02 -3.730681e-02 -5.736476e-02 -2.536155e-01 5.048788e-01 7.480663e-01 8.580873e-01 8.824435e-01 8.873613e-01 8.659844e-01 8.020193e-01 6.809816e-01 5.253582e-01 3.946617e-01 2.890764e-01 1.807203e-01 4.119295e-02 -8.655634e-02 -2.174707e-01 -2.895547e-01 -3.309593e-01 -3.165705e-01 -2.811872e-01 -2.374844e-01 -1.985909e-01 -1.707091e-01 -1.490673e-01 -1.373298e-01 -1.280823e-01 -1.255724e-01 -1.236986e-01 
-1.502317e-01 -1.517125e-01 -1.565838e-01 -1.617648e-01 -1.692692e-01 -1.767096e-01 -1.853626e-01 -1.930981e-01 -2.007039e-01 -2.058658e-01 -2.092214e-01 -2.082444e-01 -2.037205e-01 -1.940104e-01 -1.800039e-01 -1.631243e-01 -1.442815e-01 -1.276580e-01 -1.173777e-01 -1.136334e-01 -1.219218e-01 -1.407061e-01 -1.718523e-01 -2.153435e-01 -2.681371e-01 -3.238283e-01 -3.704848e-01 -3.647733e-01 -3.156519e-01 -1.096723e-01 3.299370e-02 4.600349e-01 1.394878e-01 1.755257e-01 2.854183e-01 1.707953e-01 2.888631e-01 3.602026e-01 7.521189e-01 7.530260e-01 8.343072e-01 8.280801e-01 8.245229e-01 7.725534e-01 6.828328e-01 5.598306e-01 4.362060e-01 3.118285e-01 1.813901e-01 3.343756e-02 -8.839163e-02 -2.144281e-01 -2.882860e-01 -3.353162e-01 -3.315514e-01 -3.063450e-01 -2.687451e-01 -2.331777e-01 -2.051788e-01 -1.827403e-01 -1.688446e-01 -1.577569e-01 -1.529680e-01 -1.492925e-01 
-1.728219e-01 -1.735324e-01 -1.775484e-01 -1.826502e-01 -1.901672e-01 -1.983673e-01 -2.078196e-01 -2.170289e-01 -2.256809e-01 -2.322397e-01 -2.354559e-01 -2.338268e-01 -2.255222e-01 -2.101055e-01 -1.866972e-01 -1.576071e-01 -1.262767e-01 -9.602283e-02 -7.508038e-02 -6.074795e-02 -6.242978e-02 -7.378534e-02 -9.860978e-02 -1.346060e-01 -1.771925e-01 -2.272908e-01 -2.606931e-01 -2.878005e-01 -2.450546e-01 -2.275215e-01 7.401699e-02 1.205807e-01 1.119996e-03 1.546256e-01 7.843126e-02 3.146867e-01 1.490323e-01 5.091016e-03 3.886864e-01 5.140422e-01 6.545695e-01 7.051148e-01 7.321067e-01 7.118389e-01 6.544317e-01 5.614410e-01 4.518720e-01 3.246498e-01 1.903431e-01 4.386458e-02 -8.756996e-02 -2.114487e-01 -2.912864e-01 -3.420929e-01 -3.464391e-01 -3.294105e-01 -2.966732e-01 -2.645226e-01 -2.362559e-01 -2.136475e-01 -1.976339e-01 -1.853291e-01 -1.783811e-01 -1.735016e-01 
-1.918496e-01 -1.917618e-01 -1.949859e-01 -1.998548e-01 -2.073236e-01 -2.160086e-01 -2.263489e-01 -2.366473e-01 -2.470696e-01 -2.545956e-01 -2.597033e-01 -2.572757e-01 -2.488675e-01 -2.289535e-01 -1.995952e-01 -1.618012e-01 -1.144792e-01 -6.840618e-02 -3.402100e-02 -4.145316e-03 2.890058e-03 3.372280e-03 -1.415388e-02 -3.297304e-02 -6.638710e-02 -8.260993e-02 -1.128664e-01 -7.119189e-02 -5.851386e-02 1.980600e-01 2.078384e-01 -1.021846e-01 2.237940e-02 -1.659526e-01 -1.345248e-01 3.666666e-02 -7.577066e-02 -1.134920e-01 1.708062e-02 3.051732e-01 4.575899e-01 5.733627e-01 6.243624e-01 6.375336e-01 6.053185e-01 5.370565e-01 4.397637e-01 3.181603e-01 1.852311e-01 3.952926e-02 -8.921495e-02 -2.105519e-01 -2.910676e-01 -3.450257e-01 -3.556203e-01 -3.452678e-01 -3.175283e-01 -2.885529e-01 -2.611530e-01 -2.386199e-01 -2.215285e-01 -2.082281e-01 -1.997994e-01 -1.938167e-01 