# vtk DataFile Version 2.0
Comment goes here
ASCII

DATASET STRUCTURED_POINTS
DIMENSIONS    64   64   1

ORIGIN    0.000   0.000   0.000
SPACING   0.0156250.015625   1.000

POINT_DATA   4096
SCALARS uX double
LOOKUP_TABLE default

-6.220260e-02 -5.220500e-02 -4.289837e-02 -3.277729e-02 -2.361638e-02 -1.380889e-02 -5.247582e-03 3.689258e-03 1.114371e-02 1.864752e-02 2.472721e-02 3.060603e-02 3.577407e-02 4.057525e-02 4.626771e-02 5.109811e-02 5.878718e-02 6.405100e-02 7.250950e-02 7.829326e-02 8.560624e-02 9.211332e-02 9.821687e-02 1.053858e-01 1.104445e-01 1.169942e-01 1.196983e-01 1.230893e-01 1.213340e-01 1.194049e-01 1.122695e-01 1.048530e-01 9.350669e-02 8.235398e-02 6.919397e-02 5.667842e-02 4.396059e-02 3.186450e-02 2.077799e-02 9.621123e-03 -7.760741e-05 -1.103365e-02 -2.059692e-02 -3.246121e-02 -4.293290e-02 -5.590944e-02 -6.706623e-02 -7.997607e-02 -9.041344e-02 -1.013808e-01 -1.094306e-01 -1.168777e-01 -1.214010e-01 -1.245887e-01 -1.252680e-01 -1.243317e-01 -1.215645e-01 -1.172251e-01 -1.117865e-01 -1.049602e-01 -9.767367e-02 -8.919638e-02 -8.075458e-02 -7.127715e-02 
-5.584526e-02 -4.701556e-02 -3.868966e-02 -2.970616e-02 -2.146833e-02 -1.272405e-02 -4.955086e-03 3.104716e-03 1.003693e-02 1.699923e-02 2.295081e-02 2.865954e-02 3.399840e-02 3.873572e-02 4.435559e-02 4.871996e-02 5.531674e-02 5.971822e-02 6.651061e-02 7.123781e-02 7.713457e-02 8.251718e-02 8.744205e-02 9.325665e-02 9.713527e-02 1.022138e-01 1.040188e-01 1.064486e-01 1.047018e-01 1.029365e-01 9.699559e-02 9.089180e-02 8.156014e-02 7.233731e-02 6.132797e-02 5.070342e-02 3.968925e-02 2.900646e-02 1.892328e-02 8.662805e-03 -5.454419e-04 -1.074181e-02 -1.980313e-02 -3.052480e-02 -4.002373e-02 -5.126817e-02 -6.095678e-02 -7.182305e-02 -8.066550e-02 -8.979255e-02 -9.656702e-02 -1.027959e-01 -1.066475e-01 -1.094057e-01 -1.100700e-01 -1.094161e-01 -1.071601e-01 -1.036009e-01 -9.899946e-02 -9.322605e-02 -8.692822e-02 -7.961341e-02 -7.220008e-02 -6.390523e-02 
-4.991747e-02 -4.211788e-02 -3.481738e-02 -2.688884e-02 -1.966028e-02 -1.196387e-02 -5.122586e-03 1.976515e-03 8.168555e-03 1.438275e-02 1.986494e-02 2.514885e-02 3.022583e-02 3.487180e-02 4.015446e-02 4.462196e-02 5.051517e-02 5.502906e-02 6.102681e-02 6.563537e-02 7.094542e-02 7.565557e-02 7.996915e-02 8.455533e-02 8.761331e-02 9.126210e-02 9.231489e-02 9.372550e-02 9.182191e-02 8.993762e-02 8.470904e-02 7.941362e-02 7.146401e-02 6.359407e-02 5.416744e-02 4.495556e-02 3.529670e-02 2.575868e-02 1.661496e-02 7.190815e-03 -1.367327e-03 -1.079582e-02 -1.915041e-02 -2.884972e-02 -3.729649e-02 -4.714571e-02 -5.544609e-02 -6.473583e-02 -7.213529e-02 -7.984919e-02 -8.546461e-02 -9.072809e-02 -9.392611e-02 -9.628827e-02 -9.685466e-02 -9.633616e-02 -9.445034e-02 -9.142525e-02 -8.751564e-02 -8.252705e-02 -7.710702e-02 -7.071360e-02 -6.427050e-02 -5.696629e-02 
-4.388894e-02 -3.706242e-02 -3.059021e-02 -2.361780e-02 -1.717014e-02 -1.036610e-02 -4.205705e-03 2.130753e-03 7.804656e-03 1.344359e-02 1.859059e-02 2.346644e-02 2.828496e-02 3.254281e-02 3.738487e-02 4.129090e-02 4.632868e-02 5.009364e-02 5.499057e-02 5.875379e-02 6.302718e-02 6.684947e-02 7.025989e-02 7.389907e-02 7.617958e-02 7.893989e-02 7.951251e-02 8.040911e-02 7.860470e-02 7.687168e-02 7.243956e-02 6.798155e-02 6.134812e-02 5.475088e-02 4.681075e-02 3.897048e-02 3.065006e-02 2.234367e-02 1.424074e-02 5.866875e-03 -1.880334e-03 -1.029188e-02 -1.784989e-02 -2.636678e-02 -3.384892e-02 -4.229111e-02 -4.946382e-02 -5.727405e-02 -6.356364e-02 -6.998755e-02 -7.473404e-02 -7.911871e-02 -8.183864e-02 -8.383240e-02 -8.434785e-02 -8.394490e-02 -8.237607e-02 -7.984401e-02 -7.651388e-02 -7.226849e-02 -6.758566e-02 -6.207782e-02 -5.644945e-02 -5.009835e-02 
-3.838636e-02 -3.242540e-02 -2.681672e-02 -2.073208e-02 -1.513546e-02 -9.200971e-03 -3.830671e-03 1.713068e-03 6.710850e-03 1.170201e-02 1.631060e-02 2.072891e-02 2.509729e-02 2.907632e-02 3.343794e-02 3.717086e-02 4.161709e-02 4.521414e-02 4.950092e-02 5.297759e-02 5.671986e-02 6.001022e-02 6.291706e-02 6.578657e-02 6.756244e-02 6.950655e-02 6.971669e-02 7.006059e-02 6.826992e-02 6.649622e-02 6.257737e-02 5.862516e-02 5.291615e-02 4.720163e-02 4.037043e-02 3.354925e-02 2.630023e-02 1.897175e-02 1.179286e-02 4.313083e-03 -2.619138e-03 -1.013722e-02 -1.685561e-02 -2.436461e-02 -3.087654e-02 -3.817097e-02 -4.426588e-02 -5.089750e-02 -5.614638e-02 -6.154111e-02 -6.545963e-02 -6.912009e-02 -7.134807e-02 -7.299895e-02 -7.339684e-02 -7.302499e-02 -7.167707e-02 -6.948599e-02 -6.663899e-02 -6.296064e-02 -5.894110e-02 -5.415054e-02 -4.929765e-02 -4.375753e-02 
-3.267511e-02 -2.752598e-02 -2.262469e-02 -1.735490e-02 -1.244109e-02 -7.284372e-03 -2.537616e-03 2.304533e-03 6.764275e-03 1.115210e-02 1.530077e-02 1.919300e-02 2.311318e-02 2.657321e-02 3.038773e-02 3.353482e-02 3.726628e-02 4.020296e-02 4.367987e-02 4.645995e-02 4.942745e-02 5.201967e-02 5.425812e-02 5.645889e-02 5.772378e-02 5.912019e-02 5.908145e-02 5.915872e-02 5.750767e-02 5.588381e-02 5.253706e-02 4.916280e-02 4.436685e-02 3.954051e-02 3.378454e-02 2.799262e-02 2.180837e-02 1.551931e-02 9.301029e-03 2.829862e-03 -3.236679e-03 -9.734493e-03 -1.560619e-02 -2.202167e-02 -2.764369e-02 -3.377138e-02 -3.895063e-02 -4.443443e-02 -4.883714e-02 -5.324565e-02 -5.650486e-02 -5.946618e-02 -6.130623e-02 -6.261024e-02 -6.291929e-02 -6.255046e-02 -6.138791e-02 -5.949789e-02 -5.705390e-02 -5.390102e-02 -5.043708e-02 -4.632368e-02 -4.212065e-02 -3.734884e-02 
-2.751634e-02 -2.309889e-02 -1.893489e-02 -1.442312e-02 -1.024686e-02 -5.836143e-03 -1.791802e-03 2.358665e-03 6.180585e-03 9.970450e-03 1.355450e-02 1.696399e-02 2.036835e-02 2.345207e-02 2.675467e-02 2.959388e-02 3.279564e-02 3.543827e-02 3.840180e-02 4.083905e-02 4.334824e-02 4.550087e-02 4.733871e-02 4.902254e-02 4.996224e-02 5.087173e-02 5.066173e-02 5.044038e-02 4.887752e-02 4.726989e-02 4.432392e-02 4.130764e-02 3.718257e-02 3.298246e-02 2.805614e-02 2.304089e-02 1.772845e-02 1.226918e-02 6.896739e-03 1.269281e-03 -3.978751e-03 -9.603747e-03 -1.464397e-02 -2.013021e-02 -2.487998e-02 -3.003417e-02 -3.432839e-02 -3.886534e-02 -4.245262e-02 -4.604455e-02 -4.865612e-02 -5.102389e-02 -5.245809e-02 -5.344418e-02 -5.361930e-02 -5.321419e-02 -5.217716e-02 -5.050207e-02 -4.840229e-02 -4.566628e-02 -4.271353e-02 -3.916649e-02 -3.559150e-02 -3.148863e-02 
-2.206809e-02 -1.834087e-02 -1.479682e-02 -1.099732e-02 -7.438999e-03 -3.729053e-03 -2.761442e-04 3.211845e-03 6.482343e-03 9.660412e-03 1.272571e-02 1.556379e-02 1.844912e-02 2.097204e-02 2.371167e-02 2.597307e-02 2.855056e-02 3.059693e-02 3.291266e-02 3.475599e-02 3.666016e-02 3.824975e-02 3.958266e-02 4.077242e-02 4.136065e-02 4.190938e-02 4.156651e-02 4.120258e-02 3.978518e-02 3.831855e-02 3.581081e-02 3.322487e-02 2.977991e-02 2.624227e-02 2.214220e-02 1.793465e-02 1.349696e-02 8.916069e-03 4.404014e-03 -3.107683e-04 -4.728190e-03 -9.407286e-03 -1.363126e-02 -1.813296e-02 -2.207023e-02 -2.622398e-02 -2.973250e-02 -3.331700e-02 -3.620272e-02 -3.897747e-02 -4.103971e-02 -4.280467e-02 -4.389409e-02 -4.453910e-02 -4.459603e-02 -4.411991e-02 -4.318227e-02 -4.168183e-02 -3.986757e-02 -3.750787e-02 -3.498469e-02 -3.196516e-02 -2.892064e-02 -2.544812e-02 
-1.715387e-02 -1.406038e-02 -1.116232e-02 -8.028768e-03 -5.129242e-03 -2.083395e-03 7.256710e-04 3.583636e-03 6.245716e-03 8.854027e-03 1.135381e-02 1.369590e-02 1.605100e-02 1.814803e-02 2.037860e-02 2.226499e-02 2.435132e-02 2.604527e-02 2.790447e-02 2.938906e-02 3.089336e-02 3.210349e-02 3.310983e-02 3.392076e-02 3.428129e-02 3.451477e-02 3.408903e-02 3.355765e-02 3.225259e-02 3.083347e-02 2.865621e-02 2.635185e-02 2.343283e-02 2.037937e-02 1.694297e-02 1.336365e-02 9.662755e-03 5.798876e-03 2.051249e-03 -1.890729e-03 -5.533006e-03 -9.395053e-03 -1.283249e-02 -1.648136e-02 -1.962610e-02 -2.291848e-02 -2.565864e-02 -2.842720e-02 -3.062332e-02 -3.269645e-02 -3.420968e-02 -3.545004e-02 -3.618006e-02 -3.651744e-02 -3.642878e-02 -3.587320e-02 -3.500136e-02 -3.363536e-02 -3.207526e-02 -3.003282e-02 -2.791752e-02 -2.535949e-02 -2.283834e-02 -1.993211e-02 
-1.188074e-02 -9.393405e-03 -7.057290e-03 -4.566630e-03 -2.244330e-03 1.511546e-04 2.387430e-03 4.609548e-03 6.713998e-03 8.712407e-03 1.066835e-02 1.242550e-02 1.423816e-02 1.576563e-02 1.744130e-02 1.876565e-02 2.028538e-02 2.142852e-02 2.273459e-02 2.369549e-02 2.470124e-02 2.543916e-02 2.604501e-02 2.646816e-02 2.656914e-02 2.654312e-02 2.604076e-02 2.542600e-02 2.425827e-02 2.296560e-02 2.114341e-02 1.917825e-02 1.680144e-02 1.427073e-02 1.150842e-02 8.588866e-03 5.634509e-03 2.523127e-03 -4.506921e-04 -3.577041e-03 -6.442067e-03 -9.441501e-03 -1.210787e-02 -1.486299e-02 -1.725412e-02 -1.965240e-02 -2.168224e-02 -2.360752e-02 -2.517782e-02 -2.652123e-02 -2.753901e-02 -2.822118e-02 -2.862306e-02 -2.861288e-02 -2.838224e-02 -2.770339e-02 -2.687423e-02 -2.559890e-02 -2.424765e-02 -2.248203e-02 -2.071272e-02 -1.858048e-02 -1.650924e-02 -1.413805e-02 
-7.099070e-03 -5.182547e-03 -3.432350e-03 -1.549407e-03 1.652624e-04 1.946439e-03 3.576980e-03 5.204495e-03 6.722369e-03 8.165817e-03 9.563430e-03 1.081608e-02 1.210015e-02 1.317400e-02 1.434980e-02 1.526303e-02 1.631542e-02 1.707723e-02 1.796074e-02 1.855928e-02 1.920412e-02 1.959851e-02 1.992355e-02 2.004118e-02 1.996461e-02 1.971017e-02 1.916259e-02 1.844438e-02 1.739025e-02 1.615728e-02 1.461792e-02 1.288933e-02 1.095130e-02 8.821138e-03 6.621117e-03 4.236462e-03 1.929165e-03 -5.454223e-04 -2.820001e-03 -5.233815e-03 -7.368982e-03 -9.600218e-03 -1.152143e-02 -1.347489e-02 -1.512505e-02 -1.672187e-02 -1.804665e-02 -1.921843e-02 -2.016273e-02 -2.085560e-02 -2.137222e-02 -2.155684e-02 -2.161961e-02 -2.129924e-02 -2.091225e-02 -2.012398e-02 -1.932303e-02 -1.813214e-02 -1.697908e-02 -1.546936e-02 -1.404254e-02 -1.230620e-02 -1.069052e-02 -8.820156e-03 
-1.888798e-03 -5.286410e-04 6.919974e-04 1.972240e-03 3.130709e-03 4.289976e-03 5.355585e-03 6.362366e-03 7.317665e-03 8.154069e-03 8.995369e-03 9.659618e-03 1.039257e-02 1.089713e-02 1.152673e-02 1.189122e-02 1.241035e-02 1.265121e-02 1.303477e-02 1.315463e-02 1.336269e-02 1.334151e-02 1.332642e-02 1.311790e-02 1.283094e-02 1.236998e-02 1.177067e-02 1.099436e-02 1.006547e-02 8.941367e-03 7.704548e-03 6.253134e-03 4.774782e-03 3.074231e-03 1.455727e-03 -3.727892e-04 -2.016612e-03 -3.835099e-03 -5.398847e-03 -7.078254e-03 -8.480399e-03 -9.917059e-03 -1.110188e-02 -1.222238e-02 -1.315278e-02 -1.391140e-02 -1.456052e-02 -1.493554e-02 -1.528364e-02 -1.527566e-02 -1.531298e-02 -1.494412e-02 -1.467570e-02 -1.398695e-02 -1.343514e-02 -1.248133e-02 -1.168445e-02 -1.052788e-02 -9.535831e-03 -8.240462e-03 -7.109173e-03 -5.736564e-03 -4.522994e-03 -3.130378e-03 
2.880206e-03 3.699460e-03 4.366335e-03 5.066843e-03 5.645273e-03 6.213749e-03 6.694442e-03 7.122059e-03 7.503488e-03 7.788898e-03 8.077608e-03 8.228650e-03 8.436099e-03 8.468112e-03 8.603786e-03 8.534249e-03 8.597915e-03 8.439333e-03 8.417191e-03 8.170761e-03 8.037842e-03 7.689388e-03 7.415523e-03 6.935353e-03 6.491625e-03 5.841082e-03 5.207503e-03 4.353522e-03 3.529029e-03 2.463075e-03 1.474797e-03 2.278907e-04 -8.662465e-04 -2.220163e-03 -3.338883e-03 -4.693329e-03 -5.747218e-03 -6.983020e-03 -7.891260e-03 -8.898476e-03 -9.600958e-03 -1.029634e-02 -1.075820e-02 -1.109488e-02 -1.130456e-02 -1.127415e-02 -1.123851e-02 -1.086754e-02 -1.060733e-02 -9.949589e-03 -9.496061e-03 -8.621975e-03 -8.013687e-03 -6.998540e-03 -6.277598e-03 -5.191204e-03 -4.399406e-03 -3.299596e-03 -2.475407e-03 -1.406042e-03 -5.830064e-04 4.243312e-04 1.217801e-03 2.140154e-03 
8.156330e-03 8.436765e-03 8.583072e-03 8.693970e-03 8.719308e-03 8.673925e-03 8.586402e-03 8.395832e-03 8.205769e-03 7.881996e-03 7.603000e-03 7.161797e-03 6.809878e-03 6.271688e-03 5.862107e-03 5.250100e-03 4.793626e-03 4.129514e-03 3.630673e-03 2.929601e-03 2.387980e-03 1.654102e-03 1.067157e-03 2.921276e-04 -3.419916e-04 -1.174932e-03 -1.853798e-03 -2.759241e-03 -3.470966e-03 -4.446993e-03 -5.165080e-03 -6.180938e-03 -6.862554e-03 -7.854073e-03 -8.443908e-03 -9.319244e-03 -9.758108e-03 -1.041255e-02 -1.064782e-02 -1.098374e-02 -1.097870e-02 -1.092582e-02 -1.066609e-02 -1.019757e-02 -9.693992e-03 -8.834680e-03 -8.122754e-03 -6.947036e-03 -6.082739e-03 -4.701459e-03 -3.753424e-03 -2.292628e-03 -1.331720e-03 9.047485e-05 1.001624e-03 2.292896e-03 3.107252e-03 4.209261e-03 4.897888e-03 5.784762e-03 6.334801e-03 7.005138e-03 7.415124e-03 7.881668e-03 
1.303563e-02 1.277330e-02 1.237206e-02 1.190346e-02 1.135496e-02 1.071962e-02 1.005206e-02 9.281197e-03 8.519712e-03 7.639280e-03 6.807636e-03 5.841675e-03 4.962922e-03 3.935480e-03 3.031126e-03 1.966163e-03 1.054854e-03 -2.540233e-05 -9.281294e-04 -2.005362e-03 -2.885647e-03 -3.947242e-03 -4.790828e-03 -5.830128e-03 -6.620805e-03 -7.634386e-03 -8.352771e-03 -9.333986e-03 -9.955989e-03 -1.088595e-02 -1.138124e-02 -1.222038e-02 -1.255215e-02 -1.323623e-02 -1.336331e-02 -1.380656e-02 -1.368805e-02 -1.379482e-02 -1.339694e-02 -1.308063e-02 -1.238533e-02 -1.159158e-02 -1.060566e-02 -9.333867e-03 -8.096158e-03 -6.412022e-03 -4.995164e-03 -3.027782e-03 -1.531814e-03 5.468393e-04 2.008993e-03 4.017026e-03 5.338357e-03 7.118198e-03 8.214743e-03 9.657302e-03 1.047825e-02 1.153108e-02 1.205977e-02 1.272058e-02 1.296806e-02 1.326950e-02 1.326444e-02 1.325697e-02 
1.851581e-02 1.770000e-02 1.676453e-02 1.569286e-02 1.457696e-02 1.331587e-02 1.206494e-02 1.066507e-02 9.316078e-03 7.816367e-03 6.401070e-03 4.833928e-03 3.381828e-03 1.777622e-03 3.180265e-04 -1.292279e-03 -2.728887e-03 -4.313167e-03 -5.693914e-03 -7.220078e-03 -8.508672e-03 -9.946906e-03 -1.110366e-02 -1.242845e-02 -1.341198e-02 -1.460234e-02 -1.537257e-02 -1.640908e-02 -1.693019e-02 -1.778890e-02 -1.803125e-02 -1.867569e-02 -1.861611e-02 -1.899034e-02 -1.861094e-02 -1.863763e-02 -1.792436e-02 -1.751217e-02 -1.645582e-02 -1.551831e-02 -1.412058e-02 -1.260482e-02 -1.088972e-02 -8.807262e-03 -6.834183e-03 -4.282569e-03 -2.153584e-03 6.836255e-04 2.828956e-03 5.709498e-03 7.713689e-03 1.038453e-02 1.210043e-02 1.434852e-02 1.566587e-02 1.735318e-02 1.821375e-02 1.928734e-02 1.968519e-02 2.016521e-02 2.013527e-02 2.009075e-02 1.969226e-02 1.921515e-02 
2.362572e-02 2.223329e-02 2.073127e-02 1.905405e-02 1.735042e-02 1.548009e-02 1.363919e-02 1.164392e-02 9.715788e-03 7.645479e-03 5.670439e-03 3.563388e-03 1.576891e-03 -5.340373e-04 -2.497107e-03 -4.579811e-03 -6.481634e-03 -8.501948e-03 -1.029905e-02 -1.221975e-02 -1.386152e-02 -1.564295e-02 -1.707231e-02 -1.867419e-02 -1.983105e-02 -2.121435e-02 -2.204155e-02 -2.316891e-02 -2.361877e-02 -2.445228e-02 -2.449151e-02 -2.498708e-02 -2.459786e-02 -2.469771e-02 -2.387427e-02 -2.350183e-02 -2.224491e-02 -2.130900e-02 -1.962327e-02 -1.803754e-02 -1.593785e-02 -1.365539e-02 -1.118296e-02 -8.236910e-03 -5.479182e-03 -2.012245e-03 8.859183e-04 4.621610e-03 7.466297e-03 1.114769e-02 1.372545e-02 1.702504e-02 1.914323e-02 2.179703e-02 2.331976e-02 2.517121e-02 2.603769e-02 2.704616e-02 2.726803e-02 2.748788e-02 2.713092e-02 2.667617e-02 2.583617e-02 2.484495e-02 
2.945005e-02 2.745523e-02 2.538224e-02 2.306159e-02 2.075905e-02 1.823163e-02 1.578031e-02 1.313224e-02 1.059258e-02 7.884511e-03 5.303415e-03 2.579936e-03 -1.673378e-06 -2.702908e-03 -5.243019e-03 -7.883806e-03 -1.033341e-02 -1.286999e-02 -1.516886e-02 -1.754997e-02 -1.962511e-02 -2.179324e-02 -2.356102e-02 -2.545663e-02 -2.682953e-02 -2.839677e-02 -2.929410e-02 -3.048568e-02 -3.084581e-02 -3.162370e-02 -3.141359e-02 -3.174250e-02 -3.095983e-02 -3.079394e-02 -2.945959e-02 -2.872875e-02 -2.687281e-02 -2.548013e-02 -2.313075e-02 -2.097241e-02 -1.815818e-02 -1.516775e-02 -1.193806e-02 -8.143963e-03 -4.599353e-03 -1.718748e-04 3.513764e-03 8.254645e-03 1.183852e-02 1.647131e-02 1.967873e-02 2.377275e-02 2.635370e-02 2.956598e-02 3.134743e-02 3.348408e-02 3.439644e-02 3.542186e-02 3.549367e-02 3.549810e-02 3.482871e-02 3.397762e-02 3.270277e-02 3.118823e-02 
3.489975e-02 3.226085e-02 2.957683e-02 2.659934e-02 2.367626e-02 2.050280e-02 1.743853e-02 1.416896e-02 1.103389e-02 7.735398e-03 4.581514e-03 1.300484e-03 -1.828651e-03 -5.055211e-03 -8.114830e-03 -1.124950e-02 -1.418529e-02 -1.718295e-02 -1.992499e-02 -2.272884e-02 -2.518910e-02 -2.773069e-02 -2.980576e-02 -3.200934e-02 -3.358942e-02 -3.537984e-02 -3.636343e-02 -3.767492e-02 -3.798588e-02 -3.876705e-02 -3.836812e-02 -3.857784e-02 -3.747355e-02 -3.706558e-02 -3.529116e-02 -3.419393e-02 -3.179424e-02 -2.990166e-02 -2.691360e-02 -2.410500e-02 -2.056003e-02 -1.675542e-02 -1.270929e-02 -7.946110e-03 -3.523591e-03 1.978294e-03 6.551738e-03 1.237871e-02 1.678567e-02 2.239730e-02 2.628321e-02 3.113852e-02 3.418919e-02 3.787388e-02 3.988311e-02 4.218454e-02 4.308444e-02 4.399464e-02 4.384347e-02 4.350875e-02 4.245125e-02 4.110242e-02 3.932347e-02 3.721340e-02 
4.119936e-02 3.787114e-02 3.455533e-02 3.086664e-02 2.729668e-02 2.341680e-02 1.970470e-02 1.574775e-02 1.197054e-02 8.009512e-03 4.221694e-03 3.042094e-04 -3.448930e-03 -7.285427e-03 -1.095507e-02 -1.467013e-02 -1.819293e-02 -2.173312e-02 -2.502308e-02 -2.831667e-02 -3.126188e-02 -3.421950e-02 -3.668570e-02 -3.920803e-02 -4.105086e-02 -4.304233e-02 -4.412829e-02 -4.551308e-02 -4.574525e-02 -4.647764e-02 -4.581747e-02 -4.587662e-02 -4.435017e-02 -4.371413e-02 -4.139501e-02 -4.000322e-02 -3.697684e-02 -3.470702e-02 -3.103645e-02 -2.772321e-02 -2.344355e-02 -1.894952e-02 -1.410506e-02 -8.428753e-03 -3.138870e-03 3.484501e-03 8.969613e-03 1.603557e-02 2.133273e-02 2.814842e-02 3.280894e-02 3.866937e-02 4.228792e-02 4.665881e-02 4.897331e-02 5.159560e-02 5.253058e-02 5.341818e-02 5.306406e-02 5.242794e-02 5.098298e-02 4.913356e-02 4.683998e-02 4.410497e-02 
4.707290e-02 4.299734e-02 3.900002e-02 3.457963e-02 3.033925e-02 2.576279e-02 2.140479e-02 1.679372e-02 1.239976e-02 7.826703e-03 3.450421e-03 -1.041608e-03 -5.358157e-03 -9.737792e-03 -1.394828e-02 -1.818005e-02 -2.221975e-02 -2.625158e-02 -3.002655e-02 -3.378206e-02 -3.716412e-02 -4.054169e-02 -4.337213e-02 -4.625266e-02 -4.835730e-02 -5.062074e-02 -5.183669e-02 -5.338382e-02 -5.359309e-02 -5.436313e-02 -5.352150e-02 -5.349157e-02 -5.163712e-02 -5.079275e-02 -4.802274e-02 -4.630645e-02 -4.272756e-02 -3.999842e-02 -3.567720e-02 -3.172509e-02 -2.667978e-02 -2.131494e-02 -1.557093e-02 -8.770370e-03 -2.457865e-03 5.492683e-03 1.205890e-02 2.051751e-02 2.684143e-02 3.492432e-02 4.043242e-02 4.725819e-02 5.144690e-02 5.637590e-02 5.893856e-02 6.169886e-02 6.257302e-02 6.323942e-02 6.256978e-02 6.145025e-02 5.950688e-02 5.701142e-02 5.410656e-02 5.064539e-02 
5.395211e-02 4.905775e-02 4.434305e-02 3.911700e-02 3.416764e-02 2.882115e-02 2.377127e-02 1.843243e-02 1.336321e-02 8.101578e-03 3.061753e-03 -2.087185e-03 -7.060679e-03 -1.207290e-02 -1.693547e-02 -2.177825e-02 -2.646021e-02 -3.107580e-02 -3.546870e-02 -3.976416e-02 -4.371360e-02 -4.756013e-02 -5.086892e-02 -5.411367e-02 -5.655970e-02 -5.905140e-02 -6.042270e-02 -6.204660e-02 -6.218925e-02 -6.289713e-02 -6.176084e-02 -6.157222e-02 -5.922854e-02 -5.818271e-02 -5.479374e-02 -5.286283e-02 -4.860348e-02 -4.562116e-02 -4.059505e-02 -3.626335e-02 -3.047488e-02 -2.447780e-02 -1.789996e-02 -1.010557e-02 -2.820660e-03 6.503282e-03 1.417105e-02 2.425482e-02 3.171398e-02 4.141766e-02 4.793619e-02 5.609795e-02 6.101515e-02 6.680487e-02 6.972660e-02 7.282194e-02 7.368787e-02 7.422782e-02 7.324866e-02 7.166226e-02 6.919900e-02 6.602391e-02 6.247477e-02 5.822706e-02 
6.028520e-02 5.450340e-02 4.901106e-02 4.295897e-02 3.727590e-02 3.117494e-02 2.544161e-02 1.941639e-02 1.370995e-02 7.819316e-03 2.178588e-03 -3.555794e-03 -9.106099e-03 -1.467427e-02 -2.010038e-02 -2.548135e-02 -3.071889e-02 -3.586133e-02 -4.079738e-02 -4.560620e-02 -5.006868e-02 -5.440143e-02 -5.816122e-02 -6.183893e-02 -6.463074e-02 -6.746667e-02 -6.903270e-02 -7.087653e-02 -7.102807e-02 -7.181013e-02 -7.048760e-02 -7.023257e-02 -6.753077e-02 -6.630729e-02 -6.243534e-02 -6.024041e-02 -5.541641e-02 -5.205999e-02 -4.638839e-02 -4.148137e-02 -3.491170e-02 -2.800831e-02 -2.043760e-02 -1.131293e-02 -2.796436e-03 8.245043e-03 1.730009e-02 2.927405e-02 3.808873e-02 4.952452e-02 5.715788e-02 6.659481e-02 7.222671e-02 7.867366e-02 8.185022e-02 8.499639e-02 8.569838e-02 8.581444e-02 8.435510e-02 8.204163e-02 7.889957e-02 7.484766e-02 7.052282e-02 6.535935e-02 
6.779135e-02 6.101580e-02 5.469717e-02 4.772241e-02 4.125955e-02 3.431831e-02 2.784953e-02 2.105921e-02 1.464924e-02 8.051546e-03 1.722793e-03 -4.681610e-03 -1.092008e-02 -1.714072e-02 -2.326594e-02 -2.929421e-02 -3.524383e-02 -4.102776e-02 -4.667801e-02 -5.210420e-02 -5.725494e-02 -6.214330e-02 -6.651651e-02 -7.063514e-02 -7.389597e-02 -7.700296e-02 -7.881312e-02 -8.072474e-02 -8.082783e-02 -8.149212e-02 -7.980804e-02 -7.933258e-02 -7.600965e-02 -7.458175e-02 -6.994835e-02 -6.764405e-02 -6.204881e-02 -5.865085e-02 -5.226604e-02 -4.723022e-02 -3.996167e-02 -3.259148e-02 -2.419986e-02 -1.401791e-02 -4.415017e-03 8.379899e-03 1.882159e-02 3.306299e-02 4.341624e-02 5.717002e-02 6.620618e-02 7.750105e-02 8.410854e-02 9.164209e-02 9.522858e-02 9.866065e-02 9.924455e-02 9.900974e-02 9.704316e-02 9.396988e-02 9.008946e-02 8.507306e-02 7.990807e-02 7.372170e-02 
7.453399e-02 6.669779e-02 5.948310e-02 5.157776e-02 4.431163e-02 3.656149e-02 2.937573e-02 2.187749e-02 1.481980e-02 7.589964e-03 6.600882e-04 -6.326557e-03 -1.314442e-02 -1.992208e-02 -2.662824e-02 -3.320972e-02 -3.975810e-02 -4.610622e-02 -5.237545e-02 -5.838008e-02 -6.415202e-02 -6.961903e-02 -7.457318e-02 -7.923502e-02 -8.297137e-02 -8.653055e-02 -8.863483e-02 -9.084563e-02 -9.099846e-02 -9.176850e-02 -8.986985e-02 -8.932150e-02 -8.556307e-02 -8.396348e-02 -7.877165e-02 -7.628754e-02 -7.011469e-02 -6.651891e-02 -5.954900e-02 -5.413074e-02 -4.614237e-02 -3.792250e-02 -2.847313e-02 -1.671729e-02 -5.591905e-03 9.526019e-03 2.184857e-02 3.880855e-02 5.105551e-02 6.730567e-02 7.788300e-02 9.092495e-02 9.845006e-02 1.067297e-01 1.105350e-01 1.138001e-01 1.140134e-01 1.129810e-01 1.102516e-01 1.060544e-01 1.012131e-01 9.497824e-02 8.879984e-02 8.144084e-02 
8.260825e-02 7.356127e-02 6.539480e-02 5.643840e-02 4.832383e-02 3.967032e-02 3.171796e-02 2.343445e-02 1.566138e-02 7.726996e-03 1.002547e-04 -7.550015e-03 -1.507647e-02 -2.251412e-02 -2.996445e-02 -3.723013e-02 -4.457133e-02 -5.163704e-02 -5.874478e-02 -6.548181e-02 -7.211179e-02 -7.827395e-02 -8.404605e-02 -8.928069e-02 -9.369399e-02 -9.760047e-02 -1.001051e-01 -1.023573e-01 -1.025002e-01 -1.030143e-01 -1.006336e-01 -9.968480e-02 -9.505403e-02 -9.316809e-02 -8.694177e-02 -8.448067e-02 -7.737797e-02 -7.410708e-02 -6.645953e-02 -6.141321e-02 -5.290734e-02 -4.463708e-02 -3.452445e-02 -2.175165e-02 -9.461998e-03 7.972743e-03 2.211468e-02 4.244796e-02 5.692390e-02 7.670017e-02 8.936240e-02 1.050971e-01 1.139810e-01 1.236048e-01 1.278313e-01 1.311711e-01 1.310166e-01 1.291820e-01 1.255893e-01 1.201352e-01 1.142077e-01 1.065771e-01 9.927696e-02 9.057096e-02 
8.956792e-02 7.926893e-02 7.007569e-02 6.009256e-02 5.111163e-02 4.161553e-02 3.292970e-02 2.394194e-02 1.553328e-02 6.989551e-03 -1.213658e-03 -9.418250e-03 -1.750338e-02 -2.547766e-02 -3.351009e-02 -4.132916e-02 -4.930991e-02 -5.697385e-02 -6.479447e-02 -7.218900e-02 -7.959086e-02 -8.645975e-02 -9.300791e-02 -9.895168e-02 -1.040461e-01 -1.085750e-01 -1.115359e-01 -1.142072e-01 -1.144602e-01 -1.150974e-01 -1.124298e-01 -1.113222e-01 -1.060799e-01 -1.039379e-01 -9.697339e-02 -9.442689e-02 -8.672167e-02 -8.359592e-02 -7.555128e-02 -7.059726e-02 -6.163799e-02 -5.282950e-02 -4.172466e-02 -2.715641e-02 -1.295051e-02 7.768103e-03 2.462943e-02 4.912790e-02 6.640246e-02 8.996781e-02 1.048671e-01 1.230755e-01 1.331509e-01 1.435251e-01 1.478212e-01 1.504956e-01 1.495652e-01 1.462559e-01 1.414235e-01 1.342168e-01 1.269008e-01 1.175699e-01 1.089295e-01 9.872778e-02 
9.797023e-02 8.621978e-02 7.594999e-02 6.479933e-02 5.492280e-02 4.448982e-02 3.503683e-02 2.528105e-02 1.617785e-02 6.971889e-03 -1.906804e-03 -1.073131e-02 -1.952165e-02 -2.813560e-02 -3.694423e-02 -4.547530e-02 -5.433264e-02 -6.280882e-02 -7.161856e-02 -7.991260e-02 -8.840181e-02 -9.619044e-02 -1.038619e-01 -1.106134e-01 -1.167279e-01 -1.217609e-01 -1.254115e-01 -1.280896e-01 -1.284327e-01 -1.285239e-01 -1.251718e-01 -1.232258e-01 -1.166316e-01 -1.139263e-01 -1.053871e-01 -1.030034e-01 -9.406173e-02 -9.188228e-02 -8.328757e-02 -7.967485e-02 -7.068652e-02 -6.278478e-02 -5.153276e-02 -3.631532e-02 -2.102555e-02 2.821288e-03 2.217796e-02 5.206036e-02 7.280638e-02 1.020933e-01 1.203359e-01 1.425920e-01 1.546133e-01 1.665161e-01 1.710919e-01 1.732409e-01 1.713978e-01 1.664142e-01 1.600893e-01 1.508130e-01 1.418756e-01 1.305295e-01 1.203845e-01 1.084238e-01 
1.047327e-01 9.155736e-02 8.014001e-02 6.790763e-02 5.712911e-02 4.586566e-02 3.569763e-02 2.528468e-02 1.559674e-02 5.844142e-03 -3.545059e-03 -1.285861e-02 -2.214572e-02 -3.124136e-02 -4.059919e-02 -4.965564e-02 -5.917746e-02 -6.827129e-02 -7.790214e-02 -8.694260e-02 -9.640937e-02 -1.050795e-01 -1.138213e-01 -1.215371e-01 -1.286685e-01 -1.346107e-01 -1.390007e-01 -1.423118e-01 -1.428752e-01 -1.430933e-01 -1.393079e-01 -1.369336e-01 -1.293517e-01 -1.260387e-01 -1.163181e-01 -1.138846e-01 -1.042447e-01 -1.028378e-01 -9.429547e-02 -9.182647e-02 -8.313650e-02 -7.562915e-02 -6.384418e-02 -4.683120e-02 -2.912154e-02 -4.148819e-04 2.322059e-02 5.997410e-02 8.506825e-02 1.203799e-01 1.420316e-01 1.679045e-01 1.814531e-01 1.938109e-01 1.980216e-01 1.984048e-01 1.949961e-01 1.873306e-01 1.789743e-01 1.669868e-01 1.560373e-01 1.423565e-01 1.304501e-01 1.166312e-01 
1.129386e-01 9.809443e-02 8.551190e-02 7.204883e-02 6.037993e-02 4.820786e-02 3.732778e-02 2.622712e-02 1.591892e-02 5.609816e-03 -4.384835e-03 -1.421255e-02 -2.416035e-02 -3.382280e-02 -4.395954e-02 -5.372784e-02 -6.419790e-02 -7.421157e-02 -8.499644e-02 -9.517047e-02 -1.060162e-01 -1.159629e-01 -1.262721e-01 -1.352224e-01 -1.439436e-01 -1.507406e-01 -1.563780e-01 -1.597171e-01 -1.606443e-01 -1.597678e-01 -1.549867e-01 -1.507704e-01 -1.409111e-01 -1.363073e-01 -1.239094e-01 -1.217210e-01 -1.101892e-01 -1.107410e-01 -1.019404e-01 -1.026121e-01 -9.502147e-02 -9.049047e-02 -7.989890e-02 -6.350672e-02 -4.527975e-02 -1.238888e-02 1.484521e-02 6.091808e-02 9.182451e-02 1.370669e-01 1.645643e-01 1.966973e-01 2.130233e-01 2.266442e-01 2.305090e-01 2.288695e-01 2.233886e-01 2.124239e-01 2.014953e-01 1.861743e-01 1.728229e-01 1.563046e-01 1.424165e-01 1.263751e-01 
1.187731e-01 1.024215e-01 8.862209e-02 7.411430e-02 6.156604e-02 4.865353e-02 3.713313e-02 2.548492e-02 1.469847e-02 3.958104e-03 -6.420957e-03 -1.662249e-02 -2.693910e-02 -3.697728e-02 -4.756732e-02 -5.778398e-02 -6.890165e-02 -7.951512e-02 -9.122910e-02 -1.022314e-01 -1.143240e-01 -1.253789e-01 -1.371997e-01 -1.475075e-01 -1.578057e-01 -1.660209e-01 -1.729217e-01 -1.773381e-01 -1.787268e-01 -1.780301e-01 -1.725634e-01 -1.672734e-01 -1.556831e-01 -1.493840e-01 -1.346829e-01 -1.322206e-01 -1.196267e-01 -1.220353e-01 -1.142380e-01 -1.182250e-01 -1.127621e-01 -1.109819e-01 -1.013859e-01 -8.403230e-02 -6.288303e-02 -2.246184e-02 1.238417e-02 7.089942e-02 1.087217e-01 1.637904e-01 1.967635e-01 2.344281e-01 2.525722e-01 2.654305e-01 2.677844e-01 2.619825e-01 2.534114e-01 2.376728e-01 2.234393e-01 2.040426e-01 1.878253e-01 1.682378e-01 1.521020e-01 1.338835e-01 
1.258557e-01 1.077336e-01 9.277811e-02 7.709255e-02 6.375517e-02 5.006324e-02 3.797180e-02 2.580534e-02 1.454897e-02 3.445834e-03 -7.399577e-03 -1.791533e-02 -2.878581e-02 -3.922570e-02 -5.054617e-02 -6.141096e-02 -7.351121e-02 -8.514524e-02 -9.815800e-02 -1.105980e-01 -1.243972e-01 -1.372704e-01 -1.512697e-01 -1.635768e-01 -1.763990e-01 -1.862663e-01 -1.955098e-01 -2.002692e-01 -2.027627e-01 -2.000441e-01 -1.931821e-01 -1.837481e-01 -1.680658e-01 -1.587668e-01 -1.391039e-01 -1.367971e-01 -1.208103e-01 -1.267346e-01 -1.192433e-01 -1.295218e-01 -1.275416e-01 -1.329680e-01 -1.277029e-01 -1.145963e-01 -9.487856e-02 -4.943515e-02 -9.061283e-03 6.726077e-02 1.153823e-01 1.888509e-01 2.331249e-01 2.806072e-01 3.023213e-01 3.145107e-01 3.144828e-01 3.031699e-01 2.901446e-01 2.682395e-01 2.496848e-01 2.251573e-01 2.055080e-01 1.821402e-01 1.635215e-01 1.426776e-01 
1.296356e-01 1.101306e-01 9.400764e-02 7.747285e-02 6.337605e-02 4.914433e-02 3.656266e-02 2.403323e-02 1.247110e-02 1.108586e-03 -9.919312e-03 -2.063642e-02 -3.164910e-02 -4.228860e-02 -5.385581e-02 -6.501109e-02 -7.765190e-02 -8.978707e-02 -1.037974e-01 -1.170927e-01 -1.324603e-01 -1.466978e-01 -1.628509e-01 -1.770977e-01 -1.924380e-01 -2.046327e-01 -2.161461e-01 -2.229736e-01 -2.264912e-01 -2.243370e-01 -2.163925e-01 -2.045884e-01 -1.859330e-01 -1.718257e-01 -1.469515e-01 -1.434756e-01 -1.252539e-01 -1.348181e-01 -1.302071e-01 -1.479934e-01 -1.521962e-01 -1.658066e-01 -1.658116e-01 -1.552246e-01 -1.328638e-01 -7.531575e-02 -1.875324e-02 8.307908e-02 1.414351e-01 2.301406e-01 2.838078e-01 3.407269e-01 3.640190e-01 3.714121e-01 3.669827e-01 3.463657e-01 3.273888e-01 2.973197e-01 2.735451e-01 2.432712e-01 2.197263e-01 1.926701e-01 1.713612e-01 1.482443e-01 
1.341833e-01 1.130692e-01 9.598638e-02 7.852073e-02 6.388348e-02 4.913689e-02 3.623905e-02 2.346276e-02 1.167374e-02 2.438716e-04 -1.102575e-02 -2.172587e-02 -3.310027e-02 -4.381875e-02 -5.599126e-02 -6.760095e-02 -8.118864e-02 -9.439331e-02 -1.097488e-01 -1.248172e-01 -1.421524e-01 -1.589501e-01 -1.780204e-01 -1.955621e-01 -2.148852e-01 -2.304835e-01 -2.464632e-01 -2.549624e-01 -2.615117e-01 -2.560855e-01 -2.464461e-01 -2.248872e-01 -1.984768e-01 -1.777144e-01 -1.432561e-01 -1.397308e-01 -1.145428e-01 -1.298234e-01 -1.265843e-01 -1.556730e-01 -1.679849e-01 -1.967453e-01 -2.077457e-01 -2.107932e-01 -1.955886e-01 -1.349954e-01 -6.927921e-02 7.079298e-02 1.474840e-01 2.718671e-01 3.499152e-01 4.220283e-01 4.476779e-01 4.471278e-01 4.345624e-01 4.008877e-01 3.729448e-01 3.321711e-01 3.015874e-01 2.640712e-01 2.360054e-01 2.044221e-01 1.803058e-01 1.544619e-01 