# vtk DataFile Version 2.0
Comment goes here
ASCII

DATASET STRUCTURED_POINTS
DIMENSIONS    64   64   1

ORIGIN    0.000   0.000   0.000
SPACING   0.0156250.015625   1.000

POINT_DATA   4096
SCALARS uX double
LOOKUP_TABLE default

-2.236082e-02 -1.702614e-02 -1.321812e-02 -7.686999e-03 -4.126188e-03 1.714195e-03 5.218895e-03 1.131388e-02 1.484850e-02 2.076144e-02 2.414259e-02 2.899890e-02 3.164173e-02 3.467507e-02 3.562039e-02 3.692730e-02 3.511317e-02 3.520177e-02 3.324372e-02 3.153345e-02 3.366600e-02 3.184314e-02 4.019759e-02 3.938910e-02 5.276818e-02 5.241465e-02 6.690402e-02 6.505888e-02 7.495294e-02 6.964019e-02 7.028946e-02 6.250902e-02 5.418223e-02 4.703307e-02 3.327546e-02 3.102846e-02 1.496222e-02 1.773227e-02 2.328962e-03 7.146534e-03 -6.408944e-03 -4.105119e-03 -1.605124e-02 -2.020654e-02 -3.079981e-02 -4.179022e-02 -4.994708e-02 -6.260271e-02 -6.651213e-02 -7.517259e-02 -7.546499e-02 -7.975674e-02 -7.678585e-02 -7.710105e-02 -7.178244e-02 -6.918985e-02 -6.291067e-02 -5.868560e-02 -5.249871e-02 -4.754867e-02 -4.195405e-02 -3.676247e-02 -3.187665e-02 -2.662130e-02 
-2.139241e-02 -1.624783e-02 -1.238862e-02 -7.090849e-03 -3.577212e-03 1.920327e-03 5.204790e-03 1.082151e-02 1.392433e-02 1.932783e-02 2.215032e-02 2.676071e-02 2.902245e-02 3.231540e-02 3.361090e-02 3.541336e-02 3.549291e-02 3.580130e-02 3.633772e-02 3.556261e-02 3.962005e-02 3.895463e-02 4.778296e-02 4.772088e-02 5.989243e-02 5.959230e-02 7.153827e-02 6.918215e-02 7.621029e-02 7.036450e-02 6.892935e-02 6.077888e-02 5.114012e-02 4.392710e-02 2.956977e-02 2.556621e-02 1.022033e-02 9.792357e-03 -4.097505e-03 -2.784890e-03 -1.458392e-02 -1.472943e-02 -2.484677e-02 -2.907954e-02 -3.784743e-02 -4.605239e-02 -5.288554e-02 -6.146433e-02 -6.524553e-02 -7.076603e-02 -7.164429e-02 -7.423609e-02 -7.224633e-02 -7.212336e-02 -6.786409e-02 -6.551765e-02 -6.005735e-02 -5.625891e-02 -5.054116e-02 -4.597116e-02 -4.055629e-02 -3.564877e-02 -3.076551e-02 -2.572181e-02 
-1.985616e-02 -1.533211e-02 -1.183976e-02 -7.172870e-03 -3.880110e-03 8.953067e-04 4.058549e-03 8.805045e-03 1.183376e-02 1.623833e-02 1.899105e-02 2.260388e-02 2.479506e-02 2.726107e-02 2.857314e-02 2.984984e-02 3.028315e-02 3.050702e-02 3.129956e-02 3.053842e-02 3.346019e-02 3.232595e-02 3.823323e-02 3.714196e-02 4.525884e-02 4.396229e-02 5.206650e-02 4.981314e-02 5.498424e-02 5.121614e-02 5.124103e-02 4.653522e-02 4.124535e-02 3.709559e-02 2.794186e-02 2.595864e-02 1.477425e-02 1.503915e-02 3.549444e-03 4.620045e-03 -6.152755e-03 -6.465718e-03 -1.612769e-02 -1.953541e-02 -2.780137e-02 -3.426279e-02 -4.050889e-02 -4.784497e-02 -5.136709e-02 -5.708767e-02 -5.795260e-02 -6.119317e-02 -5.972356e-02 -6.043211e-02 -5.720657e-02 -5.582981e-02 -5.161822e-02 -4.881427e-02 -4.428897e-02 -4.063617e-02 -3.622030e-02 -3.210823e-02 -2.799382e-02 -2.363367e-02 
-1.896553e-02 -1.461496e-02 -1.114014e-02 -6.677870e-03 -3.450011e-03 1.069510e-03 4.089376e-03 8.540258e-03 1.135666e-02 1.549872e-02 1.805564e-02 2.156449e-02 2.375777e-02 2.635196e-02 2.811094e-02 2.966401e-02 3.116651e-02 3.170925e-02 3.381684e-02 3.360217e-02 3.750940e-02 3.698215e-02 4.308318e-02 4.239146e-02 4.977046e-02 4.852100e-02 5.516219e-02 5.264404e-02 5.612413e-02 5.195308e-02 5.057113e-02 4.539399e-02 3.916939e-02 3.439008e-02 2.487286e-02 2.157782e-02 1.074470e-02 9.101932e-03 -1.504240e-03 -2.376466e-03 -1.199557e-02 -1.355664e-02 -2.197877e-02 -2.532900e-02 -3.243328e-02 -3.742178e-02 -4.284985e-02 -4.798636e-02 -5.128623e-02 -5.503998e-02 -5.615817e-02 -5.808922e-02 -5.715174e-02 -5.723911e-02 -5.463428e-02 -5.311849e-02 -4.944461e-02 -4.673786e-02 -4.258091e-02 -3.910085e-02 -3.488504e-02 -3.095062e-02 -2.691555e-02 -2.272367e-02 
-1.723029e-02 -1.349668e-02 -1.040737e-02 -6.573167e-03 -3.622673e-03 2.200372e-04 3.041458e-03 6.748785e-03 9.414327e-03 1.276957e-02 1.519775e-02 1.794682e-02 2.002293e-02 2.197115e-02 2.363447e-02 2.472301e-02 2.614127e-02 2.642022e-02 2.819764e-02 2.777896e-02 3.065024e-02 2.978974e-02 3.402919e-02 3.289692e-02 3.797126e-02 3.648522e-02 4.113738e-02 3.905179e-02 4.174107e-02 3.895230e-02 3.853500e-02 3.539236e-02 3.166337e-02 2.887240e-02 2.247721e-02 2.068436e-02 1.265582e-02 1.186515e-02 3.259658e-03 2.769944e-03 -5.618880e-03 -6.836920e-03 -1.449888e-02 -1.719021e-02 -2.372949e-02 -2.780713e-02 -3.280202e-02 -3.728310e-02 -4.038574e-02 -4.408608e-02 -4.526530e-02 -4.752632e-02 -4.697621e-02 -4.761604e-02 -4.569971e-02 -4.487398e-02 -4.205488e-02 -4.009523e-02 -3.681063e-02 -3.406801e-02 -3.064102e-02 -2.739846e-02 -2.402103e-02 -2.047232e-02 
-1.641430e-02 -1.281158e-02 -9.758945e-03 -6.079491e-03 -3.178705e-03 4.861908e-04 3.235051e-03 6.759761e-03 9.348523e-03 1.255987e-02 1.496527e-02 1.766513e-02 1.986682e-02 2.188905e-02 2.392297e-02 2.518471e-02 2.723668e-02 2.775617e-02 3.024419e-02 3.014728e-02 3.351843e-02 3.297926e-02 3.726988e-02 3.633597e-02 4.093676e-02 3.944895e-02 4.321522e-02 4.092914e-02 4.257519e-02 3.943876e-02 3.809324e-02 3.447529e-02 3.010261e-02 2.665801e-02 2.000229e-02 1.725195e-02 9.393120e-03 7.421728e-03 -6.618826e-04 -2.260371e-03 -9.913721e-03 -1.179163e-02 -1.864247e-02 -2.125865e-02 -2.704817e-02 -3.029652e-02 -3.475422e-02 -3.797097e-02 -4.085919e-02 -4.330645e-02 -4.456472e-02 -4.586264e-02 -4.558713e-02 -4.563619e-02 -4.407837e-02 -4.297616e-02 -4.049921e-02 -3.846653e-02 -3.544673e-02 -3.273915e-02 -2.948416e-02 -2.632695e-02 -2.304493e-02 -1.960670e-02 
-1.463709e-02 -1.161045e-02 -8.939242e-03 -5.846976e-03 -3.250082e-03 -1.976523e-04 2.307863e-03 5.193043e-03 7.579112e-03 1.014351e-02 1.236755e-02 1.445354e-02 1.647793e-02 1.796650e-02 1.980670e-02 2.064978e-02 2.244168e-02 2.266041e-02 2.468983e-02 2.436001e-02 2.691214e-02 2.615712e-02 2.926454e-02 2.817331e-02 3.146269e-02 3.003424e-02 3.277804e-02 3.096640e-02 3.232236e-02 3.016173e-02 2.950745e-02 2.721401e-02 2.439586e-02 2.231148e-02 1.764223e-02 1.603944e-02 1.011227e-02 8.971028e-03 2.455171e-03 1.434398e-03 -5.082497e-03 -6.461963e-03 -1.252005e-02 -1.458151e-02 -1.981078e-02 -2.248243e-02 -2.656799e-02 -2.937617e-02 -3.209876e-02 -3.444552e-02 -3.575658e-02 -3.722234e-02 -3.722836e-02 -3.763929e-02 -3.656402e-02 -3.595422e-02 -3.408790e-02 -3.262102e-02 -3.025396e-02 -2.813915e-02 -2.550980e-02 -2.294369e-02 -2.021814e-02 -1.736017e-02 
-1.388811e-02 -1.094608e-02 -8.304336e-03 -5.317168e-03 -2.744161e-03 1.911875e-04 2.677217e-03 5.449669e-03 7.835914e-03 1.031748e-02 1.259485e-02 1.465477e-02 1.682947e-02 1.836167e-02 2.048040e-02 2.142862e-02 2.360790e-02 2.397628e-02 2.639835e-02 2.624549e-02 2.904701e-02 2.844837e-02 3.153927e-02 3.052174e-02 3.348968e-02 3.200889e-02 3.418819e-02 3.218882e-02 3.287494e-02 3.040459e-02 2.913069e-02 2.641298e-02 2.314536e-02 2.051096e-02 1.563698e-02 1.334739e-02 7.486283e-03 5.593759e-03 -6.220535e-04 -2.294485e-03 -8.355411e-03 -1.009192e-02 -1.563074e-02 -1.761834e-02 -2.236083e-02 -2.452984e-02 -2.825193e-02 -3.028584e-02 -3.282709e-02 -3.435148e-02 -3.565989e-02 -3.642569e-02 -3.656103e-02 -3.647210e-02 -3.559530e-02 -3.468378e-02 -3.302547e-02 -3.141069e-02 -2.921999e-02 -2.705995e-02 -2.455797e-02 -2.200989e-02 -1.936485e-02 -1.656426e-02 
-1.216118e-02 -9.738951e-03 -7.464033e-03 -5.008782e-03 -2.748944e-03 -3.596381e-04 1.858150e-03 4.075421e-03 6.225899e-03 8.159004e-03 1.021844e-02 1.176214e-02 1.371958e-02 1.479590e-02 1.667453e-02 1.724835e-02 1.912542e-02 1.920663e-02 2.120292e-02 2.083914e-02 2.304132e-02 2.230394e-02 2.465410e-02 2.360588e-02 2.583872e-02 2.451488e-02 2.619375e-02 2.462236e-02 2.526853e-02 2.351837e-02 2.278047e-02 2.099109e-02 1.876999e-02 1.711760e-02 1.358128e-02 1.218931e-02 7.694954e-03 6.545550e-03 1.531682e-03 4.593631e-04 -4.645795e-03 -5.863639e-03 -1.068755e-02 -1.219074e-02 -1.642327e-02 -1.816148e-02 -2.155593e-02 -2.328912e-02 -2.568271e-02 -2.709740e-02 -2.843722e-02 -2.928230e-02 -2.962132e-02 -2.976803e-02 -2.924224e-02 -2.868333e-02 -2.747826e-02 -2.629443e-02 -2.460607e-02 -2.292254e-02 -2.092495e-02 -1.887615e-02 -1.670420e-02 -1.441419e-02 
-1.146916e-02 -9.091846e-03 -6.827036e-03 -4.435476e-03 -2.172227e-03 1.446451e-04 2.380915e-03 4.529696e-03 6.723415e-03 8.607129e-03 1.075131e-02 1.227823e-02 1.437910e-02 1.547702e-02 1.756233e-02 1.819135e-02 2.031399e-02 2.047166e-02 2.269096e-02 2.240660e-02 2.472942e-02 2.404465e-02 2.634900e-02 2.529259e-02 2.729409e-02 2.587643e-02 2.717425e-02 2.541487e-02 2.560863e-02 2.358054e-02 2.241174e-02 2.026201e-02 1.771131e-02 1.562413e-02 1.191265e-02 1.003126e-02 5.536013e-03 3.899638e-03 -9.577025e-04 -2.419799e-03 -7.255611e-03 -8.663704e-03 -1.316450e-02 -1.459282e-02 -1.851141e-02 -1.991672e-02 -2.306310e-02 -2.428842e-02 -2.653608e-02 -2.738768e-02 -2.868846e-02 -2.901882e-02 -2.940460e-02 -2.914502e-02 -2.871780e-02 -2.787683e-02 -2.678714e-02 -2.543184e-02 -2.384874e-02 -2.207906e-02 -2.016192e-02 -1.808763e-02 -1.596794e-02 -1.369420e-02 
-9.839784e-03 -7.922997e-03 -6.007659e-03 -4.090649e-03 -2.141035e-03 -3.087098e-04 1.646820e-03 3.308793e-03 5.248041e-03 6.655915e-03 8.562345e-03 9.642290e-03 1.150951e-02 1.220837e-02 1.404713e-02 1.434078e-02 1.618111e-02 1.607647e-02 1.795276e-02 1.748375e-02 1.939439e-02 1.861254e-02 2.047138e-02 1.943169e-02 2.104520e-02 1.979849e-02 2.089172e-02 1.949193e-02 1.978004e-02 1.830003e-02 1.757759e-02 1.611470e-02 1.432239e-02 1.297762e-02 1.021709e-02 9.053790e-03 5.553960e-03 4.562305e-03 6.223137e-04 -2.786675e-04 -4.344589e-03 -5.260897e-03 -9.160479e-03 -1.015555e-02 -1.363749e-02 -1.468205e-02 -1.754803e-02 -1.851981e-02 -2.063825e-02 -2.137253e-02 -2.268943e-02 -2.304289e-02 -2.357935e-02 -2.346876e-02 -2.330659e-02 -2.271729e-02 -2.197700e-02 -2.095065e-02 -1.976667e-02 -1.837996e-02 -1.687925e-02 -1.522384e-02 -1.351240e-02 -1.168160e-02 
-9.193661e-03 -7.291891e-03 -5.362845e-03 -3.478040e-03 -1.499167e-03 2.927236e-04 2.294998e-03 3.917436e-03 5.926019e-03 7.304101e-03 9.309166e-03 1.037560e-02 1.237468e-02 1.307799e-02 1.507626e-02 1.538789e-02 1.739379e-02 1.731095e-02 1.932040e-02 1.886279e-02 2.082913e-02 2.002968e-02 2.183227e-02 2.072699e-02 2.216331e-02 2.078971e-02 2.160685e-02 2.001483e-02 1.997499e-02 1.824194e-02 1.719749e-02 1.543086e-02 1.337572e-02 1.169182e-02 8.765798e-03 7.253066e-03 3.702179e-03 2.392693e-03 -1.489633e-03 -2.621042e-03 -6.545126e-03 -7.550445e-03 -1.126021e-02 -1.217225e-02 -1.545662e-02 -1.625492e-02 -1.895202e-02 -1.956243e-02 -2.156525e-02 -2.189186e-02 -2.315391e-02 -2.311771e-02 -2.365224e-02 -2.321331e-02 -2.308494e-02 -2.224714e-02 -2.155663e-02 -2.036065e-02 -1.922554e-02 -1.773641e-02 -1.627262e-02 -1.456705e-02 -1.287559e-02 -1.103299e-02 
-7.678143e-03 -6.181145e-03 -4.586252e-03 -3.122622e-03 -1.454885e-03 -9.378319e-05 1.621833e-03 2.812525e-03 4.557358e-03 5.514189e-03 7.274232e-03 7.943759e-03 9.709893e-03 1.005528e-02 1.182364e-02 1.182979e-02 1.359850e-02 1.327380e-02 1.503149e-02 1.440574e-02 1.611112e-02 1.523013e-02 1.679147e-02 1.570991e-02 1.697936e-02 1.575617e-02 1.654885e-02 1.524785e-02 1.538344e-02 1.407593e-02 1.342825e-02 1.219027e-02 1.072501e-02 9.624062e-03 7.410422e-03 6.485502e-03 3.681144e-03 2.928344e-03 -2.519149e-04 -8.753918e-04 -4.194257e-03 -4.745463e-03 -7.971876e-03 -8.487988e-03 -1.141746e-02 -1.189054e-02 -1.435970e-02 -1.473488e-02 -1.663257e-02 -1.682995e-02 -1.810333e-02 -1.804852e-02 -1.870090e-02 -1.834755e-02 -1.842842e-02 -1.776687e-02 -1.735672e-02 -1.641098e-02 -1.560430e-02 -1.442270e-02 -1.331286e-02 -1.195758e-02 -1.062636e-02 -9.165467e-03 
-7.067099e-03 -5.564804e-03 -3.931691e-03 -2.477705e-03 -7.567668e-04 5.867628e-04 2.372245e-03 3.543425e-03 5.376866e-03 6.316822e-03 8.185327e-03 8.842847e-03 1.073485e-02 1.107196e-02 1.297440e-02 1.297116e-02 1.486402e-02 1.452076e-02 1.636683e-02 1.570299e-02 1.743358e-02 1.648356e-02 1.798709e-02 1.679567e-02 1.791996e-02 1.654078e-02 1.711525e-02 1.561338e-02 1.548765e-02 1.394213e-02 1.302806e-02 1.152796e-02 9.828469e-03 8.459058e-03 6.072451e-03 4.896100e-03 1.996207e-03 1.038727e-03 -2.158174e-03 -2.906864e-03 -6.175197e-03 -6.744832e-03 -9.874549e-03 -1.029063e-02 -1.310253e-02 -1.336782e-02 -1.572271e-02 -1.581410e-02 -1.761882e-02 -1.749954e-02 -1.870993e-02 -1.834716e-02 -1.896599e-02 -1.834380e-02 -1.841350e-02 -1.753802e-02 -1.712901e-02 -1.602722e-02 -1.522410e-02 -1.393877e-02 -1.282724e-02 -1.141105e-02 -1.006807e-02 -8.578789e-03 
-5.660329e-03 -4.513690e-03 -3.204556e-03 -2.125147e-03 -7.143056e-04 2.435282e-04 1.737980e-03 2.520987e-03 4.085535e-03 4.644921e-03 6.267765e-03 6.563787e-03 8.232620e-03 8.239546e-03 9.939167e-03 9.649248e-03 1.135744e-02 1.078275e-02 1.246300e-02 1.163473e-02 1.322660e-02 1.219198e-02 1.360380e-02 1.242165e-02 1.353205e-02 1.226874e-02 1.294132e-02 1.166782e-02 1.177718e-02 1.056594e-02 1.002734e-02 8.946510e-03 7.739076e-03 6.842737e-03 5.018322e-03 4.335611e-03 2.011946e-03 1.540840e-03 -1.116930e-03 -1.405756e-03 -4.208561e-03 -4.357394e-03 -7.115054e-03 -7.160067e-03 -9.700409e-03 -9.656831e-03 -1.184037e-02 -1.169889e-02 -1.342888e-02 -1.316383e-02 -1.439062e-02 -1.397394e-02 -1.469288e-02 -1.410640e-02 -1.434984e-02 -1.359192e-02 -1.341737e-02 -1.250384e-02 -1.198103e-02 -1.094231e-02 -1.014154e-02 -9.018334e-03 -8.002123e-03 -6.841654e-03 
-5.075001e-03 -3.910880e-03 -2.540116e-03 -1.454793e-03 3.151243e-05 9.886305e-04 2.573965e-03 3.352855e-03 5.024118e-03 5.577253e-03 7.320784e-03 7.607388e-03 9.405284e-03 9.396089e-03 1.122252e-02 1.090396e-02 1.272080e-02 1.209758e-02 1.384887e-02 1.294438e-02 1.455079e-02 1.340551e-02 1.476225e-02 1.343116e-02 1.441411e-02 1.296445e-02 1.344673e-02 1.195605e-02 1.183265e-02 1.038553e-02 9.598905e-03 8.279924e-03 6.837761e-03 5.720304e-03 3.699263e-03 2.833362e-03 3.682078e-04 -2.272244e-04 -2.964226e-03 -3.300438e-03 -6.123012e-03 -6.231396e-03 -8.960204e-03 -8.877482e-03 -1.135610e-02 -1.111140e-02 -1.321727e-02 -1.282639e-02 -1.447733e-02 -1.394500e-02 -1.510110e-02 -1.442771e-02 -1.508853e-02 -1.427690e-02 -1.447426e-02 -1.353409e-02 -1.332192e-02 -1.227147e-02 -1.171458e-02 -1.058036e-02 -9.744139e-03 -8.559563e-03 -7.502322e-03 -6.306308e-03 
-3.756596e-03 -2.906929e-03 -1.857457e-03 -1.107908e-03 6.415558e-05 6.720191e-04 1.958870e-03 2.383065e-03 3.779184e-03 3.980943e-03 5.478912e-03 5.427190e-03 7.013863e-03 6.690045e-03 8.343023e-03 7.744887e-03 9.428928e-03 8.573033e-03 1.023616e-02 9.158183e-03 1.072822e-02 9.481211e-03 1.086493e-02 9.515941e-03 1.060376e-02 9.229456e-03 9.907425e-03 8.588957e-03 8.756846e-03 7.573677e-03 7.165055e-03 6.187166e-03 5.185690e-03 4.464718e-03 2.911794e-03 2.473276e-03 4.651680e-04 3.051021e-04 -2.019225e-03 -1.931057e-03 -4.407948e-03 -4.118172e-03 -6.579221e-03 -6.137857e-03 -8.428542e-03 -7.877598e-03 -9.872332e-03 -9.239871e-03 -1.085188e-02 -1.015250e-02 -1.133747e-02 -1.057713e-02 -1.133038e-02 -1.051237e-02 -1.086090e-02 -9.990716e-03 -9.982061e-03 -9.070281e-03 -8.761020e-03 -7.824427e-03 -7.270190e-03 -6.331854e-03 -5.580335e-03 -4.669210e-03 
-3.190483e-03 -2.317636e-03 -1.185309e-03 -4.192260e-04 8.489759e-04 1.469741e-03 2.868062e-03 3.302241e-03 4.825016e-03 5.032148e-03 6.668605e-03 6.613575e-03 8.343137e-03 8.001171e-03 9.789640e-03 9.150972e-03 1.094765e-02 1.002102e-02 1.175680e-02 1.057120e-02 1.215818e-02 1.076272e-02 1.209682e-02 1.055893e-02 1.152748e-02 9.929847e-03 1.042500e-02 8.860978e-03 8.797467e-03 7.364187e-03 6.697301e-03 5.485988e-03 4.224473e-03 3.308856e-03 1.518601e-03 9.441814e-04 -1.258495e-03 -1.480650e-03 -3.944002e-03 -3.836325e-03 -6.392451e-03 -6.002817e-03 -8.487118e-03 -7.876412e-03 -1.014429e-02 -9.373768e-03 -1.131286e-02 -1.043497e-02 -1.197209e-02 -1.102631e-02 -1.212867e-02 -1.114182e-02 -1.181286e-02 -1.080208e-02 -1.107319e-02 -1.005003e-02 -9.969908e-03 -8.944268e-03 -8.568203e-03 -7.551647e-03 -6.932407e-03 -5.940525e-03 -5.122079e-03 -4.176011e-03 
-1.928338e-03 -1.336980e-03 -5.328972e-04 -7.162602e-05 8.694821e-04 1.169389e-03 2.254190e-03 2.358385e-03 3.593521e-03 3.468736e-03 4.854979e-03 4.474145e-03 6.001020e-03 5.348664e-03 6.990166e-03 6.067223e-03 7.779006e-03 6.606208e-03 8.324344e-03 6.943606e-03 8.585030e-03 7.058622e-03 8.523849e-03 6.931414e-03 8.110664e-03 6.544240e-03 7.327863e-03 5.884983e-03 6.177854e-03 4.952741e-03 4.690439e-03 3.763800e-03 2.926861e-03 2.355679e-03 9.779673e-04 7.876307e-04 -1.043892e-03 -8.626766e-04 -3.017212e-03 -2.505382e-03 -4.824749e-03 -4.046302e-03 -6.365249e-03 -5.395469e-03 -7.562089e-03 -6.475703e-03 -8.368434e-03 -7.230400e-03 -8.768828e-03 -7.629170e-03 -8.777054e-03 -7.669743e-03 -8.430403e-03 -7.375361e-03 -7.781439e-03 -6.788404e-03 -6.889071e-03 -5.962224e-03 -5.810881e-03 -4.953332e-03 -4.597937e-03 -3.815507e-03 -3.292501e-03 -2.596474e-03 
-1.379567e-03 -7.644485e-04 1.403693e-04 6.257782e-04 1.681644e-03 2.007351e-03 3.224344e-03 3.354303e-03 4.739383e-03 4.635653e-03 6.185610e-03 5.813721e-03 7.509119e-03 6.844127e-03 8.645273e-03 7.677727e-03 9.523279e-03 8.264219e-03 1.007234e-02 8.556530e-03 1.022816e-02 8.515100e-03 9.939260e-03 8.111924e-03 9.173942e-03 7.335054e-03 7.928360e-03 6.193909e-03 6.235010e-03 4.724337e-03 4.168438e-03 2.991031e-03 1.844255e-03 1.084941e-03 -5.908631e-04 -8.848950e-04 -2.976841e-03 -2.803287e-03 -5.160883e-03 -4.561415e-03 -7.015680e-03 -6.067103e-03 -8.451489e-03 -7.251502e-03 -9.420996e-03 -8.072192e-03 -9.917719e-03 -8.513329e-03 -9.969475e-03 -8.583430e-03 -9.628645e-03 -8.311170e-03 -8.961117e-03 -7.739622e-03 -8.035804e-03 -6.919711e-03 -6.916354e-03 -5.903948e-03 -5.655935e-03 -4.741445e-03 -4.295220e-03 -3.474887e-03 -2.863121e-03 -2.139592e-03 
-1.314193e-04 2.270535e-04 7.846719e-04 9.889554e-04 1.692460e-03 1.718782e-03 2.594917e-03 2.412408e-03 3.485813e-03 3.061578e-03 4.346574e-03 3.652109e-03 5.145165e-03 4.163328e-03 5.837648e-03 4.569150e-03 6.372542e-03 4.840912e-03 6.697078e-03 4.951316e-03 6.763594e-03 4.878169e-03 6.534704e-03 4.606810e-03 5.987177e-03 4.131126e-03 5.115564e-03 3.454047e-03 3.936342e-03 2.588561e-03 2.492035e-03 1.559644e-03 8.533508e-04 4.065623e-04 -8.829337e-04 -8.157797e-04 -2.601540e-03 -2.038071e-03 -4.181008e-03 -3.181476e-03 -5.508566e-03 -4.166130e-03 -6.494874e-03 -4.921932e-03 -7.086049e-03 -5.399264e-03 -7.270423e-03 -5.576804e-03 -7.077930e-03 -5.464031e-03 -6.571557e-03 -5.097362e-03 -5.832823e-03 -4.530993e-03 -4.945480e-03 -3.825389e-03 -3.981990e-03 -3.036945e-03 -2.995571e-03 -2.211225e-03 -2.018239e-03 -1.380423e-03 -1.063456e-03 -5.642556e-04 
3.949278e-04 7.736199e-04 1.444667e-03 1.679409e-03 2.512870e-03 2.579584e-03 3.608312e-03 3.472019e-03 4.722636e-03 4.342531e-03 5.825440e-03 5.161633e-03 6.862552e-03 5.883957e-03 7.759090e-03 6.451590e-03 8.427813e-03 6.801529e-03 8.781042e-03 6.875494e-03 8.742728e-03 6.629130e-03 8.258041e-03 6.038571e-03 7.300652e-03 5.104563e-03 5.879535e-03 3.855334e-03 4.045842e-03 2.348286e-03 1.897231e-03 6.688847e-04 -4.250337e-04 -1.075255e-03 -2.749517e-03 -2.765469e-03 -4.897189e-03 -4.286232e-03 -6.707050e-03 -5.538946e-03 -8.057889e-03 -6.452625e-03 -8.882107e-03 -6.990210e-03 -9.170408e-03 -7.150069e-03 -8.967473e-03 -6.962646e-03 -8.359409e-03 -6.482870e-03 -7.455325e-03 -5.779808e-03 -6.367184e-03 -4.925536e-03 -5.192583e-03 -3.985259e-03 -4.003790e-03 -3.010368e-03 -2.843973e-03 -2.035300e-03 -1.729431e-03 -1.077997e-03 -6.556439e-04 -1.430485e-04 
1.681378e-03 1.820432e-03 2.110484e-03 2.081562e-03 2.520737e-03 2.304364e-03 2.947226e-03 2.510933e-03 3.408321e-03 2.713158e-03 3.900458e-03 2.909513e-03 4.395530e-03 3.083493e-03 4.842774e-03 3.205170e-03 5.176415e-03 3.236930e-03 5.327748e-03 3.142480e-03 5.237465e-03 2.895830e-03 4.864130e-03 2.486480e-03 4.187779e-03 1.919414e-03 3.210931e-03 1.211566e-03 1.959986e-03 3.878662e-04 4.880448e-04 -5.203203e-04 -1.122582e-03 -1.473302e-03 -2.761583e-03 -2.419266e-03 -4.298405e-03 -3.292370e-03 -5.596761e-03 -4.016310e-03 -6.533622e-03 -4.514763e-03 -7.019569e-03 -4.726796e-03 -7.016730e-03 -4.622549e-03 -6.549224e-03 -4.213487e-03 -5.700912e-03 -3.552797e-03 -4.598477e-03 -2.724726e-03 -3.383931e-03 -1.825920e-03 -2.185751e-03 -9.452703e-04 -1.097902e-03 -1.489841e-04 -1.712226e-04 5.257609e-04 5.839569e-04 1.069251e-03 1.188277e-03 1.492766e-03 
2.170183e-03 2.322496e-03 2.730412e-03 2.738576e-03 3.316787e-03 3.159515e-03 3.973386e-03 3.611675e-03 4.717474e-03 4.100901e-03 5.531087e-03 4.606440e-03 6.356688e-03 5.078567e-03 7.100795e-03 5.443161e-03 7.647818e-03 5.614739e-03 7.881181e-03 5.514662e-03 7.703546e-03 5.087248e-03 7.049444e-03 4.308632e-03 5.891093e-03 3.189344e-03 4.243358e-03 1.774678e-03 2.171679e-03 1.446715e-04 -2.002813e-04 -1.588512e-03 -2.692143e-03 -3.289440e-03 -5.085083e-03 -4.815588e-03 -7.155459e-03 -6.037290e-03 -8.712299e-03 -6.855503e-03 -9.626700e-03 -7.214151e-03 -9.848545e-03 -7.106503e-03 -9.410929e-03 -6.575087e-03 -8.422252e-03 -5.704218e-03 -7.045320e-03 -4.605559e-03 -5.466074e-03 -3.399657e-03 -3.859743e-03 -2.197460e-03 -2.363572e-03 -1.085409e-03 -1.062243e-03 -1.169441e-04 1.327930e-05 6.886272e-04 8.771127e-04 1.341240e-03 1.575012e-03 1.871731e-03 
3.558085e-03 3.480260e-03 3.455052e-03 3.212409e-03 3.332714e-03 2.906130e-03 3.264938e-03 2.613830e-03 3.299889e-03 2.370732e-03 3.451586e-03 2.189471e-03 3.693909e-03 2.056122e-03 3.961613e-03 1.931176e-03 4.162589e-03 1.759101e-03 4.199923e-03 1.485704e-03 3.994250e-03 1.076047e-03 3.496487e-03 5.237825e-04 2.688892e-03 -1.515020e-04 1.580497e-03 -9.149839e-04 2.047462e-04 -1.728258e-03 -1.377205e-03 -2.555454e-03 -3.070192e-03 -3.360203e-03 -4.742546e-03 -4.095660e-03 -6.233877e-03 -4.695869e-03 -7.374093e-03 -5.076630e-03 -8.009583e-03 -5.149768e-03 -8.032958e-03 -4.847859e-03 -7.411962e-03 -4.150571e-03 -6.208761e-03 -3.101768e-03 -4.578036e-03 -1.808976e-03 -2.737598e-03 -4.228996e-04 -9.187830e-04 8.972365e-04 6.842290e-04 2.019169e-03 1.947320e-03 2.860503e-03 2.824611e-03 3.393994e-03 3.336989e-03 3.638873e-03 3.551177e-03 3.645578e-03 
3.980257e-03 3.905918e-03 3.989836e-03 3.792718e-03 4.050317e-03 3.708090e-03 4.250890e-03 3.714230e-03 4.642852e-03 3.843052e-03 5.224937e-03 4.084837e-03 5.932550e-03 4.380863e-03 6.639730e-03 4.627776e-03 7.181463e-03 4.699481e-03 7.392159e-03 4.480962e-03 7.140634e-03 3.896396e-03 6.344977e-03 2.919323e-03 4.970945e-03 1.569615e-03 3.031281e-03 -9.043859e-05 5.979753e-04 -1.955616e-03 -2.177819e-03 -3.878167e-03 -5.058265e-03 -5.678556e-03 -7.743423e-03 -7.170352e-03 -9.927478e-03 -8.191965e-03 -1.136010e-02 -8.631610e-03 -1.188802e-02 -8.441817e-03 -1.147427e-02 -7.646322e-03 -1.020228e-02 -6.339331e-03 -8.265115e-03 -4.673451e-03 -5.933506e-03 -2.835472e-03 -3.503968e-03 -1.015834e-03 -1.242212e-03 6.207458e-04 6.602745e-04 1.958062e-03 2.105160e-03 2.939439e-03 3.082288e-03 3.565566e-03 3.649618e-03 3.882598e-03 3.908350e-03 3.966165e-03 
5.544610e-03 5.242478e-03 4.818758e-03 4.381509e-03 4.089984e-03 3.493780e-03 3.479892e-03 2.667523e-03 3.074864e-03 1.966646e-03 2.912402e-03 1.421834e-03 2.967262e-03 1.020652e-03 3.147410e-03 7.044466e-04 3.312408e-03 3.824954e-04 3.314913e-03 -3.507155e-05 3.042874e-03 -6.013975e-04 2.438524e-03 -1.316031e-03 1.490850e-03 -2.134174e-03 2.176424e-04 -2.991568e-03 -1.344030e-03 -3.830294e-03 -3.131296e-03 -4.612974e-03 -5.038537e-03 -5.316451e-03 -6.904787e-03 -5.907392e-03 -8.520725e-03 -6.318880e-03 -9.656293e-03 -6.444579e-03 -1.009763e-02 -6.159758e-03 -9.690541e-03 -5.364171e-03 -8.389172e-03 -4.029976e-03 -6.295700e-03 -2.233996e-03 -3.664934e-03 -1.585242e-04 -8.552900e-04 1.944721e-03 1.761985e-03 3.818485e-03 3.894049e-03 5.264178e-03 5.378366e-03 6.177869e-03 6.185416e-03 6.550884e-03 6.388239e-03 6.446670e-03 6.121314e-03 5.970344e-03 
5.852445e-03 5.542033e-03 5.198027e-03 4.817943e-03 4.643407e-03 4.165580e-03 4.336793e-03 3.693963e-03 4.378163e-03 3.472363e-03 4.793609e-03 3.509319e-03 5.509308e-03 3.732580e-03 6.344411e-03 3.987654e-03 7.046108e-03 4.074195e-03 7.365036e-03 3.812893e-03 7.121469e-03 3.097708e-03 6.218664e-03 1.902566e-03 4.616507e-03 2.604705e-04 2.313187e-03 -1.750009e-03 -6.328422e-04 -3.998211e-03 -4.050539e-03 -6.290008e-03 -7.619866e-03 -8.376614e-03 -1.090329e-02 -9.995726e-03 -1.345134e-02 -1.092887e-02 -1.491282e-02 -1.103714e-02 -1.509095e-02 -1.027490e-02 -1.395788e-02 -8.697195e-03 -1.165835e-02 -6.462063e-03 -8.502123e-03 -3.814607e-03 -4.919621e-03 -1.047113e-03 -1.374285e-03 1.550899e-03 1.734419e-03 3.738156e-03 4.141726e-03 5.357549e-03 5.740474e-03 6.351223e-03 6.561276e-03 6.751722e-03 6.730819e-03 6.657442e-03 6.428458e-03 6.204291e-03 
7.680101e-03 7.137558e-03 6.185083e-03 5.577023e-03 4.728261e-03 4.019633e-03 3.489647e-03 2.595723e-03 2.607494e-03 1.406762e-03 2.156494e-03 5.111634e-04 2.116068e-03 -9.916919e-05 2.348847e-03 -5.162588e-04 2.624734e-03 -8.987031e-04 2.704065e-03 -1.407610e-03 2.423311e-03 -2.131055e-03 1.723581e-03 -3.052586e-03 6.184328e-04 -4.077462e-03 -8.562556e-04 -5.086419e-03 -2.666603e-03 -5.988010e-03 -4.765117e-03 -6.749606e-03 -7.048076e-03 -7.385378e-03 -9.317845e-03 -7.898744e-03 -1.128840e-02 -8.227761e-03 -1.263294e-02 -8.223055e-03 -1.303402e-02 -7.680420e-03 -1.224202e-02 -6.418855e-03 -1.015799e-02 -4.370879e-03 -6.919662e-03 -1.645628e-03 -2.930880e-03 1.463945e-03 1.218950e-03 4.541497e-03 4.927617e-03 7.167601e-03 7.751559e-03 9.041201e-03 9.486844e-03 1.003606e-02 1.015067e-02 1.018515e-02 9.909378e-03 9.626641e-03 9.001213e-03 8.546565e-03 
7.802689e-03 7.239513e-03 6.305815e-03 5.770764e-03 4.987777e-03 4.441625e-03 4.074180e-03 3.423267e-03 3.739394e-03 2.843268e-03 4.062689e-03 2.748149e-03 4.967644e-03 3.053146e-03 6.183139e-03 3.516182e-03 7.293413e-03 3.796209e-03 7.899718e-03 3.597850e-03 7.760751e-03 2.778272e-03 6.791244e-03 1.332566e-03 4.963376e-03 -6.798154e-04 2.238546e-03 -3.170930e-03 -1.391083e-03 -5.996492e-03 -5.771235e-03 -8.907134e-03 -1.046780e-02 -1.154299e-02 -1.479943e-02 -1.350798e-02 -1.806256e-02 -1.449115e-02 -1.974925e-02 -1.431315e-02 -1.960498e-02 -1.292298e-02 -1.760727e-02 -1.040468e-02 -1.397018e-02 -6.996373e-03 -9.164818e-03 -3.075598e-03 -3.868750e-03 9.103699e-04 1.191412e-03 4.527923e-03 5.412029e-03 7.423270e-03 8.431810e-03 9.382942e-03 1.015414e-02 1.035651e-02 1.069194e-02 1.043291e-02 1.028416e-02 9.791215e-03 9.222167e-03 8.651322e-03 
9.989225e-03 9.183767e-03 7.512668e-03 6.768717e-03 5.147667e-03 4.411246e-03 3.142507e-03 2.288544e-03 1.709240e-03 5.538677e-04 9.911862e-04 -6.835899e-04 9.932600e-04 -1.410889e-03 1.508250e-03 -1.771020e-03 2.133627e-03 -2.053914e-03 2.452503e-03 -2.566694e-03 2.221722e-03 -3.463658e-03 1.413405e-03 -4.686287e-03 1.156876e-04 -6.036355e-03 -1.593438e-03 -7.287699e-03 -3.699576e-03 -8.284884e-03 -6.213761e-03 -9.011961e-03 -9.071273e-03 -9.577101e-03 -1.203113e-02 -1.007469e-02 -1.468285e-02 -1.047034e-02 -1.655330e-02 -1.053942e-02 -1.716327e-02 -9.919924e-03 -1.608472e-02 -8.259488e-03 -1.307991e-02 -5.388344e-03 -8.293397e-03 -1.441345e-03 -2.358326e-03 3.117883e-03 3.733303e-03 7.588933e-03 8.977311e-03 1.126885e-02 1.269781e-02 1.369711e-02 1.466733e-02 1.474039e-02 1.502164e-02 1.452739e-02 1.409773e-02 1.332834e-02 1.229410e-02 1.145161e-02 
9.829784e-03 8.993141e-03 7.233716e-03 6.582698e-03 4.926280e-03 4.405359e-03 3.231459e-03 2.713083e-03 2.442237e-03 1.729357e-03 2.751370e-03 1.588226e-03 4.117624e-03 2.217182e-03 6.128513e-03 3.227955e-03 8.044358e-03 3.995397e-03 9.178181e-03 4.002287e-03 9.229006e-03 3.083563e-03 8.221246e-03 1.328738e-03 6.207382e-03 -1.140515e-03 3.070239e-03 -4.255359e-03 -1.396673e-03 -7.907966e-03 -7.174571e-03 -1.179937e-02 -1.368174e-02 -1.538228e-02 -1.976597e-02 -1.800396e-02 -2.425162e-02 -1.921543e-02 -2.641728e-02 -1.880132e-02 -2.597235e-02 -1.669849e-02 -2.289488e-02 -1.300072e-02 -1.744821e-02 -8.041646e-03 -1.031691e-02 -2.401644e-03 -2.582752e-03 3.234991e-03 4.594873e-03 8.225873e-03 1.028954e-02 1.204374e-02 1.401973e-02 1.439494e-02 1.575334e-02 1.525966e-02 1.576913e-02 1.483270e-02 1.449217e-02 1.342329e-02 1.237333e-02 1.136996e-02 
1.246966e-02 1.137656e-02 8.727766e-03 7.901579e-03 5.205836e-03 4.566373e-03 2.222208e-03 1.591958e-03 9.582472e-05 -7.960045e-04 -8.919661e-04 -2.386110e-03 -6.388670e-04 -3.086740e-03 5.596728e-04 -3.101781e-03 1.948928e-03 -2.980422e-03 2.748915e-03 -3.343829e-03 2.595727e-03 -4.472596e-03 1.591223e-03 -6.193593e-03 2.430479e-05 -8.093393e-03 -1.931457e-03 -9.740927e-03 -4.320993e-03 -1.084982e-02 -7.317222e-03 -1.143631e-02 -1.099341e-02 -1.183754e-02 -1.505473e-02 -1.235274e-02 -1.885950e-02 -1.303872e-02 -2.173406e-02 -1.354408e-02 -2.298061e-02 -1.320059e-02 -2.185208e-02 -1.131000e-02 -1.778050e-02 -7.479644e-03 -1.081369e-02 -1.848559e-03 -1.943601e-03 4.858383e-03 7.092608e-03 1.142552e-02 1.454931e-02 1.662111e-02 1.939577e-02 1.973862e-02 2.146452e-02 2.070196e-02 2.117210e-02 1.985641e-02 1.916651e-02 1.770801e-02 1.608836e-02 1.474767e-02 
1.190866e-02 1.077920e-02 7.871296e-03 7.159252e-03 4.249394e-03 3.880746e-03 1.479953e-03 1.291258e-03 4.517190e-05 -2.277840e-04 3.851993e-04 -3.389122e-04 2.628096e-03 1.003012e-03 6.172220e-03 3.183409e-03 9.576229e-03 4.952295e-03 1.153646e-02 5.329038e-03 1.175308e-02 4.222486e-03 1.065554e-02 2.037995e-03 8.574465e-03 -9.545236e-04 5.234606e-03 -4.797519e-03 -8.609022e-05 -9.576144e-03 -7.846214e-03 -1.500118e-02 -1.732171e-02 -2.018818e-02 -2.633541e-02 -2.391397e-02 -3.276259e-02 -2.556608e-02 -3.569651e-02 -2.497820e-02 -3.497273e-02 -2.206860e-02 -3.055004e-02 -1.685562e-02 -2.260587e-02 -9.764359e-03 -1.206830e-02 -1.724639e-03 -7.430524e-04 6.201142e-03 9.476200e-03 1.309346e-02 1.712971e-02 1.813056e-02 2.160585e-02 2.089487e-02 2.307292e-02 2.145598e-02 2.214087e-02 2.021574e-02 1.954284e-02 1.769945e-02 1.594918e-02 1.441163e-02 