# vtk DataFile Version 2.0
Comment goes here
ASCII

DATASET STRUCTURED_POINTS
DIMENSIONS    64   64   1

ORIGIN    0.000   0.000   0.000
SPACING   0.0156250.015625   1.000

POINT_DATA   4096
SCALARS uX double
LOOKUP_TABLE default

-2.354707e-02 -1.627556e-02 -8.736777e-03 -1.520835e-03 6.510294e-03 1.322858e-02 2.178864e-02 2.732661e-02 3.642971e-02 3.983749e-02 4.934903e-02 4.955317e-02 5.895112e-02 5.532657e-02 6.352307e-02 5.709870e-02 6.276836e-02 5.704296e-02 5.924018e-02 5.781193e-02 5.689213e-02 6.010746e-02 5.774323e-02 6.378039e-02 6.094305e-02 6.709927e-02 6.358304e-02 6.753540e-02 6.253301e-02 6.288081e-02 5.575013e-02 5.223114e-02 4.303252e-02 3.641047e-02 2.590030e-02 1.749783e-02 6.717179e-03 -2.148994e-03 -1.232655e-02 -2.073607e-02 -2.984634e-02 -3.736901e-02 -4.531071e-02 -5.182489e-02 -5.860784e-02 -6.401283e-02 -6.951962e-02 -7.357323e-02 -7.751897e-02 -7.989157e-02 -8.196659e-02 -8.240782e-02 -8.245162e-02 -8.091893e-02 -7.900505e-02 -7.568385e-02 -7.208984e-02 -6.731905e-02 -6.242137e-02 -5.658174e-02 -5.073911e-02 -4.416656e-02 -3.764309e-02 -3.060364e-02 
-1.234544e-02 -6.403397e-03 3.492935e-04 6.148923e-03 1.334041e-02 1.861163e-02 2.617451e-02 3.032605e-02 3.807293e-02 4.031829e-02 4.785109e-02 4.737954e-02 5.402341e-02 5.048180e-02 5.541240e-02 4.971592e-02 5.243576e-02 4.715071e-02 4.783188e-02 4.561790e-02 4.488034e-02 4.624158e-02 4.468503e-02 4.844909e-02 4.628828e-02 5.046167e-02 4.740547e-02 5.011585e-02 4.562025e-02 4.566504e-02 3.936471e-02 3.644996e-02 2.848696e-02 2.315065e-02 1.416103e-02 7.418019e-03 -1.753511e-03 -8.843008e-03 -1.746378e-02 -2.410298e-02 -3.173241e-02 -3.748386e-02 -4.395600e-02 -4.864151e-02 -5.390756e-02 -5.742805e-02 -6.140205e-02 -6.362655e-02 -6.615218e-02 -6.693595e-02 -6.786673e-02 -6.713763e-02 -6.643651e-02 -6.425807e-02 -6.203995e-02 -5.860924e-02 -5.511107e-02 -5.070275e-02 -4.620818e-02 -4.110219e-02 -3.586335e-02 -3.029529e-02 -2.448482e-02 -1.864106e-02 
-3.799028e-03 6.365724e-04 5.875796e-03 9.992661e-03 1.553437e-02 1.902014e-02 2.485329e-02 2.726389e-02 3.331555e-02 3.412840e-02 4.020646e-02 3.899464e-02 4.471337e-02 4.148192e-02 4.624029e-02 4.183362e-02 4.496626e-02 4.107650e-02 4.214314e-02 4.033460e-02 3.946683e-02 4.006945e-02 3.791896e-02 4.014956e-02 3.721387e-02 3.970357e-02 3.600834e-02 3.741497e-02 3.268093e-02 3.211426e-02 2.612560e-02 2.336080e-02 1.624385e-02 1.168763e-02 3.928215e-03 -1.628780e-03 -9.374938e-03 -1.507426e-02 -2.221140e-02 -2.736723e-02 -3.350119e-02 -3.769574e-02 -4.264303e-02 -4.568489e-02 -4.938526e-02 -5.120470e-02 -5.362725e-02 -5.420114e-02 -5.531640e-02 -5.466102e-02 -5.447507e-02 -5.267345e-02 -5.126945e-02 -4.848403e-02 -4.602917e-02 -4.248100e-02 -3.919479e-02 -3.512081e-02 -3.122376e-02 -2.683517e-02 -2.250265e-02 -1.796495e-02 -1.330361e-02 -8.748299e-03 
7.187789e-03 1.034775e-02 1.466311e-02 1.744791e-02 2.196703e-02 2.413603e-02 2.879264e-02 2.999169e-02 3.462058e-02 3.444004e-02 3.875469e-02 3.688396e-02 4.048909e-02 3.697883e-02 3.946379e-02 3.499896e-02 3.611874e-02 3.198161e-02 3.177489e-02 2.917794e-02 2.790480e-02 2.720879e-02 2.516794e-02 2.588137e-02 2.322121e-02 2.434618e-02 2.098702e-02 2.148090e-02 1.722482e-02 1.636550e-02 1.111187e-02 8.692470e-03 2.602401e-03 -1.078084e-03 -7.579310e-03 -1.189379e-02 -1.825039e-02 -2.248294e-02 -2.817507e-02 -3.171785e-02 -3.637476e-02 -3.882961e-02 -4.225684e-02 -4.344163e-02 -4.558196e-02 -4.548308e-02 -4.636353e-02 -4.508525e-02 -4.479034e-02 -4.252167e-02 -4.118999e-02 -3.817607e-02 -3.599326e-02 -3.249784e-02 -2.967256e-02 -2.593687e-02 -2.266629e-02 -1.887798e-02 -1.531602e-02 -1.159727e-02 -7.836210e-03 -4.254179e-03 -3.248409e-04 3.077707e-03 
1.572487e-02 1.748721e-02 2.037330e-02 2.165563e-02 2.467083e-02 2.532281e-02 2.847050e-02 2.826673e-02 3.148023e-02 3.018380e-02 3.330556e-02 3.079219e-02 3.355846e-02 2.998363e-02 3.204170e-02 2.796441e-02 2.895794e-02 2.524428e-02 2.495491e-02 2.235992e-02 2.084063e-02 1.958655e-02 1.712200e-02 1.686750e-02 1.372553e-02 1.377947e-02 1.005286e-02 9.682230e-03 5.333968e-03 4.030320e-03 -9.444644e-04 -3.310495e-03 -8.748318e-03 -1.191964e-02 -1.746737e-02 -2.091962e-02 -2.611685e-02 -2.923366e-02 -3.363159e-02 -3.586460e-02 -3.912157e-02 -4.009492e-02 -4.202227e-02 -4.157457e-02 -4.213869e-02 -4.031829e-02 -3.962181e-02 -3.665491e-02 -3.491148e-02 -3.114893e-02 -2.864642e-02 -2.448922e-02 -2.153575e-02 -1.735321e-02 -1.421874e-02 -1.028689e-02 -7.162654e-03 -3.640869e-03 -6.256402e-04 2.430425e-03 5.321341e-03 7.923353e-03 1.073525e-02 1.291514e-02 
2.673045e-02 2.722112e-02 2.907882e-02 2.906414e-02 3.095216e-02 3.034982e-02 3.224972e-02 3.090201e-02 3.271136e-02 3.044605e-02 3.198353e-02 2.871969e-02 2.975301e-02 2.563158e-02 2.593766e-02 2.140735e-02 2.085367e-02 1.659267e-02 1.518788e-02 1.180726e-02 9.680558e-03 7.412758e-03 4.733540e-03 3.379160e-03 2.642829e-04 -6.673296e-04 -4.194846e-03 -5.253444e-03 -9.216773e-03 -1.079367e-02 -1.515995e-02 -1.735302e-02 -2.195033e-02 -2.454256e-02 -2.904902e-02 -3.158724e-02 -3.558928e-02 -3.751646e-02 -4.059853e-02 -4.139254e-02 -4.322189e-02 -4.251146e-02 -4.289958e-02 -4.054507e-02 -3.948253e-02 -3.561460e-02 -3.327977e-02 -2.828448e-02 -2.501858e-02 -1.945600e-02 -1.569348e-02 -1.016117e-02 -6.327200e-03 -1.318952e-03 2.262902e-03 6.444116e-03 9.597048e-03 1.284853e-02 1.553678e-02 1.790780e-02 2.019945e-02 2.181932e-02 2.383883e-02 2.484706e-02 
3.557626e-02 3.471737e-02 3.518654e-02 3.377181e-02 3.424468e-02 3.227673e-02 3.279794e-02 3.021478e-02 3.075281e-02 2.748503e-02 2.793360e-02 2.398581e-02 2.417296e-02 1.970650e-02 1.942169e-02 1.478979e-02 1.383858e-02 9.512306e-03 7.788893e-03 4.168463e-03 1.708996e-03 -1.056387e-03 -4.097838e-03 -6.146999e-03 -9.598948e-03 -1.126819e-02 -1.501649e-02 -1.668157e-02 -2.066028e-02 -2.257928e-02 -2.670143e-02 -2.890910e-02 -3.299779e-02 -3.527758e-02 -3.904256e-02 -4.097328e-02 -4.403984e-02 -4.509239e-02 -4.706493e-02 -4.672267e-02 -4.726375e-02 -4.514801e-02 -4.405984e-02 -4.004419e-02 -3.734106e-02 -3.162908e-02 -2.757922e-02 -2.070706e-02 -1.581093e-02 -8.543009e-03 -3.426269e-03 3.438380e-03 8.188661e-03 1.401872e-02 1.799670e-02 2.244530e-02 2.548128e-02 2.848470e-02 3.061443e-02 3.231073e-02 3.370199e-02 3.432574e-02 3.520234e-02 3.499335e-02 
4.680959e-02 4.461337e-02 4.395192e-02 4.121366e-02 4.048303e-02 3.726141e-02 3.650328e-02 3.277980e-02 3.195282e-02 2.768870e-02 2.668824e-02 2.189724e-02 2.058683e-02 1.540429e-02 1.365838e-02 8.369388e-03 6.118425e-03 1.103344e-03 -1.639543e-03 -6.042859e-03 -9.189608e-03 -1.282348e-02 -1.624997e-02 -1.917700e-02 -2.277043e-02 -2.521486e-02 -2.889771e-02 -3.112708e-02 -3.483894e-02 -3.703747e-02 -4.068656e-02 -4.286124e-02 -4.627659e-02 -4.821826e-02 -5.112864e-02 -5.243106e-02 -5.447947e-02 -5.460786e-02 -5.539879e-02 -5.379990e-02 -5.297591e-02 -4.922348e-02 -4.656642e-02 -4.052523e-02 -3.606616e-02 -2.802922e-02 -2.212674e-02 -1.284727e-02 -6.172778e-03 3.279424e-03 9.891948e-03 1.842690e-02 2.422279e-02 3.103318e-02 3.553309e-02 4.024862e-02 4.330565e-02 4.595953e-02 4.769536e-02 4.858101e-02 4.927165e-02 4.878411e-02 4.875279e-02 4.726787e-02 
5.618805e-02 5.261115e-02 5.054332e-02 4.642580e-02 4.430887e-02 3.978024e-02 3.770462e-02 3.281057e-02 3.077964e-02 2.553702e-02 2.348583e-02 1.794271e-02 1.576067e-02 1.004473e-02 7.605688e-03 1.937476e-03 -8.613482e-04 -6.210496e-03 -9.408260e-03 -1.420481e-02 -1.775425e-02 -2.188616e-02 -2.566877e-02 -2.917126e-02 -3.304473e-02 -3.606207e-02 -3.990072e-02 -4.260527e-02 -4.630433e-02 -4.880407e-02 -5.224948e-02 -5.451071e-02 -5.753565e-02 -5.933759e-02 -6.168808e-02 -6.261823e-02 -6.394327e-02 -6.344007e-02 -6.331849e-02 -6.077113e-02 -5.878746e-02 -5.369981e-02 -4.957437e-02 -4.177792e-02 -3.553174e-02 -2.538459e-02 -1.747525e-02 -5.929821e-03 2.746072e-03 1.431746e-02 2.263184e-02 3.283066e-02 3.977610e-02 4.759417e-02 5.257653e-02 5.759912e-02 6.050316e-02 6.284474e-02 6.391518e-02 6.401317e-02 6.367699e-02 6.207973e-02 6.079741e-02 5.801424e-02 
6.780147e-02 6.274772e-02 5.943189e-02 5.390983e-02 5.051756e-02 4.469382e-02 4.131819e-02 3.525707e-02 3.189826e-02 2.562136e-02 2.221929e-02 1.576447e-02 1.223407e-02 5.700992e-03 1.968370e-03 -4.466535e-03 -8.432565e-03 -1.454508e-02 -1.871514e-02 -2.429904e-02 -2.858602e-02 -3.351923e-02 -3.780031e-02 -4.207188e-02 -4.621839e-02 -4.990705e-02 -5.380570e-02 -5.702206e-02 -6.057499e-02 -6.338769e-02 -6.649010e-02 -6.885317e-02 -7.135593e-02 -7.304967e-02 -7.471864e-02 -7.531595e-02 -7.580403e-02 -7.468242e-02 -7.353766e-02 -6.996708e-02 -6.670571e-02 -6.004091e-02 -5.430483e-02 -4.427856e-02 -3.606109e-02 -2.309792e-02 -1.295356e-02 1.681702e-03 1.259952e-02 2.703104e-02 3.724588e-02 4.958915e-02 5.782142e-02 6.680208e-02 7.236119e-02 7.757569e-02 8.041009e-02 8.217104e-02 8.267478e-02 8.167848e-02 8.044251e-02 7.747048e-02 7.509183e-02 7.082644e-02 
7.783439e-02 7.128565e-02 6.648768e-02 5.953706e-02 5.473939e-02 4.760368e-02 4.292748e-02 3.570518e-02 3.117002e-02 2.390394e-02 1.946307e-02 1.219537e-02 7.768804e-03 5.796296e-04 -3.913426e-03 -1.089342e-02 -1.550292e-02 -2.211128e-02 -2.683054e-02 -3.291491e-02 -3.767002e-02 -4.313055e-02 -4.779294e-02 -5.260202e-02 -5.702025e-02 -6.121234e-02 -6.524538e-02 -6.888131e-02 -7.241479e-02 -7.552869e-02 -7.846401e-02 -8.099848e-02 -8.321316e-02 -8.494799e-02 -8.623453e-02 -8.672336e-02 -8.672788e-02 -8.527677e-02 -8.347679e-02 -7.921669e-02 -7.498847e-02 -6.709313e-02 -5.990962e-02 -4.797042e-02 -3.772299e-02 -2.218580e-02 -9.519269e-03 8.072779e-03 2.165656e-02 3.893045e-02 5.144753e-02 6.598944e-02 7.571978e-02 8.594162e-02 9.203875e-02 9.752173e-02 1.000452e-01 1.012878e-01 1.008694e-01 9.882064e-02 9.629503e-02 9.196704e-02 8.812264e-02 8.237248e-02 
8.987206e-02 8.164032e-02 7.545546e-02 6.698251e-02 6.083539e-02 5.234482e-02 4.635144e-02 3.793077e-02 3.210016e-02 2.377214e-02 1.805320e-02 9.833777e-03 4.156383e-03 -3.905712e-03 -9.595234e-03 -1.740271e-02 -2.311414e-02 -3.053194e-02 -3.621582e-02 -4.310227e-02 -4.865037e-02 -5.489253e-02 -6.015447e-02 -6.569051e-02 -7.050168e-02 -7.532327e-02 -7.953477e-02 -8.366931e-02 -8.716790e-02 -9.064050e-02 -9.334536e-02 -9.611595e-02 -9.794033e-02 -9.981222e-02 -1.005872e-01 -1.011003e-01 -1.004809e-01 -9.883683e-02 -9.624191e-02 -9.134132e-02 -8.600317e-02 -7.668903e-02 -6.788311e-02 -5.344364e-02 -4.091434e-02 -2.175829e-02 -6.218053e-03 1.564950e-02 3.228734e-02 5.358384e-02 6.867802e-02 8.610653e-02 9.746058e-02 1.090183e-01 1.156827e-01 1.210864e-01 1.233001e-01 1.234737e-01 1.221520e-01 1.184930e-01 1.147323e-01 1.085935e-01 1.033706e-01 9.581952e-02 
1.005390e-01 9.062143e-02 8.283311e-02 7.283226e-02 6.523267e-02 5.539114e-02 4.809481e-02 3.850122e-02 3.150860e-02 2.217648e-02 1.542579e-02 6.352577e-03 -2.381724e-04 -9.032491e-03 -1.553021e-02 -2.398585e-02 -3.041303e-02 -3.843377e-02 -4.474800e-02 -5.222001e-02 -5.830814e-02 -6.512424e-02 -7.081634e-02 -7.689693e-02 -8.199976e-02 -8.730553e-02 -9.164660e-02 -9.617988e-02 -9.964603e-02 -1.034316e-01 -1.059792e-01 -1.090070e-01 -1.106191e-01 -1.127326e-01 -1.133097e-01 -1.140498e-01 -1.132577e-01 -1.117251e-01 -1.088733e-01 -1.037224e-01 -9.778107e-02 -8.748122e-02 -7.735311e-02 -6.082064e-02 -4.593021e-02 -2.345754e-02 -4.532358e-03 2.148027e-02 4.195529e-02 6.734814e-02 8.578331e-02 1.062620e-01 1.196158e-01 1.326669e-01 1.398120e-01 1.452622e-01 1.467685e-01 1.459665e-01 1.432222e-01 1.380157e-01 1.325112e-01 1.245957e-01 1.175638e-01 1.082229e-01 
1.128606e-01 1.010112e-01 9.168227e-02 8.003460e-02 7.101667e-02 5.977160e-02 5.115154e-02 4.034838e-02 3.209722e-02 2.170191e-02 1.373620e-02 3.702991e-03 -4.067886e-03 -1.375701e-02 -2.139389e-02 -3.070980e-02 -3.821618e-02 -4.708145e-02 -5.438702e-02 -6.268911e-02 -6.964792e-02 -7.726070e-02 -8.366713e-02 -9.047584e-02 -9.609966e-02 -1.020269e-01 -1.066638e-01 -1.116917e-01 -1.152164e-01 -1.193892e-01 -1.217831e-01 -1.251579e-01 -1.264729e-01 -1.289826e-01 -1.292093e-01 -1.304354e-01 -1.292914e-01 -1.282210e-01 -1.249475e-01 -1.198685e-01 -1.131846e-01 -1.019255e-01 -9.031329e-02 -7.104530e-02 -5.349709e-02 -2.614023e-02 -3.290873e-03 2.909238e-02 5.409200e-02 8.555451e-02 1.077181e-01 1.322432e-01 1.476565e-01 1.620846e-01 1.696045e-01 1.742814e-01 1.749526e-01 1.721456e-01 1.678996e-01 1.602269e-01 1.529637e-01 1.425911e-01 1.337863e-01 1.222177e-01 
1.239248e-01 1.101447e-01 9.907304e-02 8.577914e-02 7.526322e-02 6.262708e-02 5.271025e-02 4.073174e-02 3.134353e-02 1.994776e-02 1.096930e-02 7.028779e-05 -8.617773e-03 -1.907745e-02 -2.755744e-02 -3.758534e-02 -4.587260e-02 -5.541990e-02 -6.344201e-02 -7.240890e-02 -7.999947e-02 -8.825078e-02 -9.516517e-02 -1.025567e-01 -1.085158e-01 -1.149333e-01 -1.196949e-01 -1.251013e-01 -1.285431e-01 -1.330109e-01 -1.351874e-01 -1.388655e-01 -1.399744e-01 -1.429256e-01 -1.431276e-01 -1.450172e-01 -1.441211e-01 -1.438491e-01 -1.409802e-01 -1.364617e-01 -1.299139e-01 -1.182820e-01 -1.057975e-01 -8.436823e-02 -6.411714e-02 -3.230336e-02 -4.636432e-03 3.395880e-02 6.491351e-02 1.027281e-01 1.301093e-01 1.590541e-01 1.771387e-01 1.932096e-01 2.008169e-01 2.048980e-01 2.039907e-01 1.993021e-01 1.927387e-01 1.826805e-01 1.729640e-01 1.601774e-01 1.490828e-01 1.353020e-01 
1.361022e-01 1.201523e-01 1.073964e-01 9.237293e-02 8.039742e-02 6.635847e-02 5.514076e-02 4.198914e-02 3.140093e-02 1.898402e-02 8.862226e-03 -2.966913e-03 -1.277043e-02 -2.411591e-02 -3.369672e-02 -4.459870e-02 -5.397031e-02 -6.439579e-02 -7.346885e-02 -8.331282e-02 -9.188763e-02 -1.009859e-01 -1.087665e-01 -1.169257e-01 -1.235657e-01 -1.306170e-01 -1.358039e-01 -1.416817e-01 -1.452502e-01 -1.500669e-01 -1.520973e-01 -1.561440e-01 -1.569588e-01 -1.605248e-01 -1.604859e-01 -1.634367e-01 -1.625286e-01 -1.637403e-01 -1.610749e-01 -1.579791e-01 -1.514808e-01 -1.400889e-01 -1.266979e-01 -1.026639e-01 -7.947910e-02 -4.085118e-02 -7.543362e-03 4.130452e-02 7.965457e-02 1.273130e-01 1.604407e-01 1.952468e-01 2.158286e-01 2.328064e-01 2.401131e-01 2.418127e-01 2.389994e-01 2.306010e-01 2.215282e-01 2.076781e-01 1.954365e-01 1.793262e-01 1.659507e-01 1.494490e-01 
1.470047e-01 1.288762e-01 1.142711e-01 9.751248e-02 8.403691e-02 6.860628e-02 5.613942e-02 4.185086e-02 3.018597e-02 1.681248e-02 5.725631e-03 -6.941827e-03 -1.764491e-02 -2.976247e-02 -4.020944e-02 -5.185854e-02 -6.207834e-02 -7.325205e-02 -8.314843e-02 -9.374541e-02 -1.030829e-01 -1.129137e-01 -1.213290e-01 -1.301462e-01 -1.372030e-01 -1.447703e-01 -1.500733e-01 -1.562816e-01 -1.596433e-01 -1.646459e-01 -1.662525e-01 -1.705192e-01 -1.709630e-01 -1.750875e-01 -1.751053e-01 -1.792442e-01 -1.791195e-01 -1.821896e-01 -1.810160e-01 -1.799845e-01 -1.751061e-01 -1.648002e-01 -1.518203e-01 -1.260503e-01 -1.001195e-01 -5.534459e-02 -1.481545e-02 4.393103e-02 9.222484e-02 1.505782e-01 1.925831e-01 2.340460e-01 2.579831e-01 2.762344e-01 2.823080e-01 2.818241e-01 2.756326e-01 2.636654e-01 2.507779e-01 2.332272e-01 2.175240e-01 1.981316e-01 1.818793e-01 1.626631e-01 
1.582014e-01 1.377763e-01 1.214037e-01 1.029465e-01 8.803586e-02 7.130029e-02 5.761308e-02 4.226572e-02 2.950350e-02 1.521198e-02 3.082222e-03 -1.043870e-02 -2.217935e-02 -3.514100e-02 -4.665234e-02 -5.917336e-02 -7.049966e-02 -8.259028e-02 -9.363056e-02 -1.051805e-01 -1.156672e-01 -1.264447e-01 -1.359453e-01 -1.456242e-01 -1.535920e-01 -1.618344e-01 -1.677351e-01 -1.743521e-01 -1.778824e-01 -1.830537e-01 -1.843967e-01 -1.888275e-01 -1.887787e-01 -1.935369e-01 -1.932463e-01 -1.990467e-01 -1.992620e-01 -2.053218e-01 -2.053455e-01 -2.082062e-01 -2.049761e-01 -1.977588e-01 -1.855388e-01 -1.586379e-01 -1.302026e-01 -7.590194e-02 -2.706649e-02 4.965623e-02 1.116290e-01 1.871932e-01 2.385379e-01 2.886761e-01 3.150540e-01 3.320987e-01 3.359872e-01 3.295640e-01 3.193930e-01 3.007670e-01 2.837763e-01 2.605583e-01 2.413046e-01 2.175870e-01 1.984787e-01 1.761003e-01 
1.679438e-01 1.451849e-01 1.269696e-01 1.067885e-01 9.047379e-02 7.243487e-02 5.762449e-02 4.125305e-02 2.753528e-02 1.239325e-02 -6.078374e-04 -1.488753e-02 -2.747810e-02 -4.117204e-02 -5.355725e-02 -6.683433e-02 -7.908320e-02 -9.198444e-02 -1.039908e-01 -1.164072e-01 -1.278548e-01 -1.395127e-01 -1.498646e-01 -1.603444e-01 -1.688933e-01 -1.777208e-01 -1.837505e-01 -1.906101e-01 -1.937030e-01 -1.987734e-01 -1.992151e-01 -2.034793e-01 -2.025189e-01 -2.076625e-01 -2.072092e-01 -2.146843e-01 -2.162344e-01 -2.256796e-01 -2.288607e-01 -2.364721e-01 -2.376871e-01 -2.348382e-01 -2.262850e-01 -1.996125e-01 -1.697509e-01 -1.069101e-01 -4.672347e-02 4.654630e-02 1.262152e-01 2.216974e-01 2.899166e-01 3.503763e-01 3.797906e-01 3.958752e-01 3.947566e-01 3.825043e-01 3.654489e-01 3.403096e-01 3.172195e-01 2.884314e-01 2.644774e-01 2.364588e-01 2.139068e-01 1.883426e-01 
1.768213e-01 1.519070e-01 1.319808e-01 1.103370e-01 9.272895e-02 7.363068e-02 5.777202e-02 4.056161e-02 2.591764e-02 1.003696e-02 -3.857554e-03 -1.885877e-02 -3.237691e-02 -4.683596e-02 -6.023374e-02 -7.436332e-02 -8.774559e-02 -1.016113e-01 -1.148867e-01 -1.283742e-01 -1.412050e-01 -1.539878e-01 -1.657549e-01 -1.772923e-01 -1.871203e-01 -1.967450e-01 -2.036604e-01 -2.108402e-01 -2.141457e-01 -2.189707e-01 -2.188272e-01 -2.225773e-01 -2.205116e-01 -2.257505e-01 -2.244557e-01 -2.338950e-01 -2.359236e-01 -2.502960e-01 -2.560666e-01 -2.717465e-01 -2.775449e-01 -2.840167e-01 -2.802880e-01 -2.580355e-01 -2.286945e-01 -1.535730e-01 -8.200341e-02 4.608873e-02 1.553433e-01 2.831664e-01 3.667383e-01 4.401575e-01 4.695866e-01 4.773116e-01 4.692939e-01 4.435625e-01 4.187956e-01 3.823423e-01 3.528833e-01 3.162025e-01 2.875305e-01 2.543649e-01 2.284595e-01 1.995903e-01 
1.838936e-01 1.567329e-01 1.351890e-01 1.120225e-01 9.326384e-02 7.309204e-02 5.634930e-02 3.833351e-02 2.293845e-02 6.395214e-03 -8.214177e-03 -2.382935e-02 -3.810248e-02 -5.320372e-02 -6.745846e-02 -8.232221e-02 -9.670678e-02 -1.114442e-01 -1.258774e-01 -1.403861e-01 -1.544812e-01 -1.683859e-01 -1.813812e-01 -1.939984e-01 -2.047538e-01 -2.151597e-01 -2.223296e-01 -2.296669e-01 -2.321998e-01 -2.363611e-01 -2.343836e-01 -2.369650e-01 -2.326856e-01 -2.374016e-01 -2.349730e-01 -2.461565e-01 -2.497391e-01 -2.693798e-01 -2.804952e-01 -3.053663e-01 -3.204832e-01 -3.383089e-01 -3.457987e-01 -3.300948e-01 -3.054507e-01 -2.181842e-01 -1.275752e-01 2.809269e-02 1.693060e-01 3.388805e-01 4.595668e-01 5.492065e-01 5.756569e-01 5.741702e-01 5.513230e-01 5.119789e-01 4.741876e-01 4.266351e-01 3.881828e-01 3.437305e-01 3.092623e-01 2.709305e-01 2.413266e-01 2.090649e-01 
1.886422e-01 1.599262e-01 1.369684e-01 1.128644e-01 9.312636e-02 7.232420e-02 5.482796e-02 3.631322e-02 2.025234e-02 3.233084e-03 -1.205333e-02 -2.819737e-02 -4.323715e-02 -5.898070e-02 -7.416034e-02 -8.983256e-02 -1.053626e-01 -1.211171e-01 -1.369659e-01 -1.527166e-01 -1.685110e-01 -1.838393e-01 -1.987481e-01 -2.128120e-01 -2.254711e-01 -2.370140e-01 -2.456357e-01 -2.532960e-01 -2.562075e-01 -2.594158e-01 -2.562507e-01 -2.567634e-01 -2.499806e-01 -2.529938e-01 -2.481319e-01 -2.604938e-01 -2.638926e-01 -2.902345e-01 -3.054187e-01 -3.444299e-01 -3.687377e-01 -4.081299e-01 -4.288227e-01 -4.340836e-01 -4.199191e-01 -3.217808e-01 -2.223977e-01 8.235482e-03 2.240763e-01 4.550743e-01 5.966938e-01 7.071851e-01 7.240647e-01 6.922339e-01 6.522474e-01 5.848601e-01 5.335760e-01 4.688297e-01 4.214412e-01 3.675522e-01 3.274783e-01 2.840854e-01 2.510073e-01 2.159920e-01 
1.911128e-01 1.606616e-01 1.366277e-01 1.114778e-01 9.104265e-02 6.957791e-02 5.157015e-02 3.259411e-02 1.608328e-02 -1.316333e-03 -1.708487e-02 -3.362123e-02 -4.925928e-02 -6.549120e-02 -8.146760e-02 -9.780652e-02 -1.144086e-01 -1.310841e-01 -1.483319e-01 -1.653072e-01 -1.828125e-01 -1.996463e-01 -2.164254e-01 -2.321042e-01 -2.464085e-01 -2.592537e-01 -2.686067e-01 -2.765387e-01 -2.783712e-01 -2.800433e-01 -2.734230e-01 -2.706205e-01 -2.588578e-01 -2.588211e-01 -2.502428e-01 -2.631650e-01 -2.672212e-01 -3.003291e-01 -3.228096e-01 -3.772051e-01 -4.175595e-01 -4.818724e-01 -5.287098e-01 -5.579794e-01 -5.679645e-01 -4.437336e-01 -3.042616e-01 -4.024542e-02 2.169653e-01 5.361898e-01 7.708965e-01 9.122287e-01 8.998511e-01 8.349187e-01 7.589658e-01 6.640077e-01 5.916521e-01 5.104628e-01 4.520529e-01 3.889233e-01 3.430579e-01 2.944713e-01 2.582397e-01 2.202566e-01 
1.897682e-01 1.589435e-01 1.341220e-01 1.088712e-01 8.797902e-02 6.648881e-02 4.816046e-02 2.913401e-02 1.231669e-02 -5.220596e-03 -2.137126e-02 -3.818327e-02 -5.435833e-02 -7.105710e-02 -8.780829e-02 -1.048693e-01 -1.225793e-01 -1.403077e-01 -1.591038e-01 -1.775352e-01 -1.971252e-01 -2.158394e-01 -2.352535e-01 -2.531002e-01 -2.703739e-01 -2.852007e-01 -2.971882e-01 -3.059130e-01 -3.087735e-01 -3.086333e-01 -2.999609e-01 -2.920609e-01 -2.750036e-01 -2.689509e-01 -2.541674e-01 -2.648435e-01 -2.660341e-01 -3.057061e-01 -3.327512e-01 -4.072515e-01 -4.618275e-01 -5.665953e-01 -6.377390e-01 -7.261622e-01 -7.567432e-01 -6.308450e-01 -5.237127e-01 -9.593800e-02 3.557249e-01 7.274255e-01 9.348292e-01 1.148861e+00 1.130084e+00 9.806639e-01 8.752688e-01 7.325768e-01 6.411631e-01 5.403961e-01 4.717713e-01 4.010980e-01 3.499223e-01 2.984423e-01 2.594425e-01 2.203710e-01 
1.856862e-01 1.541824e-01 1.291648e-01 1.036507e-01 8.270819e-02 6.114841e-02 4.280500e-02 2.378153e-02 6.909156e-03 -1.063348e-02 -2.694949e-02 -4.384827e-02 -6.038245e-02 -7.733365e-02 -9.474453e-02 -1.123289e-01 -1.311292e-01 -1.497787e-01 -1.702309e-01 -1.901123e-01 -2.120135e-01 -2.327876e-01 -2.551001e-01 -2.755163e-01 -2.958407e-01 -3.132057e-01 -3.272887e-01 -3.371747e-01 -3.391945e-01 -3.366278e-01 -3.220038e-01 -3.066227e-01 -2.790200e-01 -2.640578e-01 -2.398663e-01 -2.473183e-01 -2.459767e-01 -2.914468e-01 -3.253847e-01 -4.200554e-01 -4.941853e-01 -6.434909e-01 -7.545340e-01 -9.021709e-01 -9.786833e-01 -6.974286e-01 -4.842229e-01 -1.554082e-01 1.415925e-01 5.499051e-01 9.858140e-01 1.371638e+00 1.325046e+00 1.122523e+00 9.695006e-01 7.906388e-01 6.788669e-01 5.615244e-01 4.850523e-01 4.069802e-01 3.526363e-01 2.977816e-01 2.574506e-01 2.168349e-01 
1.768600e-01 1.466076e-01 1.217702e-01 9.718873e-02 7.650604e-02 5.562577e-02 3.751738e-02 1.895412e-02 2.224481e-03 -1.506700e-02 -3.139088e-02 -4.825908e-02 -6.501752e-02 -8.219638e-02 -1.001362e-01 -1.182808e-01 -1.380437e-01 -1.577096e-01 -1.797463e-01 -2.012764e-01 -2.256331e-01 -2.488789e-01 -2.747624e-01 -2.985373e-01 -3.235595e-01 -3.447458e-01 -3.638974e-01 -3.764552e-01 -3.815785e-01 -3.770294e-01 -3.595923e-01 -3.337555e-01 -2.957206e-01 -2.657715e-01 -2.273740e-01 -2.241073e-01 -2.130879e-01 -2.600862e-01 -2.963289e-01 -4.086895e-01 -4.965941e-01 -6.932545e-01 -8.132556e-01 -1.040561e+00 -9.506185e-01 -5.560071e-01 -4.323463e-01 1.320920e-01 -2.544030e-01 -1.003901e-01 4.584725e-01 9.987021e-01 1.430938e+00 1.134991e+00 1.002582e+00 7.999401e-01 6.761477e-01 5.568682e-01 4.737902e-01 3.978459e-01 3.409055e-01 2.882137e-01 2.470537e-01 2.081104e-01 
1.650129e-01 1.355858e-01 1.116364e-01 8.779545e-02 6.781973e-02 4.758344e-02 3.003181e-02 1.201627e-02 -4.303206e-03 -2.115227e-02 -3.724116e-02 -5.380667e-02 -7.057809e-02 -8.766839e-02 -1.060006e-01 -1.243989e-01 -1.451346e-01 -1.655910e-01 -1.894514e-01 -2.125758e-01 -2.399133e-01 -2.658719e-01 -2.961174e-01 -3.239482e-01 -3.545261e-01 -3.808025e-01 -4.053494e-01 -4.221063e-01 -4.286786e-01 -4.222286e-01 -3.956896e-01 -3.546912e-01 -2.948443e-01 -2.431793e-01 -1.840204e-01 -1.704028e-01 -1.510044e-01 -1.970569e-01 -2.353658e-01 -3.586897e-01 -4.498342e-01 -6.849647e-01 -7.709342e-01 -1.078959e+00 -6.107595e-01 -5.719241e-02 -3.079908e-01 3.552224e-01 -3.869341e-02 4.982122e-03 4.952591e-02 7.078340e-02 9.385022e-01 9.058721e-01 9.084930e-01 7.462486e-01 6.474490e-01 5.316993e-01 4.546466e-01 3.792133e-01 3.247978e-01 2.728213e-01 2.332187e-01 1.951250e-01 
1.488427e-01 1.221876e-01 9.959146e-02 7.764991e-02 5.875670e-02 3.987016e-02 2.317702e-02 6.121428e-03 -9.547675e-03 -2.574587e-02 -4.140252e-02 -5.759408e-02 -7.418850e-02 -9.119350e-02 -1.096793e-01 -1.283526e-01 -1.497160e-01 -1.709766e-01 -1.962065e-01 -2.209808e-01 -2.508956e-01 -2.798474e-01 -3.145776e-01 -3.473584e-01 -3.850799e-01 -4.185561e-01 -4.528087e-01 -4.774404e-01 -4.927924e-01 -4.877559e-01 -4.589135e-01 -3.983551e-01 -3.193567e-01 -2.355345e-01 -1.462118e-01 -1.054085e-01 -6.183787e-02 -9.961195e-02 -1.362766e-01 -2.529150e-01 -3.501722e-01 -5.648934e-01 -6.268931e-01 -8.695374e-01 -2.507695e-01 2.594466e-02 2.522497e-02 -1.338695e-01 -5.500958e-03 -6.452232e-02 -4.245844e-02 -3.236226e-02 -3.476012e-02 5.892514e-01 5.920701e-01 6.252109e-01 5.371287e-01 4.742389e-01 4.016243e-01 3.439146e-01 2.924354e-01 2.483560e-01 2.109654e-01 1.772429e-01 
1.295063e-01 1.052391e-01 8.454798e-02 6.436072e-02 4.690162e-02 2.937107e-02 1.380298e-02 -2.152106e-03 -1.691745e-02 -3.219191e-02 -4.714060e-02 -6.256632e-02 -7.869595e-02 -9.514372e-02 -1.135523e-01 -1.320155e-01 -1.539625e-01 -1.756160e-01 -2.025289e-01 -2.287263e-01 -2.620634e-01 -2.941467e-01 -3.348742e-01 -3.734576e-01 -4.205174e-01 -4.633638e-01 -5.097685e-01 -5.462124e-01 -5.708766e-01 -5.704234e-01 -5.301575e-01 -4.406295e-01 -3.163654e-01 -1.825050e-01 -5.083056e-02 5.454224e-03 6.218589e-02 3.598348e-02 -3.413492e-03 -9.342282e-02 -1.823083e-01 -3.171949e-01 -3.351767e-01 -3.979079e-01 9.426201e-02 -1.983247e-01 2.549252e-01 -1.712724e-02 1.838158e-01 1.112165e-01 -2.685410e-01 4.097077e-01 1.136688e-01 4.294004e-01 4.703333e-01 5.108653e-01 4.585800e-01 4.104765e-01 3.519459e-01 3.026025e-01 2.578557e-01 2.189384e-01 1.855450e-01 1.552418e-01 
1.079446e-01 8.724350e-02 6.899621e-02 5.135000e-02 3.575050e-02 2.007852e-02 5.976377e-03 -8.601249e-03 -2.219924e-02 -3.645670e-02 -5.049664e-02 -6.519450e-02 -8.067051e-02 -9.664902e-02 -1.146911e-01 -1.329756e-01 -1.549446e-01 -1.768733e-01 -2.044686e-01 -2.318152e-01 -2.671344e-01 -3.020923e-01 -3.474016e-01 -3.921052e-01 -4.485959e-01 -5.030775e-01 -5.663351e-01 -6.211943e-01 -6.672723e-01 -6.818797e-01 -6.407497e-01 -5.153641e-01 -3.648452e-01 -1.724947e-01 1.788275e-02 1.319444e-01 2.468912e-01 2.242118e-01 1.807042e-01 1.194115e-01 2.186344e-02 -5.178802e-03 -7.426533e-02 9.790139e-02 -3.636954e-02 -9.776620e-02 3.843380e-01 -1.415335e-01 -1.106171e-01 4.176737e-01 -1.063784e-01 -1.094089e-01 2.575849e-01 1.697091e-01 3.359363e-01 3.517301e-01 3.563230e-01 3.242224e-01 2.872515e-01 2.499641e-01 2.146550e-01 1.835456e-01 1.553907e-01 1.302687e-01 
8.289659e-02 6.575463e-02 5.014520e-02 3.503061e-02 2.143104e-02 7.682424e-03 -4.814985e-03 -1.782024e-02 -3.004787e-02 -4.292140e-02 -5.573431e-02 -6.915418e-02 -8.354330e-02 -9.835800e-02 -1.155783e-01 -1.329321e-01 -1.546525e-01 -1.761473e-01 -2.046347e-01 -2.325451e-01 -2.708619e-01 -3.083531e-01 -3.604042e-01 -4.114902e-01 -4.810784e-01 -5.490897e-01 -6.344760e-01 -7.132217e-01 -7.848865e-01 -8.213335e-01 -7.624582e-01 -5.853205e-01 -3.604192e-01 -5.918806e-02 2.062342e-01 3.050864e-01 4.376538e-01 4.270090e-01 3.609596e-01 3.292355e-01 2.242343e-01 2.821450e-01 1.653965e-01 4.911202e-01 -1.399063e-01 -2.650439e-02 1.214907e-02 -1.948838e-01 1.586096e-02 -2.785348e-01 1.395682e-01 -2.788096e-01 -1.806554e-01 -4.720154e-03 1.147815e-01 2.130672e-01 2.319171e-01 2.373788e-01 2.138360e-01 1.935227e-01 1.664267e-01 1.441800e-01 1.213319e-01 1.015681e-01 
5.850458e-02 4.514573e-02 3.269288e-02 2.041795e-02 9.263942e-03 -2.321318e-03 -1.284265e-02 -2.417705e-02 -3.476341e-02 -4.632871e-02 -5.776261e-02 -7.013381e-02 -8.336157e-02 -9.729169e-02 -1.135218e-01 -1.300778e-01 -1.509357e-01 -1.717514e-01 -1.995766e-01 -2.272618e-01 -2.655953e-01 -3.042019e-01 -3.583720e-01 -4.138528e-01 -4.911631e-01 -5.709184e-01 -6.765787e-01 -7.803789e-01 -8.848436e-01 -9.493776e-01 -8.309069e-01 -5.811112e-01 -4.261227e-01 -7.901669e-02 2.186350e-01 4.197316e-01 7.599401e-01 7.097818e-01 5.965642e-01 5.569175e-01 4.450486e-01 5.073568e-01 4.333240e-01 6.461741e-01 2.564579e-01 1.607208e-01 -7.712921e-02 2.650789e-01 4.500138e-01 -2.839948e-01 2.430431e-01 1.269383e-01 -1.308326e-01 -2.412947e-02 3.329250e-02 1.136644e-01 1.430800e-01 1.567546e-01 1.480968e-01 1.369267e-01 1.194936e-01 1.041634e-01 8.754131e-02 7.287970e-02 
3.051771e-02 2.114048e-02 1.168961e-02 2.305457e-03 -6.526641e-03 -1.588177e-02 -2.448341e-02 -3.394134e-02 -4.278683e-02 -5.259613e-02 -6.229165e-02 -7.286856e-02 -8.426414e-02 -9.630545e-02 -1.106574e-01 -1.252945e-01 -1.444932e-01 -1.635344e-01 -1.904649e-01 -2.168338e-01 -2.559766e-01 -2.943926e-01 -3.528518e-01 -4.107388e-01 -4.993588e-01 -5.870347e-01 -7.155551e-01 -8.334268e-01 -9.554329e-01 -9.903911e-01 -5.907371e-01 -3.021807e-01 -3.664555e-01 -8.211749e-02 4.550744e-02 1.020541e-01 7.144459e-01 8.706127e-01 7.403303e-01 7.095608e-01 5.946533e-01 6.300940e-01 5.711528e-01 6.037643e-01 4.190002e-01 9.757350e-02 -2.162586e-02 -1.870517e-01 -1.716244e-01 2.034743e-01 2.717493e-01 7.605636e-03 -1.185588e-01 -1.318327e-01 -7.601119e-02 -1.696935e-03 3.945843e-02 6.995219e-02 7.382772e-02 7.614867e-02 6.724146e-02 6.062078e-02 4.973864e-02 4.082822e-02 
5.704298e-03 -1.790689e-05 -6.020649e-03 -1.253231e-02 -1.857799e-02 -2.565408e-02 -3.191102e-02 -3.954240e-02 -4.635337e-02 -5.467434e-02 -6.257247e-02 -7.188104e-02 -8.165736e-02 -9.247602e-02 -1.052535e-01 -1.184339e-01 -1.357968e-01 -1.528450e-01 -1.772395e-01 -2.010315e-01 -2.365833e-01 -2.719757e-01 -3.255080e-01 -3.796744e-01 -4.616906e-01 -5.422325e-01 -6.632656e-01 -7.516158e-01 -8.655506e-01 -6.960141e-01 6.955528e-02 2.001770e-01 2.615380e-01 9.956424e-02 1.868268e-01 1.623445e-01 4.900294e-01 1.031488e+00 7.892203e-01 8.257595e-01 6.961448e-01 7.298725e-01 6.746099e-01 6.588454e-01 4.956551e-01 1.511139e-01 3.444991e-02 -1.743759e-01 -8.359927e-02 1.400599e-01 3.552716e-03 -1.558746e-01 -2.302820e-01 -2.109544e-01 -1.653389e-01 -8.900317e-02 -4.238072e-02 -3.419191e-03 1.109334e-02 2.155151e-02 2.105718e-02 2.061123e-02 1.576090e-02 1.155464e-02 