# vtk DataFile Version 2.0
Comment goes here
ASCII

DATASET STRUCTURED_POINTS
DIMENSIONS    64   64   1

ORIGIN    0.000   0.000   0.000
SPACING   0.0156250.015625   1.000

POINT_DATA   4096
SCALARS uX double
LOOKUP_TABLE default

-3.078758e-02 -2.073626e-02 -1.263492e-02 -1.996584e-03 5.473247e-03 1.654415e-02 2.293488e-02 3.396619e-02 3.839156e-02 4.827250e-02 4.950183e-02 5.647705e-02 5.376382e-02 5.622828e-02 5.066996e-02 4.855266e-02 4.326022e-02 3.901700e-02 3.627484e-02 3.416754e-02 3.492754e-02 3.864825e-02 4.258860e-02 5.288546e-02 5.763121e-02 7.186561e-02 7.335661e-02 8.647822e-02 8.088523e-02 8.806207e-02 7.523574e-02 7.502107e-02 5.921650e-02 5.327954e-02 3.939680e-02 3.058360e-02 2.144918e-02 1.255349e-02 8.486249e-03 2.948310e-04 -6.433087e-04 -1.000079e-02 -1.087698e-02 -2.426485e-02 -2.719887e-02 -4.544057e-02 -4.983368e-02 -7.005647e-02 -7.340814e-02 -9.117649e-02 -9.169247e-02 -1.041518e-01 -1.012938e-01 -1.074529e-01 -1.015820e-01 -1.020451e-01 -9.416157e-02 -9.037397e-02 -8.152464e-02 -7.494413e-02 -6.586525e-02 -5.757825e-02 -4.867210e-02 -3.934105e-02 
-2.487501e-02 -1.577570e-02 -8.136460e-03 1.470724e-03 8.552571e-03 1.835843e-02 2.433490e-02 3.377410e-02 3.771974e-02 4.582606e-02 4.661004e-02 5.216826e-02 4.920820e-02 5.140746e-02 4.575889e-02 4.500088e-02 3.941042e-02 3.754938e-02 3.421856e-02 3.408045e-02 3.374700e-02 3.782768e-02 3.993234e-02 4.863634e-02 5.112632e-02 6.236092e-02 6.218810e-02 7.218594e-02 6.680516e-02 7.203558e-02 6.153161e-02 6.078156e-02 4.814708e-02 4.259451e-02 3.130325e-02 2.324409e-02 1.547081e-02 6.984450e-03 3.025440e-03 -5.293330e-03 -6.741494e-03 -1.602993e-02 -1.695203e-02 -2.889307e-02 -3.060289e-02 -4.553589e-02 -4.771186e-02 -6.372197e-02 -6.496298e-02 -7.915589e-02 -7.843999e-02 -8.871420e-02 -8.571543e-02 -9.115953e-02 -8.604841e-02 -8.688427e-02 -8.021809e-02 -7.737133e-02 -6.979981e-02 -6.433669e-02 -5.637067e-02 -4.916986e-02 -4.113139e-02 -3.279569e-02 
-2.585574e-02 -1.787537e-02 -1.135478e-02 -2.883960e-03 2.937345e-03 1.158956e-02 1.633908e-02 2.469308e-02 2.785073e-02 3.516494e-02 3.620727e-02 4.158475e-02 4.038343e-02 4.319683e-02 4.045762e-02 4.093523e-02 3.808605e-02 3.761730e-02 3.586864e-02 3.655434e-02 3.642380e-02 3.998482e-02 4.112545e-02 4.785171e-02 4.889776e-02 5.737403e-02 5.631814e-02 6.399103e-02 5.921614e-02 6.366819e-02 5.524147e-02 5.547651e-02 4.532099e-02 4.185761e-02 3.238866e-02 2.651761e-02 1.936337e-02 1.235910e-02 7.891814e-03 1.855982e-04 -2.383062e-03 -1.140672e-02 -1.340353e-02 -2.465040e-02 -2.697570e-02 -4.042151e-02 -4.285589e-02 -5.696647e-02 -5.846939e-02 -7.100954e-02 -7.069397e-02 -7.997626e-02 -7.751138e-02 -8.276964e-02 -7.830782e-02 -7.964055e-02 -7.368248e-02 -7.175085e-02 -6.490365e-02 -6.053779e-02 -5.331985e-02 -4.725750e-02 -4.003736e-02 -3.282821e-02 
-2.033559e-02 -1.321270e-02 -7.180448e-03 3.585179e-04 5.744322e-03 1.334338e-02 1.766492e-02 2.485186e-02 2.757400e-02 3.374197e-02 3.437384e-02 3.891785e-02 3.737159e-02 4.000497e-02 3.694912e-02 3.802775e-02 3.475920e-02 3.533939e-02 3.298409e-02 3.449771e-02 3.349024e-02 3.707172e-02 3.705257e-02 4.279963e-02 4.264548e-02 4.941816e-02 4.762901e-02 5.349383e-02 4.897119e-02 5.212507e-02 4.499382e-02 4.465358e-02 3.630637e-02 3.284600e-02 2.503350e-02 1.947710e-02 1.343855e-02 6.782296e-03 2.851370e-03 -4.511732e-03 -6.822978e-03 -1.519076e-02 -1.673173e-02 -2.656949e-02 -2.792242e-02 -3.909569e-02 -4.017431e-02 -5.161298e-02 -5.185213e-02 -6.202935e-02 -6.093061e-02 -6.859826e-02 -6.596542e-02 -7.046765e-02 -6.638241e-02 -6.768330e-02 -6.244416e-02 -6.095836e-02 -5.495573e-02 -5.128489e-02 -4.488311e-02 -3.961453e-02 -3.310450e-02 -2.672086e-02 
-2.124360e-02 -1.505391e-02 -9.868858e-03 -3.258698e-03 1.282102e-03 7.989756e-03 1.161187e-02 1.802105e-02 2.042853e-02 2.606065e-02 2.703610e-02 3.142532e-02 3.100759e-02 3.391774e-02 3.253602e-02 3.420078e-02 3.256731e-02 3.375985e-02 3.249818e-02 3.426780e-02 3.363280e-02 3.678409e-02 3.653104e-02 4.114289e-02 4.052672e-02 4.582291e-02 4.386268e-02 4.851327e-02 4.451195e-02 4.724415e-02 4.130449e-02 4.147224e-02 3.453170e-02 3.222908e-02 2.551990e-02 2.129605e-02 1.574829e-02 1.020271e-02 6.141884e-03 -4.431368e-04 -3.276272e-03 -1.100497e-02 -1.314869e-02 -2.218287e-02 -2.401129e-02 -3.408181e-02 -3.551062e-02 -4.571085e-02 -4.629936e-02 -5.540546e-02 -5.472707e-02 -6.171744e-02 -5.958375e-02 -6.389714e-02 -6.038076e-02 -6.194391e-02 -5.732233e-02 -5.642795e-02 -5.107398e-02 -4.819035e-02 -4.246880e-02 -3.808319e-02 -3.230065e-02 -2.683827e-02 
-1.618328e-02 -1.071443e-02 -5.997690e-03 -1.729591e-04 3.931431e-03 9.792438e-03 1.299127e-02 1.852978e-02 2.052018e-02 2.535539e-02 2.592784e-02 2.974691e-02 2.894489e-02 3.165388e-02 2.988123e-02 3.173174e-02 2.964657e-02 3.122517e-02 2.940935e-02 3.143906e-02 3.012951e-02 3.312694e-02 3.212283e-02 3.606910e-02 3.478576e-02 3.904329e-02 3.675449e-02 4.029897e-02 3.652640e-02 3.839309e-02 3.324600e-02 3.293849e-02 2.711402e-02 2.470674e-02 1.911787e-02 1.505589e-02 1.041564e-02 5.193512e-03 1.784699e-03 -4.318963e-03 -6.630394e-03 -1.359242e-02 -1.514342e-02 -2.297537e-02 -2.401603e-02 -3.245467e-02 -3.296733e-02 -4.134945e-02 -4.110655e-02 -4.856033e-02 -4.733210e-02 -5.309538e-02 -5.078173e-02 -5.439525e-02 -5.104896e-02 -5.240459e-02 -4.820745e-02 -4.748345e-02 -4.268908e-02 -4.022497e-02 -3.509878e-02 -3.128057e-02 -2.606721e-02 -2.126027e-02 
-1.694952e-02 -1.224426e-02 -8.161368e-03 -3.090197e-03 4.430383e-04 5.600117e-03 8.390237e-03 1.333191e-02 1.520914e-02 1.962663e-02 2.050174e-02 2.414257e-02 2.408156e-02 2.685590e-02 2.611449e-02 2.818937e-02 2.714105e-02 2.893862e-02 2.790647e-02 2.995195e-02 2.906035e-02 3.172582e-02 3.082877e-02 3.410813e-02 3.281687e-02 3.627012e-02 3.411307e-02 3.702170e-02 3.370126e-02 3.536415e-02 3.097473e-02 3.097846e-02 2.601098e-02 2.431223e-02 1.942387e-02 1.624263e-02 1.197474e-02 7.604537e-03 4.212157e-03 -1.145710e-03 -3.700369e-03 -9.965649e-03 -1.187287e-02 -1.894980e-02 -2.035017e-02 -2.793495e-02 -2.878698e-02 -3.629710e-02 -3.640794e-02 -4.311929e-02 -4.228948e-02 -4.756609e-02 -4.570359e-02 -4.914937e-02 -4.630364e-02 -4.780357e-02 -4.414677e-02 -4.382099e-02 -3.959696e-02 -3.770864e-02 -3.317834e-02 -3.004470e-02 -2.545193e-02 -2.138718e-02 
-1.233346e-02 -8.213161e-03 -4.560902e-03 -1.317998e-04 2.983344e-03 7.463888e-03 9.842745e-03 1.411338e-02 1.558359e-02 1.940080e-02 1.987422e-02 2.306551e-02 2.260597e-02 2.514036e-02 2.399037e-02 2.602415e-02 2.453625e-02 2.638628e-02 2.487098e-02 2.689794e-02 2.548835e-02 2.792156e-02 2.651965e-02 2.930534e-02 2.762261e-02 3.039245e-02 2.808769e-02 3.027961e-02 2.715224e-02 2.822921e-02 2.436834e-02 2.401700e-02 1.979693e-02 1.799409e-02 1.391179e-02 1.084802e-02 7.323262e-03 3.256752e-03 5.056057e-04 -4.361103e-03 -6.334233e-03 -1.187687e-02 -1.318492e-02 -1.926952e-02 -2.001019e-02 -2.637122e-02 -2.654141e-02 -3.273793e-02 -3.224735e-02 -3.774686e-02 -3.649861e-02 -4.082264e-02 -3.878014e-02 -4.161319e-02 -3.882450e-02 -4.005465e-02 -3.664598e-02 -3.634309e-02 -3.249231e-02 -3.084867e-02 -2.675436e-02 -2.402129e-02 -1.988197e-02 -1.632516e-02 
-1.294146e-02 -9.446406e-03 -6.271377e-03 -2.459832e-03 2.589370e-04 4.166040e-03 6.294328e-03 1.007708e-02 1.151494e-02 1.497124e-02 1.568236e-02 1.866622e-02 1.870730e-02 2.117935e-02 2.070333e-02 2.276495e-02 2.197622e-02 2.385129e-02 2.292297e-02 2.487070e-02 2.386875e-02 2.605453e-02 2.490327e-02 2.729146e-02 2.579854e-02 2.812938e-02 2.607611e-02 2.794597e-02 2.521415e-02 2.622183e-02 2.289067e-02 2.277250e-02 1.911742e-02 1.780096e-02 1.418969e-02 1.175721e-02 8.514234e-03 5.118562e-03 2.433370e-03 -1.777141e-03 -3.862290e-03 -8.759138e-03 -1.028823e-02 -1.570987e-02 -1.672175e-02 -2.240104e-02 -2.286804e-02 -2.841217e-02 -2.824725e-02 -3.320275e-02 -3.231769e-02 -3.627862e-02 -3.463972e-02 -3.733209e-02 -3.498472e-02 -3.629955e-02 -3.336349e-02 -3.334198e-02 -2.998733e-02 -2.877665e-02 -2.519449e-02 -2.299855e-02 -1.937869e-02 -1.642110e-02 
-8.708297e-03 -5.682161e-03 -2.897223e-03 3.931819e-04 2.717994e-03 6.079056e-03 7.810632e-03 1.105701e-02 1.209635e-02 1.506885e-02 1.538093e-02 1.797649e-02 1.761753e-02 1.982136e-02 1.894048e-02 2.083980e-02 1.963707e-02 2.139649e-02 2.004769e-02 2.184174e-02 2.043034e-02 2.235334e-02 2.084308e-02 2.283734e-02 2.109785e-02 2.294317e-02 2.082469e-02 2.220179e-02 1.963137e-02 2.023188e-02 1.728194e-02 1.690914e-02 1.379443e-02 1.240475e-02 9.408037e-03 7.084395e-03 4.459143e-03 1.346211e-03 -7.511114e-04 -4.504765e-03 -6.026291e-03 -1.028318e-02 -1.125020e-02 -1.585227e-02 -1.629529e-02 -2.101889e-02 -2.093659e-02 -2.548018e-02 -2.484011e-02 -2.886515e-02 -2.763540e-02 -3.083637e-02 -2.901793e-02 -3.118167e-02 -2.882440e-02 -2.985789e-02 -2.705976e-02 -2.698473e-02 -2.387926e-02 -2.280428e-02 -1.954389e-02 -1.763012e-02 -1.437279e-02 -1.180598e-02 
-9.166417e-03 -6.660787e-03 -4.242229e-03 -1.469664e-03 5.688509e-04 3.445633e-03 5.012447e-03 7.838386e-03 8.874036e-03 1.151547e-02 1.200685e-02 1.437352e-02 1.436400e-02 1.643242e-02 1.601671e-02 1.784056e-02 1.713729e-02 1.882977e-02 1.793865e-02 1.962266e-02 1.858607e-02 2.032791e-02 1.911527e-02 2.087264e-02 1.939764e-02 2.101060e-02 1.918033e-02 2.041331e-02 1.819129e-02 1.880757e-02 1.625851e-02 1.609049e-02 1.337865e-02 1.236187e-02 9.702307e-03 7.865873e-03 5.458252e-03 2.889145e-03 8.692128e-04 -2.322124e-03 -3.893487e-03 -7.583183e-03 -8.695011e-03 -1.272818e-02 -1.337890e-02 -1.754521e-02 -1.771421e-02 -2.174606e-02 -2.139440e-02 -2.500065e-02 -2.409516e-02 -2.701464e-02 -2.555454e-02 -2.760186e-02 -2.563311e-02 -2.672072e-02 -2.433530e-02 -2.447011e-02 -2.179396e-02 -2.105655e-02 -1.823308e-02 -1.675109e-02 -1.392665e-02 -1.185204e-02 
-5.230138e-03 -3.103229e-03 -1.038452e-03 1.306695e-03 2.974269e-03 5.401086e-03 6.584685e-03 8.966094e-03 9.610199e-03 1.184137e-02 1.193650e-02 1.395147e-02 1.354411e-02 1.533015e-02 1.451784e-02 1.611768e-02 1.502358e-02 1.651728e-02 1.525105e-02 1.671759e-02 1.534072e-02 1.681127e-02 1.532350e-02 1.674701e-02 1.510119e-02 1.634175e-02 1.448315e-02 1.535409e-02 1.326835e-02 1.358909e-02 1.133475e-02 1.098375e-02 8.690784e-03 7.631181e-03 5.465970e-03 3.737944e-03 1.855654e-03 -4.519603e-04 -1.943144e-03 -4.720968e-03 -5.769416e-03 -8.898445e-03 -9.493710e-03 -1.283678e-02 -1.298327e-02 -1.637086e-02 -1.606853e-02 -1.929795e-02 -1.854072e-02 -2.139720e-02 -2.018559e-02 -2.247676e-02 -2.083294e-02 -2.241999e-02 -2.039631e-02 -2.121077e-02 -1.888976e-02 -1.893340e-02 -1.642103e-02 -1.575316e-02 -1.316904e-02 -1.188867e-02 -9.357111e-03 -7.586541e-03 
-5.555432e-03 -3.875209e-03 -2.100245e-03 -2.040591e-04 1.245922e-03 3.247352e-03 4.312432e-03 6.315229e-03 6.962213e-03 8.879183e-03 9.107811e-03 1.088089e-02 1.072611e-02 1.233712e-02 1.186276e-02 1.333534e-02 1.261731e-02 1.400393e-02 1.310727e-02 1.446104e-02 1.342038e-02 1.476063e-02 1.357322e-02 1.486004e-02 1.349631e-02 1.462736e-02 1.305699e-02 1.389017e-02 1.211332e-02 1.250586e-02 1.057425e-02 1.042074e-02 8.436422e-03 7.690145e-03 5.782148e-03 4.454881e-03 2.746733e-03 8.939559e-04 -5.215018e-04 -2.817333e-03 -3.885719e-03 -6.522992e-03 -7.218976e-03 -1.007388e-02 -1.038395e-02 -1.330483e-02 -1.321482e-02 -1.602567e-02 -1.552077e-02 -1.803916e-02 -1.711445e-02 -1.917791e-02 -1.785093e-02 -1.934050e-02 -1.765851e-02 -1.851150e-02 -1.655086e-02 -1.676096e-02 -1.462006e-02 -1.422795e-02 -1.201706e-02 -1.109691e-02 -8.928317e-03 -7.575058e-03 
-1.816963e-03 -4.512103e-04 9.988816e-04 2.535281e-03 3.632430e-03 5.252056e-03 5.943397e-03 7.564728e-03 7.823390e-03 9.379320e-03 9.211282e-03 1.065846e-02 1.010524e-02 1.143067e-02 1.056356e-02 1.178362e-02 1.068814e-02 1.183689e-02 1.059150e-02 1.169925e-02 1.035715e-02 1.142637e-02 1.000850e-02 1.099740e-02 9.500316e-03 1.032302e-02 8.738957e-03 9.284484e-03 7.624865e-03 7.787381e-03 6.098410e-03 5.805995e-03 4.167938e-03 3.398211e-03 1.909009e-03 6.878593e-04 -5.597716e-04 -2.171278e-03 -3.107911e-03 -5.028753e-03 -5.614466e-03 -7.752683e-03 -7.971678e-03 -1.022520e-02 -1.007509e-02 -1.232940e-02 -1.181314e-02 -1.394324e-02 -1.306851e-02 -1.494894e-02 -1.373359e-02 -1.525381e-02 -1.373246e-02 -1.481112e-02 -1.303862e-02 -1.363195e-02 -1.168224e-02 -1.178490e-02 -9.746166e-03 -9.386144e-03 -7.354183e-03 -6.584772e-03 -4.656605e-03 -3.548373e-03 
-2.026811e-03 -1.061009e-03 1.506444e-04 1.281126e-03 2.202558e-03 3.432476e-03 4.029185e-03 5.296037e-03 5.554838e-03 6.805435e-03 6.736537e-03 7.934213e-03 7.570369e-03 8.700225e-03 8.091145e-03 9.159823e-03 8.361736e-03 9.389205e-03 8.452220e-03 9.456312e-03 8.414303e-03 9.392952e-03 8.260453e-03 9.179238e-03 7.957338e-03 8.748805e-03 7.438349e-03 8.014663e-03 6.631255e-03 6.905536e-03 5.489113e-03 5.396836e-03 4.010700e-03 3.523146e-03 2.242918e-03 1.369403e-03 2.677687e-04 -9.510186e-04 -1.816372e-03 -3.318189e-03 -3.908852e-03 -5.617415e-03 -5.910973e-03 -7.739221e-03 -7.722750e-03 -9.574207e-03 -9.240040e-03 -1.101241e-02 -1.035932e-02 -1.195242e-02 -1.099114e-02 -1.231752e-02 -1.107660e-02 -1.207095e-02 -1.059949e-02 -1.122393e-02 -9.589769e-03 -9.834219e-03 -8.118419e-03 -7.997209e-03 -6.286764e-03 -5.833391e-03 -4.214129e-03 -3.476027e-03 
1.619839e-03 2.311315e-03 3.218307e-03 4.033365e-03 4.612995e-03 5.506953e-03 5.733030e-03 6.661415e-03 6.528817e-03 7.452894e-03 6.980304e-03 7.872713e-03 7.102328e-03 7.950698e-03 6.943162e-03 7.749293e-03 6.573807e-03 7.347136e-03 6.069295e-03 6.815701e-03 5.487433e-03 6.197192e-03 4.852768e-03 5.493005e-03 4.152614e-03 4.668594e-03 3.347748e-03 3.673782e-03 2.394085e-03 2.470324e-03 1.266301e-03 1.054851e-03 -2.646377e-05 -5.321922e-04 -1.438294e-03 -2.213568e-03 -2.896064e-03 -3.892389e-03 -4.314394e-03 -5.470122e-03 -5.608847e-03 -6.858247e-03 -6.703300e-03 -7.981775e-03 -7.532026e-03 -8.778098e-03 -8.040221e-03 -9.196526e-03 -8.186508e-03 -9.201525e-03 -7.947923e-03 -8.778537e-03 -7.324942e-03 -7.938891e-03 -6.343744e-03 -6.721108e-03 -5.054625e-03 -5.188125e-03 -3.527337e-03 -3.421700e-03 -1.845019e-03 -1.515889e-03 -9.827910e-05 4.289610e-04 
1.511628e-03 1.826033e-03 2.527026e-03 2.957034e-03 3.384467e-03 3.905363e-03 4.046986e-03 4.631081e-03 4.491606e-03 5.112496e-03 4.713405e-03 5.350554e-03 4.727938e-03 5.369940e-03 4.569832e-03 5.214533e-03 4.286177e-03 4.936557e-03 3.925293e-03 4.581723e-03 3.523834e-03 4.175319e-03 3.096721e-03 3.715009e-03 2.634203e-03 3.174033e-03 2.107970e-03 2.514393e-03 1.484488e-03 1.705089e-03 7.404396e-04 7.381302e-04 -1.256170e-04 -3.637402e-04 -1.089044e-03 -1.549445e-03 -2.102343e-03 -2.749310e-03 -3.102985e-03 -3.886995e-03 -4.022313e-03 -4.889167e-03 -4.793176e-03 -5.691218e-03 -5.355835e-03 -6.240187e-03 -5.663090e-03 -6.497195e-03 -5.685258e-03 -6.440575e-03 -5.414249e-03 -6.068880e-03 -4.865002e-03 -5.401952e-03 -4.073272e-03 -4.479090e-03 -3.090445e-03 -3.354765e-03 -1.977157e-03 -2.093224e-03 -7.974826e-04 -7.633655e-04 3.853439e-04 5.653593e-04 
5.176190e-03 5.234056e-03 5.641410e-03 5.779810e-03 5.868147e-03 6.080915e-03 5.846924e-03 6.121113e-03 5.578660e-03 5.898251e-03 5.078976e-03 5.428970e-03 4.380789e-03 4.750244e-03 3.533028e-03 3.915704e-03 2.594544e-03 2.986499e-03 1.624225e-03 2.018970e-03 6.702793e-04 1.053456e-03 -2.376340e-04 1.087332e-04 -1.090385e-03 -8.153781e-04 -1.894536e-03 -1.728096e-03 -2.662403e-03 -2.634521e-03 -3.400714e-03 -3.524597e-03 -4.101803e-03 -4.368242e-03 -4.739758e-03 -5.117606e-03 -5.271926e-03 -5.714651e-03 -5.644840e-03 -6.101119e-03 -5.803231e-03 -6.228366e-03 -5.700566e-03 -6.065454e-03 -5.309365e-03 -5.604580e-03 -4.629091e-03 -4.863171e-03 -3.689337e-03 -3.882098e-03 -2.546708e-03 -2.719991e-03 -1.275777e-03 -1.444886e-03 4.305039e-05 -1.255297e-04 1.334683e-03 1.175184e-03 2.536357e-03 2.403352e-03 3.599638e-03 3.513943e-03 4.488580e-03 4.468739e-03 
5.160909e-03 4.842705e-03 5.061332e-03 4.815573e-03 4.761300e-03 4.600858e-03 4.282747e-03 4.210489e-03 3.651326e-03 3.663039e-03 2.897713e-03 2.985713e-03 2.058301e-03 2.214548e-03 1.174137e-03 1.391803e-03 2.877931e-04 5.606415e-04 -5.612091e-04 -2.414952e-04 -1.341157e-03 -9.885891e-04 -2.031720e-03 -1.668641e-03 -2.625219e-03 -2.282030e-03 -3.125058e-03 -2.836070e-03 -3.541572e-03 -3.337537e-03 -3.886124e-03 -3.785543e-03 -4.164550e-03 -4.166753e-03 -4.371200e-03 -4.454157e-03 -4.485209e-03 -4.609817e-03 -4.470974e-03 -4.591313e-03 -4.284234e-03 -4.360983e-03 -3.883499e-03 -3.896192e-03 -3.244196e-03 -3.198013e-03 -2.371105e-03 -2.295523e-03 -1.304309e-03 -1.243772e-03 -1.156159e-04 -1.154912e-04 1.104027e-03 1.011069e-03 2.261739e-03 2.064247e-03 3.278322e-03 2.987462e-03 4.097648e-03 3.742446e-03 4.688594e-03 4.307790e-03 5.041314e-03 4.674773e-03 
8.954872e-03 8.376308e-03 8.302950e-03 7.770859e-03 7.371242e-03 6.915774e-03 6.207901e-03 5.843922e-03 4.860027e-03 4.590133e-03 3.376294e-03 3.194791e-03 1.808945e-03 1.705672e-03 2.136638e-04 1.767504e-04 -1.352948e-03 -1.335950e-03 -2.837359e-03 -2.779967e-03 -4.193062e-03 -4.111240e-03 -5.383294e-03 -5.296231e-03 -6.381977e-03 -6.310712e-03 -7.173013e-03 -7.136156e-03 -7.748328e-03 -7.755583e-03 -8.104874e-03 -8.150388e-03 -8.240277e-03 -8.298552e-03 -8.147080e-03 -8.173991e-03 -7.807135e-03 -7.747529e-03 -7.189883e-03 -6.991351e-03 -6.258683e-03 -5.888616e-03 -4.986320e-03 -4.447035e-03 -3.375691e-03 -2.711532e-03 -1.477364e-03 -7.694457e-04 6.049896e-04 1.256291e-03 2.726172e-03 3.225514e-03 4.725406e-03 5.004815e-03 6.456938e-03 6.488648e-03 7.813861e-03 7.611019e-03 8.738373e-03 8.345969e-03 9.218580e-03 8.699548e-03 9.276715e-03 8.697957e-03 
9.029309e-03 8.054375e-03 7.796050e-03 6.861642e-03 6.316638e-03 5.471994e-03 4.671417e-03 3.947021e-03 2.933332e-03 2.343553e-03 1.167948e-03 7.148220e-04 -5.664657e-04 -8.891960e-04 -2.219319e-03 -2.422530e-03 -3.747960e-03 -3.844408e-03 -5.116858e-03 -5.119913e-03 -6.295633e-03 -6.219676e-03 -7.257274e-03 -7.119011e-03 -7.978265e-03 -7.797405e-03 -8.441307e-03 -8.238998e-03 -8.639477e-03 -8.433505e-03 -8.578745e-03 -8.375938e-03 -8.275272e-03 -8.063558e-03 -7.746078e-03 -7.490644e-03 -6.996429e-03 -6.644525e-03 -6.011550e-03 -5.507462e-03 -4.760168e-03 -4.067219e-03 -3.212335e-03 -2.334469e-03 -1.366237e-03 -3.600519e-04 7.272889e-04 1.756971e-03 2.954818e-03 3.876550e-03 5.152081e-03 5.839630e-03 7.134949e-03 7.497458e-03 8.737810e-03 8.737527e-03 9.844275e-03 9.497899e-03 1.040077e-02 9.767726e-03 1.041284e-02 9.577266e-03 9.930358e-03 8.983178e-03 
1.306360e-02 1.180232e-02 1.124425e-02 1.001151e-02 9.105974e-03 7.967416e-03 6.753465e-03 5.748742e-03 4.277366e-03 3.423690e-03 1.757374e-03 1.054512e-03 -7.348439e-04 -1.299036e-03 -3.134325e-03 -3.578474e-03 -5.382699e-03 -5.727236e-03 -7.427784e-03 -7.691856e-03 -9.222015e-03 -9.422395e-03 -1.072057e-02 -1.087179e-02 -1.188119e-02 -1.199505e-02 -1.266709e-02 -1.275012e-02 -1.305289e-02 -1.310114e-02 -1.303009e-02 -1.302273e-02 -1.260735e-02 -1.250157e-02 -1.180123e-02 -1.153231e-02 -1.061976e-02 -1.011017e-02 -9.048962e-03 -8.228154e-03 -7.055328e-03 -5.887687e-03 -4.610304e-03 -3.122483e-03 -1.729644e-03 -2.501293e-05 1.490403e-03 3.240652e-03 4.860504e-03 6.451174e-03 8.120955e-03 9.360899e-03 1.099421e-02 1.174994e-02 1.324535e-02 1.346426e-02 1.472539e-02 1.443426e-02 1.538466e-02 1.466995e-02 1.525958e-02 1.424031e-02 1.444481e-02 1.324720e-02 
1.322984e-02 1.152986e-02 1.077684e-02 9.104523e-03 8.037732e-03 6.478405e-03 5.152952e-03 3.762073e-03 2.242717e-03 1.049430e-03 -5.926511e-04 -1.580659e-03 -3.272657e-03 -4.063547e-03 -5.736913e-03 -6.348349e-03 -7.943478e-03 -8.395970e-03 -9.862721e-03 -1.017426e-02 -1.146733e-02 -1.165135e-02 -1.272349e-02 -1.279037e-02 -1.358917e-02 -1.354952e-02 -1.402226e-02 -1.388888e-02 -1.399613e-02 -1.378142e-02 -1.351403e-02 -1.322109e-02 -1.261176e-02 -1.222092e-02 -1.134155e-02 -1.080041e-02 -9.743050e-03 -8.970245e-03 -7.818763e-03 -6.726810e-03 -5.532604e-03 -4.065911e-03 -2.839385e-03 -1.014312e-03 2.644199e-04 2.335430e-03 3.691826e-03 5.807023e-03 7.244316e-03 9.153449e-03 1.063421e-02 1.210004e-02 1.354584e-02 1.440162e-02 1.571022e-02 1.589050e-02 1.696014e-02 1.649885e-02 1.724827e-02 1.625324e-02 1.663161e-02 1.525029e-02 1.523790e-02 1.362619e-02 
1.761048e-02 1.557419e-02 1.450445e-02 1.250542e-02 1.105493e-02 9.193651e-03 7.422679e-03 5.760044e-03 3.738743e-03 2.301553e-03 1.108836e-04 -1.101205e-03 -3.371182e-03 -4.377755e-03 -6.633347e-03 -7.464441e-03 -9.615816e-03 -1.030290e-02 -1.226925e-02 -1.283813e-02 -1.454683e-02 -1.501495e-02 -1.639588e-02 -1.677357e-02 -1.775502e-02 -1.804751e-02 -1.856109e-02 -1.876794e-02 -1.876581e-02 -1.887593e-02 -1.835512e-02 -1.833773e-02 -1.735781e-02 -1.715268e-02 -1.583086e-02 -1.534359e-02 -1.382189e-02 -1.293274e-02 -1.133102e-02 -9.923442e-03 -8.303421e-03 -6.311454e-03 -4.669882e-03 -2.130116e-03 -4.228848e-04 2.493386e-03 4.308195e-03 7.305912e-03 9.225665e-03 1.194682e-02 1.390284e-02 1.601691e-02 1.788500e-02 1.916973e-02 2.080478e-02 2.118420e-02 2.245766e-02 2.199184e-02 2.281534e-02 2.165929e-02 2.199029e-02 2.034453e-02 2.017937e-02 1.824818e-02 
1.787520e-02 1.533413e-02 1.404360e-02 1.154800e-02 9.904363e-03 7.574906e-03 5.659891e-03 3.573440e-03 1.477309e-03 -3.271100e-04 -2.508420e-03 -4.023136e-03 -6.194375e-03 -7.435843e-03 -9.512068e-03 -1.051139e-02 -1.242635e-02 -1.321709e-02 -1.492337e-02 -1.553014e-02 -1.698761e-02 -1.742132e-02 -1.858019e-02 -1.884167e-02 -1.963246e-02 -1.972128e-02 -2.006215e-02 -1.998535e-02 -1.980844e-02 -1.958203e-02 -1.886939e-02 -1.850602e-02 -1.731630e-02 -1.679872e-02 -1.526557e-02 -1.451998e-02 -1.281576e-02 -1.170936e-02 -9.988083e-03 -8.363653e-03 -6.712200e-03 -4.455220e-03 -2.876952e-03 7.879122e-06 1.571678e-03 4.909274e-03 6.531517e-03 9.982427e-03 1.169657e-02 1.483031e-02 1.659460e-02 1.900554e-02 2.070393e-02 2.211852e-02 2.359699e-02 2.392399e-02 2.503772e-02 2.435375e-02 2.500053e-02 2.349603e-02 2.362738e-02 2.154433e-02 2.115974e-02 1.874127e-02 
2.269447e-02 1.974072e-02 1.810807e-02 1.524223e-02 1.318657e-02 1.054170e-02 8.143614e-03 5.796369e-03 3.144248e-03 1.123988e-03 -1.681053e-03 -3.382768e-03 -6.227068e-03 -7.646115e-03 -1.041190e-02 -1.159872e-02 -1.417810e-02 -1.518219e-02 -1.748693e-02 -1.834336e-02 -2.030053e-02 -2.102613e-02 -2.256124e-02 -2.316017e-02 -2.418175e-02 -2.465330e-02 -2.505603e-02 -2.539787e-02 -2.509374e-02 -2.529655e-02 -2.426651e-02 -2.429944e-02 -2.263798e-02 -2.242786e-02 -2.034275e-02 -1.975681e-02 -1.750625e-02 -1.635393e-02 -1.415006e-02 -1.222147e-02 -1.015756e-02 -7.304491e-03 -5.342853e-03 -1.579745e-03 3.999673e-04 4.822905e-03 6.939727e-03 1.154283e-02 1.383107e-02 1.801318e-02 2.037951e-02 2.359005e-02 2.583792e-02 2.772783e-02 2.963096e-02 3.011099e-02 3.148513e-02 3.068970e-02 3.142888e-02 2.963092e-02 2.970700e-02 2.723035e-02 2.667200e-02 2.382675e-02 
2.306743e-02 1.951703e-02 1.761770e-02 1.417807e-02 1.187594e-02 8.699514e-03 6.104772e-03 3.283845e-03 5.151239e-04 -1.907940e-03 -4.723622e-03 -6.748519e-03 -9.483913e-03 -1.114498e-02 -1.369036e-02 -1.504430e-02 -1.732657e-02 -1.843132e-02 -2.041715e-02 -2.130847e-02 -2.297988e-02 -2.366256e-02 -2.497724e-02 -2.543376e-02 -2.629796e-02 -2.650829e-02 -2.678481e-02 -2.674871e-02 -2.630554e-02 -2.605497e-02 -2.483856e-02 -2.442219e-02 -2.251869e-02 -2.194819e-02 -1.958917e-02 -1.877176e-02 -1.626686e-02 -1.498379e-02 -1.260601e-02 -1.056325e-02 -8.451339e-03 -5.399016e-03 -3.527790e-03 5.921230e-04 2.368101e-03 7.311770e-03 9.166433e-03 1.438344e-02 1.641607e-02 2.118005e-02 2.334365e-02 2.697342e-02 2.907809e-02 3.114298e-02 3.293588e-02 3.333323e-02 3.459317e-02 3.349612e-02 3.408876e-02 3.183272e-02 3.171767e-02 2.868957e-02 2.789841e-02 2.446017e-02 
2.838733e-02 2.431949e-02 2.204661e-02 1.818083e-02 1.543946e-02 1.193443e-02 8.820898e-03 5.759898e-03 2.375964e-03 -2.186750e-04 -3.751638e-03 -5.907000e-03 -9.443399e-03 -1.122468e-02 -1.460869e-02 -1.610224e-02 -1.919799e-02 -2.048452e-02 -2.320058e-02 -2.432802e-02 -2.660785e-02 -2.758682e-02 -2.936712e-02 -3.018788e-02 -3.135438e-02 -3.200729e-02 -3.238678e-02 -3.287297e-02 -3.228576e-02 -3.261232e-02 -3.097878e-02 -3.113539e-02 -2.858497e-02 -2.850273e-02 -2.539642e-02 -2.490221e-02 -2.171084e-02 -2.050500e-02 -1.760583e-02 -1.530408e-02 -1.283409e-02 -9.105119e-03 -6.943825e-03 -1.706915e-03 4.262367e-04 6.835483e-03 9.219940e-03 1.602937e-02 1.877918e-02 2.497282e-02 2.794563e-02 3.260204e-02 3.545558e-02 3.804046e-02 4.039572e-02 4.084236e-02 4.242312e-02 4.102528e-02 4.170834e-02 3.894454e-02 3.873716e-02 3.511926e-02 3.410731e-02 3.008765e-02 
2.887814e-02 2.409520e-02 2.148333e-02 1.694709e-02 1.387631e-02 9.760657e-03 6.367684e-03 2.770169e-03 -7.979314e-04 -3.839579e-03 -7.416639e-03 -9.917145e-03 -1.332633e-02 -1.535047e-02 -1.843828e-02 -2.008952e-02 -2.277261e-02 -2.415630e-02 -2.643960e-02 -2.761110e-02 -2.953827e-02 -3.048752e-02 -3.205106e-02 -3.272260e-02 -3.379665e-02 -3.412872e-02 -3.447235e-02 -3.444524e-02 -3.378920e-02 -3.346622e-02 -3.166020e-02 -3.117962e-02 -2.833122e-02 -2.780067e-02 -2.430650e-02 -2.363572e-02 -2.005735e-02 -1.889116e-02 -1.571836e-02 -1.350653e-02 -1.095967e-02 -7.169314e-03 -5.150798e-03 4.485901e-04 2.262821e-03 9.363093e-03 1.135093e-02 1.906020e-02 2.145797e-02 2.853338e-02 3.128552e-02 3.656527e-02 3.932826e-02 4.214688e-02 4.447486e-02 4.476993e-02 4.631023e-02 4.446485e-02 4.504382e-02 4.164910e-02 4.125626e-02 3.692085e-02 3.564874e-02 3.089243e-02 
3.470083e-02 2.926837e-02 2.625114e-02 2.122660e-02 1.770318e-02 1.325483e-02 9.324175e-03 5.527513e-03 1.290636e-03 -1.850700e-03 -6.256883e-03 -8.800331e-03 -1.318458e-02 -1.524210e-02 -1.938052e-02 -2.110105e-02 -2.480508e-02 -2.632715e-02 -2.951113e-02 -3.089941e-02 -3.356473e-02 -3.480668e-02 -3.694566e-02 -3.799758e-02 -3.948133e-02 -4.031422e-02 -4.084938e-02 -4.147292e-02 -4.068205e-02 -4.114313e-02 -3.877707e-02 -3.912682e-02 -3.532710e-02 -3.554604e-02 -3.094809e-02 -3.084508e-02 -2.633572e-02 -2.546030e-02 -2.172895e-02 -1.938485e-02 -1.662953e-02 -1.210462e-02 -1.002446e-02 -2.977459e-03 -9.703694e-04 8.197376e-03 1.073523e-02 2.076647e-02 2.411954e-02 3.324611e-02 3.716668e-02 4.380423e-02 4.764161e-02 5.098955e-02 5.407268e-02 5.419314e-02 5.610361e-02 5.362509e-02 5.424489e-02 5.000315e-02 4.942659e-02 4.421467e-02 4.263307e-02 3.708498e-02 
3.531260e-02 2.902342e-02 2.556025e-02 1.975327e-02 1.577703e-02 1.062462e-02 6.286465e-03 1.875080e-03 -2.658134e-03 -6.302819e-03 -1.081749e-02 -1.372814e-02 -1.796436e-02 -2.024835e-02 -2.396230e-02 -2.580686e-02 -2.888650e-02 -3.049523e-02 -3.303235e-02 -3.449465e-02 -3.668430e-02 -3.795536e-02 -3.989249e-02 -4.084037e-02 -4.236403e-02 -4.283730e-02 -4.351629e-02 -4.343517e-02 -4.271623e-02 -4.218361e-02 -3.968102e-02 -3.902975e-02 -3.484069e-02 -3.444063e-02 -2.925002e-02 -2.908058e-02 -2.393884e-02 -2.343909e-02 -1.925113e-02 -1.740221e-02 -1.451882e-02 -1.021947e-02 -8.378452e-03 -9.899833e-04 4.845789e-04 1.063372e-02 1.251852e-02 2.396226e-02 2.677989e-02 3.732855e-02 4.101088e-02 4.860764e-02 5.247287e-02 5.610961e-02 5.932422e-02 5.913510e-02 6.112911e-02 5.794447e-02 5.852047e-02 5.337803e-02 5.261518e-02 4.645209e-02 4.456219e-02 3.809301e-02 
4.153153e-02 3.444169e-02 3.055304e-02 2.420123e-02 1.979653e-02 1.432949e-02 9.480691e-03 4.945480e-03 -2.808017e-04 -3.910061e-03 -9.379926e-03 -1.219840e-02 -1.765399e-02 -1.983927e-02 -2.492135e-02 -2.673264e-02 -3.113183e-02 -3.282695e-02 -3.647779e-02 -3.813987e-02 -4.119753e-02 -4.274554e-02 -4.537084e-02 -4.668208e-02 -4.877509e-02 -4.977760e-02 -5.084447e-02 -5.155837e-02 -5.081243e-02 -5.135799e-02 -4.811890e-02 -4.868276e-02 -4.299957e-02 -4.371119e-02 -3.673495e-02 -3.747322e-02 -3.095580e-02 -3.110692e-02 -2.634520e-02 -2.467054e-02 -2.193154e-02 -1.695045e-02 -1.555434e-02 -6.293905e-03 -5.016817e-03 8.167089e-03 1.057354e-02 2.559332e-02 2.979552e-02 4.343929e-02 4.895565e-02 5.837779e-02 6.386799e-02 6.792048e-02 7.214888e-02 7.131678e-02 7.367474e-02 6.928012e-02 6.974253e-02 6.322919e-02 6.209234e-02 5.465163e-02 5.229800e-02 4.476902e-02 
4.224915e-02 3.415105e-02 2.966646e-02 2.241596e-02 1.738257e-02 1.110684e-02 5.656491e-03 4.061899e-04 -5.305028e-03 -9.518407e-03 -1.522916e-02 -1.844076e-02 -2.374690e-02 -2.610365e-02 -3.055672e-02 -3.239421e-02 -3.578041e-02 -3.752802e-02 -4.012398e-02 -4.192223e-02 -4.427775e-02 -4.600141e-02 -4.847138e-02 -4.984599e-02 -5.224881e-02 -5.294231e-02 -5.450801e-02 -5.427020e-02 -5.387324e-02 -5.280057e-02 -4.950575e-02 -4.831708e-02 -4.210389e-02 -4.185545e-02 -3.391730e-02 -3.480908e-02 -2.719732e-02 -2.838258e-02 -2.282839e-02 -2.244305e-02 -1.948741e-02 -1.531500e-02 -1.432973e-02 -4.819594e-03 -4.461439e-03 1.020407e-02 1.146396e-02 2.882967e-02 3.213307e-02 4.821179e-02 5.350096e-02 6.442752e-02 7.022377e-02 7.454961e-02 7.921849e-02 7.771736e-02 8.036214e-02 7.480063e-02 7.529497e-02 6.746682e-02 6.612261e-02 5.741645e-02 5.467239e-02 4.600360e-02 
4.857365e-02 3.952707e-02 3.463122e-02 2.680493e-02 2.144612e-02 1.491318e-02 9.079055e-03 3.832097e-03 -2.516971e-03 -6.536417e-03 -1.332613e-02 -1.623918e-02 -2.312404e-02 -2.517840e-02 -3.151482e-02 -3.316463e-02 -3.832748e-02 -4.011699e-02 -4.407965e-02 -4.609579e-02 -4.938279e-02 -5.135733e-02 -5.456739e-02 -5.620858e-02 -5.940345e-02 -6.055414e-02 -6.293686e-02 -6.362023e-02 -6.359785e-02 -6.404391e-02 -5.988512e-02 -6.053768e-02 -5.182219e-02 -5.314760e-02 -4.203930e-02 -4.423142e-02 -3.440533e-02 -3.682325e-02 -3.076289e-02 -3.124010e-02 -2.919982e-02 -2.473285e-02 -2.524778e-02 -1.341165e-02 -1.411277e-02 5.177413e-03 6.786353e-03 3.000206e-02 3.552989e-02 5.653622e-02 6.498090e-02 7.834460e-02 8.671783e-02 9.099931e-02 9.697941e-02 9.387687e-02 9.670696e-02 8.895239e-02 8.896118e-02 7.898353e-02 7.690397e-02 6.639419e-02 6.293553e-02 5.289755e-02 