# vtk DataFile Version 2.0
Comment goes here
ASCII

DATASET STRUCTURED_POINTS
DIMENSIONS    64   64   1

ORIGIN    0.000   0.000   0.000
SPACING   0.0156250.015625   1.000

POINT_DATA   4096
SCALARS uX double
LOOKUP_TABLE default

6.444065e-03 1.589163e-02 2.534130e-02 3.453141e-02 4.344920e-02 5.174618e-02 5.935313e-02 6.588053e-02 7.121805e-02 7.501819e-02 7.723255e-02 7.764656e-02 7.642500e-02 7.349964e-02 6.937272e-02 6.399889e-02 5.827690e-02 5.196453e-02 4.634068e-02 4.075315e-02 3.674142e-02 3.312676e-02 3.148877e-02 3.014163e-02 3.048662e-02 3.051963e-02 3.138883e-02 3.112102e-02 3.070273e-02 2.856685e-02 2.564642e-02 2.099000e-02 1.545284e-02 8.685496e-03 1.322318e-03 -6.519144e-03 -1.457883e-02 -2.241027e-02 -3.021466e-02 -3.730165e-02 -4.432822e-02 -5.038106e-02 -5.647995e-02 -6.147118e-02 -6.659943e-02 -7.047650e-02 -7.445123e-02 -7.697951e-02 -7.943783e-02 -8.026503e-02 -8.081280e-02 -7.964871e-02 -7.804479e-02 -7.480453e-02 -7.105821e-02 -6.589632e-02 -6.024933e-02 -5.349464e-02 -4.632474e-02 -3.837158e-02 -3.008408e-02 -2.130514e-02 -1.227060e-02 -2.993223e-03 
1.294053e-02 2.075391e-02 2.850082e-02 3.595995e-02 4.311770e-02 4.970171e-02 5.564583e-02 6.066274e-02 6.466570e-02 6.738476e-02 6.883361e-02 6.876584e-02 6.747049e-02 6.466199e-02 6.106009e-02 5.619977e-02 5.130370e-02 4.556767e-02 4.067207e-02 3.536834e-02 3.163049e-02 2.774783e-02 2.575211e-02 2.354748e-02 2.301481e-02 2.185992e-02 2.172657e-02 2.040989e-02 1.935315e-02 1.673868e-02 1.385747e-02 9.462070e-03 4.647235e-03 -1.234881e-03 -7.415268e-03 -1.400253e-02 -2.069377e-02 -2.713098e-02 -3.356792e-02 -3.922746e-02 -4.493290e-02 -4.950758e-02 -5.427596e-02 -5.767813e-02 -6.141353e-02 -6.359602e-02 -6.615483e-02 -6.700452e-02 -6.816388e-02 -6.752780e-02 -6.707175e-02 -6.485388e-02 -6.268225e-02 -5.891873e-02 -5.510115e-02 -4.997011e-02 -4.472705e-02 -3.850125e-02 -3.213775e-02 -2.511616e-02 -1.795212e-02 -1.041121e-02 -2.745596e-03 5.064695e-03 
1.988607e-02 2.610022e-02 3.225943e-02 3.800328e-02 4.354409e-02 4.840175e-02 5.282712e-02 5.626864e-02 5.902199e-02 6.051627e-02 6.115056e-02 6.037399e-02 5.877643e-02 5.581813e-02 5.235624e-02 4.778432e-02 4.326416e-02 3.799834e-02 3.343791e-02 2.847561e-02 2.477497e-02 2.085581e-02 1.846762e-02 1.578311e-02 1.451176e-02 1.261328e-02 1.169060e-02 9.717879e-03 8.187811e-03 5.336488e-03 2.539308e-03 -1.529822e-03 -5.685834e-03 -1.074523e-02 -1.584619e-02 -2.129167e-02 -2.668401e-02 -3.182787e-02 -3.689133e-02 -4.119196e-02 -4.549851e-02 -4.865083e-02 -5.197766e-02 -5.386983e-02 -5.611058e-02 -5.671989e-02 -5.778961e-02 -5.711091e-02 -5.691981e-02 -5.496455e-02 -5.345709e-02 -5.028934e-02 -4.749349e-02 -4.325276e-02 -3.929638e-02 -3.418693e-02 -2.927524e-02 -2.353080e-02 -1.790327e-02 -1.174915e-02 -5.641710e-03 7.239562e-04 7.090872e-03 1.348510e-02 
2.655834e-02 3.126603e-02 3.591516e-02 4.010341e-02 4.412553e-02 4.748138e-02 5.050055e-02 5.262398e-02 5.423327e-02 5.472989e-02 5.462003e-02 5.325730e-02 5.137613e-02 4.823315e-02 4.488453e-02 4.040298e-02 3.621209e-02 3.110528e-02 2.685074e-02 2.189700e-02 1.826617e-02 1.405154e-02 1.139700e-02 8.098746e-03 6.296168e-03 3.622207e-03 2.131683e-03 -5.085581e-04 -2.365825e-03 -5.526403e-03 -8.224021e-03 -1.212730e-02 -1.573213e-02 -2.018279e-02 -2.438248e-02 -2.888901e-02 -3.317045e-02 -3.715417e-02 -4.100229e-02 -4.397817e-02 -4.700660e-02 -4.867693e-02 -5.066293e-02 -5.092037e-02 -5.176849e-02 -5.064794e-02 -5.033865e-02 -4.796869e-02 -4.653478e-02 -4.310903e-02 -4.063779e-02 -3.639301e-02 -3.302705e-02 -2.821407e-02 -2.413596e-02 -1.898723e-02 -1.439309e-02 -9.098491e-03 -4.173048e-03 1.128048e-03 6.223451e-03 1.143046e-02 1.655020e-02 2.157098e-02 
3.370859e-02 3.694107e-02 4.013510e-02 4.278052e-02 4.535373e-02 4.719447e-02 4.887064e-02 4.962339e-02 5.010693e-02 4.950091e-02 4.857838e-02 4.647306e-02 4.413111e-02 4.062231e-02 3.711834e-02 3.256927e-02 2.840306e-02 2.337150e-02 1.915600e-02 1.423804e-02 1.051168e-02 6.153570e-03 3.199058e-03 -4.536099e-04 -2.707786e-03 -5.844632e-03 -7.773277e-03 -1.079231e-02 -1.287341e-02 -1.614363e-02 -1.871249e-02 -2.236261e-02 -2.546066e-02 -2.930843e-02 -3.268862e-02 -3.631675e-02 -3.956128e-02 -4.246666e-02 -4.513251e-02 -4.687108e-02 -4.860154e-02 -4.888441e-02 -4.946292e-02 -4.819425e-02 -4.755007e-02 -4.482115e-02 -4.301274e-02 -3.907137e-02 -3.626442e-02 -3.146541e-02 -2.790120e-02 -2.263768e-02 -1.858603e-02 -1.321491e-02 -8.923130e-03 -3.711090e-03 6.300010e-04 5.523626e-03 9.787500e-03 1.429425e-02 1.840370e-02 2.250824e-02 2.640552e-02 3.009872e-02 
4.080356e-02 4.258935e-02 4.439934e-02 4.558977e-02 4.680079e-02 4.726514e-02 4.769274e-02 4.723675e-02 4.668091e-02 4.511369e-02 4.343832e-02 4.066456e-02 3.788390e-02 3.398458e-02 3.031255e-02 2.557010e-02 2.139799e-02 1.624450e-02 1.204574e-02 6.946912e-03 3.139274e-03 -1.546486e-03 -4.733148e-03 -8.865703e-03 -1.145942e-02 -1.513994e-02 -1.738871e-02 -2.086661e-02 -2.309602e-02 -2.659793e-02 -2.903530e-02 -3.260924e-02 -3.526863e-02 -3.872271e-02 -4.139625e-02 -4.434292e-02 -4.667595e-02 -4.864032e-02 -5.023863e-02 -5.078161e-02 -5.130940e-02 -5.013422e-02 -4.938391e-02 -4.641119e-02 -4.434295e-02 -3.974663e-02 -3.650030e-02 -3.069231e-02 -2.656627e-02 -2.011705e-02 -1.550478e-02 -9.010832e-03 -4.306278e-03 1.745051e-03 6.232627e-03 1.154328e-02 1.562926e-02 2.009392e-02 2.370896e-02 2.736319e-02 3.051282e-02 3.346008e-02 3.617432e-02 3.851689e-02 
4.839430e-02 4.875882e-02 4.917569e-02 4.891789e-02 4.877086e-02 4.784223e-02 4.702306e-02 4.531182e-02 4.369215e-02 4.108238e-02 3.857992e-02 3.502508e-02 3.167104e-02 2.725457e-02 2.323097e-02 1.818381e-02 1.380643e-02 8.467495e-03 4.113754e-03 -1.155730e-03 -5.150936e-03 -1.006920e-02 -1.351178e-02 -1.795381e-02 -2.084079e-02 -2.485150e-02 -2.734276e-02 -3.106871e-02 -3.338454e-02 -3.695118e-02 -3.924400e-02 -4.264030e-02 -4.490355e-02 -4.792854e-02 -4.997685e-02 -5.226137e-02 -5.377398e-02 -5.485803e-02 -5.545796e-02 -5.489713e-02 -5.424234e-02 -5.172368e-02 -4.959673e-02 -4.504700e-02 -4.143205e-02 -3.509234e-02 -3.022019e-02 -2.264792e-02 -1.697803e-02 -8.944403e-03 -3.063903e-03 4.636019e-03 1.016850e-02 1.691254e-02 2.170346e-02 2.715232e-02 3.102424e-02 3.511461e-02 3.807273e-02 4.093260e-02 4.308870e-02 4.493121e-02 4.642463e-02 4.745742e-02 
5.607511e-02 5.497072e-02 5.405473e-02 5.236593e-02 5.093479e-02 4.868252e-02 4.669596e-02 4.382621e-02 4.121545e-02 3.765483e-02 3.437859e-02 3.009741e-02 2.619557e-02 2.125829e-02 1.688113e-02 1.146330e-02 6.860299e-03 1.222174e-03 -3.309787e-03 -8.885265e-03 -1.307757e-02 -1.835976e-02 -2.204394e-02 -2.691150e-02 -3.005680e-02 -3.450737e-02 -3.720244e-02 -4.130313e-02 -4.368462e-02 -4.748151e-02 -4.964096e-02 -5.306891e-02 -5.497955e-02 -5.781086e-02 -5.929952e-02 -6.114680e-02 -6.191288e-02 -6.228308e-02 -6.195503e-02 -6.034763e-02 -5.856908e-02 -5.461216e-02 -5.115058e-02 -4.475774e-02 -3.961865e-02 -3.112127e-02 -2.462885e-02 -1.480544e-02 -7.590953e-03 2.476835e-03 9.618008e-03 1.883980e-02 2.517942e-02 3.275462e-02 3.782091e-02 4.338595e-02 4.701896e-02 5.060746e-02 5.289564e-02 5.479191e-02 5.595834e-02 5.653832e-02 5.683390e-02 5.644567e-02 
6.426452e-02 6.171151e-02 5.939036e-02 5.627159e-02 5.350457e-02 4.990830e-02 4.671048e-02 4.263801e-02 3.898382e-02 3.440354e-02 3.027840e-02 2.518174e-02 2.062855e-02 1.507277e-02 1.021748e-02 4.341282e-03 -6.134134e-04 -6.607360e-03 -1.141983e-02 -1.730884e-02 -2.175517e-02 -2.735003e-02 -3.127867e-02 -3.646419e-02 -3.982599e-02 -4.456825e-02 -4.740641e-02 -5.171799e-02 -5.411850e-02 -5.799269e-02 -6.001414e-02 -6.335347e-02 -6.496248e-02 -6.752743e-02 -6.855899e-02 -6.995288e-02 -7.010523e-02 -6.980509e-02 -6.867580e-02 -6.612056e-02 -6.329193e-02 -5.803618e-02 -5.321249e-02 -4.513178e-02 -3.830800e-02 -2.779300e-02 -1.939228e-02 -7.414412e-03 1.706726e-03 1.376945e-02 2.252097e-02 3.327562e-02 4.067476e-02 4.912552e-02 5.458392e-02 6.032738e-02 6.371667e-02 6.687108e-02 6.840542e-02 6.940182e-02 6.946094e-02 6.883126e-02 6.781169e-02 6.604023e-02 
7.260629e-02 6.847815e-02 6.480353e-02 6.021141e-02 5.617445e-02 5.125457e-02 4.691690e-02 4.170019e-02 3.706900e-02 3.153793e-02 2.661503e-02 2.075724e-02 1.558102e-02 9.429376e-03 4.098924e-03 -2.251156e-03 -7.576816e-03 -1.397620e-02 -1.910307e-02 -2.537908e-02 -3.011842e-02 -3.611372e-02 -4.032290e-02 -4.592642e-02 -4.953439e-02 -5.468887e-02 -5.769471e-02 -6.237334e-02 -6.481588e-02 -6.897262e-02 -7.088011e-02 -7.438778e-02 -7.572106e-02 -7.831395e-02 -7.891645e-02 -8.015381e-02 -7.972285e-02 -7.899526e-02 -7.709567e-02 -7.370498e-02 -6.985074e-02 -6.319314e-02 -5.701216e-02 -4.686275e-02 -3.832544e-02 -2.514480e-02 -1.477231e-02 1.499368e-04 1.124883e-02 2.602558e-02 3.642122e-02 4.917047e-02 5.761166e-02 6.707292e-02 7.287171e-02 7.865612e-02 8.174229e-02 8.416908e-02 8.490339e-02 8.466466e-02 8.359445e-02 8.145807e-02 7.912861e-02 7.575641e-02 
8.146067e-02 7.577339e-02 7.061356e-02 6.454398e-02 5.914008e-02 5.287245e-02 4.731895e-02 4.091370e-02 3.523640e-02 2.869095e-02 2.289738e-02 1.619926e-02 1.031942e-02 3.484988e-03 -2.404325e-03 -9.310910e-03 -1.508237e-02 -2.195124e-02 -2.744316e-02 -3.413775e-02 -3.918371e-02 -4.556795e-02 -5.002976e-02 -5.599167e-02 -5.978429e-02 -6.524551e-02 -6.834449e-02 -7.324868e-02 -7.567518e-02 -7.995416e-02 -8.173733e-02 -8.525821e-02 -8.637761e-02 -8.887764e-02 -8.919407e-02 -9.021812e-02 -8.941286e-02 -8.828668e-02 -8.584648e-02 -8.173851e-02 -7.703248e-02 -6.915995e-02 -6.164478e-02 -4.963881e-02 -3.918237e-02 -2.351841e-02 -1.073152e-02 7.030986e-03 2.069327e-02 3.817886e-02 5.078136e-02 6.558790e-02 7.543711e-02 8.599979e-02 9.224869e-02 9.816999e-02 1.008581e-01 1.026464e-01 1.023744e-01 1.009756e-01 9.853950e-02 9.495310e-02 9.109702e-02 8.616049e-02 
9.041744e-02 8.297306e-02 7.637722e-02 6.874473e-02 6.203956e-02 5.441997e-02 4.772290e-02 4.017530e-02 3.352050e-02 2.602987e-02 1.942064e-02 1.195226e-02 5.401821e-03 -2.060036e-03 -8.502758e-03 -1.593377e-02 -2.217523e-02 -2.950742e-02 -3.541654e-02 -4.254906e-02 -4.797657e-02 -5.479494e-02 -5.959894e-02 -6.599510e-02 -7.006592e-02 -7.595099e-02 -7.922834e-02 -8.453096e-02 -8.700613e-02 -9.164970e-02 -9.334432e-02 -9.719693e-02 -9.810957e-02 -1.009038e-01 -1.009234e-01 -1.021586e-01 -1.009669e-01 -9.983709e-02 -9.685402e-02 -9.228016e-02 -8.672498e-02 -7.758751e-02 -6.871917e-02 -5.434933e-02 -4.189356e-02 -2.273849e-02 -7.376454e-03 1.453234e-02 3.094542e-02 5.231463e-02 6.721294e-02 8.475331e-02 9.597819e-02 1.077184e-01 1.143138e-01 1.200019e-01 1.221760e-01 1.227512e-01 1.213817e-01 1.182412e-01 1.143879e-01 1.088735e-01 1.034799e-01 9.664358e-02 
9.986737e-02 9.067693e-02 8.246238e-02 7.325727e-02 6.512177e-02 5.612180e-02 4.818642e-02 3.945034e-02 3.174191e-02 2.324311e-02 1.575060e-02 7.434170e-03 1.505079e-04 -8.026969e-03 -1.507768e-02 -2.312443e-02 -2.987406e-02 -3.775398e-02 -4.409118e-02 -5.172694e-02 -5.750994e-02 -6.479506e-02 -6.987432e-02 -7.669074e-02 -8.093796e-02 -8.717451e-02 -9.051261e-02 -9.607770e-02 -9.850077e-02 -1.033174e-01 -1.048827e-01 -1.088476e-01 -1.096170e-01 -1.125065e-01 -1.124274e-01 -1.137542e-01 -1.125065e-01 -1.113829e-01 -1.082658e-01 -1.033834e-01 -9.734783e-02 -8.722199e-02 -7.715216e-02 -6.074104e-02 -4.604390e-02 -2.366952e-02 -5.041538e-03 2.088194e-02 4.101978e-02 6.633334e-02 8.447505e-02 1.049045e-01 1.180422e-01 1.311218e-01 1.381136e-01 1.437104e-01 1.450917e-01 1.445714e-01 1.416942e-01 1.369022e-01 1.312258e-01 1.238454e-01 1.165763e-01 1.078751e-01 
1.092064e-01 9.802550e-02 8.824815e-02 7.737395e-02 6.788311e-02 5.750445e-02 4.841368e-02 3.854997e-02 2.986807e-02 2.045234e-02 1.214336e-02 3.079917e-03 -4.893834e-03 -1.369035e-02 -2.133897e-02 -2.991892e-02 -3.720718e-02 -4.557295e-02 -5.241336e-02 -6.051671e-02 -6.677391e-02 -7.452331e-02 -8.003129e-02 -8.730897e-02 -9.190237e-02 -9.858954e-02 -1.021466e-01 -1.081500e-01 -1.106359e-01 -1.158983e-01 -1.173814e-01 -1.218462e-01 -1.224496e-01 -1.259452e-01 -1.257011e-01 -1.277385e-01 -1.263684e-01 -1.259119e-01 -1.226303e-01 -1.179871e-01 -1.114789e-01 -1.005229e-01 -8.924932e-02 -7.020567e-02 -5.315536e-02 -2.599193e-02 -3.784927e-03 2.840449e-02 5.269796e-02 8.395347e-02 1.055061e-01 1.298183e-01 1.447700e-01 1.590521e-01 1.662245e-01 1.708852e-01 1.712627e-01 1.685941e-01 1.640583e-01 1.566758e-01 1.490951e-01 1.391513e-01 1.299858e-01 1.189712e-01 
1.189702e-01 1.058017e-01 9.424669e-02 8.168595e-02 7.069788e-02 5.890668e-02 4.856259e-02 3.752225e-02 2.779365e-02 1.739635e-02 8.211909e-03 -1.679485e-03 -1.039117e-02 -1.990352e-02 -2.818384e-02 -3.740689e-02 -4.524606e-02 -5.421442e-02 -6.153852e-02 -7.022194e-02 -7.689126e-02 -8.519542e-02 -9.101993e-02 -9.880225e-02 -1.035806e-01 -1.106844e-01 -1.142669e-01 -1.205703e-01 -1.229322e-01 -1.283902e-01 -1.296754e-01 -1.343083e-01 -1.347802e-01 -1.385459e-01 -1.383922e-01 -1.409084e-01 -1.399210e-01 -1.401045e-01 -1.373653e-01 -1.331854e-01 -1.269455e-01 -1.155968e-01 -1.035778e-01 -8.242876e-02 -6.280368e-02 -3.129975e-02 -4.411024e-03 3.383458e-02 6.395238e-02 1.013770e-01 1.280513e-01 1.565865e-01 1.741330e-01 1.898807e-01 1.970637e-01 2.009829e-01 1.996968e-01 1.950283e-01 1.880841e-01 1.782171e-01 1.680932e-01 1.556511e-01 1.441153e-01 1.308173e-01 
1.281747e-01 1.127838e-01 9.952601e-02 8.522114e-02 7.283107e-02 5.967385e-02 4.818053e-02 3.606774e-02 2.539462e-02 1.414952e-02 4.178403e-03 -6.394720e-03 -1.578177e-02 -2.586259e-02 -3.475242e-02 -4.447897e-02 -5.290157e-02 -6.234921e-02 -7.025623e-02 -7.942207e-02 -8.667474e-02 -9.547314e-02 -1.018500e-01 -1.101284e-01 -1.153655e-01 -1.229486e-01 -1.268197e-01 -1.335816e-01 -1.360090e-01 -1.419475e-01 -1.430956e-01 -1.483446e-01 -1.486061e-01 -1.532919e-01 -1.530629e-01 -1.569371e-01 -1.561761e-01 -1.580818e-01 -1.558229e-01 -1.532265e-01 -1.473171e-01 -1.363009e-01 -1.236536e-01 -9.995142e-02 -7.770317e-02 -3.943061e-02 -7.309500e-03 4.112210e-02 7.812551e-02 1.252909e-01 1.573371e-01 1.915345e-01 2.113561e-01 2.277976e-01 2.345378e-01 2.358965e-01 2.325854e-01 2.240646e-01 2.144918e-01 2.007165e-01 1.879485e-01 1.720847e-01 1.581624e-01 1.420645e-01 
1.376517e-01 1.200262e-01 1.048562e-01 8.877808e-02 7.486033e-02 6.029666e-02 4.757225e-02 3.433559e-02 2.265810e-02 1.049956e-02 -3.055072e-04 -1.164493e-02 -2.174333e-02 -3.250081e-02 -4.202063e-02 -5.238537e-02 -6.138807e-02 -7.147516e-02 -7.992587e-02 -8.975135e-02 -9.749678e-02 -1.069628e-01 -1.137335e-01 -1.226388e-01 -1.280971e-01 -1.361909e-01 -1.400415e-01 -1.471293e-01 -1.492852e-01 -1.553651e-01 -1.561060e-01 -1.614499e-01 -1.614359e-01 -1.664606e-01 -1.664401e-01 -1.712282e-01 -1.714210e-01 -1.749385e-01 -1.743329e-01 -1.736477e-01 -1.695002e-01 -1.595347e-01 -1.474244e-01 -1.220611e-01 -9.719580e-02 -5.293292e-02 -1.375528e-02 4.438138e-02 9.114905e-02 1.487820e-01 1.896255e-01 2.302141e-01 2.533448e-01 2.708472e-01 2.762927e-01 2.753186e-01 2.685421e-01 2.563435e-01 2.428520e-01 2.252871e-01 2.089487e-01 1.897245e-01 1.728222e-01 1.539410e-01 
1.458048e-01 1.258245e-01 1.088503e-01 9.105325e-02 7.573467e-02 5.990231e-02 4.608273e-02 3.189783e-02 1.935151e-02 6.472900e-03 -5.042543e-03 -1.694556e-02 -2.765917e-02 -3.888623e-02 -4.898741e-02 -5.978515e-02 -6.939057e-02 -7.992296e-02 -8.903536e-02 -9.934939e-02 -1.078188e-01 -1.178191e-01 -1.253285e-01 -1.347833e-01 -1.408895e-01 -1.494953e-01 -1.537572e-01 -1.612812e-01 -1.634843e-01 -1.699662e-01 -1.703856e-01 -1.762934e-01 -1.758155e-01 -1.819412e-01 -1.817675e-01 -1.886363e-01 -1.894496e-01 -1.962484e-01 -1.971708e-01 -2.005233e-01 -1.983233e-01 -1.914747e-01 -1.803651e-01 -1.538371e-01 -1.267191e-01 -7.290018e-02 -2.588535e-02 5.021442e-02 1.097746e-01 1.846001e-01 2.343348e-01 2.832833e-01 3.087277e-01 3.247248e-01 3.279522e-01 3.208402e-01 3.100381e-01 2.910501e-01 2.733741e-01 2.500404e-01 2.300466e-01 2.064067e-01 1.865417e-01 1.644187e-01 
1.539584e-01 1.315842e-01 1.126658e-01 9.310361e-02 7.631467e-02 5.916645e-02 4.420781e-02 2.902406e-02 1.557193e-02 1.911416e-03 -1.034873e-02 -2.289886e-02 -3.425605e-02 -4.606934e-02 -5.676738e-02 -6.815866e-02 -7.835993e-02 -8.954963e-02 -9.928033e-02 -1.103457e-01 -1.194366e-01 -1.302659e-01 -1.383197e-01 -1.485997e-01 -1.550319e-01 -1.643116e-01 -1.685157e-01 -1.763917e-01 -1.780602e-01 -1.844922e-01 -1.840268e-01 -1.896668e-01 -1.884163e-01 -1.946198e-01 -1.945092e-01 -2.026071e-01 -2.049885e-01 -2.147731e-01 -2.190480e-01 -2.269188e-01 -2.293116e-01 -2.267885e-01 -2.194501e-01 -1.932727e-01 -1.648227e-01 -1.027050e-01 -4.455052e-02 4.786062e-02 1.247712e-01 2.192475e-01 2.858556e-01 3.447002e-01 3.732151e-01 3.879932e-01 3.861776e-01 3.731065e-01 3.553225e-01 3.297411e-01 3.058366e-01 2.768629e-01 2.520300e-01 2.240184e-01 2.005738e-01 1.751959e-01 
1.596531e-01 1.350434e-01 1.143355e-01 9.326568e-02 7.517436e-02 5.698475e-02 4.106404e-02 2.514867e-02 1.097117e-02 -3.209926e-03 -1.604091e-02 -2.897397e-02 -4.082495e-02 -5.295145e-02 -6.414754e-02 -7.585237e-02 -8.663805e-02 -9.820803e-02 -1.086760e-01 -1.202335e-01 -1.302366e-01 -1.416708e-01 -1.507551e-01 -1.616907e-01 -1.691059e-01 -1.789690e-01 -1.838342e-01 -1.920832e-01 -1.937843e-01 -2.003440e-01 -1.991460e-01 -2.049229e-01 -2.025006e-01 -2.095451e-01 -2.087375e-01 -2.194221e-01 -2.226781e-01 -2.377538e-01 -2.450838e-01 -2.611239e-01 -2.684434e-01 -2.751509e-01 -2.727712e-01 -2.508305e-01 -2.228891e-01 -1.483478e-01 -7.914347e-02 4.809195e-02 1.524704e-01 2.796443e-01 3.611992e-01 4.322633e-01 4.609877e-01 4.669395e-01 4.584092e-01 4.316727e-01 4.062277e-01 3.692520e-01 3.389245e-01 3.019895e-01 2.723261e-01 2.390848e-01 2.121547e-01 1.833808e-01 
1.649412e-01 1.380116e-01 1.155331e-01 9.288632e-02 7.352414e-02 5.424191e-02 3.737207e-02 2.068313e-02 5.770388e-03 -8.978815e-03 -2.240534e-02 -3.579238e-02 -4.816483e-02 -6.071892e-02 -7.243312e-02 -8.463030e-02 -9.600429e-02 -1.082191e-01 -1.193994e-01 -1.318160e-01 -1.426497e-01 -1.551554e-01 -1.650765e-01 -1.771829e-01 -1.851936e-01 -1.960648e-01 -2.009267e-01 -2.096353e-01 -2.104105e-01 -2.165476e-01 -2.135234e-01 -2.181078e-01 -2.136904e-01 -2.197477e-01 -2.181855e-01 -2.298142e-01 -2.349662e-01 -2.546374e-01 -2.675497e-01 -2.924488e-01 -3.092359e-01 -3.272718e-01 -3.361571e-01 -3.209816e-01 -2.976588e-01 -2.114232e-01 -1.234028e-01 3.115826e-02 1.664805e-01 3.352248e-01 4.542791e-01 5.406564e-01 5.666269e-01 5.630999e-01 5.397248e-01 4.993431e-01 4.607349e-01 4.126484e-01 3.731513e-01 3.284045e-01 2.927638e-01 2.542905e-01 2.234842e-01 1.912408e-01 
1.663163e-01 1.377044e-01 1.136632e-01 8.998240e-02 6.956254e-02 4.962294e-02 3.202744e-02 1.492241e-02 -4.901675e-04 -1.548702e-02 -2.926741e-02 -4.278873e-02 -5.545227e-02 -6.809308e-02 -8.013993e-02 -9.246474e-02 -1.043384e-01 -1.168232e-01 -1.287941e-01 -1.417054e-01 -1.536968e-01 -1.669395e-01 -1.783489e-01 -1.913401e-01 -2.009427e-01 -2.126077e-01 -2.186860e-01 -2.277409e-01 -2.286692e-01 -2.344059e-01 -2.299095e-01 -2.335096e-01 -2.262964e-01 -2.318944e-01 -2.279898e-01 -2.417610e-01 -2.474200e-01 -2.742337e-01 -2.920040e-01 -3.310268e-01 -3.574771e-01 -3.967726e-01 -4.188236e-01 -4.241491e-01 -4.105464e-01 -3.130988e-01 -2.150938e-01 1.396506e-02 2.170716e-01 4.494090e-01 5.901753e-01 6.948848e-01 7.124027e-01 6.778892e-01 6.379033e-01 5.694810e-01 5.175025e-01 4.522869e-01 4.037811e-01 3.495884e-01 3.081834e-01 2.645682e-01 2.300980e-01 1.949797e-01 
1.667861e-01 1.363370e-01 1.109995e-01 8.618942e-02 6.487584e-02 4.423251e-02 2.598545e-02 8.445909e-03 -7.457321e-03 -2.271704e-02 -3.687833e-02 -5.057267e-02 -6.356495e-02 -7.638351e-02 -8.879634e-02 -1.014245e-01 -1.138254e-01 -1.268802e-01 -1.396641e-01 -1.535439e-01 -1.666870e-01 -1.813568e-01 -1.941428e-01 -2.089115e-01 -2.197361e-01 -2.331296e-01 -2.395800e-01 -2.495384e-01 -2.491229e-01 -2.539587e-01 -2.459593e-01 -2.464720e-01 -2.346283e-01 -2.364498e-01 -2.295570e-01 -2.422740e-01 -2.491068e-01 -2.815323e-01 -3.068640e-01 -3.608781e-01 -4.035388e-01 -4.678161e-01 -5.160221e-01 -5.456899e-01 -5.555831e-01 -4.332209e-01 -2.947830e-01 -3.238663e-02 2.080761e-01 5.295030e-01 7.658607e-01 8.985633e-01 8.872484e-01 8.197097e-01 7.436355e-01 6.479163e-01 5.745976e-01 4.930447e-01 4.332605e-01 3.698130e-01 3.223842e-01 2.735011e-01 2.356536e-01 1.974680e-01 
1.618470e-01 1.308146e-01 1.044361e-01 7.933791e-02 5.738388e-02 3.660283e-02 1.797258e-02 4.053763e-04 -1.569230e-02 -3.087163e-02 -4.508657e-02 -5.860073e-02 -7.157707e-02 -8.416733e-02 -9.662190e-02 -1.090902e-01 -1.217824e-01 -1.349141e-01 -1.484660e-01 -1.628245e-01 -1.774079e-01 -1.930405e-01 -2.079997e-01 -2.241206e-01 -2.376247e-01 -2.523793e-01 -2.612850e-01 -2.718649e-01 -2.722771e-01 -2.760245e-01 -2.655026e-01 -2.628018e-01 -2.447549e-01 -2.427436e-01 -2.294610e-01 -2.414887e-01 -2.469376e-01 -2.863780e-01 -3.178011e-01 -3.916137e-01 -4.492957e-01 -5.533782e-01 -6.259233e-01 -7.138151e-01 -7.427953e-01 -6.179163e-01 -5.006560e-01 -7.797799e-02 3.306459e-01 7.161113e-01 9.347253e-01 1.128868e+00 1.113372e+00 9.614484e-01 8.565379e-01 7.138372e-01 6.214437e-01 5.206586e-01 4.504598e-01 3.795169e-01 3.265173e-01 2.746308e-01 2.337313e-01 1.942712e-01 
1.555455e-01 1.236828e-01 9.680115e-02 7.130374e-02 4.899319e-02 2.805378e-02 9.150635e-03 -8.414401e-03 -2.470717e-02 -3.976220e-02 -5.408596e-02 -6.739752e-02 -8.042057e-02 -9.281779e-02 -1.053624e-01 -1.178036e-01 -1.308375e-01 -1.443331e-01 -1.587460e-01 -1.741217e-01 -1.902933e-01 -2.078149e-01 -2.250714e-01 -2.439732e-01 -2.600192e-01 -2.779954e-01 -2.885055e-01 -3.014130e-01 -3.004889e-01 -3.032547e-01 -2.865063e-01 -2.773488e-01 -2.492582e-01 -2.372766e-01 -2.162419e-01 -2.212787e-01 -2.249247e-01 -2.682378e-01 -3.067101e-01 -4.005660e-01 -4.780648e-01 -6.270720e-01 -7.401545e-01 -8.875314e-01 -9.615223e-01 -6.878156e-01 -4.627199e-01 -1.351956e-01 1.159800e-01 5.432892e-01 9.981071e-01 1.354108e+00 1.307057e+00 1.103499e+00 9.497368e-01 7.716247e-01 6.582497e-01 5.410464e-01 4.626425e-01 3.842534e-01 3.278172e-01 2.724397e-01 2.299479e-01 1.887996e-01 
1.428978e-01 1.119474e-01 8.484724e-02 5.995275e-02 3.756272e-02 1.704539e-02 -1.829785e-03 -1.903210e-02 -3.516583e-02 -4.980424e-02 -6.381012e-02 -7.657528e-02 -8.914801e-02 -1.008852e-01 -1.129887e-01 -1.248143e-01 -1.377036e-01 -1.509173e-01 -1.658805e-01 -1.816354e-01 -1.994697e-01 -2.182721e-01 -2.386135e-01 -2.597107e-01 -2.802504e-01 -3.008965e-01 -3.164873e-01 -3.312538e-01 -3.335128e-01 -3.349137e-01 -3.148759e-01 -2.987790e-01 -2.575758e-01 -2.346588e-01 -1.980029e-01 -1.949704e-01 -1.928352e-01 -2.377661e-01 -2.816099e-01 -3.921496e-01 -4.846942e-01 -6.802067e-01 -8.037420e-01 -1.030815e+00 -9.500595e-01 -5.793277e-01 -4.950742e-01 1.066520e-01 -2.437465e-01 -1.016545e-01 4.703800e-01 9.834297e-01 1.406223e+00 1.115289e+00 9.797802e-01 7.797490e-01 6.535305e-01 5.348337e-01 4.493452e-01 3.730427e-01 3.136043e-01 2.601679e-01 2.164440e-01 1.766647e-01 
1.286431e-01 9.829481e-02 7.166510e-02 4.729076e-02 2.514428e-02 5.093849e-03 -1.366979e-02 -3.039503e-02 -4.643684e-02 -6.051977e-02 -7.433825e-02 -8.643695e-02 -9.866883e-02 -1.096853e-01 -1.213942e-01 -1.326369e-01 -1.454154e-01 -1.585239e-01 -1.741888e-01 -1.907907e-01 -2.106698e-01 -2.318004e-01 -2.558255e-01 -2.811485e-01 -3.067239e-01 -3.333916e-01 -3.537779e-01 -3.746609e-01 -3.774322e-01 -3.799178e-01 -3.497617e-01 -3.219976e-01 -2.592742e-01 -2.138060e-01 -1.609816e-01 -1.371761e-01 -1.272580e-01 -1.685967e-01 -2.139640e-01 -3.369872e-01 -4.331591e-01 -6.690515e-01 -7.631396e-01 -1.069166e+00 -6.334452e-01 -5.751779e-02 -3.299135e-01 3.165773e-01 -2.634783e-02 -1.280748e-02 4.464929e-02 6.408794e-02 9.182819e-01 8.940211e-01 8.877852e-01 7.272730e-01 6.247052e-01 5.091149e-01 4.292887e-01 3.532567e-01 2.961121e-01 2.431897e-01 2.007537e-01 1.616155e-01 
1.084466e-01 8.035775e-02 5.449028e-02 3.147999e-02 9.847963e-03 -9.342743e-03 -2.769026e-02 -4.377585e-02 -5.933251e-02 -7.273828e-02 -8.584039e-02 -9.700977e-02 -1.082145e-01 -1.179805e-01 -1.284773e-01 -1.383587e-01 -1.501583e-01 -1.622981e-01 -1.778784e-01 -1.945178e-01 -2.159717e-01 -2.386804e-01 -2.667095e-01 -2.954876e-01 -3.281640e-01 -3.600326e-01 -3.904984e-01 -4.167358e-01 -4.293087e-01 -4.322666e-01 -4.010421e-01 -3.611240e-01 -2.713565e-01 -2.015084e-01 -1.118079e-01 -6.581621e-02 -4.422383e-02 -7.541968e-02 -1.248740e-01 -2.384220e-01 -3.409155e-01 -5.555856e-01 -6.200040e-01 -8.598144e-01 -2.329625e-01 6.609349e-02 6.816574e-02 -1.196583e-01 6.146670e-03 -8.204369e-02 -4.689982e-02 -2.549142e-02 -4.552439e-02 5.865301e-01 5.758483e-01 6.085580e-01 5.149762e-01 4.513239e-01 3.752382e-01 3.164222e-01 2.617062e-01 2.162403e-01 1.755013e-01 1.402669e-01 
8.660448e-02 6.059057e-02 3.607190e-02 1.447042e-02 -6.412331e-03 -2.457537e-02 -4.253906e-02 -5.774103e-02 -7.303331e-02 -8.548403e-02 -9.815927e-02 -1.081395e-01 -1.185144e-01 -1.268372e-01 -1.361159e-01 -1.445179e-01 -1.552242e-01 -1.663161e-01 -1.819093e-01 -1.986960e-01 -2.223555e-01 -2.474070e-01 -2.807849e-01 -3.152926e-01 -3.570299e-01 -3.992470e-01 -4.414472e-01 -4.821518e-01 -5.024849e-01 -5.153423e-01 -4.697853e-01 -4.118156e-01 -2.739974e-01 -1.582339e-01 -4.174975e-02 5.374092e-02 9.098863e-02 7.141155e-02 2.232449e-02 -7.172226e-02 -1.637105e-01 -3.066306e-01 -3.216710e-01 -3.963000e-01 1.364018e-01 -1.921309e-01 2.253174e-01 1.590060e-02 2.266580e-01 1.232442e-01 -2.648986e-01 4.233284e-01 1.178016e-01 4.254369e-01 4.583533e-01 4.939244e-01 4.368462e-01 3.866385e-01 3.247553e-01 2.738727e-01 2.258058e-01 1.852414e-01 1.482494e-01 1.161655e-01 
6.088757e-02 3.773051e-02 1.481825e-02 -5.050855e-03 -2.497301e-02 -4.212377e-02 -5.944957e-02 -7.399220e-02 -8.863355e-02 -1.003589e-01 -1.119952e-01 -1.207279e-01 -1.293686e-01 -1.356360e-01 -1.425108e-01 -1.483006e-01 -1.565330e-01 -1.653576e-01 -1.794666e-01 -1.954139e-01 -2.197829e-01 -2.463497e-01 -2.839379e-01 -3.231795e-01 -3.745492e-01 -4.256424e-01 -4.853372e-01 -5.383077e-01 -5.827125e-01 -6.018302e-01 -5.681805e-01 -4.927268e-01 -3.050456e-01 -1.453679e-01 5.822288e-02 1.993526e-01 2.485367e-01 2.435909e-01 1.833798e-01 1.253164e-01 2.512738e-02 -9.169257e-03 -8.347430e-02 6.722144e-02 -7.818926e-02 -1.402159e-01 3.795528e-01 -1.486366e-01 -1.008893e-01 4.425167e-01 -1.316010e-01 -1.059974e-01 2.767768e-01 1.662448e-01 3.300109e-01 3.364238e-01 3.365110e-01 3.005100e-01 2.597835e-01 2.201215e-01 1.809946e-01 1.476344e-01 1.152803e-01 8.775982e-02 
3.343514e-02 1.342034e-02 -7.571230e-03 -2.542931e-02 -4.432939e-02 -6.012966e-02 -7.704381e-02 -9.051006e-02 -1.049923e-01 -1.155192e-01 -1.267214e-01 -1.337510e-01 -1.410475e-01 -1.449213e-01 -1.492351e-01 -1.521784e-01 -1.573554e-01 -1.634314e-01 -1.757812e-01 -1.901773e-01 -2.159487e-01 -2.436465e-01 -2.875962e-01 -3.326340e-01 -3.977095e-01 -4.629186e-01 -5.457447e-01 -6.253170e-01 -6.939239e-01 -7.415162e-01 -6.860305e-01 -5.873055e-01 -3.010982e-01 -7.490423e-02 1.371018e-01 3.908614e-01 4.850462e-01 4.670049e-01 3.924014e-01 3.455935e-01 2.390694e-01 2.841625e-01 1.644119e-01 4.748614e-01 -1.690155e-01 -5.148331e-02 5.877406e-02 -2.071435e-01 -2.169783e-02 -2.630964e-01 1.097462e-01 -2.916683e-01 -1.788103e-01 -1.272482e-02 1.048182e-01 1.962875e-01 2.109023e-01 2.126764e-01 1.854121e-01 1.626146e-01 1.316098e-01 1.069107e-01 7.959679e-02 5.713050e-02 
4.967608e-03 -1.216431e-02 -3.113669e-02 -4.729846e-02 -6.511378e-02 -8.011590e-02 -9.650305e-02 -1.097039e-01 -1.237345e-01 -1.339290e-01 -1.440571e-01 -1.497833e-01 -1.545903e-01 -1.553333e-01 -1.554424e-01 -1.536213e-01 -1.537798e-01 -1.552237e-01 -1.634965e-01 -1.752556e-01 -1.995321e-01 -2.277407e-01 -2.739688e-01 -3.236067e-01 -3.972736e-01 -4.730632e-01 -5.760577e-01 -6.709220e-01 -7.709901e-01 -8.079740e-01 -7.787158e-01 -6.423156e-01 -3.747318e-01 -1.441322e-01 2.582642e-01 5.732528e-01 6.854722e-01 6.809903e-01 5.865521e-01 5.472977e-01 4.526563e-01 5.070171e-01 4.417523e-01 6.518998e-01 2.742086e-01 1.744935e-01 -5.801217e-02 2.596241e-01 4.348985e-01 -2.873854e-01 2.475400e-01 1.390003e-01 -1.309335e-01 -2.636801e-02 2.467119e-02 9.926185e-02 1.232112e-01 1.327571e-01 1.196696e-01 1.054425e-01 8.349737e-02 6.512316e-02 4.333412e-02 2.526419e-02 
-2.495970e-02 -3.864403e-02 -5.547380e-02 -6.949161e-02 -8.629771e-02 -1.000107e-01 -1.163085e-01 -1.286238e-01 -1.431053e-01 -1.522071e-01 -1.624845e-01 -1.661266e-01 -1.693331e-01 -1.664536e-01 -1.619221e-01 -1.553438e-01 -1.487259e-01 -1.446637e-01 -1.475705e-01 -1.546058e-01 -1.776274e-01 -2.036259e-01 -2.544418e-01 -3.053741e-01 -3.930080e-01 -4.767483e-01 -6.087875e-01 -7.209605e-01 -8.463506e-01 -8.822046e-01 -7.203362e-01 -3.411275e-01 -1.443476e-01 -1.166107e-01 6.435992e-02 4.775453e-01 9.371340e-01 8.888236e-01 7.696320e-01 7.057008e-01 6.018209e-01 6.261617e-01 5.713383e-01 6.017664e-01 4.167410e-01 9.955775e-02 -4.070007e-02 -2.030540e-01 -1.635520e-01 1.950681e-01 2.700264e-01 1.287379e-02 -1.230558e-01 -1.383357e-01 -8.717441e-02 -1.737537e-02 1.889428e-02 4.556084e-02 4.502915e-02 4.422804e-02 3.067121e-02 2.080172e-02 4.463367e-03 -8.205644e-03 
-5.332543e-02 -6.440229e-02 -7.923844e-02 -9.188051e-02 -1.078513e-01 -1.213381e-01 -1.376864e-01 -1.507002e-01 -1.655776e-01 -1.755705e-01 -1.854352e-01 -1.884640e-01 -1.886246e-01 -1.812774e-01 -1.698306e-01 -1.546167e-01 -1.387711e-01 -1.259560e-01 -1.206249e-01 -1.221090e-01 -1.401487e-01 -1.644815e-01 -2.123691e-01 -2.641780e-01 -3.493127e-01 -4.344757e-01 -5.596346e-01 -6.543884e-01 -7.167361e-01 -5.701770e-01 2.019860e-02 1.235240e-01 2.992196e-01 3.128936e-01 -1.556788e-01 -6.638044e-02 5.085028e-01 8.433918e-01 8.250421e-01 8.066011e-01 7.218692e-01 7.346671e-01 6.879155e-01 6.633064e-01 4.971804e-01 1.425552e-01 1.409512e-02 -1.842336e-01 -8.109144e-02 1.352040e-01 -4.373918e-03 -1.670631e-01 -2.413293e-01 -2.215918e-01 -1.778785e-01 -1.045066e-01 -6.227321e-02 -2.702381e-02 -1.724693e-02 -1.029286e-02 -1.599418e-02 -2.023467e-02 -3.128747e-02 -3.999017e-02 