# vtk DataFile Version 2.0
Comment goes here
ASCII

DATASET STRUCTURED_POINTS
DIMENSIONS    64   64   1

ORIGIN    0.000   0.000   0.000
SPACING   0.0156250.015625   1.000

POINT_DATA   4096
SCALARS uX double
LOOKUP_TABLE default

2.258241e-02 2.988978e-02 2.611188e-02 3.369733e-02 3.159368e-02 3.917676e-02 3.866707e-02 4.486384e-02 4.553304e-02 4.709099e-02 4.815257e-02 3.961343e-02 4.058518e-02 1.639139e-02 1.891234e-02 -1.958757e-02 -1.107627e-02 -4.838182e-02 -3.285387e-02 -5.341772e-02 -3.870269e-02 -4.645668e-02 -3.647249e-02 -3.818050e-02 -3.317603e-02 -3.308296e-02 -3.108579e-02 -3.070433e-02 -2.850513e-02 -2.699197e-02 -2.165494e-02 -1.692072e-02 -9.897702e-03 -1.415872e-03 -7.852728e-04 4.786032e-03 -3.352449e-04 3.086764e-03 -4.564882e-03 -3.441783e-03 -1.052084e-02 -1.312094e-02 -1.701802e-02 -2.376600e-02 -2.273099e-02 -3.056419e-02 -2.536636e-02 -2.657646e-02 -2.269736e-02 -9.527651e-03 -1.096616e-02 7.651327e-03 1.400091e-03 1.945436e-02 1.047740e-02 2.554955e-02 1.577912e-02 2.766685e-02 1.834478e-02 2.779492e-02 1.955380e-02 2.751978e-02 2.063890e-02 2.796466e-02 
1.247581e-02 1.780411e-02 1.192194e-02 1.682384e-02 1.210805e-02 1.643313e-02 1.326691e-02 1.640182e-02 1.553060e-02 1.611632e-02 1.868095e-02 1.443121e-02 2.165889e-02 9.895370e-03 2.204164e-02 1.880058e-03 1.652182e-02 -7.759647e-03 4.279455e-03 -1.625229e-02 -8.793975e-03 -2.314005e-02 -2.017184e-02 -2.891662e-02 -2.890522e-02 -3.367978e-02 -3.388524e-02 -3.630602e-02 -3.355902e-02 -3.447520e-02 -2.738416e-02 -2.621589e-02 -1.815374e-02 -1.310800e-02 -9.498825e-03 -3.052094e-03 -5.481081e-03 5.025821e-05 -6.226248e-03 -2.914146e-03 -9.362338e-03 -8.883960e-03 -1.189511e-02 -1.406929e-02 -1.149632e-02 -1.455820e-02 -7.927681e-03 -7.698865e-03 -3.250222e-03 5.197022e-03 3.718885e-03 1.673545e-02 1.007854e-02 2.352046e-02 1.408114e-02 2.590301e-02 1.569273e-02 2.546253e-02 1.563732e-02 2.364785e-02 1.470475e-02 2.143336e-02 1.350781e-02 1.938528e-02 
2.080330e-02 2.681607e-02 2.370393e-02 2.910896e-02 2.730892e-02 3.162260e-02 3.106949e-02 3.311533e-02 3.360778e-02 3.136427e-02 3.265526e-02 2.359011e-02 2.573963e-02 8.277602e-03 1.214209e-02 -1.169281e-02 -4.758714e-03 -2.816241e-02 -1.836251e-02 -3.491966e-02 -2.507844e-02 -3.452742e-02 -2.672204e-02 -3.137436e-02 -2.610460e-02 -2.810841e-02 -2.462144e-02 -2.507136e-02 -2.202383e-02 -2.096347e-02 -1.742874e-02 -1.448806e-02 -1.130786e-02 -6.906534e-03 -6.551010e-03 -2.821888e-03 -5.424388e-03 -2.918228e-03 -7.127027e-03 -6.162203e-03 -1.028303e-02 -1.118742e-02 -1.377757e-02 -1.611688e-02 -1.646684e-02 -1.823080e-02 -1.700781e-02 -1.479818e-02 -1.423389e-02 -5.705670e-03 -7.621569e-03 4.608285e-03 4.249736e-05 1.301309e-02 6.622235e-03 1.855063e-02 1.137462e-02 2.163285e-02 1.451833e-02 2.318160e-02 1.668938e-02 2.412368e-02 1.858835e-02 2.518501e-02 
1.142845e-02 1.585565e-02 1.126889e-02 1.490981e-02 1.152982e-02 1.414969e-02 1.230320e-02 1.336595e-02 1.353259e-02 1.213354e-02 1.487731e-02 9.832988e-03 1.554184e-02 5.869422e-03 1.425115e-02 1.617515e-04 9.761341e-03 -6.438043e-03 2.139606e-03 -1.272993e-02 -6.459896e-03 -1.814817e-02 -1.434067e-02 -2.253956e-02 -2.042333e-02 -2.565158e-02 -2.384725e-02 -2.681398e-02 -2.395237e-02 -2.509577e-02 -2.082910e-02 -2.010336e-02 -1.587996e-02 -1.311996e-02 -1.107476e-02 -7.296955e-03 -8.215981e-03 -4.624430e-03 -7.601673e-03 -5.022652e-03 -8.251936e-03 -7.004872e-03 -8.711857e-03 -8.475785e-03 -7.823062e-03 -7.418276e-03 -5.320930e-03 -2.777386e-03 -1.744729e-03 4.547210e-03 2.714856e-03 1.168674e-02 6.928804e-03 1.673137e-02 1.000611e-02 1.932431e-02 1.172858e-02 1.998094e-02 1.233935e-02 1.943146e-02 1.224387e-02 1.830040e-02 1.183415e-02 1.702238e-02 
1.833861e-02 2.308009e-02 2.059062e-02 2.429777e-02 2.286475e-02 2.508364e-02 2.468636e-02 2.460116e-02 2.516485e-02 2.165413e-02 2.312211e-02 1.511294e-02 1.758789e-02 4.838497e-03 8.673317e-03 -7.295611e-03 -1.756247e-03 -1.766870e-02 -1.076697e-02 -2.357526e-02 -1.652344e-02 -2.535541e-02 -1.922799e-02 -2.467751e-02 -1.989759e-02 -2.290465e-02 -1.927390e-02 -2.051094e-02 -1.754440e-02 -1.729817e-02 -1.472511e-02 -1.315036e-02 -1.135411e-02 -8.905823e-03 -8.684361e-03 -6.253352e-03 -7.682423e-03 -5.775444e-03 -8.235080e-03 -7.099715e-03 -9.705737e-03 -9.351039e-03 -1.134410e-02 -1.128797e-02 -1.235635e-02 -1.143843e-02 -1.195965e-02 -8.660497e-03 -9.607603e-03 -3.107279e-03 -5.329929e-03 3.469624e-03 -2.307369e-04 9.439006e-03 4.595088e-03 1.400864e-02 8.579471e-03 1.713347e-02 1.166507e-02 1.917536e-02 1.409746e-02 2.060841e-02 1.622225e-02 2.183560e-02 
1.013560e-02 1.368594e-02 1.019601e-02 1.280945e-02 1.043919e-02 1.188925e-02 1.088222e-02 1.077949e-02 1.141652e-02 9.223425e-03 1.175116e-02 6.906131e-03 1.137974e-02 3.592951e-03 9.662369e-03 -6.657235e-04 6.132991e-03 -5.427186e-03 9.746443e-04 -1.008068e-02 -4.845592e-03 -1.417994e-02 -1.030634e-02 -1.743884e-02 -1.459839e-02 -1.957147e-02 -1.712703e-02 -2.020137e-02 -1.757480e-02 -1.898636e-02 -1.610255e-02 -1.597640e-02 -1.346481e-02 -1.197606e-02 -1.070335e-02 -8.395750e-03 -8.705837e-03 -6.229401e-03 -7.712985e-03 -5.546590e-03 -7.332192e-03 -5.637230e-03 -6.876859e-03 -5.410912e-03 -5.763066e-03 -3.856124e-03 -3.790428e-03 -5.299990e-04 -1.128065e-03 4.079029e-03 1.953195e-03 8.727657e-03 4.914578e-03 1.239214e-02 7.285861e-03 1.468218e-02 8.876289e-03 1.570598e-02 9.747801e-03 1.579686e-02 1.009749e-02 1.531434e-02 1.015693e-02 1.454796e-02 
1.573813e-02 1.937047e-02 1.745430e-02 1.991701e-02 1.887107e-02 1.981041e-02 1.964342e-02 1.854843e-02 1.924126e-02 1.553733e-02 1.708220e-02 1.037293e-02 1.282050e-02 3.264600e-03 6.719064e-03 -4.658695e-03 -1.781839e-04 -1.164566e-02 -6.429888e-03 -1.636005e-02 -1.102098e-02 -1.864145e-02 -1.376791e-02 -1.907475e-02 -1.498341e-02 -1.832140e-02 -1.503280e-02 -1.676932e-02 -1.415553e-02 -1.456589e-02 -1.257221e-02 -1.190664e-02 -1.069813e-02 -9.313682e-03 -9.149026e-03 -7.511717e-03 -8.385235e-03 -6.831019e-03 -8.424926e-03 -7.110348e-03 -8.960914e-03 -7.829956e-03 -9.537756e-03 -8.246445e-03 -9.656106e-03 -7.572255e-03 -8.866042e-03 -5.293565e-03 -6.906234e-03 -1.532042e-03 -3.859963e-03 2.937304e-03 -2.306805e-04 7.264413e-03 3.409562e-03 1.091207e-02 6.683402e-03 1.371774e-02 9.465315e-03 1.577844e-02 1.181341e-02 1.729926e-02 1.386471e-02 1.846891e-02 
8.761179e-03 1.153047e-02 8.940387e-03 1.075255e-02 9.148323e-03 9.818320e-03 9.368984e-03 8.640069e-03 9.498731e-03 7.076625e-03 9.329970e-03 4.978016e-03 8.563585e-03 2.263569e-03 6.886542e-03 -9.909208e-04 4.134049e-03 -4.525307e-03 4.710364e-04 -7.985570e-03 -3.591101e-03 -1.105088e-02 -7.440331e-03 -1.346305e-02 -1.053622e-02 -1.499314e-02 -1.248731e-02 -1.543279e-02 -1.311759e-02 -1.467045e-02 -1.254245e-02 -1.283874e-02 -1.117417e-02 -1.041346e-02 -9.567902e-03 -8.082325e-03 -8.190752e-03 -6.351674e-03 -7.212112e-03 -5.297217e-03 -6.486813e-03 -4.586516e-03 -5.699997e-03 -3.673929e-03 -4.561860e-03 -2.063117e-03 -2.950449e-03 4.369632e-04 -9.319431e-04 3.570731e-03 1.310108e-03 6.751011e-03 3.489837e-03 9.426347e-03 5.346301e-03 1.130615e-02 6.742929e-03 1.236415e-02 7.678127e-03 1.273580e-02 8.241444e-03 1.261216e-02 8.560611e-03 1.216907e-02 
1.329470e-02 1.601556e-02 1.461682e-02 1.618865e-02 1.552087e-02 1.569146e-02 1.577401e-02 1.424392e-02 1.507431e-02 1.157409e-02 1.314600e-02 7.578644e-03 9.894298e-03 2.507717e-03 5.560486e-03 -2.957802e-03 7.523643e-04 -7.896612e-03 -3.755410e-03 -1.157921e-02 -7.363549e-03 -1.377608e-02 -9.839258e-03 -1.465853e-02 -1.123523e-02 -1.453663e-02 -1.171840e-02 -1.367858e-02 -1.147268e-02 -1.228848e-02 -1.070961e-02 -1.059569e-02 -9.716601e-03 -8.930490e-03 -8.827958e-03 -7.649268e-03 -8.284348e-03 -6.926964e-03 -8.118488e-03 -6.681041e-03 -8.175481e-03 -6.612412e-03 -8.190380e-03 -6.295740e-03 -7.864656e-03 -5.309760e-03 -6.942019e-03 -3.408168e-03 -5.291094e-03 -6.642394e-04 -2.973000e-03 2.546966e-03 -2.416251e-04 5.769168e-03 2.590477e-03 8.657712e-03 5.279364e-03 1.104735e-02 7.699513e-03 1.292173e-02 9.826235e-03 1.434150e-02 1.168508e-02 1.537032e-02 
7.408073e-03 9.514237e-03 7.655869e-03 8.851908e-03 7.844355e-03 7.991516e-03 7.946042e-03 6.886322e-03 7.878728e-03 5.465923e-03 7.505903e-03 3.666793e-03 6.658073e-03 1.474759e-03 5.186534e-03 -1.036418e-03 3.045891e-03 -3.697944e-03 3.665038e-04 -6.285445e-03 -2.549603e-03 -8.574543e-03 -5.327583e-03 -1.036873e-02 -7.618667e-03 -1.150470e-02 -9.168346e-03 -1.186568e-02 -9.865985e-03 -1.142338e-02 -9.775882e-03 -1.029441e-02 -9.121830e-03 -8.757188e-03 -8.203383e-03 -7.169113e-03 -7.277046e-03 -5.798220e-03 -6.457761e-03 -4.704250e-03 -5.702789e-03 -3.737614e-03 -4.874293e-03 -2.634756e-03 -3.833924e-03 -1.158513e-03 -2.517880e-03 7.710122e-04 -9.599474e-04 3.015848e-03 7.288221e-04 5.278734e-03 2.388066e-03 7.255638e-03 3.866474e-03 8.751787e-03 5.070982e-03 9.708735e-03 5.980344e-03 1.017013e-02 6.629560e-03 1.022945e-02 7.082896e-03 9.985655e-03 
1.113860e-02 1.313264e-02 1.219709e-02 1.313022e-02 1.282115e-02 1.252246e-02 1.285713e-02 1.116147e-02 1.213604e-02 8.936768e-03 1.053375e-02 5.860703e-03 8.050802e-03 2.146263e-03 4.876169e-03 -1.783451e-03 1.381792e-03 -5.404306e-03 -1.981497e-03 -8.284751e-03 -4.839127e-03 -1.022551e-02 -6.990530e-03 -1.124671e-02 -8.399821e-03 -1.148788e-02 -9.132833e-03 -1.111956e-02 -9.307017e-03 -1.031329e-02 -9.076678e-03 -9.256743e-03 -8.630409e-03 -8.163195e-03 -8.161659e-03 -7.228029e-03 -7.805643e-03 -6.546736e-03 -7.589252e-03 -6.074650e-03 -7.432302e-03 -5.643088e-03 -7.183836e-03 -5.014342e-03 -6.670250e-03 -3.962562e-03 -5.746251e-03 -2.364677e-03 -4.343045e-03 -2.635288e-04 -2.499305e-03 2.145590e-03 -3.533162e-04 4.607550e-03 1.914600e-03 6.902357e-03 4.144086e-03 8.892399e-03 6.227169e-03 1.051984e-02 8.106958e-03 1.177481e-02 9.754604e-03 1.265530e-02 
6.132255e-03 7.688915e-03 6.430482e-03 7.149350e-03 6.626898e-03 6.409633e-03 6.691721e-03 5.448059e-03 6.563852e-03 4.234379e-03 6.156591e-03 2.748889e-03 5.376250e-03 1.005282e-03 4.155773e-03 -9.316543e-04 2.496616e-03 -2.944780e-03 4.987249e-04 -4.883764e-03 -1.646245e-03 -6.592957e-03 -3.701720e-03 -7.932361e-03 -5.442496e-03 -8.790945e-03 -6.701444e-03 -9.101561e-03 -7.402238e-03 -8.862738e-03 -7.573445e-03 -8.158262e-03 -7.334043e-03 -7.151932e-03 -6.846805e-03 -6.039000e-03 -6.256254e-03 -4.968066e-03 -5.639024e-03 -3.984037e-03 -4.992200e-03 -3.024876e-03 -4.260394e-03 -1.968744e-03 -3.381674e-03 -7.068421e-04 -2.327341e-03 7.900243e-04 -1.119018e-03 2.442906e-03 1.768486e-04 4.092231e-03 1.467000e-03 5.565482e-03 2.660500e-03 6.736536e-03 3.694172e-03 7.548881e-03 4.542704e-03 8.006582e-03 5.213539e-03 8.149903e-03 5.733299e-03 8.029876e-03 
9.307901e-03 1.072940e-02 1.021162e-02 1.067697e-02 1.070935e-02 1.010653e-02 1.069726e-02 8.942740e-03 1.007910e-02 7.151043e-03 8.802440e-03 4.781557e-03 6.899252e-03 2.000463e-03 4.511583e-03 -9.178644e-04 1.879800e-03 -3.652614e-03 -7.136895e-04 -5.930288e-03 -3.021274e-03 -7.594730e-03 -4.884077e-03 -8.615007e-03 -6.240721e-03 -9.048543e-03 -7.106044e-03 -8.998325e-03 -7.545773e-03 -8.588145e-03 -7.659522e-03 -7.954578e-03 -7.566552e-03 -7.237419e-03 -7.382531e-03 -6.552939e-03 -7.187292e-03 -5.957390e-03 -7.000625e-03 -5.427836e-03 -6.780729e-03 -4.871017e-03 -6.442508e-03 -4.155962e-03 -5.886308e-03 -3.161341e-03 -5.029678e-03 -1.824286e-03 -3.835502e-03 -1.707053e-04 -2.327849e-03 1.691375e-03 -5.869478e-04 3.613081e-03 1.277140e-03 5.451808e-03 3.155200e-03 7.100135e-03 4.958110e-03 8.490538e-03 6.619796e-03 9.582649e-03 8.087710e-03 1.034345e-02 
4.957075e-03 6.062225e-03 5.306762e-03 5.646993e-03 5.540836e-03 5.049700e-03 5.629862e-03 4.262061e-03 5.528156e-03 3.274847e-03 5.180227e-03 2.089278e-03 4.534538e-03 7.292019e-04 3.563753e-03 -7.507458e-04 2.286146e-03 -2.265842e-03 7.780614e-04 -3.711906e-03 -8.323757e-04 -4.981101e-03 -2.390557e-03 -5.976680e-03 -3.748160e-03 -6.624999e-03 -4.792729e-03 -6.886725e-03 -5.468146e-03 -6.767627e-03 -5.781711e-03 -6.323923e-03 -5.794171e-03 -5.653329e-03 -5.593582e-03 -4.866997e-03 -5.262139e-03 -4.051100e-03 -4.849851e-03 -3.238991e-03 -4.366555e-03 -2.409075e-03 -3.793389e-03 -1.508393e-03 -3.105057e-03 -4.899917e-04 -2.290858e-03 6.531228e-04 -1.365730e-03 1.873519e-03 -3.694993e-04 3.081717e-03 6.425335e-04 4.177432e-03 1.614334e-03 5.079948e-03 2.502504e-03 5.743673e-03 3.282758e-03 6.157440e-03 3.948574e-03 6.333737e-03 4.504455e-03 6.295059e-03 
7.793591e-03 8.764494e-03 8.632035e-03 8.741679e-03 9.107304e-03 8.283909e-03 9.143426e-03 7.351956e-03 8.680759e-03 5.943255e-03 7.697808e-03 4.114239e-03 6.232306e-03 1.992084e-03 4.391107e-03 -2.357998e-04 2.339366e-03 -2.358084e-03 2.679916e-04 -4.189209e-03 -1.648398e-03 -5.608244e-03 -3.283899e-03 -6.570099e-03 -4.572977e-03 -7.092943e-03 -5.504828e-03 -7.236966e-03 -6.110446e-03 -7.086263e-03 -6.449001e-03 -6.735893e-03 -6.593670e-03 -6.278898e-03 -6.614579e-03 -5.788907e-03 -6.560368e-03 -5.302079e-03 -6.445257e-03 -4.808328e-03 -6.247529e-03 -4.257208e-03 -5.919200e-03 -3.577131e-03 -5.402816e-03 -2.702498e-03 -4.650647e-03 -1.600353e-03 -3.641423e-03 -2.863416e-04 -2.389639e-03 1.177543e-03 -9.437741e-04 2.701592e-03 6.256927e-04 4.191678e-03 2.241445e-03 5.565832e-03 3.830250e-03 6.759571e-03 5.326370e-03 7.721829e-03 6.668481e-03 8.406450e-03 
3.884756e-03 4.617968e-03 4.298555e-03 4.326745e-03 4.599693e-03 3.880186e-03 4.758597e-03 3.275733e-03 4.738563e-03 2.513771e-03 4.501547e-03 1.604250e-03 4.017902e-03 5.730190e-04 3.278580e-03 -5.347149e-04 2.306193e-03 -1.655984e-03 1.159777e-03 -2.716939e-03 -7.075109e-05 -3.642839e-03 -1.279975e-03 -4.368196e-03 -2.366869e-03 -4.845554e-03 -3.253190e-03 -5.052620e-03 -3.895948e-03 -4.997046e-03 -4.291133e-03 -4.716437e-03 -4.467396e-03 -4.270468e-03 -4.471244e-03 -3.724589e-03 -4.348879e-03 -3.130375e-03 -4.131678e-03 -2.511761e-03 -3.830771e-03 -1.864017e-03 -3.441549e-03 -1.165710e-03 -2.954321e-03 -3.977957e-04 -2.365339e-03 4.389771e-04 -1.683592e-03 1.316325e-03 -9.316863e-04 2.183647e-03 -1.417204e-04 2.982536e-03 6.517967e-04 3.662125e-03 1.418754e-03 4.188422e-03 2.137250e-03 4.545784e-03 2.793527e-03 4.732574e-03 3.378832e-03 4.754427e-03 
6.565892e-03 7.180427e-03 7.415573e-03 7.241318e-03 7.944370e-03 6.935470e-03 8.088396e-03 6.237963e-03 7.802756e-03 5.155876e-03 7.075812e-03 3.740180e-03 5.941122e-03 2.089535e-03 4.481175e-03 3.407009e-04 2.818490e-03 -1.354752e-03 1.094572e-03 -2.860297e-03 -5.565246e-04 -4.079018e-03 -2.030222e-03 -4.964246e-03 -3.262493e-03 -5.516167e-03 -4.229840e-03 -5.770296e-03 -4.942151e-03 -5.783988e-03 -5.432322e-03 -5.623772e-03 -5.744511e-03 -5.353328e-03 -5.921728e-03 -5.021696e-03 -5.994345e-03 -4.653693e-03 -5.972524e-03 -4.246202e-03 -5.844957e-03 -3.772361e-03 -5.583966e-03 -3.192844e-03 -5.155116e-03 -2.471140e-03 -4.528666e-03 -1.588253e-03 -3.689897e-03 -5.518304e-04 -2.645505e-03 6.035510e-04 -1.424209e-03 1.824067e-03 -7.205281e-05 3.047485e-03 1.354618e-03 4.211959e-03 2.795052e-03 5.260099e-03 4.186916e-03 6.138654e-03 5.466207e-03 6.796018e-03 
2.904510e-03 3.328511e-03 3.402939e-03 3.161879e-03 3.800702e-03 2.868620e-03 4.066188e-03 2.446975e-03 4.165884e-03 1.900314e-03 4.069456e-03 1.240972e-03 3.756933e-03 4.933494e-04 3.226486e-03 -3.051668e-04 2.500289e-03 -1.106466e-03 1.625623e-03 -1.857046e-03 6.695787e-04 -2.505112e-03 -2.917190e-04 -3.007679e-03 -1.186159e-03 -3.336349e-03 -1.957227e-03 -3.481095e-03 -2.571345e-03 -3.451449e-03 -3.019506e-03 -3.274275e-03 -3.313066e-03 -2.987501e-03 -3.475139e-03 -2.630514e-03 -3.530466e-03 -2.234054e-03 -3.497217e-03 -1.813657e-03 -3.383303e-03 -1.369507e-03 -3.187721e-03 -8.926120e-04 -2.905352e-03 -3.744346e-04 -2.532605e-03 1.842685e-04 -2.071632e-03 7.691486e-04 -1.531948e-03 1.353989e-03 -9.295297e-04 1.906917e-03 -2.841762e-04 2.397575e-03 3.834714e-04 2.802106e-03 1.053960e-03 3.104711e-03 1.709436e-03 3.296367e-03 2.332560e-03 3.372135e-03 
5.588155e-03 5.919857e-03 6.519960e-03 6.107679e-03 7.166188e-03 5.978693e-03 7.463038e-03 5.508578e-03 7.366090e-03 4.702166e-03 6.861609e-03 3.601146e-03 5.975232e-03 2.285235e-03 4.773982e-03 8.638460e-04 3.358809e-03 -5.413453e-04 1.848263e-03 -1.818254e-03 3.578787e-04 -2.883335e-03 -1.018029e-03 -3.691742e-03 -2.216961e-03 -4.237195e-03 -3.209890e-03 -4.544054e-03 -3.995981e-03 -4.655594e-03 -4.593602e-03 -4.621847e-03 -5.030307e-03 -4.488919e-03 -5.333468e-03 -4.290839e-03 -5.522762e-03 -4.044791e-03 -5.605551e-03 -3.750426e-03 -5.575824e-03 -3.393188e-03 -5.416601e-03 -2.950735e-03 -5.105021e-03 -2.400946e-03 -4.618999e-03 -1.729672e-03 -3.943991e-03 -9.362664e-04 -3.078274e-03 -3.557100e-05 -2.035505e-03 9.436395e-04 -8.443221e-04 1.962237e-03 4.540143e-04 2.974420e-03 1.808402e-03 3.930214e-03 3.160007e-03 4.776662e-03 4.443504e-03 5.458530e-03 
1.997751e-03 2.162093e-03 2.607941e-03 2.123681e-03 3.133936e-03 1.985491e-03 3.539524e-03 1.743285e-03 3.789294e-03 1.399582e-03 3.853444e-03 9.660011e-04 3.713888e-03 4.645802e-04 3.370152e-03 -7.284798e-05 2.842871e-03 -6.076882e-04 2.172857e-03 -1.099680e-03 1.415169e-03 -1.512886e-03 6.296807e-04 -1.821039e-03 -1.288242e-04 -2.011033e-03 -8.182201e-04 -2.083921e-03 -1.412712e-03 -2.053337e-03 -1.902495e-03 -1.941677e-03 -2.290240e-03 -1.774722e-03 -2.585795e-03 -1.575899e-03 -2.800640e-03 -1.361660e-03 -2.943426e-03 -1.139297e-03 -3.017507e-03 -9.077332e-04 -3.020687e-03 -6.607846e-04 -2.946768e-03 -3.915904e-04 -2.788109e-03 -9.661553e-05 -2.538391e-03 2.220043e-04 -2.194948e-03 5.562270e-04 -1.760271e-03 8.935496e-04 -1.242435e-03 1.219142e-03 -6.546430e-04 1.517711e-03 -1.431677e-05 1.774592e-03 6.576917e-04 1.976065e-03 1.337438e-03 2.109260e-03 
4.823226e-03 4.932763e-03 5.909888e-03 5.290824e-03 6.737359e-03 5.363038e-03 7.231474e-03 5.115506e-03 7.336976e-03 4.543104e-03 7.029331e-03 3.677059e-03 6.324241e-03 2.586458e-03 5.280715e-03 1.370817e-03 3.994477e-03 1.437700e-04 2.581747e-03 -9.880746e-04 1.157752e-03 -1.944371e-03 -1.828540e-04 -2.682227e-03 -1.377457e-03 -3.196841e-03 -2.396786e-03 -3.513135e-03 -3.238274e-03 -3.672479e-03 -3.915786e-03 -3.719087e-03 -4.449635e-03 -3.689647e-03 -4.859073e-03 -3.607939e-03 -5.157690e-03 -3.484198e-03 -5.351100e-03 -3.317516e-03 -5.436198e-03 -3.099225e-03 -5.401600e-03 -2.815952e-03 -5.229369e-03 -2.452228e-03 -4.898318e-03 -1.993210e-03 -4.388791e-03 -1.427986e-03 -3.688093e-03 -7.532057e-04 -2.795217e-03 2.382312e-05 -1.723748e-03 8.834000e-04 -5.026494e-04 1.793264e-03 8.245191e-04 2.709663e-03 2.201181e-03 3.579233e-03 3.559616e-03 4.341557e-03 
1.141090e-03 1.086954e-03 1.897107e-03 1.185306e-03 2.587545e-03 1.206429e-03 3.168654e-03 1.141145e-03 3.598315e-03 9.887741e-04 3.841143e-03 7.589017e-04 3.875036e-03 4.718273e-04 3.697381e-03 1.568726e-04 3.328196e-03 -1.517783e-04 2.807772e-03 -4.211193e-04 2.188558e-03 -6.257165e-04 1.524096e-03 -7.525451e-04 8.594001e-04 -8.027975e-04 2.258812e-04 -7.901789e-04 -3.587923e-04 -7.362601e-04 -8.875283e-04 -6.643365e-04 -1.359609e-03 -5.937804e-04 -1.777169e-03 -5.366760e-04 -2.142880e-03 -4.973731e-04 -2.458346e-03 -4.741284e-04 -2.722619e-03 -4.613355e-04 -2.930759e-03 -4.511969e-04 -3.072929e-03 -4.345247e-04 -3.134679e-03 -4.011474e-04 -3.098875e-03 -3.407519e-04 -2.949181e-03 -2.446483e-04 -2.674161e-03 -1.081027e-04 -2.270639e-03 6.771851e-05 -1.745279e-03 2.749992e-04 -1.114268e-03 4.998818e-04 -4.017933e-04 7.240521e-04 3.617369e-04 9.267662e-04 
4.235204e-03 4.178768e-03 5.558963e-03 4.759769e-03 6.641848e-03 5.067099e-03 7.388501e-03 5.047304e-03 7.721012e-03 4.677714e-03 7.594519e-03 3.977580e-03 7.011712e-03 3.012773e-03 6.030169e-03 1.889218e-03 4.756617e-03 7.336759e-04 3.326451e-03 -3.334787e-04 1.874184e-03 -1.223893e-03 5.062755e-04 -1.895996e-03 -7.132512e-04 -2.354835e-03 -1.761526e-03 -2.639179e-03 -2.644533e-03 -2.802101e-03 -3.381623e-03 -2.892370e-03 -3.993367e-03 -2.942637e-03 -4.495500e-03 -2.967066e-03 -4.897829e-03 -2.966540e-03 -5.204970e-03 -2.936211e-03 -5.416278e-03 -2.870236e-03 -5.524237e-03 -2.761611e-03 -5.512539e-03 -2.598796e-03 -5.356115e-03 -2.362949e-03 -5.024762e-03 -2.029257e-03 -4.490086e-03 -1.573089e-03 -3.733520e-03 -9.785444e-04 -2.752802e-03 -2.457303e-04 -1.565385e-03 6.055596e-04 -2.088658e-04 1.535922e-03 1.260564e-03 2.489022e-03 2.770521e-03 3.395659e-03 
3.077478e-04 7.368460e-05 1.251829e-03 3.242101e-04 2.150464e-03 5.138412e-04 2.949227e-03 6.261677e-04 3.594182e-03 6.555357e-04 4.037808e-03 6.090511e-04 4.247767e-03 5.069719e-04 4.216167e-03 3.802785e-04 3.964771e-03 2.647959e-04 3.541473e-03 1.926744e-04 3.007187e-03 1.836755e-04 2.418737e-03 2.393840e-04 1.816444e-03 3.425979e-04 1.221140e-03 4.623050e-04 6.391961e-04 5.628584e-04 7.078833e-05 6.144154e-04 -4.834964e-04 6.006488e-04 -1.020394e-03 5.203747e-04 -1.535367e-03 3.829889e-04 -2.024464e-03 2.015028e-04 -2.483868e-03 -1.227728e-05 -2.906804e-03 -2.481397e-04 -3.279515e-03 -4.941640e-04 -3.578802e-03 -7.327019e-04 -3.773248e-03 -9.392265e-04 -3.828733e-03 -1.085980e-03 -3.716538e-03 -1.149048e-03 -3.420661e-03 -1.115181e-03 -2.941548e-03 -9.853266e-04 -2.295667e-03 -7.741205e-04 -1.512327e-03 -5.064993e-04 -6.297924e-04 -2.131827e-04 
3.788052e-03 3.626797e-03 5.448841e-03 4.502299e-03 6.882499e-03 5.098216e-03 7.959623e-03 5.328872e-03 8.564041e-03 5.142895e-03 8.616043e-03 4.542841e-03 8.097955e-03 3.597909e-03 7.071650e-03 2.439647e-03 5.675346e-03 1.235181e-03 4.093195e-03 1.443245e-04 2.506186e-03 -7.217898e-04 1.046972e-03 -1.323081e-03 -2.203159e-04 -1.687356e-03 -1.291526e-03 -1.886660e-03 -2.196689e-03 -2.004384e-03 -2.972789e-03 -2.105658e-03 -3.646704e-03 -2.221465e-03 -4.231734e-03 -2.351148e-03 -4.733168e-03 -2.478681e-03 -5.154684e-03 -2.590546e-03 -5.499716e-03 -2.683887e-03 -5.766537e-03 -2.761453e-03 -5.940439e-03 -2.818387e-03 -5.988841e-03 -2.830530e-03 -5.864056e-03 -2.753003e-03 -5.513964e-03 -2.531350e-03 -4.895970e-03 -2.119187e-03 -3.988544e-03 -1.493345e-03 -2.797215e-03 -6.612321e-04 -1.355162e-03 3.394170e-04 2.794048e-04 1.445231e-03 2.026667e-03 2.573226e-03 
-5.321452e-04 -9.032075e-04 6.519770e-04 -4.759277e-04 1.813239e-03 -1.013487e-04 2.883613e-03 1.942627e-04 3.791417e-03 3.982634e-04 4.468207e-03 5.148796e-04 4.862131e-03 5.667648e-04 4.954801e-03 5.924595e-04 4.773260e-03 6.379685e-04 4.386140e-03 7.433080e-04 3.879948e-03 9.283461e-04 3.327196e-03 1.183825e-03 2.766494e-03 1.471542e-03 2.203047e-03 1.733999e-03 1.623666e-03 1.911034e-03 1.015000e-03 1.958546e-03 3.752415e-04 1.861629e-03 -2.855357e-04 1.634567e-03 -9.537315e-04 1.307469e-03 -1.620280e-03 9.094368e-04 -2.281589e-03 4.588672e-04 -2.933079e-03 -3.491899e-05 -3.559527e-03 -5.612907e-04 -4.127764e-03 -1.096275e-03 -4.586576e-03 -1.597484e-03 -4.875953e-03 -2.011018e-03 -4.942578e-03 -2.286951e-03 -4.753891e-03 -2.394090e-03 -4.304550e-03 -2.327024e-03 -3.614494e-03 -2.104550e-03 -2.722035e-03 -1.762748e-03 -1.676322e-03 -1.346668e-03 
3.441415e-03 3.252755e-03 5.565737e-03 4.524256e-03 7.479555e-03 5.494449e-03 9.003347e-03 6.026994e-03 9.959445e-03 6.022177e-03 1.020769e-02 5.453091e-03 9.692485e-03 4.396502e-03 8.483167e-03 3.036343e-03 6.779881e-03 1.623047e-03 4.864689e-03 3.972910e-04 3.010273e-03 -4.846092e-04 1.395669e-03 -9.872461e-04 7.653538e-05 -1.184876e-03 -9.875339e-04 -1.215728e-03 -1.877857e-03 -1.223123e-03 -2.666108e-03 -1.304422e-03 -3.388919e-03 -1.486428e-03 -4.051578e-03 -1.737387e-03 -4.648444e-03 -2.006485e-03 -5.180900e-03 -2.263399e-03 -5.661375e-03 -2.513302e-03 -6.101763e-03 -2.781915e-03 -6.493844e-03 -3.082763e-03 -6.794756e-03 -3.387778e-03 -6.928656e-03 -3.620881e-03 -6.805739e-03 -3.680131e-03 -6.347839e-03 -3.473519e-03 -5.508173e-03 -2.947243e-03 -4.279747e-03 -2.096577e-03 -2.693958e-03 -9.622848e-04 -8.144577e-04 3.791968e-04 1.268650e-03 1.825119e-03 
-1.411987e-03 -1.863885e-03 7.496273e-05 -1.223286e-03 1.566881e-03 -6.374344e-04 2.980585e-03 -1.458427e-04 4.219745e-03 2.285812e-04 5.181612e-03 4.856021e-04 5.777902e-03 6.528199e-04 5.967740e-03 7.848038e-04 5.787335e-03 9.512393e-04 5.349817e-03 1.214180e-03 4.799192e-03 1.602557e-03 4.243552e-03 2.096057e-03 3.719273e-03 2.625814e-03 3.200907e-03 3.091198e-03 2.637458e-03 3.388813e-03 1.990344e-03 3.447175e-03 1.255027e-03 3.252809e-03 4.567540e-04 2.848831e-03 -3.737418e-04 2.302900e-03 -1.221340e-03 1.669913e-03 -2.089137e-03 9.732280e-04 -2.984399e-03 2.108865e-04 -3.897749e-03 -6.198063e-04 -4.786145e-03 -1.493631e-03 -5.569330e-03 -2.343432e-03 -6.145908e-03 -3.073683e-03 -6.423898e-03 -3.593680e-03 -6.347730e-03 -3.847239e-03 -5.908211e-03 -3.824163e-03 -5.135666e-03 -3.554334e-03 -4.084951e-03 -3.093286e-03 -2.821293e-03 -2.507531e-03 
3.143104e-03 3.034625e-03 5.892943e-03 4.847226e-03 8.466396e-03 6.328034e-03 1.061455e-02 7.262288e-03 1.206260e-02 7.465737e-03 1.256285e-02 6.851046e-03 1.198128e-02 5.498915e-03 1.038874e-02 3.686290e-03 8.096237e-03 1.823287e-03 5.575179e-03 3.062115e-04 3.274324e-03 -6.268506e-04 1.448794e-03 -9.564816e-04 1.183609e-04 -8.491649e-04 -8.571693e-04 -5.682276e-04 -1.660979e-03 -3.679545e-04 -2.424804e-03 -4.025033e-04 -3.191285e-03 -6.824697e-04 -3.937250e-03 -1.105503e-03 -4.628172e-03 -1.546475e-03 -5.259125e-03 -1.943246e-03 -5.863134e-03 -2.323989e-03 -6.485296e-03 -2.770125e-03 -7.138416e-03 -3.342962e-03 -7.767678e-03 -4.016938e-03 -8.250075e-03 -4.662626e-03 -8.432494e-03 -5.094798e-03 -8.181459e-03 -5.147536e-03 -7.416531e-03 -4.725549e-03 -6.119599e-03 -3.815563e-03 -4.326430e-03 -2.471209e-03 -2.111920e-03 -7.913518e-04 4.209321e-04 1.095157e-03 
-2.369465e-03 -2.821495e-03 -5.070528e-04 -1.915809e-03 1.398696e-03 -1.079065e-03 3.252113e-03 -3.684612e-04 4.925509e-03 1.766924e-04 6.260880e-03 5.464632e-04 7.100450e-03 7.742651e-04 7.351120e-03 9.426583e-04 7.058507e-03 1.167874e-03 6.426444e-03 1.559507e-03 5.723278e-03 2.171624e-03 5.128438e-03 2.972093e-03 4.666113e-03 3.844567e-03 4.243887e-03 4.616283e-03 3.734989e-03 5.105947e-03 3.053969e-03 5.188617e-03 2.197819e-03 4.853668e-03 1.231289e-03 4.205087e-03 2.233500e-04 3.385404e-03 -8.022099e-04 2.494086e-03 -1.869230e-03 1.553239e-03 -3.017632e-03 5.250388e-04 -4.260917e-03 -6.351927e-04 -5.549723e-03 -1.915021e-03 -6.758676e-03 -3.208952e-03 -7.714429e-03 -4.346645e-03 -8.259334e-03 -5.166902e-03 -8.304844e-03 -5.577082e-03 -7.844802e-03 -5.568104e-03 -6.934907e-03 -5.195377e-03 -5.660724e-03 -4.548562e-03 -4.111859e-03 -3.726301e-03 
2.816965e-03 2.943011e-03 6.396219e-03 5.501462e-03 9.878084e-03 7.707566e-03 1.292539e-02 9.227920e-03 1.511328e-02 9.727370e-03 1.599991e-02 8.986828e-03 1.528136e-02 7.062345e-03 1.299449e-02 4.386814e-03 9.640940e-03 1.677357e-03 6.064957e-03 -3.692900e-04 3.062604e-03 -1.372769e-03 1.006699e-03 -1.362661e-03 -1.945321e-04 -6.869409e-04 -8.982128e-04 1.600480e-04 -1.483821e-03 7.220502e-04 -2.180724e-03 7.447680e-04 -3.014192e-03 2.644760e-04 -3.878060e-03 -4.557262e-04 -4.667959e-03 -1.130666e-03 -5.364344e-03 -1.639094e-03 -6.046752e-03 -2.069248e-03 -6.837858e-03 -2.631603e-03 -7.806819e-03 -3.501998e-03 -8.887443e-03 -4.674389e-03 -9.871468e-03 -5.917923e-03 -1.049270e-02 -6.888956e-03 -1.052896e-02 -7.296329e-03 -9.856843e-03 -6.991881e-03 -8.455613e-03 -5.968924e-03 -6.380164e-03 -4.315654e-03 -3.727682e-03 -2.168626e-03 -6.161438e-04 3.120480e-04 
-3.446925e-03 -3.780011e-03 -1.132450e-03 -2.539331e-03 1.282747e-03 -1.394299e-03 3.703643e-03 -4.250905e-04 5.969543e-03 3.009592e-04 7.836554e-03 7.500267e-04 9.012642e-03 9.554795e-04 9.278219e-03 1.043621e-03 8.669036e-03 1.217842e-03 7.573787e-03 1.684173e-03 6.538678e-03 2.552323e-03 5.880611e-03 3.776236e-03 5.572807e-03 5.164239e-03 5.373612e-03 6.423559e-03 5.004791e-03 7.230179e-03 4.292877e-03 7.347765e-03 3.251084e-03 6.768239e-03 2.047259e-03 5.732505e-03 8.380567e-04 4.539563e-03 -3.416411e-04 3.367781e-03 -1.567961e-03 2.220591e-03 -2.955983e-03 9.712109e-04 -4.578531e-03 -5.309911e-04 -6.393116e-03 -2.322326e-03 -8.201199e-03 -4.230756e-03 -9.693780e-03 -5.937117e-03 -1.059410e-02 -7.150297e-03 -1.076739e-02 -7.726175e-03 -1.023108e-02 -7.675875e-03 -9.098258e-03 -7.110571e-03 -7.511025e-03 -6.179342e-03 -5.595845e-03 -5.027669e-03 
2.344485e-03 2.923402e-03 6.996389e-03 6.507126e-03 1.172349e-02 9.771595e-03 1.609464e-02 1.221329e-02 1.946450e-02 1.322862e-02 2.104222e-02 1.230730e-02 2.015055e-02 9.377989e-03 1.666743e-02 5.121613e-03 1.140753e-02 8.678857e-04 5.979873e-03 -2.088876e-03 1.903538e-03 -3.132589e-03 -2.901011e-04 -2.434155e-03 -1.004360e-03 -6.955019e-04 -1.056551e-03 1.173613e-03 -1.194790e-03 2.351346e-03 -1.799859e-03 2.394855e-03 -2.806810e-03 1.451125e-03 -3.893084e-03 1.486885e-04 -4.801454e-03 -8.813599e-04 -5.483623e-03 -1.413153e-03 -6.121671e-03 -1.682237e-03 -7.012511e-03 -2.184975e-03 -8.363467e-03 -3.358985e-03 -1.010372e-02 -5.260694e-03 -1.185562e-02 -7.445811e-03 -1.313792e-02 -9.246921e-03 -1.358482e-02 -1.015706e-02 -1.302620e-02 -9.976771e-03 -1.146571e-02 -8.752583e-03 -9.010782e-03 -6.653830e-03 -5.802393e-03 -3.879579e-03 -1.974787e-03 -6.215531e-04 
-4.689827e-03 -4.731683e-03 -1.858611e-03 -3.067266e-03 1.160900e-03 -1.533463e-03 4.310016e-03 -2.376826e-04 7.412836e-03 7.037983e-04 1.010447e-02 1.198931e-03 1.183721e-02 1.254900e-03 1.208117e-02 1.058364e-03 1.076528e-02 9.752402e-04 8.660038e-03 1.406751e-03 6.976338e-03 2.577267e-03 6.282203e-03 4.416475e-03 6.370813e-03 6.612786e-03 6.673082e-03 8.683615e-03 6.617993e-03 1.004343e-02 5.861986e-03 1.020405e-02 4.466533e-03 9.139126e-03 2.868630e-03 7.417240e-03 1.423246e-03 5.672609e-03 1.655189e-04 4.216880e-03 -1.105031e-03 2.990116e-03 -2.659801e-03 1.670182e-03 -4.704006e-03 -1.376876e-04 -7.242879e-03 -2.612586e-03 -9.959181e-03 -5.454733e-03 -1.226539e-02 -8.020924e-03 -1.365582e-02 -9.771181e-03 -1.393932e-02 -1.050162e-02 -1.321360e-02 -1.029877e-02 -1.171574e-02 -9.391779e-03 -9.689020e-03 -8.030649e-03 -7.313368e-03 -6.425133e-03 