# vtk DataFile Version 2.0
Comment goes here
ASCII

DATASET STRUCTURED_POINTS
DIMENSIONS    64   64   1

ORIGIN    0.000   0.000   0.000
SPACING   0.0156250.015625   1.000

POINT_DATA   4096
SCALARS uY double
LOOKUP_TABLE default

-4.948423e-02 -4.519875e-02 -4.126252e-02 -3.880056e-02 -3.705120e-02 -3.629319e-02 -3.657532e-02 -3.728497e-02 -3.918543e-02 -4.080430e-02 -4.346064e-02 -4.518442e-02 -4.757867e-02 -4.911467e-02 -5.089613e-02 -5.332303e-02 -5.523491e-02 -6.057745e-02 -6.346084e-02 -7.142766e-02 -7.531637e-02 -8.416671e-02 -8.972824e-02 -9.981280e-02 -1.089228e-01 -1.219826e-01 -1.358506e-01 -1.521726e-01 -1.695288e-01 -1.866604e-01 -2.040738e-01 -2.183729e-01 -2.325733e-01 -2.417324e-01 -2.513781e-01 -2.553360e-01 -2.610453e-01 -2.613807e-01 -2.649046e-01 -2.638336e-01 -2.668394e-01 -2.658609e-01 -2.685565e-01 -2.673044e-01 -2.679878e-01 -2.645417e-01 -2.609069e-01 -2.535728e-01 -2.446000e-01 -2.332704e-01 -2.197610e-01 -2.056878e-01 -1.894871e-01 -1.744190e-01 -1.575849e-01 -1.431274e-01 -1.273428e-01 -1.145654e-01 -1.008492e-01 -9.023455e-02 -7.901221e-02 -7.063984e-02 -6.196619e-02 -5.571993e-02 
-5.869607e-02 -5.453068e-02 -5.057520e-02 -4.809417e-02 -4.610085e-02 -4.517805e-02 -4.494031e-02 -4.534301e-02 -4.643577e-02 -4.772181e-02 -4.943671e-02 -5.105984e-02 -5.269414e-02 -5.450689e-02 -5.597096e-02 -5.872100e-02 -6.076123e-02 -6.573773e-02 -6.908713e-02 -7.630658e-02 -8.107628e-02 -8.961342e-02 -9.610576e-02 -1.060423e-01 -1.152760e-01 -1.274040e-01 -1.399639e-01 -1.541549e-01 -1.690297e-01 -1.834739e-01 -1.982556e-01 -2.104152e-01 -2.227728e-01 -2.309767e-01 -2.398692e-01 -2.439849e-01 -2.497581e-01 -2.508296e-01 -2.546118e-01 -2.541178e-01 -2.569412e-01 -2.558624e-01 -2.577780e-01 -2.558927e-01 -2.557393e-01 -2.518534e-01 -2.481092e-01 -2.411714e-01 -2.331659e-01 -2.231461e-01 -2.114617e-01 -1.992646e-01 -1.852814e-01 -1.722022e-01 -1.575150e-01 -1.447931e-01 -1.307728e-01 -1.193045e-01 -1.068637e-01 -9.713065e-02 -8.673172e-02 -7.889698e-02 -7.068868e-02 -6.473405e-02 
-6.547594e-02 -6.129110e-02 -5.728455e-02 -5.465800e-02 -5.245300e-02 -5.126643e-02 -5.068771e-02 -5.074142e-02 -5.146326e-02 -5.244092e-02 -5.397245e-02 -5.555167e-02 -5.742207e-02 -5.959270e-02 -6.167098e-02 -6.495007e-02 -6.752787e-02 -7.259619e-02 -7.604309e-02 -8.283874e-02 -8.739349e-02 -9.542007e-02 -1.015596e-01 -1.108737e-01 -1.193373e-01 -1.303249e-01 -1.413921e-01 -1.537974e-01 -1.666420e-01 -1.791231e-01 -1.919937e-01 -2.027250e-01 -2.138839e-01 -2.215813e-01 -2.301142e-01 -2.345351e-01 -2.404885e-01 -2.422575e-01 -2.462704e-01 -2.463604e-01 -2.490491e-01 -2.481179e-01 -2.494754e-01 -2.473979e-01 -2.466555e-01 -2.426803e-01 -2.388596e-01 -2.323268e-01 -2.250208e-01 -2.159529e-01 -2.056180e-01 -1.947083e-01 -1.823966e-01 -1.706614e-01 -1.576245e-01 -1.460743e-01 -1.334401e-01 -1.228541e-01 -1.114354e-01 -1.022837e-01 -9.255123e-02 -8.504249e-02 -7.720310e-02 -7.137838e-02 
-7.268084e-02 -6.865615e-02 -6.465595e-02 -6.206252e-02 -5.967330e-02 -5.841079e-02 -5.746005e-02 -5.735963e-02 -5.755662e-02 -5.837634e-02 -5.933746e-02 -6.085528e-02 -6.226584e-02 -6.448619e-02 -6.632730e-02 -6.960073e-02 -7.217705e-02 -7.696267e-02 -8.061269e-02 -8.694933e-02 -9.186678e-02 -9.948232e-02 -1.059094e-01 -1.147454e-01 -1.230291e-01 -1.331373e-01 -1.433051e-01 -1.543077e-01 -1.656692e-01 -1.765177e-01 -1.877877e-01 -1.971511e-01 -2.070536e-01 -2.139747e-01 -2.217905e-01 -2.260328e-01 -2.317128e-01 -2.336576e-01 -2.375667e-01 -2.378481e-01 -2.403356e-01 -2.393895e-01 -2.403991e-01 -2.381654e-01 -2.371643e-01 -2.331953e-01 -2.295395e-01 -2.234541e-01 -2.168965e-01 -2.087637e-01 -1.996671e-01 -1.900224e-01 -1.792043e-01 -1.688324e-01 -1.572908e-01 -1.469960e-01 -1.356651e-01 -1.261031e-01 -1.156984e-01 -1.073043e-01 -9.828205e-02 -9.128748e-02 -8.388547e-02 -7.837652e-02 
-7.793938e-02 -7.393754e-02 -6.995633e-02 -6.728383e-02 -6.479705e-02 -6.337762e-02 -6.225666e-02 -6.196301e-02 -6.199269e-02 -6.265926e-02 -6.356392e-02 -6.505965e-02 -6.660340e-02 -6.895372e-02 -7.106548e-02 -7.449070e-02 -7.728384e-02 -8.202290e-02 -8.568255e-02 -9.172299e-02 -9.643999e-02 -1.036071e-01 -1.096379e-01 -1.178575e-01 -1.254525e-01 -1.346643e-01 -1.437788e-01 -1.536113e-01 -1.636805e-01 -1.733176e-01 -1.833622e-01 -1.917999e-01 -2.008263e-01 -2.073043e-01 -2.146780e-01 -2.189319e-01 -2.244826e-01 -2.266999e-01 -2.305697e-01 -2.311440e-01 -2.334980e-01 -2.327145e-01 -2.334789e-01 -2.313128e-01 -2.301288e-01 -2.263142e-01 -2.227758e-01 -2.171001e-01 -2.110845e-01 -2.036474e-01 -1.954653e-01 -1.867066e-01 -1.770124e-01 -1.675727e-01 -1.571758e-01 -1.477289e-01 -1.374128e-01 -1.285319e-01 -1.189290e-01 -1.110221e-01 -1.025677e-01 -9.587713e-02 -8.882680e-02 -8.346668e-02 
-8.349063e-02 -7.965976e-02 -7.569969e-02 -7.309370e-02 -7.047964e-02 -6.904349e-02 -6.766633e-02 -6.730111e-02 -6.698474e-02 -6.756609e-02 -6.810356e-02 -6.953788e-02 -7.077496e-02 -7.307895e-02 -7.500137e-02 -7.832201e-02 -8.105546e-02 -8.555677e-02 -8.926495e-02 -9.495767e-02 -9.977120e-02 -1.065329e-01 -1.125688e-01 -1.202754e-01 -1.276029e-01 -1.360843e-01 -1.445588e-01 -1.534252e-01 -1.625572e-01 -1.711395e-01 -1.801704e-01 -1.876959e-01 -1.958627e-01 -2.017379e-01 -2.085250e-01 -2.125083e-01 -2.177251e-01 -2.199011e-01 -2.235791e-01 -2.241905e-01 -2.263865e-01 -2.256211e-01 -2.262465e-01 -2.241054e-01 -2.229043e-01 -2.192474e-01 -2.159554e-01 -2.106892e-01 -2.052532e-01 -1.984998e-01 -1.911850e-01 -1.833082e-01 -1.746459e-01 -1.661637e-01 -1.568190e-01 -1.482848e-01 -1.389195e-01 -1.308227e-01 -1.219940e-01 -1.147041e-01 -1.068192e-01 -1.005769e-01 -9.389509e-02 -8.883259e-02 
-8.750178e-02 -8.371172e-02 -7.980755e-02 -7.716472e-02 -7.452364e-02 -7.299681e-02 -7.154640e-02 -7.106907e-02 -7.068190e-02 -7.117189e-02 -7.169350e-02 -7.309301e-02 -7.439524e-02 -7.671600e-02 -7.874996e-02 -8.207281e-02 -8.487711e-02 -8.927501e-02 -9.293661e-02 -9.838331e-02 -1.030036e-01 -1.093894e-01 -1.150698e-01 -1.222637e-01 -1.290420e-01 -1.368547e-01 -1.445847e-01 -1.526630e-01 -1.609372e-01 -1.687370e-01 -1.769497e-01 -1.838570e-01 -1.913859e-01 -1.969094e-01 -2.032928e-01 -2.071891e-01 -2.121922e-01 -2.144599e-01 -2.180173e-01 -2.187857e-01 -2.208741e-01 -2.202578e-01 -2.207829e-01 -2.187912e-01 -2.175737e-01 -2.141384e-01 -2.110180e-01 -2.061156e-01 -2.010954e-01 -1.948611e-01 -1.881815e-01 -1.809322e-01 -1.730392e-01 -1.652153e-01 -1.566679e-01 -1.487463e-01 -1.401128e-01 -1.325275e-01 -1.243041e-01 -1.173987e-01 -1.099669e-01 -1.039800e-01 -9.760017e-02 -9.267654e-02 
-9.168889e-02 -8.805834e-02 -8.417414e-02 -8.160999e-02 -7.887933e-02 -7.736725e-02 -7.573845e-02 -7.523185e-02 -7.460899e-02 -7.504753e-02 -7.531953e-02 -7.665967e-02 -7.774384e-02 -7.998905e-02 -8.186768e-02 -8.506674e-02 -8.778543e-02 -9.198119e-02 -9.560894e-02 -1.007747e-01 -1.053667e-01 -1.114003e-01 -1.169789e-01 -1.237290e-01 -1.302471e-01 -1.374933e-01 -1.447654e-01 -1.521666e-01 -1.598284e-01 -1.669203e-01 -1.744762e-01 -1.807595e-01 -1.877063e-01 -1.927773e-01 -1.987253e-01 -2.023627e-01 -2.070831e-01 -2.092455e-01 -2.126339e-01 -2.133854e-01 -2.153764e-01 -2.147882e-01 -2.152838e-01 -2.133741e-01 -2.122384e-01 -2.089897e-01 -2.061205e-01 -2.015583e-01 -1.969853e-01 -1.912522e-01 -1.851889e-01 -1.785617e-01 -1.713860e-01 -1.642372e-01 -1.564242e-01 -1.491596e-01 -1.412016e-01 -1.341999e-01 -1.265404e-01 -1.201136e-01 -1.131075e-01 -1.074850e-01 -1.013869e-01 -9.671892e-02 
-9.466142e-02 -9.106925e-02 -8.724946e-02 -8.466702e-02 -8.194350e-02 -8.037498e-02 -7.872179e-02 -7.814250e-02 -7.749297e-02 -7.786524e-02 -7.813393e-02 -7.942832e-02 -8.054068e-02 -8.275292e-02 -8.467044e-02 -8.781558e-02 -9.054048e-02 -9.461882e-02 -9.817782e-02 -1.031383e-01 -1.075606e-01 -1.132964e-01 -1.185898e-01 -1.249485e-01 -1.310574e-01 -1.378248e-01 -1.445779e-01 -1.514476e-01 -1.585333e-01 -1.651116e-01 -1.721154e-01 -1.779850e-01 -1.844781e-01 -1.892903e-01 -1.949173e-01 -1.984563e-01 -2.029760e-01 -2.051634e-01 -2.084314e-01 -2.092781e-01 -2.111948e-01 -2.107352e-01 -2.112001e-01 -2.094504e-01 -2.083603e-01 -2.053289e-01 -2.026261e-01 -1.983648e-01 -1.941021e-01 -1.887558e-01 -1.831323e-01 -1.769516e-01 -1.702987e-01 -1.636127e-01 -1.563447e-01 -1.495135e-01 -1.420659e-01 -1.354330e-01 -1.282080e-01 -1.220653e-01 -1.153966e-01 -1.099686e-01 -1.041065e-01 -9.954897e-02 
-9.770464e-02 -9.424520e-02 -9.042901e-02 -8.792063e-02 -8.512466e-02 -8.358275e-02 -8.179779e-02 -8.120997e-02 -8.039182e-02 -8.073176e-02 -8.082207e-02 -8.206600e-02 -8.301637e-02 -8.515486e-02 -8.694412e-02 -8.997761e-02 -9.261099e-02 -9.652568e-02 -1.000166e-01 -1.047565e-01 -1.091043e-01 -1.145611e-01 -1.197302e-01 -1.257444e-01 -1.316390e-01 -1.379916e-01 -1.444257e-01 -1.508271e-01 -1.575146e-01 -1.636166e-01 -1.702011e-01 -1.756466e-01 -1.817631e-01 -1.862512e-01 -1.915879e-01 -1.949198e-01 -1.992479e-01 -2.013320e-01 -2.044958e-01 -2.053157e-01 -2.071999e-01 -2.067701e-01 -2.072721e-01 -2.056108e-01 -2.046431e-01 -2.017777e-01 -1.993030e-01 -1.953036e-01 -1.913810e-01 -1.863923e-01 -1.812022e-01 -1.754517e-01 -1.692864e-01 -1.630649e-01 -1.562900e-01 -1.499160e-01 -1.429217e-01 -1.367035e-01 -1.298582e-01 -1.240654e-01 -1.176838e-01 -1.125310e-01 -1.068571e-01 -1.025004e-01 
-9.978852e-02 -9.634964e-02 -9.258566e-02 -9.005913e-02 -8.727885e-02 -8.569303e-02 -8.390349e-02 -8.325984e-02 -8.243349e-02 -8.271788e-02 -8.280879e-02 -8.400312e-02 -8.496480e-02 -8.705378e-02 -8.885262e-02 -9.181910e-02 -9.443712e-02 -9.824587e-02 -1.016724e-01 -1.062527e-01 -1.104695e-01 -1.157077e-01 -1.206698e-01 -1.264077e-01 -1.320185e-01 -1.380476e-01 -1.441353e-01 -1.501911e-01 -1.565028e-01 -1.622777e-01 -1.685017e-01 -1.736827e-01 -1.794952e-01 -1.838117e-01 -1.889230e-01 -1.921827e-01 -1.963629e-01 -1.984587e-01 -2.015368e-01 -2.024273e-01 -2.042729e-01 -2.039535e-01 -2.044616e-01 -2.029454e-01 -2.020407e-01 -1.993618e-01 -1.970242e-01 -1.932597e-01 -1.895560e-01 -1.848474e-01 -1.799484e-01 -1.745069e-01 -1.686790e-01 -1.627703e-01 -1.563456e-01 -1.502616e-01 -1.435975e-01 -1.376251e-01 -1.310650e-01 -1.254610e-01 -1.193051e-01 -1.142803e-01 -1.087684e-01 -1.044820e-01 
-1.018438e-01 -9.850150e-02 -9.471262e-02 -9.224434e-02 -8.939214e-02 -8.783259e-02 -8.593556e-02 -8.529283e-02 -8.433788e-02 -8.460331e-02 -8.456073e-02 -8.571833e-02 -8.655647e-02 -8.858799e-02 -9.028270e-02 -9.316403e-02 -9.569834e-02 -9.938727e-02 -1.027418e-01 -1.071637e-01 -1.113027e-01 -1.163421e-01 -1.211977e-01 -1.266951e-01 -1.321520e-01 -1.379012e-01 -1.437833e-01 -1.495335e-01 -1.556034e-01 -1.610734e-01 -1.670514e-01 -1.719602e-01 -1.775580e-01 -1.816616e-01 -1.866157e-01 -1.897336e-01 -1.938248e-01 -1.958466e-01 -1.989013e-01 -1.997745e-01 -2.016547e-01 -2.013652e-01 -2.019613e-01 -2.005208e-01 -1.997585e-01 -1.972066e-01 -1.950678e-01 -1.914867e-01 -1.880342e-01 -1.835625e-01 -1.789534e-01 -1.737889e-01 -1.682674e-01 -1.626548e-01 -1.565276e-01 -1.507356e-01 -1.443364e-01 -1.386322e-01 -1.322870e-01 -1.269135e-01 -1.209124e-01 -1.160734e-01 -1.106532e-01 -1.065067e-01 
-1.031388e-01 -9.978833e-02 -9.602588e-02 -9.352672e-02 -9.068257e-02 -8.907787e-02 -8.717950e-02 -8.648563e-02 -8.552846e-02 -8.574327e-02 -8.570312e-02 -8.681295e-02 -8.765779e-02 -8.964072e-02 -9.133883e-02 -9.416162e-02 -9.668324e-02 -1.002927e-01 -1.036049e-01 -1.079182e-01 -1.119745e-01 -1.168731e-01 -1.216005e-01 -1.269265e-01 -1.322109e-01 -1.377664e-01 -1.434420e-01 -1.489918e-01 -1.548408e-01 -1.601261e-01 -1.658941e-01 -1.706571e-01 -1.760786e-01 -1.800916e-01 -1.849168e-01 -1.880041e-01 -1.920160e-01 -1.940611e-01 -1.970798e-01 -1.980186e-01 -1.998980e-01 -1.997058e-01 -2.003326e-01 -1.990155e-01 -1.983167e-01 -1.959132e-01 -1.938744e-01 -1.904652e-01 -1.871497e-01 -1.828679e-01 -1.784265e-01 -1.734588e-01 -1.681232e-01 -1.627000e-01 -1.567610e-01 -1.511371e-01 -1.449130e-01 -1.393445e-01 -1.331494e-01 -1.278733e-01 -1.219903e-01 -1.172095e-01 -1.118736e-01 -1.077491e-01 
-1.043049e-01 -1.010097e-01 -9.718539e-02 -9.472246e-02 -9.179547e-02 -9.021013e-02 -8.821412e-02 -8.752516e-02 -8.646322e-02 -8.667027e-02 -8.652662e-02 -8.761633e-02 -8.836658e-02 -9.031527e-02 -9.193242e-02 -9.470365e-02 -9.715813e-02 -1.006956e-01 -1.039495e-01 -1.081687e-01 -1.121664e-01 -1.169479e-01 -1.216055e-01 -1.267921e-01 -1.319875e-01 -1.373845e-01 -1.429519e-01 -1.483325e-01 -1.540644e-01 -1.591836e-01 -1.648434e-01 -1.694599e-01 -1.748022e-01 -1.787018e-01 -1.834922e-01 -1.865063e-01 -1.905342e-01 -1.925460e-01 -1.956297e-01 -1.965702e-01 -1.985560e-01 -1.983950e-01 -1.991598e-01 -1.979003e-01 -1.973617e-01 -1.950413e-01 -1.931756e-01 -1.898743e-01 -1.867350e-01 -1.825826e-01 -1.783100e-01 -1.734868e-01 -1.683025e-01 -1.630299e-01 -1.572163e-01 -1.517394e-01 -1.456092e-01 -1.401762e-01 -1.340409e-01 -1.288829e-01 -1.230256e-01 -1.183424e-01 -1.129997e-01 -1.089514e-01 
-1.048675e-01 -1.015279e-01 -9.769643e-02 -9.518150e-02 -9.224597e-02 -9.060598e-02 -8.860333e-02 -8.786141e-02 -8.679771e-02 -8.695665e-02 -8.681757e-02 -8.786493e-02 -8.862473e-02 -9.053487e-02 -9.216201e-02 -9.489416e-02 -9.735226e-02 -1.008451e-01 -1.040891e-01 -1.082542e-01 -1.122229e-01 -1.169395e-01 -1.215463e-01 -1.266584e-01 -1.317825e-01 -1.370995e-01 -1.425807e-01 -1.478835e-01 -1.535246e-01 -1.585782e-01 -1.641556e-01 -1.687284e-01 -1.740085e-01 -1.778937e-01 -1.826499e-01 -1.856811e-01 -1.897046e-01 -1.917629e-01 -1.948683e-01 -1.958798e-01 -1.979068e-01 -1.978354e-01 -1.986539e-01 -1.974974e-01 -1.970191e-01 -1.948103e-01 -1.930070e-01 -1.898202e-01 -1.867422e-01 -1.827003e-01 -1.784848e-01 -1.737604e-01 -1.686265e-01 -1.634340e-01 -1.576621e-01 -1.522420e-01 -1.461439e-01 -1.407423e-01 -1.346290e-01 -1.294780e-01 -1.236332e-01 -1.189354e-01 -1.135968e-01 -1.095166e-01 
-1.051907e-01 -1.018636e-01 -9.792847e-02 -9.542547e-02 -9.239006e-02 -9.076014e-02 -8.866210e-02 -8.792729e-02 -8.677417e-02 -8.693628e-02 -8.671606e-02 -8.776164e-02 -8.845105e-02 -9.035337e-02 -9.192253e-02 -9.463985e-02 -9.705236e-02 -1.005229e-01 -1.037317e-01 -1.078674e-01 -1.118077e-01 -1.164885e-01 -1.210699e-01 -1.261406e-01 -1.312405e-01 -1.365121e-01 -1.419724e-01 -1.472284e-01 -1.528588e-01 -1.578688e-01 -1.634560e-01 -1.679941e-01 -1.733156e-01 -1.771797e-01 -1.820168e-01 -1.850437e-01 -1.891903e-01 -1.912609e-01 -1.945272e-01 -1.955650e-01 -1.977796e-01 -1.977442e-01 -1.987600e-01 -1.976440e-01 -1.973529e-01 -1.951840e-01 -1.935380e-01 -1.903867e-01 -1.874203e-01 -1.834070e-01 -1.792493e-01 -1.745460e-01 -1.694165e-01 -1.642387e-01 -1.584257e-01 -1.530160e-01 -1.468433e-01 -1.414503e-01 -1.352417e-01 -1.300995e-01 -1.241493e-01 -1.194618e-01 -1.140151e-01 -1.099466e-01 
-1.050378e-01 -1.016250e-01 -9.764637e-02 -9.506541e-02 -9.200153e-02 -9.030308e-02 -8.819010e-02 -8.739738e-02 -8.624150e-02 -8.635707e-02 -8.614485e-02 -8.715538e-02 -8.786170e-02 -8.973983e-02 -9.133238e-02 -9.403517e-02 -9.647475e-02 -9.993930e-02 -1.031763e-01 -1.073139e-01 -1.112815e-01 -1.159721e-01 -1.205791e-01 -1.256678e-01 -1.307917e-01 -1.360897e-01 -1.415737e-01 -1.468647e-01 -1.525214e-01 -1.575748e-01 -1.631951e-01 -1.677847e-01 -1.731503e-01 -1.770739e-01 -1.819696e-01 -1.850637e-01 -1.892842e-01 -1.914298e-01 -1.947821e-01 -1.959020e-01 -1.982069e-01 -1.982586e-01 -1.993570e-01 -1.983285e-01 -1.980987e-01 -1.960103e-01 -1.943925e-01 -1.913053e-01 -1.883272e-01 -1.843529e-01 -1.801440e-01 -1.754486e-01 -1.702357e-01 -1.650336e-01 -1.591170e-01 -1.536546e-01 -1.473712e-01 -1.419045e-01 -1.355895e-01 -1.303609e-01 -1.243166e-01 -1.195376e-01 -1.140131e-01 -1.098540e-01 
-1.045143e-01 -1.010724e-01 -9.694763e-02 -9.435562e-02 -9.117410e-02 -8.947758e-02 -8.726994e-02 -8.648752e-02 -8.525527e-02 -8.538593e-02 -8.511245e-02 -8.614067e-02 -8.679916e-02 -8.869688e-02 -9.025444e-02 -9.297956e-02 -9.539713e-02 -9.888885e-02 -1.021172e-01 -1.062895e-01 -1.102628e-01 -1.149979e-01 -1.196259e-01 -1.247698e-01 -1.299321e-01 -1.352947e-01 -1.408383e-01 -1.462003e-01 -1.519425e-01 -1.570692e-01 -1.628064e-01 -1.674680e-01 -1.729874e-01 -1.769794e-01 -1.820694e-01 -1.852277e-01 -1.896828e-01 -1.918888e-01 -1.955092e-01 -1.966845e-01 -1.992749e-01 -1.993727e-01 -2.007478e-01 -1.997476e-01 -1.997518e-01 -1.976640e-01 -1.962033e-01 -1.930816e-01 -1.901589e-01 -1.861129e-01 -1.818504e-01 -1.770516e-01 -1.716886e-01 -1.663630e-01 -1.602269e-01 -1.546356e-01 -1.480965e-01 -1.425093e-01 -1.359332e-01 -1.306031e-01 -1.243148e-01 -1.194587e-01 -1.137205e-01 -1.095096e-01 
-1.036243e-01 -1.000530e-01 -9.584968e-02 -9.315203e-02 -8.992367e-02 -8.814354e-02 -8.591403e-02 -8.506800e-02 -8.383336e-02 -8.391894e-02 -8.365868e-02 -8.465980e-02 -8.534496e-02 -8.723401e-02 -8.883113e-02 -9.156743e-02 -9.403813e-02 -9.756309e-02 -1.008596e-01 -1.050898e-01 -1.091478e-01 -1.139670e-01 -1.186969e-01 -1.239510e-01 -1.292313e-01 -1.347266e-01 -1.404010e-01 -1.459107e-01 -1.517924e-01 -1.570717e-01 -1.629531e-01 -1.677616e-01 -1.734282e-01 -1.775535e-01 -1.827942e-01 -1.860698e-01 -1.906806e-01 -1.929904e-01 -1.967692e-01 -1.980400e-01 -2.007815e-01 -2.009686e-01 -2.024687e-01 -2.015479e-01 -2.016263e-01 -1.995971e-01 -1.981371e-01 -1.950379e-01 -1.920303e-01 -1.879575e-01 -1.835283e-01 -1.786474e-01 -1.730554e-01 -1.675971e-01 -1.611989e-01 -1.554383e-01 -1.486344e-01 -1.428600e-01 -1.360412e-01 -1.305236e-01 -1.240304e-01 -1.189999e-01 -1.131010e-01 -1.087367e-01 
-1.021982e-01 -9.856063e-02 -9.417355e-02 -9.144699e-02 -8.808867e-02 -8.630700e-02 -8.398823e-02 -8.315926e-02 -8.186451e-02 -8.197929e-02 -8.167936e-02 -8.271831e-02 -8.337874e-02 -8.531399e-02 -8.689900e-02 -8.969272e-02 -9.216451e-02 -9.576339e-02 -9.907725e-02 -1.034039e-01 -1.075003e-01 -1.124437e-01 -1.172387e-01 -1.226458e-01 -1.280238e-01 -1.336968e-01 -1.395064e-01 -1.452088e-01 -1.512664e-01 -1.567397e-01 -1.628397e-01 -1.678294e-01 -1.737584e-01 -1.780423e-01 -1.835906e-01 -1.869990e-01 -1.919623e-01 -1.943819e-01 -1.985519e-01 -1.999116e-01 -2.030630e-01 -2.033143e-01 -2.052044e-01 -2.043096e-01 -2.047030e-01 -2.026430e-01 -2.013646e-01 -1.981628e-01 -1.951615e-01 -1.909114e-01 -1.863050e-01 -1.811845e-01 -1.752608e-01 -1.695261e-01 -1.626969e-01 -1.566540e-01 -1.493827e-01 -1.433484e-01 -1.360800e-01 -1.303449e-01 -1.234562e-01 -1.182604e-01 -1.120377e-01 -1.075605e-01 
-1.005087e-01 -9.669811e-02 -9.220433e-02 -8.934626e-02 -8.592942e-02 -8.405108e-02 -8.170902e-02 -8.081218e-02 -7.951926e-02 -7.959095e-02 -7.931160e-02 -8.033093e-02 -8.102838e-02 -8.296906e-02 -8.460910e-02 -8.743750e-02 -8.998697e-02 -9.365589e-02 -9.707641e-02 -1.015151e-01 -1.057529e-01 -1.108552e-01 -1.158295e-01 -1.214427e-01 -1.270355e-01 -1.329549e-01 -1.390066e-01 -1.449798e-01 -1.512939e-01 -1.570396e-01 -1.633969e-01 -1.686365e-01 -1.748150e-01 -1.793087e-01 -1.850986e-01 -1.886717e-01 -1.938747e-01 -1.964222e-01 -2.008328e-01 -2.022989e-01 -2.056812e-01 -2.060281e-01 -2.081099e-01 -2.072977e-01 -2.078006e-01 -2.057923e-01 -2.044993e-01 -2.012919e-01 -1.981286e-01 -1.937917e-01 -1.888836e-01 -1.835862e-01 -1.772588e-01 -1.712688e-01 -1.639886e-01 -1.576413e-01 -1.499264e-01 -1.435736e-01 -1.359105e-01 -1.298735e-01 -1.226627e-01 -1.172018e-01 -1.107362e-01 -1.060399e-01 
-9.806715e-02 -9.416259e-02 -8.945956e-02 -8.656468e-02 -8.301869e-02 -8.114413e-02 -7.872975e-02 -7.786323e-02 -7.653518e-02 -7.665370e-02 -7.636175e-02 -7.743932e-02 -7.813747e-02 -8.014809e-02 -8.179832e-02 -8.471399e-02 -8.728464e-02 -9.106807e-02 -9.452697e-02 -9.911919e-02 -1.034223e-01 -1.087270e-01 -1.138048e-01 -1.196729e-01 -1.254179e-01 -1.316379e-01 -1.378972e-01 -1.441985e-01 -1.507772e-01 -1.568513e-01 -1.635277e-01 -1.690674e-01 -1.756160e-01 -1.803612e-01 -1.865723e-01 -1.903442e-01 -1.960242e-01 -1.987280e-01 -2.036728e-01 -2.052655e-01 -2.092209e-01 -2.096635e-01 -2.123036e-01 -2.115337e-01 -2.124910e-01 -2.104355e-01 -2.093903e-01 -2.060153e-01 -2.028175e-01 -1.981852e-01 -1.929473e-01 -1.872490e-01 -1.803530e-01 -1.739029e-01 -1.659172e-01 -1.591059e-01 -1.506576e-01 -1.438855e-01 -1.355477e-01 -1.291678e-01 -1.213924e-01 -1.156775e-01 -1.087757e-01 -1.039116e-01 
-9.546971e-02 -9.135346e-02 -8.652952e-02 -8.348387e-02 -7.988064e-02 -7.790240e-02 -7.547340e-02 -7.453878e-02 -7.322311e-02 -7.330183e-02 -7.304011e-02 -7.410396e-02 -7.484791e-02 -7.687384e-02 -7.858989e-02 -8.155765e-02 -8.422422e-02 -8.810790e-02 -9.170608e-02 -9.645961e-02 -1.009580e-01 -1.064960e-01 -1.118326e-01 -1.180097e-01 -1.240746e-01 -1.306703e-01 -1.372961e-01 -1.440138e-01 -1.509797e-01 -1.574702e-01 -1.645255e-01 -1.704359e-01 -1.773364e-01 -1.823728e-01 -1.889106e-01 -1.928861e-01 -1.988869e-01 -2.017278e-01 -2.070061e-01 -2.087054e-01 -2.130006e-01 -2.135476e-01 -2.164892e-01 -2.158226e-01 -2.169669e-01 -2.149829e-01 -2.139308e-01 -2.105457e-01 -2.071011e-01 -2.023311e-01 -1.966189e-01 -1.906366e-01 -1.831075e-01 -1.762505e-01 -1.675704e-01 -1.602842e-01 -1.511718e-01 -1.439194e-01 -1.350115e-01 -1.281952e-01 -1.199735e-01 -1.138940e-01 -1.066723e-01 -1.015229e-01 
-9.183489e-02 -8.761343e-02 -8.257866e-02 -7.950495e-02 -7.579665e-02 -7.384162e-02 -7.137688e-02 -7.049586e-02 -6.918471e-02 -6.933299e-02 -6.909503e-02 -7.023723e-02 -7.101109e-02 -7.312509e-02 -7.487212e-02 -7.794709e-02 -8.064872e-02 -8.467572e-02 -8.832363e-02 -9.327777e-02 -9.785715e-02 -1.036723e-01 -1.091405e-01 -1.156811e-01 -1.219458e-01 -1.289834e-01 -1.358873e-01 -1.430958e-01 -1.504177e-01 -1.573996e-01 -1.648781e-01 -1.712276e-01 -1.786056e-01 -1.839909e-01 -1.910586e-01 -1.952884e-01 -2.018893e-01 -2.049204e-01 -2.108945e-01 -2.127591e-01 -2.178438e-01 -2.185407e-01 -2.222980e-01 -2.217264e-01 -2.235668e-01 -2.215502e-01 -2.208879e-01 -2.172776e-01 -2.137709e-01 -2.085651e-01 -2.023140e-01 -1.957230e-01 -1.872872e-01 -1.797306e-01 -1.699617e-01 -1.619812e-01 -1.517830e-01 -1.439202e-01 -1.340609e-01 -1.267634e-01 -1.177896e-01 -1.113702e-01 -1.036054e-01 -9.824573e-02 
-8.816819e-02 -8.370900e-02 -7.856331e-02 -7.533343e-02 -7.159019e-02 -6.953596e-02 -6.708090e-02 -6.613880e-02 -6.485975e-02 -6.497373e-02 -6.477790e-02 -6.590929e-02 -6.673325e-02 -6.886470e-02 -7.067826e-02 -7.381133e-02 -7.661387e-02 -8.075848e-02 -8.456564e-02 -8.971958e-02 -9.454057e-02 -1.006596e-01 -1.064683e-01 -1.134299e-01 -1.201345e-01 -1.277028e-01 -1.351234e-01 -1.429347e-01 -1.508032e-01 -1.583909e-01 -1.663890e-01 -1.732636e-01 -1.810947e-01 -1.868601e-01 -1.943204e-01 -1.987719e-01 -2.057564e-01 -2.088976e-01 -2.153044e-01 -2.172476e-01 -2.228259e-01 -2.236348e-01 -2.278795e-01 -2.274627e-01 -2.296469e-01 -2.277716e-01 -2.271559e-01 -2.235771e-01 -2.197264e-01 -2.143502e-01 -2.073835e-01 -2.003779e-01 -1.909822e-01 -1.828118e-01 -1.720134e-01 -1.633253e-01 -1.521789e-01 -1.436249e-01 -1.329898e-01 -1.250939e-01 -1.155474e-01 -1.086561e-01 -1.005096e-01 -9.480467e-02 
-8.308793e-02 -7.854038e-02 -7.322326e-02 -7.000001e-02 -6.621223e-02 -6.422153e-02 -6.179639e-02 -6.094564e-02 -5.973184e-02 -5.994530e-02 -5.982266e-02 -6.105161e-02 -6.193976e-02 -6.416797e-02 -6.603027e-02 -6.927352e-02 -7.211433e-02 -7.640994e-02 -8.026158e-02 -8.564389e-02 -9.054213e-02 -9.700361e-02 -1.029545e-01 -1.103960e-01 -1.173376e-01 -1.255188e-01 -1.332889e-01 -1.418015e-01 -1.501283e-01 -1.584234e-01 -1.669617e-01 -1.744520e-01 -1.828700e-01 -1.890861e-01 -1.971673e-01 -2.018979e-01 -2.095800e-01 -2.129062e-01 -2.201722e-01 -2.223096e-01 -2.289619e-01 -2.300138e-01 -2.354772e-01 -2.352812e-01 -2.385897e-01 -2.367617e-01 -2.368231e-01 -2.329798e-01 -2.290643e-01 -2.230738e-01 -2.152513e-01 -2.073470e-01 -1.965206e-01 -1.873151e-01 -1.748599e-01 -1.651682e-01 -1.524519e-01 -1.430511e-01 -1.311231e-01 -1.225960e-01 -1.120992e-01 -1.047942e-01 -9.602110e-02 -9.008779e-02 
-7.812989e-02 -7.334458e-02 -6.796522e-02 -6.460496e-02 -6.083590e-02 -5.876933e-02 -5.640036e-02 -5.550687e-02 -5.435724e-02 -5.454515e-02 -5.447861e-02 -5.569486e-02 -5.662895e-02 -5.886428e-02 -6.077587e-02 -6.406440e-02 -6.698715e-02 -7.139508e-02 -7.540192e-02 -8.100077e-02 -8.617040e-02 -9.299356e-02 -9.936603e-02 -1.073477e-01 -1.148719e-01 -1.237766e-01 -1.322601e-01 -1.416306e-01 -1.507208e-01 -1.598942e-01 -1.691321e-01 -1.773666e-01 -1.863327e-01 -1.930315e-01 -2.015202e-01 -2.064437e-01 -2.145146e-01 -2.178434e-01 -2.256296e-01 -2.277526e-01 -2.351195e-01 -2.362820e-01 -2.425560e-01 -2.426226e-01 -2.465848e-01 -2.450649e-01 -2.453192e-01 -2.416412e-01 -2.372655e-01 -2.311137e-01 -2.222070e-01 -2.137116e-01 -2.014248e-01 -1.912926e-01 -1.773220e-01 -1.665800e-01 -1.525402e-01 -1.421612e-01 -1.292209e-01 -1.199001e-01 -1.087161e-01 -1.008324e-01 -9.165003e-02 -8.533088e-02 
-7.127187e-02 -6.646013e-02 -6.101381e-02 -5.773304e-02 -5.403246e-02 -5.209881e-02 -4.986465e-02 -4.912002e-02 -4.812383e-02 -4.845116e-02 -4.852423e-02 -4.985610e-02 -5.089510e-02 -5.322164e-02 -5.519471e-02 -5.856890e-02 -6.151647e-02 -6.604652e-02 -7.006597e-02 -7.588431e-02 -8.109532e-02 -8.830261e-02 -9.479778e-02 -1.033809e-01 -1.111618e-01 -1.208947e-01 -1.298029e-01 -1.401677e-01 -1.498449e-01 -1.600397e-01 -1.699704e-01 -1.790703e-01 -1.887455e-01 -1.960032e-01 -2.051611e-01 -2.103106e-01 -2.190914e-01 -2.224965e-01 -2.312530e-01 -2.335588e-01 -2.423548e-01 -2.439240e-01 -2.520585e-01 -2.526236e-01 -2.584906e-01 -2.572363e-01 -2.587494e-01 -2.548058e-01 -2.504118e-01 -2.434022e-01 -2.331076e-01 -2.232748e-01 -2.086855e-01 -1.970146e-01 -1.805059e-01 -1.683263e-01 -1.520417e-01 -1.405212e-01 -1.258799e-01 -1.157761e-01 -1.034623e-01 -9.512312e-02 -8.529110e-02 -7.877088e-02 
-6.473576e-02 -5.973355e-02 -5.433157e-02 -5.097248e-02 -4.738782e-02 -4.542961e-02 -4.332757e-02 -4.257445e-02 -4.169059e-02 -4.200542e-02 -4.215066e-02 -4.346087e-02 -4.452809e-02 -4.683304e-02 -4.880879e-02 -5.218653e-02 -5.515644e-02 -5.975644e-02 -6.388421e-02 -6.989512e-02 -7.537328e-02 -8.296690e-02 -8.995408e-02 -9.919196e-02 -1.077278e-01 -1.184258e-01 -1.283245e-01 -1.399163e-01 -1.506871e-01 -1.621866e-01 -1.730853e-01 -1.832756e-01 -1.935838e-01 -2.014551e-01 -2.109138e-01 -2.161281e-01 -2.251531e-01 -2.282798e-01 -2.375812e-01 -2.396372e-01 -2.494677e-01 -2.511185e-01 -2.606399e-01 -2.616824e-01 -2.688163e-01 -2.682262e-01 -2.702700e-01 -2.668100e-01 -2.618102e-01 -2.547497e-01 -2.427556e-01 -2.320593e-01 -2.151882e-01 -2.020652e-01 -1.833088e-01 -1.695412e-01 -1.514379e-01 -1.385410e-01 -1.226364e-01 -1.115143e-01 -9.844527e-02 -8.944317e-02 -7.924399e-02 -7.234222e-02 
-5.569372e-02 -5.079582e-02 -4.552705e-02 -4.237284e-02 -3.903891e-02 -3.732055e-02 -3.550607e-02 -3.498474e-02 -3.437507e-02 -3.488369e-02 -3.525586e-02 -3.670035e-02 -3.792190e-02 -4.029353e-02 -4.233670e-02 -4.573353e-02 -4.869027e-02 -5.332255e-02 -5.739004e-02 -6.354436e-02 -6.897536e-02 -7.694236e-02 -8.398000e-02 -9.393120e-02 -1.027094e-01 -1.145119e-01 -1.249164e-01 -1.379345e-01 -1.494781e-01 -1.624961e-01 -1.743297e-01 -1.857852e-01 -1.969808e-01 -2.055459e-01 -2.156406e-01 -2.208445e-01 -2.303723e-01 -2.332096e-01 -2.433951e-01 -2.455038e-01 -2.571470e-01 -2.594993e-01 -2.719114e-01 -2.740545e-01 -2.845621e-01 -2.847561e-01 -2.892695e-01 -2.856046e-01 -2.807260e-01 -2.724509e-01 -2.580842e-01 -2.453324e-01 -2.246102e-01 -2.091423e-01 -1.864375e-01 -1.706035e-01 -1.493284e-01 -1.349341e-01 -1.168911e-01 -1.048656e-01 -9.057764e-02 -8.115183e-02 -7.040785e-02 -6.341230e-02 
-4.723703e-02 -4.227476e-02 -3.723714e-02 -3.412155e-02 -3.105613e-02 -2.940214e-02 -2.783181e-02 -2.735623e-02 -2.692749e-02 -2.744176e-02 -2.790597e-02 -2.931051e-02 -3.052407e-02 -3.282018e-02 -3.477416e-02 -3.809146e-02 -4.094464e-02 -4.554840e-02 -4.960458e-02 -5.585670e-02 -6.148468e-02 -6.978849e-02 -7.735031e-02 -8.802962e-02 -9.776224e-02 -1.108198e-01 -1.226235e-01 -1.374207e-01 -1.506165e-01 -1.656564e-01 -1.789361e-01 -1.920908e-01 -2.040032e-01 -2.133854e-01 -2.233997e-01 -2.283357e-01 -2.376048e-01 -2.395102e-01 -2.500774e-01 -2.513960e-01 -2.645335e-01 -2.668712e-01 -2.817209e-01 -2.847649e-01 -2.977682e-01 -2.993538e-01 -3.051329e-01 -3.026256e-01 -2.969519e-01 -2.890099e-01 -2.718193e-01 -2.577028e-01 -2.332626e-01 -2.153649e-01 -1.892845e-01 -1.709810e-01 -1.472635e-01 -1.309508e-01 -1.114395e-01 -9.817547e-02 -8.318335e-02 -7.308511e-02 -6.214407e-02 -5.486159e-02 
-3.556673e-02 -3.093706e-02 -2.636081e-02 -2.364113e-02 -2.108958e-02 -1.982547e-02 -1.874576e-02 -1.861494e-02 -1.861523e-02 -1.939923e-02 -2.020313e-02 -2.176868e-02 -2.320038e-02 -2.551856e-02 -2.753956e-02 -3.074851e-02 -3.351710e-02 -3.796527e-02 -4.182798e-02 -4.802850e-02 -5.343605e-02 -6.199258e-02 -6.943795e-02 -8.089160e-02 -9.078021e-02 -1.052887e-01 -1.176757e-01 -1.345616e-01 -1.488207e-01 -1.662220e-01 -1.808893e-01 -1.960280e-01 -2.092094e-01 -2.195528e-01 -2.300499e-01 -2.343128e-01 -2.433624e-01 -2.439902e-01 -2.548110e-01 -2.557419e-01 -2.709318e-01 -2.745121e-01 -2.938812e-01 -2.993433e-01 -3.185747e-01 -3.221387e-01 -3.330352e-01 -3.304062e-01 -3.251382e-01 -3.154523e-01 -2.938962e-01 -2.764520e-01 -2.452358e-01 -2.236203e-01 -1.913045e-01 -1.700187e-01 -1.419405e-01 -1.237517e-01 -1.017754e-01 -8.760308e-02 -7.154661e-02 -6.120663e-02 -5.006697e-02 -4.292999e-02 
-2.483037e-02 -2.038157e-02 -1.632312e-02 -1.383589e-02 -1.176717e-02 -1.070050e-02 -1.001587e-02 -1.000644e-02 -1.028192e-02 -1.109521e-02 -1.202223e-02 -1.351944e-02 -1.488812e-02 -1.704526e-02 -1.881852e-02 -2.180985e-02 -2.424258e-02 -2.848863e-02 -3.210454e-02 -3.819558e-02 -4.361106e-02 -5.230309e-02 -6.020151e-02 -7.232204e-02 -8.334904e-02 -9.940595e-02 -1.137908e-01 -1.332879e-01 -1.502152e-01 -1.709195e-01 -1.880356e-01 -2.060423e-01 -2.200968e-01 -2.316666e-01 -2.410830e-01 -2.443253e-01 -2.517908e-01 -2.500265e-01 -2.605953e-01 -2.595570e-01 -2.768791e-01 -2.802009e-01 -3.039530e-01 -3.111614e-01 -3.354066e-01 -3.418244e-01 -3.555430e-01 -3.553405e-01 -3.490486e-01 -3.409348e-01 -3.143023e-01 -2.943489e-01 -2.567464e-01 -2.307053e-01 -1.932925e-01 -1.680757e-01 -1.368856e-01 -1.161149e-01 -9.267152e-02 -7.715652e-02 -6.070267e-02 -4.986176e-02 -3.891083e-02 -3.174415e-02 