# vtk DataFile Version 2.0
Comment goes here
ASCII

DATASET STRUCTURED_POINTS
DIMENSIONS    64   64   1

ORIGIN    0.000   0.000   0.000
SPACING   0.0156250.015625   1.000

POINT_DATA   4096
SCALARS uY double
LOOKUP_TABLE default

1.337594e-02 1.276492e-02 1.385655e-02 1.277893e-02 1.287788e-02 1.140374e-02 1.034799e-02 8.706149e-03 6.345631e-03 5.344931e-03 1.737525e-03 3.156249e-03 -1.563771e-03 4.265014e-03 -2.358259e-03 7.412282e-03 -2.150045e-03 7.682103e-03 -2.204686e-04 7.268597e-03 4.063279e-03 7.413583e-03 6.156073e-03 2.889227e-03 8.695938e-05 -1.189062e-02 -1.808100e-02 -3.935328e-02 -4.784735e-02 -7.521158e-02 -8.139137e-02 -1.073053e-01 -1.072924e-01 -1.249894e-01 -1.199352e-01 -1.280258e-01 -1.216748e-01 -1.222833e-01 -1.189539e-01 -1.154610e-01 -1.175951e-01 -1.122810e-01 -1.185698e-01 -1.118575e-01 -1.172531e-01 -1.082330e-01 -1.069057e-01 -9.530162e-02 -8.718701e-02 -7.525819e-02 -6.559288e-02 -5.401372e-02 -4.393689e-02 -3.405597e-02 -2.467807e-02 -1.752476e-02 -9.754191e-03 -5.315956e-03 6.487384e-04 2.982743e-03 7.354124e-03 8.260735e-03 1.134558e-02 1.133929e-02 
4.826200e-03 4.481710e-03 5.477706e-03 4.686111e-03 4.658005e-03 3.553713e-03 2.435465e-03 1.319755e-03 -8.887948e-04 -1.278756e-03 -4.415378e-03 -2.761677e-03 -6.693560e-03 -1.721163e-03 -6.964045e-03 9.295852e-04 -6.223107e-03 1.874954e-03 -4.767980e-03 1.046218e-03 -3.058877e-03 -1.070669e-03 -3.360705e-03 -6.580558e-03 -8.794674e-03 -1.822086e-02 -2.154777e-02 -3.714193e-02 -4.128110e-02 -6.083240e-02 -6.379765e-02 -8.294075e-02 -8.288799e-02 -9.782866e-02 -9.459176e-02 -1.039680e-01 -1.002603e-01 -1.041889e-01 -1.029321e-01 -1.026889e-01 -1.052580e-01 -1.021132e-01 -1.074263e-01 -1.019125e-01 -1.065991e-01 -9.865260e-02 -9.889263e-02 -8.892219e-02 -8.391834e-02 -7.358329e-02 -6.577926e-02 -5.612141e-02 -4.734425e-02 -3.921981e-02 -3.085611e-02 -2.482364e-02 -1.770508e-02 -1.374036e-02 -8.099528e-03 -5.806667e-03 -1.550804e-03 -4.669530e-04 2.585000e-03 2.832538e-03 
4.267547e-03 4.346957e-03 5.374559e-03 5.055269e-03 5.141233e-03 4.619119e-03 3.697418e-03 3.290704e-03 1.308067e-03 1.599793e-03 -1.429872e-03 4.003527e-04 -3.661686e-03 3.171419e-04 -4.918740e-03 6.995771e-04 -5.523487e-03 8.774257e-07 -5.555250e-03 -1.782239e-03 -5.602379e-03 -5.051901e-03 -7.962953e-03 -1.204379e-02 -1.541903e-02 -2.501590e-02 -2.954123e-02 -4.436300e-02 -4.936803e-02 -6.723637e-02 -7.082618e-02 -8.793488e-02 -8.862025e-02 -1.015262e-01 -9.969092e-02 -1.070689e-01 -1.044269e-01 -1.068289e-01 -1.053752e-01 -1.042344e-01 -1.050056e-01 -1.015445e-01 -1.038033e-01 -9.855514e-02 -1.000091e-01 -9.301179e-02 -9.131456e-02 -8.283699e-02 -7.776301e-02 -6.879412e-02 -6.203648e-02 -5.333574e-02 -4.596699e-02 -3.831934e-02 -3.118155e-02 -2.516853e-02 -1.888734e-02 -1.463652e-02 -9.492873e-03 -6.781250e-03 -2.796731e-03 -1.271584e-03 1.645902e-03 2.318650e-03 
-2.957525e-03 -2.725192e-03 -1.750240e-03 -1.873736e-03 -1.804946e-03 -2.083823e-03 -2.932812e-03 -3.060773e-03 -4.805661e-03 -4.294175e-03 -6.863182e-03 -5.096223e-03 -8.444010e-03 -5.041218e-03 -9.245977e-03 -4.633395e-03 -9.577898e-03 -5.085930e-03 -9.816893e-03 -6.901403e-03 -1.061663e-02 -1.043619e-02 -1.326761e-02 -1.669145e-02 -1.926232e-02 -2.670210e-02 -2.944701e-02 -4.053686e-02 -4.325830e-02 -5.653619e-02 -5.843329e-02 -7.157867e-02 -7.195366e-02 -8.283891e-02 -8.178794e-02 -8.927572e-02 -8.794947e-02 -9.181762e-02 -9.152055e-02 -9.221170e-02 -9.351638e-02 -9.164090e-02 -9.393264e-02 -8.992944e-02 -9.159920e-02 -8.576526e-02 -8.514019e-02 -7.797518e-02 -7.457949e-02 -6.696175e-02 -6.162904e-02 -5.432333e-02 -4.807595e-02 -4.168352e-02 -3.541579e-02 -3.031802e-02 -2.465083e-02 -2.092992e-02 -1.616942e-02 -1.367780e-02 -9.907799e-03 -8.401171e-03 -5.600029e-03 -4.833757e-03 
-3.331124e-03 -2.756493e-03 -1.773180e-03 -1.530009e-03 -1.389793e-03 -1.274922e-03 -2.003214e-03 -1.749976e-03 -3.359699e-03 -2.611546e-03 -5.083236e-03 -3.467853e-03 -6.759814e-03 -4.138516e-03 -8.178513e-03 -4.953689e-03 -9.452726e-03 -6.557957e-03 -1.083641e-02 -9.325399e-03 -1.294943e-02 -1.380337e-02 -1.700149e-02 -2.100871e-02 -2.426694e-02 -3.175902e-02 -3.528238e-02 -4.582270e-02 -4.923986e-02 -6.143144e-02 -6.393690e-02 -7.570147e-02 -7.669896e-02 -8.612878e-02 -8.577476e-02 -9.188228e-02 -9.095245e-02 -9.372272e-02 -9.311616e-02 -9.311015e-02 -9.325800e-02 -9.111408e-02 -9.163007e-02 -8.779115e-02 -8.763450e-02 -8.238330e-02 -8.054877e-02 -7.425193e-02 -7.055963e-02 -6.380463e-02 -5.886621e-02 -5.222377e-02 -4.670169e-02 -4.069360e-02 -3.517320e-02 -3.017869e-02 -2.511301e-02 -2.127869e-02 -1.693760e-02 -1.420336e-02 -1.069815e-02 -8.888880e-03 -6.237087e-03 -5.144547e-03 
-9.309448e-03 -8.678526e-03 -7.719688e-03 -7.374886e-03 -7.196145e-03 -6.953213e-03 -7.550949e-03 -7.175278e-03 -8.524655e-03 -7.727397e-03 -9.779335e-03 -8.289798e-03 -1.098966e-02 -8.738672e-03 -1.202212e-02 -9.347636e-03 -1.301924e-02 -1.066473e-02 -1.428453e-02 -1.311539e-02 -1.631595e-02 -1.708145e-02 -1.983452e-02 -2.304915e-02 -2.554217e-02 -3.135384e-02 -3.371534e-02 -4.175939e-02 -4.387060e-02 -5.320209e-02 -5.473439e-02 -6.401649e-02 -6.471602e-02 -7.267917e-02 -7.264910e-02 -7.846989e-02 -7.821965e-02 -8.158928e-02 -8.168504e-02 -8.270155e-02 -8.335925e-02 -8.231129e-02 -8.318857e-02 -8.039167e-02 -8.071122e-02 -7.649007e-02 -7.547935e-02 -7.026068e-02 -6.765201e-02 -6.199199e-02 -5.810141e-02 -5.253136e-02 -4.791003e-02 -4.286079e-02 -3.806881e-02 -3.382545e-02 -2.930749e-02 -2.598128e-02 -2.201972e-02 -1.957531e-02 -1.631343e-02 -1.462914e-02 -1.212285e-02 -1.104446e-02 
-9.584398e-03 -8.700969e-03 -7.748639e-03 -7.145484e-03 -6.924267e-03 -6.437218e-03 -6.956565e-03 -6.397603e-03 -7.652184e-03 -6.820569e-03 -8.779952e-03 -7.524038e-03 -1.012672e-02 -8.464018e-03 -1.159743e-02 -9.825344e-03 -1.327029e-02 -1.194475e-02 -1.537657e-02 -1.514917e-02 -1.835212e-02 -1.982636e-02 -2.282827e-02 -2.642987e-02 -2.936611e-02 -3.518608e-02 -3.807878e-02 -4.573292e-02 -4.837124e-02 -5.696795e-02 -5.898936e-02 -6.732056e-02 -6.847104e-02 -7.540969e-02 -7.575436e-02 -8.060516e-02 -8.048670e-02 -8.306686e-02 -8.287821e-02 -8.337060e-02 -8.328235e-02 -8.201165e-02 -8.182375e-02 -7.910725e-02 -7.834189e-02 -7.447062e-02 -7.268108e-02 -6.798738e-02 -6.507117e-02 -5.996242e-02 -5.617814e-02 -5.106451e-02 -4.679886e-02 -4.204590e-02 -3.768956e-02 -3.356726e-02 -2.944933e-02 -2.609377e-02 -2.244567e-02 -1.986541e-02 -1.682267e-02 -1.493818e-02 -1.256731e-02 -1.125405e-02 
-1.443935e-02 -1.357103e-02 -1.262400e-02 -1.199448e-02 -1.170840e-02 -1.117697e-02 -1.154682e-02 -1.095520e-02 -1.195771e-02 -1.114635e-02 -1.273854e-02 -1.159936e-02 -1.371985e-02 -1.228478e-02 -1.484190e-02 -1.335835e-02 -1.619200e-02 -1.510528e-02 -1.797947e-02 -1.780792e-02 -2.052352e-02 -2.172242e-02 -2.421138e-02 -2.706864e-02 -2.935648e-02 -3.390270e-02 -3.600136e-02 -4.194375e-02 -4.377621e-02 -5.049984e-02 -5.192242e-02 -5.861227e-02 -5.953009e-02 -6.539390e-02 -6.587047e-02 -7.033314e-02 -7.059139e-02 -7.336579e-02 -7.363980e-02 -7.469358e-02 -7.504768e-02 -7.451075e-02 -7.475033e-02 -7.283332e-02 -7.257394e-02 -6.954012e-02 -6.841268e-02 -6.458927e-02 -6.245404e-02 -5.822198e-02 -5.522097e-02 -5.095196e-02 -4.739384e-02 -4.339955e-02 -3.963821e-02 -3.613770e-02 -3.248773e-02 -2.959265e-02 -2.628787e-02 -2.401328e-02 -2.120420e-02 -1.949695e-02 -1.727003e-02 -1.603807e-02 
-1.469171e-02 -1.364893e-02 -1.271342e-02 -1.191397e-02 -1.160152e-02 -1.092950e-02 -1.124430e-02 -1.057980e-02 -1.150960e-02 -1.074694e-02 -1.225740e-02 -1.134553e-02 -1.337419e-02 -1.237354e-02 -1.481952e-02 -1.394209e-02 -1.665471e-02 -1.624448e-02 -1.904377e-02 -1.949661e-02 -2.225116e-02 -2.392100e-02 -2.659236e-02 -2.969731e-02 -3.229003e-02 -3.682110e-02 -3.929487e-02 -4.495407e-02 -4.717784e-02 -5.338868e-02 -5.518131e-02 -6.120686e-02 -6.244423e-02 -6.758643e-02 -6.828479e-02 -7.206139e-02 -7.236016e-02 -7.456806e-02 -7.462681e-02 -7.529358e-02 -7.516931e-02 -7.445422e-02 -7.403954e-02 -7.215359e-02 -7.122551e-02 -6.840266e-02 -6.676141e-02 -6.326630e-02 -6.086907e-02 -5.699743e-02 -5.398009e-02 -5.002764e-02 -4.662630e-02 -4.285636e-02 -3.933457e-02 -3.594795e-02 -3.254696e-02 -2.966222e-02 -2.657232e-02 -2.422632e-02 -2.157999e-02 -1.974531e-02 -1.762618e-02 -1.623377e-02 
-1.855456e-02 -1.757355e-02 -1.662875e-02 -1.585484e-02 -1.546595e-02 -1.480375e-02 -1.496850e-02 -1.432029e-02 -1.501903e-02 -1.430233e-02 -1.549734e-02 -1.467796e-02 -1.631209e-02 -1.544614e-02 -1.743678e-02 -1.669770e-02 -1.892774e-02 -1.858894e-02 -2.091561e-02 -2.128603e-02 -2.358494e-02 -2.492965e-02 -2.712976e-02 -2.959895e-02 -3.167064e-02 -3.524365e-02 -3.715771e-02 -4.161316e-02 -4.331179e-02 -4.824303e-02 -4.965109e-02 -5.454136e-02 -5.561274e-02 -5.995228e-02 -6.071072e-02 -6.410254e-02 -6.463426e-02 -6.684620e-02 -6.723424e-02 -6.819556e-02 -6.844097e-02 -6.820418e-02 -6.819037e-02 -6.688973e-02 -6.642039e-02 -6.424743e-02 -6.314345e-02 -6.033599e-02 -5.853283e-02 -5.535754e-02 -5.293706e-02 -4.965627e-02 -4.680662e-02 -4.364693e-02 -4.060131e-02 -3.773158e-02 -3.471610e-02 -3.223731e-02 -2.943929e-02 -2.738810e-02 -2.494571e-02 -2.330782e-02 -2.131433e-02 -2.004054e-02 
-1.884331e-02 -1.774739e-02 -1.681197e-02 -1.593187e-02 -1.552362e-02 -1.478626e-02 -1.490846e-02 -1.424403e-02 -1.488354e-02 -1.424132e-02 -1.536616e-02 -1.473867e-02 -1.629505e-02 -1.574470e-02 -1.765391e-02 -1.732642e-02 -1.948567e-02 -1.959400e-02 -2.189137e-02 -2.267029e-02 -2.501482e-02 -2.666231e-02 -2.899895e-02 -3.161619e-02 -3.390625e-02 -3.744616e-02 -3.963276e-02 -4.387340e-02 -4.586464e-02 -5.042680e-02 -5.211529e-02 -5.653341e-02 -5.784108e-02 -6.166897e-02 -6.258072e-02 -6.548616e-02 -6.604187e-02 -6.785018e-02 -6.809903e-02 -6.878113e-02 -6.872806e-02 -6.835753e-02 -6.793878e-02 -6.664939e-02 -6.575817e-02 -6.371959e-02 -6.226975e-02 -5.967846e-02 -5.766477e-02 -5.473484e-02 -5.224827e-02 -4.919302e-02 -4.639202e-02 -4.340339e-02 -4.047473e-02 -3.770486e-02 -3.483070e-02 -3.238007e-02 -2.971621e-02 -2.763218e-02 -2.529889e-02 -2.358331e-02 -2.166614e-02 -2.028732e-02 
-2.183599e-02 -2.082790e-02 -1.987044e-02 -1.904732e-02 -1.855766e-02 -1.786225e-02 -1.784142e-02 -1.721911e-02 -1.765193e-02 -1.706447e-02 -1.791993e-02 -1.736478e-02 -1.859561e-02 -1.812554e-02 -1.966671e-02 -1.939830e-02 -2.116685e-02 -2.126643e-02 -2.316948e-02 -2.381651e-02 -2.576974e-02 -2.711000e-02 -2.905127e-02 -3.115294e-02 -3.303830e-02 -3.585932e-02 -3.764729e-02 -4.102236e-02 -4.266291e-02 -4.631863e-02 -4.775839e-02 -5.135900e-02 -5.255970e-02 -5.577201e-02 -5.672531e-02 -5.927851e-02 -6.000012e-02 -6.172051e-02 -6.222133e-02 -6.303783e-02 -6.329113e-02 -6.322021e-02 -6.314932e-02 -6.227360e-02 -6.177345e-02 -6.022391e-02 -5.920814e-02 -5.715052e-02 -5.559778e-02 -5.321709e-02 -5.118888e-02 -4.866932e-02 -4.629464e-02 -4.380015e-02 -4.124400e-02 -3.890376e-02 -3.633553e-02 -3.423640e-02 -3.180718e-02 -2.999383e-02 -2.782502e-02 -2.630585e-02 -2.448724e-02 -2.324296e-02 
-2.220356e-02 -2.112158e-02 -2.016753e-02 -1.927976e-02 -1.877227e-02 -1.803926e-02 -1.798191e-02 -1.736832e-02 -1.774966e-02 -1.723558e-02 -1.802895e-02 -1.762371e-02 -1.878681e-02 -1.854115e-02 -2.001634e-02 -2.002557e-02 -2.174295e-02 -2.213470e-02 -2.402072e-02 -2.492756e-02 -2.691700e-02 -2.844090e-02 -3.048166e-02 -3.265823e-02 -3.470288e-02 -3.747349e-02 -3.946525e-02 -4.266652e-02 -4.453310e-02 -4.791219e-02 -4.957486e-02 -5.283181e-02 -5.422478e-02 -5.707057e-02 -5.815544e-02 -6.036438e-02 -6.112747e-02 -6.256532e-02 -6.299908e-02 -6.362304e-02 -6.370471e-02 -6.354503e-02 -6.322889e-02 -6.236649e-02 -6.159820e-02 -6.014769e-02 -5.889462e-02 -5.699341e-02 -5.527242e-02 -5.307099e-02 -5.095678e-02 -4.860653e-02 -4.621898e-02 -4.385917e-02 -4.134142e-02 -3.908757e-02 -3.658452e-02 -3.452062e-02 -3.216270e-02 -3.033888e-02 -2.823317e-02 -2.666855e-02 -2.489635e-02 -2.358501e-02 
-2.443172e-02 -2.344774e-02 -2.245924e-02 -2.164412e-02 -2.105253e-02 -2.037851e-02 -2.018721e-02 -1.962911e-02 -1.982713e-02 -1.937167e-02 -1.993504e-02 -1.959157e-02 -2.048426e-02 -2.029358e-02 -2.146819e-02 -2.150394e-02 -2.290363e-02 -2.326189e-02 -2.482543e-02 -2.560308e-02 -2.727273e-02 -2.854025e-02 -3.026684e-02 -3.204298e-02 -3.378382e-02 -3.601807e-02 -3.773036e-02 -4.029844e-02 -4.193459e-02 -4.465056e-02 -4.616034e-02 -4.880454e-02 -5.014266e-02 -5.249860e-02 -5.363069e-02 -5.551904e-02 -5.641930e-02 -5.771929e-02 -5.835950e-02 -5.901475e-02 -5.935256e-02 -5.936496e-02 -5.934208e-02 -5.876040e-02 -5.831582e-02 -5.722417e-02 -5.631807e-02 -5.482551e-02 -5.346175e-02 -5.169153e-02 -4.992655e-02 -4.800411e-02 -4.593931e-02 -4.398060e-02 -4.174446e-02 -3.984666e-02 -3.757465e-02 -3.581048e-02 -3.362870e-02 -3.204482e-02 -3.005989e-02 -2.867877e-02 -2.697364e-02 -2.579760e-02 
-2.490708e-02 -2.387419e-02 -2.288226e-02 -2.202626e-02 -2.141589e-02 -2.072256e-02 -2.049707e-02 -1.995426e-02 -2.010417e-02 -1.970903e-02 -2.021336e-02 -1.997977e-02 -2.080734e-02 -2.077109e-02 -2.188211e-02 -2.210032e-02 -2.344921e-02 -2.399165e-02 -2.553136e-02 -2.646400e-02 -2.815040e-02 -2.951502e-02 -3.130740e-02 -3.310189e-02 -3.495808e-02 -3.712273e-02 -3.899224e-02 -4.140699e-02 -4.322786e-02 -4.572390e-02 -4.742668e-02 -4.981148e-02 -5.132812e-02 -5.341750e-02 -5.468900e-02 -5.633569e-02 -5.731349e-02 -5.842373e-02 -5.906497e-02 -5.960059e-02 -5.986259e-02 -5.983291e-02 -5.967358e-02 -5.912366e-02 -5.851093e-02 -5.751121e-02 -5.643807e-02 -5.507661e-02 -5.357369e-02 -5.194941e-02 -5.008770e-02 -4.830307e-02 -4.618580e-02 -4.433911e-02 -4.208740e-02 -4.026546e-02 -3.800309e-02 -3.627577e-02 -3.411675e-02 -3.253408e-02 -3.057473e-02 -2.916701e-02 -2.748253e-02 -2.626266e-02 
-2.645795e-02 -2.552128e-02 -2.448214e-02 -2.370276e-02 -2.300586e-02 -2.237840e-02 -2.202761e-02 -2.154705e-02 -2.153426e-02 -2.120154e-02 -2.150894e-02 -2.133649e-02 -2.193846e-02 -2.195358e-02 -2.281845e-02 -2.306221e-02 -2.415413e-02 -2.467409e-02 -2.595577e-02 -2.679340e-02 -2.822868e-02 -2.940462e-02 -3.095930e-02 -3.246037e-02 -3.409970e-02 -3.587139e-02 -3.755580e-02 -3.950283e-02 -4.118494e-02 -4.318083e-02 -4.480595e-02 -4.671028e-02 -4.822008e-02 -4.989901e-02 -5.123548e-02 -5.257980e-02 -5.368677e-02 -5.462280e-02 -5.544461e-02 -5.593675e-02 -5.641732e-02 -5.646433e-02 -5.655048e-02 -5.617882e-02 -5.582964e-02 -5.508692e-02 -5.428669e-02 -5.323602e-02 -5.200485e-02 -5.071969e-02 -4.911654e-02 -4.767517e-02 -4.579177e-02 -4.427151e-02 -4.221990e-02 -4.069171e-02 -3.858981e-02 -3.711390e-02 -3.507300e-02 -3.369614e-02 -3.181212e-02 -3.056678e-02 -2.891569e-02 -2.782089e-02 
-2.705994e-02 -2.608627e-02 -2.503851e-02 -2.422849e-02 -2.351187e-02 -2.287039e-02 -2.248626e-02 -2.201713e-02 -2.195660e-02 -2.166657e-02 -2.191312e-02 -2.181545e-02 -2.234731e-02 -2.246333e-02 -2.325576e-02 -2.361315e-02 -2.464050e-02 -2.526755e-02 -2.650500e-02 -2.742160e-02 -2.884563e-02 -3.005302e-02 -3.163923e-02 -3.311130e-02 -3.482966e-02 -3.650837e-02 -3.831772e-02 -4.011477e-02 -4.195952e-02 -4.376504e-02 -4.557609e-02 -4.727296e-02 -4.897225e-02 -5.045247e-02 -5.195908e-02 -5.313732e-02 -5.437258e-02 -5.519339e-02 -5.608465e-02 -5.652266e-02 -5.700697e-02 -5.706228e-02 -5.709179e-02 -5.678395e-02 -5.633377e-02 -5.569684e-02 -5.477302e-02 -5.385245e-02 -5.249663e-02 -5.134702e-02 -4.963462e-02 -4.831726e-02 -4.634919e-02 -4.492869e-02 -4.281925e-02 -4.135932e-02 -3.922364e-02 -3.778282e-02 -3.572641e-02 -3.435459e-02 -3.246643e-02 -3.120276e-02 -2.955197e-02 -2.842441e-02 
-2.800217e-02 -2.711365e-02 -2.600543e-02 -2.526716e-02 -2.446104e-02 -2.388520e-02 -2.338302e-02 -2.297909e-02 -2.277335e-02 -2.255100e-02 -2.262807e-02 -2.259937e-02 -2.294234e-02 -2.312222e-02 -2.371314e-02 -2.411732e-02 -2.493877e-02 -2.557887e-02 -2.661478e-02 -2.749171e-02 -2.872684e-02 -2.982431e-02 -3.124190e-02 -3.252234e-02 -3.409982e-02 -3.550421e-02 -3.720824e-02 -3.866067e-02 -4.044351e-02 -4.185975e-02 -4.365856e-02 -4.495685e-02 -4.669627e-02 -4.780743e-02 -4.940439e-02 -5.027839e-02 -5.164762e-02 -5.225529e-02 -5.331473e-02 -5.364506e-02 -5.432153e-02 -5.437673e-02 -5.461279e-02 -5.440361e-02 -5.416559e-02 -5.370871e-02 -5.299429e-02 -5.231208e-02 -5.115456e-02 -5.027618e-02 -4.874314e-02 -4.770547e-02 -4.589143e-02 -4.473862e-02 -4.275357e-02 -4.153473e-02 -3.949168e-02 -3.825723e-02 -3.626132e-02 -3.505898e-02 -3.319982e-02 -3.207126e-02 -3.041897e-02 -2.939784e-02 
-2.874218e-02 -2.781796e-02 -2.669993e-02 -2.593101e-02 -2.510679e-02 -2.451337e-02 -2.397951e-02 -2.357729e-02 -2.332287e-02 -2.312475e-02 -2.313528e-02 -2.315224e-02 -2.341316e-02 -2.365377e-02 -2.415323e-02 -2.462146e-02 -2.535205e-02 -2.604378e-02 -2.700248e-02 -2.790173e-02 -2.908777e-02 -3.016398e-02 -3.157409e-02 -3.278174e-02 -3.440350e-02 -3.568457e-02 -3.748940e-02 -3.877865e-02 -4.071646e-02 -4.194859e-02 -4.394599e-02 -4.506295e-02 -4.702583e-02 -4.798225e-02 -4.980258e-02 -5.056784e-02 -5.213314e-02 -5.268991e-02 -5.389412e-02 -5.423442e-02 -5.498881e-02 -5.510957e-02 -5.535280e-02 -5.525300e-02 -5.495928e-02 -5.463973e-02 -5.382360e-02 -5.328931e-02 -5.200521e-02 -5.126896e-02 -4.960497e-02 -4.869028e-02 -4.675711e-02 -4.569906e-02 -4.361677e-02 -4.246026e-02 -4.034577e-02 -3.914155e-02 -3.709879e-02 -3.589868e-02 -3.401257e-02 -3.286501e-02 -3.119894e-02 -3.014595e-02 
-2.912627e-02 -2.826827e-02 -2.707629e-02 -2.636696e-02 -2.544978e-02 -2.491609e-02 -2.427004e-02 -2.393310e-02 -2.354804e-02 -2.342403e-02 -2.328770e-02 -2.338783e-02 -2.348977e-02 -2.381870e-02 -2.415308e-02 -2.470603e-02 -2.527307e-02 -2.603238e-02 -2.683774e-02 -2.777020e-02 -2.882196e-02 -2.987850e-02 -3.118162e-02 -3.230041e-02 -3.384943e-02 -3.496242e-02 -3.673386e-02 -3.777591e-02 -3.972234e-02 -4.064068e-02 -4.268853e-02 -4.344999e-02 -4.550206e-02 -4.609549e-02 -4.803815e-02 -4.847103e-02 -5.018454e-02 -5.047490e-02 -5.184510e-02 -5.201144e-02 -5.294123e-02 -5.299389e-02 -5.341354e-02 -5.335017e-02 -5.322565e-02 -5.303228e-02 -5.237037e-02 -5.202748e-02 -5.087605e-02 -5.036754e-02 -4.881015e-02 -4.813200e-02 -4.627732e-02 -4.544281e-02 -4.341131e-02 -4.245138e-02 -4.036202e-02 -3.932130e-02 -3.728074e-02 -3.621123e-02 -3.430682e-02 -3.326138e-02 -3.155813e-02 -3.058551e-02 
-3.000988e-02 -2.910857e-02 -2.791223e-02 -2.716422e-02 -2.623584e-02 -2.567480e-02 -2.500213e-02 -2.465394e-02 -2.422015e-02 -2.410294e-02 -2.389206e-02 -2.401507e-02 -2.401689e-02 -2.437812e-02 -2.459202e-02 -2.517520e-02 -2.561199e-02 -2.638435e-02 -2.706507e-02 -2.797748e-02 -2.892881e-02 -2.991936e-02 -3.116578e-02 -3.216703e-02 -3.372080e-02 -3.466943e-02 -3.651989e-02 -3.736661e-02 -3.947093e-02 -4.018773e-02 -4.246557e-02 -4.304803e-02 -4.538257e-02 -4.584581e-02 -4.809234e-02 -4.846196e-02 -5.046334e-02 -5.076408e-02 -5.236992e-02 -5.261560e-02 -5.370137e-02 -5.388863e-02 -5.437130e-02 -5.447874e-02 -5.432693e-02 -5.431975e-02 -5.355686e-02 -5.339608e-02 -5.209561e-02 -5.174921e-02 -5.002296e-02 -4.947581e-02 -4.745748e-02 -4.671698e-02 -4.454496e-02 -4.364109e-02 -4.144384e-02 -4.042441e-02 -3.831038e-02 -3.723354e-02 -3.528607e-02 -3.421263e-02 -3.248900e-02 -3.147641e-02 
-2.986840e-02 -2.900687e-02 -2.772360e-02 -2.701628e-02 -2.599168e-02 -2.547907e-02 -2.469933e-02 -2.441320e-02 -2.386107e-02 -2.382422e-02 -2.348498e-02 -2.370928e-02 -2.357602e-02 -2.405875e-02 -2.413638e-02 -2.485574e-02 -2.516272e-02 -2.607442e-02 -2.664118e-02 -2.767822e-02 -2.854165e-02 -2.961910e-02 -3.081321e-02 -3.183837e-02 -3.338244e-02 -3.426916e-02 -3.615544e-02 -3.683985e-02 -3.902346e-02 -3.947707e-02 -4.187112e-02 -4.210691e-02 -4.458526e-02 -4.465347e-02 -4.706156e-02 -4.703532e-02 -4.920725e-02 -4.916183e-02 -5.093987e-02 -5.093193e-02 -5.218476e-02 -5.223723e-02 -5.287448e-02 -5.297092e-02 -5.295312e-02 -5.304280e-02 -5.238553e-02 -5.239804e-02 -5.116919e-02 -5.103457e-02 -4.934414e-02 -4.901222e-02 -4.699644e-02 -4.644927e-02 -4.425236e-02 -4.350669e-02 -4.126435e-02 -4.036536e-02 -3.819277e-02 -3.720322e-02 -3.518854e-02 -3.417747e-02 -3.238038e-02 -3.141447e-02 
-3.089605e-02 -2.997567e-02 -2.870323e-02 -2.794249e-02 -2.692221e-02 -2.636769e-02 -2.557304e-02 -2.526076e-02 -2.466361e-02 -2.461806e-02 -2.419597e-02 -2.442705e-02 -2.417037e-02 -2.466846e-02 -2.458601e-02 -2.531686e-02 -2.543882e-02 -2.634093e-02 -2.671699e-02 -2.770446e-02 -2.839659e-02 -2.936890e-02 -3.043939e-02 -3.129753e-02 -3.279399e-02 -3.345948e-02 -3.539841e-02 -3.583056e-02 -3.818172e-02 -3.838764e-02 -4.106276e-02 -4.109561e-02 -4.394650e-02 -4.389102e-02 -4.672091e-02 -4.667018e-02 -4.925804e-02 -4.928895e-02 -5.142098e-02 -5.157539e-02 -5.307554e-02 -5.335071e-02 -5.410415e-02 -5.445360e-02 -5.442027e-02 -5.476443e-02 -5.398126e-02 -5.422598e-02 -5.279736e-02 -5.285594e-02 -5.093374e-02 -5.074676e-02 -4.850489e-02 -4.805194e-02 -4.566174e-02 -4.496272e-02 -4.257424e-02 -4.168146e-02 -3.941281e-02 -3.839841e-02 -3.633230e-02 -3.527552e-02 -3.346107e-02 -3.243845e-02 
-3.024326e-02 -2.932839e-02 -2.795797e-02 -2.721214e-02 -2.609398e-02 -2.557067e-02 -2.467453e-02 -2.441643e-02 -2.371198e-02 -2.375041e-02 -2.321517e-02 -2.356634e-02 -2.319298e-02 -2.385129e-02 -2.365371e-02 -2.458378e-02 -2.460026e-02 -2.573134e-02 -2.602264e-02 -2.724919e-02 -2.789031e-02 -2.908139e-02 -3.014721e-02 -3.116490e-02 -3.271175e-02 -3.343606e-02 -3.548203e-02 -3.583724e-02 -3.834488e-02 -3.832074e-02 -4.118716e-02 -4.084700e-02 -4.390619e-02 -4.337609e-02 -4.641552e-02 -4.585491e-02 -4.864299e-02 -4.820519e-02 -5.052240e-02 -5.031730e-02 -5.198348e-02 -5.205225e-02 -5.294656e-02 -5.325353e-02 -5.332686e-02 -5.376995e-02 -5.304947e-02 -5.348731e-02 -5.207105e-02 -5.236047e-02 -5.040083e-02 -5.043308e-02 -4.811200e-02 -4.783544e-02 -4.533738e-02 -4.476079e-02 -4.225024e-02 -4.143026e-02 -3.903743e-02 -3.805878e-02 -3.587412e-02 -3.483074e-02 -3.290634e-02 -3.188794e-02 
-3.140995e-02 -3.041310e-02 -2.908240e-02 -2.826233e-02 -2.717675e-02 -2.659274e-02 -2.570428e-02 -2.540344e-02 -2.466536e-02 -2.468156e-02 -2.405796e-02 -2.440668e-02 -2.388265e-02 -2.455183e-02 -2.414281e-02 -2.508283e-02 -2.484023e-02 -2.595802e-02 -2.596747e-02 -2.713050e-02 -2.750117e-02 -2.855429e-02 -2.940126e-02 -3.019477e-02 -3.161740e-02 -3.204037e-02 -3.409800e-02 -3.410843e-02 -3.679467e-02 -3.643651e-02 -3.965711e-02 -3.905561e-02 -4.261965e-02 -4.195242e-02 -4.558676e-02 -4.503885e-02 -4.842705e-02 -4.814635e-02 -5.098063e-02 -5.104652e-02 -5.307585e-02 -5.348537e-02 -5.454961e-02 -5.522057e-02 -5.526871e-02 -5.605833e-02 -5.515049e-02 -5.588734e-02 -5.417870e-02 -5.470171e-02 -5.240969e-02 -5.260329e-02 -4.996659e-02 -4.978135e-02 -4.702289e-02 -4.647643e-02 -4.377859e-02 -4.294033e-02 -4.043429e-02 -3.940311e-02 -3.716918e-02 -3.605253e-02 -3.412685e-02 -3.302612e-02 
-3.024020e-02 -2.920646e-02 -2.777094e-02 -2.693315e-02 -2.575170e-02 -2.517503e-02 -2.419285e-02 -2.393148e-02 -2.309727e-02 -2.319473e-02 -2.247082e-02 -2.295444e-02 -2.232707e-02 -2.319626e-02 -2.268521e-02 -2.389668e-02 -2.356190e-02 -2.501793e-02 -2.495882e-02 -2.650586e-02 -2.684984e-02 -2.829251e-02 -2.917371e-02 -3.030399e-02 -3.183549e-02 -3.247307e-02 -3.471610e-02 -3.475227e-02 -3.768679e-02 -3.712149e-02 -4.062626e-02 -3.958402e-02 -4.343664e-02 -4.214878e-02 -4.605122e-02 -4.480298e-02 -4.842678e-02 -4.748681e-02 -5.052332e-02 -5.007998e-02 -5.228029e-02 -5.240109e-02 -5.360149e-02 -5.422107e-02 -5.435835e-02 -5.529613e-02 -5.441442e-02 -5.542070e-02 -5.366468e-02 -5.448687e-02 -5.207615e-02 -5.252425e-02 -4.971339e-02 -4.969872e-02 -4.673500e-02 -4.627089e-02 -4.336185e-02 -4.253615e-02 -3.983257e-02 -3.877087e-02 -3.636408e-02 -3.519865e-02 -3.312747e-02 -3.197804e-02 
-3.153438e-02 -3.038814e-02 -2.903958e-02 -2.810095e-02 -2.699811e-02 -2.633754e-02 -2.540210e-02 -2.507881e-02 -2.423576e-02 -2.429824e-02 -2.348802e-02 -2.396637e-02 -2.315951e-02 -2.404934e-02 -2.326230e-02 -2.450452e-02 -2.381167e-02 -2.527774e-02 -2.481140e-02 -2.630522e-02 -2.623941e-02 -2.752310e-02 -2.804725e-02 -2.888703e-02 -3.017649e-02 -3.039888e-02 -3.258152e-02 -3.212616e-02 -3.524165e-02 -3.419407e-02 -3.815102e-02 -3.673755e-02 -4.128794e-02 -3.982403e-02 -4.457940e-02 -4.338654e-02 -4.788299e-02 -4.721137e-02 -5.099899e-02 -5.097934e-02 -5.369795e-02 -5.432401e-02 -5.574992e-02 -5.688510e-02 -5.695448e-02 -5.836084e-02 -5.717309e-02 -5.856310e-02 -5.635704e-02 -5.746007e-02 -5.455962e-02 -5.518329e-02 -5.192889e-02 -5.199384e-02 -4.868470e-02 -4.822145e-02 -4.508298e-02 -4.420037e-02 -4.137656e-02 -4.022113e-02 -3.778319e-02 -3.650526e-02 -3.446707e-02 -3.320024e-02 
-2.981895e-02 -2.858608e-02 -2.713373e-02 -2.613884e-02 -2.494900e-02 -2.426486e-02 -2.324803e-02 -2.293986e-02 -2.201361e-02 -2.214275e-02 -2.124395e-02 -2.186053e-02 -2.095930e-02 -2.208256e-02 -2.119806e-02 -2.278855e-02 -2.200314e-02 -2.393769e-02 -2.340083e-02 -2.546390e-02 -2.537668e-02 -2.727909e-02 -2.786261e-02 -2.928589e-02 -3.074072e-02 -3.140023e-02 -3.386020e-02 -3.357727e-02 -3.705978e-02 -3.582855e-02 -4.019411e-02 -3.821829e-02 -4.316255e-02 -4.083168e-02 -4.592581e-02 -4.372140e-02 -4.848963e-02 -4.685930e-02 -5.086394e-02 -5.011507e-02 -5.301307e-02 -5.325135e-02 -5.482093e-02 -5.593363e-02 -5.609067e-02 -5.777265e-02 -5.658510e-02 -5.841223e-02 -5.609694e-02 -5.764192e-02 -5.452566e-02 -5.547842e-02 -5.193050e-02 -5.216453e-02 -4.852752e-02 -4.808812e-02 -4.462970e-02 -4.367265e-02 -4.056688e-02 -3.928984e-02 -3.662203e-02 -3.521476e-02 -3.299907e-02 -3.161885e-02 
-3.122071e-02 -2.983805e-02 -2.854326e-02 -2.741565e-02 -2.637403e-02 -2.557772e-02 -2.467043e-02 -2.427625e-02 -2.338792e-02 -2.346653e-02 -2.249916e-02 -2.311144e-02 -2.200516e-02 -2.317458e-02 -2.193500e-02 -2.360790e-02 -2.233241e-02 -2.434293e-02 -2.322682e-02 -2.528954e-02 -2.459793e-02 -2.634614e-02 -2.637225e-02 -2.743180e-02 -2.846025e-02 -2.854221e-02 -3.081007e-02 -2.980308e-02 -3.343899e-02 -3.147544e-02 -3.641663e-02 -3.387575e-02 -3.980110e-02 -3.721924e-02 -4.355982e-02 -4.147208e-02 -4.752694e-02 -4.633379e-02 -5.143507e-02 -5.133617e-02 -5.496765e-02 -5.594682e-02 -5.779799e-02 -5.963517e-02 -5.962613e-02 -6.193655e-02 -6.022992e-02 -6.254355e-02 -5.951628e-02 -6.139179e-02 -5.754263e-02 -5.867597e-02 -5.450476e-02 -5.478957e-02 -5.070426e-02 -5.021547e-02 -4.649220e-02 -4.541869e-02 -4.220577e-02 -4.077571e-02 -3.811980e-02 -3.654689e-02 -3.442362e-02 -3.288116e-02 
-2.890246e-02 -2.737980e-02 -2.599580e-02 -2.477107e-02 -2.366248e-02 -2.280573e-02 -2.183684e-02 -2.142065e-02 -2.046563e-02 -2.057630e-02 -1.953247e-02 -2.026259e-02 -1.906825e-02 -2.048473e-02 -1.914425e-02 -2.123680e-02 -1.985125e-02 -2.247997e-02 -2.126442e-02 -2.413299e-02 -2.339370e-02 -2.607464e-02 -2.615997e-02 -2.816111e-02 -2.940529e-02 -3.026534e-02 -3.292451e-02 -3.232801e-02 -3.649767e-02 -3.439637e-02 -3.992708e-02 -3.662783e-02 -4.309304e-02 -3.923761e-02 -4.599967e-02 -4.239165e-02 -4.874215e-02 -4.611444e-02 -5.142999e-02 -5.027033e-02 -5.408745e-02 -5.455622e-02 -5.657880e-02 -5.848967e-02 -5.859839e-02 -6.144826e-02 -5.973808e-02 -6.281294e-02 -5.961189e-02 -6.218978e-02 -5.799887e-02 -5.958317e-02 -5.495565e-02 -5.539341e-02 -5.081523e-02 -5.024486e-02 -4.606277e-02 -4.477666e-02 -4.118320e-02 -3.950090e-02 -3.655789e-02 -3.475136e-02 -3.242752e-02 -3.069615e-02 
-3.038115e-02 -2.866679e-02 -2.753843e-02 -2.614561e-02 -2.528423e-02 -2.428149e-02 -2.351799e-02 -2.298243e-02 -2.214700e-02 -2.218089e-02 -2.111628e-02 -2.183876e-02 -2.042721e-02 -2.192955e-02 -2.013965e-02 -2.240890e-02 -2.035526e-02 -2.319590e-02 -2.116499e-02 -2.416382e-02 -2.255344e-02 -2.514072e-02 -2.438443e-02 -2.595276e-02 -2.648325e-02 -2.653579e-02 -2.876001e-02 -2.706834e-02 -3.128693e-02 -2.802755e-02 -3.427376e-02 -3.006916e-02 -3.793867e-02 -3.370431e-02 -4.233173e-02 -3.894911e-02 -4.723079e-02 -4.531661e-02 -5.224793e-02 -5.208601e-02 -5.694072e-02 -5.849307e-02 -6.084892e-02 -6.377266e-02 -6.352195e-02 -6.720595e-02 -6.460316e-02 -6.828141e-02 -6.393448e-02 -6.688669e-02 -6.158956e-02 -6.333948e-02 -5.784367e-02 -5.827382e-02 -5.313596e-02 -5.243284e-02 -4.797612e-02 -4.648339e-02 -4.283446e-02 -4.091588e-02 -3.806634e-02 -3.602499e-02 -3.388650e-02 -3.193895e-02 
-2.736702e-02 -2.546529e-02 -2.428408e-02 -2.275950e-02 -2.186809e-02 -2.076636e-02 -1.997156e-02 -1.936131e-02 -1.848047e-02 -1.848020e-02 -1.735307e-02 -1.812948e-02 -1.663732e-02 -1.835666e-02 -1.645868e-02 -1.919273e-02 -1.699190e-02 -2.061133e-02 -1.841120e-02 -2.251341e-02 -2.077413e-02 -2.472643e-02 -2.397959e-02 -2.702027e-02 -2.779750e-02 -2.917356e-02 -3.193566e-02 -3.107326e-02 -3.607865e-02 -3.279937e-02 -3.992179e-02 -3.465665e-02 -4.328169e-02 -3.709809e-02 -4.623774e-02 -4.049358e-02 -4.904988e-02 -4.493759e-02 -5.202682e-02 -5.029684e-02 -5.532837e-02 -5.621477e-02 -5.880913e-02 -6.202114e-02 -6.198630e-02 -6.671685e-02 -6.415614e-02 -6.919966e-02 -6.461242e-02 -6.872009e-02 -6.290188e-02 -6.527169e-02 -5.907860e-02 -5.958236e-02 -5.371584e-02 -5.272217e-02 -4.762340e-02 -4.568837e-02 -4.154520e-02 -3.918537e-02 -3.599842e-02 -3.359302e-02 -3.125014e-02 -2.903392e-02 
-2.887825e-02 -2.674372e-02 -2.594444e-02 -2.421792e-02 -2.370618e-02 -2.242015e-02 -2.197072e-02 -2.119192e-02 -2.056718e-02 -2.043744e-02 -1.939346e-02 -2.013448e-02 -1.844850e-02 -2.029579e-02 -1.783998e-02 -2.090058e-02 -1.778182e-02 -2.186634e-02 -1.852305e-02 -2.302891e-02 -2.006673e-02 -2.410136e-02 -2.213056e-02 -2.470471e-02 -2.433074e-02 -2.458172e-02 -2.646137e-02 -2.390698e-02 -2.867370e-02 -2.349445e-02 -3.144896e-02 -2.466532e-02 -3.534505e-02 -2.857828e-02 -4.059782e-02 -3.530460e-02 -4.681872e-02 -4.389956e-02 -5.338732e-02 -5.320026e-02 -5.970018e-02 -6.216902e-02 -6.513642e-02 -6.975774e-02 -6.900934e-02 -7.483163e-02 -7.072384e-02 -7.648590e-02 -7.002641e-02 -7.453225e-02 -6.703717e-02 -6.952257e-02 -6.214583e-02 -6.253556e-02 -5.602123e-02 -5.476003e-02 -4.944241e-02 -4.716628e-02 -4.308941e-02 -4.037879e-02 -3.742399e-02 -3.469737e-02 -3.267419e-02 -3.018200e-02 