# vtk DataFile Version 2.0
Comment goes here
ASCII

DATASET STRUCTURED_POINTS
DIMENSIONS    64   64   1

ORIGIN    0.000   0.000   0.000
SPACING   0.0156250.015625   1.000

POINT_DATA   4096
SCALARS uY double
LOOKUP_TABLE default

-7.597341e-02 -7.050478e-02 -6.561407e-02 -6.235969e-02 -5.988080e-02 -5.880504e-02 -5.871894e-02 -5.962346e-02 -6.167364e-02 -6.397489e-02 -6.749760e-02 -7.023407e-02 -7.432289e-02 -7.673008e-02 -8.077819e-02 -8.337645e-02 -8.759306e-02 -9.263867e-02 -9.726502e-02 -1.052981e-01 -1.104976e-01 -1.201223e-01 -1.269878e-01 -1.380969e-01 -1.482463e-01 -1.619631e-01 -1.763709e-01 -1.928458e-01 -2.103886e-01 -2.276061e-01 -2.452798e-01 -2.601832e-01 -2.749650e-01 -2.854225e-01 -2.958157e-01 -3.014879e-01 -3.077077e-01 -3.097058e-01 -3.130220e-01 -3.130448e-01 -3.147755e-01 -3.139977e-01 -3.144546e-01 -3.126680e-01 -3.108193e-01 -3.066689e-01 -3.010289e-01 -2.932619e-01 -2.831758e-01 -2.716441e-01 -2.577439e-01 -2.434050e-01 -2.271785e-01 -2.115390e-01 -1.946937e-01 -1.792516e-01 -1.632262e-01 -1.490989e-01 -1.348285e-01 -1.226512e-01 -1.106000e-01 -1.006335e-01 -9.095918e-02 -8.325389e-02 
-8.494307e-02 -7.966205e-02 -7.487786e-02 -7.161568e-02 -6.904019e-02 -6.772837e-02 -6.728260e-02 -6.770412e-02 -6.910019e-02 -7.077359e-02 -7.343646e-02 -7.568258e-02 -7.893361e-02 -8.130877e-02 -8.481550e-02 -8.776869e-02 -9.184813e-02 -9.680593e-02 -1.017798e-01 -1.092340e-01 -1.152971e-01 -1.245696e-01 -1.322172e-01 -1.430992e-01 -1.532416e-01 -1.661362e-01 -1.792858e-01 -1.939841e-01 -2.092729e-01 -2.242395e-01 -2.395392e-01 -2.525920e-01 -2.657021e-01 -2.752606e-01 -2.849672e-01 -2.906727e-01 -2.969569e-01 -2.994898e-01 -3.031062e-01 -3.035824e-01 -3.053470e-01 -3.045476e-01 -3.046308e-01 -3.024473e-01 -3.001720e-01 -2.957672e-01 -2.901865e-01 -2.827915e-01 -2.735247e-01 -2.631030e-01 -2.506682e-01 -2.379547e-01 -2.235108e-01 -2.096594e-01 -1.945658e-01 -1.807625e-01 -1.662173e-01 -1.534044e-01 -1.402521e-01 -1.290291e-01 -1.177536e-01 -1.084259e-01 -9.925136e-02 -9.193541e-02 
-9.286307e-02 -8.766039e-02 -8.292347e-02 -7.958101e-02 -7.686291e-02 -7.531829e-02 -7.454771e-02 -7.461548e-02 -7.556815e-02 -7.688877e-02 -7.915792e-02 -8.128166e-02 -8.439907e-02 -8.708727e-02 -9.076243e-02 -9.433760e-02 -9.859132e-02 -1.038325e-01 -1.087846e-01 -1.159220e-01 -1.217769e-01 -1.304297e-01 -1.377273e-01 -1.477901e-01 -1.572035e-01 -1.688466e-01 -1.806057e-01 -1.935288e-01 -2.068766e-01 -2.198999e-01 -2.332350e-01 -2.447477e-01 -2.564105e-01 -2.651903e-01 -2.741819e-01 -2.798492e-01 -2.860107e-01 -2.889398e-01 -2.926784e-01 -2.935760e-01 -2.953708e-01 -2.947400e-01 -2.946716e-01 -2.924474e-01 -2.900759e-01 -2.857358e-01 -2.804740e-01 -2.735532e-01 -2.652063e-01 -2.557426e-01 -2.447405e-01 -2.333246e-01 -2.205687e-01 -2.081165e-01 -1.946833e-01 -1.821615e-01 -1.690414e-01 -1.572595e-01 -1.452033e-01 -1.347224e-01 -1.242127e-01 -1.153617e-01 -1.066674e-01 -9.960871e-02 
-9.979149e-02 -9.476214e-02 -9.010690e-02 -8.677278e-02 -8.396516e-02 -8.226606e-02 -8.122299e-02 -8.099527e-02 -8.150642e-02 -8.246998e-02 -8.420257e-02 -8.604347e-02 -8.865655e-02 -9.123740e-02 -9.456567e-02 -9.812940e-02 -1.022552e-01 -1.073176e-01 -1.123861e-01 -1.191526e-01 -1.253173e-01 -1.335933e-01 -1.411169e-01 -1.507434e-01 -1.599483e-01 -1.708377e-01 -1.817492e-01 -1.934912e-01 -2.054850e-01 -2.171267e-01 -2.290152e-01 -2.393470e-01 -2.498826e-01 -2.579640e-01 -2.663287e-01 -2.718019e-01 -2.777600e-01 -2.808081e-01 -2.845384e-01 -2.856001e-01 -2.873604e-01 -2.867646e-01 -2.865769e-01 -2.843012e-01 -2.818760e-01 -2.776176e-01 -2.725963e-01 -2.661023e-01 -2.584114e-01 -2.497737e-01 -2.397893e-01 -2.294932e-01 -2.179506e-01 -2.067309e-01 -1.945179e-01 -1.831668e-01 -1.711282e-01 -1.603391e-01 -1.491503e-01 -1.394377e-01 -1.295671e-01 -1.212624e-01 -1.129987e-01 -1.062884e-01 
-1.058990e-01 -1.009591e-01 -9.636810e-02 -9.300108e-02 -9.011461e-02 -8.828273e-02 -8.704456e-02 -8.662584e-02 -8.688099e-02 -8.767470e-02 -8.918077e-02 -9.097604e-02 -9.347544e-02 -9.618718e-02 -9.951052e-02 -1.032814e-01 -1.073941e-01 -1.124944e-01 -1.174448e-01 -1.239586e-01 -1.298726e-01 -1.376624e-01 -1.447768e-01 -1.537098e-01 -1.622443e-01 -1.721796e-01 -1.820749e-01 -1.926210e-01 -2.033391e-01 -2.137348e-01 -2.243449e-01 -2.336563e-01 -2.431798e-01 -2.506529e-01 -2.584014e-01 -2.636885e-01 -2.693839e-01 -2.725305e-01 -2.762016e-01 -2.774550e-01 -2.792121e-01 -2.787705e-01 -2.785967e-01 -2.764484e-01 -2.741516e-01 -2.701209e-01 -2.654911e-01 -2.594533e-01 -2.524928e-01 -2.445722e-01 -2.356094e-01 -2.262200e-01 -2.158550e-01 -2.056073e-01 -1.945708e-01 -1.841333e-01 -1.731423e-01 -1.631217e-01 -1.527788e-01 -1.436506e-01 -1.344034e-01 -1.264979e-01 -1.186468e-01 -1.121692e-01 
-1.111236e-01 -1.063318e-01 -1.018002e-01 -9.845405e-02 -9.549627e-02 -9.357085e-02 -9.213703e-02 -9.153679e-02 -9.149536e-02 -9.206972e-02 -9.322947e-02 -9.483016e-02 -9.700397e-02 -9.957806e-02 -1.026602e-01 -1.063085e-01 -1.102985e-01 -1.152014e-01 -1.201495e-01 -1.263716e-01 -1.323499e-01 -1.397905e-01 -1.468933e-01 -1.553887e-01 -1.636683e-01 -1.729920e-01 -1.823032e-01 -1.920444e-01 -2.019207e-01 -2.114341e-01 -2.211441e-01 -2.296857e-01 -2.384590e-01 -2.454183e-01 -2.526763e-01 -2.577317e-01 -2.631825e-01 -2.663007e-01 -2.698797e-01 -2.711881e-01 -2.729101e-01 -2.725281e-01 -2.723496e-01 -2.702802e-01 -2.680697e-01 -2.642282e-01 -2.598698e-01 -2.542218e-01 -2.477678e-01 -2.404605e-01 -2.322103e-01 -2.236048e-01 -2.140717e-01 -2.046821e-01 -1.944919e-01 -1.848866e-01 -1.746672e-01 -1.653772e-01 -1.556756e-01 -1.471356e-01 -1.383772e-01 -1.309059e-01 -1.233917e-01 -1.171997e-01 
-1.157219e-01 -1.110095e-01 -1.065392e-01 -1.031847e-01 -1.001851e-01 -9.818621e-02 -9.663346e-02 -9.592773e-02 -9.572856e-02 -9.621120e-02 -9.722167e-02 -9.878845e-02 -1.008556e-01 -1.034617e-01 -1.064721e-01 -1.101600e-01 -1.140622e-01 -1.189080e-01 -1.237018e-01 -1.297062e-01 -1.354323e-01 -1.424931e-01 -1.492161e-01 -1.571755e-01 -1.649056e-01 -1.735372e-01 -1.821134e-01 -1.910472e-01 -2.000642e-01 -2.087642e-01 -2.176239e-01 -2.254861e-01 -2.335576e-01 -2.400706e-01 -2.468536e-01 -2.517124e-01 -2.569106e-01 -2.600232e-01 -2.635121e-01 -2.649173e-01 -2.666477e-01 -2.664010e-01 -2.663095e-01 -2.644109e-01 -2.624019e-01 -2.588140e-01 -2.548280e-01 -2.495668e-01 -2.436816e-01 -2.369045e-01 -2.293888e-01 -2.214186e-01 -2.127110e-01 -2.039943e-01 -1.946306e-01 -1.856647e-01 -1.761949e-01 -1.674557e-01 -1.583757e-01 -1.502675e-01 -1.419807e-01 -1.348143e-01 -1.276217e-01 -1.216148e-01 
-1.195134e-01 -1.149132e-01 -1.104760e-01 -1.071421e-01 -1.040832e-01 -1.020259e-01 -1.003318e-01 -9.950917e-02 -9.910715e-02 -9.944364e-02 -1.002230e-01 -1.016440e-01 -1.034920e-01 -1.059644e-01 -1.088020e-01 -1.123495e-01 -1.161429e-01 -1.208076e-01 -1.255503e-01 -1.313180e-01 -1.370118e-01 -1.437810e-01 -1.504150e-01 -1.580123e-01 -1.655175e-01 -1.736915e-01 -1.818719e-01 -1.902602e-01 -1.987502e-01 -2.068805e-01 -2.151818e-01 -2.225444e-01 -2.301339e-01 -2.362918e-01 -2.427347e-01 -2.474040e-01 -2.524108e-01 -2.554690e-01 -2.588798e-01 -2.603127e-01 -2.620371e-01 -2.618629e-01 -2.618231e-01 -2.600442e-01 -2.581657e-01 -2.547798e-01 -2.510386e-01 -2.460976e-01 -2.405886e-01 -2.342570e-01 -2.272310e-01 -2.198028e-01 -2.116514e-01 -2.035209e-01 -1.947219e-01 -1.863287e-01 -1.773793e-01 -1.691520e-01 -1.605114e-01 -1.528243e-01 -1.448770e-01 -1.380279e-01 -1.310695e-01 -1.252749e-01 
-1.228291e-01 -1.182808e-01 -1.138827e-01 -1.105425e-01 -1.074534e-01 -1.053491e-01 -1.035744e-01 -1.026862e-01 -1.021771e-01 -1.024546e-01 -1.031250e-01 -1.045119e-01 -1.062639e-01 -1.087243e-01 -1.114732e-01 -1.149989e-01 -1.186861e-01 -1.232701e-01 -1.278608e-01 -1.334537e-01 -1.389261e-01 -1.454156e-01 -1.517387e-01 -1.589534e-01 -1.660425e-01 -1.737431e-01 -1.814066e-01 -1.892659e-01 -1.971802e-01 -2.047898e-01 -2.125302e-01 -2.194551e-01 -2.265750e-01 -2.324329e-01 -2.385459e-01 -2.430671e-01 -2.478920e-01 -2.509302e-01 -2.542853e-01 -2.557851e-01 -2.575512e-01 -2.574979e-01 -2.575839e-01 -2.559719e-01 -2.543109e-01 -2.511517e-01 -2.477350e-01 -2.430966e-01 -2.380211e-01 -2.320675e-01 -2.255616e-01 -2.185642e-01 -2.109765e-01 -2.032923e-01 -1.950498e-01 -1.870784e-01 -1.786330e-01 -1.707704e-01 -1.625496e-01 -1.551503e-01 -1.475234e-01 -1.408784e-01 -1.341387e-01 -1.284673e-01 
-1.253851e-01 -1.209048e-01 -1.165076e-01 -1.131752e-01 -1.100286e-01 -1.078808e-01 -1.059989e-01 -1.050292e-01 -1.043775e-01 -1.045517e-01 -1.050649e-01 -1.063412e-01 -1.079442e-01 -1.102920e-01 -1.129190e-01 -1.163222e-01 -1.199232e-01 -1.243607e-01 -1.288941e-01 -1.343069e-01 -1.397262e-01 -1.459975e-01 -1.522322e-01 -1.591837e-01 -1.661115e-01 -1.734992e-01 -1.809147e-01 -1.884238e-01 -1.960260e-01 -2.032841e-01 -2.107002e-01 -2.173210e-01 -2.241614e-01 -2.298020e-01 -2.357190e-01 -2.401238e-01 -2.448460e-01 -2.478575e-01 -2.511902e-01 -2.527284e-01 -2.545327e-01 -2.545634e-01 -2.547368e-01 -2.532506e-01 -2.517286e-01 -2.487473e-01 -2.455299e-01 -2.411329e-01 -2.363193e-01 -2.306706e-01 -2.244774e-01 -2.178324e-01 -2.105840e-01 -2.032722e-01 -1.953661e-01 -1.877561e-01 -1.796172e-01 -1.720782e-01 -1.641139e-01 -1.569821e-01 -1.495503e-01 -1.431071e-01 -1.364969e-01 -1.309593e-01 
-1.275738e-01 -1.231043e-01 -1.187095e-01 -1.153555e-01 -1.121712e-01 -1.099808e-01 -1.080328e-01 -1.070128e-01 -1.062800e-01 -1.064089e-01 -1.068381e-01 -1.080817e-01 -1.096040e-01 -1.119274e-01 -1.144732e-01 -1.178429e-01 -1.213489e-01 -1.257193e-01 -1.301278e-01 -1.354204e-01 -1.406698e-01 -1.467594e-01 -1.527677e-01 -1.594776e-01 -1.661175e-01 -1.732147e-01 -1.802895e-01 -1.874834e-01 -1.947198e-01 -2.016750e-01 -2.087429e-01 -2.151132e-01 -2.216674e-01 -2.271399e-01 -2.328641e-01 -2.371932e-01 -2.418263e-01 -2.448450e-01 -2.481851e-01 -2.497937e-01 -2.516868e-01 -2.518321e-01 -2.521624e-01 -2.508257e-01 -2.495215e-01 -2.467236e-01 -2.437799e-01 -2.396010e-01 -2.351074e-01 -2.297063e-01 -2.238617e-01 -2.174802e-01 -2.105848e-01 -2.035331e-01 -1.959593e-01 -1.885865e-01 -1.807375e-01 -1.733970e-01 -1.656665e-01 -1.586853e-01 -1.514250e-01 -1.450818e-01 -1.385811e-01 -1.330958e-01 
-1.290227e-01 -1.245715e-01 -1.201407e-01 -1.167728e-01 -1.135245e-01 -1.112925e-01 -1.092569e-01 -1.081746e-01 -1.073389e-01 -1.073928e-01 -1.077151e-01 -1.088779e-01 -1.103021e-01 -1.125416e-01 -1.150080e-01 -1.182879e-01 -1.217374e-01 -1.260060e-01 -1.303762e-01 -1.355503e-01 -1.407654e-01 -1.467169e-01 -1.526749e-01 -1.592248e-01 -1.657805e-01 -1.726972e-01 -1.796489e-01 -1.866514e-01 -1.937389e-01 -2.005118e-01 -2.074323e-01 -2.136544e-01 -2.200932e-01 -2.254718e-01 -2.311343e-01 -2.354319e-01 -2.400642e-01 -2.431083e-01 -2.465018e-01 -2.481794e-01 -2.501663e-01 -2.504109e-01 -2.508621e-01 -2.496470e-01 -2.484816e-01 -2.458257e-01 -2.430334e-01 -2.390169e-01 -2.346821e-01 -2.294611e-01 -2.237761e-01 -2.175851e-01 -2.108416e-01 -2.039795e-01 -1.965414e-01 -1.893454e-01 -1.816090e-01 -1.744221e-01 -1.667767e-01 -1.599186e-01 -1.527135e-01 -1.464591e-01 -1.399830e-01 -1.345508e-01 
-1.301755e-01 -1.256851e-01 -1.212104e-01 -1.177942e-01 -1.144889e-01 -1.122057e-01 -1.101051e-01 -1.089749e-01 -1.080717e-01 -1.080866e-01 -1.083437e-01 -1.094789e-01 -1.108415e-01 -1.130616e-01 -1.154673e-01 -1.187265e-01 -1.221089e-01 -1.263438e-01 -1.306312e-01 -1.357483e-01 -1.408567e-01 -1.467231e-01 -1.525441e-01 -1.589821e-01 -1.653696e-01 -1.721544e-01 -1.789139e-01 -1.857782e-01 -1.926668e-01 -1.993141e-01 -2.060546e-01 -2.121834e-01 -2.184885e-01 -2.238209e-01 -2.294170e-01 -2.337209e-01 -2.383640e-01 -2.414628e-01 -2.449420e-01 -2.467121e-01 -2.488480e-01 -2.492106e-01 -2.498571e-01 -2.487748e-01 -2.478324e-01 -2.453159e-01 -2.427558e-01 -2.388779e-01 -2.347673e-01 -2.296769e-01 -2.241932e-01 -2.181175e-01 -2.115420e-01 -2.047737e-01 -1.974649e-01 -1.903371e-01 -1.826909e-01 -1.755456e-01 -1.679539e-01 -1.611119e-01 -1.539289e-01 -1.476680e-01 -1.411873e-01 -1.357300e-01 
-1.305820e-01 -1.260576e-01 -1.215081e-01 -1.180517e-01 -1.146714e-01 -1.123417e-01 -1.101652e-01 -1.089837e-01 -1.080057e-01 -1.079669e-01 -1.081549e-01 -1.092364e-01 -1.105416e-01 -1.127093e-01 -1.150741e-01 -1.182820e-01 -1.216425e-01 -1.258253e-01 -1.301076e-01 -1.351709e-01 -1.402841e-01 -1.460946e-01 -1.519209e-01 -1.583009e-01 -1.646862e-01 -1.714131e-01 -1.781614e-01 -1.849729e-01 -1.918485e-01 -1.984576e-01 -2.051971e-01 -2.113134e-01 -2.176451e-01 -2.229992e-01 -2.286612e-01 -2.330235e-01 -2.377745e-01 -2.409643e-01 -2.445863e-01 -2.464697e-01 -2.487685e-01 -2.492537e-01 -2.500636e-01 -2.491006e-01 -2.483023e-01 -2.458918e-01 -2.434400e-01 -2.396480e-01 -2.356001e-01 -2.305724e-01 -2.251038e-01 -2.190674e-01 -2.124650e-01 -2.057156e-01 -1.983487e-01 -1.912236e-01 -1.835006e-01 -1.763461e-01 -1.686703e-01 -1.618110e-01 -1.545438e-01 -1.482599e-01 -1.416988e-01 -1.362132e-01 
-1.307306e-01 -1.261118e-01 -1.214676e-01 -1.179304e-01 -1.144689e-01 -1.120728e-01 -1.098270e-01 -1.085942e-01 -1.075579e-01 -1.074839e-01 -1.076235e-01 -1.086857e-01 -1.099514e-01 -1.121138e-01 -1.144457e-01 -1.176581e-01 -1.209883e-01 -1.251808e-01 -1.294313e-01 -1.345056e-01 -1.395812e-01 -1.454023e-01 -1.511821e-01 -1.575729e-01 -1.639025e-01 -1.706426e-01 -1.773296e-01 -1.841610e-01 -1.909790e-01 -1.976199e-01 -2.043207e-01 -2.104859e-01 -2.168154e-01 -2.222395e-01 -2.279519e-01 -2.324067e-01 -2.372707e-01 -2.405731e-01 -2.443708e-01 -2.463813e-01 -2.489059e-01 -2.495232e-01 -2.505853e-01 -2.497469e-01 -2.491953e-01 -2.468871e-01 -2.446434e-01 -2.409179e-01 -2.370129e-01 -2.320063e-01 -2.266021e-01 -2.205392e-01 -2.139251e-01 -2.071070e-01 -1.996673e-01 -1.924428e-01 -1.846073e-01 -1.773362e-01 -1.695294e-01 -1.625488e-01 -1.551492e-01 -1.487483e-01 -1.420638e-01 -1.364712e-01 
-1.300983e-01 -1.253941e-01 -1.206383e-01 -1.170346e-01 -1.134875e-01 -1.110388e-01 -1.087268e-01 -1.074513e-01 -1.063638e-01 -1.062548e-01 -1.063573e-01 -1.073917e-01 -1.086354e-01 -1.107775e-01 -1.131048e-01 -1.163057e-01 -1.196509e-01 -1.238423e-01 -1.281276e-01 -1.332134e-01 -1.383422e-01 -1.441894e-01 -1.500380e-01 -1.564709e-01 -1.628820e-01 -1.696811e-01 -1.764618e-01 -1.833697e-01 -1.902965e-01 -1.970323e-01 -2.038627e-01 -2.101424e-01 -2.166293e-01 -2.221880e-01 -2.280908e-01 -2.326988e-01 -2.377862e-01 -2.412554e-01 -2.453005e-01 -2.474813e-01 -2.502575e-01 -2.510334e-01 -2.523213e-01 -2.516102e-01 -2.512242e-01 -2.489927e-01 -2.468242e-01 -2.431114e-01 -2.391747e-01 -2.341132e-01 -2.285739e-01 -2.223968e-01 -2.155662e-01 -2.085920e-01 -2.008878e-01 -1.934871e-01 -1.853744e-01 -1.779276e-01 -1.698598e-01 -1.627193e-01 -1.550928e-01 -1.485563e-01 -1.416863e-01 -1.359844e-01 
-1.292154e-01 -1.243605e-01 -1.194604e-01 -1.157428e-01 -1.120919e-01 -1.095608e-01 -1.071762e-01 -1.058454e-01 -1.047091e-01 -1.045688e-01 -1.046411e-01 -1.056665e-01 -1.068951e-01 -1.090500e-01 -1.113758e-01 -1.146112e-01 -1.179674e-01 -1.222158e-01 -1.265244e-01 -1.316908e-01 -1.368543e-01 -1.428073e-01 -1.487006e-01 -1.552646e-01 -1.617286e-01 -1.686820e-01 -1.755228e-01 -1.826034e-01 -1.895992e-01 -1.965189e-01 -2.034339e-01 -2.099011e-01 -2.165008e-01 -2.222447e-01 -2.283046e-01 -2.330932e-01 -2.383961e-01 -2.420416e-01 -2.463646e-01 -2.487165e-01 -2.518194e-01 -2.527541e-01 -2.543829e-01 -2.538024e-01 -2.537200e-01 -2.515677e-01 -2.496096e-01 -2.459005e-01 -2.420388e-01 -2.368910e-01 -2.312771e-01 -2.249259e-01 -2.178891e-01 -2.106725e-01 -2.026720e-01 -1.949906e-01 -1.865414e-01 -1.788077e-01 -1.704073e-01 -1.629989e-01 -1.550748e-01 -1.483053e-01 -1.411882e-01 -1.352948e-01 
-1.274867e-01 -1.224996e-01 -1.174590e-01 -1.136537e-01 -1.099136e-01 -1.073276e-01 -1.048906e-01 -1.035279e-01 -1.023653e-01 -1.022095e-01 -1.022752e-01 -1.032981e-01 -1.045379e-01 -1.067035e-01 -1.090591e-01 -1.123212e-01 -1.157288e-01 -1.200249e-01 -1.244098e-01 -1.296509e-01 -1.349190e-01 -1.409786e-01 -1.470067e-01 -1.537122e-01 -1.603418e-01 -1.674706e-01 -1.745072e-01 -1.817925e-01 -1.890131e-01 -1.961596e-01 -2.033279e-01 -2.100361e-01 -2.169187e-01 -2.229116e-01 -2.292867e-01 -2.343282e-01 -2.399790e-01 -2.438770e-01 -2.485720e-01 -2.511668e-01 -2.546397e-01 -2.557883e-01 -2.577398e-01 -2.573139e-01 -2.574488e-01 -2.553578e-01 -2.534581e-01 -2.496918e-01 -2.457008e-01 -2.403723e-01 -2.344513e-01 -2.278146e-01 -2.203382e-01 -2.127685e-01 -2.042620e-01 -1.962050e-01 -1.872494e-01 -1.791580e-01 -1.703015e-01 -1.625822e-01 -1.542810e-01 -1.472615e-01 -1.398550e-01 -1.337739e-01 
-1.254825e-01 -1.202927e-01 -1.150668e-01 -1.111196e-01 -1.072619e-01 -1.045820e-01 -1.020769e-01 -1.006576e-01 -9.946142e-02 -9.927968e-02 -9.933648e-02 -1.003614e-01 -1.016123e-01 -1.038087e-01 -1.061949e-01 -1.095208e-01 -1.129813e-01 -1.173803e-01 -1.218444e-01 -1.272346e-01 -1.326111e-01 -1.388714e-01 -1.450372e-01 -1.519961e-01 -1.587885e-01 -1.662175e-01 -1.734339e-01 -1.810517e-01 -1.884612e-01 -1.959511e-01 -2.033151e-01 -2.103548e-01 -2.174493e-01 -2.237449e-01 -2.303698e-01 -2.356800e-01 -2.416447e-01 -2.457837e-01 -2.508724e-01 -2.536891e-01 -2.576240e-01 -2.589742e-01 -2.614067e-01 -2.611411e-01 -2.616921e-01 -2.596808e-01 -2.580361e-01 -2.542252e-01 -2.502554e-01 -2.447312e-01 -2.385785e-01 -2.316009e-01 -2.236823e-01 -2.156662e-01 -2.065901e-01 -1.980397e-01 -1.884792e-01 -1.799049e-01 -1.704836e-01 -1.623340e-01 -1.535543e-01 -1.461794e-01 -1.383988e-01 -1.320420e-01 
-1.225341e-01 -1.171767e-01 -1.117975e-01 -1.077532e-01 -1.038170e-01 -1.010898e-01 -9.855679e-02 -9.712327e-02 -9.593178e-02 -9.575711e-02 -9.584028e-02 -9.688798e-02 -9.818225e-02 -1.004173e-01 -1.028648e-01 -1.062507e-01 -1.097953e-01 -1.142852e-01 -1.188639e-01 -1.243868e-01 -1.299171e-01 -1.363620e-01 -1.427281e-01 -1.499285e-01 -1.569713e-01 -1.646966e-01 -1.722121e-01 -1.801700e-01 -1.879210e-01 -1.957773e-01 -2.035171e-01 -2.109307e-01 -2.184309e-01 -2.250940e-01 -2.321584e-01 -2.378251e-01 -2.442713e-01 -2.487577e-01 -2.543686e-01 -2.575203e-01 -2.619892e-01 -2.636390e-01 -2.665491e-01 -2.664996e-01 -2.673732e-01 -2.654332e-01 -2.638585e-01 -2.599257e-01 -2.557194e-01 -2.498699e-01 -2.431925e-01 -2.357206e-01 -2.270736e-01 -2.184625e-01 -2.085727e-01 -1.994063e-01 -1.890595e-01 -1.799170e-01 -1.698156e-01 -1.611900e-01 -1.518747e-01 -1.441338e-01 -1.359660e-01 -1.293502e-01 
-1.192486e-01 -1.136487e-01 -1.080623e-01 -1.038610e-01 -9.981208e-02 -9.699005e-02 -9.440781e-02 -9.292349e-02 -9.172318e-02 -9.153083e-02 -9.163118e-02 -9.269078e-02 -9.402264e-02 -9.630253e-02 -9.881016e-02 -1.022829e-01 -1.059183e-01 -1.105502e-01 -1.152609e-01 -1.209958e-01 -1.267082e-01 -1.334476e-01 -1.400487e-01 -1.476309e-01 -1.549542e-01 -1.631401e-01 -1.709632e-01 -1.794347e-01 -1.874966e-01 -1.958789e-01 -2.039161e-01 -2.118221e-01 -2.196118e-01 -2.267001e-01 -2.340807e-01 -2.400982e-01 -2.469410e-01 -2.517241e-01 -2.578562e-01 -2.612820e-01 -2.663977e-01 -2.683127e-01 -2.719274e-01 -2.721073e-01 -2.736054e-01 -2.717893e-01 -2.705872e-01 -2.665883e-01 -2.623683e-01 -2.562074e-01 -2.490995e-01 -2.410799e-01 -2.316718e-01 -2.223516e-01 -2.115269e-01 -2.015969e-01 -1.903018e-01 -1.804384e-01 -1.694933e-01 -1.602529e-01 -1.502599e-01 -1.420364e-01 -1.333703e-01 -1.264014e-01 
-1.148861e-01 -1.091038e-01 -1.033798e-01 -9.909240e-02 -9.500019e-02 -9.215539e-02 -8.958772e-02 -8.811824e-02 -8.696477e-02 -8.680777e-02 -8.697197e-02 -8.807941e-02 -8.948606e-02 -9.182723e-02 -9.442251e-02 -9.797927e-02 -1.017238e-01 -1.064784e-01 -1.113335e-01 -1.172493e-01 -1.231575e-01 -1.301540e-01 -1.370171e-01 -1.449433e-01 -1.526032e-01 -1.612172e-01 -1.694491e-01 -1.784137e-01 -1.869417e-01 -1.958489e-01 -2.043886e-01 -2.128150e-01 -2.211297e-01 -2.287084e-01 -2.366447e-01 -2.431203e-01 -2.505793e-01 -2.558080e-01 -2.626420e-01 -2.665177e-01 -2.723994e-01 -2.747478e-01 -2.790936e-01 -2.796127e-01 -2.816363e-01 -2.799499e-01 -2.788833e-01 -2.747082e-01 -2.701262e-01 -2.634609e-01 -2.555264e-01 -2.467350e-01 -2.361913e-01 -2.259541e-01 -2.138956e-01 -2.030408e-01 -1.906000e-01 -1.799137e-01 -1.680264e-01 -1.581271e-01 -1.474359e-01 -1.387334e-01 -1.296000e-01 -1.223166e-01 
-1.100793e-01 -1.040396e-01 -9.812155e-02 -9.368557e-02 -8.951623e-02 -8.659369e-02 -8.401909e-02 -8.251542e-02 -8.139233e-02 -8.122938e-02 -8.144242e-02 -8.256835e-02 -8.403693e-02 -8.642774e-02 -8.910481e-02 -9.275817e-02 -9.662072e-02 -1.015417e-01 -1.065725e-01 -1.127509e-01 -1.189122e-01 -1.262923e-01 -1.334951e-01 -1.419402e-01 -1.500165e-01 -1.592771e-01 -1.679680e-01 -1.776682e-01 -1.866461e-01 -1.963073e-01 -2.052410e-01 -2.143544e-01 -2.230013e-01 -2.311349e-01 -2.394006e-01 -2.462884e-01 -2.541826e-01 -2.597325e-01 -2.672140e-01 -2.714021e-01 -2.781833e-01 -2.808876e-01 -2.862997e-01 -2.871866e-01 -2.902142e-01 -2.887810e-01 -2.883387e-01 -2.841313e-01 -2.795311e-01 -2.724296e-01 -2.637798e-01 -2.541588e-01 -2.423787e-01 -2.310631e-01 -2.175439e-01 -2.055582e-01 -1.917077e-01 -1.799991e-01 -1.669277e-01 -1.562032e-01 -1.446216e-01 -1.353122e-01 -1.255734e-01 -1.178788e-01 
-1.040301e-01 -9.782969e-02 -9.183540e-02 -8.735724e-02 -8.321616e-02 -8.032110e-02 -7.782916e-02 -7.638657e-02 -7.536770e-02 -7.527641e-02 -7.559686e-02 -7.679472e-02 -7.836759e-02 -8.083295e-02 -8.361543e-02 -8.736076e-02 -9.134380e-02 -9.639990e-02 -1.015886e-01 -1.079779e-01 -1.143623e-01 -1.220614e-01 -1.295796e-01 -1.384738e-01 -1.469755e-01 -1.568152e-01 -1.660392e-01 -1.764183e-01 -1.860081e-01 -1.963894e-01 -2.059662e-01 -2.157719e-01 -2.250550e-01 -2.338038e-01 -2.427115e-01 -2.501392e-01 -2.587598e-01 -2.648360e-01 -2.732206e-01 -2.779944e-01 -2.858725e-01 -2.892219e-01 -2.957890e-01 -2.972539e-01 -3.011943e-01 -3.000465e-01 -2.999123e-01 -2.954969e-01 -2.903767e-01 -2.825300e-01 -2.725967e-01 -2.618039e-01 -2.482701e-01 -2.355776e-01 -2.202183e-01 -2.068890e-01 -1.914181e-01 -1.785705e-01 -1.642536e-01 -1.526715e-01 -1.402419e-01 -1.303567e-01 -1.201117e-01 -1.120789e-01 
-9.737342e-02 -9.094544e-02 -8.482816e-02 -8.024796e-02 -7.611213e-02 -7.318367e-02 -7.075999e-02 -6.931514e-02 -6.838466e-02 -6.830293e-02 -6.870926e-02 -6.992547e-02 -7.157782e-02 -7.408188e-02 -7.695133e-02 -8.078029e-02 -8.488716e-02 -9.010751e-02 -9.549606e-02 -1.021739e-01 -1.088731e-01 -1.170307e-01 -1.250033e-01 -1.345607e-01 -1.436486e-01 -1.543599e-01 -1.642462e-01 -1.756535e-01 -1.858787e-01 -1.973271e-01 -2.074006e-01 -2.181528e-01 -2.277521e-01 -2.371962e-01 -2.463383e-01 -2.541880e-01 -2.631758e-01 -2.695153e-01 -2.786346e-01 -2.837065e-01 -2.928220e-01 -2.966494e-01 -3.048732e-01 -3.069715e-01 -3.126120e-01 -3.120176e-01 -3.130218e-01 -3.087259e-01 -3.036381e-01 -2.952196e-01 -2.841108e-01 -2.720612e-01 -2.565197e-01 -2.421831e-01 -2.245625e-01 -2.095742e-01 -1.920568e-01 -1.777978e-01 -1.618879e-01 -1.492495e-01 -1.357248e-01 -1.251308e-01 -1.142220e-01 -1.057620e-01 
-8.928707e-02 -8.277880e-02 -7.671538e-02 -7.218577e-02 -6.819989e-02 -6.538520e-02 -6.314516e-02 -6.183064e-02 -6.108018e-02 -6.111670e-02 -6.168034e-02 -6.299022e-02 -6.477206e-02 -6.734912e-02 -7.032780e-02 -7.423091e-02 -7.844729e-02 -8.378255e-02 -8.931474e-02 -9.620137e-02 -1.031233e-01 -1.116403e-01 -1.199636e-01 -1.300756e-01 -1.396800e-01 -1.511518e-01 -1.617241e-01 -1.740547e-01 -1.850852e-01 -1.975180e-01 -2.084132e-01 -2.200786e-01 -2.304130e-01 -2.405952e-01 -2.503875e-01 -2.587962e-01 -2.685284e-01 -2.754017e-01 -2.856088e-01 -2.914011e-01 -3.020807e-01 -3.068912e-01 -3.169942e-01 -3.201351e-01 -3.274376e-01 -3.274869e-01 -3.291948e-01 -3.247038e-01 -3.188738e-01 -3.093575e-01 -2.962159e-01 -2.823709e-01 -2.640749e-01 -2.476626e-01 -2.272887e-01 -2.103674e-01 -1.905990e-01 -1.748087e-01 -1.573270e-01 -1.436330e-01 -1.291657e-01 -1.179435e-01 -1.065743e-01 -9.781310e-02 
-8.036373e-02 -7.373199e-02 -6.770529e-02 -6.317698e-02 -5.934406e-02 -5.657780e-02 -5.452412e-02 -5.325856e-02 -5.267720e-02 -5.274180e-02 -5.343225e-02 -5.474875e-02 -5.661371e-02 -5.919389e-02 -6.223532e-02 -6.617341e-02 -7.048025e-02 -7.593406e-02 -8.165129e-02 -8.880694e-02 -9.608101e-02 -1.050964e-01 -1.139966e-01 -1.249128e-01 -1.353289e-01 -1.479488e-01 -1.594894e-01 -1.732584e-01 -1.852217e-01 -1.991936e-01 -2.107301e-01 -2.237324e-01 -2.342689e-01 -2.453085e-01 -2.550257e-01 -2.637518e-01 -2.735494e-01 -2.804337e-01 -2.913285e-01 -2.972587e-01 -3.095981e-01 -3.150323e-01 -3.277587e-01 -3.320339e-01 -3.423364e-01 -3.435943e-01 -3.474970e-01 -3.435351e-01 -3.378903e-01 -3.276581e-01 -3.125078e-01 -2.966797e-01 -2.750274e-01 -2.560335e-01 -2.321287e-01 -2.127594e-01 -1.900677e-01 -1.723705e-01 -1.528411e-01 -1.378679e-01 -1.221666e-01 -1.102001e-01 -9.821590e-02 -8.909334e-02 
-6.982822e-02 -6.328657e-02 -5.753900e-02 -5.322171e-02 -4.972286e-02 -4.720327e-02 -4.547156e-02 -4.443421e-02 -4.412779e-02 -4.436976e-02 -4.527254e-02 -4.670049e-02 -4.871265e-02 -5.134241e-02 -5.447630e-02 -5.843108e-02 -6.280260e-02 -6.829800e-02 -7.409959e-02 -8.140498e-02 -8.885254e-02 -9.822322e-02 -1.074717e-01 -1.190374e-01 -1.300567e-01 -1.436620e-01 -1.560918e-01 -1.711303e-01 -1.841951e-01 -1.995484e-01 -2.121884e-01 -2.264286e-01 -2.377974e-01 -2.497017e-01 -2.598984e-01 -2.690479e-01 -2.793594e-01 -2.865721e-01 -2.986074e-01 -3.053144e-01 -3.198485e-01 -3.268045e-01 -3.426673e-01 -3.489092e-01 -3.623621e-01 -3.650669e-01 -3.705547e-01 -3.664768e-01 -3.597137e-01 -3.478221e-01 -3.293237e-01 -3.106547e-01 -2.845245e-01 -2.623329e-01 -2.342591e-01 -2.121113e-01 -1.863594e-01 -1.666670e-01 -1.452880e-01 -1.291103e-01 -1.125188e-01 -9.997220e-02 -8.773217e-02 -7.845147e-02 
-5.815968e-02 -5.171175e-02 -4.628485e-02 -4.214979e-02 -3.903455e-02 -3.669182e-02 -3.531535e-02 -3.439958e-02 -3.436804e-02 -3.465715e-02 -3.572906e-02 -3.713391e-02 -3.920942e-02 -4.177132e-02 -4.489562e-02 -4.878500e-02 -5.314673e-02 -5.864813e-02 -6.454751e-02 -7.202369e-02 -7.980316e-02 -8.963637e-02 -9.957360e-02 -1.120467e-01 -1.241814e-01 -1.392652e-01 -1.531607e-01 -1.702372e-01 -1.847874e-01 -2.024546e-01 -2.160282e-01 -2.322727e-01 -2.435684e-01 -2.565529e-01 -2.659486e-01 -2.750771e-01 -2.846705e-01 -2.912079e-01 -3.035359e-01 -3.098597e-01 -3.264882e-01 -3.341861e-01 -3.542281e-01 -3.625411e-01 -3.814730e-01 -3.867978e-01 -3.967361e-01 -3.941636e-01 -3.879233e-01 -3.751875e-01 -3.530065e-01 -3.309572e-01 -2.989515e-01 -2.725121e-01 -2.388535e-01 -2.130653e-01 -1.832410e-01 -1.610620e-01 -1.372399e-01 -1.196542e-01 -1.018831e-01 -8.870896e-02 -7.611021e-02 -6.667906e-02 
-4.475434e-02 -3.869387e-02 -3.388927e-02 -3.021081e-02 -2.768090e-02 -2.577180e-02 -2.489058e-02 -2.433332e-02 -2.468726e-02 -2.522797e-02 -2.656978e-02 -2.809984e-02 -3.032990e-02 -3.288894e-02 -3.606203e-02 -3.985281e-02 -4.418695e-02 -4.957332e-02 -5.542828e-02 -6.289775e-02 -7.071563e-02 -8.081130e-02 -9.101406e-02 -1.041902e-01 -1.169831e-01 -1.333298e-01 -1.483908e-01 -1.672558e-01 -1.834136e-01 -2.031158e-01 -2.183481e-01 -2.363847e-01 -2.486923e-01 -2.627354e-01 -2.720526e-01 -2.811212e-01 -2.904061e-01 -2.965214e-01 -3.096187e-01 -3.164733e-01 -3.360458e-01 -3.460968e-01 -3.714653e-01 -3.836319e-01 -4.087784e-01 -4.174090e-01 -4.309436e-01 -4.283245e-01 -4.201195e-01 -4.047855e-01 -3.768483e-01 -3.500762e-01 -3.104309e-01 -2.789014e-01 -2.388530e-01 -2.090857e-01 -1.752852e-01 -1.506452e-01 -1.249442e-01 -1.061733e-01 -8.788843e-02 -7.438503e-02 -6.200695e-02 -5.273409e-02 
-2.987902e-02 -2.428506e-02 -2.023924e-02 -1.701782e-02 -1.519358e-02 -1.363967e-02 -1.333461e-02 -1.299072e-02 -1.375074e-02 -1.435340e-02 -1.590669e-02 -1.735839e-02 -1.959918e-02 -2.197213e-02 -2.499058e-02 -2.854663e-02 -3.266300e-02 -3.784960e-02 -4.358861e-02 -5.100394e-02 -5.901078e-02 -6.938041e-02 -8.031400e-02 -9.437519e-02 -1.086633e-01 -1.268309e-01 -1.441842e-01 -1.659709e-01 -1.847367e-01 -2.081121e-01 -2.250255e-01 -2.463483e-01 -2.580316e-01 -2.735546e-01 -2.805348e-01 -2.887973e-01 -2.956506e-01 -2.994567e-01 -3.116648e-01 -3.167787e-01 -3.386098e-01 -3.493086e-01 -3.812119e-01 -3.971603e-01 -4.325909e-01 -4.469228e-01 -4.700431e-01 -4.711429e-01 -4.640721e-01 -4.479273e-01 -4.126368e-01 -3.794162e-01 -3.288985e-01 -2.899978e-01 -2.410788e-01 -2.059449e-01 -1.667955e-01 -1.391686e-01 -1.109903e-01 -9.098182e-02 -7.201342e-02 -5.830255e-02 -4.618067e-02 -3.720118e-02 
-1.329232e-02 -8.542848e-03 -5.582127e-03 -3.154754e-03 -2.220121e-03 -1.338889e-03 -1.721970e-03 -1.898656e-03 -3.160439e-03 -4.108547e-03 -5.989185e-03 -7.581692e-03 -9.975112e-03 -1.226072e-02 -1.525533e-02 -1.851847e-02 -2.245581e-02 -2.724587e-02 -3.271201e-02 -3.980284e-02 -4.756815e-02 -5.793557e-02 -6.888543e-02 -8.358423e-02 -9.846971e-02 -1.182139e-01 -1.370735e-01 -1.614506e-01 -1.827216e-01 -2.092792e-01 -2.291048e-01 -2.532650e-01 -2.665817e-01 -2.837356e-01 -2.892160e-01 -2.961774e-01 -3.005914e-01 -3.019101e-01 -3.134291e-01 -3.179492e-01 -3.432889e-01 -3.574731e-01 -3.984149e-01 -4.221347e-01 -4.703489e-01 -4.926762e-01 -5.243049e-01 -5.246621e-01 -5.130105e-01 -4.928273e-01 -4.474860e-01 -4.058849e-01 -3.414333e-01 -2.941136e-01 -2.354050e-01 -1.947127e-01 -1.509755e-01 -1.206732e-01 -9.131393e-02 -7.055932e-02 -5.208371e-02 -3.866172e-02 -2.765256e-02 -1.940518e-02 
5.064940e-03 8.792564e-03 1.040185e-02 1.200513e-02 1.183573e-02 1.214370e-02 1.092328e-02 1.043211e-02 8.608773e-03 7.595148e-03 5.454479e-03 4.027847e-03 1.711191e-03 -2.117747e-04 -2.805316e-03 -5.581586e-03 -8.928730e-03 -1.320282e-02 -1.813589e-02 -2.476475e-02 -3.233828e-02 -4.250793e-02 -5.400760e-02 -6.924586e-02 -8.597376e-02 -1.077201e-01 -1.301813e-01 -1.587179e-01 -1.849617e-01 -2.176927e-01 -2.413215e-01 -2.714646e-01 -2.830128e-01 -3.025165e-01 -3.025046e-01 -3.070909e-01 -3.057131e-01 -3.010237e-01 -3.088775e-01 -3.084803e-01 -3.351637e-01 -3.491473e-01 -3.995835e-01 -4.299846e-01 -4.977520e-01 -5.327400e-01 -5.867390e-01 -5.955864e-01 -5.856623e-01 -5.656699e-01 -5.043931e-01 -4.486126e-01 -3.628020e-01 -3.021592e-01 -2.297379e-01 -1.816068e-01 -1.318651e-01 -9.870882e-02 -6.790810e-02 -4.680501e-02 -2.899638e-02 -1.631602e-02 -6.718043e-03 4.645391e-04 