# vtk DataFile Version 2.0
Comment goes here
ASCII

DATASET STRUCTURED_POINTS
DIMENSIONS    64   64   1

ORIGIN    0.000   0.000   0.000
SPACING   0.0156250.015625   1.000

POINT_DATA   4096
SCALARS uY double
LOOKUP_TABLE default

-8.493054e-02 -7.901295e-02 -7.393468e-02 -7.022218e-02 -6.773133e-02 -6.623424e-02 -6.636787e-02 -6.696255e-02 -6.949753e-02 -7.171534e-02 -7.597285e-02 -7.897330e-02 -8.390118e-02 -8.692251e-02 -9.157789e-02 -9.495118e-02 -9.922035e-02 -1.049786e-01 -1.091492e-01 -1.178407e-01 -1.222629e-01 -1.325409e-01 -1.386837e-01 -1.505331e-01 -1.599977e-01 -1.744916e-01 -1.880954e-01 -2.053599e-01 -2.219822e-01 -2.400692e-01 -2.568891e-01 -2.727886e-01 -2.869746e-01 -2.984609e-01 -3.085876e-01 -3.151161e-01 -3.213464e-01 -3.238058e-01 -3.272841e-01 -3.271944e-01 -3.291142e-01 -3.275962e-01 -3.282440e-01 -3.252404e-01 -3.236905e-01 -3.181610e-01 -3.130490e-01 -3.040420e-01 -2.946999e-01 -2.822163e-01 -2.691243e-01 -2.541259e-01 -2.385920e-01 -2.225100e-01 -2.061169e-01 -1.903478e-01 -1.744931e-01 -1.600693e-01 -1.457238e-01 -1.332284e-01 -1.209366e-01 -1.106065e-01 -1.006202e-01 -9.250241e-02 
-9.446017e-02 -8.867112e-02 -8.377854e-02 -8.001119e-02 -7.747448e-02 -7.570486e-02 -7.548993e-02 -7.557297e-02 -7.740364e-02 -7.896060e-02 -8.221621e-02 -8.466643e-02 -8.852418e-02 -9.141855e-02 -9.530969e-02 -9.891279e-02 -1.029877e-01 -1.084841e-01 -1.131250e-01 -1.210679e-01 -1.265616e-01 -1.363899e-01 -1.434169e-01 -1.549762e-01 -1.644522e-01 -1.781136e-01 -1.904847e-01 -2.060258e-01 -2.204470e-01 -2.363587e-01 -2.508328e-01 -2.649259e-01 -2.773944e-01 -2.879812e-01 -2.972988e-01 -3.038458e-01 -3.099795e-01 -3.129958e-01 -3.166308e-01 -3.171115e-01 -3.189896e-01 -3.176931e-01 -3.179683e-01 -3.149010e-01 -3.129549e-01 -3.074992e-01 -3.024486e-01 -2.940483e-01 -2.854893e-01 -2.742251e-01 -2.625587e-01 -2.491861e-01 -2.354289e-01 -2.210638e-01 -2.064677e-01 -1.922333e-01 -1.779509e-01 -1.647319e-01 -1.516240e-01 -1.399814e-01 -1.285915e-01 -1.188124e-01 -1.094439e-01 -1.016426e-01 
-1.018692e-01 -9.630874e-02 -9.142489e-02 -8.775042e-02 -8.501220e-02 -8.319829e-02 -8.256728e-02 -8.247992e-02 -8.373865e-02 -8.507951e-02 -8.778482e-02 -9.015067e-02 -9.372942e-02 -9.686802e-02 -1.008611e-01 -1.050090e-01 -1.092981e-01 -1.151421e-01 -1.198483e-01 -1.275957e-01 -1.330149e-01 -1.422916e-01 -1.491001e-01 -1.598196e-01 -1.687233e-01 -1.810472e-01 -1.922571e-01 -2.058801e-01 -2.186630e-01 -2.324163e-01 -2.452533e-01 -2.575169e-01 -2.688353e-01 -2.783198e-01 -2.871592e-01 -2.933694e-01 -2.995504e-01 -3.027372e-01 -3.066086e-01 -3.073885e-01 -3.093715e-01 -3.082328e-01 -3.083906e-01 -3.053566e-01 -3.032807e-01 -2.979940e-01 -2.931319e-01 -2.852936e-01 -2.774316e-01 -2.671810e-01 -2.566719e-01 -2.446279e-01 -2.322806e-01 -2.193374e-01 -2.061605e-01 -1.932388e-01 -1.801975e-01 -1.680601e-01 -1.559229e-01 -1.450973e-01 -1.343951e-01 -1.251929e-01 -1.162575e-01 -1.088389e-01 
-1.092792e-01 -1.038340e-01 -9.908101e-02 -9.536424e-02 -9.256204e-02 -9.054854e-02 -8.963868e-02 -8.921245e-02 -8.998136e-02 -9.091613e-02 -9.298861e-02 -9.500763e-02 -9.795304e-02 -1.009019e-01 -1.044375e-01 -1.084750e-01 -1.126038e-01 -1.181539e-01 -1.230283e-01 -1.302941e-01 -1.361153e-01 -1.449350e-01 -1.520367e-01 -1.622713e-01 -1.710018e-01 -1.825588e-01 -1.929463e-01 -2.054078e-01 -2.168582e-01 -2.292645e-01 -2.406560e-01 -2.517685e-01 -2.619238e-01 -2.707305e-01 -2.788705e-01 -2.849129e-01 -2.908004e-01 -2.941638e-01 -2.979470e-01 -2.990059e-01 -3.009074e-01 -2.999848e-01 -3.000131e-01 -2.971526e-01 -2.950305e-01 -2.900470e-01 -2.854268e-01 -2.781870e-01 -2.709703e-01 -2.616452e-01 -2.521441e-01 -2.412495e-01 -2.301232e-01 -2.183878e-01 -2.064651e-01 -1.946560e-01 -1.827551e-01 -1.715369e-01 -1.603426e-01 -1.502083e-01 -1.402266e-01 -1.314975e-01 -1.230702e-01 -1.159339e-01 
-1.148767e-01 -1.096470e-01 -1.049006e-01 -1.012912e-01 -9.834397e-02 -9.634339e-02 -9.515715e-02 -9.467543e-02 -9.509188e-02 -9.595989e-02 -9.770420e-02 -9.972884e-02 -1.024771e-01 -1.055608e-01 -1.090561e-01 -1.132990e-01 -1.174396e-01 -1.230648e-01 -1.278913e-01 -1.349573e-01 -1.406352e-01 -1.489946e-01 -1.558192e-01 -1.653368e-01 -1.735606e-01 -1.840896e-01 -1.936683e-01 -2.048108e-01 -2.152313e-01 -2.262188e-01 -2.365921e-01 -2.464697e-01 -2.558573e-01 -2.638243e-01 -2.715551e-01 -2.771967e-01 -2.829810e-01 -2.862744e-01 -2.901096e-01 -2.912564e-01 -2.932200e-01 -2.924162e-01 -2.924742e-01 -2.897597e-01 -2.877217e-01 -2.830110e-01 -2.786697e-01 -2.719330e-01 -2.652730e-01 -2.567021e-01 -2.480112e-01 -2.380512e-01 -2.278832e-01 -2.171457e-01 -2.061973e-01 -1.953346e-01 -1.843122e-01 -1.739096e-01 -1.634301e-01 -1.539463e-01 -1.444905e-01 -1.362474e-01 -1.281602e-01 -1.213639e-01 
-1.205125e-01 -1.153743e-01 -1.107125e-01 -1.070712e-01 -1.040611e-01 -1.019171e-01 -1.005219e-01 -9.980910e-02 -9.989041e-02 -1.004858e-01 -1.018212e-01 -1.035900e-01 -1.059387e-01 -1.088141e-01 -1.120082e-01 -1.160495e-01 -1.200461e-01 -1.253900e-01 -1.302346e-01 -1.369305e-01 -1.427160e-01 -1.506655e-01 -1.575192e-01 -1.665609e-01 -1.745585e-01 -1.844609e-01 -1.934745e-01 -2.038175e-01 -2.134058e-01 -2.235292e-01 -2.329972e-01 -2.421284e-01 -2.507412e-01 -2.582223e-01 -2.654210e-01 -2.708714e-01 -2.763629e-01 -2.796937e-01 -2.833959e-01 -2.847000e-01 -2.866055e-01 -2.860014e-01 -2.860513e-01 -2.835795e-01 -2.816354e-01 -2.772754e-01 -2.732134e-01 -2.669992e-01 -2.608495e-01 -2.529803e-01 -2.450059e-01 -2.358707e-01 -2.265453e-01 -2.166655e-01 -2.065855e-01 -1.965242e-01 -1.863076e-01 -1.765860e-01 -1.667907e-01 -1.578360e-01 -1.489156e-01 -1.410450e-01 -1.333392e-01 -1.267684e-01 
-1.245809e-01 -1.196283e-01 -1.149612e-01 -1.114277e-01 -1.083088e-01 -1.062098e-01 -1.046248e-01 -1.039166e-01 -1.037665e-01 -1.043598e-01 -1.054770e-01 -1.072729e-01 -1.094640e-01 -1.124069e-01 -1.155114e-01 -1.196183e-01 -1.235498e-01 -1.288676e-01 -1.336184e-01 -1.401248e-01 -1.457534e-01 -1.533306e-01 -1.599304e-01 -1.684102e-01 -1.760158e-01 -1.851623e-01 -1.936304e-01 -2.030641e-01 -2.120079e-01 -2.211808e-01 -2.300228e-01 -2.383118e-01 -2.464371e-01 -2.533002e-01 -2.602115e-01 -2.653049e-01 -2.706935e-01 -2.738882e-01 -2.776059e-01 -2.789177e-01 -2.808899e-01 -2.803755e-01 -2.805201e-01 -2.782087e-01 -2.764194e-01 -2.723238e-01 -2.685330e-01 -2.627238e-01 -2.569954e-01 -2.496742e-01 -2.422570e-01 -2.337736e-01 -2.250862e-01 -2.158981e-01 -2.064653e-01 -1.970698e-01 -1.874439e-01 -1.783125e-01 -1.690059e-01 -1.605390e-01 -1.519831e-01 -1.444913e-01 -1.370207e-01 -1.307262e-01 
-1.287216e-01 -1.238256e-01 -1.191976e-01 -1.156309e-01 -1.124487e-01 -1.102391e-01 -1.084963e-01 -1.076195e-01 -1.072364e-01 -1.076304e-01 -1.084753e-01 -1.100688e-01 -1.119966e-01 -1.147453e-01 -1.176422e-01 -1.215456e-01 -1.253539e-01 -1.304275e-01 -1.351349e-01 -1.413473e-01 -1.469649e-01 -1.542052e-01 -1.607396e-01 -1.688272e-01 -1.762267e-01 -1.849012e-01 -1.929853e-01 -2.018731e-01 -2.102939e-01 -2.189074e-01 -2.271858e-01 -2.349934e-01 -2.426221e-01 -2.491575e-01 -2.557078e-01 -2.606533e-01 -2.658295e-01 -2.690324e-01 -2.726587e-01 -2.740865e-01 -2.760520e-01 -2.757231e-01 -2.759310e-01 -2.738675e-01 -2.722273e-01 -2.684611e-01 -2.649336e-01 -2.595544e-01 -2.542166e-01 -2.474211e-01 -2.405037e-01 -2.326080e-01 -2.244854e-01 -2.158960e-01 -2.070376e-01 -1.982000e-01 -1.891073e-01 -1.804529e-01 -1.716016e-01 -1.635084e-01 -1.553093e-01 -1.480808e-01 -1.408611e-01 -1.347227e-01 
-1.314667e-01 -1.267135e-01 -1.220555e-01 -1.185823e-01 -1.153054e-01 -1.131510e-01 -1.112656e-01 -1.104203e-01 -1.098719e-01 -1.102912e-01 -1.109774e-01 -1.126040e-01 -1.144024e-01 -1.171900e-01 -1.199900e-01 -1.239114e-01 -1.276361e-01 -1.326618e-01 -1.372722e-01 -1.433315e-01 -1.488153e-01 -1.557783e-01 -1.621211e-01 -1.698018e-01 -1.769353e-01 -1.850820e-01 -1.928277e-01 -2.011022e-01 -2.091468e-01 -2.171296e-01 -2.250551e-01 -2.322976e-01 -2.396580e-01 -2.457605e-01 -2.521607e-01 -2.568337e-01 -2.619739e-01 -2.650529e-01 -2.687266e-01 -2.701450e-01 -2.722070e-01 -2.719511e-01 -2.722878e-01 -2.703668e-01 -2.688948e-01 -2.653457e-01 -2.620447e-01 -2.569652e-01 -2.519231e-01 -2.455050e-01 -2.389439e-01 -2.314803e-01 -2.237474e-01 -2.156103e-01 -2.071389e-01 -1.987381e-01 -1.899948e-01 -1.817334e-01 -1.731684e-01 -1.654073e-01 -1.574168e-01 -1.504539e-01 -1.433601e-01 -1.374227e-01 
-1.343161e-01 -1.295752e-01 -1.249079e-01 -1.213876e-01 -1.180397e-01 -1.157885e-01 -1.137771e-01 -1.127983e-01 -1.120831e-01 -1.123478e-01 -1.128488e-01 -1.143136e-01 -1.159358e-01 -1.185594e-01 -1.212172e-01 -1.249655e-01 -1.285952e-01 -1.334266e-01 -1.379830e-01 -1.438204e-01 -1.492624e-01 -1.559741e-01 -1.622418e-01 -1.696366e-01 -1.766194e-01 -1.844410e-01 -1.919445e-01 -1.998657e-01 -2.075984e-01 -2.152346e-01 -2.228311e-01 -2.297820e-01 -2.368550e-01 -2.427624e-01 -2.489596e-01 -2.535520e-01 -2.585886e-01 -2.616949e-01 -2.653557e-01 -2.668879e-01 -2.690100e-01 -2.689334e-01 -2.693895e-01 -2.677026e-01 -2.664059e-01 -2.631445e-01 -2.600763e-01 -2.553370e-01 -2.505816e-01 -2.445454e-01 -2.383107e-01 -2.312484e-01 -2.238582e-01 -2.161132e-01 -2.079741e-01 -1.999281e-01 -1.914830e-01 -1.835179e-01 -1.751997e-01 -1.676642e-01 -1.598597e-01 -1.530479e-01 -1.460752e-01 -1.402167e-01 
-1.358707e-01 -1.312211e-01 -1.264891e-01 -1.230369e-01 -1.195916e-01 -1.173912e-01 -1.152597e-01 -1.143218e-01 -1.134776e-01 -1.137808e-01 -1.141591e-01 -1.156638e-01 -1.171810e-01 -1.198409e-01 -1.224132e-01 -1.261776e-01 -1.297334e-01 -1.345360e-01 -1.390173e-01 -1.447584e-01 -1.501113e-01 -1.566460e-01 -1.628006e-01 -1.699345e-01 -1.767747e-01 -1.842604e-01 -1.915976e-01 -1.991332e-01 -2.066965e-01 -2.139384e-01 -2.213938e-01 -2.279896e-01 -2.349799e-01 -2.406114e-01 -2.468000e-01 -2.512163e-01 -2.563148e-01 -2.593439e-01 -2.631187e-01 -2.646570e-01 -2.669224e-01 -2.669156e-01 -2.675278e-01 -2.659602e-01 -2.648260e-01 -2.617261e-01 -2.588276e-01 -2.542871e-01 -2.497098e-01 -2.439021e-01 -2.378501e-01 -2.310341e-01 -2.238221e-01 -2.163258e-01 -2.083485e-01 -2.005390e-01 -1.922282e-01 -1.844759e-01 -1.762559e-01 -1.689030e-01 -1.611559e-01 -1.544945e-01 -1.475369e-01 -1.417976e-01 
-1.375600e-01 -1.328709e-01 -1.280785e-01 -1.245557e-01 -1.210246e-01 -1.187284e-01 -1.164888e-01 -1.154370e-01 -1.144698e-01 -1.146491e-01 -1.149015e-01 -1.162792e-01 -1.176822e-01 -1.202148e-01 -1.226971e-01 -1.263316e-01 -1.298273e-01 -1.344929e-01 -1.389390e-01 -1.445324e-01 -1.498583e-01 -1.562325e-01 -1.623442e-01 -1.693028e-01 -1.760635e-01 -1.833596e-01 -1.905740e-01 -1.979140e-01 -2.053243e-01 -2.123841e-01 -2.196856e-01 -2.261383e-01 -2.330083e-01 -2.385587e-01 -2.446877e-01 -2.490977e-01 -2.542096e-01 -2.573069e-01 -2.611654e-01 -2.628364e-01 -2.652421e-01 -2.654191e-01 -2.662103e-01 -2.648641e-01 -2.639300e-01 -2.610772e-01 -2.583841e-01 -2.541042e-01 -2.497235e-01 -2.441758e-01 -2.383000e-01 -2.317278e-01 -2.246632e-01 -2.173806e-01 -2.095175e-01 -2.018814e-01 -1.936509e-01 -1.860262e-01 -1.778546e-01 -1.705827e-01 -1.628546e-01 -1.562299e-01 -1.492641e-01 -1.435213e-01 
-1.379901e-01 -1.333366e-01 -1.284386e-01 -1.249528e-01 -1.213119e-01 -1.190548e-01 -1.167038e-01 -1.156947e-01 -1.146195e-01 -1.148463e-01 -1.150006e-01 -1.164300e-01 -1.177499e-01 -1.203330e-01 -1.227492e-01 -1.264227e-01 -1.298672e-01 -1.345460e-01 -1.389517e-01 -1.445193e-01 -1.498115e-01 -1.561121e-01 -1.621943e-01 -1.690290e-01 -1.757648e-01 -1.828918e-01 -1.900912e-01 -1.972319e-01 -2.046481e-01 -2.115017e-01 -2.188440e-01 -2.251115e-01 -2.320685e-01 -2.374795e-01 -2.437448e-01 -2.480764e-01 -2.533664e-01 -2.564491e-01 -2.605109e-01 -2.622229e-01 -2.648355e-01 -2.650935e-01 -2.660744e-01 -2.648319e-01 -2.640538e-01 -2.613115e-01 -2.587302e-01 -2.545555e-01 -2.502386e-01 -2.447830e-01 -2.389251e-01 -2.324287e-01 -2.253425e-01 -2.181199e-01 -2.102050e-01 -2.026163e-01 -1.943133e-01 -1.867279e-01 -1.784712e-01 -1.712344e-01 -1.634141e-01 -1.568233e-01 -1.497608e-01 -1.440524e-01 
-1.385812e-01 -1.338315e-01 -1.288214e-01 -1.252358e-01 -1.214913e-01 -1.191322e-01 -1.166836e-01 -1.155720e-01 -1.144056e-01 -1.145324e-01 -1.146056e-01 -1.159398e-01 -1.171947e-01 -1.196894e-01 -1.220621e-01 -1.256537e-01 -1.290784e-01 -1.336809e-01 -1.380871e-01 -1.435833e-01 -1.488871e-01 -1.551200e-01 -1.612124e-01 -1.679820e-01 -1.747161e-01 -1.817804e-01 -1.889632e-01 -1.960467e-01 -2.034395e-01 -2.102496e-01 -2.175789e-01 -2.238288e-01 -2.308053e-01 -2.362369e-01 -2.425735e-01 -2.469732e-01 -2.523969e-01 -2.555984e-01 -2.598540e-01 -2.617316e-01 -2.645827e-01 -2.650422e-01 -2.662793e-01 -2.652573e-01 -2.647196e-01 -2.621961e-01 -2.598065e-01 -2.558270e-01 -2.516285e-01 -2.463261e-01 -2.405028e-01 -2.341066e-01 -2.269770e-01 -2.198000e-01 -2.117819e-01 -2.041905e-01 -1.957482e-01 -1.881227e-01 -1.797130e-01 -1.724106e-01 -1.644400e-01 -1.577677e-01 -1.505668e-01 -1.447677e-01 
-1.378905e-01 -1.331200e-01 -1.279633e-01 -1.243828e-01 -1.205136e-01 -1.181805e-01 -1.156240e-01 -1.145556e-01 -1.132958e-01 -1.134799e-01 -1.134741e-01 -1.148768e-01 -1.160689e-01 -1.186388e-01 -1.209669e-01 -1.246343e-01 -1.280347e-01 -1.327059e-01 -1.371105e-01 -1.426604e-01 -1.479884e-01 -1.542539e-01 -1.604000e-01 -1.671773e-01 -1.739987e-01 -1.810460e-01 -1.883542e-01 -1.954009e-01 -2.029610e-01 -2.097253e-01 -2.172659e-01 -2.234756e-01 -2.307057e-01 -2.361189e-01 -2.427444e-01 -2.471604e-01 -2.528952e-01 -2.561531e-01 -2.607227e-01 -2.626916e-01 -2.658342e-01 -2.664035e-01 -2.678805e-01 -2.669625e-01 -2.665844e-01 -2.641326e-01 -2.618008e-01 -2.578405e-01 -2.535897e-01 -2.482461e-01 -2.422695e-01 -2.357779e-01 -2.284179e-01 -2.211089e-01 -2.128156e-01 -2.050783e-01 -1.963487e-01 -1.885847e-01 -1.799013e-01 -1.724834e-01 -1.642685e-01 -1.575121e-01 -1.501022e-01 -1.442519e-01 
-1.373766e-01 -1.324516e-01 -1.271346e-01 -1.234237e-01 -1.194356e-01 -1.169924e-01 -1.143484e-01 -1.131865e-01 -1.118634e-01 -1.119685e-01 -1.119206e-01 -1.132586e-01 -1.144292e-01 -1.169496e-01 -1.192784e-01 -1.229129e-01 -1.263371e-01 -1.309940e-01 -1.354440e-01 -1.409996e-01 -1.463904e-01 -1.526821e-01 -1.589020e-01 -1.657245e-01 -1.726250e-01 -1.797330e-01 -1.871231e-01 -1.942428e-01 -2.018915e-01 -2.087388e-01 -2.163856e-01 -2.226906e-01 -2.300607e-01 -2.355871e-01 -2.424043e-01 -2.469599e-01 -2.529506e-01 -2.563821e-01 -2.612712e-01 -2.634493e-01 -2.669554e-01 -2.677607e-01 -2.696044e-01 -2.689269e-01 -2.688626e-01 -2.666229e-01 -2.644939e-01 -2.606818e-01 -2.564813e-01 -2.511951e-01 -2.451058e-01 -2.385725e-01 -2.309603e-01 -2.235223e-01 -2.148850e-01 -2.069579e-01 -1.978470e-01 -1.898635e-01 -1.808091e-01 -1.731691e-01 -1.646257e-01 -1.576628e-01 -1.499819e-01 -1.439502e-01 
-1.355061e-01 -1.305089e-01 -1.250106e-01 -1.212777e-01 -1.171550e-01 -1.147286e-01 -1.119827e-01 -1.108675e-01 -1.094654e-01 -1.096407e-01 -1.095313e-01 -1.109588e-01 -1.120847e-01 -1.147113e-01 -1.170149e-01 -1.207698e-01 -1.241942e-01 -1.289829e-01 -1.334672e-01 -1.391623e-01 -1.446315e-01 -1.510657e-01 -1.574183e-01 -1.643802e-01 -1.714759e-01 -1.787139e-01 -1.863658e-01 -1.936007e-01 -2.015760e-01 -2.085230e-01 -2.165531e-01 -2.229469e-01 -2.307441e-01 -2.363602e-01 -2.436319e-01 -2.482930e-01 -2.547474e-01 -2.583113e-01 -2.636504e-01 -2.659865e-01 -2.698978e-01 -2.708664e-01 -2.730287e-01 -2.724818e-01 -2.726025e-01 -2.704161e-01 -2.682988e-01 -2.644279e-01 -2.600502e-01 -2.545832e-01 -2.481454e-01 -2.413279e-01 -2.332441e-01 -2.254594e-01 -2.162911e-01 -2.080034e-01 -1.983644e-01 -1.900493e-01 -1.805166e-01 -1.726024e-01 -1.636564e-01 -1.564896e-01 -1.484889e-01 -1.423233e-01 
-1.338085e-01 -1.286008e-01 -1.229047e-01 -1.190150e-01 -1.147681e-01 -1.122271e-01 -1.094108e-01 -1.082130e-01 -1.067789e-01 -1.068968e-01 -1.067842e-01 -1.081765e-01 -1.093233e-01 -1.119376e-01 -1.142854e-01 -1.180546e-01 -1.215478e-01 -1.263825e-01 -1.309612e-01 -1.367391e-01 -1.423283e-01 -1.488843e-01 -1.553800e-01 -1.625007e-01 -1.697585e-01 -1.771843e-01 -1.850129e-01 -1.924524e-01 -2.006176e-01 -2.077724e-01 -2.160115e-01 -2.226075e-01 -2.306478e-01 -2.364611e-01 -2.440328e-01 -2.488971e-01 -2.557303e-01 -2.595207e-01 -2.653247e-01 -2.679229e-01 -2.723632e-01 -2.736246e-01 -2.763202e-01 -2.760667e-01 -2.766325e-01 -2.746870e-01 -2.728251e-01 -2.690820e-01 -2.646969e-01 -2.592000e-01 -2.524787e-01 -2.454656e-01 -2.368735e-01 -2.287588e-01 -2.189507e-01 -2.102551e-01 -1.999455e-01 -1.912043e-01 -1.810508e-01 -1.727396e-01 -1.632715e-01 -1.557644e-01 -1.473583e-01 -1.409188e-01 
-1.306342e-01 -1.253144e-01 -1.194180e-01 -1.154906e-01 -1.111130e-01 -1.085887e-01 -1.056865e-01 -1.045451e-01 -1.030519e-01 -1.032565e-01 -1.031010e-01 -1.046066e-01 -1.057239e-01 -1.084777e-01 -1.108136e-01 -1.147508e-01 -1.182602e-01 -1.232936e-01 -1.279323e-01 -1.339403e-01 -1.396521e-01 -1.464663e-01 -1.531658e-01 -1.605639e-01 -1.681209e-01 -1.758286e-01 -1.840572e-01 -1.917651e-01 -2.004244e-01 -2.078190e-01 -2.166267e-01 -2.234288e-01 -2.320857e-01 -2.380819e-01 -2.462920e-01 -2.513399e-01 -2.588120e-01 -2.628123e-01 -2.692337e-01 -2.720768e-01 -2.770777e-01 -2.785936e-01 -2.817336e-01 -2.816825e-01 -2.824978e-01 -2.806221e-01 -2.787418e-01 -2.748719e-01 -2.701673e-01 -2.643308e-01 -2.570183e-01 -2.494912e-01 -2.401223e-01 -2.313973e-01 -2.207403e-01 -2.114265e-01 -2.003013e-01 -1.910066e-01 -1.801441e-01 -1.713872e-01 -1.613514e-01 -1.535208e-01 -1.446908e-01 -1.380428e-01 
-1.275943e-01 -1.220180e-01 -1.159074e-01 -1.118084e-01 -1.073212e-01 -1.046880e-01 -1.017479e-01 -1.005415e-01 -9.905743e-02 -9.922911e-02 -9.911397e-02 -1.006132e-01 -1.017944e-01 -1.045698e-01 -1.069923e-01 -1.109857e-01 -1.146076e-01 -1.197423e-01 -1.245249e-01 -1.306899e-01 -1.365814e-01 -1.436151e-01 -1.505313e-01 -1.582096e-01 -1.660159e-01 -1.740511e-01 -1.825522e-01 -1.906098e-01 -1.995547e-01 -2.072907e-01 -2.163951e-01 -2.235059e-01 -2.324863e-01 -2.387524e-01 -2.473490e-01 -2.526468e-01 -2.606132e-01 -2.648807e-01 -2.719343e-01 -2.750971e-01 -2.808524e-01 -2.827482e-01 -2.866806e-01 -2.870289e-01 -2.885219e-01 -2.869765e-01 -2.854772e-01 -2.817591e-01 -2.770027e-01 -2.710571e-01 -2.632390e-01 -2.553307e-01 -2.451044e-01 -2.357921e-01 -2.240990e-01 -2.140994e-01 -2.019333e-01 -1.919592e-01 -1.801771e-01 -1.708206e-01 -1.600511e-01 -1.517365e-01 -1.423712e-01 -1.353599e-01 
-1.229217e-01 -1.172154e-01 -1.109143e-01 -1.067817e-01 -1.021922e-01 -9.959067e-02 -9.659851e-02 -9.546755e-02 -9.395450e-02 -9.423370e-02 -9.409710e-02 -9.573328e-02 -9.689608e-02 -9.984218e-02 -1.022555e-01 -1.064620e-01 -1.101004e-01 -1.155002e-01 -1.203498e-01 -1.268391e-01 -1.328786e-01 -1.402954e-01 -1.474720e-01 -1.555805e-01 -1.637846e-01 -1.722714e-01 -1.813179e-01 -1.898123e-01 -1.994378e-01 -2.075588e-01 -2.174437e-01 -2.248675e-01 -2.346803e-01 -2.411983e-01 -2.506388e-01 -2.561722e-01 -2.649748e-01 -2.695208e-01 -2.773947e-01 -2.809146e-01 -2.874451e-01 -2.897489e-01 -2.943299e-01 -2.950327e-01 -2.969128e-01 -2.955182e-01 -2.940032e-01 -2.901071e-01 -2.848595e-01 -2.783769e-01 -2.696389e-01 -2.609086e-01 -2.494868e-01 -2.392119e-01 -2.262466e-01 -2.152988e-01 -2.019561e-01 -1.911635e-01 -1.784067e-01 -1.684194e-01 -1.569142e-01 -1.481639e-01 -1.382885e-01 -1.310129e-01 
-1.182899e-01 -1.123029e-01 -1.058092e-01 -1.015127e-01 -9.686129e-02 -9.417475e-02 -9.120198e-02 -9.003611e-02 -8.858897e-02 -8.886502e-02 -8.881994e-02 -9.047731e-02 -9.174827e-02 -9.474285e-02 -9.728170e-02 -1.015760e-01 -1.053654e-01 -1.109112e-01 -1.159493e-01 -1.226632e-01 -1.289410e-01 -1.366768e-01 -1.441479e-01 -1.526716e-01 -1.612216e-01 -1.702004e-01 -1.796253e-01 -1.886449e-01 -1.986537e-01 -2.072742e-01 -2.175282e-01 -2.253728e-01 -2.355538e-01 -2.423956e-01 -2.522639e-01 -2.580570e-01 -2.674398e-01 -2.722582e-01 -2.809471e-01 -2.848369e-01 -2.924315e-01 -2.952425e-01 -3.010277e-01 -3.023247e-01 -3.052967e-01 -3.044316e-01 -3.035591e-01 -2.999206e-01 -2.945980e-01 -2.879376e-01 -2.783705e-01 -2.690073e-01 -2.562062e-01 -2.449788e-01 -2.304074e-01 -2.183915e-01 -2.035113e-01 -1.917127e-01 -1.776727e-01 -1.668479e-01 -1.543842e-01 -1.450013e-01 -1.344809e-01 -1.267663e-01 
-1.118499e-01 -1.057529e-01 -9.912507e-02 -9.483029e-02 -9.014318e-02 -8.752467e-02 -8.456080e-02 -8.350076e-02 -8.207058e-02 -8.247749e-02 -8.243677e-02 -8.425065e-02 -8.550782e-02 -8.869573e-02 -9.121183e-02 -9.575464e-02 -9.953588e-02 -1.054063e-01 -1.104879e-01 -1.176204e-01 -1.240403e-01 -1.322959e-01 -1.400590e-01 -1.491913e-01 -1.582277e-01 -1.678645e-01 -1.779923e-01 -1.876537e-01 -1.985652e-01 -2.077364e-01 -2.190305e-01 -2.272836e-01 -2.385535e-01 -2.456712e-01 -2.566084e-01 -2.626295e-01 -2.730540e-01 -2.781838e-01 -2.879253e-01 -2.923113e-01 -3.009777e-01 -3.044545e-01 -3.112269e-01 -3.131818e-01 -3.168196e-01 -3.163116e-01 -3.154988e-01 -3.116616e-01 -3.056298e-01 -2.981607e-01 -2.871923e-01 -2.765537e-01 -2.619403e-01 -2.492426e-01 -2.328030e-01 -2.193932e-01 -2.028690e-01 -1.899296e-01 -1.746120e-01 -1.629636e-01 -1.496096e-01 -1.397029e-01 -1.286268e-01 -1.206296e-01 
-1.052747e-01 -9.891449e-02 -9.217790e-02 -8.776453e-02 -8.311273e-02 -8.046220e-02 -7.760980e-02 -7.656313e-02 -7.527661e-02 -7.571763e-02 -7.582864e-02 -7.768830e-02 -7.909708e-02 -8.234835e-02 -8.502092e-02 -8.966460e-02 -9.362298e-02 -9.966338e-02 -1.049661e-01 -1.123752e-01 -1.190855e-01 -1.277574e-01 -1.358976e-01 -1.455995e-01 -1.550972e-01 -1.654340e-01 -1.760737e-01 -1.864948e-01 -1.979066e-01 -2.077878e-01 -2.195101e-01 -2.283148e-01 -2.399372e-01 -2.473997e-01 -2.587138e-01 -2.649270e-01 -2.759358e-01 -2.812582e-01 -2.919836e-01 -2.967500e-01 -3.068987e-01 -3.110610e-01 -3.197012e-01 -3.225970e-01 -3.280775e-01 -3.285056e-01 -3.288645e-01 -3.255537e-01 -3.194607e-01 -3.117636e-01 -2.994398e-01 -2.877803e-01 -2.709426e-01 -2.567235e-01 -2.378128e-01 -2.227758e-01 -2.040312e-01 -1.896535e-01 -1.726177e-01 -1.598577e-01 -1.453314e-01 -1.346549e-01 -1.228780e-01 -1.144014e-01 
-9.672583e-02 -9.033635e-02 -8.359288e-02 -7.926192e-02 -7.469466e-02 -7.217698e-02 -6.943103e-02 -6.853338e-02 -6.733031e-02 -6.792486e-02 -6.807162e-02 -7.009606e-02 -7.148655e-02 -7.493537e-02 -7.754793e-02 -8.245441e-02 -8.634319e-02 -9.274980e-02 -9.802530e-02 -1.059405e-01 -1.127356e-01 -1.220769e-01 -1.304961e-01 -1.410246e-01 -1.510751e-01 -1.623416e-01 -1.738587e-01 -1.852018e-01 -1.978006e-01 -2.084491e-01 -2.215601e-01 -2.308587e-01 -2.438952e-01 -2.515727e-01 -2.641880e-01 -2.704900e-01 -2.827083e-01 -2.882728e-01 -3.002753e-01 -3.056915e-01 -3.173128e-01 -3.225754e-01 -3.327786e-01 -3.369293e-01 -3.436374e-01 -3.448862e-01 -3.455424e-01 -3.420675e-01 -3.349718e-01 -3.260493e-01 -3.115632e-01 -2.979014e-01 -2.782798e-01 -2.618111e-01 -2.401550e-01 -2.231027e-01 -2.021035e-01 -1.861993e-01 -1.675614e-01 -1.538036e-01 -1.382845e-01 -1.270553e-01 -1.147590e-01 -1.060502e-01 
-8.775244e-02 -8.118900e-02 -7.451471e-02 -7.016855e-02 -6.580179e-02 -6.334629e-02 -6.084789e-02 -6.003659e-02 -5.907918e-02 -5.975415e-02 -6.012108e-02 -6.221004e-02 -6.379062e-02 -6.729773e-02 -7.008192e-02 -7.507073e-02 -7.913949e-02 -8.570270e-02 -9.120670e-02 -9.941736e-02 -1.065372e-01 -1.163786e-01 -1.252599e-01 -1.365356e-01 -1.471960e-01 -1.594413e-01 -1.716652e-01 -1.841117e-01 -1.973887e-01 -2.090663e-01 -2.226684e-01 -2.326979e-01 -2.459718e-01 -2.539608e-01 -2.667195e-01 -2.729926e-01 -2.856077e-01 -2.910971e-01 -3.041546e-01 -3.098431e-01 -3.234794e-01 -3.296549e-01 -3.427996e-01 -3.484994e-01 -3.584457e-01 -3.614430e-01 -3.643607e-01 -3.620247e-01 -3.549433e-01 -3.457783e-01 -3.289871e-01 -3.136224e-01 -2.903111e-01 -2.713587e-01 -2.458683e-01 -2.263370e-01 -2.021815e-01 -1.842705e-01 -1.634340e-01 -1.482761e-01 -1.314446e-01 -1.193602e-01 -1.064242e-01 -9.726989e-02 
-7.670142e-02 -7.028053e-02 -6.382598e-02 -5.970406e-02 -5.561166e-02 -5.338793e-02 -5.113847e-02 -5.053098e-02 -4.974821e-02 -5.059257e-02 -5.103297e-02 -5.327336e-02 -5.481874e-02 -5.849509e-02 -6.114987e-02 -6.637756e-02 -7.026321e-02 -7.719782e-02 -8.253406e-02 -9.131479e-02 -9.838067e-02 -1.090469e-01 -1.181146e-01 -1.304893e-01 -1.417180e-01 -1.552763e-01 -1.685670e-01 -1.823626e-01 -1.972187e-01 -2.099990e-01 -2.255143e-01 -2.361286e-01 -2.512802e-01 -2.592700e-01 -2.735418e-01 -2.794842e-01 -2.933178e-01 -2.987239e-01 -3.131569e-01 -3.196038e-01 -3.352204e-01 -3.432242e-01 -3.589334e-01 -3.670747e-01 -3.794031e-01 -3.842402e-01 -3.880608e-01 -3.856743e-01 -3.771593e-01 -3.660644e-01 -3.458156e-01 -3.271875e-01 -2.994608e-01 -2.769971e-01 -2.474298e-01 -2.250096e-01 -1.978247e-01 -1.779646e-01 -1.552435e-01 -1.389985e-01 -1.212072e-01 -1.086660e-01 -9.539868e-02 -8.618006e-02 
-6.479541e-02 -5.840252e-02 -5.232627e-02 -4.837394e-02 -4.473164e-02 -4.271762e-02 -4.090088e-02 -4.048282e-02 -4.007137e-02 -4.105252e-02 -4.178613e-02 -4.410016e-02 -4.586253e-02 -4.956186e-02 -5.237665e-02 -5.761793e-02 -6.164627e-02 -6.865955e-02 -7.418401e-02 -8.321358e-02 -9.059712e-02 -1.018049e-01 -1.114091e-01 -1.247242e-01 -1.367617e-01 -1.516842e-01 -1.660018e-01 -1.814434e-01 -1.973134e-01 -2.116656e-01 -2.278023e-01 -2.394478e-01 -2.545635e-01 -2.627527e-01 -2.765875e-01 -2.819856e-01 -2.956241e-01 -3.002928e-01 -3.155520e-01 -3.218675e-01 -3.400685e-01 -3.492150e-01 -3.695717e-01 -3.803080e-01 -3.985400e-01 -4.067516e-01 -4.151903e-01 -4.153242e-01 -4.069726e-01 -3.956893e-01 -3.712564e-01 -3.495618e-01 -3.154418e-01 -2.887528e-01 -2.531628e-01 -2.269497e-01 -1.953887e-01 -1.728212e-01 -1.474900e-01 -1.296191e-01 -1.105872e-01 -9.724052e-02 -8.362063e-02 -7.412868e-02 
-5.085527e-02 -4.490154e-02 -3.939797e-02 -3.588562e-02 -3.278758e-02 -3.113961e-02 -2.976317e-02 -2.961010e-02 -2.949138e-02 -3.064124e-02 -3.149350e-02 -3.390973e-02 -3.560551e-02 -3.939381e-02 -4.196919e-02 -4.736246e-02 -5.102505e-02 -5.834875e-02 -6.346643e-02 -7.307406e-02 -8.013803e-02 -9.230736e-02 -1.018635e-01 -1.166107e-01 -1.291156e-01 -1.459130e-01 -1.614727e-01 -1.789741e-01 -1.969929e-01 -2.130548e-01 -2.319986e-01 -2.443857e-01 -2.621716e-01 -2.698938e-01 -2.853838e-01 -2.894523e-01 -3.038677e-01 -3.075311e-01 -3.238206e-01 -3.307689e-01 -3.514853e-01 -3.636362e-01 -3.883291e-01 -4.039065e-01 -4.269651e-01 -4.393381e-01 -4.501341e-01 -4.503293e-01 -4.398099e-01 -4.253332e-01 -3.950923e-01 -3.677750e-01 -3.263092e-01 -2.939811e-01 -2.522658e-01 -2.219825e-01 -1.865146e-01 -1.616590e-01 -1.343777e-01 -1.155646e-01 -9.590167e-02 -8.243193e-02 -6.892704e-02 -5.972404e-02 
-3.548116e-02 -2.991727e-02 -2.526261e-02 -2.220626e-02 -1.989729e-02 -1.866703e-02 -1.795260e-02 -1.812454e-02 -1.851953e-02 -1.987315e-02 -2.108985e-02 -2.357638e-02 -2.549690e-02 -2.923164e-02 -3.191587e-02 -3.717963e-02 -4.088495e-02 -4.810439e-02 -5.328619e-02 -6.297365e-02 -7.025869e-02 -8.290499e-02 -9.301836e-02 -1.088745e-01 -1.224398e-01 -1.411293e-01 -1.582653e-01 -1.783112e-01 -1.980583e-01 -2.167018e-01 -2.366633e-01 -2.506727e-01 -2.678961e-01 -2.756177e-01 -2.894473e-01 -2.919053e-01 -3.047530e-01 -3.062167e-01 -3.223714e-01 -3.281104e-01 -3.516895e-01 -3.650253e-01 -3.968905e-01 -4.167807e-01 -4.509454e-01 -4.699678e-01 -4.908919e-01 -4.968359e-01 -4.865230e-01 -4.720432e-01 -4.336132e-01 -4.001497e-01 -3.470108e-01 -3.071503e-01 -2.559371e-01 -2.199078e-01 -1.787137e-01 -1.504574e-01 -1.205461e-01 -1.001421e-01 -7.979084e-02 -6.585393e-02 -5.267390e-02 -4.360053e-02 
-1.839472e-02 -1.371531e-02 -1.012281e-02 -7.796544e-03 -6.377185e-03 -5.674249e-03 -5.635019e-03 -6.128300e-03 -6.960550e-03 -8.452397e-03 -9.844086e-03 -1.233030e-02 -1.414042e-02 -1.780761e-02 -2.009602e-02 -2.532939e-02 -2.840105e-02 -3.576057e-02 -4.016819e-02 -5.032566e-02 -5.684096e-02 -7.049873e-02 -8.008529e-02 -9.773538e-02 -1.114078e-01 -1.327943e-01 -1.512160e-01 -1.745705e-01 -1.972838e-01 -2.188648e-01 -2.433204e-01 -2.584677e-01 -2.800298e-01 -2.864671e-01 -3.019559e-01 -3.008987e-01 -3.129499e-01 -3.111716e-01 -3.267900e-01 -3.322916e-01 -3.586102e-01 -3.766368e-01 -4.159669e-01 -4.455948e-01 -4.899759e-01 -5.189305e-01 -5.456757e-01 -5.509807e-01 -5.369051e-01 -5.170877e-01 -4.684288e-01 -4.245431e-01 -3.583574e-01 -3.091800e-01 -2.487732e-01 -2.073084e-01 -1.615792e-01 -1.311428e-01 -9.985020e-02 -7.917696e-02 -5.909579e-02 -4.577540e-02 -3.355325e-02 -2.538258e-02 
8.090552e-04 4.542356e-03 6.655553e-03 8.134708e-03 8.358859e-03 8.381603e-03 7.508450e-03 6.526005e-03 5.036817e-03 3.261922e-03 1.444063e-03 -1.099829e-03 -3.119004e-03 -6.608721e-03 -8.905730e-03 -1.376582e-02 -1.669327e-02 -2.360698e-02 -2.781920e-02 -3.767431e-02 -4.413454e-02 -5.796989e-02 -6.796641e-02 -8.674370e-02 -1.017144e-01 -1.256538e-01 -1.465630e-01 -1.739791e-01 -1.999959e-01 -2.261673e-01 -2.529062e-01 -2.709284e-01 -2.909227e-01 -2.971384e-01 -3.085492e-01 -3.037965e-01 -3.115590e-01 -3.045449e-01 -3.175160e-01 -3.193218e-01 -3.475196e-01 -3.660176e-01 -4.154928e-01 -4.519201e-01 -5.175233e-01 -5.596639e-01 -6.108997e-01 -6.300041e-01 -6.146332e-01 -5.952216e-01 -5.294905e-01 -4.716976e-01 -3.829234e-01 -3.198475e-01 -2.448355e-01 -1.951377e-01 -1.429780e-01 -1.089815e-01 -7.618482e-02 -5.463998e-02 -3.535175e-02 -2.242944e-02 -1.180013e-02 -4.499229e-03 
2.095300e-02 2.322125e-02 2.368011e-02 2.409112e-02 2.303895e-02 2.237022e-02 2.056399e-02 1.922711e-02 1.713211e-02 1.529416e-02 1.322168e-02 1.085150e-02 8.985533e-03 5.823287e-03 4.124815e-03 -3.900958e-04 -2.319360e-03 -9.043214e-03 -1.196828e-02 -2.197232e-02 -2.697253e-02 -4.162688e-02 -5.022575e-02 -7.104005e-02 -8.521518e-02 -1.129743e-01 -1.347188e-01 -1.676926e-01 -1.976536e-01 -2.294312e-01 -2.640227e-01 -2.841855e-01 -3.126841e-01 -3.165728e-01 -3.294130e-01 -3.164652e-01 -3.191444e-01 -3.039427e-01 -3.118277e-01 -3.106035e-01 -3.404128e-01 -3.651425e-01 -4.273605e-01 -4.831940e-01 -5.715384e-01 -6.400471e-01 -7.053719e-01 -7.174230e-01 -6.936816e-01 -6.668839e-01 -5.829778e-01 -5.038342e-01 -3.896536e-01 -3.110239e-01 -2.228769e-01 -1.670623e-01 -1.112076e-01 -7.648194e-02 -4.436461e-02 -2.423977e-02 -7.084056e-03 3.888137e-03 1.220325e-02 1.768574e-02 