# vtk DataFile Version 2.0
Comment goes here
ASCII

DATASET STRUCTURED_POINTS
DIMENSIONS    64   64   1

ORIGIN    0.000   0.000   0.000
SPACING   0.0156250.015625   1.000

POINT_DATA   4096
SCALARS uY double
LOOKUP_TABLE default

-1.205124e-01 -1.164122e-01 -1.128378e-01 -1.119049e-01 -1.116279e-01 -1.141488e-01 -1.173840e-01 -1.234773e-01 -1.300850e-01 -1.393163e-01 -1.484077e-01 -1.594774e-01 -1.693403e-01 -1.803185e-01 -1.889886e-01 -1.980838e-01 -2.041617e-01 -2.104158e-01 -2.136302e-01 -2.173421e-01 -2.187949e-01 -2.216212e-01 -2.236306e-01 -2.281278e-01 -2.333709e-01 -2.417320e-01 -2.516961e-01 -2.641798e-01 -2.779694e-01 -2.924553e-01 -3.072730e-01 -3.206001e-01 -3.335322e-01 -3.433082e-01 -3.527078e-01 -3.581268e-01 -3.638362e-01 -3.654574e-01 -3.682912e-01 -3.673184e-01 -3.682406e-01 -3.656192e-01 -3.649241e-01 -3.606816e-01 -3.577259e-01 -3.511078e-01 -3.448950e-01 -3.351869e-01 -3.252412e-01 -3.124649e-01 -2.992218e-01 -2.842053e-01 -2.688090e-01 -2.528320e-01 -2.367008e-01 -2.210735e-01 -2.055090e-01 -1.912734e-01 -1.772414e-01 -1.650759e-01 -1.531908e-01 -1.434846e-01 -1.341161e-01 -1.271074e-01 
-1.313003e-01 -1.274084e-01 -1.238960e-01 -1.229116e-01 -1.223861e-01 -1.244925e-01 -1.270565e-01 -1.322513e-01 -1.376916e-01 -1.455337e-01 -1.530795e-01 -1.625147e-01 -1.708269e-01 -1.803739e-01 -1.879539e-01 -1.962397e-01 -2.020270e-01 -2.083170e-01 -2.121326e-01 -2.166602e-01 -2.193632e-01 -2.233494e-01 -2.266436e-01 -2.318949e-01 -2.376564e-01 -2.456514e-01 -2.548617e-01 -2.657144e-01 -2.776964e-01 -2.898909e-01 -3.026373e-01 -3.139071e-01 -3.252598e-01 -3.338034e-01 -3.424268e-01 -3.475231e-01 -3.531303e-01 -3.550414e-01 -3.580662e-01 -3.575436e-01 -3.585626e-01 -3.562205e-01 -3.553965e-01 -3.512739e-01 -3.481848e-01 -3.418320e-01 -3.358492e-01 -3.268563e-01 -3.177191e-01 -3.061810e-01 -2.942726e-01 -2.808579e-01 -2.670883e-01 -2.528128e-01 -2.383226e-01 -2.242547e-01 -2.101321e-01 -1.971721e-01 -1.842803e-01 -1.730724e-01 -1.620160e-01 -1.529811e-01 -1.441647e-01 -1.375865e-01 
-1.408156e-01 -1.370665e-01 -1.336007e-01 -1.325020e-01 -1.317173e-01 -1.333727e-01 -1.352928e-01 -1.396242e-01 -1.440054e-01 -1.505931e-01 -1.567859e-01 -1.647818e-01 -1.717581e-01 -1.800369e-01 -1.866811e-01 -1.942166e-01 -1.997407e-01 -2.059862e-01 -2.102484e-01 -2.153688e-01 -2.189858e-01 -2.238536e-01 -2.280359e-01 -2.339054e-01 -2.399485e-01 -2.477996e-01 -2.563470e-01 -2.661951e-01 -2.767404e-01 -2.874735e-01 -2.985777e-01 -3.085329e-01 -3.185986e-01 -3.263833e-01 -3.343312e-01 -3.392861e-01 -3.447574e-01 -3.469347e-01 -3.500945e-01 -3.499297e-01 -3.510771e-01 -3.489587e-01 -3.481561e-01 -3.441322e-01 -3.410950e-01 -3.349255e-01 -3.292672e-01 -3.207609e-01 -3.123676e-01 -3.016896e-01 -2.909123e-01 -2.786404e-01 -2.662261e-01 -2.532011e-01 -2.400899e-01 -2.272085e-01 -2.143267e-01 -2.023755e-01 -1.904984e-01 -1.800775e-01 -1.697866e-01 -1.613177e-01 -1.530275e-01 -1.468064e-01 
-1.490696e-01 -1.454493e-01 -1.419708e-01 -1.407757e-01 -1.397344e-01 -1.410242e-01 -1.424056e-01 -1.460678e-01 -1.496263e-01 -1.552760e-01 -1.604591e-01 -1.674012e-01 -1.733919e-01 -1.807449e-01 -1.866810e-01 -1.936484e-01 -1.989275e-01 -2.050790e-01 -2.095938e-01 -2.150335e-01 -2.192393e-01 -2.245796e-01 -2.293420e-01 -2.354428e-01 -2.416525e-01 -2.491513e-01 -2.572134e-01 -2.660659e-01 -2.755758e-01 -2.849569e-01 -2.948488e-01 -3.035348e-01 -3.125966e-01 -3.195202e-01 -3.268692e-01 -3.314599e-01 -3.367140e-01 -3.389107e-01 -3.420743e-01 -3.421107e-01 -3.433119e-01 -3.414245e-01 -3.406656e-01 -3.368962e-01 -3.339813e-01 -3.282074e-01 -3.229020e-01 -3.150544e-01 -3.073331e-01 -2.976003e-01 -2.877818e-01 -2.766561e-01 -2.653645e-01 -2.535450e-01 -2.415687e-01 -2.298150e-01 -2.179539e-01 -2.069596e-01 -1.959149e-01 -1.862405e-01 -1.765681e-01 -1.686330e-01 -1.607494e-01 -1.548594e-01 
-1.561437e-01 -1.525755e-01 -1.490771e-01 -1.477299e-01 -1.464410e-01 -1.473412e-01 -1.482237e-01 -1.512424e-01 -1.540655e-01 -1.588602e-01 -1.631644e-01 -1.691710e-01 -1.743168e-01 -1.808507e-01 -1.861807e-01 -1.926323e-01 -1.976857e-01 -2.037201e-01 -2.083990e-01 -2.140701e-01 -2.186829e-01 -2.244042e-01 -2.295455e-01 -2.358892e-01 -2.421559e-01 -2.495181e-01 -2.571545e-01 -2.654449e-01 -2.741271e-01 -2.827069e-01 -2.916390e-01 -2.995751e-01 -3.078316e-01 -3.142760e-01 -3.211322e-01 -3.255736e-01 -3.306444e-01 -3.329406e-01 -3.361207e-01 -3.363632e-01 -3.376574e-01 -3.359761e-01 -3.353365e-01 -3.317676e-01 -3.290481e-01 -3.235507e-01 -3.186128e-01 -3.112076e-01 -3.040839e-01 -2.949884e-01 -2.859761e-01 -2.756367e-01 -2.652741e-01 -2.543001e-01 -2.432667e-01 -2.323227e-01 -2.213234e-01 -2.110321e-01 -2.007065e-01 -1.915897e-01 -1.824652e-01 -1.749275e-01 -1.674113e-01 -1.617523e-01 
-1.622695e-01 -1.587688e-01 -1.552053e-01 -1.537493e-01 -1.522195e-01 -1.528201e-01 -1.532798e-01 -1.558084e-01 -1.580477e-01 -1.622024e-01 -1.658334e-01 -1.711473e-01 -1.756529e-01 -1.815763e-01 -1.864361e-01 -1.924818e-01 -1.973308e-01 -2.032198e-01 -2.079683e-01 -2.137096e-01 -2.185666e-01 -2.244262e-01 -2.297988e-01 -2.361452e-01 -2.424267e-01 -2.494913e-01 -2.568123e-01 -2.644798e-01 -2.725638e-01 -2.803328e-01 -2.885616e-01 -2.957165e-01 -3.033617e-01 -3.092324e-01 -3.156886e-01 -3.198339e-01 -3.247294e-01 -3.269739e-01 -3.301422e-01 -3.304925e-01 -3.318639e-01 -3.303794e-01 -3.298743e-01 -3.265790e-01 -3.240804e-01 -3.189725e-01 -3.143975e-01 -3.075403e-01 -3.009510e-01 -2.925626e-01 -2.842329e-01 -2.747103e-01 -2.651114e-01 -2.549852e-01 -2.447134e-01 -2.345685e-01 -2.242553e-01 -2.146543e-01 -2.048904e-01 -1.963210e-01 -1.876100e-01 -1.804639e-01 -1.732055e-01 -1.677785e-01 
-1.672771e-01 -1.637613e-01 -1.601337e-01 -1.585157e-01 -1.567659e-01 -1.570459e-01 -1.571283e-01 -1.591828e-01 -1.609120e-01 -1.644790e-01 -1.675322e-01 -1.722278e-01 -1.761907e-01 -1.815761e-01 -1.860379e-01 -1.917261e-01 -1.963933e-01 -2.021526e-01 -2.069334e-01 -2.127401e-01 -2.177576e-01 -2.237683e-01 -2.292836e-01 -2.357184e-01 -2.419757e-01 -2.489475e-01 -2.559998e-01 -2.633698e-01 -2.709790e-01 -2.783320e-01 -2.860113e-01 -2.927719e-01 -2.999412e-01 -3.055548e-01 -3.117038e-01 -3.157724e-01 -3.205464e-01 -3.228665e-01 -3.260580e-01 -3.265723e-01 -3.280557e-01 -3.267702e-01 -3.264359e-01 -3.233624e-01 -3.211035e-01 -3.162666e-01 -3.120304e-01 -3.055262e-01 -2.993918e-01 -2.914477e-01 -2.836726e-01 -2.746626e-01 -2.656727e-01 -2.560825e-01 -2.464168e-01 -2.367817e-01 -2.270193e-01 -2.178607e-01 -2.085545e-01 -2.003332e-01 -1.919649e-01 -1.850568e-01 -1.780147e-01 -1.727050e-01 
-1.716007e-01 -1.681021e-01 -1.643665e-01 -1.626391e-01 -1.606671e-01 -1.607092e-01 -1.604597e-01 -1.621586e-01 -1.634686e-01 -1.665963e-01 -1.691917e-01 -1.734252e-01 -1.769628e-01 -1.819393e-01 -1.860820e-01 -1.914795e-01 -1.959821e-01 -2.015947e-01 -2.063642e-01 -2.121392e-01 -2.172402e-01 -2.232526e-01 -2.288458e-01 -2.352105e-01 -2.414375e-01 -2.481869e-01 -2.550455e-01 -2.620299e-01 -2.693052e-01 -2.761768e-01 -2.834697e-01 -2.897629e-01 -2.965964e-01 -3.018543e-01 -3.077893e-01 -3.116633e-01 -3.163650e-01 -3.186484e-01 -3.218887e-01 -3.224904e-01 -3.241087e-01 -3.230004e-01 -3.228646e-01 -3.200448e-01 -3.180478e-01 -3.135475e-01 -3.096473e-01 -3.035708e-01 -2.978477e-01 -2.904139e-01 -2.831063e-01 -2.746589e-01 -2.661560e-01 -2.571366e-01 -2.479349e-01 -2.388337e-01 -2.294748e-01 -2.207768e-01 -2.117881e-01 -2.039305e-01 -1.957799e-01 -1.891261e-01 -1.821962e-01 -1.770249e-01 
-1.748182e-01 -1.712511e-01 -1.674171e-01 -1.655282e-01 -1.633639e-01 -1.631479e-01 -1.626161e-01 -1.639692e-01 -1.649278e-01 -1.676515e-01 -1.698682e-01 -1.736912e-01 -1.768814e-01 -1.815041e-01 -1.853892e-01 -1.905441e-01 -1.949144e-01 -2.004200e-01 -2.051774e-01 -2.109618e-01 -2.161220e-01 -2.222020e-01 -2.278476e-01 -2.342619e-01 -2.404585e-01 -2.471800e-01 -2.538876e-01 -2.607536e-01 -2.677769e-01 -2.744789e-01 -2.814856e-01 -2.876256e-01 -2.942182e-01 -2.993986e-01 -3.051948e-01 -3.090932e-01 -3.137767e-01 -3.161764e-01 -3.195039e-01 -3.202823e-01 -3.220632e-01 -3.211602e-01 -3.212374e-01 -3.186350e-01 -3.168905e-01 -3.126201e-01 -3.090100e-01 -3.031830e-01 -2.977842e-01 -2.906207e-01 -2.836588e-01 -2.754935e-01 -2.673369e-01 -2.585944e-01 -2.497158e-01 -2.408668e-01 -2.317869e-01 -2.232992e-01 -2.145300e-01 -2.068276e-01 -1.988271e-01 -1.922633e-01 -1.854072e-01 -1.802513e-01 
-1.775718e-01 -1.739767e-01 -1.699941e-01 -1.679968e-01 -1.656236e-01 -1.652202e-01 -1.644244e-01 -1.655219e-01 -1.661769e-01 -1.686007e-01 -1.705040e-01 -1.740200e-01 -1.769268e-01 -1.812784e-01 -1.849491e-01 -1.899035e-01 -1.941518e-01 -1.995401e-01 -2.042646e-01 -2.099973e-01 -2.151806e-01 -2.212303e-01 -2.269024e-01 -2.332534e-01 -2.394284e-01 -2.460130e-01 -2.526247e-01 -2.592748e-01 -2.661411e-01 -2.725814e-01 -2.794158e-01 -2.853048e-01 -2.917657e-01 -2.967595e-01 -3.025077e-01 -3.063163e-01 -3.110520e-01 -3.134645e-01 -3.169368e-01 -3.178171e-01 -3.198137e-01 -3.190826e-01 -3.194230e-01 -3.170478e-01 -3.155951e-01 -3.115990e-01 -3.082949e-01 -3.027820e-01 -2.976884e-01 -2.908671e-01 -2.841929e-01 -2.763793e-01 -2.684756e-01 -2.600725e-01 -2.513982e-01 -2.428549e-01 -2.339225e-01 -2.256898e-01 -2.170082e-01 -2.094987e-01 -2.015263e-01 -1.950861e-01 -1.881997e-01 -1.830936e-01 
-1.791722e-01 -1.754642e-01 -1.713532e-01 -1.691987e-01 -1.666567e-01 -1.660482e-01 -1.650447e-01 -1.658946e-01 -1.663147e-01 -1.684668e-01 -1.701317e-01 -1.733820e-01 -1.760784e-01 -1.802062e-01 -1.837246e-01 -1.885276e-01 -1.926988e-01 -1.980219e-01 -2.027396e-01 -2.084846e-01 -2.137041e-01 -2.198139e-01 -2.255239e-01 -2.319448e-01 -2.381210e-01 -2.447553e-01 -2.513134e-01 -2.579847e-01 -2.647548e-01 -2.712045e-01 -2.779367e-01 -2.838540e-01 -2.902520e-01 -2.953214e-01 -3.010812e-01 -3.050254e-01 -3.098616e-01 -3.124632e-01 -3.161168e-01 -3.172186e-01 -3.194540e-01 -3.189511e-01 -3.195581e-01 -3.173953e-01 -3.162092e-01 -3.123948e-01 -3.093346e-01 -3.039656e-01 -2.990772e-01 -2.923606e-01 -2.858436e-01 -2.780984e-01 -2.703022e-01 -2.619363e-01 -2.533237e-01 -2.447925e-01 -2.358830e-01 -2.276420e-01 -2.189518e-01 -2.114149e-01 -2.034069e-01 -1.969178e-01 -1.899691e-01 -1.847864e-01 
-1.804930e-01 -1.767144e-01 -1.724148e-01 -1.701512e-01 -1.674089e-01 -1.666529e-01 -1.654372e-01 -1.661074e-01 -1.663101e-01 -1.682644e-01 -1.697205e-01 -1.727761e-01 -1.752919e-01 -1.792517e-01 -1.826366e-01 -1.873172e-01 -1.914126e-01 -1.966655e-01 -2.013620e-01 -2.070796e-01 -2.123149e-01 -2.184170e-01 -2.241536e-01 -2.305582e-01 -2.367474e-01 -2.433356e-01 -2.498827e-01 -2.564741e-01 -2.632181e-01 -2.695694e-01 -2.762873e-01 -2.821157e-01 -2.885437e-01 -2.935633e-01 -2.994242e-01 -3.033780e-01 -3.083987e-01 -3.110760e-01 -3.149922e-01 -3.162300e-01 -3.187855e-01 -3.184642e-01 -3.194176e-01 -3.174640e-01 -3.166142e-01 -3.130184e-01 -3.102487e-01 -3.050915e-01 -3.004190e-01 -2.938943e-01 -2.875021e-01 -2.799198e-01 -2.721563e-01 -2.639196e-01 -2.552602e-01 -2.468237e-01 -2.378087e-01 -2.296288e-01 -2.207959e-01 -2.132883e-01 -2.051174e-01 -1.986263e-01 -1.915047e-01 -1.862872e-01 
-1.805483e-01 -1.766206e-01 -1.721670e-01 -1.697542e-01 -1.668649e-01 -1.659515e-01 -1.645906e-01 -1.650936e-01 -1.651543e-01 -1.669388e-01 -1.682652e-01 -1.711639e-01 -1.735761e-01 -1.774115e-01 -1.807325e-01 -1.853390e-01 -1.894173e-01 -1.946562e-01 -1.993787e-01 -2.051409e-01 -2.104306e-01 -2.166239e-01 -2.224222e-01 -2.289474e-01 -2.351872e-01 -2.419106e-01 -2.484898e-01 -2.552251e-01 -2.619919e-01 -2.685005e-01 -2.752547e-01 -2.812648e-01 -2.877724e-01 -2.930081e-01 -2.990168e-01 -3.032240e-01 -3.084719e-01 -3.114319e-01 -3.156472e-01 -3.171775e-01 -3.200774e-01 -3.200299e-01 -3.213313e-01 -3.195999e-01 -3.190532e-01 -3.155981e-01 -3.130421e-01 -3.079244e-01 -3.033469e-01 -2.967584e-01 -2.903370e-01 -2.826038e-01 -2.747050e-01 -2.662602e-01 -2.573938e-01 -2.487251e-01 -2.394697e-01 -2.310615e-01 -2.219874e-01 -2.142721e-01 -2.058796e-01 -1.992066e-01 -1.918905e-01 -1.865126e-01 
-1.804808e-01 -1.764427e-01 -1.717633e-01 -1.692407e-01 -1.661596e-01 -1.651325e-01 -1.636051e-01 -1.639903e-01 -1.639055e-01 -1.655731e-01 -1.667759e-01 -1.695682e-01 -1.718839e-01 -1.756355e-01 -1.788932e-01 -1.834488e-01 -1.875005e-01 -1.927257e-01 -1.974563e-01 -2.032386e-01 -2.085632e-01 -2.147997e-01 -2.206490e-01 -2.272263e-01 -2.335244e-01 -2.402967e-01 -2.469400e-01 -2.537160e-01 -2.605614e-01 -2.671066e-01 -2.739716e-01 -2.800257e-01 -2.866981e-01 -2.920002e-01 -2.982471e-01 -3.025564e-01 -3.081265e-01 -3.112312e-01 -3.158478e-01 -3.175625e-01 -3.209183e-01 -3.210802e-01 -3.228476e-01 -3.213254e-01 -3.211951e-01 -3.179191e-01 -3.156669e-01 -3.106718e-01 -3.062370e-01 -2.996992e-01 -2.932406e-01 -2.854862e-01 -2.773873e-01 -2.688625e-01 -2.596778e-01 -2.508914e-01 -2.412561e-01 -2.327135e-01 -2.232492e-01 -2.153992e-01 -2.066429e-01 -1.998436e-01 -1.922089e-01 -1.867144e-01 
-1.789634e-01 -1.747515e-01 -1.699015e-01 -1.672460e-01 -1.640452e-01 -1.629097e-01 -1.612983e-01 -1.615892e-01 -1.614464e-01 -1.630308e-01 -1.641986e-01 -1.669232e-01 -1.692284e-01 -1.729373e-01 -1.762123e-01 -1.807611e-01 -1.848595e-01 -1.901234e-01 -1.949276e-01 -2.007989e-01 -2.062172e-01 -2.125931e-01 -2.185469e-01 -2.253099e-01 -2.317155e-01 -2.387143e-01 -2.454664e-01 -2.525045e-01 -2.594681e-01 -2.663076e-01 -2.733181e-01 -2.796969e-01 -2.865665e-01 -2.922223e-01 -2.987419e-01 -3.034306e-01 -3.093621e-01 -3.128627e-01 -3.179228e-01 -3.200294e-01 -3.238768e-01 -3.243908e-01 -3.266361e-01 -3.253764e-01 -3.256302e-01 -3.224733e-01 -3.204335e-01 -3.153758e-01 -3.109317e-01 -3.041449e-01 -2.974527e-01 -2.892985e-01 -2.807874e-01 -2.717757e-01 -2.620768e-01 -2.527860e-01 -2.426147e-01 -2.336068e-01 -2.236482e-01 -2.154053e-01 -2.062335e-01 -1.991242e-01 -1.911650e-01 -1.854366e-01 
-1.774578e-01 -1.731014e-01 -1.679980e-01 -1.652363e-01 -1.618608e-01 -1.606460e-01 -1.589181e-01 -1.591481e-01 -1.589308e-01 -1.604693e-01 -1.615935e-01 -1.642881e-01 -1.665746e-01 -1.702736e-01 -1.735522e-01 -1.781170e-01 -1.822402e-01 -1.875503e-01 -1.923998e-01 -1.983494e-01 -2.038326e-01 -2.103168e-01 -2.163548e-01 -2.232504e-01 -2.297610e-01 -2.369085e-01 -2.437914e-01 -2.509866e-01 -2.581158e-01 -2.651151e-01 -2.723397e-01 -2.788804e-01 -2.860301e-01 -2.918552e-01 -2.987399e-01 -3.036163e-01 -3.100124e-01 -3.137299e-01 -3.193540e-01 -3.217086e-01 -3.261922e-01 -3.269685e-01 -3.298593e-01 -3.288387e-01 -3.296517e-01 -3.266609e-01 -3.249868e-01 -3.199775e-01 -3.156217e-01 -3.087444e-01 -3.018363e-01 -2.934633e-01 -2.844745e-01 -2.751528e-01 -2.648078e-01 -2.551656e-01 -2.442884e-01 -2.349345e-01 -2.243018e-01 -2.157516e-01 -2.059960e-01 -1.986347e-01 -1.902071e-01 -1.842843e-01 
-1.742387e-01 -1.697026e-01 -1.644304e-01 -1.615685e-01 -1.581159e-01 -1.568523e-01 -1.551109e-01 -1.553224e-01 -1.551343e-01 -1.566719e-01 -1.578541e-01 -1.605609e-01 -1.629268e-01 -1.666535e-01 -1.700290e-01 -1.746450e-01 -1.788811e-01 -1.842774e-01 -1.892551e-01 -1.953382e-01 -2.009638e-01 -2.076397e-01 -2.138325e-01 -2.209849e-01 -2.276612e-01 -2.351318e-01 -2.421923e-01 -2.497710e-01 -2.570961e-01 -2.645283e-01 -2.719833e-01 -2.789929e-01 -2.864338e-01 -2.927535e-01 -3.000223e-01 -3.054132e-01 -3.123118e-01 -3.165588e-01 -3.228048e-01 -3.256866e-01 -3.308707e-01 -3.321274e-01 -3.357059e-01 -3.350416e-01 -3.363976e-01 -3.335430e-01 -3.321301e-01 -3.269607e-01 -3.224940e-01 -3.151471e-01 -3.077550e-01 -2.986695e-01 -2.889155e-01 -2.787582e-01 -2.675115e-01 -2.570363e-01 -2.452642e-01 -2.351745e-01 -2.237571e-01 -2.146181e-01 -2.042412e-01 -1.964482e-01 -1.875723e-01 -1.813585e-01 
-1.711452e-01 -1.664422e-01 -1.609100e-01 -1.579570e-01 -1.543674e-01 -1.530670e-01 -1.512755e-01 -1.514869e-01 -1.513060e-01 -1.528678e-01 -1.540925e-01 -1.568412e-01 -1.592690e-01 -1.630541e-01 -1.665011e-01 -1.711953e-01 -1.755083e-01 -1.810092e-01 -1.860700e-01 -1.922921e-01 -1.980126e-01 -2.048678e-01 -2.111764e-01 -2.185497e-01 -2.253731e-01 -2.331002e-01 -2.403489e-01 -2.482066e-01 -2.557705e-01 -2.634867e-01 -2.712415e-01 -2.785254e-01 -2.863429e-01 -2.929240e-01 -3.006703e-01 -3.063234e-01 -3.138294e-01 -3.183635e-01 -3.253638e-01 -3.285733e-01 -3.346371e-01 -3.362467e-01 -3.407454e-01 -3.404005e-01 -3.425654e-01 -3.399088e-01 -3.390070e-01 -3.338329e-01 -3.294269e-01 -3.218376e-01 -3.140087e-01 -3.044692e-01 -2.938667e-01 -2.831193e-01 -2.707905e-01 -2.596835e-01 -2.467880e-01 -2.361075e-01 -2.236732e-01 -2.140381e-01 -2.028320e-01 -1.946596e-01 -1.851657e-01 -1.786870e-01 
-1.659885e-01 -1.611322e-01 -1.554653e-01 -1.524731e-01 -1.488771e-01 -1.476084e-01 -1.458951e-01 -1.461764e-01 -1.461256e-01 -1.477733e-01 -1.491569e-01 -1.519951e-01 -1.545955e-01 -1.584710e-01 -1.620958e-01 -1.668880e-01 -1.713809e-01 -1.770032e-01 -1.822480e-01 -1.886370e-01 -1.945504e-01 -2.016425e-01 -2.081580e-01 -2.158580e-01 -2.229048e-01 -2.310570e-01 -2.385454e-01 -2.469192e-01 -2.547408e-01 -2.630416e-01 -2.710852e-01 -2.789929e-01 -2.871635e-01 -2.943854e-01 -3.026020e-01 -3.089096e-01 -3.170583e-01 -3.222725e-01 -3.301140e-01 -3.340303e-01 -3.410948e-01 -3.433907e-01 -3.489188e-01 -3.491197e-01 -3.521237e-01 -3.496967e-01 -3.491951e-01 -3.437770e-01 -3.391595e-01 -3.308133e-01 -3.221588e-01 -3.114739e-01 -2.996086e-01 -2.875511e-01 -2.737898e-01 -2.614267e-01 -2.471733e-01 -2.354368e-01 -2.218745e-01 -2.114448e-01 -1.994016e-01 -1.906924e-01 -1.806440e-01 -1.738466e-01 
-1.610472e-01 -1.560237e-01 -1.501291e-01 -1.470827e-01 -1.434231e-01 -1.421781e-01 -1.405103e-01 -1.408646e-01 -1.409252e-01 -1.426738e-01 -1.442016e-01 -1.471549e-01 -1.499076e-01 -1.539063e-01 -1.576749e-01 -1.626009e-01 -1.672218e-01 -1.729993e-01 -1.783595e-01 -1.849418e-01 -1.909715e-01 -1.983125e-01 -2.049651e-01 -2.129803e-01 -2.202060e-01 -2.287358e-01 -2.364607e-01 -2.452527e-01 -2.533760e-01 -2.620994e-01 -2.705130e-01 -2.788104e-01 -2.874299e-01 -2.949918e-01 -3.037693e-01 -3.103895e-01 -3.192712e-01 -3.248270e-01 -3.336348e-01 -3.379745e-01 -3.462470e-01 -3.490447e-01 -3.559197e-01 -3.566086e-01 -3.608573e-01 -3.587418e-01 -3.590489e-01 -3.536080e-01 -3.490706e-01 -3.403032e-01 -3.309054e-01 -3.194554e-01 -3.061935e-01 -2.931710e-01 -2.776993e-01 -2.643412e-01 -2.483996e-01 -2.357743e-01 -2.207707e-01 -2.096342e-01 -1.964928e-01 -1.872792e-01 -1.764781e-01 -1.693620e-01 
-1.536057e-01 -1.485068e-01 -1.425650e-01 -1.395834e-01 -1.360319e-01 -1.349317e-01 -1.334667e-01 -1.340016e-01 -1.343162e-01 -1.362498e-01 -1.380524e-01 -1.411753e-01 -1.442025e-01 -1.483473e-01 -1.523776e-01 -1.574326e-01 -1.622986e-01 -1.682104e-01 -1.738054e-01 -1.805641e-01 -1.868320e-01 -1.944355e-01 -2.013444e-01 -2.097477e-01 -2.172546e-01 -2.263189e-01 -2.343437e-01 -2.438071e-01 -2.522367e-01 -2.617259e-01 -2.704534e-01 -2.795514e-01 -2.885332e-01 -2.968852e-01 -3.061643e-01 -3.135671e-01 -3.232057e-01 -3.295909e-01 -3.394983e-01 -3.447711e-01 -3.544755e-01 -3.582853e-01 -3.667495e-01 -3.683500e-01 -3.739820e-01 -3.723477e-01 -3.733669e-01 -3.676375e-01 -3.627908e-01 -3.528548e-01 -3.421139e-01 -3.288611e-01 -3.135717e-01 -2.985454e-01 -2.808663e-01 -2.656826e-01 -2.477640e-01 -2.337018e-01 -2.171655e-01 -2.050326e-01 -1.908458e-01 -1.810305e-01 -1.696132e-01 -1.622038e-01 
-1.464360e-01 -1.412080e-01 -1.351361e-01 -1.321722e-01 -1.286856e-01 -1.276980e-01 -1.264176e-01 -1.271196e-01 -1.276829e-01 -1.298080e-01 -1.318813e-01 -1.351983e-01 -1.384849e-01 -1.428153e-01 -1.470690e-01 -1.523026e-01 -1.573446e-01 -1.634453e-01 -1.691745e-01 -1.761635e-01 -1.825488e-01 -1.904603e-01 -1.975068e-01 -2.063233e-01 -2.140251e-01 -2.236101e-01 -2.319118e-01 -2.419690e-01 -2.507599e-01 -2.608474e-01 -2.700049e-01 -2.796245e-01 -2.890945e-01 -2.978430e-01 -3.077064e-01 -3.154152e-01 -3.258520e-01 -3.325799e-01 -3.436578e-01 -3.494525e-01 -3.607966e-01 -3.653493e-01 -3.758284e-01 -3.782490e-01 -3.858944e-01 -3.848436e-01 -3.872610e-01 -3.815550e-01 -3.769026e-01 -3.663102e-01 -3.543499e-01 -3.398756e-01 -3.223027e-01 -3.057664e-01 -2.854131e-01 -2.687361e-01 -2.483394e-01 -2.330156e-01 -2.145162e-01 -2.014463e-01 -1.858900e-01 -1.754620e-01 -1.632061e-01 -1.554587e-01 
-1.362559e-01 -1.311080e-01 -1.251570e-01 -1.224223e-01 -1.192189e-01 -1.185337e-01 -1.176238e-01 -1.186484e-01 -1.196201e-01 -1.220492e-01 -1.245342e-01 -1.281086e-01 -1.317845e-01 -1.363103e-01 -1.409132e-01 -1.462845e-01 -1.516305e-01 -1.578418e-01 -1.638430e-01 -1.709735e-01 -1.776278e-01 -1.857878e-01 -1.931334e-01 -2.023787e-01 -2.104256e-01 -2.206641e-01 -2.293386e-01 -2.402642e-01 -2.494088e-01 -2.605031e-01 -2.699589e-01 -2.806010e-01 -2.903519e-01 -3.000365e-01 -3.103168e-01 -3.188820e-01 -3.301031e-01 -3.377522e-01 -3.501989e-01 -3.571767e-01 -3.705594e-01 -3.766286e-01 -3.896200e-01 -3.936475e-01 -4.036852e-01 -4.037076e-01 -4.074982e-01 -4.015711e-01 -3.965252e-01 -3.841064e-01 -3.699379e-01 -3.525686e-01 -3.317001e-01 -3.120860e-01 -2.883395e-01 -2.690572e-01 -2.458495e-01 -2.286565e-01 -2.081759e-01 -1.939546e-01 -1.772016e-01 -1.661941e-01 -1.533564e-01 -1.454317e-01 
-1.263540e-01 -1.211777e-01 -1.152936e-01 -1.127001e-01 -1.097656e-01 -1.093220e-01 -1.087915e-01 -1.101078e-01 -1.115078e-01 -1.142403e-01 -1.171556e-01 -1.210150e-01 -1.250816e-01 -1.298538e-01 -1.347715e-01 -1.403489e-01 -1.459127e-01 -1.523156e-01 -1.584453e-01 -1.658068e-01 -1.725423e-01 -1.810424e-01 -1.884882e-01 -1.982426e-01 -2.064762e-01 -2.174124e-01 -2.264017e-01 -2.381654e-01 -2.477468e-01 -2.596962e-01 -2.696523e-01 -2.809969e-01 -2.912374e-01 -3.013401e-01 -3.121106e-01 -3.208475e-01 -3.327742e-01 -3.406236e-01 -3.543495e-01 -3.619048e-01 -3.774540e-01 -3.846506e-01 -4.007021e-01 -4.061970e-01 -4.196294e-01 -4.208336e-01 -4.271983e-01 -4.214603e-01 -4.169321e-01 -4.035031e-01 -3.872911e-01 -3.679639e-01 -3.432541e-01 -3.212800e-01 -2.933087e-01 -2.718224e-01 -2.450266e-01 -2.261086e-01 -2.030630e-01 -1.876760e-01 -1.693435e-01 -1.576655e-01 -1.440197e-01 -1.358033e-01 
-1.129040e-01 -1.080717e-01 -1.025883e-01 -1.004643e-01 -9.806303e-02 -9.813257e-02 -9.818983e-02 -1.000093e-01 -1.020065e-01 -1.051900e-01 -1.086798e-01 -1.128997e-01 -1.174878e-01 -1.225005e-01 -1.278597e-01 -1.335527e-01 -1.394668e-01 -1.458985e-01 -1.523079e-01 -1.597005e-01 -1.667030e-01 -1.753640e-01 -1.831362e-01 -1.933155e-01 -2.019761e-01 -2.136949e-01 -2.231767e-01 -2.360822e-01 -2.461013e-01 -2.594207e-01 -2.696214e-01 -2.823125e-01 -2.925991e-01 -3.037771e-01 -3.146491e-01 -3.241715e-01 -3.366928e-01 -3.453577e-01 -3.606374e-01 -3.695523e-01 -3.879447e-01 -3.974024e-01 -4.174831e-01 -4.259035e-01 -4.436338e-01 -4.472665e-01 -4.564116e-01 -4.508347e-01 -4.458792e-01 -4.294284e-01 -4.094212e-01 -3.852170e-01 -3.549547e-01 -3.281720e-01 -2.949398e-01 -2.698063e-01 -2.391148e-01 -2.179162e-01 -1.924835e-01 -1.759380e-01 -1.564264e-01 -1.443613e-01 -1.303541e-01 -1.222219e-01 
-9.966611e-02 -9.499930e-02 -8.991827e-02 -8.812810e-02 -8.629161e-02 -8.678215e-02 -8.747518e-02 -8.974935e-02 -9.240131e-02 -9.603058e-02 -1.001520e-01 -1.047674e-01 -1.099142e-01 -1.152355e-01 -1.210221e-01 -1.269231e-01 -1.330892e-01 -1.396612e-01 -1.461514e-01 -1.537060e-01 -1.606874e-01 -1.696603e-01 -1.774280e-01 -1.881932e-01 -1.969902e-01 -2.096316e-01 -2.194720e-01 -2.335834e-01 -2.441729e-01 -2.587744e-01 -2.696201e-01 -2.833260e-01 -2.940926e-01 -3.056726e-01 -3.167262e-01 -3.260102e-01 -3.387874e-01 -3.471596e-01 -3.635164e-01 -3.728882e-01 -3.939721e-01 -4.051475e-01 -4.298965e-01 -4.410585e-01 -4.647182e-01 -4.708470e-01 -4.849713e-01 -4.799571e-01 -4.763453e-01 -4.582665e-01 -4.346326e-01 -4.071803e-01 -3.701092e-01 -3.395630e-01 -2.995345e-01 -2.711711e-01 -2.353903e-01 -2.119281e-01 -1.833627e-01 -1.654884e-01 -1.443996e-01 -1.317226e-01 -1.171742e-01 -1.089118e-01 
-8.241756e-02 -7.849271e-02 -7.422936e-02 -7.323082e-02 -7.225564e-02 -7.352328e-02 -7.506661e-02 -7.806656e-02 -8.153682e-02 -8.580224e-02 -9.069075e-02 -9.579939e-02 -1.016267e-01 -1.072386e-01 -1.135704e-01 -1.195266e-01 -1.260681e-01 -1.324984e-01 -1.392186e-01 -1.465663e-01 -1.537402e-01 -1.626531e-01 -1.707330e-01 -1.818257e-01 -1.911667e-01 -2.047182e-01 -2.152912e-01 -2.309489e-01 -2.421981e-01 -2.587839e-01 -2.698262e-01 -2.854502e-01 -2.957743e-01 -3.085879e-01 -3.189895e-01 -3.286685e-01 -3.413850e-01 -3.499517e-01 -3.677201e-01 -3.782663e-01 -4.031080e-01 -4.175181e-01 -4.487347e-01 -4.652945e-01 -4.969391e-01 -5.086280e-01 -5.286217e-01 -5.250767e-01 -5.211726e-01 -4.975472e-01 -4.669330e-01 -4.306875e-01 -3.837593e-01 -3.455795e-01 -2.973402e-01 -2.640894e-01 -2.231763e-01 -1.972735e-01 -1.662110e-01 -1.475254e-01 -1.256638e-01 -1.130939e-01 -9.872862e-02 -9.102364e-02 
-6.521704e-02 -6.177852e-02 -5.842131e-02 -5.803016e-02 -5.800739e-02 -5.992898e-02 -6.241670e-02 -6.607710e-02 -7.047076e-02 -7.536549e-02 -8.113733e-02 -8.678849e-02 -9.340054e-02 -9.939704e-02 -1.063128e-01 -1.124459e-01 -1.192697e-01 -1.257000e-01 -1.323838e-01 -1.396962e-01 -1.466284e-01 -1.557012e-01 -1.635472e-01 -1.752395e-01 -1.845853e-01 -1.993383e-01 -2.103231e-01 -2.277616e-01 -2.398522e-01 -2.584909e-01 -2.705621e-01 -2.878602e-01 -2.987875e-01 -3.120148e-01 -3.219163e-01 -3.303607e-01 -3.421377e-01 -3.491124e-01 -3.669684e-01 -3.773317e-01 -4.050401e-01 -4.219815e-01 -4.602069e-01 -4.820462e-01 -5.243681e-01 -5.415795e-01 -5.716203e-01 -5.692808e-01 -5.688704e-01 -5.423823e-01 -5.047847e-01 -4.628765e-01 -4.029895e-01 -3.586196e-01 -2.993101e-01 -2.613936e-01 -2.136274e-01 -1.849622e-01 -1.505929e-01 -1.306347e-01 -1.077155e-01 -9.482662e-02 -8.060952e-02 -7.312143e-02 
-4.380880e-02 -4.164454e-02 -3.965651e-02 -4.044295e-02 -4.166421e-02 -4.466352e-02 -4.828500e-02 -5.293206e-02 -5.838424e-02 -6.415341e-02 -7.091998e-02 -7.725670e-02 -8.475705e-02 -9.112682e-02 -9.872563e-02 -1.048152e-01 -1.120154e-01 -1.180016e-01 -1.247578e-01 -1.314138e-01 -1.383070e-01 -1.468581e-01 -1.548901e-01 -1.666181e-01 -1.766681e-01 -1.924055e-01 -2.046249e-01 -2.242121e-01 -2.375747e-01 -2.593155e-01 -2.717112e-01 -2.921169e-01 -3.016835e-01 -3.164568e-01 -3.241504e-01 -3.319615e-01 -3.421401e-01 -3.475084e-01 -3.657669e-01 -3.760347e-01 -4.080732e-01 -4.291003e-01 -4.774512e-01 -5.091291e-01 -5.667477e-01 -5.969040e-01 -6.399040e-01 -6.432921e-01 -6.432801e-01 -6.049495e-01 -5.534123e-01 -4.943599e-01 -4.157840e-01 -3.593840e-01 -2.874518e-01 -2.437330e-01 -1.900188e-01 -1.595856e-01 -1.235124e-01 -1.038061e-01 -8.128721e-02 -6.946825e-02 -5.647909e-02 -5.028657e-02 
-2.216963e-02 -2.096071e-02 -2.054156e-02 -2.228360e-02 -2.489962e-02 -2.882607e-02 -3.371377e-02 -3.926487e-02 -4.592836e-02 -5.256623e-02 -6.052631e-02 -6.762377e-02 -7.623721e-02 -8.311715e-02 -9.155727e-02 -9.776208e-02 -1.052923e-01 -1.109967e-01 -1.174863e-01 -1.236789e-01 -1.298968e-01 -1.382113e-01 -1.455487e-01 -1.577283e-01 -1.674824e-01 -1.847234e-01 -1.973857e-01 -2.196375e-01 -2.343548e-01 -2.595720e-01 -2.739928e-01 -2.976145e-01 -3.085814e-01 -3.241664e-01 -3.300116e-01 -3.343021e-01 -3.408809e-01 -3.415934e-01 -3.572109e-01 -3.653423e-01 -3.991019e-01 -4.234097e-01 -4.816612e-01 -5.236155e-01 -6.009864e-01 -6.442823e-01 -7.081867e-01 -7.132297e-01 -7.227508e-01 -6.788671e-01 -6.125515e-01 -5.431439e-01 -4.376396e-01 -3.707039e-01 -2.810526e-01 -2.309074e-01 -1.692061e-01 -1.359312e-01 -9.766060e-02 -7.727047e-02 -5.525615e-02 -4.382622e-02 -3.232898e-02 -2.696560e-02 
3.316892e-03 2.645122e-03 1.076024e-03 -2.232288e-03 -6.459862e-03 -1.175572e-02 -1.802544e-02 -2.484522e-02 -3.279587e-02 -4.062313e-02 -4.984816e-02 -5.794681e-02 -6.775488e-02 -7.519540e-02 -8.455784e-02 -9.060419e-02 -9.850905e-02 -1.032788e-01 -1.094907e-01 -1.142301e-01 -1.198405e-01 -1.267493e-01 -1.338533e-01 -1.453873e-01 -1.559952e-01 -1.740841e-01 -1.889792e-01 -2.141970e-01 -2.317863e-01 -2.621691e-01 -2.777755e-01 -3.072550e-01 -3.150989e-01 -3.331526e-01 -3.337705e-01 -3.351948e-01 -3.372398e-01 -3.320750e-01 -3.451781e-01 -3.492930e-01 -3.861725e-01 -4.138527e-01 -4.866916e-01 -5.454755e-01 -6.529760e-01 -7.267152e-01 -8.204324e-01 -8.457808e-01 -8.583670e-01 -7.841558e-01 -6.875519e-01 -5.822647e-01 -4.384358e-01 -3.540806e-01 -2.466428e-01 -1.920353e-01 -1.259307e-01 -9.359231e-02 -5.653523e-02 -3.866182e-02 -1.949724e-02 -1.068900e-02 -2.094145e-03 9.908901e-04 
2.941186e-02 2.718917e-02 2.332664e-02 1.868527e-02 1.266618e-02 6.174973e-03 -1.609203e-03 -9.589273e-03 -1.900252e-02 -2.801099e-02 -3.880317e-02 -4.802396e-02 -5.946547e-02 -6.768623e-02 -7.838708e-02 -8.448936e-02 -9.285710e-02 -9.684741e-02 -1.023750e-01 -1.058135e-01 -1.099259e-01 -1.157396e-01 -1.212701e-01 -1.327471e-01 -1.424216e-01 -1.622154e-01 -1.774208e-01 -2.065482e-01 -2.262560e-01 -2.626156e-01 -2.825277e-01 -3.188953e-01 -3.315238e-01 -3.526814e-01 -3.485947e-01 -3.410309e-01 -3.341233e-01 -3.176212e-01 -3.220028e-01 -3.191900e-01 -3.530173e-01 -3.832563e-01 -4.677306e-01 -5.458621e-01 -6.911074e-01 -7.993080e-01 -9.356135e-01 -9.588131e-01 -1.000131e+00 -9.145100e-01 -7.839993e-01 -6.599470e-01 -4.541634e-01 -3.511144e-01 -2.183694e-01 -1.560497e-01 -8.458781e-02 -5.069001e-02 -1.560434e-02 1.303521e-03 1.668213e-02 2.376631e-02 2.872278e-02 3.005283e-02 
5.809394e-02 5.346871e-02 4.710537e-02 4.062708e-02 3.277703e-02 2.472102e-02 1.544163e-02 5.931969e-03 -4.925048e-03 -1.554787e-02 -2.792471e-02 -3.871609e-02 -5.186159e-02 -6.110943e-02 -7.324666e-02 -7.913226e-02 -8.797595e-02 -9.028165e-02 -9.485706e-02 -9.547657e-02 -9.770788e-02 -1.005191e-01 -1.046863e-01 -1.141145e-01 -1.245145e-01 -1.444264e-01 -1.636363e-01 -1.965040e-01 -2.230352e-01 -2.681198e-01 -2.926515e-01 -3.416397e-01 -3.470989e-01 -3.735104e-01 -3.583585e-01 -3.434037e-01 -3.277187e-01 -2.962943e-01 -2.917408e-01 -2.756854e-01 -3.060664e-01 -3.335802e-01 -4.345614e-01 -5.369671e-01 -7.435777e-01 -9.204572e-01 -1.122836e+00 -1.219082e+00 -1.275166e+00 -1.096459e+00 -8.976967e-01 -6.989478e-01 -4.070148e-01 -2.863874e-01 -1.363196e-01 -7.800328e-02 -1.098718e-02 1.561829e-02 4.268026e-02 5.338783e-02 6.189785e-02 6.437795e-02 6.427590e-02 6.229559e-02 