# vtk DataFile Version 2.0
Comment goes here
ASCII

DATASET STRUCTURED_POINTS
DIMENSIONS    64   64   1

ORIGIN    0.000   0.000   0.000
SPACING   0.0156250.015625   1.000

POINT_DATA   4096
SCALARS uY double
LOOKUP_TABLE default

-1.071723e-01 -9.957664e-02 -9.487459e-02 -8.927166e-02 -8.746562e-02 -8.392925e-02 -8.503235e-02 -8.362743e-02 -8.725073e-02 -8.795271e-02 -9.305231e-02 -9.577694e-02 -1.006993e-01 -1.055081e-01 -1.087099e-01 -1.161427e-01 -1.176262e-01 -1.284238e-01 -1.296493e-01 -1.427491e-01 -1.452010e-01 -1.586038e-01 -1.641072e-01 -1.776221e-01 -1.874035e-01 -2.021687e-01 -2.165005e-01 -2.330242e-01 -2.505602e-01 -2.675446e-01 -2.855309e-01 -3.005688e-01 -3.162053e-01 -3.273299e-01 -3.390073e-01 -3.455781e-01 -3.531406e-01 -3.557510e-01 -3.600147e-01 -3.598466e-01 -3.617930e-01 -3.597665e-01 -3.597403e-01 -3.558887e-01 -3.533318e-01 -3.469356e-01 -3.409451e-01 -3.313291e-01 -3.215057e-01 -3.087149e-01 -2.955390e-01 -2.803966e-01 -2.650223e-01 -2.487688e-01 -2.325952e-01 -2.164696e-01 -2.007647e-01 -1.857144e-01 -1.714099e-01 -1.579993e-01 -1.456808e-01 -1.341612e-01 -1.241716e-01 -1.146111e-01 
-1.156487e-01 -1.083229e-01 -1.035779e-01 -9.815860e-02 -9.603493e-02 -9.260898e-02 -9.308468e-02 -9.173296e-02 -9.445897e-02 -9.521237e-02 -9.936674e-02 -1.022165e-01 -1.065971e-01 -1.115682e-01 -1.151209e-01 -1.223385e-01 -1.249758e-01 -1.344957e-01 -1.370264e-01 -1.483302e-01 -1.518601e-01 -1.640197e-01 -1.698361e-01 -1.826577e-01 -1.917431e-01 -2.056729e-01 -2.182429e-01 -2.333120e-01 -2.483464e-01 -2.634717e-01 -2.789225e-01 -2.923294e-01 -3.060671e-01 -3.162783e-01 -3.269677e-01 -3.334197e-01 -3.407576e-01 -3.437724e-01 -3.481810e-01 -3.485230e-01 -3.505839e-01 -3.488710e-01 -3.487796e-01 -3.450684e-01 -3.424619e-01 -3.363352e-01 -3.306535e-01 -3.217340e-01 -3.127747e-01 -3.011757e-01 -2.893583e-01 -2.757427e-01 -2.619872e-01 -2.473358e-01 -2.327696e-01 -2.180889e-01 -2.037735e-01 -1.898800e-01 -1.766492e-01 -1.640851e-01 -1.525157e-01 -1.415803e-01 -1.320495e-01 -1.228836e-01 
-1.236211e-01 -1.165910e-01 -1.119134e-01 -1.067046e-01 -1.043581e-01 -1.010468e-01 -1.009464e-01 -9.958450e-02 -1.013762e-01 -1.019710e-01 -1.049752e-01 -1.075209e-01 -1.108629e-01 -1.154316e-01 -1.184382e-01 -1.252286e-01 -1.279153e-01 -1.370135e-01 -1.400366e-01 -1.508781e-01 -1.550819e-01 -1.668026e-01 -1.730996e-01 -1.854006e-01 -1.944064e-01 -2.074578e-01 -2.191728e-01 -2.328773e-01 -2.464277e-01 -2.599503e-01 -2.737678e-01 -2.858003e-01 -2.982553e-01 -3.076678e-01 -3.176669e-01 -3.239472e-01 -3.311230e-01 -3.343888e-01 -3.389074e-01 -3.396143e-01 -3.417901e-01 -3.403317e-01 -3.402618e-01 -3.366961e-01 -3.341482e-01 -3.282530e-01 -3.228989e-01 -3.145008e-01 -3.062769e-01 -2.955490e-01 -2.848393e-01 -2.723491e-01 -2.599130e-01 -2.464691e-01 -2.332401e-01 -2.196851e-01 -2.065711e-01 -1.936203e-01 -1.813737e-01 -1.695409e-01 -1.587194e-01 -1.483271e-01 -1.393185e-01 -1.305519e-01 
-1.301250e-01 -1.233484e-01 -1.186238e-01 -1.135849e-01 -1.109976e-01 -1.077880e-01 -1.072663e-01 -1.059526e-01 -1.072096e-01 -1.078225e-01 -1.103349e-01 -1.128789e-01 -1.159984e-01 -1.204793e-01 -1.237056e-01 -1.301254e-01 -1.334003e-01 -1.416560e-01 -1.453522e-01 -1.550944e-01 -1.598006e-01 -1.705536e-01 -1.769180e-01 -1.884317e-01 -1.969055e-01 -2.091130e-01 -2.196749e-01 -2.323027e-01 -2.442765e-01 -2.565892e-01 -2.687832e-01 -2.797586e-01 -2.909066e-01 -2.996558e-01 -3.088426e-01 -3.149110e-01 -3.217316e-01 -3.251211e-01 -3.295685e-01 -3.305433e-01 -3.327486e-01 -3.315625e-01 -3.315484e-01 -3.282600e-01 -3.258661e-01 -3.203722e-01 -3.154060e-01 -3.076535e-01 -3.001272e-01 -2.903111e-01 -2.805694e-01 -2.691727e-01 -2.578496e-01 -2.455435e-01 -2.334229e-01 -2.209204e-01 -2.087877e-01 -1.967210e-01 -1.852581e-01 -1.741143e-01 -1.638559e-01 -1.539722e-01 -1.453121e-01 -1.369085e-01 
-1.360985e-01 -1.295518e-01 -1.248242e-01 -1.199363e-01 -1.171342e-01 -1.139924e-01 -1.130312e-01 -1.116910e-01 -1.123144e-01 -1.128006e-01 -1.145919e-01 -1.169170e-01 -1.194037e-01 -1.235953e-01 -1.264473e-01 -1.325327e-01 -1.357438e-01 -1.436317e-01 -1.475038e-01 -1.568440e-01 -1.618186e-01 -1.721445e-01 -1.786669e-01 -1.896708e-01 -1.979939e-01 -2.095021e-01 -2.195031e-01 -2.312124e-01 -2.422963e-01 -2.536026e-01 -2.648167e-01 -2.749241e-01 -2.852596e-01 -2.934570e-01 -3.021435e-01 -3.080176e-01 -3.146453e-01 -3.181112e-01 -3.225660e-01 -3.237439e-01 -3.260370e-01 -3.250716e-01 -3.251759e-01 -3.221140e-01 -3.199159e-01 -3.147269e-01 -3.101249e-01 -3.028369e-01 -2.958973e-01 -2.867275e-01 -2.777718e-01 -2.671545e-01 -2.567327e-01 -2.452508e-01 -2.340419e-01 -2.223203e-01 -2.110195e-01 -1.996296e-01 -1.888615e-01 -1.782658e-01 -1.685398e-01 -1.590796e-01 -1.507817e-01 -1.426955e-01 
-1.409249e-01 -1.345875e-01 -1.298062e-01 -1.250569e-01 -1.220766e-01 -1.190143e-01 -1.177772e-01 -1.164664e-01 -1.167737e-01 -1.172448e-01 -1.187749e-01 -1.210300e-01 -1.234193e-01 -1.274382e-01 -1.304182e-01 -1.361433e-01 -1.396597e-01 -1.469511e-01 -1.511659e-01 -1.597660e-01 -1.649660e-01 -1.745574e-01 -1.810409e-01 -1.913551e-01 -1.992820e-01 -2.100769e-01 -2.193230e-01 -2.302449e-01 -2.403319e-01 -2.508315e-01 -2.610101e-01 -2.704239e-01 -2.798852e-01 -2.876206e-01 -2.957085e-01 -3.013901e-01 -3.077008e-01 -3.111977e-01 -3.155480e-01 -3.168941e-01 -3.192118e-01 -3.184840e-01 -3.187002e-01 -3.159360e-01 -3.139548e-01 -3.091642e-01 -3.049288e-01 -2.981824e-01 -2.917799e-01 -2.832958e-01 -2.750186e-01 -2.651837e-01 -2.555121e-01 -2.448347e-01 -2.343648e-01 -2.233965e-01 -2.127520e-01 -2.020130e-01 -1.917727e-01 -1.817030e-01 -1.723559e-01 -1.632990e-01 -1.552288e-01 -1.474391e-01 
-1.451723e-01 -1.389895e-01 -1.341561e-01 -1.295018e-01 -1.263276e-01 -1.232982e-01 -1.217304e-01 -1.203860e-01 -1.202582e-01 -1.206279e-01 -1.216876e-01 -1.237784e-01 -1.257569e-01 -1.295585e-01 -1.322697e-01 -1.377359e-01 -1.411528e-01 -1.481514e-01 -1.524002e-01 -1.606773e-01 -1.659612e-01 -1.751973e-01 -1.817025e-01 -1.916024e-01 -1.993854e-01 -2.096709e-01 -2.185611e-01 -2.288821e-01 -2.384468e-01 -2.483263e-01 -2.579369e-01 -2.668238e-01 -2.758060e-01 -2.831988e-01 -2.909818e-01 -2.965332e-01 -3.027257e-01 -3.062684e-01 -3.106450e-01 -3.121443e-01 -3.145766e-01 -3.140518e-01 -3.144404e-01 -3.119120e-01 -3.101695e-01 -3.056675e-01 -3.017653e-01 -2.953874e-01 -2.894280e-01 -2.813975e-01 -2.736567e-01 -2.643355e-01 -2.552496e-01 -2.451028e-01 -2.352133e-01 -2.247476e-01 -2.146293e-01 -2.043322e-01 -1.945287e-01 -1.848247e-01 -1.758056e-01 -1.670369e-01 -1.591758e-01 -1.516037e-01 
-1.485427e-01 -1.425084e-01 -1.376020e-01 -1.330432e-01 -1.297270e-01 -1.267466e-01 -1.249919e-01 -1.236534e-01 -1.233337e-01 -1.236643e-01 -1.245812e-01 -1.265757e-01 -1.285118e-01 -1.321322e-01 -1.349226e-01 -1.400884e-01 -1.436743e-01 -1.502434e-01 -1.546746e-01 -1.624359e-01 -1.678241e-01 -1.765213e-01 -1.829687e-01 -1.923339e-01 -1.998467e-01 -2.095910e-01 -2.180037e-01 -2.277718e-01 -2.367203e-01 -2.460692e-01 -2.550383e-01 -2.634818e-01 -2.719109e-01 -2.790069e-01 -2.863992e-01 -2.918236e-01 -2.978064e-01 -3.013746e-01 -3.056984e-01 -3.073357e-01 -3.098320e-01 -3.095221e-01 -3.100629e-01 -3.078127e-01 -3.063032e-01 -3.021497e-01 -2.985649e-01 -2.926146e-01 -2.870520e-01 -2.795205e-01 -2.722322e-01 -2.634533e-01 -2.548369e-01 -2.452353e-01 -2.357891e-01 -2.258320e-01 -2.160944e-01 -2.062404e-01 -1.967316e-01 -1.873912e-01 -1.785704e-01 -1.700851e-01 -1.623255e-01 -1.549642e-01 
-1.512603e-01 -1.453023e-01 -1.403016e-01 -1.357841e-01 -1.322899e-01 -1.293127e-01 -1.273040e-01 -1.259265e-01 -1.253007e-01 -1.255490e-01 -1.261492e-01 -1.280200e-01 -1.296805e-01 -1.331410e-01 -1.357391e-01 -1.407150e-01 -1.442063e-01 -1.505614e-01 -1.549764e-01 -1.625032e-01 -1.679068e-01 -1.763477e-01 -1.827815e-01 -1.918591e-01 -1.992762e-01 -2.086931e-01 -2.169074e-01 -2.263193e-01 -2.349928e-01 -2.439973e-01 -2.526781e-01 -2.608458e-01 -2.690450e-01 -2.759805e-01 -2.832509e-01 -2.886458e-01 -2.946279e-01 -2.982806e-01 -3.027065e-01 -3.045059e-01 -3.071757e-01 -3.070697e-01 -3.078291e-01 -3.058043e-01 -3.045469e-01 -3.006363e-01 -2.973350e-01 -2.916478e-01 -2.863967e-01 -2.791469e-01 -2.721863e-01 -2.636972e-01 -2.554055e-01 -2.460859e-01 -2.369397e-01 -2.272413e-01 -2.177602e-01 -2.081304e-01 -1.988214e-01 -1.896661e-01 -1.809800e-01 -1.726412e-01 -1.649454e-01 -1.576944e-01 
-1.533192e-01 -1.474395e-01 -1.423329e-01 -1.378614e-01 -1.342373e-01 -1.312754e-01 -1.291291e-01 -1.277356e-01 -1.269882e-01 -1.271846e-01 -1.277072e-01 -1.294809e-01 -1.311310e-01 -1.344347e-01 -1.370944e-01 -1.418409e-01 -1.454442e-01 -1.514980e-01 -1.560306e-01 -1.632063e-01 -1.686791e-01 -1.767495e-01 -1.831557e-01 -1.918625e-01 -1.991277e-01 -2.081790e-01 -2.161230e-01 -2.251817e-01 -2.335071e-01 -2.421923e-01 -2.505124e-01 -2.584280e-01 -2.663216e-01 -2.731022e-01 -2.801711e-01 -2.855221e-01 -2.914266e-01 -2.951398e-01 -2.996048e-01 -3.015487e-01 -3.043514e-01 -3.044515e-01 -3.054114e-01 -3.036383e-01 -3.026263e-01 -2.990045e-01 -2.959742e-01 -2.906062e-01 -2.856329e-01 -2.787218e-01 -2.720257e-01 -2.638783e-01 -2.558184e-01 -2.468248e-01 -2.378632e-01 -2.284582e-01 -2.191064e-01 -2.097266e-01 -2.004900e-01 -1.915370e-01 -1.828695e-01 -1.746868e-01 -1.669612e-01 -1.598250e-01 
-1.546225e-01 -1.487414e-01 -1.435003e-01 -1.390196e-01 -1.352264e-01 -1.322414e-01 -1.298944e-01 -1.284581e-01 -1.274913e-01 -1.276219e-01 -1.279294e-01 -1.296140e-01 -1.310803e-01 -1.342743e-01 -1.368037e-01 -1.414244e-01 -1.449585e-01 -1.508759e-01 -1.553904e-01 -1.624232e-01 -1.679044e-01 -1.758273e-01 -1.822367e-01 -1.907905e-01 -1.980280e-01 -2.069215e-01 -2.147983e-01 -2.237044e-01 -2.319389e-01 -2.404984e-01 -2.487382e-01 -2.565827e-01 -2.644461e-01 -2.712321e-01 -2.783493e-01 -2.837887e-01 -2.898284e-01 -2.937016e-01 -2.983765e-01 -3.005276e-01 -3.035889e-01 -3.039147e-01 -3.051514e-01 -3.035971e-01 -3.028524e-01 -2.994245e-01 -2.966305e-01 -2.914212e-01 -2.866385e-01 -2.798469e-01 -2.732885e-01 -2.652228e-01 -2.572480e-01 -2.483040e-01 -2.393809e-01 -2.300019e-01 -2.206508e-01 -2.112824e-01 -2.020172e-01 -1.930685e-01 -1.843481e-01 -1.761676e-01 -1.683659e-01 -1.612310e-01 
-1.554403e-01 -1.495636e-01 -1.441731e-01 -1.396872e-01 -1.357600e-01 -1.327576e-01 -1.302987e-01 -1.288289e-01 -1.277824e-01 -1.278576e-01 -1.281292e-01 -1.297299e-01 -1.312121e-01 -1.342865e-01 -1.368818e-01 -1.413436e-01 -1.449781e-01 -1.507013e-01 -1.553235e-01 -1.621403e-01 -1.677042e-01 -1.754061e-01 -1.818451e-01 -1.901859e-01 -1.973843e-01 -2.060803e-01 -2.138528e-01 -2.225836e-01 -2.306728e-01 -2.390910e-01 -2.471833e-01 -2.549364e-01 -2.626927e-01 -2.694521e-01 -2.765374e-01 -2.820229e-01 -2.881241e-01 -2.921132e-01 -2.969422e-01 -2.992670e-01 -3.025567e-01 -3.030961e-01 -3.046042e-01 -3.032837e-01 -3.028156e-01 -2.996232e-01 -2.970726e-01 -2.920845e-01 -2.874804e-01 -2.808832e-01 -2.744200e-01 -2.665144e-01 -2.585485e-01 -2.497281e-01 -2.407391e-01 -2.314496e-01 -2.219782e-01 -2.126709e-01 -2.032526e-01 -1.943437e-01 -1.854565e-01 -1.773004e-01 -1.693310e-01 -1.622096e-01 
-1.553636e-01 -1.494127e-01 -1.438508e-01 -1.393116e-01 -1.352207e-01 -1.321749e-01 -1.295554e-01 -1.280424e-01 -1.268406e-01 -1.268667e-01 -1.269973e-01 -1.285405e-01 -1.299085e-01 -1.329188e-01 -1.354378e-01 -1.398330e-01 -1.434340e-01 -1.490944e-01 -1.537219e-01 -1.604858e-01 -1.660827e-01 -1.737466e-01 -1.802320e-01 -1.885531e-01 -1.957999e-01 -2.044977e-01 -2.123187e-01 -2.210786e-01 -2.292262e-01 -2.377097e-01 -2.458903e-01 -2.537551e-01 -2.616522e-01 -2.685767e-01 -2.758722e-01 -2.815755e-01 -2.879601e-01 -2.922091e-01 -2.973817e-01 -2.999877e-01 -3.036517e-01 -3.044638e-01 -3.063348e-01 -3.052445e-01 -3.050804e-01 -3.020433e-01 -2.996961e-01 -2.947660e-01 -2.902387e-01 -2.835971e-01 -2.770816e-01 -2.690436e-01 -2.609175e-01 -2.519057e-01 -2.426851e-01 -2.331799e-01 -2.234451e-01 -2.139287e-01 -2.042481e-01 -1.951579e-01 -1.860295e-01 -1.777300e-01 -1.695476e-01 -1.623207e-01 
-1.549381e-01 -1.489182e-01 -1.431592e-01 -1.385662e-01 -1.343307e-01 -1.312389e-01 -1.285232e-01 -1.269644e-01 -1.257133e-01 -1.256872e-01 -1.258154e-01 -1.272947e-01 -1.287068e-01 -1.316385e-01 -1.342431e-01 -1.385460e-01 -1.422631e-01 -1.478233e-01 -1.525808e-01 -1.592469e-01 -1.649685e-01 -1.725482e-01 -1.791358e-01 -1.873945e-01 -1.947110e-01 -2.033722e-01 -2.112310e-01 -2.199817e-01 -2.281480e-01 -2.366519e-01 -2.448556e-01 -2.527748e-01 -2.607288e-01 -2.677474e-01 -2.751622e-01 -2.810040e-01 -2.875904e-01 -2.920228e-01 -2.974831e-01 -3.003098e-01 -3.043288e-01 -3.053817e-01 -3.076330e-01 -3.067773e-01 -3.069591e-01 -3.041202e-01 -3.020202e-01 -2.972255e-01 -2.927964e-01 -2.862123e-01 -2.796257e-01 -2.715682e-01 -2.632168e-01 -2.541235e-01 -2.445666e-01 -2.349413e-01 -2.248144e-01 -2.151634e-01 -2.050859e-01 -1.958664e-01 -1.863728e-01 -1.779615e-01 -1.694660e-01 -1.621495e-01 
-1.534333e-01 -1.472769e-01 -1.413184e-01 -1.366392e-01 -1.322502e-01 -1.291040e-01 -1.262659e-01 -1.246697e-01 -1.233184e-01 -1.232621e-01 -1.233107e-01 -1.247628e-01 -1.261190e-01 -1.290276e-01 -1.316053e-01 -1.358949e-01 -1.396179e-01 -1.451828e-01 -1.499803e-01 -1.566785e-01 -1.624722e-01 -1.701201e-01 -1.768083e-01 -1.851773e-01 -1.926204e-01 -2.014374e-01 -2.094502e-01 -2.184026e-01 -2.267571e-01 -2.355069e-01 -2.439450e-01 -2.521514e-01 -2.604007e-01 -2.677444e-01 -2.755275e-01 -2.817272e-01 -2.887581e-01 -2.935715e-01 -2.995386e-01 -3.027502e-01 -3.073012e-01 -3.087081e-01 -3.114554e-01 -3.108736e-01 -3.114383e-01 -3.087384e-01 -3.068347e-01 -3.020026e-01 -2.975387e-01 -2.907322e-01 -2.838822e-01 -2.754490e-01 -2.666556e-01 -2.570954e-01 -2.469969e-01 -2.368834e-01 -2.261963e-01 -2.160945e-01 -2.055007e-01 -1.959043e-01 -1.859742e-01 -1.772735e-01 -1.684314e-01 -1.609093e-01 
-1.516867e-01 -1.453934e-01 -1.391949e-01 -1.344205e-01 -1.298804e-01 -1.266671e-01 -1.237499e-01 -1.221027e-01 -1.207320e-01 -1.206320e-01 -1.207124e-01 -1.221235e-01 -1.235566e-01 -1.264268e-01 -1.291209e-01 -1.333788e-01 -1.372505e-01 -1.427991e-01 -1.477681e-01 -1.544756e-01 -1.604530e-01 -1.681451e-01 -1.750184e-01 -1.834715e-01 -1.910927e-01 -2.000322e-01 -2.082121e-01 -2.173190e-01 -2.258327e-01 -2.347604e-01 -2.433626e-01 -2.517635e-01 -2.602049e-01 -2.677586e-01 -2.757925e-01 -2.822228e-01 -2.895923e-01 -2.946640e-01 -3.010710e-01 -3.045677e-01 -3.096423e-01 -3.113436e-01 -3.146396e-01 -3.143238e-01 -3.153675e-01 -3.128552e-01 -3.112528e-01 -3.064850e-01 -3.020593e-01 -2.951726e-01 -2.880698e-01 -2.794226e-01 -2.701264e-01 -2.602562e-01 -2.494961e-01 -2.390283e-01 -2.276269e-01 -2.171752e-01 -2.059036e-01 -1.959969e-01 -1.854827e-01 -1.765298e-01 -1.672221e-01 -1.595090e-01 
-1.486197e-01 -1.421466e-01 -1.357391e-01 -1.308641e-01 -1.261958e-01 -1.229322e-01 -1.199393e-01 -1.182703e-01 -1.168565e-01 -1.167492e-01 -1.168083e-01 -1.182210e-01 -1.196516e-01 -1.225343e-01 -1.252466e-01 -1.295361e-01 -1.334521e-01 -1.390636e-01 -1.441091e-01 -1.509254e-01 -1.570173e-01 -1.648776e-01 -1.719082e-01 -1.805986e-01 -1.884233e-01 -1.976721e-01 -2.061047e-01 -2.155873e-01 -2.244070e-01 -2.337639e-01 -2.427321e-01 -2.515994e-01 -2.604782e-01 -2.685221e-01 -2.770794e-01 -2.840172e-01 -2.920061e-01 -2.975995e-01 -3.047136e-01 -3.087332e-01 -3.145588e-01 -3.167448e-01 -3.207469e-01 -3.208034e-01 -3.223822e-01 -3.200342e-01 -3.186658e-01 -3.137740e-01 -3.091994e-01 -3.018803e-01 -2.942530e-01 -2.849249e-01 -2.748264e-01 -2.641434e-01 -2.524507e-01 -2.411637e-01 -2.288423e-01 -2.176616e-01 -2.055842e-01 -1.950913e-01 -1.839348e-01 -1.745506e-01 -1.647704e-01 -1.567661e-01 
-1.453916e-01 -1.387260e-01 -1.320534e-01 -1.270554e-01 -1.222458e-01 -1.189061e-01 -1.158639e-01 -1.141473e-01 -1.127526e-01 -1.126147e-01 -1.127457e-01 -1.141404e-01 -1.156866e-01 -1.185664e-01 -1.214332e-01 -1.257435e-01 -1.298500e-01 -1.355186e-01 -1.407880e-01 -1.477115e-01 -1.540567e-01 -1.620849e-01 -1.693920e-01 -1.783142e-01 -1.864291e-01 -1.959663e-01 -2.046919e-01 -2.145016e-01 -2.236083e-01 -2.333070e-01 -2.425574e-01 -2.517602e-01 -2.609360e-01 -2.693005e-01 -2.782108e-01 -2.854646e-01 -2.939154e-01 -2.998425e-01 -3.075666e-01 -3.119533e-01 -3.185296e-01 -3.211014e-01 -3.259154e-01 -3.263193e-01 -3.286185e-01 -3.264923e-01 -3.255640e-01 -3.206868e-01 -3.161184e-01 -3.085703e-01 -3.004679e-01 -2.906928e-01 -2.797229e-01 -2.684501e-01 -2.556646e-01 -2.437405e-01 -2.302933e-01 -2.185121e-01 -2.054188e-01 -1.944165e-01 -1.824321e-01 -1.726520e-01 -1.622530e-01 -1.539633e-01 
-1.405358e-01 -1.336792e-01 -1.268225e-01 -1.217383e-01 -1.168544e-01 -1.134905e-01 -1.104392e-01 -1.087301e-01 -1.073600e-01 -1.072434e-01 -1.074145e-01 -1.088380e-01 -1.104325e-01 -1.133524e-01 -1.162775e-01 -1.206518e-01 -1.248347e-01 -1.306100e-01 -1.359868e-01 -1.430820e-01 -1.495796e-01 -1.578663e-01 -1.653839e-01 -1.746673e-01 -1.830598e-01 -1.930649e-01 -2.021383e-01 -2.125106e-01 -2.220342e-01 -2.323618e-01 -2.420984e-01 -2.519602e-01 -2.617012e-01 -2.707274e-01 -2.803061e-01 -2.882199e-01 -2.974737e-01 -3.040758e-01 -3.127509e-01 -3.178379e-01 -3.254732e-01 -3.287344e-01 -3.345907e-01 -3.355613e-01 -3.386772e-01 -3.368212e-01 -3.362464e-01 -3.311791e-01 -3.263406e-01 -3.180900e-01 -3.091047e-01 -2.982267e-01 -2.859468e-01 -2.733893e-01 -2.591374e-01 -2.459663e-01 -2.311380e-01 -2.182972e-01 -2.040588e-01 -1.922487e-01 -1.794099e-01 -1.690718e-01 -1.580954e-01 -1.494580e-01 
-1.355730e-01 -1.284919e-01 -1.213813e-01 -1.161691e-01 -1.111854e-01 -1.077545e-01 -1.047072e-01 -1.029657e-01 -1.016686e-01 -1.015391e-01 -1.018312e-01 -1.032572e-01 -1.050108e-01 -1.079549e-01 -1.110754e-01 -1.155101e-01 -1.199281e-01 -1.258203e-01 -1.314772e-01 -1.387669e-01 -1.455938e-01 -1.541691e-01 -1.620636e-01 -1.717340e-01 -1.805399e-01 -1.910171e-01 -2.005182e-01 -2.114139e-01 -2.213512e-01 -2.322058e-01 -2.423232e-01 -2.526695e-01 -2.627712e-01 -2.722183e-01 -2.821997e-01 -2.904920e-01 -3.002922e-01 -3.072878e-01 -3.167506e-01 -3.223015e-01 -3.309940e-01 -3.347896e-01 -3.418734e-01 -3.433607e-01 -3.476267e-01 -3.461089e-01 -3.462665e-01 -3.412002e-01 -3.363828e-01 -3.277284e-01 -3.179611e-01 -3.063271e-01 -2.926327e-01 -2.791100e-01 -2.631462e-01 -2.489714e-01 -2.324624e-01 -2.187166e-01 -2.030461e-01 -1.905054e-01 -1.765736e-01 -1.656988e-01 -1.539660e-01 -1.449666e-01 
-1.286053e-01 -1.213742e-01 -1.141606e-01 -1.089193e-01 -1.039601e-01 -1.005615e-01 -9.760291e-02 -9.591612e-02 -9.472986e-02 -9.465637e-02 -9.505728e-02 -9.653512e-02 -9.838637e-02 -1.013858e-01 -1.045962e-01 -1.091086e-01 -1.136225e-01 -1.196429e-01 -1.254235e-01 -1.329262e-01 -1.399303e-01 -1.488385e-01 -1.569878e-01 -1.671393e-01 -1.762935e-01 -1.874097e-01 -1.973547e-01 -2.090282e-01 -2.194934e-01 -2.312124e-01 -2.419265e-01 -2.531519e-01 -2.639224e-01 -2.742069e-01 -2.849707e-01 -2.940589e-01 -3.048323e-01 -3.126454e-01 -3.233433e-01 -3.298079e-01 -3.399921e-01 -3.447932e-01 -3.534645e-01 -3.558865e-01 -3.614881e-01 -3.605109e-01 -3.613014e-01 -3.560316e-01 -3.508127e-01 -3.410736e-01 -3.298798e-01 -3.165019e-01 -3.007199e-01 -2.852207e-01 -2.670146e-01 -2.510151e-01 -2.325130e-01 -2.173128e-01 -2.001025e-01 -1.865348e-01 -1.715499e-01 -1.600305e-01 -1.476650e-01 -1.383150e-01 
-1.215530e-01 -1.141062e-01 -1.067131e-01 -1.013746e-01 -9.640727e-02 -9.297695e-02 -9.011069e-02 -8.842173e-02 -8.738356e-02 -8.731872e-02 -8.789975e-02 -8.939436e-02 -9.145010e-02 -9.448605e-02 -9.792944e-02 -1.025218e-01 -1.073099e-01 -1.134857e-01 -1.195986e-01 -1.273669e-01 -1.347777e-01 -1.440906e-01 -1.527285e-01 -1.634357e-01 -1.731489e-01 -1.849543e-01 -1.954899e-01 -2.079309e-01 -2.189555e-01 -2.314324e-01 -2.426131e-01 -2.544931e-01 -2.656264e-01 -2.764109e-01 -2.875252e-01 -2.969965e-01 -3.083040e-01 -3.165146e-01 -3.281502e-01 -3.351745e-01 -3.468226e-01 -3.523952e-01 -3.629571e-01 -3.662265e-01 -3.737474e-01 -3.733846e-01 -3.754924e-01 -3.702775e-01 -3.651862e-01 -3.548148e-01 -3.423622e-01 -3.277745e-01 -3.097008e-01 -2.926899e-01 -2.718243e-01 -2.543183e-01 -2.333633e-01 -2.168784e-01 -1.977287e-01 -1.831911e-01 -1.668497e-01 -1.546721e-01 -1.414640e-01 -1.317128e-01 
-1.120595e-01 -1.045835e-01 -9.725435e-02 -9.200340e-02 -8.722257e-02 -8.392020e-02 -8.128260e-02 -7.971655e-02 -7.889937e-02 -7.893092e-02 -7.969852e-02 -8.126041e-02 -8.345968e-02 -8.654713e-02 -9.009823e-02 -9.475386e-02 -9.963567e-02 -1.059270e-01 -1.121542e-01 -1.201417e-01 -1.277301e-01 -1.374225e-01 -1.463434e-01 -1.576416e-01 -1.677716e-01 -1.804064e-01 -1.914936e-01 -2.049800e-01 -2.166584e-01 -2.303070e-01 -2.421922e-01 -2.552275e-01 -2.670919e-01 -2.788891e-01 -2.908232e-01 -3.011627e-01 -3.135426e-01 -3.226381e-01 -3.357992e-01 -3.439540e-01 -3.576872e-01 -3.647434e-01 -3.777854e-01 -3.826809e-01 -3.925060e-01 -3.933054e-01 -3.966569e-01 -3.913636e-01 -3.857307e-01 -3.736702e-01 -3.588855e-01 -3.414850e-01 -3.200406e-01 -2.999757e-01 -2.756879e-01 -2.555612e-01 -2.317956e-01 -2.134053e-01 -1.922867e-01 -1.765486e-01 -1.590210e-01 -1.462011e-01 -1.324085e-01 -1.223977e-01 
-1.024614e-01 -9.484552e-02 -8.751059e-02 -8.224609e-02 -7.761977e-02 -7.435681e-02 -7.194474e-02 -7.042544e-02 -6.985515e-02 -6.991963e-02 -7.093412e-02 -7.251538e-02 -7.496031e-02 -7.807302e-02 -8.188225e-02 -8.660538e-02 -9.178331e-02 -9.823401e-02 -1.048294e-01 -1.131246e-01 -1.211897e-01 -1.313912e-01 -1.409239e-01 -1.529642e-01 -1.638372e-01 -1.774336e-01 -1.893370e-01 -2.039229e-01 -2.163679e-01 -2.310991e-01 -2.435475e-01 -2.574588e-01 -2.695970e-01 -2.819349e-01 -2.939719e-01 -3.045675e-01 -3.172499e-01 -3.265981e-01 -3.407254e-01 -3.494852e-01 -3.651900e-01 -3.733894e-01 -3.893840e-01 -3.957682e-01 -4.089115e-01 -4.109309e-01 -4.167694e-01 -4.117134e-01 -4.065104e-01 -3.934749e-01 -3.766028e-01 -3.572599e-01 -3.319835e-01 -3.095538e-01 -2.810851e-01 -2.587347e-01 -2.314356e-01 -2.112906e-01 -1.876542e-01 -1.707111e-01 -1.516316e-01 -1.380873e-01 -1.234868e-01 -1.131068e-01 
-8.996938e-02 -8.255891e-02 -7.557470e-02 -7.059057e-02 -6.639332e-02 -6.339935e-02 -6.140572e-02 -6.009901e-02 -5.988673e-02 -6.009042e-02 -6.137792e-02 -6.302853e-02 -6.565568e-02 -6.878852e-02 -7.270137e-02 -7.743275e-02 -8.266757e-02 -8.916982e-02 -9.582744e-02 -1.042912e-01 -1.124924e-01 -1.230687e-01 -1.328840e-01 -1.455988e-01 -1.569559e-01 -1.715943e-01 -1.841898e-01 -2.001777e-01 -2.134543e-01 -2.298074e-01 -2.430926e-01 -2.585611e-01 -2.714308e-01 -2.849588e-01 -2.976891e-01 -3.090642e-01 -3.227181e-01 -3.327884e-01 -3.486264e-01 -3.586239e-01 -3.771740e-01 -3.875430e-01 -4.074811e-01 -4.167878e-01 -4.340863e-01 -4.386693e-01 -4.470846e-01 -4.424488e-01 -4.365724e-01 -4.207565e-01 -3.998994e-01 -3.757886e-01 -3.448728e-01 -3.176349e-01 -2.838988e-01 -2.578514e-01 -2.266910e-01 -2.042021e-01 -1.782246e-01 -1.600561e-01 -1.398369e-01 -1.258290e-01 -1.108878e-01 -1.004920e-01 
-7.729478e-02 -6.992270e-02 -6.324771e-02 -5.840701e-02 -5.461633e-02 -5.177845e-02 -5.019329e-02 -4.900342e-02 -4.915825e-02 -4.941888e-02 -5.102133e-02 -5.267444e-02 -5.557472e-02 -5.868517e-02 -6.285580e-02 -6.759258e-02 -7.311149e-02 -7.972045e-02 -8.674559e-02 -9.550657e-02 -1.042278e-01 -1.153861e-01 -1.259401e-01 -1.395969e-01 -1.519389e-01 -1.678936e-01 -1.816528e-01 -1.992275e-01 -2.136317e-01 -2.315813e-01 -2.456122e-01 -2.623071e-01 -2.752433e-01 -2.893016e-01 -3.015174e-01 -3.127394e-01 -3.260016e-01 -3.358220e-01 -3.523163e-01 -3.627738e-01 -3.838325e-01 -3.959052e-01 -4.204772e-01 -4.325297e-01 -4.557401e-01 -4.628715e-01 -4.761630e-01 -4.721792e-01 -4.674919e-01 -4.501005e-01 -4.255595e-01 -3.982198e-01 -3.605408e-01 -3.295262e-01 -2.890906e-01 -2.597820e-01 -2.236350e-01 -1.988457e-01 -1.698181e-01 -1.502803e-01 -1.285342e-01 -1.138611e-01 -9.838909e-02 -8.778215e-02 
-6.135547e-02 -5.456959e-02 -4.868189e-02 -4.440052e-02 -4.137052e-02 -3.898760e-02 -3.806054e-02 -3.718978e-02 -3.786424e-02 -3.830336e-02 -4.027105e-02 -4.197488e-02 -4.508389e-02 -4.814565e-02 -5.238395e-02 -5.701880e-02 -6.250557e-02 -6.902848e-02 -7.599534e-02 -8.478495e-02 -9.352762e-02 -1.049634e-01 -1.157441e-01 -1.300913e-01 -1.429780e-01 -1.601946e-01 -1.748552e-01 -1.943285e-01 -2.098762e-01 -2.301822e-01 -2.452934e-01 -2.642497e-01 -2.778514e-01 -2.933208e-01 -3.057868e-01 -3.173459e-01 -3.310182e-01 -3.408241e-01 -3.588221e-01 -3.702039e-01 -3.949106e-01 -4.100091e-01 -4.408797e-01 -4.582553e-01 -4.892565e-01 -5.021433e-01 -5.210078e-01 -5.190106e-01 -5.135875e-01 -4.911107e-01 -4.592869e-01 -4.232665e-01 -3.756542e-01 -3.369248e-01 -2.883340e-01 -2.540166e-01 -2.128356e-01 -1.855045e-01 -1.540777e-01 -1.336500e-01 -1.112117e-01 -9.656900e-02 -8.133540e-02 -7.118332e-02 
-4.508005e-02 -3.865506e-02 -3.356861e-02 -2.967991e-02 -2.740426e-02 -2.534603e-02 -2.505380e-02 -2.439065e-02 -2.556329e-02 -2.607792e-02 -2.841833e-02 -3.007822e-02 -3.346141e-02 -3.640043e-02 -4.085451e-02 -4.535912e-02 -5.106092e-02 -5.754871e-02 -6.481336e-02 -7.379575e-02 -8.303573e-02 -9.505110e-02 -1.066697e-01 -1.221454e-01 -1.363254e-01 -1.553175e-01 -1.717032e-01 -1.935121e-01 -2.108936e-01 -2.336903e-01 -2.500268e-01 -2.708859e-01 -2.842486e-01 -3.002248e-01 -3.108560e-01 -3.212659e-01 -3.329285e-01 -3.411723e-01 -3.587179e-01 -3.698725e-01 -3.973657e-01 -4.149154e-01 -4.529651e-01 -4.755774e-01 -5.173999e-01 -5.358885e-01 -5.646456e-01 -5.640605e-01 -5.617593e-01 -5.364858e-01 -4.976024e-01 -4.559411e-01 -3.955036e-01 -3.505476e-01 -2.910822e-01 -2.520439e-01 -2.041863e-01 -1.740476e-01 -1.394446e-01 -1.177111e-01 -9.429553e-02 -7.929645e-02 -6.423923e-02 -5.423741e-02 
-2.543569e-02 -2.013529e-02 -1.642726e-02 -1.345398e-02 -1.234662e-02 -1.096056e-02 -1.160197e-02 -1.136917e-02 -1.323895e-02 -1.395847e-02 -1.675842e-02 -1.842204e-02 -2.202506e-02 -2.480036e-02 -2.924494e-02 -3.346832e-02 -3.897530e-02 -4.514064e-02 -5.212049e-02 -6.085760e-02 -6.987834e-02 -8.191022e-02 -9.358646e-02 -1.096106e-01 -1.243563e-01 -1.447664e-01 -1.623768e-01 -1.867600e-01 -2.059025e-01 -2.323425e-01 -2.503553e-01 -2.749340e-01 -2.888977e-01 -3.067297e-01 -3.165903e-01 -3.261732e-01 -3.367485e-01 -3.429516e-01 -3.607507e-01 -3.713480e-01 -4.028093e-01 -4.240244e-01 -4.719140e-01 -5.040818e-01 -5.610326e-01 -5.926694e-01 -6.340389e-01 -6.403363e-01 -6.375040e-01 -6.013630e-01 -5.480402e-01 -4.891965e-01 -4.100995e-01 -3.527965e-01 -2.809143e-01 -2.358199e-01 -1.822197e-01 -1.501718e-01 -1.140308e-01 -9.248011e-02 -6.959509e-02 -5.561663e-02 -4.188674e-02 -3.310301e-02 
-5.216215e-03 -7.778582e-04 1.458527e-03 3.690045e-03 3.622368e-03 4.465829e-03 2.946070e-03 2.865342e-03 3.774735e-04 -4.235516e-04 -3.627107e-03 -5.159711e-03 -8.997941e-03 -1.147888e-02 -1.603983e-02 -1.989465e-02 -2.546435e-02 -3.131991e-02 -3.841122e-02 -4.707771e-02 -5.643184e-02 -6.887927e-02 -8.137726e-02 -9.861943e-02 -1.149902e-01 -1.377237e-01 -1.579433e-01 -1.858185e-01 -2.082173e-01 -2.387865e-01 -2.593580e-01 -2.873241e-01 -3.008721e-01 -3.194445e-01 -3.247291e-01 -3.309247e-01 -3.361417e-01 -3.377240e-01 -3.522945e-01 -3.606240e-01 -3.940390e-01 -4.183128e-01 -4.767570e-01 -5.190247e-01 -5.963068e-01 -6.411858e-01 -7.031701e-01 -7.117214e-01 -7.173155e-01 -6.756022e-01 -6.074920e-01 -5.383291e-01 -4.326747e-01 -3.647374e-01 -2.755124e-01 -2.238841e-01 -1.625739e-01 -1.276285e-01 -8.947357e-02 -6.722879e-02 -4.496090e-02 -3.137494e-02 -1.919014e-02 -1.121302e-02 
1.792554e-02 2.058643e-02 2.075498e-02 2.168136e-02 2.001363e-02 1.996938e-02 1.723887e-02 1.663302e-02 1.326955e-02 1.226154e-02 8.501950e-03 7.046184e-03 2.987118e-03 8.346366e-04 -3.596106e-03 -6.914323e-03 -1.203139e-02 -1.720973e-02 -2.363399e-02 -3.159658e-02 -4.027872e-02 -5.221203e-02 -6.436643e-02 -8.167974e-02 -9.848586e-02 -1.225116e-01 -1.444038e-01 -1.756222e-01 -2.010225e-01 -2.375145e-01 -2.613474e-01 -2.964222e-01 -3.107984e-01 -3.324798e-01 -3.349087e-01 -3.376481e-01 -3.386139e-01 -3.334471e-01 -3.446702e-01 -3.482379e-01 -3.838735e-01 -4.107896e-01 -4.833837e-01 -5.416394e-01 -6.492069e-01 -7.242733e-01 -8.160650e-01 -8.478410e-01 -8.540728e-01 -7.843614e-01 -6.851698e-01 -5.792091e-01 -4.357159e-01 -3.494626e-01 -2.429835e-01 -1.864563e-01 -1.210942e-01 -8.694426e-02 -5.023355e-02 -3.049841e-02 -1.125483e-02 -3.168634e-04 8.816684e-03 1.452384e-02 
4.194922e-02 4.307045e-02 4.099865e-02 4.075477e-02 3.749136e-02 3.665649e-02 3.284092e-02 3.181262e-02 2.775725e-02 2.668110e-02 2.253306e-02 2.134407e-02 1.713769e-02 1.553955e-02 1.115606e-02 8.577167e-03 3.651165e-03 -7.620327e-04 -6.938410e-03 -1.431904e-02 -2.290398e-02 -3.477245e-02 -4.741787e-02 -6.574002e-02 -8.432542e-02 -1.111711e-01 -1.369018e-01 -1.733175e-01 -2.047473e-01 -2.483927e-01 -2.783755e-01 -3.202088e-01 -3.351401e-01 -3.592372e-01 -3.509694e-01 -3.452090e-01 -3.345736e-01 -3.181789e-01 -3.203977e-01 -3.167386e-01 -3.502725e-01 -3.792448e-01 -4.651176e-01 -5.421776e-01 -6.893106e-01 -7.987339e-01 -9.326091e-01 -9.643526e-01 -9.955454e-01 -9.136372e-01 -7.813339e-01 -6.568506e-01 -4.523856e-01 -3.471601e-01 -2.160354e-01 -1.515776e-01 -8.122975e-02 -4.545985e-02 -1.093342e-02 7.791915e-03 2.311665e-02 3.224649e-02 3.765877e-02 4.154451e-02 
6.756532e-02 6.627766e-02 6.150966e-02 5.962634e-02 5.441093e-02 5.252821e-02 4.728004e-02 4.567685e-02 4.058366e-02 3.933275e-02 3.451618e-02 3.351582e-02 2.907008e-02 2.800669e-02 2.390037e-02 2.217929e-02 1.807030e-02 1.480298e-02 9.886001e-03 3.885789e-03 -3.239354e-03 -1.366803e-02 -2.511892e-02 -4.240966e-02 -6.085332e-02 -8.806819e-02 -1.158580e-01 -1.559051e-01 -1.926743e-01 -2.459140e-01 -2.833907e-01 -3.408200e-01 -3.579652e-01 -3.888821e-01 -3.733516e-01 -3.582904e-01 -3.379588e-01 -3.049340e-01 -2.956691e-01 -2.778421e-01 -3.059805e-01 -3.313153e-01 -4.330032e-01 -5.322758e-01 -7.420645e-01 -9.168229e-01 -1.119190e+00 -1.232319e+00 -1.270322e+00 -1.101732e+00 -9.005417e-01 -6.963547e-01 -4.078902e-01 -2.831559e-01 -1.357824e-01 -7.486990e-02 -9.404161e-03 1.905273e-02 4.532507e-02 5.769460e-02 6.596234e-02 7.031802e-02 7.047549e-02 7.092987e-02 