# vtk DataFile Version 2.0
Comment goes here
ASCII

DATASET STRUCTURED_POINTS
DIMENSIONS    64   64   1

ORIGIN    0.000   0.000   0.000
SPACING   0.0156250.015625   1.000

POINT_DATA   4096
SCALARS uY double
LOOKUP_TABLE default

-1.325292e-01 -1.280645e-01 -1.248348e-01 -1.236640e-01 -1.237613e-01 -1.261910e-01 -1.298184e-01 -1.359574e-01 -1.429388e-01 -1.523168e-01 -1.617289e-01 -1.730088e-01 -1.831432e-01 -1.943636e-01 -2.032962e-01 -2.126188e-01 -2.190053e-01 -2.254248e-01 -2.290438e-01 -2.328099e-01 -2.347558e-01 -2.374680e-01 -2.399660e-01 -2.441142e-01 -2.496854e-01 -2.574400e-01 -2.674524e-01 -2.791947e-01 -2.927724e-01 -3.066613e-01 -3.211313e-01 -3.342877e-01 -3.468304e-01 -3.569785e-01 -3.659473e-01 -3.721948e-01 -3.773723e-01 -3.800482e-01 -3.821767e-01 -3.822020e-01 -3.822119e-01 -3.803135e-01 -3.785679e-01 -3.747173e-01 -3.707573e-01 -3.642921e-01 -3.573275e-01 -3.476556e-01 -3.373213e-01 -3.245235e-01 -3.112391e-01 -2.961372e-01 -2.809529e-01 -2.647972e-01 -2.490168e-01 -2.330977e-01 -2.179284e-01 -2.032959e-01 -1.896481e-01 -1.770163e-01 -1.654855e-01 -1.552940e-01 -1.462563e-01 -1.387974e-01 
-1.435382e-01 -1.391948e-01 -1.360756e-01 -1.347471e-01 -1.346321e-01 -1.365249e-01 -1.394906e-01 -1.446058e-01 -1.503966e-01 -1.582771e-01 -1.660875e-01 -1.756522e-01 -1.841492e-01 -1.938780e-01 -2.016155e-01 -2.100758e-01 -2.160653e-01 -2.224639e-01 -2.265749e-01 -2.311111e-01 -2.341924e-01 -2.380721e-01 -2.417447e-01 -2.467643e-01 -2.527788e-01 -2.604370e-01 -2.696839e-01 -2.801972e-01 -2.920084e-01 -3.040436e-01 -3.164978e-01 -3.279534e-01 -3.389659e-01 -3.480869e-01 -3.563313e-01 -3.623061e-01 -3.674541e-01 -3.703616e-01 -3.727923e-01 -3.731747e-01 -3.734415e-01 -3.717563e-01 -3.700753e-01 -3.663176e-01 -3.624008e-01 -3.561798e-01 -3.495509e-01 -3.405434e-01 -3.310311e-01 -3.193835e-01 -3.073729e-01 -2.937637e-01 -2.801065e-01 -2.655425e-01 -2.513009e-01 -2.368457e-01 -2.230389e-01 -2.096041e-01 -1.970522e-01 -1.853115e-01 -1.746018e-01 -1.650169e-01 -1.565546e-01 -1.494540e-01 
-1.526334e-01 -1.485106e-01 -1.453411e-01 -1.439558e-01 -1.435082e-01 -1.449802e-01 -1.472684e-01 -1.515173e-01 -1.562784e-01 -1.628662e-01 -1.694339e-01 -1.774857e-01 -1.848302e-01 -1.931913e-01 -2.002123e-01 -2.078214e-01 -2.137526e-01 -2.200278e-01 -2.247405e-01 -2.298128e-01 -2.339070e-01 -2.386192e-01 -2.432502e-01 -2.488388e-01 -2.552240e-01 -2.626883e-01 -2.714109e-01 -2.808538e-01 -2.914024e-01 -3.018598e-01 -3.128346e-01 -3.227859e-01 -3.326238e-01 -3.407389e-01 -3.483616e-01 -3.539385e-01 -3.589628e-01 -3.619285e-01 -3.644932e-01 -3.651247e-01 -3.655295e-01 -3.640846e-01 -3.624445e-01 -3.589134e-01 -3.550487e-01 -3.492032e-01 -3.428420e-01 -3.345283e-01 -3.256302e-01 -3.150360e-01 -3.039653e-01 -2.916691e-01 -2.791421e-01 -2.659784e-01 -2.528860e-01 -2.397519e-01 -2.269729e-01 -2.146705e-01 -2.029473e-01 -1.921074e-01 -1.820050e-01 -1.730901e-01 -1.650196e-01 -1.583687e-01 
-1.610025e-01 -1.569072e-01 -1.537560e-01 -1.521670e-01 -1.514878e-01 -1.524832e-01 -1.542415e-01 -1.577134e-01 -1.616394e-01 -1.671934e-01 -1.727169e-01 -1.796375e-01 -1.859430e-01 -1.933183e-01 -1.995661e-01 -2.065617e-01 -2.121790e-01 -2.183292e-01 -2.232251e-01 -2.286114e-01 -2.332271e-01 -2.384548e-01 -2.436083e-01 -2.495454e-01 -2.560620e-01 -2.633793e-01 -2.716146e-01 -2.803385e-01 -2.898795e-01 -2.992835e-01 -3.090888e-01 -3.180321e-01 -3.269145e-01 -3.343528e-01 -3.414319e-01 -3.467437e-01 -3.516198e-01 -3.546385e-01 -3.572955e-01 -3.581301e-01 -3.586965e-01 -3.574808e-01 -3.559991e-01 -3.527238e-01 -3.490766e-01 -3.436187e-01 -3.376604e-01 -3.299723e-01 -3.217411e-01 -3.120291e-01 -3.018667e-01 -2.906302e-01 -2.791500e-01 -2.670928e-01 -2.550559e-01 -2.429475e-01 -2.311239e-01 -2.196789e-01 -2.087466e-01 -1.985572e-01 -1.890586e-01 -1.805827e-01 -1.729279e-01 -1.665116e-01 
-1.676700e-01 -1.636896e-01 -1.604410e-01 -1.587447e-01 -1.577683e-01 -1.583968e-01 -1.596428e-01 -1.624686e-01 -1.656918e-01 -1.703619e-01 -1.750908e-01 -1.810227e-01 -1.866130e-01 -1.930990e-01 -1.988955e-01 -2.053005e-01 -2.108468e-01 -2.168107e-01 -2.220066e-01 -2.275625e-01 -2.326985e-01 -2.382471e-01 -2.438817e-01 -2.499975e-01 -2.566818e-01 -2.637888e-01 -2.717295e-01 -2.797989e-01 -2.886567e-01 -2.971353e-01 -3.061178e-01 -3.141506e-01 -3.223373e-01 -3.291119e-01 -3.357728e-01 -3.407560e-01 -3.454924e-01 -3.484709e-01 -3.511676e-01 -3.521374e-01 -3.528076e-01 -3.518104e-01 -3.504437e-01 -3.474575e-01 -3.439726e-01 -3.389313e-01 -3.332627e-01 -3.261804e-01 -3.184185e-01 -3.095091e-01 -2.999820e-01 -2.896876e-01 -2.789402e-01 -2.678704e-01 -2.565741e-01 -2.454032e-01 -2.342490e-01 -2.236216e-01 -2.132359e-01 -2.037063e-01 -1.946069e-01 -1.866186e-01 -1.792069e-01 -1.730989e-01 
-1.738019e-01 -1.697740e-01 -1.664847e-01 -1.645679e-01 -1.633734e-01 -1.635957e-01 -1.644327e-01 -1.666700e-01 -1.693101e-01 -1.732540e-01 -1.772963e-01 -1.824645e-01 -1.873891e-01 -1.932097e-01 -1.985030e-01 -2.044640e-01 -2.097702e-01 -2.155706e-01 -2.208016e-01 -2.264375e-01 -2.317877e-01 -2.375248e-01 -2.433700e-01 -2.495906e-01 -2.562840e-01 -2.632512e-01 -2.708897e-01 -2.785383e-01 -2.868282e-01 -2.947162e-01 -3.030367e-01 -3.104956e-01 -3.181184e-01 -3.244908e-01 -3.308042e-01 -3.356196e-01 -3.402391e-01 -3.432572e-01 -3.460069e-01 -3.471522e-01 -3.479670e-01 -3.472210e-01 -3.460494e-01 -3.433789e-01 -3.401544e-01 -3.355244e-01 -3.302248e-01 -3.236821e-01 -3.164241e-01 -3.081786e-01 -2.992741e-01 -2.897214e-01 -2.796623e-01 -2.693407e-01 -2.587306e-01 -2.482439e-01 -2.377132e-01 -2.276540e-01 -2.177881e-01 -2.086827e-01 -1.999781e-01 -1.922600e-01 -1.851084e-01 -1.791142e-01 
-1.784059e-01 -1.744134e-01 -1.709976e-01 -1.689542e-01 -1.675050e-01 -1.674249e-01 -1.678810e-01 -1.696432e-01 -1.718044e-01 -1.751402e-01 -1.786713e-01 -1.831829e-01 -1.876619e-01 -1.928930e-01 -1.979047e-01 -2.034494e-01 -2.086966e-01 -2.143059e-01 -2.196888e-01 -2.253273e-01 -2.309520e-01 -2.367730e-01 -2.428739e-01 -2.491076e-01 -2.558969e-01 -2.626834e-01 -2.701841e-01 -2.774305e-01 -2.853827e-01 -2.927295e-01 -3.006326e-01 -3.075538e-01 -3.148159e-01 -3.207813e-01 -3.268781e-01 -3.314799e-01 -3.360422e-01 -3.390344e-01 -3.418463e-01 -3.431078e-01 -3.440485e-01 -3.435163e-01 -3.425008e-01 -3.401254e-01 -3.370903e-01 -3.328481e-01 -3.277952e-01 -3.217470e-01 -3.148100e-01 -3.071581e-01 -2.986406e-01 -2.897456e-01 -2.801082e-01 -2.704562e-01 -2.602608e-01 -2.504030e-01 -2.402412e-01 -2.307289e-01 -2.211577e-01 -2.124907e-01 -2.039898e-01 -1.965869e-01 -1.895378e-01 -1.837251e-01 
-1.826160e-01 -1.785115e-01 -1.750134e-01 -1.727430e-01 -1.710987e-01 -1.706749e-01 -1.708221e-01 -1.721356e-01 -1.738929e-01 -1.767098e-01 -1.797897e-01 -1.837742e-01 -1.878271e-01 -1.925995e-01 -1.972871e-01 -2.025079e-01 -2.075846e-01 -2.130340e-01 -2.184020e-01 -2.240207e-01 -2.297304e-01 -2.355975e-01 -2.417857e-01 -2.480320e-01 -2.548104e-01 -2.614966e-01 -2.688339e-01 -2.758493e-01 -2.835072e-01 -2.905462e-01 -2.981082e-01 -3.047385e-01 -3.117125e-01 -3.174890e-01 -3.234202e-01 -3.279783e-01 -3.325162e-01 -3.356070e-01 -3.385123e-01 -3.399836e-01 -3.410956e-01 -3.408502e-01 -3.400537e-01 -3.380228e-01 -3.352456e-01 -3.314015e-01 -3.266506e-01 -3.210512e-01 -3.144625e-01 -3.072953e-01 -2.991618e-01 -2.907578e-01 -2.815165e-01 -2.723254e-01 -2.625091e-01 -2.530488e-01 -2.432228e-01 -2.340205e-01 -2.247224e-01 -2.162654e-01 -2.079622e-01 -2.006644e-01 -1.937289e-01 -1.879143e-01 
-1.854203e-01 -1.812872e-01 -1.776414e-01 -1.752375e-01 -1.733773e-01 -1.727103e-01 -1.725779e-01 -1.735465e-01 -1.749812e-01 -1.773807e-01 -1.801362e-01 -1.836832e-01 -1.874647e-01 -1.918448e-01 -1.963665e-01 -2.012972e-01 -2.063428e-01 -2.116304e-01 -2.170921e-01 -2.226585e-01 -2.285370e-01 -2.344006e-01 -2.407570e-01 -2.469700e-01 -2.538432e-01 -2.604041e-01 -2.677255e-01 -2.745092e-01 -2.820566e-01 -2.887978e-01 -2.962134e-01 -3.025529e-01 -3.094146e-01 -3.149783e-01 -3.208799e-01 -3.253455e-01 -3.299489e-01 -3.330742e-01 -3.361208e-01 -3.377354e-01 -3.390305e-01 -3.390115e-01 -3.384100e-01 -3.366689e-01 -3.340827e-01 -3.305813e-01 -3.260139e-01 -3.208012e-01 -3.143889e-01 -3.076378e-01 -2.996714e-01 -2.916906e-01 -2.826011e-01 -2.738151e-01 -2.641275e-01 -2.550305e-01 -2.453026e-01 -2.364043e-01 -2.271674e-01 -2.189432e-01 -2.106591e-01 -2.035150e-01 -1.965505e-01 -1.908030e-01 
-1.879209e-01 -1.836157e-01 -1.798555e-01 -1.772189e-01 -1.751873e-01 -1.742272e-01 -1.738661e-01 -1.744901e-01 -1.756520e-01 -1.776779e-01 -1.801453e-01 -1.833259e-01 -1.868452e-01 -1.909086e-01 -1.952354e-01 -1.999347e-01 -2.048790e-01 -2.100354e-01 -2.154888e-01 -2.210103e-01 -2.269422e-01 -2.328080e-01 -2.392278e-01 -2.454393e-01 -2.523345e-01 -2.588513e-01 -2.661261e-01 -2.728150e-01 -2.802577e-01 -2.868806e-01 -2.941765e-01 -3.004235e-01 -3.072039e-01 -3.127486e-01 -3.186481e-01 -3.231970e-01 -3.278922e-01 -3.312070e-01 -3.344277e-01 -3.363216e-01 -3.378454e-01 -3.381687e-01 -3.378193e-01 -3.364557e-01 -3.341194e-01 -3.310046e-01 -3.266678e-01 -3.218263e-01 -3.156155e-01 -3.091974e-01 -3.013986e-01 -2.936938e-01 -2.847371e-01 -2.761583e-01 -2.665701e-01 -2.576080e-01 -2.479485e-01 -2.391154e-01 -2.299178e-01 -2.216948e-01 -2.134203e-01 -2.062185e-01 -1.992301e-01 -1.933683e-01 
-1.890839e-01 -1.846954e-01 -1.807711e-01 -1.779987e-01 -1.757854e-01 -1.746329e-01 -1.740723e-01 -1.744519e-01 -1.754066e-01 -1.771536e-01 -1.794282e-01 -1.823254e-01 -1.856953e-01 -1.895071e-01 -1.937552e-01 -1.982655e-01 -2.032164e-01 -2.082601e-01 -2.137995e-01 -2.192745e-01 -2.253452e-01 -2.311991e-01 -2.377716e-01 -2.439652e-01 -2.509909e-01 -2.574517e-01 -2.648167e-01 -2.714036e-01 -2.789042e-01 -2.853995e-01 -2.927501e-01 -2.988825e-01 -3.057501e-01 -3.112342e-01 -3.172787e-01 -3.218495e-01 -3.267525e-01 -3.301809e-01 -3.336562e-01 -3.357467e-01 -3.375410e-01 -3.381232e-01 -3.380235e-01 -3.369553e-01 -3.348149e-01 -3.320059e-01 -3.277882e-01 -3.232391e-01 -3.170614e-01 -3.109029e-01 -3.030569e-01 -2.955663e-01 -2.864994e-01 -2.780846e-01 -2.683469e-01 -2.595007e-01 -2.496749e-01 -2.409150e-01 -2.315506e-01 -2.233633e-01 -2.149291e-01 -2.077273e-01 -2.005855e-01 -1.946854e-01 
-1.899823e-01 -1.853644e-01 -1.813008e-01 -1.782899e-01 -1.759288e-01 -1.745248e-01 -1.738029e-01 -1.739193e-01 -1.747034e-01 -1.761856e-01 -1.782944e-01 -1.809432e-01 -1.841734e-01 -1.877750e-01 -1.919311e-01 -1.962881e-01 -2.012081e-01 -2.061632e-01 -2.117322e-01 -2.171768e-01 -2.233212e-01 -2.291839e-01 -2.358475e-01 -2.420645e-01 -2.491724e-01 -2.556532e-01 -2.630775e-01 -2.696779e-01 -2.772206e-01 -2.837379e-01 -2.911366e-01 -2.973268e-01 -3.042789e-01 -3.098853e-01 -3.160766e-01 -3.208542e-01 -3.259768e-01 -3.297021e-01 -3.334603e-01 -3.359260e-01 -3.380381e-01 -3.390464e-01 -3.392576e-01 -3.386259e-01 -3.367443e-01 -3.343345e-01 -3.302856e-01 -3.260525e-01 -3.199339e-01 -3.139750e-01 -3.060812e-01 -2.986630e-01 -2.894642e-01 -2.810066e-01 -2.710862e-01 -2.621099e-01 -2.520834e-01 -2.431384e-01 -2.335801e-01 -2.251801e-01 -2.165712e-01 -2.091468e-01 -2.018507e-01 -1.957250e-01 
-1.895589e-01 -1.848106e-01 -1.805737e-01 -1.774289e-01 -1.749209e-01 -1.733706e-01 -1.725189e-01 -1.724741e-01 -1.731444e-01 -1.744562e-01 -1.764744e-01 -1.789578e-01 -1.821333e-01 -1.855930e-01 -1.897433e-01 -1.939984e-01 -1.989690e-01 -2.038706e-01 -2.095445e-01 -2.149802e-01 -2.212724e-01 -2.271554e-01 -2.339927e-01 -2.402391e-01 -2.475312e-01 -2.540332e-01 -2.616455e-01 -2.682536e-01 -2.759932e-01 -2.825140e-01 -2.901331e-01 -2.963438e-01 -3.035575e-01 -3.092269e-01 -3.157326e-01 -3.206374e-01 -3.261263e-01 -3.300531e-01 -3.342105e-01 -3.369467e-01 -3.394534e-01 -3.407788e-01 -3.413277e-01 -3.410229e-01 -3.393650e-01 -3.372477e-01 -3.332625e-01 -3.292466e-01 -3.230121e-01 -3.171690e-01 -3.089959e-01 -3.015875e-01 -2.919931e-01 -2.834566e-01 -2.730861e-01 -2.639727e-01 -2.534995e-01 -2.443918e-01 -2.344311e-01 -2.258678e-01 -2.169212e-01 -2.093459e-01 -2.017788e-01 -1.955159e-01 
-1.888570e-01 -1.838270e-01 -1.794363e-01 -1.760515e-01 -1.734242e-01 -1.716626e-01 -1.707128e-01 -1.704764e-01 -1.710641e-01 -1.722019e-01 -1.741553e-01 -1.764865e-01 -1.796231e-01 -1.829607e-01 -1.871081e-01 -1.912799e-01 -1.962908e-01 -2.011530e-01 -2.069108e-01 -2.123501e-01 -2.187629e-01 -2.246858e-01 -2.316680e-01 -2.379813e-01 -2.454294e-01 -2.520184e-01 -2.597904e-01 -2.665053e-01 -2.744106e-01 -2.810665e-01 -2.888706e-01 -2.952605e-01 -3.026990e-01 -3.086117e-01 -3.154027e-01 -3.206325e-01 -3.264783e-01 -3.308210e-01 -3.353985e-01 -3.386338e-01 -3.415887e-01 -3.434646e-01 -3.444283e-01 -3.446670e-01 -3.433143e-01 -3.416549e-01 -3.377967e-01 -3.340743e-01 -3.277537e-01 -3.219877e-01 -3.135287e-01 -3.059769e-01 -2.959525e-01 -2.870955e-01 -2.762271e-01 -2.666863e-01 -2.557189e-01 -2.461483e-01 -2.357478e-01 -2.267404e-01 -2.174336e-01 -2.094637e-01 -2.016190e-01 -1.950206e-01 
-1.867993e-01 -1.816022e-01 -1.770438e-01 -1.735357e-01 -1.708055e-01 -1.689465e-01 -1.679377e-01 -1.676174e-01 -1.681775e-01 -1.692392e-01 -1.711916e-01 -1.734566e-01 -1.766204e-01 -1.799089e-01 -1.841160e-01 -1.882649e-01 -1.933721e-01 -1.982441e-01 -2.041373e-01 -2.096205e-01 -2.162070e-01 -2.222032e-01 -2.293954e-01 -2.358021e-01 -2.434952e-01 -2.501879e-01 -2.582407e-01 -2.650635e-01 -2.732899e-01 -2.800593e-01 -2.882319e-01 -2.947519e-01 -3.026144e-01 -3.086922e-01 -3.159684e-01 -3.214203e-01 -3.278095e-01 -3.324472e-01 -3.376059e-01 -3.412083e-01 -3.447341e-01 -3.470223e-01 -3.484686e-01 -3.491099e-01 -3.480549e-01 -3.467156e-01 -3.428847e-01 -3.393307e-01 -3.327289e-01 -3.269390e-01 -3.179218e-01 -3.101581e-01 -2.993912e-01 -2.901816e-01 -2.785048e-01 -2.685416e-01 -2.568057e-01 -2.468117e-01 -2.357530e-01 -2.263702e-01 -2.165457e-01 -2.082725e-01 -2.000496e-01 -1.932220e-01 
-1.843903e-01 -1.788717e-01 -1.741632e-01 -1.704263e-01 -1.676188e-01 -1.655975e-01 -1.645596e-01 -1.641216e-01 -1.646849e-01 -1.656592e-01 -1.676395e-01 -1.698400e-01 -1.730557e-01 -1.763015e-01 -1.805877e-01 -1.847182e-01 -1.899363e-01 -1.948189e-01 -2.008577e-01 -2.063848e-01 -2.131517e-01 -2.192280e-01 -2.266320e-01 -2.331560e-01 -2.410866e-01 -2.479335e-01 -2.562440e-01 -2.632582e-01 -2.717609e-01 -2.787621e-01 -2.872363e-01 -2.940372e-01 -3.022441e-01 -3.086683e-01 -3.163570e-01 -3.222432e-01 -3.291351e-01 -3.343154e-01 -3.400666e-01 -3.443234e-01 -3.484895e-01 -3.515111e-01 -3.535525e-01 -3.549227e-01 -3.542878e-01 -3.535441e-01 -3.498333e-01 -3.466024e-01 -3.397558e-01 -3.339245e-01 -3.243277e-01 -3.161612e-01 -3.045906e-01 -2.947122e-01 -2.821509e-01 -2.713917e-01 -2.588171e-01 -2.480281e-01 -2.362585e-01 -2.261695e-01 -2.157961e-01 -2.069470e-01 -1.983347e-01 -1.910667e-01 
-1.805447e-01 -1.748406e-01 -1.699968e-01 -1.661650e-01 -1.633193e-01 -1.612624e-01 -1.602489e-01 -1.598096e-01 -1.604360e-01 -1.614265e-01 -1.634942e-01 -1.657204e-01 -1.690407e-01 -1.723214e-01 -1.767283e-01 -1.809082e-01 -1.862663e-01 -1.912207e-01 -1.974256e-01 -2.030543e-01 -2.100229e-01 -2.162347e-01 -2.238866e-01 -2.305782e-01 -2.388133e-01 -2.458525e-01 -2.545321e-01 -2.617529e-01 -2.706937e-01 -2.779077e-01 -2.868905e-01 -2.939121e-01 -3.027000e-01 -3.093697e-01 -3.177172e-01 -3.239044e-01 -3.315377e-01 -3.371071e-01 -3.436697e-01 -3.484169e-01 -3.534085e-01 -3.569923e-01 -3.597575e-01 -3.616789e-01 -3.615011e-01 -3.611744e-01 -3.574927e-01 -3.544217e-01 -3.470972e-01 -3.410979e-01 -3.305717e-01 -3.219238e-01 -3.091453e-01 -2.985699e-01 -2.847360e-01 -2.732003e-01 -2.594655e-01 -2.479433e-01 -2.352291e-01 -2.245291e-01 -2.134591e-01 -2.041523e-01 -1.950744e-01 -1.874975e-01 
-1.762061e-01 -1.701666e-01 -1.652074e-01 -1.611847e-01 -1.583281e-01 -1.561795e-01 -1.552218e-01 -1.547534e-01 -1.554761e-01 -1.564731e-01 -1.586622e-01 -1.609130e-01 -1.643726e-01 -1.676871e-01 -1.722507e-01 -1.764726e-01 -1.820092e-01 -1.870199e-01 -1.934319e-01 -1.991422e-01 -2.063542e-01 -2.126854e-01 -2.206218e-01 -2.274813e-01 -2.360409e-01 -2.433014e-01 -2.523381e-01 -2.598319e-01 -2.691526e-01 -2.766864e-01 -2.860698e-01 -2.934577e-01 -3.026841e-01 -3.097810e-01 -3.186464e-01 -3.253563e-01 -3.336384e-01 -3.398736e-01 -3.472432e-01 -3.528333e-01 -3.587498e-01 -3.633337e-01 -3.670037e-01 -3.699686e-01 -3.704508e-01 -3.709968e-01 -3.674932e-01 -3.648666e-01 -3.571093e-01 -3.509466e-01 -3.394366e-01 -3.300311e-01 -3.159317e-01 -3.042004e-01 -2.889689e-01 -2.761401e-01 -2.611399e-01 -2.484033e-01 -2.346725e-01 -2.229629e-01 -2.111574e-01 -2.010884e-01 -1.915330e-01 -1.834278e-01 
-1.703083e-01 -1.640978e-01 -1.590792e-01 -1.550215e-01 -1.522258e-01 -1.501284e-01 -1.493027e-01 -1.489320e-01 -1.498234e-01 -1.509368e-01 -1.533084e-01 -1.556773e-01 -1.593200e-01 -1.627482e-01 -1.674903e-01 -1.718258e-01 -1.775394e-01 -1.826761e-01 -1.892760e-01 -1.951416e-01 -2.025725e-01 -2.091030e-01 -2.173148e-01 -2.244234e-01 -2.333391e-01 -2.408909e-01 -2.503809e-01 -2.581877e-01 -2.680623e-01 -2.759064e-01 -2.859366e-01 -2.936191e-01 -3.035781e-01 -3.109700e-01 -3.206630e-01 -3.277201e-01 -3.369545e-01 -3.436599e-01 -3.521266e-01 -3.583599e-01 -3.654725e-01 -3.708516e-01 -3.756514e-01 -3.794394e-01 -3.806989e-01 -3.818819e-01 -3.784881e-01 -3.760839e-01 -3.675964e-01 -3.611061e-01 -3.481230e-01 -3.378683e-01 -3.218825e-01 -3.089733e-01 -2.918281e-01 -2.777465e-01 -2.610907e-01 -2.472327e-01 -2.322386e-01 -2.196511e-01 -2.069867e-01 -1.963106e-01 -1.862439e-01 -1.777755e-01 
-1.636934e-01 -1.571825e-01 -1.521321e-01 -1.479664e-01 -1.452642e-01 -1.431825e-01 -1.425235e-01 -1.422391e-01 -1.433356e-01 -1.445669e-01 -1.471604e-01 -1.496517e-01 -1.535218e-01 -1.570612e-01 -1.620335e-01 -1.664655e-01 -1.724179e-01 -1.776457e-01 -1.845067e-01 -1.904788e-01 -1.982114e-01 -2.048902e-01 -2.134601e-01 -2.207823e-01 -2.301171e-01 -2.379587e-01 -2.479151e-01 -2.560813e-01 -2.664418e-01 -2.746939e-01 -2.852064e-01 -2.933259e-01 -3.037763e-01 -3.116413e-01 -3.219062e-01 -3.295270e-01 -3.395294e-01 -3.469891e-01 -3.565177e-01 -3.638021e-01 -3.722625e-01 -3.790218e-01 -3.852610e-01 -3.906216e-01 -3.930176e-01 -3.956083e-01 -3.925798e-01 -3.909205e-01 -3.817530e-01 -3.749636e-01 -3.603793e-01 -3.488153e-01 -3.307312e-01 -3.159179e-01 -2.966530e-01 -2.805652e-01 -2.621002e-01 -2.464828e-01 -2.301335e-01 -2.161911e-01 -2.026274e-01 -1.910162e-01 -1.804333e-01 -1.713896e-01 
-1.553652e-01 -1.487537e-01 -1.437858e-01 -1.396948e-01 -1.372020e-01 -1.352975e-01 -1.349125e-01 -1.348533e-01 -1.362465e-01 -1.377113e-01 -1.405960e-01 -1.433037e-01 -1.474405e-01 -1.511682e-01 -1.563734e-01 -1.609707e-01 -1.671248e-01 -1.725164e-01 -1.795664e-01 -1.857328e-01 -1.936764e-01 -2.006125e-01 -2.094610e-01 -2.171214e-01 -2.268476e-01 -2.350999e-01 -2.455900e-01 -2.542006e-01 -2.652381e-01 -2.739108e-01 -2.852158e-01 -2.936876e-01 -3.050130e-01 -3.131709e-01 -3.244029e-01 -3.323458e-01 -3.434915e-01 -3.514522e-01 -3.624102e-01 -3.705109e-01 -3.807031e-01 -3.886152e-01 -3.966760e-01 -4.033464e-01 -4.071544e-01 -4.108310e-01 -4.081653e-01 -4.069257e-01 -3.966789e-01 -3.893724e-01 -3.724430e-01 -3.594679e-01 -3.384334e-01 -3.217075e-01 -2.996024e-01 -2.815804e-01 -2.608294e-01 -2.435912e-01 -2.256468e-01 -2.105332e-01 -1.960048e-01 -1.836645e-01 -1.726059e-01 -1.631963e-01 
-1.460018e-01 -1.392076e-01 -1.343633e-01 -1.303162e-01 -1.280732e-01 -1.263448e-01 -1.262723e-01 -1.264538e-01 -1.281824e-01 -1.299037e-01 -1.331221e-01 -1.360658e-01 -1.405206e-01 -1.444405e-01 -1.499434e-01 -1.546822e-01 -1.611220e-01 -1.666188e-01 -1.739656e-01 -1.802370e-01 -1.885246e-01 -1.956144e-01 -2.048904e-01 -2.127991e-01 -2.230524e-01 -2.316699e-01 -2.427637e-01 -2.518408e-01 -2.634934e-01 -2.726815e-01 -2.845380e-01 -2.935105e-01 -3.053088e-01 -3.139310e-01 -3.256733e-01 -3.341207e-01 -3.460559e-01 -3.547529e-01 -3.670364e-01 -3.763633e-01 -3.885207e-01 -3.983296e-01 -4.087585e-01 -4.178885e-01 -4.237770e-01 -4.298954e-01 -4.280558e-01 -4.282430e-01 -4.169469e-01 -4.091702e-01 -3.895998e-01 -3.743466e-01 -3.499618e-01 -3.300907e-01 -3.048105e-01 -2.837213e-01 -2.604724e-01 -2.407733e-01 -2.211323e-01 -2.043040e-01 -1.887846e-01 -1.753967e-01 -1.638787e-01 -1.539324e-01 
-1.347604e-01 -1.280259e-01 -1.234968e-01 -1.197066e-01 -1.178838e-01 -1.165137e-01 -1.168990e-01 -1.174723e-01 -1.196541e-01 -1.217514e-01 -1.253885e-01 -1.286578e-01 -1.334727e-01 -1.376501e-01 -1.434376e-01 -1.483723e-01 -1.550200e-01 -1.606860e-01 -1.681885e-01 -1.746609e-01 -1.831059e-01 -1.904928e-01 -2.000054e-01 -2.083499e-01 -2.190003e-01 -2.281868e-01 -2.398937e-01 -2.496035e-01 -2.620842e-01 -2.718481e-01 -2.846754e-01 -2.940494e-01 -3.068556e-01 -3.156797e-01 -3.284449e-01 -3.370395e-01 -3.501996e-01 -3.592912e-01 -3.733209e-01 -3.836154e-01 -3.982542e-01 -4.097517e-01 -4.231935e-01 -4.345024e-01 -4.430751e-01 -4.511731e-01 -4.503412e-01 -4.514158e-01 -4.385159e-01 -4.299853e-01 -4.065395e-01 -3.889183e-01 -3.598046e-01 -3.368071e-01 -3.073156e-01 -2.832786e-01 -2.569754e-01 -2.350214e-01 -2.135128e-01 -1.952285e-01 -1.787788e-01 -1.646190e-01 -1.528092e-01 -1.425922e-01 
-1.220715e-01 -1.153994e-01 -1.112463e-01 -1.077459e-01 -1.063929e-01 -1.054268e-01 -1.063104e-01 -1.073279e-01 -1.100000e-01 -1.125281e-01 -1.166249e-01 -1.202673e-01 -1.254950e-01 -1.299526e-01 -1.360972e-01 -1.412039e-01 -1.481607e-01 -1.539101e-01 -1.617091e-01 -1.682360e-01 -1.770310e-01 -1.845318e-01 -1.945250e-01 -2.031301e-01 -2.144389e-01 -2.240812e-01 -2.365940e-01 -2.469302e-01 -2.602302e-01 -2.706803e-01 -2.841433e-01 -2.941033e-01 -3.072478e-01 -3.164511e-01 -3.294234e-01 -3.382711e-01 -3.519862e-01 -3.615369e-01 -3.770531e-01 -3.885662e-01 -4.060258e-01 -4.200434e-01 -4.374720e-01 -4.527086e-01 -4.652708e-01 -4.778449e-01 -4.789201e-01 -4.829852e-01 -4.683871e-01 -4.591222e-01 -4.311183e-01 -4.093061e-01 -3.747058e-01 -3.463775e-01 -3.121503e-01 -2.834600e-01 -2.538424e-01 -2.285890e-01 -2.051358e-01 -1.848574e-01 -1.674983e-01 -1.523357e-01 -1.402947e-01 -1.297364e-01 
-1.073700e-01 -1.010511e-01 -9.755711e-02 -9.459162e-02 -9.393731e-02 -9.357843e-02 -9.514570e-02 -9.677104e-02 -1.000827e-01 -1.031642e-01 -1.078313e-01 -1.119262e-01 -1.176238e-01 -1.224017e-01 -1.288841e-01 -1.341818e-01 -1.413289e-01 -1.471944e-01 -1.550614e-01 -1.617322e-01 -1.705534e-01 -1.783483e-01 -1.884549e-01 -1.975991e-01 -2.092551e-01 -2.196939e-01 -2.329003e-01 -2.441780e-01 -2.585292e-01 -2.698280e-01 -2.845461e-01 -2.949817e-01 -3.092893e-01 -3.184590e-01 -3.323230e-01 -3.408406e-01 -3.555439e-01 -3.650558e-01 -3.824239e-01 -3.949044e-01 -4.158024e-01 -4.322719e-01 -4.547662e-01 -4.737417e-01 -4.916049e-01 -5.079527e-01 -5.116113e-01 -5.175815e-01 -5.005180e-01 -4.902216e-01 -4.553996e-01 -4.293999e-01 -3.869230e-01 -3.533238e-01 -3.128717e-01 -2.797131e-01 -2.462387e-01 -2.179946e-01 -1.926476e-01 -1.707446e-01 -1.527871e-01 -1.369921e-01 -1.250907e-01 -1.145278e-01 
-9.074329e-02 -8.490790e-02 -8.215767e-02 -7.984114e-02 -7.994214e-02 -8.028874e-02 -8.257655e-02 -8.490304e-02 -8.888247e-02 -9.261352e-02 -9.788252e-02 -1.025226e-01 -1.087369e-01 -1.138981e-01 -1.207892e-01 -1.262704e-01 -1.337141e-01 -1.395814e-01 -1.476789e-01 -1.542654e-01 -1.633657e-01 -1.711472e-01 -1.817401e-01 -1.911089e-01 -2.035848e-01 -2.145951e-01 -2.289440e-01 -2.411182e-01 -2.566900e-01 -2.690057e-01 -2.845572e-01 -2.957707e-01 -3.101160e-01 -3.194990e-01 -3.327878e-01 -3.409748e-01 -3.554158e-01 -3.645541e-01 -3.831701e-01 -3.963154e-01 -4.210635e-01 -4.405635e-01 -4.698300e-01 -4.950595e-01 -5.209003e-01 -5.458011e-01 -5.539652e-01 -5.667273e-01 -5.465853e-01 -5.350105e-01 -4.917949e-01 -4.573675e-01 -4.055847e-01 -3.626589e-01 -3.152290e-01 -2.751639e-01 -2.376017e-01 -2.052743e-01 -1.780660e-01 -1.542059e-01 -1.357768e-01 -1.193540e-01 -1.077299e-01 -9.727868e-02 
-7.207107e-02 -6.705831e-02 -6.542403e-02 -6.403000e-02 -6.516276e-02 -6.643738e-02 -6.966415e-02 -7.286946e-02 -7.770023e-02 -8.220852e-02 -8.823018e-02 -9.348072e-02 -1.003069e-01 -1.058481e-01 -1.131452e-01 -1.187583e-01 -1.263494e-01 -1.321774e-01 -1.401748e-01 -1.467257e-01 -1.555919e-01 -1.635702e-01 -1.740067e-01 -1.840054e-01 -1.966657e-01 -2.088121e-01 -2.239233e-01 -2.375859e-01 -2.545855e-01 -2.683031e-01 -2.856897e-01 -2.975906e-01 -3.134330e-01 -3.223347e-01 -3.360157e-01 -3.428077e-01 -3.572336e-01 -3.651832e-01 -3.850399e-01 -3.986673e-01 -4.277830e-01 -4.506830e-01 -4.884710e-01 -5.202459e-01 -5.569489e-01 -5.893453e-01 -6.039822e-01 -6.207453e-01 -5.965872e-01 -5.838736e-01 -5.276191e-01 -4.850981e-01 -4.195831e-01 -3.673850e-01 -3.109885e-01 -2.642794e-01 -2.224521e-01 -1.865148e-01 -1.580485e-01 -1.327692e-01 -1.146296e-01 -9.807785e-02 -8.739556e-02 -7.747529e-02 
-5.101434e-02 -4.711204e-02 -4.669908e-02 -4.642187e-02 -4.864164e-02 -5.098413e-02 -5.517166e-02 -5.938239e-02 -6.507128e-02 -7.050064e-02 -7.728597e-02 -8.331124e-02 -9.078032e-02 -9.684603e-02 -1.046075e-01 -1.103971e-01 -1.182265e-01 -1.238793e-01 -1.319264e-01 -1.380975e-01 -1.470133e-01 -1.546840e-01 -1.654857e-01 -1.755645e-01 -1.892177e-01 -2.020730e-01 -2.189086e-01 -2.339422e-01 -2.530295e-01 -2.684538e-01 -2.872797e-01 -3.004757e-01 -3.158712e-01 -3.248011e-01 -3.361971e-01 -3.415747e-01 -3.537233e-01 -3.593851e-01 -3.791656e-01 -3.915693e-01 -4.252644e-01 -4.508288e-01 -4.999151e-01 -5.411800e-01 -5.945147e-01 -6.436204e-01 -6.694294e-01 -7.030730e-01 -6.722367e-01 -6.567486e-01 -5.839026e-01 -5.224629e-01 -4.405610e-01 -3.717602e-01 -3.055439e-01 -2.492991e-01 -2.032544e-01 -1.631580e-01 -1.337456e-01 -1.073456e-01 -8.981263e-02 -7.359801e-02 -6.410533e-02 -5.511652e-02 
-2.809343e-02 -2.567526e-02 -2.690452e-02 -2.803204e-02 -3.162549e-02 -3.527171e-02 -4.064835e-02 -4.606143e-02 -5.282447e-02 -5.932008e-02 -6.708249e-02 -7.393982e-02 -8.222783e-02 -8.875087e-02 -9.703913e-02 -1.028249e-01 -1.107476e-01 -1.160309e-01 -1.236968e-01 -1.294239e-01 -1.376338e-01 -1.452033e-01 -1.553163e-01 -1.660426e-01 -1.794799e-01 -1.939653e-01 -2.115447e-01 -2.290520e-01 -2.502023e-01 -2.682101e-01 -2.901948e-01 -3.047462e-01 -3.227379e-01 -3.304832e-01 -3.410716e-01 -3.428706e-01 -3.523372e-01 -3.541986e-01 -3.727509e-01 -3.838989e-01 -4.219112e-01 -4.515694e-01 -5.145214e-01 -5.672861e-01 -6.437628e-01 -7.085588e-01 -7.506784e-01 -7.921142e-01 -7.542747e-01 -7.391658e-01 -6.388128e-01 -5.596250e-01 -4.526896e-01 -3.669365e-01 -2.890241e-01 -2.235891e-01 -1.745313e-01 -1.310475e-01 -1.024630e-01 -7.574504e-02 -6.028492e-02 -4.507291e-02 -3.778883e-02 -3.023469e-02 
-2.509864e-03 -2.000977e-03 -4.982324e-03 -7.749592e-03 -1.275344e-02 -1.784344e-02 -2.439734e-02 -3.114205e-02 -3.894543e-02 -4.669573e-02 -5.540989e-02 -6.337543e-02 -7.249010e-02 -7.977673e-02 -8.863271e-02 -9.459200e-02 -1.026571e-01 -1.074410e-01 -1.147868e-01 -1.195620e-01 -1.272760e-01 -1.339283e-01 -1.439731e-01 -1.543954e-01 -1.688962e-01 -1.841975e-01 -2.044541e-01 -2.241357e-01 -2.492555e-01 -2.704057e-01 -2.956702e-01 -3.128853e-01 -3.298904e-01 -3.376510e-01 -3.423941e-01 -3.411304e-01 -3.441084e-01 -3.398427e-01 -3.545587e-01 -3.597824e-01 -4.011274e-01 -4.301486e-01 -5.104967e-01 -5.755545e-01 -6.881221e-01 -7.847450e-01 -8.565490e-01 -9.444016e-01 -8.885968e-01 -8.657658e-01 -7.308304e-01 -6.040216e-01 -4.671828e-01 -3.529499e-01 -2.631583e-01 -1.872751e-01 -1.361436e-01 -9.076418e-02 -6.385948e-02 -3.843274e-02 -2.562774e-02 -1.257759e-02 -7.866211e-03 -2.476643e-03 
2.439311e-02 2.262631e-02 1.752648e-02 1.284989e-02 6.214603e-03 -5.556453e-04 -8.479094e-03 -1.678469e-02 -2.586725e-02 -3.507102e-02 -4.504797e-02 -5.420773e-02 -6.448256e-02 -7.239027e-02 -8.203504e-02 -8.775941e-02 -9.590517e-02 -9.969824e-02 -1.062323e-01 -1.097370e-01 -1.159318e-01 -1.217795e-01 -1.301481e-01 -1.410044e-01 -1.544051e-01 -1.719747e-01 -1.926043e-01 -2.164836e-01 -2.445296e-01 -2.707823e-01 -3.021779e-01 -3.227226e-01 -3.462421e-01 -3.519488e-01 -3.531487e-01 -3.439595e-01 -3.382623e-01 -3.248542e-01 -3.318274e-01 -3.313256e-01 -3.731593e-01 -4.050574e-01 -5.055060e-01 -5.902273e-01 -7.545055e-01 -8.864233e-01 -9.986113e-01 -1.097116e+00 -1.028813e+00 -1.018156e+00 -8.196653e-01 -6.478859e-01 -4.640726e-01 -3.184911e-01 -2.184074e-01 -1.325602e-01 -8.432703e-02 -3.843248e-02 -1.700860e-02 5.905265e-03 1.374347e-02 2.377233e-02 2.462199e-02 2.728910e-02 
5.382469e-02 4.933600e-02 4.203539e-02 3.526970e-02 2.700993e-02 1.850369e-02 9.282908e-03 -6.456540e-04 -1.090301e-02 -2.176528e-02 -3.291972e-02 -4.372011e-02 -5.514005e-02 -6.429638e-02 -7.477811e-02 -8.075580e-02 -8.898395e-02 -9.173185e-02 -9.728839e-02 -9.878081e-02 -1.033297e-01 -1.070724e-01 -1.142372e-01 -1.239068e-01 -1.379694e-01 -1.562438e-01 -1.808496e-01 -2.081204e-01 -2.440217e-01 -2.762911e-01 -3.163517e-01 -3.430496e-01 -3.655692e-01 -3.716517e-01 -3.592262e-01 -3.453492e-01 -3.256749e-01 -2.991285e-01 -2.940894e-01 -2.781197e-01 -3.156842e-01 -3.367510e-01 -4.578534e-01 -5.520189e-01 -7.977681e-01 -9.793645e-01 -1.172333e+00 -1.408906e+00 -1.282385e+00 -1.247731e+00 -9.814469e-01 -6.803564e-01 -4.397437e-01 -2.539388e-01 -1.460766e-01 -5.747385e-02 -1.486207e-02 2.552662e-02 3.995430e-02 5.690685e-02 5.900153e-02 6.419102e-02 6.077446e-02 5.978932e-02 
8.352143e-02 7.604366e-02 6.640699e-02 5.736376e-02 4.744097e-02 3.698724e-02 2.638812e-02 1.455108e-02 2.882182e-03 -9.974500e-03 -2.276633e-02 -3.543879e-02 -4.863077e-02 -5.885504e-02 -7.072338e-02 -7.613312e-02 -8.461027e-02 -8.526716e-02 -8.939481e-02 -8.804173e-02 -8.970959e-02 -9.117475e-02 -9.495263e-02 -1.042669e-01 -1.154785e-01 -1.366123e-01 -1.602002e-01 -1.944724e-01 -2.335639e-01 -2.761180e-01 -3.280255e-01 -3.635257e-01 -4.066892e-01 -4.101138e-01 -3.865194e-01 -3.558550e-01 -3.155319e-01 -2.700900e-01 -2.437859e-01 -2.131561e-01 -2.375068e-01 -2.548291e-01 -3.961262e-01 -5.236645e-01 -8.965769e-01 -1.163744e+00 -1.428785e+00 -1.635774e+00 -1.494827e+00 -1.546388e+00 -1.138707e+00 -7.217581e-01 -3.936768e-01 -1.474352e-01 -4.602242e-02 4.566983e-02 7.079095e-02 1.032405e-01 1.047261e-01 1.139314e-01 1.076106e-01 1.069606e-01 9.814060e-02 9.299403e-02 