# vtk DataFile Version 2.0
Comment goes here
ASCII

DATASET STRUCTURED_POINTS
DIMENSIONS    64   64   1

ORIGIN    0.000   0.000   0.000
SPACING   0.0156250.015625   1.000

POINT_DATA   4096
SCALARS uY double
LOOKUP_TABLE default

5.189219e-03 1.296152e-02 9.628612e-03 1.630615e-02 1.347389e-02 1.917250e-02 1.655894e-02 2.092750e-02 1.833739e-02 2.052397e-02 1.812428e-02 1.690724e-02 1.577959e-02 1.008294e-02 1.233736e-02 2.431265e-03 9.476973e-03 -5.993389e-04 8.914784e-03 2.972557e-03 1.148364e-02 1.178033e-02 1.811503e-02 2.180150e-02 2.595406e-02 2.762039e-02 3.028767e-02 2.437173e-02 2.691112e-02 1.068021e-02 1.561938e-02 -7.119766e-03 4.126270e-03 -1.834153e-02 1.087230e-03 -1.800980e-02 2.058595e-03 -1.452105e-02 4.410941e-03 -1.463574e-02 3.400505e-03 -2.201397e-02 -6.911580e-03 -3.637919e-02 -2.992499e-02 -5.139255e-02 -5.926826e-02 -5.542584e-02 -7.446261e-02 -4.620973e-02 -7.359063e-02 -3.457526e-02 -6.040000e-02 -2.291252e-02 -4.310682e-02 -1.294030e-02 -2.755395e-02 -5.179045e-03 -1.553322e-02 7.279981e-04 -6.684364e-03 5.394208e-03 -6.136207e-05 9.357200e-03 
7.551866e-03 1.504606e-02 1.134887e-02 1.740211e-02 1.405824e-02 1.870919e-02 1.555870e-02 1.847038e-02 1.564313e-02 1.623040e-02 1.441785e-02 1.214386e-02 1.277663e-02 7.539045e-03 1.212544e-02 4.483352e-03 1.267396e-02 4.220674e-03 1.305538e-02 6.523145e-03 1.401428e-02 1.121253e-02 1.718246e-02 1.630079e-02 2.132308e-02 1.878183e-02 2.368613e-02 1.647158e-02 2.227696e-02 9.927112e-03 1.797120e-02 3.284153e-03 1.487577e-02 3.250202e-05 1.487864e-02 -6.192094e-04 1.496984e-02 -1.959909e-03 1.347424e-02 -7.035189e-03 7.503081e-03 -1.761273e-02 -6.386550e-03 -3.248804e-02 -2.906313e-02 -4.588475e-02 -5.436346e-02 -4.973908e-02 -6.874766e-02 -4.407651e-02 -6.810878e-02 -3.408876e-02 -5.627649e-02 -2.261472e-02 -4.029015e-02 -1.206832e-02 -2.527957e-02 -3.535322e-03 -1.322610e-02 2.998191e-03 -4.174822e-03 7.991662e-03 2.525171e-03 1.191406e-02 
1.819691e-03 9.504819e-03 5.952664e-03 1.223113e-02 9.344524e-03 1.429961e-02 1.191485e-02 1.534485e-02 1.343548e-02 1.489979e-02 1.370010e-02 1.268166e-02 1.281030e-02 9.064223e-03 1.135649e-02 5.464087e-03 1.024031e-02 4.080295e-03 1.035997e-02 5.885528e-03 1.217980e-02 1.011937e-02 1.561695e-02 1.458784e-02 1.916901e-02 1.648475e-02 2.059163e-02 1.362008e-02 1.819125e-02 5.873958e-03 1.232966e-02 -3.779383e-03 6.084275e-03 -1.098838e-02 2.478062e-03 -1.382591e-02 7.218721e-04 -1.488363e-02 -8.884649e-04 -1.725663e-02 -4.877771e-03 -2.266833e-02 -1.369454e-02 -3.056995e-02 -2.775444e-02 -3.775352e-02 -4.314505e-02 -3.979957e-02 -5.238232e-02 -3.571718e-02 -5.310912e-02 -2.874163e-02 -4.665361e-02 -2.089136e-02 -3.658746e-02 -1.347342e-02 -2.610905e-02 -7.090490e-03 -1.686848e-02 -1.805889e-03 -9.282195e-03 2.575213e-03 -3.166689e-03 6.291658e-03 
3.735605e-03 1.101919e-02 7.307977e-03 1.299013e-02 9.885956e-03 1.402691e-02 1.147953e-02 1.393740e-02 1.210808e-02 1.263741e-02 1.197065e-02 1.039319e-02 1.155814e-02 7.957780e-03 1.145201e-02 6.314868e-03 1.181679e-02 6.108866e-03 1.241433e-02 7.356532e-03 1.346463e-02 9.667745e-03 1.527315e-02 1.193429e-02 1.723143e-02 1.272204e-02 1.818117e-02 1.111695e-02 1.736021e-02 7.479995e-03 1.518116e-02 3.430973e-03 1.303468e-02 3.302399e-04 1.153574e-02 -2.009721e-03 9.693994e-03 -4.921758e-03 6.312347e-03 -9.765897e-03 -8.494304e-05 -1.707046e-02 -1.065268e-02 -2.576234e-02 -2.482686e-02 -3.296345e-02 -3.904404e-02 -3.547140e-02 -4.779057e-02 -3.286294e-02 -4.864476e-02 -2.694664e-02 -4.282599e-02 -1.949332e-02 -3.346900e-02 -1.199589e-02 -2.344594e-02 -5.333769e-03 -1.440112e-02 2.062089e-04 -6.904255e-03 4.680002e-03 -9.331991e-04 8.246952e-03 
-6.989188e-04 6.531792e-03 3.013614e-03 8.809332e-03 6.032336e-03 1.044743e-02 8.321847e-03 1.126049e-02 9.804582e-03 1.107110e-02 1.045152e-02 9.868897e-03 1.039965e-02 8.001387e-03 1.000527e-02 6.249947e-03 9.760474e-03 5.571607e-03 1.011968e-02 6.380997e-03 1.127578e-02 8.233244e-03 1.300992e-02 9.957522e-03 1.451465e-02 1.013259e-02 1.472190e-02 7.765504e-03 1.293010e-02 2.948292e-03 9.399998e-03 -2.926092e-03 5.383289e-03 -7.996076e-03 2.039445e-03 -1.139697e-02 -7.430768e-04 -1.392426e-02 -3.807183e-03 -1.683879e-02 -8.344072e-03 -2.083558e-02 -1.525302e-02 -2.549023e-02 -2.423255e-02 -2.925008e-02 -3.314561e-02 -3.029253e-02 -3.884453e-02 -2.811407e-02 -3.984297e-02 -2.378282e-02 -3.651672e-02 -1.844285e-02 -3.046503e-02 -1.297723e-02 -2.341538e-02 -7.907659e-03 -1.654503e-02 -3.438533e-03 -1.040843e-02 4.195045e-04 -5.143833e-03 3.727688e-03 
1.013257e-03 7.790164e-03 4.258089e-03 9.508673e-03 6.695508e-03 1.046986e-02 8.367950e-03 1.062148e-02 9.350391e-03 1.000313e-02 9.811366e-03 8.841522e-03 1.002828e-02 7.570013e-03 1.028714e-02 6.691083e-03 1.072187e-02 6.538241e-03 1.132899e-02 7.127598e-03 1.216228e-02 8.167832e-03 1.321224e-02 9.049234e-03 1.414730e-02 9.068027e-03 1.445212e-02 7.810654e-03 1.380395e-02 5.441460e-03 1.234567e-02 2.608481e-03 1.053533e-02 -1.355451e-04 8.545812e-03 -2.818416e-03 5.968685e-03 -5.947909e-03 2.167334e-03 -1.003951e-02 -3.508838e-03 -1.514381e-02 -1.131684e-02 -2.052248e-02 -2.053803e-02 -2.472385e-02 -2.918796e-02 -2.632274e-02 -3.474203e-02 -2.497046e-02 -3.586784e-02 -2.134307e-02 -3.291134e-02 -1.640929e-02 -2.730448e-02 -1.108340e-02 -2.062736e-02 -6.009726e-03 -1.402581e-02 -1.521538e-03 -8.108028e-03 2.272647e-03 -3.090770e-03 5.371720e-03 
-2.486409e-03 4.083573e-03 7.667911e-04 6.025491e-03 3.448764e-03 7.420935e-03 5.538260e-03 8.183622e-03 7.016325e-03 8.263342e-03 7.908064e-03 7.724096e-03 8.328465e-03 6.813091e-03 8.493611e-03 5.950969e-03 8.671685e-03 5.572318e-03 9.086312e-03 5.837533e-03 9.800588e-03 6.481452e-03 1.063683e-02 6.884287e-03 1.115982e-02 6.331168e-03 1.085170e-02 4.363524e-03 9.403961e-03 1.069284e-03 6.948363e-03 -2.890523e-03 4.003810e-03 -6.672285e-03 1.044414e-03 -9.833396e-03 -1.920240e-03 -1.257270e-02 -5.252388e-03 -1.533811e-02 -9.443010e-03 -1.834763e-02 -1.474385e-02 -2.130963e-02 -2.076957e-02 -2.346387e-02 -2.635321e-02 -2.400235e-02 -3.001561e-02 -2.266044e-02 -3.091358e-02 -1.983165e-02 -2.910844e-02 -1.612129e-02 -2.533693e-02 -1.208737e-02 -2.053798e-02 -8.126639e-03 -1.548525e-02 -4.461825e-03 -1.066187e-02 -1.187748e-03 -6.301725e-03 1.666326e-03 
-8.510753e-04 5.259305e-03 2.014406e-03 6.783290e-03 4.269876e-03 7.722993e-03 5.948697e-03 8.079187e-03 7.119077e-03 7.917444e-03 7.900000e-03 7.401560e-03 8.454027e-03 6.784443e-03 8.939348e-03 6.333685e-03 9.451150e-03 6.221420e-03 1.001904e-02 6.447320e-03 1.064554e-02 6.827989e-03 1.126712e-02 7.030059e-03 1.169430e-02 6.696160e-03 1.167770e-02 5.621346e-03 1.105742e-02 3.865087e-03 9.857837e-03 1.690536e-03 8.211743e-03 -6.649039e-04 6.145649e-03 -3.178305e-03 3.471192e-03 -6.010140e-03 -1.016920e-04 -9.300481e-03 -4.801921e-03 -1.294289e-02 -1.056785e-02 -1.645809e-02 -1.681750e-02 -1.908431e-02 -2.242683e-02 -2.012654e-02 -2.612708e-02 -1.935696e-02 -2.717882e-02 -1.704686e-02 -2.564771e-02 -1.371519e-02 -2.220735e-02 -9.916433e-03 -1.773023e-02 -6.099393e-03 -1.296510e-02 -2.555825e-03 -8.411009e-03 5.591211e-04 -4.335744e-03 3.175464e-03 
-3.712257e-03 2.109800e-03 -9.091922e-04 3.787786e-03 1.458054e-03 5.028118e-03 3.367938e-03 5.792287e-03 4.817388e-03 6.077518e-03 5.837962e-03 5.951449e-03 6.511054e-03 5.572223e-03 6.964954e-03 5.163777e-03 7.343815e-03 4.927286e-03 7.754097e-03 4.916831e-03 8.206116e-03 4.974188e-03 8.579454e-03 4.771191e-03 8.637488e-03 3.947695e-03 8.121131e-03 2.288302e-03 6.883842e-03 -1.483408e-04 4.982413e-03 -3.037775e-03 2.637158e-03 -5.969719e-03 5.575571e-05 -8.688954e-03 -2.727936e-03 -1.119268e-02 -5.838686e-03 -1.359284e-02 -9.432727e-03 -1.590848e-02 -1.350971e-02 -1.793843e-02 -1.774589e-02 -1.929343e-02 -2.148007e-02 -1.959088e-02 -2.395376e-02 -1.869181e-02 -2.469186e-02 -1.676105e-02 -2.366880e-02 -1.412346e-02 -2.123577e-02 -1.112527e-02 -1.791287e-02 -8.050916e-03 -1.419491e-02 -5.095548e-03 -1.045159e-02 -2.376069e-03 -6.914904e-03 4.077887e-05 
-2.096648e-03 3.287488e-03 3.804486e-04 4.641844e-03 2.421262e-03 5.560266e-03 4.039297e-03 6.056603e-03 5.279293e-03 6.187885e-03 6.216733e-03 6.063174e-03 6.947320e-03 5.830283e-03 7.562306e-03 5.634494e-03 8.122495e-03 5.564202e-03 8.650481e-03 5.611767e-03 9.134641e-03 5.667644e-03 9.517265e-03 5.548921e-03 9.685879e-03 5.067955e-03 9.507524e-03 4.115338e-03 8.889784e-03 2.706368e-03 7.814874e-03 9.512004e-04 6.306866e-03 -1.037597e-03 4.354238e-03 -3.219392e-03 1.873330e-03 -5.613077e-03 -1.242603e-03 -8.208935e-03 -5.029057e-03 -1.086878e-02 -9.334588e-03 -1.328204e-02 -1.373636e-02 -1.502834e-02 -1.757492e-02 -1.574287e-02 -2.016276e-02 -1.528533e-02 -2.107503e-02 -1.377264e-02 -2.029409e-02 -1.148746e-02 -1.814623e-02 -8.766702e-03 -1.511985e-02 -5.915035e-03 -1.169249e-02 -3.161597e-03 -8.234877e-03 -6.564035e-04 -4.990315e-03 1.510858e-03 
-4.538617e-03 5.266302e-04 -2.149307e-03 1.987726e-03 -7.480663e-05 3.112108e-03 1.659128e-03 3.881120e-03 3.048654e-03 4.304124e-03 4.116023e-03 4.431913e-03 4.912113e-03 4.359011e-03 5.509644e-03 4.202640e-03 5.983288e-03 4.055283e-03 6.380211e-03 3.928935e-03 6.691375e-03 3.729009e-03 6.838596e-03 3.280655e-03 6.690307e-03 2.401556e-03 6.111498e-03 9.902167e-04 5.026996e-03 -9.148953e-04 3.458952e-03 -3.144410e-03 1.505791e-03 -5.480345e-03 -7.304436e-04 -7.759182e-03 -3.207968e-03 -9.915251e-03 -5.941413e-03 -1.193186e-02 -8.939498e-03 -1.375553e-02 -1.211592e-02 -1.524283e-02 -1.522307e-02 -1.618055e-02 -1.786683e-02 -1.637518e-02 -1.962847e-02 -1.575389e-02 -2.023312e-02 -1.439658e-02 -1.964039e-02 -1.248613e-02 -1.802472e-02 -1.023971e-02 -1.568240e-02 -7.856855e-03 -1.292945e-02 -5.494119e-03 -1.003440e-02 -3.262477e-03 -7.194031e-03 -1.237578e-03 
-2.925730e-03 1.737609e-03 -8.171874e-04 2.936280e-03 9.957984e-04 3.820045e-03 2.508708e-03 4.399901e-03 3.742951e-03 4.715069e-03 4.740696e-03 4.832950e-03 5.555625e-03 4.837969e-03 6.238837e-03 4.808278e-03 6.825075e-03 4.787974e-03 7.325524e-03 4.767589e-03 7.725608e-03 4.682413e-03 7.981947e-03 4.431144e-03 8.024922e-03 3.912687e-03 7.776994e-03 3.066455e-03 7.179086e-03 1.893621e-03 6.204350e-03 4.446299e-04 4.846064e-03 -1.217921e-03 3.091128e-03 -3.048594e-03 9.109248e-04 -5.013507e-03 -1.712535e-03 -7.053045e-03 -4.736733e-03 -9.040951e-03 -8.004674e-03 -1.077271e-02 -1.121809e-02 -1.200413e-02 -1.397398e-02 -1.253165e-02 -1.587495e-02 -1.226943e-02 -1.666554e-02 -1.127114e-02 -1.630795e-02 -9.695017e-03 -1.496349e-02 -7.747420e-03 -1.291000e-02 -5.632135e-03 -1.044971e-02 -3.519115e-03 -7.845477e-03 -1.534256e-03 -5.293989e-03 2.364890e-04 
-5.098821e-03 -7.536441e-04 -3.074452e-03 5.244324e-04 -1.266719e-03 1.551840e-03 2.953264e-04 2.316539e-03 1.602686e-03 2.826389e-03 2.665604e-03 3.112978e-03 3.511368e-03 3.228574e-03 4.177458e-03 3.231630e-03 4.698867e-03 3.161850e-03 5.092005e-03 3.014910e-03 5.340985e-03 2.733110e-03 5.393809e-03 2.221855e-03 5.174037e-03 1.388296e-03 4.607565e-03 1.858216e-04 3.653300e-03 -1.357780e-03 2.320023e-03 -3.145440e-03 6.570848e-04 -5.048382e-03 -1.275391e-03 -6.951949e-03 -3.431894e-03 -8.776935e-03 -5.779313e-03 -1.046369e-02 -8.267749e-03 -1.193914e-02 -1.079105e-02 -1.309703e-02 -1.316316e-02 -1.381071e-02 -1.513549e-02 -1.397502e-02 -1.646058e-02 -1.355144e-02 -1.697256e-02 -1.258485e-02 -1.663560e-02 -1.118462e-02 -1.554062e-02 -9.490747e-03 -1.386253e-02 -7.643024e-03 -1.180594e-02 -5.762042e-03 -9.562423e-03 -3.942599e-03 -7.288143e-03 -2.255624e-03 
-3.495047e-03 4.900599e-04 -1.719144e-03 1.545655e-03 -1.293170e-04 2.383975e-03 1.257195e-03 3.008262e-03 2.443489e-03 3.439818e-03 3.447582e-03 3.715499e-03 4.295329e-03 3.879830e-03 5.011754e-03 3.971934e-03 5.612933e-03 4.011243e-03 6.100737e-03 3.988029e-03 6.460433e-03 3.863542e-03 6.660266e-03 3.581131e-03 6.655139e-03 3.085816e-03 6.396581e-03 2.344539e-03 5.845121e-03 1.356972e-03 4.977109e-03 1.512812e-04 3.781672e-03 -1.230413e-03 2.253260e-03 -2.743607e-03 3.919529e-04 -4.339165e-03 -1.781465e-03 -5.948579e-03 -4.200388e-03 -7.469084e-03 -6.729027e-03 -8.763617e-03 -9.157243e-03 -9.683865e-03 -1.122812e-02 -1.011042e-02 -1.269799e-02 -9.989844e-03 -1.340480e-02 -9.347595e-03 -1.330901e-02 -8.273949e-03 -1.248981e-02 -6.895616e-03 -1.110678e-02 -5.346801e-03 -9.350651e-03 -3.748436e-03 -7.403190e-03 -2.198091e-03 -5.414365e-03 -7.684171e-04 
-5.493988e-03 -1.810130e-03 -3.782806e-03 -6.881508e-04 -2.212687e-03 2.544762e-04 -8.134589e-04 1.007080e-03 4.014486e-04 1.572092e-03 1.432429e-03 1.964969e-03 2.290110e-03 2.210360e-03 2.989589e-03 2.333083e-03 3.542407e-03 2.345403e-03 3.947876e-03 2.235898e-03 4.186904e-03 1.967085e-03 4.221872e-03 1.485839e-03 4.004652e-03 7.442493e-04 3.491435e-03 -2.774844e-04 2.658438e-03 -1.556929e-03 1.510485e-03 -3.031563e-03 7.770793e-05 -4.615984e-03 -1.596370e-03 -6.223267e-03 -3.464840e-03 -7.776739e-03 -5.476079e-03 -9.206809e-03 -7.560977e-03 -1.044036e-02 -9.617126e-03 -1.139552e-02 -1.150279e-02 -1.199020e-02 -1.305129e-02 -1.216251e-02 -1.410598e-02 -1.189173e-02 -1.456132e-02 -1.120649e-02 -1.438918e-02 -1.017664e-02 -1.363983e-02 -8.895692e-03 -1.242123e-02 -7.462644e-03 -1.086933e-02 -5.968694e-03 -9.121147e-03 -4.490529e-03 -7.297237e-03 -3.088902e-03 
-3.920865e-03 -5.546340e-04 -2.434902e-03 3.723513e-04 -1.050939e-03 1.162068e-03 2.061132e-04 1.809521e-03 1.326393e-03 2.320533e-03 2.310830e-03 2.709311e-03 3.166174e-03 2.993633e-03 3.899611e-03 3.188007e-03 4.513890e-03 3.296736e-03 5.003926e-03 3.309646e-03 5.355153e-03 3.202729e-03 5.543675e-03 2.944311e-03 5.538933e-03 2.505216e-03 5.309147e-03 1.869105e-03 4.827680e-03 1.038448e-03 4.077186e-03 3.380914e-05 3.050161e-03 -1.111531e-03 1.748274e-03 -2.356285e-03 1.851793e-04 -3.650902e-03 -1.604736e-03 -4.932912e-03 -3.554158e-03 -6.123092e-03 -5.553663e-03 -7.128781e-03 -7.453688e-03 -7.857352e-03 -9.083390e-03 -8.236460e-03 -1.028434e-02 -8.232073e-03 -1.094697e-02 -7.855513e-03 -1.103370e-02 -7.157536e-03 -1.058002e-02 -6.214196e-03 -9.676600e-03 -5.110926e-03 -8.442826e-03 -3.929698e-03 -7.002166e-03 -2.741274e-03 -5.465149e-03 -1.602176e-03 
-5.797010e-03 -2.709891e-03 -4.349980e-03 -1.721362e-03 -2.987602e-03 -8.527683e-04 -1.737745e-03 -1.146674e-04 -6.157247e-04 4.900012e-04 3.725828e-04 9.644076e-04 1.226953e-03 1.314669e-03 1.948203e-03 1.544779e-03 2.533139e-03 1.650714e-03 2.970131e-03 1.616281e-03 3.236939e-03 1.413706e-03 3.302232e-03 1.010402e-03 3.131349e-03 3.804912e-04 2.695089e-03 -4.830923e-04 1.978448e-03 -1.561038e-03 9.856443e-04 -2.808081e-03 -2.604751e-04 -4.160844e-03 -1.723000e-03 -5.548427e-03 -3.354996e-03 -6.899933e-03 -5.099115e-03 -8.146451e-03 -6.882844e-03 -9.220009e-03 -8.613556e-03 -1.005452e-02 -1.017946e-02 -1.059199e-02 -1.146086e-02 -1.079297e-02 -1.235081e-02 -1.064630e-02 -1.277772e-02 -1.017258e-02 -1.272019e-02 -9.419667e-03 -1.220842e-02 -8.452762e-03 -1.131330e-02 -7.343272e-03 -1.012902e-02 -6.159720e-03 -8.755568e-03 -4.962090e-03 -7.285623e-03 -3.799458e-03 
-4.288277e-03 -1.478760e-03 -3.048562e-03 -6.636451e-04 -1.845541e-03 8.248936e-05 -7.080902e-04 7.472871e-04 3.452042e-04 1.323499e-03 1.303150e-03 1.807507e-03 2.158815e-03 2.197221e-03 2.906461e-03 2.489527e-03 3.538938e-03 2.677892e-03 4.045844e-03 2.751038e-03 4.412580e-03 2.693480e-03 4.620408e-03 2.488312e-03 4.647842e-03 2.121792e-03 4.473442e-03 1.588324e-03 4.079270e-03 8.939305e-04 3.453767e-03 5.700172e-05 2.593483e-03 -8.932806e-04 1.504504e-03 -1.919109e-03 2.052782e-04 -2.975212e-03 -1.268416e-03 -4.009023e-03 -2.857751e-03 -4.961551e-03 -4.477712e-03 -5.771059e-03 -6.020454e-03 -6.380351e-03 -7.367497e-03 -6.746077e-03 -8.409165e-03 -6.846561e-03 -9.065213e-03 -6.684894e-03 -9.298937e-03 -6.286479e-03 -9.120034e-03 -5.692657e-03 -8.576759e-03 -4.952953e-03 -7.741826e-03 -4.118114e-03 -6.697420e-03 -3.235115e-03 -5.523119e-03 -2.344376e-03 
-6.058390e-03 -3.508655e-03 -4.832422e-03 -2.634633e-03 -3.649905e-03 -1.829483e-03 -2.534107e-03 -1.102936e-03 -1.499126e-03 -4.618059e-04 -5.533202e-04 8.796562e-05 2.968624e-04 5.390672e-04 1.043048e-03 8.805881e-04 1.671737e-03 1.096376e-03 2.162539e-03 1.164862e-03 2.488506e-03 1.061166e-03 2.618809e-03 7.616911e-04 2.523455e-03 2.504785e-04 2.179122e-03 -4.743390e-04 1.574581e-03 -1.396115e-03 7.140591e-04 -2.478967e-03 -3.823042e-04 -3.670959e-03 -1.680184e-03 -4.909705e-03 -3.133020e-03 -6.128143e-03 -4.682503e-03 -7.259079e-03 -6.257668e-03 -8.238731e-03 -7.774722e-03 -9.010564e-03 -9.140557e-03 -9.530221e-03 -1.026185e-02 -9.770982e-03 -1.105873e-02 -9.727784e-03 -1.147867e-02 -9.417748e-03 -1.150555e-02 -8.876635e-03 -1.116043e-02 -8.152424e-03 -1.049459e-02 -7.298023e-03 -9.577886e-03 -6.364917e-03 -8.486462e-03 -5.398749e-03 -7.292634e-03 -4.437029e-03 
-4.660485e-03 -2.352356e-03 -3.625459e-03 -1.630635e-03 -2.574511e-03 -9.157283e-04 -1.538097e-03 -2.263521e-04 -5.406294e-04 4.186461e-04 3.977154e-04 9.999318e-04 1.259399e-03 1.498121e-03 2.028389e-03 1.894882e-03 2.689478e-03 2.174190e-03 3.227888e-03 2.323107e-03 3.628908e-03 2.331872e-03 3.877556e-03 2.193733e-03 3.958618e-03 1.905395e-03 3.857539e-03 1.468533e-03 3.562208e-03 8.919808e-04 3.065139e-03 1.935548e-04 2.365512e-03 -5.994854e-04 1.471005e-03 -1.451653e-03 3.998794e-04 -2.321797e-03 -8.164129e-04 -3.166395e-03 -2.130679e-03 -3.943019e-03 -3.478959e-03 -4.613568e-03 -4.782934e-03 -5.146959e-03 -5.957040e-03 -5.520998e-03 -6.919709e-03 -5.723258e-03 -7.605891e-03 -5.751059e-03 -7.976885e-03 -5.610832e-03 -8.024458e-03 -5.316970e-03 -7.768565e-03 -4.890071e-03 -7.250253e-03 -4.354645e-03 -6.522499e-03 -3.736655e-03 -5.641553e-03 -3.061423e-03 
-6.311449e-03 -4.253091e-03 -5.271369e-03 -3.479044e-03 -4.245449e-03 -2.727595e-03 -3.249623e-03 -2.005788e-03 -2.293342e-03 -1.322263e-03 -1.383610e-03 -6.898247e-04 -5.292559e-04 -1.269759e-04 2.553601e-04 3.421188e-04 9.482022e-04 6.893512e-04 1.519776e-03 8.856618e-04 1.935741e-03 9.044597e-04 2.161048e-03 7.247725e-04 2.164540e-03 3.341065e-04 1.923353e-03 -2.686203e-04 1.426679e-03 -1.070137e-03 6.782972e-04 -2.040750e-03 -3.026337e-04 -3.134361e-03 -1.482421e-03 -4.291332e-03 -2.814402e-03 -5.443903e-03 -4.240199e-03 -6.523036e-03 -5.690582e-03 -7.465309e-03 -7.087074e-03 -8.218788e-03 -8.346163e-03 -8.747307e-03 -9.387263e-03 -9.032875e-03 -1.014359e-02 -9.076015e-03 -1.057271e-02 -8.893914e-03 -1.066296e-02 -8.516659e-03 -1.043322e-02 -7.982274e-03 -9.926753e-03 -7.331510e-03 -9.201469e-03 -6.603228e-03 -8.319739e-03 -5.831010e-03 -7.340024e-03 -5.041296e-03 
-5.086577e-03 -3.238571e-03 -4.218227e-03 -2.590794e-03 -3.288927e-03 -1.888426e-03 -2.329170e-03 -1.155648e-03 -1.367378e-03 -4.225482e-04 -4.311112e-04 2.753895e-04 4.526260e-04 9.003881e-04 1.258176e-03 1.417645e-03 1.962672e-03 1.800848e-03 2.547310e-03 2.035321e-03 2.997603e-03 2.117176e-03 3.302285e-03 2.049375e-03 3.451534e-03 1.837555e-03 3.435902e-03 1.488469e-03 3.246914e-03 1.011946e-03 2.879114e-03 4.247587e-04 2.332468e-03 -2.465345e-04 1.614159e-03 -9.662033e-04 7.396694e-04 -1.693921e-03 -2.664284e-04 -2.391745e-03 -1.369598e-03 -3.030576e-03 -2.524527e-03 -3.593260e-03 -3.675314e-03 -4.072958e-03 -4.758070e-03 -4.467750e-03 -5.706807e-03 -4.774464e-03 -6.461828e-03 -4.985285e-03 -6.978312e-03 -5.088828e-03 -7.232374e-03 -5.074298e-03 -7.222773e-03 -4.935667e-03 -6.968073e-03 -4.673680e-03 -6.500694e-03 -4.295375e-03 -5.860030e-03 -3.812252e-03 
-6.575979e-03 -4.983380e-03 -5.696136e-03 -4.300878e-03 -4.810901e-03 -3.596099e-03 -3.925619e-03 -2.870402e-03 -3.041042e-03 -2.131669e-03 -2.158547e-03 -1.398046e-03 -1.285642e-03 -6.992581e-04 -4.405369e-04 -7.445946e-05 3.459628e-04 4.332852e-04 1.032639e-03 7.840058e-04 1.573630e-03 9.462575e-04 1.925078e-03 8.988425e-04 2.050272e-03 6.298036e-04 1.923054e-03 1.359022e-04 1.530489e-03 -5.750472e-04 8.751036e-04 -1.479522e-03 -2.408955e-05 -2.534411e-03 -1.132467e-03 -3.677400e-03 -2.401984e-03 -4.833167e-03 -3.773333e-03 -5.923928e-03 -5.177399e-03 -6.880739e-03 -6.536829e-03 -7.651989e-03 -7.769744e-03 -8.207306e-03 -8.797441e-03 -8.537118e-03 -9.555648e-03 -8.649399e-03 -1.000566e-02 -8.565168e-03 -1.014038e-02 -8.313778e-03 -9.982750e-03 -7.928500e-03 -9.577731e-03 -7.442529e-03 -8.981479e-03 -6.885495e-03 -8.250962e-03 -6.280781e-03 -7.436231e-03 -5.644062e-03 
-5.607484e-03 -4.198830e-03 -4.871908e-03 -3.605540e-03 -4.033815e-03 -2.891584e-03 -3.122348e-03 -2.085354e-03 -2.168697e-03 -1.228681e-03 -1.207491e-03 -3.762918e-04 -2.759992e-04 4.103632e-04 5.890248e-04 1.074466e-03 1.355760e-03 1.576263e-03 2.001102e-03 1.900168e-03 2.511902e-03 2.052128e-03 2.882411e-03 2.049016e-03 3.109292e-03 1.906969e-03 3.187613e-03 1.635863e-03 3.110475e-03 1.242631e-03 2.872022e-03 7.401417e-04 2.471177e-03 1.548521e-04 1.913552e-03 -4.726777e-04 1.211075e-03 -1.095947e-03 3.805950e-04 -1.676113e-03 -5.568088e-04 -2.194315e-03 -1.574289e-03 -2.655974e-03 -2.635765e-03 -3.083903e-03 -3.693157e-03 -3.502623e-03 -4.687661e-03 -3.921613e-03 -5.556351e-03 -4.326828e-03 -6.242203e-03 -4.684912e-03 -6.703972e-03 -4.955704e-03 -6.922059e-03 -5.104561e-03 -6.898506e-03 -5.108948e-03 -6.652081e-03 -4.958817e-03 -6.211193e-03 -4.653559e-03 
-6.860063e-03 -5.735479e-03 -6.126294e-03 -5.145018e-03 -5.376446e-03 -4.485594e-03 -4.600994e-03 -3.748151e-03 -3.786749e-03 -2.936054e-03 -2.923945e-03 -2.071461e-03 -2.014213e-03 -1.197510e-03 -1.077755e-03 -3.738979e-04 -1.563612e-04 3.343223e-04 6.912439e-04 8.708502e-04 1.401049e-03 1.197701e-03 1.915293e-03 1.294490e-03 2.188337e-03 1.150336e-03 2.188066e-03 7.574942e-04 1.897150e-03 1.136361e-04 1.315793e-03 -7.678058e-04 4.637036e-04 -1.846331e-03 -6.213611e-04 -3.050730e-03 -1.887780e-03 -4.287539e-03 -3.273818e-03 -5.458897e-03 -4.708909e-03 -6.481827e-03 -6.113126e-03 -7.301158e-03 -7.398545e-03 -7.892767e-03 -8.477099e-03 -8.258797e-03 -9.275897e-03 -8.419196e-03 -9.753895e-03 -8.403519e-03 -9.910171e-03 -8.244765e-03 -9.779656e-03 -7.975424e-03 -9.419917e-03 -7.624618e-03 -8.895707e-03 -7.215431e-03 -8.266339e-03 -6.762530e-03 -7.577902e-03 -6.270765e-03 
-6.260140e-03 -5.297573e-03 -5.628063e-03 -4.740956e-03 -4.852140e-03 -3.987118e-03 -3.957862e-03 -3.065682e-03 -2.977762e-03 -2.030719e-03 -1.954298e-03 -9.623568e-04 -9.381841e-04 4.288679e-05 1.825032e-05 8.936817e-04 8.703690e-04 1.529674e-03 1.589521e-03 1.937012e-03 2.166481e-03 2.142122e-03 2.606069e-03 2.187506e-03 2.915496e-03 2.105362e-03 3.094735e-03 1.905382e-03 3.135421e-03 1.582668e-03 3.027487e-03 1.138466e-03 2.766838e-03 5.985877e-04 2.357886e-03 1.661892e-05 1.810467e-03 -5.411114e-04 1.134445e-03 -1.022512e-03 3.359340e-04 -1.414655e-03 -5.801531e-04 -1.752458e-03 -1.600347e-03 -2.104086e-03 -2.691140e-03 -2.537264e-03 -3.794338e-03 -3.082596e-03 -4.833744e-03 -3.715562e-03 -5.730228e-03 -4.368320e-03 -6.419282e-03 -4.959023e-03 -6.862959e-03 -5.417843e-03 -7.051721e-03 -5.698602e-03 -6.997794e-03 -5.777240e-03 -6.725032e-03 -5.644202e-03 
-7.160020e-03 -6.542705e-03 -6.572543e-03 -6.058154e-03 -5.967691e-03 -5.453246e-03 -5.315331e-03 -4.700759e-03 -4.581199e-03 -3.793118e-03 -3.736377e-03 -2.754292e-03 -2.769470e-03 -1.645320e-03 -1.699737e-03 -5.577444e-04 -5.846917e-04 4.072185e-04 4.877696e-04 1.167411e-03 1.423998e-03 1.679115e-03 2.146550e-03 1.930935e-03 2.599535e-03 1.919457e-03 2.743643e-03 1.630134e-03 2.554335e-03 1.040062e-03 2.027404e-03 1.411841e-04 1.184627e-03 -1.032281e-03 7.112219e-05 -2.391705e-03 -1.254057e-03 -3.807536e-03 -2.725401e-03 -5.142510e-03 -4.271414e-03 -6.286689e-03 -5.808281e-03 -7.178107e-03 -7.234213e-03 -7.803729e-03 -8.436486e-03 -8.185950e-03 -9.316923e-03 -8.364933e-03 -9.823842e-03 -8.384894e-03 -9.966745e-03 -8.286355e-03 -9.805762e-03 -8.103847e-03 -9.426522e-03 -7.865091e-03 -8.915012e-03 -7.589034e-03 -8.340688e-03 -7.283057e-03 -7.748885e-03 -6.940899e-03 
-7.079788e-03 -6.606161e-03 -6.527994e-03 -6.073595e-03 -5.788931e-03 -5.250438e-03 -4.879498e-03 -4.159881e-03 -3.830572e-03 -2.866523e-03 -2.694027e-03 -1.485515e-03 -1.540700e-03 -1.700907e-04 -4.479650e-04 9.279505e-04 5.182627e-04 1.712011e-03 1.320321e-03 2.176207e-03 1.958400e-03 2.391763e-03 2.459669e-03 2.453304e-03 2.851617e-03 2.421377e-03 3.140272e-03 2.297591e-03 3.309110e-03 2.044375e-03 3.336001e-03 1.632753e-03 3.211137e-03 1.084612e-03 2.940835e-03 4.816953e-04 2.538387e-03 -6.271659e-05 2.010567e-03 -4.583086e-04 1.346009e-03 -6.894321e-04 5.179167e-04 -8.351446e-04 -4.943723e-04 -1.042713e-03 -1.676655e-03 -1.459769e-03 -2.964743e-03 -2.156026e-03 -4.254084e-03 -3.084620e-03 -5.425781e-03 -4.113862e-03 -6.380047e-03 -5.094205e-03 -7.058755e-03 -5.909062e-03 -7.447494e-03 -6.490176e-03 -7.562127e-03 -6.807099e-03 -7.430758e-03 -6.848217e-03 
-7.458481e-03 -7.436157e-03 -7.036163e-03 -7.091671e-03 -6.606600e-03 -6.568708e-03 -6.111752e-03 -5.808927e-03 -5.486706e-03 -4.781760e-03 -4.671122e-03 -3.507404e-03 -3.627480e-03 -2.071496e-03 -2.366675e-03 -6.185248e-04 -9.700080e-04 6.852421e-04 4.207755e-04 1.712518e-03 1.660552e-03 2.420179e-03 2.647033e-03 2.830320e-03 3.319206e-03 2.966167e-03 3.632453e-03 2.803563e-03 3.549340e-03 2.275647e-03 3.055303e-03 1.325195e-03 2.176627e-03 -3.205642e-05 9.753039e-04 -1.676378e-03 -4.744168e-04 -3.408717e-03 -2.102627e-03 -5.017306e-03 -3.843286e-03 -6.344621e-03 -5.614453e-03 -7.320951e-03 -7.293515e-03 -7.957920e-03 -8.717641e-03 -8.316027e-03 -9.731415e-03 -8.469463e-03 -1.025780e-02 -8.484748e-03 -1.032721e-02 -8.412026e-03 -1.005010e-02 -8.288625e-03 -9.565316e-03 -8.142871e-03 -8.997004e-03 -7.992450e-03 -8.432357e-03 -7.839584e-03 -7.916776e-03 -7.666872e-03 
-8.099900e-03 -8.204980e-03 -7.615021e-03 -7.696774e-03 -6.896256e-03 -6.781461e-03 -5.941182e-03 -5.457535e-03 -4.771778e-03 -3.790732e-03 -3.451117e-03 -1.943520e-03 -2.082605e-03 -1.655196e-04 -7.870789e-04 1.276812e-03 3.310398e-04 2.214821e-03 1.215481e-03 2.664305e-03 1.887042e-03 2.795238e-03 2.422125e-03 2.812072e-03 2.890423e-03 2.828732e-03 3.305261e-03 2.819081e-03 3.624960e-03 2.664881e-03 3.796985e-03 2.264189e-03 3.801562e-03 1.625777e-03 3.656157e-03 8.881990e-04 3.391452e-03 2.665635e-04 3.022984e-03 -5.884818e-05 2.519163e-03 -4.975761e-05 1.799872e-03 1.440431e-04 7.815843e-04 2.282566e-04 -5.561066e-04 -1.030285e-04 -2.133663e-03 -9.972550e-04 -3.792110e-03 -2.353277e-03 -5.339012e-03 -3.908483e-03 -6.616579e-03 -5.394866e-03 -7.544524e-03 -6.633826e-03 -8.117163e-03 -7.545617e-03 -8.372103e-03 -8.112377e-03 -8.355677e-03 -8.335027e-03 
-7.720748e-03 -8.443076e-03 -7.506958e-03 -8.303609e-03 -7.310998e-03 -7.921358e-03 -7.038924e-03 -7.185281e-03 -6.583503e-03 -6.018479e-03 -5.834459e-03 -4.422419e-03 -4.702541e-03 -2.514195e-03 -3.168725e-03 -5.290577e-04 -1.348548e-03 1.240525e-03 5.052861e-04 2.577305e-03 2.150257e-03 3.458226e-03 3.461110e-03 4.003205e-03 4.396909e-03 4.310707e-03 4.917172e-03 4.342320e-03 4.955713e-03 3.934553e-03 4.468900e-03 2.916996e-03 3.492051e-03 1.255660e-03 2.127829e-03 -8.733376e-04 4.830955e-04 -3.134297e-03 -1.368037e-03 -5.174056e-03 -3.385013e-03 -6.754093e-03 -5.512814e-03 -7.803342e-03 -7.607646e-03 -8.390574e-03 -9.408961e-03 -8.650051e-03 -1.063319e-02 -8.711715e-03 -1.114874e-02 -8.672717e-03 -1.103424e-02 -8.588745e-03 -1.050211e-02 -8.496020e-03 -9.787516e-03 -8.425329e-03 -9.075129e-03 -8.398101e-03 -8.474707e-03 -8.415611e-03 -8.027120e-03 -8.450467e-03 
-9.348438e-03 -1.018139e-02 -8.935493e-03 -9.726815e-03 -8.240021e-03 -8.721511e-03 -7.218174e-03 -7.099306e-03 -5.865875e-03 -4.896982e-03 -4.257402e-03 -2.333303e-03 -2.551471e-03 1.751553e-04 -9.473364e-04 2.131451e-03 3.790708e-04 3.207487e-03 1.324201e-03 3.471457e-03 1.951920e-03 3.312448e-03 2.450451e-03 3.169959e-03 2.981371e-03 3.261147e-03 3.564413e-03 3.484643e-03 4.088852e-03 3.532801e-03 4.427068e-03 3.134842e-03 4.543446e-03 2.266758e-03 4.491034e-03 1.178339e-03 4.347645e-03 2.988884e-04 4.169920e-03 5.621468e-06 3.906988e-03 4.050363e-04 3.380211e-03 1.232961e-03 2.376977e-03 1.915116e-03 8.050861e-04 1.816898e-03 -1.221027e-03 6.230400e-04 -3.441842e-03 -1.423338e-03 -5.522254e-03 -3.772340e-03 -7.203246e-03 -5.942948e-03 -8.385633e-03 -7.685411e-03 -9.104150e-03 -8.945561e-03 -9.452838e-03 -9.761157e-03 -9.519241e-03 -1.017390e-02 
-7.889999e-03 -9.581422e-03 -7.959634e-03 -9.758002e-03 -8.091673e-03 -9.628300e-03 -8.150370e-03 -8.993923e-03 -7.975509e-03 -7.686538e-03 -7.382001e-03 -5.650600e-03 -6.179388e-03 -3.032565e-03 -4.255511e-03 -2.215589e-04 -1.758889e-03 2.230234e-03 7.996162e-04 3.897923e-03 2.973831e-03 4.831076e-03 4.648845e-03 5.411956e-03 5.888170e-03 5.929670e-03 6.682418e-03 6.320263e-03 6.888431e-03 6.205057e-03 6.375197e-03 5.154956e-03 5.196623e-03 3.011733e-03 3.560383e-03 6.067208e-05 1.645404e-03 -3.082388e-03 -4.688514e-04 -5.791574e-03 -2.816412e-03 -7.695344e-03 -5.444148e-03 -8.748260e-03 -8.214979e-03 -9.150043e-03 -1.067688e-02 -9.180031e-03 -1.224342e-02 -9.053770e-03 -1.266989e-02 -8.906267e-03 -1.215915e-02 -8.775239e-03 -1.113659e-02 -8.681945e-03 -1.000732e-02 -8.664289e-03 -9.040961e-03 -8.758598e-03 -8.363832e-03 -8.973694e-03 -7.995821e-03 -9.275625e-03 
-1.083788e-02 -1.261875e-02 -1.053739e-02 -1.230674e-02 -9.909894e-03 -1.127876e-02 -8.827166e-03 -9.323466e-03 -7.219660e-03 -6.368294e-03 -5.164549e-03 -2.670374e-03 -2.918494e-03 1.069107e-03 -8.261150e-04 3.869918e-03 8.118687e-04 5.015006e-03 1.751182e-03 4.702404e-03 2.145316e-03 3.812514e-03 2.444887e-03 3.292180e-03 3.017451e-03 3.558221e-03 3.879418e-03 4.323915e-03 4.739431e-03 4.849106e-03 5.283163e-03 4.479521e-03 5.457482e-03 3.129091e-03 5.416671e-03 1.257780e-03 5.336390e-03 -2.566712e-04 5.400750e-03 -6.232220e-04 5.557485e-03 4.311887e-04 5.435571e-03 2.467963e-03 4.540910e-03 4.383460e-03 2.622778e-03 4.833362e-03 -1.118084e-04 3.095185e-03 -3.232706e-03 -1.922834e-04 -6.106826e-03 -3.815485e-03 -8.289650e-03 -6.919063e-03 -9.690540e-03 -9.218620e-03 -1.046019e-02 -1.078921e-02 -1.081482e-02 -1.181189e-02 -1.091886e-02 -1.241701e-02 