# vtk DataFile Version 2.0
Comment goes here
ASCII

DATASET STRUCTURED_POINTS
DIMENSIONS    64   64   1

ORIGIN    0.000   0.000   0.000
SPACING   0.0156250.015625   1.000

POINT_DATA   4096
SCALARS uY double
LOOKUP_TABLE default

-1.796126e-01 -1.698991e-01 -1.633877e-01 -1.560661e-01 -1.523643e-01 -1.477267e-01 -1.467756e-01 -1.451796e-01 -1.466403e-01 -1.485208e-01 -1.517156e-01 -1.575382e-01 -1.615047e-01 -1.714812e-01 -1.752496e-01 -1.886737e-01 -1.919742e-01 -2.067159e-01 -2.108847e-01 -2.236976e-01 -2.297157e-01 -2.406958e-01 -2.494932e-01 -2.606916e-01 -2.730001e-01 -2.859260e-01 -3.016020e-01 -3.164757e-01 -3.344053e-01 -3.501892e-01 -3.684873e-01 -3.834135e-01 -4.000610e-01 -4.124685e-01 -4.260053e-01 -4.349304e-01 -4.447324e-01 -4.499831e-01 -4.560843e-01 -4.579371e-01 -4.606206e-01 -4.593961e-01 -4.588098e-01 -4.545829e-01 -4.506110e-01 -4.432410e-01 -4.357069e-01 -4.251297e-01 -4.141281e-01 -4.006332e-01 -3.867114e-01 -3.709984e-01 -3.550922e-01 -3.381213e-01 -3.213431e-01 -3.041117e-01 -2.875260e-01 -2.708868e-01 -2.553651e-01 -2.399451e-01 -2.261270e-01 -2.123444e-01 -2.006769e-01 -1.888141e-01 
-1.850716e-01 -1.756011e-01 -1.688528e-01 -1.617994e-01 -1.577405e-01 -1.534183e-01 -1.520372e-01 -1.507870e-01 -1.518593e-01 -1.540142e-01 -1.570563e-01 -1.628347e-01 -1.671161e-01 -1.763638e-01 -1.810462e-01 -1.928595e-01 -1.974144e-01 -2.100727e-01 -2.149304e-01 -2.265448e-01 -2.327147e-01 -2.433498e-01 -2.517766e-01 -2.627786e-01 -2.740975e-01 -2.865193e-01 -3.006499e-01 -3.145924e-01 -3.306466e-01 -3.452493e-01 -3.617206e-01 -3.755744e-01 -3.908293e-01 -4.025859e-01 -4.153718e-01 -4.241754e-01 -4.338369e-01 -4.393958e-01 -4.457680e-01 -4.481553e-01 -4.512890e-01 -4.506527e-01 -4.505550e-01 -4.469221e-01 -4.434762e-01 -4.367717e-01 -4.298765e-01 -4.201178e-01 -4.099144e-01 -3.973994e-01 -3.843971e-01 -3.697463e-01 -3.547773e-01 -3.388295e-01 -3.228886e-01 -3.065349e-01 -2.906019e-01 -2.746416e-01 -2.595553e-01 -2.446216e-01 -2.310320e-01 -2.175914e-01 -2.059745e-01 -1.943740e-01 
-1.919993e-01 -1.828189e-01 -1.760166e-01 -1.691723e-01 -1.648697e-01 -1.606163e-01 -1.587310e-01 -1.573172e-01 -1.575722e-01 -1.592195e-01 -1.611479e-01 -1.659849e-01 -1.690214e-01 -1.769274e-01 -1.806187e-01 -1.909897e-01 -1.952968e-01 -2.069603e-01 -2.124023e-01 -2.240124e-01 -2.311169e-01 -2.424110e-01 -2.516356e-01 -2.632116e-01 -2.748229e-01 -2.872566e-01 -3.010592e-01 -3.143750e-01 -3.296107e-01 -3.431787e-01 -3.586511e-01 -3.714330e-01 -3.858476e-01 -3.968109e-01 -4.091276e-01 -4.175568e-01 -4.271504e-01 -4.327197e-01 -4.393196e-01 -4.419710e-01 -4.454804e-01 -4.452350e-01 -4.455619e-01 -4.423927e-01 -4.394061e-01 -4.332568e-01 -4.268915e-01 -4.178123e-01 -4.082319e-01 -3.965131e-01 -3.842019e-01 -3.704062e-01 -3.561336e-01 -3.410195e-01 -3.257121e-01 -3.101031e-01 -2.946940e-01 -2.793569e-01 -2.646703e-01 -2.502422e-01 -2.369371e-01 -2.239101e-01 -2.124756e-01 -2.012229e-01 
-1.955030e-01 -1.864616e-01 -1.794482e-01 -1.727555e-01 -1.682013e-01 -1.641065e-01 -1.619677e-01 -1.606840e-01 -1.607593e-01 -1.624295e-01 -1.643606e-01 -1.689846e-01 -1.723061e-01 -1.796228e-01 -1.838867e-01 -1.932649e-01 -1.982453e-01 -2.087424e-01 -2.146147e-01 -2.253455e-01 -2.325432e-01 -2.433234e-01 -2.522811e-01 -2.634851e-01 -2.744471e-01 -2.864283e-01 -2.992466e-01 -3.119456e-01 -3.260091e-01 -3.388758e-01 -3.532179e-01 -3.653946e-01 -3.789487e-01 -3.895691e-01 -4.014281e-01 -4.098461e-01 -4.193885e-01 -4.252406e-01 -4.321005e-01 -4.352306e-01 -4.391812e-01 -4.395136e-01 -4.403600e-01 -4.378165e-01 -4.353788e-01 -4.298965e-01 -4.240970e-01 -4.157283e-01 -4.067186e-01 -3.957326e-01 -3.839659e-01 -3.708764e-01 -3.570786e-01 -3.425883e-01 -3.276474e-01 -3.125400e-01 -2.973696e-01 -2.824019e-01 -2.678283e-01 -2.536563e-01 -2.403554e-01 -2.275077e-01 -2.159899e-01 -2.048802e-01 
-1.999366e-01 -1.910309e-01 -1.838660e-01 -1.772481e-01 -1.724247e-01 -1.682962e-01 -1.657309e-01 -1.642466e-01 -1.637246e-01 -1.649754e-01 -1.661805e-01 -1.701497e-01 -1.727403e-01 -1.792294e-01 -1.829584e-01 -1.915127e-01 -1.963477e-01 -2.062782e-01 -2.124128e-01 -2.230230e-01 -2.306965e-01 -2.416833e-01 -2.510836e-01 -2.625093e-01 -2.736772e-01 -2.856430e-01 -2.983481e-01 -3.107206e-01 -3.244112e-01 -3.367382e-01 -3.506137e-01 -3.622272e-01 -3.754110e-01 -3.856230e-01 -3.973397e-01 -4.056012e-01 -4.152658e-01 -4.212178e-01 -4.284189e-01 -4.318476e-01 -4.362714e-01 -4.370269e-01 -4.383946e-01 -4.363413e-01 -4.344157e-01 -4.294585e-01 -4.241304e-01 -4.162998e-01 -4.077014e-01 -3.972409e-01 -3.858106e-01 -3.732053e-01 -3.596605e-01 -3.455899e-01 -3.308199e-01 -3.160586e-01 -3.009882e-01 -2.862990e-01 -2.717711e-01 -2.578262e-01 -2.445316e-01 -2.318772e-01 -2.203306e-01 -2.093892e-01 
-2.015261e-01 -1.926360e-01 -1.852651e-01 -1.786856e-01 -1.736784e-01 -1.695926e-01 -1.668869e-01 -1.654128e-01 -1.648330e-01 -1.660058e-01 -1.672853e-01 -1.710197e-01 -1.738495e-01 -1.798931e-01 -1.840003e-01 -1.919111e-01 -1.971535e-01 -2.063631e-01 -2.127815e-01 -2.227759e-01 -2.305311e-01 -2.410699e-01 -2.503208e-01 -2.614001e-01 -2.721844e-01 -2.838121e-01 -2.959404e-01 -3.079416e-01 -3.209602e-01 -3.329197e-01 -3.461690e-01 -3.575082e-01 -3.702511e-01 -3.803705e-01 -3.919218e-01 -4.003171e-01 -4.101099e-01 -4.164124e-01 -4.239883e-01 -4.279346e-01 -4.328942e-01 -4.342700e-01 -4.362386e-01 -4.348488e-01 -4.335033e-01 -4.292030e-01 -4.243657e-01 -4.171411e-01 -4.088966e-01 -3.989501e-01 -3.877145e-01 -3.755007e-01 -3.619967e-01 -3.481849e-01 -3.333300e-01 -3.187077e-01 -3.034661e-01 -2.888261e-01 -2.740799e-01 -2.601319e-01 -2.466025e-01 -2.339287e-01 -2.221500e-01 -2.111997e-01 
-2.035617e-01 -1.946796e-01 -1.870992e-01 -1.805066e-01 -1.752445e-01 -1.710838e-01 -1.680489e-01 -1.663983e-01 -1.654103e-01 -1.662785e-01 -1.671039e-01 -1.704094e-01 -1.728148e-01 -1.783553e-01 -1.821710e-01 -1.896053e-01 -1.947729e-01 -2.036549e-01 -2.102191e-01 -2.201098e-01 -2.281438e-01 -2.387537e-01 -2.482917e-01 -2.594794e-01 -2.704503e-01 -2.820967e-01 -2.942632e-01 -3.061448e-01 -3.190834e-01 -3.308258e-01 -3.439684e-01 -3.550905e-01 -3.678115e-01 -3.778163e-01 -3.895172e-01 -3.979687e-01 -4.081172e-01 -4.146650e-01 -4.227806e-01 -4.271346e-01 -4.327498e-01 -4.346390e-01 -4.372835e-01 -4.364424e-01 -4.356906e-01 -4.319020e-01 -4.274886e-01 -4.206756e-01 -4.126336e-01 -4.029593e-01 -3.917036e-01 -3.796180e-01 -3.659167e-01 -3.521174e-01 -3.369595e-01 -3.222806e-01 -3.067018e-01 -2.919835e-01 -2.769187e-01 -2.629062e-01 -2.491036e-01 -2.363964e-01 -2.243904e-01 -2.134368e-01 
-2.031930e-01 -1.942041e-01 -1.864149e-01 -1.797654e-01 -1.743672e-01 -1.701712e-01 -1.670720e-01 -1.653707e-01 -1.644005e-01 -1.651608e-01 -1.661004e-01 -1.692016e-01 -1.718198e-01 -1.770387e-01 -1.811386e-01 -1.881519e-01 -1.936123e-01 -2.020392e-01 -2.088289e-01 -2.183151e-01 -2.264575e-01 -2.367553e-01 -2.462627e-01 -2.572172e-01 -2.680212e-01 -2.794789e-01 -2.913748e-01 -3.030952e-01 -3.157260e-01 -3.273526e-01 -3.402412e-01 -3.513378e-01 -3.639519e-01 -3.740715e-01 -3.858820e-01 -3.946220e-01 -4.051239e-01 -4.121391e-01 -4.208300e-01 -4.258053e-01 -4.321474e-01 -4.347600e-01 -4.381733e-01 -4.380829e-01 -4.380088e-01 -4.349086e-01 -4.309537e-01 -4.246773e-01 -4.167885e-01 -4.074333e-01 -3.960116e-01 -3.840084e-01 -3.698832e-01 -3.559638e-01 -3.402303e-01 -3.252991e-01 -3.091021e-01 -2.940776e-01 -2.784351e-01 -2.641270e-01 -2.498336e-01 -2.368829e-01 -2.244881e-01 -2.133603e-01 
-2.028233e-01 -1.937467e-01 -1.857273e-01 -1.790174e-01 -1.734074e-01 -1.691361e-01 -1.658112e-01 -1.639854e-01 -1.627651e-01 -1.633333e-01 -1.640151e-01 -1.668619e-01 -1.692564e-01 -1.741924e-01 -1.781559e-01 -1.849161e-01 -1.903680e-01 -1.986347e-01 -2.055460e-01 -2.149998e-01 -2.233536e-01 -2.337260e-01 -2.434727e-01 -2.545454e-01 -2.655604e-01 -2.771155e-01 -2.891695e-01 -3.009362e-01 -3.136903e-01 -3.253286e-01 -3.383624e-01 -3.494883e-01 -3.623444e-01 -3.725764e-01 -3.847941e-01 -3.937849e-01 -4.048982e-01 -4.123307e-01 -4.218283e-01 -4.273772e-01 -4.346534e-01 -4.379410e-01 -4.422875e-01 -4.428764e-01 -4.435646e-01 -4.410235e-01 -4.374941e-01 -4.315395e-01 -4.236420e-01 -4.143073e-01 -4.024605e-01 -3.901987e-01 -3.753534e-01 -3.609914e-01 -3.444098e-01 -3.289722e-01 -3.119489e-01 -2.964550e-01 -2.801042e-01 -2.654234e-01 -2.505774e-01 -2.373687e-01 -2.245687e-01 -2.132844e-01 
-2.003453e-01 -1.910566e-01 -1.828361e-01 -1.760026e-01 -1.703050e-01 -1.659572e-01 -1.626343e-01 -1.607385e-01 -1.595975e-01 -1.600665e-01 -1.608985e-01 -1.635912e-01 -1.661972e-01 -1.709160e-01 -1.751306e-01 -1.816267e-01 -1.873343e-01 -1.953296e-01 -2.024626e-01 -2.116851e-01 -2.201986e-01 -2.304099e-01 -2.402418e-01 -2.512273e-01 -2.622574e-01 -2.737882e-01 -2.858105e-01 -2.976077e-01 -3.103278e-01 -3.220575e-01 -3.351175e-01 -3.464177e-01 -3.594321e-01 -3.699535e-01 -3.825285e-01 -3.919571e-01 -4.036713e-01 -4.117127e-01 -4.220564e-01 -4.283827e-01 -4.366873e-01 -4.408764e-01 -4.462925e-01 -4.478092e-01 -4.493999e-01 -4.476673e-01 -4.446488e-01 -4.392253e-01 -4.312924e-01 -4.220992e-01 -4.096632e-01 -3.971395e-01 -3.812988e-01 -3.663676e-01 -3.486104e-01 -3.324516e-01 -3.142809e-01 -2.980616e-01 -2.807278e-01 -2.654186e-01 -2.498113e-01 -2.361178e-01 -2.227779e-01 -2.111566e-01 
-1.974358e-01 -1.880056e-01 -1.795797e-01 -1.726805e-01 -1.668468e-01 -1.624580e-01 -1.590234e-01 -1.570740e-01 -1.558246e-01 -1.562087e-01 -1.569376e-01 -1.595160e-01 -1.620446e-01 -1.666418e-01 -1.708340e-01 -1.772374e-01 -1.830009e-01 -1.909697e-01 -1.982423e-01 -2.075260e-01 -2.162471e-01 -2.265999e-01 -2.366791e-01 -2.478560e-01 -2.591453e-01 -2.708810e-01 -2.831619e-01 -2.951547e-01 -3.081455e-01 -3.200635e-01 -3.334463e-01 -3.449573e-01 -3.584095e-01 -3.692150e-01 -3.824162e-01 -3.922623e-01 -4.048523e-01 -4.134937e-01 -4.249794e-01 -4.321000e-01 -4.417457e-01 -4.468689e-01 -4.536455e-01 -4.560968e-01 -4.587839e-01 -4.577752e-01 -4.552806e-01 -4.501518e-01 -4.419808e-01 -4.325334e-01 -4.191453e-01 -4.058803e-01 -3.886292e-01 -3.726795e-01 -3.533792e-01 -3.361637e-01 -3.165811e-01 -2.994421e-01 -2.809725e-01 -2.649646e-01 -2.485336e-01 -2.343710e-01 -2.204841e-01 -2.085860e-01 
-1.925748e-01 -1.828637e-01 -1.742801e-01 -1.672315e-01 -1.613828e-01 -1.569166e-01 -1.535625e-01 -1.515595e-01 -1.504566e-01 -1.507756e-01 -1.516996e-01 -1.541818e-01 -1.569416e-01 -1.614092e-01 -1.658545e-01 -1.721110e-01 -1.781328e-01 -1.859677e-01 -1.934874e-01 -2.026844e-01 -2.116300e-01 -2.219692e-01 -2.322456e-01 -2.434917e-01 -2.549544e-01 -2.668379e-01 -2.792812e-01 -2.914900e-01 -3.046575e-01 -3.168522e-01 -3.304696e-01 -3.423223e-01 -3.561311e-01 -3.673674e-01 -3.811290e-01 -3.915395e-01 -4.049766e-01 -4.143709e-01 -4.270368e-01 -4.351352e-01 -4.462518e-01 -4.525527e-01 -4.609078e-01 -4.646094e-01 -4.686480e-01 -4.687258e-01 -4.669485e-01 -4.624570e-01 -4.540691e-01 -4.445987e-01 -4.300508e-01 -4.160827e-01 -3.970392e-01 -3.799159e-01 -3.586321e-01 -3.400790e-01 -3.186839e-01 -3.003001e-01 -2.803847e-01 -2.633689e-01 -2.459066e-01 -2.310143e-01 -2.164677e-01 -2.040928e-01 
-1.868560e-01 -1.770090e-01 -1.683089e-01 -1.612411e-01 -1.553768e-01 -1.509411e-01 -1.476111e-01 -1.456441e-01 -1.445727e-01 -1.449120e-01 -1.458668e-01 -1.483527e-01 -1.511522e-01 -1.556234e-01 -1.601364e-01 -1.664235e-01 -1.725603e-01 -1.804817e-01 -1.881750e-01 -1.975339e-01 -2.067120e-01 -2.172904e-01 -2.278494e-01 -2.393960e-01 -2.511782e-01 -2.633966e-01 -2.761866e-01 -2.887375e-01 -3.022830e-01 -3.148132e-01 -3.288681e-01 -3.410620e-01 -3.554315e-01 -3.670636e-01 -3.816096e-01 -3.925547e-01 -4.071160e-01 -4.172808e-01 -4.314911e-01 -4.406590e-01 -4.537036e-01 -4.613372e-01 -4.717636e-01 -4.768666e-01 -4.826437e-01 -4.838297e-01 -4.828637e-01 -4.787599e-01 -4.698571e-01 -4.597948e-01 -4.435126e-01 -4.281101e-01 -4.066398e-01 -3.876828e-01 -3.638969e-01 -3.435612e-01 -3.200232e-01 -3.001856e-01 -2.786706e-01 -2.606219e-01 -2.420998e-01 -2.265648e-01 -2.113980e-01 -1.986831e-01 
-1.792066e-01 -1.690743e-01 -1.603267e-01 -1.531431e-01 -1.473834e-01 -1.429181e-01 -1.397761e-01 -1.378069e-01 -1.369664e-01 -1.372942e-01 -1.385016e-01 -1.409512e-01 -1.440150e-01 -1.484284e-01 -1.532132e-01 -1.594406e-01 -1.658551e-01 -1.737459e-01 -1.817236e-01 -1.911154e-01 -2.005873e-01 -2.112903e-01 -2.221553e-01 -2.339319e-01 -2.460329e-01 -2.585817e-01 -2.717022e-01 -2.846621e-01 -2.985520e-01 -3.115393e-01 -3.259731e-01 -3.386521e-01 -3.534948e-01 -3.656539e-01 -3.808811e-01 -3.924622e-01 -4.080702e-01 -4.190954e-01 -4.348629e-01 -4.452338e-01 -4.603751e-01 -4.695898e-01 -4.824378e-01 -4.893506e-01 -4.973346e-01 -5.001708e-01 -5.004280e-01 -4.972780e-01 -4.879853e-01 -4.777543e-01 -4.594322e-01 -4.426749e-01 -4.181747e-01 -3.971338e-01 -3.701943e-01 -3.476494e-01 -3.214375e-01 -2.996923e-01 -2.762206e-01 -2.567442e-01 -2.369629e-01 -2.204788e-01 -2.046121e-01 -1.913371e-01 
-1.702811e-01 -1.601062e-01 -1.514231e-01 -1.443337e-01 -1.387402e-01 -1.344210e-01 -1.314714e-01 -1.296495e-01 -1.289885e-01 -1.294426e-01 -1.308050e-01 -1.333601e-01 -1.365615e-01 -1.410763e-01 -1.459998e-01 -1.523525e-01 -1.589294e-01 -1.670004e-01 -1.751852e-01 -1.848376e-01 -1.945761e-01 -2.056317e-01 -2.168276e-01 -2.290407e-01 -2.415308e-01 -2.545713e-01 -2.681228e-01 -2.815853e-01 -2.959319e-01 -3.093892e-01 -3.243118e-01 -3.374134e-01 -3.528397e-01 -3.654220e-01 -3.814756e-01 -3.936110e-01 -4.105118e-01 -4.224143e-01 -4.401660e-01 -4.519167e-01 -4.698134e-01 -4.809536e-01 -4.970593e-01 -5.062035e-01 -5.171613e-01 -5.219189e-01 -5.236739e-01 -5.212644e-01 -5.110749e-01 -4.997761e-01 -4.784118e-01 -4.590815e-01 -4.305212e-01 -4.063801e-01 -3.755441e-01 -3.502135e-01 -3.209420e-01 -2.971179e-01 -2.715852e-01 -2.507733e-01 -2.297962e-01 -2.125832e-01 -1.961516e-01 -1.825726e-01 
-1.593128e-01 -1.489532e-01 -1.404368e-01 -1.333484e-01 -1.280476e-01 -1.238056e-01 -1.211920e-01 -1.194552e-01 -1.191308e-01 -1.196426e-01 -1.213249e-01 -1.239002e-01 -1.274034e-01 -1.319126e-01 -1.371280e-01 -1.434770e-01 -1.503506e-01 -1.584598e-01 -1.669642e-01 -1.767409e-01 -1.868400e-01 -1.981449e-01 -2.097548e-01 -2.223637e-01 -2.353195e-01 -2.488952e-01 -2.629429e-01 -2.770374e-01 -2.918755e-01 -3.059906e-01 -3.213769e-01 -3.350929e-01 -3.509949e-01 -3.641332e-01 -3.808319e-01 -3.935591e-01 -4.115624e-01 -4.243131e-01 -4.439712e-01 -4.571135e-01 -4.779482e-01 -4.912222e-01 -5.111318e-01 -5.230347e-01 -5.378222e-01 -5.453321e-01 -5.494447e-01 -5.487303e-01 -5.380155e-01 -5.264613e-01 -5.015190e-01 -4.797237e-01 -4.460312e-01 -4.182941e-01 -3.825306e-01 -3.536953e-01 -3.206498e-01 -2.940787e-01 -2.660968e-01 -2.434391e-01 -2.211125e-01 -2.028210e-01 -1.858112e-01 -1.717030e-01 
-1.466937e-01 -1.365096e-01 -1.283622e-01 -1.215663e-01 -1.166898e-01 -1.127600e-01 -1.105459e-01 -1.090903e-01 -1.091051e-01 -1.098493e-01 -1.118037e-01 -1.145690e-01 -1.182894e-01 -1.229699e-01 -1.283723e-01 -1.349102e-01 -1.419726e-01 -1.503302e-01 -1.590605e-01 -1.691850e-01 -1.795794e-01 -1.913581e-01 -2.033536e-01 -2.165638e-01 -2.299943e-01 -2.442626e-01 -2.588415e-01 -2.736428e-01 -2.890099e-01 -3.037445e-01 -3.196079e-01 -3.337799e-01 -3.501407e-01 -3.635990e-01 -3.809430e-01 -3.940514e-01 -4.132920e-01 -4.268460e-01 -4.488497e-01 -4.636368e-01 -4.883244e-01 -5.043549e-01 -5.294944e-01 -5.450756e-01 -5.652615e-01 -5.763813e-01 -5.835963e-01 -5.846044e-01 -5.723666e-01 -5.589621e-01 -5.285462e-01 -5.020567e-01 -4.614883e-01 -4.285427e-01 -3.868113e-01 -3.537972e-01 -3.166113e-01 -2.873019e-01 -2.569292e-01 -2.327719e-01 -2.093471e-01 -1.904228e-01 -1.731306e-01 -1.589181e-01 
-1.317965e-01 -1.216866e-01 -1.140598e-01 -1.074913e-01 -1.031778e-01 -9.950006e-02 -9.781284e-02 -9.656547e-02 -9.703971e-02 -9.792027e-02 -1.002632e-01 -1.030942e-01 -1.071455e-01 -1.118443e-01 -1.175444e-01 -1.240949e-01 -1.314548e-01 -1.398754e-01 -1.489420e-01 -1.592437e-01 -1.700533e-01 -1.821847e-01 -1.947040e-01 -2.084832e-01 -2.225473e-01 -2.375982e-01 -2.528745e-01 -2.686017e-01 -2.846304e-01 -3.002928e-01 -3.166650e-01 -3.315952e-01 -3.482774e-01 -3.622259e-01 -3.798913e-01 -3.933261e-01 -4.133799e-01 -4.274815e-01 -4.515161e-01 -4.676815e-01 -4.963175e-01 -5.151495e-01 -5.463156e-01 -5.662384e-01 -5.933709e-01 -6.094020e-01 -6.215174e-01 -6.258527e-01 -6.131256e-01 -5.996248e-01 -5.625981e-01 -5.314518e-01 -4.818926e-01 -4.426246e-01 -3.932406e-01 -3.547669e-01 -3.125313e-01 -2.794956e-01 -2.464032e-01 -2.201163e-01 -1.955789e-01 -1.756643e-01 -1.582072e-01 -1.437010e-01 
-1.150011e-01 -1.054478e-01 -9.864246e-02 -9.266216e-02 -8.911114e-02 -8.596244e-02 -8.491753e-02 -8.410278e-02 -8.508259e-02 -8.629541e-02 -8.901543e-02 -9.209700e-02 -9.642057e-02 -1.013246e-01 -1.072276e-01 -1.139886e-01 -1.215284e-01 -1.302259e-01 -1.395047e-01 -1.502145e-01 -1.613270e-01 -1.740524e-01 -1.870128e-01 -2.015943e-01 -2.162506e-01 -2.322724e-01 -2.482385e-01 -2.649783e-01 -2.816582e-01 -2.981654e-01 -3.149697e-01 -3.303618e-01 -3.471736e-01 -3.611417e-01 -3.788663e-01 -3.921472e-01 -4.128682e-01 -4.272767e-01 -4.536231e-01 -4.714226e-01 -5.051447e-01 -5.277474e-01 -5.673242e-01 -5.933628e-01 -6.307733e-01 -6.539325e-01 -6.730803e-01 -6.818114e-01 -6.662786e-01 -6.494061e-01 -6.019353e-01 -5.616315e-01 -5.000654e-01 -4.519401e-01 -3.935874e-01 -3.491403e-01 -3.017543e-01 -2.655280e-01 -2.301695e-01 -2.025932e-01 -1.775315e-01 -1.574193e-01 -1.403300e-01 -1.261677e-01 
-9.560552e-02 -8.660010e-02 -8.082752e-02 -7.542921e-02 -7.279043e-02 -7.013733e-02 -6.984140e-02 -6.938587e-02 -7.095150e-02 -7.237848e-02 -7.554248e-02 -7.871162e-02 -8.337074e-02 -8.827541e-02 -9.444875e-02 -1.011828e-01 -1.089818e-01 -1.177030e-01 -1.272952e-01 -1.381741e-01 -1.497268e-01 -1.628674e-01 -1.764598e-01 -1.917869e-01 -2.072909e-01 -2.244131e-01 -2.413770e-01 -2.594785e-01 -2.771070e-01 -2.949831e-01 -3.123760e-01 -3.287685e-01 -3.455595e-01 -3.598478e-01 -3.770786e-01 -3.900351e-01 -4.105560e-01 -4.245994e-01 -4.524078e-01 -4.709723e-01 -5.095037e-01 -5.354481e-01 -5.844402e-01 -6.173733e-01 -6.678045e-01 -7.002106e-01 -7.301385e-01 -7.456687e-01 -7.304200e-01 -7.146939e-01 -6.538476e-01 -6.037988e-01 -5.256703e-01 -4.659994e-01 -3.959921e-01 -3.432774e-01 -2.898260e-01 -2.490350e-01 -2.114038e-01 -1.818711e-01 -1.565918e-01 -1.360194e-01 -1.196414e-01 -1.057490e-01 
-7.433926e-02 -6.645196e-02 -6.209587e-02 -5.767230e-02 -5.619509e-02 -5.432510e-02 -5.493071e-02 -5.506326e-02 -5.729254e-02 -5.913289e-02 -6.275513e-02 -6.619932e-02 -7.115012e-02 -7.624318e-02 -8.258932e-02 -8.949399e-02 -9.740890e-02 -1.063707e-01 -1.161030e-01 -1.273957e-01 -1.392109e-01 -1.530434e-01 -1.671195e-01 -1.834896e-01 -1.997559e-01 -2.182548e-01 -2.362029e-01 -2.558322e-01 -2.744141e-01 -2.935759e-01 -3.114395e-01 -3.283596e-01 -3.447194e-01 -3.584584e-01 -3.744836e-01 -3.861169e-01 -4.056993e-01 -4.186832e-01 -4.476478e-01 -4.670149e-01 -5.113327e-01 -5.418328e-01 -6.038871e-01 -6.466935e-01 -7.173679e-01 -7.641934e-01 -8.116386e-01 -8.392799e-01 -8.178229e-01 -7.951975e-01 -7.128837e-01 -6.430968e-01 -5.432062e-01 -4.684774e-01 -3.856866e-01 -3.253309e-01 -2.666370e-01 -2.230941e-01 -1.844606e-01 -1.546599e-01 -1.302799e-01 -1.104950e-01 -9.565787e-02 -8.288574e-02 
-5.015533e-02 -4.353385e-02 -4.085323e-02 -3.748712e-02 -3.731418e-02 -3.623362e-02 -3.781017e-02 -3.846180e-02 -4.138191e-02 -4.349585e-02 -4.758406e-02 -5.109804e-02 -5.634581e-02 -6.136255e-02 -6.789776e-02 -7.465756e-02 -8.272787e-02 -9.157985e-02 -1.015297e-01 -1.128825e-01 -1.250982e-01 -1.393249e-01 -1.541168e-01 -1.713851e-01 -1.887785e-01 -2.087897e-01 -2.282349e-01 -2.499163e-01 -2.700446e-01 -2.913916e-01 -3.101734e-01 -3.286471e-01 -3.445073e-01 -3.583611e-01 -3.723089e-01 -3.823643e-01 -3.993653e-01 -4.099000e-01 -4.380842e-01 -4.561426e-01 -5.049092e-01 -5.382816e-01 -6.141898e-01 -6.676185e-01 -7.632182e-01 -8.284933e-01 -9.007903e-01 -9.419088e-01 -9.246842e-01 -9.094753e-01 -7.966109e-01 -7.029792e-01 -5.708788e-01 -4.744157e-01 -3.752188e-01 -3.033879e-01 -2.393722e-01 -1.915201e-01 -1.527903e-01 -1.223159e-01 -9.974060e-02 -8.079031e-02 -6.815911e-02 -5.667287e-02 
-2.460306e-02 -1.980234e-02 -1.920699e-02 -1.725048e-02 -1.864277e-02 -1.860288e-02 -2.131779e-02 -2.269272e-02 -2.640186e-02 -2.897393e-02 -3.356267e-02 -3.732451e-02 -4.283570e-02 -4.795507e-02 -5.457094e-02 -6.137380e-02 -6.941509e-02 -7.836791e-02 -8.828749e-02 -9.995503e-02 -1.122939e-01 -1.272376e-01 -1.424977e-01 -1.610677e-01 -1.794490e-01 -2.014265e-01 -2.224009e-01 -2.465198e-01 -2.683541e-01 -2.919444e-01 -3.116552e-01 -3.310411e-01 -3.457836e-01 -3.582173e-01 -3.686521e-01 -3.751794e-01 -3.878063e-01 -3.943169e-01 -4.199788e-01 -4.361052e-01 -4.887749e-01 -5.258858e-01 -6.197249e-01 -6.875133e-01 -8.232120e-01 -9.171139e-01 -1.037940e+00 -1.115248e+00 -1.080275e+00 -1.048622e+00 -8.886013e-01 -7.472264e-01 -5.742435e-01 -4.538870e-01 -3.393484e-01 -2.607572e-01 -1.946574e-01 -1.468968e-01 -1.107622e-01 -8.246468e-02 -6.347386e-02 -4.701620e-02 -3.768441e-02 -2.842854e-02 
3.999249e-03 6.626584e-03 4.885923e-03 5.248988e-03 2.198378e-03 1.152140e-03 -2.702374e-03 -4.731677e-03 -9.181340e-03 -1.204486e-02 -1.706561e-02 -2.082183e-02 -2.653028e-02 -3.141875e-02 -3.806817e-02 -4.450460e-02 -5.250176e-02 -6.107618e-02 -7.099694e-02 -8.245158e-02 -9.501883e-02 -1.101662e-01 -1.261296e-01 -1.456419e-01 -1.654698e-01 -1.894475e-01 -2.127379e-01 -2.400070e-01 -2.646626e-01 -2.920192e-01 -3.137684e-01 -3.360661e-01 -3.499897e-01 -3.625862e-01 -3.682798e-01 -3.711627e-01 -3.765147e-01 -3.764942e-01 -3.957252e-01 -4.054398e-01 -4.581586e-01 -4.941080e-01 -6.049767e-01 -6.870673e-01 -8.710496e-01 -1.005505e+00 -1.184359e+00 -1.281574e+00 -1.268400e+00 -1.275472e+00 -1.036575e+00 -8.254963e-01 -5.871732e-01 -4.267037e-01 -2.950627e-01 -2.046874e-01 -1.397100e-01 -9.137802e-02 -6.064065e-02 -3.507253e-02 -2.141483e-02 -8.144450e-03 -3.095034e-03 3.386019e-03 
3.281865e-02 3.292044e-02 2.851427e-02 2.707458e-02 2.214923e-02 1.985598e-02 1.470441e-02 1.186859e-02 6.565580e-03 3.253957e-03 -2.258091e-03 -6.169944e-03 -1.205930e-02 -1.687891e-02 -2.344396e-02 -2.967835e-02 -3.739335e-02 -4.577247e-02 -5.533825e-02 -6.682007e-02 -7.917921e-02 -9.488680e-02 -1.111277e-01 -1.321215e-01 -1.531398e-01 -1.798696e-01 -2.055947e-01 -2.368798e-01 -2.649429e-01 -2.966389e-01 -3.210448e-01 -3.456403e-01 -3.581148e-01 -3.681955e-01 -3.665339e-01 -3.620808e-01 -3.568977e-01 -3.473284e-01 -3.558127e-01 -3.573682e-01 -4.048037e-01 -4.390399e-01 -5.658114e-01 -6.639894e-01 -9.233010e-01 -1.107823e+00 -1.433499e+00 -1.640890e+00 -1.560263e+00 -1.526104e+00 -1.188119e+00 -8.513958e-01 -5.327097e-01 -3.444252e-01 -2.048636e-01 -1.179914e-01 -6.222409e-02 -2.141238e-02 -5.085628e-04 1.870115e-02 2.482191e-02 3.332230e-02 3.299563e-02 3.598905e-02 
6.436613e-02 6.140560e-02 5.420222e-02 5.070424e-02 4.392594e-02 4.032468e-02 3.398474e-02 3.042770e-02 2.442523e-02 2.086996e-02 1.503377e-02 1.127466e-02 5.358938e-03 1.014594e-03 -5.342399e-03 -1.086517e-02 -1.821363e-02 -2.576824e-02 -3.493708e-02 -4.568222e-02 -5.785021e-02 -7.324951e-02 -8.991258e-02 -1.115764e-01 -1.342332e-01 -1.633642e-01 -1.925850e-01 -2.286591e-01 -2.621031e-01 -3.006185e-01 -3.302582e-01 -3.610090e-01 -3.734140e-01 -3.847526e-01 -3.742873e-01 -3.632272e-01 -3.426836e-01 -3.195881e-01 -3.104465e-01 -2.957107e-01 -3.291359e-01 -3.495413e-01 -4.865983e-01 -5.967942e-01 -9.571719e-01 -1.252064e+00 -1.689165e+00 -1.847328e+00 -1.853234e+00 -2.028892e+00 -1.495245e+00 -9.368843e-01 -4.802616e-01 -2.233271e-01 -8.654424e-02 -6.412344e-04 3.516272e-02 6.545738e-02 7.126617e-02 8.154510e-02 7.782112e-02 7.990651e-02 7.320168e-02 7.173727e-02 
9.437132e-02 8.841732e-02 7.829869e-02 7.277065e-02 6.402252e-02 5.908262e-02 5.142152e-02 4.705651e-02 4.021833e-02 3.629076e-02 3.002419e-02 2.626954e-02 2.030043e-02 1.628774e-02 1.024731e-02 5.311804e-03 -1.376811e-03 -8.223789e-03 -1.649376e-02 -2.666723e-02 -3.795782e-02 -5.337261e-02 -6.969560e-02 -9.267487e-02 -1.163932e-01 -1.490781e-01 -1.819065e-01 -2.245292e-01 -2.647902e-01 -3.121106e-01 -3.494739e-01 -3.866680e-01 -3.991074e-01 -4.068255e-01 -3.824590e-01 -3.576810e-01 -3.174798e-01 -2.758877e-01 -2.423858e-01 -2.092776e-01 -2.150001e-01 -2.229444e-01 -3.502119e-01 -4.835979e-01 -9.705067e-01 -1.325956e+00 -2.194366e+00 -2.609718e+00 -2.262168e+00 -2.314015e+00 -1.746108e+00 -9.530919e-01 -3.041436e-01 -3.384078e-02 8.198360e-02 1.421626e-01 1.467781e-01 1.591439e-01 1.456779e-01 1.452212e-01 1.302380e-01 1.255964e-01 1.120281e-01 1.061359e-01 
1.260681e-01 1.165511e-01 1.036351e-01 9.583621e-02 8.532094e-02 7.901395e-02 7.029173e-02 6.524762e-02 5.786483e-02 5.382248e-02 4.741740e-02 4.403636e-02 3.827535e-02 3.506841e-02 2.955373e-02 2.579855e-02 1.992685e-02 1.455134e-02 7.312068e-03 -1.260709e-03 -1.153438e-02 -2.558140e-02 -4.144513e-02 -6.407770e-02 -8.898991e-02 -1.238420e-01 -1.613224e-01 -2.107644e-01 -2.609903e-01 -3.208902e-01 -3.718066e-01 -4.225688e-01 -4.391060e-01 -4.520662e-01 -4.126834e-01 -3.774941e-01 -3.096366e-01 -2.438485e-01 -1.765962e-01 -1.152552e-01 -7.973915e-02 -5.823814e-02 -1.698918e-01 -3.226791e-01 -1.142173e+00 -1.950312e+00 -2.638159e+00 -2.368965e+00 -2.204357e+00 -2.797557e+00 -2.350580e+00 -1.401241e+00 -2.712469e-01 2.017812e-01 2.845722e-01 3.199953e-01 2.819213e-01 2.679129e-01 2.313741e-01 2.154669e-01 1.881314e-01 1.744425e-01 1.537176e-01 1.422421e-01 
1.543466e-01 1.418363e-01 1.262916e-01 1.165061e-01 1.042238e-01 9.664686e-02 8.674302e-02 8.098427e-02 7.286365e-02 6.858348e-02 6.183719e-02 5.866997e-02 5.298978e-02 5.044854e-02 4.550864e-02 4.286115e-02 3.813037e-02 3.423181e-02 2.869452e-02 2.174457e-02 1.353065e-02 7.243064e-04 -1.332600e-02 -3.618375e-02 -6.090648e-02 -9.940743e-02 -1.410428e-01 -2.003947e-01 -2.631436e-01 -3.409481e-01 -4.130696e-01 -4.819254e-01 -5.061108e-01 -5.142770e-01 -4.465339e-01 -3.861583e-01 -2.887398e-01 -1.915659e-01 -8.763416e-02 -1.899574e-06 8.527998e-02 9.938550e-02 -3.692387e-03 -4.553807e-01 -1.799003e+00 -2.191976e+00 -2.302741e+00 -2.197977e+00 -2.126761e+00 -2.428018e+00 -2.516322e+00 -2.362110e+00 -7.832204e-01 1.923928e-01 3.544041e-01 4.395675e-01 3.802546e-01 3.571238e-01 3.021473e-01 2.761194e-01 2.380938e-01 2.175647e-01 1.904942e-01 1.745187e-01 
1.825569e-01 1.667122e-01 1.489542e-01 1.370736e-01 1.234346e-01 1.146474e-01 1.039995e-01 9.772753e-02 8.932783e-02 8.513758e-02 7.849807e-02 7.598128e-02 7.077273e-02 6.942482e-02 6.535498e-02 6.443965e-02 6.105349e-02 5.943506e-02 5.578844e-02 5.166332e-02 4.582942e-02 3.622713e-02 2.459064e-02 4.545574e-03 -1.918548e-02 -5.761178e-02 -1.033452e-01 -1.707077e-01 -2.498649e-01 -3.508843e-01 -4.574634e-01 -5.558025e-01 -5.972665e-01 -6.215853e-01 -5.268548e-01 -4.512397e-01 -3.079861e-01 -1.683148e-01 -2.236417e-02 8.937869e-02 2.241024e-01 1.879034e-01 9.327577e-02 -8.458883e-01 -2.254356e+00 -2.051427e+00 -2.268720e+00 -2.492152e+00 -2.547648e+00 -2.282102e+00 -2.187827e+00 -2.382979e+00 -9.703833e-01 4.348806e-02 3.800003e-01 5.054545e-01 4.711960e-01 4.359841e-01 3.735513e-01 3.345773e-01 2.886960e-01 2.598229e-01 2.274073e-01 2.061962e-01 
2.062236e-01 1.878932e-01 1.683033e-01 1.547703e-01 1.398437e-01 1.300171e-01 1.184689e-01 1.116543e-01 1.026618e-01 9.839310e-02 9.147570e-02 8.938083e-02 8.431430e-02 8.397459e-02 8.066395e-02 8.144827e-02 7.968717e-02 8.053791e-02 7.959592e-02 7.867075e-02 7.666918e-02 7.062934e-02 6.360208e-02 4.628904e-02 2.652781e-02 -1.313871e-02 -6.007304e-02 -1.397931e-01 -2.375465e-01 -3.737057e-01 -5.354555e-01 -6.834541e-01 -7.596611e-01 -7.754711e-01 -6.067413e-01 -4.826123e-01 -3.068226e-01 -1.151194e-01 6.119096e-02 2.013831e-01 3.634517e-01 3.142573e-01 2.078941e-01 -8.920658e-01 -2.290496e+00 -2.261579e+00 -2.533409e+00 -2.170342e+00 -2.257942e+00 -2.497720e+00 -2.448233e+00 -2.384224e+00 -1.117937e+00 -2.215470e-01 2.787996e-01 4.833678e-01 5.031255e-01 4.790671e-01 4.207795e-01 3.768789e-01 3.272921e-01 2.932859e-01 2.573319e-01 2.324597e-01 
2.277661e-01 2.070110e-01 1.861935e-01 1.710990e-01 1.554709e-01 1.447800e-01 1.329527e-01 1.258857e-01 1.169591e-01 1.130276e-01 1.064830e-01 1.053317e-01 1.009660e-01 1.022092e-01 1.000362e-01 1.030934e-01 1.031326e-01 1.070729e-01 1.089330e-01 1.122091e-01 1.143740e-01 1.140793e-01 1.127384e-01 1.027839e-01 8.936944e-02 5.643010e-02 1.164797e-02 -7.269657e-02 -1.903861e-01 -3.711099e-01 -6.183321e-01 -8.190742e-01 -9.421600e-01 -1.003789e+00 -7.826297e-01 -6.427239e-01 -3.815856e-01 -8.805063e-02 1.085126e-01 2.763355e-01 4.156393e-01 3.403509e-01 1.075643e-01 -9.588578e-01 -2.286558e+00 -2.300736e+00 -2.308948e+00 -2.147933e+00 -2.472138e+00 -2.305316e+00 -2.146107e+00 -2.392615e+00 -1.351624e+00 -4.226711e-01 1.607909e-01 4.411189e-01 5.127332e-01 5.074322e-01 4.580628e-01 4.120276e-01 3.610350e-01 3.225658e-01 2.842328e-01 2.558540e-01 
2.448332e-01 2.224796e-01 2.008553e-01 1.846697e-01 1.683909e-01 1.570101e-01 1.446444e-01 1.372405e-01 1.278590e-01 1.239715e-01 1.171059e-01 1.164959e-01 1.121329e-01 1.146170e-01 1.131343e-01 1.184000e-01 1.203287e-01 1.277621e-01 1.332656e-01 1.416599e-01 1.497100e-01 1.563603e-01 1.635290e-01 1.618218e-01 1.594285e-01 1.324597e-01 9.714858e-02 2.048057e-03 -1.317445e-01 -3.809853e-01 -7.565708e-01 -1.066104e+00 -1.300839e+00 -1.342494e+00 -8.972020e-01 -6.742725e-01 -4.175582e-01 -2.703737e-02 1.781467e-01 3.520901e-01 4.511932e-01 3.643024e-01 4.774476e-03 -8.652587e-01 -1.900671e+00 -2.395236e+00 -2.532220e+00 -2.143186e+00 -2.409360e+00 -2.425752e+00 -2.206280e+00 -2.156108e+00 -1.318510e+00 -5.109700e-01 9.314602e-02 3.913198e-01 5.065713e-01 5.153544e-01 4.794728e-01 4.336408e-01 3.844262e-01 3.434337e-01 3.044435e-01 2.738522e-01 