# vtk DataFile Version 2.0
Comment goes here
ASCII

DATASET STRUCTURED_POINTS
DIMENSIONS    64   64   1

ORIGIN    0.000   0.000   0.000
SPACING   0.0156250.015625   1.000

POINT_DATA   4096
SCALARS uY double
LOOKUP_TABLE default

-5.821747e-02 -5.373349e-02 -4.909500e-02 -4.652033e-02 -4.419306e-02 -4.343220e-02 -4.328041e-02 -4.411549e-02 -4.573926e-02 -4.762637e-02 -5.018747e-02 -5.232980e-02 -5.482674e-02 -5.688160e-02 -5.890152e-02 -6.187185e-02 -6.406854e-02 -7.004762e-02 -7.315993e-02 -8.196915e-02 -8.609159e-02 -9.596790e-02 -1.017960e-01 -1.128184e-01 -1.220895e-01 -1.357585e-01 -1.496268e-01 -1.661619e-01 -1.834472e-01 -2.005179e-01 -2.179855e-01 -2.321609e-01 -2.466839e-01 -2.557878e-01 -2.660119e-01 -2.699946e-01 -2.763813e-01 -2.767494e-01 -2.808288e-01 -2.796410e-01 -2.829197e-01 -2.815253e-01 -2.842426e-01 -2.822825e-01 -2.829714e-01 -2.787137e-01 -2.753120e-01 -2.672629e-01 -2.587589e-01 -2.468729e-01 -2.338543e-01 -2.193540e-01 -2.034473e-01 -1.880337e-01 -1.711740e-01 -1.564020e-01 -1.402584e-01 -1.271692e-01 -1.128330e-01 -1.019081e-01 -8.991256e-02 -8.124544e-02 -7.174900e-02 -6.524408e-02 
-6.696212e-02 -6.259010e-02 -5.803400e-02 -5.542876e-02 -5.295995e-02 -5.200828e-02 -5.144129e-02 -5.191869e-02 -5.284337e-02 -5.431014e-02 -5.603077e-02 -5.793340e-02 -5.973746e-02 -6.189220e-02 -6.361817e-02 -6.673956e-02 -6.903570e-02 -7.446905e-02 -7.798849e-02 -8.581229e-02 -9.070798e-02 -9.999297e-02 -1.065941e-01 -1.172823e-01 -1.265699e-01 -1.393370e-01 -1.519210e-01 -1.666248e-01 -1.816102e-01 -1.965138e-01 -2.116469e-01 -2.242848e-01 -2.372897e-01 -2.459682e-01 -2.556817e-01 -2.601728e-01 -2.667191e-01 -2.679806e-01 -2.722996e-01 -2.717346e-01 -2.747801e-01 -2.733220e-01 -2.752129e-01 -2.726764e-01 -2.724354e-01 -2.677568e-01 -2.640357e-01 -2.563038e-01 -2.484544e-01 -2.377092e-01 -2.261911e-01 -2.133532e-01 -1.994008e-01 -1.857645e-01 -1.708838e-01 -1.576746e-01 -1.432245e-01 -1.313241e-01 -1.182691e-01 -1.081530e-01 -9.703729e-02 -8.886984e-02 -7.992340e-02 -7.369345e-02 
-7.458122e-02 -7.023643e-02 -6.563713e-02 -6.293043e-02 -6.022485e-02 -5.905425e-02 -5.808964e-02 -5.826759e-02 -5.873315e-02 -5.994976e-02 -6.136514e-02 -6.329479e-02 -6.518613e-02 -6.779596e-02 -6.999858e-02 -7.378201e-02 -7.654075e-02 -8.219677e-02 -8.584021e-02 -9.332686e-02 -9.808957e-02 -1.068634e-01 -1.132093e-01 -1.232010e-01 -1.318273e-01 -1.433118e-01 -1.544901e-01 -1.671754e-01 -1.801260e-01 -1.927159e-01 -2.057687e-01 -2.165246e-01 -2.279994e-01 -2.357001e-01 -2.446718e-01 -2.490859e-01 -2.555231e-01 -2.572391e-01 -2.616757e-01 -2.615963e-01 -2.645756e-01 -2.633005e-01 -2.648280e-01 -2.622424e-01 -2.616423e-01 -2.570794e-01 -2.534662e-01 -2.463633e-01 -2.393304e-01 -2.297583e-01 -2.196699e-01 -2.083265e-01 -1.961274e-01 -1.840154e-01 -1.708884e-01 -1.589983e-01 -1.460570e-01 -1.351540e-01 -1.232455e-01 -1.137981e-01 -1.034558e-01 -9.568117e-02 -8.718083e-02 -8.113447e-02 
-8.138886e-02 -7.717320e-02 -7.266225e-02 -6.995584e-02 -6.715231e-02 -6.586279e-02 -6.461399e-02 -6.457704e-02 -6.460374e-02 -6.557713e-02 -6.649812e-02 -6.825304e-02 -6.973895e-02 -7.226497e-02 -7.425677e-02 -7.789550e-02 -8.064746e-02 -8.587453e-02 -8.968752e-02 -9.655536e-02 -1.016215e-01 -1.098377e-01 -1.164036e-01 -1.258470e-01 -1.342604e-01 -1.449284e-01 -1.552434e-01 -1.667425e-01 -1.783266e-01 -1.896249e-01 -2.012530e-01 -2.110354e-01 -2.214426e-01 -2.287330e-01 -2.371354e-01 -2.416484e-01 -2.478859e-01 -2.499509e-01 -2.542886e-01 -2.544976e-01 -2.572396e-01 -2.560099e-01 -2.571265e-01 -2.544237e-01 -2.534606e-01 -2.489050e-01 -2.452918e-01 -2.385792e-01 -2.320817e-01 -2.233339e-01 -2.142641e-01 -2.040434e-01 -1.931513e-01 -1.822541e-01 -1.704914e-01 -1.597235e-01 -1.480165e-01 -1.380314e-01 -1.271230e-01 -1.183559e-01 -1.087519e-01 -1.014376e-01 -9.343092e-02 -8.766230e-02 
-8.729771e-02 -8.315634e-02 -7.865803e-02 -7.592169e-02 -7.298943e-02 -7.159271e-02 -7.011910e-02 -6.994198e-02 -6.972524e-02 -7.060458e-02 -7.137494e-02 -7.317551e-02 -7.469229e-02 -7.742783e-02 -7.960101e-02 -8.347983e-02 -8.639650e-02 -9.165426e-02 -9.547495e-02 -1.020890e-01 -1.069896e-01 -1.147460e-01 -1.209685e-01 -1.297276e-01 -1.375069e-01 -1.471504e-01 -1.564425e-01 -1.665752e-01 -1.768381e-01 -1.866583e-01 -1.969468e-01 -2.054853e-01 -2.148274e-01 -2.213522e-01 -2.291036e-01 -2.333560e-01 -2.393056e-01 -2.414558e-01 -2.456920e-01 -2.461027e-01 -2.487531e-01 -2.476877e-01 -2.486780e-01 -2.461209e-01 -2.451247e-01 -2.408522e-01 -2.374951e-01 -2.313457e-01 -2.254998e-01 -2.176082e-01 -2.095403e-01 -2.003609e-01 -1.906722e-01 -1.808478e-01 -1.703112e-01 -1.605116e-01 -1.499028e-01 -1.406987e-01 -1.306707e-01 -1.224721e-01 -1.135007e-01 -1.065575e-01 -9.894624e-02 -9.338361e-02 
-9.250544e-02 -8.848987e-02 -8.407961e-02 -8.136384e-02 -7.837693e-02 -7.691106e-02 -7.525571e-02 -7.494323e-02 -7.445253e-02 -7.516804e-02 -7.563519e-02 -7.728033e-02 -7.853982e-02 -8.112388e-02 -8.313807e-02 -8.680297e-02 -8.966933e-02 -9.457998e-02 -9.843977e-02 -1.046035e-01 -1.095785e-01 -1.168543e-01 -1.230604e-01 -1.312905e-01 -1.388018e-01 -1.477850e-01 -1.564736e-01 -1.658035e-01 -1.752065e-01 -1.842104e-01 -1.935913e-01 -2.014920e-01 -2.100847e-01 -2.162713e-01 -2.235225e-01 -2.277237e-01 -2.333831e-01 -2.356520e-01 -2.396958e-01 -2.402508e-01 -2.427068e-01 -2.417280e-01 -2.425135e-01 -2.400185e-01 -2.389079e-01 -2.347950e-01 -2.315533e-01 -2.257751e-01 -2.203541e-01 -2.130711e-01 -2.057140e-01 -1.973170e-01 -1.885241e-01 -1.795479e-01 -1.699629e-01 -1.609710e-01 -1.512541e-01 -1.427418e-01 -1.334693e-01 -1.258117e-01 -1.174244e-01 -1.108683e-01 -1.036650e-01 -9.834961e-02 
-9.700874e-02 -9.308682e-02 -8.871112e-02 -8.600989e-02 -8.295731e-02 -8.145259e-02 -7.966955e-02 -7.929891e-02 -7.866974e-02 -7.935119e-02 -7.972601e-02 -8.139752e-02 -8.264478e-02 -8.530971e-02 -8.736909e-02 -9.109805e-02 -9.399194e-02 -9.884721e-02 -1.026459e-01 -1.085843e-01 -1.133757e-01 -1.202578e-01 -1.261317e-01 -1.337878e-01 -1.407738e-01 -1.489802e-01 -1.569321e-01 -1.653175e-01 -1.738374e-01 -1.818584e-01 -1.903536e-01 -1.974079e-01 -2.052619e-01 -2.108687e-01 -2.176107e-01 -2.215279e-01 -2.268988e-01 -2.291158e-01 -2.330200e-01 -2.336522e-01 -2.360427e-01 -2.351967e-01 -2.359712e-01 -2.336638e-01 -2.326487e-01 -2.288350e-01 -2.258754e-01 -2.205620e-01 -2.156523e-01 -2.089998e-01 -2.023569e-01 -1.946991e-01 -1.867423e-01 -1.785297e-01 -1.698007e-01 -1.615158e-01 -1.525823e-01 -1.446643e-01 -1.360396e-01 -1.288382e-01 -1.209340e-01 -1.146961e-01 -1.078090e-01 -1.026891e-01 
-1.008905e-01 -9.707467e-02 -9.277561e-02 -9.009971e-02 -8.702037e-02 -8.547344e-02 -8.357720e-02 -8.311378e-02 -8.231266e-02 -8.287099e-02 -8.305432e-02 -8.458703e-02 -8.566463e-02 -8.816983e-02 -9.010966e-02 -9.363082e-02 -9.646125e-02 -1.010362e-01 -1.048113e-01 -1.104050e-01 -1.151709e-01 -1.216653e-01 -1.274413e-01 -1.346632e-01 -1.414035e-01 -1.491113e-01 -1.566377e-01 -1.644740e-01 -1.724325e-01 -1.799218e-01 -1.878226e-01 -1.944541e-01 -2.017863e-01 -2.071402e-01 -2.134899e-01 -2.173239e-01 -2.224277e-01 -2.246795e-01 -2.283997e-01 -2.291179e-01 -2.313685e-01 -2.306201e-01 -2.312986e-01 -2.291118e-01 -2.280899e-01 -2.244704e-01 -2.216545e-01 -2.166574e-01 -2.120765e-01 -2.058731e-01 -1.997301e-01 -1.926217e-01 -1.852809e-01 -1.776597e-01 -1.695886e-01 -1.618750e-01 -1.535706e-01 -1.461552e-01 -1.380777e-01 -1.312823e-01 -1.238133e-01 -1.178759e-01 -1.113013e-01 -1.063799e-01 
-1.042185e-01 -1.004931e-01 -9.622140e-02 -9.357891e-02 -9.045904e-02 -8.890800e-02 -8.693049e-02 -8.644791e-02 -8.555636e-02 -8.610319e-02 -8.621623e-02 -8.775847e-02 -8.879954e-02 -9.132525e-02 -9.324846e-02 -9.676271e-02 -9.955945e-02 -1.040501e-01 -1.077352e-01 -1.131343e-01 -1.177262e-01 -1.239043e-01 -1.294013e-01 -1.361801e-01 -1.425202e-01 -1.496621e-01 -1.566720e-01 -1.638555e-01 -1.712255e-01 -1.780514e-01 -1.853700e-01 -1.914219e-01 -1.982589e-01 -2.031894e-01 -2.091804e-01 -2.127715e-01 -2.176588e-01 -2.198256e-01 -2.234442e-01 -2.241900e-01 -2.264219e-01 -2.257775e-01 -2.265095e-01 -2.244961e-01 -2.236177e-01 -2.202578e-01 -2.177041e-01 -2.130692e-01 -2.088819e-01 -2.031369e-01 -1.974999e-01 -1.909132e-01 -1.841446e-01 -1.770600e-01 -1.695688e-01 -1.623586e-01 -1.545865e-01 -1.476048e-01 -1.399720e-01 -1.335207e-01 -1.263875e-01 -1.207007e-01 -1.143485e-01 -1.095909e-01 
-1.069803e-01 -1.033298e-01 -9.911247e-02 -9.648691e-02 -9.335142e-02 -9.176841e-02 -8.971884e-02 -8.916608e-02 -8.816539e-02 -8.861463e-02 -8.860548e-02 -9.002922e-02 -9.095847e-02 -9.334224e-02 -9.517938e-02 -9.851769e-02 -1.012564e-01 -1.055284e-01 -1.091711e-01 -1.143111e-01 -1.188486e-01 -1.247349e-01 -1.301266e-01 -1.365828e-01 -1.427306e-01 -1.495209e-01 -1.562393e-01 -1.630586e-01 -1.700629e-01 -1.765495e-01 -1.834813e-01 -1.892644e-01 -1.957501e-01 -2.005135e-01 -2.062246e-01 -2.097527e-01 -2.144383e-01 -2.166234e-01 -2.201058e-01 -2.209198e-01 -2.230670e-01 -2.225203e-01 -2.232201e-01 -2.213357e-01 -2.204965e-01 -2.173161e-01 -2.148983e-01 -2.105120e-01 -2.065696e-01 -2.011453e-01 -1.958519e-01 -1.896401e-01 -1.832826e-01 -1.765951e-01 -1.695402e-01 -1.627142e-01 -1.553614e-01 -1.487214e-01 -1.414575e-01 -1.352864e-01 -1.284503e-01 -1.229738e-01 -1.168372e-01 -1.122199e-01 
-1.092959e-01 -1.057159e-01 -1.014972e-01 -9.890462e-02 -9.572666e-02 -9.415199e-02 -9.203621e-02 -9.148062e-02 -9.040819e-02 -9.085487e-02 -9.078330e-02 -9.220899e-02 -9.309045e-02 -9.547227e-02 -9.726788e-02 -1.005789e-01 -1.032628e-01 -1.074555e-01 -1.110080e-01 -1.159965e-01 -1.203905e-01 -1.260431e-01 -1.312255e-01 -1.373646e-01 -1.432325e-01 -1.496318e-01 -1.560093e-01 -1.623910e-01 -1.690228e-01 -1.750711e-01 -1.816433e-01 -1.870404e-01 -1.932246e-01 -1.976964e-01 -2.031941e-01 -2.065432e-01 -2.111114e-01 -2.132241e-01 -2.166753e-01 -2.175037e-01 -2.196902e-01 -2.192260e-01 -2.200262e-01 -2.182842e-01 -2.176075e-01 -2.146304e-01 -2.124417e-01 -2.083209e-01 -2.046724e-01 -1.995672e-01 -1.946177e-01 -1.887583e-01 -1.827681e-01 -1.764389e-01 -1.697432e-01 -1.632536e-01 -1.562226e-01 -1.498753e-01 -1.428742e-01 -1.369392e-01 -1.302959e-01 -1.249953e-01 -1.189794e-01 -1.144812e-01 
-1.110815e-01 -1.075380e-01 -1.033426e-01 -1.007495e-01 -9.755372e-02 -9.594674e-02 -9.378077e-02 -9.316691e-02 -9.202411e-02 -9.239206e-02 -9.224400e-02 -9.357371e-02 -9.438552e-02 -9.665354e-02 -9.839436e-02 -1.015703e-01 -1.042145e-01 -1.082485e-01 -1.117675e-01 -1.165753e-01 -1.209249e-01 -1.263790e-01 -1.314846e-01 -1.374112e-01 -1.431519e-01 -1.493303e-01 -1.555254e-01 -1.616900e-01 -1.680984e-01 -1.739539e-01 -1.802903e-01 -1.855416e-01 -1.915092e-01 -1.958974e-01 -2.012207e-01 -2.045501e-01 -2.089950e-01 -2.111411e-01 -2.145182e-01 -2.154172e-01 -2.175733e-01 -2.172049e-01 -2.180177e-01 -2.163940e-01 -2.157778e-01 -2.129463e-01 -2.108726e-01 -2.069300e-01 -2.034524e-01 -1.985571e-01 -1.938262e-01 -1.881988e-01 -1.824575e-01 -1.763665e-01 -1.699277e-01 -1.636648e-01 -1.568770e-01 -1.507295e-01 -1.439402e-01 -1.381679e-01 -1.316933e-01 -1.265130e-01 -1.206172e-01 -1.161964e-01 
-1.124887e-01 -1.089848e-01 -1.047448e-01 -1.021715e-01 -9.891400e-02 -9.731436e-02 -9.507909e-02 -9.446733e-02 -9.325660e-02 -9.362658e-02 -9.341846e-02 -9.475072e-02 -9.551167e-02 -9.777663e-02 -9.947049e-02 -1.026254e-01 -1.052160e-01 -1.091963e-01 -1.126432e-01 -1.173526e-01 -1.216016e-01 -1.269061e-01 -1.318768e-01 -1.376029e-01 -1.431744e-01 -1.491093e-01 -1.551100e-01 -1.610061e-01 -1.672133e-01 -1.728022e-01 -1.789564e-01 -1.839731e-01 -1.898028e-01 -1.940129e-01 -1.992602e-01 -2.024807e-01 -2.069174e-01 -2.090235e-01 -2.124552e-01 -2.133743e-01 -2.156370e-01 -2.153379e-01 -2.162973e-01 -2.147838e-01 -2.143443e-01 -2.116588e-01 -2.097830e-01 -2.060173e-01 -2.027489e-01 -1.980534e-01 -1.935308e-01 -1.881142e-01 -1.825672e-01 -1.766840e-01 -1.704132e-01 -1.643415e-01 -1.576863e-01 -1.517032e-01 -1.450063e-01 -1.393656e-01 -1.329424e-01 -1.278600e-01 -1.219775e-01 -1.176229e-01 
-1.133858e-01 -1.098760e-01 -1.056227e-01 -1.030265e-01 -9.973993e-02 -9.810184e-02 -9.582616e-02 -9.516256e-02 -9.390615e-02 -9.421301e-02 -9.396107e-02 -9.522040e-02 -9.594579e-02 -9.812848e-02 -9.979868e-02 -1.028619e-01 -1.054399e-01 -1.093199e-01 -1.127593e-01 -1.173622e-01 -1.215985e-01 -1.267939e-01 -1.317343e-01 -1.373524e-01 -1.428663e-01 -1.486985e-01 -1.546118e-01 -1.604174e-01 -1.665149e-01 -1.720347e-01 -1.780726e-01 -1.830510e-01 -1.887762e-01 -1.929847e-01 -1.981543e-01 -2.014094e-01 -2.058032e-01 -2.079738e-01 -2.113983e-01 -2.124026e-01 -2.146903e-01 -2.144881e-01 -2.154996e-01 -2.140890e-01 -2.137242e-01 -2.111450e-01 -2.093620e-01 -2.057047e-01 -2.025417e-01 -1.979547e-01 -1.935431e-01 -1.882316e-01 -1.827934e-01 -1.770072e-01 -1.708361e-01 -1.648488e-01 -1.582784e-01 -1.523636e-01 -1.457330e-01 -1.401425e-01 -1.337654e-01 -1.287140e-01 -1.228570e-01 -1.185146e-01 
-1.139366e-01 -1.104291e-01 -1.060792e-01 -1.034821e-01 -1.001053e-01 -9.846642e-02 -9.610934e-02 -9.544760e-02 -9.412054e-02 -9.443338e-02 -9.412236e-02 -9.539085e-02 -9.606755e-02 -9.825838e-02 -9.988668e-02 -1.029501e-01 -1.054877e-01 -1.093517e-01 -1.127469e-01 -1.173111e-01 -1.214955e-01 -1.266255e-01 -1.315053e-01 -1.370314e-01 -1.424782e-01 -1.481964e-01 -1.540429e-01 -1.597220e-01 -1.657641e-01 -1.711590e-01 -1.771665e-01 -1.820372e-01 -1.877703e-01 -1.919017e-01 -1.971267e-01 -2.003432e-01 -2.048428e-01 -2.070147e-01 -2.105907e-01 -2.116317e-01 -2.141050e-01 -2.139673e-01 -2.151816e-01 -2.138543e-01 -2.136892e-01 -2.112036e-01 -2.095971e-01 -2.060362e-01 -2.030096e-01 -1.985151e-01 -1.941895e-01 -1.889615e-01 -1.835567e-01 -1.778414e-01 -1.716561e-01 -1.657253e-01 -1.591031e-01 -1.532303e-01 -1.465220e-01 -1.409601e-01 -1.344902e-01 -1.294560e-01 -1.234995e-01 -1.191655e-01 
-1.139819e-01 -1.104250e-01 -1.060225e-01 -1.033783e-01 -9.995703e-02 -9.827151e-02 -9.587768e-02 -9.516842e-02 -9.381329e-02 -9.407710e-02 -9.374848e-02 -9.496664e-02 -9.563819e-02 -9.777838e-02 -9.941494e-02 -1.024293e-01 -1.049874e-01 -1.088071e-01 -1.122313e-01 -1.167596e-01 -1.209753e-01 -1.260819e-01 -1.309876e-01 -1.365056e-01 -1.419668e-01 -1.476938e-01 -1.535404e-01 -1.592461e-01 -1.652768e-01 -1.707167e-01 -1.767092e-01 -1.816433e-01 -1.873690e-01 -1.915811e-01 -1.968171e-01 -2.001289e-01 -2.046651e-01 -2.069422e-01 -2.105818e-01 -2.117311e-01 -2.142898e-01 -2.142556e-01 -2.155664e-01 -2.143291e-01 -2.142574e-01 -2.118402e-01 -2.103096e-01 -2.067894e-01 -2.038094e-01 -1.993257e-01 -1.950110e-01 -1.897658e-01 -1.843370e-01 -1.785821e-01 -1.723446e-01 -1.663595e-01 -1.596673e-01 -1.537334e-01 -1.469478e-01 -1.413244e-01 -1.347782e-01 -1.296859e-01 -1.236596e-01 -1.192721e-01 
-1.136789e-01 -1.100838e-01 -1.055299e-01 -1.028612e-01 -9.931878e-02 -9.762155e-02 -9.513229e-02 -9.442317e-02 -9.299380e-02 -9.326849e-02 -9.288292e-02 -9.412098e-02 -9.474959e-02 -9.691611e-02 -9.852113e-02 -1.015648e-01 -1.041011e-01 -1.079494e-01 -1.113611e-01 -1.159142e-01 -1.201280e-01 -1.252535e-01 -1.301706e-01 -1.357005e-01 -1.411902e-01 -1.469228e-01 -1.528194e-01 -1.585266e-01 -1.646338e-01 -1.700748e-01 -1.761755e-01 -1.811154e-01 -1.869855e-01 -1.912134e-01 -1.966336e-01 -1.999758e-01 -2.047365e-01 -2.070604e-01 -2.109599e-01 -2.121704e-01 -2.150107e-01 -2.150450e-01 -2.166346e-01 -2.154623e-01 -2.156336e-01 -2.132652e-01 -2.119067e-01 -2.084087e-01 -2.055030e-01 -2.010096e-01 -1.966611e-01 -1.913754e-01 -1.858142e-01 -1.799948e-01 -1.735513e-01 -1.674880e-01 -1.605482e-01 -1.545326e-01 -1.474885e-01 -1.417885e-01 -1.349967e-01 -1.298386e-01 -1.235939e-01 -1.191540e-01 
-1.128597e-01 -1.091735e-01 -1.045282e-01 -1.017903e-01 -9.818799e-02 -9.643742e-02 -9.391424e-02 -9.316255e-02 -9.172089e-02 -9.196043e-02 -9.158151e-02 -9.279083e-02 -9.344374e-02 -9.558931e-02 -9.723564e-02 -1.002699e-01 -1.028637e-01 -1.067196e-01 -1.102031e-01 -1.147871e-01 -1.190835e-01 -1.242683e-01 -1.292739e-01 -1.348941e-01 -1.404726e-01 -1.463248e-01 -1.523060e-01 -1.581567e-01 -1.643425e-01 -1.699427e-01 -1.761186e-01 -1.812246e-01 -1.871737e-01 -1.915674e-01 -1.970802e-01 -2.005830e-01 -2.054586e-01 -2.079349e-01 -2.119738e-01 -2.133242e-01 -2.163209e-01 -2.164743e-01 -2.182186e-01 -2.171316e-01 -2.174296e-01 -2.150974e-01 -2.138097e-01 -2.102870e-01 -2.073753e-01 -2.027929e-01 -1.983548e-01 -1.929238e-01 -1.871991e-01 -1.811956e-01 -1.745379e-01 -1.682737e-01 -1.610985e-01 -1.548861e-01 -1.476125e-01 -1.417355e-01 -1.347400e-01 -1.294331e-01 -1.230212e-01 -1.184628e-01 
-1.116552e-01 -1.078908e-01 -1.030426e-01 -1.002574e-01 -9.650753e-02 -9.473532e-02 -9.210715e-02 -9.135500e-02 -8.983942e-02 -9.009641e-02 -8.966590e-02 -9.090849e-02 -9.152679e-02 -9.372032e-02 -9.534716e-02 -9.844360e-02 -1.010345e-01 -1.049668e-01 -1.084684e-01 -1.131430e-01 -1.174848e-01 -1.227736e-01 -1.278589e-01 -1.335945e-01 -1.392924e-01 -1.452677e-01 -1.514109e-01 -1.573869e-01 -1.637764e-01 -1.694984e-01 -1.759165e-01 -1.811362e-01 -1.873627e-01 -1.918608e-01 -1.976857e-01 -2.012860e-01 -2.065097e-01 -2.090804e-01 -2.135015e-01 -2.149444e-01 -2.183430e-01 -2.185801e-01 -2.207125e-01 -2.196846e-01 -2.203038e-01 -2.179863e-01 -2.168932e-01 -2.133239e-01 -2.104345e-01 -2.057390e-01 -2.011378e-01 -1.955357e-01 -1.894877e-01 -1.832746e-01 -1.761868e-01 -1.696993e-01 -1.620498e-01 -1.556237e-01 -1.478872e-01 -1.418229e-01 -1.344143e-01 -1.289558e-01 -1.222004e-01 -1.175283e-01 
-1.099075e-01 -1.060157e-01 -1.010426e-01 -9.817207e-02 -9.435245e-02 -9.252534e-02 -8.987040e-02 -8.908396e-02 -8.757457e-02 -8.781136e-02 -8.741306e-02 -8.864708e-02 -8.931973e-02 -9.151829e-02 -9.322032e-02 -9.634144e-02 -9.902866e-02 -1.030144e-01 -1.066340e-01 -1.114009e-01 -1.158816e-01 -1.213101e-01 -1.265520e-01 -1.324775e-01 -1.383435e-01 -1.445544e-01 -1.508686e-01 -1.571129e-01 -1.636685e-01 -1.696726e-01 -1.762490e-01 -1.817449e-01 -1.881269e-01 -1.928808e-01 -1.988713e-01 -2.027010e-01 -2.081154e-01 -2.108900e-01 -2.155341e-01 -2.171565e-01 -2.208012e-01 -2.211858e-01 -2.235577e-01 -2.226256e-01 -2.234324e-01 -2.211311e-01 -2.201245e-01 -2.164684e-01 -2.135272e-01 -2.086352e-01 -2.038339e-01 -1.979409e-01 -1.915665e-01 -1.850026e-01 -1.775095e-01 -1.706533e-01 -1.625759e-01 -1.558016e-01 -1.476638e-01 -1.412984e-01 -1.335479e-01 -1.278482e-01 -1.208254e-01 -1.159727e-01 
-1.076987e-01 -1.036936e-01 -9.847762e-02 -9.554223e-02 -9.156151e-02 -8.970731e-02 -8.694930e-02 -8.616505e-02 -8.459076e-02 -8.485363e-02 -8.441447e-02 -8.569623e-02 -8.634447e-02 -8.861308e-02 -9.030616e-02 -9.352244e-02 -9.622132e-02 -1.003313e-01 -1.039932e-01 -1.089171e-01 -1.134838e-01 -1.191035e-01 -1.244877e-01 -1.306361e-01 -1.367096e-01 -1.431668e-01 -1.497554e-01 -1.562551e-01 -1.631446e-01 -1.693957e-01 -1.763513e-01 -1.820700e-01 -1.888634e-01 -1.938075e-01 -2.002369e-01 -2.042270e-01 -2.101150e-01 -2.130310e-01 -2.181936e-01 -2.199465e-01 -2.241474e-01 -2.246464e-01 -2.275683e-01 -2.267098e-01 -2.279756e-01 -2.256713e-01 -2.249275e-01 -2.211617e-01 -2.182039e-01 -2.130870e-01 -2.079682e-01 -2.017536e-01 -1.948122e-01 -1.878686e-01 -1.796587e-01 -1.724110e-01 -1.635772e-01 -1.564400e-01 -1.475962e-01 -1.409236e-01 -1.325730e-01 -1.266334e-01 -1.191380e-01 -1.141126e-01 
-1.049021e-01 -1.007445e-01 -9.538213e-02 -9.235701e-02 -8.830882e-02 -8.640797e-02 -8.364040e-02 -8.283668e-02 -8.129404e-02 -8.155409e-02 -8.117652e-02 -8.246797e-02 -8.320191e-02 -8.549544e-02 -8.729734e-02 -9.056324e-02 -9.339670e-02 -9.759584e-02 -1.014225e-01 -1.064921e-01 -1.112570e-01 -1.170937e-01 -1.227087e-01 -1.291515e-01 -1.354807e-01 -1.423023e-01 -1.491562e-01 -1.560677e-01 -1.632141e-01 -1.698899e-01 -1.770817e-01 -1.832014e-01 -1.902139e-01 -1.955097e-01 -2.021631e-01 -2.064500e-01 -2.125975e-01 -2.157679e-01 -2.212463e-01 -2.232261e-01 -2.277919e-01 -2.284872e-01 -2.317787e-01 -2.310542e-01 -2.326179e-01 -2.303333e-01 -2.297285e-01 -2.258205e-01 -2.227755e-01 -2.173386e-01 -2.118871e-01 -2.052017e-01 -1.977238e-01 -1.902202e-01 -1.813577e-01 -1.735352e-01 -1.640319e-01 -1.563685e-01 -1.469185e-01 -1.398083e-01 -1.309623e-01 -1.246886e-01 -1.168247e-01 -1.115640e-01 
-1.015240e-01 -9.722876e-02 -9.160753e-02 -8.851062e-02 -8.431150e-02 -8.238658e-02 -7.953770e-02 -7.874424e-02 -7.715983e-02 -7.745679e-02 -7.705669e-02 -7.840971e-02 -7.913040e-02 -8.151326e-02 -8.331158e-02 -8.670168e-02 -8.955130e-02 -9.391889e-02 -9.779924e-02 -1.030908e-01 -1.079695e-01 -1.140873e-01 -1.198984e-01 -1.266799e-01 -1.333033e-01 -1.405083e-01 -1.477565e-01 -1.550709e-01 -1.626953e-01 -1.697591e-01 -1.774810e-01 -1.839407e-01 -1.915028e-01 -1.970720e-01 -2.042836e-01 -2.087832e-01 -2.155201e-01 -2.188698e-01 -2.250104e-01 -2.271644e-01 -2.324844e-01 -2.333492e-01 -2.374375e-01 -2.368370e-01 -2.391026e-01 -2.368276e-01 -2.366372e-01 -2.325646e-01 -2.294852e-01 -2.236933e-01 -2.177193e-01 -2.105229e-01 -2.021346e-01 -1.940351e-01 -1.840587e-01 -1.756360e-01 -1.650043e-01 -1.568021e-01 -1.463475e-01 -1.387983e-01 -1.291434e-01 -1.225420e-01 -1.140797e-01 -1.085951e-01 
-9.749383e-02 -9.304151e-02 -8.727495e-02 -8.410353e-02 -7.986031e-02 -7.791295e-02 -7.508839e-02 -7.430083e-02 -7.278479e-02 -7.310046e-02 -7.279720e-02 -7.417541e-02 -7.501418e-02 -7.743239e-02 -7.937050e-02 -8.282031e-02 -8.583838e-02 -9.031364e-02 -9.440213e-02 -9.987816e-02 -1.050154e-01 -1.114211e-01 -1.175452e-01 -1.247327e-01 -1.317143e-01 -1.394354e-01 -1.470613e-01 -1.549657e-01 -1.629498e-01 -1.706172e-01 -1.786499e-01 -1.856608e-01 -1.934839e-01 -1.995063e-01 -2.069697e-01 -2.118213e-01 -2.188657e-01 -2.225054e-01 -2.290619e-01 -2.314928e-01 -2.373414e-01 -2.384828e-01 -2.431471e-01 -2.427713e-01 -2.455319e-01 -2.433278e-01 -2.433963e-01 -2.391419e-01 -2.359592e-01 -2.296968e-01 -2.232157e-01 -2.153064e-01 -2.060839e-01 -1.971410e-01 -1.861656e-01 -1.768984e-01 -1.652750e-01 -1.563291e-01 -1.450156e-01 -1.368777e-01 -1.265578e-01 -1.195340e-01 -1.106088e-01 -1.048502e-01 
-9.270966e-02 -8.811572e-02 -8.211683e-02 -7.888485e-02 -7.453912e-02 -7.258410e-02 -6.973010e-02 -6.896853e-02 -6.745416e-02 -6.781955e-02 -6.752202e-02 -6.897249e-02 -6.980877e-02 -7.232846e-02 -7.425833e-02 -7.785201e-02 -8.087285e-02 -8.555164e-02 -8.968280e-02 -9.544000e-02 -1.006966e-01 -1.074750e-01 -1.138334e-01 -1.214882e-01 -1.288487e-01 -1.371159e-01 -1.452724e-01 -1.537613e-01 -1.623993e-01 -1.706289e-01 -1.793746e-01 -1.868613e-01 -1.953834e-01 -2.017565e-01 -2.098749e-01 -2.149637e-01 -2.226715e-01 -2.265006e-01 -2.338439e-01 -2.364920e-01 -2.433421e-01 -2.447492e-01 -2.505943e-01 -2.504618e-01 -2.543593e-01 -2.522377e-01 -2.530331e-01 -2.485757e-01 -2.453806e-01 -2.385981e-01 -2.312898e-01 -2.226090e-01 -2.119488e-01 -2.021129e-01 -1.894378e-01 -1.792961e-01 -1.660336e-01 -1.563346e-01 -1.436462e-01 -1.349260e-01 -1.235729e-01 -1.161413e-01 -1.065130e-01 -1.004972e-01 
-8.718930e-02 -8.246786e-02 -7.636341e-02 -7.310271e-02 -6.876911e-02 -6.683955e-02 -6.406821e-02 -6.335339e-02 -6.195972e-02 -6.237173e-02 -6.221352e-02 -6.370098e-02 -6.468726e-02 -6.723848e-02 -6.933214e-02 -7.297205e-02 -7.618419e-02 -8.096033e-02 -8.533233e-02 -9.128599e-02 -9.685717e-02 -1.039800e-01 -1.107426e-01 -1.189229e-01 -1.267701e-01 -1.357411e-01 -1.444247e-01 -1.537418e-01 -1.628735e-01 -1.719519e-01 -1.810841e-01 -1.893176e-01 -1.981022e-01 -2.050330e-01 -2.133666e-01 -2.188233e-01 -2.268342e-01 -2.309394e-01 -2.387948e-01 -2.417570e-01 -2.493647e-01 -2.511802e-01 -2.579359e-01 -2.582213e-01 -2.629658e-01 -2.610655e-01 -2.623654e-01 -2.577229e-01 -2.544501e-01 -2.469998e-01 -2.389334e-01 -2.291850e-01 -2.172309e-01 -2.061383e-01 -1.919455e-01 -1.805879e-01 -1.658864e-01 -1.551718e-01 -1.413105e-01 -1.318400e-01 -1.196441e-01 -1.117199e-01 -1.015583e-01 -9.526154e-02 
-8.068436e-02 -7.585196e-02 -6.961069e-02 -6.632883e-02 -6.199789e-02 -6.009635e-02 -5.738941e-02 -5.672626e-02 -5.540476e-02 -5.588042e-02 -5.576852e-02 -5.733219e-02 -5.832422e-02 -6.097591e-02 -6.303984e-02 -6.682599e-02 -6.999865e-02 -7.499545e-02 -7.936230e-02 -8.564264e-02 -9.130048e-02 -9.888488e-02 -1.058902e-01 -1.146827e-01 -1.229862e-01 -1.327064e-01 -1.420853e-01 -1.522295e-01 -1.622551e-01 -1.721334e-01 -1.822346e-01 -1.911183e-01 -2.007817e-01 -2.081282e-01 -2.171615e-01 -2.228141e-01 -2.314479e-01 -2.356766e-01 -2.443521e-01 -2.475534e-01 -2.564461e-01 -2.586939e-01 -2.672377e-01 -2.680241e-01 -2.747061e-01 -2.730867e-01 -2.757544e-01 -2.709021e-01 -2.677144e-01 -2.595130e-01 -2.501117e-01 -2.392008e-01 -2.249340e-01 -2.125112e-01 -1.957107e-01 -1.831015e-01 -1.660462e-01 -1.543155e-01 -1.386302e-01 -1.284306e-01 -1.149886e-01 -1.066004e-01 -9.568934e-02 -8.913683e-02 
-7.334132e-02 -6.846574e-02 -6.222015e-02 -5.899991e-02 -5.478453e-02 -5.298928e-02 -5.045582e-02 -4.990167e-02 -4.877270e-02 -4.933241e-02 -4.941024e-02 -5.101854e-02 -5.218939e-02 -5.484858e-02 -5.708659e-02 -6.086904e-02 -6.423381e-02 -6.926968e-02 -7.388579e-02 -8.032578e-02 -8.633849e-02 -9.429066e-02 -1.017983e-01 -1.112383e-01 -1.201987e-01 -1.308646e-01 -1.409937e-01 -1.523080e-01 -1.630346e-01 -1.741297e-01 -1.847102e-01 -1.946234e-01 -2.044747e-01 -2.124844e-01 -2.215612e-01 -2.274995e-01 -2.363108e-01 -2.406717e-01 -2.499196e-01 -2.534151e-01 -2.633871e-01 -2.662596e-01 -2.762654e-01 -2.778693e-01 -2.860283e-01 -2.849923e-01 -2.886492e-01 -2.836856e-01 -2.805440e-01 -2.713928e-01 -2.608385e-01 -2.482927e-01 -2.319612e-01 -2.176376e-01 -1.984982e-01 -1.841434e-01 -1.650132e-01 -1.519315e-01 -1.346947e-01 -1.235915e-01 -1.091490e-01 -1.002447e-01 -8.879055e-02 -8.200847e-02 
-6.472703e-02 -5.982613e-02 -5.364323e-02 -5.048187e-02 -4.645213e-02 -4.474608e-02 -4.242493e-02 -4.195981e-02 -4.100719e-02 -4.164386e-02 -4.182327e-02 -4.349997e-02 -4.467965e-02 -4.741671e-02 -4.957772e-02 -5.348005e-02 -5.671893e-02 -6.196103e-02 -6.646677e-02 -7.325022e-02 -7.925283e-02 -8.773993e-02 -9.544107e-02 -1.056524e-01 -1.151211e-01 -1.267986e-01 -1.378280e-01 -1.503170e-01 -1.623008e-01 -1.745561e-01 -1.865266e-01 -1.973487e-01 -2.083477e-01 -2.168232e-01 -2.265428e-01 -2.324875e-01 -2.416077e-01 -2.458375e-01 -2.556719e-01 -2.593501e-01 -2.708535e-01 -2.744486e-01 -2.872039e-01 -2.898558e-01 -3.014703e-01 -3.011850e-01 -3.075619e-01 -3.024328e-01 -2.996117e-01 -2.893477e-01 -2.765112e-01 -2.621669e-01 -2.419665e-01 -2.256295e-01 -2.024252e-01 -1.862858e-01 -1.638095e-01 -1.493977e-01 -1.298388e-01 -1.178824e-01 -1.020608e-01 -9.269352e-02 -8.057041e-02 -7.359770e-02 
-5.516489e-02 -5.038661e-02 -4.439110e-02 -4.144176e-02 -3.769306e-02 -3.621601e-02 -3.419815e-02 -3.393196e-02 -3.326557e-02 -3.403823e-02 -3.446593e-02 -3.619259e-02 -3.757381e-02 -4.026834e-02 -4.259091e-02 -4.638560e-02 -4.977838e-02 -5.492345e-02 -5.963845e-02 -6.645722e-02 -7.281307e-02 -8.161969e-02 -8.991397e-02 -1.008766e-01 -1.112332e-01 -1.241718e-01 -1.363162e-01 -1.504952e-01 -1.635591e-01 -1.776328e-01 -1.902460e-01 -2.025594e-01 -2.135264e-01 -2.227815e-01 -2.320951e-01 -2.380193e-01 -2.469306e-01 -2.508320e-01 -2.611882e-01 -2.649700e-01 -2.780010e-01 -2.825722e-01 -2.977096e-01 -3.020056e-01 -3.162295e-01 -3.173542e-01 -3.256578e-01 -3.206375e-01 -3.182425e-01 -3.065886e-01 -2.919189e-01 -2.749485e-01 -2.512764e-01 -2.319734e-01 -2.050695e-01 -1.864185e-01 -1.609705e-01 -1.448224e-01 -1.233042e-01 -1.103520e-01 -9.346532e-02 -8.366012e-02 -7.111294e-02 -6.406215e-02 
-4.400906e-02 -3.937222e-02 -3.378234e-02 -3.102575e-02 -2.774213e-02 -2.644602e-02 -2.485108e-02 -2.472316e-02 -2.437622e-02 -2.523562e-02 -2.583814e-02 -2.760731e-02 -2.899336e-02 -3.171047e-02 -3.387174e-02 -3.771549e-02 -4.083152e-02 -4.611750e-02 -5.053218e-02 -5.765717e-02 -6.380290e-02 -7.317331e-02 -8.150087e-02 -9.339066e-02 -1.042299e-01 -1.185211e-01 -1.318052e-01 -1.476848e-01 -1.625922e-01 -1.784235e-01 -1.932225e-01 -2.068949e-01 -2.195413e-01 -2.293281e-01 -2.390573e-01 -2.444754e-01 -2.527703e-01 -2.558337e-01 -2.658778e-01 -2.695566e-01 -2.840966e-01 -2.898923e-01 -3.092562e-01 -3.157697e-01 -3.364057e-01 -3.393738e-01 -3.534065e-01 -3.482969e-01 -3.466608e-01 -3.332664e-01 -3.143591e-01 -2.944804e-01 -2.639968e-01 -2.415553e-01 -2.082120e-01 -1.870215e-01 -1.569251e-01 -1.391128e-01 -1.148521e-01 -1.010104e-01 -8.284319e-02 -7.269413e-02 -5.980296e-02 -5.273378e-02 
-3.181367e-02 -2.757618e-02 -2.248584e-02 -2.016388e-02 -1.739817e-02 -1.650072e-02 -1.537824e-02 -1.557210e-02 -1.562604e-02 -1.669653e-02 -1.761481e-02 -1.944578e-02 -2.104938e-02 -2.364668e-02 -2.592483e-02 -2.948136e-02 -3.265024e-02 -3.758136e-02 -4.207687e-02 -4.896085e-02 -5.536221e-02 -6.485616e-02 -7.381242e-02 -8.647946e-02 -9.850422e-02 -1.144530e-01 -1.294768e-01 -1.478671e-01 -1.646348e-01 -1.833419e-01 -1.991856e-01 -2.151966e-01 -2.272942e-01 -2.380658e-01 -2.463687e-01 -2.509678e-01 -2.581309e-01 -2.596641e-01 -2.699065e-01 -2.730532e-01 -2.897284e-01 -2.970478e-01 -3.203484e-01 -3.302317e-01 -3.555192e-01 -3.618022e-01 -3.795097e-01 -3.749347e-01 -3.748594e-01 -3.593548e-01 -3.373189e-01 -3.129150e-01 -2.761445e-01 -2.488849e-01 -2.095216e-01 -1.847428e-01 -1.504885e-01 -1.305959e-01 -1.040831e-01 -8.933856e-02 -7.029380e-02 -5.998302e-02 -4.703025e-02 -4.019335e-02 
-1.772229e-02 -1.390151e-02 -9.733685e-03 -7.801442e-03 -5.881941e-03 -5.287927e-03 -4.860271e-03 -5.250483e-03 -5.808081e-03 -6.967768e-03 -8.159491e-03 -9.982788e-03 -1.158354e-02 -1.410186e-02 -1.608396e-02 -1.955354e-02 -2.220307e-02 -2.713639e-02 -3.102769e-02 -3.808813e-02 -4.392577e-02 -5.390657e-02 -6.252950e-02 -7.621840e-02 -8.849280e-02 -1.062147e-01 -1.225703e-01 -1.434807e-01 -1.630385e-01 -1.845584e-01 -2.042307e-01 -2.224796e-01 -2.375475e-01 -2.491233e-01 -2.573822e-01 -2.602542e-01 -2.645374e-01 -2.634570e-01 -2.709773e-01 -2.731369e-01 -2.904172e-01 -2.997895e-01 -3.293435e-01 -3.439811e-01 -3.815052e-01 -3.922928e-01 -4.229960e-01 -4.181212e-01 -4.192596e-01 -4.008802e-01 -3.702521e-01 -3.408905e-01 -2.914318e-01 -2.590951e-01 -2.094889e-01 -1.811513e-01 -1.408187e-01 -1.190334e-01 -8.979589e-02 -7.435576e-02 -5.465329e-02 -4.433836e-02 -3.178686e-02 -2.526946e-02 