# vtk DataFile Version 2.0
fMag
ASCII
DATASET UNSTRUCTURED_GRID

POINTS 64 float
7.652483203930602e-01 5.000006255841698e-01 0.000000000000000e+00
7.641253399547679e-01 5.306682032251973e-01 0.000000000000000e+00
7.605081562764995e-01 5.607180985272219e-01 0.000000000000000e+00
7.545394365399708e-01 5.902655319093714e-01 0.000000000000000e+00
7.459579648682050e-01 6.183572393685387e-01 0.000000000000000e+00
7.353261477482121e-01 6.453620002195654e-01 0.000000000000000e+00
7.225310480421656e-01 6.702156526009432e-01 0.000000000000000e+00
7.073868375457165e-01 6.932443186215395e-01 0.000000000000000e+00
6.905418086945017e-01 7.137350740027992e-01 0.000000000000000e+00
6.715602921096424e-01 7.323757019788630e-01 0.000000000000000e+00
6.510020083313001e-01 7.483544314445562e-01 0.000000000000000e+00
6.284856834855711e-01 7.619845929702623e-01 0.000000000000000e+00
6.042943024080043e-01 7.734124139870717e-01 0.000000000000000e+00
5.790204239749496e-01 7.819684287673995e-01 0.000000000000000e+00
5.529716368598100e-01 7.877715653741543e-01 0.000000000000000e+00
5.266687885764720e-01 7.908412306985093e-01 0.000000000000000e+00
4.999867987715576e-01 7.920558202509255e-01 0.000000000000000e+00
4.733044677476641e-01 7.908376155101083e-01 0.000000000000000e+00
4.470009663114850e-01 7.877676898453436e-01 0.000000000000000e+00
4.209515965279448e-01 7.819642829590673e-01 0.000000000000000e+00
3.956772450382052e-01 7.734088680949663e-01 0.000000000000000e+00
3.714877285304441e-01 7.619827395157346e-01 0.000000000000000e+00
3.489690575982177e-01 7.483519229979746e-01 0.000000000000000e+00
3.284134828941492e-01 7.323738893636795e-01 0.000000000000000e+00
3.094326812473358e-01 7.137327303840038e-01 0.000000000000000e+00
2.925913692840271e-01 6.932422333293758e-01 0.000000000000000e+00
2.774499225961316e-01 6.702143217674322e-01 0.000000000000000e+00
2.646577780197544e-01 6.453611572361559e-01 0.000000000000000e+00
2.540278964305279e-01 6.183560090683979e-01 0.000000000000000e+00
2.454487663168161e-01 5.902639694019178e-01 0.000000000000000e+00
2.394828578217324e-01 5.607171292260900e-01 0.000000000000000e+00
2.358674642855974e-01 5.306674339507096e-01 0.000000000000000e+00
2.347449324786327e-01 5.000006192138279e-01 0.000000000000000e+00
2.358659858943097e-01 4.693400500248774e-01 0.000000000000000e+00
2.394810597028314e-01 4.392848669115615e-01 0.000000000000000e+00
2.454475056049274e-01 4.097427965110513e-01 0.000000000000000e+00
2.540273774834688e-01 3.816489203099127e-01 0.000000000000000e+00
2.646585485814089e-01 3.546466696527849e-01 0.000000000000000e+00
2.774506081419686e-01 3.297930846823560e-01 0.000000000000000e+00
2.925912034545016e-01 3.067670225111085e-01 0.000000000000000e+00
3.094307361093283e-01 2.862732229419082e-01 0.000000000000000e+00
3.284139758419223e-01 2.676316258547533e-01 0.000000000000000e+00
3.489657241238968e-01 2.516549149805112e-01 0.000000000000000e+00
3.714871238380766e-01 2.380234546526419e-01 0.000000000000000e+00
3.956773412338290e-01 2.265988563159635e-01 0.000000000000000e+00
4.209514581348536e-01 2.180444494129342e-01 0.000000000000000e+00
4.470007812155785e-01 2.122422128117544e-01 0.000000000000000e+00
4.733042027799433e-01 2.091685373667025e-01 0.000000000000000e+00
4.999868074922606e-01 2.079527193294425e-01 0.000000000000000e+00
5.266690685781334e-01 2.091649262097791e-01 0.000000000000000e+00
5.529718387562002e-01 2.122383409986133e-01 0.000000000000000e+00
5.790205766863419e-01 2.180403064030328e-01 0.000000000000000e+00
6.042942224031709e-01 2.265953176705435e-01 0.000000000000000e+00
6.284863009177358e-01 2.380216066669413e-01 0.000000000000000e+00
6.510053565776864e-01 2.516524147962644e-01 0.000000000000000e+00
6.715598100243538e-01 2.676298227825143e-01 0.000000000000000e+00
6.905437678723844e-01 2.862708919461678e-01 0.000000000000000e+00
7.073870149984772e-01 3.067649505781075e-01 0.000000000000000e+00
7.225303698429247e-01 3.297917658126153e-01 0.000000000000000e+00
7.353253876456213e-01 3.546458375794394e-01 0.000000000000000e+00
7.459584881303536e-01 3.816477064186996e-01 0.000000000000000e+00
7.545407025647086e-01 4.097412491003756e-01 0.000000000000000e+00
7.605099563456604e-01 4.392839101675480e-01 0.000000000000000e+00
7.641268209766583e-01 4.693392990401430e-01 0.000000000000000e+00

POINT_DATA   64
SCALARS fMag double
LOOKUP_TABLE default

54.84117116720429 
63.725590412620846 
59.7875120213084 
73.54481571349888 
57.461351842128586 
76.15022920676347 
73.75425806592091 
76.02395104125401 
70.61018100725998 
77.11278953965376 
76.76611076922168 
69.682258296322 
77.28592160797797 
72.5091695902477 
69.56180512590888 
48.15570513102706 
61.54049821880601 
48.069736040843836 
69.56008712230194 
72.49170750455033 
77.28589189168459 
69.66938969311514 
76.82157327525023 
77.10816803168636 
70.64952084606134 
76.00048262085497 
73.76639475195299 
76.15326452775874 
57.47080821340425 
73.5418286381622 
59.76272330157056 
63.68806919570469 
54.818900805493335 
63.64839035771539 
59.8365318907326 
73.46616417472266 
57.54021907288395 
76.0702507802322 
73.78622647770162 
75.8812489996342 
70.77718031313219 
77.06418010930538 
76.88876318691514 
69.68275819471961 
77.26456951128642 
72.49826515359959 
69.4386431617174 
48.22089196936784 
61.42004643868097 
48.30674214000363 
69.44034786812107 
72.515823734735 
77.26452385844567 
69.69551465838472 
76.83311759432564 
77.0686244150604 
70.73789629039007 
75.90470541808806 
73.7739461100907 
76.0675132395731 
57.53052962878367 
73.46917560145776 
59.86121371467512 
63.68589303703354 
