# vtk DataFile Version 2.0
fMag
ASCII
DATASET UNSTRUCTURED_GRID

POINTS 64 float
1.596609266728367e-01 4.121501397488809e-01 0.000000000000000e+00
2.135799439341841e-01 4.339219843027663e-01 0.000000000000000e+00
8.242419977114542e-01 7.031466056301622e-01 0.000000000000000e+00
1.282368501178014e-01 6.498642699108260e-01 0.000000000000000e+00
6.554344783583224e-02 5.253751095870519e-01 0.000000000000000e+00
5.484209300324071e-02 5.313464540108791e-01 0.000000000000000e+00
5.120580472164568e-02 5.301272984105813e-01 0.000000000000000e+00
5.174548737410153e-02 5.257427852885678e-01 0.000000000000000e+00
5.455967078455548e-02 5.221210486844168e-01 0.000000000000000e+00
5.920331615551165e-02 5.179485153342358e-01 0.000000000000000e+00
5.738374959351295e-02 5.185353606583543e-01 0.000000000000000e+00
6.733308416766476e-02 5.236860132395598e-01 0.000000000000000e+00
7.297862648304311e-02 5.300725806416792e-01 0.000000000000000e+00
7.765036307890390e-02 5.356187322224455e-01 0.000000000000000e+00
7.998411045573305e-02 5.384299056062214e-01 0.000000000000000e+00
8.280790394699369e-02 5.362186064014186e-01 0.000000000000000e+00
8.587010843095255e-02 5.337167485023327e-01 0.000000000000000e+00
8.875080854228272e-02 5.308080510471516e-01 0.000000000000000e+00
9.179336872418963e-02 5.292035570096584e-01 0.000000000000000e+00
9.565942612782080e-02 5.291247645329875e-01 0.000000000000000e+00
1.010148528660294e-01 5.321649646418428e-01 0.000000000000000e+00
1.059418484386496e-01 5.337758839113731e-01 0.000000000000000e+00
1.107299516491319e-01 5.333055817322677e-01 0.000000000000000e+00
1.145020804897163e-01 5.314886407716899e-01 0.000000000000000e+00
1.181943541501971e-01 5.319924961976605e-01 0.000000000000000e+00
1.216915349917660e-01 5.308301664513323e-01 0.000000000000000e+00
1.245530595749358e-01 5.273310183409594e-01 0.000000000000000e+00
1.262437925699791e-01 5.224088862434285e-01 0.000000000000000e+00
1.268834944087209e-01 5.167485682332259e-01 0.000000000000000e+00
1.258765940965145e-01 5.104040034893806e-01 0.000000000000000e+00
1.206073043835950e-01 5.024175219794662e-01 0.000000000000000e+00
1.124069252096894e-01 4.944302779673572e-01 0.000000000000000e+00
1.085759965279246e-01 4.880047195267203e-01 0.000000000000000e+00
1.118843902308575e-01 4.867841122982097e-01 0.000000000000000e+00
1.188461148707219e-01 4.889937028884496e-01 0.000000000000000e+00
1.199631544134526e-01 4.852307183978952e-01 0.000000000000000e+00
1.218776237260990e-01 4.792341646607957e-01 0.000000000000000e+00
1.248047381840630e-01 4.754752161774510e-01 0.000000000000000e+00
1.274615306851611e-01 4.728503162716627e-01 0.000000000000000e+00
1.368423220700136e-01 4.785186127547206e-01 0.000000000000000e+00
1.492649443750292e-01 4.855916097488772e-01 0.000000000000000e+00
1.504294282481947e-01 4.751373005676990e-01 0.000000000000000e+00
1.481472970731346e-01 4.613490209429734e-01 0.000000000000000e+00
1.476839474983006e-01 4.478443542296958e-01 0.000000000000000e+00
1.501927913480598e-01 4.431612499705314e-01 0.000000000000000e+00
1.531889196141483e-01 4.414881264020976e-01 0.000000000000000e+00
1.564970623573491e-01 4.422780947022475e-01 0.000000000000000e+00
1.597051452571731e-01 4.413829741911373e-01 0.000000000000000e+00
1.633910730789579e-01 4.413301352632684e-01 0.000000000000000e+00
1.672278614550396e-01 4.429405865249505e-01 0.000000000000000e+00
1.704273115926125e-01 4.443566590541929e-01 0.000000000000000e+00
1.732125333315241e-01 4.448614294949603e-01 0.000000000000000e+00
1.753795077857384e-01 4.428829192521446e-01 0.000000000000000e+00
1.756465211740266e-01 4.395473131902536e-01 0.000000000000000e+00
1.748143698217647e-01 4.364731459185287e-01 0.000000000000000e+00
1.702685805419243e-01 4.318805263218320e-01 0.000000000000000e+00
1.675898929488548e-01 4.287547672266245e-01 0.000000000000000e+00
1.662685269360369e-01 4.269137623065940e-01 0.000000000000000e+00
1.678443716693996e-01 4.271060542972642e-01 0.000000000000000e+00
1.685147878821524e-01 4.265675143439267e-01 0.000000000000000e+00
1.682867694128370e-01 4.256191739364065e-01 0.000000000000000e+00
1.542906523615734e-01 4.154424983038517e-01 0.000000000000000e+00
1.579072545563038e-01 4.054306414379193e-01 0.000000000000000e+00
1.545111191276964e-01 4.053018081628162e-01 0.000000000000000e+00

POINT_DATA   64
SCALARS fMag double
LOOKUP_TABLE default

213.98803027413595 
82.1495970231199 
89.87980910523662 
7.124268818861394 
308.72613050535347 
255.28299503301298 
131.91141492929486 
59.80182072261602 
48.14597469770337 
202.17619046442846 
315.8571839494232 
114.48102347936698 
32.20826089097761 
90.05643300773087 
127.45517015080613 
9.511833779431281 
11.07927229371892 
33.28881157642645 
43.401766090575904 
86.1943977247063 
37.92449283925585 
52.5584210973017 
42.023046061012224 
57.824466645028956 
41.8781974534882 
60.127873345778276 
45.483112039798975 
31.554233918379943 
43.89194679914341 
112.52120855329693 
71.92460245977558 
113.92819558575873 
219.0658789551738 
124.69588434693316 
207.66014697444393 
59.31013111831295 
61.58279327043782 
29.30002808553851 
266.5383779617193 
83.27754087896164 
520.4711590671867 
121.76617534162813 
42.82366062536981 
233.14974331540506 
76.18810405108934 
62.06463114677968 
42.41526604143911 
24.203427557923394 
42.045365782501 
16.575721921873807 
25.13625475519532 
64.49388632544503 
58.157893125226856 
28.144071691516547 
99.5310993394297 
59.1985628840025 
46.61829319989651 
88.08505682018507 
28.97690003998009 
24.52336934365121 
412.2447640145269 
437.98348726412155 
304.9968192842816 
274.55353468013203 
