# vtk DataFile Version 2.0
fNorm
ASCII
DATASET UNSTRUCTURED_GRID

POINTS 64 float
7.062749084701359e-01 5.000017985327140e-01 0.000000000000000e+00
7.056234774718304e-01 5.342561551457043e-01 0.000000000000000e+00
7.037014277670990e-01 5.682639576398407e-01 0.000000000000000e+00
7.004293484008882e-01 6.018039533223960e-01 0.000000000000000e+00
6.958635365286722e-01 6.345759852454284e-01 0.000000000000000e+00
6.899636215432322e-01 6.662922423929730e-01 0.000000000000000e+00
6.825476677918187e-01 6.969205570508206e-01 0.000000000000000e+00
6.735849702366780e-01 7.262320836004640e-01 0.000000000000000e+00
6.629151278462546e-01 7.537394887461029e-01 0.000000000000000e+00
6.501554816553627e-01 7.793812283293975e-01 0.000000000000000e+00
6.352958767829077e-01 8.022621326234806e-01 0.000000000000000e+00
6.180157035742674e-01 8.225566678319359e-01 0.000000000000000e+00
5.983534279722363e-01 8.399606776496109e-01 0.000000000000000e+00
5.761647419300774e-01 8.540145963465411e-01 0.000000000000000e+00
5.519129889783042e-01 8.642466166700847e-01 0.000000000000000e+00
5.263412459121526e-01 8.703994776778762e-01 0.000000000000000e+00
5.000090440557311e-01 8.723357176025841e-01 0.000000000000000e+00
4.736751595789205e-01 8.703951395520411e-01 0.000000000000000e+00
4.481150195914891e-01 8.642581273328033e-01 0.000000000000000e+00
4.238691613046955e-01 8.540452724716177e-01 0.000000000000000e+00
4.016665024399199e-01 8.400072851312943e-01 0.000000000000000e+00
3.819872156552773e-01 8.226081856110408e-01 0.000000000000000e+00
3.647070445570408e-01 8.023091282156433e-01 0.000000000000000e+00
3.498548412635695e-01 7.794174506344848e-01 0.000000000000000e+00
3.370944403554644e-01 7.537658523516488e-01 0.000000000000000e+00
3.264250068724663e-01 7.262492272713293e-01 0.000000000000000e+00
3.174632427641561e-01 6.969320440774351e-01 0.000000000000000e+00
3.100445574881736e-01 6.663006301739745e-01 0.000000000000000e+00
3.041416705333530e-01 6.345821677843964e-01 0.000000000000000e+00
2.995736067238443e-01 6.018083438394995e-01 0.000000000000000e+00
2.962999289132584e-01 5.682667641283208e-01 0.000000000000000e+00
2.943770259317879e-01 5.342575219680360e-01 0.000000000000000e+00
2.937253501721988e-01 5.000017983091567e-01 0.000000000000000e+00
2.943860799725675e-01 4.657457698890330e-01 0.000000000000000e+00
2.963015625464176e-01 4.317358043183154e-01 0.000000000000000e+00
2.995679719269552e-01 3.981914389031338e-01 0.000000000000000e+00
3.041226114841145e-01 3.654166074599122e-01 0.000000000000000e+00
3.100357513265785e-01 3.336995023566675e-01 0.000000000000000e+00
3.174537736333602e-01 3.030664068569069e-01 0.000000000000000e+00
3.264216433857976e-01 2.737523919840196e-01 0.000000000000000e+00
3.370954237881479e-01 2.462366018965401e-01 0.000000000000000e+00
3.498564479206674e-01 2.205852430591617e-01 0.000000000000000e+00
3.647087992148125e-01 1.976935791605465e-01 0.000000000000000e+00
3.819886934192407e-01 1.773942654224277e-01 0.000000000000000e+00
4.016674899981515e-01 1.599948530317953e-01 0.000000000000000e+00
4.238697617680593e-01 1.459565632090088e-01 0.000000000000000e+00
4.481153564676659e-01 1.357435231084806e-01 0.000000000000000e+00
4.736753141544102e-01 1.296063961376161e-01 0.000000000000000e+00
5.000090438144339e-01 1.276657841849468e-01 0.000000000000000e+00
5.263410917840824e-01 1.296020578308581e-01 0.000000000000000e+00
5.519126520011983e-01 1.357550338736800e-01 0.000000000000000e+00
5.761641409850786e-01 1.459872399215501e-01 0.000000000000000e+00
5.983524399860811e-01 1.600414609759575e-01 0.000000000000000e+00
6.180142259791428e-01 1.774457835688697e-01 0.000000000000000e+00
6.352941227910877e-01 1.977405750725130e-01 0.000000000000000e+00
6.501538753554900e-01 2.206214651298706e-01 0.000000000000000e+00
6.629141454418027e-01 2.462629658080794e-01 0.000000000000000e+00
6.735883359177577e-01 2.737695345104703e-01 0.000000000000000e+00
6.825571373340591e-01 3.030778930689806e-01 0.000000000000000e+00
6.899724278895752e-01 3.337078899459434e-01 0.000000000000000e+00
6.958825965448548e-01 3.654227887320230e-01 0.000000000000000e+00
7.004349824179141e-01 3.981958292537867e-01 0.000000000000000e+00
7.036997943371767e-01 4.317386100179268e-01 0.000000000000000e+00
7.056144228777980e-01 4.657471367226708e-01 0.000000000000000e+00

POINT_DATA   64
SCALARS fNorm double
LOOKUP_TABLE default

[ 33.4932456] 
[ 32.66351317] 
[ 35.12185241] 
[ 34.96268748] 
[ 37.70402054] 
[ 42.87827618] 
[ 45.85737166] 
[ 54.72015947] 
[ 66.01823235] 
[ 79.13428456] 
[ 86.79256506] 
[ 92.69738468] 
[ 105.30170678] 
[ 108.77519305] 
[ 106.47336178] 
[ 105.63923168] 
[ 95.38382769] 
[ 105.15704419] 
[ 106.36044877] 
[ 108.65516288] 
[ 105.47101018] 
[ 93.16724312] 
[ 87.04302918] 
[ 78.92077248] 
[ 66.0133512] 
[ 54.70423242] 
[ 45.76135071] 
[ 42.87043024] 
[ 37.72377519] 
[ 34.97963124] 
[ 35.13942047] 
[ 32.67746836] 
[ 33.50426682] 
[ 32.23830803] 
[ 35.15152305] 
[ 34.84471741] 
[ 38.32859367] 
[ 42.58583] 
[ 45.9323595] 
[ 54.6496329] 
[ 65.92740101] 
[ 78.90869918] 
[ 87.03320298] 
[ 93.16376348] 
[ 105.47322219] 
[ 108.65905293] 
[ 106.36265066] 
[ 105.15896692] 
[ 95.38520652] 
[ 105.64116948] 
[ 106.47556852] 
[ 108.77907244] 
[ 105.30391549] 
[ 92.693906] 
[ 86.78274665] 
[ 79.12219949] 
[ 65.93226273] 
[ 54.665646] 
[ 46.02835114] 
[ 42.59365438] 
[ 38.30890523] 
[ 34.82769857] 
[ 35.13399886] 
[ 32.22432212] 
