# vtk DataFile Version 2.0
fNorm
ASCII
DATASET UNSTRUCTURED_GRID

POINTS 64 float
8.315855376495777e-01 4.999982001726024e-01 0.000000000000000e+00
8.302580085324380e-01 5.254846931561444e-01 0.000000000000000e+00
8.256961453789778e-01 5.500811153963117e-01 0.000000000000000e+00
8.186144374413026e-01 5.730393335614364e-01 0.000000000000000e+00
8.084907324131916e-01 5.951523490992371e-01 0.000000000000000e+00
7.956293848871460e-01 6.161137268039564e-01 0.000000000000000e+00
7.805580973657924e-01 6.352354532213073e-01 0.000000000000000e+00
7.625456025940265e-01 6.536439891769196e-01 0.000000000000000e+00
7.415993956070330e-01 6.699665843931063e-01 0.000000000000000e+00
7.182937342215860e-01 6.848574653983068e-01 0.000000000000000e+00
6.926520112721372e-01 6.978280310546024e-01 0.000000000000000e+00
6.646696183335501e-01 7.087879938127769e-01 0.000000000000000e+00
6.343632885658456e-01 7.178628568929012e-01 0.000000000000000e+00
6.023857264018335e-01 7.249683952892814e-01 0.000000000000000e+00
5.688734527345342e-01 7.299433959401960e-01 0.000000000000000e+00
5.345637110830459e-01 7.327851379422193e-01 0.000000000000000e+00
4.999789603664099e-01 7.338087458564446e-01 0.000000000000000e+00
4.653952403799863e-01 7.327874930155301e-01 0.000000000000000e+00
4.310887080373903e-01 7.299493123295056e-01 0.000000000000000e+00
3.975774787489426e-01 7.249757036951634e-01 0.000000000000000e+00
3.655993716470018e-01 7.178710583398814e-01 0.000000000000000e+00
3.352911091320676e-01 7.087940369137838e-01 0.000000000000000e+00
3.073092713390497e-01 6.978321776980960e-01 0.000000000000000e+00
2.816725623268297e-01 6.848578156896442e-01 0.000000000000000e+00
2.583734757860511e-01 6.699658309265321e-01 0.000000000000000e+00
2.374340186087669e-01 6.536395309484814e-01 0.000000000000000e+00
2.194260230813327e-01 6.352297575272525e-01 0.000000000000000e+00
2.043557333930764e-01 6.161078548045198e-01 0.000000000000000e+00
1.914980163746965e-01 5.951477108809932e-01 0.000000000000000e+00
1.813802050684596e-01 5.730354514949046e-01 0.000000000000000e+00
1.743060813289893e-01 5.500767273000287e-01 0.000000000000000e+00
1.697527186505080e-01 5.254826642481604e-01 0.000000000000000e+00
1.684278911925774e-01 4.999981960770086e-01 0.000000000000000e+00
1.697535025650890e-01 4.745181370778730e-01 0.000000000000000e+00
1.743057238670419e-01 4.499223526241772e-01 0.000000000000000e+00
1.813786745390175e-01 4.269638042940356e-01 0.000000000000000e+00
1.915010221124017e-01 4.048462751325459e-01 0.000000000000000e+00
2.043562677958671e-01 3.838929397513996e-01 0.000000000000000e+00
2.194259707409051e-01 3.647635069071691e-01 0.000000000000000e+00
2.374336048370290e-01 3.463623682295316e-01 0.000000000000000e+00
2.583730408405470e-01 3.300292232631707e-01 0.000000000000000e+00
2.816724558244283e-01 3.151430680624199e-01 0.000000000000000e+00
3.073053265531196e-01 3.021688524449197e-01 0.000000000000000e+00
3.352902958473578e-01 2.912071240266587e-01 0.000000000000000e+00
3.655977681718650e-01 2.821321463915960e-01 0.000000000000000e+00
3.975788772336814e-01 2.750262014926552e-01 0.000000000000000e+00
4.310909942031691e-01 2.700548707973778e-01 0.000000000000000e+00
4.653972196982535e-01 2.672154869293257e-01 0.000000000000000e+00
4.999789637303627e-01 2.661981089770857e-01 0.000000000000000e+00
5.345617377478152e-01 2.672178452544271e-01 0.000000000000000e+00
5.688711737996801e-01 2.700607893179182e-01 0.000000000000000e+00
6.023843321539175e-01 2.750335112203287e-01 0.000000000000000e+00
6.343649007922029e-01 2.821403572568298e-01 0.000000000000000e+00
6.646704330459422e-01 2.912131746671359e-01 0.000000000000000e+00
6.926559674478708e-01 3.021730012521685e-01 0.000000000000000e+00
7.182938469275730e-01 3.151434237060631e-01 0.000000000000000e+00
7.415998380450568e-01 3.300284855272380e-01 0.000000000000000e+00
7.625460148809537e-01 3.463579084614496e-01 0.000000000000000e+00
7.805581503073935e-01 3.647578173462019e-01 0.000000000000000e+00
7.956288558872491e-01 3.838870773952492e-01 0.000000000000000e+00
8.084877231691653e-01 4.048416406174947e-01 0.000000000000000e+00
8.186159702793274e-01 4.269599310843827e-01 0.000000000000000e+00
8.256964981363856e-01 4.499179663651082e-01 0.000000000000000e+00
8.302572208343894e-01 4.745161188856370e-01 0.000000000000000e+00

POINT_DATA   64
SCALARS fNorm double
LOOKUP_TABLE default

[ 67.14293178] 
[ 83.89364003] 
[ 72.00600002] 
[ 79.22096262] 
[ 74.18987699] 
[ 71.30491671] 
[ 66.45001772] 
[ 87.52632593] 
[ 63.43812917] 
[ 70.10074774] 
[ 69.54417765] 
[ 63.51634803] 
[ 57.39164975] 
[ 58.97464123] 
[ 55.37989462] 
[ 45.67915309] 
[ 50.90496957] 
[ 45.65461922] 
[ 55.4237253] 
[ 58.97101445] 
[ 57.45082151] 
[ 63.53386119] 
[ 69.64775393] 
[ 70.07679178] 
[ 63.50038587] 
[ 87.43804103] 
[ 66.36303739] 
[ 71.3400147] 
[ 74.24737807] 
[ 79.27262713] 
[ 72.0074967] 
[ 83.74735534] 
[ 67.00456499] 
[ 83.68041779] 
[ 72.0110412] 
[ 79.35155672] 
[ 74.22997786] 
[ 71.17876822] 
[ 66.63819071] 
[ 87.1615168] 
[ 63.76825294] 
[ 69.89227043] 
[ 69.70921847] 
[ 63.54451227] 
[ 57.40032159] 
[ 59.05256808] 
[ 55.33593105] 
[ 45.77623275] 
[ 50.70592877] 
[ 45.80064] 
[ 55.29212492] 
[ 59.05638506] 
[ 57.3409728] 
[ 63.52679092] 
[ 69.6059797] 
[ 69.91628362] 
[ 63.70562033] 
[ 87.25006117] 
[ 66.72507193] 
[ 71.14376651] 
[ 74.17233678] 
[ 79.30005648] 
[ 72.00945311] 
[ 83.82656599] 
