# vtk DataFile Version 2.0
fTan
ASCII
DATASET UNSTRUCTURED_GRID

POINTS 64 float
7.930578143752011e-01 5.000014984994043e-01 0.000000000000000e+00
7.917909290575122e-01 5.273613370883981e-01 0.000000000000000e+00
7.881382703479031e-01 5.542777072892835e-01 0.000000000000000e+00
7.820505522191744e-01 5.802762646880509e-01 0.000000000000000e+00
7.737007697319406e-01 6.049924593959277e-01 0.000000000000000e+00
7.633546665119761e-01 6.284233480678012e-01 0.000000000000000e+00
7.508733594821079e-01 6.505512452793391e-01 0.000000000000000e+00
7.360691675518563e-01 6.713541588654205e-01 0.000000000000000e+00
7.185037427954611e-01 6.902378586911889e-01 0.000000000000000e+00
6.983399305704592e-01 7.073961851659564e-01 0.000000000000000e+00
6.754381377690956e-01 7.225541295257634e-01 0.000000000000000e+00
6.501734277872865e-01 7.354489648395728e-01 0.000000000000000e+00
6.222539470794278e-01 7.463610112388034e-01 0.000000000000000e+00
5.927232900714976e-01 7.549327972722555e-01 0.000000000000000e+00
5.621179200067522e-01 7.608998761845165e-01 0.000000000000000e+00
5.311580805217266e-01 7.645940181333010e-01 0.000000000000000e+00
5.000053107727168e-01 7.658731888482778e-01 0.000000000000000e+00
4.688577110513625e-01 7.646001789888361e-01 0.000000000000000e+00
4.379055991123672e-01 7.609081529324538e-01 0.000000000000000e+00
4.073029941269888e-01 7.549365086523804e-01 0.000000000000000e+00
3.777742703256440e-01 7.463660526522486e-01 0.000000000000000e+00
3.498451807779334e-01 7.354556698906834e-01 0.000000000000000e+00
3.245723229445648e-01 7.225646622187989e-01 0.000000000000000e+00
3.016612187442955e-01 7.074094810734090e-01 0.000000000000000e+00
2.814967060653722e-01 6.902502560971768e-01 0.000000000000000e+00
2.639356531482798e-01 6.713572296809580e-01 0.000000000000000e+00
2.491357074233876e-01 6.505535968233676e-01 0.000000000000000e+00
2.366559486630518e-01 6.284304987337921e-01 0.000000000000000e+00
2.263084964798149e-01 6.050067890602789e-01 0.000000000000000e+00
2.179540006986311e-01 5.802932615154818e-01 0.000000000000000e+00
2.118575111921444e-01 5.542929677297982e-01 0.000000000000000e+00
2.081974268774880e-01 5.273708846163122e-01 0.000000000000000e+00
2.069277177676095e-01 5.000014994383130e-01 0.000000000000000e+00
2.081943541233701e-01 4.726320061589804e-01 0.000000000000000e+00
2.118516871667039e-01 4.457092689819264e-01 0.000000000000000e+00
2.179554293363552e-01 4.197131038565647e-01 0.000000000000000e+00
2.263096918949511e-01 3.949922932455387e-01 0.000000000000000e+00
2.366591042005255e-01 3.715785101052911e-01 0.000000000000000e+00
2.491342931484221e-01 3.494389417993690e-01 0.000000000000000e+00
2.639319700327015e-01 3.286472279880707e-01 0.000000000000000e+00
2.814941550205016e-01 3.097491802469885e-01 0.000000000000000e+00
3.016591947806808e-01 2.925943142093333e-01 0.000000000000000e+00
3.245681619424520e-01 2.774445021705560e-01 0.000000000000000e+00
3.498448611754629e-01 2.645507049956999e-01 0.000000000000000e+00
3.777767090891378e-01 2.536399610480149e-01 0.000000000000000e+00
4.073047381619113e-01 2.450620978712198e-01 0.000000000000000e+00
4.379068914257328e-01 2.390835747839184e-01 0.000000000000000e+00
4.688586349222710e-01 2.353870206376008e-01 0.000000000000000e+00
5.000053111019597e-01 2.341106268699056e-01 0.000000000000000e+00
5.311571572186985e-01 2.353931842979403e-01 0.000000000000000e+00
5.621166286499516e-01 2.390918548662632e-01 0.000000000000000e+00
5.927215477284125e-01 2.450658171727271e-01 0.000000000000000e+00
6.222515089972824e-01 2.536450062198525e-01 0.000000000000000e+00
6.501737518953323e-01 2.645574114737022e-01 0.000000000000000e+00
6.754422995849141e-01 2.774550393157237e-01 0.000000000000000e+00
6.983419537937544e-01 2.926076085695237e-01 0.000000000000000e+00
7.185062997075117e-01 3.097615855922078e-01 0.000000000000000e+00
7.360728516353042e-01 3.286502907394821e-01 0.000000000000000e+00
7.508747713314222e-01 3.494413007405154e-01 0.000000000000000e+00
7.633515127794555e-01 3.715856729290364e-01 0.000000000000000e+00
7.736995831219277e-01 3.950066078564730e-01 0.000000000000000e+00
7.820491169920309e-01 4.197301087785741e-01 0.000000000000000e+00
7.881440920120069e-01 4.457245335555844e-01 0.000000000000000e+00
7.917940077134888e-01 4.726415521782527e-01 0.000000000000000e+00

POINT_DATA   64
SCALARS fTan double
LOOKUP_TABLE default

[ 0.00149286] 
[ 5.19255694] 
[ 10.80259542] 
[ 14.21351626] 
[ 10.71286133] 
[ 4.10900945] 
[ 4.28282465] 
[ 7.7631872] 
[ 18.27000839] 
[ 25.83564933] 
[ 24.09360113] 
[ 41.51772198] 
[ 20.50574466] 
[ 11.58105949] 
[ 0.30965044] 
[ 0.59886078] 
[ 0.1417534] 
[ 0.52979532] 
[ 0.46624988] 
[ 11.5767931] 
[ 20.22986684] 
[ 41.58956183] 
[ 24.08558352] 
[ 25.98060364] 
[ 18.2137558] 
[ 7.89700669] 
[ 4.3466594] 
[ 4.09118375] 
[ 10.84321739] 
[ 14.3302824] 
[ 10.86969009] 
[ 5.26152038] 
[ 0.00148031] 
[ 5.25443339] 
[ 10.93110082] 
[ 14.10304499] 
[ 11.21746428] 
[ 3.59581999] 
[ 3.77786301] 
[ 8.28210275] 
[ 18.04866723] 
[ 25.92284683] 
[ 24.31744353] 
[ 41.53965429] 
[ 20.19294441] 
[ 11.56508676] 
[ 0.47976065] 
[ 0.55168353] 
[ 0.14177198] 
[ 0.62074612] 
[ 0.32315655] 
[ 11.56940977] 
[ 20.46870276] 
[ 41.46792772] 
[ 24.32554868] 
[ 25.77748389] 
[ 18.1055956] 
[ 8.14762181] 
[ 3.7141187] 
[ 3.61290209] 
[ 11.08809557] 
[ 13.98572702] 
[ 10.8640427] 
[ 5.18555121] 
