# vtk DataFile Version 2.0
fTan
ASCII
DATASET UNSTRUCTURED_GRID

POINTS 64 float
8.737936425543514e-01 4.999958800738788e-01 0.000000000000000e+00
8.720858104042407e-01 5.249519740183030e-01 0.000000000000000e+00
8.660597849763645e-01 5.496558125449614e-01 0.000000000000000e+00
8.554183971680943e-01 5.731923072435222e-01 0.000000000000000e+00
8.407196798004688e-01 5.956538862381684e-01 0.000000000000000e+00
8.222605725454635e-01 6.159944669688254e-01 0.000000000000000e+00
8.014460362281753e-01 6.330306164384933e-01 0.000000000000000e+00
7.776393529887257e-01 6.483176942855772e-01 0.000000000000000e+00
7.518488189951676e-01 6.613524542572046e-01 0.000000000000000e+00
7.242536850069659e-01 6.727893633863362e-01 0.000000000000000e+00
6.950285531203135e-01 6.821809125530417e-01 0.000000000000000e+00
6.644254696860322e-01 6.900968873302183e-01 0.000000000000000e+00
6.327874947123675e-01 6.964932940735526e-01 0.000000000000000e+00
6.005591576224558e-01 7.013955742146819e-01 0.000000000000000e+00
5.675674620778378e-01 7.049062082053918e-01 0.000000000000000e+00
5.340750675070607e-01 7.070543154433145e-01 0.000000000000000e+00
4.999769838418176e-01 7.077923893730748e-01 0.000000000000000e+00
4.658764727087540e-01 7.070543472678729e-01 0.000000000000000e+00
4.323823022398043e-01 7.049075340748704e-01 0.000000000000000e+00
3.993909583121741e-01 7.013969106489919e-01 0.000000000000000e+00
3.671687132816923e-01 6.964941457789006e-01 0.000000000000000e+00
3.355385425959396e-01 6.900939007021083e-01 0.000000000000000e+00
3.049432916111710e-01 6.821783455394143e-01 0.000000000000000e+00
2.757210247606632e-01 6.727862933399952e-01 0.000000000000000e+00
2.481287818418796e-01 6.613516882744406e-01 0.000000000000000e+00
2.223413711240444e-01 6.483149062093053e-01 0.000000000000000e+00
1.985407146004390e-01 6.330258818278086e-01 0.000000000000000e+00
1.777311272842750e-01 6.159872428856710e-01 0.000000000000000e+00
1.592754321192301e-01 5.956434759564331e-01 0.000000000000000e+00
1.445781740422162e-01 5.731837295835142e-01 0.000000000000000e+00
1.339360126468145e-01 5.496494002226275e-01 0.000000000000000e+00
1.279114888276239e-01 5.249481410607266e-01 0.000000000000000e+00
1.262031580561607e-01 4.999958790097047e-01 0.000000000000000e+00
1.279085726973926e-01 4.750459375502342e-01 0.000000000000000e+00
1.339345897999243e-01 4.503410171544417e-01 0.000000000000000e+00
1.445753959020969e-01 4.268092396339057e-01 0.000000000000000e+00
1.592744604172086e-01 4.043499537175986e-01 0.000000000000000e+00
1.777243951347768e-01 3.840183711853313e-01 0.000000000000000e+00
1.985427830805508e-01 3.669727400387284e-01 0.000000000000000e+00
2.223376266272906e-01 3.516949575092994e-01 0.000000000000000e+00
2.481289114846426e-01 3.386450396698986e-01 0.000000000000000e+00
2.757202184238999e-01 3.272143492729601e-01 0.000000000000000e+00
3.049421015062357e-01 3.178196450832462e-01 0.000000000000000e+00
3.355406847759286e-01 3.099059439806796e-01 0.000000000000000e+00
3.671688892824607e-01 3.035119840657277e-01 0.000000000000000e+00
3.993901667730568e-01 2.986067043968756e-01 0.000000000000000e+00
4.323795679227178e-01 2.950954588016156e-01 0.000000000000000e+00
4.658745595022737e-01 2.929457305276107e-01 0.000000000000000e+00
4.999769868970839e-01 2.922056394411759e-01 0.000000000000000e+00
5.340769809160257e-01 2.929457604967565e-01 0.000000000000000e+00
5.675702006017996e-01 2.950967843622684e-01 0.000000000000000e+00
6.005599537608678e-01 2.986080450972083e-01 0.000000000000000e+00
6.327873206246644e-01 3.035128352472686e-01 0.000000000000000e+00
6.644233264231194e-01 3.099029631172889e-01 0.000000000000000e+00
6.950297494369687e-01 3.178170821808661e-01 0.000000000000000e+00
7.242544890582439e-01 3.272112811336588e-01 0.000000000000000e+00
7.518486984807834e-01 3.386442842296552e-01 0.000000000000000e+00
7.776430947108913e-01 3.516921710657311e-01 0.000000000000000e+00
8.014439746364639e-01 3.669680175213065e-01 0.000000000000000e+00
8.222673201595301e-01 3.840111513456142e-01 0.000000000000000e+00
8.407206515174651e-01 4.043395417296076e-01 0.000000000000000e+00
8.554211720522360e-01 4.268006739772415e-01 0.000000000000000e+00
8.660612058510196e-01 4.503346083540484e-01 0.000000000000000e+00
8.720887382352795e-01 4.750421102656509e-01 0.000000000000000e+00

POINT_DATA   64
SCALARS fTan double
LOOKUP_TABLE default

[ 0.06081988] 
[ 10.97093725] 
[ 10.66499156] 
[ 25.2747497] 
[ 15.29796437] 
[ 14.1329701] 
[ 33.94451466] 
[ 14.50394846] 
[ 23.38544391] 
[ 19.70706211] 
[ 22.64293727] 
[ 15.83227851] 
[ 6.74810056] 
[ 13.41483189] 
[ 8.96708746] 
[ 13.35797131] 
[ 0.0626727] 
[ 13.37453437] 
[ 9.02068806] 
[ 13.55827036] 
[ 6.77270424] 
[ 15.85143518] 
[ 22.51129991] 
[ 19.73161302] 
[ 23.34243294] 
[ 14.55821082] 
[ 33.90049698] 
[ 14.19076319] 
[ 15.36055866] 
[ 25.25506662] 
[ 10.69076501] 
[ 10.99350381] 
[ 0.06071368] 
[ 11.1570986] 
[ 10.51877571] 
[ 25.3410452] 
[ 15.01997956] 
[ 13.57911737] 
[ 33.3334065] 
[ 15.07269013] 
[ 23.04673982] 
[ 19.80364662] 
[ 22.56724979] 
[ 15.70618266] 
[ 6.83931515] 
[ 13.52569185] 
[ 9.08991571] 
[ 13.39586073] 
[ 0.06282022] 
[ 13.37904329] 
[ 9.03639838] 
[ 13.38237082] 
[ 6.81463263] 
[ 15.68684056] 
[ 22.6992851] 
[ 19.77852672] 
[ 23.09048797] 
[ 15.01765811] 
[ 33.37776166] 
[ 13.52093598] 
[ 14.95677884] 
[ 25.36116505] 
[ 10.49269062] 
[ 11.13476476] 
