# vtk DataFile Version 2.0
fTan
ASCII
DATASET UNSTRUCTURED_GRID

POINTS 64 float
1.596609266728367e-01 4.121501397488809e-01 0.000000000000000e+00
2.135799439341841e-01 4.339219843027663e-01 0.000000000000000e+00
8.242419977114542e-01 7.031466056301622e-01 0.000000000000000e+00
1.282368501178014e-01 6.498642699108260e-01 0.000000000000000e+00
6.554344783583224e-02 5.253751095870519e-01 0.000000000000000e+00
5.484209300324071e-02 5.313464540108791e-01 0.000000000000000e+00
5.120580472164568e-02 5.301272984105813e-01 0.000000000000000e+00
5.174548737410153e-02 5.257427852885678e-01 0.000000000000000e+00
5.455967078455548e-02 5.221210486844168e-01 0.000000000000000e+00
5.920331615551165e-02 5.179485153342358e-01 0.000000000000000e+00
5.738374959351295e-02 5.185353606583543e-01 0.000000000000000e+00
6.733308416766476e-02 5.236860132395598e-01 0.000000000000000e+00
7.297862648304311e-02 5.300725806416792e-01 0.000000000000000e+00
7.765036307890390e-02 5.356187322224455e-01 0.000000000000000e+00
7.998411045573305e-02 5.384299056062214e-01 0.000000000000000e+00
8.280790394699369e-02 5.362186064014186e-01 0.000000000000000e+00
8.587010843095255e-02 5.337167485023327e-01 0.000000000000000e+00
8.875080854228272e-02 5.308080510471516e-01 0.000000000000000e+00
9.179336872418963e-02 5.292035570096584e-01 0.000000000000000e+00
9.565942612782080e-02 5.291247645329875e-01 0.000000000000000e+00
1.010148528660294e-01 5.321649646418428e-01 0.000000000000000e+00
1.059418484386496e-01 5.337758839113731e-01 0.000000000000000e+00
1.107299516491319e-01 5.333055817322677e-01 0.000000000000000e+00
1.145020804897163e-01 5.314886407716899e-01 0.000000000000000e+00
1.181943541501971e-01 5.319924961976605e-01 0.000000000000000e+00
1.216915349917660e-01 5.308301664513323e-01 0.000000000000000e+00
1.245530595749358e-01 5.273310183409594e-01 0.000000000000000e+00
1.262437925699791e-01 5.224088862434285e-01 0.000000000000000e+00
1.268834944087209e-01 5.167485682332259e-01 0.000000000000000e+00
1.258765940965145e-01 5.104040034893806e-01 0.000000000000000e+00
1.206073043835950e-01 5.024175219794662e-01 0.000000000000000e+00
1.124069252096894e-01 4.944302779673572e-01 0.000000000000000e+00
1.085759965279246e-01 4.880047195267203e-01 0.000000000000000e+00
1.118843902308575e-01 4.867841122982097e-01 0.000000000000000e+00
1.188461148707219e-01 4.889937028884496e-01 0.000000000000000e+00
1.199631544134526e-01 4.852307183978952e-01 0.000000000000000e+00
1.218776237260990e-01 4.792341646607957e-01 0.000000000000000e+00
1.248047381840630e-01 4.754752161774510e-01 0.000000000000000e+00
1.274615306851611e-01 4.728503162716627e-01 0.000000000000000e+00
1.368423220700136e-01 4.785186127547206e-01 0.000000000000000e+00
1.492649443750292e-01 4.855916097488772e-01 0.000000000000000e+00
1.504294282481947e-01 4.751373005676990e-01 0.000000000000000e+00
1.481472970731346e-01 4.613490209429734e-01 0.000000000000000e+00
1.476839474983006e-01 4.478443542296958e-01 0.000000000000000e+00
1.501927913480598e-01 4.431612499705314e-01 0.000000000000000e+00
1.531889196141483e-01 4.414881264020976e-01 0.000000000000000e+00
1.564970623573491e-01 4.422780947022475e-01 0.000000000000000e+00
1.597051452571731e-01 4.413829741911373e-01 0.000000000000000e+00
1.633910730789579e-01 4.413301352632684e-01 0.000000000000000e+00
1.672278614550396e-01 4.429405865249505e-01 0.000000000000000e+00
1.704273115926125e-01 4.443566590541929e-01 0.000000000000000e+00
1.732125333315241e-01 4.448614294949603e-01 0.000000000000000e+00
1.753795077857384e-01 4.428829192521446e-01 0.000000000000000e+00
1.756465211740266e-01 4.395473131902536e-01 0.000000000000000e+00
1.748143698217647e-01 4.364731459185287e-01 0.000000000000000e+00
1.702685805419243e-01 4.318805263218320e-01 0.000000000000000e+00
1.675898929488548e-01 4.287547672266245e-01 0.000000000000000e+00
1.662685269360369e-01 4.269137623065940e-01 0.000000000000000e+00
1.678443716693996e-01 4.271060542972642e-01 0.000000000000000e+00
1.685147878821524e-01 4.265675143439267e-01 0.000000000000000e+00
1.682867694128370e-01 4.256191739364065e-01 0.000000000000000e+00
1.542906523615734e-01 4.154424983038517e-01 0.000000000000000e+00
1.579072545563038e-01 4.054306414379193e-01 0.000000000000000e+00
1.545111191276964e-01 4.053018081628162e-01 0.000000000000000e+00

POINT_DATA   64
SCALARS fTan double
LOOKUP_TABLE default

[ 190.48370034] 
[ 82.14946248] 
[ 0.72025791] 
[ 6.28286411] 
[ 10.32619984] 
[ 227.20047183] 
[ 20.2488187] 
[ 3.65274531] 
[ 41.59893155] 
[ 194.89622331] 
[ 306.96402211] 
[ 69.54636745] 
[ 31.91147692] 
[ 90.04020533] 
[ 1.13722734] 
[ 9.33768937] 
[ 3.89053741] 
[ 17.36884109] 
[ 9.84132102] 
[ 58.25904488] 
[ 23.74146859] 
[ 8.92526108] 
[ 15.59076991] 
[ 12.20391867] 
[ 0.81365297] 
[ 21.79137428] 
[ 17.33512023] 
[ 12.41994632] 
[ 18.61338769] 
[ 80.83937627] 
[ 47.56134601] 
[ 99.63573997] 
[ 143.10230608] 
[ 97.46516042] 
[ 111.88849825] 
[ 59.22685827] 
[ 39.88814779] 
[ 26.10064063] 
[ 211.40897964] 
[ 82.97147266] 
[ 159.81662608] 
[ 89.18554641] 
[ 12.71669105] 
[ 211.56306333] 
[ 48.65959399] 
[ 0.41851933] 
[ 2.34080444] 
[ 9.01046127] 
[ 12.46890325] 
[ 16.45432305] 
[ 16.95814095] 
[ 2.69994081] 
[ 11.02052116] 
[ 4.52921326] 
[ 83.41226128] 
[ 58.49991392] 
[ 46.17385846] 
[ 38.60287607] 
[ 19.60991518] 
[ 3.23163023] 
[ 410.94326681] 
[ 198.16457454] 
[ 255.13635956] 
[ 221.14085576] 
