# vtk DataFile Version 2.0
fTan
ASCII
DATASET UNSTRUCTURED_GRID

POINTS 64 float
1.675241152666240e-01 4.184902136393873e-01 0.000000000000000e+00
2.203767668408639e-01 4.593862827339567e-01 0.000000000000000e+00
6.929746036261031e-01 7.627101031653430e-01 0.000000000000000e+00
1.096419192397113e-01 6.750352642953198e-01 0.000000000000000e+00
3.867678313629333e-02 5.436794927747347e-01 0.000000000000000e+00
3.359131857315292e-02 5.472359017592273e-01 0.000000000000000e+00
2.967990552771633e-02 5.438612703251213e-01 0.000000000000000e+00
2.860993954713609e-02 5.395642705594322e-01 0.000000000000000e+00
2.989674108553883e-02 5.369296978946427e-01 0.000000000000000e+00
3.222898816301124e-02 5.334817648792043e-01 0.000000000000000e+00
3.116572213664090e-02 5.337072092227316e-01 0.000000000000000e+00
3.892536004674551e-02 5.417309950833971e-01 0.000000000000000e+00
4.511764993260977e-02 5.490179603091201e-01 0.000000000000000e+00
5.042197991075734e-02 5.546030448434602e-01 0.000000000000000e+00
5.305655098901187e-02 5.573710525362543e-01 0.000000000000000e+00
5.324597395843721e-02 5.532331679312811e-01 0.000000000000000e+00
5.342203010370423e-02 5.485637831849460e-01 0.000000000000000e+00
5.332571670376322e-02 5.435585600885298e-01 0.000000000000000e+00
5.402314355516455e-02 5.397915094093693e-01 0.000000000000000e+00
5.599469284729049e-02 5.366819356005537e-01 0.000000000000000e+00
6.030669080095416e-02 5.354431095179082e-01 0.000000000000000e+00
6.375172288293512e-02 5.334998776132712e-01 0.000000000000000e+00
6.640513332435057e-02 5.296515367261021e-01 0.000000000000000e+00
6.819066049165791e-02 5.251201323011896e-01 0.000000000000000e+00
7.082211843594899e-02 5.237061325993974e-01 0.000000000000000e+00
7.308052038610031e-02 5.205644204396773e-01 0.000000000000000e+00
7.538377015816326e-02 5.147700074478200e-01 0.000000000000000e+00
7.814206653954746e-02 5.075993067275227e-01 0.000000000000000e+00
8.138838924931290e-02 5.001675422929669e-01 0.000000000000000e+00
8.440546865951408e-02 4.931624229586013e-01 0.000000000000000e+00
8.406742645123903e-02 4.868607363379982e-01 0.000000000000000e+00
8.112999309145091e-02 4.812452015723280e-01 0.000000000000000e+00
8.364870267160308e-02 4.734924993265453e-01 0.000000000000000e+00
8.752114025730928e-02 4.712818329945334e-01 0.000000000000000e+00
9.208970980516386e-02 4.725909116310262e-01 0.000000000000000e+00
9.565202335723524e-02 4.677736863123590e-01 0.000000000000000e+00
1.000911138898374e-01 4.596989687969048e-01 0.000000000000000e+00
1.033774605367761e-01 4.544720931673330e-01 0.000000000000000e+00
1.060639200086643e-01 4.511763826551362e-01 0.000000000000000e+00
1.135071809552696e-01 4.585257428269700e-01 0.000000000000000e+00
1.239224171701910e-01 4.694654231890477e-01 0.000000000000000e+00
1.294321896953898e-01 4.644590098006081e-01 0.000000000000000e+00
1.327665574625135e-01 4.562282626199919e-01 0.000000000000000e+00
1.403215781835271e-01 4.508347201059159e-01 0.000000000000000e+00
1.464567347577369e-01 4.505850916713989e-01 0.000000000000000e+00
1.509751091480352e-01 4.510636183865045e-01 0.000000000000000e+00
1.541858292730286e-01 4.525832855740945e-01 0.000000000000000e+00
1.581634799923081e-01 4.515692750073727e-01 0.000000000000000e+00
1.620996780989657e-01 4.499688349312630e-01 0.000000000000000e+00
1.656328286154599e-01 4.497765500770378e-01 0.000000000000000e+00
1.687014012499919e-01 4.498357591353631e-01 0.000000000000000e+00
1.716881612587821e-01 4.492791761421681e-01 0.000000000000000e+00
1.747353764152602e-01 4.467352078440719e-01 0.000000000000000e+00
1.759885381819006e-01 4.435744680439564e-01 0.000000000000000e+00
1.759223728303494e-01 4.408724562345533e-01 0.000000000000000e+00
1.723737634518628e-01 4.371559475056465e-01 0.000000000000000e+00
1.705922011700329e-01 4.343502698766775e-01 0.000000000000000e+00
1.698414580409151e-01 4.326307764342600e-01 0.000000000000000e+00
1.712301569025278e-01 4.325466860529408e-01 0.000000000000000e+00
1.719747361066374e-01 4.318771872548123e-01 0.000000000000000e+00
1.719762470629523e-01 4.309158661510781e-01 0.000000000000000e+00
1.629568559645868e-01 4.237472661267811e-01 0.000000000000000e+00
1.671562779202285e-01 4.122417584217223e-01 0.000000000000000e+00
1.647232925663806e-01 4.134050373419597e-01 0.000000000000000e+00

POINT_DATA   64
SCALARS fTan double
LOOKUP_TABLE default

[ 135.64341129] 
[ 2.69742701] 
[ 0.23663283] 
[ 2.77373243] 
[ 12.99551701] 
[ 34.22826322] 
[ 20.47752202] 
[ 41.03272347] 
[ 30.41247158] 
[ 115.37638932] 
[ 293.67255335] 
[ 40.80376652] 
[ 46.74058284] 
[ 97.76250123] 
[ 20.66747938] 
[ 13.39165661] 
[ 8.62449229] 
[ 29.82306455] 
[ 4.418005] 
[ 20.47718915] 
[ 13.10788525] 
[ 19.18694524] 
[ 5.40484721] 
[ 50.41505825] 
[ 22.86942806] 
[ 59.86430412] 
[ 36.44999869] 
[ 11.03032489] 
[ 11.63065639] 
[ 33.89571085] 
[ 0.12167951] 
[ 50.52100047] 
[ 99.24309247] 
[ 8.35919607] 
[ 37.80342506] 
[ 81.20535255] 
[ 76.83784839] 
[ 48.44399291] 
[ 208.34365439] 
[ 115.82433597] 
[ 253.39391005] 
[ 35.60878819] 
[ 10.40111133] 
[ 82.08787025] 
[ 40.19866364] 
[ 25.43268227] 
[ 15.22830309] 
[ 3.55497215] 
[ 18.19345956] 
[ 11.90160778] 
[ 0.81479998] 
[ 23.9652239] 
[ 14.5797641] 
[ 17.51724575] 
[ 65.34659179] 
[ 45.78504101] 
[ 36.40958457] 
[ 20.81507609] 
[ 10.35909496] 
[ 1.05854604] 
[ 272.62440925] 
[ 21.55944434] 
[ 339.94350879] 
[ 106.10325064] 
