# vtk DataFile Version 2.0
fTan
ASCII
DATASET UNSTRUCTURED_GRID

POINTS 64 float
8.504572631165024e-01 5.000009082842282e-01 0.000000000000000e+00
8.479273347341110e-01 5.320878029712458e-01 0.000000000000000e+00
8.406083300605143e-01 5.628294849510697e-01 0.000000000000000e+00
8.287343029056111e-01 5.914009825349896e-01 0.000000000000000e+00
8.125144889864029e-01 6.170157488545776e-01 0.000000000000000e+00
7.926367465343355e-01 6.389184102876893e-01 0.000000000000000e+00
7.702636668054926e-01 6.569722415859515e-01 0.000000000000000e+00
7.461469852069834e-01 6.716738272251239e-01 0.000000000000000e+00
7.208357023397167e-01 6.833372860822110e-01 0.000000000000000e+00
6.941412121642143e-01 6.929803431754422e-01 0.000000000000000e+00
6.667165772422365e-01 7.005356733803038e-01 0.000000000000000e+00
6.391365761645796e-01 7.062561127614655e-01 0.000000000000000e+00
6.113797419550312e-01 7.104513750298908e-01 0.000000000000000e+00
5.838742817752497e-01 7.133881692031494e-01 0.000000000000000e+00
5.562164894674814e-01 7.152934778278072e-01 0.000000000000000e+00
5.282822864777904e-01 7.163768975491773e-01 0.000000000000000e+00
5.000060583103326e-01 7.166456430770354e-01 0.000000000000000e+00
4.717271128710401e-01 7.163740671141742e-01 0.000000000000000e+00
4.437871331967186e-01 7.152880596698082e-01 0.000000000000000e+00
4.161234741572552e-01 7.133773212927067e-01 0.000000000000000e+00
3.886199508883052e-01 7.104416277504336e-01 0.000000000000000e+00
3.608627749432176e-01 7.062465418428548e-01 0.000000000000000e+00
3.332855216755651e-01 7.005246803856731e-01 0.000000000000000e+00
3.058601300893458e-01 6.929639481530053e-01 0.000000000000000e+00
2.791654115870042e-01 6.833178085271564e-01 0.000000000000000e+00
2.538484814615031e-01 6.716540527453617e-01 0.000000000000000e+00
2.297270787793601e-01 6.569571943071674e-01 0.000000000000000e+00
2.073453101043096e-01 6.389070819860323e-01 0.000000000000000e+00
1.874576449075410e-01 6.170067621948030e-01 0.000000000000000e+00
1.712370540968750e-01 5.913884218185824e-01 0.000000000000000e+00
1.593695860986761e-01 5.628143464885180e-01 0.000000000000000e+00
1.520567289431763e-01 5.320776997095034e-01 0.000000000000000e+00
1.495282653377601e-01 5.000009030958356e-01 0.000000000000000e+00
1.520566157150415e-01 4.679255423647021e-01 0.000000000000000e+00
1.593679391277192e-01 4.371863739827740e-01 0.000000000000000e+00
1.712383646028446e-01 4.086185309193196e-01 0.000000000000000e+00
1.874610842827411e-01 3.829944462801600e-01 0.000000000000000e+00
2.073411844442362e-01 3.611047034763784e-01 0.000000000000000e+00
2.297319980216427e-01 3.430379430030033e-01 0.000000000000000e+00
2.538452889957779e-01 3.283532331468216e-01 0.000000000000000e+00
2.791699748989467e-01 3.166796782620687e-01 0.000000000000000e+00
3.058670607280767e-01 3.070358503936620e-01 0.000000000000000e+00
3.332898743394159e-01 2.994728705182350e-01 0.000000000000000e+00
3.608684519979310e-01 2.937431129375808e-01 0.000000000000000e+00
3.886210064845824e-01 2.895494293160862e-01 0.000000000000000e+00
4.161225261046084e-01 2.866143337035293e-01 0.000000000000000e+00
4.437853045762738e-01 2.847091889183124e-01 0.000000000000000e+00
4.717250209644593e-01 2.836290555577781e-01 0.000000000000000e+00
5.000060609951459e-01 2.833579046074687e-01 0.000000000000000e+00
5.282843824933949e-01 2.836262293361864e-01 0.000000000000000e+00
5.562183204725873e-01 2.847037683677265e-01 0.000000000000000e+00
5.838752321220245e-01 2.866034854497015e-01 0.000000000000000e+00
6.113786871667122e-01 2.895396804791194e-01 0.000000000000000e+00
6.391309003055294e-01 2.937335460149664e-01 0.000000000000000e+00
6.667122246783470e-01 2.994618846309819e-01 0.000000000000000e+00
6.941342783723775e-01 3.070194510180966e-01 0.000000000000000e+00
7.208311498982880e-01 3.166602093478167e-01 0.000000000000000e+00
7.461501694756973e-01 3.283334547297438e-01 0.000000000000000e+00
7.702587547876569e-01 3.430228957528322e-01 0.000000000000000e+00
7.926408690619348e-01 3.610933873033396e-01 0.000000000000000e+00
8.125110482708183e-01 3.829854593871088e-01 0.000000000000000e+00
8.287330045693467e-01 4.086059773360634e-01 0.000000000000000e+00
8.406099779827602e-01 4.371712331664611e-01 0.000000000000000e+00
8.479274363231744e-01 4.679154474494241e-01 0.000000000000000e+00

POINT_DATA   64
SCALARS fTan double
LOOKUP_TABLE default

[ 0.03448174] 
[ 14.14672615] 
[ 15.87079963] 
[ 15.31323878] 
[ 18.52174368] 
[ 20.6653832] 
[ 12.32949381] 
[ 8.80844268] 
[ 13.03001346] 
[ 2.74876364] 
[ 5.84466948] 
[ 1.44056755] 
[ 9.94207778] 
[ 1.75172936] 
[ 6.39515308] 
[ 8.72342961] 
[ 0.07158311] 
[ 8.6418705] 
[ 6.3904633] 
[ 1.96523891] 
[ 10.00053725] 
[ 1.37324034] 
[ 5.96080449] 
[ 2.76400872] 
[ 12.92397091] 
[ 8.71458126] 
[ 12.39633604] 
[ 20.67154511] 
[ 18.48048048] 
[ 15.22538962] 
[ 15.7226083] 
[ 14.053504] 
[ 0.03456913] 
[ 13.96901673] 
[ 15.88839531] 
[ 14.95762584] 
[ 18.95511765] 
[ 19.91180898] 
[ 13.15935573] 
[ 8.11194977] 
[ 12.68245871] 
[ 2.67711403] 
[ 5.83821549] 
[ 1.55992951] 
[ 9.9328126] 
[ 1.98548866] 
[ 6.40718334] 
[ 8.70277233] 
[ 0.07161117] 
[ 8.78433598] 
[ 6.41181485] 
[ 1.77204958] 
[ 9.87442625] 
[ 1.6272108] 
[ 5.72193635] 
[ 2.66126811] 
[ 12.7894943] 
[ 8.20671256] 
[ 13.09220272] 
[ 19.90540044] 
[ 18.9969246] 
[ 15.04482992] 
[ 16.03707697] 
[ 14.06214571] 
