# vtk DataFile Version 2.0
fMag
ASCII
DATASET UNSTRUCTURED_GRID

FIELD FieldData 1
TIME 1 1 double
0.34000000
POINTS 249 float
7.467041582515240e-01 5.000000000000000e-01 0.000000000000000e+00
7.466579888582964e-01 5.074808319163422e-01 0.000000000000000e+00
7.464781717827036e-01 5.149563602300899e-01 0.000000000000000e+00
7.461895628311906e-01 5.224248534177336e-01 0.000000000000000e+00
7.458156377979553e-01 5.298416309981189e-01 0.000000000000000e+00
7.452519851645147e-01 5.373929672044950e-01 0.000000000000000e+00
7.446904077300341e-01 5.447164129380464e-01 0.000000000000000e+00
7.438529974582142e-01 5.522876003992168e-01 0.000000000000000e+00
7.431116218610723e-01 5.594601957272289e-01 0.000000000000000e+00
7.420137543429216e-01 5.670968766690591e-01 0.000000000000000e+00
7.410449959743134e-01 5.741993767388796e-01 0.000000000000000e+00
7.397142886322350e-01 5.816815251613698e-01 0.000000000000000e+00
7.384426703064106e-01 5.888733233278595e-01 0.000000000000000e+00
7.369690338515256e-01 5.961554153226454e-01 0.000000000000000e+00
7.353448880026126e-01 6.034216846890667e-01 0.000000000000000e+00
7.336676126508910e-01 6.104566065344224e-01 0.000000000000000e+00
7.317456878463823e-01 6.177085830513018e-01 0.000000000000000e+00
7.297989429781373e-01 6.247422247146591e-01 0.000000000000000e+00
7.276590372478522e-01 6.317357283467842e-01 0.000000000000000e+00
7.253982662520803e-01 6.387127350767351e-01 0.000000000000000e+00
7.230439115696514e-01 6.456093659192947e-01 0.000000000000000e+00
7.204905325292089e-01 6.524469200133083e-01 0.000000000000000e+00
7.178025450315036e-01 6.591912324320123e-01 0.000000000000000e+00
7.150092074686296e-01 6.659167158108199e-01 0.000000000000000e+00
7.120288049252071e-01 6.725352522873076e-01 0.000000000000000e+00
7.089436253629284e-01 6.790192716621213e-01 0.000000000000000e+00
7.056877602797120e-01 6.854537389262417e-01 0.000000000000000e+00
7.022840981389997e-01 6.918091312986434e-01 0.000000000000000e+00
6.987592219013476e-01 6.980455893323205e-01 0.000000000000000e+00
6.950602135284522e-01 7.041630474588783e-01 0.000000000000000e+00
6.911665147119366e-01 7.102183318842024e-01 0.000000000000000e+00
6.871816009284312e-01 7.160880176791109e-01 0.000000000000000e+00
6.830683805216410e-01 7.218837525198708e-01 0.000000000000000e+00
6.787205987958163e-01 7.275174980870305e-01 0.000000000000000e+00
6.742747647371473e-01 7.330163061065135e-01 0.000000000000000e+00
6.696444608310513e-01 7.384677319939319e-01 0.000000000000000e+00
6.648767948380887e-01 7.436583870731081e-01 0.000000000000000e+00
6.600427302649267e-01 7.486866556846338e-01 0.000000000000000e+00
6.549898503218672e-01 7.536332746060823e-01 0.000000000000000e+00
6.497312608733292e-01 7.584426929509884e-01 0.000000000000000e+00
6.444734517653491e-01 7.629903331155912e-01 0.000000000000000e+00
6.390206117897431e-01 7.674541375149929e-01 0.000000000000000e+00
6.333149496857990e-01 7.718042775119637e-01 0.000000000000000e+00
6.276689687101852e-01 7.757939196494643e-01 0.000000000000000e+00
6.218661079546346e-01 7.796882521984085e-01 0.000000000000000e+00
6.157832647025990e-01 7.834983178920963e-01 0.000000000000000e+00
6.098122292280483e-01 7.869308824304838e-01 0.000000000000000e+00
6.035140829709253e-01 7.904167076042676e-01 0.000000000000000e+00
5.972983036013463e-01 7.934521282251545e-01 0.000000000000000e+00
5.909555050667048e-01 7.963640604867251e-01 0.000000000000000e+00
5.844471601081767e-01 7.991048916082225e-01 0.000000000000000e+00
5.778688564954040e-01 8.016627325279526e-01 0.000000000000000e+00
5.711009762693868e-01 8.040454416400461e-01 0.000000000000000e+00
5.645505226362225e-01 8.060404215142380e-01 0.000000000000000e+00
5.576434346407511e-01 8.080327366036157e-01 0.000000000000000e+00
5.508645775138807e-01 8.096724924505555e-01 0.000000000000000e+00
5.439026742726640e-01 8.111698094582780e-01 0.000000000000000e+00
5.369124409153782e-01 8.124474997335404e-01 0.000000000000000e+00
5.299487354866532e-01 8.134508956671953e-01 0.000000000000000e+00
5.229522448325347e-01 8.142566275723921e-01 0.000000000000000e+00
5.159405477629591e-01 8.148303490459886e-01 0.000000000000000e+00
5.088309409876082e-01 8.152329495674687e-01 0.000000000000000e+00
5.018351843392526e-01 8.153952921755017e-01 0.000000000000000e+00
4.947761247121213e-01 8.153456074850330e-01 0.000000000000000e+00
4.877587256068459e-01 8.150663941294629e-01 0.000000000000000e+00
4.806488889149993e-01 8.145623377531199e-01 0.000000000000000e+00
4.736892280570055e-01 8.138781046769620e-01 0.000000000000000e+00
4.666880269694310e-01 8.129825169852503e-01 0.000000000000000e+00
4.597462165341937e-01 8.118472491137465e-01 0.000000000000000e+00
4.527194062384581e-01 8.104374353890131e-01 0.000000000000000e+00
4.458826559378866e-01 8.088602905057645e-01 0.000000000000000e+00
4.390125620391033e-01 8.070679615575408e-01 0.000000000000000e+00
4.322539846960086e-01 8.050185005465958e-01 0.000000000000000e+00
4.256663721757732e-01 8.029235368878205e-01 0.000000000000000e+00
4.189251341223898e-01 8.003780416968214e-01 0.000000000000000e+00
4.124611666037004e-01 7.978033195857409e-01 0.000000000000000e+00
4.059301532027653e-01 7.948734666915507e-01 0.000000000000000e+00
3.997780971355378e-01 7.920209442692688e-01 0.000000000000000e+00
3.934433283661328e-01 7.886990805121702e-01 0.000000000000000e+00
3.873382185948556e-01 7.852334155513948e-01 0.000000000000000e+00
3.812925950059518e-01 7.816307441483098e-01 0.000000000000000e+00
3.753042835379848e-01 7.777173216788056e-01 0.000000000000000e+00
3.696600754659174e-01 7.738445225123047e-01 0.000000000000000e+00
3.639434377754238e-01 7.696526588930080e-01 0.000000000000000e+00
3.583477203254604e-01 7.652186775148676e-01 0.000000000000000e+00
3.530325417573598e-01 7.607422148062839e-01 0.000000000000000e+00
3.477641788340262e-01 7.560713428207587e-01 0.000000000000000e+00
3.425825373069092e-01 7.511687539722430e-01 0.000000000000000e+00
3.376467975439849e-01 7.461762965479319e-01 0.000000000000000e+00
3.328797555500184e-01 7.411008984941302e-01 0.000000000000000e+00
3.281432056440787e-01 7.357529685702447e-01 0.000000000000000e+00
3.236326702815667e-01 7.302770963208302e-01 0.000000000000000e+00
3.192225725143367e-01 7.247242438859356e-01 0.000000000000000e+00
3.149749750359807e-01 7.189972447795474e-01 0.000000000000000e+00
3.109501613679218e-01 7.131729364418103e-01 0.000000000000000e+00
3.069929602417092e-01 7.072045203116102e-01 0.000000000000000e+00
3.031875699781310e-01 7.011044138864250e-01 0.000000000000000e+00
2.995790702068502e-01 6.949454458820051e-01 0.000000000000000e+00
2.961280795727435e-01 6.886523959486650e-01 0.000000000000000e+00
2.927798447731847e-01 6.822536108405127e-01 0.000000000000000e+00
2.896129720299820e-01 6.758007568639597e-01 0.000000000000000e+00
2.865720433019089e-01 6.692536893282557e-01 0.000000000000000e+00
2.836904699625688e-01 6.625609168032247e-01 0.000000000000000e+00
2.809573510697581e-01 6.558399821430096e-01 0.000000000000000e+00
2.783215871547482e-01 6.490463503557869e-01 0.000000000000000e+00
2.758692778757077e-01 6.421739566451190e-01 0.000000000000000e+00
2.735811538212777e-01 6.352535942978407e-01 0.000000000000000e+00
2.713586524241967e-01 6.282411477878052e-01 0.000000000000000e+00
2.693135716925356e-01 6.212388653632086e-01 0.000000000000000e+00
2.673901762619473e-01 6.140877389642261e-01 0.000000000000000e+00
2.655657517519903e-01 6.069109630355326e-01 0.000000000000000e+00
2.639878497738551e-01 5.998825965179236e-01 0.000000000000000e+00
2.623665940839334e-01 5.924801332847187e-01 0.000000000000000e+00
2.610837294265155e-01 5.853980630166152e-01 0.000000000000000e+00
2.597204391463785e-01 5.779491474148200e-01 0.000000000000000e+00
2.585928802526233e-01 5.707062888848410e-01 0.000000000000000e+00
2.575359018841463e-01 5.632862269581210e-01 0.000000000000000e+00
2.565800183338944e-01 5.558217865297376e-01 0.000000000000000e+00
2.558323264590399e-01 5.485267983881397e-01 0.000000000000000e+00
2.550816813592069e-01 5.409889650158551e-01 0.000000000000000e+00
2.545708957822492e-01 5.336471116019559e-01 0.000000000000000e+00
2.540601827030110e-01 5.260831474042135e-01 0.000000000000000e+00
2.537601556913124e-01 5.187154829120026e-01 0.000000000000000e+00
2.535085153598699e-01 5.112028604753704e-01 0.000000000000000e+00
2.534106234155794e-01 5.037506761935622e-01 0.000000000000000e+00
2.534106234155786e-01 4.962493238064531e-01 0.000000000000000e+00
2.535085153598689e-01 4.887971395246412e-01 0.000000000000000e+00
2.537601556913118e-01 4.812845170880086e-01 0.000000000000000e+00
2.540601827030092e-01 4.739168525958020e-01 0.000000000000000e+00
2.545708957822473e-01 4.663528883980573e-01 0.000000000000000e+00
2.550816813592038e-01 4.590110349841563e-01 0.000000000000000e+00
2.558323264590381e-01 4.514732016118754e-01 0.000000000000000e+00
2.565800183338923e-01 4.441782134702716e-01 0.000000000000000e+00
2.575359018841434e-01 4.367137730418907e-01 0.000000000000000e+00
2.585928802526213e-01 4.292937111151719e-01 0.000000000000000e+00
2.597204391463758e-01 4.220508525851890e-01 0.000000000000000e+00
2.610837294265143e-01 4.146019369833939e-01 0.000000000000000e+00
2.623665940839314e-01 4.075198667152951e-01 0.000000000000000e+00
2.639878497738530e-01 4.001174034820847e-01 0.000000000000000e+00
2.655657517519856e-01 3.930890369644833e-01 0.000000000000000e+00
2.673901762619450e-01 3.859122610357858e-01 0.000000000000000e+00
2.693135716925351e-01 3.787611346368034e-01 0.000000000000000e+00
2.713586524241940e-01 3.717588522122042e-01 0.000000000000000e+00
2.735811538212750e-01 3.647464057021756e-01 0.000000000000000e+00
2.758692778757051e-01 3.578260433548954e-01 0.000000000000000e+00
2.783215871547487e-01 3.509536496442202e-01 0.000000000000000e+00
2.809573510697561e-01 3.441600178570055e-01 0.000000000000000e+00
2.836904699625696e-01 3.374390831967903e-01 0.000000000000000e+00
2.865720433019039e-01 3.307463106717546e-01 0.000000000000000e+00
2.896129720299825e-01 3.241992431360549e-01 0.000000000000000e+00
2.927798447731820e-01 3.177463891594982e-01 0.000000000000000e+00
2.961280795727388e-01 3.113476040513501e-01 0.000000000000000e+00
2.995790702068485e-01 3.050545541180066e-01 0.000000000000000e+00
3.031875699781296e-01 2.988955861135835e-01 0.000000000000000e+00
3.069929602417064e-01 2.927954796884005e-01 0.000000000000000e+00
3.109501613679183e-01 2.868270635582019e-01 0.000000000000000e+00
3.149749750359798e-01 2.810027552204621e-01 0.000000000000000e+00
3.192225725143275e-01 2.752757561140724e-01 0.000000000000000e+00
3.236326702815627e-01 2.697229036791837e-01 0.000000000000000e+00
3.281432056440735e-01 2.642470314297650e-01 0.000000000000000e+00
3.328797555500126e-01 2.588991015058793e-01 0.000000000000000e+00
3.376467975439794e-01 2.538237034520781e-01 0.000000000000000e+00
3.425825373068992e-01 2.488312460277717e-01 0.000000000000000e+00
3.477641788340194e-01 2.439286571792509e-01 0.000000000000000e+00
3.530325417573537e-01 2.392577851937259e-01 0.000000000000000e+00
3.583477203254620e-01 2.347813224851382e-01 0.000000000000000e+00
3.639434377754048e-01 2.303473411070105e-01 0.000000000000000e+00
3.696600754659256e-01 2.261554774877009e-01 0.000000000000000e+00
3.753042835379723e-01 2.222826783212047e-01 0.000000000000000e+00
3.812925950059500e-01 2.183692558516995e-01 0.000000000000000e+00
3.873382185948493e-01 2.147665844486158e-01 0.000000000000000e+00
3.934433283661258e-01 2.113009194878387e-01 0.000000000000000e+00
3.997780971355318e-01 2.079790557307365e-01 0.000000000000000e+00
4.059301532027615e-01 2.051265333084599e-01 0.000000000000000e+00
4.124611666036905e-01 2.021966804142677e-01 0.000000000000000e+00
4.189251341223835e-01 1.996219583031856e-01 0.000000000000000e+00
4.256663721757648e-01 1.970764631121876e-01 0.000000000000000e+00
4.322539846960045e-01 1.949814994534137e-01 0.000000000000000e+00
4.390125620390914e-01 1.929320384424643e-01 0.000000000000000e+00
4.458826559378828e-01 1.911397094942432e-01 0.000000000000000e+00
4.527194062384509e-01 1.895625646109923e-01 0.000000000000000e+00
4.597462165341872e-01 1.881527508862572e-01 0.000000000000000e+00
4.666880269694203e-01 1.870174830147574e-01 0.000000000000000e+00
4.736892280569981e-01 1.861218953230406e-01 0.000000000000000e+00
4.806488889149909e-01 1.854376622468842e-01 0.000000000000000e+00
4.877587256068372e-01 1.849336058705398e-01 0.000000000000000e+00
4.947761247121107e-01 1.846543925149730e-01 0.000000000000000e+00
5.018351843392460e-01 1.846047078244974e-01 0.000000000000000e+00
5.088309409875995e-01 1.847670504325312e-01 0.000000000000000e+00
5.159405477629476e-01 1.851696509540185e-01 0.000000000000000e+00
5.229522448325290e-01 1.857433724276097e-01 0.000000000000000e+00
5.299487354866432e-01 1.865491043328009e-01 0.000000000000000e+00
5.369124409153700e-01 1.875525002664612e-01 0.000000000000000e+00
5.439026742726558e-01 1.888301905417214e-01 0.000000000000000e+00
5.508645775138720e-01 1.903275075494466e-01 0.000000000000000e+00
5.576434346407446e-01 1.919672633963815e-01 0.000000000000000e+00
5.645505226362133e-01 1.939595784857628e-01 0.000000000000000e+00
5.711009762693805e-01 1.959545583599504e-01 0.000000000000000e+00
5.778688564953930e-01 1.983372674720456e-01 0.000000000000000e+00
5.844471601081723e-01 2.008951083917682e-01 0.000000000000000e+00
5.909555050666979e-01 2.036359395132793e-01 0.000000000000000e+00
5.972983036013410e-01 2.065478717748414e-01 0.000000000000000e+00
6.035140829709186e-01 2.095832923957266e-01 0.000000000000000e+00
6.098122292280401e-01 2.130691175695144e-01 0.000000000000000e+00
6.157832647025995e-01 2.165016821078985e-01 0.000000000000000e+00
6.218661079546229e-01 2.203117478015872e-01 0.000000000000000e+00
6.276689687101832e-01 2.242060803505326e-01 0.000000000000000e+00
6.333149496857945e-01 2.281957224880329e-01 0.000000000000000e+00
6.390206117897386e-01 2.325458624850037e-01 0.000000000000000e+00
6.444734517653424e-01 2.370096668844055e-01 0.000000000000000e+00
6.497312608733251e-01 2.415573070490087e-01 0.000000000000000e+00
6.549898503218632e-01 2.463667253939127e-01 0.000000000000000e+00
6.600427302649221e-01 2.513133443153638e-01 0.000000000000000e+00
6.648767948380789e-01 2.563416129268850e-01 0.000000000000000e+00
6.696444608310489e-01 2.615322680060657e-01 0.000000000000000e+00
6.742747647371445e-01 2.669836938934850e-01 0.000000000000000e+00
6.787205987958073e-01 2.724825019129639e-01 0.000000000000000e+00
6.830683805216436e-01 2.781162474801287e-01 0.000000000000000e+00
6.871816009284251e-01 2.839119823208852e-01 0.000000000000000e+00
6.911665147119372e-01 2.897816681157956e-01 0.000000000000000e+00
6.950602135284489e-01 2.958369525411163e-01 0.000000000000000e+00
6.987592219013485e-01 3.019544106676741e-01 0.000000000000000e+00
7.022840981389953e-01 3.081908687013513e-01 0.000000000000000e+00
7.056877602797119e-01 3.145462610737549e-01 0.000000000000000e+00
7.089436253629290e-01 3.209807283378748e-01 0.000000000000000e+00
7.120288049252035e-01 3.274647477126852e-01 0.000000000000000e+00
7.150092074686295e-01 3.340832841891772e-01 0.000000000000000e+00
7.178025450315020e-01 3.408087675679829e-01 0.000000000000000e+00
7.204905325292068e-01 3.475530799866833e-01 0.000000000000000e+00
7.230439115696525e-01 3.543906340807036e-01 0.000000000000000e+00
7.253982662520776e-01 3.612872649232582e-01 0.000000000000000e+00
7.276590372478532e-01 3.682642716532101e-01 0.000000000000000e+00
7.297989429781355e-01 3.752577752853360e-01 0.000000000000000e+00
7.317456878463824e-01 3.822914169486905e-01 0.000000000000000e+00
7.336676126508892e-01 3.895433934655735e-01 0.000000000000000e+00
7.353448880026118e-01 3.965783153109267e-01 0.000000000000000e+00
7.369690338515240e-01 4.038445846773454e-01 0.000000000000000e+00
7.384426703064098e-01 4.111266766721375e-01 0.000000000000000e+00
7.397142886322325e-01 4.183184748386200e-01 0.000000000000000e+00
7.410449959743117e-01 4.258006232611105e-01 0.000000000000000e+00
7.420137543429212e-01 4.329031233309338e-01 0.000000000000000e+00
7.431116218610700e-01 4.405398042727628e-01 0.000000000000000e+00
7.438529974582133e-01 4.477123996007737e-01 0.000000000000000e+00
7.446904077300353e-01 4.552835870619462e-01 0.000000000000000e+00
7.452519851645129e-01 4.626070327954910e-01 0.000000000000000e+00
7.458156377979533e-01 4.701583690018743e-01 0.000000000000000e+00
7.461895628311905e-01 4.775751465822561e-01 0.000000000000000e+00
7.464781717827040e-01 4.850436397698948e-01 0.000000000000000e+00
7.466579888582956e-01 4.925191680836418e-01 0.000000000000000e+00

POINT_DATA   249
SCALARS fMag double
LOOKUP_TABLE default

9.230232e+00 
1.337272e+01 
1.089873e+01 
9.974759e+00 
2.325831e+01 
2.279110e+01 
3.707504e+01 
4.100385e+01 
5.852180e+01 
5.496397e+01 
5.245471e+01 
2.963383e+01 
2.212976e+01 
1.513464e+01 
2.373368e+01 
3.270261e+01 
2.197375e+01 
1.972414e+01 
1.219948e+01 
1.233668e+01 
2.076051e+01 
1.637102e+01 
1.069623e+01 
2.154747e+01 
1.705061e+01 
1.777473e+01 
1.675744e+01 
1.698124e+01 
2.109176e+01 
2.043648e+01 
2.067840e+01 
1.480729e+01 
2.850480e+01 
1.667945e+01 
1.904604e+01 
2.947771e+01 
1.754142e+01 
2.335704e+01 
2.472650e+01 
2.617426e+01 
2.123416e+01 
2.771794e+01 
3.653542e+01 
1.835719e+01 
2.923504e+01 
3.936844e+01 
3.313311e+01 
4.578321e+01 
1.771803e+01 
2.380486e+01 
1.958637e+01 
2.581134e+01 
4.445152e+01 
3.565915e+01 
3.751846e+01 
2.319571e+01 
2.214523e+01 
2.755810e+01 
2.003910e+01 
2.325180e+01 
1.971774e+01 
2.658781e+01 
2.213015e+01 
2.332979e+01 
2.431144e+01 
2.345825e+01 
2.154013e+01 
2.469649e+01 
2.873747e+01 
2.532278e+01 
2.177781e+01 
2.803591e+01 
1.769189e+01 
4.760269e+01 
2.787832e+01 
3.612861e+01 
3.866788e+01 
5.035925e+01 
2.710109e+01 
1.494228e+01 
3.159681e+01 
3.464139e+01 
3.271359e+01 
2.706509e+01 
2.837214e+01 
1.999472e+01 
2.474421e+01 
2.617959e+01 
1.880064e+01 
2.742240e+01 
2.597052e+01 
1.265683e+01 
2.381818e+01 
2.430614e+01 
1.591944e+01 
2.009482e+01 
2.055137e+01 
2.068711e+01 
1.474281e+01 
1.892431e+01 
1.572738e+01 
2.159068e+01 
1.510825e+01 
1.214668e+01 
1.996339e+01 
1.710451e+01 
1.130820e+01 
1.777019e+01 
1.922084e+01 
1.021769e+01 
2.877499e+01 
3.765972e+01 
4.660525e+01 
3.755684e+01 
3.130843e+01 
1.907400e+01 
1.103852e+01 
2.684453e+01 
2.428967e+01 
3.097455e+01 
2.221292e+01 
2.879613e+01 
1.528174e+01 
1.651754e+01 
1.095191e+01 
1.095191e+01 
1.651754e+01 
1.528174e+01 
2.879613e+01 
2.221292e+01 
3.097455e+01 
2.428967e+01 
2.684453e+01 
1.103852e+01 
1.907400e+01 
3.130843e+01 
3.755684e+01 
4.660525e+01 
3.765972e+01 
2.877499e+01 
1.021769e+01 
1.922084e+01 
1.777019e+01 
1.130820e+01 
1.710451e+01 
1.996339e+01 
1.214668e+01 
1.510825e+01 
2.159068e+01 
1.572738e+01 
1.892431e+01 
1.474281e+01 
2.068711e+01 
2.055137e+01 
2.009482e+01 
1.591944e+01 
2.430614e+01 
2.381818e+01 
1.265683e+01 
2.597052e+01 
2.742240e+01 
1.880064e+01 
2.617959e+01 
2.474421e+01 
1.999472e+01 
2.837214e+01 
2.706509e+01 
3.271359e+01 
3.464139e+01 
3.159681e+01 
1.494228e+01 
2.710109e+01 
5.035925e+01 
3.866788e+01 
3.612861e+01 
2.787832e+01 
4.760269e+01 
1.769189e+01 
2.803591e+01 
2.177781e+01 
2.532278e+01 
2.873747e+01 
2.469649e+01 
2.154013e+01 
2.345825e+01 
2.431144e+01 
2.332979e+01 
2.213015e+01 
2.658781e+01 
1.971774e+01 
2.325180e+01 
2.003910e+01 
2.755810e+01 
2.214523e+01 
2.319571e+01 
3.751846e+01 
3.565915e+01 
4.445152e+01 
2.581134e+01 
1.958637e+01 
2.380486e+01 
1.771803e+01 
4.578321e+01 
3.313311e+01 
3.936844e+01 
2.923504e+01 
1.835719e+01 
3.653542e+01 
2.771794e+01 
2.123416e+01 
2.617426e+01 
2.472650e+01 
2.335704e+01 
1.754142e+01 
2.947771e+01 
1.904604e+01 
1.667945e+01 
2.850480e+01 
1.480729e+01 
2.067840e+01 
2.043648e+01 
2.109176e+01 
1.698124e+01 
1.675744e+01 
1.777473e+01 
1.705061e+01 
2.154747e+01 
1.069623e+01 
1.637102e+01 
2.076051e+01 
1.233668e+01 
1.219948e+01 
1.972414e+01 
2.197375e+01 
3.270261e+01 
2.373368e+01 
1.513464e+01 
2.212976e+01 
2.963383e+01 
5.245471e+01 
5.496397e+01 
5.852180e+01 
4.100385e+01 
3.707504e+01 
2.279110e+01 
2.325831e+01 
9.974759e+00 
1.089873e+01 
1.337272e+01 
