# vtk DataFile Version 2.0
fNorm
ASCII
DATASET UNSTRUCTURED_GRID

FIELD FieldData 1
TIME 1 1 double
0.41000000
POINTS 249 float
8.218421319618444e-01 5.000000000000000e-01 0.000000000000000e+00
8.217111615545685e-01 5.071471884005493e-01 0.000000000000000e+00
8.213299371347188e-01 5.142851140863312e-01 0.000000000000000e+00
8.206895281692167e-01 5.214090462876697e-01 0.000000000000000e+00
8.198807417746833e-01 5.284467241283877e-01 0.000000000000000e+00
8.187480391223068e-01 5.355608804183328e-01 0.000000000000000e+00
8.175257520092620e-01 5.424775999288621e-01 0.000000000000000e+00
8.158725775710490e-01 5.495262968610630e-01 0.000000000000000e+00
8.142145625577552e-01 5.562716162813103e-01 0.000000000000000e+00
8.120319655865030e-01 5.632443115011306e-01 0.000000000000000e+00
8.099074983895906e-01 5.698454842674415e-01 0.000000000000000e+00
8.073301753004545e-01 5.765479929944999e-01 0.000000000000000e+00
8.046836562904963e-01 5.831003313024357e-01 0.000000000000000e+00
8.017684086402279e-01 5.895698179192747e-01 0.000000000000000e+00
7.985714095884330e-01 5.959822758951274e-01 0.000000000000000e+00
7.953068561223232e-01 6.021374212159097e-01 0.000000000000000e+00
7.917055627635674e-01 6.083275116051483e-01 0.000000000000000e+00
7.879910198563747e-01 6.143489984001903e-01 0.000000000000000e+00
7.840607104979237e-01 6.201977960786372e-01 0.000000000000000e+00
7.799110298710459e-01 6.259766355599961e-01 0.000000000000000e+00
7.756101162385588e-01 6.316428297917182e-01 0.000000000000000e+00
7.711287538147452e-01 6.371043069446146e-01 0.000000000000000e+00
7.664871916591577e-01 6.424116398716831e-01 0.000000000000000e+00
7.616414380058554e-01 6.476871265724055e-01 0.000000000000000e+00
7.566632836865853e-01 6.527217593182530e-01 0.000000000000000e+00
7.515494332571611e-01 6.576157379005891e-01 0.000000000000000e+00
7.462491708932460e-01 6.623973603918225e-01 0.000000000000000e+00
7.408237334205194e-01 6.670150308586048e-01 0.000000000000000e+00
7.352702086634766e-01 6.714847800260705e-01 0.000000000000000e+00
7.295809613069081e-01 6.758093952180861e-01 0.000000000000000e+00
7.237337792455709e-01 6.800082757188090e-01 0.000000000000000e+00
7.178430289119705e-01 6.840050784657371e-01 0.000000000000000e+00
7.117997751832411e-01 6.879221614720848e-01 0.000000000000000e+00
7.056555930492666e-01 6.916008723408900e-01 0.000000000000000e+00
6.994084061309426e-01 6.951922370057597e-01 0.000000000000000e+00
6.930285234300455e-01 6.986959147296681e-01 0.000000000000000e+00
6.866157318417024e-01 7.019573913385486e-01 0.000000000000000e+00
6.801094862677939e-01 7.051097898935703e-01 0.000000000000000e+00
6.735239881463992e-01 7.081084183641105e-01 0.000000000000000e+00
6.667995565314239e-01 7.109803721851762e-01 0.000000000000000e+00
6.601145141538622e-01 7.136903156486409e-01 0.000000000000000e+00
6.533511302664232e-01 7.162819186067840e-01 0.000000000000000e+00
6.463442554343741e-01 7.187878800463773e-01 0.000000000000000e+00
6.395282983966529e-01 7.210353836763151e-01 0.000000000000000e+00
6.326337023833249e-01 7.231930119749392e-01 0.000000000000000e+00
6.254258192941868e-01 7.253276982283577e-01 0.000000000000000e+00
6.186246811646215e-01 7.271285947843190e-01 0.000000000000000e+00
6.112770369264255e-01 7.290757585903137e-01 0.000000000000000e+00
6.042583321407700e-01 7.306617222761754e-01 0.000000000000000e+00
5.971158624931249e-01 7.322106417989922e-01 0.000000000000000e+00
5.898199554648845e-01 7.336946121542387e-01 0.000000000000000e+00
5.826582544448304e-01 7.350008342354915e-01 0.000000000000000e+00
5.752277104442016e-01 7.362554959079645e-01 0.000000000000000e+00
5.682362780231551e-01 7.372123712516929e-01 0.000000000000000e+00
5.607181381903822e-01 7.382836494511876e-01 0.000000000000000e+00
5.535113926970247e-01 7.390962694237205e-01 0.000000000000000e+00
5.461383892708819e-01 7.398424268185565e-01 0.000000000000000e+00
5.387476356292648e-01 7.404918941002374e-01 0.000000000000000e+00
5.314234949485156e-01 7.409866928108434e-01 0.000000000000000e+00
5.240419577511910e-01 7.414130992688905e-01 0.000000000000000e+00
5.167183538266447e-01 7.416820908496535e-01 0.000000000000000e+00
5.092747805624372e-01 7.418922919189336e-01 0.000000000000000e+00
5.019575951844619e-01 7.419568669933255e-01 0.000000000000000e+00
4.945573249071894e-01 7.419343204629929e-01 0.000000000000000e+00
4.872235494587228e-01 7.417974416443449e-01 0.000000000000000e+00
4.797896424243950e-01 7.415563664469319e-01 0.000000000000000e+00
4.724905343804356e-01 7.412187853280123e-01 0.000000000000000e+00
4.650812898758369e-01 7.407450445610327e-01 0.000000000000000e+00
4.577920866754807e-01 7.401897124511680e-01 0.000000000000000e+00
4.503477773945787e-01 7.394753456219980e-01 0.000000000000000e+00
4.431457866838481e-01 7.387148188070281e-01 0.000000000000000e+00
4.357473295473639e-01 7.377797002167218e-01 0.000000000000000e+00
4.284176851207669e-01 7.367090738893572e-01 0.000000000000000e+00
4.212860555647694e-01 7.356600761624433e-01 0.000000000000000e+00
4.138359782950261e-01 7.342942087355493e-01 0.000000000000000e+00
4.067555382692706e-01 7.329768868523610e-01 0.000000000000000e+00
3.993471967947063e-01 7.313629708783522e-01 0.000000000000000e+00
3.925689438656060e-01 7.299515446329954e-01 0.000000000000000e+00
3.852472953252715e-01 7.281276337121193e-01 0.000000000000000e+00
3.782206145267274e-01 7.262548786273446e-01 0.000000000000000e+00
3.712104934234339e-01 7.243071165893604e-01 0.000000000000000e+00
3.640476166261160e-01 7.220946642149715e-01 0.000000000000000e+00
3.573268125847830e-01 7.199509697263118e-01 0.000000000000000e+00
3.503387652376483e-01 7.175450137491254e-01 0.000000000000000e+00
3.434467511349769e-01 7.149873167528313e-01 0.000000000000000e+00
3.367596089013086e-01 7.123502435682035e-01 0.000000000000000e+00
3.300376079838047e-01 7.095584269561909e-01 0.000000000000000e+00
3.233775834307633e-01 7.066210794483306e-01 0.000000000000000e+00
3.168292477476163e-01 7.035426365566623e-01 0.000000000000000e+00
3.103901250222632e-01 7.003463837871263e-01 0.000000000000000e+00
3.039755560238734e-01 6.969679436618614e-01 0.000000000000000e+00
2.976617529697438e-01 6.933944845737685e-01 0.000000000000000e+00
2.914648933760163e-01 6.897735111032088e-01 0.000000000000000e+00
2.853618182325446e-01 6.859789450652096e-01 0.000000000000000e+00
2.794110898921061e-01 6.820200757348130e-01 0.000000000000000e+00
2.735419710843395e-01 6.779361309700627e-01 0.000000000000000e+00
2.677627059537543e-01 6.736594941238968e-01 0.000000000000000e+00
2.621488425340281e-01 6.692746645369114e-01 0.000000000000000e+00
2.566573470026435e-01 6.647190369499757e-01 0.000000000000000e+00
2.512871939930056e-01 6.600261126595932e-01 0.000000000000000e+00
2.460790658808736e-01 6.551849547744737e-01 0.000000000000000e+00
2.410450884155993e-01 6.502437366159594e-01 0.000000000000000e+00
2.361204573136329e-01 6.450632063344617e-01 0.000000000000000e+00
2.313771979660035e-01 6.397736303185223e-01 0.000000000000000e+00
2.268084649653336e-01 6.344012256717677e-01 0.000000000000000e+00
2.224142676427666e-01 6.288254553043444e-01 0.000000000000000e+00
2.182016786508398e-01 6.231029098117553e-01 0.000000000000000e+00
2.141453305327132e-01 6.172913233699074e-01 0.000000000000000e+00
2.103402769348447e-01 6.113841661324823e-01 0.000000000000000e+00
2.066724803997720e-01 6.052584263167207e-01 0.000000000000000e+00
2.032166634102721e-01 5.990754268601082e-01 0.000000000000000e+00
2.000296067587287e-01 5.928170832231948e-01 0.000000000000000e+00
1.968852236693969e-01 5.863028175014880e-01 0.000000000000000e+00
1.942055691746548e-01 5.798697030130319e-01 0.000000000000000e+00
1.915280163159496e-01 5.731944805247818e-01 0.000000000000000e+00
1.892332256921126e-01 5.666060028461359e-01 0.000000000000000e+00
1.870520833841422e-01 5.597897018127425e-01 0.000000000000000e+00
1.851145439431471e-01 5.529107506881944e-01 0.000000000000000e+00
1.834850514105814e-01 5.460390391740481e-01 0.000000000000000e+00
1.819899444116398e-01 5.389919323768072e-01 0.000000000000000e+00
1.808566383646709e-01 5.320244483935678e-01 0.000000000000000e+00
1.798488886043274e-01 5.248929756046518e-01 0.000000000000000e+00
1.791521637119533e-01 5.178677894128771e-01 0.000000000000000e+00
1.786180625731979e-01 5.107064037777863e-01 0.000000000000000e+00
1.783737113536468e-01 5.035810203456469e-01 0.000000000000000e+00
1.783737113536455e-01 4.964189796543765e-01 0.000000000000000e+00
1.786180625731973e-01 4.892935962222269e-01 0.000000000000000e+00
1.791521637119541e-01 4.821322105871384e-01 0.000000000000000e+00
1.798488886043275e-01 4.751070243953694e-01 0.000000000000000e+00
1.808566383646699e-01 4.679755516064511e-01 0.000000000000000e+00
1.819899444116373e-01 4.610080676232096e-01 0.000000000000000e+00
1.834850514105812e-01 4.539609608259733e-01 0.000000000000000e+00
1.851145439431471e-01 4.470892493118230e-01 0.000000000000000e+00
1.870520833841390e-01 4.402102981872762e-01 0.000000000000000e+00
1.892332256921100e-01 4.333939971538865e-01 0.000000000000000e+00
1.915280163159474e-01 4.268055194752343e-01 0.000000000000000e+00
1.942055691746531e-01 4.201302969869868e-01 0.000000000000000e+00
1.968852236693934e-01 4.136971824985318e-01 0.000000000000000e+00
2.000296067587278e-01 4.071829167768210e-01 0.000000000000000e+00
2.032166634102679e-01 4.009245731399131e-01 0.000000000000000e+00
2.066724803997688e-01 3.947415736832984e-01 0.000000000000000e+00
2.103402769348419e-01 3.886158338675362e-01 0.000000000000000e+00
2.141453305327106e-01 3.827086766301110e-01 0.000000000000000e+00
2.182016786508351e-01 3.768970901882645e-01 0.000000000000000e+00
2.224142676427620e-01 3.711745446956792e-01 0.000000000000000e+00
2.268084649653337e-01 3.655987743282446e-01 0.000000000000000e+00
2.313771979659987e-01 3.602263696814956e-01 0.000000000000000e+00
2.361204573136270e-01 3.549367936655636e-01 0.000000000000000e+00
2.410450884155982e-01 3.497562633840502e-01 0.000000000000000e+00
2.460790658808689e-01 3.448150452255486e-01 0.000000000000000e+00
2.512871939930057e-01 3.399738873404191e-01 0.000000000000000e+00
2.566573470026373e-01 3.352809630500452e-01 0.000000000000000e+00
2.621488425340254e-01 3.307253354631048e-01 0.000000000000000e+00
2.677627059537487e-01 3.263405058761217e-01 0.000000000000000e+00
2.735419710843331e-01 3.220638690299530e-01 0.000000000000000e+00
2.794110898920966e-01 3.179799242652075e-01 0.000000000000000e+00
2.853618182325378e-01 3.140210549348090e-01 0.000000000000000e+00
2.914648933760108e-01 3.102264888968018e-01 0.000000000000000e+00
2.976617529697346e-01 3.066055154262529e-01 0.000000000000000e+00
3.039755560238687e-01 3.030320563381509e-01 0.000000000000000e+00
3.103901250222567e-01 2.996536162128889e-01 0.000000000000000e+00
3.168292477476108e-01 2.964573634433499e-01 0.000000000000000e+00
3.233775834307486e-01 2.933789205516910e-01 0.000000000000000e+00
3.300376079837974e-01 2.904415730438235e-01 0.000000000000000e+00
3.367596089012949e-01 2.876497564318135e-01 0.000000000000000e+00
3.434467511349725e-01 2.850126832471842e-01 0.000000000000000e+00
3.503387652376250e-01 2.824549862508912e-01 0.000000000000000e+00
3.573268125847827e-01 2.800490302737026e-01 0.000000000000000e+00
3.640476166261001e-01 2.779053357850414e-01 0.000000000000000e+00
3.712104934234245e-01 2.756928834106530e-01 0.000000000000000e+00
3.782206145267146e-01 2.737451213726698e-01 0.000000000000000e+00
3.852472953252580e-01 2.718723662878946e-01 0.000000000000000e+00
3.925689438655954e-01 2.700484553670143e-01 0.000000000000000e+00
3.993471967946917e-01 2.686370291216634e-01 0.000000000000000e+00
4.067555382692540e-01 2.670231131476528e-01 0.000000000000000e+00
4.138359782950151e-01 2.657057912644602e-01 0.000000000000000e+00
4.212860555647555e-01 2.643399238375693e-01 0.000000000000000e+00
4.284176851207558e-01 2.632909261106562e-01 0.000000000000000e+00
4.357473295473475e-01 2.622202997832846e-01 0.000000000000000e+00
4.431457866838358e-01 2.612851811929829e-01 0.000000000000000e+00
4.503477773945653e-01 2.605246543780090e-01 0.000000000000000e+00
4.577920866754694e-01 2.598102875488402e-01 0.000000000000000e+00
4.650812898758194e-01 2.592549554389757e-01 0.000000000000000e+00
4.724905343804222e-01 2.587812146719936e-01 0.000000000000000e+00
4.797896424243815e-01 2.584436335530740e-01 0.000000000000000e+00
4.872235494587092e-01 2.582025583556586e-01 0.000000000000000e+00
4.945573249071730e-01 2.580656795370131e-01 0.000000000000000e+00
5.019575951844495e-01 2.580431330066760e-01 0.000000000000000e+00
5.092747805624230e-01 2.581077080810680e-01 0.000000000000000e+00
5.167183538266269e-01 2.583179091503506e-01 0.000000000000000e+00
5.240419577511797e-01 2.585869007311117e-01 0.000000000000000e+00
5.314234949484995e-01 2.590133071891545e-01 0.000000000000000e+00
5.387476356292534e-01 2.595081058997665e-01 0.000000000000000e+00
5.461383892708666e-01 2.601575731814443e-01 0.000000000000000e+00
5.535113926970099e-01 2.609037305762833e-01 0.000000000000000e+00
5.607181381903678e-01 2.617163505488067e-01 0.000000000000000e+00
5.682362780231410e-01 2.627876287483079e-01 0.000000000000000e+00
5.752277104441892e-01 2.637445040920327e-01 0.000000000000000e+00
5.826582544448150e-01 2.649991657645087e-01 0.000000000000000e+00
5.898199554648689e-01 2.663053878457513e-01 0.000000000000000e+00
5.971158624931155e-01 2.677893582010098e-01 0.000000000000000e+00
6.042583321407554e-01 2.693382777238189e-01 0.000000000000000e+00
6.112770369264072e-01 2.709242414096777e-01 0.000000000000000e+00
6.186246811646067e-01 2.728714052156816e-01 0.000000000000000e+00
6.254258192941758e-01 2.746723017716351e-01 0.000000000000000e+00
6.326337023833093e-01 2.768069880250604e-01 0.000000000000000e+00
6.395282983966404e-01 2.789646163236799e-01 0.000000000000000e+00
6.463442554343589e-01 2.812121199536181e-01 0.000000000000000e+00
6.533511302664066e-01 2.837180813932109e-01 0.000000000000000e+00
6.601145141538458e-01 2.863096843513537e-01 0.000000000000000e+00
6.667995565314130e-01 2.890196278148234e-01 0.000000000000000e+00
6.735239881463855e-01 2.918915816358851e-01 0.000000000000000e+00
6.801094862677827e-01 2.948902101064286e-01 0.000000000000000e+00
6.866157318416848e-01 2.980426086614449e-01 0.000000000000000e+00
6.930285234300310e-01 3.013040852703264e-01 0.000000000000000e+00
6.994084061309316e-01 3.048077629942381e-01 0.000000000000000e+00
7.056555930492519e-01 3.083991276591072e-01 0.000000000000000e+00
7.117997751832276e-01 3.120778385279069e-01 0.000000000000000e+00
7.178430289119552e-01 3.159949215342603e-01 0.000000000000000e+00
7.237337792455587e-01 3.199917242811870e-01 0.000000000000000e+00
7.295809613068935e-01 3.241906047819090e-01 0.000000000000000e+00
7.352702086634629e-01 3.285152199739224e-01 0.000000000000000e+00
7.408237334205052e-01 3.329849691413900e-01 0.000000000000000e+00
7.462491708932324e-01 3.376026396081729e-01 0.000000000000000e+00
7.515494332571482e-01 3.423842620994044e-01 0.000000000000000e+00
7.566632836865701e-01 3.472782406817388e-01 0.000000000000000e+00
7.616414380058447e-01 3.523128734275914e-01 0.000000000000000e+00
7.664871916591457e-01 3.575883601283122e-01 0.000000000000000e+00
7.711287538147323e-01 3.628956930553784e-01 0.000000000000000e+00
7.756101162385480e-01 3.683571702082756e-01 0.000000000000000e+00
7.799110298710340e-01 3.740233644399982e-01 0.000000000000000e+00
7.840607104979125e-01 3.798022039213567e-01 0.000000000000000e+00
7.879910198563628e-01 3.856510015998038e-01 0.000000000000000e+00
7.917055627635560e-01 3.916724883948410e-01 0.000000000000000e+00
7.953068561223126e-01 3.978625787840857e-01 0.000000000000000e+00
7.985714095884237e-01 4.040177241048665e-01 0.000000000000000e+00
8.017684086402165e-01 4.104301820807131e-01 0.000000000000000e+00
8.046836562904865e-01 4.168996686975620e-01 0.000000000000000e+00
8.073301753004454e-01 4.234520070054908e-01 0.000000000000000e+00
8.099074983895823e-01 4.301545157325480e-01 0.000000000000000e+00
8.120319655864960e-01 4.367556884988644e-01 0.000000000000000e+00
8.142145625577482e-01 4.437283837186823e-01 0.000000000000000e+00
8.158725775710426e-01 4.504737031389267e-01 0.000000000000000e+00
8.175257520092604e-01 4.575224000711294e-01 0.000000000000000e+00
8.187480391223002e-01 4.644391195816592e-01 0.000000000000000e+00
8.198807417746797e-01 4.715532758716049e-01 0.000000000000000e+00
8.206895281692137e-01 4.785909537123222e-01 0.000000000000000e+00
8.213299371347177e-01 4.857148859136598e-01 0.000000000000000e+00
8.217111615545675e-01 4.928528115994373e-01 0.000000000000000e+00

POINT_DATA   249
SCALARS fNorm double
LOOKUP_TABLE default

2.619472e+01 
2.504284e+01 
2.594888e+01 
1.762105e+01 
3.104456e+01 
1.210483e+01 
3.954314e+01 
7.554465e+00 
4.438162e+01 
5.693138e+00 
3.931693e+01 
1.194358e+01 
2.796697e+01 
2.789732e+01 
1.776772e+01 
2.773018e+01 
1.838141e+01 
2.749145e+01 
2.200577e+01 
1.885615e+01 
2.684829e+01 
2.218724e+01 
1.732934e+01 
2.620192e+01 
1.954301e+01 
2.091847e+01 
2.057892e+01 
1.955966e+01 
1.979275e+01 
1.949930e+01 
1.906487e+01 
1.507228e+01 
2.556754e+01 
1.274610e+01 
1.414808e+01 
2.295276e+01 
1.392654e+01 
1.728598e+01 
1.719683e+01 
1.344267e+01 
1.388188e+01 
1.648456e+01 
1.823387e+01 
1.096330e+01 
1.131706e+01 
2.113779e+01 
1.450753e-01 
2.722247e+01 
6.292975e+00 
9.511138e+00 
1.490981e+01 
9.725065e+00 
2.277944e+01 
4.040053e+00 
2.170664e+01 
8.376586e+00 
9.795642e+00 
1.490670e+01 
7.186477e+00 
1.545035e+01 
6.265519e+00 
1.432635e+01 
8.737194e+00 
1.150491e+01 
1.016047e+01 
1.017275e+01 
1.299002e+01 
8.980258e+00 
1.451598e+01 
7.021279e+00 
1.507700e+01 
1.435613e+01 
7.314009e-01 
2.605887e+01 
1.935796e+00 
2.256911e+01 
6.662030e+00 
2.805482e+01 
1.209055e+01 
7.674880e+00 
2.109761e+01 
6.671998e+00 
1.647571e+01 
1.752111e+01 
1.473385e+01 
1.303560e+01 
1.581843e+01 
1.746885e+01 
1.535664e+01 
1.734148e+01 
2.194869e+01 
9.950497e+00 
1.970651e+01 
2.205904e+01 
1.493385e+01 
2.089669e+01 
1.862579e+01 
2.097587e+01 
1.831738e+01 
2.185586e+01 
1.926209e+01 
2.457915e+01 
2.072462e+01 
1.859421e+01 
2.638892e+01 
2.334088e+01 
1.788366e+01 
2.619277e+01 
2.319328e+01 
2.121682e+01 
2.725306e+01 
1.518501e+01 
3.905131e+01 
9.354680e+00 
3.279315e+01 
1.799262e+01 
2.512864e+01 
2.963452e+01 
1.695678e+01 
3.409348e+01 
1.487408e+01 
2.960195e+01 
1.737276e+01 
2.873521e+01 
2.449394e+01 
2.449394e+01 
2.873521e+01 
1.737276e+01 
2.960195e+01 
1.487408e+01 
3.409348e+01 
1.695678e+01 
2.963452e+01 
2.512864e+01 
1.799262e+01 
3.279315e+01 
9.354680e+00 
3.905131e+01 
1.518501e+01 
2.725306e+01 
2.121682e+01 
2.319328e+01 
2.619277e+01 
1.788366e+01 
2.334088e+01 
2.638892e+01 
1.859421e+01 
2.072462e+01 
2.457915e+01 
1.926209e+01 
2.185586e+01 
1.831738e+01 
2.097587e+01 
1.862579e+01 
2.089669e+01 
1.493385e+01 
2.205904e+01 
1.970651e+01 
9.950497e+00 
2.194869e+01 
1.734148e+01 
1.535664e+01 
1.746885e+01 
1.581843e+01 
1.303560e+01 
1.473385e+01 
1.752111e+01 
1.647571e+01 
6.671998e+00 
2.109761e+01 
7.674880e+00 
1.209055e+01 
2.805482e+01 
6.662030e+00 
2.256911e+01 
1.935796e+00 
2.605887e+01 
7.314009e-01 
1.435613e+01 
1.507700e+01 
7.021279e+00 
1.451598e+01 
8.980258e+00 
1.299002e+01 
1.017275e+01 
1.016047e+01 
1.150491e+01 
8.737194e+00 
1.432635e+01 
6.265519e+00 
1.545035e+01 
7.186477e+00 
1.490670e+01 
9.795642e+00 
8.376586e+00 
2.170664e+01 
4.040053e+00 
2.277944e+01 
9.725065e+00 
1.490981e+01 
9.511138e+00 
6.292975e+00 
2.722247e+01 
1.450753e-01 
2.113779e+01 
1.131706e+01 
1.096330e+01 
1.823387e+01 
1.648456e+01 
1.388188e+01 
1.344267e+01 
1.719683e+01 
1.728598e+01 
1.392654e+01 
2.295276e+01 
1.414808e+01 
1.274610e+01 
2.556754e+01 
1.507228e+01 
1.906487e+01 
1.949930e+01 
1.979275e+01 
1.955966e+01 
2.057892e+01 
2.091847e+01 
1.954301e+01 
2.620192e+01 
1.732934e+01 
2.218724e+01 
2.684829e+01 
1.885615e+01 
2.200577e+01 
2.749145e+01 
1.838141e+01 
2.773018e+01 
1.776772e+01 
2.789732e+01 
2.796697e+01 
1.194358e+01 
3.931693e+01 
5.693138e+00 
4.438162e+01 
7.554465e+00 
3.954314e+01 
1.210483e+01 
3.104456e+01 
1.762105e+01 
2.594888e+01 
2.504284e+01 
