# vtk DataFile Version 2.0
fNorm
ASCII
DATASET UNSTRUCTURED_GRID

FIELD FieldData 1
TIME 1 1 double
0.15000000
POINTS 249 float
8.706533041297291e-01 5.000000000000000e-01 0.000000000000000e+00
8.704962376344851e-01 5.068735621330004e-01 0.000000000000000e+00
8.700682449352186e-01 5.137319386685704e-01 0.000000000000000e+00
8.693057616480891e-01 5.206105610677131e-01 0.000000000000000e+00
8.682932044570378e-01 5.274037008446383e-01 0.000000000000000e+00
8.668859557596860e-01 5.342039555588936e-01 0.000000000000000e+00
8.653256082301860e-01 5.408492273376710e-01 0.000000000000000e+00
8.633829384470072e-01 5.475245727415756e-01 0.000000000000000e+00
8.612474730015625e-01 5.540725718529197e-01 0.000000000000000e+00
8.586474279993700e-01 5.606911777128514e-01 0.000000000000000e+00
8.558924420101895e-01 5.670594507909081e-01 0.000000000000000e+00
8.528495123376253e-01 5.732859412040335e-01 0.000000000000000e+00
8.496062483459849e-01 5.793966489253513e-01 0.000000000000000e+00
8.460246691993905e-01 5.854104740187016e-01 0.000000000000000e+00
8.421869121040143e-01 5.913558606481205e-01 0.000000000000000e+00
8.381153445249594e-01 5.970780973736297e-01 0.000000000000000e+00
8.338593648766098e-01 6.026612445406770e-01 0.000000000000000e+00
8.292917329389664e-01 6.081562963295545e-01 0.000000000000000e+00
8.245638288049123e-01 6.134171577429842e-01 0.000000000000000e+00
8.196066720658386e-01 6.185498027138228e-01 0.000000000000000e+00
8.143750211669922e-01 6.235566960389417e-01 0.000000000000000e+00
8.090264408206278e-01 6.283243282256533e-01 0.000000000000000e+00
8.034804721777624e-01 6.329061676036568e-01 0.000000000000000e+00
7.976836905274072e-01 6.374252681419379e-01 0.000000000000000e+00
7.917533084841001e-01 6.416959098659629e-01 0.000000000000000e+00
7.856643183601434e-01 6.457870104071568e-01 0.000000000000000e+00
7.793836922719271e-01 6.497373864311977e-01 0.000000000000000e+00
7.729709159550574e-01 6.535033508087699e-01 0.000000000000000e+00
7.663878537041959e-01 6.571581904872785e-01 0.000000000000000e+00
7.597292631530580e-01 6.605794868907248e-01 0.000000000000000e+00
7.529553383221611e-01 6.637905010201386e-01 0.000000000000000e+00
7.460802830956992e-01 6.668793111139905e-01 0.000000000000000e+00
7.389002174724107e-01 6.699663340770901e-01 0.000000000000000e+00
7.317909574693926e-01 6.727254857261404e-01 0.000000000000000e+00
7.246114805653502e-01 6.753543708779663e-01 0.000000000000000e+00
7.172377854594085e-01 6.778944703097751e-01 0.000000000000000e+00
7.099013579718725e-01 6.802211779320678e-01 0.000000000000000e+00
7.023443850167405e-01 6.824978275755544e-01 0.000000000000000e+00
6.948309975942435e-01 6.845822380202689e-01 0.000000000000000e+00
6.871460131855572e-01 6.866070779010700e-01 0.000000000000000e+00
6.794592672175871e-01 6.884597586677307e-01 0.000000000000000e+00
6.717965051099167e-01 6.901712960406142e-01 0.000000000000000e+00
6.639220652220976e-01 6.918464856877763e-01 0.000000000000000e+00
6.561185787287833e-01 6.933377900461295e-01 0.000000000000000e+00
6.482460047175844e-01 6.947695710981328e-01 0.000000000000000e+00
6.402460189403182e-01 6.961089038098871e-01 0.000000000000000e+00
6.323688430319849e-01 6.973006480298006e-01 0.000000000000000e+00
6.243137027426464e-01 6.984678910629394e-01 0.000000000000000e+00
6.163504312464926e-01 6.994808858707201e-01 0.000000000000000e+00
6.082511691080024e-01 7.004654678230557e-01 0.000000000000000e+00
6.002128399041025e-01 7.013270607356430e-01 0.000000000000000e+00
5.920742331397598e-01 7.021414954041140e-01 0.000000000000000e+00
5.839761246184336e-01 7.028474521033446e-01 0.000000000000000e+00
5.758255903603933e-01 7.035025930851044e-01 0.000000000000000e+00
5.676776473600315e-01 7.040687452353085e-01 0.000000000000000e+00
5.594677460678640e-01 7.045829189293747e-01 0.000000000000000e+00
5.513406865543871e-01 7.049942634123468e-01 0.000000000000000e+00
5.431097929365608e-01 7.053836974452771e-01 0.000000000000000e+00
5.349242801941662e-01 7.056618914711679e-01 0.000000000000000e+00
5.267012047510650e-01 7.059176799491849e-01 0.000000000000000e+00
5.185051242844807e-01 7.060824303033170e-01 0.000000000000000e+00
5.102574825587819e-01 7.062009549743113e-01 0.000000000000000e+00
5.020771500878554e-01 7.062390889574202e-01 0.000000000000000e+00
4.938238994535519e-01 7.062300706552489e-01 0.000000000000000e+00
4.856342594361972e-01 7.061408662094704e-01 0.000000000000000e+00
4.774006640218422e-01 7.060155848895823e-01 0.000000000000000e+00
4.691956027096616e-01 7.057885308938266e-01 0.000000000000000e+00
4.610098879664803e-01 7.055481123910393e-01 0.000000000000000e+00
4.527598022081133e-01 7.051868072020621e-01 0.000000000000000e+00
4.446320674718038e-01 7.048103044683147e-01 0.000000000000000e+00
4.364168085547653e-01 7.043201199480276e-01 0.000000000000000e+00
4.282777125116127e-01 7.038063148480743e-01 0.000000000000000e+00
4.200837577616947e-01 7.031687937296001e-01 0.000000000000000e+00
4.120168746137869e-01 7.025162367383269e-01 0.000000000000000e+00
4.038497394653842e-01 7.017363199007333e-01 0.000000000000000e+00
3.958142904524219e-01 7.009184677807915e-01 0.000000000000000e+00
3.876960293951308e-01 6.999750728109486e-01 0.000000000000000e+00
3.796972881746631e-01 6.989855800072121e-01 0.000000000000000e+00
3.716555110153094e-01 6.978939283272405e-01 0.000000000000000e+00
3.636996592048612e-01 6.967065108919236e-01 0.000000000000000e+00
3.557832146527923e-01 6.954618362181789e-01 0.000000000000000e+00
3.477900809670367e-01 6.940444544223120e-01 0.000000000000000e+00
3.400048150971108e-01 6.926068585298191e-01 0.000000000000000e+00
3.321381414442207e-01 6.910210739685305e-01 0.000000000000000e+00
3.243488880539186e-01 6.893099905819082e-01 0.000000000000000e+00
3.167207231502769e-01 6.875635722625139e-01 0.000000000000000e+00
3.090048147432283e-01 6.856141486432370e-01 0.000000000000000e+00
3.014273702343489e-01 6.835702326734214e-01 0.000000000000000e+00
2.938964822944797e-01 6.814002389439789e-01 0.000000000000000e+00
2.864358718499732e-01 6.790769501240197e-01 0.000000000000000e+00
2.790918582420618e-01 6.766581865291416e-01 0.000000000000000e+00
2.717714858851265e-01 6.740357667824356e-01 0.000000000000000e+00
2.646731196100636e-01 6.713823010497050e-01 0.000000000000000e+00
2.574886092106166e-01 6.684459612247676e-01 0.000000000000000e+00
2.504519171789938e-01 6.653254874759622e-01 0.000000000000000e+00
2.436693178845961e-01 6.622235856090898e-01 0.000000000000000e+00
2.369301667511508e-01 6.588972950810368e-01 0.000000000000000e+00
2.303125743330055e-01 6.553672780030142e-01 0.000000000000000e+00
2.238094546581760e-01 6.516447700112641e-01 0.000000000000000e+00
2.174631247243295e-01 6.477878968346920e-01 0.000000000000000e+00
2.112735127137951e-01 6.437501806819316e-01 0.000000000000000e+00
2.052679537070026e-01 6.395861424959491e-01 0.000000000000000e+00
1.993931721420520e-01 6.351779135635610e-01 0.000000000000000e+00
1.937182107273376e-01 6.306301658039228e-01 0.000000000000000e+00
1.882952577976879e-01 6.259695422633218e-01 0.000000000000000e+00
1.829987029090663e-01 6.210712017561407e-01 0.000000000000000e+00
1.778821787587368e-01 6.159906271223377e-01 0.000000000000000e+00
1.730761525134910e-01 6.108209112642855e-01 0.000000000000000e+00
1.683904270987567e-01 6.054311176662746e-01 0.000000000000000e+00
1.639979234450714e-01 5.998790011093835e-01 0.000000000000000e+00
1.598321887663214e-01 5.942511734101246e-01 0.000000000000000e+00
1.558701893352943e-01 5.883974922925669e-01 0.000000000000000e+00
1.521470332952140e-01 5.824074039511349e-01 0.000000000000000e+00
1.487475648406028e-01 5.763483643526024e-01 0.000000000000000e+00
1.456087071170809e-01 5.701877607134542e-01 0.000000000000000e+00
1.427240956089658e-01 5.639130760424047e-01 0.000000000000000e+00
1.400201626696312e-01 5.573856275516219e-01 0.000000000000000e+00
1.376547987308476e-01 5.508099123005881e-01 0.000000000000000e+00
1.356263912819534e-01 5.442012705470572e-01 0.000000000000000e+00
1.338732959857278e-01 5.375437104924445e-01 0.000000000000000e+00
1.323994529166713e-01 5.308226018508381e-01 0.000000000000000e+00
1.311791984361264e-01 5.240075789567877e-01 0.000000000000000e+00
1.302862188683310e-01 5.171802281420548e-01 0.000000000000000e+00
1.296826447189495e-01 5.103014795854941e-01 0.000000000000000e+00
1.293905975158938e-01 5.034311617941563e-01 0.000000000000000e+00
1.293905975158937e-01 4.965688382058453e-01 0.000000000000000e+00
1.296826447189495e-01 4.896985204145050e-01 0.000000000000000e+00
1.302862188683303e-01 4.828197718579436e-01 0.000000000000000e+00
1.311791984361258e-01 4.759924210432122e-01 0.000000000000000e+00
1.323994529166705e-01 4.691773981491630e-01 0.000000000000000e+00
1.338732959857268e-01 4.624562895075544e-01 0.000000000000000e+00
1.356263912819525e-01 4.557987294529426e-01 0.000000000000000e+00
1.376547987308463e-01 4.491900876994122e-01 0.000000000000000e+00
1.400201626696296e-01 4.426143724483784e-01 0.000000000000000e+00
1.427240956089640e-01 4.360869239575972e-01 0.000000000000000e+00
1.456087071170783e-01 4.298122392865433e-01 0.000000000000000e+00
1.487475648406017e-01 4.236516356473994e-01 0.000000000000000e+00
1.521470332952114e-01 4.175925960488691e-01 0.000000000000000e+00
1.558701893352929e-01 4.116025077074312e-01 0.000000000000000e+00
1.598321887663194e-01 4.057488265898763e-01 0.000000000000000e+00
1.639979234450689e-01 4.001209988906197e-01 0.000000000000000e+00
1.683904270987550e-01 3.945688823337273e-01 0.000000000000000e+00
1.730761525134891e-01 3.891790887357137e-01 0.000000000000000e+00
1.778821787587332e-01 3.840093728776649e-01 0.000000000000000e+00
1.829987029090635e-01 3.789287982438608e-01 0.000000000000000e+00
1.882952577976873e-01 3.740304577366783e-01 0.000000000000000e+00
1.937182107273331e-01 3.693698341960774e-01 0.000000000000000e+00
1.993931721420463e-01 3.648220864364439e-01 0.000000000000000e+00
2.052679537069995e-01 3.604138575040507e-01 0.000000000000000e+00
2.112735127137904e-01 3.562498193180726e-01 0.000000000000000e+00
2.174631247243281e-01 3.522121031653062e-01 0.000000000000000e+00
2.238094546581719e-01 3.483552299887369e-01 0.000000000000000e+00
2.303125743330040e-01 3.446327219969870e-01 0.000000000000000e+00
2.369301667511488e-01 3.411027049189645e-01 0.000000000000000e+00
2.436693178845921e-01 3.377764143909099e-01 0.000000000000000e+00
2.504519171789906e-01 3.346745125240405e-01 0.000000000000000e+00
2.574886092106125e-01 3.315540387752366e-01 0.000000000000000e+00
2.646731196100636e-01 3.286176989502925e-01 0.000000000000000e+00
2.717714858851221e-01 3.259642332175669e-01 0.000000000000000e+00
2.790918582420591e-01 3.233418134708588e-01 0.000000000000000e+00
2.864358718499709e-01 3.209230498759835e-01 0.000000000000000e+00
2.938964822944785e-01 3.185997610560197e-01 0.000000000000000e+00
3.014273702343434e-01 3.164297673265803e-01 0.000000000000000e+00
3.090048147432281e-01 3.143858513567636e-01 0.000000000000000e+00
3.167207231502722e-01 3.124364277374883e-01 0.000000000000000e+00
3.243488880539193e-01 3.106900094180942e-01 0.000000000000000e+00
3.321381414442170e-01 3.089789260314671e-01 0.000000000000000e+00
3.400048150971085e-01 3.073931414701867e-01 0.000000000000000e+00
3.477900809670380e-01 3.059555455776868e-01 0.000000000000000e+00
3.557832146527877e-01 3.045381637818240e-01 0.000000000000000e+00
3.636996592048604e-01 3.032934891080777e-01 0.000000000000000e+00
3.716555110153071e-01 3.021060716727598e-01 0.000000000000000e+00
3.796972881746608e-01 3.010144199927870e-01 0.000000000000000e+00
3.876960293951302e-01 3.000249271890537e-01 0.000000000000000e+00
3.958142904524189e-01 2.990815322192089e-01 0.000000000000000e+00
4.038497394653828e-01 2.982636800992682e-01 0.000000000000000e+00
4.120168746137841e-01 2.974837632616721e-01 0.000000000000000e+00
4.200837577616950e-01 2.968312062704002e-01 0.000000000000000e+00
4.282777125116083e-01 2.961936851519246e-01 0.000000000000000e+00
4.364168085547660e-01 2.956798800519740e-01 0.000000000000000e+00
4.446320674718010e-01 2.951896955316847e-01 0.000000000000000e+00
4.527598022081135e-01 2.948131927979360e-01 0.000000000000000e+00
4.610098879664777e-01 2.944518876089626e-01 0.000000000000000e+00
4.691956027096610e-01 2.942114691061738e-01 0.000000000000000e+00
4.774006640218412e-01 2.939844151104182e-01 0.000000000000000e+00
4.856342594361961e-01 2.938591337905276e-01 0.000000000000000e+00
4.938238994535508e-01 2.937699293447534e-01 0.000000000000000e+00
5.020771500878543e-01 2.937609110425801e-01 0.000000000000000e+00
5.102574825587805e-01 2.937990450256862e-01 0.000000000000000e+00
5.185051242844799e-01 2.939175696966854e-01 0.000000000000000e+00
5.267012047510630e-01 2.940823200508130e-01 0.000000000000000e+00
5.349242801941645e-01 2.943381085288320e-01 0.000000000000000e+00
5.431097929365598e-01 2.946163025547236e-01 0.000000000000000e+00
5.513406865543847e-01 2.950057365876543e-01 0.000000000000000e+00
5.594677460678638e-01 2.954170810706255e-01 0.000000000000000e+00
5.676776473600290e-01 2.959312547646898e-01 0.000000000000000e+00
5.758255903603918e-01 2.964974069148972e-01 0.000000000000000e+00
5.839761246184316e-01 2.971525478966552e-01 0.000000000000000e+00
5.920742331397586e-01 2.978585045958866e-01 0.000000000000000e+00
6.002128399040987e-01 2.986729392643552e-01 0.000000000000000e+00
6.082511691080034e-01 2.995345321769463e-01 0.000000000000000e+00
6.163504312464917e-01 3.005191141292810e-01 0.000000000000000e+00
6.243137027426446e-01 3.015321089370609e-01 0.000000000000000e+00
6.323688430319854e-01 3.026993519702013e-01 0.000000000000000e+00
6.402460189403159e-01 3.038910961901102e-01 0.000000000000000e+00
6.482460047175871e-01 3.052304289018711e-01 0.000000000000000e+00
6.561185787287792e-01 3.066622099538687e-01 0.000000000000000e+00
6.639220652220980e-01 3.081535143122222e-01 0.000000000000000e+00
6.717965051099184e-01 3.098287039593862e-01 0.000000000000000e+00
6.794592672175849e-01 3.115402413322673e-01 0.000000000000000e+00
6.871460131855566e-01 3.133929220989297e-01 0.000000000000000e+00
6.948309975942440e-01 3.154177619797298e-01 0.000000000000000e+00
7.023443850167368e-01 3.175021724244438e-01 0.000000000000000e+00
7.099013579718746e-01 3.197788220679333e-01 0.000000000000000e+00
7.172377854594093e-01 3.221055296902262e-01 0.000000000000000e+00
7.246114805653476e-01 3.246456291220328e-01 0.000000000000000e+00
7.317909574693896e-01 3.272745142738588e-01 0.000000000000000e+00
7.389002174724122e-01 3.300336659229098e-01 0.000000000000000e+00
7.460802830956950e-01 3.331206888860092e-01 0.000000000000000e+00
7.529553383221606e-01 3.362094989798625e-01 0.000000000000000e+00
7.597292631530576e-01 3.394205131092740e-01 0.000000000000000e+00
7.663878537041956e-01 3.428418095127218e-01 0.000000000000000e+00
7.729709159550574e-01 3.464966491912332e-01 0.000000000000000e+00
7.793836922719253e-01 3.502626135688015e-01 0.000000000000000e+00
7.856643183601438e-01 3.542129895928459e-01 0.000000000000000e+00
7.917533084840978e-01 3.583040901340341e-01 0.000000000000000e+00
7.976836905274072e-01 3.625747318580624e-01 0.000000000000000e+00
8.034804721777590e-01 3.670938323963430e-01 0.000000000000000e+00
8.090264408206265e-01 3.716756717743471e-01 0.000000000000000e+00
8.143750211669913e-01 3.764433039610575e-01 0.000000000000000e+00
8.196066720658355e-01 3.814501972861760e-01 0.000000000000000e+00
8.245638288049124e-01 3.865828422570164e-01 0.000000000000000e+00
8.292917329389650e-01 3.918437036704465e-01 0.000000000000000e+00
8.338593648766103e-01 3.973387554593217e-01 0.000000000000000e+00
8.381153445249566e-01 4.029219026263680e-01 0.000000000000000e+00
8.421869121040141e-01 4.086441393518805e-01 0.000000000000000e+00
8.460246691993895e-01 4.145895259812977e-01 0.000000000000000e+00
8.496062483459843e-01 4.206033510746481e-01 0.000000000000000e+00
8.528495123376235e-01 4.267140587959659e-01 0.000000000000000e+00
8.558924420101898e-01 4.329405492090928e-01 0.000000000000000e+00
8.586474279993707e-01 4.393088222871490e-01 0.000000000000000e+00
8.612474730015609e-01 4.459274281470832e-01 0.000000000000000e+00
8.633829384470058e-01 4.524754272584214e-01 0.000000000000000e+00
8.653256082301857e-01 4.591507726623300e-01 0.000000000000000e+00
8.668859557596852e-01 4.657960444411073e-01 0.000000000000000e+00
8.682932044570369e-01 4.725962991553634e-01 0.000000000000000e+00
8.693057616480887e-01 4.793894389322866e-01 0.000000000000000e+00
8.700682449352181e-01 4.862680613314289e-01 0.000000000000000e+00
8.704962376344845e-01 4.931264378670023e-01 0.000000000000000e+00

POINT_DATA   249
SCALARS fNorm double
LOOKUP_TABLE default

3.141411e+01 
2.713290e+01 
3.314925e+01 
2.589873e+01 
3.873180e+01 
1.829593e+01 
3.621091e+01 
2.217749e+01 
4.131823e+01 
2.386443e+01 
3.208487e+01 
2.310687e+01 
3.423464e+01 
2.536932e+01 
3.186962e+01 
2.309486e+01 
2.986232e+01 
2.743592e+01 
2.551434e+01 
2.827445e+01 
2.550408e+01 
2.695397e+01 
2.058663e+01 
2.788763e+01 
2.379794e+01 
2.224214e+01 
2.262179e+01 
1.809300e+01 
2.415618e+01 
2.396342e+01 
1.533399e+01 
1.243616e+01 
2.766395e+01 
1.466426e+01 
1.486930e+01 
1.909094e+01 
1.129686e+01 
1.725619e+01 
1.022999e+01 
1.673541e+01 
1.320831e+01 
8.061308e+00 
1.662133e+01 
7.118472e+00 
1.129886e+01 
1.264220e+01 
5.032077e+00 
1.404643e+01 
4.499463e+00 
1.152735e+01 
5.724400e+00 
1.042300e+01 
5.501700e+00 
8.855104e+00 
5.595591e+00 
9.798855e+00 
2.697269e+00 
1.093114e+01 
2.362405e+00 
9.031818e+00 
4.710851e+00 
7.974406e+00 
4.727874e+00 
8.055549e+00 
3.549439e+00 
1.023584e+01 
1.392150e+00 
1.184623e+01 
2.070345e+00 
1.088924e+01 
2.824833e+00 
1.195519e+01 
2.504809e+00 
1.180632e+01 
5.068192e+00 
1.158332e+01 
6.000842e+00 
9.578416e+00 
1.069446e+01 
6.258534e+00 
1.576905e+01 
5.690791e+00 
1.300624e+01 
1.385676e+01 
6.975122e+00 
1.768270e+01 
1.264107e+01 
1.339729e+01 
1.670151e+01 
1.264996e+01 
2.003044e+01 
1.054512e+01 
2.320075e+01 
2.273595e+01 
8.739950e+00 
2.213243e+01 
2.367636e+01 
2.238299e+01 
1.953901e+01 
2.365091e+01 
2.075418e+01 
2.745210e+01 
2.326464e+01 
2.477832e+01 
2.615247e+01 
2.560860e+01 
2.850841e+01 
2.365917e+01 
3.292770e+01 
2.260709e+01 
2.967642e+01 
2.745229e+01 
3.136910e+01 
2.777146e+01 
2.785448e+01 
2.667167e+01 
3.330896e+01 
3.300446e+01 
2.781890e+01 
2.864073e+01 
2.670738e+01 
3.252778e+01 
2.932721e+01 
3.103194e+01 
2.918186e+01 
2.918186e+01 
3.103194e+01 
2.932721e+01 
3.252778e+01 
2.670738e+01 
2.864073e+01 
2.781890e+01 
3.300446e+01 
3.330896e+01 
2.667167e+01 
2.785448e+01 
2.777146e+01 
3.136910e+01 
2.745229e+01 
2.967642e+01 
2.260709e+01 
3.292770e+01 
2.365917e+01 
2.850841e+01 
2.560860e+01 
2.615247e+01 
2.477832e+01 
2.326464e+01 
2.745210e+01 
2.075418e+01 
2.365091e+01 
1.953901e+01 
2.238299e+01 
2.367636e+01 
2.213243e+01 
8.739950e+00 
2.273595e+01 
2.320075e+01 
1.054512e+01 
2.003044e+01 
1.264996e+01 
1.670151e+01 
1.339729e+01 
1.264107e+01 
1.768270e+01 
6.975122e+00 
1.385676e+01 
1.300624e+01 
5.690791e+00 
1.576905e+01 
6.258534e+00 
1.069446e+01 
9.578416e+00 
6.000842e+00 
1.158332e+01 
5.068192e+00 
1.180632e+01 
2.504809e+00 
1.195519e+01 
2.824833e+00 
1.088924e+01 
2.070345e+00 
1.184623e+01 
1.392150e+00 
1.023584e+01 
3.549439e+00 
8.055549e+00 
4.727874e+00 
7.974406e+00 
4.710851e+00 
9.031818e+00 
2.362405e+00 
1.093114e+01 
2.697269e+00 
9.798855e+00 
5.595591e+00 
8.855104e+00 
5.501700e+00 
1.042300e+01 
5.724400e+00 
1.152735e+01 
4.499463e+00 
1.404643e+01 
5.032077e+00 
1.264220e+01 
1.129886e+01 
7.118472e+00 
1.662133e+01 
8.061308e+00 
1.320831e+01 
1.673541e+01 
1.022999e+01 
1.725619e+01 
1.129686e+01 
1.909094e+01 
1.486930e+01 
1.466426e+01 
2.766395e+01 
1.243616e+01 
1.533399e+01 
2.396342e+01 
2.415618e+01 
1.809300e+01 
2.262179e+01 
2.224214e+01 
2.379794e+01 
2.788763e+01 
2.058663e+01 
2.695397e+01 
2.550408e+01 
2.827445e+01 
2.551434e+01 
2.743592e+01 
2.986232e+01 
2.309486e+01 
3.186962e+01 
2.536932e+01 
3.423464e+01 
2.310687e+01 
3.208487e+01 
2.386443e+01 
4.131823e+01 
2.217749e+01 
3.621091e+01 
1.829593e+01 
3.873180e+01 
2.589873e+01 
3.314925e+01 
2.713290e+01 
