# vtk DataFile Version 2.0
fTan
ASCII
DATASET UNSTRUCTURED_GRID

FIELD FieldData 1
TIME 1 1 double
1.21000000
POINTS 249 float
7.726606971903843e-01 5.000000000000087e-01 0.000000000000000e+00
7.725755727268808e-01 5.069962293796653e-01 0.000000000000000e+00
7.723178253747761e-01 5.140140355488009e-01 0.000000000000000e+00
7.718741067484001e-01 5.210172038111862e-01 0.000000000000000e+00
7.713193638768855e-01 5.279017689435166e-01 0.000000000000000e+00
7.704957085722915e-01 5.350146810709815e-01 0.000000000000000e+00
7.696942006262776e-01 5.416745175284661e-01 0.000000000000000e+00
7.683873202308082e-01 5.489403082861747e-01 0.000000000000000e+00
7.675034667070139e-01 5.551476804140870e-01 0.000000000000000e+00
7.657170892073709e-01 5.625254226583661e-01 0.000000000000000e+00
7.645374495007127e-01 5.687822182377450e-01 0.000000000000000e+00
7.624826678833658e-01 5.758340490093087e-01 0.000000000000000e+00
7.605691956035976e-01 5.825042288672830e-01 0.000000000000000e+00
7.586234871993260e-01 5.889775957731749e-01 0.000000000000000e+00
7.560853755421493e-01 5.959179303592816e-01 0.000000000000000e+00
7.542473969991879e-01 6.016306767456228e-01 0.000000000000000e+00
7.513206938268312e-01 6.086521962636251e-01 0.000000000000000e+00
7.487653519048769e-01 6.147248243332668e-01 0.000000000000000e+00
7.458359537946840e-01 6.211155966654768e-01 0.000000000000000e+00
7.426546005789586e-01 6.275695688554215e-01 0.000000000000000e+00
7.398024064458807e-01 6.332843849069835e-01 0.000000000000000e+00
7.362353097854725e-01 6.396998453567665e-01 0.000000000000000e+00
7.328040764724719e-01 6.455472407840304e-01 0.000000000000000e+00
7.291982650204807e-01 6.514519630750596e-01 0.000000000000000e+00
7.253171869767485e-01 6.574139121253324e-01 0.000000000000000e+00
7.215141645442980e-01 6.629480158960009e-01 0.000000000000000e+00
7.173889500671725e-01 6.686236456001119e-01 0.000000000000000e+00
7.131242063804760e-01 6.741915016251575e-01 0.000000000000000e+00
7.088383873528341e-01 6.795420050120229e-01 0.000000000000000e+00
7.044405919959278e-01 6.847491404807865e-01 0.000000000000000e+00
6.997440930405370e-01 6.899786192678814e-01 0.000000000000000e+00
6.949655198698851e-01 6.950888165116331e-01 0.000000000000000e+00
6.902315768745544e-01 6.999128297665406e-01 0.000000000000000e+00
6.852228425920805e-01 7.046820545147449e-01 0.000000000000000e+00
6.800320160266193e-01 7.094524748156670e-01 0.000000000000000e+00
6.749093812045573e-01 7.139334366045438e-01 0.000000000000000e+00
6.696389127246521e-01 7.182584452186829e-01 0.000000000000000e+00
6.640081580252971e-01 7.226603904746494e-01 0.000000000000000e+00
6.585626835223809e-01 7.267239669236889e-01 0.000000000000000e+00
6.529660902868927e-01 7.306817702627820e-01 0.000000000000000e+00
6.470784201908832e-01 7.345861972733796e-01 0.000000000000000e+00
6.415650952502884e-01 7.380115521994726e-01 0.000000000000000e+00
6.353311438639062e-01 7.417337254401003e-01 0.000000000000000e+00
6.293507917372451e-01 7.451289149107404e-01 0.000000000000000e+00
6.234589007175382e-01 7.482599412407391e-01 0.000000000000000e+00
6.168344127023895e-01 7.515358085491715e-01 0.000000000000000e+00
6.113619478412051e-01 7.538445913328083e-01 0.000000000000000e+00
6.045585536175386e-01 7.570426166251846e-01 0.000000000000000e+00
5.985328914875668e-01 7.592791108397317e-01 0.000000000000000e+00
5.920659399970258e-01 7.616778379416397e-01 0.000000000000000e+00
5.851657104856721e-01 7.641873963235809e-01 0.000000000000000e+00
5.791823507440220e-01 7.659012339154196e-01 0.000000000000000e+00
5.719326753336780e-01 7.681706329508645e-01 0.000000000000000e+00
5.662244544702731e-01 7.693099044089339e-01 0.000000000000000e+00
5.590164565119964e-01 7.711124437224771e-01 0.000000000000000e+00
5.525493841692337e-01 7.723633791992799e-01 0.000000000000000e+00
5.456737782758394e-01 7.735829913256582e-01 0.000000000000000e+00
5.387173808180259e-01 7.746598989733406e-01 0.000000000000000e+00
5.319847950342945e-01 7.754661186877947e-01 0.000000000000000e+00
5.249463105679718e-01 7.761776882061252e-01 0.000000000000000e+00
5.182467783961404e-01 7.766136505359788e-01 0.000000000000000e+00
5.112138271647723e-01 7.769544530679843e-01 0.000000000000000e+00
5.043930376022397e-01 7.770770999807713e-01 0.000000000000000e+00
4.974056477500476e-01 7.770303684648744e-01 0.000000000000000e+00
4.905863022615462e-01 7.768163924807119e-01 0.000000000000000e+00
4.835795033879680e-01 7.763848804230227e-01 0.000000000000000e+00
4.768899034757227e-01 7.758571096183158e-01 0.000000000000000e+00
4.697794253584306e-01 7.750144786428554e-01 0.000000000000000e+00
4.632370762103695e-01 7.741714278995634e-01 0.000000000000000e+00
4.561034981754171e-01 7.729665180422989e-01 0.000000000000000e+00
4.496183532156448e-01 7.718260332958959e-01 0.000000000000000e+00
4.426616816790253e-01 7.702197931057637e-01 0.000000000000000e+00
4.358801643579512e-01 7.684638512302104e-01 0.000000000000000e+00
4.296922799659710e-01 7.670663282935760e-01 0.000000000000000e+00
4.226138905468377e-01 7.647716823470325e-01 0.000000000000000e+00
4.166358151835313e-01 7.630573549683832e-01 0.000000000000000e+00
4.096612244910292e-01 7.602226061871377e-01 0.000000000000000e+00
4.035624506585440e-01 7.581716160198965e-01 0.000000000000000e+00
3.970363582578249e-01 7.553744167643471e-01 0.000000000000000e+00
3.906333245419362e-01 7.523356423266041e-01 0.000000000000000e+00
3.848108751379832e-01 7.497266199554583e-01 0.000000000000000e+00
3.783270934523321e-01 7.464238458570261e-01 0.000000000000000e+00
3.726636673480311e-01 7.433444710227423e-01 0.000000000000000e+00
3.664986223546782e-01 7.396945285904158e-01 0.000000000000000e+00
3.604205970991478e-01 7.359562213245223e-01 0.000000000000000e+00
3.549453776135538e-01 7.324814662463133e-01 0.000000000000000e+00
3.490945589204864e-01 7.284483619099898e-01 0.000000000000000e+00
3.435541854302009e-01 7.243989359489262e-01 0.000000000000000e+00
3.381666001659624e-01 7.202603947679120e-01 0.000000000000000e+00
3.326504810984687e-01 7.158623217896637e-01 0.000000000000000e+00
3.274495959884911e-01 7.114297823155722e-01 0.000000000000000e+00
3.224286719900241e-01 7.068924809266913e-01 0.000000000000000e+00
3.172593670494225e-01 7.020528438109481e-01 0.000000000000000e+00
3.123578609229135e-01 6.971958797912677e-01 0.000000000000000e+00
3.077070513599006e-01 6.923246417424594e-01 0.000000000000000e+00
3.029575447470623e-01 6.871471178296799e-01 0.000000000000000e+00
2.984364978012838e-01 6.818990777988700e-01 0.000000000000000e+00
2.940762731543613e-01 6.766144730807252e-01 0.000000000000000e+00
2.898241044631387e-01 6.712110961201673e-01 0.000000000000000e+00
2.856069976125332e-01 6.655162387309618e-01 0.000000000000000e+00
2.816692565387111e-01 6.599009934092588e-01 0.000000000000000e+00
2.778268340830529e-01 6.542093082279543e-01 0.000000000000000e+00
2.740030851381151e-01 6.482003967997704e-01 0.000000000000000e+00
2.707351270096110e-01 6.425642361244683e-01 0.000000000000000e+00
2.671902751411604e-01 6.363364674924497e-01 0.000000000000000e+00
2.638007118927124e-01 6.301320705158212e-01 0.000000000000000e+00
2.608558034846853e-01 6.242329243355682e-01 0.000000000000000e+00
2.577071507200360e-01 6.175019836660649e-01 0.000000000000000e+00
2.553290459505879e-01 6.117540694616065e-01 0.000000000000000e+00
2.524041490156872e-01 6.050993745318676e-01 0.000000000000000e+00
2.499467317431898e-01 5.986103226373551e-01 0.000000000000000e+00
2.477842218278011e-01 5.922286029602282e-01 0.000000000000000e+00
2.452121161430623e-01 5.851616699401703e-01 0.000000000000000e+00
2.438385107533662e-01 5.792805094559161e-01 0.000000000000000e+00
2.416014040785684e-01 5.720332478445332e-01 0.000000000000000e+00
2.402451519721384e-01 5.657707563775795e-01 0.000000000000000e+00
2.386047419073051e-01 5.587853158037398e-01 0.000000000000000e+00
2.372710280560541e-01 5.519227007180820e-01 0.000000000000000e+00
2.361714857791145e-01 5.452782975818210e-01 0.000000000000000e+00
2.350136878443108e-01 5.379974105417006e-01 0.000000000000000e+00
2.343022203788467e-01 5.314964079949053e-01 0.000000000000000e+00
2.335374594572705e-01 5.242433703673502e-01 0.000000000000000e+00
2.331024487046250e-01 5.175511953312673e-01 0.000000000000000e+00
2.327295728591986e-01 5.104285522658079e-01 0.000000000000000e+00
2.325778898835048e-01 5.035215344051962e-01 0.000000000000000e+00
2.325778898835008e-01 4.964784655959078e-01 0.000000000000000e+00
2.327295728591907e-01 4.895714477352801e-01 0.000000000000000e+00
2.331024487046122e-01 4.824488046698363e-01 0.000000000000000e+00
2.335374594572564e-01 4.757566296337563e-01 0.000000000000000e+00
2.343022203788170e-01 4.685035920061898e-01 0.000000000000000e+00
2.350136878442926e-01 4.620025894593678e-01 0.000000000000000e+00
2.361714857790898e-01 4.547217024192554e-01 0.000000000000000e+00
2.372710280560328e-01 4.480772992829858e-01 0.000000000000000e+00
2.386047419072501e-01 4.412146841973615e-01 0.000000000000000e+00
2.402451519720866e-01 4.342292436235105e-01 0.000000000000000e+00
2.416014040784847e-01 4.279667521566025e-01 0.000000000000000e+00
2.438385107533088e-01 4.207194905451825e-01 0.000000000000000e+00
2.452121161430280e-01 4.148383300608713e-01 0.000000000000000e+00
2.477842218277269e-01 4.077713970408663e-01 0.000000000000000e+00
2.499467317431685e-01 4.013896773636599e-01 0.000000000000000e+00
2.524041490156152e-01 3.949006254692118e-01 0.000000000000000e+00
2.553290459505292e-01 3.882459305394463e-01 0.000000000000000e+00
2.577071507199614e-01 3.824980163350318e-01 0.000000000000000e+00
2.608558034845956e-01 3.757670756655074e-01 0.000000000000000e+00
2.638007118926530e-01 3.698679294851999e-01 0.000000000000000e+00
2.671902751410606e-01 3.636635325086254e-01 0.000000000000000e+00
2.707351270095357e-01 3.574357638765661e-01 0.000000000000000e+00
2.740030851380172e-01 3.517996032012839e-01 0.000000000000000e+00
2.778268340829337e-01 3.457906917731067e-01 0.000000000000000e+00
2.816692565386096e-01 3.400990065917672e-01 0.000000000000000e+00
2.856069976123989e-01 3.344837612700992e-01 0.000000000000000e+00
2.898241044630155e-01 3.287889038808668e-01 0.000000000000000e+00
2.940762731542330e-01 3.233855269202996e-01 0.000000000000000e+00
2.984364978011374e-01 3.181009222021659e-01 0.000000000000000e+00
3.029575447469094e-01 3.128528821713356e-01 0.000000000000000e+00
3.077070513597329e-01 3.076753582585767e-01 0.000000000000000e+00
3.123578609227566e-01 3.028041202097400e-01 0.000000000000000e+00
3.172593670492537e-01 2.979471561900522e-01 0.000000000000000e+00
3.224286719898342e-01 2.931075190743204e-01 0.000000000000000e+00
3.274495959883167e-01 2.885702176854286e-01 0.000000000000000e+00
3.326504810982910e-01 2.841376782113202e-01 0.000000000000000e+00
3.381666001657613e-01 2.797396052330867e-01 0.000000000000000e+00
3.435541854300085e-01 2.756010640520598e-01 0.000000000000000e+00
3.490945589203097e-01 2.715516380909784e-01 0.000000000000000e+00
3.549453776133652e-01 2.675185337546421e-01 0.000000000000000e+00
3.604205970989449e-01 2.640437786764513e-01 0.000000000000000e+00
3.664986223544486e-01 2.603054714105570e-01 0.000000000000000e+00
3.726636673478388e-01 2.566555289782104e-01 0.000000000000000e+00
3.783270934521322e-01 2.535761541439296e-01 0.000000000000000e+00
3.848108751377807e-01 2.502733800454742e-01 0.000000000000000e+00
3.906333245417312e-01 2.476643576743396e-01 0.000000000000000e+00
3.970363582575989e-01 2.446255832365914e-01 0.000000000000000e+00
4.035624506583411e-01 2.418283839810365e-01 0.000000000000000e+00
4.096612244908003e-01 2.397773938138038e-01 0.000000000000000e+00
4.166358151833138e-01 2.369426450325298e-01 0.000000000000000e+00
4.226138905466144e-01 2.352283176538593e-01 0.000000000000000e+00
4.296922799657258e-01 2.329336717073363e-01 0.000000000000000e+00
4.358801643577024e-01 2.315361487706863e-01 0.000000000000000e+00
4.426616816787908e-01 2.297802068951083e-01 0.000000000000000e+00
4.496183532153815e-01 2.281739667049914e-01 0.000000000000000e+00
4.561034981751683e-01 2.270334819585611e-01 0.000000000000000e+00
4.632370762101371e-01 2.258285721012895e-01 0.000000000000000e+00
4.697794253581650e-01 2.249855213580021e-01 0.000000000000000e+00
4.768899034754791e-01 2.241428903825194e-01 0.000000000000000e+00
4.835795033877034e-01 2.236151195778147e-01 0.000000000000000e+00
4.905863022612933e-01 2.231836075201122e-01 0.000000000000000e+00
4.974056477497888e-01 2.229696315359469e-01 0.000000000000000e+00
5.043930376019788e-01 2.229229000200382e-01 0.000000000000000e+00
5.112138271645228e-01 2.230455469328229e-01 0.000000000000000e+00
5.182467783958844e-01 2.233863494648174e-01 0.000000000000000e+00
5.249463105677341e-01 2.238223117946571e-01 0.000000000000000e+00
5.319847950340411e-01 2.245338813129882e-01 0.000000000000000e+00
5.387173808177984e-01 2.253401010274401e-01 0.000000000000000e+00
5.456737782755900e-01 2.264170086750987e-01 0.000000000000000e+00
5.525493841689914e-01 2.276366208014710e-01 0.000000000000000e+00
5.590164565117642e-01 2.288875562782710e-01 0.000000000000000e+00
5.662244544700227e-01 2.306900955918047e-01 0.000000000000000e+00
5.719326753334658e-01 2.318293670498750e-01 0.000000000000000e+00
5.791823507438114e-01 2.340987660853183e-01 0.000000000000000e+00
5.851657104854517e-01 2.358126036771189e-01 0.000000000000000e+00
5.920659399968032e-01 2.383221620590842e-01 0.000000000000000e+00
5.985328914873499e-01 2.407208891609742e-01 0.000000000000000e+00
6.045585536173408e-01 2.429573833755169e-01 0.000000000000000e+00
6.113619478410030e-01 2.461554086678983e-01 0.000000000000000e+00
6.168344127022002e-01 2.484641914515208e-01 0.000000000000000e+00
6.234589007173337e-01 2.517400587599373e-01 0.000000000000000e+00
6.293507917370557e-01 2.548710850899467e-01 0.000000000000000e+00
6.353311438637157e-01 2.582662745605794e-01 0.000000000000000e+00
6.415650952501181e-01 2.619884478012147e-01 0.000000000000000e+00
6.470784201906978e-01 2.654138027272893e-01 0.000000000000000e+00
6.529660902866999e-01 2.693182297378739e-01 0.000000000000000e+00
6.585626835222043e-01 2.732760330769799e-01 0.000000000000000e+00
6.640081580251195e-01 2.773396095260201e-01 0.000000000000000e+00
6.696389127244801e-01 2.817415547819740e-01 0.000000000000000e+00
6.749093812043739e-01 2.860665633961079e-01 0.000000000000000e+00
6.800320160264424e-01 2.905475251849949e-01 0.000000000000000e+00
6.852228425919085e-01 2.953179454859000e-01 0.000000000000000e+00
6.902315768743812e-01 3.000871702341091e-01 0.000000000000000e+00
6.949655198697090e-01 3.049111834890048e-01 0.000000000000000e+00
6.997440930403809e-01 3.100213807327602e-01 0.000000000000000e+00
7.044405919957524e-01 3.152508595198457e-01 0.000000000000000e+00
7.088383873526911e-01 3.204579949886171e-01 0.000000000000000e+00
7.131242063803284e-01 3.258084983754747e-01 0.000000000000000e+00
7.173889500670213e-01 3.313763544005184e-01 0.000000000000000e+00
7.215141645441603e-01 3.370519841046325e-01 0.000000000000000e+00
7.253171869766069e-01 3.425860878752837e-01 0.000000000000000e+00
7.291982650203607e-01 3.485480369255796e-01 0.000000000000000e+00
7.328040764723275e-01 3.544527592165613e-01 0.000000000000000e+00
7.362353097853453e-01 3.603001546438505e-01 0.000000000000000e+00
7.398024064457612e-01 3.667156150936382e-01 0.000000000000000e+00
7.426546005788329e-01 3.724304311451735e-01 0.000000000000000e+00
7.458359537945776e-01 3.788844033351277e-01 0.000000000000000e+00
7.487653519047412e-01 3.852751756673039e-01 0.000000000000000e+00
7.513206938267278e-01 3.913478037369792e-01 0.000000000000000e+00
7.542473969990854e-01 3.983693232549796e-01 0.000000000000000e+00
7.560853755420632e-01 4.040820696413160e-01 0.000000000000000e+00
7.586234871992512e-01 4.110224042274315e-01 0.000000000000000e+00
7.605691956035011e-01 4.174957711332992e-01 0.000000000000000e+00
7.624826678832825e-01 4.241659509912677e-01 0.000000000000000e+00
7.645374495006231e-01 4.312177817628078e-01 0.000000000000000e+00
7.657170892073117e-01 4.374745773422402e-01 0.000000000000000e+00
7.675034667069711e-01 4.448523195865121e-01 0.000000000000000e+00
7.683873202307702e-01 4.510596917144416e-01 0.000000000000000e+00
7.696942006262485e-01 4.583254824721612e-01 0.000000000000000e+00
7.704957085722570e-01 4.649853189296113e-01 0.000000000000000e+00
7.713193638768625e-01 4.720982310570230e-01 0.000000000000000e+00
7.718741067483817e-01 4.789827961894009e-01 0.000000000000000e+00
7.723178253747677e-01 4.859859644519375e-01 0.000000000000000e+00
7.725755727268764e-01 4.930037706212190e-01 0.000000000000000e+00

POINT_DATA   249
SCALARS fTan double
LOOKUP_TABLE default

8.668638e-08 
2.579431e+00 
5.324287e-01 
1.103325e+01 
2.536089e+01 
4.525727e+01 
6.747851e+01 
1.112626e+02 
1.322506e+02 
1.224351e+02 
9.792779e+01 
4.059054e+01 
1.797625e+01 
6.307060e+01 
1.389031e+02 
1.607327e+02 
1.018708e+02 
4.418574e+01 
1.653330e+01 
8.084281e+01 
9.536657e+01 
5.607150e+01 
1.388401e+01 
1.952989e+01 
3.990580e+01 
3.016032e+01 
2.924237e-01 
1.581692e+01 
3.958020e+00 
2.131298e+01 
3.256189e+00 
2.375497e+01 
1.574415e+01 
1.337433e+01 
2.440363e+01 
1.202143e+00 
3.293089e+01 
3.526906e+01 
6.009286e+00 
2.100409e+01 
5.739100e+01 
7.698832e+01 
3.837497e+01 
2.047743e+01 
7.181302e+01 
1.451241e+02 
1.578240e+02 
1.091141e+02 
4.701447e+01 
4.449190e+01 
1.119072e+02 
1.372666e+02 
1.778192e+02 
1.609577e+02 
8.433169e+01 
3.959962e+01 
5.632167e+00 
2.585982e+01 
2.936801e+01 
3.607135e+01 
3.275041e+01 
2.193338e+01 
1.656645e+01 
1.648537e+01 
1.973902e+01 
3.096900e+01 
4.499227e+01 
5.637838e+01 
6.382893e+01 
6.499510e+01 
5.552185e+01 
1.345489e+01 
6.614701e+01 
1.098396e+02 
1.222155e+02 
1.311456e+02 
1.094762e+02 
6.664324e+01 
1.282509e+00 
7.072356e+01 
8.964663e+01 
8.301308e+01 
7.181682e+01 
2.886469e+00 
6.508607e+01 
6.215022e+01 
2.437545e+01 
6.880580e+00 
2.611920e+01 
2.213982e+01 
6.616488e+00 
3.139452e+01 
1.809078e+01 
1.654844e+01 
2.911151e+01 
9.912127e+00 
7.572851e+00 
2.469132e+00 
2.104245e+01 
2.279659e+01 
8.970615e-01 
2.550846e+01 
6.074514e+01 
6.509228e+01 
9.604481e+00 
4.766347e+01 
8.376732e+01 
1.210858e+02 
1.048742e+02 
3.304533e+01 
2.006631e+01 
7.823840e+01 
1.483702e+02 
1.546224e+02 
1.178130e+02 
7.678501e+01 
1.844988e+01 
2.562787e+01 
6.376060e+01 
8.328102e+01 
7.534296e+01 
5.870643e+01 
4.261095e+01 
2.237419e+01 
1.343924e+01 
1.343924e+01 
2.237419e+01 
4.261095e+01 
5.870643e+01 
7.534296e+01 
8.328102e+01 
6.376060e+01 
2.562787e+01 
1.844988e+01 
7.678501e+01 
1.178130e+02 
1.546224e+02 
1.483702e+02 
7.823840e+01 
2.006631e+01 
3.304533e+01 
1.048742e+02 
1.210858e+02 
8.376732e+01 
4.766347e+01 
9.604481e+00 
6.509228e+01 
6.074514e+01 
2.550846e+01 
8.970615e-01 
2.279659e+01 
2.104245e+01 
2.469132e+00 
7.572851e+00 
9.912127e+00 
2.911151e+01 
1.654844e+01 
1.809078e+01 
3.139452e+01 
6.616488e+00 
2.213982e+01 
2.611920e+01 
6.880580e+00 
2.437545e+01 
6.215022e+01 
6.508607e+01 
2.886469e+00 
7.181682e+01 
8.301308e+01 
8.964663e+01 
7.072356e+01 
1.282509e+00 
6.664324e+01 
1.094762e+02 
1.311456e+02 
1.222155e+02 
1.098396e+02 
6.614701e+01 
1.345489e+01 
5.552185e+01 
6.499510e+01 
6.382893e+01 
5.637838e+01 
4.499227e+01 
3.096900e+01 
1.973902e+01 
1.648537e+01 
1.656645e+01 
2.193338e+01 
3.275041e+01 
3.607135e+01 
2.936801e+01 
2.585982e+01 
5.632167e+00 
3.959962e+01 
8.433169e+01 
1.609577e+02 
1.778192e+02 
1.372666e+02 
1.119072e+02 
4.449190e+01 
4.701447e+01 
1.091141e+02 
1.578240e+02 
1.451241e+02 
7.181302e+01 
2.047743e+01 
3.837497e+01 
7.698832e+01 
5.739100e+01 
2.100409e+01 
6.009286e+00 
3.526906e+01 
3.293089e+01 
1.202143e+00 
2.440363e+01 
1.337433e+01 
1.574415e+01 
2.375497e+01 
3.256189e+00 
2.131298e+01 
3.958020e+00 
1.581692e+01 
2.924237e-01 
3.016032e+01 
3.990580e+01 
1.952989e+01 
1.388401e+01 
5.607150e+01 
9.536657e+01 
8.084281e+01 
1.653330e+01 
4.418574e+01 
1.018708e+02 
1.607327e+02 
1.389031e+02 
6.307060e+01 
1.797625e+01 
4.059054e+01 
9.792779e+01 
1.224351e+02 
1.322506e+02 
1.112626e+02 
6.747851e+01 
4.525727e+01 
2.536089e+01 
1.103325e+01 
5.324287e-01 
2.579431e+00 
