# vtk DataFile Version 2.0
fX_Lag
ASCII
DATASET UNSTRUCTURED_GRID

FIELD FieldData 1
TIME 1 1 double
0.59000000
POINTS 249 float
7.447823666875302e-01 5.000000000000000e-01 0.000000000000000e+00
7.447350027878529e-01 5.073380295842431e-01 0.000000000000000e+00
7.445470966612013e-01 5.146912541042373e-01 0.000000000000000e+00
7.442411055318151e-01 5.220302094492606e-01 0.000000000000000e+00
7.438547227249842e-01 5.292795426846685e-01 0.000000000000000e+00
7.432410173644529e-01 5.367544039714351e-01 0.000000000000000e+00
7.426802755628512e-01 5.438518740068039e-01 0.000000000000000e+00
7.417744165368750e-01 5.514295133590247e-01 0.000000000000000e+00
7.410887890886574e-01 5.582032480358367e-01 0.000000000000000e+00
7.398370139454400e-01 5.659289873331589e-01 0.000000000000000e+00
7.389312503869072e-01 5.726397438718925e-01 0.000000000000000e+00
7.375347401942159e-01 5.801095483067131e-01 0.000000000000000e+00
7.362015037281624e-01 5.871840760077458e-01 0.000000000000000e+00
7.346181555784574e-01 5.943897220399724e-01 0.000000000000000e+00
7.328683662755243e-01 6.016754891863316e-01 0.000000000000000e+00
7.313058789487642e-01 6.083457137795494e-01 0.000000000000000e+00
7.292779081215346e-01 6.156578369990562e-01 0.000000000000000e+00
7.272767013459547e-01 6.225233639745970e-01 0.000000000000000e+00
7.250753486833835e-01 6.294688641887077e-01 0.000000000000000e+00
7.227511015052068e-01 6.364585655192821e-01 0.000000000000000e+00
7.204261038364559e-01 6.431309098450088e-01 0.000000000000000e+00
7.177971375909465e-01 6.500013043412565e-01 0.000000000000000e+00
7.150457239001878e-01 6.567706389930169e-01 0.000000000000000e+00
7.122438637701677e-01 6.633489582041449e-01 0.000000000000000e+00
7.092418806313227e-01 6.699521117355043e-01 0.000000000000000e+00
7.061505820707917e-01 6.764769728870549e-01 0.000000000000000e+00
7.029511664980622e-01 6.828255186481930e-01 0.000000000000000e+00
6.995175117250370e-01 6.891868771888717e-01 0.000000000000000e+00
6.959282352355555e-01 6.955061024091396e-01 0.000000000000000e+00
6.922728138238372e-01 7.016376529947737e-01 0.000000000000000e+00
6.884781264955561e-01 7.076961636493482e-01 0.000000000000000e+00
6.845259081252637e-01 7.136179368555725e-01 0.000000000000000e+00
6.804312226672643e-01 7.194720462433938e-01 0.000000000000000e+00
6.761254604998623e-01 7.252321391328276e-01 0.000000000000000e+00
6.717858802754224e-01 7.308021680403168e-01 0.000000000000000e+00
6.673165464832608e-01 7.362754141633679e-01 0.000000000000000e+00
6.625731033302334e-01 7.416496887407541e-01 0.000000000000000e+00
6.577402940825179e-01 7.468909197211803e-01 0.000000000000000e+00
6.529020704150421e-01 7.518948571067819e-01 0.000000000000000e+00
6.477468384426771e-01 7.568756110915340e-01 0.000000000000000e+00
6.425223564653797e-01 7.616375362659996e-01 0.000000000000000e+00
6.372898073412527e-01 7.661595713255520e-01 0.000000000000000e+00
6.317046410165028e-01 7.707047203308367e-01 0.000000000000000e+00
6.261334879644443e-01 7.749348951036077e-01 0.000000000000000e+00
6.204642168750424e-01 7.790024646632605e-01 0.000000000000000e+00
6.144881393716251e-01 7.830425437207857e-01 0.000000000000000e+00
6.087041832594654e-01 7.865828458186788e-01 0.000000000000000e+00
6.025287542221403e-01 7.902574219377978e-01 0.000000000000000e+00
5.964457013964534e-01 7.934605131850790e-01 0.000000000000000e+00
5.901538020278135e-01 7.966461215485473e-01 0.000000000000000e+00
5.836577959608864e-01 7.996601812257738e-01 0.000000000000000e+00
5.772824857696706e-01 8.023112789515284e-01 0.000000000000000e+00
5.705983090869117e-01 8.048824940368743e-01 0.000000000000000e+00
5.642365584874603e-01 8.069549195758644e-01 0.000000000000000e+00
5.573601922025960e-01 8.091843103128599e-01 0.000000000000000e+00
5.507101561415810e-01 8.109523388193568e-01 0.000000000000000e+00
5.438163037090656e-01 8.125682601657548e-01 0.000000000000000e+00
5.369220159044679e-01 8.139345705952681e-01 0.000000000000000e+00
5.300343521910912e-01 8.150513453211918e-01 0.000000000000000e+00
5.230524594893733e-01 8.159646359516742e-01 0.000000000000000e+00
5.161008023059757e-01 8.166016800778489e-01 0.000000000000000e+00
5.090199752939963e-01 8.170429139395333e-01 0.000000000000000e+00
5.020621794585496e-01 8.172200233999866e-01 0.000000000000000e+00
4.950231613593871e-01 8.171606973259330e-01 0.000000000000000e+00
4.880481301130897e-01 8.168625997998566e-01 0.000000000000000e+00
4.809718664594880e-01 8.163073630325590e-01 0.000000000000000e+00
4.740692865902789e-01 8.155545430695120e-01 0.000000000000000e+00
4.670838329217429e-01 8.145144018923167e-01 0.000000000000000e+00
4.602685095514027e-01 8.133076175404728e-01 0.000000000000000e+00
4.532861516312857e-01 8.117768068724370e-01 0.000000000000000e+00
4.465723061983600e-01 8.101047017982361e-01 0.000000000000000e+00
4.397623514711780e-01 8.081069242698695e-01 0.000000000000000e+00
4.330944337519283e-01 8.058796970122087e-01 0.000000000000000e+00
4.266475796146018e-01 8.036733693216229e-01 0.000000000000000e+00
4.200452064421989e-01 8.009713211704367e-01 0.000000000000000e+00
4.137446455162598e-01 7.982895749474164e-01 0.000000000000000e+00
4.071769494798574e-01 7.949964827761983e-01 0.000000000000000e+00
4.011581715976088e-01 7.919883357880291e-01 0.000000000000000e+00
3.949151947118476e-01 7.884433993174483e-01 0.000000000000000e+00
3.889846695829950e-01 7.848564351753320e-01 0.000000000000000e+00
3.830917871543568e-01 7.810917042778101e-01 0.000000000000000e+00
3.772245260983555e-01 7.769683946039554e-01 0.000000000000000e+00
3.716784422972309e-01 7.729073063688325e-01 0.000000000000000e+00
3.660364848204651e-01 7.684732087799713e-01 0.000000000000000e+00
3.606352407261657e-01 7.639333980573485e-01 0.000000000000000e+00
3.554489575396044e-01 7.593319000301093e-01 0.000000000000000e+00
3.502031404899982e-01 7.544237855355364e-01 0.000000000000000e+00
3.452155823075823e-01 7.494391154010593e-01 0.000000000000000e+00
3.404100322164654e-01 7.443347904948184e-01 0.000000000000000e+00
3.356107089500633e-01 7.390323787397507e-01 0.000000000000000e+00
3.309777573517857e-01 7.335909137413630e-01 0.000000000000000e+00
3.266075919831533e-01 7.280867075009656e-01 0.000000000000000e+00
3.222669119429601e-01 7.224177852410093e-01 0.000000000000000e+00
3.180545977678010e-01 7.165973774088974e-01 0.000000000000000e+00
3.140503404966462e-01 7.107266104492360e-01 0.000000000000000e+00
3.101559616311541e-01 7.047277041839961e-01 0.000000000000000e+00
3.064500065787559e-01 6.986554239265346e-01 0.000000000000000e+00
3.028171717644081e-01 6.924229520386953e-01 0.000000000000000e+00
2.992963978279204e-01 6.860579301649484e-01 0.000000000000000e+00
2.959725534968921e-01 6.797132947380778e-01 0.000000000000000e+00
2.928448223018160e-01 6.732958491132921e-01 0.000000000000000e+00
2.897877989255191e-01 6.667202693950866e-01 0.000000000000000e+00
2.868882717080146e-01 6.601262974650035e-01 0.000000000000000e+00
2.841211755505110e-01 6.534856761426659e-01 0.000000000000000e+00
2.813973046573988e-01 6.466118775592561e-01 0.000000000000000e+00
2.789134869776014e-01 6.398324338615916e-01 0.000000000000000e+00
2.766619292461280e-01 6.331126257828269e-01 0.000000000000000e+00
2.743474781246988e-01 6.260360457119059e-01 0.000000000000000e+00
2.722846134480188e-01 6.192409821440332e-01 0.000000000000000e+00
2.702037575864212e-01 6.120352248886151e-01 0.000000000000000e+00
2.683620039765788e-01 6.049492239766178e-01 0.000000000000000e+00
2.668324772704658e-01 5.981882815883083e-01 0.000000000000000e+00
2.650348174902389e-01 5.907102025760266e-01 0.000000000000000e+00
2.637719805669491e-01 5.839639428774025e-01 0.000000000000000e+00
2.622873857130379e-01 5.764280581575181e-01 0.000000000000000e+00
2.612306066378377e-01 5.695290580709437e-01 0.000000000000000e+00
2.600524492938469e-01 5.621179770475760e-01 0.000000000000000e+00
2.590450199277944e-01 5.547693721176896e-01 0.000000000000000e+00
2.582905546987721e-01 5.476865592330574e-01 0.000000000000000e+00
2.574767148116582e-01 5.401504867424664e-01 0.000000000000000e+00
2.569695015033305e-01 5.330764876563765e-01 0.000000000000000e+00
2.564081129166069e-01 5.255566026609028e-01 0.000000000000000e+00
2.561141653682080e-01 5.184069702835301e-01 0.000000000000000e+00
2.558410048483140e-01 5.109781446122297e-01 0.000000000000000e+00
2.557428854349927e-01 5.036894075458266e-01 0.000000000000000e+00
2.557428854349922e-01 4.963105924542537e-01 0.000000000000000e+00
2.558410048483135e-01 4.890218553878319e-01 0.000000000000000e+00
2.561141653682074e-01 4.815930297165391e-01 0.000000000000000e+00
2.564081129166066e-01 4.744433973391740e-01 0.000000000000000e+00
2.569695015033284e-01 4.669235123436949e-01 0.000000000000000e+00
2.574767148116551e-01 4.598495132576095e-01 0.000000000000000e+00
2.582905546987720e-01 4.523134407670108e-01 0.000000000000000e+00
2.590450199277929e-01 4.452306278823822e-01 0.000000000000000e+00
2.600524492938405e-01 4.378820229525030e-01 0.000000000000000e+00
2.612306066378351e-01 4.304709419291240e-01 0.000000000000000e+00
2.622873857130323e-01 4.235719418425566e-01 0.000000000000000e+00
2.637719805669459e-01 4.160360571226709e-01 0.000000000000000e+00
2.650348174902299e-01 4.092897974240529e-01 0.000000000000000e+00
2.668324772704582e-01 4.018117184117673e-01 0.000000000000000e+00
2.683620039765729e-01 3.950507760234600e-01 0.000000000000000e+00
2.702037575864125e-01 3.879647751114607e-01 0.000000000000000e+00
2.722846134480102e-01 3.807590178560439e-01 0.000000000000000e+00
2.743474781246903e-01 3.739639542881706e-01 0.000000000000000e+00
2.766619292461177e-01 3.668873742172475e-01 0.000000000000000e+00
2.789134869775923e-01 3.601675661384852e-01 0.000000000000000e+00
2.813973046573902e-01 3.533881224408184e-01 0.000000000000000e+00
2.841211755504972e-01 3.465143238574120e-01 0.000000000000000e+00
2.868882717080069e-01 3.398737025350705e-01 0.000000000000000e+00
2.897877989255047e-01 3.332797306049918e-01 0.000000000000000e+00
2.928448223018060e-01 3.267041508867848e-01 0.000000000000000e+00
2.959725534968777e-01 3.202867052619940e-01 0.000000000000000e+00
2.992963978279067e-01 3.139420698351301e-01 0.000000000000000e+00
3.028171717643959e-01 3.075770479613790e-01 0.000000000000000e+00
3.064500065787418e-01 3.013445760735418e-01 0.000000000000000e+00
3.101559616311398e-01 2.952722958160767e-01 0.000000000000000e+00
3.140503404966296e-01 2.892733895508406e-01 0.000000000000000e+00
3.180545977677885e-01 2.834026225911786e-01 0.000000000000000e+00
3.222669119429423e-01 2.775822147590646e-01 0.000000000000000e+00
3.266075919831392e-01 2.719132924991055e-01 0.000000000000000e+00
3.309777573517700e-01 2.664090862587124e-01 0.000000000000000e+00
3.356107089500440e-01 2.609676212603224e-01 0.000000000000000e+00
3.404100322164460e-01 2.556652095052548e-01 0.000000000000000e+00
3.452155823075660e-01 2.505608845990136e-01 0.000000000000000e+00
3.502031404899786e-01 2.455762144645333e-01 0.000000000000000e+00
3.554489575395807e-01 2.406680999699658e-01 0.000000000000000e+00
3.606352407261572e-01 2.360666019427196e-01 0.000000000000000e+00
3.660364848204328e-01 2.315267912201039e-01 0.000000000000000e+00
3.716784422972210e-01 2.270926936312296e-01 0.000000000000000e+00
3.772245260983305e-01 2.230316053961206e-01 0.000000000000000e+00
3.830917871543365e-01 2.189082957222559e-01 0.000000000000000e+00
3.889846695829721e-01 2.151435648247351e-01 0.000000000000000e+00
3.949151947118241e-01 2.115566006826170e-01 0.000000000000000e+00
4.011581715975863e-01 2.080116642120344e-01 0.000000000000000e+00
4.071769494798313e-01 2.050035172238718e-01 0.000000000000000e+00
4.137446455162290e-01 2.017104250526500e-01 0.000000000000000e+00
4.200452064421766e-01 1.990286788296214e-01 0.000000000000000e+00
4.266475796145761e-01 1.963266306784416e-01 0.000000000000000e+00
4.330944337519066e-01 1.941203029878495e-01 0.000000000000000e+00
4.397623514711475e-01 1.918930757301836e-01 0.000000000000000e+00
4.465723061983373e-01 1.898952982018293e-01 0.000000000000000e+00
4.532861516312560e-01 1.882231931276152e-01 0.000000000000000e+00
4.602685095513785e-01 1.866923824595778e-01 0.000000000000000e+00
4.670838329217102e-01 1.854855981077373e-01 0.000000000000000e+00
4.740692865902505e-01 1.844454569305346e-01 0.000000000000000e+00
4.809718664594578e-01 1.836926369674928e-01 0.000000000000000e+00
4.880481301130595e-01 1.831374002001878e-01 0.000000000000000e+00
4.950231613593561e-01 1.828393026741115e-01 0.000000000000000e+00
5.020621794585237e-01 1.827799766000550e-01 0.000000000000000e+00
5.090199752939661e-01 1.829570860605058e-01 0.000000000000000e+00
5.161008023059412e-01 1.833983199221935e-01 0.000000000000000e+00
5.230524594893511e-01 1.840353640483623e-01 0.000000000000000e+00
5.300343521910590e-01 1.849486546788409e-01 0.000000000000000e+00
5.369220159044420e-01 1.860654294047679e-01 0.000000000000000e+00
5.438163037090348e-01 1.874317398342762e-01 0.000000000000000e+00
5.507101561415504e-01 1.890476611806750e-01 0.000000000000000e+00
5.573601922025712e-01 1.908156896871673e-01 0.000000000000000e+00
5.642365584874303e-01 1.930450804241650e-01 0.000000000000000e+00
5.705983090868891e-01 1.951175059631507e-01 0.000000000000000e+00
5.772824857696416e-01 1.976887210484969e-01 0.000000000000000e+00
5.836577959608670e-01 2.003398187742413e-01 0.000000000000000e+00
5.901538020277879e-01 2.033538784514835e-01 0.000000000000000e+00
5.964457013964350e-01 2.065394868149374e-01 0.000000000000000e+00
6.025287542221179e-01 2.097425780622235e-01 0.000000000000000e+00
6.087041832594391e-01 2.134171541813384e-01 0.000000000000000e+00
6.144881393716116e-01 2.169574562792323e-01 0.000000000000000e+00
6.204642168750183e-01 2.209975353367555e-01 0.000000000000000e+00
6.261334879644278e-01 2.250651048964105e-01 0.000000000000000e+00
6.317046410164843e-01 2.292952796691757e-01 0.000000000000000e+00
6.372898073412362e-01 2.338404286744644e-01 0.000000000000000e+00
6.425223564653632e-01 2.383624637340151e-01 0.000000000000000e+00
6.477468384426579e-01 2.431243889084813e-01 0.000000000000000e+00
6.529020704150272e-01 2.481051428932270e-01 0.000000000000000e+00
6.577402940825007e-01 2.531090802788348e-01 0.000000000000000e+00
6.625731033302178e-01 2.583503112592557e-01 0.000000000000000e+00
6.673165464832460e-01 2.637245858366432e-01 0.000000000000000e+00
6.717858802754096e-01 2.691978319596965e-01 0.000000000000000e+00
6.761254604998433e-01 2.747678608671790e-01 0.000000000000000e+00
6.804312226672560e-01 2.805279537566218e-01 0.000000000000000e+00
6.845259081252461e-01 2.863820631444326e-01 0.000000000000000e+00
6.884781264955470e-01 2.923038363506653e-01 0.000000000000000e+00
6.922728138238226e-01 2.983623470052383e-01 0.000000000000000e+00
6.959282352355493e-01 3.044938975908702e-01 0.000000000000000e+00
6.995175117250245e-01 3.108131228111364e-01 0.000000000000000e+00
7.029511664980547e-01 3.171744813518214e-01 0.000000000000000e+00
7.061505820707799e-01 3.235230271129556e-01 0.000000000000000e+00
7.092418806313125e-01 3.300478882645010e-01 0.000000000000000e+00
7.122438637701588e-01 3.366510417958693e-01 0.000000000000000e+00
7.150457239001760e-01 3.432293610069909e-01 0.000000000000000e+00
7.177971375909385e-01 3.499986956587515e-01 0.000000000000000e+00
7.204261038364468e-01 3.568690901550050e-01 0.000000000000000e+00
7.227511015051968e-01 3.635414344807285e-01 0.000000000000000e+00
7.250753486833740e-01 3.705311358112994e-01 0.000000000000000e+00
7.272767013459468e-01 3.774766360254165e-01 0.000000000000000e+00
7.292779081215264e-01 3.843421630009529e-01 0.000000000000000e+00
7.313058789487541e-01 3.916542862204593e-01 0.000000000000000e+00
7.328683662755150e-01 3.983245108136872e-01 0.000000000000000e+00
7.346181555784519e-01 4.056102779600350e-01 0.000000000000000e+00
7.362015037281537e-01 4.128159239922719e-01 0.000000000000000e+00
7.375347401942104e-01 4.198904516933014e-01 0.000000000000000e+00
7.389312503869012e-01 4.273602561281175e-01 0.000000000000000e+00
7.398370139454354e-01 4.340710126668593e-01 0.000000000000000e+00
7.410887890886544e-01 4.417967519641790e-01 0.000000000000000e+00
7.417744165368714e-01 4.485704866409905e-01 0.000000000000000e+00
7.426802755628499e-01 4.561481259932186e-01 0.000000000000000e+00
7.432410173644484e-01 4.632455960285720e-01 0.000000000000000e+00
7.438547227249830e-01 4.707204573153434e-01 0.000000000000000e+00
7.442411055318130e-01 4.779697905507526e-01 0.000000000000000e+00
7.445470966611997e-01 4.853087458957819e-01 0.000000000000000e+00
7.447350027878527e-01 4.926619704157755e-01 0.000000000000000e+00

POINT_DATA   249
SCALARS fX_Lag double
LOOKUP_TABLE default

-9.472492e+00 
-1.405407e+01 
-1.180808e+01 
-8.038741e+00 
-2.273176e+01 
5.296648e+00 
-3.451138e+01 
2.202385e+01 
-5.661445e+01 
3.460180e+01 
-4.907445e+01 
6.327019e+00 
-2.501114e+01 
-1.664350e+01 
1.873016e+01 
-4.654823e+01 
2.677154e+00 
-2.001457e+01 
-1.229039e+01 
-7.454637e-02 
-3.039673e+01 
-1.224375e+01 
-5.044618e+00 
-2.001255e+01 
-8.931842e+00 
-1.081150e+01 
-2.342205e+01 
-1.556150e+01 
-6.616709e+00 
-1.392716e+01 
-1.575051e+01 
-1.424621e+01 
-2.110728e+01 
-3.384635e+00 
-1.297551e+01 
-2.740729e+01 
-8.939660e+00 
-5.436089e-01 
-3.169575e+01 
-6.929504e+00 
-8.103619e-01 
-3.525630e+01 
1.397942e+00 
-9.811813e+00 
-3.068011e+01 
1.920840e+01 
-3.914221e+01 
9.230492e+00 
-2.088063e+01 
-2.040863e+01 
1.206342e+01 
-3.088289e+01 
3.223634e+01 
-5.145428e+01 
2.262676e+01 
-2.438074e+01 
-4.258902e-02 
6.615836e-01 
-9.419961e+00 
3.021575e+00 
-1.291578e+01 
1.230061e+01 
-8.122355e+00 
6.399541e+00 
-1.012135e+01 
1.736670e+01 
-8.285766e+00 
1.700870e+01 
-1.669904e+01 
2.684641e+01 
-9.606372e+00 
1.420435e+01 
2.210225e+01 
-1.554674e+01 
3.017704e+01 
-2.670279e+01 
5.488088e+01 
-2.241465e+01 
3.124549e+01 
3.762568e+00 
2.566449e+00 
3.211516e+01 
-9.583847e+00 
2.407096e+01 
2.149204e+01 
-5.947304e+00 
2.582672e+01 
1.819597e+01 
6.276088e-01 
1.663687e+01 
2.627563e+01 
2.950923e+00 
1.283692e+01 
2.080639e+01 
1.098665e+01 
1.884024e+01 
7.313697e+00 
1.120649e+01 
1.969220e+01 
1.961002e+01 
7.070698e+00 
1.574992e+01 
1.324307e+01 
4.323240e+00 
2.400390e+01 
2.322549e+01 
-6.288897e+00 
2.515989e+01 
-1.799654e+00 
2.390936e+01 
3.122294e+01 
-2.681370e+01 
5.348170e+01 
-2.217539e+01 
4.278130e+01 
-1.213845e+01 
1.707223e+01 
2.529634e+01 
-5.938034e+00 
3.066232e+01 
-5.418155e+00 
2.674379e+01 
2.078259e+00 
1.750393e+01 
9.811734e+00 
9.811734e+00 
1.750393e+01 
2.078259e+00 
2.674379e+01 
-5.418155e+00 
3.066232e+01 
-5.938034e+00 
2.529634e+01 
1.707223e+01 
-1.213845e+01 
4.278130e+01 
-2.217539e+01 
5.348170e+01 
-2.681370e+01 
3.122294e+01 
2.390936e+01 
-1.799654e+00 
2.515989e+01 
-6.288897e+00 
2.322549e+01 
2.400390e+01 
4.323240e+00 
1.324307e+01 
1.574992e+01 
7.070698e+00 
1.961002e+01 
1.969220e+01 
1.120649e+01 
7.313697e+00 
1.884024e+01 
1.098665e+01 
2.080639e+01 
1.283692e+01 
2.950923e+00 
2.627563e+01 
1.663687e+01 
6.276088e-01 
1.819597e+01 
2.582672e+01 
-5.947304e+00 
2.149204e+01 
2.407096e+01 
-9.583847e+00 
3.211516e+01 
2.566449e+00 
3.762568e+00 
3.124549e+01 
-2.241465e+01 
5.488088e+01 
-2.670279e+01 
3.017704e+01 
-1.554674e+01 
2.210225e+01 
1.420435e+01 
-9.606372e+00 
2.684641e+01 
-1.669904e+01 
1.700870e+01 
-8.285766e+00 
1.736670e+01 
-1.012135e+01 
6.399541e+00 
-8.122355e+00 
1.230061e+01 
-1.291578e+01 
3.021575e+00 
-9.419961e+00 
6.615836e-01 
-4.258902e-02 
-2.438074e+01 
2.262676e+01 
-5.145428e+01 
3.223634e+01 
-3.088289e+01 
1.206342e+01 
-2.040863e+01 
-2.088063e+01 
9.230492e+00 
-3.914221e+01 
1.920840e+01 
-3.068011e+01 
-9.811813e+00 
1.397942e+00 
-3.525630e+01 
-8.103619e-01 
-6.929504e+00 
-3.169575e+01 
-5.436089e-01 
-8.939660e+00 
-2.740729e+01 
-1.297551e+01 
-3.384635e+00 
-2.110728e+01 
-1.424621e+01 
-1.575051e+01 
-1.392716e+01 
-6.616709e+00 
-1.556150e+01 
-2.342205e+01 
-1.081150e+01 
-8.931842e+00 
-2.001255e+01 
-5.044618e+00 
-1.224375e+01 
-3.039673e+01 
-7.454637e-02 
-1.229039e+01 
-2.001457e+01 
2.677154e+00 
-4.654823e+01 
1.873016e+01 
-1.664350e+01 
-2.501114e+01 
6.327019e+00 
-4.907445e+01 
3.460180e+01 
-5.661445e+01 
2.202385e+01 
-3.451138e+01 
5.296648e+00 
-2.273176e+01 
-8.038741e+00 
-1.180808e+01 
-1.405407e+01 
