# vtk DataFile Version 2.0
fY_Lag
ASCII
DATASET UNSTRUCTURED_GRID

FIELD FieldData 1
TIME 1 1 double
0.29000000
POINTS 249 float
7.244973757115730e-01 5.000000000000000e-01 0.000000000000000e+00
7.244629511273721e-01 5.076840879296575e-01 0.000000000000000e+00
7.243112667515208e-01 5.153517768257135e-01 0.000000000000000e+00
7.240741217295407e-01 5.230028813339563e-01 0.000000000000000e+00
7.237664351039231e-01 5.306215605329487e-01 0.000000000000000e+00
7.232953942865840e-01 5.383967269553065e-01 0.000000000000000e+00
7.228428745809475e-01 5.458980062131572e-01 0.000000000000000e+00
7.221393979650625e-01 5.537051384545845e-01 0.000000000000000e+00
7.215428164422926e-01 5.610352280750023e-01 0.000000000000000e+00
7.206147636870021e-01 5.689556814161304e-01 0.000000000000000e+00
7.198434894574848e-01 5.762061516896703e-01 0.000000000000000e+00
7.187367624297873e-01 5.839786960450963e-01 0.000000000000000e+00
7.177038708142509e-01 5.913732141011587e-01 0.000000000000000e+00
7.164808797970830e-01 5.989358263917424e-01 0.000000000000000e+00
7.151411151217676e-01 6.065112629217750e-01 0.000000000000000e+00
7.137713850453433e-01 6.138333136685739e-01 0.000000000000000e+00
7.121970632987856e-01 6.214374936679351e-01 0.000000000000000e+00
7.106136381945066e-01 6.287828331516188e-01 0.000000000000000e+00
7.088653611648362e-01 6.361444276485165e-01 0.000000000000000e+00
7.069903063155868e-01 6.435357100490005e-01 0.000000000000000e+00
7.050703267885594e-01 6.507882082324810e-01 0.000000000000000e+00
7.029713259585942e-01 6.580774284768007e-01 0.000000000000000e+00
7.007779890821282e-01 6.652743031894405e-01 0.000000000000000e+00
6.984709313218307e-01 6.724485330118125e-01 0.000000000000000e+00
6.959892646164224e-01 6.795829017417151e-01 0.000000000000000e+00
6.934497907482221e-01 6.865918274505421e-01 0.000000000000000e+00
6.907619263347199e-01 6.935997643780192e-01 0.000000000000000e+00
6.879399458927643e-01 7.005275856051646e-01 0.000000000000000e+00
6.850020826105919e-01 7.073550657135741e-01 0.000000000000000e+00
6.819192225152881e-01 7.141143034544006e-01 0.000000000000000e+00
6.786385730846139e-01 7.208870212827024e-01 0.000000000000000e+00
6.753103985755914e-01 7.274434543397492e-01 0.000000000000000e+00
6.718940188166767e-01 7.339010373486714e-01 0.000000000000000e+00
6.681773423381729e-01 7.403718466343514e-01 0.000000000000000e+00
6.644096970301209e-01 7.466628898706794e-01 0.000000000000000e+00
6.604873427979472e-01 7.528832449672123e-01 0.000000000000000e+00
6.563737737983273e-01 7.589639284765877e-01 0.000000000000000e+00
6.521688018843256e-01 7.649165922208596e-01 0.000000000000000e+00
6.477922916057802e-01 7.707318148838920e-01 0.000000000000000e+00
6.432341521131378e-01 7.764118369763906e-01 0.000000000000000e+00
6.385335063950650e-01 7.819420946804274e-01 0.000000000000000e+00
6.337367103892946e-01 7.872677154173048e-01 0.000000000000000e+00
6.287197238521230e-01 7.924842554824983e-01 0.000000000000000e+00
6.235098837157624e-01 7.975366667290150e-01 0.000000000000000e+00
6.182825561988142e-01 8.023199047597172e-01 0.000000000000000e+00
6.127953383900654e-01 8.070236917009335e-01 0.000000000000000e+00
6.071669856060048e-01 8.114512262446743e-01 0.000000000000000e+00
6.014462036724205e-01 8.157321913934441e-01 0.000000000000000e+00
5.955315816059441e-01 8.197469930041784e-01 0.000000000000000e+00
5.895358025812691e-01 8.235460575135523e-01 0.000000000000000e+00
5.833699951370018e-01 8.270913144589102e-01 0.000000000000000e+00
5.770501791141976e-01 8.304575488574495e-01 0.000000000000000e+00
5.705871620414757e-01 8.335393817784662e-01 0.000000000000000e+00
5.641102455597750e-01 8.363088191584993e-01 0.000000000000000e+00
5.574779453441779e-01 8.388654448398679e-01 0.000000000000000e+00
5.508017869816241e-01 8.411137852311377e-01 0.000000000000000e+00
5.439547246848533e-01 8.431420626255383e-01 0.000000000000000e+00
5.370700388953604e-01 8.448539047414382e-01 0.000000000000000e+00
5.300572720513678e-01 8.462529495252364e-01 0.000000000000000e+00
5.230828317686307e-01 8.473451583194908e-01 0.000000000000000e+00
5.160277053995118e-01 8.481821933213014e-01 0.000000000000000e+00
5.089339037102344e-01 8.487207404091198e-01 0.000000000000000e+00
5.018490548549600e-01 8.489628759878917e-01 0.000000000000000e+00
4.947064985140321e-01 8.488836989491126e-01 0.000000000000000e+00
4.876378395146596e-01 8.484995310329998e-01 0.000000000000000e+00
4.805448165702610e-01 8.478162241029698e-01 0.000000000000000e+00
4.735503721342944e-01 8.468380192466428e-01 0.000000000000000e+00
4.665406940082792e-01 8.456194314039983e-01 0.000000000000000e+00
4.595824955979144e-01 8.440262419432196e-01 0.000000000000000e+00
4.527136694282613e-01 8.421805362933515e-01 0.000000000000000e+00
4.459522492955042e-01 8.400043569379118e-01 0.000000000000000e+00
4.392876732609381e-01 8.376562544708842e-01 0.000000000000000e+00
4.327427468532687e-01 8.349560912932829e-01 0.000000000000000e+00
4.262794938315591e-01 8.320911919943937e-01 0.000000000000000e+00
4.198723329037612e-01 8.288095645581511e-01 0.000000000000000e+00
4.136341627949860e-01 8.253871898855112e-01 0.000000000000000e+00
4.075510874199119e-01 8.216780653752421e-01 0.000000000000000e+00
4.016048007857241e-01 8.178110240348457e-01 0.000000000000000e+00
3.957589650085609e-01 8.136243858986618e-01 0.000000000000000e+00
3.901243237315922e-01 8.093008019357188e-01 0.000000000000000e+00
3.845174232903983e-01 8.047126605148583e-01 0.000000000000000e+00
3.791968964148035e-01 7.999756254033183e-01 0.000000000000000e+00
3.739829118076289e-01 7.950804828864211e-01 0.000000000000000e+00
3.688261635189997e-01 7.899053106448098e-01 0.000000000000000e+00
3.639537597503175e-01 7.846568243859607e-01 0.000000000000000e+00
3.592044387047538e-01 7.792223840858049e-01 0.000000000000000e+00
3.545620936228763e-01 7.736106652370169e-01 0.000000000000000e+00
3.500978313959832e-01 7.678704810804760e-01 0.000000000000000e+00
3.457966565665099e-01 7.619745130825317e-01 0.000000000000000e+00
3.416651580035545e-01 7.559868921103663e-01 0.000000000000000e+00
3.376105711758699e-01 7.498067170884645e-01 0.000000000000000e+00
3.338052325120753e-01 7.435730582676618e-01 0.000000000000000e+00
3.300445480543210e-01 7.371890338406303e-01 0.000000000000000e+00
3.264483495088084e-01 7.306948821619368e-01 0.000000000000000e+00
3.231221990946150e-01 7.242369809221247e-01 0.000000000000000e+00
3.197897418801958e-01 7.175434881898789e-01 0.000000000000000e+00
3.166154753731025e-01 7.107670027093728e-01 0.000000000000000e+00
3.136113224098864e-01 7.039886799241023e-01 0.000000000000000e+00
3.107361264632311e-01 6.971219428729633e-01 0.000000000000000e+00
3.079546898505893e-01 6.901326552125112e-01 0.000000000000000e+00
3.053456700430011e-01 6.831226861992100e-01 0.000000000000000e+00
3.028433898838108e-01 6.760623468557514e-01 0.000000000000000e+00
3.004457338825897e-01 6.688924144038439e-01 0.000000000000000e+00
2.982115591880548e-01 6.617373644027481e-01 0.000000000000000e+00
2.960489549502684e-01 6.544756946857806e-01 0.000000000000000e+00
2.940397017841191e-01 6.471960587282641e-01 0.000000000000000e+00
2.921609944664575e-01 6.398976219101518e-01 0.000000000000000e+00
2.903245828704848e-01 6.324727530759356e-01 0.000000000000000e+00
2.886690344913717e-01 6.251540422140662e-01 0.000000000000000e+00
2.870963585374467e-01 6.176814234276823e-01 0.000000000000000e+00
2.856076250354130e-01 6.101846122113156e-01 0.000000000000000e+00
2.843164591620265e-01 6.028782847216636e-01 0.000000000000000e+00
2.829535526623373e-01 5.951221880500005e-01 0.000000000000000e+00
2.818956755692201e-01 5.878177040984207e-01 0.000000000000000e+00
2.807637726414025e-01 5.800869515648817e-01 0.000000000000000e+00
2.798464085088945e-01 5.726304668952350e-01 0.000000000000000e+00
2.789818493384840e-01 5.650013139178873e-01 0.000000000000000e+00
2.781821421428184e-01 5.572914144563248e-01 0.000000000000000e+00
2.775803802146513e-01 5.498349547427945e-01 0.000000000000000e+00
2.769515704883461e-01 5.420661863594066e-01 0.000000000000000e+00
2.765447022010645e-01 5.345529708230981e-01 0.000000000000000e+00
2.761130761517794e-01 5.267548481127620e-01 0.000000000000000e+00
2.758728192542148e-01 5.192072224258607e-01 0.000000000000000e+00
2.756606083956600e-01 5.115018158499782e-01 0.000000000000000e+00
2.755826526722530e-01 5.038567747930712e-01 0.000000000000000e+00
2.755826526722528e-01 4.961432252069336e-01 0.000000000000000e+00
2.756606083956601e-01 4.884981841500232e-01 0.000000000000000e+00
2.758728192542152e-01 4.807927775741402e-01 0.000000000000000e+00
2.761130761517794e-01 4.732451518872445e-01 0.000000000000000e+00
2.765447022010655e-01 4.654470291769073e-01 0.000000000000000e+00
2.769515704883463e-01 4.579338136405953e-01 0.000000000000000e+00
2.775803802146527e-01 4.501650452572121e-01 0.000000000000000e+00
2.781821421428200e-01 4.427085855436766e-01 0.000000000000000e+00
2.789818493384852e-01 4.349986860821149e-01 0.000000000000000e+00
2.798464085088977e-01 4.273695331047696e-01 0.000000000000000e+00
2.807637726414035e-01 4.199130484351232e-01 0.000000000000000e+00
2.818956755692233e-01 4.121822959015808e-01 0.000000000000000e+00
2.829535526623398e-01 4.048778119500062e-01 0.000000000000000e+00
2.843164591620291e-01 3.971217152783371e-01 0.000000000000000e+00
2.856076250354147e-01 3.898153877886935e-01 0.000000000000000e+00
2.870963585374485e-01 3.823185765723210e-01 0.000000000000000e+00
2.886690344913747e-01 3.748459577859397e-01 0.000000000000000e+00
2.903245828704867e-01 3.675272469240685e-01 0.000000000000000e+00
2.921609944664582e-01 3.601023780898567e-01 0.000000000000000e+00
2.940397017841202e-01 3.528039412717445e-01 0.000000000000000e+00
2.960489549502709e-01 3.455243053142217e-01 0.000000000000000e+00
2.982115591880538e-01 3.382626355972614e-01 0.000000000000000e+00
3.004457338825930e-01 3.311075855961631e-01 0.000000000000000e+00
3.028433898838073e-01 3.239376531442555e-01 0.000000000000000e+00
3.053456700430057e-01 3.168773138007935e-01 0.000000000000000e+00
3.079546898505898e-01 3.098673447874931e-01 0.000000000000000e+00
3.107361264632303e-01 3.028780571270441e-01 0.000000000000000e+00
3.136113224098879e-01 2.960113200759013e-01 0.000000000000000e+00
3.166154753731021e-01 2.892329972906317e-01 0.000000000000000e+00
3.197897418801927e-01 2.824565118101305e-01 0.000000000000000e+00
3.231221990946118e-01 2.757630190778833e-01 0.000000000000000e+00
3.264483495088126e-01 2.693051178380653e-01 0.000000000000000e+00
3.300445480543142e-01 2.628109661593777e-01 0.000000000000000e+00
3.338052325120764e-01 2.564269417323426e-01 0.000000000000000e+00
3.376105711758701e-01 2.501932829115376e-01 0.000000000000000e+00
3.416651580035541e-01 2.440131078896355e-01 0.000000000000000e+00
3.457966565665091e-01 2.380254869174694e-01 0.000000000000000e+00
3.500978313959781e-01 2.321295189195319e-01 0.000000000000000e+00
3.545620936228729e-01 2.263893347629883e-01 0.000000000000000e+00
3.592044387047500e-01 2.207776159142004e-01 0.000000000000000e+00
3.639537597503197e-01 2.153431756140399e-01 0.000000000000000e+00
3.688261635189788e-01 2.100946893552085e-01 0.000000000000000e+00
3.739829118076411e-01 2.049195171135766e-01 0.000000000000000e+00
3.791968964147864e-01 2.000243745966939e-01 0.000000000000000e+00
3.845174232903982e-01 1.952873394851484e-01 0.000000000000000e+00
3.901243237315893e-01 1.906991980642888e-01 0.000000000000000e+00
3.957589650085584e-01 1.863756141013433e-01 0.000000000000000e+00
4.016048007857194e-01 1.821889759651575e-01 0.000000000000000e+00
4.075510874199157e-01 1.783219346247602e-01 0.000000000000000e+00
4.136341627949803e-01 1.746128101144930e-01 0.000000000000000e+00
4.198723329037581e-01 1.711904354418535e-01 0.000000000000000e+00
4.262794938315548e-01 1.679088080056103e-01 0.000000000000000e+00
4.327427468532701e-01 1.650439087067196e-01 0.000000000000000e+00
4.392876732609278e-01 1.623437455291177e-01 0.000000000000000e+00
4.459522492955078e-01 1.599956430620905e-01 0.000000000000000e+00
4.527136694282567e-01 1.578194637066486e-01 0.000000000000000e+00
4.595824955979098e-01 1.559737580567796e-01 0.000000000000000e+00
4.665406940082756e-01 1.543805685960047e-01 0.000000000000000e+00
4.735503721342892e-01 1.531619807533575e-01 0.000000000000000e+00
4.805448165702559e-01 1.521837758970321e-01 0.000000000000000e+00
4.876378395146543e-01 1.515004689669998e-01 0.000000000000000e+00
4.947064985140276e-01 1.511163010508914e-01 0.000000000000000e+00
5.018490548549575e-01 1.510371240121081e-01 0.000000000000000e+00
5.089339037102322e-01 1.512792595908795e-01 0.000000000000000e+00
5.160277053995044e-01 1.518178066787038e-01 0.000000000000000e+00
5.230828317686292e-01 1.526548416805097e-01 0.000000000000000e+00
5.300572720513667e-01 1.537470504747600e-01 0.000000000000000e+00
5.370700388953581e-01 1.551460952585639e-01 0.000000000000000e+00
5.439547246848522e-01 1.568579373744615e-01 0.000000000000000e+00
5.508017869816214e-01 1.588862147688643e-01 0.000000000000000e+00
5.574779453441830e-01 1.611345551601306e-01 0.000000000000000e+00
5.641102455597732e-01 1.636911808414995e-01 0.000000000000000e+00
5.705871620414799e-01 1.664606182215332e-01 0.000000000000000e+00
5.770501791141932e-01 1.695424511425501e-01 0.000000000000000e+00
5.833699951370098e-01 1.729086855410892e-01 0.000000000000000e+00
5.895358025812635e-01 1.764539424864490e-01 0.000000000000000e+00
5.955315816059450e-01 1.802530069958185e-01 0.000000000000000e+00
6.014462036724220e-01 1.842678086065536e-01 0.000000000000000e+00
6.071669856059974e-01 1.885487737553235e-01 0.000000000000000e+00
6.127953383900760e-01 1.929763082990681e-01 0.000000000000000e+00
6.182825561988030e-01 1.976800952402784e-01 0.000000000000000e+00
6.235098837157664e-01 2.024633332709854e-01 0.000000000000000e+00
6.287197238521214e-01 2.075157445175013e-01 0.000000000000000e+00
6.337367103892938e-01 2.127322845826927e-01 0.000000000000000e+00
6.385335063950596e-01 2.180579053195671e-01 0.000000000000000e+00
6.432341521131366e-01 2.235881630236065e-01 0.000000000000000e+00
6.477922916057781e-01 2.292681851161067e-01 0.000000000000000e+00
6.521688018843231e-01 2.350834077791383e-01 0.000000000000000e+00
6.563737737983193e-01 2.410360715234062e-01 0.000000000000000e+00
6.604873427979484e-01 2.471167550327896e-01 0.000000000000000e+00
6.644096970301203e-01 2.533371101293207e-01 0.000000000000000e+00
6.681773423381623e-01 2.596281533656414e-01 0.000000000000000e+00
6.718940188166789e-01 2.660989626513312e-01 0.000000000000000e+00
6.753103985755827e-01 2.725565456602422e-01 0.000000000000000e+00
6.786385730846125e-01 2.791129787172963e-01 0.000000000000000e+00
6.819192225152821e-01 2.858856965455941e-01 0.000000000000000e+00
6.850020826105941e-01 2.926449342864247e-01 0.000000000000000e+00
6.879399458927575e-01 2.994724143948285e-01 0.000000000000000e+00
6.907619263347197e-01 3.064002356219793e-01 0.000000000000000e+00
6.934497907482230e-01 3.134081725494559e-01 0.000000000000000e+00
6.959892646164190e-01 3.204170982582762e-01 0.000000000000000e+00
6.984709313218317e-01 3.275514669881882e-01 0.000000000000000e+00
7.007779890821259e-01 3.347256968105539e-01 0.000000000000000e+00
7.029713259585932e-01 3.419225715231931e-01 0.000000000000000e+00
7.050703267885607e-01 3.492117917675200e-01 0.000000000000000e+00
7.069903063155850e-01 3.564642899509926e-01 0.000000000000000e+00
7.088653611648372e-01 3.638555723514795e-01 0.000000000000000e+00
7.106136381945037e-01 3.712171668483730e-01 0.000000000000000e+00
7.121970632987863e-01 3.785625063320605e-01 0.000000000000000e+00
7.137713850453421e-01 3.861666863314192e-01 0.000000000000000e+00
7.151411151217686e-01 3.934887370782202e-01 0.000000000000000e+00
7.164808797970819e-01 4.010641736082521e-01 0.000000000000000e+00
7.177038708142518e-01 4.086267858988396e-01 0.000000000000000e+00
7.187367624297869e-01 4.160213039548945e-01 0.000000000000000e+00
7.198434894574838e-01 4.237938483103239e-01 0.000000000000000e+00
7.206147636870032e-01 4.310443185838641e-01 0.000000000000000e+00
7.215428164422916e-01 4.389647719249927e-01 0.000000000000000e+00
7.221393979650628e-01 4.462948615454084e-01 0.000000000000000e+00
7.228428745809491e-01 4.541019937868385e-01 0.000000000000000e+00
7.232953942865830e-01 4.616032730446838e-01 0.000000000000000e+00
7.237664351039227e-01 4.693784394670495e-01 0.000000000000000e+00
7.240741217295406e-01 4.769971186660364e-01 0.000000000000000e+00
7.243112667515208e-01 4.846482231742752e-01 0.000000000000000e+00
7.244629511273719e-01 4.923159120703364e-01 0.000000000000000e+00

POINT_DATA   249
SCALARS fY_Lag double
LOOKUP_TABLE default

-6.272103e-10 
-1.640730e+00 
-1.658751e+00 
-3.241655e+00 
1.564879e+01 
-2.739040e+01 
3.058543e+01 
-4.770519e+01 
5.903805e+01 
-6.700083e+01 
5.220916e+01 
-3.780408e+01 
1.680995e+01 
1.283062e+00 
-2.533925e+01 
2.821344e+01 
-2.588561e+01 
1.625986e+00 
2.968534e+00 
-1.387908e+01 
3.673611e+00 
-9.235178e+00 
-2.265320e+00 
-3.985508e+00 
-1.254506e+01 
-9.875889e-02 
-8.010805e+00 
-1.003649e+01 
-6.823873e+00 
1.351442e+00 
-2.162769e+01 
-9.885060e+00 
1.319367e+00 
-1.797791e+01 
-7.065813e+00 
-1.396383e+01 
-1.280371e+01 
-1.374742e+01 
-1.351871e+01 
-1.497378e+01 
-2.047090e+01 
-1.090603e+01 
-1.640735e+01 
-2.692400e+01 
-7.944388e+00 
-2.762182e+01 
-1.466006e+01 
-2.661070e+01 
-2.157580e+01 
-2.538498e+01 
-1.790001e+01 
-2.843184e+01 
-3.123854e+01 
-2.129037e+01 
-3.083166e+01 
-2.201015e+01 
-3.163875e+01 
-3.127122e+01 
-3.068285e+01 
-2.551804e+01 
-2.985134e+01 
-2.964052e+01 
-3.213205e+01 
-3.049978e+01 
-2.991451e+01 
-2.949279e+01 
-2.403804e+01 
-3.745593e+01 
-2.524143e+01 
-3.304889e+01 
-1.719546e+01 
-3.521303e+01 
-1.647894e+01 
-4.166824e+01 
-1.406621e+01 
-2.867700e+01 
-1.579825e+01 
-3.195554e+01 
-1.369177e+01 
-2.645671e+01 
-1.488559e+01 
-1.581529e+01 
-2.800454e+01 
-7.326840e+00 
-1.859911e+01 
-1.773065e+01 
-1.284198e+01 
-1.557922e+01 
-9.168841e+00 
-1.925416e+01 
-5.345729e+00 
-1.503519e+01 
-1.101705e+01 
3.624974e+00 
-2.355929e+01 
-8.296336e+00 
-1.817383e-01 
-8.843116e+00 
-1.225604e+01 
-2.067220e+00 
-5.037917e+00 
-1.095956e+01 
1.488992e+00 
-1.066284e+01 
-1.796235e+00 
-1.879854e+00 
-1.264492e+01 
1.061639e+01 
-1.539100e+01 
-2.418799e+00 
1.904902e+01 
-4.497844e+01 
4.516262e+01 
-4.262870e+01 
2.742787e+01 
-1.726713e+01 
-8.075673e+00 
2.534506e+01 
-3.123222e+01 
2.555552e+01 
-2.849214e+01 
2.505098e+01 
-1.577793e+01 
6.035584e+00 
-6.851994e+00 
6.851994e+00 
-6.035584e+00 
1.577793e+01 
-2.505098e+01 
2.849214e+01 
-2.555552e+01 
3.123222e+01 
-2.534506e+01 
8.075673e+00 
1.726713e+01 
-2.742787e+01 
4.262870e+01 
-4.516262e+01 
4.497844e+01 
-1.904902e+01 
2.418799e+00 
1.539100e+01 
-1.061639e+01 
1.264492e+01 
1.879854e+00 
1.796235e+00 
1.066284e+01 
-1.488992e+00 
1.095956e+01 
5.037917e+00 
2.067220e+00 
1.225604e+01 
8.843116e+00 
1.817383e-01 
8.296336e+00 
2.355929e+01 
-3.624974e+00 
1.101705e+01 
1.503519e+01 
5.345729e+00 
1.925416e+01 
9.168841e+00 
1.557922e+01 
1.284198e+01 
1.773065e+01 
1.859911e+01 
7.326840e+00 
2.800454e+01 
1.581529e+01 
1.488559e+01 
2.645671e+01 
1.369177e+01 
3.195554e+01 
1.579825e+01 
2.867700e+01 
1.406621e+01 
4.166824e+01 
1.647894e+01 
3.521303e+01 
1.719546e+01 
3.304889e+01 
2.524143e+01 
3.745593e+01 
2.403804e+01 
2.949279e+01 
2.991451e+01 
3.049978e+01 
3.213205e+01 
2.964052e+01 
2.985134e+01 
2.551804e+01 
3.068285e+01 
3.127122e+01 
3.163875e+01 
2.201015e+01 
3.083166e+01 
2.129037e+01 
3.123854e+01 
2.843184e+01 
1.790001e+01 
2.538498e+01 
2.157580e+01 
2.661070e+01 
1.466006e+01 
2.762182e+01 
7.944388e+00 
2.692400e+01 
1.640735e+01 
1.090603e+01 
2.047090e+01 
1.497378e+01 
1.351871e+01 
1.374742e+01 
1.280371e+01 
1.396383e+01 
7.065813e+00 
1.797791e+01 
-1.319367e+00 
9.885060e+00 
2.162769e+01 
-1.351442e+00 
6.823873e+00 
1.003649e+01 
8.010805e+00 
9.875889e-02 
1.254506e+01 
3.985508e+00 
2.265320e+00 
9.235178e+00 
-3.673611e+00 
1.387908e+01 
-2.968534e+00 
-1.625986e+00 
2.588561e+01 
-2.821344e+01 
2.533925e+01 
-1.283062e+00 
-1.680995e+01 
3.780408e+01 
-5.220916e+01 
6.700083e+01 
-5.903805e+01 
4.770519e+01 
-3.058543e+01 
2.739040e+01 
-1.564879e+01 
3.241655e+00 
1.658751e+00 
1.640730e+00 
