# vtk DataFile Version 2.0
fY_Lag
ASCII
DATASET UNSTRUCTURED_GRID

FIELD FieldData 1
TIME 1 1 double
0.19000000
POINTS 249 float
8.372065389009586e-01 5.000000000000000e-01 0.000000000000000e+00
8.370735604870855e-01 5.073185734309222e-01 0.000000000000000e+00
8.366849295753909e-01 5.145882996400675e-01 0.000000000000000e+00
8.360033438598463e-01 5.218281016981324e-01 0.000000000000000e+00
8.350814952827749e-01 5.290307546376799e-01 0.000000000000000e+00
8.337907654824641e-01 5.363179461310058e-01 0.000000000000000e+00
8.324348475622250e-01 5.433057407126582e-01 0.000000000000000e+00
8.306728440053005e-01 5.504266608526753e-01 0.000000000000000e+00
8.288474594747981e-01 5.572041681891022e-01 0.000000000000000e+00
8.264548184884214e-01 5.643381710208175e-01 0.000000000000000e+00
8.241216960651342e-01 5.709379728883296e-01 0.000000000000000e+00
8.213320101340466e-01 5.776901242526358e-01 0.000000000000000e+00
8.184509393574573e-01 5.841762297671721e-01 0.000000000000000e+00
8.151926449982291e-01 5.906754822707292e-01 0.000000000000000e+00
8.116754809614080e-01 5.971074910663884e-01 0.000000000000000e+00
8.080406424370720e-01 6.032365621315874e-01 0.000000000000000e+00
8.041449170452748e-01 6.093289672254250e-01 0.000000000000000e+00
8.000520207018756e-01 6.152226905898646e-01 0.000000000000000e+00
7.957975579220699e-01 6.209085715801682e-01 0.000000000000000e+00
7.912225199452311e-01 6.265712588438083e-01 0.000000000000000e+00
7.864978030255660e-01 6.320263942018839e-01 0.000000000000000e+00
7.816734580824957e-01 6.372620082275054e-01 0.000000000000000e+00
7.765581436163709e-01 6.424161639062511e-01 0.000000000000000e+00
7.713326025424874e-01 6.473865955537642e-01 0.000000000000000e+00
7.659786844884173e-01 6.521344926074152e-01 0.000000000000000e+00
7.603938228874030e-01 6.567964138056333e-01 0.000000000000000e+00
7.546750787018184e-01 6.612786936058556e-01 0.000000000000000e+00
7.488557836969317e-01 6.655700610959315e-01 0.000000000000000e+00
7.429127242658401e-01 6.697118773134604e-01 0.000000000000000e+00
7.368360894642495e-01 6.736815590262979e-01 0.000000000000000e+00
7.306054733341666e-01 6.774852348953356e-01 0.000000000000000e+00
7.243688696286673e-01 6.810861210872031e-01 0.000000000000000e+00
7.179367186423440e-01 6.846435290506790e-01 0.000000000000000e+00
7.114127263188685e-01 6.879348003399024e-01 0.000000000000000e+00
7.048548764291069e-01 6.911036868966316e-01 0.000000000000000e+00
6.981656432745120e-01 6.941615093262633e-01 0.000000000000000e+00
6.914719675502156e-01 6.969778738987277e-01 0.000000000000000e+00
6.846194081661876e-01 6.997405433478864e-01 0.000000000000000e+00
6.777558709102798e-01 7.023002149431709e-01 0.000000000000000e+00
6.707734356589555e-01 7.047651845146907e-01 0.000000000000000e+00
6.637603784970429e-01 7.070709515465184e-01 0.000000000000000e+00
6.567608990096209e-01 7.092289911145844e-01 0.000000000000000e+00
6.496180506347702e-01 7.112819385148895e-01 0.000000000000000e+00
6.424607259875039e-01 7.131584088243897e-01 0.000000000000000e+00
6.353033797166883e-01 7.149876261774757e-01 0.000000000000000e+00
6.280249008476565e-01 7.166856982213696e-01 0.000000000000000e+00
6.208019441369416e-01 7.182036587542191e-01 0.000000000000000e+00
6.134957817972508e-01 7.196756039877171e-01 0.000000000000000e+00
6.062122983580934e-01 7.209718261739246e-01 0.000000000000000e+00
5.988733202171058e-01 7.222039279884672e-01 0.000000000000000e+00
5.915193817790810e-01 7.233153941202639e-01 0.000000000000000e+00
5.841133360974921e-01 7.243516060105252e-01 0.000000000000000e+00
5.766950990432802e-01 7.252591145057443e-01 0.000000000000000e+00
5.692679952990481e-01 7.260882151103607e-01 0.000000000000000e+00
5.618143588683602e-01 7.268224778669201e-01 0.000000000000000e+00
5.543374997819660e-01 7.274810018307040e-01 0.000000000000000e+00
5.468921013004693e-01 7.280207605153559e-01 0.000000000000000e+00
5.393894064539666e-01 7.285172991030845e-01 0.000000000000000e+00
5.318947992577202e-01 7.288851349167310e-01 0.000000000000000e+00
5.243998184902008e-01 7.292098026907458e-01 0.000000000000000e+00
5.169096504166121e-01 7.294248798527276e-01 0.000000000000000e+00
5.093827540879853e-01 7.295740345701749e-01 0.000000000000000e+00
5.019070049397496e-01 7.296275987732133e-01 0.000000000000000e+00
4.943660127031945e-01 7.296175377463621e-01 0.000000000000000e+00
4.868862224875571e-01 7.295077560713916e-01 0.000000000000000e+00
4.793623740294116e-01 7.293428437837380e-01 0.000000000000000e+00
4.718823486628354e-01 7.290521234124524e-01 0.000000000000000e+00
4.643939715345797e-01 7.287319101790112e-01 0.000000000000000e+00
4.568705920039562e-01 7.282692933810428e-01 0.000000000000000e+00
4.494218369045739e-01 7.277780435470769e-01 0.000000000000000e+00
4.419402636167039e-01 7.271509197396795e-01 0.000000000000000e+00
4.344926938932114e-01 7.264805758418602e-01 0.000000000000000e+00
4.270388131338334e-01 7.256671013289322e-01 0.000000000000000e+00
4.196399133898552e-01 7.248267170261371e-01 0.000000000000000e+00
4.121967478908631e-01 7.238323066676414e-01 0.000000000000000e+00
4.048416970620056e-01 7.227767645938934e-01 0.000000000000000e+00
3.974732053008068e-01 7.215864013834999e-01 0.000000000000000e+00
3.901954376948514e-01 7.203423697425354e-01 0.000000000000000e+00
3.828692854869771e-01 7.189571687218226e-01 0.000000000000000e+00
3.756280185182871e-01 7.174652954231509e-01 0.000000000000000e+00
3.683707326359154e-01 7.158800968154715e-01 0.000000000000000e+00
3.611407157414160e-01 7.140895101290133e-01 0.000000000000000e+00
3.540079961806545e-01 7.122514987917302e-01 0.000000000000000e+00
3.468300621622148e-01 7.102950052466349e-01 0.000000000000000e+00
3.397597408208013e-01 7.081749568042396e-01 0.000000000000000e+00
3.327715225443115e-01 7.059639238947998e-01 0.000000000000000e+00
3.257638698624338e-01 7.035698648120715e-01 0.000000000000000e+00
3.188560070309519e-01 7.010662527128781e-01 0.000000000000000e+00
3.119871386063425e-01 6.983997525232886e-01 0.000000000000000e+00
3.052129515749617e-01 6.955976324722845e-01 0.000000000000000e+00
2.985124632323510e-01 6.926859538308243e-01 0.000000000000000e+00
2.918748249532073e-01 6.895412713065296e-01 0.000000000000000e+00
2.853569920830969e-01 6.863479482118151e-01 0.000000000000000e+00
2.788507334284155e-01 6.829134672713657e-01 0.000000000000000e+00
2.725503968538741e-01 6.793205075695005e-01 0.000000000000000e+00
2.663250945353581e-01 6.756420857840529e-01 0.000000000000000e+00
2.601493536160451e-01 6.717275955014751e-01 0.000000000000000e+00
2.541401477037794e-01 6.676839200199640e-01 0.000000000000000e+00
2.482536057323204e-01 6.634631396736886e-01 0.000000000000000e+00
2.424783697286779e-01 6.590864457519389e-01 0.000000000000000e+00
2.368146802071973e-01 6.545037332394942e-01 0.000000000000000e+00
2.313544533103246e-01 6.498017147384889e-01 0.000000000000000e+00
2.260903370122635e-01 6.449569151933002e-01 0.000000000000000e+00
2.209084181879263e-01 6.398915272719330e-01 0.000000000000000e+00
2.159369063612129e-01 6.346916814423763e-01 0.000000000000000e+00
2.111782038942501e-01 6.293653223931989e-01 0.000000000000000e+00
2.064958914772434e-01 6.237830383238619e-01 0.000000000000000e+00
2.020990929538484e-01 6.181132867128589e-01 0.000000000000000e+00
1.979172401075249e-01 6.123293364327472e-01 0.000000000000000e+00
1.939153499595375e-01 6.063141642690359e-01 0.000000000000000e+00
1.901423310287247e-01 6.002047265099536e-01 0.000000000000000e+00
1.866076461379702e-01 5.939619540358744e-01 0.000000000000000e+00
1.831539261905203e-01 5.874167689776119e-01 0.000000000000000e+00
1.801557491982168e-01 5.810114747658290e-01 0.000000000000000e+00
1.772755818348462e-01 5.743520914326218e-01 0.000000000000000e+00
1.747463202482766e-01 5.677191588960485e-01 0.000000000000000e+00
1.723751614499645e-01 5.608203689569290e-01 0.000000000000000e+00
1.702276625452802e-01 5.537932842147602e-01 0.000000000000000e+00
1.684716173893445e-01 5.469049999968025e-01 0.000000000000000e+00
1.668548093573395e-01 5.397668615280159e-01 0.000000000000000e+00
1.655778178662341e-01 5.327101545880744e-01 0.000000000000000e+00
1.644329674612047e-01 5.253870439511970e-01 0.000000000000000e+00
1.636582974911640e-01 5.182315984879826e-01 0.000000000000000e+00
1.631072427908727e-01 5.109458958530239e-01 0.000000000000000e+00
1.628556107856587e-01 5.036737317289357e-01 0.000000000000000e+00
1.628556107856584e-01 4.963262682710702e-01 0.000000000000000e+00
1.631072427908728e-01 4.890541041469795e-01 0.000000000000000e+00
1.636582974911640e-01 4.817684015120203e-01 0.000000000000000e+00
1.644329674612047e-01 4.746129560488087e-01 0.000000000000000e+00
1.655778178662343e-01 4.672898454119329e-01 0.000000000000000e+00
1.668548093573385e-01 4.602331384719865e-01 0.000000000000000e+00
1.684716173893440e-01 4.530950000032024e-01 0.000000000000000e+00
1.702276625452798e-01 4.462067157852440e-01 0.000000000000000e+00
1.723751614499640e-01 4.391796310430743e-01 0.000000000000000e+00
1.747463202482768e-01 4.322808411039555e-01 0.000000000000000e+00
1.772755818348438e-01 4.256479085673814e-01 0.000000000000000e+00
1.801557491982164e-01 4.189885252341730e-01 0.000000000000000e+00
1.831539261905182e-01 4.125832310223931e-01 0.000000000000000e+00
1.866076461379693e-01 4.060380459641282e-01 0.000000000000000e+00
1.901423310287230e-01 3.997952734900496e-01 0.000000000000000e+00
1.939153499595364e-01 3.936858357309673e-01 0.000000000000000e+00
1.979172401075238e-01 3.876706635672570e-01 0.000000000000000e+00
2.020990929538453e-01 3.818867132871441e-01 0.000000000000000e+00
2.064958914772403e-01 3.762169616761419e-01 0.000000000000000e+00
2.111782038942476e-01 3.706346776068030e-01 0.000000000000000e+00
2.159369063612137e-01 3.653083185576244e-01 0.000000000000000e+00
2.209084181879225e-01 3.601084727280695e-01 0.000000000000000e+00
2.260903370122610e-01 3.550430848067039e-01 0.000000000000000e+00
2.313544533103208e-01 3.501982852615098e-01 0.000000000000000e+00
2.368146802071960e-01 3.454962667605090e-01 0.000000000000000e+00
2.424783697286751e-01 3.409135542480615e-01 0.000000000000000e+00
2.482536057323158e-01 3.365368603263136e-01 0.000000000000000e+00
2.541401477037782e-01 3.323160799800384e-01 0.000000000000000e+00
2.601493536160425e-01 3.282724044985263e-01 0.000000000000000e+00
2.663250945353524e-01 3.243579142159476e-01 0.000000000000000e+00
2.725503968538708e-01 3.206794924304995e-01 0.000000000000000e+00
2.788507334284148e-01 3.170865327286377e-01 0.000000000000000e+00
2.853569920830935e-01 3.136520517881836e-01 0.000000000000000e+00
2.918748249532045e-01 3.104587286934731e-01 0.000000000000000e+00
2.985124632323481e-01 3.073140461691772e-01 0.000000000000000e+00
3.052129515749590e-01 3.044023675277170e-01 0.000000000000000e+00
3.119871386063392e-01 3.016002474767122e-01 0.000000000000000e+00
3.188560070309464e-01 2.989337472871240e-01 0.000000000000000e+00
3.257638698624334e-01 2.964301351879288e-01 0.000000000000000e+00
3.327715225443070e-01 2.940360761052029e-01 0.000000000000000e+00
3.397597408208037e-01 2.918250431957607e-01 0.000000000000000e+00
3.468300621622064e-01 2.897049947533629e-01 0.000000000000000e+00
3.540079961806600e-01 2.877485012082748e-01 0.000000000000000e+00
3.611407157414110e-01 2.859104898709842e-01 0.000000000000000e+00
3.683707326359134e-01 2.841199031845306e-01 0.000000000000000e+00
3.756280185182869e-01 2.825347045768490e-01 0.000000000000000e+00
3.828692854869744e-01 2.810428312781766e-01 0.000000000000000e+00
3.901954376948478e-01 2.796576302574635e-01 0.000000000000000e+00
3.974732053008074e-01 2.784135986165008e-01 0.000000000000000e+00
4.048416970620010e-01 2.772232354061063e-01 0.000000000000000e+00
4.121967478908615e-01 2.761676933323567e-01 0.000000000000000e+00
4.196399133898535e-01 2.751732829738635e-01 0.000000000000000e+00
4.270388131338341e-01 2.743328986710695e-01 0.000000000000000e+00
4.344926938932051e-01 2.735194241581402e-01 0.000000000000000e+00
4.419402636167044e-01 2.728490802603225e-01 0.000000000000000e+00
4.494218369045688e-01 2.722219564529215e-01 0.000000000000000e+00
4.568705920039537e-01 2.717307066189543e-01 0.000000000000000e+00
4.643939715345763e-01 2.712680898209927e-01 0.000000000000000e+00
4.718823486628324e-01 2.709478765875468e-01 0.000000000000000e+00
4.793623740294077e-01 2.706571562162624e-01 0.000000000000000e+00
4.868862224875526e-01 2.704922439286068e-01 0.000000000000000e+00
4.943660127031910e-01 2.703824622536395e-01 0.000000000000000e+00
5.019070049397460e-01 2.703724012267876e-01 0.000000000000000e+00
5.093827540879819e-01 2.704259654298219e-01 0.000000000000000e+00
5.169096504166062e-01 2.705751201472771e-01 0.000000000000000e+00
5.243998184901969e-01 2.707901973092520e-01 0.000000000000000e+00
5.318947992577172e-01 2.711148650832669e-01 0.000000000000000e+00
5.393894064539624e-01 2.714827008969151e-01 0.000000000000000e+00
5.468921013004640e-01 2.719792394846440e-01 0.000000000000000e+00
5.543374997819627e-01 2.725189981692968e-01 0.000000000000000e+00
5.618143588683575e-01 2.731775221330764e-01 0.000000000000000e+00
5.692679952990429e-01 2.739117848896402e-01 0.000000000000000e+00
5.766950990432781e-01 2.747408854942535e-01 0.000000000000000e+00
5.841133360974878e-01 2.756483939894758e-01 0.000000000000000e+00
5.915193817790789e-01 2.766846058797331e-01 0.000000000000000e+00
5.988733202171032e-01 2.777960720115337e-01 0.000000000000000e+00
6.062122983580900e-01 2.790281738260742e-01 0.000000000000000e+00
6.134957817972485e-01 2.803243960122812e-01 0.000000000000000e+00
6.208019441369389e-01 2.817963412457812e-01 0.000000000000000e+00
6.280249008476553e-01 2.833143017786274e-01 0.000000000000000e+00
6.353033797166833e-01 2.850123738225281e-01 0.000000000000000e+00
6.424607259875000e-01 2.868415911756085e-01 0.000000000000000e+00
6.496180506347697e-01 2.887180614851116e-01 0.000000000000000e+00
6.567608990096196e-01 2.907710088854162e-01 0.000000000000000e+00
6.637603784970394e-01 2.929290484534825e-01 0.000000000000000e+00
6.707734356589536e-01 2.952348154853093e-01 0.000000000000000e+00
6.777558709102798e-01 2.976997850568296e-01 0.000000000000000e+00
6.846194081661833e-01 3.002594566521121e-01 0.000000000000000e+00
6.914719675502121e-01 3.030221261012747e-01 0.000000000000000e+00
6.981656432745118e-01 3.058384906737361e-01 0.000000000000000e+00
7.048548764291058e-01 3.088963131033662e-01 0.000000000000000e+00
7.114127263188637e-01 3.120651996600980e-01 0.000000000000000e+00
7.179367186423470e-01 3.153564709493218e-01 0.000000000000000e+00
7.243688696286619e-01 3.189138789127959e-01 0.000000000000000e+00
7.306054733341661e-01 3.225147651046636e-01 0.000000000000000e+00
7.368360894642467e-01 3.263184409737021e-01 0.000000000000000e+00
7.429127242658405e-01 3.302881226865368e-01 0.000000000000000e+00
7.488557836969292e-01 3.344299389040691e-01 0.000000000000000e+00
7.546750787018179e-01 3.387213063941422e-01 0.000000000000000e+00
7.603938228874031e-01 3.432035861943665e-01 0.000000000000000e+00
7.659786844884149e-01 3.478655073925841e-01 0.000000000000000e+00
7.713326025424895e-01 3.526134044462349e-01 0.000000000000000e+00
7.765581436163689e-01 3.575838360937473e-01 0.000000000000000e+00
7.816734580824963e-01 3.627379917724948e-01 0.000000000000000e+00
7.864978030255679e-01 3.679736057981165e-01 0.000000000000000e+00
7.912225199452289e-01 3.734287411561880e-01 0.000000000000000e+00
7.957975579220705e-01 3.790914284198303e-01 0.000000000000000e+00
8.000520207018732e-01 3.847773094101348e-01 0.000000000000000e+00
8.041449170452767e-01 3.906710327745755e-01 0.000000000000000e+00
8.080406424370691e-01 3.967634378684078e-01 0.000000000000000e+00
8.116754809614080e-01 4.028925089336119e-01 0.000000000000000e+00
8.151926449982282e-01 4.093245177292705e-01 0.000000000000000e+00
8.184509393574581e-01 4.158237702328274e-01 0.000000000000000e+00
8.213320101340456e-01 4.223098757473632e-01 0.000000000000000e+00
8.241216960651339e-01 4.290620271116703e-01 0.000000000000000e+00
8.264548184884232e-01 4.356618289791835e-01 0.000000000000000e+00
8.288474594747971e-01 4.427958318108993e-01 0.000000000000000e+00
8.306728440053004e-01 4.495733391473212e-01 0.000000000000000e+00
8.324348475622274e-01 4.566942592873417e-01 0.000000000000000e+00
8.337907654824631e-01 4.636820538689918e-01 0.000000000000000e+00
8.350814952827739e-01 4.709692453623208e-01 0.000000000000000e+00
8.360033438598468e-01 4.781718983018656e-01 0.000000000000000e+00
8.366849295753908e-01 4.854117003599275e-01 0.000000000000000e+00
8.370735604870855e-01 4.926814265690778e-01 0.000000000000000e+00

POINT_DATA   249
SCALARS fY_Lag double
LOOKUP_TABLE default

5.456968e-12 
-4.884538e+00 
-2.990854e+00 
-3.716390e+00 
8.451450e+00 
-2.993906e+01 
1.330540e+01 
-3.433756e+01 
3.563514e+01 
-5.341041e+01 
1.521713e+01 
-2.659994e+01 
1.301640e+00 
-6.724950e+00 
-3.029214e+01 
-3.672622e+00 
-1.986661e+01 
-2.079086e+01 
-2.318328e+00 
-2.076311e+01 
-2.195920e+01 
-8.137640e+00 
-1.837643e+01 
-2.226146e+01 
-8.589262e+00 
-1.796553e+01 
-1.909583e+01 
-1.495549e+01 
-1.721508e+01 
-1.659907e+01 
-2.028046e+01 
-4.351864e+00 
-2.661448e+01 
-1.223652e+01 
-1.110613e+01 
-2.414940e+01 
-5.371477e+00 
-2.029720e+01 
-9.465034e+00 
-1.591722e+01 
-1.477751e+01 
-1.051123e+01 
-1.764805e+01 
-4.719131e+00 
-1.311061e+01 
-1.800466e+01 
-4.602168e+00 
-1.757364e+01 
-6.410056e+00 
-1.206237e+01 
-7.522798e+00 
-1.286901e+01 
-7.838004e+00 
-9.482378e+00 
-7.569845e+00 
-1.187360e+01 
-4.318106e+00 
-1.286833e+01 
-4.313312e+00 
-1.095642e+01 
-6.588554e+00 
-9.556371e+00 
-6.359049e+00 
-9.969299e+00 
-5.509655e+00 
-1.257788e+01 
-2.946058e+00 
-1.423751e+01 
-2.860517e+00 
-1.358363e+01 
-4.318768e+00 
-1.431073e+01 
-2.689827e+00 
-1.539982e+01 
-6.111358e+00 
-1.347910e+01 
-5.365322e+00 
-1.411549e+01 
-1.066976e+01 
-9.328711e+00 
-2.053475e+01 
-4.736003e+00 
-1.184683e+01 
-1.635630e+01 
-9.101934e+00 
-1.830479e+01 
-1.094909e+01 
-1.628643e+01 
-1.356162e+01 
-1.095996e+01 
-2.330089e+01 
-4.860439e+00 
-2.411361e+01 
-1.585284e+01 
-8.550771e+00 
-2.360803e+01 
-1.291723e+01 
-1.771206e+01 
-1.558936e+01 
-2.060869e+01 
-1.192461e+01 
-1.427867e+01 
-2.206878e+01 
-1.343844e+01 
-1.265038e+01 
-2.560321e+01 
-8.748329e+00 
-1.142239e+01 
-2.312934e+01 
-9.425192e+00 
-1.334130e+01 
-3.023130e+01 
1.397532e+01 
-2.540727e+01 
2.635472e+00 
-2.659123e+01 
-1.282670e+01 
1.386761e+01 
-2.498048e+01 
8.133142e+00 
-2.663638e+01 
1.676122e+01 
-1.302283e+01 
1.352672e+00 
-7.528296e+00 
7.528296e+00 
-1.352672e+00 
1.302283e+01 
-1.676122e+01 
2.663638e+01 
-8.133142e+00 
2.498048e+01 
-1.386761e+01 
1.282670e+01 
2.659123e+01 
-2.635472e+00 
2.540727e+01 
-1.397532e+01 
3.023130e+01 
1.334130e+01 
9.425192e+00 
2.312934e+01 
1.142239e+01 
8.748329e+00 
2.560321e+01 
1.265038e+01 
1.343844e+01 
2.206878e+01 
1.427867e+01 
1.192461e+01 
2.060869e+01 
1.558936e+01 
1.771206e+01 
1.291723e+01 
2.360803e+01 
8.550771e+00 
1.585284e+01 
2.411361e+01 
4.860439e+00 
2.330089e+01 
1.095996e+01 
1.356162e+01 
1.628643e+01 
1.094909e+01 
1.830479e+01 
9.101934e+00 
1.635630e+01 
1.184683e+01 
4.736003e+00 
2.053475e+01 
9.328711e+00 
1.066976e+01 
1.411549e+01 
5.365322e+00 
1.347910e+01 
6.111358e+00 
1.539982e+01 
2.689827e+00 
1.431073e+01 
4.318768e+00 
1.358363e+01 
2.860517e+00 
1.423751e+01 
2.946058e+00 
1.257788e+01 
5.509655e+00 
9.969299e+00 
6.359049e+00 
9.556371e+00 
6.588554e+00 
1.095642e+01 
4.313312e+00 
1.286833e+01 
4.318106e+00 
1.187360e+01 
7.569845e+00 
9.482378e+00 
7.838004e+00 
1.286901e+01 
7.522798e+00 
1.206237e+01 
6.410056e+00 
1.757364e+01 
4.602168e+00 
1.800466e+01 
1.311061e+01 
4.719131e+00 
1.764805e+01 
1.051123e+01 
1.477751e+01 
1.591722e+01 
9.465034e+00 
2.029720e+01 
5.371477e+00 
2.414940e+01 
1.110613e+01 
1.223652e+01 
2.661448e+01 
4.351864e+00 
2.028046e+01 
1.659907e+01 
1.721508e+01 
1.495549e+01 
1.909583e+01 
1.796553e+01 
8.589262e+00 
2.226146e+01 
1.837643e+01 
8.137640e+00 
2.195920e+01 
2.076311e+01 
2.318328e+00 
2.079086e+01 
1.986661e+01 
3.672622e+00 
3.029214e+01 
6.724950e+00 
-1.301640e+00 
2.659994e+01 
-1.521713e+01 
5.341041e+01 
-3.563514e+01 
3.433756e+01 
-1.330540e+01 
2.993906e+01 
-8.451450e+00 
3.716390e+00 
2.990854e+00 
4.884538e+00 
