# vtk DataFile Version 2.0
fY_Lag
ASCII
DATASET UNSTRUCTURED_GRID

FIELD FieldData 1
TIME 1 1 double
1.07000000
POINTS 249 float
7.813178990450628e-01 5.000000000000000e-01 0.000000000000000e+00
7.812298657448116e-01 5.069229102551076e-01 0.000000000000000e+00
7.809540984612079e-01 5.138933739967098e-01 0.000000000000000e+00
7.804840447995369e-01 5.208556899736149e-01 0.000000000000000e+00
7.798990722734771e-01 5.276692162006399e-01 0.000000000000000e+00
7.790227895891142e-01 5.347021905909386e-01 0.000000000000000e+00
7.781885595968123e-01 5.412481884506346e-01 0.000000000000000e+00
7.768232383330679e-01 5.484592144560021e-01 0.000000000000000e+00
7.758855731600620e-01 5.545278375395688e-01 0.000000000000000e+00
7.739759503796018e-01 5.619089533540289e-01 0.000000000000000e+00
7.727226998103696e-01 5.679869266895053e-01 0.000000000000000e+00
7.705736177123534e-01 5.750230101747172e-01 0.000000000000000e+00
7.686132190579200e-01 5.815642161549863e-01 0.000000000000000e+00
7.664974436194266e-01 5.879655044816596e-01 0.000000000000000e+00
7.638103562015071e-01 5.948348326383623e-01 0.000000000000000e+00
7.617962396395056e-01 6.005212716812249e-01 0.000000000000000e+00
7.587584120504761e-01 6.073823102181904e-01 0.000000000000000e+00
7.560190011156952e-01 6.134198810115362e-01 0.000000000000000e+00
7.529377779676056e-01 6.196806232521846e-01 0.000000000000000e+00
7.496031759036498e-01 6.260127633818813e-01 0.000000000000000e+00
7.465059877996423e-01 6.317039180668711e-01 0.000000000000000e+00
7.428224300903049e-01 6.378977616207582e-01 0.000000000000000e+00
7.391850701034247e-01 6.436812839967513e-01 0.000000000000000e+00
7.354227135434691e-01 6.494281537178742e-01 0.000000000000000e+00
7.312953995040007e-01 6.552663759598542e-01 0.000000000000000e+00
7.273253909681692e-01 6.606606675952252e-01 0.000000000000000e+00
7.230753500596552e-01 6.661211677910761e-01 0.000000000000000e+00
7.185336151056660e-01 6.716086968994738e-01 0.000000000000000e+00
7.141241387403807e-01 6.767287992668124e-01 0.000000000000000e+00
7.095103539685997e-01 6.817889104794322e-01 0.000000000000000e+00
7.045321122661365e-01 6.869502702340669e-01 0.000000000000000e+00
6.996795227188743e-01 6.917879137799358e-01 0.000000000000000e+00
6.947399922151885e-01 6.964412748966312e-01 0.000000000000000e+00
6.893928645178530e-01 7.011791806393594e-01 0.000000000000000e+00
6.841205540640501e-01 7.056889118934050e-01 0.000000000000000e+00
6.788426957723592e-01 7.099579028203979e-01 0.000000000000000e+00
6.732632993448637e-01 7.142082880323559e-01 0.000000000000000e+00
6.675499308310944e-01 7.183626995105692e-01 0.000000000000000e+00
6.619159420688978e-01 7.222602519969120e-01 0.000000000000000e+00
6.560281115490016e-01 7.261207501089536e-01 0.000000000000000e+00
6.500050875925656e-01 7.298234362141197e-01 0.000000000000000e+00
6.442648201796425e-01 7.331565326452837e-01 0.000000000000000e+00
6.379317372756299e-01 7.366738209468952e-01 0.000000000000000e+00
6.317753007402089e-01 7.398824921725936e-01 0.000000000000000e+00
6.256984165073809e-01 7.428512844610363e-01 0.000000000000000e+00
6.189681854378911e-01 7.459651302843663e-01 0.000000000000000e+00
6.131419464816736e-01 7.483124771237208e-01 0.000000000000000e+00
6.062263463472652e-01 7.513041698120774e-01 0.000000000000000e+00
6.000183731357185e-01 7.534218092773856e-01 0.000000000000000e+00
5.933995808499755e-01 7.556763945620971e-01 0.000000000000000e+00
5.863861953658378e-01 7.580460283579287e-01 0.000000000000000e+00
5.801221999620469e-01 7.597654018072750e-01 0.000000000000000e+00
5.728538422198794e-01 7.618342035243224e-01 0.000000000000000e+00
5.668461650953148e-01 7.629982629372698e-01 0.000000000000000e+00
5.595118893507268e-01 7.647094243590106e-01 0.000000000000000e+00
5.529011781241300e-01 7.658847064773980e-01 0.000000000000000e+00
5.458932127580627e-01 7.670316822506983e-01 0.000000000000000e+00
5.388313419467869e-01 7.680367579822462e-01 0.000000000000000e+00
5.319143252688577e-01 7.688187634279571e-01 0.000000000000000e+00
5.247556205607382e-01 7.694866178949175e-01 0.000000000000000e+00
5.178922496237203e-01 7.699013102305794e-01 0.000000000000000e+00
5.107384962234180e-01 7.702227430908386e-01 0.000000000000000e+00
5.037723835407992e-01 7.703399039693000e-01 0.000000000000000e+00
4.966451694899056e-01 7.703024231342760e-01 0.000000000000000e+00
4.896702536106227e-01 7.701016995571289e-01 0.000000000000000e+00
4.825402731127088e-01 7.696943121472133e-01 0.000000000000000e+00
4.756867358464924e-01 7.691963046091425e-01 0.000000000000000e+00
4.684807051571044e-01 7.684166650437469e-01 0.000000000000000e+00
4.617658682837382e-01 7.676302550001294e-01 0.000000000000000e+00
4.545144006442441e-01 7.664828298763048e-01 0.000000000000000e+00
4.478698893828952e-01 7.653866223039746e-01 0.000000000000000e+00
4.407877607908448e-01 7.638892584220293e-01 0.000000000000000e+00
4.338726271807309e-01 7.622541974034733e-01 0.000000000000000e+00
4.274617285901805e-01 7.608730057302312e-01 0.000000000000000e+00
4.203430354297941e-01 7.587573407955984e-01 0.000000000000000e+00
4.141914798341376e-01 7.570941333404398e-01 0.000000000000000e+00
4.070136400135141e-01 7.544074773913644e-01 0.000000000000000e+00
4.008939668383170e-01 7.525322346016114e-01 0.000000000000000e+00
3.941458832086247e-01 7.498755379227935e-01 0.000000000000000e+00
3.876716205629849e-01 7.470379484881441e-01 0.000000000000000e+00
3.815249352181768e-01 7.444560966473437e-01 0.000000000000000e+00
3.748839583686614e-01 7.412886520555642e-01 0.000000000000000e+00
3.690698554440071e-01 7.383959574847463e-01 0.000000000000000e+00
3.626806752845191e-01 7.349119059233019e-01 0.000000000000000e+00
3.565569468295740e-01 7.314284083062712e-01 0.000000000000000e+00
3.508402898915124e-01 7.280375372436082e-01 0.000000000000000e+00
3.447728530227632e-01 7.242022052787528e-01 0.000000000000000e+00
3.390570180732294e-01 7.203347808067733e-01 0.000000000000000e+00
3.334198829789043e-01 7.163297829260800e-01 0.000000000000000e+00
3.277326156572607e-01 7.121269511473766e-01 0.000000000000000e+00
3.222621122806723e-01 7.078173599751922e-01 0.000000000000000e+00
3.170389697968015e-01 7.034511682682462e-01 0.000000000000000e+00
3.117127639168178e-01 6.988292136825544e-01 0.000000000000000e+00
3.065127400906890e-01 6.940786647489836e-01 0.000000000000000e+00
3.017173236389739e-01 6.894105595424307e-01 0.000000000000000e+00
2.968048534506656e-01 6.844269242187802e-01 0.000000000000000e+00
2.919658020048622e-01 6.792502766790489e-01 0.000000000000000e+00
2.874698712686573e-01 6.741854194007338e-01 0.000000000000000e+00
2.829987503543090e-01 6.689004474025597e-01 0.000000000000000e+00
2.785507941370373e-01 6.633479389933347e-01 0.000000000000000e+00
2.744834877889138e-01 6.579400440741542e-01 0.000000000000000e+00
2.704235920506725e-01 6.523473882306442e-01 0.000000000000000e+00
2.664166789975208e-01 6.465060371307957e-01 0.000000000000000e+00
2.628714651789093e-01 6.408762936034224e-01 0.000000000000000e+00
2.591166094147977e-01 6.347582409537452e-01 0.000000000000000e+00
2.556198669216722e-01 6.287453150845081e-01 0.000000000000000e+00
2.524727675013718e-01 6.228801282539395e-01 0.000000000000000e+00
2.491508531024693e-01 6.163391786346472e-01 0.000000000000000e+00
2.465358824640214e-01 6.105931496997036e-01 0.000000000000000e+00
2.434836816978078e-01 6.040027005082544e-01 0.000000000000000e+00
2.408778078631834e-01 5.976122569512653e-01 0.000000000000000e+00
2.386235952067965e-01 5.914297442501337e-01 0.000000000000000e+00
2.359085735048128e-01 5.843596029076679e-01 0.000000000000000e+00
2.344061046418198e-01 5.786300230184982e-01 0.000000000000000e+00
2.320335140413720e-01 5.713916548024319e-01 0.000000000000000e+00
2.305736231417648e-01 5.652380533188557e-01 0.000000000000000e+00
2.288764709241653e-01 5.583116332436724e-01 0.000000000000000e+00
2.274788869494485e-01 5.515168060843539e-01 0.000000000000000e+00
2.262878982063373e-01 5.449256889553070e-01 0.000000000000000e+00
2.250365832289381e-01 5.376780371319785e-01 0.000000000000000e+00
2.242896762838781e-01 5.312206072174347e-01 0.000000000000000e+00
2.234905615866412e-01 5.240300311829739e-01 0.000000000000000e+00
2.230314634084971e-01 5.173963489038514e-01 0.000000000000000e+00
2.226235075402709e-01 5.103408668617718e-01 0.000000000000000e+00
2.224570163955907e-01 5.034927128253829e-01 0.000000000000000e+00
2.224570163955929e-01 4.965072871753388e-01 0.000000000000000e+00
2.226235075402717e-01 4.896591331389401e-01 0.000000000000000e+00
2.230314634084852e-01 4.826036510968700e-01 0.000000000000000e+00
2.234905615866257e-01 4.759699688177533e-01 0.000000000000000e+00
2.242896762838595e-01 4.687793927832815e-01 0.000000000000000e+00
2.250365832289341e-01 4.623219628687168e-01 0.000000000000000e+00
2.262878982063191e-01 4.550743110453958e-01 0.000000000000000e+00
2.274788869494326e-01 4.484831939163392e-01 0.000000000000000e+00
2.288764709241228e-01 4.416883667570583e-01 0.000000000000000e+00
2.305736231417272e-01 4.347619466818618e-01 0.000000000000000e+00
2.320335140413087e-01 4.286083451983190e-01 0.000000000000000e+00
2.344061046417835e-01 4.213699769822147e-01 0.000000000000000e+00
2.359085735047884e-01 4.156403970930040e-01 0.000000000000000e+00
2.386235952067403e-01 4.085702557505744e-01 0.000000000000000e+00
2.408778078631597e-01 4.023877430494019e-01 0.000000000000000e+00
2.434836816977478e-01 3.959972994924558e-01 0.000000000000000e+00
2.465358824639709e-01 3.894068503009745e-01 0.000000000000000e+00
2.491508531024153e-01 3.836608213660407e-01 0.000000000000000e+00
2.524727675013019e-01 3.771198717467544e-01 0.000000000000000e+00
2.556198669216149e-01 3.712546849161623e-01 0.000000000000000e+00
2.591166094147238e-01 3.652417590469477e-01 0.000000000000000e+00
2.628714651788409e-01 3.591237063972496e-01 0.000000000000000e+00
2.664166789974532e-01 3.534939628698727e-01 0.000000000000000e+00
2.704235920505868e-01 3.476526117700381e-01 0.000000000000000e+00
2.744834877888511e-01 3.420599559264973e-01 0.000000000000000e+00
2.785507941369524e-01 3.366520610073391e-01 0.000000000000000e+00
2.829987503542126e-01 3.310995525981188e-01 0.000000000000000e+00
2.874698712685842e-01 3.258145805999174e-01 0.000000000000000e+00
2.919658020047653e-01 3.207497233216250e-01 0.000000000000000e+00
2.968048534505534e-01 3.155730757818948e-01 0.000000000000000e+00
3.017173236388826e-01 3.105894404582305e-01 0.000000000000000e+00
3.065127400905945e-01 3.059213352516801e-01 0.000000000000000e+00
3.117127639167030e-01 3.011707863181086e-01 0.000000000000000e+00
3.170389697966989e-01 2.965488317324078e-01 0.000000000000000e+00
3.222621122805723e-01 2.921826400254667e-01 0.000000000000000e+00
3.277326156571451e-01 2.878730488532758e-01 0.000000000000000e+00
3.334198829787878e-01 2.836702170745745e-01 0.000000000000000e+00
3.390570180731139e-01 2.796652191938795e-01 0.000000000000000e+00
3.447728530226498e-01 2.757977947218884e-01 0.000000000000000e+00
3.508402898913873e-01 2.719624627570290e-01 0.000000000000000e+00
3.565569468294550e-01 2.685715916943746e-01 0.000000000000000e+00
3.626806752843801e-01 2.650880940773395e-01 0.000000000000000e+00
3.690698554438833e-01 2.616040425158828e-01 0.000000000000000e+00
3.748839583685182e-01 2.587113479450762e-01 0.000000000000000e+00
3.815249352180268e-01 2.555439033532839e-01 0.000000000000000e+00
3.876716205628437e-01 2.529620515124855e-01 0.000000000000000e+00
3.941458832084767e-01 2.501244620778294e-01 0.000000000000000e+00
4.008939668381800e-01 2.474677653989971e-01 0.000000000000000e+00
4.070136400133433e-01 2.455925226092646e-01 0.000000000000000e+00
4.141914798339705e-01 2.429058666601815e-01 0.000000000000000e+00
4.203430354296494e-01 2.412426592049953e-01 0.000000000000000e+00
4.274617285900180e-01 2.391269942703823e-01 0.000000000000000e+00
4.338726271805761e-01 2.377458025971239e-01 0.000000000000000e+00
4.407877607906988e-01 2.361107415785515e-01 0.000000000000000e+00
4.478698893827270e-01 2.346133776966216e-01 0.000000000000000e+00
4.545144006440826e-01 2.335171701242704e-01 0.000000000000000e+00
4.617658682835827e-01 2.323697450004526e-01 0.000000000000000e+00
4.684807051569183e-01 2.315833349568316e-01 0.000000000000000e+00
4.756867358463250e-01 2.308036953914198e-01 0.000000000000000e+00
4.825402731125240e-01 2.303056878533562e-01 0.000000000000000e+00
4.896702536104440e-01 2.298983004434310e-01 0.000000000000000e+00
4.966451694897186e-01 2.296975768662838e-01 0.000000000000000e+00
5.037723835406132e-01 2.296600960312475e-01 0.000000000000000e+00
5.107384962232362e-01 2.297772569097074e-01 0.000000000000000e+00
5.178922496235330e-01 2.300986897699644e-01 0.000000000000000e+00
5.247556205605599e-01 2.305133821056151e-01 0.000000000000000e+00
5.319143252686617e-01 2.311812365725737e-01 0.000000000000000e+00
5.388313419466129e-01 2.319632420182777e-01 0.000000000000000e+00
5.458932127578697e-01 2.329683177498164e-01 0.000000000000000e+00
5.529011781239359e-01 2.341152935231143e-01 0.000000000000000e+00
5.595118893505421e-01 2.352905756414953e-01 0.000000000000000e+00
5.668461650951150e-01 2.370017370632315e-01 0.000000000000000e+00
5.728538422196966e-01 2.381657964761768e-01 0.000000000000000e+00
5.801221999618664e-01 2.402345981932228e-01 0.000000000000000e+00
5.863861953656472e-01 2.419539716425335e-01 0.000000000000000e+00
5.933995808497899e-01 2.443236054383922e-01 0.000000000000000e+00
6.000183731355375e-01 2.465781907230846e-01 0.000000000000000e+00
6.062263463470946e-01 2.486958301883911e-01 0.000000000000000e+00
6.131419464814888e-01 2.516875228767499e-01 0.000000000000000e+00
6.189681854377205e-01 2.540348697160966e-01 0.000000000000000e+00
6.256984165072141e-01 2.571487155394253e-01 0.000000000000000e+00
6.317753007400517e-01 2.601175078278702e-01 0.000000000000000e+00
6.379317372754620e-01 2.633261790535594e-01 0.000000000000000e+00
6.442648201794784e-01 2.668434673551752e-01 0.000000000000000e+00
6.500050875923987e-01 2.701765637863262e-01 0.000000000000000e+00
6.560281115488349e-01 2.738792498914863e-01 0.000000000000000e+00
6.619159420687341e-01 2.777397480035265e-01 0.000000000000000e+00
6.675499308309299e-01 2.816373004898746e-01 0.000000000000000e+00
6.732632993447062e-01 2.857917119680755e-01 0.000000000000000e+00
6.788426957721952e-01 2.900420971800291e-01 0.000000000000000e+00
6.841205540638903e-01 2.943110881070284e-01 0.000000000000000e+00
6.893928645177029e-01 2.988208193610676e-01 0.000000000000000e+00
6.947399922150422e-01 3.035587251037962e-01 0.000000000000000e+00
6.996795227187080e-01 3.082120862204762e-01 0.000000000000000e+00
7.045321122659929e-01 3.130497297663465e-01 0.000000000000000e+00
7.095103539684483e-01 3.182110895209799e-01 0.000000000000000e+00
7.141241387402335e-01 3.232712007335911e-01 0.000000000000000e+00
7.185336151055233e-01 3.283913031009277e-01 0.000000000000000e+00
7.230753500595217e-01 3.338788322093258e-01 0.000000000000000e+00
7.273253909680346e-01 3.393393324051744e-01 0.000000000000000e+00
7.312953995038703e-01 3.447336240405393e-01 0.000000000000000e+00
7.354227135433515e-01 3.505718462825300e-01 0.000000000000000e+00
7.391850701032916e-01 3.563187160036248e-01 0.000000000000000e+00
7.428224300901891e-01 3.621022383796337e-01 0.000000000000000e+00
7.465059877995264e-01 3.682960819335105e-01 0.000000000000000e+00
7.496031759035335e-01 3.739872366184928e-01 0.000000000000000e+00
7.529377779675056e-01 3.803193767482020e-01 0.000000000000000e+00
7.560190011155868e-01 3.865801189888313e-01 0.000000000000000e+00
7.587584120503832e-01 3.926176897821885e-01 0.000000000000000e+00
7.617962396394076e-01 3.994787283191396e-01 0.000000000000000e+00
7.638103562014259e-01 4.051651673620134e-01 0.000000000000000e+00
7.664974436193610e-01 4.120344955187255e-01 0.000000000000000e+00
7.686132190578397e-01 4.184357838453871e-01 0.000000000000000e+00
7.705736177122837e-01 4.249769898256539e-01 0.000000000000000e+00
7.727226998103003e-01 4.320130733108452e-01 0.000000000000000e+00
7.739759503795549e-01 4.380910466463621e-01 0.000000000000000e+00
7.758855731600155e-01 4.454721624608106e-01 0.000000000000000e+00
7.768232383330321e-01 4.515407855443951e-01 0.000000000000000e+00
7.781885595967902e-01 4.587518115497765e-01 0.000000000000000e+00
7.790227895890860e-01 4.652978094094445e-01 0.000000000000000e+00
7.798990722734567e-01 4.723307837997114e-01 0.000000000000000e+00
7.804840447995145e-01 4.791443100267700e-01 0.000000000000000e+00
7.809540984612013e-01 4.861066260037732e-01 0.000000000000000e+00
7.812298657448108e-01 4.930770897454646e-01 0.000000000000000e+00

POINT_DATA   249
SCALARS fY_Lag double
LOOKUP_TABLE default

5.722109e-08 
4.755499e+00 
-8.147981e-01 
-1.487930e+01 
2.194400e+01 
-4.869735e+01 
6.650050e+01 
-1.142383e+02 
1.312434e+02 
-1.303104e+02 
9.580812e+01 
-4.948557e+01 
-1.399012e+01 
4.679983e+01 
-1.182818e+02 
1.174526e+02 
-8.234330e+01 
2.231605e+01 
7.136933e+00 
-6.409640e+01 
5.026147e+01 
-4.103058e+01 
-3.663954e+00 
9.134078e+00 
-4.439175e+01 
6.617293e+00 
2.703160e+00 
-3.673819e+01 
-6.003567e+00 
1.012447e+01 
-3.236708e+01 
-1.843297e+01 
8.452988e+00 
-2.281155e+01 
-2.407820e+01 
-1.862642e+00 
-9.595012e+00 
-2.568541e+01 
-3.704595e+00 
-1.578269e+01 
-3.695945e+01 
1.841994e+01 
-3.085943e+01 
-2.398846e+01 
1.450197e+01 
-7.664731e+01 
6.443504e+01 
-8.740204e+01 
1.369313e+01 
1.150287e+01 
-6.502464e+01 
3.494165e+01 
-9.046979e+01 
5.471120e+01 
-5.358791e+01 
-2.831941e+00 
-1.418918e+01 
-2.230509e+01 
-1.141385e+01 
-2.531589e+01 
-9.325364e+00 
-2.042614e+01 
-1.546290e+01 
-1.632293e+01 
-2.066529e+01 
-9.061262e+00 
-2.816274e+01 
-6.759992e-01 
-3.609952e+01 
5.122506e+00 
-4.011602e+01 
-1.377096e+01 
2.538936e+01 
-7.344392e+01 
4.524462e+01 
-1.023447e+02 
8.114054e+01 
-7.814554e+01 
-1.808790e+01 
2.557499e+01 
-5.855802e+01 
2.747244e+01 
-5.913500e+01 
5.812382e-02 
9.262993e+00 
-4.444653e+01 
-3.212153e+00 
-1.375524e+01 
-1.978287e+01 
-1.067550e+01 
-5.660845e+00 
-2.557814e+01 
-1.285610e+01 
8.242421e+00 
-3.155673e+01 
-1.929798e+01 
1.117879e+01 
-2.201357e+01 
-2.675266e+01 
1.446103e+01 
-1.847575e+01 
-2.487132e+01 
2.115491e+01 
-4.882531e+01 
1.051189e+01 
1.477290e+01 
-6.757528e+01 
7.948640e+01 
-8.443564e+01 
1.999723e+01 
2.079358e+01 
-8.876296e+01 
1.340481e+02 
-1.508726e+02 
1.084721e+02 
-7.727822e+01 
1.315880e+01 
2.037102e+01 
-6.565268e+01 
7.901929e+01 
-7.331328e+01 
5.568823e+01 
-4.217936e+01 
2.073162e+01 
-1.372749e+01 
1.372749e+01 
-2.073162e+01 
4.217936e+01 
-5.568823e+01 
7.331328e+01 
-7.901929e+01 
6.565268e+01 
-2.037102e+01 
-1.315880e+01 
7.727822e+01 
-1.084721e+02 
1.508726e+02 
-1.340481e+02 
8.876296e+01 
-2.079358e+01 
-1.999723e+01 
8.443564e+01 
-7.948640e+01 
6.757528e+01 
-1.477290e+01 
-1.051189e+01 
4.882531e+01 
-2.115491e+01 
2.487132e+01 
1.847575e+01 
-1.446103e+01 
2.675266e+01 
2.201357e+01 
-1.117879e+01 
1.929798e+01 
3.155673e+01 
-8.242421e+00 
1.285610e+01 
2.557814e+01 
5.660845e+00 
1.067550e+01 
1.978287e+01 
1.375524e+01 
3.212153e+00 
4.444653e+01 
-9.262993e+00 
-5.812382e-02 
5.913500e+01 
-2.747244e+01 
5.855802e+01 
-2.557499e+01 
1.808790e+01 
7.814554e+01 
-8.114054e+01 
1.023447e+02 
-4.524462e+01 
7.344392e+01 
-2.538936e+01 
1.377096e+01 
4.011602e+01 
-5.122506e+00 
3.609952e+01 
6.759992e-01 
2.816274e+01 
9.061262e+00 
2.066529e+01 
1.632293e+01 
1.546290e+01 
2.042614e+01 
9.325364e+00 
2.531589e+01 
1.141385e+01 
2.230509e+01 
1.418918e+01 
2.831941e+00 
5.358791e+01 
-5.471120e+01 
9.046979e+01 
-3.494165e+01 
6.502464e+01 
-1.150287e+01 
-1.369313e+01 
8.740204e+01 
-6.443504e+01 
7.664731e+01 
-1.450197e+01 
2.398846e+01 
3.085943e+01 
-1.841994e+01 
3.695945e+01 
1.578269e+01 
3.704595e+00 
2.568541e+01 
9.595012e+00 
1.862642e+00 
2.407820e+01 
2.281155e+01 
-8.452988e+00 
1.843297e+01 
3.236708e+01 
-1.012447e+01 
6.003567e+00 
3.673819e+01 
-2.703160e+00 
-6.617293e+00 
4.439175e+01 
-9.134078e+00 
3.663954e+00 
4.103058e+01 
-5.026147e+01 
6.409640e+01 
-7.136933e+00 
-2.231605e+01 
8.234330e+01 
-1.174526e+02 
1.182818e+02 
-4.679983e+01 
1.399012e+01 
4.948557e+01 
-9.580812e+01 
1.303104e+02 
-1.312434e+02 
1.142383e+02 
-6.650050e+01 
4.869735e+01 
-2.194400e+01 
1.487930e+01 
8.147981e-01 
-4.755499e+00 
