# vtk DataFile Version 2.0
fY_Lag
ASCII
DATASET UNSTRUCTURED_GRID

FIELD FieldData 1
TIME 1 1 double
0.67000000
POINTS 249 float
7.883795821453087e-01 5.000000000000000e-01 0.000000000000000e+00
7.882873285893319e-01 5.071274523606381e-01 0.000000000000000e+00
7.879949009069255e-01 5.142704512495329e-01 0.000000000000000e+00
7.875013557904512e-01 5.213952919085536e-01 0.000000000000000e+00
7.868756438542542e-01 5.284086307969449e-01 0.000000000000000e+00
7.859425402279154e-01 5.355887875084426e-01 0.000000000000000e+00
7.850118173385709e-01 5.424419830569922e-01 0.000000000000000e+00
7.836456282705855e-01 5.496739521984989e-01 0.000000000000000e+00
7.824662876897761e-01 5.562456581439532e-01 0.000000000000000e+00
7.806010679279743e-01 5.635161875637900e-01 0.000000000000000e+00
7.790655869977927e-01 5.699930059252692e-01 0.000000000000000e+00
7.769405025173435e-01 5.769889870564722e-01 0.000000000000000e+00
7.748420741722656e-01 5.836753955065126e-01 0.000000000000000e+00
7.724657171275516e-01 5.903648353620180e-01 0.000000000000000e+00
7.698438063961034e-01 5.971015727584426e-01 0.000000000000000e+00
7.673971401179434e-01 6.033553009484440e-01 0.000000000000000e+00
7.643763694172920e-01 6.100138526669582e-01 0.000000000000000e+00
7.613832083926235e-01 6.162750908269964e-01 0.000000000000000e+00
7.581647009401586e-01 6.225513995345028e-01 0.000000000000000e+00
7.547410495337548e-01 6.288367942547889e-01 0.000000000000000e+00
7.512974434147632e-01 6.348188631465107e-01 0.000000000000000e+00
7.475394976197505e-01 6.408379906096158e-01 0.000000000000000e+00
7.436597716735741e-01 6.467406050787597e-01 0.000000000000000e+00
7.397188478227951e-01 6.524690450298410e-01 0.000000000000000e+00
7.355116183008120e-01 6.581290453825781e-01 0.000000000000000e+00
7.311779610394571e-01 6.637001550470228e-01 0.000000000000000e+00
7.267818126526504e-01 6.690604545091244e-01 0.000000000000000e+00
7.221748486818850e-01 6.743454483843281e-01 0.000000000000000e+00
7.174051684657127e-01 6.795434995777426e-01 0.000000000000000e+00
7.125581277397015e-01 6.845484505319500e-01 0.000000000000000e+00
7.075548500566481e-01 6.894615374235847e-01 0.000000000000000e+00
7.024306214257863e-01 6.941965055096789e-01 0.000000000000000e+00
6.971651970431770e-01 6.988730227574207e-01 0.000000000000000e+00
6.917501419749470e-01 7.033666645137684e-01 0.000000000000000e+00
6.862745598309148e-01 7.077171231377130e-01 0.000000000000000e+00
6.807231055526041e-01 7.119356339036126e-01 0.000000000000000e+00
6.749824368442954e-01 7.159815965774923e-01 0.000000000000000e+00
6.690985076367003e-01 7.199476136524958e-01 0.000000000000000e+00
6.633113050964351e-01 7.236835437896798e-01 0.000000000000000e+00
6.571836870068964e-01 7.273885584543224e-01 0.000000000000000e+00
6.510403065908125e-01 7.308915022918306e-01 0.000000000000000e+00
6.450544758016654e-01 7.341162201818897e-01 0.000000000000000e+00
6.385660130706935e-01 7.374314352280177e-01 0.000000000000000e+00
6.323137257838000e-01 7.403779600307233e-01 0.000000000000000e+00
6.259523331784274e-01 7.432391031562150e-01 0.000000000000000e+00
6.191708035772885e-01 7.461546240030446e-01 0.000000000000000e+00
6.129853757291099e-01 7.484999742315958e-01 0.000000000000000e+00
6.060443971709059e-01 7.511341477203265e-01 0.000000000000000e+00
5.996528528178130e-01 7.531740626665925e-01 0.000000000000000e+00
5.928876171313275e-01 7.553223606454433e-01 0.000000000000000e+00
5.858754149790580e-01 7.574177151077799e-01 0.000000000000000e+00
5.792495966490909e-01 7.591401369358501e-01 0.000000000000000e+00
5.720915858051421e-01 7.609247523844290e-01 0.000000000000000e+00
5.657188898120448e-01 7.621383411186188e-01 0.000000000000000e+00
5.584119711134408e-01 7.636861529556628e-01 0.000000000000000e+00
5.516471408268708e-01 7.647901852610174e-01 0.000000000000000e+00
5.445818236825389e-01 7.658391826197142e-01 0.000000000000000e+00
5.375039652832013e-01 7.667351159288598e-01 0.000000000000000e+00
5.304879757935568e-01 7.674600480430709e-01 0.000000000000000e+00
5.233413187076176e-01 7.680767918609768e-01 0.000000000000000e+00
5.163739152526406e-01 7.684558788612469e-01 0.000000000000000e+00
5.092166593151469e-01 7.687423153946576e-01 0.000000000000000e+00
5.022022869515563e-01 7.688451316077545e-01 0.000000000000000e+00
4.950627671589027e-01 7.688201312574248e-01 0.000000000000000e+00
4.880357446599690e-01 7.686347798511460e-01 0.000000000000000e+00
4.808954183395993e-01 7.682670761943725e-01 0.000000000000000e+00
4.739433762248483e-01 7.677973277593332e-01 0.000000000000000e+00
4.667504167238148e-01 7.670856813755638e-01 0.000000000000000e+00
4.598763691667055e-01 7.663510085265663e-01 0.000000000000000e+00
4.526642009138995e-01 7.653297273293478e-01 0.000000000000000e+00
4.458883834046114e-01 7.642966664573121e-01 0.000000000000000e+00
4.387460486628764e-01 7.629260664384357e-01 0.000000000000000e+00
4.317240367016941e-01 7.614185936945895e-01 0.000000000000000e+00
4.251324970899693e-01 7.600661292372317e-01 0.000000000000000e+00
4.180420433714085e-01 7.581957461285890e-01 0.000000000000000e+00
4.116024954611126e-01 7.565209841322376e-01 0.000000000000000e+00
4.043680992825951e-01 7.541495187632142e-01 0.000000000000000e+00
3.982043985765714e-01 7.523179784769439e-01 0.000000000000000e+00
3.913298483144815e-01 7.498697415591764e-01 0.000000000000000e+00
3.847344211583203e-01 7.473358028110609e-01 0.000000000000000e+00
3.783089079357649e-01 7.447715891467060e-01 0.000000000000000e+00
3.715785644121538e-01 7.417543081225814e-01 0.000000000000000e+00
3.654690505545004e-01 7.389783270989516e-01 0.000000000000000e+00
3.590046060116309e-01 7.358031713441886e-01 0.000000000000000e+00
3.527446640613898e-01 7.325121656511143e-01 0.000000000000000e+00
3.467797642332319e-01 7.292139176209670e-01 0.000000000000000e+00
3.405492326577979e-01 7.255491823459612e-01 0.000000000000000e+00
3.346057291599253e-01 7.218300075894605e-01 0.000000000000000e+00
3.287990709198363e-01 7.179938680196789e-01 0.000000000000000e+00
3.229679353568563e-01 7.140001319522064e-01 0.000000000000000e+00
3.173091037971876e-01 7.098621867724199e-01 0.000000000000000e+00
3.118159567630960e-01 7.055699276846238e-01 0.000000000000000e+00
3.063497025498588e-01 7.011446290962395e-01 0.000000000000000e+00
3.010040413558808e-01 6.965567149628241e-01 0.000000000000000e+00
2.958160632569269e-01 6.918455654908122e-01 0.000000000000000e+00
2.907427589658196e-01 6.870317485699031e-01 0.000000000000000e+00
2.858422579819587e-01 6.820855266834890e-01 0.000000000000000e+00
2.810186743533118e-01 6.769846306382912e-01 0.000000000000000e+00
2.763088170086043e-01 6.717152294145090e-01 0.000000000000000e+00
2.718035536048619e-01 6.664125213783959e-01 0.000000000000000e+00
2.674540028870885e-01 6.609540287701585e-01 0.000000000000000e+00
2.631617517568456e-01 6.553307761303984e-01 0.000000000000000e+00
2.590917748823924e-01 6.496383853242105e-01 0.000000000000000e+00
2.552053926123808e-01 6.438415788112164e-01 0.000000000000000e+00
2.513438915542293e-01 6.378484966944499e-01 0.000000000000000e+00
2.477248506805798e-01 6.318360838926316e-01 0.000000000000000e+00
2.443571486507617e-01 6.257582199877668e-01 0.000000000000000e+00
2.409780746645094e-01 6.194035694830191e-01 0.000000000000000e+00
2.379461324685054e-01 6.132543484204402e-01 0.000000000000000e+00
2.348772294863370e-01 6.067248628190318e-01 0.000000000000000e+00
2.320983814184334e-01 6.001832897844617e-01 0.000000000000000e+00
2.296756816113377e-01 5.938039305291327e-01 0.000000000000000e+00
2.269922797453610e-01 5.868929822990583e-01 0.000000000000000e+00
2.249695538697855e-01 5.804851500674065e-01 0.000000000000000e+00
2.227295487757993e-01 5.734607921813401e-01 0.000000000000000e+00
2.210346832407192e-01 5.669129496556511e-01 0.000000000000000e+00
2.192404523400464e-01 5.599241058700306e-01 0.000000000000000e+00
2.176902681839957e-01 5.529405671054267e-01 0.000000000000000e+00
2.164438516235513e-01 5.461045075211475e-01 0.000000000000000e+00
2.151940388062958e-01 5.388821454589134e-01 0.000000000000000e+00
2.143412567547520e-01 5.320360517177243e-01 0.000000000000000e+00
2.135049523239200e-01 5.248034123932468e-01 0.000000000000000e+00
2.129963156226343e-01 5.178681310445801e-01 0.000000000000000e+00
2.125722207340159e-01 5.106672308647704e-01 0.000000000000000e+00
2.123957451067392e-01 5.035835740959025e-01 0.000000000000000e+00
2.123957451067386e-01 4.964164259042259e-01 0.000000000000000e+00
2.125722207340149e-01 4.893327691353415e-01 0.000000000000000e+00
2.129963156226323e-01 4.821318689555387e-01 0.000000000000000e+00
2.135049523239195e-01 4.751965876068788e-01 0.000000000000000e+00
2.143412567547474e-01 4.679639482823936e-01 0.000000000000000e+00
2.151940388062905e-01 4.611178545412133e-01 0.000000000000000e+00
2.164438516235493e-01 4.538954924789713e-01 0.000000000000000e+00
2.176902681839916e-01 4.470594328946935e-01 0.000000000000000e+00
2.192404523400374e-01 4.400758941300946e-01 0.000000000000000e+00
2.210346832407125e-01 4.330870503444715e-01 0.000000000000000e+00
2.227295487757900e-01 4.265392078187827e-01 0.000000000000000e+00
2.249695538697780e-01 4.195148499327191e-01 0.000000000000000e+00
2.269922797453479e-01 4.131070177010663e-01 0.000000000000000e+00
2.296756816113263e-01 4.061960694709850e-01 0.000000000000000e+00
2.320983814184240e-01 3.998167102156656e-01 0.000000000000000e+00
2.348772294863241e-01 3.932751371810866e-01 0.000000000000000e+00
2.379461324684910e-01 3.867456515796835e-01 0.000000000000000e+00
2.409780746644948e-01 3.805964305171031e-01 0.000000000000000e+00
2.443571486507446e-01 3.742417800123526e-01 0.000000000000000e+00
2.477248506805632e-01 3.681639161074904e-01 0.000000000000000e+00
2.513438915542134e-01 3.621515033056697e-01 0.000000000000000e+00
2.552053926123601e-01 3.561584211889015e-01 0.000000000000000e+00
2.590917748823751e-01 3.503616146759082e-01 0.000000000000000e+00
2.631617517568238e-01 3.446692238697180e-01 0.000000000000000e+00
2.674540028870668e-01 3.390459712299647e-01 0.000000000000000e+00
2.718035536048411e-01 3.335874786217116e-01 0.000000000000000e+00
2.763088170085796e-01 3.282847705856093e-01 0.000000000000000e+00
2.810186743532877e-01 3.230153693618257e-01 0.000000000000000e+00
2.858422579819331e-01 3.179144733166245e-01 0.000000000000000e+00
2.907427589657947e-01 3.129682514302116e-01 0.000000000000000e+00
2.958160632568973e-01 3.081544345093032e-01 0.000000000000000e+00
3.010040413558535e-01 3.034432850372921e-01 0.000000000000000e+00
3.063497025498301e-01 2.988553709038715e-01 0.000000000000000e+00
3.118159567630692e-01 2.944300723154863e-01 0.000000000000000e+00
3.173091037971572e-01 2.901378132276962e-01 0.000000000000000e+00
3.229679353568278e-01 2.859998680479001e-01 0.000000000000000e+00
3.287990709198050e-01 2.820061319804299e-01 0.000000000000000e+00
3.346057291598944e-01 2.781699924106504e-01 0.000000000000000e+00
3.405492326577695e-01 2.744508176541423e-01 0.000000000000000e+00
3.467797642331972e-01 2.707860823791379e-01 0.000000000000000e+00
3.527446640613657e-01 2.674878343489914e-01 0.000000000000000e+00
3.590046060115916e-01 2.641968286559137e-01 0.000000000000000e+00
3.654690505544771e-01 2.610216729011468e-01 0.000000000000000e+00
3.715785644121093e-01 2.582456918775285e-01 0.000000000000000e+00
3.783089079357282e-01 2.552284108533959e-01 0.000000000000000e+00
3.847344211582799e-01 2.526641971890425e-01 0.000000000000000e+00
3.913298483144421e-01 2.501302584409215e-01 0.000000000000000e+00
3.982043985765330e-01 2.476820215231514e-01 0.000000000000000e+00
4.043680992825453e-01 2.458504812368924e-01 0.000000000000000e+00
4.116024954610621e-01 2.434790158678636e-01 0.000000000000000e+00
4.180420433713709e-01 2.418042538715016e-01 0.000000000000000e+00
4.251324970899187e-01 2.399338707628685e-01 0.000000000000000e+00
4.317240367016552e-01 2.385814063055061e-01 0.000000000000000e+00
4.387460486628381e-01 2.370739335616468e-01 0.000000000000000e+00
4.458883834045631e-01 2.357033335427874e-01 0.000000000000000e+00
4.526642009138549e-01 2.346702726707377e-01 0.000000000000000e+00
4.598763691666647e-01 2.336489914735189e-01 0.000000000000000e+00
4.667504167237604e-01 2.329143186245237e-01 0.000000000000000e+00
4.739433762248040e-01 2.322026722407445e-01 0.000000000000000e+00
4.808954183395496e-01 2.317329238057128e-01 0.000000000000000e+00
4.880357446599212e-01 2.313652201489315e-01 0.000000000000000e+00
4.950627671588524e-01 2.311798687426538e-01 0.000000000000000e+00
5.022022869515131e-01 2.311548683923206e-01 0.000000000000000e+00
5.092166593150961e-01 2.312576846054162e-01 0.000000000000000e+00
5.163739152525897e-01 2.315441211388292e-01 0.000000000000000e+00
5.233413187075766e-01 2.319232081390925e-01 0.000000000000000e+00
5.304879757935053e-01 2.325399519569965e-01 0.000000000000000e+00
5.375039652831619e-01 2.332648840712126e-01 0.000000000000000e+00
5.445818236824882e-01 2.341608173803514e-01 0.000000000000000e+00
5.516471408268233e-01 2.352098147390499e-01 0.000000000000000e+00
5.584119711133936e-01 2.363138470443981e-01 0.000000000000000e+00
5.657188898119948e-01 2.378616588814460e-01 0.000000000000000e+00
5.720915858050967e-01 2.390752476156299e-01 0.000000000000000e+00
5.792495966490437e-01 2.408598630642129e-01 0.000000000000000e+00
5.858754149790051e-01 2.425822848922638e-01 0.000000000000000e+00
5.928876171312863e-01 2.446776393546219e-01 0.000000000000000e+00
5.996528528177636e-01 2.468259373334552e-01 0.000000000000000e+00
6.060443971708597e-01 2.488658522797282e-01 0.000000000000000e+00
6.129853757290600e-01 2.515000257684589e-01 0.000000000000000e+00
6.191708035772466e-01 2.538453759970091e-01 0.000000000000000e+00
6.259523331783814e-01 2.567608968438381e-01 0.000000000000000e+00
6.323137257837611e-01 2.596220399693364e-01 0.000000000000000e+00
6.385660130706481e-01 2.625685647720331e-01 0.000000000000000e+00
6.450544758016231e-01 2.658837798181628e-01 0.000000000000000e+00
6.510403065907684e-01 2.691084977082224e-01 0.000000000000000e+00
6.571836870068539e-01 2.726114415457302e-01 0.000000000000000e+00
6.633113050963899e-01 2.763164562103655e-01 0.000000000000000e+00
6.690985076366622e-01 2.800523863475595e-01 0.000000000000000e+00
6.749824368442556e-01 2.840184034225569e-01 0.000000000000000e+00
6.807231055525648e-01 2.880643660964398e-01 0.000000000000000e+00
6.862745598308790e-01 2.922828768623411e-01 0.000000000000000e+00
6.917501419749036e-01 2.966333354862779e-01 0.000000000000000e+00
6.971651970431435e-01 3.011269772426327e-01 0.000000000000000e+00
7.024306214257444e-01 3.058034944903670e-01 0.000000000000000e+00
7.075548500566142e-01 3.105384625764666e-01 0.000000000000000e+00
7.125581277396635e-01 3.154515494681002e-01 0.000000000000000e+00
7.174051684656783e-01 3.204565004223011e-01 0.000000000000000e+00
7.221748486818490e-01 3.256545516157199e-01 0.000000000000000e+00
7.267818126526167e-01 3.309395454909214e-01 0.000000000000000e+00
7.311779610394239e-01 3.362998449530268e-01 0.000000000000000e+00
7.355116183007760e-01 3.418709546174593e-01 0.000000000000000e+00
7.397188478227650e-01 3.475309549702085e-01 0.000000000000000e+00
7.436597716735377e-01 3.532593949212833e-01 0.000000000000000e+00
7.475394976197177e-01 3.591620093904206e-01 0.000000000000000e+00
7.512974434147301e-01 3.651811368535331e-01 0.000000000000000e+00
7.547410495337229e-01 3.711632057452484e-01 0.000000000000000e+00
7.581647009401267e-01 3.774486004655349e-01 0.000000000000000e+00
7.613832083925943e-01 3.837249091730452e-01 0.000000000000000e+00
7.643763694172636e-01 3.899861473330758e-01 0.000000000000000e+00
7.673971401179137e-01 3.966446990515904e-01 0.000000000000000e+00
7.698438063960776e-01 4.028984272415990e-01 0.000000000000000e+00
7.724657171275288e-01 4.096351646380098e-01 0.000000000000000e+00
7.748420741722413e-01 4.163246044935301e-01 0.000000000000000e+00
7.769405025173234e-01 4.230110129435642e-01 0.000000000000000e+00
7.790655869977730e-01 4.300069940747595e-01 0.000000000000000e+00
7.806010679279582e-01 4.364838124362512e-01 0.000000000000000e+00
7.824662876897628e-01 4.437543418560819e-01 0.000000000000000e+00
7.836456282705732e-01 4.503260478015358e-01 0.000000000000000e+00
7.850118173385612e-01 4.575580169430513e-01 0.000000000000000e+00
7.859425402279041e-01 4.644112124915867e-01 0.000000000000000e+00
7.868756438542477e-01 4.715913692030824e-01 0.000000000000000e+00
7.875013557904439e-01 4.786047080914824e-01 0.000000000000000e+00
7.879949009069218e-01 4.857295487505092e-01 0.000000000000000e+00
7.882873285893308e-01 4.928725476394117e-01 0.000000000000000e+00

POINT_DATA   249
SCALARS fY_Lag double
LOOKUP_TABLE default

4.979370e-09 
1.552788e+00 
-1.817656e+00 
-1.115044e+01 
1.668240e+01 
-3.269540e+01 
3.787909e+01 
-6.602830e+01 
6.988282e+01 
-7.937020e+01 
5.192260e+01 
-3.095495e+01 
3.062753e-01 
4.730763e+00 
-4.830505e+01 
4.048218e+01 
-3.973072e+01 
1.510148e+00 
9.117211e-01 
-3.033399e+01 
3.705466e+00 
-1.165182e+01 
-1.741664e+01 
-6.839154e+00 
-8.891244e+00 
-2.108221e+01 
-7.526829e+00 
-8.693392e+00 
-1.931247e+01 
-9.184170e+00 
-1.781084e+01 
-5.847345e+00 
-1.828422e+01 
-1.431894e+01 
-1.319945e+01 
-1.725109e+01 
-7.991955e+00 
-2.301156e+01 
-3.089216e+00 
-2.021154e+01 
-2.782229e+01 
9.054485e+00 
-3.686987e+01 
-8.536685e+00 
5.432638e+00 
-5.702164e+01 
2.887937e+01 
-5.942451e+01 
1.083911e+01 
-5.294774e+00 
-3.729259e+01 
6.218442e+00 
-5.710570e+01 
3.342079e+01 
-4.438070e+01 
-5.504719e+00 
-1.530803e+01 
-1.710143e+01 
-1.082069e+01 
-2.376720e+01 
-9.266170e+00 
-1.836258e+01 
-1.278248e+01 
-1.603678e+01 
-1.823691e+01 
-1.020503e+01 
-2.419045e+01 
-2.304984e+00 
-2.866329e+01 
-1.179096e+00 
-3.375408e+01 
-1.368949e+01 
1.549925e+01 
-5.179525e+01 
1.956161e+01 
-6.967184e+01 
5.399364e+01 
-6.166714e+01 
-8.570541e+00 
-3.031500e+00 
-4.531318e+01 
2.412884e+01 
-3.991728e+01 
-1.158387e+01 
-7.204684e-01 
-3.665230e+01 
-5.444707e+00 
-1.169496e+01 
-1.576199e+01 
-1.441619e+01 
-1.543073e+01 
-1.330955e+01 
-1.625848e+01 
-1.232274e+01 
-1.026743e+01 
-1.323757e+01 
-1.546756e+01 
-1.685284e+01 
-3.328368e+00 
-1.557574e+01 
-1.648014e+01 
-6.912473e+00 
-1.043868e+01 
-1.962807e+01 
-1.931165e+00 
-6.545258e+00 
-2.767923e+01 
2.054597e+01 
-3.802601e+01 
-1.206937e+00 
1.622115e+01 
-5.316242e+01 
5.031543e+01 
-6.165381e+01 
4.765679e+01 
-4.409778e+01 
5.332052e-01 
1.474747e+01 
-3.863071e+01 
3.762814e+01 
-3.865383e+01 
2.973656e+01 
-2.656234e+01 
1.172301e+01 
-8.350451e+00 
8.350451e+00 
-1.172301e+01 
2.656234e+01 
-2.973656e+01 
3.865383e+01 
-3.762814e+01 
3.863071e+01 
-1.474747e+01 
-5.332052e-01 
4.409778e+01 
-4.765679e+01 
6.165381e+01 
-5.031543e+01 
5.316242e+01 
-1.622115e+01 
1.206937e+00 
3.802601e+01 
-2.054597e+01 
2.767923e+01 
6.545258e+00 
1.931165e+00 
1.962807e+01 
1.043868e+01 
6.912473e+00 
1.648014e+01 
1.557574e+01 
3.328368e+00 
1.685284e+01 
1.546756e+01 
1.323757e+01 
1.026743e+01 
1.232274e+01 
1.625848e+01 
1.330955e+01 
1.543073e+01 
1.441619e+01 
1.576199e+01 
1.169496e+01 
5.444707e+00 
3.665230e+01 
7.204684e-01 
1.158387e+01 
3.991728e+01 
-2.412884e+01 
4.531318e+01 
3.031500e+00 
8.570541e+00 
6.166714e+01 
-5.399364e+01 
6.967184e+01 
-1.956161e+01 
5.179525e+01 
-1.549925e+01 
1.368949e+01 
3.375408e+01 
1.179096e+00 
2.866329e+01 
2.304984e+00 
2.419045e+01 
1.020503e+01 
1.823691e+01 
1.603678e+01 
1.278248e+01 
1.836258e+01 
9.266170e+00 
2.376720e+01 
1.082069e+01 
1.710143e+01 
1.530803e+01 
5.504719e+00 
4.438070e+01 
-3.342079e+01 
5.710570e+01 
-6.218442e+00 
3.729259e+01 
5.294774e+00 
-1.083911e+01 
5.942451e+01 
-2.887937e+01 
5.702164e+01 
-5.432638e+00 
8.536685e+00 
3.686987e+01 
-9.054485e+00 
2.782229e+01 
2.021154e+01 
3.089216e+00 
2.301156e+01 
7.991955e+00 
1.725109e+01 
1.319945e+01 
1.431894e+01 
1.828422e+01 
5.847345e+00 
1.781084e+01 
9.184170e+00 
1.931247e+01 
8.693392e+00 
7.526829e+00 
2.108221e+01 
8.891244e+00 
6.839154e+00 
1.741664e+01 
1.165182e+01 
-3.705466e+00 
3.033399e+01 
-9.117211e-01 
-1.510148e+00 
3.973072e+01 
-4.048218e+01 
4.830505e+01 
-4.730763e+00 
-3.062753e-01 
3.095495e+01 
-5.192260e+01 
7.937020e+01 
-6.988282e+01 
6.602830e+01 
-3.787909e+01 
3.269540e+01 
-1.668240e+01 
1.115044e+01 
1.817656e+00 
-1.552788e+00 
