# vtk DataFile Version 2.0
Comment goes here
ASCII

DATASET STRUCTURED_POINTS
DIMENSIONS    32   32   1

ORIGIN    0.000   0.000   0.000
SPACING   0.03125 0.03125   1.000

POINT_DATA   1024
VECTORS u double

-0.000000 0.000000 0.000000 0.441671 0.000000 0.000000 0.898839 -0.000000 0.000000 1.393123 0.000000 0.000000 1.933593 -0.000000 0.000000 2.552149 -0.000000 0.000000 3.244730 -0.000000 0.000000 4.054264 0.000000 0.000000 4.947354 0.000000 0.000000 5.960193 0.000000 0.000000 6.975871 0.000000 0.000000 7.974834 0.000000 0.000000 8.588408 -0.000000 0.000000 8.528991 -0.000000 0.000000 7.372779 -0.000000 0.000000 3.826393 -0.000000 0.000000 0.000000 0.000000 0.000000 -3.826393 -0.000000 0.000000 -7.372779 -0.000000 0.000000 -8.528991 0.000000 0.000000 -8.588408 -0.000000 0.000000 -7.974834 0.000000 0.000000 -6.975871 0.000000 0.000000 -5.960193 0.000000 0.000000 -4.947354 0.000000 0.000000 -4.054264 0.000000 0.000000 -3.244730 0.000000 0.000000 -2.552149 0.000000 0.000000 -1.933593 0.000000 0.000000 -1.393123 0.000000 0.000000 -0.898839 0.000000 0.000000 -0.441671 0.000000 0.000000 
0.000000 -0.441671 0.000000 0.442589 -0.449420 0.000000 0.905773 -0.475726 0.000000 1.397703 -0.517377 0.000000 1.952877 -0.579513 0.000000 2.568166 -0.655569 0.000000 3.291905 -0.751057 0.000000 4.103547 -0.851312 0.000000 5.057590 -0.952965 0.000000 6.088854 -1.014259 0.000000 7.193255 -1.007320 0.000000 8.186953 -0.806269 0.000000 8.697530 -0.277078 0.000000 7.843034 0.607815 0.000000 5.387148 2.351299 0.000000 3.165672 3.686389 0.000000 -0.000000 3.826393 0.000000 -3.165672 3.686389 0.000000 -5.387148 2.351299 0.000000 -7.843034 0.607815 0.000000 -8.697530 -0.277078 0.000000 -8.186953 -0.806269 0.000000 -7.193255 -1.007320 0.000000 -6.088854 -1.014259 0.000000 -5.057590 -0.952965 0.000000 -4.103547 -0.851312 0.000000 -3.291905 -0.751057 0.000000 -2.568166 -0.655569 0.000000 -1.952877 -0.579513 0.000000 -1.397703 -0.517377 0.000000 -0.905773 -0.475726 0.000000 -0.442589 -0.449420 0.000000 
-0.000000 -0.885177 0.000000 0.407602 -0.905773 0.000000 0.830850 -0.955115 0.000000 1.289295 -1.047104 0.000000 1.795339 -1.170463 0.000000 2.380551 -1.339028 0.000000 3.048968 -1.535381 0.000000 3.852538 -1.765685 0.000000 4.784887 -1.985308 0.000000 5.907388 -2.135664 0.000000 7.186743 -2.098098 0.000000 8.717656 -1.504275 0.000000 9.994203 0.343919 0.000000 11.042973 3.310382 0.000000 11.022469 4.677362 0.000000 6.874864 5.387148 0.000000 -0.000000 6.331344 0.000000 -6.874864 5.387148 0.000000 -11.022469 4.677362 0.000000 -11.042973 3.310382 0.000000 -9.994203 0.343919 0.000000 -8.717656 -1.504275 0.000000 -7.186743 -2.098098 0.000000 -5.907388 -2.135664 0.000000 -4.784887 -1.985308 0.000000 -3.852538 -1.765685 0.000000 -3.048968 -1.535381 0.000000 -2.380551 -1.339028 0.000000 -1.795339 -1.170463 0.000000 -1.289295 -1.047104 0.000000 -0.830850 -0.955115 0.000000 -0.407602 -0.905773 0.000000 
-0.000000 -1.256874 0.000000 0.372680 -1.280270 0.000000 0.764500 -1.357419 0.000000 1.182459 -1.481866 0.000000 1.661098 -1.670769 0.000000 2.203478 -1.909197 0.000000 2.865465 -2.223045 0.000000 3.653877 -2.587230 0.000000 4.686727 -3.007814 0.000000 5.972878 -3.416115 0.000000 7.810571 -3.817588 0.000000 10.493606 -3.613729 0.000000 13.256062 -2.602396 0.000000 13.169856 -0.420451 0.000000 7.847652 6.519408 0.000000 1.257159 14.708858 0.000000 0.000000 17.576121 0.000000 -1.257159 14.708858 0.000000 -7.847652 6.519408 0.000000 -13.169856 -0.420451 0.000000 -13.256062 -2.602396 0.000000 -10.493606 -3.613729 0.000000 -7.810571 -3.817588 0.000000 -5.972878 -3.416115 0.000000 -4.686727 -3.007814 0.000000 -3.653877 -2.587230 0.000000 -2.865465 -2.223045 0.000000 -2.203478 -1.909197 0.000000 -1.661098 -1.670769 0.000000 -1.182459 -1.481866 0.000000 -0.764500 -1.357419 0.000000 -0.372680 -1.280270 0.000000 
-0.000000 -1.630537 0.000000 0.307026 -1.670273 0.000000 0.629167 -1.764894 0.000000 0.975826 -1.943702 0.000000 1.367795 -2.191482 0.000000 1.827949 -2.543395 0.000000 2.370583 -2.985780 0.000000 3.067329 -3.586947 0.000000 3.954830 -4.304309 0.000000 5.109276 -5.259509 0.000000 7.044787 -6.618826 0.000000 8.929892 -6.949767 0.000000 5.928594 -2.332332 0.000000 -4.789097 8.718792 0.000000 -14.018454 16.590059 0.000000 -10.333858 13.234800 0.000000 0.000000 8.845663 0.000000 10.333858 13.234800 0.000000 14.018454 16.590059 0.000000 4.789097 8.718792 0.000000 -5.928594 -2.332332 0.000000 -8.929892 -6.949767 0.000000 -7.044787 -6.618826 0.000000 -5.109276 -5.259509 0.000000 -3.954830 -4.304309 0.000000 -3.067329 -3.586947 0.000000 -2.370583 -2.985780 0.000000 -1.827949 -2.543395 0.000000 -1.367795 -2.191482 0.000000 -0.975826 -1.943702 0.000000 -0.629167 -1.764894 0.000000 -0.307026 -1.670273 0.000000 
0.000000 -1.870927 0.000000 0.238358 -1.909436 0.000000 0.491143 -2.026219 0.000000 0.756006 -2.220495 0.000000 1.061594 -2.522892 0.000000 1.409468 -2.911986 0.000000 1.822378 -3.462425 0.000000 2.335829 -4.171476 0.000000 3.011775 -5.049761 0.000000 3.718416 -6.506073 0.000000 5.426139 -7.638204 0.000000 2.403117 -2.497535 0.000000 -8.194175 11.116593 0.000000 -17.273490 19.526596 0.000000 -12.874518 12.064169 0.000000 -3.823662 0.690404 0.000000 -0.000000 -3.091595 0.000000 3.823662 0.690404 0.000000 12.874518 12.064169 0.000000 17.273490 19.526596 0.000000 8.194175 11.116593 0.000000 -2.403117 -2.497535 0.000000 -5.426139 -7.638204 0.000000 -3.718416 -6.506073 0.000000 -3.011775 -5.049761 0.000000 -2.335829 -4.171476 0.000000 -1.822378 -3.462425 0.000000 -1.409468 -2.911986 0.000000 -1.061594 -2.522892 0.000000 -0.756006 -2.220495 0.000000 -0.491143 -2.026219 0.000000 -0.238358 -1.909436 0.000000 
0.000000 -2.107252 0.000000 0.151718 -2.161416 0.000000 0.318021 -2.282543 0.000000 0.479102 -2.514153 0.000000 0.676109 -2.844943 0.000000 0.888107 -3.304179 0.000000 1.111580 -3.912141 0.000000 1.476276 -4.776344 0.000000 1.636878 -5.686895 0.000000 2.450864 -7.673873 0.000000 1.819293 -5.303528 0.000000 -5.816935 6.670548 0.000000 -14.525948 17.344276 0.000000 -11.067375 13.399135 0.000000 -1.453818 3.140231 0.000000 1.006631 0.360283 0.000000 -0.000000 1.198339 0.000000 -1.006631 0.360283 0.000000 1.453818 3.140231 0.000000 11.067375 13.399135 0.000000 14.525948 17.344276 0.000000 5.816935 6.670548 0.000000 -1.819293 -5.303528 0.000000 -2.450864 -7.673873 0.000000 -1.636878 -5.686895 0.000000 -1.476276 -4.776344 0.000000 -1.111580 -3.912141 0.000000 -0.888107 -3.304179 0.000000 -0.676109 -2.844943 0.000000 -0.479102 -2.514153 0.000000 -0.318021 -2.282543 0.000000 -0.151718 -2.161416 0.000000 
0.000000 -2.174363 0.000000 0.063087 -2.227457 0.000000 0.138424 -2.353603 0.000000 0.193695 -2.578583 0.000000 0.271589 -2.931897 0.000000 0.342453 -3.347457 0.000000 0.350345 -4.050595 0.000000 0.559693 -4.696774 0.000000 0.125566 -6.024349 0.000000 1.077159 -6.688488 0.000000 -3.111032 0.629595 0.000000 -10.493980 13.847706 0.000000 -12.197755 16.367034 0.000000 -4.810288 6.454466 0.000000 -0.400848 -0.009838 0.000000 -0.728970 -0.763413 0.000000 -0.000000 -1.078333 0.000000 0.728970 -0.763413 0.000000 0.400848 -0.009838 0.000000 4.810288 6.454466 0.000000 12.197755 16.367034 0.000000 10.493980 13.847706 0.000000 3.111032 0.629595 0.000000 -1.077159 -6.688488 0.000000 -0.125566 -6.024349 0.000000 -0.559693 -4.696774 0.000000 -0.350345 -4.050595 0.000000 -0.342453 -3.347457 0.000000 -0.271589 -2.931897 0.000000 -0.193695 -2.578583 0.000000 -0.138424 -2.353603 0.000000 -0.063087 -2.227457 0.000000 
0.000000 -2.233425 0.000000 -0.027506 -2.299840 0.000000 -0.033148 -2.413151 0.000000 -0.099028 -2.647318 0.000000 -0.093019 -2.993701 0.000000 -0.229273 -3.382934 0.000000 -0.239090 -4.129381 0.000000 -0.488534 -4.551566 0.000000 -0.660607 -6.204361 0.000000 -1.119189 -4.437275 0.000000 -5.876036 6.267611 0.000000 -10.606970 15.757271 0.000000 -6.621760 11.660584 0.000000 -0.706851 1.602228 0.000000 0.127681 -0.941088 0.000000 0.135932 -0.040566 0.000000 -0.000000 -0.259600 0.000000 -0.135932 -0.040566 0.000000 -0.127681 -0.941088 0.000000 0.706851 1.602228 0.000000 6.621760 11.660584 0.000000 10.606970 15.757271 0.000000 5.876036 6.267611 0.000000 1.119189 -4.437275 0.000000 0.660607 -6.204361 0.000000 0.488534 -4.551566 0.000000 0.239090 -4.129381 0.000000 0.229273 -3.382934 0.000000 0.093019 -2.993701 0.000000 0.099028 -2.647318 0.000000 0.033148 -2.413151 0.000000 0.027506 -2.299840 0.000000 
0.000000 -2.119352 0.000000 -0.116644 -2.194310 0.000000 -0.209075 -2.282081 0.000000 -0.386925 -2.518711 0.000000 -0.464024 -2.801651 0.000000 -0.793695 -3.201386 0.000000 -0.817635 -3.791334 0.000000 -1.547726 -4.275257 0.000000 -1.307271 -5.393694 0.000000 -3.507692 -1.473059 0.000000 -7.010066 10.117377 0.000000 -8.363727 14.593430 0.000000 -3.056102 6.466914 0.000000 0.477648 -0.294975 0.000000 -0.497403 -0.852620 0.000000 -0.036415 -0.635732 0.000000 0.000000 -0.806469 0.000000 0.036415 -0.635732 0.000000 0.497403 -0.852620 0.000000 -0.477648 -0.294975 0.000000 3.056102 6.466914 0.000000 8.363727 14.593430 0.000000 7.010066 10.117377 0.000000 3.507692 -1.473059 0.000000 1.307271 -5.393694 0.000000 1.547726 -4.275257 0.000000 0.817635 -3.791334 0.000000 0.793695 -3.201386 0.000000 0.464024 -2.801651 0.000000 0.386925 -2.518711 0.000000 0.209075 -2.282081 0.000000 0.116644 -2.194310 0.000000 
0.000000 -2.000137 0.000000 -0.190206 -2.090765 0.000000 -0.357475 -2.142871 0.000000 -0.618637 -2.392369 0.000000 -0.775178 -2.586931 0.000000 -1.220484 -3.029323 0.000000 -1.312429 -3.375350 0.000000 -2.249358 -4.061930 0.000000 -1.984585 -4.244395 0.000000 -4.703098 1.265521 0.000000 -6.842878 11.123647 0.000000 -4.939921 11.803308 0.000000 -0.949703 2.819209 0.000000 0.685354 -0.956472 0.000000 -0.126309 -0.427025 0.000000 0.183621 -0.537969 0.000000 0.000000 -0.332431 0.000000 -0.183621 -0.537969 0.000000 0.126309 -0.427025 0.000000 -0.685354 -0.956472 0.000000 0.949703 2.819209 0.000000 4.939921 11.803308 0.000000 6.842878 11.123647 0.000000 4.703098 1.265521 0.000000 1.984585 -4.244395 0.000000 2.249358 -4.061930 0.000000 1.312429 -3.375350 0.000000 1.220484 -3.029323 0.000000 0.775178 -2.586931 0.000000 0.618637 -2.392369 0.000000 0.357475 -2.142871 0.000000 0.190206 -2.090765 0.000000 
0.000000 -1.738940 0.000000 -0.259345 -1.836834 0.000000 -0.510760 -1.853650 0.000000 -0.830891 -2.101008 0.000000 -1.100949 -2.199805 0.000000 -1.582203 -2.664135 0.000000 -1.854716 -2.762460 0.000000 -2.720945 -3.603102 0.000000 -2.859286 -2.939954 0.000000 -4.982518 3.385234 0.000000 -5.891561 10.354200 0.000000 -2.451826 8.700255 0.000000 0.016141 0.841639 0.000000 0.270256 -1.118369 0.000000 -0.046653 -0.350887 0.000000 0.055298 -0.762042 0.000000 0.000000 -0.439227 0.000000 -0.055298 -0.762042 0.000000 0.046653 -0.350887 0.000000 -0.270256 -1.118369 0.000000 -0.016141 0.841639 0.000000 2.451826 8.700255 0.000000 5.891561 10.354200 0.000000 4.982518 3.385234 0.000000 2.859286 -2.939954 0.000000 2.720945 -3.603102 0.000000 1.854716 -2.762460 0.000000 1.582203 -2.664135 0.000000 1.100949 -2.199805 0.000000 0.830891 -2.101008 0.000000 0.510760 -1.853650 0.000000 0.259345 -1.836834 0.000000 
0.000000 -1.481448 0.000000 -0.304778 -1.580005 0.000000 -0.621781 -1.571324 0.000000 -0.964179 -1.802180 0.000000 -1.338696 -1.835619 0.000000 -1.780883 -2.275556 0.000000 -2.263961 -2.236607 0.000000 -2.876748 -3.057360 0.000000 -3.587922 -1.982822 0.000000 -4.640092 4.297795 0.000000 -4.335644 8.592954 0.000000 -0.822404 5.895605 0.000000 0.717746 0.097127 0.000000 0.208328 -0.893678 0.000000 0.236721 -0.212067 0.000000 0.094459 -0.584622 0.000000 0.000000 -0.221836 0.000000 -0.094459 -0.584622 0.000000 -0.236721 -0.212067 0.000000 -0.208328 -0.893678 0.000000 -0.717746 0.097127 0.000000 0.822404 5.895605 0.000000 4.335644 8.592954 0.000000 4.640092 4.297795 0.000000 3.587922 -1.982822 0.000000 2.876748 -3.057360 0.000000 2.263961 -2.236607 0.000000 1.780883 -2.275556 0.000000 1.338696 -1.835619 0.000000 0.964179 -1.802180 0.000000 0.621781 -1.571324 0.000000 0.304778 -1.580005 0.000000 
-0.000000 -1.129384 0.000000 -0.349106 -1.215053 0.000000 -0.733279 -1.194249 0.000000 -1.094601 -1.384093 0.000000 -1.575581 -1.383101 0.000000 -1.981208 -1.738870 0.000000 -2.661254 -1.666594 0.000000 -3.083421 -2.279141 0.000000 -4.227645 -1.176610 0.000000 -4.446442 4.132956 0.000000 -3.067937 6.536511 0.000000 -0.211436 3.646866 0.000000 0.796802 -0.189093 0.000000 0.107157 -0.637344 0.000000 0.267939 -0.237019 0.000000 0.045531 -0.525320 0.000000 -0.000000 -0.250308 0.000000 -0.045531 -0.525320 0.000000 -0.267939 -0.237019 0.000000 -0.107157 -0.637344 0.000000 -0.796802 -0.189093 0.000000 0.211436 3.646866 0.000000 3.067937 6.536511 0.000000 4.446442 4.132956 0.000000 4.227645 -1.176610 0.000000 3.083421 -2.279141 0.000000 2.661254 -1.666594 0.000000 1.981208 -1.738870 0.000000 1.575581 -1.383101 0.000000 1.094601 -1.384093 0.000000 0.733279 -1.194249 0.000000 0.349106 -1.215053 0.000000 
0.000000 -0.783237 0.000000 -0.369491 -0.846726 0.000000 -0.791155 -0.825828 0.000000 -1.152369 -0.959879 0.000000 -1.694855 -0.949013 0.000000 -2.063116 -1.189883 0.000000 -2.840096 -1.134394 0.000000 -3.162669 -1.490969 0.000000 -4.390115 -0.619801 0.000000 -4.074371 3.138087 0.000000 -1.909511 4.357949 0.000000 0.289046 2.030867 0.000000 0.819145 -0.221466 0.000000 0.225546 -0.364815 0.000000 0.351527 -0.150440 0.000000 0.081532 -0.316683 0.000000 -0.000000 -0.130774 0.000000 -0.081532 -0.316683 0.000000 -0.351527 -0.150440 0.000000 -0.225546 -0.364815 0.000000 -0.819145 -0.221466 0.000000 -0.289046 2.030867 0.000000 1.909511 4.357949 0.000000 4.074371 3.138087 0.000000 4.390115 -0.619801 0.000000 3.162669 -1.490969 0.000000 2.840096 -1.134394 0.000000 2.063116 -1.189883 0.000000 1.694855 -0.949013 0.000000 1.152369 -0.959879 0.000000 0.791155 -0.825828 0.000000 0.369491 -0.846726 0.000000 
-0.000000 -0.390403 0.000000 -0.391618 -0.423898 0.000000 -0.846726 -0.411370 0.000000 -1.217447 -0.480393 0.000000 -1.806605 -0.472355 0.000000 -2.166460 -0.593630 0.000000 -2.996487 -0.567041 0.000000 -3.300854 -0.729121 0.000000 -4.487456 -0.264907 0.000000 -3.920655 1.652352 0.000000 -1.349369 2.173094 0.000000 0.437294 0.918210 0.000000 0.681498 -0.125594 0.000000 0.215827 -0.169727 0.000000 0.316683 -0.093004 0.000000 0.065387 -0.173793 0.000000 -0.000000 -0.087245 0.000000 -0.065387 -0.173793 0.000000 -0.316683 -0.093004 0.000000 -0.215827 -0.169727 0.000000 -0.681498 -0.125594 0.000000 -0.437294 0.918210 0.000000 1.349369 2.173094 0.000000 3.920655 1.652352 0.000000 4.487456 -0.264907 0.000000 3.300854 -0.729121 0.000000 2.996487 -0.567041 0.000000 2.166460 -0.593630 0.000000 1.806605 -0.472355 0.000000 1.217447 -0.480393 0.000000 0.846726 -0.411370 0.000000 0.391618 -0.423898 0.000000 
0.000000 0.000000 0.000000 -0.390403 -0.000000 0.000000 -0.847797 -0.000000 0.000000 -1.213143 -0.000000 0.000000 -1.808582 -0.000000 0.000000 -2.157852 -0.000000 0.000000 -2.995842 -0.000000 0.000000 -3.291934 -0.000000 0.000000 -4.454085 -0.000000 0.000000 -3.821749 0.000000 0.000000 -1.149381 0.000000 0.000000 0.524440 -0.000000 0.000000 0.687039 -0.000000 0.000000 0.273252 -0.000000 0.000000 0.347586 -0.000000 0.000000 0.087245 -0.000000 0.000000 -0.000000 -0.000000 0.000000 -0.087245 0.000000 0.000000 -0.347586 0.000000 0.000000 -0.273252 0.000000 0.000000 -0.687039 0.000000 0.000000 -0.524440 0.000000 0.000000 1.149381 -0.000000 0.000000 3.821749 -0.000000 0.000000 4.454085 0.000000 0.000000 3.291934 0.000000 0.000000 2.995842 0.000000 0.000000 2.157852 0.000000 0.000000 1.808582 0.000000 0.000000 1.213143 0.000000 0.000000 0.847797 0.000000 0.000000 0.390403 0.000000 0.000000 
-0.000000 0.390403 0.000000 -0.391618 0.423898 0.000000 -0.846726 0.411370 0.000000 -1.217447 0.480393 0.000000 -1.806605 0.472355 0.000000 -2.166460 0.593630 0.000000 -2.996487 0.567041 0.000000 -3.300854 0.729121 0.000000 -4.487456 0.264907 0.000000 -3.920655 -1.652352 0.000000 -1.349369 -2.173094 0.000000 0.437294 -0.918210 0.000000 0.681498 0.125594 0.000000 0.215827 0.169727 0.000000 0.316683 0.093004 0.000000 0.065387 0.173793 0.000000 -0.000000 0.087245 0.000000 -0.065387 0.173793 0.000000 -0.316683 0.093004 0.000000 -0.215827 0.169727 0.000000 -0.681498 0.125594 0.000000 -0.437294 -0.918210 0.000000 1.349369 -2.173094 0.000000 3.920655 -1.652352 0.000000 4.487456 0.264907 0.000000 3.300854 0.729121 0.000000 2.996487 0.567041 0.000000 2.166460 0.593630 0.000000 1.806605 0.472355 0.000000 1.217447 0.480393 0.000000 0.846726 0.411370 0.000000 0.391618 0.423898 0.000000 
0.000000 0.783237 0.000000 -0.369491 0.846726 0.000000 -0.791155 0.825828 0.000000 -1.152369 0.959879 0.000000 -1.694855 0.949013 0.000000 -2.063116 1.189883 0.000000 -2.840096 1.134394 0.000000 -3.162669 1.490969 0.000000 -4.390115 0.619801 0.000000 -4.074371 -3.138087 0.000000 -1.909511 -4.357949 0.000000 0.289046 -2.030867 0.000000 0.819145 0.221466 0.000000 0.225546 0.364815 0.000000 0.351527 0.150440 0.000000 0.081532 0.316683 0.000000 0.000000 0.130774 0.000000 -0.081532 0.316683 0.000000 -0.351527 0.150440 0.000000 -0.225546 0.364815 0.000000 -0.819145 0.221466 0.000000 -0.289046 -2.030867 0.000000 1.909511 -4.357949 0.000000 4.074371 -3.138087 0.000000 4.390115 0.619801 0.000000 3.162669 1.490969 0.000000 2.840096 1.134394 0.000000 2.063116 1.189883 0.000000 1.694855 0.949013 0.000000 1.152369 0.959879 0.000000 0.791155 0.825828 0.000000 0.369491 0.846726 0.000000 
0.000000 1.129384 0.000000 -0.349106 1.215053 0.000000 -0.733279 1.194249 0.000000 -1.094601 1.384093 0.000000 -1.575581 1.383101 0.000000 -1.981208 1.738870 0.000000 -2.661254 1.666594 0.000000 -3.083421 2.279141 0.000000 -4.227645 1.176610 0.000000 -4.446442 -4.132956 0.000000 -3.067937 -6.536511 0.000000 -0.211436 -3.646866 0.000000 0.796802 0.189093 0.000000 0.107157 0.637344 0.000000 0.267939 0.237019 0.000000 0.045531 0.525320 0.000000 -0.000000 0.250308 0.000000 -0.045531 0.525320 0.000000 -0.267939 0.237019 0.000000 -0.107157 0.637344 0.000000 -0.796802 0.189093 0.000000 0.211436 -3.646866 0.000000 3.067937 -6.536511 0.000000 4.446442 -4.132956 0.000000 4.227645 1.176610 0.000000 3.083421 2.279141 0.000000 2.661254 1.666594 0.000000 1.981208 1.738870 0.000000 1.575581 1.383101 0.000000 1.094601 1.384093 0.000000 0.733279 1.194249 0.000000 0.349106 1.215053 0.000000 
0.000000 1.481448 0.000000 -0.304778 1.580005 0.000000 -0.621781 1.571324 0.000000 -0.964179 1.802180 0.000000 -1.338696 1.835619 0.000000 -1.780883 2.275556 0.000000 -2.263961 2.236607 0.000000 -2.876748 3.057360 0.000000 -3.587922 1.982822 0.000000 -4.640092 -4.297795 0.000000 -4.335644 -8.592954 0.000000 -0.822404 -5.895605 0.000000 0.717746 -0.097127 0.000000 0.208328 0.893678 0.000000 0.236721 0.212067 0.000000 0.094459 0.584622 0.000000 0.000000 0.221836 0.000000 -0.094459 0.584622 0.000000 -0.236721 0.212067 0.000000 -0.208328 0.893678 0.000000 -0.717746 -0.097127 0.000000 0.822404 -5.895605 0.000000 4.335644 -8.592954 0.000000 4.640092 -4.297795 0.000000 3.587922 1.982822 0.000000 2.876748 3.057360 0.000000 2.263961 2.236607 0.000000 1.780883 2.275556 0.000000 1.338696 1.835619 0.000000 0.964179 1.802180 0.000000 0.621781 1.571324 0.000000 0.304778 1.580005 0.000000 
0.000000 1.738940 0.000000 -0.259345 1.836834 0.000000 -0.510760 1.853650 0.000000 -0.830891 2.101008 0.000000 -1.100949 2.199805 0.000000 -1.582203 2.664135 0.000000 -1.854716 2.762460 0.000000 -2.720945 3.603102 0.000000 -2.859286 2.939954 0.000000 -4.982518 -3.385234 0.000000 -5.891561 -10.354200 0.000000 -2.451826 -8.700255 0.000000 0.016141 -0.841639 0.000000 0.270256 1.118369 0.000000 -0.046653 0.350887 0.000000 0.055298 0.762042 0.000000 0.000000 0.439227 0.000000 -0.055298 0.762042 0.000000 0.046653 0.350887 0.000000 -0.270256 1.118369 0.000000 -0.016141 -0.841639 0.000000 2.451826 -8.700255 0.000000 5.891561 -10.354200 0.000000 4.982518 -3.385234 0.000000 2.859286 2.939954 0.000000 2.720945 3.603102 0.000000 1.854716 2.762460 0.000000 1.582203 2.664135 0.000000 1.100949 2.199805 0.000000 0.830891 2.101008 0.000000 0.510760 1.853650 0.000000 0.259345 1.836834 0.000000 
0.000000 2.000137 0.000000 -0.190206 2.090765 0.000000 -0.357475 2.142871 0.000000 -0.618637 2.392369 0.000000 -0.775178 2.586931 0.000000 -1.220484 3.029323 0.000000 -1.312429 3.375350 0.000000 -2.249358 4.061930 0.000000 -1.984585 4.244395 0.000000 -4.703098 -1.265521 0.000000 -6.842878 -11.123647 0.000000 -4.939921 -11.803308 0.000000 -0.949703 -2.819209 0.000000 0.685354 0.956472 0.000000 -0.126309 0.427025 0.000000 0.183621 0.537969 0.000000 0.000000 0.332431 0.000000 -0.183621 0.537969 0.000000 0.126309 0.427025 0.000000 -0.685354 0.956472 0.000000 0.949703 -2.819209 0.000000 4.939921 -11.803308 0.000000 6.842878 -11.123647 0.000000 4.703098 -1.265521 0.000000 1.984585 4.244395 0.000000 2.249358 4.061930 0.000000 1.312429 3.375350 0.000000 1.220484 3.029323 0.000000 0.775178 2.586931 0.000000 0.618637 2.392369 0.000000 0.357475 2.142871 0.000000 0.190206 2.090765 0.000000 
0.000000 2.119352 0.000000 -0.116644 2.194310 0.000000 -0.209075 2.282081 0.000000 -0.386925 2.518711 0.000000 -0.464024 2.801651 0.000000 -0.793695 3.201386 0.000000 -0.817635 3.791334 0.000000 -1.547726 4.275257 0.000000 -1.307271 5.393694 0.000000 -3.507692 1.473059 0.000000 -7.010066 -10.117377 0.000000 -8.363727 -14.593430 0.000000 -3.056102 -6.466914 0.000000 0.477648 0.294975 0.000000 -0.497403 0.852620 0.000000 -0.036415 0.635732 0.000000 0.000000 0.806469 0.000000 0.036415 0.635732 0.000000 0.497403 0.852620 0.000000 -0.477648 0.294975 0.000000 3.056102 -6.466914 0.000000 8.363727 -14.593430 0.000000 7.010066 -10.117377 0.000000 3.507692 1.473059 0.000000 1.307271 5.393694 0.000000 1.547726 4.275257 0.000000 0.817635 3.791334 0.000000 0.793695 3.201386 0.000000 0.464024 2.801651 0.000000 0.386925 2.518711 0.000000 0.209075 2.282081 0.000000 0.116644 2.194310 0.000000 
0.000000 2.233425 0.000000 -0.027506 2.299840 0.000000 -0.033148 2.413151 0.000000 -0.099028 2.647318 0.000000 -0.093019 2.993701 0.000000 -0.229273 3.382934 0.000000 -0.239090 4.129381 0.000000 -0.488534 4.551566 0.000000 -0.660607 6.204361 0.000000 -1.119189 4.437275 0.000000 -5.876036 -6.267611 0.000000 -10.606970 -15.757271 0.000000 -6.621760 -11.660584 0.000000 -0.706851 -1.602228 0.000000 0.127681 0.941088 0.000000 0.135932 0.040566 0.000000 0.000000 0.259600 0.000000 -0.135932 0.040566 0.000000 -0.127681 0.941088 0.000000 0.706851 -1.602228 0.000000 6.621760 -11.660584 0.000000 10.606970 -15.757271 0.000000 5.876036 -6.267611 0.000000 1.119189 4.437275 0.000000 0.660607 6.204361 0.000000 0.488534 4.551566 0.000000 0.239090 4.129381 0.000000 0.229273 3.382934 0.000000 0.093019 2.993701 0.000000 0.099028 2.647318 0.000000 0.033148 2.413151 0.000000 0.027506 2.299840 0.000000 
-0.000000 2.174363 0.000000 0.063087 2.227457 0.000000 0.138424 2.353603 0.000000 0.193695 2.578583 0.000000 0.271589 2.931897 0.000000 0.342453 3.347457 0.000000 0.350345 4.050595 0.000000 0.559693 4.696774 0.000000 0.125566 6.024349 0.000000 1.077159 6.688488 0.000000 -3.111032 -0.629595 0.000000 -10.493980 -13.847706 0.000000 -12.197755 -16.367034 0.000000 -4.810288 -6.454466 0.000000 -0.400848 0.009838 0.000000 -0.728970 0.763413 0.000000 -0.000000 1.078333 0.000000 0.728970 0.763413 0.000000 0.400848 0.009838 0.000000 4.810288 -6.454466 0.000000 12.197755 -16.367034 0.000000 10.493980 -13.847706 0.000000 3.111032 -0.629595 0.000000 -1.077159 6.688488 0.000000 -0.125566 6.024349 0.000000 -0.559693 4.696774 0.000000 -0.350345 4.050595 0.000000 -0.342453 3.347457 0.000000 -0.271589 2.931897 0.000000 -0.193695 2.578583 0.000000 -0.138424 2.353603 0.000000 -0.063087 2.227457 0.000000 
-0.000000 2.107252 0.000000 0.151718 2.161416 0.000000 0.318021 2.282543 0.000000 0.479102 2.514153 0.000000 0.676109 2.844943 0.000000 0.888107 3.304179 0.000000 1.111580 3.912141 0.000000 1.476276 4.776344 0.000000 1.636878 5.686895 0.000000 2.450864 7.673873 0.000000 1.819293 5.303528 0.000000 -5.816935 -6.670548 0.000000 -14.525948 -17.344276 0.000000 -11.067375 -13.399135 0.000000 -1.453818 -3.140231 0.000000 1.006631 -0.360283 0.000000 -0.000000 -1.198339 0.000000 -1.006631 -0.360283 0.000000 1.453818 -3.140231 0.000000 11.067375 -13.399135 0.000000 14.525948 -17.344276 0.000000 5.816935 -6.670548 0.000000 -1.819293 5.303528 0.000000 -2.450864 7.673873 0.000000 -1.636878 5.686895 0.000000 -1.476276 4.776344 0.000000 -1.111580 3.912141 0.000000 -0.888107 3.304179 0.000000 -0.676109 2.844943 0.000000 -0.479102 2.514153 0.000000 -0.318021 2.282543 0.000000 -0.151718 2.161416 0.000000 
0.000000 1.870927 0.000000 0.238358 1.909436 0.000000 0.491143 2.026219 0.000000 0.756006 2.220495 0.000000 1.061594 2.522892 0.000000 1.409468 2.911986 0.000000 1.822378 3.462425 0.000000 2.335829 4.171476 0.000000 3.011775 5.049761 0.000000 3.718416 6.506073 0.000000 5.426139 7.638204 0.000000 2.403117 2.497535 0.000000 -8.194175 -11.116593 0.000000 -17.273490 -19.526596 0.000000 -12.874518 -12.064169 0.000000 -3.823662 -0.690404 0.000000 -0.000000 3.091595 0.000000 3.823662 -0.690404 0.000000 12.874518 -12.064169 0.000000 17.273490 -19.526596 0.000000 8.194175 -11.116593 0.000000 -2.403117 2.497535 0.000000 -5.426139 7.638204 0.000000 -3.718416 6.506073 0.000000 -3.011775 5.049761 0.000000 -2.335829 4.171476 0.000000 -1.822378 3.462425 0.000000 -1.409468 2.911986 0.000000 -1.061594 2.522892 0.000000 -0.756006 2.220495 0.000000 -0.491143 2.026219 0.000000 -0.238358 1.909436 0.000000 
-0.000000 1.630537 0.000000 0.307026 1.670273 0.000000 0.629167 1.764894 0.000000 0.975826 1.943702 0.000000 1.367795 2.191482 0.000000 1.827949 2.543395 0.000000 2.370583 2.985780 0.000000 3.067329 3.586947 0.000000 3.954830 4.304309 0.000000 5.109276 5.259509 0.000000 7.044787 6.618826 0.000000 8.929892 6.949767 0.000000 5.928594 2.332332 0.000000 -4.789097 -8.718792 0.000000 -14.018454 -16.590059 0.000000 -10.333858 -13.234800 0.000000 0.000000 -8.845663 0.000000 10.333858 -13.234800 0.000000 14.018454 -16.590059 0.000000 4.789097 -8.718792 0.000000 -5.928594 2.332332 0.000000 -8.929892 6.949767 0.000000 -7.044787 6.618826 0.000000 -5.109276 5.259509 0.000000 -3.954830 4.304309 0.000000 -3.067329 3.586947 0.000000 -2.370583 2.985780 0.000000 -1.827949 2.543395 0.000000 -1.367795 2.191482 0.000000 -0.975826 1.943702 0.000000 -0.629167 1.764894 0.000000 -0.307026 1.670273 0.000000 
0.000000 1.256874 0.000000 0.372680 1.280270 0.000000 0.764500 1.357419 0.000000 1.182459 1.481866 0.000000 1.661098 1.670769 0.000000 2.203478 1.909197 0.000000 2.865465 2.223045 0.000000 3.653877 2.587230 0.000000 4.686727 3.007814 0.000000 5.972878 3.416115 0.000000 7.810571 3.817588 0.000000 10.493606 3.613729 0.000000 13.256062 2.602396 0.000000 13.169856 0.420451 0.000000 7.847652 -6.519408 0.000000 1.257159 -14.708858 0.000000 0.000000 -17.576121 0.000000 -1.257159 -14.708858 0.000000 -7.847652 -6.519408 0.000000 -13.169856 0.420451 0.000000 -13.256062 2.602396 0.000000 -10.493606 3.613729 0.000000 -7.810571 3.817588 0.000000 -5.972878 3.416115 0.000000 -4.686727 3.007814 0.000000 -3.653877 2.587230 0.000000 -2.865465 2.223045 0.000000 -2.203478 1.909197 0.000000 -1.661098 1.670769 0.000000 -1.182459 1.481866 0.000000 -0.764500 1.357419 0.000000 -0.372680 1.280270 0.000000 
-0.000000 0.885177 0.000000 0.407602 0.905773 0.000000 0.830850 0.955115 0.000000 1.289295 1.047104 0.000000 1.795339 1.170463 0.000000 2.380551 1.339028 0.000000 3.048968 1.535381 0.000000 3.852538 1.765685 0.000000 4.784887 1.985308 0.000000 5.907388 2.135664 0.000000 7.186743 2.098098 0.000000 8.717656 1.504275 0.000000 9.994203 -0.343919 0.000000 11.042973 -3.310382 0.000000 11.022469 -4.677362 0.000000 6.874864 -5.387148 0.000000 0.000000 -6.331344 0.000000 -6.874864 -5.387148 0.000000 -11.022469 -4.677362 0.000000 -11.042973 -3.310382 0.000000 -9.994203 -0.343919 0.000000 -8.717656 1.504275 0.000000 -7.186743 2.098098 0.000000 -5.907388 2.135664 0.000000 -4.784887 1.985308 0.000000 -3.852538 1.765685 0.000000 -3.048968 1.535381 0.000000 -2.380551 1.339028 0.000000 -1.795339 1.170463 0.000000 -1.289295 1.047104 0.000000 -0.830850 0.955115 0.000000 -0.407602 0.905773 0.000000 
-0.000000 0.441671 0.000000 0.442589 0.449420 0.000000 0.905773 0.475726 0.000000 1.397703 0.517377 0.000000 1.952877 0.579513 0.000000 2.568166 0.655569 0.000000 3.291905 0.751057 0.000000 4.103547 0.851312 0.000000 5.057590 0.952965 0.000000 6.088854 1.014259 0.000000 7.193255 1.007320 0.000000 8.186953 0.806269 0.000000 8.697530 0.277078 0.000000 7.843034 -0.607815 0.000000 5.387148 -2.351299 0.000000 3.165672 -3.686389 0.000000 -0.000000 -3.826393 0.000000 -3.165672 -3.686389 0.000000 -5.387148 -2.351299 0.000000 -7.843034 -0.607815 0.000000 -8.697530 0.277078 0.000000 -8.186953 0.806269 0.000000 -7.193255 1.007320 0.000000 -6.088854 1.014259 0.000000 -5.057590 0.952965 0.000000 -4.103547 0.851312 0.000000 -3.291905 0.751057 0.000000 -2.568166 0.655569 0.000000 -1.952877 0.579513 0.000000 -1.397703 0.517377 0.000000 -0.905773 0.475726 0.000000 -0.442589 0.449420 0.000000 
