# vtk DataFile Version 2.0
Comment goes here
ASCII

DATASET STRUCTURED_POINTS
DIMENSIONS    64   64   1

ORIGIN    0.000   0.000   0.000
SPACING   0.0156250.015625   1.000

POINT_DATA   4096
SCALARS Omega double
LOOKUP_TABLE default

-3.350475e-04 -7.430775e-03 6.383292e-02 -3.383427e-01 -9.177887e-01 1.619751e+00 3.217181e-01 -1.332496e-01 4.386984e-02 -1.910885e-03 -6.176789e-03 6.602699e-03 -2.862814e-03 1.564434e-03 -1.774131e-03 4.177085e-04 -5.896895e-04 1.018883e-04 -2.512010e-04 5.703372e-05 7.131498e-05 2.556806e-04 2.100996e-04 2.501682e-04 2.948746e-04 3.442784e-04 4.216003e-04 4.605689e-04 5.219511e-04 5.256434e-04 5.660886e-04 5.595011e-04 5.993077e-04 5.946376e-04 6.379386e-04 6.333454e-04 6.767093e-04 6.680645e-04 7.100170e-04 6.948486e-04 7.354984e-04 7.174951e-04 7.598688e-04 7.303747e-04 7.825346e-04 7.574461e-04 7.854910e-04 7.690628e-04 8.211648e-04 7.579827e-04 8.348366e-04 7.857811e-04 7.745753e-04 8.598884e-04 6.431378e-04 9.618794e-04 4.856765e-04 8.062804e-04 -1.066411e-04 9.807908e-04 -4.214471e-04 2.106593e-03 -8.585467e-04 3.199667e-03 
-1.510035e-03 1.416179e-02 -4.180231e-03 3.039781e-02 -4.575483e-01 -3.331576e+00 -1.002301e+01 -5.675221e+00 -2.047364e+00 -2.838128e+00 -4.751985e-01 -1.317453e+00 -2.571993e-01 1.580061e-01 -4.175643e-02 2.872889e-01 6.858164e-01 6.846413e-01 6.665778e-01 7.715835e-01 9.594207e-01 1.054927e+00 1.077318e+00 1.060914e+00 1.081224e+00 1.127631e+00 1.195065e+00 1.246720e+00 1.281648e+00 1.291876e+00 1.292780e+00 1.286613e+00 1.284137e+00 1.283446e+00 1.287554e+00 1.292452e+00 1.298274e+00 1.302498e+00 1.304760e+00 1.304591e+00 1.300913e+00 1.294789e+00 1.284002e+00 1.271471e+00 1.254111e+00 1.236863e+00 1.213622e+00 1.189691e+00 1.154930e+00 1.120191e+00 1.076375e+00 1.033993e+00 9.644438e-01 9.018346e-01 8.245622e-01 7.055796e-01 6.202857e-01 3.622040e-01 7.868582e-02 -2.576595e-03 -2.283820e-04 -3.973104e-04 -8.993608e-04 1.890737e-04 
-8.157857e-05 -1.244093e-02 5.410213e-04 -7.814579e-03 5.889604e-01 -7.309491e+00 -2.829173e+01 -1.728670e+01 -6.101733e+00 -8.597043e+00 -1.578072e+00 -4.092180e+00 -1.107911e+00 3.655477e-01 -5.051953e-01 6.939196e-01 1.803195e+00 1.733614e+00 1.837727e+00 2.049488e+00 2.596088e+00 2.972308e+00 3.008014e+00 2.938287e+00 3.033241e+00 3.180077e+00 3.373068e+00 3.530302e+00 3.640279e+00 3.673372e+00 3.678676e+00 3.663831e+00 3.659785e+00 3.660789e+00 3.675967e+00 3.693717e+00 3.714067e+00 3.729217e+00 3.738982e+00 3.743094e+00 3.733490e+00 3.714293e+00 3.690179e+00 3.658186e+00 3.593863e+00 3.551583e+00 3.497048e+00 3.401411e+00 3.310725e+00 3.222920e+00 3.064634e+00 2.958492e+00 2.750763e+00 2.588439e+00 2.313201e+00 2.006006e+00 1.808815e+00 9.522449e-01 3.811535e-01 2.437307e-01 3.995273e-02 4.663367e-04 -8.596041e-04 -1.257432e-03 
4.994372e-04 1.399758e-02 1.114408e-02 7.362304e-02 2.234254e+00 4.787601e+00 -5.104408e+00 -5.679450e+00 -1.120944e+00 -3.510022e+00 -7.808708e-01 -1.875647e+00 -1.266828e+00 -9.963146e-02 -1.166534e+00 -1.557047e-01 7.135657e-02 -1.266868e-01 3.220978e-01 1.413976e-01 3.210933e-01 7.012380e-01 6.379041e-01 5.584865e-01 6.856446e-01 7.641922e-01 8.195293e-01 8.890193e-01 9.479034e-01 9.678585e-01 9.778140e-01 9.815731e-01 9.895293e-01 9.980448e-01 1.012252e+00 1.027380e+00 1.043694e+00 1.056263e+00 1.068584e+00 1.082056e+00 1.082706e+00 1.073051e+00 1.085212e+00 1.086385e+00 1.030886e+00 1.037859e+00 1.055280e+00 9.567780e-01 9.564706e-01 9.615297e-01 8.329788e-01 8.422548e-01 7.632396e-01 7.618315e-01 5.424829e-01 5.442683e-01 6.121112e-01 5.932885e-02 5.314876e-01 7.333823e-01 1.193967e-01 -2.079089e-04 5.569019e-04 2.156598e-03 
4.575035e-04 -1.524684e-02 1.939495e-02 2.045726e-01 2.663291e+00 1.462086e+01 3.255185e+01 1.719262e+01 7.302389e+00 7.703518e+00 1.270449e+00 3.469331e+00 4.863668e-02 -6.040606e-01 -6.569429e-01 -1.132984e+00 -2.395162e+00 -2.529371e+00 -2.154312e+00 -2.653534e+00 -3.198231e+00 -3.275374e+00 -3.397786e+00 -3.393368e+00 -3.377354e+00 -3.488067e+00 -3.689684e+00 -3.825272e+00 -3.908553e+00 -3.930730e+00 -3.926657e+00 -3.901734e+00 -3.887113e+00 -3.878513e+00 -3.883071e+00 -3.889862e+00 -3.899070e+00 -3.905262e+00 -3.904532e+00 -3.894485e+00 -3.880631e+00 -3.865383e+00 -3.818205e+00 -3.772713e+00 -3.748807e+00 -3.682463e+00 -3.587257e+00 -3.569991e+00 -3.445724e+00 -3.318879e+00 -3.250570e+00 -3.093564e+00 -2.899884e+00 -2.677874e+00 -2.554169e+00 -2.129474e+00 -1.779181e+00 -1.239790e+00 9.079704e-02 5.163156e-01 8.268983e-02 1.651377e-04 7.734915e-04 -3.611638e-04 
5.550771e-04 3.778106e-03 -9.966602e-02 3.176643e-01 1.398841e+00 5.762000e+00 2.029174e+01 1.131060e+01 4.175884e+00 5.738570e+00 9.714610e-01 2.678758e+00 4.940597e-01 -3.189259e-01 5.137744e-02 -5.966920e-01 -1.410729e+00 -1.416615e+00 -1.365759e+00 -1.588026e+00 -1.969922e+00 -2.154605e+00 -2.203166e+00 -2.171424e+00 -2.209600e+00 -2.302458e+00 -2.440003e+00 -2.543990e+00 -2.614355e+00 -2.634496e+00 -2.636179e+00 -2.623049e+00 -2.617799e+00 -2.615857e+00 -2.623974e+00 -2.633392e+00 -2.644965e+00 -2.653104e+00 -2.657445e+00 -2.656524e+00 -2.648960e+00 -2.636475e+00 -2.613878e+00 -2.587893e+00 -2.553772e+00 -2.517835e+00 -2.469459e+00 -2.422948e+00 -2.351172e+00 -2.279542e+00 -2.192774e+00 -2.105305e+00 -1.964244e+00 -1.835101e+00 -1.682900e+00 -1.437222e+00 -1.260232e+00 -7.440792e-01 -1.452516e-01 2.802717e-02 4.939396e-03 -2.284044e-03 9.857811e-04 -3.429252e-03 
2.170510e-02 1.745934e-01 -8.848694e-02 -2.088362e+00 -5.551760e+01 -5.480221e+01 2.141590e+00 3.614045e-01 -1.401797e-01 2.432661e-01 1.973717e-02 1.101313e-01 2.200854e-02 -1.604482e-02 3.976548e-03 -2.625279e-02 -6.266603e-02 -6.235568e-02 -6.081160e-02 -7.023149e-02 -8.786612e-02 -9.606276e-02 -9.863208e-02 -9.672029e-02 -9.892410e-02 -1.028508e-01 -1.093554e-01 -1.138012e-01 -1.172593e-01 -1.179602e-01 -1.182607e-01 -1.174990e-01 -1.174627e-01 -1.172331e-01 -1.177791e-01 -1.180797e-01 -1.187683e-01 -1.190168e-01 -1.193716e-01 -1.192233e-01 -1.190375e-01 -1.183347e-01 -1.175108e-01 -1.162367e-01 -1.148058e-01 -1.130571e-01 -1.111811e-01 -1.087567e-01 -1.057990e-01 -1.025187e-01 -9.864299e-02 -9.461812e-02 -8.855418e-02 -8.256862e-02 -7.584897e-02 -6.462763e-02 -5.725325e-02 -3.275996e-02 -7.250388e-03 6.146290e-04 1.475711e-03 1.974691e-03 5.064223e-03 1.506270e-02 
-4.584404e-02 -1.323071e-01 -4.374163e-01 -3.387337e+01 -3.671556e+01 -3.944582e+01 -3.930802e+01 8.415483e-01 1.691334e-01 3.463168e-02 2.956680e-02 1.576080e-03 6.551024e-03 -1.815141e-04 2.024566e-03 -2.022220e-04 7.948827e-04 -1.458769e-04 3.688170e-04 -4.812534e-05 1.656419e-04 -2.936946e-05 6.736840e-05 -2.809105e-05 1.916747e-05 -2.840477e-05 -1.407778e-05 -3.656114e-05 -3.423050e-05 -4.437354e-05 -4.617474e-05 -5.001595e-05 -5.450142e-05 -5.540714e-05 -6.154107e-05 -6.124028e-05 -6.781476e-05 -6.729635e-05 -7.340384e-05 -7.348954e-05 -7.852923e-05 -8.016671e-05 -8.331802e-05 -8.853942e-05 -8.781749e-05 -9.855455e-05 -9.249537e-05 -1.148100e-04 -9.493799e-05 -1.424263e-04 -9.463760e-05 -1.864872e-04 -9.187022e-05 -2.717045e-04 -9.318961e-05 -4.407119e-04 -1.730153e-04 -8.200942e-04 -4.236254e-04 -1.392685e-03 -9.298968e-04 -4.636218e-03 -5.770574e-03 -2.036585e-02 
-1.988845e-02 1.281094e-01 3.660794e-01 -2.090941e+01 -8.858442e+00 -9.050641e+00 -2.471540e+01 -3.965089e-01 -1.793895e-01 2.247836e-02 -1.722528e-02 -7.436155e-04 -3.172491e-03 -1.333100e-03 -4.910812e-04 -6.309323e-04 -8.069403e-05 -3.313423e-04 2.452526e-05 -1.403364e-04 1.723826e-05 -7.261377e-05 1.632510e-05 -3.911841e-05 1.121192e-05 -2.056654e-05 6.484901e-06 -1.246471e-05 4.788769e-06 -8.333629e-06 3.977099e-06 -5.798229e-06 3.374130e-06 -4.254831e-06 3.020780e-06 -3.428662e-06 2.987428e-06 -3.055098e-06 3.291716e-06 -2.959095e-06 3.992599e-06 -3.064712e-06 5.265796e-06 -3.456546e-06 7.723644e-06 -3.948883e-06 1.183411e-05 -4.586948e-06 1.960339e-05 -6.096252e-06 3.728973e-05 -5.506535e-06 7.251356e-05 6.288946e-06 1.426969e-04 7.373021e-05 2.629897e-04 3.549769e-04 3.701105e-04 8.050712e-04 6.950402e-04 2.588279e-03 9.316616e-05 1.357450e-02 
-8.523401e-03 3.781213e-02 2.669904e-01 -8.198273e+00 -8.454246e+00 -8.887883e+00 -8.168581e+00 -2.524098e-01 -4.076409e-02 8.843553e-03 -1.096387e-03 3.189845e-03 1.390123e-03 8.561604e-04 9.134725e-04 1.753087e-04 4.934186e-04 -8.231492e-06 2.635499e-04 -2.958648e-05 1.448684e-04 -2.635603e-05 8.069152e-05 -2.038538e-05 4.611940e-05 -1.330530e-05 2.732807e-05 -8.713203e-06 1.703142e-05 -6.275468e-06 1.100684e-05 -4.870901e-06 7.412098e-06 -4.074115e-06 5.354985e-06 -3.840165e-06 4.293091e-06 -4.191988e-06 3.902410e-06 -5.214277e-06 4.040252e-06 -7.159102e-06 4.686193e-06 -1.052857e-05 5.973375e-06 -1.631965e-05 7.877051e-06 -2.669768e-05 1.024287e-05 -4.496567e-05 1.247883e-05 -7.754690e-05 8.729427e-06 -1.368351e-04 -2.131596e-05 -2.440901e-04 -1.393578e-04 -4.297590e-04 -4.731339e-04 -6.245298e-04 -1.186831e-03 -7.034914e-04 -3.306432e-03 2.768703e-03 
-8.521614e-03 1.667810e-02 2.049406e-01 -6.695462e+00 -6.136712e+00 -6.009148e+00 -6.970186e+00 -2.032109e-01 -2.309565e-02 8.925287e-03 -8.759715e-03 1.778215e-03 -2.977502e-03 2.609712e-06 -9.346653e-04 -2.195014e-04 -3.017060e-04 -1.803125e-04 -9.100363e-05 -1.089173e-04 -2.716387e-05 -6.457308e-05 -5.532681e-06 -3.813662e-05 7.845168e-07 -2.257196e-05 2.135825e-06 -1.412783e-05 2.558044e-06 -9.357174e-06 2.690202e-06 -6.465546e-06 2.703508e-06 -4.685510e-06 2.779787e-06 -3.620030e-06 3.050658e-06 -3.000531e-06 3.614826e-06 -2.642418e-06 4.607970e-06 -2.417515e-06 6.281543e-06 -2.206172e-06 9.128826e-06 -1.727338e-06 1.391333e-05 -4.678507e-07 2.228650e-05 3.130763e-06 3.722252e-05 1.429328e-05 6.186149e-05 4.670140e-05 9.797787e-05 1.385479e-04 1.305887e-04 3.823702e-04 8.049178e-05 9.570493e-04 -2.640444e-04 2.606622e-03 -1.966888e-03 7.805378e-03 
-2.328110e-03 2.923606e-03 1.814757e-01 -5.536665e+00 -5.926799e+00 -5.934163e+00 -5.502712e+00 -1.813070e-01 -7.805433e-03 2.260084e-03 -2.021961e-03 1.546339e-03 -3.090641e-04 7.326720e-04 1.488150e-04 2.890739e-04 1.901219e-04 9.652661e-05 1.439974e-04 2.668092e-05 9.646302e-05 2.847582e-06 6.163360e-05 -4.423372e-06 3.891934e-05 -5.426017e-06 2.484466e-05 -4.885427e-06 1.625941e-05 -4.278858e-06 1.094035e-05 -3.856784e-06 7.628807e-06 -3.684388e-06 5.606610e-06 -3.843936e-06 4.425921e-06 -4.430274e-06 3.802022e-06 -5.582441e-06 3.557792e-06 -7.549678e-06 3.565220e-06 -1.076649e-05 3.671074e-06 -1.599008e-05 3.471619e-06 -2.451029e-05 1.992675e-06 -3.809151e-05 -3.326721e-06 -5.911689e-05 -1.963530e-05 -8.972336e-05 -6.385914e-05 -1.264375e-04 -1.712628e-04 -1.402356e-04 -3.977495e-04 -9.193011e-06 -8.038774e-04 5.937486e-04 -1.502008e-03 2.628904e-03 
-3.303196e-03 4.996748e-04 1.528177e-01 -4.772198e+00 -4.563503e+00 -4.325870e+00 -4.780312e+00 -1.530873e-01 -5.458923e-03 3.448895e-03 -2.869747e-03 1.464627e-03 -1.654203e-03 4.266082e-04 -7.776085e-04 5.953432e-05 -3.420902e-04 -3.953204e-05 -1.458587e-04 -4.953369e-05 -6.216240e-05 -3.926581e-05 -2.631323e-05 -2.743003e-05 -1.100554e-05 -1.830415e-05 -4.380630e-06 -1.223851e-05 -1.292084e-06 -8.332973e-06 2.582725e-07 -5.790780e-06 1.117386e-06 -4.120492e-06 1.719132e-06 -3.008760e-06 2.312574e-06 -2.227364e-06 3.068102e-06 -1.589762e-06 4.152418e-06 -9.078092e-07 5.788570e-06 8.555379e-08 8.310199e-06 1.897863e-06 1.218340e-05 5.580540e-06 1.804738e-05 1.358930e-05 2.631748e-05 3.164729e-05 3.558355e-05 7.234928e-05 3.848879e-05 1.630433e-04 9.476096e-06 3.585872e-04 -1.219850e-04 7.604998e-04 -5.137585e-04 1.561346e-03 -1.497922e-03 2.850738e-03 
-6.687623e-04 -1.219285e-03 1.332392e-01 -4.133622e+00 -4.434794e+00 -4.300145e+00 -4.019539e+00 -1.316256e-01 -3.184398e-03 5.389283e-04 -8.158968e-04 6.092189e-04 -3.797013e-04 4.191282e-04 -8.945898e-05 2.311292e-04 2.572747e-05 1.119310e-04 5.352804e-05 5.007742e-05 4.993096e-05 2.069694e-05 3.851782e-05 7.421906e-06 2.759208e-05 1.755496e-06 1.924777e-05 -6.302080e-07 1.339675e-05 -1.694513e-06 9.420719e-06 -2.254037e-06 6.761256e-06 -2.681980e-06 5.004115e-06 -3.190923e-06 3.846934e-06 -3.935447e-06 3.063838e-06 -5.069665e-06 2.468049e-06 -6.794100e-06 1.857054e-06 -9.393343e-06 9.189375e-07 -1.326481e-05 -9.595987e-07 -1.888822e-05 -5.037703e-06 -2.655942e-05 -1.396535e-05 -3.574048e-05 -3.318433e-05 -4.313252e-05 -7.260497e-05 -3.753624e-05 -1.472519e-04 1.138401e-05 -2.719903e-04 1.701079e-04 -4.452247e-04 5.318173e-04 -6.282043e-04 1.087802e-03 
-1.203297e-03 -1.437939e-03 1.154548e-01 -3.625681e+00 -3.537188e+00 -3.280610e+00 -3.573848e+00 -1.153829e-01 -2.553836e-03 1.199292e-03 -8.726328e-04 8.088171e-04 -7.532154e-04 3.894635e-04 -4.833253e-04 1.469448e-04 -2.718670e-04 3.763385e-05 -1.436680e-04 -2.399210e-06 -7.414262e-05 -1.326768e-05 -3.809147e-05 -1.359997e-05 -1.969645e-05 -1.098239e-05 -1.025450e-05 -8.154934e-06 -5.261424e-06 -5.839915e-06 -2.504407e-06 -4.089993e-06 -8.804238e-07 -2.790667e-06 1.943811e-07 -1.795785e-06 1.051313e-06 -9.524211e-07 1.899696e-06 -9.207514e-08 2.898631e-06 1.005148e-06 4.194279e-06 2.687943e-06 5.922842e-06 5.586875e-06 8.149727e-06 1.091145e-05 1.067114e-05 2.106083e-05 1.240694e-05 4.070316e-05 9.939408e-06 7.849173e-05 -5.537856e-06 1.494635e-04 -5.402379e-05 2.762683e-04 -1.739458e-04 4.830660e-04 -4.206171e-04 7.623034e-04 -8.259106e-04 9.540683e-04 
-1.890910e-04 -1.529153e-03 1.014421e-01 -3.208799e+00 -3.451918e+00 -3.277430e+00 -3.085112e+00 -9.960324e-02 -2.026332e-03 1.051591e-04 -2.956958e-04 2.198195e-04 -2.201808e-04 2.045952e-04 -1.059107e-04 1.451010e-04 -2.950550e-05 8.870396e-05 6.530963e-06 4.982694e-05 1.851356e-05 2.654605e-05 1.943478e-05 1.356208e-05 1.644607e-05 6.584484e-06 1.275983e-05 2.843306e-06 9.528885e-06 7.673788e-07 7.009337e-06 -4.779471e-07 5.140695e-06 -1.342744e-06 3.774502e-06 -2.089868e-06 2.749230e-06 -2.893932e-06 1.906057e-06 -3.894410e-06 1.074972e-06 -5.224322e-06 3.488296e-08 -7.015357e-06 -1.561681e-06 -9.364727e-06 -4.322918e-06 -1.221448e-05 -9.336795e-06 -1.503770e-05 -1.851599e-05 -1.618224e-05 -3.499051e-05 -1.154683e-05 -6.308682e-05 7.671764e-06 -1.068706e-04 5.720531e-05 -1.655180e-04 1.562983e-04 -2.252323e-04 3.023718e-04 -2.535386e-04 4.094733e-04 
-4.461481e-04 -1.452861e-03 8.937145e-02 -2.848680e+00 -2.810003e+00 -2.568359e+00 -2.778713e+00 -8.893021e-02 -1.721746e-03 4.203865e-04 -2.733155e-04 3.974475e-04 -3.219762e-04 2.589895e-04 -2.645960e-04 1.375313e-04 -1.824000e-04 6.166214e-05 -1.146540e-04 2.243204e-05 -6.880264e-05 4.852666e-06 -4.048987e-05 -1.818620e-06 -2.375415e-05 -3.612891e-06 -1.401090e-05 -3.493577e-06 -8.309364e-06 -2.755166e-06 -4.906702e-06 -1.899391e-06 -2.801774e-06 -1.081541e-06 -1.415390e-06 -3.048649e-07 -4.050636e-07 5.046741e-07 4.377851e-07 1.481004e-06 1.241492e-06 2.838157e-06 2.070785e-06 4.929349e-06 2.901017e-06 8.360498e-06 3.522595e-06 1.418791e-05 3.313676e-06 2.423969e-05 7.570928e-07 4.154331e-05 -7.441821e-06 7.070243e-05 -2.768714e-05 1.176587e-04 -7.078374e-05 1.871569e-04 -1.506853e-04 2.745056e-04 -2.743448e-04 3.474685e-04 -4.137346e-04 3.267263e-04 
-4.746897e-05 -1.332454e-03 7.927544e-02 -2.551068e+00 -2.750421e+00 -2.576132e+00 -2.434868e+00 -7.755025e-02 -1.491701e-03 2.492965e-06 -1.112391e-04 7.386572e-05 -1.097454e-04 9.150882e-05 -7.313164e-05 8.045447e-05 -3.557345e-05 5.930935e-05 -1.066641e-05 3.955464e-05 2.060838e-06 2.486755e-05 6.956951e-06 1.507348e-05 7.817702e-06 8.890689e-06 6.987356e-06 5.063053e-06 5.657563e-06 2.672721e-06 4.337737e-06 1.123785e-06 3.194276e-06 4.317122e-08 2.236339e-06 -8.056243e-07 1.402600e-06 -1.578753e-06 5.939587e-07 -2.384068e-06 -3.252177e-07 -3.292901e-06 -1.549193e-06 -4.327738e-06 -3.376011e-06 -5.412059e-06 -6.278290e-06 -6.253156e-06 -1.099416e-05 -6.113898e-06 -1.860679e-05 -3.436107e-06 -3.049165e-05 4.666717e-06 -4.784827e-05 2.272218e-05 -7.040990e-05 5.581139e-05 -9.412848e-05 1.043746e-04 -1.089862e-04 1.523568e-04 -1.009614e-04 1.573044e-04 
-1.729400e-04 -1.218155e-03 7.049894e-02 -2.280407e+00 -2.262081e+00 -2.048547e+00 -2.210882e+00 -6.999679e-02 -1.309548e-03 1.548115e-04 -9.143216e-05 1.918422e-04 -1.373913e-04 1.544252e-04 -1.377459e-04 1.018107e-04 -1.125266e-04 5.851554e-05 -8.196451e-05 3.021994e-05 -5.593787e-05 1.413381e-05 -3.685915e-05 5.896149e-06 -2.390691e-05 2.085879e-06 -1.545404e-05 5.631269e-07 -1.002903e-05 1.506545e-07 -6.551786e-06 2.580190e-07 -4.296432e-06 6.191483e-07 -2.794467e-06 1.144310e-06 -1.751005e-06 1.848143e-06 -9.883085e-07 2.824264e-06 -4.161769e-07 4.251987e-06 -2.991178e-08 6.431074e-06 5.697802e-08 9.845947e-06 -4.712823e-07 1.525973e-05 -2.294949e-06 2.382155e-05 -6.726311e-06 3.711250e-05 -1.605834e-05 5.693888e-05 -3.380034e-05 8.446428e-05 -6.418484e-05 1.179940e-04 -1.095743e-04 1.489261e-04 -1.640300e-04 1.577342e-04 -2.040340e-04 1.194809e-04 
-5.383700e-06 -1.092949e-03 6.288040e-02 -2.052991e+00 -2.218690e+00 -2.062385e+00 -1.952725e+00 -6.147899e-02 -1.156746e-03 -1.756870e-05 -4.507011e-05 2.168959e-05 -5.277185e-05 3.789737e-05 -4.291472e-05 4.105866e-05 -2.695748e-05 3.590014e-05 -1.329040e-05 2.784127e-05 -4.435661e-06 2.008768e-05 2.452788e-07 1.385812e-05 2.201345e-06 9.285111e-06 2.663291e-06 6.078748e-06 2.420917e-06 3.869196e-06 1.902817e-06 2.337421e-06 1.306914e-06 1.242953e-06 6.990012e-07 4.150591e-07 7.054110e-08 -2.625616e-07 -6.339931e-07 -8.620889e-07 -1.510594e-06 -1.411244e-06 -2.704007e-06 -1.876498e-06 -4.426687e-06 -2.121553e-06 -6.982182e-06 -1.830803e-06 -1.077705e-05 -3.934462e-07 -1.628403e-05 3.226112e-06 -2.388019e-05 1.052480e-05 -3.344931e-05 2.311169e-05 -4.369087e-05 4.141200e-05 -5.136969e-05 6.191083e-05 -5.143174e-05 7.407217e-05 -3.968361e-05 6.280766e-05 
-6.989030e-05 -9.857054e-04 5.616353e-02 -1.840131e+00 -1.828871e+00 -1.649745e+00 -1.782094e+00 -5.588110e-02 -1.035304e-03 6.042135e-05 -3.301052e-05 9.530319e-05 -6.012581e-05 8.901070e-05 -7.100454e-05 6.841212e-05 -6.702775e-05 4.632843e-05 -5.547169e-05 2.883533e-05 -4.233189e-05 1.700181e-05 -3.073706e-05 9.759331e-06 -2.168959e-05 5.641726e-06 -1.510119e-05 3.456459e-06 -1.049110e-05 2.405382e-06 -7.334674e-06 2.011647e-06 -5.194055e-06 2.018014e-06 -3.745285e-06 2.309649e-06 -2.767923e-06 2.868009e-06 -2.128381e-06 3.750200e-06 -1.770717e-06 5.087919e-06 -1.722205e-06 7.101593e-06 -2.119911e-06 1.012458e-05 -3.264500e-06 1.462595e-05 -5.703607e-06 2.120294e-05 -1.032875e-05 3.047893e-05 -1.841724e-05 4.279215e-05 -3.144315e-05 5.751963e-05 -5.032226e-05 7.196150e-05 -7.368354e-05 8.021845e-05 -9.527916e-05 7.384486e-05 -1.026079e-04 4.769211e-05 
6.394723e-06 -8.808350e-04 5.013710e-02 -1.656861e+00 -1.796141e+00 -1.667859e+00 -1.579161e+00 -4.926184e-02 -9.179572e-04 -1.805467e-05 -2.031027e-05 3.676553e-06 -2.541878e-05 1.370703e-05 -2.311178e-05 1.928793e-05 -1.693455e-05 2.024866e-05 -1.054651e-05 1.821803e-05 -5.675530e-06 1.491676e-05 -2.580385e-06 1.149896e-05 -8.914581e-07 8.527912e-06 -1.309250e-07 6.170115e-06 8.243360e-08 4.389662e-06 -3.715230e-09 3.075944e-06 -2.517028e-07 2.109390e-06 -6.009725e-07 1.388895e-06 -1.042957e-06 8.411224e-07 -1.606495e-06 4.244742e-07 -2.352187e-06 1.355204e-07 -3.372901e-06 2.308580e-08 -4.796394e-06 2.134674e-07 -6.782911e-06 9.465131e-07 -9.504339e-06 2.611588e-06 -1.308208e-05 5.747545e-06 -1.745298e-05 1.092577e-05 -2.214575e-05 1.837930e-05 -2.602322e-05 2.725273e-05 -2.721622e-05 3.465022e-05 -2.370452e-05 3.554845e-05 -1.499810e-05 2.563751e-05 
-2.892359e-05 -7.880297e-04 4.478406e-02 -1.483175e+00 -1.472534e+00 -1.332830e+00 -1.445978e+00 -4.500437e-02 -8.310871e-04 2.530711e-05 -1.258395e-05 5.010781e-05 -2.698854e-05 5.134796e-05 -3.702834e-05 4.396537e-05 -3.987028e-05 3.360325e-05 -3.694557e-05 2.388690e-05 -3.103051e-05 1.626202e-05 -2.443153e-05 1.087049e-05 -1.846684e-05 7.320363e-06 -1.364247e-05 5.115975e-06 -9.991549e-06 3.835862e-06 -7.342567e-06 3.177936e-06 -5.474953e-06 2.951313e-06 -4.191403e-06 3.054767e-06 -3.344343e-06 3.457942e-06 -2.842985e-06 4.190106e-06 -2.656439e-06 5.336443e-06 -2.821289e-06 7.039160e-06 -3.457863e-06 9.497495e-06 -4.795352e-06 1.295467e-05 -7.198190e-06 1.764952e-05 -1.116945e-05 2.369718e-05 -1.727642e-05 3.085655e-05 -2.590367e-05 3.817131e-05 -3.672327e-05 4.359605e-05 -4.788405e-05 4.401631e-05 -5.533684e-05 3.647230e-05 -5.347791e-05 2.117899e-05 
8.718293e-06 -7.011489e-04 3.981005e-02 -1.328914e+00 -1.447019e+00 -1.355188e+00 -1.281707e+00 -3.972108e-02 -7.378394e-04 -1.480218e-05 -1.088586e-05 -2.377007e-06 -1.234916e-05 2.958512e-06 -1.125550e-05 7.866952e-06 -8.992853e-06 1.072609e-05 -6.627945e-06 1.138447e-05 -4.647092e-06 1.052025e-05 -3.185536e-06 8.933850e-06 -2.212956e-06 7.203219e-06 -1.635645e-06 5.636363e-06 -1.350383e-06 4.346429e-06 -1.271026e-06 3.339440e-06 -1.338438e-06 2.576685e-06 -1.521251e-06 2.010344e-06 -1.812964e-06 1.601618e-06 -2.228603e-06 1.330440e-06 -2.802158e-06 1.203082e-06 -3.584228e-06 1.261246e-06 -4.637414e-06 1.593386e-06 -6.024722e-06 2.344640e-06 -7.783456e-06 3.713796e-06 -9.875518e-06 5.912987e-06 -1.210915e-05 9.052006e-06 -1.404687e-05 1.291190e-05 -1.496025e-05 1.663703e-05 -1.395960e-05 1.856410e-05 -1.045836e-05 1.669381e-05 -4.990596e-06 1.023094e-05 
-1.195015e-05 -6.219013e-04 3.539492e-02 -1.182650e+00 -1.169291e+00 -1.075555e+00 -1.177277e+00 -3.647062e-02 -6.730832e-04 1.217856e-05 -4.099150e-06 2.848431e-05 -1.167746e-05 2.995529e-05 -1.972589e-05 2.743992e-05 -2.446473e-05 2.308947e-05 -2.506735e-05 1.832017e-05 -2.271068e-05 1.394742e-05 -1.899069e-05 1.035824e-05 -1.508996e-05 7.645402e-06 -1.163744e-05 5.732141e-06 -8.856121e-06 4.474302e-06 -6.745698e-06 3.726067e-06 -5.213764e-06 3.372539e-06 -4.150267e-06 3.340980e-06 -3.463593e-06 3.601701e-06 -3.096356e-06 4.165461e-06 -3.033042e-06 5.080104e-06 -3.306202e-06 6.425660e-06 -4.003560e-06 8.303749e-06 -5.273915e-06 1.081325e-05 -7.323389e-06 1.400015e-05 -1.038390e-05 1.776840e-05 -1.462418e-05 2.174828e-05 -1.996931e-05 2.515402e-05 -2.582207e-05 2.673999e-05 -3.077884e-05 2.507224e-05 -3.262832e-05 1.936047e-05 -2.910532e-05 1.069264e-05 
8.127908e-06 -5.479660e-04 3.113011e-02 -1.047910e+00 -1.148723e+00 -1.103584e+00 -1.043005e+00 -3.221561e-02 -5.997018e-04 -1.184439e-05 -7.295495e-06 -4.861558e-06 -5.643956e-06 -2.055124e-06 -4.002760e-06 2.072241e-06 -3.218935e-06 5.295707e-06 -2.986305e-06 6.886087e-06 -2.861039e-06 7.115418e-06 -2.662295e-06 6.542378e-06 -2.407213e-06 5.639422e-06 -2.166937e-06 4.698545e-06 -1.993248e-06 3.861117e-06 -1.907285e-06 3.175030e-06 -1.911847e-06 2.641434e-06 -2.004974e-06 2.244411e-06 -2.188397e-06 1.967705e-06 -2.471155e-06 1.804030e-06 -2.869920e-06 1.760996e-06 -3.406592e-06 1.865639e-06 -4.102327e-06 2.167266e-06 -4.965885e-06 2.735360e-06 -5.973602e-06 3.645306e-06 -7.039717e-06 4.940720e-06 -7.981709e-06 6.561563e-06 -8.498632e-06 8.242282e-06 -8.200958e-06 9.428698e-06 -6.745909e-06 9.337552e-06 -4.110099e-06 7.329193e-06 -9.259865e-07 3.555228e-06 
-4.834493e-06 -4.796836e-04 2.737402e-02 -9.211960e-01 -9.032889e-01 -8.656867e-01 -9.633439e-01 -2.981347e-02 -5.507107e-04 7.656249e-06 1.916755e-06 1.749822e-05 -3.083655e-06 1.702707e-05 -1.087688e-05 1.608465e-05 -1.623424e-05 1.495417e-05 -1.792376e-05 1.330134e-05 -1.693462e-05 1.121305e-05 -1.460714e-05 9.045836e-06 -1.192297e-05 7.112699e-06 -9.426209e-06 5.571683e-06 -7.344265e-06 4.452859e-06 -5.723845e-06 3.719719e-06 -4.528794e-06 3.317590e-06 -3.698152e-06 3.201013e-06 -3.176610e-06 3.345681e-06 -2.929263e-06 3.751512e-06 -2.948632e-06 4.440680e-06 -3.258162e-06 5.451248e-06 -3.913166e-06 6.824426e-06 -4.996942e-06 8.581402e-06 -6.606104e-06 1.068518e-05 -8.815293e-06 1.298597e-05 -1.160986e-05 1.515978e-05 -1.478222e-05 1.667278e-05 -1.781412e-05 1.683763e-05 -1.982068e-05 1.504824e-05 -1.969762e-05 1.122625e-05 -1.661269e-05 6.252512e-06 
6.734234e-06 -4.145938e-04 2.358831e-02 -7.996246e-01 -8.860987e-01 -9.026148e-01 -8.561835e-01 -2.646975e-02 -4.963210e-04 -1.077737e-05 -4.616406e-06 -7.905149e-06 -7.962130e-07 -4.930642e-06 1.246069e-06 -6.863307e-07 1.265506e-06 2.322467e-06 2.194508e-07 3.897596e-06 -8.700730e-07 4.425908e-06 -1.571328e-06 4.336037e-06 -1.894619e-06 3.955160e-06 -1.990368e-06 3.486768e-06 -1.992132e-06 3.037087e-06 -1.980991e-06 2.651336e-06 -1.997191e-06 2.342530e-06 -2.058789e-06 2.109993e-06 -2.174884e-06 1.950095e-06 -2.352482e-06 1.862244e-06 -2.598632e-06 1.852215e-06 -2.919060e-06 1.933602e-06 -3.313550e-06 2.126926e-06 -3.767748e-06 2.454551e-06 -4.241301e-06 2.928288e-06 -4.654101e-06 3.526589e-06 -4.876546e-06 4.161857e-06 -4.736319e-06 4.649358e-06 -4.060388e-06 4.708873e-06 -2.768383e-06 4.048787e-06 -1.008671e-06 2.567530e-06 7.272445e-07 5.659405e-07 
-2.015270e-06 -3.546369e-04 2.029804e-02 -6.869133e-01 -6.633939e-01 -6.977925e-01 -8.010536e-01 -2.489086e-02 -4.597689e-04 4.784631e-06 1.287309e-05 9.996375e-06 3.990509e-06 6.832437e-06 -7.015506e-06 6.883232e-06 -1.244721e-05 8.364504e-06 -1.369485e-05 9.051229e-06 -1.279380e-05 8.574071e-06 -1.099703e-05 7.412780e-06 -9.003714e-06 6.077171e-06 -7.168113e-06 4.873175e-06 -5.635322e-06 3.927854e-06 -4.436530e-06 3.265805e-06 -3.550811e-06 2.868816e-06 -2.941154e-06 2.710268e-06 -2.573797e-06 2.771385e-06 -2.427894e-06 3.046775e-06 -2.499843e-06 3.543621e-06 -2.804281e-06 4.276029e-06 -3.371810e-06 5.254018e-06 -4.241795e-06 6.465731e-06 -5.446966e-06 7.852132e-06 -6.985881e-06 9.276975e-06 -8.781228e-06 1.050250e-05 -1.062958e-05 1.119312e-05 -1.216419e-05 1.098002e-05 -1.287446e-05 9.613386e-06 -1.223768e-05 7.182348e-06 -9.985293e-06 4.243118e-06 
5.219903e-06 -2.953797e-04 1.682852e-02 -5.739894e-01 -6.484620e-01 -7.495461e-01 -7.241569e-01 -2.253202e-02 -4.271248e-04 -1.417908e-05 5.933008e-06 -1.631371e-05 6.332410e-06 -6.583528e-06 6.865144e-06 -1.606499e-06 5.953694e-06 3.475007e-07 3.586264e-06 1.382948e-06 1.362840e-06 1.932725e-06 -9.614183e-08 2.144601e-06 -8.937125e-07 2.158076e-06 -1.288933e-06 2.077634e-06 -1.480497e-06 1.964391e-06 -1.583810e-06 1.849245e-06 -1.657778e-06 1.746464e-06 -1.730680e-06 1.662420e-06 -1.816089e-06 1.600514e-06 -1.920817e-06 1.563829e-06 -2.047843e-06 1.556365e-06 -2.196079e-06 1.583027e-06 -2.357840e-06 1.648059e-06 -2.514532e-06 1.751231e-06 -2.631405e-06 1.881148e-06 -2.653502e-06 2.005976e-06 -2.507060e-06 2.064650e-06 -2.113045e-06 1.966535e-06 -1.419870e-06 1.612903e-06 -4.567331e-07 9.527005e-07 6.069832e-07 6.657304e-08 1.436261e-06 -8.021967e-07 
-1.181316e-06 -2.414763e-04 1.386412e-02 -4.712170e-01 -4.414371e-01 -5.708974e-01 -6.960947e-01 -2.185088e-02 -4.071144e-04 -1.430141e-05 4.908008e-05 -2.344436e-06 1.037474e-05 -8.941902e-06 -8.213074e-06 -4.263379e-06 -1.083559e-05 2.077997e-06 -1.030789e-05 5.393408e-06 -9.142459e-06 6.169967e-06 -7.705619e-06 5.671127e-06 -6.247725e-06 4.744709e-06 -4.941932e-06 3.812532e-06 -3.863441e-06 3.043316e-06 -3.024801e-06 2.483295e-06 -2.410243e-06 2.129321e-06 -1.996343e-06 1.964729e-06 -1.762857e-06 1.975066e-06 -1.697984e-06 2.153491e-06 -1.800370e-06 2.500481e-06 -2.078596e-06 3.019535e-06 -2.547912e-06 3.708999e-06 -3.223198e-06 4.549772e-06 -4.106727e-06 5.489442e-06 -5.169860e-06 6.426004e-06 -6.330098e-06 7.198831e-06 -7.430090e-06 7.599978e-06 -8.232953e-06 7.421305e-06 -8.455021e-06 6.544341e-06 -7.853333e-06 5.051689e-06 -6.357798e-06 3.264550e-06 
3.804369e-06 -1.858206e-04 1.058965e-02 -3.635506e-01 -4.279840e-01 -6.469868e-01 -6.609962e-01 -2.077901e-02 -4.026769e-04 -2.773568e-05 7.110761e-05 -3.621324e-05 2.270227e-05 -1.717358e-06 1.836481e-05 -2.251009e-06 1.449515e-05 -3.048368e-06 8.492882e-06 -1.979629e-06 4.168142e-06 -8.858321e-07 1.745487e-06 -1.689700e-07 4.806239e-07 2.728338e-07 -1.928388e-07 5.550041e-07 -5.771795e-07 7.409227e-07 -8.166304e-07 8.625865e-07 -9.782355e-07 9.380161e-07 -1.093798e-06 9.788992e-07 -1.178974e-06 9.933966e-07 -1.241329e-06 9.871609e-07 -1.283329e-06 9.636557e-07 -1.302935e-06 9.240049e-07 -1.292986e-06 8.663382e-07 -1.240069e-06 7.846352e-07 -1.123758e-06 6.673784e-07 -9.176204e-07 4.970080e-07 -5.941898e-07 2.522669e-07 -1.364614e-07 -8.335794e-08 4.425583e-07 -5.041739e-07 1.074589e-06 -9.571741e-07 1.614985e-06 -1.321455e-06 1.845801e-06 -1.440280e-06 
-1.330254e-06 -1.362002e-04 7.848464e-03 -2.677308e-01 -2.312699e-01 -4.819488e-01 -6.593565e-01 -2.096654e-02 -4.906106e-04 -2.211999e-04 2.186148e-04 -5.694649e-05 -7.183397e-06 -6.109215e-05 -1.489375e-05 -2.475060e-05 -5.498395e-06 -4.939820e-06 -4.836723e-06 2.175616e-06 -5.026082e-06 3.974083e-06 -4.515167e-06 3.872352e-06 -3.685833e-06 3.220507e-06 -2.861321e-06 2.517075e-06 -2.164799e-06 1.927349e-06 -1.623936e-06 1.492082e-06 -1.233477e-06 1.209630e-06 -9.804461e-07 1.067811e-06 -8.536075e-07 1.055893e-06 -8.470100e-07 1.168339e-06 -9.608998e-07 1.404544e-06 -1.200784e-06 1.765909e-06 -1.574509e-06 2.250399e-06 -2.086835e-06 2.844572e-06 -2.731011e-06 3.513592e-06 -3.477552e-06 4.191336e-06 -4.262097e-06 4.775203e-06 -4.977149e-06 5.133000e-06 -5.475937e-06 5.130204e-06 -5.598067e-06 4.681495e-06 -5.221416e-06 3.817412e-06 -4.327503e-06 2.718796e-06 
2.588728e-06 -8.247556e-05 4.678045e-03 -1.627476e-01 -2.188864e-01 -5.919792e-01 -6.887275e-01 -2.171093e-02 -3.602315e-04 -4.101178e-05 6.155239e-04 5.435926e-05 7.893524e-05 2.875556e-05 6.751747e-05 -1.489953e-05 3.681196e-05 -1.284853e-05 1.640581e-05 -7.066144e-06 7.481308e-06 -3.945633e-06 3.771216e-06 -2.408418e-06 2.072799e-06 -1.528887e-06 1.161209e-06 -9.384262e-07 5.944987e-07 -5.115567e-07 2.100671e-07 -2.022198e-07 -5.697044e-08 1.224118e-08 -2.364057e-07 1.467568e-07 -3.439653e-07 2.120591e-07 -3.882075e-07 2.152390e-07 -3.728027e-07 1.599181e-07 -2.974760e-07 4.668311e-08 -1.588164e-07 -1.260016e-07 4.844407e-08 -3.601740e-07 3.291748e-07 -6.557113e-07 6.840961e-07 -1.006241e-06 1.104152e-06 -1.393417e-06 1.563117e-06 -1.779981e-06 2.009560e-06 -2.103415e-06 2.360625e-06 -2.274227e-06 2.500920e-06 -2.185744e-06 2.289761e-06 -1.754751e-06 