# vtk DataFile Version 2.0
Comment goes here
ASCII

DATASET STRUCTURED_POINTS
DIMENSIONS    64   64   1

ORIGIN    0.000   0.000   0.000
SPACING   0.0156250.015625   1.000

POINT_DATA   4096
SCALARS Omega double
LOOKUP_TABLE default

3.496118e+02 -5.158278e+01 -7.619856e+01 -2.543013e+01 3.858131e+01 5.172916e+01 -9.747721e+01 1.072073e+02 3.570345e+01 -3.066029e+01 3.684812e+01 -4.686621e+01 4.336791e+01 7.842522e+00 -1.458485e+01 5.309157e+00 -2.325438e+00 8.359511e-01 -1.022936e+00 5.282268e-01 -5.420127e-01 -7.839189e-02 -1.959342e-01 -8.250498e-01 9.422082e-02 -1.234372e+00 3.109986e-01 -1.193238e+00 3.669510e-01 -9.559818e-01 2.811471e-01 -6.938290e-01 1.168895e-01 -4.517227e-01 -3.202350e-02 -2.608664e-01 -1.026862e-01 -7.421865e-02 -1.525295e-01 1.425218e-01 -2.026500e-01 3.549947e-01 -2.512991e-01 5.649380e-01 -3.252303e-01 7.760939e-01 -3.959176e-01 9.401564e-01 -4.113954e-01 1.022437e+00 -3.778091e-01 1.093740e+00 -3.790786e-01 1.331289e+00 -6.042185e-01 1.863247e+00 -5.957069e-01 1.715467e+00 5.796376e+00 5.331003e+00 8.241302e+01 2.594522e+02 -2.124543e+01 3.922414e+01 
3.206455e+02 1.756751e+02 5.374255e+01 2.219797e+02 -2.287797e+01 -7.231766e+00 1.494801e+00 5.796770e+01 -2.244991e+02 2.213611e+02 -8.565443e+01 -6.597840e+01 1.239620e+01 8.003900e+00 -1.407372e+01 1.591248e+01 -5.663479e+00 1.612620e+01 -1.745127e+00 1.623612e+01 4.454563e+00 1.427491e+01 1.098236e+01 1.172680e+01 1.482929e+01 1.111310e+01 1.590397e+01 1.237907e+01 1.631224e+01 1.409535e+01 1.638732e+01 1.520966e+01 1.686399e+01 1.574202e+01 1.679841e+01 1.654637e+01 1.619133e+01 1.745144e+01 1.576009e+01 1.802111e+01 1.521082e+01 1.883667e+01 1.481365e+01 1.942497e+01 1.497462e+01 1.907664e+01 1.542468e+01 1.868381e+01 1.555491e+01 1.845151e+01 1.497658e+01 1.807773e+01 1.393476e+01 1.758087e+01 1.234272e+01 1.570837e+01 1.246458e+01 4.614010e+00 3.663973e+00 -6.500361e+01 2.144623e+01 1.167132e+02 -4.530531e+01 -1.749979e+02 
-2.329528e+02 -1.445064e+02 -1.183223e+02 1.908407e+01 1.081183e+02 -3.248317e+02 -1.352819e+02 -1.271269e+02 -1.008854e+02 -1.588330e+02 -6.691974e+01 3.386714e+01 -6.222840e+01 2.327411e+01 -3.034428e+01 4.393864e+01 -1.824735e+01 5.201855e+01 -2.174641e+00 5.015084e+01 1.617655e+01 4.237493e+01 3.418988e+01 3.650493e+01 4.406609e+01 3.736099e+01 4.529687e+01 4.198326e+01 4.451217e+01 4.618559e+01 4.352961e+01 4.819785e+01 4.485291e+01 4.860790e+01 4.547708e+01 4.964743e+01 4.479480e+01 5.110882e+01 4.412727e+01 5.189015e+01 4.245041e+01 5.330897e+01 4.125939e+01 5.328038e+01 4.194394e+01 5.019281e+01 4.353171e+01 4.693908e+01 4.436229e+01 4.439198e+01 4.337274e+01 4.160283e+01 4.171098e+01 3.876363e+01 3.872796e+01 3.725797e+01 2.937795e+01 4.300728e+01 2.780637e+01 -4.864622e+00 -3.149182e+01 -3.408939e+02 -2.310948e+02 -3.129851e+01 
-3.544550e+01 2.589291e+02 2.990136e+02 -2.141961e+02 -2.601941e+02 -1.735790e+02 -4.327925e+01 -1.571456e+02 1.161753e+02 -1.101281e+02 2.495609e+01 -3.766685e+01 -1.654253e+01 -2.421906e-01 -2.969033e+01 1.766408e+01 -3.181007e+01 2.216284e+01 -2.066443e+01 1.402626e+01 -4.473815e+00 2.778972e+00 8.955704e+00 -2.646553e+00 1.457285e+01 -9.216872e-01 1.401135e+01 4.024881e+00 1.142620e+01 9.440247e+00 8.157598e+00 1.401543e+01 6.429506e+00 1.649182e+01 6.686974e+00 1.670782e+01 8.502839e+00 1.611221e+01 1.018552e+01 1.607209e+01 1.008572e+01 1.696980e+01 1.015339e+01 1.617136e+01 1.161256e+01 1.385502e+01 1.350055e+01 1.135297e+01 1.516738e+01 9.571248e+00 1.581151e+01 8.338921e+00 1.577263e+01 7.576979e+00 1.413198e+01 8.285487e+00 9.948351e+00 2.597505e+01 1.263644e+01 3.169409e+00 9.903050e+01 2.649685e+01 -2.032821e+02 1.002854e+01 
3.853966e+01 -3.728318e+02 -2.510702e+02 1.429735e+02 -1.193053e+02 2.393816e+02 4.139609e+02 4.790587e+00 8.120702e+01 2.925555e+01 1.158934e+02 -4.687845e+01 3.627901e+01 -2.603364e+01 -4.001721e-01 -3.414839e+01 -1.681408e+01 -4.386027e+01 -2.440580e+01 -5.175059e+01 -2.885518e+01 -5.426807e+01 -3.622335e+01 -5.343362e+01 -4.224780e+01 -5.380342e+01 -4.403940e+01 -5.512762e+01 -4.574689e+01 -5.468718e+01 -4.844752e+01 -5.180793e+01 -5.285444e+01 -4.907594e+01 -5.419132e+01 -4.984432e+01 -5.207104e+01 -5.227044e+01 -4.989398e+01 -5.325383e+01 -4.804696e+01 -5.392553e+01 -4.640993e+01 -5.442960e+01 -4.546175e+01 -5.250220e+01 -4.509763e+01 -5.073219e+01 -4.392036e+01 -4.940407e+01 -4.118447e+01 -4.755501e+01 -3.739598e+01 -4.552090e+01 -3.115172e+01 -4.305255e+01 -2.043482e+01 -6.332109e+01 -3.743174e+01 -1.918133e+01 -7.067741e-01 -3.973136e+01 1.262480e+02 9.987511e+01 
2.321424e+01 -9.027726e+01 2.590242e+02 2.959533e+02 -4.305037e+01 -1.963396e+01 -4.915560e+00 1.026575e+02 8.220767e+01 -2.909531e+01 -2.507543e+01 2.447266e+01 3.535208e+01 -2.816575e+01 1.450548e+01 -2.827620e+01 5.683893e+00 -3.209802e+01 -3.665615e+00 -3.358118e+01 -1.273419e+01 -3.184319e+01 -2.153809e+01 -3.009859e+01 -2.661568e+01 -3.146865e+01 -2.763460e+01 -3.430594e+01 -2.843532e+01 -3.619878e+01 -2.959934e+01 -3.620502e+01 -3.220792e+01 -3.529129e+01 -3.363828e+01 -3.573603e+01 -3.350987e+01 -3.698894e+01 -3.335361e+01 -3.761332e+01 -3.268026e+01 -3.844105e+01 -3.205050e+01 -3.848252e+01 -3.237255e+01 -3.645644e+01 -3.326970e+01 -3.449234e+01 -3.368192e+01 -3.321435e+01 -3.307228e+01 -3.199087e+01 -3.206370e+01 -3.127370e+01 -2.933834e+01 -3.265884e+01 -2.301807e+01 -3.149329e+01 -4.094998e+01 2.250003e+01 -1.777734e+01 4.901716e+01 9.362209e+01 1.763889e+02 
2.548835e+02 3.800834e+02 2.440485e+02 -2.090916e+02 -3.966403e+02 -2.497952e+02 -3.412826e+00 -4.166570e+01 -2.236188e+01 2.384256e+01 -5.007072e+01 3.055928e+01 -2.528810e+00 -7.637910e+00 -3.104411e-01 -2.055533e+00 -8.407648e-01 -1.810316e+00 -8.338776e-01 -1.914115e+00 -6.316657e-01 -2.102914e+00 -3.348760e-01 -2.449026e+00 -8.648422e-02 -2.929444e+00 5.478053e-02 -3.294803e+00 -1.160004e-01 -3.251041e+00 -5.874370e-01 -2.811179e+00 -1.143409e+00 -2.320718e+00 -1.506880e+00 -2.096470e+00 -1.637804e+00 -2.184451e+00 -1.620455e+00 -2.357695e+00 -1.572318e+00 -2.432969e+00 -1.599495e+00 -2.354959e+00 -1.683452e+00 -2.142923e+00 -1.811106e+00 -1.898773e+00 -1.998839e+00 -1.631037e+00 -2.278068e+00 -1.225705e+00 -2.930644e+00 -3.020601e-01 -4.664152e+00 1.809669e+00 -8.244623e+00 2.677837e+00 -4.344870e+00 -1.383848e+01 -7.736832e+01 3.471785e+01 1.288402e+02 3.234721e+02 
1.633644e+02 -1.057087e+02 -8.687850e+01 -3.596441e+02 -3.334787e+02 -3.084345e+02 -2.367848e+02 4.024691e+01 -1.330690e+02 1.876521e+01 1.393821e+01 -3.702437e+01 -9.288458e-01 -2.585083e+00 1.021947e+00 -4.155947e-01 8.011962e-01 3.274607e-01 6.800915e-01 4.108332e-01 4.596329e-01 3.078559e-01 2.957999e-01 2.056462e-01 2.088499e-01 1.228313e-01 1.475458e-01 4.537969e-02 7.927332e-02 -3.332433e-02 1.848046e-02 -7.158373e-02 -5.194263e-04 -5.780270e-02 5.795080e-03 -3.778024e-02 7.518273e-03 -3.482888e-02 -1.035115e-04 -4.159696e-02 -5.549564e-03 -5.299339e-02 -8.093350e-03 -6.724409e-02 -1.333197e-02 -8.522684e-02 -2.309678e-02 -1.166924e-01 -3.295539e-02 -1.867867e-01 -2.098986e-02 -3.751085e-01 3.067768e-03 -8.119172e-01 -5.426568e-01 -1.099934e+00 -4.285278e+00 -8.214870e-01 -9.978051e+00 -1.718123e+01 7.322362e+00 -6.548027e+01 2.394203e+01 -4.608927e+01 
-2.000640e+02 -1.098423e+02 -2.417926e+02 -1.719832e+02 1.372625e+01 3.961591e+01 -1.251938e+02 -1.325445e+02 -2.690777e+01 -7.655705e+01 -4.823286e+01 5.984113e+00 -4.926162e+00 5.662263e-01 -1.817606e+00 -1.057580e+00 -1.043492e+00 -6.960888e-01 -6.251483e-01 -4.215773e-01 -3.931768e-01 -2.761210e-01 -2.546998e-01 -1.684165e-01 -1.470967e-01 -8.249538e-02 -6.895603e-02 -3.522397e-02 -3.964600e-02 -2.948597e-02 -4.734573e-02 -3.433032e-02 -4.984104e-02 -2.597386e-02 -3.696371e-02 -1.277424e-02 -2.173288e-02 -6.668905e-03 -1.103118e-02 -3.874146e-03 -4.646959e-03 3.384910e-03 -4.503678e-03 1.918107e-02 -1.511455e-02 5.427888e-02 -5.334050e-02 1.412801e-01 -1.667901e-01 3.670685e-01 -4.715491e-01 9.311957e-01 -1.245016e+00 2.247313e+00 -3.142783e+00 5.123603e+00 -7.904352e+00 9.367941e+00 -1.703327e+01 7.545477e+00 -1.302981e+01 -1.163984e+01 3.024951e+01 -1.031331e+02 
-1.354605e+01 4.952179e+00 -1.868680e+02 -8.614507e+01 -3.732024e+01 -9.878091e+01 -4.579247e+01 1.725159e+02 -1.958704e+01 -6.577950e+01 -9.310243e+00 -2.075034e+01 -4.453125e+00 -2.149399e+00 -4.716435e-01 -6.238769e-01 1.740477e-01 -3.935012e-02 3.582108e-01 2.021867e-01 3.485304e-01 2.284180e-01 2.561906e-01 1.886921e-01 1.732129e-01 1.502146e-01 1.166237e-01 1.142566e-01 7.180835e-02 6.958811e-02 3.576984e-02 2.923698e-02 1.746310e-02 8.268857e-03 1.437804e-02 7.172630e-04 1.465478e-02 -2.991229e-03 1.235987e-02 -6.779359e-03 1.028437e-02 -1.280884e-02 1.023783e-02 -2.178542e-02 1.096397e-02 -3.502949e-02 1.328120e-02 -5.793541e-02 2.214663e-02 -9.805527e-02 4.362068e-02 -1.511060e-01 4.998206e-02 -1.354911e-01 -1.984192e-01 2.763051e-01 -2.046909e+00 1.553772e+00 -1.042489e+01 -4.677078e+00 -2.290804e+01 -2.287991e+01 -1.003692e+02 2.013293e+01 
2.619930e+01 1.722319e+02 -7.935802e+01 -1.352396e+02 -6.295197e+00 3.933159e+01 4.587506e+01 -6.616765e+01 -2.036100e+02 -9.050700e+01 -5.232103e+01 1.342799e+01 7.443851e+00 4.667139e+00 -8.293307e-01 -9.109559e-01 -1.126366e+00 -9.109875e-01 -8.989814e-01 -7.095224e-01 -6.342784e-01 -4.763043e-01 -3.982337e-01 -2.945681e-01 -2.343892e-01 -1.739634e-01 -1.322958e-01 -1.022346e-01 -7.786147e-02 -6.562106e-02 -5.433202e-02 -4.715339e-02 -4.164717e-02 -3.399480e-02 -2.940190e-02 -2.337093e-02 -1.724808e-02 -1.651038e-02 -6.860658e-03 -1.177726e-02 9.928993e-04 -5.507823e-03 5.129996e-03 6.364532e-03 2.577580e-03 3.193692e-02 -1.449621e-02 8.932319e-02 -6.175168e-02 2.139221e-01 -1.603798e-01 4.640611e-01 -3.140712e-01 9.430546e-01 -4.294175e-01 2.060733e+00 -5.960246e-01 7.007242e+00 -9.248345e+00 2.473824e+01 -4.168742e+01 6.025090e+00 -6.068229e+01 2.952631e+01 
-1.508430e+02 5.441096e+01 1.453937e+02 -6.813025e+01 -7.987997e+01 -4.540360e+00 -1.728808e+01 -1.469907e+02 -4.915940e+01 4.467726e+01 8.186256e+01 2.397717e+01 -1.091874e+01 -1.569862e+01 -9.139937e+00 -4.415766e+00 -1.391601e+00 -2.574719e-01 3.175452e-01 3.752132e-01 4.264441e-01 3.461871e-01 3.204280e-01 2.547939e-01 2.208413e-01 1.810189e-01 1.489967e-01 1.258167e-01 9.796485e-02 8.121957e-02 6.188571e-02 4.647626e-02 3.915321e-02 2.349952e-02 2.685240e-02 9.695859e-03 1.985343e-02 5.723577e-04 1.454926e-02 -7.222197e-03 1.020171e-02 -1.588340e-02 6.497958e-03 -2.677351e-02 2.331561e-03 -4.101978e-02 -3.532325e-03 -5.870894e-02 -1.357655e-02 -7.177997e-02 -3.656114e-02 -4.370488e-02 -8.572997e-02 1.014822e-01 1.831406e-02 1.778584e-02 2.787106e+00 -4.885033e+00 2.019206e+01 -1.833005e+01 -8.044261e+00 3.256491e+01 -9.927166e+01 4.913359e+01 
-1.111401e+02 2.526074e+01 2.092100e+02 -7.717235e+01 -7.794374e+01 1.811919e+01 3.651657e+00 -1.862243e+01 4.683998e+01 2.932389e+01 -6.847166e+01 -7.135074e+01 -4.376251e+01 -2.420559e+01 -1.421842e+01 -6.719433e+00 -4.328831e+00 -2.301698e+00 -1.710053e+00 -1.126690e+00 -9.071360e-01 -6.587769e-01 -5.262142e-01 -3.950710e-01 -3.063615e-01 -2.375853e-01 -1.781236e-01 -1.452156e-01 -1.057609e-01 -9.238391e-02 -6.626048e-02 -6.201148e-02 -4.333257e-02 -4.336277e-02 -2.735043e-02 -3.128131e-02 -1.437435e-02 -2.371534e-02 -3.190493e-03 -1.902178e-02 6.682960e-03 -1.538555e-02 1.554796e-02 -1.110919e-02 2.373063e-02 -4.236579e-03 3.226240e-02 6.985379e-03 4.628618e-02 1.975911e-02 8.611849e-02 1.131826e-02 2.210076e-01 -1.200112e-01 7.138105e-01 -9.519288e-01 3.259313e+00 -7.465482e+00 2.150837e+01 -3.280264e+01 3.464294e+01 6.406352e+01 -1.214178e+02 1.418890e+02 
-2.147267e+01 -1.358465e+02 1.002982e+02 -1.728877e+01 -8.512668e+01 -7.638562e+00 -1.240254e+01 1.300619e+01 -1.445701e+01 -8.366252e+01 -5.995281e+01 5.407378e+00 3.013036e+01 2.793340e+01 1.308002e+01 5.995953e+00 2.511894e+00 1.988563e+00 1.390701e+00 1.174379e+00 8.273392e-01 6.526446e-01 4.722106e-01 3.763044e-01 2.851622e-01 2.327425e-01 1.814703e-01 1.497509e-01 1.183145e-01 9.594459e-02 7.748231e-02 5.901439e-02 5.097330e-02 3.393662e-02 3.406618e-02 1.708732e-02 2.287000e-02 5.120829e-03 1.446768e-02 -4.632384e-03 7.027858e-03 -1.404894e-02 -1.128534e-03 -2.425259e-02 -1.257179e-02 -3.544047e-02 -3.203919e-02 -4.527369e-02 -7.002014e-02 -4.320885e-02 -1.517656e-01 2.015677e-03 -3.259755e-01 1.276852e-01 -5.178273e-01 -4.603188e-02 8.454855e-01 -3.373187e+00 1.122405e+01 -1.059752e+01 3.515836e+01 5.393871e+01 -6.526117e+01 2.007769e+02 
4.917510e+01 -1.827954e+02 5.148404e+01 -4.759717e+00 -6.752230e+01 6.368232e+00 7.085500e-01 -1.689285e+00 -8.757771e+00 -2.115510e+00 1.649590e+01 1.580596e+01 8.798055e-01 -7.932749e+00 -6.788367e+00 -5.486391e+00 -3.050919e+00 -2.046995e+00 -1.268774e+00 -9.408298e-01 -7.139733e-01 -5.683580e-01 -4.575078e-01 -3.679854e-01 -2.919432e-01 -2.377023e-01 -1.826457e-01 -1.535975e-01 -1.136754e-01 -1.008426e-01 -7.137357e-02 -6.811661e-02 -4.486077e-02 -4.761237e-02 -2.677743e-02 -3.466508e-02 -1.296975e-02 -2.672703e-02 -1.313767e-03 -2.225461e-02 9.396387e-03 -2.024968e-02 2.011778e-02 -2.032740e-02 3.199190e-02 -2.300257e-02 4.679916e-02 -3.057882e-02 6.729853e-02 -4.868238e-02 9.467651e-02 -8.538033e-02 1.119016e-01 -1.459630e-01 7.078605e-02 -4.009247e-01 5.021150e-01 -2.558547e+00 6.182860e+00 -8.084452e+00 2.619192e+01 1.260199e+01 -2.865686e+01 1.427629e+02 
8.338148e+01 -6.550601e+01 5.407761e+01 1.868609e+00 -7.906565e+01 -1.871853e+00 -5.894254e+00 -1.064411e+01 -7.852480e+00 -5.103125e-01 -1.524557e+01 -3.675360e+01 -3.730020e+01 -2.441981e+01 -1.264915e+01 -3.940949e+00 -4.914785e-01 1.491642e+00 1.530282e+00 1.504041e+00 1.065935e+00 8.587703e-01 5.857739e-01 4.707747e-01 3.322150e-01 2.753300e-01 2.020356e-01 1.704317e-01 1.288900e-01 1.080545e-01 8.414754e-02 6.803758e-02 5.533906e-02 4.138311e-02 3.615525e-02 2.321509e-02 2.262798e-02 1.031133e-02 1.189271e-02 4.421244e-04 1.609814e-03 -7.761804e-03 -1.083666e-02 -1.468734e-02 -2.959314e-02 -1.905927e-02 -6.285885e-02 -1.548456e-02 -1.296223e-01 1.340004e-02 -2.794267e-01 1.180426e-01 -6.392181e-01 3.744489e-01 -1.342446e+00 1.967516e-01 -1.012560e+00 -5.199446e+00 7.336350e+00 -2.203020e+01 2.339047e+01 -2.731216e+01 -8.857421e+00 -7.943785e+00 
5.531674e+01 -5.005778e+01 4.694704e+01 2.697008e+00 -6.367879e+01 2.837749e+00 -1.372209e+00 -2.605706e+00 -3.613022e+00 -4.656327e+00 -5.041999e+00 2.891351e+00 7.329624e+00 8.266374e+00 3.655483e+00 4.640528e-01 -9.726406e-01 -1.108089e+00 -8.401752e-01 -6.338763e-01 -4.713088e-01 -3.844543e-01 -3.183227e-01 -2.690790e-01 -2.253101e-01 -1.908252e-01 -1.549656e-01 -1.330151e-01 -1.034651e-01 -9.195849e-02 -6.767116e-02 -6.391602e-02 -4.311799e-02 -4.517733e-02 -2.569402e-02 -3.285397e-02 -1.245674e-02 -2.498118e-02 -1.574826e-03 -2.025491e-02 8.015288e-03 -1.780370e-02 1.681961e-02 -1.704539e-02 2.458737e-02 -1.739061e-02 2.906013e-02 -1.709398e-02 2.119477e-02 -8.183631e-03 -3.267509e-02 4.328008e-02 -2.483005e-01 2.247588e-01 -8.468434e-01 1.852317e-01 -7.062830e-01 -4.823146e+00 8.732857e+00 -2.596030e+01 2.993523e+01 -3.963346e+01 3.777040e+00 -1.552905e+01 
2.519113e+01 -3.464688e+01 1.709187e+01 5.194537e+00 -6.152798e+01 -7.178223e-01 -4.342727e+00 -5.364802e+00 -5.818864e+00 -5.708540e+00 -3.465352e+00 -5.913913e+00 -1.100900e+01 -1.548555e+01 -1.437701e+01 -1.019505e+01 -5.575133e+00 -2.136568e+00 -4.250168e-01 4.438713e-01 5.663930e-01 6.188835e-01 4.707962e-01 4.223411e-01 3.027202e-01 2.675484e-01 1.920404e-01 1.711068e-01 1.241764e-01 1.107452e-01 8.130341e-02 7.159874e-02 5.310271e-02 4.549024e-02 3.371676e-02 2.774286e-02 1.941978e-02 1.547932e-02 7.447264e-03 6.954207e-03 -4.723930e-03 1.421874e-03 -2.019581e-02 -5.718514e-04 -4.404144e-02 3.878127e-03 -8.631557e-02 2.309239e-02 -1.696212e-01 7.879585e-02 -3.478402e-01 2.187098e-01 -7.265570e-01 4.429112e-01 -1.215090e+00 -1.588192e-01 4.835241e-01 -6.406221e+00 1.207652e+01 -2.329744e+01 2.836065e+01 -2.635034e+01 6.102496e+00 -3.876855e+00 
1.351962e+01 -2.700754e+01 1.447941e+01 2.912873e+00 -4.824094e+01 1.800714e+00 -1.564046e+00 -2.874761e+00 -4.159904e+00 -3.168034e+00 -2.634052e+00 -2.700049e+00 -3.447268e+00 -2.307965e+00 -1.972456e+00 -1.059355e+00 -1.137185e+00 -6.964346e-01 -6.205490e-01 -3.688784e-01 -3.205068e-01 -2.249761e-01 -2.138308e-01 -1.701760e-01 -1.610307e-01 -1.325497e-01 -1.195287e-01 -9.986111e-02 -8.518876e-02 -7.293076e-02 -5.845789e-02 -5.232244e-02 -3.849730e-02 -3.731179e-02 -2.364989e-02 -2.667320e-02 -1.232650e-02 -1.919033e-02 -3.421456e-03 -1.376762e-02 3.541427e-03 -9.302620e-03 8.171082e-03 -4.312316e-03 8.421316e-03 4.037501e-03 -1.723796e-03 2.264826e-02 -3.879908e-02 7.034755e-02 -1.471816e-01 1.960599e-01 -4.222534e-01 4.568424e-01 -8.076756e-01 3.190910e-01 6.393929e-01 -3.926341e+00 1.040893e+01 -1.738122e+01 2.391482e+01 -1.818447e+01 4.020865e+00 1.160930e-01 
7.885321e+00 -1.494538e+01 7.432316e+00 3.854487e+00 -4.775961e+01 -3.431582e-01 -3.332093e+00 -4.013848e+00 -4.395292e+00 -4.192755e+00 -3.319542e+00 -3.829227e+00 -5.355373e+00 -7.218866e+00 -7.590683e+00 -6.614823e+00 -4.609129e+00 -2.678283e+00 -1.267082e+00 -3.736889e-01 5.963865e-03 2.314927e-01 2.345996e-01 2.723299e-01 2.083669e-01 2.100844e-01 1.511171e-01 1.481246e-01 1.038112e-01 1.014274e-01 6.956513e-02 6.845210e-02 4.531730e-02 4.563874e-02 2.775789e-02 3.005199e-02 1.415565e-02 1.968365e-02 2.177789e-03 1.341931e-02 -1.052949e-02 1.112775e-02 -2.699745e-02 1.407369e-02 -5.209537e-02 2.599109e-02 -9.481724e-02 5.549767e-02 -1.727663e-01 1.202991e-01 -3.172564e-01 2.436672e-01 -5.403372e-01 3.487714e-01 -4.859828e-01 -3.821374e-01 1.988928e+00 -4.896756e+00 1.089073e+01 -1.474774e+01 1.868066e+01 -1.243027e+01 3.709270e+00 -1.272707e+00 
6.198553e+00 -1.172004e+01 8.061525e+00 1.665468e+00 -3.740317e+01 1.432118e+00 -1.523625e+00 -2.543657e+00 -3.572302e+00 -2.983257e+00 -2.037324e+00 -2.028147e+00 -3.195172e+00 -3.858175e+00 -3.841851e+00 -2.696928e+00 -1.864621e+00 -8.910222e-01 -5.776005e-01 -2.250227e-01 -2.170470e-01 -1.083208e-01 -1.448612e-01 -9.468200e-02 -1.162978e-01 -8.316536e-02 -9.079273e-02 -6.739258e-02 -6.739992e-02 -5.140216e-02 -4.786508e-02 -3.757277e-02 -3.254934e-02 -2.651755e-02 -2.090012e-02 -1.790833e-02 -1.216449e-02 -1.099767e-02 -5.849202e-03 -4.784739e-03 -2.032989e-03 2.123095e-03 -1.787933e-03 1.202028e-02 -8.084631e-03 2.933233e-02 -2.784095e-02 6.348700e-02 -7.622278e-02 1.351851e-01 -1.824252e-01 2.832545e-01 -3.669275e-01 5.059960e-01 -3.677853e-01 2.410660e-01 1.508281e+00 -3.179940e+00 8.689636e+00 -1.202255e+01 1.546870e+01 -1.047110e+01 3.374432e+00 -5.264509e-01 
3.704506e+00 -6.479958e+00 4.378905e+00 2.373814e+00 -3.799760e+01 -2.690859e-01 -2.772396e+00 -3.227579e+00 -3.690786e+00 -3.445678e+00 -2.694150e+00 -3.001179e+00 -4.117477e+00 -5.387359e+00 -5.606474e+00 -4.929194e+00 -3.592430e+00 -2.280556e+00 -1.254530e+00 -5.665820e-01 -2.160845e-01 1.505754e-02 6.818404e-02 1.418124e-01 1.143942e-01 1.419343e-01 1.004003e-01 1.134026e-01 7.525622e-02 8.363174e-02 5.224900e-02 5.958891e-02 3.395277e-02 4.194471e-02 1.969675e-02 2.975892e-02 7.988620e-03 2.205935e-02 -2.847775e-03 1.837794e-02 -1.470447e-02 1.905002e-02 -3.004891e-02 2.563022e-02 -5.257806e-02 4.166069e-02 -8.818967e-02 7.394748e-02 -1.456886e-01 1.335177e-01 -2.318198e-01 2.263676e-01 -3.026878e-01 2.623099e-01 1.712279e-02 -4.103819e-01 2.261697e+00 -3.917404e+00 8.478773e+00 -1.077921e+01 1.250455e+01 -8.412850e+00 3.205977e+00 -1.085366e+00 
3.760113e+00 -6.004696e+00 4.935490e+00 8.260508e-01 -2.946375e+01 1.219939e+00 -1.476950e+00 -2.245967e+00 -3.095765e+00 -2.672781e+00 -1.803237e+00 -1.696520e+00 -2.536450e+00 -3.428821e+00 -3.652903e+00 -2.945663e+00 -2.099289e+00 -1.103960e+00 -6.479243e-01 -2.257647e-01 -1.892420e-01 -5.814281e-02 -1.117288e-01 -5.074680e-02 -9.113760e-02 -4.951932e-02 -7.176119e-02 -4.184606e-02 -5.336355e-02 -3.217226e-02 -3.811845e-02 -2.306308e-02 -2.637352e-02 -1.524031e-02 -1.769639e-02 -8.533177e-03 -1.158985e-02 -2.315398e-03 -7.856509e-03 4.412663e-03 -6.861420e-03 1.321340e-02 -9.888063e-03 2.673220e-02 -1.978020e-02 4.978325e-02 -4.204614e-02 9.146759e-02 -8.617252e-02 1.685779e-01 -1.633185e-01 3.039101e-01 -2.513157e-01 4.566618e-01 -7.191479e-02 8.289585e-02 1.634282e+00 -2.874888e+00 6.810232e+00 -9.112644e+00 1.048682e+01 -7.153786e+00 2.764115e+00 -7.066152e-01 
2.359300e+00 -3.327088e+00 2.555180e+00 1.545430e+00 -3.049072e+01 -3.291702e-01 -2.424165e+00 -2.728968e+00 -3.215516e+00 -3.036158e+00 -2.411130e+00 -2.544112e+00 -3.326360e+00 -4.449501e+00 -4.672375e+00 -4.195460e+00 -3.114410e+00 -2.009290e+00 -1.144901e+00 -5.485813e-01 -2.521020e-01 -4.656955e-02 9.333059e-04 7.551247e-02 5.655097e-02 9.232129e-02 5.929799e-02 8.069194e-02 4.768491e-02 6.322876e-02 3.385973e-02 4.742820e-02 2.152345e-02 3.529415e-02 1.114735e-02 2.694284e-02 2.063209e-03 2.212474e-02 -6.790827e-03 2.084795e-02 -1.672683e-02 2.370405e-02 -2.941687e-02 3.218348e-02 -4.707819e-02 4.910152e-02 -7.246747e-02 7.909128e-02 -1.077425e-01 1.283404e-01 -1.476769e-01 1.956883e-01 -1.400210e-01 1.959486e-01 2.179585e-01 -4.228038e-01 2.029178e+00 -3.310753e+00 6.491509e+00 -8.245481e+00 8.799855e+00 -6.035343e+00 2.538100e+00 -7.393781e-01 
2.791041e+00 -3.623558e+00 3.158286e+00 4.188481e-01 -2.321351e+01 1.002559e+00 -1.388842e+00 -1.950857e+00 -2.733731e+00 -2.423542e+00 -1.766290e+00 -1.644942e+00 -2.152551e+00 -3.010321e+00 -3.241783e+00 -2.826158e+00 -2.118367e+00 -1.217620e+00 -7.330403e-01 -2.791583e-01 -2.112826e-01 -5.666815e-02 -1.075716e-01 -3.446445e-02 -8.065844e-02 -3.081276e-02 -5.994987e-02 -2.419798e-02 -4.247492e-02 -1.699929e-02 -2.938696e-02 -1.066343e-02 -2.020537e-02 -5.216175e-03 -1.404528e-02 -1.663202e-04 -1.028118e-02 5.214109e-03 -8.744342e-03 1.194371e-02 -9.828301e-03 2.157146e-02 -1.466105e-02 3.662040e-02 -2.538971e-02 6.134206e-02 -4.547767e-02 1.028921e-01 -7.939176e-02 1.724075e-01 -1.283060e-01 2.788178e-01 -1.599184e-01 3.596737e-01 6.143975e-02 -8.144376e-02 1.477240e+00 -2.585614e+00 5.243547e+00 -6.934850e+00 7.308634e+00 -4.947393e+00 2.075687e+00 -6.438322e-01 
1.686215e+00 -1.887461e+00 1.507466e+00 1.096444e+00 -2.435053e+01 -4.774171e-01 -2.005611e+00 -2.228831e+00 -2.814120e+00 -2.704322e+00 -2.441644e+00 -2.380424e+00 -2.806911e+00 -3.901550e+00 -4.091831e+00 -3.804078e+00 -2.906918e+00 -1.883640e+00 -1.092741e+00 -5.021232e-01 -2.361192e-01 -3.925780e-02 -9.557054e-03 5.633986e-02 3.183576e-02 6.463524e-02 3.315024e-02 5.547984e-02 2.599475e-02 4.403736e-02 1.773529e-02 3.419010e-02 1.021231e-02 2.684603e-02 3.553588e-03 2.207464e-02 -2.679812e-03 1.987771e-02 -9.132996e-03 2.050036e-02 -1.658717e-02 2.460790e-02 -2.596603e-02 3.345434e-02 -3.827298e-02 4.906556e-02 -5.422300e-02 7.436316e-02 -7.295935e-02 1.125940e-01 -8.702444e-02 1.592229e-01 -5.347254e-02 1.347325e-01 2.605265e-01 -4.293008e-01 1.675666e+00 -2.774244e+00 4.937866e+00 -6.296939e+00 6.365010e+00 -4.365504e+00 1.929017e+00 -4.885848e-01 
2.161176e+00 -2.404943e+00 2.135772e+00 1.810497e-01 -1.798919e+01 6.857777e-01 -9.216404e-01 -1.343395e+00 -2.323771e+00 -1.937117e+00 -2.087437e+00 -2.089320e+00 -1.775345e+00 -2.456540e+00 -2.715252e+00 -2.640234e+00 -2.168444e+00 -1.333999e+00 -8.625549e-01 -3.640607e-01 -2.675191e-01 -8.429997e-02 -1.212401e-01 -3.616227e-02 -7.753565e-02 -2.221753e-02 -5.085833e-02 -1.248192e-02 -3.249562e-02 -5.639322e-03 -2.081792e-02 -9.905045e-04 -1.380957e-02 2.601159e-03 -9.862469e-03 6.135065e-03 -8.087946e-03 1.048650e-02 -8.237401e-03 1.663536e-02 -1.060911e-02 2.594727e-02 -1.603488e-02 4.050963e-02 -2.590385e-02 6.355100e-02 -4.205865e-02 9.987226e-02 -6.608284e-02 1.555262e-01 -9.566167e-02 2.300854e-01 -1.011765e-01 2.551759e-01 1.057102e-01 -1.871760e-01 1.228146e+00 -2.194924e+00 3.956989e+00 -5.176178e+00 5.154418e+00 -3.432176e+00 1.526753e+00 -5.607782e-01 
1.178335e+00 -1.090138e+00 8.794537e-01 8.123212e-01 -1.906579e+01 -7.846695e-01 -8.773263e-01 -1.157920e+00 -2.310439e+00 -1.712017e+00 -2.915754e+00 -5.305348e+00 6.020088e-01 2.102257e+00 -1.578555e+00 -3.129784e+00 -2.824491e+00 -1.839534e+00 -1.101142e+00 -4.601185e-01 -2.081183e-01 -8.933314e-03 4.114571e-03 5.743317e-02 2.522881e-02 4.889130e-02 1.781381e-02 3.587093e-02 1.039808e-02 2.686932e-02 5.239100e-03 2.116265e-02 1.364883e-03 1.765864e-02 -2.077628e-03 1.585402e-02 -5.622404e-03 1.572033e-02 -9.661200e-03 1.757330e-02 -1.456628e-02 2.204417e-02 -2.070876e-02 3.011535e-02 -2.834207e-02 4.316207e-02 -3.725472e-02 6.291199e-02 -4.592980e-02 9.075784e-02 -4.837967e-02 1.204066e-01 -1.280959e-02 8.147718e-02 2.372485e-01 -4.028491e-01 1.312015e+00 -2.227982e+00 3.696245e+00 -4.723588e+00 4.647000e+00 -3.178134e+00 1.457176e+00 -3.246546e-01 
1.663790e+00 -1.675669e+00 1.506106e+00 -2.959923e-03 -1.340349e+01 1.072745e-02 9.445137e-01 6.641767e-01 -2.304867e+00 3.330227e-01 -4.769749e-01 -2.029955e+01 1.277338e+01 4.317905e+01 2.169578e+01 3.917608e+00 -1.132421e+00 -1.336583e+00 -1.062295e+00 -5.027340e-01 -3.562301e-01 -1.342366e-01 -1.408963e-01 -4.614868e-02 -7.308762e-02 -1.751094e-02 -3.968127e-02 -3.668060e-03 -2.124775e-02 2.940421e-03 -1.167806e-02 5.971844e-03 -7.094189e-03 7.806550e-03 -5.257946e-03 9.840606e-03 -5.138752e-03 1.297528e-02 -6.465637e-03 1.804058e-02 -9.453915e-03 2.609882e-02 -1.467145e-02 3.867561e-02 -2.294020e-02 5.792881e-02 -3.512827e-02 8.663430e-02 -5.154670e-02 1.272747e-01 -6.935543e-02 1.747901e-01 -6.489528e-02 1.674316e-01 1.053388e-01 -2.176332e-01 9.498980e-01 -1.725849e+00 2.878234e+00 -3.724233e+00 3.590988e+00 -2.361672e+00 1.122980e+00 -4.968442e-01 
7.666796e-01 -5.826270e-01 4.610102e-01 6.070985e-01 -1.432920e+01 -1.671632e+00 2.404874e+00 3.233714e+00 -4.794221e+00 3.385933e+00 3.730680e+00 -4.747943e+01 1.623126e+01 1.080660e+02 8.379225e+01 3.269703e+01 7.073719e+00 2.658599e-01 -7.909007e-01 -3.831763e-01 -1.654156e-01 1.914973e-02 2.399607e-02 5.712568e-02 2.313607e-02 3.372053e-02 6.993313e-03 1.787975e-02 -8.501713e-04 1.129054e-02 -3.486063e-03 9.116810e-03 -4.408826e-03 8.686201e-03 -5.225817e-03 9.100429e-03 -6.501675e-03 1.031551e-02 -8.417438e-03 1.267010e-02 -1.105155e-02 1.672075e-02 -1.443477e-02 2.320477e-02 -1.846388e-02 3.301878e-02 -2.268623e-02 4.711313e-02 -2.587127e-02 6.580587e-02 -2.407574e-02 8.272525e-02 4.884240e-03 4.167202e-02 1.889579e-01 -3.375378e-01 9.655043e-01 -1.673686e+00 2.661095e+00 -3.409875e+00 3.334550e+00 -2.297793e+00 1.102801e+00 -2.264141e-01 
1.266572e+00 -1.190296e+00 1.081041e+00 -1.576907e-01 -9.213526e+00 -1.612824e+00 5.699541e+00 1.128270e+01 -1.178189e+01 1.289030e+01 5.577263e+00 -5.646555e+01 -3.054423e+01 6.070713e+01 1.091033e+02 7.082606e+01 2.954732e+01 9.369426e+00 1.885021e+00 9.074656e-02 -2.689244e-01 -1.562402e-01 -1.419456e-01 -5.238979e-02 -5.899897e-02 -1.089312e-02 -2.339325e-02 4.638280e-03 -8.110322e-03 9.442875e-03 -2.250139e-03 1.026396e-02 -5.608909e-04 1.025918e-02 -7.105969e-04 1.082216e-02 -1.853083e-03 1.265005e-02 -3.849542e-03 1.630437e-02 -6.910712e-03 2.248892e-02 -1.143747e-02 3.218439e-02 -1.790834e-02 4.666714e-02 -2.670199e-02 6.730885e-02 -3.769461e-02 9.462351e-02 -4.853771e-02 1.226648e-01 -4.220867e-02 1.041560e-01 8.166774e-02 -1.853018e-01 6.644188e-01 -1.218530e+00 1.940185e+00 -2.489299e+00 2.366334e+00 -1.562793e+00 8.267404e-01 -4.662620e-01 
4.361623e-01 -2.229398e-01 1.425180e-01 4.670575e-01 -9.930622e+00 -2.812393e+00 7.651829e+00 1.628237e+01 -1.666372e+01 1.999618e+01 -2.806473e+00 -4.205570e+01 -1.178990e+02 -7.790320e+01 5.228370e+01 6.653631e+01 4.088377e+01 1.782310e+01 5.774610e+00 1.354009e+00 2.187194e-01 6.203494e-02 3.723420e-02 4.195157e-02 1.660265e-02 1.344164e-02 -3.185499e-03 4.672132e-05 -8.801602e-03 -2.262941e-03 -8.429856e-03 -9.759586e-04 -6.903576e-03 9.036623e-04 -5.789187e-03 2.669204e-03 -5.391190e-03 4.430078e-03 -5.655625e-03 6.554043e-03 -6.460769e-03 9.503977e-03 -7.665344e-03 1.380310e-02 -9.056566e-03 2.001305e-02 -1.024697e-02 2.864105e-02 -1.049780e-02 3.961373e-02 -7.600699e-03 4.807213e-02 1.231899e-02 1.567219e-02 1.325283e-01 -2.420798e-01 6.389450e-01 -1.122459e+00 1.754242e+00 -2.267334e+00 2.252039e+00 -1.606454e+00 8.364142e-01 -1.848286e-01 
9.493213e-01 -8.339896e-01 7.546715e-01 -2.763900e-01 -5.238663e+00 1.079318e+00 7.823243e+00 8.700525e+00 -1.638737e+01 1.030652e+01 5.883041e+00 -1.688198e+01 -1.494707e+02 -1.192369e+02 -3.888477e+00 5.209355e+01 5.072154e+01 2.743427e+01 1.242852e+01 4.707847e+00 1.414774e+00 3.215488e-01 1.938600e-03 -2.045312e-02 -2.950459e-02 8.039022e-04 -3.406356e-03 1.258678e-02 4.937600e-03 1.348905e-02 5.856554e-03 1.163875e-02 4.676659e-03 9.947658e-03 3.019120e-03 9.264671e-03 1.191560e-03 9.867959e-03 -9.246667e-04 1.198754e-02 -3.590433e-03 1.598149e-02 -7.115145e-03 2.238181e-02 -1.179281e-02 3.184679e-02 -1.779311e-02 4.495165e-02 -2.492433e-02 6.149631e-02 -3.162736e-02 7.705868e-02 -2.767249e-02 6.274394e-02 4.519774e-02 -1.102599e-01 3.785423e-01 -6.977191e-01 1.090076e+00 -1.395856e+00 1.334858e+00 -9.269729e-01 6.066845e-01 -4.739951e-01 
1.478371e-01 8.252318e-02 -1.510895e-01 3.566402e-01 -5.712940e+00 3.592237e+00 3.737132e+00 -6.668709e+00 -6.166276e+00 -2.169501e+01 3.122575e+01 -3.101268e+00 -1.039193e+02 -7.504824e+01 -2.547688e+01 4.027769e+01 5.744555e+01 3.436635e+01 1.650720e+01 6.852734e+00 2.479969e+00 7.868358e-01 2.366639e-01 6.534250e-02 1.352911e-02 -7.484032e-03 -1.224999e-02 -1.504074e-02 -1.281975e-02 -1.189925e-02 -9.343073e-03 -7.864136e-03 -6.218758e-03 -4.800268e-03 -4.053103e-03 -2.702677e-03 -2.670514e-03 -1.226767e-03 -1.806867e-03 -1.555004e-05 -1.233857e-03 1.255915e-03 -7.549134e-04 2.896661e-03 -1.728848e-04 5.217953e-03 7.407063e-04 8.517077e-03 2.280813e-03 1.284769e-02 5.278015e-03 1.598421e-02 1.602243e-02 -6.763247e-04 7.501851e-02 -1.289361e-01 3.284203e-01 -5.791101e-01 9.221800e-01 -1.228627e+00 1.298766e+00 -1.029510e+00 6.322427e-01 -1.830137e-01 