# vtk DataFile Version 2.0
Comment goes here
ASCII

DATASET STRUCTURED_POINTS
DIMENSIONS    64   64   1

ORIGIN    0.000   0.000   0.000
SPACING   0.0156250.015625   1.000

POINT_DATA   4096
SCALARS Omega double
LOOKUP_TABLE default

-3.599081e+01 -1.792894e+02 1.534335e+02 2.250508e+02 2.107366e+02 4.102160e+02 5.714091e+02 -9.892606e+01 -1.400880e+02 9.549297e+01 -3.363264e+02 1.628065e+02 3.874139e+02 -2.669598e+01 -2.074308e+01 -7.375557e+01 1.870047e-01 2.584221e+01 1.447012e+01 1.544425e+01 1.129040e+01 6.906474e+00 8.199979e+00 2.178783e+00 3.095698e+00 1.782993e+00 9.943293e-01 2.526291e+00 -1.102993e+00 -7.467095e-01 -5.447907e+00 -3.041465e+00 -6.307928e+00 -1.671444e+00 -3.283649e+00 -3.025825e+00 -1.676676e+00 -6.177582e+00 4.442506e+00 -2.604405e+00 8.823187e+00 3.912992e+00 6.540250e+00 1.082199e+01 4.050059e+00 1.559722e+01 -6.357025e+00 1.899315e+01 -2.481658e+01 2.005304e+01 -8.768411e+00 -1.102987e+01 4.952191e+01 -3.260320e+01 4.477015e+01 2.950653e+02 2.054982e+02 2.067220e+02 -1.581937e+02 2.211520e+02 -3.395565e+02 -6.833584e+01 2.747166e+02 -2.683158e+02 
-8.301116e+01 -3.014650e+01 -2.463454e+02 5.868854e+01 -7.693708e+01 -3.270913e+02 5.010444e+02 -2.960994e+02 2.044920e+02 3.682697e+02 -8.129453e+01 -1.601208e+02 4.583288e+01 -4.946122e+01 6.448481e+01 -2.740609e+01 -1.270778e+01 -4.709713e+01 -3.057676e+01 -3.014008e+01 -2.484931e+01 -4.170810e+01 -4.513903e+00 -2.184421e+01 -6.861943e+00 4.193702e+00 1.721612e+01 4.240924e+00 4.838968e+01 1.708031e+01 4.752803e+01 2.939098e+01 3.906438e+01 3.092943e+01 4.161084e+01 1.569824e+01 6.222401e+01 -6.539115e+00 6.439826e+01 -1.303053e+01 4.116283e+01 9.179094e+00 3.643459e+01 2.475681e+01 4.469012e+01 2.452474e+01 3.800642e+01 1.359940e+01 3.730703e+01 -2.510707e+00 7.040495e+01 1.771928e+01 3.983075e+01 9.781723e+01 -4.183491e+01 4.055318e+00 1.449015e+02 2.426016e+02 -2.828174e+02 -2.333197e+02 7.313233e+01 2.125701e+02 3.106703e+02 -1.829974e+02 
-5.354943e+02 8.226148e+01 3.963501e+02 -5.799503e+01 -2.008237e+02 -1.855845e+02 -2.412646e+02 1.205391e+02 -3.549295e+02 -2.187991e+02 3.501674e+02 -1.477197e+01 -1.882565e+02 6.043099e+01 1.275047e+02 -3.587150e+01 7.514561e+01 2.362776e+01 1.420221e+01 4.322450e+01 3.909468e+01 -3.404230e+00 8.896873e+01 2.175227e+01 6.405037e+01 6.524465e+01 1.040047e+02 8.383291e+00 1.673213e+02 1.030590e+01 1.525935e+02 4.742458e+01 1.203967e+02 7.050232e+01 1.160142e+02 4.835306e+01 1.486645e+02 1.188921e+01 1.537284e+02 2.867856e+01 1.097497e+02 9.320350e+01 7.631421e+01 1.049501e+02 8.538585e+01 7.437279e+01 7.979927e+01 5.597352e+01 6.569631e+01 6.647279e+01 8.577908e+01 8.857570e+01 9.236963e+01 7.915212e+01 -7.849711e+01 -2.112788e+02 -2.205987e+02 -1.507558e+02 1.446694e+02 2.762845e+02 3.226726e+02 -1.328587e+02 -1.283806e+02 1.416156e+02 
3.320529e+02 1.598915e+02 2.132953e+02 -3.353786e+02 -1.571457e+02 3.346520e+02 -2.345268e+02 -2.524597e+02 3.180353e+02 3.240775e+01 -1.796053e+02 -1.880163e+01 2.050396e+02 -1.794801e+00 7.641109e+01 2.386226e+01 9.862060e+01 7.731625e+01 4.784819e+01 1.145076e+02 6.191422e+01 8.270398e+01 8.018957e+01 6.612267e+01 4.940467e+01 5.276296e+01 5.492877e+01 -8.422811e+00 7.061996e+01 -2.893228e+01 5.114615e+01 -1.111250e+01 3.716266e+01 2.614033e+00 4.237231e+01 3.261544e-02 5.624220e+01 7.906503e+00 5.712774e+01 3.100441e+01 2.718511e+01 5.521268e+01 -8.949631e+00 6.080269e+01 -8.450664e+00 7.003325e+01 1.150138e+01 8.276933e+01 2.172190e+01 4.927233e+01 2.825868e+01 -5.961936e+01 9.462128e+01 -1.284082e+02 2.615889e+02 6.650152e+01 2.401446e+02 4.440290e+01 -1.325020e+02 -2.780625e+00 4.952097e+01 1.453257e+02 -1.187122e+02 2.130154e+02 
2.789216e+02 -4.414080e+02 -1.651001e+02 1.948157e+02 -3.810278e+02 -2.367207e+01 1.947956e+02 3.659776e+02 -1.996720e+02 -2.169433e+02 9.766587e+01 1.137318e+02 -1.646629e+02 7.743903e+00 -6.329109e+01 1.890043e+01 -6.864823e+01 -4.344622e+01 -3.789609e+01 -5.242900e+01 -8.498047e+01 5.444494e+00 -1.329732e+02 -1.232858e+01 -9.363016e+01 -5.884494e+01 -1.085582e+02 -1.526549e+01 -1.422201e+02 -2.499985e+01 -1.246015e+02 -6.106668e+01 -1.029835e+02 -9.206708e+01 -9.623796e+01 -7.758437e+01 -1.342696e+02 -3.895307e+01 -1.571830e+02 -4.354844e+01 -1.227246e+02 -8.472406e+01 -1.035649e+02 -7.557420e+01 -1.341165e+02 -5.292404e+01 -1.456970e+02 -3.630570e+01 -1.259264e+02 -3.766478e+01 -6.322094e+01 -7.737504e+01 1.715729e+01 -1.452749e+02 3.986398e+01 -1.752164e+02 -4.252279e+01 -2.793957e+01 -2.052718e+02 -5.205337e+01 2.480191e+02 -7.398503e+01 -1.264088e+02 -3.333849e+02 
-3.987419e+02 -2.276938e+02 3.984458e+02 -1.394861e+02 -4.079891e+01 -5.860067e+02 1.708232e+02 -2.768236e+01 -1.447746e+02 2.842665e+02 -7.286841e+00 -2.342249e+02 -4.606616e+01 1.358551e+02 -3.090200e+00 1.619160e+00 -7.109128e+01 -5.552117e+01 -3.890973e+01 -7.832139e+01 -8.501864e+01 -3.975123e+01 -1.235439e+02 -2.959589e+01 -9.136342e+01 -3.853433e+01 -1.025112e+02 4.393816e+00 -1.243815e+02 8.166533e+00 -1.020539e+02 -1.547491e+01 -8.127454e+01 -4.311592e+01 -7.693443e+01 -4.060754e+01 -9.842109e+01 -3.219759e+01 -1.137850e+02 -5.915741e+01 -8.792041e+01 -8.876371e+01 -6.312101e+01 -6.369014e+01 -7.750211e+01 -4.436225e+01 -1.026768e+02 -8.053818e+01 -1.121962e+02 -1.151506e+02 -1.048829e+02 -7.137779e+01 -1.222556e+02 1.610299e+01 -2.553307e+02 -1.523572e+02 -1.671063e+02 -3.479822e+02 1.302575e+02 1.398440e+02 -2.487019e+02 -2.322976e+02 -3.300876e+00 -2.033475e+01 
-4.923102e+02 3.783396e+02 4.988005e+02 -1.188511e+02 -3.546282e+02 -9.630074e+01 2.093777e+02 -4.864591e+02 -4.945127e+01 4.159023e+02 1.839941e+02 2.286648e+01 1.587714e+02 -1.105822e+02 -1.356154e+02 -3.263933e+01 -2.051310e+01 -3.523734e+01 -1.005963e+01 -2.652948e+01 -1.303767e+01 -1.170521e+01 -1.633860e+01 1.393798e+00 -1.551401e+01 8.257016e+00 -2.264800e+01 1.277082e+01 -3.110885e+01 1.448886e+01 -2.867982e+01 1.194135e+01 -2.006995e+01 5.035774e+00 -9.809414e+00 -2.941664e+00 -6.680911e+00 -1.214897e+01 -4.613257e+00 -1.509218e+01 5.909709e+00 -1.234640e+01 9.221657e+00 -6.347726e+00 -6.079859e+00 6.945575e+00 -2.398253e+01 6.230650e+00 -2.010464e+01 -2.192421e+01 3.143233e+01 -8.079255e+01 7.083581e+01 -2.915125e+01 -9.886111e+01 8.224787e+01 -1.757024e+02 1.385636e+02 -8.578178e+01 8.565389e+01 -2.020481e+02 -1.115765e+02 3.463081e+02 3.244982e+02 
7.170682e+01 3.704992e+00 8.352088e+00 3.971246e+01 -3.387357e+02 2.494022e+02 -2.990159e+02 -1.157517e+02 4.292804e+01 -2.006355e+02 1.151104e+02 8.187894e+01 -2.400053e+02 -9.459266e+01 -1.641534e+02 -1.041435e+02 -4.856982e+01 -1.208139e+01 -2.096077e+00 -1.166699e+01 -1.033575e+01 -1.081604e+01 -4.602203e+00 -6.154297e+00 -3.413865e+00 -4.934070e+00 -2.777396e+00 -2.438187e+00 -2.316851e+00 -1.870001e+00 -4.083536e+00 -2.923695e+00 -3.982390e+00 -1.972384e+00 -1.258651e+00 -1.666851e+00 -8.021765e-01 -2.535530e+00 7.569958e-01 -9.681217e-02 4.637587e+00 2.694736e+00 2.512606e+00 6.379397e-01 -5.535415e+00 -1.193233e+00 -5.205885e+00 5.887515e+00 -4.299922e+00 3.205990e+01 -1.869092e+01 5.557971e+01 -1.883601e+01 -4.731588e+01 1.313809e+02 -2.112457e+02 1.898807e+02 5.011889e+01 -1.326008e+02 -8.656073e+00 1.018236e+02 5.122087e+01 -3.841678e+01 -3.289618e+02 
1.881149e+02 3.042387e+02 3.412849e+02 -1.871761e+02 -2.081287e+02 1.432426e+02 -1.076438e+02 -3.252566e+02 1.329521e+02 -2.004728e+02 -2.295799e+02 -1.531265e+02 -2.148976e+02 -3.592120e+01 5.969693e+01 5.554136e+01 5.872093e+01 2.312043e+01 -1.489884e+01 -3.334451e+01 -3.204788e+01 -2.936445e+01 -2.487809e+01 -2.318018e+01 -1.807120e+01 -1.647719e+01 -1.152992e+01 -9.183090e+00 -5.280122e+00 -3.856548e+00 -2.850020e+00 -1.887830e+00 -2.756629e+00 -4.280118e-03 -3.001230e+00 2.224994e+00 -4.582608e+00 3.859995e+00 -6.370580e+00 5.560426e+00 -6.402351e+00 5.903363e+00 -4.749824e+00 2.036804e+00 -2.291974e+00 -5.289999e+00 2.914633e+00 -1.202803e+01 1.980102e+00 4.462001e+00 -4.580377e+01 8.191864e+01 -8.527748e+01 4.144684e+01 6.908047e+01 -7.687305e+01 -1.555034e+01 5.848856e+01 -5.582531e+01 -1.646382e+01 2.993555e+01 -2.444206e+00 7.365165e+01 -2.422295e+02 
3.401412e+02 6.872034e+02 -4.537116e+02 -2.541518e+02 1.002806e+01 5.430899e+01 -2.179364e+01 6.886069e+01 1.078642e+02 -3.345922e+02 -3.415452e+02 -1.222775e+02 -1.256815e+01 1.546892e+02 2.141524e+02 1.017354e+02 4.921021e+01 -1.808061e+01 -7.152908e+01 -6.429365e+01 -2.098909e+01 8.764492e+00 1.855021e+01 7.168451e+00 -3.034520e+00 -1.028749e+01 -1.020342e+01 -1.029564e+01 -6.355239e+00 -5.614692e+00 -2.491255e+00 -2.643805e+00 -6.384146e-01 -1.309562e+00 3.978656e-01 -7.798532e-01 9.346716e-01 -7.289895e-01 1.007151e+00 2.093962e-01 5.792899e-01 1.835056e+00 -5.509941e-01 4.702520e-01 1.219160e+00 -7.589618e+00 1.198935e+01 -2.117545e+01 2.576950e+01 -2.989958e+01 2.154802e+01 -2.374559e+01 -3.768993e+00 -5.873560e+00 -5.504593e+01 8.447923e+01 -8.148015e+01 -3.776811e+01 8.219123e+01 -2.188368e+01 -1.365769e+02 1.323522e+02 -1.470192e+02 3.662970e+02 
-3.965391e+02 -2.042938e+02 1.195582e+02 -5.795647e+00 -8.648120e+01 3.055355e+01 5.756653e+01 2.111474e+02 -1.136504e+02 -2.693391e+02 -2.162092e+02 7.676042e+01 2.482100e+02 -2.636429e+00 -1.568167e+02 -1.134758e+02 -4.061567e+01 -2.380443e+01 -2.496555e+01 8.861568e-01 2.510268e+01 2.199186e+01 6.434865e+00 -2.875170e+00 -1.019037e+01 -1.033217e+01 -1.185355e+01 -1.119875e+01 -1.107658e+01 -9.306299e+00 -7.769807e+00 -5.653432e+00 -4.710543e+00 -2.491280e+00 -3.403828e+00 4.660695e-02 -3.969433e+00 2.821864e+00 -6.207692e+00 6.942228e+00 -9.506534e+00 1.076091e+01 -1.028432e+01 6.913080e+00 -9.210923e-01 -4.898246e+00 8.347564e+00 1.742343e+00 -1.139806e+01 2.995267e+01 -1.882661e+01 -1.136306e+01 4.761387e+01 -8.982118e+01 6.523059e+01 -7.683792e+01 7.490667e+01 -1.031104e+02 9.895892e+01 -3.438418e+01 4.878494e+01 5.278396e+01 1.341098e+00 2.545558e+02 
7.182097e+01 -4.519229e+02 2.076580e+02 8.340721e+01 -1.051050e+02 2.626187e+01 5.945418e+01 6.424965e+01 -2.225693e+02 1.249722e+01 1.349223e+02 -2.718195e+00 -9.938423e+01 -1.690186e+02 -1.860035e+02 -9.605296e+01 6.036966e+01 1.474941e+02 1.172662e+02 6.266028e+01 1.113732e+01 -2.299654e+01 -3.892057e+01 -3.401874e+01 -2.311034e+01 -1.072064e+01 -1.088249e+00 4.412534e+00 5.017813e+00 3.684801e+00 1.771315e+00 -7.960025e-02 -3.088650e-02 -1.237251e+00 2.104597e-01 -1.182828e+00 7.901516e-01 -9.435423e-01 9.306257e-01 4.039281e-01 -9.138429e-01 5.646082e+00 -8.077469e+00 1.447893e+01 -1.523428e+01 1.326920e+01 -7.181246e+00 -8.015180e+00 6.273017e+00 -1.430135e+01 4.230371e+00 8.476832e+00 1.179342e+01 -4.051939e+01 8.796049e+01 -1.011606e+02 4.658055e+01 8.757362e+00 -9.123219e+01 6.749838e+01 -7.409563e+01 -5.116086e+01 -3.147335e+01 -1.925027e+02 
1.498200e+02 -1.720448e+02 -1.167993e+02 3.874610e+01 -1.365756e+01 4.997209e+01 8.346074e+01 -6.119805e+01 -1.336419e+02 3.658034e+01 -4.719784e+01 -4.912480e+01 8.759318e+01 -1.562288e+01 -2.613514e+01 1.019078e+02 6.149905e+01 -2.965972e+01 -3.899901e+01 -2.633986e+01 -3.159862e+01 -3.512167e+01 -2.076837e+01 -8.804140e+00 4.111836e+00 7.051620e+00 9.469416e+00 4.551316e+00 2.339773e+00 -2.934172e+00 -3.234959e+00 -5.376918e+00 -3.668757e+00 -4.376749e+00 -2.212864e+00 -3.537168e+00 -8.304560e-01 -3.582092e+00 3.388148e-02 -2.750821e+00 -1.486565e+00 3.693786e+00 -1.065469e+01 1.901496e+01 -2.485618e+01 2.612463e+01 -1.230209e+01 -3.966255e+00 2.481006e+01 -8.063017e+00 2.816472e+00 3.852162e+01 9.733233e+00 -3.178667e+01 9.901828e+01 -2.007548e+01 -3.325908e+01 6.295280e+01 6.569346e+01 -9.380349e+01 2.481696e+01 9.377197e+01 -3.435944e+01 -2.268435e+01 
-8.474596e+01 9.526571e+01 1.646888e+02 -1.101996e+01 -9.238919e+01 3.757471e+01 2.861046e+01 -7.065575e+01 -7.520340e-01 3.830963e+01 -1.364744e+01 5.637510e+01 5.986646e+01 -3.328253e+01 -2.129813e+01 6.416760e+00 -7.963859e+01 -1.537761e+02 -1.023511e+02 2.186095e+01 1.001752e+02 7.634890e+01 3.225481e+01 4.838235e+00 -2.591754e+00 -6.771619e+00 -9.134743e+00 -1.418601e+01 -1.472700e+01 -1.671988e+01 -1.341281e+01 -1.201218e+01 -7.297396e+00 -5.704754e+00 -2.172193e+00 -2.053673e+00 6.423757e-01 -1.910315e+00 3.503619e+00 -6.081208e+00 9.089766e+00 -1.260672e+01 1.215638e+01 -6.968321e+00 -6.224577e+00 2.518285e+01 -3.822427e+01 4.430440e+01 -4.518953e+01 1.714526e+01 1.239926e+01 -4.627857e+01 5.539204e+01 -4.511861e+01 9.190125e+00 3.430811e+00 -1.942814e+01 -2.358883e+01 6.725766e+01 -4.114627e+01 -3.307690e+01 1.083249e+02 1.676890e+01 1.034450e+01 
2.631411e+01 -4.009800e+00 -4.588968e+01 2.020573e+01 -7.846978e+00 4.216806e+01 4.804738e+01 -5.914047e+01 -4.560603e+01 3.879752e+01 -3.136139e+01 -3.754072e-01 7.734227e+01 -3.278926e+01 -4.010806e+01 5.155188e+01 -9.671129e+00 -3.060789e+01 2.789448e+01 4.434901e+01 -7.548145e+00 -3.718550e+01 -5.188139e+01 -3.505519e+01 -2.472010e+01 -9.077856e+00 -6.262095e+00 1.492176e+00 -2.272609e+00 -1.452248e+00 -7.018298e+00 -7.243550e+00 -9.545856e+00 -8.360733e+00 -7.379021e+00 -6.790058e+00 -3.924531e+00 -5.915137e+00 6.758543e-03 -8.142871e+00 6.609565e+00 -1.435247e+01 1.292638e+01 -1.137254e+01 -5.167281e+00 2.952627e+01 -5.488312e+01 5.090146e+01 -9.937907e+00 -4.528591e+01 7.772397e+01 -2.085857e+01 -7.378404e+01 6.127806e+01 2.678657e+01 -1.556100e+02 1.007182e+02 6.974818e+01 -1.592562e+02 1.259430e-01 5.289983e+01 -7.873916e+00 -1.795553e+02 -2.160296e+01 
8.039380e+01 -4.859961e+01 -5.505628e+01 6.917917e+00 -3.138789e+01 1.999630e+01 8.099922e+00 -1.066456e+01 1.297437e+01 1.979422e+01 -5.995783e+00 2.385495e+01 -4.160411e-01 -1.320272e+01 2.314760e+01 6.918643e+00 -5.433268e+01 -1.098855e+00 3.001674e+01 -4.144427e+01 -1.173595e+02 -9.643630e+01 -3.145217e+01 1.193711e+01 3.939059e+01 4.216434e+01 3.551923e+01 2.374414e+01 2.088828e+01 1.701986e+01 1.555971e+01 1.101574e+01 7.357136e+00 4.201657e+00 2.341709e+00 1.526054e+00 1.961579e+00 -2.703602e-01 4.078569e+00 -4.119142e+00 8.042028e+00 -7.277805e+00 7.470127e+00 2.914769e+00 -1.346071e+01 3.288019e+01 -3.414974e+01 3.032234e+01 -5.437196e+00 1.688068e+01 -2.570893e+01 8.010705e+01 -8.248410e+01 6.901421e+01 -5.199582e+01 9.644211e+01 -7.906807e+01 3.399488e+01 5.953802e+01 -1.103651e+02 4.931028e+01 5.754954e+01 -1.235591e+02 5.183274e-01 
1.584670e+02 -6.360674e+01 -5.200447e+01 2.772547e+01 -9.902801e+00 2.259479e+01 2.149469e+01 -5.883549e+00 5.176356e-01 -8.882561e+00 -2.498166e+01 7.802506e-01 1.618409e+01 -1.426622e+01 1.762923e+01 1.890652e+01 -1.381302e+01 -7.101653e+00 3.280082e+01 -1.373572e+01 -3.698404e+01 1.642682e+00 3.635014e+01 3.288329e+01 1.363069e+01 -1.244777e+01 -2.281406e+01 -2.360484e+01 -2.032178e+01 -1.979115e+01 -2.006198e+01 -2.004978e+01 -1.841580e+01 -1.494184e+01 -1.095949e+01 -8.079081e+00 -4.658667e+00 -4.747417e+00 -9.478353e-01 -4.890519e+00 2.013491e+00 -5.385237e+00 1.414987e+00 5.861148e+00 -1.957581e+01 4.718569e+01 -6.658590e+01 4.691322e+01 -3.208980e+01 -1.170503e+02 8.527817e+01 -1.657134e+02 8.453572e-01 8.691325e+01 -1.382887e+02 8.569352e+01 -2.444079e+01 1.781489e+00 5.393635e+01 -1.005079e+02 1.037144e+02 4.642924e+01 -1.096951e+02 -1.663501e+01 
6.731047e+01 -2.314471e+01 -5.025536e+01 5.913473e+00 -1.691716e+01 1.047890e+01 4.260809e+00 3.043035e+00 5.143656e+00 -1.346360e+00 3.136046e+00 8.711673e+00 -3.810694e+00 -3.608157e+00 5.939596e-01 -4.700631e+00 -9.630054e+00 7.063465e+00 -1.033736e+01 -8.814835e+00 1.201235e+01 6.721747e+00 -6.311190e+01 -4.658692e+01 -8.587887e+00 5.239485e+00 -7.332187e+00 2.141710e+00 6.180217e+00 2.161854e+01 2.058848e+01 2.225973e+01 1.155679e+01 1.018977e+01 2.631340e+00 4.285643e+00 1.358665e+00 1.447687e+00 3.217176e+00 -3.283517e+00 5.721750e+00 -8.149536e+00 4.582914e+00 -5.097705e+00 -8.882620e+00 1.172370e+01 -2.768502e+01 -1.146644e+01 7.975724e+01 -1.946107e+02 1.648712e+02 -1.231610e+02 1.926116e+01 -4.125645e+01 2.895712e+01 -2.177574e+01 -4.047565e+01 1.539434e+01 2.168256e+01 -6.808927e+01 4.024851e+01 4.897359e+01 -8.910005e+01 -3.869278e+00 
4.451656e+01 -1.782894e+00 -5.315087e+01 9.785991e+00 -6.628608e+00 1.106879e+01 1.320014e+01 7.538747e+00 -4.759773e+00 -5.924728e+00 -7.315934e+00 -1.550216e+00 1.875923e-02 5.310159e+00 1.573816e+00 3.114798e+00 2.737473e+00 5.759805e+00 1.106091e+00 -8.389905e+00 -2.150600e-01 1.034339e+01 -3.800849e+01 -2.525422e+01 9.398120e+01 1.269451e+02 9.175635e+01 5.596073e+01 4.227209e+01 2.276293e+01 1.798527e+01 9.676638e+00 8.703485e+00 3.774820e+00 2.914829e+00 6.641749e-01 4.207363e-01 -1.491133e+00 1.380344e+00 -6.523361e+00 7.323228e+00 -1.781617e+01 1.808284e+01 -3.213269e+01 2.559967e+01 -3.873805e+01 2.696081e+01 -2.370406e+01 5.007133e+01 -3.475246e+01 1.312290e+02 -7.564021e+01 6.470293e+01 1.740299e+01 -1.937243e+01 -4.229295e+01 3.719159e+01 -6.157384e+00 -2.629000e+01 -4.310890e+01 4.510273e+01 4.587617e+01 -9.366508e+01 -8.043461e-01 
4.420443e+01 -1.435682e+01 -8.302488e+00 5.884506e+00 -2.247249e+01 6.710050e+00 2.551422e+00 2.149783e+00 4.922904e+00 2.559513e+00 3.509456e+00 9.928019e-01 7.111916e-01 -8.037574e-02 -2.458779e+00 -1.649495e+00 -2.364469e-01 4.192921e+00 -2.540888e+00 -8.181322e+00 1.497109e+01 8.042091e+00 -9.808348e+01 -1.157666e+02 1.719932e+01 5.338281e+01 2.027623e+01 2.274748e+01 2.403410e+01 3.261786e-01 -1.635417e+01 -1.898438e+01 -1.758616e+01 -9.035988e+00 -6.743301e+00 -2.673057e-01 -5.531647e-01 1.524870e+00 3.575329e+00 -2.893968e+00 1.018520e+01 -1.252071e+01 1.951676e+01 -2.185658e+01 2.484946e+01 -2.195960e+01 2.461074e+01 -8.255203e+00 2.836364e+01 3.596121e+00 1.792993e+01 1.983352e+01 -4.819589e+00 7.293462e+00 4.028474e+01 -6.684598e+01 1.195510e+01 4.138670e+01 -3.796884e+01 -5.011981e+01 7.855525e+01 1.192215e+01 -6.467976e+01 2.746551e+01 
3.724754e+01 -3.186749e+01 -7.420180e+00 1.299563e+01 -1.659982e+01 6.736575e+00 8.927790e+00 5.548385e+00 -2.014108e+00 -4.334049e+00 -7.377338e+00 -7.745327e-01 -1.866090e+00 1.292463e+00 3.715899e-01 6.021871e+00 -6.973703e+00 1.166710e+01 4.459549e+00 -2.937841e+01 1.694522e+01 2.924322e+01 -6.669859e+01 -1.342819e+02 -1.028017e+02 -1.113178e+02 -1.092780e+02 -1.487697e+01 5.799360e+01 5.754612e+01 3.988423e+01 2.777121e+01 1.667580e+01 1.078783e+01 4.469435e+00 2.085571e+00 1.369030e-01 -1.119183e+00 1.565147e+00 -5.095940e+00 7.863878e+00 -1.260492e+01 1.685052e+01 -1.818683e+01 1.942854e+01 -1.247046e+01 1.239451e+01 -1.983805e+00 1.151044e+01 -7.274870e+00 -1.841067e+00 2.528830e+01 -4.381740e+01 2.518885e+01 3.425973e+01 -5.234239e+01 3.315606e+01 3.098975e+01 -2.610605e+01 -1.945856e+01 6.361967e+01 -5.265738e+00 -4.588348e+01 3.674486e+01 
1.305146e+01 -2.426404e+01 6.257470e+00 7.016194e+00 -2.443811e+01 4.180948e+00 1.424705e+00 3.600957e+00 3.932710e+00 4.072445e+00 1.683974e+00 2.622650e+00 4.146670e-01 -1.698833e+00 4.012976e+00 -4.713535e+00 -6.846670e+00 1.947257e+01 1.942320e+00 -4.876255e+01 3.071539e+01 5.386759e+01 -1.835081e+01 -7.993145e+01 -1.037757e+02 -1.449201e+02 -1.876388e+02 -8.487051e+01 4.440416e+01 7.531465e+01 4.821334e+01 2.252618e+01 2.557279e+00 -5.899809e+00 -1.041294e+01 -7.490666e+00 -5.251373e+00 -3.345990e+00 2.704110e+00 -4.424366e+00 1.040351e+01 -9.277890e+00 1.571068e+01 -1.099406e+01 1.400812e+01 -5.981634e+00 8.081274e+00 -1.573127e+00 5.122237e+00 -6.442189e-01 -2.394879e+00 1.485775e+01 -1.302730e+01 1.914219e+01 7.834334e+00 -1.274361e+01 2.099283e+01 1.960521e+01 -2.011797e+01 3.696286e+00 4.458737e+01 -1.815079e+01 -1.308958e+01 3.435801e+01 
2.158961e+00 -2.016083e+01 6.054828e+00 8.891804e+00 -1.937988e+01 4.733901e+00 6.186867e+00 5.079642e+00 -3.020572e-01 -3.640840e+00 -6.228082e+00 1.267306e+00 -2.498053e+00 -6.929549e+00 1.647306e+01 -9.731200e+00 -1.281772e+01 2.876586e+01 9.042829e+00 -4.767876e+01 -2.352687e-01 5.921514e+01 3.340849e+00 -2.724240e+01 -1.828641e+00 -5.498582e+00 -9.651791e+01 -5.748557e+01 5.227465e+01 9.075722e+01 6.060355e+01 3.889097e+01 2.177048e+01 1.192393e+01 4.116555e+00 2.366601e+00 -3.094623e-01 -8.475227e-01 1.364537e+00 -3.699877e+00 6.465553e+00 -8.214117e+00 1.192860e+01 -1.110446e+01 1.226879e+01 -7.447809e+00 6.367850e+00 -2.066032e+00 3.693256e+00 -3.707918e+00 4.305833e+00 2.647210e+00 -6.425100e+00 1.440662e+01 -5.716144e+00 -1.891830e+00 1.184715e+01 2.404888e+00 -5.792157e+00 4.016565e+00 1.657071e+01 -9.426030e+00 -6.614231e+00 2.525344e+01 
-2.819759e+00 -8.630412e+00 5.673254e+00 4.169302e+00 -2.126382e+01 2.724256e+00 4.552739e-01 5.084163e+00 6.768533e+00 -3.178681e-01 4.223708e+00 4.436854e+00 -4.702310e+00 -2.912434e+00 2.144767e+01 -1.995599e+01 -1.652209e+01 4.032894e+01 6.726002e+00 -3.867812e+01 -1.324252e+01 4.742928e+01 -1.450972e+00 -1.584549e+01 3.352572e+01 2.613211e+01 9.184094e+00 3.995539e+01 3.641490e+01 1.731741e+01 2.766967e+01 2.979322e+01 2.339493e+01 1.020808e+01 1.985307e+00 -2.891947e+00 -2.956041e+00 -4.728584e+00 1.736874e+00 -5.278009e+00 7.931139e+00 -7.442364e+00 1.129288e+01 -7.716561e+00 9.172552e+00 -3.780062e+00 4.088109e+00 -8.265330e-01 3.248264e+00 -2.987236e+00 5.151311e+00 -5.615275e-01 -7.248869e-01 6.756208e+00 -4.320983e+00 1.501523e+00 4.868259e+00 1.976736e+00 -4.037903e+00 5.779782e+00 7.775748e+00 -9.366221e+00 4.541669e+00 1.178123e+01 
-5.791001e-01 -7.503539e+00 3.499880e+00 4.783520e+00 -1.702063e+01 3.825231e+00 4.856416e+00 6.718262e+00 1.102651e+00 -1.254331e+01 3.028243e+00 1.053335e+00 -1.230703e+01 3.953676e+00 1.981968e+01 -1.162526e+01 -2.209224e+01 3.834422e+01 1.354607e+01 -2.904221e+01 -1.513456e+00 1.522834e+01 -1.350118e+01 1.179623e+01 2.424327e+01 5.119996e-01 4.701746e+01 2.890777e+01 -5.963372e+01 -6.366715e+01 -4.431354e+00 2.088792e+01 2.572085e+01 1.732830e+01 1.050354e+01 5.391041e+00 2.063218e+00 3.494540e-01 1.503308e+00 -2.438482e+00 4.887171e+00 -5.894401e+00 8.771903e+00 -8.164852e+00 8.919922e+00 -5.569023e+00 4.424248e+00 -1.650939e+00 3.115962e+00 -3.971582e+00 6.419832e+00 -3.390465e+00 2.440211e-01 5.746233e+00 -4.927322e+00 3.316769e-01 6.748713e+00 -5.044391e+00 1.141052e+00 3.667544e+00 -2.532853e-01 -1.097183e+00 -7.184949e-01 7.708379e+00 
-6.951253e-02 -2.423925e+00 1.154638e+00 2.541496e+00 -1.667136e+01 2.349297e+00 3.063376e+00 3.807705e+00 -5.605212e+00 -6.935742e+00 6.857570e+00 5.548388e+00 -1.442923e+01 1.340852e+01 1.669291e+01 -1.421593e+01 -1.393405e+01 2.664206e+01 4.384888e+00 -5.472839e+00 1.004699e+01 -3.005877e+01 -9.640268e+00 1.695352e+01 -7.874398e+00 1.660487e+01 5.742511e+01 -1.300605e+01 -8.873113e+01 -6.671968e+01 -1.618261e+01 1.756532e+01 2.409314e+01 1.702119e+01 1.023365e+01 3.008582e+00 1.357729e+00 -2.836029e+00 1.883890e+00 -4.579995e+00 5.710527e+00 -6.118793e+00 8.051070e+00 -6.035427e+00 6.255394e+00 -2.635384e+00 2.116364e+00 -1.443104e-01 1.900872e+00 -2.499352e+00 4.238011e+00 -1.904804e+00 2.402453e-02 3.589230e+00 -3.215988e+00 1.173320e+00 1.634998e+00 -1.451143e-01 -1.720512e+00 3.134603e+00 8.157075e-01 -3.514921e+00 3.368250e+00 1.561401e+00 
2.586977e+00 -3.859592e+00 1.236854e+00 2.901839e+00 -1.382741e+01 4.290623e+00 8.351042e+00 -1.463079e+00 -1.877502e+01 -7.272163e+00 2.615091e+00 8.282583e+00 -1.260780e+01 1.273926e+01 1.439148e+01 -1.405818e+01 1.987882e+00 -2.938715e+00 -3.256277e+00 2.503486e+01 -2.999020e+00 -2.755723e+01 6.602084e+00 -1.899065e+01 -2.318198e+01 4.323145e+01 4.977311e+01 -1.322891e+01 -6.072274e+01 -4.841200e+01 -6.142898e+00 3.028338e+01 3.283609e+01 2.363240e+01 1.640385e+01 9.912894e+00 5.687790e+00 2.437597e+00 2.390814e+00 -1.297749e+00 3.894453e+00 -4.386184e+00 6.535265e+00 -6.109085e+00 6.405459e+00 -3.949138e+00 2.869949e+00 -9.972497e-01 2.000043e+00 -2.685096e+00 3.995396e+00 -1.850808e+00 -6.787443e-01 4.021045e+00 -3.000138e+00 -2.417389e-01 4.157962e+00 -3.834051e+00 1.817538e+00 1.206166e+00 -1.456911e+00 2.125423e+00 -1.854458e+00 1.759202e+00 
2.263647e+00 -7.675248e-01 -3.809600e-01 1.952899e+00 -1.273743e+01 2.072094e+00 3.029328e+00 -1.666813e+00 -1.045241e+01 6.796056e+00 1.959415e+01 4.750069e+00 -3.509060e+00 5.480230e+00 -7.621952e+00 -2.672741e+00 4.586618e+00 -3.035870e+01 8.825314e+00 3.125658e+01 -1.028140e+01 -2.137303e+00 -9.668364e-01 -3.747679e+01 -1.075592e+01 4.210086e+01 3.280004e+01 -1.171610e+01 -4.194846e+01 -3.488574e+01 6.335442e-01 2.970116e+01 3.636815e+01 2.451993e+01 1.684195e+01 8.363747e+00 5.607823e+00 6.939847e-02 2.699264e+00 -3.200384e+00 4.359923e+00 -4.887394e+00 5.811650e+00 -4.755004e+00 4.216905e+00 -1.839634e+00 9.243047e-01 1.976619e-01 8.377312e-01 -1.487182e+00 2.252642e+00 -6.216537e-01 -1.017545e+00 3.060098e+00 -2.469582e+00 1.211555e+00 1.479480e-02 9.855883e-01 -1.433134e+00 1.477508e+00 9.622222e-01 -1.782048e+00 2.409910e+00 -1.367128e+00 
3.605810e+00 -2.664238e+00 6.432775e-01 1.999122e+00 -1.078675e+01 2.238023e+00 2.651557e+00 2.309299e+00 -2.789600e+00 8.355735e+00 1.674994e+01 -3.917729e+00 2.374454e+00 -2.145655e+01 -1.935147e+01 1.763526e+01 -4.229647e+00 -2.021831e+01 2.066430e+01 1.461624e+01 5.004409e+00 2.076874e+01 -1.267949e+01 -4.492262e+01 -8.901812e+00 3.183747e+01 3.361850e+01 -8.175798e+00 -4.118028e+01 -5.237106e+01 -4.311448e+01 -2.181358e+00 3.045686e+01 2.712026e+01 2.000945e+01 1.338962e+01 9.166354e+00 4.941630e+00 3.794079e+00 -3.100300e-03 3.475732e+00 -3.094409e+00 4.917400e+00 -4.426034e+00 4.521629e+00 -2.706730e+00 1.880543e+00 -6.599680e-01 1.334689e+00 -1.717845e+00 2.204819e+00 -4.891723e-01 -1.331916e+00 3.133668e+00 -1.955549e+00 -2.302501e-01 2.525524e+00 -2.312232e+00 1.584370e+00 9.096501e-02 -8.039485e-01 2.484380e+00 -1.773023e+00 -3.655697e-02 
2.716487e+00 -3.028541e-01 -7.322244e-01 1.645169e+00 -9.276317e+00 5.474522e-01 -1.066614e+00 -1.329644e+00 7.486088e+00 1.124432e+01 1.953687e+00 2.510674e+00 7.752810e-01 -3.365189e+01 -2.301613e+00 2.686778e+01 -5.197355e+00 -6.189633e-01 1.835341e+01 2.882431e+00 1.274753e+01 1.836394e+01 -1.617369e+01 -3.776058e+01 -9.021149e+00 2.927992e+01 3.412708e+01 6.156383e-01 -2.472690e+01 -6.252199e+01 -8.609662e+01 -4.269027e+01 9.106831e-01 1.887158e+01 1.838278e+01 1.227072e+01 8.832195e+00 3.355503e+00 4.005917e+00 -1.436302e+00 3.697822e+00 -3.631480e+00 4.250589e+00 -3.636486e+00 2.836964e+00 -1.301983e+00 3.106955e-01 2.961200e-01 2.373271e-01 -7.920727e-01 1.076210e+00 2.864730e-02 -1.242373e+00 2.424776e+00 -1.970632e+00 1.338844e+00 -8.816400e-01 1.688169e+00 -1.541271e+00 8.998293e-01 1.172621e+00 -1.691924e+00 2.537859e+00 -2.343101e+00 
3.427232e+00 -2.174336e+00 4.929021e-01 1.428118e+00 -7.757755e+00 1.316619e+00 3.595529e-01 1.523427e+00 9.571856e+00 -9.851418e+00 -1.443831e+01 1.353299e+01 -1.922363e+00 -2.266676e+01 1.131096e+01 3.002748e+01 1.091760e+01 5.382905e+00 -9.705343e+00 -1.645720e+01 1.128545e+01 1.396388e+01 -2.783098e+01 -4.180454e+01 -8.919787e-01 2.452330e+01 6.773687e+00 2.016557e+01 1.887725e+01 -4.702123e+01 -9.885228e+01 -6.392045e+01 -2.719713e+01 9.469743e+00 2.199690e+01 2.016235e+01 1.326069e+01 7.972439e+00 5.270273e+00 1.349206e+00 3.294137e+00 -1.883023e+00 3.670594e+00 -3.002972e+00 3.146638e+00 -1.829479e+00 1.337434e+00 -5.477399e-01 1.001956e+00 -1.139357e+00 1.250099e+00 3.396292e-02 -1.260911e+00 2.239996e+00 -1.308545e+00 -1.742059e-01 1.633223e+00 -1.628403e+00 1.359896e+00 -3.256809e-01 -5.105283e-01 1.954762e+00 -1.157157e+00 -7.841638e-01 
2.561497e+00 -2.315865e-01 -8.005154e-01 1.415108e+00 -5.985748e+00 -3.810441e+00 -2.767246e+00 1.766504e+01 1.304259e+01 -2.588354e+01 -9.342692e+00 2.915197e+01 3.835534e-01 -1.278439e+01 1.305366e+01 2.079765e+01 8.962063e+00 3.212149e+00 -2.345431e+01 -3.211710e+01 1.373119e+01 3.100795e+01 -3.602088e+01 -3.910254e+01 2.954764e+01 4.820145e+01 1.579151e+01 4.788447e+01 2.615477e+01 -4.689441e+01 -6.453669e+01 -1.455858e+01 1.163558e+01 2.671571e+01 3.352108e+01 2.668132e+01 1.775559e+01 8.629789e+00 6.435323e+00 6.524731e-01 3.561348e+00 -2.298358e+00 3.133443e+00 -2.596525e+00 1.916025e+00 -9.315050e-01 6.322662e-02 2.925626e-01 -9.281163e-02 -3.245415e-01 4.349751e-01 1.955745e-01 -1.023980e+00 1.743972e+00 -1.611431e+00 1.395913e+00 -1.344274e+00 1.876030e+00 -1.605177e+00 6.789552e-01 1.130313e+00 -2.034406e+00 2.916860e+00 -2.845808e+00 
2.994940e+00 -1.935055e+00 3.872019e-01 1.037419e+00 -4.630311e+00 -4.755748e+00 -1.308132e+00 3.108093e+01 9.554209e+00 -4.065716e+01 -1.236664e+01 2.344984e+01 3.700850e+00 -1.203631e+00 7.001193e+00 2.655554e+00 3.985744e-01 -8.427102e+00 -2.498247e+01 -3.929059e+00 2.908091e+01 4.819869e+00 -9.071041e+00 3.758628e+01 3.647549e+01 7.863234e+00 -1.200045e+01 1.550275e+01 4.548445e+01 6.925802e+01 8.312930e+01 4.946914e+01 3.270954e+01 3.491769e+01 4.493885e+01 3.579053e+01 2.493773e+01 1.334831e+01 8.192166e+00 2.932673e+00 3.341701e+00 -7.021858e-01 2.618955e+00 -1.767565e+00 2.099576e+00 -1.215947e+00 1.055865e+00 -5.479190e-01 8.086666e-01 -7.513295e-01 6.932828e-01 1.418457e-01 -8.862001e-01 1.389227e+00 -8.462910e-01 -9.058016e-02 1.028341e+00 -1.312153e+00 1.238567e+00 -5.899850e-01 -3.434781e-01 1.254662e+00 -5.331758e-01 -1.248674e+00 
2.366196e+00 -3.353440e-01 -8.090175e-01 1.246240e+00 -2.734147e+00 -7.879071e+00 -2.336006e+00 3.633411e+01 9.838463e+00 -4.629441e+01 -1.537008e+01 2.562066e+01 1.737522e+01 -6.350560e+00 -1.279156e+01 -7.086825e+00 7.906762e+00 -8.446766e+00 -3.548693e+01 4.405838e+00 7.261517e+01 3.875732e+01 -2.841956e+01 -3.645329e+01 2.096807e+01 5.605547e+01 1.299067e+01 -2.176209e+01 -2.595013e+01 -4.978093e+01 -5.284502e+01 -6.843929e+01 -5.180338e+01 6.789954e+00 5.051340e+01 4.863917e+01 3.388777e+01 1.627407e+01 1.030156e+01 3.084959e+00 3.617526e+00 -9.019187e-01 2.200792e+00 -1.564441e+00 1.251407e+00 -6.292794e-01 1.983436e-02 2.617627e-01 -2.850728e-01 4.040057e-02 6.051935e-02 1.155975e-01 -5.488087e-01 9.955653e-01 -1.256453e+00 1.464360e+00 -1.754943e+00 2.016922e+00 -1.733672e+00 6.074386e-01 1.013907e+00 -2.451556e+00 3.314530e+00 -3.262153e+00 