# vtk DataFile Version 2.0
Comment goes here
ASCII

DATASET STRUCTURED_POINTS
DIMENSIONS    64   64   1

ORIGIN    0.000   0.000   0.000
SPACING   0.0156250.015625   1.000

POINT_DATA   4096
SCALARS Omega double
LOOKUP_TABLE default

-3.547050e+01 4.952694e+02 -1.378835e+02 -7.948026e+02 2.496846e+02 1.602599e+02 3.671116e+02 3.297214e+02 -6.461438e+02 -1.397140e+01 -4.674785e+01 -3.497018e+02 -5.378580e+01 1.083491e+02 2.482794e+02 2.485578e+02 6.944635e+01 7.229171e+01 2.622806e+01 2.158178e+00 -5.019338e+00 1.568077e+01 8.823383e+00 2.737864e+01 5.190281e+00 1.878312e+01 2.657443e+00 8.247577e+00 -9.000928e+00 1.914139e+01 -1.864494e+01 4.280264e+01 -2.225577e+01 3.851079e+01 -1.031234e+01 3.216865e+01 9.785715e+00 4.331799e+00 -2.007245e+01 -1.120812e+01 -1.510167e+01 -1.241526e+01 1.601760e+01 -7.844193e+01 5.046912e+01 -7.628913e+01 5.305639e+01 2.225512e+01 -3.551064e+01 1.041203e+02 -1.259298e+02 1.672938e+02 -1.768947e+02 2.125093e+02 -1.643739e+02 -2.261085e+02 1.950450e+02 3.306284e+02 3.011698e+02 4.254905e+02 5.936079e+01 -1.579605e+02 8.883217e+01 -2.651860e+02 
-1.329702e+01 2.021539e+01 6.537552e+02 -1.387718e+02 3.443776e+02 1.996655e+02 5.628454e+02 2.849228e+02 -3.920721e+02 -4.355584e+02 3.940265e+02 -6.419925e+01 -2.058049e+01 2.026438e+02 -1.748604e+01 -1.142063e+02 -6.645550e+01 -2.630725e+01 1.271502e+01 6.281454e+01 1.310519e+01 4.597021e+01 2.972329e+01 4.133300e+00 4.868047e+01 -1.990803e+01 3.210200e+01 2.094905e+01 -1.947312e+01 5.974104e+01 -2.024613e+01 6.185835e+01 2.850303e+01 9.866306e+01 1.515312e+01 1.297115e+02 -1.779837e+01 9.273834e+01 1.066905e+01 3.161855e+01 6.825530e+01 -4.764590e+00 1.385364e+02 1.166171e+00 1.736404e+02 -4.446233e+01 7.768142e+01 -1.309875e+01 -4.970753e+01 4.753939e+00 3.503666e+01 -9.914948e+01 -7.609226e+01 1.320406e+02 -6.969639e+01 -2.211793e+02 1.690567e+02 1.878279e+02 -1.544125e+02 -3.521848e+01 9.950913e+01 -1.553835e+02 4.444385e+01 -7.323793e+01 
8.273468e+01 1.059951e+02 -2.032365e+02 1.784659e+02 -2.907811e+02 1.514777e+02 -4.800396e+02 -1.096214e+02 3.934867e+02 2.037820e+02 4.031303e+01 2.013074e+02 -7.729538e+01 4.136058e+00 1.469480e+02 -4.501528e+01 1.543147e+02 4.599467e+01 4.168383e+01 1.456113e+02 -1.956348e+01 7.732515e+01 4.673416e+01 3.126216e-01 9.662882e+01 -1.603206e+00 9.100693e+01 9.328220e+01 2.322741e+01 1.427394e+02 7.910152e+01 4.699141e+01 1.866688e+02 4.855494e+01 1.321555e+02 1.046512e+02 1.023552e+02 1.040431e+02 1.062661e+02 1.089242e+02 8.211118e+01 1.621921e+02 5.223311e+01 1.872088e+02 1.105809e+02 6.633782e+01 1.353386e+02 5.483255e+01 1.418577e+02 1.455156e+01 1.060163e+02 2.834969e+01 1.533547e+02 -4.652686e+01 2.224731e+02 7.657736e+01 -3.891348e+02 -1.093610e+01 -7.556461e+01 -4.832889e+02 3.283835e+02 -4.647346e+01 -6.057179e+01 2.307897e+02 
1.616506e+02 5.033778e+02 -1.919206e+02 2.145197e+02 -1.180727e+02 -9.430190e+01 -2.354210e+02 2.608371e+01 -2.047389e+02 1.719129e+02 -2.066961e+02 8.102437e+01 1.542272e+02 3.555102e+01 4.896149e+01 -1.409206e+01 -1.592591e+01 4.524161e+01 -5.730723e+01 3.897808e+01 -2.849098e+01 2.757229e+01 -1.566744e+01 7.465092e+01 -3.880055e+01 8.798713e+01 -2.524050e+01 4.591404e+01 3.859845e+00 -2.449207e+00 3.794210e+01 -8.588540e+01 5.213168e+01 -1.302530e+02 5.500541e+01 -1.111449e+02 5.934065e+01 -5.613144e+01 3.019470e+01 2.608227e+01 -3.903599e+01 6.772505e+01 -1.175111e+02 8.282712e+01 -9.417026e+01 7.423823e+01 -3.734518e+00 1.011719e+02 2.178239e+01 1.393277e+02 9.079026e+01 1.040325e+02 1.619763e+02 -3.994763e+01 1.361849e+02 5.295945e+01 4.142005e+02 -3.702226e+01 8.596099e+01 8.711499e+01 8.960986e+00 -1.916165e+01 -1.902299e+02 -1.328475e+02 
1.702569e+02 -1.366292e+02 -3.197429e+01 2.005509e+02 2.750480e+02 -4.225071e+02 -3.526606e+02 1.702202e+02 -3.540860e+02 -1.035490e+02 3.904918e+01 -8.532320e+01 -1.184587e+02 -1.682453e+02 -1.913501e+02 1.057618e+02 -3.175762e+01 -3.121407e+00 8.185203e+00 -1.570866e+02 2.722144e+01 -1.069310e+02 -9.806140e+01 2.151494e+01 -2.022750e+02 5.092391e+01 -1.786813e+02 -7.237785e+01 -6.593648e+01 -1.634306e+02 -7.511852e+01 -9.081632e+01 -1.160911e+02 -1.250750e+02 -3.709586e+01 -2.062457e+02 -3.609224e+01 -1.732918e+02 -1.169649e+02 -9.486925e+01 -1.612728e+02 -3.393287e+01 -1.605100e+02 -1.219590e+01 -2.162093e+02 1.858935e+01 -1.650038e+02 -1.209464e+02 -1.145511e+02 -1.112786e+02 -2.098900e+02 -9.022522e+01 -1.427186e+02 -2.338296e+01 3.361718e+01 -2.097074e+02 -4.668240e+01 -7.769587e+01 -1.626194e+02 9.213085e+01 -2.677856e+02 -5.530443e+02 2.692048e+02 3.195025e+02 
1.391520e+02 -5.518215e+02 -3.848437e+02 -3.134125e+02 2.820824e+02 5.763594e+01 5.816748e+02 -3.004074e+02 2.645716e+02 -1.030998e+02 -7.119693e+01 -2.133883e+01 -2.320324e+02 2.715917e+02 6.395856e+01 4.413166e+01 1.186752e+01 -1.165732e+01 7.218304e+01 -9.976461e+01 2.943606e+01 -9.499629e+01 -5.338070e+01 -4.074666e+01 -1.055033e+02 -1.170558e+01 -8.058913e+01 -3.813215e+01 -2.793453e+00 -6.443464e+01 -5.568127e+01 1.670548e+01 -1.115963e+02 4.934037e+01 -5.018201e+01 -4.005216e+01 -4.014921e+00 -6.462688e+01 -1.771218e+01 -4.995504e+01 -7.273880e+01 -7.870018e+01 -1.583993e+01 -1.116519e+02 -2.046117e+01 -5.146513e+01 -1.969162e+02 6.068616e+00 -1.491370e+02 -1.276650e+02 -5.002055e+01 -7.501227e+01 -1.849476e+02 -4.905085e+01 -3.057860e+02 9.334782e+01 -4.778156e+02 -3.087004e+01 -1.946046e+02 -4.469940e+01 2.823473e+01 4.747798e+01 2.847331e+02 4.681276e+02 
5.489557e+01 -1.226833e+02 1.880531e+02 1.935364e+02 -3.771397e+02 -1.639639e+02 1.233613e+02 -2.648746e+02 6.390958e+02 1.242823e+01 3.771834e+01 -2.948709e+01 9.102357e+01 1.878546e+02 1.914214e+02 -5.461998e+01 -1.670021e+02 -4.522653e+01 2.750999e+01 -5.585877e+00 1.745079e+01 -4.443613e+01 -2.227482e+01 -7.053428e+01 -2.190604e+01 -4.350482e+01 -2.204094e+00 -1.582662e+01 8.867904e-01 1.613258e+00 -6.518915e-02 2.720693e+01 -2.830711e+01 4.851128e+01 -5.858887e+01 6.786254e+01 -5.386192e+01 5.564581e+01 -2.524213e+01 -2.503915e+01 4.484152e+01 -1.085954e+02 1.175850e+02 -1.445178e+02 9.745195e+01 -1.440714e+01 -8.089617e+01 2.313288e+02 -1.684999e+02 2.007078e+02 -2.335122e+01 1.142906e+02 -8.808083e+01 1.161316e+02 -1.166985e+02 9.702479e+01 -1.425419e+02 -7.552826e+01 1.950703e+01 7.806876e+01 -1.029266e+02 7.112043e+01 1.096508e+02 2.058343e+02 
1.776697e+02 -1.719822e+02 -2.528264e+02 3.174195e+01 -2.539981e+02 -2.138512e+02 -3.764116e+02 2.366867e+02 -2.621806e+02 -1.492569e+02 7.613051e+01 -8.478907e+01 1.446560e+02 -2.653384e+02 -2.010856e+02 -2.195939e+02 -2.034845e+02 -1.306277e+02 -5.306790e+01 -1.809653e+01 4.760976e+01 1.651749e+01 6.734545e+00 -1.062081e+01 -3.798411e-02 9.191779e+00 -7.661664e+00 -9.093310e+00 -2.088135e+01 -1.815574e+01 -9.726607e+00 -1.637988e+01 -9.209257e+00 -1.938234e+01 -2.382221e+01 6.348845e+00 -2.586913e+01 1.506680e+01 -2.608316e+01 1.111692e+01 -3.878759e+01 3.120256e+01 -2.759789e+01 -2.204722e+01 3.660053e+01 -1.118113e+02 8.277140e+01 -9.109616e+01 2.250827e+01 5.912428e+01 -7.821978e+01 -1.187766e+01 1.214898e+02 -1.966522e+02 2.353986e+01 -6.187420e+01 8.571410e+01 -2.118833e+02 2.483975e+01 -6.838738e+01 -6.588436e+00 -4.605446e+01 -2.244370e+02 -1.143037e+01 
1.122007e+02 -1.246356e+02 8.464315e+01 -7.957705e+01 -1.176305e+02 1.979136e+01 -6.336368e+01 -7.577195e+01 -2.517788e+02 1.042583e+02 -2.261176e+02 -3.764736e+02 4.998007e+01 -7.564300e+01 -2.057745e+02 -2.339414e+02 -2.422991e+02 -1.007481e+02 -1.488826e+00 2.641323e+01 6.587981e+01 5.981547e+01 5.009464e+01 6.007700e+01 2.559718e+01 1.252192e+01 -2.175747e+01 -2.630753e+01 -3.240903e+01 -1.799388e+01 -2.512666e+01 -1.117936e+01 -2.319473e+01 -1.487547e+01 -1.906071e+01 -1.895398e+01 -9.272334e+00 -1.232203e+01 -1.416577e+01 9.569768e+00 -3.839400e+01 4.822490e+01 -5.865127e+01 6.623131e+01 -5.210988e+01 4.450416e+01 -5.754769e+01 -3.735151e+00 -5.155592e+01 -4.280021e+01 -4.637176e+00 -1.327749e+02 7.123044e+01 -1.631105e+01 -1.652234e+02 9.628385e+01 1.472793e+02 -1.648880e+02 1.350521e+02 -7.204053e+01 9.697791e+00 1.905336e+02 1.590446e+02 -4.239923e+02 
1.657242e+02 -1.696822e+02 -3.663065e+02 3.409969e+01 6.981602e+01 -9.725327e+01 -4.688552e+01 7.469119e+01 4.075880e+01 2.764156e+02 -6.186841e+01 -1.040410e+01 6.253346e+01 -1.423696e+02 -5.767366e+01 -1.506144e+02 -3.207764e+02 -7.547667e+01 1.997696e+02 1.508311e+02 -1.503584e+01 -2.321269e+01 -1.522991e+01 -2.750050e+01 -4.754593e+01 -5.632506e+01 -5.229957e+01 -6.386767e+01 -3.067527e+01 1.276701e+00 1.449538e+01 2.064830e+01 2.504345e+00 -1.063786e+00 -5.874724e+00 -2.090763e+01 6.229268e+00 -3.268479e+01 1.944524e+01 -3.146088e+01 1.771022e+01 -1.731688e+01 3.371328e+00 1.745449e+01 -2.412267e+01 5.475154e+01 -3.634039e+01 5.026443e+01 -1.171451e+00 7.701217e-01 1.845026e+01 6.463238e+01 -1.046549e+02 1.276197e+02 -3.883712e+01 -1.655416e+01 2.262090e+01 5.779510e+01 -1.644844e+01 -1.145963e+02 1.530460e+02 5.683805e+01 -9.320478e+01 -3.512597e+02 
-5.622057e+02 -1.056844e+02 1.163632e+02 3.664262e+01 -5.525332e+01 -8.807837e+00 -6.598612e+01 1.092529e+01 2.316700e+02 1.946066e+02 -5.755425e+01 -2.888253e+01 -1.650882e+02 -2.282882e+01 2.021302e+02 6.059910e+01 -1.323228e+02 -1.489612e+02 4.522086e+01 3.627763e+01 -1.334328e+02 -1.325374e+02 -3.424802e+01 -3.659437e+01 -2.964023e+01 -2.218820e+01 1.137851e+01 4.650857e+01 3.245891e+01 3.481774e+01 -2.847934e+00 8.382424e+00 -1.812122e+01 -9.436220e-01 -1.135943e+01 -4.908686e+00 -2.754183e+00 -4.408305e+00 -1.155560e+01 6.387221e+00 -1.327375e+01 -1.983269e+01 3.162042e+01 -8.324380e+01 7.087664e+01 -9.407760e+01 5.814971e+01 -7.251597e+01 5.339496e+01 -4.099316e+01 1.602655e+01 1.206483e+01 7.554431e+00 -4.734951e+01 5.154308e+01 -1.206003e+02 6.476647e+01 -2.944058e+01 -2.913824e+02 3.342069e+02 -1.243757e+02 -4.557126e+02 2.376631e+02 2.042019e+02 
-3.582297e+02 -2.172842e+01 1.997785e+02 5.914920e+00 -2.793325e+01 -7.563021e+01 -3.354928e+01 1.390497e+02 1.201624e+01 -1.597102e+02 -6.425836e+01 7.339883e+01 1.426241e+02 2.079670e+02 1.252979e+02 3.494240e+01 -4.957051e+01 -8.094786e+01 5.888311e+01 -4.201409e+00 -1.628864e+02 -1.141821e+02 1.151869e+02 1.709320e+02 9.055256e+01 3.054056e+01 3.437020e+01 4.357275e+01 2.296437e+01 -1.204572e+01 -2.151496e+01 -2.340349e+01 -3.452799e+01 -9.387050e-01 -2.593305e+01 1.422419e+01 -1.547476e+00 -3.243864e+00 1.510591e+01 -1.211143e+01 1.131239e+01 -1.127664e+01 1.596869e+01 -4.203183e+01 6.412537e+01 -8.957221e+01 5.518900e+01 -1.308589e+01 -7.583691e+01 9.949028e+01 -1.007647e+02 3.851444e+01 1.393078e+01 -7.583627e+01 7.410788e+01 -1.042070e+02 1.422665e+02 -1.503944e+02 1.029610e+02 1.988126e+02 -2.234221e+02 1.847938e+02 1.069439e+02 2.560078e+02 
-5.439311e+01 -6.084166e+01 1.492587e+02 1.179918e+01 -5.710573e+01 -1.553660e+00 -3.898683e+01 4.610472e+00 5.772600e+01 -8.597779e+01 -3.864067e+01 1.782767e+02 1.362120e+02 -6.771148e+01 -1.559448e+01 -2.208697e+01 -7.757907e+01 8.621366e+01 1.090194e+02 -6.673717e+01 -7.101214e+01 2.075851e+01 2.358266e+01 3.959297e+00 -3.886184e+01 -5.313791e+01 -4.321046e+01 -3.451385e+01 -2.759897e+01 -1.486635e+01 8.447779e-01 8.751969e+00 -7.666247e+00 1.573700e+01 -1.643839e+01 2.318189e+01 -7.203076e+00 -8.820523e+00 2.437251e+01 -3.024010e+01 7.479683e+00 1.075762e+01 -2.101489e+01 8.994046e+00 4.756055e+01 -6.479623e+01 6.640579e+01 1.938071e+01 -4.539447e+01 3.327998e+01 4.721559e+01 -5.301259e+01 -2.261276e+01 1.028957e+02 2.341004e-01 -1.031831e+02 1.488846e+02 2.757293e+00 -1.651386e+01 5.161841e+01 5.106307e+01 -1.512697e+02 4.982391e+01 2.610316e+02 
7.813914e+01 -2.012890e+01 -1.060546e+01 -1.689805e+01 -2.189615e+01 -3.293385e+01 -3.751940e+01 1.113251e+01 5.446055e+01 -5.725096e+01 4.402501e+00 9.681608e+01 -5.359344e+00 -9.193407e+01 -8.793362e+01 -5.107083e+01 6.180069e+01 6.138748e+01 -8.646745e+01 -7.346242e+01 6.136895e+01 6.327477e+01 -7.190850e+01 -1.456816e+02 -1.187430e+02 -5.588910e+01 3.852408e+01 9.968004e+01 7.014754e+01 6.598256e+00 2.753355e+01 4.388316e+01 4.461161e+01 1.291256e+00 -2.248962e+01 1.871587e+01 -4.571324e+01 2.647112e+01 -2.412045e+01 -1.353146e+01 1.649679e+01 -5.118835e+01 3.530867e+01 -4.029700e+01 1.235885e+01 1.312469e+01 -3.456658e+01 4.227703e+01 -2.525904e+01 -2.817374e+01 3.177842e+01 -5.058924e+00 -7.049457e+01 8.230386e+01 3.266650e+01 -1.007615e+02 1.336485e+02 -3.477605e+00 -1.096616e+01 -6.512073e+01 1.262070e+02 -3.795372e+01 -1.036548e+02 5.549465e+00 
8.837905e+01 -7.846914e+01 -2.724414e+01 1.032657e+01 -1.811241e+01 2.419491e+00 -3.975274e+01 -7.236878e+00 1.083009e+02 1.597944e+01 -6.927234e+01 2.900577e+01 -1.239651e+01 -9.281854e+01 -4.318259e+01 4.276308e+01 4.848717e+01 5.401389e+01 -1.314543e+01 -9.790719e+01 -3.641008e+01 6.124471e+01 -2.900507e+01 -1.029071e+02 8.708265e+00 1.225073e+02 6.447934e+01 -2.131199e+01 -6.548334e+01 -1.028126e+02 -5.287359e+00 9.303041e+01 1.112646e+02 6.713274e+01 -5.605593e+00 5.787704e+01 -3.389810e+01 3.636371e+01 1.361086e+01 -2.168590e+01 4.772637e+01 -6.966651e+01 2.144867e+01 -5.535560e+01 -2.754405e+01 -4.192581e+01 -7.823606e+00 -2.282721e+01 -8.449273e+01 9.622814e+01 -8.807864e+01 -5.840518e+01 7.212757e+01 -4.883815e+01 -6.896521e+01 4.490709e+01 -3.731570e-02 -5.994768e+01 1.017203e+01 -2.127529e+01 5.285283e+01 2.834683e+01 -1.967671e+02 9.229356e+01 
5.678123e+01 -5.119733e+01 3.377769e+01 -2.104791e+00 -3.003904e+01 -2.144392e+01 -3.458581e+01 1.550994e+01 6.245130e+01 -5.340570e+00 -3.324219e+01 1.237941e+01 -1.249078e+01 2.715775e+00 6.478693e+01 3.941031e+01 2.523703e+00 2.546510e+01 -1.917666e+00 -4.984809e+01 -1.136701e+01 1.703790e+01 -2.305142e+01 6.206296e+00 4.829940e+01 -2.856872e+01 -1.046387e+02 -1.188624e+02 -3.333533e+01 -8.479143e+01 -3.035810e+01 4.058801e+01 1.325336e+02 1.447769e+02 1.445997e+01 3.051058e+01 -1.357925e+00 -3.987094e+01 2.566864e+01 1.811198e+01 -5.680821e+01 1.212850e+02 -1.257669e+02 1.138932e+02 -6.507243e+01 2.868885e+01 -1.371730e+01 -1.108800e+01 3.679514e+01 -4.792767e+01 3.201602e+01 3.480458e+01 -5.528777e+01 7.240850e+01 -1.241869e+01 -1.304340e+01 1.811495e+01 1.441609e+00 -4.803239e+01 4.296881e+01 -1.608345e+01 -1.813883e+01 1.628763e+00 7.384474e+01 
2.027185e+01 -7.993786e+01 7.444672e+00 1.730703e+01 -1.505373e+01 2.870087e+00 -2.122822e+01 4.238475e+00 3.974269e+01 -2.434869e+01 -2.064935e+01 1.502415e+01 -1.736935e+01 -1.889602e+01 5.631618e+01 3.506634e+01 -2.760061e+01 1.648143e+01 3.003043e+01 -3.005878e+01 -2.951210e+01 2.638770e+01 1.676769e+00 -9.184138e+00 -2.218363e+00 -1.267760e+01 1.543239e+01 2.055038e+01 -3.663809e+01 -8.196563e+01 -6.796566e+01 -4.018908e+01 1.987775e+01 1.995920e+01 -6.190693e+01 -1.196912e+01 -4.975722e+01 -5.348518e+01 7.592720e+01 -7.059297e+01 7.116619e+01 -3.295831e+01 -3.654407e+01 1.199390e+02 -1.430423e+02 9.531567e+01 2.124625e+01 -1.080242e+02 1.256586e+02 -6.357662e+01 -1.422130e+00 5.601927e+01 -2.795623e+01 2.935087e+01 1.863090e+01 -4.946940e+01 9.069601e+01 -3.203386e+01 -1.031275e+02 9.136656e+01 2.849692e+01 -9.310556e+01 -4.887258e+01 8.370487e+01 
-2.990259e+00 -5.207110e+01 -4.178160e+01 -4.351008e+00 -1.205461e+01 -1.334841e+01 -1.738675e+01 6.610796e+00 4.472208e+00 -5.001499e+00 -6.417530e-01 1.688453e+01 -1.100633e+01 6.291562e+00 1.105789e+01 6.531588e+00 -7.381323e+00 2.048202e+01 -2.210554e+01 -1.154665e+01 3.119357e+01 3.767029e+00 -5.907689e+01 3.771524e+01 6.750345e+01 -7.151780e+01 -8.236607e+01 6.630524e+01 1.012169e+02 -7.630116e+01 -1.293851e+02 -1.183316e+02 3.440732e+00 -6.702461e+01 -3.106478e+01 -9.107540e+01 -4.965591e+01 -8.104967e+01 1.278064e+02 -1.327492e+02 1.334844e+02 -2.110676e+01 3.979778e+01 -3.522610e+00 6.316656e+01 -4.001991e+01 1.860299e+01 1.473268e+01 -3.150069e+00 -2.970050e+01 3.435059e+01 -2.870078e+00 -6.073669e+01 3.672835e+01 2.658904e+01 -1.018963e+02 6.170043e+01 4.044610e+01 -1.230443e+02 4.651158e+01 3.354767e+01 -5.234595e+01 -6.951761e+01 5.617727e+01 
4.360599e+01 -3.614833e+01 -1.275826e+01 8.267038e+00 -1.233977e+01 2.334983e+00 -8.419234e+00 2.239638e+00 1.330407e+00 2.022863e-01 5.658808e+00 1.066018e+00 -8.021024e+00 -7.033603e+00 1.581748e+01 3.675772e+00 6.423152e+00 2.129493e+01 9.646933e+00 -3.225919e+01 4.107327e+01 -3.701443e+01 -3.491989e+00 2.779316e+01 1.230616e+01 -7.244829e+01 7.003006e+01 4.175218e+01 -2.623748e+01 -7.428758e+01 6.294551e+01 2.797587e+01 -1.146518e+01 -1.246974e+02 -6.118872e+00 -1.076440e+02 -1.264407e+01 8.105943e+00 9.061693e+01 -1.525929e+01 1.385964e+02 -7.122193e+01 4.665012e+01 1.644974e+01 -4.290326e+01 1.854726e+01 2.717685e+01 -4.741049e+01 2.303857e+01 1.254774e+01 -2.799672e+01 1.171186e+01 -1.605992e+01 2.982621e+01 -2.934071e+01 -2.319897e+01 5.731289e+01 2.834089e+01 -8.961050e+01 3.914194e+01 7.580553e+01 -2.946470e+01 -5.928355e+01 4.640553e+01 
4.943121e+01 -2.717168e+01 6.776103e+00 -1.713007e+00 -2.372003e+01 -6.327774e+00 -1.038018e+01 -5.061682e+00 -1.685558e+00 3.343303e+00 4.193677e+00 3.165644e+00 5.550945e+00 -4.543487e+00 1.415297e+01 -1.403313e+01 1.158837e+01 1.378681e+01 -6.731687e+00 -1.571302e+01 4.346179e+01 -4.891005e+00 -2.738023e+01 3.652340e+00 2.755815e+01 2.918892e+01 -5.834783e+01 -5.536644e+01 6.812580e+00 1.205537e+02 3.007167e+01 -7.180057e+01 -1.686277e+02 -1.245483e+02 -1.023385e+02 -3.450035e+01 7.998368e+00 5.460449e+01 1.024705e+02 7.875841e+01 5.887485e+01 2.822272e+01 3.421650e+01 -1.600304e+01 1.617925e+01 -1.996980e+01 1.266147e+01 -1.156401e+01 -4.572868e+00 5.667822e+00 1.716694e+01 -3.000201e+01 -3.680880e+00 4.794283e+01 -4.397267e+01 -2.657597e+01 6.234304e+01 5.475653e+00 -6.237309e+01 3.460490e+01 6.948850e+01 -3.532593e+01 -2.953553e+01 3.962418e+01 
2.644333e+01 -3.537851e+01 1.286998e+01 9.027592e+00 -1.811969e+01 1.752424e+00 -5.775313e+00 6.140022e-01 7.918689e+00 1.344692e-01 2.386778e+00 5.783567e+00 -6.613800e+00 -1.051730e+01 2.508096e+01 -1.036462e+01 3.362492e+00 3.264656e+01 -1.061814e+01 -6.475435e+00 3.221659e+00 3.358200e+01 -5.223792e+01 -2.450442e+00 5.893323e-01 6.926860e+01 -6.175377e+01 -5.580999e+01 -2.567819e+01 9.942753e+01 6.185617e+01 -2.348477e+01 -5.474814e+01 -1.202106e+02 -9.462452e+01 -4.114337e+00 6.345899e+01 7.740945e+01 2.946588e+01 6.101846e+01 4.763804e+01 4.815687e+01 4.053820e+01 2.054874e+01 4.708350e+01 -2.768220e+01 4.810607e+01 6.430725e-01 -2.416611e+01 2.075928e+01 2.336055e+01 -4.413122e+01 9.869996e+00 4.271637e+01 -3.698841e+01 -2.168858e+01 5.764417e+01 -6.949690e+00 -4.660663e+01 3.640201e+01 4.150284e+01 -4.309123e+01 -1.074570e+01 4.013111e+01 
1.206314e+00 -2.316969e+01 1.972429e+01 -1.835557e+00 -2.690843e+01 -3.064451e+00 -8.285642e+00 -7.664182e+00 7.009350e+00 -1.232076e+01 1.149026e+01 8.061368e+00 -1.380067e+01 1.657457e+01 7.228005e+00 -1.504808e+01 -3.403019e+00 4.210238e+01 -2.809640e+01 -7.657943e+00 2.926374e+00 5.030832e+01 -3.192029e+01 -4.730224e+01 1.613042e+00 7.276112e+01 -1.438114e+01 -6.985802e+01 -3.705058e+00 2.457213e+01 1.906676e+01 -8.112559e+00 -3.686614e+00 -7.365084e+01 4.357945e+00 5.442197e+01 4.010630e+01 -5.519018e+01 -2.427164e+01 4.236502e+00 1.037879e+01 4.622032e+01 -3.455317e+00 1.935601e+01 1.033038e+01 -2.387290e+01 1.826580e+01 -3.256290e+00 -1.316477e+01 1.360025e+01 1.531417e+01 -2.479242e+01 2.357157e+01 2.039508e+01 -2.672239e+01 1.012552e+01 3.944794e+01 -2.420575e+01 -1.051447e+01 4.421037e+01 8.192049e+00 -3.645302e+01 1.927572e+01 2.925744e+01 
-1.244730e+01 -1.464098e+01 1.519908e+01 4.532297e+00 -1.730698e+01 -6.404435e-03 -2.123457e+00 5.136170e+00 8.550973e-01 -1.339977e+01 6.181264e+00 6.934385e+00 -3.242401e+01 1.907243e+01 6.520009e+00 -9.034623e+00 -9.062593e+00 4.064409e+01 4.372475e+00 -4.302211e+01 -8.174150e+00 6.240145e+01 -7.670484e+00 -8.543382e+01 2.592805e+01 4.659837e+01 5.727371e+00 -2.616291e+01 3.104305e+00 -6.603958e+01 3.054885e+01 6.518048e+01 1.952920e+01 -3.542109e+01 4.802548e+01 3.086820e+01 -4.025925e+01 -5.453029e+01 -2.294407e+01 3.932530e+00 1.083594e+01 2.102437e+01 1.317446e+01 2.612722e+01 2.939703e+00 8.692252e+00 1.237255e+01 -5.812527e+00 3.037862e+00 8.954187e+00 -3.665591e+00 -4.132722e+00 9.530635e+00 7.363707e+00 -1.507495e+01 6.324470e+00 1.961107e+01 -2.036231e+01 -2.203852e+00 2.807755e+01 -1.115729e+01 -2.205628e+01 2.148581e+01 1.051490e+01 
-9.342086e+00 -3.835959e+00 1.098286e+01 -4.826629e+00 -2.241386e+01 -6.539970e+00 -2.387640e+00 1.344348e+01 -1.906734e+01 -4.576248e+00 1.039404e+01 -4.177747e-01 -1.536015e+01 1.610398e+01 1.064159e+01 -2.924381e+01 -7.818595e+00 3.797363e+01 1.062856e+01 -5.805651e+01 3.440040e+01 3.599083e+01 -8.153931e+00 -1.757445e+01 2.494464e+01 -2.295251e+01 3.577760e+01 2.471278e+00 -1.660219e+01 -1.011728e+01 4.953160e+01 -2.723184e+01 -2.331110e+01 3.929674e+01 8.021919e+01 -1.547916e+01 -7.533873e+01 -6.067193e+01 -2.720651e+01 -1.866931e+01 -7.243969e+00 8.670788e+00 9.575937e+00 2.113150e+01 4.100717e+00 5.771626e+00 2.864775e-01 -1.429022e+00 -2.727117e+00 4.806835e-01 1.615560e+00 -4.195846e+00 7.994560e+00 2.113829e+00 -4.452392e+00 7.793990e+00 6.708570e+00 -9.670770e+00 4.910787e+00 1.377931e+01 -9.889851e+00 -8.186625e+00 1.680639e+01 2.624671e-01 
-4.462047e+00 -4.126431e+00 8.876745e+00 1.741340e+00 -1.431757e+01 -2.823524e+00 5.188689e-01 1.459066e+01 -1.144051e+01 2.301354e-02 1.998951e+01 -4.293577e+00 -2.668801e+01 1.186892e+01 2.280833e+01 -4.517617e+01 9.910196e+00 4.921496e+01 -9.472465e+00 -2.721722e+01 2.596127e+01 2.626650e+00 9.606813e+00 -1.268063e+00 -3.045099e+01 6.197081e+00 4.471548e+01 1.631339e+00 -2.766968e+01 1.562415e+01 3.595602e+01 -1.165070e+01 -3.007152e+01 1.127879e+01 4.910510e+01 8.770728e-01 -1.862051e+01 -3.811487e+01 -4.758917e+01 -4.751341e+01 -2.769681e+01 -1.115830e+01 1.005717e+01 2.010881e+01 8.568504e+00 1.380679e+01 9.327305e+00 -2.661191e+00 8.088067e+00 1.995056e+00 -5.117792e+00 5.057725e+00 1.837257e+00 -1.983991e+00 -2.945316e-02 3.789739e+00 2.610786e+00 -6.823904e+00 4.941498e+00 8.330030e+00 -9.118002e+00 -2.700670e+00 1.209786e+01 -2.437573e+00 
-2.045055e+00 -1.360951e+00 6.126920e+00 -4.774049e+00 -1.805916e+01 -2.798582e+00 -2.288736e+00 -4.596922e-01 -1.222635e+01 2.513450e+00 2.990826e+01 -1.277995e+01 -8.724417e+00 2.981619e+01 -1.250567e+00 -2.186731e+01 2.513560e+01 9.082021e+00 -9.718017e+00 1.255659e+01 -1.290227e+01 -8.223988e+00 2.154514e+01 9.363948e+00 -2.679850e+01 8.470503e+00 1.788146e+01 -1.084077e+01 -9.849971e+00 3.144372e+01 3.532176e+01 -3.687335e+01 -4.830243e+01 -1.351885e+01 3.638421e+01 2.117972e+01 2.074533e+00 -2.560354e+01 -4.019356e+01 -4.824994e+01 -2.813304e+01 -6.461985e+00 1.345507e+01 2.139123e+01 1.147908e+01 1.258028e+01 5.682495e+00 2.566371e-01 1.049957e+00 1.417976e-01 -1.780462e+00 -1.135524e+00 3.368570e+00 -2.269709e+00 3.333922e-01 3.527600e+00 -6.560681e-01 -1.124308e+00 2.042988e+00 3.618985e+00 -3.367687e+00 -1.844513e+00 6.849826e+00 -2.076664e+00 
1.149251e+00 -4.381068e+00 5.356332e+00 1.306712e+00 -1.167108e+01 8.159558e-01 2.780852e+00 -4.192278e+00 -1.775881e+01 1.300134e+01 1.539746e+01 -2.654508e+01 4.256022e+00 1.723751e+01 -5.238055e+00 1.558022e+01 6.577995e+00 -7.697149e+00 1.075747e+01 -8.490824e-01 -3.491155e+01 -3.380187e-01 1.900397e+01 1.543347e+00 -1.623821e+01 8.277240e+00 1.293963e+01 -1.442329e+01 -1.862605e+01 2.113797e+01 3.980089e+01 -8.123978e+00 -4.255621e+01 -3.119091e+01 2.953826e+01 2.838907e+01 9.841438e+00 -1.556779e+01 -2.434307e+01 -2.550360e+01 3.811818e+00 1.878154e+01 3.878963e+01 3.439277e+01 2.182113e+01 1.716647e+01 1.338235e+01 1.850249e+00 8.017869e+00 2.323063e+00 -2.419446e+00 4.402049e+00 -1.588145e-01 -1.745966e+00 2.771441e+00 -8.180341e-01 1.471267e+00 -9.154477e-01 1.882033e-01 3.314109e+00 -2.024703e+00 -1.362875e+00 4.112592e+00 -1.257961e+00 
5.726003e-01 -1.893800e+00 4.056849e+00 -3.986954e+00 -1.458055e+01 1.748692e+00 -1.429068e+00 -2.084994e+01 -4.410759e+00 1.934871e+01 -9.530745e+00 -4.807518e+00 1.140507e+01 -8.233884e+00 9.764331e+00 2.116209e+01 -2.138427e+01 -1.314227e+01 1.850524e+01 -4.915316e+00 -1.173269e+01 7.922127e+00 1.423869e+01 3.807551e-01 7.284868e+00 7.823797e+00 -8.264395e+00 -3.686839e+01 4.957821e+00 2.542063e+01 2.634149e+01 -2.396033e+01 -2.688290e+01 -1.099053e+01 1.751603e+01 1.086235e+01 1.397391e+00 6.200284e+00 2.414756e+00 -6.283084e+00 -9.451693e+00 1.365019e+01 4.925792e+01 5.122049e+01 2.973858e+01 2.068160e+01 1.090531e+01 4.593351e+00 3.318486e+00 1.489111e+00 -1.857087e-01 -1.399616e+00 2.886187e+00 -2.638844e+00 9.414946e-01 1.341688e+00 -1.057627e+00 1.148913e+00 -6.718798e-01 1.518826e+00 3.708515e-01 -2.123940e+00 3.006987e+00 -8.204794e-01 
2.533538e+00 -4.593849e+00 3.832141e+00 1.264476e+00 -9.376349e+00 1.566560e+00 -3.620742e+00 -6.597853e+00 2.024972e+01 4.561074e+00 -1.384330e+01 5.586555e+00 -1.064309e+01 -2.051463e+01 2.213592e+01 8.758634e+00 -2.154422e+01 -4.820048e+00 1.556479e+01 1.291196e+00 5.472065e+00 9.097769e+00 9.542804e+00 -1.444099e+01 6.197011e+00 6.015497e+00 -8.404418e+00 -3.604821e+01 -1.175359e+00 1.400765e+01 3.987522e+01 3.934042e+00 -1.806412e+01 -3.203252e+01 -1.389649e+01 1.777142e+01 2.613859e+01 7.941633e+00 -3.998888e+01 -7.938702e+01 -9.570110e+01 -4.023200e+01 9.567664e+00 3.318737e+01 2.527329e+01 1.986151e+01 1.612263e+01 5.793921e+00 8.694730e+00 3.832041e+00 2.122772e-01 3.366750e+00 2.662754e-01 -9.170792e-01 2.770626e+00 -2.126204e+00 2.040423e+00 3.156367e-01 -1.589724e+00 2.279102e+00 4.164015e-01 -1.767212e+00 1.715756e+00 -3.351672e-01 
1.100791e+00 -1.758432e+00 2.889452e+00 -3.365398e+00 -1.156434e+01 -3.029648e+00 -5.335201e+00 1.010412e+01 1.182658e+01 -2.139640e+01 -1.951259e+00 1.330650e+01 -1.380682e+01 -4.721223e+00 2.297315e+01 -6.056227e+00 -1.943654e+01 -2.728630e+00 1.202898e+01 8.791190e+00 1.375168e+01 9.670364e+00 -9.299260e+00 -1.919449e+01 1.318863e+01 4.067999e+00 -1.407942e+01 -1.826330e+01 5.738655e+00 2.188107e+01 3.873498e+01 1.512117e+01 -9.039070e+00 -2.685994e+01 -1.646918e+01 1.619077e+01 4.148179e+01 3.765681e+01 -1.368630e+01 -6.723928e+01 -8.951673e+01 -7.914616e+01 -6.798323e+01 -3.001407e+01 -1.114961e+01 9.992068e+00 8.515247e+00 7.225727e+00 4.530755e+00 2.811973e+00 1.777939e+00 -1.422322e+00 3.304035e+00 -2.450183e+00 1.004003e+00 6.785090e-01 -1.171100e+00 1.699900e+00 -1.520231e+00 8.677866e-01 1.257615e+00 -2.229343e+00 1.940844e+00 -6.373551e-01 
2.714481e+00 -4.253264e+00 2.973322e+00 1.177792e+00 -7.099918e+00 -2.695607e+00 2.298375e-01 1.609931e+01 -4.473536e+00 -2.305528e+01 9.974294e+00 1.419606e+01 -1.176529e+01 -3.940994e+00 1.172038e+01 4.744144e+00 -1.033728e+01 -9.512974e-01 1.759267e+00 5.957791e+00 1.141486e+01 2.825281e+00 -3.591433e+01 -1.512003e+01 1.691347e+01 1.490367e+01 -1.154966e+01 2.339023e+00 1.401220e+00 1.748456e+01 2.137270e+01 1.046941e+01 -6.263748e+00 -1.464577e+01 -1.690287e+01 -2.232748e+01 7.563541e+00 1.817966e+01 1.958697e+01 4.785726e+00 -1.034383e+01 -4.179140e+01 -6.602316e+01 -5.424991e+01 -3.073106e+01 -2.884580e+00 1.136947e+01 1.017397e+01 1.138107e+01 6.353618e+00 2.702550e+00 3.266057e+00 1.061289e+00 -5.289264e-01 2.640985e+00 -2.183769e+00 1.899874e+00 5.799624e-01 -1.798116e+00 1.696884e+00 7.802671e-01 -1.570398e+00 9.940513e-01 -3.976763e-01 
1.072726e+00 -1.341512e+00 2.103364e+00 -3.005636e+00 -8.752611e+00 -3.697888e+00 2.603793e+00 9.057309e+00 -2.341300e+01 -1.736016e+01 2.493966e+01 2.408461e+01 -1.475846e+01 -3.695891e+00 5.458487e+00 1.539182e+00 -1.620834e+00 1.548864e+01 -2.098629e+01 1.152988e+00 3.882619e+01 6.887381e+00 -5.938295e+01 9.921713e+00 4.933580e+01 2.151189e+01 -1.967109e+01 1.473923e+01 3.570790e+00 6.390506e+00 6.716797e+00 9.584668e+00 5.329751e+00 -2.175378e+01 -5.238228e+01 -4.958643e+01 5.885064e+01 1.328024e+02 1.025657e+02 -3.569054e+01 -1.074870e+02 -6.967093e+01 -8.504905e+00 4.198173e+00 -5.485850e+00 1.221294e+00 4.947545e+00 1.059519e+01 8.254127e+00 5.813650e+00 4.525287e+00 -5.724415e-01 4.146422e+00 -2.292630e+00 1.266124e+00 5.563468e-01 -1.479326e+00 1.950069e+00 -1.721697e+00 5.558451e-01 1.193313e+00 -2.056100e+00 1.690475e+00 -9.291174e-01 
2.589116e+00 -3.800341e+00 2.354474e+00 1.053327e+00 -4.695839e+00 -1.942844e+00 5.969557e+00 4.027001e+00 -2.345458e+01 -7.377549e+00 2.905486e+01 1.811236e+01 -1.842609e+01 -9.689125e+00 -1.474541e+01 8.916263e+00 2.055551e+01 2.379238e+00 -8.353643e+00 1.751822e+01 6.525366e+00 -1.753284e+01 -8.691492e+00 3.231882e+01 9.535691e+00 -3.489620e+00 5.084534e+00 1.836989e+01 -6.252898e+00 -1.074905e+01 -2.039029e+01 -3.432357e+00 3.491139e+01 4.703141e+01 8.997054e+00 -5.276409e+01 -1.525985e+01 5.137874e+01 1.060736e+02 1.092637e+02 1.357292e+02 7.715291e+01 4.664870e+00 -3.751461e+01 -1.926604e+01 8.602745e+00 1.938366e+01 1.498835e+01 1.344707e+01 8.430516e+00 4.901663e+00 3.604305e+00 1.823887e+00 -2.742136e-01 2.603570e+00 -1.983058e+00 1.503204e+00 7.046480e-01 -1.686322e+00 1.234675e+00 6.511381e-01 -1.270057e+00 7.250718e-01 -6.993068e-01 
9.331050e-01 -8.927791e-01 1.467295e+00 -2.795247e+00 -6.022179e+00 -2.235662e+00 4.507868e+00 1.286367e-01 -2.448408e+01 -1.093901e+01 3.135516e+01 2.048170e+01 -1.224728e+01 -2.794153e+01 -2.252892e+01 2.172858e+01 2.980361e+01 -1.502267e+01 -1.873515e+01 4.667037e+00 3.064229e+01 -2.662869e+01 -3.391607e+01 3.479854e+01 5.380240e+01 -2.143171e+01 -4.764926e+01 -3.502140e+01 1.323359e+01 1.758650e+01 4.294775e+00 -3.368252e+01 -9.650834e+00 4.269703e+01 6.774213e+01 3.237376e+01 -2.821895e+01 -2.930387e+01 -1.112229e+01 3.632250e+01 5.037618e+01 -3.894079e+00 -9.683542e+01 -9.716903e+01 -3.267935e+01 4.743344e+01 6.138911e+01 3.969199e+01 1.890313e+01 9.712893e+00 6.977225e+00 1.585579e-01 5.000948e+00 -2.285919e+00 1.665618e+00 5.394877e-01 -1.775970e+00 2.217749e+00 -1.833626e+00 4.334274e-01 9.591308e-01 -1.899012e+00 1.716437e+00 -1.320771e+00 