# vtk DataFile Version 2.0
Comment goes here
ASCII

DATASET STRUCTURED_POINTS
DIMENSIONS    64   64   1

ORIGIN    0.000   0.000   0.000
SPACING   0.0156250.015625   1.000

POINT_DATA   4096
SCALARS P double
LOOKUP_TABLE default

1.372684e+00 -9.502681e+00 9.175934e+00 -2.286196e+00 -2.862350e+00 -1.132182e+01 -1.737004e+01 6.424614e+00 1.303000e+01 2.449158e+00 9.772294e+00 2.152063e+00 8.137674e+00 1.032259e+01 6.299363e+00 8.498477e+00 5.186135e+00 7.081378e+00 5.898432e+00 6.294152e+00 5.152344e+00 6.855307e+00 4.460036e+00 6.308007e+00 4.530986e+00 4.814538e+00 4.740299e+00 3.571863e+00 4.059996e+00 3.741058e+00 2.391371e+00 4.342423e+00 1.107007e+00 3.549964e+00 1.617887e+00 1.816155e+00 2.008210e+00 9.439531e-01 1.920644e+00 1.295939e-01 2.208355e+00 -9.937571e-01 2.298553e+00 -1.679196e+00 1.907101e+00 -1.578167e+00 1.142614e+00 -1.058692e+00 3.562713e-01 -8.360792e-01 -1.471175e-02 -1.450290e+00 9.323845e-01 -3.293794e+00 2.199168e+00 -7.467736e+00 -7.284470e+00 -8.356531e+00 2.048402e+00 -5.203940e+00 2.973246e+00 -8.944086e+00 4.693477e+00 -1.417710e+00 
-1.789841e+00 -9.653345e+00 7.758404e+00 -6.469507e+00 -2.485144e+00 -1.231946e+01 -3.736244e+00 -2.328961e+00 1.810964e+00 -1.812352e+01 9.862508e+00 -5.531336e-01 -5.452574e+00 5.469430e+00 4.818194e+00 6.191961e+00 2.001495e+00 5.037703e+00 2.966068e+00 4.188330e+00 1.943773e+00 5.601531e+00 8.906602e-01 5.205379e+00 1.438342e+00 3.202773e+00 2.787838e+00 1.422388e+00 2.611973e+00 2.365021e+00 3.862948e-01 4.379156e+00 -1.076606e+00 3.551149e+00 8.953428e-01 9.043753e-01 2.186121e+00 2.865313e-01 1.925208e+00 -2.058723e-01 2.220867e+00 -1.347049e+00 2.603573e+00 -1.954479e+00 2.578587e+00 -1.579888e+00 2.015438e+00 -7.121776e-01 1.193377e+00 -1.126629e-01 6.260794e-01 -5.661251e-01 2.451540e+00 -1.827348e+00 4.669018e+00 -1.502582e+01 -1.195551e+01 -8.100231e+00 4.401128e+00 -1.555964e+01 -4.359045e+00 -9.987326e+00 -1.165079e+01 -8.653530e+00 
-1.932534e+00 -6.180419e+00 -4.866534e+00 -1.049538e+01 8.847365e-02 9.805056e+00 1.243910e+01 3.589874e+00 -2.639348e+00 1.043519e+01 8.245427e+00 2.941115e+00 -7.182032e+00 7.253385e+00 5.425797e+00 9.736459e+00 4.251946e+00 7.429381e+00 7.822322e+00 5.018117e+00 5.158350e+00 8.665121e+00 3.383180e+00 8.005508e+00 4.256019e+00 4.646807e+00 6.231113e+00 1.700902e+00 5.552745e+00 3.182396e+00 1.493042e+00 6.651514e+00 -1.505515e+00 5.268740e+00 1.418887e+00 8.503673e-01 2.708074e+00 8.788464e-01 1.667082e+00 3.041064e-01 2.664684e+00 -2.013032e+00 3.311385e+00 -3.058232e+00 2.811808e+00 -2.279070e+00 1.305023e+00 -7.826279e-01 -2.343141e-01 4.353903e-01 -1.152961e+00 -4.307431e-01 5.175608e-01 -3.975913e+00 2.263879e+00 -1.151625e+01 -2.834527e+00 -7.114337e+00 2.075173e+00 -1.075112e+01 -4.309271e+00 -4.536291e+00 -5.209901e+00 -5.043571e+00 
-6.097624e+00 -6.417756e+00 5.788982e-01 -8.104054e+00 -1.420075e+00 -1.518749e+01 -5.602303e+00 1.635413e+00 4.603106e+00 1.221008e+01 4.697544e+00 9.233326e+00 7.612241e+00 7.324152e+00 5.376496e+00 1.285474e+01 -5.741236e-01 7.936176e+00 6.656704e+00 2.276723e+00 2.137739e+00 8.393560e+00 -2.368492e+00 7.973218e+00 -1.065631e+00 3.951650e+00 3.570720e+00 -5.220127e-01 4.419442e+00 1.147987e+00 8.628959e-02 6.382651e+00 -4.888170e+00 5.828530e+00 1.005667e+00 -1.810978e+00 5.335614e+00 -2.296801e+00 3.723710e+00 -1.284550e-01 1.608707e+00 3.195714e-01 7.390508e-01 3.430427e-01 2.406652e+00 9.605419e-01 3.400308e+00 5.074754e-01 3.695116e+00 -1.387362e+00 3.964330e+00 -1.173928e+00 5.949139e+00 2.959441e-01 4.180340e+00 -1.975871e+00 -1.305330e+00 -1.607600e+00 3.641811e+00 -7.371933e+00 1.290354e+00 -6.658003e+00 -8.772898e-01 -7.146464e+00 
-3.045729e+00 4.597834e-01 -3.984013e+00 -2.060087e+01 1.466000e+01 -2.033657e+01 -1.544956e+00 -1.494383e+01 5.306014e+00 2.984607e+00 -5.758388e-02 -4.410346e-01 5.865140e+00 6.200870e+00 6.930134e+00 1.305596e+01 1.563840e+00 1.002657e+01 6.756841e+00 4.654172e+00 3.565920e+00 9.499103e+00 -7.441031e-01 9.832236e+00 -5.006898e-01 6.298417e+00 2.986017e+00 2.083316e+00 4.446091e+00 1.974695e+00 2.277198e+00 4.744717e+00 -2.050774e+00 4.172426e+00 1.430301e+00 -3.068422e+00 6.135701e+00 -5.088205e+00 3.986562e+00 -1.371759e+00 -1.538882e+00 2.738697e+00 -4.222969e+00 3.044747e+00 -2.632072e+00 4.715600e-01 -1.692334e-01 -4.131979e+00 3.127489e+00 -8.888644e+00 5.229241e+00 -8.523033e+00 4.924892e+00 -4.173808e+00 -1.472681e+00 -5.860126e+00 -1.097621e+01 -3.401406e+00 3.507443e+00 -1.244491e+01 -1.272293e+00 -1.273931e+00 -4.437180e+00 2.569998e-01 
-4.761564e+00 -3.079401e+00 -1.307155e+01 -2.589774e+01 -2.137940e+01 -1.926375e+00 1.154773e+01 -1.404751e+01 4.344135e+00 -3.076287e-01 8.851735e-01 4.341045e+00 -8.304594e-01 4.413340e+00 1.566046e+00 7.482657e+00 -1.910858e+00 6.328277e+00 3.326071e-02 3.646591e+00 -8.182778e-01 5.870282e+00 -2.925357e+00 6.563552e+00 -2.728638e+00 4.478996e+00 -5.401478e-01 1.873479e+00 8.240290e-01 1.350469e+00 1.948159e-01 2.488560e+00 -1.403914e+00 1.855956e+00 5.830627e-01 -2.688901e+00 4.052768e+00 -4.708584e+00 3.085957e+00 -1.591138e+00 -1.040500e+00 2.118192e+00 -3.333466e+00 2.163995e+00 -2.596928e+00 -1.983663e-01 -3.189351e-01 -3.861613e+00 3.376039e+00 -7.116925e+00 5.522087e+00 -7.451840e+00 4.259386e+00 -6.165796e+00 -1.008488e+00 -6.806393e+00 -1.003192e+01 -3.169663e+00 -5.256074e+00 -5.573009e+00 -5.066835e+00 -1.954867e+01 -2.445999e+00 -8.037512e+00 
2.965011e+00 -5.819074e+00 1.743303e+00 -1.050894e+01 -1.341435e+01 -2.754662e+01 -6.617682e+00 -7.417033e+00 -5.792773e+00 5.634174e+00 8.833613e-01 5.205540e+00 4.000336e+00 4.352524e+00 5.397031e+00 8.864360e+00 3.912828e+00 8.320345e+00 4.503224e+00 6.985525e+00 3.291372e+00 7.794676e+00 1.583294e+00 7.509703e+00 1.479323e+00 5.808110e+00 2.492926e+00 3.820439e+00 2.814613e+00 3.039575e+00 1.975999e+00 3.117757e+00 8.313347e-01 2.099894e+00 1.791177e+00 -7.374126e-01 2.896078e+00 -1.999691e+00 1.923929e+00 -8.141530e-01 -4.056067e-01 5.092371e-01 -1.960834e+00 1.349344e-01 -1.891958e+00 -1.619298e+00 -8.973309e-01 -4.246662e+00 7.065297e-01 -6.576455e+00 1.614132e+00 -7.125788e+00 6.055752e-01 -5.950085e+00 -2.806467e+00 -4.789365e+00 -4.924542e+00 -7.675657e+00 -7.684807e+00 -3.584508e+00 -1.262463e+01 -1.029744e+01 -2.826558e+00 -3.129962e+00 
1.339882e+00 -1.287212e+01 -4.014507e+00 -2.019323e+01 5.256476e+00 9.094682e+00 -1.310539e+01 -3.829378e+01 -1.415922e+01 -6.477492e-01 -7.457426e+00 1.313616e+00 -2.719658e+00 2.183773e+00 -7.363909e-01 5.568531e+00 -1.331390e+00 5.203005e+00 -8.124543e-01 4.518029e+00 -1.021408e+00 4.906923e+00 -1.603480e+00 4.813489e+00 -1.419100e+00 3.814184e+00 -4.985217e-01 2.538246e+00 1.467729e-01 1.848015e+00 1.213153e-01 1.627822e+00 -3.230976e-02 8.222407e-01 8.254720e-01 -9.931796e-01 1.823236e+00 -1.838644e+00 1.453359e+00 -8.875073e-01 -3.469083e-02 2.860410e-01 -1.148843e+00 1.975879e-01 -9.221010e-01 -1.087642e+00 3.321964e-01 -2.970781e+00 1.933611e+00 -4.569593e+00 2.738377e+00 -5.166769e+00 1.983837e+00 -5.410619e+00 -2.413105e-01 -6.409383e+00 -5.341857e+00 -3.373981e+00 -5.337961e+00 -5.982857e+00 1.974557e+00 -5.091744e+00 -6.247301e+00 -1.463325e+01 
-8.047513e+00 -8.989694e+00 3.515339e+00 -8.179450e+00 -1.489648e+01 1.902038e+01 2.334245e+01 -1.144441e+00 1.188116e+00 2.373621e+00 7.356513e+00 9.427803e+00 4.493481e+00 6.147085e+00 6.158933e+00 8.343596e+00 4.870080e+00 7.782025e+00 4.527686e+00 7.425518e+00 3.666094e+00 7.133216e+00 2.709372e+00 6.529973e+00 2.446734e+00 5.457683e+00 2.605237e+00 4.222668e+00 2.542199e+00 3.316776e+00 2.096077e+00 2.657861e+00 1.635022e+00 1.684055e+00 1.716819e+00 2.679504e-01 1.746312e+00 -5.982675e-01 1.118742e+00 -5.791079e-01 2.920928e-03 -5.036651e-01 -9.073112e-01 -1.070309e+00 -1.145916e+00 -2.248450e+00 -8.702390e-01 -3.763843e+00 -3.880844e-01 -5.135739e+00 -2.483983e-01 -5.912889e+00 -1.148760e+00 -6.286702e+00 -2.522069e+00 -6.912051e+00 -5.902804e+00 -6.394160e+00 -7.814551e+00 -7.513790e+00 -6.222142e+00 -7.360520e+00 -4.195716e+00 -7.598404e+00 
-5.157821e+00 -4.193423e+01 -2.339987e+01 -2.574167e+00 -2.803484e+01 -9.581873e+00 -1.162446e+01 -1.357101e+01 -1.692886e+00 -7.316162e+00 -5.854376e+00 -2.043045e-01 -2.590439e+00 2.039776e+00 -6.165417e-01 3.389728e+00 -1.220649e+00 4.054669e+00 -9.901519e-01 4.067363e+00 -9.054793e-01 4.182913e+00 -9.866530e-01 3.948854e+00 -8.242825e-01 3.303180e+00 -3.590074e-01 2.511393e+00 1.845044e-02 1.867452e+00 1.676795e-01 1.346500e+00 2.950702e-01 6.514133e-01 6.683205e-01 -2.523082e-01 9.849515e-01 -7.493448e-01 8.053486e-01 -5.952475e-01 2.035625e-01 -3.554864e-01 -2.850423e-01 -6.005812e-01 -2.107180e-01 -1.402700e+00 3.572780e-01 -2.513853e+00 1.074404e+00 -3.464698e+00 1.620812e+00 -3.905779e+00 1.449569e+00 -4.026836e+00 6.030434e-02 -4.050301e+00 -8.014081e-01 -3.334547e+00 -1.323864e+00 -2.401632e+00 -1.734386e+00 -4.923015e+00 -1.764875e+00 -5.671598e+00 
-2.598760e+01 -3.235418e+01 -4.973112e+01 -5.720344e+00 -5.045654e+01 2.517987e+01 1.648777e+01 6.920695e+00 1.022325e+01 1.088847e+01 9.973850e+00 8.932059e+00 9.412195e-01 4.503924e+00 7.072965e+00 8.518679e+00 5.151653e+00 7.759467e+00 4.788953e+00 7.044013e+00 3.836906e+00 6.558857e+00 3.337056e+00 6.068221e+00 3.002085e+00 5.221872e+00 2.793221e+00 4.230280e+00 2.537488e+00 3.328999e+00 2.169758e+00 2.510111e+00 1.807523e+00 1.618542e+00 1.572748e+00 6.537262e-01 1.285619e+00 -8.711427e-02 7.680531e-01 -5.118123e-01 7.384879e-02 -9.248797e-01 -5.533333e-01 -1.602813e+00 -9.037889e-01 -2.536563e+00 -1.014444e+00 -3.588418e+00 -1.052761e+00 -4.466972e+00 -1.163859e+00 -5.250887e+00 -2.192695e+00 -6.381629e+00 -3.877075e+00 -6.439834e+00 -5.015307e+00 -6.255473e+00 -6.500535e+00 -5.528281e+00 -9.527093e+00 -8.082996e+00 -1.352949e+01 -1.396637e+01 
9.630683e+00 -1.171181e+01 -4.483346e+00 -3.044477e+00 -9.893214e+00 3.106885e+00 2.155742e+00 -2.128693e+00 -5.970614e+00 -1.770548e+00 -2.871933e+00 1.745120e+00 -4.501853e+00 -1.142207e+00 -3.773023e+00 1.937974e+00 -1.254938e+00 3.542093e+00 -7.205784e-01 3.605596e+00 -6.544697e-01 3.604051e+00 -6.317300e-01 3.328200e+00 -5.054251e-01 2.873300e+00 -2.422040e-01 2.326784e+00 7.729932e-03 1.769305e+00 1.806569e-01 1.236556e+00 3.298987e-01 6.680372e-01 5.111475e-01 9.115035e-02 6.225895e-01 -2.970305e-01 5.335778e-01 -4.355250e-01 2.796367e-01 -5.439802e-01 5.636781e-02 -8.561384e-01 7.160977e-02 -1.372514e+00 4.089908e-01 -1.992454e+00 7.504161e-01 -2.695000e+00 1.029097e+00 -3.123882e+00 8.130049e-01 -3.608606e+00 2.217123e-01 -3.608427e+00 -2.095427e-01 -2.456342e+00 6.508325e-01 -3.364885e+00 1.050744e+00 -1.243665e+00 6.038782e+00 2.368404e+00 
-5.831683e+00 -2.129601e+01 -2.050164e+01 -1.471048e+01 -2.003916e+01 1.451245e+01 1.290946e+01 1.107404e+01 8.987509e+00 8.186386e+00 8.747598e+00 8.172248e+00 6.368937e+00 8.002076e+00 6.506768e+00 4.402050e+00 2.596432e+00 7.063310e+00 5.009788e+00 6.595569e+00 4.038634e+00 6.258713e+00 3.772927e+00 5.743211e+00 3.309534e+00 4.976039e+00 2.908140e+00 4.138292e+00 2.549796e+00 3.277468e+00 2.167795e+00 2.434332e+00 1.788281e+00 1.597232e+00 1.431641e+00 7.809625e-01 1.040735e+00 7.290171e-02 5.665444e-01 -5.106487e-01 3.464229e-02 -1.093661e+00 -4.801191e-01 -1.820207e+00 -9.386951e-01 -2.687139e+00 -1.263585e+00 -3.480857e+00 -1.564414e+00 -4.581483e+00 -1.973741e+00 -5.085768e+00 -2.550716e+00 -6.247546e+00 -3.808598e+00 -6.298087e+00 -4.983521e+00 -6.820102e+00 -6.482929e+00 -7.238859e+00 -6.646902e+00 -9.364140e+00 -8.869562e+00 -1.260048e+01 
3.015258e+00 -6.067138e+00 4.754754e+00 -3.922705e+00 1.290666e+01 -2.307149e-01 9.957965e-01 -9.939012e-01 -2.294121e+00 6.188655e-01 -1.620735e+00 1.059597e+00 -2.277989e+00 1.603440e+00 -6.387378e-01 1.848160e+00 -2.306880e+00 1.654818e+00 -1.345935e+00 3.212838e+00 -2.516229e-01 3.335965e+00 -2.803310e-01 3.025934e+00 -2.309270e-01 2.610571e+00 -1.281434e-01 2.095327e+00 3.302265e-02 1.610431e+00 1.843425e-01 1.153558e+00 2.993403e-01 6.939033e-01 3.906946e-01 2.533978e-01 4.290283e-01 -9.855392e-02 3.799823e-01 -3.474727e-01 2.686757e-01 -5.795578e-01 1.733822e-01 -8.964015e-01 1.588772e-01 -1.322154e+00 2.753080e-01 -1.653284e+00 7.257394e-01 -1.593423e+00 1.029114e+00 -2.662357e+00 1.582712e-01 -4.044612e+00 5.718831e-01 -2.647281e+00 2.621598e-01 -2.256625e+00 2.085458e+00 -1.759546e+00 8.495941e-01 -8.693906e-01 4.097794e+00 -6.920914e-01 
-6.684428e+00 -1.009401e+01 -1.041275e+01 -1.119192e+01 -7.537179e+00 1.062215e+01 1.056492e+01 1.047650e+01 8.948858e+00 8.795702e+00 8.094695e+00 8.671308e+00 6.797303e+00 8.073517e+00 5.699504e+00 6.864791e+00 5.349999e+00 6.889201e+00 2.488290e+00 4.548220e+00 3.572397e+00 6.189613e+00 4.315589e+00 5.696880e+00 3.622187e+00 4.876421e+00 3.086251e+00 4.038045e+00 2.602196e+00 3.160815e+00 2.137972e+00 2.319714e+00 1.710092e+00 1.530322e+00 1.294635e+00 7.809915e-01 8.592469e-01 8.622711e-02 3.922521e-01 -5.590658e-01 -9.246851e-02 -1.206237e+00 -5.703167e-01 -1.904414e+00 -1.042423e+00 -2.675164e+00 -1.609906e+00 -3.558412e+00 -2.250643e+00 -4.476491e+00 -3.214024e+00 -6.589909e+00 -3.856054e+00 -6.373923e+00 -3.859850e+00 -5.593674e+00 -4.347902e+00 -7.210637e+00 -5.859414e+00 -1.051050e+01 -5.921569e+00 -1.051437e+01 -6.666644e+00 -1.271021e+01 
1.377778e-01 -4.096723e+00 1.706489e+00 -3.891386e+00 5.204923e+00 -2.424124e-01 6.372153e-01 2.667465e-01 -3.068110e-01 1.111376e+00 -8.456607e-01 1.589416e+00 -4.773672e-01 2.130655e+00 -3.010642e-01 2.007705e+00 -4.864855e-01 2.941055e+00 -8.152337e-01 1.520204e+00 -1.110271e+00 2.008131e+00 -1.722445e-01 2.524084e+00 -2.834542e-02 2.265470e+00 -8.460594e-02 1.865805e+00 -9.863203e-03 1.494406e+00 1.213801e-01 1.115231e+00 2.284601e-01 7.208319e-01 2.893256e-01 3.356180e-01 2.993848e-01 -6.947525e-03 2.621345e-01 -2.991352e-01 2.034940e-01 -5.720500e-01 1.636717e-01 -8.734331e-01 1.420257e-01 -1.246385e+00 8.633305e-02 -1.585624e+00 2.558228e-01 -1.527149e+00 6.663229e-01 -1.829885e+00 5.411542e-01 -4.359627e+00 7.229280e-01 -2.759635e+00 -4.189161e-02 -2.326522e+00 3.030769e-01 -1.472635e+00 5.927787e-01 -2.673780e+00 1.113268e+00 -5.747412e+00 
-8.296641e+00 -1.092421e+01 -9.666044e+00 -1.122464e+01 -1.039572e+01 9.793597e+00 9.222173e+00 9.912289e+00 8.546610e+00 8.784326e+00 7.672967e+00 8.505348e+00 6.864819e+00 7.808752e+00 6.099028e+00 6.982006e+00 5.372363e+00 6.618748e+00 4.622053e+00 6.295006e+00 4.628265e+00 5.583874e+00 3.481980e+00 4.831459e+00 3.268832e+00 4.608083e+00 3.098838e+00 3.885672e+00 2.567204e+00 2.991959e+00 2.039404e+00 2.185173e+00 1.577158e+00 1.447676e+00 1.131685e+00 7.398936e-01 6.782062e-01 5.742373e-02 2.129013e-01 -5.988420e-01 -2.511421e-01 -1.236349e+00 -6.973246e-01 -1.870792e+00 -1.162939e+00 -2.549513e+00 -1.786920e+00 -3.302723e+00 -2.689444e+00 -4.098307e+00 -4.881210e+00 -7.136393e+00 -4.866575e+00 -7.915761e+00 -5.387794e+00 -8.448667e+00 -7.391688e+00 -7.512086e+00 -6.018958e+00 -7.471055e+00 -6.421602e+00 -8.731857e+00 -6.639018e+00 -1.082021e+01 
-5.018821e-01 -3.538213e+00 -1.032315e+00 -3.588009e+00 -3.511193e+00 1.580071e+00 6.526988e-01 1.327560e+00 3.652404e-01 1.579156e+00 -1.152636e-01 1.857356e+00 -4.170984e-02 2.094025e+00 -5.561506e-02 2.293930e+00 -1.045892e-01 2.619708e+00 -3.517184e-02 2.623208e+00 2.794892e-01 3.009261e+00 5.267340e-01 2.254911e+00 2.120812e-02 1.868862e+00 -4.339130e-02 1.537914e+00 5.166241e-03 1.312746e+00 1.375572e-01 1.053213e+00 2.173009e-01 7.160557e-01 2.345789e-01 3.611418e-01 2.119795e-01 2.489313e-02 1.619626e-01 -2.837156e-01 1.037331e-01 -5.701471e-01 6.605688e-02 -8.535600e-01 4.697914e-02 -1.194167e+00 -8.516361e-02 -1.780611e+00 -8.195752e-01 -2.996839e+00 -2.201125e+00 -3.898709e+00 8.351190e-01 -2.753227e+00 -3.749811e-01 -4.272019e+00 -1.425844e+00 -3.025807e+00 -5.910887e-01 -2.303583e+00 3.605141e-02 -2.906390e+00 -4.172586e-02 -4.030734e+00 
-7.617540e+00 -8.808339e+00 -8.263062e+00 -9.346370e+00 -8.366996e+00 9.579011e+00 8.363482e+00 9.245815e+00 7.875870e+00 8.557592e+00 7.228512e+00 7.994703e+00 6.572101e+00 7.416353e+00 5.931098e+00 6.826904e+00 5.310363e+00 6.391761e+00 4.885597e+00 6.170411e+00 5.028967e+00 6.142151e+00 4.774571e+00 4.883258e+00 3.228600e+00 3.994734e+00 2.423033e+00 3.123247e+00 1.956377e+00 2.564847e+00 1.678830e+00 1.999388e+00 1.328962e+00 1.352670e+00 9.237202e-01 6.832006e-01 4.881484e-01 1.215779e-02 2.545585e-02 -6.576920e-01 -4.586064e-01 -1.329393e+00 -9.488593e-01 -2.001633e+00 -1.422525e+00 -2.676896e+00 -1.921167e+00 -3.438957e+00 -2.551493e+00 -4.250384e+00 -2.202750e+00 -4.153594e+00 -2.945310e+00 -5.004241e+00 -3.438545e+00 -7.190950e+00 -4.616758e+00 -7.086634e+00 -5.572857e+00 -7.546977e+00 -6.352104e+00 -8.025728e+00 -6.513936e+00 -8.258328e+00 
-1.363418e+00 -3.362890e+00 -1.679377e+00 -3.426340e+00 -2.229733e+00 2.129759e+00 9.050327e-01 1.940113e+00 6.673525e-01 1.956567e+00 3.702981e-01 2.048013e+00 2.569891e-01 2.147123e+00 1.636237e-01 2.267028e+00 1.410716e-01 2.379685e+00 2.672694e-01 2.696832e+00 8.977723e-01 3.468489e+00 1.638193e+00 2.240858e+00 4.758010e-03 2.141642e+00 2.399307e-02 1.551697e+00 2.292867e-02 1.131642e+00 9.778273e-02 8.647818e-01 1.668178e-01 6.103991e-01 1.791113e-01 3.211764e-01 1.457193e-01 1.382932e-02 8.068545e-02 -3.006705e-01 -6.093590e-03 -6.237060e-01 -9.928411e-02 -9.480765e-01 -1.689558e-01 -1.239488e+00 -2.101923e-01 -1.528292e+00 -2.637656e-01 -1.773850e+00 1.874137e-01 -1.525802e+00 2.156207e-01 -2.260870e+00 -2.646487e-01 -2.154115e+00 1.570346e-01 -2.001997e+00 -5.325256e-01 -3.168065e+00 -6.379593e-01 -2.827503e+00 -6.344114e-01 -2.842043e+00 
-7.387131e+00 -8.251216e+00 -7.760592e+00 -8.607782e+00 -8.030231e+00 9.178902e+00 7.725155e+00 8.716405e+00 7.325791e+00 8.142264e+00 6.804315e+00 7.576122e+00 6.222022e+00 7.019575e+00 5.623252e+00 6.450132e+00 5.024283e+00 5.907974e+00 4.469794e+00 5.525171e+00 3.924838e+00 4.706482e+00 2.881028e+00 2.372569e+00 2.314613e+00 3.487120e+00 2.034796e+00 2.700874e+00 1.727972e+00 2.268257e+00 1.431234e+00 1.767828e+00 1.090583e+00 1.204056e+00 7.323476e-01 6.001537e-01 3.336584e-01 -3.318655e-02 -1.065655e-01 -6.843362e-01 -5.738531e-01 -1.339778e+00 -1.040921e+00 -1.968586e+00 -1.471961e+00 -2.539542e+00 -1.873052e+00 -3.093265e+00 -2.263448e+00 -3.594563e+00 -2.507799e+00 -3.933669e+00 -3.280729e+00 -5.020623e+00 -3.543228e+00 -4.994194e+00 -4.259350e+00 -6.132324e+00 -5.349056e+00 -6.925697e+00 -5.863334e+00 -7.097892e+00 -6.410015e+00 -6.949874e+00 
-1.615883e+00 -3.097816e+00 -2.264855e+00 -3.192234e+00 -3.114798e+00 2.586224e+00 1.196688e+00 2.360987e+00 9.592921e-01 2.259857e+00 7.067748e-01 2.223648e+00 5.172809e-01 2.199123e+00 3.200785e-01 2.167372e+00 1.340206e-01 1.943514e+00 -2.242642e-01 1.596684e+00 -1.902203e+00 -1.613621e+00 -5.756308e+00 -3.010742e+00 -8.735771e-01 1.758530e+00 2.545648e-02 1.118060e+00 -2.012102e-01 9.847379e-01 -6.656539e-02 8.024936e-01 5.219042e-02 5.617223e-01 1.068734e-01 2.977431e-01 9.619533e-02 1.554809e-02 4.013072e-02 -2.777151e-01 -3.691111e-02 -5.680826e-01 -1.051502e-01 -8.265874e-01 -1.408765e-01 -1.036199e+00 -1.604948e-01 -1.232889e+00 -1.698187e-01 -1.401126e+00 -9.553285e-02 -1.531359e+00 -2.608510e-01 -1.787825e+00 -2.451802e-01 -1.743141e+00 -2.079888e-01 -1.915585e+00 -6.375663e-01 -2.127635e+00 -7.770705e-01 -2.339921e+00 -1.170493e+00 -2.210127e+00 
-6.875541e+00 -7.522152e+00 -7.538601e+00 -7.876001e+00 -8.042627e+00 8.643269e+00 7.246211e+00 8.211504e+00 6.889959e+00 7.706769e+00 6.436571e+00 7.182901e+00 5.902885e+00 6.637348e+00 5.313826e+00 6.006710e+00 4.588330e+00 5.269783e+00 3.659455e+00 4.086276e+00 1.342827e+00 1.791681e-01 -1.784498e+00 3.413161e-01 2.114115e+00 3.393596e+00 2.311189e+00 2.080768e+00 1.495925e+00 1.950731e+00 1.300212e+00 1.625904e+00 1.012843e+00 1.122100e+00 6.508271e-01 5.512014e-01 2.554220e-01 -4.586488e-02 -1.679233e-01 -6.526628e-01 -6.085327e-01 -1.247502e+00 -1.046826e+00 -1.805762e+00 -1.472544e+00 -2.333774e+00 -1.897977e+00 -2.868982e+00 -2.331214e+00 -3.401415e+00 -2.783565e+00 -3.929801e+00 -3.352071e+00 -4.521219e+00 -3.684606e+00 -4.916438e+00 -4.384868e+00 -5.615514e+00 -5.122293e+00 -5.925918e+00 -5.652336e+00 -6.456993e+00 -6.328359e+00 -6.605878e+00 
-1.968294e+00 -2.625991e+00 -2.700354e+00 -2.870052e+00 -3.430809e+00 2.851289e+00 1.488412e+00 2.659497e+00 1.245313e+00 2.498837e+00 9.894603e-01 2.380380e+00 7.711187e-01 2.265691e+00 5.252472e-01 2.116168e+00 1.793515e-01 1.837985e+00 -2.366335e-01 1.283725e+00 -8.059583e-01 -1.277211e-01 -2.129331e+00 -4.907917e-01 -1.761498e-01 1.663394e+00 -2.490759e-01 -2.389907e-02 -7.071863e-01 7.047401e-01 -2.036546e-01 7.960941e-01 -2.796475e-03 6.033996e-01 6.761548e-02 3.420750e-01 7.201319e-02 7.179472e-02 3.415274e-02 -1.930268e-01 -2.198398e-02 -4.398398e-01 -7.573131e-02 -6.591765e-01 -1.277441e-01 -8.633951e-01 -1.934565e-01 -1.067736e+00 -2.639789e-01 -1.255594e+00 -3.302070e-01 -1.426717e+00 -4.517660e-01 -1.561477e+00 -5.028018e-01 -1.640721e+00 -6.661250e-01 -1.800416e+00 -9.350736e-01 -1.859510e+00 -1.178181e+00 -2.134340e+00 -1.604077e+00 -2.217623e+00 
-6.786649e+00 -6.901304e+00 -7.455991e+00 -7.293814e+00 -8.014381e+00 8.007493e+00 6.877850e+00 7.733994e+00 6.549747e+00 7.299613e+00 6.139162e+00 6.799324e+00 5.654651e+00 6.297734e+00 5.102911e+00 5.705923e+00 4.455807e+00 4.975632e+00 3.810667e+00 4.252090e+00 3.256189e+00 3.022924e+00 2.463010e+00 3.583405e+00 4.292960e+00 5.363843e+00 3.147539e+00 1.671808e+00 1.195890e+00 1.853646e+00 1.284793e+00 1.585205e+00 1.032969e+00 1.100441e+00 6.624450e-01 5.480406e-01 2.525756e-01 -1.932946e-02 -1.740341e-01 -5.829650e-01 -6.100599e-01 -1.129708e+00 -1.051029e+00 -1.656758e+00 -1.499196e+00 -2.183645e+00 -1.957467e+00 -2.725463e+00 -2.422612e+00 -3.265749e+00 -2.904986e+00 -3.791349e+00 -3.407111e+00 -4.288844e+00 -3.856793e+00 -4.752589e+00 -4.477671e+00 -5.275959e+00 -5.092946e+00 -5.632946e+00 -5.651142e+00 -6.090826e+00 -6.281410e+00 -6.412885e+00 
-2.427452e+00 -2.357921e+00 -3.079601e+00 -2.620924e+00 -3.754095e+00 3.194827e+00 1.749521e+00 2.907712e+00 1.528547e+00 2.698758e+00 1.281711e+00 2.526451e+00 1.023964e+00 2.372899e+00 8.144643e-01 2.209599e+00 5.659374e-01 1.998490e+00 4.547404e-01 1.706381e+00 4.573292e-01 1.425935e+00 2.909562e-01 2.193563e+00 2.140067e+00 4.024940e+00 1.481826e+00 1.346696e+00 9.033506e-02 1.141848e+00 1.377722e-01 9.398772e-01 1.314667e-01 6.789437e-01 1.155038e-01 4.141783e-01 9.121316e-02 1.609360e-01 5.073698e-02 -7.895361e-02 -2.982800e-03 -3.036265e-01 -6.793584e-02 -5.188333e-01 -1.533914e-01 -7.367969e-01 -2.633594e-01 -9.502263e-01 -3.807312e-01 -1.136671e+00 -5.000340e-01 -1.300546e+00 -6.407812e-01 -1.433092e+00 -7.768723e-01 -1.531609e+00 -9.829002e-01 -1.670539e+00 -1.256117e+00 -1.792025e+00 -1.565850e+00 -1.984714e+00 -1.991852e+00 -2.149267e+00 
-6.828010e+00 -6.508952e+00 -7.458867e+00 -6.866538e+00 -8.053505e+00 8.128890e+00 6.585994e+00 7.371875e+00 6.281986e+00 6.940233e+00 5.911626e+00 6.495901e+00 5.475307e+00 6.003811e+00 5.007339e+00 5.529570e+00 4.506969e+00 4.893999e+00 3.999245e+00 4.371683e+00 3.586228e+00 3.823615e+00 3.324895e+00 3.850372e+00 3.744668e+00 4.441943e+00 3.114132e+00 3.025042e+00 2.269874e+00 2.300255e+00 1.672957e+00 1.684849e+00 1.191038e+00 1.107912e+00 7.347867e-01 5.587562e-01 2.903416e-01 2.086263e-02 -1.528274e-01 -5.083291e-01 -6.007587e-01 -1.028069e+00 -1.058467e+00 -1.545798e+00 -1.529517e+00 -2.075558e+00 -2.009029e+00 -2.614345e+00 -2.487066e+00 -3.140319e+00 -2.972294e+00 -3.645036e+00 -3.471218e+00 -4.118534e+00 -3.963312e+00 -4.559455e+00 -4.521553e+00 -5.012765e+00 -5.107217e+00 -5.402436e+00 -5.673729e+00 -5.790435e+00 -6.272398e+00 -6.149214e+00 
-2.814133e+00 -2.212027e+00 -3.429034e+00 -2.444853e+00 -4.100076e+00 3.731007e+00 2.042695e+00 3.094174e+00 1.753478e+00 2.848951e+00 1.532245e+00 2.673443e+00 1.309118e+00 2.520999e+00 1.135353e+00 2.351074e+00 9.311145e-01 2.165984e+00 7.134907e-01 1.993166e+00 7.486878e-01 1.902859e+00 8.339069e-01 2.133169e+00 1.139733e+00 2.441316e+00 9.350305e-01 1.780066e+00 5.215009e-01 1.457638e+00 4.224548e-01 1.067011e+00 2.989297e-01 7.307061e-01 1.994340e-01 4.732357e-01 1.358089e-01 2.474980e-01 7.770873e-02 2.957652e-02 9.498883e-03 -1.871662e-01 -7.862567e-02 -4.091391e-01 -1.959131e-01 -6.372498e-01 -3.382089e-01 -8.507892e-01 -4.860602e-01 -1.029425e+00 -6.383229e-01 -1.186665e+00 -8.122043e-01 -1.321072e+00 -9.990841e-01 -1.423636e+00 -1.232776e+00 -1.556057e+00 -1.537172e+00 -1.699907e+00 -1.888617e+00 -1.857025e+00 -2.323218e+00 -2.030861e+00 
-6.879417e+00 -6.227918e+00 -7.505880e+00 -6.548522e+00 -8.138748e+00 7.006025e+00 6.395705e+00 6.825073e+00 6.065698e+00 6.543061e+00 5.710676e+00 6.167463e+00 5.330401e+00 5.716987e+00 4.911565e+00 5.363824e+00 4.421279e+00 4.806675e+00 4.042024e+00 4.335533e+00 3.612924e+00 3.957679e+00 3.273612e+00 3.717622e+00 3.098877e+00 3.390772e+00 2.613065e+00 2.668147e+00 1.983848e+00 2.441375e+00 1.867101e+00 1.731722e+00 1.297908e+00 1.081359e+00 7.848646e-01 5.532956e-01 3.240607e-01 5.367045e-02 -1.277865e-01 -4.461289e-01 -5.868208e-01 -9.505292e-01 -1.060231e+00 -1.465286e+00 -1.548184e+00 -1.993559e+00 -2.039766e+00 -2.520932e+00 -2.523402e+00 -3.027493e+00 -3.011498e+00 -3.512014e+00 -3.514790e+00 -3.966243e+00 -4.019195e+00 -4.385869e+00 -4.557300e+00 -4.804741e+00 -5.130282e+00 -5.190572e+00 -5.701202e+00 -5.550104e+00 -6.290290e+00 -5.897803e+00 
-3.122623e+00 -2.098398e+00 -3.735800e+00 -2.315029e+00 -4.423447e+00 2.696323e+00 2.290687e+00 2.973883e+00 2.031672e+00 2.937571e+00 1.799861e+00 2.799033e+00 1.519261e+00 2.581258e+00 1.278040e+00 2.494268e+00 1.128803e+00 2.260371e+00 1.062922e+00 2.150563e+00 8.979534e-01 1.990927e+00 8.938617e-01 1.983444e+00 8.052629e-01 1.628729e+00 4.501041e-01 1.164192e+00 -2.135059e-02 1.427858e+00 6.172739e-01 1.034802e+00 3.852081e-01 6.999664e-01 2.469568e-01 5.013208e-01 1.749876e-01 3.187148e-01 1.065147e-01 1.205571e-01 2.096285e-02 -9.383128e-02 -9.154372e-02 -3.225213e-01 -2.355475e-01 -5.546170e-01 -4.011013e-01 -7.632345e-01 -5.704110e-01 -9.345210e-01 -7.481702e-01 -1.086223e+00 -9.501305e-01 -1.217944e+00 -1.171514e+00 -1.325979e+00 -1.436570e+00 -1.456685e+00 -1.768278e+00 -1.600521e+00 -2.150568e+00 -1.748230e+00 -2.601483e+00 -1.914800e+00 
-6.928001e+00 -6.008310e+00 -7.561012e+00 -6.309439e+00 -8.212575e+00 6.109269e+00 6.205282e+00 6.332019e+00 5.941829e+00 6.196997e+00 5.586242e+00 5.968997e+00 5.113300e+00 5.505411e+00 4.762414e+00 5.148939e+00 4.440436e+00 4.764908e+00 4.089182e+00 4.305276e+00 3.617615e+00 3.814537e+00 3.238739e+00 3.490373e+00 3.027431e+00 3.099362e+00 2.458602e+00 2.264752e+00 1.798403e+00 2.300881e+00 1.802135e+00 1.516978e+00 1.159817e+00 9.635775e-01 7.340199e-01 5.274355e-01 3.282762e-01 7.854879e-02 -1.052314e-01 -3.968636e-01 -5.653495e-01 -8.924736e-01 -1.048724e+00 -1.405733e+00 -1.548143e+00 -1.929196e+00 -2.047204e+00 -2.442453e+00 -2.535275e+00 -2.931080e+00 -3.027969e+00 -3.398029e+00 -3.535383e+00 -3.835305e+00 -4.046717e+00 -4.241466e+00 -4.584036e+00 -4.640262e+00 -5.153140e+00 -5.013597e+00 -5.729673e+00 -5.359624e+00 -6.321694e+00 -5.690895e+00 
-3.365639e+00 -1.994304e+00 -3.985472e+00 -2.206779e+00 -4.677010e+00 2.867013e+00 2.459314e+00 3.094670e+00 2.224762e+00 3.060520e+00 1.935462e+00 2.976010e+00 1.654831e+00 2.713106e+00 1.483499e+00 2.542148e+00 1.379364e+00 2.427208e+00 1.263352e+00 2.215592e+00 1.159903e+00 1.915518e+00 7.566599e-01 1.736013e+00 8.849295e-01 1.525612e+00 4.256448e-01 9.064351e-01 -2.779119e-01 4.788801e-01 -3.370858e-01 3.825546e-01 -5.455297e-03 5.474205e-01 1.824399e-01 5.200675e-01 2.012798e-01 3.855895e-01 1.429893e-01 1.979240e-01 4.279157e-02 -1.886336e-02 -9.233260e-02 -2.529721e-01 -2.591071e-01 -4.856056e-01 -4.431854e-01 -6.883858e-01 -6.298145e-01 -8.537785e-01 -8.283537e-01 -1.000295e+00 -1.052835e+00 -1.127924e+00 -1.300995e+00 -1.239137e+00 -1.594220e+00 -1.367880e+00 -1.949591e+00 -1.506652e+00 -2.356394e+00 -1.649712e+00 -2.825609e+00 -1.809524e+00 
-6.973069e+00 -5.837165e+00 -7.612709e+00 -6.127953e+00 -8.269611e+00 5.949804e+00 5.968650e+00 6.112067e+00 5.641066e+00 6.008320e+00 5.328304e+00 5.751615e+00 5.056724e+00 5.443356e+00 4.782511e+00 5.008936e+00 4.448079e+00 4.563806e+00 3.989612e+00 4.287355e+00 4.021978e+00 4.030603e+00 3.112094e+00 3.416435e+00 3.179829e+00 3.252733e+00 3.114589e+00 3.444028e+00 3.413979e+00 2.163549e+00 4.597677e-01 5.722288e-01 5.144431e-01 7.391746e-01 6.185086e-01 5.177244e-01 3.433296e-01 1.117821e-01 -6.545972e-02 -3.534381e-01 -5.265931e-01 -8.471257e-01 -1.018179e+00 -1.360236e+00 -1.526768e+00 -1.878651e+00 -2.032564e+00 -2.379557e+00 -2.526226e+00 -2.853899e+00 -3.024824e+00 -3.307087e+00 -3.537303e+00 -3.731235e+00 -4.055832e+00 -4.127618e+00 -4.599119e+00 -4.514001e+00 -5.171774e+00 -4.876498e+00 -5.756118e+00 -5.212442e+00 -6.355925e+00 -5.530458e+00 
-3.551319e+00 -1.893579e+00 -4.181327e+00 -2.106260e+00 -4.876673e+00 3.568718e+00 2.543093e+00 3.428198e+00 2.212355e+00 3.269129e+00 1.955751e+00 3.087061e+00 1.855606e+00 2.937359e+00 1.764876e+00 2.696283e+00 1.631215e+00 2.478189e+00 1.263948e+00 2.196159e+00 1.417832e+00 2.068226e+00 9.734137e-01 2.023797e+00 1.220078e+00 2.123918e+00 1.343063e+00 1.215688e+00 -6.700158e-01 -8.970219e-03 -4.753711e-01 4.439476e-01 1.649384e-01 6.487433e-01 3.280264e-01 6.206085e-01 3.071975e-01 4.682139e-01 2.144779e-01 2.675200e-01 8.662143e-02 4.222083e-02 -7.243338e-02 -1.970579e-01 -2.598660e-01 -4.299065e-01 -4.606580e-01 -6.284596e-01 -6.626540e-01 -7.890683e-01 -8.782146e-01 -9.304219e-01 -1.120846e+00 -1.053080e+00 -1.389920e+00 -1.163113e+00 -1.705893e+00 -1.288135e+00 -2.082145e+00 -1.420647e+00 -2.509349e+00 -1.557620e+00 -2.995910e+00 -1.710839e+00 