# vtk DataFile Version 2.0
Comment goes here
ASCII

DATASET STRUCTURED_POINTS
DIMENSIONS    64   64   1

ORIGIN    0.000   0.000   0.000
SPACING   0.0156250.015625   1.000

POINT_DATA   4096
SCALARS P double
LOOKUP_TABLE default

-1.501827e+00 -1.673486e+00 -1.203499e+00 -1.255538e+00 -6.547604e-01 -1.527343e-01 7.036441e-01 7.287059e-01 1.292356e+00 1.189013e+00 1.561200e+00 1.387031e+00 1.701048e+00 1.430494e+00 1.725306e+00 1.447978e+00 1.643687e+00 1.395121e+00 1.558416e+00 1.312458e+00 1.430751e+00 1.176722e+00 1.283565e+00 1.049699e+00 1.137389e+00 8.953789e-01 9.576301e-01 7.118965e-01 7.647323e-01 5.293156e-01 5.837533e-01 3.583132e-01 4.103603e-01 1.868118e-01 2.314690e-01 5.628127e-03 4.316254e-02 -1.842527e-01 -1.505263e-01 -3.774381e-01 -3.445172e-01 -5.699992e-01 -5.355761e-01 -7.590912e-01 -7.224510e-01 -9.440081e-01 -9.019711e-01 -1.123342e+00 -1.075770e+00 -1.294401e+00 -1.240096e+00 -1.456587e+00 -1.390261e+00 -1.605380e+00 -1.522615e+00 -1.736378e+00 -1.624271e+00 -1.841239e+00 -1.690748e+00 -1.901141e+00 -1.704885e+00 -1.910412e+00 -1.651385e+00 -1.849334e+00 
-1.379534e+00 -1.509135e+00 -9.969979e-01 -1.106985e+00 -3.635101e-01 -4.472430e-01 4.495292e-01 5.529917e-01 1.116058e+00 1.127532e+00 1.451777e+00 1.360145e+00 1.660072e+00 1.388437e+00 1.718563e+00 1.436456e+00 1.617845e+00 1.385605e+00 1.552618e+00 1.315205e+00 1.424872e+00 1.162294e+00 1.274134e+00 1.051592e+00 1.143660e+00 8.998798e-01 9.565692e-01 7.036268e-01 7.518435e-01 5.159453e-01 5.732801e-01 3.530169e-01 4.093259e-01 1.903516e-01 2.359423e-01 1.219642e-02 4.737381e-02 -1.788602e-01 -1.489734e-01 -3.737533e-01 -3.453740e-01 -5.674271e-01 -5.376094e-01 -7.559689e-01 -7.257225e-01 -9.398719e-01 -9.038616e-01 -1.117962e+00 -1.077984e+00 -1.285906e+00 -1.242537e+00 -1.445744e+00 -1.391276e+00 -1.590507e+00 -1.524038e+00 -1.716392e+00 -1.618346e+00 -1.814639e+00 -1.676075e+00 -1.853828e+00 -1.670458e+00 -1.834014e+00 -1.584024e+00 -1.731880e+00 
-1.343837e+00 -1.487909e+00 -9.894356e-01 -1.080463e+00 -4.695212e-01 -5.040556e-01 3.925501e-01 5.831689e-01 1.087523e+00 1.135268e+00 1.401101e+00 1.348100e+00 1.661419e+00 1.307365e+00 1.744669e+00 1.425714e+00 1.569859e+00 1.358616e+00 1.551350e+00 1.323587e+00 1.410008e+00 1.124707e+00 1.248224e+00 1.052519e+00 1.153260e+00 9.076465e-01 9.512344e-01 6.872568e-01 7.267030e-01 4.925602e-01 5.547681e-01 3.429867e-01 4.056389e-01 1.912078e-01 2.389983e-01 1.465112e-02 4.990851e-02 -1.790547e-01 -1.480573e-01 -3.755232e-01 -3.443629e-01 -5.696947e-01 -5.346191e-01 -7.568244e-01 -7.218655e-01 -9.396734e-01 -8.947999e-01 -1.117441e+00 -1.067812e+00 -1.283139e+00 -1.231368e+00 -1.443270e+00 -1.377379e+00 -1.587709e+00 -1.512727e+00 -1.715459e+00 -1.600180e+00 -1.822018e+00 -1.656961e+00 -1.852939e+00 -1.642101e+00 -1.827885e+00 -1.548445e+00 -1.719808e+00 
-1.364026e+00 -1.491686e+00 -1.022906e+00 -1.110237e+00 -5.705248e-01 -6.931340e-01 5.322784e-01 9.159940e-01 1.376996e+00 1.491022e+00 1.622398e+00 1.663311e+00 1.923664e+00 1.468205e+00 2.018696e+00 1.667726e+00 1.720236e+00 1.508357e+00 1.786960e+00 1.526205e+00 1.558447e+00 1.237387e+00 1.374379e+00 1.196512e+00 1.321844e+00 1.059283e+00 1.077248e+00 7.781530e-01 8.047025e-01 5.637853e-01 6.366535e-01 4.326351e-01 5.062460e-01 2.932433e-01 3.404063e-01 1.085586e-01 1.352359e-01 -1.039515e-01 -8.361223e-02 -3.199302e-01 -2.987801e-01 -5.303392e-01 -5.063808e-01 -7.333243e-01 -7.066697e-01 -9.273896e-01 -8.931488e-01 -1.112980e+00 -1.075397e+00 -1.290814e+00 -1.245254e+00 -1.454959e+00 -1.402291e+00 -1.606926e+00 -1.538257e+00 -1.740909e+00 -1.640273e+00 -1.847089e+00 -1.693340e+00 -1.862868e+00 -1.661986e+00 -1.829721e+00 -1.565997e+00 -1.719863e+00 
-1.349497e+00 -1.494679e+00 -9.599524e-01 -1.089905e+00 -3.464385e-01 -5.191931e-01 8.800700e-01 1.126833e+00 1.714827e+00 1.795836e+00 1.981591e+00 2.021300e+00 2.216879e+00 1.895651e+00 2.277868e+00 2.008792e+00 2.056631e+00 1.827547e+00 2.075934e+00 1.797561e+00 1.820563e+00 1.538596e+00 1.635740e+00 1.430608e+00 1.529632e+00 1.272653e+00 1.282363e+00 9.946924e-01 1.014251e+00 7.729559e-01 8.286183e-01 6.164067e-01 6.730265e-01 4.526373e-01 4.870764e-01 2.491688e-01 2.654121e-01 1.896932e-02 2.857826e-02 -2.179503e-01 -2.072347e-01 -4.499147e-01 -4.378399e-01 -6.772844e-01 -6.559835e-01 -8.914303e-01 -8.669425e-01 -1.092535e+00 -1.061451e+00 -1.289853e+00 -1.239273e+00 -1.462471e+00 -1.407180e+00 -1.623145e+00 -1.536671e+00 -1.757887e+00 -1.653767e+00 -1.846617e+00 -1.697595e+00 -1.866070e+00 -1.661882e+00 -1.832989e+00 -1.563228e+00 -1.723899e+00 
-1.500423e+00 -1.642699e+00 -1.177226e+00 -1.181326e+00 -5.619339e-01 1.870909e-02 1.072464e+00 1.183558e+00 1.858250e+00 1.783129e+00 2.136468e+00 2.005053e+00 2.265481e+00 1.999985e+00 2.270240e+00 1.996108e+00 2.152750e+00 1.873243e+00 2.066146e+00 1.772608e+00 1.863835e+00 1.591120e+00 1.685180e+00 1.430004e+00 1.516732e+00 1.253183e+00 1.296365e+00 1.023463e+00 1.063044e+00 8.119682e-01 8.618210e-01 6.279526e-01 6.760395e-01 4.422634e-01 4.769401e-01 2.360558e-01 2.576758e-01 1.241466e-02 2.683738e-02 -2.184636e-01 -2.055853e-01 -4.475686e-01 -4.347295e-01 -6.731641e-01 -6.536927e-01 -8.883085e-01 -8.665958e-01 -1.092071e+00 -1.063262e+00 -1.289335e+00 -1.244545e+00 -1.466219e+00 -1.412780e+00 -1.628589e+00 -1.547990e+00 -1.765081e+00 -1.666186e+00 -1.858994e+00 -1.724144e+00 -1.907830e+00 -1.722635e+00 -1.906249e+00 -1.660253e+00 -1.835326e+00 
-1.547115e+00 -1.704141e+00 -1.187434e+00 -1.458221e+00 -3.784081e-01 -4.672256e-01 1.048701e+00 1.248377e+00 1.843199e+00 1.839455e+00 2.106476e+00 2.033555e+00 2.225675e+00 2.028710e+00 2.228188e+00 2.004590e+00 2.121648e+00 1.891292e+00 2.022179e+00 1.774358e+00 1.845642e+00 1.596592e+00 1.667227e+00 1.433120e+00 1.495075e+00 1.249370e+00 1.282550e+00 1.028979e+00 1.058302e+00 8.184057e-01 8.555432e-01 6.273415e-01 6.638546e-01 4.351575e-01 4.623529e-01 2.275756e-01 2.452789e-01 6.219656e-03 1.878225e-02 -2.209997e-01 -2.093387e-01 -4.472972e-01 -4.342135e-01 -6.694042e-01 -6.516029e-01 -8.830730e-01 -8.606895e-01 -1.086881e+00 -1.057313e+00 -1.281084e+00 -1.239759e+00 -1.458973e+00 -1.406634e+00 -1.620004e+00 -1.548352e+00 -1.756355e+00 -1.664474e+00 -1.856907e+00 -1.734013e+00 -1.912291e+00 -1.748692e+00 -1.918992e+00 -1.700132e+00 -1.860229e+00 
-1.821987e+00 -2.099345e+00 -1.740215e+00 -2.242852e+00 -1.806125e+00 5.205886e-01 2.099368e+00 1.626810e+00 2.276855e+00 1.980843e+00 2.349431e+00 2.098497e+00 2.359035e+00 2.088665e+00 2.304643e+00 2.028385e+00 2.192666e+00 1.913966e+00 2.058927e+00 1.778956e+00 1.883512e+00 1.611792e+00 1.699129e+00 1.435509e+00 1.508298e+00 1.245798e+00 1.298715e+00 1.037391e+00 1.081845e+00 8.298572e-01 8.724285e-01 6.290978e-01 6.675661e-01 4.269348e-01 4.576207e-01 2.159454e-01 2.387303e-01 -3.944459e-03 1.352069e-02 -2.285305e-01 -2.132472e-01 -4.530610e-01 -4.375904e-01 -6.744220e-01 -6.558420e-01 -8.890880e-01 -8.666821e-01 -1.095329e+00 -1.066256e+00 -1.292402e+00 -1.252880e+00 -1.475679e+00 -1.424596e+00 -1.643596e+00 -1.574863e+00 -1.790549e+00 -1.702330e+00 -1.909753e+00 -1.794176e+00 -1.998761e+00 -1.847193e+00 -2.056522e+00 -1.859124e+00 -2.083816e+00 
-1.984556e+00 -2.150208e+00 -2.079866e+00 -2.273387e+00 -2.620377e+00 2.337363e+00 2.158541e+00 2.173307e+00 2.266805e+00 2.206566e+00 2.322704e+00 2.212300e+00 2.326216e+00 2.157007e+00 2.270775e+00 2.070228e+00 2.161612e+00 1.944339e+00 2.027825e+00 1.797955e+00 1.860554e+00 1.625744e+00 1.679326e+00 1.445177e+00 1.489890e+00 1.251691e+00 1.284253e+00 1.043758e+00 1.071333e+00 8.350653e-01 8.623947e-01 6.306646e-01 6.560454e-01 4.249703e-01 4.454942e-01 2.125168e-01 2.278336e-01 -6.855121e-03 5.046892e-03 -2.298579e-01 -2.190452e-01 -4.526666e-01 -4.409670e-01 -6.722731e-01 -6.577610e-01 -8.859001e-01 -8.674135e-01 -1.091687e+00 -1.067431e+00 -1.288045e+00 -1.255774e+00 -1.471798e+00 -1.430095e+00 -1.640447e+00 -1.586112e+00 -1.789573e+00 -1.720583e+00 -1.913949e+00 -1.826682e+00 -2.009917e+00 -1.902200e+00 -2.077131e+00 -1.950216e+00 -2.117840e+00 
-2.219024e+00 -2.504024e+00 -2.383157e+00 -2.744925e+00 -2.784536e+00 2.808983e+00 2.834888e+00 2.450555e+00 2.698898e+00 2.367908e+00 2.604261e+00 2.310291e+00 2.509746e+00 2.225186e+00 2.394481e+00 2.113574e+00 2.253379e+00 1.974833e+00 2.092978e+00 1.817185e+00 1.911934e+00 1.641459e+00 1.719434e+00 1.454381e+00 1.518560e+00 1.257066e+00 1.308317e+00 1.050425e+00 1.093176e+00 8.409643e-01 8.784769e-01 6.316436e-01 6.641736e-01 4.204310e-01 4.472449e-01 2.047347e-01 2.261031e-01 -1.560839e-02 1.760586e-03 -2.386557e-01 -2.233376e-01 -4.617290e-01 -4.465513e-01 -6.823872e-01 -6.654186e-01 -8.983154e-01 -8.780639e-01 -1.107797e+00 -1.082253e+00 -1.309342e+00 -1.276219e+00 -1.500645e+00 -1.458045e+00 -1.679847e+00 -1.624894e+00 -1.844368e+00 -1.774868e+00 -1.992062e+00 -1.904802e+00 -2.123422e+00 -2.015870e+00 -2.242457e+00 -2.114675e+00 -2.359946e+00 
-2.375206e+00 -2.549115e+00 -2.606727e+00 -2.786499e+00 -3.002674e+00 3.129981e+00 2.837070e+00 2.767347e+00 2.678593e+00 2.579388e+00 2.577669e+00 2.445653e+00 2.480603e+00 2.314428e+00 2.365034e+00 2.173894e+00 2.225272e+00 2.017395e+00 2.066524e+00 1.847115e+00 1.889202e+00 1.663120e+00 1.699520e+00 1.470080e+00 1.500847e+00 1.268418e+00 1.293203e+00 1.059274e+00 1.080363e+00 8.474223e-01 8.666486e-01 6.352757e-01 6.524335e-01 4.215391e-01 4.357417e-01 2.043739e-01 2.155116e-01 -1.630183e-02 -7.386670e-03 -2.389149e-01 -2.309278e-01 -4.612464e-01 -4.528588e-01 -6.811360e-01 -6.710791e-01 -8.965943e-01 -8.838044e-01 -1.105966e+00 -1.089281e+00 -1.307693e+00 -1.285909e+00 -1.499877e+00 -1.472041e+00 -1.680701e+00 -1.645765e+00 -1.848114e+00 -1.805746e+00 -2.000550e+00 -1.951289e+00 -2.138435e+00 -2.085630e+00 -2.266032e+00 -2.219017e+00 -2.394259e+00 
-2.565787e+00 -2.838850e+00 -2.828788e+00 -3.128714e+00 -3.217214e+00 3.320824e+00 3.294708e+00 2.948982e+00 3.041403e+00 2.717635e+00 2.847654e+00 2.545012e+00 2.676911e+00 2.386412e+00 2.508396e+00 2.225058e+00 2.332591e+00 2.054214e+00 2.147283e+00 1.873279e+00 1.951612e+00 1.682368e+00 1.748011e+00 1.483430e+00 1.538133e+00 1.277623e+00 1.322783e+00 1.066261e+00 1.104050e+00 8.519216e-01 8.841207e-01 6.360760e-01 6.634018e-01 4.184076e-01 4.410789e-01 1.981680e-01 2.166738e-01 -2.457100e-02 -9.247299e-03 -2.487595e-01 -2.353179e-01 -4.728200e-01 -4.598683e-01 -6.950964e-01 -6.812337e-01 -9.140142e-01 -8.979311e-01 -1.128242e+00 -1.108521e+00 -1.336597e+00 -1.311783e+00 -1.537846e+00 -1.506626e+00 -1.731030e+00 -1.692085e+00 -1.915499e+00 -1.867999e+00 -2.091663e+00 -2.035384e+00 -2.262261e+00 -2.198822e+00 -2.433704e+00 -2.368744e+00 -2.618443e+00 
-2.696798e+00 -2.875535e+00 -2.988986e+00 -3.166424e+00 -3.377741e+00 3.534971e+00 3.281201e+00 3.163064e+00 3.020471e+00 2.890234e+00 2.822992e+00 2.673291e+00 2.650741e+00 2.479693e+00 2.482129e+00 2.292788e+00 2.307230e+00 2.103849e+00 2.123434e+00 1.909783e+00 1.930016e+00 1.709424e+00 1.728598e+00 1.503541e+00 1.520712e+00 1.292588e+00 1.307313e+00 1.077477e+00 1.090247e+00 8.600610e-01 8.713917e-01 6.414690e-01 6.512907e-01 4.215311e-01 4.295219e-01 1.997368e-01 2.058528e-01 -2.381624e-02 -1.918296e-02 -2.482601e-01 -2.444285e-01 -4.722786e-01 -4.684730e-01 -6.944471e-01 -6.899113e-01 -9.134020e-01 -9.074756e-01 -1.127936e+00 -1.120030e+00 -1.336962e+00 -1.326628e+00 -1.539449e+00 -1.526546e+00 -1.734606e+00 -1.719425e+00 -1.922062e+00 -1.905818e+00 -2.102480e+00 -2.087950e+00 -2.278624e+00 -2.271515e+00 -2.456814e+00 -2.467849e+00 -2.648956e+00 
-2.851297e+00 -3.111010e+00 -3.159128e+00 -3.428619e+00 -3.544717e+00 3.670748e+00 3.619234e+00 3.295643e+00 3.315718e+00 3.003235e+00 3.063234e+00 2.763184e+00 2.839401e+00 2.549178e+00 2.628370e+00 2.345418e+00 2.420673e+00 2.143367e+00 2.211615e+00 1.939172e+00 1.999040e+00 1.731204e+00 1.782762e+00 1.519291e+00 1.563122e+00 1.303699e+00 1.340598e+00 1.085055e+00 1.116101e+00 8.643732e-01 8.905422e-01 6.423236e-01 6.642265e-01 4.189499e-01 4.369894e-01 1.940955e-01 2.087553e-01 -3.208947e-02 -2.011135e-02 -2.589981e-01 -2.488259e-01 -4.857056e-01 -4.763813e-01 -7.111802e-01 -7.017344e-01 -9.344288e-01 -9.239337e-01 -1.154604e+00 -1.142163e+00 -1.371030e+00 -1.355844e+00 -1.583236e+00 -1.564720e+00 -1.791143e+00 -1.769047e+00 -1.995320e+00 -1.970062e+00 -2.197525e+00 -2.170638e+00 -2.401505e+00 -2.376577e+00 -2.613906e+00 -2.598060e+00 -2.845338e+00 
-2.958319e+00 -3.141120e+00 -3.280461e+00 -3.460290e+00 -3.666408e+00 3.828251e+00 3.601393e+00 3.453268e+00 3.295093e+00 3.141636e+00 3.040554e+00 2.875762e+00 2.815747e+00 2.637310e+00 2.604649e+00 2.413195e+00 2.397590e+00 2.195135e+00 2.189681e+00 1.978571e+00 1.978661e+00 1.761152e+00 1.764046e+00 1.542012e+00 1.546032e+00 1.320878e+00 1.325052e+00 1.097961e+00 1.101898e+00 8.738614e-01 8.773661e-01 6.489983e-01 6.518057e-01 4.233717e-01 4.251945e-01 1.968515e-01 1.975534e-01 -3.044712e-02 -3.077725e-02 -2.580397e-01 -2.591396e-01 -4.851730e-01 -4.867067e-01 -7.109898e-01 -7.126370e-01 -9.346580e-01 -9.361869e-01 -1.155460e+00 -1.156781e+00 -1.372839e+00 -1.374103e+00 -1.586467e+00 -1.588212e+00 -1.796404e+00 -1.799773e+00 -2.003369e+00 -2.010491e+00 -2.209216e+00 -2.223750e+00 -2.417647e+00 -2.445599e+00 -2.635076e+00 -2.685772e+00 -2.871532e+00 
-3.084543e+00 -3.333806e+00 -3.415182e+00 -3.668080e+00 -3.799161e+00 3.932829e+00 3.864374e+00 3.555984e+00 3.535978e+00 3.233976e+00 3.248036e+00 2.953848e+00 2.987743e+00 2.700878e+00 2.744204e+00 2.463609e+00 2.509648e+00 2.234401e+00 2.279189e+00 2.008684e+00 2.050013e+00 1.783895e+00 1.820780e+00 1.558776e+00 1.590936e+00 1.332793e+00 1.360350e+00 1.105865e+00 1.129193e+00 8.781783e-01 8.977056e-01 6.498854e-01 6.659623e-01 4.209646e-01 4.338887e-01 1.913465e-01 2.014619e-01 -3.889202e-02 -3.113533e-02 -2.694471e-01 -2.635027e-01 -4.998366e-01 -4.951093e-01 -7.295080e-01 -7.254073e-01 -9.579441e-01 -9.539337e-01 -1.184755e+00 -1.180396e+00 -1.409751e+00 -1.404778e+00 -1.633034e+00 -1.627474e+00 -1.855166e+00 -1.849504e+00 -2.077412e+00 -2.072866e+00 -2.302109e+00 -2.301037e+00 -2.533134e+00 -2.539636e+00 -2.776357e+00 -2.797035e+00 -3.039908e+00 
-3.171880e+00 -3.358726e+00 -3.510410e+00 -3.694279e+00 -3.894754e+00 4.054443e+00 3.845868e+00 3.677726e+00 3.516208e+00 3.345546e+00 3.227124e+00 3.049735e+00 2.966193e+00 2.779945e+00 2.722579e+00 2.527162e+00 2.488448e+00 2.284693e+00 2.258817e+00 2.048072e+00 2.030766e+00 1.814514e+00 1.802804e+00 1.582420e+00 1.574263e+00 1.350914e+00 1.344932e+00 1.119607e+00 1.114902e+00 8.884088e-01 8.843531e-01 6.572792e-01 6.533596e-01 4.260964e-01 4.218871e-01 1.947359e-01 1.899347e-01 -3.679319e-02 -4.234925e-02 -2.682893e-01 -2.746569e-01 -4.993976e-01 -5.065914e-01 -7.297001e-01 -7.377626e-01 -9.588079e-01 -9.678818e-01 -1.186446e+00 -1.196849e+00 -1.412532e+00 -1.424855e+00 -1.637273e+00 -1.652525e+00 -1.861327e+00 -1.881125e+00 -2.086032e+00 -2.112875e+00 -2.313740e+00 -2.351363e+00 -2.548237e+00 -2.602008e+00 -2.795153e+00 -2.872364e+00 -3.062182e+00 
-3.275880e+00 -3.517475e+00 -3.619425e+00 -3.862286e+00 -4.002462e+00 4.137848e+00 4.056779e+00 3.759963e+00 3.714402e+00 3.421587e+00 3.404119e+00 3.116489e+00 3.118560e+00 2.836320e+00 2.850534e+00 2.573391e+00 2.594186e+00 2.321729e+00 2.345264e+00 2.077136e+00 2.100906e+00 1.836832e+00 1.859322e+00 1.599072e+00 1.619438e+00 1.362799e+00 1.380637e+00 1.127410e+00 1.142590e+00 8.925738e-01 9.051089e-01 6.580633e-01 6.680161e-01 4.236668e-01 4.311311e-01 1.892088e-01 1.943298e-01 -4.538745e-02 -4.239870e-02 -2.800726e-01 -2.789510e-01 -5.146995e-01 -5.151598e-01 -7.490896e-01 -7.508703e-01 -9.831115e-01 -9.860246e-01 -1.216761e+00 -1.220749e+00 -1.450244e+00 -1.455459e+00 -1.684076e+00 -1.690988e+00 -1.919222e+00 -1.928774e+00 -2.157281e+00 -2.171096e+00 -2.400714e+00 -2.421375e+00 -2.653089e+00 -2.684461e+00 -2.919228e+00 -2.966757e+00 -3.205139e+00 
-3.347329e+00 -3.538192e+00 -3.695657e+00 -3.883937e+00 -4.079043e+00 4.234306e+00 4.038954e+00 3.856530e+00 3.695846e+00 3.512166e+00 3.384838e+00 3.197026e+00 3.098802e+00 2.905130e+00 2.830654e+00 2.630527e+00 2.574552e+00 2.368214e+00 2.326200e+00 2.114390e+00 2.082667e+00 1.866334e+00 1.842066e+00 1.622190e+00 1.603233e+00 1.380719e+00 1.365476e+00 1.141119e+00 1.128401e+00 9.028713e-01 8.917682e-01 6.656004e-01 6.553796e-01 4.289882e-01 4.190487e-01 1.927792e-01 1.826374e-01 -4.318243e-02 -5.390770e-02 -2.789379e-01 -2.905591e-01 -5.144424e-01 -5.272534e-01 -7.496235e-01 -7.639592e-01 -9.844530e-01 -1.000755e+00 -1.219022e+00 -1.237914e+00 -1.453623e+00 -1.476000e+00 -1.688847e+00 -1.715993e+00 -1.925720e+00 -1.959453e+00 -2.165870e+00 -2.208716e+00 -2.411736e+00 -2.467116e+00 -2.666785e+00 -2.739150e+00 -2.935641e+00 -3.030450e+00 -3.224012e+00 
-3.433489e+00 -3.669373e+00 -3.784980e+00 -4.021147e+00 -4.167452e+00 4.302219e+00 4.211069e+00 3.923665e+00 3.859993e+00 3.575231e+00 3.534869e+00 3.253666e+00 3.231371e+00 2.954137e+00 2.944834e+00 2.671643e+00 2.671050e+00 2.401814e+00 2.406605e+00 2.141183e+00 2.148910e+00 1.887149e+00 1.896088e+00 1.637830e+00 1.646808e+00 1.391888e+00 1.400134e+00 1.148379e+00 1.155399e+00 9.066268e-01 9.121064e-01 6.661142e-01 6.698488e-01 4.264195e-01 4.282787e-01 1.871995e-01 1.871148e-01 -5.180428e-02 -5.384850e-02 -2.907678e-01 -2.947543e-01 -5.298133e-01 -5.357225e-01 -7.690579e-01 -7.769079e-01 -1.008677e+00 -1.018571e+00 -1.248970e+00 -1.261153e+00 -1.490442e+00 -1.505372e+00 -1.733883e+00 -1.752327e+00 -1.980482e+00 -2.003628e+00 -2.231946e+00 -2.261550e+00 -2.490628e+00 -2.529174e+00 -2.759628e+00 -2.810467e+00 -3.042793e+00 -3.110192e+00 -3.344535e+00 
-3.491872e+00 -3.686616e+00 -3.846468e+00 -4.039058e+00 -4.229264e+00 4.379790e+00 4.194497e+00 4.001320e+00 3.842867e+00 3.649026e+00 3.517146e+00 3.320650e+00 3.213181e+00 3.012708e+00 2.926423e+00 2.721378e+00 2.652713e+00 2.443095e+00 2.388631e+00 2.174834e+00 2.131540e+00 1.914173e+00 1.879493e+00 1.659240e+00 1.631084e+00 1.408621e+00 1.385307e+00 1.161255e+00 1.141435e+00 9.163409e-01 8.989227e-01 6.732500e-01 6.573289e-01 4.314659e-01 4.162799e-01 1.905649e-01 1.754640e-01 -4.978791e-02 -6.537002e-02 -2.898488e-01 -3.064298e-01 -5.298239e-01 -5.479174e-01 -7.699159e-01 -7.900831e-01 -1.010382e+00 -1.033290e+00 -1.251599e+00 -1.278085e+00 -1.494136e+00 -1.525284e+00 -1.738840e+00 -1.776066e+00 -1.986932e+00 -2.032082e+00 -2.240127e+00 -2.295572e+00 -2.500743e+00 -2.569454e+00 -2.771789e+00 -2.857340e+00 -3.056961e+00 -3.163385e+00 -3.360471e+00 
-3.563336e+00 -3.794775e+00 -3.920033e+00 -4.151320e+00 -4.302167e+00 4.435825e+00 4.336183e+00 4.056807e+00 3.979198e+00 3.701594e+00 3.643615e+00 3.368460e+00 3.326909e+00 3.054648e+00 3.026135e+00 2.757028e+00 2.738388e+00 2.472557e+00 2.461060e+00 2.198533e+00 2.191946e+00 1.932684e+00 1.929246e+00 1.673166e+00 1.671527e+00 1.418512e+00 1.417659e+00 1.167569e+00 1.166742e+00 9.194234e-01 9.180523e-01 6.733342e-01 6.709810e-01 4.286868e-01 4.250091e-01 1.849637e-01 1.796893e-01 -5.827137e-02 -6.536582e-02 -3.013924e-01 -3.105064e-01 -5.447412e-01 -5.560811e-01 -7.886694e-01 -8.024855e-01 -1.033590e+00 -1.050220e+00 -1.280034e+00 -1.299953e+00 -1.528716e+00 -1.552598e+00 -1.780599e+00 -1.809386e+00 -2.036972e+00 -2.071960e+00 -2.299524e+00 -2.342444e+00 -2.570406e+00 -2.623504e+00 -2.852246e+00 -2.918315e+00 -3.148090e+00 -3.230414e+00 -3.461215e+00 
-3.610660e+00 -3.809089e+00 -3.969471e+00 -4.166111e+00 -4.351902e+00 4.498537e+00 4.321187e+00 4.119576e+00 3.963654e+00 3.761632e+00 3.627414e+00 3.423554e+00 3.310112e+00 3.103446e+00 3.008949e+00 2.799008e+00 2.721097e+00 2.507826e+00 2.443958e+00 2.227590e+00 2.175288e+00 1.956221e+00 1.913225e+00 1.691934e+00 1.656263e+00 1.433239e+00 1.403203e+00 1.178917e+00 1.153089e+00 9.279722e-01 9.051437e-01 6.795806e-01 6.587215e-01 4.330503e-01 4.132679e-01 1.877934e-01 1.682994e-01 -5.669457e-02 -7.661579e-02 -3.008556e-01 -3.218828e-01 -5.451006e-01 -5.679154e-01 -7.898496e-01 -8.151816e-01 -1.035580e+00 -1.064257e+00 -1.282884e+00 -1.315882e+00 -1.532523e+00 -1.571028e+00 -1.785498e+00 -1.830964e+00 -2.043119e+00 -2.097323e+00 -2.307070e+00 -2.372157e+00 -2.579464e+00 -2.657957e+00 -2.862857e+00 -2.957597e+00 -3.160187e+00 -3.274170e+00 -3.474593e+00 
-3.669697e+00 -3.897489e+00 -4.029961e+00 -4.257396e+00 -4.411910e+00 4.545241e+00 4.438098e+00 4.165869e+00 4.076723e+00 3.805614e+00 3.733233e+00 3.463692e+00 3.406293e+00 3.138767e+00 3.094223e+00 2.829103e+00 2.795159e+00 2.532733e+00 2.507192e+00 2.247623e+00 2.228485e+00 1.971828e+00 1.957363e+00 1.703593e+00 1.692355e+00 1.441395e+00 1.432202e+00 1.183941e+00 1.175839e+00 9.301476e-01 9.223640e-01 6.791004e-01 6.710019e-01 4.300198e-01 4.210773e-01 1.822309e-01 1.719902e-01 -6.486153e-02 -7.680667e-02 -3.117991e-01 -3.258343e-01 -5.591015e-01 -5.756219e-01 -8.073036e-01 -8.267486e-01 -1.056999e+00 -1.079890e+00 -1.308889e+00 -1.335872e+00 -1.563828e+00 -1.595720e+00 -1.822878e+00 -1.860720e+00 -2.087357e+00 -2.132462e+00 -2.358876e+00 -2.412878e+00 -2.639363e+00 -2.704235e+00 -2.931036e+00 -3.009076e+00 -3.236329e+00 -3.330061e+00 -3.557721e+00 
-3.707374e+00 -3.909280e+00 -4.069120e+00 -4.269532e+00 -4.451341e+00 4.595935e+00 4.424981e+00 4.216586e+00 4.062934e+00 3.854149e+00 3.718545e+00 3.508283e+00 3.390727e+00 3.178337e+00 3.078012e+00 2.863238e+00 2.778644e+00 2.561504e+00 2.490723e+00 2.271400e+00 2.212360e+00 1.991132e+00 1.941804e+00 1.718995e+00 1.677504e+00 1.453456e+00 1.418129e+00 1.193184e+00 1.162555e+00 9.370362e-01 9.098286e-01 6.840391e-01 6.591352e-01 4.333528e-01 4.097625e-01 1.842450e-01 1.610740e-01 -6.393573e-02 -8.751738e-02 -3.117869e-01 -3.365786e-01 -5.598834e-01 -5.866900e-01 -8.088142e-01 -8.384846e-01 -1.059224e+00 -1.092692e+00 -1.311857e+00 -1.350183e+00 -1.567606e+00 -1.612018e+00 -1.827557e+00 -1.879490e+00 -2.093040e+00 -2.154160e+00 -2.365655e+00 -2.437876e+00 -2.647299e+00 -2.732751e+00 -2.940136e+00 -3.041092e+00 -3.246519e+00 -3.365249e+00 -3.568839e+00 
-3.755639e+00 -3.980278e+00 -4.118427e+00 -4.342610e+00 -4.500315e+00 4.635323e+00 4.521180e+00 4.255635e+00 4.156179e+00 3.891121e+00 3.806123e+00 3.541755e+00 3.470642e+00 3.207465e+00 3.149159e+00 2.887755e+00 2.840713e+00 2.581546e+00 2.543969e+00 2.287319e+00 2.257370e+00 2.003356e+00 1.979316e+00 1.727945e+00 1.708292e+00 1.459505e+00 1.442929e+00 1.196633e+00 1.182030e+00 9.381114e-01 9.245493e-01 6.828895e-01 6.695752e-01 4.300526e-01 4.163000e-01 1.787941e-01 1.639934e-01 -7.161384e-02 -8.802409e-02 -3.218493e-01 -3.404102e-01 -5.725717e-01 -5.938337e-01 -8.244567e-01 -8.490097e-01 -1.078232e+00 -1.106739e+00 -1.334718e+00 -1.367948e+00 -1.594861e+00 -1.633726e+00 -1.859774e+00 -1.905360e+00 -2.130763e+00 -2.184360e+00 -2.409345e+00 -2.472462e+00 -2.697241e+00 -2.771604e+00 -2.996344e+00 -3.083846e+00 -3.308633e+00 -3.411243e+00 -3.636043e+00 
-3.784650e+00 -3.989843e+00 -4.148490e+00 -4.352427e+00 -4.530630e+00 4.676247e+00 4.510371e+00 4.296534e+00 4.144414e+00 3.929941e+00 3.792960e+00 3.576937e+00 3.456097e+00 3.238239e+00 3.133599e+00 2.913983e+00 2.824637e+00 2.603455e+00 2.527844e+00 2.305301e+00 2.241564e+00 2.017859e+00 1.964083e+00 1.739421e+00 1.693787e+00 1.468383e+00 1.429232e+00 1.203308e+00 1.169157e+00 9.429377e-01 9.124697e-01 6.861778e-01 6.582200e-01 4.320700e-01 4.055663e-01 1.797638e-01 1.537459e-01 -7.151215e-02 -9.795481e-02 -3.224792e-01 -3.502306e-01 -5.738397e-01 -6.037894e-01 -8.263104e-01 -8.593861e-01 -1.080658e+00 -1.117859e+00 -1.337734e+00 -1.380162e+00 -1.598513e+00 -1.647403e+00 -1.864125e+00 -1.920862e+00 -2.135879e+00 -2.202013e+00 -2.415284e+00 -2.492516e+00 -2.704035e+00 -2.794184e+00 -3.003984e+00 -3.108906e+00 -3.317057e+00 -3.438521e+00 -3.645127e+00 
-3.823347e+00 -4.045136e+00 -4.187963e+00 -4.409252e+00 -4.569913e+00 4.710153e+00 4.588958e+00 4.330111e+00 4.220565e+00 3.961353e+00 3.864309e+00 3.604606e+00 3.520860e+00 3.261454e+00 3.190931e+00 2.932790e+00 2.874457e+00 2.618284e+00 2.570515e+00 2.316680e+00 2.277645e+00 2.026279e+00 1.994194e+00 1.745291e+00 1.718533e+00 1.472022e+00 1.449171e+00 1.204956e+00 1.184786e+00 9.427637e-01 9.242169e-01 6.842848e-01 6.664416e-01 4.285005e-01 4.105477e-01 1.745012e-01 1.557020e-01 -7.854406e-02 -9.887815e-02 -3.314183e-01 -3.539550e-01 -5.848870e-01 -6.103007e-01 -8.397292e-01 -8.687284e-01 -1.096770e+00 -1.130124e+00 -1.356909e+00 -1.395477e+00 -1.621152e+00 -1.665905e+00 -1.890633e+00 -1.942676e+00 -2.166629e+00 -2.227213e+00 -2.450567e+00 -2.521085e+00 -2.744000e+00 -2.825970e+00 -3.048574e+00 -3.143583e+00 -3.365948e+00 -3.475567e+00 -3.697688e+00 
-3.844358e+00 -4.052681e+00 -4.209711e+00 -4.416986e+00 -4.591902e+00 4.743414e+00 4.581176e+00 4.363267e+00 4.211297e+00 3.992035e+00 3.852673e+00 3.631160e+00 3.506980e+00 3.283572e+00 3.175535e+00 2.950889e+00 2.858361e+00 2.632943e+00 2.554375e+00 2.328423e+00 2.261908e+00 2.035534e+00 1.979134e+00 1.752414e+00 1.704302e+00 1.477324e+00 1.435837e+00 1.208711e+00 1.172358e+00 9.452186e-01 9.126644e-01 6.856576e-01 6.557027e-01 4.289807e-01 4.005325e-01 1.742484e-01 1.462946e-01 -7.940113e-02 -1.078208e-01 -3.327821e-01 -3.626042e-01 -5.866913e-01 -6.188569e-01 -8.419380e-01 -8.774207e-01 -1.099374e+00 -1.139207e+00 -1.359925e+00 -1.405224e+00 -1.624612e+00 -1.676595e+00 -1.894583e+00 -1.954579e+00 -2.171115e+00 -2.240565e+00 -2.455625e+00 -2.536062e+00 -2.749650e+00 -2.842654e+00 -3.054805e+00 -3.161935e+00 -3.372713e+00 -3.495409e+00 -3.704902e+00 
-3.874349e+00 -4.093457e+00 -4.240301e+00 -4.458917e+00 -4.622462e+00 4.773777e+00 4.644631e+00 4.393230e+00 4.272734e+00 4.019481e+00 3.909585e+00 3.653750e+00 3.557439e+00 3.300833e+00 3.219129e+00 2.963558e+00 2.895566e+00 2.642029e+00 2.585907e+00 2.334770e+00 2.288443e+00 2.039742e+00 2.001238e+00 1.754882e+00 1.722446e+00 1.478313e+00 1.450417e+00 1.208391e+00 1.183713e+00 9.436920e-01 9.210817e-01 6.829786e-01 6.614208e-01 4.251585e-01 4.037429e-01 1.692507e-01 1.471418e-01 -8.564872e-02 -1.092389e-01 -3.403969e-01 -3.662353e-01 -5.958339e-01 -6.246916e-01 -8.528114e-01 -8.854877e-01 -1.112219e+00 -1.149565e+00 -1.375012e+00 -1.417950e+00 -1.642228e+00 -1.691770e+00 -1.915008e+00 -1.972265e+00 -2.194599e+00 -2.260782e+00 -2.482351e+00 -2.558762e+00 -2.779694e+00 -2.867692e+00 -3.088097e+00 -3.189050e+00 -3.409004e+00 -3.524212e+00 -3.743750e+00 
-3.887783e+00 -4.099113e+00 -4.254219e+00 -4.464711e+00 -4.636612e+00 4.801822e+00 4.641129e+00 4.421032e+00 4.266868e+00 4.043689e+00 3.899365e+00 3.671983e+00 3.543496e+00 3.313874e+00 3.203078e+00 2.972942e+00 2.878795e+00 2.648915e+00 2.569306e+00 2.339845e+00 2.272503e+00 2.043393e+00 1.986204e+00 1.757346e+00 1.708423e+00 1.479765e+00 1.437436e+00 1.208982e+00 1.171762e+00 9.435591e-01 9.101205e-01 6.822481e-01 6.513896e-01 4.239434e-01 3.945638e-01 1.676480e-01 1.387189e-01 -8.756050e-02 -1.170207e-01 -3.425593e-01 -3.735111e-01 -5.982092e-01 -6.316175e-01 -8.553819e-01 -8.922398e-01 -1.114986e+00 -1.156337e+00 -1.377992e+00 -1.424947e+00 -1.645450e+00 -1.699200e+00 -1.918508e+00 -1.980328e+00 -2.198412e+00 -2.269654e+00 -2.486505e+00 -2.568573e+00 -2.784204e+00 -2.878511e+00 -3.092957e+00 -3.200866e+00 -3.414185e+00 -3.536927e+00 -3.749201e+00 
-3.909645e+00 -4.126140e+00 -4.276545e+00 -4.492614e+00 -4.659090e+00 4.830915e+00 4.691373e+00 4.449507e+00 4.316113e+00 4.069520e+00 3.943766e+00 3.689964e+00 3.580053e+00 3.324438e+00 3.232453e+00 2.978462e+00 2.902663e+00 2.651411e+00 2.589023e+00 2.340560e+00 2.288922e+00 2.042988e+00 1.999829e+00 1.756150e+00 1.719568e+00 1.477935e+00 1.446320e+00 1.206587e+00 1.178556e+00 9.406264e-01 9.149690e-01 6.787736e-01 6.544126e-01 4.199012e-01 3.958589e-01 1.629896e-01 1.383595e-01 -9.290638e-02 -1.189858e-01 -3.486888e-01 -3.770585e-01 -6.052441e-01 -6.367472e-01 -8.634689e-01 -8.989728e-01 -1.124294e+00 -1.164710e+00 -1.388706e+00 -1.435004e+00 -1.657762e+00 -1.710984e+00 -1.932601e+00 -1.993864e+00 -2.214448e+00 -2.284935e+00 -2.504597e+00 -2.585546e+00 -2.804394e+00 -2.897059e+00 -3.115195e+00 -3.220799e+00 -3.438315e+00 -3.557984e+00 -3.774956e+00 
-3.915733e+00 -4.129964e+00 -4.282879e+00 -4.496515e+00 -4.665625e+00 4.857218e+00 4.694273e+00 4.475322e+00 4.315660e+00 4.089632e+00 3.934330e+00 3.699072e+00 3.564415e+00 3.326845e+00 3.214342e+00 2.977956e+00 2.884319e+00 2.649832e+00 2.571468e+00 2.338582e+00 2.272538e+00 2.040798e+00 1.984717e+00 1.753781e+00 1.705725e+00 1.475389e+00 1.433707e+00 1.203878e+00 1.167123e+00 9.377807e-01 9.046603e-01 6.758280e-01 6.451683e-01 4.168951e-01 3.876130e-01 1.599598e-01 1.310373e-01 -9.593018e-02 -1.254703e-01 -3.516865e-01 -3.828037e-01 -6.082066e-01 -6.418655e-01 -8.663987e-01 -9.035901e-01 -1.127205e+00 -1.168964e+00 -1.391620e+00 -1.439041e+00 -1.660708e+00 -1.714954e+00 -1.935613e+00 -1.997912e+00 -2.217557e+00 -2.289193e+00 -2.507829e+00 -2.590120e+00 -2.807766e+00 -2.902020e+00 -3.118709e+00 -3.226173e+00 -3.441957e+00 -3.563747e+00 -3.778702e+00 
-3.929798e+00 -4.143633e+00 -4.297248e+00 -4.510776e+00 -4.680290e+00 4.887307e+00 4.732011e+00 4.504337e+00 4.356565e+00 4.119031e+00 3.969181e+00 3.711978e+00 3.586372e+00 3.328309e+00 3.227800e+00 2.974290e+00 2.893479e+00 2.644488e+00 2.578509e+00 2.332997e+00 2.278334e+00 2.035450e+00 1.989548e+00 1.748764e+00 1.709650e+00 1.470668e+00 1.436721e+00 1.199385e+00 1.169213e+00 9.334448e-01 9.058197e-01 6.715841e-01 6.453988e-01 4.126807e-01 3.869190e-01 1.557121e-01 1.294225e-01 -1.002783e-01 -1.280063e-01 -3.562092e-01 -3.862671e-01 -6.129873e-01 -6.462692e-01 -8.715307e-01 -9.089527e-01 -1.132790e+00 -1.175308e+00 -1.397768e+00 -1.446388e+00 -1.667531e+00 -1.723320e+00 -1.943215e+00 -2.007302e+00 -2.226030e+00 -2.299591e+00 -2.517242e+00 -2.601482e+00 -2.818149e+00 -2.914266e+00 -3.130049e+00 -3.239184e+00 -3.454188e+00 -3.577370e+00 -3.791715e+00 