# vtk DataFile Version 2.0
Comment goes here
ASCII

DATASET STRUCTURED_POINTS
DIMENSIONS    64   64   1

ORIGIN    0.000   0.000   0.000
SPACING   0.0156250.015625   1.000

POINT_DATA   4096
SCALARS P double
LOOKUP_TABLE default

-1.942925e+00 -1.905489e+00 -1.997927e+00 -1.892150e+00 -2.478098e+00 -1.609040e+00 1.659284e-01 -3.099561e-03 1.273169e+00 8.662534e-01 1.731763e+00 1.257791e+00 1.877807e+00 1.432977e+00 1.878868e+00 1.491225e+00 1.807207e+00 1.480019e+00 1.691464e+00 1.417123e+00 1.562743e+00 1.306942e+00 1.429981e+00 1.150291e+00 1.304344e+00 9.673262e-01 1.139245e+00 8.048099e-01 9.195198e-01 6.384531e-01 7.054143e-01 4.301394e-01 5.030234e-01 2.422996e-01 2.913028e-01 4.766947e-02 1.093882e-01 -1.298566e-01 -9.741281e-02 -3.115575e-01 -2.993001e-01 -4.974015e-01 -5.169646e-01 -7.005262e-01 -7.095956e-01 -8.761989e-01 -8.986085e-01 -1.055386e+00 -1.088098e+00 -1.223777e+00 -1.264724e+00 -1.398644e+00 -1.439912e+00 -1.553681e+00 -1.583311e+00 -1.671360e+00 -1.702714e+00 -1.790726e+00 -1.817404e+00 -1.873958e+00 -1.881848e+00 -1.916890e+00 -1.917999e+00 -1.928290e+00 
-1.665716e+00 -1.691164e+00 -1.523670e+00 -1.704137e+00 -1.445507e+00 -1.662016e+00 -4.861043e-01 -2.827479e-02 1.083645e+00 8.891765e-01 1.698773e+00 1.286443e+00 1.890495e+00 1.462368e+00 1.901095e+00 1.518923e+00 1.830491e+00 1.511366e+00 1.705010e+00 1.453827e+00 1.575008e+00 1.344113e+00 1.445302e+00 1.172973e+00 1.348118e+00 9.653313e-01 1.190271e+00 8.104808e-01 9.412817e-01 6.569524e-01 7.143139e-01 4.238950e-01 5.132494e-01 2.409857e-01 2.852471e-01 4.000597e-02 1.203477e-01 -1.279253e-01 -9.647381e-02 -3.059556e-01 -2.981661e-01 -4.883791e-01 -5.345731e-01 -7.078603e-01 -7.234865e-01 -8.721890e-01 -9.119612e-01 -1.051535e+00 -1.107047e+00 -1.211559e+00 -1.281532e+00 -1.393042e+00 -1.464862e+00 -1.546249e+00 -1.598337e+00 -1.636698e+00 -1.695800e+00 -1.750585e+00 -1.801945e+00 -1.805973e+00 -1.815415e+00 -1.799861e+00 -1.768957e+00 -1.749976e+00 
-1.691253e+00 -1.688197e+00 -1.604831e+00 -1.541859e+00 -1.395676e+00 -1.380783e+00 -4.503426e-01 -1.422775e-01 1.086607e+00 7.406387e-01 1.598813e+00 1.164875e+00 1.781897e+00 1.377932e+00 1.801068e+00 1.459989e+00 1.745148e+00 1.475696e+00 1.619483e+00 1.437977e+00 1.500817e+00 1.342271e+00 1.377919e+00 1.162544e+00 1.333780e+00 9.211490e-01 1.199578e+00 7.937440e-01 9.027505e-01 6.793320e-01 6.767778e-01 3.938748e-01 5.005545e-01 2.378175e-01 2.459895e-01 1.764182e-02 1.387289e-01 -1.273603e-01 -9.774942e-02 -3.014865e-01 -2.731857e-01 -4.686837e-01 -5.395842e-01 -7.254127e-01 -7.014430e-01 -8.591955e-01 -8.780540e-01 -1.048488e+00 -1.077085e+00 -1.190332e+00 -1.233158e+00 -1.392662e+00 -1.436231e+00 -1.559279e+00 -1.554420e+00 -1.613354e+00 -1.630194e+00 -1.761409e+00 -1.776958e+00 -1.822564e+00 -1.779885e+00 -1.813715e+00 -1.751288e+00 -1.768034e+00 
-1.741191e+00 -1.633298e+00 -1.679553e+00 -1.517752e+00 -1.774431e+00 -1.859996e+00 -2.579067e-01 1.586334e-01 1.731891e+00 1.214215e+00 2.129318e+00 1.579509e+00 2.219008e+00 1.710413e+00 2.167284e+00 1.738069e+00 2.044668e+00 1.715527e+00 1.866428e+00 1.670173e+00 1.673489e+00 1.583519e+00 1.523773e+00 1.360048e+00 1.518774e+00 1.024164e+00 1.421832e+00 9.038520e-01 1.011482e+00 8.250811e-01 7.989696e-01 4.171060e-01 6.171508e-01 3.179835e-01 2.711476e-01 6.118776e-02 2.299712e-01 -5.031757e-02 -8.089494e-02 -2.592306e-01 -1.969035e-01 -4.334638e-01 -5.569196e-01 -7.531464e-01 -7.144234e-01 -8.307074e-01 -8.931721e-01 -1.063480e+00 -1.109983e+00 -1.185412e+00 -1.260422e+00 -1.414954e+00 -1.540132e+00 -1.611082e+00 -1.620708e+00 -1.603909e+00 -1.678626e+00 -1.775566e+00 -1.878906e+00 -1.848718e+00 -1.851845e+00 -1.807263e+00 -1.811793e+00 -1.737427e+00 
-1.577825e+00 -1.666843e+00 -1.520112e+00 -1.809675e+00 -1.602291e+00 -1.137865e+00 3.765429e-01 6.337716e-01 2.076830e+00 1.578246e+00 2.428442e+00 1.967131e+00 2.513621e+00 2.078035e+00 2.461615e+00 2.080307e+00 2.315248e+00 2.018845e+00 2.133407e+00 1.943727e+00 1.895616e+00 1.838849e+00 1.726752e+00 1.605404e+00 1.648953e+00 1.277327e+00 1.536972e+00 1.098603e+00 1.171668e+00 9.536013e-01 9.743447e-01 5.730543e-01 7.509977e-01 4.462821e-01 4.137990e-01 2.015319e-01 3.042286e-01 5.632214e-02 1.139115e-03 -1.875330e-01 -1.242218e-01 -4.030876e-01 -4.662269e-01 -6.922618e-01 -6.622244e-01 -8.034891e-01 -8.525877e-01 -1.043856e+00 -1.058154e+00 -1.193547e+00 -1.225696e+00 -1.401256e+00 -1.491743e+00 -1.590171e+00 -1.564751e+00 -1.623598e+00 -1.636088e+00 -1.750415e+00 -1.772219e+00 -1.826565e+00 -1.741407e+00 -1.790791e+00 -1.678454e+00 -1.728417e+00 
-1.901904e+00 -1.693293e+00 -1.850397e+00 -1.729141e+00 -2.443318e+00 -1.452546e+00 6.137631e-01 6.618447e-01 2.242114e+00 1.702741e+00 2.701898e+00 2.062998e+00 2.757243e+00 2.155920e+00 2.661004e+00 2.140819e+00 2.484181e+00 2.063232e+00 2.282960e+00 1.959499e+00 2.046441e+00 1.821171e+00 1.855890e+00 1.604665e+00 1.695304e+00 1.342194e+00 1.521312e+00 1.126785e+00 1.242036e+00 9.209700e-01 1.015872e+00 6.424113e-01 7.650714e-01 4.509217e-01 4.868007e-01 2.331021e-01 2.805770e-01 4.112137e-02 2.372850e-02 -1.915397e-01 -1.741881e-01 -4.208784e-01 -4.495085e-01 -6.545530e-01 -6.800205e-01 -8.306517e-01 -8.923059e-01 -1.043494e+00 -1.100017e+00 -1.225081e+00 -1.299070e+00 -1.409705e+00 -1.518593e+00 -1.578273e+00 -1.648565e+00 -1.683613e+00 -1.769549e+00 -1.786858e+00 -1.881229e+00 -1.868955e+00 -1.932473e+00 -1.881461e+00 -1.943249e+00 -1.834726e+00 
-1.573217e+00 -1.829375e+00 -1.730036e+00 -4.055950e+00 -4.095954e+00 -3.495618e+00 -5.770868e-01 8.156146e-01 2.045503e+00 1.733661e+00 2.492636e+00 2.043436e+00 2.546014e+00 2.127109e+00 2.475235e+00 2.108154e+00 2.336506e+00 2.031635e+00 2.162236e+00 1.921889e+00 1.965103e+00 1.775206e+00 1.786570e+00 1.570083e+00 1.629085e+00 1.329004e+00 1.448560e+00 1.116980e+00 1.197899e+00 9.083485e-01 9.700533e-01 6.521238e-01 7.338094e-01 4.479511e-01 4.784453e-01 2.315516e-01 2.702064e-01 3.228461e-02 3.168955e-02 -1.893083e-01 -1.778264e-01 -4.109576e-01 -4.291101e-01 -6.389212e-01 -6.485004e-01 -8.249100e-01 -8.544176e-01 -1.027127e+00 -1.055364e+00 -1.208272e+00 -1.244144e+00 -1.390610e+00 -1.436179e+00 -1.551792e+00 -1.565511e+00 -1.661279e+00 -1.668886e+00 -1.766017e+00 -1.755225e+00 -1.836272e+00 -1.769325e+00 -1.842990e+00 -1.712364e+00 -1.792446e+00 
-2.409074e+00 -2.455000e+00 -3.454203e+00 -4.717603e+00 -8.473668e+00 -3.987676e+00 1.560357e+00 8.624415e-01 2.616328e+00 1.864637e+00 2.876903e+00 2.152529e+00 2.853218e+00 2.211466e+00 2.722247e+00 2.170457e+00 2.538887e+00 2.074508e+00 2.331774e+00 1.944475e+00 2.111839e+00 1.781865e+00 1.902977e+00 1.580104e+00 1.702088e+00 1.354436e+00 1.490521e+00 1.133214e+00 1.247947e+00 9.111249e-01 1.008139e+00 6.745107e-01 7.607235e-01 4.571392e-01 5.084364e-01 2.394519e-01 2.726368e-01 2.603180e-02 3.114590e-02 -1.970723e-01 -1.997814e-01 -4.206109e-01 -4.447386e-01 -6.401561e-01 -6.779004e-01 -8.427031e-01 -8.999478e-01 -1.046208e+00 -1.114438e+00 -1.238269e+00 -1.321207e+00 -1.422280e+00 -1.520688e+00 -1.590636e+00 -1.687536e+00 -1.731905e+00 -1.836831e+00 -1.858465e+00 -1.971175e+00 -1.968429e+00 -2.085612e+00 -2.056918e+00 -2.200585e+00 -2.152993e+00 
-2.048505e+00 -2.456396e+00 -2.375236e+00 -3.432867e+00 -3.499032e+00 -3.309842e-01 1.210901e+00 1.675879e+00 2.331510e+00 2.067297e+00 2.583933e+00 2.204135e+00 2.595016e+00 2.215963e+00 2.506505e+00 2.157124e+00 2.364024e+00 2.053580e+00 2.190974e+00 1.918245e+00 2.001772e+00 1.752982e+00 1.812166e+00 1.556051e+00 1.623209e+00 1.339103e+00 1.420350e+00 1.122499e+00 1.193033e+00 9.033467e-01 9.628383e-01 6.736601e-01 7.280739e-01 4.552541e-01 4.897516e-01 2.379075e-01 2.621183e-01 2.426065e-02 3.104145e-02 -1.942309e-01 -1.947598e-01 -4.130765e-01 -4.269894e-01 -6.294024e-01 -6.491337e-01 -8.321796e-01 -8.616904e-01 -1.031808e+00 -1.066208e+00 -1.221503e+00 -1.260511e+00 -1.402910e+00 -1.443091e+00 -1.568119e+00 -1.597071e+00 -1.709321e+00 -1.727739e+00 -1.836055e+00 -1.836288e+00 -1.944974e+00 -1.912518e+00 -2.039608e+00 -1.967158e+00 -2.159811e+00 
-2.764124e+00 -2.953812e+00 -3.256995e+00 -3.858291e+00 -3.749463e+00 2.533737e+00 3.023142e+00 2.263962e+00 3.186003e+00 2.354993e+00 3.130730e+00 2.375605e+00 2.992452e+00 2.332578e+00 2.812908e+00 2.240487e+00 2.608066e+00 2.112960e+00 2.389306e+00 1.958621e+00 2.164236e+00 1.780161e+00 1.940918e+00 1.578735e+00 1.718619e+00 1.361954e+00 1.490419e+00 1.140373e+00 1.250973e+00 9.157152e-01 1.007861e+00 6.873936e-01 7.612272e-01 4.636535e-01 5.135625e-01 2.415402e-01 2.703737e-01 2.062434e-02 2.797741e-02 -2.021979e-01 -2.113979e-01 -4.243783e-01 -4.518611e-01 -6.428690e-01 -6.870866e-01 -8.540248e-01 -9.154406e-01 -1.060757e+00 -1.137162e+00 -1.260289e+00 -1.351715e+00 -1.451927e+00 -1.557349e+00 -1.632836e+00 -1.747979e+00 -1.800718e+00 -1.927518e+00 -1.960422e+00 -2.100568e+00 -2.118137e+00 -2.275139e+00 -2.289255e+00 -2.475870e+00 -2.522332e+00 
-2.445121e+00 -2.798942e+00 -2.755752e+00 -3.308993e+00 -3.237733e+00 2.675729e+00 2.514228e+00 2.494212e+00 2.676713e+00 2.466033e+00 2.737010e+00 2.424100e+00 2.686774e+00 2.347269e+00 2.569611e+00 2.237543e+00 2.412447e+00 2.100692e+00 2.231272e+00 1.941160e+00 2.036514e+00 1.760763e+00 1.835792e+00 1.561194e+00 1.630408e+00 1.348428e+00 1.416190e+00 1.130356e+00 1.190811e+00 9.087638e-01 9.600447e-01 6.838716e-01 7.258361e-01 4.614705e-01 4.903115e-01 2.405463e-01 2.574329e-01 2.106094e-02 2.505948e-02 -1.988465e-01 -2.053418e-01 -4.177961e-01 -4.350854e-01 -6.335836e-01 -6.595748e-01 -8.428704e-01 -8.773601e-01 -1.046904e+00 -1.087901e+00 -1.243903e+00 -1.289727e+00 -1.433006e+00 -1.480615e+00 -1.611479e+00 -1.655760e+00 -1.777820e+00 -1.816171e+00 -1.936092e+00 -1.964207e+00 -2.091377e+00 -2.103720e+00 -2.257404e+00 -2.251189e+00 -2.469653e+00 
-3.025890e+00 -3.174962e+00 -3.421821e+00 -3.683046e+00 -3.879973e+00 3.192457e+00 3.647019e+00 2.893033e+00 3.497754e+00 2.741084e+00 3.328673e+00 2.613698e+00 3.128498e+00 2.482140e+00 2.911143e+00 2.335925e+00 2.683278e+00 2.173051e+00 2.449391e+00 1.994181e+00 2.212964e+00 1.800048e+00 1.976742e+00 1.592049e+00 1.740359e+00 1.373957e+00 1.501194e+00 1.150454e+00 1.257478e+00 9.238853e-01 1.010984e+00 6.956701e-01 7.627045e-01 4.685241e-01 5.141767e-01 2.424182e-01 2.672873e-01 1.710489e-02 2.175049e-02 -2.080025e-01 -2.219901e-01 -4.319044e-01 -4.643287e-01 -6.530486e-01 -7.033272e-01 -8.700106e-01 -9.378687e-01 -1.082918e+00 -1.167585e+00 -1.290951e+00 -1.392080e+00 -1.493648e+00 -1.610685e+00 -1.690560e+00 -1.822631e+00 -1.882584e+00 -2.030756e+00 -2.074295e+00 -2.240607e+00 -2.274331e+00 -2.462176e+00 -2.499633e+00 -2.714197e+00 -2.782971e+00 
-2.775760e+00 -3.025643e+00 -3.121399e+00 -3.409322e+00 -3.592082e+00 3.256890e+00 3.194099e+00 2.981148e+00 3.052624e+00 2.798799e+00 2.946033e+00 2.645707e+00 2.816413e+00 2.495227e+00 2.658218e+00 2.336446e+00 2.477536e+00 2.165742e+00 2.281297e+00 1.982326e+00 2.075111e+00 1.786295e+00 1.862860e+00 1.578762e+00 1.645708e+00 1.362639e+00 1.422764e+00 1.141504e+00 1.193719e+00 9.173478e-01 9.605350e-01 6.915171e-01 7.248172e-01 4.661609e-01 4.881517e-01 2.417053e-01 2.521776e-01 1.823740e-02 1.703209e-02 -2.044871e-01 -2.166775e-01 -4.257830e-01 -4.485773e-01 -6.444380e-01 -6.769403e-01 -8.591012e-01 -9.006237e-01 -1.069518e+00 -1.118882e+00 -1.275023e+00 -1.330844e+00 -1.475154e+00 -1.535517e+00 -1.669476e+00 -1.732018e+00 -1.858878e+00 -1.921952e+00 -2.047196e+00 -2.109339e+00 -2.241300e+00 -2.301895e+00 -2.453927e+00 -2.515190e+00 -2.706596e+00 
-3.245285e+00 -3.329256e+00 -3.629889e+00 -3.722044e+00 -4.074498e+00 3.606671e+00 4.000602e+00 3.279849e+00 3.736367e+00 3.035479e+00 3.495259e+00 2.826878e+00 3.252480e+00 2.632752e+00 3.006269e+00 2.440958e+00 2.757854e+00 2.245261e+00 2.508594e+00 2.042833e+00 2.259636e+00 1.832600e+00 2.011663e+00 1.614802e+00 1.764236e+00 1.391021e+00 1.516139e+00 1.163408e+00 1.266536e+00 9.335915e-01 1.015753e+00 7.028144e-01 7.643414e-01 4.723100e-01 5.130897e-01 2.424637e-01 2.627930e-01 1.333399e-02 1.366672e-02 -2.150762e-01 -2.340665e-01 -4.422860e-01 -4.802578e-01 -6.675684e-01 -7.242136e-01 -8.903108e-01 -9.654225e-01 -1.110383e+00 -1.203720e+00 -1.327674e+00 -1.439163e+00 -1.542403e+00 -1.672088e+00 -1.755369e+00 -1.903561e+00 -1.968717e+00 -2.136650e+00 -2.187052e+00 -2.376804e+00 -2.418229e+00 -2.632680e+00 -2.674669e+00 -2.917028e+00 -2.973484e+00 
-3.048313e+00 -3.214052e+00 -3.414476e+00 -3.565544e+00 -3.863028e+00 3.635144e+00 3.615690e+00 3.318740e+00 3.360815e+00 3.065385e+00 3.155164e+00 2.845583e+00 2.959994e+00 2.641278e+00 2.760467e+00 2.441472e+00 2.552990e+00 2.240096e+00 2.338236e+00 2.034090e+00 2.117977e+00 1.822140e+00 1.893740e+00 1.604224e+00 1.666125e+00 1.381450e+00 1.435019e+00 1.155426e+00 1.200500e+00 9.274516e-01 9.633819e-01 6.985858e-01 7.246233e-01 4.698744e-01 4.852048e-01 2.418094e-01 2.460071e-01 1.459835e-02 7.477026e-03 -2.116475e-01 -2.299349e-01 -4.365383e-01 -4.657573e-01 -6.594741e-01 -6.992039e-01 -8.798718e-01 -9.296415e-01 -1.097505e+00 -1.156669e+00 -1.312263e+00 -1.380060e+00 -1.524328e+00 -1.599890e+00 -1.734397e+00 -1.816951e+00 -1.944341e+00 -2.033714e+00 -2.157986e+00 -2.254899e+00 -2.381557e+00 -2.488424e+00 -2.624387e+00 -2.746916e+00 -2.898491e+00 
-3.430982e+00 -3.465090e+00 -3.815229e+00 -3.825903e+00 -4.245527e+00 3.895493e+00 4.234570e+00 3.553234e+00 3.922570e+00 3.264621e+00 3.637774e+00 3.008569e+00 3.363543e+00 2.771735e+00 3.094201e+00 2.544668e+00 2.828015e+00 2.321164e+00 2.564530e+00 2.097494e+00 2.303609e+00 1.871651e+00 2.045017e+00 1.642913e+00 1.788154e+00 1.411545e+00 1.532197e+00 1.178340e+00 1.276523e+00 9.441158e-01 1.020985e+00 7.095888e-01 7.657019e-01 4.753623e-01 5.109579e-01 2.417242e-01 2.570485e-01 8.770115e-03 4.106234e-03 -2.234408e-01 -2.477861e-01 -4.547189e-01 -4.985585e-01 -6.848090e-01 -7.480426e-01 -9.135568e-01 -9.961819e-01 -1.141060e+00 -1.243166e+00 -1.367647e+00 -1.489494e+00 -1.594048e+00 -1.736125e+00 -1.821655e+00 -1.984822e+00 -2.052968e+00 -2.238708e+00 -2.292122e+00 -2.502612e+00 -2.545222e+00 -2.783357e+00 -2.820282e+00 -3.089668e+00 -3.125691e+00 
-3.271375e+00 -3.379297e+00 -3.646913e+00 -3.725586e+00 -4.079239e+00 3.908832e+00 3.908301e+00 3.571521e+00 3.603923e+00 3.279831e+00 3.341647e+00 3.018458e+00 3.099586e+00 2.775979e+00 2.865075e+00 2.543908e+00 2.632084e+00 2.316506e+00 2.398352e+00 2.090193e+00 2.163342e+00 1.862948e+00 1.927050e+00 1.633918e+00 1.689423e+00 1.403118e+00 1.450286e+00 1.171041e+00 1.209611e+00 9.382753e-01 9.676818e-01 7.053760e-01 7.249506e-01 4.728428e-01 4.819247e-01 2.409698e-01 2.390667e-01 9.900818e-03 -3.301787e-03 -2.202730e-01 -2.449040e-01 -4.493916e-01 -4.854685e-01 -6.772466e-01 -7.246884e-01 -9.036948e-01 -9.623719e-01 -1.128799e+00 -1.198542e+00 -1.352854e+00 -1.433514e+00 -1.576518e+00 -1.668071e+00 -1.801031e+00 -1.903791e+00 -2.028575e+00 -2.143554e+00 -2.262653e+00 -2.392001e+00 -2.508285e+00 -2.656029e+00 -2.771952e+00 -2.945197e+00 -3.060654e+00 
-3.586386e+00 -3.588740e+00 -3.970718e+00 -3.942332e+00 -4.390275e+00 4.111649e+00 4.402991e+00 3.760053e+00 4.068267e+00 3.446715e+00 3.757321e+00 3.160966e+00 3.460534e+00 2.894584e+00 3.172797e+00 2.640874e+00 2.891541e+00 2.394787e+00 2.615459e+00 2.152799e+00 2.343740e+00 1.912642e+00 2.075690e+00 1.673052e+00 1.810558e+00 1.433528e+00 1.547575e+00 1.194044e+00 1.286109e+00 9.547741e-01 1.025776e+00 7.159390e-01 7.663870e-01 4.777260e-01 5.078816e-01 2.402084e-01 2.502378e-01 3.367517e-03 -6.605021e-03 -2.328497e-01 -2.627411e-01 -4.684817e-01 -5.182934e-01 -7.035862e-01 -7.734144e-01 -9.383270e-01 -1.028380e+00 -1.173068e+00 -1.283690e+00 -1.408440e+00 -1.540165e+00 -1.645472e+00 -1.799094e+00 -1.885771e+00 -2.062455e+00 -2.131767e+00 -2.333185e+00 -2.386916e+00 -2.615358e+00 -2.655705e+00 -2.914208e+00 -2.943223e+00 -3.235840e+00 -3.253850e+00 
-3.453926e+00 -3.524121e+00 -3.833483e+00 -3.872406e+00 -4.254548e+00 4.117395e+00 4.125600e+00 3.768372e+00 3.796489e+00 3.453804e+00 3.500776e+00 3.165231e+00 3.226368e+00 2.895490e+00 2.964392e+00 2.638553e+00 2.709281e+00 2.389790e+00 2.457945e+00 2.145895e+00 2.208775e+00 1.904671e+00 1.960885e+00 1.664812e+00 1.713683e+00 1.425684e+00 1.466720e+00 1.187092e+00 1.219716e+00 9.490512e-01 9.725955e-01 7.116636e-01 7.254285e-01 4.750383e-01 4.783569e-01 2.392233e-01 2.315275e-01 4.202543e-03 -1.495763e-02 -2.300735e-01 -2.610347e-01 -4.636567e-01 -5.066760e-01 -6.966219e-01 -7.519079e-01 -9.291339e-01 -9.968896e-01 -1.161533e+00 -1.242003e+00 -1.394409e+00 -1.487956e+00 -1.628708e+00 -1.735940e+00 -1.865895e+00 -1.987858e+00 -2.108139e+00 -2.246613e+00 -2.358484e+00 -2.516367e+00 -2.620857e+00 -2.802721e+00 -2.899827e+00 -3.112659e+00 -3.199879e+00 
-3.715371e+00 -3.699257e+00 -4.099424e+00 -4.052830e+00 -4.511354e+00 4.279565e+00 4.530066e+00 3.921992e+00 4.183073e+00 3.593325e+00 3.855827e+00 3.287791e+00 3.542947e+00 3.000350e+00 3.240785e+00 2.726457e+00 2.946994e+00 2.462315e+00 2.660063e+00 2.204956e+00 2.378902e+00 1.952199e+00 2.102587e+00 1.702555e+00 1.830244e+00 1.455091e+00 1.561050e+00 1.209276e+00 1.294297e+00 9.648136e-01 1.029431e+00 7.215274e-01 7.660422e-01 4.792785e-01 5.038236e-01 2.379100e-01 2.425175e-01 -2.766773e-03 -1.813169e-02 -2.429652e-01 -2.784009e-01 -4.829211e-01 -5.386065e-01 -7.229225e-01 -7.991341e-01 -9.633671e-01 -1.060500e+00 -1.204831e+00 -1.323430e+00 -1.448141e+00 -1.588946e+00 -1.694466e+00 -1.858474e+00 -1.945436e+00 -2.133983e+00 -2.203247e+00 -2.418106e+00 -2.470707e+00 -2.714200e+00 -2.751122e+00 -3.026262e+00 -3.047877e+00 -3.358630e+00 -3.363634e+00 
-3.603629e+00 -3.649520e+00 -3.984873e+00 -4.001221e+00 -4.398159e+00 4.281383e+00 4.293763e+00 3.925140e+00 3.950723e+00 3.595770e+00 3.634100e+00 3.288449e+00 3.337160e+00 2.998751e+00 3.054131e+00 2.722602e+00 2.780699e+00 2.456536e+00 2.513937e+00 2.197788e+00 2.251919e+00 1.944261e+00 1.993333e+00 1.694454e+00 1.737222e+00 1.447361e+00 1.482855e+00 1.202342e+00 1.229696e+00 9.589940e-01 9.773780e-01 7.170497e-01 7.256723e-01 4.763075e-01 4.744308e-01 2.365763e-01 2.235383e-01 -2.347474e-03 -2.712756e-02 -2.406855e-01 -2.777177e-01 -4.786827e-01 -5.284327e-01 -7.166339e-01 -7.795568e-01 -9.549329e-01 -1.031518e+00 -1.194136e+00 -1.284963e+00 -1.435029e+00 -1.540853e+00 -1.678715e+00 -1.800580e+00 -1.926709e+00 -2.066116e+00 -2.181041e+00 -2.340168e+00 -2.444299e+00 -2.626289e+00 -2.719577e+00 -2.928880e+00 -3.010236e+00 -3.252971e+00 -3.319438e+00 
-3.821654e+00 -3.795585e+00 -4.205299e+00 -4.151022e+00 -4.611902e+00 4.412876e+00 4.628418e+00 4.051155e+00 4.273906e+00 3.712084e+00 3.935741e+00 3.392493e+00 3.611039e+00 3.089430e+00 3.297519e+00 2.799975e+00 2.993406e+00 2.521412e+00 2.697322e+00 2.251365e+00 2.408116e+00 1.987860e+00 2.124753e+00 1.729341e+00 1.846258e+00 1.474639e+00 1.571724e+00 1.222897e+00 1.300343e+00 9.734896e-01 1.031422e+00 7.259343e-01 7.643832e-01 4.798307e-01 4.987341e-01 2.348110e-01 2.340335e-01 -9.488610e-03 -3.014456e-02 -2.534436e-01 -2.942404e-01 -4.974590e-01 -5.587367e-01 -7.420002e-01 -8.241941e-01 -9.876367e-01 -1.091300e+00 -1.235095e+00 -1.360928e+00 -1.485317e+00 -1.634206e+00 -1.739521e+00 -1.912589e+00 -1.999267e+00 -2.197932e+00 -2.266490e+00 -2.492541e+00 -2.543486e+00 -2.799163e+00 -2.832767e+00 -3.120866e+00 -3.136766e+00 -3.460780e+00 -3.457392e+00 
-3.726348e+00 -3.756521e+00 -4.108296e+00 -4.111470e+00 -4.516184e+00 4.412795e+00 4.427284e+00 4.051652e+00 4.075437e+00 3.711876e+00 3.744724e+00 3.390797e+00 3.431487e+00 3.085894e+00 3.132204e+00 2.794626e+00 2.843846e+00 2.514555e+00 2.563995e+00 2.243464e+00 2.290772e+00 1.979437e+00 2.022698e+00 1.720904e+00 1.758588e+00 1.466632e+00 1.497484e+00 1.215688e+00 1.238618e+00 9.673615e-01 9.813892e-01 7.211019e-01 7.253281e-01 4.764564e-01 4.700529e-01 2.330230e-01 2.152296e-01 -9.581876e-03 -3.946558e-02 -2.517461e-01 -2.943772e-01 -4.938830e-01 -5.499013e-01 -7.364610e-01 -8.065237e-01 -9.800449e-01 -1.064871e+00 -1.225345e+00 -1.325771e+00 -1.473272e+00 -1.590328e+00 -1.724997e+00 -1.860004e+00 -1.982006e+00 -2.136705e+00 -2.246148e+00 -2.422855e+00 -2.519633e+00 -2.721416e+00 -2.804950e+00 -3.035805e+00 -3.104689e+00 -3.369658e+00 -3.421251e+00 
-3.908283e+00 -3.877400e+00 -4.291560e+00 -4.234971e+00 -4.694481e+00 4.520102e+00 4.705540e+00 4.155215e+00 4.345697e+00 3.808321e+00 3.999388e+00 3.477894e+00 3.665425e+00 3.162576e+00 3.342702e+00 2.860758e+00 3.030078e+00 2.570607e+00 2.726405e+00 2.290227e+00 2.430546e+00 2.017823e+00 2.141383e+00 1.751814e+00 1.857843e+00 1.490876e+00 1.578918e+00 1.233938e+00 1.303694e+00 9.801328e-01 1.031360e+00 7.287511e-01 7.612034e-01 4.791858e-01 4.925887e-01 2.308902e-01 2.249314e-01 -1.665541e-02 -4.233384e-02 -2.639708e-01 -3.097821e-01 -5.116011e-01 -5.780290e-01 -7.601475e-01 -8.477642e-01 -1.010304e+00 -1.119792e+00 -1.262898e+00 -1.395077e+00 -1.518932e+00 -1.674788e+00 -1.779624e+00 -1.960350e+00 -2.046434e+00 -2.253471e+00 -2.321074e+00 -2.556157e+00 -2.605457e+00 -2.870661e+00 -2.901585e+00 -3.199376e+00 -3.211351e+00 -3.544610e+00 -3.536293e+00 
-3.826370e+00 -3.846236e+00 -4.208625e+00 -4.203913e+00 -4.612777e+00 4.519476e+00 4.535173e+00 4.154640e+00 4.176967e+00 3.806738e+00 3.835748e+00 3.474624e+00 3.509918e+00 3.157396e+00 3.197684e+00 2.853840e+00 2.897135e+00 2.562368e+00 2.606394e+00 2.281183e+00 2.323720e+00 2.008488e+00 2.047561e+00 1.742649e+00 1.776572e+00 1.482269e+00 1.509608e+00 1.226199e+00 1.245715e+00 9.735061e-01 9.840975e-01 7.234221e-01 7.240954e-01 4.752979e-01 4.651403e-01 2.285572e-01 2.067196e-01 -1.733949e-02 -5.165956e-02 -2.629242e-01 -3.105044e-01 -5.087496e-01 -5.703695e-01 -7.554196e-01 -8.318947e-01 -1.003625e+00 -1.095847e+00 -1.254181e+00 -1.363171e+00 -1.508071e+00 -1.635040e+00 -1.766484e+00 -1.912907e+00 -2.030845e+00 -2.198556e+00 -2.302832e+00 -2.494118e+00 -2.584353e+00 -2.802045e+00 -2.877471e+00 -3.125007e+00 -3.184271e+00 -3.465675e+00 -3.506672e+00 
-3.977567e+00 -3.944839e+00 -4.360586e+00 -4.304354e+00 -4.761020e+00 4.607258e+00 4.766572e+00 4.239666e+00 4.402166e+00 3.886023e+00 4.048722e+00 3.546168e+00 3.706673e+00 3.220402e+00 3.376081e+00 2.908346e+00 3.056378e+00 2.608827e+00 2.746567e+00 2.320210e+00 2.445455e+00 2.040737e+00 2.151799e+00 1.768751e+00 1.864395e+00 1.502790e+00 1.582118e+00 1.241615e+00 1.303949e+00 9.841867e-01 1.028973e+00 7.296268e-01 7.563707e-01 4.771715e-01 4.853979e-01 2.261329e-01 2.153601e-01 -2.413664e-02 -5.441547e-02 -2.742744e-01 -3.246086e-01 -5.249360e-01 -5.959348e-01 -7.768246e-01 -8.691758e-01 -1.030722e+00 -1.145212e+00 -1.287519e+00 -1.425058e+00 -1.548247e+00 -1.709888e+00 -1.814099e+00 -2.001069e+00 -2.086444e+00 -2.300165e+00 -2.366810e+00 -2.608926e+00 -2.656846e+00 -2.929234e+00 -2.958226e+00 -3.262994e+00 -3.272524e+00 -3.611971e+00 -3.601069e+00 
-3.906767e+00 -3.919712e+00 -4.289194e+00 -4.279596e+00 -4.690806e+00 4.607291e+00 4.623798e+00 4.239301e+00 4.260145e+00 3.884042e+00 3.909823e+00 3.541781e+00 3.573179e+00 3.213566e+00 3.250035e+00 2.899558e+00 2.939411e+00 2.598783e+00 2.639790e+00 2.309583e+00 2.349463e+00 2.030091e+00 2.066766e+00 1.758522e+00 1.790191e+00 1.493311e+00 1.518432e+00 1.233139e+00 1.250376e+00 9.769040e-01 9.850813e-01 7.236829e-01 7.217378e-01 4.726794e-01 4.596340e-01 2.231824e-01 1.981180e-01 -2.547144e-02 -6.343732e-02 -2.739301e-01 -3.256679e-01 -5.228556e-01 -5.892513e-01 -7.729540e-01 -8.549403e-01 -1.025006e+00 -1.123599e+00 -1.279896e+00 -1.396239e+00 -1.538646e+00 -1.674058e+00 -1.802438e+00 -1.958464e+00 -2.072628e+00 -2.251102e+00 -2.350748e+00 -2.553841e+00 -2.638477e+00 -2.868730e+00 -2.937578e+00 -3.197891e+00 -3.249796e+00 -3.543346e+00 -3.576732e+00 
-4.031174e+00 -3.998215e+00 -4.414053e+00 -4.359371e+00 -4.812896e+00 4.679332e+00 4.815793e+00 4.309108e+00 4.446488e+00 3.948484e+00 4.085211e+00 3.598789e+00 3.734917e+00 3.262986e+00 3.397098e+00 2.942040e+00 3.071520e+00 2.635044e+00 2.757030e+00 2.340209e+00 2.452163e+00 2.055555e+00 2.155430e+00 1.779229e+00 1.865446e+00 1.509613e+00 1.580954e+00 1.245333e+00 1.300835e+00 9.852247e-01 1.024090e+00 7.282913e-01 7.498216e-01 4.736595e-01 4.772066e-01 2.205387e-01 2.054720e-01 -3.181390e-02 -6.613298e-02 -2.841243e-01 -3.383632e-01 -5.371298e-01 -6.120046e-01 -7.916066e-01 -8.879010e-01 -1.048395e+00 -1.166980e+00 -1.308427e+00 -1.450277e+00 -1.572741e+00 -1.738955e+00 -1.842500e+00 -2.034318e+00 -2.118995e+00 -2.337805e+00 -2.403622e+00 -2.650965e+00 -2.697845e+00 -2.975406e+00 -3.003133e+00 -3.312702e+00 -3.320865e+00 -3.664261e+00 -3.652243e+00 
-3.969710e+00 -3.977823e+00 -4.352276e+00 -4.339466e+00 -4.752245e+00 4.681464e+00 4.698498e+00 4.310371e+00 4.329125e+00 3.947105e+00 3.969021e+00 3.593433e+00 3.621546e+00 3.254036e+00 3.288503e+00 2.930708e+00 2.969520e+00 2.622553e+00 2.662991e+00 2.327482e+00 2.366926e+00 2.043204e+00 2.079394e+00 1.767646e+00 1.798687e+00 1.499050e+00 1.523348e+00 1.235962e+00 1.252146e+00 9.771694e-01 9.840288e-01 7.216455e-01 7.180861e-01 4.684972e-01 4.535037e-01 2.169197e-01 1.895283e-01 -3.384023e-02 -7.456663e-02 -2.845159e-01 -3.395130e-01 -5.358499e-01 -6.060782e-01 -7.886215e-01 -8.750948e-01 -1.043672e+00 -1.147490e+00 -1.301932e+00 -1.424312e+00 -1.564438e+00 -1.706754e+00 -1.832354e+00 -1.996171e+00 -2.106973e+00 -2.294076e+00 -2.389712e+00 -2.602127e+00 -2.682081e+00 -2.922065e+00 -2.985631e+00 -3.255631e+00 -3.301882e+00 -3.604420e+00 -3.632224e+00 
-4.070245e+00 -4.037819e+00 -4.453077e+00 -4.400305e+00 -4.851021e+00 4.741389e+00 4.857757e+00 4.368302e+00 4.482063e+00 3.998973e+00 4.109584e+00 3.636187e+00 3.749276e+00 3.289273e+00 3.404450e+00 2.960463e+00 3.074342e+00 2.648019e+00 2.756911e+00 2.349210e+00 2.450032e+00 2.061455e+00 2.151821e+00 1.782584e+00 1.860666e+00 1.510819e+00 1.575190e+00 1.244689e+00 1.294197e+00 9.829581e-01 1.016634e+00 7.245659e-01 7.415560e-01 4.685740e-01 4.680924e-01 2.141279e-01 1.954214e-01 -3.957766e-02 -7.725700e-02 -2.933281e-01 -3.507460e-01 -5.479161e-01 -6.258765e-01 -8.041658e-01 -9.035298e-01 -1.062955e+00 -1.184659e+00 -1.325236e+00 -1.470307e+00 -1.592049e+00 -1.761616e+00 -1.864528e+00 -2.059835e+00 -2.143902e+00 -2.366303e+00 -2.431476e+00 -2.682426e+00 -2.728594e+00 -3.009620e+00 -3.036596e+00 -3.349239e+00 -3.356747e+00 -3.702476e+00 -3.690178e+00 
-4.016687e+00 -4.021214e+00 -4.399381e+00 -4.384226e+00 -4.798399e+00 4.747652e+00 4.764807e+00 4.373165e+00 4.388398e+00 3.999689e+00 4.014587e+00 3.629447e+00 3.654041e+00 3.276879e+00 3.311449e+00 2.945280e+00 2.985952e+00 2.632135e+00 2.674814e+00 2.333783e+00 2.375214e+00 2.047041e+00 2.084763e+00 1.769430e+00 1.801529e+00 1.499033e+00 1.523947e+00 1.234328e+00 1.250717e+00 9.740627e-01 9.807374e-01 7.171684e-01 7.130396e-01 4.627041e-01 4.467497e-01 2.098119e-01 1.810500e-01 -4.231689e-02 -8.485246e-02 -2.944717e-01 -3.517549e-01 -5.474489e-01 -6.204860e-01 -8.020758e-01 -8.919309e-01 -1.059233e+00 -1.167055e+00 -1.319876e+00 -1.446923e+00 -1.585046e+00 -1.732716e+00 -1.855887e+00 -2.025731e+00 -2.133639e+00 -2.327380e+00 -2.419630e+00 -2.639154e+00 -2.715252e+00 -2.962582e+00 -3.021913e+00 -3.299140e+00 -3.340983e+00 -3.650158e+00 -3.673723e+00 
-4.095486e+00 -4.063818e+00 -4.478301e+00 -4.427311e+00 -4.875876e+00 4.799534e+00 4.898472e+00 4.423401e+00 4.514099e+00 4.042077e+00 4.120740e+00 3.656316e+00 3.746565e+00 3.295818e+00 3.395477e+00 2.961043e+00 3.063158e+00 2.646206e+00 2.745251e+00 2.346318e+00 2.438539e+00 2.057883e+00 2.140683e+00 1.778435e+00 1.849897e+00 1.506122e+00 1.564741e+00 1.239468e+00 1.284002e+00 9.772396e-01 1.006618e+00 7.183679e-01 7.316328e-01 4.618965e-01 4.581620e-01 2.069445e-01 1.853639e-01 -4.732390e-02 -8.758406e-02 -3.017265e-01 -3.615091e-01 -5.570866e-01 -6.372647e-01 -8.142555e-01 -9.157507e-01 -1.074131e+00 -1.197931e+00 -1.337674e+00 -1.484845e+00 -1.605920e+00 -1.777617e+00 -1.879981e+00 -2.077453e+00 -2.161045e+00 -2.385625e+00 -2.450355e+00 -2.703441e+00 -2.749183e+00 -3.032197e+00 -3.058794e+00 -3.373117e+00 -3.380393e+00 -3.727268e+00 -3.715083e+00 
-4.048660e+00 -4.050269e+00 -4.431420e+00 -4.414259e+00 -4.829994e+00 4.812686e+00 4.829487e+00 4.434796e+00 4.445053e+00 4.048196e+00 4.045705e+00 3.646013e+00 3.666632e+00 3.276698e+00 3.315447e+00 2.939686e+00 2.986607e+00 2.625683e+00 2.674110e+00 2.327627e+00 2.373694e+00 2.041182e+00 2.082486e+00 1.763627e+00 1.798448e+00 1.493082e+00 1.520023e+00 1.228103e+00 1.245942e+00 9.674926e-01 9.751123e-01 7.102083e-01 7.065636e-01 4.553103e-01 4.394019e-01 2.019257e-01 1.727792e-01 -5.077857e-02 -9.413349e-02 -3.036209e-01 -3.621716e-01 -5.574273e-01 -6.322003e-01 -8.130523e-01 -9.051358e-01 -1.071398e+00 -1.181964e+00 -1.333431e+00 -1.463756e+00 -1.600193e+00 -1.751676e+00 -1.872805e+00 -2.046977e+00 -2.152471e+00 -2.350995e+00 -2.440456e+00 -2.665109e+00 -2.738071e+00 -2.990701e+00 -3.046629e+00 -3.329085e+00 -3.367409e+00 -3.681426e+00 -3.701602e+00 
-4.107246e+00 -4.076189e+00 -4.489954e+00 -4.440285e+00 -4.887492e+00 4.860924e+00 4.946179e+00 4.483548e+00 4.555142e+00 4.088034e+00 4.110891e+00 3.648749e+00 3.718243e+00 3.274104e+00 3.365537e+00 2.939738e+00 3.035954e+00 2.628090e+00 2.721307e+00 2.331065e+00 2.417479e+00 2.044727e+00 2.122016e+00 1.766756e+00 1.833203e+00 1.495508e+00 1.549691e+00 1.229656e+00 1.270341e+00 9.680617e-01 9.941410e-01 7.097083e-01 7.201657e-01 4.536642e-01 4.475479e-01 1.990567e-01 1.754545e-01 -5.495231e-02 -9.693571e-02 -3.091878e-01 -3.704517e-01 -5.644826e-01 -6.459504e-01 -8.216965e-01 -9.243341e-01 -1.081733e+00 -1.206566e+00 -1.345554e+00 -1.493680e+00 -1.614187e+00 -1.786786e+00 -1.888731e+00 -2.087064e+00 -2.170346e+00 -2.395747e+00 -2.460244e+00 -2.714094e+00 -2.759659e+00 -3.043338e+00 -3.069818e+00 -3.384636e+00 -3.391903e+00 -3.739001e+00 -3.727022e+00 