# vtk DataFile Version 2.0
Comment goes here
ASCII

DATASET STRUCTURED_POINTS
DIMENSIONS    64   64   1

ORIGIN    0.000   0.000   0.000
SPACING   0.0156250.015625   1.000

POINT_DATA   4096
SCALARS P double
LOOKUP_TABLE default

-1.668436e+01 -1.968385e+01 -7.364562e+00 -2.935394e+00 -6.069020e+00 -5.471904e+00 -2.822948e+00 -1.963381e+00 -1.768828e-01 9.750668e-01 2.784662e+00 3.087111e+00 4.345066e+00 3.078604e+00 4.713944e+00 2.781116e+00 4.702590e+00 2.607520e+00 4.241170e+00 2.746839e+00 3.474135e+00 3.019571e+00 2.676419e+00 3.078457e+00 2.092345e+00 2.860817e+00 1.797187e+00 2.417920e+00 1.658284e+00 1.924533e+00 1.524557e+00 1.453273e+00 1.335718e+00 1.022090e+00 1.105695e+00 6.950895e-01 8.348785e-01 3.938799e-01 5.833584e-01 6.200062e-02 3.675200e-01 -2.719290e-01 1.410239e-01 -6.017815e-01 -8.540006e-02 -9.289362e-01 -3.072750e-01 -1.246356e+00 -5.346467e-01 -1.530688e+00 -7.531156e-01 -1.810782e+00 -9.717153e-01 -2.083500e+00 -1.189437e+00 -2.310244e+00 -1.418463e+00 -2.517809e+00 -1.694847e+00 -2.613314e+00 -3.386157e+00 -7.767061e+00 -4.126060e+00 -3.091655e+00 
-1.477805e+01 -5.092299e+00 3.753675e+00 -3.674854e+00 -5.820742e+00 -8.200007e+00 -5.647298e+00 -1.510916e+00 -2.759064e-01 3.857308e+00 2.617432e+00 3.909633e+00 4.345790e+00 3.448378e+00 5.323507e+00 2.853202e+00 5.361743e+00 2.592882e+00 4.743585e+00 2.788838e+00 3.684775e+00 3.244356e+00 2.652317e+00 3.414126e+00 1.984399e+00 3.185349e+00 1.738580e+00 2.615714e+00 1.667220e+00 2.017173e+00 1.555608e+00 1.482928e+00 1.343051e+00 9.948393e-01 1.089655e+00 6.621526e-01 7.796485e-01 3.435965e-01 5.086295e-01 -4.250851e-02 2.985157e-01 -4.270420e-01 5.458649e-02 -7.986969e-01 -1.951196e-01 -1.159294e+00 -4.346769e-01 -1.506750e+00 -6.792963e-01 -1.789934e+00 -8.880295e-01 -2.057418e+00 -1.061662e+00 -2.278779e+00 -1.145236e+00 -2.282614e+00 -1.072135e+00 -1.844728e+00 -8.051651e-01 -1.139013e+00 -1.996635e+00 -1.249126e+01 -6.395239e+00 -4.443859e+00 
3.669931e-02 -6.977596e+00 -1.133004e+00 -4.037832e+00 -9.368293e+00 -4.292278e+00 -5.604214e+00 2.479702e-01 -3.174740e+00 2.992838e+00 1.833006e+00 4.797757e+00 3.787329e+00 3.711677e+00 4.856554e+00 2.403501e+00 5.148910e+00 2.005271e+00 4.618432e+00 2.429191e+00 3.394501e+00 3.309324e+00 2.191455e+00 3.638260e+00 1.486167e+00 3.401610e+00 1.389389e+00 2.670075e+00 1.517928e+00 1.995202e+00 1.540814e+00 1.435344e+00 1.387161e+00 8.911669e-01 1.176966e+00 6.574621e-01 8.372072e-01 4.347945e-01 5.736883e-01 6.757096e-02 4.338703e-01 -2.818021e-01 2.153574e-01 -6.187317e-01 4.247483e-04 -9.615896e-01 -1.881017e-01 -1.306908e+00 -4.044048e-01 -1.546284e+00 -5.740795e-01 -1.816050e+00 -7.406327e-01 -2.117229e+00 -8.742348e-01 -2.275294e+00 -1.062331e+00 -2.535488e+00 -1.445690e+00 -3.335381e+00 -9.744879e-01 -4.222789e+00 -9.355696e+00 -5.897636e+00 
-7.504143e+00 -7.340361e+00 -1.993147e+00 -3.117672e+00 -5.335249e-01 -1.207203e+01 -7.750891e+00 3.194258e+00 -7.892347e-01 3.380777e+00 4.399790e+00 3.793497e+00 4.764727e+00 3.867212e+00 5.327250e+00 3.138117e+00 5.194160e+00 2.747512e+00 4.777877e+00 2.843604e+00 3.818653e+00 3.560946e+00 2.692244e+00 3.615660e+00 1.859549e+00 3.276365e+00 1.749564e+00 2.383421e+00 1.858749e+00 1.845962e+00 1.672654e+00 1.544484e+00 1.218947e+00 1.028549e+00 9.176437e-01 8.168328e-01 6.195116e-01 4.445521e-01 4.610429e-01 -9.133836e-02 3.961229e-01 -4.592422e-01 1.108717e-01 -8.154627e-01 -1.199410e-01 -1.192999e+00 -3.031458e-01 -1.596785e+00 -5.492591e-01 -1.829294e+00 -7.232213e-01 -2.117188e+00 -9.195594e-01 -2.486267e+00 -1.019620e+00 -2.640375e+00 -1.058961e+00 -2.870109e+00 -1.127881e+00 -3.918969e+00 -1.250995e+00 -1.127809e+01 -8.358981e+00 -8.826090e+00 
-4.410791e+00 -1.468793e+01 -5.510395e+00 -5.723530e+00 -2.762891e+00 -9.233678e+00 -7.021551e+00 -2.653259e+00 -3.852176e+00 1.707135e+00 2.956686e+00 2.667821e+00 3.009641e+00 3.733112e+00 2.763071e+00 4.063344e+00 2.572794e+00 3.815136e+00 2.793599e+00 3.140452e+00 2.903717e+00 2.793968e+00 2.676823e+00 2.370990e+00 2.291127e+00 2.077827e+00 2.158848e+00 1.550321e+00 2.006320e+00 1.402054e+00 1.526687e+00 1.470094e+00 8.835820e-01 1.267831e+00 5.611623e-01 1.064298e+00 4.719802e-01 5.926342e-01 5.039951e-01 7.266210e-02 5.104460e-01 -2.311687e-01 3.109037e-01 -5.108067e-01 1.716579e-01 -7.941630e-01 6.895117e-02 -1.096133e+00 -6.371355e-02 -1.295358e+00 -1.350930e-01 -1.521845e+00 -2.264956e-01 -1.804626e+00 -2.424624e-01 -1.949762e+00 -2.656691e-01 -2.053838e+00 -7.760319e-01 -1.935197e+00 -1.047266e+00 -1.893249e+00 7.422749e-01 -2.972771e+00 
-1.163404e+01 -2.845931e+01 -1.602504e+01 4.258050e+00 2.196073e+00 -3.063854e+00 -6.292917e+00 1.282394e+00 1.558909e+00 2.469162e+00 3.040053e+00 3.152553e+00 3.991857e+00 3.942300e+00 3.592651e+00 4.239428e+00 3.211078e+00 3.973559e+00 3.146438e+00 3.302391e+00 3.141769e+00 2.747622e+00 2.958986e+00 2.346003e+00 2.646971e+00 2.047365e+00 2.380727e+00 1.682637e+00 2.055285e+00 1.490870e+00 1.556196e+00 1.424744e+00 9.884647e-01 1.244529e+00 6.334720e-01 9.348154e-01 5.010776e-01 4.500451e-01 4.402571e-01 -3.045659e-02 3.386043e-01 -4.071491e-01 1.439647e-01 -7.550069e-01 -4.582342e-02 -1.076657e+00 -2.312698e-01 -1.397391e+00 -4.145121e-01 -1.694031e+00 -5.704361e-01 -1.986971e+00 -7.335327e-01 -2.296334e+00 -8.767514e-01 -2.622330e+00 -1.061861e+00 -3.245421e+00 -1.593460e+00 -3.622720e+00 -1.399671e+00 -6.709563e+00 -6.834893e+00 -1.388921e+01 
-5.934316e+00 -7.007989e+00 -1.799651e+01 -2.439992e+01 -2.273896e+01 -1.508590e+01 -1.004638e+01 2.183023e-01 -2.914120e+00 2.050291e+00 1.502290e+00 3.236671e+00 2.331359e+00 3.689525e+00 2.584117e+00 3.768931e+00 2.598554e+00 3.536950e+00 2.644501e+00 3.099176e+00 2.627562e+00 2.706507e+00 2.485757e+00 2.345162e+00 2.266523e+00 2.031787e+00 2.064646e+00 1.699421e+00 1.817436e+00 1.486227e+00 1.453810e+00 1.349494e+00 1.049383e+00 1.144652e+00 7.637237e-01 8.860345e-01 6.051032e-01 5.273041e-01 5.175769e-01 1.450021e-01 4.289866e-01 -1.756150e-01 2.885974e-01 -4.670737e-01 1.572102e-01 -7.454620e-01 4.448403e-02 -1.012175e+00 -5.449108e-02 -1.242335e+00 -1.122601e-01 -1.457765e+00 -1.216672e-01 -1.642827e+00 -3.273269e-02 -1.699356e+00 1.661844e-01 -1.564536e+00 5.303764e-01 -1.794682e+00 7.009502e-01 -3.738695e+00 -2.590931e+00 -1.172009e+01 
-7.128098e+00 -1.180587e+01 -1.365191e+01 -2.572322e+01 -4.190917e+01 -1.547198e+01 -2.923198e+00 -2.051722e+00 1.448388e+00 1.197829e+00 2.838992e+00 3.274816e+00 3.948614e+00 3.842219e+00 3.775860e+00 3.963868e+00 3.481990e+00 3.737956e+00 3.278316e+00 3.303623e+00 3.106597e+00 2.858475e+00 2.879470e+00 2.468058e+00 2.596473e+00 2.129790e+00 2.297146e+00 1.812112e+00 1.959056e+00 1.562316e+00 1.560460e+00 1.354311e+00 1.151231e+00 1.104268e+00 8.288106e-01 7.841345e-01 6.112475e-01 3.913248e-01 4.463522e-01 -1.437679e-02 2.805172e-01 -3.910565e-01 8.916300e-02 -7.480588e-01 -1.071275e-01 -1.091205e+00 -3.017360e-01 -1.430389e+00 -4.912563e-01 -1.767218e+00 -6.693007e-01 -2.114543e+00 -8.422211e-01 -2.490486e+00 -1.005391e+00 -2.920650e+00 -1.160846e+00 -3.486542e+00 -1.320631e+00 -4.135427e+00 -1.696592e+00 -4.598308e+00 -5.909440e-01 -8.368720e+00 
2.720864e+00 -3.131698e+00 -5.767854e+00 -1.568634e+01 -1.139714e+01 -4.443695e+00 -6.299009e+00 2.513095e+00 -2.232270e+00 2.611732e+00 1.410339e+00 2.922074e+00 2.294483e+00 3.370625e+00 2.527389e+00 3.465272e+00 2.602638e+00 3.315972e+00 2.606551e+00 3.023476e+00 2.539431e+00 2.697364e+00 2.396567e+00 2.372491e+00 2.200612e+00 2.065285e+00 1.981885e+00 1.772558e+00 1.730730e+00 1.525421e+00 1.435763e+00 1.306174e+00 1.130963e+00 1.066405e+00 8.743477e-01 7.944053e-01 6.809637e-01 4.821108e-01 5.315186e-01 1.565581e-01 3.950396e-01 -1.509436e-01 2.523609e-01 -4.406362e-01 1.167230e-01 -7.164936e-01 -3.415269e-03 -9.780461e-01 -1.020260e-01 -1.219537e+00 -1.637316e-01 -1.443677e+00 -1.681547e-01 -1.640052e+00 -6.427119e-02 -1.771091e+00 2.638112e-01 -1.778881e+00 1.032889e+00 -1.557947e+00 1.887824e+00 -6.053375e-01 1.748984e+00 5.832776e-02 
-5.202319e+00 -7.875508e+00 -9.857654e+00 -1.993800e+01 -8.598429e+00 2.347830e+00 8.149042e-01 2.230166e+00 1.765874e+00 2.206199e+00 3.014475e+00 3.565923e+00 3.803523e+00 3.837951e+00 3.749484e+00 3.835982e+00 3.547490e+00 3.625207e+00 3.322966e+00 3.282661e+00 3.093109e+00 2.902635e+00 2.837643e+00 2.535048e+00 2.553060e+00 2.193631e+00 2.248255e+00 1.876273e+00 1.920585e+00 1.590090e+00 1.571425e+00 1.319169e+00 1.226016e+00 1.030014e+00 9.220474e-01 7.053011e-01 6.707824e-01 3.456872e-01 4.542203e-01 -2.708428e-02 2.482588e-01 -3.946394e-01 3.937795e-02 -7.548795e-01 -1.702639e-01 -1.110641e+00 -3.775966e-01 -1.468189e+00 -5.799466e-01 -1.834815e+00 -7.748901e-01 -2.223872e+00 -9.642664e-01 -2.655162e+00 -1.152374e+00 -3.151464e+00 -1.350353e+00 -3.704512e+00 -1.510121e+00 -4.055239e+00 -1.420821e+00 -3.825087e+00 -1.430929e+00 -4.358268e+00 
-2.439602e-01 -2.656249e+00 -3.793983e+00 -9.194847e+00 5.465030e-02 -4.109142e+00 -2.062617e+00 -2.692107e+00 -2.196798e+00 1.139217e+00 1.323064e+00 2.468615e+00 2.165741e+00 3.059167e+00 2.445654e+00 3.218483e+00 2.567400e+00 3.146674e+00 2.567479e+00 2.934365e+00 2.482586e+00 2.660903e+00 2.335193e+00 2.367955e+00 2.144373e+00 2.076188e+00 1.925980e+00 1.794208e+00 1.684127e+00 1.530865e+00 1.422773e+00 1.278407e+00 1.159734e+00 1.018710e+00 9.193149e-01 7.429634e-01 7.117025e-01 4.495022e-01 5.314130e-01 1.488776e-01 3.661178e-01 -1.459752e-01 2.076892e-01 -4.309192e-01 5.865747e-02 -7.054229e-01 -7.629495e-02 -9.688069e-01 -1.916367e-01 -1.220126e+00 -2.788326e-01 -1.461759e+00 -3.274754e-01 -1.698696e+00 -3.232494e-01 -1.949901e+00 -2.480751e-01 -2.265209e+00 -3.120446e-02 -2.462249e+00 6.656053e-01 -1.584094e+00 6.458019e-02 -1.533024e+00 
-2.477432e+00 -1.194297e+01 -6.607205e+00 -1.183991e+01 1.416639e+00 4.779204e+00 4.768248e+00 2.703850e+00 -2.110004e-01 2.434888e+00 3.432592e+00 4.033223e+00 3.582458e+00 3.916426e+00 3.674291e+00 3.810786e+00 3.543010e+00 3.581098e+00 3.323951e+00 3.268983e+00 3.077102e+00 2.921908e+00 2.809085e+00 2.571718e+00 2.521441e+00 2.232969e+00 2.218118e+00 1.909545e+00 1.901629e+00 1.601582e+00 1.577538e+00 1.299868e+00 1.259470e+00 9.893362e-01 9.637869e-01 6.605142e-01 6.967301e-01 3.130617e-01 4.520721e-01 -4.494490e-02 2.190406e-01 -4.054989e-01 -9.968293e-03 -7.661975e-01 -2.367076e-01 -1.128609e+00 -4.607006e-01 -1.497362e+00 -6.809261e-01 -1.879633e+00 -8.968931e-01 -2.286686e+00 -1.111017e+00 -2.735489e+00 -1.333099e+00 -3.254748e+00 -1.603135e+00 -3.919909e+00 -2.079546e+00 -4.927858e+00 -2.735324e+00 -5.222608e+00 -2.560678e+00 -4.834783e+00 
-3.228309e+00 -1.007304e+01 -3.857741e+00 -7.054570e+00 -3.771210e+00 3.339264e+00 1.065045e+00 2.799078e+00 1.580128e+00 1.341110e+00 4.938570e-01 2.674410e+00 2.246123e+00 3.074398e+00 2.499146e+00 3.118629e+00 2.572658e+00 3.045939e+00 2.548761e+00 2.864585e+00 2.448175e+00 2.620481e+00 2.293843e+00 2.348700e+00 2.102694e+00 2.069086e+00 1.886634e+00 1.791676e+00 1.652832e+00 1.521192e+00 1.408059e+00 1.254817e+00 1.162954e+00 9.854177e-01 9.293829e-01 7.083709e-01 7.136775e-01 4.231505e-01 5.150921e-01 1.341585e-01 3.290976e-01 -1.527832e-01 1.521844e-01 -4.343710e-01 -1.543708e-02 -7.093070e-01 -1.716017e-01 -9.771949e-01 -3.131467e-01 -1.238688e+00 -4.361710e-01 -1.497288e+00 -5.379447e-01 -1.762668e+00 -6.228880e-01 -2.061570e+00 -7.284581e-01 -2.456993e+00 -1.040157e+00 -3.160814e+00 -2.460604e+00 -4.527251e+00 -1.525677e+00 -3.714130e+00 
-8.423704e+00 -9.543687e+00 -4.425102e+00 -8.528696e+00 -5.294342e+00 5.393699e+00 4.110254e+00 4.147928e+00 3.055740e+00 3.930928e+00 2.214591e+00 3.177723e+00 3.328940e+00 3.866700e+00 3.616462e+00 3.825512e+00 3.512309e+00 3.575837e+00 3.305726e+00 3.266673e+00 3.057926e+00 2.932172e+00 2.786139e+00 2.591283e+00 2.497507e+00 2.254599e+00 2.196814e+00 1.926197e+00 1.888100e+00 1.605689e+00 1.576695e+00 1.288004e+00 1.270440e+00 9.657235e-01 9.772695e-01 6.335865e-01 7.006474e-01 2.906135e-01 4.383970e-01 -6.044919e-02 1.855195e-01 -4.163729e-01 -6.240151e-02 -7.760047e-01 -3.076576e-01 -1.140543e+00 -5.512068e-01 -1.513317e+00 -7.937146e-01 -1.899532e+00 -1.036863e+00 -2.306440e+00 -1.286117e+00 -2.743744e+00 -1.558196e+00 -3.225919e+00 -1.906359e+00 -3.776478e+00 -2.498984e+00 -4.400290e+00 -3.744194e+00 -5.967084e+00 -3.893299e+00 -7.198552e+00 
-6.454444e+00 -4.488218e+00 -3.020537e+00 -5.354996e+00 -3.750572e+00 3.074622e+00 2.376296e+00 3.141274e+00 2.329438e+00 3.156954e+00 2.341319e+00 2.824226e+00 1.932077e+00 2.843241e+00 2.399476e+00 3.086384e+00 2.580156e+00 3.012552e+00 2.546021e+00 2.824474e+00 2.429944e+00 2.586805e+00 2.267193e+00 2.324458e+00 2.073087e+00 2.051805e+00 1.857609e+00 1.777046e+00 1.627949e+00 1.503873e+00 1.390476e+00 1.231835e+00 1.152169e+00 9.582122e-01 9.196858e-01 6.808557e-01 6.970557e-01 3.995200e-01 4.849223e-01 1.160954e-01 2.817913e-01 -1.667266e-01 8.608036e-02 -4.470271e-01 -1.026077e-01 -7.239841e-01 -2.837406e-01 -9.977464e-01 -4.563881e-01 -1.269590e+00 -6.198614e-01 -1.542426e+00 -7.751879e-01 -1.821102e+00 -9.286151e-01 -2.112240e+00 -1.103189e+00 -2.424875e+00 -1.384786e+00 -2.800850e+00 -1.916240e+00 -3.965442e+00 -3.027552e+00 -6.835918e+00 
-2.681807e+00 -5.277733e+00 -4.237021e+00 -7.074577e+00 -4.807661e+00 5.233738e+00 4.144786e+00 4.630358e+00 3.620405e+00 4.276096e+00 3.318932e+00 3.961082e+00 3.350599e+00 3.758277e+00 3.501191e+00 3.739763e+00 3.476664e+00 3.547373e+00 3.287451e+00 3.256847e+00 3.039354e+00 2.932721e+00 2.765760e+00 2.598314e+00 2.476983e+00 2.263550e+00 2.178458e+00 1.932449e+00 1.874420e+00 1.605246e+00 1.569205e+00 1.279334e+00 1.267620e+00 9.508289e-01 9.738910e-01 6.166492e-01 6.899666e-01 2.756543e-01 4.150074e-01 -7.156445e-02 1.464401e-01 -4.240033e-01 -1.185517e-01 -7.814794e-01 -3.821905e-01 -1.145089e+00 -6.462209e-01 -1.517221e+00 -9.124432e-01 -1.901327e+00 -1.183439e+00 -2.301448e+00 -1.463342e+00 -2.721036e+00 -1.757751e+00 -3.160739e+00 -2.068825e+00 -3.618199e+00 -2.370249e+00 -4.112384e+00 -2.622320e+00 -5.009373e+00 -3.715532e+00 -7.051395e+00 
-2.391294e+00 -4.134614e+00 -3.998424e+00 -5.098085e+00 -5.428880e+00 3.877558e+00 3.101740e+00 3.631156e+00 2.896657e+00 3.467623e+00 2.774897e+00 3.296723e+00 2.625808e+00 3.151423e+00 2.570144e+00 3.060935e+00 2.574893e+00 2.956850e+00 2.533310e+00 2.781804e+00 2.417033e+00 2.553282e+00 2.250142e+00 2.297189e+00 2.052420e+00 2.028790e+00 1.835379e+00 1.755979e+00 1.606279e+00 1.482288e+00 1.370627e+00 1.208356e+00 1.133295e+00 9.333130e-01 8.983989e-01 6.562314e-01 6.685559e-01 3.769548e-01 4.445906e-01 9.624889e-02 2.260254e-01 -1.847351e-01 1.194574e-02 -4.651818e-01 -1.984091e-01 -7.450100e-01 -4.056577e-01 -1.025093e+00 -6.106236e-01 -1.307588e+00 -8.149171e-01 -1.596550e+00 -1.021830e+00 -1.899198e+00 -1.237160e+00 -2.229024e+00 -1.465768e+00 -2.607144e+00 -1.679754e+00 -3.046184e+00 -1.876319e+00 -3.747406e+00 -2.977452e+00 -4.809393e+00 
-3.381073e+00 -5.460872e+00 -4.750019e+00 -5.729343e+00 -6.035150e+00 5.312015e+00 4.368928e+00 4.895177e+00 4.006884e+00 4.536497e+00 3.745057e+00 4.240382e+00 3.630601e+00 3.994691e+00 3.555373e+00 3.763362e+00 3.437477e+00 3.521594e+00 3.254036e+00 3.238448e+00 3.014431e+00 2.923736e+00 2.743611e+00 2.595148e+00 2.456184e+00 2.262815e+00 2.159548e+00 1.931150e+00 1.858257e+00 1.601108e+00 1.555892e+00 1.271521e+00 1.255613e+00 9.402878e-01 9.598400e-01 6.055002e-01 6.696521e-01 2.660912e-01 3.845825e-01 -7.819690e-02 1.030393e-01 -4.273674e-01 -1.770421e-01 -7.817837e-01 -4.577784e-01 -1.142524e+00 -7.413364e-01 -1.511509e+00 -1.030227e+00 -1.891515e+00 -1.327751e+00 -2.286269e+00 -1.638347e+00 -2.701030e+00 -1.966430e+00 -3.143962e+00 -2.305212e+00 -3.619030e+00 -2.597591e+00 -4.095602e+00 -2.836454e+00 -4.682276e+00 -3.510257e+00 -5.392043e+00 
-3.335536e+00 -4.200389e+00 -4.499320e+00 -4.318441e+00 -5.747554e+00 4.309422e+00 3.619764e+00 4.007423e+00 3.350621e+00 3.766278e+00 3.141629e+00 3.547514e+00 2.961457e+00 3.344067e+00 2.826024e+00 3.160516e+00 2.705386e+00 2.971203e+00 2.580280e+00 2.762270e+00 2.428983e+00 2.526054e+00 2.246453e+00 2.269797e+00 2.040340e+00 2.002897e+00 1.818605e+00 1.731386e+00 1.586983e+00 1.458192e+00 1.349668e+00 1.184197e+00 1.109998e+00 9.092240e-01 8.705660e-01 6.328617e-01 6.330130e-01 3.549612e-01 3.979256e-01 7.574180e-02 1.650223e-01 -2.044504e-01 -6.649868e-02 -4.855293e-01 -2.977159e-01 -7.680166e-01 -5.300089e-01 -1.053381e+00 -7.653152e-01 -1.344523e+00 -1.006559e+00 -1.646599e+00 -1.258065e+00 -1.968204e+00 -1.524684e+00 -2.320352e+00 -1.803466e+00 -2.700293e+00 -2.067225e+00 -3.081973e+00 -2.369002e+00 -3.551833e+00 -3.029837e+00 -4.031284e+00 
-4.143258e+00 -5.118057e+00 -5.052881e+00 -5.172966e+00 -6.087582e+00 5.468778e+00 4.627432e+00 5.102928e+00 4.308386e+00 4.753073e+00 4.040852e+00 4.429407e+00 3.832858e+00 4.127293e+00 3.649041e+00 3.833803e+00 3.457985e+00 3.537873e+00 3.240891e+00 3.231704e+00 2.992633e+00 2.912592e+00 2.720533e+00 2.585233e+00 2.433710e+00 2.254705e+00 2.138458e+00 1.923877e+00 1.838840e+00 1.593581e+00 1.537727e+00 1.263275e+00 1.237280e+00 9.317474e-01 9.389460e-01 5.977546e-01 6.432719e-01 2.603898e-01 3.498397e-01 -8.088396e-02 5.744511e-02 -4.264726e-01 -2.356140e-01 -7.769675e-01 -5.313320e-01 -1.133390e+00 -8.319684e-01 -1.497352e+00 -1.140149e+00 -1.871187e+00 -1.458903e+00 -2.258138e+00 -1.791019e+00 -2.662331e+00 -2.135500e+00 -3.086240e+00 -2.477126e+00 -3.520308e+00 -2.790988e+00 -3.952427e+00 -3.141924e+00 -4.413963e+00 -3.688314e+00 -4.854418e+00 
-4.000758e+00 -4.005376e+00 -4.840780e+00 -4.094945e+00 -5.843656e+00 4.639316e+00 4.031374e+00 4.318456e+00 3.732906e+00 4.034481e+00 3.477415e+00 3.765861e+00 3.244660e+00 3.501269e+00 3.035461e+00 3.251717e+00 2.845873e+00 3.009046e+00 2.658479e+00 2.762246e+00 2.463522e+00 2.507068e+00 2.255990e+00 2.243961e+00 2.036138e+00 1.975715e+00 1.806568e+00 1.704810e+00 1.570019e+00 1.432618e+00 1.328823e+00 1.159572e+00 1.084900e+00 8.855612e-01 8.397156e-01 6.103227e-01 5.941583e-01 3.336793e-01 3.484607e-01 5.558432e-02 1.022408e-01 -2.240135e-01 -1.453826e-01 -5.054053e-01 -3.957124e-01 -7.893849e-01 -6.505082e-01 -1.077530e+00 -9.121196e-01 -1.372518e+00 -1.183601e+00 -1.678347e+00 -1.468400e+00 -1.999623e+00 -1.768375e+00 -2.337098e+00 -2.079247e+00 -2.679960e+00 -2.401232e+00 -3.029618e+00 -2.802183e+00 -3.411839e+00 -3.383385e+00 -3.775166e+00 
-4.561932e+00 -4.794752e+00 -5.284910e+00 -4.932485e+00 -6.144596e+00 5.646377e+00 4.872961e+00 5.294299e+00 4.563554e+00 4.944183e+00 4.281013e+00 4.594162e+00 4.012589e+00 4.235382e+00 3.742947e+00 3.884210e+00 3.488784e+00 3.550129e+00 3.236591e+00 3.223179e+00 2.973036e+00 2.896563e+00 2.696126e+00 2.568691e+00 2.408821e+00 2.240069e+00 2.114594e+00 1.911390e+00 1.816230e+00 1.582815e+00 1.515792e+00 1.253925e+00 1.214736e+00 9.239433e-01 9.139286e-01 5.920270e-01 6.135840e-01 2.574625e-01 3.132520e-01 -8.030035e-02 1.189820e-02 -4.217513e-01 -2.919602e-01 -7.674816e-01 -6.001385e-01 -1.118329e+00 -9.147165e-01 -1.475472e+00 -1.237952e+00 -1.840447e+00 -1.571949e+00 -2.214949e+00 -1.917528e+00 -2.599898e+00 -2.271561e+00 -2.992952e+00 -2.625820e+00 -3.388514e+00 -2.987490e+00 -3.792261e+00 -3.417437e+00 -4.185922e+00 -3.962794e+00 -4.542201e+00 
-4.386512e+00 -3.851307e+00 -5.112493e+00 -4.018913e+00 -5.970555e+00 4.919679e+00 4.377971e+00 4.591723e+00 4.070957e+00 4.285372e+00 3.792613e+00 3.978027e+00 3.513492e+00 3.648487e+00 3.224591e+00 3.327895e+00 2.967356e+00 3.035758e+00 2.730940e+00 2.758219e+00 2.500652e+00 2.486294e+00 2.269979e+00 2.216277e+00 2.036014e+00 1.946600e+00 1.797756e+00 1.676650e+00 1.555275e+00 1.406148e+00 1.309128e+00 1.134844e+00 1.060015e+00 8.624639e-01 8.085295e-01 5.887518e-01 5.549777e-01 3.135203e-01 2.992582e-01 3.663000e-02 4.082285e-02 -2.421056e-01 -2.213144e-01 -5.230670e-01 -4.885686e-01 -8.069877e-01 -7.628041e-01 -1.095089e+00 -1.046357e+00 -1.389107e+00 -1.341948e+00 -1.690968e+00 -1.652220e+00 -2.001524e+00 -1.978734e+00 -2.318233e+00 -2.322850e+00 -2.637563e+00 -2.700248e+00 -2.970153e+00 -3.160441e+00 -3.304846e+00 -3.731807e+00 -3.615584e+00 
-4.798057e+00 -4.565581e+00 -5.457198e+00 -4.779937e+00 -6.211897e+00 5.834038e+00 5.094485e+00 5.483242e+00 4.793956e+00 5.134925e+00 4.509705e+00 4.766418e+00 4.199625e+00 4.336188e+00 3.824836e+00 3.907473e+00 3.504238e+00 3.536008e+00 3.222037e+00 3.196379e+00 2.947055e+00 2.868045e+00 2.667183e+00 2.542951e+00 2.380405e+00 2.218484e+00 2.087790e+00 1.893909e+00 1.790953e+00 1.568934e+00 1.491288e+00 1.243210e+00 1.189781e+00 9.162530e-01 8.869552e-01 5.875331e-01 5.828379e-01 2.565587e-01 2.769589e-01 -7.709511e-02 -3.160709e-02 -4.138258e-01 -3.441653e-01 -7.540751e-01 -6.623149e-01 -1.098388e+00 -9.878494e-01 -1.447415e+00 -1.322581e+00 -1.801801e+00 -1.667957e+00 -2.161827e+00 -2.024344e+00 -2.526722e+00 -2.390548e+00 -2.894434e+00 -2.767377e+00 -3.265418e+00 -3.172723e+00 -3.643391e+00 -3.645246e+00 -3.993697e+00 -4.192088e+00 -4.306937e+00 
-4.637611e+00 -3.752877e+00 -5.315823e+00 -3.979466e+00 -6.083334e+00 5.175747e+00 4.675113e+00 4.843185e+00 4.380089e+00 4.536690e+00 4.111519e+00 4.214113e+00 3.802986e+00 3.792915e+00 3.386090e+00 3.369887e+00 3.050147e+00 3.027471e+00 2.774668e+00 2.730097e+00 2.522607e+00 2.451730e+00 2.278175e+00 2.181250e+00 2.035022e+00 1.913694e+00 1.790234e+00 1.646707e+00 1.542521e+00 1.379156e+00 1.291445e+00 1.110467e+00 1.036967e+00 8.403185e-01 7.791374e-01 5.685187e-01 5.178790e-01 2.949454e-01 2.528502e-01 1.949714e-02 -1.663211e-02 -2.579748e-01 -2.916256e-01 -5.377488e-01 -5.735777e-01 -8.203019e-01 -8.643339e-01 -1.106322e+00 -1.166119e+00 -1.396581e+00 -1.481442e+00 -1.691547e+00 -1.812922e+00 -1.990716e+00 -2.163439e+00 -2.292688e+00 -2.538860e+00 -2.599180e+00 -2.957081e+00 -2.916365e+00 -3.445688e+00 -3.221528e+00 -4.006840e+00 -3.504548e+00 
-4.951899e+00 -4.399941e+00 -5.579467e+00 -4.661479e+00 -6.269756e+00 6.027217e+00 5.282390e+00 5.669527e+00 5.007751e+00 5.344420e+00 4.765099e+00 4.997105e+00 4.454539e+00 4.433906e+00 3.855698e+00 3.867417e+00 3.466150e+00 3.469713e+00 3.176136e+00 3.137111e+00 2.905122e+00 2.820387e+00 2.630122e+00 2.505586e+00 2.347564e+00 2.189507e+00 2.058335e+00 1.871699e+00 1.763925e+00 1.552251e+00 1.465570e+00 1.231211e+00 1.164094e+00 9.084866e-01 8.598908e-01 5.838840e-01 5.529275e-01 2.571794e-01 2.427592e-01 -7.184657e-02 -7.143642e-02 -4.034063e-01 -3.908053e-01 -7.377197e-01 -7.167465e-01 -1.075015e+00 -1.050816e+00 -1.415480e+00 -1.394578e+00 -1.759132e+00 -1.749394e+00 -2.105588e+00 -2.116307e+00 -2.453965e+00 -2.496794e+00 -2.803748e+00 -2.896483e+00 -3.157071e+00 -3.332239e+00 -3.511363e+00 -3.823252e+00 -3.834507e+00 -4.363795e+00 -4.128647e+00 
-4.821125e+00 -3.690882e+00 -5.468360e+00 -3.952208e+00 -6.177992e+00 5.411957e+00 4.915396e+00 5.068244e+00 4.659359e+00 4.801301e+00 4.467223e+00 4.546295e+00 4.200179e+00 3.930281e+00 3.457278e+00 3.315041e+00 3.042011e+00 2.944625e+00 2.763124e+00 2.658471e+00 2.516295e+00 2.394534e+00 2.274089e+00 2.135365e+00 2.030221e+00 1.876076e+00 1.783037e+00 1.615188e+00 1.531940e+00 1.352226e+00 1.276683e+00 1.087051e+00 1.017161e+00 8.196534e-01 7.532730e-01 5.500719e-01 4.847880e-01 2.783593e-01 2.112469e-01 4.554298e-03 -6.810416e-02 -2.713508e-01 -3.543524e-01 -5.494414e-01 -6.489401e-01 -8.298921e-01 -9.536742e-01 -1.112927e+00 -1.270722e+00 -1.398697e+00 -1.602606e+00 -1.687076e+00 -1.952302e+00 -1.977611e+00 -2.323880e+00 -2.270396e+00 -2.724749e+00 -2.568198e+00 -3.168963e+00 -2.871380e+00 -3.668029e+00 -3.158931e+00 -4.217178e+00 -3.430709e+00 
-5.061995e+00 -4.274261e+00 -5.668221e+00 -4.562291e+00 -6.318888e+00 6.207865e+00 5.409558e+00 5.823080e+00 5.183247e+00 5.570616e+00 5.072701e+00 5.415359e+00 4.927689e+00 4.475403e+00 3.642859e+00 3.633835e+00 3.292326e+00 3.306305e+00 3.076761e+00 3.033987e+00 2.842277e+00 2.751384e+00 2.584383e+00 2.456845e+00 2.311023e+00 2.154049e+00 2.027410e+00 1.845720e+00 1.736540e+00 1.533518e+00 1.440172e+00 1.218380e+00 1.139306e+00 9.007917e-01 8.343992e-01 5.809757e-01 5.254674e-01 2.590207e-01 2.121388e-01 -6.504292e-02 -1.062999e-01 -3.912042e-01 -4.308577e-01 -7.194501e-01 -7.627849e-01 -1.049739e+00 -1.103510e+00 -1.381950e+00 -1.454570e+00 -1.715802e+00 -1.817597e+00 -2.050810e+00 -2.194544e+00 -2.386495e+00 -2.588644e+00 -2.723177e+00 -3.006749e+00 -3.062126e+00 -3.460989e+00 -3.396968e+00 -3.958088e+00 -3.704197e+00 -4.490662e+00 -3.992243e+00 
-4.962307e+00 -3.651298e+00 -5.586384e+00 -3.931471e+00 -6.258354e+00 5.599180e+00 5.062202e+00 5.213644e+00 4.859461e+00 5.041853e+00 4.825414e+00 5.154416e+00 4.808926e+00 3.873566e+00 3.053473e+00 2.932041e+00 2.817557e+00 2.721534e+00 2.670689e+00 2.530888e+00 2.479695e+00 2.314765e+00 2.259257e+00 2.080606e+00 2.023018e+00 1.835583e+00 1.777273e+00 1.583553e+00 1.524586e+00 1.326485e+00 1.265988e+00 1.065452e+00 1.001888e+00 8.011016e-01 7.323587e-01 5.338711e-01 4.572105e-01 2.640789e-01 1.759781e-01 -8.032974e-03 -1.121018e-01 -2.822848e-01 -4.081133e-01 -5.585524e-01 -7.134804e-01 -8.367515e-01 -1.029987e+00 -1.116800e+00 -1.359805e+00 -1.398557e+00 -1.705564e+00 -1.681806e+00 -2.070568e+00 -1.966458e+00 -2.459385e+00 -2.253269e+00 -2.878972e+00 -2.544133e+00 -3.338343e+00 -2.836047e+00 -3.839723e+00 -3.113716e+00 -4.378522e+00 -3.382433e+00 
-5.142999e+00 -4.173996e+00 -5.734656e+00 -4.476503e+00 -6.361562e+00 6.288638e+00 5.422773e+00 5.838292e+00 5.216333e+00 5.681646e+00 5.213789e+00 6.211927e+00 5.608778e+00 3.738668e+00 2.135106e+00 2.717846e+00 2.858381e+00 3.010436e+00 2.935664e+00 2.897411e+00 2.770244e+00 2.669360e+00 2.535913e+00 2.401708e+00 2.274128e+00 2.115209e+00 1.997339e+00 1.817996e+00 1.710694e+00 1.514058e+00 1.416789e+00 1.205529e+00 1.116997e+00 8.935888e-01 8.119633e-01 5.789179e-01 5.018213e-01 2.619354e-01 1.863033e-01 -5.706703e-02 -1.351960e-01 -3.778535e-01 -4.635740e-01 -7.002020e-01 -7.999860e-01 -1.023872e+00 -1.145823e+00 -1.348573e+00 -1.502718e+00 -1.673947e+00 -1.872651e+00 -1.999624e+00 -2.258248e+00 -2.325457e+00 -2.663494e+00 -2.651881e+00 -3.094684e+00 -2.978858e+00 -3.559280e+00 -3.299001e+00 -4.057399e+00 -3.597084e+00 -4.583454e+00 -3.884259e+00 
-5.072006e+00 -3.625060e+00 -5.679613e+00 -3.914944e+00 -6.327753e+00 5.520057e+00 5.052978e+00 5.122051e+00 4.853262e+00 4.974049e+00 4.812850e+00 5.406443e+00 4.811049e+00 1.749274e+00 1.112718e+00 1.765083e+00 2.330406e+00 2.358186e+00 2.546465e+00 2.381776e+00 2.442891e+00 2.232484e+00 2.247361e+00 2.026902e+00 2.019576e+00 1.797263e+00 1.776004e+00 1.554576e+00 1.522265e+00 1.303588e+00 1.260686e+00 1.046717e+00 9.923101e-01 7.853458e-01 7.175205e-01 5.203491e-01 4.362654e-01 2.523365e-01 1.481392e-01 -1.823234e-02 -1.475917e-01 -2.909883e-01 -4.519880e-01 -5.656207e-01 -7.664503e-01 -8.418546e-01 -1.092748e+00 -1.119433e+00 -1.433075e+00 -1.398118e+00 -1.790148e+00 -1.677758e+00 -2.167421e+00 -1.958509e+00 -2.569419e+00 -2.241160e+00 -3.001900e+00 -2.526435e+00 -3.469767e+00 -2.810078e+00 -3.970693e+00 -3.082144e+00 -4.501888e+00 -3.350581e+00 
-5.201152e+00 -4.089808e+00 -5.784466e+00 -4.400499e+00 -6.401623e+00 5.673060e+00 5.285898e+00 5.524856e+00 4.999556e+00 5.178450e+00 4.575363e+00 4.352880e+00 2.413148e+00 1.479598e+00 3.153883e+00 3.259936e+00 3.195653e+00 2.994212e+00 2.934149e+00 2.805197e+00 2.724500e+00 2.595983e+00 2.495136e+00 2.349384e+00 2.241718e+00 2.077893e+00 1.971107e+00 1.791408e+00 1.688531e+00 1.495636e+00 1.397125e+00 1.193732e+00 1.098617e+00 8.874822e-01 7.938533e-01 5.779646e-01 4.831005e-01 2.658955e-01 1.661965e-01 -4.819406e-02 -1.573662e-01 -3.638656e-01 -4.883975e-01 -6.807238e-01 -8.279933e-01 -9.983893e-01 -1.177547e+00 -1.316490e+00 -1.538809e+00 -1.634681e+00 -1.914024e+00 -1.952727e+00 -2.306201e+00 -2.270651e+00 -2.719468e+00 -2.588719e+00 -3.159107e+00 -2.905976e+00 -3.629235e+00 -3.215435e+00 -4.126929e+00 -3.507793e+00 -4.648693e+00 -3.795185e+00 
-5.155651e+00 -3.606504e+00 -5.752662e+00 -3.900927e+00 -6.389301e+00 4.668573e+00 4.940703e+00 4.772076e+00 4.565398e+00 4.278954e+00 3.969259e+00 2.993494e+00 1.452900e+00 1.471133e+00 3.997602e+00 3.271096e+00 3.170658e+00 2.595146e+00 2.710276e+00 2.364461e+00 2.471731e+00 2.185941e+00 2.255443e+00 1.987225e+00 2.026201e+00 1.766903e+00 1.782329e+00 1.531285e+00 1.526764e+00 1.285262e+00 1.261955e+00 1.031886e+00 9.893349e-01 7.730215e-01 7.095519e-01 5.098745e-01 4.226949e-01 2.432906e-01 1.284297e-01 -2.608394e-02 -1.739370e-01 -2.977184e-01 -4.854341e-01 -5.711534e-01 -8.074323e-01 -8.459806e-01 -1.141678e+00 -1.121844e+00 -1.490360e+00 -1.398475e+00 -1.856221e+00 -1.675787e+00 -2.242711e+00 -1.954023e+00 -2.654097e+00 -2.233773e+00 -3.095006e+00 -2.514880e+00 -3.567700e+00 -2.792790e+00 -4.067847e+00 -3.061178e+00 -4.594139e+00 -3.329339e+00 
-5.238740e+00 -4.015375e+00 -5.817079e+00 -4.330031e+00 -6.427123e+00 5.563904e+00 5.182701e+00 5.394724e+00 4.811985e+00 4.772645e+00 4.391156e+00 3.982489e+00 3.004089e+00 3.334355e+00 4.565944e+00 3.838786e+00 3.339427e+00 2.855062e+00 2.875565e+00 2.715681e+00 2.676137e+00 2.536497e+00 2.461675e+00 2.307342e+00 2.217011e+00 2.047015e+00 1.951432e+00 1.768918e+00 1.672032e+00 1.480063e+00 1.382677e+00 1.184110e+00 1.085365e+00 8.831306e-01 7.810704e-01 5.784339e-01 4.701446e-01 2.709465e-01 1.525059e-01 -3.860946e-02 -1.722754e-01 -3.496276e-01 -5.049400e-01 -6.615736e-01 -8.465371e-01 -9.739679e-01 -1.198459e+00 -1.286393e+00 -1.562525e+00 -1.598533e+00 -1.941131e+00 -1.910250e+00 -2.337451e+00 -2.221650e+00 -2.755564e+00 -2.532865e+00 -3.199982e+00 -2.842513e+00 -3.672947e+00 -3.144259e+00 -4.170300e+00 -3.432214e+00 -4.689909e+00 -3.718895e+00 