# vtk DataFile Version 2.0
Comment goes here
ASCII

DATASET STRUCTURED_POINTS
DIMENSIONS    64   64   1

ORIGIN    0.000   0.000   0.000
SPACING   0.0156250.015625   1.000

POINT_DATA   4096
VECTORS u double

-0.280040 -0.188107 1.000000 -0.478634 -0.218545 1.000000 -1.042708 -0.428234 1.000000 -1.650724 -1.032936 1.000000 -2.605732 -0.054433 1.000000 -2.143244 0.633126 1.000000 -1.839301 0.479832 1.000000 -0.731541 0.443145 1.000000 -1.089939 0.596430 1.000000 -0.410630 0.336473 1.000000 -0.529683 0.245846 1.000000 -0.169587 0.262688 1.000000 -0.235127 0.128158 1.000000 -0.001358 0.169468 1.000000 -0.051047 0.082053 1.000000 0.112887 0.109661 1.000000 0.073472 0.058642 1.000000 0.192129 0.072011 1.000000 0.162313 0.044934 1.000000 0.248075 0.048345 1.000000 0.227812 0.035414 1.000000 0.288418 0.033939 1.000000 0.276774 0.027576 1.000000 0.318041 0.025830 1.000000 0.313350 0.019608 1.000000 0.341101 0.022155 1.000000 0.339927 0.011167 1.000000 0.360998 0.021448 1.000000 0.357150 0.003779 1.000000 0.379706 0.020431 1.000000 0.366750 0.001150 1.000000 0.394403 0.014888 1.000000 0.375345 0.003291 1.000000 0.400602 0.007874 1.000000 0.385992 0.003147 1.000000 0.402537 0.006347 1.000000 0.391405 -0.000946 1.000000 0.406244 0.005961 1.000000 0.391294 -0.001980 1.000000 0.405702 0.002582 1.000000 0.391017 -0.003697 1.000000 0.402690 0.000828 1.000000 0.386276 -0.005738 1.000000 0.397702 -0.003220 1.000000 0.380868 -0.005673 1.000000 0.385528 -0.006184 1.000000 0.371568 -0.009487 1.000000 0.371429 -0.009647 1.000000 0.358491 -0.012929 1.000000 0.350947 -0.012945 1.000000 0.338798 -0.018847 1.000000 0.324817 -0.017976 1.000000 0.311343 -0.025999 1.000000 0.288967 -0.026080 1.000000 0.273945 -0.036625 1.000000 0.240420 -0.038825 1.000000 0.222073 -0.053222 1.000000 0.172951 -0.059696 1.000000 0.145831 -0.084347 1.000000 0.084512 -0.105416 1.000000 0.053396 -0.135386 1.000000 -0.019228 -0.168417 1.000000 -0.069377 -0.191872 1.000000 -0.155631 -0.229084 1.000000 
-0.478259 -0.420938 1.000000 -0.728833 -0.410796 1.000000 -0.791943 -0.359983 1.000000 -1.507463 0.006370 1.000000 -2.051090 0.109327 1.000000 -2.295397 0.890642 1.000000 -1.585252 0.319314 1.000000 -1.549866 0.219251 1.000000 -0.959570 0.494328 1.000000 -0.659654 0.126736 1.000000 -0.552635 0.276280 1.000000 -0.255375 0.128113 1.000000 -0.246813 0.174565 1.000000 -0.036705 0.089361 1.000000 -0.053409 0.121225 1.000000 0.097980 0.057508 1.000000 0.074805 0.088862 1.000000 0.186263 0.035185 1.000000 0.165297 0.068090 1.000000 0.246325 0.021113 1.000000 0.231664 0.053165 1.000000 0.288572 0.013461 1.000000 0.281156 0.041305 1.000000 0.318537 0.010324 1.000000 0.318178 0.029824 1.000000 0.341450 0.010533 1.000000 0.345112 0.017917 1.000000 0.362021 0.013637 1.000000 0.361177 0.007093 1.000000 0.383793 0.015876 1.000000 0.367153 0.003412 1.000000 0.401649 0.009815 1.000000 0.374060 0.007836 1.000000 0.406623 0.000457 1.000000 0.387438 0.007553 1.000000 0.406248 0.001504 1.000000 0.393010 -0.000419 1.000000 0.411933 0.003687 1.000000 0.390650 -0.000876 1.000000 0.410723 -0.001012 1.000000 0.391222 -0.003384 1.000000 0.407174 -0.001147 1.000000 0.384736 -0.006735 1.000000 0.403254 -0.006681 1.000000 0.379575 -0.004583 1.000000 0.388216 -0.009241 1.000000 0.369211 -0.010676 1.000000 0.373899 -0.013158 1.000000 0.355232 -0.014013 1.000000 0.350878 -0.015776 1.000000 0.333071 -0.021773 1.000000 0.322197 -0.020718 1.000000 0.301469 -0.029796 1.000000 0.281036 -0.029098 1.000000 0.257498 -0.042236 1.000000 0.222686 -0.041743 1.000000 0.194163 -0.060311 1.000000 0.133856 -0.059458 1.000000 0.090178 -0.097459 1.000000 0.008758 -0.114964 1.000000 -0.038080 -0.172836 1.000000 -0.158294 -0.197580 1.000000 -0.221042 -0.277559 1.000000 -0.404345 -0.316052 1.000000 
-0.416875 0.136380 1.000000 -0.590191 0.095140 1.000000 -0.814987 0.350396 1.000000 -1.039308 0.226211 1.000000 -1.209285 0.733501 1.000000 -1.125600 0.167288 1.000000 -0.717244 -0.265699 1.000000 -1.007247 -0.182537 1.000000 -0.473458 -0.293782 1.000000 -0.529057 -0.070462 1.000000 -0.311855 -0.158432 1.000000 -0.275847 -0.043134 1.000000 -0.158226 -0.090512 1.000000 -0.118711 -0.023936 1.000000 -0.053261 -0.052631 1.000000 -0.014274 -0.018553 1.000000 0.017104 -0.029641 1.000000 0.056133 -0.018482 1.000000 0.065822 -0.015128 1.000000 0.104943 -0.018021 1.000000 0.099191 -0.006834 1.000000 0.141794 -0.015553 1.000000 0.121746 -0.002389 1.000000 0.170655 -0.011191 1.000000 0.136716 -0.003305 1.000000 0.193311 -0.004779 1.000000 0.148650 -0.009405 1.000000 0.207653 0.005383 1.000000 0.161640 -0.017993 1.000000 0.214226 0.014455 1.000000 0.175602 -0.016706 1.000000 0.215849 0.007981 1.000000 0.188286 -0.001683 1.000000 0.216626 -0.005503 1.000000 0.196477 0.003522 1.000000 0.217148 0.000774 1.000000 0.201407 -0.006632 1.000000 0.217437 0.008321 1.000000 0.203345 -0.000770 1.000000 0.218176 0.002010 1.000000 0.201768 -0.000148 1.000000 0.217516 0.007314 1.000000 0.198978 -0.001819 1.000000 0.213570 0.001941 1.000000 0.197176 0.009366 1.000000 0.204573 0.004179 1.000000 0.194628 0.004829 1.000000 0.193667 0.004332 1.000000 0.187028 0.010092 1.000000 0.180884 0.009216 1.000000 0.175912 0.009834 1.000000 0.164454 0.013626 1.000000 0.158220 0.015162 1.000000 0.144118 0.017891 1.000000 0.134943 0.021725 1.000000 0.111949 0.024510 1.000000 0.105471 0.035608 1.000000 0.068898 0.044288 1.000000 0.056895 0.040751 1.000000 0.015145 0.022842 1.000000 -0.025819 0.031667 1.000000 -0.120123 0.014546 1.000000 -0.180484 0.054179 1.000000 -0.304198 0.028133 1.000000 
-0.403483 -0.134945 1.000000 -0.456520 -0.012684 1.000000 -0.501946 0.089134 1.000000 -0.271792 0.400668 1.000000 -0.144600 0.195619 1.000000 0.656442 0.398601 1.000000 0.890281 0.200961 1.000000 0.503702 -0.024535 1.000000 0.571274 0.016137 1.000000 0.097954 -0.034868 1.000000 0.365351 0.023070 1.000000 -0.055525 -0.025516 1.000000 0.201049 0.017428 1.000000 -0.110797 -0.015604 1.000000 0.090517 0.016789 1.000000 -0.124335 -0.012857 1.000000 0.012008 0.018455 1.000000 -0.120387 -0.013533 1.000000 -0.048444 0.019279 1.000000 -0.107898 -0.012257 1.000000 -0.098549 0.016314 1.000000 -0.089138 -0.009094 1.000000 -0.140602 0.012444 1.000000 -0.066979 -0.004646 1.000000 -0.174566 0.007169 1.000000 -0.049498 -0.001401 1.000000 -0.194750 0.003575 1.000000 -0.050266 0.000647 1.000000 -0.190405 0.000520 1.000000 -0.075361 0.001914 1.000000 -0.163172 0.001789 1.000000 -0.105562 -0.002869 1.000000 -0.143592 0.007059 1.000000 -0.110814 -0.007734 1.000000 -0.150260 0.007031 1.000000 -0.106230 -0.003426 1.000000 -0.148360 -0.000709 1.000000 -0.117908 0.001749 1.000000 -0.136701 -0.001615 1.000000 -0.115519 0.000565 1.000000 -0.140492 -0.002724 1.000000 -0.112550 0.001643 1.000000 -0.133304 -0.002789 1.000000 -0.117397 -0.004879 1.000000 -0.130726 0.004414 1.000000 -0.109124 -0.006693 1.000000 -0.121677 0.000230 1.000000 -0.110442 -0.005557 1.000000 -0.117247 -0.001229 1.000000 -0.101435 -0.004660 1.000000 -0.107379 -0.005344 1.000000 -0.093940 -0.003027 1.000000 -0.096458 -0.009460 1.000000 -0.077959 -0.005820 1.000000 -0.081594 -0.010067 1.000000 -0.062396 -0.012271 1.000000 -0.058256 -0.017260 1.000000 -0.031719 -0.010883 1.000000 -0.018621 -0.043706 1.000000 -0.011116 -0.032250 1.000000 -0.059204 -0.037568 1.000000 -0.132611 -0.042915 1.000000 -0.204861 -0.093484 1.000000 -0.308946 -0.079662 1.000000 
-0.359012 0.283955 1.000000 -0.375052 0.193603 1.000000 -0.269518 0.165669 1.000000 -0.779750 -0.131134 1.000000 -1.245077 -0.194733 1.000000 -0.792637 -0.867594 1.000000 -0.467505 -0.112959 1.000000 -0.548320 0.136470 1.000000 -0.178864 0.111966 1.000000 -0.223135 0.135461 1.000000 -0.011520 -0.004954 1.000000 -0.095877 0.121168 1.000000 0.077499 -0.035241 1.000000 -0.032155 0.086596 1.000000 0.105511 -0.039093 1.000000 0.006569 0.059956 1.000000 0.104587 -0.033588 1.000000 0.035429 0.041970 1.000000 0.089648 -0.027617 1.000000 0.060542 0.032084 1.000000 0.069811 -0.025594 1.000000 0.082530 0.026500 1.000000 0.050429 -0.024549 1.000000 0.101512 0.022773 1.000000 0.035225 -0.020785 1.000000 0.113207 0.015405 1.000000 0.027455 -0.008637 1.000000 0.113100 0.001038 1.000000 0.031837 0.007102 1.000000 0.098941 -0.012777 1.000000 0.047420 0.013495 1.000000 0.082729 -0.011600 1.000000 0.056066 0.003569 1.000000 0.080855 0.001165 1.000000 0.049362 -0.001063 1.000000 0.083590 -0.001126 1.000000 0.048484 0.005046 1.000000 0.074374 -0.003338 1.000000 0.054648 -0.003158 1.000000 0.070976 0.005800 1.000000 0.052781 -0.003118 1.000000 0.067075 0.000126 1.000000 0.056075 0.003029 1.000000 0.059339 -0.000637 1.000000 0.052343 0.001092 1.000000 0.062182 -0.004870 1.000000 0.049646 0.006148 1.000000 0.056937 -0.000098 1.000000 0.045276 0.001085 1.000000 0.054263 -0.000652 1.000000 0.042261 0.002340 1.000000 0.047033 0.002705 1.000000 0.039138 -0.000819 1.000000 0.038021 0.003028 1.000000 0.032536 0.006162 1.000000 0.025399 0.001171 1.000000 0.019218 0.004931 1.000000 0.006724 0.004653 1.000000 0.004924 0.020147 1.000000 -0.050002 0.063425 1.000000 -0.075496 0.153162 1.000000 -0.177208 0.160203 1.000000 -0.221500 0.230514 1.000000 -0.361758 0.226755 1.000000 
-0.464700 -0.121652 1.000000 -0.861940 -0.102178 1.000000 -1.662563 0.493832 1.000000 -2.375871 1.376227 1.000000 -3.103154 0.208506 1.000000 -2.605972 -0.378971 1.000000 -1.891898 -0.043356 1.000000 -1.221367 -0.313177 1.000000 -1.087241 -0.309048 1.000000 -0.378875 -0.202212 1.000000 -0.512360 -0.104188 1.000000 -0.038256 -0.114535 1.000000 -0.156145 -0.046294 1.000000 0.134114 -0.043616 1.000000 0.053886 -0.021935 1.000000 0.234062 -0.011933 1.000000 0.181351 -0.010406 1.000000 0.298853 0.001406 1.000000 0.261710 -0.005834 1.000000 0.343709 0.007580 1.000000 0.315586 -0.005673 1.000000 0.373795 0.010288 1.000000 0.353956 -0.006538 1.000000 0.392751 0.010558 1.000000 0.383267 -0.004527 1.000000 0.404252 0.006369 1.000000 0.404657 0.003682 1.000000 0.415140 -0.003734 1.000000 0.415357 0.014679 1.000000 0.429366 -0.013669 1.000000 0.415752 0.018001 1.000000 0.442936 -0.011515 1.000000 0.415032 0.008934 1.000000 0.446466 -0.001030 1.000000 0.420704 0.004296 1.000000 0.444968 -0.002548 1.000000 0.421613 0.008507 1.000000 0.446592 -0.004416 1.000000 0.418159 0.001783 1.000000 0.440358 0.002432 1.000000 0.419080 0.001177 1.000000 0.432053 -0.001651 1.000000 0.413358 0.004947 1.000000 0.425366 -0.001147 1.000000 0.404924 0.001571 1.000000 0.413467 -0.003996 1.000000 0.390169 0.005475 1.000000 0.401161 -0.001187 1.000000 0.374697 0.001445 1.000000 0.379663 -0.001644 1.000000 0.352405 0.001887 1.000000 0.351953 0.000095 1.000000 0.324016 -0.000448 1.000000 0.310675 0.000782 1.000000 0.283100 0.002555 1.000000 0.257621 0.001047 1.000000 0.220204 0.001414 1.000000 0.174722 0.003411 1.000000 0.123475 0.013020 1.000000 0.051010 0.048170 1.000000 0.008051 0.089637 1.000000 -0.053007 0.103090 1.000000 -0.136908 0.091067 1.000000 -0.237315 0.057850 1.000000 
-0.850369 0.908580 1.000000 -1.640757 1.391466 1.000000 -2.237157 1.679599 1.000000 -2.857918 1.309456 1.000000 -2.183307 0.035369 1.000000 -2.641537 -2.078850 1.000000 -2.553197 -1.497564 1.000000 -0.370627 -0.668187 1.000000 -1.179462 -0.730526 1.000000 -0.202933 -0.439420 1.000000 -0.430558 -0.345573 1.000000 -0.026807 -0.235048 1.000000 -0.113049 -0.207610 1.000000 0.113140 -0.123435 1.000000 0.070406 -0.139041 1.000000 0.212091 -0.067508 1.000000 0.188356 -0.098379 1.000000 0.282193 -0.038389 1.000000 0.267913 -0.072474 1.000000 0.331980 -0.021793 1.000000 0.323916 -0.055679 1.000000 0.366292 -0.011871 1.000000 0.364859 -0.043505 1.000000 0.388883 -0.006538 1.000000 0.395765 -0.032286 1.000000 0.404066 -0.005985 1.000000 0.417858 -0.019526 1.000000 0.417659 -0.009662 1.000000 0.429353 -0.007123 1.000000 0.433235 -0.013173 1.000000 0.431021 -0.000075 1.000000 0.447157 -0.010880 1.000000 0.431476 0.000040 1.000000 0.451774 -0.004506 1.000000 0.436732 0.000435 1.000000 0.451378 -0.002036 1.000000 0.437560 0.003422 1.000000 0.453060 0.000116 1.000000 0.434092 0.003076 1.000000 0.447850 0.004880 1.000000 0.433469 0.005187 1.000000 0.440235 0.005848 1.000000 0.426965 0.009717 1.000000 0.432967 0.007798 1.000000 0.418355 0.012991 1.000000 0.419516 0.009884 1.000000 0.404052 0.018453 1.000000 0.405056 0.015374 1.000000 0.387388 0.022583 1.000000 0.381796 0.021641 1.000000 0.363849 0.030050 1.000000 0.351196 0.031094 1.000000 0.332548 0.040460 1.000000 0.306857 0.043943 1.000000 0.288037 0.059215 1.000000 0.246188 0.064068 1.000000 0.221374 0.087831 1.000000 0.152742 0.101382 1.000000 0.116472 0.143860 1.000000 0.010956 0.178850 1.000000 -0.025415 0.257178 1.000000 -0.174026 0.305162 1.000000 -0.264111 0.414822 1.000000 -0.566928 0.554546 1.000000 
-0.104866 0.952178 1.000000 0.071830 1.284611 1.000000 0.147606 1.710993 1.000000 0.701117 1.322377 1.000000 0.786751 -0.007875 1.000000 0.761684 -0.009081 1.000000 -1.264587 -2.314265 1.000000 -0.460650 -1.686911 1.000000 -0.686850 -0.476742 1.000000 -0.106370 -0.951116 1.000000 -0.296502 -0.280313 1.000000 0.088127 -0.432044 1.000000 -0.048711 -0.186241 1.000000 0.206613 -0.227071 1.000000 0.108921 -0.120886 1.000000 0.283761 -0.129883 1.000000 0.213548 -0.080508 1.000000 0.336557 -0.078151 1.000000 0.285383 -0.055621 1.000000 0.373638 -0.048422 1.000000 0.336426 -0.039985 1.000000 0.399325 -0.030655 1.000000 0.373850 -0.029129 1.000000 0.416694 -0.020348 1.000000 0.401752 -0.019710 1.000000 0.428852 -0.015724 1.000000 0.421452 -0.009910 1.000000 0.439438 -0.015229 1.000000 0.432744 -0.000897 1.000000 0.450325 -0.015337 1.000000 0.437067 0.004078 1.000000 0.459657 -0.011970 1.000000 0.439047 0.004317 1.000000 0.463990 -0.006286 1.000000 0.441765 0.004692 1.000000 0.464715 -0.003376 1.000000 0.442245 0.006825 1.000000 0.464335 -0.000947 1.000000 0.440425 0.006993 1.000000 0.460138 0.003055 1.000000 0.438457 0.008792 1.000000 0.453652 0.004852 1.000000 0.433189 0.012214 1.000000 0.446003 0.007464 1.000000 0.425018 0.015023 1.000000 0.435170 0.010306 1.000000 0.412909 0.019934 1.000000 0.421661 0.015477 1.000000 0.397814 0.024705 1.000000 0.402393 0.021895 1.000000 0.377758 0.032487 1.000000 0.376890 0.031396 1.000000 0.351552 0.043891 1.000000 0.342334 0.045293 1.000000 0.315996 0.063224 1.000000 0.297323 0.067710 1.000000 0.267031 0.094860 1.000000 0.236562 0.108314 1.000000 0.201404 0.154806 1.000000 0.160511 0.190056 1.000000 0.122880 0.274619 1.000000 0.082333 0.341787 1.000000 0.020185 0.483968 1.000000 -0.017222 0.644107 1.000000 
0.136752 0.819529 1.000000 0.118662 1.138994 1.000000 0.592149 1.050311 1.000000 0.792276 0.670311 1.000000 0.780959 -0.025198 1.000000 0.781124 -0.027512 1.000000 0.780372 -0.275230 1.000000 -0.283081 -1.245924 1.000000 0.204270 -1.084806 1.000000 -0.071618 -0.829767 1.000000 0.007723 -0.540070 1.000000 0.080485 -0.482838 1.000000 0.071817 -0.326096 1.000000 0.178812 -0.281067 1.000000 0.162208 -0.216189 1.000000 0.251841 -0.172135 1.000000 0.238220 -0.151175 1.000000 0.306664 -0.110224 1.000000 0.296828 -0.109555 1.000000 0.347397 -0.072836 1.000000 0.341262 -0.081366 1.000000 0.377036 -0.049295 1.000000 0.374934 -0.060874 1.000000 0.398235 -0.034440 1.000000 0.400269 -0.044444 1.000000 0.413799 -0.025685 1.000000 0.418303 -0.030111 1.000000 0.426609 -0.020954 1.000000 0.429258 -0.018011 1.000000 0.438179 -0.017495 1.000000 0.434432 -0.009407 1.000000 0.447386 -0.012861 1.000000 0.437198 -0.004293 1.000000 0.452155 -0.007224 1.000000 0.439689 -0.000290 1.000000 0.453541 -0.002515 1.000000 0.440044 0.003801 1.000000 0.453278 0.001936 1.000000 0.438157 0.007273 1.000000 0.449717 0.006848 1.000000 0.435352 0.011673 1.000000 0.443742 0.011116 1.000000 0.429680 0.017365 1.000000 0.435884 0.015968 1.000000 0.421320 0.023824 1.000000 0.424569 0.021994 1.000000 0.409363 0.031963 1.000000 0.410018 0.030468 1.000000 0.393964 0.041851 1.000000 0.389847 0.041697 1.000000 0.373535 0.055553 1.000000 0.362998 0.057300 1.000000 0.346682 0.075015 1.000000 0.326838 0.079498 1.000000 0.310844 0.104226 1.000000 0.278999 0.113034 1.000000 0.263006 0.148592 1.000000 0.215257 0.167008 1.000000 0.201725 0.219910 1.000000 0.135773 0.257374 1.000000 0.135459 0.335355 1.000000 0.054693 0.407857 1.000000 0.085450 0.514377 1.000000 -0.003626 0.679597 1.000000 
0.443301 0.829889 1.000000 0.420514 0.829214 1.000000 0.969245 1.037378 1.000000 0.798285 1.133568 1.000000 0.766814 0.003278 1.000000 0.770372 -0.008494 1.000000 0.740961 -1.250061 1.000000 0.749595 -1.110809 1.000000 0.269042 -0.688204 1.000000 0.340651 -0.754569 1.000000 0.147923 -0.432416 1.000000 0.295889 -0.496138 1.000000 0.163457 -0.284569 1.000000 0.317885 -0.317462 1.000000 0.219862 -0.193914 1.000000 0.349664 -0.205895 1.000000 0.276357 -0.135331 1.000000 0.378568 -0.136760 1.000000 0.323300 -0.096354 1.000000 0.401996 -0.092856 1.000000 0.360286 -0.069624 1.000000 0.419906 -0.064327 1.000000 0.388898 -0.050328 1.000000 0.433184 -0.045683 1.000000 0.410614 -0.035274 1.000000 0.443227 -0.033758 1.000000 0.426231 -0.022720 1.000000 0.451575 -0.026184 1.000000 0.436225 -0.012467 1.000000 0.458974 -0.020511 1.000000 0.441711 -0.005128 1.000000 0.464806 -0.014736 1.000000 0.444678 -0.000453 1.000000 0.468014 -0.008776 1.000000 0.446465 0.003307 1.000000 0.468821 -0.003732 1.000000 0.446684 0.007087 1.000000 0.467820 0.000940 1.000000 0.445318 0.010555 1.000000 0.464551 0.005861 1.000000 0.442703 0.014767 1.000000 0.459361 0.010524 1.000000 0.438011 0.020073 1.000000 0.452482 0.015824 1.000000 0.431001 0.026337 1.000000 0.443336 0.022263 1.000000 0.421318 0.034485 1.000000 0.431581 0.030876 1.000000 0.408934 0.044876 1.000000 0.416133 0.042324 1.000000 0.393175 0.059335 1.000000 0.396384 0.058249 1.000000 0.373411 0.080051 1.000000 0.371525 0.081131 1.000000 0.348864 0.111063 1.000000 0.341446 0.115548 1.000000 0.319629 0.158603 1.000000 0.306777 0.169595 1.000000 0.289028 0.234290 1.000000 0.272861 0.256321 1.000000 0.268708 0.355699 1.000000 0.253758 0.391797 1.000000 0.287782 0.542288 1.000000 0.275673 0.592804 1.000000 
0.419226 0.674687 1.000000 0.418155 0.613050 1.000000 0.679372 0.672540 1.000000 0.776759 0.872742 1.000000 0.771366 0.002715 1.000000 0.775461 -0.001659 1.000000 0.763136 -0.254453 1.000000 0.148155 -0.774005 1.000000 0.375309 -0.675863 1.000000 0.160165 -0.708648 1.000000 0.266871 -0.495308 1.000000 0.214349 -0.498372 1.000000 0.247388 -0.348092 1.000000 0.265336 -0.337472 1.000000 0.270421 -0.247968 1.000000 0.309027 -0.228630 1.000000 0.305533 -0.180079 1.000000 0.345086 -0.157167 1.000000 0.339852 -0.132982 1.000000 0.373892 -0.109822 1.000000 0.369366 -0.099276 1.000000 0.396237 -0.077907 1.000000 0.393358 -0.074153 1.000000 0.413259 -0.056156 1.000000 0.412066 -0.054486 1.000000 0.426352 -0.041303 1.000000 0.425790 -0.038460 1.000000 0.436871 -0.030948 1.000000 0.434874 -0.025409 1.000000 0.445533 -0.022981 1.000000 0.440174 -0.015239 1.000000 0.452072 -0.015828 1.000000 0.443136 -0.007501 1.000000 0.455922 -0.009011 1.000000 0.444715 -0.001096 1.000000 0.457330 -0.002735 1.000000 0.444700 0.004802 1.000000 0.456756 0.003302 1.000000 0.443065 0.010542 1.000000 0.453944 0.009463 1.000000 0.439998 0.016863 1.000000 0.449072 0.015809 1.000000 0.434962 0.024244 1.000000 0.442186 0.022977 1.000000 0.427738 0.032970 1.000000 0.432776 0.031677 1.000000 0.417953 0.043718 1.000000 0.420500 0.042852 1.000000 0.405387 0.057299 1.000000 0.404454 0.057456 1.000000 0.389448 0.075302 1.000000 0.383965 0.077063 1.000000 0.369604 0.099875 1.000000 0.358298 0.104046 1.000000 0.345487 0.134304 1.000000 0.327372 0.142268 1.000000 0.317856 0.183261 1.000000 0.292501 0.197610 1.000000 0.290817 0.253826 1.000000 0.259765 0.277694 1.000000 0.276320 0.354458 1.000000 0.244799 0.388784 1.000000 0.300551 0.492463 1.000000 0.276208 0.524078 1.000000 
0.548794 0.687943 1.000000 0.570155 0.569069 1.000000 0.713575 0.678774 1.000000 0.767838 1.041573 1.000000 0.767024 0.004576 1.000000 0.767614 -0.000265 1.000000 0.766133 -0.622755 1.000000 0.727370 -0.722982 1.000000 0.541758 -0.700214 1.000000 0.531073 -0.646131 1.000000 0.390680 -0.486600 1.000000 0.446854 -0.476656 1.000000 0.335975 -0.335556 1.000000 0.420438 -0.340494 1.000000 0.332265 -0.237605 1.000000 0.418827 -0.241007 1.000000 0.349047 -0.171390 1.000000 0.426306 -0.171080 1.000000 0.371182 -0.125160 1.000000 0.436026 -0.122370 1.000000 0.392490 -0.091969 1.000000 0.445199 -0.088319 1.000000 0.410820 -0.067351 1.000000 0.452946 -0.064391 1.000000 0.425571 -0.048367 1.000000 0.459310 -0.047483 1.000000 0.436647 -0.033239 1.000000 0.464665 -0.035267 1.000000 0.444226 -0.021129 1.000000 0.469178 -0.025811 1.000000 0.448880 -0.011667 1.000000 0.472571 -0.017698 1.000000 0.451498 -0.004303 1.000000 0.474438 -0.010355 1.000000 0.452737 0.001899 1.000000 0.474734 -0.003717 1.000000 0.452710 0.007660 1.000000 0.473574 0.002575 1.000000 0.451461 0.013367 1.000000 0.470886 0.008928 1.000000 0.449025 0.019639 1.000000 0.466756 0.015560 1.000000 0.445143 0.026959 1.000000 0.461225 0.023049 1.000000 0.439650 0.035748 1.000000 0.454101 0.032048 1.000000 0.432414 0.046761 1.000000 0.445180 0.043442 1.000000 0.423414 0.060922 1.000000 0.434147 0.058263 1.000000 0.412582 0.079824 1.000000 0.420942 0.078093 1.000000 0.400065 0.105719 1.000000 0.405857 0.105248 1.000000 0.386539 0.141989 1.000000 0.390073 0.143179 1.000000 0.374114 0.193474 1.000000 0.376414 0.196634 1.000000 0.368048 0.267025 1.000000 0.371268 0.270818 1.000000 0.379544 0.370666 1.000000 0.386606 0.367565 1.000000 0.429336 0.510878 1.000000 0.441493 0.474130 1.000000 
0.495948 0.546025 1.000000 0.579656 0.448268 1.000000 0.596194 0.474858 1.000000 0.770222 0.819293 1.000000 0.769871 0.002939 1.000000 0.771236 -0.000768 1.000000 0.769861 -0.214208 1.000000 0.529163 -0.549630 1.000000 0.555225 -0.479566 1.000000 0.392407 -0.557570 1.000000 0.434342 -0.411089 1.000000 0.357001 -0.443668 1.000000 0.381883 -0.321677 1.000000 0.359206 -0.333762 1.000000 0.368435 -0.246357 1.000000 0.373492 -0.245412 1.000000 0.374337 -0.187559 1.000000 0.390543 -0.179301 1.000000 0.387857 -0.142702 1.000000 0.406722 -0.131130 1.000000 0.403008 -0.108449 1.000000 0.420681 -0.096237 1.000000 0.417053 -0.081899 1.000000 0.432158 -0.070907 1.000000 0.428836 -0.060850 1.000000 0.441438 -0.052379 1.000000 0.437921 -0.043815 1.000000 0.448963 -0.038526 1.000000 0.444276 -0.029922 1.000000 0.454988 -0.027635 1.000000 0.448253 -0.018632 1.000000 0.459436 -0.018445 1.000000 0.450455 -0.009368 1.000000 0.462126 -0.010251 1.000000 0.451336 -0.001393 1.000000 0.463098 -0.002708 1.000000 0.450978 0.005962 1.000000 0.462474 0.004550 1.000000 0.449403 0.013230 1.000000 0.460234 0.011899 1.000000 0.446617 0.020993 1.000000 0.456420 0.019691 1.000000 0.442438 0.029776 1.000000 0.451016 0.028471 1.000000 0.436724 0.040094 1.000000 0.443851 0.038913 1.000000 0.429337 0.052640 1.000000 0.434754 0.051852 1.000000 0.420209 0.068332 1.000000 0.423499 0.068288 1.000000 0.409309 0.088507 1.000000 0.410082 0.089580 1.000000 0.396868 0.114959 1.000000 0.394915 0.117572 1.000000 0.383717 0.150088 1.000000 0.379377 0.154693 1.000000 0.372050 0.196920 1.000000 0.366706 0.203675 1.000000 0.366682 0.258972 1.000000 0.363724 0.266198 1.000000 0.376665 0.339120 1.000000 0.382864 0.338991 1.000000 0.415783 0.437576 1.000000 0.443838 0.404621 1.000000 
0.572487 0.552125 1.000000 0.649986 0.468823 1.000000 0.642717 0.488208 1.000000 0.765368 0.867895 1.000000 0.766694 0.003562 1.000000 0.765788 -0.000254 1.000000 0.766443 -0.380682 1.000000 0.709559 -0.508345 1.000000 0.627176 -0.563458 1.000000 0.603656 -0.525248 1.000000 0.515859 -0.451194 1.000000 0.534197 -0.424197 1.000000 0.451796 -0.337761 1.000000 0.496131 -0.327046 1.000000 0.423468 -0.251891 1.000000 0.478260 -0.246909 1.000000 0.416426 -0.188441 1.000000 0.471622 -0.184600 1.000000 0.419948 -0.141340 1.000000 0.470562 -0.137521 1.000000 0.427694 -0.105928 1.000000 0.471916 -0.102364 1.000000 0.436330 -0.078828 1.000000 0.474092 -0.076174 1.000000 0.444210 -0.057646 1.000000 0.476404 -0.056567 1.000000 0.450571 -0.040764 1.000000 0.478596 -0.041623 1.000000 0.455160 -0.027153 1.000000 0.480496 -0.029788 1.000000 0.458095 -0.016115 1.000000 0.481856 -0.019900 1.000000 0.459703 -0.006993 1.000000 0.482429 -0.011236 1.000000 0.460281 0.000927 1.000000 0.482102 -0.003359 1.000000 0.459961 0.008284 1.000000 0.480853 0.004151 1.000000 0.458795 0.015607 1.000000 0.478658 0.011714 1.000000 0.456793 0.023453 1.000000 0.475548 0.019738 1.000000 0.453888 0.032363 1.000000 0.471552 0.028762 1.000000 0.450041 0.042913 1.000000 0.466655 0.039436 1.000000 0.445278 0.055858 1.000000 0.460872 0.052569 1.000000 0.439739 0.072177 1.000000 0.454305 0.069162 1.000000 0.433712 0.093241 1.000000 0.447336 0.090535 1.000000 0.427822 0.120886 1.000000 0.440831 0.118398 1.000000 0.423346 0.157526 1.000000 0.436533 0.154847 1.000000 0.422772 0.206146 1.000000 0.437617 0.202002 1.000000 0.430569 0.270008 1.000000 0.449530 0.260835 1.000000 0.453744 0.351526 1.000000 0.480628 0.328447 1.000000 0.500632 0.449904 1.000000 0.542301 0.393965 1.000000 
0.541207 0.438341 1.000000 0.653563 0.378038 1.000000 0.610108 0.359475 1.000000 0.768000 0.695316 1.000000 0.768574 0.002519 1.000000 0.768709 -0.000516 1.000000 0.768487 -0.157979 1.000000 0.651590 -0.410363 1.000000 0.642417 -0.373664 1.000000 0.531917 -0.446254 1.000000 0.539673 -0.341629 1.000000 0.469179 -0.379604 1.000000 0.478762 -0.283611 1.000000 0.443122 -0.305434 1.000000 0.448051 -0.228485 1.000000 0.435704 -0.238370 1.000000 0.436106 -0.180921 1.000000 0.436953 -0.182823 1.000000 0.434508 -0.141642 1.000000 0.441756 -0.138877 1.000000 0.437871 -0.109803 1.000000 0.447572 -0.104873 1.000000 0.443053 -0.084075 1.000000 0.453224 -0.078787 1.000000 0.448325 -0.063163 1.000000 0.458255 -0.058740 1.000000 0.452789 -0.046007 1.000000 0.462537 -0.043116 1.000000 0.456063 -0.031821 1.000000 0.466006 -0.030570 1.000000 0.458110 -0.019992 1.000000 0.468548 -0.020053 1.000000 0.459098 -0.009941 1.000000 0.470044 -0.010830 1.000000 0.459197 -0.001066 1.000000 0.470459 -0.002387 1.000000 0.458475 0.007212 1.000000 0.469807 0.005717 1.000000 0.456955 0.015425 1.000000 0.468097 0.013901 1.000000 0.454632 0.024103 1.000000 0.465355 0.022596 1.000000 0.451454 0.033772 1.000000 0.461605 0.032318 1.000000 0.447394 0.044991 1.000000 0.456852 0.043676 1.000000 0.442474 0.058423 1.000000 0.451153 0.057392 1.000000 0.436823 0.074898 1.000000 0.444677 0.074315 1.000000 0.430740 0.095477 1.000000 0.437884 0.095470 1.000000 0.424866 0.121464 1.000000 0.431761 0.122049 1.000000 0.420455 0.154387 1.000000 0.428214 0.155267 1.000000 0.419793 0.195836 1.000000 0.430641 0.195878 1.000000 0.426655 0.247059 1.000000 0.444681 0.243023 1.000000 0.446394 0.308022 1.000000 0.478810 0.292103 1.000000 0.484497 0.375903 1.000000 0.544338 0.332766 1.000000 
0.594234 0.442900 1.000000 0.688426 0.399923 1.000000 0.646984 0.373772 1.000000 0.764085 0.709429 1.000000 0.766067 0.002853 1.000000 0.764500 -0.000167 1.000000 0.765919 -0.263564 1.000000 0.724389 -0.382275 1.000000 0.673320 -0.443785 1.000000 0.648280 -0.422504 1.000000 0.588038 -0.388457 1.000000 0.589925 -0.363286 1.000000 0.528506 -0.311704 1.000000 0.550555 -0.296335 1.000000 0.492230 -0.244473 1.000000 0.525824 -0.234964 1.000000 0.472948 -0.189690 1.000000 0.511062 -0.183002 1.000000 0.464433 -0.146143 1.000000 0.502554 -0.140884 1.000000 0.462005 -0.111744 1.000000 0.497753 -0.107545 1.000000 0.462602 -0.084480 1.000000 0.495077 -0.081446 1.000000 0.464374 -0.062677 1.000000 0.493607 -0.061032 1.000000 0.466271 -0.045046 1.000000 0.492813 -0.044896 1.000000 0.467756 -0.030622 1.000000 0.492345 -0.031836 1.000000 0.468643 -0.018657 1.000000 0.491922 -0.020888 1.000000 0.468942 -0.008489 1.000000 0.491316 -0.011334 1.000000 0.468730 0.000513 1.000000 0.490389 -0.002638 1.000000 0.468061 0.008935 1.000000 0.489072 0.005671 1.000000 0.466968 0.017318 1.000000 0.487341 0.014037 1.000000 0.465469 0.026195 1.000000 0.485222 0.022916 1.000000 0.463581 0.036113 1.000000 0.482771 0.032823 1.000000 0.461357 0.047665 1.000000 0.480082 0.044356 1.000000 0.458934 0.061557 1.000000 0.477330 0.058221 1.000000 0.456579 0.078653 1.000000 0.474844 0.075245 1.000000 0.454759 0.100034 1.000000 0.473236 0.096409 1.000000 0.454271 0.127009 1.000000 0.473572 0.122809 1.000000 0.456445 0.161073 1.000000 0.477614 0.155509 1.000000 0.463382 0.203718 1.000000 0.488106 0.195140 1.000000 0.478103 0.255968 1.000000 0.509041 0.241095 1.000000 0.504189 0.317397 1.000000 0.545657 0.290344 1.000000 0.543999 0.384375 1.000000 0.603913 0.337255 1.000000 