# vtk DataFile Version 2.0
Comment goes here
ASCII

DATASET STRUCTURED_POINTS
DIMENSIONS    64   64   1

ORIGIN    0.000   0.000   0.000
SPACING   0.0156250.015625   1.000

POINT_DATA   4096
VECTORS u double

3.668468 -4.381667 1.000000 2.999573 1.391139 1.000000 10.054710 7.766241 1.000000 -0.344128 -2.751311 1.000000 6.011467 -5.809681 1.000000 -0.171299 0.761707 1.000000 3.765699 -1.621422 1.000000 3.205633 7.221838 1.000000 0.385856 2.968198 1.000000 -3.732171 -2.911559 1.000000 4.250734 3.253609 1.000000 1.544056 -1.566776 1.000000 2.193766 -2.258908 1.000000 5.104701 -3.236890 1.000000 1.219429 -1.845083 1.000000 0.646210 0.816079 1.000000 -0.189006 0.838846 1.000000 1.012053 1.084453 1.000000 1.166393 0.311475 1.000000 1.657176 0.794416 1.000000 0.991252 -0.057613 1.000000 1.262513 0.348331 1.000000 1.086322 0.014223 1.000000 1.276617 0.385917 1.000000 1.394778 0.040077 1.000000 1.358368 0.339505 1.000000 1.503837 -0.088195 1.000000 1.600576 0.263388 1.000000 1.443647 -0.104665 1.000000 1.773433 -0.110885 1.000000 1.668085 0.128913 1.000000 1.742474 -0.290958 1.000000 2.129813 0.357198 1.000000 2.000428 -0.070341 1.000000 2.231671 0.381408 1.000000 2.276881 0.137951 1.000000 2.137626 0.530206 1.000000 2.142796 0.540207 1.000000 2.289506 0.340934 1.000000 1.773892 0.225691 1.000000 2.746751 0.195436 1.000000 1.344784 -0.212905 1.000000 3.479959 0.729140 1.000000 1.304566 -0.427370 1.000000 3.542423 0.376741 1.000000 1.586512 0.013299 1.000000 2.187895 -0.584389 1.000000 2.297451 0.933831 1.000000 1.220877 -0.468459 1.000000 2.277185 0.815550 1.000000 1.694491 0.082880 1.000000 1.608898 -0.138871 1.000000 0.837498 0.611907 1.000000 2.075566 -0.751397 1.000000 1.720203 2.037452 1.000000 -0.953827 -2.626433 1.000000 4.361664 -4.656779 1.000000 1.195801 -2.602901 1.000000 2.088449 -0.854169 1.000000 0.255317 -0.070660 1.000000 2.802561 3.273837 1.000000 1.294670 0.058573 1.000000 3.476523 -0.962878 1.000000 -1.984686 0.422922 1.000000 
2.421398 -0.957570 1.000000 -0.189524 -4.829967 1.000000 -0.139276 -0.017980 1.000000 6.532350 -0.051603 1.000000 -4.781412 -2.513960 1.000000 0.263088 0.231730 1.000000 -6.162434 1.209495 1.000000 -2.150147 8.995190 1.000000 5.870643 5.373729 1.000000 1.857410 -2.879570 1.000000 2.676366 -0.687381 1.000000 4.092493 2.491994 1.000000 0.966173 -1.381554 1.000000 0.613346 0.943685 1.000000 0.356819 1.373723 1.000000 -0.883666 0.665907 1.000000 1.598409 -1.006088 1.000000 0.561422 -0.113066 1.000000 1.499665 -1.508303 1.000000 1.422029 -0.175856 1.000000 1.156993 -0.723851 1.000000 1.033427 -0.082205 1.000000 1.177731 -0.100337 1.000000 0.739562 0.153035 1.000000 1.366258 0.054590 1.000000 0.978042 0.373632 1.000000 1.502092 -0.193216 1.000000 1.545367 0.420310 1.000000 1.605706 -0.060689 1.000000 1.621305 -0.165862 1.000000 2.348616 0.232638 1.000000 0.960716 -0.608776 1.000000 3.228317 -0.108778 1.000000 0.949638 -0.111471 1.000000 3.078669 -0.213952 1.000000 1.415461 0.162522 1.000000 2.735174 0.189960 1.000000 1.969714 -0.187140 1.000000 2.650142 0.344449 1.000000 2.641371 -0.401654 1.000000 2.214325 0.218787 1.000000 3.516443 -0.555621 1.000000 1.650303 0.140194 1.000000 4.306650 -0.423083 1.000000 1.537021 0.602313 1.000000 3.636720 0.512766 1.000000 1.651972 0.002039 1.000000 2.547435 0.739680 1.000000 2.269314 0.055262 1.000000 1.539321 -0.820008 1.000000 2.602178 0.743829 1.000000 1.169160 0.233249 1.000000 3.165806 -1.204361 1.000000 0.682386 -0.376534 1.000000 2.970832 1.338716 1.000000 2.303437 -1.744863 1.000000 -2.821553 -2.502059 1.000000 -2.689085 2.074471 1.000000 -1.718092 1.622067 1.000000 -6.406341 -1.813900 1.000000 2.737045 1.753120 1.000000 -0.604092 -0.298909 1.000000 2.204939 -1.876311 1.000000 3.502970 -1.848764 1.000000 
1.102797 -0.689173 1.000000 3.307433 3.951813 1.000000 -5.596775 1.044367 1.000000 1.496510 1.890826 1.000000 -4.466999 0.459581 1.000000 -2.687390 2.142728 1.000000 -5.059758 0.791812 1.000000 -1.533971 -4.811239 1.000000 0.763349 -1.039359 1.000000 3.817919 0.282719 1.000000 -2.691030 1.018526 1.000000 2.856109 0.143417 1.000000 1.288597 1.220239 1.000000 1.527361 -2.627536 1.000000 1.488091 -0.348071 1.000000 1.835346 -0.425511 1.000000 1.108756 -0.606241 1.000000 1.331940 1.183197 1.000000 0.706258 -0.549132 1.000000 0.478674 1.137088 1.000000 0.675367 0.330989 1.000000 0.449458 0.327593 1.000000 0.392709 0.308089 1.000000 1.302378 0.197390 1.000000 0.094111 -0.198403 1.000000 1.732688 0.203672 1.000000 0.547327 -0.655520 1.000000 1.078445 0.159774 1.000000 1.466009 -0.180602 1.000000 0.199852 -0.853795 1.000000 1.857863 0.789502 1.000000 -0.532015 -1.170659 1.000000 1.736399 0.368275 1.000000 -1.187966 0.079308 1.000000 2.032128 -0.084414 1.000000 -1.372692 0.481446 1.000000 2.344163 -0.024047 1.000000 -0.600789 0.625238 1.000000 1.741584 -0.330722 1.000000 0.660151 0.661509 1.000000 0.459807 -0.679637 1.000000 1.415084 0.351116 1.000000 -0.716764 -0.061066 1.000000 1.730242 -0.314088 1.000000 -0.947992 1.046670 1.000000 2.375687 -0.101652 1.000000 -0.012735 0.504896 1.000000 2.760010 0.316489 1.000000 1.214549 0.539655 1.000000 2.817191 0.482685 1.000000 1.652852 0.453041 1.000000 2.759129 -0.702499 1.000000 2.605598 1.098681 1.000000 0.492375 -0.556423 1.000000 2.529887 0.416401 1.000000 2.117252 3.165951 1.000000 2.897978 0.335743 1.000000 -0.549695 -3.706362 1.000000 3.025469 2.863087 1.000000 1.486947 -4.525797 1.000000 1.207891 -2.528411 1.000000 2.520974 0.590679 1.000000 0.537798 -5.069940 1.000000 1.222740 0.206463 1.000000 
3.581290 -3.042263 1.000000 -1.768329 1.869605 1.000000 4.150877 1.792944 1.000000 0.370505 -1.181379 1.000000 4.557398 1.669940 1.000000 -4.138360 0.824490 1.000000 1.884836 0.056075 1.000000 -0.555649 3.172082 1.000000 -1.331858 0.021840 1.000000 -2.452893 0.574810 1.000000 1.277281 0.274430 1.000000 -1.996650 -1.487633 1.000000 0.610701 -0.052806 1.000000 -1.084216 0.744192 1.000000 -2.033282 1.065737 1.000000 0.264891 1.045242 1.000000 -1.615217 -0.502681 1.000000 -0.818802 0.289432 1.000000 0.150937 -0.655037 1.000000 -2.248203 -0.144965 1.000000 0.958856 -0.694635 1.000000 -1.405885 0.200453 1.000000 -0.412915 -0.953257 1.000000 0.223301 0.451633 1.000000 -1.647110 -0.375720 1.000000 0.571024 -0.079584 1.000000 -1.385773 0.461027 1.000000 -0.894783 -0.498372 1.000000 -0.133719 0.817904 1.000000 -1.869197 -0.557716 1.000000 -0.440170 0.964505 1.000000 -0.928993 -0.487313 1.000000 -1.355118 0.547173 1.000000 -1.020393 -0.407199 1.000000 -0.649051 -0.029226 1.000000 -1.794523 -0.149514 1.000000 -0.319632 -0.581943 1.000000 -1.588308 0.415440 1.000000 -0.634402 -0.916491 1.000000 -1.111425 0.880123 1.000000 -0.662043 -0.536146 1.000000 -0.933488 0.620951 1.000000 -0.647186 -0.174965 1.000000 -0.435887 -0.191856 1.000000 -1.706196 -0.043132 1.000000 1.021889 -0.422491 1.000000 -2.159218 -0.382284 1.000000 0.868677 -0.487603 1.000000 -1.997543 -0.001918 1.000000 0.997972 -1.258311 1.000000 -1.896016 0.801890 1.000000 0.928873 -0.719497 1.000000 -1.480452 1.062393 1.000000 1.454071 -0.300823 1.000000 -0.259078 -0.286162 1.000000 -0.170263 -2.112954 1.000000 2.466598 0.164888 1.000000 0.180012 1.946979 1.000000 -0.176134 -0.414574 1.000000 3.304937 0.003678 1.000000 -2.408462 0.719092 1.000000 -1.693325 0.371184 1.000000 3.713591 -0.578077 1.000000 0.671559 -2.413763 1.000000 
0.334583 1.750715 1.000000 -7.587917 3.382226 1.000000 -2.650242 -1.094467 1.000000 -5.330235 1.484304 1.000000 1.228643 4.968446 1.000000 -1.354320 4.815290 1.000000 4.644742 -2.790898 1.000000 -2.383322 -1.594545 1.000000 4.564168 0.857885 1.000000 -1.301770 -2.326421 1.000000 1.705780 0.562282 1.000000 -0.003139 0.809997 1.000000 -1.299177 0.307805 1.000000 1.534935 0.016448 1.000000 0.259094 -1.697179 1.000000 0.707304 -0.843576 1.000000 0.850630 0.477452 1.000000 -0.234216 -0.582957 1.000000 2.062713 0.880269 1.000000 -0.778989 0.329169 1.000000 1.911128 -0.511330 1.000000 -0.670799 1.699364 1.000000 1.133496 -1.321097 1.000000 -0.452926 1.431585 1.000000 0.775411 -0.546127 1.000000 -0.180163 -0.057666 1.000000 0.917304 0.810287 1.000000 0.000509 -1.092279 1.000000 1.286046 0.793813 1.000000 0.422990 -0.547344 1.000000 0.742576 -0.150703 1.000000 1.734572 -0.255711 1.000000 0.187397 0.459675 1.000000 2.306039 -0.626758 1.000000 0.570895 0.689716 1.000000 1.547871 0.152027 1.000000 1.054721 -0.230263 1.000000 0.818771 0.940008 1.000000 1.262684 -0.807605 1.000000 0.225425 0.689150 1.000000 1.420509 -0.857574 1.000000 -0.340142 0.336260 1.000000 2.142652 -0.558667 1.000000 -0.726272 0.744922 1.000000 1.764193 -0.411106 1.000000 -0.283411 0.351370 1.000000 0.038857 0.658108 1.000000 -0.021246 0.154813 1.000000 -0.236858 0.410360 1.000000 -0.732990 0.381158 1.000000 -0.645530 0.522140 1.000000 -0.231382 -1.118062 1.000000 -2.037489 0.573483 1.000000 0.392183 -1.777797 1.000000 -3.538024 2.040734 1.000000 0.913319 0.440276 1.000000 -5.985854 -0.014531 1.000000 0.027789 -1.063631 1.000000 -1.604113 -0.261838 1.000000 -0.101731 -2.293469 1.000000 1.295367 2.469851 1.000000 1.822606 -5.531374 1.000000 3.697534 -7.434824 1.000000 2.910038 0.338763 1.000000 
1.304226 7.455692 1.000000 -0.343850 4.854431 1.000000 3.252152 -0.464738 1.000000 0.166202 -5.060265 1.000000 -0.706865 -2.305975 1.000000 1.305643 -2.591608 1.000000 6.495644 1.085076 1.000000 -2.226247 3.252656 1.000000 9.001455 -1.059712 1.000000 0.487409 3.433198 1.000000 3.193412 -1.024201 1.000000 0.415223 1.517323 1.000000 3.518986 -1.590881 1.000000 2.168464 -0.814079 1.000000 3.086383 1.893368 1.000000 -0.865533 0.453706 1.000000 -0.362173 0.438839 1.000000 -0.318441 -0.922651 1.000000 0.807276 -0.110263 1.000000 1.269155 0.006620 1.000000 1.478381 -0.802826 1.000000 1.125943 0.978086 1.000000 2.383725 -1.171130 1.000000 0.325928 0.809717 1.000000 3.184733 -0.648483 1.000000 0.336066 -0.221476 1.000000 3.163406 0.280354 1.000000 1.350551 -0.867114 1.000000 2.471731 0.395423 1.000000 2.293494 -0.014246 1.000000 2.198918 -0.347077 1.000000 2.519396 0.067866 1.000000 1.901682 -0.024294 1.000000 3.118242 -0.790697 1.000000 1.288979 0.728943 1.000000 3.730676 -0.633340 1.000000 1.596231 0.147157 1.000000 3.249718 0.207477 1.000000 2.769892 -0.323145 1.000000 1.803269 0.722298 1.000000 4.024844 0.029421 1.000000 0.425822 -0.101192 1.000000 4.777414 0.211165 1.000000 0.092796 0.186603 1.000000 4.656793 -0.485993 1.000000 1.510185 1.302845 1.000000 2.800595 -0.644449 1.000000 4.400505 -0.211888 1.000000 1.808525 0.709826 1.000000 4.587207 -0.849639 1.000000 3.163827 0.300283 1.000000 3.799754 0.672461 1.000000 2.319770 0.438828 1.000000 3.652040 1.199712 1.000000 0.908458 -0.807298 1.000000 4.327829 0.334876 1.000000 2.421516 1.050417 1.000000 2.360701 -2.434762 1.000000 3.675886 -0.285055 1.000000 3.157537 -2.895801 1.000000 2.721932 -1.205245 1.000000 5.684634 -2.030983 1.000000 1.171078 -1.665509 1.000000 -0.127355 0.949188 1.000000 
-0.108673 1.967210 1.000000 1.736074 1.434300 1.000000 -0.538573 -1.604519 1.000000 2.622669 5.443321 1.000000 -5.117774 3.829005 1.000000 0.235608 -2.387219 1.000000 -7.688331 0.740992 1.000000 4.859623 -4.100356 1.000000 -3.523152 -1.855771 1.000000 1.955611 3.481622 1.000000 2.014809 0.634468 1.000000 0.097020 0.484423 1.000000 3.620433 -1.445436 1.000000 -3.468056 0.449051 1.000000 -0.471825 1.336819 1.000000 -2.126340 2.604980 1.000000 -0.896587 -0.069640 1.000000 -0.419027 -1.752406 1.000000 0.736264 -0.707327 1.000000 1.646092 -0.341937 1.000000 1.962716 -0.368118 1.000000 1.929532 0.794020 1.000000 2.633274 -0.521081 1.000000 1.343054 0.630577 1.000000 3.041196 -0.556265 1.000000 1.114474 -0.036339 1.000000 2.790076 -0.204198 1.000000 1.307207 -0.400604 1.000000 2.226209 -0.149130 1.000000 1.694073 -0.274532 1.000000 2.564727 -0.376606 1.000000 1.535309 0.041525 1.000000 2.816218 -0.139170 1.000000 1.517390 -0.014056 1.000000 2.296439 0.077282 1.000000 2.217715 -0.155225 1.000000 2.021004 0.250695 1.000000 2.368058 -0.233653 1.000000 2.331010 0.638844 1.000000 2.139086 -0.565802 1.000000 2.870106 0.519873 1.000000 2.300982 -0.416310 1.000000 2.925445 -0.225641 1.000000 2.065692 0.865542 1.000000 3.519847 -1.828496 1.000000 1.166418 2.207568 1.000000 4.677756 -2.232212 1.000000 1.143386 1.146883 1.000000 3.785923 0.223659 1.000000 2.846998 -0.974144 1.000000 2.439711 1.309593 1.000000 2.251296 -0.274005 1.000000 4.269375 0.721197 1.000000 0.678896 -0.366486 1.000000 5.152951 1.364945 1.000000 -0.146086 -1.072783 1.000000 6.176246 1.952596 1.000000 -0.342994 -2.318000 1.000000 4.016241 -1.058674 1.000000 0.374935 -1.339515 1.000000 1.277850 -0.057245 1.000000 -0.121345 -3.980519 1.000000 -2.220203 -1.622835 1.000000 -2.597748 0.205616 1.000000 
0.817423 3.121870 1.000000 -0.081724 5.284331 1.000000 1.384513 -1.351333 1.000000 -0.448286 -0.481064 1.000000 3.248208 0.081086 1.000000 3.341502 -0.021052 1.000000 0.927467 -3.538938 1.000000 3.454322 -0.912522 1.000000 -3.388311 1.844299 1.000000 2.589267 -2.104764 1.000000 -0.982485 0.834390 1.000000 -0.743209 -0.088300 1.000000 0.639128 1.974195 1.000000 -0.919738 3.278178 1.000000 -0.739608 0.551653 1.000000 -0.565117 0.878469 1.000000 0.499258 -1.268474 1.000000 0.457200 -2.555502 1.000000 1.358057 -2.175383 1.000000 1.782924 -1.219832 1.000000 2.069001 -1.086265 1.000000 2.361609 0.307528 1.000000 2.916371 -0.584652 1.000000 2.494941 0.401795 1.000000 3.202380 -0.419903 1.000000 2.047658 0.029643 1.000000 2.868018 0.087621 1.000000 1.900201 -0.303247 1.000000 2.570091 0.008556 1.000000 2.015604 -0.352764 1.000000 2.517012 -0.188313 1.000000 1.906616 -0.183625 1.000000 2.730697 -0.006374 1.000000 1.818716 -0.270918 1.000000 2.978712 0.028617 1.000000 1.783385 -0.357905 1.000000 3.200988 -0.003186 1.000000 1.898936 -0.102529 1.000000 3.226560 -0.094173 1.000000 2.466772 0.183202 1.000000 2.773038 -0.132475 1.000000 3.073915 -0.156531 1.000000 2.384736 0.446455 1.000000 3.006123 -0.407799 1.000000 2.953446 0.413282 1.000000 1.556693 0.144935 1.000000 4.267915 -0.621417 1.000000 -0.372650 0.679945 1.000000 4.953118 -0.993786 1.000000 -0.598978 0.496573 1.000000 4.593693 0.895984 1.000000 -0.360224 -1.157202 1.000000 4.979815 2.011228 1.000000 0.666675 0.316135 1.000000 3.848990 0.017685 1.000000 1.883456 -0.688418 1.000000 5.630735 1.247325 1.000000 1.709690 -0.274757 1.000000 4.044776 -1.002984 1.000000 1.719317 -0.157410 1.000000 3.297385 -0.708965 1.000000 1.896530 1.467069 1.000000 1.930627 0.810895 1.000000 -2.969633 -1.162342 1.000000 
0.785821 -0.920700 1.000000 2.637314 0.867211 1.000000 1.596857 -1.237956 1.000000 3.063152 3.579626 1.000000 3.279679 0.039218 1.000000 3.298433 -0.066478 1.000000 3.183061 0.628171 1.000000 2.846401 0.215422 1.000000 3.477751 -0.990716 1.000000 5.609980 1.075795 1.000000 1.652194 3.966944 1.000000 3.886483 -1.137189 1.000000 2.466413 -1.268907 1.000000 3.401226 1.827787 1.000000 3.412391 0.982198 1.000000 2.915842 1.366113 1.000000 2.028332 -1.091957 1.000000 2.756180 -2.611204 1.000000 3.730305 -2.033050 1.000000 3.300727 -1.052881 1.000000 2.002272 -0.946803 1.000000 1.914973 -0.053350 1.000000 2.517086 -0.654414 1.000000 1.839702 0.344568 1.000000 2.670231 -0.108982 1.000000 1.334755 0.298024 1.000000 2.696613 -0.056740 1.000000 1.512307 -0.102677 1.000000 2.829234 -0.264533 1.000000 2.064571 -0.221453 1.000000 3.037823 -0.267618 1.000000 2.229119 -0.172160 1.000000 3.016714 -0.051270 1.000000 2.158079 -0.262071 1.000000 2.953897 0.112612 1.000000 1.987510 -0.377501 1.000000 3.084791 0.135143 1.000000 1.806233 -0.259226 1.000000 3.431840 0.071009 1.000000 1.753380 -0.112280 1.000000 3.742484 -0.087270 1.000000 1.904832 -0.028008 1.000000 3.536611 -0.157849 1.000000 2.721495 0.296833 1.000000 2.928815 -0.379065 1.000000 3.625821 0.893099 1.000000 2.626160 -0.302869 1.000000 3.617773 0.461681 1.000000 2.899168 0.449987 1.000000 2.889134 -0.614720 1.000000 3.230304 1.070839 1.000000 3.737717 -0.660127 1.000000 1.946156 -0.305702 1.000000 4.830736 0.764340 1.000000 3.412777 0.148164 1.000000 3.017122 -2.854528 1.000000 3.911342 2.126362 1.000000 4.028050 -0.732041 1.000000 3.357346 -1.068301 1.000000 2.806060 -0.592124 1.000000 3.108217 -0.234459 1.000000 2.837716 -2.613762 1.000000 2.164042 3.243329 1.000000 0.070426 1.318820 1.000000 
-3.140457 0.554982 1.000000 3.495881 4.473295 1.000000 1.451829 -1.777172 1.000000 3.315671 -2.163887 1.000000 3.278059 -0.154195 1.000000 3.311975 0.075567 1.000000 3.189481 -3.086906 1.000000 4.203308 -1.207212 1.000000 5.340148 -0.919279 1.000000 4.288856 -0.279207 1.000000 3.870704 2.557887 1.000000 5.785739 -0.902519 1.000000 2.042226 2.459453 1.000000 3.695211 2.332200 1.000000 5.229173 1.037036 1.000000 4.671398 2.262527 1.000000 4.093786 -1.108812 1.000000 2.664485 -4.257475 1.000000 2.962906 -2.719930 1.000000 2.043758 0.508201 1.000000 1.009788 0.299489 1.000000 0.784763 -0.207287 1.000000 1.748832 -0.509381 1.000000 1.162968 0.248651 1.000000 2.355924 0.085044 1.000000 1.708590 0.003261 1.000000 3.147238 -0.089930 1.000000 2.514518 -0.435869 1.000000 3.464098 -0.543708 1.000000 2.574828 -0.561353 1.000000 3.351513 -0.352861 1.000000 2.472318 -0.162515 1.000000 3.365621 0.064666 1.000000 2.447456 -0.208102 1.000000 3.458930 0.199186 1.000000 2.398227 -0.488798 1.000000 3.609024 0.178091 1.000000 2.219866 -0.449579 1.000000 3.816187 -0.041320 1.000000 2.009438 -0.127442 1.000000 4.057122 -0.283927 1.000000 1.496308 0.049342 1.000000 4.542430 -0.370208 1.000000 0.715178 0.199997 1.000000 5.178146 -0.491044 1.000000 0.242134 0.447590 1.000000 5.634862 -0.613369 1.000000 0.496930 0.406937 1.000000 5.487840 -0.265147 1.000000 1.359381 0.165437 1.000000 4.693197 0.047401 1.000000 2.412450 0.126946 1.000000 4.178331 0.918209 1.000000 1.630262 -1.150485 1.000000 5.393354 1.831299 1.000000 0.852783 -1.186983 1.000000 3.150742 0.236398 1.000000 3.667776 0.279238 1.000000 -0.035686 0.219005 1.000000 4.804426 0.091719 1.000000 0.972691 -0.740621 1.000000 -0.579858 2.411245 1.000000 0.893065 3.578185 1.000000 6.116097 0.215880 1.000000 
-0.135646 1.699515 1.000000 5.607730 -3.725076 1.000000 6.406755 -1.057746 1.000000 3.620514 1.753396 1.000000 3.337382 0.042914 1.000000 3.404887 0.022100 1.000000 3.365455 -0.263161 1.000000 2.679929 -1.935245 1.000000 3.132042 -1.076265 1.000000 0.449158 2.545239 1.000000 2.962271 2.470061 1.000000 4.113177 0.691289 1.000000 3.746961 0.821622 1.000000 6.427858 -1.359160 1.000000 5.145020 0.006011 1.000000 5.476692 2.501499 1.000000 5.532593 0.914955 1.000000 3.503708 -1.480324 1.000000 2.253181 -1.412324 1.000000 1.606675 0.900236 1.000000 1.756654 0.312192 1.000000 1.831500 -0.792394 1.000000 3.448958 -1.032619 1.000000 3.293518 -0.262524 1.000000 3.910651 -0.654604 1.000000 2.919938 -0.493291 1.000000 3.891844 -0.862668 1.000000 3.054394 -0.419536 1.000000 3.662352 -0.324843 1.000000 2.215522 -0.108869 1.000000 2.983681 -0.165109 1.000000 2.001387 -0.186267 1.000000 2.892867 -0.026408 1.000000 2.325842 -0.355381 1.000000 2.856785 0.161842 1.000000 2.619778 -0.527595 1.000000 2.929346 0.313504 1.000000 2.608222 -0.466388 1.000000 3.146314 0.281436 1.000000 2.493926 -0.353216 1.000000 3.365823 0.425860 1.000000 2.359704 -0.513315 1.000000 3.581912 0.623281 1.000000 2.055205 -0.338884 1.000000 3.930242 0.093979 1.000000 1.792511 0.436384 1.000000 3.721144 -0.557665 1.000000 2.395231 0.608702 1.000000 2.694275 -0.412465 1.000000 3.177616 0.179924 1.000000 2.615243 0.017771 1.000000 2.588762 -0.145261 1.000000 3.939190 0.476486 1.000000 1.755710 -0.450683 1.000000 4.589939 0.925643 1.000000 1.939539 -0.611916 1.000000 4.670660 -0.688631 1.000000 2.204560 2.454388 1.000000 3.683841 -2.204950 1.000000 5.427569 -1.600502 1.000000 0.645056 5.149825 1.000000 5.380333 -2.534135 1.000000 2.881326 -3.452626 1.000000 8.024088 5.352341 1.000000 
5.351054 2.971340 1.000000 4.041259 -2.069107 1.000000 3.293950 0.210045 1.000000 3.271249 0.905486 1.000000 3.273429 0.061432 1.000000 3.281145 0.047493 1.000000 3.294202 -2.361948 1.000000 3.048789 -0.973799 1.000000 2.580947 1.311491 1.000000 1.753728 -0.109436 1.000000 3.815325 -1.106132 1.000000 5.039878 -1.687209 1.000000 5.150784 0.144771 1.000000 3.593000 0.934141 1.000000 2.773264 1.988202 1.000000 3.686620 1.874955 1.000000 4.247051 0.864172 1.000000 4.992243 -0.978063 1.000000 3.930314 -0.822897 1.000000 2.634598 1.004728 1.000000 3.486934 0.074664 1.000000 3.581746 -1.899591 1.000000 3.348952 -1.971399 1.000000 2.684557 -0.213042 1.000000 3.051414 0.458624 1.000000 2.193907 0.022069 1.000000 2.865414 -0.224386 1.000000 1.598951 -0.206377 1.000000 2.760424 0.295164 1.000000 1.646507 0.117319 1.000000 3.363113 -0.138727 1.000000 2.349069 -0.071701 1.000000 3.762795 -0.259789 1.000000 2.665194 -0.172020 1.000000 3.641698 -0.094750 1.000000 2.703286 -0.561358 1.000000 3.756298 0.189647 1.000000 2.325558 -0.666547 1.000000 4.290472 0.072975 1.000000 1.954261 -0.346951 1.000000 4.311827 -0.149704 1.000000 2.313501 -0.166748 1.000000 3.728723 -0.065709 1.000000 2.787245 -0.148332 1.000000 3.738520 -0.228350 1.000000 2.530415 0.656688 1.000000 3.990002 -1.216090 1.000000 2.908254 1.433806 1.000000 3.390469 -1.047531 1.000000 3.070654 0.244469 1.000000 3.867182 0.636255 1.000000 2.494139 -1.197001 1.000000 3.636833 1.751261 1.000000 3.559090 -1.801234 1.000000 3.621400 1.647469 1.000000 3.007269 -1.267704 1.000000 4.193095 -0.028623 1.000000 3.071475 1.266057 1.000000 5.015123 -3.004003 1.000000 1.715236 3.130504 1.000000 3.925800 -0.693385 1.000000 5.058710 0.174974 1.000000 1.352569 0.934430 1.000000 4.886929 3.232852 1.000000 
5.757074 2.545185 1.000000 3.525448 -1.667971 1.000000 3.138268 -0.287737 1.000000 3.287060 1.773916 1.000000 3.352303 0.033018 1.000000 3.344951 0.001327 1.000000 3.392578 -0.030805 1.000000 2.008066 -1.221989 1.000000 3.620898 0.218797 1.000000 3.022479 1.310861 1.000000 3.392571 -0.816089 1.000000 3.070367 -0.644170 1.000000 1.911307 2.268500 1.000000 1.772319 1.018359 1.000000 2.170274 -0.087610 1.000000 3.260712 1.027713 1.000000 4.228653 -0.390667 1.000000 4.346260 -1.163587 1.000000 2.395876 0.945321 1.000000 2.635530 1.343616 1.000000 3.942534 -0.634955 1.000000 3.353628 -0.654411 1.000000 1.535917 -0.135430 1.000000 0.381915 0.035014 1.000000 1.315995 -0.163954 1.000000 1.282536 -0.307291 1.000000 2.589330 -0.267712 1.000000 2.212296 -0.314546 1.000000 3.268411 -0.372399 1.000000 2.158060 -0.711558 1.000000 3.467003 -0.867670 1.000000 2.611684 -0.585949 1.000000 3.871547 -0.342533 1.000000 2.520216 -0.234284 1.000000 3.277855 0.123750 1.000000 2.459668 -0.642195 1.000000 2.872516 0.691232 1.000000 2.592921 -1.000562 1.000000 2.993850 0.652733 1.000000 2.649729 -0.374571 1.000000 3.192514 0.066620 1.000000 2.796094 0.069789 1.000000 3.101306 0.149537 1.000000 3.206059 -0.348681 1.000000 2.731344 0.350809 1.000000 3.603903 0.184902 1.000000 2.773606 -0.935505 1.000000 2.972724 1.208235 1.000000 3.874841 -0.574864 1.000000 1.752330 -0.296790 1.000000 4.322671 0.594286 1.000000 2.500192 0.085087 1.000000 2.899620 -0.588465 1.000000 4.021802 -0.435250 1.000000 2.807599 1.477464 1.000000 3.519916 -1.183611 1.000000 2.758591 -0.752837 1.000000 3.929005 1.632360 1.000000 2.330756 -0.848711 1.000000 1.525291 -0.511180 1.000000 4.671467 1.806351 1.000000 1.233341 0.039097 1.000000 2.597206 -3.280845 1.000000 2.060753 1.353856 1.000000 
4.029011 1.506646 1.000000 3.109639 0.549699 1.000000 2.071504 0.448433 1.000000 3.223279 0.691452 1.000000 3.285394 0.003541 1.000000 3.265874 0.007218 1.000000 3.289224 -1.025063 1.000000 3.154315 -1.202119 1.000000 3.309860 0.297078 1.000000 3.405647 0.118892 1.000000 3.067814 -1.154021 1.000000 2.553321 -0.205946 1.000000 2.556688 1.442819 1.000000 3.352874 0.675174 1.000000 3.269945 0.499809 1.000000 4.073781 -0.183424 1.000000 4.480097 -0.221376 1.000000 3.634053 0.854714 1.000000 3.030662 0.887833 1.000000 3.139859 -0.541930 1.000000 3.708036 -0.643434 1.000000 3.432567 0.507026 1.000000 3.301420 1.000315 1.000000 2.532304 0.006880 1.000000 3.923541 -0.441998 1.000000 3.750709 -1.251267 1.000000 4.208486 -1.154145 1.000000 2.572822 -0.885458 1.000000 3.225881 0.349400 1.000000 1.615810 -0.081274 1.000000 3.462322 -0.592351 1.000000 2.600707 -0.476245 1.000000 4.354031 -0.168320 1.000000 2.639696 0.421672 1.000000 3.747487 -0.034202 1.000000 2.546334 -0.156019 1.000000 3.623027 0.056394 1.000000 2.562700 -0.787881 1.000000 4.154821 0.016166 1.000000 2.313151 -0.545615 1.000000 4.522448 -0.296069 1.000000 2.060242 -0.075541 1.000000 3.966967 -0.475675 1.000000 2.707453 0.221629 1.000000 2.785836 -0.626193 1.000000 3.268983 0.614427 1.000000 2.938154 -0.584911 1.000000 2.663247 0.332571 1.000000 3.304020 0.172863 1.000000 3.199804 -0.203361 1.000000 2.773572 -0.111607 1.000000 2.968032 0.226051 1.000000 3.823145 0.229651 1.000000 2.409530 -1.709213 1.000000 2.865722 2.149355 1.000000 4.001440 -1.218696 1.000000 2.356421 -0.437713 1.000000 2.889437 1.693892 1.000000 3.387641 -0.600289 1.000000 2.757223 0.789793 1.000000 2.880356 -0.401434 1.000000 4.698693 2.249235 1.000000 1.110331 0.107018 1.000000 2.555722 0.072984 1.000000 
3.791941 1.991269 1.000000 3.096263 0.289536 1.000000 3.611441 -0.401377 1.000000 3.370233 0.560025 1.000000 3.352324 -0.009578 1.000000 3.345529 -0.002503 1.000000 3.355723 0.080754 1.000000 2.982316 -1.242625 1.000000 3.240018 -0.032536 1.000000 3.360472 1.552907 1.000000 2.930155 0.036237 1.000000 2.641705 -0.133044 1.000000 2.959906 1.468947 1.000000 3.702249 0.305102 1.000000 4.059602 -0.808517 1.000000 4.135490 -0.182439 1.000000 3.335521 0.049061 1.000000 3.537111 0.285848 1.000000 3.701339 1.439515 1.000000 3.399964 0.666242 1.000000 3.073711 -0.927663 1.000000 3.020040 -0.247795 1.000000 3.282911 0.764834 1.000000 3.492153 -0.587107 1.000000 3.768567 -1.382359 1.000000 2.316923 -0.592236 1.000000 1.751261 0.910175 1.000000 0.600840 0.668058 1.000000 1.880485 0.584613 1.000000 1.010112 -0.947999 1.000000 2.211608 -1.852567 1.000000 1.664367 -1.477658 1.000000 3.375352 -0.381522 1.000000 2.613983 0.372260 1.000000 3.402966 0.217112 1.000000 1.965393 -0.517735 1.000000 3.669192 0.674866 1.000000 1.725471 -1.532356 1.000000 3.989880 0.902282 1.000000 2.760353 -0.742198 1.000000 3.147063 0.319530 1.000000 4.216123 0.625270 1.000000 2.295080 -0.497674 1.000000 4.314823 0.832450 1.000000 2.737927 -0.210721 1.000000 3.235038 0.032583 1.000000 3.571956 -0.329769 1.000000 2.409340 0.842369 1.000000 4.128255 -1.111421 1.000000 2.348290 0.233658 1.000000 3.759007 0.826058 1.000000 2.999541 -0.964486 1.000000 3.167311 -0.029964 1.000000 3.369511 0.522173 1.000000 2.277287 -0.114446 1.000000 4.081645 -0.674309 1.000000 1.494666 0.359166 1.000000 3.875104 0.601140 1.000000 1.769349 -0.716497 1.000000 3.759169 -0.003894 1.000000 2.186942 -0.135119 1.000000 2.927847 1.809121 1.000000 3.660167 -1.137874 1.000000 3.286960 -1.564823 1.000000 
3.121525 1.697343 1.000000 3.169154 0.730198 1.000000 3.193372 0.174463 1.000000 3.292373 0.950570 1.000000 3.288879 0.028245 1.000000 3.280597 0.003819 1.000000 3.291375 -0.661851 1.000000 3.267177 -1.086414 1.000000 2.720987 -0.081077 1.000000 2.975063 0.428755 1.000000 3.546624 -0.435254 1.000000 3.079600 -0.235698 1.000000 3.382224 0.382276 1.000000 3.975989 -0.424522 1.000000 4.131860 0.066568 1.000000 3.595013 0.540657 1.000000 3.433160 0.377002 1.000000 3.336573 0.488896 1.000000 3.821851 1.024980 1.000000 3.832280 0.085699 1.000000 3.931814 -0.263510 1.000000 3.211167 0.297826 1.000000 3.868516 0.528202 1.000000 3.600959 -0.478776 1.000000 3.646279 0.733232 1.000000 2.214890 0.766039 1.000000 3.453801 0.561937 1.000000 2.913259 -1.014682 1.000000 3.656178 -0.059872 1.000000 2.391524 -0.412397 1.000000 3.097894 -1.246606 1.000000 1.164551 -1.639989 1.000000 2.726931 -1.117936 1.000000 1.140431 0.394057 1.000000 3.032667 0.614388 1.000000 1.195431 -0.422245 1.000000 3.667722 0.296316 1.000000 1.653750 -1.108569 1.000000 4.519640 -1.018715 1.000000 2.408084 0.297203 1.000000 4.398468 -1.751839 1.000000 3.420116 0.776442 1.000000 3.503876 -0.574375 1.000000 4.724268 -0.221218 1.000000 2.846720 0.453591 1.000000 4.460116 -0.219602 1.000000 3.992428 0.240788 1.000000 2.594945 -0.223729 1.000000 5.335708 0.233912 1.000000 2.130154 0.165887 1.000000 4.327886 -0.762858 1.000000 3.937171 0.817746 1.000000 3.055817 -0.140319 1.000000 3.851240 -0.819189 1.000000 3.824402 1.437221 1.000000 3.071705 -0.436075 1.000000 3.633036 -0.231171 1.000000 3.687139 1.419209 1.000000 2.464731 -0.484355 1.000000 4.003453 0.372200 1.000000 3.041720 0.429888 1.000000 2.810100 0.776010 1.000000 3.885358 -0.252096 1.000000 2.800691 -0.058790 1.000000 