# vtk DataFile Version 2.0
Comment goes here
ASCII

DATASET STRUCTURED_POINTS
DIMENSIONS    64   64   1

ORIGIN    0.000   0.000   0.000
SPACING   0.0156250.015625   1.000

POINT_DATA   4096
VECTORS u double

-0.270218 -0.244699 1.000000 -0.433826 -0.250561 1.000000 -0.763571 -0.242457 1.000000 -1.142348 -0.481074 1.000000 -1.960065 -0.245271 1.000000 -1.692137 0.371010 1.000000 -1.174002 0.678601 1.000000 -0.770071 0.249190 1.000000 -0.682276 0.396863 1.000000 -0.351442 0.269857 1.000000 -0.355901 0.183433 1.000000 -0.135411 0.182103 1.000000 -0.152537 0.108151 1.000000 -0.006743 0.116006 1.000000 -0.019482 0.071154 1.000000 0.076556 0.076534 1.000000 0.071333 0.048876 1.000000 0.133996 0.053649 1.000000 0.135201 0.033192 1.000000 0.175649 0.041200 1.000000 0.180254 0.020137 1.000000 0.208748 0.035365 1.000000 0.209996 0.009767 1.000000 0.237651 0.030746 1.000000 0.228825 0.005327 1.000000 0.260956 0.022644 1.000000 0.244773 0.007201 1.000000 0.273865 0.013621 1.000000 0.262106 0.007566 1.000000 0.280953 0.010954 1.000000 0.273371 0.003740 1.000000 0.289355 0.009403 1.000000 0.280127 0.002402 1.000000 0.293983 0.006725 1.000000 0.285735 -0.000122 1.000000 0.298397 0.005582 1.000000 0.287290 -0.001037 1.000000 0.300006 0.002311 1.000000 0.289411 -0.001834 1.000000 0.299307 0.001011 1.000000 0.288108 -0.002623 1.000000 0.295666 -0.001353 1.000000 0.285848 -0.004876 1.000000 0.291027 -0.002661 1.000000 0.279708 -0.006536 1.000000 0.283029 -0.005944 1.000000 0.272339 -0.009123 1.000000 0.272321 -0.009145 1.000000 0.262263 -0.011729 1.000000 0.256359 -0.011704 1.000000 0.246398 -0.016504 1.000000 0.235535 -0.016775 1.000000 0.225982 -0.023109 1.000000 0.207610 -0.023126 1.000000 0.197742 -0.032526 1.000000 0.168862 -0.032079 1.000000 0.156958 -0.048280 1.000000 0.115619 -0.048276 1.000000 0.097189 -0.076108 1.000000 0.044264 -0.083217 1.000000 0.021844 -0.120365 1.000000 -0.049920 -0.135277 1.000000 -0.085022 -0.182531 1.000000 -0.185498 -0.204066 1.000000 
-0.359669 -0.267095 1.000000 -0.586386 -0.281849 1.000000 -0.617535 -0.314927 1.000000 -0.977524 -0.135312 1.000000 -1.215316 -0.034319 1.000000 -1.780430 0.618715 1.000000 -1.216819 0.357088 1.000000 -0.998357 0.175560 1.000000 -0.776172 0.298975 1.000000 -0.453298 0.132073 1.000000 -0.408422 0.188587 1.000000 -0.188217 0.091563 1.000000 -0.174685 0.126079 1.000000 -0.035265 0.057290 1.000000 -0.027917 0.087451 1.000000 0.060084 0.036259 1.000000 0.068808 0.061345 1.000000 0.123590 0.024884 1.000000 0.135656 0.042347 1.000000 0.167901 0.020479 1.000000 0.182432 0.025878 1.000000 0.203216 0.021582 1.000000 0.211311 0.012001 1.000000 0.236210 0.022061 1.000000 0.226860 0.006421 1.000000 0.263788 0.014579 1.000000 0.241327 0.011362 1.000000 0.276025 0.003741 1.000000 0.261915 0.012488 1.000000 0.280710 0.004593 1.000000 0.273268 0.005253 1.000000 0.290891 0.005353 1.000000 0.278909 0.004764 1.000000 0.294794 0.002700 1.000000 0.285296 0.000682 1.000000 0.300185 0.003787 1.000000 0.285341 0.000346 1.000000 0.301871 -0.000712 1.000000 0.288533 -0.000224 1.000000 0.301252 -0.000365 1.000000 0.286295 -0.000246 1.000000 0.296717 -0.003099 1.000000 0.284529 -0.003166 1.000000 0.292472 -0.002807 1.000000 0.276890 -0.003908 1.000000 0.283859 -0.006654 1.000000 0.269314 -0.006414 1.000000 0.273077 -0.009789 1.000000 0.259293 -0.007485 1.000000 0.255592 -0.010732 1.000000 0.241176 -0.011669 1.000000 0.233295 -0.015886 1.000000 0.219040 -0.017082 1.000000 0.202835 -0.021207 1.000000 0.187694 -0.024073 1.000000 0.158377 -0.027626 1.000000 0.139827 -0.036705 1.000000 0.093768 -0.038847 1.000000 0.064133 -0.061516 1.000000 0.004557 -0.075637 1.000000 -0.029777 -0.106806 1.000000 -0.121437 -0.129636 1.000000 -0.163105 -0.174255 1.000000 -0.308554 -0.205754 1.000000 
-0.348810 0.033134 1.000000 -0.504218 0.007304 1.000000 -0.607819 0.148682 1.000000 -0.757478 0.116707 1.000000 -0.803078 0.557635 1.000000 -0.882675 0.372513 1.000000 -0.552160 -0.103472 1.000000 -0.628567 -0.191457 1.000000 -0.393437 -0.148195 1.000000 -0.333093 -0.097893 1.000000 -0.241152 -0.081648 1.000000 -0.163231 -0.051634 1.000000 -0.125694 -0.044802 1.000000 -0.057226 -0.030761 1.000000 -0.047407 -0.024195 1.000000 0.012818 -0.020192 1.000000 0.003045 -0.014630 1.000000 0.062731 -0.013198 1.000000 0.036080 -0.011118 1.000000 0.097904 -0.005576 1.000000 0.059788 -0.015178 1.000000 0.122599 0.006486 1.000000 0.079042 -0.023226 1.000000 0.136855 0.015197 1.000000 0.099037 -0.022252 1.000000 0.142946 0.008177 1.000000 0.116016 -0.005036 1.000000 0.148188 -0.006968 1.000000 0.128470 0.002880 1.000000 0.151455 -0.000399 1.000000 0.139489 -0.006440 1.000000 0.153260 0.003761 1.000000 0.145657 -0.001501 1.000000 0.158314 0.000339 1.000000 0.147208 -0.005513 1.000000 0.161546 0.005537 1.000000 0.148871 -0.002723 1.000000 0.163167 -0.000880 1.000000 0.149829 -0.001215 1.000000 0.161528 0.003249 1.000000 0.151623 0.001913 1.000000 0.158497 0.000413 1.000000 0.150922 -0.000632 1.000000 0.156355 0.004978 1.000000 0.146481 0.002078 1.000000 0.152813 0.001631 1.000000 0.142343 0.001659 1.000000 0.143895 0.000876 1.000000 0.138265 0.005756 1.000000 0.133760 0.006414 1.000000 0.128964 0.005794 1.000000 0.121932 0.005361 1.000000 0.116893 0.007350 1.000000 0.103692 0.008220 1.000000 0.101244 0.011933 1.000000 0.079248 0.015788 1.000000 0.077196 0.016329 1.000000 0.046678 0.027418 1.000000 0.042566 0.013103 1.000000 0.001671 0.010693 1.000000 -0.031442 0.005628 1.000000 -0.116683 -0.001949 1.000000 -0.159413 0.004585 1.000000 -0.279162 -0.007502 1.000000 
-0.342332 -0.042038 1.000000 -0.455612 -0.022840 1.000000 -0.500899 -0.061667 1.000000 -0.452295 0.059947 1.000000 -0.312238 0.090877 1.000000 0.247443 0.367797 1.000000 0.727299 0.102980 1.000000 0.271280 0.016837 1.000000 0.421004 0.003501 1.000000 0.082955 -0.020212 1.000000 0.208950 0.018725 1.000000 0.010641 -0.023895 1.000000 0.076657 0.020074 1.000000 -0.015296 -0.020997 1.000000 -0.008452 0.017407 1.000000 -0.018004 -0.014193 1.000000 -0.069543 0.011432 1.000000 -0.009703 -0.008151 1.000000 -0.115067 0.007174 1.000000 -0.001106 -0.003228 1.000000 -0.143430 0.001182 1.000000 -0.004693 0.002328 1.000000 -0.145371 -0.002255 1.000000 -0.032179 0.002066 1.000000 -0.121062 0.000331 1.000000 -0.068632 -0.002400 1.000000 -0.104049 0.006120 1.000000 -0.076586 -0.008713 1.000000 -0.113133 0.009222 1.000000 -0.073167 -0.006427 1.000000 -0.108413 0.003447 1.000000 -0.086490 -0.000814 1.000000 -0.101865 -0.000290 1.000000 -0.082927 0.001149 1.000000 -0.107336 -0.002550 1.000000 -0.086952 0.002124 1.000000 -0.101285 -0.001275 1.000000 -0.087438 -0.001669 1.000000 -0.105237 0.001415 1.000000 -0.089745 -0.002159 1.000000 -0.097989 0.002786 1.000000 -0.087571 -0.002398 1.000000 -0.097804 -0.001025 1.000000 -0.087153 0.001634 1.000000 -0.092741 -0.000366 1.000000 -0.082182 -0.002516 1.000000 -0.090534 0.002504 1.000000 -0.084024 -0.005711 1.000000 -0.086618 0.002651 1.000000 -0.077638 -0.001432 1.000000 -0.077255 0.000159 1.000000 -0.069643 -0.003815 1.000000 -0.070361 0.001158 1.000000 -0.062456 -0.005558 1.000000 -0.059087 0.000370 1.000000 -0.048263 -0.003578 1.000000 -0.040784 -0.004135 1.000000 -0.027056 -0.004217 1.000000 -0.009120 -0.016509 1.000000 -0.021503 -0.001629 1.000000 -0.050514 0.011548 1.000000 -0.122029 -0.001664 1.000000 -0.167981 -0.011776 1.000000 -0.276486 -0.016358 1.000000 
-0.360201 0.212259 1.000000 -0.539575 0.165871 1.000000 -0.527001 0.145364 1.000000 -0.686757 -0.071953 1.000000 -0.881540 -0.142103 1.000000 -0.783501 -0.667024 1.000000 -0.271098 -0.127309 1.000000 -0.356393 0.114838 1.000000 -0.138888 0.040130 1.000000 -0.128155 0.114161 1.000000 -0.026360 -0.009334 1.000000 -0.032415 0.080659 1.000000 0.018605 -0.018865 1.000000 0.021024 0.054347 1.000000 0.025896 -0.021487 1.000000 0.055439 0.040900 1.000000 0.019738 -0.022931 1.000000 0.078278 0.032325 1.000000 0.010709 -0.019716 1.000000 0.092741 0.022787 1.000000 0.005975 -0.011591 1.000000 0.094005 0.008428 1.000000 0.014084 0.004260 1.000000 0.080036 -0.009112 1.000000 0.031762 0.014201 1.000000 0.062742 -0.008836 1.000000 0.042276 0.002919 1.000000 0.060819 0.002117 1.000000 0.036161 -0.000540 1.000000 0.066118 -0.005120 1.000000 0.036255 0.006883 1.000000 0.060543 -0.002786 1.000000 0.040331 -0.005064 1.000000 0.059463 0.005809 1.000000 0.039860 -0.001488 1.000000 0.054094 -0.000514 1.000000 0.044082 -0.002237 1.000000 0.051004 0.003072 1.000000 0.041069 0.001092 1.000000 0.049008 -0.003999 1.000000 0.042079 -0.000261 1.000000 0.049658 0.000228 1.000000 0.039716 -0.001050 1.000000 0.046031 -0.000085 1.000000 0.042392 -0.002894 1.000000 0.044114 -0.000575 1.000000 0.040076 0.003501 1.000000 0.040930 -0.003040 1.000000 0.035271 -0.000630 1.000000 0.040009 -0.002949 1.000000 0.035505 -0.002201 1.000000 0.036100 -0.001534 1.000000 0.030993 0.000162 1.000000 0.030396 -0.003054 1.000000 0.023949 -0.002260 1.000000 0.022880 -0.002516 1.000000 0.016383 -0.004878 1.000000 0.006611 -0.004246 1.000000 0.003074 0.007550 1.000000 -0.043182 0.052086 1.000000 -0.056324 0.106154 1.000000 -0.139858 0.115518 1.000000 -0.175319 0.159043 1.000000 -0.313549 0.166849 1.000000 
-0.345989 0.183988 1.000000 -0.560267 0.143960 1.000000 -1.025978 0.085515 1.000000 -1.573431 0.414486 1.000000 -2.391707 0.187621 1.000000 -2.108213 -0.242645 1.000000 -1.384348 -0.324128 1.000000 -0.990053 -0.115373 1.000000 -0.781691 -0.224737 1.000000 -0.333597 -0.132741 1.000000 -0.355605 -0.077016 1.000000 -0.062694 -0.068860 1.000000 -0.104282 -0.033365 1.000000 0.076690 -0.028289 1.000000 0.041890 -0.017008 1.000000 0.156745 -0.008035 1.000000 0.133466 -0.011407 1.000000 0.204609 0.000879 1.000000 0.195107 -0.007289 1.000000 0.235164 0.001506 1.000000 0.237747 -0.000082 1.000000 0.256971 -0.005782 1.000000 0.264477 0.011714 1.000000 0.279159 -0.015611 1.000000 0.275146 0.017625 1.000000 0.301308 -0.012914 1.000000 0.282792 0.008043 1.000000 0.310893 -0.002597 1.000000 0.295114 0.003923 1.000000 0.315624 -0.006521 1.000000 0.298729 0.009022 1.000000 0.324409 -0.004890 1.000000 0.301423 0.000790 1.000000 0.322725 0.001620 1.000000 0.308176 0.002820 1.000000 0.322742 -0.002098 1.000000 0.308090 0.001815 1.000000 0.320466 0.001344 1.000000 0.309588 0.003411 1.000000 0.319060 -0.003169 1.000000 0.304299 0.002136 1.000000 0.314910 -0.000035 1.000000 0.300692 0.002602 1.000000 0.308322 -0.001041 1.000000 0.294862 0.001551 1.000000 0.297810 -0.000200 1.000000 0.286369 0.005688 1.000000 0.289145 -0.000905 1.000000 0.273056 0.003572 1.000000 0.273369 -0.001666 1.000000 0.255761 0.004068 1.000000 0.251064 0.000697 1.000000 0.233391 0.006862 1.000000 0.222692 0.001486 1.000000 0.200545 0.007886 1.000000 0.180030 0.003988 1.000000 0.153036 0.012134 1.000000 0.113802 0.009092 1.000000 0.076278 0.033284 1.000000 0.016856 0.057769 1.000000 -0.005102 0.108224 1.000000 -0.068549 0.117331 1.000000 -0.118026 0.161915 1.000000 -0.219875 0.168525 1.000000 
-0.374066 0.552651 1.000000 -0.749105 0.845860 1.000000 -1.014967 1.158528 1.000000 -1.965521 1.293776 1.000000 -1.846588 0.392679 1.000000 -1.778171 -1.674383 1.000000 -2.082985 -1.245470 1.000000 -0.436596 -0.487818 1.000000 -0.798209 -0.616326 1.000000 -0.228523 -0.311925 1.000000 -0.307133 -0.280237 1.000000 -0.055616 -0.170664 1.000000 -0.076335 -0.158248 1.000000 0.063134 -0.091825 1.000000 0.058359 -0.101542 1.000000 0.142493 -0.050676 1.000000 0.145825 -0.070794 1.000000 0.194873 -0.029315 1.000000 0.206291 -0.050272 1.000000 0.230186 -0.019853 1.000000 0.248551 -0.033398 1.000000 0.256603 -0.018301 1.000000 0.274843 -0.017928 1.000000 0.281598 -0.019781 1.000000 0.286945 -0.007948 1.000000 0.304362 -0.016482 1.000000 0.295731 -0.006667 1.000000 0.315751 -0.010206 1.000000 0.307821 -0.005270 1.000000 0.321651 -0.008734 1.000000 0.312720 -0.001901 1.000000 0.330039 -0.005480 1.000000 0.315627 -0.003380 1.000000 0.330460 -0.000944 1.000000 0.320881 -0.001505 1.000000 0.331371 -0.000427 1.000000 0.320753 0.000039 1.000000 0.329910 0.001574 1.000000 0.321671 0.002499 1.000000 0.328106 0.001290 1.000000 0.317174 0.003888 1.000000 0.323460 0.003835 1.000000 0.313326 0.005539 1.000000 0.317101 0.005745 1.000000 0.306341 0.007619 1.000000 0.307062 0.007917 1.000000 0.297352 0.012166 1.000000 0.296765 0.010273 1.000000 0.284354 0.015146 1.000000 0.280076 0.014346 1.000000 0.265942 0.020104 1.000000 0.257306 0.020837 1.000000 0.242425 0.028534 1.000000 0.227141 0.029793 1.000000 0.208952 0.040402 1.000000 0.182802 0.044993 1.000000 0.160547 0.061351 1.000000 0.116776 0.072513 1.000000 0.086592 0.104496 1.000000 0.023715 0.133466 1.000000 0.001174 0.191560 1.000000 -0.083908 0.228442 1.000000 -0.123637 0.310369 1.000000 -0.282513 0.394813 1.000000 
-0.003034 0.650580 1.000000 -0.052840 0.784861 1.000000 0.200941 1.301931 1.000000 0.165189 1.246107 1.000000 0.591962 0.000271 1.000000 0.570855 -0.006249 1.000000 -1.062793 -1.665702 1.000000 -0.122495 -1.400148 1.000000 -0.511502 -0.432810 1.000000 -0.051313 -0.623817 1.000000 -0.202644 -0.249922 1.000000 0.053169 -0.299658 1.000000 -0.027240 -0.152115 1.000000 0.134091 -0.162982 1.000000 0.084420 -0.096367 1.000000 0.191025 -0.095501 1.000000 0.160265 -0.063787 1.000000 0.230079 -0.059587 1.000000 0.213770 -0.042602 1.000000 0.257520 -0.040754 1.000000 0.251507 -0.026499 1.000000 0.278530 -0.032074 1.000000 0.276345 -0.013280 1.000000 0.297259 -0.027714 1.000000 0.290700 -0.005140 1.000000 0.313558 -0.021699 1.000000 0.300583 -0.003346 1.000000 0.323807 -0.014687 1.000000 0.309573 -0.001977 1.000000 0.330231 -0.011421 1.000000 0.314780 0.000634 1.000000 0.335663 -0.007797 1.000000 0.318379 0.000368 1.000000 0.336913 -0.003634 1.000000 0.321960 0.001909 1.000000 0.337011 -0.001970 1.000000 0.322827 0.003277 1.000000 0.335599 0.000426 1.000000 0.322615 0.005215 1.000000 0.333336 0.001328 1.000000 0.319465 0.006782 1.000000 0.329182 0.003812 1.000000 0.315391 0.008961 1.000000 0.322966 0.005944 1.000000 0.309363 0.011590 1.000000 0.314250 0.008789 1.000000 0.300909 0.015984 1.000000 0.303962 0.012093 1.000000 0.289019 0.020261 1.000000 0.289323 0.016747 1.000000 0.273208 0.026838 1.000000 0.269571 0.024214 1.000000 0.252570 0.037026 1.000000 0.243701 0.034959 1.000000 0.224650 0.052224 1.000000 0.208403 0.052392 1.000000 0.187268 0.078160 1.000000 0.160952 0.083047 1.000000 0.138408 0.126346 1.000000 0.103015 0.143188 1.000000 0.087014 0.215848 1.000000 0.046532 0.242142 1.000000 0.033807 0.360520 1.000000 -0.018975 0.418953 1.000000 
0.071166 0.586516 1.000000 0.098213 0.641885 1.000000 0.284035 0.940499 1.000000 0.582772 0.902754 1.000000 0.586859 -0.012986 1.000000 0.581705 -0.019628 1.000000 0.588290 -0.552120 1.000000 -0.208160 -1.039109 1.000000 0.033354 -0.687509 1.000000 -0.060926 -0.620783 1.000000 -0.013402 -0.384719 1.000000 0.043444 -0.346068 1.000000 0.053473 -0.239170 1.000000 0.119075 -0.203485 1.000000 0.123830 -0.158477 1.000000 0.175088 -0.126521 1.000000 0.180971 -0.109848 1.000000 0.216067 -0.082820 1.000000 0.224759 -0.077712 1.000000 0.246295 -0.057591 1.000000 0.257026 -0.054408 1.000000 0.269810 -0.043139 1.000000 0.279092 -0.036656 1.000000 0.289730 -0.034136 1.000000 0.292914 -0.024247 1.000000 0.306147 -0.026365 1.000000 0.302718 -0.016915 1.000000 0.317107 -0.019196 1.000000 0.311083 -0.011694 1.000000 0.324262 -0.013941 1.000000 0.316349 -0.007334 1.000000 0.329779 -0.009078 1.000000 0.319800 -0.004630 1.000000 0.332013 -0.004526 1.000000 0.322567 -0.001603 1.000000 0.332758 -0.001294 1.000000 0.323177 0.001451 1.000000 0.331872 0.001786 1.000000 0.322609 0.004762 1.000000 0.329707 0.004440 1.000000 0.319696 0.008042 1.000000 0.325681 0.007908 1.000000 0.315502 0.011754 1.000000 0.319782 0.011773 1.000000 0.309237 0.016334 1.000000 0.311520 0.016371 1.000000 0.300713 0.022454 1.000000 0.301125 0.022164 1.000000 0.289073 0.029785 1.000000 0.286766 0.030157 1.000000 0.273479 0.039856 1.000000 0.267658 0.041474 1.000000 0.253249 0.054405 1.000000 0.242600 0.057713 1.000000 0.226487 0.075700 1.000000 0.209200 0.082375 1.000000 0.191449 0.108801 1.000000 0.165890 0.121372 1.000000 0.147529 0.162433 1.000000 0.114741 0.184860 1.000000 0.102068 0.248043 1.000000 0.066204 0.281649 1.000000 0.063957 0.375876 1.000000 0.033447 0.431654 1.000000 
0.237954 0.585813 1.000000 0.267892 0.571992 1.000000 0.412773 0.817372 1.000000 0.590239 0.943283 1.000000 0.576369 0.001338 1.000000 0.575155 -0.007680 1.000000 0.557974 -0.875837 1.000000 0.411056 -0.845212 1.000000 0.188200 -0.580044 1.000000 0.221189 -0.577060 1.000000 0.098285 -0.354293 1.000000 0.198327 -0.366533 1.000000 0.118250 -0.227745 1.000000 0.215602 -0.233340 1.000000 0.162008 -0.152380 1.000000 0.240076 -0.152642 1.000000 0.204223 -0.104766 1.000000 0.262413 -0.103375 1.000000 0.239129 -0.072829 1.000000 0.280927 -0.073021 1.000000 0.266015 -0.050014 1.000000 0.296346 -0.054140 1.000000 0.285367 -0.033200 1.000000 0.309724 -0.041537 1.000000 0.298476 -0.021557 1.000000 0.320932 -0.031502 1.000000 0.307746 -0.014305 1.000000 0.329050 -0.023052 1.000000 0.314823 -0.009132 1.000000 0.334605 -0.016687 1.000000 0.319638 -0.004883 1.000000 0.338375 -0.011248 1.000000 0.322926 -0.001865 1.000000 0.339946 -0.006400 1.000000 0.325188 0.001163 1.000000 0.340070 -0.002580 1.000000 0.325903 0.004163 1.000000 0.338913 0.000994 1.000000 0.325264 0.007380 1.000000 0.336622 0.004241 1.000000 0.322926 0.010808 1.000000 0.332899 0.008007 1.000000 0.319247 0.014860 1.000000 0.327553 0.012209 1.000000 0.313947 0.019853 1.000000 0.320380 0.017313 1.000000 0.306681 0.026379 1.000000 0.311306 0.023733 1.000000 0.296978 0.034620 1.000000 0.299413 0.032341 1.000000 0.284467 0.045946 1.000000 0.284139 0.044443 1.000000 0.268703 0.062084 1.000000 0.265008 0.061721 1.000000 0.249107 0.085624 1.000000 0.241458 0.087430 1.000000 0.225860 0.121471 1.000000 0.214272 0.126967 1.000000 0.201168 0.177495 1.000000 0.187773 0.188649 1.000000 0.182607 0.264384 1.000000 0.171948 0.280254 1.000000 0.183367 0.393277 1.000000 0.182112 0.411743 1.000000 
0.247593 0.500736 1.000000 0.322868 0.467066 1.000000 0.365724 0.618152 1.000000 0.579834 0.739158 1.000000 0.577638 0.002098 1.000000 0.578392 -0.001233 1.000000 0.570658 -0.388021 1.000000 0.218486 -0.669335 1.000000 0.296588 -0.497641 1.000000 0.154515 -0.530867 1.000000 0.198899 -0.361857 1.000000 0.165042 -0.366034 1.000000 0.184972 -0.256445 1.000000 0.193165 -0.247244 1.000000 0.203259 -0.182951 1.000000 0.222368 -0.168736 1.000000 0.229587 -0.132186 1.000000 0.247920 -0.117726 1.000000 0.254790 -0.096225 1.000000 0.269100 -0.084477 1.000000 0.275733 -0.069828 1.000000 0.286638 -0.062491 1.000000 0.291595 -0.050034 1.000000 0.301392 -0.047245 1.000000 0.302892 -0.035456 1.000000 0.313414 -0.035635 1.000000 0.311134 -0.025034 1.000000 0.322289 -0.026273 1.000000 0.317427 -0.017249 1.000000 0.328518 -0.018757 1.000000 0.321775 -0.011105 1.000000 0.332800 -0.012366 1.000000 0.324637 -0.006201 1.000000 0.335044 -0.006787 1.000000 0.326380 -0.001727 1.000000 0.335761 -0.002009 1.000000 0.326745 0.002608 1.000000 0.335095 0.002424 1.000000 0.325852 0.007053 1.000000 0.333141 0.006778 1.000000 0.323455 0.011765 1.000000 0.329742 0.011587 1.000000 0.319697 0.017101 1.000000 0.324789 0.017073 1.000000 0.314332 0.023507 1.000000 0.318066 0.023636 1.000000 0.307122 0.031528 1.000000 0.309398 0.031868 1.000000 0.297665 0.041678 1.000000 0.298146 0.042667 1.000000 0.285565 0.055130 1.000000 0.283886 0.057238 1.000000 0.270517 0.073536 1.000000 0.266299 0.077310 1.000000 0.252227 0.099250 1.000000 0.245334 0.105621 1.000000 0.231168 0.135987 1.000000 0.222418 0.146065 1.000000 0.209830 0.188932 1.000000 0.202359 0.203421 1.000000 0.195175 0.263867 1.000000 0.195916 0.280889 1.000000 0.199596 0.365713 1.000000 0.222049 0.377067 1.000000 
0.337243 0.484994 1.000000 0.399698 0.453862 1.000000 0.426964 0.560406 1.000000 0.572560 0.731369 1.000000 0.574786 0.002780 1.000000 0.572701 -0.000700 1.000000 0.574243 -0.515932 1.000000 0.465613 -0.571142 1.000000 0.379306 -0.516073 1.000000 0.352148 -0.479372 1.000000 0.274536 -0.364820 1.000000 0.303408 -0.352605 1.000000 0.240654 -0.255868 1.000000 0.289524 -0.251627 1.000000 0.241576 -0.181583 1.000000 0.291179 -0.178970 1.000000 0.255602 -0.130318 1.000000 0.298568 -0.128578 1.000000 0.272538 -0.094010 1.000000 0.307431 -0.093964 1.000000 0.288081 -0.067552 1.000000 0.316204 -0.070003 1.000000 0.300653 -0.047954 1.000000 0.324345 -0.052833 1.000000 0.310105 -0.033579 1.000000 0.331385 -0.039744 1.000000 0.317115 -0.023180 1.000000 0.336855 -0.029345 1.000000 0.322340 -0.015362 1.000000 0.340762 -0.021036 1.000000 0.326029 -0.009164 1.000000 0.343288 -0.014110 1.000000 0.328502 -0.004110 1.000000 0.344426 -0.008143 1.000000 0.329963 0.000446 1.000000 0.344409 -0.002946 1.000000 0.330332 0.004829 1.000000 0.343363 0.001887 1.000000 0.329613 0.009334 1.000000 0.341338 0.006638 1.000000 0.327728 0.014206 1.000000 0.338240 0.011765 1.000000 0.324722 0.019813 1.000000 0.333966 0.017574 1.000000 0.320494 0.026576 1.000000 0.328408 0.024522 1.000000 0.314889 0.035047 1.000000 0.321463 0.033190 1.000000 0.307740 0.045872 1.000000 0.312870 0.044441 1.000000 0.298978 0.060206 1.000000 0.302544 0.059491 1.000000 0.288679 0.079671 1.000000 0.290693 0.080011 1.000000 0.277262 0.106590 1.000000 0.278084 0.108489 1.000000 0.266074 0.144387 1.000000 0.266878 0.148305 1.000000 0.258290 0.197553 1.000000 0.261818 0.203304 1.000000 0.260221 0.270827 1.000000 0.271415 0.275832 1.000000 0.281862 0.367144 1.000000 0.309173 0.363746 1.000000 
0.338520 0.410211 1.000000 0.428305 0.377346 1.000000 0.418308 0.445290 1.000000 0.574443 0.591336 1.000000 0.575451 0.001957 1.000000 0.575068 -0.000691 1.000000 0.575176 -0.280933 1.000000 0.409126 -0.474398 1.000000 0.420168 -0.384176 1.000000 0.307589 -0.426097 1.000000 0.326721 -0.313117 1.000000 0.271755 -0.332152 1.000000 0.285872 -0.242561 1.000000 0.266337 -0.248165 1.000000 0.275501 -0.184605 1.000000 0.273172 -0.182762 1.000000 0.279631 -0.139575 1.000000 0.284042 -0.134661 1.000000 0.289181 -0.105088 1.000000 0.295483 -0.100021 1.000000 0.299560 -0.078601 1.000000 0.306207 -0.075063 1.000000 0.308685 -0.058175 1.000000 0.315758 -0.056698 1.000000 0.315935 -0.042495 1.000000 0.323812 -0.042645 1.000000 0.321504 -0.030503 1.000000 0.330107 -0.031498 1.000000 0.325717 -0.021156 1.000000 0.334718 -0.022445 1.000000 0.328688 -0.013630 1.000000 0.337856 -0.014839 1.000000 0.330596 -0.007339 1.000000 0.339602 -0.008249 1.000000 0.331570 -0.001710 1.000000 0.340148 -0.002378 1.000000 0.331571 0.003654 1.000000 0.339604 0.003143 1.000000 0.330597 0.009078 1.000000 0.338020 0.008664 1.000000 0.328577 0.014862 1.000000 0.335359 0.014593 1.000000 0.325500 0.021375 1.000000 0.331565 0.021301 1.000000 0.321273 0.029065 1.000000 0.326557 0.029242 1.000000 0.315783 0.038473 1.000000 0.320255 0.039016 1.000000 0.308910 0.050271 1.000000 0.312528 0.051430 1.000000 0.300614 0.065456 1.000000 0.303425 0.067537 1.000000 0.291057 0.085387 1.000000 0.293331 0.088727 1.000000 0.280776 0.111858 1.000000 0.283293 0.116809 1.000000 0.271179 0.147193 1.000000 0.275769 0.153848 1.000000 0.265299 0.193992 1.000000 0.275669 0.201490 1.000000 0.268698 0.254270 1.000000 0.291480 0.259248 1.000000 0.289703 0.327955 1.000000 0.336094 0.321686 1.000000 
0.393174 0.392784 1.000000 0.465118 0.374073 1.000000 0.456664 0.414268 1.000000 0.570604 0.574226 1.000000 0.573334 0.002155 1.000000 0.570946 -0.000425 1.000000 0.573092 -0.349990 1.000000 0.501029 -0.416134 1.000000 0.456121 -0.414536 1.000000 0.421443 -0.385925 1.000000 0.372151 -0.328985 1.000000 0.372699 -0.311756 1.000000 0.326683 -0.250450 1.000000 0.347302 -0.241255 1.000000 0.307910 -0.188418 1.000000 0.336283 -0.183100 1.000000 0.304113 -0.141188 1.000000 0.333146 -0.138129 1.000000 0.307374 -0.105451 1.000000 0.333986 -0.104342 1.000000 0.313140 -0.078276 1.000000 0.336675 -0.079128 1.000000 0.319073 -0.057506 1.000000 0.340056 -0.060083 1.000000 0.324189 -0.041633 1.000000 0.343399 -0.045313 1.000000 0.328277 -0.029475 1.000000 0.346217 -0.033558 1.000000 0.331402 -0.019974 1.000000 0.348299 -0.024007 1.000000 0.333638 -0.012302 1.000000 0.349587 -0.016018 1.000000 0.335092 -0.005856 1.000000 0.350060 -0.009117 1.000000 0.335833 -0.000100 1.000000 0.349777 -0.002947 1.000000 0.335849 0.005374 1.000000 0.348791 0.002860 1.000000 0.335129 0.010917 1.000000 0.347125 0.008659 1.000000 0.333650 0.016867 1.000000 0.344756 0.014842 1.000000 0.331419 0.023607 1.000000 0.341659 0.021801 1.000000 0.328420 0.031584 1.000000 0.337820 0.030011 1.000000 0.324641 0.041349 1.000000 0.333261 0.040063 1.000000 0.320123 0.053599 1.000000 0.328050 0.052737 1.000000 0.315040 0.069308 1.000000 0.322453 0.069048 1.000000 0.309805 0.089766 1.000000 0.317105 0.090293 1.000000 0.305265 0.116628 1.000000 0.313276 0.118086 1.000000 0.303048 0.151911 1.000000 0.313342 0.154185 1.000000 0.305999 0.197653 1.000000 0.321347 0.199905 1.000000 0.318507 0.255016 1.000000 0.343432 0.254828 1.000000 0.346081 0.322530 1.000000 0.387946 0.314929 1.000000 
0.395175 0.333039 1.000000 0.479249 0.313856 1.000000 0.458109 0.339804 1.000000 0.572415 0.474666 1.000000 0.573741 0.001615 1.000000 0.572852 -0.000449 1.000000 0.573615 -0.211017 1.000000 0.480411 -0.357427 1.000000 0.476621 -0.304590 1.000000 0.396513 -0.342127 1.000000 0.401812 -0.264373 1.000000 0.349673 -0.286685 1.000000 0.356595 -0.217164 1.000000 0.327802 -0.229392 1.000000 0.333611 -0.173586 1.000000 0.320058 -0.178965 1.000000 0.324479 -0.136438 1.000000 0.319594 -0.137922 1.000000 0.322856 -0.105928 1.000000 0.322562 -0.105787 1.000000 0.324692 -0.081290 1.000000 0.326928 -0.080996 1.000000 0.327676 -0.061556 1.000000 0.331606 -0.061814 1.000000 0.330669 -0.045838 1.000000 0.335957 -0.046732 1.000000 0.333237 -0.033322 1.000000 0.339601 -0.034623 1.000000 0.335252 -0.023237 1.000000 0.342387 -0.024681 1.000000 0.336667 -0.014919 1.000000 0.344301 -0.016293 1.000000 0.337489 -0.007811 1.000000 0.345359 -0.008990 1.000000 0.337733 -0.001427 1.000000 0.345625 -0.002394 1.000000 0.337374 0.004640 1.000000 0.345152 0.003863 1.000000 0.336391 0.010745 1.000000 0.343977 0.010143 1.000000 0.334755 0.017231 1.000000 0.342108 0.016824 1.000000 0.332456 0.024473 1.000000 0.339555 0.024299 1.000000 0.329479 0.032903 1.000000 0.336341 0.033021 1.000000 0.325834 0.043032 1.000000 0.332530 0.043534 1.000000 0.321586 0.055482 1.000000 0.328272 0.056513 1.000000 0.316937 0.071053 1.000000 0.323932 0.072772 1.000000 0.312335 0.090735 1.000000 0.320254 0.093267 1.000000 0.308646 0.115687 1.000000 0.318635 0.119026 1.000000 0.307445 0.147127 1.000000 0.321517 0.150897 1.000000 0.311343 0.185987 1.000000 0.332836 0.188982 1.000000 0.324202 0.232185 1.000000 0.358270 0.231674 1.000000 0.350766 0.283441 1.000000 0.404870 0.274593 1.000000 
0.430512 0.318405 1.000000 0.498085 0.311139 1.000000 0.481935 0.321101 1.000000 0.569360 0.458594 1.000000 0.572076 0.001718 1.000000 0.569650 -0.000299 1.000000 0.571951 -0.257549 1.000000 0.522571 -0.319139 1.000000 0.494005 -0.330638 1.000000 0.462577 -0.311117 1.000000 0.428886 -0.282146 1.000000 0.418962 -0.266539 1.000000 0.384908 -0.228579 1.000000 0.390522 -0.218272 1.000000 0.358930 -0.180675 1.000000 0.373339 -0.173968 1.000000 0.345492 -0.140723 1.000000 0.363652 -0.136506 1.000000 0.339695 -0.108419 1.000000 0.358643 -0.106178 1.000000 0.338037 -0.082641 1.000000 0.356428 -0.082113 1.000000 0.338318 -0.062184 1.000000 0.355791 -0.063075 1.000000 0.339308 -0.045985 1.000000 0.355929 -0.047881 1.000000 0.340409 -0.033118 1.000000 0.356311 -0.035574 1.000000 0.341356 -0.022760 1.000000 0.356624 -0.025422 1.000000 0.342033 -0.014216 1.000000 0.356699 -0.016840 1.000000 0.342398 -0.006914 1.000000 0.356447 -0.009360 1.000000 0.342430 -0.000365 1.000000 0.355846 -0.002589 1.000000 0.342105 0.005846 1.000000 0.354898 0.003843 1.000000 0.341405 0.012093 1.000000 0.353612 0.010295 1.000000 0.340325 0.018736 1.000000 0.352000 0.017141 1.000000 0.338887 0.026160 1.000000 0.350089 0.024778 1.000000 0.337130 0.034799 1.000000 0.347946 0.033657 1.000000 0.335138 0.045160 1.000000 0.345704 0.044311 1.000000 0.333080 0.057857 1.000000 0.343605 0.057386 1.000000 0.331271 0.073649 1.000000 0.342102 0.073650 1.000000 0.330270 0.093443 1.000000 0.341988 0.093981 1.000000 0.331004 0.118248 1.000000 0.344576 0.119288 1.000000 0.334946 0.149029 1.000000 0.351928 0.150287 1.000000 0.344243 0.186334 1.000000 0.367032 0.187046 1.000000 0.361653 0.229582 1.000000 0.393782 0.228264 1.000000 0.389949 0.275930 1.000000 0.436456 0.270520 1.000000 