# vtk DataFile Version 2.0
Comment goes here
ASCII

DATASET STRUCTURED_POINTS
DIMENSIONS    64   64   1

ORIGIN    0.000   0.000   0.000
SPACING   0.0156250.015625   1.000

POINT_DATA   4096
VECTORS u double

6.469707 3.529832 1.000000 -0.270229 -0.457107 1.000000 2.547498 -9.202475 1.000000 -1.184790 -2.790482 1.000000 5.865034 4.674394 1.000000 -4.753368 -1.847782 1.000000 4.866478 4.154213 1.000000 -0.440779 0.999974 1.000000 6.821497 -4.191359 1.000000 -5.715116 -0.700992 1.000000 4.817322 3.661385 1.000000 -0.701613 1.878915 1.000000 4.750544 -1.268459 1.000000 -0.654003 1.626010 1.000000 0.022239 -0.271130 1.000000 0.167742 0.960375 1.000000 1.061331 0.442737 1.000000 0.743417 0.456479 1.000000 0.877376 -0.060553 1.000000 0.454701 0.244142 1.000000 0.915033 -0.190148 1.000000 0.970606 0.605760 1.000000 0.965969 -0.072384 1.000000 1.371498 0.575842 1.000000 1.137093 -0.005921 1.000000 1.353317 0.383712 1.000000 1.407030 -0.229479 1.000000 1.555834 0.345301 1.000000 1.423385 -0.358778 1.000000 1.983139 0.182503 1.000000 1.553690 -0.062268 1.000000 2.275585 -0.025115 1.000000 1.894470 0.444825 1.000000 2.366621 -0.020266 1.000000 2.258845 0.877435 1.000000 2.293977 0.016164 1.000000 2.406481 1.019348 1.000000 1.958810 -0.294406 1.000000 2.583032 0.752335 1.000000 1.479971 -0.060271 1.000000 2.824673 0.129801 1.000000 1.326978 0.182613 1.000000 2.915363 -0.449770 1.000000 0.929334 -0.119314 1.000000 3.113440 -0.346294 1.000000 0.540728 -0.328776 1.000000 3.261069 -0.081726 1.000000 1.296299 0.222105 1.000000 2.325478 -0.741048 1.000000 2.630427 1.126628 1.000000 1.061284 -1.359519 1.000000 2.182776 1.157383 1.000000 1.325121 -0.201717 1.000000 1.734555 0.877364 1.000000 -0.406843 -0.047882 1.000000 2.047535 -1.059050 1.000000 2.354214 -0.705572 1.000000 3.119325 -1.684644 1.000000 3.092987 1.561561 1.000000 0.750137 -3.005729 1.000000 4.314382 0.708652 1.000000 2.867188 -4.326570 1.000000 2.796772 -0.813228 1.000000 1.073993 4.235155 1.000000 
1.109069 -1.083545 1.000000 2.455772 -3.481982 1.000000 -0.095334 2.009916 1.000000 -7.304347 -2.696258 1.000000 -1.889331 0.044148 1.000000 -5.001455 -0.505464 1.000000 -5.257867 -1.178403 1.000000 -0.568548 2.164250 1.000000 -0.266070 4.096632 1.000000 -1.815576 3.297864 1.000000 -3.552223 2.172030 1.000000 3.423105 2.164501 1.000000 -1.681252 -2.490237 1.000000 1.660385 4.593913 1.000000 0.721954 0.862210 1.000000 1.503713 0.312459 1.000000 1.677008 -1.641987 1.000000 0.974635 -0.571831 1.000000 1.759121 -1.062059 1.000000 0.514467 -0.026946 1.000000 1.409955 -0.849641 1.000000 0.732548 0.511148 1.000000 1.009360 -0.415307 1.000000 1.122494 0.345016 1.000000 1.274178 0.057584 1.000000 1.106386 0.121632 1.000000 1.740742 -0.273733 1.000000 1.511050 0.316324 1.000000 1.667102 -0.544785 1.000000 2.191872 0.034838 1.000000 1.757742 -0.275471 1.000000 2.427728 -0.400396 1.000000 2.207361 0.127657 1.000000 2.255377 -0.550587 1.000000 2.746446 0.444363 1.000000 2.205372 -0.376768 1.000000 3.087208 0.777736 1.000000 1.844806 -0.409887 1.000000 3.447668 0.930123 1.000000 1.224029 -0.288915 1.000000 3.522772 0.337110 1.000000 1.395424 0.173671 1.000000 3.009748 0.071961 1.000000 1.912067 0.283433 1.000000 2.257294 -0.218187 1.000000 2.819332 -0.043589 1.000000 1.273413 -0.818134 1.000000 3.484004 0.117214 1.000000 0.874523 -1.013025 1.000000 3.030923 0.639967 1.000000 1.657863 0.115348 1.000000 2.648617 -0.695875 1.000000 2.516598 0.473590 1.000000 2.447883 0.738199 1.000000 3.445027 -0.906072 1.000000 -0.815867 -2.392254 1.000000 1.476035 -4.488250 1.000000 -3.006960 0.071784 1.000000 2.458611 3.066591 1.000000 -2.853114 0.867789 1.000000 0.625645 2.298858 1.000000 2.242998 -1.204453 1.000000 1.329262 0.431615 1.000000 0.352950 -1.526355 1.000000 
1.462559 1.427010 1.000000 -3.857356 0.747296 1.000000 -2.067829 0.557643 1.000000 0.580644 -0.996486 1.000000 0.348534 2.371503 1.000000 -2.967767 1.520755 1.000000 -6.443085 -0.278695 1.000000 -2.324378 -3.991823 1.000000 -8.181651 -2.944331 1.000000 -0.612410 2.585161 1.000000 -3.164384 -1.577295 1.000000 1.831205 0.007944 1.000000 -2.099877 0.494260 1.000000 0.925285 -0.777195 1.000000 1.860302 -0.114457 1.000000 2.384689 0.005321 1.000000 1.628014 0.971815 1.000000 1.731941 0.374366 1.000000 0.998555 0.399615 1.000000 1.286829 0.593308 1.000000 0.997078 -0.408229 1.000000 0.955466 1.006355 1.000000 1.342849 -0.462330 1.000000 1.066012 0.311023 1.000000 1.478650 0.010187 1.000000 1.405803 -0.082852 1.000000 1.302326 -0.634142 1.000000 1.413216 0.418941 1.000000 1.040205 -1.039601 1.000000 1.070835 0.091863 1.000000 0.579594 -0.298124 1.000000 0.838020 -0.474735 1.000000 0.040009 0.617176 1.000000 0.808065 -0.559351 1.000000 0.117892 0.927440 1.000000 0.592286 -0.324598 1.000000 1.158008 1.379914 1.000000 0.326658 -0.654866 1.000000 2.289876 1.373112 1.000000 0.461768 -0.135375 1.000000 2.698620 -0.041594 1.000000 0.928614 0.695637 1.000000 2.447577 -0.966413 1.000000 1.646564 0.633139 1.000000 1.727585 -1.253558 1.000000 2.144072 0.655105 1.000000 0.575574 -0.746398 1.000000 2.394454 0.620995 1.000000 -0.158625 -0.287967 1.000000 2.091394 0.343289 1.000000 0.075427 -0.977213 1.000000 1.502778 0.298648 1.000000 -0.532764 -0.000983 1.000000 1.449774 -0.051065 1.000000 1.222476 3.215868 1.000000 1.807662 0.909942 1.000000 0.554922 1.485522 1.000000 -4.465264 -2.667220 1.000000 1.992536 1.407714 1.000000 -3.731984 -1.172763 1.000000 5.394199 -4.387460 1.000000 -0.008716 -5.030187 1.000000 0.683447 1.076820 1.000000 3.770213 4.455349 1.000000 
0.594822 6.544024 1.000000 -0.971305 0.048406 1.000000 -0.853360 -2.428084 1.000000 0.576513 -5.112621 1.000000 -3.373798 3.592558 1.000000 1.710370 6.286156 1.000000 0.481620 -1.821791 1.000000 2.079453 3.902816 1.000000 -1.797613 2.384664 1.000000 2.244068 -1.719402 1.000000 -0.435386 -0.271585 1.000000 -0.623722 1.099994 1.000000 1.155883 -1.584317 1.000000 -1.951151 0.633733 1.000000 0.150656 -0.597194 1.000000 -1.724604 0.544747 1.000000 -0.589743 -0.989239 1.000000 -0.129886 0.057629 1.000000 -1.289084 -0.616947 1.000000 0.545182 -0.025469 1.000000 -1.099517 -0.518278 1.000000 -0.347907 0.165376 1.000000 0.128988 -0.525853 1.000000 -1.054496 0.209215 1.000000 -0.146148 -0.282207 1.000000 -0.193526 0.297956 1.000000 -1.159954 -0.281146 1.000000 -0.302929 0.578444 1.000000 -0.816717 -0.202404 1.000000 -1.164286 0.495450 1.000000 -0.870222 -0.042656 1.000000 -0.931778 0.139189 1.000000 -1.729192 0.157612 1.000000 -0.168659 -0.628471 1.000000 -1.987367 0.660142 1.000000 -0.443359 -1.416883 1.000000 -1.121192 1.043365 1.000000 -0.374635 -1.541756 1.000000 -1.322886 0.795013 1.000000 0.851583 -0.697658 1.000000 -1.664759 -0.129736 1.000000 0.751771 0.424715 1.000000 -0.941653 -0.645990 1.000000 -0.029507 1.003424 1.000000 -0.713411 -0.715695 1.000000 -0.211604 1.108422 1.000000 -1.226002 -1.068515 1.000000 0.201991 0.851413 1.000000 -1.757086 -0.709965 1.000000 0.682028 0.405915 1.000000 -1.717765 0.703964 1.000000 0.542519 -0.087684 1.000000 -0.982714 0.526594 1.000000 0.265157 -1.017041 1.000000 -0.796365 -1.263960 1.000000 0.612371 -1.724700 1.000000 1.726696 1.784676 1.000000 0.910255 -1.365830 1.000000 0.631281 2.333311 1.000000 1.186166 -2.533875 1.000000 0.995421 -1.424409 1.000000 -1.294670 3.506298 1.000000 -1.577835 -3.347314 1.000000 -1.098050 -2.305467 1.000000 
0.218997 1.300265 1.000000 5.604950 2.195478 1.000000 1.219578 -0.990174 1.000000 -0.286374 1.523952 1.000000 -4.373250 1.237645 1.000000 6.713718 -2.334663 1.000000 -0.963082 -0.647778 1.000000 0.389887 -1.712589 1.000000 3.903482 -3.108946 1.000000 0.939737 1.222933 1.000000 -1.654085 1.290495 1.000000 1.429165 -1.583325 1.000000 -0.045354 1.821689 1.000000 0.640022 0.228031 1.000000 0.927354 -0.341004 1.000000 -0.043150 0.745721 1.000000 0.403228 -0.622903 1.000000 -0.104086 1.073707 1.000000 -0.042678 -0.275454 1.000000 0.123744 0.403741 1.000000 -0.015678 0.484860 1.000000 -0.151584 -0.222150 1.000000 0.330228 0.244260 1.000000 -0.509839 0.586160 1.000000 0.028931 -0.850784 1.000000 0.058650 0.930955 1.000000 -0.190147 -0.524739 1.000000 0.424572 0.075703 1.000000 0.607577 -0.178244 1.000000 0.495408 0.145368 1.000000 1.379490 -0.530633 1.000000 0.886669 0.384236 1.000000 1.538056 -0.145942 1.000000 1.237888 -0.301175 1.000000 1.167912 1.202140 1.000000 1.233526 -1.190773 1.000000 0.399592 1.311191 1.000000 1.126538 -0.453172 1.000000 -1.210695 0.146894 1.000000 1.364185 0.206498 1.000000 -2.192661 0.058218 1.000000 1.050834 -0.027469 1.000000 -1.786745 -0.185136 1.000000 0.237855 0.404897 1.000000 -0.609813 -1.071461 1.000000 -0.294452 1.167696 1.000000 0.504235 -1.159993 1.000000 -0.175861 1.152080 1.000000 0.488068 -0.768004 1.000000 0.042482 0.303967 1.000000 0.412676 -0.837703 1.000000 -0.297485 -0.436403 1.000000 0.672084 0.276379 1.000000 -0.791010 -0.237413 1.000000 0.275250 2.868654 1.000000 -1.923142 -1.613120 1.000000 -3.042665 1.187637 1.000000 1.262922 -1.571805 1.000000 -2.949989 1.131803 1.000000 1.864107 -1.536903 1.000000 -1.961168 -1.906624 1.000000 0.628627 -2.456931 1.000000 3.566721 0.880200 1.000000 -3.557759 2.282692 1.000000 
6.829334 -2.618685 1.000000 2.525159 -0.952175 1.000000 3.216578 3.463240 1.000000 -1.662846 0.480206 1.000000 2.029972 -3.407533 1.000000 2.184241 2.875988 1.000000 1.127635 4.502040 1.000000 2.484778 -0.963748 1.000000 1.456940 1.834814 1.000000 -0.761951 3.838164 1.000000 5.784143 -0.761013 1.000000 1.557322 -0.508737 1.000000 2.065621 -0.795174 1.000000 -1.659820 -0.338974 1.000000 -0.864887 0.085977 1.000000 0.069037 1.068872 1.000000 0.318128 -0.928302 1.000000 0.777991 0.503535 1.000000 1.457276 -0.844777 1.000000 1.029487 -0.052469 1.000000 1.705343 -0.242950 1.000000 1.597403 -0.180530 1.000000 1.472455 -0.167599 1.000000 1.982369 0.510512 1.000000 1.850668 -0.850696 1.000000 1.702582 0.517034 1.000000 2.561067 -0.647068 1.000000 1.755586 -0.219280 1.000000 2.697146 -0.273240 1.000000 1.939851 -0.276462 1.000000 2.854090 -0.433917 1.000000 1.732041 -0.019377 1.000000 3.157575 -0.193608 1.000000 1.730542 -0.258328 1.000000 2.886274 0.664505 1.000000 2.617400 -0.648563 1.000000 1.813353 1.150352 1.000000 3.478140 0.068531 1.000000 1.219837 0.557366 1.000000 3.370170 0.284308 1.000000 1.403546 0.183615 1.000000 3.004418 0.018799 1.000000 2.023938 0.166989 1.000000 2.209247 -0.173508 1.000000 3.301871 -0.183388 1.000000 1.136134 -0.005626 1.000000 4.623752 -1.187106 1.000000 1.316765 0.867581 1.000000 4.349805 -0.928308 1.000000 3.114511 0.481306 1.000000 2.913890 1.043931 1.000000 3.696897 -0.347092 1.000000 2.872107 1.020119 1.000000 2.728127 -0.620208 1.000000 3.664669 -0.131828 1.000000 3.000012 1.593215 1.000000 3.692310 -1.401389 1.000000 3.770590 -1.458505 1.000000 2.059609 1.732126 1.000000 3.202930 -3.522696 1.000000 2.404700 -0.188929 1.000000 2.628827 -2.021592 1.000000 4.125642 0.839072 1.000000 0.456916 1.042258 1.000000 
-2.341022 -0.767978 1.000000 -6.632846 5.808235 1.000000 -4.448011 3.197831 1.000000 3.186458 2.710557 1.000000 -5.040254 -2.609441 1.000000 -0.269171 -1.432325 1.000000 -2.106025 -0.948315 1.000000 4.259523 -2.041894 1.000000 -6.884837 0.137783 1.000000 3.774181 -3.104270 1.000000 -0.213510 -1.028778 1.000000 1.914226 2.135198 1.000000 -1.694029 5.038831 1.000000 -0.741803 3.158539 1.000000 -3.682388 -2.069861 1.000000 0.264759 -0.437295 1.000000 0.248569 -1.331858 1.000000 1.740405 -0.065441 1.000000 1.585917 -0.526949 1.000000 1.674939 0.155674 1.000000 1.805013 -0.083057 1.000000 1.882956 0.010737 1.000000 1.807184 -0.140706 1.000000 2.057420 0.207947 1.000000 2.119141 -0.570997 1.000000 1.702396 0.220556 1.000000 2.630149 -0.577743 1.000000 1.641979 -0.060376 1.000000 2.611792 -0.362509 1.000000 1.680742 -0.011576 1.000000 2.519255 -0.322822 1.000000 1.471243 0.080751 1.000000 2.743522 -0.144444 1.000000 1.402679 -0.029875 1.000000 2.819629 0.315282 1.000000 1.846106 -0.117852 1.000000 2.447092 0.450451 1.000000 2.605695 0.140344 1.000000 2.599911 0.254864 1.000000 2.835821 0.022789 1.000000 2.912699 0.423970 1.000000 2.775629 -0.647861 1.000000 2.971770 0.610036 1.000000 2.918735 -0.873037 1.000000 2.882688 0.001652 1.000000 2.787782 -0.154185 1.000000 3.363017 -1.340624 1.000000 1.285302 1.426027 1.000000 4.699862 -2.565750 1.000000 0.324774 1.739882 1.000000 4.740503 -1.420089 1.000000 2.584491 -0.394619 1.000000 3.173296 1.245149 1.000000 4.162639 -1.029975 1.000000 3.500699 2.596769 1.000000 2.601958 -1.640762 1.000000 5.419299 0.417059 1.000000 0.827013 0.060897 1.000000 4.934445 1.699463 1.000000 1.032323 -1.881994 1.000000 1.732211 -1.332521 1.000000 1.062161 -4.177873 1.000000 -2.077532 3.052111 1.000000 -2.566989 -0.421000 1.000000 
2.042646 1.447171 1.000000 -1.382098 1.154815 1.000000 3.271741 -6.356064 1.000000 5.774370 1.072449 1.000000 3.260405 0.048096 1.000000 3.163729 -0.058242 1.000000 1.809010 -0.026654 1.000000 3.008474 3.815065 1.000000 -1.302221 2.320155 1.000000 1.357456 -2.833162 1.000000 -3.901019 1.098942 1.000000 0.373031 0.971782 1.000000 -2.480164 1.860855 1.000000 2.414074 1.649385 1.000000 -1.220919 -0.920584 1.000000 0.309361 -2.862085 1.000000 0.750554 -2.403948 1.000000 2.366044 -0.833814 1.000000 2.443464 -0.779311 1.000000 2.706574 -0.271564 1.000000 2.932112 -0.450966 1.000000 2.850445 -0.182701 1.000000 2.604501 -0.342063 1.000000 2.501584 0.198555 1.000000 2.388387 -0.495672 1.000000 2.114484 0.006025 1.000000 2.511935 -0.586651 1.000000 1.905540 -0.200923 1.000000 2.470103 -0.312003 1.000000 1.867633 -0.183926 1.000000 2.517639 -0.224418 1.000000 1.858496 -0.243645 1.000000 2.707301 -0.125043 1.000000 1.935943 -0.334434 1.000000 2.858887 0.221078 1.000000 2.185158 -0.276026 1.000000 2.963839 0.390763 1.000000 2.345476 -0.084288 1.000000 3.331416 0.327240 1.000000 2.280727 -0.028480 1.000000 3.594556 0.243807 1.000000 2.459114 -0.040272 1.000000 3.198148 0.023883 1.000000 3.055474 -0.084426 1.000000 2.512679 -0.052435 1.000000 3.290340 -0.485955 1.000000 2.535221 0.315374 1.000000 2.157800 -0.469264 1.000000 3.846525 0.032220 1.000000 -0.138441 0.440665 1.000000 4.873912 -1.215785 1.000000 -1.150177 1.220115 1.000000 4.275648 -0.558030 1.000000 -0.534839 -0.947611 1.000000 4.448438 1.428854 1.000000 0.764900 -0.325385 1.000000 2.712755 0.373556 1.000000 1.856301 -0.973651 1.000000 3.977880 1.526817 1.000000 1.170710 -0.320461 1.000000 5.903754 -0.218768 1.000000 -1.699995 1.788151 1.000000 0.269988 4.468222 1.000000 3.189705 1.305748 1.000000 
3.366422 3.803825 1.000000 6.581538 4.579139 1.000000 3.985820 -3.958637 1.000000 3.169460 2.721893 1.000000 3.072841 0.001201 1.000000 3.142166 0.019070 1.000000 2.961467 -0.793060 1.000000 4.226134 1.069337 1.000000 4.495792 1.788801 1.000000 5.054924 -0.505473 1.000000 2.128287 -0.044353 1.000000 4.003938 0.714342 1.000000 1.743437 2.997788 1.000000 3.132420 1.899295 1.000000 2.517270 0.034852 1.000000 3.552640 -2.408768 1.000000 2.501376 -3.388540 1.000000 2.462963 -1.758351 1.000000 1.307879 -0.867480 1.000000 2.019388 -0.332973 1.000000 2.181493 -0.226928 1.000000 2.338534 0.338348 1.000000 2.004334 0.208155 1.000000 2.004481 0.424061 1.000000 2.216971 -0.183897 1.000000 2.029756 0.097008 1.000000 2.781857 -0.368799 1.000000 2.132695 -0.018544 1.000000 2.921444 -0.324602 1.000000 2.010501 -0.059113 1.000000 2.873674 -0.313685 1.000000 1.896659 -0.108911 1.000000 2.880713 -0.221891 1.000000 1.935578 -0.181461 1.000000 2.861643 0.066066 1.000000 2.211631 -0.222804 1.000000 2.878474 0.290133 1.000000 2.461214 -0.227234 1.000000 3.106941 0.319613 1.000000 2.462473 -0.240350 1.000000 3.456838 0.245583 1.000000 2.345006 -0.251452 1.000000 3.717321 0.013676 1.000000 2.262045 -0.187568 1.000000 3.723201 -0.233214 1.000000 2.415096 -0.176726 1.000000 3.165607 -0.208084 1.000000 3.095681 0.114723 1.000000 2.397211 -0.269510 1.000000 3.666353 0.712495 1.000000 2.243363 -0.408353 1.000000 2.990366 0.203645 1.000000 3.204783 0.629810 1.000000 2.384595 -1.202766 1.000000 2.189603 1.297030 1.000000 4.260678 0.094921 1.000000 1.381750 -0.674342 1.000000 3.394987 -1.204228 1.000000 2.408870 2.385055 1.000000 3.202026 -3.807868 1.000000 2.824162 1.538184 1.000000 1.157330 1.455893 1.000000 2.511713 -1.837589 1.000000 4.143726 -2.193658 1.000000 
1.173652 -0.990640 1.000000 3.277569 0.535417 1.000000 -0.365108 -2.943986 1.000000 3.131960 1.985428 1.000000 3.153130 0.075389 1.000000 3.185793 0.053132 1.000000 3.174655 -1.110621 1.000000 3.004230 2.280740 1.000000 2.042182 1.491365 1.000000 5.111198 -0.465658 1.000000 3.208381 2.149927 1.000000 2.213012 1.356632 1.000000 2.502609 2.732373 1.000000 3.107229 0.875552 1.000000 4.674078 -1.340804 1.000000 6.720908 -2.846190 1.000000 4.199919 -1.314272 1.000000 1.879555 0.359682 1.000000 0.595900 -0.335736 1.000000 0.883820 -1.145178 1.000000 1.078805 -0.770113 1.000000 1.510570 -0.005542 1.000000 2.001672 -0.008010 1.000000 2.396158 -0.014082 1.000000 2.950381 -0.520947 1.000000 2.779500 -0.558861 1.000000 3.149847 -0.689590 1.000000 2.579266 -0.340510 1.000000 3.122034 -0.189809 1.000000 2.446870 -0.136155 1.000000 3.180209 -0.110576 1.000000 2.392374 -0.250684 1.000000 3.241011 -0.163962 1.000000 2.347499 -0.315364 1.000000 3.210270 -0.054976 1.000000 2.399529 -0.292857 1.000000 3.199234 0.141181 1.000000 2.467335 -0.312756 1.000000 3.356043 0.325981 1.000000 2.410866 -0.378376 1.000000 3.594699 0.361274 1.000000 2.329297 -0.300755 1.000000 3.762786 0.106844 1.000000 2.086678 -0.090306 1.000000 4.108479 -0.205487 1.000000 1.317191 0.071639 1.000000 4.733181 -0.365210 1.000000 0.510291 0.299131 1.000000 5.233998 -0.538452 1.000000 0.379063 0.594514 1.000000 5.542619 -0.539798 1.000000 0.512348 0.258694 1.000000 5.365646 0.047741 1.000000 1.461424 0.067569 1.000000 4.105237 -0.447229 1.000000 2.514644 0.482468 1.000000 4.406142 1.239247 1.000000 1.217798 -2.000771 1.000000 3.902146 1.719778 1.000000 2.200213 -0.735753 1.000000 -0.064302 1.825927 1.000000 5.766391 2.100600 1.000000 -1.695174 1.481827 1.000000 4.488752 0.451039 1.000000 
0.530300 5.015007 1.000000 5.222055 6.117899 1.000000 -1.069900 -3.813028 1.000000 2.844087 -0.796344 1.000000 3.137611 -0.052633 1.000000 3.089538 -0.002455 1.000000 3.193950 -0.611497 1.000000 2.257614 2.201810 1.000000 5.588719 -0.318167 1.000000 5.277815 -1.671672 1.000000 2.506868 2.853833 1.000000 2.890888 1.420115 1.000000 3.382484 2.103572 1.000000 5.125025 -0.272174 1.000000 4.449628 -3.578827 1.000000 4.479850 -1.934610 1.000000 2.953887 1.452813 1.000000 2.446056 1.845668 1.000000 2.224988 0.128255 1.000000 2.889615 -0.815878 1.000000 3.309318 -0.853678 1.000000 3.584373 -0.584519 1.000000 3.322266 -0.677433 1.000000 3.397222 -0.524649 1.000000 3.564410 -0.567238 1.000000 3.089894 -0.102458 1.000000 2.896707 -0.168565 1.000000 2.090671 0.009270 1.000000 2.588080 -0.192206 1.000000 1.980657 -0.117288 1.000000 2.875760 -0.259189 1.000000 2.165227 -0.169712 1.000000 3.115938 -0.177016 1.000000 2.324654 -0.150720 1.000000 3.137713 0.014036 1.000000 2.527421 -0.211768 1.000000 3.017276 0.222327 1.000000 2.792125 -0.384042 1.000000 2.929742 0.376081 1.000000 2.950541 -0.479007 1.000000 2.993354 0.327152 1.000000 2.904599 -0.419539 1.000000 3.180685 0.256295 1.000000 2.755561 -0.533262 1.000000 3.360098 0.536272 1.000000 2.512190 -0.801428 1.000000 3.604196 0.598816 1.000000 2.021607 -0.386094 1.000000 3.914499 -0.138282 1.000000 1.867491 0.403874 1.000000 3.359199 -0.541638 1.000000 2.694739 0.380619 1.000000 2.327151 -0.319266 1.000000 3.326259 0.057643 1.000000 2.439326 0.243811 1.000000 2.055952 -0.205984 1.000000 4.102719 0.622505 1.000000 1.333862 -0.700232 1.000000 3.868167 1.402639 1.000000 0.968857 0.158579 1.000000 4.287057 -2.027994 1.000000 2.448817 3.086764 1.000000 3.922549 -0.559949 1.000000 6.042158 -5.062483 1.000000 
1.193634 -0.170537 1.000000 5.670813 2.135617 1.000000 4.387030 -0.566018 1.000000 3.303271 -2.222083 1.000000 3.181920 -0.170062 1.000000 3.222286 -0.003208 1.000000 3.156062 -0.278698 1.000000 3.073214 -0.114029 1.000000 4.260965 -1.528836 1.000000 2.663906 2.616193 1.000000 2.324394 4.536855 1.000000 2.880490 0.481016 1.000000 4.168988 0.498236 1.000000 6.054280 -0.191593 1.000000 3.285219 -0.695629 1.000000 2.351792 -1.350448 1.000000 2.085941 0.719523 1.000000 2.384046 1.088581 1.000000 3.461769 -0.779295 1.000000 4.248881 -2.229508 1.000000 3.863526 -1.464871 1.000000 3.151218 -0.018490 1.000000 2.914746 0.179141 1.000000 2.636230 -0.256226 1.000000 2.651981 -0.213618 1.000000 2.133196 0.108843 1.000000 2.591548 0.309632 1.000000 2.220593 -0.031883 1.000000 3.155588 -0.079794 1.000000 2.531436 -0.423836 1.000000 3.522859 -0.295147 1.000000 2.533184 -0.490862 1.000000 3.657072 -0.323389 1.000000 2.473812 -0.337139 1.000000 3.670658 -0.257743 1.000000 2.535150 -0.172420 1.000000 3.507836 -0.123522 1.000000 2.690886 -0.225222 1.000000 3.333619 0.167565 1.000000 2.646298 -0.441988 1.000000 3.557045 0.407215 1.000000 2.171926 -0.488086 1.000000 4.067709 0.255883 1.000000 1.907648 -0.269719 1.000000 3.941963 0.037884 1.000000 2.442126 -0.172459 1.000000 3.446882 0.125373 1.000000 2.659322 -0.011171 1.000000 3.785404 -0.384336 1.000000 2.448322 1.149814 1.000000 3.537021 -1.367046 1.000000 3.161337 1.290743 1.000000 3.183597 -0.583778 1.000000 2.481875 -0.044606 1.000000 3.713334 0.823078 1.000000 2.970083 -1.180925 1.000000 2.779903 1.961337 1.000000 3.289388 -1.766219 1.000000 3.822972 2.084782 1.000000 3.358884 -1.154643 1.000000 3.179114 0.345967 1.000000 2.893289 2.465108 1.000000 5.021956 -2.111514 1.000000 0.595433 3.843287 1.000000 
3.702067 -0.060374 1.000000 3.837972 2.924502 1.000000 5.552757 -1.445485 1.000000 3.437306 0.408766 1.000000 3.144851 0.028352 1.000000 3.231258 0.023403 1.000000 3.134316 -0.462424 1.000000 3.056707 1.096907 1.000000 2.275992 0.091141 1.000000 1.652320 0.264899 1.000000 4.080568 2.637249 1.000000 4.709310 -0.424480 1.000000 4.883314 -1.070218 1.000000 4.687995 0.611595 1.000000 3.821547 0.123661 1.000000 3.161561 -0.735331 1.000000 2.316816 1.420558 1.000000 4.010225 0.469839 1.000000 4.172374 -1.736580 1.000000 2.752380 -1.217634 1.000000 0.850881 0.243985 1.000000 0.534889 0.364260 1.000000 0.974011 -0.162444 1.000000 1.766357 -0.261884 1.000000 2.391302 -0.064205 1.000000 2.684342 -0.042025 1.000000 2.989270 -0.255962 1.000000 2.693909 -0.554770 1.000000 3.108203 -0.503049 1.000000 2.738840 -0.484559 1.000000 3.210483 -0.260938 1.000000 2.458856 -0.303925 1.000000 3.139105 -0.117643 1.000000 2.181023 -0.164306 1.000000 3.208362 -0.047302 1.000000 2.207872 -0.048947 1.000000 3.280927 0.066591 1.000000 2.521272 -0.209825 1.000000 3.173516 0.420669 1.000000 2.946073 -0.702434 1.000000 3.037548 0.801523 1.000000 3.106562 -0.930202 1.000000 3.122729 0.520574 1.000000 2.942379 -0.407516 1.000000 3.240338 0.001794 1.000000 2.884044 -0.306347 1.000000 2.975002 0.381620 1.000000 3.327417 -0.724617 1.000000 2.440834 0.072718 1.000000 3.597404 0.652257 1.000000 2.832147 -1.254653 1.000000 2.499382 0.734042 1.000000 4.092705 0.360196 1.000000 1.680428 -0.472093 1.000000 3.768674 -0.244397 1.000000 3.249549 0.727447 1.000000 2.402963 0.303199 1.000000 3.810274 -1.743301 1.000000 3.012094 1.333143 1.000000 3.935243 0.802437 1.000000 1.522816 -1.562399 1.000000 4.497533 1.243922 1.000000 3.315804 1.737907 1.000000 2.473535 -1.234160 1.000000 
0.675637 -1.534974 1.000000 4.956523 0.284927 1.000000 2.504274 -0.165352 1.000000 3.156445 0.185823 1.000000 3.187082 0.035986 1.000000 3.195668 0.007327 1.000000 3.214082 -0.104146 1.000000 2.635703 0.744295 1.000000 3.033153 -0.124449 1.000000 2.839083 0.811618 1.000000 4.400601 1.479865 1.000000 4.614610 -0.321730 1.000000 4.053294 0.519550 1.000000 3.872281 0.870174 1.000000 3.495281 0.830805 1.000000 2.947126 0.154282 1.000000 2.977699 -0.129141 1.000000 3.828379 -0.766977 1.000000 3.808804 0.478551 1.000000 3.111727 1.091985 1.000000 2.565361 0.752620 1.000000 3.084479 -0.141620 1.000000 3.960782 -1.052326 1.000000 3.688534 -1.673517 1.000000 3.313503 -1.131604 1.000000 2.694598 -0.489126 1.000000 2.859709 0.300065 1.000000 2.562503 -0.150816 1.000000 3.458352 -0.124725 1.000000 3.018864 -0.526115 1.000000 3.590044 -0.015163 1.000000 2.652181 -0.419485 1.000000 3.638657 -0.045556 1.000000 2.524954 -0.406396 1.000000 3.925239 -0.284593 1.000000 2.548466 -0.244984 1.000000 4.011438 -0.436922 1.000000 2.585131 -0.117812 1.000000 3.727972 -0.257236 1.000000 2.684926 -0.306020 1.000000 3.429458 0.246726 1.000000 2.491551 -0.573267 1.000000 3.770645 0.420065 1.000000 1.781865 -0.387328 1.000000 4.100412 0.096220 1.000000 1.806007 0.092877 1.000000 3.163695 -0.318001 1.000000 2.923364 0.522997 1.000000 2.389901 -0.654322 1.000000 2.761404 0.758501 1.000000 3.203662 -0.269025 1.000000 2.530899 0.030184 1.000000 2.446119 0.235176 1.000000 3.580043 0.279424 1.000000 2.594891 -0.746044 1.000000 2.351814 0.184787 1.000000 3.184948 1.400612 1.000000 3.329343 -2.375351 1.000000 1.628203 1.959814 1.000000 3.573801 0.334635 1.000000 2.285875 -0.216323 1.000000 2.932504 0.672120 1.000000 2.918077 -0.087516 1.000000 3.945855 3.457025 1.000000 
3.716201 -1.071042 1.000000 3.591246 1.095866 1.000000 3.319472 0.354592 1.000000 3.167631 -0.274042 1.000000 3.153273 -0.010871 1.000000 3.192367 -0.003597 1.000000 3.161934 0.097541 1.000000 3.093307 1.277836 1.000000 3.297305 -0.112239 1.000000 3.323329 -1.102550 1.000000 4.214695 0.861722 1.000000 3.974908 -0.077173 1.000000 3.609820 -0.327889 1.000000 3.509440 1.169609 1.000000 3.442643 1.048817 1.000000 3.930061 -0.217750 1.000000 3.539703 0.539304 1.000000 3.208056 -0.361266 1.000000 3.045228 -1.019927 1.000000 3.626590 0.025809 1.000000 3.470304 0.271233 1.000000 3.726914 -1.031160 1.000000 3.402787 -0.766500 1.000000 2.174972 0.385395 1.000000 1.231542 0.929731 1.000000 1.147295 0.411769 1.000000 1.642942 -0.123867 1.000000 1.635395 -1.153414 1.000000 2.707886 -0.959410 1.000000 3.013409 -0.616251 1.000000 3.635484 0.105746 1.000000 2.964950 -0.352539 1.000000 3.350444 0.009583 1.000000 2.657482 -0.450887 1.000000 3.380700 -0.070814 1.000000 2.850785 -0.135146 1.000000 3.597457 0.029926 1.000000 2.980225 0.073642 1.000000 3.808736 0.320875 1.000000 2.713804 -0.403920 1.000000 4.021850 0.994898 1.000000 2.363302 -1.271389 1.000000 3.856292 1.230260 1.000000 2.846406 -0.737283 1.000000 2.693000 -0.022347 1.000000 4.007213 0.630370 1.000000 1.768751 -0.735737 1.000000 4.028208 0.049177 1.000000 2.450282 0.234678 1.000000 3.155683 -0.161503 1.000000 3.354214 -1.024148 1.000000 2.593761 1.491585 1.000000 3.815377 -0.688948 1.000000 2.508231 -0.620866 1.000000 3.532289 0.983832 1.000000 2.731432 0.137390 1.000000 2.801095 -0.674330 1.000000 3.500644 -0.186556 1.000000 1.616764 1.088685 1.000000 3.855653 0.144765 1.000000 1.451897 -0.921101 1.000000 4.542012 0.611721 1.000000 0.781867 0.724556 1.000000 4.115528 1.008279 1.000000 
3.263727 -1.010692 1.000000 3.341494 0.681657 1.000000 3.264239 0.258263 1.000000 3.209800 0.352022 1.000000 3.183348 0.011249 1.000000 3.202724 -0.001334 1.000000 3.186697 -0.005086 1.000000 3.029741 0.608924 1.000000 3.932265 -0.354471 1.000000 3.221354 -0.105772 1.000000 3.331594 0.828286 1.000000 3.608731 0.283145 1.000000 3.447026 0.985019 1.000000 3.109232 1.037351 1.000000 3.787223 0.410183 1.000000 3.696790 0.057223 1.000000 3.649154 0.592865 1.000000 3.578874 -0.272503 1.000000 3.416899 0.060017 1.000000 3.267328 0.666909 1.000000 3.481063 0.652296 1.000000 3.197453 -0.074102 1.000000 3.041198 0.499615 1.000000 2.488209 0.497728 1.000000 3.186084 -0.103926 1.000000 2.891843 -0.900526 1.000000 3.060741 -0.188035 1.000000 2.192047 -1.215760 1.000000 3.138443 -1.502740 1.000000 2.740629 -1.453713 1.000000 3.578328 0.033297 1.000000 2.365425 -0.134445 1.000000 3.339574 0.261912 1.000000 2.352215 -0.436652 1.000000 3.716853 -0.477895 1.000000 2.626291 -0.461741 1.000000 3.959973 -0.566363 1.000000 2.585294 -0.329091 1.000000 4.049178 0.009185 1.000000 2.388980 -0.519134 1.000000 4.148060 0.597228 1.000000 2.134947 -0.407709 1.000000 4.184268 -0.063039 1.000000 2.131084 0.775965 1.000000 4.044043 -1.064587 1.000000 2.960662 1.017125 1.000000 3.172233 -0.338996 1.000000 4.485466 -0.158533 1.000000 2.286509 0.218203 1.000000 4.350034 -0.145431 1.000000 3.478672 0.292897 1.000000 2.191554 -0.430979 1.000000 4.946618 0.320707 1.000000 2.116713 0.562512 1.000000 3.533806 -0.969245 1.000000 3.697875 0.915981 1.000000 2.883474 0.631400 1.000000 3.176806 -1.191020 1.000000 3.445322 1.604805 1.000000 2.832534 0.499503 1.000000 2.690445 -0.902683 1.000000 3.832608 1.342150 1.000000 2.181219 0.338968 1.000000 3.257016 0.522690 1.000000 