# vtk DataFile Version 2.0
Comment goes here
ASCII

DATASET STRUCTURED_POINTS
DIMENSIONS    64   64   1

ORIGIN    0.000   0.000   0.000
SPACING   0.0156250.015625   1.000

POINT_DATA   4096
VECTORS u double

2.317022 1.524534 1.000000 -0.456032 -0.995067 1.000000 -2.795049 -2.763884 1.000000 -2.404155 -0.967141 1.000000 -4.676671 -0.310831 1.000000 -2.897806 0.039563 1.000000 -3.630695 1.520900 1.000000 -1.446585 0.641972 1.000000 -2.300131 1.219929 1.000000 -0.802798 0.188647 1.000000 -1.163165 0.618682 1.000000 -0.277908 1.054929 1.000000 -0.554342 -0.155322 1.000000 -0.051015 0.465377 1.000000 -0.070898 0.090324 1.000000 0.153554 0.227594 1.000000 0.222762 0.080759 1.000000 0.313898 0.154330 1.000000 0.414691 0.051586 1.000000 0.440747 0.117128 1.000000 0.546740 0.025378 1.000000 0.544457 0.097670 1.000000 0.636955 0.004960 1.000000 0.629395 0.086194 1.000000 0.698781 -0.010500 1.000000 0.701057 0.077842 1.000000 0.739522 -0.018202 1.000000 0.759886 0.066680 1.000000 0.768750 -0.017548 1.000000 0.804900 0.052762 1.000000 0.790742 -0.010727 1.000000 0.835082 0.035646 1.000000 0.811905 -0.002628 1.000000 0.853735 0.020698 1.000000 0.830262 0.005575 1.000000 0.861474 0.007574 1.000000 0.847958 0.011097 1.000000 0.860872 -0.000837 1.000000 0.861263 0.012917 1.000000 0.855194 -0.006837 1.000000 0.871238 0.012936 1.000000 0.843311 -0.009291 1.000000 0.874599 0.009235 1.000000 0.829622 -0.010576 1.000000 0.870579 0.006247 1.000000 0.810583 -0.013035 1.000000 0.861230 0.003522 1.000000 0.785659 -0.014521 1.000000 0.841551 0.001458 1.000000 0.754700 -0.019448 1.000000 0.813188 0.002442 1.000000 0.715654 -0.027010 1.000000 0.772167 0.007161 1.000000 0.673601 -0.037709 1.000000 0.710343 0.025701 1.000000 0.627965 -0.056543 1.000000 0.626644 0.071050 1.000000 0.574974 -0.075910 1.000000 0.509556 0.160714 1.000000 0.486304 -0.048783 1.000000 0.293196 0.232416 1.000000 0.465925 -0.130072 1.000000 0.889631 -1.047991 1.000000 2.167522 -0.282614 1.000000 
-2.053263 0.330224 1.000000 -3.242890 1.201429 1.000000 -2.486290 -0.908551 1.000000 -4.669315 0.797293 1.000000 -3.044093 -0.121298 1.000000 -3.823552 1.101751 1.000000 -3.115026 0.872310 1.000000 -2.666070 -0.195435 1.000000 -2.184509 1.015510 1.000000 -0.891473 0.543530 1.000000 -1.766351 0.408728 1.000000 -0.089447 0.070871 1.000000 -0.478487 0.545789 1.000000 -0.102607 0.050034 1.000000 0.055105 0.361055 1.000000 0.127409 0.073945 1.000000 0.314884 0.241569 1.000000 0.324091 0.079150 1.000000 0.476672 0.157485 1.000000 0.469080 0.077592 1.000000 0.590760 0.095215 1.000000 0.579396 0.079087 1.000000 0.669640 0.052164 1.000000 0.664113 0.078720 1.000000 0.725122 0.020950 1.000000 0.734851 0.077141 1.000000 0.760425 0.003873 1.000000 0.792596 0.067263 1.000000 0.786711 -0.000457 1.000000 0.835921 0.053261 1.000000 0.806213 0.004468 1.000000 0.862708 0.032279 1.000000 0.828357 0.009966 1.000000 0.878971 0.015264 1.000000 0.846864 0.016541 1.000000 0.884258 -0.001963 1.000000 0.865694 0.019700 1.000000 0.882148 -0.012007 1.000000 0.877468 0.017288 1.000000 0.877481 -0.020970 1.000000 0.885837 0.013984 1.000000 0.865646 -0.024447 1.000000 0.885651 0.002912 1.000000 0.854357 -0.027023 1.000000 0.876466 -0.005976 1.000000 0.835753 -0.033782 1.000000 0.863373 -0.016305 1.000000 0.809261 -0.037873 1.000000 0.836534 -0.028819 1.000000 0.774644 -0.049724 1.000000 0.800828 -0.041311 1.000000 0.725278 -0.065368 1.000000 0.750468 -0.061508 1.000000 0.665954 -0.083953 1.000000 0.672135 -0.079344 1.000000 0.584430 -0.118758 1.000000 0.569560 -0.087053 1.000000 0.462517 -0.156227 1.000000 0.446472 -0.057717 1.000000 0.194787 -0.124306 1.000000 -0.013063 -0.113203 1.000000 -0.420784 -0.956525 1.000000 -1.145704 -2.030287 1.000000 -3.963833 -1.625319 1.000000 
-1.679706 0.803591 1.000000 -1.643931 -0.562040 1.000000 0.441799 -1.337459 1.000000 0.136520 -0.409339 1.000000 -1.512643 -1.156595 1.000000 -2.013339 0.110496 1.000000 -2.019140 0.363418 1.000000 -1.045069 -0.288545 1.000000 -2.069241 -0.554669 1.000000 -0.357768 -0.229511 1.000000 -1.059996 -0.183344 1.000000 -0.388987 -0.232935 1.000000 -0.531157 -0.142162 1.000000 -0.194163 -0.068215 1.000000 -0.156963 -0.139693 1.000000 -0.077127 -0.032185 1.000000 0.089981 -0.115923 1.000000 0.031227 -0.007458 1.000000 0.229036 -0.093403 1.000000 0.135053 0.003040 1.000000 0.299437 -0.084939 1.000000 0.223558 0.018789 1.000000 0.340667 -0.079756 1.000000 0.286163 0.030712 1.000000 0.375681 -0.081239 1.000000 0.324387 0.042538 1.000000 0.408827 -0.075947 1.000000 0.347352 0.040395 1.000000 0.438892 -0.060873 1.000000 0.361111 0.033260 1.000000 0.465533 -0.037514 1.000000 0.371768 0.013502 1.000000 0.483973 -0.018891 1.000000 0.381602 0.002192 1.000000 0.496748 0.000288 1.000000 0.387867 -0.011256 1.000000 0.504825 0.013207 1.000000 0.391424 -0.012611 1.000000 0.508530 0.017584 1.000000 0.392556 -0.015206 1.000000 0.505182 0.024771 1.000000 0.394947 -0.009106 1.000000 0.493090 0.020524 1.000000 0.398271 -0.001390 1.000000 0.471683 0.024851 1.000000 0.402376 0.000058 1.000000 0.443216 0.030015 1.000000 0.401341 0.012318 1.000000 0.414677 0.036074 1.000000 0.388919 0.016259 1.000000 0.388062 0.051808 1.000000 0.363673 0.023351 1.000000 0.362562 0.066485 1.000000 0.328317 0.040623 1.000000 0.335070 0.107224 1.000000 0.299207 0.046032 1.000000 0.300206 0.192963 1.000000 0.319536 0.047178 1.000000 0.265803 0.428444 1.000000 0.407429 0.410752 1.000000 0.131240 0.847987 1.000000 0.381495 1.002569 1.000000 -0.998897 2.495059 1.000000 -1.653463 0.624945 1.000000 
0.182337 0.320692 1.000000 -0.631950 -0.920076 1.000000 0.569322 -2.689001 1.000000 1.174227 2.751735 1.000000 -0.025476 2.028560 1.000000 0.855240 1.608248 1.000000 1.626973 -0.095960 1.000000 1.218340 -0.145334 1.000000 1.217831 0.328209 1.000000 0.470424 -0.465715 1.000000 0.627074 0.439947 1.000000 0.343983 -0.457967 1.000000 0.090666 0.350966 1.000000 0.154728 -0.324160 1.000000 -0.053127 0.244019 1.000000 -0.062488 -0.173000 1.000000 -0.085296 0.133215 1.000000 -0.217165 -0.059906 1.000000 -0.098935 0.053659 1.000000 -0.285039 0.007191 1.000000 -0.135932 0.006710 1.000000 -0.310013 0.037856 1.000000 -0.162804 -0.010442 1.000000 -0.328758 0.043706 1.000000 -0.163964 -0.017274 1.000000 -0.368134 0.043995 1.000000 -0.135172 -0.019092 1.000000 -0.416873 0.037198 1.000000 -0.101636 -0.014215 1.000000 -0.458525 0.026621 1.000000 -0.070451 -0.006190 1.000000 -0.475311 0.013839 1.000000 -0.068168 0.000132 1.000000 -0.474432 0.002489 1.000000 -0.075505 0.010276 1.000000 -0.457848 -0.010039 1.000000 -0.096301 0.016143 1.000000 -0.432450 -0.015713 1.000000 -0.113726 0.016157 1.000000 -0.407614 -0.017622 1.000000 -0.139949 0.011593 1.000000 -0.367604 -0.012355 1.000000 -0.167853 -0.000412 1.000000 -0.328801 -0.005616 1.000000 -0.198443 -0.010082 1.000000 -0.276831 -0.005315 1.000000 -0.239065 -0.015270 1.000000 -0.222629 -0.009333 1.000000 -0.258473 -0.016397 1.000000 -0.180687 -0.023109 1.000000 -0.264808 -0.016064 1.000000 -0.146301 -0.039868 1.000000 -0.253104 -0.026153 1.000000 -0.134224 -0.056461 1.000000 -0.215569 -0.050234 1.000000 -0.115654 -0.083895 1.000000 -0.199694 -0.107382 1.000000 -0.058138 -0.121824 1.000000 -0.239867 -0.145610 1.000000 0.306299 0.010256 1.000000 0.322107 -0.087269 1.000000 0.630188 0.173612 1.000000 1.247573 0.004670 1.000000 1.604495 -0.944511 1.000000 
-1.999290 3.040037 1.000000 0.731893 -0.949025 1.000000 -2.815024 -3.143637 1.000000 -4.155583 0.185459 1.000000 -1.870357 -0.837607 1.000000 -3.262674 -1.541953 1.000000 0.386154 0.000318 1.000000 -2.300901 0.120597 1.000000 0.197262 0.193247 1.000000 -1.038541 0.361245 1.000000 -0.019323 -0.056902 1.000000 -0.422099 0.303473 1.000000 0.131280 0.047093 1.000000 -0.083404 0.075578 1.000000 0.111111 0.077523 1.000000 0.092548 -0.000015 1.000000 0.130840 0.038754 1.000000 0.141794 0.006180 1.000000 0.166338 -0.025529 1.000000 0.143803 0.040038 1.000000 0.192451 -0.059964 1.000000 0.126591 0.045661 1.000000 0.215458 -0.061011 1.000000 0.103884 0.031872 1.000000 0.236982 -0.041863 1.000000 0.071072 0.013746 1.000000 0.264518 -0.027209 1.000000 0.034205 0.006860 1.000000 0.287044 -0.019220 1.000000 0.003738 0.002074 1.000000 0.301606 -0.020729 1.000000 -0.011214 0.011219 1.000000 0.297184 -0.019770 1.000000 -0.015622 0.009529 1.000000 0.284089 -0.016297 1.000000 -0.007095 0.009540 1.000000 0.259344 -0.012191 1.000000 0.008335 0.004814 1.000000 0.234871 -0.007252 1.000000 0.023326 0.011017 1.000000 0.206359 -0.015238 1.000000 0.042702 0.018798 1.000000 0.181012 -0.018279 1.000000 0.054404 0.029200 1.000000 0.158912 -0.027118 1.000000 0.066349 0.040680 1.000000 0.132286 -0.024188 1.000000 0.075631 0.031726 1.000000 0.113075 -0.005868 1.000000 0.078067 0.022593 1.000000 0.091727 0.017423 1.000000 0.078261 0.011647 1.000000 0.069341 0.054408 1.000000 0.066362 0.003088 1.000000 0.050148 0.088655 1.000000 0.056205 0.030157 1.000000 0.004177 0.135448 1.000000 0.072833 0.087352 1.000000 -0.112251 0.064006 1.000000 0.221993 -0.151222 1.000000 0.075124 0.524099 1.000000 0.347298 0.077102 1.000000 0.755894 1.520751 1.000000 -0.418153 1.690181 1.000000 
-0.323707 -0.829354 1.000000 3.353253 -0.104341 1.000000 -2.900057 2.198474 1.000000 -2.456101 1.807068 1.000000 -4.233795 1.135652 1.000000 -4.270237 -0.648262 1.000000 -2.980584 -1.057733 1.000000 -2.442168 0.043558 1.000000 -1.947151 -0.934151 1.000000 -0.666140 -0.249130 1.000000 -1.225967 -0.176495 1.000000 -0.075465 -0.608570 1.000000 -0.212599 0.012271 1.000000 0.225233 -0.303991 1.000000 0.200500 0.068067 1.000000 0.501125 -0.192729 1.000000 0.422143 0.083969 1.000000 0.677827 -0.095403 1.000000 0.575640 0.051650 1.000000 0.770492 -0.018921 1.000000 0.702628 0.023923 1.000000 0.817689 0.014849 1.000000 0.798267 0.012265 1.000000 0.848080 0.022182 1.000000 0.862296 0.015538 1.000000 0.876988 0.016460 1.000000 0.900266 0.017774 1.000000 0.902319 0.014672 1.000000 0.924655 0.016252 1.000000 0.922573 0.012058 1.000000 0.937820 0.008762 1.000000 0.933689 0.018261 1.000000 0.951303 0.004541 1.000000 0.939349 0.015584 1.000000 0.957867 0.001749 1.000000 0.941836 0.014705 1.000000 0.960444 0.000714 1.000000 0.941638 0.008761 1.000000 0.955342 0.001165 1.000000 0.940464 0.010890 1.000000 0.949882 -0.007783 1.000000 0.929562 0.012992 1.000000 0.943340 -0.012114 1.000000 0.913687 0.016484 1.000000 0.936481 -0.022026 1.000000 0.886853 0.021311 1.000000 0.930450 -0.024553 1.000000 0.854956 0.009877 1.000000 0.909979 -0.018833 1.000000 0.825800 -0.001761 1.000000 0.873790 -0.016259 1.000000 0.800700 -0.017482 1.000000 0.814303 -0.014254 1.000000 0.792988 -0.037268 1.000000 0.719781 -0.040077 1.000000 0.810865 -0.037924 1.000000 0.598961 -0.124010 1.000000 0.884911 -0.005395 1.000000 0.472785 -0.294770 1.000000 0.938632 -0.177119 1.000000 0.126963 -0.212573 1.000000 1.665542 -0.507158 1.000000 0.335850 0.770121 1.000000 2.004583 1.810673 1.000000 
-0.260419 1.691366 1.000000 -2.457434 1.627324 1.000000 -2.723428 2.665718 1.000000 -4.734240 1.519197 1.000000 -3.407296 0.976529 1.000000 -3.595498 -2.795163 1.000000 -4.033596 -1.827751 1.000000 -1.350508 -0.912835 1.000000 -1.881392 -1.582781 1.000000 -0.750005 -0.359939 1.000000 -0.355180 -0.647577 1.000000 -0.368966 -0.709895 1.000000 -0.005651 -0.253605 1.000000 0.057683 -0.337521 1.000000 0.276488 -0.198369 1.000000 0.364889 -0.221659 1.000000 0.443693 -0.137948 1.000000 0.577978 -0.147317 1.000000 0.570779 -0.118193 1.000000 0.708435 -0.086950 1.000000 0.682798 -0.107161 1.000000 0.787119 -0.049978 1.000000 0.772718 -0.091402 1.000000 0.838278 -0.032157 1.000000 0.838741 -0.070771 1.000000 0.878636 -0.024224 1.000000 0.882304 -0.052540 1.000000 0.910564 -0.017529 1.000000 0.912938 -0.039474 1.000000 0.934291 -0.011092 1.000000 0.932844 -0.031844 1.000000 0.947450 -0.002263 1.000000 0.951035 -0.025430 1.000000 0.953909 0.002965 1.000000 0.961936 -0.018784 1.000000 0.955078 0.006963 1.000000 0.968518 -0.011993 1.000000 0.952424 0.009916 1.000000 0.967059 -0.006079 1.000000 0.947611 0.016476 1.000000 0.963690 -0.004336 1.000000 0.933476 0.025340 1.000000 0.957618 -0.002404 1.000000 0.913724 0.036058 1.000000 0.949598 -0.000285 1.000000 0.882534 0.046712 1.000000 0.941235 0.007710 1.000000 0.843456 0.052197 1.000000 0.919965 0.023288 1.000000 0.800450 0.058782 1.000000 0.884529 0.042522 1.000000 0.749519 0.071133 1.000000 0.826746 0.062120 1.000000 0.691878 0.097611 1.000000 0.731553 0.070778 1.000000 0.610690 0.150976 1.000000 0.590856 0.061401 1.000000 0.464710 0.213528 1.000000 0.403684 0.010285 1.000000 0.158797 0.194600 1.000000 0.013060 -0.202811 1.000000 -0.017823 -0.131785 1.000000 -0.323897 1.181710 1.000000 0.999034 2.349739 1.000000 
-0.394012 2.627113 1.000000 1.315682 2.358667 1.000000 -1.384515 4.475281 1.000000 0.460697 2.490937 1.000000 1.548920 -0.003090 1.000000 1.493654 -0.021963 1.000000 -1.184282 -3.302723 1.000000 -0.767879 -2.108645 1.000000 -0.599053 -1.534654 1.000000 -0.622612 -1.775343 1.000000 -0.129404 -0.557534 1.000000 -0.014524 -0.958098 1.000000 0.015825 -0.414378 1.000000 0.362457 -0.586131 1.000000 0.296638 -0.239139 1.000000 0.575662 -0.359933 1.000000 0.495622 -0.129120 1.000000 0.726395 -0.222489 1.000000 0.634656 -0.078807 1.000000 0.823214 -0.130940 1.000000 0.741443 -0.054762 1.000000 0.882782 -0.075071 1.000000 0.823036 -0.038895 1.000000 0.921409 -0.043841 1.000000 0.882084 -0.024820 1.000000 0.950166 -0.027103 1.000000 0.922431 -0.014153 1.000000 0.972394 -0.015962 1.000000 0.950161 -0.007475 1.000000 0.988515 -0.007847 1.000000 0.969104 -0.004397 1.000000 0.997779 0.000070 1.000000 0.983830 -0.001917 1.000000 1.001638 0.004683 1.000000 0.993404 0.000579 1.000000 1.001683 0.008123 1.000000 0.998248 0.003368 1.000000 0.998927 0.010221 1.000000 0.997945 0.005978 1.000000 0.993463 0.014259 1.000000 0.994954 0.006353 1.000000 0.982427 0.019064 1.000000 0.990150 0.007638 1.000000 0.965774 0.024504 1.000000 0.983987 0.009164 1.000000 0.942287 0.029675 1.000000 0.975399 0.014525 1.000000 0.914367 0.031147 1.000000 0.958376 0.024173 1.000000 0.885727 0.033675 1.000000 0.929503 0.034673 1.000000 0.858560 0.040302 1.000000 0.884615 0.043387 1.000000 0.836551 0.057925 1.000000 0.819664 0.041111 1.000000 0.821689 0.102773 1.000000 0.732215 0.021970 1.000000 0.823442 0.181777 1.000000 0.591325 0.011143 1.000000 0.849061 0.213506 1.000000 0.256241 -0.035953 1.000000 0.745436 -0.170201 1.000000 -0.609391 -0.246735 1.000000 2.025109 1.747195 1.000000 
-0.792272 2.400794 1.000000 0.079009 2.617828 1.000000 -1.420522 3.520703 1.000000 1.497015 -1.414239 1.000000 1.508478 -0.056428 1.000000 1.518053 -0.061961 1.000000 1.481437 0.433782 1.000000 0.956128 -1.498065 1.000000 0.716278 -1.728049 1.000000 -0.230966 -0.829588 1.000000 0.379974 -1.255665 1.000000 0.057672 -0.855124 1.000000 0.381519 -0.630586 1.000000 0.291704 -0.618334 1.000000 0.458587 -0.411575 1.000000 0.473472 -0.420643 1.000000 0.558412 -0.288681 1.000000 0.619387 -0.286351 1.000000 0.650664 -0.215012 1.000000 0.725282 -0.193737 1.000000 0.732436 -0.166730 1.000000 0.798795 -0.131570 1.000000 0.800528 -0.130029 1.000000 0.850396 -0.091205 1.000000 0.853521 -0.099528 1.000000 0.888657 -0.064571 1.000000 0.892279 -0.074768 1.000000 0.917301 -0.045259 1.000000 0.920356 -0.055594 1.000000 0.937776 -0.030035 1.000000 0.940336 -0.041109 1.000000 0.950463 -0.016990 1.000000 0.955409 -0.029290 1.000000 0.956956 -0.006609 1.000000 0.965277 -0.018828 1.000000 0.958397 0.002118 1.000000 0.970649 -0.009237 1.000000 0.955588 0.010220 1.000000 0.971258 -0.000615 1.000000 0.948640 0.019467 1.000000 0.968792 0.006700 1.000000 0.935585 0.030144 1.000000 0.963534 0.014249 1.000000 0.916333 0.042222 1.000000 0.955469 0.023202 1.000000 0.889291 0.055300 1.000000 0.943658 0.035630 1.000000 0.854818 0.069220 1.000000 0.923574 0.051928 1.000000 0.812997 0.087655 1.000000 0.892529 0.069690 1.000000 0.761001 0.116022 1.000000 0.846678 0.084129 1.000000 0.694073 0.162561 1.000000 0.781980 0.085639 1.000000 0.599637 0.238425 1.000000 0.699253 0.059649 1.000000 0.456834 0.354418 1.000000 0.592927 -0.015334 1.000000 0.256016 0.529683 1.000000 0.340181 -0.099185 1.000000 -0.076636 0.733848 1.000000 -0.727258 -0.097963 1.000000 -0.531625 2.134359 1.000000 
-0.117097 2.016479 1.000000 1.707116 2.986918 1.000000 0.676869 3.057275 1.000000 1.493321 -0.438064 1.000000 1.492109 -0.024129 1.000000 1.498696 0.005078 1.000000 1.453384 -2.740798 1.000000 0.641365 -1.343485 1.000000 -0.557432 -0.347559 1.000000 0.363902 -1.439039 1.000000 0.098644 -0.846172 1.000000 0.407228 -0.959643 1.000000 0.375958 -0.648410 1.000000 0.586119 -0.663199 1.000000 0.526676 -0.420908 1.000000 0.714359 -0.459759 1.000000 0.642126 -0.275034 1.000000 0.808858 -0.314741 1.000000 0.733917 -0.184702 1.000000 0.875978 -0.212713 1.000000 0.807791 -0.128274 1.000000 0.921685 -0.143163 1.000000 0.866243 -0.090496 1.000000 0.953011 -0.096834 1.000000 0.910680 -0.063080 1.000000 0.975523 -0.065862 1.000000 0.943096 -0.042798 1.000000 0.991954 -0.044038 1.000000 0.966316 -0.027950 1.000000 1.003288 -0.027828 1.000000 0.982791 -0.017084 1.000000 1.009824 -0.015003 1.000000 0.994646 -0.008410 1.000000 1.012267 -0.005184 1.000000 1.002406 -0.000862 1.000000 1.011382 0.002750 1.000000 1.006481 0.006177 1.000000 1.007618 0.009612 1.000000 1.007203 0.012925 1.000000 1.000826 0.016725 1.000000 1.005534 0.019408 1.000000 0.990031 0.024321 1.000000 1.002042 0.026889 1.000000 0.974782 0.032569 1.000000 0.996792 0.036206 1.000000 0.954710 0.041486 1.000000 0.988926 0.048999 1.000000 0.930368 0.051231 1.000000 0.976269 0.065994 1.000000 0.902320 0.064719 1.000000 0.957424 0.086669 1.000000 0.869556 0.086153 1.000000 0.931897 0.110315 1.000000 0.828193 0.122623 1.000000 0.900798 0.135547 1.000000 0.767568 0.185499 1.000000 0.866389 0.164773 1.000000 0.664040 0.288103 1.000000 0.823248 0.211961 1.000000 0.465825 0.466252 1.000000 0.731391 0.296698 1.000000 0.135694 0.897237 1.000000 0.278036 0.208254 1.000000 -0.166875 1.812210 1.000000 
0.515094 0.526803 1.000000 0.834230 1.823862 1.000000 2.550197 3.734497 1.000000 1.545879 -2.229479 1.000000 1.500952 -0.061803 1.000000 1.531657 -0.023236 1.000000 1.511280 1.291113 1.000000 -0.464808 0.512751 1.000000 1.515060 -1.450586 1.000000 0.747901 -1.485664 1.000000 1.042544 -1.298991 1.000000 0.611926 -1.132438 1.000000 0.715449 -0.809477 1.000000 0.561014 -0.769051 1.000000 0.663668 -0.539815 1.000000 0.624327 -0.536093 1.000000 0.692958 -0.383180 1.000000 0.704718 -0.378141 1.000000 0.743155 -0.282132 1.000000 0.776153 -0.267612 1.000000 0.795804 -0.212437 1.000000 0.832603 -0.190022 1.000000 0.843270 -0.161355 1.000000 0.875336 -0.135642 1.000000 0.882500 -0.122040 1.000000 0.907475 -0.096987 1.000000 0.913017 -0.091199 1.000000 0.931307 -0.068479 1.000000 0.935988 -0.066929 1.000000 0.948177 -0.046510 1.000000 0.952850 -0.047644 1.000000 0.958904 -0.028845 1.000000 0.965047 -0.031733 1.000000 0.964413 -0.014369 1.000000 0.973080 -0.017944 1.000000 0.965434 -0.001957 1.000000 0.977400 -0.005473 1.000000 0.962396 0.009498 1.000000 0.978272 0.006177 1.000000 0.955246 0.021136 1.000000 0.976313 0.017495 1.000000 0.943280 0.033636 1.000000 0.971739 0.029498 1.000000 0.926009 0.047471 1.000000 0.964384 0.043275 1.000000 0.902648 0.063167 1.000000 0.953461 0.059972 1.000000 0.872658 0.081877 1.000000 0.937240 0.079975 1.000000 0.834938 0.106500 1.000000 0.914565 0.102454 1.000000 0.786612 0.141549 1.000000 0.885056 0.125492 1.000000 0.722177 0.193660 1.000000 0.850766 0.146264 1.000000 0.631133 0.272835 1.000000 0.819863 0.163177 1.000000 0.497800 0.397559 1.000000 0.809786 0.182881 1.000000 0.311119 0.621540 1.000000 0.856290 0.230946 1.000000 0.130839 1.187203 1.000000 0.915593 0.204606 1.000000 0.201095 2.529491 1.000000 
2.337358 1.383344 1.000000 -0.539248 0.951815 1.000000 3.579201 2.345627 1.000000 1.611277 0.611182 1.000000 1.509109 -0.009907 1.000000 1.541522 -0.005250 1.000000 1.483933 -0.744333 1.000000 2.625267 -1.347265 1.000000 1.943368 -1.560268 1.000000 1.387367 -0.966524 1.000000 1.036612 -0.710197 1.000000 0.905661 -0.632548 1.000000 0.828690 -0.597498 1.000000 0.866569 -0.611418 1.000000 0.808056 -0.484221 1.000000 0.894043 -0.489049 1.000000 0.826503 -0.355425 1.000000 0.926115 -0.364938 1.000000 0.857824 -0.256138 1.000000 0.954638 -0.265362 1.000000 0.892306 -0.184724 1.000000 0.977515 -0.190629 1.000000 0.924490 -0.133229 1.000000 0.994890 -0.136064 1.000000 0.951656 -0.095219 1.000000 1.007816 -0.096379 1.000000 0.973069 -0.066630 1.000000 1.017106 -0.067009 1.000000 0.989234 -0.044820 1.000000 1.023149 -0.044690 1.000000 1.001077 -0.027811 1.000000 1.026134 -0.027200 1.000000 1.009516 -0.013919 1.000000 1.026342 -0.013217 1.000000 1.015043 -0.001884 1.000000 1.024063 -0.001570 1.000000 1.018017 0.009216 1.000000 1.019431 0.008740 1.000000 1.018789 0.020075 1.000000 1.012285 0.018684 1.000000 1.017847 0.031374 1.000000 1.002167 0.028895 1.000000 1.015543 0.044160 1.000000 0.988682 0.039924 1.000000 1.011966 0.059567 1.000000 0.971468 0.052410 1.000000 1.006857 0.078989 1.000000 0.950223 0.067453 1.000000 0.999765 0.103714 1.000000 0.924092 0.087393 1.000000 0.990924 0.134994 1.000000 0.890502 0.115662 1.000000 0.981939 0.174750 1.000000 0.843464 0.156913 1.000000 0.976922 0.226591 1.000000 0.770444 0.216402 1.000000 0.984849 0.298107 1.000000 0.647877 0.298180 1.000000 1.027106 0.398642 1.000000 0.440127 0.419747 1.000000 1.168165 0.476978 1.000000 0.143490 0.837934 1.000000 1.601279 0.137999 1.000000 -0.056945 2.212709 1.000000 
2.263625 1.009106 1.000000 0.194516 0.582018 1.000000 2.298458 1.583972 1.000000 1.562191 -0.159386 1.000000 1.525054 0.007953 1.000000 1.534683 0.001940 1.000000 1.522838 0.207368 1.000000 1.053282 0.053316 1.000000 0.530194 -0.212686 1.000000 0.236724 -0.578908 1.000000 0.481792 -0.817285 1.000000 0.484747 -0.924517 1.000000 0.701009 -0.770385 1.000000 0.652782 -0.748417 1.000000 0.770852 -0.567289 1.000000 0.734501 -0.554540 1.000000 0.802914 -0.415252 1.000000 0.792234 -0.409462 1.000000 0.832737 -0.310655 1.000000 0.840028 -0.302094 1.000000 0.863894 -0.235313 1.000000 0.879264 -0.222206 1.000000 0.893637 -0.178730 1.000000 0.910319 -0.162807 1.000000 0.919613 -0.134966 1.000000 0.934206 -0.118400 1.000000 0.940829 -0.100489 1.000000 0.951996 -0.084644 1.000000 0.957365 -0.072972 1.000000 0.964527 -0.058353 1.000000 0.969762 -0.050629 1.000000 0.972431 -0.037284 1.000000 0.978665 -0.031940 1.000000 0.976273 -0.019897 1.000000 0.984484 -0.015666 1.000000 0.976490 -0.004931 1.000000 0.987544 -0.000841 1.000000 0.973314 0.008726 1.000000 0.988106 0.013324 1.000000 0.966704 0.022079 1.000000 0.986471 0.027613 1.000000 0.956344 0.035940 1.000000 0.982783 0.042983 1.000000 0.941858 0.051048 1.000000 0.976985 0.060489 1.000000 0.922741 0.068276 1.000000 0.968793 0.081216 1.000000 0.898393 0.088969 1.000000 0.957817 0.106106 1.000000 0.867753 0.115340 1.000000 0.944230 0.136045 1.000000 0.828715 0.150534 1.000000 0.929364 0.172530 1.000000 0.777479 0.198677 1.000000 0.916793 0.219284 1.000000 0.707326 0.264908 1.000000 0.914094 0.285745 1.000000 0.605877 0.355302 1.000000 0.937307 0.390630 1.000000 0.442086 0.480481 1.000000 1.035458 0.527583 1.000000 0.125776 0.754089 1.000000 1.395991 0.405041 1.000000 -0.446571 1.793413 1.000000 
2.367596 0.742256 1.000000 0.697005 0.916982 1.000000 2.218829 0.977952 1.000000 1.533192 1.384586 1.000000 1.518488 0.017601 1.000000 1.531875 -0.003033 1.000000 1.521483 -0.262932 1.000000 1.715452 -0.354621 1.000000 1.744570 -0.743710 1.000000 1.796296 -0.918122 1.000000 1.607376 -0.958221 1.000000 1.436332 -0.851764 1.000000 1.243500 -0.765532 1.000000 1.179662 -0.681261 1.000000 1.066246 -0.565941 1.000000 1.081581 -0.521110 1.000000 1.000186 -0.413158 1.000000 1.049194 -0.394762 1.000000 0.980374 -0.303931 1.000000 1.040404 -0.296518 1.000000 0.980388 -0.223960 1.000000 1.039946 -0.220373 1.000000 0.988446 -0.164284 1.000000 1.041984 -0.162040 1.000000 0.998719 -0.119106 1.000000 1.044254 -0.117595 1.000000 1.008440 -0.084420 1.000000 1.045832 -0.083545 1.000000 1.016537 -0.057351 1.000000 1.046276 -0.057087 1.000000 1.022783 -0.035715 1.000000 1.045357 -0.036102 1.000000 1.027290 -0.017761 1.000000 1.042994 -0.019036 1.000000 1.030212 -0.002100 1.000000 1.039168 -0.004630 1.000000 1.031727 0.012392 1.000000 1.033817 0.008177 1.000000 1.032054 0.026684 1.000000 1.026762 0.020320 1.000000 1.031474 0.041734 1.000000 1.017712 0.032583 1.000000 1.030247 0.058647 1.000000 1.006349 0.045721 1.000000 1.028574 0.078684 1.000000 0.992323 0.060602 1.000000 1.026635 0.103337 1.000000 0.975145 0.078429 1.000000 1.024819 0.134354 1.000000 0.953832 0.100981 1.000000 1.024237 0.174032 1.000000 0.926310 0.130528 1.000000 1.027389 0.225987 1.000000 0.888642 0.169484 1.000000 1.039280 0.296743 1.000000 0.834053 0.219101 1.000000 1.069908 0.399556 1.000000 0.751346 0.274967 1.000000 1.141921 0.562433 1.000000 0.617422 0.321596 1.000000 1.315206 0.793289 1.000000 0.371670 0.477402 1.000000 1.694309 0.710346 1.000000 0.003358 1.345074 1.000000 
1.580013 0.315459 1.000000 1.051108 0.730785 1.000000 1.415250 0.747785 1.000000 1.516182 0.540955 1.000000 1.522020 0.009270 1.000000 1.523545 -0.001055 1.000000 1.519307 0.023791 1.000000 1.443237 -0.169771 1.000000 1.397008 -0.293531 1.000000 1.085099 -0.441714 1.000000 0.963135 -0.457321 1.000000 0.796772 -0.560641 1.000000 0.854635 -0.513715 1.000000 0.793907 -0.571163 1.000000 0.876146 -0.469208 1.000000 0.841310 -0.488480 1.000000 0.899978 -0.382865 1.000000 0.879876 -0.389650 1.000000 0.916999 -0.301866 1.000000 0.909407 -0.302109 1.000000 0.932411 -0.234855 1.000000 0.933056 -0.230264 1.000000 0.947395 -0.180768 1.000000 0.951986 -0.173080 1.000000 0.961211 -0.137236 1.000000 0.966737 -0.128121 1.000000 0.973085 -0.102067 1.000000 0.977736 -0.092741 1.000000 0.982683 -0.073417 1.000000 0.985355 -0.064598 1.000000 0.990017 -0.049710 1.000000 0.989911 -0.041791 1.000000 0.995258 -0.029577 1.000000 0.991686 -0.022820 1.000000 0.998583 -0.011840 1.000000 0.990894 -0.006446 1.000000 1.000157 0.004510 1.000000 0.987641 0.008400 1.000000 1.000147 0.020378 1.000000 0.981903 0.022659 1.000000 0.998723 0.036663 1.000000 0.973531 0.037166 1.000000 0.996021 0.054346 1.000000 0.962322 0.052721 1.000000 0.992136 0.074515 1.000000 0.948019 0.070215 1.000000 0.987180 0.098394 1.000000 0.930306 0.090785 1.000000 0.981480 0.127419 1.000000 0.908681 0.115923 1.000000 0.975998 0.163567 1.000000 0.882303 0.147382 1.000000 0.972925 0.210197 1.000000 0.849905 0.186785 1.000000 0.976679 0.273872 1.000000 0.809760 0.234280 1.000000 0.995938 0.368452 1.000000 0.759721 0.283290 1.000000 1.047936 0.524554 1.000000 0.699288 0.307196 1.000000 1.157488 0.773335 1.000000 0.647420 0.374986 1.000000 1.317068 0.773353 1.000000 0.629244 1.120126 1.000000 
1.747195 0.320392 1.000000 1.167261 1.081745 1.000000 1.675780 0.512878 1.000000 1.522386 1.277816 1.000000 1.518920 0.010239 1.000000 1.524931 -0.000321 1.000000 1.518624 -0.182624 1.000000 1.571937 -0.232322 1.000000 1.500782 -0.385572 1.000000 1.463998 -0.484249 1.000000 1.387042 -0.669893 1.000000 1.359182 -0.743265 1.000000 1.280481 -0.762668 1.000000 1.261000 -0.702772 1.000000 1.181450 -0.613343 1.000000 1.186949 -0.544941 1.000000 1.116055 -0.451725 1.000000 1.141753 -0.411783 1.000000 1.078594 -0.333462 1.000000 1.115123 -0.311931 1.000000 1.058962 -0.247609 1.000000 1.099009 -0.235356 1.000000 1.049783 -0.183215 1.000000 1.088658 -0.175857 1.000000 1.046245 -0.133856 1.000000 1.081411 -0.129469 1.000000 1.045425 -0.095419 1.000000 1.075765 -0.093142 1.000000 1.045695 -0.064970 1.000000 1.070835 -0.064421 1.000000 1.046228 -0.040271 1.000000 1.066074 -0.041344 1.000000 1.046643 -0.019536 1.000000 1.061144 -0.022360 1.000000 1.046782 -0.001308 1.000000 1.055822 -0.006205 1.000000 1.046617 0.015645 1.000000 1.049919 0.008188 1.000000 1.046221 0.032422 1.000000 1.043237 0.021743 1.000000 1.045748 0.050105 1.000000 1.035556 0.035285 1.000000 1.045412 0.069856 1.000000 1.026655 0.049606 1.000000 1.045491 0.092987 1.000000 1.016297 0.065558 1.000000 1.046402 0.121050 1.000000 1.004182 0.084129 1.000000 1.048902 0.155979 1.000000 0.989817 0.106462 1.000000 1.054437 0.200409 1.000000 0.972399 0.133601 1.000000 1.065680 0.258385 1.000000 0.950884 0.165731 1.000000 1.087425 0.336888 1.000000 0.924581 0.199842 1.000000 1.128263 0.449595 1.000000 0.895164 0.222969 1.000000 1.202467 0.622865 1.000000 0.874541 0.212044 1.000000 1.316771 0.845157 1.000000 0.913716 0.317822 1.000000 1.435527 0.728522 1.000000 1.033829 1.082129 1.000000 