# vtk DataFile Version 2.0
Comment goes here
ASCII

DATASET STRUCTURED_POINTS
DIMENSIONS    64   64   1

ORIGIN    0.000   0.000   0.000
SPACING   0.0156250.015625   1.000

POINT_DATA   4096
SCALARS uMag double
LOOKUP_TABLE default

1.284815e+00 1.123225e+00 4.255708e+00 2.769026e+00 4.009167e+00 3.235508e+00 3.219228e+00 1.742603e+00 2.070511e+00 5.889618e-01 1.200166e+00 8.442122e-01 4.290391e-01 3.436503e-01 8.085025e-02 2.531886e-01 2.009943e-01 3.287957e-01 3.508702e-01 4.282509e-01 4.539663e-01 5.170280e-01 5.242660e-01 5.881793e-01 5.765295e-01 6.427954e-01 6.170166e-01 6.824269e-01 6.505914e-01 7.104221e-01 6.790241e-01 7.270114e-01 7.045766e-01 7.363796e-01 7.269664e-01 7.381678e-01 7.437968e-01 7.368814e-01 7.553323e-01 7.312348e-01 7.616378e-01 7.236063e-01 7.628639e-01 7.105782e-01 7.573231e-01 6.964134e-01 7.420836e-01 6.779710e-01 7.191862e-01 6.534852e-01 6.881264e-01 6.171152e-01 6.506519e-01 5.705197e-01 5.951925e-01 5.211552e-01 5.200995e-01 4.633147e-01 4.390990e-01 3.869005e-01 3.058033e-01 4.797015e-01 4.818805e-01 1.432364e+00 
1.664968e+00 2.390344e+00 2.874897e+00 3.643343e+00 3.984264e+00 4.109464e+00 3.155676e+00 2.215083e+00 1.759382e+00 7.655062e-01 1.357075e+00 3.370352e-01 5.592887e-01 1.471181e-01 2.837544e-01 1.642085e-01 3.192322e-01 3.117997e-01 4.136916e-01 4.371226e-01 4.927346e-01 5.365136e-01 5.491076e-01 6.105439e-01 5.950825e-01 6.647980e-01 6.327889e-01 7.022883e-01 6.658847e-01 7.287733e-01 6.940505e-01 7.428862e-01 7.198294e-01 7.516425e-01 7.426363e-01 7.518301e-01 7.582229e-01 7.508801e-01 7.682242e-01 7.441911e-01 7.729789e-01 7.367015e-01 7.728824e-01 7.211612e-01 7.650913e-01 7.070035e-01 7.438967e-01 6.882738e-01 7.138711e-01 6.625840e-01 6.736483e-01 6.179857e-01 6.291650e-01 5.543040e-01 5.603247e-01 4.818243e-01 4.642902e-01 3.840737e-01 3.648563e-01 1.708198e-01 2.925462e-01 5.200056e-01 1.222516e+00 2.195549e+00 
1.745606e+00 1.361187e+00 1.801537e+00 1.058003e+00 1.632320e+00 1.474391e+00 2.022374e+00 9.308564e-01 1.326446e+00 9.587016e-01 6.027165e-01 5.407079e-01 3.983461e-01 2.601137e-01 1.774274e-01 9.053725e-02 1.446468e-01 3.636335e-02 2.124855e-01 1.268989e-01 2.695061e-01 1.892614e-01 3.128838e-01 2.303978e-01 3.471924e-01 2.623224e-01 3.707861e-01 2.922586e-01 3.859975e-01 3.176011e-01 3.979935e-01 3.354832e-01 4.097915e-01 3.450837e-01 4.202929e-01 3.518085e-01 4.241698e-01 3.597078e-01 4.203001e-01 3.685632e-01 4.109249e-01 3.746891e-01 4.000967e-01 3.743977e-01 3.905274e-01 3.663531e-01 3.820865e-01 3.517968e-01 3.702184e-01 3.324216e-01 3.529217e-01 3.092185e-01 3.274544e-01 2.854035e-01 2.963230e-01 2.586051e-01 2.762503e-01 2.343766e-01 3.773279e-01 3.483656e-01 5.063048e-01 5.173052e-01 1.247498e+00 1.434009e+00 
2.662158e-01 2.478353e+00 6.028372e-01 7.931864e-01 1.151324e+00 1.635221e+00 1.791580e+00 1.130543e+00 9.119057e-01 6.423568e-01 4.770327e-01 3.473392e-01 2.611156e-01 1.336540e-01 1.245247e-01 1.539760e-01 5.931157e-02 2.209237e-01 5.825669e-02 2.895868e-01 5.585388e-02 3.533783e-01 3.354291e-02 4.007265e-01 2.041261e-02 4.260195e-01 2.389188e-02 4.228869e-01 4.572140e-02 4.069912e-01 7.318648e-02 3.808384e-01 1.025081e-01 3.604163e-01 1.310576e-01 3.290816e-01 1.571673e-01 2.966238e-01 1.885086e-01 2.542657e-01 2.209924e-01 2.197565e-01 2.479422e-01 1.864357e-01 2.560885e-01 1.798748e-01 2.351067e-01 1.852265e-01 2.063182e-01 1.921133e-01 1.798167e-01 1.721177e-01 1.788768e-01 1.375098e-01 1.642465e-01 1.269482e-01 1.546048e-01 1.180304e-01 1.772144e-01 2.368678e-01 3.537647e-01 4.514253e-01 6.588618e-01 3.202682e-01 
3.325543e+00 2.199722e-01 3.772226e+00 3.512161e+00 1.543094e+00 3.232807e+00 8.068787e-01 1.417321e+00 4.820127e-01 4.839120e-01 2.152021e-01 2.705705e-01 3.982081e-02 1.107827e-01 1.108310e-01 9.080167e-02 1.549471e-01 9.909137e-02 1.908612e-01 7.772051e-02 2.255286e-01 4.240243e-02 2.596307e-01 1.873828e-02 2.780811e-01 2.423463e-02 2.831961e-01 3.132769e-02 2.730927e-01 2.365740e-02 2.539922e-01 1.413517e-02 2.259334e-01 2.635555e-02 1.939375e-01 5.071008e-02 1.649118e-01 7.133991e-02 1.388946e-01 9.162254e-02 1.141340e-01 1.023215e-01 9.272720e-02 1.101044e-01 7.883590e-02 1.009751e-01 8.178816e-02 8.227962e-02 8.823810e-02 5.815380e-02 8.993767e-02 5.169698e-02 7.558167e-02 4.154078e-02 7.850402e-02 4.105959e-02 9.335384e-02 8.593632e-02 4.083151e-02 1.868472e-01 2.795801e-01 3.305223e-01 1.558141e+00 2.161131e+00 
1.085816e+00 3.037310e+00 3.135454e+00 3.887970e+00 3.728097e+00 3.947806e+00 3.158763e+00 2.267603e+00 1.493353e+00 6.417761e-01 8.910265e-01 4.728294e-01 1.764348e-01 3.555983e-01 1.762340e-01 4.768934e-01 3.933770e-01 5.781388e-01 5.353442e-01 6.515116e-01 6.292693e-01 7.053994e-01 6.891682e-01 7.444011e-01 7.320790e-01 7.711246e-01 7.664249e-01 7.844727e-01 7.950562e-01 7.932418e-01 8.128293e-01 8.000073e-01 8.203638e-01 8.103295e-01 8.205293e-01 8.146730e-01 8.179248e-01 8.135685e-01 8.169462e-01 8.026551e-01 8.157667e-01 7.883823e-01 8.120498e-01 7.683030e-01 8.005990e-01 7.505637e-01 7.776230e-01 7.288203e-01 7.484920e-01 7.005024e-01 7.122114e-01 6.567818e-01 6.730108e-01 6.051461e-01 6.086285e-01 5.692417e-01 5.267010e-01 5.651704e-01 5.095378e-01 6.372603e-01 4.517989e-01 1.244464e+00 8.759348e-01 2.603435e+00 
3.160057e+00 3.818760e+00 4.064195e+00 3.972967e+00 3.440172e+00 4.238170e+00 3.405495e+00 1.679233e+00 2.250912e+00 6.958284e-01 6.109841e-01 5.826374e-01 2.537346e-01 2.894121e-01 2.832747e-01 3.946335e-01 4.121890e-01 5.195142e-01 5.242023e-01 6.170622e-01 6.095143e-01 6.895966e-01 6.706264e-01 7.410528e-01 7.185091e-01 7.756106e-01 7.575036e-01 7.950594e-01 7.895517e-01 8.071804e-01 8.115034e-01 8.142439e-01 8.244750e-01 8.216548e-01 8.307309e-01 8.229556e-01 8.326496e-01 8.195875e-01 8.338533e-01 8.074427e-01 8.335159e-01 7.917915e-01 8.296977e-01 7.698352e-01 8.181370e-01 7.486487e-01 7.948252e-01 7.222306e-01 7.640739e-01 6.869353e-01 7.244960e-01 6.322453e-01 6.781300e-01 5.565569e-01 6.010517e-01 4.637881e-01 4.709520e-01 3.215266e-01 2.590923e-01 9.731327e-02 4.322074e-01 6.336300e-01 7.326748e-01 1.903364e+00 
2.608885e+00 1.969955e+00 4.455730e+00 2.431568e+00 1.355429e+00 1.331244e+00 3.586799e+00 2.234638e+00 1.334990e+00 1.675826e+00 4.775347e-01 8.936162e-01 3.263594e-01 6.037407e-01 3.289602e-01 5.972694e-01 4.588622e-01 6.595064e-01 5.717641e-01 7.207987e-01 6.543638e-01 7.697367e-01 7.129856e-01 8.055630e-01 7.566786e-01 8.296030e-01 7.910803e-01 8.433219e-01 8.183217e-01 8.509960e-01 8.375241e-01 8.554603e-01 8.491357e-01 8.588512e-01 8.548523e-01 8.586541e-01 8.571235e-01 8.539971e-01 8.580846e-01 8.436583e-01 8.574173e-01 8.295644e-01 8.532658e-01 8.122808e-01 8.427750e-01 7.941238e-01 8.241413e-01 7.727728e-01 7.990754e-01 7.449166e-01 7.680649e-01 7.063942e-01 7.302603e-01 6.580321e-01 6.756124e-01 6.032021e-01 5.923980e-01 5.341780e-01 4.425788e-01 3.948379e-01 1.146017e-01 4.707561e-01 1.397317e+00 1.640299e+00 
2.261730e+00 3.136296e+00 1.821171e+00 2.925080e+00 1.318961e+00 1.352709e+00 1.407002e+00 1.645158e+00 2.116452e+00 8.647366e-01 1.056142e+00 7.462533e-01 6.072332e-01 5.907123e-01 5.209700e-01 5.517655e-01 5.441861e-01 5.946233e-01 5.988005e-01 6.543484e-01 6.540653e-01 7.078702e-01 7.008940e-01 7.496875e-01 7.395077e-01 7.798095e-01 7.710949e-01 7.996604e-01 7.963029e-01 8.124423e-01 8.146461e-01 8.202863e-01 8.266564e-01 8.250047e-01 8.335221e-01 8.253871e-01 8.366341e-01 8.212693e-01 8.373480e-01 8.118266e-01 8.355198e-01 7.981864e-01 8.300171e-01 7.802006e-01 8.189601e-01 7.590012e-01 8.009093e-01 7.323105e-01 7.765192e-01 6.970656e-01 7.453716e-01 6.488854e-01 7.063392e-01 5.861604e-01 6.526134e-01 5.118240e-01 5.802367e-01 4.450173e-01 4.943666e-01 5.271478e-01 4.419378e-01 1.117818e+00 8.012304e-01 2.516385e+00 
1.586553e+00 2.478911e+00 3.045082e+00 1.362238e+00 1.313452e+00 1.329200e+00 2.845234e+00 1.709324e+00 6.010699e-01 1.224941e+00 6.895021e-01 9.096639e-01 5.994314e-01 7.799223e-01 5.683824e-01 7.445597e-01 6.044125e-01 7.560261e-01 6.591363e-01 7.827004e-01 7.100442e-01 8.098784e-01 7.516328e-01 8.322890e-01 7.847430e-01 8.485730e-01 8.111183e-01 8.589765e-01 8.317354e-01 8.650256e-01 8.467435e-01 8.681104e-01 8.565918e-01 8.690364e-01 8.622404e-01 8.672195e-01 8.649150e-01 8.621633e-01 8.655565e-01 8.535424e-01 8.641404e-01 8.418811e-01 8.598535e-01 8.275730e-01 8.515848e-01 8.110052e-01 8.387626e-01 7.910810e-01 8.219917e-01 7.658996e-01 8.019209e-01 7.333367e-01 7.789105e-01 6.922880e-01 7.523054e-01 6.421566e-01 7.245032e-01 5.842624e-01 7.099377e-01 5.566902e-01 7.786922e-01 8.296427e-01 1.047642e+00 1.877126e+00 
1.660561e+00 1.642938e+00 2.718255e+00 2.146858e+00 1.333549e+00 1.362829e+00 1.664330e+00 3.104410e-01 1.723956e+00 1.344443e+00 1.325959e+00 1.041321e+00 8.981300e-01 7.969460e-01 7.243055e-01 7.020078e-01 6.791596e-01 6.906336e-01 6.872713e-01 7.134998e-01 7.132526e-01 7.444788e-01 7.421575e-01 7.729404e-01 7.688538e-01 7.955011e-01 7.917759e-01 8.117378e-01 8.104178e-01 8.226483e-01 8.244932e-01 8.293119e-01 8.342006e-01 8.325190e-01 8.401112e-01 8.321633e-01 8.429291e-01 8.281386e-01 8.432264e-01 8.202700e-01 8.409957e-01 8.088089e-01 8.357361e-01 7.937625e-01 8.267163e-01 7.751004e-01 8.135086e-01 7.517263e-01 7.964609e-01 7.220694e-01 7.761325e-01 6.846675e-01 7.535882e-01 6.401885e-01 7.310495e-01 5.949834e-01 7.176580e-01 5.736363e-01 7.397049e-01 6.553105e-01 8.590811e-01 1.007431e+00 1.126555e+00 2.043148e+00 
2.519431e+00 1.267746e+00 3.068564e+00 1.627473e+00 1.322275e+00 1.348949e+00 1.568954e+00 2.464100e+00 1.916316e+00 1.514477e+00 1.176007e+00 1.112133e+00 9.229802e-01 9.709741e-01 8.088421e-01 8.964827e-01 7.686108e-01 8.649675e-01 7.676530e-01 8.579889e-01 7.828516e-01 8.619519e-01 8.022893e-01 8.690813e-01 8.210870e-01 8.756520e-01 8.375340e-01 8.802303e-01 8.510094e-01 8.826759e-01 8.612418e-01 8.832554e-01 8.683163e-01 8.821422e-01 8.726455e-01 8.791259e-01 8.747955e-01 8.739569e-01 8.752103e-01 8.665054e-01 8.739644e-01 8.569110e-01 8.708240e-01 8.453187e-01 8.655337e-01 8.317273e-01 8.582309e-01 8.156079e-01 8.497755e-01 7.960890e-01 8.417507e-01 7.723404e-01 8.369582e-01 7.441462e-01 8.409880e-01 7.124993e-01 8.672087e-01 6.821039e-01 9.475740e-01 6.717578e-01 1.150146e+00 7.555937e-01 1.548207e+00 1.362950e+00 
1.806599e+00 1.242360e+00 1.653130e+00 1.352364e+00 1.340726e+00 1.348786e+00 1.356397e+00 7.943214e-01 7.402952e-01 7.983378e-01 9.254221e-01 8.977582e-01 8.919820e-01 8.374548e-01 8.188090e-01 7.887259e-01 7.787268e-01 7.714003e-01 7.684442e-01 7.755231e-01 7.747872e-01 7.892877e-01 7.880820e-01 8.050680e-01 8.030788e-01 8.191002e-01 8.172409e-01 8.299700e-01 8.293671e-01 8.375145e-01 8.388917e-01 8.420061e-01 8.456908e-01 8.437282e-01 8.499326e-01 8.427230e-01 8.519118e-01 8.389682e-01 8.518799e-01 8.324353e-01 8.498836e-01 8.231942e-01 8.457973e-01 8.112536e-01 8.394995e-01 7.965230e-01 8.311667e-01 7.786193e-01 8.215659e-01 7.571579e-01 8.122336e-01 7.323404e-01 8.061552e-01 7.061479e-01 8.093995e-01 6.842365e-01 8.352860e-01 6.789150e-01 9.121107e-01 7.082609e-01 1.096272e+00 7.737378e-01 1.427433e+00 1.056348e+00 
1.901829e+00 1.609277e+00 1.940844e+00 1.733144e+00 1.327985e+00 1.342388e+00 1.361986e+00 1.569742e+00 1.581019e+00 1.594979e+00 1.445411e+00 1.357230e+00 1.173208e+00 1.145196e+00 9.959210e-01 1.025215e+00 9.083246e-01 9.625621e-01 8.701386e-01 9.310318e-01 8.573530e-01 9.161767e-01 8.567831e-01 9.096064e-01 8.614373e-01 9.066022e-01 8.677627e-01 9.047122e-01 8.739654e-01 9.028172e-01 8.791463e-01 9.004484e-01 8.829462e-01 8.973607e-01 8.853555e-01 8.933189e-01 8.865481e-01 8.881303e-01 8.867194e-01 8.817001e-01 8.859832e-01 8.740597e-01 8.844107e-01 8.652813e-01 8.822061e-01 8.553944e-01 8.799678e-01 8.443086e-01 8.789815e-01 8.319513e-01 8.815699e-01 8.185931e-01 8.918694e-01 8.053688e-01 9.175306e-01 7.950295e-01 9.733265e-01 7.929202e-01 1.088232e+00 8.053532e-01 1.317624e+00 8.384183e-01 1.666803e+00 1.094220e+00 
1.284798e+00 1.451142e+00 1.331962e+00 1.411482e+00 1.337617e+00 1.343358e+00 1.335986e+00 1.247185e+00 1.196543e+00 1.055119e+00 1.028321e+00 9.529886e-01 9.475522e-01 8.996742e-01 8.943330e-01 8.630724e-01 8.589635e-01 8.426605e-01 8.402030e-01 8.354851e-01 8.337818e-01 8.366002e-01 8.348042e-01 8.415470e-01 8.395183e-01 8.473420e-01 8.455212e-01 8.523619e-01 8.513934e-01 8.559054e-01 8.563426e-01 8.577509e-01 8.599950e-01 8.578555e-01 8.622503e-01 8.561872e-01 8.631574e-01 8.527237e-01 8.628106e-01 8.474706e-01 8.612843e-01 8.404853e-01 8.586615e-01 8.318426e-01 8.551550e-01 8.216271e-01 8.513071e-01 8.099555e-01 8.482417e-01 7.971970e-01 8.480017e-01 7.843896e-01 8.542170e-01 7.738556e-01 8.733826e-01 7.697904e-01 9.171765e-01 7.779647e-01 1.005872e+00 8.020636e-01 1.168491e+00 8.526863e-01 1.355076e+00 1.081248e+00 
1.442117e+00 1.675028e+00 1.542072e+00 1.721669e+00 1.329805e+00 1.339154e+00 1.342165e+00 1.383271e+00 1.348121e+00 1.372844e+00 1.345354e+00 1.334633e+00 1.234441e+00 1.211061e+00 1.098578e+00 1.105015e+00 1.006841e+00 1.035626e+00 9.531482e-01 9.923552e-01 9.236895e-01 9.656314e-01 9.086109e-01 9.489020e-01 9.016498e-01 9.379306e-01 8.990182e-01 9.301295e-01 8.984885e-01 9.240057e-01 8.987831e-01 9.187171e-01 8.992199e-01 9.137655e-01 8.994974e-01 9.088220e-01 8.995438e-01 9.036766e-01 8.994086e-01 8.982318e-01 8.992096e-01 8.924999e-01 8.991639e-01 8.865752e-01 8.997051e-01 8.806151e-01 9.016703e-01 8.748636e-01 9.065512e-01 8.697913e-01 9.168547e-01 8.663661e-01 9.367229e-01 8.664569e-01 9.729903e-01 8.733123e-01 1.036838e+00 8.918689e-01 1.145692e+00 9.292535e-01 1.317077e+00 1.014001e+00 1.476240e+00 1.284682e+00 
1.125894e+00 1.463666e+00 1.261436e+00 1.480491e+00 1.336340e+00 1.340340e+00 1.336155e+00 1.293297e+00 1.276295e+00 1.212229e+00 1.179274e+00 1.101629e+00 1.066214e+00 1.006122e+00 9.859857e-01 9.470524e-01 9.366437e-01 9.128992e-01 9.067792e-01 8.938416e-01 8.894899e-01 8.840193e-01 8.803376e-01 8.795363e-01 8.761907e-01 8.777717e-01 8.748793e-01 8.770790e-01 8.749636e-01 8.765132e-01 8.755309e-01 8.755705e-01 8.760433e-01 8.739903e-01 8.762241e-01 8.716332e-01 8.759676e-01 8.684378e-01 8.752742e-01 8.644120e-01 8.742209e-01 8.596377e-01 8.729878e-01 8.542731e-01 8.719437e-01 8.485771e-01 8.717878e-01 8.429797e-01 8.737439e-01 8.382494e-01 8.798305e-01 8.357547e-01 8.932723e-01 8.377728e-01 9.190614e-01 8.477083e-01 9.644432e-01 8.701423e-01 1.038075e+00 9.125592e-01 1.140629e+00 1.002532e+00 1.205182e+00 1.208724e+00 
1.271733e+00 1.606466e+00 1.361689e+00 1.672514e+00 1.330607e+00 1.336841e+00 1.336345e+00 1.345718e+00 1.326839e+00 1.335016e+00 1.313914e+00 1.310193e+00 1.248105e+00 1.232764e+00 1.152049e+00 1.150820e+00 1.072363e+00 1.086789e+00 1.016139e+00 1.040422e+00 9.786622e-01 1.007536e+00 9.543858e-01 9.841720e-01 9.388972e-01 9.672674e-01 9.290628e-01 9.546517e-01 9.227808e-01 9.448741e-01 9.186963e-01 9.369940e-01 9.159776e-01 9.304034e-01 9.141558e-01 9.247095e-01 9.130107e-01 9.196759e-01 9.124961e-01 9.151993e-01 9.127082e-01 9.113002e-01 9.139093e-01 9.081176e-01 9.166061e-01 9.059210e-01 9.216784e-01 9.051630e-01 9.305567e-01 9.065992e-01 9.454609e-01 9.114863e-01 9.697174e-01 9.218462e-01 1.008104e+00 9.407651e-01 1.066913e+00 9.728147e-01 1.152375e+00 1.026137e+00 1.259916e+00 1.125143e+00 1.324156e+00 1.334656e+00 
1.096343e+00 1.443495e+00 1.223353e+00 1.488785e+00 1.335575e+00 1.338036e+00 1.335512e+00 1.310077e+00 1.298070e+00 1.259090e+00 1.236212e+00 1.181888e+00 1.146514e+00 1.092070e+00 1.064871e+00 1.023897e+00 1.006887e+00 9.786197e-01 9.675652e-01 9.490467e-01 9.410575e-01 9.297215e-01 9.233311e-01 9.170178e-01 9.115936e-01 9.084954e-01 9.038654e-01 9.025233e-01 8.987488e-01 8.980432e-01 8.952798e-01 8.943904e-01 8.928213e-01 8.911602e-01 8.909811e-01 8.881185e-01 8.895499e-01 8.851558e-01 8.884583e-01 8.822692e-01 8.877618e-01 8.795612e-01 8.876601e-01 8.772520e-01 8.885535e-01 8.757125e-01 8.911343e-01 8.755341e-01 8.965058e-01 8.776479e-01 9.063232e-01 8.834922e-01 9.229302e-01 8.952078e-01 9.493672e-01 9.158724e-01 9.888806e-01 9.500453e-01 1.042924e+00 1.005970e+00 1.104099e+00 1.101915e+00 1.130259e+00 1.260099e+00 
1.204762e+00 1.537975e+00 1.281606e+00 1.605734e+00 1.331055e+00 1.335116e+00 1.334183e+00 1.336872e+00 1.326520e+00 1.331317e+00 1.313319e+00 1.307626e+00 1.261067e+00 1.247537e+00 1.186167e+00 1.181066e+00 1.117900e+00 1.123689e+00 1.063681e+00 1.077671e+00 1.022917e+00 1.041876e+00 9.931427e-01 1.014385e+00 9.717202e-01 9.932936e-01 9.564060e-01 9.770082e-01 9.454773e-01 9.643076e-01 9.376913e-01 9.543056e-01 9.321995e-01 9.463824e-01 9.284611e-01 9.401233e-01 9.261726e-01 9.352786e-01 9.252208e-01 9.317432e-01 9.256631e-01 9.295489e-01 9.277421e-01 9.288674e-01 9.319330e-01 9.300322e-01 9.390205e-01 9.335871e-01 9.501952e-01 9.403760e-01 9.671539e-01 9.516727e-01 9.921599e-01 9.693456e-01 1.027928e+00 9.960689e-01 1.076973e+00 1.035741e+00 1.139486e+00 1.094966e+00 1.206260e+00 1.188432e+00 1.236687e+00 1.344621e+00 
1.099313e+00 1.420096e+00 1.210024e+00 1.465043e+00 1.335020e+00 1.336271e+00 1.335016e+00 1.318688e+00 1.311309e+00 1.284566e+00 1.267218e+00 1.227857e+00 1.197672e+00 1.152610e+00 1.124801e+00 1.086262e+00 1.065624e+00 1.035887e+00 1.020736e+00 9.989083e-01 9.872949e-01 9.719688e-01 9.626049e-01 9.523424e-01 9.444928e-01 9.379632e-01 9.312579e-01 9.273091e-01 9.215964e-01 9.192911e-01 9.145376e-01 9.131552e-01 9.093864e-01 9.084012e-01 9.056739e-01 9.047209e-01 9.031154e-01 9.019591e-01 9.015818e-01 9.000941e-01 9.010878e-01 8.992340e-01 9.018021e-01 8.996276e-01 9.040780e-01 9.016940e-01 9.085012e-01 9.060762e-01 9.159408e-01 9.137235e-01 9.275838e-01 9.260026e-01 9.448983e-01 9.448387e-01 9.694101e-01 9.729242e-01 1.002067e+00 1.014138e+00 1.041847e+00 1.074441e+00 1.082409e+00 1.162768e+00 1.101410e+00 1.285173e+00 
1.178556e+00 1.481976e+00 1.250206e+00 1.538493e+00 1.331289e+00 1.333816e+00 1.333210e+00 1.334992e+00 1.329591e+00 1.333342e+00 1.319235e+00 1.313046e+00 1.275939e+00 1.262876e+00 1.213313e+00 1.205451e+00 1.152715e+00 1.152577e+00 1.100705e+00 1.107196e+00 1.058409e+00 1.069704e+00 1.025154e+00 1.039456e+00 9.995694e-01 1.015386e+00 9.801656e-01 9.963818e-01 9.656109e-01 9.814611e-01 9.548331e-01 9.698370e-01 9.470294e-01 9.609200e-01 9.416414e-01 9.542995e-01 9.383221e-01 9.497247e-01 9.369081e-01 9.470908e-01 9.374080e-01 9.464353e-01 9.400071e-01 9.479422e-01 9.450909e-01 9.519608e-01 9.532781e-01 9.590420e-01 9.654519e-01 9.699960e-01 9.827613e-01 9.859700e-01 1.006538e+00 1.008545e+00 1.038012e+00 1.039864e+00 1.077624e+00 1.082873e+00 1.123576e+00 1.141934e+00 1.168299e+00 1.224639e+00 1.188667e+00 1.343028e+00 
1.111967e+00 1.396463e+00 1.211051e+00 1.431950e+00 1.334534e+00 1.334901e+00 1.334578e+00 1.323930e+00 1.320921e+00 1.302539e+00 1.290123e+00 1.260614e+00 1.235429e+00 1.198392e+00 1.171789e+00 1.136758e+00 1.114164e+00 1.084477e+00 1.066133e+00 1.042428e+00 1.027545e+00 1.009525e+00 9.972642e-01 9.841999e-01 9.738806e-01 9.648902e-01 9.560263e-01 9.502416e-01 9.425119e-01 9.391760e-01 9.323766e-01 9.308878e-01 9.248881e-01 9.248111e-01 9.195222e-01 9.205810e-01 9.159364e-01 9.180025e-01 9.139472e-01 9.170312e-01 9.135182e-01 9.177660e-01 9.147601e-01 9.204555e-01 9.179406e-01 9.255176e-01 9.234993e-01 9.335757e-01 9.320536e-01 9.455110e-01 9.443729e-01 9.625311e-01 9.612796e-01 9.862554e-01 9.834146e-01 1.018825e+00 1.010800e+00 1.063033e+00 1.042188e+00 1.122370e+00 1.073712e+00 1.200453e+00 1.094239e+00 1.297304e+00 
1.170459e+00 1.437262e+00 1.240830e+00 1.479807e+00 1.331377e+00 1.332810e+00 1.332707e+00 1.334776e+00 1.334157e+00 1.338013e+00 1.329051e+00 1.323647e+00 1.293713e+00 1.281067e+00 1.238843e+00 1.228592e+00 1.182253e+00 1.177321e+00 1.130858e+00 1.131328e+00 1.086989e+00 1.092050e+00 1.051015e+00 1.059558e+00 1.022302e+00 1.033234e+00 9.998212e-01 1.012228e+00 9.825031e-01 9.956999e-01 9.694050e-01 9.829308e-01 9.597721e-01 9.733597e-01 9.530465e-01 9.665863e-01 9.488559e-01 9.623628e-01 9.469976e-01 9.605851e-01 9.474279e-01 9.612891e-01 9.502602e-01 9.646533e-01 9.557679e-01 9.710099e-01 9.643892e-01 9.808663e-01 9.767157e-01 9.949367e-01 9.934444e-01 1.014181e+00 1.015249e+00 1.039847e+00 1.042510e+00 1.073525e+00 1.074831e+00 1.117196e+00 1.110298e+00 1.173321e+00 1.143893e+00 1.245232e+00 1.163064e+00 1.337083e+00 
1.126644e+00 1.375002e+00 1.217964e+00 1.400417e+00 1.334066e+00 1.333806e+00 1.334143e+00 1.327269e+00 1.329460e+00 1.317730e+00 1.311813e+00 1.290422e+00 1.269689e+00 1.238930e+00 1.212959e+00 1.180620e+00 1.155965e+00 1.126258e+00 1.104857e+00 1.079674e+00 1.061726e+00 1.041665e+00 1.026696e+00 1.011580e+00 9.989402e-01 9.882134e-01 9.773031e-01 9.703035e-01 9.606474e-01 9.567588e-01 9.479981e-01 9.467257e-01 9.385859e-01 9.395874e-01 9.318423e-01 9.349362e-01 9.273786e-01 9.325454e-01 9.249644e-01 9.323478e-01 9.245114e-01 9.344245e-01 9.260643e-01 9.390044e-01 9.297969e-01 9.464734e-01 9.360061e-01 9.573938e-01 9.450944e-01 9.725317e-01 9.575247e-01 9.928885e-01 9.737244e-01 1.019732e+00 9.939211e-01 1.054606e+00 1.017918e+00 1.099275e+00 1.044870e+00 1.155469e+00 1.072768e+00 1.224095e+00 1.096561e+00 1.302348e+00 
1.170099e+00 1.402159e+00 1.240308e+00 1.432325e+00 1.331361e+00 1.331996e+00 1.332400e+00 1.334533e+00 1.340611e+00 1.345234e+00 1.344885e+00 1.342151e+00 1.318009e+00 1.305708e+00 1.266863e+00 1.253687e+00 1.209926e+00 1.200127e+00 1.156363e+00 1.151282e+00 1.109796e+00 1.109391e+00 1.071092e+00 1.074689e+00 1.039804e+00 1.046556e+00 1.014994e+00 1.024119e+00 9.956489e-01 1.006528e+00 9.808580e-01 9.930647e-01 9.698803e-01 9.831714e-01 9.621541e-01 9.764522e-01 9.572890e-01 9.726622e-01 9.550502e-01 9.716976e-01 9.553465e-01 9.735888e-01 9.582197e-01 9.784982e-01 9.638363e-01 9.867239e-01 9.724737e-01 9.987074e-01 9.844905e-01 1.015044e+00 1.000264e+00 1.036495e+00 1.020075e+00 1.063987e+00 1.043909e+00 1.098605e+00 1.071190e+00 1.141530e+00 1.100464e+00 1.193897e+00 1.128755e+00 1.256671e+00 1.149783e+00 1.329810e+00 
1.140174e+00 1.357138e+00 1.225988e+00 1.374330e+00 1.333592e+00 1.332890e+00 1.333702e+00 1.328516e+00 1.338826e+00 1.332446e+00 1.338327e+00 1.326791e+00 1.309409e+00 1.283290e+00 1.255085e+00 1.223092e+00 1.194496e+00 1.163217e+00 1.138044e+00 1.110802e+00 1.089757e+00 1.067754e+00 1.050323e+00 1.033596e+00 1.018939e+00 1.007023e+00 9.943429e-01 9.866405e-01 9.752924e-01 9.712548e-01 9.607394e-01 9.599463e-01 9.498656e-01 9.520553e-01 9.420661e-01 9.471461e-01 9.369192e-01 9.449717e-01 9.341589e-01 9.454476e-01 9.336528e-01 9.486355e-01 9.353862e-01 9.547359e-01 9.394494e-01 9.640883e-01 9.460217e-01 9.771759e-01 9.553467e-01 9.946322e-01 9.676889e-01 1.017244e+00 9.832656e-01 1.045937e+00 1.002154e+00 1.081731e+00 1.024198e+00 1.125602e+00 1.048969e+00 1.178193e+00 1.075595e+00 1.239059e+00 1.102395e+00 1.303780e+00 
1.172361e+00 1.375177e+00 1.242564e+00 1.395592e+00 1.331256e+00 1.331303e+00 1.332134e+00 1.332469e+00 1.349956e+00 1.354178e+00 1.372250e+00 1.377673e+00 1.356590e+00 1.343732e+00 1.302217e+00 1.283710e+00 1.237902e+00 1.221725e+00 1.177952e+00 1.166932e+00 1.126924e+00 1.121360e+00 1.085203e+00 1.084444e+00 1.051766e+00 1.054949e+00 1.025310e+00 1.031655e+00 1.004641e+00 1.013546e+00 9.887747e-01 9.998360e-01 9.769419e-01 9.899492e-01 9.685703e-01 9.834891e-01 9.632570e-01 9.802161e-01 9.607454e-01 9.800289e-01 9.609064e-01 9.829530e-01 9.637231e-01 9.891331e-01 9.692743e-01 9.988295e-01 9.777136e-01 1.012415e+00 9.892351e-01 1.030369e+00 1.004018e+00 1.053272e+00 1.022140e+00 1.081774e+00 1.043459e+00 1.116549e+00 1.067486e+00 1.158190e+00 1.093279e+00 1.207009e+00 1.119250e+00 1.262698e+00 1.142859e+00 1.322715e+00 
1.151299e+00 1.343375e+00 1.233024e+00 1.354488e+00 1.333088e+00 1.332086e+00 1.333265e+00 1.325151e+00 1.349966e+00 1.344063e+00 1.378811e+00 1.388019e+00 1.368562e+00 1.343511e+00 1.305511e+00 1.268445e+00 1.231989e+00 1.195773e+00 1.165600e+00 1.134931e+00 1.110829e+00 1.086698e+00 1.067266e+00 1.049275e+00 1.033109e+00 1.020506e+00 1.006493e+00 9.985601e-01 9.858773e-01 9.820524e-01 9.700864e-01 9.699893e-01 9.582535e-01 9.616882e-01 9.497547e-01 9.567079e-01 9.441551e-01 9.547991e-01 9.411705e-01 9.558713e-01 9.406392e-01 9.599719e-01 9.425024e-01 9.672740e-01 9.467867e-01 9.780691e-01 9.535858e-01 9.927609e-01 9.630368e-01 1.011857e+00 9.752878e-01 1.035948e+00 9.904557e-01 1.065675e+00 1.008583e+00 1.101646e+00 1.029611e+00 1.144300e+00 1.053395e+00 1.193656e+00 1.079704e+00 1.248591e+00 1.108790e+00 1.303667e+00 
1.174741e+00 1.355038e+00 1.245014e+00 1.368194e+00 1.331059e+00 1.330686e+00 1.331719e+00 1.324598e+00 1.361875e+00 1.354777e+00 1.424444e+00 1.457985e+00 1.427379e+00 1.407941e+00 1.351205e+00 1.320301e+00 1.266305e+00 1.240243e+00 1.194166e+00 1.176245e+00 1.137043e+00 1.126548e+00 1.092447e+00 1.087958e+00 1.057609e+00 1.057879e+00 1.030367e+00 1.034466e+00 1.009159e+00 1.016452e+00 9.928650e-01 1.002965e+00 9.806803e-01 9.934145e-01 9.720308e-01 9.874143e-01 9.665160e-01 9.847400e-01 9.638727e-01 9.853010e-01 9.639507e-01 9.891240e-01 9.666927e-01 9.963413e-01 9.721158e-01 1.007182e+00 9.802894e-01 1.021959e+00 9.913046e-01 1.041059e+00 1.005232e+00 1.064912e+00 1.022068e+00 1.093955e+00 1.041669e+00 1.128562e+00 1.063704e+00 1.168931e+00 1.087644e+00 1.214900e+00 1.112778e+00 1.265486e+00 1.138813e+00 1.316514e+00 
1.159657e+00 1.333747e+00 1.238400e+00 1.340678e+00 1.332533e+00 1.331370e+00 1.332906e+00 1.310607e+00 1.358838e+00 1.324736e+00 1.455372e+00 1.529829e+00 1.479857e+00 1.437741e+00 1.371960e+00 1.316518e+00 1.266859e+00 1.220191e+00 1.184530e+00 1.148995e+00 1.122697e+00 1.096597e+00 1.076156e+00 1.057513e+00 1.040641e+00 1.027982e+00 1.013232e+00 1.005579e+00 9.920105e-01 9.887481e-01 9.757007e-01 9.764810e-01 9.634338e-01 9.681230e-01 9.546077e-01 9.632652e-01 9.488055e-01 9.616810e-01 9.457480e-01 9.632900e-01 9.452637e-01 9.681361e-01 9.472685e-01 9.763727e-01 9.517481e-01 9.882512e-01 9.587410e-01 1.004108e+00 9.683193e-01 1.024347e+00 9.805665e-01 1.049404e+00 9.955557e-01 1.079702e+00 1.013333e+00 1.115563e+00 1.033916e+00 1.157085e+00 1.057324e+00 1.203941e+00 1.083674e+00 1.254674e+00 1.114329e+00 1.303203e+00 
1.176055e+00 1.340728e+00 1.246670e+00 1.348768e+00 1.330774e+00 1.330164e+00 1.330944e+00 1.303837e+00 1.366430e+00 1.286174e+00 1.548308e+00 1.679213e+00 1.578308e+00 1.516893e+00 1.419411e+00 1.357551e+00 1.289292e+00 1.248102e+00 1.199653e+00 1.174504e+00 1.137037e+00 1.122545e+00 1.091283e+00 1.084111e+00 1.056629e+00 1.054843e+00 1.029844e+00 1.032314e+00 1.009028e+00 1.015099e+00 9.929969e-01 1.002321e+00 9.809671e-01 9.934260e-01 9.724041e-01 9.880712e-01 9.669387e-01 9.860672e-01 9.643238e-01 9.873473e-01 9.644073e-01 9.919496e-01 9.671127e-01 1.000004e+00 9.724221e-01 1.011720e+00 9.803561e-01 1.027374e+00 9.909504e-01 1.047283e+00 1.004227e+00 1.071776e+00 1.020164e+00 1.101144e+00 1.038666e+00 1.135563e+00 1.059554e+00 1.174993e+00 1.082589e+00 1.219015e+00 1.107598e+00 1.266277e+00 1.135639e+00 1.311507e+00 
1.165286e+00 1.328190e+00 1.242068e+00 1.332610e+00 1.331969e+00 1.330836e+00 1.333218e+00 1.277673e+00 1.334468e+00 1.158616e+00 1.599858e+00 1.906800e+00 1.731282e+00 1.576583e+00 1.451448e+00 1.349466e+00 1.286248e+00 1.224367e+00 1.186656e+00 1.147178e+00 1.121483e+00 1.095073e+00 1.075410e+00 1.057431e+00 1.040943e+00 1.029127e+00 1.014329e+00 1.007535e+00 9.935599e-01 9.911996e-01 9.774560e-01 9.792560e-01 9.652630e-01 9.711674e-01 9.564671e-01 9.666069e-01 9.507092e-01 9.653997e-01 9.477413e-01 9.674933e-01 9.474025e-01 9.729405e-01 9.496022e-01 9.818866e-01 9.543067e-01 9.945570e-01 9.615246e-01 1.011242e+00 9.712926e-01 1.032270e+00 9.836609e-01 1.057974e+00 9.986819e-01 1.088633e+00 1.016407e+00 1.124392e+00 1.036895e+00 1.165151e+00 1.060244e+00 1.210402e+00 1.086746e+00 1.258523e+00 1.118380e+00 1.303087e+00 
1.175735e+00 1.331564e+00 1.247220e+00 1.336411e+00 1.330541e+00 1.329921e+00 1.330173e+00 1.282918e+00 1.265558e+00 1.139145e+00 1.622896e+00 1.794586e+00 1.796706e+00 1.639583e+00 1.487526e+00 1.361406e+00 1.283356e+00 1.227560e+00 1.183163e+00 1.154734e+00 1.122529e+00 1.106918e+00 1.080234e+00 1.072194e+00 1.048459e+00 1.045737e+00 1.023744e+00 1.025265e+00 1.004338e+00 1.009568e+00 9.892445e-01 9.979500e-01 9.778381e-01 9.899875e-01 9.696926e-01 9.854278e-01 9.645094e-01 9.841413e-01 9.620816e-01 9.861002e-01 9.622752e-01 9.913651e-01 9.650146e-01 1.000076e+00 9.702699e-01 1.012440e+00 9.780418e-01 1.028717e+00 9.883442e-01 1.049192e+00 1.001187e+00 1.074142e+00 1.016559e+00 1.103779e+00 1.034421e+00 1.138178e+00 1.054710e+00 1.177176e+00 1.077380e+00 1.220226e+00 1.102583e+00 1.265769e+00 1.132168e+00 1.307815e+00 
1.168289e+00 1.326823e+00 1.244142e+00 1.330357e+00 1.331704e+00 1.330828e+00 1.333396e+00 1.294000e+00 1.025921e+00 9.197262e-01 1.315793e+00 1.203220e+00 1.227599e+00 1.341732e+00 1.400095e+00 1.291838e+00 1.248677e+00 1.186500e+00 1.158542e+00 1.123746e+00 1.103630e+00 1.081178e+00 1.064510e+00 1.049277e+00 1.034252e+00 1.024341e+00 1.010097e+00 1.004722e+00 9.907463e-01 9.895649e-01 9.754665e-01 9.783626e-01 9.637721e-01 9.707931e-01 9.553099e-01 9.666572e-01 9.498143e-01 9.658544e-01 9.470900e-01 9.683739e-01 9.470025e-01 9.742878e-01 9.494713e-01 9.837454e-01 9.544608e-01 9.969627e-01 9.619703e-01 1.014207e+00 9.720222e-01 1.035770e+00 9.846510e-01 1.061931e+00 9.998959e-01 1.092901e+00 1.017801e+00 1.128740e+00 1.038429e+00 1.169261e+00 1.061893e+00 1.213873e+00 1.088556e+00 1.260889e+00 1.120671e+00 1.303804e+00 