# vtk DataFile Version 2.0
Comment goes here
ASCII

DATASET STRUCTURED_POINTS
DIMENSIONS    64   64   1

ORIGIN    0.000   0.000   0.000
SPACING   0.0156250.015625   1.000

POINT_DATA   4096
SCALARS uX double
LOOKUP_TABLE default

2.769136e+00 6.892852e+00 4.594976e+00 -2.041716e+00 2.798483e+00 -3.462814e+00 -3.350053e+00 -1.910165e+00 2.638975e+00 1.852429e+00 5.579850e-01 -1.218388e+00 1.239817e+00 4.881962e-01 1.512435e+00 1.888231e+00 1.047524e+00 8.698091e-01 5.012082e-01 7.064079e-01 8.504716e-01 1.006707e+00 9.600402e-01 1.422716e+00 9.285202e-01 1.678275e+00 1.130650e+00 1.694421e+00 1.558102e+00 1.836783e+00 1.900226e+00 2.038736e+00 2.351386e+00 2.033596e+00 2.654675e+00 1.959929e+00 2.574507e+00 1.937327e+00 2.434852e+00 1.893743e+00 2.349544e+00 1.626115e+00 2.428332e+00 1.325383e+00 2.697360e+00 1.177860e+00 3.083963e+00 8.557188e-01 3.257001e+00 9.018815e-01 2.066715e+00 2.538599e+00 6.574762e-01 2.703779e+00 8.232465e-01 3.642972e+00 -4.227851e-01 6.726129e+00 1.513786e-01 4.149528e+00 8.765106e-01 -8.368580e-01 2.642650e+00 5.571193e+00 
-3.528055e+00 2.125030e-01 2.401731e+00 -1.235440e+00 -2.246820e+00 -3.522698e-01 -5.072372e+00 -2.844704e+00 -7.247997e+00 1.685390e+00 3.843783e-01 1.747307e+00 -2.862848e+00 2.443456e+00 1.263032e+00 1.528687e+00 1.070067e+00 1.278366e+00 9.234320e-01 6.235604e-01 1.128409e+00 7.561351e-01 1.050163e+00 1.336164e+00 9.758007e-01 1.732608e+00 1.339060e+00 1.745228e+00 1.920776e+00 1.942377e+00 2.155240e+00 2.245025e+00 2.528380e+00 2.135522e+00 2.777557e+00 2.211519e+00 2.549701e+00 2.390160e+00 2.408065e+00 2.347497e+00 2.419193e+00 1.915508e+00 2.647256e+00 1.391062e+00 2.869311e+00 1.307827e+00 2.635136e+00 1.822309e+00 1.984186e+00 2.899420e+00 1.579653e+00 3.598239e+00 1.636267e+00 2.823115e+00 3.337062e-01 -1.012303e+00 -6.175473e-01 -5.196411e-01 3.459963e+00 -8.172947e-01 1.288750e+00 8.052861e+00 1.089935e+00 5.333591e+00 
3.569085e-01 -2.640799e+00 1.413641e-01 -2.935519e-01 -2.479086e+00 -2.040495e+00 -3.780684e+00 2.455471e+00 -5.009909e+00 -1.909518e+00 1.504812e+00 1.563815e+00 -1.669214e-01 2.255525e+00 1.069330e+00 2.082671e+00 7.330957e-01 1.995999e+00 1.040122e+00 1.816388e+00 1.308522e+00 1.486975e+00 1.654085e+00 1.299981e+00 1.771767e+00 1.449390e+00 1.445139e+00 1.474529e+00 9.427338e-01 1.048940e+00 4.961662e-01 6.169035e-01 -8.356904e-02 6.852705e-01 -4.920792e-01 1.151410e+00 -3.867781e-01 1.662228e+00 5.099850e-02 1.939653e+00 7.815189e-01 1.824645e+00 1.584928e+00 1.295888e+00 2.001863e+00 7.219384e-01 1.990501e+00 5.890649e-01 1.521626e+00 6.115224e-01 9.997800e-01 -1.876349e-01 9.405377e-01 -5.746442e-02 1.472593e+00 9.244025e-01 6.518256e-01 -4.519233e+00 1.610455e+00 -3.058750e+00 2.027000e+00 1.859409e+00 -2.450438e+00 1.574466e+00 
1.297756e+00 3.155911e+00 -3.010110e+00 -6.510441e-01 -4.612136e+00 6.388257e-01 1.997574e+00 3.785287e+00 3.249954e+00 -5.979426e-01 -2.208640e+00 4.846301e-02 -1.460067e+00 7.804948e-01 -2.402027e+00 1.857574e-01 -5.183795e-01 -3.910065e-01 -6.630755e-01 3.795731e-01 -1.141753e+00 1.682901e-01 -2.832568e-01 -8.577965e-01 4.191283e-01 -1.028156e+00 -3.965677e-01 -5.468708e-02 -1.608444e+00 9.527777e-02 -1.708884e+00 -5.193916e-02 -2.355930e+00 9.098888e-01 -2.992114e+00 1.122345e+00 -2.527423e+00 7.114456e-01 -2.015658e+00 4.958167e-01 -1.658597e+00 6.662931e-01 -1.603470e+00 8.035254e-01 -1.269999e+00 2.313259e-01 -4.301369e-01 -5.504337e-01 3.587644e-01 -8.428363e-01 4.775215e-01 -9.258524e-01 4.325790e-01 -5.911754e-01 3.346801e-01 1.656583e+00 2.149814e-01 1.384676e+00 3.042720e-02 -1.679866e-01 3.734604e+00 -2.305845e+00 2.802727e+00 -2.302153e+00 
1.254455e+00 4.157931e+00 -6.642407e-01 8.332233e-01 9.386310e-01 -1.428497e+00 -5.982134e-01 -6.891900e+00 -2.362134e+00 1.827376e+00 1.557670e+00 1.417035e+00 -1.177636e+00 1.552044e+00 -1.398441e-01 3.892065e-01 3.755058e-02 -4.856829e-01 -1.654899e-01 -1.108715e-01 -6.643248e-01 2.831339e-03 -5.266841e-01 -3.593465e-01 -2.001577e-01 -3.547728e-01 -2.754135e-01 6.149489e-01 -3.643952e-01 1.449508e+00 1.212292e-01 1.869513e+00 3.119325e-01 2.193128e+00 1.751871e-01 1.764724e+00 2.491987e-01 1.010741e+00 2.205294e-01 4.806214e-01 -3.296544e-01 5.036951e-01 -1.360905e+00 9.591147e-01 -1.687950e+00 8.550879e-01 -1.127261e+00 1.257505e-01 -5.797486e-01 -2.252540e-01 -2.003931e-01 1.287465e-01 1.465552e-02 -2.519892e-01 -8.420764e-01 -3.020260e+00 -9.066051e-01 3.027579e-01 -1.421115e+00 3.314426e+00 2.024053e-01 -2.139029e-01 1.818265e+00 -2.773445e+00 
5.852558e+00 -1.559656e+00 5.038691e+00 2.827953e+00 6.764060e+00 3.024480e-03 6.406012e+00 3.928332e-01 3.527566e+00 -1.421654e+00 2.561155e+00 -2.019663e+00 1.915333e+00 -2.532442e+00 2.749169e-01 -1.777779e-01 6.625879e-01 8.511587e-01 1.377140e+00 1.079413e+00 1.793126e+00 1.529268e+00 1.554254e+00 2.160282e+00 1.442887e+00 2.312500e+00 1.894597e+00 2.018197e+00 2.322214e+00 2.167112e+00 2.272220e+00 2.357014e+00 2.546874e+00 1.981507e+00 2.955426e+00 1.841009e+00 3.059508e+00 2.021318e+00 3.024991e+00 2.285075e+00 2.679809e+00 2.538785e+00 2.230986e+00 2.813449e+00 2.008698e+00 2.946188e+00 2.420094e+00 2.531217e+00 3.072850e+00 2.110933e+00 2.871672e+00 2.803608e+00 1.936122e+00 3.586679e+00 3.111800e+00 3.252332e+00 3.278863e+00 2.144723e+00 3.250786e+00 3.984542e+00 9.694901e-01 1.850506e+00 -1.153443e+00 2.087600e+00 
-1.145702e+00 -9.234750e-02 4.847101e-01 3.706313e+00 -7.344764e+00 4.364414e+00 -2.044210e+00 4.301510e+00 -6.643589e+00 -1.397780e+00 -1.888176e+00 -3.607473e-01 -3.106196e+00 -5.595656e-01 -4.796859e-01 1.191359e+00 3.671001e-01 1.524330e+00 1.125792e+00 1.566167e+00 1.685496e+00 1.665890e+00 1.692222e+00 2.011223e+00 1.916496e+00 2.053738e+00 2.343791e+00 1.648479e+00 2.590231e+00 1.588196e+00 2.414948e+00 1.720559e+00 2.445543e+00 1.624558e+00 2.724387e+00 1.780857e+00 2.822851e+00 2.031572e+00 2.817164e+00 2.265057e+00 2.892147e+00 2.502291e+00 3.169185e+00 2.580999e+00 3.108508e+00 2.669075e+00 2.633304e+00 2.776996e+00 2.883587e+00 2.162350e+00 4.333945e+00 8.975808e-01 5.236760e+00 1.468411e+00 3.715222e+00 4.229883e+00 2.701588e+00 2.714614e+00 4.166311e+00 5.008437e-01 2.243284e+00 -5.652603e-01 4.546740e+00 2.491756e+00 
4.162278e+00 7.116449e+00 1.644278e+00 1.363191e+00 2.951929e+00 3.074653e+00 -2.359011e+00 2.884625e+00 2.061088e+00 1.547779e+00 -4.383096e-01 -1.544512e-01 -1.707813e+00 9.162320e-01 1.682376e+00 1.980852e+00 2.527345e+00 2.924374e+00 2.869397e+00 2.660390e+00 2.450070e+00 2.138142e+00 2.124414e+00 2.097320e+00 2.108410e+00 2.008386e+00 2.336517e+00 1.837025e+00 2.576284e+00 1.851692e+00 2.614637e+00 2.000894e+00 2.722018e+00 2.111635e+00 2.856788e+00 2.277526e+00 2.866062e+00 2.435490e+00 2.933030e+00 2.477818e+00 3.149348e+00 2.373984e+00 3.429629e+00 2.236358e+00 3.418041e+00 2.468665e+00 2.864005e+00 3.095969e+00 2.334325e+00 2.827651e+00 3.293012e+00 4.777421e-01 5.218228e+00 -7.352508e-01 4.844132e+00 6.892219e-01 5.353213e+00 7.202206e-01 3.270725e+00 1.224380e+00 2.601141e+00 4.103371e-01 6.198021e+00 -4.532953e-01 
5.986001e+00 2.523224e+00 2.996754e+00 3.160048e+00 2.954555e+00 3.053323e+00 2.858200e+00 3.762933e+00 3.112154e+00 1.195035e+00 -2.350714e+00 1.393220e+00 1.481790e+00 1.856218e+00 2.567592e+00 3.315260e+00 2.138684e+00 2.565008e+00 2.425730e+00 2.356954e+00 1.833933e+00 1.912382e+00 1.942838e+00 2.231974e+00 2.310363e+00 2.253468e+00 2.424979e+00 1.985036e+00 2.505590e+00 1.880025e+00 2.557055e+00 1.917530e+00 2.666441e+00 1.959643e+00 2.810668e+00 2.067377e+00 2.874658e+00 2.227855e+00 2.895405e+00 2.392487e+00 2.977737e+00 2.455809e+00 3.140782e+00 2.317235e+00 3.305774e+00 2.146520e+00 3.428997e+00 2.149998e+00 3.296279e+00 2.619620e+00 2.442561e+00 3.514952e+00 1.383894e+00 3.526243e+00 1.850131e+00 1.896975e+00 2.357421e+00 2.572235e+00 8.049886e-01 3.560810e+00 1.134011e+00 5.514782e+00 3.255544e+00 3.368636e+00 
-4.213377e+00 -1.350935e+00 5.567689e+00 3.411673e+00 3.019124e+00 3.169297e+00 3.090151e+00 2.674588e+00 2.158249e+00 3.104577e+00 5.288450e+00 5.466446e+00 4.256212e+00 4.537782e+00 2.639128e+00 1.203136e+00 3.414267e-01 6.644810e-01 1.069434e+00 1.629259e+00 2.098446e+00 2.492800e+00 2.794429e+00 2.763675e+00 2.862714e+00 2.617878e+00 2.894391e+00 2.462686e+00 2.979809e+00 2.357928e+00 2.989283e+00 2.263798e+00 3.002442e+00 2.217104e+00 3.052494e+00 2.267391e+00 3.076524e+00 2.376669e+00 3.096423e+00 2.474671e+00 3.180577e+00 2.476825e+00 3.346409e+00 2.379667e+00 3.485858e+00 2.273899e+00 3.676626e+00 1.850209e+00 4.235058e+00 9.433480e-01 4.770289e+00 7.303935e-01 4.925109e+00 6.347413e-01 5.772411e+00 4.412624e-01 4.919185e+00 2.004241e+00 3.788893e+00 1.874847e+00 3.447647e+00 1.045937e+00 1.126499e+00 4.374304e+00 
8.606462e-01 -2.081963e+00 1.844636e-01 2.967308e+00 2.998665e+00 3.039529e+00 3.081088e+00 3.243105e+00 4.272262e+00 6.390623e+00 6.069784e+00 4.508444e+00 5.086229e+00 4.293873e+00 1.194609e+00 4.882167e-01 9.715014e-01 1.909054e+00 2.258187e+00 3.017860e+00 2.965610e+00 3.316912e+00 2.963393e+00 2.598479e+00 2.152989e+00 1.993494e+00 2.205990e+00 2.107809e+00 2.587379e+00 2.273658e+00 2.798967e+00 2.293530e+00 2.871285e+00 2.236754e+00 2.928424e+00 2.228599e+00 2.976594e+00 2.313824e+00 2.962596e+00 2.510589e+00 2.867865e+00 2.745151e+00 2.771541e+00 2.830403e+00 2.777928e+00 2.757094e+00 2.935301e+00 2.638773e+00 3.168583e+00 2.367032e+00 3.538303e+00 1.853913e+00 3.600539e+00 1.920810e+00 2.687874e+00 3.159838e+00 1.781268e+00 2.151250e+00 3.328079e+00 2.647221e-01 3.430188e+00 -3.083236e-01 1.984565e+00 -1.676756e+00 
2.605126e+00 3.784343e+00 1.330431e+00 2.919821e+00 3.029140e+00 3.045692e+00 2.983386e+00 3.594213e+00 5.933394e+00 4.979888e+00 2.830461e+00 3.203615e+00 3.102579e+00 3.149893e+00 3.521717e+00 3.638830e+00 4.515990e+00 4.986510e+00 3.852694e+00 3.045965e+00 2.841852e+00 2.670096e+00 2.521858e+00 2.237507e+00 2.506351e+00 2.437868e+00 2.977201e+00 2.674902e+00 3.245641e+00 2.688047e+00 3.337402e+00 2.574924e+00 3.357934e+00 2.407879e+00 3.373951e+00 2.276302e+00 3.401557e+00 2.252842e+00 3.374896e+00 2.396066e+00 3.223979e+00 2.611463e+00 3.145935e+00 2.483786e+00 3.545184e+00 1.925633e+00 4.018752e+00 1.939712e+00 3.597978e+00 2.612309e+00 3.369646e+00 2.447899e+00 3.658874e+00 2.816295e+00 2.954822e+00 2.828359e+00 3.534942e+00 2.024989e+00 2.847075e+00 3.023391e+00 2.912203e+00 2.473770e+00 3.285291e+00 4.381252e+00 
2.946890e+00 4.844761e+00 3.079229e+00 3.090334e+00 2.997604e+00 3.055735e+00 2.914613e+00 4.624830e+00 4.663952e+00 2.711461e+00 2.924283e+00 3.787348e+00 2.978232e+00 3.153326e+00 3.600026e+00 3.956009e+00 3.395333e+00 2.396272e+00 6.411863e-01 3.451860e-01 7.264200e-01 1.741830e+00 2.290777e+00 2.677121e+00 2.686190e+00 2.620767e+00 2.705639e+00 2.578247e+00 2.735553e+00 2.416022e+00 2.704760e+00 2.308479e+00 2.792785e+00 2.298858e+00 2.956652e+00 2.285904e+00 3.122747e+00 2.246355e+00 3.237263e+00 2.292459e+00 3.177041e+00 2.575574e+00 2.896988e+00 2.947951e+00 2.721878e+00 2.968558e+00 2.887547e+00 2.704884e+00 3.032130e+00 2.749836e+00 2.579532e+00 3.420217e+00 2.120409e+00 3.184690e+00 3.126895e+00 1.665419e+00 4.184257e+00 2.055787e+00 2.774512e+00 3.752978e+00 2.775167e+00 3.668452e+00 1.983960e+00 5.034534e+00 
3.685233e+00 2.477417e+00 1.585347e+00 2.991567e+00 3.024435e+00 3.033092e+00 3.000376e+00 3.895515e+00 2.972376e+00 2.922620e+00 2.855673e+00 3.253972e+00 3.930731e+00 3.825847e+00 4.094957e+00 4.011352e+00 3.380314e+00 2.797075e+00 2.697964e+00 3.417775e+00 3.832354e+00 3.426960e+00 3.115457e+00 2.871431e+00 2.859913e+00 2.778943e+00 3.097734e+00 2.820359e+00 3.149032e+00 2.785377e+00 3.313591e+00 2.793403e+00 3.449542e+00 2.680878e+00 3.490166e+00 2.466844e+00 3.555107e+00 2.259723e+00 3.668587e+00 2.159876e+00 3.649913e+00 2.322965e+00 3.330569e+00 2.587498e+00 3.179745e+00 2.154915e+00 3.824605e+00 1.394027e+00 3.680356e+00 2.179095e+00 2.227503e+00 2.964954e+00 2.693546e+00 1.962425e+00 2.877120e+00 3.250519e+00 1.758628e+00 2.750020e+00 2.886816e+00 2.509396e+00 1.637620e+00 3.438349e+00 1.692201e+00 2.857620e+00 
3.686898e-01 4.851254e+00 2.208323e+00 3.002024e+00 3.036833e+00 3.036953e+00 3.047947e+00 3.506173e+00 3.163475e+00 3.282461e+00 3.124633e+00 3.754824e+00 3.588236e+00 3.490116e+00 2.900013e+00 3.075468e+00 3.266891e+00 3.457214e+00 3.095827e+00 3.447062e+00 2.900279e+00 1.763856e+00 8.214215e-01 1.091984e+00 1.502470e+00 2.033182e+00 2.629904e+00 2.927196e+00 3.104497e+00 2.909827e+00 3.096445e+00 2.869873e+00 3.236851e+00 2.899587e+00 3.320063e+00 2.793396e+00 3.267733e+00 2.638250e+00 3.201474e+00 2.548379e+00 3.195533e+00 2.467225e+00 3.314402e+00 2.261028e+00 3.605699e+00 2.119758e+00 3.423894e+00 2.914061e+00 2.159210e+00 3.992128e+00 1.712040e+00 3.707267e+00 2.411084e+00 3.127241e+00 3.119128e+00 2.476428e+00 3.552735e+00 2.074932e+00 3.379966e+00 2.843291e+00 2.120228e+00 3.304756e+00 2.392021e+00 3.939387e+00 
2.833414e+00 3.183651e+00 2.726966e+00 3.061130e+00 3.046789e+00 3.049799e+00 3.061727e+00 3.035341e+00 2.566695e+00 3.582225e+00 3.556122e+00 3.399776e+00 4.083075e+00 3.664280e+00 3.269452e+00 3.438084e+00 3.509449e+00 3.119702e+00 3.306208e+00 3.069192e+00 3.074163e+00 2.728198e+00 3.036457e+00 3.117596e+00 3.303601e+00 3.093538e+00 3.803191e+00 3.324881e+00 3.411133e+00 2.828375e+00 3.365261e+00 2.817741e+00 3.489923e+00 2.801095e+00 3.566517e+00 2.713434e+00 3.634781e+00 2.611773e+00 3.702876e+00 2.515036e+00 3.748080e+00 2.408016e+00 3.771443e+00 2.222540e+00 3.789508e+00 1.863149e+00 3.796478e+00 1.717719e+00 3.781955e+00 2.661081e+00 2.619584e+00 4.378201e+00 1.693709e+00 3.653295e+00 3.597127e+00 1.553753e+00 4.257096e+00 2.515635e+00 3.045839e+00 3.079828e+00 3.330064e+00 2.588272e+00 3.583634e+00 3.069554e+00 
2.333805e+00 3.624442e+00 2.628380e+00 3.032096e+00 3.044096e+00 3.042958e+00 3.057443e+00 2.842336e+00 2.946648e+00 3.465793e+00 3.349218e+00 3.523171e+00 3.372909e+00 3.170548e+00 3.156386e+00 3.326810e+00 2.945379e+00 3.140743e+00 3.267044e+00 3.437800e+00 2.857828e+00 2.960065e+00 3.200172e+00 2.999406e+00 1.685886e+00 1.391862e+00 1.827334e+00 2.347061e+00 2.092066e+00 2.130389e+00 2.362230e+00 2.616059e+00 2.858889e+00 2.852734e+00 3.043319e+00 2.769254e+00 3.066212e+00 2.589290e+00 3.129605e+00 2.408468e+00 3.280221e+00 2.229145e+00 3.461437e+00 1.995957e+00 3.884608e+00 1.162422e+00 4.734022e+00 5.300100e-01 4.534911e+00 1.283410e+00 4.139247e+00 1.554938e+00 3.650773e+00 2.115002e+00 2.964521e+00 2.635971e+00 2.883365e+00 2.603473e+00 3.079482e+00 2.629080e+00 3.031664e+00 3.120322e+00 2.603431e+00 3.845762e+00 
3.259603e+00 3.196422e+00 2.717957e+00 3.041645e+00 3.048522e+00 3.050772e+00 3.049046e+00 3.018428e+00 2.901195e+00 3.556869e+00 3.162767e+00 3.484041e+00 3.602635e+00 3.436406e+00 3.282833e+00 3.521804e+00 3.199868e+00 3.029353e+00 3.279359e+00 3.164293e+00 3.057489e+00 2.829866e+00 3.431750e+00 3.080974e+00 3.019004e+00 2.230140e+00 2.509669e+00 2.326394e+00 2.714193e+00 2.397311e+00 3.482295e+00 3.298658e+00 4.063915e+00 3.509169e+00 4.244557e+00 3.399247e+00 4.277312e+00 3.033528e+00 4.280167e+00 2.511942e+00 4.397772e+00 2.014522e+00 4.562229e+00 2.004918e+00 4.395142e+00 2.905601e+00 3.912597e+00 3.408656e+00 3.841449e+00 2.726852e+00 4.023695e+00 1.942478e+00 3.859560e+00 2.489338e+00 2.937239e+00 3.286492e+00 2.627182e+00 3.242581e+00 2.892820e+00 3.078666e+00 2.863471e+00 3.595655e+00 2.458745e+00 3.501385e+00 
3.327789e+00 3.331543e+00 3.270743e+00 3.071443e+00 3.045336e+00 3.054218e+00 3.046437e+00 2.981983e+00 3.068643e+00 3.221128e+00 3.188649e+00 3.309536e+00 3.297028e+00 3.177672e+00 3.264449e+00 3.199550e+00 3.207900e+00 3.196687e+00 3.272589e+00 3.246964e+00 3.289387e+00 3.025184e+00 3.163141e+00 3.009707e+00 2.961748e+00 2.012444e+00 8.963744e-01 3.213139e-01 4.555648e-01 7.834702e-01 1.651523e+00 2.188745e+00 2.544934e+00 2.397091e+00 2.634114e+00 2.374939e+00 2.826458e+00 2.408616e+00 3.112130e+00 2.344758e+00 3.408100e+00 2.263098e+00 3.556900e+00 2.586920e+00 3.025725e+00 3.866616e+00 1.999380e+00 4.403741e+00 2.582231e+00 3.330870e+00 3.081754e+00 2.879705e+00 3.355508e+00 2.579619e+00 3.007497e+00 3.302230e+00 2.776748e+00 2.814702e+00 3.503971e+00 2.934596e+00 2.920951e+00 3.537104e+00 2.823278e+00 3.295303e+00 
3.340422e+00 3.245989e+00 3.106921e+00 3.065202e+00 3.049146e+00 3.056382e+00 3.048141e+00 3.064785e+00 2.993638e+00 3.218030e+00 3.117311e+00 3.323753e+00 3.270589e+00 3.369289e+00 3.231443e+00 3.254266e+00 3.258675e+00 3.145046e+00 3.073014e+00 3.306220e+00 3.144689e+00 3.051894e+00 3.147739e+00 3.454490e+00 3.308352e+00 2.717026e+00 1.614693e+00 1.841390e+00 1.977838e+00 2.168190e+00 2.239649e+00 2.980720e+00 3.400232e+00 3.523196e+00 3.777295e+00 3.507379e+00 3.776375e+00 3.330768e+00 3.681549e+00 3.178582e+00 3.578084e+00 3.137357e+00 3.411119e+00 3.267118e+00 2.963216e+00 3.698515e+00 2.063934e+00 4.357860e+00 1.629057e+00 3.939682e+00 2.878781e+00 2.790421e+00 3.351506e+00 3.224241e+00 2.671394e+00 3.374178e+00 2.948361e+00 3.077046e+00 3.268493e+00 2.841113e+00 3.040920e+00 3.461198e+00 3.044257e+00 2.770026e+00 
3.150252e+00 3.245663e+00 2.992042e+00 3.047409e+00 3.045240e+00 3.050512e+00 3.044326e+00 3.058522e+00 3.063634e+00 3.129314e+00 3.159467e+00 3.171452e+00 3.201384e+00 3.225428e+00 3.179725e+00 3.154358e+00 3.379679e+00 3.145812e+00 3.167950e+00 3.433290e+00 3.316782e+00 3.338077e+00 2.918840e+00 3.547728e+00 3.936581e+00 4.317794e+00 3.964263e+00 4.077608e+00 4.098263e+00 3.866996e+00 3.179942e+00 2.986755e+00 2.972495e+00 2.952272e+00 3.120866e+00 2.905511e+00 3.008666e+00 2.778095e+00 2.870097e+00 2.793227e+00 2.786498e+00 2.928627e+00 2.660741e+00 3.148809e+00 2.359380e+00 3.483317e+00 2.043415e+00 3.672705e+00 2.169917e+00 3.503746e+00 2.426717e+00 3.495316e+00 2.650635e+00 3.309998e+00 2.975764e+00 3.262660e+00 2.709602e+00 3.386699e+00 3.169050e+00 2.720119e+00 3.090160e+00 3.435810e+00 2.776534e+00 2.918727e+00 
3.245695e+00 3.095867e+00 2.923437e+00 3.049208e+00 3.050899e+00 3.053761e+00 3.051151e+00 3.039420e+00 3.042527e+00 3.079453e+00 3.164550e+00 3.108830e+00 3.243287e+00 3.297410e+00 3.111967e+00 3.280800e+00 3.268828e+00 3.206174e+00 3.049984e+00 3.366313e+00 3.205053e+00 3.434331e+00 2.938210e+00 3.326648e+00 3.669077e+00 3.919112e+00 4.254094e+00 4.110595e+00 4.373477e+00 4.762647e+00 4.414515e+00 3.243673e+00 2.765956e+00 2.747496e+00 2.953441e+00 3.064246e+00 3.117910e+00 3.261522e+00 3.110472e+00 3.358727e+00 3.030506e+00 3.388803e+00 2.915714e+00 3.424153e+00 2.697805e+00 3.565109e+00 2.441745e+00 3.652690e+00 2.529639e+00 3.416614e+00 2.644917e+00 3.587245e+00 2.375166e+00 3.517570e+00 2.805177e+00 3.178148e+00 2.661159e+00 3.408011e+00 2.832998e+00 2.827655e+00 3.063041e+00 3.262167e+00 2.726549e+00 2.908027e+00 
3.011081e+00 3.039196e+00 2.888542e+00 3.044624e+00 3.047082e+00 3.048946e+00 3.048530e+00 3.039465e+00 3.050486e+00 3.108402e+00 3.137525e+00 3.068115e+00 3.185908e+00 3.248802e+00 2.994939e+00 3.359373e+00 3.166548e+00 3.341899e+00 3.167052e+00 3.252428e+00 3.434742e+00 3.466126e+00 3.401653e+00 3.180822e+00 3.410844e+00 3.690707e+00 4.090397e+00 3.361660e+00 3.679769e+00 3.843743e+00 3.171412e+00 2.004176e+00 1.910162e+00 2.217359e+00 2.481944e+00 2.857252e+00 2.810072e+00 3.114403e+00 2.763366e+00 3.147395e+00 2.600726e+00 3.165882e+00 2.461963e+00 3.232101e+00 2.341209e+00 3.310820e+00 2.316346e+00 3.279423e+00 2.422095e+00 3.200604e+00 2.417583e+00 3.362664e+00 2.333169e+00 3.306987e+00 2.664494e+00 3.083559e+00 2.620193e+00 3.314030e+00 2.638394e+00 2.893255e+00 2.997702e+00 3.105012e+00 2.589287e+00 3.080053e+00 
3.039469e+00 2.986286e+00 2.956561e+00 3.053157e+00 3.052770e+00 3.054241e+00 3.055692e+00 3.013840e+00 3.022889e+00 3.154125e+00 3.014729e+00 3.130634e+00 3.164191e+00 3.242494e+00 3.067152e+00 3.313694e+00 3.189558e+00 3.215778e+00 3.261319e+00 3.141105e+00 3.227679e+00 3.312889e+00 3.609927e+00 2.899665e+00 3.051413e+00 3.604911e+00 3.392171e+00 3.257641e+00 3.511191e+00 2.847498e+00 1.735490e+00 1.628252e+00 1.679247e+00 2.302430e+00 2.347504e+00 2.902712e+00 2.729840e+00 3.236620e+00 2.822958e+00 3.397268e+00 2.785183e+00 3.449169e+00 2.720642e+00 3.453804e+00 2.639205e+00 3.466666e+00 2.576390e+00 3.431505e+00 2.620795e+00 3.316470e+00 2.643796e+00 3.364953e+00 2.531731e+00 3.339478e+00 2.685320e+00 3.171057e+00 2.674380e+00 3.266017e+00 2.691448e+00 3.004475e+00 2.976488e+00 3.046462e+00 2.758830e+00 3.109389e+00 
2.882188e+00 3.005341e+00 2.941836e+00 3.048727e+00 3.047660e+00 3.049735e+00 3.046476e+00 3.088243e+00 3.055845e+00 3.202899e+00 2.935341e+00 3.135921e+00 3.092509e+00 3.099809e+00 3.183425e+00 3.194584e+00 3.184963e+00 3.194751e+00 3.438330e+00 3.083538e+00 2.971231e+00 3.583866e+00 3.475912e+00 3.031818e+00 3.236163e+00 3.436518e+00 2.945662e+00 3.552119e+00 3.351947e+00 3.094222e+00 2.436669e+00 2.768436e+00 2.160036e+00 2.669509e+00 2.312234e+00 2.979412e+00 2.543953e+00 3.210777e+00 2.603861e+00 3.306980e+00 2.530678e+00 3.310602e+00 2.430022e+00 3.302616e+00 2.357328e+00 3.296057e+00 2.347513e+00 3.251737e+00 2.396014e+00 3.200262e+00 2.428612e+00 3.224578e+00 2.432448e+00 3.204322e+00 2.542344e+00 3.118672e+00 2.589688e+00 3.166498e+00 2.601814e+00 3.027282e+00 2.829365e+00 3.005766e+00 2.717563e+00 3.114674e+00 
2.940955e+00 3.007799e+00 2.990450e+00 3.054752e+00 3.051802e+00 3.054935e+00 3.045881e+00 3.147962e+00 3.090353e+00 3.112155e+00 2.981828e+00 3.064253e+00 3.157144e+00 3.034740e+00 3.278533e+00 3.239733e+00 2.981094e+00 3.234466e+00 3.412326e+00 2.837322e+00 2.969882e+00 3.494269e+00 3.095663e+00 3.303785e+00 3.214033e+00 3.041951e+00 2.932790e+00 3.264074e+00 2.950975e+00 3.132495e+00 2.917894e+00 3.069876e+00 2.545672e+00 2.768736e+00 2.396300e+00 2.951785e+00 2.528242e+00 3.187843e+00 2.614600e+00 3.376459e+00 2.623534e+00 3.456582e+00 2.598053e+00 3.461755e+00 2.565703e+00 3.447747e+00 2.537647e+00 3.414159e+00 2.553928e+00 3.337192e+00 2.598347e+00 3.294384e+00 2.588317e+00 3.278493e+00 2.625041e+00 3.194446e+00 2.691454e+00 3.162615e+00 2.720702e+00 3.076872e+00 2.871291e+00 3.023118e+00 2.846860e+00 3.102507e+00 
2.866978e+00 3.026184e+00 2.962610e+00 3.049289e+00 3.048824e+00 3.050064e+00 3.047977e+00 3.075565e+00 3.119228e+00 3.022361e+00 3.028337e+00 3.143072e+00 3.133925e+00 3.078848e+00 3.398353e+00 3.092692e+00 2.866291e+00 3.415879e+00 3.146891e+00 2.991953e+00 3.194941e+00 3.260896e+00 3.108833e+00 3.563476e+00 3.243164e+00 3.190410e+00 3.120753e+00 3.272407e+00 2.924953e+00 3.079702e+00 2.999379e+00 3.249801e+00 2.608074e+00 2.696965e+00 2.132726e+00 2.790680e+00 2.275645e+00 3.125058e+00 2.430216e+00 3.331183e+00 2.461869e+00 3.376388e+00 2.421241e+00 3.352221e+00 2.373378e+00 3.318640e+00 2.352603e+00 3.277959e+00 2.374102e+00 3.227938e+00 2.421527e+00 3.199768e+00 2.456405e+00 3.183904e+00 2.513644e+00 3.133829e+00 2.593242e+00 3.108077e+00 2.641809e+00 3.062518e+00 2.762149e+00 3.022841e+00 2.785825e+00 3.081345e+00 
2.925613e+00 3.034066e+00 2.992296e+00 3.054270e+00 3.055352e+00 3.054794e+00 3.060492e+00 2.965245e+00 3.088458e+00 2.947889e+00 3.117928e+00 3.293215e+00 3.039953e+00 3.273639e+00 3.360168e+00 2.933525e+00 2.979837e+00 3.238759e+00 2.990659e+00 3.243466e+00 3.137741e+00 3.033810e+00 3.159830e+00 3.439862e+00 3.168679e+00 3.206085e+00 3.073898e+00 3.143727e+00 2.820814e+00 2.999812e+00 3.050792e+00 3.207065e+00 2.495762e+00 2.459185e+00 1.804513e+00 2.427947e+00 2.051953e+00 2.967851e+00 2.364064e+00 3.308205e+00 2.485338e+00 3.434533e+00 2.511923e+00 3.447722e+00 2.510816e+00 3.427226e+00 2.501357e+00 3.394627e+00 2.516828e+00 3.330122e+00 2.564448e+00 3.273584e+00 2.582760e+00 3.252939e+00 2.609584e+00 3.190862e+00 2.688461e+00 3.130370e+00 2.742124e+00 3.088173e+00 2.825540e+00 3.051390e+00 2.861541e+00 3.077383e+00 
2.874456e+00 3.040132e+00 2.962335e+00 3.048984e+00 3.050452e+00 3.050022e+00 3.050693e+00 3.039230e+00 2.988825e+00 2.968102e+00 3.241265e+00 3.149382e+00 2.946923e+00 3.325062e+00 3.045945e+00 2.967038e+00 3.103185e+00 3.107794e+00 3.082656e+00 3.461307e+00 3.152640e+00 3.144085e+00 3.175417e+00 3.465793e+00 3.173884e+00 3.326431e+00 3.083505e+00 3.284215e+00 2.775374e+00 3.268541e+00 3.037732e+00 3.144474e+00 2.203985e+00 2.290407e+00 1.295141e+00 2.256204e+00 1.728107e+00 2.978060e+00 2.243897e+00 3.334980e+00 2.410403e+00 3.410130e+00 2.419677e+00 3.378871e+00 2.388786e+00 3.331530e+00 2.367565e+00 3.284146e+00 2.383021e+00 3.229177e+00 2.427239e+00 3.191019e+00 2.463299e+00 3.172975e+00 2.512382e+00 3.131869e+00 2.591053e+00 3.094220e+00 2.657396e+00 3.065803e+00 2.741828e+00 3.044012e+00 2.798775e+00 3.060781e+00 
2.919192e+00 3.046887e+00 2.984802e+00 3.054028e+00 3.054645e+00 3.054850e+00 3.051389e+00 3.079066e+00 2.856331e+00 3.130642e+00 3.199997e+00 3.007552e+00 2.982685e+00 3.163254e+00 2.955121e+00 3.168876e+00 3.142628e+00 3.141010e+00 3.244683e+00 3.444520e+00 3.015654e+00 3.113080e+00 2.968699e+00 3.261225e+00 2.916180e+00 3.250494e+00 3.169467e+00 3.339606e+00 2.693492e+00 3.282267e+00 3.152276e+00 3.880802e+00 3.299215e+00 3.343373e+00 2.134776e+00 2.700120e+00 1.942805e+00 3.029571e+00 2.267317e+00 3.316588e+00 2.412716e+00 3.418914e+00 2.456132e+00 3.424511e+00 2.469870e+00 3.399221e+00 2.473946e+00 3.363003e+00 2.496373e+00 3.304010e+00 2.541318e+00 3.253493e+00 2.567065e+00 3.228774e+00 2.601606e+00 3.176200e+00 2.674804e+00 3.120615e+00 2.738278e+00 3.086088e+00 2.802253e+00 3.067888e+00 2.850726e+00 3.066843e+00 
2.876249e+00 3.046172e+00 2.958830e+00 3.048774e+00 3.051891e+00 3.049931e+00 3.053586e+00 2.991567e+00 2.888247e+00 3.305619e+00 3.149022e+00 3.000589e+00 2.986214e+00 3.038686e+00 2.999777e+00 3.309687e+00 3.147777e+00 3.173235e+00 3.184255e+00 3.403940e+00 2.916330e+00 2.953888e+00 2.903811e+00 3.375703e+00 2.818163e+00 3.208752e+00 3.153303e+00 3.396866e+00 2.801795e+00 3.449131e+00 3.140119e+00 3.720018e+00 2.856794e+00 3.386672e+00 2.724264e+00 3.552558e+00 2.669623e+00 3.524047e+00 2.538085e+00 3.485558e+00 2.475983e+00 3.446613e+00 2.429902e+00 3.384941e+00 2.393096e+00 3.327856e+00 2.374834e+00 3.275438e+00 2.391627e+00 3.219314e+00 2.431423e+00 3.181916e+00 2.465354e+00 3.161596e+00 2.513852e+00 3.125210e+00 2.586107e+00 3.090316e+00 2.657725e+00 3.063869e+00 2.733390e+00 3.051917e+00 2.797652e+00 3.052749e+00 
2.909443e+00 3.052236e+00 2.978044e+00 3.053815e+00 3.056762e+00 3.054761e+00 3.061833e+00 2.952313e+00 3.011667e+00 3.307949e+00 3.145344e+00 3.082245e+00 3.015218e+00 2.970505e+00 3.033058e+00 3.313623e+00 3.146443e+00 3.109734e+00 3.022054e+00 3.122192e+00 2.787748e+00 3.179097e+00 3.105386e+00 3.100090e+00 2.996289e+00 3.555231e+00 3.390106e+00 3.362022e+00 2.922076e+00 3.193074e+00 2.902125e+00 3.679397e+00 3.920307e+00 4.622928e+00 3.673964e+00 3.550740e+00 2.555161e+00 3.182888e+00 2.326005e+00 3.287579e+00 2.368590e+00 3.387293e+00 2.409681e+00 3.395077e+00 2.430871e+00 3.368317e+00 2.444059e+00 3.329731e+00 2.473263e+00 3.275020e+00 2.517218e+00 3.232202e+00 2.546275e+00 3.207436e+00 2.587324e+00 3.161122e+00 2.656776e+00 3.113807e+00 2.722846e+00 3.083012e+00 2.783262e+00 3.072564e+00 2.836418e+00 3.063790e+00 
2.872831e+00 3.048470e+00 2.954941e+00 3.048756e+00 3.052263e+00 3.049938e+00 3.056608e+00 2.972625e+00 3.084240e+00 3.203631e+00 3.119817e+00 3.078237e+00 2.912698e+00 2.891927e+00 3.050014e+00 3.263610e+00 3.026925e+00 2.989043e+00 3.003332e+00 2.924005e+00 2.801525e+00 3.144139e+00 3.163841e+00 3.188307e+00 3.092298e+00 3.216184e+00 3.124002e+00 3.251045e+00 2.969402e+00 2.808799e+00 2.128492e+00 2.602654e+00 2.651595e+00 3.328263e+00 2.323402e+00 2.692765e+00 1.897266e+00 2.883743e+00 2.082927e+00 3.219553e+00 2.304450e+00 3.361322e+00 2.359862e+00 3.347102e+00 2.360024e+00 3.304285e+00 2.359822e+00 3.256854e+00 2.385473e+00 3.204490e+00 2.426142e+00 3.171452e+00 2.459048e+00 3.153041e+00 2.507171e+00 3.120230e+00 2.576979e+00 3.087541e+00 2.651313e+00 3.060961e+00 2.726484e+00 3.051963e+00 2.793476e+00 3.049396e+00 
2.897473e+00 3.054191e+00 2.970710e+00 3.054030e+00 3.054935e+00 3.055069e+00 3.054237e+00 3.078526e+00 3.077597e+00 3.040757e+00 3.104437e+00 3.130048e+00 2.922285e+00 2.943266e+00 3.058839e+00 3.239479e+00 3.028486e+00 2.980033e+00 2.771067e+00 2.986723e+00 3.358260e+00 3.078443e+00 2.783385e+00 3.269764e+00 3.313859e+00 3.007899e+00 2.453686e+00 2.684538e+00 2.464670e+00 2.628139e+00 2.463976e+00 2.739348e+00 1.620338e+00 1.552078e+00 5.804389e-01 1.417251e+00 5.615290e-01 2.009825e+00 1.432248e+00 2.952713e+00 2.131978e+00 3.313569e+00 2.334007e+00 3.362065e+00 2.384672e+00 3.337503e+00 2.406587e+00 3.298425e+00 2.441874e+00 3.247538e+00 2.487746e+00 3.211298e+00 2.519355e+00 3.190087e+00 2.564109e+00 3.149082e+00 2.633283e+00 3.107612e+00 2.701406e+00 3.079417e+00 2.763997e+00 3.071423e+00 2.821357e+00 3.062240e+00 
2.866419e+00 3.049014e+00 2.949648e+00 3.048865e+00 3.049143e+00 3.050104e+00 3.043280e+00 3.173380e+00 3.074905e+00 2.955738e+00 3.023214e+00 3.211671e+00 3.072348e+00 3.011257e+00 2.972500e+00 3.225887e+00 3.182534e+00 3.176688e+00 2.644607e+00 2.889323e+00 3.390972e+00 3.422349e+00 2.816954e+00 2.708343e+00 2.789026e+00 3.419737e+00 2.745998e+00 2.850674e+00 2.372102e+00 2.832666e+00 2.631299e+00 3.587460e+00 3.002996e+00 3.567231e+00 3.395596e+00 4.444156e+00 2.768005e+00 2.892059e+00 1.788292e+00 3.100932e+00 2.155878e+00 3.286406e+00 2.270672e+00 3.298335e+00 2.305600e+00 3.271268e+00 2.324795e+00 3.233646e+00 2.361958e+00 3.187861e+00 2.408469e+00 3.159998e+00 2.443389e+00 3.145904e+00 2.491892e+00 3.116577e+00 2.562171e+00 3.084723e+00 2.640039e+00 3.056751e+00 2.718212e+00 3.048265e+00 2.786986e+00 3.046802e+00 