# vtk DataFile Version 2.0
Comment goes here
ASCII

DATASET STRUCTURED_POINTS
DIMENSIONS    64   64   1

ORIGIN    0.000   0.000   0.000
SPACING   0.0156250.015625   1.000

POINT_DATA   4096
SCALARS uX double
LOOKUP_TABLE default

2.282340e+00 2.588272e+00 2.574042e+00 2.669215e+00 -5.604084e+00 -2.580324e+00 -2.361489e+00 1.933627e+00 -5.641620e+00 -3.103967e-01 -2.031099e+00 2.006715e+00 -2.071469e-01 1.517707e-01 9.411664e-02 6.282120e-01 1.231130e-01 9.783854e-01 3.648766e-01 1.126559e+00 7.454114e-01 1.079807e+00 1.068476e+00 1.099361e+00 1.179629e+00 1.318457e+00 1.099998e+00 1.604012e+00 9.486099e-01 1.781119e+00 9.378302e-01 1.779827e+00 1.127416e+00 1.666795e+00 1.361759e+00 1.551011e+00 1.507079e+00 1.506985e+00 1.553283e+00 1.522292e+00 1.532969e+00 1.556320e+00 1.478510e+00 1.577023e+00 1.423996e+00 1.567043e+00 1.395258e+00 1.522479e+00 1.384272e+00 1.445166e+00 1.377583e+00 1.327325e+00 1.372027e+00 1.168625e+00 1.320201e+00 1.062004e+00 1.196739e+00 1.304502e+00 2.695527e+00 4.436717e-01 3.567824e+00 1.257205e+00 3.567158e+00 5.915072e-01 
6.815022e-01 -7.920833e+00 3.129514e-01 -2.902450e+00 -4.203607e+00 -4.064016e+00 -1.201192e+00 -2.731905e+00 -5.364283e+00 5.124010e-01 -3.460534e+00 8.116659e-01 -1.618939e+00 1.012280e-01 -2.800679e-01 6.341330e-01 8.182672e-02 1.124559e+00 3.607436e-01 1.306062e+00 8.153134e-01 1.226044e+00 1.253948e+00 1.191108e+00 1.350027e+00 1.341117e+00 1.192288e+00 1.621418e+00 1.010532e+00 1.828701e+00 1.008635e+00 1.787714e+00 1.199351e+00 1.623426e+00 1.450478e+00 1.526818e+00 1.611649e+00 1.533554e+00 1.651282e+00 1.567087e+00 1.618602e+00 1.598721e+00 1.565089e+00 1.616512e+00 1.522421e+00 1.596746e+00 1.504650e+00 1.524887e+00 1.493434e+00 1.397895e+00 1.457740e+00 1.204220e+00 1.299222e+00 8.671679e-01 7.522139e-01 -3.924064e-02 -8.029977e-01 -2.755054e+00 -3.501655e+00 -4.214095e+00 -2.181474e+00 4.086483e-01 -7.437542e-01 -3.215686e+00 
2.508531e+00 3.917977e-01 5.652997e-01 -2.391569e+00 1.818866e+00 -2.555344e+00 -5.319469e+00 -3.044619e+00 -2.192183e-01 -3.887230e+00 -1.809572e-01 -3.702206e+00 1.385394e-01 1.151050e-01 -9.064465e-01 7.143089e-01 -4.753811e-01 7.954566e-01 6.390627e-02 5.596043e-01 5.717741e-01 3.791916e-01 8.743390e-01 4.524847e-01 8.338016e-01 7.512619e-01 5.854082e-01 1.148531e+00 4.523170e-01 1.375566e+00 5.681732e-01 1.208909e+00 8.259237e-01 8.061736e-01 1.035497e+00 5.322351e-01 1.047101e+00 5.220462e-01 8.942728e-01 6.425061e-01 7.316522e-01 7.509556e-01 6.361805e-01 7.991584e-01 6.116870e-01 7.578687e-01 6.458922e-01 6.263919e-01 7.111003e-01 4.534828e-01 7.555344e-01 3.255077e-01 7.190699e-01 3.424825e-01 6.389654e-01 6.005036e-01 6.950547e-01 7.730912e-01 -5.438476e-02 8.337724e-02 1.360741e+00 2.025463e+00 -7.801752e-01 5.961561e+00 
9.147021e-03 -9.104752e-02 -2.719157e+00 -1.537488e+00 5.008368e+00 2.600438e+00 5.066992e-01 3.173630e+00 5.790209e-01 2.220346e+00 -2.038923e-02 1.732360e+00 -5.094104e-01 1.500791e+00 -1.243362e+00 1.154518e+00 -1.061247e+00 1.533491e-01 -2.125582e-01 -7.052453e-01 1.504853e-01 -8.476109e-01 -8.268549e-02 -6.282374e-01 -3.238334e-01 -4.069181e-01 -4.498164e-01 -3.577674e-01 -3.776639e-01 -5.232872e-01 -1.828522e-01 -7.385358e-01 4.109632e-02 -9.581241e-01 1.791298e-01 -1.071636e+00 1.180939e-01 -9.815579e-01 -1.045259e-01 -7.386032e-01 -3.253026e-01 -5.266716e-01 -4.526534e-01 -4.240016e-01 -4.738851e-01 -4.244536e-01 -4.182100e-01 -4.925180e-01 -3.027896e-01 -5.782894e-01 -1.800203e-01 -6.155209e-01 -8.594485e-02 -5.398192e-01 4.520982e-03 -2.478540e-01 2.726527e-01 4.795204e-01 8.546035e-01 1.871054e+00 8.817274e-01 6.297195e-01 2.233906e+00 9.159284e-01 
7.842764e-01 -4.125104e+00 -3.714654e+00 -6.665355e-01 -7.020312e+00 1.704523e+00 -2.201149e+00 8.329247e-01 -3.723678e+00 1.099789e+00 -1.631592e+00 1.029799e+00 -1.398927e+00 2.781986e-01 -5.449242e-01 4.622575e-01 -4.279701e-02 1.555960e-01 2.646720e-01 9.596032e-02 1.609867e-01 4.335889e-01 -1.276982e-01 6.176474e-01 -1.682316e-01 3.766639e-01 7.855108e-02 -7.885250e-02 4.313949e-01 -4.177097e-01 5.422785e-01 -3.951824e-01 3.717430e-01 -1.134189e-01 2.101412e-01 1.612924e-01 2.051656e-01 2.659637e-01 2.529493e-01 2.594942e-01 2.628779e-01 2.200844e-01 2.539778e-01 1.868975e-01 2.522632e-01 1.854476e-01 2.370851e-01 2.126423e-01 2.085696e-01 2.470077e-01 1.700041e-01 2.471967e-01 1.276446e-01 1.087203e-01 1.974066e-02 -3.867378e-01 -5.098982e-01 -1.359333e+00 -1.492605e+00 -3.391315e-01 -9.624801e-01 1.203737e+00 -7.541466e-02 -1.797697e+00 
8.672999e-01 8.249375e+00 2.525338e+00 5.607994e+00 -5.660752e+00 -6.917989e-01 -4.966608e+00 -5.733242e-01 -4.357975e+00 8.614365e-01 -2.726148e+00 8.272315e-01 -2.183499e-01 6.888354e-01 5.304464e-01 8.439836e-01 9.948200e-01 1.238466e+00 9.113286e-01 1.719951e+00 8.310947e-01 1.994010e+00 9.706306e-01 1.993753e+00 1.227378e+00 1.780851e+00 1.579594e+00 1.553347e+00 1.857640e+00 1.511988e+00 1.888742e+00 1.658727e+00 1.689515e+00 1.912906e+00 1.485399e+00 2.091297e+00 1.469522e+00 2.080733e+00 1.599796e+00 1.952880e+00 1.732749e+00 1.840385e+00 1.806262e+00 1.788434e+00 1.803252e+00 1.806927e+00 1.716949e+00 1.891055e+00 1.553124e+00 2.012853e+00 1.358705e+00 2.110307e+00 1.214072e+00 2.115045e+00 1.247160e+00 2.055815e+00 1.674081e+00 2.346590e+00 2.441811e+00 2.358453e+00 2.236172e+00 2.828957e+00 1.748709e+00 5.108015e+00 
-4.362198e+00 1.357720e+00 -4.383806e+00 -1.690895e+00 -5.243946e+00 -2.107757e+00 -6.151033e+00 1.142641e+00 -3.910584e+00 1.077910e+00 -2.589698e+00 2.329729e-01 -7.810219e-01 7.932504e-01 2.822695e-01 8.071066e-01 6.097103e-01 1.201449e+00 6.134846e-01 1.688149e+00 6.492286e-01 1.944959e+00 8.363528e-01 1.975030e+00 1.131003e+00 1.870563e+00 1.482748e+00 1.737184e+00 1.725912e+00 1.712405e+00 1.785098e+00 1.830520e+00 1.682462e+00 2.014618e+00 1.516725e+00 2.122599e+00 1.436077e+00 2.097095e+00 1.497875e+00 1.983562e+00 1.630776e+00 1.859605e+00 1.752194e+00 1.756464e+00 1.814694e+00 1.687373e+00 1.806093e+00 1.657521e+00 1.727520e+00 1.651177e+00 1.591414e+00 1.641569e+00 1.399762e+00 1.595463e+00 1.182579e+00 1.411526e+00 1.111468e+00 7.864719e-01 1.086013e+00 -1.485621e-01 -7.357974e-01 -1.854205e+00 1.006613e-01 -4.680432e+00 
1.084076e+00 -1.445191e+00 -1.586511e+00 7.248836e-01 2.300609e+00 2.300391e+00 2.156927e+00 -1.274463e+00 8.495830e-02 -3.087309e-01 4.281140e-01 1.199611e+00 -4.004069e-01 1.208515e+00 4.844420e-01 1.096421e+00 8.527718e-01 1.357687e+00 9.489339e-01 1.737341e+00 9.921042e-01 1.984195e+00 1.124848e+00 2.048359e+00 1.365273e+00 1.969566e+00 1.646870e+00 1.840800e+00 1.848232e+00 1.796748e+00 1.903580e+00 1.891812e+00 1.823540e+00 2.055187e+00 1.697035e+00 2.162817e+00 1.641891e+00 2.158600e+00 1.694798e+00 2.072752e+00 1.798993e+00 1.968844e+00 1.890618e+00 1.890819e+00 1.934671e+00 1.860635e+00 1.921661e+00 1.879602e+00 1.857235e+00 1.933233e+00 1.765509e+00 1.996266e+00 1.695771e+00 2.043231e+00 1.731188e+00 2.090047e+00 1.965683e+00 2.147450e+00 2.348306e+00 1.388043e+00 2.069703e+00 -2.592755e-01 4.770338e+00 1.498237e+00 
1.332903e+00 -7.417734e-01 -1.552221e+00 2.173788e+00 2.418528e+00 2.313102e+00 2.459831e+00 -5.072897e-01 3.067379e+00 2.250885e+00 1.806448e+00 8.432681e-01 8.016050e-01 9.037337e-01 5.300836e-01 1.034708e+00 6.031115e-01 1.272379e+00 7.178289e-01 1.575422e+00 8.458771e-01 1.776812e+00 1.015747e+00 1.864534e+00 1.234266e+00 1.870046e+00 1.454287e+00 1.835323e+00 1.603684e+00 1.830632e+00 1.660910e+00 1.891893e+00 1.640843e+00 1.982191e+00 1.582621e+00 2.035067e+00 1.551088e+00 2.026073e+00 1.581742e+00 1.970281e+00 1.650300e+00 1.894519e+00 1.715931e+00 1.819891e+00 1.751967e+00 1.761137e+00 1.747530e+00 1.723357e+00 1.700226e+00 1.699262e+00 1.614312e+00 1.669071e+00 1.500106e+00 1.589178e+00 1.383308e+00 1.414680e+00 1.235415e+00 1.143696e+00 1.036179e+00 4.493132e-01 1.620492e+00 -4.402827e-01 1.734262e-02 1.106787e+00 
4.047689e+00 -1.990097e-01 4.517442e+00 2.374845e+00 2.269641e+00 2.329570e+00 2.114647e+00 5.320341e+00 4.748381e+00 1.418878e+00 1.194895e+00 5.303754e-01 1.108913e+00 1.528521e+00 1.280553e+00 1.535420e+00 1.163181e+00 1.596439e+00 1.178025e+00 1.784052e+00 1.241562e+00 1.928266e+00 1.349553e+00 1.992288e+00 1.506878e+00 1.987443e+00 1.673501e+00 1.950090e+00 1.792162e+00 1.938361e+00 1.838227e+00 1.982531e+00 1.820533e+00 2.053158e+00 1.775095e+00 2.096959e+00 1.753458e+00 2.090317e+00 1.782639e+00 2.042587e+00 1.845779e+00 1.975563e+00 1.912448e+00 1.908327e+00 1.964942e+00 1.852327e+00 2.000523e+00 1.810898e+00 2.021082e+00 1.791391e+00 2.016082e+00 1.826181e+00 1.951290e+00 1.944984e+00 1.851276e+00 2.068973e+00 1.843167e+00 2.149238e+00 1.682811e+00 1.986311e+00 1.683953e+00 9.625574e-01 6.695948e-01 -3.775852e+00 
1.336529e+00 4.973713e+00 4.334692e+00 2.401596e+00 2.347844e+00 2.329461e+00 2.307752e+00 1.803676e+00 1.211181e-01 -1.517242e+00 2.913013e-01 1.918124e+00 2.151078e+00 2.116596e+00 1.310344e+00 1.503860e+00 9.900968e-01 1.544134e+00 1.013022e+00 1.679147e+00 1.081569e+00 1.779793e+00 1.189422e+00 1.848931e+00 1.331130e+00 1.883712e+00 1.470491e+00 1.892998e+00 1.570602e+00 1.905354e+00 1.621248e+00 1.939686e+00 1.630513e+00 1.981960e+00 1.616601e+00 2.004539e+00 1.608493e+00 1.996932e+00 1.626019e+00 1.964730e+00 1.662984e+00 1.917852e+00 1.700472e+00 1.865874e+00 1.724154e+00 1.816138e+00 1.729647e+00 1.769133e+00 1.721725e+00 1.718935e+00 1.704131e+00 1.684885e+00 1.614256e+00 1.791246e+00 1.266426e+00 2.106471e+00 9.068836e-01 2.142324e+00 1.223985e+00 2.046600e+00 1.223422e+00 3.030342e+00 1.505380e+00 2.813318e+00 
1.387182e+00 4.146589e+00 1.188094e+00 2.361768e+00 2.303313e+00 2.346739e+00 2.328611e+00 2.372374e+00 2.535182e+00 2.922731e+00 4.098481e+00 3.019076e+00 2.020405e+00 1.490898e+00 1.406958e+00 1.671438e+00 1.667028e+00 2.045905e+00 1.715967e+00 2.062619e+00 1.609529e+00 2.040226e+00 1.596648e+00 2.047857e+00 1.661646e+00 2.047567e+00 1.746522e+00 2.035073e+00 1.811825e+00 2.030353e+00 1.842320e+00 2.046194e+00 1.841760e+00 2.071301e+00 1.827223e+00 2.083475e+00 1.822613e+00 2.070910e+00 1.843131e+00 2.035044e+00 1.885752e+00 1.982952e+00 1.939110e+00 1.921030e+00 1.996980e+00 1.850867e+00 2.063603e+00 1.765712e+00 2.153554e+00 1.651800e+00 2.284196e+00 1.516870e+00 2.412484e+00 1.518887e+00 2.227411e+00 1.984455e+00 1.578598e+00 2.426346e+00 1.516353e+00 1.892921e+00 2.141242e+00 1.325082e+00 1.633548e+00 2.670927e+00 
2.106395e-01 1.998405e+00 5.010216e-01 2.288573e+00 2.341506e+00 2.323987e+00 2.321971e+00 2.749908e+00 2.406821e+00 2.186387e+00 1.162082e+00 -5.108107e-02 -3.944588e-01 8.136641e-01 1.367125e+00 2.102299e+00 1.794943e+00 2.041330e+00 1.539569e+00 1.878280e+00 1.373350e+00 1.849276e+00 1.366326e+00 1.883547e+00 1.436387e+00 1.917847e+00 1.518895e+00 1.938033e+00 1.583565e+00 1.953975e+00 1.622205e+00 1.974317e+00 1.637905e+00 1.994435e+00 1.639827e+00 2.003526e+00 1.641605e+00 1.996700e+00 1.653461e+00 1.975729e+00 1.674924e+00 1.944582e+00 1.698748e+00 1.907061e+00 1.719299e+00 1.864706e+00 1.737961e+00 1.812213e+00 1.767413e+00 1.730706e+00 1.838571e+00 1.587900e+00 1.980775e+00 1.450897e+00 1.940892e+00 1.882840e+00 1.006855e+00 2.738207e+00 6.837496e-01 2.200297e+00 1.596187e+00 2.211964e+00 1.603159e+00 2.252988e+00 
1.827889e+00 2.773076e+00 1.424391e+00 2.296119e+00 2.328101e+00 2.338187e+00 2.334203e+00 2.209906e+00 2.109691e+00 2.704419e+00 2.454840e+00 2.422312e+00 3.390561e+00 3.220925e+00 2.951132e+00 2.422582e+00 2.080241e+00 1.978157e+00 1.755641e+00 2.001656e+00 1.751326e+00 2.100836e+00 1.790818e+00 2.140682e+00 1.823797e+00 2.139437e+00 1.852811e+00 2.122834e+00 1.873500e+00 2.108340e+00 1.881341e+00 2.103118e+00 1.877609e+00 2.102526e+00 1.869866e+00 2.096603e+00 1.869001e+00 2.078742e+00 1.882791e+00 2.047813e+00 1.911682e+00 2.005671e+00 1.951828e+00 1.954440e+00 2.000820e+00 1.894578e+00 2.060834e+00 1.823587e+00 2.139798e+00 1.734640e+00 2.255765e+00 1.608908e+00 2.444088e+00 1.438528e+00 2.643739e+00 1.603034e+00 2.197975e+00 2.214967e+00 2.271853e+00 1.047301e+00 3.000917e+00 1.501189e+00 2.042909e+00 1.480788e+00 
6.396135e-01 2.378450e+00 1.894226e+00 2.331733e+00 2.347834e+00 2.334947e+00 2.362138e+00 2.017885e+00 2.543011e+00 2.538685e+00 2.287530e+00 2.437379e+00 1.937183e+00 1.156911e+00 3.721209e-01 6.172383e-01 6.550650e-01 1.471853e+00 1.329249e+00 1.892116e+00 1.492557e+00 1.928505e+00 1.494418e+00 1.931560e+00 1.525805e+00 1.953747e+00 1.574397e+00 1.974655e+00 1.615691e+00 1.990334e+00 1.642333e+00 2.003619e+00 1.655643e+00 2.013664e+00 1.660718e+00 2.016834e+00 1.664521e+00 2.011150e+00 1.672552e+00 1.997178e+00 1.685952e+00 1.976478e+00 1.702773e+00 1.950303e+00 1.721747e+00 1.918412e+00 1.745068e+00 1.878618e+00 1.777587e+00 1.833804e+00 1.816386e+00 1.816816e+00 1.841425e+00 1.876388e+00 1.953655e+00 1.911978e+00 2.263101e+00 2.137893e+00 1.907784e+00 1.665337e+00 2.383437e+00 -1.124228e-01 1.578413e+00 3.410141e+00 
1.363767e+00 1.111129e+00 2.820615e+00 2.399053e+00 2.341087e+00 2.363193e+00 2.342068e+00 2.276960e+00 2.280480e+00 2.510654e+00 2.164429e+00 2.582653e+00 2.404306e+00 2.364799e+00 2.477870e+00 2.861969e+00 2.839520e+00 2.915041e+00 2.639064e+00 2.679031e+00 2.355001e+00 2.475054e+00 2.145804e+00 2.344605e+00 2.031497e+00 2.265257e+00 1.977360e+00 2.213808e+00 1.950432e+00 2.179215e+00 1.932624e+00 2.156248e+00 1.917527e+00 2.139385e+00 1.905795e+00 2.122502e+00 1.901301e+00 2.101220e+00 1.907415e+00 2.073767e+00 1.924817e+00 2.040077e+00 1.952353e+00 2.000369e+00 1.989587e+00 1.953504e+00 2.039105e+00 1.894806e+00 2.107899e+00 1.815000e+00 2.204498e+00 1.711029e+00 2.331660e+00 1.587088e+00 2.594038e+00 1.187415e+00 3.314205e+00 5.628538e-01 3.437788e+00 1.612294e-01 3.891261e+00 3.280801e-02 1.159295e+00 2.895968e+00 
2.770959e+00 1.403228e+00 2.848030e+00 2.361256e+00 2.352415e+00 2.345942e+00 2.350453e+00 2.335190e+00 2.405910e+00 2.294423e+00 2.424493e+00 2.388601e+00 2.233847e+00 2.238307e+00 2.219462e+00 2.017565e+00 1.542470e+00 1.364020e+00 1.065734e+00 1.375182e+00 1.213245e+00 1.670938e+00 1.429888e+00 1.862006e+00 1.552262e+00 1.954212e+00 1.617316e+00 1.997947e+00 1.652793e+00 2.019174e+00 1.671026e+00 2.030347e+00 1.678878e+00 2.036050e+00 1.681407e+00 2.036901e+00 1.683065e+00 2.032814e+00 1.687185e+00 2.024207e+00 1.695202e+00 2.011737e+00 1.707282e+00 1.995650e+00 1.724129e+00 1.974828e+00 1.748819e+00 1.945031e+00 1.788401e+00 1.895085e+00 1.857098e+00 1.795860e+00 1.991557e+00 1.561954e+00 2.312558e+00 9.734583e-01 3.057372e+00 1.896261e-01 3.947819e+00 1.089299e+00 3.431290e+00 3.109357e+00 2.319680e+00 2.227781e+00 
2.005754e+00 1.831013e+00 2.569084e+00 2.350457e+00 2.342884e+00 2.356626e+00 2.343560e+00 2.310219e+00 2.263667e+00 2.385031e+00 2.235853e+00 2.386931e+00 2.244136e+00 2.401505e+00 2.244466e+00 2.390882e+00 2.197092e+00 2.523750e+00 2.373199e+00 2.647183e+00 2.361457e+00 2.552325e+00 2.226119e+00 2.424035e+00 2.117682e+00 2.336124e+00 2.051739e+00 2.276984e+00 2.008789e+00 2.233762e+00 1.977043e+00 2.201019e+00 1.952185e+00 2.175044e+00 1.933738e+00 2.152194e+00 1.922915e+00 2.129588e+00 1.920950e+00 2.105602e+00 1.928148e+00 2.079582e+00 1.944205e+00 2.051062e+00 1.969529e+00 2.018444e+00 2.007146e+00 1.976521e+00 2.065558e+00 1.911923e+00 2.162400e+00 1.797259e+00 2.323653e+00 1.585635e+00 2.578129e+00 1.219664e+00 2.981775e+00 9.878426e-01 2.963989e+00 2.644214e+00 1.531828e+00 3.637135e+00 1.903418e+00 2.926988e+00 
1.780980e+00 2.360275e+00 2.704617e+00 2.351747e+00 2.353462e+00 2.346186e+00 2.352791e+00 2.376498e+00 2.356352e+00 2.409456e+00 2.339528e+00 2.414279e+00 2.298867e+00 2.375778e+00 2.181741e+00 2.287427e+00 2.168000e+00 2.306818e+00 2.036985e+00 2.113449e+00 1.781670e+00 1.970736e+00 1.667991e+00 1.965734e+00 1.664801e+00 2.004707e+00 1.686776e+00 2.035479e+00 1.701741e+00 2.051409e+00 1.706788e+00 2.058194e+00 1.705733e+00 2.060407e+00 1.702290e+00 2.059936e+00 1.699306e+00 2.057422e+00 1.698797e+00 2.053257e+00 1.701951e+00 2.047750e+00 1.709604e+00 2.040887e+00 1.723273e+00 2.031842e+00 1.746379e+00 2.018440e+00 1.785151e+00 1.997092e+00 1.848335e+00 1.961912e+00 1.946110e+00 1.898510e+00 2.086289e+00 1.825021e+00 2.198652e+00 2.002970e+00 1.786570e+00 2.783768e+00 8.915979e-01 3.410661e+00 1.545069e+00 2.828112e+00 
1.701918e+00 2.438824e+00 2.559761e+00 2.367473e+00 2.344933e+00 2.358413e+00 2.344985e+00 2.339821e+00 2.310869e+00 2.343398e+00 2.272741e+00 2.337044e+00 2.245507e+00 2.317613e+00 2.237869e+00 2.344387e+00 2.207187e+00 2.364566e+00 2.194669e+00 2.417698e+00 2.225632e+00 2.468752e+00 2.222704e+00 2.443841e+00 2.167325e+00 2.382355e+00 2.105209e+00 2.323215e+00 2.053251e+00 2.274760e+00 2.011542e+00 2.236256e+00 1.978371e+00 2.205479e+00 1.952997e+00 2.180008e+00 1.935424e+00 2.157814e+00 1.925793e+00 2.137557e+00 1.924003e+00 2.118515e+00 1.929889e+00 2.100194e+00 1.943884e+00 2.081787e+00 1.967731e+00 2.062061e+00 2.003657e+00 2.042068e+00 2.047527e+00 2.032555e+00 2.077551e+00 2.047723e+00 2.074989e+00 2.073931e+00 2.049400e+00 2.146875e+00 1.762549e+00 2.557627e+00 1.077096e+00 2.857598e+00 1.893811e+00 2.489375e+00 
1.638558e+00 2.494023e+00 2.291260e+00 2.343753e+00 2.353837e+00 2.344317e+00 2.353198e+00 2.388264e+00 2.344645e+00 2.419407e+00 2.321554e+00 2.418270e+00 2.262164e+00 2.399572e+00 2.200719e+00 2.353445e+00 2.201225e+00 2.447247e+00 2.266016e+00 2.466511e+00 2.181934e+00 2.348693e+00 2.008932e+00 2.212178e+00 1.873816e+00 2.136659e+00 1.804751e+00 2.107488e+00 1.771423e+00 2.096157e+00 1.751095e+00 2.090219e+00 1.735610e+00 2.086390e+00 1.723129e+00 2.083881e+00 1.713660e+00 2.082414e+00 1.707610e+00 2.081931e+00 1.705390e+00 2.082524e+00 1.707489e+00 2.084368e+00 1.714711e+00 2.087896e+00 1.727844e+00 2.095061e+00 1.744996e+00 2.112774e+00 1.755411e+00 2.154218e+00 1.741075e+00 2.222350e+00 1.705102e+00 2.301036e+00 1.651100e+00 2.421152e+00 1.451139e+00 2.668275e+00 1.263004e+00 2.602943e+00 1.772107e+00 2.410048e+00 
1.767036e+00 2.419043e+00 2.182935e+00 2.349421e+00 2.347433e+00 2.353294e+00 2.347314e+00 2.357417e+00 2.325426e+00 2.348274e+00 2.284586e+00 2.321341e+00 2.225321e+00 2.301710e+00 2.185644e+00 2.272007e+00 2.222596e+00 2.465007e+00 2.370377e+00 2.545894e+00 2.354197e+00 2.526804e+00 2.294003e+00 2.479564e+00 2.222690e+00 2.417469e+00 2.150384e+00 2.355523e+00 2.087353e+00 2.302962e+00 2.036099e+00 2.261089e+00 1.995333e+00 2.228275e+00 1.963543e+00 2.202484e+00 1.939743e+00 2.182045e+00 1.923272e+00 2.165848e+00 1.913547e+00 2.153312e+00 1.910013e+00 2.144280e+00 1.912159e+00 2.139137e+00 1.918827e+00 2.139954e+00 1.925068e+00 2.153847e+00 1.915863e+00 2.194586e+00 1.870210e+00 2.264725e+00 1.798200e+00 2.329045e+00 1.743354e+00 2.379136e+00 1.626549e+00 2.535928e+00 1.458850e+00 2.484254e+00 1.823287e+00 2.248325e+00 
1.821196e+00 2.426826e+00 2.129706e+00 2.338868e+00 2.355280e+00 2.342536e+00 2.354812e+00 2.388732e+00 2.344733e+00 2.407609e+00 2.312715e+00 2.392702e+00 2.220029e+00 2.368539e+00 2.135419e+00 2.254731e+00 2.177931e+00 2.585280e+00 2.470521e+00 2.685051e+00 2.408922e+00 2.566898e+00 2.228166e+00 2.400544e+00 2.050763e+00 2.269238e+00 1.924961e+00 2.189861e+00 1.846842e+00 2.146926e+00 1.798150e+00 2.124176e+00 1.765665e+00 2.112344e+00 1.742545e+00 2.106970e+00 1.725599e+00 2.106006e+00 1.713335e+00 2.108616e+00 1.704979e+00 2.114694e+00 1.699968e+00 2.124803e+00 1.697408e+00 2.140666e+00 1.694720e+00 2.166597e+00 1.684793e+00 2.211033e+00 1.654667e+00 2.282158e+00 1.598272e+00 2.370959e+00 1.541071e+00 2.446573e+00 1.512750e+00 2.508531e+00 1.467229e+00 2.593077e+00 1.461797e+00 2.486809e+00 1.712930e+00 2.353254e+00 
1.917714e+00 2.391768e+00 2.129308e+00 2.347536e+00 2.349565e+00 2.350754e+00 2.349426e+00 2.370241e+00 2.331764e+00 2.345886e+00 2.298132e+00 2.301421e+00 2.174028e+00 2.285219e+00 2.071155e+00 2.033511e+00 2.063459e+00 2.572145e+00 2.641749e+00 2.799499e+00 2.588690e+00 2.679445e+00 2.424531e+00 2.548156e+00 2.288394e+00 2.448626e+00 2.186717e+00 2.374164e+00 2.109354e+00 2.317496e+00 2.049384e+00 2.274407e+00 2.002377e+00 2.241859e+00 1.965373e+00 2.217584e+00 1.936441e+00 2.200022e+00 1.914233e+00 2.188247e+00 1.897620e+00 2.181901e+00 1.885402e+00 2.181235e+00 1.875856e+00 2.187460e+00 1.865568e+00 2.203822e+00 1.847099e+00 2.237111e+00 1.808064e+00 2.295415e+00 1.741874e+00 2.373248e+00 1.672555e+00 2.434517e+00 1.643981e+00 2.462101e+00 1.619332e+00 2.520197e+00 1.590818e+00 2.470500e+00 1.784254e+00 2.327352e+00 
1.926830e+00 2.398504e+00 2.134530e+00 2.339913e+00 2.356129e+00 2.342490e+00 2.355777e+00 2.397157e+00 2.345237e+00 2.385048e+00 2.335886e+00 2.346856e+00 2.170955e+00 2.340074e+00 1.988712e+00 1.885952e+00 1.623967e+00 2.125821e+00 2.482250e+00 2.866618e+00 2.637308e+00 2.742752e+00 2.385540e+00 2.518021e+00 2.163162e+00 2.354103e+00 2.007435e+00 2.249532e+00 1.904092e+00 2.187595e+00 1.836171e+00 2.152876e+00 1.790335e+00 2.134763e+00 1.757969e+00 2.127079e+00 1.734046e+00 2.126618e+00 1.715674e+00 2.131975e+00 1.700991e+00 2.142923e+00 1.688357e+00 2.160278e+00 1.675519e+00 2.186245e+00 1.658421e+00 2.225038e+00 1.630209e+00 2.282376e+00 1.584002e+00 2.360126e+00 1.525201e+00 2.444619e+00 1.484291e+00 2.503787e+00 1.491390e+00 2.530181e+00 1.516739e+00 2.556006e+00 1.564758e+00 2.495680e+00 1.736960e+00 2.401161e+00 
1.987494e+00 2.375059e+00 2.153772e+00 2.347389e+00 2.350886e+00 2.349621e+00 2.350267e+00 2.397163e+00 2.325359e+00 2.328497e+00 2.364545e+00 2.244716e+00 2.192099e+00 2.261083e+00 1.971283e+00 1.721218e+00 9.990405e-01 8.490010e-01 1.501516e+00 2.353031e+00 2.536046e+00 2.726933e+00 2.513169e+00 2.596655e+00 2.333702e+00 2.462246e+00 2.203068e+00 2.375124e+00 2.114088e+00 2.316757e+00 2.048879e+00 2.275301e+00 1.998468e+00 2.245374e+00 1.958363e+00 2.224289e+00 1.925958e+00 2.210597e+00 1.899459e+00 2.203589e+00 1.877326e+00 2.203155e+00 1.857852e+00 2.209840e+00 1.838630e+00 2.225163e+00 1.815707e+00 2.252230e+00 1.782826e+00 2.295964e+00 1.733372e+00 2.359827e+00 1.670202e+00 2.433658e+00 1.620685e+00 2.482245e+00 1.621347e+00 2.491095e+00 1.644683e+00 2.507855e+00 1.674335e+00 2.470441e+00 1.819598e+00 2.375076e+00 
1.978849e+00 2.378722e+00 2.160799e+00 2.341113e+00 2.356371e+00 2.343115e+00 2.353859e+00 2.439940e+00 2.306587e+00 2.372547e+00 2.418679e+00 2.278195e+00 2.326334e+00 2.319169e+00 2.204536e+00 2.183166e+00 1.257175e+00 6.477967e-01 5.706149e-01 1.763605e+00 2.114103e+00 2.551132e+00 2.345325e+00 2.518007e+00 2.187298e+00 2.372652e+00 2.034975e+00 2.270038e+00 1.929050e+00 2.206895e+00 1.856141e+00 2.169931e+00 1.804662e+00 2.150171e+00 1.766932e+00 2.142143e+00 1.737991e+00 2.142808e+00 1.714587e+00 2.150780e+00 1.694346e+00 2.165879e+00 1.675063e+00 2.188977e+00 1.654048e+00 2.222083e+00 1.627570e+00 2.268299e+00 1.591250e+00 2.330515e+00 1.543783e+00 2.406581e+00 1.496134e+00 2.480278e+00 1.477726e+00 2.521345e+00 1.511278e+00 2.526765e+00 1.569146e+00 2.527275e+00 1.645688e+00 2.481235e+00 1.796969e+00 2.407769e+00 
2.026372e+00 2.363274e+00 2.180210e+00 2.347293e+00 2.351987e+00 2.349072e+00 2.348334e+00 2.433609e+00 2.235100e+00 2.381447e+00 2.363543e+00 2.329528e+00 2.406258e+00 2.245776e+00 2.542649e+00 2.798369e+00 2.413714e+00 1.951746e+00 1.108253e+00 1.653290e+00 1.950830e+00 2.365146e+00 2.315223e+00 2.494565e+00 2.282707e+00 2.423810e+00 2.178121e+00 2.349662e+00 2.094578e+00 2.298626e+00 2.032078e+00 2.263352e+00 1.982863e+00 2.238699e+00 1.942612e+00 2.222395e+00 1.908868e+00 2.213439e+00 1.879854e+00 2.211478e+00 1.853935e+00 2.216675e+00 1.829265e+00 2.229776e+00 1.803417e+00 2.252315e+00 1.773037e+00 2.286863e+00 1.734078e+00 2.336521e+00 1.684534e+00 2.401038e+00 1.632511e+00 2.466209e+00 1.605162e+00 2.499697e+00 1.628580e+00 2.495883e+00 1.676655e+00 2.492067e+00 1.738275e+00 2.453217e+00 1.871057e+00 2.383891e+00 
2.014087e+00 2.366579e+00 2.183303e+00 2.342221e+00 2.358053e+00 2.343922e+00 2.357939e+00 2.355139e+00 2.205334e+00 2.433650e+00 2.248720e+00 2.549037e+00 2.352564e+00 2.344086e+00 2.588344e+00 2.918406e+00 2.862315e+00 2.915804e+00 2.049384e+00 1.744493e+00 1.653098e+00 2.128882e+00 2.066871e+00 2.355936e+00 2.099682e+00 2.320067e+00 2.006212e+00 2.252067e+00 1.921047e+00 2.203960e+00 1.856531e+00 2.173793e+00 1.807170e+00 2.157083e+00 1.768466e+00 2.150912e+00 1.737072e+00 2.153499e+00 1.710348e+00 2.164022e+00 1.686047e+00 2.182523e+00 1.661984e+00 2.209852e+00 1.635736e+00 2.247607e+00 1.604608e+00 2.297782e+00 1.566591e+00 2.361212e+00 1.523878e+00 2.432955e+00 1.489838e+00 2.494866e+00 1.490969e+00 2.520622e+00 1.541210e+00 2.514258e+00 1.614241e+00 2.501903e+00 1.706866e+00 2.458161e+00 1.850485e+00 2.399517e+00 
2.054183e+00 2.357040e+00 2.200160e+00 2.347025e+00 2.355765e+00 2.348545e+00 2.364775e+00 2.173313e+00 2.381363e+00 2.309074e+00 2.258384e+00 2.697620e+00 2.293406e+00 2.384791e+00 2.479646e+00 2.674202e+00 2.687709e+00 2.740516e+00 2.094045e+00 1.361234e+00 1.159326e+00 1.702567e+00 1.833220e+00 2.184113e+00 2.081978e+00 2.298393e+00 2.092769e+00 2.290022e+00 2.047190e+00 2.262860e+00 1.999007e+00 2.239532e+00 1.956332e+00 2.222687e+00 1.919053e+00 2.212446e+00 1.886168e+00 2.208840e+00 1.856492e+00 2.212061e+00 1.828644e+00 2.222586e+00 1.800967e+00 2.241319e+00 1.771418e+00 2.269727e+00 1.737593e+00 2.309819e+00 1.697406e+00 2.363118e+00 1.651948e+00 2.426252e+00 1.612247e+00 2.482070e+00 1.603589e+00 2.502847e+00 1.642529e+00 2.491295e+00 1.704090e+00 2.476618e+00 1.783297e+00 2.435696e+00 1.911947e+00 2.381474e+00 
2.040101e+00 2.360126e+00 2.199006e+00 2.343109e+00 2.359683e+00 2.344627e+00 2.368819e+00 2.190112e+00 2.643075e+00 2.266941e+00 2.497672e+00 2.748935e+00 2.373772e+00 2.449995e+00 2.491341e+00 2.642027e+00 2.540272e+00 2.532585e+00 1.701409e+00 1.260122e+00 9.990608e-01 1.545685e+00 1.608285e+00 2.049600e+00 1.897156e+00 2.202241e+00 1.930906e+00 2.208504e+00 1.890733e+00 2.186728e+00 1.842918e+00 2.167583e+00 1.800094e+00 2.156203e+00 1.763386e+00 2.153124e+00 1.731718e+00 2.158103e+00 1.703458e+00 2.171028e+00 1.676833e+00 2.192234e+00 1.650002e+00 2.222562e+00 1.621078e+00 2.263272e+00 1.588388e+00 2.315569e+00 1.551571e+00 2.378885e+00 1.514789e+00 2.446242e+00 1.492314e+00 2.498375e+00 1.507468e+00 2.513396e+00 1.567551e+00 2.500652e+00 1.648065e+00 2.481954e+00 1.748873e+00 2.439369e+00 1.888559e+00 2.390408e+00 
2.073501e+00 2.353887e+00 2.211739e+00 2.347158e+00 2.352045e+00 2.348521e+00 2.345076e+00 2.523448e+00 2.853555e+00 2.391060e+00 2.618556e+00 2.597268e+00 2.426702e+00 2.359196e+00 2.350651e+00 2.340157e+00 2.496266e+00 2.636576e+00 2.029040e+00 1.675128e+00 1.279823e+00 1.569701e+00 1.579182e+00 1.941621e+00 1.872652e+00 2.149750e+00 1.979023e+00 2.212122e+00 1.982965e+00 2.216360e+00 1.955508e+00 2.207596e+00 1.922293e+00 2.199447e+00 1.889852e+00 2.195665e+00 1.859414e+00 2.197548e+00 1.830627e+00 2.205836e+00 1.802503e+00 2.221298e+00 1.773704e+00 2.244973e+00 1.742674e+00 2.278267e+00 1.707866e+00 2.322732e+00 1.668616e+00 2.378639e+00 1.627986e+00 2.440242e+00 1.598565e+00 2.488752e+00 1.603435e+00 2.500954e+00 1.652486e+00 2.485061e+00 1.722052e+00 2.464963e+00 1.810955e+00 2.423421e+00 1.938484e+00 2.377166e+00 
2.057588e+00 2.356487e+00 2.207681e+00 2.344468e+00 2.353579e+00 2.345878e+00 2.337371e+00 2.765815e+00 2.700283e+00 2.365585e+00 2.374724e+00 2.473585e+00 2.312823e+00 2.254292e+00 2.066719e+00 2.198307e+00 2.453074e+00 2.573681e+00 2.159093e+00 1.898723e+00 1.220167e+00 1.417565e+00 1.358346e+00 1.821969e+00 1.712436e+00 2.083486e+00 1.849136e+00 2.161760e+00 1.855637e+00 2.165623e+00 1.823818e+00 2.155671e+00 1.787259e+00 2.148976e+00 1.753388e+00 2.149000e+00 1.722794e+00 2.156381e+00 1.694508e+00 2.171441e+00 1.667162e+00 2.194733e+00 1.639289e+00 2.227137e+00 1.609492e+00 2.269747e+00 1.576823e+00 2.323332e+00 1.541891e+00 2.386487e+00 1.509871e+00 2.450927e+00 1.495254e+00 2.496898e+00 1.519009e+00 2.505821e+00 1.584579e+00 2.490088e+00 1.668885e+00 2.468782e+00 1.773834e+00 2.427079e+00 1.912175e+00 2.383197e+00 
2.084040e+00 2.352312e+00 2.218684e+00 2.347053e+00 2.353628e+00 2.348327e+00 2.348586e+00 2.572886e+00 2.376374e+00 2.185995e+00 1.933446e+00 2.086459e+00 2.259621e+00 2.399366e+00 1.981316e+00 2.042597e+00 2.323227e+00 2.671263e+00 2.554610e+00 1.931399e+00 9.471944e-01 8.577885e-01 9.282208e-01 1.509020e+00 1.622160e+00 2.008120e+00 1.882709e+00 2.147744e+00 1.927254e+00 2.173261e+00 1.912897e+00 2.173516e+00 1.886064e+00 2.171759e+00 1.857878e+00 2.173552e+00 1.830435e+00 2.180490e+00 1.803571e+00 2.193441e+00 1.776444e+00 2.213308e+00 1.747944e+00 2.241236e+00 1.716882e+00 2.278621e+00 1.682306e+00 2.326741e+00 1.644445e+00 2.385068e+00 1.607526e+00 2.446395e+00 1.584937e+00 2.491167e+00 1.598192e+00 2.499142e+00 1.653454e+00 2.481401e+00 1.728077e+00 2.458825e+00 1.822937e+00 2.416812e+00 1.951454e+00 2.374049e+00 
2.065592e+00 2.354931e+00 2.213468e+00 2.345413e+00 2.359838e+00 2.346769e+00 2.364341e+00 2.372559e+00 2.355977e+00 2.320626e+00 1.977248e+00 1.958008e+00 2.256026e+00 2.721259e+00 2.309216e+00 2.230759e+00 2.097950e+00 2.714889e+00 3.240731e+00 3.268935e+00 2.140557e+00 1.233378e+00 6.524613e-01 1.298601e+00 1.466207e+00 1.976832e+00 1.793618e+00 2.133685e+00 1.832363e+00 2.147595e+00 1.805225e+00 2.139994e+00 1.771147e+00 2.135958e+00 1.739748e+00 2.138641e+00 1.711095e+00 2.148255e+00 1.684043e+00 2.165130e+00 1.657353e+00 2.189956e+00 1.629797e+00 2.223722e+00 1.600282e+00 2.267548e+00 1.568229e+00 2.322126e+00 1.534662e+00 2.385794e+00 1.505133e+00 2.449740e+00 1.494159e+00 2.493913e+00 1.521738e+00 2.500973e+00 1.589906e+00 2.484510e+00 1.676194e+00 2.462623e+00 1.783314e+00 2.421555e+00 1.921727e+00 2.379938e+00 