# vtk DataFile Version 2.0
Comment goes here
ASCII

DATASET STRUCTURED_POINTS
DIMENSIONS    64   64   1

ORIGIN    0.000   0.000   0.000
SPACING   0.0156250.015625   1.000

POINT_DATA   4096
SCALARS uX double
LOOKUP_TABLE default

1.921797e+00 -2.300987e-01 5.653110e+00 -1.116967e+00 3.756981e+00 -3.214218e+00 2.872230e+00 9.084717e-01 2.570663e+00 1.424969e+00 -2.320423e+00 3.021565e+00 2.984013e+00 1.317757e+00 7.222210e-01 4.772719e+00 6.632501e-02 1.714973e+00 -1.552708e-01 9.715881e-01 9.077346e-01 8.019134e-01 2.409101e+00 1.237935e+00 2.747851e+00 1.784385e+00 2.223270e+00 2.153034e+00 1.787810e+00 2.000904e+00 1.230275e+00 2.433602e+00 1.380887e+00 2.380090e+00 2.019918e+00 1.778660e+00 2.702068e+00 1.467772e+00 3.072729e+00 1.984784e+00 2.256504e+00 2.874426e+00 1.582222e+00 3.635212e+00 1.448157e+00 3.259739e+00 1.780209e+00 2.286133e+00 2.304697e+00 2.054651e+00 2.801714e+00 2.912077e+00 1.298884e+00 3.804242e+00 1.334649e+00 2.303612e+00 -8.001625e-01 2.595434e+00 -3.941260e-01 -1.066985e-01 1.358064e+00 -1.450930e+00 1.006062e+00 -2.269995e+00 
5.696724e-01 7.106390e-01 -1.928726e+00 2.126139e+00 -3.592023e+00 -5.465259e+00 -1.693643e+00 -7.060862e-01 -5.479110e-01 -1.549640e-01 -4.220851e+00 2.345389e+00 -2.676597e+00 -3.815408e-02 2.496096e+00 1.603167e+00 2.103760e-01 1.708886e+00 1.335345e+00 1.814158e+00 6.555796e-01 1.752382e-01 1.473431e+00 -1.489511e-01 2.081001e+00 3.934751e-01 2.482133e+00 6.224562e-01 2.106574e+00 1.590020e+00 9.778968e-01 2.971974e+00 1.161390e+00 3.012647e+00 1.867155e+00 2.472180e+00 1.951729e+00 2.572405e+00 2.318888e+00 2.433658e+00 2.779686e+00 1.659663e+00 3.955017e+00 1.541681e+00 4.622004e+00 2.233846e+00 3.375771e+00 2.854314e+00 3.156994e+00 3.644103e+00 1.530989e+00 4.952765e+00 -6.671865e-01 4.899262e+00 8.940106e-01 4.841910e+00 2.302343e+00 3.516332e+00 5.860932e+00 3.086071e+00 2.752384e+00 1.135020e+00 7.373514e-01 3.009341e+00 
1.346468e+00 2.441230e+00 -5.150100e+00 -3.836884e+00 -2.330959e+00 2.588526e+00 -3.918217e+00 -1.510627e+00 -2.586480e-01 5.847524e-01 2.786262e+00 7.911125e-01 -1.208382e+00 3.790562e+00 1.912832e+00 2.761489e+00 2.562388e+00 2.369554e+00 2.122914e+00 4.995114e-01 1.820937e+00 -1.382318e-01 2.649462e+00 4.663347e-01 2.689904e+00 2.732810e-02 1.691020e+00 1.758836e-01 8.442887e-01 1.393753e+00 8.218659e-01 1.312686e+00 7.743695e-01 9.708959e-01 5.270079e-01 1.138377e+00 5.013596e-01 1.270943e+00 7.458585e-01 9.106324e-01 1.455321e+00 4.349349e-02 1.734065e+00 -1.124175e+00 1.976607e+00 -5.699682e-01 2.363052e+00 5.898892e-01 2.948573e+00 9.572340e-01 1.959447e+00 2.995795e+00 1.427054e+00 2.883225e+00 1.323460e+00 3.503057e-01 1.568347e+00 -3.065347e-01 -2.786537e+00 1.051894e+00 1.273442e+00 -2.107915e+00 2.404924e+00 2.163864e+00 
3.114832e+00 -1.098473e+00 1.836730e-01 2.957296e+00 -4.344928e+00 6.347598e+00 -5.832891e-01 1.615077e+00 4.506589e+00 2.076930e-01 3.184297e+00 -2.678483e+00 2.449255e-01 -2.345262e+00 -1.667977e-01 -2.236162e+00 2.145212e+00 -3.982669e+00 1.419036e+00 -3.754284e+00 1.794245e+00 -2.558306e+00 1.071337e+00 -1.802242e+00 6.531704e-01 -6.579028e-01 -7.500347e-01 7.725313e-01 -9.634538e-01 -2.706471e-01 4.819318e-01 -1.624474e+00 9.306324e-03 -7.844558e-01 -1.585508e+00 1.550725e-01 -2.019690e+00 -1.714246e-01 -1.669039e+00 -6.485383e-01 -6.233298e-01 -1.176430e+00 -6.358864e-01 -4.325048e-01 -1.547776e+00 -3.632622e-01 -1.059213e+00 -7.972358e-01 -1.421536e+00 5.319023e-01 -2.324350e+00 9.135758e-02 -8.158105e-01 -2.884445e+00 -4.741793e-01 -2.965863e+00 -1.056959e+00 -2.985000e+00 -1.647259e+00 -1.693418e-01 -3.022672e+00 1.860385e-01 3.952265e-01 1.355641e+00 
-1.101960e+00 4.132265e+00 -3.068747e+00 1.015013e+01 -1.103635e+00 1.277008e+00 -2.241974e+00 -4.576625e-01 -5.028071e+00 -3.846979e+00 -8.934743e-01 -1.764221e+00 2.851471e+00 7.824264e-01 9.446887e-01 -3.215969e+00 2.356106e+00 -2.311451e+00 3.100356e+00 -7.629245e-01 1.861192e+00 -4.859216e-01 2.263215e-01 -4.964743e-02 -5.852547e-01 4.302656e-02 -4.726258e-01 3.911844e-01 -3.067192e-01 -7.927424e-01 1.197466e+00 -1.775403e+00 2.621211e+00 -1.069622e+00 1.961520e+00 2.846964e-01 9.350640e-01 1.050688e+00 8.482418e-01 7.173038e-01 3.814603e-01 1.347897e+00 -5.392038e-01 2.134649e+00 3.122604e-01 5.206678e-01 1.428498e+00 -5.565506e-01 7.491503e-01 -1.406819e-01 2.396758e-01 -4.194911e-01 1.077746e-01 1.921026e+00 7.625502e-01 3.160251e+00 8.182744e-01 4.765429e+00 2.452150e+00 2.610294e+00 6.774583e-01 5.005175e+00 -2.401262e+00 2.772006e+00 
-4.181634e+00 4.252731e+00 7.869423e+00 2.096603e-01 7.167871e+00 4.180958e-01 7.907325e+00 -1.200647e+00 2.433024e+00 2.004264e+00 3.121744e+00 2.395333e+00 3.748932e+00 2.881787e+00 4.873255e+00 3.016418e+00 3.503548e+00 2.868621e+00 2.051954e+00 -6.945525e-02 4.243272e-01 1.998589e-01 9.042926e-01 1.919765e+00 1.669580e+00 1.733727e+00 2.607102e+00 8.272388e-01 2.781097e+00 1.040236e+00 2.473253e+00 1.310301e+00 2.876781e+00 -4.020130e-02 4.308505e+00 -6.865350e-01 5.057350e+00 4.616355e-01 3.764801e+00 2.921689e+00 8.858652e-01 5.880735e+00 -5.442090e-01 5.469596e+00 1.144142e+00 3.811329e+00 2.700057e+00 3.473524e+00 4.070888e+00 1.476960e+00 6.020860e+00 7.725370e-01 6.266948e+00 1.898083e+00 6.072191e+00 2.758825e+00 5.302631e+00 1.907601e+00 5.910655e+00 7.500514e-01 4.119645e+00 2.958895e+00 3.452485e-02 6.863205e-01 
-2.998693e+00 -3.410411e-01 -5.249314e+00 -7.074296e+00 -1.699980e+00 -1.403700e+00 -2.574579e+00 -9.360429e-02 6.321990e+00 2.670980e+00 2.722293e+00 -7.572690e-01 1.427461e+00 5.636397e-01 3.979627e+00 3.915980e+00 3.601573e+00 2.549900e+00 2.073847e-01 -1.356803e+00 -1.533298e+00 1.684565e-01 5.532930e-01 2.058534e+00 2.356209e+00 2.041293e+00 2.790506e+00 9.077458e-01 3.663806e+00 1.184951e+00 3.506638e+00 1.926991e+00 2.366462e+00 1.908359e+00 2.603649e+00 1.687449e+00 3.517430e+00 1.095584e+00 3.613004e+00 1.550105e+00 3.523459e+00 2.330717e+00 3.452327e+00 2.635226e+00 2.313595e+00 2.243366e+00 2.019353e+00 1.323522e+00 3.126175e+00 1.227627e+00 3.028041e+00 1.007104e+00 3.214791e+00 -1.403948e+00 2.546335e+00 -2.376386e-01 3.881434e+00 -6.458869e-01 3.175853e+00 2.748684e+00 7.907708e-01 3.377358e+00 1.796925e+00 2.035771e+00 
2.007066e+00 -6.026130e-01 3.396553e-01 3.462653e+00 3.395039e+00 3.571283e+00 -2.370203e+00 4.925197e+00 2.391259e+00 1.719082e+00 8.651820e-01 5.977003e-01 2.757438e+00 1.760357e+00 1.380648e+00 2.458938e+00 1.775278e+00 1.740562e-01 1.481835e-01 1.388866e-01 -3.331262e-01 6.400467e-01 1.934539e-01 1.740945e+00 1.559885e+00 1.922183e+00 2.441578e+00 1.791422e+00 3.617962e+00 1.628595e+00 3.742820e+00 1.166693e+00 3.470024e+00 1.622037e+00 2.878120e+00 2.400379e+00 2.541500e+00 2.643091e+00 3.106950e+00 1.939906e+00 4.185413e+00 2.592003e-01 5.011604e+00 -2.590087e-01 4.858049e+00 8.590486e-01 4.433514e+00 1.318597e+00 4.116410e+00 2.203155e+00 3.608316e+00 2.669224e+00 3.219435e+00 3.171817e+00 3.226330e+00 1.727274e-02 4.524529e+00 2.853439e-01 2.529807e+00 1.074911e+00 4.885945e+00 1.154702e+00 4.814170e+00 3.214853e+00 
3.454103e+00 1.265052e+00 8.476280e+00 3.855077e+00 3.502527e+00 3.636170e+00 3.670079e+00 1.814824e+00 3.558398e+00 2.445431e+00 2.649688e+00 2.242710e+00 3.598847e+00 2.286488e+00 6.930565e-01 1.934439e-01 6.684379e-01 5.230631e-01 1.356873e+00 2.121929e+00 3.258398e+00 3.538157e+00 3.827228e+00 2.245640e+00 2.078639e+00 1.512068e+00 2.379723e+00 1.618471e+00 2.874009e+00 1.181444e+00 3.053976e+00 9.250747e-01 3.400880e+00 8.398100e-01 3.863428e+00 1.202356e+00 3.922983e+00 2.437453e+00 3.105309e+00 3.848089e+00 2.270015e+00 3.950320e+00 2.723732e+00 3.448867e+00 3.225592e+00 4.269399e+00 3.033181e+00 3.952379e+00 3.809086e+00 2.941473e+00 3.893467e+00 3.530367e+00 3.411151e+00 2.721235e+00 4.930035e+00 2.906177e+00 4.112451e+00 1.298899e+00 6.796162e+00 3.196338e-01 3.912916e+00 2.653002e+00 3.057538e+00 1.329481e+00 
5.363213e+00 3.303462e+00 3.010004e+00 3.533543e+00 3.500344e+00 3.515310e+00 3.535142e+00 3.638116e+00 3.494216e+00 6.362079e-01 3.702726e+00 3.919260e+00 2.322043e+00 1.228999e+00 2.170494e+00 2.911248e+00 2.267768e+00 2.651034e+00 3.854234e+00 5.149294e+00 4.196401e+00 3.510486e+00 3.905127e+00 3.490682e+00 3.369769e+00 1.583688e+00 2.518467e+00 1.127195e+00 3.091160e+00 1.292931e+00 3.577429e+00 1.638900e+00 4.328446e+00 1.763093e+00 4.684966e+00 8.059749e-01 5.190891e+00 4.357627e-01 5.782246e+00 4.378149e-01 5.836788e+00 1.223493e+00 4.973607e+00 2.378473e+00 4.348624e+00 2.159324e+00 4.860712e+00 1.405404e+00 4.891776e+00 2.243152e+00 2.138867e+00 5.791261e+00 8.588612e-01 4.062023e+00 4.945366e+00 2.003879e+00 3.673759e+00 5.153398e+00 1.591533e+00 5.106911e+00 2.810383e+00 6.383228e+00 3.570261e-01 2.473605e+00 
7.879016e+00 2.599848e+00 5.264832e+00 3.612399e+00 3.505595e+00 3.565440e+00 3.493943e+00 3.185413e+00 -9.865403e-02 6.185089e-01 2.800173e+00 2.444783e+00 4.556884e-02 -9.230311e-02 2.639447e+00 1.958790e+00 3.052530e+00 3.181467e+00 4.350256e+00 4.735988e+00 5.592263e+00 4.251104e+00 4.019943e+00 4.275595e+00 5.180305e+00 3.776649e+00 3.929811e+00 3.311935e+00 4.215862e+00 3.296142e+00 3.931568e+00 2.975660e+00 4.126663e+00 2.641437e+00 3.394232e+00 2.087506e+00 3.302079e+00 2.121660e+00 3.853687e+00 2.233742e+00 3.141228e+00 2.914055e+00 2.548800e+00 3.099256e+00 3.535458e+00 2.113553e+00 4.937077e+00 1.877806e+00 4.579793e+00 3.065411e+00 4.107459e+00 4.389870e+00 2.776610e+00 6.621251e+00 1.512083e+00 5.715251e+00 2.759467e+00 5.146418e+00 2.112741e+00 5.251684e+00 5.257222e+00 2.646097e+00 4.001342e+00 5.555831e+00 
4.533565e+00 2.160852e+00 2.456930e+00 3.420849e+00 3.497933e+00 3.485271e+00 3.486279e+00 2.995114e+00 3.215644e+00 5.382458e+00 3.287037e+00 3.207989e+00 3.649887e+00 3.118614e+00 3.350584e+00 2.172707e+00 2.963996e+00 3.043689e+00 4.254951e+00 4.198905e+00 4.501040e+00 5.264038e+00 5.209750e+00 3.902078e+00 4.409696e+00 4.318902e+00 5.436282e+00 3.944000e+00 4.405459e+00 2.753580e+00 3.893392e+00 1.416992e+00 3.176284e+00 3.088167e-01 2.884725e+00 1.316547e+00 2.732398e+00 2.945017e+00 4.125843e+00 3.295674e+00 4.276777e+00 3.238944e+00 4.148069e+00 3.145325e+00 4.386995e+00 3.668310e+00 3.753189e+00 4.345475e+00 4.124368e+00 3.256081e+00 4.885603e+00 2.584483e+00 4.455579e+00 2.882719e+00 1.673697e+00 4.618941e+00 4.223928e-01 4.123003e+00 5.885329e-01 4.018276e+00 1.834198e+00 2.953687e-01 4.343450e+00 4.362354e+00 
2.508633e+00 3.400552e+00 2.024717e+00 3.299878e+00 3.501017e+00 3.480836e+00 3.474993e+00 3.824530e+00 5.098538e+00 4.229808e+00 2.263540e+00 3.129402e+00 2.623900e+00 2.131514e+00 2.511060e+00 2.470379e+00 2.867405e+00 3.607302e+00 4.047075e+00 2.845286e+00 2.114180e+00 2.185271e+00 2.873076e+00 1.764462e+00 2.616035e+00 2.615166e+00 3.665247e+00 1.478728e+00 2.299038e+00 1.147635e+00 2.624937e+00 2.196491e+00 3.198565e+00 3.072762e+00 2.804870e+00 2.305177e+00 1.905490e+00 3.212579e+00 2.619197e+00 3.764979e+00 2.931198e+00 2.150229e+00 3.980958e+00 1.808575e+00 3.644933e+00 3.555596e+00 2.368478e+00 4.405823e+00 2.732209e+00 4.011412e+00 2.907527e+00 3.856793e+00 3.580952e+00 2.301374e+00 4.900697e+00 1.777259e+00 3.842675e+00 2.976062e+00 3.750102e+00 1.343312e+00 3.754985e+00 3.205532e+00 3.516124e+00 3.102481e+00 
1.664746e+00 4.897440e+00 3.834306e+00 3.511426e+00 3.519494e+00 3.503950e+00 3.524413e+00 3.644398e+00 3.418436e+00 4.078883e+00 4.129857e+00 3.179746e+00 3.256994e+00 3.780439e+00 4.286624e+00 3.559551e+00 4.129442e+00 4.083238e+00 3.791330e+00 3.239828e+00 3.929096e+00 3.076434e+00 4.105945e+00 2.816143e+00 3.703364e+00 2.522596e+00 4.587589e+00 2.336689e+00 3.846262e+00 1.604195e+00 4.942968e+00 2.929854e+00 5.990602e+00 2.256158e+00 3.998796e+00 1.513447e+00 2.420433e+00 2.355153e+00 1.686532e+00 2.259316e+00 2.694335e+00 1.756902e+00 3.586310e+00 3.326282e+00 3.936707e+00 3.607535e+00 4.190021e+00 4.215425e+00 3.092334e+00 4.427443e+00 3.751846e+00 2.560220e+00 3.754243e+00 4.271852e+00 1.349602e+00 4.885182e+00 2.728872e+00 2.795187e+00 4.292721e+00 1.170055e+00 3.683499e+00 4.139855e+00 2.810811e+00 6.177057e-01 
3.944754e+00 5.004023e+00 5.053077e+00 3.695199e+00 3.519692e+00 3.556860e+00 3.529913e+00 3.604953e+00 3.215924e+00 4.211781e+00 4.133340e+00 3.798662e+00 3.837554e+00 3.412006e+00 3.280342e+00 3.612367e+00 3.320935e+00 2.686199e+00 3.338915e+00 4.062821e+00 3.940835e+00 3.530511e+00 4.089122e+00 3.262996e+00 3.253442e+00 2.889358e+00 3.401367e+00 2.335218e+00 4.031912e+00 3.044278e+00 4.235384e+00 4.122989e-01 3.185855e+00 1.687310e-01 3.335661e+00 3.274180e+00 2.405251e+00 2.965567e+00 2.170642e+00 8.697591e-01 3.339197e+00 2.805179e-01 3.355988e+00 3.465439e+00 3.013398e+00 4.578049e+00 3.156244e+00 4.715130e+00 2.603423e+00 5.003775e+00 2.581012e+00 3.936092e+00 3.683572e+00 3.252810e+00 3.135583e+00 3.643629e+00 3.318693e+00 3.061847e+00 3.817144e+00 3.673992e+00 4.116743e+00 3.088491e+00 4.879387e+00 2.385854e+00 
3.913538e+00 3.486600e+00 3.579152e+00 3.541596e+00 3.518271e+00 3.520631e+00 3.520762e+00 3.588344e+00 3.415427e+00 3.483293e+00 3.679947e+00 3.585699e+00 3.886024e+00 3.604640e+00 3.912876e+00 3.361551e+00 3.741187e+00 3.235551e+00 3.709363e+00 3.316723e+00 4.508077e+00 3.991836e+00 4.166270e+00 3.167335e+00 4.781086e+00 3.274081e+00 3.653762e+00 2.681543e+00 5.093165e+00 3.059357e+00 4.204385e+00 1.874330e+00 4.485166e+00 2.700608e+00 5.516320e+00 3.769928e+00 5.430630e+00 2.740634e+00 3.249651e+00 1.691216e+00 3.061727e+00 1.247810e+00 3.123123e+00 3.353416e+00 2.679850e+00 4.138981e+00 4.054533e+00 3.366149e+00 4.363198e+00 4.389321e+00 3.492493e+00 4.697464e+00 3.692900e+00 4.003453e+00 4.588608e+00 3.119866e+00 4.466111e+00 3.680905e+00 3.737771e+00 3.738874e+00 4.014574e+00 2.765220e+00 4.144759e+00 3.375565e+00 
2.798142e+00 3.572294e+00 2.749181e+00 3.450849e+00 3.509725e+00 3.516742e+00 3.494747e+00 3.820692e+00 3.332193e+00 3.465760e+00 3.730244e+00 3.893863e+00 3.644331e+00 3.537320e+00 3.489841e+00 3.327350e+00 3.200100e+00 3.587740e+00 3.555393e+00 3.619225e+00 3.283524e+00 3.317249e+00 2.839411e+00 2.861567e+00 3.181483e+00 3.171841e+00 3.774387e+00 3.254243e+00 3.814078e+00 3.038813e+00 4.416578e+00 4.215933e+00 3.124639e+00 4.175629e+00 4.087001e+00 2.343655e+00 4.570684e+00 -8.411382e-01 3.339725e+00 9.406696e-01 1.269411e+00 3.025329e+00 2.455185e+00 1.984842e+00 3.032151e+00 2.345838e+00 2.907281e+00 3.110275e+00 3.492681e+00 3.520160e+00 3.058488e+00 4.017359e+00 2.931251e+00 3.227973e+00 3.683730e+00 3.024726e+00 3.155679e+00 3.508569e+00 3.217624e+00 3.369828e+00 2.918914e+00 3.725726e+00 2.907245e+00 3.200137e+00 
3.098172e+00 3.715808e+00 3.366511e+00 3.502216e+00 3.518480e+00 3.514580e+00 3.519338e+00 3.571556e+00 3.348368e+00 3.188968e+00 3.699870e+00 3.486533e+00 3.696746e+00 3.408775e+00 3.978672e+00 3.344328e+00 3.568914e+00 3.661893e+00 4.190329e+00 3.318803e+00 4.324934e+00 3.742008e+00 3.961004e+00 2.813495e+00 4.383081e+00 3.374662e+00 4.172261e+00 3.451752e+00 3.848279e+00 4.676380e+00 3.025842e+00 4.630221e+00 2.678898e+00 5.143906e+00 3.821586e+00 3.833142e+00 3.120751e+00 4.044102e+00 4.440585e+00 3.866550e+00 3.275074e+00 3.633423e+00 3.058026e+00 1.867952e+00 2.098445e+00 2.436380e+00 2.156545e+00 3.280956e+00 2.935771e+00 3.395582e+00 3.625570e+00 4.009077e+00 3.773164e+00 3.857960e+00 4.220171e+00 4.043551e+00 3.665591e+00 3.859807e+00 4.037779e+00 3.794041e+00 3.269147e+00 3.633693e+00 3.920894e+00 3.443045e+00 
3.634151e+00 3.619867e+00 3.945428e+00 3.562709e+00 3.517515e+00 3.531025e+00 3.530970e+00 3.430098e+00 3.444498e+00 3.315505e+00 3.685323e+00 3.643650e+00 3.690037e+00 3.536735e+00 3.705640e+00 3.475195e+00 3.390088e+00 3.768028e+00 3.373539e+00 3.711231e+00 3.523870e+00 3.489080e+00 3.027582e+00 3.677941e+00 3.413686e+00 3.099855e+00 3.462345e+00 4.180154e+00 3.494768e+00 3.653929e+00 2.719823e+00 5.006343e+00 3.143756e+00 4.224286e+00 2.021729e+00 3.725764e+00 4.338325e+00 5.123608e+00 3.914234e+00 2.852308e+00 3.469600e+00 2.882994e+00 2.318292e+00 1.583023e+00 1.935199e+00 1.462199e+00 2.057103e+00 3.000295e+00 1.868952e+00 3.029430e+00 3.355305e+00 2.481155e+00 3.476226e+00 3.150020e+00 3.581112e+00 3.042839e+00 3.725243e+00 3.429494e+00 3.706746e+00 3.453273e+00 3.657595e+00 3.522329e+00 3.978494e+00 3.505200e+00 
3.518791e+00 3.588614e+00 3.631795e+00 3.530355e+00 3.515748e+00 3.520125e+00 3.515887e+00 3.643077e+00 3.423502e+00 3.756321e+00 3.227010e+00 4.018818e+00 3.096098e+00 4.139355e+00 3.220675e+00 4.037745e+00 3.260377e+00 4.127345e+00 3.167267e+00 4.299978e+00 3.340733e+00 3.521950e+00 3.525524e+00 4.027811e+00 2.893236e+00 3.537433e+00 3.756541e+00 4.192709e+00 2.937671e+00 3.215021e+00 3.752925e+00 4.501860e+00 3.020927e+00 3.891484e+00 2.017789e+00 4.224718e+00 4.024940e+00 4.068500e+00 4.010071e+00 3.306907e+00 3.770974e+00 4.214301e+00 3.393627e+00 2.818670e+00 3.493683e+00 2.131428e+00 2.604110e+00 3.042195e+00 2.919071e+00 3.080422e+00 3.897866e+00 3.302155e+00 3.994289e+00 3.643053e+00 3.937121e+00 3.618712e+00 4.102437e+00 3.423648e+00 3.780840e+00 3.716402e+00 3.771312e+00 3.370685e+00 3.751235e+00 3.517892e+00 
3.612472e+00 3.441815e+00 3.535996e+00 3.518772e+00 3.509287e+00 3.521021e+00 3.493852e+00 3.773901e+00 3.564486e+00 3.657922e+00 3.412110e+00 3.799955e+00 3.392076e+00 3.657251e+00 3.481920e+00 3.545950e+00 3.475465e+00 3.270740e+00 3.480886e+00 3.373457e+00 3.434244e+00 2.955402e+00 3.523910e+00 3.292397e+00 3.245611e+00 2.981819e+00 3.565640e+00 3.759168e+00 3.366659e+00 3.666145e+00 3.137493e+00 3.654346e+00 3.556056e+00 4.281660e+00 3.241796e+00 3.477228e+00 2.592752e+00 4.241604e+00 2.748161e+00 4.306473e+00 4.405540e+00 4.193319e+00 4.186512e+00 4.042228e+00 3.572505e+00 3.445818e+00 3.152297e+00 3.113282e+00 2.732270e+00 3.005683e+00 3.359644e+00 2.712839e+00 3.408869e+00 3.344549e+00 3.203768e+00 3.192414e+00 3.759629e+00 3.270872e+00 3.191647e+00 3.689759e+00 3.643333e+00 3.311410e+00 3.384245e+00 3.728021e+00 
3.358830e+00 3.304498e+00 3.439269e+00 3.512308e+00 3.510970e+00 3.516526e+00 3.495091e+00 3.819109e+00 3.658819e+00 3.548115e+00 3.621904e+00 3.559188e+00 3.677966e+00 3.500012e+00 3.763097e+00 3.415723e+00 3.878002e+00 3.225934e+00 3.757748e+00 3.700108e+00 3.572942e+00 3.281348e+00 3.691229e+00 3.963698e+00 3.192183e+00 3.686569e+00 3.552340e+00 3.771320e+00 3.721979e+00 4.044152e+00 3.115101e+00 3.465776e+00 3.600892e+00 4.715874e+00 3.600551e+00 4.498709e+00 3.557182e+00 3.651546e+00 3.146180e+00 4.615858e+00 4.211808e+00 4.302065e+00 3.835629e+00 3.915529e+00 3.669454e+00 3.630009e+00 3.530494e+00 3.165232e+00 3.410946e+00 3.516613e+00 3.195758e+00 3.122639e+00 3.689215e+00 3.342818e+00 3.214162e+00 3.549416e+00 3.746509e+00 3.207943e+00 3.273548e+00 3.817271e+00 3.509214e+00 3.159447e+00 3.367058e+00 3.790208e+00 
3.111609e+00 3.370090e+00 3.369339e+00 3.506237e+00 3.513781e+00 3.512653e+00 3.520887e+00 3.469554e+00 3.603837e+00 3.219500e+00 3.783382e+00 3.387913e+00 3.981066e+00 3.425374e+00 3.896472e+00 3.536534e+00 3.783742e+00 3.321296e+00 3.881808e+00 3.451276e+00 3.632425e+00 3.773095e+00 3.479286e+00 3.571514e+00 3.681402e+00 3.985418e+00 2.949205e+00 3.834378e+00 3.632937e+00 4.128469e+00 3.016222e+00 4.152329e+00 3.569545e+00 3.762361e+00 3.953146e+00 4.731906e+00 3.481057e+00 3.669168e+00 3.134753e+00 4.602649e+00 3.991865e+00 4.340244e+00 3.625375e+00 3.682191e+00 2.853195e+00 2.896575e+00 2.415706e+00 2.669292e+00 2.631883e+00 2.964287e+00 2.840632e+00 3.043643e+00 3.296046e+00 3.265437e+00 3.039486e+00 3.498400e+00 3.272602e+00 3.259065e+00 3.092966e+00 3.669342e+00 3.076156e+00 3.304211e+00 3.231860e+00 3.659446e+00 
3.278981e+00 3.475994e+00 3.508387e+00 3.516464e+00 3.519030e+00 3.515704e+00 3.532774e+00 3.393153e+00 3.464202e+00 3.299133e+00 3.545485e+00 3.618347e+00 3.598512e+00 3.562348e+00 3.760762e+00 3.704791e+00 3.518409e+00 4.107731e+00 3.578425e+00 3.706154e+00 3.674477e+00 4.153549e+00 3.016853e+00 3.837524e+00 3.724323e+00 3.887277e+00 3.000408e+00 3.983349e+00 3.790640e+00 3.800021e+00 3.590312e+00 4.270541e+00 3.334445e+00 3.850542e+00 3.503939e+00 4.358141e+00 3.468996e+00 3.740943e+00 3.388320e+00 3.740082e+00 3.193330e+00 3.755898e+00 3.531679e+00 3.689209e+00 3.229303e+00 3.117291e+00 2.659728e+00 2.349880e+00 2.386555e+00 2.650735e+00 2.697465e+00 3.193006e+00 3.385772e+00 3.295541e+00 3.332712e+00 3.669875e+00 3.392733e+00 3.411462e+00 3.462549e+00 3.670009e+00 3.274376e+00 3.441256e+00 3.518505e+00 3.591934e+00 
3.232793e+00 3.503030e+00 3.428005e+00 3.509271e+00 3.511755e+00 3.510190e+00 3.508667e+00 3.545358e+00 3.441626e+00 3.446376e+00 3.617155e+00 3.645650e+00 3.285925e+00 3.811579e+00 3.465293e+00 3.449391e+00 3.567136e+00 3.969604e+00 3.023550e+00 3.726220e+00 3.568024e+00 3.693313e+00 3.007842e+00 3.883929e+00 3.324369e+00 3.782565e+00 3.117321e+00 3.898442e+00 3.113305e+00 4.001455e+00 3.426845e+00 3.991490e+00 3.194014e+00 3.826266e+00 3.419287e+00 3.832669e+00 3.398547e+00 4.051069e+00 3.461228e+00 3.828603e+00 3.057857e+00 3.600420e+00 3.570089e+00 4.059643e+00 3.798512e+00 4.024963e+00 3.340754e+00 3.087256e+00 2.477991e+00 2.716187e+00 2.598346e+00 3.127204e+00 3.135902e+00 3.341179e+00 3.152922e+00 3.572620e+00 3.177739e+00 3.475131e+00 3.202614e+00 3.585756e+00 3.100907e+00 3.514619e+00 3.279300e+00 3.532719e+00 
3.390905e+00 3.550510e+00 3.491338e+00 3.514462e+00 3.514667e+00 3.514833e+00 3.505472e+00 3.651011e+00 3.223992e+00 3.617935e+00 3.645325e+00 3.393669e+00 3.440520e+00 3.847415e+00 3.175464e+00 3.571719e+00 3.613409e+00 3.588983e+00 3.120058e+00 3.808147e+00 3.449858e+00 3.835649e+00 3.227098e+00 3.865921e+00 3.317074e+00 3.915026e+00 3.207939e+00 3.764264e+00 3.123025e+00 3.892583e+00 3.446840e+00 3.994948e+00 3.240020e+00 3.793439e+00 3.150471e+00 3.868271e+00 3.396680e+00 3.925604e+00 3.370701e+00 3.666617e+00 3.082011e+00 3.575983e+00 3.347748e+00 3.777344e+00 3.556865e+00 3.679529e+00 3.494760e+00 3.559559e+00 3.289269e+00 3.370607e+00 3.211694e+00 3.492419e+00 3.353706e+00 3.443049e+00 3.416160e+00 3.606275e+00 3.330571e+00 3.578703e+00 3.450298e+00 3.559937e+00 3.328610e+00 3.584752e+00 3.454748e+00 3.497999e+00 
3.329962e+00 3.527796e+00 3.433310e+00 3.505453e+00 3.512126e+00 3.506718e+00 3.519200e+00 3.402854e+00 3.312998e+00 3.866527e+00 3.549126e+00 3.476329e+00 3.685398e+00 3.630796e+00 3.267068e+00 3.740316e+00 3.455893e+00 3.568454e+00 3.223410e+00 3.733344e+00 3.229403e+00 3.807840e+00 3.184920e+00 3.778839e+00 2.959351e+00 3.961365e+00 3.192703e+00 3.834939e+00 2.973765e+00 4.038057e+00 3.301530e+00 4.022074e+00 3.181556e+00 3.978439e+00 3.271166e+00 3.823889e+00 3.238896e+00 4.018650e+00 3.451044e+00 4.083092e+00 3.379295e+00 3.721986e+00 3.239151e+00 3.881231e+00 3.736978e+00 4.265191e+00 3.679180e+00 3.694701e+00 3.226997e+00 3.490730e+00 3.080358e+00 3.386903e+00 3.136008e+00 3.414136e+00 3.172296e+00 3.557681e+00 3.188892e+00 3.579137e+00 3.244683e+00 3.581308e+00 3.201301e+00 3.581471e+00 3.290608e+00 3.513859e+00 
3.432792e+00 3.542499e+00 3.479514e+00 3.512589e+00 3.517554e+00 3.513167e+00 3.529160e+00 3.364889e+00 3.666144e+00 3.845767e+00 3.395568e+00 3.564900e+00 3.552646e+00 3.571606e+00 3.453255e+00 3.755283e+00 3.492802e+00 3.752062e+00 3.417751e+00 3.771979e+00 3.289204e+00 3.852120e+00 3.259818e+00 3.683295e+00 2.955795e+00 4.006568e+00 3.328635e+00 3.983610e+00 3.147671e+00 4.035770e+00 3.415792e+00 3.986780e+00 3.119912e+00 3.985568e+00 3.196292e+00 3.778449e+00 3.100335e+00 3.843045e+00 3.414496e+00 3.911849e+00 3.075236e+00 3.516762e+00 3.129013e+00 3.783367e+00 3.516781e+00 3.547288e+00 2.869740e+00 3.007194e+00 2.631867e+00 2.869690e+00 2.718636e+00 3.139241e+00 3.065925e+00 3.352377e+00 3.270177e+00 3.521457e+00 3.308203e+00 3.595170e+00 3.390813e+00 3.567053e+00 3.372253e+00 3.585838e+00 3.420375e+00 3.513524e+00 
3.370502e+00 3.524816e+00 3.440368e+00 3.503237e+00 3.506840e+00 3.504245e+00 3.504738e+00 3.564544e+00 3.777513e+00 3.637067e+00 3.277608e+00 3.688430e+00 3.471755e+00 3.767456e+00 3.493224e+00 3.811938e+00 3.295215e+00 3.849051e+00 3.295351e+00 3.852114e+00 3.026509e+00 4.003122e+00 3.110672e+00 3.747307e+00 2.969286e+00 4.065878e+00 3.271754e+00 3.985552e+00 3.194189e+00 3.949353e+00 3.182703e+00 3.792080e+00 3.277282e+00 4.009425e+00 3.299607e+00 3.824337e+00 3.216862e+00 4.059718e+00 3.714397e+00 4.134545e+00 3.210655e+00 3.633378e+00 3.202048e+00 4.086473e+00 3.827207e+00 3.955711e+00 3.082008e+00 3.032382e+00 2.149773e+00 2.332907e+00 1.876576e+00 2.414558e+00 2.381799e+00 3.100928e+00 2.975100e+00 3.484625e+00 3.177997e+00 3.604491e+00 3.262886e+00 3.612858e+00 3.267616e+00 3.595512e+00 3.320933e+00 3.533919e+00 
3.433495e+00 3.530395e+00 3.474141e+00 3.511981e+00 3.510859e+00 3.512527e+00 3.499694e+00 3.731882e+00 3.611489e+00 3.515756e+00 3.352460e+00 3.746285e+00 3.471946e+00 3.861187e+00 3.340361e+00 3.741030e+00 3.193631e+00 3.980133e+00 3.338950e+00 3.907192e+00 3.082609e+00 4.119602e+00 3.145854e+00 3.848787e+00 3.174808e+00 4.054408e+00 3.270731e+00 3.819622e+00 3.185163e+00 3.832841e+00 3.182060e+00 3.775444e+00 3.261947e+00 3.955825e+00 3.552457e+00 4.051445e+00 3.201048e+00 3.767650e+00 3.500767e+00 4.087870e+00 3.471005e+00 3.723469e+00 3.166745e+00 3.679475e+00 3.436657e+00 3.805596e+00 3.860372e+00 4.577648e+00 4.364499e+00 4.013134e+00 2.864137e+00 2.749334e+00 2.587983e+00 3.171196e+00 3.088648e+00 3.477011e+00 3.268496e+00 3.582536e+00 3.352681e+00 3.583434e+00 3.371642e+00 3.572069e+00 3.408706e+00 3.530312e+00 
3.389433e+00 3.521732e+00 3.448431e+00 3.500827e+00 3.502832e+00 3.501518e+00 3.493342e+00 3.727566e+00 3.477699e+00 3.550775e+00 3.415255e+00 3.840189e+00 3.517900e+00 3.802304e+00 3.287992e+00 3.754223e+00 3.080277e+00 4.085438e+00 3.358852e+00 3.756188e+00 2.941003e+00 4.104716e+00 3.153866e+00 3.803997e+00 3.162354e+00 4.087904e+00 3.174400e+00 3.731301e+00 3.053184e+00 3.846368e+00 3.184004e+00 3.923086e+00 3.232117e+00 4.026218e+00 3.465567e+00 3.895270e+00 2.989321e+00 3.662829e+00 3.342760e+00 4.101407e+00 3.293637e+00 3.407427e+00 2.687981e+00 3.406376e+00 3.462007e+00 4.398992e+00 4.112850e+00 4.160927e+00 3.315892e+00 3.298137e+00 2.674636e+00 3.125088e+00 2.898850e+00 3.500355e+00 3.246301e+00 3.669488e+00 3.303989e+00 3.678901e+00 3.314994e+00 3.651772e+00 3.313217e+00 3.603445e+00 3.348155e+00 3.548624e+00 
3.423720e+00 3.522936e+00 3.469870e+00 3.510666e+00 3.512322e+00 3.511219e+00 3.508435e+00 3.632919e+00 3.482892e+00 3.487608e+00 3.568929e+00 3.718459e+00 3.466868e+00 3.730473e+00 3.376446e+00 3.559924e+00 3.377455e+00 3.977240e+00 3.375758e+00 3.709220e+00 3.238149e+00 3.828258e+00 3.104721e+00 4.022943e+00 3.371609e+00 3.962419e+00 3.051004e+00 3.854718e+00 3.188849e+00 3.964644e+00 3.225287e+00 3.912889e+00 3.235338e+00 4.065644e+00 3.407843e+00 3.755260e+00 2.919193e+00 3.477683e+00 3.128524e+00 4.080661e+00 3.738109e+00 4.003394e+00 3.153406e+00 3.423965e+00 3.491654e+00 4.451268e+00 4.205186e+00 4.321878e+00 3.770401e+00 3.873274e+00 3.309632e+00 3.261418e+00 2.694177e+00 3.052625e+00 2.989404e+00 3.451977e+00 3.243705e+00 3.571156e+00 3.318731e+00 3.579766e+00 3.350340e+00 3.558843e+00 3.392410e+00 3.533222e+00 
3.392694e+00 3.517695e+00 3.450868e+00 3.497975e+00 3.505214e+00 3.498520e+00 3.506958e+00 3.522043e+00 3.448513e+00 3.474523e+00 3.619594e+00 3.493446e+00 3.526644e+00 3.695610e+00 3.420910e+00 3.493682e+00 3.494890e+00 3.824901e+00 3.306662e+00 3.557516e+00 3.230576e+00 3.644618e+00 3.011383e+00 3.917548e+00 3.209468e+00 3.861420e+00 2.767500e+00 3.755296e+00 2.846210e+00 4.032032e+00 3.102342e+00 3.857774e+00 2.771107e+00 3.645747e+00 2.945705e+00 3.843964e+00 3.222317e+00 3.531157e+00 2.653361e+00 3.591835e+00 3.798677e+00 4.728469e+00 4.086987e+00 3.750981e+00 2.631845e+00 2.848917e+00 3.003758e+00 4.340258e+00 4.426561e+00 4.481143e+00 3.427208e+00 3.235996e+00 2.408387e+00 2.802688e+00 2.672165e+00 3.370767e+00 3.176555e+00 3.634951e+00 3.300196e+00 3.646344e+00 3.317500e+00 3.594348e+00 3.352488e+00 3.547570e+00 
3.409426e+00 3.516982e+00 3.463605e+00 3.509248e+00 3.516039e+00 3.509918e+00 3.523494e+00 3.412823e+00 3.435371e+00 3.598901e+00 3.450192e+00 3.464850e+00 3.554705e+00 3.627277e+00 3.554915e+00 3.711238e+00 3.412784e+00 3.647674e+00 3.593222e+00 3.753902e+00 3.025782e+00 3.662470e+00 3.522548e+00 3.844357e+00 2.830051e+00 3.800652e+00 3.066214e+00 3.905148e+00 2.823672e+00 3.907408e+00 2.991219e+00 3.926486e+00 2.991485e+00 3.686350e+00 2.631949e+00 3.670404e+00 3.328280e+00 4.102810e+00 3.089992e+00 3.535739e+00 3.036029e+00 3.839571e+00 3.250525e+00 3.361054e+00 2.377058e+00 2.743510e+00 2.447255e+00 3.151271e+00 2.780890e+00 3.380895e+00 3.024934e+00 3.379674e+00 2.737703e+00 2.986804e+00 2.582065e+00 3.175963e+00 3.001275e+00 3.459871e+00 3.225757e+00 3.542477e+00 3.307835e+00 3.539973e+00 3.366905e+00 3.526473e+00 
3.378859e+00 3.510907e+00 3.443815e+00 3.494821e+00 3.505526e+00 3.495477e+00 3.511370e+00 3.430814e+00 3.413795e+00 3.737227e+00 3.401954e+00 3.689384e+00 3.385179e+00 3.726982e+00 3.547459e+00 3.868766e+00 3.254633e+00 3.703390e+00 3.327477e+00 4.170069e+00 3.166275e+00 3.677275e+00 3.214967e+00 4.295426e+00 3.100391e+00 3.570304e+00 2.905630e+00 4.046113e+00 3.349042e+00 3.909089e+00 2.975353e+00 3.687486e+00 3.211495e+00 4.084538e+00 3.249830e+00 3.679210e+00 2.980986e+00 4.034068e+00 3.527004e+00 3.805692e+00 2.485936e+00 3.130643e+00 3.042708e+00 4.088773e+00 3.036780e+00 2.763913e+00 1.728240e+00 2.613377e+00 2.963188e+00 4.428203e+00 4.475533e+00 5.023290e+00 4.424069e+00 4.513679e+00 3.754556e+00 3.887525e+00 3.319440e+00 3.650256e+00 3.260032e+00 3.606193e+00 3.280071e+00 3.564279e+00 3.329873e+00 3.532896e+00 