# vtk DataFile Version 2.0
Comment goes here
ASCII

DATASET STRUCTURED_POINTS
DIMENSIONS    64   64   1

ORIGIN    0.000   0.000   0.000
SPACING   0.0156250.015625   1.000

POINT_DATA   4096
SCALARS uX double
LOOKUP_TABLE default

2.317391e-01 -2.011044e-01 -2.539937e+00 -3.082349e+00 -3.360239e+00 -3.012141e+00 -2.295797e+00 -1.562479e+00 -1.832055e+00 -9.414737e-02 -9.889854e-01 -1.639531e-01 -3.467631e-01 -3.170709e-03 -4.782204e-02 1.591133e-01 1.384024e-01 2.876143e-01 2.641904e-01 3.848972e-01 3.534357e-01 4.583492e-01 4.200418e-01 5.130341e-01 4.710919e-01 5.517204e-01 5.122184e-01 5.789407e-01 5.471290e-01 5.970803e-01 5.756464e-01 6.081559e-01 5.989993e-01 6.151766e-01 6.158274e-01 6.185793e-01 6.271096e-01 6.202807e-01 6.336073e-01 6.195418e-01 6.327587e-01 6.179421e-01 6.269375e-01 6.115766e-01 6.180822e-01 5.966994e-01 6.088642e-01 5.755857e-01 5.898558e-01 5.512145e-01 5.620410e-01 5.176957e-01 5.247201e-01 4.719749e-01 4.750197e-01 4.149279e-01 4.070299e-01 3.437009e-01 3.277669e-01 2.505443e-01 2.249752e-01 2.460150e-01 2.179830e-01 4.905152e-01 
-1.022481e+00 -1.361455e+00 -1.949503e+00 -3.108110e+00 -3.158335e+00 -3.253223e+00 -2.831118e+00 -2.050048e+00 -1.801913e+00 -7.791416e-01 -8.175433e-01 -4.047538e-01 -2.793241e-01 -9.406068e-02 3.272262e-04 1.268108e-01 1.708845e-01 2.813566e-01 2.854281e-01 3.886349e-01 3.679540e-01 4.660556e-01 4.317361e-01 5.222759e-01 4.812978e-01 5.604940e-01 5.216537e-01 5.875149e-01 5.567303e-01 6.055791e-01 5.848187e-01 6.159370e-01 6.086013e-01 6.226213e-01 6.249631e-01 6.250951e-01 6.356669e-01 6.266014e-01 6.422119e-01 6.254330e-01 6.388103e-01 6.257109e-01 6.295284e-01 6.206795e-01 6.172740e-01 6.034229e-01 6.085293e-01 5.784402e-01 5.851442e-01 5.519206e-01 5.506127e-01 5.124905e-01 5.033542e-01 4.538664e-01 4.373159e-01 3.744673e-01 3.367369e-01 2.569362e-01 2.041278e-01 3.202453e-02 -2.679227e-02 -2.332754e-01 -3.673352e-01 -7.753264e-01 
-6.815694e-01 -1.249971e+00 -1.604648e+00 -1.607613e+00 -1.749772e+00 -1.301963e+00 -1.603711e+00 -1.142616e+00 -6.626232e-01 -1.000533e+00 -4.335912e-01 -4.607094e-01 -2.474728e-01 -2.207363e-01 -5.621191e-02 -7.618581e-02 7.364669e-02 2.261937e-02 1.602337e-01 9.539871e-02 2.153551e-01 1.557757e-01 2.483340e-01 2.053647e-01 2.707020e-01 2.433969e-01 2.890200e-01 2.694501e-01 3.038144e-01 2.886190e-01 3.152464e-01 3.030739e-01 3.221839e-01 3.163919e-01 3.222525e-01 3.310039e-01 3.187788e-01 3.398230e-01 3.181907e-01 3.394931e-01 3.224035e-01 3.309522e-01 3.265314e-01 3.199746e-01 3.261082e-01 3.088222e-01 3.185023e-01 2.961827e-01 3.064859e-01 2.782415e-01 2.894975e-01 2.571821e-01 2.629813e-01 2.310433e-01 2.282658e-01 1.949763e-01 1.843484e-01 1.500634e-01 1.253468e-01 8.919955e-02 9.499982e-02 4.005454e-02 -4.745241e-02 -2.569919e-01 
-4.544333e-01 -9.842155e-01 -6.339836e-01 5.861994e-01 3.021315e-01 1.276982e+00 1.444236e+00 9.058147e-01 7.381148e-01 4.916521e-01 3.634471e-01 1.427497e-01 1.839669e-01 -6.973634e-02 1.021379e-01 -2.095340e-01 7.395135e-02 -2.998855e-01 6.113262e-02 -3.441808e-01 3.967795e-02 -3.538422e-01 1.411948e-03 -3.424034e-01 -3.866751e-02 -3.173304e-01 -7.524096e-02 -2.936525e-01 -1.123618e-01 -2.679832e-01 -1.447988e-01 -2.383232e-01 -1.796198e-01 -2.071899e-01 -2.125995e-01 -1.706270e-01 -2.405443e-01 -1.480027e-01 -2.544674e-01 -1.431339e-01 -2.377666e-01 -1.631323e-01 -2.087487e-01 -1.812579e-01 -1.857572e-01 -1.759314e-01 -1.892101e-01 -1.611001e-01 -1.753657e-01 -1.597420e-01 -1.551612e-01 -1.462858e-01 -1.387838e-01 -1.166884e-01 -1.194599e-01 -8.940354e-02 -8.247247e-02 -4.999723e-02 -7.013033e-02 9.822880e-02 5.315709e-02 1.002792e-01 -1.252605e-02 -1.323656e-01 
3.395831e-01 5.801700e-01 4.613109e-01 -1.103907e+00 -1.670208e+00 -1.558171e+00 -9.408401e-01 -8.411674e-01 -5.117182e-01 -3.488989e-01 -1.370287e-01 -1.361134e-01 4.372218e-02 -1.706562e-02 1.359768e-01 1.567207e-02 1.943808e-01 1.133638e-02 2.281137e-01 3.456890e-03 2.419645e-01 -1.119630e-03 2.387448e-01 1.901505e-03 2.255144e-01 1.555838e-02 2.046012e-01 3.399181e-02 1.770148e-01 5.515597e-02 1.489304e-01 7.884293e-02 1.193555e-01 9.942970e-02 9.567486e-02 1.160107e-01 7.779333e-02 1.234429e-01 6.530980e-02 1.226120e-01 6.664173e-02 1.084128e-01 7.394167e-02 9.230136e-02 7.830263e-02 8.555732e-02 6.803933e-02 7.957359e-02 6.632195e-02 6.218353e-02 6.484876e-02 4.383398e-02 5.955652e-02 2.602767e-02 4.785598e-02 -3.589024e-04 3.566227e-02 -2.695406e-02 -4.890348e-05 2.280925e-02 9.385693e-04 -1.211689e-02 1.802124e-02 1.130734e-03 
4.683913e-01 5.638638e-01 -2.037947e+00 -3.133101e+00 -3.746403e+00 -3.411831e+00 -2.534943e+00 -2.233870e+00 -1.550173e+00 -3.214965e-01 -7.267502e-01 2.280654e-02 -1.610685e-01 2.533425e-01 1.347157e-01 4.065754e-01 3.107120e-01 5.066685e-01 4.240576e-01 5.695411e-01 5.055332e-01 6.066066e-01 5.695841e-01 6.298977e-01 6.151570e-01 6.462786e-01 6.439128e-01 6.628337e-01 6.620960e-01 6.763453e-01 6.714892e-01 6.856699e-01 6.781134e-01 6.894020e-01 6.846569e-01 6.834704e-01 6.904359e-01 6.772311e-01 6.905344e-01 6.728720e-01 6.786164e-01 6.729812e-01 6.615767e-01 6.673658e-01 6.443438e-01 6.488453e-01 6.333482e-01 6.215455e-01 6.113171e-01 5.932217e-01 5.806736e-01 5.520101e-01 5.438975e-01 4.966695e-01 4.930453e-01 4.378121e-01 4.194804e-01 3.828267e-01 3.465966e-01 3.406028e-01 2.548477e-01 5.923684e-01 6.390611e-01 1.400156e+00 
-2.770015e+00 -3.689516e+00 -3.512332e+00 -3.693946e+00 -2.927038e+00 -3.490303e+00 -2.872723e+00 -9.653181e-01 -1.409171e+00 -3.196697e-01 -5.377800e-01 -5.459706e-02 -8.805608e-02 1.758431e-01 1.532603e-01 3.462159e-01 3.062260e-01 4.668684e-01 4.137204e-01 5.473152e-01 4.953721e-01 5.987890e-01 5.607840e-01 6.320354e-01 6.095731e-01 6.540040e-01 6.434364e-01 6.719136e-01 6.670202e-01 6.851823e-01 6.818316e-01 6.930445e-01 6.930953e-01 6.955042e-01 7.018639e-01 6.905338e-01 7.078848e-01 6.846995e-01 7.081638e-01 6.793436e-01 6.973659e-01 6.767163e-01 6.807585e-01 6.685979e-01 6.624075e-01 6.482120e-01 6.477052e-01 6.180026e-01 6.221360e-01 5.824639e-01 5.867038e-01 5.306316e-01 5.392551e-01 4.558774e-01 4.682248e-01 3.523418e-01 3.478757e-01 1.885529e-01 1.442021e-01 -1.432401e-01 -3.176796e-01 -7.425297e-01 -1.188197e+00 -1.794704e+00 
-1.606624e+00 -2.451922e-01 -1.114222e+00 1.251093e+00 1.165043e+00 1.142417e+00 -1.390898e+00 -3.875475e-01 -5.258619e-01 -4.027922e-01 -2.794531e-01 1.134879e-01 -1.888530e-02 3.340889e-01 2.078091e-01 4.693754e-01 3.572831e-01 5.600084e-01 4.591456e-01 6.197135e-01 5.335895e-01 6.574943e-01 5.908633e-01 6.812652e-01 6.337283e-01 6.969238e-01 6.641501e-01 7.088689e-01 6.851840e-01 7.174602e-01 6.991790e-01 7.222515e-01 7.092750e-01 7.227117e-01 7.169340e-01 7.185555e-01 7.216539e-01 7.131852e-01 7.211102e-01 7.083620e-01 7.131808e-01 7.042479e-01 7.004258e-01 6.963315e-01 6.860140e-01 6.807936e-01 6.716001e-01 6.583201e-01 6.515386e-01 6.305845e-01 6.247382e-01 5.934020e-01 5.901613e-01 5.444838e-01 5.418106e-01 4.822967e-01 4.682620e-01 3.931724e-01 3.429504e-01 2.251460e-01 4.485830e-02 -2.306772e-01 -8.776455e-01 -1.175975e+00 
-1.790649e-01 -1.877866e-03 -1.612489e-01 1.152208e+00 1.146589e+00 1.159148e+00 1.138780e+00 3.097239e-01 6.211315e-01 -5.429099e-02 2.409644e-01 1.497169e-01 2.018920e-01 2.865236e-01 2.935945e-01 4.016495e-01 3.880585e-01 4.927192e-01 4.663476e-01 5.597454e-01 5.296461e-01 6.068168e-01 5.807006e-01 6.392917e-01 6.202939e-01 6.618161e-01 6.496257e-01 6.782002e-01 6.707828e-01 6.896236e-01 6.854456e-01 6.963777e-01 6.958128e-01 6.986741e-01 7.027891e-01 6.967037e-01 7.062289e-01 6.926137e-01 7.049103e-01 6.873702e-01 6.975084e-01 6.809017e-01 6.855871e-01 6.700311e-01 6.709231e-01 6.518098e-01 6.542915e-01 6.258439e-01 6.315067e-01 5.918404e-01 6.009176e-01 5.453458e-01 5.600194e-01 4.816809e-01 5.034238e-01 3.950552e-01 4.238306e-01 2.737755e-01 3.187821e-01 1.040009e-01 1.878154e-01 -9.414534e-02 9.069992e-02 -2.748313e-01 
1.190341e+00 1.061518e+00 2.418943e+00 1.185699e+00 1.137651e+00 1.149262e+00 1.109238e+00 9.881976e-01 -3.289457e-02 3.521734e-01 1.833104e-01 3.927908e-01 2.837019e-01 4.906889e-01 3.750391e-01 5.640379e-01 4.573247e-01 6.183390e-01 5.240631e-01 6.575085e-01 5.771791e-01 6.846205e-01 6.194226e-01 7.029128e-01 6.521920e-01 7.152915e-01 6.766580e-01 7.239258e-01 6.943513e-01 7.295602e-01 7.067825e-01 7.322894e-01 7.154809e-01 7.320915e-01 7.212616e-01 7.292502e-01 7.240099e-01 7.249882e-01 7.229377e-01 7.200431e-01 7.175396e-01 7.141147e-01 7.087504e-01 7.053581e-01 6.978415e-01 6.920514e-01 6.852109e-01 6.737871e-01 6.692375e-01 6.503797e-01 6.489747e-01 6.200971e-01 6.234490e-01 5.809894e-01 5.904293e-01 5.299719e-01 5.469369e-01 4.592096e-01 4.912913e-01 3.569873e-01 4.368161e-01 2.413178e-01 5.188788e-01 3.141761e-01 
1.208821e+00 4.088287e-01 1.830052e+00 1.186247e+00 1.151842e+00 1.165093e+00 1.147286e+00 -1.820499e-01 6.210027e-01 1.598508e-01 4.700587e-01 3.140723e-01 4.294832e-01 4.068447e-01 4.459832e-01 4.811180e-01 4.876660e-01 5.431084e-01 5.335845e-01 5.922196e-01 5.757721e-01 6.292044e-01 6.119140e-01 6.561681e-01 6.412978e-01 6.755046e-01 6.641072e-01 6.892786e-01 6.811556e-01 6.986156e-01 6.933966e-01 7.040784e-01 7.018494e-01 7.060525e-01 7.070561e-01 7.049741e-01 7.090231e-01 7.016861e-01 7.073465e-01 6.965989e-01 7.017247e-01 6.893879e-01 6.927026e-01 6.786501e-01 6.809540e-01 6.629305e-01 6.665452e-01 6.414497e-01 6.481737e-01 6.133975e-01 6.249398e-01 5.769344e-01 5.960984e-01 5.302087e-01 5.612872e-01 4.718458e-01 5.227334e-01 4.016899e-01 4.907184e-01 3.260735e-01 4.935564e-01 2.704600e-01 6.275404e-01 2.757470e-01 
1.571937e+00 7.274752e-01 2.118832e+00 1.169546e+00 1.140696e+00 1.154093e+00 1.132396e+00 1.650528e+00 1.091945e+00 1.028559e+00 7.227859e-01 7.602584e-01 5.909713e-01 6.902032e-01 5.639497e-01 6.830420e-01 5.774021e-01 6.941912e-01 6.037675e-01 7.086424e-01 6.318145e-01 7.212782e-01 6.573581e-01 7.308621e-01 6.788317e-01 7.376204e-01 6.958584e-01 7.421116e-01 7.087478e-01 7.446374e-01 7.181054e-01 7.452869e-01 7.245946e-01 7.441238e-01 7.286144e-01 7.413674e-01 7.301829e-01 7.374786e-01 7.290839e-01 7.327078e-01 7.252618e-01 7.267967e-01 7.191498e-01 7.189211e-01 7.113346e-01 7.082548e-01 7.020776e-01 6.943840e-01 6.910955e-01 6.770273e-01 6.783162e-01 6.556015e-01 6.640929e-01 6.295510e-01 6.496211e-01 5.984986e-01 6.389654e-01 5.629166e-01 6.447753e-01 5.288527e-01 7.044805e-01 5.196295e-01 9.268694e-01 5.689851e-01 
1.112676e+00 7.764347e-01 1.308084e+00 1.155576e+00 1.152491e+00 1.156177e+00 1.154330e+00 6.715708e-01 6.575914e-01 4.331787e-01 5.782170e-01 4.700181e-01 5.702785e-01 5.236013e-01 5.714257e-01 5.677298e-01 5.843813e-01 6.051590e-01 6.049662e-01 6.364223e-01 6.278347e-01 6.613915e-01 6.496411e-01 6.805020e-01 6.686526e-01 6.946289e-01 6.841903e-01 7.047096e-01 6.962320e-01 7.114272e-01 7.050681e-01 7.152293e-01 7.110887e-01 7.164541e-01 7.145416e-01 7.154354e-01 7.154613e-01 7.125494e-01 7.137433e-01 7.079508e-01 7.093609e-01 7.014081e-01 7.025683e-01 6.922744e-01 6.936899e-01 6.798504e-01 6.828438e-01 6.636719e-01 6.698414e-01 6.434054e-01 6.547764e-01 6.187548e-01 6.383994e-01 5.900130e-01 6.228846e-01 5.588642e-01 6.136622e-01 5.297823e-01 6.229374e-01 5.128682e-01 6.760830e-01 5.265889e-01 8.234787e-01 5.983666e-01 
1.231898e+00 1.063444e+00 1.438642e+00 1.150488e+00 1.143789e+00 1.150447e+00 1.144227e+00 1.226538e+00 1.052439e+00 1.055607e+00 8.767116e-01 9.036405e-01 7.622326e-01 8.206976e-01 7.051972e-01 7.821449e-01 6.839740e-01 7.666627e-01 6.820519e-01 7.618461e-01 6.891069e-01 7.612424e-01 6.993917e-01 7.618226e-01 7.098956e-01 7.623383e-01 7.191693e-01 7.623391e-01 7.266604e-01 7.616347e-01 7.322898e-01 7.601183e-01 7.361745e-01 7.577566e-01 7.384180e-01 7.546180e-01 7.390245e-01 7.508493e-01 7.379532e-01 7.465063e-01 7.352687e-01 7.414280e-01 7.312450e-01 7.352519e-01 7.262661e-01 7.276322e-01 7.206771e-01 7.184263e-01 7.147939e-01 7.076941e-01 7.092482e-01 6.957012e-01 7.053968e-01 6.832413e-01 7.060823e-01 6.722719e-01 7.173614e-01 6.673824e-01 7.518885e-01 6.791501e-01 8.341183e-01 7.294271e-01 9.986424e-01 8.593471e-01 
9.337063e-01 1.034787e+00 1.098291e+00 1.151405e+00 1.150198e+00 1.152377e+00 1.149398e+00 1.012455e+00 9.717301e-01 7.969386e-01 7.998246e-01 6.857665e-01 7.184432e-01 6.587670e-01 6.853461e-01 6.615896e-01 6.741412e-01 6.733119e-01 6.746608e-01 6.868490e-01 6.812230e-01 6.993612e-01 6.902160e-01 7.097383e-01 6.994482e-01 7.177250e-01 7.077171e-01 7.234442e-01 7.144681e-01 7.271098e-01 7.195213e-01 7.289241e-01 7.228744e-01 7.290740e-01 7.245516e-01 7.277463e-01 7.245413e-01 7.251133e-01 7.228185e-01 7.212381e-01 7.194282e-01 7.160118e-01 7.145489e-01 7.091799e-01 7.084384e-01 7.005048e-01 7.013669e-01 6.899295e-01 6.936678e-01 6.776626e-01 6.860384e-01 6.643307e-01 6.799200e-01 6.514041e-01 6.781013e-01 6.418781e-01 6.856792e-01 6.413477e-01 7.111585e-01 6.598379e-01 7.658938e-01 7.158990e-01 8.516764e-01 8.484154e-01 
1.054241e+00 1.137571e+00 1.172876e+00 1.148282e+00 1.144821e+00 1.148469e+00 1.144695e+00 1.147115e+00 1.055204e+00 1.049456e+00 9.453616e-01 9.618488e-01 8.607670e-01 8.969203e-01 8.029947e-01 8.536744e-01 7.684933e-01 8.267335e-01 7.505609e-01 8.102425e-01 7.429603e-01 7.998485e-01 7.411432e-01 7.928145e-01 7.421596e-01 7.875784e-01 7.442442e-01 7.832854e-01 7.464244e-01 7.794533e-01 7.482147e-01 7.757981e-01 7.493954e-01 7.721640e-01 7.498613e-01 7.684934e-01 7.495491e-01 7.647862e-01 7.484428e-01 7.610269e-01 7.466248e-01 7.571364e-01 7.443133e-01 7.529960e-01 7.418428e-01 7.485530e-01 7.396414e-01 7.439365e-01 7.382974e-01 7.395443e-01 7.387763e-01 7.361794e-01 7.427533e-01 7.353667e-01 7.531306e-01 7.399265e-01 7.748029e-01 7.549696e-01 8.152757e-01 7.894707e-01 8.829084e-01 8.585956e-01 9.741535e-01 9.866599e-01 
8.999728e-01 1.098799e+00 1.028673e+00 1.149221e+00 1.149188e+00 1.150067e+00 1.148999e+00 1.084135e+00 1.058428e+00 9.520611e-01 9.300341e-01 8.385463e-01 8.369754e-01 7.777810e-01 7.834348e-01 7.510526e-01 7.542034e-01 7.411047e-01 7.392351e-01 7.388009e-01 7.326416e-01 7.396355e-01 7.307674e-01 7.414078e-01 7.312954e-01 7.430825e-01 7.327910e-01 7.442107e-01 7.344076e-01 7.446192e-01 7.356733e-01 7.442609e-01 7.363353e-01 7.431521e-01 7.362528e-01 7.413456e-01 7.353427e-01 7.389039e-01 7.335759e-01 7.358598e-01 7.310045e-01 7.321993e-01 7.277865e-01 7.278949e-01 7.241823e-01 7.230006e-01 7.205605e-01 7.177695e-01 7.174700e-01 7.127767e-01 7.158142e-01 7.091031e-01 7.170852e-01 7.086510e-01 7.236365e-01 7.146113e-01 7.388638e-01 7.321492e-01 7.667300e-01 7.695279e-01 8.088879e-01 8.403358e-01 8.564333e-01 9.631384e-01 
9.948166e-01 1.145698e+00 1.077069e+00 1.146637e+00 1.145226e+00 1.147088e+00 1.145040e+00 1.140952e+00 1.086854e+00 1.074705e+00 1.000990e+00 1.004875e+00 9.286276e-01 9.489816e-01 8.736073e-01 9.063468e-01 8.343103e-01 8.748274e-01 8.077849e-01 8.517691e-01 7.906452e-01 8.347325e-01 7.799079e-01 8.218440e-01 7.732905e-01 8.118000e-01 7.691932e-01 8.037341e-01 7.665640e-01 7.970740e-01 7.647435e-01 7.914418e-01 7.633311e-01 7.865952e-01 7.620868e-01 7.823928e-01 7.608761e-01 7.787613e-01 7.596574e-01 7.756612e-01 7.584950e-01 7.730710e-01 7.575747e-01 7.710102e-01 7.572082e-01 7.696030e-01 7.578480e-01 7.691627e-01 7.601502e-01 7.702883e-01 7.651031e-01 7.740058e-01 7.742043e-01 7.820015e-01 7.896470e-01 7.969708e-01 8.143531e-01 8.230862e-01 8.512968e-01 8.665344e-01 9.006784e-01 9.360627e-01 9.531844e-01 1.040905e+00 
9.113105e-01 1.119938e+00 1.011796e+00 1.147585e+00 1.148517e+00 1.148408e+00 1.148430e+00 1.111497e+00 1.092606e+00 1.023299e+00 9.996510e-01 9.315122e-01 9.181424e-01 8.668274e-01 8.604220e-01 8.267740e-01 8.217674e-01 8.027949e-01 7.963594e-01 7.883292e-01 7.798421e-01 7.792932e-01 7.691887e-01 7.733130e-01 7.623200e-01 7.690400e-01 7.578195e-01 7.657115e-01 7.547379e-01 7.628933e-01 7.524513e-01 7.603386e-01 7.505559e-01 7.579154e-01 7.487946e-01 7.555659e-01 7.470145e-01 7.532802e-01 7.451533e-01 7.510766e-01 7.432448e-01 7.490003e-01 7.414295e-01 7.471536e-01 7.399636e-01 7.457599e-01 7.392393e-01 7.452510e-01 7.398374e-01 7.463753e-01 7.426151e-01 7.503442e-01 7.487979e-01 7.590390e-01 7.600097e-01 7.752840e-01 7.780786e-01 8.031926e-01 8.042557e-01 8.485897e-01 8.373369e-01 9.192409e-01 8.718187e-01 1.020628e+00 
9.800376e-01 1.144190e+00 1.048651e+00 1.145527e+00 1.145361e+00 1.146063e+00 1.145231e+00 1.142429e+00 1.107533e+00 1.095969e+00 1.040904e+00 1.038279e+00 9.783077e-01 9.883489e-01 9.268546e-01 9.471564e-01 8.861374e-01 9.136645e-01 8.549176e-01 8.867151e-01 8.315659e-01 8.651304e-01 8.143771e-01 8.478366e-01 8.018160e-01 8.339349e-01 7.926320e-01 8.227135e-01 7.858739e-01 8.136276e-01 7.808546e-01 8.062728e-01 7.770967e-01 8.003615e-01 7.742824e-01 7.957036e-01 7.722206e-01 7.921878e-01 7.708317e-01 7.897666e-01 7.701487e-01 7.884532e-01 7.703227e-01 7.883416e-01 7.716305e-01 7.896490e-01 7.744913e-01 7.927764e-01 7.795048e-01 7.983851e-01 7.875068e-01 8.074982e-01 7.996178e-01 8.216356e-01 8.172154e-01 8.429748e-01 8.416746e-01 8.744973e-01 8.735622e-01 9.200394e-01 9.109016e-01 9.840249e-01 9.472725e-01 1.068245e+00 
9.320693e-01 1.127934e+00 1.016717e+00 1.146435e+00 1.147941e+00 1.147167e+00 1.147884e+00 1.125105e+00 1.111291e+00 1.063414e+00 1.042063e+00 9.908613e-01 9.740758e-01 9.314910e-01 9.191235e-01 8.875867e-01 8.769439e-01 8.559081e-01 8.452090e-01 8.330061e-01 8.215754e-01 8.162170e-01 8.040718e-01 8.036807e-01 7.911264e-01 7.941385e-01 7.815196e-01 7.867422e-01 7.743286e-01 7.809195e-01 7.688733e-01 7.762876e-01 7.646667e-01 7.726000e-01 7.613739e-01 7.697120e-01 7.587832e-01 7.675590e-01 7.567924e-01 7.661438e-01 7.554051e-01 7.655396e-01 7.547345e-01 7.659126e-01 7.550096e-01 7.675653e-01 7.565903e-01 7.709984e-01 7.599926e-01 7.769874e-01 7.659179e-01 7.866782e-01 7.752570e-01 8.017019e-01 7.890156e-01 8.242969e-01 8.080664e-01 8.574042e-01 8.326228e-01 9.046344e-01 8.615306e-01 9.696896e-01 8.926922e-01 1.052481e+00 
9.820888e-01 1.141464e+00 1.045316e+00 1.144756e+00 1.145341e+00 1.145280e+00 1.145253e+00 1.144219e+00 1.120664e+00 1.111150e+00 1.069471e+00 1.064174e+00 1.016200e+00 1.019813e+00 9.686989e-01 9.802863e-01 9.278487e-01 9.456880e-01 8.937492e-01 9.160034e-01 8.660595e-01 8.910091e-01 8.440678e-01 8.702799e-01 8.268808e-01 8.532864e-01 8.135979e-01 8.394900e-01 8.034190e-01 8.284050e-01 7.956909e-01 8.196285e-01 7.899135e-01 8.128506e-01 7.857274e-01 8.078529e-01 7.829001e-01 8.045026e-01 7.813156e-01 8.027467e-01 7.809706e-01 8.026147e-01 7.819752e-01 8.042325e-01 7.845559e-01 8.078504e-01 7.890628e-01 8.138832e-01 7.959815e-01 8.229582e-01 8.059396e-01 8.359725e-01 8.196825e-01 8.541520e-01 8.379652e-01 8.790951e-01 8.612766e-01 9.127586e-01 8.893020e-01 9.573093e-01 9.201853e-01 1.014606e+00 9.505123e-01 1.083326e+00 
9.528265e-01 1.131121e+00 1.028154e+00 1.145571e+00 1.147408e+00 1.146206e+00 1.147371e+00 1.132835e+00 1.123371e+00 1.089193e+00 1.071490e+00 1.032302e+00 1.015431e+00 9.802609e-01 9.650322e-01 9.364763e-01 9.219517e-01 9.006695e-01 8.862602e-01 8.719202e-01 8.574250e-01 8.491284e-01 8.345756e-01 8.312055e-01 8.167178e-01 8.171812e-01 8.028876e-01 8.062506e-01 7.922398e-01 7.977819e-01 7.840849e-01 7.913043e-01 7.778908e-01 7.864868e-01 7.732709e-01 7.831177e-01 7.699676e-01 7.810879e-01 7.678400e-01 7.803809e-01 7.668577e-01 7.810740e-01 7.670977e-01 7.833525e-01 7.687457e-01 7.875366e-01 7.720998e-01 7.941199e-01 7.775752e-01 8.038151e-01 7.857000e-01 8.176041e-01 7.970830e-01 8.367836e-01 8.123239e-01 8.629869e-01 8.318356e-01 8.981359e-01 8.555943e-01 9.442232e-01 8.829926e-01 1.002643e+00 9.135607e-01 1.071349e+00 
9.897472e-01 1.139206e+00 1.049969e+00 1.144178e+00 1.145236e+00 1.144664e+00 1.145181e+00 1.145630e+00 1.130273e+00 1.122963e+00 1.092145e+00 1.085971e+00 1.047545e+00 1.046949e+00 1.003580e+00 1.008694e+00 9.625095e-01 9.727772e-01 9.259334e-01 9.404925e-01 8.946878e-01 9.125015e-01 8.688434e-01 8.888844e-01 8.479706e-01 8.693618e-01 8.314145e-01 8.534976e-01 8.184849e-01 8.408324e-01 8.085598e-01 8.309556e-01 8.011305e-01 8.235370e-01 7.958123e-01 8.183374e-01 7.923422e-01 8.152082e-01 7.905721e-01 8.140899e-01 7.904632e-01 8.150140e-01 7.920820e-01 8.181111e-01 7.955977e-01 8.236271e-01 8.012785e-01 8.319444e-01 8.094856e-01 8.436061e-01 8.206538e-01 8.593374e-01 8.352397e-01 8.800563e-01 8.536122e-01 9.068544e-01 8.758546e-01 9.409152e-01 9.014887e-01 9.833125e-01 9.292539e-01 1.034512e+00 9.575776e-01 1.092158e+00 
9.707934e-01 1.132501e+00 1.039748e+00 1.144878e+00 1.146908e+00 1.145432e+00 1.146891e+00 1.137793e+00 1.132854e+00 1.108278e+00 1.095576e+00 1.065217e+00 1.049875e+00 1.020372e+00 1.003453e+00 9.774117e-01 9.596003e-01 9.385209e-01 9.205616e-01 9.050480e-01 8.874101e-01 8.773192e-01 8.601964e-01 8.549441e-01 8.383688e-01 8.372091e-01 8.211386e-01 8.233490e-01 8.077062e-01 8.126856e-01 7.973700e-01 8.046789e-01 7.895656e-01 7.989328e-01 7.838694e-01 7.951840e-01 7.799889e-01 7.932871e-01 7.777510e-01 7.932044e-01 7.770919e-01 7.950027e-01 7.780508e-01 7.988590e-01 7.807640e-01 8.050737e-01 7.854606e-01 8.140901e-01 7.924544e-01 8.265142e-01 8.021253e-01 8.431311e-01 8.148809e-01 8.649054e-01 8.310856e-01 8.929466e-01 8.509607e-01 9.284043e-01 8.744906e-01 9.722282e-01 9.014474e-01 1.024640e+00 9.319636e-01 1.083117e+00 
9.982227e-01 1.137599e+00 1.056094e+00 1.143711e+00 1.145079e+00 1.144158e+00 1.145057e+00 1.146837e+00 1.139084e+00 1.134002e+00 1.113962e+00 1.107799e+00 1.077438e+00 1.073536e+00 1.035392e+00 1.034958e+00 9.925425e-01 9.963032e-01 9.526746e-01 9.606782e-01 9.178221e-01 9.295737e-01 8.885733e-01 9.033387e-01 8.646872e-01 8.817275e-01 8.455634e-01 8.642641e-01 8.305169e-01 8.504391e-01 8.189134e-01 8.398002e-01 8.102245e-01 8.319867e-01 8.040440e-01 8.267382e-01 8.000853e-01 8.238928e-01 7.981745e-01 8.233831e-01 7.982416e-01 8.252348e-01 8.003126e-01 8.295686e-01 8.045016e-01 8.366059e-01 8.110001e-01 8.466759e-01 8.200607e-01 8.602216e-01 8.319685e-01 8.777970e-01 8.469886e-01 9.000501e-01 8.652821e-01 9.276753e-01 8.867891e-01 9.613143e-01 9.111105e-01 1.001369e+00 9.374918e-01 1.047618e+00 9.653265e-01 1.097557e+00 
9.852526e-01 1.133163e+00 1.049398e+00 1.144287e+00 1.146428e+00 1.144780e+00 1.146436e+00 1.141342e+00 1.142284e+00 1.125163e+00 1.120417e+00 1.097038e+00 1.084089e+00 1.058316e+00 1.039159e+00 1.014226e+00 9.923814e-01 9.709712e-01 9.489802e-01 9.324937e-01 9.114977e-01 9.002357e-01 8.804854e-01 8.741194e-01 8.554756e-01 8.534259e-01 8.356374e-01 8.372987e-01 8.201120e-01 8.249662e-01 8.081500e-01 8.158146e-01 7.991516e-01 8.093940e-01 7.926657e-01 8.054031e-01 7.883764e-01 8.036706e-01 7.860872e-01 8.041400e-01 7.857075e-01 8.068618e-01 7.872425e-01 8.119914e-01 7.907827e-01 8.197916e-01 7.964945e-01 8.306373e-01 8.046058e-01 8.450171e-01 8.153846e-01 8.635268e-01 8.291055e-01 8.868440e-01 8.460027e-01 9.156708e-01 8.662193e-01 9.506206e-01 8.897785e-01 9.920210e-01 9.166332e-01 1.039550e+00 9.470876e-01 1.090738e+00 
1.005528e+00 1.136475e+00 1.061423e+00 1.143301e+00 1.144876e+00 1.143716e+00 1.144894e+00 1.147870e+00 1.149160e+00 1.146357e+00 1.141056e+00 1.135759e+00 1.112097e+00 1.104471e+00 1.067910e+00 1.061436e+00 1.019563e+00 1.016894e+00 9.743700e-01 9.763815e-01 9.353090e-01 9.417736e-01 9.028911e-01 9.131462e-01 8.765947e-01 8.899167e-01 8.555959e-01 8.713657e-01 8.390760e-01 8.568383e-01 8.263304e-01 8.458032e-01 8.167957e-01 8.378597e-01 8.100454e-01 8.327282e-01 8.057775e-01 8.302372e-01 8.038009e-01 8.303135e-01 8.040224e-01 8.329755e-01 8.064357e-01 8.383291e-01 8.111093e-01 8.465656e-01 8.181727e-01 8.579586e-01 8.277959e-01 8.728568e-01 8.401611e-01 8.916675e-01 8.554194e-01 9.148255e-01 8.736344e-01 9.427360e-01 8.947199e-01 9.756822e-01 9.183991e-01 1.013678e+00 9.442462e-01 1.056199e+00 9.721188e-01 1.100894e+00 
9.962501e-01 1.133495e+00 1.056701e+00 1.143751e+00 1.145942e+00 1.144199e+00 1.145986e+00 1.143757e+00 1.153254e+00 1.142426e+00 1.154048e+00 1.137432e+00 1.126321e+00 1.101470e+00 1.076618e+00 1.050130e+00 1.021698e+00 9.985940e-01 9.714302e-01 9.537221e-01 9.291084e-01 9.170504e-01 8.947912e-01 8.879260e-01 8.674392e-01 8.651290e-01 8.458513e-01 8.474974e-01 8.289777e-01 8.340993e-01 8.159841e-01 8.242429e-01 8.062373e-01 8.174408e-01 7.992732e-01 8.133729e-01 7.947675e-01 8.118560e-01 7.925133e-01 8.128229e-01 7.924036e-01 8.163099e-01 7.944182e-01 8.224485e-01 7.986113e-01 8.314605e-01 8.050994e-01 8.436524e-01 8.140451e-01 8.594052e-01 8.256377e-01 8.791544e-01 8.400665e-01 9.033527e-01 8.574917e-01 9.324079e-01 8.780184e-01 9.665833e-01 9.016888e-01 1.005855e+00 9.285186e-01 1.049671e+00 9.588278e-01 1.095756e+00 
1.010924e+00 1.135638e+00 1.065301e+00 1.142907e+00 1.144607e+00 1.143300e+00 1.144673e+00 1.148060e+00 1.160902e+00 1.159717e+00 1.184680e+00 1.182860e+00 1.161412e+00 1.147057e+00 1.104568e+00 1.089529e+00 1.043490e+00 1.033567e+00 9.899612e-01 9.862430e-01 9.461360e-01 9.480119e-01 9.110470e-01 9.175518e-01 8.831600e-01 8.934144e-01 8.611102e-01 8.744301e-01 8.438294e-01 8.597338e-01 8.305133e-01 8.487065e-01 8.205657e-01 8.409163e-01 8.135530e-01 8.360762e-01 8.091717e-01 8.340155e-01 8.072261e-01 8.346626e-01 8.076114e-01 8.380326e-01 8.103003e-01 8.442199e-01 8.153296e-01 8.533899e-01 8.227849e-01 8.657695e-01 8.327808e-01 8.816321e-01 8.454365e-01 9.012734e-01 8.608426e-01 9.249743e-01 8.790261e-01 9.529442e-01 8.999184e-01 9.852422e-01 9.233453e-01 1.021670e+00 9.490730e-01 1.061590e+00 9.771653e-01 1.102851e+00 
1.004095e+00 1.133631e+00 1.061820e+00 1.143230e+00 1.145414e+00 1.143647e+00 1.145483e+00 1.143892e+00 1.163133e+00 1.156346e+00 1.213467e+00 1.207850e+00 1.190506e+00 1.159985e+00 1.119223e+00 1.086116e+00 1.046222e+00 1.019452e+00 9.858409e-01 9.667230e-01 9.386818e-01 9.263440e-01 9.021327e-01 8.954519e-01 8.736517e-01 8.717145e-01 8.513654e-01 8.535033e-01 8.339751e-01 8.397229e-01 8.205799e-01 8.296407e-01 8.105455e-01 8.227707e-01 8.034240e-01 8.188037e-01 7.989058e-01 8.175654e-01 7.967901e-01 8.189909e-01 7.969667e-01 8.231101e-01 7.994018e-01 8.300361e-01 8.041253e-01 8.399560e-01 8.112186e-01 8.531196e-01 8.207993e-01 8.698216e-01 8.330040e-01 8.903756e-01 8.479684e-01 9.150728e-01 8.658078e-01 9.441225e-01 8.866030e-01 9.775720e-01 9.103964e-01 1.015206e+00 9.372142e-01 1.056383e+00 9.673473e-01 1.099013e+00 
1.014206e+00 1.134943e+00 1.067651e+00 1.142507e+00 1.144235e+00 1.142887e+00 1.144289e+00 1.145208e+00 1.164621e+00 1.157696e+00 1.274863e+00 1.287298e+00 1.243922e+00 1.211119e+00 1.145548e+00 1.116237e+00 1.060050e+00 1.041770e+00 9.959203e-01 9.870923e-01 9.482111e-01 9.465055e-01 9.119529e-01 9.156387e-01 8.838383e-01 8.917564e-01 8.618142e-01 8.732032e-01 8.445864e-01 8.589584e-01 8.313039e-01 8.483725e-01 8.213832e-01 8.410248e-01 8.144163e-01 8.366488e-01 8.101211e-01 8.350927e-01 8.083139e-01 8.362979e-01 8.088920e-01 8.402854e-01 8.118202e-01 8.471459e-01 8.171183e-01 8.570297e-01 8.248467e-01 8.701331e-01 8.350888e-01 8.866795e-01 8.479310e-01 9.068917e-01 8.634389e-01 9.309524e-01 8.816346e-01 9.589518e-01 9.024802e-01 9.908201e-01 9.258779e-01 1.026251e+00 9.517041e-01 1.064569e+00 9.801112e-01 1.103777e+00 
1.009143e+00 1.133635e+00 1.065076e+00 1.142716e+00 1.144820e+00 1.143115e+00 1.144640e+00 1.137718e+00 1.148193e+00 1.122451e+00 1.351291e+00 1.375740e+00 1.303333e+00 1.244694e+00 1.163340e+00 1.114651e+00 1.057824e+00 1.026188e+00 9.868837e-01 9.673408e-01 9.376037e-01 9.261871e-01 9.014018e-01 8.958744e-01 8.736734e-01 8.728203e-01 8.519873e-01 8.551160e-01 8.349796e-01 8.416779e-01 8.218147e-01 8.318489e-01 8.119387e-01 8.252149e-01 8.049678e-01 8.215193e-01 8.006355e-01 8.206214e-01 7.987662e-01 8.224745e-01 7.992600e-01 8.271124e-01 8.020815e-01 8.346401e-01 8.072492e-01 8.452218e-01 8.148239e-01 8.590682e-01 8.248958e-01 8.764153e-01 8.375692e-01 8.974958e-01 8.529468e-01 9.224974e-01 8.711161e-01 9.515091e-01 8.921394e-01 9.844542e-01 9.160514e-01 1.021017e+00 9.428740e-01 1.060521e+00 9.728734e-01 1.100992e+00 
1.015368e+00 1.134330e+00 1.068616e+00 1.142154e+00 1.143797e+00 1.142530e+00 1.143215e+00 1.130827e+00 1.112223e+00 1.020289e+00 1.480100e+00 1.573364e+00 1.388763e+00 1.293105e+00 1.174068e+00 1.123148e+00 1.055695e+00 1.030475e+00 9.855537e-01 9.739371e-01 9.387863e-01 9.352990e-01 9.046453e-01 9.067475e-01 8.783692e-01 8.847743e-01 8.576805e-01 8.676735e-01 8.413687e-01 8.545304e-01 8.287109e-01 8.448073e-01 8.192305e-01 8.381694e-01 8.125952e-01 8.344104e-01 8.085722e-01 8.334192e-01 8.070077e-01 8.351638e-01 8.078142e-01 8.396812e-01 8.109615e-01 8.470694e-01 8.164661e-01 8.574771e-01 8.243797e-01 8.710896e-01 8.347748e-01 8.881085e-01 8.477278e-01 9.087226e-01 8.633019e-01 9.330684e-01 8.815316e-01 9.611797e-01 9.024133e-01 9.929277e-01 9.259074e-01 1.027958e+00 9.519627e-01 1.065580e+00 9.807859e-01 1.103869e+00 
1.011677e+00 1.133605e+00 1.066825e+00 1.142347e+00 1.144442e+00 1.142740e+00 1.143133e+00 1.096988e+00 1.039341e+00 8.269661e-01 1.254546e+00 1.675938e+00 1.472841e+00 1.324305e+00 1.170585e+00 1.100017e+00 1.033982e+00 1.002903e+00 9.660772e-01 9.502667e-01 9.234292e-01 9.152587e-01 8.921991e-01 8.890977e-01 8.676504e-01 8.686198e-01 8.479251e-01 8.524944e-01 8.321343e-01 8.400482e-01 8.197530e-01 8.308815e-01 8.104191e-01 8.247365e-01 8.038647e-01 8.214506e-01 7.998928e-01 8.209385e-01 7.983682e-01 8.231845e-01 7.992124e-01 8.282375e-01 8.023988e-01 8.362044e-01 8.079457e-01 8.472415e-01 8.159069e-01 8.615405e-01 8.263601e-01 8.793080e-01 8.393937e-01 9.007360e-01 8.550925e-01 9.259623e-01 8.735266e-01 9.550190e-01 8.947442e-01 9.877730e-01 9.187711e-01 1.023863e+00 9.456276e-01 1.062589e+00 9.755854e-01 1.102009e+00 