# vtk DataFile Version 2.0
Comment goes here
ASCII

DATASET STRUCTURED_POINTS
DIMENSIONS    64   64   1

ORIGIN    0.000   0.000   0.000
SPACING   0.0156250.015625   1.000

POINT_DATA   4096
SCALARS uY double
LOOKUP_TABLE default

5.282686e-01 1.502437e+00 -1.538301e+00 -1.724976e+00 -2.561862e-01 6.799167e-01 7.316607e-01 -6.663123e-02 1.886841e+00 8.759251e-01 5.477539e-01 9.226041e-01 -3.774607e-01 1.177448e+00 -8.249500e-02 4.562896e-01 9.613794e-02 1.938965e-01 1.672440e-01 3.756459e-02 2.017701e-01 -2.800150e-02 1.768170e-01 -1.774884e-02 1.089677e-01 2.490774e-02 3.885209e-02 6.073868e-02 -7.455142e-03 7.832679e-02 -2.756223e-02 7.687270e-02 -3.064804e-02 6.762132e-02 -2.721622e-02 5.546680e-02 -2.188193e-02 4.304436e-02 -1.596259e-02 3.197688e-02 -9.389120e-03 1.717150e-02 2.988009e-03 -1.076313e-04 1.740529e-02 -1.298709e-02 2.527159e-02 -1.829828e-02 2.813714e-02 -1.868843e-02 3.096311e-02 -2.113783e-02 3.556481e-02 -3.145344e-02 4.213552e-02 -7.199327e-02 3.440962e-02 -2.156518e-01 -1.419702e-01 -5.128234e-01 -1.241120e+00 2.546309e-01 1.277441e+00 -2.625303e+00 
-2.540273e+00 1.033180e+00 -1.131454e+00 1.636552e+00 1.236098e+00 1.763494e+00 2.263303e-02 2.278164e+00 -4.109845e-01 -3.307935e-02 2.531602e+00 -4.409107e-01 3.418606e-01 3.121712e-01 2.403630e-01 1.461435e-01 2.890315e-01 1.377247e-02 3.331293e-01 -1.094082e-01 3.467074e-01 -1.412257e-01 2.888744e-01 -8.095846e-02 1.767314e-01 4.514025e-03 6.853635e-02 6.106948e-02 -2.382832e-04 8.678598e-02 -2.690536e-02 8.141441e-02 -2.685024e-02 6.565137e-02 -1.993859e-02 4.567360e-02 -1.287207e-02 2.527271e-02 -8.300405e-03 9.840189e-03 -7.910294e-03 -1.236560e-02 1.305304e-03 -4.159629e-02 1.381815e-02 -6.573179e-02 1.145203e-02 -7.996017e-02 -3.397806e-03 -9.000517e-02 -2.391496e-02 -1.098839e-01 -4.957114e-02 -1.482420e-01 -7.047795e-02 -2.235752e-01 -5.734206e-02 -3.026686e-01 -2.812716e-02 -5.703263e-01 -1.614127e+00 -2.117085e-01 1.031573e+00 -3.360009e+00 
1.299114e+00 -4.870898e-01 -1.248874e+00 -2.538655e+00 2.249346e+00 2.557016e-01 -3.581990e-01 1.657491e-01 2.288197e-01 2.048931e-01 -1.512888e+00 5.528815e-01 -6.397063e-01 3.826507e-01 -4.623748e-01 1.760770e-01 -1.635169e-01 -7.282785e-02 6.891926e-02 -2.320895e-01 1.826408e-01 -2.626113e-01 1.560414e-01 -1.647607e-01 4.791496e-02 -3.584459e-02 -4.669245e-02 4.110016e-02 -9.048985e-02 7.426186e-02 -9.166078e-02 6.535848e-02 -7.156661e-02 5.417365e-02 -5.281015e-02 4.344438e-02 -3.601707e-02 3.207632e-02 -2.053653e-02 2.971576e-02 -1.147131e-02 1.502230e-02 1.620331e-02 -1.003764e-02 5.293344e-02 -2.247194e-02 6.803687e-02 -1.316255e-02 7.196078e-02 1.275320e-02 8.315909e-02 4.099168e-02 1.070903e-01 8.653727e-02 1.630753e-01 1.765397e-01 3.337915e-01 2.716129e-01 1.011483e+00 7.825899e-01 2.294812e+00 1.625035e+00 -1.427558e+00 -5.857721e-02 
-1.247481e+00 -1.528443e+00 3.392114e+00 5.677014e+00 1.380331e+00 1.211241e-01 -2.505320e-01 -8.387103e-01 -5.334794e-01 5.075684e-01 -2.577435e-01 2.014852e-01 -3.069245e-01 2.098216e-01 -1.808108e-01 5.394109e-02 4.491774e-02 -1.521710e-01 2.518583e-01 -2.727723e-01 3.193160e-01 -2.559082e-01 2.405435e-01 -1.389995e-01 1.055764e-01 -1.350255e-02 -3.891416e-03 6.802956e-02 -6.706309e-02 1.061604e-01 -8.551366e-02 9.625480e-02 -6.405741e-02 5.765739e-02 -2.485589e-02 1.660660e-02 1.299124e-03 -3.302049e-03 6.750909e-03 -5.495719e-03 7.175950e-03 -2.155417e-02 2.667341e-02 -4.845342e-02 4.356580e-02 -6.646445e-02 4.393307e-02 -7.368634e-02 2.693600e-02 -7.187827e-02 -2.208141e-03 -7.371986e-02 -4.972038e-02 -8.439510e-02 -1.415489e-01 -1.306622e-01 -3.311679e-01 -2.984244e-01 -2.973764e-01 -6.658686e-01 -8.747253e-01 1.411016e+00 -2.708617e-01 -2.240226e+00 
3.806872e+00 2.728638e+00 -1.893454e+00 -1.121985e+00 1.132783e-01 -4.890460e+00 1.535652e+00 1.343923e+00 -9.129082e-02 2.864436e-01 -1.665410e-01 8.479823e-01 -5.371340e-01 6.205750e-01 -3.180143e-01 3.162242e-01 -1.042528e-01 7.307696e-02 3.094325e-02 -5.700894e-02 6.083523e-02 -6.267664e-02 3.335538e-02 -3.420689e-02 9.500299e-05 -6.163610e-03 -3.860097e-02 4.072296e-02 -8.482824e-02 8.155705e-02 -1.141411e-01 9.747876e-02 -9.833340e-02 5.977579e-02 -4.395550e-02 1.073931e-02 -3.171371e-03 -8.759438e-03 5.721563e-03 -1.261430e-02 1.217505e-02 -1.397997e-02 1.946984e-02 -1.120109e-02 1.360168e-02 -4.082385e-03 2.030266e-02 1.322397e-03 2.891320e-02 1.094872e-02 3.546100e-02 3.388379e-02 5.783725e-02 6.685206e-02 1.222317e-01 1.278141e-01 3.058642e-01 2.938617e-01 6.330080e-02 -1.065334e-01 3.355291e-01 -7.160972e-01 -9.067414e-01 1.194987e+00 
2.207239e+00 -1.318931e-01 -2.181018e-01 5.003585e+00 2.412928e+00 6.612861e-01 -1.358069e+00 -1.278743e+00 2.546392e-01 -1.500214e-01 -4.577574e-01 -7.673705e-01 3.851643e-02 -1.391800e-01 -1.420282e-01 -5.427138e-02 -3.982184e-02 -5.532418e-02 5.580180e-02 -6.764482e-02 8.667714e-02 -5.096308e-02 7.885961e-02 -3.009299e-02 6.282424e-02 -5.101190e-03 3.196492e-02 3.760521e-02 -9.378802e-03 7.142725e-02 -4.105431e-02 8.578418e-02 -4.162266e-02 6.016266e-02 -9.976802e-03 2.314323e-02 1.756094e-02 2.992152e-03 2.557517e-02 -1.008572e-02 3.124301e-02 -1.778739e-02 2.969536e-02 -1.859967e-02 1.745318e-02 -1.898656e-02 1.558914e-02 -2.435402e-02 1.373816e-02 -2.997267e-02 -6.434383e-04 -2.993707e-02 -2.936402e-02 -3.622658e-02 -9.268848e-02 -4.699262e-02 -2.756054e-01 -1.049542e-02 -6.681617e-01 -5.059254e-01 -5.875539e-01 -6.854015e-01 -5.074478e-01 -2.385727e-01 
1.956478e+00 2.278333e+00 5.873826e+00 4.330187e+00 1.574323e+00 -3.374906e+00 -8.521528e-01 -5.846029e-01 -1.198563e+00 -1.670734e-01 -9.040387e-01 -5.559211e-01 -3.728739e-01 -2.107819e-01 -4.218816e-01 -1.177669e-01 -2.699196e-01 -1.313206e-01 -1.483009e-01 -1.453897e-01 -8.226989e-02 -1.271349e-01 -5.747348e-02 -9.149045e-02 -5.384567e-02 -5.131342e-02 -6.435947e-02 -6.960791e-03 -8.231735e-02 2.936984e-02 -9.176552e-02 4.550752e-02 -7.829547e-02 3.493394e-02 -4.551911e-02 1.475513e-02 -1.425071e-02 2.793989e-03 3.688196e-03 2.859896e-04 1.398938e-02 4.030467e-03 2.014728e-02 1.292610e-02 2.193180e-02 2.739993e-02 2.597189e-02 4.837548e-02 2.943205e-02 8.133207e-02 2.971755e-02 1.351329e-01 3.013210e-02 2.143063e-01 3.928607e-02 3.089059e-01 7.074067e-02 3.513993e-01 -2.030537e-02 3.611670e-01 -7.514436e-01 -1.610541e+00 -1.979107e+00 8.509993e-02 
2.468671e+00 3.604919e+00 3.185017e+00 4.368103e+00 -1.454907e-02 -9.108605e-03 -4.027703e+00 -2.064927e+00 -7.494135e-01 -2.414137e+00 -1.924428e-01 -1.093406e+00 -5.841744e-01 -5.963559e-01 -3.894481e-01 -3.521971e-01 -2.374106e-01 -2.393816e-01 -1.218552e-01 -1.749128e-01 -5.295665e-02 -1.253280e-01 -2.008791e-02 -8.398302e-02 -7.918440e-03 -4.625577e-02 -1.035950e-02 -8.957126e-03 -2.051395e-02 1.978345e-02 -2.789721e-02 3.377396e-02 -2.284815e-02 2.936702e-02 -4.887590e-03 1.682447e-02 1.419268e-02 7.096187e-03 2.723408e-02 9.903215e-04 3.665907e-02 -1.230109e-03 4.211593e-02 7.645964e-04 4.427730e-02 5.436149e-03 4.861038e-02 1.234746e-02 5.300793e-02 2.533015e-02 5.349409e-02 5.168889e-02 4.800794e-02 1.015860e-01 3.247873e-02 1.869220e-01 2.601966e-02 2.489885e-01 1.751803e-01 6.220929e-02 5.287797e-01 7.310787e-02 6.017513e-01 -9.701574e-02 
1.893422e+00 1.630813e+00 3.446239e+00 -4.822195e-01 -1.096477e-01 -6.638900e-02 1.184025e+00 -7.325128e-01 -8.996375e-01 -6.801145e-01 -1.668279e+00 -1.208127e+00 -8.221038e-01 -7.206904e-01 -5.522692e-01 -4.617618e-01 -3.975800e-01 -3.349877e-01 -2.752013e-01 -2.597753e-01 -1.900403e-01 -1.997081e-01 -1.379498e-01 -1.455444e-01 -1.086578e-01 -9.622430e-02 -9.409137e-02 -5.195945e-02 -8.694858e-02 -1.735683e-02 -7.856250e-02 2.873415e-03 -6.223694e-02 8.338837e-03 -3.856703e-02 6.461928e-03 -1.474993e-02 5.436415e-03 3.878677e-03 8.438112e-03 1.759467e-02 1.604044e-02 2.763589e-02 2.885147e-02 3.463250e-02 4.839132e-02 3.985072e-02 7.758091e-02 4.149232e-02 1.221452e-01 3.651164e-02 1.906164e-01 2.255146e-02 2.921624e-01 3.131676e-05 4.302144e-01 -1.475195e-02 5.635298e-01 2.004573e-02 5.283607e-01 1.754943e-01 2.716828e-01 8.088497e-01 2.416472e+00 
2.017571e+00 2.460391e+00 2.568564e+00 1.166759e+00 -2.813886e-02 2.078936e-02 -3.092487e+00 -1.316601e+00 2.965502e-01 -1.754219e+00 -7.218505e-01 -1.060357e+00 -7.170955e-01 -7.396782e-01 -5.263827e-01 -5.256779e-01 -3.752967e-01 -3.788769e-01 -2.502499e-01 -2.741860e-01 -1.597787e-01 -1.965728e-01 -1.015302e-01 -1.369725e-01 -6.663855e-02 -8.889750e-02 -4.739091e-02 -4.909491e-02 -3.687979e-02 -1.901006e-02 -2.836802e-02 -4.325714e-04 -1.655450e-02 6.904335e-03 -2.923828e-04 7.745294e-03 1.695553e-02 7.339622e-03 3.229788e-02 8.010735e-03 4.568714e-02 1.103255e-02 5.738665e-02 1.728830e-02 6.836775e-02 2.731395e-02 8.058385e-02 4.266947e-02 9.399864e-02 6.763083e-02 1.077189e-01 1.105283e-01 1.217727e-01 1.869057e-01 1.395753e-01 3.271491e-01 1.807265e-01 5.794190e-01 3.028416e-01 9.733041e-01 4.163959e-01 1.532004e+00 5.229709e-01 5.294323e-01 
1.152458e+00 1.006644e+00 4.185453e+00 1.614768e-01 -3.070539e-02 -1.716801e-02 1.217524e+00 1.472492e+00 -1.661242e-01 -1.279154e+00 -1.467925e+00 -1.522447e+00 -8.643017e-01 -9.049488e-01 -6.182553e-01 -6.494111e-01 -4.816333e-01 -4.740198e-01 -3.563055e-01 -3.517664e-01 -2.601947e-01 -2.620504e-01 -1.922617e-01 -1.913920e-01 -1.460593e-01 -1.336381e-01 -1.149224e-01 -8.637995e-02 -9.264380e-02 -4.995172e-02 -7.345034e-02 -2.507385e-02 -5.326163e-02 -1.051152e-02 -3.134964e-02 -2.206711e-03 -9.869854e-03 4.386058e-03 9.069101e-03 1.218911e-02 2.510159e-02 2.284619e-02 3.866275e-02 3.771642e-02 5.020840e-02 5.853840e-02 6.002496e-02 8.786629e-02 6.723077e-02 1.295279e-01 6.991420e-02 1.888540e-01 6.465943e-02 2.742072e-01 4.292377e-02 4.074604e-01 -1.718996e-02 6.588662e-01 -1.172061e-01 1.042171e+00 2.498428e-02 1.104919e+00 2.864257e-01 4.809951e-01 
2.035679e+00 -8.758556e-01 2.253020e+00 2.491121e+00 3.104628e-02 -2.264994e-02 -1.326300e-01 -6.491266e-01 -1.696781e+00 -1.904630e+00 -8.672527e-01 -5.023393e-01 -4.546948e-01 -6.519008e-01 -5.760178e-01 -6.117814e-01 -4.688774e-01 -4.705072e-01 -3.365208e-01 -3.466839e-01 -2.335584e-01 -2.526904e-01 -1.608571e-01 -1.810298e-01 -1.109171e-01 -1.250352e-01 -7.680950e-02 -8.091543e-02 -5.264218e-02 -4.742241e-02 -3.340154e-02 -2.397060e-02 -1.536470e-02 -9.158813e-03 3.081046e-03 -7.860443e-05 2.150804e-02 6.434555e-03 3.919640e-02 1.261559e-02 5.621653e-02 2.005980e-02 7.309526e-02 3.006481e-02 9.080934e-02 4.393431e-02 1.106428e-01 6.366269e-02 1.334302e-01 9.266645e-02 1.599522e-01 1.360866e-01 1.922766e-01 2.005970e-01 2.361919e-01 2.975843e-01 2.943903e-01 5.064225e-01 2.443498e-01 1.329485e+00 -2.578472e-01 2.131511e+00 4.003166e-01 9.355727e-01 
2.704080e+00 -1.545374e+00 2.565337e+00 2.421864e+00 3.919731e-02 -5.931882e-03 5.860512e-01 1.223968e-01 -2.750631e-01 3.412323e-01 7.497223e-02 -8.299043e-01 -8.226992e-01 -9.857840e-01 -7.491324e-01 -7.661964e-01 -5.543933e-01 -5.528082e-01 -4.018969e-01 -4.029483e-01 -2.948831e-01 -2.979587e-01 -2.191639e-01 -2.192152e-01 -1.646265e-01 -1.573656e-01 -1.246536e-01 -1.082695e-01 -9.410969e-02 -7.026097e-02 -6.875631e-02 -4.230916e-02 -4.559838e-02 -2.272169e-02 -2.336807e-02 -8.783502e-03 -2.234557e-03 2.450026e-03 1.731390e-02 1.333150e-02 3.527576e-02 2.556809e-02 5.207612e-02 4.054984e-02 6.831254e-02 5.964603e-02 8.460325e-02 8.434118e-02 1.013853e-01 1.161640e-01 1.190718e-01 1.562618e-01 1.382169e-01 2.047476e-01 1.591217e-01 2.613471e-01 1.748528e-01 3.519182e-01 5.742950e-02 8.628187e-01 -8.295629e-01 2.031237e+00 -1.061759e-01 1.109954e-01 
3.636726e+00 -1.331097e-01 5.473779e-01 2.656426e+00 1.911797e-02 2.613426e-03 -2.238730e-01 -3.486046e-01 -9.416538e-02 -6.183997e-01 -1.242562e+00 -1.291885e+00 -8.982817e-01 -6.982168e-01 -5.015272e-01 -5.569042e-01 -4.577275e-01 -4.912758e-01 -3.736263e-01 -3.859490e-01 -2.779840e-01 -2.897881e-01 -2.002787e-01 -2.125331e-01 -1.416686e-01 -1.515433e-01 -9.801290e-02 -1.037039e-01 -6.487156e-02 -6.692102e-02 -3.831698e-02 -3.957901e-02 -1.530185e-02 -1.987478e-02 6.041870e-03 -5.554171e-03 2.651407e-02 5.695855e-03 4.651957e-02 1.582142e-02 6.661666e-02 2.641049e-02 8.762819e-02 3.884664e-02 1.106863e-01 5.451252e-02 1.371951e-01 7.506664e-02 1.687187e-01 1.025674e-01 2.072605e-01 1.390182e-01 2.557266e-01 1.850628e-01 3.159101e-01 2.426933e-01 3.630797e-01 3.631063e-01 2.178576e-01 8.243186e-01 -5.019834e-01 1.878126e+00 -1.817650e-01 3.455995e-01 
3.560068e+00 2.899432e-01 1.315854e-01 2.103729e+00 1.396656e-02 -9.636891e-04 2.143702e-01 3.142947e-02 -9.682905e-02 -2.518979e-01 -2.805057e-01 -3.804578e-01 -2.790488e-01 -5.188338e-01 -4.547395e-01 -5.677327e-01 -4.468564e-01 -4.862313e-01 -3.652868e-01 -3.841690e-01 -2.836548e-01 -2.957169e-01 -2.166433e-01 -2.232740e-01 -1.637079e-01 -1.643321e-01 -1.220692e-01 -1.168101e-01 -8.873406e-02 -7.927909e-02 -6.091768e-02 -5.046365e-02 -3.642474e-02 -2.878315e-02 -1.391216e-02 -1.225013e-02 7.222233e-03 1.215544e-03 2.729197e-02 1.342731e-02 4.672505e-02 2.582186e-02 6.618708e-02 3.952452e-02 8.657715e-02 5.542133e-02 1.090409e-01 7.412659e-02 1.350346e-01 9.577000e-02 1.665071e-01 1.194967e-01 2.059104e-01 1.425745e-01 2.544961e-01 1.608092e-01 2.965013e-01 1.949238e-01 2.098481e-01 4.364041e-01 -2.674219e-01 1.169314e+00 -1.535996e-01 -2.016976e-01 
1.626129e+00 1.146732e+00 -1.442288e-02 2.470550e+00 2.348969e-02 -2.087887e-03 -4.266598e-02 -1.937078e-01 -2.343428e-01 -3.502227e-01 -3.271153e-01 -5.334856e-01 -6.904040e-01 -8.250000e-01 -7.596271e-01 -7.565970e-01 -6.121101e-01 -5.867800e-01 -4.477162e-01 -4.336532e-01 -3.207766e-01 -3.190777e-01 -2.292407e-01 -2.336166e-01 -1.619521e-01 -1.681414e-01 -1.112954e-01 -1.174095e-01 -7.219564e-02 -7.825476e-02 -4.084703e-02 -4.837805e-02 -1.435126e-02 -2.573547e-02 9.347675e-03 -8.309035e-03 3.161283e-02 5.819045e-03 5.344638e-02 1.833125e-02 7.580808e-02 3.065923e-02 9.979566e-02 4.404114e-02 1.267631e-01 5.959415e-02 1.584253e-01 7.833706e-02 1.970534e-01 1.009636e-01 2.460576e-01 1.269120e-01 3.113866e-01 1.519473e-01 4.032134e-01 1.676233e-01 5.201873e-01 2.033210e-01 5.402239e-01 4.745039e-01 2.305782e-01 1.072964e+00 3.265753e-01 7.019993e-02 
1.384509e+00 8.752693e-01 -4.941635e-02 1.985124e+00 1.846170e-02 -8.670354e-04 1.024948e-01 -3.963986e-02 -5.943706e-02 -2.106184e-01 -2.610713e-01 -4.091981e-01 -3.000853e-01 -3.809911e-01 -2.674719e-01 -3.828739e-01 -3.055249e-01 -3.845234e-01 -2.941714e-01 -3.344418e-01 -2.461661e-01 -2.694514e-01 -1.937848e-01 -2.086578e-01 -1.474213e-01 -1.564634e-01 -1.085530e-01 -1.132045e-01 -7.619107e-02 -7.825969e-02 -4.873295e-02 -5.065466e-02 -2.462997e-02 -2.913203e-02 -2.673460e-03 -1.221790e-02 1.799174e-02 1.599212e-03 3.804647e-02 1.367504e-02 5.820803e-02 2.510256e-02 7.936759e-02 3.667611e-02 1.026845e-01 4.885092e-02 1.297117e-01 6.161446e-02 1.626396e-01 7.414822e-02 2.048646e-01 8.391890e-02 2.625283e-01 8.395946e-02 3.484835e-01 5.787055e-02 4.793826e-01 8.086878e-03 5.801989e-01 1.438431e-01 3.500783e-01 6.972885e-01 2.666598e-01 5.520585e-02 
7.568190e-01 1.263542e+00 -1.492316e-01 1.920402e+00 1.504021e-02 -1.200631e-03 -1.007093e-02 -1.351103e-01 -1.567431e-01 -2.863318e-01 -2.737548e-01 -3.560417e-01 -3.911612e-01 -5.413553e-01 -5.945026e-01 -6.777765e-01 -6.136013e-01 -6.024141e-01 -4.839641e-01 -4.573170e-01 -3.483305e-01 -3.342578e-01 -2.460801e-01 -2.426378e-01 -1.717115e-01 -1.740642e-01 -1.162990e-01 -1.218237e-01 -7.371784e-02 -8.170869e-02 -3.977479e-02 -5.084322e-02 -1.143678e-02 -2.697952e-02 1.351951e-02 -8.188269e-03 3.673996e-02 7.222639e-03 5.953663e-02 2.070395e-02 8.311726e-02 3.346507e-02 1.087669e-01 4.647841e-02 1.380084e-01 6.044632e-02 1.728013e-01 7.563744e-02 2.159146e-01 9.135676e-02 2.718003e-01 1.044754e-01 3.485613e-01 1.062152e-01 4.598165e-01 8.284062e-02 6.056010e-01 6.895386e-02 6.663114e-01 2.991033e-01 3.924359e-01 8.612804e-01 2.366205e-01 5.979698e-01 
6.817021e-01 9.092513e-01 -8.363437e-02 1.505308e+00 1.119998e-02 -9.078545e-04 6.647634e-02 -4.852892e-02 -4.642453e-02 -1.863931e-01 -1.683923e-01 -2.781120e-01 -2.247800e-01 -3.278757e-01 -2.533603e-01 -3.428772e-01 -2.627294e-01 -3.304071e-01 -2.448887e-01 -2.880964e-01 -2.052591e-01 -2.342084e-01 -1.613031e-01 -1.825358e-01 -1.211941e-01 -1.374607e-01 -8.672366e-02 -9.967551e-02 -5.746132e-02 -6.878192e-02 -3.231673e-02 -4.399598e-02 -1.010314e-02 -2.432790e-02 1.024165e-02 -8.675004e-03 2.961774e-02 4.064223e-03 4.884184e-02 1.487077e-02 6.876960e-02 2.451238e-02 9.041446e-02 3.346918e-02 1.150707e-01 4.183153e-02 1.444912e-01 4.908634e-02 1.812257e-01 5.360608e-02 2.293919e-01 5.133290e-02 2.965259e-01 3.276947e-02 3.962916e-01 -1.698086e-02 5.358349e-01 -6.931675e-02 6.209506e-01 9.616681e-02 3.935901e-01 6.033478e-01 2.389146e-01 4.605786e-01 
3.521948e-01 1.135961e+00 -1.093185e-01 1.491848e+00 1.121244e-02 -9.674514e-04 -1.132943e-03 -1.053304e-01 -1.195458e-01 -2.304053e-01 -2.264177e-01 -2.987331e-01 -3.050969e-01 -4.118534e-01 -4.482927e-01 -5.356809e-01 -5.120007e-01 -5.268417e-01 -4.455697e-01 -4.279613e-01 -3.370322e-01 -3.209861e-01 -2.411795e-01 -2.338652e-01 -1.673519e-01 -1.671127e-01 -1.114853e-01 -1.162331e-01 -6.848820e-02 -7.725287e-02 -3.432082e-02 -4.718790e-02 -5.956468e-03 -2.375694e-02 1.887256e-02 -5.133936e-03 4.190764e-02 1.018169e-02 6.457649e-02 2.341650e-02 8.818458e-02 3.553519e-02 1.140839e-01 4.721595e-02 1.438412e-01 5.875420e-02 1.794575e-01 6.980631e-02 2.237442e-01 7.878128e-02 2.810399e-01 8.158252e-02 3.582480e-01 7.033099e-02 4.630864e-01 4.165174e-02 5.808575e-01 5.283157e-02 5.991344e-01 3.005543e-01 3.408302e-01 7.795167e-01 1.729480e-01 7.933773e-01 
3.394057e-01 8.258427e-01 -4.301027e-02 1.167752e+00 8.741263e-03 -8.902559e-04 5.252650e-02 -4.829544e-02 -3.350990e-02 -1.606302e-01 -1.266687e-01 -2.143939e-01 -1.650294e-01 -2.634346e-01 -2.194407e-01 -3.042497e-01 -2.358023e-01 -2.899866e-01 -2.071589e-01 -2.439520e-01 -1.641813e-01 -1.934164e-01 -1.232621e-01 -1.481662e-01 -8.815256e-02 -1.098711e-01 -5.866473e-02 -7.818183e-02 -3.377225e-02 -5.236115e-02 -1.232552e-02 -3.159568e-02 6.761590e-03 -1.504462e-02 2.445790e-02 -1.864574e-03 4.162958e-02 8.740194e-03 5.910301e-02 1.744903e-02 7.775360e-02 2.475168e-02 9.860590e-02 3.086453e-02 1.229537e-01 3.560266e-02 1.525382e-01 3.813466e-02 1.898708e-01 3.646992e-02 2.388797e-01 2.644115e-02 3.060414e-01 7.219243e-04 4.000175e-01 -4.402583e-02 5.140449e-01 -5.924188e-02 5.537135e-01 1.288522e-01 3.393152e-01 5.376713e-01 1.855988e-01 5.713458e-01 
1.610594e-01 9.809191e-01 -6.395354e-02 1.187249e+00 9.084524e-03 -8.267339e-04 -8.365785e-04 -8.806356e-02 -9.948015e-02 -1.976086e-01 -1.959129e-01 -2.602517e-01 -2.604423e-01 -3.414977e-01 -3.626943e-01 -4.330786e-01 -4.175223e-01 -4.368716e-01 -3.772631e-01 -3.669179e-01 -2.941372e-01 -2.807152e-01 -2.129779e-01 -2.055438e-01 -1.469763e-01 -1.460773e-01 -9.573826e-02 -1.002214e-01 -5.588813e-02 -6.495200e-02 -2.409430e-02 -3.765632e-02 2.346246e-03 -1.627513e-02 2.553248e-02 8.027050e-04 4.711755e-02 1.484724e-02 6.848134e-02 2.684806e-02 9.088905e-02 3.752863e-02 1.156350e-01 4.731167e-02 1.441876e-01 5.621318e-02 1.783654e-01 6.361643e-02 2.205897e-01 6.786418e-02 2.742223e-01 6.577120e-02 3.435891e-01 5.357304e-02 4.305826e-01 3.794474e-02 5.145263e-01 7.834783e-02 5.006953e-01 3.142008e-01 2.712235e-01 6.949988e-01 1.108204e-01 7.905637e-01 
1.835324e-01 7.132393e-01 -1.825650e-02 9.199776e-01 6.956682e-03 -8.741882e-04 4.415533e-02 -4.715352e-02 -2.721039e-02 -1.454704e-01 -1.098961e-01 -1.915815e-01 -1.464164e-01 -2.274280e-01 -1.872820e-01 -2.589120e-01 -1.974458e-01 -2.411184e-01 -1.629508e-01 -1.930410e-01 -1.173983e-01 -1.450833e-01 -7.898497e-02 -1.059490e-01 -4.912944e-02 -7.487860e-02 -2.551754e-02 -5.008853e-02 -6.137710e-03 -3.027470e-02 1.045747e-02 -1.450234e-02 2.536259e-02 -2.026300e-03 3.946783e-02 7.794126e-03 5.355562e-02 1.550945e-02 6.838117e-02 2.155273e-02 8.475176e-02 2.618843e-02 1.036111e-01 2.943782e-02 1.261409e-01 3.096253e-02 1.539044e-01 2.986781e-02 1.890801e-01 2.437895e-02 2.348421e-01 1.147416e-02 2.957030e-01 -1.232390e-02 3.754131e-01 -4.197541e-02 4.597074e-01 -2.805977e-02 4.642116e-01 1.526582e-01 2.728413e-01 4.691934e-01 1.355301e-01 5.495444e-01 
7.659482e-02 8.309783e-01 -3.995920e-02 9.527886e-01 7.325154e-03 -7.369089e-04 -4.270659e-03 -7.718814e-02 -8.844096e-02 -1.805691e-01 -1.834209e-01 -2.476464e-01 -2.526332e-01 -3.073382e-01 -3.102021e-01 -3.553252e-01 -3.353613e-01 -3.475889e-01 -2.982615e-01 -2.896720e-01 -2.310994e-01 -2.205295e-01 -1.656573e-01 -1.600734e-01 -1.118336e-01 -1.118687e-01 -6.949488e-02 -7.440911e-02 -3.616211e-02 -4.539632e-02 -9.265848e-03 -2.278202e-02 1.335189e-02 -4.935446e-03 3.341277e-02 9.406762e-03 5.230814e-02 2.121787e-02 7.122722e-02 3.122935e-02 9.127625e-02 3.994007e-02 1.135852e-01 4.758489e-02 1.394095e-01 5.405754e-02 1.702358e-01 5.878520e-02 2.078884e-01 6.059623e-02 2.545722e-01 5.785042e-02 3.124265e-01 5.023932e-02 3.801071e-01 4.834931e-02 4.363753e-01 1.026978e-01 4.034654e-01 3.087079e-01 2.064970e-01 6.051337e-01 6.703464e-02 7.085386e-01 
1.118854e-01 5.943232e-01 -7.044026e-03 7.248166e-01 5.495637e-03 -8.431764e-04 3.603898e-02 -4.456195e-02 -2.292886e-02 -1.421250e-01 -1.087807e-01 -2.019467e-01 -1.775925e-01 -2.306730e-01 -1.707265e-01 -2.143015e-01 -1.461948e-01 -1.771787e-01 -1.023566e-01 -1.276768e-01 -5.823787e-02 -8.550422e-02 -2.591898e-02 -5.502461e-02 -3.824348e-03 -3.300021e-02 1.210151e-02 -1.644405e-02 2.458378e-02 -3.670391e-03 3.521520e-02 6.254353e-03 4.500792e-02 1.391880e-02 5.470481e-02 1.974876e-02 6.493822e-02 2.406741e-02 7.632455e-02 2.709512e-02 8.953614e-02 2.891691e-02 1.053685e-01 2.942667e-02 1.248148e-01 2.824603e-02 1.491609e-01 2.461614e-02 1.801129e-01 1.729308e-02 2.199346e-01 4.650551e-03 2.712889e-01 -1.391001e-02 3.345443e-01 -3.017348e-02 3.927294e-01 -1.931549e-03 3.756542e-01 1.555401e-01 2.135227e-01 3.955655e-01 1.016219e-01 4.755240e-01 
3.737853e-02 6.877884e-01 -2.753704e-02 7.609797e-01 5.864700e-03 -6.414291e-04 -1.012392e-02 -6.411272e-02 -7.619185e-02 -1.746962e-01 -1.813200e-01 -2.710275e-01 -3.160110e-01 -3.269464e-01 -2.821808e-01 -2.846088e-01 -2.471415e-01 -2.469397e-01 -2.036751e-01 -1.957516e-01 -1.506536e-01 -1.437502e-01 -1.029032e-01 -1.006135e-01 -6.468063e-02 -6.682930e-02 -3.460899e-02 -4.051283e-02 -1.054529e-02 -1.987420e-02 9.347361e-03 -3.525490e-03 2.653520e-02 9.584342e-03 4.219759e-02 2.025803e-02 5.732443e-02 2.911145e-02 7.280327e-02 3.660091e-02 8.949278e-02 4.302085e-02 1.082850e-01 4.847838e-02 1.301583e-01 5.285348e-02 1.562169e-01 5.576826e-02 1.876952e-01 5.663718e-02 2.258562e-01 5.503416e-02 2.714456e-01 5.237138e-02 3.217081e-01 5.911599e-02 3.571538e-01 1.148340e-01 3.160838e-01 2.849351e-01 1.533313e-01 5.126096e-01 3.972520e-02 6.018911e-01 
7.631494e-02 4.751892e-01 -9.754395e-04 5.616901e-01 4.271865e-03 -7.322436e-04 2.513960e-02 -3.015390e-02 -6.534737e-03 -1.462883e-01 -1.003742e-01 -2.554781e-01 -3.271144e-01 -3.130541e-01 -1.660816e-01 -1.553356e-01 -6.398339e-02 -8.232656e-02 -1.271596e-02 -3.867820e-02 1.967518e-02 -1.099129e-02 3.806513e-02 5.196057e-03 4.776364e-02 1.499356e-02 5.337087e-02 2.152900e-02 5.738106e-02 2.619184e-02 6.100963e-02 2.955827e-02 6.491929e-02 3.189088e-02 6.956309e-02 3.333233e-02 7.533603e-02 3.396435e-02 8.265297e-02 3.380953e-02 9.200064e-02 3.280640e-02 1.039821e-01 3.077065e-02 1.193613e-01 2.735102e-02 1.391102e-01 2.199784e-02 1.644481e-01 1.399812e-02 1.968199e-01 2.757076e-03 2.375005e-01 -1.087575e-02 2.849609e-01 -1.863321e-02 3.227561e-01 1.266401e-02 2.962397e-01 1.404024e-01 1.660814e-01 3.184748e-01 8.003549e-02 3.850178e-01 
1.701626e-02 5.517185e-01 -2.018516e-02 5.959209e-01 4.611445e-03 -4.170522e-04 -2.062955e-02 -2.919104e-02 -3.974165e-02 -1.714356e-01 -1.395344e-01 -3.462357e-01 -5.954450e-01 -4.849647e-01 -2.523227e-01 -1.721955e-01 -1.073353e-01 -1.031165e-01 -7.547127e-02 -7.587496e-02 -5.047212e-02 -5.102629e-02 -2.763401e-02 -3.050738e-02 -9.117459e-03 -1.428109e-02 5.998753e-03 -1.162308e-03 1.888499e-02 9.679712e-03 3.035765e-02 1.873483e-02 4.101446e-02 2.633219e-02 5.136886e-02 3.273479e-02 6.192007e-02 3.816732e-02 7.318812e-02 4.280903e-02 8.573496e-02 4.677095e-02 1.001801e-01 5.006970e-02 1.172097e-01 5.261129e-02 1.375687e-01 5.421167e-02 1.620138e-01 5.471054e-02 1.911691e-01 5.432616e-02 2.250264e-01 5.490852e-02 2.604999e-01 6.513243e-02 2.811687e-01 1.145307e-01 2.403006e-01 2.481873e-01 1.113764e-01 4.198535e-01 2.231009e-02 4.910404e-01 
5.668415e-02 3.589319e-01 3.367730e-03 4.185819e-01 3.200417e-03 -2.611627e-04 3.370624e-03 2.715027e-02 5.347072e-02 -1.500107e-01 3.617666e-02 -3.508705e-01 -8.758848e-01 -6.401019e-01 -1.082427e-01 5.427586e-03 1.098786e-01 8.269521e-02 1.261115e-01 8.487670e-02 1.203319e-01 7.959241e-02 1.122450e-01 7.317234e-02 1.038787e-01 6.708305e-02 9.654152e-02 6.194851e-02 9.077379e-02 5.771540e-02 8.666826e-02 5.411503e-02 8.420875e-02 5.087745e-02 8.340267e-02 4.778077e-02 8.432583e-02 4.464347e-02 8.714280e-02 4.129814e-02 9.212236e-02 3.755897e-02 9.965302e-02 3.319010e-02 1.102583e-01 2.788471e-02 1.246055e-01 2.127534e-02 1.434886e-01 1.302013e-02 1.677265e-01 3.083049e-03 1.977164e-01 -7.251663e-03 2.312192e-01 -1.107149e-02 2.543523e-01 1.609478e-02 2.273029e-01 1.123502e-01 1.290278e-01 2.395491e-01 6.585494e-02 2.907088e-01 
4.640227e-03 4.227843e-01 -1.537946e-02 4.481135e-01 3.489834e-03 6.329130e-04 -4.892815e-02 7.441641e-02 6.007366e-02 -1.545355e-01 1.460774e-01 -3.475847e-01 -1.442424e+00 -1.162624e+00 -1.878310e-01 1.449726e-01 1.859147e-01 1.363986e-01 1.027041e-01 7.430158e-02 6.596994e-02 5.265970e-02 5.403072e-02 4.455113e-02 4.957911e-02 4.114291e-02 4.842958e-02 4.023323e-02 4.944756e-02 4.085932e-02 5.200546e-02 4.233184e-02 5.568664e-02 4.416721e-02 6.028691e-02 4.607084e-02 6.579469e-02 4.788781e-02 7.235207e-02 4.954365e-02 8.021853e-02 5.099228e-02 8.974306e-02 5.217962e-02 1.013393e-01 5.303182e-02 1.154518e-01 5.348548e-02 1.324924e-01 5.359058e-02 1.527065e-01 5.376298e-02 1.757745e-01 5.561841e-02 1.989610e-01 6.556102e-02 2.096851e-01 1.044762e-01 1.745858e-01 2.031408e-01 7.785896e-02 3.278949e-01 1.029375e-02 3.819847e-01 
4.436074e-02 2.463202e-01 6.833936e-03 2.880417e-01 2.219179e-03 2.330677e-03 -4.790794e-02 1.874837e-01 1.705218e-01 -7.291251e-02 4.227271e-01 5.618224e-02 -1.120653e+00 -1.623086e+00 -7.278028e-01 2.107141e-02 3.214355e-01 3.249946e-01 3.130093e-01 2.379619e-01 2.348116e-01 1.780411e-01 1.894569e-01 1.429369e-01 1.598594e-01 1.192617e-01 1.385754e-01 1.020426e-01 1.227108e-01 8.890527e-02 1.107756e-01 7.845224e-02 1.019021e-01 6.978052e-02 9.557659e-02 6.227356e-02 9.151977e-02 5.548915e-02 8.962833e-02 4.908720e-02 8.994480e-02 4.277819e-02 9.264234e-02 3.628767e-02 9.801500e-02 2.934150e-02 1.064619e-01 2.168560e-02 1.184443e-01 1.316749e-02 1.343659e-01 3.946032e-03 1.541895e-01 -4.822645e-03 1.758139e-01 -8.103384e-03 1.889994e-01 1.069691e-02 1.671422e-01 7.562801e-02 9.945204e-02 1.595374e-01 5.594816e-02 1.962366e-01 
-4.501296e-03 2.997684e-01 -1.228380e-02 3.109219e-01 2.445173e-03 3.358591e-03 -8.535450e-02 2.557876e-01 1.876439e-01 9.286504e-02 5.166521e-01 6.636994e-01 -2.717036e-01 -1.851638e+00 -1.597772e+00 -6.191429e-01 -7.735338e-02 1.836675e-01 2.141208e-01 2.035694e-01 1.701897e-01 1.487315e-01 1.293946e-01 1.148824e-01 1.042422e-01 9.356392e-02 8.819785e-02 7.984789e-02 7.826431e-02 7.111011e-02 7.246206e-02 6.553716e-02 6.942626e-02 6.190843e-02 6.831041e-02 5.945369e-02 6.865769e-02 5.770957e-02 7.028052e-02 5.640316e-02 7.317063e-02 5.536919e-02 7.743688e-02 5.449876e-02 8.325949e-02 5.371893e-02 9.084726e-02 5.300833e-02 1.003815e-01 5.245944e-02 1.119186e-01 5.242177e-02 1.251213e-01 5.399342e-02 1.380342e-01 6.128412e-02 1.422701e-01 8.765953e-02 1.162428e-01 1.530504e-01 4.993248e-02 2.368585e-01 1.096303e-03 2.757153e-01 
3.535062e-02 1.362728e-01 9.657028e-03 1.632288e-01 1.277400e-03 9.187731e-05 3.524184e-02 2.470715e-01 3.040347e-01 1.571682e-01 4.374921e-01 1.142801e+00 3.599960e-01 -1.565508e+00 -1.687535e+00 -1.109176e+00 -3.298628e-01 9.380293e-02 2.797198e-01 2.966244e-01 3.087300e-01 2.556412e-01 2.541571e-01 2.038644e-01 2.088235e-01 1.660971e-01 1.756750e-01 1.385326e-01 1.508687e-01 1.175939e-01 1.318469e-01 1.010609e-01 1.170474e-01 8.751414e-02 1.054994e-01 7.600811e-02 9.660545e-02 6.588998e-02 9.002014e-02 5.668767e-02 8.557945e-02 4.803745e-02 8.325954e-02 3.963868e-02 8.315000e-02 3.123321e-02 8.542798e-02 2.261454e-02 9.031448e-02 1.367936e-02 9.797942e-02 4.554013e-03 1.082834e-01 -4.010426e-03 1.198019e-01 -9.005339e-03 1.264007e-01 -9.640827e-04 1.131031e-01 3.324468e-02 7.464324e-02 7.862373e-02 4.839155e-02 1.021246e-01 
-1.264889e-02 1.804756e-01 -1.013720e-02 1.776615e-01 1.446319e-03 -4.456427e-03 1.141324e-01 9.264927e-02 3.752608e-01 3.954766e-02 6.546967e-02 1.164515e+00 3.164957e-01 -9.702761e-01 -1.340466e+00 -1.309821e+00 -6.339645e-01 -8.331640e-02 1.462838e-01 2.339554e-01 2.308992e-01 2.181430e-01 1.884882e-01 1.720384e-01 1.489063e-01 1.377641e-01 1.214367e-01 1.143088e-01 1.028776e-01 9.820770e-02 9.019242e-02 8.684595e-02 8.130466e-02 7.851048e-02 7.492596e-02 7.213834e-02 7.030018e-02 6.708537e-02 6.700805e-02 6.296506e-02 6.483877e-02 5.954492e-02 6.370867e-02 5.668383e-02 6.360855e-02 5.429959e-02 6.456589e-02 5.236164e-02 6.661057e-02 5.090762e-02 6.972958e-02 5.009374e-02 7.374550e-02 5.040593e-02 7.772967e-02 5.374802e-02 7.760641e-02 6.668044e-02 6.240542e-02 1.000988e-01 2.518436e-02 1.465351e-01 -6.913933e-03 1.717418e-01 