# vtk DataFile Version 2.0
Comment goes here
ASCII

DATASET STRUCTURED_POINTS
DIMENSIONS    64   64   1

ORIGIN    0.000   0.000   0.000
SPACING   0.0156250.015625   1.000

POINT_DATA   4096
SCALARS uY double
LOOKUP_TABLE default

8.162514e-03 -2.918451e-01 -9.135125e-01 -1.324044e+00 1.286861e-01 2.976182e-01 7.570056e-01 7.484481e-01 4.636132e-01 5.314974e-01 2.625993e-01 3.602877e-01 1.303287e-01 2.335588e-01 7.989176e-02 1.539385e-01 5.480339e-02 1.040680e-01 4.194984e-02 7.057627e-02 3.544071e-02 4.683319e-02 3.164091e-02 3.042659e-02 2.863722e-02 2.027715e-02 2.472597e-02 1.381427e-02 1.966065e-02 1.080772e-02 1.360825e-02 1.116969e-02 7.137206e-03 1.245368e-02 8.760523e-04 1.244069e-02 -1.131863e-03 8.204241e-03 8.474028e-04 2.148394e-03 -4.042949e-04 1.482422e-03 -5.241297e-03 1.377741e-03 -8.259454e-03 -3.025081e-03 -1.008631e-02 -5.580165e-03 -1.429005e-02 -1.050078e-02 -1.803193e-02 -1.639949e-02 -2.472721e-02 -2.432001e-02 -3.397725e-02 -3.823884e-02 -4.717592e-02 -6.140874e-02 -6.827247e-02 -1.084271e-01 -1.123179e-01 -1.669365e-01 -1.310148e-01 -1.855173e-01 
-6.513089e-01 -4.197907e-01 7.535543e-03 3.007109e-01 1.823655e-01 8.459453e-01 1.502129e-01 5.530202e-01 6.110714e-01 1.999909e-02 4.500037e-01 1.360412e-01 2.356664e-01 1.193808e-01 1.532792e-01 8.567248e-02 1.068687e-01 5.985516e-02 7.991894e-02 3.973507e-02 6.435112e-02 2.325860e-02 5.426220e-02 1.146177e-02 4.669844e-02 5.472952e-03 3.862618e-02 1.669645e-03 2.974770e-02 7.200121e-04 2.053558e-02 3.661054e-03 1.143043e-02 6.919179e-03 1.704994e-03 8.391166e-03 -1.397454e-03 3.005967e-03 2.284237e-03 -6.244243e-03 -5.017246e-04 -5.048371e-03 -9.630076e-03 -3.417188e-03 -1.471570e-02 -1.120296e-02 -1.758359e-02 -1.353851e-02 -2.604513e-02 -2.125094e-02 -3.288770e-02 -2.965580e-02 -4.635592e-02 -4.007059e-02 -6.534685e-02 -5.912639e-02 -9.306508e-02 -8.901275e-02 -1.376654e-01 -1.631237e-01 -2.568528e-01 -2.844250e-01 -4.203719e-01 -4.764595e-01 
4.084949e-01 3.330475e-01 4.773900e-01 1.359163e-01 6.071141e-01 -1.053273e-01 -3.197437e-01 -3.239930e-01 -3.540294e-01 -4.792882e-02 -2.805515e-01 -1.655582e-02 -1.622064e-01 -1.322670e-03 -1.004627e-01 -5.896528e-05 -6.438293e-02 -2.485402e-03 -3.982518e-02 -7.162288e-03 -2.132109e-02 -1.344343e-02 -8.323358e-03 -1.769422e-02 1.064073e-03 -1.608645e-02 4.774623e-03 -1.525943e-02 4.624717e-03 -1.201342e-02 1.502640e-03 -2.927003e-03 -3.076574e-03 6.087617e-03 -1.166762e-02 1.342551e-02 -9.701735e-03 8.753014e-03 5.420483e-03 -3.851717e-03 8.441352e-03 4.653528e-03 5.631260e-04 1.459622e-02 2.452255e-03 7.209385e-03 1.066601e-02 1.506593e-02 1.038197e-02 1.566263e-02 2.019336e-02 2.093302e-02 2.650129e-02 3.181260e-02 3.837143e-02 4.292949e-02 6.063737e-02 6.875786e-02 1.026406e-01 6.027800e-02 9.523774e-02 7.545551e-02 1.899917e-01 1.667117e-01 
-1.374330e-01 4.091000e-01 6.375787e-01 4.997516e-01 -2.333244e-02 5.297316e-01 2.391357e-01 -1.105257e-01 8.049120e-02 -8.542892e-02 7.991495e-02 -6.661486e-02 4.646133e-02 -2.958267e-02 2.332374e-02 -7.249479e-03 1.063084e-02 2.437446e-03 8.615618e-03 -2.390175e-04 1.406527e-02 -6.843134e-03 1.894484e-02 -1.228311e-02 2.017097e-02 -9.667903e-03 1.512120e-02 -7.477993e-03 1.084678e-02 -3.406397e-03 4.193428e-03 1.930898e-04 3.248127e-03 -1.629652e-03 2.045646e-03 -1.123263e-03 1.728722e-03 -4.688583e-03 7.177072e-03 -1.047965e-02 4.322799e-03 -4.888917e-03 -3.747465e-03 8.818538e-04 -8.531002e-03 -2.218131e-03 -7.234191e-03 -4.694934e-03 -9.025202e-03 -8.142560e-03 -1.207062e-02 -9.842321e-03 -1.902764e-02 -1.358379e-02 -2.905447e-02 -1.904051e-02 -4.720245e-02 -2.887216e-02 -7.597645e-02 -9.827174e-02 -1.464343e-01 -1.367531e-01 -2.361127e-01 -1.559931e-01 
5.798778e-01 4.708245e-01 -1.021850e-01 -5.052563e-01 -3.295945e-01 -1.156067e+00 -1.897728e-02 2.568271e-01 1.243305e-01 1.293531e-01 4.193144e-02 1.193109e-01 -1.018624e-02 8.958635e-02 -3.771965e-02 7.514580e-02 -5.078389e-02 6.425674e-02 -5.019170e-02 4.812959e-02 -3.976442e-02 3.427323e-02 -2.890996e-02 2.384407e-02 -2.401050e-02 2.056848e-02 -2.458094e-02 2.068727e-02 -2.157037e-02 2.138426e-02 -1.892942e-02 1.282962e-02 -6.039925e-03 -3.953150e-03 1.227114e-02 -1.469276e-02 1.537534e-02 -1.217498e-02 5.934783e-03 3.377629e-04 1.613786e-03 -5.778859e-04 6.038352e-03 -2.092427e-03 1.641667e-03 9.810087e-03 -4.754719e-04 9.073613e-04 8.984829e-03 4.200167e-03 5.714430e-03 8.035629e-03 1.018546e-02 8.240004e-03 1.590774e-02 1.936393e-02 2.213392e-02 2.808052e-02 4.601851e-02 6.558548e-02 2.013714e-01 2.205164e-01 3.657596e-01 3.779025e-01 
-6.015850e-01 5.093087e-01 1.708142e+00 1.712834e+00 1.132532e-01 1.259694e-01 -1.138722e-01 -6.555760e-01 -2.165660e-01 -3.469528e-01 -9.673800e-02 -2.143698e-01 -2.834182e-02 -9.507953e-02 -1.014857e-02 -2.880701e-02 -8.174270e-03 2.988173e-03 -8.516417e-03 1.315054e-02 -6.034395e-03 1.506386e-02 -3.164803e-03 1.417465e-02 -3.570373e-03 1.394701e-02 -6.037074e-03 1.532912e-02 -5.868594e-03 1.543135e-02 -4.142304e-03 7.941310e-03 3.982936e-03 -4.421892e-03 1.623645e-02 -1.326069e-02 1.752017e-02 -1.146378e-02 8.110552e-03 -1.516247e-03 3.640432e-03 -3.070372e-03 5.693511e-03 -5.326947e-03 1.493494e-03 2.819953e-03 -2.774460e-03 -3.777538e-03 1.024657e-03 -2.651417e-03 -4.196671e-03 -2.459323e-03 -5.987605e-03 -5.384948e-03 -1.013941e-02 -4.635987e-03 -2.041703e-02 -1.431007e-02 -4.233905e-02 -2.038072e-02 -2.065368e-02 -4.255333e-02 -1.869946e-01 -3.704060e-01 
1.402875e+00 2.163308e+00 2.366316e+00 1.067365e+00 -4.177749e-01 -2.553760e+00 -1.584117e+00 -4.700404e-01 -1.005028e+00 -6.573093e-01 -3.470006e-01 -3.213598e-01 -2.250196e-01 -1.667240e-01 -1.600208e-01 -8.819589e-02 -1.225078e-01 -4.543243e-02 -9.615523e-02 -2.384502e-02 -7.440924e-02 -1.284842e-02 -5.700182e-02 -6.568867e-03 -4.475109e-02 -1.359730e-03 -3.636359e-02 3.043572e-03 -2.838971e-02 5.272946e-03 -1.997819e-02 2.620206e-03 -8.461718e-03 -3.416909e-03 3.701485e-03 -6.979525e-03 9.577515e-03 -4.282888e-03 9.660978e-03 2.693685e-03 1.069245e-02 6.537043e-03 1.470526e-02 1.055002e-02 1.745614e-02 1.832882e-02 2.221985e-02 2.220677e-02 3.193034e-02 3.050107e-02 4.141407e-02 4.254626e-02 5.646378e-02 5.919876e-02 7.806375e-02 8.670394e-02 1.100729e-01 1.271631e-01 1.631638e-01 1.939471e-01 2.479870e-01 2.771181e-01 3.418509e-01 6.782047e-01 
1.364549e+00 1.490153e+00 1.935372e+00 1.413355e+00 -1.275843e-02 -8.971427e-03 -2.635741e+00 -1.755270e+00 -7.909214e-01 -1.293012e+00 -2.980021e-01 -6.043293e-01 -2.118753e-01 -3.110322e-01 -1.367108e-01 -1.734866e-01 -9.260349e-02 -9.984059e-02 -6.585162e-02 -5.910260e-02 -4.757306e-02 -3.570086e-02 -3.454059e-02 -2.150994e-02 -2.577051e-02 -1.205059e-02 -1.964542e-02 -5.400707e-03 -1.393315e-02 -1.785620e-03 -7.761420e-03 -2.241768e-03 1.021174e-04 -5.071333e-03 8.185795e-03 -6.587064e-03 1.210508e-02 -4.040114e-03 1.210521e-02 1.380449e-03 1.289510e-02 4.732255e-03 1.567931e-02 8.254678e-03 1.803949e-02 1.440789e-02 2.174975e-02 1.874632e-02 2.903358e-02 2.635398e-02 3.743302e-02 3.737678e-02 5.091950e-02 5.392312e-02 7.209766e-02 8.267471e-02 1.080104e-01 1.338807e-01 1.776049e-01 2.398343e-01 3.343224e-01 4.786912e-01 6.563179e-01 9.982236e-01 
1.208937e+00 1.961541e+00 9.528348e-01 -3.411191e-01 -4.255676e-02 -3.147737e-02 9.671878e-02 -1.431129e+00 -1.505081e+00 -9.081900e-01 -6.882728e-01 -6.049588e-01 -3.968794e-01 -3.616903e-01 -2.640924e-01 -2.203461e-01 -1.883255e-01 -1.384615e-01 -1.395418e-01 -8.962194e-02 -1.051085e-01 -5.935146e-02 -7.969623e-02 -3.956882e-02 -6.078550e-02 -2.571689e-02 -4.628435e-02 -1.580844e-02 -3.401790e-02 -9.311117e-03 -2.267252e-02 -6.164867e-03 -1.128191e-02 -4.998275e-03 -7.182382e-04 -3.181427e-03 7.058250e-03 1.057047e-03 1.238427e-02 7.273517e-03 1.763764e-02 1.362587e-02 2.410563e-02 2.084694e-02 3.156305e-02 2.999052e-02 4.140663e-02 4.023201e-02 5.508093e-02 5.431300e-02 7.274338e-02 7.403235e-02 9.739461e-02 1.024076e-01 1.325468e-01 1.457565e-01 1.847439e-01 2.149040e-01 2.674890e-01 3.364330e-01 4.085192e-01 5.767516e-01 6.753224e-01 1.147116e+00 
1.071588e+00 1.301798e+00 1.175116e+00 8.525464e-01 -9.301418e-04 -7.309927e-03 -1.717716e+00 -1.325345e+00 -6.845145e-01 -8.732220e-01 -4.761004e-01 -6.120182e-01 -3.281655e-01 -4.036769e-01 -2.273555e-01 -2.623479e-01 -1.604189e-01 -1.722284e-01 -1.155097e-01 -1.148399e-01 -8.426673e-02 -7.756185e-02 -6.183071e-02 -5.262375e-02 -4.540746e-02 -3.536228e-02 -3.288369e-02 -2.321451e-02 -2.247511e-02 -1.502434e-02 -1.306741e-02 -1.011056e-02 -4.011655e-03 -7.078949e-03 4.244770e-03 -3.994968e-03 1.056430e-02 5.182332e-04 1.527229e-02 6.327629e-03 2.010576e-02 1.233483e-02 2.603738e-02 1.917455e-02 3.316703e-02 2.776330e-02 4.259536e-02 3.794755e-02 5.576623e-02 5.186194e-02 7.369812e-02 7.150822e-02 9.962273e-02 1.004245e-01 1.383987e-01 1.452912e-01 1.989128e-01 2.174045e-01 2.975963e-01 3.377434e-01 4.621507e-01 5.413437e-01 7.226523e-01 8.745256e-01 
9.009255e-01 9.503595e-01 5.645575e-01 4.982841e-01 6.587420e-04 -3.375797e-03 7.203643e-02 -7.245842e-01 -9.073960e-01 -8.854412e-01 -6.622429e-01 -6.303474e-01 -4.463777e-01 -4.296962e-01 -3.124114e-01 -2.904886e-01 -2.264356e-01 -1.978406e-01 -1.681859e-01 -1.364303e-01 -1.266322e-01 -9.505429e-02 -9.583764e-02 -6.641890e-02 -7.240015e-02 -4.599265e-02 -5.397409e-02 -3.116760e-02 -3.872565e-02 -2.048620e-02 -2.540205e-02 -1.292769e-02 -1.327080e-02 -7.209087e-03 -2.360947e-03 -1.788738e-03 6.989603e-03 4.445092e-03 1.518729e-02 1.173523e-02 2.336777e-02 1.986642e-02 3.250899e-02 2.926165e-02 4.327686e-02 4.060934e-02 5.676283e-02 5.451319e-02 7.425541e-02 7.267912e-02 9.714654e-02 9.724779e-02 1.280414e-01 1.314816e-01 1.707900e-01 1.808255e-01 2.316913e-01 2.541006e-01 3.213493e-01 3.660887e-01 4.563512e-01 5.367458e-01 6.569281e-01 7.661915e-01 
9.267331e-01 7.668485e-01 6.439776e-01 1.153432e+00 6.834190e-03 1.327174e-04 -7.152570e-01 -8.258664e-01 -8.531448e-01 -7.766589e-01 -5.991224e-01 -5.850003e-01 -4.070503e-01 -4.241844e-01 -2.873675e-01 -3.021405e-01 -2.076942e-01 -2.138515e-01 -1.522941e-01 -1.515086e-01 -1.125635e-01 -1.075722e-01 -8.331532e-02 -7.628538e-02 -6.125353e-02 -5.366400e-02 -4.406876e-02 -3.711742e-02 -3.005195e-02 -2.500289e-02 -1.803824e-02 -1.610279e-02 -7.334718e-03 -9.151384e-03 2.233562e-03 -2.847243e-03 1.063234e-02 3.776280e-03 1.830553e-02 1.107925e-02 2.619809e-02 1.910623e-02 3.517082e-02 2.834593e-02 4.595042e-02 3.952087e-02 5.961971e-02 5.339794e-02 7.760686e-02 7.156476e-02 1.017263e-01 9.614921e-02 1.349972e-01 1.303270e-01 1.819585e-01 1.788578e-01 2.495534e-01 2.481888e-01 3.479862e-01 3.455269e-01 4.905270e-01 4.715508e-01 6.913807e-01 5.917023e-01 
7.201359e-01 5.597599e-01 3.372350e-01 8.514481e-01 4.153827e-03 -6.887647e-04 -8.602625e-02 -5.305579e-01 -5.369797e-01 -6.606690e-01 -5.116357e-01 -5.470173e-01 -4.035037e-01 -4.169215e-01 -3.085310e-01 -3.077029e-01 -2.349395e-01 -2.240959e-01 -1.792874e-01 -1.625480e-01 -1.370087e-01 -1.177116e-01 -1.044410e-01 -8.488434e-02 -7.891748e-02 -6.055793e-02 -5.844377e-02 -4.231279e-02 -4.148443e-02 -2.848943e-02 -2.692315e-02 -1.781492e-02 -1.403028e-02 -9.095845e-03 -2.443738e-03 -1.187247e-03 8.074000e-03 6.800285e-03 1.800919e-02 1.538002e-02 2.813710e-02 2.487326e-02 3.928355e-02 3.576967e-02 5.227268e-02 4.874101e-02 6.812036e-02 6.464546e-02 8.805865e-02 8.483947e-02 1.136293e-01 1.111392e-01 1.470657e-01 1.460241e-01 1.915004e-01 1.928306e-01 2.513557e-01 2.554397e-01 3.325738e-01 3.362785e-01 4.418905e-01 4.274709e-01 5.842718e-01 4.860011e-01 
7.312030e-01 5.984651e-01 4.231911e-01 1.102335e+00 5.497581e-03 -4.997606e-04 -3.661905e-01 -5.227180e-01 -6.823095e-01 -6.527942e-01 -5.820506e-01 -5.344207e-01 -4.272228e-01 -4.103680e-01 -3.137565e-01 -3.093995e-01 -2.330922e-01 -2.305254e-01 -1.744489e-01 -1.704876e-01 -1.308794e-01 -1.253668e-01 -9.787025e-02 -9.152387e-02 -7.236052e-02 -6.602216e-02 -5.216388e-02 -4.665810e-02 -3.567139e-02 -3.180325e-02 -2.172598e-02 -2.016638e-02 -9.539945e-03 -1.059116e-02 1.378579e-03 -2.030305e-03 1.141396e-02 6.348454e-03 2.110408e-02 1.510362e-02 3.118783e-02 2.466086e-02 4.246570e-02 3.557381e-02 5.579553e-02 4.855712e-02 7.224925e-02 6.451141e-02 9.319262e-02 8.473811e-02 1.204033e-01 1.109378e-01 1.563627e-01 1.452875e-01 2.044271e-01 1.903314e-01 2.689674e-01 2.482241e-01 3.551733e-01 3.183865e-01 4.681091e-01 3.911371e-01 6.099952e-01 4.433313e-01 
5.549571e-01 4.495074e-01 2.500355e-01 8.433510e-01 3.657416e-03 -6.842440e-04 -7.098737e-02 -3.884533e-01 -3.994340e-01 -5.235280e-01 -4.132825e-01 -4.632925e-01 -3.490248e-01 -3.769298e-01 -2.826266e-01 -2.955654e-01 -2.245421e-01 -2.265732e-01 -1.763812e-01 -1.712173e-01 -1.373145e-01 -1.280206e-01 -1.058031e-01 -9.467183e-02 -8.027732e-02 -6.893830e-02 -5.933891e-02 -4.897024e-02 -4.181010e-02 -3.329835e-02 -2.675484e-02 -2.071311e-02 -1.347181e-02 -1.014549e-02 -1.452380e-03 -6.410495e-04 9.743605e-03 8.586883e-03 2.064047e-02 1.813708e-02 3.188981e-02 2.850891e-02 4.421817e-02 4.024690e-02 5.841715e-02 5.400301e-02 7.540550e-02 7.058267e-02 9.627228e-02 9.103504e-02 1.223454e-01 1.166419e-01 1.553143e-01 1.488665e-01 1.972755e-01 1.890876e-01 2.506724e-01 2.376966e-01 3.178931e-01 2.917049e-01 4.001722e-01 3.393740e-01 4.947630e-01 3.594984e-01 
5.707379e-01 5.108872e-01 3.165698e-01 9.532996e-01 4.426505e-03 -2.676825e-04 -2.307806e-01 -3.736813e-01 -5.210520e-01 -5.208078e-01 -5.005387e-01 -4.607767e-01 -3.996650e-01 -3.741643e-01 -3.095006e-01 -2.953233e-01 -2.379960e-01 -2.288673e-01 -1.823716e-01 -1.749504e-01 -1.390925e-01 -1.321731e-01 -1.051796e-01 -9.861138e-02 -7.829958e-02 -7.236043e-02 -5.664079e-02 -5.176007e-02 -3.879647e-02 -3.542713e-02 -2.368802e-02 -2.219333e-02 -1.050082e-02 -1.103291e-02 1.388749e-03 -1.042718e-03 1.252443e-02 8.536059e-03 2.349085e-02 1.831891e-02 3.496069e-02 2.885069e-02 4.767835e-02 4.071569e-02 6.247445e-02 5.459230e-02 8.032890e-02 7.129218e-02 1.024270e-01 9.181757e-02 1.302222e-01 1.173362e-01 1.655108e-01 1.490799e-01 2.104143e-01 1.880257e-01 2.672007e-01 2.341093e-01 3.377603e-01 2.846568e-01 4.224382e-01 3.322301e-01 5.163832e-01 3.722455e-01 
4.337466e-01 3.915387e-01 2.009709e-01 7.419713e-01 3.157326e-03 -5.351324e-04 -4.523720e-02 -2.912973e-01 -3.110329e-01 -4.226747e-01 -3.401241e-01 -3.898909e-01 -2.979852e-01 -3.301766e-01 -2.497439e-01 -2.695911e-01 -2.043549e-01 -2.144223e-01 -1.642071e-01 -1.671706e-01 -1.298825e-01 -1.281828e-01 -1.010473e-01 -9.667781e-02 -7.696349e-02 -7.145445e-02 -5.677004e-02 -5.126839e-02 -3.962812e-02 -3.497717e-02 -2.479305e-02 -2.156134e-02 -1.163690e-02 -1.010586e-02 3.698766e-04 2.047742e-04 1.171703e-02 1.007382e-02 2.292320e-02 2.009680e-02 3.456810e-02 3.080712e-02 4.728949e-02 4.274242e-02 6.178610e-02 5.648895e-02 7.883960e-02 7.270822e-02 9.933426e-02 9.214781e-02 1.242746e-01 1.155865e-01 1.547882e-01 1.436827e-01 1.920502e-01 1.766170e-01 2.370631e-01 2.133368e-01 2.901656e-01 2.502239e-01 3.501083e-01 2.796593e-01 4.114257e-01 2.972863e-01 
4.526835e-01 4.409726e-01 2.510975e-01 8.003878e-01 3.625654e-03 -1.875323e-04 -1.603582e-01 -2.834360e-01 -4.063611e-01 -4.176886e-01 -4.172259e-01 -3.877080e-01 -3.531970e-01 -3.284494e-01 -2.862337e-01 -2.687859e-01 -2.274529e-01 -2.147865e-01 -1.783727e-01 -1.684374e-01 -1.382403e-01 -1.299181e-01 -1.056523e-01 -9.850936e-02 -7.914293e-02 -7.313414e-02 -5.738375e-02 -5.265216e-02 -3.923838e-02 -3.598916e-02 -2.376445e-02 -2.217100e-02 -1.018961e-02 -1.032055e-02 2.132740e-03 3.447434e-04 1.378635e-02 1.051033e-02 2.535608e-02 2.077600e-02 3.746517e-02 3.169499e-02 5.078768e-02 4.382629e-02 6.606407e-02 5.777007e-02 8.412727e-02 7.418644e-02 1.059233e-01 9.379447e-02 1.325179e-01 1.173147e-01 1.650703e-01 1.453276e-01 2.047175e-01 1.779872e-01 2.523027e-01 2.145279e-01 3.078363e-01 2.526333e-01 3.694888e-01 2.884037e-01 4.306656e-01 3.242695e-01 
3.449212e-01 3.418774e-01 1.659736e-01 6.275333e-01 2.661494e-03 -4.115953e-04 -2.750996e-02 -2.253209e-01 -2.456027e-01 -3.433584e-01 -2.795431e-01 -3.260662e-01 -2.511414e-01 -2.835192e-01 -2.151388e-01 -2.377484e-01 -1.793981e-01 -1.938991e-01 -1.463166e-01 -1.545255e-01 -1.169385e-01 -1.206454e-01 -9.148850e-02 -9.226598e-02 -6.971151e-02 -6.884634e-02 -5.111323e-02 -4.961387e-02 -3.511362e-02 -3.373996e-02 -2.113492e-02 -2.041880e-02 -8.641096e-03 -8.896881e-03 2.859443e-03 1.513582e-03 1.383714e-02 1.142710e-02 2.477265e-02 2.139001e-02 3.617679e-02 3.190320e-02 4.859631e-02 4.345274e-02 6.261664e-02 5.653120e-02 7.886559e-02 7.164221e-02 9.801038e-02 8.927838e-02 1.207399e-01 1.098480e-01 1.477143e-01 1.335229e-01 1.794468e-01 1.599649e-01 2.160724e-01 1.879058e-01 2.569478e-01 2.146936e-01 3.000007e-01 2.365096e-01 3.397506e-01 2.554684e-01 
3.643578e-01 3.783736e-01 2.044295e-01 6.646527e-01 2.978636e-03 -1.442461e-04 -1.184937e-01 -2.223518e-01 -3.233445e-01 -3.384767e-01 -3.454066e-01 -3.231963e-01 -3.034926e-01 -2.814922e-01 -2.540913e-01 -2.362610e-01 -2.071555e-01 -1.929738e-01 -1.655462e-01 -1.541162e-01 -1.299884e-01 -1.206117e-01 -1.001682e-01 -9.243703e-02 -7.532731e-02 -6.906797e-02 -5.457829e-02 -4.976557e-02 -3.705519e-02 -3.373506e-02 -2.197512e-02 -2.020094e-02 -8.650762e-03 -8.437188e-03 3.525739e-03 2.221157e-03 1.511503e-02 1.237511e-02 2.666568e-02 2.256964e-02 3.873943e-02 3.331357e-02 5.192511e-02 4.510406e-02 6.684791e-02 5.844250e-02 8.417536e-02 7.383535e-02 1.046123e-01 9.177152e-02 1.288741e-01 1.126594e-01 1.576189e-01 1.367087e-01 1.913070e-01 1.637441e-01 2.299461e-01 1.929742e-01 2.726685e-01 2.228492e-01 3.170586e-01 2.515046e-01 3.572630e-01 2.827223e-01 
2.771196e-01 2.937436e-01 1.376700e-01 5.210881e-01 2.208925e-03 -3.276699e-04 -1.604698e-02 -1.785086e-01 -1.955183e-01 -2.803173e-01 -2.286485e-01 -2.710633e-01 -2.086164e-01 -2.394117e-01 -1.808389e-01 -2.038789e-01 -1.521852e-01 -1.687235e-01 -1.249029e-01 -1.362124e-01 -1.001245e-01 -1.074685e-01 -7.826126e-02 -8.279383e-02 -5.926710e-02 -6.198033e-02 -4.284077e-02 -4.455082e-02 -2.856327e-02 -2.991371e-02 -1.598030e-02 -1.744948e-02 -4.643346e-03 -6.554363e-03 5.878453e-03 3.338198e-03 1.600514e-02 1.274815e-02 2.615964e-02 2.214945e-02 3.677832e-02 3.197935e-02 4.831487e-02 4.265012e-02 6.123903e-02 5.455442e-02 7.602997e-02 6.805645e-02 9.315964e-02 8.346034e-02 1.130582e-01 1.009435e-01 1.360485e-01 1.204446e-01 1.622308e-01 1.415041e-01 1.912963e-01 1.630941e-01 2.222511e-01 1.835778e-01 2.530225e-01 2.012489e-01 2.791381e-01 2.197589e-01 
2.954932e-01 3.208844e-01 1.679862e-01 5.479924e-01 2.445125e-03 -1.163629e-04 -9.164578e-02 -1.784944e-01 -2.613571e-01 -2.765448e-01 -2.856910e-01 -2.679908e-01 -2.564989e-01 -2.368321e-01 -2.189744e-01 -2.015258e-01 -1.813768e-01 -1.666103e-01 -1.466527e-01 -1.344054e-01 -1.160445e-01 -1.059833e-01 -8.976630e-02 -8.158442e-02 -6.747738e-02 -6.096347e-02 -4.859419e-02 -4.363199e-02 -3.246576e-02 -2.900420e-02 -1.845829e-02 -1.647536e-02 -5.985974e-03 -5.459702e-03 5.488288e-03 4.592768e-03 1.646738e-02 1.419073e-02 2.743870e-02 2.380418e-02 3.888920e-02 3.387282e-02 5.131388e-02 4.481532e-02 6.521784e-02 5.703246e-02 8.111043e-02 7.089824e-02 9.948628e-02 8.673277e-02 1.207843e-01 1.047500e-01 1.453125e-01 1.249769e-01 1.731210e-01 1.471532e-01 2.038053e-01 1.706455e-01 2.362281e-01 1.944670e-01 2.681512e-01 2.176611e-01 2.950850e-01 2.437067e-01 
2.227748e-01 2.469796e-01 1.132893e-01 4.262937e-01 1.807588e-03 -2.713109e-04 -8.655555e-03 -1.442256e-01 -1.565282e-01 -2.299058e-01 -1.859568e-01 -2.238906e-01 -1.703627e-01 -1.985261e-01 -1.476200e-01 -1.696307e-01 -1.238587e-01 -1.408503e-01 -1.011410e-01 -1.140485e-01 -8.047174e-02 -9.013894e-02 -6.219520e-02 -6.939000e-02 -4.626214e-02 -5.167549e-02 -3.241709e-02 -3.665404e-02 -2.031290e-02 -2.388346e-02 -9.573806e-03 -1.288711e-02 1.748417e-04 -3.190196e-03 9.297399e-03 5.661329e-03 1.815028e-02 1.409163e-02 2.708844e-02 2.249255e-02 3.647036e-02 3.122526e-02 4.665854e-02 4.062201e-02 5.801458e-02 5.098272e-02 7.088728e-02 6.256102e-02 8.559034e-02 7.553475e-02 1.023641e-01 8.995644e-02 1.213139e-01 1.056844e-01 1.423169e-01 1.223073e-01 1.648903e-01 1.391036e-01 1.880242e-01 1.551226e-01 2.099799e-01 1.696279e-01 2.274344e-01 1.861074e-01 
2.394201e-01 2.678313e-01 1.378524e-01 4.474159e-01 1.995257e-03 -1.002381e-04 -7.371485e-02 -1.462650e-01 -2.142163e-01 -2.276260e-01 -2.365315e-01 -2.210449e-01 -2.139323e-01 -1.953763e-01 -1.835885e-01 -1.662295e-01 -1.525888e-01 -1.374395e-01 -1.235895e-01 -1.108662e-01 -9.777023e-02 -8.732032e-02 -7.540031e-02 -6.695991e-02 -5.625444e-02 -4.958235e-02 -3.988681e-02 -3.480849e-02 -2.578236e-02 -2.218660e-02 -1.342836e-02 -1.124666e-02 -2.340953e-03 -1.527267e-03 7.931444e-03 7.411653e-03 1.781534e-02 1.598365e-02 2.772218e-02 2.457514e-02 3.805614e-02 3.354720e-02 4.921695e-02 4.323650e-02 6.159642e-02 5.395168e-02 7.556642e-02 6.596094e-02 9.145458e-02 7.946795e-02 1.095021e-01 9.457393e-02 1.297967e-01 1.112286e-01 1.521743e-01 1.291814e-01 1.760857e-01 1.479583e-01 2.004373e-01 1.669068e-01 2.234253e-01 1.854519e-01 2.418116e-01 2.064503e-01 
1.771782e-01 2.020748e-01 9.153488e-02 3.419513e-01 1.450522e-03 -2.358449e-04 -4.105810e-03 -1.192035e-01 -1.263242e-01 -1.898891e-01 -1.504871e-01 -1.835156e-01 -1.360375e-01 -1.605642e-01 -1.154509e-01 -1.352995e-01 -9.463614e-02 -1.109958e-01 -7.543890e-02 -8.895425e-02 -5.849199e-02 -6.959725e-02 -4.382046e-02 -5.290175e-02 -3.118526e-02 -3.863529e-02 -2.025852e-02 -2.647292e-02 -1.069846e-02 -1.605307e-02 -2.175669e-03 -7.005238e-03 5.621327e-03 1.035238e-03 1.298890e-02 8.418536e-03 2.021389e-02 1.547506e-02 2.757872e-02 2.251238e-02 3.536384e-02 2.981328e-02 4.384597e-02 3.763259e-02 5.329114e-02 4.619018e-02 6.394102e-02 5.565692e-02 7.599041e-02 6.613161e-02 8.955254e-02 7.760863e-02 1.046089e-01 8.994095e-02 1.209417e-01 1.028123e-01 1.380495e-01 1.157460e-01 1.550585e-01 1.281909e-01 1.706394e-01 1.398156e-01 1.824330e-01 1.535029e-01 
1.919352e-01 2.186862e-01 1.119291e-01 3.592668e-01 1.606157e-03 -9.660676e-05 -6.180562e-02 -1.232333e-01 -1.787031e-01 -1.895780e-01 -1.966157e-01 -1.811377e-01 -1.758309e-01 -1.566326e-01 -1.486068e-01 -1.304699e-01 -1.216972e-01 -1.059882e-01 -9.729347e-02 -8.426514e-02 -7.603268e-02 -6.545894e-02 -5.781882e-02 -4.935211e-02 -4.227138e-02 -3.560280e-02 -2.893635e-02 -2.384014e-02 -1.736719e-02 -1.369410e-02 -7.147920e-03 -4.803709e-03 2.105656e-03 3.180069e-03 1.075199e-02 1.059219e-02 1.913120e-02 1.775148e-02 2.757118e-02 2.495885e-02 3.639077e-02 3.249557e-02 4.589845e-02 4.061992e-02 5.638541e-02 4.956055e-02 6.811135e-02 5.950415e-02 8.128024e-02 7.057639e-02 9.600339e-02 8.281641e-02 1.122467e-01 9.614860e-02 1.297616e-01 1.103603e-01 1.480033e-01 1.250997e-01 1.660518e-01 1.399093e-01 1.825557e-01 1.543902e-01 1.952428e-01 1.707905e-01 
1.373795e-01 1.591603e-01 7.163396e-02 2.658380e-01 1.127825e-03 -2.196927e-04 -1.944624e-03 -1.023601e-01 -1.041677e-01 -1.596276e-01 -1.219990e-01 -1.490446e-01 -1.050048e-01 -1.243937e-01 -8.347258e-02 -1.000586e-01 -6.387869e-02 -7.889602e-02 -4.755471e-02 -6.115502e-02 -3.428358e-02 -4.635726e-02 -2.343853e-02 -3.394579e-02 -1.441691e-02 -2.345726e-02 -6.742611e-03 -1.452212e-02 -5.144301e-05 -6.829538e-03 5.946318e-03 -9.969820e-05 1.149703e-02 5.930533e-03 1.682411e-02 1.151246e-02 2.214011e-02 1.688538e-02 2.765282e-02 2.227420e-02 3.356673e-02 2.788588e-02 4.008011e-02 3.390436e-02 4.737743e-02 4.048265e-02 5.561625e-02 4.773105e-02 6.490742e-02 5.570080e-02 7.528698e-02 6.436490e-02 8.667899e-02 7.360056e-02 9.885000e-02 8.318341e-02 1.113601e-01 9.280741e-02 1.235218e-01 1.021463e-01 1.343791e-01 1.110346e-01 1.423002e-01 1.217102e-01 
1.503220e-01 1.728315e-01 8.893202e-02 2.803474e-01 1.260882e-03 -1.093975e-04 -5.467975e-02 -1.090900e-01 -1.538669e-01 -1.624407e-01 -1.656911e-01 -1.471543e-01 -1.413661e-01 -1.188932e-01 -1.130958e-01 -9.295279e-02 -8.821934e-02 -7.173837e-02 -6.781496e-02 -5.472808e-02 -5.123726e-02 -4.089185e-02 -3.757563e-02 -2.938694e-02 -2.608716e-02 -1.963957e-02 -1.623290e-02 -1.125904e-02 -7.614375e-03 -3.949872e-03 8.736923e-05 2.542149e-03 7.150251e-03 8.455547e-03 1.383195e-02 1.402201e-02 2.038000e-02 1.946721e-02 2.703578e-02 2.500829e-02 3.403427e-02 3.084984e-02 4.159989e-02 3.717850e-02 4.993796e-02 4.415520e-02 5.922055e-02 5.190446e-02 6.956538e-02 6.050007e-02 8.100645e-02 6.994851e-02 9.345589e-02 8.017291e-02 1.066590e-01 9.100299e-02 1.201482e-01 1.021774e-01 1.332108e-01 1.133642e-01 1.448819e-01 1.242676e-01 1.535958e-01 1.365922e-01 
1.014464e-01 1.180278e-01 5.303733e-02 1.957960e-01 8.304031e-04 -2.250255e-04 -2.292293e-03 -9.431769e-02 -9.091499e-02 -1.409199e-01 -1.017280e-01 -1.195869e-01 -7.603072e-02 -8.749446e-02 -4.950562e-02 -6.171398e-02 -2.990268e-02 -4.339350e-02 -1.665772e-02 -3.039203e-02 -7.677396e-03 -2.069667e-02 -1.253277e-03 -1.303296e-02 3.684568e-03 -6.697440e-03 7.746743e-03 -1.306610e-03 1.128269e-02 3.373572e-03 1.451159e-02 7.518190e-03 1.759451e-02 1.128380e-02 2.067013e-02 1.482268e-02 2.387083e-02 1.828509e-02 2.732858e-02 2.181645e-02 3.117506e-02 2.555269e-02 3.553791e-02 2.961427e-02 4.053328e-02 3.409878e-02 4.625460e-02 3.907180e-02 5.275672e-02 4.455622e-02 6.003505e-02 5.052156e-02 6.799993e-02 5.687707e-02 7.644809e-02 6.347386e-02 8.503617e-02 7.012255e-02 9.326570e-02 7.663014e-02 1.004862e-01 8.290921e-02 1.056018e-01 9.061133e-02 
1.127413e-01 1.295947e-01 6.799742e-02 2.080848e-01 9.470453e-04 -1.445040e-04 -5.207978e-02 -1.052081e-01 -1.410012e-01 -1.500597e-01 -1.458353e-01 -1.175066e-01 -1.083735e-01 -7.823522e-02 -7.397913e-02 -5.063600e-02 -5.020539e-02 -3.326057e-02 -3.448944e-02 -2.201379e-02 -2.352613e-02 -1.399693e-02 -1.516670e-02 -7.668426e-03 -8.277416e-03 -2.312977e-03 -2.301943e-03 2.390629e-03 3.047911e-03 6.609124e-03 7.955124e-03 1.046448e-02 1.257051e-02 1.407585e-02 1.704089e-02 1.757082e-02 2.151732e-02 2.108438e-02 2.615497e-02 2.475385e-02 3.110925e-02 2.871261e-02 3.652929e-02 3.308325e-02 4.254883e-02 3.796997e-02 4.927355e-02 4.344953e-02 5.676429e-02 4.956096e-02 6.501542e-02 5.629481e-02 7.392926e-02 6.358393e-02 8.328854e-02 7.129862e-02 9.273290e-02 7.924903e-02 1.017489e-01 8.719632e-02 1.096797e-01 9.492289e-02 1.154786e-01 1.036462e-01 
6.803346e-02 7.827776e-02 3.531496e-02 1.299748e-01 5.508597e-04 -2.526334e-04 -5.615322e-03 -9.663213e-02 -8.919369e-02 -1.415567e-01 -9.498040e-02 -9.311761e-02 -4.570665e-02 -4.399725e-02 -8.597245e-03 -1.598923e-02 1.039071e-02 -2.574513e-03 1.848582e-02 3.711693e-03 2.147369e-02 7.034875e-03 2.240751e-02 9.240614e-03 2.265150e-02 1.103140e-02 2.275366e-02 1.263720e-02 2.291723e-02 1.412504e-02 2.321824e-02 1.552445e-02 2.369648e-02 1.687067e-02 2.438982e-02 1.821437e-02 2.534473e-02 1.961918e-02 2.661735e-02 2.115554e-02 2.827050e-02 2.289401e-02 3.036867e-02 2.489873e-02 3.297114e-02 2.722084e-02 3.612296e-02 2.989182e-02 3.984358e-02 3.291691e-02 4.411272e-02 3.626985e-02 4.885422e-02 3.989102e-02 5.391942e-02 4.369162e-02 5.907381e-02 4.756596e-02 6.399310e-02 5.141164e-02 6.827109e-02 5.519317e-02 7.121765e-02 6.004276e-02 
7.787787e-02 8.830042e-02 4.850767e-02 1.404484e-01 6.558110e-04 -1.975095e-04 -5.403712e-02 -1.127589e-01 -1.438141e-01 -1.675709e-01 -1.462512e-01 -8.691768e-02 -6.997385e-02 -2.526111e-02 -2.401835e-02 1.996815e-03 -4.090355e-03 1.134998e-02 3.583045e-03 1.391197e-02 6.773508e-03 1.457030e-02 8.700713e-03 1.501355e-02 1.043910e-02 1.566032e-02 1.225035e-02 1.652255e-02 1.414979e-02 1.752943e-02 1.611216e-02 1.862937e-02 1.813349e-02 1.981124e-02 2.024175e-02 2.109960e-02 2.249175e-02 2.254394e-02 2.495645e-02 2.420801e-02 2.771820e-02 2.616072e-02 3.086010e-02 2.846838e-02 3.445695e-02 3.118747e-02 3.856493e-02 3.435752e-02 4.320935e-02 3.799382e-02 4.837028e-02 4.208064e-02 5.396678e-02 4.656573e-02 5.984158e-02 5.135779e-02 6.574997e-02 5.632799e-02 7.135864e-02 6.131613e-02 7.625624e-02 6.617437e-02 7.979355e-02 7.167361e-02 
3.613792e-02 3.941380e-02 1.811438e-02 6.683759e-02 2.837790e-04 -2.705850e-04 -1.186181e-02 -1.066774e-01 -1.020838e-01 -1.904640e-01 -1.219422e-01 -6.037017e-02 -1.385931e-03 2.077455e-02 5.035246e-02 4.426664e-02 6.155207e-02 4.541261e-02 5.874955e-02 4.083794e-02 5.268652e-02 3.592991e-02 4.675619e-02 3.195945e-02 4.175369e-02 2.896464e-02 3.769185e-02 2.671174e-02 3.440805e-02 2.497369e-02 3.174294e-02 2.359008e-02 2.958021e-02 2.246445e-02 2.784620e-02 2.154799e-02 2.650050e-02 2.082357e-02 2.552641e-02 2.029314e-02 2.492309e-02 1.996835e-02 2.469884e-02 1.986343e-02 2.486501e-02 1.998969e-02 2.542969e-02 2.035106e-02 2.639072e-02 2.094062e-02 2.772780e-02 2.173871e-02 2.939399e-02 2.271354e-02 3.130743e-02 2.382521e-02 3.334523e-02 2.503361e-02 3.534233e-02 2.630888e-02 3.709525e-02 2.766463e-02 3.824314e-02 2.976847e-02 
4.473312e-02 4.828045e-02 3.000517e-02 7.583910e-02 3.814352e-04 -1.710048e-04 -5.829253e-02 -1.203518e-01 -1.654195e-01 -2.749795e-01 -2.046842e-01 -2.938127e-02 9.353425e-04 6.297902e-02 5.218008e-02 7.261612e-02 5.429163e-02 6.269078e-02 4.609710e-02 5.168323e-02 3.830675e-02 4.332098e-02 3.274446e-02 3.747726e-02 2.907951e-02 3.341134e-02 2.671467e-02 3.050644e-02 2.518974e-02 2.835469e-02 2.421106e-02 2.671098e-02 2.360996e-02 2.543903e-02 2.330096e-02 2.447140e-02 2.325142e-02 2.378272e-02 2.346092e-02 2.337227e-02 2.394736e-02 2.325235e-02 2.473687e-02 2.344018e-02 2.585566e-02 2.395173e-02 2.732260e-02 2.479660e-02 2.914168e-02 2.597338e-02 3.129414e-02 2.746563e-02 3.373070e-02 2.923875e-02 3.636460e-02 3.123840e-02 3.906745e-02 3.339110e-02 4.166990e-02 3.560781e-02 4.396677e-02 3.780656e-02 4.564011e-02 4.033928e-02 