# vtk DataFile Version 2.0
Comment goes here
ASCII

DATASET STRUCTURED_POINTS
DIMENSIONS    64   64   1

ORIGIN    0.000   0.000   0.000
SPACING   0.0156250.015625   1.000

POINT_DATA   4096
SCALARS uY double
LOOKUP_TABLE default

-2.074068e+00 3.775741e+00 5.523464e+00 -1.920029e+00 -3.851495e+00 6.551848e-01 2.581271e-01 4.555022e+00 -1.330226e+00 -4.187894e+00 -9.000183e-03 -8.481724e-01 -1.930491e+00 5.339503e+00 2.607954e+00 -2.006248e+00 -2.081823e+00 -3.226039e-01 4.997941e-01 -8.074713e-01 2.507082e-01 1.192515e-01 6.341287e-01 9.647968e-01 2.841442e-01 1.119214e+00 -3.611428e-01 6.790498e-01 -6.812647e-01 9.244015e-02 -7.633338e-02 -1.025553e-01 6.399514e-02 -2.439849e-01 3.698533e-02 -2.787075e-01 6.043704e-01 1.622196e-01 5.838424e-01 1.052179e-01 -1.380904e-01 -1.394005e-01 6.953313e-01 1.244270e-02 7.423787e-01 2.707626e-01 3.931979e-01 1.497704e-01 1.756483e+00 -2.680546e+00 2.093549e+00 -1.536546e+00 -1.713290e+00 1.157725e+00 -2.009012e+00 1.250179e-01 -1.628104e+00 5.063884e-01 1.510517e+00 -2.383563e+00 -9.595223e-01 -2.160285e+00 8.066392e-01 -1.634017e+00 
-1.093854e+00 -6.595913e+00 -4.854509e+00 2.423374e+00 3.049244e+00 -3.473218e+00 -5.857971e+00 7.010613e+00 1.170441e-01 4.525886e+00 1.073730e-01 -3.476554e+00 2.913461e+00 2.389816e+00 -1.814332e+00 1.446819e+00 1.408725e+00 -5.501085e-01 -6.032292e-01 -1.891913e+00 3.170159e-01 -6.257448e-01 7.882376e-01 3.843003e-02 -1.276214e+00 3.667272e-02 -1.242075e+00 7.296063e-01 -8.551884e-02 1.329923e+00 -4.210890e-01 3.487467e-01 1.994877e-01 -5.902122e-01 7.130863e-01 -6.806398e-01 4.736131e-01 -7.094917e-01 4.021886e-01 -3.337954e-01 2.792522e-01 -1.871792e-01 -3.452707e-01 1.190963e-02 1.371900e-01 -1.787858e-03 2.884320e-01 3.931372e-01 3.201592e-01 -8.856600e-01 1.332791e+00 -3.522403e-01 -4.989245e-01 9.027547e-01 -9.823058e-01 1.433511e+00 -4.851228e-01 -1.598400e+00 1.448099e+00 4.955424e-01 3.288980e-01 -1.734358e+00 1.403439e+00 -2.218983e+00 
2.246344e-01 6.274140e+00 4.107964e+00 -2.567323e-01 3.739904e+00 -1.243195e+00 -4.501046e+00 3.409290e+00 -1.881348e+00 -5.149531e-01 -2.509353e+00 -2.392427e+00 4.530524e-01 1.668097e-01 9.666332e-01 2.794727e-01 -2.187543e+00 -1.447572e+00 3.945219e-01 -1.277063e-01 1.889628e+00 -6.985998e-01 9.583179e-01 3.572272e-01 -2.582820e-01 7.180817e-01 -5.901239e-01 1.054609e+00 -1.648828e+00 1.221118e+00 -1.458288e+00 -2.860484e-01 2.332228e-02 -9.497504e-01 5.774524e-01 -3.632810e-01 5.041455e-01 -2.049395e-01 7.225896e-01 -3.555796e-01 6.359049e-01 -1.314732e+00 8.133130e-01 -6.545441e-01 5.021341e-02 1.516995e+00 -2.272698e-01 3.685477e-01 9.666944e-01 -1.054542e+00 7.848867e-01 6.616296e-01 -1.659786e+00 -4.034720e-01 -1.951659e+00 -1.283315e+00 -3.025269e-01 -3.052200e+00 1.940779e+00 7.249846e-01 9.915287e-01 -1.452520e-01 -1.067682e+00 -1.466338e+00 
-1.371221e+00 -9.934511e-02 1.423604e+00 -3.957667e-01 -3.376166e+00 -1.885960e+00 -1.758818e+00 3.351044e+00 -1.978335e+00 1.480975e+00 -9.898709e-02 5.180900e-01 -8.598844e-02 -7.313974e-01 -7.852587e-01 7.972632e-01 1.800660e+00 -1.106352e-01 1.266813e+00 -1.589937e+00 9.547592e-01 -1.454270e+00 1.836711e-01 -2.011539e-03 -8.372071e-01 1.035556e+00 -1.390630e+00 1.576338e+00 -1.303388e+00 1.352346e+00 -3.400216e-01 3.962430e-01 5.412774e-01 -3.428506e-01 5.456051e-01 -6.549915e-01 3.410473e-01 -9.539906e-01 7.624990e-01 -1.043258e+00 1.146391e+00 -4.659230e-01 8.223979e-01 -2.306325e-01 -4.170169e-01 -3.882330e-01 -8.714254e-01 -1.923836e-01 -4.718560e-02 1.034659e-01 -7.057702e-01 1.801528e-01 -3.863548e-01 1.006348e+00 1.550614e+00 1.188625e+00 1.717176e-01 2.756484e+00 8.967032e-02 -3.564436e+00 3.488708e+00 -2.865840e+00 -2.868340e+00 -1.160527e+00 
2.678749e+00 9.205299e+00 5.219387e-02 4.271869e+00 3.496024e-01 -5.004835e+00 2.314747e-01 -1.680589e+00 -4.739638e-01 8.073393e-01 3.768227e-01 5.469442e-01 1.198315e-01 5.785329e-01 8.575329e-01 -2.032537e+00 -4.410357e-01 -7.213963e-01 1.661374e-01 -5.029150e-01 6.936502e-01 2.430763e-02 2.022539e-01 7.753939e-01 -1.402621e+00 2.121287e+00 -2.020558e+00 1.268028e+00 -6.056501e-01 -2.242679e-01 -1.044605e-01 1.865770e-01 -8.166962e-01 6.450641e-01 -3.620760e-01 7.090053e-02 8.306426e-01 -5.555901e-01 1.199703e+00 -1.401289e+00 1.163797e+00 -1.302175e+00 6.938741e-02 2.573453e-01 -1.902914e-02 1.028433e+00 2.067038e-01 7.308702e-01 -3.624438e-01 -1.517276e-01 1.225431e+00 -8.469099e-01 1.316016e+00 -7.451031e-01 -1.870241e+00 -7.005349e-01 -2.833891e-01 -2.461901e+00 -8.748801e-01 2.100398e+00 6.361484e-01 -3.563151e+00 -2.237285e+00 -4.185944e+00 
-2.731480e+00 1.867442e+00 -4.594258e+00 -2.360879e+00 5.496954e+00 -7.476210e-01 -2.414778e-02 6.137141e+00 1.410981e+00 -2.653621e+00 -2.181745e+00 -3.226856e+00 -2.632636e+00 1.175385e+00 3.213136e+00 -6.141539e-01 8.961427e-01 -8.548858e-01 -2.817135e-01 -3.507718e-01 6.777563e-01 1.806005e-01 -2.526031e-01 8.095647e-01 -9.298811e-01 9.229274e-01 -1.738788e+00 1.410431e+00 -1.194613e-01 -1.518395e-01 6.426393e-01 -1.027502e+00 -1.645042e-01 3.168402e-01 -8.087131e-01 3.714643e-01 -4.249440e-01 -8.671684e-01 1.095883e+00 -5.764763e-01 5.157976e-01 4.547411e-01 3.564648e-02 -1.082097e+00 1.196964e+00 -1.504471e+00 2.057930e-01 4.869642e-01 -4.630544e-01 6.129404e-01 -4.269610e-01 3.120540e-01 -2.726872e+00 3.515723e-01 3.113893e-01 1.132900e+00 -1.433460e+00 1.122609e+00 2.244805e+00 -1.789745e+00 1.093827e+00 2.128802e-01 -6.351704e-01 -2.459829e+00 
-8.876613e-01 -2.845758e+00 4.095264e+00 4.973422e+00 1.411670e-01 -5.744289e+00 1.850217e+00 3.793712e+00 -3.678875e+00 1.186191e-01 -1.424610e-02 -8.024365e-02 -3.666221e-01 -5.457903e-01 7.229019e-01 -6.628294e-01 -2.932391e-01 7.301978e-01 3.104214e+00 1.124712e+00 4.243361e-01 -4.556577e-01 -1.517652e+00 1.010652e-02 -1.216584e+00 1.183765e+00 -1.114069e+00 1.094033e+00 -8.186474e-01 8.357586e-02 -3.745258e-01 -2.169503e-01 5.338066e-01 -7.866603e-01 2.842577e-01 -6.779441e-01 -3.175279e-01 7.369583e-01 -1.260350e+00 1.477647e+00 -1.795249e+00 1.278992e-01 4.805261e-01 -1.431005e+00 1.639238e+00 -5.274832e-01 5.445088e-01 -6.399600e-01 1.634120e+00 -2.101700e+00 1.929854e+00 -1.092998e+00 1.904692e-01 -5.503462e-01 -2.730983e+00 6.902510e-02 5.678347e-01 -3.069924e+00 2.826696e-01 3.891408e+00 -1.572695e+00 5.219696e-01 3.528957e-02 3.021466e-02 
-3.546673e-01 4.118064e+00 2.138997e+00 -5.910213e+00 -1.736434e-01 1.269773e-01 -1.334243e+00 -2.759428e+00 -1.353603e+00 9.460756e-01 1.246504e+00 -1.932023e+00 -3.953544e+00 -1.376781e+00 -1.392043e-01 -2.361003e-01 2.262223e+00 2.539303e+00 3.624989e+00 1.389911e+00 -8.475030e-01 -1.905991e+00 -2.142681e+00 -9.933508e-01 -9.126397e-01 4.886302e-01 -6.052413e-01 5.371312e-01 -3.966666e-01 5.327932e-03 -9.940031e-02 1.126744e-01 -1.458723e-01 7.965358e-02 -5.878038e-01 -5.423165e-01 1.669219e-01 -9.627427e-01 6.413617e-01 -4.869309e-01 -2.648148e-01 5.258733e-01 -2.688623e-01 5.663484e-02 1.588824e+00 -1.210229e+00 1.125637e+00 -6.198574e-01 -3.671593e-01 7.110743e-01 -2.064380e-01 1.253040e-01 -3.158199e-01 1.020028e+00 -8.549200e-01 -2.021982e-01 -1.025212e+00 1.828190e+00 -1.149766e+00 5.953372e-01 4.651529e-01 -7.932743e-01 7.064161e-01 2.335789e+00 
2.929805e+00 -1.178347e+00 2.999768e-02 1.918038e+00 3.253698e-02 2.095339e-02 4.963035e-01 -9.677500e-01 -4.727597e-01 1.644696e+00 1.107136e+00 -1.972500e+00 -1.529279e+00 8.309999e-01 2.432071e-02 -1.057460e+00 1.991643e+00 2.357293e+00 3.139383e+00 1.606021e+00 -7.682404e-02 -9.822378e-01 -2.618550e+00 -1.356325e+00 -1.397822e+00 3.020715e-01 -9.833082e-01 -8.235063e-02 -6.558211e-01 -4.128230e-02 8.737652e-02 5.584598e-02 7.846250e-02 -1.947565e-01 -4.940845e-01 -3.413236e-01 -5.602393e-01 1.715075e-01 -5.571654e-01 3.991849e-01 -1.145433e-01 -6.982922e-01 9.987350e-01 -1.277450e+00 5.211810e-01 -1.029480e-01 8.496056e-02 -3.228562e-01 7.495620e-01 -1.593606e+00 1.463785e+00 -7.041166e-01 -3.121236e-01 -5.572414e-01 4.235614e-01 -1.229174e+00 2.997636e-01 -1.075203e+00 -5.068977e-01 1.535270e+00 -1.652486e+00 5.937441e-01 -2.024861e+00 2.837319e+00 
-2.902387e-01 -9.041127e-01 -4.510283e-01 -9.364608e-01 4.526404e-02 -4.057392e-02 4.871028e-01 -2.647747e+00 -1.984210e+00 1.854786e+00 1.449225e+00 -2.881182e+00 -3.997323e+00 1.529009e+00 1.953840e+00 -2.114817e-01 1.932604e+00 1.850868e+00 2.026123e+00 -5.116138e-01 -2.263731e+00 -2.474821e+00 -8.501639e-01 7.552385e-01 -1.790674e-01 1.875463e-01 -7.116443e-01 4.284489e-02 4.036010e-02 -1.746391e-01 1.569690e-01 -2.342295e-01 -6.060759e-02 -3.828941e-01 -9.503499e-01 -6.018721e-01 -1.068176e+00 -1.450685e-01 -7.692735e-01 3.483636e-01 -3.670462e-01 7.215557e-02 2.325907e-01 -4.452251e-01 7.682919e-01 -1.017817e+00 1.442657e+00 -1.395763e+00 6.437470e-01 6.266940e-01 -7.953323e-01 6.076202e-01 4.933116e-01 -4.988560e-01 -1.039862e+00 6.153852e-01 5.820665e-01 -8.555208e-01 -1.705007e-01 3.478583e+00 -1.868215e+00 6.210317e-02 2.029937e+00 1.939224e+00 
2.099947e+00 1.174863e+00 -2.000830e-01 1.427698e+00 5.077025e-02 -1.384445e-02 3.734967e-01 -9.268236e-01 2.529149e+00 1.436186e+00 -2.175917e+00 -5.918178e-01 1.160983e+00 9.825492e-01 -1.657929e+00 -1.154734e+00 2.251857e+00 7.708267e-01 6.411231e-01 1.263855e+00 1.561985e+00 -6.909642e-01 -2.598746e+00 -8.209667e-01 5.091719e-01 1.153373e+00 -5.268156e-01 -6.550437e-01 -8.215566e-01 -5.275514e-01 -2.585931e-01 -6.951708e-01 -4.572979e-02 -5.512769e-01 4.630333e-01 -8.472476e-01 -1.900270e-01 -4.198477e-01 -5.592175e-01 3.446429e-01 -9.002212e-01 1.648890e-01 -1.562454e-01 -6.524673e-01 7.403304e-01 -6.150366e-01 8.388803e-01 -3.539195e-01 -8.818626e-02 1.159302e+00 -2.084323e+00 5.758894e-01 1.417115e+00 -4.643747e+00 2.481705e+00 4.243436e-02 -2.849756e+00 1.007022e+00 -4.604101e-01 3.164201e-01 -2.928803e+00 3.047101e+00 1.884761e+00 -2.168868e+00 
2.665744e+00 1.710071e+00 -1.463579e+00 8.227767e-01 9.222281e-02 -2.892225e-02 8.671298e-01 9.448500e-01 5.826946e-01 -1.044041e+00 -3.770487e-01 -1.265780e-01 -1.460237e+00 -1.064869e+00 -9.725280e-02 -6.245646e-01 7.099257e-01 5.531424e-01 4.716025e-01 -1.753622e+00 -1.778846e+00 -9.025008e-01 -8.746549e-01 -4.051237e-01 3.198787e-01 1.438041e+00 -2.469305e-01 -2.432060e-01 5.615270e-02 1.096549e-01 4.774510e-01 -4.293250e-01 2.736156e-01 3.495370e-01 -3.964186e-01 -5.097188e-01 -1.102330e+00 -6.966771e-01 -8.813556e-01 1.060823e+00 -1.047359e+00 6.645835e-01 4.738980e-02 -1.431883e+00 1.753995e+00 -2.419436e+00 1.678403e+00 -1.038479e+00 -5.438574e-01 1.099029e+00 -2.119792e+00 1.938469e+00 -1.738069e+00 7.656712e-01 -1.338618e-01 -6.319994e-01 1.150900e+00 -2.087949e-01 -2.757664e-01 3.341031e-01 7.373717e-01 1.317983e+00 -8.797968e-01 -1.938450e+00 
4.301449e+00 3.251497e+00 -1.460080e+00 3.866952e-01 -1.365177e-02 -2.190652e-03 8.636537e-01 -6.561892e-01 1.418054e-01 1.364794e+00 -1.448541e-03 -9.546687e-01 1.250358e+00 1.281852e+00 -7.120222e-01 -7.681455e-01 1.380876e+00 -5.201279e-01 -5.140932e-01 1.017766e+00 4.968514e-01 -1.399674e+00 -1.236787e+00 -2.091242e-02 9.234868e-02 1.267867e-01 -1.519140e-01 3.757799e-01 3.688636e-01 -1.548450e-02 1.077995e+00 2.193716e-02 1.062445e+00 -2.597179e-01 -5.446970e-01 -6.949214e-01 -1.818497e+00 -1.813293e+00 -9.098748e-01 1.937095e-01 -8.434916e-01 2.935970e-01 -6.262593e-02 -8.913936e-01 2.173450e-01 1.876932e-02 1.617159e-01 -7.250982e-01 1.001207e+00 3.980669e-01 -1.412726e+00 1.005914e+00 1.118879e+00 -1.861865e+00 7.454832e-01 1.293739e+00 -2.353818e+00 8.408820e-01 -3.556825e-01 -9.292451e-01 7.941040e-01 5.378494e-01 -2.182224e+00 -2.358983e+00 
2.367673e+00 2.193987e+00 -1.362905e+00 -6.535228e-01 -8.873467e-02 -2.898468e-03 5.234359e-01 -6.786947e-01 1.774165e-01 1.790957e+00 7.233567e-01 -4.869378e-01 -4.623488e-01 -9.520295e-01 -4.361173e-01 -9.809095e-01 -4.269974e-01 -6.265275e-01 1.233619e+00 1.792731e-01 -1.118832e+00 -1.661397e+00 -4.538459e-01 -1.480830e-01 -5.308253e-01 3.888291e-01 8.895083e-01 1.123003e+00 3.872458e-01 -2.162440e-01 -5.714055e-01 -1.002953e+00 -6.026551e-01 7.432323e-01 3.711658e-01 3.896609e-01 -2.009732e+00 -1.410384e+00 -1.433755e+00 7.488222e-01 5.673913e-01 -3.851761e-01 3.890432e-01 -1.095858e+00 6.973926e-03 -1.142982e+00 8.281770e-01 -1.402210e+00 -1.494468e-01 9.237114e-01 -1.965172e+00 1.265044e+00 -1.826506e-01 -5.540742e-01 3.902535e-01 4.260229e-01 -4.790393e-02 -1.162217e-01 1.356984e+00 3.292202e-01 -1.124848e+00 1.556844e+00 -7.767463e-01 -9.309591e-01 
2.171480e-02 1.081938e+00 -7.406632e-02 7.015069e-01 -6.176047e-03 -7.109449e-03 7.232064e-01 -5.502128e-01 -2.926794e-01 6.533730e-01 8.976882e-01 -8.180490e-02 6.496645e-01 2.522223e-01 -4.911335e-01 -6.109634e-01 8.571882e-01 -1.820163e-01 3.293169e-01 8.800000e-01 6.602458e-01 -1.576524e+00 -9.764956e-01 3.816687e-01 3.858953e-01 -7.574383e-01 3.399313e-02 1.117107e+00 1.101357e+00 -1.112190e+00 -2.476637e-01 -1.025697e+00 1.736141e+00 1.732088e+00 1.980147e-01 8.834417e-01 -2.660203e+00 -1.079392e+00 -8.140371e-01 -8.140925e-01 -3.410776e-01 -5.983789e-01 -1.632006e+00 -1.241790e+00 -6.390862e-02 -2.345455e-01 -4.461737e-01 3.725891e-01 7.891895e-01 -2.614449e-01 4.544965e-01 1.003517e+00 -5.927518e-01 5.427757e-01 1.321523e-01 -8.553154e-02 -2.638228e-01 -7.229671e-01 1.269450e+00 -3.200225e-01 -2.175696e+00 1.410537e+00 1.339926e+00 -1.212918e+00 
-2.504956e-01 1.085664e+00 -5.408141e-02 8.798624e-01 4.960467e-02 -1.312029e-02 4.753427e-01 -3.647058e-01 -4.294118e-01 8.735408e-01 1.136476e+00 -1.911517e-01 -7.569341e-02 -3.948167e-01 -6.364779e-01 -1.021503e+00 4.991702e-01 -6.445082e-01 -1.430032e-01 -4.226467e-01 -5.865215e-01 -1.809683e+00 -1.863311e-01 6.875974e-01 -1.571873e-01 2.409040e-01 1.443648e+00 4.924577e-01 -3.218134e-01 -4.197164e-01 2.060573e+00 4.657601e-02 -3.590873e-01 5.934263e-01 -2.734283e+00 1.320071e+00 -1.701119e+00 -1.175775e+00 6.620522e-01 -4.197328e-01 1.156632e+00 -4.019679e-01 -2.795878e+00 -7.532677e-01 -1.105635e+00 -1.285828e+00 6.910958e-01 -8.493898e-01 -4.380920e-01 9.461222e-01 -8.974895e-01 1.624837e-01 5.006320e-01 -6.084414e-03 -5.659900e-04 2.429124e-01 5.338781e-01 -6.146730e-01 7.448386e-01 2.962108e-02 -5.393470e-01 7.942003e-01 -7.410933e-02 3.674175e-03 
-8.931985e-02 1.416324e+00 -1.290624e-01 7.623886e-01 1.478906e-02 -9.601212e-03 6.554937e-01 -4.448773e-01 -1.876290e-01 3.888525e-01 7.952820e-01 -2.878821e-01 6.307243e-01 2.253704e-01 -2.480446e-01 -4.392739e-01 9.831882e-01 -1.501921e-01 2.481448e-01 8.128547e-02 -1.486783e-02 -1.234716e+00 -1.519945e-01 -2.331475e-01 2.791498e-01 3.698857e-01 6.265314e-01 -3.222964e-01 7.235425e-01 -2.234096e-01 9.373637e-01 -1.306479e+00 9.098626e-01 7.009343e-01 -8.713052e-01 9.691315e-01 -1.630909e+00 1.101587e+00 2.353809e-01 -6.261684e-01 1.023287e-01 -6.597745e-01 -3.737612e+00 -7.985172e-01 -8.494740e-01 -1.609228e+00 3.266582e-01 6.392364e-02 -2.339823e-01 6.092597e-01 1.463531e-01 8.031100e-01 1.012596e-01 -3.529321e-01 1.015739e+00 3.696559e-02 -8.248617e-01 5.372814e-03 1.211481e+00 -5.968259e-01 -1.202042e+00 1.280352e+00 7.295807e-01 -9.816975e-01 
-6.226526e-01 1.134625e+00 6.736371e-02 1.193176e-01 -1.628845e-02 1.857979e-03 1.713926e-01 -2.021518e-01 -7.447949e-02 4.754904e-01 7.083733e-01 -1.052394e-01 2.808492e-01 -2.403263e-01 -4.265079e-01 -7.317617e-01 2.387806e-01 -9.998012e-01 -1.744885e-01 -1.507781e-01 -2.845453e-01 -1.365570e+00 2.693511e-01 3.455253e-01 -4.674616e-01 -3.520005e-01 1.361246e+00 4.527669e-01 -1.063832e-01 -1.022216e+00 8.834533e-01 1.338515e+00 -3.187841e-01 -3.689363e-01 -9.023081e-01 8.363875e-01 1.483674e+00 5.518445e-02 -1.119756e+00 1.650582e+00 -9.280269e-01 -1.587741e+00 -1.755391e+00 -1.330235e+00 -1.466631e+00 -1.160957e+00 -7.334187e-02 -1.434790e+00 -8.479768e-01 1.380316e+00 -1.394688e+00 2.897202e-01 1.290018e+00 -7.585629e-01 2.026808e-01 7.709632e-01 5.003527e-02 -6.766178e-01 8.835795e-01 3.283312e-01 -8.952454e-01 8.058687e-01 4.514798e-01 1.127770e-01 
-3.620835e-01 1.147985e+00 8.453020e-02 6.104200e-01 2.424510e-03 -1.045946e-02 5.985179e-01 -2.739069e-01 1.949589e-01 3.735007e-02 4.977178e-01 -2.847584e-01 7.084816e-01 -5.655549e-02 -1.835971e-01 -2.951563e-02 6.656233e-01 -7.716075e-01 5.912346e-01 -5.331964e-02 -4.380729e-01 -8.707859e-01 7.765188e-01 -6.552240e-01 -2.820180e-01 5.807048e-01 5.494421e-01 1.685588e-03 -5.010854e-01 5.990280e-01 9.835226e-01 -9.595348e-01 3.961774e-01 -4.417538e-01 4.394583e-01 1.669967e+00 -1.841869e+00 -2.182474e-01 4.129330e-01 5.393426e-01 3.354559e-01 -4.427260e-01 -1.972141e+00 1.610640e-01 -1.417902e+00 -1.667328e+00 -5.179171e-01 -7.153031e-01 -3.486088e-01 -8.053846e-02 -4.671414e-01 6.555159e-01 2.523763e-01 -7.999395e-01 8.301480e-01 5.915454e-01 -6.411171e-01 -3.668146e-01 1.277247e+00 1.718063e-01 -1.041694e+00 6.286047e-01 9.202287e-01 -1.589756e-01 
-7.373193e-01 8.233482e-01 1.245215e-01 5.472307e-01 1.539569e-02 -1.159706e-02 2.723201e-01 -1.156795e-01 4.011308e-02 2.346651e-01 3.802284e-01 -1.099535e-01 3.877642e-01 -2.559287e-01 -3.649681e-01 -4.162097e-01 -5.405172e-02 -9.832523e-01 -1.176915e-01 -3.011090e-01 -6.239480e-02 -8.692822e-01 8.048995e-02 -4.057825e-02 1.106241e-01 -4.006601e-01 2.809474e-01 4.203443e-01 4.198419e-01 -2.472706e-01 -4.689606e-01 9.145816e-01 4.632729e-01 7.530903e-01 -4.037863e-01 -1.480208e+00 8.583055e-02 4.792748e-01 1.151545e+00 2.095216e+00 -9.587133e-01 -4.364340e-01 -4.554203e-01 -9.471415e-01 -1.345807e+00 -1.282861e+00 -1.611438e+00 -1.246639e+00 -8.771126e-01 -1.060369e-01 -8.464127e-01 1.687989e-01 6.211532e-01 -8.634482e-01 3.098616e-01 6.268321e-01 -3.366199e-01 -6.581213e-01 8.598005e-01 3.774829e-01 -9.643013e-01 4.849691e-01 4.686084e-01 4.571200e-01 
-4.328064e-01 1.034982e+00 1.427895e-01 7.264671e-01 1.265457e-02 -1.059840e-02 4.755660e-01 -1.815219e-01 8.171450e-02 2.338419e-01 2.352210e-01 -1.538463e-01 5.879442e-01 -1.811325e-01 -8.198671e-02 -6.921789e-02 5.760235e-01 -6.784978e-01 4.186017e-01 -2.267856e-01 3.399553e-01 -1.055576e+00 2.706578e-01 -2.293661e-02 2.083599e-01 -2.826004e-01 -1.058344e-01 8.205558e-01 4.766030e-01 -2.162261e-01 -3.033168e-01 -2.275363e-01 1.006554e+00 5.613838e-01 1.062242e-01 -3.371840e-01 -1.685652e+00 -2.033786e-01 1.174527e+00 7.784394e-01 -5.719390e-01 -6.537918e-02 -5.765089e-01 6.100776e-02 -7.306604e-01 -7.777546e-01 -1.428684e+00 -1.030264e+00 -3.868362e-01 -1.059334e+00 -6.888744e-01 5.590921e-01 -8.852184e-02 -7.427707e-01 8.544891e-01 4.262293e-01 -4.460531e-01 -4.521809e-02 9.844932e-01 1.813349e-01 -6.959775e-01 6.486811e-01 7.730221e-01 7.346864e-02 
-4.511129e-01 8.998236e-01 4.756386e-02 5.739398e-01 1.314741e-02 3.838434e-03 1.943946e-02 -1.863135e-01 1.560922e-01 3.870411e-01 2.381957e-01 -8.991968e-02 5.304676e-01 -3.457729e-01 -2.536667e-01 -4.097545e-01 2.211578e-01 -9.886732e-01 -2.204084e-01 -2.544676e-01 3.556604e-01 -9.589482e-01 -2.565048e-01 2.377214e-01 4.212022e-01 -7.206891e-01 -4.964022e-01 6.193253e-01 5.128656e-01 -1.810465e-02 -4.571617e-01 4.960186e-01 -1.640419e-01 1.067350e+00 4.006461e-01 -8.311630e-01 -6.785450e-01 3.238660e-01 1.086675e+00 4.378367e-01 -8.455587e-01 -2.174053e-01 -3.043297e-01 -3.331352e-01 -7.493967e-01 -8.626531e-01 -1.278902e+00 -8.266122e-01 -7.695135e-01 -7.334113e-01 -5.535688e-01 1.195736e-01 -1.055687e-02 -6.583470e-01 4.619971e-01 7.097100e-02 -4.150786e-01 -9.013870e-02 4.409143e-01 -7.420371e-02 -5.859530e-01 7.440579e-01 5.199763e-02 2.288929e-01 
5.290387e-02 9.545420e-01 -6.502136e-02 6.547664e-01 8.436979e-03 5.280910e-03 1.729827e-01 -3.452499e-01 3.527084e-01 2.707564e-01 2.241487e-01 -2.099082e-01 6.471195e-01 -2.662635e-01 2.302604e-03 -1.841226e-01 7.658130e-01 -5.582441e-01 -5.557253e-02 -4.197931e-02 7.587152e-01 -1.173863e+00 -4.116920e-01 4.761094e-01 4.854889e-01 -6.427578e-01 -1.905857e-01 6.509164e-01 2.037708e-01 3.906520e-01 2.750590e-01 -7.133271e-01 -2.435440e-01 5.617247e-01 3.233893e-01 -2.938150e-01 -8.384884e-01 2.076237e-01 2.102143e-01 -2.871887e-01 -2.581452e-01 3.107994e-01 -1.899731e-01 2.271830e-01 -4.451410e-01 -6.387948e-01 -9.639072e-01 -9.107159e-01 -7.382171e-01 -8.441451e-01 -2.949004e-01 6.563547e-02 -3.087009e-01 -2.677178e-01 6.478911e-01 -1.061183e-01 -1.045805e-01 4.277427e-01 3.751655e-01 -5.433021e-02 -3.815329e-02 7.908366e-01 1.422612e-01 8.169682e-02 
-1.617568e-01 6.420940e-01 -8.858261e-02 4.294981e-01 6.731255e-03 -3.267585e-03 6.253814e-02 -2.692636e-01 4.061461e-01 2.074963e-01 6.978337e-02 -2.876038e-01 4.930063e-01 -2.611788e-01 -3.648262e-01 -2.970248e-01 4.363952e-01 -1.086740e+00 -3.503883e-01 -5.084406e-03 3.384179e-02 -8.058093e-01 -5.492367e-02 3.560573e-02 7.297388e-03 1.150782e-02 -3.453621e-01 -6.440640e-02 2.187747e-01 5.986099e-01 -4.810212e-01 -5.730406e-02 2.259256e-01 6.837486e-01 -5.688985e-01 -3.590737e-01 3.841928e-01 6.701693e-01 1.531946e-01 -4.192752e-01 -5.831536e-01 1.490851e-01 3.537228e-01 4.390444e-01 3.621948e-02 -4.251636e-01 -1.051619e+00 -1.042789e+00 -1.064508e+00 -9.421608e-01 -6.329249e-01 -3.358405e-01 -2.323514e-01 -4.017864e-01 2.290350e-01 -1.621457e-01 -1.757439e-01 8.949725e-02 3.063688e-02 -5.739277e-02 -2.208219e-01 5.883538e-01 -3.032376e-01 3.491432e-01 
1.688444e-01 7.251367e-01 -1.054915e-01 6.441228e-01 9.196493e-03 -8.462359e-03 2.955345e-01 -2.766780e-01 4.467281e-01 1.894727e-01 -9.506511e-02 -2.629353e-01 7.031179e-01 -4.285135e-01 -1.401402e-01 5.823059e-02 3.628730e-01 -6.182604e-01 3.460048e-01 -1.380309e-01 3.113198e-01 -5.162389e-01 -9.566729e-02 -2.313605e-01 4.357361e-01 8.115676e-02 -2.866576e-01 -1.393158e-01 3.870992e-01 5.909808e-01 -1.954615e-01 -4.574603e-01 1.764551e-01 3.922304e-01 -1.842096e-01 -2.588723e-01 -2.212907e-01 2.882997e-01 2.110760e-01 -9.219830e-02 -2.739618e-01 -2.754969e-02 -1.232841e-01 5.295593e-01 1.267775e-01 -6.921973e-02 -1.964964e-01 -6.375427e-01 -1.039073e+00 -1.155056e+00 -8.371709e-01 -6.226716e-01 -4.112355e-01 -2.146573e-01 2.735568e-01 -1.661391e-01 1.538323e-01 3.579261e-01 1.166189e-01 1.338425e-01 1.905993e-01 5.467075e-01 -8.416907e-03 3.212209e-01 
-1.320672e-01 4.468820e-01 -9.482362e-02 3.457485e-01 5.812182e-03 -1.796842e-04 2.737010e-02 -2.022229e-01 5.051281e-01 3.196781e-02 -1.294911e-01 4.362636e-02 3.270776e-01 -4.405475e-01 -2.638321e-03 -3.988671e-01 -8.381783e-02 -5.431545e-01 -1.070041e-01 -5.495582e-01 6.674859e-02 -2.456270e-01 -2.455400e-01 -2.809214e-01 1.086620e-01 2.185554e-01 -4.612394e-01 -6.038961e-02 1.157617e-01 2.850692e-01 -4.710562e-01 1.755274e-01 3.911500e-01 4.584755e-01 -5.753017e-01 -3.383340e-01 1.657930e-01 6.074880e-01 3.756601e-01 -1.590339e-02 -3.549705e-01 -3.631469e-01 -1.055000e-01 2.106208e-01 7.089901e-02 3.259444e-02 -1.139120e-01 -1.800259e-01 -6.934385e-01 -1.062516e+00 -1.043942e+00 -8.733965e-01 -4.463270e-01 -4.188059e-01 -2.405195e-03 -1.869630e-01 -7.825543e-02 6.462277e-02 -7.998819e-02 4.431398e-02 -1.496844e-01 4.099604e-01 -3.213383e-01 3.956500e-01 
1.163335e-01 6.247034e-01 -6.944428e-02 6.207942e-01 8.826007e-03 7.327245e-04 1.593562e-01 4.801820e-03 4.798045e-01 -2.318596e-01 1.292009e-01 -5.813099e-02 2.493720e-01 -1.634568e-01 1.355553e-01 -3.797149e-01 3.456087e-01 -1.249097e-01 1.268409e-01 -4.678303e-01 2.838182e-01 -2.934787e-01 -1.259394e-01 -3.213369e-01 3.866316e-01 1.902911e-01 -1.358963e-01 -5.440150e-02 2.587800e-01 2.671661e-01 -2.978257e-01 -2.506404e-01 3.779633e-01 4.817793e-01 -2.590415e-01 -5.050808e-01 -2.786232e-01 3.142783e-01 4.700633e-01 1.964916e-01 -1.833281e-01 -2.932863e-01 -3.246450e-01 3.204423e-01 2.245921e-01 -7.115302e-03 -7.652620e-02 -4.320515e-01 -8.501203e-01 -1.077480e+00 -9.589832e-01 -7.646837e-01 -3.618659e-01 -2.771118e-01 1.103310e-01 -8.054964e-02 1.814041e-01 2.381987e-01 1.353848e-01 2.555311e-01 1.657843e-01 4.205693e-01 7.833668e-02 3.850636e-01 
-1.460035e-01 3.435349e-01 -7.248114e-02 2.669323e-01 4.547772e-03 -7.253698e-03 1.312338e-01 3.978990e-03 4.145506e-02 -2.041607e-01 2.607066e-01 -9.264540e-02 1.726111e-01 -2.221718e-02 -1.121582e-01 -5.876918e-01 8.804405e-02 -3.106720e-01 -2.718948e-01 -5.555509e-01 -7.746723e-03 -2.011445e-01 -2.165389e-01 -5.535181e-02 -7.386448e-02 -1.479652e-02 -3.348136e-01 1.585479e-01 -8.735612e-02 -4.269591e-02 -4.550728e-01 2.955014e-01 4.347848e-01 3.688661e-01 -4.207514e-01 -3.060638e-01 -2.896826e-02 3.953399e-01 3.112177e-01 5.584518e-02 6.135321e-03 -2.230028e-01 -2.647442e-01 -2.872058e-01 -3.130615e-01 9.039227e-02 4.565783e-01 2.721572e-01 -4.894673e-01 -9.158778e-01 -9.401153e-01 -9.290458e-01 -4.735597e-01 -4.550942e-01 -1.459506e-01 -2.035586e-01 -9.971113e-02 8.831099e-03 -8.215985e-02 8.769614e-02 -1.498465e-01 3.206538e-01 -2.537270e-01 3.562953e-01 
8.735910e-02 5.779817e-01 -3.953445e-02 5.827543e-01 8.248022e-03 -1.087346e-02 3.076343e-01 -1.321820e-01 -1.073627e-03 3.871687e-02 4.100674e-01 -2.152093e-01 2.426665e-01 -6.406632e-02 -4.812159e-02 -4.192620e-01 3.488296e-01 -4.985838e-02 1.069235e-01 -3.392835e-01 2.036776e-01 -2.640925e-01 4.288572e-02 -1.731352e-02 6.335865e-02 -1.825495e-01 -1.129391e-01 1.265630e-01 2.066202e-01 -9.550270e-04 -2.488354e-01 4.524006e-02 3.791753e-01 4.053985e-01 -5.192209e-02 -4.091231e-01 -3.432194e-01 1.168610e-04 4.012592e-01 5.357515e-01 2.117584e-01 -3.470630e-01 -5.912494e-01 -6.732578e-02 4.606703e-01 6.399260e-01 4.635683e-01 -1.941789e-01 -7.126165e-01 -1.164249e+00 -1.228534e+00 -1.111973e+00 -5.750019e-01 -4.813646e-01 -5.874948e-02 -1.185754e-01 1.076915e-01 1.555887e-01 1.635018e-01 2.740917e-01 1.469988e-01 3.724464e-01 1.506506e-01 3.726465e-01 
-1.369001e-01 2.736687e-01 -5.090202e-02 2.004602e-01 3.539997e-03 -5.151806e-03 7.093414e-02 -2.687956e-01 -3.106795e-02 2.957439e-01 2.093442e-01 -2.867924e-01 9.358471e-02 -4.368568e-02 -1.566403e-01 -3.896829e-01 5.093147e-02 -3.108087e-01 -2.749582e-01 -2.867088e-01 -1.587544e-01 -2.853075e-01 3.927623e-02 8.603475e-02 -3.924356e-01 -3.172644e-01 -2.544880e-01 2.361121e-01 -5.115680e-02 -3.120955e-02 -2.978002e-01 2.009220e-01 2.174404e-01 3.465412e-01 -2.356642e-01 -2.233189e-01 -2.643492e-01 -1.021946e-01 2.363911e-01 5.595871e-01 5.073021e-01 -2.143961e-01 -7.178393e-01 -9.123647e-01 -1.822996e-01 8.355912e-01 1.379908e+00 1.204393e+00 2.100078e-01 -6.426808e-01 -1.021767e+00 -1.434269e+00 -1.159929e+00 -1.048395e+00 -5.296483e-01 -4.064555e-01 -2.195765e-01 -7.605804e-02 -9.052758e-02 8.296584e-02 -1.325003e-01 2.673374e-01 -1.921342e-01 3.067262e-01 
8.727643e-02 5.373349e-01 -2.112130e-02 5.460372e-01 7.702179e-03 2.906968e-04 8.827908e-02 -2.439762e-01 2.150524e-01 2.977459e-01 1.795383e-01 -3.346962e-01 1.277652e-01 6.751881e-02 7.203523e-02 -2.725312e-01 1.097261e-01 -1.951776e-01 1.798652e-01 -8.294291e-02 -8.732396e-03 -3.273369e-01 3.137007e-01 -4.626772e-02 -1.422625e-01 -2.784725e-01 1.218472e-01 2.121309e-01 1.934009e-01 2.148220e-03 -1.914382e-01 -3.464726e-02 1.987943e-01 1.148882e-01 -1.475429e-01 -5.771390e-02 -5.942359e-02 -2.996018e-01 8.103925e-02 5.655129e-01 5.761594e-01 -4.280316e-02 -5.472556e-01 -3.372374e-01 3.345495e-01 2.162114e-01 -3.084841e-01 -6.983061e-01 -1.481027e-01 3.361135e-01 3.526702e-02 -8.358185e-01 -9.968642e-01 -9.820297e-01 -3.645648e-01 -2.984235e-01 2.166726e-03 7.140380e-02 1.626044e-01 2.551306e-01 1.583638e-01 3.353827e-01 1.924073e-01 3.478575e-01 
-1.100079e-01 2.146698e-01 -2.999663e-02 1.460593e-01 2.849056e-03 4.338670e-03 -1.551139e-01 -2.531527e-01 1.457224e-01 3.581878e-01 -8.006910e-02 -3.894371e-01 1.314691e-01 1.862217e-01 -1.085588e-01 -1.819674e-01 -2.802837e-01 -5.893838e-01 5.429154e-02 1.311403e-01 -5.072823e-01 -4.981704e-01 3.399950e-01 7.754632e-02 -6.763418e-01 -3.293102e-01 1.021141e-01 3.573277e-01 -1.662233e-01 -1.620289e-01 -3.745180e-01 1.528091e-01 1.143078e-01 1.130906e-01 -1.047154e-01 2.529276e-01 -3.190858e-02 -4.556343e-01 -2.021872e-01 6.087103e-01 1.201282e+00 3.912598e-01 -7.167876e-01 -1.686390e+00 -1.174915e+00 1.847478e-01 1.617973e+00 2.001351e+00 1.072798e+00 -1.425694e-03 -8.487180e-01 -1.658483e+00 -1.535196e+00 -1.395846e+00 -6.987811e-01 -4.641434e-01 -2.289899e-01 -8.706330e-02 -6.339796e-02 8.474271e-02 -8.417367e-02 2.324000e-01 -1.373137e-01 2.654483e-01 
9.756254e-02 4.911849e-01 -8.851646e-03 5.035852e-01 7.149071e-03 4.177644e-03 -3.342125e-02 -2.184327e-01 3.603634e-01 2.117087e-01 -5.131219e-02 -2.326348e-01 1.157507e-01 1.579401e-01 2.425842e-01 -2.735403e-01 -3.075892e-01 -1.934808e-01 4.478854e-01 5.466628e-02 -1.277704e-01 -1.939087e-01 1.190155e-01 -3.131557e-01 -8.173914e-02 4.213232e-02 2.295486e-01 7.428604e-02 8.347452e-02 -3.429001e-02 -1.396832e-01 -4.469778e-02 4.603984e-02 -5.761696e-02 1.628409e-01 4.309361e-01 2.181531e-01 -5.089332e-01 -5.219385e-01 -4.407147e-02 6.534269e-01 5.418999e-01 3.217322e-02 -6.754853e-01 -6.927533e-01 -4.973206e-01 -1.790943e-01 -2.635214e-01 3.005017e-01 7.968828e-01 6.471225e-01 -2.203642e-01 -7.880711e-01 -1.277257e+00 -7.639166e-01 -5.527244e-01 -1.170129e-01 -3.622429e-03 1.539946e-01 2.235223e-01 1.792869e-01 2.933124e-01 2.180286e-01 3.165472e-01 
-8.013376e-02 1.564955e-01 -1.027651e-02 9.171288e-02 2.304738e-03 2.595272e-03 -1.786370e-01 -1.947079e-01 1.932422e-01 1.871073e-01 -9.899165e-02 -2.964876e-01 -7.069550e-02 2.919553e-01 9.336887e-02 -2.559469e-01 -6.115019e-01 -4.011555e-01 3.216762e-01 2.072262e-01 -5.943842e-01 -2.789778e-01 6.706475e-02 -1.205388e-01 -6.202135e-01 1.126582e-01 2.082381e-01 2.786178e-01 -4.429597e-01 -4.181607e-01 -2.002599e-01 4.840439e-01 3.263350e-01 -6.150771e-02 -3.029324e-01 -2.368416e-02 2.808978e-01 1.133216e-01 -2.628646e-01 -5.366060e-01 6.464779e-02 1.029506e-01 2.607005e-01 -2.312483e-01 -2.728513e-01 -1.871656e-01 1.266315e-01 5.785484e-01 9.319126e-01 9.979279e-01 3.964287e-01 -6.396616e-01 -1.101888e+00 -1.659625e+00 -1.266860e+00 -9.685331e-01 -4.931747e-01 -2.107047e-01 -7.479104e-02 6.743870e-02 -3.217745e-02 1.974120e-01 -9.053499e-02 2.252426e-01 