# vtk DataFile Version 2.0
Comment goes here
ASCII

DATASET STRUCTURED_POINTS
FIELD FieldData 1
TIME 1 1 double
1.32500000
DIMENSIONS    384   64   1

ORIGIN    0.000   0.000   0.000
SPACING   0.078125 0.078125   1.000

POINT_DATA   24576
SCALARS Concentration double
LOOKUP_TABLE default

0 0 0 0 0 0 0 0 0 0 0 0 0 0 0 0 0 0 0 0 0 0 0 0 0 0 0 0 0 0 0 0 0 0 0 0 0 0 0 0 0 0 0 0 0 0 0 0 0 0 0 0 0 0 0 0 0 0 0 0 0 0 0 0 0 0 0 0 0 0 0 0 0 0 0 0 0 0 0 0 0 0 0 0 0 0 0 0 0 0 0 0 0 0 0 0 0 0 0 0 0 0 0 0 0 0 0 0 0 0 0 0 0 0 0 0 0 0 0 0 0 0 0 0 0 0 0 0 0 0 0 0 0 0 0 0 0 0 0 0 0 0 0 0 0 0 0 0 0 0 0 0 0 0 0 0 0 0 0 0 0 0 0 0 0 0 0 0 0 0 0 0 0 0 0 0 0 0 0 0 0 0 0 0 0 0 0 0 0 0 0 0 0 0 0 0 0 0 0 0 0 0 0 0 0 0 0 0 0 0 0 0 0 0 0 0 0 0 0 0 0 0 0 0 0 0 0 0 0 0 0 0 0 0 0 0 0 0 0 0 0 0 0 0 0 0 0 0 0 0 0 0 0 0 0 0 0 0 0 0 0 0 0 0 0 0 0 0 0 0 0 0 0 0 0 0 0 0 0 0 0 0 0 0 0 0 0 0 0 0 0 0 0 0 0 0 0 0 0 0 0 0 0 0 0 0 0 0 0 0 0 0 0 0 0 0 0 0 0 0 0 0 0 0 0 0 0 0 0 0 0 0 0 0 0 0 0 0 0 0 0 0 0 0 0 0 0 0 0 0 0 0 0 0 0 0 0 0 0 0 0 0 0 0 0 0 0 0 0 0 0 0 0 0 0 0 0 0 0 0 0 0 0 0 
0 0 0 0 0 0 0 0 0 0 0 0 0 0 0 0 0 0 0 0 0 0 0 0 0 0 0 0 0 0 0 0 0 0 0 0 0 0 0 0 0 0 0 0 0 0 0 0 0 0 0 0 0 0 0 0 0 0 0 0 0 0 0 0 0 0 0 0 0 0 0 0 0 0 0 0 0 0 0 0 0 0 0 0 0 0 0 0 0 0 0 0 0 0 0 0 0 0 0 0 0 0 0 0 0 0 0 0 0 0 0 0 0 0 0 0 0 0 0 0 0 0 0 0 0 0 0 0 0 0 0 0 0 0 0 0 0 0 0 0 0 0 0 0 0 0 0 0 0 0 0 0 0 0 0 0 0 0 0 0 0 0 0 0 0 0 0 0 0 0 0 0 0 0 0 0 0 0 0 0 0 0 0 0 0 0 0 0 0 0 0 0 0 0 0 0 0 0 0 0 0 0 0 0 0 0 0 0 0 0 0 0 0 0 0 0 0 0 0 0 0 0 0 0 0 0 0 0 0 0 0 0 0 0 0 0 0 0 0 0 0 0 0 0 0 0 0 0 0 0 0 0 0 0 0 0 0 0 0 0 0 0 0 0 0 0 0 0 0 0 0 0 0 0 0 0 0 0 0 0 0 0 0 0 0 0 0 0 0 0 0 0 0 0 0 0 0 0 0 0 0 0 0 0 0 0 0 0 0 0 0 0 0 0 0 0 0 0 0 0 0 0 0 0 0 0 0 0 0 0 0 0 0 0 0 0 0 0 0 0 0 0 0 0 0 0 0 0 0 0 0 0 0 0 0 0 0 0 0 0 0 0 0 0 0 0 0 0 0 0 0 0 0 0 0 0 0 0 0 0 0 0 0 0 
0 0 0 0 0 0 0 0 0 0 0 0 0 0 0 0 0 0 0 0 0 0 0 0 0 0 0 0 0 0 0 0 0 0 0 0 0 0 0 0 0 0 0 0 0 0 0 0 0 0 0 0 0 0 0 0 0 0 0 0 0 0 0 0 0 0 0 0 0 0 0 0 0 0 0 0 0 0 0 0 0 0 0 0 0 0 0 0 0 0 0 0 0 0 0 0 0 0 0 0 0 0 0 0 0 0 0 0 0 0 0 0 0 0 0 0 0 0 0 0 0 0 0 0 0 0 0 0 0 0 0 0 0 0 0 0 0 0 0 0 0 0 0 0 0 0 0 0 0 0 0 0 0 0 0 0 0 0 0 0 0 0 0 0 0 0 0 0 0 0 0 0 0 0 0 0 0 0 0 0 0 0 0 0 0 0 0 0 0 0 0 0 0 0 0 0 0 0 0 0 0 0 0 0 0 0 0 0 0 0 0 0 0 0 0 0 0 0 0 0 0 0 0 0 0 0 0 0 0 0 0 0 0 0 0 0 0 0 0 0 0 0 0 0 0 0 0 0 0 0 0 0 0 0 0 0 0 0 0 0 0 0 0 0 0 0 0 0 0 0 0 0 0 0 0 0 0 0 0 0 0 0 0 0 0 0 0 0 0 0 0 0 0 0 0 0 0 0 0 0 0 0 0 0 0 0 0 0 0 0 0 0 0 0 0 0 0 0 0 0 0 0 0 0 0 0 0 0 0 0 0 0 0 0 0 0 0 0 0 0 0 0 0 0 0 0 0 0 0 0 0 0 0 0 0 0 0 0 0 0 0 0 0 0 0 0 0 0 0 0 0 0 0 0 0 0 0 0 0 0 0 0 0 0 
0 0 0 0 0 0 0 0 0 0 0 0 0 0 0 0 0 0 0 0 0 0 0 0 0 0 0 0 0 0 0 0 0 0 0 0 0 0 0 0 0 0 0 0 0 0 0 0 0 0 0 0 0 0 0 0 0 0 0 0 0 0 0 0 0 0 0 0 0 0 0 0 0 0 0 0 0 0 0 0 0 0 0 0 0 0 0 0 0 0 0 0 0 0 0 0 0 0 0 0 0 0 0 0 0 0 0 0 0 0 0 0 0 0 0 0 0 0 0 0 0 0 0 0 0 0 0 0 0 0 0 0 0 0 0 0 0 0 0 0 0 0 0 0 0 0 0 0 0 0 0 0 0 0 0 0 0 0 0 0 0 0 0 0 0 0 0 0 0 0 0 0 0 0 0 0 0 0 0 0 0 0 0 0 0 0 0 0 0 0 0 0 0 0 0 0 0 0 0 0 0 0 0 0 0 0 0 0 0 0 0 0 0 0 0 0 0 0 0 0 0 0 0 0 0 0 0 0 0 0 0 0 0 0 0 0 0 0 0 0 0 0 0 0 0 0 0 0 0 0 0 0 0 0 0 0 0 0 0 0 0 0 0 0 0 0 0 0 0 0 0 0 0 0 0 0 0 0 0 0 0 0 0 0 0 0 0 0 0 0 0 0 0 0 0 0 0 0 0 0 0 0 0 0 0 0 0 0 0 0 0 0 0 0 0 0 0 0 0 0 0 0 0 0 0 0 0 0 0 0 0 0 0 0 0 0 0 0 0 0 0 0 0 0 0 0 0 0 0 0 0 0 0 0 0 0 0 0 0 0 0 0 0 0 0 0 0 0 0 0 0 0 0 0 0 0 0 0 0 0 0 0 0 0 
0 0 0 0 0 0 0 0 0 0 0 0 0 0 0 0 0 0 0 0 0 0 0 0 0 0 0 0 0 0 0 0 0 0 0 0 0 0 0 0 0 0 0 0 0 0 0 0 0 0 0 0 0 0 0 0 1.048952e-15 1.453178e-15 1.932557e-15 2.470778e-15 3.039783e-15 3.603159e-15 4.118770e-15 4.544971e-15 4.846017e-15 4.996845e-15 4.987464e-15 4.822239e-15 4.520934e-15 4.112319e-15 3.632984e-15 3.118840e-15 2.604540e-15 2.116830e-15 1.676228e-15 1.293783e-15 0 0 0 0 0 0 0 0 0 0 0 0 0 0 0 0 0 0 0 0 0 0 0 0 0 0 0 0 0 0 0 0 0 0 0 0 0 0 0 0 0 0 0 0 0 0 0 0 0 0 0 0 0 0 0 0 0 0 0 0 0 0 0 0 0 0 0 0 0 0 0 0 0 0 0 0 0 0 0 0 0 0 0 0 0 0 0 0 0 0 0 0 0 0 0 0 0 0 0 0 0 0 0 0 0 0 0 0 0 0 0 0 0 0 0 0 0 0 0 0 0 0 0 0 0 0 0 0 0 0 0 0 0 0 0 0 0 0 0 0 0 0 0 0 0 0 0 0 0 0 0 0 0 0 0 0 0 0 0 0 0 0 0 0 0 0 0 0 0 0 0 0 0 0 0 0 0 0 0 0 0 0 0 0 0 0 0 0 0 0 0 0 0 0 0 0 0 0 0 0 0 0 0 0 0 0 0 0 0 0 0 0 0 0 0 0 0 0 0 0 0 0 0 0 0 0 0 0 0 0 0 0 0 0 0 0 0 0 0 0 0 0 0 0 0 0 0 0 0 0 0 0 0 0 0 0 0 0 0 0 0 0 0 0 0 0 0 0 0 0 0 0 0 0 0 0 0 0 0 0 0 0 0 0 0 0 0 0 0 0 0 0 0 0 0 0 0 0 0 0 0 0 0 0 0 0 0 0 
0 0 0 0 0 0 0 0 0 0 0 0 0 0 0 0 0 0 0 0 0 0 0 0 0 0 0 0 0 0 0 0 0 0 0 0 0 0 0 0 0 0 0 0 0 0 0 0 0 0 0 1.018395e-15 1.756052e-15 2.887133e-15 4.528480e-15 6.795142e-15 9.760158e-15 1.344911e-14 1.778999e-14 2.262966e-14 2.770088e-14 3.267710e-14 3.717524e-14 4.083394e-14 4.334210e-14 4.449531e-14 4.422211e-14 4.257891e-14 3.975831e-14 3.602275e-14 3.170547e-14 2.711921e-14 2.257060e-14 1.828353e-14 1.443482e-14 1.110922e-14 8.346529e-15 6.122543e-15 4.391736e-15 3.080665e-15 2.116775e-15 1.424716e-15 0 0 0 0 0 0 0 0 0 0 0 0 0 0 0 0 0 0 0 0 0 0 0 0 0 0 0 0 0 0 0 0 0 0 0 0 0 0 0 0 0 0 0 0 0 0 0 0 0 0 0 0 0 0 0 0 0 0 0 0 0 0 0 0 0 0 0 0 0 0 0 0 0 0 0 0 0 0 0 0 0 0 0 0 0 0 0 0 0 0 0 0 0 0 0 0 0 0 0 0 0 0 0 0 0 0 0 0 0 0 0 0 0 0 0 0 0 0 0 0 0 0 0 0 0 0 0 0 0 0 0 0 0 0 0 0 0 0 0 0 0 0 0 0 0 0 0 0 0 0 0 0 0 0 0 0 0 0 0 0 0 0 0 0 0 0 0 0 0 0 0 0 0 0 0 0 0 0 0 0 0 0 0 0 0 0 0 0 0 0 0 0 0 0 0 0 0 0 0 0 0 0 0 0 0 0 0 0 0 0 0 0 0 0 0 0 0 0 0 0 0 0 0 0 0 0 0 0 0 0 0 0 0 0 0 0 0 0 0 0 0 0 0 0 0 0 0 0 0 0 0 0 0 0 0 0 0 0 0 0 0 0 0 0 0 0 0 0 0 0 0 0 0 0 0 0 0 0 0 0 0 0 0 0 0 0 0 0 0 0 0 0 0 0 0 0 0 0 0 0 0 0 
0 0 0 0 0 0 0 0 0 0 0 0 0 0 0 0 0 0 0 0 0 0 0 0 0 0 0 0 0 0 0 0 0 0 0 0 0 0 0 0 0 0 0 0 0 0 0 0 1.345939e-15 2.699202e-15 5.121866e-15 9.228119e-15 1.580817e-14 2.581864e-14 4.025208e-14 6.003432e-14 8.574972e-14 1.175033e-13 1.546257e-13 1.956793e-13 2.383698e-13 2.798394e-13 3.169008e-13 3.465135e-13 3.661916e-13 3.743260e-13 3.704789e-13 3.552726e-13 3.304281e-13 2.982522e-13 2.615358e-13 2.229281e-13 1.849073e-13 1.493217e-13 1.175341e-13 9.021662e-14 6.760963e-14 4.949141e-14 3.543191e-14 2.481967e-14 1.703348e-14 1.145788e-14 7.564660e-15 4.903876e-15 3.125819e-15 1.959902e-15 1.210531e-15 0 0 0 0 0 0 0 0 0 0 0 0 0 0 0 0 0 0 0 0 0 0 0 0 0 0 0 0 0 0 0 0 0 0 0 0 0 0 0 0 0 0 0 0 0 0 0 0 0 0 0 0 0 0 0 0 0 0 0 0 0 0 0 0 0 0 0 0 0 0 0 0 0 0 0 0 0 0 0 0 0 0 0 0 0 0 0 0 0 0 0 0 0 0 0 0 0 0 0 0 0 0 0 0 0 0 0 0 0 0 0 0 0 0 0 0 0 0 0 0 0 0 0 0 0 0 0 0 0 0 0 0 0 0 0 0 0 0 0 0 0 0 0 0 0 0 0 0 0 0 0 0 0 0 0 0 0 0 0 0 0 0 0 0 0 0 0 0 0 0 0 0 0 0 0 0 0 0 0 0 0 0 0 0 0 0 0 0 0 0 0 0 0 0 0 0 0 0 0 0 0 0 0 0 0 0 0 0 0 0 0 0 0 0 0 0 0 0 0 0 0 0 0 0 0 0 0 0 0 0 0 0 0 0 0 0 0 0 0 0 0 0 0 0 0 0 0 0 0 0 0 0 0 0 0 0 0 0 0 0 0 0 0 0 0 0 0 0 0 0 0 0 0 0 0 0 0 0 0 0 0 0 0 0 0 0 0 0 0 0 0 0 0 0 0 0 0 
0 0 0 0 0 0 0 0 0 0 0 0 0 0 0 0 0 0 0 0 0 0 0 0 0 0 0 0 0 0 0 0 0 0 0 0 0 0 0 0 0 0 0 0 0 1.043057e-15 2.483825e-15 5.558794e-15 1.169987e-14 2.328222e-14 4.383490e-14 7.842036e-14 1.333932e-13 2.164808e-13 3.353849e-13 4.973759e-13 7.064646e-13 9.631558e-13 1.261127e-12 1.588628e-12 1.926495e-12 2.252120e-12 2.539864e-12 2.766323e-12 2.912259e-12 2.966025e-12 2.925134e-12 2.795422e-12 2.591414e-12 2.331596e-12 2.038465e-12 1.732495e-12 1.433228e-12 1.154449e-12 9.066866e-13 6.944938e-13 5.195952e-13 3.797739e-13 2.716144e-13 1.901084e-13 1.304423e-13 8.774723e-14 5.797369e-14 3.761972e-14 2.402160e-14 1.509281e-14 9.348882e-15 5.708586e-15 3.443023e-15 2.050859e-15 1.208937e-15 0 0 0 0 0 0 0 0 0 0 0 0 0 0 0 0 0 0 0 0 0 0 0 0 0 0 0 0 0 0 0 0 0 0 0 0 0 0 0 0 0 0 0 0 0 0 0 0 0 0 0 0 0 0 0 0 0 0 0 0 0 0 0 0 0 0 0 0 0 0 0 0 0 0 0 0 0 0 0 0 0 0 0 0 0 0 0 0 0 0 0 0 0 0 0 0 0 0 0 0 0 0 0 0 0 0 0 0 0 0 0 0 0 0 0 0 0 0 0 0 0 0 0 0 0 0 0 0 0 0 0 0 0 0 0 0 0 0 0 0 0 0 0 0 0 0 0 0 0 0 0 0 0 0 0 0 0 0 0 0 0 0 0 0 0 0 0 0 0 0 0 0 0 0 0 0 0 0 0 0 0 0 0 0 0 0 0 0 0 0 0 0 0 0 0 0 0 0 0 0 0 0 0 0 0 0 0 0 0 0 0 0 0 0 0 0 0 0 0 0 0 0 0 0 0 0 0 0 0 0 0 0 0 0 0 0 0 0 0 0 0 0 0 0 0 0 0 0 0 0 0 0 0 0 0 0 0 0 0 0 0 0 0 0 0 0 0 0 0 0 0 0 0 0 0 0 0 0 0 0 0 0 0 0 0 0 0 0 0 0 0 0 0 
0 0 0 0 0 0 0 0 0 0 0 0 0 0 0 0 0 0 0 0 0 0 0 0 0 0 0 0 0 0 0 0 0 0 0 0 0 0 0 0 0 0 0 1.297600e-15 3.501323e-15 8.826453e-15 2.080736e-14 4.609778e-14 9.614265e-14 1.895793e-13 3.540096e-13 6.281852e-13 1.060776e-12 1.709234e-12 2.631139e-12 3.877683e-12 5.476967e-12 7.426303e-12 9.675644e-12 1.212950e-11 1.464373e-11 1.704449e-11 1.914380e-11 2.076768e-11 2.178023e-11 2.210048e-11 2.171808e-11 2.068387e-11 1.911037e-11 1.714012e-11 1.493912e-11 1.266081e-11 1.044501e-11 8.392896e-12 6.576346e-12 5.027635e-12 3.754860e-12 2.740983e-12 1.958281e-12 1.370018e-12 9.398489e-13 6.325420e-13 4.182496e-13 2.718341e-13 1.739086e-13 1.095672e-13 6.807963e-14 4.173609e-14 2.528183e-14 1.513842e-14 8.973956e-15 5.268524e-15 3.068053e-15 1.772842e-15 1.018071e-15 0 0 0 0 0 0 0 0 0 0 0 0 0 0 0 0 0 0 0 0 0 0 0 0 0 0 0 0 0 0 0 0 0 0 0 0 0 0 0 0 0 0 0 0 0 0 0 0 0 0 0 0 0 0 0 0 0 0 0 0 0 0 0 0 0 0 0 0 0 0 0 0 0 0 0 0 0 0 0 0 0 0 0 0 0 0 0 0 0 0 0 0 0 0 0 0 0 0 0 0 0 0 0 0 0 0 0 0 0 0 0 0 0 0 0 0 0 0 0 0 0 0 0 0 0 0 0 0 0 0 0 0 0 0 0 0 0 0 0 0 0 0 0 0 0 0 0 0 0 0 0 0 0 0 0 0 0 0 0 0 0 0 0 0 0 0 0 0 0 0 0 0 0 0 0 0 0 0 0 0 0 0 0 0 0 0 0 0 0 0 0 0 0 0 0 0 0 0 0 0 0 0 0 0 0 0 0 0 0 0 0 0 0 0 0 0 0 0 0 0 0 0 0 0 0 0 0 0 0 0 0 0 0 0 0 0 0 0 0 0 0 0 0 0 0 0 0 0 0 0 0 0 0 0 0 0 0 0 0 0 0 0 0 0 0 0 0 0 0 0 0 0 0 0 0 0 0 0 0 0 0 0 0 0 0 0 0 0 0 
0 0 0 0 0 0 0 0 0 0 0 0 0 0 0 0 0 0 0 0 0 0 0 0 0 0 0 0 0 0 0 0 0 0 0 0 0 0 0 0 0 1.252882e-15 3.760893e-15 1.066011e-14 2.827057e-14 7.030643e-14 1.636781e-13 3.586531e-13 7.400399e-13 1.445301e-12 2.673736e-12 4.705043e-12 7.881295e-12 1.260867e-11 1.927690e-11 2.823810e-11 3.965475e-11 5.349370e-11 6.935646e-11 8.656551e-11 1.040708e-10 1.206685e-10 1.350314e-10 1.459817e-10 1.525928e-10 1.543497e-10 1.512235e-10 1.436058e-10 1.323205e-10 1.183661e-10 1.029184e-10 8.702040e-11 7.164561e-11 5.745933e-11 4.495402e-11 3.432006e-11 2.560874e-11 1.868099e-11 1.334510e-11 9.337721e-12 6.411151e-12 4.319834e-12 2.861825e-12 1.864203e-12 1.196320e-12 7.563169e-13 4.719631e-13 2.906905e-13 1.770654e-13 1.066515e-13 6.365161e-14 3.763531e-14 2.209109e-14 1.287033e-14 7.457671e-15 4.296738e-15 2.466382e-15 1.409928e-15 0 0 0 0 0 0 0 0 0 0 0 0 0 0 0 0 0 0 0 0 0 0 0 0 0 0 0 0 0 0 0 0 0 0 0 0 0 0 0 0 0 0 0 0 0 0 0 0 0 0 0 0 0 0 0 0 0 0 0 0 0 0 0 0 0 0 0 0 0 0 0 0 0 0 0 0 0 0 0 0 0 0 0 0 0 0 0 0 0 0 0 0 0 0 0 0 0 0 0 0 0 0 0 0 0 0 0 0 0 0 0 0 0 0 0 0 0 0 0 0 0 0 0 0 0 0 0 0 0 0 0 0 0 0 0 0 0 0 0 0 0 0 0 0 0 0 0 0 0 0 0 0 0 0 0 0 0 0 0 0 0 0 0 0 0 0 0 0 0 0 0 0 0 0 0 0 0 0 0 0 0 0 0 0 0 0 0 0 0 0 0 0 0 0 0 0 0 0 0 0 0 0 0 0 0 0 0 0 0 0 0 0 0 0 0 0 0 0 0 0 0 0 0 0 0 0 0 0 0 0 0 0 0 0 0 0 0 0 0 0 0 0 0 0 0 0 0 0 0 0 0 0 0 0 0 0 0 0 0 0 0 0 0 0 0 0 0 0 0 0 0 0 0 0 0 0 0 0 0 0 0 0 0 0 0 0 
0 0 0 0 0 0 0 0 0 0 0 0 0 0 0 0 0 0 0 0 0 0 0 0 0 0 0 0 0 0 0 0 0 0 0 0 0 0 0 1.144494e-15 3.634541e-15 1.078828e-14 3.075009e-14 8.412601e-14 2.178296e-13 5.317567e-13 1.219736e-12 2.636511e-12 5.375671e-12 1.037941e-11 1.900790e-11 3.312544e-11 5.501386e-11 8.729686e-11 1.325112e-10 1.927982e-10 2.691376e-10 3.610216e-10 4.657475e-10 5.785603e-10 6.925923e-10 7.997697e-10 8.915926e-10 9.603956e-10 1.000448e-09 1.008625e-09 9.850625e-10 9.326144e-10 8.568089e-10 7.643585e-10 6.628479e-10 5.591280e-10 4.593001e-10 3.676565e-10 2.871389e-10 2.189364e-10 1.631918e-10 1.189882e-10 8.498511e-11 5.949486e-11 4.088282e-11 2.759169e-11 1.831587e-11 1.196517e-11 7.703510e-12 4.890396e-12 3.065627e-12 1.898457e-12 1.163117e-12 7.052744e-13 4.238804e-13 2.526029e-13 1.494793e-13 8.786419e-14 5.137523e-14 2.988907e-14 1.732507e-14 1.000687e-14 5.766708e-15 3.315771e-15 1.904613e-15 1.093053e-15 0 0 0 0 0 0 0 0 0 0 0 0 0 0 0 0 0 0 0 0 0 0 0 0 0 0 0 0 0 0 0 0 0 0 0 0 0 0 0 0 0 0 0 0 0 0 0 0 0 0 0 0 0 0 0 0 0 0 0 0 0 0 0 0 0 0 0 0 0 0 0 0 0 0 0 0 0 0 0 0 0 0 0 0 0 0 0 0 0 0 0 0 0 0 0 0 0 0 0 0 0 0 0 0 0 0 0 0 0 0 0 0 0 0 0 0 0 0 0 0 0 0 0 0 0 0 0 0 0 0 0 0 0 0 0 0 0 0 0 0 0 0 0 0 0 0 0 0 0 0 0 0 0 0 0 0 0 0 0 0 0 0 0 0 0 0 0 0 0 0 0 0 0 0 0 0 0 0 0 0 0 0 0 0 0 0 0 0 0 0 0 0 0 0 0 0 0 0 0 0 0 0 0 0 0 0 0 0 0 0 0 0 0 0 0 0 0 0 0 0 0 0 0 0 0 0 0 0 0 0 0 0 0 0 0 0 0 0 0 0 0 0 0 0 0 0 0 0 0 0 0 0 0 0 0 0 0 0 0 0 0 0 0 0 0 0 0 0 0 0 0 0 0 0 0 0 0 0 0 0 0 0 
0 0 0 0 0 0 0 0 0 0 0 0 0 0 0 0 0 0 0 0 0 0 0 0 0 0 0 0 0 0 0 0 0 0 0 0 0 0 3.265931e-15 1.081245e-14 3.265607e-14 9.197137e-14 2.444617e-13 6.357462e-13 1.591047e-12 3.792864e-12 8.536062e-12 1.816407e-11 3.650894e-11 6.961327e-11 1.259924e-10 2.173077e-10 3.574204e-10 5.623853e-10 8.469929e-10 1.223995e-09 1.697960e-09 2.265338e-09 2.907872e-09 3.596464e-09 4.287805e-09 4.933367e-09 5.480926e-09 5.885298e-09 6.112376e-09 6.144947e-09 5.985358e-09 5.652185e-09 5.180438e-09 4.610946e-09 3.990485e-09 3.359625e-09 2.755443e-09 2.202521e-09 1.718492e-09 1.309321e-09 9.757647e-10 7.115343e-10 5.085980e-10 3.564560e-10 2.454132e-10 1.660122e-10 1.105497e-10 7.247658e-11 4.686973e-11 2.989829e-11 1.884925e-11 1.174367e-11 7.244604e-12 4.424530e-12 2.680455e-12 1.610483e-12 9.615232e-13 5.703071e-13 3.366975e-13 1.977883e-13 1.158237e-13 6.758200e-14 3.936242e-14 2.287355e-14 1.328592e-14 7.710903e-15 4.481286e-15 2.608010e-15 1.523940e-15 0 0 0 0 0 0 0 0 0 0 0 0 0 0 0 0 0 0 0 0 0 0 0 0 0 0 0 0 0 0 0 0 0 0 0 0 0 0 0 0 0 0 0 0 0 0 0 0 0 0 0 0 0 0 0 0 0 0 0 0 0 0 0 0 0 0 0 0 0 0 0 0 0 0 0 0 0 0 0 0 0 0 0 0 0 0 0 0 0 0 0 0 0 0 0 0 0 0 0 0 0 0 0 0 0 0 0 0 0 0 0 0 0 0 0 0 0 0 0 0 0 0 0 0 0 0 0 0 0 0 0 0 0 0 0 0 0 0 0 0 0 0 0 0 0 0 0 0 0 0 0 0 0 0 0 0 0 0 0 0 0 0 0 0 0 0 0 0 0 0 0 0 0 0 0 0 0 0 0 0 0 0 0 0 0 0 0 0 0 0 0 0 0 0 0 0 0 0 0 0 0 0 0 0 0 0 0 0 0 0 0 0 0 0 0 0 0 0 0 0 0 0 0 0 0 0 0 0 0 0 0 0 0 0 0 0 0 0 0 0 0 0 0 0 0 0 0 0 0 0 0 0 0 0 0 0 0 0 0 0 0 0 0 0 0 0 0 0 0 0 0 0 0 0 0 0 0 0 0 
0 0 0 0 0 0 0 0 0 0 0 0 0 0 0 0 0 0 0 0 0 0 0 0 0 0 0 0 0 0 0 0 0 0 0 0 2.260706e-15 8.984890e-15 3.139290e-14 9.871123e-14 2.827669e-13 7.535884e-13 1.895233e-12 4.640273e-12 1.113412e-11 2.573887e-11 5.660960e-11 1.181424e-10 2.336036e-10 4.387969e-10 7.838736e-10 1.335727e-09 2.173936e-09 3.387475e-09 5.059152e-09 7.254939e-09 9.998013e-09 1.325839e-08 1.693040e-08 2.083878e-08 2.473926e-08 2.835036e-08 3.138258e-08 3.358077e-08 3.476243e-08 3.483782e-08 3.383065e-08 3.185590e-08 2.911628e-08 2.584939e-08 2.231649e-08 1.874855e-08 1.534669e-08 1.224837e-08 9.544243e-09 7.266440e-09 5.413011e-09 3.948296e-09 2.824087e-09 1.982200e-09 1.367318e-09 9.275146e-10 6.196486e-10 4.079280e-10 2.650104e-10 1.699752e-10 1.077863e-10 6.760336e-11 4.199553e-11 2.584750e-11 1.578398e-11 9.566028e-12 5.761833e-12 3.449976e-12 2.056247e-12 1.220158e-12 7.217499e-13 4.256314e-13 2.505513e-13 1.472441e-13 8.650884e-14 5.083230e-14 2.992603e-14 1.766765e-14 1.048412e-14 6.261793e-15 3.773780e-15 2.297665e-15 1.415845e-15 0 0 0 0 0 0 0 0 0 0 0 0 0 0 0 0 0 0 0 0 0 0 0 0 0 0 0 0 0 0 0 0 0 0 0 0 0 0 0 0 0 0 0 0 0 0 0 0 0 0 0 0 0 0 0 0 0 0 0 0 0 0 0 0 0 0 0 0 0 0 0 0 0 0 0 0 0 0 0 0 0 0 0 0 0 0 0 0 0 0 0 0 0 0 0 0 0 0 0 0 0 0 0 0 0 0 0 0 0 0 0 0 0 0 0 0 0 0 0 0 0 0 0 0 0 0 0 0 0 0 0 0 0 0 0 0 0 0 0 0 0 0 0 0 0 0 0 0 0 0 0 0 0 0 0 0 0 0 0 0 0 0 0 0 0 0 0 0 0 0 0 0 0 0 0 0 0 0 0 0 0 0 0 0 0 0 0 0 0 0 0 0 0 0 0 0 0 0 0 0 0 0 0 0 0 0 0 0 0 0 0 0 0 0 0 0 0 0 0 0 0 0 0 0 0 0 0 0 0 0 0 0 0 0 0 0 0 0 0 0 0 0 0 0 0 0 0 0 0 0 0 0 0 0 0 0 0 0 0 0 0 0 0 0 0 0 0 0 0 0 0 0 0 0 0 
0 0 0 0 0 0 0 0 0 0 0 0 0 0 0 0 0 0 0 0 0 0 0 0 0 0 0 0 0 0 0 0 0 0 1.022423e-15 5.444020e-15 2.407801e-14 9.120746e-14 3.008728e-13 8.916134e-13 2.404283e-12 6.033882e-12 1.428697e-11 3.263362e-11 7.424162e-11 1.652465e-10 3.530519e-10 7.200636e-10 1.395738e-09 2.577371e-09 4.533673e-09 7.622524e-09 1.225595e-08 1.889910e-08 2.796194e-08 3.978079e-08 5.443512e-08 7.175887e-08 9.114844e-08 1.116873e-07 1.320527e-07 1.507892e-07 1.663621e-07 1.774739e-07 1.831872e-07 1.830817e-07 1.773262e-07 1.665587e-07 1.518840e-07 1.345472e-07 1.159373e-07 9.723180e-08 7.948339e-08 6.336710e-08 4.935013e-08 3.756392e-08 2.799541e-08 2.043776e-08 1.464275e-08 1.029944e-08 7.125793e-09 4.850507e-09 3.254602e-09 2.152836e-09 1.406485e-09 9.075271e-10 5.794065e-10 3.659758e-10 2.291220e-10 1.421496e-10 8.755822e-11 5.353282e-11 3.254815e-11 1.967381e-11 1.184423e-11 7.099382e-12 4.244388e-12 2.529968e-12 1.506357e-12 8.956385e-13 5.329037e-13 3.173351e-13 1.896145e-13 1.137595e-13 6.873841e-14 4.187070e-14 2.578622e-14 1.606086e-14 1.013382e-14 6.468823e-15 4.176431e-15 2.718853e-15 1.781740e-15 1.170908e-15 0 0 0 0 0 0 0 0 0 0 0 0 0 0 0 0 0 0 0 0 0 0 0 0 0 0 0 0 0 0 0 0 0 0 0 0 0 0 0 0 0 0 0 0 0 0 0 0 0 0 0 0 0 0 0 0 0 0 0 0 0 0 0 0 0 0 0 0 0 0 0 0 0 0 0 0 0 0 0 0 0 0 0 0 0 0 0 0 0 0 0 0 0 0 0 0 0 0 0 0 0 0 0 0 0 0 0 0 0 0 0 0 0 0 0 0 0 0 0 0 0 0 0 0 0 0 0 0 0 0 0 0 0 0 0 0 0 0 0 0 0 0 0 0 0 0 0 0 0 0 0 0 0 0 0 0 0 0 0 0 0 0 0 0 0 0 0 0 0 0 0 0 0 0 0 0 0 0 0 0 0 0 0 0 0 0 0 0 0 0 0 0 0 0 0 0 0 0 0 0 0 0 0 0 0 0 0 0 0 0 0 0 0 0 0 0 0 0 0 0 0 0 0 0 0 0 0 0 0 0 0 0 0 0 0 0 0 0 0 0 0 0 0 0 0 0 0 0 0 0 0 0 0 0 0 0 0 0 0 0 0 0 0 0 0 0 0 0 0 0 
0 0 0 0 0 0 0 0 0 0 0 0 0 0 0 0 0 0 0 0 0 0 0 0 0 0 0 0 0 0 0 0 0 1.752690e-15 1.136194e-14 6.011834e-14 2.577483e-13 9.228421e-13 2.845483e-12 7.841887e-12 1.972592e-11 4.628205e-11 1.028131e-10 2.205089e-10 4.743159e-10 1.010774e-09 2.088429e-09 4.143486e-09 7.849589e-09 1.420349e-08 2.455101e-08 4.063187e-08 6.445181e-08 9.818916e-08 1.437931e-07 2.027220e-07 2.753071e-07 3.605048e-07 4.553643e-07 5.551871e-07 6.535963e-07 7.433452e-07 8.171290e-07 8.686466e-07 8.936091e-07 8.901791e-07 8.594575e-07 8.048174e-07 7.317515e-07 6.464803e-07 5.556514e-07 4.650021e-07 3.794012e-07 3.020641e-07 2.350119e-07 1.788312e-07 1.332984e-07 9.740868e-08 6.989327e-08 4.927980e-08 3.419455e-08 2.336574e-08 1.574575e-08 1.046963e-08 6.878226e-09 4.466552e-09 2.870719e-09 1.826737e-09 1.152381e-09 7.209132e-10 4.478271e-10 2.763134e-10 1.695628e-10 1.035149e-10 6.294777e-11 3.813733e-11 2.305017e-11 1.390136e-11 8.377655e-12 5.047570e-12 3.045963e-12 1.842785e-12 1.120351e-12 6.854916e-13 4.232088e-13 2.640003e-13 1.667225e-13 1.066060e-13 6.903214e-14 4.518828e-14 2.985332e-14 1.984160e-14 1.323471e-14 8.829672e-15 5.879278e-15 3.896226e-15 2.566170e-15 1.676348e-15 1.085365e-15 0 0 0 0 0 0 0 0 0 0 0 0 0 0 0 0 0 0 0 0 0 0 0 0 0 0 0 0 0 0 0 0 0 0 0 0 0 0 0 0 0 0 0 0 0 0 0 0 0 0 0 0 0 0 0 0 0 0 0 0 0 0 0 0 0 0 0 0 0 0 0 0 0 0 0 0 0 0 0 0 0 0 0 0 0 0 0 0 0 0 0 0 0 0 0 0 0 0 0 0 0 0 0 0 0 0 0 0 0 0 0 0 0 0 0 0 0 0 0 0 0 0 0 0 0 0 0 0 0 0 0 0 0 0 0 0 0 0 0 0 0 0 0 0 0 0 0 0 0 0 0 0 0 0 0 0 0 0 0 0 0 0 0 0 0 0 0 0 0 0 0 0 0 0 0 0 0 0 0 0 0 0 0 0 0 0 0 0 0 0 0 0 0 0 0 0 0 0 0 0 0 0 0 0 0 0 0 0 0 0 0 0 0 0 0 0 0 0 0 0 0 0 0 0 0 0 0 0 0 0 0 0 0 0 0 0 0 0 0 0 0 0 0 0 0 0 0 0 0 0 0 0 0 0 0 0 0 0 0 0 0 0 0 0 0 
0 0 0 0 0 0 0 0 0 0 0 0 0 0 0 0 0 0 0 0 0 0 0 0 0 0 0 0 0 0 0 0 2.305492e-15 1.901740e-14 1.269207e-13 6.759381e-13 2.825294e-12 9.577024e-12 2.736752e-11 6.935304e-11 1.605585e-10 3.487352e-10 7.211625e-10 1.446234e-09 2.906738e-09 5.877591e-09 1.165631e-08 2.238270e-08 4.124197e-08 7.287835e-08 1.233524e-07 2.004850e-07 3.129656e-07 4.703740e-07 6.807808e-07 9.505140e-07 1.280206e-06 1.665205e-06 2.091413e-06 2.538051e-06 2.975705e-06 3.372350e-06 3.694781e-06 3.915557e-06 4.015863e-06 3.988622e-06 3.839896e-06 3.585697e-06 3.251669e-06 2.865677e-06 2.457861e-06 2.053056e-06 1.672876e-06 1.330582e-06 1.034928e-06 7.876706e-07 5.877144e-07 4.301413e-07 3.093949e-07 2.187989e-07 1.524144e-07 1.046043e-07 7.086050e-08 4.738130e-08 3.132718e-08 2.047889e-08 1.325928e-08 8.501392e-09 5.407403e-09 3.411394e-09 2.138503e-09 1.331767e-09 8.254405e-10 5.090621e-10 3.129568e-10 1.917395e-10 1.172969e-10 7.163953e-11 4.377838e-11 2.677423e-11 1.643188e-11 1.012788e-11 6.288909e-12 3.938452e-12 2.494898e-12 1.599303e-12 1.039089e-12 6.833330e-13 4.546495e-13 3.050826e-13 2.060846e-13 1.395947e-13 9.462443e-14 6.395816e-14 4.304631e-14 2.876697e-14 1.907689e-14 1.252698e-14 8.145784e-15 5.236563e-15 3.329727e-15 2.091340e-15 1.298516e-15 0 0 0 0 0 0 0 0 0 0 0 0 0 0 0 0 0 0 0 0 0 0 0 0 0 0 0 0 0 0 0 0 0 0 0 0 0 0 0 0 0 0 0 0 0 0 0 0 0 0 0 0 0 0 0 0 0 0 0 0 0 0 0 0 0 0 0 0 0 0 0 0 0 0 0 0 0 0 0 0 0 0 0 0 0 0 0 0 0 0 0 0 0 0 0 0 0 0 0 0 0 0 0 0 0 0 0 0 0 0 0 0 0 0 0 0 0 0 0 0 0 0 0 0 0 0 0 0 0 0 0 0 0 0 0 0 0 0 0 0 0 0 0 0 0 0 0 0 0 0 0 0 0 0 0 0 0 0 0 0 0 0 0 0 0 0 0 0 0 0 0 0 0 0 0 0 0 0 0 0 0 0 0 0 0 0 0 0 0 0 0 0 0 0 0 0 0 0 0 0 0 0 0 0 0 0 0 0 0 0 0 0 0 0 0 0 0 0 0 0 0 0 0 0 0 0 0 0 0 0 0 0 0 0 0 0 0 0 0 0 0 0 0 0 0 0 0 0 0 0 0 0 0 0 0 0 0 0 0 0 0 
0 0 0 0 0 0 0 0 0 0 0 0 0 0 0 0 0 0 0 0 0 0 0 0 0 0 0 0 0 0 0 2.202278e-15 2.285155e-14 1.982973e-13 1.377727e-12 7.453378e-12 3.077617e-11 9.925041e-11 2.630264e-10 6.071477e-10 1.276385e-09 2.529737e-09 4.820185e-09 8.988993e-09 1.693978e-08 3.247854e-08 6.168895e-08 1.142086e-07 2.040134e-07 3.507250e-07 5.796186e-07 9.222032e-07 1.413621e-06 2.091069e-06 2.986769e-06 4.123592e-06 5.504004e-06 7.105379e-06 8.870510e-06 1.070963e-05 1.250236e-05 1.411236e-05 1.540439e-05 1.626435e-05 1.661939e-05 1.644489e-05 1.577229e-05 1.467421e-05 1.325976e-05 1.164754e-05 9.959761e-06 8.298530e-06 6.747529e-06 5.359367e-06 4.164850e-06 3.169783e-06 2.366499e-06 1.734687e-06 1.250414e-06 8.870169e-07 6.201368e-07 4.275353e-07 2.910493e-07 1.957298e-07 1.301941e-07 8.568769e-08 5.587039e-08 3.610108e-08 2.314691e-08 1.473137e-08 9.318500e-09 5.860629e-09 3.669615e-09 2.288321e-09 1.423095e-09 8.829718e-10 5.474349e-10 3.393808e-10 2.107968e-10 1.313345e-10 8.228431e-11 5.192693e-11 3.309540e-11 2.133286e-11 1.393223e-11 9.218586e-12 6.179097e-12 4.187017e-12 2.862534e-12 1.967911e-12 1.356837e-12 9.350624e-13 6.426605e-13 4.393063e-13 2.982531e-13 2.007184e-13 1.338071e-13 8.824153e-14 5.755755e-14 3.709766e-14 2.363131e-14 1.486636e-14 9.239998e-15 5.670513e-15 3.437866e-15 2.057938e-15 1.217089e-15 0 0 0 0 0 0 0 0 0 0 0 0 0 0 0 0 0 0 0 0 0 0 0 0 0 0 0 0 0 0 0 0 0 0 0 0 0 0 0 0 0 0 0 0 0 0 0 0 0 0 0 0 0 0 0 0 0 0 0 0 0 0 0 0 0 0 0 0 0 0 0 0 0 0 0 0 0 0 0 0 0 0 0 0 0 0 0 0 0 0 0 0 0 0 0 0 0 0 0 0 0 0 0 0 0 0 0 0 0 0 0 0 0 0 0 0 0 0 0 0 0 0 0 0 0 0 0 0 0 0 0 0 0 0 0 0 0 0 0 0 0 0 0 0 0 0 0 0 0 0 0 0 0 0 0 0 0 0 0 0 0 0 0 0 0 0 0 0 0 0 0 0 0 0 0 0 0 0 0 0 0 0 0 0 0 0 0 0 0 0 0 0 0 0 0 0 0 0 0 0 0 0 0 0 0 0 0 0 0 0 0 0 0 0 0 0 0 0 0 0 0 0 0 0 0 0 0 0 0 0 0 0 0 0 0 0 0 0 0 0 0 0 0 0 0 0 0 0 0 0 0 0 0 0 0 0 0 
0 0 0 0 0 0 0 0 0 0 0 0 0 0 0 0 0 0 0 0 0 0 0 0 0 0 0 0 0 0 1.509861e-15 1.949064e-14 2.149986e-13 1.976672e-12 1.439202e-11 8.030440e-11 3.320312e-10 1.033013e-09 2.559212e-09 5.401084e-09 1.024600e-08 1.830102e-08 3.169039e-08 5.430840e-08 9.484983e-08 1.709575e-07 3.087354e-07 5.481468e-07 9.442933e-07 1.572714e-06 2.526440e-06 3.921319e-06 5.881226e-06 8.541180e-06 1.201134e-05 1.637756e-05 2.164047e-05 2.772248e-05 3.439921e-05 4.133920e-05 4.807129e-05 5.408065e-05 5.883929e-05 6.192152e-05 6.305626e-05 6.217184e-05 5.941262e-05 5.507518e-05 4.959513e-05 4.342365e-05 3.702836e-05 3.077878e-05 2.498423e-05 1.982176e-05 1.539982e-05 1.172481e-05 8.765176e-06 6.437625e-06 4.653965e-06 3.312857e-06 2.326168e-06 1.611359e-06 1.103050e-06 7.461621e-07 4.996144e-07 3.310934e-07 2.175343e-07 1.416808e-07 9.163901e-08 5.885502e-08 3.760341e-08 2.389796e-08 1.513615e-08 9.553437e-09 6.021179e-09 3.789950e-09 2.388048e-09 1.507125e-09 9.554357e-10 6.090738e-10 3.917095e-10 2.544475e-10 1.674087e-10 1.115783e-10 7.541766e-11 5.160291e-11 3.570552e-11 2.489640e-11 1.745492e-11 1.225630e-11 8.600880e-12 6.011378e-12 4.178926e-12 2.881818e-12 1.970365e-12 1.333052e-12 8.925012e-13 5.904274e-13 3.861430e-13 2.493451e-13 1.591014e-13 1.002014e-13 6.234897e-14 3.828890e-14 2.323209e-14 1.391279e-14 8.233296e-15 4.809520e-15 2.776834e-15 1.582865e-15 0 0 0 0 0 0 0 0 0 0 0 0 0 0 0 0 0 0 0 0 0 0 0 0 0 0 0 0 0 0 0 0 0 0 0 0 0 0 0 0 0 0 0 0 0 0 0 0 0 0 0 0 0 0 0 0 0 0 0 0 0 0 0 0 0 0 0 0 0 0 0 0 0 0 0 0 0 0 0 0 0 0 0 0 0 0 0 0 0 0 0 0 0 0 0 0 0 0 0 0 0 0 0 0 0 0 0 0 0 0 0 0 0 0 0 0 0 0 0 0 0 0 0 0 0 0 0 0 0 0 0 0 0 0 0 0 0 0 0 0 0 0 0 0 0 0 0 0 0 0 0 0 0 0 0 0 0 0 0 0 0 0 0 0 0 0 0 0 0 0 0 0 0 0 0 0 0 0 0 0 0 0 0 0 0 0 0 0 0 0 0 0 0 0 0 0 0 0 0 0 0 0 0 0 0 0 0 0 0 0 0 0 0 0 0 0 0 0 0 0 0 0 0 0 0 0 0 0 0 0 0 0 0 0 0 0 0 0 0 0 0 0 0 0 0 0 0 0 0 0 0 0 0 0 
0 0 0 0 0 0 0 0 0 0 0 0 0 0 0 0 0 0 0 0 0 0 0 0 0 0 0 0 0 0 1.156646e-14 1.587640e-13 1.863329e-12 1.814723e-11 1.397187e-10 8.117539e-10 3.411487e-09 1.030802e-08 2.409697e-08 4.685012e-08 8.052466e-08 1.290030e-07 2.004702e-07 3.116959e-07 5.029630e-07 8.504355e-07 1.458401e-06 2.478018e-06 4.109027e-06 6.610743e-06 1.029530e-05 1.553496e-05 2.273230e-05 3.231046e-05 4.463801e-05 5.998226e-05 7.837518e-05 9.953618e-05 1.227339e-04 1.467735e-04 1.700187e-04 1.905833e-04 2.066098e-04 2.165724e-04 2.195877e-04 2.154918e-04 2.049134e-04 1.890142e-04 1.693808e-04 1.476412e-04 1.253847e-04 1.038728e-04 8.408546e-05 6.658950e-05 5.167701e-05 3.934171e-05 2.942941e-05 2.165025e-05 1.568715e-05 1.120246e-05 7.894994e-06 5.493750e-06 3.779242e-06 2.571139e-06 1.732079e-06 1.155824e-06 7.649940e-07 5.023915e-07 3.278205e-07 2.126341e-07 1.372946e-07 8.829092e-08 5.663553e-08 3.626254e-08 2.321692e-08 1.487889e-08 9.566179e-09 6.179863e-09 4.022316e-09 2.642531e-09 1.756825e-09 1.183285e-09 8.083940e-10 5.597673e-10 3.924859e-10 2.778995e-10 1.982011e-10 1.418792e-10 1.016574e-10 7.266834e-11 5.171747e-11 3.655459e-11 2.562866e-11 1.779276e-11 1.222528e-11 8.303438e-12 5.574554e-12 3.696112e-12 2.420817e-12 1.565214e-12 9.994487e-13 6.299127e-13 3.920714e-13 2.408765e-13 1.461618e-13 8.755311e-14 5.180790e-14 3.026889e-14 1.747340e-14 9.961514e-15 5.612500e-15 3.123570e-15 1.718446e-15 0 0 0 0 0 0 0 0 0 0 0 0 0 0 0 0 0 0 0 0 0 0 0 0 0 0 0 0 0 0 0 0 0 0 0 0 0 0 0 0 0 0 0 0 0 0 0 0 0 0 0 0 0 0 0 0 0 0 0 0 0 0 0 0 0 0 0 0 0 0 0 0 0 0 0 0 0 0 0 0 0 0 0 0 0 0 0 0 0 0 0 0 0 0 0 0 0 0 0 0 0 0 0 0 0 0 0 0 0 0 0 0 0 0 0 0 0 0 0 0 0 0 0 0 0 0 0 0 0 0 0 0 0 0 0 0 0 0 0 0 0 0 0 0 0 0 0 0 0 0 0 0 0 0 0 0 0 0 0 0 0 0 0 0 0 0 0 0 0 0 0 0 0 0 0 0 0 0 0 0 0 0 0 0 0 0 0 0 0 0 0 0 0 0 0 0 0 0 0 0 0 0 0 0 0 0 0 0 0 0 0 0 0 0 0 0 0 0 0 0 0 0 0 0 0 0 0 0 0 0 0 0 0 0 0 0 0 0 0 0 0 0 0 0 0 0 0 0 0 0 0 
0 0 0 0 0 0 0 0 0 0 0 0 0 0 0 0 0 0 0 0 0 0 0 0 0 0 0 0 0 4.952866e-15 8.109271e-14 1.182894e-12 1.475031e-11 1.534440e-10 1.261247e-09 7.773873e-09 3.365542e-08 9.952474e-08 2.202911e-07 3.979789e-07 6.266016e-07 9.078030e-07 1.265698e-06 1.765157e-06 2.586443e-06 4.040953e-06 6.508979e-06 1.051360e-05 1.669671e-05 2.585479e-05 3.888037e-05 5.683771e-05 8.082091e-05 1.120664e-04 1.516161e-04 2.003987e-04 2.585617e-04 3.254938e-04 3.989312e-04 4.752337e-04 5.489298e-04 6.138302e-04 6.635915e-04 6.932532e-04 7.000237e-04 6.837303e-04 6.468573e-04 5.935295e-04 5.291857e-04 4.590697e-04 3.882685e-04 3.205321e-04 2.588105e-04 2.045892e-04 1.586523e-04 1.207805e-04 9.044161e-05 6.664576e-05 4.841583e-05 3.468287e-05 2.454070e-05 1.715246e-05 1.186187e-05 8.116281e-06 5.504051e-06 3.699312e-06 2.468663e-06 1.635743e-06 1.078244e-06 7.071399e-07 4.623521e-07 3.014501e-07 1.964390e-07 1.280086e-07 8.364195e-08 5.485639e-08 3.622686e-08 2.412375e-08 1.625021e-08 1.108418e-08 7.671409e-09 5.383813e-09 3.830975e-09 2.756387e-09 2.001411e-09 1.460814e-09 1.069141e-09 7.816285e-10 5.696919e-10 4.126914e-10 2.968125e-10 2.114573e-10 1.491776e-10 1.040366e-10 7.174059e-11 4.884906e-11 3.286335e-11 2.181898e-11 1.430803e-11 9.257483e-12 5.915608e-12 3.729590e-12 2.322480e-12 1.427039e-12 8.662094e-13 5.188832e-13 3.071244e-13 1.794329e-13 1.036082e-13 5.906369e-14 3.328612e-14 1.852406e-14 1.019386e-14 5.540748e-15 2.978793e-15 1.582109e-15 0 0 0 0 0 0 0 0 0 0 0 0 0 0 0 0 0 0 0 0 0 0 0 0 0 0 0 0 0 0 0 0 0 0 0 0 0 0 0 0 0 0 0 0 0 0 0 0 0 0 0 0 0 0 0 0 0 0 0 0 0 0 0 0 0 0 0 0 0 0 0 0 0 0 0 0 0 0 0 0 0 0 0 0 0 0 0 0 0 0 0 0 0 0 0 0 0 0 0 0 0 0 0 0 0 0 0 0 0 0 0 0 0 0 0 0 0 0 0 0 0 0 0 0 0 0 0 0 0 0 0 0 0 0 0 0 0 0 0 0 0 0 0 0 0 0 0 0 0 0 0 0 0 0 0 0 0 0 0 0 0 0 0 0 0 0 0 0 0 0 0 0 0 0 0 0 0 0 0 0 0 0 0 0 0 0 0 0 0 0 0 0 0 0 0 0 0 0 0 0 0 0 0 0 0 0 0 0 0 0 0 0 0 0 0 0 0 0 0 0 0 0 0 0 0 0 0 0 0 0 0 0 0 0 0 0 0 0 0 0 0 0 0 0 0 0 0 0 
0 0 0 0 0 0 0 0 0 0 0 0 0 0 0 0 0 0 0 0 0 0 0 0 0 0 0 0 1.548906e-15 2.956423e-14 5.114031e-13 7.892263e-12 1.049759e-10 1.172636e-09 1.043693e-08 6.904894e-08 3.121108e-07 9.005485e-07 1.881193e-06 3.147807e-06 4.555456e-06 6.033387e-06 7.616836e-06 9.551636e-06 1.267708e-05 1.815974e-05 2.728664e-05 4.171066e-05 6.331999e-05 9.424245e-05 1.367286e-04 1.932750e-04 2.665367e-04 3.595085e-04 4.751962e-04 6.163710e-04 7.844311e-04 9.782555e-04 1.192369e-03 1.415881e-03 1.632338e-03 1.821654e-03 1.963908e-03 2.043389e-03 2.052444e-03 1.991986e-03 1.871372e-03 1.704737e-03 1.509149e-03 1.300628e-03 1.093534e-03 8.983087e-04 7.223691e-04 5.693461e-04 4.405812e-04 3.350781e-04 2.508467e-04 1.849898e-04 1.345747e-04 9.662868e-05 6.856957e-05 4.811121e-05 3.341997e-05 2.299418e-05 1.569173e-05 1.062676e-05 7.152326e-06 4.787282e-06 3.191742e-06 2.121340e-06 1.408109e-06 9.344997e-07 6.214498e-07 4.147530e-07 2.785489e-07 1.886184e-07 1.291384e-07 8.954092e-08 6.299191e-08 4.496581e-08 3.256259e-08 2.387213e-08 1.767844e-08 1.317863e-08 9.860471e-09 7.378910e-09 5.508908e-09 4.091597e-09 3.018243e-09 2.206891e-09 1.598050e-09 1.144427e-09 8.102802e-10 5.666526e-10 3.914302e-10 2.668944e-10 1.796783e-10 1.193645e-10 7.828294e-11 5.065881e-11 3.236462e-11 2.040388e-11 1.270112e-11 7.803012e-12 4.734288e-12 2.835450e-12 1.677492e-12 9.798706e-13 5.655289e-13 3.223373e-13 1.815741e-13 1.010343e-13 5.557530e-14 3.020430e-14 1.623164e-14 8.620467e-15 4.528068e-15 2.351087e-15 1.207654e-15 0 0 0 0 0 0 0 0 0 0 0 0 0 0 0 0 0 0 0 0 0 0 0 0 0 0 0 0 0 0 0 0 0 0 0 0 0 0 0 0 0 0 0 0 0 0 0 0 0 0 0 0 0 0 0 0 0 0 0 0 0 0 0 0 0 0 0 0 0 0 0 0 0 0 0 0 0 0 0 0 0 0 0 0 0 0 0 0 0 0 0 0 0 0 0 0 0 0 0 0 0 0 0 0 0 0 0 0 0 0 0 0 0 0 0 0 0 0 0 0 0 0 0 0 0 0 0 0 0 0 0 0 0 0 0 0 0 0 0 0 0 0 0 0 0 0 0 0 0 0 0 0 0 0 0 0 0 0 0 0 0 0 0 0 0 0 0 0 0 0 0 0 0 0 0 0 0 0 0 0 0 0 0 0 0 0 0 0 0 0 0 0 0 0 0 0 0 0 0 0 0 0 0 0 0 0 0 0 0 0 0 0 0 0 0 0 0 0 0 0 0 0 0 0 0 0 0 0 0 0 0 0 0 0 0 0 0 0 0 0 0 0 0 0 0 