# vtk DataFile Version 2.0
Comment goes here
ASCII

DATASET STRUCTURED_POINTS
FIELD FieldData 1
TIME 1 1 double
2.05000000
DIMENSIONS    384   64   1

ORIGIN    0.000   0.000   0.000
SPACING   0.078125 0.078125   1.000

POINT_DATA   24576
SCALARS Concentration double
LOOKUP_TABLE default

0 0 0 0 0 0 0 0 0 0 0 0 0 0 0 0 0 0 0 0 0 0 0 0 0 0 0 0 0 0 0 0 0 0 0 0 0 0 0 0 0 0 0 0 0 0 0 0 0 0 1.878246e-15 4.590117e-15 1.060830e-14 2.327917e-14 4.846192e-14 9.604355e-14 1.802314e-13 3.224187e-13 5.470609e-13 8.866967e-13 1.365399e-12 2.011655e-12 2.820350e-12 3.788023e-12 4.849451e-12 5.954075e-12 6.979695e-12 7.855331e-12 8.455626e-12 8.748105e-12 8.671876e-12 8.272144e-12 7.574567e-12 6.683061e-12 5.671079e-12 4.643833e-12 3.664801e-12 2.795656e-12 2.059924e-12 1.470096e-12 1.015940e-12 6.816612e-13 4.442329e-13 2.820022e-13 1.746553e-13 1.060273e-13 6.346686e-14 3.795569e-14 2.320232e-14 1.508444e-14 1.100350e-14 9.324048e-15 9.073091e-15 9.661163e-15 1.072932e-14 1.202696e-14 1.337970e-14 1.464159e-14 1.570890e-14 1.649630e-14 1.695990e-14 1.707596e-14 1.685834e-14 1.633501e-14 1.555827e-14 1.458244e-14 1.347046e-14 1.227688e-14 1.105421e-14 9.842219e-15 8.674150e-15 7.570798e-15 6.547431e-15 5.612109e-15 4.770169e-15 4.021904e-15 3.365283e-15 2.794904e-15 2.303807e-15 1.884435e-15 1.529733e-15 1.232441e-15 0 0 0 0 0 0 0 0 0 0 0 0 0 0 0 0 0 0 0 0 0 0 0 0 0 0 0 0 0 0 0 0 0 0 0 0 0 0 0 0 0 0 0 0 0 0 0 0 0 0 0 0 0 0 0 0 0 0 0 0 0 0 0 0 0 0 0 0 0 0 0 0 0 0 0 0 0 0 0 0 0 0 0 0 0 0 0 0 0 0 0 0 0 0 0 0 0 0 0 0 0 0 0 0 0 0 0 0 0 0 0 0 0 0 0 0 0 0 0 0 0 0 0 0 0 0 0 0 0 0 0 0 0 0 0 0 0 0 0 0 0 0 0 0 0 0 0 0 0 0 0 0 0 0 0 0 0 0 0 0 0 0 0 0 0 0 0 0 0 0 0 0 0 0 0 0 0 0 0 0 0 0 0 0 0 0 0 0 0 0 0 0 0 0 0 0 0 0 0 0 0 0 0 0 0 0 0 0 0 0 0 0 0 0 0 0 0 0 0 0 0 0 0 0 0 0 0 0 0 0 0 0 0 0 0 0 0 0 0 0 0 0 0 0 0 0 0 0 0 0 0 0 0 0 0 0 0 0 0 0 0 0 
0 0 0 0 0 0 0 0 0 0 0 0 0 0 0 0 0 0 0 0 0 0 0 0 0 0 0 0 0 0 0 0 0 0 0 0 0 0 0 0 0 0 0 0 0 0 0 0 2.291123e-15 6.110726e-15 1.536568e-14 3.654197e-14 8.227236e-14 1.761537e-13 3.581772e-13 6.940048e-13 1.275545e-12 2.238768e-12 3.733625e-12 5.957555e-12 9.046897e-12 1.316317e-11 1.825473e-11 2.428279e-11 3.083431e-11 3.759208e-11 4.381762e-11 4.908405e-11 5.265383e-11 5.433749e-11 5.379048e-11 5.128327e-11 4.698369e-11 4.150674e-11 3.530081e-11 2.899013e-11 2.296400e-11 1.759263e-11 1.302731e-11 9.346892e-12 6.497308e-12 4.385644e-12 2.875606e-12 1.835550e-12 1.141543e-12 6.931980e-13 4.115500e-13 2.394804e-13 1.369135e-13 7.739070e-14 4.363433e-14 2.480495e-14 1.450818e-14 9.019674e-15 6.218270e-15 4.901158e-15 4.395758e-15 4.322881e-15 4.470317e-15 4.716483e-15 4.992981e-15 5.260159e-15 5.496840e-15 5.691427e-15 5.839156e-15 5.938012e-15 5.988187e-15 5.990046e-15 5.944534e-15 5.852277e-15 5.714470e-15 5.532499e-15 5.308980e-15 5.047296e-15 4.752403e-15 4.429950e-15 4.086891e-15 3.730320e-15 3.368044e-15 3.007292e-15 2.655275e-15 2.317933e-15 2.000600e-15 1.706996e-15 1.439990e-15 1.200884e-15 0 0 0 0 0 0 0 0 0 0 0 0 0 0 0 0 0 0 0 0 0 0 0 0 0 0 0 0 0 0 0 0 0 0 0 0 0 0 0 0 0 0 0 0 0 0 0 0 0 0 0 0 0 0 0 0 0 0 0 0 0 0 0 0 0 0 0 0 0 0 0 0 0 0 0 0 0 0 0 0 0 0 0 0 0 0 0 0 0 0 0 0 0 0 0 0 0 0 0 0 0 0 0 0 0 0 0 0 0 0 0 0 0 0 0 0 0 0 0 0 0 0 0 0 0 0 0 0 0 0 0 0 0 0 0 0 0 0 0 0 0 0 0 0 0 0 0 0 0 0 0 0 0 0 0 0 0 0 0 0 0 0 0 0 0 0 0 0 0 0 0 0 0 0 0 0 0 0 0 0 0 0 0 0 0 0 0 0 0 0 0 0 0 0 0 0 0 0 0 0 0 0 0 0 0 0 0 0 0 0 0 0 0 0 0 0 0 0 0 0 0 0 0 0 0 0 0 0 0 0 0 0 0 0 0 0 0 0 0 0 0 0 0 0 0 0 0 0 0 0 0 0 0 0 0 0 0 0 
0 0 0 0 0 0 0 0 0 0 0 0 0 0 0 0 0 0 0 0 0 0 0 0 0 0 0 0 0 0 0 0 0 0 0 0 0 0 0 0 0 0 0 0 0 0 2.302338e-15 6.771753e-15 1.868625e-14 4.847005e-14 1.186519e-13 2.749167e-13 6.038057e-13 1.262633e-12 2.510184e-12 4.760794e-12 8.580781e-12 1.479093e-11 2.427033e-11 3.815748e-11 5.719316e-11 8.224183e-11 1.129026e-10 1.488394e-10 1.875805e-10 2.272074e-10 2.634681e-10 2.938778e-10 3.142890e-10 3.236188e-10 3.200021e-10 3.049813e-10 2.795933e-10 2.473378e-10 2.108281e-10 1.736366e-10 1.380397e-10 1.061898e-10 7.900466e-11 5.697594e-11 3.982589e-11 2.703990e-11 1.783848e-11 1.145874e-11 7.172269e-12 4.383651e-12 2.619113e-12 1.533238e-12 8.820736e-13 5.019936e-13 2.835286e-13 1.596523e-13 9.035076e-14 5.212943e-14 3.145586e-14 2.062110e-14 1.529320e-14 1.305406e-14 1.256241e-14 1.307351e-14 1.416690e-14 1.559853e-14 1.721384e-14 1.890696e-14 2.059276e-14 2.219984e-14 2.366146e-14 2.491908e-14 2.591959e-14 2.662105e-14 2.699179e-14 2.701486e-14 2.668702e-14 2.602026e-14 2.504006e-14 2.378372e-14 2.229818e-14 2.063603e-14 1.885357e-14 1.700598e-14 1.514636e-14 1.332133e-14 1.157146e-14 9.928087e-15 8.415045e-15 7.046885e-15 5.831373e-15 4.768848e-15 3.854909e-15 3.080410e-15 2.433834e-15 1.901503e-15 1.469353e-15 1.123088e-15 0 0 0 0 0 0 0 0 0 0 0 0 0 0 0 0 0 0 0 0 0 0 0 0 0 0 0 0 0 0 0 0 0 0 0 0 0 0 0 0 0 0 0 0 0 0 0 0 0 0 0 0 0 0 0 0 0 0 0 0 0 0 0 0 0 0 0 0 0 0 0 0 0 0 0 0 0 0 0 0 0 0 0 0 0 0 0 0 0 0 0 0 0 0 0 0 0 0 0 0 0 0 0 0 0 0 0 0 0 0 0 0 0 0 0 0 0 0 0 0 0 0 0 0 0 0 0 0 0 0 0 0 0 0 0 0 0 0 0 0 0 0 0 0 0 0 0 0 0 0 0 0 0 0 0 0 0 0 0 0 0 0 0 0 0 0 0 0 0 0 0 0 0 0 0 0 0 0 0 0 0 0 0 0 0 0 0 0 0 0 0 0 0 0 0 0 0 0 0 0 0 0 0 0 0 0 0 0 0 0 0 0 0 0 0 0 0 0 0 0 0 0 0 0 0 0 0 0 0 0 0 0 0 0 0 0 0 0 0 0 0 0 0 0 0 0 0 0 0 0 
0 0 0 0 0 0 0 0 0 0 0 0 0 0 0 0 0 0 0 0 0 0 0 0 0 0 0 0 0 0 0 0 0 0 0 0 0 0 0 0 0 0 0 0 1.834324e-15 6.050889e-15 1.858231e-14 5.321152e-14 1.429822e-13 3.614137e-13 8.625855e-13 1.950690e-12 4.185044e-12 8.560871e-12 1.665705e-11 3.096375e-11 5.477894e-11 9.283002e-11 1.499824e-10 2.325282e-10 3.442178e-10 4.895269e-10 6.655986e-10 8.701249e-10 1.088904e-09 1.311061e-09 1.513076e-09 1.681253e-09 1.793169e-09 1.842929e-09 1.820826e-09 1.735209e-09 1.592182e-09 1.410689e-09 1.205387e-09 9.957246e-10 7.945673e-10 6.137976e-10 4.588558e-10 3.325995e-10 2.337782e-10 1.596321e-10 1.059490e-10 6.847353e-11 4.313172e-11 2.652930e-11 1.595506e-11 9.405199e-12 5.473843e-12 3.151556e-12 1.800633e-12 1.024640e-12 5.846244e-13 3.383036e-13 2.028576e-13 1.303863e-13 9.365148e-14 7.721276e-14 7.240288e-14 7.434581e-14 8.026159e-14 8.852844e-14 9.811538e-14 1.083247e-13 1.185953e-13 1.284671e-13 1.375079e-13 1.453464e-13 1.516428e-13 1.561336e-13 1.586186e-13 1.589918e-13 1.572334e-13 1.534167e-13 1.477007e-13 1.403128e-13 1.315431e-13 1.217093e-13 1.111567e-13 1.002151e-13 8.920789e-14 7.841033e-14 6.806771e-14 5.836207e-14 4.943669e-14 4.137294e-14 3.421744e-14 2.796771e-14 2.259790e-14 1.805055e-14 1.425789e-14 1.113698e-14 8.605289e-15 6.577337e-15 4.974706e-15 3.723183e-15 2.758317e-15 2.022788e-15 1.468903e-15 1.056240e-15 0 0 0 0 0 0 0 0 0 0 0 0 0 0 0 0 0 0 0 0 0 0 0 0 0 0 0 0 0 0 0 0 0 0 0 0 0 0 0 0 0 0 0 0 0 0 0 0 0 0 0 0 0 0 0 0 0 0 0 0 0 0 0 0 0 0 0 0 0 0 0 0 0 0 0 0 0 0 0 0 0 0 0 0 0 0 0 0 0 0 0 0 0 0 0 0 0 0 0 0 0 0 0 0 0 0 0 0 0 0 0 0 0 0 0 0 0 0 0 0 0 0 0 0 0 0 0 0 0 0 0 0 0 0 0 0 0 0 0 0 0 0 0 0 0 0 0 0 0 0 0 0 0 0 0 0 0 0 0 0 0 0 0 0 0 0 0 0 0 0 0 0 0 0 0 0 0 0 0 0 0 0 0 0 0 0 0 0 0 0 0 0 0 0 0 0 0 0 0 0 0 0 0 0 0 0 0 0 0 0 0 0 0 0 0 0 0 0 0 0 0 0 0 0 0 0 0 0 0 0 0 0 0 0 0 0 0 0 0 0 0 0 0 0 
0 0 0 0 0 0 0 0 0 0 0 0 0 0 0 0 0 0 0 0 0 0 0 0 0 0 0 0 0 0 0 0 0 0 0 0 0 0 0 0 0 0 1.108033e-15 4.186914e-15 1.459290e-14 4.690601e-14 1.404338e-13 3.919928e-13 1.027400e-12 2.533622e-12 5.904408e-12 1.304488e-11 2.736972e-11 5.480210e-11 1.044652e-10 1.904767e-10 3.310388e-10 5.518198e-10 8.783897e-10 1.343478e-09 1.965120e-09 2.764864e-09 3.724873e-09 4.830268e-09 6.004490e-09 7.188463e-09 8.259377e-09 9.144763e-09 9.729875e-09 9.983564e-09 9.857960e-09 9.395775e-09 8.630683e-09 7.660374e-09 6.562525e-09 5.438336e-09 4.356454e-09 3.379921e-09 2.538933e-09 1.849831e-09 1.307331e-09 8.977547e-10 5.993212e-10 3.896336e-10 2.469060e-10 1.527967e-10 9.249482e-11 5.513494e-11 3.246960e-11 1.893017e-11 1.095382e-11 6.310265e-12 3.638797e-12 2.120622e-12 1.271829e-12 8.089026e-13 5.679554e-13 4.547911e-13 4.156889e-13 4.200117e-13 4.500964e-13 4.955301e-13 5.497292e-13 6.082316e-13 6.675521e-13 7.248297e-13 7.774619e-13 8.231920e-13 8.600099e-13 8.863402e-13 9.010167e-13 9.034239e-13 8.934656e-13 8.715986e-13 8.387702e-13 7.963421e-13 7.460088e-13 6.896470e-13 6.292459e-13 5.667336e-13 5.039460e-13 4.424764e-13 3.836941e-13 3.286410e-13 2.780944e-13 2.325128e-13 1.921239e-13 1.569072e-13 1.266867e-13 1.011323e-13 7.984037e-14 6.234058e-14 4.815496e-14 3.680218e-14 2.783415e-14 2.083500e-14 1.543951e-14 1.132755e-14 8.230342e-15 5.922659e-15 4.222340e-15 2.982387e-15 2.087728e-15 1.448502e-15 0 0 0 0 0 0 0 0 0 0 0 0 0 0 0 0 0 0 0 0 0 0 0 0 0 0 0 0 0 0 0 0 0 0 0 0 0 0 0 0 0 0 0 0 0 0 0 0 0 0 0 0 0 0 0 0 0 0 0 0 0 0 0 0 0 0 0 0 0 0 0 0 0 0 0 0 0 0 0 0 0 0 0 0 0 0 0 0 0 0 0 0 0 0 0 0 0 0 0 0 0 0 0 0 0 0 0 0 0 0 0 0 0 0 0 0 0 0 0 0 0 0 0 0 0 0 0 0 0 0 0 0 0 0 0 0 0 0 0 0 0 0 0 0 0 0 0 0 0 0 0 0 0 0 0 0 0 0 0 0 0 0 0 0 0 0 0 0 0 0 0 0 0 0 0 0 0 0 0 0 0 0 0 0 0 0 0 0 0 0 0 0 0 0 0 0 0 0 0 0 0 0 0 0 0 0 0 0 0 0 0 0 0 0 0 0 0 0 0 0 0 0 0 0 0 0 0 0 0 0 0 0 0 0 0 0 0 0 0 0 
0 0 0 0 0 0 0 0 0 0 0 0 0 0 0 0 0 0 0 0 0 0 0 0 0 0 0 0 0 0 0 0 0 0 0 0 0 0 0 0 0 2.126813e-15 8.609896e-15 3.174747e-14 1.079611e-13 3.386735e-13 9.896391e-13 2.697438e-12 6.905083e-12 1.664287e-11 3.792042e-11 8.198615e-11 1.684269e-10 3.305634e-10 6.179580e-10 1.106439e-09 1.890303e-09 3.101853e-09 4.866598e-09 7.346725e-09 1.062096e-08 1.478922e-08 1.974560e-08 2.540672e-08 3.137862e-08 3.736262e-08 4.274749e-08 4.717360e-08 5.008135e-08 5.131602e-08 5.065273e-08 4.829723e-08 4.442537e-08 3.951171e-08 3.394841e-08 2.823145e-08 2.271124e-08 1.770245e-08 1.336722e-08 9.792293e-09 6.960873e-09 4.808269e-09 3.229557e-09 2.112389e-09 1.346999e-09 8.389856e-10 5.130632e-10 3.095994e-10 1.847554e-10 1.092027e-10 6.407368e-11 3.740608e-11 2.182844e-11 1.283120e-11 7.714571e-12 4.868098e-12 3.347775e-12 2.601179e-12 2.308866e-12 2.285675e-12 2.423596e-12 2.658380e-12 2.949276e-12 3.268943e-12 3.596205e-12 3.914105e-12 4.207281e-12 4.462707e-12 4.668752e-12 4.816476e-12 4.899265e-12 4.913726e-12 4.859448e-12 4.739112e-12 4.558246e-12 4.324543e-12 4.047680e-12 3.738094e-12 3.406988e-12 3.064926e-12 2.722125e-12 2.387161e-12 2.067564e-12 1.768803e-12 1.495091e-12 1.248691e-12 1.030793e-12 8.410880e-13 6.785772e-13 5.413303e-13 4.271403e-13 3.333763e-13 2.574543e-13 1.967307e-13 1.487996e-13 1.114012e-13 8.258334e-14 6.061867e-14 4.407522e-14 3.174308e-14 2.265370e-14 1.601969e-14 1.122972e-14 7.803151e-15 5.376981e-15 3.674170e-15 2.490687e-15 1.674950e-15 1.117895e-15 0 0 0 0 0 0 0 0 0 0 0 0 0 0 0 0 0 0 0 0 0 0 0 0 0 0 0 0 0 0 0 0 0 0 0 0 0 0 0 0 0 0 0 0 0 0 0 0 0 0 0 0 0 0 0 0 0 0 0 0 0 0 0 0 0 0 0 0 0 0 0 0 0 0 0 0 0 0 0 0 0 0 0 0 0 0 0 0 0 0 0 0 0 0 0 0 0 0 0 0 0 0 0 0 0 0 0 0 0 0 0 0 0 0 0 0 0 0 0 0 0 0 0 0 0 0 0 0 0 0 0 0 0 0 0 0 0 0 0 0 0 0 0 0 0 0 0 0 0 0 0 0 0 0 0 0 0 0 0 0 0 0 0 0 0 0 0 0 0 0 0 0 0 0 0 0 0 0 0 0 0 0 0 0 0 0 0 0 0 0 0 0 0 0 0 0 0 0 0 0 0 0 0 0 0 0 0 0 0 0 0 0 0 0 0 0 0 0 0 0 0 0 0 0 0 0 0 0 0 0 0 0 0 0 0 
0 0 0 0 0 0 0 0 0 0 0 0 0 0 0 0 0 0 0 0 0 0 0 0 0 0 0 0 0 0 0 0 0 0 0 0 0 0 0 0 3.640226e-15 1.577454e-14 6.235248e-14 2.243539e-13 7.450756e-13 2.282115e-12 6.516586e-12 1.735791e-11 4.345752e-11 1.024626e-10 2.285516e-10 4.839442e-10 9.744394e-10 1.875613e-09 3.441818e-09 6.054649e-09 1.017473e-08 1.643989e-08 2.543051e-08 3.789466e-08 5.415266e-08 7.462610e-08 9.874932e-08 1.260738e-07 1.547110e-07 1.832230e-07 2.087639e-07 2.296358e-07 2.432820e-07 2.489664e-07 2.457003e-07 2.344139e-07 2.159628e-07 1.925236e-07 1.659470e-07 1.385342e-07 1.119556e-07 8.770664e-08 6.659525e-08 4.907015e-08 3.509399e-08 2.439172e-08 1.648566e-08 1.085076e-08 6.963574e-09 4.373404e-09 2.708477e-09 1.656856e-09 1.002929e-09 6.015355e-10 3.581036e-10 2.120163e-10 1.252968e-10 7.438761e-11 4.492667e-11 2.821808e-11 1.907020e-11 1.439900e-11 1.239004e-11 1.197632e-11 1.252714e-11 1.366287e-11 1.514284e-11 1.680500e-11 1.852677e-11 2.021006e-11 2.176875e-11 2.312946e-11 2.422847e-11 2.501650e-11 2.545816e-11 2.553553e-11 2.524731e-11 2.460906e-11 2.365135e-11 2.241674e-11 2.095732e-11 1.932975e-11 1.759324e-11 1.580429e-11 1.401588e-11 1.227323e-11 1.061450e-11 9.068032e-12 7.654371e-12 6.384889e-12 5.264468e-12 4.291128e-12 3.458712e-12 2.756999e-12 2.173947e-12 1.695900e-12 1.309190e-12 1.000234e-12 7.565040e-13 5.664667e-13 4.200564e-13 3.084976e-13 2.244534e-13 1.617971e-13 1.155866e-13 8.184193e-14 5.745151e-14 3.998738e-14 2.760389e-14 1.890089e-14 1.284083e-14 8.656522e-15 5.792581e-15 3.847886e-15 2.538278e-15 1.662916e-15 1.082355e-15 0 0 0 0 0 0 0 0 0 0 0 0 0 0 0 0 0 0 0 0 0 0 0 0 0 0 0 0 0 0 0 0 0 0 0 0 0 0 0 0 0 0 0 0 0 0 0 0 0 0 0 0 0 0 0 0 0 0 0 0 0 0 0 0 0 0 0 0 0 0 0 0 0 0 0 0 0 0 0 0 0 0 0 0 0 0 0 0 0 0 0 0 0 0 0 0 0 0 0 0 0 0 0 0 0 0 0 0 0 0 0 0 0 0 0 0 0 0 0 0 0 0 0 0 0 0 0 0 0 0 0 0 0 0 0 0 0 0 0 0 0 0 0 0 0 0 0 0 0 0 0 0 0 0 0 0 0 0 0 0 0 0 0 0 0 0 0 0 0 0 0 0 0 0 0 0 0 0 0 0 0 0 0 0 0 0 0 0 0 0 0 0 0 0 0 0 0 0 0 0 0 0 0 0 0 0 0 0 0 0 0 0 0 0 0 0 0 0 0 0 0 0 0 0 0 0 0 0 0 0 0 
0 0 0 0 0 0 0 0 0 0 0 0 0 0 0 0 0 0 0 0 0 0 0 0 0 0 0 0 0 0 0 0 0 0 0 0 0 0 1.041885e-15 5.454489e-15 2.570249e-14 1.086797e-13 4.191616e-13 1.472260e-12 4.774641e-12 1.429198e-11 3.990147e-11 1.040006e-10 2.548884e-10 5.887769e-10 1.287131e-09 2.673306e-09 5.281752e-09 9.984403e-09 1.800156e-08 3.114526e-08 5.151062e-08 8.200104e-08 1.250889e-07 1.840383e-07 2.599656e-07 3.545713e-07 4.649684e-07 5.890149e-07 7.181224e-07 8.458957e-07 9.598058e-07 1.052407e-06 1.112673e-06 1.137360e-06 1.122381e-06 1.071671e-06 9.891539e-07 8.841384e-07 7.648662e-07 6.412820e-07 5.209210e-07 4.103963e-07 3.135556e-07 2.325366e-07 1.674377e-07 1.171689e-07 7.974292e-08 5.285059e-08 3.417740e-08 2.174199e-08 1.365364e-08 8.475508e-09 5.208846e-09 3.172118e-09 1.917174e-09 1.151586e-09 6.896544e-10 4.138624e-10 2.514880e-10 1.576058e-10 1.049913e-10 7.715784e-11 6.426603e-11 6.042860e-11 6.212214e-11 6.720165e-11 7.429955e-11 8.249960e-11 9.111313e-11 9.960092e-11 1.074929e-10 1.143977e-10 1.199763e-10 1.239721e-10 1.262025e-10 1.265784e-10 1.250992e-10 1.218501e-10 1.169959e-10 1.107581e-10 1.034093e-10 9.523803e-11 8.654848e-11 7.762235e-11 6.872759e-11 6.008446e-11 5.188262e-11 4.425562e-11 3.730312e-11 3.107409e-11 2.559017e-11 2.083552e-11 1.677794e-11 1.336292e-11 1.053030e-11 8.210584e-12 6.336551e-12 4.840464e-12 3.661271e-12 2.742151e-12 2.034349e-12 1.494972e-12 1.088627e-12 7.855218e-13 5.618771e-13 3.984003e-13 2.801364e-13 1.953350e-13 1.351243e-13 9.272949e-14 6.315707e-14 4.269072e-14 2.865162e-14 1.909231e-14 1.263768e-14 8.309388e-15 5.429771e-15 3.526191e-15 2.277064e-15 1.462188e-15 0 0 0 0 0 0 0 0 0 0 0 0 0 0 0 0 0 0 0 0 0 0 0 0 0 0 0 0 0 0 0 0 0 0 0 0 0 0 0 0 0 0 0 0 0 0 0 0 0 0 0 0 0 0 0 0 0 0 0 0 0 0 0 0 0 0 0 0 0 0 0 0 0 0 0 0 0 0 0 0 0 0 0 0 0 0 0 0 0 0 0 0 0 0 0 0 0 0 0 0 0 0 0 0 0 0 0 0 0 0 0 0 0 0 0 0 0 0 0 0 0 0 0 0 0 0 0 0 0 0 0 0 0 0 0 0 0 0 0 0 0 0 0 0 0 0 0 0 0 0 0 0 0 0 0 0 0 0 0 0 0 0 0 0 0 0 0 0 0 0 0 0 0 0 0 0 0 0 0 0 0 0 0 0 0 0 0 0 0 0 0 0 0 0 0 0 0 0 0 0 0 0 0 0 0 0 0 0 0 0 0 0 0 0 0 0 0 0 0 0 0 0 0 0 0 0 0 0 
0 0 0 0 0 0 0 0 0 0 0 0 0 0 0 0 0 0 0 0 0 0 0 0 0 0 0 0 0 0 0 0 0 0 0 0 0 1.251199e-15 7.236279e-15 3.694619e-14 1.697670e-13 6.992440e-13 2.629813e-12 9.006919e-12 2.852475e-11 8.340989e-11 2.278084e-10 5.811090e-10 1.395448e-09 3.159549e-09 6.776303e-09 1.381236e-08 2.680065e-08 4.977587e-08 8.824686e-08 1.502224e-07 2.446329e-07 3.837306e-07 5.773323e-07 8.385197e-07 1.170690e-06 1.579879e-06 2.052758e-06 2.579483e-06 3.123962e-06 3.659275e-06 4.134303e-06 4.518240e-06 4.767013e-06 4.867118e-06 4.802994e-06 4.590212e-06 4.245432e-06 3.805938e-06 3.305675e-06 2.784919e-06 2.275044e-06 1.803606e-06 1.387429e-06 1.036309e-06 7.517091e-07 5.299575e-07 3.633848e-07 2.427105e-07 1.587989e-07 1.024513e-07 6.529781e-08 4.116111e-08 2.569183e-08 1.589078e-08 9.750921e-09 5.943444e-09 3.607606e-09 2.189871e-09 1.340708e-09 8.406999e-10 5.542680e-10 3.980375e-10 3.213479e-10 2.934434e-10 2.956474e-10 3.164488e-10 3.484799e-10 3.867781e-10 4.276771e-10 4.683102e-10 5.062514e-10 5.394791e-10 5.662941e-10 5.854096e-10 5.959425e-10 5.974774e-10 5.900463e-10 5.741104e-10 5.505087e-10 5.203630e-10 4.850134e-10 4.458845e-10 4.044359e-10 3.620316e-10 3.199262e-10 2.791649e-10 2.406099e-10 2.048794e-10 1.724028e-10 1.433941e-10 1.179191e-10 9.588995e-11 7.712924e-11 6.137391e-11 4.832661e-11 3.766012e-11 2.905279e-11 2.218986e-11 1.678418e-11 1.257391e-11 9.332225e-12 6.862582e-12 5.001486e-12 3.612946e-12 2.587610e-12 1.837606e-12 1.294343e-12 9.043386e-13 6.269446e-13 4.313065e-13 2.945360e-13 1.996786e-13 1.344339e-13 8.989187e-14 5.971990e-14 3.942418e-14 2.587121e-14 1.687918e-14 1.095342e-14 7.071321e-15 4.543709e-15 2.906658e-15 1.852207e-15 1.176101e-15 0 0 0 0 0 0 0 0 0 0 0 0 0 0 0 0 0 0 0 0 0 0 0 0 0 0 0 0 0 0 0 0 0 0 0 0 0 0 0 0 0 0 0 0 0 0 0 0 0 0 0 0 0 0 0 0 0 0 0 0 0 0 0 0 0 0 0 0 0 0 0 0 0 0 0 0 0 0 0 0 0 0 0 0 0 0 0 0 0 0 0 0 0 0 0 0 0 0 0 0 0 0 0 0 0 0 0 0 0 0 0 0 0 0 0 0 0 0 0 0 0 0 0 0 0 0 0 0 0 0 0 0 0 0 0 0 0 0 0 0 0 0 0 0 0 0 0 0 0 0 0 0 0 0 0 0 0 0 0 0 0 0 0 0 0 0 0 0 0 0 0 0 0 0 0 0 0 0 0 0 0 0 0 0 0 0 0 0 0 0 0 0 0 0 0 0 0 0 0 0 0 0 0 0 0 0 0 0 0 0 0 0 0 0 0 0 0 0 0 0 0 0 0 0 
0 0 0 0 0 0 0 0 0 0 0 0 0 0 0 0 0 0 0 0 0 0 0 0 0 0 0 0 0 0 0 0 0 0 0 0 1.311653e-15 8.355791e-15 4.715528e-14 2.343480e-13 1.047147e-12 4.193720e-12 1.534597e-11 5.119936e-11 1.581461e-10 4.517169e-10 1.206518e-09 3.013990e-09 7.094030e-09 1.576126e-08 3.318815e-08 6.647732e-08 1.267951e-07 2.316633e-07 4.041916e-07 6.776234e-07 1.087043e-06 1.680972e-06 2.494554e-06 3.576970e-06 4.934885e-06 6.588515e-06 8.479356e-06 1.056713e-05 1.270901e-05 1.480112e-05 1.664787e-05 1.813194e-05 1.908864e-05 1.946656e-05 1.921099e-05 1.837933e-05 1.703794e-05 1.532477e-05 1.337050e-05 1.132528e-05 9.311349e-06 7.434233e-06 5.763381e-06 4.339739e-06 3.174536e-06 2.257026e-06 1.561117e-06 1.052696e-06 6.988437e-07 4.578864e-07 2.965434e-07 1.899570e-07 1.204838e-07 7.570056e-08 4.716990e-08 2.917501e-08 1.795253e-08 1.102666e-08 6.808948e-09 4.280591e-09 2.802497e-09 1.973743e-09 1.547259e-09 1.370343e-09 1.349093e-09 1.424873e-09 1.559867e-09 1.728609e-09 1.912344e-09 2.096665e-09 2.269479e-09 2.420946e-09 2.542851e-09 2.629136e-09 2.675714e-09 2.680790e-09 2.644722e-09 2.569847e-09 2.460303e-09 2.321415e-09 2.159551e-09 1.981274e-09 1.793355e-09 1.601918e-09 1.412658e-09 1.230132e-09 1.058161e-09 8.993222e-10 7.554498e-10 6.273124e-10 5.151223e-10 4.183415e-10 3.361270e-10 2.672150e-10 2.102617e-10 1.637660e-10 1.263016e-10 9.645599e-11 7.297002e-11 5.468410e-11 4.061084e-11 2.988741e-11 2.180555e-11 1.577158e-11 1.131318e-11 8.048030e-12 5.680253e-12 3.977509e-12 2.764424e-12 1.906954e-12 1.306202e-12 8.884023e-13 6.002614e-13 4.029045e-13 2.687884e-13 1.782275e-13 1.175244e-13 7.707163e-14 5.029579e-14 3.266528e-14 2.112744e-14 1.361105e-14 8.740726e-15 5.596691e-15 3.576128e-15 2.281130e-15 1.453955e-15 0 0 0 0 0 0 0 0 0 0 0 0 0 0 0 0 0 0 0 0 0 0 0 0 0 0 0 0 0 0 0 0 0 0 0 0 0 0 0 0 0 0 0 0 0 0 0 0 0 0 0 0 0 0 0 0 0 0 0 0 0 0 0 0 0 0 0 0 0 0 0 0 0 0 0 0 0 0 0 0 0 0 0 0 0 0 0 0 0 0 0 0 0 0 0 0 0 0 0 0 0 0 0 0 0 0 0 0 0 0 0 0 0 0 0 0 0 0 0 0 0 0 0 0 0 0 0 0 0 0 0 0 0 0 0 0 0 0 0 0 0 0 0 0 0 0 0 0 0 0 0 0 0 0 0 0 0 0 0 0 0 0 0 0 0 0 0 0 0 0 0 0 0 0 0 0 0 0 0 0 0 0 0 0 0 0 0 0 0 0 0 0 0 0 0 0 0 0 0 0 0 0 0 0 0 0 0 0 0 0 0 0 0 0 0 0 0 0 0 0 0 
0 0 0 0 0 0 0 0 0 0 0 0 0 0 0 0 0 0 0 0 0 0 0 0 0 0 0 0 0 0 0 0 0 0 0 1.187295e-15 8.533280e-15 5.311556e-14 2.919007e-13 1.406843e-12 6.094437e-12 2.364127e-11 8.395324e-11 2.720554e-10 8.183460e-10 2.279333e-09 5.950783e-09 1.454735e-08 3.356788e-08 7.317550e-08 1.513670e-07 2.979959e-07 5.590466e-07 1.004859e-06 1.726361e-06 2.850926e-06 4.506658e-06 6.869725e-06 1.005521e-05 1.422995e-05 1.939453e-05 2.560483e-05 3.262944e-05 4.031097e-05 4.813188e-05 5.571556e-05 6.237467e-05 6.769070e-05 7.109891e-05 7.241659e-05 7.147004e-05 6.845655e-05 6.361978e-05 5.743374e-05 5.035890e-05 4.291454e-05 3.553500e-05 2.859710e-05 2.236138e-05 1.699042e-05 1.254439e-05 9.003157e-06 6.288301e-06 4.298009e-06 2.897479e-06 1.928939e-06 1.269563e-06 8.265098e-07 5.326338e-07 3.399205e-07 2.150224e-07 1.349337e-07 8.415757e-08 5.231725e-08 3.260858e-08 2.059523e-08 1.343789e-08 9.328145e-09 7.131045e-09 6.135166e-09 5.896255e-09 6.133390e-09 6.664065e-09 7.364472e-09 8.144364e-09 8.934464e-09 9.678091e-09 1.032926e-08 1.085075e-08 1.121531e-08 1.140538e-08 1.141381e-08 1.124327e-08 1.090533e-08 1.041918e-08 9.809235e-09 9.103780e-09 8.331997e-09 7.523051e-09 6.703478e-09 5.897081e-09 5.123098e-09 4.396893e-09 3.728962e-09 3.126134e-09 2.591192e-09 2.124240e-09 1.722664e-09 1.382363e-09 1.097837e-09 8.631266e-10 6.718807e-10 5.179813e-10 3.955432e-10 2.992632e-10 2.243579e-10 1.667169e-10 1.228045e-10 8.969498e-11 6.496591e-11 4.667585e-11 3.326841e-11 2.353069e-11 1.651752e-11 1.151059e-11 7.964185e-12 5.472907e-12 3.735786e-12 2.533880e-12 1.708024e-12 1.144654e-12 7.627909e-13 5.056819e-13 3.335736e-13 2.190617e-13 1.432632e-13 9.335802e-14 6.064422e-14 3.929585e-14 2.541198e-14 1.641366e-14 1.059495e-14 6.840472e-15 4.420064e-15 2.860772e-15 1.855565e-15 1.206974e-15 0 0 0 0 0 0 0 0 0 0 0 0 0 0 0 0 0 0 0 0 0 0 0 0 0 0 0 0 0 0 0 0 0 0 0 0 0 0 0 0 0 0 0 0 0 0 0 0 0 0 0 0 0 0 0 0 0 0 0 0 0 0 0 0 0 0 0 0 0 0 0 0 0 0 0 0 0 0 0 0 0 0 0 0 0 0 0 0 0 0 0 0 0 0 0 0 0 0 0 0 0 0 0 0 0 0 0 0 0 0 0 0 0 0 0 0 0 0 0 0 0 0 0 0 0 0 0 0 0 0 0 0 0 0 0 0 0 0 0 0 0 0 0 0 0 0 0 0 0 0 0 0 0 0 0 0 0 0 0 0 0 0 0 0 0 0 0 0 0 0 0 0 0 0 0 0 0 0 0 0 0 0 0 0 0 0 0 0 0 0 0 0 0 0 0 0 0 0 0 0 0 0 0 0 0 0 0 0 0 0 0 0 0 0 0 0 0 
0 0 0 0 0 0 0 0 0 0 0 0 0 0 0 0 0 0 0 0 0 0 0 0 0 0 0 0 0 0 0 0 0 0 0 7.540120e-15 5.327722e-14 3.233965e-13 1.724086e-12 8.024463e-12 3.352341e-11 1.253975e-10 4.300661e-10 1.349160e-09 3.939067e-09 1.067992e-08 2.720763e-08 6.505994e-08 1.471024e-07 3.147668e-07 6.397677e-07 1.238998e-06 2.287554e-06 4.049212e-06 6.853624e-06 1.115711e-05 1.738413e-05 2.613012e-05 3.771977e-05 5.267805e-05 7.090284e-05 9.253564e-05 1.167161e-04 1.429010e-04 1.693407e-04 1.947943e-04 2.170148e-04 2.346376e-04 2.458680e-04 2.501172e-04 2.468870e-04 2.368065e-04 2.207085e-04 2.000829e-04 1.764313e-04 1.513855e-04 1.263741e-04 1.026185e-04 8.103280e-05 6.220170e-05 4.641398e-05 3.367157e-05 2.379428e-05 1.651762e-05 1.131965e-05 7.662427e-06 5.127802e-06 3.393149e-06 2.221843e-06 1.439969e-06 9.245662e-07 5.884869e-07 3.719840e-07 2.340412e-07 1.473220e-07 9.359792e-08 6.102875e-08 4.191931e-08 3.137454e-08 2.627015e-08 2.463109e-08 2.519042e-08 2.711752e-08 2.984658e-08 3.296490e-08 3.615960e-08 3.917652e-08 4.181421e-08 4.391132e-08 4.535336e-08 4.606875e-08 4.603181e-08 4.525929e-08 4.380445e-08 4.175285e-08 3.920901e-08 3.629358e-08 3.312699e-08 2.983007e-08 2.650886e-08 2.325930e-08 2.015542e-08 1.725723e-08 1.460264e-08 1.221678e-08 1.010701e-08 8.271874e-09 6.698175e-09 5.368453e-09 4.259136e-09 3.346096e-09 2.603312e-09 2.006542e-09 1.532219e-09 1.159598e-09 8.697944e-10 6.468660e-10 4.769836e-10 3.488617e-10 2.530831e-10 1.821828e-10 1.301317e-10 9.227231e-11 6.494860e-11 4.540125e-11 3.151853e-11 2.174030e-11 1.489958e-11 1.015098e-11 6.875247e-12 4.631835e-12 3.104150e-12 2.070736e-12 1.375209e-12 9.098709e-13 5.998817e-13 3.944357e-13 2.587397e-13 1.694814e-13 1.109033e-13 7.257034e-14 4.750900e-14 3.114743e-14 2.045892e-14 1.347499e-14 8.901386e-15 5.900958e-15 3.925365e-15 2.620719e-15 1.755242e-15 1.179125e-15 0 0 0 0 0 0 0 0 0 0 0 0 0 0 0 0 0 0 0 0 0 0 0 0 0 0 0 0 0 0 0 0 0 0 0 0 0 0 0 0 0 0 0 0 0 0 0 0 0 0 0 0 0 0 0 0 0 0 0 0 0 0 0 0 0 0 0 0 0 0 0 0 0 0 0 0 0 0 0 0 0 0 0 0 0 0 0 0 0 0 0 0 0 0 0 0 0 0 0 0 0 0 0 0 0 0 0 0 0 0 0 0 0 0 0 0 0 0 0 0 0 0 0 0 0 0 0 0 0 0 0 0 0 0 0 0 0 0 0 0 0 0 0 0 0 0 0 0 0 0 0 0 0 0 0 0 0 0 0 0 0 0 0 0 0 0 0 0 0 0 0 0 0 0 0 0 0 0 0 0 0 0 0 0 0 0 0 0 0 0 0 0 0 0 0 0 0 0 0 0 0 0 0 0 0 0 0 0 0 0 0 0 0 
0 0 0 0 0 0 0 0 0 0 0 0 0 0 0 0 0 0 0 0 0 0 0 0 0 0 0 0 0 0 0 0 0 0 5.809245e-15 4.678843e-14 3.252938e-13 1.919613e-12 9.891526e-12 4.419769e-11 1.770563e-10 6.342530e-10 2.088927e-09 6.306217e-09 1.779596e-08 4.677713e-08 1.160061e-07 2.707308e-07 5.992343e-07 1.257345e-06 2.510728e-06 4.781355e-06 8.689202e-06 1.514264e-05 2.524981e-05 4.051428e-05 6.222232e-05 9.219144e-05 1.312131e-04 1.807396e-04 2.401368e-04 3.096471e-04 3.864166e-04 4.686824e-04 5.510880e-04 6.298208e-04 6.981875e-04 7.520440e-04 7.861965e-04 7.988879e-04 7.888609e-04 7.579749e-04 7.088257e-04 6.457171e-04 5.730746e-04 4.955966e-04 4.175146e-04 3.424849e-04 2.734055e-04 2.122655e-04 1.602385e-04 1.176403e-04 8.425667e-05 5.946683e-05 4.143969e-05 2.852261e-05 1.940238e-05 1.304601e-05 8.675615e-06 5.707424e-06 3.717433e-06 2.398861e-06 1.535981e-06 9.779078e-07 6.217643e-07 3.978189e-07 2.598510e-07 1.773834e-07 1.306747e-07 1.069566e-07 9.802964e-08 9.856844e-08 1.050462e-07 1.150383e-07 1.267833e-07 1.389438e-07 1.504554e-07 1.604786e-07 1.683622e-07 1.736507e-07 1.760762e-07 1.755579e-07 1.721877e-07 1.662020e-07 1.579577e-07 1.478846e-07 1.364612e-07 1.241644e-07 1.114564e-07 9.874398e-08 8.638073e-08 7.464112e-08 6.373518e-08 5.379614e-08 4.490159e-08 3.706983e-08 3.028175e-08 2.448127e-08 1.959391e-08 1.552812e-08 1.218878e-08 9.477869e-09 7.302936e-09 5.576706e-09 4.221591e-09 3.168431e-09 2.358339e-09 1.741047e-09 1.275212e-09 9.267641e-10 6.684981e-10 4.786561e-10 3.403097e-10 2.402729e-10 1.685229e-10 1.174348e-10 8.133466e-11 5.599756e-11 3.834011e-11 2.611096e-11 1.769623e-11 1.193855e-11 8.021854e-12 5.370486e-12 3.584699e-12 2.386720e-12 1.586324e-12 1.053120e-12 6.989216e-13 4.640044e-13 3.084144e-13 2.053647e-13 1.370955e-13 9.179223e-14 6.167195e-14 4.158210e-14 2.813931e-14 1.910630e-14 1.301307e-14 8.884673e-15 6.077449e-15 4.161469e-15 2.850494e-15 1.951395e-15 1.334227e-15 0 0 0 0 0 0 0 0 0 0 0 0 0 0 0 0 0 0 0 0 0 0 0 0 0 0 0 0 0 0 0 0 0 0 0 0 0 0 0 0 0 0 0 0 0 0 0 0 0 0 0 0 0 0 0 0 0 0 0 0 0 0 0 0 0 0 0 0 0 0 0 0 0 0 0 0 0 0 0 0 0 0 0 0 0 0 0 0 0 0 0 0 0 0 0 0 0 0 0 0 0 0 0 0 0 0 0 0 0 0 0 0 0 0 0 0 0 0 0 0 0 0 0 0 0 0 0 0 0 0 0 0 0 0 0 0 0 0 0 0 0 0 0 0 0 0 0 0 0 0 0 0 0 0 0 0 0 0 0 0 0 0 0 0 0 0 0 0 0 0 0 0 0 0 0 0 0 0 0 0 0 0 0 0 0 0 0 0 0 0 0 0 0 0 0 0 0 0 0 0 0 0 0 0 0 0 0 0 0 
0 0 0 0 0 0 0 0 0 0 0 0 0 0 0 0 0 0 0 0 0 0 0 0 0 0 0 0 0 0 0 0 0 3.772643e-15 3.558230e-14 2.857406e-13 1.955815e-12 1.119311e-11 5.547344e-11 2.366023e-10 9.023600e-10 3.073926e-09 9.645758e-09 2.783794e-08 7.543385e-08 1.913401e-07 4.600165e-07 1.045275e-06 2.260304e-06 4.647254e-06 9.111138e-06 1.706528e-05 3.052723e-05 5.240835e-05 8.609628e-05 1.362135e-04 2.061930e-04 3.011400e-04 4.224238e-04 5.737075e-04 7.520342e-04 9.577145e-04 1.181985e-03 1.419887e-03 1.656281e-03 1.880614e-03 2.074458e-03 2.226369e-03 2.322513e-03 2.358166e-03 2.330566e-03 2.244744e-03 2.108123e-03 1.931870e-03 1.727861e-03 1.508133e-03 1.284137e-03 1.065684e-03 8.613481e-04 6.772912e-04 5.179715e-04 3.853539e-04 2.803084e-04 2.011442e-04 1.425345e-04 9.974020e-05 6.895484e-05 4.709315e-05 3.179187e-05 2.121755e-05 1.401169e-05 9.160749e-06 5.938754e-06 3.824225e-06 2.455861e-06 1.583095e-06 1.037537e-06 7.059146e-07 5.139553e-07 4.127636e-07 3.705773e-07 3.664581e-07 3.863981e-07 4.206954e-07 4.622722e-07 5.057942e-07 5.470390e-07 5.827465e-07 6.104234e-07 6.283901e-07 6.357090e-07 6.321732e-07 6.182364e-07 5.948737e-07 5.635067e-07 5.257751e-07 4.834935e-07 4.384058e-07 3.922037e-07 3.463173e-07 3.019969e-07 2.601613e-07 2.215214e-07 1.864820e-07 1.552781e-07 1.279157e-07 1.042959e-07 8.417919e-08 6.728458e-08 5.326535e-08 4.177960e-08 3.247164e-08 2.501684e-08 1.910592e-08 1.447031e-08 1.086859e-08 8.098830e-09 5.987304e-09 4.393120e-09 3.199272e-09 2.313369e-09 1.660961e-09 1.184632e-09 8.393203e-10 5.910106e-10 4.136253e-10 2.878637e-10 1.992390e-10 1.372212e-10 9.405782e-11 6.420740e-11 4.366142e-11 2.959847e-11 2.001024e-11 1.350311e-11 9.099413e-12 6.129424e-12 4.129351e-12 2.785096e-12 1.881531e-12 1.274361e-12 8.656128e-13 5.900507e-13 4.036356e-13 2.771669e-13 1.909723e-13 1.320135e-13 9.148582e-14 6.353084e-14 4.416533e-14 3.071775e-14 2.135264e-14 1.482572e-14 1.027191e-14 7.098245e-15 4.888089e-15 3.353291e-15 2.289982e-15 1.556468e-15 1.052290e-15 0 0 0 0 0 0 0 0 0 0 0 0 0 0 0 0 0 0 0 0 0 0 0 0 0 0 0 0 0 0 0 0 0 0 0 0 0 0 0 0 0 0 0 0 0 0 0 0 0 0 0 0 0 0 0 0 0 0 0 0 0 0 0 0 0 0 0 0 0 0 0 0 0 0 0 0 0 0 0 0 0 0 0 0 0 0 0 0 0 0 0 0 0 0 0 0 0 0 0 0 0 0 0 0 0 0 0 0 0 0 0 0 0 0 0 0 0 0 0 0 0 0 0 0 0 0 0 0 0 0 0 0 0 0 0 0 0 0 0 0 0 0 0 0 0 0 0 0 0 0 0 0 0 0 0 0 0 0 0 0 0 0 0 0 0 0 0 0 0 0 0 0 0 0 0 0 0 0 0 0 0 0 0 0 0 0 0 0 0 0 0 0 0 0 0 0 0 0 0 0 0 0 0 0 