# vtk DataFile Version 2.0
Comment goes here
ASCII

DATASET STRUCTURED_POINTS
FIELD FieldData 1
TIME 1 1 double
1.70000000
DIMENSIONS    384   64   1

ORIGIN    0.000   0.000   0.000
SPACING   0.078125 0.078125   1.000

POINT_DATA   24576
SCALARS Concentration double
LOOKUP_TABLE default

0 0 0 0 0 0 0 0 0 0 0 0 0 0 0 0 0 0 0 0 0 0 0 0 0 0 0 0 0 0 0 0 0 0 0 0 0 0 0 0 0 0 0 0 0 0 0 0 0 0 0 0 0 0 0 0 0 0 0 0 0 0 0 0 0 0 0 0 0 0 0 0 0 0 0 0 0 0 0 0 0 0 0 0 0 0 0 0 0 0 0 0 0 0 0 0 0 0 0 0 0 0 0 0 0 0 0 0 0 0 0 0 0 0 0 0 0 0 0 0 0 0 0 0 0 0 0 0 0 0 0 0 0 0 0 0 0 0 0 0 0 0 0 0 0 0 0 0 0 0 0 0 0 0 0 0 0 0 0 0 0 0 0 0 0 0 0 0 0 0 0 0 0 0 0 0 0 0 0 0 0 0 0 0 0 0 0 0 0 0 0 0 0 0 0 0 0 0 0 0 0 0 0 0 0 0 0 0 0 0 0 0 0 0 0 0 0 0 0 0 0 0 0 0 0 0 0 0 0 0 0 0 0 0 0 0 0 0 0 0 0 0 0 0 0 0 0 0 0 0 0 0 0 0 0 0 0 0 0 0 0 0 0 0 0 0 0 0 0 0 0 0 0 0 0 0 0 0 0 0 0 0 0 0 0 0 0 0 0 0 0 0 0 0 0 0 0 0 0 0 0 0 0 0 0 0 0 0 0 0 0 0 0 0 0 0 0 0 0 0 0 0 0 0 0 0 0 0 0 0 0 0 0 0 0 0 0 0 0 0 0 0 0 0 0 0 0 0 0 0 0 0 0 0 0 0 0 0 0 0 0 0 0 0 0 0 0 0 0 0 0 0 0 0 0 0 0 0 0 0 0 0 0 0 
0 0 0 0 0 0 0 0 0 0 0 0 0 0 0 0 0 0 0 0 0 0 0 0 0 0 0 0 0 0 0 0 0 0 0 0 0 0 0 0 0 0 0 0 0 0 0 0 0 0 0 0 0 0 0 0 0 0 0 0 0 0 0 0 0 0 0 0 0 0 0 0 0 0 0 0 0 0 0 0 0 0 0 0 0 0 0 0 0 0 0 0 0 0 0 0 0 0 0 0 0 0 0 0 0 0 0 0 0 0 0 0 0 0 0 0 0 0 0 0 0 0 0 0 0 0 0 0 0 0 0 0 0 0 0 0 0 0 0 0 0 0 0 0 0 0 0 0 0 0 0 0 0 0 0 0 0 0 0 0 0 0 0 0 0 0 0 0 0 0 0 0 0 0 0 0 0 0 0 0 0 0 0 0 0 0 0 0 0 0 0 0 0 0 0 0 0 0 0 0 0 0 0 0 0 0 0 0 0 0 0 0 0 0 0 0 0 0 0 0 0 0 0 0 0 0 0 0 0 0 0 0 0 0 0 0 0 0 0 0 0 0 0 0 0 0 0 0 0 0 0 0 0 0 0 0 0 0 0 0 0 0 0 0 0 0 0 0 0 0 0 0 0 0 0 0 0 0 0 0 0 0 0 0 0 0 0 0 0 0 0 0 0 0 0 0 0 0 0 0 0 0 0 0 0 0 0 0 0 0 0 0 0 0 0 0 0 0 0 0 0 0 0 0 0 0 0 0 0 0 0 0 0 0 0 0 0 0 0 0 0 0 0 0 0 0 0 0 0 0 0 0 0 0 0 0 0 0 0 0 0 0 0 0 0 0 0 0 0 0 0 0 0 0 0 0 0 0 0 0 0 0 0 0 
0 0 0 0 0 0 0 0 0 0 0 0 0 0 0 0 0 0 0 0 0 0 0 0 0 0 0 0 0 0 0 0 0 0 0 0 0 0 0 0 0 0 0 0 0 0 0 0 0 0 0 0 0 0 0 0 0 0 0 0 0 0 0 0 0 0 0 0 0 0 0 0 0 0 0 0 0 1.073419e-15 1.243335e-15 1.421087e-15 1.601535e-15 1.779004e-15 1.946971e-15 2.098822e-15 2.227891e-15 2.328259e-15 2.394971e-15 2.424607e-15 2.415520e-15 2.367936e-15 2.284091e-15 2.167795e-15 2.024465e-15 1.860266e-15 1.682139e-15 1.496784e-15 1.310795e-15 1.129736e-15 0 0 0 0 0 0 0 0 0 0 0 0 0 0 0 0 0 0 0 0 0 0 0 0 0 0 0 0 0 0 0 0 0 0 0 0 0 0 0 0 0 0 0 0 0 0 0 0 0 0 0 0 0 0 0 0 0 0 0 0 0 0 0 0 0 0 0 0 0 0 0 0 0 0 0 0 0 0 0 0 0 0 0 0 0 0 0 0 0 0 0 0 0 0 0 0 0 0 0 0 0 0 0 0 0 0 0 0 0 0 0 0 0 0 0 0 0 0 0 0 0 0 0 0 0 0 0 0 0 0 0 0 0 0 0 0 0 0 0 0 0 0 0 0 0 0 0 0 0 0 0 0 0 0 0 0 0 0 0 0 0 0 0 0 0 0 0 0 0 0 0 0 0 0 0 0 0 0 0 0 0 0 0 0 0 0 0 0 0 0 0 0 0 0 0 0 0 0 0 0 0 0 0 0 0 0 0 0 0 0 0 0 0 0 0 0 0 0 0 0 0 0 0 0 0 0 0 0 0 0 0 0 0 0 0 0 0 0 0 0 0 0 0 0 0 0 0 0 0 0 0 0 0 0 0 0 0 0 0 0 0 0 0 0 0 0 0 0 0 0 0 0 0 0 0 0 0 0 0 0 0 0 0 0 0 0 
0 0 0 0 0 0 0 0 0 0 0 0 0 0 0 0 0 0 0 0 0 0 0 0 0 0 0 0 0 0 0 0 0 0 0 0 0 0 0 0 0 0 0 0 0 0 0 0 0 0 1.295265e-15 1.689156e-15 2.042949e-15 2.309950e-15 2.439901e-15 2.424601e-15 2.270251e-15 2.019107e-15 1.716734e-15 1.414993e-15 1.151480e-15 0 0 0 0 0 1.012844e-15 1.200962e-15 1.439481e-15 1.731990e-15 2.085868e-15 2.514041e-15 3.031877e-15 3.657353e-15 4.406321e-15 5.294006e-15 6.310481e-15 7.437705e-15 8.653094e-15 9.930871e-15 1.123456e-14 1.252392e-14 1.375030e-14 1.486539e-14 1.581893e-14 1.656724e-14 1.707285e-14 1.731027e-14 1.726683e-14 1.694361e-14 1.635687e-14 1.553365e-14 1.451370e-14 1.334096e-14 1.206648e-14 1.073795e-14 9.404042e-15 8.104222e-15 6.874505e-15 5.739160e-15 4.717256e-15 3.816843e-15 3.041450e-15 2.386477e-15 1.844818e-15 1.404781e-15 1.054321e-15 0 0 0 0 0 0 0 0 0 0 0 0 0 0 0 0 0 0 0 0 0 0 0 0 0 0 0 0 0 0 0 0 0 0 0 0 0 0 0 0 0 0 0 0 0 0 0 0 0 0 0 0 0 0 0 0 0 0 0 0 0 0 0 0 0 0 0 0 0 0 0 0 0 0 0 0 0 0 0 0 0 0 0 0 0 0 0 0 0 0 0 0 0 0 0 0 0 0 0 0 0 0 0 0 0 0 0 0 0 0 0 0 0 0 0 0 0 0 0 0 0 0 0 0 0 0 0 0 0 0 0 0 0 0 0 0 0 0 0 0 0 0 0 0 0 0 0 0 0 0 0 0 0 0 0 0 0 0 0 0 0 0 0 0 0 0 0 0 0 0 0 0 0 0 0 0 0 0 0 0 0 0 0 0 0 0 0 0 0 0 0 0 0 0 0 0 0 0 0 0 0 0 0 0 0 0 0 0 0 0 0 0 0 0 0 0 0 0 0 0 0 0 0 0 0 0 0 0 0 0 0 0 0 0 0 0 0 0 0 0 0 0 0 0 0 0 0 0 0 0 0 0 0 0 0 0 0 0 0 0 0 0 0 0 0 0 0 0 0 0 0 0 0 0 0 0 0 
0 0 0 0 0 0 0 0 0 0 0 0 0 0 0 0 0 0 0 0 0 0 0 0 0 0 0 0 0 0 0 0 0 0 0 0 0 0 0 0 0 0 0 0 0 1.338220e-15 2.613407e-15 4.668731e-15 7.616986e-15 1.148431e-14 1.596293e-14 2.065039e-14 2.481111e-14 2.789476e-14 2.931680e-14 2.898210e-14 2.697064e-14 2.377587e-14 1.993674e-14 1.605682e-14 1.257544e-14 9.783711e-15 7.788937e-15 6.579757e-15 6.069437e-15 6.151320e-15 6.726494e-15 7.726853e-15 9.119563e-15 1.091699e-14 1.317215e-14 1.597844e-14 1.945445e-14 2.373474e-14 2.894345e-14 3.505165e-14 4.199946e-14 4.971482e-14 5.806970e-14 6.688972e-14 7.593085e-14 8.490722e-14 9.348249e-14 1.013099e-13 1.080378e-13 1.133516e-13 1.169872e-13 1.187605e-13 1.185797e-13 1.164503e-13 1.124814e-13 1.068633e-13 9.986759e-14 9.180507e-14 8.302563e-14 7.386785e-14 6.466503e-14 5.569904e-14 4.721525e-14 3.938860e-14 3.234655e-14 2.614927e-14 2.081644e-14 1.631860e-14 1.260244e-14 9.588366e-15 7.190195e-15 5.314615e-15 3.873871e-15 2.784796e-15 1.975332e-15 1.382675e-15 0 0 0 0 0 0 0 0 0 0 0 0 0 0 0 0 0 0 0 0 0 0 0 0 0 0 0 0 0 0 0 0 0 0 0 0 0 0 0 0 0 0 0 0 0 0 0 0 0 0 0 0 0 0 0 0 0 0 0 0 0 0 0 0 0 0 0 0 0 0 0 0 0 0 0 0 0 0 0 0 0 0 0 0 0 0 0 0 0 0 0 0 0 0 0 0 0 0 0 0 0 0 0 0 0 0 0 0 0 0 0 0 0 0 0 0 0 0 0 0 0 0 0 0 0 0 0 0 0 0 0 0 0 0 0 0 0 0 0 0 0 0 0 0 0 0 0 0 0 0 0 0 0 0 0 0 0 0 0 0 0 0 0 0 0 0 0 0 0 0 0 0 0 0 0 0 0 0 0 0 0 0 0 0 0 0 0 0 0 0 0 0 0 0 0 0 0 0 0 0 0 0 0 0 0 0 0 0 0 0 0 0 0 0 0 0 0 0 0 0 0 0 0 0 0 0 0 0 0 0 0 0 0 0 0 0 0 0 0 0 0 0 0 0 0 0 0 0 0 0 0 0 0 0 0 0 0 0 0 0 0 0 0 0 0 0 0 0 0 0 0 0 
0 0 0 0 0 0 0 0 0 0 0 0 0 0 0 0 0 0 0 0 0 0 0 0 0 0 0 0 0 0 0 0 0 0 0 0 0 0 0 0 0 0 1.222759e-15 3.252134e-15 7.678222e-15 1.635089e-14 3.143046e-14 5.534981e-14 8.914605e-14 1.329458e-13 1.830925e-13 2.351278e-13 2.808623e-13 3.143829e-13 3.292582e-13 3.245228e-13 3.010167e-13 2.641514e-13 2.198548e-13 1.747638e-13 1.337624e-13 1.000299e-13 7.473265e-14 5.763520e-14 4.767520e-14 4.351577e-14 4.392561e-14 4.799193e-14 5.519465e-14 6.545051e-14 7.904367e-14 9.660771e-14 1.190041e-13 1.470651e-13 1.807754e-13 2.202190e-13 2.652451e-13 3.155433e-13 3.703164e-13 4.284897e-13 4.884288e-13 5.482667e-13 6.057069e-13 6.584355e-13 7.040299e-13 7.403646e-13 7.656049e-13 7.784836e-13 7.783392e-13 7.651677e-13 7.396809e-13 7.031092e-13 6.572849e-13 6.042504e-13 5.463870e-13 4.859297e-13 4.251595e-13 3.659316e-13 3.099314e-13 2.582929e-13 2.118965e-13 1.711056e-13 1.360666e-13 1.065495e-13 8.220759e-14 6.248808e-14 4.682556e-14 3.458828e-14 2.520198e-14 1.811148e-14 1.284717e-14 8.993787e-15 6.218698e-15 4.246384e-15 2.865892e-15 1.911425e-15 1.260917e-15 0 0 0 0 0 0 0 0 0 0 0 0 0 0 0 0 0 0 0 0 0 0 0 0 0 0 0 0 0 0 0 0 0 0 0 0 0 0 0 0 0 0 0 0 0 0 0 0 0 0 0 0 0 0 0 0 0 0 0 0 0 0 0 0 0 0 0 0 0 0 0 0 0 0 0 0 0 0 0 0 0 0 0 0 0 0 0 0 0 0 0 0 0 0 0 0 0 0 0 0 0 0 0 0 0 0 0 0 0 0 0 0 0 0 0 0 0 0 0 0 0 0 0 0 0 0 0 0 0 0 0 0 0 0 0 0 0 0 0 0 0 0 0 0 0 0 0 0 0 0 0 0 0 0 0 0 0 0 0 0 0 0 0 0 0 0 0 0 0 0 0 0 0 0 0 0 0 0 0 0 0 0 0 0 0 0 0 0 0 0 0 0 0 0 0 0 0 0 0 0 0 0 0 0 0 0 0 0 0 0 0 0 0 0 0 0 0 0 0 0 0 0 0 0 0 0 0 0 0 0 0 0 0 0 0 0 0 0 0 0 0 0 0 0 0 0 0 0 0 0 0 0 0 0 0 0 0 0 0 0 0 0 0 0 0 0 0 
0 0 0 0 0 0 0 0 0 0 0 0 0 0 0 0 0 0 0 0 0 0 0 0 0 0 0 0 0 0 0 0 0 0 0 0 0 0 0 0 1.444857e-15 4.919678e-15 1.457738e-14 3.812253e-14 8.848628e-14 1.852931e-13 3.505492e-13 6.083575e-13 9.672380e-13 1.426640e-12 1.947295e-12 2.483275e-12 2.951446e-12 3.292135e-12 3.440726e-12 3.386607e-12 3.138290e-12 2.749620e-12 2.281521e-12 1.801865e-12 1.361863e-12 9.947343e-13 7.130320e-13 5.141334e-13 3.865778e-13 3.156329e-13 2.876428e-13 2.920343e-13 3.222796e-13 3.757922e-13 4.534601e-13 5.592281e-13 6.967624e-13 8.673457e-13 1.072628e-12 1.314130e-12 1.591833e-12 1.904142e-12 2.246646e-12 2.612586e-12 2.991968e-12 3.372681e-12 3.740218e-12 4.079380e-12 4.374602e-12 4.611793e-12 4.778983e-12 4.867632e-12 4.873207e-12 4.795446e-12 4.638630e-12 4.410670e-12 4.123109e-12 3.789301e-12 3.424362e-12 3.042981e-12 2.659588e-12 2.286368e-12 1.933831e-12 1.609395e-12 1.318344e-12 1.063058e-12 8.441533e-13 6.601875e-13 5.087318e-13 3.863083e-13 2.892098e-13 2.134884e-13 1.554682e-13 1.117026e-13 7.922734e-14 5.547844e-14 3.837591e-14 2.622555e-14 1.771664e-14 1.183246e-14 7.817649e-15 5.110130e-15 3.306922e-15 2.118857e-15 1.345111e-15 0 0 0 0 0 0 0 0 0 0 0 0 0 0 0 0 0 0 0 0 0 0 0 0 0 0 0 0 0 0 0 0 0 0 0 0 0 0 0 0 0 0 0 0 0 0 0 0 0 0 0 0 0 0 0 0 0 0 0 0 0 0 0 0 0 0 0 0 0 0 0 0 0 0 0 0 0 0 0 0 0 0 0 0 0 0 0 0 0 0 0 0 0 0 0 0 0 0 0 0 0 0 0 0 0 0 0 0 0 0 0 0 0 0 0 0 0 0 0 0 0 0 0 0 0 0 0 0 0 0 0 0 0 0 0 0 0 0 0 0 0 0 0 0 0 0 0 0 0 0 0 0 0 0 0 0 0 0 0 0 0 0 0 0 0 0 0 0 0 0 0 0 0 0 0 0 0 0 0 0 0 0 0 0 0 0 0 0 0 0 0 0 0 0 0 0 0 0 0 0 0 0 0 0 0 0 0 0 0 0 0 0 0 0 0 0 0 0 0 0 0 0 0 0 0 0 0 0 0 0 0 0 0 0 0 0 0 0 0 0 0 0 0 0 0 0 0 0 0 0 0 0 0 0 0 0 0 0 0 0 0 0 0 
0 0 0 0 0 0 0 0 0 0 0 0 0 0 0 0 0 0 0 0 0 0 0 0 0 0 0 0 0 0 0 0 0 0 0 0 0 0 0 4.222506e-15 1.648271e-14 5.530510e-14 1.612653e-13 4.146555e-13 9.457842e-13 1.946856e-12 3.622529e-12 6.192393e-12 9.712318e-12 1.416359e-11 1.915349e-11 2.425806e-11 2.869242e-11 3.191592e-11 3.331626e-11 3.279420e-11 3.041251e-11 2.666759e-11 2.212946e-11 1.744347e-11 1.310977e-11 9.455777e-12 6.614188e-12 4.563007e-12 3.193210e-12 2.357819e-12 1.919683e-12 1.768905e-12 1.833659e-12 2.077520e-12 2.496083e-12 3.093345e-12 3.871594e-12 4.844216e-12 6.024698e-12 7.426395e-12 9.051552e-12 1.089453e-11 1.293012e-11 1.512068e-11 1.740555e-11 1.971303e-11 2.195310e-11 2.403333e-11 2.585573e-11 2.733299e-11 2.838855e-11 2.896817e-11 2.904156e-11 2.860526e-11 2.768485e-11 2.632774e-11 2.460595e-11 2.260084e-11 2.040723e-11 1.811428e-11 1.581217e-11 1.357370e-11 1.146394e-11 9.525800e-12 7.791583e-12 6.273445e-12 4.975025e-12 3.885850e-12 2.991265e-12 2.269269e-12 1.697759e-12 1.252566e-12 9.119586e-13 6.551873e-13 4.648415e-13 3.256499e-13 2.254519e-13 1.542283e-13 1.043394e-13 6.979921e-14 4.621190e-14 3.027597e-14 1.964635e-14 1.262531e-14 8.042547e-15 5.077757e-15 3.180591e-15 1.976233e-15 1.219300e-15 0 0 0 0 0 0 0 0 0 0 0 0 0 0 0 0 0 0 0 0 0 0 0 0 0 0 0 0 0 0 0 0 0 0 0 0 0 0 0 0 0 0 0 0 0 0 0 0 0 0 0 0 0 0 0 0 0 0 0 0 0 0 0 0 0 0 0 0 0 0 0 0 0 0 0 0 0 0 0 0 0 0 0 0 0 0 0 0 0 0 0 0 0 0 0 0 0 0 0 0 0 0 0 0 0 0 0 0 0 0 0 0 0 0 0 0 0 0 0 0 0 0 0 0 0 0 0 0 0 0 0 0 0 0 0 0 0 0 0 0 0 0 0 0 0 0 0 0 0 0 0 0 0 0 0 0 0 0 0 0 0 0 0 0 0 0 0 0 0 0 0 0 0 0 0 0 0 0 0 0 0 0 0 0 0 0 0 0 0 0 0 0 0 0 0 0 0 0 0 0 0 0 0 0 0 0 0 0 0 0 0 0 0 0 0 0 0 0 0 0 0 0 0 0 0 0 0 0 0 0 0 0 0 0 0 0 0 0 0 0 0 0 0 0 0 0 0 0 0 0 0 0 0 0 0 0 0 0 0 
0 0 0 0 0 0 0 0 0 0 0 0 0 0 0 0 0 0 0 0 0 0 0 0 0 0 0 0 0 0 0 0 0 0 0 0 0 1.854572e-15 9.987356e-15 4.514707e-14 1.739497e-13 5.748490e-13 1.649281e-12 4.168142e-12 9.340260e-12 1.889087e-11 3.455636e-11 5.814598e-11 8.992163e-11 1.295746e-10 1.735676e-10 2.182764e-10 2.570272e-10 2.852388e-10 2.977014e-10 2.933926e-10 2.727511e-10 2.398231e-10 1.995360e-10 1.574979e-10 1.182555e-10 8.483629e-11 5.857319e-11 3.935921e-11 2.625901e-11 1.794923e-11 1.316507e-11 1.086965e-11 1.035699e-11 1.123124e-11 1.326279e-11 1.633418e-11 2.044913e-11 2.567979e-11 3.211333e-11 3.983221e-11 4.886899e-11 5.919988e-11 7.070143e-11 8.316067e-11 9.624355e-11 1.095299e-10 1.225041e-10 1.346145e-10 1.452870e-10 1.539927e-10 1.602750e-10 1.638002e-10 1.643822e-10 1.619959e-10 1.567876e-10 1.490430e-10 1.391837e-10 1.276999e-10 1.151425e-10 1.020431e-10 8.891653e-11 7.619049e-11 6.422587e-11 5.327013e-11 4.349231e-11 3.495988e-11 2.767971e-11 2.159029e-11 1.659885e-11 1.258021e-11 9.404066e-12 6.934659e-12 5.047236e-12 3.626281e-12 2.573332e-12 1.803907e-12 1.249894e-12 8.561096e-13 5.800278e-13 3.887649e-13 2.579413e-13 1.694361e-13 1.102629e-13 7.109661e-14 4.545297e-14 2.881577e-14 1.812854e-14 1.131948e-14 7.020118e-15 4.325069e-15 2.649196e-15 1.613611e-15 0 0 0 0 0 0 0 0 0 0 0 0 0 0 0 0 0 0 0 0 0 0 0 0 0 0 0 0 0 0 0 0 0 0 0 0 0 0 0 0 0 0 0 0 0 0 0 0 0 0 0 0 0 0 0 0 0 0 0 0 0 0 0 0 0 0 0 0 0 0 0 0 0 0 0 0 0 0 0 0 0 0 0 0 0 0 0 0 0 0 0 0 0 0 0 0 0 0 0 0 0 0 0 0 0 0 0 0 0 0 0 0 0 0 0 0 0 0 0 0 0 0 0 0 0 0 0 0 0 0 0 0 0 0 0 0 0 0 0 0 0 0 0 0 0 0 0 0 0 0 0 0 0 0 0 0 0 0 0 0 0 0 0 0 0 0 0 0 0 0 0 0 0 0 0 0 0 0 0 0 0 0 0 0 0 0 0 0 0 0 0 0 0 0 0 0 0 0 0 0 0 0 0 0 0 0 0 0 0 0 0 0 0 0 0 0 0 0 0 0 0 0 0 0 0 0 0 0 0 0 0 0 0 0 0 0 0 0 0 0 0 0 0 0 0 0 0 0 0 0 0 0 0 0 0 0 
0 0 0 0 0 0 0 0 0 0 0 0 0 0 0 0 0 0 0 0 0 0 0 0 0 0 0 0 0 0 0 0 0 0 0 0 2.959320e-15 1.881919e-14 1.003442e-13 4.477340e-13 1.700632e-12 5.531476e-12 1.560469e-11 3.874555e-11 8.524585e-11 1.693003e-10 3.041739e-10 5.033588e-10 7.666458e-10 1.090623e-09 1.445657e-09 1.804416e-09 2.114452e-09 2.341715e-09 2.444643e-09 2.414773e-09 2.253262e-09 1.990306e-09 1.663870e-09 1.318700e-09 9.926949e-10 7.118713e-10 4.889101e-10 3.239628e-10 2.100407e-10 1.362619e-10 9.202814e-11 6.838216e-11 5.912263e-11 5.987455e-11 6.793816e-11 8.219460e-11 1.023927e-10 1.288094e-10 1.618656e-10 2.020524e-10 2.495812e-10 3.044300e-10 3.659711e-10 4.331483e-10 5.041366e-10 5.766893e-10 6.479076e-10 7.147417e-10 7.739057e-10 8.224205e-10 8.576442e-10 8.776791e-10 8.814487e-10 8.688093e-10 8.406158e-10 7.984812e-10 7.448318e-10 6.823928e-10 6.142851e-10 5.434033e-10 4.726109e-10 4.041724e-10 3.400572e-10 2.815151e-10 2.294454e-10 1.841256e-10 1.455755e-10 1.134009e-10 8.709593e-11 6.595283e-11 4.927625e-11 3.632442e-11 2.643906e-11 1.900013e-11 1.349196e-11 9.466035e-12 6.567429e-12 4.505219e-12 3.058465e-12 2.054523e-12 1.366868e-12 9.005303e-13 5.880700e-13 3.805954e-13 2.443542e-13 1.556117e-13 9.839313e-14 6.176392e-14 3.853054e-14 2.388538e-14 1.472967e-14 9.035715e-15 5.520161e-15 3.358673e-15 2.037838e-15 1.233145e-15 0 0 0 0 0 0 0 0 0 0 0 0 0 0 0 0 0 0 0 0 0 0 0 0 0 0 0 0 0 0 0 0 0 0 0 0 0 0 0 0 0 0 0 0 0 0 0 0 0 0 0 0 0 0 0 0 0 0 0 0 0 0 0 0 0 0 0 0 0 0 0 0 0 0 0 0 0 0 0 0 0 0 0 0 0 0 0 0 0 0 0 0 0 0 0 0 0 0 0 0 0 0 0 0 0 0 0 0 0 0 0 0 0 0 0 0 0 0 0 0 0 0 0 0 0 0 0 0 0 0 0 0 0 0 0 0 0 0 0 0 0 0 0 0 0 0 0 0 0 0 0 0 0 0 0 0 0 0 0 0 0 0 0 0 0 0 0 0 0 0 0 0 0 0 0 0 0 0 0 0 0 0 0 0 0 0 0 0 0 0 0 0 0 0 0 0 0 0 0 0 0 0 0 0 0 0 0 0 0 0 0 0 0 0 0 0 0 0 0 0 0 0 0 0 0 0 0 0 0 0 0 0 0 0 0 0 0 0 0 0 0 0 0 0 0 0 0 0 0 0 0 0 
0 0 0 0 0 0 0 0 0 0 0 0 0 0 0 0 0 0 0 0 0 0 0 0 0 0 0 0 0 0 0 0 0 0 0 3.655339e-15 2.814117e-14 1.773401e-13 9.339709e-13 4.102218e-12 1.533384e-11 4.902112e-11 1.358794e-10 3.312840e-10 7.153522e-10 1.394385e-09 2.459239e-09 3.999131e-09 5.994119e-09 8.409922e-09 1.102419e-08 1.364696e-08 1.591297e-08 1.758680e-08 1.837772e-08 1.821040e-08 1.708147e-08 1.518221e-08 1.277953e-08 1.019346e-08 7.714650e-09 5.549710e-09 3.810382e-09 2.509747e-09 1.601964e-09 1.006820e-09 6.429185e-10 4.404936e-10 3.454668e-10 3.186894e-10 3.392636e-10 3.971345e-10 4.885950e-10 6.136450e-10 7.739509e-10 9.717923e-10 1.208578e-09 1.484347e-09 1.796421e-09 2.139424e-09 2.504290e-09 2.879088e-09 3.248743e-09 3.596729e-09 3.905607e-09 4.159130e-09 4.343239e-09 4.447718e-09 4.467017e-09 4.400669e-09 4.253497e-09 4.034551e-09 3.756790e-09 3.434981e-09 3.085315e-09 2.723090e-09 2.362733e-09 2.015929e-09 1.692232e-09 1.397912e-09 1.136999e-09 9.107572e-10 7.188515e-10 5.591946e-10 4.289545e-10 3.245404e-10 2.423141e-10 1.785742e-10 1.299687e-10 9.343514e-11 6.638812e-11 4.662798e-11 3.239243e-11 2.226105e-11 1.514348e-11 1.019875e-11 6.804406e-12 4.497992e-12 2.947969e-12 1.915877e-12 1.235531e-12 7.907711e-13 5.026587e-13 3.173943e-13 1.992331e-13 1.243528e-13 7.723977e-14 4.775751e-14 2.942109e-14 1.806595e-14 1.106896e-14 6.770608e-15 4.139546e-15 2.531528e-15 1.550631e-15 0 0 0 0 0 0 0 0 0 0 0 0 0 0 0 0 0 0 0 0 0 0 0 0 0 0 0 0 0 0 0 0 0 0 0 0 0 0 0 0 0 0 0 0 0 0 0 0 0 0 0 0 0 0 0 0 0 0 0 0 0 0 0 0 0 0 0 0 0 0 0 0 0 0 0 0 0 0 0 0 0 0 0 0 0 0 0 0 0 0 0 0 0 0 0 0 0 0 0 0 0 0 0 0 0 0 0 0 0 0 0 0 0 0 0 0 0 0 0 0 0 0 0 0 0 0 0 0 0 0 0 0 0 0 0 0 0 0 0 0 0 0 0 0 0 0 0 0 0 0 0 0 0 0 0 0 0 0 0 0 0 0 0 0 0 0 0 0 0 0 0 0 0 0 0 0 0 0 0 0 0 0 0 0 0 0 0 0 0 0 0 0 0 0 0 0 0 0 0 0 0 0 0 0 0 0 0 0 0 0 0 0 0 0 0 0 0 0 0 0 0 0 0 0 0 0 0 0 0 0 0 0 0 0 0 0 0 0 0 0 0 0 0 0 0 0 0 0 0 
0 0 0 0 0 0 0 0 0 0 0 0 0 0 0 0 0 0 0 0 0 0 0 0 0 0 0 0 0 0 0 0 0 0 3.519170e-15 3.264810e-14 2.509452e-13 1.562301e-12 8.092303e-12 3.485787e-11 1.278357e-10 4.008825e-10 1.090296e-09 2.607821e-09 5.522395e-09 1.055719e-08 1.825950e-08 2.914771e-08 4.293170e-08 5.932940e-08 7.679171e-08 9.418390e-08 1.091689e-07 1.203739e-07 1.259056e-07 1.252525e-07 1.182303e-07 1.059225e-07 8.994923e-08 7.237632e-08 5.521348e-08 3.996407e-08 2.753844e-08 1.812944e-08 1.149589e-08 7.105138e-09 4.399827e-09 2.865812e-09 2.058718e-09 1.709409e-09 1.666436e-09 1.849097e-09 2.219989e-09 2.768238e-09 3.495949e-09 4.412498e-09 5.524147e-09 6.832950e-09 8.326479e-09 9.980612e-09 1.175032e-08 1.357755e-08 1.538547e-08 1.709151e-08 1.860614e-08 1.984798e-08 2.074570e-08 2.124933e-08 2.133254e-08 2.099519e-08 2.026425e-08 1.918650e-08 1.782885e-08 1.626435e-08 1.457406e-08 1.283122e-08 1.110626e-08 9.453128e-09 7.917290e-09 6.525987e-09 5.297640e-09 4.235841e-09 3.338310e-09 2.593452e-09 1.987530e-09 1.502622e-09 1.121546e-09 8.264497e-10 6.017136e-10 4.328370e-10 3.078750e-10 2.165288e-10 1.507005e-10 1.037857e-10 7.078867e-11 4.781371e-11 3.201070e-11 2.123962e-11 1.398016e-11 9.127350e-12 5.916500e-12 3.807398e-12 2.434867e-12 1.547289e-12 9.781003e-13 6.150326e-13 3.851420e-13 2.402017e-13 1.493906e-13 9.267116e-14 5.742091e-14 3.555113e-14 2.202918e-14 1.366852e-14 8.506815e-15 5.313227e-15 3.335717e-15 2.105605e-15 1.337920e-15 0 0 0 0 0 0 0 0 0 0 0 0 0 0 0 0 0 0 0 0 0 0 0 0 0 0 0 0 0 0 0 0 0 0 0 0 0 0 0 0 0 0 0 0 0 0 0 0 0 0 0 0 0 0 0 0 0 0 0 0 0 0 0 0 0 0 0 0 0 0 0 0 0 0 0 0 0 0 0 0 0 0 0 0 0 0 0 0 0 0 0 0 0 0 0 0 0 0 0 0 0 0 0 0 0 0 0 0 0 0 0 0 0 0 0 0 0 0 0 0 0 0 0 0 0 0 0 0 0 0 0 0 0 0 0 0 0 0 0 0 0 0 0 0 0 0 0 0 0 0 0 0 0 0 0 0 0 0 0 0 0 0 0 0 0 0 0 0 0 0 0 0 0 0 0 0 0 0 0 0 0 0 0 0 0 0 0 0 0 0 0 0 0 0 0 0 0 0 0 0 0 0 0 0 0 0 0 0 0 0 0 0 0 0 0 0 0 0 0 0 0 0 0 0 0 0 0 0 0 0 0 0 0 0 0 0 0 0 0 0 0 0 0 0 0 
0 0 0 0 0 0 0 0 0 0 0 0 0 0 0 0 0 0 0 0 0 0 0 0 0 0 0 0 0 0 0 0 0 2.595372e-15 2.935642e-14 2.747727e-13 2.105611e-12 1.287660e-11 6.520182e-11 2.737540e-10 9.806151e-10 3.007086e-09 8.009730e-09 1.877585e-08 3.896792e-08 7.303199e-08 1.238153e-07 1.938797e-07 2.803997e-07 3.812135e-07 4.867316e-07 5.907340e-07 6.802802e-07 7.479691e-07 7.833724e-07 7.828433e-07 7.446900e-07 6.736008e-07 5.783341e-07 4.704844e-07 3.626378e-07 2.647556e-07 1.835895e-07 1.212440e-07 7.679913e-08 4.719488e-08 2.900878e-08 1.832107e-08 1.231889e-08 9.273332e-09 8.161742e-09 8.400756e-09 9.687234e-09 1.189088e-08 1.498013e-08 1.897522e-08 2.390157e-08 2.976588e-08 3.651820e-08 4.404424e-08 5.213892e-08 6.052161e-08 6.883122e-08 7.666733e-08 8.360845e-08 8.926559e-08 9.331014e-08 9.551403e-08 9.576814e-08 9.408827e-08 9.061490e-08 8.558313e-08 7.931018e-08 7.214457e-08 6.445541e-08 5.658108e-08 4.883082e-08 4.144664e-08 3.461895e-08 2.846511e-08 2.305382e-08 1.839640e-08 1.447234e-08 1.122728e-08 8.594027e-09 6.492415e-09 4.843520e-09 3.569042e-09 2.599194e-09 1.871131e-09 1.332334e-09 9.385144e-10 6.544217e-10 4.517879e-10 3.089924e-10 2.093950e-10 1.406935e-10 9.374331e-11 6.198102e-11 4.067268e-11 2.650820e-11 1.716227e-11 1.104625e-11 7.069756e-12 4.503023e-12 2.855308e-12 1.804098e-12 1.136367e-12 7.143397e-13 4.484199e-13 2.814581e-13 1.767796e-13 1.112646e-13 7.023671e-14 4.453100e-14 2.837682e-14 1.819447e-14 1.174077e-14 7.628397e-15 4.988227e-15 3.281755e-15 2.169749e-15 1.440370e-15 0 0 0 0 0 0 0 0 0 0 0 0 0 0 0 0 0 0 0 0 0 0 0 0 0 0 0 0 0 0 0 0 0 0 0 0 0 0 0 0 0 0 0 0 0 0 0 0 0 0 0 0 0 0 0 0 0 0 0 0 0 0 0 0 0 0 0 0 0 0 0 0 0 0 0 0 0 0 0 0 0 0 0 0 0 0 0 0 0 0 0 0 0 0 0 0 0 0 0 0 0 0 0 0 0 0 0 0 0 0 0 0 0 0 0 0 0 0 0 0 0 0 0 0 0 0 0 0 0 0 0 0 0 0 0 0 0 0 0 0 0 0 0 0 0 0 0 0 0 0 0 0 0 0 0 0 0 0 0 0 0 0 0 0 0 0 0 0 0 0 0 0 0 0 0 0 0 0 0 0 0 0 0 0 0 0 0 0 0 0 0 0 0 0 0 0 0 0 0 0 0 0 0 0 0 0 0 0 0 0 0 0 0 0 0 0 0 0 0 0 0 0 0 0 0 0 0 0 0 0 0 0 0 0 0 0 0 0 0 0 0 
0 0 0 0 0 0 0 0 0 0 0 0 0 0 0 0 0 0 0 0 0 0 0 0 0 0 0 0 0 0 0 0 1.496212e-15 2.013893e-14 2.333331e-13 2.210141e-12 1.683834e-11 1.004609e-10 4.929761e-10 2.000777e-09 6.954295e-09 2.075721e-08 5.399288e-08 1.238080e-07 2.515543e-07 4.617592e-07 7.666441e-07 1.176356e-06 1.668053e-06 2.227727e-06 2.800359e-06 3.358237e-06 3.835838e-06 4.202291e-06 4.404568e-06 4.423878e-06 4.245019e-06 3.883988e-06 3.378836e-06 2.786176e-06 2.175464e-06 1.606173e-06 1.123890e-06 7.468434e-07 4.748550e-07 2.937356e-07 1.810699e-07 1.125983e-07 7.246329e-08 5.037410e-08 3.998596e-08 3.746911e-08 4.068357e-08 4.855778e-08 6.065843e-08 7.692829e-08 9.739955e-08 1.220925e-07 1.507691e-07 1.829440e-07 2.176831e-07 2.537503e-07 2.895014e-07 3.231646e-07 3.528444e-07 3.768476e-07 3.937429e-07 4.025888e-07 4.029745e-07 3.950457e-07 3.795014e-07 3.574172e-07 3.302329e-07 2.994589e-07 2.667082e-07 2.333907e-07 2.008171e-07 1.699513e-07 1.415738e-07 1.161136e-07 9.383336e-08 7.472805e-08 5.869460e-08 4.547301e-08 3.477689e-08 2.625667e-08 1.958605e-08 1.443521e-08 1.052015e-08 7.581207e-09 5.406718e-09 3.815839e-09 2.667338e-09 1.846586e-09 1.267203e-09 8.619312e-10 5.816251e-10 3.893325e-10 2.587706e-10 1.707627e-10 1.119919e-10 7.299223e-11 4.732893e-11 3.053134e-11 1.961756e-11 1.255687e-11 8.017370e-12 5.107681e-12 3.251742e-12 2.069746e-12 1.319356e-12 8.427869e-13 5.404335e-13 3.480796e-13 2.255214e-13 1.470111e-13 9.651158e-14 6.377656e-14 4.242959e-14 2.838326e-14 1.908159e-14 1.286940e-14 8.699851e-15 5.883544e-15 3.977025e-15 2.682197e-15 1.803649e-15 1.207473e-15 0 0 0 0 0 0 0 0 0 0 0 0 0 0 0 0 0 0 0 0 0 0 0 0 0 0 0 0 0 0 0 0 0 0 0 0 0 0 0 0 0 0 0 0 0 0 0 0 0 0 0 0 0 0 0 0 0 0 0 0 0 0 0 0 0 0 0 0 0 0 0 0 0 0 0 0 0 0 0 0 0 0 0 0 0 0 0 0 0 0 0 0 0 0 0 0 0 0 0 0 0 0 0 0 0 0 0 0 0 0 0 0 0 0 0 0 0 0 0 0 0 0 0 0 0 0 0 0 0 0 0 0 0 0 0 0 0 0 0 0 0 0 0 0 0 0 0 0 0 0 0 0 0 0 0 0 0 0 0 0 0 0 0 0 0 0 0 0 0 0 0 0 0 0 0 0 0 0 0 0 0 0 0 0 0 0 0 0 0 0 0 0 0 0 0 0 0 0 0 0 0 0 0 0 0 0 0 0 0 0 0 0 0 0 0 0 0 0 0 0 0 0 0 0 0 0 0 0 0 0 0 0 0 0 0 0 
0 0 0 0 0 0 0 0 0 0 0 0 0 0 0 0 0 0 0 0 0 0 0 0 0 0 0 0 0 0 0 0 1.070221e-14 1.492186e-13 1.783371e-12 1.711642e-11 1.292016e-10 7.449340e-10 3.504159e-09 1.359035e-08 4.541159e-08 1.310791e-07 3.315732e-07 7.421720e-07 1.474399e-06 2.649699e-06 4.306558e-06 6.472549e-06 8.993522e-06 1.178547e-05 1.457144e-05 1.723933e-05 1.951376e-05 2.127830e-05 2.232003e-05 2.253818e-05 2.184746e-05 2.025767e-05 1.790235e-05 1.500328e-05 1.189795e-05 8.904375e-06 6.299547e-06 4.221231e-06 2.703772e-06 1.694876e-06 1.051224e-06 6.499445e-07 4.075729e-07 2.678829e-07 1.946490e-07 1.651452e-07 1.659941e-07 1.898908e-07 2.333682e-07 2.951933e-07 3.750528e-07 4.727306e-07 5.871939e-07 7.162636e-07 8.560617e-07 1.001246e-06 1.144977e-06 1.279725e-06 1.397713e-06 1.491947e-06 1.556777e-06 1.588588e-06 1.586079e-06 1.550255e-06 1.484311e-06 1.392984e-06 1.282249e-06 1.158386e-06 1.027782e-06 8.960783e-07 7.682369e-07 6.479687e-07 5.380481e-07 4.400234e-07 3.546560e-07 2.818195e-07 2.209265e-07 1.709117e-07 1.305622e-07 9.851460e-08 7.346695e-08 5.416173e-08 3.949765e-08 2.849819e-08 2.035638e-08 1.439799e-08 1.009007e-08 7.007338e-09 4.825668e-09 3.295967e-09 2.234178e-09 1.503292e-09 1.004765e-09 6.672317e-10 4.405664e-10 2.893290e-10 1.891437e-10 1.231350e-10 7.990910e-11 5.172209e-11 3.343019e-11 2.159285e-11 1.395706e-11 9.036283e-12 5.868802e-12 3.827167e-12 2.509378e-12 1.655349e-12 1.099575e-12 7.354678e-13 4.953876e-13 3.357470e-13 2.288080e-13 1.565642e-13 1.074443e-13 7.382505e-14 5.072604e-14 3.479857e-14 2.380992e-14 1.622671e-14 1.100707e-14 7.423683e-15 4.976142e-15 3.312371e-15 2.189173e-15 1.435640e-15 0 0 0 0 0 0 0 0 0 0 0 0 0 0 0 0 0 0 0 0 0 0 0 0 0 0 0 0 0 0 0 0 0 0 0 0 0 0 0 0 0 0 0 0 0 0 0 0 0 0 0 0 0 0 0 0 0 0 0 0 0 0 0 0 0 0 0 0 0 0 0 0 0 0 0 0 0 0 0 0 0 0 0 0 0 0 0 0 0 0 0 0 0 0 0 0 0 0 0 0 0 0 0 0 0 0 0 0 0 0 0 0 0 0 0 0 0 0 0 0 0 0 0 0 0 0 0 0 0 0 0 0 0 0 0 0 0 0 0 0 0 0 0 0 0 0 0 0 0 0 0 0 0 0 0 0 0 0 0 0 0 0 0 0 0 0 0 0 0 0 0 0 0 0 0 0 0 0 0 0 0 0 0 0 0 0 0 0 0 0 0 0 0 0 0 0 0 0 0 0 0 0 0 0 0 0 0 0 0 0 0 0 0 0 0 0 0 0 0 0 0 0 0 0 0 0 0 0 0 0 0 0 
0 0 0 0 0 0 0 0 0 0 0 0 0 0 0 0 0 0 0 0 0 0 0 0 0 0 0 0 0 0 0 4.413524e-15 7.344606e-14 1.071568e-12 1.328429e-11 1.294244e-10 9.637546e-10 5.323921e-09 2.372495e-08 8.675644e-08 2.753830e-07 7.616327e-07 1.862698e-06 4.054180e-06 7.859141e-06 1.380718e-05 2.194661e-05 3.227511e-05 4.388506e-05 5.635214e-05 6.838758e-05 7.969096e-05 8.920538e-05 9.670545e-05 1.014165e-04 1.029906e-04 1.009559e-04 9.508473e-05 8.560894e-05 7.315997e-05 5.911541e-05 4.497062e-05 3.224604e-05 2.183785e-05 1.418127e-05 9.019425e-06 5.640780e-06 3.486553e-06 2.156239e-06 1.365945e-06 9.269176e-07 7.160230e-07 6.582770e-07 7.103835e-07 8.497815e-07 1.066502e-06 1.356299e-06 1.717014e-06 2.143594e-06 2.627340e-06 3.152411e-06 3.697930e-06 4.236562e-06 4.739170e-06 5.175354e-06 5.518783e-06 5.748374e-06 5.851634e-06 5.825116e-06 5.674229e-06 5.412795e-06 5.059768e-06 4.638790e-06 4.173512e-06 3.688098e-06 3.202783e-06 2.735626e-06 2.299162e-06 1.903006e-06 1.551701e-06 1.247501e-06 9.891026e-07 7.740559e-07 5.980036e-07 4.564523e-07 3.442620e-07 2.567697e-07 1.893991e-07 1.382778e-07 9.992341e-08 7.152986e-08 5.072231e-08 3.565950e-08 2.485386e-08 1.718857e-08 1.179477e-08 8.037970e-09 5.439950e-09 3.659878e-09 2.447756e-09 1.629196e-09 1.079272e-09 7.124881e-10 4.688435e-10 3.079660e-10 2.020246e-10 1.325707e-10 8.708049e-11 5.735940e-11 3.791562e-11 2.519480e-11 1.683856e-11 1.133335e-11 7.681255e-12 5.245004e-12 3.604973e-12 2.493189e-12 1.732209e-12 1.207949e-12 8.438179e-13 5.898608e-13 4.118288e-13 2.869282e-13 1.991563e-13 1.376373e-13 9.458163e-14 6.460989e-14 4.382636e-14 2.952047e-14 1.972747e-14 1.308198e-14 8.601967e-15 5.610483e-15 3.627328e-15 2.325726e-15 1.477895e-15 0 0 0 0 0 0 0 0 0 0 0 0 0 0 0 0 0 0 0 0 0 0 0 0 0 0 0 0 0 0 0 0 0 0 0 0 0 0 0 0 0 0 0 0 0 0 0 0 0 0 0 0 0 0 0 0 0 0 0 0 0 0 0 0 0 0 0 0 0 0 0 0 0 0 0 0 0 0 0 0 0 0 0 0 0 0 0 0 0 0 0 0 0 0 0 0 0 0 0 0 0 0 0 0 0 0 0 0 0 0 0 0 0 0 0 0 0 0 0 0 0 0 0 0 0 0 0 0 0 0 0 0 0 0 0 0 0 0 0 0 0 0 0 0 0 0 0 0 0 0 0 0 0 0 0 0 0 0 0 0 0 0 0 0 0 0 0 0 0 0 0 0 0 0 0 0 0 0 0 0 0 0 0 0 0 0 0 0 0 0 0 0 0 0 0 0 0 0 0 0 0 0 0 0 0 0 0 0 0 0 0 0 0 0 0 0 0 0 0 0 0 0 0 0 0 0 0 0 
0 0 0 0 0 0 0 0 0 0 0 0 0 0 0 0 0 0 0 0 0 0 0 0 0 0 0 0 0 0 1.444474e-15 2.776115e-14 4.883170e-13 7.496067e-12 9.663968e-11 9.535153e-10 6.976294e-09 3.663899e-08 1.530959e-07 5.205125e-07 1.547191e-06 4.053604e-06 9.506893e-06 2.003338e-05 3.779432e-05 6.485565e-05 1.007655e-04 1.449727e-04 1.928582e-04 2.424621e-04 2.886388e-04 3.307865e-04 3.658699e-04 3.937928e-04 4.128033e-04 4.216670e-04 4.186991e-04 4.016075e-04 3.697281e-04 3.234315e-04 2.672107e-04 2.071842e-04 1.508178e-04 1.033724e-04 6.817547e-05 4.389261e-05 2.766279e-05 1.713092e-05 1.051666e-05 6.511476e-06 4.211411e-06 3.012500e-06 2.535391e-06 2.553766e-06 2.943494e-06 3.642981e-06 4.623403e-06 5.868491e-06 7.356495e-06 9.051797e-06 1.089553e-05 1.280815e-05 1.468965e-05 1.643188e-05 1.792623e-05 1.907884e-05 1.981870e-05 2.010640e-05 1.993665e-05 1.933597e-05 1.835925e-05 1.707914e-05 1.558090e-05 1.394957e-05 1.226749e-05 1.060396e-05 9.017044e-06 7.547377e-06 6.223112e-06 5.057244e-06 4.053573e-06 3.205981e-06 2.503732e-06 1.931391e-06 1.472646e-06 1.110196e-06 8.280450e-07 6.111794e-07 4.467019e-07 3.233664e-07 2.319917e-07 1.649819e-07 1.163759e-07 8.144010e-08 5.657843e-08 3.902973e-08 2.675370e-08 1.822779e-08 1.235367e-08 8.331649e-09 5.596909e-09 3.746942e-09 2.502709e-09 1.669048e-09 1.112872e-09 7.426013e-10 4.966754e-10 3.333192e-10 2.247937e-10 1.524864e-10 1.041594e-10 7.166716e-11 4.968893e-11 3.469584e-11 2.438660e-11 1.723058e-11 1.222435e-11 8.693005e-12 6.187986e-12 4.401545e-12 3.124794e-12 2.210793e-12 1.557419e-12 1.091147e-12 7.598770e-13 5.255347e-13 3.608587e-13 2.458456e-13 1.661672e-13 1.113692e-13 7.402051e-14 4.876748e-14 3.185472e-14 2.062218e-14 1.323477e-14 8.417603e-15 5.307322e-15 3.316318e-15 2.054329e-15 1.261249e-15 0 0 0 0 0 0 0 0 0 0 0 0 0 0 0 0 0 0 0 0 0 0 0 0 0 0 0 0 0 0 0 0 0 0 0 0 0 0 0 0 0 0 0 0 0 0 0 0 0 0 0 0 0 0 0 0 0 0 0 0 0 0 0 0 0 0 0 0 0 0 0 0 0 0 0 0 0 0 0 0 0 0 0 0 0 0 0 0 0 0 0 0 0 0 0 0 0 0 0 0 0 0 0 0 0 0 0 0 0 0 0 0 0 0 0 0 0 0 0 0 0 0 0 0 0 0 0 0 0 0 0 0 0 0 0 0 0 0 0 0 0 0 0 0 0 0 0 0 0 0 0 0 0 0 0 0 0 0 0 0 0 0 0 0 0 0 0 0 0 0 0 0 0 0 0 0 0 0 0 0 0 0 0 0 0 0 0 0 0 0 0 0 0 0 0 0 0 0 0 0 0 0 0 0 0 0 0 0 0 0 0 0 0 0 0 0 0 0 0 0 0 0 0 0 