# vtk DataFile Version 2.0
Comment goes here
ASCII

DATASET STRUCTURED_POINTS
FIELD FieldData 1
TIME 1 1 double
2.07500000
DIMENSIONS    384   64   1

ORIGIN    0.000   0.000   0.000
SPACING   0.078125 0.078125   1.000

POINT_DATA   24576
SCALARS Concentration double
LOOKUP_TABLE default

0 0 0 0 0 0 0 0 0 0 0 0 0 0 0 0 0 0 0 0 0 0 0 0 0 0 0 0 0 0 0 0 0 0 0 0 0 0 0 0 0 0 0 0 0 0 0 0 0 0 1.136088e-15 2.873077e-15 6.947628e-15 1.585438e-14 3.477309e-14 7.231967e-14 1.446274e-13 2.734083e-13 4.960040e-13 8.510768e-13 1.402291e-12 2.189209e-12 3.284151e-12 4.676562e-12 6.402518e-12 8.335450e-12 1.043859e-11 1.245399e-11 1.430044e-11 1.567364e-11 1.654480e-11 1.670283e-11 1.625408e-11 1.515872e-11 1.364160e-11 1.179024e-11 9.845474e-12 7.913686e-12 6.155173e-12 4.619214e-12 3.360505e-12 2.365028e-12 1.617036e-12 1.072666e-12 6.931608e-13 4.361485e-13 2.684236e-13 1.618541e-13 9.637025e-14 5.721555e-14 3.465916e-14 2.221823e-14 1.587470e-14 1.313766e-14 1.250836e-14 1.307910e-14 1.428988e-14 1.579436e-14 1.732877e-14 1.872159e-14 1.982876e-14 2.057496e-14 2.090553e-14 2.082422e-14 2.034932e-14 1.953897e-14 1.845313e-14 1.716948e-14 1.575540e-14 1.427938e-14 1.279387e-14 1.134494e-14 9.963524e-15 8.671837e-15 7.481898e-15 6.401450e-15 5.433026e-15 4.576581e-15 3.826715e-15 3.175990e-15 2.616382e-15 2.139222e-15 1.736113e-15 1.398527e-15 1.118402e-15 0 0 0 0 0 0 0 0 0 0 0 0 0 0 0 0 0 0 0 0 0 0 0 0 0 0 0 0 0 0 0 0 0 0 0 0 0 0 0 0 0 0 0 0 0 0 0 0 0 0 0 0 0 0 0 0 0 0 0 0 0 0 0 0 0 0 0 0 0 0 0 0 0 0 0 0 0 0 0 0 0 0 0 0 0 0 0 0 0 0 0 0 0 0 0 0 0 0 0 0 0 0 0 0 0 0 0 0 0 0 0 0 0 0 0 0 0 0 0 0 0 0 0 0 0 0 0 0 0 0 0 0 0 0 0 0 0 0 0 0 0 0 0 0 0 0 0 0 0 0 0 0 0 0 0 0 0 0 0 0 0 0 0 0 0 0 0 0 0 0 0 0 0 0 0 0 0 0 0 0 0 0 0 0 0 0 0 0 0 0 0 0 0 0 0 0 0 0 0 0 0 0 0 0 0 0 0 0 0 0 0 0 0 0 0 0 0 0 0 0 0 0 0 0 0 0 0 0 0 0 0 0 0 0 0 0 0 0 0 0 0 0 0 0 0 0 0 0 0 0 0 0 0 0 0 0 0 0 0 
0 0 0 0 0 0 0 0 0 0 0 0 0 0 0 0 0 0 0 0 0 0 0 0 0 0 0 0 0 0 0 0 0 0 0 0 0 0 0 0 0 0 0 0 0 0 0 0 1.285193e-15 3.535890e-15 9.241426e-15 2.275703e-14 5.357461e-14 1.192964e-13 2.553852e-13 5.192835e-13 1.015257e-12 1.880388e-12 3.345317e-12 5.642164e-12 9.148139e-12 1.408331e-11 2.085734e-11 2.937448e-11 3.981802e-11 5.140751e-11 6.390878e-11 7.579518e-11 8.660099e-11 9.455936e-11 9.953128e-11 1.003032e-10 9.751995e-11 9.095229e-11 8.192026e-11 7.092337e-11 5.937002e-11 4.787266e-11 3.737751e-11 2.817458e-11 2.059908e-11 1.457561e-11 1.002366e-11 6.689286e-12 4.348894e-12 2.751767e-12 1.700864e-12 1.026550e-12 6.071903e-13 3.521999e-13 2.013926e-13 1.139878e-13 6.444641e-14 3.678139e-14 2.152479e-14 1.327237e-14 8.963278e-15 6.849276e-15 5.939339e-15 5.674907e-15 5.738663e-15 5.954565e-15 6.221249e-15 6.485461e-15 6.716619e-15 6.901654e-15 7.033422e-15 7.110962e-15 7.133719e-15 7.102928e-15 7.019088e-15 6.883295e-15 6.696654e-15 6.461054e-15 6.179561e-15 5.856360e-15 5.497356e-15 5.109282e-15 4.700295e-15 4.278611e-15 3.853175e-15 3.432137e-15 3.023536e-15 2.633883e-15 2.268939e-15 1.932608e-15 1.627807e-15 1.355706e-15 1.116598e-15 0 0 0 0 0 0 0 0 0 0 0 0 0 0 0 0 0 0 0 0 0 0 0 0 0 0 0 0 0 0 0 0 0 0 0 0 0 0 0 0 0 0 0 0 0 0 0 0 0 0 0 0 0 0 0 0 0 0 0 0 0 0 0 0 0 0 0 0 0 0 0 0 0 0 0 0 0 0 0 0 0 0 0 0 0 0 0 0 0 0 0 0 0 0 0 0 0 0 0 0 0 0 0 0 0 0 0 0 0 0 0 0 0 0 0 0 0 0 0 0 0 0 0 0 0 0 0 0 0 0 0 0 0 0 0 0 0 0 0 0 0 0 0 0 0 0 0 0 0 0 0 0 0 0 0 0 0 0 0 0 0 0 0 0 0 0 0 0 0 0 0 0 0 0 0 0 0 0 0 0 0 0 0 0 0 0 0 0 0 0 0 0 0 0 0 0 0 0 0 0 0 0 0 0 0 0 0 0 0 0 0 0 0 0 0 0 0 0 0 0 0 0 0 0 0 0 0 0 0 0 0 0 0 0 0 0 0 0 0 0 0 0 0 0 0 0 0 0 0 0 0 0 0 0 0 
0 0 0 0 0 0 0 0 0 0 0 0 0 0 0 0 0 0 0 0 0 0 0 0 0 0 0 0 0 0 0 0 0 0 0 0 0 0 0 0 0 0 0 0 0 0 1.203700e-15 3.645185e-15 1.039378e-14 2.784876e-14 7.085158e-14 1.701359e-13 3.905326e-13 8.496122e-13 1.777676e-12 3.537653e-12 6.770955e-12 1.230121e-11 2.148947e-11 3.566203e-11 5.696279e-11 8.654696e-11 1.266551e-10 1.765391e-10 2.371174e-10 3.037533e-10 3.750919e-10 4.424061e-10 5.031992e-10 5.475429e-10 5.748721e-10 5.784123e-10 5.619502e-10 5.241737e-10 4.725490e-10 4.098051e-10 3.438614e-10 2.781173e-10 2.179322e-10 1.649632e-10 1.211679e-10 8.617370e-11 5.958265e-11 3.999175e-11 2.615494e-11 1.665251e-11 1.035781e-11 6.291769e-12 3.745936e-12 2.188481e-12 1.261373e-12 7.197854e-13 4.090946e-13 2.319631e-13 1.319090e-13 7.609660e-14 4.552303e-14 2.921929e-14 2.095803e-14 1.721888e-14 1.603471e-14 1.630173e-14 1.739838e-14 1.896248e-14 2.077295e-14 2.268040e-14 2.457460e-14 2.636387e-14 2.797037e-14 2.932457e-14 3.036930e-14 3.105793e-14 3.136034e-14 3.126048e-14 3.076129e-14 2.988011e-14 2.865151e-14 2.712063e-14 2.534427e-14 2.338315e-14 2.130224e-14 1.916340e-14 1.702593e-14 1.494074e-14 1.295179e-14 1.109224e-14 9.386833e-15 7.849945e-15 6.488502e-15 5.301404e-15 4.282449e-15 3.420483e-15 2.701881e-15 2.110902e-15 1.631498e-15 1.247560e-15 0 0 0 0 0 0 0 0 0 0 0 0 0 0 0 0 0 0 0 0 0 0 0 0 0 0 0 0 0 0 0 0 0 0 0 0 0 0 0 0 0 0 0 0 0 0 0 0 0 0 0 0 0 0 0 0 0 0 0 0 0 0 0 0 0 0 0 0 0 0 0 0 0 0 0 0 0 0 0 0 0 0 0 0 0 0 0 0 0 0 0 0 0 0 0 0 0 0 0 0 0 0 0 0 0 0 0 0 0 0 0 0 0 0 0 0 0 0 0 0 0 0 0 0 0 0 0 0 0 0 0 0 0 0 0 0 0 0 0 0 0 0 0 0 0 0 0 0 0 0 0 0 0 0 0 0 0 0 0 0 0 0 0 0 0 0 0 0 0 0 0 0 0 0 0 0 0 0 0 0 0 0 0 0 0 0 0 0 0 0 0 0 0 0 0 0 0 0 0 0 0 0 0 0 0 0 0 0 0 0 0 0 0 0 0 0 0 0 0 0 0 0 0 0 0 0 0 0 0 0 0 0 0 0 0 0 0 0 0 0 0 0 0 0 0 0 0 0 
0 0 0 0 0 0 0 0 0 0 0 0 0 0 0 0 0 0 0 0 0 0 0 0 0 0 0 0 0 0 0 0 0 0 0 0 0 0 0 0 0 0 0 0 0 3.042906e-15 9.602345e-15 2.834544e-14 7.874579e-14 2.058108e-13 5.106245e-13 1.197534e-12 2.684665e-12 5.714228e-12 1.170132e-11 2.281982e-11 4.281558e-11 7.639512e-11 1.311941e-10 2.144421e-10 3.377252e-10 5.068457e-10 7.334153e-10 1.012461e-09 1.348156e-09 1.714605e-09 2.103985e-09 2.469111e-09 2.796645e-09 3.033775e-09 3.177910e-09 3.193398e-09 3.100811e-09 2.893418e-09 2.611179e-09 2.268673e-09 1.908308e-09 1.548320e-09 1.217720e-09 9.256398e-10 6.830459e-10 4.882212e-10 3.393700e-10 2.290614e-10 1.506808e-10 9.651183e-11 6.040136e-11 3.692751e-11 2.214846e-11 1.305963e-11 7.615717e-12 4.408705e-12 2.538467e-12 1.454822e-12 8.343354e-13 4.833947e-13 2.882736e-13 1.823285e-13 1.273077e-13 1.012790e-13 9.185162e-14 9.197960e-14 9.765494e-14 1.065214e-13 1.171315e-13 1.285103e-13 1.399384e-13 1.508274e-13 1.606769e-13 1.690487e-13 1.755808e-13 1.799835e-13 1.820686e-13 1.817376e-13 1.790094e-13 1.739895e-13 1.668911e-13 1.579862e-13 1.476213e-13 1.361586e-13 1.239911e-13 1.114837e-13 9.899227e-14 8.681330e-14 7.520871e-14 6.436813e-14 5.443806e-14 4.549717e-14 3.758632e-14 3.069420e-14 2.478465e-14 1.978899e-14 1.562797e-14 1.220762e-14 9.434913e-15 7.214927e-15 5.460690e-15 4.090635e-15 3.033900e-15 2.227835e-15 1.620245e-15 1.167068e-15 0 0 0 0 0 0 0 0 0 0 0 0 0 0 0 0 0 0 0 0 0 0 0 0 0 0 0 0 0 0 0 0 0 0 0 0 0 0 0 0 0 0 0 0 0 0 0 0 0 0 0 0 0 0 0 0 0 0 0 0 0 0 0 0 0 0 0 0 0 0 0 0 0 0 0 0 0 0 0 0 0 0 0 0 0 0 0 0 0 0 0 0 0 0 0 0 0 0 0 0 0 0 0 0 0 0 0 0 0 0 0 0 0 0 0 0 0 0 0 0 0 0 0 0 0 0 0 0 0 0 0 0 0 0 0 0 0 0 0 0 0 0 0 0 0 0 0 0 0 0 0 0 0 0 0 0 0 0 0 0 0 0 0 0 0 0 0 0 0 0 0 0 0 0 0 0 0 0 0 0 0 0 0 0 0 0 0 0 0 0 0 0 0 0 0 0 0 0 0 0 0 0 0 0 0 0 0 0 0 0 0 0 0 0 0 0 0 0 0 0 0 0 0 0 0 0 0 0 0 0 0 0 0 0 0 0 0 0 0 0 0 0 
0 0 0 0 0 0 0 0 0 0 0 0 0 0 0 0 0 0 0 0 0 0 0 0 0 0 0 0 0 0 0 0 0 0 0 0 0 0 0 0 0 0 0 1.978179e-15 7.036761e-15 2.326640e-14 7.160019e-14 2.063131e-13 5.591924e-13 1.427644e-12 3.458856e-12 7.932497e-12 1.738923e-11 3.624921e-11 7.271325e-11 1.390921e-10 2.561061e-10 4.491952e-10 7.590244e-10 1.222792e-09 1.900140e-09 2.818112e-09 4.034422e-09 5.517984e-09 7.287560e-09 9.204558e-09 1.122822e-08 1.311392e-08 1.479600e-08 1.600475e-08 1.673102e-08 1.679402e-08 1.630144e-08 1.521898e-08 1.375097e-08 1.197099e-08 1.009549e-08 8.217738e-09 6.487197e-09 4.952253e-09 3.671172e-09 2.637161e-09 1.842638e-09 1.250496e-09 8.271544e-10 5.328394e-10 3.354399e-10 2.064662e-10 1.248907e-10 7.448125e-11 4.406226e-11 2.587736e-11 1.508716e-11 8.748454e-12 5.069818e-12 2.960579e-12 1.770105e-12 1.112672e-12 7.635861e-13 5.924041e-13 5.243214e-13 5.162562e-13 5.433970e-13 5.910053e-13 6.500137e-13 7.143047e-13 7.794440e-13 8.418158e-13 8.984239e-13 9.466368e-13 9.843315e-13 1.009801e-12 1.021966e-12 1.020271e-12 1.004848e-12 9.763448e-13 9.360115e-13 8.854566e-13 8.266759e-13 7.617801e-13 6.930011e-13 6.224409e-13 5.520919e-13 4.836437e-13 4.185358e-13 3.578362e-13 3.023250e-13 2.524366e-13 2.083597e-13 1.700228e-13 1.371917e-13 1.094772e-13 8.641539e-14 6.748020e-14 5.214086e-14 3.986959e-14 3.017643e-14 2.261003e-14 1.677430e-14 1.232374e-14 8.968099e-15 6.464919e-15 4.617832e-15 3.268665e-15 2.293350e-15 1.595083e-15 1.100074e-15 0 0 0 0 0 0 0 0 0 0 0 0 0 0 0 0 0 0 0 0 0 0 0 0 0 0 0 0 0 0 0 0 0 0 0 0 0 0 0 0 0 0 0 0 0 0 0 0 0 0 0 0 0 0 0 0 0 0 0 0 0 0 0 0 0 0 0 0 0 0 0 0 0 0 0 0 0 0 0 0 0 0 0 0 0 0 0 0 0 0 0 0 0 0 0 0 0 0 0 0 0 0 0 0 0 0 0 0 0 0 0 0 0 0 0 0 0 0 0 0 0 0 0 0 0 0 0 0 0 0 0 0 0 0 0 0 0 0 0 0 0 0 0 0 0 0 0 0 0 0 0 0 0 0 0 0 0 0 0 0 0 0 0 0 0 0 0 0 0 0 0 0 0 0 0 0 0 0 0 0 0 0 0 0 0 0 0 0 0 0 0 0 0 0 0 0 0 0 0 0 0 0 0 0 0 0 0 0 0 0 0 0 0 0 0 0 0 0 0 0 0 0 0 0 0 0 0 0 0 0 0 0 0 0 0 0 0 
0 0 0 0 0 0 0 0 0 0 0 0 0 0 0 0 0 0 0 0 0 0 0 0 0 0 0 0 0 0 0 0 0 0 0 0 0 0 0 0 0 0 3.908514e-15 1.476323e-14 5.125745e-14 1.655217e-13 4.974046e-13 1.400720e-12 3.709974e-12 9.264847e-12 2.195610e-11 4.930814e-11 1.058600e-10 2.163935e-10 4.257507e-10 7.997419e-10 1.446726e-09 2.496709e-09 4.154373e-09 6.600835e-09 1.012570e-08 1.484784e-08 2.103606e-08 2.851583e-08 3.736040e-08 4.687644e-08 5.685331e-08 6.610183e-08 7.430169e-08 8.016186e-08 8.364073e-08 8.388357e-08 8.140884e-08 7.606216e-08 6.882312e-08 6.005101e-08 5.078763e-08 4.148920e-08 3.288484e-08 2.521935e-08 1.878761e-08 1.356734e-08 9.531764e-09 6.505448e-09 4.328011e-09 2.804660e-09 1.777204e-09 1.102853e-09 6.743996e-10 4.080886e-10 2.451068e-10 1.458891e-10 8.616594e-11 5.059312e-11 2.966051e-11 1.747994e-11 1.049736e-11 6.572118e-12 4.441344e-12 3.359833e-12 2.894516e-12 2.792149e-12 2.905026e-12 3.144580e-12 3.455884e-12 3.802149e-12 4.156730e-12 4.498420e-12 4.809657e-12 5.075412e-12 5.283507e-12 5.424397e-12 5.492041e-12 5.483466e-12 5.399575e-12 5.244115e-12 5.024244e-12 4.748946e-12 4.429441e-12 4.077311e-12 3.704940e-12 3.323680e-12 2.944448e-12 2.576203e-12 2.226734e-12 1.901551e-12 1.604805e-12 1.338582e-12 1.103830e-12 8.999543e-13 7.256529e-13 5.786944e-13 4.565758e-13 3.563991e-13 2.753312e-13 2.105144e-13 1.593509e-13 1.194216e-13 8.863579e-14 6.515382e-14 4.744844e-14 3.423411e-14 2.447951e-14 1.734821e-14 1.218907e-14 8.490844e-15 5.866188e-15 4.019623e-15 2.732777e-15 1.843366e-15 1.234180e-15 0 0 0 0 0 0 0 0 0 0 0 0 0 0 0 0 0 0 0 0 0 0 0 0 0 0 0 0 0 0 0 0 0 0 0 0 0 0 0 0 0 0 0 0 0 0 0 0 0 0 0 0 0 0 0 0 0 0 0 0 0 0 0 0 0 0 0 0 0 0 0 0 0 0 0 0 0 0 0 0 0 0 0 0 0 0 0 0 0 0 0 0 0 0 0 0 0 0 0 0 0 0 0 0 0 0 0 0 0 0 0 0 0 0 0 0 0 0 0 0 0 0 0 0 0 0 0 0 0 0 0 0 0 0 0 0 0 0 0 0 0 0 0 0 0 0 0 0 0 0 0 0 0 0 0 0 0 0 0 0 0 0 0 0 0 0 0 0 0 0 0 0 0 0 0 0 0 0 0 0 0 0 0 0 0 0 0 0 0 0 0 0 0 0 0 0 0 0 0 0 0 0 0 0 0 0 0 0 0 0 0 0 0 0 0 0 0 0 0 0 0 0 0 0 0 0 0 0 0 0 0 0 0 
0 0 0 0 0 0 0 0 0 0 0 0 0 0 0 0 0 0 0 0 0 0 0 0 0 0 0 0 0 0 0 0 0 0 0 0 0 0 0 0 1.577979e-15 6.960380e-15 2.783497e-14 1.026638e-13 3.480072e-13 1.098237e-12 3.224668e-12 8.883271e-12 2.301161e-11 5.627400e-11 1.305710e-10 2.874511e-10 6.049512e-10 1.213661e-09 2.343871e-09 4.326871e-09 7.696495e-09 1.307742e-08 2.144132e-08 3.361268e-08 5.092107e-08 7.383685e-08 1.035521e-07 1.391324e-07 1.808636e-07 2.254385e-07 2.718844e-07 3.146970e-07 3.524606e-07 3.792883e-07 3.950565e-07 3.959025e-07 3.842214e-07 3.593241e-07 3.256613e-07 2.848682e-07 2.416801e-07 1.981990e-07 1.577792e-07 1.215969e-07 9.105795e-08 6.612417e-08 4.671972e-08 3.207418e-08 2.146440e-08 1.399720e-08 8.935802e-09 5.601784e-09 3.472666e-09 2.135107e-09 1.300459e-09 7.846461e-10 4.697144e-10 2.794787e-10 1.658743e-10 9.876748e-11 5.967245e-11 3.730633e-11 2.489977e-11 1.840243e-11 1.542123e-11 1.453746e-11 1.491194e-11 1.603559e-11 1.759117e-11 1.936534e-11 2.120561e-11 2.299106e-11 2.462387e-11 2.602046e-11 2.711467e-11 2.785472e-11 2.820876e-11 2.816167e-11 2.771928e-11 2.690293e-11 2.575151e-11 2.431404e-11 2.265000e-11 2.082141e-11 1.889273e-11 1.692377e-11 1.497031e-11 1.307882e-11 1.128814e-11 9.626350e-12 8.113259e-12 6.759086e-12 5.567324e-12 4.534512e-12 3.652963e-12 2.911028e-12 2.295290e-12 1.790900e-12 1.383093e-12 1.057372e-12 8.003947e-13 5.999699e-13 4.454599e-13 3.276339e-13 2.387686e-13 1.724331e-13 1.234319e-13 8.758811e-14 6.162894e-14 4.300247e-14 2.976360e-14 2.043663e-14 1.392459e-14 9.415754e-15 6.320468e-15 4.212291e-15 2.787981e-15 1.832829e-15 1.197154e-15 0 0 0 0 0 0 0 0 0 0 0 0 0 0 0 0 0 0 0 0 0 0 0 0 0 0 0 0 0 0 0 0 0 0 0 0 0 0 0 0 0 0 0 0 0 0 0 0 0 0 0 0 0 0 0 0 0 0 0 0 0 0 0 0 0 0 0 0 0 0 0 0 0 0 0 0 0 0 0 0 0 0 0 0 0 0 0 0 0 0 0 0 0 0 0 0 0 0 0 0 0 0 0 0 0 0 0 0 0 0 0 0 0 0 0 0 0 0 0 0 0 0 0 0 0 0 0 0 0 0 0 0 0 0 0 0 0 0 0 0 0 0 0 0 0 0 0 0 0 0 0 0 0 0 0 0 0 0 0 0 0 0 0 0 0 0 0 0 0 0 0 0 0 0 0 0 0 0 0 0 0 0 0 0 0 0 0 0 0 0 0 0 0 0 0 0 0 0 0 0 0 0 0 0 0 0 0 0 0 0 0 0 0 0 0 0 0 0 0 0 0 0 0 0 0 0 0 0 0 
0 0 0 0 0 0 0 0 0 0 0 0 0 0 0 0 0 0 0 0 0 0 0 0 0 0 0 0 0 0 0 0 0 0 0 0 0 0 0 2.328113e-15 1.097377e-14 4.721867e-14 1.841716e-13 6.630173e-13 2.194502e-12 6.768832e-12 1.943517e-11 5.240832e-11 1.329482e-10 3.186891e-10 7.250496e-10 1.566538e-09 3.236423e-09 6.379593e-09 1.210844e-08 2.198982e-08 3.849866e-08 6.445487e-08 1.041888e-07 1.612194e-07 2.412492e-07 3.459817e-07 4.802979e-07 6.396528e-07 8.249208e-07 1.021468e-06 1.224855e-06 1.411417e-06 1.574982e-06 1.690661e-06 1.757880e-06 1.760568e-06 1.708819e-06 1.599996e-06 1.452871e-06 1.274571e-06 1.085184e-06 8.938622e-07 7.150715e-07 5.541419e-07 4.174027e-07 3.049966e-07 2.168650e-07 1.498551e-07 1.009549e-07 6.633533e-08 4.276344e-08 2.716887e-08 1.712040e-08 1.068047e-08 6.597499e-09 4.036920e-09 2.450881e-09 1.478406e-09 8.888556e-10 5.350944e-10 3.256515e-10 2.036839e-10 1.346069e-10 9.735569e-11 7.930908e-11 7.286126e-11 7.345331e-11 7.828816e-11 8.560596e-11 9.422679e-11 1.033063e-10 1.121888e-10 1.203448e-10 1.273337e-10 1.328066e-10 1.364981e-10 1.382460e-10 1.379784e-10 1.357316e-10 1.316204e-10 1.258501e-10 1.186725e-10 1.103940e-10 1.013257e-10 9.179368e-11 8.209203e-11 7.249807e-11 6.323486e-11 5.449208e-11 4.639962e-11 3.905172e-11 3.249064e-11 2.673054e-11 2.174836e-11 1.750465e-11 1.393856e-11 1.098395e-11 8.566406e-12 6.614205e-12 5.056066e-12 3.827771e-12 2.870051e-12 2.132008e-12 1.569105e-12 1.144533e-12 8.274138e-13 5.930459e-13 4.214330e-13 2.970300e-13 2.076376e-13 1.440149e-13 9.910750e-14 6.769719e-14 4.589894e-14 3.090127e-14 2.065843e-14 1.371980e-14 9.051865e-15 5.935554e-15 3.868443e-15 2.507093e-15 1.615831e-15 1.036191e-15 0 0 0 0 0 0 0 0 0 0 0 0 0 0 0 0 0 0 0 0 0 0 0 0 0 0 0 0 0 0 0 0 0 0 0 0 0 0 0 0 0 0 0 0 0 0 0 0 0 0 0 0 0 0 0 0 0 0 0 0 0 0 0 0 0 0 0 0 0 0 0 0 0 0 0 0 0 0 0 0 0 0 0 0 0 0 0 0 0 0 0 0 0 0 0 0 0 0 0 0 0 0 0 0 0 0 0 0 0 0 0 0 0 0 0 0 0 0 0 0 0 0 0 0 0 0 0 0 0 0 0 0 0 0 0 0 0 0 0 0 0 0 0 0 0 0 0 0 0 0 0 0 0 0 0 0 0 0 0 0 0 0 0 0 0 0 0 0 0 0 0 0 0 0 0 0 0 0 0 0 0 0 0 0 0 0 0 0 0 0 0 0 0 0 0 0 0 0 0 0 0 0 0 0 0 0 0 0 0 0 0 0 0 0 0 0 0 0 0 0 0 0 0 0 0 
0 0 0 0 0 0 0 0 0 0 0 0 0 0 0 0 0 0 0 0 0 0 0 0 0 0 0 0 0 0 0 0 0 0 0 0 0 0 3.027799e-15 1.557747e-14 7.151762e-14 2.996867e-13 1.138511e-12 3.996696e-12 1.290545e-11 3.889862e-11 1.091836e-10 2.883046e-10 7.163210e-10 1.684282e-09 3.759043e-09 7.977083e-09 1.618784e-08 3.137203e-08 5.854941e-08 1.046657e-07 1.804672e-07 2.978386e-07 4.748549e-07 7.253772e-07 1.072345e-06 1.520875e-06 2.089860e-06 2.758213e-06 3.528657e-06 4.339804e-06 5.173778e-06 5.934385e-06 6.597673e-06 7.064174e-06 7.332580e-06 7.339476e-06 7.125556e-06 6.680804e-06 6.079685e-06 5.350775e-06 4.573792e-06 3.785796e-06 3.045050e-06 2.374193e-06 1.799847e-06 1.324138e-06 9.480085e-07 6.597438e-07 4.477947e-07 2.969647e-07 1.937841e-07 1.251543e-07 8.006690e-08 5.067511e-08 3.175379e-08 1.971202e-08 1.213958e-08 7.426006e-09 4.523712e-09 2.754995e-09 1.690726e-09 1.060323e-09 6.961260e-10 4.945345e-10 3.923848e-10 3.510813e-10 3.471373e-10 3.659669e-10 3.983219e-10 4.379652e-10 4.804709e-10 5.224120e-10 5.610786e-10 5.942272e-10 6.201245e-10 6.374613e-10 6.454672e-10 6.438230e-10 6.327429e-10 6.128325e-10 5.851154e-10 5.508481e-10 5.115122e-10 4.686229e-10 4.237197e-10 3.782048e-10 3.333564e-10 2.902163e-10 2.496317e-10 2.121929e-10 1.782961e-10 1.481193e-10 1.216915e-10 9.889146e-11 7.950992e-11 6.325747e-11 4.981281e-11 3.882997e-11 2.997080e-11 2.290810e-11 1.734389e-11 1.300834e-11 9.667692e-12 7.120307e-12 5.198261e-12 3.762266e-12 2.700121e-12 1.921799e-12 1.356863e-12 9.504241e-13 6.606444e-13 4.557625e-13 3.121406e-13 2.122548e-13 1.433465e-13 9.616101e-14 6.409564e-14 4.245654e-14 2.795723e-14 1.830455e-14 1.192074e-14 7.723740e-15 4.981027e-15 3.198184e-15 2.045496e-15 1.303659e-15 0 0 0 0 0 0 0 0 0 0 0 0 0 0 0 0 0 0 0 0 0 0 0 0 0 0 0 0 0 0 0 0 0 0 0 0 0 0 0 0 0 0 0 0 0 0 0 0 0 0 0 0 0 0 0 0 0 0 0 0 0 0 0 0 0 0 0 0 0 0 0 0 0 0 0 0 0 0 0 0 0 0 0 0 0 0 0 0 0 0 0 0 0 0 0 0 0 0 0 0 0 0 0 0 0 0 0 0 0 0 0 0 0 0 0 0 0 0 0 0 0 0 0 0 0 0 0 0 0 0 0 0 0 0 0 0 0 0 0 0 0 0 0 0 0 0 0 0 0 0 0 0 0 0 0 0 0 0 0 0 0 0 0 0 0 0 0 0 0 0 0 0 0 0 0 0 0 0 0 0 0 0 0 0 0 0 0 0 0 0 0 0 0 0 0 0 0 0 0 0 0 0 0 0 0 0 0 0 0 0 0 0 0 0 0 0 0 0 0 0 0 0 
0 0 0 0 0 0 0 0 0 0 0 0 0 0 0 0 0 0 0 0 0 0 0 0 0 0 0 0 0 0 0 0 0 0 0 0 0 3.522633e-15 1.958077e-14 9.796482e-14 4.366662e-13 1.777239e-12 6.560855e-12 2.241340e-11 7.052909e-11 2.075147e-10 5.694138e-10 1.472062e-09 3.585004e-09 8.272245e-09 1.813217e-08 3.782482e-08 7.548858e-08 1.439719e-07 2.644841e-07 4.657955e-07 7.915711e-07 1.288533e-06 2.026897e-06 3.057239e-06 4.464670e-06 6.261560e-06 8.514066e-06 1.113352e-05 1.412434e-05 1.724998e-05 2.043950e-05 2.333345e-05 2.584049e-05 2.759607e-05 2.859400e-05 2.860686e-05 2.778306e-05 2.609127e-05 2.380313e-05 2.102708e-05 1.805538e-05 1.502810e-05 1.216302e-05 9.549668e-06 7.292915e-06 5.407187e-06 3.901971e-06 2.737858e-06 1.875322e-06 1.258110e-06 8.337889e-07 5.472816e-07 3.554192e-07 2.282977e-07 1.451931e-07 9.147020e-08 5.715832e-08 3.546080e-08 2.189199e-08 1.349131e-08 8.355947e-09 5.262416e-09 3.441480e-09 2.408924e-09 1.865358e-09 1.624725e-09 1.572288e-09 1.635874e-09 1.769234e-09 1.941141e-09 2.129363e-09 2.316965e-09 2.490585e-09 2.639449e-09 2.755259e-09 2.831952e-09 2.866021e-09 2.856177e-09 2.803624e-09 2.711362e-09 2.584325e-09 2.428390e-09 2.250477e-09 2.057468e-09 1.856389e-09 1.653441e-09 1.454333e-09 1.263533e-09 1.084730e-09 9.203356e-10 7.720017e-10 6.403240e-10 5.253433e-10 4.263803e-10 3.424599e-10 2.722188e-10 2.142239e-10 1.669118e-10 1.288013e-10 9.844373e-11 7.454798e-11 5.593434e-11 4.159712e-11 3.066202e-11 2.240996e-11 1.624022e-11 1.167366e-11 8.323237e-12 5.888518e-12 4.133837e-12 2.880703e-12 1.992725e-12 1.368898e-12 9.338545e-13 6.329242e-13 4.261908e-13 2.852522e-13 1.897807e-13 1.255692e-13 8.263500e-14 5.411616e-14 3.527257e-14 2.289587e-14 1.480414e-14 9.541468e-15 6.131787e-15 3.932239e-15 2.517370e-15 1.610224e-15 1.029578e-15 0 0 0 0 0 0 0 0 0 0 0 0 0 0 0 0 0 0 0 0 0 0 0 0 0 0 0 0 0 0 0 0 0 0 0 0 0 0 0 0 0 0 0 0 0 0 0 0 0 0 0 0 0 0 0 0 0 0 0 0 0 0 0 0 0 0 0 0 0 0 0 0 0 0 0 0 0 0 0 0 0 0 0 0 0 0 0 0 0 0 0 0 0 0 0 0 0 0 0 0 0 0 0 0 0 0 0 0 0 0 0 0 0 0 0 0 0 0 0 0 0 0 0 0 0 0 0 0 0 0 0 0 0 0 0 0 0 0 0 0 0 0 0 0 0 0 0 0 0 0 0 0 0 0 0 0 0 0 0 0 0 0 0 0 0 0 0 0 0 0 0 0 0 0 0 0 0 0 0 0 0 0 0 0 0 0 0 0 0 0 0 0 0 0 0 0 0 0 0 0 0 0 0 0 0 0 0 0 0 0 0 0 0 0 0 0 0 0 
0 0 0 0 0 0 0 0 0 0 0 0 0 0 0 0 0 0 0 0 0 0 0 0 0 0 0 0 0 0 0 0 0 0 0 0 3.618499e-15 2.238225e-14 1.209112e-13 5.860158e-13 2.526899e-12 9.951460e-12 3.556895e-11 1.179204e-10 3.605955e-10 1.034031e-09 2.768891e-09 7.004017e-09 1.670503e-08 3.782827e-08 8.141664e-08 1.670073e-07 3.278365e-07 6.155080e-07 1.113161e-06 1.931820e-06 3.236632e-06 5.197469e-06 8.067819e-06 1.201438e-05 1.733084e-05 2.402738e-05 3.232206e-05 4.186125e-05 5.265115e-05 6.383351e-05 7.516443e-05 8.538277e-05 9.418397e-05 1.003134e-04 1.037631e-04 1.037642e-04 1.008323e-04 9.486932e-05 8.680000e-05 7.699753e-05 6.645519e-05 5.565909e-05 4.536263e-05 3.589392e-05 2.763619e-05 2.066749e-05 1.504481e-05 1.065511e-05 7.376986e-06 5.018892e-06 3.382229e-06 2.254501e-06 1.486183e-06 9.690031e-07 6.254725e-07 3.998907e-07 2.535059e-07 1.594912e-07 9.977244e-08 6.223178e-08 3.892229e-08 2.465627e-08 1.610923e-08 1.115832e-08 8.467494e-09 7.195083e-09 6.813839e-09 6.987969e-09 7.500111e-09 8.202359e-09 8.989773e-09 9.782490e-09 1.051863e-08 1.114863e-08 1.163529e-08 1.195180e-08 1.208342e-08 1.202548e-08 1.178437e-08 1.137450e-08 1.081824e-08 1.014214e-08 9.376390e-09 8.551141e-09 7.696170e-09 6.837947e-09 5.999930e-09 5.200679e-09 4.454750e-09 3.771766e-09 3.157675e-09 2.614483e-09 2.141569e-09 1.735753e-09 1.392441e-09 1.105782e-09 8.695280e-10 6.771456e-10 5.223691e-10 3.992342e-10 3.023727e-10 2.269741e-10 1.689032e-10 1.246176e-10 9.118224e-11 6.617310e-11 4.764360e-11 3.403540e-11 2.413098e-11 1.698206e-11 1.186577e-11 8.232831e-12 5.673829e-12 3.884552e-12 2.642894e-12 1.787175e-12 1.201583e-12 8.033975e-13 5.344030e-13 3.537386e-13 2.331155e-13 1.529959e-13 1.000562e-13 6.523000e-14 4.241969e-14 2.753146e-14 1.784639e-14 1.156085e-14 7.490135e-15 4.856440e-15 3.153595e-15 2.052038e-15 1.338823e-15 0 0 0 0 0 0 0 0 0 0 0 0 0 0 0 0 0 0 0 0 0 0 0 0 0 0 0 0 0 0 0 0 0 0 0 0 0 0 0 0 0 0 0 0 0 0 0 0 0 0 0 0 0 0 0 0 0 0 0 0 0 0 0 0 0 0 0 0 0 0 0 0 0 0 0 0 0 0 0 0 0 0 0 0 0 0 0 0 0 0 0 0 0 0 0 0 0 0 0 0 0 0 0 0 0 0 0 0 0 0 0 0 0 0 0 0 0 0 0 0 0 0 0 0 0 0 0 0 0 0 0 0 0 0 0 0 0 0 0 0 0 0 0 0 0 0 0 0 0 0 0 0 0 0 0 0 0 0 0 0 0 0 0 0 0 0 0 0 0 0 0 0 0 0 0 0 0 0 0 0 0 0 0 0 0 0 0 0 0 0 0 0 0 0 0 0 0 0 0 0 0 0 0 0 0 0 0 0 0 0 0 0 0 0 0 
0 0 0 0 0 0 0 0 0 0 0 0 0 0 0 0 0 0 0 0 0 0 0 0 0 0 0 0 0 0 0 0 0 0 0 3.341431e-15 2.280854e-14 1.373198e-13 7.171911e-13 3.351653e-12 1.389992e-11 5.268024e-11 1.814074e-10 5.808910e-10 1.720695e-09 4.793808e-09 1.250906e-08 3.091264e-08 7.219665e-08 1.603880e-07 3.391587e-07 6.843609e-07 1.322538e-06 2.446043e-06 4.358349e-06 7.457276e-06 1.232308e-05 1.952702e-05 2.991061e-05 4.397268e-05 6.263101e-05 8.580696e-05 1.141328e-04 1.463436e-04 1.823933e-04 2.194566e-04 2.567105e-04 2.901319e-04 3.187238e-04 3.385678e-04 3.496209e-04 3.495475e-04 3.399513e-04 3.205917e-04 2.943348e-04 2.623773e-04 2.278066e-04 1.921767e-04 1.578867e-04 1.260453e-04 9.795800e-05 7.397804e-05 5.439446e-05 3.894375e-05 2.730783e-05 1.888738e-05 1.293426e-05 8.755521e-06 5.860555e-06 3.879339e-06 2.541796e-06 1.649036e-06 1.060445e-06 6.764139e-07 4.287289e-07 2.706384e-07 1.710002e-07 1.090663e-07 7.134625e-08 4.906288e-08 3.661659e-08 3.041920e-08 2.819351e-08 2.846889e-08 3.028244e-08 3.297563e-08 3.607860e-08 3.923772e-08 4.217943e-08 4.468991e-08 4.660981e-08 4.782859e-08 4.828751e-08 4.797216e-08 4.691457e-08 4.517939e-08 4.286406e-08 4.008040e-08 3.695502e-08 3.361047e-08 3.016810e-08 2.673208e-08 2.339538e-08 2.022822e-08 1.728638e-08 1.460377e-08 1.220159e-08 1.008403e-08 8.246762e-09 6.674559e-09 5.348212e-09 4.243124e-09 3.334305e-09 2.595375e-09 2.001791e-09 1.529978e-09 1.159170e-09 8.706061e-10 6.484232e-10 4.789278e-10 3.509200e-10 2.550837e-10 1.840135e-10 1.317401e-10 9.363748e-11 6.607770e-11 4.631301e-11 3.224102e-11 2.230244e-11 1.533052e-11 1.047653e-11 7.118206e-12 4.810971e-12 3.234905e-12 2.165219e-12 1.442914e-12 9.579853e-13 6.338437e-13 4.182491e-13 2.753499e-13 1.810091e-13 1.188740e-13 7.806247e-14 5.128485e-14 3.373823e-14 2.223500e-14 1.469172e-14 9.735077e-15 6.472344e-15 4.317309e-15 2.889772e-15 1.940125e-15 1.306257e-15 0 0 0 0 0 0 0 0 0 0 0 0 0 0 0 0 0 0 0 0 0 0 0 0 0 0 0 0 0 0 0 0 0 0 0 0 0 0 0 0 0 0 0 0 0 0 0 0 0 0 0 0 0 0 0 0 0 0 0 0 0 0 0 0 0 0 0 0 0 0 0 0 0 0 0 0 0 0 0 0 0 0 0 0 0 0 0 0 0 0 0 0 0 0 0 0 0 0 0 0 0 0 0 0 0 0 0 0 0 0 0 0 0 0 0 0 0 0 0 0 0 0 0 0 0 0 0 0 0 0 0 0 0 0 0 0 0 0 0 0 0 0 0 0 0 0 0 0 0 0 0 0 0 0 0 0 0 0 0 0 0 0 0 0 0 0 0 0 0 0 0 0 0 0 0 0 0 0 0 0 0 0 0 0 0 0 0 0 0 0 0 0 0 0 0 0 0 0 0 0 0 0 0 0 0 0 0 0 0 0 0 
0 0 0 0 0 0 0 0 0 0 0 0 0 0 0 0 0 0 0 0 0 0 0 0 0 0 0 0 0 0 0 0 0 0 2.695129e-15 2.119940e-14 1.418034e-13 8.273936e-13 4.162236e-12 1.864806e-11 7.394541e-11 2.680319e-10 8.832772e-10 2.716748e-09 7.749240e-09 2.089111e-08 5.289899e-08 1.274115e-07 2.906623e-07 6.327593e-07 1.313018e-06 2.605116e-06 4.953828e-06 9.023998e-06 1.583729e-05 2.670924e-05 4.352582e-05 6.804030e-05 1.028278e-04 1.491738e-04 2.097232e-04 2.837829e-04 3.730904e-04 4.733904e-04 5.845136e-04 6.977665e-04 8.108056e-04 9.116481e-04 9.974956e-04 1.056908e-03 1.089897e-03 1.089787e-03 1.061301e-03 1.003800e-03 9.254968e-04 8.297916e-04 7.254929e-04 6.170955e-04 5.116215e-04 4.125261e-04 3.239324e-04 2.472801e-04 1.838210e-04 1.331917e-04 9.472196e-05 6.661479e-05 4.633850e-05 3.185290e-05 2.164515e-05 1.454331e-05 9.668771e-06 6.362885e-06 4.148514e-06 2.681701e-06 1.721360e-06 1.099519e-06 7.018809e-07 4.511487e-07 2.960840e-07 2.028931e-07 1.496326e-07 1.220595e-07 1.109891e-07 1.104159e-07 1.163603e-07 1.260747e-07 1.375965e-07 1.494464e-07 1.604964e-07 1.698711e-07 1.769357e-07 1.812595e-07 1.826296e-07 1.810130e-07 1.765600e-07 1.695498e-07 1.603794e-07 1.495010e-07 1.374082e-07 1.245788e-07 1.114693e-07 9.847328e-08 8.592735e-08 7.408743e-08 6.314459e-08 5.321506e-08 4.436081e-08 3.658807e-08 2.986747e-08 2.413615e-08 1.931431e-08 1.530772e-08 1.201943e-08 9.351209e-09 7.210700e-09 5.511557e-09 4.177058e-09 3.139227e-09 2.340140e-09 1.730542e-09 1.269859e-09 9.247330e-10 6.684653e-10 4.797328e-10 3.418992e-10 2.420115e-10 1.701930e-10 1.189283e-10 8.260527e-11 5.704192e-11 3.917460e-11 2.676362e-11 1.819711e-11 1.231724e-11 8.304250e-12 5.578774e-12 3.736758e-12 2.496830e-12 1.665454e-12 1.109655e-12 7.390967e-13 4.924431e-13 3.284748e-13 2.194837e-13 1.470133e-13 9.875250e-14 6.655263e-14 4.500425e-14 3.053837e-14 2.078857e-14 1.419266e-14 9.711868e-15 6.657295e-15 4.567743e-15 3.134845e-15 2.150159e-15 1.472894e-15 1.006869e-15 0 0 0 0 0 0 0 0 0 0 0 0 0 0 0 0 0 0 0 0 0 0 0 0 0 0 0 0 0 0 0 0 0 0 0 0 0 0 0 0 0 0 0 0 0 0 0 0 0 0 0 0 0 0 0 0 0 0 0 0 0 0 0 0 0 0 0 0 0 0 0 0 0 0 0 0 0 0 0 0 0 0 0 0 0 0 0 0 0 0 0 0 0 0 0 0 0 0 0 0 0 0 0 0 0 0 0 0 0 0 0 0 0 0 0 0 0 0 0 0 0 0 0 0 0 0 0 0 0 0 0 0 0 0 0 0 0 0 0 0 0 0 0 0 0 0 0 0 0 0 0 0 0 0 0 0 0 0 0 0 0 0 0 0 0 0 0 0 0 0 0 0 0 0 0 0 0 0 0 0 0 0 0 0 0 0 0 0 0 0 0 0 0 0 0 0 0 0 0 0 0 0 0 0 0 0 
0 0 0 0 0 0 0 0 0 0 0 0 0 0 0 0 0 0 0 0 0 0 0 0 0 0 0 0 0 0 0 0 0 1.897134e-15 1.708706e-14 1.338195e-13 8.757733e-13 4.938735e-12 2.376625e-11 1.014863e-10 3.820491e-10 1.314683e-09 4.116591e-09 1.206721e-08 3.294504e-08 8.539974e-08 2.090123e-07 4.887404e-07 1.087088e-06 2.314990e-06 4.712023e-06 9.189150e-06 1.719897e-05 3.086664e-05 5.338614e-05 8.875543e-05 1.426139e-04 2.198947e-04 3.277259e-04 4.689454e-04 6.502746e-04 8.685303e-04 1.127784e-03 1.415378e-03 1.730491e-03 2.049178e-03 2.364918e-03 2.645583e-03 2.883460e-03 3.048498e-03 3.140605e-03 3.142749e-03 3.067240e-03 2.912667e-03 2.700146e-03 2.438359e-03 2.149983e-03 1.846748e-03 1.547468e-03 1.262039e-03 1.002679e-03 7.746508e-04 5.829287e-04 4.279836e-04 3.091437e-04 2.209214e-04 1.560625e-04 1.089100e-04 7.511823e-05 5.121025e-05 3.453176e-05 2.303814e-05 1.522111e-05 9.965178e-06 6.474832e-06 4.182878e-06 2.697362e-06 1.747739e-06 1.152211e-06 7.886596e-07 5.767937e-07 4.636224e-07 4.145518e-07 4.066321e-07 4.244723e-07 4.573610e-07 4.975885e-07 5.393802e-07 5.783369e-07 6.111204e-07 6.353373e-07 6.494343e-07 6.526942e-07 6.450980e-07 6.273093e-07 6.004487e-07 5.660617e-07 5.258454e-07 4.816383e-07 4.351613e-07 3.880575e-07 3.416884e-07 2.972242e-07 2.555056e-07 2.171652e-07 1.825440e-07 1.518188e-07 1.249547e-07 1.018183e-07 8.215090e-08 6.565647e-08 5.198416e-08 4.078965e-08 3.172129e-08 2.445827e-08 1.869827e-08 1.417844e-08 1.066416e-08 7.958803e-09 5.893963e-09 4.332721e-09 3.161713e-09 2.291152e-09 1.648815e-09 1.178819e-09 8.373421e-10 5.911856e-10 4.149020e-10 2.895824e-10 2.010293e-10 1.388798e-10 9.549825e-11 6.540302e-11 4.462407e-11 3.035457e-11 2.059356e-11 1.394614e-11 9.432037e-12 6.376568e-12 4.311595e-12 2.918552e-12 1.978788e-12 1.344919e-12 9.166517e-13 6.268677e-13 4.301494e-13 2.962277e-13 2.046614e-13 1.418320e-13 9.852191e-14 6.856620e-14 4.776457e-14 3.328586e-14 2.318173e-14 1.612526e-14 1.119288e-14 7.748833e-15 5.346158e-15 3.674541e-15 2.514374e-15 1.712486e-15 1.160265e-15 0 0 0 0 0 0 0 0 0 0 0 0 0 0 0 0 0 0 0 0 0 0 0 0 0 0 0 0 0 0 0 0 0 0 0 0 0 0 0 0 0 0 0 0 0 0 0 0 0 0 0 0 0 0 0 0 0 0 0 0 0 0 0 0 0 0 0 0 0 0 0 0 0 0 0 0 0 0 0 0 0 0 0 0 0 0 0 0 0 0 0 0 0 0 0 0 0 0 0 0 0 0 0 0 0 0 0 0 0 0 0 0 0 0 0 0 0 0 0 0 0 0 0 0 0 0 0 0 0 0 0 0 0 0 0 0 0 0 0 0 0 0 0 0 0 0 0 0 0 0 0 0 0 0 0 0 0 0 0 0 0 0 0 0 0 0 0 0 0 0 0 0 0 0 0 0 0 0 0 0 0 0 0 0 0 0 0 0 0 0 0 0 0 0 0 0 0 0 0 0 0 0 