# vtk DataFile Version 2.0
Comment goes here
ASCII

DATASET STRUCTURED_POINTS
FIELD FieldData 1
TIME 1 1 double
2.15000000
DIMENSIONS    384   64   1

ORIGIN    0.000   0.000   0.000
SPACING   0.078125 0.078125   1.000

POINT_DATA   24576
SCALARS Concentration double
LOOKUP_TABLE default

0 0 0 0 0 0 0 0 0 0 0 0 0 0 0 0 0 0 0 0 0 0 0 0 0 0 0 0 0 0 0 0 0 0 0 0 0 0 0 0 0 0 0 0 0 0 0 0 0 0 1.892283e-15 5.002827e-15 1.249690e-14 2.995728e-14 6.811565e-14 1.493983e-13 3.116583e-13 6.290908e-13 1.208747e-12 2.250019e-12 3.986854e-12 6.848997e-12 1.119986e-11 1.777143e-11 2.684142e-11 3.935918e-11 5.488675e-11 7.418967e-11 9.553256e-11 1.191323e-10 1.417902e-10 1.633191e-10 1.798745e-10 1.916514e-10 1.956210e-10 1.931620e-10 1.830784e-10 1.679238e-10 1.481435e-10 1.265699e-10 1.042324e-10 8.321947e-11 6.418796e-11 4.806749e-11 3.485781e-11 2.458565e-11 1.683571e-11 1.123620e-11 7.300962e-12 4.634854e-12 2.873423e-12 1.745656e-12 1.039744e-12 6.097579e-13 3.532387e-13 2.042699e-13 1.198120e-13 7.324691e-14 4.862271e-14 3.652480e-14 3.149441e-14 3.030862e-14 3.109723e-14 3.269021e-14 3.440983e-14 3.580535e-14 3.665830e-14 3.683750e-14 3.634805e-14 3.522608e-14 3.358342e-14 3.152688e-14 2.919312e-14 2.669212e-14 2.413509e-14 2.160037e-14 1.915633e-14 1.684296e-14 1.469084e-14 1.271425e-14 1.092318e-14 9.317455e-15 7.892748e-15 6.638851e-15 5.543747e-15 4.595240e-15 3.781063e-15 3.088570e-15 2.504755e-15 2.016881e-15 1.612596e-15 1.280381e-15 1.009566e-15 0 0 0 0 0 0 0 0 0 0 0 0 0 0 0 0 0 0 0 0 0 0 0 0 0 0 0 0 0 0 0 0 0 0 0 0 0 0 0 0 0 0 0 0 0 0 0 0 0 0 0 0 0 0 0 0 0 0 0 0 0 0 0 0 0 0 0 0 0 0 0 0 0 0 0 0 0 0 0 0 0 0 0 0 0 0 0 0 0 0 0 0 0 0 0 0 0 0 0 0 0 0 0 0 0 0 0 0 0 0 0 0 0 0 0 0 0 0 0 0 0 0 0 0 0 0 0 0 0 0 0 0 0 0 0 0 0 0 0 0 0 0 0 0 0 0 0 0 0 0 0 0 0 0 0 0 0 0 0 0 0 0 0 0 0 0 0 0 0 0 0 0 0 0 0 0 0 0 0 0 0 0 0 0 0 0 0 0 0 0 0 0 0 0 0 0 0 0 0 0 0 0 0 0 0 0 0 0 0 0 0 0 0 0 0 0 0 0 0 0 0 0 0 0 0 0 0 0 0 0 0 0 0 0 0 0 0 0 0 0 0 0 0 0 0 0 0 0 0 0 0 
0 0 0 0 0 0 0 0 0 0 0 0 0 0 0 0 0 0 0 0 0 0 0 0 0 0 0 0 0 0 0 0 0 0 0 0 0 0 0 0 0 0 0 0 0 0 0 0 1.717939e-15 4.941187e-15 1.337435e-14 3.454840e-14 8.437676e-14 1.979023e-13 4.406539e-13 9.471408e-13 1.938370e-12 3.841372e-12 7.256022e-12 1.328900e-11 2.320333e-11 3.931042e-11 6.350285e-11 9.961255e-11 1.489970e-10 2.164490e-10 2.995946e-10 4.021078e-10 5.150771e-10 6.391805e-10 7.582621e-10 8.708016e-10 9.576051e-10 1.019010e-09 1.040123e-09 1.027308e-09 9.750260e-10 8.957651e-10 7.923239e-10 6.788713e-10 5.611533e-10 4.497961e-10 3.485713e-10 2.623097e-10 1.912821e-10 1.356834e-10 9.349431e-11 6.279380e-11 4.107746e-11 2.625258e-11 1.638801e-11 1.002057e-11 6.002999e-12 3.532921e-12 2.045668e-12 1.170710e-12 6.640069e-13 3.744629e-13 2.108753e-13 1.193719e-13 6.871500e-14 4.099998e-14 2.608348e-14 1.824688e-14 1.429353e-14 1.243254e-14 1.167263e-14 1.146016e-14 1.149634e-14 1.161697e-14 1.174005e-14 1.182236e-14 1.184622e-14 1.180245e-14 1.168888e-14 1.150366e-14 1.124703e-14 1.091907e-14 1.052179e-14 1.005840e-14 9.534592e-15 8.957876e-15 8.338025e-15 7.686246e-15 7.015089e-15 6.337405e-15 5.665987e-15 5.012583e-15 4.387692e-15 3.799867e-15 3.255779e-15 2.759866e-15 2.314655e-15 1.920689e-15 1.577012e-15 1.281263e-15 1.030179e-15 0 0 0 0 0 0 0 0 0 0 0 0 0 0 0 0 0 0 0 0 0 0 0 0 0 0 0 0 0 0 0 0 0 0 0 0 0 0 0 0 0 0 0 0 0 0 0 0 0 0 0 0 0 0 0 0 0 0 0 0 0 0 0 0 0 0 0 0 0 0 0 0 0 0 0 0 0 0 0 0 0 0 0 0 0 0 0 0 0 0 0 0 0 0 0 0 0 0 0 0 0 0 0 0 0 0 0 0 0 0 0 0 0 0 0 0 0 0 0 0 0 0 0 0 0 0 0 0 0 0 0 0 0 0 0 0 0 0 0 0 0 0 0 0 0 0 0 0 0 0 0 0 0 0 0 0 0 0 0 0 0 0 0 0 0 0 0 0 0 0 0 0 0 0 0 0 0 0 0 0 0 0 0 0 0 0 0 0 0 0 0 0 0 0 0 0 0 0 0 0 0 0 0 0 0 0 0 0 0 0 0 0 0 0 0 0 0 0 0 0 0 0 0 0 0 0 0 0 0 0 0 0 0 0 0 0 0 0 0 0 0 0 0 0 0 0 0 
0 0 0 0 0 0 0 0 0 0 0 0 0 0 0 0 0 0 0 0 0 0 0 0 0 0 0 0 0 0 0 0 0 0 0 0 0 0 0 0 0 0 0 0 0 0 1.275344e-15 4.036035e-15 1.196319e-14 3.360825e-14 8.892364e-14 2.246604e-13 5.371142e-13 1.233940e-12 2.693844e-12 5.680692e-12 1.141901e-11 2.224345e-11 4.135285e-11 7.460128e-11 1.284920e-10 2.149086e-10 3.432668e-10 5.327756e-10 7.897983e-10 1.137518e-09 1.563808e-09 2.085473e-09 2.658820e-09 3.284988e-09 3.885914e-09 4.451149e-09 4.888933e-09 5.197336e-09 5.306253e-09 5.243208e-09 4.983912e-09 4.586664e-09 4.067821e-09 3.495364e-09 2.899917e-09 2.333474e-09 1.816606e-09 1.373531e-09 1.006926e-09 7.181360e-10 4.977535e-10 3.363081e-10 2.213924e-10 1.423970e-10 8.948284e-11 5.508371e-11 3.322929e-11 1.969873e-11 1.151382e-11 6.656027e-12 3.815388e-12 2.173275e-12 1.232694e-12 6.981274e-13 3.963869e-13 2.272663e-13 1.333042e-13 8.181473e-14 5.428181e-14 4.025850e-14 3.384914e-14 3.172815e-14 3.200363e-14 3.358902e-14 3.583799e-14 3.835249e-14 4.086613e-14 4.319285e-14 4.519035e-14 4.675294e-14 4.779977e-14 4.827930e-14 4.816371e-14 4.745372e-14 4.617278e-14 4.436888e-14 4.210717e-14 3.946877e-14 3.654263e-14 3.342287e-14 3.020131e-14 2.696521e-14 2.379168e-14 2.074686e-14 1.788287e-14 1.523857e-14 1.283889e-14 1.069678e-14 8.814064e-15 7.183966e-15 5.792585e-15 4.621360e-15 3.648479e-15 2.850815e-15 2.204944e-15 1.688376e-15 1.280089e-15 0 0 0 0 0 0 0 0 0 0 0 0 0 0 0 0 0 0 0 0 0 0 0 0 0 0 0 0 0 0 0 0 0 0 0 0 0 0 0 0 0 0 0 0 0 0 0 0 0 0 0 0 0 0 0 0 0 0 0 0 0 0 0 0 0 0 0 0 0 0 0 0 0 0 0 0 0 0 0 0 0 0 0 0 0 0 0 0 0 0 0 0 0 0 0 0 0 0 0 0 0 0 0 0 0 0 0 0 0 0 0 0 0 0 0 0 0 0 0 0 0 0 0 0 0 0 0 0 0 0 0 0 0 0 0 0 0 0 0 0 0 0 0 0 0 0 0 0 0 0 0 0 0 0 0 0 0 0 0 0 0 0 0 0 0 0 0 0 0 0 0 0 0 0 0 0 0 0 0 0 0 0 0 0 0 0 0 0 0 0 0 0 0 0 0 0 0 0 0 0 0 0 0 0 0 0 0 0 0 0 0 0 0 0 0 0 0 0 0 0 0 0 0 0 0 0 0 0 0 0 0 0 0 0 0 0 0 0 0 0 0 
0 0 0 0 0 0 0 0 0 0 0 0 0 0 0 0 0 0 0 0 0 0 0 0 0 0 0 0 0 0 0 0 0 0 0 0 0 0 0 0 0 0 0 0 0 2.670979e-15 8.777142e-15 2.712538e-14 7.855972e-14 2.158219e-13 5.587501e-13 1.382369e-12 3.238475e-12 7.296060e-12 1.563150e-11 3.237473e-11 6.397315e-11 1.226019e-10 2.244967e-10 3.992476e-10 6.787657e-10 1.121541e-09 1.772241e-09 2.723372e-09 4.003053e-09 5.717890e-09 7.809352e-09 1.035054e-08 1.313674e-08 1.616281e-08 1.906824e-08 2.178925e-08 2.390665e-08 2.539329e-08 2.593445e-08 2.564043e-08 2.441169e-08 2.250643e-08 2.001528e-08 1.724883e-08 1.436407e-08 1.160342e-08 9.074844e-09 6.893833e-09 5.080594e-09 3.642878e-09 2.539650e-09 1.725931e-09 1.143236e-09 7.398701e-10 4.679712e-10 2.899623e-10 1.761432e-10 1.053296e-10 6.223020e-11 3.641291e-11 2.114676e-11 1.221037e-11 7.023255e-12 4.032444e-12 2.318766e-12 1.343025e-12 7.921880e-13 4.852585e-13 3.181724e-13 2.311746e-13 1.900300e-13 1.751115e-13 1.750964e-13 1.833924e-13 1.960281e-13 2.105368e-13 2.252554e-13 2.390253e-13 2.509619e-13 2.604153e-13 2.668918e-13 2.700801e-13 2.698152e-13 2.661017e-13 2.590829e-13 2.490412e-13 2.363637e-13 2.215220e-13 2.050375e-13 1.874509e-13 1.692949e-13 1.510645e-13 1.332028e-13 1.160799e-13 9.999231e-14 8.515328e-14 7.170282e-14 5.970741e-14 4.917604e-14 4.006519e-14 3.229584e-14 2.575994e-14 2.033483e-14 1.588860e-14 1.229023e-14 9.412716e-15 7.138907e-15 5.362426e-15 3.990125e-15 2.941428e-15 2.148626e-15 1.555412e-15 1.116086e-15 0 0 0 0 0 0 0 0 0 0 0 0 0 0 0 0 0 0 0 0 0 0 0 0 0 0 0 0 0 0 0 0 0 0 0 0 0 0 0 0 0 0 0 0 0 0 0 0 0 0 0 0 0 0 0 0 0 0 0 0 0 0 0 0 0 0 0 0 0 0 0 0 0 0 0 0 0 0 0 0 0 0 0 0 0 0 0 0 0 0 0 0 0 0 0 0 0 0 0 0 0 0 0 0 0 0 0 0 0 0 0 0 0 0 0 0 0 0 0 0 0 0 0 0 0 0 0 0 0 0 0 0 0 0 0 0 0 0 0 0 0 0 0 0 0 0 0 0 0 0 0 0 0 0 0 0 0 0 0 0 0 0 0 0 0 0 0 0 0 0 0 0 0 0 0 0 0 0 0 0 0 0 0 0 0 0 0 0 0 0 0 0 0 0 0 0 0 0 0 0 0 0 0 0 0 0 0 0 0 0 0 0 0 0 0 0 0 0 0 0 0 0 0 0 0 0 0 0 0 0 0 0 0 0 0 
0 0 0 0 0 0 0 0 0 0 0 0 0 0 0 0 0 0 0 0 0 0 0 0 0 0 0 0 0 0 0 0 0 0 0 0 0 0 0 0 0 0 0 1.389091e-15 5.128493e-15 1.764226e-14 5.657611e-14 1.707391e-13 4.834032e-13 1.299156e-12 3.293578e-12 7.984759e-12 1.834680e-11 4.056890e-11 8.538329e-11 1.738450e-10 3.380285e-10 6.379796e-10 1.151735e-09 2.021115e-09 3.394643e-09 5.545801e-09 8.675706e-09 1.320765e-08 1.925871e-08 2.729685e-08 3.705490e-08 4.883226e-08 6.171976e-08 7.564552e-08 8.902918e-08 1.015160e-07 1.112867e-07 1.181341e-07 1.207158e-07 1.194362e-07 1.139131e-07 1.052299e-07 9.385114e-08 8.112819e-08 6.781999e-08 5.500644e-08 4.322046e-08 3.299089e-08 2.444243e-08 1.762003e-08 1.235443e-08 8.444479e-09 5.627241e-09 3.663833e-09 2.331955e-09 1.454204e-09 8.903558e-10 5.380219e-10 3.216846e-10 1.907166e-10 1.123243e-10 6.581627e-11 3.842292e-11 2.238479e-11 1.304833e-11 7.647671e-12 4.550295e-12 2.797114e-12 1.826613e-12 1.311132e-12 1.059773e-12 9.615079e-13 9.513859e-13 9.911064e-13 1.057396e-12 1.135659e-12 1.216087e-12 1.291823e-12 1.357720e-12 1.409991e-12 1.445831e-12 1.463470e-12 1.462012e-12 1.441519e-12 1.402835e-12 1.347586e-12 1.277960e-12 1.196616e-12 1.106448e-12 1.010464e-12 9.115737e-13 8.124991e-13 7.156215e-13 6.229492e-13 5.360426e-13 4.560388e-13 3.836429e-13 3.191923e-13 2.626892e-13 2.138812e-13 1.723083e-13 1.373783e-13 1.084101e-13 8.469062e-14 6.550516e-14 5.017242e-14 3.805953e-14 2.859871e-14 2.128987e-14 1.570435e-14 1.148012e-14 8.318214e-15 5.974895e-15 4.255263e-15 3.005231e-15 2.105066e-15 1.462683e-15 1.008356e-15 0 0 0 0 0 0 0 0 0 0 0 0 0 0 0 0 0 0 0 0 0 0 0 0 0 0 0 0 0 0 0 0 0 0 0 0 0 0 0 0 0 0 0 0 0 0 0 0 0 0 0 0 0 0 0 0 0 0 0 0 0 0 0 0 0 0 0 0 0 0 0 0 0 0 0 0 0 0 0 0 0 0 0 0 0 0 0 0 0 0 0 0 0 0 0 0 0 0 0 0 0 0 0 0 0 0 0 0 0 0 0 0 0 0 0 0 0 0 0 0 0 0 0 0 0 0 0 0 0 0 0 0 0 0 0 0 0 0 0 0 0 0 0 0 0 0 0 0 0 0 0 0 0 0 0 0 0 0 0 0 0 0 0 0 0 0 0 0 0 0 0 0 0 0 0 0 0 0 0 0 0 0 0 0 0 0 0 0 0 0 0 0 0 0 0 0 0 0 0 0 0 0 0 0 0 0 0 0 0 0 0 0 0 0 0 0 0 0 0 0 0 0 0 0 0 0 0 0 0 0 
0 0 0 0 0 0 0 0 0 0 0 0 0 0 0 0 0 0 0 0 0 0 0 0 0 0 0 0 0 0 0 0 0 0 0 0 0 0 0 0 0 0 2.347292e-15 9.108956e-15 3.273876e-14 1.097471e-13 3.433334e-13 1.011981e-12 2.801328e-12 7.369244e-12 1.830299e-11 4.351640e-11 9.813272e-11 2.131636e-10 4.410145e-10 8.834493e-10 1.691380e-09 3.145960e-09 5.602268e-09 9.706372e-09 1.611289e-08 2.603884e-08 4.034047e-08 6.086796e-08 8.805071e-08 1.238538e-07 1.671131e-07 2.189822e-07 2.756272e-07 3.365327e-07 3.951282e-07 4.496049e-07 4.924812e-07 5.224967e-07 5.342399e-07 5.290232e-07 5.055098e-07 4.679622e-07 4.186285e-07 3.630541e-07 3.047323e-07 2.482061e-07 1.959836e-07 1.503507e-07 1.120127e-07 8.120011e-08 5.727575e-08 3.938262e-08 2.640842e-08 1.730151e-08 1.108454e-08 6.960946e-09 4.307453e-09 2.634136e-09 1.596168e-09 9.600141e-10 5.740047e-10 3.415257e-10 2.024375e-10 1.196707e-10 7.071006e-11 4.193384e-11 2.517416e-11 1.553862e-11 1.011661e-11 7.178917e-12 5.703684e-12 5.087163e-12 4.971751e-12 5.143751e-12 5.472021e-12 5.873710e-12 6.292987e-12 6.690948e-12 7.038572e-12 7.314745e-12 7.503998e-12 7.596723e-12 7.588232e-12 7.479018e-12 7.273941e-12 6.981898e-12 6.614888e-12 6.187161e-12 5.714293e-12 5.212132e-12 4.696117e-12 4.180347e-12 3.677274e-12 3.197097e-12 2.747842e-12 2.335097e-12 1.962383e-12 1.631152e-12 1.341293e-12 1.091273e-12 8.786355e-13 7.001774e-13 5.523515e-13 4.314065e-13 3.336610e-13 2.555792e-13 1.939237e-13 1.457719e-13 1.085774e-13 8.014549e-14 5.863792e-14 4.252940e-14 3.058428e-14 2.181007e-14 1.542603e-14 1.082284e-14 7.533720e-15 5.203688e-15 3.567298e-15 2.427439e-15 1.639963e-15 1.100154e-15 0 0 0 0 0 0 0 0 0 0 0 0 0 0 0 0 0 0 0 0 0 0 0 0 0 0 0 0 0 0 0 0 0 0 0 0 0 0 0 0 0 0 0 0 0 0 0 0 0 0 0 0 0 0 0 0 0 0 0 0 0 0 0 0 0 0 0 0 0 0 0 0 0 0 0 0 0 0 0 0 0 0 0 0 0 0 0 0 0 0 0 0 0 0 0 0 0 0 0 0 0 0 0 0 0 0 0 0 0 0 0 0 0 0 0 0 0 0 0 0 0 0 0 0 0 0 0 0 0 0 0 0 0 0 0 0 0 0 0 0 0 0 0 0 0 0 0 0 0 0 0 0 0 0 0 0 0 0 0 0 0 0 0 0 0 0 0 0 0 0 0 0 0 0 0 0 0 0 0 0 0 0 0 0 0 0 0 0 0 0 0 0 0 0 0 0 0 0 0 0 0 0 0 0 0 0 0 0 0 0 0 0 0 0 0 0 0 0 0 0 0 0 0 0 0 0 
0 0 0 0 0 0 0 0 0 0 0 0 0 0 0 0 0 0 0 0 0 0 0 0 0 0 0 0 0 0 0 0 0 0 0 0 0 0 0 0 0 3.658938e-15 1.494561e-14 5.626576e-14 1.965192e-13 6.407666e-13 1.953525e-12 5.618099e-12 1.519990e-11 3.912574e-11 9.521886e-11 2.220593e-10 4.917106e-10 1.049758e-09 2.136425e-09 4.213555e-09 7.948895e-09 1.458164e-08 2.563369e-08 4.388095e-08 7.204328e-08 1.152307e-07 1.768785e-07 2.645845e-07 3.798275e-07 5.303856e-07 7.114860e-07 9.272392e-07 1.162444e-06 1.414141e-06 1.656621e-06 1.881366e-06 2.059393e-06 2.184078e-06 2.234854e-06 2.215336e-06 2.121231e-06 1.968284e-06 1.766508e-06 1.537410e-06 1.296000e-06 1.060408e-06 8.416400e-07 6.491328e-07 4.864255e-07 3.547009e-07 2.517459e-07 1.741754e-07 1.175445e-07 7.750695e-08 4.999455e-08 3.169707e-08 1.984558e-08 1.230152e-08 7.564019e-09 4.619677e-09 2.805591e-09 1.695440e-09 1.020218e-09 6.118183e-10 3.663312e-10 2.198185e-10 1.331910e-10 8.263385e-11 5.372218e-11 3.775689e-11 2.951581e-11 2.587157e-11 2.494581e-11 2.560147e-11 2.713368e-11 2.909234e-11 3.117422e-11 3.316704e-11 3.491469e-11 3.630356e-11 3.725240e-11 3.771100e-11 3.765616e-11 3.709169e-11 3.604419e-11 3.456102e-11 3.270473e-11 3.054933e-11 2.817421e-11 2.566026e-11 2.308465e-11 2.051815e-11 1.802176e-11 1.564575e-11 1.342834e-11 1.139637e-11 9.565543e-12 7.942168e-12 6.524241e-12 5.303540e-12 4.266945e-12 3.398318e-12 2.679623e-12 2.092301e-12 1.618005e-12 1.239418e-12 9.405894e-13 7.073005e-13 5.270965e-13 3.893465e-13 2.851034e-13 2.069984e-13 1.490356e-13 1.064269e-13 7.538953e-14 5.298477e-14 3.695152e-14 2.557638e-14 1.757251e-14 1.198682e-14 8.119229e-15 5.462078e-15 3.650080e-15 2.423517e-15 1.599058e-15 1.048728e-15 0 0 0 0 0 0 0 0 0 0 0 0 0 0 0 0 0 0 0 0 0 0 0 0 0 0 0 0 0 0 0 0 0 0 0 0 0 0 0 0 0 0 0 0 0 0 0 0 0 0 0 0 0 0 0 0 0 0 0 0 0 0 0 0 0 0 0 0 0 0 0 0 0 0 0 0 0 0 0 0 0 0 0 0 0 0 0 0 0 0 0 0 0 0 0 0 0 0 0 0 0 0 0 0 0 0 0 0 0 0 0 0 0 0 0 0 0 0 0 0 0 0 0 0 0 0 0 0 0 0 0 0 0 0 0 0 0 0 0 0 0 0 0 0 0 0 0 0 0 0 0 0 0 0 0 0 0 0 0 0 0 0 0 0 0 0 0 0 0 0 0 0 0 0 0 0 0 0 0 0 0 0 0 0 0 0 0 0 0 0 0 0 0 0 0 0 0 0 0 0 0 0 0 0 0 0 0 0 0 0 0 0 0 0 0 0 0 0 0 0 0 0 
0 0 0 0 0 0 0 0 0 0 0 0 0 0 0 0 0 0 0 0 0 0 0 0 0 0 0 0 0 0 0 0 0 0 0 0 0 0 0 1.127935e-15 5.344858e-15 2.296168e-14 9.068160e-14 3.302652e-13 1.117880e-12 3.538021e-12 1.049239e-11 2.940741e-11 7.768808e-11 1.956040e-10 4.663158e-10 1.066865e-09 2.320008e-09 4.870098e-09 9.752896e-09 1.894693e-08 3.523230e-08 6.376851e-08 1.106937e-07 1.872788e-07 3.041488e-07 4.815910e-07 7.325117e-07 1.086270e-06 1.547300e-06 2.144624e-06 2.859659e-06 3.705938e-06 4.626647e-06 5.607242e-06 6.553119e-06 7.427327e-06 8.124418e-06 8.613304e-06 8.820784e-06 8.753942e-06 8.400757e-06 7.815053e-06 7.038639e-06 6.149381e-06 5.208086e-06 4.282470e-06 3.418176e-06 2.651699e-06 1.999650e-06 1.467482e-06 1.048577e-06 7.303676e-07 4.963626e-07 3.296193e-07 2.144337e-07 1.376079e-07 8.735734e-08 5.495881e-08 3.432284e-08 2.129592e-08 1.313867e-08 8.062258e-09 4.923425e-09 2.993916e-09 1.816139e-09 1.102581e-09 6.745135e-10 4.209341e-10 2.736200e-10 1.907302e-10 1.468179e-10 1.264066e-10 1.200849e-10 1.220749e-10 1.287559e-10 1.377945e-10 1.476111e-10 1.571015e-10 1.654571e-10 1.720959e-10 1.766070e-10 1.787407e-10 1.783878e-10 1.755734e-10 1.704385e-10 1.632221e-10 1.542394e-10 1.438538e-10 1.324563e-10 1.204357e-10 1.081650e-10 9.597734e-11 8.416178e-11 7.294896e-11 6.251582e-11 5.298007e-11 4.441088e-11 3.682964e-11 3.022276e-11 2.454532e-11 1.973305e-11 1.570632e-11 1.237938e-11 9.663331e-12 7.472152e-12 5.724155e-12 4.345208e-12 3.268863e-12 2.437566e-12 1.801946e-12 1.320809e-12 9.600691e-13 6.921774e-13 4.950358e-13 3.512770e-13 2.473485e-13 1.728651e-13 1.199219e-13 8.259949e-14 5.649390e-14 3.837695e-14 2.589679e-14 1.736335e-14 1.156917e-14 7.662424e-15 5.045499e-15 3.304025e-15 2.152168e-15 1.394913e-15 0 0 0 0 0 0 0 0 0 0 0 0 0 0 0 0 0 0 0 0 0 0 0 0 0 0 0 0 0 0 0 0 0 0 0 0 0 0 0 0 0 0 0 0 0 0 0 0 0 0 0 0 0 0 0 0 0 0 0 0 0 0 0 0 0 0 0 0 0 0 0 0 0 0 0 0 0 0 0 0 0 0 0 0 0 0 0 0 0 0 0 0 0 0 0 0 0 0 0 0 0 0 0 0 0 0 0 0 0 0 0 0 0 0 0 0 0 0 0 0 0 0 0 0 0 0 0 0 0 0 0 0 0 0 0 0 0 0 0 0 0 0 0 0 0 0 0 0 0 0 0 0 0 0 0 0 0 0 0 0 0 0 0 0 0 0 0 0 0 0 0 0 0 0 0 0 0 0 0 0 0 0 0 0 0 0 0 0 0 0 0 0 0 0 0 0 0 0 0 0 0 0 0 0 0 0 0 0 0 0 0 0 0 0 0 0 0 0 0 
0 0 0 0 0 0 0 0 0 0 0 0 0 0 0 0 0 0 0 0 0 0 0 0 0 0 0 0 0 0 0 0 0 0 0 0 0 0 1.457202e-15 7.337661e-15 3.351027e-14 1.384139e-13 5.262159e-13 1.845247e-12 6.029367e-12 1.845147e-11 5.307365e-11 1.445847e-10 3.723000e-10 9.155184e-10 2.136249e-09 4.791837e-09 1.023182e-08 2.111831e-08 4.162535e-08 7.967888e-08 1.461089e-07 2.610408e-07 4.476551e-07 7.488693e-07 1.203524e-06 1.887043e-06 2.844724e-06 4.181892e-06 5.911231e-06 8.132967e-06 1.077971e-05 1.389141e-05 1.727018e-05 2.085196e-05 2.431210e-05 2.750261e-05 3.006521e-05 3.186834e-05 3.266818e-05 3.246659e-05 3.123398e-05 2.914107e-05 2.634744e-05 2.311738e-05 1.967869e-05 1.626966e-05 1.306545e-05 1.020020e-05 7.744395e-06 5.722789e-06 4.118624e-06 2.889540e-06 1.978424e-06 1.324113e-06 8.718246e-07 5.670671e-07 3.653124e-07 2.334093e-07 1.480863e-07 9.334070e-08 5.847914e-08 3.642123e-08 2.255925e-08 1.390547e-08 8.543780e-09 5.248529e-09 3.243225e-09 2.038080e-09 1.327033e-09 9.197824e-10 6.988129e-10 5.916976e-10 5.537512e-10 5.571739e-10 5.843394e-10 6.237584e-10 6.676322e-10 7.104792e-10 7.483305e-10 7.783330e-10 7.985189e-10 8.077065e-10 8.054154e-10 7.918062e-10 7.675897e-10 7.339333e-10 6.923397e-10 6.445308e-10 5.923203e-10 5.375107e-10 4.817909e-10 4.266727e-10 3.734316e-10 3.230894e-10 2.763980e-10 2.338591e-10 1.957381e-10 1.621051e-10 1.328630e-10 1.077924e-10 8.658191e-11 6.886633e-11 5.424994e-11 4.233368e-11 3.272915e-11 2.507406e-11 1.903796e-11 1.432848e-11 1.069119e-11 7.909999e-12 5.803800e-12 4.223895e-12 3.049574e-12 2.184597e-12 1.552997e-12 1.095773e-12 7.675094e-13 5.337606e-13 3.686166e-13 2.528484e-13 1.722950e-13 1.166570e-13 7.849692e-14 5.250564e-14 3.491881e-14 2.309592e-14 1.519628e-14 9.949636e-15 6.484398e-15 4.208154e-15 2.720355e-15 1.752547e-15 1.125667e-15 0 0 0 0 0 0 0 0 0 0 0 0 0 0 0 0 0 0 0 0 0 0 0 0 0 0 0 0 0 0 0 0 0 0 0 0 0 0 0 0 0 0 0 0 0 0 0 0 0 0 0 0 0 0 0 0 0 0 0 0 0 0 0 0 0 0 0 0 0 0 0 0 0 0 0 0 0 0 0 0 0 0 0 0 0 0 0 0 0 0 0 0 0 0 0 0 0 0 0 0 0 0 0 0 0 0 0 0 0 0 0 0 0 0 0 0 0 0 0 0 0 0 0 0 0 0 0 0 0 0 0 0 0 0 0 0 0 0 0 0 0 0 0 0 0 0 0 0 0 0 0 0 0 0 0 0 0 0 0 0 0 0 0 0 0 0 0 0 0 0 0 0 0 0 0 0 0 0 0 0 0 0 0 0 0 0 0 0 0 0 0 0 0 0 0 0 0 0 0 0 0 0 0 0 0 0 0 0 0 0 0 0 0 0 0 
0 0 0 0 0 0 0 0 0 0 0 0 0 0 0 0 0 0 0 0 0 0 0 0 0 0 0 0 0 0 0 0 0 0 0 0 0 1.760541e-15 9.696955e-15 4.692595e-14 2.055223e-13 8.122310e-13 2.956862e-12 9.933719e-12 3.117750e-11 9.185138e-11 2.552136e-10 6.735973e-10 1.685968e-09 4.041430e-09 9.215849e-09 2.024981e-08 4.242742e-08 8.608139e-08 1.669625e-07 3.149197e-07 5.694321e-07 1.004280e-06 1.701283e-06 2.813924e-06 4.474566e-06 6.946517e-06 1.037668e-05 1.511467e-05 2.119268e-05 2.893196e-05 3.810175e-05 4.880724e-05 6.040444e-05 7.264093e-05 8.447884e-05 9.537359e-05 1.041921e-04 1.104281e-04 1.133267e-04 1.128134e-04 1.088326e-04 1.018755e-04 9.250773e-05 8.155695e-05 6.982068e-05 5.807657e-05 4.695557e-05 3.691663e-05 2.824033e-05 2.102828e-05 1.525485e-05 1.078851e-05 7.449217e-06 5.035879e-06 3.361104e-06 2.219238e-06 1.452320e-06 9.428071e-07 6.077212e-07 3.890153e-07 2.473976e-07 1.563059e-07 9.816421e-08 6.131621e-08 3.815694e-08 2.371992e-08 1.481118e-08 9.379541e-09 6.126232e-09 4.230400e-09 3.178707e-09 2.649744e-09 2.442679e-09 2.430692e-09 2.532421e-09 2.694260e-09 2.879575e-09 3.062605e-09 3.224748e-09 3.352772e-09 3.437676e-09 3.474183e-09 3.460313e-09 3.396988e-09 3.287657e-09 3.137703e-09 2.954015e-09 2.744271e-09 2.516559e-09 2.278711e-09 2.038082e-09 1.801069e-09 1.573093e-09 1.358334e-09 1.159887e-09 9.796712e-10 8.186883e-10 6.770449e-10 5.542236e-10 4.491569e-10 3.604599e-10 2.865037e-10 2.255863e-10 1.759813e-10 1.360449e-10 1.042361e-10 7.917040e-11 5.961707e-11 4.451737e-11 3.296799e-11 2.421850e-11 1.765008e-11 1.276378e-11 9.160061e-12 6.525218e-12 4.614492e-12 3.240258e-12 2.259540e-12 1.565110e-12 1.077005e-12 7.364533e-13 5.004945e-13 3.381410e-13 2.271562e-13 1.517795e-13 1.008938e-13 6.674713e-14 4.395851e-14 2.883217e-14 1.884043e-14 1.227154e-14 7.970627e-15 5.165627e-15 3.342075e-15 2.160008e-15 1.395372e-15 0 0 0 0 0 0 0 0 0 0 0 0 0 0 0 0 0 0 0 0 0 0 0 0 0 0 0 0 0 0 0 0 0 0 0 0 0 0 0 0 0 0 0 0 0 0 0 0 0 0 0 0 0 0 0 0 0 0 0 0 0 0 0 0 0 0 0 0 0 0 0 0 0 0 0 0 0 0 0 0 0 0 0 0 0 0 0 0 0 0 0 0 0 0 0 0 0 0 0 0 0 0 0 0 0 0 0 0 0 0 0 0 0 0 0 0 0 0 0 0 0 0 0 0 0 0 0 0 0 0 0 0 0 0 0 0 0 0 0 0 0 0 0 0 0 0 0 0 0 0 0 0 0 0 0 0 0 0 0 0 0 0 0 0 0 0 0 0 0 0 0 0 0 0 0 0 0 0 0 0 0 0 0 0 0 0 0 0 0 0 0 0 0 0 0 0 0 0 0 0 0 0 0 0 0 0 0 0 0 0 0 0 
0 0 0 0 0 0 0 0 0 0 0 0 0 0 0 0 0 0 0 0 0 0 0 0 0 0 0 0 0 0 0 0 0 0 0 0 2.011015e-15 1.209050e-14 6.425622e-14 2.971453e-13 1.241754e-12 4.666137e-12 1.617490e-11 5.173452e-11 1.550681e-10 4.371676e-10 1.167247e-09 2.970056e-09 7.197340e-09 1.676081e-08 3.725966e-08 8.004278e-08 1.643546e-07 3.275125e-07 6.248215e-07 1.161020e-06 2.070052e-06 3.604204e-06 6.032096e-06 9.865559e-06 1.552293e-05 2.385810e-05 3.530766e-05 5.094874e-05 7.084970e-05 9.595354e-05 1.255309e-04 1.598124e-04 1.968643e-04 2.357825e-04 2.735018e-04 3.081808e-04 3.365000e-04 3.566883e-04 3.665692e-04 3.656659e-04 3.539055e-04 3.325688e-04 3.034726e-04 2.690209e-04 2.317731e-04 1.941050e-04 1.581087e-04 1.252725e-04 9.661475e-05 7.254028e-05 5.307449e-05 3.786154e-05 2.638507e-05 1.807312e-05 1.223747e-05 8.204450e-06 5.453919e-06 3.596448e-06 2.354010e-06 1.529400e-06 9.866275e-07 6.320263e-07 4.022720e-07 2.545670e-07 1.604222e-07 1.009264e-07 6.370301e-08 4.069105e-08 2.670443e-08 1.842186e-08 1.373407e-08 1.130271e-08 1.027883e-08 1.011894e-08 1.046979e-08 1.109572e-08 1.183488e-08 1.257270e-08 1.322715e-08 1.374003e-08 1.407270e-08 1.420293e-08 1.412330e-08 1.383890e-08 1.336555e-08 1.272717e-08 1.195349e-08 1.107739e-08 1.013267e-08 9.151966e-09 8.165139e-09 7.198148e-09 6.272291e-09 5.403998e-09 4.604812e-09 3.881842e-09 3.238187e-09 2.673702e-09 2.185581e-09 1.769139e-09 1.418349e-09 1.126473e-09 8.864444e-10 6.912900e-10 5.343395e-10 4.094528e-10 3.110901e-10 2.343924e-10 1.751618e-10 1.298533e-10 9.550949e-11 6.971078e-11 5.049817e-11 3.631247e-11 2.592414e-11 1.837838e-11 1.293993e-11 9.050446e-12 6.289189e-12 4.343163e-12 2.981170e-12 2.034461e-12 1.380670e-12 9.320480e-13 6.260520e-13 4.185624e-13 2.786311e-13 1.847580e-13 1.220833e-13 8.042849e-14 5.285379e-14 3.466677e-14 2.270744e-14 1.486371e-14 9.728722e-15 6.371552e-15 4.177793e-15 2.744207e-15 1.806536e-15 1.192361e-15 0 0 0 0 0 0 0 0 0 0 0 0 0 0 0 0 0 0 0 0 0 0 0 0 0 0 0 0 0 0 0 0 0 0 0 0 0 0 0 0 0 0 0 0 0 0 0 0 0 0 0 0 0 0 0 0 0 0 0 0 0 0 0 0 0 0 0 0 0 0 0 0 0 0 0 0 0 0 0 0 0 0 0 0 0 0 0 0 0 0 0 0 0 0 0 0 0 0 0 0 0 0 0 0 0 0 0 0 0 0 0 0 0 0 0 0 0 0 0 0 0 0 0 0 0 0 0 0 0 0 0 0 0 0 0 0 0 0 0 0 0 0 0 0 0 0 0 0 0 0 0 0 0 0 0 0 0 0 0 0 0 0 0 0 0 0 0 0 0 0 0 0 0 0 0 0 0 0 0 0 0 0 0 0 0 0 0 0 0 0 0 0 0 0 0 0 0 0 0 0 0 0 0 0 0 0 0 0 
0 0 0 0 0 0 0 0 0 0 0 0 0 0 0 0 0 0 0 0 0 0 0 0 0 0 0 0 0 0 0 0 0 0 0 2.048058e-15 1.437183e-14 8.382772e-14 4.284212e-13 1.884701e-12 7.474569e-12 2.656677e-11 8.720674e-11 2.641075e-10 7.516079e-10 2.015821e-09 5.141168e-09 1.254160e-08 2.927440e-08 6.594888e-08 1.424121e-07 2.983296e-07 5.990873e-07 1.170966e-06 2.194970e-06 4.015509e-06 7.055427e-06 1.212198e-05 2.003321e-05 3.238292e-05 5.039084e-05 7.664066e-05 1.122783e-04 1.603948e-04 2.210562e-04 2.968099e-04 3.854978e-04 4.875168e-04 5.974960e-04 7.125200e-04 8.242366e-04 9.269506e-04 1.011687e-03 1.072788e-03 1.104455e-03 1.104569e-03 1.073159e-03 1.013111e-03 9.297793e-04 8.294941e-04 7.198639e-04 6.075567e-04 4.990578e-04 3.988451e-04 3.103996e-04 2.351899e-04 1.737027e-04 1.251067e-04 8.813057e-05 6.123927e-05 4.210802e-05 2.867581e-05 1.936193e-05 1.296340e-05 8.611334e-06 5.674878e-06 3.711748e-06 2.409702e-06 1.553954e-06 9.960281e-07 6.355674e-07 4.046505e-07 2.582327e-07 1.664634e-07 1.098998e-07 7.588397e-08 5.627755e-08 4.583269e-08 4.117738e-08 4.011889e-08 4.121377e-08 4.348748e-08 4.626491e-08 4.906713e-08 5.155166e-08 5.347811e-08 5.468929e-08 5.509792e-08 5.467875e-08 5.345741e-08 5.150337e-08 4.891643e-08 4.581943e-08 4.234418e-08 3.862581e-08 3.479113e-08 3.095616e-08 2.721852e-08 2.365839e-08 2.033489e-08 1.728946e-08 1.454515e-08 1.211110e-08 9.983312e-09 8.149099e-09 6.588277e-09 5.276775e-09 4.187671e-09 3.293693e-09 2.567821e-09 1.984775e-09 1.521185e-09 1.156292e-09 8.718130e-10 6.521368e-10 4.840249e-10 3.565330e-10 2.606686e-10 1.892022e-10 1.363541e-10 9.759089e-11 6.937607e-11 4.899715e-11 3.438422e-11 2.398203e-11 1.662755e-11 1.146334e-11 7.860104e-12 5.361969e-12 3.640117e-12 2.460214e-12 1.655934e-12 1.110532e-12 7.423692e-13 4.949412e-13 3.292710e-13 2.187262e-13 1.451606e-13 9.631667e-14 6.393252e-14 4.248206e-14 2.827388e-14 1.885829e-14 1.260983e-14 8.455563e-15 5.686328e-15 3.835117e-15 2.593427e-15 1.757871e-15 1.193691e-15 0 0 0 0 0 0 0 0 0 0 0 0 0 0 0 0 0 0 0 0 0 0 0 0 0 0 0 0 0 0 0 0 0 0 0 0 0 0 0 0 0 0 0 0 0 0 0 0 0 0 0 0 0 0 0 0 0 0 0 0 0 0 0 0 0 0 0 0 0 0 0 0 0 0 0 0 0 0 0 0 0 0 0 0 0 0 0 0 0 0 0 0 0 0 0 0 0 0 0 0 0 0 0 0 0 0 0 0 0 0 0 0 0 0 0 0 0 0 0 0 0 0 0 0 0 0 0 0 0 0 0 0 0 0 0 0 0 0 0 0 0 0 0 0 0 0 0 0 0 0 0 0 0 0 0 0 0 0 0 0 0 0 0 0 0 0 0 0 0 0 0 0 0 0 0 0 0 0 0 0 0 0 0 0 0 0 0 0 0 0 0 0 0 0 0 0 0 0 0 0 0 0 0 0 
0 0 0 0 0 0 0 0 0 0 0 0 0 0 0 0 0 0 0 0 0 0 0 0 0 0 0 0 0 0 0 0 0 0 1.862761e-15 1.500498e-14 1.043120e-13 5.885224e-13 2.884302e-12 1.199610e-11 4.491241e-11 1.500582e-10 4.640901e-10 1.323574e-09 3.557826e-09 9.024244e-09 2.185304e-08 5.078044e-08 1.134833e-07 2.459103e-07 5.133827e-07 1.044571e-06 2.045318e-06 3.912486e-06 7.194819e-06 1.294524e-05 2.239962e-05 3.796012e-05 6.192745e-05 9.890757e-05 1.521624e-04 2.288882e-04 3.317997e-04 4.690540e-04 6.404333e-04 8.521764e-04 1.098456e-03 1.379584e-03 1.681947e-03 1.997001e-03 2.303912e-03 2.586567e-03 2.822646e-03 2.995707e-03 3.091380e-03 3.102057e-03 3.028050e-03 2.874780e-03 2.656300e-03 2.387757e-03 2.089671e-03 1.779412e-03 1.475441e-03 1.190537e-03 9.356505e-04 7.159255e-04 5.340148e-04 3.885555e-04 2.771442e-04 1.953497e-04 1.363282e-04 9.424076e-05 6.457929e-05 4.386729e-05 2.955050e-05 1.973988e-05 1.308228e-05 8.603401e-06 5.618648e-06 3.646485e-06 2.355300e-06 1.517339e-06 9.790222e-07 6.372281e-07 4.237276e-07 2.935345e-07 2.172752e-07 1.757595e-07 1.564645e-07 1.511324e-07 1.542498e-07 1.620454e-07 1.718873e-07 1.818963e-07 1.907367e-07 1.974754e-07 2.015181e-07 2.025458e-07 2.004861e-07 1.954620e-07 1.877609e-07 1.777820e-07 1.660006e-07 1.529218e-07 1.390494e-07 1.248534e-07 1.107515e-07 9.709392e-08 8.415739e-08 7.214484e-08 6.118906e-08 5.136100e-08 4.267824e-08 3.511655e-08 2.861899e-08 2.310675e-08 1.848658e-08 1.465893e-08 1.152275e-08 8.980610e-09 6.941029e-09 5.321001e-09 4.046523e-09 3.053309e-09 2.286255e-09 1.699122e-09 1.253531e-09 9.182038e-10 6.678866e-10 4.825176e-10 3.462910e-10 2.469342e-10 1.749895e-10 1.232648e-10 8.632838e-11 6.012816e-11 4.166024e-11 2.872306e-11 1.971244e-11 1.347186e-11 9.171941e-12 6.223806e-12 4.211348e-12 2.843227e-12 1.916353e-12 1.290337e-12 8.684977e-13 5.847568e-13 3.940875e-13 2.660095e-13 1.799312e-13 1.220163e-13 8.297454e-14 5.659266e-14 3.871140e-14 2.655278e-14 1.825626e-14 1.257622e-14 8.674861e-15 5.987977e-15 4.133268e-15 2.851105e-15 1.963959e-15 1.350150e-15 0 0 0 0 0 0 0 0 0 0 0 0 0 0 0 0 0 0 0 0 0 0 0 0 0 0 0 0 0 0 0 0 0 0 0 0 0 0 0 0 0 0 0 0 0 0 0 0 0 0 0 0 0 0 0 0 0 0 0 0 0 0 0 0 0 0 0 0 0 0 0 0 0 0 0 0 0 0 0 0 0 0 0 0 0 0 0 0 0 0 0 0 0 0 0 0 0 0 0 0 0 0 0 0 0 0 0 0 0 0 0 0 0 0 0 0 0 0 0 0 0 0 0 0 0 0 0 0 0 0 0 0 0 0 0 0 0 0 0 0 0 0 0 0 0 0 0 0 0 0 0 0 0 0 0 0 0 0 0 0 0 0 0 0 0 0 0 0 0 0 0 0 0 0 0 0 0 0 0 0 0 0 0 0 0 0 0 0 0 0 0 0 0 0 0 0 0 0 0 0 
0 0 0 0 0 0 0 0 0 0 0 0 0 0 0 0 0 0 0 0 0 0 0 0 0 0 0 0 0 0 0 0 0 1.382983e-15 1.378920e-14 1.116581e-13 7.709407e-13 4.205651e-12 1.970988e-11 7.715328e-11 2.711284e-10 8.470129e-10 2.455827e-09 6.568073e-09 1.660799e-08 3.966830e-08 9.075218e-08 1.997557e-07 4.247605e-07 8.799516e-07 1.765686e-06 3.472477e-06 6.602222e-06 1.232259e-05 2.217664e-05 3.917832e-05 6.666866e-05 1.113226e-04 1.790922e-04 2.823584e-04 4.290583e-04 6.377046e-04 9.137881e-04 1.277125e-03 1.725938e-03 2.274177e-03 2.907314e-03 3.624479e-03 4.394137e-03 5.193711e-03 5.975686e-03 6.698475e-03 7.311254e-03 7.770380e-03 8.043133e-03 8.105548e-03 7.958446e-03 7.608303e-03 7.088288e-03 6.429822e-03 5.683519e-03 4.890246e-03 4.098967e-03 3.343492e-03 2.656440e-03 2.054430e-03 1.548906e-03 1.139474e-03 8.236055e-04 5.887669e-04 4.168503e-04 2.923037e-04 2.031261e-04 1.398590e-04 9.546153e-05 6.458712e-05 4.334274e-05 2.885500e-05 1.907408e-05 1.252725e-05 8.186980e-06 5.334491e-06 3.479363e-06 2.286737e-06 1.532546e-06 1.066661e-06 7.899179e-07 6.364809e-07 5.628454e-07 5.398581e-07 5.477989e-07 5.730009e-07 6.058401e-07 6.394210e-07 6.688511e-07 6.907529e-07 7.030219e-07 7.045861e-07 6.952880e-07 6.756697e-07 6.468626e-07 6.103605e-07 5.679157e-07 5.213316e-07 4.723958e-07 4.227251e-07 3.737510e-07 3.266290e-07 2.822699e-07 2.413029e-07 2.041337e-07 1.709416e-07 1.417447e-07 1.164121e-07 9.472140e-08 7.637420e-08 6.103892e-08 4.836208e-08 3.799655e-08 2.960678e-08 2.288457e-08 1.754929e-08 1.335471e-08 1.008614e-08 7.561759e-09 5.628399e-09 4.160109e-09 3.053806e-09 2.226861e-09 1.613334e-09 1.161560e-09 8.312257e-10 5.913933e-10 4.184113e-10 2.944686e-10 2.062031e-10 1.437269e-10 9.974937e-11 6.896248e-11 4.751461e-11 3.264343e-11 2.237392e-11 1.530912e-11 1.046360e-11 7.149027e-12 4.885671e-12 3.342129e-12 2.289785e-12 1.572161e-12 1.082186e-12 7.470688e-13 5.172692e-13 3.592347e-13 2.501734e-13 1.746509e-13 1.221619e-13 8.556522e-14 5.997175e-14 4.203369e-14 2.943885e-14 2.058891e-14 1.436908e-14 1.000141e-14 6.938552e-15 4.795747e-15 3.300763e-15 2.261509e-15 1.541868e-15 1.045831e-15 0 0 0 0 0 0 0 0 0 0 0 0 0 0 0 0 0 0 0 0 0 0 0 0 0 0 0 0 0 0 0 0 0 0 0 0 0 0 0 0 0 0 0 0 0 0 0 0 0 0 0 0 0 0 0 0 0 0 0 0 0 0 0 0 0 0 0 0 0 0 0 0 0 0 0 0 0 0 0 0 0 0 0 0 0 0 0 0 0 0 0 0 0 0 0 0 0 0 0 0 0 0 0 0 0 0 0 0 0 0 0 0 0 0 0 0 0 0 0 0 0 0 0 0 0 0 0 0 0 0 0 0 0 0 0 0 0 0 0 0 0 0 0 0 0 0 0 0 0 0 0 0 0 0 0 0 0 0 0 0 0 0 0 0 0 0 0 0 0 0 0 0 0 0 0 0 0 0 0 0 0 0 0 0 0 0 0 0 0 0 0 0 0 0 0 