# vtk DataFile Version 2.0
Comment goes here
ASCII

DATASET STRUCTURED_POINTS
FIELD FieldData 1
TIME 1 1 double
1.25000000
DIMENSIONS    384   64   1

ORIGIN    0.000   0.000   0.000
SPACING   0.078125 0.078125   1.000

POINT_DATA   24576
SCALARS Concentration double
LOOKUP_TABLE default

0 0 0 0 0 0 0 0 0 0 0 0 0 0 0 0 0 0 0 0 0 0 0 0 0 0 0 0 0 0 0 0 0 0 0 0 0 0 0 0 0 0 0 0 0 0 0 0 0 0 0 0 0 0 0 0 0 0 0 0 0 0 0 0 0 0 0 0 0 0 0 0 0 0 0 0 0 0 0 0 0 0 0 0 0 0 0 0 0 0 0 0 0 0 0 0 0 0 0 0 0 0 0 0 0 0 0 0 0 0 0 0 0 0 0 0 0 0 0 0 0 0 0 0 0 0 0 0 0 0 0 0 0 0 0 0 0 0 0 0 0 0 0 0 0 0 0 0 0 0 0 0 0 0 0 0 0 0 0 0 0 0 0 0 0 0 0 0 0 0 0 0 0 0 0 0 0 0 0 0 0 0 0 0 0 0 0 0 0 0 0 0 0 0 0 0 0 0 0 0 0 0 0 0 0 0 0 0 0 0 0 0 0 0 0 0 0 0 0 0 0 0 0 0 0 0 0 0 0 0 0 0 0 0 0 0 0 0 0 0 0 0 0 0 0 0 0 0 0 0 0 0 0 0 0 0 0 0 0 0 0 0 0 0 0 0 0 0 0 0 0 0 0 0 0 0 0 0 0 0 0 0 0 0 0 0 0 0 0 0 0 0 0 0 0 0 0 0 0 0 0 0 0 0 0 0 0 0 0 0 0 0 0 0 0 0 0 0 0 0 0 0 0 0 0 0 0 0 0 0 0 0 0 0 0 0 0 0 0 0 0 0 0 0 0 0 0 0 0 0 0 0 0 0 0 0 0 0 0 0 0 0 0 0 0 0 0 0 0 0 0 0 0 0 0 0 0 0 0 0 0 0 0 0 
0 0 0 0 0 0 0 0 0 0 0 0 0 0 0 0 0 0 0 0 0 0 0 0 0 0 0 0 0 0 0 0 0 0 0 0 0 0 0 0 0 0 0 0 0 0 0 0 0 0 0 0 0 0 0 0 0 0 0 0 0 0 0 0 0 0 0 0 0 0 0 0 0 0 0 0 0 0 0 0 0 0 0 0 0 0 0 0 0 0 0 0 0 0 0 0 0 0 0 0 0 0 0 0 0 0 0 0 0 0 0 0 0 0 0 0 0 0 0 0 0 0 0 0 0 0 0 0 0 0 0 0 0 0 0 0 0 0 0 0 0 0 0 0 0 0 0 0 0 0 0 0 0 0 0 0 0 0 0 0 0 0 0 0 0 0 0 0 0 0 0 0 0 0 0 0 0 0 0 0 0 0 0 0 0 0 0 0 0 0 0 0 0 0 0 0 0 0 0 0 0 0 0 0 0 0 0 0 0 0 0 0 0 0 0 0 0 0 0 0 0 0 0 0 0 0 0 0 0 0 0 0 0 0 0 0 0 0 0 0 0 0 0 0 0 0 0 0 0 0 0 0 0 0 0 0 0 0 0 0 0 0 0 0 0 0 0 0 0 0 0 0 0 0 0 0 0 0 0 0 0 0 0 0 0 0 0 0 0 0 0 0 0 0 0 0 0 0 0 0 0 0 0 0 0 0 0 0 0 0 0 0 0 0 0 0 0 0 0 0 0 0 0 0 0 0 0 0 0 0 0 0 0 0 0 0 0 0 0 0 0 0 0 0 0 0 0 0 0 0 0 0 0 0 0 0 0 0 0 0 0 0 0 0 0 0 0 0 0 0 0 0 0 0 0 0 0 0 0 0 0 0 0 0 
0 0 0 0 0 0 0 0 0 0 0 0 0 0 0 0 0 0 0 0 0 0 0 0 0 0 0 0 0 0 0 0 0 0 0 0 0 0 0 0 0 0 0 0 0 0 0 0 0 0 0 0 0 0 0 0 0 0 0 0 0 0 0 0 0 0 0 0 0 0 0 0 0 0 0 0 0 0 0 0 0 0 0 0 0 0 0 0 0 0 0 0 0 0 0 0 0 0 0 0 0 0 0 0 0 0 0 0 0 0 0 0 0 0 0 0 0 0 0 0 0 0 0 0 0 0 0 0 0 0 0 0 0 0 0 0 0 0 0 0 0 0 0 0 0 0 0 0 0 0 0 0 0 0 0 0 0 0 0 0 0 0 0 0 0 0 0 0 0 0 0 0 0 0 0 0 0 0 0 0 0 0 0 0 0 0 0 0 0 0 0 0 0 0 0 0 0 0 0 0 0 0 0 0 0 0 0 0 0 0 0 0 0 0 0 0 0 0 0 0 0 0 0 0 0 0 0 0 0 0 0 0 0 0 0 0 0 0 0 0 0 0 0 0 0 0 0 0 0 0 0 0 0 0 0 0 0 0 0 0 0 0 0 0 0 0 0 0 0 0 0 0 0 0 0 0 0 0 0 0 0 0 0 0 0 0 0 0 0 0 0 0 0 0 0 0 0 0 0 0 0 0 0 0 0 0 0 0 0 0 0 0 0 0 0 0 0 0 0 0 0 0 0 0 0 0 0 0 0 0 0 0 0 0 0 0 0 0 0 0 0 0 0 0 0 0 0 0 0 0 0 0 0 0 0 0 0 0 0 0 0 0 0 0 0 0 0 0 0 0 0 0 0 0 0 0 0 0 0 0 0 0 0 0 
0 0 0 0 0 0 0 0 0 0 0 0 0 0 0 0 0 0 0 0 0 0 0 0 0 0 0 0 0 0 0 0 0 0 0 0 0 0 0 0 0 0 0 0 0 0 0 0 0 0 0 0 0 0 0 0 0 0 0 0 0 0 0 0 0 0 0 0 0 0 0 0 0 0 0 0 0 0 0 0 0 0 0 0 0 0 0 0 0 0 0 0 0 0 0 0 0 0 0 0 0 0 0 0 0 0 0 0 0 0 0 0 0 0 0 0 0 0 0 0 0 0 0 0 0 0 0 0 0 0 0 0 0 0 0 0 0 0 0 0 0 0 0 0 0 0 0 0 0 0 0 0 0 0 0 0 0 0 0 0 0 0 0 0 0 0 0 0 0 0 0 0 0 0 0 0 0 0 0 0 0 0 0 0 0 0 0 0 0 0 0 0 0 0 0 0 0 0 0 0 0 0 0 0 0 0 0 0 0 0 0 0 0 0 0 0 0 0 0 0 0 0 0 0 0 0 0 0 0 0 0 0 0 0 0 0 0 0 0 0 0 0 0 0 0 0 0 0 0 0 0 0 0 0 0 0 0 0 0 0 0 0 0 0 0 0 0 0 0 0 0 0 0 0 0 0 0 0 0 0 0 0 0 0 0 0 0 0 0 0 0 0 0 0 0 0 0 0 0 0 0 0 0 0 0 0 0 0 0 0 0 0 0 0 0 0 0 0 0 0 0 0 0 0 0 0 0 0 0 0 0 0 0 0 0 0 0 0 0 0 0 0 0 0 0 0 0 0 0 0 0 0 0 0 0 0 0 0 0 0 0 0 0 0 0 0 0 0 0 0 0 0 0 0 0 0 0 0 0 0 0 0 0 0 
0 0 0 0 0 0 0 0 0 0 0 0 0 0 0 0 0 0 0 0 0 0 0 0 0 0 0 0 0 0 0 0 0 0 0 0 0 0 0 0 0 0 0 0 0 0 0 0 0 0 0 0 0 0 0 1.172539e-15 1.474834e-15 1.773563e-15 2.042650e-15 2.255790e-15 2.392871e-15 2.440351e-15 2.396949e-15 2.269087e-15 2.073927e-15 1.831217e-15 1.564796e-15 1.294679e-15 1.039026e-15 0 0 0 0 0 0 0 0 0 0 0 0 0 0 0 0 0 0 0 0 0 0 0 0 0 0 0 0 0 0 0 0 0 0 0 0 0 0 0 0 0 0 0 0 0 0 0 0 0 0 0 0 0 0 0 0 0 0 0 0 0 0 0 0 0 0 0 0 0 0 0 0 0 0 0 0 0 0 0 0 0 0 0 0 0 0 0 0 0 0 0 0 0 0 0 0 0 0 0 0 0 0 0 0 0 0 0 0 0 0 0 0 0 0 0 0 0 0 0 0 0 0 0 0 0 0 0 0 0 0 0 0 0 0 0 0 0 0 0 0 0 0 0 0 0 0 0 0 0 0 0 0 0 0 0 0 0 0 0 0 0 0 0 0 0 0 0 0 0 0 0 0 0 0 0 0 0 0 0 0 0 0 0 0 0 0 0 0 0 0 0 0 0 0 0 0 0 0 0 0 0 0 0 0 0 0 0 0 0 0 0 0 0 0 0 0 0 0 0 0 0 0 0 0 0 0 0 0 0 0 0 0 0 0 0 0 0 0 0 0 0 0 0 0 0 0 0 0 0 0 0 0 0 0 0 0 0 0 0 0 0 0 0 0 0 0 0 0 0 0 0 0 0 0 0 0 0 0 0 0 0 0 0 0 0 0 0 0 0 0 0 0 0 0 0 0 0 0 0 0 0 0 0 0 0 0 0 0 0 0 0 0 0 0 0 
0 0 0 0 0 0 0 0 0 0 0 0 0 0 0 0 0 0 0 0 0 0 0 0 0 0 0 0 0 0 0 0 0 0 0 0 0 0 0 0 0 0 0 0 0 0 0 0 0 1.069688e-15 1.816804e-15 2.917959e-15 4.436533e-15 6.406896e-15 8.798742e-15 1.151973e-14 1.439805e-14 1.721085e-14 1.970559e-14 2.163951e-14 2.282887e-14 2.315891e-14 2.263128e-14 2.131818e-14 1.939318e-14 1.704525e-14 1.450325e-14 1.194981e-14 9.553950e-15 7.413182e-15 5.594454e-15 4.106536e-15 2.938515e-15 2.049830e-15 1.397173e-15 0 0 0 0 0 0 0 0 0 0 0 0 0 0 0 0 0 0 0 0 0 0 0 0 0 0 0 0 0 0 0 0 0 0 0 0 0 0 0 0 0 0 0 0 0 0 0 0 0 0 0 0 0 0 0 0 0 0 0 0 0 0 0 0 0 0 0 0 0 0 0 0 0 0 0 0 0 0 0 0 0 0 0 0 0 0 0 0 0 0 0 0 0 0 0 0 0 0 0 0 0 0 0 0 0 0 0 0 0 0 0 0 0 0 0 0 0 0 0 0 0 0 0 0 0 0 0 0 0 0 0 0 0 0 0 0 0 0 0 0 0 0 0 0 0 0 0 0 0 0 0 0 0 0 0 0 0 0 0 0 0 0 0 0 0 0 0 0 0 0 0 0 0 0 0 0 0 0 0 0 0 0 0 0 0 0 0 0 0 0 0 0 0 0 0 0 0 0 0 0 0 0 0 0 0 0 0 0 0 0 0 0 0 0 0 0 0 0 0 0 0 0 0 0 0 0 0 0 0 0 0 0 0 0 0 0 0 0 0 0 0 0 0 0 0 0 0 0 0 0 0 0 0 0 0 0 0 0 0 0 0 0 0 0 0 0 0 0 0 0 0 0 0 0 0 0 0 0 0 0 0 0 0 0 0 0 0 0 0 0 0 0 0 0 0 0 0 0 0 0 0 0 0 0 0 0 0 0 0 
0 0 0 0 0 0 0 0 0 0 0 0 0 0 0 0 0 0 0 0 0 0 0 0 0 0 0 0 0 0 0 0 0 0 0 0 0 0 0 0 0 0 0 0 0 0 1.496666e-15 3.041827e-15 5.785281e-15 1.034737e-14 1.743602e-14 2.778300e-14 4.193602e-14 6.012558e-14 8.202404e-14 1.066867e-13 1.325292e-13 1.574696e-13 1.792744e-13 1.957794e-13 2.054495e-13 2.073531e-13 2.016298e-13 1.890340e-13 1.711770e-13 1.498041e-13 1.269294e-13 1.041797e-13 8.298177e-14 6.417519e-14 4.827739e-14 3.534374e-14 2.522862e-14 1.756656e-14 1.195430e-14 7.954370e-15 5.185263e-15 3.312937e-15 2.078599e-15 1.281221e-15 0 0 0 0 0 0 0 0 0 0 0 0 0 0 0 0 0 0 0 0 0 0 0 0 0 0 0 0 0 0 0 0 0 0 0 0 0 0 0 0 0 0 0 0 0 0 0 0 0 0 0 0 0 0 0 0 0 0 0 0 0 0 0 0 0 0 0 0 0 0 0 0 0 0 0 0 0 0 0 0 0 0 0 0 0 0 0 0 0 0 0 0 0 0 0 0 0 0 0 0 0 0 0 0 0 0 0 0 0 0 0 0 0 0 0 0 0 0 0 0 0 0 0 0 0 0 0 0 0 0 0 0 0 0 0 0 0 0 0 0 0 0 0 0 0 0 0 0 0 0 0 0 0 0 0 0 0 0 0 0 0 0 0 0 0 0 0 0 0 0 0 0 0 0 0 0 0 0 0 0 0 0 0 0 0 0 0 0 0 0 0 0 0 0 0 0 0 0 0 0 0 0 0 0 0 0 0 0 0 0 0 0 0 0 0 0 0 0 0 0 0 0 0 0 0 0 0 0 0 0 0 0 0 0 0 0 0 0 0 0 0 0 0 0 0 0 0 0 0 0 0 0 0 0 0 0 0 0 0 0 0 0 0 0 0 0 0 0 0 0 0 0 0 0 0 0 0 0 0 0 0 0 0 0 0 0 0 0 0 0 0 0 0 0 0 0 0 0 0 0 0 0 0 0 
0 0 0 0 0 0 0 0 0 0 0 0 0 0 0 0 0 0 0 0 0 0 0 0 0 0 0 0 0 0 0 0 0 0 0 0 0 0 0 0 0 0 0 1.109819e-15 2.781719e-15 6.462169e-15 1.392418e-14 2.804507e-14 5.284887e-14 9.373525e-14 1.566344e-13 2.477072e-13 3.711260e-13 5.285362e-13 7.163316e-13 9.261666e-13 1.143877e-12 1.351897e-12 1.531192e-12 1.664112e-12 1.738264e-12 1.746692e-12 1.691445e-12 1.579477e-12 1.424981e-12 1.242610e-12 1.049460e-12 8.586811e-13 6.821088e-13 5.261615e-13 3.949965e-13 2.886262e-13 2.057567e-13 1.431154e-13 9.735900e-14 6.477976e-14 4.226136e-14 2.703179e-14 1.699457e-14 1.050024e-14 6.391736e-15 3.832500e-15 2.269170e-15 1.326359e-15 0 0 0 0 0 0 0 0 0 0 0 0 0 0 0 0 0 0 0 0 0 0 0 0 0 0 0 0 0 0 0 0 0 0 0 0 0 0 0 0 0 0 0 0 0 0 0 0 0 0 0 0 0 0 0 0 0 0 0 0 0 0 0 0 0 0 0 0 0 0 0 0 0 0 0 0 0 0 0 0 0 0 0 0 0 0 0 0 0 0 0 0 0 0 0 0 0 0 0 0 0 0 0 0 0 0 0 0 0 0 0 0 0 0 0 0 0 0 0 0 0 0 0 0 0 0 0 0 0 0 0 0 0 0 0 0 0 0 0 0 0 0 0 0 0 0 0 0 0 0 0 0 0 0 0 0 0 0 0 0 0 0 0 0 0 0 0 0 0 0 0 0 0 0 0 0 0 0 0 0 0 0 0 0 0 0 0 0 0 0 0 0 0 0 0 0 0 0 0 0 0 0 0 0 0 0 0 0 0 0 0 0 0 0 0 0 0 0 0 0 0 0 0 0 0 0 0 0 0 0 0 0 0 0 0 0 0 0 0 0 0 0 0 0 0 0 0 0 0 0 0 0 0 0 0 0 0 0 0 0 0 0 0 0 0 0 0 0 0 0 0 0 0 0 0 0 0 0 0 0 0 0 0 0 0 0 0 0 0 0 0 0 0 0 0 0 0 0 0 0 
0 0 0 0 0 0 0 0 0 0 0 0 0 0 0 0 0 0 0 0 0 0 0 0 0 0 0 0 0 0 0 0 0 0 0 0 0 0 0 0 0 1.266264e-15 3.728377e-15 1.006593e-14 2.496127e-14 5.733925e-14 1.222700e-13 2.436778e-13 4.547883e-13 7.989642e-13 1.323640e-12 2.075718e-12 3.086541e-12 4.363677e-12 5.875385e-12 7.548479e-12 9.269355e-12 1.089453e-11 1.227662e-11 1.327717e-11 1.380542e-11 1.381193e-11 1.331983e-11 1.238977e-11 1.113632e-11 9.677875e-12 8.146766e-12 6.646419e-12 5.265138e-12 4.052101e-12 3.035564e-12 2.214742e-12 1.576848e-12 1.096183e-12 7.455408e-13 4.963602e-13 3.241338e-13 2.077205e-13 1.308907e-13 8.113560e-14 4.956917e-14 2.985951e-14 1.776783e-14 1.044787e-14 6.082375e-15 3.506977e-15 2.006435e-15 1.139494e-15 0 0 0 0 0 0 0 0 0 0 0 0 0 0 0 0 0 0 0 0 0 0 0 0 0 0 0 0 0 0 0 0 0 0 0 0 0 0 0 0 0 0 0 0 0 0 0 0 0 0 0 0 0 0 0 0 0 0 0 0 0 0 0 0 0 0 0 0 0 0 0 0 0 0 0 0 0 0 0 0 0 0 0 0 0 0 0 0 0 0 0 0 0 0 0 0 0 0 0 0 0 0 0 0 0 0 0 0 0 0 0 0 0 0 0 0 0 0 0 0 0 0 0 0 0 0 0 0 0 0 0 0 0 0 0 0 0 0 0 0 0 0 0 0 0 0 0 0 0 0 0 0 0 0 0 0 0 0 0 0 0 0 0 0 0 0 0 0 0 0 0 0 0 0 0 0 0 0 0 0 0 0 0 0 0 0 0 0 0 0 0 0 0 0 0 0 0 0 0 0 0 0 0 0 0 0 0 0 0 0 0 0 0 0 0 0 0 0 0 0 0 0 0 0 0 0 0 0 0 0 0 0 0 0 0 0 0 0 0 0 0 0 0 0 0 0 0 0 0 0 0 0 0 0 0 0 0 0 0 0 0 0 0 0 0 0 0 0 0 0 0 0 0 0 0 0 0 0 0 0 0 0 0 0 0 0 0 0 0 0 0 0 0 0 0 0 
0 0 0 0 0 0 0 0 0 0 0 0 0 0 0 0 0 0 0 0 0 0 0 0 0 0 0 0 0 0 0 0 0 0 0 0 0 0 0 0 3.464682e-15 1.107375e-14 3.215544e-14 8.574445e-14 2.099186e-13 4.765645e-13 1.004110e-12 1.979454e-12 3.654671e-12 6.358611e-12 1.043582e-11 1.622945e-11 2.394142e-11 3.361014e-11 4.495333e-11 5.741354e-11 7.011135e-11 8.199268e-11 9.196247e-11 9.903256e-11 1.025627e-10 1.022315e-10 9.825308e-11 9.109947e-11 8.164648e-11 7.076004e-11 5.942471e-11 4.837379e-11 3.825340e-11 2.939401e-11 2.199793e-11 1.603754e-11 1.141767e-11 7.939340e-12 5.405547e-12 3.604117e-12 2.359124e-12 1.516031e-12 9.588477e-13 5.968129e-13 3.664708e-13 2.219596e-13 1.329243e-13 7.869150e-14 4.616545e-14 2.683241e-14 1.548955e-14 8.878196e-15 5.065063e-15 2.874998e-15 1.627367e-15 0 0 0 0 0 0 0 0 0 0 0 0 0 0 0 0 0 0 0 0 0 0 0 0 0 0 0 0 0 0 0 0 0 0 0 0 0 0 0 0 0 0 0 0 0 0 0 0 0 0 0 0 0 0 0 0 0 0 0 0 0 0 0 0 0 0 0 0 0 0 0 0 0 0 0 0 0 0 0 0 0 0 0 0 0 0 0 0 0 0 0 0 0 0 0 0 0 0 0 0 0 0 0 0 0 0 0 0 0 0 0 0 0 0 0 0 0 0 0 0 0 0 0 0 0 0 0 0 0 0 0 0 0 0 0 0 0 0 0 0 0 0 0 0 0 0 0 0 0 0 0 0 0 0 0 0 0 0 0 0 0 0 0 0 0 0 0 0 0 0 0 0 0 0 0 0 0 0 0 0 0 0 0 0 0 0 0 0 0 0 0 0 0 0 0 0 0 0 0 0 0 0 0 0 0 0 0 0 0 0 0 0 0 0 0 0 0 0 0 0 0 0 0 0 0 0 0 0 0 0 0 0 0 0 0 0 0 0 0 0 0 0 0 0 0 0 0 0 0 0 0 0 0 0 0 0 0 0 0 0 0 0 0 0 0 0 0 0 0 0 0 0 0 0 0 0 0 0 0 0 0 0 0 0 0 0 0 0 0 0 0 0 0 
0 0 0 0 0 0 0 0 0 0 0 0 0 0 0 0 0 0 0 0 0 0 0 0 0 0 0 0 0 0 0 0 0 0 0 0 0 0 2.267962e-15 8.606655e-15 2.952079e-14 9.237962e-14 2.636062e-13 6.915638e-13 1.668700e-12 3.734427e-12 7.766196e-12 1.511480e-11 2.758567e-11 4.746282e-11 7.712751e-11 1.188201e-10 1.738306e-10 2.421288e-10 3.216253e-10 4.081308e-10 4.955588e-10 5.764436e-10 6.434392e-10 6.897935e-10 7.114505e-10 7.064379e-10 6.765327e-10 6.252282e-10 5.586368e-10 4.828345e-10 4.044584e-10 3.285485e-10 2.593162e-10 1.989880e-10 1.487554e-10 1.084056e-10 7.717283e-11 5.370381e-11 3.660784e-11 2.445981e-11 1.605164e-11 1.035191e-11 6.573507e-12 4.112026e-12 2.538651e-12 1.547441e-12 9.329902e-13 5.566130e-13 3.291755e-13 1.930435e-13 1.124642e-13 6.510888e-14 3.752106e-14 2.152752e-14 1.231571e-14 7.025017e-15 4.000536e-15 2.273822e-15 1.291414e-15 0 0 0 0 0 0 0 0 0 0 0 0 0 0 0 0 0 0 0 0 0 0 0 0 0 0 0 0 0 0 0 0 0 0 0 0 0 0 0 0 0 0 0 0 0 0 0 0 0 0 0 0 0 0 0 0 0 0 0 0 0 0 0 0 0 0 0 0 0 0 0 0 0 0 0 0 0 0 0 0 0 0 0 0 0 0 0 0 0 0 0 0 0 0 0 0 0 0 0 0 0 0 0 0 0 0 0 0 0 0 0 0 0 0 0 0 0 0 0 0 0 0 0 0 0 0 0 0 0 0 0 0 0 0 0 0 0 0 0 0 0 0 0 0 0 0 0 0 0 0 0 0 0 0 0 0 0 0 0 0 0 0 0 0 0 0 0 0 0 0 0 0 0 0 0 0 0 0 0 0 0 0 0 0 0 0 0 0 0 0 0 0 0 0 0 0 0 0 0 0 0 0 0 0 0 0 0 0 0 0 0 0 0 0 0 0 0 0 0 0 0 0 0 0 0 0 0 0 0 0 0 0 0 0 0 0 0 0 0 0 0 0 0 0 0 0 0 0 0 0 0 0 0 0 0 0 0 0 0 0 0 0 0 0 0 0 0 0 0 0 0 0 0 0 0 0 0 0 0 0 0 0 0 0 0 0 0 0 0 
0 0 0 0 0 0 0 0 0 0 0 0 0 0 0 0 0 0 0 0 0 0 0 0 0 0 0 0 0 0 0 0 0 0 0 0 1.084069e-15 4.983728e-15 1.993597e-14 7.254224e-14 2.397342e-13 7.305416e-13 2.036891e-12 5.242154e-12 1.242522e-11 2.737114e-11 5.605735e-11 1.076134e-10 1.938303e-10 3.296181e-10 5.297531e-10 8.082657e-10 1.171907e-09 1.619677e-09 2.136141e-09 2.693947e-09 3.252637e-09 3.764921e-09 4.183715e-09 4.467306e-09 4.591013e-09 4.543849e-09 4.338879e-09 3.999195e-09 3.565073e-09 3.074894e-09 2.571485e-09 2.085837e-09 1.644793e-09 1.261325e-09 9.429314e-10 6.874180e-10 4.899423e-10 3.414960e-10 2.333737e-10 1.563991e-10 1.030448e-10 6.675073e-11 4.261729e-11 2.681516e-11 1.666766e-11 1.023256e-11 6.219185e-12 3.741188e-12 2.232742e-12 1.321566e-12 7.776464e-13 4.547290e-13 2.648415e-13 1.535484e-13 8.880506e-14 5.119497e-14 2.947364e-14 1.692978e-14 9.720347e-15 5.573994e-15 3.199206e-15 1.837285e-15 1.058788e-15 0 0 0 0 0 0 0 0 0 0 0 0 0 0 0 0 0 0 0 0 0 0 0 0 0 0 0 0 0 0 0 0 0 0 0 0 0 0 0 0 0 0 0 0 0 0 0 0 0 0 0 0 0 0 0 0 0 0 0 0 0 0 0 0 0 0 0 0 0 0 0 0 0 0 0 0 0 0 0 0 0 0 0 0 0 0 0 0 0 0 0 0 0 0 0 0 0 0 0 0 0 0 0 0 0 0 0 0 0 0 0 0 0 0 0 0 0 0 0 0 0 0 0 0 0 0 0 0 0 0 0 0 0 0 0 0 0 0 0 0 0 0 0 0 0 0 0 0 0 0 0 0 0 0 0 0 0 0 0 0 0 0 0 0 0 0 0 0 0 0 0 0 0 0 0 0 0 0 0 0 0 0 0 0 0 0 0 0 0 0 0 0 0 0 0 0 0 0 0 0 0 0 0 0 0 0 0 0 0 0 0 0 0 0 0 0 0 0 0 0 0 0 0 0 0 0 0 0 0 0 0 0 0 0 0 0 0 0 0 0 0 0 0 0 0 0 0 0 0 0 0 0 0 0 0 0 0 0 0 0 0 0 0 0 0 0 0 0 0 0 0 0 0 0 0 0 0 0 0 0 0 0 0 0 0 
0 0 0 0 0 0 0 0 0 0 0 0 0 0 0 0 0 0 0 0 0 0 0 0 0 0 0 0 0 0 0 0 0 0 0 1.890300e-15 9.687276e-15 4.355603e-14 1.696159e-13 5.929950e-13 1.876711e-12 5.526741e-12 1.498952e-11 3.764040e-11 8.736855e-11 1.887820e-10 3.800692e-10 7.179125e-10 1.274611e-09 2.138476e-09 3.396398e-09 5.125391e-09 7.360899e-09 1.008489e-08 1.320110e-08 1.653440e-08 1.984572e-08 2.284740e-08 2.526901e-08 2.686488e-08 2.750194e-08 2.712302e-08 2.581614e-08 2.372647e-08 2.109524e-08 1.815411e-08 1.515176e-08 1.227200e-08 9.665611e-09 7.408256e-09 5.537395e-09 4.039627e-09 2.882471e-09 2.013359e-09 1.379528e-09 9.279042e-10 6.139170e-10 3.997636e-10 2.566812e-10 1.625834e-10 1.017679e-10 6.297238e-11 3.858595e-11 2.341973e-11 1.410379e-11 8.429762e-12 5.008839e-12 2.959352e-12 1.741270e-12 1.020406e-12 5.963574e-13 3.475412e-13 2.022041e-13 1.174253e-13 6.815019e-14 3.952933e-14 2.295442e-14 1.335397e-14 7.802720e-15 4.585973e-15 2.719725e-15 1.630305e-15 0 0 0 0 0 0 0 0 0 0 0 0 0 0 0 0 0 0 0 0 0 0 0 0 0 0 0 0 0 0 0 0 0 0 0 0 0 0 0 0 0 0 0 0 0 0 0 0 0 0 0 0 0 0 0 0 0 0 0 0 0 0 0 0 0 0 0 0 0 0 0 0 0 0 0 0 0 0 0 0 0 0 0 0 0 0 0 0 0 0 0 0 0 0 0 0 0 0 0 0 0 0 0 0 0 0 0 0 0 0 0 0 0 0 0 0 0 0 0 0 0 0 0 0 0 0 0 0 0 0 0 0 0 0 0 0 0 0 0 0 0 0 0 0 0 0 0 0 0 0 0 0 0 0 0 0 0 0 0 0 0 0 0 0 0 0 0 0 0 0 0 0 0 0 0 0 0 0 0 0 0 0 0 0 0 0 0 0 0 0 0 0 0 0 0 0 0 0 0 0 0 0 0 0 0 0 0 0 0 0 0 0 0 0 0 0 0 0 0 0 0 0 0 0 0 0 0 0 0 0 0 0 0 0 0 0 0 0 0 0 0 0 0 0 0 0 0 0 0 0 0 0 0 0 0 0 0 0 0 0 0 0 0 0 0 0 0 0 0 0 0 0 0 0 0 0 0 0 0 0 0 0 
0 0 0 0 0 0 0 0 0 0 0 0 0 0 0 0 0 0 0 0 0 0 0 0 0 0 0 0 0 0 0 0 0 0 2.848198e-15 1.696168e-14 8.533131e-14 3.743712e-13 1.410666e-12 4.747327e-12 1.422711e-11 3.990887e-11 1.043920e-10 2.545288e-10 5.757198e-10 1.216768e-09 2.400266e-09 4.453133e-09 7.775397e-09 1.285566e-08 2.014563e-08 3.005057e-08 4.270837e-08 5.799335e-08 7.531319e-08 9.369774e-08 1.117968e-07 1.280561e-07 1.409971e-07 1.493205e-07 1.523379e-07 1.497828e-07 1.421899e-07 1.303732e-07 1.156913e-07 9.939536e-08 8.286069e-08 6.705456e-08 5.280175e-08 4.047748e-08 3.028514e-08 2.212623e-08 1.582635e-08 1.108738e-08 7.627276e-09 5.153623e-09 3.428679e-09 2.246115e-09 1.452238e-09 9.265755e-10 5.846929e-10 3.648048e-10 2.255456e-10 1.381366e-10 8.399431e-11 5.068819e-11 3.042611e-11 1.815861e-11 1.079795e-11 6.393822e-12 3.777376e-12 2.224790e-12 1.308778e-12 7.683979e-13 4.511784e-13 2.648473e-13 1.558465e-13 9.196876e-14 5.461989e-14 3.268338e-14 1.977938e-14 1.211649e-14 7.532572e-15 4.747577e-15 3.034020e-15 1.959363e-15 1.276266e-15 0 0 0 0 0 0 0 0 0 0 0 0 0 0 0 0 0 0 0 0 0 0 0 0 0 0 0 0 0 0 0 0 0 0 0 0 0 0 0 0 0 0 0 0 0 0 0 0 0 0 0 0 0 0 0 0 0 0 0 0 0 0 0 0 0 0 0 0 0 0 0 0 0 0 0 0 0 0 0 0 0 0 0 0 0 0 0 0 0 0 0 0 0 0 0 0 0 0 0 0 0 0 0 0 0 0 0 0 0 0 0 0 0 0 0 0 0 0 0 0 0 0 0 0 0 0 0 0 0 0 0 0 0 0 0 0 0 0 0 0 0 0 0 0 0 0 0 0 0 0 0 0 0 0 0 0 0 0 0 0 0 0 0 0 0 0 0 0 0 0 0 0 0 0 0 0 0 0 0 0 0 0 0 0 0 0 0 0 0 0 0 0 0 0 0 0 0 0 0 0 0 0 0 0 0 0 0 0 0 0 0 0 0 0 0 0 0 0 0 0 0 0 0 0 0 0 0 0 0 0 0 0 0 0 0 0 0 0 0 0 0 0 0 0 0 0 0 0 0 0 0 0 0 0 0 0 0 0 0 0 0 0 0 0 0 0 0 0 0 0 0 0 0 0 0 0 0 
0 0 0 0 0 0 0 0 0 0 0 0 0 0 0 0 0 0 0 0 0 0 0 0 0 0 0 0 0 0 0 0 0 3.652843e-15 2.508729e-14 1.476081e-13 7.262251e-13 3.081633e-12 1.118502e-11 3.608052e-11 1.031615e-10 2.755438e-10 6.919369e-10 1.629831e-09 3.579484e-09 7.368022e-09 1.420221e-08 2.579696e-08 4.421409e-08 7.187603e-08 1.109992e-07 1.634058e-07 2.296476e-07 3.087342e-07 3.975853e-07 4.909595e-07 5.821279e-07 6.630495e-07 7.265381e-07 7.660615e-07 7.785194e-07 7.627719e-07 7.218135e-07 6.599804e-07 5.841983e-07 5.008988e-07 4.168715e-07 3.369987e-07 2.652044e-07 2.033463e-07 1.522571e-07 1.114320e-07 7.989228e-08 5.616214e-08 3.879163e-08 2.634505e-08 1.762579e-08 1.162271e-08 7.566771e-09 4.865233e-09 3.094342e-09 1.947229e-09 1.214293e-09 7.505917e-10 4.606245e-10 2.807209e-10 1.701651e-10 1.026176e-10 6.165356e-11 3.690556e-11 2.203843e-11 1.312758e-11 7.810203e-12 4.641362e-12 2.759669e-12 1.642813e-12 9.815131e-13 5.894422e-13 3.569393e-13 2.183655e-13 1.353511e-13 8.507469e-14 5.427799e-14 3.509650e-14 2.296392e-14 1.514978e-14 1.004815e-14 6.672904e-15 4.425202e-15 2.920610e-15 1.915078e-15 1.244579e-15 0 0 0 0 0 0 0 0 0 0 0 0 0 0 0 0 0 0 0 0 0 0 0 0 0 0 0 0 0 0 0 0 0 0 0 0 0 0 0 0 0 0 0 0 0 0 0 0 0 0 0 0 0 0 0 0 0 0 0 0 0 0 0 0 0 0 0 0 0 0 0 0 0 0 0 0 0 0 0 0 0 0 0 0 0 0 0 0 0 0 0 0 0 0 0 0 0 0 0 0 0 0 0 0 0 0 0 0 0 0 0 0 0 0 0 0 0 0 0 0 0 0 0 0 0 0 0 0 0 0 0 0 0 0 0 0 0 0 0 0 0 0 0 0 0 0 0 0 0 0 0 0 0 0 0 0 0 0 0 0 0 0 0 0 0 0 0 0 0 0 0 0 0 0 0 0 0 0 0 0 0 0 0 0 0 0 0 0 0 0 0 0 0 0 0 0 0 0 0 0 0 0 0 0 0 0 0 0 0 0 0 0 0 0 0 0 0 0 0 0 0 0 0 0 0 0 0 0 0 0 0 0 0 0 0 0 0 0 0 0 0 0 0 0 0 0 0 0 0 0 0 0 0 0 0 0 0 0 0 0 0 0 0 0 0 0 0 0 0 0 0 0 
0 0 0 0 0 0 0 0 0 0 0 0 0 0 0 0 0 0 0 0 0 0 0 0 0 0 0 0 0 0 0 0 3.850845e-15 3.200593e-14 2.205289e-13 1.283837e-12 6.134824e-12 2.509284e-11 8.716183e-11 2.686047e-10 7.306095e-10 1.837823e-09 4.368076e-09 9.867850e-09 2.090740e-08 4.172772e-08 7.822622e-08 1.386730e-07 2.325039e-07 3.708449e-07 5.630985e-07 8.171574e-07 1.134144e-06 1.508927e-06 1.925880e-06 2.360692e-06 2.781448e-06 3.151438e-06 3.437446e-06 3.610153e-06 3.656121e-06 3.571097e-06 3.370287e-06 3.074277e-06 2.716130e-06 2.325250e-06 1.933404e-06 1.562230e-06 1.229827e-06 9.438310e-07 7.080308e-07 5.194994e-07 3.738011e-07 2.638872e-07 1.832317e-07 1.251623e-07 8.429969e-08 5.597903e-08 3.672694e-08 2.380069e-08 1.526611e-08 9.688623e-09 6.096839e-09 3.803021e-09 2.356582e-09 1.450227e-09 8.882440e-10 5.412395e-10 3.287721e-10 1.989717e-10 1.202044e-10 7.244580e-11 4.364943e-11 2.628449e-11 1.586112e-11 9.596121e-12 5.841216e-12 3.581827e-12 2.221149e-12 1.394417e-12 8.886901e-13 5.745528e-13 3.769117e-13 2.500751e-13 1.674835e-13 1.127063e-13 7.601677e-14 5.116307e-14 3.430119e-14 2.282825e-14 1.506993e-14 9.842771e-15 6.360913e-15 4.059507e-15 2.560087e-15 1.592840e-15 0 0 0 0 0 0 0 0 0 0 0 0 0 0 0 0 0 0 0 0 0 0 0 0 0 0 0 0 0 0 0 0 0 0 0 0 0 0 0 0 0 0 0 0 0 0 0 0 0 0 0 0 0 0 0 0 0 0 0 0 0 0 0 0 0 0 0 0 0 0 0 0 0 0 0 0 0 0 0 0 0 0 0 0 0 0 0 0 0 0 0 0 0 0 0 0 0 0 0 0 0 0 0 0 0 0 0 0 0 0 0 0 0 0 0 0 0 0 0 0 0 0 0 0 0 0 0 0 0 0 0 0 0 0 0 0 0 0 0 0 0 0 0 0 0 0 0 0 0 0 0 0 0 0 0 0 0 0 0 0 0 0 0 0 0 0 0 0 0 0 0 0 0 0 0 0 0 0 0 0 0 0 0 0 0 0 0 0 0 0 0 0 0 0 0 0 0 0 0 0 0 0 0 0 0 0 0 0 0 0 0 0 0 0 0 0 0 0 0 0 0 0 0 0 0 0 0 0 0 0 0 0 0 0 0 0 0 0 0 0 0 0 0 0 0 0 0 0 0 0 0 0 0 0 0 0 0 0 0 0 0 0 0 0 0 0 0 0 
0 0 0 0 0 0 0 0 0 0 0 0 0 0 0 0 0 0 0 0 0 0 0 0 0 0 0 0 0 0 0 3.214635e-15 3.205262e-14 2.723597e-13 1.892896e-12 1.085027e-11 5.012627e-11 1.952979e-10 6.447540e-10 1.884455e-09 4.862009e-09 1.158253e-08 2.615895e-08 5.653794e-08 1.152019e-07 2.219258e-07 4.031540e-07 6.945892e-07 1.135945e-06 1.772158e-06 2.640810e-06 3.770045e-06 5.162205e-06 6.788749e-06 8.583385e-06 1.043661e-05 1.221595e-05 1.376086e-05 1.493560e-05 1.561488e-05 1.574903e-05 1.532427e-05 1.441204e-05 1.310537e-05 1.154674e-05 9.863668e-06 8.187704e-06 6.610229e-06 5.202615e-06 3.996029e-06 3.002325e-06 2.208807e-06 1.594724e-06 1.130874e-06 7.891969e-07 5.423185e-07 3.675698e-07 2.458066e-07 1.624263e-07 1.060804e-07 6.857458e-08 4.388963e-08 2.785490e-08 1.753623e-08 1.096884e-08 6.819045e-09 4.219800e-09 2.599902e-09 1.597079e-09 9.782329e-10 5.982859e-10 3.654520e-10 2.233394e-10 1.366679e-10 8.394971e-11 5.184915e-11 3.230218e-11 2.034103e-11 1.298468e-11 8.410282e-12 5.532351e-12 3.690157e-12 2.491574e-12 1.696635e-12 1.161593e-12 7.962769e-13 5.450063e-13 3.711809e-13 2.510898e-13 1.683005e-13 1.116814e-13 7.324964e-14 4.747659e-14 3.037430e-14 1.918627e-14 1.195521e-14 7.352287e-15 4.459384e-15 2.669310e-15 1.575846e-15 0 0 0 0 0 0 0 0 0 0 0 0 0 0 0 0 0 0 0 0 0 0 0 0 0 0 0 0 0 0 0 0 0 0 0 0 0 0 0 0 0 0 0 0 0 0 0 0 0 0 0 0 0 0 0 0 0 0 0 0 0 0 0 0 0 0 0 0 0 0 0 0 0 0 0 0 0 0 0 0 0 0 0 0 0 0 0 0 0 0 0 0 0 0 0 0 0 0 0 0 0 0 0 0 0 0 0 0 0 0 0 0 0 0 0 0 0 0 0 0 0 0 0 0 0 0 0 0 0 0 0 0 0 0 0 0 0 0 0 0 0 0 0 0 0 0 0 0 0 0 0 0 0 0 0 0 0 0 0 0 0 0 0 0 0 0 0 0 0 0 0 0 0 0 0 0 0 0 0 0 0 0 0 0 0 0 0 0 0 0 0 0 0 0 0 0 0 0 0 0 0 0 0 0 0 0 0 0 0 0 0 0 0 0 0 0 0 0 0 0 0 0 0 0 0 0 0 0 0 0 0 0 0 0 0 0 0 0 0 0 0 0 0 0 0 0 0 0 0 0 0 0 0 0 0 0 0 0 0 0 0 0 0 0 
0 0 0 0 0 0 0 0 0 0 0 0 0 0 0 0 0 0 0 0 0 0 0 0 0 0 0 0 0 0 2.045848e-15 2.495028e-14 2.599496e-13 2.289452e-12 1.617575e-11 9.210681e-11 4.089343e-10 1.506911e-09 4.678845e-09 1.289751e-08 3.145025e-08 7.056746e-08 1.496586e-07 3.072530e-07 5.982445e-07 1.106608e-06 1.936911e-06 3.228190e-06 5.124279e-06 7.791232e-06 1.135440e-05 1.591339e-05 2.145646e-05 2.787157e-05 3.488799e-05 4.208749e-05 4.894710e-05 5.484923e-05 5.926239e-05 6.170821e-05 6.200732e-05 6.012471e-05 5.636655e-05 5.110848e-05 4.492474e-05 3.830496e-05 3.176302e-05 2.563368e-05 2.018833e-05 1.552858e-05 1.169711e-05 8.634228e-06 6.261262e-06 4.462198e-06 3.132272e-06 2.165725e-06 1.477928e-06 9.952205e-07 6.625845e-07 4.360181e-07 2.841756e-07 1.834005e-07 1.174580e-07 7.463877e-08 4.716329e-08 2.962805e-08 1.854321e-08 1.155822e-08 7.189738e-09 4.461585e-09 2.768125e-09 1.717105e-09 1.067924e-09 6.664088e-10 4.187586e-10 2.653624e-10 1.702303e-10 1.106690e-10 7.309601e-11 4.900272e-11 3.333712e-11 2.293480e-11 1.591917e-11 1.109601e-11 7.745996e-12 5.392373e-12 3.736606e-12 2.568788e-12 1.750624e-12 1.179818e-12 7.863501e-13 5.173620e-13 3.362120e-13 2.154843e-13 1.363382e-13 8.504232e-14 5.235784e-14 3.177635e-14 1.903621e-14 1.124253e-14 6.555097e-15 3.768533e-15 2.139452e-15 1.197851e-15 0 0 0 0 0 0 0 0 0 0 0 0 0 0 0 0 0 0 0 0 0 0 0 0 0 0 0 0 0 0 0 0 0 0 0 0 0 0 0 0 0 0 0 0 0 0 0 0 0 0 0 0 0 0 0 0 0 0 0 0 0 0 0 0 0 0 0 0 0 0 0 0 0 0 0 0 0 0 0 0 0 0 0 0 0 0 0 0 0 0 0 0 0 0 0 0 0 0 0 0 0 0 0 0 0 0 0 0 0 0 0 0 0 0 0 0 0 0 0 0 0 0 0 0 0 0 0 0 0 0 0 0 0 0 0 0 0 0 0 0 0 0 0 0 0 0 0 0 0 0 0 0 0 0 0 0 0 0 0 0 0 0 0 0 0 0 0 0 0 0 0 0 0 0 0 0 0 0 0 0 0 0 0 0 0 0 0 0 0 0 0 0 0 0 0 0 0 0 0 0 0 0 0 0 0 0 0 0 0 0 0 0 0 0 0 0 0 0 0 0 0 0 0 0 0 0 0 0 0 0 0 0 0 0 0 0 0 0 0 0 0 0 0 0 0 0 0 0 0 0 0 0 0 0 0 0 0 0 0 0 
0 0 0 0 0 0 0 0 0 0 0 0 0 0 0 0 0 0 0 0 0 0 0 0 0 0 0 0 0 0 1.418853e-14 1.827661e-13 2.014052e-12 1.855477e-11 1.354946e-10 7.696259e-10 3.279156e-09 1.122199e-08 3.220203e-08 8.237022e-08 1.880424e-07 3.983674e-07 8.011331e-07 1.567039e-06 2.916789e-06 5.170246e-06 8.696807e-06 1.396575e-05 2.144188e-05 3.164509e-05 4.497266e-05 6.170251e-05 8.179913e-05 1.048087e-04 1.298357e-04 1.553331e-04 1.795070e-04 2.000607e-04 2.151422e-04 2.229915e-04 2.230643e-04 2.153143e-04 2.009656e-04 1.814743e-04 1.589320e-04 1.351203e-04 1.117997e-04 9.012922e-05 7.096997e-05 5.464736e-05 4.124273e-05 3.053747e-05 2.222719e-05 1.591451e-05 1.122715e-05 7.807039e-06 5.358748e-06 3.631847e-06 2.433852e-06 1.613305e-06 1.059406e-06 6.894995e-07 4.454964e-07 2.858961e-07 1.825293e-07 1.159834e-07 7.346278e-08 4.639792e-08 2.926709e-08 1.844794e-08 1.164312e-08 7.366243e-09 4.684588e-09 3.000453e-09 1.941898e-09 1.272543e-09 8.465490e-10 5.719733e-10 3.925930e-10 2.731504e-10 1.921972e-10 1.362165e-10 9.692170e-11 6.894997e-11 4.890778e-11 3.447942e-11 2.411839e-11 1.670253e-11 1.144272e-11 7.743599e-12 5.175628e-12 3.413005e-12 2.221130e-12 1.425376e-12 9.024351e-13 5.633068e-13 3.468909e-13 2.106188e-13 1.261754e-13 7.453721e-14 4.345462e-14 2.498682e-14 1.418278e-14 7.942001e-15 4.391308e-15 2.396012e-15 1.291230e-15 0 0 0 0 0 0 0 0 0 0 0 0 0 0 0 0 0 0 0 0 0 0 0 0 0 0 0 0 0 0 0 0 0 0 0 0 0 0 0 0 0 0 0 0 0 0 0 0 0 0 0 0 0 0 0 0 0 0 0 0 0 0 0 0 0 0 0 0 0 0 0 0 0 0 0 0 0 0 0 0 0 0 0 0 0 0 0 0 0 0 0 0 0 0 0 0 0 0 0 0 0 0 0 0 0 0 0 0 0 0 0 0 0 0 0 0 0 0 0 0 0 0 0 0 0 0 0 0 0 0 0 0 0 0 0 0 0 0 0 0 0 0 0 0 0 0 0 0 0 0 0 0 0 0 0 0 0 0 0 0 0 0 0 0 0 0 0 0 0 0 0 0 0 0 0 0 0 0 0 0 0 0 0 0 0 0 0 0 0 0 0 0 0 0 0 0 0 0 0 0 0 0 0 0 0 0 0 0 0 0 0 0 0 0 0 0 0 0 0 0 0 0 0 0 0 0 0 0 0 0 0 0 0 0 0 0 0 0 0 0 0 0 0 0 0 0 0 0 0 0 0 0 0 0 0 0 0 
0 0 0 0 0 0 0 0 0 0 0 0 0 0 0 0 0 0 0 0 0 0 0 0 0 0 0 0 0 5.985672e-15 9.230210e-14 1.271935e-12 1.499613e-11 1.475145e-10 1.130040e-09 6.529180e-09 2.684555e-08 8.517486e-08 2.221824e-07 5.173987e-07 1.090402e-06 2.159121e-06 4.070417e-06 7.533708e-06 1.334842e-05 2.260196e-05 3.638612e-05 5.606532e-05 8.281712e-05 1.180925e-04 1.628810e-04 2.180584e-04 2.834654e-04 3.578906e-04 4.385521e-04 5.206903e-04 5.984073e-04 6.641322e-04 7.115214e-04 7.346886e-04 7.319404e-04 7.034299e-04 6.536825e-04 5.877994e-04 5.129346e-04 4.348189e-04 3.591226e-04 2.892671e-04 2.278718e-04 1.756989e-04 1.329333e-04 9.874043e-05 7.216222e-05 5.189598e-05 3.679697e-05 2.572171e-05 1.775881e-05 1.210859e-05 8.169714e-06 5.454212e-06 3.610870e-06 2.370596e-06 1.546859e-06 1.003205e-06 6.481071e-07 4.170487e-07 2.679074e-07 1.718072e-07 1.102673e-07 7.085933e-08 4.573578e-08 2.968567e-08 1.944988e-08 1.288439e-08 8.659908e-09 5.909184e-09 4.099840e-09 2.886787e-09 2.060295e-09 1.484293e-09 1.076383e-09 7.820496e-10 5.677815e-10 4.102843e-10 2.946072e-10 2.095927e-10 1.476463e-10 1.027657e-10 7.068312e-11 4.796306e-11 3.212896e-11 2.121704e-11 1.382554e-11 8.878622e-12 5.625677e-12 3.512757e-12 2.164346e-12 1.314287e-12 7.876701e-13 4.653288e-13 2.713794e-13 1.560454e-13 8.860337e-14 4.961490e-14 2.744285e-14 1.497335e-14 8.072263e-15 4.293935e-15 2.257525e-15 1.171397e-15 0 0 0 0 0 0 0 0 0 0 0 0 0 0 0 0 0 0 0 0 0 0 0 0 0 0 0 0 0 0 0 0 0 0 0 0 0 0 0 0 0 0 0 0 0 0 0 0 0 0 0 0 0 0 0 0 0 0 0 0 0 0 0 0 0 0 0 0 0 0 0 0 0 0 0 0 0 0 0 0 0 0 0 0 0 0 0 0 0 0 0 0 0 0 0 0 0 0 0 0 0 0 0 0 0 0 0 0 0 0 0 0 0 0 0 0 0 0 0 0 0 0 0 0 0 0 0 0 0 0 0 0 0 0 0 0 0 0 0 0 0 0 0 0 0 0 0 0 0 0 0 0 0 0 0 0 0 0 0 0 0 0 0 0 0 0 0 0 0 0 0 0 0 0 0 0 0 0 0 0 0 0 0 0 0 0 0 0 0 0 0 0 0 0 0 0 0 0 0 0 0 0 0 0 0 0 0 0 0 0 0 0 0 0 0 0 0 0 0 0 0 0 0 0 0 0 0 0 0 0 0 0 0 0 0 0 0 0 0 0 0 0 0 0 0 0 0 0 0 0 0 0 0 0 
0 0 0 0 0 0 0 0 0 0 0 0 0 0 0 0 0 0 0 0 0 0 0 0 0 0 0 0 1.870894e-15 3.392284e-14 5.603527e-13 8.302216e-12 1.057864e-10 1.113589e-09 9.030135e-09 5.321060e-08 2.143030e-07 6.322200e-07 1.494115e-06 3.101355e-06 5.860651e-06 1.065958e-05 1.887477e-05 3.324055e-05 5.632447e-05 9.139152e-05 1.411045e-04 2.085522e-04 2.960100e-04 4.065127e-04 5.425503e-04 7.063560e-04 8.986658e-04 1.116428e-03 1.353391e-03 1.595375e-03 1.825527e-03 2.019143e-03 2.156238e-03 2.217328e-03 2.197945e-03 2.099917e-03 1.939127e-03 1.732997e-03 1.503775e-03 1.268961e-03 1.044385e-03 8.394937e-04 6.606566e-04 5.095568e-04 3.859452e-04 2.872673e-04 2.104609e-04 1.518399e-04 1.080304e-04 7.582759e-05 5.258462e-05 3.604615e-05 2.446376e-05 1.644871e-05 1.097587e-05 7.273641e-06 4.795560e-06 3.147746e-06 2.060642e-06 1.346375e-06 8.797033e-07 5.754078e-07 3.777060e-07 2.492395e-07 1.658514e-07 1.115363e-07 7.604208e-08 5.263565e-08 3.704542e-08 2.648890e-08 1.921879e-08 1.410225e-08 1.043254e-08 7.747898e-09 5.757777e-09 4.265644e-09 3.143060e-09 2.297127e-09 1.663063e-09 1.190505e-09 8.422098e-10 5.880812e-10 4.052959e-10 2.754466e-10 1.846553e-10 1.220225e-10 7.952206e-11 5.107901e-11 3.235748e-11 2.020422e-11 1.244375e-11 7.555556e-12 4.526056e-12 2.673465e-12 1.558408e-12 8.959781e-13 5.084974e-13 2.847109e-13 1.574060e-13 8.587757e-14 4.627718e-14 2.461571e-14 1.293636e-14 6.712521e-15 3.442201e-15 1.743305e-15 0 0 0 0 0 0 0 0 0 0 0 0 0 0 0 0 0 0 0 0 0 0 0 0 0 0 0 0 0 0 0 0 0 0 0 0 0 0 0 0 0 0 0 0 0 0 0 0 0 0 0 0 0 0 0 0 0 0 0 0 0 0 0 0 0 0 0 0 0 0 0 0 0 0 0 0 0 0 0 0 0 0 0 0 0 0 0 0 0 0 0 0 0 0 0 0 0 0 0 0 0 0 0 0 0 0 0 0 0 0 0 0 0 0 0 0 0 0 0 0 0 0 0 0 0 0 0 0 0 0 0 0 0 0 0 0 0 0 0 0 0 0 0 0 0 0 0 0 0 0 0 0 0 0 0 0 0 0 0 0 0 0 0 0 0 0 0 0 0 0 0 0 0 0 0 0 0 0 0 0 0 0 0 0 0 0 0 0 0 0 0 0 0 0 0 0 0 0 0 0 0 0 0 0 0 0 0 0 0 0 0 0 0 0 0 0 0 0 0 0 0 0 0 0 0 0 0 0 0 0 0 0 0 0 0 0 0 0 0 0 0 0 0 0 0 0 0 0 0 0 0 0 