# vtk DataFile Version 2.0
Comment goes here
ASCII

DATASET STRUCTURED_POINTS
FIELD FieldData 1
TIME 1 1 double
2.40000000
DIMENSIONS    384   64   1

ORIGIN    0.000   0.000   0.000
SPACING   0.078125 0.078125   1.000

POINT_DATA   24576
SCALARS Concentration double
LOOKUP_TABLE default

0 0 0 0 0 0 0 0 0 0 0 0 0 0 0 0 0 0 0 0 0 0 0 0 0 0 0 0 0 0 0 0 0 0 0 0 0 0 0 0 0 0 0 0 0 0 0 0 0 0 0 0 0 0 0 0 0 0 0 1.143643e-15 2.752065e-15 6.677575e-15 1.616580e-14 3.898907e-14 9.401257e-14 2.300563e-13 5.746128e-13 1.421484e-12 3.433449e-12 8.010762e-12 1.802623e-11 3.897720e-11 8.104432e-11 1.616910e-10 3.097934e-10 5.690740e-10 1.002964e-09 1.693891e-09 2.743121e-09 4.255910e-09 6.330045e-09 9.021336e-09 1.232786e-08 1.615016e-08 2.029904e-08 2.448055e-08 2.835235e-08 3.154411e-08 3.374621e-08 3.473259e-08 3.442809e-08 3.288948e-08 3.031580e-08 2.698480e-08 2.322439e-08 1.934498e-08 1.561561e-08 1.222876e-08 9.303155e-09 6.883346e-09 4.960204e-09 3.485378e-09 2.391507e-09 1.604357e-09 1.053825e-09 6.786207e-10 4.290742e-10 2.667586e-10 1.634253e-10 9.905216e-11 5.971982e-11 3.583694e-11 2.142305e-11 1.277361e-11 7.615072e-12 4.557347e-12 2.757160e-12 1.704571e-12 1.093398e-12 7.403593e-13 5.365514e-13 4.176057e-13 3.459162e-13 2.998056e-13 2.670830e-13 2.411225e-13 2.185282e-13 1.977128e-13 1.780646e-13 1.594455e-13 1.419200e-13 1.255963e-13 1.105665e-13 9.687071e-14 8.449357e-14 7.337257e-14 6.343317e-14 5.459650e-14 4.679205e-14 3.992062e-14 3.388303e-14 2.859731e-14 2.399438e-14 2.000964e-14 1.658354e-14 1.365791e-14 1.117800e-14 9.090869e-15 7.347369e-15 5.901222e-15 4.710498e-15 3.736851e-15 2.946388e-15 2.308950e-15 1.798485e-15 1.392374e-15 1.071480e-15 0 0 0 0 0 0 0 0 0 0 0 0 0 0 0 0 0 0 0 0 0 0 0 0 0 0 0 0 0 0 0 0 0 0 0 0 0 0 0 0 0 0 0 0 0 0 0 0 0 0 0 0 0 0 0 0 0 0 0 0 0 0 0 0 0 0 0 0 0 0 0 0 0 0 0 0 0 0 0 0 0 0 0 0 0 0 0 0 0 0 0 0 0 0 0 0 0 0 0 0 0 0 0 0 0 0 0 0 0 0 0 0 0 0 0 0 0 0 0 0 0 0 0 0 0 0 0 0 0 0 0 0 0 0 0 0 0 0 0 0 0 0 0 0 0 0 0 0 0 0 0 0 0 0 0 0 0 0 0 0 0 0 0 0 0 0 0 0 0 0 0 0 0 0 0 0 0 0 0 0 0 0 0 0 0 0 0 0 0 0 0 0 0 0 0 0 0 0 0 0 0 0 0 0 0 0 0 0 0 0 0 0 0 0 0 0 0 0 0 0 0 0 0 0 0 0 0 
0 0 0 0 0 0 0 0 0 0 0 0 0 0 0 0 0 0 0 0 0 0 0 0 0 0 0 0 0 0 0 0 0 0 0 0 0 0 0 0 0 0 0 0 0 0 0 0 0 0 0 0 0 0 0 0 0 1.057878e-15 2.683102e-15 6.677243e-15 1.633501e-14 3.939205e-14 9.395557e-14 2.223871e-13 5.246594e-13 1.250677e-12 3.037247e-12 7.316899e-12 1.724740e-11 3.936897e-11 8.684622e-11 1.844684e-10 3.774272e-10 7.422318e-10 1.403726e-09 2.548901e-09 4.445893e-09 7.439906e-09 1.195025e-08 1.840855e-08 2.720914e-08 3.856987e-08 5.246569e-08 6.847232e-08 8.579565e-08 1.032186e-07 1.193264e-07 1.325959e-07 1.417522e-07 1.458649e-07 1.446218e-07 1.382514e-07 1.275699e-07 1.137171e-07 9.804776e-08 8.184525e-08 6.623192e-08 5.201269e-08 3.969388e-08 2.947058e-08 2.131720e-08 1.503993e-08 1.036515e-08 6.986018e-09 4.611705e-09 2.985392e-09 1.898273e-09 1.187527e-09 7.331878e-10 4.493449e-10 2.738997e-10 1.660587e-10 1.001756e-10 6.013865e-11 3.594567e-11 2.139707e-11 1.269342e-11 7.509251e-12 4.436134e-12 2.621743e-12 1.555246e-12 9.306068e-13 5.661242e-13 3.539506e-13 2.306361e-13 1.588728e-13 1.169202e-13 9.211918e-14 7.716240e-14 6.782937e-14 6.169764e-14 5.736851e-14 5.403492e-14 5.122381e-14 4.865802e-14 4.617308e-14 4.367671e-14 4.112019e-14 3.848694e-14 3.577895e-14 3.301495e-14 3.022191e-14 2.743501e-14 2.468996e-14 2.202399e-14 1.946946e-14 1.705595e-14 1.480542e-14 1.273515e-14 1.085441e-14 9.167789e-15 7.673114e-15 6.364713e-15 5.232215e-15 4.263371e-15 3.443375e-15 2.757071e-15 2.188508e-15 1.722501e-15 1.344272e-15 1.040423e-15 0 0 0 0 0 0 0 0 0 0 0 0 0 0 0 0 0 0 0 0 0 0 0 0 0 0 0 0 0 0 0 0 0 0 0 0 0 0 0 0 0 0 0 0 0 0 0 0 0 0 0 0 0 0 0 0 0 0 0 0 0 0 0 0 0 0 0 0 0 0 0 0 0 0 0 0 0 0 0 0 0 0 0 0 0 0 0 0 0 0 0 0 0 0 0 0 0 0 0 0 0 0 0 0 0 0 0 0 0 0 0 0 0 0 0 0 0 0 0 0 0 0 0 0 0 0 0 0 0 0 0 0 0 0 0 0 0 0 0 0 0 0 0 0 0 0 0 0 0 0 0 0 0 0 0 0 0 0 0 0 0 0 0 0 0 0 0 0 0 0 0 0 0 0 0 0 0 0 0 0 0 0 0 0 0 0 0 0 0 0 0 0 0 0 0 0 0 0 0 0 0 0 0 0 0 0 0 0 0 0 0 0 0 0 0 0 0 0 0 0 0 0 0 
0 0 0 0 0 0 0 0 0 0 0 0 0 0 0 0 0 0 0 0 0 0 0 0 0 0 0 0 0 0 0 0 0 0 0 0 0 0 0 0 0 0 0 0 0 0 0 0 0 0 0 0 0 0 0 0 2.422987e-15 6.234049e-15 1.565999e-14 3.849653e-14 9.289311e-14 2.206359e-13 5.176210e-13 1.203003e-12 2.781311e-12 6.465267e-12 1.529604e-11 3.595372e-11 8.287963e-11 1.853967e-10 4.015919e-10 8.390205e-10 1.691232e-09 3.281137e-09 6.130082e-09 1.100859e-08 1.901198e-08 3.153195e-08 5.024664e-08 7.685553e-08 1.128971e-07 1.591745e-07 2.155300e-07 2.802005e-07 3.499890e-07 4.200151e-07 4.846588e-07 5.378614e-07 5.745736e-07 5.910922e-07 5.861693e-07 5.606930e-07 5.178848e-07 4.622708e-07 3.992382e-07 3.339267e-07 2.708378e-07 2.132387e-07 1.631946e-07 1.215410e-07 8.821061e-08 6.246222e-08 4.321438e-08 2.924748e-08 1.939234e-08 1.261347e-08 8.062386e-09 5.076335e-09 3.165396e-09 1.962040e-09 1.209248e-09 7.411601e-10 4.518912e-10 2.741344e-10 1.655191e-10 9.948899e-11 5.955209e-11 3.550760e-11 2.109878e-11 1.250098e-11 7.393796e-12 4.373293e-12 2.595788e-12 1.555404e-12 9.506794e-13 6.022879e-13 4.041355e-13 2.935175e-13 2.335237e-13 2.024141e-13 1.874032e-13 1.809515e-13 1.786122e-13 1.777622e-13 1.768714e-13 1.750740e-13 1.719222e-13 1.672362e-13 1.610175e-13 1.533858e-13 1.445437e-13 1.347395e-13 1.242502e-13 1.133541e-13 1.023228e-13 9.140094e-14 8.080542e-14 7.071214e-14 6.126092e-14 5.254849e-14 4.463721e-14 3.755280e-14 3.129455e-14 2.583575e-14 2.113350e-14 1.713017e-14 1.376141e-14 1.095758e-14 8.649437e-15 6.768918e-15 5.252669e-15 4.042081e-15 3.085074e-15 2.335581e-15 1.754142e-15 1.307094e-15 0 0 0 0 0 0 0 0 0 0 0 0 0 0 0 0 0 0 0 0 0 0 0 0 0 0 0 0 0 0 0 0 0 0 0 0 0 0 0 0 0 0 0 0 0 0 0 0 0 0 0 0 0 0 0 0 0 0 0 0 0 0 0 0 0 0 0 0 0 0 0 0 0 0 0 0 0 0 0 0 0 0 0 0 0 0 0 0 0 0 0 0 0 0 0 0 0 0 0 0 0 0 0 0 0 0 0 0 0 0 0 0 0 0 0 0 0 0 0 0 0 0 0 0 0 0 0 0 0 0 0 0 0 0 0 0 0 0 0 0 0 0 0 0 0 0 0 0 0 0 0 0 0 0 0 0 0 0 0 0 0 0 0 0 0 0 0 0 0 0 0 0 0 0 0 0 0 0 0 0 0 0 0 0 0 0 0 0 0 0 0 0 0 0 0 0 0 0 0 0 0 0 0 0 0 0 0 0 0 0 0 0 0 0 0 0 0 0 
0 0 0 0 0 0 0 0 0 0 0 0 0 0 0 0 0 0 0 0 0 0 0 0 0 0 0 0 0 0 0 0 0 0 0 0 0 0 0 0 0 0 0 0 0 0 0 0 0 0 0 0 0 0 1.948514e-15 5.234331e-15 1.366394e-14 3.473604e-14 8.617800e-14 2.091517e-13 4.978479e-13 1.165481e-12 2.691598e-12 6.150242e-12 1.395333e-11 3.167280e-11 7.312355e-11 1.680412e-10 3.794742e-10 8.333429e-10 1.774928e-09 3.652128e-09 7.259232e-09 1.390573e-08 2.567806e-08 4.562796e-08 7.803987e-08 1.283068e-07 2.028475e-07 3.080975e-07 4.497623e-07 6.307017e-07 8.500241e-07 1.100790e-06 1.370582e-06 1.640735e-06 1.889762e-06 2.094636e-06 2.236094e-06 2.300026e-06 2.281575e-06 2.184013e-06 2.019520e-06 1.805278e-06 1.561892e-06 1.309068e-06 1.064225e-06 8.400521e-07 6.447247e-07 4.816301e-07 3.507064e-07 2.492083e-07 1.730646e-07 1.175978e-07 7.830887e-08 5.117556e-08 3.289715e-08 2.088712e-08 1.317499e-08 8.258285e-09 5.146040e-09 3.188226e-09 1.964697e-09 1.204403e-09 7.347892e-10 4.461972e-10 2.698058e-10 1.624841e-10 9.750929e-11 5.833848e-11 3.483705e-11 2.079792e-11 1.245561e-11 7.525478e-12 4.633453e-12 2.952620e-12 1.989198e-12 1.447908e-12 1.153229e-12 1.000519e-12 9.275821e-13 8.972921e-13 8.875163e-13 8.850663e-13 8.821886e-13 8.744782e-13 8.596642e-13 8.368502e-13 8.060835e-13 7.680095e-13 7.237096e-13 6.744777e-13 6.217630e-13 5.669915e-13 5.115659e-13 4.567216e-13 4.035665e-13 3.529742e-13 3.056514e-13 2.620662e-13 2.225297e-13 1.871531e-13 1.559295e-13 1.287110e-13 1.052806e-13 8.534044e-14 6.856846e-14 5.461097e-14 4.312324e-14 3.376272e-14 2.621493e-14 2.018647e-14 1.541927e-14 1.168345e-14 8.783655e-15 6.552172e-15 4.850602e-15 3.563797e-15 2.599162e-15 1.881747e-15 1.352677e-15 0 0 0 0 0 0 0 0 0 0 0 0 0 0 0 0 0 0 0 0 0 0 0 0 0 0 0 0 0 0 0 0 0 0 0 0 0 0 0 0 0 0 0 0 0 0 0 0 0 0 0 0 0 0 0 0 0 0 0 0 0 0 0 0 0 0 0 0 0 0 0 0 0 0 0 0 0 0 0 0 0 0 0 0 0 0 0 0 0 0 0 0 0 0 0 0 0 0 0 0 0 0 0 0 0 0 0 0 0 0 0 0 0 0 0 0 0 0 0 0 0 0 0 0 0 0 0 0 0 0 0 0 0 0 0 0 0 0 0 0 0 0 0 0 0 0 0 0 0 0 0 0 0 0 0 0 0 0 0 0 0 0 0 0 0 0 0 0 0 0 0 0 0 0 0 0 0 0 0 0 0 0 0 0 0 0 0 0 0 0 0 0 0 0 0 0 0 0 0 0 0 0 0 0 0 0 0 0 0 0 0 0 0 
0 0 0 0 0 0 0 0 0 0 0 0 0 0 0 0 0 0 0 0 0 0 0 0 0 0 0 0 0 0 0 0 0 0 0 0 0 0 0 0 0 0 0 0 0 0 0 0 0 0 0 0 1.375599e-15 3.881260e-15 1.061074e-14 2.815198e-14 7.260899e-14 1.823690e-13 4.470066e-13 1.071356e-12 2.517301e-12 5.812129e-12 1.322711e-11 2.974581e-11 6.632322e-11 1.473386e-10 3.321203e-10 7.469190e-10 1.654556e-09 3.570844e-09 7.486400e-09 1.518215e-08 2.977781e-08 5.634297e-08 1.028680e-07 1.808790e-07 3.064033e-07 4.993303e-07 7.831266e-07 1.180898e-06 1.712883e-06 2.388518e-06 3.203679e-06 4.132090e-06 5.128072e-06 6.123327e-06 7.039828e-06 7.793859e-06 8.315468e-06 8.553072e-06 8.488511e-06 8.133058e-06 7.530335e-06 6.742648e-06 5.844973e-06 4.909749e-06 4.001205e-06 3.166829e-06 2.437420e-06 1.826410e-06 1.334213e-06 9.513308e-07 6.630343e-07 4.522689e-07 3.024202e-07 1.986012e-07 1.285333e-07 8.250593e-08 5.261655e-08 3.334058e-08 2.099788e-08 1.314684e-08 8.185911e-09 5.070062e-09 3.124776e-09 1.916829e-09 1.170763e-09 7.121900e-10 4.317033e-10 2.609094e-10 1.573989e-10 9.495056e-11 5.747011e-11 3.510223e-11 2.185129e-11 1.407587e-11 9.576446e-12 7.025147e-12 5.623260e-12 4.889708e-12 4.535035e-12 4.384571e-12 4.332969e-12 4.316836e-12 4.298591e-12 4.256783e-12 4.180350e-12 4.065008e-12 3.911091e-12 3.721934e-12 3.502928e-12 3.260555e-12 3.001923e-12 2.734072e-12 2.463775e-12 2.197050e-12 1.939152e-12 1.694274e-12 1.465684e-12 1.255577e-12 1.065308e-12 8.953475e-13 7.455413e-13 6.151281e-13 5.029782e-13 4.076313e-13 3.274872e-13 2.608378e-13 2.060004e-13 1.613334e-13 1.253171e-13 9.655190e-14 7.379831e-14 5.596281e-14 4.211053e-14 3.144493e-14 2.330506e-14 1.714425e-14 1.252067e-14 9.078306e-15 6.536168e-15 4.673153e-15 3.318477e-15 2.340653e-15 1.640135e-15 1.141812e-15 0 0 0 0 0 0 0 0 0 0 0 0 0 0 0 0 0 0 0 0 0 0 0 0 0 0 0 0 0 0 0 0 0 0 0 0 0 0 0 0 0 0 0 0 0 0 0 0 0 0 0 0 0 0 0 0 0 0 0 0 0 0 0 0 0 0 0 0 0 0 0 0 0 0 0 0 0 0 0 0 0 0 0 0 0 0 0 0 0 0 0 0 0 0 0 0 0 0 0 0 0 0 0 0 0 0 0 0 0 0 0 0 0 0 0 0 0 0 0 0 0 0 0 0 0 0 0 0 0 0 0 0 0 0 0 0 0 0 0 0 0 0 0 0 0 0 0 0 0 0 0 0 0 0 0 0 0 0 0 0 0 0 0 0 0 0 0 0 0 0 0 0 0 0 0 0 0 0 0 0 0 0 0 0 0 0 0 0 0 0 0 0 0 0 0 0 0 0 0 0 0 0 0 0 0 0 0 0 
0 0 0 0 0 0 0 0 0 0 0 0 0 0 0 0 0 0 0 0 0 0 0 0 0 0 0 0 0 0 0 0 0 0 0 0 0 0 0 0 0 0 0 0 0 0 0 0 0 0 0 2.523389e-15 7.246218e-15 2.015825e-14 5.437096e-14 1.424342e-13 3.628365e-13 9.004214e-13 2.180399e-12 5.162413e-12 1.197654e-11 2.728962e-11 6.123583e-11 1.356648e-10 2.975888e-10 6.489359e-10 1.428218e-09 3.145791e-09 6.841975e-09 1.452831e-08 3.000662e-08 6.002252e-08 1.162180e-07 2.172850e-07 3.922642e-07 6.825832e-07 1.145030e-06 1.849354e-06 2.876581e-06 4.305607e-06 6.203781e-06 8.600875e-06 1.147876e-05 1.474439e-05 1.823763e-05 2.172298e-05 2.493084e-05 2.757354e-05 2.940879e-05 3.025746e-05 3.005353e-05 2.883243e-05 2.674145e-05 2.399370e-05 2.084864e-05 1.755858e-05 1.435007e-05 1.139191e-05 8.796088e-06 6.613087e-06 4.847880e-06 3.469262e-06 2.427226e-06 1.662427e-06 1.116773e-06 7.377664e-07 4.822319e-07 3.129852e-07 2.017742e-07 1.292184e-07 8.223911e-08 5.202384e-08 3.272611e-08 2.047553e-08 1.274746e-08 7.898415e-09 4.872928e-09 2.994180e-09 1.833479e-09 1.119505e-09 6.824617e-10 4.161040e-10 2.546333e-10 1.572846e-10 9.903560e-11 6.451035e-11 4.433500e-11 3.278175e-11 2.637065e-11 2.297897e-11 2.131549e-11 2.059107e-11 2.032457e-11 2.022336e-11 2.011261e-11 1.989202e-11 1.950998e-11 1.894675e-11 1.820468e-11 1.729998e-11 1.625883e-11 1.511196e-11 1.389325e-11 1.263553e-11 1.137060e-11 1.012602e-11 8.926087e-12 7.789546e-12 6.731212e-12 5.760479e-12 4.883227e-12 4.100941e-12 3.412591e-12 2.814144e-12 2.300184e-12 1.863646e-12 1.497062e-12 1.192383e-12 9.418497e-13 7.378291e-13 5.733614e-13 4.419915e-13 3.380671e-13 2.565701e-13 1.932478e-13 1.444564e-13 1.071927e-13 7.895961e-14 5.774987e-14 4.193788e-14 3.024601e-14 2.166396e-14 1.541398e-14 1.089433e-14 7.650617e-15 5.338317e-15 3.701945e-15 2.551382e-15 1.748041e-15 1.190592e-15 0 0 0 0 0 0 0 0 0 0 0 0 0 0 0 0 0 0 0 0 0 0 0 0 0 0 0 0 0 0 0 0 0 0 0 0 0 0 0 0 0 0 0 0 0 0 0 0 0 0 0 0 0 0 0 0 0 0 0 0 0 0 0 0 0 0 0 0 0 0 0 0 0 0 0 0 0 0 0 0 0 0 0 0 0 0 0 0 0 0 0 0 0 0 0 0 0 0 0 0 0 0 0 0 0 0 0 0 0 0 0 0 0 0 0 0 0 0 0 0 0 0 0 0 0 0 0 0 0 0 0 0 0 0 0 0 0 0 0 0 0 0 0 0 0 0 0 0 0 0 0 0 0 0 0 0 0 0 0 0 0 0 0 0 0 0 0 0 0 0 0 0 0 0 0 0 0 0 0 0 0 0 0 0 0 0 0 0 0 0 0 0 0 0 0 0 0 0 0 0 0 0 0 0 
0 0 0 0 0 0 0 0 0 0 0 0 0 0 0 0 0 0 0 0 0 0 0 0 0 0 0 0 0 0 0 0 0 0 0 0 0 0 0 0 0 0 0 0 0 0 0 0 0 1.453579e-15 4.382588e-15 1.278282e-14 3.609989e-14 9.887791e-14 2.629003e-13 6.794670e-13 1.709007e-12 4.188971e-12 1.002242e-11 2.344314e-11 5.372530e-11 1.208635e-10 2.676269e-10 5.845406e-10 1.262929e-09 2.707214e-09 5.823412e-09 1.256672e-08 2.684984e-08 5.611236e-08 1.142209e-07 2.253902e-07 4.308747e-07 7.958870e-07 1.420515e-06 2.445326e-06 4.060834e-06 6.497267e-06 1.001924e-05 1.487916e-05 2.128922e-05 2.933461e-05 3.894618e-05 4.981064e-05 6.140282e-05 7.295397e-05 8.358915e-05 9.237202e-05 9.851116e-05 1.014141e-04 1.008508e-04 9.692022e-05 9.008592e-05 8.103511e-05 7.061256e-05 5.965294e-05 4.891121e-05 3.896141e-05 3.018937e-05 2.277974e-05 1.676128e-05 1.204098e-05 8.457883e-06 5.818019e-06 3.928629e-06 2.616071e-06 1.728652e-06 1.133913e-06 7.386146e-07 4.778803e-07 3.072184e-07 1.963003e-07 1.247151e-07 7.880710e-08 4.954956e-08 3.100755e-08 1.932140e-08 1.199245e-08 7.418826e-09 4.577396e-09 2.820321e-09 1.738613e-09 1.076064e-09 6.725222e-10 4.285485e-10 2.824713e-10 1.962412e-10 1.463749e-10 1.184230e-10 1.034734e-10 9.603306e-11 9.270550e-11 9.139449e-11 9.081235e-11 9.018367e-11 8.906208e-11 8.721848e-11 8.456795e-11 8.112445e-11 7.696564e-11 7.221192e-11 6.700497e-11 6.149735e-11 5.583766e-11 5.016644e-11 4.460623e-11 3.926204e-11 3.421552e-11 2.952854e-11 2.524061e-11 2.137404e-11 1.793347e-11 1.491135e-11 1.228849e-11 1.003896e-11 8.130813e-12 6.529952e-12 5.200659e-12 4.108198e-12 3.219040e-12 2.502382e-12 1.930044e-12 1.477190e-12 1.121999e-12 8.458713e-13 6.329969e-13 4.702767e-13 3.468870e-13 2.540828e-13 1.848173e-13 1.335247e-13 9.582066e-14 6.831388e-14 4.838814e-14 3.405847e-14 2.382304e-14 1.656285e-14 1.144646e-14 7.864848e-15 5.373162e-15 3.650745e-15 2.467112e-15 1.658643e-15 1.109499e-15 0 0 0 0 0 0 0 0 0 0 0 0 0 0 0 0 0 0 0 0 0 0 0 0 0 0 0 0 0 0 0 0 0 0 0 0 0 0 0 0 0 0 0 0 0 0 0 0 0 0 0 0 0 0 0 0 0 0 0 0 0 0 0 0 0 0 0 0 0 0 0 0 0 0 0 0 0 0 0 0 0 0 0 0 0 0 0 0 0 0 0 0 0 0 0 0 0 0 0 0 0 0 0 0 0 0 0 0 0 0 0 0 0 0 0 0 0 0 0 0 0 0 0 0 0 0 0 0 0 0 0 0 0 0 0 0 0 0 0 0 0 0 0 0 0 0 0 0 0 0 0 0 0 0 0 0 0 0 0 0 0 0 0 0 0 0 0 0 0 0 0 0 0 0 0 0 0 0 0 0 0 0 0 0 0 0 0 0 0 0 0 0 0 0 0 0 0 0 0 0 
0 0 0 0 0 0 0 0 0 0 0 0 0 0 0 0 0 0 0 0 0 0 0 0 0 0 0 0 0 0 0 0 0 0 0 0 0 0 0 0 0 0 0 0 0 0 0 0 2.394024e-15 7.300621e-15 2.151981e-14 6.148180e-14 1.703362e-13 4.585166e-13 1.199714e-12 3.055621e-12 7.580600e-12 1.834319e-11 4.334133e-11 1.001501e-10 2.267062e-10 5.036867e-10 1.100846e-09 2.371887e-09 5.050308e-09 1.065368e-08 2.241475e-08 4.741877e-08 9.956218e-08 2.048925e-07 4.111575e-07 8.005822e-07 1.510967e-06 2.757223e-06 4.863770e-06 8.280413e-06 1.360660e-05 2.155812e-05 3.294274e-05 4.852129e-05 6.891383e-05 9.435187e-05 1.245852e-04 1.586377e-04 1.948845e-04 2.309854e-04 2.642638e-04 2.918657e-04 3.113457e-04 3.208553e-04 3.196218e-04 3.078760e-04 2.869700e-04 2.589673e-04 2.264560e-04 1.920277e-04 1.580697e-04 1.264241e-04 9.836644e-05 7.453483e-05 5.507703e-05 3.973817e-05 2.804040e-05 1.938598e-05 1.317767e-05 8.866307e-06 5.920344e-06 3.923522e-06 2.581692e-06 1.687017e-06 1.095295e-06 7.067170e-07 4.534040e-07 2.893079e-07 1.836943e-07 1.160924e-07 7.306745e-08 4.581416e-08 2.863797e-08 1.785825e-08 1.112456e-08 6.935725e-09 4.343297e-09 2.747488e-09 1.772570e-09 1.182688e-09 8.309212e-10 6.254183e-10 5.090506e-10 4.460982e-10 4.142841e-10 3.996477e-10 3.934755e-10 3.903578e-10 3.870150e-10 3.815523e-10 3.730047e-10 3.610240e-10 3.456928e-10 3.273611e-10 3.065668e-10 2.839261e-10 2.601043e-10 2.357342e-10 2.114175e-10 1.876644e-10 1.649153e-10 1.434999e-10 1.236705e-10 1.055765e-10 8.930203e-11 7.485147e-11 6.218493e-11 5.121022e-11 4.181298e-11 3.385171e-11 2.718053e-11 2.164549e-11 1.710014e-11 1.340210e-11 1.042262e-11 8.043125e-12 6.160360e-12 4.683065e-12 3.534168e-12 2.647790e-12 1.969748e-12 1.455033e-12 1.067489e-12 7.778309e-13 5.630337e-13 4.048679e-13 2.892820e-13 2.053817e-13 1.449231e-13 1.016377e-13 7.086337e-14 4.911878e-14 3.385703e-14 2.320810e-14 1.582510e-14 1.073475e-14 7.246275e-15 4.867986e-15 3.255743e-15 2.168038e-15 1.438050e-15 0 0 0 0 0 0 0 0 0 0 0 0 0 0 0 0 0 0 0 0 0 0 0 0 0 0 0 0 0 0 0 0 0 0 0 0 0 0 0 0 0 0 0 0 0 0 0 0 0 0 0 0 0 0 0 0 0 0 0 0 0 0 0 0 0 0 0 0 0 0 0 0 0 0 0 0 0 0 0 0 0 0 0 0 0 0 0 0 0 0 0 0 0 0 0 0 0 0 0 0 0 0 0 0 0 0 0 0 0 0 0 0 0 0 0 0 0 0 0 0 0 0 0 0 0 0 0 0 0 0 0 0 0 0 0 0 0 0 0 0 0 0 0 0 0 0 0 0 0 0 0 0 0 0 0 0 0 0 0 0 0 0 0 0 0 0 0 0 0 0 0 0 0 0 0 0 0 0 0 0 0 0 0 0 0 0 0 0 0 0 0 0 0 0 0 0 0 
0 0 0 0 0 0 0 0 0 0 0 0 0 0 0 0 0 0 0 0 0 0 0 0 0 0 0 0 0 0 0 0 0 0 0 0 0 0 0 0 0 0 0 0 0 0 1.222759e-15 3.885493e-15 1.190361e-14 3.528641e-14 1.013194e-13 2.825328e-13 7.656873e-13 2.020058e-12 5.190767e-12 1.300446e-11 3.178435e-11 7.584758e-11 1.769021e-10 4.036564e-10 9.026087e-10 1.980589e-09 4.274461e-09 9.088579e-09 1.908530e-08 3.965218e-08 8.184664e-08 1.694804e-07 3.495329e-07 7.080148e-07 1.400284e-06 2.689200e-06 5.008857e-06 9.024244e-06 1.572490e-05 2.645814e-05 4.299552e-05 6.741310e-05 1.020248e-04 1.489592e-04 2.099200e-04 2.854630e-04 3.747884e-04 4.750269e-04 5.815175e-04 6.875675e-04 7.855527e-04 8.672964e-04 9.257320e-04 9.554061e-04 9.538605e-04 9.214832e-04 8.618845e-04 7.808294e-04 6.856986e-04 5.840627e-04 4.829998e-04 3.881257e-04 3.034136e-04 2.309941e-04 1.714951e-04 1.243249e-04 8.816269e-05 6.130400e-05 4.202336e-05 2.856509e-05 1.926326e-05 1.289089e-05 8.563740e-06 5.649446e-06 3.702611e-06 2.411701e-06 1.561928e-06 1.006188e-06 6.450447e-07 4.116766e-07 2.617010e-07 1.657799e-07 1.047210e-07 6.601607e-08 4.158723e-08 2.623235e-08 1.662744e-08 1.065211e-08 6.962396e-09 4.706644e-09 3.347603e-09 2.545809e-09 2.087227e-09 1.836432e-09 1.707764e-09 1.646890e-09 1.619470e-09 1.603985e-09 1.587302e-09 1.561832e-09 1.523740e-09 1.471724e-09 1.406223e-09 1.328784e-09 1.241677e-09 1.147498e-09 1.048977e-09 9.487192e-10 8.491372e-10 7.522847e-10 6.598779e-10 5.732076e-10 4.932120e-10 4.204438e-10 3.551670e-10 2.973553e-10 2.467892e-10 2.030683e-10 1.656936e-10 1.340805e-10 1.076214e-10 8.569338e-11 6.769918e-11 5.306940e-11 4.128567e-11 3.187731e-11 2.443202e-11 1.858929e-11 1.404298e-11 1.053361e-11 7.846657e-12 5.805090e-12 4.265986e-12 3.114179e-12 2.258669e-12 1.627704e-12 1.165699e-12 8.296925e-13 5.870114e-13 4.128668e-13 2.887308e-13 2.007879e-13 1.388794e-13 9.555294e-14 6.541280e-14 4.456114e-14 3.021663e-14 2.039907e-14 1.371481e-14 9.185076e-15 6.129876e-15 4.077725e-15 2.705010e-15 1.789985e-15 1.182142e-15 0 0 0 0 0 0 0 0 0 0 0 0 0 0 0 0 0 0 0 0 0 0 0 0 0 0 0 0 0 0 0 0 0 0 0 0 0 0 0 0 0 0 0 0 0 0 0 0 0 0 0 0 0 0 0 0 0 0 0 0 0 0 0 0 0 0 0 0 0 0 0 0 0 0 0 0 0 0 0 0 0 0 0 0 0 0 0 0 0 0 0 0 0 0 0 0 0 0 0 0 0 0 0 0 0 0 0 0 0 0 0 0 0 0 0 0 0 0 0 0 0 0 0 0 0 0 0 0 0 0 0 0 0 0 0 0 0 0 0 0 0 0 0 0 0 0 0 0 0 0 0 0 0 0 0 0 0 0 0 0 0 0 0 0 0 0 0 0 0 0 0 0 0 0 0 0 0 0 0 0 0 0 0 0 0 0 0 0 0 0 0 0 0 
0 0 0 0 0 0 0 0 0 0 0 0 0 0 0 0 0 0 0 0 0 0 0 0 0 0 0 0 0 0 0 0 0 0 0 0 0 0 0 0 0 0 0 0 0 2.005407e-15 6.365153e-15 1.949136e-14 5.764650e-14 1.653389e-13 4.602820e-13 1.247532e-12 3.293625e-12 8.486927e-12 2.134772e-11 5.247572e-11 1.260710e-10 2.962305e-10 6.810795e-10 1.533462e-09 3.384797e-09 7.333620e-09 1.562475e-08 3.278855e-08 6.790946e-08 1.390342e-07 2.821709e-07 5.715692e-07 1.156901e-06 2.305995e-06 4.493561e-06 8.510034e-06 1.563625e-05 2.780370e-05 4.783164e-05 7.950140e-05 1.276890e-04 1.980308e-04 2.966776e-04 4.292086e-04 5.999251e-04 8.100811e-04 1.057246e-03 1.333653e-03 1.626752e-03 1.918811e-03 2.189490e-03 2.417027e-03 2.582261e-03 2.670166e-03 2.673339e-03 2.591896e-03 2.434580e-03 2.216174e-03 1.956254e-03 1.675360e-03 1.393227e-03 1.125880e-03 8.851146e-04 6.776074e-04 5.058546e-04 3.687468e-04 2.630190e-04 1.841656e-04 1.274836e-04 8.750254e-05 5.957472e-05 4.024121e-05 2.698158e-05 1.796315e-05 1.188128e-05 7.810096e-06 5.105279e-06 3.319731e-06 2.148666e-06 1.384751e-06 8.891739e-07 5.691107e-07 3.633672e-07 2.316103e-07 1.475919e-07 9.421579e-08 6.047023e-08 3.924769e-08 2.600328e-08 1.782046e-08 1.284086e-08 9.874004e-09 8.160651e-09 7.213341e-09 6.719908e-09 6.479557e-09 6.363999e-09 6.292037e-09 6.213882e-09 6.100768e-09 5.938414e-09 5.722268e-09 5.454613e-09 5.141877e-09 4.793327e-09 4.419237e-09 4.030427e-09 3.636938e-09 3.248102e-09 2.871613e-09 2.513941e-09 2.179726e-09 1.872362e-09 1.593639e-09 1.344365e-09 1.124160e-09 9.320279e-10 7.662390e-10 6.247887e-10 5.053230e-10 4.054770e-10 3.228116e-10 2.550402e-10 1.999688e-10 1.556320e-10 1.202351e-10 9.222467e-11 7.023526e-11 5.311831e-11 3.989515e-11 2.976276e-11 2.205503e-11 1.623742e-11 1.187695e-11 8.633135e-12 6.236100e-12 4.477555e-12 3.195658e-12 2.267674e-12 1.599983e-12 1.122750e-12 7.836208e-13 5.441449e-13 3.759605e-13 2.585447e-13 1.769879e-13 1.206515e-13 8.191642e-14 5.541769e-14 3.736425e-14 2.511945e-14 1.684323e-14 1.127047e-14 7.528292e-15 5.022798e-15 3.348393e-15 2.231661e-15 1.487505e-15 0 0 0 0 0 0 0 0 0 0 0 0 0 0 0 0 0 0 0 0 0 0 0 0 0 0 0 0 0 0 0 0 0 0 0 0 0 0 0 0 0 0 0 0 0 0 0 0 0 0 0 0 0 0 0 0 0 0 0 0 0 0 0 0 0 0 0 0 0 0 0 0 0 0 0 0 0 0 0 0 0 0 0 0 0 0 0 0 0 0 0 0 0 0 0 0 0 0 0 0 0 0 0 0 0 0 0 0 0 0 0 0 0 0 0 0 0 0 0 0 0 0 0 0 0 0 0 0 0 0 0 0 0 0 0 0 0 0 0 0 0 0 0 0 0 0 0 0 0 0 0 0 0 0 0 0 0 0 0 0 0 0 0 0 0 0 0 0 0 0 0 0 0 0 0 0 0 0 0 0 0 0 0 0 0 0 0 0 0 0 
0 0 0 0 0 0 0 0 0 0 0 0 0 0 0 0 0 0 0 0 0 0 0 0 0 0 0 0 0 0 0 0 0 0 0 0 0 0 0 0 0 0 0 1.051172e-15 3.442426e-15 1.085131e-14 3.293116e-14 9.663698e-14 2.745150e-13 7.578844e-13 2.035880e-12 5.337464e-12 1.366839e-11 3.425355e-11 8.403799e-11 2.020047e-10 4.758030e-10 1.098323e-09 2.485480e-09 5.514635e-09 1.200757e-08 2.567318e-08 5.399221e-08 1.118078e-07 2.284413e-07 4.609714e-07 9.207344e-07 1.826106e-06 3.622615e-06 7.096859e-06 1.361388e-05 2.540092e-05 4.600601e-05 8.066955e-05 1.369152e-04 2.246255e-04 3.563513e-04 5.462918e-04 8.097256e-04 1.160124e-03 1.607632e-03 2.154556e-03 2.794223e-03 3.506767e-03 4.260919e-03 5.012700e-03 5.711921e-03 6.304552e-03 6.742548e-03 6.987273e-03 7.018148e-03 6.832763e-03 6.449996e-03 5.904528e-03 5.243982e-03 4.520108e-03 3.783870e-03 3.078267e-03 2.435985e-03 1.876996e-03 1.410078e-03 1.034335e-03 7.425850e-04 5.240967e-04 3.662605e-04 2.537132e-04 1.742828e-04 1.187635e-04 8.032463e-05 5.394321e-05 3.599070e-05 2.386760e-05 1.574144e-05 1.033000e-05 6.748858e-06 4.391763e-06 2.848321e-06 1.842084e-06 1.188849e-06 7.663232e-07 4.940634e-07 3.192751e-07 2.075718e-07 1.365717e-07 9.179017e-08 6.384225e-08 4.666823e-08 3.634277e-08 3.032579e-08 2.696597e-08 2.519013e-08 2.429952e-08 2.384233e-08 2.353039e-08 2.318627e-08 2.270803e-08 2.204616e-08 2.118683e-08 2.014084e-08 1.893425e-08 1.760270e-08 1.618545e-08 1.472265e-08 1.325157e-08 1.180583e-08 1.041320e-08 9.096149e-09 7.870781e-09 6.748109e-09 5.733740e-09 4.829370e-09 4.032862e-09 3.339644e-09 2.742914e-09 2.234776e-09 1.806409e-09 1.448892e-09 1.153284e-09 9.111480e-10 7.145469e-10 5.563275e-10 4.300514e-10 3.301167e-10 2.516526e-10 1.905412e-10 1.433040e-10 1.070723e-10 7.948291e-11 5.862983e-11 4.297756e-11 3.131247e-11 2.267666e-11 1.632704e-11 1.168804e-11 8.320908e-12 5.891730e-12 4.150102e-12 2.908564e-12 2.028704e-12 1.408496e-12 9.736996e-13 6.703845e-13 4.598453e-13 3.143473e-13 2.142413e-13 1.456260e-13 9.877055e-14 6.687100e-14 4.521669e-14 3.054857e-14 2.063221e-14 1.393594e-14 9.418305e-15 6.370785e-15 4.314772e-15 2.926453e-15 1.988062e-15 1.352738e-15 0 0 0 0 0 0 0 0 0 0 0 0 0 0 0 0 0 0 0 0 0 0 0 0 0 0 0 0 0 0 0 0 0 0 0 0 0 0 0 0 0 0 0 0 0 0 0 0 0 0 0 0 0 0 0 0 0 0 0 0 0 0 0 0 0 0 0 0 0 0 0 0 0 0 0 0 0 0 0 0 0 0 0 0 0 0 0 0 0 0 0 0 0 0 0 0 0 0 0 0 0 0 0 0 0 0 0 0 0 0 0 0 0 0 0 0 0 0 0 0 0 0 0 0 0 0 0 0 0 0 0 0 0 0 0 0 0 0 0 0 0 0 0 0 0 0 0 0 0 0 0 0 0 0 0 0 0 0 0 0 0 0 0 0 0 0 0 0 0 0 0 0 0 0 0 0 0 0 0 0 0 0 0 0 0 0 
0 0 0 0 0 0 0 0 0 0 0 0 0 0 0 0 0 0 0 0 0 0 0 0 0 0 0 0 0 0 0 0 0 0 0 0 0 0 0 0 0 0 2.091638e-15 6.491610e-15 1.989316e-14 5.929635e-14 1.708990e-13 4.778514e-13 1.296554e-12 3.427814e-12 8.837910e-12 2.229948e-11 5.510355e-11 1.336597e-10 3.183286e-10 7.451592e-10 1.714120e-09 3.875196e-09 8.607913e-09 1.878391e-08 4.027810e-08 8.489142e-08 1.760541e-07 3.595682e-07 7.243192e-07 1.440296e-06 2.831315e-06 5.511661e-06 1.069217e-05 2.056276e-05 3.879993e-05 7.128998e-05 1.272083e-04 2.198643e-04 3.679537e-04 5.956204e-04 9.328563e-04 1.413060e-03 2.071263e-03 2.937750e-03 4.034069e-03 5.363634e-03 6.908556e-03 8.621651e-03 1.042956e-02 1.223153e-02 1.391229e-02 1.534864e-02 1.642925e-02 1.706326e-02 1.719828e-02 1.682215e-02 1.597054e-02 1.471648e-02 1.316559e-02 1.143666e-02 9.651326e-03 7.915824e-03 6.315138e-03 4.904637e-03 3.713073e-03 2.744280e-03 1.985634e-03 1.414270e-03 9.976085e-04 6.972515e-04 4.831422e-04 3.320354e-04 2.264636e-04 1.533593e-04 1.031861e-04 6.901347e-05 4.591519e-05 3.040115e-05 2.004660e-05 1.317057e-05 8.627597e-06 5.637802e-06 3.678175e-06 2.397805e-06 1.564314e-06 1.023521e-06 6.742540e-07 4.498839e-07 3.069178e-07 2.168066e-07 1.609272e-07 1.270401e-07 1.071302e-07 9.590621e-08 8.988622e-08 8.677168e-08 8.506174e-08 8.379163e-08 8.236729e-08 8.044978e-08 7.788069e-08 7.462331e-08 7.072680e-08 6.629021e-08 6.144564e-08 5.633354e-08 5.109716e-08 4.586541e-08 4.075474e-08 3.585778e-08 3.124967e-08 2.698111e-08 2.308664e-08 1.958063e-08 1.646569e-08 1.373035e-08 1.135647e-08 9.317762e-09 7.585569e-09 6.127843e-09 4.913208e-09 3.910077e-09 3.089292e-09 2.423278e-09 1.887585e-09 1.460093e-09 1.121795e-09 8.560775e-10 6.490358e-10 4.888624e-10 3.658969e-10 2.721396e-10 2.011785e-10 1.478214e-10 1.079846e-10 7.842765e-11 5.664623e-11 4.069014e-11 2.907691e-11 2.067196e-11 1.462616e-11 1.030016e-11 7.222437e-12 5.043363e-12 3.508646e-12 2.432410e-12 1.681224e-12 1.158849e-12 7.970416e-13 5.471821e-13 3.751797e-13 2.570153e-13 1.760167e-13 1.205511e-13 8.261379e-14 5.666420e-14 3.891611e-14 2.676456e-14 1.843793e-14 1.272171e-14 8.791874e-15 6.084024e-15 4.215138e-15 2.922420e-15 2.027037e-15 1.405798e-15 0 0 0 0 0 0 0 0 0 0 0 0 0 0 0 0 0 0 0 0 0 0 0 0 0 0 0 0 0 0 0 0 0 0 0 0 0 0 0 0 0 0 0 0 0 0 0 0 0 0 0 0 0 0 0 0 0 0 0 0 0 0 0 0 0 0 0 0 0 0 0 0 0 0 0 0 0 0 0 0 0 0 0 0 0 0 0 0 0 0 0 0 0 0 0 0 0 0 0 0 0 0 0 0 0 0 0 0 0 0 0 0 0 0 0 0 0 0 0 0 0 0 0 0 0 0 0 0 0 0 0 0 0 0 0 0 0 0 0 0 0 0 0 0 0 0 0 0 0 0 0 0 0 0 0 0 0 0 0 0 0 0 0 0 0 0 0 0 0 0 0 0 0 0 0 0 0 0 0 0 0 0 
0 0 0 0 0 0 0 0 0 0 0 0 0 0 0 0 0 0 0 0 0 0 0 0 0 0 0 0 0 0 0 0 0 0 0 0 0 0 1.162805e-15 2.173668e-15 3.741370e-15 7.127709e-15 1.625671e-14 4.285633e-14 1.188083e-13 3.301550e-13 8.961890e-13 2.372373e-12 6.115922e-12 1.540517e-11 3.794342e-11 9.168764e-11 2.176074e-10 5.084033e-10 1.170113e-09 2.655287e-09 5.941677e-09 1.310631e-08 2.849205e-08 6.099036e-08 1.285593e-07 2.666844e-07 5.448784e-07 1.096598e-06 2.176901e-06 4.263537e-06 8.248714e-06 1.577297e-05 2.991144e-05 5.635425e-05 1.044417e-04 1.887321e-04 3.314858e-04 5.642400e-04 9.304933e-04 1.485099e-03 2.295024e-03 3.432868e-03 4.973261e-03 6.977829e-03 9.487841e-03 1.250330e-02 1.597889e-02 1.980690e-02 2.382725e-02 2.782429e-02 3.155579e-02 3.476402e-02 3.721609e-02 3.871855e-02 3.915337e-02 3.848157e-02 3.676033e-02 3.412614e-02 3.078776e-02 2.699152e-02 2.299924e-02 1.905159e-02 1.535031e-02 1.203830e-02 9.199618e-03 6.861585e-03 5.009975e-03 3.603369e-03 2.565463e-03 1.809005e-03 1.264154e-03 8.759673e-04 6.022879e-04 4.111602e-04 2.788831e-04 1.880635e-04 1.261744e-04 8.427183e-05 5.607122e-05 3.718695e-05 2.459962e-05 1.624090e-05 1.070991e-05 7.060908e-06 4.661282e-06 3.088429e-06 2.062038e-06 1.396039e-06 9.675036e-07 6.949671e-07 5.245575e-07 4.204623e-07 3.588713e-07 3.238671e-07 3.048187e-07 2.946300e-07 2.886201e-07 2.837675e-07 2.782150e-07 2.709210e-07 2.614231e-07 2.496543e-07 2.358192e-07 2.202829e-07 2.035048e-07 1.859679e-07 1.681488e-07 1.504754e-07 1.333207e-07 1.169810e-07 1.016855e-07 8.758717e-08 7.478023e-08 6.329841e-08 5.313370e-08 4.423813e-08 3.654018e-08 2.994716e-08 2.435780e-08 1.966390e-08 1.575901e-08 1.253887e-08 9.906730e-09 7.772868e-09 6.057313e-09 4.688769e-09 3.605664e-09 2.754798e-09 2.091417e-09 1.577861e-09 1.183164e-09 8.818670e-10 6.534608e-10 4.814300e-10 3.527190e-10 2.570124e-10 1.862970e-10 1.343520e-10 9.642334e-11 6.888065e-11 4.899178e-11 3.470241e-11 2.448869e-11 1.722133e-11 1.207398e-11 8.442477e-12 5.890329e-12 4.102386e-12 2.853611e-12 1.983368e-12 1.378156e-12 9.577646e-13 6.660350e-13 4.636098e-13 3.231338e-13 2.255569e-13 1.577063e-13 1.104438e-13 7.746674e-14 5.440770e-14 3.825383e-14 2.691388e-14 1.894108e-14 1.332709e-14 9.370911e-15 6.581252e-15 4.614571e-15 3.228692e-15 2.253366e-15 1.568012e-15 1.087545e-15 0 0 0 0 0 0 0 0 0 0 0 0 0 0 0 0 0 0 0 0 0 0 0 0 0 0 0 0 0 0 0 0 0 0 0 0 0 0 0 0 0 0 0 0 0 0 0 0 0 0 0 0 0 0 0 0 0 0 0 0 0 0 0 0 0 0 0 0 0 0 0 0 0 0 0 0 0 0 0 0 0 0 0 0 0 0 0 0 0 0 0 0 0 0 0 0 0 0 0 0 0 0 0 0 0 0 0 0 0 0 0 0 0 0 0 0 0 0 0 0 0 0 0 0 0 0 0 0 0 0 0 0 0 0 0 0 0 0 0 0 0 0 0 0 0 0 0 0 0 0 0 0 0 0 0 0 0 0 0 0 0 0 0 0 0 0 0 0 0 0 0 0 0 0 0 0 0 