# vtk DataFile Version 2.0
Comment goes here
ASCII

DATASET STRUCTURED_POINTS
FIELD FieldData 1
TIME 1 1 double
1.22500000
DIMENSIONS    384   64   1

ORIGIN    0.000   0.000   0.000
SPACING   0.078125 0.078125   1.000

POINT_DATA   24576
SCALARS Concentration double
LOOKUP_TABLE default

0 0 0 0 0 0 0 0 0 0 0 0 0 0 0 0 0 0 0 0 0 0 0 0 0 0 0 0 0 0 0 0 0 0 0 0 0 0 0 0 0 0 0 0 0 0 0 0 0 0 0 0 0 0 0 0 0 0 0 0 0 0 0 0 0 0 0 0 0 0 0 0 0 0 0 0 0 0 0 0 0 0 0 0 0 0 0 0 0 0 0 0 0 0 0 0 0 0 0 0 0 0 0 0 0 0 0 0 0 0 0 0 0 0 0 0 0 0 0 0 0 0 0 0 0 0 0 0 0 0 0 0 0 0 0 0 0 0 0 0 0 0 0 0 0 0 0 0 0 0 0 0 0 0 0 0 0 0 0 0 0 0 0 0 0 0 0 0 0 0 0 0 0 0 0 0 0 0 0 0 0 0 0 0 0 0 0 0 0 0 0 0 0 0 0 0 0 0 0 0 0 0 0 0 0 0 0 0 0 0 0 0 0 0 0 0 0 0 0 0 0 0 0 0 0 0 0 0 0 0 0 0 0 0 0 0 0 0 0 0 0 0 0 0 0 0 0 0 0 0 0 0 0 0 0 0 0 0 0 0 0 0 0 0 0 0 0 0 0 0 0 0 0 0 0 0 0 0 0 0 0 0 0 0 0 0 0 0 0 0 0 0 0 0 0 0 0 0 0 0 0 0 0 0 0 0 0 0 0 0 0 0 0 0 0 0 0 0 0 0 0 0 0 0 0 0 0 0 0 0 0 0 0 0 0 0 0 0 0 0 0 0 0 0 0 0 0 0 0 0 0 0 0 0 0 0 0 0 0 0 0 0 0 0 0 0 0 0 0 0 0 0 0 0 0 0 0 0 0 0 0 0 0 0 
0 0 0 0 0 0 0 0 0 0 0 0 0 0 0 0 0 0 0 0 0 0 0 0 0 0 0 0 0 0 0 0 0 0 0 0 0 0 0 0 0 0 0 0 0 0 0 0 0 0 0 0 0 0 0 0 0 0 0 0 0 0 0 0 0 0 0 0 0 0 0 0 0 0 0 0 0 0 0 0 0 0 0 0 0 0 0 0 0 0 0 0 0 0 0 0 0 0 0 0 0 0 0 0 0 0 0 0 0 0 0 0 0 0 0 0 0 0 0 0 0 0 0 0 0 0 0 0 0 0 0 0 0 0 0 0 0 0 0 0 0 0 0 0 0 0 0 0 0 0 0 0 0 0 0 0 0 0 0 0 0 0 0 0 0 0 0 0 0 0 0 0 0 0 0 0 0 0 0 0 0 0 0 0 0 0 0 0 0 0 0 0 0 0 0 0 0 0 0 0 0 0 0 0 0 0 0 0 0 0 0 0 0 0 0 0 0 0 0 0 0 0 0 0 0 0 0 0 0 0 0 0 0 0 0 0 0 0 0 0 0 0 0 0 0 0 0 0 0 0 0 0 0 0 0 0 0 0 0 0 0 0 0 0 0 0 0 0 0 0 0 0 0 0 0 0 0 0 0 0 0 0 0 0 0 0 0 0 0 0 0 0 0 0 0 0 0 0 0 0 0 0 0 0 0 0 0 0 0 0 0 0 0 0 0 0 0 0 0 0 0 0 0 0 0 0 0 0 0 0 0 0 0 0 0 0 0 0 0 0 0 0 0 0 0 0 0 0 0 0 0 0 0 0 0 0 0 0 0 0 0 0 0 0 0 0 0 0 0 0 0 0 0 0 0 0 0 0 0 0 0 0 0 0 
0 0 0 0 0 0 0 0 0 0 0 0 0 0 0 0 0 0 0 0 0 0 0 0 0 0 0 0 0 0 0 0 0 0 0 0 0 0 0 0 0 0 0 0 0 0 0 0 0 0 0 0 0 0 0 0 0 0 0 0 0 0 0 0 0 0 0 0 0 0 0 0 0 0 0 0 0 0 0 0 0 0 0 0 0 0 0 0 0 0 0 0 0 0 0 0 0 0 0 0 0 0 0 0 0 0 0 0 0 0 0 0 0 0 0 0 0 0 0 0 0 0 0 0 0 0 0 0 0 0 0 0 0 0 0 0 0 0 0 0 0 0 0 0 0 0 0 0 0 0 0 0 0 0 0 0 0 0 0 0 0 0 0 0 0 0 0 0 0 0 0 0 0 0 0 0 0 0 0 0 0 0 0 0 0 0 0 0 0 0 0 0 0 0 0 0 0 0 0 0 0 0 0 0 0 0 0 0 0 0 0 0 0 0 0 0 0 0 0 0 0 0 0 0 0 0 0 0 0 0 0 0 0 0 0 0 0 0 0 0 0 0 0 0 0 0 0 0 0 0 0 0 0 0 0 0 0 0 0 0 0 0 0 0 0 0 0 0 0 0 0 0 0 0 0 0 0 0 0 0 0 0 0 0 0 0 0 0 0 0 0 0 0 0 0 0 0 0 0 0 0 0 0 0 0 0 0 0 0 0 0 0 0 0 0 0 0 0 0 0 0 0 0 0 0 0 0 0 0 0 0 0 0 0 0 0 0 0 0 0 0 0 0 0 0 0 0 0 0 0 0 0 0 0 0 0 0 0 0 0 0 0 0 0 0 0 0 0 0 0 0 0 0 0 0 0 0 0 0 0 0 0 0 0 
0 0 0 0 0 0 0 0 0 0 0 0 0 0 0 0 0 0 0 0 0 0 0 0 0 0 0 0 0 0 0 0 0 0 0 0 0 0 0 0 0 0 0 0 0 0 0 0 0 0 0 0 0 0 0 0 0 0 0 0 0 0 0 0 0 0 0 0 0 0 0 0 0 0 0 0 0 0 0 0 0 0 0 0 0 0 0 0 0 0 0 0 0 0 0 0 0 0 0 0 0 0 0 0 0 0 0 0 0 0 0 0 0 0 0 0 0 0 0 0 0 0 0 0 0 0 0 0 0 0 0 0 0 0 0 0 0 0 0 0 0 0 0 0 0 0 0 0 0 0 0 0 0 0 0 0 0 0 0 0 0 0 0 0 0 0 0 0 0 0 0 0 0 0 0 0 0 0 0 0 0 0 0 0 0 0 0 0 0 0 0 0 0 0 0 0 0 0 0 0 0 0 0 0 0 0 0 0 0 0 0 0 0 0 0 0 0 0 0 0 0 0 0 0 0 0 0 0 0 0 0 0 0 0 0 0 0 0 0 0 0 0 0 0 0 0 0 0 0 0 0 0 0 0 0 0 0 0 0 0 0 0 0 0 0 0 0 0 0 0 0 0 0 0 0 0 0 0 0 0 0 0 0 0 0 0 0 0 0 0 0 0 0 0 0 0 0 0 0 0 0 0 0 0 0 0 0 0 0 0 0 0 0 0 0 0 0 0 0 0 0 0 0 0 0 0 0 0 0 0 0 0 0 0 0 0 0 0 0 0 0 0 0 0 0 0 0 0 0 0 0 0 0 0 0 0 0 0 0 0 0 0 0 0 0 0 0 0 0 0 0 0 0 0 0 0 0 0 0 0 0 0 0 0 
0 0 0 0 0 0 0 0 0 0 0 0 0 0 0 0 0 0 0 0 0 0 0 0 0 0 0 0 0 0 0 0 0 0 0 0 0 0 0 0 0 0 0 0 0 0 0 0 0 0 0 0 0 0 0 1.225438e-15 1.461506e-15 1.664965e-15 1.814988e-15 1.895899e-15 1.901074e-15 1.831990e-15 1.699651e-15 1.519591e-15 1.311602e-15 1.093821e-15 0 0 0 0 0 0 0 0 0 0 0 0 0 0 0 0 0 0 0 0 0 0 0 0 0 0 0 0 0 0 0 0 0 0 0 0 0 0 0 0 0 0 0 0 0 0 0 0 0 0 0 0 0 0 0 0 0 0 0 0 0 0 0 0 0 0 0 0 0 0 0 0 0 0 0 0 0 0 0 0 0 0 0 0 0 0 0 0 0 0 0 0 0 0 0 0 0 0 0 0 0 0 0 0 0 0 0 0 0 0 0 0 0 0 0 0 0 0 0 0 0 0 0 0 0 0 0 0 0 0 0 0 0 0 0 0 0 0 0 0 0 0 0 0 0 0 0 0 0 0 0 0 0 0 0 0 0 0 0 0 0 0 0 0 0 0 0 0 0 0 0 0 0 0 0 0 0 0 0 0 0 0 0 0 0 0 0 0 0 0 0 0 0 0 0 0 0 0 0 0 0 0 0 0 0 0 0 0 0 0 0 0 0 0 0 0 0 0 0 0 0 0 0 0 0 0 0 0 0 0 0 0 0 0 0 0 0 0 0 0 0 0 0 0 0 0 0 0 0 0 0 0 0 0 0 0 0 0 0 0 0 0 0 0 0 0 0 0 0 0 0 0 0 0 0 0 0 0 0 0 0 0 0 0 0 0 0 0 0 0 0 0 0 0 0 0 0 0 0 0 0 0 0 0 0 0 0 0 0 0 0 0 0 0 0 0 0 0 
0 0 0 0 0 0 0 0 0 0 0 0 0 0 0 0 0 0 0 0 0 0 0 0 0 0 0 0 0 0 0 0 0 0 0 0 0 0 0 0 0 0 0 0 0 0 0 0 0 1.525346e-15 2.475360e-15 3.792749e-15 5.493093e-15 7.546179e-15 9.845895e-15 1.223295e-14 1.449412e-14 1.640928e-14 1.777961e-14 1.846435e-14 1.841110e-14 1.764597e-14 1.628694e-14 1.448862e-14 1.244708e-14 1.033314e-14 8.306756e-15 6.469390e-15 4.891993e-15 3.592858e-15 2.568798e-15 1.788338e-15 1.215196e-15 0 0 0 0 0 0 0 0 0 0 0 0 0 0 0 0 0 0 0 0 0 0 0 0 0 0 0 0 0 0 0 0 0 0 0 0 0 0 0 0 0 0 0 0 0 0 0 0 0 0 0 0 0 0 0 0 0 0 0 0 0 0 0 0 0 0 0 0 0 0 0 0 0 0 0 0 0 0 0 0 0 0 0 0 0 0 0 0 0 0 0 0 0 0 0 0 0 0 0 0 0 0 0 0 0 0 0 0 0 0 0 0 0 0 0 0 0 0 0 0 0 0 0 0 0 0 0 0 0 0 0 0 0 0 0 0 0 0 0 0 0 0 0 0 0 0 0 0 0 0 0 0 0 0 0 0 0 0 0 0 0 0 0 0 0 0 0 0 0 0 0 0 0 0 0 0 0 0 0 0 0 0 0 0 0 0 0 0 0 0 0 0 0 0 0 0 0 0 0 0 0 0 0 0 0 0 0 0 0 0 0 0 0 0 0 0 0 0 0 0 0 0 0 0 0 0 0 0 0 0 0 0 0 0 0 0 0 0 0 0 0 0 0 0 0 0 0 0 0 0 0 0 0 0 0 0 0 0 0 0 0 0 0 0 0 0 0 0 0 0 0 0 0 0 0 0 0 0 0 0 0 0 0 0 0 0 0 0 0 0 0 0 0 0 0 0 0 0 0 0 0 0 0 0 0 0 0 0 0 0 0 
0 0 0 0 0 0 0 0 0 0 0 0 0 0 0 0 0 0 0 0 0 0 0 0 0 0 0 0 0 0 0 0 0 0 0 0 0 0 0 0 0 0 0 0 0 1.177668e-15 2.465568e-15 4.811888e-15 8.770592e-15 1.500838e-14 2.415534e-14 3.670815e-14 5.276499e-14 7.194908e-14 9.323092e-14 1.150542e-13 1.354612e-13 1.524171e-13 1.641825e-13 1.695435e-13 1.681405e-13 1.603188e-13 1.472322e-13 1.303590e-13 1.114799e-13 9.215857e-14 7.378546e-14 5.725792e-14 4.314793e-14 3.159780e-14 2.253073e-14 1.565361e-14 1.061799e-14 7.036323e-15 4.564618e-15 2.900591e-15 1.809136e-15 1.108148e-15 0 0 0 0 0 0 0 0 0 0 0 0 0 0 0 0 0 0 0 0 0 0 0 0 0 0 0 0 0 0 0 0 0 0 0 0 0 0 0 0 0 0 0 0 0 0 0 0 0 0 0 0 0 0 0 0 0 0 0 0 0 0 0 0 0 0 0 0 0 0 0 0 0 0 0 0 0 0 0 0 0 0 0 0 0 0 0 0 0 0 0 0 0 0 0 0 0 0 0 0 0 0 0 0 0 0 0 0 0 0 0 0 0 0 0 0 0 0 0 0 0 0 0 0 0 0 0 0 0 0 0 0 0 0 0 0 0 0 0 0 0 0 0 0 0 0 0 0 0 0 0 0 0 0 0 0 0 0 0 0 0 0 0 0 0 0 0 0 0 0 0 0 0 0 0 0 0 0 0 0 0 0 0 0 0 0 0 0 0 0 0 0 0 0 0 0 0 0 0 0 0 0 0 0 0 0 0 0 0 0 0 0 0 0 0 0 0 0 0 0 0 0 0 0 0 0 0 0 0 0 0 0 0 0 0 0 0 0 0 0 0 0 0 0 0 0 0 0 0 0 0 0 0 0 0 0 0 0 0 0 0 0 0 0 0 0 0 0 0 0 0 0 0 0 0 0 0 0 0 0 0 0 0 0 0 0 0 0 0 0 0 0 0 0 0 0 0 0 0 0 0 0 0 0 0 0 
0 0 0 0 0 0 0 0 0 0 0 0 0 0 0 0 0 0 0 0 0 0 0 0 0 0 0 0 0 0 0 0 0 0 0 0 0 0 0 0 0 0 0 2.077425e-15 5.031070e-15 1.126630e-14 2.334473e-14 4.513146e-14 8.147627e-14 1.382185e-13 2.205549e-13 3.325812e-13 4.744596e-13 6.425398e-13 8.271009e-13 1.014526e-12 1.187528e-12 1.328950e-12 1.424156e-12 1.463513e-12 1.444743e-12 1.371509e-12 1.254431e-12 1.106335e-12 9.427617e-13 7.767180e-13 6.200276e-13 4.797938e-13 3.607354e-13 2.636197e-13 1.877021e-13 1.302541e-13 8.831568e-14 5.851963e-14 3.799320e-14 2.417117e-14 1.510807e-14 9.277492e-15 5.611631e-15 3.342871e-15 1.966274e-15 1.141715e-15 0 0 0 0 0 0 0 0 0 0 0 0 0 0 0 0 0 0 0 0 0 0 0 0 0 0 0 0 0 0 0 0 0 0 0 0 0 0 0 0 0 0 0 0 0 0 0 0 0 0 0 0 0 0 0 0 0 0 0 0 0 0 0 0 0 0 0 0 0 0 0 0 0 0 0 0 0 0 0 0 0 0 0 0 0 0 0 0 0 0 0 0 0 0 0 0 0 0 0 0 0 0 0 0 0 0 0 0 0 0 0 0 0 0 0 0 0 0 0 0 0 0 0 0 0 0 0 0 0 0 0 0 0 0 0 0 0 0 0 0 0 0 0 0 0 0 0 0 0 0 0 0 0 0 0 0 0 0 0 0 0 0 0 0 0 0 0 0 0 0 0 0 0 0 0 0 0 0 0 0 0 0 0 0 0 0 0 0 0 0 0 0 0 0 0 0 0 0 0 0 0 0 0 0 0 0 0 0 0 0 0 0 0 0 0 0 0 0 0 0 0 0 0 0 0 0 0 0 0 0 0 0 0 0 0 0 0 0 0 0 0 0 0 0 0 0 0 0 0 0 0 0 0 0 0 0 0 0 0 0 0 0 0 0 0 0 0 0 0 0 0 0 0 0 0 0 0 0 0 0 0 0 0 0 0 0 0 0 0 0 0 0 0 0 0 0 0 0 0 0 0 0 
0 0 0 0 0 0 0 0 0 0 0 0 0 0 0 0 0 0 0 0 0 0 0 0 0 0 0 0 0 0 0 0 0 0 0 0 0 0 0 0 0 2.560711e-15 7.331195e-15 1.917766e-14 4.592637e-14 1.016478e-13 2.083460e-13 3.984068e-13 7.121198e-13 1.196295e-12 1.892174e-12 2.829018e-12 4.005063e-12 5.384109e-12 6.884745e-12 8.391366e-12 9.765492e-12 1.086816e-11 1.158721e-11 1.184969e-11 1.164441e-11 1.100694e-11 1.002651e-11 8.809871e-12 7.480681e-12 6.143765e-12 4.889773e-12 3.774474e-12 2.831414e-12 2.065746e-12 1.468827e-12 1.018660e-12 6.905026e-13 4.578354e-13 2.975589e-13 1.896933e-13 1.188598e-13 7.324360e-14 4.447473e-14 2.662373e-14 1.574251e-14 9.198305e-15 5.321207e-15 3.049012e-15 1.733838e-15 0 0 0 0 0 0 0 0 0 0 0 0 0 0 0 0 0 0 0 0 0 0 0 0 0 0 0 0 0 0 0 0 0 0 0 0 0 0 0 0 0 0 0 0 0 0 0 0 0 0 0 0 0 0 0 0 0 0 0 0 0 0 0 0 0 0 0 0 0 0 0 0 0 0 0 0 0 0 0 0 0 0 0 0 0 0 0 0 0 0 0 0 0 0 0 0 0 0 0 0 0 0 0 0 0 0 0 0 0 0 0 0 0 0 0 0 0 0 0 0 0 0 0 0 0 0 0 0 0 0 0 0 0 0 0 0 0 0 0 0 0 0 0 0 0 0 0 0 0 0 0 0 0 0 0 0 0 0 0 0 0 0 0 0 0 0 0 0 0 0 0 0 0 0 0 0 0 0 0 0 0 0 0 0 0 0 0 0 0 0 0 0 0 0 0 0 0 0 0 0 0 0 0 0 0 0 0 0 0 0 0 0 0 0 0 0 0 0 0 0 0 0 0 0 0 0 0 0 0 0 0 0 0 0 0 0 0 0 0 0 0 0 0 0 0 0 0 0 0 0 0 0 0 0 0 0 0 0 0 0 0 0 0 0 0 0 0 0 0 0 0 0 0 0 0 0 0 0 0 0 0 0 0 0 0 0 0 0 0 0 0 0 0 0 0 0 0 0 0 
0 0 0 0 0 0 0 0 0 0 0 0 0 0 0 0 0 0 0 0 0 0 0 0 0 0 0 0 0 0 0 0 0 0 0 0 0 0 0 2.103080e-15 7.268998e-15 2.274309e-14 6.425698e-14 1.660237e-13 3.924117e-13 8.580507e-13 1.737197e-12 3.285040e-12 5.807557e-12 9.660800e-12 1.513682e-11 2.244264e-11 3.152164e-11 4.207921e-11 5.345515e-11 6.477253e-11 7.496952e-11 8.302479e-11 8.811527e-11 8.973528e-11 8.784372e-11 8.273966e-11 7.512949e-11 6.581613e-11 5.574237e-11 4.567092e-11 3.628003e-11 2.795749e-11 2.094935e-11 1.527168e-11 1.085793e-11 7.532281e-12 5.111701e-12 3.394652e-12 2.211897e-12 1.414296e-12 8.897192e-13 5.506739e-13 3.361819e-13 2.024063e-13 1.204889e-13 7.089950e-14 4.134586e-14 2.388931e-14 1.371180e-14 7.815855e-15 4.435779e-15 2.505437e-15 1.411753e-15 0 0 0 0 0 0 0 0 0 0 0 0 0 0 0 0 0 0 0 0 0 0 0 0 0 0 0 0 0 0 0 0 0 0 0 0 0 0 0 0 0 0 0 0 0 0 0 0 0 0 0 0 0 0 0 0 0 0 0 0 0 0 0 0 0 0 0 0 0 0 0 0 0 0 0 0 0 0 0 0 0 0 0 0 0 0 0 0 0 0 0 0 0 0 0 0 0 0 0 0 0 0 0 0 0 0 0 0 0 0 0 0 0 0 0 0 0 0 0 0 0 0 0 0 0 0 0 0 0 0 0 0 0 0 0 0 0 0 0 0 0 0 0 0 0 0 0 0 0 0 0 0 0 0 0 0 0 0 0 0 0 0 0 0 0 0 0 0 0 0 0 0 0 0 0 0 0 0 0 0 0 0 0 0 0 0 0 0 0 0 0 0 0 0 0 0 0 0 0 0 0 0 0 0 0 0 0 0 0 0 0 0 0 0 0 0 0 0 0 0 0 0 0 0 0 0 0 0 0 0 0 0 0 0 0 0 0 0 0 0 0 0 0 0 0 0 0 0 0 0 0 0 0 0 0 0 0 0 0 0 0 0 0 0 0 0 0 0 0 0 0 0 0 0 0 0 0 0 0 0 0 0 0 0 0 0 0 0 0 0 0 0 0 0 0 
0 0 0 0 0 0 0 0 0 0 0 0 0 0 0 0 0 0 0 0 0 0 0 0 0 0 0 0 0 0 0 0 0 0 0 0 0 1.161839e-15 4.886409e-15 1.849828e-14 6.252684e-14 1.919274e-13 5.337523e-13 1.357747e-12 3.163077e-12 6.816817e-12 1.361872e-11 2.542010e-11 4.441626e-11 7.306167e-11 1.133416e-10 1.664758e-10 2.318994e-10 3.071894e-10 3.875968e-10 4.667000e-10 5.371523e-10 5.917795e-10 6.251257e-10 6.338680e-10 6.180527e-10 5.800453e-10 5.249397e-10 4.585133e-10 3.872782e-10 3.165905e-10 2.509845e-10 1.931313e-10 1.445530e-10 1.053334e-10 7.488869e-11 5.199639e-11 3.533381e-11 2.351979e-11 1.536838e-11 9.864643e-12 6.232623e-12 3.878275e-12 2.381330e-12 1.443476e-12 8.654165e-13 5.133859e-13 3.019154e-13 1.760844e-13 1.020397e-13 5.877281e-14 3.370705e-14 1.925192e-14 1.096771e-14 6.231534e-15 3.535598e-15 2.002399e-15 1.133272e-15 0 0 0 0 0 0 0 0 0 0 0 0 0 0 0 0 0 0 0 0 0 0 0 0 0 0 0 0 0 0 0 0 0 0 0 0 0 0 0 0 0 0 0 0 0 0 0 0 0 0 0 0 0 0 0 0 0 0 0 0 0 0 0 0 0 0 0 0 0 0 0 0 0 0 0 0 0 0 0 0 0 0 0 0 0 0 0 0 0 0 0 0 0 0 0 0 0 0 0 0 0 0 0 0 0 0 0 0 0 0 0 0 0 0 0 0 0 0 0 0 0 0 0 0 0 0 0 0 0 0 0 0 0 0 0 0 0 0 0 0 0 0 0 0 0 0 0 0 0 0 0 0 0 0 0 0 0 0 0 0 0 0 0 0 0 0 0 0 0 0 0 0 0 0 0 0 0 0 0 0 0 0 0 0 0 0 0 0 0 0 0 0 0 0 0 0 0 0 0 0 0 0 0 0 0 0 0 0 0 0 0 0 0 0 0 0 0 0 0 0 0 0 0 0 0 0 0 0 0 0 0 0 0 0 0 0 0 0 0 0 0 0 0 0 0 0 0 0 0 0 0 0 0 0 0 0 0 0 0 0 0 0 0 0 0 0 0 0 0 0 0 0 0 0 0 0 0 0 0 0 0 0 0 0 0 0 0 0 0 0 0 
0 0 0 0 0 0 0 0 0 0 0 0 0 0 0 0 0 0 0 0 0 0 0 0 0 0 0 0 0 0 0 0 0 0 0 0 2.191516e-15 1.037463e-14 4.238343e-14 1.560602e-13 5.110161e-13 1.529699e-12 4.165218e-12 1.040947e-11 2.383598e-11 5.057315e-11 9.950016e-11 1.831860e-10 3.158938e-10 5.136092e-10 7.881326e-10 1.146638e-09 1.583340e-09 2.081538e-09 2.608357e-09 3.121962e-09 3.573959e-09 3.918889e-09 4.122293e-09 4.164305e-09 4.047016e-09 3.786888e-09 3.418467e-09 2.979126e-09 2.511791e-09 2.050168e-09 1.623752e-09 1.248636e-09 9.346139e-10 6.813382e-10 4.850461e-10 3.373783e-10 2.299008e-10 1.535366e-10 1.007590e-10 6.498684e-11 4.129960e-11 2.585988e-11 1.599351e-11 9.768256e-12 5.906270e-12 3.534433e-12 2.098510e-12 1.235817e-12 7.236393e-13 4.211554e-13 2.441997e-13 1.409843e-13 8.121809e-14 4.664520e-14 2.675803e-14 1.531494e-14 8.761461e-15 5.004922e-15 2.860911e-15 1.635696e-15 0 0 0 0 0 0 0 0 0 0 0 0 0 0 0 0 0 0 0 0 0 0 0 0 0 0 0 0 0 0 0 0 0 0 0 0 0 0 0 0 0 0 0 0 0 0 0 0 0 0 0 0 0 0 0 0 0 0 0 0 0 0 0 0 0 0 0 0 0 0 0 0 0 0 0 0 0 0 0 0 0 0 0 0 0 0 0 0 0 0 0 0 0 0 0 0 0 0 0 0 0 0 0 0 0 0 0 0 0 0 0 0 0 0 0 0 0 0 0 0 0 0 0 0 0 0 0 0 0 0 0 0 0 0 0 0 0 0 0 0 0 0 0 0 0 0 0 0 0 0 0 0 0 0 0 0 0 0 0 0 0 0 0 0 0 0 0 0 0 0 0 0 0 0 0 0 0 0 0 0 0 0 0 0 0 0 0 0 0 0 0 0 0 0 0 0 0 0 0 0 0 0 0 0 0 0 0 0 0 0 0 0 0 0 0 0 0 0 0 0 0 0 0 0 0 0 0 0 0 0 0 0 0 0 0 0 0 0 0 0 0 0 0 0 0 0 0 0 0 0 0 0 0 0 0 0 0 0 0 0 0 0 0 0 0 0 0 0 0 0 0 0 0 0 0 0 0 0 0 0 0 0 0 0 0 0 0 0 
0 0 0 0 0 0 0 0 0 0 0 0 0 0 0 0 0 0 0 0 0 0 0 0 0 0 0 0 0 0 0 0 0 0 0 3.572816e-15 1.899233e-14 8.830559e-14 3.530387e-13 1.259342e-12 3.997040e-12 1.161886e-11 3.083383e-11 7.532891e-11 1.691165e-10 3.521589e-10 6.812449e-10 1.234279e-09 2.098305e-09 3.366477e-09 5.105957e-09 7.349194e-09 1.005442e-08 1.310675e-08 1.630508e-08 1.938765e-08 2.206876e-08 2.407457e-08 2.521029e-08 2.536425e-08 2.456114e-08 2.290952e-08 2.062195e-08 1.792886e-08 1.508484e-08 1.229370e-08 9.725053e-09 7.474738e-09 5.594547e-09 4.081814e-09 2.909774e-09 2.028739e-09 1.386538e-09 9.297378e-10 6.129553e-10 3.975896e-10 2.542276e-10 1.603280e-10 9.990390e-11 6.153277e-11 3.752699e-11 2.266921e-11 1.358767e-11 8.083539e-12 4.781443e-12 2.812657e-12 1.648073e-12 9.619496e-13 5.600709e-13 3.251972e-13 1.885227e-13 1.090766e-13 6.306152e-14 3.642546e-14 2.105624e-14 1.218860e-14 7.083452e-15 4.139375e-15 2.440518e-15 1.454526e-15 0 0 0 0 0 0 0 0 0 0 0 0 0 0 0 0 0 0 0 0 0 0 0 0 0 0 0 0 0 0 0 0 0 0 0 0 0 0 0 0 0 0 0 0 0 0 0 0 0 0 0 0 0 0 0 0 0 0 0 0 0 0 0 0 0 0 0 0 0 0 0 0 0 0 0 0 0 0 0 0 0 0 0 0 0 0 0 0 0 0 0 0 0 0 0 0 0 0 0 0 0 0 0 0 0 0 0 0 0 0 0 0 0 0 0 0 0 0 0 0 0 0 0 0 0 0 0 0 0 0 0 0 0 0 0 0 0 0 0 0 0 0 0 0 0 0 0 0 0 0 0 0 0 0 0 0 0 0 0 0 0 0 0 0 0 0 0 0 0 0 0 0 0 0 0 0 0 0 0 0 0 0 0 0 0 0 0 0 0 0 0 0 0 0 0 0 0 0 0 0 0 0 0 0 0 0 0 0 0 0 0 0 0 0 0 0 0 0 0 0 0 0 0 0 0 0 0 0 0 0 0 0 0 0 0 0 0 0 0 0 0 0 0 0 0 0 0 0 0 0 0 0 0 0 0 0 0 0 0 0 0 0 0 0 0 0 0 0 0 0 0 0 0 0 0 0 0 0 0 0 0 0 0 0 
0 0 0 0 0 0 0 0 0 0 0 0 0 0 0 0 0 0 0 0 0 0 0 0 0 0 0 0 0 0 0 0 0 0 4.939771e-15 3.071338e-14 1.610565e-13 7.340503e-13 2.852223e-12 9.856501e-12 2.994261e-11 8.389090e-11 2.151681e-10 5.114990e-10 1.121036e-09 2.285832e-09 4.335413e-09 7.718564e-09 1.290999e-08 2.041985e-08 3.057167e-08 4.351354e-08 5.893813e-08 7.617874e-08 9.405934e-08 1.111321e-07 1.257998e-07 1.365843e-07 1.424412e-07 1.428031e-07 1.378648e-07 1.282578e-07 1.152082e-07 9.998543e-08 8.402390e-08 6.841857e-08 5.411490e-08 4.160484e-08 3.117552e-08 2.278450e-08 1.628641e-08 1.139292e-08 7.820889e-09 5.270529e-09 3.495859e-09 2.282451e-09 1.470444e-09 9.346194e-10 5.874386e-10 3.650094e-10 2.247251e-10 1.370422e-10 8.297044e-11 4.985418e-11 2.979940e-11 1.771109e-11 1.049020e-11 6.187713e-12 3.642099e-12 2.137197e-12 1.252582e-12 7.325131e-13 4.283009e-13 2.502461e-13 1.465008e-13 8.596318e-14 5.074253e-14 3.016833e-14 1.814005e-14 1.104345e-14 6.827277e-15 4.282566e-15 2.726559e-15 1.755790e-15 1.141353e-15 0 0 0 0 0 0 0 0 0 0 0 0 0 0 0 0 0 0 0 0 0 0 0 0 0 0 0 0 0 0 0 0 0 0 0 0 0 0 0 0 0 0 0 0 0 0 0 0 0 0 0 0 0 0 0 0 0 0 0 0 0 0 0 0 0 0 0 0 0 0 0 0 0 0 0 0 0 0 0 0 0 0 0 0 0 0 0 0 0 0 0 0 0 0 0 0 0 0 0 0 0 0 0 0 0 0 0 0 0 0 0 0 0 0 0 0 0 0 0 0 0 0 0 0 0 0 0 0 0 0 0 0 0 0 0 0 0 0 0 0 0 0 0 0 0 0 0 0 0 0 0 0 0 0 0 0 0 0 0 0 0 0 0 0 0 0 0 0 0 0 0 0 0 0 0 0 0 0 0 0 0 0 0 0 0 0 0 0 0 0 0 0 0 0 0 0 0 0 0 0 0 0 0 0 0 0 0 0 0 0 0 0 0 0 0 0 0 0 0 0 0 0 0 0 0 0 0 0 0 0 0 0 0 0 0 0 0 0 0 0 0 0 0 0 0 0 0 0 0 0 0 0 0 0 0 0 0 0 0 0 0 0 0 0 0 0 0 0 0 0 0 0 0 0 0 0 0 0 0 
0 0 0 0 0 0 0 0 0 0 0 0 0 0 0 0 0 0 0 0 0 0 0 0 0 0 0 0 0 0 0 0 0 5.771086e-15 4.133081e-14 2.551924e-13 1.316711e-12 5.840233e-12 2.197300e-11 7.318008e-11 2.134166e-10 5.750045e-10 1.422342e-09 3.275305e-09 6.984369e-09 1.388924e-08 2.576373e-08 4.494078e-08 7.383351e-08 1.148985e-07 1.696265e-07 2.384153e-07 3.194998e-07 4.090637e-07 5.010694e-07 5.878628e-07 6.615018e-07 7.144317e-07 7.416929e-07 7.405973e-07 7.124807e-07 6.608307e-07 5.920379e-07 5.127435e-07 4.301656e-07 3.499262e-07 2.766289e-07 2.127588e-07 1.595813e-07 1.168680e-07 8.376549e-08 5.882500e-08 4.056551e-08 2.749281e-08 1.834900e-08 1.206656e-08 7.832348e-09 5.019809e-09 3.181762e-09 1.994990e-09 1.239376e-09 7.630826e-10 4.664155e-10 2.830989e-10 1.709205e-10 1.026669e-10 6.144752e-11 3.664395e-11 2.180101e-11 1.293679e-11 7.666136e-12 4.536069e-12 2.684246e-12 1.589395e-12 9.439853e-13 5.632191e-13 3.387030e-13 2.057331e-13 1.266338e-13 7.907998e-14 5.016917e-14 3.228942e-14 2.105216e-14 1.385216e-14 9.170406e-15 6.081549e-15 4.028507e-15 2.655859e-15 1.739372e-15 1.128730e-15 0 0 0 0 0 0 0 0 0 0 0 0 0 0 0 0 0 0 0 0 0 0 0 0 0 0 0 0 0 0 0 0 0 0 0 0 0 0 0 0 0 0 0 0 0 0 0 0 0 0 0 0 0 0 0 0 0 0 0 0 0 0 0 0 0 0 0 0 0 0 0 0 0 0 0 0 0 0 0 0 0 0 0 0 0 0 0 0 0 0 0 0 0 0 0 0 0 0 0 0 0 0 0 0 0 0 0 0 0 0 0 0 0 0 0 0 0 0 0 0 0 0 0 0 0 0 0 0 0 0 0 0 0 0 0 0 0 0 0 0 0 0 0 0 0 0 0 0 0 0 0 0 0 0 0 0 0 0 0 0 0 0 0 0 0 0 0 0 0 0 0 0 0 0 0 0 0 0 0 0 0 0 0 0 0 0 0 0 0 0 0 0 0 0 0 0 0 0 0 0 0 0 0 0 0 0 0 0 0 0 0 0 0 0 0 0 0 0 0 0 0 0 0 0 0 0 0 0 0 0 0 0 0 0 0 0 0 0 0 0 0 0 0 0 0 0 0 0 0 0 0 0 0 0 0 0 0 0 0 0 0 0 0 0 0 0 0 0 0 0 0 0 0 0 
0 0 0 0 0 0 0 0 0 0 0 0 0 0 0 0 0 0 0 0 0 0 0 0 0 0 0 0 0 0 0 0 5.540349e-15 4.772943e-14 3.432580e-13 2.105989e-12 1.061421e-11 4.569307e-11 1.654276e-10 5.287641e-10 1.473860e-09 3.771739e-09 8.904737e-09 1.973203e-08 4.069756e-08 7.862083e-08 1.420313e-07 2.420815e-07 3.895117e-07 5.953796e-07 8.651543e-07 1.199817e-06 1.589294e-06 2.015192e-06 2.448096e-06 2.852485e-06 3.191116e-06 3.429579e-06 3.545585e-06 3.527681e-06 3.383572e-06 3.130251e-06 2.798842e-06 2.420204e-06 2.028681e-06 1.649676e-06 1.304808e-06 1.004699e-06 7.552490e-07 5.547212e-07 3.992235e-07 2.817001e-07 1.954055e-07 1.332871e-07 8.961384e-08 5.938350e-08 3.886872e-08 2.512138e-08 1.606603e-08 1.016333e-08 6.373526e-09 3.960999e-09 2.445221e-09 1.498960e-09 9.145800e-10 5.551577e-10 3.359646e-10 2.025559e-10 1.219009e-10 7.316869e-11 4.389151e-11 2.630020e-11 1.578341e-11 9.489722e-12 5.736863e-12 3.491610e-12 2.148450e-12 1.338314e-12 8.467127e-13 5.438388e-13 3.548266e-13 2.344112e-13 1.564964e-13 1.050719e-13 7.075378e-14 4.756156e-14 3.185292e-14 2.117526e-14 1.396125e-14 9.104562e-15 5.873007e-15 3.739715e-15 2.352272e-15 1.459085e-15 0 0 0 0 0 0 0 0 0 0 0 0 0 0 0 0 0 0 0 0 0 0 0 0 0 0 0 0 0 0 0 0 0 0 0 0 0 0 0 0 0 0 0 0 0 0 0 0 0 0 0 0 0 0 0 0 0 0 0 0 0 0 0 0 0 0 0 0 0 0 0 0 0 0 0 0 0 0 0 0 0 0 0 0 0 0 0 0 0 0 0 0 0 0 0 0 0 0 0 0 0 0 0 0 0 0 0 0 0 0 0 0 0 0 0 0 0 0 0 0 0 0 0 0 0 0 0 0 0 0 0 0 0 0 0 0 0 0 0 0 0 0 0 0 0 0 0 0 0 0 0 0 0 0 0 0 0 0 0 0 0 0 0 0 0 0 0 0 0 0 0 0 0 0 0 0 0 0 0 0 0 0 0 0 0 0 0 0 0 0 0 0 0 0 0 0 0 0 0 0 0 0 0 0 0 0 0 0 0 0 0 0 0 0 0 0 0 0 0 0 0 0 0 0 0 0 0 0 0 0 0 0 0 0 0 0 0 0 0 0 0 0 0 0 0 0 0 0 0 0 0 0 0 0 0 0 0 0 0 0 0 0 0 0 0 0 0 0 0 0 
0 0 0 0 0 0 0 0 0 0 0 0 0 0 0 0 0 0 0 0 0 0 0 0 0 0 0 0 0 0 0 4.287235e-15 4.370628e-14 3.837322e-13 2.777279e-12 1.680703e-11 8.237951e-11 3.409086e-10 1.182756e-09 3.608932e-09 9.585811e-09 2.336847e-08 5.272549e-08 1.120847e-07 2.227565e-07 4.159844e-07 7.291941e-07 1.209603e-06 1.901276e-06 2.846893e-06 4.065870e-06 5.554606e-06 7.267215e-06 9.117227e-06 1.098000e-05 1.269837e-05 1.411788e-05 1.509010e-05 1.552699e-05 1.538342e-05 1.469986e-05 1.355525e-05 1.208628e-05 1.042890e-05 8.727940e-06 7.092472e-06 5.609877e-06 4.324523e-06 3.257176e-06 2.400000e-06 1.734113e-06 1.229937e-06 8.580663e-07 5.892172e-07 3.989229e-07 2.663836e-07 1.757034e-07 1.144975e-07 7.382512e-08 4.711085e-08 2.980271e-08 1.869713e-08 1.165274e-08 7.217319e-09 4.449673e-09 2.731250e-09 1.671436e-09 1.019763e-09 6.211021e-10 3.776593e-10 2.296271e-10 1.397023e-10 8.525278e-11 5.226745e-11 3.230263e-11 2.016953e-11 1.276601e-11 8.201502e-12 5.355733e-12 3.550328e-12 2.385503e-12 1.618486e-12 1.105235e-12 7.562782e-13 5.169710e-13 3.517256e-13 2.377022e-13 1.591563e-13 1.054796e-13 6.907288e-14 4.468435e-14 2.852230e-14 1.796841e-14 1.116176e-14 6.840511e-15 4.132820e-15 2.463276e-15 1.447402e-15 0 0 0 0 0 0 0 0 0 0 0 0 0 0 0 0 0 0 0 0 0 0 0 0 0 0 0 0 0 0 0 0 0 0 0 0 0 0 0 0 0 0 0 0 0 0 0 0 0 0 0 0 0 0 0 0 0 0 0 0 0 0 0 0 0 0 0 0 0 0 0 0 0 0 0 0 0 0 0 0 0 0 0 0 0 0 0 0 0 0 0 0 0 0 0 0 0 0 0 0 0 0 0 0 0 0 0 0 0 0 0 0 0 0 0 0 0 0 0 0 0 0 0 0 0 0 0 0 0 0 0 0 0 0 0 0 0 0 0 0 0 0 0 0 0 0 0 0 0 0 0 0 0 0 0 0 0 0 0 0 0 0 0 0 0 0 0 0 0 0 0 0 0 0 0 0 0 0 0 0 0 0 0 0 0 0 0 0 0 0 0 0 0 0 0 0 0 0 0 0 0 0 0 0 0 0 0 0 0 0 0 0 0 0 0 0 0 0 0 0 0 0 0 0 0 0 0 0 0 0 0 0 0 0 0 0 0 0 0 0 0 0 0 0 0 0 0 0 0 0 0 0 0 0 0 0 0 0 0 0 0 0 0 0 0 0 
0 0 0 0 0 0 0 0 0 0 0 0 0 0 0 0 0 0 0 0 0 0 0 0 0 0 0 0 0 0 2.581564e-15 3.180077e-14 3.367979e-13 3.037381e-12 2.213918e-11 1.326589e-10 6.282846e-10 2.490416e-09 8.228829e-09 2.390015e-08 6.030188e-08 1.390338e-07 2.968052e-07 6.011072e-07 1.143565e-06 2.053459e-06 3.472778e-06 5.581750e-06 8.532654e-06 1.247945e-05 1.747000e-05 2.347918e-05 3.030474e-05 3.760836e-05 4.489226e-05 5.154917e-05 5.697408e-05 6.059545e-05 6.208131e-05 6.127135e-05 5.835291e-05 5.365045e-05 4.772521e-05 4.110702e-05 3.437150e-05 2.792638e-05 2.211037e-05 1.707599e-05 1.290147e-05 9.543812e-06 6.931146e-06 4.944101e-06 3.472090e-06 2.400622e-06 1.637493e-06 1.101635e-06 7.324125e-07 4.810497e-07 3.127924e-07 2.013070e-07 1.285284e-07 8.139820e-08 5.125464e-08 3.208110e-08 2.000465e-08 1.242152e-08 7.696167e-09 4.755338e-09 2.936505e-09 1.811798e-09 1.119970e-09 6.940057e-10 4.326878e-10 2.718199e-10 1.727837e-10 1.112884e-10 7.285531e-11 4.845008e-11 3.273885e-11 2.240214e-11 1.548769e-11 1.076486e-11 7.500726e-12 5.214925e-12 3.610372e-12 2.480013e-12 1.688741e-12 1.136958e-12 7.568422e-13 4.971564e-13 3.224631e-13 2.061918e-13 1.301087e-13 8.090358e-14 4.963641e-14 3.000675e-14 1.789935e-14 1.052147e-14 6.103785e-15 3.489944e-15 1.969854e-15 1.096084e-15 0 0 0 0 0 0 0 0 0 0 0 0 0 0 0 0 0 0 0 0 0 0 0 0 0 0 0 0 0 0 0 0 0 0 0 0 0 0 0 0 0 0 0 0 0 0 0 0 0 0 0 0 0 0 0 0 0 0 0 0 0 0 0 0 0 0 0 0 0 0 0 0 0 0 0 0 0 0 0 0 0 0 0 0 0 0 0 0 0 0 0 0 0 0 0 0 0 0 0 0 0 0 0 0 0 0 0 0 0 0 0 0 0 0 0 0 0 0 0 0 0 0 0 0 0 0 0 0 0 0 0 0 0 0 0 0 0 0 0 0 0 0 0 0 0 0 0 0 0 0 0 0 0 0 0 0 0 0 0 0 0 0 0 0 0 0 0 0 0 0 0 0 0 0 0 0 0 0 0 0 0 0 0 0 0 0 0 0 0 0 0 0 0 0 0 0 0 0 0 0 0 0 0 0 0 0 0 0 0 0 0 0 0 0 0 0 0 0 0 0 0 0 0 0 0 0 0 0 0 0 0 0 0 0 0 0 0 0 0 0 0 0 0 0 0 0 0 0 0 0 0 0 0 0 0 0 0 0 0 0 0 0 
0 0 0 0 0 0 0 0 0 0 0 0 0 0 0 0 0 0 0 0 0 0 0 0 0 0 0 0 0 1.184730e-15 1.726974e-14 2.233216e-13 2.475794e-12 2.300857e-11 1.707102e-10 1.011343e-09 4.602016e-09 1.719505e-08 5.356889e-08 1.470396e-07 3.512974e-07 7.698463e-07 1.565220e-06 3.024722e-06 5.501819e-06 9.464212e-06 1.538314e-05 2.384327e-05 3.531877e-05 5.026822e-05 6.882319e-05 9.081037e-05 1.155359e-04 1.417244e-04 1.676697e-04 1.911259e-04 2.099882e-04 2.221461e-04 2.264884e-04 2.224893e-04 2.109506e-04 1.931611e-04 1.712067e-04 1.470508e-04 1.227079e-04 9.961693e-05 7.888516e-05 6.101899e-05 4.621886e-05 3.432060e-05 2.503720e-05 1.795672e-05 1.268265e-05 8.824520e-06 6.057504e-06 4.103141e-06 2.746570e-06 1.817436e-06 1.190786e-06 7.729130e-07 4.978811e-07 3.184573e-07 2.026125e-07 1.282741e-07 8.093809e-08 5.091011e-08 3.197068e-08 2.005126e-08 1.258307e-08 7.908530e-09 4.991591e-09 3.169791e-09 2.032297e-09 1.318568e-09 8.684192e-10 5.811638e-10 3.955111e-10 2.732161e-10 1.911717e-10 1.349345e-10 9.574113e-11 6.798620e-11 4.817019e-11 3.393462e-11 2.372445e-11 1.642045e-11 1.124175e-11 7.600465e-12 5.073776e-12 3.340559e-12 2.169792e-12 1.389180e-12 8.771375e-13 5.458035e-13 3.349349e-13 2.025624e-13 1.208289e-13 7.104365e-14 4.120883e-14 2.356646e-14 1.329923e-14 7.401322e-15 4.065811e-15 2.203204e-15 1.178821e-15 0 0 0 0 0 0 0 0 0 0 0 0 0 0 0 0 0 0 0 0 0 0 0 0 0 0 0 0 0 0 0 0 0 0 0 0 0 0 0 0 0 0 0 0 0 0 0 0 0 0 0 0 0 0 0 0 0 0 0 0 0 0 0 0 0 0 0 0 0 0 0 0 0 0 0 0 0 0 0 0 0 0 0 0 0 0 0 0 0 0 0 0 0 0 0 0 0 0 0 0 0 0 0 0 0 0 0 0 0 0 0 0 0 0 0 0 0 0 0 0 0 0 0 0 0 0 0 0 0 0 0 0 0 0 0 0 0 0 0 0 0 0 0 0 0 0 0 0 0 0 0 0 0 0 0 0 0 0 0 0 0 0 0 0 0 0 0 0 0 0 0 0 0 0 0 0 0 0 0 0 0 0 0 0 0 0 0 0 0 0 0 0 0 0 0 0 0 0 0 0 0 0 0 0 0 0 0 0 0 0 0 0 0 0 0 0 0 0 0 0 0 0 0 0 0 0 0 0 0 0 0 0 0 0 0 0 0 0 0 0 0 0 0 0 0 0 0 0 0 0 0 0 0 0 0 0 0 0 0 
0 0 0 0 0 0 0 0 0 0 0 0 0 0 0 0 0 0 0 0 0 0 0 0 0 0 0 0 0 7.018493e-15 1.081902e-13 1.479973e-12 1.731814e-11 1.693066e-10 1.300722e-09 7.761989e-09 3.370548e-08 1.172192e-07 3.385020e-07 8.684050e-07 1.956115e-06 4.056694e-06 7.789729e-06 1.430516e-05 2.478445e-05 4.069221e-05 6.323830e-05 9.404186e-05 1.342159e-04 1.850799e-04 2.468588e-04 3.191109e-04 3.996360e-04 4.845460e-04 5.683572e-04 6.438023e-04 7.038410e-04 7.413691e-04 7.527001e-04 7.362357e-04 6.950885e-04 6.338561e-04 5.598497e-04 4.795184e-04 3.995000e-04 3.241533e-04 2.569263e-04 1.991281e-04 1.513210e-04 1.128123e-04 8.269925e-05 5.961764e-05 4.234807e-05 2.963404e-05 2.046811e-05 1.395080e-05 9.402973e-06 6.266811e-06 4.139595e-06 2.710310e-06 1.763148e-06 1.139623e-06 7.335986e-07 4.702188e-07 3.007901e-07 1.919804e-07 1.225560e-07 7.826649e-08 5.015469e-08 3.228377e-08 2.095509e-08 1.373945e-08 9.135969e-09 6.167460e-09 4.236306e-09 2.956550e-09 2.094829e-09 1.500760e-09 1.084025e-09 7.855322e-10 5.694156e-10 4.111037e-10 2.950701e-10 2.098686e-10 1.478088e-10 1.028415e-10 7.069617e-11 4.793036e-11 3.206957e-11 2.114478e-11 1.375217e-11 8.810902e-12 5.567726e-12 3.465695e-12 2.127902e-12 1.287093e-12 7.680809e-13 4.516278e-13 2.620658e-13 1.498707e-13 8.460770e-14 4.708587e-14 2.587587e-14 1.402175e-14 7.505364e-15 3.962421e-15 2.067040e-15 1.063829e-15 0 0 0 0 0 0 0 0 0 0 0 0 0 0 0 0 0 0 0 0 0 0 0 0 0 0 0 0 0 0 0 0 0 0 0 0 0 0 0 0 0 0 0 0 0 0 0 0 0 0 0 0 0 0 0 0 0 0 0 0 0 0 0 0 0 0 0 0 0 0 0 0 0 0 0 0 0 0 0 0 0 0 0 0 0 0 0 0 0 0 0 0 0 0 0 0 0 0 0 0 0 0 0 0 0 0 0 0 0 0 0 0 0 0 0 0 0 0 0 0 0 0 0 0 0 0 0 0 0 0 0 0 0 0 0 0 0 0 0 0 0 0 0 0 0 0 0 0 0 0 0 0 0 0 0 0 0 0 0 0 0 0 0 0 0 0 0 0 0 0 0 0 0 0 0 0 0 0 0 0 0 0 0 0 0 0 0 0 0 0 0 0 0 0 0 0 0 0 0 0 0 0 0 0 0 0 0 0 0 0 0 0 0 0 0 0 0 0 0 0 0 0 0 0 0 0 0 0 0 0 0 0 0 0 0 0 0 0 0 0 0 0 0 0 0 0 0 0 0 0 0 0 0 0 0 0 
0 0 0 0 0 0 0 0 0 0 0 0 0 0 0 0 0 0 0 0 0 0 0 0 0 0 0 0 2.139814e-15 3.848235e-14 6.293911e-13 9.145150e-12 1.147655e-10 1.196068e-09 9.735631e-09 5.904931e-08 2.452657e-07 7.765019e-07 2.025143e-06 4.730986e-06 9.861943e-06 1.931396e-05 3.543240e-05 6.228453e-05 1.032466e-04 1.620383e-04 2.407603e-04 3.426011e-04 4.696521e-04 6.249134e-04 8.096563e-04 1.022877e-03 1.259976e-03 1.509750e-03 1.757387e-03 1.980012e-03 2.156104e-03 2.261957e-03 2.286134e-03 2.224130e-03 2.087392e-03 1.892164e-03 1.661962e-03 1.417091e-03 1.176688e-03 9.531105e-04 7.551001e-04 5.858319e-04 4.460230e-04 3.334777e-04 2.452474e-04 1.774729e-04 1.265500e-04 8.894656e-05 6.171368e-05 4.228868e-05 2.866863e-05 1.924083e-05 1.280860e-05 8.463776e-06 5.562097e-06 3.637546e-06 2.371690e-06 1.542555e-06 1.002692e-06 6.519253e-07 4.249583e-07 2.781443e-07 1.833685e-07 1.220351e-07 8.227151e-08 5.629382e-08 3.917941e-08 2.772985e-08 1.994488e-08 1.453392e-08 1.069721e-08 7.916919e-09 5.870973e-09 4.344636e-09 3.199911e-09 2.338597e-09 1.693356e-09 1.212372e-09 8.577158e-10 5.987949e-10 4.124923e-10 2.801135e-10 1.875701e-10 1.237585e-10 8.049974e-11 5.158696e-11 3.259106e-11 2.028658e-11 1.245084e-11 7.530319e-12 4.491674e-12 2.640749e-12 1.531602e-12 8.757940e-13 4.941824e-13 2.749984e-13 1.510550e-13 8.185039e-14 4.379273e-14 2.311992e-14 1.205587e-14 6.204893e-15 3.155201e-15 1.584023e-15 0 0 0 0 0 0 0 0 0 0 0 0 0 0 0 0 0 0 0 0 0 0 0 0 0 0 0 0 0 0 0 0 0 0 0 0 0 0 0 0 0 0 0 0 0 0 0 0 0 0 0 0 0 0 0 0 0 0 0 0 0 0 0 0 0 0 0 0 0 0 0 0 0 0 0 0 0 0 0 0 0 0 0 0 0 0 0 0 0 0 0 0 0 0 0 0 0 0 0 0 0 0 0 0 0 0 0 0 0 0 0 0 0 0 0 0 0 0 0 0 0 0 0 0 0 0 0 0 0 0 0 0 0 0 0 0 0 0 0 0 0 0 0 0 0 0 0 0 0 0 0 0 0 0 0 0 0 0 0 0 0 0 0 0 0 0 0 0 0 0 0 0 0 0 0 0 0 0 0 0 0 0 0 0 0 0 0 0 0 0 0 0 0 0 0 0 0 0 0 0 0 0 0 0 0 0 0 0 0 0 0 0 0 0 0 0 0 0 0 0 0 0 0 0 0 0 0 0 0 0 0 0 0 0 0 0 0 0 0 0 0 0 0 0 0 0 0 0 0 0 0 0 0 0 