# vtk DataFile Version 2.0
Comment goes here
ASCII

DATASET STRUCTURED_POINTS
FIELD FieldData 1
TIME 1 1 double
1.37500000
DIMENSIONS    384   64   1

ORIGIN    0.000   0.000   0.000
SPACING   0.078125 0.078125   1.000

POINT_DATA   24576
SCALARS Concentration double
LOOKUP_TABLE default

0 0 0 0 0 0 0 0 0 0 0 0 0 0 0 0 0 0 0 0 0 0 0 0 0 0 0 0 0 0 0 0 0 0 0 0 0 0 0 0 0 0 0 0 0 0 0 0 0 0 0 0 0 0 0 0 0 0 0 0 0 0 0 0 0 0 0 0 0 0 0 0 0 0 0 0 0 0 0 0 0 0 0 0 0 0 0 0 0 0 0 0 0 0 0 0 0 0 0 0 0 0 0 0 0 0 0 0 0 0 0 0 0 0 0 0 0 0 0 0 0 0 0 0 0 0 0 0 0 0 0 0 0 0 0 0 0 0 0 0 0 0 0 0 0 0 0 0 0 0 0 0 0 0 0 0 0 0 0 0 0 0 0 0 0 0 0 0 0 0 0 0 0 0 0 0 0 0 0 0 0 0 0 0 0 0 0 0 0 0 0 0 0 0 0 0 0 0 0 0 0 0 0 0 0 0 0 0 0 0 0 0 0 0 0 0 0 0 0 0 0 0 0 0 0 0 0 0 0 0 0 0 0 0 0 0 0 0 0 0 0 0 0 0 0 0 0 0 0 0 0 0 0 0 0 0 0 0 0 0 0 0 0 0 0 0 0 0 0 0 0 0 0 0 0 0 0 0 0 0 0 0 0 0 0 0 0 0 0 0 0 0 0 0 0 0 0 0 0 0 0 0 0 0 0 0 0 0 0 0 0 0 0 0 0 0 0 0 0 0 0 0 0 0 0 0 0 0 0 0 0 0 0 0 0 0 0 0 0 0 0 0 0 0 0 0 0 0 0 0 0 0 0 0 0 0 0 0 0 0 0 0 0 0 0 0 0 0 0 0 0 0 0 0 0 0 0 0 0 0 0 0 0 0 
0 0 0 0 0 0 0 0 0 0 0 0 0 0 0 0 0 0 0 0 0 0 0 0 0 0 0 0 0 0 0 0 0 0 0 0 0 0 0 0 0 0 0 0 0 0 0 0 0 0 0 0 0 0 0 0 0 0 0 0 0 0 0 0 0 0 0 0 0 0 0 0 0 0 0 0 0 0 0 0 0 0 0 0 0 0 0 0 0 0 0 0 0 0 0 0 0 0 0 0 0 0 0 0 0 0 0 0 0 0 0 0 0 0 0 0 0 0 0 0 0 0 0 0 0 0 0 0 0 0 0 0 0 0 0 0 0 0 0 0 0 0 0 0 0 0 0 0 0 0 0 0 0 0 0 0 0 0 0 0 0 0 0 0 0 0 0 0 0 0 0 0 0 0 0 0 0 0 0 0 0 0 0 0 0 0 0 0 0 0 0 0 0 0 0 0 0 0 0 0 0 0 0 0 0 0 0 0 0 0 0 0 0 0 0 0 0 0 0 0 0 0 0 0 0 0 0 0 0 0 0 0 0 0 0 0 0 0 0 0 0 0 0 0 0 0 0 0 0 0 0 0 0 0 0 0 0 0 0 0 0 0 0 0 0 0 0 0 0 0 0 0 0 0 0 0 0 0 0 0 0 0 0 0 0 0 0 0 0 0 0 0 0 0 0 0 0 0 0 0 0 0 0 0 0 0 0 0 0 0 0 0 0 0 0 0 0 0 0 0 0 0 0 0 0 0 0 0 0 0 0 0 0 0 0 0 0 0 0 0 0 0 0 0 0 0 0 0 0 0 0 0 0 0 0 0 0 0 0 0 0 0 0 0 0 0 0 0 0 0 0 0 0 0 0 0 0 0 0 0 0 0 0 0 
0 0 0 0 0 0 0 0 0 0 0 0 0 0 0 0 0 0 0 0 0 0 0 0 0 0 0 0 0 0 0 0 0 0 0 0 0 0 0 0 0 0 0 0 0 0 0 0 0 0 0 0 0 0 0 0 0 0 0 0 0 0 0 0 0 0 0 0 0 0 0 0 0 0 0 0 0 0 0 0 0 0 0 0 0 0 0 0 0 0 0 0 0 0 0 0 0 0 0 0 0 0 0 0 0 0 0 0 0 0 0 0 0 0 0 0 0 0 0 0 0 0 0 0 0 0 0 0 0 0 0 0 0 0 0 0 0 0 0 0 0 0 0 0 0 0 0 0 0 0 0 0 0 0 0 0 0 0 0 0 0 0 0 0 0 0 0 0 0 0 0 0 0 0 0 0 0 0 0 0 0 0 0 0 0 0 0 0 0 0 0 0 0 0 0 0 0 0 0 0 0 0 0 0 0 0 0 0 0 0 0 0 0 0 0 0 0 0 0 0 0 0 0 0 0 0 0 0 0 0 0 0 0 0 0 0 0 0 0 0 0 0 0 0 0 0 0 0 0 0 0 0 0 0 0 0 0 0 0 0 0 0 0 0 0 0 0 0 0 0 0 0 0 0 0 0 0 0 0 0 0 0 0 0 0 0 0 0 0 0 0 0 0 0 0 0 0 0 0 0 0 0 0 0 0 0 0 0 0 0 0 0 0 0 0 0 0 0 0 0 0 0 0 0 0 0 0 0 0 0 0 0 0 0 0 0 0 0 0 0 0 0 0 0 0 0 0 0 0 0 0 0 0 0 0 0 0 0 0 0 0 0 0 0 0 0 0 0 0 0 0 0 0 0 0 0 0 0 0 0 0 0 0 0 
0 0 0 0 0 0 0 0 0 0 0 0 0 0 0 0 0 0 0 0 0 0 0 0 0 0 0 0 0 0 0 0 0 0 0 0 0 0 0 0 0 0 0 0 0 0 0 0 0 0 0 0 0 0 0 0 0 0 0 0 0 0 0 0 0 0 0 0 0 0 0 0 0 0 0 0 0 0 0 0 0 0 0 0 0 0 0 0 0 0 0 0 0 0 0 0 0 0 0 0 0 0 0 0 0 0 0 0 0 0 0 0 0 0 0 0 0 0 0 0 0 0 0 0 0 0 0 0 0 0 0 0 0 0 0 0 0 0 0 0 0 0 0 0 0 0 0 0 0 0 0 0 0 0 0 0 0 0 0 0 0 0 0 0 0 0 0 0 0 0 0 0 0 0 0 0 0 0 0 0 0 0 0 0 0 0 0 0 0 0 0 0 0 0 0 0 0 0 0 0 0 0 0 0 0 0 0 0 0 0 0 0 0 0 0 0 0 0 0 0 0 0 0 0 0 0 0 0 0 0 0 0 0 0 0 0 0 0 0 0 0 0 0 0 0 0 0 0 0 0 0 0 0 0 0 0 0 0 0 0 0 0 0 0 0 0 0 0 0 0 0 0 0 0 0 0 0 0 0 0 0 0 0 0 0 0 0 0 0 0 0 0 0 0 0 0 0 0 0 0 0 0 0 0 0 0 0 0 0 0 0 0 0 0 0 0 0 0 0 0 0 0 0 0 0 0 0 0 0 0 0 0 0 0 0 0 0 0 0 0 0 0 0 0 0 0 0 0 0 0 0 0 0 0 0 0 0 0 0 0 0 0 0 0 0 0 0 0 0 0 0 0 0 0 0 0 0 0 0 0 0 0 0 0 
0 0 0 0 0 0 0 0 0 0 0 0 0 0 0 0 0 0 0 0 0 0 0 0 0 0 0 0 0 0 0 0 0 0 0 0 0 0 0 0 0 0 0 0 0 0 0 0 0 0 0 0 0 0 0 0 0 0 1.415710e-15 1.965309e-15 2.629347e-15 3.393749e-15 4.229881e-15 5.095032e-15 5.936624e-15 6.695535e-15 7.316258e-15 7.749537e-15 7.964379e-15 7.945168e-15 7.700837e-15 7.254604e-15 6.648794e-15 5.930107e-15 5.152181e-15 4.361658e-15 3.601399e-15 2.901109e-15 2.282277e-15 1.753853e-15 1.317926e-15 0 0 0 0 0 0 0 0 0 0 0 0 0 0 0 0 0 0 0 0 0 0 0 0 0 0 0 0 0 0 0 0 0 0 0 0 0 0 0 0 0 0 0 0 0 0 0 0 0 0 0 0 0 0 0 0 0 0 0 0 0 0 0 0 0 0 0 0 0 0 0 0 0 0 0 0 0 0 0 0 0 0 0 0 0 0 0 0 0 0 0 0 0 0 0 0 0 0 0 0 0 0 0 0 0 0 0 0 0 0 0 0 0 0 0 0 0 0 0 0 0 0 0 0 0 0 0 0 0 0 0 0 0 0 0 0 0 0 0 0 0 0 0 0 0 0 0 0 0 0 0 0 0 0 0 0 0 0 0 0 0 0 0 0 0 0 0 0 0 0 0 0 0 0 0 0 0 0 0 0 0 0 0 0 0 0 0 0 0 0 0 0 0 0 0 0 0 0 0 0 0 0 0 0 0 0 0 0 0 0 0 0 0 0 0 0 0 0 0 0 0 0 0 0 0 0 0 0 0 0 0 0 0 0 0 0 0 0 0 0 0 0 0 0 0 0 0 0 0 0 0 0 0 0 0 0 0 0 0 0 0 0 0 0 0 0 0 0 0 0 0 0 0 0 0 0 0 0 0 0 0 0 0 0 0 0 0 0 0 0 0 0 0 0 0 0 0 0 0 0 0 0 0 
0 0 0 0 0 0 0 0 0 0 0 0 0 0 0 0 0 0 0 0 0 0 0 0 0 0 0 0 0 0 0 0 0 0 0 0 0 0 0 0 0 0 0 0 0 0 0 0 0 0 0 0 0 1.398896e-15 2.355536e-15 3.805216e-15 5.900411e-15 8.798183e-15 1.262099e-14 1.743878e-14 2.322146e-14 2.983943e-14 3.702579e-14 4.440919e-14 5.152510e-14 5.787346e-14 6.298132e-14 6.644647e-14 6.802186e-14 6.759798e-14 6.527486e-14 6.126697e-14 5.595286e-14 4.973171e-14 4.306618e-14 3.634102e-14 2.991733e-14 2.402989e-14 1.885484e-14 1.445280e-14 1.083706e-14 7.948741e-15 5.711084e-15 4.019331e-15 2.774872e-15 1.879118e-15 1.250137e-15 0 0 0 0 0 0 0 0 0 0 0 0 0 0 0 0 0 0 0 0 0 0 0 0 0 0 0 0 0 0 0 0 0 0 0 0 0 0 0 0 0 0 0 0 0 0 0 0 0 0 0 0 0 0 0 0 0 0 0 0 0 0 0 0 0 0 0 0 0 0 0 0 0 0 0 0 0 0 0 0 0 0 0 0 0 0 0 0 0 0 0 0 0 0 0 0 0 0 0 0 0 0 0 0 0 0 0 0 0 0 0 0 0 0 0 0 0 0 0 0 0 0 0 0 0 0 0 0 0 0 0 0 0 0 0 0 0 0 0 0 0 0 0 0 0 0 0 0 0 0 0 0 0 0 0 0 0 0 0 0 0 0 0 0 0 0 0 0 0 0 0 0 0 0 0 0 0 0 0 0 0 0 0 0 0 0 0 0 0 0 0 0 0 0 0 0 0 0 0 0 0 0 0 0 0 0 0 0 0 0 0 0 0 0 0 0 0 0 0 0 0 0 0 0 0 0 0 0 0 0 0 0 0 0 0 0 0 0 0 0 0 0 0 0 0 0 0 0 0 0 0 0 0 0 0 0 0 0 0 0 0 0 0 0 0 0 0 0 0 0 0 0 0 0 0 0 0 0 0 0 0 0 0 0 0 0 0 0 0 0 0 0 0 0 0 0 0 
0 0 0 0 0 0 0 0 0 0 0 0 0 0 0 0 0 0 0 0 0 0 0 0 0 0 0 0 0 0 0 0 0 0 0 0 0 0 0 0 0 0 0 0 0 0 0 0 0 0 1.987684e-15 3.800531e-15 6.936711e-15 1.211782e-14 2.027718e-14 3.255679e-14 5.021028e-14 7.447340e-14 1.063138e-13 1.461817e-13 1.937749e-13 2.478731e-13 3.062586e-13 3.657651e-13 4.226455e-13 4.727919e-13 5.124995e-13 5.385915e-13 5.492654e-13 5.438043e-13 5.231898e-13 4.893180e-13 4.453098e-13 3.944729e-13 3.404763e-13 2.864225e-13 2.350818e-13 1.883014e-13 1.473550e-13 1.126894e-13 8.430972e-14 6.172758e-14 4.427671e-14 3.112418e-14 2.146604e-14 1.453018e-14 9.664443e-15 6.318346e-15 4.065256e-15 2.574924e-15 1.607625e-15 0 0 0 0 0 0 0 0 0 0 0 0 0 0 0 0 0 0 0 0 0 0 0 0 0 0 0 0 0 0 0 0 0 0 0 0 0 0 0 0 0 0 0 0 0 0 0 0 0 0 0 0 0 0 0 0 0 0 0 0 0 0 0 0 0 0 0 0 0 0 0 0 0 0 0 0 0 0 0 0 0 0 0 0 0 0 0 0 0 0 0 0 0 0 0 0 0 0 0 0 0 0 0 0 0 0 0 0 0 0 0 0 0 0 0 0 0 0 0 0 0 0 0 0 0 0 0 0 0 0 0 0 0 0 0 0 0 0 0 0 0 0 0 0 0 0 0 0 0 0 0 0 0 0 0 0 0 0 0 0 0 0 0 0 0 0 0 0 0 0 0 0 0 0 0 0 0 0 0 0 0 0 0 0 0 0 0 0 0 0 0 0 0 0 0 0 0 0 0 0 0 0 0 0 0 0 0 0 0 0 0 0 0 0 0 0 0 0 0 0 0 0 0 0 0 0 0 0 0 0 0 0 0 0 0 0 0 0 0 0 0 0 0 0 0 0 0 0 0 0 0 0 0 0 0 0 0 0 0 0 0 0 0 0 0 0 0 0 0 0 0 0 0 0 0 0 0 0 0 0 0 0 0 0 0 0 0 0 0 0 0 0 0 
0 0 0 0 0 0 0 0 0 0 0 0 0 0 0 0 0 0 0 0 0 0 0 0 0 0 0 0 0 0 0 0 0 0 0 0 0 0 0 0 0 0 0 0 0 0 0 1.826622e-15 4.000405e-15 8.343351e-15 1.654401e-14 3.135975e-14 5.677105e-14 9.848568e-14 1.637090e-13 2.613446e-13 4.008374e-13 5.916653e-13 8.405378e-13 1.150637e-12 1.518635e-12 1.934811e-12 2.381094e-12 2.833165e-12 3.261735e-12 3.635925e-12 3.927653e-12 4.113767e-12 4.181506e-12 4.126616e-12 3.957806e-12 3.690226e-12 3.348511e-12 2.957706e-12 2.545988e-12 2.136155e-12 1.749081e-12 1.397792e-12 1.091668e-12 8.332797e-13 6.224980e-13 4.551490e-13 3.261875e-13 2.291327e-13 1.580064e-13 1.069609e-13 7.119171e-14 4.658741e-14 3.002342e-14 1.905335e-14 1.192735e-14 7.364326e-15 4.492660e-15 2.707716e-15 1.615174e-15 0 0 0 0 0 0 0 0 0 0 0 0 0 0 0 0 0 0 0 0 0 0 0 0 0 0 0 0 0 0 0 0 0 0 0 0 0 0 0 0 0 0 0 0 0 0 0 0 0 0 0 0 0 0 0 0 0 0 0 0 0 0 0 0 0 0 0 0 0 0 0 0 0 0 0 0 0 0 0 0 0 0 0 0 0 0 0 0 0 0 0 0 0 0 0 0 0 0 0 0 0 0 0 0 0 0 0 0 0 0 0 0 0 0 0 0 0 0 0 0 0 0 0 0 0 0 0 0 0 0 0 0 0 0 0 0 0 0 0 0 0 0 0 0 0 0 0 0 0 0 0 0 0 0 0 0 0 0 0 0 0 0 0 0 0 0 0 0 0 0 0 0 0 0 0 0 0 0 0 0 0 0 0 0 0 0 0 0 0 0 0 0 0 0 0 0 0 0 0 0 0 0 0 0 0 0 0 0 0 0 0 0 0 0 0 0 0 0 0 0 0 0 0 0 0 0 0 0 0 0 0 0 0 0 0 0 0 0 0 0 0 0 0 0 0 0 0 0 0 0 0 0 0 0 0 0 0 0 0 0 0 0 0 0 0 0 0 0 0 0 0 0 0 0 0 0 0 0 0 0 0 0 0 0 0 0 0 0 0 
0 0 0 0 0 0 0 0 0 0 0 0 0 0 0 0 0 0 0 0 0 0 0 0 0 0 0 0 0 0 0 0 0 0 0 0 0 0 0 0 0 0 0 0 1.070664e-15 2.715473e-15 6.515929e-15 1.486826e-14 3.214752e-14 6.624512e-14 1.300051e-13 2.440474e-13 4.381984e-13 7.543458e-13 1.245710e-12 1.976265e-12 3.014715e-12 4.426708e-12 6.258151e-12 8.526298e-12 1.120483e-11 1.421530e-11 1.742621e-11 2.065522e-11 2.369389e-11 2.631771e-11 2.833185e-11 2.957390e-11 2.996177e-11 2.947296e-11 2.817760e-11 2.619202e-11 2.369484e-11 2.086954e-11 1.791396e-11 1.499142e-11 1.224403e-11 9.763169e-12 7.608800e-12 5.797727e-12 4.324222e-12 3.158114e-12 2.261142e-12 1.587712e-12 1.094679e-12 7.413726e-13 4.938127e-13 3.236124e-13 2.089188e-13 1.329158e-13 8.344201e-14 5.170775e-14 3.167103e-14 1.918036e-14 1.150069e-14 6.829938e-15 4.022811e-15 2.350787e-15 1.364789e-15 0 0 0 0 0 0 0 0 0 0 0 0 0 0 0 0 0 0 0 0 0 0 0 0 0 0 0 0 0 0 0 0 0 0 0 0 0 0 0 0 0 0 0 0 0 0 0 0 0 0 0 0 0 0 0 0 0 0 0 0 0 0 0 0 0 0 0 0 0 0 0 0 0 0 0 0 0 0 0 0 0 0 0 0 0 0 0 0 0 0 0 0 0 0 0 0 0 0 0 0 0 0 0 0 0 0 0 0 0 0 0 0 0 0 0 0 0 0 0 0 0 0 0 0 0 0 0 0 0 0 0 0 0 0 0 0 0 0 0 0 0 0 0 0 0 0 0 0 0 0 0 0 0 0 0 0 0 0 0 0 0 0 0 0 0 0 0 0 0 0 0 0 0 0 0 0 0 0 0 0 0 0 0 0 0 0 0 0 0 0 0 0 0 0 0 0 0 0 0 0 0 0 0 0 0 0 0 0 0 0 0 0 0 0 0 0 0 0 0 0 0 0 0 0 0 0 0 0 0 0 0 0 0 0 0 0 0 0 0 0 0 0 0 0 0 0 0 0 0 0 0 0 0 0 0 0 0 0 0 0 0 0 0 0 0 0 0 0 0 0 0 0 0 0 0 0 0 0 0 0 0 0 0 0 0 
0 0 0 0 0 0 0 0 0 0 0 0 0 0 0 0 0 0 0 0 0 0 0 0 0 0 0 0 0 0 0 0 0 0 0 0 0 0 0 0 0 0 1.315494e-15 3.478401e-15 8.845747e-15 2.173491e-14 5.089935e-14 1.140269e-13 2.426558e-13 4.935313e-13 9.569310e-13 1.778365e-12 3.163788e-12 5.404502e-12 8.861297e-12 1.397316e-11 2.119465e-11 3.096397e-11 4.355714e-11 5.908224e-11 7.731681e-11 9.771892e-11 1.193555e-10 1.409970e-10 1.612124e-10 1.785131e-10 1.915962e-10 1.994143e-10 2.014567e-10 1.976203e-10 1.884286e-10 1.746892e-10 1.576398e-10 1.385032e-10 1.186207e-10 9.905168e-11 8.074437e-11 6.426729e-11 5.001278e-11 3.805840e-11 2.836098e-11 2.069885e-11 1.481777e-11 1.040568e-11 7.179540e-12 4.867267e-12 3.247491e-12 2.132510e-12 1.380531e-12 8.810508e-13 5.552696e-13 3.455620e-13 2.127317e-13 1.295329e-13 7.815391e-14 4.671869e-14 2.771996e-14 1.632264e-14 9.556060e-15 5.561219e-15 3.222903e-15 1.859484e-15 1.069965e-15 0 0 0 0 0 0 0 0 0 0 0 0 0 0 0 0 0 0 0 0 0 0 0 0 0 0 0 0 0 0 0 0 0 0 0 0 0 0 0 0 0 0 0 0 0 0 0 0 0 0 0 0 0 0 0 0 0 0 0 0 0 0 0 0 0 0 0 0 0 0 0 0 0 0 0 0 0 0 0 0 0 0 0 0 0 0 0 0 0 0 0 0 0 0 0 0 0 0 0 0 0 0 0 0 0 0 0 0 0 0 0 0 0 0 0 0 0 0 0 0 0 0 0 0 0 0 0 0 0 0 0 0 0 0 0 0 0 0 0 0 0 0 0 0 0 0 0 0 0 0 0 0 0 0 0 0 0 0 0 0 0 0 0 0 0 0 0 0 0 0 0 0 0 0 0 0 0 0 0 0 0 0 0 0 0 0 0 0 0 0 0 0 0 0 0 0 0 0 0 0 0 0 0 0 0 0 0 0 0 0 0 0 0 0 0 0 0 0 0 0 0 0 0 0 0 0 0 0 0 0 0 0 0 0 0 0 0 0 0 0 0 0 0 0 0 0 0 0 0 0 0 0 0 0 0 0 0 0 0 0 0 0 0 0 0 0 0 0 0 0 0 0 0 0 0 0 0 0 0 0 0 
0 0 0 0 0 0 0 0 0 0 0 0 0 0 0 0 0 0 0 0 0 0 0 0 0 0 0 0 0 0 0 0 0 0 0 0 0 0 0 0 1.706055e-15 4.615925e-15 1.180788e-14 2.930309e-14 7.063916e-14 1.664756e-13 3.782747e-13 8.279412e-13 1.730759e-12 3.466475e-12 6.637048e-12 1.219469e-11 2.149113e-11 3.639560e-11 5.924192e-11 9.279001e-11 1.399304e-10 2.032347e-10 2.844252e-10 3.839306e-10 5.002789e-10 6.297094e-10 7.663128e-10 9.020326e-10 1.027951e-09 1.134568e-09 1.213944e-09 1.259613e-09 1.268719e-09 1.240922e-09 1.179800e-09 1.090741e-09 9.815954e-10 8.602239e-10 7.348888e-10 6.122665e-10 4.980220e-10 3.956687e-10 3.073901e-10 2.336238e-10 1.739133e-10 1.268635e-10 9.079576e-11 6.378520e-11 4.404024e-11 2.989859e-11 1.998391e-11 1.315605e-11 8.541743e-12 5.471650e-12 3.462612e-12 2.165542e-12 1.340207e-12 8.210605e-13 4.985919e-13 3.002129e-13 1.794724e-13 1.065579e-13 6.291521e-14 3.695069e-14 2.161381e-14 1.259423e-14 7.319357e-15 4.243410e-15 2.457208e-15 1.421592e-15 0 0 0 0 0 0 0 0 0 0 0 0 0 0 0 0 0 0 0 0 0 0 0 0 0 0 0 0 0 0 0 0 0 0 0 0 0 0 0 0 0 0 0 0 0 0 0 0 0 0 0 0 0 0 0 0 0 0 0 0 0 0 0 0 0 0 0 0 0 0 0 0 0 0 0 0 0 0 0 0 0 0 0 0 0 0 0 0 0 0 0 0 0 0 0 0 0 0 0 0 0 0 0 0 0 0 0 0 0 0 0 0 0 0 0 0 0 0 0 0 0 0 0 0 0 0 0 0 0 0 0 0 0 0 0 0 0 0 0 0 0 0 0 0 0 0 0 0 0 0 0 0 0 0 0 0 0 0 0 0 0 0 0 0 0 0 0 0 0 0 0 0 0 0 0 0 0 0 0 0 0 0 0 0 0 0 0 0 0 0 0 0 0 0 0 0 0 0 0 0 0 0 0 0 0 0 0 0 0 0 0 0 0 0 0 0 0 0 0 0 0 0 0 0 0 0 0 0 0 0 0 0 0 0 0 0 0 0 0 0 0 0 0 0 0 0 0 0 0 0 0 0 0 0 0 0 0 0 0 0 0 0 0 0 0 0 0 0 0 0 0 0 0 0 0 0 0 0 
0 0 0 0 0 0 0 0 0 0 0 0 0 0 0 0 0 0 0 0 0 0 0 0 0 0 0 0 0 0 0 0 0 0 0 0 0 0 2.196166e-15 6.455839e-15 1.730224e-14 4.365196e-14 1.040909e-13 2.411571e-13 5.455160e-13 1.221515e-12 2.668367e-12 5.675570e-12 1.159830e-11 2.282449e-11 4.304158e-11 7.811495e-11 1.361688e-10 2.285275e-10 3.689517e-10 5.739501e-10 8.598860e-10 1.241600e-09 1.728310e-09 2.322204e-09 3.013120e-09 3.778605e-09 4.582368e-09 5.377061e-09 6.109324e-09 6.724036e-09 7.174778e-09 7.425001e-09 7.459341e-09 7.277354e-09 6.901907e-09 6.365443e-09 5.715419e-09 4.997560e-09 4.260837e-09 3.543070e-09 2.877332e-09 2.282645e-09 1.771506e-09 1.345262e-09 1.001120e-09 7.302532e-10 5.229439e-10 3.677116e-10 2.542964e-10 1.729846e-10 1.159403e-10 7.656805e-11 4.990931e-11 3.210961e-11 2.042438e-11 1.284390e-11 7.998829e-12 4.932778e-12 3.017501e-12 1.830755e-12 1.103569e-12 6.608026e-13 3.937334e-13 2.333905e-13 1.378664e-13 8.113339e-14 4.764862e-14 2.791841e-14 1.634962e-14 9.568745e-15 5.608355e-15 3.292717e-15 1.941261e-15 1.149997e-15 0 0 0 0 0 0 0 0 0 0 0 0 0 0 0 0 0 0 0 0 0 0 0 0 0 0 0 0 0 0 0 0 0 0 0 0 0 0 0 0 0 0 0 0 0 0 0 0 0 0 0 0 0 0 0 0 0 0 0 0 0 0 0 0 0 0 0 0 0 0 0 0 0 0 0 0 0 0 0 0 0 0 0 0 0 0 0 0 0 0 0 0 0 0 0 0 0 0 0 0 0 0 0 0 0 0 0 0 0 0 0 0 0 0 0 0 0 0 0 0 0 0 0 0 0 0 0 0 0 0 0 0 0 0 0 0 0 0 0 0 0 0 0 0 0 0 0 0 0 0 0 0 0 0 0 0 0 0 0 0 0 0 0 0 0 0 0 0 0 0 0 0 0 0 0 0 0 0 0 0 0 0 0 0 0 0 0 0 0 0 0 0 0 0 0 0 0 0 0 0 0 0 0 0 0 0 0 0 0 0 0 0 0 0 0 0 0 0 0 0 0 0 0 0 0 0 0 0 0 0 0 0 0 0 0 0 0 0 0 0 0 0 0 0 0 0 0 0 0 0 0 0 0 0 0 0 0 0 0 0 0 0 0 0 0 0 0 0 0 0 0 0 0 0 
0 0 0 0 0 0 0 0 0 0 0 0 0 0 0 0 0 0 0 0 0 0 0 0 0 0 0 0 0 0 0 0 0 0 0 0 2.370435e-15 8.572547e-15 2.618217e-14 7.111982e-14 1.753830e-13 4.076347e-13 8.996931e-13 1.934524e-12 4.084261e-12 8.616015e-12 1.797493e-11 3.691464e-11 7.350014e-11 1.416386e-10 2.627199e-10 4.700725e-10 8.099613e-10 1.345298e-09 2.153174e-09 3.323199e-09 4.942494e-09 7.088836e-09 9.811890e-09 1.311549e-08 1.694286e-08 2.116049e-08 2.556976e-08 2.990153e-08 3.386687e-08 3.715945e-08 3.953301e-08 4.079131e-08 4.086116e-08 3.975023e-08 3.759242e-08 3.457553e-08 3.096087e-08 2.700414e-08 2.296726e-08 1.905741e-08 1.544563e-08 1.223388e-08 9.481397e-09 7.194003e-09 5.350709e-09 3.903358e-09 2.796510e-09 1.968719e-09 1.363668e-09 9.298520e-10 6.249763e-10 4.142461e-10 2.711150e-10 1.752774e-10 1.120784e-10 7.090847e-11 4.444228e-11 2.760317e-11 1.701086e-11 1.040469e-11 6.324202e-12 3.820966e-12 2.297534e-12 1.375223e-12 8.204087e-13 4.878997e-13 2.896112e-13 1.716409e-13 1.017102e-13 6.029710e-14 3.582495e-14 2.135290e-14 1.279523e-14 7.718080e-15 4.696709e-15 2.886148e-15 1.793507e-15 1.126823e-15 0 0 0 0 0 0 0 0 0 0 0 0 0 0 0 0 0 0 0 0 0 0 0 0 0 0 0 0 0 0 0 0 0 0 0 0 0 0 0 0 0 0 0 0 0 0 0 0 0 0 0 0 0 0 0 0 0 0 0 0 0 0 0 0 0 0 0 0 0 0 0 0 0 0 0 0 0 0 0 0 0 0 0 0 0 0 0 0 0 0 0 0 0 0 0 0 0 0 0 0 0 0 0 0 0 0 0 0 0 0 0 0 0 0 0 0 0 0 0 0 0 0 0 0 0 0 0 0 0 0 0 0 0 0 0 0 0 0 0 0 0 0 0 0 0 0 0 0 0 0 0 0 0 0 0 0 0 0 0 0 0 0 0 0 0 0 0 0 0 0 0 0 0 0 0 0 0 0 0 0 0 0 0 0 0 0 0 0 0 0 0 0 0 0 0 0 0 0 0 0 0 0 0 0 0 0 0 0 0 0 0 0 0 0 0 0 0 0 0 0 0 0 0 0 0 0 0 0 0 0 0 0 0 0 0 0 0 0 0 0 0 0 0 0 0 0 0 0 0 0 0 0 0 0 0 0 0 0 0 0 0 0 0 0 0 0 0 0 0 0 
0 0 0 0 0 0 0 0 0 0 0 0 0 0 0 0 0 0 0 0 0 0 0 0 0 0 0 0 0 0 0 0 0 0 1.343888e-15 7.394158e-15 3.208862e-14 1.121570e-13 3.218122e-13 8.049540e-13 1.806715e-12 3.819177e-12 7.695586e-12 1.521526e-11 2.969949e-11 5.853498e-11 1.154841e-10 2.274257e-10 4.383324e-10 8.241568e-10 1.498109e-09 2.637794e-09 4.482605e-09 7.360749e-09 1.166277e-08 1.784085e-08 2.631707e-08 3.748630e-08 5.157372e-08 6.859240e-08 8.821827e-08 1.097672e-07 1.321915e-07 1.541224e-07 1.740643e-07 1.904744e-07 2.021050e-07 2.079947e-07 2.078118e-07 2.016394e-07 1.902128e-07 1.745103e-07 1.558992e-07 1.356659e-07 1.151523e-07 9.537018e-08 7.718032e-08 6.105416e-08 4.728201e-08 3.585929e-08 2.667619e-08 1.947149e-08 1.396824e-08 9.850566e-09 6.840401e-09 4.678173e-09 3.156228e-09 2.100827e-09 1.381846e-09 8.981928e-10 5.778753e-10 3.679729e-10 2.322904e-10 1.453521e-10 9.030458e-11 5.569572e-11 3.415752e-11 2.082638e-11 1.264548e-11 7.644511e-12 4.608917e-12 2.770744e-12 1.663917e-12 9.981421e-13 5.993562e-13 3.603705e-13 2.175039e-13 1.318732e-13 8.054177e-14 4.959225e-14 3.085995e-14 1.940898e-14 1.235267e-14 7.944392e-15 5.160718e-15 3.376622e-15 2.221805e-15 1.465216e-15 0 0 0 0 0 0 0 0 0 0 0 0 0 0 0 0 0 0 0 0 0 0 0 0 0 0 0 0 0 0 0 0 0 0 0 0 0 0 0 0 0 0 0 0 0 0 0 0 0 0 0 0 0 0 0 0 0 0 0 0 0 0 0 0 0 0 0 0 0 0 0 0 0 0 0 0 0 0 0 0 0 0 0 0 0 0 0 0 0 0 0 0 0 0 0 0 0 0 0 0 0 0 0 0 0 0 0 0 0 0 0 0 0 0 0 0 0 0 0 0 0 0 0 0 0 0 0 0 0 0 0 0 0 0 0 0 0 0 0 0 0 0 0 0 0 0 0 0 0 0 0 0 0 0 0 0 0 0 0 0 0 0 0 0 0 0 0 0 0 0 0 0 0 0 0 0 0 0 0 0 0 0 0 0 0 0 0 0 0 0 0 0 0 0 0 0 0 0 0 0 0 0 0 0 0 0 0 0 0 0 0 0 0 0 0 0 0 0 0 0 0 0 0 0 0 0 0 0 0 0 0 0 0 0 0 0 0 0 0 0 0 0 0 0 0 0 0 0 0 0 0 0 0 0 0 0 0 0 0 0 0 0 0 0 0 0 
0 0 0 0 0 0 0 0 0 0 0 0 0 0 0 0 0 0 0 0 0 0 0 0 0 0 0 0 0 0 0 0 0 2.437664e-15 1.729569e-14 9.830436e-14 4.311862e-13 1.474358e-12 4.015260e-12 9.291616e-12 1.895006e-11 3.607567e-11 6.553473e-11 1.175958e-10 2.103423e-10 3.838511e-10 7.113653e-10 1.333764e-09 2.477659e-09 4.525202e-09 8.042718e-09 1.389712e-08 2.325614e-08 3.767867e-08 5.902226e-08 8.930911e-08 1.305431e-07 1.844684e-07 2.521408e-07 3.334407e-07 4.268529e-07 5.289148e-07 6.347108e-07 7.375366e-07 8.304015e-07 9.058942e-07 9.583016e-07 9.831881e-07 9.792653e-07 9.472091e-07 8.907225e-07 8.146992e-07 7.256254e-07 6.296970e-07 5.330681e-07 4.404890e-07 3.557472e-07 2.809892e-07 2.173468e-07 1.647509e-07 1.225461e-07 8.950710e-08 6.428172e-08 4.542100e-08 3.161822e-08 2.169518e-08 1.469213e-08 9.824215e-09 6.494281e-09 4.245685e-09 2.748292e-09 1.762049e-09 1.120278e-09 7.065082e-10 4.424953e-10 2.753127e-10 1.703692e-10 1.048879e-10 6.432176e-11 3.930235e-11 2.395880e-11 1.457725e-11 8.865262e-12 5.392753e-12 3.287240e-12 2.010168e-12 1.235910e-12 7.650706e-13 4.779296e-13 3.016046e-13 1.925549e-13 1.243470e-13 8.121143e-14 5.354338e-14 3.557886e-14 2.375857e-14 1.590851e-14 1.064939e-14 7.113245e-15 4.729214e-15 3.125575e-15 2.049746e-15 1.332947e-15 0 0 0 0 0 0 0 0 0 0 0 0 0 0 0 0 0 0 0 0 0 0 0 0 0 0 0 0 0 0 0 0 0 0 0 0 0 0 0 0 0 0 0 0 0 0 0 0 0 0 0 0 0 0 0 0 0 0 0 0 0 0 0 0 0 0 0 0 0 0 0 0 0 0 0 0 0 0 0 0 0 0 0 0 0 0 0 0 0 0 0 0 0 0 0 0 0 0 0 0 0 0 0 0 0 0 0 0 0 0 0 0 0 0 0 0 0 0 0 0 0 0 0 0 0 0 0 0 0 0 0 0 0 0 0 0 0 0 0 0 0 0 0 0 0 0 0 0 0 0 0 0 0 0 0 0 0 0 0 0 0 0 0 0 0 0 0 0 0 0 0 0 0 0 0 0 0 0 0 0 0 0 0 0 0 0 0 0 0 0 0 0 0 0 0 0 0 0 0 0 0 0 0 0 0 0 0 0 0 0 0 0 0 0 0 0 0 0 0 0 0 0 0 0 0 0 0 0 0 0 0 0 0 0 0 0 0 0 0 0 0 0 0 0 0 0 0 0 0 0 0 0 0 0 0 0 0 0 0 0 0 
0 0 0 0 0 0 0 0 0 0 0 0 0 0 0 0 0 0 0 0 0 0 0 0 0 0 0 0 0 0 0 0 3.093928e-15 2.843137e-14 2.130409e-13 1.264552e-12 5.674939e-12 1.919805e-11 5.017223e-11 1.085504e-10 2.024059e-10 3.470440e-10 5.632432e-10 9.059443e-10 1.463393e-09 2.443969e-09 4.204710e-09 7.443586e-09 1.322255e-08 2.334436e-08 4.037189e-08 6.825193e-08 1.121080e-07 1.788403e-07 2.761783e-07 4.127981e-07 5.970907e-07 8.365460e-07 1.135312e-06 1.492867e-06 1.902113e-06 2.347971e-06 2.808342e-06 3.253901e-06 3.653503e-06 3.974941e-06 4.193310e-06 4.290020e-06 4.260444e-06 4.108650e-06 3.852148e-06 3.512917e-06 3.120096e-06 2.700370e-06 2.280643e-06 1.880596e-06 1.516371e-06 1.196216e-06 9.247214e-07 7.008364e-07 5.216169e-07 3.814096e-07 2.744511e-07 1.944020e-07 1.357736e-07 9.351515e-08 6.362073e-08 4.275475e-08 2.842647e-08 1.869785e-08 1.218631e-08 7.868957e-09 5.042180e-09 3.205659e-09 2.025452e-09 1.271656e-09 7.946677e-10 4.942088e-10 3.064057e-10 1.893712e-10 1.168902e-10 7.206853e-11 4.447987e-11 2.749482e-11 1.706617e-11 1.064675e-11 6.694691e-12 4.246992e-12 2.724679e-12 1.767909e-12 1.161330e-12 7.711263e-13 5.171969e-13 3.493387e-13 2.372063e-13 1.613547e-13 1.097557e-13 7.442158e-14 5.024124e-14 3.368441e-14 2.241649e-14 1.477918e-14 9.653524e-15 6.237782e-15 3.989021e-15 2.521519e-15 1.576586e-15 0 0 0 0 0 0 0 0 0 0 0 0 0 0 0 0 0 0 0 0 0 0 0 0 0 0 0 0 0 0 0 0 0 0 0 0 0 0 0 0 0 0 0 0 0 0 0 0 0 0 0 0 0 0 0 0 0 0 0 0 0 0 0 0 0 0 0 0 0 0 0 0 0 0 0 0 0 0 0 0 0 0 0 0 0 0 0 0 0 0 0 0 0 0 0 0 0 0 0 0 0 0 0 0 0 0 0 0 0 0 0 0 0 0 0 0 0 0 0 0 0 0 0 0 0 0 0 0 0 0 0 0 0 0 0 0 0 0 0 0 0 0 0 0 0 0 0 0 0 0 0 0 0 0 0 0 0 0 0 0 0 0 0 0 0 0 0 0 0 0 0 0 0 0 0 0 0 0 0 0 0 0 0 0 0 0 0 0 0 0 0 0 0 0 0 0 0 0 0 0 0 0 0 0 0 0 0 0 0 0 0 0 0 0 0 0 0 0 0 0 0 0 0 0 0 0 0 0 0 0 0 0 0 0 0 0 0 0 0 0 0 0 0 0 0 0 0 0 0 0 0 0 0 0 0 0 0 
0 0 0 0 0 0 0 0 0 0 0 0 0 0 0 0 0 0 0 0 0 0 0 0 0 0 0 0 0 0 0 2.741344e-15 3.149488e-14 3.079765e-13 2.457235e-12 1.537897e-11 7.134917e-11 2.408379e-10 6.097307e-10 1.247032e-09 2.151831e-09 3.350986e-09 4.871345e-09 6.970462e-09 1.005196e-08 1.514936e-08 2.394976e-08 3.967708e-08 6.705995e-08 1.138930e-07 1.911056e-07 3.149962e-07 5.065879e-07 7.931263e-07 1.204323e-06 1.773899e-06 2.535257e-06 3.516387e-06 4.734621e-06 6.185438e-06 7.841739e-06 9.639238e-06 1.148964e-05 1.326978e-05 1.485422e-05 1.610983e-05 1.693867e-05 1.726810e-05 1.708528e-05 1.641341e-05 1.532845e-05 1.392509e-05 1.232150e-05 1.062718e-05 8.946456e-06 7.357152e-06 5.918365e-06 4.661060e-06 3.598951e-06 2.726627e-06 2.029763e-06 1.485785e-06 1.070891e-06 7.604807e-07 5.327654e-07 3.683925e-07 2.517268e-07 1.700468e-07 1.136901e-07 7.525593e-08 4.937581e-08 3.212057e-08 2.074197e-08 1.330021e-08 8.478699e-09 5.375479e-09 3.393659e-09 2.134341e-09 1.339060e-09 8.385465e-10 5.249856e-10 3.288900e-10 2.065912e-10 1.302891e-10 8.269468e-11 5.290439e-11 3.419300e-11 2.234856e-11 1.478929e-11 9.904193e-12 6.708351e-12 4.585513e-12 3.156971e-12 2.182344e-12 1.511184e-12 1.045097e-12 7.204494e-13 4.938899e-13 3.362825e-13 2.270315e-13 1.518849e-13 1.005705e-13 6.590057e-14 4.269691e-14 2.735624e-14 1.732140e-14 1.084233e-14 6.705616e-15 4.099490e-15 2.476201e-15 1.478561e-15 0 0 0 0 0 0 0 0 0 0 0 0 0 0 0 0 0 0 0 0 0 0 0 0 0 0 0 0 0 0 0 0 0 0 0 0 0 0 0 0 0 0 0 0 0 0 0 0 0 0 0 0 0 0 0 0 0 0 0 0 0 0 0 0 0 0 0 0 0 0 0 0 0 0 0 0 0 0 0 0 0 0 0 0 0 0 0 0 0 0 0 0 0 0 0 0 0 0 0 0 0 0 0 0 0 0 0 0 0 0 0 0 0 0 0 0 0 0 0 0 0 0 0 0 0 0 0 0 0 0 0 0 0 0 0 0 0 0 0 0 0 0 0 0 0 0 0 0 0 0 0 0 0 0 0 0 0 0 0 0 0 0 0 0 0 0 0 0 0 0 0 0 0 0 0 0 0 0 0 0 0 0 0 0 0 0 0 0 0 0 0 0 0 0 0 0 0 0 0 0 0 0 0 0 0 0 0 0 0 0 0 0 0 0 0 0 0 0 0 0 0 0 0 0 0 0 0 0 0 0 0 0 0 0 0 0 0 0 0 0 0 0 0 0 0 0 0 0 0 0 0 0 0 
0 0 0 0 0 0 0 0 0 0 0 0 0 0 0 0 0 0 0 0 0 0 0 0 0 0 0 0 0 0 1.725567e-15 2.416552e-14 2.959805e-13 3.097446e-12 2.649444e-11 1.760721e-10 8.504503e-10 2.876168e-09 7.095456e-09 1.383184e-08 2.232925e-08 3.199948e-08 4.208631e-08 5.383479e-08 6.887875e-08 9.257581e-08 1.323251e-07 2.026058e-07 3.224248e-07 5.235288e-07 8.475427e-07 1.356710e-06 2.127514e-06 3.256273e-06 4.845935e-06 7.017815e-06 9.889080e-06 1.356216e-05 1.809893e-05 2.348732e-05 2.962628e-05 3.628105e-05 4.311524e-05 4.966631e-05 5.545272e-05 5.997556e-05 6.286812e-05 6.387355e-05 6.296477e-05 6.025271e-05 5.604713e-05 5.071390e-05 4.470565e-05 3.842179e-05 3.224598e-05 2.644648e-05 2.123175e-05 1.669632e-05 1.288308e-05 9.759679e-06 7.271281e-06 5.330155e-06 3.850709e-06 2.742432e-06 1.928463e-06 1.339123e-06 9.196533e-07 6.246320e-07 4.202192e-07 2.799973e-07 1.850665e-07 1.213295e-07 7.902551e-08 5.113376e-08 3.292459e-08 2.109625e-08 1.347555e-08 8.582217e-09 5.460611e-09 3.472521e-09 2.212302e-09 1.413173e-09 9.076400e-10 5.868213e-10 3.830240e-10 2.526253e-10 1.687205e-10 1.140686e-10 7.809755e-11 5.403483e-11 3.773088e-11 2.650078e-11 1.868332e-11 1.317527e-11 9.276372e-12 6.501566e-12 4.530895e-12 3.132454e-12 2.147473e-12 1.457356e-12 9.791250e-13 6.503704e-13 4.272991e-13 2.773731e-13 1.780170e-13 1.128466e-13 7.071611e-14 4.376639e-14 2.677792e-14 1.618168e-14 9.668005e-15 5.705734e-15 3.329883e-15 1.919893e-15 1.094857e-15 0 0 0 0 0 0 0 0 0 0 0 0 0 0 0 0 0 0 0 0 0 0 0 0 0 0 0 0 0 0 0 0 0 0 0 0 0 0 0 0 0 0 0 0 0 0 0 0 0 0 0 0 0 0 0 0 0 0 0 0 0 0 0 0 0 0 0 0 0 0 0 0 0 0 0 0 0 0 0 0 0 0 0 0 0 0 0 0 0 0 0 0 0 0 0 0 0 0 0 0 0 0 0 0 0 0 0 0 0 0 0 0 0 0 0 0 0 0 0 0 0 0 0 0 0 0 0 0 0 0 0 0 0 0 0 0 0 0 0 0 0 0 0 0 0 0 0 0 0 0 0 0 0 0 0 0 0 0 0 0 0 0 0 0 0 0 0 0 0 0 0 0 0 0 0 0 0 0 0 0 0 0 0 0 0 0 0 0 0 0 0 0 0 0 0 0 0 0 0 0 0 0 0 0 0 0 0 0 0 0 0 0 0 0 0 0 0 0 0 0 0 0 0 0 0 0 0 0 0 0 0 0 0 0 0 0 0 0 0 0 0 0 0 0 0 0 0 0 0 
0 0 0 0 0 0 0 0 0 0 0 0 0 0 0 0 0 0 0 0 0 0 0 0 0 0 0 0 0 0 1.298708e-14 1.931652e-13 2.533365e-12 2.850748e-11 2.626260e-10 1.860840e-09 9.387385e-09 3.187208e-08 7.686040e-08 1.437545e-07 2.192427e-07 2.926284e-07 3.535454e-07 4.090755e-07 4.676704e-07 5.578409e-07 7.132836e-07 9.956303e-07 1.478569e-06 2.280051e-06 3.548379e-06 5.496191e-06 8.376997e-06 1.248450e-05 1.815566e-05 2.577249e-05 3.572810e-05 4.834961e-05 6.387811e-05 8.226682e-05 1.032203e-04 1.259066e-04 1.491843e-04 1.713829e-04 1.908191e-04 2.057104e-04 2.148153e-04 2.172974e-04 2.131663e-04 2.029337e-04 1.877611e-04 1.690034e-04 1.482199e-04 1.267919e-04 1.059572e-04 8.659093e-05 6.930854e-05 5.438786e-05 4.190520e-05 3.173019e-05 2.364443e-05 1.735256e-05 1.255854e-05 8.968388e-06 6.327082e-06 4.411716e-06 3.043767e-06 2.078661e-06 1.406715e-06 9.437168e-07 6.283355e-07 4.153684e-07 2.729627e-07 1.784058e-07 1.161281e-07 7.532736e-08 4.876709e-08 3.153780e-08 2.041188e-08 1.323810e-08 8.623111e-09 5.650856e-09 3.734905e-09 2.493726e-09 1.685347e-09 1.153555e-09 7.999898e-10 5.614027e-10 3.980994e-10 2.844593e-10 2.043111e-10 1.470274e-10 1.057540e-10 7.581686e-11 5.408124e-11 3.830270e-11 2.690734e-11 1.872128e-11 1.289524e-11 8.784356e-12 5.917707e-12 3.939479e-12 2.592104e-12 1.684784e-12 1.082108e-12 6.864683e-13 4.303237e-13 2.664428e-13 1.630337e-13 9.854461e-14 5.887371e-14 3.475058e-14 2.027776e-14 1.169263e-14 6.666760e-15 3.756989e-15 2.093977e-15 1.153765e-15 0 0 0 0 0 0 0 0 0 0 0 0 0 0 0 0 0 0 0 0 0 0 0 0 0 0 0 0 0 0 0 0 0 0 0 0 0 0 0 0 0 0 0 0 0 0 0 0 0 0 0 0 0 0 0 0 0 0 0 0 0 0 0 0 0 0 0 0 0 0 0 0 0 0 0 0 0 0 0 0 0 0 0 0 0 0 0 0 0 0 0 0 0 0 0 0 0 0 0 0 0 0 0 0 0 0 0 0 0 0 0 0 0 0 0 0 0 0 0 0 0 0 0 0 0 0 0 0 0 0 0 0 0 0 0 0 0 0 0 0 0 0 0 0 0 0 0 0 0 0 0 0 0 0 0 0 0 0 0 0 0 0 0 0 0 0 0 0 0 0 0 0 0 0 0 0 0 0 0 0 0 0 0 0 0 0 0 0 0 0 0 0 0 0 0 0 0 0 0 0 0 0 0 0 0 0 0 0 0 0 0 0 0 0 0 0 0 0 0 0 0 0 0 0 0 0 0 0 0 0 0 0 0 0 0 0 0 0 0 0 0 0 0 0 0 0 
0 0 0 0 0 0 0 0 0 0 0 0 0 0 0 0 0 0 0 0 0 0 0 0 0 0 0 0 0 5.091268e-15 8.863586e-14 1.405351e-12 1.980158e-11 2.403035e-10 2.387325e-09 1.802636e-08 9.507621e-08 3.232650e-07 7.630900e-07 1.374144e-06 1.994097e-06 2.505828e-06 2.816679e-06 2.998571e-06 3.106340e-06 3.318578e-06 3.777062e-06 4.747533e-06 6.480571e-06 9.391993e-06 1.394068e-05 2.078710e-05 3.062991e-05 4.428562e-05 6.270473e-05 8.699024e-05 1.183082e-04 1.576974e-04 2.059955e-04 2.632230e-04 3.285874e-04 3.995844e-04 4.725148e-04 5.419417e-04 6.022070e-04 6.474855e-04 6.737526e-04 6.785588e-04 6.622928e-04 6.270104e-04 5.768196e-04 5.162256e-04 4.502982e-04 3.832602e-04 3.188859e-04 2.596208e-04 2.072062e-04 1.622462e-04 1.248608e-04 9.449969e-05 7.045628e-05 5.177001e-05 3.754858e-05 2.688844e-05 1.903917e-05 1.333154e-05 9.245016e-06 6.349542e-06 4.325633e-06 2.923106e-06 1.962614e-06 1.309370e-06 8.695517e-07 5.749504e-07 3.792498e-07 2.496762e-07 1.644312e-07 1.084196e-07 7.176807e-08 4.775300e-08 3.203496e-08 2.169597e-08 1.487317e-08 1.032543e-08 7.267767e-09 5.180012e-09 3.735534e-09 2.717598e-09 1.990306e-09 1.462138e-09 1.075037e-09 7.884895e-10 5.759688e-10 4.179367e-10 3.009919e-10 2.147317e-10 1.517170e-10 1.060077e-10 7.326587e-11 5.002906e-11 3.376961e-11 2.251025e-11 1.482857e-11 9.644641e-12 6.198899e-12 3.933714e-12 2.466985e-12 1.527656e-12 9.350332e-13 5.651783e-13 3.377320e-13 1.993390e-13 1.163420e-13 6.708082e-14 3.825479e-14 2.155652e-14 1.201711e-14 6.620884e-15 3.609635e-15 1.945332e-15 1.037664e-15 0 0 0 0 0 0 0 0 0 0 0 0 0 0 0 0 0 0 0 0 0 0 0 0 0 0 0 0 0 0 0 0 0 0 0 0 0 0 0 0 0 0 0 0 0 0 0 0 0 0 0 0 0 0 0 0 0 0 0 0 0 0 0 0 0 0 0 0 0 0 0 0 0 0 0 0 0 0 0 0 0 0 0 0 0 0 0 0 0 0 0 0 0 0 0 0 0 0 0 0 0 0 0 0 0 0 0 0 0 0 0 0 0 0 0 0 0 0 0 0 0 0 0 0 0 0 0 0 0 0 0 0 0 0 0 0 0 0 0 0 0 0 0 0 0 0 0 0 0 0 0 0 0 0 0 0 0 0 0 0 0 0 0 0 0 0 0 0 0 0 0 0 0 0 0 0 0 0 0 0 0 0 0 0 0 0 0 0 0 0 0 0 0 0 0 0 0 0 0 0 0 0 0 0 0 0 0 0 0 0 0 0 0 0 0 0 0 0 0 0 0 0 0 0 0 0 0 0 0 0 0 0 0 0 0 0 0 0 0 0 0 0 0 