# vtk DataFile Version 2.0
Comment goes here
ASCII

DATASET STRUCTURED_POINTS
FIELD FieldData 1
TIME 1 1 double
0.37500000
DIMENSIONS    384   64   1

ORIGIN    0.000   0.000   0.000
SPACING   0.078125 0.078125   1.000

POINT_DATA   24576
SCALARS Omega double
LOOKUP_TABLE default

1.296641e-07 1.595394e-05 -1.109216e-04 -2.579602e-04 -2.444611e-04 -2.040196e-04 -1.591190e-04 -1.238440e-04 -9.265840e-05 -6.812914e-05 -4.778528e-05 -3.259817e-05 -2.106255e-05 -1.321063e-05 -7.751849e-06 -4.418785e-06 -2.274279e-06 -1.127207e-06 -4.340834e-07 -1.288477e-07 4.386643e-08 9.750682e-08 1.149674e-07 1.215506e-07 9.853558e-08 1.127219e-07 7.794104e-08 1.079476e-07 6.739893e-08 1.093431e-07 6.544075e-08 1.121633e-07 6.807241e-08 1.111516e-07 7.107587e-08 1.019823e-07 7.048822e-08 8.212527e-08 6.328345e-08 5.162754e-08 4.822614e-08 1.336323e-08 2.636722e-08 -2.761234e-08 7.893898e-10 -6.544616e-08 -2.434880e-08 -9.504343e-08 -4.505726e-08 -1.132068e-07 -5.855000e-08 -1.190536e-07 -6.375574e-08 -1.137544e-07 -6.126190e-08 -9.986604e-08 -5.285003e-08 -8.055815e-08 -4.085867e-08 -5.895080e-08 -2.758749e-08 -3.765623e-08 -1.488348e-08 -1.854632e-08 -3.955482e-09 -2.713113e-09 4.613759e-09 9.433034e-09 1.073506e-08 1.799123e-08 1.463895e-08 2.338257e-08 1.671665e-08 2.618499e-08 1.740232e-08 2.700999e-08 1.710163e-08 2.642420e-08 1.615585e-08 2.490844e-08 1.483221e-08 2.284379e-08 1.332725e-08 2.051531e-08 1.177798e-08 1.812469e-08 1.027399e-08 1.580565e-08 8.869414e-09 1.364012e-08 7.593258e-09 1.167232e-08 6.456760e-09 9.919961e-09 5.460198e-09 8.383551e-09 4.596655e-09 7.052596e-09 3.855345e-09 5.910578e-09 3.223700e-09 4.938080e-09 2.688694e-09 4.115023e-09 2.237838e-09 3.421953e-09 1.859323e-09 2.840617e-09 1.542732e-09 2.354649e-09 1.278519e-09 1.949591e-09 1.058410e-09 1.612499e-09 8.754964e-10 1.332677e-09 7.237450e-10 1.100664e-09 5.979660e-10 9.085475e-10 4.938339e-10 7.495826e-10 4.076334e-10 6.182230e-10 3.363438e-10 5.096900e-10 2.775069e-10 4.201188e-10 2.288803e-10 3.461999e-10 1.887021e-10 2.852763e-10 1.556622e-10 2.350350e-10 1.283630e-10 1.936271e-10 1.057705e-10 1.594599e-10 8.719757e-11 1.313584e-10 7.185963e-11 1.081714e-10 5.918755e-11 8.904009e-11 4.881792e-11 7.332338e-11 4.024466e-11 6.037912e-11 3.312445e-11 4.967356e-11 2.729263e-11 4.093055e-11 2.248401e-11 3.371523e-11 1.851022e-11 2.773922e-11 1.533682e-11 2.284103e-11 1.263620e-11 1.891145e-11 1.035687e-11 1.551464e-11 8.548026e-12 1.280469e-11 7.065436e-12 1.051346e-11 5.841676e-12 8.629173e-12 4.825404e-12 7.121286e-12 3.934227e-12 5.869547e-12 3.291765e-12 4.845210e-12 2.675704e-12 4.013535e-12 2.226017e-12 3.314875e-12 1.872717e-12 2.728480e-12 1.534763e-12 2.190213e-12 1.241366e-12 1.840699e-12 1.048919e-12 1.530125e-12 8.957044e-13 1.315675e-12 7.367503e-13 1.071807e-12 5.760559e-13 8.324192e-13 5.188644e-13 7.072868e-13 4.236114e-13 6.152545e-13 3.954622e-13 5.642434e-13 2.995113e-13 4.145758e-13 2.467489e-13 3.572158e-13 1.906493e-13 2.840677e-13 1.912222e-13 2.675857e-13 1.824581e-13 2.437513e-13 1.642912e-13 2.301101e-13 1.277137e-13 1.717640e-13 9.998998e-14 1.579884e-13 1.104297e-13 1.325992e-13 1.113007e-13 1.127576e-13 1.242298e-13 9.886160e-14 1.010996e-13 5.401912e-14 4.850330e-14 7.951010e-14 4.833923e-14 4.706238e-14 2.589881e-14 4.698261e-14 3.592953e-14 5.020594e-14 4.355187e-14 9.110331e-14 8.686209e-15 5.170684e-14 7.631757e-14 6.965458e-14 6.242374e-14 4.366386e-14 4.806607e-14 6.144882e-14 5.562333e-14 7.415185e-14 5.273854e-14 -1.046212e-15 1.774194e-14 8.720200e-14 2.792685e-14 4.009345e-14 -2.004184e-16 5.865459e-14 3.186456e-14 5.191056e-14 8.332773e-14 5.496471e-15 3.311263e-14 7.447804e-14 4.290382e-14 7.539027e-14 6.500547e-14 4.266940e-14 2.658354e-14 6.007833e-14 7.027755e-14 2.512033e-14 7.000653e-14 5.380089e-14 7.426958e-14 7.347340e-14 1.170064e-13 9.188716e-14 6.326837e-14 8.758820e-14 6.702856e-14 5.982960e-14 8.124314e-14 1.315818e-13 1.367465e-13 1.410691e-13 1.618889e-13 1.493087e-13 1.678931e-13 2.091982e-13 2.174842e-13 2.386551e-13 2.171354e-13 2.417785e-13 2.194489e-13 2.766014e-13 3.334358e-13 2.936285e-13 3.631242e-13 4.125866e-13 4.348265e-13 4.544453e-13 5.566407e-13 5.672221e-13 6.842049e-13 7.032350e-13 7.984195e-13 8.028027e-13 9.833369e-13 1.016100e-12 1.175260e-12 1.224093e-12 1.360952e-12 1.492371e-12 1.715368e-12 1.853755e-12 2.063667e-12 2.201258e-12 2.485368e-12 2.680973e-12 3.080152e-12 3.231932e-12 3.729343e-12 3.944073e-12 4.566406e-12 4.792300e-12 5.493614e-12 5.801749e-12 6.664554e-12 7.044102e-12 8.160670e-12 8.685647e-12 9.996105e-12 1.053532e-11 1.223375e-11 1.297941e-11 1.495479e-11 1.593021e-11 1.838296e-11 1.957965e-11 2.257459e-11 2.398433e-11 2.780067e-11 2.963215e-11 3.448639e-11 3.674918e-11 4.278965e-11 4.571408e-11 5.327794e-11 5.705951e-11 6.667078e-11 7.154692e-11 8.391925e-11 9.034032e-11 1.062359e-10 1.147731e-10 1.356042e-10 1.469831e-10 1.744797e-10 1.900064e-10 2.267145e-10 2.481231e-10 2.979220e-10 3.278189e-10 3.962889e-10 4.387530e-10 5.345188e-10 5.957476e-10 7.322864e-10 8.221555e-10 1.020908e-09 1.155414e-09 1.451606e-09 1.657344e-09 2.111436e-09 2.435095e-09 3.157372e-09 3.687495e-09 4.899639e-09 5.832455e-09 8.047527e-09 9.895001e-09 1.445021e-08 1.861103e-08 2.907423e-08 3.914728e-08 6.534064e-08 9.440738e-08 1.756423e-07 3.119275e-07 5.682131e-07 1.065526e-06 
-2.140947e+01 -1.459830e+01 -2.106962e+01 -1.753014e+01 -5.909091e+00 -2.204948e+00 -9.568630e-01 -5.003531e-01 -2.967281e-01 -1.889123e-01 -1.224529e-01 -7.892962e-02 -4.952569e-02 -2.999596e-02 -1.724391e-02 -9.297752e-03 -4.522930e-03 -1.850693e-03 -4.408680e-04 2.085173e-04 4.607535e-04 5.023663e-04 4.604444e-04 3.851462e-04 3.111069e-04 2.445049e-04 1.914008e-04 1.490409e-04 1.164868e-04 9.162961e-05 7.204335e-05 5.764310e-05 4.554755e-05 3.719934e-05 2.949671e-05 2.468917e-05 1.971891e-05 1.698931e-05 1.384008e-05 1.228583e-05 1.041528e-05 9.455230e-06 8.501121e-06 7.764858e-06 7.461074e-06 6.731426e-06 6.874496e-06 6.046378e-06 6.480054e-06 5.524022e-06 6.127394e-06 5.058978e-06 5.735800e-06 4.593879e-06 5.265637e-06 4.099787e-06 4.703983e-06 3.567381e-06 4.059437e-06 3.003447e-06 3.358833e-06 2.427459e-06 2.641351e-06 1.866116e-06 1.949909e-06 1.346679e-06 1.322431e-06 8.911589e-07 7.856722e-07 5.128965e-07 3.528522e-07 2.159007e-07 2.468010e-08 -3.707880e-09 -2.075282e-07 -1.551824e-07 -3.580684e-07 -2.505074e-07 -4.434391e-07 -3.022230e-07 -4.798264e-07 -3.219497e-07 -4.815718e-07 -3.195872e-07 -4.604712e-07 -3.030385e-07 -4.256598e-07 -2.782750e-07 -3.838439e-07 -2.495849e-07 -3.396940e-07 -2.198916e-07 -2.962800e-07 -1.910717e-07 -2.554738e-07 -1.642355e-07 -2.182922e-07 -1.399558e-07 -1.851659e-07 -1.184442e-07 -1.561452e-07 -9.968282e-08 -1.310466e-07 -8.351625e-08 -1.095569e-07 -6.971625e-08 -9.130240e-08 -5.802356e-08 -7.589335e-08 -4.817488e-08 -6.295193e-08 -3.991857e-08 -5.212726e-08 -3.302372e-08 -4.310281e-08 -2.728348e-08 -3.559916e-08 -2.251630e-08 -2.937374e-08 -1.856576e-08 -2.421820e-08 -1.529699e-08 -1.995447e-08 -1.259617e-08 -1.643282e-08 -1.036704e-08 -1.352671e-08 -8.529161e-09 -1.113073e-08 -7.014674e-09 -9.156379e-09 -5.767409e-09 -7.530285e-09 -4.740859e-09 -6.191750e-09 -3.896304e-09 -5.090371e-09 -3.201753e-09 -4.184332e-09 -2.630668e-09 -3.439119e-09 -2.161243e-09 -2.826554e-09 -1.775388e-09 -2.322728e-09 -1.458411e-09 -1.908767e-09 -1.197885e-09 -1.568391e-09 -9.838147e-10 -1.288580e-09 -8.079872e-10 -1.058666e-09 -6.635875e-10 -8.698226e-10 -5.449549e-10 -7.146358e-10 -4.475782e-10 -5.870556e-10 -3.674831e-10 -4.823193e-10 -3.017784e-10 -3.962510e-10 -2.478449e-10 -3.254775e-10 -2.034815e-10 -2.674445e-10 -1.671587e-10 -2.198435e-10 -1.373639e-10 -1.805445e-10 -1.127755e-10 -1.483756e-10 -9.268217e-11 -1.219959e-10 -7.616539e-11 -1.002276e-10 -6.261628e-11 -8.248001e-11 -5.154954e-11 -6.790980e-11 -4.251448e-11 -5.585471e-11 -3.495728e-11 -4.605095e-11 -2.890503e-11 -3.801675e-11 -2.393374e-11 -3.143258e-11 -1.990491e-11 -2.616017e-11 -1.676136e-11 -2.191725e-11 -1.419564e-11 -1.842298e-11 -1.204505e-11 -1.564852e-11 -1.042544e-11 -1.342209e-11 -9.247003e-12 -1.180969e-11 -8.457176e-12 -1.064825e-11 -7.979661e-12 -9.870134e-12 -7.762931e-12 -9.450825e-12 -7.864805e-12 -9.472911e-12 -8.293958e-12 -9.910961e-12 -9.212135e-12 -1.072146e-11 -1.021832e-11 -1.178984e-11 -1.179998e-11 -1.351013e-11 -1.375436e-11 -1.552831e-11 -1.619551e-11 -1.839473e-11 -1.937519e-11 -2.179572e-11 -2.321758e-11 -2.603723e-11 -2.798211e-11 -3.137068e-11 -3.380554e-11 -3.786121e-11 -4.095470e-11 -4.578100e-11 -4.961772e-11 -5.551801e-11 -6.025272e-11 -6.734552e-11 -7.317270e-11 -8.179259e-11 -8.891566e-11 -9.944271e-11 -1.081529e-10 -1.208233e-10 -1.314258e-10 -1.467817e-10 -1.597178e-10 -1.784339e-10 -1.941682e-10 -2.169099e-10 -2.361079e-10 -2.637541e-10 -2.871292e-10 -3.207395e-10 -3.491529e-10 -3.899373e-10 -4.245573e-10 -4.741492e-10 -5.162859e-10 -5.767937e-10 -6.280774e-10 -7.015411e-10 -7.637201e-10 -8.529703e-10 -9.286922e-10 -1.037225e-09 -1.129268e-09 -1.261359e-09 -1.373418e-09 -1.533862e-09 -1.670162e-09 -1.865379e-09 -2.031133e-09 -2.268464e-09 -2.470107e-09 -2.758678e-09 -3.004084e-09 -3.354902e-09 -3.653288e-09 -4.079993e-09 -4.443115e-09 -4.962017e-09 -5.403708e-09 -6.034796e-09 -6.572194e-09 -7.339790e-09 -7.993665e-09 -8.927186e-09 -9.722769e-09 -1.085837e-08 -1.182650e-08 -1.320804e-08 -1.438649e-08 -1.606728e-08 -1.750155e-08 -1.954663e-08 -2.129277e-08 -2.378155e-08 -2.590779e-08 -2.893715e-08 -3.152696e-08 -3.521509e-08 -3.837036e-08 -4.286184e-08 -4.670739e-08 -5.217900e-08 -5.686797e-08 -6.353657e-08 -6.925687e-08 -7.738801e-08 -8.437113e-08 -9.429168e-08 -1.028229e-07 -1.149354e-07 -1.253677e-07 -1.401695e-07 -1.529412e-07 -1.710483e-07 -1.867052e-07 -2.088843e-07 -2.281098e-07 -2.553182e-07 -2.789723e-07 -3.124122e-07 -3.415842e-07 -3.827746e-07 -4.188535e-07 -4.697258e-07 -5.144981e-07 -5.775283e-07 -6.333121e-07 -7.117031e-07 -7.815373e-07 -8.794731e-07 -9.673871e-07 -1.090396e-06 -1.201798e-06 -1.357273e-06 -1.499521e-06 -1.697488e-06 -1.880734e-06 -2.134984e-06 -2.373456e-06 -2.703266e-06 -3.017229e-06 -3.450007e-06 -3.868831e-06 -4.444263e-06 -5.011317e-06 -5.788015e-06 -6.568624e-06 -7.635014e-06 -8.729735e-06 -1.022237e-05 -1.178972e-05 -1.392495e-05 -1.622146e-05 -1.935202e-05 -2.280539e-05 -2.752520e-05 -3.287300e-05 -4.021984e-05 -4.878489e-05 -6.065220e-05 -7.492034e-05 -9.494821e-05 -1.198713e-04 -1.555471e-04 -2.018038e-04 -2.700740e-04 -3.635336e-04 -5.084632e-04 -7.227059e-04 -1.080425e-03 -1.663728e-03 -2.724980e-03 -4.627957e-03 -8.350726e-03 -1.552508e-02 -3.040788e-02 -6.099843e-02 -1.292333e-01 -2.820738e-01 -6.648166e-01 -1.654818e+00 -4.866523e+00 -1.773590e+01 
6.783212e-01 -4.047858e-02 7.705613e-01 3.267201e-01 -1.900483e+00 -1.701422e+00 -1.185140e+00 -7.911833e-01 -5.249199e-01 -3.499588e-01 -2.311628e-01 -1.505008e-01 -9.509116e-02 -5.807911e-02 -3.371604e-02 -1.846677e-02 -9.206687e-03 -3.979711e-03 -1.167201e-03 1.618916e-04 7.159700e-04 8.453928e-04 8.028494e-04 6.844584e-04 5.614595e-04 4.470884e-04 3.548189e-04 2.807445e-04 2.233545e-04 1.797269e-04 1.448612e-04 1.194652e-04 9.751552e-05 8.242420e-05 6.782161e-05 5.846928e-05 4.824665e-05 4.204138e-05 3.467242e-05 3.014134e-05 2.484755e-05 2.116995e-05 1.752566e-05 1.426741e-05 1.198685e-05 8.939137e-06 7.780585e-06 4.862018e-06 4.600560e-06 1.802135e-06 2.231463e-06 -4.120569e-07 5.249402e-07 -1.902453e-06 -6.202051e-07 -2.760325e-06 -1.281397e-06 -3.071606e-06 -1.534551e-06 -2.937001e-06 -1.466888e-06 -2.477196e-06 -1.176583e-06 -1.822810e-06 -7.625959e-07 -1.096734e-06 -3.118316e-07 -3.982164e-07 1.101885e-07 2.055910e-07 4.625324e-07 6.797837e-07 7.266455e-07 1.015997e-06 9.010166e-07 1.224185e-06 9.950302e-07 1.324565e-06 1.023551e-06 1.341192e-06 1.002923e-06 1.297626e-06 9.484475e-07 1.214482e-06 8.730828e-07 1.108404e-06 7.870055e-07 9.919682e-07 6.976991e-07 8.741053e-07 6.103142e-07 7.607374e-07 5.281274e-07 6.554601e-07 4.529965e-07 5.601610e-07 3.857601e-07 4.755366e-07 3.265630e-07 4.014967e-07 2.751053e-07 3.374662e-07 2.308262e-07 2.826011e-07 1.930323e-07 2.359363e-07 1.609844e-07 1.964827e-07 1.339530e-07 1.632873e-07 1.112515e-07 1.354678e-07 9.225395e-08 1.122288e-07 7.640215e-08 9.286737e-08 6.320670e-08 7.677180e-08 5.224425e-08 6.341491e-08 4.315146e-08 5.234729e-08 3.561972e-08 4.318743e-08 2.938778e-08 3.561425e-08 2.423617e-08 2.935794e-08 1.998054e-08 2.419323e-08 1.646764e-08 1.993196e-08 1.356917e-08 1.641782e-08 1.117861e-08 1.352083e-08 9.207779e-09 1.113343e-08 7.583420e-09 9.166431e-09 6.244851e-09 7.546197e-09 5.142113e-09 6.211869e-09 4.233795e-09 5.113117e-09 3.485531e-09 4.208360e-09 2.869488e-09 3.463716e-09 2.362302e-09 2.850653e-09 1.944655e-09 2.346048e-09 1.600846e-09 1.930701e-09 1.317698e-09 1.588846e-09 1.084618e-09 1.307429e-09 8.927656e-10 1.075930e-09 7.348354e-10 8.853130e-10 6.047648e-10 7.285241e-10 4.977139e-10 5.994192e-10 4.095933e-10 4.931460e-10 3.370825e-10 4.057595e-10 2.772552e-10 3.337364e-10 2.281591e-10 2.744722e-10 1.876246e-10 2.257184e-10 1.542528e-10 1.855851e-10 1.267452e-10 1.524545e-10 1.040732e-10 1.252030e-10 8.537776e-11 1.027679e-10 6.993992e-11 8.411669e-11 5.710394e-11 6.869520e-11 4.646628e-11 5.598052e-11 3.762688e-11 4.538770e-11 3.020324e-11 3.647881e-11 2.387260e-11 2.895819e-11 1.857574e-11 2.263817e-11 1.385578e-11 1.707504e-11 9.695741e-12 1.216436e-11 5.918614e-12 7.776890e-12 2.344525e-12 3.629001e-12 -1.158829e-12 -4.036179e-13 -4.701106e-12 -4.490460e-12 -8.526698e-12 -8.720639e-12 -1.252576e-11 -1.325216e-11 -1.707851e-11 -1.824600e-11 -2.221284e-11 -2.400251e-11 -2.838997e-11 -3.078431e-11 -3.549438e-11 -3.869237e-11 -4.411157e-11 -4.805079e-11 -5.422245e-11 -5.918149e-11 -6.648396e-11 -7.266222e-11 -8.139515e-11 -8.905673e-11 -9.941421e-11 -1.087239e-10 -1.212425e-10 -1.326765e-10 -1.477767e-10 -1.616883e-10 -1.799797e-10 -1.969760e-10 -2.189738e-10 -2.396702e-10 -2.664975e-10 -2.916765e-10 -3.242508e-10 -3.549182e-10 -3.943783e-10 -4.317061e-10 -4.796736e-10 -5.251070e-10 -5.834339e-10 -6.387194e-10 -7.096164e-10 -7.768942e-10 -8.631502e-10 -9.450305e-10 -1.049884e-09 -1.149451e-09 -1.276968e-09 -1.398050e-09 -1.553034e-09 -1.700348e-09 -1.888796e-09 -2.068000e-09 -2.297157e-09 -2.515154e-09 -2.793813e-09 -3.058996e-09 -3.397904e-09 -3.720465e-09 -4.132472e-09 -4.524944e-09 -5.026112e-09 -5.503517e-09 -6.112943e-09 -6.693742e-09 -7.434828e-09 -8.141526e-09 -9.042965e-09 -9.902742e-09 -1.099907e-08 -1.204522e-08 -1.337866e-08 -1.465165e-08 -1.627366e-08 -1.782268e-08 -1.979586e-08 -2.168106e-08 -2.408166e-08 -2.637614e-08 -2.929709e-08 -3.209013e-08 -3.564457e-08 -3.904489e-08 -4.337091e-08 -4.751143e-08 -5.277780e-08 -5.782063e-08 -6.423305e-08 -7.037668e-08 -7.818698e-08 -8.567404e-08 -9.519029e-08 -1.043182e-07 -1.159180e-07 -1.270516e-07 -1.411984e-07 -1.547865e-07 -1.720507e-07 -1.886459e-07 -2.097303e-07 -2.300154e-07 -2.557891e-07 -2.806102e-07 -3.121510e-07 -3.425600e-07 -3.812103e-07 -4.185210e-07 -4.659593e-07 -5.118206e-07 -5.701584e-07 -6.266520e-07 -6.985604e-07 -7.683318e-07 -8.572145e-07 -9.436516e-07 -1.053881e-06 -1.161360e-06 -1.298603e-06 -1.432834e-06 -1.604511e-06 -1.773022e-06 -1.988961e-06 -2.201798e-06 -2.475175e-06 -2.745919e-06 -3.094639e-06 -3.441908e-06 -3.890650e-06 -4.340358e-06 -4.923677e-06 -5.512470e-06 -6.279548e-06 -7.060148e-06 -8.082233e-06 -9.131892e-06 -1.051416e-05 -1.194830e-05 -1.384920e-05 -1.584398e-05 -1.850750e-05 -2.133801e-05 -2.514907e-05 -2.925594e-05 -3.483815e-05 -4.094738e-05 -4.934176e-05 -5.868831e-05 -7.169273e-05 -8.645545e-05 -1.072993e-04 -1.314910e-04 -1.662550e-04 -2.076719e-04 -2.685257e-04 -3.434811e-04 -4.570500e-04 -6.038167e-04 -8.368587e-04 -1.161408e-03 -1.713382e-03 -2.565200e-03 -4.128641e-03 -6.794429e-03 -1.195560e-02 -2.134362e-02 -3.999700e-02 -7.526560e-02 -1.470328e-01 -2.878502e-01 -5.819587e-01 -1.143226e+00 -2.029790e+00 -4.437206e-02 
-2.033072e+00 -1.199152e-02 -1.710867e+00 -1.719933e+00 -1.376771e+00 -1.223657e+00 -9.961487e-01 -7.576940e-01 -5.558418e-01 -3.959294e-01 -2.745396e-01 -1.844866e-01 -1.194572e-01 -7.410941e-02 -4.356782e-02 -2.399862e-02 -1.199192e-02 -5.116701e-03 -1.409769e-03 3.559671e-04 1.081061e-03 1.242624e-03 1.169415e-03 9.958679e-04 8.160317e-04 6.491863e-04 5.136486e-04 4.038595e-04 3.182719e-04 2.523457e-04 1.996094e-04 1.607660e-04 1.275171e-04 1.047410e-04 8.318205e-05 6.999234e-05 5.586799e-05 4.838093e-05 3.932265e-05 3.507514e-05 2.964532e-05 2.701657e-05 2.422814e-05 2.217577e-05 2.128562e-05 1.920406e-05 1.963631e-05 1.724243e-05 1.855122e-05 1.577481e-05 1.760963e-05 1.450154e-05 1.657475e-05 1.324627e-05 1.531445e-05 1.190606e-05 1.377000e-05 1.043568e-05 1.195171e-05 8.844683e-06 9.934432e-06 7.189366e-06 7.839057e-06 5.554113e-06 5.802256e-06 4.027626e-06 3.945899e-06 2.682383e-06 2.356016e-06 1.562899e-06 1.075142e-06 6.835991e-07 1.061104e-07 3.375918e-08 -5.775233e-07 -4.142057e-07 -1.019256e-06 -6.962537e-07 -1.268926e-06 -8.499024e-07 -1.375020e-06 -9.097267e-07 -1.380146e-06 -9.050016e-07 -1.319079e-06 -8.589548e-07 -1.218550e-06 -7.890361e-07 -1.098051e-06 -7.077106e-07 -9.710692e-07 -6.234365e-07 -8.464116e-07 -5.416193e-07 -7.294104e-07 -4.654436e-07 -6.229319e-07 -3.965448e-07 -5.281657e-07 -3.355228e-07 -4.452169e-07 -2.823208e-07 -3.735316e-07 -2.364922e-07 -3.121919e-07 -1.973841e-07 -2.601133e-07 -1.642568e-07 -2.161720e-07 -1.363604e-07 -1.792808e-07 -1.129792e-07 -1.484324e-07 -9.345659e-08 -1.227208e-07 -7.720577e-08 -1.013471e-07 -6.371192e-08 -8.361726e-08 -5.253000e-08 -6.893602e-08 -4.327915e-08 -5.679649e-08 -3.563629e-08 -4.677039e-08 -2.932868e-08 -3.849765e-08 -2.412790e-08 -3.167714e-08 -1.984277e-08 -2.605730e-08 -1.631418e-08 -2.142943e-08 -1.341011e-08 -1.762002e-08 -1.102100e-08 -1.448538e-08 -9.056044e-09 -1.190693e-08 -7.440606e-09 -9.786342e-09 -6.112662e-09 -8.042686e-09 -5.021315e-09 -6.609198e-09 -4.124520e-09 -5.430925e-09 -3.387704e-09 -4.462435e-09 -2.782333e-09 -3.666519e-09 -2.285071e-09 -3.012438e-09 -1.876572e-09 -2.474938e-09 -1.541120e-09 -2.033294e-09 -1.265580e-09 -1.670496e-09 -1.039304e-09 -1.372329e-09 -8.534134e-10 -1.127459e-09 -7.009276e-10 -9.263730e-10 -5.756490e-10 -7.610511e-10 -4.727734e-10 -6.252616e-10 -3.883417e-10 -5.137957e-10 -3.189901e-10 -4.221736e-10 -2.620334e-10 -3.470098e-10 -2.153758e-10 -2.852566e-10 -1.770557e-10 -2.345283e-10 -1.456707e-10 -1.930716e-10 -1.200332e-10 -1.590307e-10 -9.895322e-11 -1.310138e-10 -8.170700e-11 -1.082880e-10 -6.778282e-11 -8.965190e-11 -5.646926e-11 -7.450011e-11 -4.720544e-11 -6.217951e-11 -3.985050e-11 -5.227702e-11 -3.409426e-11 -4.452675e-11 -2.976760e-11 -3.847186e-11 -2.642710e-11 -3.389354e-11 -2.420896e-11 -3.064269e-11 -2.294674e-11 -2.859869e-11 -2.254037e-11 -2.761809e-11 -2.302632e-11 -2.766620e-11 -2.435135e-11 -2.892664e-11 -2.670994e-11 -3.123861e-11 -3.011319e-11 -3.476570e-11 -3.460677e-11 -3.956350e-11 -4.043884e-11 -4.594880e-11 -4.791175e-11 -5.409529e-11 -5.718734e-11 -6.442363e-11 -6.860175e-11 -7.707903e-11 -8.269645e-11 -9.267400e-11 -9.995215e-11 -1.119563e-10 -1.210397e-10 -1.355499e-10 -1.469529e-10 -1.643078e-10 -1.783594e-10 -1.994854e-10 -2.167280e-10 -2.422689e-10 -2.633765e-10 -2.943253e-10 -3.201159e-10 -3.576481e-10 -3.890870e-10 -4.347266e-10 -4.731067e-10 -5.285326e-10 -5.752095e-10 -6.425464e-10 -6.993207e-10 -7.811954e-10 -8.503444e-10 -9.497980e-10 -1.034036e-09 -1.155029e-09 -1.257465e-09 -1.404635e-09 -1.529317e-09 -1.708114e-09 -1.859692e-09 -2.077223e-09 -2.261674e-09 -2.526045e-09 -2.750299e-09 -3.071835e-09 -3.344726e-09 -3.735465e-09 -4.067402e-09 -4.542701e-09 -4.946408e-09 -5.524342e-09 -6.015335e-09 -6.718096e-09 -7.315372e-09 -8.169910e-09 -8.896510e-09 -9.935652e-09 -1.081952e-08 -1.208324e-08 -1.315849e-08 -1.469529e-08 -1.600340e-08 -1.787236e-08 -1.946385e-08 -2.173697e-08 -2.367321e-08 -2.643791e-08 -2.879399e-08 -3.215696e-08 -3.502400e-08 -3.911492e-08 -4.260425e-08 -4.758125e-08 -5.182844e-08 -5.788417e-08 -6.305465e-08 -7.042401e-08 -7.671968e-08 -8.568935e-08 -9.335680e-08 -1.042766e-07 -1.136177e-07 -1.269153e-07 -1.382991e-07 -1.544974e-07 -1.683766e-07 -1.881161e-07 -2.050463e-07 -2.291128e-07 -2.497773e-07 -2.791362e-07 -3.043778e-07 -3.402179e-07 -3.710781e-07 -4.148668e-07 -4.526377e-07 -5.061927e-07 -5.524822e-07 -6.180621e-07 -6.748816e-07 -7.553051e-07 -8.251827e-07 -9.239854e-07 -1.010119e-06 -1.131760e-06 -1.238221e-06 -1.388366e-06 -1.520379e-06 -1.706275e-06 -1.870609e-06 -2.101611e-06 -2.307118e-06 -2.595421e-06 -2.853807e-06 -3.215479e-06 -3.542412e-06 -3.998884e-06 -4.415611e-06 -4.995840e-06 -5.531578e-06 -6.275261e-06 -6.970794e-06 -7.933187e-06 -8.846358e-06 -1.010567e-05 -1.131991e-05 -1.298879e-05 -1.462666e-05 -1.687052e-05 -1.911548e-05 -2.218220e-05 -2.531469e-05 -2.958408e-05 -3.404258e-05 -4.011087e-05 -4.659811e-05 -5.542667e-05 -6.510046e-05 -7.828637e-05 -9.311450e-05 -1.134017e-04 -1.368491e-04 -1.691375e-04 -2.075620e-04 -2.610088e-04 -3.266788e-04 -4.194119e-04 -5.376587e-04 -7.086176e-04 -9.373267e-04 -1.281118e-03 -1.773453e-03 -2.559765e-03 -3.790722e-03 -5.901575e-03 -9.495783e-03 -1.597212e-02 -2.752145e-02 -4.854624e-02 -8.627426e-02 -1.535828e-01 -2.719599e-01 -4.723739e-01 -7.961927e-01 -1.259066e+00 -2.102196e+00 
5.545405e-01 3.518857e-03 6.527553e-01 6.635078e-01 -3.460630e-01 -6.586829e-01 -6.973791e-01 -6.199871e-01 -5.054794e-01 -3.882764e-01 -2.840910e-01 -1.988209e-01 -1.328055e-01 -8.462937e-02 -5.097633e-02 -2.885067e-02 -1.492287e-02 -6.774367e-03 -2.250092e-03 -1.587008e-05 9.741557e-04 1.263739e-03 1.250888e-03 1.096105e-03 9.184924e-04 7.452629e-04 6.010123e-04 4.830732e-04 3.893054e-04 3.176681e-04 2.586520e-04 2.160590e-04 1.776911e-04 1.519918e-04 1.256768e-04 1.095202e-04 9.058071e-05 7.964486e-05 6.568725e-05 5.747133e-05 4.730613e-05 4.042283e-05 3.340006e-05 2.713782e-05 2.278085e-05 1.681776e-05 1.467469e-05 8.900416e-06 8.525287e-06 2.946570e-06 3.926960e-06 -1.373532e-06 6.021301e-07 -4.284257e-06 -1.628671e-06 -5.941444e-06 -2.896934e-06 -6.493997e-06 -3.339051e-06 -6.134543e-06 -3.126799e-06 -5.111412e-06 -2.464558e-06 -3.701719e-06 -1.562347e-06 -2.166796e-06 -6.036742e-07 -7.141151e-07 2.763072e-07 5.209652e-07 9.969802e-07 1.473411e-06 1.525772e-06 2.133899e-06 1.865225e-06 2.529734e-06 2.039124e-06 2.707249e-06 2.080936e-06 2.718494e-06 2.025695e-06 2.612734e-06 1.905186e-06 2.431998e-06 1.745686e-06 2.209510e-06 1.567406e-06 1.969895e-06 1.384917e-06 1.730301e-06 1.208041e-06 1.501851e-06 1.042864e-06 1.291096e-06 8.927014e-07 1.101293e-06 7.589070e-07 9.334354e-07 6.415273e-07 7.870543e-07 5.397886e-07 6.607996e-07 4.524499e-07 5.528527e-07 3.780482e-07 4.612041e-07 3.150597e-07 3.838322e-07 2.620015e-07 3.188124e-07 2.174915e-07 2.643770e-07 1.802776e-07 2.189421e-07 1.492492e-07 1.811145e-07 1.234369e-07 1.496853e-07 1.020036e-07 1.236163e-07 8.423364e-08 1.020234e-07 6.951963e-08 8.415866e-08 5.734869e-08 6.939235e-08 4.728996e-08 5.719656e-08 3.898282e-08 4.713026e-08 3.212624e-08 3.882623e-08 2.646981e-08 3.197891e-08 2.180526e-08 2.633469e-08 1.795998e-08 2.168378e-08 1.479081e-08 1.785218e-08 1.217968e-08 1.469620e-08 1.002853e-08 1.209723e-08 8.256781e-09 9.957209e-09 6.797704e-09 8.195404e-09 5.596145e-09 6.744983e-09 4.606777e-09 5.551058e-09 3.792164e-09 4.568345e-09 3.121533e-09 3.759458e-09 2.569419e-09 3.093778e-09 2.114980e-09 2.545916e-09 1.740853e-09 2.095061e-09 1.432784e-09 1.723876e-09 1.179195e-09 1.418435e-09 9.704699e-10 1.167115e-09 7.986368e-10 9.602601e-10 6.571885e-10 7.899966e-10 5.408000e-10 6.499139e-10 4.449119e-10 5.346502e-10 3.659752e-10 4.396808e-10 3.009216e-10 3.614122e-10 2.472326e-10 2.969000e-10 2.030162e-10 2.438277e-10 1.665874e-10 2.000351e-10 1.363737e-10 1.638816e-10 1.114427e-10 1.338882e-10 9.064725e-11 1.090403e-10 7.334950e-11 8.837157e-11 5.888798e-11 7.104099e-11 4.658268e-11 5.639385e-11 3.605812e-11 4.399043e-11 2.700344e-11 3.315027e-11 1.882684e-11 2.360121e-11 1.142310e-11 1.491619e-11 4.417252e-12 6.852089e-12 -2.310433e-12 -9.001096e-13 -9.339285e-12 -8.832431e-12 -1.663283e-11 -1.711462e-11 -2.464347e-11 -2.601028e-11 -3.354405e-11 -3.597861e-11 -4.376726e-11 -4.730191e-11 -5.564088e-11 -6.042195e-11 -6.968690e-11 -7.583120e-11 -8.633978e-11 -9.418325e-11 -1.064153e-10 -1.162057e-10 -1.305364e-10 -1.427088e-10 -1.596903e-10 -1.746329e-10 -1.949975e-10 -2.133456e-10 -2.379057e-10 -2.603044e-10 -2.898501e-10 -3.172046e-10 -3.529346e-10 -3.862783e-10 -4.296723e-10 -4.702433e-10 -5.227678e-10 -5.722047e-10 -6.360445e-10 -6.962364e-10 -7.736927e-10 -8.468786e-10 -9.410721e-10 -1.030167e-09 -1.144600e-09 -1.253090e-09 -1.392177e-09 -1.524097e-09 -1.693276e-09 -1.853805e-09 -2.059406e-09 -2.254721e-09 -2.504810e-09 -2.742328e-09 -3.046364e-09 -3.335307e-09 -3.704979e-09 -4.056460e-09 -4.505935e-09 -4.933521e-09 -5.480143e-09 -6.000365e-09 -6.664998e-09 -7.297730e-09 -8.106047e-09 -8.875812e-09 -9.858738e-09 -1.079526e-08 -1.199062e-08 -1.313000e-08 -1.458380e-08 -1.596994e-08 -1.773799e-08 -1.942446e-08 -2.157477e-08 -2.362674e-08 -2.624224e-08 -2.873892e-08 -3.192029e-08 -3.495845e-08 -3.882849e-08 -4.252586e-08 -4.723402e-08 -5.173401e-08 -5.746238e-08 -6.293973e-08 -6.991026e-08 -7.657837e-08 -8.506177e-08 -9.318088e-08 -1.035073e-07 -1.133952e-07 -1.259681e-07 -1.380132e-07 -1.533254e-07 -1.680029e-07 -1.866574e-07 -2.045490e-07 -2.272847e-07 -2.491045e-07 -2.768278e-07 -3.034526e-07 -3.372776e-07 -3.697873e-07 -4.110867e-07 -4.508137e-07 -5.012829e-07 -5.498767e-07 -6.116163e-07 -6.711254e-07 -7.467475e-07 -8.197268e-07 -9.124940e-07 -1.002145e-06 -1.116152e-06 -1.226508e-06 -1.366927e-06 -1.503102e-06 -1.676505e-06 -1.845032e-06 -2.059841e-06 -2.269135e-06 -2.536228e-06 -2.797229e-06 -3.130806e-06 -3.457886e-06 -3.876673e-06 -4.288928e-06 -4.817923e-06 -5.341052e-06 -6.014053e-06 -6.683104e-06 -7.546450e-06 -8.409922e-06 -9.528095e-06 -1.065414e-05 -1.211831e-05 -1.360430e-05 -1.554552e-05 -1.753299e-05 -2.014311e-05 -2.284165e-05 -2.640685e-05 -3.013303e-05 -3.508908e-05 -4.033143e-05 -4.735670e-05 -5.488674e-05 -6.506310e-05 -7.613075e-05 -9.123009e-05 -1.079182e-04 -1.309297e-04 -1.568209e-04 -1.929586e-04 -2.344424e-04 -2.931633e-04 -3.621518e-04 -4.614871e-04 -5.816096e-04 -7.586384e-04 -9.818024e-04 -1.323024e-03 -1.783252e-03 -2.529473e-03 -3.641006e-03 -5.572829e-03 -8.750576e-03 -1.451226e-02 -2.449470e-02 -4.247158e-02 -7.347395e-02 -1.265697e-01 -2.133170e-01 -3.450796e-01 -5.166333e-01 -5.900422e-01 3.467989e-01 