# vtk DataFile Version 2.0
Comment goes here
ASCII

DATASET STRUCTURED_POINTS
FIELD FieldData 1
TIME 1 1 double
1.82500000
DIMENSIONS    384   64   1

ORIGIN    0.000   0.000   0.000
SPACING   0.078125 0.078125   1.000

POINT_DATA   24576
SCALARS Omega double
LOOKUP_TABLE default

2.366655e-04 -3.822088e-03 -2.525178e-02 -2.611121e-02 -1.445360e-02 -4.963457e-03 -6.561102e-03 -1.896676e-02 -3.589536e-02 -5.058238e-02 -5.891298e-02 -6.001427e-02 -5.549334e-02 -4.829785e-02 -4.165478e-02 -3.821667e-02 -3.944362e-02 -4.531910e-02 -5.442892e-02 -6.443166e-02 -7.276028e-02 -7.736222e-02 -7.721102e-02 -7.248197e-02 -6.433036e-02 -5.446187e-02 -4.458583e-02 -3.603132e-02 -2.948921e-02 -2.504813e-02 -2.229443e-02 -2.058817e-02 -1.922367e-02 -1.765277e-02 -1.550882e-02 -1.268899e-02 -9.260425e-03 -5.462854e-03 -1.590693e-03 2.020639e-03 5.076345e-03 7.335071e-03 8.635512e-03 8.915054e-03 8.180989e-03 6.543618e-03 4.139767e-03 1.186629e-03 -2.127773e-03 -5.565957e-03 -8.965772e-03 -1.213770e-02 -1.499029e-02 -1.741077e-02 -1.938322e-02 -2.086432e-02 -2.189158e-02 -2.246616e-02 -2.265016e-02 -2.246459e-02 -2.197440e-02 -2.120531e-02 -2.021419e-02 -1.902593e-02 -1.768649e-02 -1.622004e-02 -1.466259e-02 -1.303961e-02 -1.137897e-02 -9.709168e-03 -8.051275e-03 -6.437145e-03 -4.881477e-03 -3.418023e-03 -2.054510e-03 -8.234931e-04 2.755600e-04 1.215216e-03 2.005400e-03 2.627255e-03 3.100077e-03 3.415324e-03 3.599826e-03 3.654755e-03 3.610901e-03 3.476463e-03 3.281680e-03 3.037960e-03 2.770755e-03 2.490980e-03 2.216455e-03 1.955058e-03 1.716153e-03 1.503684e-03 1.319652e-03 1.164620e-03 1.035545e-03 9.309691e-04 8.454176e-04 7.768424e-04 7.194926e-04 6.717457e-04 6.288989e-04 5.902009e-04 5.525031e-04 5.158968e-04 4.787030e-04 4.415624e-04 4.038765e-04 3.664779e-04 3.293951e-04 2.933683e-04 2.586812e-04 2.258262e-04 1.951081e-04 1.667372e-04 1.409311e-04 1.176625e-04 9.703798e-05 7.886875e-05 6.316777e-05 4.965904e-05 3.829126e-05 2.875863e-05 2.097315e-05 1.463738e-05 9.648510e-06 5.740156e-06 2.810812e-06 6.369487e-07 -8.706967e-07 -1.888754e-06 -2.488096e-06 -2.799992e-06 -2.875100e-06 -2.804733e-06 -2.620899e-06 -2.382544e-06 -2.106689e-06 -1.828105e-06 -1.553240e-06 -1.300251e-06 -1.069144e-06 -8.676331e-07 -6.925313e-07 -5.456505e-07 -4.228085e-07 -3.229268e-07 -2.420874e-07 -1.781221e-07 -1.279371e-07 -8.922478e-08 -5.983395e-08 -3.773382e-08 -2.160666e-08 -9.817661e-09 -1.686780e-09 4.045052e-09 7.618743e-09 9.988273e-09 1.112176e-08 1.174363e-08 1.167071e-08 1.146199e-08 1.086397e-08 1.031661e-08 9.546902e-09 8.908268e-09 8.137063e-09 7.521267e-09 6.820315e-09 6.272253e-09 5.664741e-09 5.195866e-09 4.682011e-09 4.289048e-09 3.860409e-09 3.534435e-09 3.179449e-09 2.910428e-09 2.617132e-09 2.395820e-09 2.154110e-09 1.971991e-09 1.773103e-09 1.623348e-09 1.459438e-09 1.336518e-09 1.201722e-09 1.100511e-09 9.894408e-10 9.062549e-10 8.149188e-10 7.464598e-10 6.712559e-10 6.149603e-10 5.528909e-10 5.065067e-10 4.552680e-10 4.169413e-10 3.749862e-10 3.433727e-10 3.087693e-10 2.828700e-10 2.543482e-10 2.329107e-10 2.093584e-10 1.916332e-10 1.722471e-10 1.577948e-10 1.417328e-10 1.297733e-10 1.165509e-10 1.065684e-10 9.584464e-11 8.770871e-11 7.883333e-11 7.226584e-11 6.488996e-11 5.938441e-11 5.338393e-11 4.878240e-11 4.381722e-11 4.009030e-11 3.615757e-11 3.299997e-11 2.979110e-11 2.731984e-11 2.445499e-11 2.226255e-11 2.030429e-11 1.854931e-11 1.673630e-11 1.533594e-11 1.348225e-11 1.235131e-11 1.137206e-11 1.025396e-11 9.358914e-12 8.632265e-12 8.014330e-12 7.462001e-12 6.923055e-12 6.368121e-12 5.867425e-12 5.395151e-12 5.020932e-12 4.523789e-12 4.143530e-12 3.793351e-12 3.381473e-12 2.968766e-12 2.596501e-12 2.407437e-12 2.146076e-12 1.866122e-12 1.651597e-12 1.451876e-12 1.150309e-12 1.084051e-12 1.027800e-12 8.182788e-13 7.020162e-13 5.498417e-13 5.171567e-13 3.537023e-13 4.010718e-13 3.189893e-13 2.969254e-13 3.162803e-13 2.086479e-13 2.612207e-13 2.983835e-13 2.368994e-13 3.463600e-13 3.843370e-13 3.765951e-13 3.829159e-13 4.624597e-13 4.067413e-13 6.099417e-13 6.789088e-13 4.808006e-13 5.649259e-13 4.734879e-13 3.542056e-13 1.669479e-13 1.369793e-13 1.397493e-13 1.686817e-13 -9.531820e-14 -7.899792e-14 -4.044505e-13 -3.583504e-13 -7.047733e-13 -6.761924e-13 -9.436082e-13 -9.822069e-13 -1.312765e-12 -1.396816e-12 -1.940625e-12 -1.736034e-12 -2.191299e-12 -1.983658e-12 -2.484798e-12 -2.222563e-12 -2.917725e-12 -2.631643e-12 -3.448693e-12 -3.178909e-12 -4.315481e-12 -3.998668e-12 -5.540501e-12 -5.134323e-12 -6.670161e-12 -6.006751e-12 -7.999912e-12 -7.134663e-12 -9.784418e-12 -8.706436e-12 -1.196101e-11 -1.070069e-11 -1.464224e-11 -1.297696e-11 -1.796783e-11 -1.580707e-11 -2.231538e-11 -1.910088e-11 -2.770101e-11 -2.380533e-11 -3.480638e-11 -2.936852e-11 -4.338450e-11 -3.605625e-11 -5.488691e-11 -4.476545e-11 -6.983895e-11 -5.537994e-11 -8.929841e-11 -6.889257e-11 -1.149855e-10 -8.561803e-11 -1.491600e-10 -1.065480e-10 -1.953332e-10 -1.332234e-10 -2.580279e-10 -1.670761e-10 -3.446486e-10 -2.100146e-10 -4.655570e-10 -2.649119e-10 -6.367664e-10 -3.352155e-10 -8.826614e-10 -4.249430e-10 -1.240328e-09 -5.380765e-10 -1.768878e-09 -6.772048e-10 -2.563035e-09 -8.390449e-10 -3.778713e-09 -1.001478e-09 -5.682254e-09 -1.094454e-09 -8.747254e-09 -9.128917e-10 -1.386673e-08 1.318005e-10 -2.285764e-08 3.817332e-09 -3.982691e-08 1.605809e-08 -7.539709e-08 5.913366e-08 -1.614606e-07 2.282956e-07 -4.024433e-07 9.689736e-07 -1.033583e-06 4.744995e-06 -1.741579e-05 4.469154e-04 
-3.157202e+00 -1.971074e+00 -2.827363e+00 -2.315125e+00 -1.253851e+00 -7.234549e-01 -4.598243e-01 -3.320751e-01 -2.706579e-01 -2.373890e-01 -2.132563e-01 -1.904688e-01 -1.674566e-01 -1.456037e-01 -1.272154e-01 -1.143159e-01 -1.078606e-01 -1.074431e-01 -1.113266e-01 -1.169350e-01 -1.215155e-01 -1.228960e-01 -1.199586e-01 -1.128266e-01 -1.026076e-01 -9.097408e-02 -7.959277e-02 -6.975474e-02 -6.210607e-02 -5.669877e-02 -5.308443e-02 -5.059994e-02 -4.852174e-02 -4.629230e-02 -4.353885e-02 -4.015504e-02 -3.620530e-02 -3.192495e-02 -2.760472e-02 -2.357298e-02 -2.011969e-02 -1.747806e-02 -1.580531e-02 -1.515748e-02 -1.552589e-02 -1.679727e-02 -1.883703e-02 -2.142894e-02 -2.438996e-02 -2.748604e-02 -3.056061e-02 -3.342778e-02 -3.600014e-02 -3.816695e-02 -3.991370e-02 -4.119691e-02 -4.205308e-02 -4.248134e-02 -4.254108e-02 -4.225009e-02 -4.166958e-02 -4.082128e-02 -3.975768e-02 -3.849906e-02 -3.708632e-02 -3.553842e-02 -3.388549e-02 -3.214722e-02 -3.034477e-02 -2.850057e-02 -2.662849e-02 -2.475470e-02 -2.288702e-02 -2.105483e-02 -1.926046e-02 -1.753439e-02 -1.587321e-02 -1.430533e-02 -1.282116e-02 -1.144379e-02 -1.015755e-02 -8.978119e-03 -7.885059e-03 -6.886402e-03 -5.959560e-03 -5.106569e-03 -4.306081e-03 -3.556921e-03 -2.842196e-03 -2.160365e-03 -1.501038e-03 -8.642489e-04 -2.464225e-04 3.502693e-04 9.239227e-04 1.470885e-03 1.986095e-03 2.465690e-03 2.903890e-03 3.297846e-03 3.642937e-03 3.938075e-03 4.180826e-03 4.372036e-03 4.511679e-03 4.602267e-03 4.645841e-03 4.646068e-03 4.606436e-03 4.531195e-03 4.424599e-03 4.290979e-03 4.134762e-03 3.959981e-03 3.770793e-03 3.570704e-03 3.363318e-03 3.151514e-03 2.938213e-03 2.725659e-03 2.516078e-03 2.311139e-03 2.112429e-03 1.921136e-03 1.738301e-03 1.564723e-03 1.400987e-03 1.247585e-03 1.104725e-03 9.726417e-04 8.512286e-04 7.405024e-04 6.400917e-04 5.498276e-04 4.691263e-04 3.976708e-04 3.347239e-04 2.798669e-04 2.322749e-04 1.914798e-04 1.566345e-04 1.272731e-04 1.025836e-04 8.214411e-05 6.522135e-05 5.146499e-05 4.024554e-05 3.129652e-05 2.410080e-05 1.847448e-05 1.400810e-05 1.058994e-05 7.905070e-06 5.898845e-06 4.334003e-06 3.197002e-06 2.311138e-06 1.689625e-06 1.201143e-06 8.742232e-07 6.106289e-07 4.459366e-07 3.056686e-07 2.269967e-07 1.524719e-07 1.176264e-07 7.734312e-08 6.384901e-08 4.113708e-08 3.748226e-08 2.377884e-08 2.430420e-08 1.531558e-08 1.736528e-08 1.097083e-08 1.336955e-08 8.520513e-09 1.079323e-08 6.956785e-09 8.942881e-09 5.832021e-09 7.505088e-09 4.949323e-09 6.333203e-09 4.220223e-09 5.354735e-09 3.602902e-09 4.528804e-09 3.074823e-09 3.828451e-09 2.621651e-09 3.234139e-09 2.232309e-09 2.729726e-09 1.898318e-09 2.301798e-09 1.612196e-09 1.939411e-09 1.367247e-09 1.632855e-09 1.158470e-09 1.373734e-09 9.804250e-10 1.154918e-09 8.290446e-10 9.704026e-10 7.002464e-10 8.147054e-10 5.907710e-10 6.835918e-10 4.982766e-10 5.734091e-10 4.198803e-10 4.805284e-10 3.534054e-10 4.025943e-10 2.974019e-10 3.371581e-10 2.501846e-10 2.823210e-10 2.101573e-10 2.360131e-10 1.762418e-10 1.972429e-10 1.478507e-10 1.648917e-10 1.239603e-10 1.375786e-10 1.037041e-10 1.147945e-10 8.665756e-11 9.565788e-11 7.235699e-11 7.926992e-11 5.995240e-11 6.577157e-11 4.956622e-11 5.427972e-11 4.101199e-11 4.468651e-11 3.362478e-11 3.661214e-11 2.718987e-11 2.929153e-11 2.139989e-11 2.289262e-11 1.612589e-11 1.744702e-11 1.136560e-11 1.200959e-11 7.072150e-12 7.051248e-12 2.292744e-12 2.312639e-12 -1.845457e-12 -2.507979e-12 -6.671404e-12 -7.737633e-12 -1.147834e-11 -1.281813e-11 -1.678622e-11 -1.868630e-11 -2.279442e-11 -2.524138e-11 -2.977213e-11 -3.278851e-11 -3.785119e-11 -4.159768e-11 -4.722822e-11 -5.190262e-11 -5.841111e-11 -6.405760e-11 -7.180698e-11 -7.894534e-11 -8.801236e-11 -9.675820e-11 -1.077790e-10 -1.182006e-10 -1.315363e-10 -1.445159e-10 -1.604620e-10 -1.760953e-10 -1.956662e-10 -2.145515e-10 -2.384409e-10 -2.614592e-10 -2.901969e-10 -3.184202e-10 -3.532711e-10 -3.876406e-10 -4.301957e-10 -4.719088e-10 -5.236246e-10 -5.744862e-10 -6.374024e-10 -6.992355e-10 -7.757227e-10 -8.509541e-10 -9.439689e-10 -1.035563e-09 -1.148484e-09 -1.259775e-09 -1.397442e-09 -1.532751e-09 -1.700398e-09 -1.865049e-09 -2.069079e-09 -2.269499e-09 -2.517791e-09 -2.762241e-09 -3.064626e-09 -3.362495e-09 -3.731114e-09 -4.093922e-09 -4.543186e-09 -4.985542e-09 -5.533444e-09 -6.073100e-09 -6.741732e-09 -7.400563e-09 -8.216981e-09 -9.022014e-09 -1.001988e-08 -1.100449e-08 -1.222553e-08 -1.343104e-08 -1.492712e-08 -1.640532e-08 -1.824114e-08 -2.005692e-08 -2.231396e-08 -2.454901e-08 -2.733065e-08 -3.008879e-08 -3.352620e-08 -3.694101e-08 -4.120362e-08 -4.544682e-08 -5.075468e-08 -5.605137e-08 -6.269335e-08 -6.934200e-08 -7.770457e-08 -8.610544e-08 -9.671102e-08 -1.074117e-07 -1.209808e-07 -1.347434e-07 -1.522904e-07 -1.701977e-07 -1.931813e-07 -2.168098e-07 -2.473835e-07 -2.790882e-07 -3.205231e-07 -3.639275e-07 -4.213580e-07 -4.822278e-07 -5.640180e-07 -6.518808e-07 -7.722618e-07 -9.035622e-07 -1.088011e-06 -1.292613e-06 -1.589628e-06 -1.925139e-06 -2.434308e-06 -3.020305e-06 -3.966778e-06 -5.075232e-06 -7.035636e-06 -9.361535e-06 -1.407056e-05 -1.967524e-05 -3.349986e-05 -4.973513e-05 -1.020423e-04 -1.612671e-04 -4.253065e-04 -7.067436e-04 -2.426334e-03 -6.559522e-03 5.209554e-02 -2.398032e+00 
-2.384963e-02 -6.245690e-03 1.025640e-01 6.201465e-02 -2.970162e-01 -3.630381e-01 -3.500759e-01 -3.286890e-01 -3.123133e-01 -2.972790e-01 -2.790486e-01 -2.563639e-01 -2.307856e-01 -2.052963e-01 -1.830055e-01 -1.663152e-01 -1.563331e-01 -1.526932e-01 -1.536587e-01 -1.566379e-01 -1.588695e-01 -1.581701e-01 -1.534178e-01 -1.447207e-01 -1.331717e-01 -1.204124e-01 -1.080797e-01 -9.742488e-02 -8.906342e-02 -8.301606e-02 -7.881752e-02 -7.579035e-02 -7.320858e-02 -7.051166e-02 -6.732950e-02 -6.355412e-02 -5.924963e-02 -5.464589e-02 -5.002850e-02 -4.571699e-02 -4.199403e-02 -3.908389e-02 -3.713817e-02 -3.620711e-02 -3.628101e-02 -3.724573e-02 -3.897089e-02 -4.124387e-02 -4.388928e-02 -4.667882e-02 -4.946395e-02 -5.206387e-02 -5.439678e-02 -5.635471e-02 -5.792516e-02 -5.906481e-02 -5.980891e-02 -6.015486e-02 -6.015867e-02 -5.983530e-02 -5.924146e-02 -5.839546e-02 -5.734471e-02 -5.610555e-02 -5.471331e-02 -5.318229e-02 -5.153628e-02 -4.978939e-02 -4.795541e-02 -4.605035e-02 -4.407984e-02 -4.206345e-02 -4.000071e-02 -3.791541e-02 -3.580278e-02 -3.368993e-02 -3.156892e-02 -2.946792e-02 -2.737620e-02 -2.532007e-02 -2.328634e-02 -2.129710e-02 -1.933760e-02 -1.742475e-02 -1.554403e-02 -1.370792e-02 -1.190449e-02 -1.014362e-02 -8.418208e-03 -6.737485e-03 -5.100340e-03 -3.516515e-03 -1.990383e-03 -5.321271e-04 8.503668e-04 2.147598e-03 3.350860e-03 4.452801e-03 5.446382e-03 6.327527e-03 7.092491e-03 7.740891e-03 8.272866e-03 8.691454e-03 9.000400e-03 9.205437e-03 9.313110e-03 9.330929e-03 9.267219e-03 9.130360e-03 8.929446e-03 8.672943e-03 8.369858e-03 8.028140e-03 7.656059e-03 7.260641e-03 6.849007e-03 6.427048e-03 6.000543e-03 5.574204e-03 5.152457e-03 4.738920e-03 4.336779e-03 3.948706e-03 3.576821e-03 3.223011e-03 2.888501e-03 2.574526e-03 2.281559e-03 2.010277e-03 1.760510e-03 1.532446e-03 1.325365e-03 1.139030e-03 9.722729e-04 8.245127e-04 6.942539e-04 5.806745e-04 4.820874e-04 3.975465e-04 3.253117e-04 2.644260e-04 2.132186e-04 1.708141e-04 1.357024e-04 1.071514e-04 8.386543e-05 6.528366e-05 5.034304e-05 3.865323e-05 2.937405e-05 2.226494e-05 1.668133e-05 1.250158e-05 9.241580e-06 6.865688e-06 5.014642e-06 3.709106e-06 2.683142e-06 1.989986e-06 1.431508e-06 1.076320e-06 7.747954e-07 5.995599e-07 4.356005e-07 3.527783e-07 2.610268e-07 2.239204e-07 1.697345e-07 1.543477e-07 1.198725e-07 1.143310e-07 9.055205e-08 8.920577e-08 7.161191e-08 7.188615e-08 5.819377e-08 5.897498e-08 4.797963e-08 4.882078e-08 3.983667e-08 4.058061e-08 3.317576e-08 3.378450e-08 2.765698e-08 2.813686e-08 2.305884e-08 2.342952e-08 1.921966e-08 1.950257e-08 1.601316e-08 1.622689e-08 1.333537e-08 1.349581e-08 1.110049e-08 1.121980e-08 9.236598e-09 9.324199e-09 7.682835e-09 7.746705e-09 6.388192e-09 6.434024e-09 5.310161e-09 5.342325e-09 4.412983e-09 4.434993e-09 3.666388e-09 3.680937e-09 3.045503e-09 3.054364e-09 2.529134e-09 2.534204e-09 2.099978e-09 2.102171e-09 1.743407e-09 1.743821e-09 1.447154e-09 1.445870e-09 1.200936e-09 1.198980e-09 9.964431e-10 9.938281e-10 8.265720e-10 8.236784e-10 6.853048e-10 6.823718e-10 5.680892e-10 5.651227e-10 4.707633e-10 4.680435e-10 3.897194e-10 3.869843e-10 3.224681e-10 3.198767e-10 2.664562e-10 2.639427e-10 2.194885e-10 2.173855e-10 1.807747e-10 1.788030e-10 1.483382e-10 1.461743e-10 1.207434e-10 1.188293e-10 9.742086e-11 9.524517e-11 7.729639e-11 7.519117e-11 5.978459e-11 5.745235e-11 4.450757e-11 4.182669e-11 3.034308e-11 2.788359e-11 1.754934e-11 1.442988e-11 5.056104e-12 1.347900e-12 -7.234272e-12 -1.142872e-11 -2.023472e-11 -2.506271e-11 -3.374974e-11 -3.946643e-11 -4.869685e-11 -5.537622e-11 -6.540868e-11 -7.359073e-11 -8.458363e-11 -9.441887e-11 -1.070786e-10 -1.188957e-10 -1.337466e-10 -1.480561e-10 -1.655191e-10 -1.827185e-10 -2.035293e-10 -2.245147e-10 -2.495579e-10 -2.749999e-10 -3.051092e-10 -3.360507e-10 -3.724781e-10 -4.103573e-10 -4.543048e-10 -5.001216e-10 -5.534178e-10 -6.091441e-10 -6.742554e-10 -7.418014e-10 -8.208654e-10 -9.034862e-10 -9.989832e-10 -1.099379e-09 -1.216041e-09 -1.338325e-09 -1.480107e-09 -1.628569e-09 -1.800950e-09 -1.981654e-09 -2.191112e-09 -2.411028e-09 -2.666097e-09 -2.933417e-09 -3.243618e-09 -3.569387e-09 -3.947144e-09 -4.343505e-09 -4.803359e-09 -5.286101e-09 -5.846151e-09 -6.434476e-09 -7.116941e-09 -7.833486e-09 -8.665458e-09 -9.538825e-09 -1.055314e-08 -1.161847e-08 -1.285598e-08 -1.415598e-08 -1.566693e-08 -1.725449e-08 -1.910095e-08 -2.104104e-08 -2.329995e-08 -2.567388e-08 -2.844061e-08 -3.134881e-08 -3.474233e-08 -3.831074e-08 -4.248119e-08 -4.686777e-08 -5.200430e-08 -5.740908e-08 -6.375227e-08 -7.043019e-08 -7.828888e-08 -8.656784e-08 -9.634242e-08 -1.066481e-07 -1.188632e-07 -1.317557e-07 -1.471078e-07 -1.633335e-07 -1.827609e-07 -2.033300e-07 -2.281181e-07 -2.544234e-07 -2.863661e-07 -3.203654e-07 -3.620186e-07 -4.065289e-07 -4.616197e-07 -5.207967e-07 -5.949044e-07 -6.750574e-07 -7.767807e-07 -8.878021e-07 -1.030835e-06 -1.188812e-06 -1.395794e-06 -1.627998e-06 -1.938002e-06 -2.292932e-06 -2.776829e-06 -3.345691e-06 -4.139804e-06 -5.105761e-06 -6.491311e-06 -8.252054e-06 -1.086030e-05 -1.436295e-05 -1.976459e-05 -2.751735e-05 -4.015102e-05 -5.955734e-05 -9.420700e-05 -1.484174e-04 -2.674646e-04 -4.115445e-04 -9.318557e-04 -2.211938e-03 1.813373e-02 -5.943068e-02 
-4.335507e-01 -2.756000e-03 -2.184231e-01 -2.055922e-01 -1.695092e-01 -1.794013e-01 -1.998347e-01 -2.241011e-01 -2.460766e-01 -2.594447e-01 -2.613632e-01 -2.525838e-01 -2.364609e-01 -2.172561e-01 -1.990463e-01 -1.848749e-01 -1.763237e-01 -1.733501e-01 -1.744733e-01 -1.772926e-01 -1.791999e-01 -1.781229e-01 -1.730142e-01 -1.640215e-01 -1.522475e-01 -1.393239e-01 -1.268654e-01 -1.160998e-01 -1.076227e-01 -1.014445e-01 -9.709755e-02 -9.391057e-02 -9.116669e-02 -8.831656e-02 -8.499783e-02 -8.110779e-02 -7.671000e-02 -7.203083e-02 -6.734810e-02 -6.297242e-02 -5.917666e-02 -5.617605e-02 -5.411565e-02 -5.304089e-02 -5.294206e-02 -5.370627e-02 -5.520978e-02 -5.724619e-02 -5.965069e-02 -6.220301e-02 -6.476510e-02 -6.716268e-02 -6.932128e-02 -7.113604e-02 -7.259749e-02 -7.366211e-02 -7.436460e-02 -7.469992e-02 -7.472131e-02 -7.444028e-02 -7.390979e-02 -7.314434e-02 -7.218724e-02 -7.105082e-02 -6.976598e-02 -6.834256e-02 -6.679900e-02 -6.514403e-02 -6.338439e-02 -6.152954e-02 -5.957625e-02 -5.753680e-02 -5.540095e-02 -5.318573e-02 -5.087734e-02 -4.849819e-02 -4.603370e-02 -4.351053e-02 -4.091484e-02 -3.827502e-02 -3.557868e-02 -3.285339e-02 -3.008880e-02 -2.731012e-02 -2.451022e-02 -2.171190e-02 -1.891282e-02 -1.613446e-02 -1.338061e-02 -1.067263e-02 -8.020601e-03 -5.446009e-03 -2.963608e-03 -5.939232e-04 1.646699e-03 3.740771e-03 5.673901e-03 7.433705e-03 9.010604e-03 1.039854e-02 1.159420e-02 1.259792e-02 1.341267e-02 1.404426e-02 1.450096e-02 1.479262e-02 1.493124e-02 1.492920e-02 1.480060e-02 1.455891e-02 1.421888e-02 1.379387e-02 1.329810e-02 1.274400e-02 1.214434e-02 1.151006e-02 1.085202e-02 1.017933e-02 9.500740e-03 8.823540e-03 8.154376e-03 7.498871e-03 6.861787e-03 6.247306e-03 5.658590e-03 5.098619e-03 4.569213e-03 4.072347e-03 3.608706e-03 3.179390e-03 2.784101e-03 2.423161e-03 2.095424e-03 1.800528e-03 1.536627e-03 1.302802e-03 1.096696e-03 9.169971e-04 7.610479e-04 6.273324e-04 5.131127e-04 4.168507e-04 3.359207e-04 2.689122e-04 2.134557e-04 1.683676e-04 1.316190e-04 1.022985e-04 7.874536e-05 6.031989e-05 4.571336e-05 3.452510e-05 2.575458e-05 1.919139e-05 1.408717e-05 1.036958e-05 7.485912e-06 5.454816e-06 3.869334e-06 2.801432e-06 1.949597e-06 1.411774e-06 9.615032e-07 7.045809e-07 4.677911e-07 3.539048e-07 2.278379e-07 1.836060e-07 1.139823e-07 1.018434e-07 6.085471e-08 6.235816e-08 3.611883e-08 4.261103e-08 2.430801e-08 3.196158e-08 1.826267e-08 2.552906e-08 1.477167e-08 2.112842e-08 1.243688e-08 1.779430e-08 1.066475e-08 1.509920e-08 9.207178e-09 1.284457e-08 7.959269e-09 1.092904e-08 6.873373e-09 9.292433e-09 5.924221e-09 7.891981e-09 5.095167e-09 6.694675e-09 4.372853e-09 5.672595e-09 3.745359e-09 4.800842e-09 3.201964e-09 4.058894e-09 2.732686e-09 3.428084e-09 2.328302e-09 2.892748e-09 1.981048e-09 2.439020e-09 1.683233e-09 2.054915e-09 1.428581e-09 1.729948e-09 1.210994e-09 1.455444e-09 1.025403e-09 1.223675e-09 8.674966e-10 1.028332e-09 7.331304e-10 8.633581e-10 6.189958e-10 7.246493e-10 5.220969e-10 6.076335e-10 4.399395e-10 5.091144e-10 3.702419e-10 4.262244e-10 3.110390e-10 3.563366e-10 2.610218e-10 2.975471e-10 2.185829e-10 2.480235e-10 1.824687e-10 2.063718e-10 1.518417e-10 1.707037e-10 1.256176e-10 1.408376e-10 1.031344e-10 1.154030e-10 8.405140e-11 9.354591e-11 6.725666e-11 7.455216e-11 5.208491e-11 5.748682e-11 3.837712e-11 4.207100e-11 2.579696e-11 2.799657e-11 1.352388e-11 1.451248e-11 1.538562e-12 1.449448e-12 -1.052610e-11 -1.177707e-11 -2.310288e-11 -2.568464e-11 -3.695704e-11 -4.086923e-11 -5.235918e-11 -5.768932e-11 -6.992294e-11 -7.687477e-11 -8.995231e-11 -9.874171e-11 -1.134107e-10 -1.244985e-10 -1.414823e-10 -1.550404e-10 -1.748218e-10 -1.915715e-10 -2.147941e-10 -2.351488e-10 -2.632820e-10 -2.882347e-10 -3.215850e-10 -3.523037e-10 -3.925169e-10 -4.297654e-10 -4.784318e-10 -5.240372e-10 -5.827292e-10 -6.385371e-10 -7.097039e-10 -7.775004e-10 -8.640472e-10 -9.462972e-10 -1.051550e-09 -1.151660e-09 -1.279346e-09 -1.401507e-09 -1.556618e-09 -1.705134e-09 -1.894130e-09 -2.074966e-09 -2.304668e-09 -2.524669e-09 -2.803978e-09 -3.071427e-09 -3.411421e-09 -3.737059e-09 -4.150392e-09 -4.546702e-09 -5.049691e-09 -5.532271e-09 -6.144621e-09 -6.732032e-09 -7.477790e-09 -8.193206e-09 -9.101552e-09 -9.973270e-09 -1.107978e-08 -1.214210e-08 -1.349049e-08 -1.478572e-08 -1.642988e-08 -1.801008e-08 -2.001632e-08 -2.194511e-08 -2.439436e-08 -2.675045e-08 -2.974360e-08 -3.262436e-08 -3.628562e-08 -3.981262e-08 -4.429657e-08 -4.862003e-08 -5.411997e-08 -5.942918e-08 -6.618719e-08 -7.272022e-08 -8.104284e-08 -8.910172e-08 -9.937858e-08 -1.093495e-07 -1.220802e-07 -1.344623e-07 -1.502949e-07 -1.657387e-07 -1.855228e-07 -2.048880e-07 -2.297510e-07 -2.541897e-07 -2.856522e-07 -3.167322e-07 -3.568790e-07 -3.967735e-07 -4.485181e-07 -5.002999e-07 -5.678028e-07 -6.359153e-07 -7.252622e-07 -8.162935e-07 -9.366304e-07 -1.060624e-06 -1.226119e-06 -1.398866e-06 -1.632237e-06 -1.879448e-06 -2.218555e-06 -2.583769e-06 -3.094586e-06 -3.654878e-06 -4.458383e-06 -5.357327e-06 -6.688765e-06 -8.209812e-06 -1.055831e-05 -1.329930e-05 -1.776011e-05 -2.307780e-05 -3.229755e-05 -4.351272e-05 -6.430775e-05 -9.007957e-05 -1.402537e-04 -2.032877e-04 -3.228285e-04 -4.706492e-04 -6.449669e-04 -1.737130e-03 1.590623e-02 -3.579377e-01 
-1.236919e-02 -1.149203e-04 5.658831e-02 5.988766e-02 -1.632417e-02 -5.453755e-02 -8.909172e-02 -1.272922e-01 -1.641960e-01 -1.925653e-01 -2.085502e-01 -2.122783e-01 -2.068090e-01 -1.963620e-01 -1.851423e-01 -1.763853e-01 -1.719222e-01 -1.719514e-01 -1.752542e-01 -1.796550e-01 -1.827627e-01 -1.826573e-01 -1.784128e-01 -1.702279e-01 -1.592327e-01 -1.470400e-01 -1.352497e-01 -1.250599e-01 -1.170607e-01 -1.112570e-01 -1.072001e-01 -1.042349e-01 -1.016727e-01 -9.898276e-02 -9.582188e-02 -9.209503e-02 -8.786901e-02 -8.336580e-02 -7.885481e-02 -7.463622e-02 -7.097105e-02 -6.806507e-02 -6.605548e-02 -6.498412e-02 -6.484146e-02 -6.551840e-02 -6.689941e-02 -6.878724e-02 -7.102984e-02 -7.341741e-02 -7.582437e-02 -7.808449e-02 -8.013177e-02 -8.186524e-02 -8.327885e-02 -8.432931e-02 -8.505067e-02 -8.543610e-02 -8.553595e-02 -8.535922e-02 -8.495529e-02 -8.433619e-02 -8.354179e-02 -8.258216e-02 -8.148488e-02 -8.025716e-02 -7.891326e-02 -7.745771e-02 -7.589063e-02 -7.421468e-02 -7.241671e-02 -7.049999e-02 -6.844208e-02 -6.625063e-02 -6.389976e-02 -6.140447e-02 -5.874069e-02 -5.593123e-02 -5.295682e-02 -4.984614e-02 -4.658584e-02 -4.320768e-02 -3.970460e-02 -3.610934e-02 -3.242178e-02 -2.867505e-02 -2.487697e-02 -2.106162e-02 -1.724539e-02 -1.346380e-02 -9.740867e-03 -6.112682e-03 -2.607727e-03 7.400129e-04 3.902455e-03 6.851398e-03 9.564209e-03 1.202165e-02 1.421013e-02 1.612091e-02 1.775078e-02 1.910105e-02 2.017814e-02 2.099163e-02 2.155541e-02 2.188487e-02 2.199880e-02 2.191589e-02 2.165736e-02 2.124302e-02 2.069439e-02 2.003079e-02 1.927242e-02 1.843694e-02 1.754218e-02 1.660342e-02 1.563556e-02 1.465122e-02 1.366220e-02 1.267855e-02 1.170911e-02 1.076160e-02 9.842310e-03 8.956973e-03 8.109727e-03 7.304668e-03 6.544137e-03 5.830853e-03 5.165628e-03 4.549966e-03 3.983343e-03 3.466163e-03 2.996732e-03 2.574480e-03 2.196743e-03 1.862153e-03 1.567331e-03 1.310347e-03 1.087409e-03 8.962924e-04 7.331040e-04 5.955893e-04 4.800241e-04 3.843404e-04 3.051863e-04 2.408228e-04 1.883882e-04 1.465374e-04 1.129357e-04 8.663066e-05 6.578956e-05 4.980572e-05 3.728422e-05 2.789395e-05 2.059705e-05 1.526307e-05 1.113010e-05 8.200857e-06 5.918045e-06 4.363511e-06 3.127206e-06 2.330821e-06 1.668455e-06 1.275517e-06 9.194560e-07 7.336203e-07 5.375764e-07 4.541789e-07 3.407678e-07 3.060559e-07 2.355046e-07 2.228880e-07 1.752071e-07 1.720336e-07 1.372917e-07 1.377911e-07 1.110194e-07 1.126920e-07 9.131591e-08 9.315296e-08 7.574066e-08 7.738337e-08 6.305455e-08 6.441155e-08 5.256408e-08 5.364434e-08 4.383014e-08 4.467390e-08 3.653936e-08 3.719091e-08 3.044904e-08 3.094886e-08 2.536271e-08 2.574355e-08 2.111697e-08 2.140568e-08 1.757484e-08 1.779247e-08 1.462147e-08 1.478434e-08 1.216053e-08 1.228129e-08 1.011074e-08 1.019950e-08 8.404239e-09 8.468599e-09 6.984095e-09 7.029937e-09 5.802336e-09 5.834564e-09 4.819897e-09 4.841676e-09 4.002986e-09 4.017145e-09 3.324060e-09 3.332424e-09 2.759554e-09 2.764042e-09 2.290584e-09 2.292156e-09 1.900838e-09 1.900464e-09 1.577105e-09 1.575139e-09 1.308030e-09 1.305430e-09 1.084429e-09 1.081147e-09 8.984653e-10 8.947115e-10 7.440873e-10 7.404233e-10 6.155301e-10 6.118493e-10 5.084744e-10 5.048001e-10 4.193442e-10 4.156883e-10 3.446479e-10 3.412905e-10 2.823769e-10 2.791002e-10 2.300315e-10 2.263430e-10 1.850283e-10 1.814528e-10 1.465814e-10 1.426306e-10 1.131365e-10 1.088816e-10 8.348865e-11 7.889405e-11 5.661883e-11 5.130349e-11 3.159339e-11 2.595607e-11 7.708915e-12 1.055511e-12 -1.626136e-11 -2.407248e-11 -4.085082e-11 -5.008361e-11 -6.732132e-11 -7.846073e-11 -9.632542e-11 -1.093809e-10 -1.290527e-10 -1.449708e-10 -1.667671e-10 -1.857538e-10 -2.105812e-10 -2.335441e-10 -2.625275e-10 -2.904343e-10 -3.249906e-10 -3.589190e-10 -3.998842e-10 -4.411234e-10 -4.901328e-10 -5.401265e-10 -5.993849e-10 -6.602076e-10 -7.313262e-10 -8.051817e-10 -8.917193e-10 -9.816092e-10 -1.086570e-09 -1.195897e-09 -1.322852e-09 -1.456074e-09 -1.610296e-09 -1.772083e-09 -1.959833e-09 -2.156615e-09 -2.385055e-09 -2.624448e-09 -2.901908e-09 -3.193454e-09 -3.531051e-09 -3.885446e-09 -4.296130e-09 -4.727506e-09 -5.226993e-09 -5.751927e-09 -6.359867e-09 -6.998494e-09 -7.738383e-09 -8.516006e-09 -9.417134e-09 -1.036390e-08 -1.146132e-08 -1.261470e-08 -1.395134e-08 -1.535633e-08 -1.698515e-08 -1.869794e-08 -2.068375e-08 -2.277201e-08 -2.519472e-08 -2.774278e-08 -3.070004e-08 -3.381067e-08 -3.742329e-08 -4.122434e-08 -4.564191e-08 -5.029120e-08 -5.569894e-08 -6.139249e-08 -6.802267e-08 -7.500512e-08 -8.314678e-08 -9.172573e-08 -1.017446e-07 -1.123076e-07 -1.246676e-07 -1.377074e-07 -1.530017e-07 -1.691504e-07 -1.881449e-07 -2.082205e-07 -2.319141e-07 -2.569881e-07 -2.867005e-07 -3.181938e-07 -3.556919e-07 -3.955169e-07 -4.432035e-07 -4.939772e-07 -5.551788e-07 -6.205506e-07 -6.999594e-07 -7.851261e-07 -8.895092e-07 -1.002045e-06 -1.141394e-06 -1.292629e-06 -1.482091e-06 -1.689468e-06 -1.952687e-06 -2.243923e-06 -2.619022e-06 -3.039741e-06 -3.590424e-06 -4.218697e-06 -5.055742e-06 -6.030938e-06 -7.355605e-06 -8.938043e-06 -1.113375e-05 -1.383243e-05 -1.766666e-05 -2.251716e-05 -2.959977e-05 -3.874456e-05 -5.256391e-05 -7.019544e-05 -9.820214e-05 -1.301322e-04 -1.854867e-04 -2.257884e-04 -2.798200e-04 -7.667569e-04 6.081041e-03 -8.498423e-03 