# vtk DataFile Version 2.0
Comment goes here
ASCII

DATASET STRUCTURED_POINTS
FIELD FieldData 1
TIME 1 1 double
2.12500000
DIMENSIONS    384   64   1

ORIGIN    0.000   0.000   0.000
SPACING   0.078125 0.078125   1.000

POINT_DATA   24576
SCALARS Omega double
LOOKUP_TABLE default

-1.355122e-03 3.296201e-02 1.746556e-01 6.509806e-02 -1.571790e-01 -2.545037e-01 -2.027140e-01 -9.489010e-02 -7.549051e-03 3.663813e-02 4.671405e-02 3.916731e-02 2.600772e-02 1.323072e-02 2.624602e-03 -5.785088e-03 -1.247242e-02 -1.776162e-02 -2.184336e-02 -2.484548e-02 -2.696331e-02 -2.849205e-02 -2.976070e-02 -3.109041e-02 -3.266597e-02 -3.456165e-02 -3.668571e-02 -3.889720e-02 -4.102121e-02 -4.294911e-02 -4.466640e-02 -4.622534e-02 -4.778860e-02 -4.944786e-02 -5.136143e-02 -5.345698e-02 -5.573838e-02 -5.791070e-02 -5.985750e-02 -6.119858e-02 -6.186146e-02 -6.157967e-02 -6.045399e-02 -5.843093e-02 -5.577242e-02 -5.258809e-02 -4.917494e-02 -4.567941e-02 -4.230111e-02 -3.912610e-02 -3.620423e-02 -3.354611e-02 -3.109041e-02 -2.881980e-02 -2.664286e-02 -2.457017e-02 -2.254624e-02 -2.063199e-02 -1.882915e-02 -1.723018e-02 -1.587530e-02 -1.484727e-02 -1.418941e-02 -1.393701e-02 -1.410777e-02 -1.467260e-02 -1.561344e-02 -1.684423e-02 -1.831943e-02 -1.992017e-02 -2.159199e-02 -2.321224e-02 -2.473637e-02 -2.606142e-02 -2.716457e-02 -2.797512e-02 -2.849463e-02 -2.868659e-02 -2.857256e-02 -2.814541e-02 -2.743944e-02 -2.646980e-02 -2.527670e-02 -2.389095e-02 -2.235363e-02 -2.070555e-02 -1.898505e-02 -1.723781e-02 -1.549648e-02 -1.380659e-02 -1.219241e-02 -1.069443e-02 -9.326203e-03 -8.118743e-03 -7.073052e-03 -6.207290e-03 -5.509166e-03 -4.982417e-03 -4.602602e-03 -4.360116e-03 -4.221956e-03 -4.169138e-03 -4.165861e-03 -4.189811e-03 -4.209062e-03 -4.204430e-03 -4.153601e-03 -4.045479e-03 -3.870514e-03 -3.627775e-03 -3.320262e-03 -2.956087e-03 -2.547580e-03 -2.108342e-03 -1.655100e-03 -1.202440e-03 -7.665002e-04 -3.589317e-04 8.360906e-06 3.289558e-04 5.968149e-04 8.111366e-04 9.714770e-04 1.081545e-03 1.144960e-03 1.168073e-03 1.156593e-03 1.117616e-03 1.057173e-03 9.816739e-04 8.962775e-04 8.059078e-04 7.142915e-04 6.246548e-04 5.392357e-04 4.597470e-04 3.871891e-04 3.221380e-04 2.647264e-04 2.148023e-04 1.719891e-04 1.357529e-04 1.054880e-04 8.052528e-05 6.021636e-05 4.390770e-05 3.101206e-05 2.096697e-05 1.329142e-05 7.539942e-06 3.346136e-06 3.789817e-07 -1.624139e-06 -2.895871e-06 -3.613858e-06 -3.932921e-06 -3.965947e-06 -3.810033e-06 -3.531664e-06 -3.187544e-06 -2.812871e-06 -2.437719e-06 -2.077569e-06 -1.746094e-06 -1.447349e-06 -1.185723e-06 -9.594042e-07 -7.681294e-07 -6.076665e-07 -4.758821e-07 -3.680665e-07 -2.817212e-07 -2.126074e-07 -1.585575e-07 -1.161504e-07 -8.377793e-08 -5.886124e-08 -4.034180e-08 -2.636280e-08 -1.630804e-08 -8.880016e-09 -3.777865e-09 -1.097150e-10 2.221898e-09 3.827868e-09 4.686279e-09 5.219067e-09 5.343227e-09 5.355811e-09 5.148313e-09 4.935682e-09 4.605474e-09 4.317170e-09 3.965675e-09 3.672765e-09 3.344955e-09 3.077447e-09 2.789577e-09 2.557145e-09 2.312123e-09 2.115520e-09 1.909885e-09 1.745453e-09 1.574979e-09 1.438785e-09 1.297628e-09 1.185108e-09 1.068703e-09 9.762928e-10 8.806208e-10 8.044003e-10 7.256560e-10 6.625364e-10 5.975276e-10 5.457969e-10 4.925673e-10 4.496595e-10 4.054072e-10 3.701308e-10 3.338554e-10 3.050124e-10 2.750512e-10 2.511189e-10 2.264319e-10 2.067883e-10 1.865678e-10 1.701969e-10 1.534755e-10 1.398790e-10 1.261423e-10 1.151490e-10 1.039322e-10 9.499616e-11 8.566191e-11 7.796768e-11 7.019156e-11 6.398064e-11 5.751885e-11 5.270812e-11 4.766830e-11 4.335317e-11 3.900489e-11 3.562330e-11 3.182314e-11 2.896504e-11 2.607526e-11 2.405756e-11 2.166504e-11 1.984759e-11 1.769394e-11 1.629227e-11 1.462877e-11 1.361660e-11 1.224668e-11 1.130817e-11 1.039086e-11 9.747936e-12 8.890548e-12 8.265744e-12 7.530213e-12 6.907423e-12 6.344791e-12 5.998165e-12 5.471061e-12 4.845428e-12 4.520236e-12 4.165202e-12 3.704533e-12 3.287089e-12 3.036268e-12 3.023359e-12 2.790420e-12 2.671581e-12 2.420464e-12 2.362140e-12 1.945880e-12 1.997750e-12 1.976789e-12 2.142908e-12 2.106789e-12 2.394618e-12 2.102585e-12 2.338914e-12 2.077834e-12 2.473644e-12 2.373294e-12 3.255078e-12 3.119571e-12 4.023878e-12 3.950928e-12 4.836013e-12 4.612044e-12 6.129985e-12 5.732155e-12 7.290465e-12 6.659488e-12 8.691551e-12 8.374531e-12 1.062652e-11 9.773338e-12 1.267844e-11 1.189469e-11 1.535012e-11 1.424147e-11 1.846457e-11 1.695321e-11 2.214940e-11 2.067084e-11 2.704386e-11 2.470018e-11 3.242386e-11 2.979974e-11 3.923891e-11 3.591107e-11 4.735175e-11 4.323013e-11 5.771762e-11 5.252119e-11 7.023135e-11 6.359630e-11 8.565486e-11 7.737159e-11 1.045305e-10 9.371348e-11 1.273979e-10 1.134760e-10 1.560907e-10 1.380143e-10 1.921843e-10 1.679887e-10 2.365201e-10 2.038308e-10 2.914843e-10 2.472582e-10 3.603976e-10 2.999952e-10 4.471579e-10 3.637075e-10 5.573632e-10 4.405739e-10 6.977160e-10 5.325691e-10 8.777699e-10 6.427250e-10 1.111799e-09 7.741349e-10 1.419150e-09 9.290796e-10 1.826828e-09 1.109756e-09 2.375507e-09 1.316243e-09 3.124358e-09 1.544328e-09 4.162888e-09 1.782009e-09 5.629035e-09 1.998750e-09 7.738286e-09 2.127655e-09 1.083797e-08 2.025834e-09 1.550794e-08 1.390238e-09 2.274915e-08 -4.464962e-10 3.437416e-08 -5.022736e-09 5.386955e-08 -1.614934e-08 8.848533e-08 -4.428743e-08 1.549390e-07 -1.222059e-07 2.970959e-07 -3.693902e-07 6.469619e-07 -1.289385e-06 1.624287e-06 -5.153490e-06 2.813819e-06 -1.551388e-05 1.606335e-04 -4.134813e-03 
-1.409402e+00 -9.048419e-01 -1.039827e+00 -8.417800e-01 -8.019608e-01 -7.005696e-01 -5.029871e-01 -3.026381e-01 -1.602142e-01 -8.215071e-02 -4.961609e-02 -4.142122e-02 -4.313879e-02 -4.739931e-02 -5.149254e-02 -5.481941e-02 -5.743891e-02 -5.940809e-02 -6.070155e-02 -6.131457e-02 -6.133749e-02 -6.102079e-02 -6.065600e-02 -6.056017e-02 -6.089791e-02 -6.173813e-02 -6.295777e-02 -6.439759e-02 -6.584252e-02 -6.716342e-02 -6.831080e-02 -6.932528e-02 -7.034756e-02 -7.146795e-02 -7.283490e-02 -7.438081e-02 -7.610822e-02 -7.772968e-02 -7.913310e-02 -7.994723e-02 -8.010624e-02 -7.935280e-02 -7.779199e-02 -7.537749e-02 -7.236909e-02 -6.888025e-02 -6.519875e-02 -6.147208e-02 -5.788705e-02 -5.452973e-02 -5.143887e-02 -4.862505e-02 -4.602140e-02 -4.360956e-02 -4.129894e-02 -3.909580e-02 -3.695002e-02 -3.491297e-02 -3.299373e-02 -3.126992e-02 -2.978942e-02 -2.861713e-02 -2.780443e-02 -2.736944e-02 -2.733937e-02 -2.767208e-02 -2.836144e-02 -2.931413e-02 -3.049886e-02 -3.179495e-02 -3.316330e-02 -3.448317e-02 -3.572456e-02 -3.678789e-02 -3.766207e-02 -3.827895e-02 -3.864750e-02 -3.873129e-02 -3.855424e-02 -3.810623e-02 -3.741922e-02 -3.650263e-02 -3.539070e-02 -3.410660e-02 -3.268299e-02 -3.115190e-02 -2.954164e-02 -2.788843e-02 -2.621399e-02 -2.455416e-02 -2.292255e-02 -2.135088e-02 -1.984391e-02 -1.842652e-02 -1.709461e-02 -1.586426e-02 -1.472281e-02 -1.367646e-02 -1.270497e-02 -1.180503e-02 -1.095122e-02 -1.013325e-02 -9.324660e-03 -8.512766e-03 -7.675296e-03 -6.802567e-03 -5.881348e-03 -4.909323e-03 -3.885059e-03 -2.815452e-03 -1.710501e-03 -5.850751e-04 5.427272e-04 1.653773e-03 2.726954e-03 3.743585e-03 4.684700e-03 5.536157e-03 6.284879e-03 6.923634e-03 7.446844e-03 7.854507e-03 8.148120e-03 8.333607e-03 8.417742e-03 8.410211e-03 8.320759e-03 8.160582e-03 7.940260e-03 7.670693e-03 7.361737e-03 7.022854e-03 6.662293e-03 6.287574e-03 5.905043e-03 5.520254e-03 5.137745e-03 4.761362e-03 4.394136e-03 4.038576e-03 3.696559e-03 3.369615e-03 3.058787e-03 2.764915e-03 2.488451e-03 2.229747e-03 1.988826e-03 1.765681e-03 1.560009e-03 1.371523e-03 1.199661e-03 1.043911e-03 9.035052e-04 7.777579e-04 6.657511e-04 5.666776e-04 4.795305e-04 4.034407e-04 3.373753e-04 2.804626e-04 2.317031e-04 1.902748e-04 1.552601e-04 1.259264e-04 1.014711e-04 8.127494e-05 6.466654e-05 5.114833e-05 4.018155e-05 3.138554e-05 2.434425e-05 1.878039e-05 1.438369e-05 1.096209e-05 8.291286e-06 6.245297e-06 4.666187e-06 3.476385e-06 2.566987e-06 1.893976e-06 1.383295e-06 1.012932e-06 7.328052e-07 5.344883e-07 3.839681e-07 2.806262e-07 2.010292e-07 1.486190e-07 1.068726e-07 8.100248e-08 5.901469e-08 4.658393e-08 3.473426e-08 2.891672e-08 2.222275e-08 1.956578e-08 1.550552e-08 1.431422e-08 1.163451e-08 1.110192e-08 9.185520e-09 8.938359e-09 7.479362e-09 7.351912e-09 6.194056e-09 6.114574e-09 5.173045e-09 5.112883e-09 4.337314e-09 4.285167e-09 3.642314e-09 3.594453e-09 3.059429e-09 3.014790e-09 2.569619e-09 2.528118e-09 2.157025e-09 2.118462e-09 1.809533e-09 1.774753e-09 1.517287e-09 1.485888e-09 1.271538e-09 1.243514e-09 1.065335e-09 1.040198e-09 8.919279e-10 8.696918e-10 7.462331e-10 7.267648e-10 6.242611e-10 6.073617e-10 5.220242e-10 5.070961e-10 4.359608e-10 4.229586e-10 3.640475e-10 3.529120e-10 3.039615e-10 2.941726e-10 2.534872e-10 2.451774e-10 2.111938e-10 2.038917e-10 1.754251e-10 1.693665e-10 1.458979e-10 1.406129e-10 1.209951e-10 1.164755e-10 1.000372e-10 9.615467e-11 8.227019e-11 7.888813e-11 6.753780e-11 6.467088e-11 5.496498e-11 5.221411e-11 4.379418e-11 4.144181e-11 3.401546e-11 3.167896e-11 2.544525e-11 2.318311e-11 1.713272e-11 1.512651e-11 9.801345e-12 7.534595e-12 2.062469e-12 7.496226e-14 -5.024248e-12 -7.204489e-12 -1.266815e-11 -1.513616e-11 -2.088279e-11 -2.370122e-11 -3.000279e-11 -3.306404e-11 -4.011165e-11 -4.368355e-11 -5.173642e-11 -5.629666e-11 -6.573311e-11 -7.103217e-11 -8.204752e-11 -8.840251e-11 -1.013282e-10 -1.087022e-10 -1.243336e-10 -1.332766e-10 -1.520629e-10 -1.630178e-10 -1.859658e-10 -1.991331e-10 -2.269147e-10 -2.432606e-10 -2.768732e-10 -2.966571e-10 -3.373601e-10 -3.615206e-10 -4.111600e-10 -4.404148e-10 -5.007383e-10 -5.363429e-10 -6.097083e-10 -6.531858e-10 -7.423416e-10 -7.951098e-10 -9.038166e-10 -9.684138e-10 -1.100633e-09 -1.179465e-09 -1.340552e-09 -1.436470e-09 -1.632679e-09 -1.749927e-09 -1.988956e-09 -2.131939e-09 -2.423644e-09 -2.598395e-09 -2.954186e-09 -3.168158e-09 -3.602873e-09 -3.864762e-09 -4.396242e-09 -4.717748e-09 -5.367767e-09 -5.762813e-09 -6.559048e-09 -7.046013e-09 -8.023461e-09 -8.625420e-09 -9.827352e-09 -1.057375e-08 -1.205500e-08 -1.298402e-08 -1.481503e-08 -1.597686e-08 -1.824810e-08 -1.970974e-08 -2.253931e-08 -2.439065e-08 -2.793411e-08 -3.029835e-08 -3.476327e-08 -3.781154e-08 -4.348149e-08 -4.745661e-08 -5.472524e-08 -5.997855e-08 -6.940341e-08 -7.645596e-08 -8.884927e-08 -9.849236e-08 -1.150702e-07 -1.285402e-07 -1.511863e-07 -1.704783e-07 -2.022231e-07 -2.306734e-07 -2.766130e-07 -3.200355e-07 -3.891978e-07 -4.582264e-07 -5.676434e-07 -6.828781e-07 -8.672452e-07 -1.071483e-06 -1.408668e-06 -1.798873e-06 -2.486815e-06 -3.308140e-06 -4.937180e-06 -6.901710e-06 -1.161685e-05 -1.717583e-05 -3.476697e-05 -5.413885e-05 -1.416771e-04 -2.306620e-04 -7.192632e-04 -3.581950e-03 4.495223e-02 -1.118364e+00 
-1.525017e-02 -2.990206e-03 2.374174e-01 2.878217e-01 -2.565479e-01 -4.705226e-01 -4.315077e-01 -3.022188e-01 -1.881831e-01 -1.202475e-01 -9.047686e-02 -8.218586e-02 -8.264647e-02 -8.523850e-02 -8.754168e-02 -8.913783e-02 -9.012868e-02 -9.060685e-02 -9.051532e-02 -8.984921e-02 -8.866879e-02 -8.723977e-02 -8.584253e-02 -8.482048e-02 -8.432617e-02 -8.444606e-02 -8.502915e-02 -8.592014e-02 -8.686426e-02 -8.773180e-02 -8.843425e-02 -8.901600e-02 -8.958811e-02 -9.025084e-02 -9.113552e-02 -9.218807e-02 -9.340664e-02 -9.451787e-02 -9.541584e-02 -9.574132e-02 -9.543980e-02 -9.426144e-02 -9.232031e-02 -8.957179e-02 -8.627677e-02 -8.254593e-02 -7.865978e-02 -7.476186e-02 -7.102755e-02 -6.754080e-02 -6.433042e-02 -6.140694e-02 -5.869892e-02 -5.618732e-02 -5.378290e-02 -5.148685e-02 -4.925438e-02 -4.712489e-02 -4.511427e-02 -4.328158e-02 -4.168177e-02 -4.035787e-02 -3.936923e-02 -3.871365e-02 -3.842895e-02 -3.845835e-02 -3.881032e-02 -3.938432e-02 -4.016750e-02 -4.103882e-02 -4.197995e-02 -4.287447e-02 -4.371312e-02 -4.440228e-02 -4.494877e-02 -4.528899e-02 -4.544438e-02 -4.537929e-02 -4.512338e-02 -4.466274e-02 -4.402866e-02 -4.322309e-02 -4.227482e-02 -4.119750e-02 -4.001532e-02 -3.874992e-02 -3.741914e-02 -3.604803e-02 -3.464610e-02 -3.323715e-02 -3.182134e-02 -3.041825e-02 -2.901972e-02 -2.764023e-02 -2.626574e-02 -2.490588e-02 -2.354296e-02 -2.218183e-02 -2.080268e-02 -1.940574e-02 -1.797065e-02 -1.649438e-02 -1.495874e-02 -1.336066e-02 -1.168804e-02 -9.942142e-03 -8.120858e-03 -6.233446e-03 -4.289907e-03 -2.308733e-03 -3.109740e-04 1.677617e-03 3.629091e-03 5.515004e-03 7.306449e-03 8.977800e-03 1.050499e-02 1.186980e-02 1.305700e-02 1.405822e-02 1.486851e-02 1.548932e-02 1.592506e-02 1.618510e-02 1.628075e-02 1.622647e-02 1.603745e-02 1.573033e-02 1.532147e-02 1.482734e-02 1.426341e-02 1.364443e-02 1.298379e-02 1.229375e-02 1.158510e-02 1.086746e-02 1.014905e-02 9.437037e-03 8.737371e-03 8.055196e-03 7.394587e-03 6.759073e-03 6.151263e-03 5.573427e-03 5.027033e-03 4.513362e-03 4.032967e-03 3.586331e-03 3.173254e-03 2.793552e-03 2.446397e-03 2.131045e-03 1.846161e-03 1.590554e-03 1.362509e-03 1.160517e-03 9.826224e-04 8.271368e-04 6.920120e-04 5.755162e-04 4.756416e-04 3.907340e-04 3.189352e-04 2.587593e-04 2.085725e-04 1.671122e-04 1.330080e-04 1.052414e-04 8.271086e-05 6.463532e-05 5.016309e-05 3.872428e-05 2.968342e-05 2.264513e-05 1.715003e-05 1.293830e-05 9.686649e-06 7.234699e-06 5.359710e-06 3.970321e-06 2.915249e-06 2.148448e-06 1.567766e-06 1.155177e-06 8.414383e-07 6.246622e-07 4.572459e-07 3.457340e-07 2.566343e-07 2.002091e-07 1.521979e-07 1.238808e-07 9.713440e-08 8.283842e-08 6.706398e-08 5.963736e-08 4.960120e-08 4.550804e-08 3.858812e-08 3.612152e-08 3.100648e-08 2.935863e-08 2.538296e-08 2.417512e-08 2.098573e-08 2.003987e-08 1.743481e-08 1.666394e-08 1.451651e-08 1.387468e-08 1.209627e-08 1.155653e-08 1.008081e-08 9.625714e-09 8.400350e-09 8.015465e-09 6.997528e-09 6.672385e-09 5.827144e-09 5.552883e-09 4.851135e-09 4.619765e-09 4.037364e-09 3.842587e-09 3.359228e-09 3.195175e-09 2.794373e-09 2.656095e-09 2.323410e-09 2.207409e-09 1.931783e-09 1.834250e-09 1.605558e-09 1.523472e-09 1.333937e-09 1.265118e-09 1.107892e-09 1.050426e-09 9.200557e-10 8.717329e-10 7.639200e-10 7.233088e-10 6.336628e-10 5.995295e-10 5.250788e-10 4.966528e-10 4.350194e-10 4.111768e-10 3.599655e-10 3.398714e-10 2.971987e-10 2.802180e-10 2.446267e-10 2.303633e-10 2.008880e-10 1.884833e-10 1.638018e-10 1.531793e-10 1.325221e-10 1.231006e-10 1.053530e-10 9.726702e-11 8.210381e-11 7.442473e-11 6.102982e-11 5.389360e-11 4.242378e-11 3.572100e-11 2.484294e-11 1.809296e-11 8.230927e-12 1.322142e-12 -8.318265e-12 -1.563016e-11 -2.540042e-11 -3.313776e-11 -4.331469e-11 -5.200856e-11 -6.275579e-11 -7.301484e-11 -8.502662e-11 -9.707910e-11 -1.106749e-10 -1.247225e-10 -1.404700e-10 -1.570380e-10 -1.755447e-10 -1.954111e-10 -2.171022e-10 -2.411159e-10 -2.669873e-10 -2.961242e-10 -3.274761e-10 -3.624923e-10 -4.005687e-10 -4.434084e-10 -4.894367e-10 -5.412732e-10 -5.967731e-10 -6.598107e-10 -7.275268e-10 -8.040065e-10 -8.862778e-10 -9.793347e-10 -1.079233e-09 -1.192778e-09 -1.314190e-09 -1.452321e-09 -1.600242e-09 -1.768267e-09 -1.948489e-09 -2.153362e-09 -2.372722e-09 -2.622429e-09 -2.889463e-09 -3.193874e-09 -3.519352e-09 -3.890803e-09 -4.287975e-09 -4.741783e-09 -5.225884e-09 -5.780495e-09 -6.371886e-09 -7.050125e-09 -7.772847e-09 -8.603971e-09 -9.488041e-09 -1.050783e-08 -1.159096e-08 -1.284422e-08 -1.417346e-08 -1.571766e-08 -1.735160e-08 -1.925917e-08 -2.127243e-08 -2.363687e-08 -2.612470e-08 -2.906659e-08 -3.215143e-08 -3.582932e-08 -3.967111e-08 -4.429574e-08 -4.910453e-08 -5.495950e-08 -6.101631e-08 -6.848930e-08 -7.617708e-08 -8.580855e-08 -9.565829e-08 -1.082160e-07 -1.209810e-07 -1.375803e-07 -1.543562e-07 -1.766562e-07 -1.990824e-07 -2.296203e-07 -2.602304e-07 -3.030071e-07 -3.458608e-07 -4.074057e-07 -4.692770e-07 -5.606772e-07 -6.534093e-07 -7.943738e-07 -9.398097e-07 -1.167306e-06 -1.408307e-06 -1.796221e-06 -2.223282e-06 -2.930893e-06 -3.752544e-06 -5.155376e-06 -6.905886e-06 -9.985008e-06 -1.422444e-05 -2.182650e-05 -3.394877e-05 -5.482586e-05 -9.838586e-05 -1.570600e-04 -2.970777e-04 -1.738082e-03 1.622841e-02 -3.465724e-02 
-1.984968e-01 -1.360632e-03 9.620415e-02 1.261020e-01 -1.803737e-01 -3.519599e-01 -3.357063e-01 -2.379841e-01 -1.490014e-01 -9.884731e-02 -8.146880e-02 -8.177120e-02 -8.810973e-02 -9.468531e-02 -9.964175e-02 -1.030061e-01 -1.051417e-01 -1.063548e-01 -1.066862e-01 -1.062375e-01 -1.051041e-01 -1.036231e-01 -1.020892e-01 -1.009024e-01 -1.002138e-01 -1.001510e-01 -1.005444e-01 -1.012650e-01 -1.020275e-01 -1.027195e-01 -1.032189e-01 -1.035848e-01 -1.039002e-01 -1.042800e-01 -1.048395e-01 -1.055401e-01 -1.063791e-01 -1.070986e-01 -1.076043e-01 -1.075498e-01 -1.068970e-01 -1.054028e-01 -1.031926e-01 -1.002213e-01 -9.675034e-02 -9.288547e-02 -8.889793e-02 -8.492653e-02 -8.113361e-02 -7.760170e-02 -7.434938e-02 -7.138830e-02 -6.864309e-02 -6.609437e-02 -6.365491e-02 -6.131943e-02 -5.904832e-02 -5.686576e-02 -5.479303e-02 -5.286631e-02 -5.114522e-02 -4.964685e-02 -4.843630e-02 -4.748859e-02 -4.685160e-02 -4.645378e-02 -4.632024e-02 -4.634533e-02 -4.653958e-02 -4.678523e-02 -4.709231e-02 -4.735318e-02 -4.758865e-02 -4.771538e-02 -4.776756e-02 -4.768880e-02 -4.752083e-02 -4.722873e-02 -4.685279e-02 -4.637254e-02 -4.582071e-02 -4.518736e-02 -4.449629e-02 -4.374714e-02 -4.295573e-02 -4.212968e-02 -4.127634e-02 -4.040669e-02 -3.951708e-02 -3.861602e-02 -3.768751e-02 -3.673456e-02 -3.573151e-02 -3.467713e-02 -3.354191e-02 -3.232371e-02 -3.099464e-02 -2.955391e-02 -2.797818e-02 -2.626846e-02 -2.440710e-02 -2.239717e-02 -2.022803e-02 -1.790662e-02 -1.543191e-02 -1.281793e-02 -1.007615e-02 -7.230554e-03 -4.306246e-03 -1.337416e-03 1.639465e-03 4.583342e-03 7.452075e-03 1.020392e-02 1.279860e-02 1.520059e-02 1.737841e-02 1.930818e-02 2.097163e-02 2.235899e-02 2.346627e-02 2.429717e-02 2.486017e-02 2.516954e-02 2.524266e-02 2.510039e-02 2.476498e-02 2.426003e-02 2.360902e-02 2.283524e-02 2.196079e-02 2.100662e-02 1.999187e-02 1.893415e-02 1.784903e-02 1.675050e-02 1.565059e-02 1.455993e-02 1.348737e-02 1.244070e-02 1.142613e-02 1.044912e-02 9.513756e-03 8.623659e-03 7.781206e-03 6.988526e-03 6.246601e-03 5.556317e-03 4.917483e-03 4.329926e-03 3.792462e-03 3.304023e-03 2.862611e-03 2.466438e-03 2.112894e-03 1.799673e-03 1.523776e-03 1.282603e-03 1.072994e-03 8.922729e-04 7.373345e-04 6.056139e-04 4.942351e-04 4.008897e-04 3.230479e-04 2.587460e-04 2.058615e-04 1.628095e-04 1.278840e-04 9.986872e-05 7.744559e-05 5.972608e-05 4.572762e-05 3.483302e-05 2.633272e-05 1.982043e-05 1.479748e-05 1.101233e-05 8.122019e-06 5.982494e-06 4.361367e-06 3.185211e-06 2.297567e-06 1.668773e-06 1.193138e-06 8.662957e-07 6.158670e-07 4.507896e-07 3.203472e-07 2.394357e-07 1.714635e-07 1.330710e-07 9.701718e-08 7.946235e-08 5.952870e-08 5.186232e-08 4.007375e-08 3.693352e-08 2.934333e-08 2.818527e-08 2.286254e-08 2.252145e-08 1.852071e-08 1.848397e-08 1.533170e-08 1.538542e-08 1.283062e-08 1.289345e-08 1.079105e-08 1.083597e-08 9.092279e-09 9.115102e-09 7.664223e-09 7.667701e-09 6.458779e-09 6.447800e-09 5.439495e-09 5.418414e-09 4.577682e-09 4.550581e-09 3.850378e-09 3.819851e-09 3.236314e-09 3.204660e-09 2.718374e-09 2.687069e-09 2.282182e-09 2.251676e-09 1.914431e-09 1.885722e-09 1.605305e-09 1.578658e-09 1.345099e-09 1.320653e-09 1.126330e-09 1.104172e-09 9.426480e-10 9.227408e-10 7.881758e-10 7.708547e-10 6.589386e-10 6.431302e-10 5.498875e-10 5.358670e-10 4.584123e-10 4.461432e-10 3.817068e-10 3.709264e-10 3.169317e-10 3.072082e-10 2.621103e-10 2.534125e-10 2.158117e-10 2.080682e-10 1.762623e-10 1.692404e-10 1.423617e-10 1.360889e-10 1.131185e-10 1.070557e-10 8.711337e-11 8.149676e-11 6.402333e-11 5.810120e-11 4.243480e-11 3.662599e-11 2.218788e-11 1.600332e-11 2.154366e-12 -4.572165e-12 -1.804861e-11 -2.540504e-11 -3.894917e-11 -4.723765e-11 -6.185044e-11 -7.134329e-11 -8.685956e-11 -9.788049e-11 -1.153351e-10 -1.285337e-10 -1.487169e-10 -1.642234e-10 -1.876808e-10 -2.064268e-10 -2.340776e-10 -2.562702e-10 -2.891053e-10 -3.159975e-10 -3.553058e-10 -3.878694e-10 -4.352368e-10 -4.746642e-10 -5.316002e-10 -5.795753e-10 -6.490881e-10 -7.075325e-10 -7.916047e-10 -8.622915e-10 -9.643798e-10 -1.050395e-09 -1.174491e-09 -1.279247e-09 -1.430227e-09 -1.557653e-09 -1.741081e-09 -1.896499e-09 -2.119733e-09 -2.308599e-09 -2.580359e-09 -2.810515e-09 -3.141473e-09 -3.422031e-09 -3.825088e-09 -4.166929e-09 -4.658179e-09 -5.074800e-09 -5.673636e-09 -6.182028e-09 -6.912786e-09 -7.533790e-09 -8.425389e-09 -9.184287e-09 -1.027369e-08 -1.120177e-08 -1.253379e-08 -1.367092e-08 -1.530206e-08 -1.669697e-08 -1.869695e-08 -2.041122e-08 -2.286773e-08 -2.497942e-08 -2.800322e-08 -3.061089e-08 -3.434219e-08 -3.757344e-08 -4.219241e-08 -4.621175e-08 -5.195106e-08 -5.697419e-08 -6.413846e-08 -7.045282e-08 -7.944555e-08 -8.743629e-08 -9.879941e-08 -1.089946e-07 -1.234703e-07 -1.366063e-07 -1.552276e-07 -1.723509e-07 -1.965898e-07 -2.192222e-07 -2.512256e-07 -2.816354e-07 -3.246207e-07 -3.662823e-07 -4.252219e-07 -4.836250e-07 -5.664735e-07 -6.505893e-07 -7.705798e-07 -8.956479e-07 -1.075801e-06 -1.268861e-06 -1.551334e-06 -1.862811e-06 -2.329483e-06 -2.858898e-06 -3.679831e-06 -4.636695e-06 -6.192325e-06 -8.050341e-06 -1.125957e-05 -1.517229e-05 -2.240592e-05 -3.136750e-05 -4.887845e-05 -7.075458e-05 -1.130661e-04 -1.675200e-04 -1.929646e-04 -1.196522e-03 1.238481e-02 -1.707357e-01 
-9.054777e-03 -1.558383e-04 1.966994e-01 2.305137e-01 -9.681076e-02 -2.698388e-01 -2.623630e-01 -1.773655e-01 -1.009326e-01 -6.176832e-02 -5.358706e-02 -6.140951e-02 -7.379707e-02 -8.520814e-02 -9.400870e-02 -1.004342e-01 -1.049971e-01 -1.081457e-01 -1.100100e-01 -1.107882e-01 -1.106229e-01 -1.099195e-01 -1.089929e-01 -1.082967e-01 -1.079847e-01 -1.082307e-01 -1.088535e-01 -1.097654e-01 -1.106568e-01 -1.114510e-01 -1.119933e-01 -1.123721e-01 -1.126374e-01 -1.129294e-01 -1.133407e-01 -1.138558e-01 -1.144683e-01 -1.149398e-01 -1.151917e-01 -1.148896e-01 -1.140199e-01 -1.123401e-01 -1.099960e-01 -1.069324e-01 -1.034186e-01 -9.954581e-02 -9.558064e-02 -9.165109e-02 -8.790867e-02 -8.443271e-02 -8.123201e-02 -7.832035e-02 -7.561770e-02 -7.310548e-02 -7.069689e-02 -6.837932e-02 -6.611575e-02 -6.391148e-02 -6.178944e-02 -5.975718e-02 -5.787456e-02 -5.612708e-02 -5.458211e-02 -5.318887e-02 -5.200474e-02 -5.094452e-02 -5.005336e-02 -4.922570e-02 -4.850275e-02 -4.777840e-02 -4.710162e-02 -4.638376e-02 -4.568812e-02 -4.495159e-02 -4.424732e-02 -4.353320e-02 -4.287899e-02 -4.225255e-02 -4.170725e-02 -4.121308e-02 -4.080217e-02 -4.044677e-02 -4.016171e-02 -3.992662e-02 -3.974540e-02 -3.960742e-02 -3.950715e-02 -3.943868e-02 -3.938279e-02 -3.932950e-02 -3.924251e-02 -3.910330e-02 -3.886236e-02 -3.849633e-02 -3.795285e-02 -3.721169e-02 -3.622818e-02 -3.499112e-02 -3.346919e-02 -3.166163e-02 -2.955144e-02 -2.714740e-02 -2.444654e-02 -2.146726e-02 -1.822150e-02 -1.473910e-02 -1.104856e-02 -7.192877e-03 -3.216890e-03 8.244357e-04 4.874020e-03 8.870352e-03 1.275220e-02 1.646010e-02 1.993855e-02 2.313909e-02 2.602054e-02 2.855197e-02 3.071139e-02 3.248779e-02 3.387883e-02 3.489173e-02 3.554062e-02 3.584652e-02 3.583482e-02 3.553481e-02 3.497763e-02 3.419568e-02 3.322114e-02 3.208553e-02 3.081874e-02 2.944888e-02 2.800165e-02 2.650054e-02 2.496635e-02 2.341771e-02 2.187062e-02 2.033926e-02 1.883540e-02 1.736944e-02 1.594962e-02 1.458328e-02 1.327584e-02 1.203219e-02 1.085547e-02 9.748560e-03 8.712728e-03 7.749166e-03 6.857550e-03 6.037614e-03 5.287676e-03 4.606227e-03 3.990464e-03 3.437876e-03 2.944810e-03 2.508035e-03 2.123361e-03 1.787142e-03 1.494971e-03 1.243096e-03 1.027188e-03 8.436554e-04 6.884898e-04 5.584592e-04 4.500418e-04 3.604884e-04 2.868467e-04 2.268978e-04 1.782715e-04 1.392641e-04 1.080465e-04 8.337350e-05 6.388334e-05 4.870994e-05 3.687155e-05 2.779676e-05 2.079698e-05 1.551709e-05 1.148468e-05 8.494933e-06 6.228703e-06 4.580089e-06 3.334995e-06 2.448954e-06 1.777962e-06 1.313205e-06 9.565447e-07 7.180812e-07 5.293967e-07 4.092337e-07 3.084677e-07 2.485769e-07 1.931451e-07 1.632485e-07 1.310711e-07 1.158118e-07 9.568767e-08 8.748313e-08 7.381868e-08 6.901735e-08 5.903299e-08 5.591226e-08 4.820913e-08 4.596771e-08 3.981472e-08 3.807961e-08 3.306576e-08 3.165948e-08 2.753045e-08 2.636159e-08 2.294384e-08 2.196121e-08 1.912570e-08 1.829542e-08 1.594104e-08 1.523888e-08 1.328326e-08 1.268876e-08 1.106480e-08 1.056244e-08 9.214245e-09 8.789901e-09 7.670990e-09 7.312955e-09 6.384290e-09 6.082668e-09 5.312183e-09 5.057952e-09 4.418719e-09 4.204710e-09 3.674596e-09 3.494655e-09 3.055057e-09 2.903649e-09 2.539084e-09 2.411974e-09 2.109822e-09 2.002878e-09 1.752473e-09 1.662839e-09 1.455096e-09 1.379702e-09 1.207498e-09 1.144251e-09 1.001213e-09 9.479984e-10 8.297559e-10 7.849322e-10 6.864498e-10 6.487231e-10 5.667375e-10 5.347937e-10 4.666294e-10 4.393302e-10 3.825305e-10 3.594417e-10 3.117260e-10 2.917955e-10 2.514282e-10 2.339109e-10 1.996266e-10 1.842641e-10 1.548782e-10 1.406309e-10 1.150865e-10 1.019304e-10 7.905593e-11 6.624769e-11 4.511567e-11 3.257317e-11 1.305539e-11 1.623590e-13 -1.864375e-11 -3.268301e-11 -5.180028e-11 -6.704101e-11 -8.674232e-11 -1.039872e-10 -1.254207e-10 -1.452385e-10 -1.689529e-10 -1.921079e-10 -2.191767e-10 -2.465457e-10 -2.779654e-10 -3.103839e-10 -3.471119e-10 -3.858991e-10 -4.298649e-10 -4.767435e-10 -5.289875e-10 -5.854119e-10 -6.483477e-10 -7.168389e-10 -7.932339e-10 -8.765843e-10 -9.685264e-10 -1.069335e-09 -1.181267e-09 -1.304110e-09 -1.439389e-09 -1.588854e-09 -1.753473e-09 -1.935022e-09 -2.135118e-09 -2.356259e-09 -2.599870e-09 -2.868784e-09 -3.165101e-09 -3.492652e-09 -3.853341e-09 -4.252796e-09 -4.691930e-09 -5.178062e-09 -5.713124e-09 -6.306029e-09 -6.958180e-09 -7.681123e-09 -8.476454e-09 -9.358937e-09 -1.032955e-08 -1.140726e-08 -1.259268e-08 -1.391014e-08 -1.535901e-08 -1.697171e-08 -1.874498e-08 -2.072129e-08 -2.289424e-08 -2.532048e-08 -2.798736e-08 -3.097185e-08 -3.425145e-08 -3.793093e-08 -4.197383e-08 -4.652346e-08 -5.152147e-08 -5.716694e-08 -6.336720e-08 -7.040186e-08 -7.812648e-08 -8.693715e-08 -9.661029e-08 -1.077123e-07 -1.199003e-07 -1.339915e-07 -1.494640e-07 -1.675072e-07 -1.873266e-07 -2.106714e-07 -2.363368e-07 -2.669178e-07 -3.005914e-07 -3.412447e-07 -3.861228e-07 -4.411133e-07 -5.020565e-07 -5.779783e-07 -6.626097e-07 -7.699784e-07 -8.906674e-07 -1.046834e-06 -1.224430e-06 -1.459114e-06 -1.730263e-06 -2.096504e-06 -2.528659e-06 -3.125338e-06 -3.849012e-06 -4.868764e-06 -6.150022e-06 -7.982580e-06 -1.039177e-05 -1.383734e-05 -1.864371e-05 -2.525369e-05 -3.526580e-05 -4.717118e-05 -6.752035e-05 -8.442952e-05 -7.899498e-05 -5.825113e-04 5.166541e-03 -9.777200e-03 