# vtk DataFile Version 2.0
Comment goes here
ASCII

DATASET STRUCTURED_POINTS
FIELD FieldData 1
TIME 1 1 double
1.65000000
DIMENSIONS    384   64   1

ORIGIN    0.000   0.000   0.000
SPACING   0.078125 0.078125   1.000

POINT_DATA   24576
SCALARS Omega double
LOOKUP_TABLE default

2.672866e-04 -4.019120e-03 -2.269038e-02 -1.807266e-02 -3.475725e-03 9.897963e-03 1.227083e-02 -4.287832e-03 -3.951504e-02 -8.278976e-02 -1.181820e-01 -1.329007e-01 -1.234580e-01 -9.590202e-02 -6.149949e-02 -3.104166e-02 -1.098538e-02 -2.540740e-03 -3.033361e-03 -8.182713e-03 -1.400255e-02 -1.784547e-02 -1.854725e-02 -1.610098e-02 -1.113705e-02 -4.541133e-03 2.816740e-03 1.015257e-02 1.682391e-02 2.230050e-02 2.620550e-02 2.830519e-02 2.855302e-02 2.706677e-02 2.412441e-02 2.010589e-02 1.544185e-02 1.055628e-02 5.808837e-03 1.483645e-03 -2.250778e-03 -5.296216e-03 -7.656920e-03 -9.358132e-03 -1.049125e-02 -1.112105e-02 -1.135229e-02 -1.123977e-02 -1.086890e-02 -1.027329e-02 -9.515717e-03 -8.615418e-03 -7.618546e-03 -6.538272e-03 -5.409090e-03 -4.242891e-03 -3.065165e-03 -1.889033e-03 -7.327850e-04 3.875552e-04 1.459473e-03 2.463291e-03 3.391723e-03 4.222247e-03 4.953448e-03 5.562403e-03 6.054926e-03 6.410995e-03 6.644698e-03 6.741854e-03 6.724557e-03 6.585991e-03 6.354229e-03 6.029488e-03 5.642318e-03 5.198030e-03 4.725545e-03 4.232487e-03 3.742532e-03 3.262942e-03 2.809910e-03 2.388516e-03 2.007012e-03 1.667641e-03 1.371822e-03 1.119301e-03 9.067133e-04 7.322020e-04 5.898775e-04 4.772657e-04 3.878610e-04 3.193404e-04 2.658618e-04 2.256751e-04 1.942263e-04 1.704390e-04 1.511566e-04 1.358656e-04 1.226080e-04 1.112390e-04 1.006826e-04 9.098213e-05 8.163767e-05 7.275598e-05 6.417369e-05 5.599361e-05 4.822238e-05 4.092972e-05 3.418530e-05 2.801678e-05 2.249346e-05 1.760238e-05 1.338096e-05 9.783633e-06 6.807447e-06 4.386820e-06 2.484844e-06 1.030244e-06 -3.445620e-08 -7.735366e-07 -1.251167e-06 -1.516195e-06 -1.629111e-06 -1.620025e-06 -1.540171e-06 -1.401973e-06 -1.245962e-06 -1.070591e-06 -9.068366e-07 -7.438124e-07 -6.051488e-07 -4.748921e-07 -3.715534e-07 -2.773811e-07 -2.074992e-07 -1.444934e-07 -1.012348e-07 -6.181757e-08 -3.750196e-08 -1.437502e-08 -2.403871e-09 1.026542e-08 1.481368e-08 2.118832e-08 2.164285e-08 2.445779e-08 2.289823e-08 2.383159e-08 2.146385e-08 2.148350e-08 1.895278e-08 1.858349e-08 1.620141e-08 1.570898e-08 1.360063e-08 1.310834e-08 1.130320e-08 1.086095e-08 9.343167e-09 8.964624e-09 7.701327e-09 7.385204e-09 6.339567e-09 6.078827e-09 5.216167e-09 5.002025e-09 4.290991e-09 4.115571e-09 3.530316e-09 3.386549e-09 2.904783e-09 2.786773e-09 2.390160e-09 2.293328e-09 1.966847e-09 1.887498e-09 1.618876e-09 1.553677e-09 1.332693e-09 1.279156e-09 1.097325e-09 1.053124e-09 9.034959e-10 8.672242e-10 7.440898e-10 7.140914e-10 6.126680e-10 5.881116e-10 5.046157e-10 4.840716e-10 4.153218e-10 3.984575e-10 3.419709e-10 3.279323e-10 2.814955e-10 2.700220e-10 2.317997e-10 2.223656e-10 1.907848e-10 1.827734e-10 1.568996e-10 1.502766e-10 1.289557e-10 1.238490e-10 1.064575e-10 1.021008e-10 8.766821e-11 8.410132e-11 7.205682e-11 6.883329e-11 5.912743e-11 5.654612e-11 4.847672e-11 4.629304e-11 3.977005e-11 3.816147e-11 3.297729e-11 3.168520e-11 2.743071e-11 2.639148e-11 2.271537e-11 2.176964e-11 1.862744e-11 1.774276e-11 1.525559e-11 1.452187e-11 1.241638e-11 1.197587e-11 1.028502e-11 9.934157e-12 8.534506e-12 8.300087e-12 7.264056e-12 7.009978e-12 6.143293e-12 5.909702e-12 5.131421e-12 4.749860e-12 4.250052e-12 4.093437e-12 3.519910e-12 3.341682e-12 3.012760e-12 2.893626e-12 2.514492e-12 2.467360e-12 2.092015e-12 1.900050e-12 1.504574e-12 1.340883e-12 1.160109e-12 8.838263e-13 7.813602e-13 7.591557e-13 5.110431e-13 5.337804e-13 3.567369e-13 4.458582e-13 4.722001e-13 3.699189e-13 4.430678e-13 3.575621e-13 2.361629e-13 2.206753e-13 3.410975e-13 4.308517e-13 2.887024e-13 3.281523e-13 4.714673e-13 3.735271e-13 4.664787e-13 4.944119e-13 5.295875e-13 4.553654e-13 2.460180e-13 2.390754e-13 1.338485e-13 1.064038e-13 -9.461321e-14 -1.249445e-13 -2.846242e-13 -2.430648e-13 -1.306807e-13 -2.262190e-13 -5.471549e-13 -5.472437e-13 -1.052817e-12 -1.092004e-12 -1.525465e-12 -1.491648e-12 -1.663517e-12 -1.817946e-12 -1.937865e-12 -1.782922e-12 -2.180345e-12 -1.984679e-12 -2.552684e-12 -2.264033e-12 -2.965391e-12 -2.745804e-12 -3.648370e-12 -3.645876e-12 -4.767845e-12 -4.358684e-12 -5.764618e-12 -5.305578e-12 -6.725927e-12 -6.322772e-12 -8.214988e-12 -7.878801e-12 -1.000965e-11 -9.569512e-12 -1.215581e-11 -1.143966e-11 -1.496102e-11 -1.400255e-11 -1.802362e-11 -1.670772e-11 -2.194518e-11 -2.037711e-11 -2.672660e-11 -2.468848e-11 -3.270918e-11 -3.022725e-11 -4.049479e-11 -3.717099e-11 -5.034535e-11 -4.579629e-11 -6.228334e-11 -5.631713e-11 -7.702356e-11 -6.891942e-11 -9.575321e-11 -8.457573e-11 -1.193747e-10 -1.038869e-10 -1.496774e-10 -1.280920e-10 -1.883973e-10 -1.576199e-10 -2.379979e-10 -1.941560e-10 -3.025808e-10 -2.396976e-10 -3.881153e-10 -2.973072e-10 -5.025425e-10 -3.702253e-10 -6.573742e-10 -4.624413e-10 -8.693966e-10 -5.804755e-10 -1.163857e-09 -7.313272e-10 -1.578831e-09 -9.247224e-10 -2.172373e-09 -1.172005e-09 -3.036241e-09 -1.485495e-09 -4.315882e-09 -1.873548e-09 -6.251030e-09 -2.327765e-09 -9.249502e-09 -2.787009e-09 -1.403615e-08 -3.033895e-09 -2.197357e-08 -2.378059e-09 -3.582988e-08 1.387962e-09 -6.183278e-08 1.589337e-08 -1.159834e-07 7.062586e-08 -2.457853e-07 2.936899e-07 -6.037957e-07 1.289188e-06 -1.504918e-06 5.895756e-06 -5.303424e-06 4.462937e-04 
-4.270267e+00 -2.683947e+00 -3.815560e+00 -3.127858e+00 -1.690513e+00 -9.742818e-01 -6.078260e-01 -4.243156e-01 -3.438464e-01 -3.162712e-01 -3.053616e-01 -2.876324e-01 -2.541640e-01 -2.083253e-01 -1.598887e-01 -1.186540e-01 -9.024655e-02 -7.521457e-02 -7.035855e-02 -7.104927e-02 -7.306098e-02 -7.361107e-02 -7.143418e-02 -6.646317e-02 -5.926667e-02 -5.068891e-02 -4.155321e-02 -3.261394e-02 -2.448116e-02 -1.766676e-02 -1.252704e-02 -9.284828e-03 -7.974101e-03 -8.470223e-03 -1.048842e-02 -1.364425e-02 -1.750477e-02 -2.164238e-02 -2.569776e-02 -2.938235e-02 -3.252855e-02 -3.503199e-02 -3.689716e-02 -3.814201e-02 -3.885724e-02 -3.910047e-02 -3.897488e-02 -3.852918e-02 -3.784615e-02 -3.695456e-02 -3.591322e-02 -3.473730e-02 -3.346747e-02 -3.211298e-02 -3.070133e-02 -2.924011e-02 -2.774657e-02 -2.622904e-02 -2.469686e-02 -2.316115e-02 -2.162571e-02 -2.010609e-02 -1.860220e-02 -1.713444e-02 -1.569939e-02 -1.432089e-02 -1.299183e-02 -1.173679e-02 -1.054432e-02 -9.436741e-03 -8.398174e-03 -7.446402e-03 -6.562142e-03 -5.757654e-03 -5.012309e-03 -4.333267e-03 -3.701124e-03 -3.119332e-03 -2.572038e-03 -2.060685e-03 -1.574392e-03 -1.113973e-03 -6.737335e-04 -2.546069e-04 1.447668e-04 5.231873e-04 8.791444e-04 1.211389e-03 1.517103e-03 1.795317e-03 2.043198e-03 2.260331e-03 2.444735e-03 2.596702e-03 2.715528e-03 2.802244e-03 2.857490e-03 2.882963e-03 2.880463e-03 2.852197e-03 2.800797e-03 2.728771e-03 2.639187e-03 2.534624e-03 2.418198e-03 2.292337e-03 2.159892e-03 2.022968e-03 1.883941e-03 1.744512e-03 1.606490e-03 1.471168e-03 1.339804e-03 1.213339e-03 1.092549e-03 9.780975e-04 8.703691e-04 7.698136e-04 6.764967e-04 5.906976e-04 5.122190e-04 4.411923e-04 3.772019e-04 3.202501e-04 2.697483e-04 2.255947e-04 1.870813e-04 1.540370e-04 1.256937e-04 1.018519e-04 8.174165e-05 6.517304e-05 5.142317e-05 4.034029e-05 3.128164e-05 2.414922e-05 1.839667e-05 1.398249e-05 1.045849e-05 7.832896e-06 5.747480e-06 4.248236e-06 3.053400e-06 2.233451e-06 1.568226e-06 1.140739e-06 7.786863e-07 5.683359e-07 3.738138e-07 2.783169e-07 1.735351e-07 1.358698e-07 7.799918e-08 6.777721e-08 3.410303e-08 3.586135e-08 1.472422e-08 2.098135e-08 6.544661e-09 1.389376e-08 3.271933e-09 1.029276e-08 2.047848e-09 8.240791e-09 1.625915e-09 6.890682e-09 1.486589e-09 5.881591e-09 1.426969e-09 5.061693e-09 1.374551e-09 4.365910e-09 1.308606e-09 3.763722e-09 1.227801e-09 3.239554e-09 1.136623e-09 2.783376e-09 1.039388e-09 2.386756e-09 9.413699e-10 2.042818e-09 8.450403e-10 1.745334e-09 7.532403e-10 1.488843e-09 6.669557e-10 1.267907e-09 5.873228e-10 1.078138e-09 5.146934e-10 9.154558e-10 4.493416e-10 7.764982e-10 3.907133e-10 6.580726e-10 3.388121e-10 5.569193e-10 2.928343e-10 4.707568e-10 2.524944e-10 3.977348e-10 2.171367e-10 3.357471e-10 1.865882e-10 2.834078e-10 1.598340e-10 2.386934e-10 1.365623e-10 2.009114e-10 1.163850e-10 1.688934e-10 9.902417e-11 1.419716e-10 8.428351e-11 1.192983e-10 7.163615e-11 1.003760e-10 6.100483e-11 8.441846e-11 5.160553e-11 7.052717e-11 4.348465e-11 5.875762e-11 3.629059e-11 4.883471e-11 3.005241e-11 4.036137e-11 2.500755e-11 3.332493e-11 2.061817e-11 2.737887e-11 1.687255e-11 2.256701e-11 1.344933e-11 1.776410e-11 1.018119e-11 1.340013e-11 6.887054e-12 9.556445e-12 4.121977e-12 6.037659e-12 1.458093e-12 2.617580e-12 -1.769370e-12 -8.825533e-13 -4.776742e-12 -4.494864e-12 -7.950470e-12 -8.229565e-12 -1.186778e-11 -1.268943e-11 -1.616955e-11 -1.730879e-11 -2.089967e-11 -2.251870e-11 -2.660715e-11 -2.876891e-11 -3.312815e-11 -3.593275e-11 -4.077716e-11 -4.450225e-11 -5.034614e-11 -5.497468e-11 -6.171459e-11 -6.741394e-11 -7.529352e-11 -8.258606e-11 -9.214520e-11 -1.007008e-10 -1.121978e-10 -1.228310e-10 -1.365433e-10 -1.495571e-10 -1.664352e-10 -1.823203e-10 -2.027883e-10 -2.222062e-10 -2.469082e-10 -2.704349e-10 -3.003899e-10 -3.291841e-10 -3.653334e-10 -4.004672e-10 -4.446862e-10 -4.873930e-10 -5.413213e-10 -5.933520e-10 -6.585538e-10 -7.217771e-10 -8.011907e-10 -8.779575e-10 -9.743842e-10 -1.067658e-09 -1.184912e-09 -1.298495e-09 -1.441291e-09 -1.579456e-09 -1.753338e-09 -1.921679e-09 -2.133191e-09 -2.338002e-09 -2.595414e-09 -2.844429e-09 -3.157711e-09 -3.461150e-09 -3.842257e-09 -4.211755e-09 -4.675943e-09 -5.125920e-09 -5.691474e-09 -6.239540e-09 -6.928526e-09 -7.596502e-09 -8.436361e-09 -9.250735e-09 -1.027494e-08 -1.126825e-08 -1.251797e-08 -1.373071e-08 -1.525645e-08 -1.673833e-08 -1.860348e-08 -2.041559e-08 -2.269747e-08 -2.491618e-08 -2.771158e-08 -3.043211e-08 -3.386174e-08 -3.720307e-08 -4.141864e-08 -4.553133e-08 -5.072531e-08 -5.580026e-08 -6.221783e-08 -6.849968e-08 -7.645536e-08 -8.426016e-08 -9.416301e-08 -1.039041e-07 -1.162923e-07 -1.285171e-07 -1.441072e-07 -1.595518e-07 -1.793151e-07 -1.989852e-07 -2.242596e-07 -2.495553e-07 -2.822231e-07 -3.151357e-07 -3.579062e-07 -4.013373e-07 -4.582107e-07 -5.165017e-07 -5.935611e-07 -6.734065e-07 -7.802141e-07 -8.922939e-07 -1.044463e-06 -1.206488e-06 -1.430657e-06 -1.673336e-06 -2.017373e-06 -2.396776e-06 -2.952205e-06 -3.577232e-06 -4.532949e-06 -5.631533e-06 -7.416968e-06 -9.512842e-06 -1.323384e-05 -1.768216e-05 -2.668064e-05 -3.756148e-05 -6.413610e-05 -9.625216e-05 -1.971361e-04 -3.168763e-04 -8.261337e-04 -1.404392e-03 -4.820597e-03 -1.039603e-02 3.762335e-02 -3.271258e+00 
-2.911789e-02 -8.475809e-03 1.581948e-01 1.169455e-01 -3.928871e-01 -4.928015e-01 -4.663043e-01 -4.229712e-01 -3.980970e-01 -3.904289e-01 -3.841354e-01 -3.646151e-01 -3.269072e-01 -2.762713e-01 -2.233106e-01 -1.781131e-01 -1.462986e-01 -1.283144e-01 -1.208492e-01 -1.192003e-01 -1.191019e-01 -1.177518e-01 -1.138732e-01 -1.073829e-01 -9.883189e-02 -8.903990e-02 -7.880817e-02 -6.886679e-02 -5.980710e-02 -5.212284e-02 -4.615805e-02 -4.212484e-02 -4.005175e-02 -3.981058e-02 -4.111730e-02 -4.358927e-02 -4.679825e-02 -5.032026e-02 -5.380120e-02 -5.695426e-02 -5.961493e-02 -6.167709e-02 -6.314570e-02 -6.403415e-02 -6.443186e-02 -6.439090e-02 -6.401209e-02 -6.333903e-02 -6.245110e-02 -6.137293e-02 -6.015843e-02 -5.881952e-02 -5.739007e-02 -5.587647e-02 -5.429749e-02 -5.265769e-02 -5.096397e-02 -4.922112e-02 -4.742721e-02 -4.558946e-02 -4.370052e-02 -4.177249e-02 -3.979562e-02 -3.778846e-02 -3.574085e-02 -3.367765e-02 -3.158893e-02 -2.950397e-02 -2.741294e-02 -2.534658e-02 -2.329471e-02 -2.128653e-02 -1.931147e-02 -1.739487e-02 -1.552631e-02 -1.372611e-02 -1.198496e-02 -1.031817e-02 -8.718541e-03 -7.197037e-03 -5.749135e-03 -4.382394e-03 -3.094825e-03 -1.891338e-03 -7.717349e-04 2.611926e-04 1.206881e-03 2.064281e-03 2.833035e-03 3.513539e-03 4.106348e-03 4.613064e-03 5.035568e-03 5.376499e-03 5.639213e-03 5.827271e-03 5.945434e-03 5.998071e-03 5.991091e-03 5.929491e-03 5.819919e-03 5.667720e-03 5.479766e-03 5.261391e-03 5.019151e-03 4.757997e-03 4.483709e-03 4.200566e-03 3.913277e-03 3.625307e-03 3.340203e-03 3.060621e-03 2.789024e-03 2.527375e-03 2.277210e-03 2.039945e-03 1.816363e-03 1.607449e-03 1.413366e-03 1.234741e-03 1.071209e-03 9.230762e-04 7.895293e-04 6.705838e-04 5.650659e-04 4.727541e-04 3.922203e-04 3.230834e-04 2.637851e-04 2.138751e-04 1.717872e-04 1.370868e-04 1.083024e-04 8.507842e-05 6.610828e-05 5.115026e-05 3.909646e-05 2.982615e-05 2.243382e-05 1.690609e-05 1.252248e-05 9.352089e-06 6.831141e-06 5.083304e-06 3.670499e-06 2.745718e-06 1.967987e-06 1.499942e-06 1.074039e-06 8.490375e-07 6.125607e-07 5.114135e-07 3.749268e-07 3.340094e-07 2.500165e-07 2.368199e-07 1.808545e-07 1.795001e-07 1.392175e-07 1.423218e-07 1.115211e-07 1.158496e-07 9.134627e-08 9.559849e-08 7.565803e-08 7.938910e-08 6.297391e-08 6.609401e-08 5.250976e-08 5.506094e-08 4.379767e-08 4.586161e-08 3.651882e-08 3.817982e-08 3.043267e-08 3.176592e-08 2.534517e-08 2.641434e-08 2.109579e-08 2.195283e-08 1.754989e-08 1.823636e-08 1.459311e-08 1.514262e-08 1.212919e-08 1.256912e-08 1.007742e-08 1.042950e-08 8.370050e-09 8.651868e-09 6.949905e-09 7.175408e-09 5.769298e-09 5.949508e-09 4.788384e-09 4.932400e-09 3.973035e-09 4.088080e-09 3.296044e-09 3.387972e-09 2.734102e-09 2.807197e-09 2.267284e-09 2.325813e-09 1.880247e-09 1.926866e-09 1.558904e-09 1.595743e-09 1.292082e-09 1.321598e-09 1.070867e-09 1.094358e-09 8.874774e-10 9.060904e-10 7.355049e-10 7.502465e-10 6.092491e-10 6.210325e-10 5.047520e-10 5.139319e-10 4.179091e-10 4.249634e-10 3.455815e-10 3.511097e-10 2.855666e-10 2.897243e-10 2.355142e-10 2.389150e-10 1.941576e-10 1.967031e-10 1.598141e-10 1.616383e-10 1.310076e-10 1.321691e-10 1.064794e-10 1.072123e-10 8.583777e-11 8.617261e-11 6.792759e-11 6.790781e-11 5.283335e-11 5.229666e-11 3.937443e-11 3.836392e-11 2.709702e-11 2.578879e-11 1.585434e-11 1.407532e-11 5.199426e-12 2.754389e-12 -5.619327e-12 -8.552329e-12 -1.655727e-11 -2.013745e-11 -2.810090e-11 -3.261530e-11 -4.074370e-11 -4.625298e-11 -5.513457e-11 -6.153661e-11 -7.139366e-11 -7.934578e-11 -9.045367e-11 -1.002035e-10 -1.130572e-10 -1.248792e-10 -1.399881e-10 -1.545294e-10 -1.722948e-10 -1.897378e-10 -2.111232e-10 -2.324890e-10 -2.580955e-10 -2.843496e-10 -3.152989e-10 -3.469486e-10 -3.844366e-10 -4.232153e-10 -4.686125e-10 -5.156484e-10 -5.707776e-10 -6.276270e-10 -6.946844e-10 -7.640531e-10 -8.453949e-10 -9.302307e-10 -1.028900e-09 -1.131856e-09 -1.251905e-09 -1.377278e-09 -1.523119e-09 -1.675165e-09 -1.852798e-09 -2.037672e-09 -2.253367e-09 -2.478537e-09 -2.740827e-09 -3.015039e-09 -3.334370e-09 -3.668116e-09 -4.056695e-09 -4.462657e-09 -4.935439e-09 -5.429495e-09 -6.004675e-09 -6.606056e-09 -7.306410e-09 -8.038429e-09 -8.891392e-09 -9.782896e-09 -1.082155e-08 -1.190741e-08 -1.317301e-08 -1.449620e-08 -1.603840e-08 -1.765126e-08 -1.953189e-08 -2.149870e-08 -2.379287e-08 -2.619301e-08 -2.899406e-08 -3.192499e-08 -3.534788e-08 -3.892980e-08 -4.311609e-08 -4.749866e-08 -5.262516e-08 -5.799376e-08 -6.428122e-08 -7.086782e-08 -7.859280e-08 -8.668863e-08 -9.620036e-08 -1.061746e-07 -1.179176e-07 -1.302396e-07 -1.447837e-07 -1.600571e-07 -1.781398e-07 -1.971485e-07 -2.197365e-07 -2.435109e-07 -2.718864e-07 -3.017999e-07 -3.376894e-07 -3.756012e-07 -4.213686e-07 -4.698409e-07 -5.287838e-07 -5.914207e-07 -6.682382e-07 -7.502270e-07 -8.517761e-07 -9.607777e-07 -1.097332e-06 -1.244995e-06 -1.432414e-06 -1.637041e-06 -1.900647e-06 -2.192084e-06 -2.573880e-06 -3.002905e-06 -3.575705e-06 -4.233024e-06 -5.129651e-06 -6.186755e-06 -7.664484e-06 -9.467928e-06 -1.206196e-05 -1.536955e-05 -2.029308e-05 -2.692357e-05 -3.722841e-05 -5.203857e-05 -7.644682e-05 -1.139140e-04 -1.817457e-04 -2.879724e-04 -5.232048e-04 -8.133378e-04 -1.931552e-03 -2.912391e-03 1.473842e-02 -8.189578e-02 
-5.828114e-01 -3.687639e-03 -2.767367e-01 -2.480442e-01 -2.143288e-01 -2.389308e-01 -2.614355e-01 -2.830132e-01 -3.109227e-01 -3.405851e-01 -3.596014e-01 -3.570120e-01 -3.307590e-01 -2.879176e-01 -2.402991e-01 -1.987097e-01 -1.692825e-01 -1.528053e-01 -1.462411e-01 -1.450840e-01 -1.452211e-01 -1.439546e-01 -1.400762e-01 -1.335444e-01 -1.249291e-01 -1.150597e-01 -1.047346e-01 -9.468135e-02 -8.548184e-02 -7.762583e-02 -7.144929e-02 -6.716465e-02 -6.479873e-02 -6.423052e-02 -6.518203e-02 -6.728292e-02 -7.011581e-02 -7.326885e-02 -7.639890e-02 -7.922613e-02 -8.159388e-02 -8.339627e-02 -8.464268e-02 -8.534177e-02 -8.558511e-02 -8.541795e-02 -8.494196e-02 -8.419391e-02 -8.325263e-02 -8.213685e-02 -8.089803e-02 -7.954304e-02 -7.810112e-02 -7.657398e-02 -7.497355e-02 -7.329955e-02 -7.155014e-02 -6.972472e-02 -6.781138e-02 -6.581164e-02 -6.370783e-02 -6.150692e-02 -5.918983e-02 -5.677181e-02 -5.423582e-02 -5.160655e-02 -4.887085e-02 -4.606183e-02 -4.317063e-02 -4.023588e-02 -3.725247e-02 -3.426068e-02 -3.125815e-02 -2.828317e-02 -2.533523e-02 -2.244790e-02 -1.962205e-02 -1.688518e-02 -1.423932e-02 -1.170570e-02 -9.287222e-03 -6.999327e-03 -4.845183e-03 -2.835059e-03 -9.714965e-04 7.397254e-04 2.297580e-03 3.700050e-03 4.948213e-03 6.043046e-03 6.987950e-03 7.786198e-03 8.443459e-03 8.964771e-03 9.357847e-03 9.629127e-03 9.788029e-03 9.842110e-03 9.802019e-03 9.676105e-03 9.475641e-03 9.209328e-03 8.888351e-03 8.521225e-03 8.118321e-03 7.687436e-03 7.237527e-03 6.775267e-03 6.307853e-03 5.840655e-03 5.379041e-03 4.927128e-03 4.488615e-03 4.066562e-03 3.663270e-03 3.280961e-03 2.920802e-03 2.584351e-03 2.271836e-03 1.984242e-03 1.720992e-03 1.482545e-03 1.267624e-03 1.076213e-03 9.064637e-04 7.579683e-04 6.284773e-04 5.173173e-04 4.220338e-04 3.418380e-04 2.742656e-04 2.185525e-04 1.723884e-04 1.351387e-04 1.047574e-04 8.079743e-05 6.153041e-05 4.670852e-05 3.492574e-05 2.611203e-05 1.915477e-05 1.412170e-05 1.014762e-05 7.393008e-06 5.190033e-06 3.751078e-06 2.559836e-06 1.848622e-06 1.214869e-06 8.887180e-07 5.523660e-07 4.203851e-07 2.385212e-07 1.990302e-07 9.606412e-08 9.732513e-08 3.461022e-08 5.156381e-08 9.876387e-09 3.107818e-08 1.012827e-09 2.165045e-08 -1.404567e-09 1.692924e-08 -1.449984e-09 1.418044e-08 -7.907783e-10 1.227054e-08 -5.843936e-11 1.074627e-08 5.427746e-10 9.434077e-09 9.724957e-10 8.268507e-09 1.247213e-09 7.225016e-09 1.398820e-09 6.291655e-09 1.458911e-09 5.461011e-09 1.453144e-09 4.725360e-09 1.403005e-09 4.077350e-09 1.323986e-09 3.509046e-09 1.228034e-09 3.013153e-09 1.124005e-09 2.581756e-09 1.017422e-09 2.208240e-09 9.130062e-10 1.885211e-09 8.134479e-10 1.607308e-09 7.198855e-10 1.367897e-09 6.337037e-10 1.162822e-09 5.552491e-10 9.870636e-10 4.845187e-10 8.370495e-10 4.214325e-10 7.091973e-10 3.652672e-10 6.000284e-10 3.154761e-10 5.071346e-10 2.720194e-10 4.283747e-10 2.338845e-10 3.613854e-10 2.004908e-10 3.047219e-10 1.716710e-10 2.566053e-10 1.466259e-10 2.157030e-10 1.246467e-10 1.806998e-10 1.053094e-10 1.511555e-10 8.855701e-11 1.256193e-10 7.397662e-11 1.041734e-10 6.135181e-11 8.613087e-11 5.064695e-11 7.064157e-11 4.068852e-11 5.648317e-11 3.152968e-11 4.405892e-11 2.299790e-11 3.278521e-11 1.491755e-11 2.254896e-11 7.206798e-12 1.276076e-11 -5.910531e-13 3.449152e-12 -8.337272e-12 -6.027416e-12 -1.678041e-11 -1.606561e-11 -2.634701e-11 -2.681976e-11 -3.682198e-11 -3.877651e-11 -4.894884e-11 -5.211486e-11 -6.280114e-11 -6.788287e-11 -7.931880e-11 -8.604132e-11 -9.870396e-11 -1.073848e-10 -1.220334e-10 -1.330435e-10 -1.498624e-10 -1.636397e-10 -1.836245e-10 -2.006788e-10 -2.243077e-10 -2.452863e-10 -2.735646e-10 -2.992752e-10 -3.334967e-10 -3.649462e-10 -4.063570e-10 -4.448276e-10 -4.949738e-10 -5.418720e-10 -6.024448e-10 -6.594803e-10 -7.331967e-10 -8.027204e-10 -8.921872e-10 -9.764540e-10 -1.085121e-09 -1.187981e-09 -1.320237e-09 -1.445477e-09 -1.606036e-09 -1.758273e-09 -1.953752e-09 -2.138993e-09 -2.376463e-09 -2.601567e-09 -2.890378e-09 -3.164281e-09 -3.515691e-09 -3.848892e-09 -4.276380e-09 -4.682112e-09 -5.202110e-09 -5.695873e-09 -6.328592e-09 -6.929542e-09 -7.699564e-09 -8.430748e-09 -9.367799e-09 -1.025782e-08 -1.139853e-08 -1.248217e-08 -1.387107e-08 -1.519090e-08 -1.688238e-08 -1.849033e-08 -2.055132e-08 -2.251080e-08 -2.502244e-08 -2.741143e-08 -3.047396e-08 -3.338800e-08 -3.712421e-08 -4.068120e-08 -4.524305e-08 -4.958799e-08 -5.516175e-08 -6.047444e-08 -6.729154e-08 -7.379479e-08 -8.214312e-08 -9.011461e-08 -1.003533e-07 -1.101411e-07 -1.227203e-07 -1.347626e-07 -1.502516e-07 -1.651046e-07 -1.842270e-07 -2.026013e-07 -2.262852e-07 -2.490981e-07 -2.785456e-07 -3.069936e-07 -3.437801e-07 -3.794434e-07 -4.256603e-07 -4.706561e-07 -5.291219e-07 -5.863317e-07 -6.609105e-07 -7.343287e-07 -8.304209e-07 -9.256980e-07 -1.051017e-06 -1.176329e-06 -1.342165e-06 -1.509651e-06 -1.732988e-06 -1.961180e-06 -2.268370e-06 -2.586476e-06 -3.019852e-06 -3.475569e-06 -4.105877e-06 -4.780269e-06 -5.731188e-06 -6.768422e-06 -8.267625e-06 -9.937703e-06 -1.242988e-05 -1.526919e-05 -1.968340e-05 -2.483114e-05 -3.325800e-05 -4.331815e-05 -6.083356e-05 -8.222200e-05 -1.219563e-04 -1.714791e-04 -2.678813e-04 -3.896101e-04 -6.208223e-04 -9.028643e-04 -1.315595e-03 -2.326853e-03 1.596831e-02 -4.871549e-01 
-1.497887e-02 -1.428558e-04 9.689586e-02 1.163788e-01 -7.751629e-04 -6.315885e-02 -1.075921e-01 -1.521187e-01 -2.031259e-01 -2.540075e-01 -2.915389e-01 -3.048427e-01 -2.920809e-01 -2.604926e-01 -2.220254e-01 -1.876532e-01 -1.637776e-01 -1.514959e-01 -1.481092e-01 -1.493945e-01 -1.514785e-01 -1.518168e-01 -1.493153e-01 -1.439863e-01 -1.364421e-01 -1.275220e-01 -1.180383e-01 -1.087147e-01 -1.001371e-01 -9.278930e-02 -8.700998e-02 -8.301106e-02 -8.082738e-02 -8.034770e-02 -8.130949e-02 -8.336071e-02 -8.610315e-02 -8.914459e-02 -9.215841e-02 -9.487867e-02 -9.715894e-02 -9.889886e-02 -1.001122e-01 -1.008068e-01 -1.010750e-01 -1.009583e-01 -1.005577e-01 -9.990553e-02 -9.907867e-02 -9.809241e-02 -9.699421e-02 -9.578866e-02 -9.449864e-02 -9.312416e-02 -9.166849e-02 -9.012940e-02 -8.849431e-02 -8.675975e-02 -8.490149e-02 -8.291707e-02 -8.077594e-02 -7.848065e-02 -7.600008e-02 -7.334606e-02 -7.049200e-02 -6.746178e-02 -6.423660e-02 -6.085251e-02 -5.729967e-02 -5.362369e-02 -4.982298e-02 -4.594830e-02 -4.200442e-02 -3.804225e-02 -3.407078e-02 -3.013695e-02 -2.625211e-02 -2.245670e-02 -1.876312e-02 -1.520430e-02 -1.179257e-02 -8.553204e-03 -5.497055e-03 -2.641958e-03 4.232795e-06 2.430742e-03 4.633910e-03 6.609281e-03 8.357891e-03 9.880528e-03 1.118273e-02 1.226937e-02 1.314987e-02 1.383216e-02 1.432878e-02 1.464991e-02 1.481039e-02 1.482197e-02 1.470090e-02 1.445989e-02 1.411561e-02 1.368099e-02 1.317215e-02 1.260148e-02 1.198359e-02 1.132963e-02 1.065197e-02 9.960053e-03 9.263665e-03 8.570332e-03 7.887276e-03 7.220247e-03 6.574177e-03 5.953344e-03 5.360791e-03 4.799641e-03 4.271405e-03 3.778275e-03 3.320487e-03 2.899409e-03 2.514163e-03 2.165345e-03 1.851097e-03 1.571307e-03 1.323313e-03 1.106417e-03 9.173890e-04 7.551404e-04 6.161554e-04 4.991748e-04 4.006799e-04 3.194508e-04 2.522001e-04 1.979033e-04 1.536614e-04 1.187308e-04 9.067501e-05 6.904923e-05 5.188308e-05 3.899918e-05 2.884904e-05 2.146396e-05 1.564909e-05 1.157842e-05 8.337240e-06 6.182320e-06 4.412340e-06 3.319781e-06 2.362078e-06 1.834688e-06 1.312188e-06 1.072943e-06 7.784547e-07 6.795870e-07 5.034076e-07 4.694398e-07 3.553060e-07 3.493538e-07 2.690784e-07 2.739573e-07 2.135440e-07 2.216865e-07 1.740796e-07 1.824040e-07 1.438628e-07 1.512773e-07 1.196338e-07 1.258752e-07 9.972465e-08 1.048449e-07 8.317719e-08 8.732701e-08 6.936100e-08 7.270535e-08 5.780998e-08 6.049791e-08 4.815449e-08 5.031206e-08 4.008876e-08 4.181948e-08 3.335627e-08 3.474406e-08 2.774132e-08 2.885407e-08 2.306225e-08 2.395387e-08 1.916493e-08 1.987935e-08 1.592108e-08 1.649329e-08 1.322250e-08 1.368092e-08 1.097851e-08 1.134547e-08 9.113288e-09 9.406859e-09 7.563465e-09 7.798214e-09 6.275851e-09 6.463522e-09 5.206446e-09 5.356622e-09 4.318908e-09 4.438714e-09 3.582100e-09 3.677537e-09 2.970419e-09 3.046647e-09 2.462823e-09 2.523575e-09 2.041918e-09 2.090010e-09 1.692427e-09 1.730724e-09 1.402535e-09 1.433154e-09 1.162323e-09 1.186294e-09 9.627213e-10 9.816710e-10 7.969382e-10 8.117025e-10 6.591876e-10 6.706890e-10 5.445520e-10 5.535160e-10 4.494315e-10 4.564585e-10 3.704181e-10 3.757981e-10 3.046731e-10 3.086926e-10 2.496659e-10 2.522681e-10 2.029931e-10 2.043896e-10 1.630991e-10 1.636512e-10 1.293303e-10 1.290820e-10 9.994038e-11 9.905309e-11 7.406242e-11 7.235924e-11 5.093437e-11 4.836250e-11 2.941724e-11 2.577091e-11 8.591824e-12 4.120378e-12 -1.188720e-11 -1.766856e-11 -3.334648e-11 -4.034105e-11 -5.582870e-11 -6.455278e-11 -8.064338e-11 -9.108963e-11 -1.082560e-10 -1.211635e-10 -1.402961e-10 -1.561192e-10 -1.776712e-10 -1.969876e-10 -2.220846e-10 -2.454828e-10 -2.747239e-10 -3.030846e-10 -3.379868e-10 -3.725153e-10 -4.143567e-10 -4.565499e-10 -5.067138e-10 -5.579906e-10 -6.186895e-10 -6.810889e-10 -7.545590e-10 -8.302945e-10 -9.191314e-10 -1.011237e-09 -1.119068e-09 -1.231248e-09 -1.361959e-09 -1.498659e-09 -1.657811e-09 -1.823762e-09 -2.017202e-09 -2.219196e-09 -2.454284e-09 -2.699787e-09 -2.985686e-09 -3.284340e-09 -3.631516e-09 -3.994903e-09 -4.417490e-09 -4.859511e-09 -5.373815e-09 -5.911601e-09 -6.537228e-09 -7.191694e-09 -7.952844e-09 -8.749221e-09 -9.675377e-09 -1.064443e-08 -1.177151e-08 -1.295099e-08 -1.432303e-08 -1.575894e-08 -1.742916e-08 -1.917758e-08 -2.121161e-08 -2.334160e-08 -2.581957e-08 -2.841445e-08 -3.143405e-08 -3.459651e-08 -3.827776e-08 -4.213383e-08 -4.662434e-08 -5.132905e-08 -5.681009e-08 -6.255384e-08 -6.924865e-08 -7.626653e-08 -8.445234e-08 -9.303548e-08 -1.030555e-07 -1.135654e-07 -1.258477e-07 -1.387358e-07 -1.538162e-07 -1.696490e-07 -1.882030e-07 -2.076945e-07 -2.305785e-07 -2.546369e-07 -2.829455e-07 -3.127338e-07 -3.478798e-07 -3.849039e-07 -4.287285e-07 -4.749592e-07 -5.298937e-07 -5.879439e-07 -6.572412e-07 -7.306267e-07 -8.187093e-07 -9.122414e-07 -1.025228e-06 -1.145616e-06 -1.292141e-06 -1.448941e-06 -1.641457e-06 -1.848608e-06 -2.105516e-06 -2.383890e-06 -2.733125e-06 -3.114902e-06 -3.600149e-06 -4.136581e-06 -4.828455e-06 -5.604133e-06 -6.621042e-06 -7.781202e-06 -9.329915e-06 -1.113487e-05 -1.359292e-05 -1.653108e-05 -2.062182e-05 -2.565288e-05 -3.283283e-05 -4.191920e-05 -5.526044e-05 -7.248220e-05 -9.866355e-05 -1.320418e-04 -1.852810e-04 -2.459769e-04 -3.508359e-04 -4.246075e-04 -5.650631e-04 -8.965978e-04 6.415617e-03 -1.195859e-02 