# vtk DataFile Version 2.0
Comment goes here
ASCII

DATASET STRUCTURED_POINTS
FIELD FieldData 1
TIME 1 1 double
1.85000000
DIMENSIONS    384   64   1

ORIGIN    0.000   0.000   0.000
SPACING   0.078125 0.078125   1.000

POINT_DATA   24576
SCALARS Omega double
LOOKUP_TABLE default

2.201780e-04 -3.634394e-03 -2.451414e-02 -3.582404e-02 -3.413648e-02 -2.480094e-02 -1.560285e-02 -1.279588e-02 -1.833737e-02 -2.965703e-02 -4.216338e-02 -5.165652e-02 -5.596874e-02 -5.510571e-02 -5.078590e-02 -4.550792e-02 -4.175084e-02 -4.124938e-02 -4.461611e-02 -5.123351e-02 -5.951964e-02 -6.741491e-02 -7.298325e-02 -7.492367e-02 -7.284147e-02 -6.725409e-02 -5.931564e-02 -5.045833e-02 -4.198027e-02 -3.480606e-02 -2.933929e-02 -2.552984e-02 -2.298194e-02 -2.115343e-02 -1.950177e-02 -1.760723e-02 -1.523335e-02 -1.232137e-02 -8.985513e-03 -5.430461e-03 -1.943083e-03 1.209323e-03 3.758689e-03 5.527683e-03 6.380671e-03 6.293864e-03 5.290479e-03 3.486335e-03 1.023849e-03 -1.903831e-03 -5.107558e-03 -8.391182e-03 -1.158783e-02 -1.455271e-02 -1.718114e-02 -1.939909e-02 -2.116948e-02 -2.247870e-02 -2.333955e-02 -2.377510e-02 -2.382388e-02 -2.352359e-02 -2.291963e-02 -2.205121e-02 -2.096032e-02 -1.968335e-02 -1.825532e-02 -1.671050e-02 -1.507684e-02 -1.338872e-02 -1.166789e-02 -9.950552e-03 -8.252828e-03 -6.612825e-03 -5.040857e-03 -3.575142e-03 -2.219110e-03 -1.007755e-03 6.388395e-05 9.678903e-04 1.718642e-03 2.298288e-03 2.730179e-03 3.007514e-03 3.160216e-03 3.191114e-03 3.132660e-03 2.993993e-03 2.805418e-03 2.578283e-03 2.336714e-03 2.090671e-03 1.855777e-03 1.638452e-03 1.445641e-03 1.279810e-03 1.140891e-03 1.028344e-03 9.377514e-04 8.671171e-04 8.103639e-04 7.654571e-04 7.266801e-04 6.928252e-04 6.596245e-04 6.269410e-04 5.922200e-04 5.561889e-04 5.177371e-04 4.780463e-04 4.369573e-04 3.956988e-04 3.545778e-04 3.145866e-04 2.761435e-04 2.398779e-04 2.061235e-04 1.751495e-04 1.471380e-04 1.220749e-04 1.000003e-04 8.071661e-05 6.416201e-05 5.004515e-05 3.824516e-05 2.844230e-05 2.049106e-05 1.408489e-05 9.077473e-06 5.198820e-06 2.316987e-06 2.093148e-07 -1.233207e-06 -2.183482e-06 -2.724272e-06 -2.981891e-06 -3.013621e-06 -2.905840e-06 -2.693957e-06 -2.432746e-06 -2.140810e-06 -1.849812e-06 -1.566831e-06 -1.307966e-06 -1.073381e-06 -8.696038e-07 -6.933759e-07 -5.459583e-07 -4.229797e-07 -3.232347e-07 -2.425483e-07 -1.788800e-07 -1.288390e-07 -9.038052e-08 -6.103711e-08 -3.909712e-08 -2.292365e-08 -1.121246e-08 -2.974055e-09 2.734749e-09 6.445252e-09 8.822129e-09 1.009823e-08 1.074077e-08 1.080261e-08 1.061734e-08 1.013948e-08 9.614241e-09 8.948113e-09 8.328421e-09 7.644685e-09 7.044212e-09 6.416205e-09 5.880273e-09 5.333369e-09 4.873864e-09 4.410433e-09 4.024547e-09 3.637341e-09 3.317226e-09 2.996225e-09 2.731863e-09 2.466861e-09 2.248902e-09 2.030304e-09 1.851219e-09 1.671239e-09 1.524072e-09 1.376087e-09 1.254852e-09 1.133037e-09 1.033340e-09 9.330242e-10 8.509789e-10 7.683616e-10 7.010522e-10 6.329836e-10 5.773229e-10 5.211748e-10 4.755077e-10 4.294504e-10 3.915251e-10 3.534809e-10 3.224885e-10 2.912424e-10 2.656725e-10 2.399261e-10 2.186997e-10 1.972502e-10 1.798235e-10 1.623748e-10 1.480933e-10 1.336016e-10 1.219325e-10 1.099054e-10 1.001674e-10 9.029630e-11 8.237917e-11 7.439125e-11 6.792433e-11 6.138920e-11 5.585804e-11 5.040004e-11 4.595394e-11 4.136549e-11 3.763188e-11 3.403766e-11 3.082802e-11 2.789028e-11 2.546485e-11 2.297599e-11 2.100589e-11 1.882920e-11 1.734914e-11 1.562839e-11 1.429091e-11 1.280623e-11 1.166143e-11 1.052918e-11 9.779318e-12 9.016195e-12 8.260059e-12 7.593333e-12 7.192469e-12 6.621429e-12 6.045298e-12 5.544839e-12 5.157238e-12 4.730201e-12 4.193623e-12 3.866655e-12 3.482133e-12 2.987714e-12 2.748083e-12 2.491163e-12 2.313172e-12 1.912071e-12 1.529502e-12 1.484857e-12 1.472955e-12 1.261569e-12 1.011398e-12 9.508542e-13 7.307340e-13 4.950114e-13 4.167333e-13 3.407941e-13 3.032093e-13 1.945111e-13 4.148681e-13 2.868890e-13 4.161264e-13 5.322557e-13 3.156290e-13 4.250896e-13 4.058531e-13 3.826421e-13 3.352726e-13 4.414839e-13 4.016195e-13 3.910502e-13 7.532197e-13 5.940877e-13 7.561951e-13 4.486781e-13 5.346834e-13 3.237854e-13 3.637350e-13 1.618557e-13 4.659143e-13 1.626033e-13 6.087168e-14 -1.267172e-13 -1.303772e-14 -4.348633e-13 -4.452512e-13 -6.158111e-13 -5.868861e-13 -9.361697e-13 -1.032256e-12 -1.548287e-12 -1.360401e-12 -1.880155e-12 -1.626240e-12 -2.193401e-12 -1.967478e-12 -2.698434e-12 -2.106744e-12 -3.052196e-12 -2.770451e-12 -3.871747e-12 -3.427258e-12 -4.845221e-12 -4.248572e-12 -5.997336e-12 -5.092785e-12 -7.279214e-12 -6.164284e-12 -8.930175e-12 -7.492199e-12 -1.069255e-11 -8.963245e-12 -1.315368e-11 -1.085851e-11 -1.641829e-11 -1.340627e-11 -2.026104e-11 -1.629001e-11 -2.511012e-11 -2.009825e-11 -3.167178e-11 -2.472209e-11 -3.972452e-11 -3.041765e-11 -5.034315e-11 -3.773414e-11 -6.456384e-11 -4.714404e-11 -8.316784e-11 -5.875809e-11 -1.077505e-10 -7.303669e-11 -1.406583e-10 -9.127703e-11 -1.854443e-10 -1.147365e-10 -2.471881e-10 -1.442312e-10 -3.329321e-10 -1.818901e-10 -4.533618e-10 -2.300127e-10 -6.252691e-10 -2.915561e-10 -8.734955e-10 -3.689860e-10 -1.236459e-09 -4.657413e-10 -1.775812e-09 -5.805659e-10 -2.589661e-09 -7.052580e-10 -3.839616e-09 -8.063797e-10 -5.802015e-09 -7.897410e-10 -8.967290e-09 -3.960205e-10 -1.425694e-08 1.097952e-09 -2.354168e-08 5.836533e-09 -4.103201e-08 2.084857e-08 -7.761106e-08 7.226574e-08 -1.660959e-07 2.704999e-07 -4.157320e-07 1.128973e-06 -1.145455e-06 6.230683e-06 -2.592319e-05 4.476446e-04 
-3.093090e+00 -1.933727e+00 -2.765071e+00 -2.279339e+00 -1.263842e+00 -7.452381e-01 -4.689936e-01 -3.197169e-01 -2.420008e-01 -2.039537e-01 -1.853718e-01 -1.736087e-01 -1.620747e-01 -1.486185e-01 -1.339153e-01 -1.199703e-01 -1.089466e-01 -1.023583e-01 -1.006033e-01 -1.028924e-01 -1.074801e-01 -1.121918e-01 -1.149913e-01 -1.145205e-01 -1.103342e-01 -1.029252e-01 -9.341517e-02 -8.321466e-02 -7.358600e-02 -6.542562e-02 -5.909942e-02 -5.453179e-02 -5.129881e-02 -4.884462e-02 -4.661240e-02 -4.417912e-02 -4.130301e-02 -3.792515e-02 -3.415667e-02 -3.019968e-02 -2.633698e-02 -2.282977e-02 -1.994143e-02 -1.784179e-02 -1.666309e-02 -1.642325e-02 -1.709867e-02 -1.857158e-02 -2.070243e-02 -2.330042e-02 -2.618109e-02 -2.915340e-02 -3.205472e-02 -3.474574e-02 -3.712372e-02 -3.911869e-02 -4.069251e-02 -4.183355e-02 -4.255107e-02 -4.286823e-02 -4.281850e-02 -4.243830e-02 -4.176717e-02 -4.084208e-02 -3.969876e-02 -3.837043e-02 -3.688550e-02 -3.527418e-02 -3.355721e-02 -3.176411e-02 -2.990888e-02 -2.802230e-02 -2.611266e-02 -2.421289e-02 -2.232624e-02 -2.048706e-02 -1.869365e-02 -1.697944e-02 -1.533729e-02 -1.379656e-02 -1.234411e-02 -1.100236e-02 -9.752487e-03 -8.608545e-03 -7.547697e-03 -6.576203e-03 -5.670213e-03 -4.830507e-03 -4.035801e-03 -3.284547e-03 -2.561115e-03 -1.864472e-03 -1.186268e-03 -5.276086e-04 1.128324e-04 7.317001e-04 1.325163e-03 1.888669e-03 2.415884e-03 2.902551e-03 3.342363e-03 3.732602e-03 4.068760e-03 4.350288e-03 4.575278e-03 4.745346e-03 4.861171e-03 4.926081e-03 4.942811e-03 4.915751e-03 4.848947e-03 4.747205e-03 4.615143e-03 4.457461e-03 4.278754e-03 4.083258e-03 3.875137e-03 3.657970e-03 3.435264e-03 3.209884e-03 2.984602e-03 2.761604e-03 2.542952e-03 2.330245e-03 2.124915e-03 1.928082e-03 1.740648e-03 1.563354e-03 1.396665e-03 1.241015e-03 1.096507e-03 9.633219e-04 8.412587e-04 7.302778e-04 6.299272e-04 5.399828e-04 4.597935e-04 3.889924e-04 3.267907e-04 2.727288e-04 2.259465e-04 1.859460e-04 1.518606e-04 1.232051e-04 9.916153e-05 7.929747e-05 6.288297e-05 4.956346e-05 3.871876e-05 3.008150e-05 2.314663e-05 1.773065e-05 1.343659e-05 1.015306e-05 7.576654e-06 5.652364e-06 4.152811e-06 3.063252e-06 2.215109e-06 1.619703e-06 1.152235e-06 8.389142e-07 5.866863e-07 4.286311e-07 2.943968e-07 2.186865e-07 1.473608e-07 1.136443e-07 7.510019e-08 6.188079e-08 4.017057e-08 3.642849e-08 2.335415e-08 2.366377e-08 1.510960e-08 1.691834e-08 1.084830e-08 1.302215e-08 8.428452e-09 1.050540e-08 6.876708e-09 8.697681e-09 5.757953e-09 7.293662e-09 4.879595e-09 6.150507e-09 4.155393e-09 5.197101e-09 3.543318e-09 4.392859e-09 3.020469e-09 3.711516e-09 2.572247e-09 3.133575e-09 2.188268e-09 2.643791e-09 1.858976e-09 2.228383e-09 1.577204e-09 1.876760e-09 1.336888e-09 1.579584e-09 1.131691e-09 1.328350e-09 9.571844e-10 1.116426e-09 8.088180e-10 9.378223e-10 6.826889e-10 7.870161e-10 5.758647e-10 6.601375e-10 4.851666e-10 5.535322e-10 4.087145e-10 4.639415e-10 3.439000e-10 3.884775e-10 2.891055e-10 3.252933e-10 2.429105e-10 2.722778e-10 2.041272e-10 2.276735e-10 1.712739e-10 1.902116e-10 1.432616e-10 1.586049e-10 1.200502e-10 1.323854e-10 1.005076e-10 1.104243e-10 8.380715e-11 9.173355e-11 6.973065e-11 7.618119e-11 5.781923e-11 6.295130e-11 4.782018e-11 5.198822e-11 3.943814e-11 4.264891e-11 3.221222e-11 3.468704e-11 2.559446e-11 2.751731e-11 2.000036e-11 2.119182e-11 1.476745e-11 1.543086e-11 9.930072e-12 1.027421e-11 5.322320e-12 5.296386e-12 7.465436e-13 1.763330e-13 -3.969447e-12 -4.796696e-12 -8.794269e-12 -9.847530e-12 -1.389709e-11 -1.553128e-11 -1.966007e-11 -2.195559e-11 -2.632721e-11 -2.900154e-11 -3.389680e-11 -3.743534e-11 -4.275430e-11 -4.696459e-11 -5.311033e-11 -5.826428e-11 -6.529238e-11 -7.189132e-11 -8.044744e-11 -8.823219e-11 -9.861140e-11 -1.080158e-10 -1.203104e-10 -1.320127e-10 -1.470278e-10 -1.610707e-10 -1.790556e-10 -1.964627e-10 -2.183155e-10 -2.394644e-10 -2.659957e-10 -2.916627e-10 -3.237403e-10 -3.550056e-10 -3.940564e-10 -4.322362e-10 -4.797941e-10 -5.261622e-10 -5.840065e-10 -6.404610e-10 -7.106833e-10 -7.794137e-10 -8.649195e-10 -9.485575e-10 -1.052757e-09 -1.154093e-09 -1.280704e-09 -1.404404e-09 -1.558348e-09 -1.708838e-09 -1.896356e-09 -2.079524e-09 -2.307750e-09 -2.530733e-09 -2.809056e-09 -3.080785e-09 -3.419658e-09 -3.750982e-09 -4.164246e-09 -4.568033e-09 -5.071789e-09 -5.564628e-09 -6.179527e-09 -6.781047e-09 -7.531929e-09 -8.267056e-09 -9.184790e-09 -1.008367e-08 -1.120687e-08 -1.230758e-08 -1.368378e-08 -1.503348e-08 -1.672252e-08 -1.838062e-08 -2.045771e-08 -2.249870e-08 -2.505841e-08 -2.757764e-08 -3.074176e-08 -3.386095e-08 -3.778535e-08 -4.166203e-08 -4.654993e-08 -5.138994e-08 -5.750862e-08 -6.358528e-08 -7.129178e-08 -7.897232e-08 -8.875021e-08 -9.853694e-08 -1.110542e-07 -1.236466e-07 -1.398437e-07 -1.562370e-07 -1.774694e-07 -1.991145e-07 -2.273856e-07 -2.564520e-07 -2.948100e-07 -3.346417e-07 -3.878804e-07 -4.438078e-07 -5.197546e-07 -6.006040e-07 -7.126101e-07 -8.336542e-07 -1.005694e-06 -1.194750e-06 -1.472627e-06 -1.783538e-06 -2.261706e-06 -2.806698e-06 -3.699774e-06 -4.735318e-06 -6.596138e-06 -8.781174e-06 -1.328307e-05 -1.858313e-05 -3.190328e-05 -4.736382e-05 -9.812389e-05 -1.548494e-04 -4.124037e-04 -6.829260e-04 -2.357849e-03 -6.534795e-03 5.367888e-02 -2.353709e+00 
-2.374153e-02 -6.131990e-03 1.030559e-01 5.309426e-02 -3.191885e-01 -3.879425e-01 -3.590618e-01 -3.136210e-01 -2.789944e-01 -2.583957e-01 -2.460473e-01 -2.353687e-01 -2.223738e-01 -2.062119e-01 -1.882607e-01 -1.709463e-01 -1.566542e-01 -1.470101e-01 -1.424445e-01 -1.421723e-01 -1.444360e-01 -1.470533e-01 -1.479812e-01 -1.458596e-01 -1.402373e-01 -1.315982e-01 -1.210450e-01 -1.099648e-01 -9.958867e-02 -9.078433e-02 -8.388781e-02 -7.880434e-02 -7.509309e-02 -7.219326e-02 -6.954339e-02 -6.672323e-02 -6.349060e-02 -5.978811e-02 -5.572448e-02 -5.149768e-02 -4.738519e-02 -4.363936e-02 -4.051788e-02 -3.818075e-02 -3.675741e-02 -3.625893e-02 -3.666364e-02 -3.785214e-02 -3.969118e-02 -4.199331e-02 -4.458236e-02 -4.727334e-02 -4.991078e-02 -5.236136e-02 -5.452614e-02 -5.633923e-02 -5.776236e-02 -5.878564e-02 -5.941510e-02 -5.967370e-02 -5.958991e-02 -5.919867e-02 -5.853376e-02 -5.762983e-02 -5.651653e-02 -5.522410e-02 -5.377445e-02 -5.219392e-02 -5.049603e-02 -4.870532e-02 -4.682748e-02 -4.488736e-02 -4.288419e-02 -4.084471e-02 -3.876339e-02 -3.666939e-02 -3.455394e-02 -3.244757e-02 -3.033903e-02 -2.825791e-02 -2.619061e-02 -2.416315e-02 -2.215988e-02 -2.020148e-02 -1.827136e-02 -1.638469e-02 -1.452605e-02 -1.270654e-02 -1.091455e-02 -9.159386e-03 -7.435356e-03 -5.752022e-03 -4.110377e-03 -2.521098e-03 -9.907985e-04 4.692868e-04 1.849427e-03 3.139376e-03 4.329310e-03 5.411676e-03 6.379118e-03 7.227921e-03 7.954695e-03 8.559852e-03 9.044311e-03 9.412139e-03 9.668031e-03 9.818785e-03 9.871844e-03 9.835664e-03 9.719277e-03 9.531787e-03 9.282739e-03 8.981072e-03 8.635978e-03 8.255645e-03 7.848312e-03 7.421061e-03 6.980834e-03 6.533462e-03 6.084467e-03 5.638448e-03 5.199556e-03 4.771280e-03 4.356551e-03 3.957916e-03 3.577271e-03 3.216382e-03 2.876280e-03 2.558081e-03 2.262079e-03 1.988831e-03 1.738001e-03 1.509652e-03 1.302916e-03 1.117435e-03 9.519118e-04 8.056586e-04 6.770791e-04 5.652640e-04 4.684578e-04 3.856512e-04 3.150669e-04 2.557079e-04 2.058927e-04 1.647249e-04 1.307031e-04 1.030872e-04 8.060188e-05 6.268563e-05 4.830090e-05 3.705932e-05 2.814671e-05 2.132431e-05 1.597124e-05 1.196609e-05 8.844895e-06 6.570364e-06 4.799651e-06 3.550227e-06 2.569207e-06 1.905635e-06 1.371670e-06 1.031280e-06 7.429655e-07 5.746902e-07 4.179141e-07 3.381046e-07 2.504112e-07 2.144383e-07 1.627103e-07 1.476211e-07 1.147740e-07 1.091923e-07 8.658968e-08 8.508980e-08 6.840325e-08 6.850386e-08 5.554062e-08 5.616246e-08 4.576543e-08 4.647099e-08 3.798289e-08 3.861564e-08 3.162309e-08 3.214172e-08 2.635736e-08 2.676469e-08 2.197185e-08 2.228441e-08 1.831167e-08 1.854785e-08 1.525510e-08 1.543159e-08 1.270348e-08 1.283380e-08 1.057381e-08 1.066908e-08 8.797883e-09 8.866480e-09 7.317565e-09 7.366169e-09 6.084365e-09 6.117827e-09 5.057617e-09 5.079790e-09 4.202926e-09 4.217174e-09 3.491907e-09 3.500114e-09 2.900451e-09 2.904460e-09 2.408703e-09 2.409618e-09 1.999990e-09 1.999014e-09 1.660435e-09 1.657960e-09 1.378060e-09 1.374980e-09 1.143705e-09 1.139939e-09 9.488697e-10 9.450146e-10 7.869462e-10 7.830918e-10 6.525113e-10 6.487691e-10 5.407671e-10 5.370896e-10 4.479805e-10 4.445514e-10 3.709811e-10 3.676570e-10 3.065749e-10 3.035726e-10 2.532243e-10 2.504294e-10 2.084731e-10 2.061859e-10 1.715692e-10 1.693373e-10 1.403781e-10 1.379600e-10 1.137222e-10 1.115789e-10 9.137307e-11 8.904758e-11 7.187317e-11 6.948018e-11 5.487829e-11 5.218226e-11 3.960885e-11 3.684087e-11 2.580970e-11 2.277029e-11 1.288232e-11 9.433935e-12 -3.002043e-14 -4.040975e-12 -1.295846e-11 -1.733452e-11 -2.629615e-11 -3.163437e-11 -4.070297e-11 -4.693081e-11 -5.669116e-11 -6.423459e-11 -7.486173e-11 -8.385079e-11 -9.581374e-11 -1.066243e-10 -1.206861e-10 -1.334866e-10 -1.498644e-10 -1.655731e-10 -1.849612e-10 -2.040601e-10 -2.272503e-10 -2.504117e-10 -2.780384e-10 -3.063273e-10 -3.397757e-10 -3.742648e-10 -4.145551e-10 -4.563164e-10 -5.053347e-10 -5.563049e-10 -6.157343e-10 -6.775795e-10 -7.496831e-10 -8.247987e-10 -9.127194e-10 -1.004172e-09 -1.110878e-09 -1.222291e-09 -1.352189e-09 -1.487490e-09 -1.645478e-09 -1.810218e-09 -2.002184e-09 -2.202515e-09 -2.436239e-09 -2.680118e-09 -2.964240e-09 -3.261028e-09 -3.606964e-09 -3.968361e-09 -4.389466e-09 -4.829344e-09 -5.342639e-09 -5.878508e-09 -6.503662e-09 -7.156897e-09 -7.918907e-09 -8.714967e-09 -9.643855e-09 -1.061489e-08 -1.174852e-08 -1.293353e-08 -1.431765e-08 -1.576471e-08 -1.745603e-08 -1.922468e-08 -2.129376e-08 -2.345787e-08 -2.599232e-08 -2.864350e-08 -3.175265e-08 -3.500567e-08 -3.882668e-08 -4.282586e-08 -4.753231e-08 -5.245993e-08 -5.827288e-08 -6.436175e-08 -7.156421e-08 -7.911322e-08 -8.807331e-08 -9.747132e-08 -1.086709e-07 -1.204292e-07 -1.345082e-07 -1.493082e-07 -1.671304e-07 -1.858951e-07 -2.086429e-07 -2.326462e-07 -2.619720e-07 -2.930050e-07 -3.312648e-07 -3.719071e-07 -4.225400e-07 -4.766016e-07 -5.447612e-07 -6.180338e-07 -7.116719e-07 -8.132512e-07 -9.450512e-07 -1.089758e-06 -1.280724e-06 -1.493746e-06 -1.780200e-06 -2.106463e-06 -2.554457e-06 -3.078749e-06 -3.815731e-06 -4.709062e-06 -5.998962e-06 -7.634531e-06 -1.007260e-05 -1.334438e-05 -1.842017e-05 -2.571047e-05 -3.766176e-05 -5.604366e-05 -8.909757e-05 -1.407607e-04 -2.555200e-04 -3.928812e-04 -8.952850e-04 -2.229903e-03 1.872539e-02 -5.842118e-02 
-4.252502e-01 -2.706492e-03 -2.110339e-01 -2.096786e-01 -1.913835e-01 -2.044866e-01 -2.100601e-01 -2.113025e-01 -2.152499e-01 -2.225602e-01 -2.295968e-01 -2.321523e-01 -2.281491e-01 -2.180225e-01 -2.040552e-01 -1.892783e-01 -1.764976e-01 -1.676312e-01 -1.633171e-01 -1.629365e-01 -1.648580e-01 -1.670143e-01 -1.674436e-01 -1.648563e-01 -1.588337e-01 -1.498819e-01 -1.390925e-01 -1.278421e-01 -1.173309e-01 -1.084108e-01 -1.013938e-01 -9.618290e-02 -9.232935e-02 -8.928408e-02 -8.648774e-02 -8.353451e-02 -8.018363e-02 -7.638504e-02 -7.224298e-02 -6.795312e-02 -6.378402e-02 -5.997943e-02 -5.678839e-02 -5.436151e-02 -5.282416e-02 -5.218203e-02 -5.241588e-02 -5.340722e-02 -5.503059e-02 -5.710497e-02 -5.946400e-02 -6.193163e-02 -6.436045e-02 -6.662530e-02 -6.863122e-02 -7.031763e-02 -7.164605e-02 -7.260873e-02 -7.320854e-02 -7.346821e-02 -7.341169e-02 -7.307220e-02 -7.247875e-02 -7.166342e-02 -7.065126e-02 -6.946936e-02 -6.813493e-02 -6.667034e-02 -6.508346e-02 -6.339351e-02 -6.159870e-02 -5.971700e-02 -5.773822e-02 -5.568135e-02 -5.353073e-02 -5.130840e-02 -4.899660e-02 -4.662105e-02 -4.416436e-02 -4.165465e-02 -3.907601e-02 -3.645664e-02 -3.378248e-02 -3.107974e-02 -2.833697e-02 -2.557758e-02 -2.279417e-02 -2.000814e-02 -1.721797e-02 -1.444465e-02 -1.169385e-02 -8.987385e-03 -6.337826e-03 -3.767719e-03 -1.294287e-03 1.060894e-03 3.279622e-03 5.343838e-03 7.238241e-03 8.950583e-03 1.047133e-02 1.179524e-02 1.291979e-02 1.384657e-02 1.457979e-02 1.512673e-02 1.549696e-02 1.570181e-02 1.575445e-02 1.566847e-02 1.545888e-02 1.514005e-02 1.472724e-02 1.423438e-02 1.367585e-02 1.306432e-02 1.241247e-02 1.173121e-02 1.103112e-02 1.032117e-02 9.609708e-03 8.903833e-03 8.209790e-03 7.532989e-03 6.877830e-03 6.248295e-03 5.647227e-03 5.077419e-03 4.540408e-03 4.037984e-03 3.570567e-03 3.139066e-03 2.742938e-03 2.382305e-03 2.055796e-03 1.762857e-03 1.501449e-03 1.270483e-03 1.067450e-03 8.909016e-04 7.380798e-04 6.073715e-04 4.959857e-04 4.023253e-04 3.237524e-04 2.588275e-04 2.051985e-04 1.616733e-04 1.262576e-04 9.804274e-05 7.540989e-05 5.772555e-05 4.372300e-05 3.300691e-05 2.461451e-05 1.833775e-05 1.346003e-05 9.907997e-06 7.154543e-06 5.214558e-06 3.701204e-06 2.680873e-06 1.867751e-06 1.353302e-06 9.233463e-07 6.770200e-07 4.508107e-07 3.411315e-07 2.206661e-07 1.776433e-07 1.111334e-07 9.891323e-08 5.980304e-08 6.074676e-08 3.575859e-08 4.157410e-08 2.418264e-08 3.118879e-08 1.819807e-08 2.489575e-08 1.470905e-08 2.058426e-08 1.236176e-08 1.731886e-08 1.057794e-08 1.468215e-08 9.113217e-09 1.247928e-08 7.862789e-09 1.061040e-08 6.778183e-09 9.015454e-09 5.833018e-09 7.652282e-09 5.009517e-09 6.487566e-09 4.293766e-09 5.493994e-09 3.673280e-09 4.647709e-09 3.136745e-09 3.927410e-09 2.674225e-09 3.315872e-09 2.276530e-09 2.796790e-09 1.935422e-09 2.357507e-09 1.643152e-09 1.985355e-09 1.393360e-09 1.671044e-09 1.180421e-09 1.405214e-09 9.988039e-10 1.181300e-09 8.445842e-10 9.922140e-10 7.134204e-10 8.329844e-10 6.020409e-10 6.986863e-10 5.073758e-10 5.857709e-10 4.271095e-10 4.905031e-10 3.593782e-10 4.105055e-10 3.017262e-10 3.429201e-10 2.527474e-10 2.862831e-10 2.115762e-10 2.385767e-10 1.763402e-10 1.976961e-10 1.462619e-10 1.636115e-10 1.206509e-10 1.346534e-10 9.911669e-11 1.100243e-10 8.014294e-11 8.845369e-11 6.325488e-11 6.969181e-11 4.836060e-11 5.302176e-11 3.458733e-11 3.767890e-11 2.173894e-11 2.339722e-11 9.223792e-12 9.606360e-12 -3.119934e-12 -3.698849e-12 -1.569038e-11 -1.773657e-11 -2.915357e-11 -3.261308e-11 -4.424165e-11 -4.873678e-11 -6.077829e-11 -6.691661e-11 -7.981278e-11 -8.775533e-11 -1.019688e-10 -1.119258e-10 -1.279948e-10 -1.402549e-10 -1.586824e-10 -1.738679e-10 -1.958549e-10 -2.144366e-10 -2.402814e-10 -2.630750e-10 -2.938915e-10 -3.220802e-10 -3.591074e-10 -3.932110e-10 -4.378631e-10 -4.795590e-10 -5.338248e-10 -5.845990e-10 -6.501539e-10 -7.118534e-10 -7.916174e-10 -8.668330e-10 -9.636348e-10 -1.054918e-09 -1.172577e-09 -1.283874e-09 -1.426887e-09 -1.562066e-09 -1.736024e-09 -1.900924e-09 -2.112423e-09 -2.312968e-09 -2.570281e-09 -2.814272e-09 -3.127122e-09 -3.424315e-09 -3.804872e-09 -4.166127e-09 -4.629349e-09 -5.069313e-09 -5.633254e-09 -6.168822e-09 -6.855202e-09 -7.507835e-09 -8.343832e-09 -9.138947e-09 -1.015758e-08 -1.112634e-08 -1.236788e-08 -1.354917e-08 -1.506308e-08 -1.650389e-08 -1.835098e-08 -2.011025e-08 -2.236553e-08 -2.451436e-08 -2.727052e-08 -2.989821e-08 -3.326974e-08 -3.648699e-08 -4.061628e-08 -4.456025e-08 -4.962565e-08 -5.446910e-08 -6.069394e-08 -6.665463e-08 -7.432132e-08 -8.167493e-08 -9.114315e-08 -1.002432e-07 -1.119742e-07 -1.232767e-07 -1.378691e-07 -1.519695e-07 -1.702081e-07 -1.878938e-07 -2.108213e-07 -2.331477e-07 -2.621716e-07 -2.905768e-07 -3.276278e-07 -3.641066e-07 -4.118862e-07 -4.592626e-07 -5.216325e-07 -5.839946e-07 -6.666113e-07 -7.500286e-07 -8.614052e-07 -9.751450e-07 -1.128493e-06 -1.287151e-06 -1.503692e-06 -1.731083e-06 -2.046268e-06 -2.382806e-06 -2.858570e-06 -3.375989e-06 -4.126242e-06 -4.958557e-06 -6.205565e-06 -7.618228e-06 -9.825879e-06 -1.238082e-05 -1.659205e-05 -2.156939e-05 -3.031436e-05 -4.085909e-05 -6.067587e-05 -8.501339e-05 -1.330083e-04 -1.927204e-04 -3.071914e-04 -4.471266e-04 -6.080208e-04 -1.720673e-03 1.627693e-02 -3.512689e-01 
-1.239087e-02 -1.155837e-04 5.703221e-02 5.012441e-02 -3.897241e-02 -7.958910e-02 -1.010074e-01 -1.184678e-01 -1.386642e-01 -1.609409e-01 -1.810747e-01 -1.948482e-01 -2.003270e-01 -1.981116e-01 -1.906406e-01 -1.810845e-01 -1.723995e-01 -1.666489e-01 -1.646356e-01 -1.659026e-01 -1.689906e-01 -1.719857e-01 -1.730641e-01 -1.710353e-01 -1.655467e-01 -1.571305e-01 -1.468778e-01 -1.361466e-01 -1.261116e-01 -1.176056e-01 -1.109271e-01 -1.059830e-01 -1.023317e-01 -9.944545e-02 -9.677976e-02 -9.395014e-02 -9.072416e-02 -8.706111e-02 -8.306275e-02 -7.892075e-02 -7.489462e-02 -7.121635e-02 -6.812643e-02 -6.576328e-02 -6.424973e-02 -6.358453e-02 -6.375380e-02 -6.463973e-02 -6.612827e-02 -6.804540e-02 -7.023787e-02 -7.253935e-02 -7.481284e-02 -7.694180e-02 -7.883657e-02 -8.044209e-02 -8.172030e-02 -8.266584e-02 -8.327897e-02 -8.358266e-02 -8.359712e-02 -8.335465e-02 -8.288062e-02 -8.220573e-02 -8.135196e-02 -8.034478e-02 -7.919853e-02 -7.793324e-02 -7.655257e-02 -7.507134e-02 -7.348034e-02 -7.179007e-02 -6.997910e-02 -6.805651e-02 -6.599320e-02 -6.380119e-02 -6.145001e-02 -5.895782e-02 -5.629777e-02 -5.349441e-02 -5.052689e-02 -4.742412e-02 -4.417177e-02 -4.080061e-02 -3.730318e-02 -3.371076e-02 -3.002368e-02 -2.627405e-02 -2.247129e-02 -1.864950e-02 -1.482773e-02 -1.104255e-02 -7.321149e-03 -3.701104e-03 -2.137541e-04 3.105734e-03 6.227455e-03 9.122880e-03 1.176889e-02 1.414692e-02 1.624412e-02 1.805326e-02 1.957267e-02 2.080569e-02 2.176062e-02 2.244916e-02 2.288710e-02 2.309173e-02 2.308342e-02 2.288241e-02 2.251096e-02 2.199000e-02 2.134158e-02 2.058562e-02 1.974241e-02 1.882981e-02 1.786536e-02 1.686426e-02 1.584092e-02 1.480772e-02 1.377587e-02 1.275511e-02 1.175373e-02 1.077914e-02 9.837135e-03 8.933160e-03 8.070927e-03 7.254264e-03 6.485133e-03 5.765985e-03 5.097277e-03 4.480237e-03 3.914002e-03 3.398694e-03 2.932308e-03 2.514003e-03 2.140849e-03 1.811238e-03 1.521590e-03 1.269783e-03 1.051893e-03 8.655651e-04 7.068407e-04 5.733895e-04 4.614786e-04 3.690074e-04 2.926555e-04 2.306799e-04 1.802732e-04 1.401007e-04 1.078910e-04 8.270597e-05 6.277471e-05 4.750245e-05 3.554899e-05 2.658997e-05 1.963288e-05 1.454850e-05 1.061098e-05 7.819732e-06 5.645491e-06 4.163770e-06 2.986122e-06 2.226296e-06 1.595100e-06 1.219505e-06 8.800375e-07 7.018519e-07 5.148999e-07 4.345138e-07 3.264014e-07 2.926146e-07 2.254360e-07 2.128813e-07 1.675582e-07 1.641374e-07 1.311745e-07 1.313518e-07 1.059912e-07 1.073560e-07 8.713033e-08 8.870188e-08 7.223979e-08 7.366259e-08 6.012254e-08 6.130098e-08 5.010960e-08 5.104592e-08 4.177714e-08 4.250516e-08 3.482385e-08 3.538274e-08 2.901691e-08 2.944219e-08 2.416795e-08 2.448928e-08 2.012122e-08 2.036192e-08 1.674529e-08 1.692443e-08 1.393092e-08 1.406271e-08 1.158580e-08 1.168190e-08 9.632708e-09 9.701701e-09 8.006864e-09 8.055252e-09 6.653681e-09 6.686849e-09 5.527853e-09 5.549739e-09 4.591841e-09 4.605364e-09 3.813610e-09 3.821315e-09 3.166709e-09 3.169952e-09 2.629101e-09 2.629240e-09 2.182126e-09 2.180142e-09 1.810755e-09 1.807557e-09 1.502250e-09 1.498164e-09 1.245846e-09 1.241204e-09 1.032619e-09 1.027916e-09 8.554827e-10 8.508901e-10 7.082929e-10 7.037012e-10 5.856913e-10 5.811263e-10 4.833185e-10 4.791217e-10 3.982864e-10 3.941441e-10 3.272072e-10 3.232023e-10 2.673813e-10 2.635853e-10 2.169910e-10 2.127944e-10 1.735595e-10 1.694886e-10 1.362406e-10 1.318937e-10 1.036304e-10 9.894627e-11 7.442059e-11 6.944632e-11 4.791823e-11 4.220393e-11 2.267614e-11 1.627948e-11 -1.706132e-12 -9.130889e-12 -2.668656e-11 -3.537239e-11 -5.250822e-11 -6.283249e-11 -8.059935e-11 -9.285908e-11 -1.117850e-10 -1.264398e-10 -1.473928e-10 -1.649542e-10 -1.884462e-10 -2.094260e-10 -2.367042e-10 -2.622486e-10 -2.942483e-10 -3.252572e-10 -3.630990e-10 -4.006163e-10 -4.457026e-10 -4.916213e-10 -5.460090e-10 -6.014446e-10 -6.668762e-10 -7.344078e-10 -8.137039e-10 -8.957941e-10 -9.918235e-10 -1.091426e-09 -1.208059e-09 -1.329125e-09 -1.470749e-09 -1.618346e-09 -1.790132e-09 -1.969649e-09 -2.178835e-09 -2.397236e-09 -2.651285e-09 -2.917066e-09 -3.226291e-09 -3.549448e-09 -3.925507e-09 -4.318893e-09 -4.776187e-09 -5.254657e-09 -5.811392e-09 -6.393749e-09 -7.071427e-09 -7.780269e-09 -8.605354e-09 -9.468660e-09 -1.047328e-08 -1.152512e-08 -1.274900e-08 -1.403004e-08 -1.552161e-08 -1.708322e-08 -1.890165e-08 -2.080567e-08 -2.302417e-08 -2.534730e-08 -2.805534e-08 -3.089180e-08 -3.420021e-08 -3.766599e-08 -4.171166e-08 -4.595103e-08 -5.090397e-08 -5.609546e-08 -6.216790e-08 -6.853524e-08 -7.599289e-08 -8.381601e-08 -9.299405e-08 -1.026267e-07 -1.139503e-07 -1.258426e-07 -1.398562e-07 -1.545848e-07 -1.719908e-07 -1.903030e-07 -2.120190e-07 -2.348930e-07 -2.621309e-07 -2.908651e-07 -3.252484e-07 -3.615912e-07 -4.053298e-07 -4.516744e-07 -5.078282e-07 -5.675153e-07 -6.404050e-07 -7.181944e-07 -8.140554e-07 -9.168921e-07 -1.044939e-06 -1.183224e-06 -1.357443e-06 -1.547207e-06 -1.789454e-06 -2.056218e-06 -2.401780e-06 -2.787628e-06 -3.295565e-06 -3.872668e-06 -4.645871e-06 -5.543381e-06 -6.769173e-06 -8.228961e-06 -1.026505e-05 -1.276126e-05 -1.632540e-05 -2.082460e-05 -2.742577e-05 -3.592743e-05 -4.883953e-05 -6.522972e-05 -9.143010e-05 -1.208644e-04 -1.724404e-04 -2.077520e-04 -2.521730e-04 -7.460119e-04 6.257439e-03 -8.403363e-03 