# vtk DataFile Version 2.0
Comment goes here
ASCII

DATASET STRUCTURED_POINTS
FIELD FieldData 1
TIME 1 1 double
0.15000000
DIMENSIONS    384   64   1

ORIGIN    0.000   0.000   0.000
SPACING   0.078125 0.078125   1.000

POINT_DATA   24576
SCALARS Omega double
LOOKUP_TABLE default

-1.042877e-08 5.077347e-06 -6.304986e-05 -1.122505e-04 -6.701429e-05 -3.385736e-05 -1.418845e-05 -5.826587e-06 -1.736240e-06 -5.213560e-07 5.415643e-08 7.116187e-08 1.258252e-07 5.980260e-08 6.838575e-08 2.943776e-08 3.724953e-08 1.712566e-08 2.418526e-08 1.451321e-08 1.945934e-08 1.666312e-08 1.884717e-08 2.146993e-08 2.052280e-08 2.779424e-08 2.351019e-08 3.464298e-08 2.704183e-08 4.083170e-08 3.027559e-08 4.491006e-08 3.221340e-08 4.532705e-08 3.180820e-08 4.082853e-08 2.824527e-08 3.098059e-08 2.130075e-08 1.657114e-08 1.158306e-08 -3.977443e-10 4.720359e-10 -1.722392e-08 -1.026530e-08 -3.130054e-08 -1.899973e-08 -4.080907e-08 -2.466156e-08 -4.504673e-08 -2.691451e-08 -4.435864e-08 -2.608286e-08 -3.981402e-08 -2.292640e-08 -3.280448e-08 -1.837530e-08 -2.469933e-08 -1.330832e-08 -1.662174e-08 -8.414902e-09 -9.350858e-09 -4.143607e-09 -3.322342e-09 -7.163723e-10 1.312114e-09 1.821522e-09 4.602036e-09 3.540221e-09 6.716405e-09 4.570883e-09 7.877892e-09 5.064434e-09 8.316182e-09 5.165820e-09 8.240289e-09 4.999992e-09 7.824845e-09 4.667040e-09 7.206757e-09 4.242434e-09 6.487468e-09 3.780145e-09 5.738155e-09 3.316496e-09 5.005888e-09 2.874560e-09 4.319539e-09 2.467465e-09 3.694657e-09 2.101623e-09 3.137821e-09 1.778804e-09 2.649591e-09 1.497896e-09 2.226840e-09 1.256087e-09 1.864354e-09 1.049771e-09 1.555991e-09 8.748614e-10 1.295267e-09 7.274292e-10 1.075952e-09 6.037082e-10 8.922092e-10 5.002377e-10 7.387753e-10 4.139671e-10 6.110068e-10 3.422589e-10 5.048509e-10 2.826834e-10 4.167810e-10 2.333335e-10 3.438908e-10 1.924750e-10 2.835405e-10 1.586869e-10 2.337044e-10 1.307795e-10 1.925318e-10 1.077458e-10 1.585852e-10 8.874750e-11 1.305745e-10 7.307309e-11 1.075137e-10 6.017101e-11 8.850599e-11 4.953281e-11 7.283130e-11 4.076796e-11 5.993571e-11 3.356451e-11 4.933478e-11 2.760706e-11 4.058230e-11 2.272942e-11 3.338507e-11 1.867973e-11 2.746123e-11 1.536641e-11 2.256570e-11 1.265081e-11 1.858666e-11 1.041870e-11 1.528060e-11 8.563240e-12 1.254876e-11 7.021168e-12 1.033979e-11 5.787586e-12 8.520555e-12 4.765176e-12 6.993188e-12 3.923076e-12 5.759368e-12 3.226485e-12 4.728401e-12 2.662631e-12 3.897625e-12 2.181935e-12 3.215047e-12 1.805488e-12 2.626669e-12 1.474859e-12 2.168477e-12 1.206860e-12 1.776897e-12 1.000320e-12 1.466822e-12 8.369185e-13 1.224788e-12 6.781471e-13 9.855843e-13 5.475986e-13 8.134748e-13 4.559565e-13 6.815121e-13 3.711637e-13 5.614498e-13 3.253542e-13 4.637151e-13 2.615376e-13 3.760447e-13 2.060548e-13 3.088291e-13 1.628374e-13 2.601666e-13 1.414022e-13 2.115738e-13 1.335044e-13 1.786265e-13 9.663155e-14 1.560804e-13 6.775262e-14 1.271840e-13 6.740318e-14 1.072736e-13 6.548158e-14 8.924966e-14 4.592323e-14 6.932514e-14 4.398368e-14 5.690117e-14 3.612054e-14 5.638862e-14 1.632490e-14 4.616912e-14 5.011379e-14 3.975074e-14 2.096828e-14 4.122956e-14 2.095219e-14 1.770850e-14 1.727396e-14 2.932948e-14 1.618083e-14 2.213059e-14 9.849615e-15 6.917817e-15 1.539196e-14 2.831883e-14 1.360057e-14 2.501619e-14 -2.631185e-15 9.747180e-15 8.434638e-15 8.168717e-15 2.592901e-14 3.411547e-14 2.006913e-14 1.713954e-14 2.403556e-14 1.544763e-14 -5.627298e-15 4.201226e-15 1.532787e-15 1.192968e-14 5.661328e-15 -6.831500e-15 3.961920e-15 1.799792e-14 4.517451e-15 1.335526e-14 1.301144e-15 1.383905e-14 1.491950e-14 4.476382e-15 6.290787e-15 2.827382e-14 5.719571e-15 1.496026e-15 1.150324e-14 1.606464e-14 2.586921e-15 6.519958e-16 8.810328e-15 2.420183e-14 6.051843e-15 5.809589e-15 1.860679e-15 1.088391e-14 1.770647e-14 1.467261e-14 1.243344e-14 1.939422e-14 2.689794e-14 3.256680e-15 1.775817e-14 7.579860e-15 2.259622e-14 1.702534e-14 1.699956e-14 2.177811e-14 7.320054e-15 2.345491e-14 4.631900e-14 4.096028e-14 9.402216e-15 2.785102e-14 4.088240e-14 4.237705e-14 2.514253e-14 3.457592e-14 5.658421e-14 5.202979e-14 4.149203e-14 4.798355e-14 9.488518e-14 9.250780e-14 9.651384e-14 9.293146e-14 1.047240e-13 1.013413e-13 1.383347e-13 1.424944e-13 1.539423e-13 1.611221e-13 1.819222e-13 1.811920e-13 2.405072e-13 2.209042e-13 2.894016e-13 2.793609e-13 3.447903e-13 3.410024e-13 4.100355e-13 4.102869e-13 5.002462e-13 4.883009e-13 6.402469e-13 6.128343e-13 7.683816e-13 7.571611e-13 9.449005e-13 8.961232e-13 1.130877e-12 1.102309e-12 1.376671e-12 1.358714e-12 1.676615e-12 1.656279e-12 2.065954e-12 2.033429e-12 2.547546e-12 2.517054e-12 3.137783e-12 3.080264e-12 3.834893e-12 3.780306e-12 4.712971e-12 4.665678e-12 5.834249e-12 5.776831e-12 7.229382e-12 7.142912e-12 8.995378e-12 8.926513e-12 1.127297e-11 1.123710e-11 1.417756e-11 1.421735e-11 1.794968e-11 1.806341e-11 2.289160e-11 2.318784e-11 2.944247e-11 2.999406e-11 3.824690e-11 3.923558e-11 5.019682e-11 5.196682e-11 6.677931e-11 6.972711e-11 9.005114e-11 9.496160e-11 1.233583e-10 1.315167e-10 1.720001e-10 1.856207e-10 2.446776e-10 2.676972e-10 3.563005e-10 3.959386e-10 5.333835e-10 6.037707e-10 8.261995e-10 9.567519e-10 1.337302e-09 1.595181e-09 2.298350e-09 2.863318e-09 4.352528e-09 5.953196e-09 1.028402e-08 1.738054e-08 3.559329e-08 7.037197e-08 1.375497e-07 2.510955e-07 3.831305e-07 6.536351e-07 
-2.295115e+01 -1.584186e+01 -2.337333e+01 -1.929211e+01 -4.971814e+00 -1.333075e+00 -3.491212e-01 -9.036350e-02 -1.348959e-02 5.349744e-03 8.612541e-03 6.918474e-03 4.842570e-03 3.110006e-03 1.986225e-03 1.256873e-03 8.200638e-04 5.418906e-04 3.720113e-04 2.585813e-04 1.862382e-04 1.349599e-04 1.009797e-04 7.556029e-05 5.821141e-05 4.465765e-05 3.515797e-05 2.752193e-05 2.199488e-05 1.752520e-05 1.413604e-05 1.146355e-05 9.297435e-06 7.691563e-06 6.273643e-06 5.314755e-06 4.388214e-06 3.816626e-06 3.233542e-06 2.879288e-06 2.545947e-06 2.296445e-06 2.147083e-06 1.931110e-06 1.916109e-06 1.693288e-06 1.773565e-06 1.525452e-06 1.668930e-06 1.391503e-06 1.570564e-06 1.268793e-06 1.459025e-06 1.143471e-06 1.323958e-06 1.008527e-06 1.163169e-06 8.630244e-07 9.817858e-07 7.110444e-07 7.902254e-07 5.598017e-07 6.011093e-07 4.173083e-07 4.261496e-07 2.903491e-07 2.739646e-07 1.832875e-07 1.491985e-07 9.778368e-08 5.276585e-08 3.318697e-08 -1.724545e-08 -1.274671e-08 -6.446950e-08 -4.310125e-08 -9.327131e-08 -6.118301e-08 -1.080166e-07 -7.010153e-08 -1.126241e-07 -7.253820e-08 -1.103538e-07 -7.065951e-08 -1.037601e-07 -6.612505e-08 -9.474386e-08 -6.014681e-08 -8.465238e-08 -5.356954e-08 -7.439265e-08 -4.695245e-08 -6.453838e-08 -4.064293e-08 -5.542187e-08 -3.483717e-08 -4.720830e-08 -2.962798e-08 -3.995000e-08 -2.503966e-08 -3.362978e-08 -2.105489e-08 -2.818826e-08 -1.763137e-08 -2.354479e-08 -1.471505e-08 -1.961020e-08 -1.224756e-08 -1.629504e-08 -1.017107e-08 -1.351438e-08 -8.431103e-09 -1.119072e-08 -6.978363e-09 -9.254690e-09 -5.768786e-09 -7.645335e-09 -4.763923e-09 -6.310360e-09 -3.931021e-09 -5.204833e-09 -3.241304e-09 -4.290310e-09 -2.671175e-09 -3.534880e-09 -2.200259e-09 -2.911240e-09 -1.811919e-09 -2.396958e-09 -1.491437e-09 -1.972814e-09 -1.227201e-09 -1.623382e-09 -1.009694e-09 -1.335591e-09 -8.305800e-10 -1.098670e-09 -6.831047e-10 -9.036788e-10 -5.617996e-10 -7.432175e-10 -4.620298e-10 -6.112522e-10 -3.798775e-10 -5.026167e-10 -3.124100e-10 -4.133810e-10 -2.568324e-10 -3.398584e-10 -2.111162e-10 -2.793742e-10 -1.735424e-10 -2.296780e-10 -1.426482e-10 -1.888272e-10 -1.172889e-10 -1.552748e-10 -9.643374e-11 -1.276400e-10 -7.926416e-11 -1.049058e-10 -6.510192e-11 -8.618736e-11 -5.350143e-11 -7.091120e-11 -4.400675e-11 -5.830150e-11 -3.621618e-11 -4.795750e-11 -2.978739e-11 -3.938785e-11 -2.447158e-11 -3.239929e-11 -2.013454e-11 -2.671508e-11 -1.657764e-11 -2.195662e-11 -1.366715e-11 -1.810887e-11 -1.125984e-11 -1.495543e-11 -9.337272e-12 -1.230439e-11 -7.685275e-12 -1.018698e-11 -6.396824e-12 -8.477781e-12 -5.356160e-12 -7.090684e-12 -4.578501e-12 -5.970098e-12 -3.933979e-12 -5.081663e-12 -3.367928e-12 -4.331015e-12 -2.886447e-12 -3.768956e-12 -2.649259e-12 -3.345827e-12 -2.415549e-12 -3.087634e-12 -2.340469e-12 -2.902508e-12 -2.322542e-12 -2.870459e-12 -2.452275e-12 -2.961838e-12 -2.667437e-12 -3.164543e-12 -2.936481e-12 -3.523093e-12 -3.437820e-12 -4.024954e-12 -3.931829e-12 -4.526668e-12 -4.637913e-12 -5.318223e-12 -5.463302e-12 -6.205041e-12 -6.529305e-12 -7.489159e-12 -7.882281e-12 -8.978118e-12 -9.439592e-12 -1.079713e-11 -1.146532e-11 -1.307783e-11 -1.388484e-11 -1.581714e-11 -1.685253e-11 -1.922641e-11 -2.047726e-11 -2.332483e-11 -2.487626e-11 -2.833816e-11 -3.023102e-11 -3.445499e-11 -3.678196e-11 -4.192996e-11 -4.477779e-11 -5.094784e-11 -5.433592e-11 -6.190219e-11 -6.612348e-11 -7.525969e-11 -8.034968e-11 -9.147794e-11 -9.767535e-11 -1.112341e-10 -1.187930e-10 -1.352591e-10 -1.444696e-10 -1.644851e-10 -1.756565e-10 -2.000366e-10 -2.137151e-10 -2.434747e-10 -2.600000e-10 -2.960790e-10 -3.161024e-10 -3.599074e-10 -3.843223e-10 -4.376414e-10 -4.673549e-10 -5.321816e-10 -5.684053e-10 -6.472017e-10 -6.912820e-10 -7.871151e-10 -8.406552e-10 -9.571737e-10 -1.022382e-09 -1.164094e-09 -1.243405e-09 -1.415657e-09 -1.512075e-09 -1.721676e-09 -1.839154e-09 -2.094039e-09 -2.236854e-09 -2.546875e-09 -2.720705e-09 -3.097770e-09 -3.309294e-09 -3.767969e-09 -4.025377e-09 -4.583276e-09 -4.896665e-09 -5.575568e-09 -5.957196e-09 -6.783317e-09 -7.247866e-09 -8.252905e-09 -8.818850e-09 -1.004217e-08 -1.073174e-08 -1.222095e-08 -1.306147e-08 -1.487478e-08 -1.589974e-08 -1.810838e-08 -1.935892e-08 -2.204991e-08 -2.357672e-08 -2.685705e-08 -2.872257e-08 -3.272323e-08 -3.500492e-08 -3.988722e-08 -4.268104e-08 -4.864386e-08 -5.206942e-08 -5.935869e-08 -6.356629e-08 -7.248692e-08 -7.766507e-08 -8.859704e-08 -9.498525e-08 -1.084038e-07 -1.163073e-07 -1.328102e-07 -1.426222e-07 -1.629664e-07 -1.751968e-07 -2.003474e-07 -2.156651e-07 -2.468627e-07 -2.661542e-07 -3.050090e-07 -3.294638e-07 -3.780877e-07 -4.093216e-07 -4.705181e-07 -5.107560e-07 -5.882943e-07 -6.406442e-07 -7.396665e-07 -8.085351e-07 -9.361667e-07 -1.027902e-06 -1.194184e-06 -1.318082e-06 -1.537429e-06 -1.707347e-06 -2.000862e-06 -2.237852e-06 -2.637102e-06 -2.973805e-06 -3.527135e-06 -4.015311e-06 -4.798680e-06 -5.522485e-06 -6.658712e-06 -7.758874e-06 -9.453000e-06 -1.117253e-05 -1.377956e-05 -1.655392e-05 -2.071485e-05 -2.535905e-05 -3.228946e-05 -4.040982e-05 -5.255393e-05 -6.752175e-05 -9.015784e-05 -1.196230e-04 -1.652132e-04 -2.283554e-04 -3.299230e-04 -4.817054e-04 -7.418488e-04 -1.173218e-03 -1.993289e-03 -3.569983e-03 -7.019771e-03 -1.476541e-02 -3.358470e-02 -7.909406e-02 -1.913039e-01 -4.598263e-01 -1.105251e+00 -2.641622e+00 -6.673218e+00 -1.911677e+01 
8.637620e-01 -4.403599e-02 5.845057e-01 -4.113294e-02 -1.784953e+00 -1.175565e+00 -5.577939e-01 -2.313336e-01 -8.007582e-02 -2.088112e-02 3.709474e-05 4.914528e-03 5.039615e-03 3.753205e-03 2.639870e-03 1.751450e-03 1.197350e-03 8.059446e-04 5.695455e-04 3.985453e-04 2.930769e-04 2.128840e-04 1.620422e-04 1.215909e-04 9.524795e-05 7.359390e-05 5.904124e-05 4.690622e-05 3.836414e-05 3.132040e-05 2.598705e-05 2.177420e-05 1.822661e-05 1.561834e-05 1.311680e-05 1.141402e-05 9.575884e-06 8.369059e-06 7.001336e-06 6.052033e-06 5.057292e-06 4.232657e-06 3.554796e-06 2.786665e-06 2.382888e-06 1.641300e-06 1.471375e-06 7.486726e-07 7.731019e-07 7.548283e-08 2.559343e-07 -4.012276e-07 -1.024833e-07 -6.988082e-07 -3.203397e-07 -8.355204e-07 -4.171481e-07 -8.361644e-07 -4.169301e-07 -7.335668e-07 -3.477848e-07 -5.653423e-07 -2.386423e-07 -3.681549e-07 -1.152710e-07 -1.724364e-07 2.635809e-09 5.783469e-10 1.025295e-07 1.392057e-07 1.784430e-07 2.397904e-07 2.294723e-07 3.043335e-07 2.579876e-07 3.381020e-07 2.680393e-07 3.476942e-07 2.641733e-07 3.397126e-07 2.506791e-07 3.200023e-07 2.311998e-07 2.933170e-07 2.085978e-07 2.632692e-07 1.849761e-07 2.324371e-07 1.617802e-07 2.025431e-07 1.399286e-07 1.746447e-07 1.199427e-07 1.493117e-07 1.020594e-07 1.267720e-07 8.632268e-08 1.070279e-07 7.265411e-08 8.994150e-08 6.090316e-08 7.529633e-08 5.088339e-08 6.283949e-08 4.239589e-08 5.230907e-08 3.524449e-08 4.345128e-08 2.924490e-08 3.603061e-08 2.422933e-08 2.983434e-08 2.004851e-08 2.467440e-08 1.657174e-08 2.038692e-08 1.368611e-08 1.683099e-08 1.129490e-08 1.388590e-08 9.315910e-09 1.144991e-08 7.680019e-09 9.436973e-09 6.328754e-09 7.775011e-09 5.213538e-09 6.403633e-09 4.293608e-09 5.272909e-09 3.535293e-09 4.340965e-09 2.910340e-09 3.573082e-09 2.395492e-09 2.940592e-09 1.971478e-09 2.419830e-09 1.622348e-09 1.991023e-09 1.334920e-09 1.638079e-09 1.098277e-09 1.347640e-09 9.035581e-10 1.108549e-09 7.432968e-10 9.118977e-10 6.114693e-10 7.501251e-10 5.030475e-10 6.170269e-10 4.138244e-10 5.075337e-10 3.404028e-10 4.174233e-10 2.799621e-10 3.433145e-10 2.302893e-10 2.823687e-10 1.894372e-10 2.322583e-10 1.558211e-10 1.910021e-10 1.281521e-10 1.571006e-10 1.054093e-10 1.291960e-10 8.667864e-11 1.062006e-10 7.127634e-11 8.733083e-11 5.856644e-11 7.176797e-11 4.811301e-11 5.898693e-11 3.954894e-11 4.846906e-11 3.247339e-11 3.979479e-11 2.661331e-11 3.261605e-11 2.181673e-11 2.678007e-11 1.786487e-11 2.191197e-11 1.454049e-11 1.786746e-11 1.179322e-11 1.447780e-11 9.465081e-12 1.170433e-11 7.564735e-12 9.381088e-12 5.974242e-12 7.444208e-12 4.591231e-12 5.742932e-12 3.360453e-12 4.286734e-12 2.236789e-12 2.987403e-12 1.253501e-12 1.791456e-12 2.592482e-13 6.686466e-13 -6.817028e-13 -4.619731e-13 -1.674192e-12 -1.571123e-12 -2.781462e-12 -2.813028e-12 -3.951154e-12 -4.083091e-12 -5.228721e-12 -5.514420e-12 -6.725926e-12 -7.142483e-12 -8.429940e-12 -9.041051e-12 -1.054181e-11 -1.133847e-11 -1.305742e-11 -1.404172e-11 -1.602965e-11 -1.730455e-11 -1.963202e-11 -2.120503e-11 -2.403364e-11 -2.595002e-11 -2.934516e-11 -3.168546e-11 -3.576113e-11 -3.865053e-11 -4.357900e-11 -4.709673e-11 -5.306024e-11 -5.736337e-11 -6.465051e-11 -6.988821e-11 -7.862999e-11 -8.495408e-11 -9.559962e-11 -1.033492e-10 -1.162947e-10 -1.257052e-10 -1.414135e-10 -1.528915e-10 -1.720159e-10 -1.859613e-10 -2.092262e-10 -2.262311e-10 -2.545029e-10 -2.751627e-10 -3.095735e-10 -3.347706e-10 -3.765923e-10 -4.071805e-10 -4.580247e-10 -4.952096e-10 -5.569953e-10 -6.022355e-10 -6.774110e-10 -7.324750e-10 -8.238711e-10 -8.908610e-10 -1.001994e-09 -1.083518e-09 -1.218682e-09 -1.317793e-09 -1.482181e-09 -1.602816e-09 -1.802731e-09 -1.949503e-09 -2.192572e-09 -2.371139e-09 -2.666829e-09 -2.884130e-09 -3.243789e-09 -3.508186e-09 -3.945604e-09 -4.267385e-09 -4.799516e-09 -5.191097e-09 -5.838416e-09 -6.315018e-09 -7.102589e-09 -7.682741e-09 -8.641071e-09 -9.347410e-09 -1.051364e-08 -1.137367e-08 -1.279300e-08 -1.384039e-08 -1.556828e-08 -1.684423e-08 -1.894823e-08 -2.050305e-08 -2.306575e-08 -2.496111e-08 -2.808363e-08 -3.039507e-08 -3.420132e-08 -3.702177e-08 -4.166390e-08 -4.510768e-08 -5.077281e-08 -5.498101e-08 -6.189984e-08 -6.704700e-08 -7.550475e-08 -8.180759e-08 -9.215812e-08 -9.988696e-08 -1.125706e-07 -1.220638e-07 -1.376317e-07 -1.493153e-07 -1.684602e-07 -1.828744e-07 -2.064730e-07 -2.243070e-07 -2.534761e-07 -2.756169e-07 -3.117912e-07 -3.393907e-07 -3.844292e-07 -4.189988e-07 -4.753357e-07 -5.188805e-07 -5.897381e-07 -6.449520e-07 -7.346491e-07 -8.051982e-07 -9.195996e-07 -1.010545e-06 -1.157731e-06 -1.276166e-06 -1.467437e-06 -1.623462e-06 -1.874885e-06 -2.083128e-06 -2.417944e-06 -2.699972e-06 -3.152426e-06 -3.540656e-06 -4.162218e-06 -4.706385e-06 -5.576088e-06 -6.354231e-06 -7.596310e-06 -8.733928e-06 -1.054878e-05 -1.225330e-05 -1.497365e-05 -1.759858e-05 -2.179512e-05 -2.596435e-05 -3.265295e-05 -3.951248e-05 -5.058063e-05 -6.233532e-05 -8.146943e-05 -1.025987e-04 -1.374353e-04 -1.776486e-04 -2.451660e-04 -3.272516e-04 -4.687224e-04 -6.522813e-04 -9.822539e-04 -1.454917e-03 -2.378491e-03 -3.958321e-03 -7.516639e-03 -1.509819e-02 -3.395958e-02 -7.799032e-02 -1.835234e-01 -4.131962e-01 -8.858912e-01 -1.696321e+00 -2.584559e+00 8.880400e-02 
-2.035295e+00 -1.308605e-02 -2.218087e+00 -2.343101e+00 -1.452848e+00 -9.128091e-01 -4.917732e-01 -2.236690e-01 -8.430520e-02 -2.215667e-02 7.656586e-04 6.767662e-03 6.822672e-03 5.276757e-03 3.772766e-03 2.598101e-03 1.802879e-03 1.251853e-03 8.926890e-04 6.398867e-04 4.723058e-04 3.491617e-04 2.656320e-04 2.014941e-04 1.570764e-04 1.216882e-04 9.663374e-05 7.620163e-05 6.128304e-05 4.910810e-05 3.978302e-05 3.241070e-05 2.635226e-05 2.188628e-05 1.786504e-05 1.518823e-05 1.253081e-05 1.093470e-05 9.247614e-06 8.258559e-06 7.287235e-06 6.587444e-06 6.149407e-06 5.537548e-06 5.493531e-06 4.856324e-06 5.096091e-06 4.382159e-06 4.814174e-06 4.011930e-06 4.555235e-06 3.677841e-06 4.258335e-06 3.335312e-06 3.887659e-06 2.959627e-06 3.432791e-06 2.545664e-06 2.907900e-06 2.105471e-06 2.345489e-06 1.662065e-06 1.785861e-06 1.241404e-06 1.266475e-06 8.654735e-07 8.146875e-07 5.483536e-07 4.450360e-07 2.954251e-07 1.602486e-07 1.047664e-07 -4.569738e-08 -3.046599e-08 -1.840033e-07 -1.196282e-07 -2.679452e-07 -1.726709e-07 -3.106552e-07 -1.988760e-07 -3.238077e-07 -2.061855e-07 -3.170308e-07 -2.009714e-07 -2.978102e-07 -1.880826e-07 -2.716776e-07 -1.710401e-07 -2.425274e-07 -1.522845e-07 -2.129645e-07 -1.334235e-07 -1.846253e-07 -1.154510e-07 -1.584496e-07 -9.892466e-08 -1.348961e-07 -8.410582e-08 -1.141049e-07 -7.106122e-08 -9.601641e-08 -5.973786e-08 -8.045443e-08 -5.001397e-08 -6.718295e-08 -4.173394e-08 -5.594328e-08 -3.473048e-08 -4.647707e-08 -2.883830e-08 -3.854004e-08 -2.390239e-08 -3.190909e-08 -1.978184e-08 -2.638554e-08 -1.635165e-08 -2.179532e-08 -1.350263e-08 -1.798824e-08 -1.114095e-08 -1.483576e-08 -9.186052e-09 -1.222856e-08 -7.569922e-09 -1.007474e-08 -6.235252e-09 -8.297016e-09 -5.134059e-09 -6.830816e-09 -4.225955e-09 -5.622114e-09 -3.477527e-09 -4.626282e-09 -2.861095e-09 -3.806154e-09 -2.353520e-09 -3.130940e-09 -1.935680e-09 -2.575181e-09 -1.591848e-09 -2.117882e-09 -1.309027e-09 -1.741715e-09 -1.076329e-09 -1.432171e-09 -8.849219e-10 -1.177605e-09 -7.275410e-10 -9.682391e-10 -5.980979e-10 -7.960537e-10 -4.916556e-10 -6.544805e-10 -4.041668e-10 -5.380574e-10 -3.322091e-10 -4.423125e-10 -2.730993e-10 -3.636162e-10 -2.244897e-10 -2.989414e-10 -1.845240e-10 -2.457795e-10 -1.517181e-10 -2.020621e-10 -1.247269e-10 -1.661623e-10 -1.025402e-10 -1.366082e-10 -8.432815e-11 -1.123304e-10 -6.938221e-11 -9.240863e-11 -5.706625e-11 -7.607088e-11 -4.699954e-11 -6.257818e-11 -3.871266e-11 -5.158145e-11 -3.197390e-11 -4.257468e-11 -2.647386e-11 -3.513773e-11 -2.187700e-11 -2.909911e-11 -1.821589e-11 -2.419253e-11 -1.525441e-11 -2.015200e-11 -1.287776e-11 -1.697706e-11 -1.095944e-11 -1.437216e-11 -9.447321e-12 -1.232464e-11 -8.332857e-12 -1.082559e-11 -7.589425e-12 -9.656986e-12 -7.053795e-12 -8.967878e-12 -6.881251e-12 -8.549931e-12 -6.906239e-12 -8.464903e-12 -7.210247e-12 -8.707183e-12 -7.804365e-12 -9.273456e-12 -8.677503e-12 -1.022299e-11 -9.928103e-12 -1.155098e-11 -1.147288e-11 -1.331282e-11 -1.355902e-11 -1.561296e-11 -1.609490e-11 -1.850221e-11 -1.931424e-11 -2.212721e-11 -2.323723e-11 -2.656755e-11 -2.803245e-11 -3.201807e-11 -3.393860e-11 -3.871534e-11 -4.112181e-11 -4.688541e-11 -4.992423e-11 -5.692504e-11 -6.065440e-11 -6.914358e-11 -7.372479e-11 -8.398109e-11 -8.958179e-11 -1.020528e-10 -1.089223e-10 -1.240831e-10 -1.324396e-10 -1.508096e-10 -1.609780e-10 -1.833030e-10 -1.957116e-10 -2.228820e-10 -2.379855e-10 -2.709896e-10 -2.893269e-10 -3.294769e-10 -3.518355e-10 -4.006740e-10 -4.279013e-10 -4.872544e-10 -5.203644e-10 -5.925733e-10 -6.328808e-10 -7.206530e-10 -7.696600e-10 -8.763992e-10 -9.359708e-10 -1.065728e-09 -1.138191e-09 -1.296035e-09 -1.384221e-09 -1.576095e-09 -1.683349e-09 -1.916704e-09 -2.047175e-09 -2.330938e-09 -2.489624e-09 -2.834701e-09 -3.027749e-09 -3.447409e-09 -3.682293e-09 -4.192597e-09 -4.478328e-09 -5.099011e-09 -5.446694e-09 -6.201527e-09 -6.624572e-09 -7.542606e-09 -8.057344e-09 -9.174004e-09 -9.800401e-09 -1.115867e-08 -1.192106e-08 -1.357337e-08 -1.450136e-08 -1.651156e-08 -1.764137e-08 -2.008717e-08 -2.146293e-08 -2.443910e-08 -2.611470e-08 -2.973690e-08 -3.177842e-08 -3.618772e-08 -3.867584e-08 -4.404449e-08 -4.707833e-08 -5.361695e-08 -5.731804e-08 -6.528431e-08 -6.980228e-08 -7.951203e-08 -8.503144e-08 -9.687206e-08 -1.036211e-07 -1.180692e-07 -1.263311e-07 -1.439737e-07 -1.541011e-07 -1.756638e-07 -1.880981e-07 -2.144802e-07 -2.297764e-07 -2.620971e-07 -2.809576e-07 -3.206157e-07 -3.439355e-07 -3.926884e-07 -4.216171e-07 -4.816864e-07 -5.177131e-07 -5.919268e-07 -6.369999e-07 -7.289869e-07 -7.856829e-07 -9.001427e-07 -9.719082e-07 -1.114990e-06 -1.206494e-06 -1.386335e-06 -1.503986e-06 -1.731496e-06 -1.884213e-06 -2.174219e-06 -2.374603e-06 -2.747568e-06 -3.013691e-06 -3.498323e-06 -3.856532e-06 -4.493824e-06 -4.983189e-06 -5.832810e-06 -6.512331e-06 -7.662937e-06 -8.623476e-06 -1.020977e-05 -1.159426e-05 -1.382594e-05 -1.586456e-05 -1.907694e-05 -2.215019e-05 -2.689550e-05 -3.165103e-05 -3.886948e-05 -4.644700e-05 -5.780006e-05 -7.028290e-05 -8.883376e-05 -1.102002e-04 -1.418761e-04 -1.801153e-04 -2.370367e-04 -3.091485e-04 -4.177126e-04 -5.623636e-04 -7.844020e-04 -1.096946e-03 -1.591847e-03 -2.338685e-03 -3.594708e-03 -5.723471e-03 -9.765073e-03 -1.786918e-02 -3.530639e-02 -7.344352e-02 -1.544563e-01 -3.167605e-01 -6.037649e-01 -1.036234e+00 -1.524421e+00 -2.152842e+00 
6.245400e-01 3.458876e-03 5.053807e-01 3.352070e-01 -5.479737e-01 -5.498975e-01 -3.636982e-01 -1.935090e-01 -8.600351e-02 -3.073573e-02 -6.502749e-03 1.892065e-03 3.984407e-03 3.652970e-03 2.909726e-03 2.115974e-03 1.555992e-03 1.111537e-03 8.247677e-04 6.008740e-04 4.567914e-04 3.412364e-04 2.658551e-04 2.036033e-04 1.622040e-04 1.273240e-04 1.034402e-04 8.326819e-05 6.875632e-05 5.679851e-05 4.746182e-05 4.021116e-05 3.382370e-05 2.928723e-05 2.466244e-05 2.166084e-05 1.818416e-05 1.600992e-05 1.338023e-05 1.162021e-05 9.691784e-06 8.120850e-06 6.807154e-06 5.314919e-06 4.540632e-06 3.081770e-06 2.769036e-06 1.334839e-06 1.405739e-06 1.147332e-08 3.917438e-07 -9.290078e-07 -3.115564e-07 -1.513624e-06 -7.341437e-07 -1.771784e-06 -9.107893e-07 -1.750160e-06 -8.890222e-07 -1.516533e-06 -7.276579e-07 -1.151210e-06 -4.882667e-07 -7.325386e-07 -2.252818e-07 -3.243753e-07 2.070363e-08 3.026596e-08 2.249565e-07 3.092830e-07 3.768583e-07 5.074721e-07 4.762085e-07 6.309833e-07 5.291917e-07 6.920816e-07 5.449778e-07 7.051257e-07 5.333214e-07 6.839589e-07 5.031270e-07 6.405118e-07 4.617703e-07 5.842785e-07 4.149233e-07 5.223331e-07 3.666706e-07 4.596286e-07 3.197614e-07 3.994031e-07 2.758980e-07 3.435903e-07 2.360082e-07 2.931814e-07 2.004754e-07 2.485207e-07 1.693206e-07 2.095316e-07 1.423390e-07 1.758831e-07 1.191980e-07 1.471062e-07 9.950450e-08 1.226737e-07 8.284919e-08 1.020503e-07 6.883424e-08 8.472403e-08 5.708932e-08 7.022344e-08 4.727960e-08 5.812550e-08 3.910851e-08 4.805784e-08 3.231757e-08 3.969722e-08 2.668404e-08 3.276610e-08 2.201766e-08 2.702807e-08 1.815718e-08 2.228334e-08 1.496668e-08 1.836365e-08 1.233217e-08 1.512809e-08 1.015815e-08 1.245892e-08 8.365195e-09 1.025824e-08 6.887273e-09 8.444634e-09 5.669469e-09 6.950491e-09 4.666282e-09 5.719936e-09 3.840172e-09 4.706699e-09 3.159982e-09 3.872612e-09 2.600031e-09 3.186042e-09 2.139170e-09 2.621056e-09 1.759935e-09 2.156196e-09 1.447828e-09 1.773662e-09 1.191035e-09 1.458930e-09 9.797497e-10 1.200019e-09 8.059128e-10 9.870254e-10 6.629233e-10 8.118483e-10 5.453096e-10 6.677250e-10 4.485310e-10 5.491891e-10 3.689170e-10 4.516736e-10 3.034500e-10 3.714723e-10 2.495607e-10 3.054625e-10 2.052040e-10 2.511876e-10 1.687385e-10 2.065688e-10 1.387479e-10 1.698329e-10 1.140906e-10 1.396530e-10 9.376444e-11 1.147668e-10 7.704458e-11 9.428326e-11 6.323427e-11 7.737736e-11 5.182996e-11 6.349032e-11 4.249001e-11 5.207302e-11 3.475231e-11 4.257391e-11 2.831324e-11 3.474898e-11 2.299809e-11 2.825727e-11 1.855029e-11 2.283089e-11 1.480262e-11 1.829073e-11 1.162119e-11 1.446367e-11 8.872129e-12 1.115690e-11 6.510648e-12 8.310315e-12 4.347574e-12 5.747995e-12 2.367255e-12 3.429116e-12 4.968174e-13 1.220283e-12 -1.415919e-12 -9.189353e-13 -3.316125e-12 -3.117514e-12 -5.356093e-12 -5.401276e-12 -7.616204e-12 -7.901924e-12 -1.018010e-11 -1.075123e-11 -1.315247e-11 -1.398989e-11 -1.663078e-11 -1.780227e-11 -2.075291e-11 -2.225139e-11 -2.561891e-11 -2.755789e-11 -3.149962e-11 -3.395025e-11 -3.859180e-11 -4.163073e-11 -4.715000e-11 -5.091391e-11 -5.757729e-11 -6.220637e-11 -7.020256e-11 -7.585818e-11 -8.552533e-11 -9.241312e-11 -1.041223e-10 -1.125305e-10 -1.267068e-10 -1.369612e-10 -1.541722e-10 -1.666602e-10 -1.875664e-10 -2.027520e-10 -2.281531e-10 -2.466600e-10 -2.775068e-10 -2.999801e-10 -3.375078e-10 -3.648821e-10 -4.105023e-10 -4.438271e-10 -4.992901e-10 -5.398249e-10 -6.072775e-10 -6.565879e-10 -7.385976e-10 -7.986034e-10 -8.983302e-10 -9.713060e-10 -1.092515e-09 -1.181297e-09 -1.328729e-09 -1.436767e-09 -1.616039e-09 -1.747438e-09 -1.965468e-09 -2.125319e-09 -2.390452e-09 -2.584933e-09 -2.907331e-09 -3.143951e-09 -3.536056e-09 -3.823922e-09 -4.300807e-09 -4.651070e-09 -5.231086e-09 -5.657314e-09 -6.362739e-09 -6.881338e-09 -7.739342e-09 -8.370424e-09 -9.414118e-09 -1.018213e-08 -1.145174e-08 -1.238647e-08 -1.393108e-08 -1.506889e-08 -1.694826e-08 -1.833339e-08 -2.062036e-08 -2.230680e-08 -2.509015e-08 -2.714392e-08 -3.053206e-08 -3.303380e-08 -3.715907e-08 -4.020722e-08 -4.523140e-08 -4.894671e-08 -5.506770e-08 -5.959804e-08 -6.705826e-08 -7.258520e-08 -8.168224e-08 -8.842921e-08 -9.952866e-08 -1.077711e-07 -1.213234e-07 -1.314018e-07 -1.479636e-07 -1.603002e-07 -1.805607e-07 -1.956814e-07 -2.204980e-07 -2.390602e-07 -2.695036e-07 -2.923338e-07 -3.297482e-07 -3.578914e-07 -4.039736e-07 -4.387607e-07 -4.956678e-07 -5.388063e-07 -6.093011e-07 -6.630018e-07 -7.506539e-07 -8.178074e-07 -9.272738e-07 -1.011700e-06 -1.149122e-06 -1.255930e-06 -1.429501e-06 -1.565612e-06 -1.786405e-06 -1.961323e-06 -2.244508e-06 -2.471476e-06 -2.838146e-06 -3.135898e-06 -3.615838e-06 -4.011317e-06 -4.647287e-06 -5.179900e-06 -6.034369e-06 -6.762814e-06 -7.928762e-06 -8.942164e-06 -1.056076e-05 -1.199729e-05 -1.428752e-05 -1.636620e-05 -1.967576e-05 -2.275248e-05 -2.764769e-05 -3.231644e-05 -3.974604e-05 -4.702825e-05 -5.863197e-05 -7.034330e-05 -8.905478e-05 -1.085437e-04 -1.398164e-04 -1.735142e-04 -2.279208e-04 -2.887428e-04 -3.877333e-04 -5.029055e-04 -6.922361e-04 -9.226787e-04 -1.307324e-03 -1.806848e-03 -2.677396e-03 -3.980907e-03 -6.551034e-03 -1.147668e-02 -2.252106e-02 -4.653860e-02 -9.775108e-02 -1.970562e-01 -3.605710e-01 -5.648170e-01 -5.998086e-01 4.100851e-01 