# vtk DataFile Version 2.0
Comment goes here
ASCII

DATASET STRUCTURED_POINTS
FIELD FieldData 1
TIME 1 1 double
0.07500000
DIMENSIONS    384   64   1

ORIGIN    0.000   0.000   0.000
SPACING   0.078125 0.078125   1.000

POINT_DATA   24576
SCALARS Omega double
LOOKUP_TABLE default

-3.681493e-08 -1.160818e-06 -2.839232e-05 -2.850241e-05 -8.421914e-06 -2.150550e-06 -7.577192e-08 2.330443e-08 1.287102e-07 3.163943e-08 4.666209e-08 8.352880e-09 1.820574e-08 1.911574e-09 8.754453e-09 4.632360e-10 5.253843e-09 5.926473e-10 3.988639e-09 1.404955e-09 3.749459e-09 2.630684e-09 4.070565e-09 4.154825e-09 4.729702e-09 5.871994e-09 5.576319e-09 7.625649e-09 6.459368e-09 9.180883e-09 7.196537e-09 1.022967e-08 7.574584e-09 1.043828e-08 7.382698e-09 9.539661e-09 6.475559e-09 7.448266e-09 4.843943e-09 4.344261e-09 2.653965e-09 6.674293e-10 2.209090e-10 -2.997044e-09 -2.079521e-09 -6.089331e-09 -3.919901e-09 -8.220401e-09 -5.100042e-09 -9.238616e-09 -5.572142e-09 -9.213680e-09 -5.417758e-09 -8.367676e-09 -4.798562e-09 -6.990740e-09 -3.903128e-09 -5.368761e-09 -2.905067e-09 -3.736454e-09 -1.938489e-09 -2.256926e-09 -1.090059e-09 -1.021930e-09 -4.027407e-10 -6.441619e-11 1.141004e-10 6.241663e-10 4.730807e-10 1.076926e-09 6.985294e-10 1.337974e-09 8.187545e-10 1.452963e-09 8.611344e-10 1.463414e-09 8.495466e-10 1.404043e-09 8.032045e-10 1.302099e-09 7.367692e-10 1.177785e-09 6.608383e-10 1.045318e-09 5.826402e-10 9.141986e-10 5.068790e-10 7.902886e-10 4.363330e-10 6.768859e-10 3.724476e-10 5.754588e-10 3.157666e-10 4.862908e-10 2.662355e-10 4.089235e-10 2.234741e-10 3.424992e-10 1.868932e-10 2.859362e-10 1.558414e-10 2.380594e-10 1.296245e-10 1.977751e-10 1.076026e-10 1.640080e-10 8.917729e-11 1.358007e-10 7.379933e-11 1.123217e-10 6.100751e-11 9.279801e-11 5.039171e-11 7.660558e-11 4.158916e-11 6.319814e-11 3.430506e-11 5.210589e-11 2.827476e-11 4.294209e-11 2.329723e-11 3.536959e-11 1.918030e-11 2.912417e-11 1.579834e-11 2.397618e-11 1.301116e-11 1.973305e-11 1.070641e-11 1.624974e-11 8.812659e-12 1.337307e-11 7.248589e-12 1.100450e-11 5.965001e-12 9.050237e-12 4.914643e-12 7.441445e-12 4.042315e-12 6.119607e-12 3.321017e-12 5.036469e-12 2.725866e-12 4.136599e-12 2.247054e-12 3.403511e-12 1.842169e-12 2.801173e-12 1.523813e-12 2.302508e-12 1.248834e-12 1.887076e-12 1.021994e-12 1.560900e-12 8.386612e-13 1.281855e-12 6.941317e-13 1.051545e-12 5.756625e-13 8.724123e-13 4.750782e-13 7.065319e-13 3.936994e-13 5.828701e-13 3.179518e-13 4.817858e-13 2.601413e-13 3.876994e-13 2.097997e-13 3.216202e-13 1.653780e-13 2.710817e-13 1.485378e-13 2.177844e-13 1.195811e-13 1.774423e-13 9.024851e-14 1.464338e-13 8.268993e-14 1.273299e-13 6.238068e-14 9.843730e-14 5.763542e-14 8.630009e-14 4.571611e-14 6.918566e-14 4.067330e-14 5.746554e-14 2.964327e-14 4.660706e-14 1.791763e-14 3.572412e-14 1.747926e-14 2.771504e-14 7.427636e-15 2.683078e-14 3.972159e-15 1.498657e-14 1.292957e-14 8.331573e-15 9.888397e-15 1.344194e-14 1.689870e-15 3.617408e-15 1.643940e-15 5.889571e-15 4.889499e-16 5.812050e-15 3.324771e-15 5.330917e-15 1.134285e-14 1.113097e-14 1.671869e-15 4.196871e-15 3.805044e-16 5.844012e-15 4.784497e-15 8.486900e-15 -9.876901e-16 5.799889e-15 1.301155e-15 -1.837734e-15 -1.481656e-15 -4.701354e-16 5.431022e-16 2.417717e-15 -1.155872e-15 -2.167904e-15 1.838375e-15 9.268655e-16 -5.869541e-16 1.199959e-15 9.079498e-15 3.166408e-15 1.391815e-15 -1.751277e-15 2.751906e-15 -1.077249e-14 -1.137122e-14 -2.048985e-15 -4.661762e-15 -2.678142e-15 -5.898971e-15 -1.120389e-15 -3.845499e-15 -3.249011e-15 -4.732358e-15 8.216373e-16 -1.824029e-15 -4.203152e-15 -6.033690e-15 -2.091730e-15 -1.585866e-15 -6.970119e-16 -3.270705e-15 -8.294291e-16 7.453384e-16 -2.228440e-15 -3.535990e-15 -6.522739e-15 6.761424e-15 1.586007e-16 -2.851096e-15 -2.561176e-15 1.352839e-15 -4.643874e-15 -1.018636e-14 5.975250e-15 -6.662598e-15 -9.011409e-15 -6.972549e-15 -2.778180e-15 -4.525709e-15 4.035206e-15 3.851893e-15 -2.254218e-15 7.828120e-16 -1.410996e-15 -4.130690e-15 5.101668e-17 -3.851637e-16 2.330653e-15 4.647945e-15 -4.923789e-15 2.247987e-15 2.629308e-15 2.099000e-15 -1.800674e-15 1.106544e-15 -3.463627e-15 7.076777e-16 -6.906214e-16 2.995399e-15 1.354506e-15 1.221186e-14 1.039089e-14 1.042291e-14 7.571932e-16 1.324915e-14 1.252506e-14 1.894533e-14 7.272046e-15 2.099951e-14 1.151970e-14 2.716777e-14 1.179415e-14 2.521182e-14 1.963103e-14 3.822977e-14 2.150045e-14 4.530032e-14 2.959118e-14 5.812591e-14 3.195017e-14 6.350777e-14 4.559696e-14 7.930995e-14 5.072572e-14 9.385091e-14 6.146833e-14 1.234439e-13 8.236836e-14 1.505115e-13 9.877500e-14 1.849972e-13 1.191339e-13 2.290792e-13 1.524901e-13 2.735045e-13 1.849234e-13 3.429691e-13 2.337031e-13 4.198215e-13 2.921026e-13 5.224533e-13 3.756346e-13 6.518491e-13 4.787752e-13 8.177074e-13 6.051814e-13 1.020881e-12 7.852298e-13 1.298060e-12 1.025872e-12 1.649357e-12 1.357566e-12 2.119656e-12 1.808276e-12 2.756035e-12 2.444779e-12 3.603129e-12 3.343807e-12 4.758935e-12 4.642774e-12 6.398987e-12 6.548409e-12 8.716750e-12 9.385751e-12 1.205456e-11 1.369887e-11 1.698986e-11 2.040224e-11 2.444982e-11 3.112352e-11 3.603588e-11 4.881090e-11 5.463718e-11 7.932174e-11 8.584520e-11 1.351650e-10 1.413260e-10 2.462703e-10 2.483986e-10 4.951881e-10 4.781621e-10 1.138833e-09 1.004851e-09 3.017196e-09 2.386830e-09 1.142050e-08 1.919360e-08 9.145942e-08 2.017525e-07 4.512349e-07 
-2.112715e+01 -1.427351e+01 -2.152918e+01 -1.745075e+01 -3.889338e+00 -8.021707e-01 -1.063148e-01 1.133325e-02 2.156403e-02 1.312265e-02 7.166518e-03 3.615841e-03 1.940895e-03 1.053281e-03 6.210034e-04 3.738220e-04 2.413070e-04 1.576298e-04 1.089752e-04 7.545307e-05 5.490941e-05 3.963574e-05 3.000763e-05 2.233345e-05 1.744289e-05 1.328540e-05 1.063280e-05 8.246558e-06 6.724137e-06 5.295145e-06 4.376689e-06 3.496493e-06 2.918794e-06 2.368083e-06 1.994354e-06 1.647043e-06 1.403798e-06 1.182289e-06 1.028315e-06 8.821494e-07 7.927156e-07 6.882845e-07 6.471131e-07 5.624097e-07 5.576493e-07 4.790939e-07 5.012431e-07 4.213724e-07 4.621371e-07 3.778397e-07 4.295624e-07 3.407981e-07 3.963854e-07 3.052611e-07 3.585260e-07 2.685085e-07 3.146931e-07 2.297993e-07 2.659603e-07 1.899391e-07 2.149860e-07 1.506438e-07 1.650300e-07 1.138555e-07 1.190686e-07 8.119836e-08 7.923021e-08 5.368370e-08 4.660040e-08 3.165434e-08 2.131849e-08 1.489544e-08 2.827439e-09 2.816677e-09 -9.839151e-09 -5.362842e-09 -1.780883e-08 -1.046660e-08 -2.219247e-08 -1.326247e-08 -2.397856e-08 -1.440986e-08 -2.398538e-08 -1.444098e-08 -2.285264e-08 -1.376411e-08 -2.105675e-08 -1.267898e-08 -1.893667e-08 -1.139614e-08 -1.672222e-08 -1.005701e-08 -1.456084e-08 -8.751432e-09 -1.254007e-08 -7.532286e-09 -1.070625e-08 -6.427170e-09 -9.076909e-09 -5.446328e-09 -7.652598e-09 -4.589719e-09 -6.422420e-09 -3.850419e-09 -5.370101e-09 -3.218455e-09 -4.476692e-09 -2.682225e-09 -3.722729e-09 -2.229939e-09 -3.089483e-09 -1.850232e-09 -2.559775e-09 -1.532711e-09 -2.118043e-09 -1.267985e-09 -1.750460e-09 -1.047744e-09 -1.445399e-09 -8.651360e-10 -1.192628e-09 -7.136717e-10 -9.833690e-10 -5.884274e-10 -8.104889e-10 -4.848895e-10 -6.676783e-10 -3.995549e-10 -5.499476e-10 -3.290144e-10 -4.527158e-10 -2.707426e-10 -3.725933e-10 -2.228630e-10 -3.066043e-10 -1.833788e-10 -2.522777e-10 -1.508654e-10 -2.075353e-10 -1.241149e-10 -1.707207e-10 -1.021293e-10 -1.404961e-10 -8.397415e-11 -1.155260e-10 -6.912600e-11 -9.508033e-11 -5.683755e-11 -7.816266e-11 -4.671833e-11 -6.425012e-11 -3.840095e-11 -5.283281e-11 -3.158229e-11 -4.345258e-11 -2.598482e-11 -3.574026e-11 -2.138440e-11 -2.939286e-11 -1.758883e-11 -2.414109e-11 -1.441740e-11 -1.980755e-11 -1.186137e-11 -1.632152e-11 -9.756752e-12 -1.343273e-11 -8.063936e-12 -1.104887e-11 -6.619022e-12 -9.051520e-12 -5.425479e-12 -7.458844e-12 -4.490363e-12 -6.197187e-12 -3.689991e-12 -5.064458e-12 -3.062636e-12 -4.203880e-12 -2.524682e-12 -3.475157e-12 -2.098122e-12 -2.839817e-12 -1.695007e-12 -2.359194e-12 -1.443053e-12 -1.972718e-12 -1.212304e-12 -1.674897e-12 -1.075880e-12 -1.450810e-12 -9.763819e-13 -1.254764e-12 -8.202254e-13 -1.047276e-12 -6.856145e-13 -9.595880e-13 -6.786867e-13 -8.369009e-13 -6.091720e-13 -8.159991e-13 -6.210440e-13 -7.784884e-13 -6.194970e-13 -8.026468e-13 -6.961394e-13 -8.681944e-13 -7.861600e-13 -9.514463e-13 -8.853622e-13 -1.120019e-12 -1.109350e-12 -1.315166e-12 -1.236859e-12 -1.456620e-12 -1.474788e-12 -1.722838e-12 -1.719327e-12 -2.000168e-12 -2.082377e-12 -2.477860e-12 -2.523979e-12 -2.966431e-12 -2.993770e-12 -3.555828e-12 -3.668496e-12 -4.342117e-12 -4.439118e-12 -5.236141e-12 -5.397927e-12 -6.392479e-12 -6.551715e-12 -7.737055e-12 -7.961424e-12 -9.395817e-12 -9.662967e-12 -1.142988e-11 -1.176860e-11 -1.396761e-11 -1.437915e-11 -1.692988e-11 -1.738409e-11 -2.055483e-11 -2.118892e-11 -2.500818e-11 -2.572172e-11 -3.038516e-11 -3.125507e-11 -3.695899e-11 -3.802920e-11 -4.494187e-11 -4.625723e-11 -5.463898e-11 -5.620495e-11 -6.645549e-11 -6.842615e-11 -8.095596e-11 -8.327233e-11 -9.845525e-11 -1.012253e-10 -1.196271e-10 -1.230469e-10 -1.454511e-10 -1.496080e-10 -1.768630e-10 -1.819841e-10 -2.151073e-10 -2.213384e-10 -2.616557e-10 -2.691914e-10 -3.181892e-10 -3.273719e-10 -3.869815e-10 -3.981711e-10 -4.705852e-10 -4.841485e-10 -5.723263e-10 -5.889611e-10 -6.961762e-10 -7.163345e-10 -8.467591e-10 -8.713347e-10 -1.029961e-09 -1.059883e-09 -1.252839e-09 -1.289252e-09 -1.523956e-09 -1.568347e-09 -1.854001e-09 -1.908168e-09 -2.255800e-09 -2.321711e-09 -2.744502e-09 -2.825048e-09 -3.339646e-09 -3.438028e-09 -4.064407e-09 -4.184627e-09 -4.947179e-09 -5.094240e-09 -6.022846e-09 -6.202947e-09 -7.334020e-09 -7.554913e-09 -8.933255e-09 -9.204582e-09 -1.088477e-08 -1.121886e-08 -1.326815e-08 -1.368038e-08 -1.618140e-08 -1.669142e-08 -1.974610e-08 -2.037956e-08 -2.411382e-08 -2.490337e-08 -2.947356e-08 -3.046247e-08 -3.606306e-08 -3.730817e-08 -4.418265e-08 -4.576024e-08 -5.421496e-08 -5.622772e-08 -6.665033e-08 -6.923886e-08 -8.212378e-08 -8.548220e-08 -1.014654e-07 -1.058655e-07 -1.257727e-07 -1.315993e-07 -1.565152e-07 -1.643194e-07 -1.956857e-07 -2.062676e-07 -2.460278e-07 -2.605626e-07 -3.113773e-07 -3.316144e-07 -3.971876e-07 -4.257669e-07 -5.113525e-07 -5.523175e-07 -6.655193e-07 -7.251632e-07 -8.772352e-07 -9.655285e-07 -1.173537e-06 -1.306596e-06 -1.597126e-06 -1.801600e-06 -2.217320e-06 -2.538444e-06 -3.150166e-06 -3.667087e-06 -4.596865e-06 -5.453079e-06 -6.920655e-06 -8.387527e-06 -1.080914e-05 -1.342656e-05 -1.763984e-05 -2.255080e-05 -3.037020e-05 -4.019051e-05 -5.592460e-05 -7.726701e-05 -1.124085e-04 -1.642706e-04 -2.543093e-04 -4.008181e-04 -6.768944e-04 -1.182189e-03 -2.250386e-03 -4.530561e-03 -1.020854e-02 -2.505053e-02 -6.909796e-02 -2.018534e-01 -6.158196e-01 -1.848487e+00 -5.582799e+00 -1.736435e+01 
5.149283e-01 -4.113015e-02 3.416692e-01 -2.347908e-01 -1.274701e+00 -6.162956e-01 -1.890886e-01 -4.155215e-02 -9.866352e-04 4.920954e-03 4.330595e-03 2.668800e-03 1.681312e-03 9.907161e-04 6.448728e-04 4.008580e-04 2.771171e-04 1.816132e-04 1.321581e-04 9.043171e-05 6.858453e-05 4.862315e-05 3.813834e-05 2.787333e-05 2.247853e-05 1.689194e-05 1.393870e-05 1.076290e-05 9.045597e-06 7.179364e-06 6.114631e-06 4.987625e-06 4.280530e-06 3.579615e-06 3.078067e-06 2.622644e-06 2.249180e-06 1.931782e-06 1.648686e-06 1.405105e-06 1.194873e-06 9.877571e-07 8.417656e-07 6.506327e-07 5.630822e-07 3.779636e-07 3.432705e-07 1.608407e-07 1.728344e-07 -5.813784e-09 4.584468e-08 -1.249443e-07 -4.180067e-08 -1.990124e-07 -9.395700e-08 -2.317557e-07 -1.154906e-07 -2.293930e-07 -1.127650e-07 -2.006098e-07 -9.320866e-08 -1.553738e-07 -6.430019e-08 -1.032679e-07 -3.251919e-08 -5.209794e-08 -2.669228e-09 -7.186694e-09 2.230386e-08 2.863965e-08 4.109934e-08 5.460081e-08 5.364040e-08 7.132328e-08 6.061392e-08 8.022130e-08 6.307732e-08 8.300884e-08 6.217549e-08 8.137301e-08 5.896702e-08 7.679137e-08 5.433847e-08 7.045652e-08 4.897877e-08 6.326939e-08 4.338940e-08 5.587008e-08 3.791197e-08 4.868470e-08 3.276157e-08 4.197437e-08 2.805875e-08 3.587962e-08 2.385691e-08 3.045698e-08 2.016421e-08 2.570756e-08 1.696053e-08 2.159839e-08 1.420909e-08 1.807721e-08 1.186514e-08 1.508304e-08 9.881233e-09 1.255261e-08 8.210830e-09 1.042469e-08 6.810340e-09 8.642474e-09 5.640219e-09 7.154706e-09 4.665341e-09 5.916071e-09 3.855000e-09 4.887132e-09 3.182773e-09 4.033960e-09 2.625920e-09 3.327454e-09 2.165216e-09 2.743242e-09 1.784532e-09 2.260566e-09 1.470176e-09 1.862147e-09 1.210815e-09 1.533421e-09 9.969094e-10 1.262443e-09 8.206675e-10 1.039176e-09 6.754406e-10 8.551976e-10 5.558363e-10 7.037153e-10 4.573515e-10 5.790073e-10 3.762834e-10 4.763405e-10 3.095522e-10 3.918319e-10 2.546156e-10 3.223016e-10 2.094336e-10 2.650821e-10 1.722377e-10 2.180178e-10 1.416649e-10 1.793109e-10 1.165286e-10 1.474881e-10 9.584389e-11 1.212874e-10 7.881848e-11 9.973497e-11 6.481651e-11 8.201750e-11 5.328966e-11 6.744547e-11 4.383762e-11 5.547565e-11 3.605948e-11 4.561975e-11 2.965251e-11 3.752186e-11 2.438273e-11 3.084802e-11 2.004692e-11 2.535692e-11 1.649381e-11 2.083914e-11 1.352708e-11 1.710912e-11 1.109004e-11 1.405604e-11 9.133378e-12 1.155453e-11 7.489775e-12 9.490016e-12 6.140298e-12 7.777708e-12 5.037306e-12 6.403161e-12 4.133003e-12 5.228384e-12 3.351193e-12 4.264977e-12 2.718736e-12 3.441536e-12 2.166001e-12 2.773130e-12 1.741972e-12 2.244827e-12 1.383587e-12 1.787785e-12 1.048717e-12 1.379208e-12 7.773486e-13 1.052654e-12 5.161353e-13 7.331210e-13 2.908155e-13 4.657515e-13 5.992614e-14 1.861317e-13 -1.703693e-13 -7.542023e-14 -4.023272e-13 -3.370508e-13 -6.869107e-13 -6.602052e-13 -9.718444e-13 -9.321141e-13 -1.238778e-12 -1.262564e-12 -1.579194e-12 -1.610193e-12 -1.965747e-12 -2.051537e-12 -2.475497e-12 -2.583918e-12 -3.074468e-12 -3.199033e-12 -3.774241e-12 -3.957451e-12 -4.632965e-12 -4.841494e-12 -5.644218e-12 -5.928421e-12 -6.900377e-12 -7.230740e-12 -8.407032e-12 -8.826795e-12 -1.023683e-11 -1.074057e-11 -1.247119e-11 -1.309698e-11 -1.521275e-11 -1.598512e-11 -1.849200e-11 -1.938883e-11 -2.247515e-11 -2.359326e-11 -2.733171e-11 -2.869367e-11 -3.324061e-11 -3.491124e-11 -4.043424e-11 -4.246675e-11 -4.919668e-11 -5.168214e-11 -5.984608e-11 -6.284264e-11 -7.279908e-11 -7.647345e-11 -8.857155e-11 -9.302652e-11 -1.077348e-10 -1.131360e-10 -1.310059e-10 -1.375830e-10 -1.593291e-10 -1.673370e-10 -1.937641e-10 -2.035178e-10 -2.356670e-10 -2.475388e-10 -2.866278e-10 -3.010644e-10 -3.486125e-10 -3.661831e-10 -4.240245e-10 -4.454006e-10 -5.157083e-10 -5.416990e-10 -6.272607e-10 -6.589291e-10 -7.629851e-10 -8.015105e-10 -9.280792e-10 -9.750026e-10 -1.129007e-09 -1.186095e-09 -1.373442e-09 -1.442958e-09 -1.670893e-09 -1.755565e-09 -2.032968e-09 -2.136105e-09 -2.473726e-09 -2.599333e-09 -3.010237e-09 -3.163324e-09 -3.663646e-09 -3.850278e-09 -4.459556e-09 -4.687194e-09 -5.429390e-09 -5.707186e-09 -6.611654e-09 -6.950850e-09 -8.053555e-09 -8.468062e-09 -9.813208e-09 -1.032024e-08 -1.196216e-08 -1.258309e-08 -1.458890e-08 -1.535035e-08 -1.780303e-08 -1.873832e-08 -2.174091e-08 -2.289210e-08 -2.657302e-08 -2.799320e-08 -3.251330e-08 -3.427038e-08 -3.983212e-08 -4.201329e-08 -4.887334e-08 -5.159185e-08 -6.007771e-08 -6.348181e-08 -7.401497e-08 -7.830103e-08 -9.142880e-08 -9.685985e-08 -1.133004e-07 -1.202332e-07 -1.409393e-07 -1.498641e-07 -1.761161e-07 -1.877158e-07 -2.212559e-07 -2.364955e-07 -2.797294e-07 -2.999932e-07 -3.562929e-07 -3.835978e-07 -4.577657e-07 -4.950985e-07 -5.940927e-07 -6.459537e-07 -7.800385e-07 -8.533350e-07 -1.037950e-06 -1.143497e-06 -1.402360e-06 -1.557465e-06 -1.927855e-06 -2.160887e-06 -2.702911e-06 -3.061642e-06 -3.875003e-06 -4.442349e-06 -5.697837e-06 -6.622757e-06 -8.623899e-06 -1.018479e-05 -1.349442e-05 -1.623595e-05 -2.195079e-05 -2.699716e-05 -3.738248e-05 -4.720536e-05 -6.727497e-05 -8.773248e-05 -1.295357e-04 -1.758167e-04 -2.713046e-04 -3.873325e-04 -6.322839e-04 -9.661847e-04 -1.712430e-03 -2.962855e-03 -6.284394e-03 -1.448709e-02 -4.117533e-02 -1.212631e-01 -3.583585e-01 -9.199585e-01 -1.797524e+00 -1.699185e-01 
-2.110051e+00 -1.350420e-02 -2.264237e+00 -2.341396e+00 -1.048794e+00 -4.393594e-01 -1.451344e-01 -3.099297e-02 1.576151e-03 7.244752e-03 6.113557e-03 4.164154e-03 2.719598e-03 1.747506e-03 1.154793e-03 7.658908e-04 5.278022e-04 3.642823e-04 2.617601e-04 1.872026e-04 1.395923e-04 1.028159e-04 7.913455e-05 5.968614e-05 4.717056e-05 3.626111e-05 2.927720e-05 2.285897e-05 1.876189e-05 1.484897e-05 1.233217e-05 9.890893e-06 8.283120e-06 6.742432e-06 5.688564e-06 4.711934e-06 4.018877e-06 3.394362e-06 2.952593e-06 2.539574e-06 2.282354e-06 1.985890e-06 1.868499e-06 1.626082e-06 1.615469e-06 1.388530e-06 1.457840e-06 1.225175e-06 1.350506e-06 1.103215e-06 1.261891e-06 9.998721e-07 1.170312e-06 8.998664e-07 1.062891e-06 7.946251e-07 9.354090e-07 6.818173e-07 7.913021e-07 5.641418e-07 6.391885e-07 4.472581e-07 4.895852e-07 3.374980e-07 3.519794e-07 2.400827e-07 2.330299e-07 1.581997e-07 1.360241e-07 9.288536e-08 6.126634e-08 4.342524e-08 6.928349e-09 7.962553e-09 -3.002543e-08 -1.591254e-08 -5.306546e-08 -3.070703e-08 -6.556202e-08 -3.873222e-08 -7.047893e-08 -4.195344e-08 -7.024498e-08 -4.194342e-08 -6.674250e-08 -3.989962e-08 -6.136190e-08 -3.669448e-08 -5.508464e-08 -3.293711e-08 -4.857124e-08 -2.903366e-08 -4.224164e-08 -2.524045e-08 -3.634277e-08 -2.170699e-08 -3.100174e-08 -1.850968e-08 -2.626562e-08 -1.567629e-08 -2.213106e-08 -1.320430e-08 -1.856452e-08 -1.107308e-08 -1.551650e-08 -9.252639e-09 -1.293078e-08 -7.708990e-09 -1.075004e-08 -6.407601e-09 -8.919488e-09 -5.315540e-09 -7.388681e-09 -4.402592e-09 -6.112501e-09 -3.641639e-09 -5.051192e-09 -3.008965e-09 -4.170428e-09 -2.484064e-09 -3.440756e-09 -2.049210e-09 -2.836962e-09 -1.689473e-09 -2.337970e-09 -1.392153e-09 -1.925935e-09 -1.146782e-09 -1.586025e-09 -9.442863e-10 -1.305688e-09 -7.773117e-10 -1.074668e-09 -6.397494e-10 -8.843539e-10 -5.264250e-10 -7.276213e-10 -4.330945e-10 -5.985969e-10 -3.562761e-10 -4.924013e-10 -2.930691e-10 -4.050387e-10 -2.410478e-10 -3.331091e-10 -1.982402e-10 -2.739532e-10 -1.630294e-10 -2.253008e-10 -1.340600e-10 -1.852726e-10 -1.102390e-10 -1.523433e-10 -9.063657e-11 -1.252631e-10 -7.451745e-11 -1.029926e-10 -6.127634e-11 -8.467773e-11 -5.037759e-11 -6.962888e-11 -4.141901e-11 -5.726646e-11 -3.406972e-11 -4.709148e-11 -2.801988e-11 -3.872586e-11 -2.303387e-11 -3.184999e-11 -1.895817e-11 -2.618675e-11 -1.560593e-11 -2.155623e-11 -1.283196e-11 -1.776113e-11 -1.058184e-11 -1.461010e-11 -8.719003e-12 -1.205910e-11 -7.232700e-12 -1.000348e-11 -6.019688e-12 -8.255426e-12 -4.967789e-12 -6.854931e-12 -4.169702e-12 -5.735856e-12 -3.511088e-12 -4.792848e-12 -3.001688e-12 -4.064008e-12 -2.575051e-12 -3.482756e-12 -2.248670e-12 -3.029960e-12 -2.030589e-12 -2.715102e-12 -1.911893e-12 -2.485715e-12 -1.839418e-12 -2.405542e-12 -1.867366e-12 -2.363620e-12 -1.920005e-12 -2.409095e-12 -2.079803e-12 -2.561965e-12 -2.295630e-12 -2.801581e-12 -2.599432e-12 -3.168125e-12 -3.035801e-12 -3.663440e-12 -3.549997e-12 -4.258416e-12 -4.249411e-12 -5.053279e-12 -5.068241e-12 -6.030020e-12 -6.108320e-12 -7.251368e-12 -7.388473e-12 -8.757702e-12 -8.922298e-12 -1.056887e-11 -1.081713e-11 -1.280673e-11 -1.311531e-11 -1.552795e-11 -1.595016e-11 -1.888026e-11 -1.937342e-11 -2.293161e-11 -2.356636e-11 -2.788205e-11 -2.865222e-11 -3.388140e-11 -3.484075e-11 -4.119851e-11 -4.239103e-11 -5.009632e-11 -5.150485e-11 -6.088869e-11 -6.262920e-11 -7.403056e-11 -7.615251e-11 -9.001866e-11 -9.259740e-11 -1.094693e-10 -1.126115e-10 -1.331233e-10 -1.369626e-10 -1.619081e-10 -1.665516e-10 -1.969050e-10 -2.025682e-10 -2.394724e-10 -2.463786e-10 -2.912400e-10 -2.996273e-10 -3.541846e-10 -3.643794e-10 -4.307557e-10 -4.431754e-10 -5.238382e-10 -5.389505e-10 -6.370690e-10 -6.554610e-10 -7.747738e-10 -7.971319e-10 -9.422591e-10 -9.694701e-10 -1.145972e-09 -1.179101e-09 -1.393740e-09 -1.434032e-09 -1.695131e-09 -1.744222e-09 -2.061748e-09 -2.121471e-09 -2.507682e-09 -2.580426e-09 -3.050222e-09 -3.138785e-09 -3.710244e-09 -3.818132e-09 -4.513289e-09 -4.644749e-09 -5.490498e-09 -5.650752e-09 -6.679741e-09 -6.875156e-09 -8.127227e-09 -8.365631e-09 -9.889399e-09 -1.018049e-08 -1.203515e-08 -1.239080e-08 -1.464865e-08 -1.508364e-08 -1.783297e-08 -1.836556e-08 -2.171426e-08 -2.236722e-08 -2.644739e-08 -2.724931e-08 -3.222272e-08 -3.320942e-08 -3.927468e-08 -4.049162e-08 -4.789287e-08 -4.939786e-08 -5.843596e-08 -6.030338e-08 -7.135003e-08 -7.367596e-08 -8.719200e-08 -9.010208e-08 -1.066607e-07 -1.103207e-07 -1.306385e-07 -1.352692e-07 -1.602464e-07 -1.661457e-07 -1.969202e-07 -2.044938e-07 -2.425144e-07 -2.523217e-07 -2.994482e-07 -3.122698e-07 -3.709118e-07 -3.878499e-07 -4.611635e-07 -4.837928e-07 -5.759608e-07 -6.065590e-07 -7.232006e-07 -7.651027e-07 -9.138799e-07 -9.720319e-07 -1.163563e-06 -1.245399e-06 -1.494667e-06 -1.611520e-06 -1.940081e-06 -2.109495e-06 -2.549032e-06 -2.798628e-06 -3.396801e-06 -3.770890e-06 -4.601235e-06 -5.172425e-06 -6.351619e-06 -7.241780e-06 -8.960760e-06 -1.038016e-05 -1.296235e-05 -1.528543e-05 -1.930031e-05 -2.321875e-05 -2.971387e-05 -3.656062e-05 -4.756108e-05 -6.003396e-05 -7.968126e-05 -1.035564e-04 -1.408712e-04 -1.893220e-04 -2.653418e-04 -3.705123e-04 -5.377983e-04 -7.833999e-04 -1.181423e-03 -1.797980e-03 -2.819825e-03 -4.519339e-03 -7.608777e-03 -1.410379e-02 -3.010624e-02 -7.505052e-02 -1.956575e-01 -4.870016e-01 -1.060249e+00 -2.197041e+00 
3.419234e-01 1.848932e-03 2.792682e-01 9.344968e-02 -3.732651e-01 -2.337337e-01 -9.624939e-02 -2.927372e-02 -5.305635e-03 1.085649e-03 2.227176e-03 1.835274e-03 1.411274e-03 9.685173e-04 7.105468e-04 4.853732e-04 3.614847e-04 2.515626e-04 1.920400e-04 1.367387e-04 1.070854e-04 7.804223e-05 6.259900e-05 4.668239e-05 3.826142e-05 2.920758e-05 2.439283e-05 1.908585e-05 1.618591e-05 1.300226e-05 1.114711e-05 9.198643e-06 7.928970e-06 6.705605e-06 5.778661e-06 4.975205e-06 4.267437e-06 3.697630e-06 3.151112e-06 2.702687e-06 2.292531e-06 1.900813e-06 1.615179e-06 1.245544e-06 1.075212e-06 7.114226e-07 6.461078e-07 2.834441e-07 3.113593e-07 -4.687270e-08 6.093513e-08 -2.836120e-07 -1.116097e-07 -4.296538e-07 -2.124924e-07 -4.909334e-07 -2.507210e-07 -4.795971e-07 -2.392674e-07 -4.139743e-07 -1.938907e-07 -3.155372e-07 -1.305541e-07 -2.047955e-07 -6.289993e-08 -9.807570e-08 -7.495054e-10 -6.076432e-09 5.017722e-08 6.594761e-08 8.765908e-08 1.170208e-07 1.119669e-07 1.489660e-07 1.248381e-07 1.650582e-07 1.286481e-07 1.690190e-07 1.258424e-07 1.643800e-07 1.186114e-07 1.541533e-07 1.087447e-07 1.407178e-07 9.760374e-08 1.258358e-07 8.615981e-08 1.107356e-07 7.506066e-08 9.621729e-08 6.470330e-08 8.275761e-08 5.530083e-08 7.060066e-08 4.693823e-08 5.983149e-08 3.961579e-08 5.043211e-08 3.328164e-08 4.232251e-08 2.785467e-08 3.538913e-08 2.324037e-08 2.950425e-08 1.934108e-08 2.453833e-08 1.606223e-08 2.036755e-08 1.331623e-08 1.687794e-08 1.102399e-08 1.396732e-08 9.115601e-09 1.154575e-08 7.530291e-09 9.535264e-09 6.215733e-09 7.868914e-09 5.127270e-09 6.489699e-09 4.227100e-09 5.349488e-09 3.483442e-09 4.407729e-09 2.869535e-09 3.630508e-09 2.363103e-09 2.989426e-09 1.945533e-09 2.460985e-09 1.601441e-09 2.025561e-09 1.317977e-09 1.666906e-09 1.084531e-09 1.371562e-09 8.923248e-10 1.128424e-09 7.341101e-10 9.282950e-10 6.039030e-10 7.635988e-10 4.967423e-10 6.281054e-10 4.086006e-10 5.166115e-10 3.360809e-10 4.249082e-10 2.764044e-10 3.494534e-10 2.273220e-10 2.873844e-10 1.869492e-10 2.363425e-10 1.537474e-10 1.943754e-10 1.264467e-10 1.598340e-10 1.039981e-10 1.314475e-10 8.551436e-11 1.080985e-10 7.032110e-11 8.888838e-11 5.782470e-11 7.308191e-11 4.753532e-11 6.008802e-11 3.908532e-11 4.939868e-11 3.213737e-11 4.061810e-11 2.642333e-11 3.340672e-11 2.172009e-11 2.745878e-11 1.783884e-11 2.254826e-11 1.462667e-11 1.849000e-11 1.197474e-11 1.515675e-11 9.816511e-12 1.243246e-11 8.027355e-12 1.017184e-11 6.537504e-12 8.312055e-12 5.310371e-12 6.754915e-12 4.279070e-12 5.476463e-12 3.415490e-12 4.394166e-12 2.689582e-12 3.478249e-12 2.043958e-12 2.687058e-12 1.496085e-12 2.002916e-12 9.727182e-13 1.383434e-12 5.125419e-13 8.547237e-13 8.330744e-14 3.325155e-13 -3.431884e-13 -1.578589e-13 -7.922107e-13 -6.537641e-13 -1.255293e-12 -1.182061e-12 -1.783286e-12 -1.758109e-12 -2.385166e-12 -2.427056e-12 -3.102891e-12 -3.183235e-12 -3.916635e-12 -4.042153e-12 -4.885341e-12 -5.068793e-12 -6.028082e-12 -6.279141e-12 -7.398297e-12 -7.732104e-12 -9.064634e-12 -9.494843e-12 -1.109515e-11 -1.162629e-11 -1.355041e-11 -1.421108e-11 -1.651803e-11 -1.732165e-11 -2.012490e-11 -2.111934e-11 -2.449341e-11 -2.569964e-11 -2.979991e-11 -3.128229e-11 -3.626514e-11 -3.807565e-11 -4.410293e-11 -4.632430e-11 -5.367156e-11 -5.635691e-11 -6.526872e-11 -6.853012e-11 -7.938351e-11 -8.336043e-11 -9.654797e-11 -1.013894e-10 -1.174212e-10 -1.233084e-10 -1.428102e-10 -1.499963e-10 -1.737158e-10 -1.824443e-10 -2.112785e-10 -2.218918e-10 -2.569459e-10 -2.698668e-10 -3.125105e-10 -3.282324e-10 -3.800825e-10 -3.992026e-10 -4.622614e-10 -4.855427e-10 -5.622295e-10 -5.905376e-10 -6.838057e-10 -7.182546e-10 -8.316836e-10 -8.736207e-10 -1.011578e-09 -1.062597e-09 -1.230407e-09 -1.292529e-09 -1.496639e-09 -1.572216e-09 -1.820501e-09 -1.912488e-09 -2.214510e-09 -2.326500e-09 -2.693940e-09 -2.830272e-09 -3.277325e-09 -3.443335e-09 -3.987339e-09 -4.189538e-09 -4.851566e-09 -5.097880e-09 -5.903678e-09 -6.203806e-09 -7.184802e-09 -7.550674e-09 -8.745244e-09 -9.191375e-09 -1.064644e-08 -1.119077e-08 -1.296375e-08 -1.362829e-08 -1.578951e-08 -1.660141e-08 -1.923730e-08 -2.023010e-08 -2.344689e-08 -2.466225e-08 -2.859089e-08 -3.008060e-08 -3.488297e-08 -3.671182e-08 -4.258865e-08 -4.483811e-08 -5.203927e-08 -5.481225e-08 -6.365019e-08 -6.707773e-08 -7.794510e-08 -8.219523e-08 -9.558858e-08 -1.008787e-07 -1.174302e-07 -1.240440e-07 -1.445648e-07 -1.528769e-07 -1.784172e-07 -1.889272e-07 -2.208600e-07 -2.342426e-07 -2.743823e-07 -2.915604e-07 -3.423335e-07 -3.645862e-07 -4.292792e-07 -4.584041e-07 -5.415299e-07 -5.800903e-07 -6.879357e-07 -7.396420e-07 -8.811007e-07 -9.514083e-07 -1.139268e-06 -1.236330e-06 -1.489292e-06 -1.625509e-06 -1.971429e-06 -2.166011e-06 -2.647190e-06 -2.930497e-06 -3.612532e-06 -4.033602e-06 -5.020558e-06 -5.660503e-06 -7.121637e-06 -8.118196e-06 -1.033648e-05 -1.193046e-05 -1.539363e-05 -1.801974e-05 -2.359732e-05 -2.806870e-05 -3.736947e-05 -4.526680e-05 -6.138924e-05 -7.591346e-05 -1.050792e-04 -1.329824e-04 -1.881880e-04 -2.442206e-04 -3.534012e-04 -4.703063e-04 -6.934328e-04 -9.425272e-04 -1.405434e-03 -1.966139e-03 -3.107016e-03 -5.392342e-03 -1.229683e-02 -3.364520e-02 -9.279559e-02 -2.237820e-01 -3.644371e-01 1.372540e-01 