# vtk DataFile Version 2.0
Comment goes here
ASCII

DATASET STRUCTURED_POINTS
FIELD FieldData 1
TIME 1 1 double
0.67500000
DIMENSIONS    384   64   1

ORIGIN    0.000   0.000   0.000
SPACING   0.078125 0.078125   1.000

POINT_DATA   24576
SCALARS Omega double
LOOKUP_TABLE default

2.378815e-06 -5.226544e-04 -5.902856e-03 -8.141167e-03 -5.310819e-03 -2.488749e-03 -8.343742e-04 -1.770412e-04 -5.525457e-05 -1.229648e-04 -2.114212e-04 -2.621332e-04 -2.745822e-04 -2.624099e-04 -2.390444e-04 -2.124174e-04 -1.857812e-04 -1.607103e-04 -1.369549e-04 -1.152348e-04 -9.502186e-05 -7.722449e-05 -6.123886e-05 -4.788216e-05 -3.637399e-05 -2.727808e-05 -1.975450e-05 -1.411028e-05 -9.632599e-06 -6.402512e-06 -3.970714e-06 -2.216927e-06 -1.009000e-06 -4.526691e-08 5.026624e-07 1.101152e-06 1.316307e-06 1.776964e-06 1.812540e-06 2.244735e-06 2.145328e-06 2.600843e-06 2.355953e-06 2.859882e-06 2.444175e-06 3.002064e-06 2.404226e-06 2.998841e-06 2.239079e-06 2.829569e-06 1.964321e-06 2.493950e-06 1.607515e-06 2.018264e-06 1.204630e-06 1.452371e-06 7.940651e-07 8.583825e-07 4.099264e-07 2.961649e-07 7.698252e-08 -1.883299e-07 -1.912276e-07 -5.685777e-07 -3.913314e-07 -8.369859e-07 -5.274096e-07 -1.000588e-06 -6.079733e-07 -1.075426e-06 -6.434511e-07 -1.081392e-06 -6.444362e-07 -1.038385e-06 -6.206383e-07 -9.639611e-07 -5.803602e-07 -8.722582e-07 -5.303265e-07 -7.738190e-07 -4.757228e-07 -6.759448e-07 -4.203499e-07 -5.832877e-07 -3.668343e-07 -4.984887e-07 -3.168532e-07 -4.227569e-07 -2.713524e-07 -3.563422e-07 -2.307403e-07 -2.988972e-07 -1.950516e-07 -2.497347e-07 -1.640768e-07 -2.080059e-07 -1.374610e-07 -1.728147e-07 -1.147758e-07 -1.432872e-07 -9.556789e-08 -1.186112e-07 -7.939144e-08 -9.805555e-08 -6.582810e-08 -8.097587e-08 -5.449651e-08 -6.681361e-08 -4.505727e-08 -5.508953e-08 -3.721345e-08 -4.539682e-08 -3.070828e-08 -3.739215e-08 -2.532197e-08 -3.078738e-08 -2.086807e-08 -2.534120e-08 -1.718932e-08 -2.085339e-08 -1.415323e-08 -1.715667e-08 -1.164971e-08 -1.411284e-08 -9.586448e-09 -1.160753e-08 -7.886786e-09 -9.545926e-09 -6.487327e-09 -7.849598e-09 -5.335368e-09 -6.454446e-09 -4.387420e-09 -5.306759e-09 -3.607545e-09 -4.362898e-09 -2.965970e-09 -3.586787e-09 -2.438388e-09 -2.948781e-09 -2.004524e-09 -2.424082e-09 -1.647887e-09 -1.992651e-09 -1.354448e-09 -1.638049e-09 -1.113349e-09 -1.346449e-09 -9.152656e-10 -1.106770e-09 -7.521380e-10 -9.097417e-10 -6.181842e-10 -7.477476e-10 -5.081428e-10 -6.147184e-10 -4.176107e-10 -5.052599e-10 -3.432425e-10 -4.152853e-10 -2.820777e-10 -3.413635e-10 -2.318065e-10 -2.806299e-10 -1.905962e-10 -2.306850e-10 -1.566352e-10 -1.895135e-10 -1.286405e-10 -1.558417e-10 -1.058909e-10 -1.280986e-10 -8.692860e-11 -1.052223e-10 -7.144623e-11 -8.655272e-11 -5.869171e-11 -7.109462e-11 -4.824793e-11 -5.848254e-11 -3.972580e-11 -4.812391e-11 -3.255229e-11 -3.944800e-11 -2.686997e-11 -3.246044e-11 -2.192955e-11 -2.679729e-11 -1.807847e-11 -2.195237e-11 -1.491755e-11 -1.799380e-11 -1.210897e-11 -1.490157e-11 -9.993682e-12 -1.220491e-11 -8.232116e-12 -9.964564e-12 -6.752798e-12 -8.232660e-12 -5.523756e-12 -6.684070e-12 -4.683267e-12 -5.577539e-12 -3.768162e-12 -4.661870e-12 -3.133921e-12 -3.706102e-12 -2.517475e-12 -3.014189e-12 -2.088859e-12 -2.612910e-12 -1.614024e-12 -2.079344e-12 -1.420786e-12 -1.659145e-12 -1.036774e-12 -1.431819e-12 -1.019253e-12 -1.124260e-12 -7.832253e-13 -8.850957e-13 -6.129560e-13 -7.476408e-13 -4.581724e-13 -5.066595e-13 -4.497495e-13 -6.375604e-13 -3.862170e-13 -4.857226e-13 -2.945644e-13 -2.314186e-13 -2.317998e-13 -2.809012e-13 -1.491104e-13 -3.423151e-13 -1.800005e-13 -1.731393e-13 -1.701861e-13 -6.687984e-14 1.066924e-14 -2.241207e-13 -5.655476e-14 -6.327531e-14 -6.095494e-14 -2.291500e-14 1.312358e-13 -4.992303e-15 6.132132e-14 4.675149e-14 -5.836442e-14 -7.915150e-14 3.463156e-14 -2.722822e-14 -3.742007e-14 5.834037e-14 2.730408e-14 -1.571151e-14 3.640236e-14 -8.542334e-14 6.346960e-14 -2.167895e-14 -1.278283e-13 1.800689e-14 7.548129e-14 -4.185818e-14 -1.695126e-14 2.147033e-14 -7.831097e-14 -5.570405e-14 9.211150e-15 -7.791268e-14 1.722141e-14 3.939441e-14 -7.958726e-14 -6.669156e-14 -3.307956e-14 -1.892606e-14 7.148911e-15 -5.931181e-14 -1.043614e-13 -8.879703e-14 -1.451834e-13 -2.271775e-13 -1.090766e-13 -2.373083e-13 -2.037782e-13 -1.387386e-13 -1.060712e-13 -2.824167e-13 -2.684457e-13 -3.505927e-13 -3.834912e-13 -4.245433e-13 -4.481364e-13 -5.175096e-13 -5.803413e-13 -5.629941e-13 -6.719741e-13 -7.272960e-13 -7.801366e-13 -9.380968e-13 -1.100285e-12 -1.065898e-12 -1.333004e-12 -1.318829e-12 -1.455748e-12 -1.639293e-12 -1.792965e-12 -2.031654e-12 -2.338430e-12 -2.455772e-12 -2.862811e-12 -3.033943e-12 -3.455440e-12 -3.628562e-12 -4.351996e-12 -4.382656e-12 -5.140702e-12 -5.304517e-12 -6.361355e-12 -6.393269e-12 -7.929054e-12 -7.716006e-12 -9.846990e-12 -9.421724e-12 -1.213913e-11 -1.139335e-11 -1.512201e-11 -1.380067e-11 -1.884287e-11 -1.680367e-11 -2.370178e-11 -2.015165e-11 -3.001408e-11 -2.433983e-11 -3.807424e-11 -2.916488e-11 -4.890690e-11 -3.492096e-11 -6.328086e-11 -4.160009e-11 -8.252094e-11 -4.942724e-11 -1.088092e-10 -5.805063e-11 -1.453382e-10 -6.756099e-11 -1.962621e-10 -7.724488e-11 -2.685930e-10 -8.551641e-11 -3.724360e-10 -9.058703e-11 -5.241796e-10 -8.776908e-11 -7.494539e-10 -6.799073e-11 -1.089850e-09 -1.483229e-11 -1.614374e-09 1.044936e-10 -2.442597e-09 3.562407e-10 -3.788350e-09 8.799844e-10 -6.055694e-09 1.988684e-09 -1.006237e-08 4.441294e-09 -1.761668e-08 1.028123e-08 -3.321739e-08 2.577298e-08 -6.979936e-08 7.300974e-08 -1.709165e-07 2.384359e-07 -5.028911e-07 9.203656e-07 -9.832039e-07 8.646437e-06 2.413667e-05 7.814001e-05 
-1.684685e+01 -1.114913e+01 -1.586065e+01 -1.318239e+01 -5.586721e+00 -2.600790e+00 -1.378183e+00 -8.357521e-01 -5.657500e-01 -4.141057e-01 -3.192279e-01 -2.546585e-01 -2.076101e-01 -1.716171e-01 -1.428229e-01 -1.191151e-01 -9.903840e-02 -8.184515e-02 -6.695191e-02 -5.411436e-02 -4.307404e-02 -3.373460e-02 -2.592067e-02 -1.953473e-02 -1.439745e-02 -1.037704e-02 -7.287476e-03 -4.984272e-03 -3.301202e-03 -2.111292e-03 -1.289084e-03 -7.413087e-04 -3.876376e-04 -1.685504e-04 -4.074642e-05 3.017809e-05 6.283602e-05 7.633256e-05 7.546099e-05 7.124358e-05 6.207116e-05 5.493546e-05 4.610291e-05 4.033287e-05 3.393174e-05 3.004864e-05 2.599083e-05 2.347153e-05 2.114374e-05 1.936021e-05 1.817075e-05 1.665557e-05 1.617755e-05 1.465940e-05 1.462858e-05 1.299223e-05 1.325367e-05 1.148199e-05 1.193248e-05 1.005847e-05 1.061051e-05 8.689611e-06 9.262222e-06 7.360859e-06 7.886494e-06 6.076360e-06 6.509868e-06 4.860178e-06 5.181052e-06 3.748068e-06 3.955602e-06 2.773545e-06 2.879142e-06 1.956672e-06 1.977329e-06 1.300438e-06 1.254816e-06 7.938106e-07 7.002094e-07 4.175431e-07 2.927260e-07 1.494008e-07 7.732036e-09 -3.248595e-08 -1.795917e-07 -1.479304e-07 -2.921424e-07 -2.139953e-07 -3.498066e-07 -2.447984e-07 -3.690191e-07 -2.515841e-07 -3.627582e-07 -2.429664e-07 -3.408342e-07 -2.252822e-07 -3.103457e-07 -2.030006e-07 -2.762016e-07 -1.791297e-07 -2.416269e-07 -1.555859e-07 -2.086072e-07 -1.335014e-07 -1.782533e-07 -1.134677e-07 -1.510822e-07 -9.572030e-08 -1.272271e-07 -8.026914e-08 -1.065850e-07 -6.699253e-08 -8.892092e-08 -5.569868e-08 -7.393543e-08 -4.616655e-08 -6.130812e-08 -3.817069e-08 -5.072546e-08 -3.149651e-08 -4.189441e-08 -2.594683e-08 -3.455022e-08 -2.134675e-08 -2.845973e-08 -1.754333e-08 -2.342020e-08 -1.440509e-08 -1.925775e-08 -1.181953e-08 -1.582484e-08 -9.692414e-09 -1.299680e-08 -7.944243e-09 -1.066971e-08 -6.508934e-09 -8.756145e-09 -5.331157e-09 -7.183671e-09 -4.365375e-09 -5.892110e-09 -3.573781e-09 -4.831887e-09 -2.925006e-09 -3.961680e-09 -2.393711e-09 -3.247714e-09 -1.958634e-09 -2.662153e-09 -1.602415e-09 -2.181972e-09 -1.310788e-09 -1.788167e-09 -1.072355e-09 -1.465408e-09 -8.770947e-10 -1.200831e-09 -7.174048e-10 -9.839823e-10 -5.867492e-10 -8.062989e-10 -4.796629e-10 -6.606233e-10 -3.922831e-10 -5.411582e-10 -3.207716e-10 -4.434656e-10 -2.622886e-10 -3.632516e-10 -2.143836e-10 -2.974950e-10 -1.753385e-10 -2.438558e-10 -1.434286e-10 -1.999582e-10 -1.172911e-10 -1.637508e-10 -9.596374e-11 -1.341814e-10 -7.860734e-11 -1.101084e-10 -6.437107e-11 -9.022661e-11 -5.265945e-11 -7.398145e-11 -4.318780e-11 -6.092050e-11 -3.545493e-11 -5.004536e-11 -2.925378e-11 -4.129698e-11 -2.416221e-11 -3.409283e-11 -2.014288e-11 -2.823705e-11 -1.682633e-11 -2.368132e-11 -1.426545e-11 -1.990603e-11 -1.216165e-11 -1.699775e-11 -1.075238e-11 -1.473951e-11 -9.738580e-12 -1.318790e-11 -9.069664e-12 -1.204709e-11 -8.785195e-12 -1.125698e-11 -8.833290e-12 -1.116023e-11 -9.385633e-12 -1.144393e-11 -1.011900e-11 -1.211446e-11 -1.130239e-11 -1.330629e-11 -1.297474e-11 -1.498769e-11 -1.512239e-11 -1.750228e-11 -1.800271e-11 -2.046032e-11 -2.154661e-11 -2.428642e-11 -2.583084e-11 -2.896494e-11 -3.120838e-11 -3.479360e-11 -3.760369e-11 -4.208299e-11 -4.562820e-11 -5.089453e-11 -5.532194e-11 -6.171119e-11 -6.711260e-11 -7.488499e-11 -8.169492e-11 -9.094390e-11 -9.931875e-11 -1.104073e-10 -1.206385e-10 -1.341820e-10 -1.468113e-10 -1.632354e-10 -1.784410e-10 -1.983364e-10 -2.168443e-10 -2.411548e-10 -2.638906e-10 -2.932618e-10 -3.208802e-10 -3.566452e-10 -3.900699e-10 -4.336541e-10 -4.744979e-10 -5.274829e-10 -5.770309e-10 -6.415938e-10 -7.018242e-10 -7.800501e-10 -8.534712e-10 -9.485962e-10 -1.037861e-09 -1.153572e-09 -1.262222e-09 -1.402713e-09 -1.534997e-09 -1.706089e-09 -1.866821e-09 -2.074894e-09 -2.270300e-09 -2.523146e-09 -2.760981e-09 -3.068432e-09 -3.357722e-09 -3.731599e-09 -4.083484e-09 -4.538209e-09 -4.966247e-09 -5.519259e-09 -6.039983e-09 -6.712606e-09 -7.345933e-09 -8.163852e-09 -8.934483e-09 -9.929274e-09 -1.086672e-08 -1.207673e-08 -1.321750e-08 -1.468946e-08 -1.607764e-08 -1.786818e-08 -1.955725e-08 -2.173587e-08 -2.379180e-08 -2.644269e-08 -2.894544e-08 -3.217148e-08 -3.521868e-08 -3.914551e-08 -4.285617e-08 -4.763711e-08 -5.215718e-08 -5.797952e-08 -6.348717e-08 -7.058007e-08 -7.729401e-08 -8.593831e-08 -9.412663e-08 -1.046668e-07 -1.146589e-07 -1.275183e-07 -1.397204e-07 -1.554208e-07 -1.703341e-07 -1.895197e-07 -2.077657e-07 -2.312346e-07 -2.535857e-07 -2.823303e-07 -3.097516e-07 -3.450117e-07 -3.787141e-07 -4.220462e-07 -4.635585e-07 -5.169281e-07 -5.681942e-07 -6.341006e-07 -6.976102e-07 -7.792571e-07 -8.582284e-07 -9.597595e-07 -1.058394e-06 -1.185224e-06 -1.309068e-06 -1.468351e-06 -1.624817e-06 -1.826131e-06 -2.025264e-06 -2.281609e-06 -2.537215e-06 -2.866507e-06 -3.197880e-06 -3.625222e-06 -4.059788e-06 -4.621001e-06 -5.198480e-06 -5.945685e-06 -6.724786e-06 -7.735470e-06 -8.804907e-06 -1.019701e-05 -1.169415e-05 -1.365196e-05 -1.579533e-05 -1.861540e-05 -2.176363e-05 -2.593953e-05 -3.070227e-05 -3.708834e-05 -4.454627e-05 -5.469222e-05 -6.685982e-05 -8.374282e-05 -1.046186e-04 -1.343907e-04 -1.725782e-04 -2.292164e-04 -3.052875e-04 -4.247114e-04 -5.950001e-04 -8.850297e-04 -1.332084e-03 -2.183252e-03 -3.631516e-03 -6.809063e-03 -1.291524e-02 -2.875815e-02 -6.418148e-02 -1.774152e-01 -5.122692e-01 -2.211769e+00 -1.367958e+01 
2.175265e-01 -3.243761e-02 6.918960e-01 4.607600e-01 -1.541366e+00 -1.663144e+00 -1.371155e+00 -1.069662e+00 -8.335261e-01 -6.611670e-01 -5.344514e-01 -4.398177e-01 -3.664123e-01 -3.079377e-01 -2.595834e-01 -2.187706e-01 -1.834433e-01 -1.526691e-01 -1.256182e-01 -1.020327e-01 -8.155575e-02 -6.410186e-02 -4.940909e-02 -3.733911e-02 -2.758951e-02 -1.993024e-02 -1.402737e-02 -9.612628e-03 -6.379311e-03 -4.085792e-03 -2.497731e-03 -1.435220e-03 -7.475121e-04 -3.186476e-04 -6.743692e-05 7.375358e-05 1.395374e-04 1.677417e-04 1.670057e-04 1.591119e-04 1.409212e-04 1.258969e-04 1.073924e-04 9.392500e-05 7.958224e-05 6.905512e-05 5.906259e-05 5.079631e-05 4.423202e-05 3.731243e-05 3.321089e-05 2.701437e-05 2.466381e-05 1.891837e-05 1.786982e-05 1.255011e-05 1.251761e-05 7.702659e-06 8.454504e-06 4.222088e-06 5.521078e-06 1.905569e-06 3.507414e-06 5.056769e-07 2.188866e-06 -2.193129e-07 1.374486e-06 -4.670430e-07 9.260246e-07 -3.862747e-07 7.454933e-07 -9.351069e-08 7.528480e-07 3.111715e-07 8.733468e-07 7.406609e-07 1.038882e-06 1.126701e-06 1.195807e-06 1.426062e-06 1.310458e-06 1.621073e-06 1.368749e-06 1.714389e-06 1.371285e-06 1.721179e-06 1.327155e-06 1.661897e-06 1.248729e-06 1.557187e-06 1.148306e-06 1.425087e-06 1.036408e-06 1.279933e-06 9.212040e-07 1.132294e-06 8.085489e-07 9.894286e-07 7.023091e-07 8.559153e-07 6.047701e-07 7.342993e-07 5.170382e-07 6.256604e-07 4.393851e-07 5.300775e-07 3.715265e-07 4.469869e-07 3.128341e-07 3.754496e-07 2.624930e-07 3.143378e-07 2.196091e-07 2.624622e-07 1.832824e-07 2.186555e-07 1.526525e-07 1.818195e-07 1.269245e-07 1.509537e-07 1.053821e-07 1.251654e-07 8.739205e-08 1.036706e-07 7.240091e-08 8.578982e-08 5.993151e-08 7.094012e-08 4.957521e-08 5.862435e-08 4.098476e-08 4.842152e-08 3.386651e-08 3.997713e-08 2.797332e-08 3.299349e-08 2.309771e-08 2.722166e-08 1.906655e-08 2.245403e-08 1.573520e-08 1.851747e-08 1.298340e-08 1.526838e-08 1.071107e-08 1.258776e-08 8.835198e-09 1.037643e-08 7.287081e-09 8.552591e-09 6.009521e-09 7.048852e-09 4.955621e-09 5.809231e-09 4.086284e-09 4.787051e-09 3.369135e-09 3.944634e-09 2.777742e-09 3.250353e-09 2.290068e-09 2.678106e-09 1.887945e-09 2.206699e-09 1.556524e-09 1.818071e-09 1.283061e-09 1.497757e-09 1.057586e-09 1.234012e-09 8.718554e-10 1.016669e-09 7.185295e-10 8.374395e-10 5.921760e-10 6.898246e-10 4.879720e-10 5.682197e-10 4.021797e-10 4.678741e-10 3.312319e-10 3.852948e-10 2.727601e-10 3.171140e-10 2.246747e-10 2.609048e-10 1.846575e-10 2.146796e-10 1.518439e-10 1.764636e-10 1.247698e-10 1.446882e-10 1.021202e-10 1.186442e-10 8.351261e-11 9.685380e-11 6.786907e-11 7.869834e-11 5.486664e-11 6.372449e-11 4.378743e-11 5.115450e-11 3.464464e-11 4.026447e-11 2.647872e-11 3.104231e-11 1.950785e-11 2.297161e-11 1.320905e-11 1.569630e-11 7.324482e-12 9.122806e-12 1.669894e-12 2.741215e-12 -3.714333e-12 -3.529836e-12 -9.460403e-12 -9.887565e-12 -1.553389e-11 -1.662959e-11 -2.225908e-11 -2.430958e-11 -2.998294e-11 -3.265832e-11 -3.876018e-11 -4.229679e-11 -4.889212e-11 -5.362769e-11 -6.106469e-11 -6.677863e-11 -7.550570e-11 -8.291029e-11 -9.294651e-11 -1.020236e-10 -1.139961e-10 -1.249896e-10 -1.393721e-10 -1.529479e-10 -1.699714e-10 -1.868072e-10 -2.072002e-10 -2.274812e-10 -2.524256e-10 -2.772235e-10 -3.073078e-10 -3.377135e-10 -3.741726e-10 -4.109838e-10 -4.551978e-10 -4.998456e-10 -5.535589e-10 -6.082613e-10 -6.735480e-10 -7.398760e-10 -8.191638e-10 -8.999616e-10 -9.963747e-10 -1.094789e-09 -1.212022e-09 -1.331562e-09 -1.473889e-09 -1.619414e-09 -1.792488e-09 -1.969696e-09 -2.180226e-09 -2.395497e-09 -2.651488e-09 -2.913464e-09 -3.224749e-09 -3.543430e-09 -3.922034e-09 -4.309655e-09 -4.770025e-09 -5.241496e-09 -5.801240e-09 -6.374861e-09 -7.055590e-09 -7.753311e-09 -8.581233e-09 -9.430006e-09 -1.043700e-08 -1.146961e-08 -1.269423e-08 -1.395039e-08 -1.543993e-08 -1.696827e-08 -1.878001e-08 -2.063979e-08 -2.284349e-08 -2.510610e-08 -2.778695e-08 -3.054051e-08 -3.380208e-08 -3.715320e-08 -4.112142e-08 -4.520012e-08 -5.002906e-08 -5.499394e-08 -6.087118e-08 -6.691611e-08 -7.407043e-08 -8.143152e-08 -9.014243e-08 -9.910871e-08 -1.097177e-07 -1.206424e-07 -1.335677e-07 -1.468831e-07 -1.626367e-07 -1.788736e-07 -1.980838e-07 -2.178938e-07 -2.413332e-07 -2.655178e-07 -2.941382e-07 -3.236868e-07 -3.586637e-07 -3.948004e-07 -4.375909e-07 -4.818345e-07 -5.342509e-07 -5.884954e-07 -6.528018e-07 -7.194186e-07 -7.984585e-07 -8.804332e-07 -9.777984e-07 -1.078915e-06 -1.199175e-06 -1.324263e-06 -1.473275e-06 -1.628552e-06 -1.813897e-06 -2.007444e-06 -2.239025e-06 -2.481455e-06 -2.772366e-06 -3.077786e-06 -3.445548e-06 -3.832955e-06 -4.301343e-06 -4.796687e-06 -5.398441e-06 -6.037724e-06 -6.818669e-06 -7.652686e-06 -8.678084e-06 -9.779806e-06 -1.114437e-05 -1.262071e-05 -1.446472e-05 -1.647568e-05 -1.901161e-05 -2.180228e-05 -2.535990e-05 -2.931556e-05 -3.442083e-05 -4.016485e-05 -4.768294e-05 -5.625753e-05 -6.766278e-05 -8.087788e-05 -9.878867e-05 -1.199318e-04 -1.492344e-04 -1.846122e-04 -2.349989e-04 -2.975670e-04 -3.897982e-04 -5.085720e-04 -6.915897e-04 -9.388277e-04 -1.342082e-03 -1.921580e-03 -2.937021e-03 -4.515701e-03 -7.555264e-03 -1.281955e-02 -2.453674e-02 -4.864061e-02 -1.168619e-01 -2.935016e-01 -8.713335e-01 -2.701980e-01 
-1.937629e+00 -1.120490e-02 -1.155079e+00 -1.075492e+00 -9.579263e-01 -1.008677e+00 -9.766124e-01 -8.842660e-01 -7.771026e-01 -6.740908e-01 -5.836006e-01 -5.054898e-01 -4.383213e-01 -3.798512e-01 -3.281743e-01 -2.819708e-01 -2.401961e-01 -2.024409e-01 -1.683240e-01 -1.378893e-01 -1.110075e-01 -8.776685e-02 -6.798976e-02 -5.159664e-02 -3.826157e-02 -2.772462e-02 -1.956546e-02 -1.344025e-02 -8.939533e-03 -5.739681e-03 -3.519180e-03 -2.032019e-03 -1.068345e-03 -4.675403e-04 -1.157685e-04 8.176565e-05 1.734655e-04 2.131792e-04 2.123892e-04 2.027159e-04 1.788231e-04 1.605279e-04 1.376517e-04 1.226138e-04 1.066956e-04 9.627977e-05 8.699806e-05 7.960218e-05 7.501589e-05 6.881486e-05 6.703371e-05 6.083438e-05 6.053859e-05 5.388515e-05 5.434248e-05 4.730136e-05 4.815993e-05 4.102065e-05 4.207570e-05 3.512790e-05 3.618737e-05 2.963553e-05 3.050541e-05 2.448654e-05 2.501953e-05 1.964876e-05 1.978594e-05 1.517450e-05 1.494471e-05 1.118124e-05 1.066598e-05 7.785435e-06 7.077667e-06 5.045225e-06 4.223865e-06 2.943307e-06 2.066811e-06 1.405182e-06 5.158084e-07 3.301694e-07 -5.403356e-07 -3.833952e-07 -1.210770e-06 -8.249607e-07 -1.591718e-06 -1.067978e-06 -1.763301e-06 -1.170726e-06 -1.789889e-06 -1.178453e-06 -1.721632e-06 -1.125496e-06 -1.596332e-06 -1.037159e-06 -1.441399e-06 -9.314106e-07 -1.275841e-06 -8.204454e-07 -1.112133e-06 -7.120788e-07 -9.578920e-07 -6.109370e-07 -8.172683e-07 -5.194181e-07 -6.920465e-07 -4.384315e-07 -5.824760e-07 -3.679430e-07 -4.878702e-07 -3.073607e-07 -4.070245e-07 -2.557977e-07 -3.384947e-07 -2.122451e-07 -2.807752e-07 -1.756794e-07 -2.324084e-07 -1.451266e-07 -1.920442e-07 -1.196955e-07 -1.584689e-07 -9.859251e-08 -1.306150e-07 -8.112414e-08 -1.075573e-07 -6.669345e-08 -8.850250e-08 -5.479140e-08 -7.277859e-08 -4.498758e-08 -5.981808e-08 -3.692075e-08 -4.914509e-08 -3.028890e-08 -4.036262e-08 -2.484044e-08 -3.314065e-08 -2.036667e-08 -2.720446e-08 -1.669527e-08 -2.232739e-08 -1.368312e-08 -1.832195e-08 -1.121297e-08 -1.503297e-08 -9.187587e-09 -1.233316e-08 -7.527244e-09 -1.011748e-08 -6.166433e-09 -8.299067e-09 -5.051418e-09 -6.807102e-09 -4.137517e-09 -5.583186e-09 -3.388878e-09 -4.578990e-09 -2.775603e-09 -3.755324e-09 -2.273193e-09 -3.079773e-09 -1.861689e-09 -2.525617e-09 -1.524677e-09 -2.071130e-09 -1.248650e-09 -1.698568e-09 -1.022599e-09 -1.392979e-09 -8.375330e-10 -1.142281e-09 -6.858430e-10 -9.368687e-10 -5.617628e-10 -7.683157e-10 -4.601289e-10 -6.300914e-10 -3.768439e-10 -5.170320e-10 -3.088495e-10 -4.241799e-10 -2.532485e-10 -3.481636e-10 -2.078338e-10 -2.860299e-10 -1.705200e-10 -2.348677e-10 -1.402118e-10 -1.932758e-10 -1.154418e-10 -1.592509e-10 -9.536432e-11 -1.314754e-10 -7.901630e-11 -1.087944e-10 -6.594442e-11 -9.068550e-11 -5.558286e-11 -7.612109e-11 -4.748664e-11 -6.453072e-11 -4.115144e-11 -5.567194e-11 -3.646485e-11 -4.860613e-11 -3.341543e-11 -4.362949e-11 -3.141067e-11 -4.040143e-11 -3.073775e-11 -3.869092e-11 -3.136309e-11 -3.852690e-11 -3.317752e-11 -3.994728e-11 -3.629211e-11 -4.287492e-11 -4.078401e-11 -4.746673e-11 -4.702683e-11 -5.415427e-11 -5.511371e-11 -6.272259e-11 -6.515821e-11 -7.355331e-11 -7.768989e-11 -8.741062e-11 -9.327931e-11 -1.045435e-10 -1.124975e-10 -1.256329e-10 -1.360417e-10 -1.517884e-10 -1.647111e-10 -1.835690e-10 -1.998800e-10 -2.225096e-10 -2.425703e-10 -2.699701e-10 -2.946578e-10 -3.277827e-10 -3.580350e-10 -3.981102e-10 -4.351086e-10 -4.838262e-10 -5.289814e-10 -5.881400e-10 -6.432052e-10 -7.149545e-10 -7.817548e-10 -8.692071e-10 -9.506754e-10 -1.056799e-09 -1.156083e-09 -1.285033e-09 -1.405735e-09 -1.562654e-09 -1.709481e-09 -1.900178e-09 -2.078946e-09 -2.310629e-09 -2.528003e-09 -2.809931e-09 -3.074456e-09 -3.417115e-09 -3.738890e-09 -4.155461e-09 -4.546706e-09 -5.053460e-09 -5.529254e-09 -6.145499e-09 -6.724413e-09 -7.473543e-09 -8.177555e-09 -9.088635e-09 -9.944923e-09 -1.105281e-08 -1.209469e-08 -1.344187e-08 -1.470915e-08 -1.634762e-08 -1.788899e-08 -1.988154e-08 -2.175678e-08 -2.417997e-08 -2.646118e-08 -2.940859e-08 -3.218412e-08 -3.576891e-08 -3.914598e-08 -4.350645e-08 -4.761566e-08 -5.292041e-08 -5.792103e-08 -6.437462e-08 -7.046081e-08 -7.831338e-08 -8.572167e-08 -9.527808e-08 -1.042974e-07 -1.159291e-07 -1.269123e-07 -1.410729e-07 -1.544510e-07 -1.716951e-07 -1.879953e-07 -2.090012e-07 -2.288693e-07 -2.544674e-07 -2.786957e-07 -3.099050e-07 -3.394669e-07 -3.775384e-07 -4.136331e-07 -4.601078e-07 -5.042146e-07 -5.609951e-07 -6.149460e-07 -6.843868e-07 -7.504585e-07 -8.354855e-07 -9.165181e-07 -1.020783e-06 -1.120337e-06 -1.248418e-06 -1.370985e-06 -1.528656e-06 -1.679934e-06 -1.874527e-06 -2.061804e-06 -2.302700e-06 -2.535378e-06 -2.834683e-06 -3.125009e-06 -3.498505e-06 -3.862603e-06 -4.331092e-06 -4.790452e-06 -5.381691e-06 -5.965334e-06 -6.716868e-06 -7.464551e-06 -8.427922e-06 -9.394966e-06 -1.064208e-05 -1.190677e-05 -1.353972e-05 -1.521484e-05 -1.738134e-05 -1.963262e-05 -2.255080e-05 -2.562694e-05 -2.962626e-05 -3.390920e-05 -3.949971e-05 -4.559118e-05 -5.358438e-05 -6.245990e-05 -7.418740e-05 -8.748026e-05 -1.052054e-04 -1.257537e-04 -1.534835e-04 -1.864376e-04 -2.316153e-04 -2.868196e-04 -3.640946e-04 -4.615901e-04 -6.018853e-04 -7.857028e-04 -1.059891e-03 -1.435596e-03 -2.021227e-03 -2.865815e-03 -4.247172e-03 -6.352202e-03 -9.959408e-03 -1.582847e-02 -2.648667e-02 -4.630013e-02 -8.879696e-02 -1.960976e-01 -5.232570e-01 -1.886392e+00 
1.777261e-01 1.378275e-03 5.360054e-01 6.369143e-01 -7.251387e-02 -3.950089e-01 -5.428853e-01 -5.945187e-01 -5.955580e-01 -5.695932e-01 -5.311361e-01 -4.874091e-01 -4.421563e-01 -3.971764e-01 -3.531180e-01 -3.105252e-01 -2.695647e-01 -2.307521e-01 -1.943543e-01 -1.609386e-01 -1.307524e-01 -1.041844e-01 -8.125558e-02 -6.202694e-02 -4.624036e-02 -3.366368e-02 -2.386217e-02 -1.645680e-02 -1.098876e-02 -7.078378e-03 -4.353402e-03 -2.516271e-03 -1.320752e-03 -5.682948e-04 -1.253793e-04 1.277179e-04 2.464762e-04 3.005833e-04 3.013361e-04 2.906422e-04 2.599682e-04 2.359028e-04 2.047706e-04 1.830541e-04 1.597326e-04 1.427716e-04 1.273942e-04 1.136077e-04 1.040139e-04 9.140554e-05 8.542648e-05 7.283500e-05 6.909190e-05 5.637877e-05 5.429393e-05 4.197712e-05 4.138787e-05 3.011824e-05 3.086590e-05 2.106490e-05 2.280259e-05 1.458114e-05 1.682424e-05 1.009970e-05 1.238704e-05 7.035488e-06 9.053488e-06 4.984094e-06 6.588478e-06 3.727552e-06 4.888545e-06 3.128829e-06 3.863171e-06 3.036189e-06 3.369194e-06 3.259374e-06 3.220407e-06 3.603475e-06 3.235080e-06 3.914058e-06 3.276640e-06 4.100527e-06 3.267345e-06 4.132547e-06 3.179275e-06 4.021252e-06 3.016131e-06 3.798513e-06 2.796424e-06 3.501544e-06 2.542245e-06 3.164204e-06 2.273449e-06 2.813432e-06 2.005486e-06 2.468697e-06 1.749181e-06 2.142860e-06 1.511352e-06 1.843521e-06 1.295689e-06 1.574365e-06 1.103587e-06 1.336341e-06 9.348737e-07 1.128586e-06 7.883700e-07 9.491409e-07 6.623123e-07 7.954496e-07 5.546540e-07 6.647155e-07 4.632701e-07 5.541302e-07 3.860896e-07 4.610164e-07 3.211751e-07 3.829094e-07 2.667640e-07 3.175940e-07 2.212864e-07 2.631154e-07 1.833650e-07 2.177721e-07 1.518061e-07 1.800988e-07 1.255849e-07 1.488432e-07 1.038279e-07 1.229438e-07 8.579572e-08 1.015040e-07 7.086424e-08 8.377096e-08 5.851023e-08 6.911377e-08 4.829526e-08 5.700594e-08 3.985352e-08 4.700880e-08 3.288051e-08 3.875780e-08 2.712277e-08 3.194996e-08 2.236976e-08 2.633458e-08 1.844765e-08 2.170379e-08 1.521148e-08 1.788578e-08 1.254192e-08 1.473826e-08 1.034013e-08 1.214377e-08 8.524391e-09 1.000572e-08 7.027065e-09 8.243559e-09 5.792444e-09 6.791606e-09 4.774693e-09 5.595189e-09 3.935600e-09 4.609300e-09 3.243711e-09 3.797026e-09 2.673437e-09 3.127683e-09 2.203120e-09 2.576347e-09 1.815684e-09 2.122180e-09 1.496364e-09 1.747889e-09 1.232958e-09 1.439750e-09 1.016019e-09 1.185632e-09 8.370540e-10 9.763523e-10 6.895942e-10 8.037588e-10 5.677619e-10 6.617037e-10 4.674005e-10 5.445676e-10 3.846545e-10 4.478541e-10 3.162207e-10 3.678865e-10 2.596241e-10 3.021213e-10 2.128850e-10 2.476662e-10 1.741087e-10 2.024872e-10 1.416611e-10 1.646437e-10 1.144977e-10 1.333608e-10 9.188614e-11 1.069132e-10 7.251657e-11 8.466715e-11 5.596178e-11 6.546159e-11 4.136697e-11 4.876496e-11 2.844211e-11 3.404015e-11 1.658792e-11 2.036487e-11 5.215088e-12 7.521332e-12 -6.043107e-12 -5.304039e-12 -1.773618e-11 -1.811296e-11 -2.978198e-11 -3.181010e-11 -4.325433e-11 -4.677911e-11 -5.840463e-11 -6.338078e-11 -7.560733e-11 -8.247456e-11 -9.569966e-11 -1.046824e-10 -1.195023e-10 -1.310546e-10 -1.481004e-10 -1.623140e-10 -1.821705e-10 -1.998131e-10 -2.233173e-10 -2.451448e-10 -2.730539e-10 -2.998866e-10 -3.333186e-10 -3.660217e-10 -4.064386e-10 -4.464587e-10 -4.950754e-10 -5.438426e-10 -6.027204e-10 -6.621024e-10 -7.336480e-10 -8.059151e-10 -8.926867e-10 -9.808160e-10 -1.086012e-09 -1.193127e-09 -1.321033e-09 -1.451366e-09 -1.606900e-09 -1.765418e-09 -1.954377e-09 -2.147251e-09 -2.377015e-09 -2.611701e-09 -2.891067e-09 -3.176536e-09 -3.516214e-09 -3.863559e-09 -4.276560e-09 -4.698987e-09 -5.201156e-09 -5.714931e-09 -6.325575e-09 -6.950648e-09 -7.693122e-09 -8.453451e-09 -9.356385e-09 -1.028117e-08 -1.137925e-08 -1.250431e-08 -1.383960e-08 -1.520829e-08 -1.683229e-08 -1.849727e-08 -2.047219e-08 -2.249765e-08 -2.489965e-08 -2.736367e-08 -3.028514e-08 -3.328297e-08 -3.683632e-08 -4.048383e-08 -4.480607e-08 -4.924427e-08 -5.450208e-08 -5.990268e-08 -6.629911e-08 -7.287129e-08 -8.065379e-08 -8.865259e-08 -9.812264e-08 -1.078593e-07 -1.193842e-07 -1.312379e-07 -1.452665e-07 -1.597004e-07 -1.767798e-07 -1.943597e-07 -2.151591e-07 -2.365764e-07 -2.619141e-07 -2.880157e-07 -3.188935e-07 -3.507171e-07 -3.883641e-07 -4.271836e-07 -4.731094e-07 -5.204918e-07 -5.765553e-07 -6.344317e-07 -7.029273e-07 -7.736850e-07 -8.574526e-07 -9.440521e-07 -1.046620e-06 -1.152746e-06 -1.278516e-06 -1.408775e-06 -1.563264e-06 -1.723447e-06 -1.913613e-06 -2.111041e-06 -2.345712e-06 -2.589709e-06 -2.880173e-06 -3.182706e-06 -3.543523e-06 -3.920094e-06 -4.370225e-06 -4.841119e-06 -5.405525e-06 -5.997594e-06 -6.709529e-06 -7.458759e-06 -8.363115e-06 -9.318405e-06 -1.047665e-05 -1.170544e-05 -1.320306e-05 -1.479986e-05 -1.675772e-05 -1.885727e-05 -2.144933e-05 -2.424735e-05 -2.772886e-05 -3.151534e-05 -3.626860e-05 -4.148263e-05 -4.809327e-05 -5.541547e-05 -6.480296e-05 -7.531604e-05 -8.896372e-05 -1.044403e-04 -1.248150e-04 -1.482525e-04 -1.795997e-04 -2.162575e-04 -2.661794e-04 -3.256937e-04 -4.084567e-04 -5.094308e-04 -6.533728e-04 -8.340897e-04 -1.099467e-03 -1.444817e-03 -1.969823e-03 -2.683357e-03 -3.809590e-03 -5.418437e-03 -8.063109e-03 -1.210248e-02 -1.922512e-02 -3.187360e-02 -5.854861e-02 -1.197980e-01 -2.445766e-01 3.641195e-02 