# vtk DataFile Version 2.0
Comment goes here
ASCII

DATASET STRUCTURED_POINTS
FIELD FieldData 1
TIME 1 1 double
1.22500000
DIMENSIONS    384   64   1

ORIGIN    0.000   0.000   0.000
SPACING   0.078125 0.078125   1.000

POINT_DATA   24576
SCALARS Omega double
LOOKUP_TABLE default

-4.975200e-05 4.343736e-03 1.242248e-02 -1.452581e-02 -2.237288e-02 2.491690e-02 9.704131e-02 1.464759e-01 1.495965e-01 1.138868e-01 6.321461e-02 1.948160e-02 -6.425095e-03 -1.474872e-02 -1.191572e-02 -5.294762e-03 1.073848e-04 2.408960e-03 2.066120e-03 4.851503e-04 -1.012007e-03 -1.710294e-03 -1.483893e-03 -5.845890e-04 6.375016e-04 1.884942e-03 2.992993e-03 3.898314e-03 4.616095e-03 5.175854e-03 5.622290e-03 5.971692e-03 6.251991e-03 6.455914e-03 6.606144e-03 6.682857e-03 6.713705e-03 6.669566e-03 6.584898e-03 6.422408e-03 6.223636e-03 5.947146e-03 5.641306e-03 5.266103e-03 4.874128e-03 4.431336e-03 3.989328e-03 3.522407e-03 3.074964e-03 2.629981e-03 2.219535e-03 1.834301e-03 1.491512e-03 1.188134e-03 9.269514e-04 7.100532e-04 5.284514e-04 3.885943e-04 2.735209e-04 1.934549e-04 1.272510e-04 8.816475e-05 5.390658e-05 3.970149e-05 2.415366e-05 2.318989e-05 1.745007e-05 2.235677e-05 2.109059e-05 2.766569e-05 2.791725e-05 3.395426e-05 3.415573e-05 3.860271e-05 3.797648e-05 4.046665e-05 3.873761e-05 3.935414e-05 3.660668e-05 3.573224e-05 3.229030e-05 3.046218e-05 2.675412e-05 2.451962e-05 2.094842e-05 1.875090e-05 1.560513e-05 1.372658e-05 1.114911e-05 9.710791e-06 7.716948e-06 6.718629e-06 5.240266e-06 4.612174e-06 3.544120e-06 3.191878e-06 2.426565e-06 2.260324e-06 1.706727e-06 1.654792e-06 1.244595e-06 1.256222e-06 9.423246e-07 9.848696e-07 7.367196e-07 7.909330e-07 5.894588e-07 6.449841e-07 4.784193e-07 5.303010e-07 3.912143e-07 4.375134e-07 3.209148e-07 3.612290e-07 2.634687e-07 2.980951e-07 2.162778e-07 2.457776e-07 1.774768e-07 2.024719e-07 1.456010e-07 1.666895e-07 1.194442e-07 1.371721e-07 9.799785e-08 1.128523e-07 8.042054e-08 9.283099e-08 6.601425e-08 7.635593e-08 5.420388e-08 6.280207e-08 4.451771e-08 5.165266e-08 3.657066e-08 4.248172e-08 3.004809e-08 3.493874e-08 2.469308e-08 2.873485e-08 2.029498e-08 2.363217e-08 1.668186e-08 1.943509e-08 1.371311e-08 1.598316e-08 1.127360e-08 1.314448e-08 9.268501e-09 1.080974e-08 7.620549e-09 8.889723e-09 6.265727e-09 7.310508e-09 5.151814e-09 6.011679e-09 4.235973e-09 4.943756e-09 3.483316e-09 4.065766e-09 2.864598e-09 3.343703e-09 2.355689e-09 2.749628e-09 1.937078e-09 2.260969e-09 1.592620e-09 1.859422e-09 1.309951e-09 1.529218e-09 1.077382e-09 1.257526e-09 8.857734e-10 1.033908e-09 7.282599e-10 8.500666e-10 5.987623e-10 6.990289e-10 4.922428e-10 5.748139e-10 4.048397e-10 4.724044e-10 3.327866e-10 3.885807e-10 2.736533e-10 3.195485e-10 2.251078e-10 2.628717e-10 1.853140e-10 2.162999e-10 1.525081e-10 1.778271e-10 1.252319e-10 1.460829e-10 1.030645e-10 1.202329e-10 8.479261e-11 9.910091e-11 6.970218e-11 8.130857e-11 5.735384e-11 6.680493e-11 4.693826e-11 5.486222e-11 3.867608e-11 4.502766e-11 3.188205e-11 3.725136e-11 2.622252e-11 3.054318e-11 2.170202e-11 2.531113e-11 1.797581e-11 2.077772e-11 1.460153e-11 1.681448e-11 1.185295e-11 1.375544e-11 9.723777e-12 1.137771e-11 8.010422e-12 9.410162e-12 6.625071e-12 7.726856e-12 5.474939e-12 6.316310e-12 4.405335e-12 5.381710e-12 3.723599e-12 4.193564e-12 3.000148e-12 3.467922e-12 2.337567e-12 2.882435e-12 1.806673e-12 2.235841e-12 1.657459e-12 1.966249e-12 1.478343e-12 1.601149e-12 1.100512e-12 1.243272e-12 8.501644e-13 9.510022e-13 9.074815e-13 1.090624e-12 9.323801e-13 9.293307e-13 7.316222e-13 7.685112e-13 5.026498e-13 6.970424e-13 5.969447e-13 5.700033e-13 3.302247e-13 3.895551e-13 2.051988e-13 1.411760e-13 1.277201e-13 1.788643e-13 2.159606e-13 1.354916e-13 -8.085384e-14 -3.052373e-14 1.772656e-13 1.523374e-13 1.481926e-13 1.040945e-13 -4.921249e-14 -9.755160e-15 2.141324e-13 1.410575e-13 2.376987e-13 1.268911e-13 1.801596e-13 2.787474e-13 4.046689e-13 3.123057e-13 4.165039e-13 2.330580e-13 1.847411e-13 1.009341e-13 2.730779e-13 3.285742e-13 6.815141e-13 6.335821e-13 8.263168e-13 4.854709e-13 7.960743e-13 5.891047e-13 1.081783e-12 7.896961e-13 8.678058e-13 4.899303e-13 1.121614e-12 7.848500e-13 1.567235e-12 1.182728e-12 2.103547e-12 1.592556e-12 2.442165e-12 1.638230e-12 2.954807e-12 2.127520e-12 3.641731e-12 2.675319e-12 4.452638e-12 3.197494e-12 5.498542e-12 3.895299e-12 6.624827e-12 4.778674e-12 8.252021e-12 5.747166e-12 9.904492e-12 6.734406e-12 1.178024e-11 8.383442e-12 1.500083e-11 1.020560e-11 1.855340e-11 1.247364e-11 2.285311e-11 1.555536e-11 2.888239e-11 1.920903e-11 3.629771e-11 2.373760e-11 4.583344e-11 2.930374e-11 5.801695e-11 3.574537e-11 7.372877e-11 4.423613e-11 9.482005e-11 5.485874e-11 1.227766e-10 6.770016e-11 1.598426e-10 8.344436e-11 2.099004e-10 1.035642e-10 2.795197e-10 1.293534e-10 3.761706e-10 1.619893e-10 5.117315e-10 2.032557e-10 7.042816e-10 2.552473e-10 9.805890e-10 3.207396e-10 1.381483e-09 4.014510e-10 1.969943e-09 4.974683e-10 2.843327e-09 6.034255e-10 4.156896e-09 7.004870e-10 6.162800e-09 7.384637e-10 9.279589e-09 5.908688e-10 1.423048e-08 -5.293739e-11 2.231892e-08 -1.967886e-09 3.604423e-08 -7.185897e-09 6.061719e-08 -2.149820e-08 1.081998e-07 -6.345465e-08 2.115414e-07 -2.014234e-07 4.730583e-07 -7.246866e-07 1.238627e-06 -2.991142e-06 3.311415e-06 -1.315035e-05 -1.309143e-05 -4.796064e-04 
-8.279437e+00 -5.258917e+00 -7.456599e+00 -6.107217e+00 -3.105688e+00 -1.677599e+00 -9.472820e-01 -5.549754e-01 -3.554022e-01 -2.688222e-01 -2.394398e-01 -2.286204e-01 -2.158618e-01 -1.956096e-01 -1.707973e-01 -1.467614e-01 -1.272448e-01 -1.133455e-01 -1.040355e-01 -9.750597e-02 -9.210599e-02 -8.688073e-02 -8.150557e-02 -7.609045e-02 -7.086825e-02 -6.605249e-02 -6.173621e-02 -5.792778e-02 -5.456197e-02 -5.156668e-02 -4.885638e-02 -4.637747e-02 -4.406534e-02 -4.189375e-02 -3.980696e-02 -3.779710e-02 -3.580944e-02 -3.385505e-02 -3.188187e-02 -2.992228e-02 -2.792929e-02 -2.595384e-02 -2.395450e-02 -2.199344e-02 -2.003454e-02 -1.814215e-02 -1.628549e-02 -1.452275e-02 -1.282873e-02 -1.124934e-02 -9.765092e-03 -8.406369e-03 -7.159222e-03 -6.037998e-03 -5.033828e-03 -4.146592e-03 -3.371937e-03 -2.698159e-03 -2.124861e-03 -1.632340e-03 -1.223628e-03 -8.747676e-04 -5.916748e-04 -3.495505e-04 -1.565437e-04 1.033669e-05 1.415401e-04 2.566314e-04 3.456398e-04 4.241391e-04 4.827357e-04 5.332762e-04 5.677665e-04 5.950521e-04 6.090185e-04 6.163320e-04 6.128229e-04 6.036458e-04 5.862775e-04 5.647857e-04 5.377825e-04 5.084791e-04 4.760853e-04 4.430962e-04 4.089008e-04 3.754185e-04 3.419793e-04 3.100952e-04 2.789557e-04 2.498394e-04 2.218042e-04 1.960338e-04 1.714872e-04 1.493314e-04 1.284484e-04 1.100092e-04 9.282650e-05 7.806112e-05 6.446352e-05 5.316048e-05 4.285887e-05 3.463457e-05 2.718354e-05 2.152444e-05 1.638256e-05 1.271966e-05 9.328536e-06 7.115173e-06 4.968478e-06 3.737267e-06 2.422599e-06 1.811932e-06 1.023113e-06 7.769618e-07 3.045042e-07 2.556771e-07 -3.370906e-08 1.360971e-08 -1.722451e-07 -8.559283e-08 -2.128618e-07 -1.163364e-07 -2.093770e-07 -1.168343e-07 -1.885544e-07 -1.055749e-07 -1.628641e-07 -9.095427e-08 -1.376677e-07 -7.649866e-08 -1.149888e-07 -6.350983e-08 -9.537128e-08 -5.232980e-08 -7.874674e-08 -4.291352e-08 -6.482081e-08 -3.507827e-08 -5.323854e-08 -2.860674e-08 -4.365198e-08 -2.328823e-08 -3.574510e-08 -1.893261e-08 -2.924001e-08 -1.537484e-08 -2.389921e-08 -1.247468e-08 -1.952115e-08 -1.011453e-08 -1.593667e-08 -8.195839e-09 -1.300483e-08 -6.638059e-09 -1.060874e-08 -5.374075e-09 -8.651908e-09 -4.349112e-09 -7.054159e-09 -3.518353e-09 -5.750191e-09 -2.845075e-09 -4.686500e-09 -2.300222e-09 -3.819256e-09 -1.859642e-09 -3.112274e-09 -1.502567e-09 -2.535184e-09 -1.213331e-09 -2.065205e-09 -9.799864e-10 -1.682321e-09 -7.912517e-10 -1.370421e-09 -6.386925e-10 -1.115993e-09 -5.153970e-10 -9.089394e-10 -4.158530e-10 -7.402081e-10 -3.354027e-10 -6.028112e-10 -2.703924e-10 -4.907116e-10 -2.179895e-10 -3.995467e-10 -1.756534e-10 -3.251384e-10 -1.411516e-10 -2.644497e-10 -1.137394e-10 -2.153782e-10 -9.150086e-11 -1.753977e-10 -7.360410e-11 -1.427467e-10 -5.923744e-11 -1.160989e-10 -4.755828e-11 -9.462793e-11 -3.859218e-11 -7.740680e-11 -3.127851e-11 -6.329373e-11 -2.524658e-11 -5.152478e-11 -2.041706e-11 -4.214423e-11 -1.656010e-11 -3.459572e-11 -1.371951e-11 -2.865947e-11 -1.180007e-11 -2.412136e-11 -1.033137e-11 -2.066803e-11 -9.362511e-12 -1.771029e-11 -8.355242e-12 -1.555048e-11 -8.020695e-12 -1.419661e-11 -8.149629e-12 -1.312443e-11 -8.604525e-12 -1.306093e-11 -9.415994e-12 -1.338363e-11 -1.070800e-11 -1.426509e-11 -1.236661e-11 -1.564263e-11 -1.453892e-11 -1.767961e-11 -1.715466e-11 -2.028534e-11 -2.025874e-11 -2.367253e-11 -2.469229e-11 -2.827978e-11 -2.971940e-11 -3.387157e-11 -3.621494e-11 -4.060521e-11 -4.342221e-11 -4.864056e-11 -5.258694e-11 -5.884419e-11 -6.390657e-11 -7.143246e-11 -7.770569e-11 -8.668983e-11 -9.461762e-11 -1.052415e-10 -1.149324e-10 -1.282205e-10 -1.399735e-10 -1.557956e-10 -1.701810e-10 -1.893126e-10 -2.069960e-10 -2.302491e-10 -2.519012e-10 -2.797584e-10 -3.062352e-10 -3.402555e-10 -3.723396e-10 -4.137531e-10 -4.527818e-10 -5.029427e-10 -5.503275e-10 -6.115973e-10 -6.694628e-10 -7.436332e-10 -8.137606e-10 -9.042515e-10 -9.897431e-10 -1.099769e-09 -1.203943e-09 -1.337704e-09 -1.464191e-09 -1.626662e-09 -1.780557e-09 -1.978054e-09 -2.165244e-09 -2.405617e-09 -2.633538e-09 -2.925958e-09 -3.203128e-09 -3.558755e-09 -3.895992e-09 -4.328522e-09 -4.738780e-09 -5.265086e-09 -5.764072e-09 -6.404030e-09 -7.011208e-09 -7.789982e-09 -8.529094e-09 -9.476858e-09 -1.037651e-08 -1.152962e-08 -1.262444e-08 -1.402796e-08 -1.536080e-08 -1.706944e-08 -1.869248e-08 -2.077287e-08 -2.275016e-08 -2.528406e-08 -2.769290e-08 -3.077994e-08 -3.371633e-08 -3.747923e-08 -4.105993e-08 -4.564878e-08 -5.001805e-08 -5.561740e-08 -6.095205e-08 -6.778958e-08 -7.430904e-08 -8.266603e-08 -9.064107e-08 -1.008660e-07 -1.106345e-07 -1.231610e-07 -1.351440e-07 -1.505148e-07 -1.652412e-07 -1.841384e-07 -2.022765e-07 -2.255629e-07 -2.479628e-07 -2.767386e-07 -3.044917e-07 -3.401724e-07 -3.746930e-07 -4.191181e-07 -4.622594e-07 -5.178475e-07 -5.720699e-07 -6.420448e-07 -7.106633e-07 -7.993893e-07 -8.869446e-07 -1.000434e-06 -1.113262e-06 -1.259962e-06 -1.407090e-06 -1.599135e-06 -1.793731e-06 -2.048999e-06 -2.310776e-06 -2.656362e-06 -3.015713e-06 -3.494029e-06 -3.999406e-06 -4.679344e-06 -5.410978e-06 -6.409353e-06 -7.506098e-06 -9.031294e-06 -1.074625e-05 -1.319341e-05 -1.601760e-05 -2.019468e-05 -2.515653e-05 -3.288121e-05 -4.235394e-05 -5.825297e-05 -7.844139e-05 -1.163219e-04 -1.662760e-04 -2.762866e-04 -4.273092e-04 -8.377437e-04 -1.424318e-03 -3.460847e-03 -6.470277e-03 -2.009003e-02 -4.068755e-02 -2.008130e-01 -6.433457e+00 
-2.674953e-02 -1.629990e-02 3.553737e-01 2.913010e-01 -7.313075e-01 -8.843955e-01 -7.654238e-01 -6.047213e-01 -4.856561e-01 -4.207625e-01 -3.906735e-01 -3.717259e-01 -3.488692e-01 -3.186258e-01 -2.845004e-01 -2.520664e-01 -2.250544e-01 -2.045619e-01 -1.894589e-01 -1.778656e-01 -1.680069e-01 -1.588465e-01 -1.499582e-01 -1.413946e-01 -1.333213e-01 -1.259180e-01 -1.192330e-01 -1.132514e-01 -1.078724e-01 -1.030024e-01 -9.852322e-02 -9.435814e-02 -9.041114e-02 -8.663198e-02 -8.293587e-02 -7.929292e-02 -7.562491e-02 -7.192730e-02 -6.813391e-02 -6.427224e-02 -6.029320e-02 -5.625598e-02 -5.212899e-02 -4.799502e-02 -4.383667e-02 -3.974752e-02 -3.571907e-02 -3.184166e-02 -2.810998e-02 -2.459925e-02 -2.130262e-02 -1.827253e-02 -1.549797e-02 -1.300593e-02 -1.078100e-02 -8.826478e-03 -7.124370e-03 -5.659157e-03 -4.413052e-03 -3.358201e-03 -2.479807e-03 -1.744347e-03 -1.141911e-03 -6.390223e-04 -2.312898e-04 1.107055e-04 3.864717e-04 6.193410e-04 8.054964e-04 9.619462e-04 1.083498e-03 1.181838e-03 1.252184e-03 1.302434e-03 1.329417e-03 1.338698e-03 1.329125e-03 1.304939e-03 1.266718e-03 1.217864e-03 1.159969e-03 1.095732e-03 1.026972e-03 9.557085e-04 8.834019e-04 8.114814e-04 7.407761e-04 6.723268e-04 6.063189e-04 5.436544e-04 4.839934e-04 4.283021e-04 3.758420e-04 3.277417e-04 2.829419e-04 2.427306e-04 2.057622e-04 1.734241e-04 1.441122e-04 1.192461e-04 9.701381e-05 7.882219e-05 6.273128e-05 5.011691e-05 3.900619e-05 3.074095e-05 2.340496e-05 1.830448e-05 1.364819e-05 1.069874e-05 7.830702e-06 6.248122e-06 4.507808e-06 3.737271e-06 2.674183e-06 2.353572e-06 1.682333e-06 1.592408e-06 1.143703e-06 1.160940e-06 8.397762e-07 8.994390e-07 6.547408e-07 7.254792e-07 5.303505e-07 5.984411e-07 4.385142e-07 4.988903e-07 3.659935e-07 4.175159e-07 3.064716e-07 3.496091e-07 2.567185e-07 2.924838e-07 2.148466e-07 2.443459e-07 1.795619e-07 2.038227e-07 1.498604e-07 1.697783e-07 1.249056e-07 1.412407e-07 1.039819e-07 1.173692e-07 8.647267e-08 9.743877e-08 7.184624e-08 8.082595e-08 5.964695e-08 6.699838e-08 4.948547e-08 5.550326e-08 4.103135e-08 4.595650e-08 3.400424e-08 3.803501e-08 2.816850e-08 3.146725e-08 2.332588e-08 2.602580e-08 1.931001e-08 2.151955e-08 1.598101e-08 1.778899e-08 1.322246e-08 1.470204e-08 1.093800e-08 1.214914e-08 9.047073e-09 1.003829e-08 7.481904e-09 8.293071e-09 6.186483e-09 6.850317e-09 5.114769e-09 5.658176e-09 4.228358e-09 4.673025e-09 3.495199e-09 3.859074e-09 2.888735e-09 3.186795e-09 2.387482e-09 2.631136e-09 1.973078e-09 2.172587e-09 1.630403e-09 1.793608e-09 1.347234e-09 1.481076e-09 1.113272e-09 1.222842e-09 9.198401e-10 1.009376e-09 7.598444e-10 8.332334e-10 6.277334e-10 6.877584e-10 5.186114e-10 5.675685e-10 4.280147e-10 4.680130e-10 3.531594e-10 3.858797e-10 2.913092e-10 3.182019e-10 2.403781e-10 2.620652e-10 1.979501e-10 2.159350e-10 1.628380e-10 1.773611e-10 1.334704e-10 1.451348e-10 1.088426e-10 1.183293e-10 8.819635e-11 9.594966e-11 7.131581e-11 7.721008e-11 5.667708e-11 6.140723e-11 4.408647e-11 4.759479e-11 3.299598e-11 3.546941e-11 2.306715e-11 2.443198e-11 1.382432e-11 1.474418e-11 5.146461e-12 5.350801e-12 -3.213400e-12 -3.855731e-12 -1.163016e-11 -1.311834e-11 -2.065515e-11 -2.288341e-11 -3.036060e-11 -3.369675e-11 -4.153359e-11 -4.592575e-11 -5.419783e-11 -5.988057e-11 -6.902239e-11 -7.582604e-11 -8.627401e-11 -9.490787e-11 -1.068209e-10 -1.175690e-10 -1.315774e-10 -1.447622e-10 -1.613742e-10 -1.775256e-10 -1.973076e-10 -2.172879e-10 -2.411295e-10 -2.652883e-10 -2.941636e-10 -3.236016e-10 -3.583338e-10 -3.943784e-10 -4.364675e-10 -4.803699e-10 -5.313454e-10 -5.847204e-10 -6.465268e-10 -7.112560e-10 -7.862920e-10 -8.651587e-10 -9.566679e-10 -1.052427e-09 -1.163469e-09 -1.280093e-09 -1.415098e-09 -1.556980e-09 -1.721148e-09 -1.893697e-09 -2.093444e-09 -2.303455e-09 -2.546289e-09 -2.801563e-09 -3.096743e-09 -3.407076e-09 -3.766153e-09 -4.143725e-09 -4.580582e-09 -5.039870e-09 -5.571036e-09 -6.130041e-09 -6.776276e-09 -7.456267e-09 -8.242207e-09 -9.069415e-09 -1.002558e-08 -1.103192e-08 -1.219509e-08 -1.341966e-08 -1.483476e-08 -1.632514e-08 -1.804705e-08 -1.986074e-08 -2.195636e-08 -2.416391e-08 -2.671427e-08 -2.940138e-08 -3.250624e-08 -3.577815e-08 -3.955851e-08 -4.354332e-08 -4.814780e-08 -5.300228e-08 -5.861182e-08 -6.452787e-08 -7.136492e-08 -7.857744e-08 -8.691460e-08 -9.571275e-08 -1.058855e-07 -1.166235e-07 -1.290442e-07 -1.421607e-07 -1.573393e-07 -1.733757e-07 -1.919440e-07 -2.115717e-07 -2.343156e-07 -2.583715e-07 -2.862728e-07 -3.158043e-07 -3.500959e-07 -3.864211e-07 -4.286616e-07 -4.734506e-07 -5.256241e-07 -5.810101e-07 -6.456645e-07 -7.143956e-07 -7.948353e-07 -8.804903e-07 -9.810484e-07 -1.088343e-06 -1.214778e-06 -1.350012e-06 -1.510088e-06 -1.681814e-06 -1.886176e-06 -2.106204e-06 -2.369721e-06 -2.654690e-06 -2.998567e-06 -3.372447e-06 -3.827641e-06 -4.325834e-06 -4.938739e-06 -5.615011e-06 -6.457220e-06 -7.395857e-06 -8.581583e-06 -9.919530e-06 -1.163801e-05 -1.360711e-05 -1.618587e-05 -1.919771e-05 -2.323322e-05 -2.806035e-05 -3.470603e-05 -4.289718e-05 -5.454933e-05 -6.946284e-05 -9.154918e-05 -1.211821e-04 -1.673529e-04 -2.329482e-04 -3.421770e-04 -5.073079e-04 -8.096545e-04 -1.285009e-03 -2.313381e-03 -3.774419e-03 -8.518755e-03 -1.133251e-02 -6.278469e-02 -1.662919e-01 
-1.095394e+00 -6.740421e-03 -5.048785e-01 -4.352267e-01 -4.041221e-01 -4.402782e-01 -4.262464e-01 -3.876252e-01 -3.630624e-01 -3.623165e-01 -3.742942e-01 -3.821141e-01 -3.762722e-01 -3.564909e-01 -3.286497e-01 -2.996959e-01 -2.744392e-01 -2.545949e-01 -2.395110e-01 -2.275421e-01 -2.170918e-01 -2.071901e-01 -1.974775e-01 -1.880258e-01 -1.790376e-01 -1.707008e-01 -1.630877e-01 -1.561821e-01 -1.498950e-01 -1.441216e-01 -1.387447e-01 -1.336695e-01 -1.287933e-01 -1.240445e-01 -1.193269e-01 -1.145908e-01 -1.097460e-01 -1.047747e-01 -9.960284e-02 -9.425572e-02 -8.868393e-02 -8.295791e-02 -7.705480e-02 -7.108082e-02 -6.503502e-02 -5.904229e-02 -5.311437e-02 -4.737500e-02 -4.183775e-02 -3.660747e-02 -3.169030e-02 -2.716035e-02 -2.301103e-02 -1.928118e-02 -1.595117e-02 -1.302683e-02 -1.047926e-02 -8.288431e-03 -6.422084e-03 -4.843877e-03 -3.524070e-03 -2.419662e-03 -1.507605e-03 -7.462241e-04 -1.209315e-04 4.033501e-04 8.333055e-04 1.195132e-03 1.489823e-03 1.734950e-03 1.928748e-03 2.082037e-03 2.193014e-03 2.268169e-03 2.307481e-03 2.315207e-03 2.293730e-03 2.246355e-03 2.177428e-03 2.089760e-03 1.988595e-03 1.876198e-03 1.757575e-03 1.634299e-03 1.510338e-03 1.386601e-03 1.265722e-03 1.148196e-03 1.035416e-03 9.278201e-04 8.258251e-04 7.301018e-04 6.403345e-04 5.575507e-04 4.808436e-04 4.115630e-04 3.482701e-04 2.925205e-04 2.423882e-04 1.995166e-04 1.615774e-04 1.302285e-04 1.028741e-04 8.116220e-05 6.238966e-05 4.819577e-05 3.592163e-05 2.719977e-05 1.953046e-05 1.452841e-05 9.922392e-06 7.284132e-06 4.599219e-06 3.364524e-06 1.821783e-06 1.363098e-06 4.692515e-07 4.058083e-07 -1.314591e-07 -1.484975e-08 -3.589268e-07 -1.754873e-07 -4.133706e-07 -2.181454e-07 -3.946116e-07 -2.117070e-07 -3.495618e-07 -1.877185e-07 -2.988821e-07 -1.597442e-07 -2.509093e-07 -1.331410e-07 -2.084968e-07 -1.097071e-07 -1.721895e-07 -8.977977e-08 -1.416320e-07 -7.314262e-08 -1.161664e-07 -5.939822e-08 -9.507762e-08 -4.811990e-08 -7.769020e-08 -3.890922e-08 -6.340059e-08 -3.141288e-08 -5.168589e-08 -2.532814e-08 -4.210075e-08 -2.039979e-08 -3.427001e-08 -1.641469e-08 -2.788013e-08 -1.319721e-08 -2.267163e-08 -1.060228e-08 -1.842880e-08 -8.511652e-09 -1.497505e-08 -6.828116e-09 -1.216484e-08 -5.473853e-09 -9.879481e-09 -4.385745e-09 -8.022138e-09 -3.511492e-09 -6.512405e-09 -2.809538e-09 -5.285542e-09 -2.246197e-09 -4.288917e-09 -1.794144e-09 -3.479558e-09 -1.432192e-09 -2.822329e-09 -1.142344e-09 -2.289036e-09 -9.103232e-10 -1.856292e-09 -7.248034e-10 -1.505006e-09 -5.766277e-10 -1.219958e-09 -4.581928e-10 -9.887796e-10 -3.635457e-10 -8.011739e-10 -2.884299e-10 -6.492872e-10 -2.283323e-10 -5.257904e-10 -1.804478e-10 -4.259070e-10 -1.425453e-10 -3.449189e-10 -1.123653e-10 -2.793941e-10 -8.856326e-11 -2.262252e-10 -7.002960e-11 -1.835844e-10 -5.539565e-11 -1.491482e-10 -4.402344e-11 -1.210929e-10 -3.497607e-11 -9.872576e-11 -2.814395e-11 -8.096325e-11 -2.311472e-11 -6.651812e-11 -1.915836e-11 -5.532004e-11 -1.655203e-11 -4.669571e-11 -1.530328e-11 -4.031941e-11 -1.463225e-11 -3.551521e-11 -1.466516e-11 -3.208533e-11 -1.541696e-11 -3.019444e-11 -1.711184e-11 -3.004971e-11 -1.976422e-11 -3.109376e-11 -2.357554e-11 -3.372970e-11 -2.781245e-11 -3.711464e-11 -3.333529e-11 -4.209057e-11 -4.005821e-11 -4.857605e-11 -4.838983e-11 -5.719856e-11 -5.865421e-11 -6.798943e-11 -7.122811e-11 -8.154324e-11 -8.659180e-11 -9.803693e-11 -1.052251e-10 -1.185467e-10 -1.279004e-10 -1.435787e-10 -1.557917e-10 -1.740400e-10 -1.892926e-10 -2.110816e-10 -2.299351e-10 -2.561924e-10 -2.797647e-10 -3.111822e-10 -3.402155e-10 -3.783084e-10 -4.137719e-10 -4.599668e-10 -5.033396e-10 -5.591864e-10 -6.120153e-10 -6.800966e-10 -7.446613e-10 -8.273349e-10 -9.058590e-10 -1.006011e-09 -1.101325e-09 -1.223273e-09 -1.339193e-09 -1.487175e-09 -1.628539e-09 -1.808458e-09 -1.980478e-09 -2.199453e-09 -2.408589e-09 -2.674581e-09 -2.929176e-09 -3.252820e-09 -3.562316e-09 -3.956154e-09 -4.332683e-09 -4.811202e-09 -5.268995e-09 -5.851053e-09 -6.407905e-09 -7.116192e-09 -7.793618e-09 -8.654741e-09 -9.478836e-09 -1.052641e-08 -1.152908e-08 -1.280340e-08 -1.402311e-08 -1.557305e-08 -1.705709e-08 -1.894262e-08 -2.074835e-08 -2.304215e-08 -2.523952e-08 -2.803073e-08 -3.070494e-08 -3.410164e-08 -3.735673e-08 -4.149091e-08 -4.545330e-08 -5.048561e-08 -5.531047e-08 -6.143793e-08 -6.731412e-08 -7.477678e-08 -8.193614e-08 -9.102780e-08 -9.975370e-08 -1.108344e-07 -1.214742e-07 -1.349859e-07 -1.479663e-07 -1.644515e-07 -1.802987e-07 -2.004261e-07 -2.197885e-07 -2.443837e-07 -2.680646e-07 -2.981511e-07 -3.271473e-07 -3.639973e-07 -3.995539e-07 -4.447568e-07 -4.884348e-07 -5.439862e-07 -5.977535e-07 -6.661756e-07 -7.325331e-07 -8.170367e-07 -8.991869e-07 -1.003894e-06 -1.105976e-06 -1.236231e-06 -1.363656e-06 -1.526468e-06 -1.686393e-06 -1.891077e-06 -2.093106e-06 -2.352222e-06 -2.609455e-06 -2.940229e-06 -3.270845e-06 -3.697351e-06 -4.127093e-06 -4.683699e-06 -5.249843e-06 -5.986790e-06 -6.744660e-06 -7.737378e-06 -8.771395e-06 -1.013657e-05 -1.157961e-05 -1.350399e-05 -1.557259e-05 -1.836674e-05 -2.142807e-05 -2.563177e-05 -3.033711e-05 -3.693743e-05 -4.450351e-05 -5.541412e-05 -6.825346e-05 -8.744115e-05 -1.106722e-04 -1.469928e-04 -1.923145e-04 -2.671126e-04 -3.633583e-04 -5.315511e-04 -7.541702e-04 -1.159803e-03 -1.706253e-03 -2.681992e-03 -3.966569e-03 -5.907821e-03 -7.939685e-03 -2.496831e-02 -9.512815e-01 
-1.044181e-02 -8.910630e-05 2.500879e-01 3.102190e-01 1.798382e-02 -1.043382e-01 -1.424881e-01 -1.564414e-01 -1.828673e-01 -2.271523e-01 -2.760608e-01 -3.131793e-01 -3.301131e-01 -3.278903e-01 -3.134651e-01 -2.946989e-01 -2.771580e-01 -2.631762e-01 -2.525903e-01 -2.441095e-01 -2.363934e-01 -2.286418e-01 -2.206216e-01 -2.124919e-01 -2.045304e-01 -1.969799e-01 -1.899627e-01 -1.834959e-01 -1.775207e-01 -1.719472e-01 -1.666726e-01 -1.616032e-01 -1.566399e-01 -1.517031e-01 -1.466941e-01 -1.415513e-01 -1.361802e-01 -1.305528e-01 -1.245934e-01 -1.183248e-01 -1.117018e-01 -1.048030e-01 -9.761752e-02 -9.027082e-02 -8.278019e-02 -7.529792e-02 -6.785674e-02 -6.061100e-02 -5.359332e-02 -4.693700e-02 -4.066120e-02 -3.486199e-02 -2.953753e-02 -2.474004e-02 -2.044641e-02 -1.666743e-02 -1.336459e-02 -1.051626e-02 -8.077506e-03 -6.006572e-03 -4.260906e-03 -2.790982e-03 -1.562870e-03 -5.293500e-04 3.322137e-04 1.060346e-03 1.667066e-03 2.179760e-03 2.602850e-03 2.953384e-03 3.232174e-03 3.448690e-03 3.603771e-03 3.702570e-03 3.748306e-03 3.744424e-03 3.697203e-03 3.609772e-03 3.490698e-03 3.343038e-03 3.176076e-03 2.992413e-03 2.800469e-03 2.601986e-03 2.403495e-03 2.205832e-03 2.013357e-03 1.826346e-03 1.647248e-03 1.476294e-03 1.314491e-03 1.162436e-03 1.020084e-03 8.885541e-04 7.669549e-04 6.568562e-04 5.565872e-04 4.679822e-04 3.886431e-04 3.204952e-04 2.605302e-04 2.106700e-04 1.674941e-04 1.329049e-04 1.033091e-04 8.061163e-05 6.127087e-05 4.721315e-05 3.511757e-05 2.692508e-05 1.963423e-05 1.516785e-05 1.088111e-05 8.631851e-06 6.126708e-06 5.112185e-06 3.618276e-06 3.244665e-06 2.308038e-06 2.240788e-06 1.609321e-06 1.672560e-06 1.212909e-06 1.320651e-06 9.645489e-07 1.078188e-06 7.908469e-07 8.950726e-07 6.580419e-07 7.481897e-07 5.507173e-07 6.265778e-07 4.615326e-07 5.245209e-07 3.865755e-07 4.385254e-07 3.233791e-07 3.660755e-07 2.701223e-07 3.051469e-07 2.253223e-07 2.540211e-07 1.877157e-07 2.112153e-07 1.562129e-07 1.754467e-07 1.298723e-07 1.456098e-07 1.078838e-07 1.207581e-07 8.955464e-08 1.000853e-07 7.429410e-08 8.290718e-08 6.160182e-08 6.864611e-08 5.105491e-08 5.681644e-08 4.229764e-08 4.700963e-08 3.503093e-08 3.888497e-08 2.900465e-08 3.215646e-08 2.400879e-08 2.658672e-08 1.986904e-08 2.197784e-08 1.644061e-08 1.816542e-08 1.360160e-08 1.501247e-08 1.125139e-08 1.240529e-08 9.305977e-09 1.024988e-08 7.696322e-09 8.468175e-09 6.364096e-09 6.995527e-09 5.262305e-09 5.778585e-09 4.350787e-09 4.773275e-09 3.597040e-09 3.942611e-09 2.973582e-09 3.256296e-09 2.458022e-09 2.689114e-09 2.031747e-09 2.220784e-09 1.679246e-09 1.833894e-09 1.387799e-09 1.514259e-09 1.147010e-09 1.250308e-09 9.475030e-10 1.032136e-09 7.826592e-10 8.516007e-10 6.460045e-10 7.022050e-10 5.329576e-10 5.790343e-10 4.394305e-10 4.770415e-10 3.618320e-10 3.923349e-10 2.974906e-10 3.224670e-10 2.440550e-10 2.641521e-10 1.992434e-10 2.152690e-10 1.614994e-10 1.742961e-10 1.296974e-10 1.402740e-10 1.032773e-10 1.109483e-10 7.976125e-11 8.558515e-11 5.933498e-11 6.321939e-11 4.065499e-11 4.299697e-11 2.340149e-11 2.443083e-11 7.204400e-12 6.691033e-12 -8.590491e-12 -1.035729e-11 -2.476629e-11 -2.810164e-11 -4.201620e-11 -4.697546e-11 -6.094287e-11 -6.768038e-11 -8.242041e-11 -9.110472e-11 -1.070220e-10 -1.182201e-10 -1.357333e-10 -1.497559e-10 -1.696428e-10 -1.869045e-10 -2.099990e-10 -2.314572e-10 -2.584949e-10 -2.845646e-10 -3.168592e-10 -3.489016e-10 -3.875216e-10 -4.265260e-10 -4.731837e-10 -5.208959e-10 -5.771377e-10 -6.349368e-10 -7.029858e-10 -7.734047e-10 -8.561047e-10 -9.418932e-10 -1.042137e-09 -1.146545e-09 -1.268078e-09 -1.395180e-09 -1.542823e-09 -1.697403e-09 -1.876333e-09 -2.064299e-09 -2.282105e-09 -2.510856e-09 -2.775763e-09 -3.054055e-09 -3.376206e-09 -3.714442e-09 -4.106351e-09 -4.517928e-09 -4.994453e-09 -5.495064e-09 -6.074397e-09 -6.683285e-09 -7.387606e-09 -8.128448e-09 -8.985269e-09 -9.886419e-09 -1.092869e-08 -1.202475e-08 -1.329244e-08 -1.462596e-08 -1.616803e-08 -1.779043e-08 -1.966617e-08 -2.163984e-08 -2.392176e-08 -2.632305e-08 -2.909930e-08 -3.202156e-08 -3.539959e-08 -3.895578e-08 -4.306634e-08 -4.739481e-08 -5.239794e-08 -5.766661e-08 -6.375622e-08 -7.017092e-08 -7.758561e-08 -8.539739e-08 -9.442698e-08 -1.039424e-07 -1.149427e-07 -1.265373e-07 -1.399429e-07 -1.540769e-07 -1.704216e-07 -1.876589e-07 -2.075975e-07 -2.286322e-07 -2.529719e-07 -2.786587e-07 -3.083946e-07 -3.397893e-07 -3.761540e-07 -4.145648e-07 -4.590889e-07 -5.061438e-07 -5.607369e-07 -6.184694e-07 -6.855256e-07 -7.564903e-07 -8.390291e-07 -9.264556e-07 -1.028312e-06 -1.136313e-06 -1.262397e-06 -1.396253e-06 -1.552911e-06 -1.719471e-06 -1.914991e-06 -2.123241e-06 -2.368583e-06 -2.630466e-06 -2.940324e-06 -3.271944e-06 -3.666333e-06 -4.089771e-06 -4.596426e-06 -5.142524e-06 -5.800635e-06 -6.513369e-06 -7.379520e-06 -8.323048e-06 -9.480904e-06 -1.075124e-05 -1.232782e-05 -1.407278e-05 -1.626666e-05 -1.872101e-05 -2.185290e-05 -2.540275e-05 -3.000970e-05 -3.531507e-05 -4.233333e-05 -5.057136e-05 -6.170728e-05 -7.507601e-05 -9.359241e-05 -1.163948e-04 -1.488478e-04 -1.898791e-04 -2.500570e-04 -3.277488e-04 -4.454720e-04 -5.972450e-04 -8.352801e-04 -1.121597e-03 -1.586077e-03 -2.005881e-03 -2.726538e-03 -2.979261e-03 -9.419569e-03 -2.501060e-02 