# vtk DataFile Version 2.0
Comment goes here
ASCII

DATASET STRUCTURED_POINTS
FIELD FieldData 1
TIME 1 1 double
0.45000000
DIMENSIONS    384   64   1

ORIGIN    0.000   0.000   0.000
SPACING   0.078125 0.078125   1.000

POINT_DATA   24576
SCALARS uMag double
LOOKUP_TABLE default

4.702366e-01 6.021647e-02 4.697217e-01 2.279527e-02 6.337319e-01 1.049451e+00 1.311443e+00 1.491203e+00 1.592599e+00 1.680245e+00 1.731742e+00 1.783302e+00 1.817688e+00 1.851589e+00 1.878361e+00 1.901480e+00 1.923846e+00 1.939559e+00 1.959074e+00 1.969557e+00 1.987267e+00 1.994097e+00 2.010760e+00 2.015072e+00 2.031190e+00 2.033755e+00 2.049609e+00 2.050911e+00 2.066606e+00 2.066915e+00 2.082424e+00 2.081854e+00 2.097061e+00 2.095611e+00 2.110339e+00 2.107938e+00 2.121985e+00 2.118522e+00 2.131687e+00 2.127045e+00 2.139155e+00 2.133238e+00 2.144175e+00 2.136927e+00 2.146637e+00 2.138055e+00 2.146550e+00 2.136685e+00 2.144040e+00 2.132995e+00 2.139335e+00 2.127255e+00 2.132743e+00 2.119804e+00 2.124627e+00 2.111024e+00 2.115379e+00 2.101315e+00 2.105396e+00 2.091069e+00 2.095058e+00 2.080649e+00 2.084706e+00 2.070373e+00 2.074630e+00 2.060499e+00 2.065056e+00 2.051222e+00 2.056148e+00 2.042674e+00 2.048009e+00 2.034929e+00 2.040689e+00 2.028014e+00 2.034195e+00 2.021917e+00 2.028501e+00 2.016601e+00 2.023559e+00 2.012007e+00 2.019306e+00 2.008069e+00 2.015673e+00 2.004717e+00 2.012589e+00 2.001879e+00 2.009985e+00 1.999488e+00 2.007795e+00 1.997482e+00 2.005961e+00 1.995805e+00 2.004430e+00 1.994406e+00 2.003155e+00 1.993243e+00 2.002095e+00 1.992277e+00 2.001216e+00 1.991476e+00 2.000488e+00 1.990814e+00 1.999886e+00 1.990266e+00 1.999388e+00 1.989813e+00 1.998977e+00 1.989440e+00 1.998638e+00 1.989132e+00 1.998359e+00 1.988878e+00 1.998129e+00 1.988669e+00 1.997939e+00 1.988497e+00 1.997783e+00 1.988355e+00 1.997654e+00 1.988238e+00 1.997548e+00 1.988142e+00 1.997461e+00 1.988063e+00 1.997389e+00 1.987998e+00 1.997330e+00 1.987944e+00 1.997282e+00 1.987900e+00 1.997242e+00 1.987864e+00 1.997209e+00 1.987834e+00 1.997182e+00 1.987810e+00 1.997160e+00 1.987789e+00 1.997142e+00 1.987773e+00 1.997127e+00 1.987759e+00 1.997114e+00 1.987748e+00 1.997104e+00 1.987739e+00 1.997096e+00 1.987731e+00 1.997089e+00 1.987725e+00 1.997083e+00 1.987720e+00 1.997079e+00 1.987716e+00 1.997075e+00 1.987712e+00 1.997072e+00 1.987709e+00 1.997069e+00 1.987707e+00 1.997067e+00 1.987705e+00 1.997065e+00 1.987703e+00 1.997064e+00 1.987702e+00 1.997063e+00 1.987701e+00 1.997062e+00 1.987700e+00 1.997061e+00 1.987699e+00 1.997060e+00 1.987699e+00 1.997060e+00 1.987698e+00 1.997059e+00 1.987698e+00 1.997059e+00 1.987698e+00 1.997058e+00 1.987697e+00 1.997058e+00 1.987697e+00 1.997058e+00 1.987697e+00 1.997058e+00 1.987697e+00 1.997058e+00 1.987697e+00 1.997058e+00 1.987697e+00 1.997057e+00 1.987697e+00 1.997057e+00 1.987696e+00 1.997057e+00 1.987696e+00 1.997057e+00 1.987696e+00 1.997057e+00 1.987696e+00 1.997057e+00 1.987696e+00 1.997057e+00 1.987696e+00 1.997057e+00 1.987696e+00 1.997057e+00 1.987696e+00 1.997057e+00 1.987696e+00 1.997057e+00 1.987696e+00 1.997057e+00 1.987696e+00 1.997057e+00 1.987696e+00 1.997057e+00 1.987696e+00 1.997057e+00 1.987696e+00 1.997057e+00 1.987696e+00 1.997057e+00 1.987696e+00 1.997057e+00 1.987696e+00 1.997057e+00 1.987696e+00 1.997057e+00 1.987696e+00 1.997057e+00 1.987696e+00 1.997057e+00 1.987696e+00 1.997057e+00 1.987696e+00 1.997057e+00 1.987696e+00 1.997057e+00 1.987696e+00 1.997057e+00 1.987696e+00 1.997057e+00 1.987696e+00 1.997057e+00 1.987696e+00 1.997057e+00 1.987696e+00 1.997057e+00 1.987696e+00 1.997057e+00 1.987696e+00 1.997057e+00 1.987696e+00 1.997056e+00 1.987695e+00 1.997056e+00 1.987695e+00 1.997056e+00 1.987695e+00 1.997056e+00 1.987695e+00 1.997056e+00 1.987695e+00 1.997055e+00 1.987694e+00 1.997055e+00 1.987694e+00 1.997055e+00 1.987694e+00 1.997054e+00 1.987693e+00 1.997053e+00 1.987692e+00 1.997053e+00 1.987692e+00 1.997052e+00 1.987691e+00 1.997050e+00 1.987690e+00 1.997049e+00 1.987688e+00 1.997047e+00 1.987686e+00 1.997045e+00 1.987684e+00 1.997042e+00 1.987682e+00 1.997039e+00 1.987679e+00 1.997036e+00 1.987675e+00 1.997031e+00 1.987671e+00 1.997025e+00 1.987665e+00 1.997018e+00 1.987658e+00 1.997010e+00 1.987650e+00 1.997000e+00 1.987640e+00 1.996988e+00 1.987629e+00 1.996973e+00 1.987614e+00 1.996955e+00 1.987596e+00 1.996933e+00 1.987575e+00 1.996906e+00 1.987549e+00 1.996873e+00 1.987517e+00 1.996833e+00 1.987478e+00 1.996785e+00 1.987431e+00 1.996726e+00 1.987374e+00 1.996655e+00 1.987304e+00 1.996568e+00 1.987220e+00 1.996462e+00 1.987117e+00 1.996334e+00 1.986991e+00 1.996177e+00 1.986838e+00 1.995986e+00 1.986652e+00 1.995753e+00 1.986425e+00 1.995469e+00 1.986147e+00 1.995121e+00 1.985808e+00 1.994697e+00 1.985393e+00 1.994178e+00 1.984885e+00 1.993542e+00 1.984261e+00 1.992761e+00 1.983494e+00 1.991799e+00 1.982548e+00 1.990613e+00 1.981378e+00 1.989144e+00 1.979924e+00 1.987319e+00 1.978110e+00 1.985037e+00 1.975833e+00 1.982167e+00 1.972951e+00 1.978529e+00 1.969269e+00 1.973869e+00 1.964506e+00 1.967821e+00 1.958249e+00 1.959837e+00 1.949853e+00 1.949057e+00 1.938267e+00 1.934048e+00 1.921649e+00 1.912236e+00 1.896460e+00 1.878512e+00 1.855052e+00 1.821377e+00 1.778347e+00 1.710964e+00 1.611256e+00 1.459574e+00 1.178764e+00 8.087589e-01 1.701401e-02 
2.013882e+00 1.977984e+00 2.013977e+00 2.044842e+00 1.955769e+00 1.887329e+00 1.873216e+00 1.865004e+00 1.891039e+00 1.891363e+00 1.925211e+00 1.924369e+00 1.959030e+00 1.955744e+00 1.989213e+00 1.983312e+00 2.014968e+00 2.006696e+00 2.036611e+00 2.026480e+00 2.055056e+00 2.043648e+00 2.071342e+00 2.059152e+00 2.086324e+00 2.073691e+00 2.100556e+00 2.087658e+00 2.114295e+00 2.101180e+00 2.127556e+00 2.114169e+00 2.140167e+00 2.126384e+00 2.151832e+00 2.137482e+00 2.162182e+00 2.147075e+00 2.170834e+00 2.154791e+00 2.177443e+00 2.160319e+00 2.181753e+00 2.163454e+00 2.183621e+00 2.164114e+00 2.183034e+00 2.162347e+00 2.180100e+00 2.158318e+00 2.175034e+00 2.152286e+00 2.168135e+00 2.144586e+00 2.159757e+00 2.135594e+00 2.150288e+00 2.125706e+00 2.140121e+00 2.115310e+00 2.129630e+00 2.104769e+00 2.119155e+00 2.094395e+00 2.108980e+00 2.084445e+00 2.099330e+00 2.075110e+00 2.090365e+00 2.066520e+00 2.082184e+00 2.058746e+00 2.074834e+00 2.051811e+00 2.068319e+00 2.045702e+00 2.062612e+00 2.040378e+00 2.057661e+00 2.035781e+00 2.053403e+00 2.031842e+00 2.049768e+00 2.028490e+00 2.046683e+00 2.025653e+00 2.044078e+00 2.023263e+00 2.041889e+00 2.021259e+00 2.040056e+00 2.019583e+00 2.038525e+00 2.018186e+00 2.037251e+00 2.017024e+00 2.036192e+00 2.016059e+00 2.035313e+00 2.015259e+00 2.034586e+00 2.014598e+00 2.033984e+00 2.014050e+00 2.033487e+00 2.013598e+00 2.033076e+00 2.013225e+00 2.032737e+00 2.012918e+00 2.032458e+00 2.012664e+00 2.032228e+00 2.012455e+00 2.032038e+00 2.012283e+00 2.031882e+00 2.012141e+00 2.031753e+00 2.012024e+00 2.031647e+00 2.011928e+00 2.031560e+00 2.011849e+00 2.031489e+00 2.011784e+00 2.031430e+00 2.011731e+00 2.031381e+00 2.011687e+00 2.031341e+00 2.011650e+00 2.031308e+00 2.011621e+00 2.031281e+00 2.011596e+00 2.031259e+00 2.011576e+00 2.031241e+00 2.011559e+00 2.031226e+00 2.011546e+00 2.031213e+00 2.011535e+00 2.031203e+00 2.011525e+00 2.031195e+00 2.011518e+00 2.031188e+00 2.011511e+00 2.031182e+00 2.011506e+00 2.031178e+00 2.011502e+00 2.031174e+00 2.011499e+00 2.031171e+00 2.011496e+00 2.031168e+00 2.011493e+00 2.031166e+00 2.011492e+00 2.031164e+00 2.011490e+00 2.031163e+00 2.011489e+00 2.031162e+00 2.011488e+00 2.031161e+00 2.011487e+00 2.031160e+00 2.011486e+00 2.031159e+00 2.011485e+00 2.031159e+00 2.011485e+00 2.031158e+00 2.011485e+00 2.031158e+00 2.011484e+00 2.031158e+00 2.011484e+00 2.031157e+00 2.011484e+00 2.031157e+00 2.011483e+00 2.031157e+00 2.011483e+00 2.031157e+00 2.011483e+00 2.031157e+00 2.011483e+00 2.031157e+00 2.011483e+00 2.031157e+00 2.011483e+00 2.031156e+00 2.011483e+00 2.031156e+00 2.011483e+00 2.031156e+00 2.011483e+00 2.031156e+00 2.011483e+00 2.031156e+00 2.011483e+00 2.031156e+00 2.011483e+00 2.031156e+00 2.011483e+00 2.031156e+00 2.011483e+00 2.031156e+00 2.011483e+00 2.031156e+00 2.011483e+00 2.031156e+00 2.011483e+00 2.031156e+00 2.011483e+00 2.031156e+00 2.011483e+00 2.031156e+00 2.011483e+00 2.031156e+00 2.011483e+00 2.031156e+00 2.011483e+00 2.031156e+00 2.011483e+00 2.031156e+00 2.011483e+00 2.031156e+00 2.011483e+00 2.031156e+00 2.011483e+00 2.031156e+00 2.011483e+00 2.031156e+00 2.011483e+00 2.031156e+00 2.011483e+00 2.031156e+00 2.011483e+00 2.031156e+00 2.011483e+00 2.031156e+00 2.011483e+00 2.031156e+00 2.011483e+00 2.031156e+00 2.011483e+00 2.031156e+00 2.011483e+00 2.031156e+00 2.011483e+00 2.031156e+00 2.011483e+00 2.031156e+00 2.011483e+00 2.031156e+00 2.011482e+00 2.031156e+00 2.011482e+00 2.031156e+00 2.011482e+00 2.031156e+00 2.011482e+00 2.031156e+00 2.011482e+00 2.031156e+00 2.011482e+00 2.031156e+00 2.011482e+00 2.031156e+00 2.011482e+00 2.031156e+00 2.011482e+00 2.031155e+00 2.011482e+00 2.031155e+00 2.011482e+00 2.031155e+00 2.011481e+00 2.031155e+00 2.011481e+00 2.031155e+00 2.011481e+00 2.031154e+00 2.011481e+00 2.031154e+00 2.011480e+00 2.031153e+00 2.011480e+00 2.031153e+00 2.011479e+00 2.031152e+00 2.011478e+00 2.031151e+00 2.011477e+00 2.031150e+00 2.011476e+00 2.031149e+00 2.011475e+00 2.031148e+00 2.011473e+00 2.031146e+00 2.011471e+00 2.031144e+00 2.011469e+00 2.031141e+00 2.011466e+00 2.031138e+00 2.011462e+00 2.031134e+00 2.011458e+00 2.031130e+00 2.011452e+00 2.031124e+00 2.011446e+00 2.031118e+00 2.011438e+00 2.031109e+00 2.011429e+00 2.031100e+00 2.011418e+00 2.031088e+00 2.011404e+00 2.031073e+00 2.011388e+00 2.031056e+00 2.011367e+00 2.031034e+00 2.011343e+00 2.031008e+00 2.011313e+00 2.030977e+00 2.011277e+00 2.030938e+00 2.011233e+00 2.030891e+00 2.011179e+00 2.030833e+00 2.011112e+00 2.030762e+00 2.011031e+00 2.030675e+00 2.010931e+00 2.030566e+00 2.010807e+00 2.030432e+00 2.010653e+00 2.030263e+00 2.010460e+00 2.030051e+00 2.010218e+00 2.029781e+00 2.009910e+00 2.029435e+00 2.009516e+00 2.028984e+00 2.009004e+00 2.028387e+00 2.008326e+00 2.027583e+00 2.007414e+00 2.026471e+00 2.006151e+00 2.024886e+00 2.004349e+00 2.022539e+00 2.001671e+00 2.018907e+00 1.997511e+00 2.012999e+00 1.990756e+00 2.002959e+00 1.979578e+00 1.985908e+00 1.963014e+00 1.964035e+00 1.960332e+00 2.007077e+00 2.068733e+00 
2.085462e+00 2.062432e+00 2.085363e+00 2.050051e+00 1.783689e+00 1.738061e+00 1.683222e+00 1.713903e+00 1.724344e+00 1.764731e+00 1.787586e+00 1.821562e+00 1.845093e+00 1.871103e+00 1.892979e+00 1.912053e+00 1.931965e+00 1.945456e+00 1.963688e+00 1.972908e+00 1.989946e+00 1.996046e+00 2.012367e+00 2.016255e+00 2.032217e+00 2.034540e+00 2.050348e+00 2.051525e+00 2.067242e+00 2.067506e+00 2.083083e+00 2.082519e+00 2.097822e+00 2.096413e+00 2.111251e+00 2.108906e+00 2.123059e+00 2.119653e+00 2.132907e+00 2.128308e+00 2.140480e+00 2.134582e+00 2.145546e+00 2.138290e+00 2.147991e+00 2.139371e+00 2.147825e+00 2.137898e+00 2.145184e+00 2.134057e+00 2.140309e+00 2.128132e+00 2.133520e+00 2.120476e+00 2.125194e+00 2.111485e+00 2.115736e+00 2.101570e+00 2.105555e+00 2.091135e+00 2.095040e+00 2.080552e+00 2.084540e+00 2.070143e+00 2.074347e+00 2.060170e+00 2.064690e+00 2.050826e+00 2.055731e+00 2.042241e+00 2.047568e+00 2.034484e+00 2.040246e+00 2.027576e+00 2.033767e+00 2.021501e+00 2.028100e+00 2.016215e+00 2.023191e+00 2.011658e+00 2.018976e+00 2.007758e+00 2.015381e+00 2.004444e+00 2.012334e+00 2.001642e+00 2.009764e+00 1.999284e+00 2.007606e+00 1.997308e+00 2.005800e+00 1.995657e+00 2.004294e+00 1.994281e+00 2.003040e+00 1.993138e+00 2.001999e+00 1.992189e+00 2.001136e+00 1.991403e+00 2.000421e+00 1.990753e+00 1.999830e+00 1.990215e+00 1.999342e+00 1.989771e+00 1.998939e+00 1.989405e+00 1.998607e+00 1.989103e+00 1.998333e+00 1.988854e+00 1.998107e+00 1.988649e+00 1.997921e+00 1.988480e+00 1.997768e+00 1.988341e+00 1.997642e+00 1.988227e+00 1.997538e+00 1.988133e+00 1.997453e+00 1.988055e+00 1.997382e+00 1.987991e+00 1.997325e+00 1.987939e+00 1.997277e+00 1.987896e+00 1.997238e+00 1.987860e+00 1.997206e+00 1.987831e+00 1.997179e+00 1.987807e+00 1.997158e+00 1.987787e+00 1.997140e+00 1.987771e+00 1.997125e+00 1.987758e+00 1.997113e+00 1.987747e+00 1.997103e+00 1.987738e+00 1.997095e+00 1.987730e+00 1.997088e+00 1.987724e+00 1.997083e+00 1.987719e+00 1.997078e+00 1.987715e+00 1.997074e+00 1.987712e+00 1.997071e+00 1.987709e+00 1.997069e+00 1.987707e+00 1.997067e+00 1.987705e+00 1.997065e+00 1.987703e+00 1.997064e+00 1.987702e+00 1.997062e+00 1.987701e+00 1.997061e+00 1.987700e+00 1.997061e+00 1.987699e+00 1.997060e+00 1.987699e+00 1.997060e+00 1.987698e+00 1.997059e+00 1.987698e+00 1.997059e+00 1.987698e+00 1.997058e+00 1.987697e+00 1.997058e+00 1.987697e+00 1.997058e+00 1.987697e+00 1.997058e+00 1.987697e+00 1.997058e+00 1.987697e+00 1.997058e+00 1.987697e+00 1.997057e+00 1.987697e+00 1.997057e+00 1.987696e+00 1.997057e+00 1.987696e+00 1.997057e+00 1.987696e+00 1.997057e+00 1.987696e+00 1.997057e+00 1.987696e+00 1.997057e+00 1.987696e+00 1.997057e+00 1.987696e+00 1.997057e+00 1.987696e+00 1.997057e+00 1.987696e+00 1.997057e+00 1.987696e+00 1.997057e+00 1.987696e+00 1.997057e+00 1.987696e+00 1.997057e+00 1.987696e+00 1.997057e+00 1.987696e+00 1.997057e+00 1.987696e+00 1.997057e+00 1.987696e+00 1.997057e+00 1.987696e+00 1.997057e+00 1.987696e+00 1.997057e+00 1.987696e+00 1.997057e+00 1.987696e+00 1.997057e+00 1.987696e+00 1.997057e+00 1.987696e+00 1.997057e+00 1.987696e+00 1.997057e+00 1.987696e+00 1.997057e+00 1.987696e+00 1.997057e+00 1.987696e+00 1.997057e+00 1.987696e+00 1.997057e+00 1.987696e+00 1.997057e+00 1.987696e+00 1.997057e+00 1.987696e+00 1.997057e+00 1.987696e+00 1.997056e+00 1.987696e+00 1.997056e+00 1.987695e+00 1.997056e+00 1.987695e+00 1.997056e+00 1.987695e+00 1.997056e+00 1.987695e+00 1.997055e+00 1.987694e+00 1.997055e+00 1.987694e+00 1.997055e+00 1.987694e+00 1.997054e+00 1.987693e+00 1.997053e+00 1.987693e+00 1.997053e+00 1.987692e+00 1.997052e+00 1.987691e+00 1.997051e+00 1.987690e+00 1.997049e+00 1.987688e+00 1.997047e+00 1.987687e+00 1.997045e+00 1.987685e+00 1.997043e+00 1.987682e+00 1.997040e+00 1.987679e+00 1.997036e+00 1.987676e+00 1.997031e+00 1.987671e+00 1.997026e+00 1.987666e+00 1.997019e+00 1.987659e+00 1.997011e+00 1.987651e+00 1.997001e+00 1.987642e+00 1.996989e+00 1.987630e+00 1.996974e+00 1.987616e+00 1.996957e+00 1.987598e+00 1.996935e+00 1.987577e+00 1.996909e+00 1.987551e+00 1.996877e+00 1.987520e+00 1.996838e+00 1.987482e+00 1.996790e+00 1.987436e+00 1.996733e+00 1.987380e+00 1.996663e+00 1.987312e+00 1.996578e+00 1.987229e+00 1.996474e+00 1.987128e+00 1.996348e+00 1.987005e+00 1.996194e+00 1.986855e+00 1.996007e+00 1.986673e+00 1.995779e+00 1.986450e+00 1.995500e+00 1.986178e+00 1.995160e+00 1.985846e+00 1.994745e+00 1.985440e+00 1.994237e+00 1.984943e+00 1.993615e+00 1.984333e+00 1.992852e+00 1.983584e+00 1.991913e+00 1.982661e+00 1.990756e+00 1.981521e+00 1.989325e+00 1.980107e+00 1.987549e+00 1.978346e+00 1.985335e+00 1.976140e+00 1.982558e+00 1.973358e+00 1.979049e+00 1.969820e+00 1.974576e+00 1.965272e+00 1.968811e+00 1.959347e+00 1.961273e+00 1.951498e+00 1.951241e+00 1.940881e+00 1.937593e+00 1.926150e+00 1.918533e+00 1.905129e+00 1.891188e+00 1.874451e+00 1.851363e+00 1.830190e+00 1.795605e+00 1.775417e+00 1.736275e+00 1.761714e+00 1.769203e+00 2.046015e+00 
2.025820e+00 2.003602e+00 2.025747e+00 2.025579e+00 2.068561e+00 2.028831e+00 2.022073e+00 1.983363e+00 1.987809e+00 1.963852e+00 1.981611e+00 1.966508e+00 1.991345e+00 1.979888e+00 2.007523e+00 1.996917e+00 2.025157e+00 2.014197e+00 2.042156e+00 2.030519e+00 2.058007e+00 2.045780e+00 2.072894e+00 2.060284e+00 2.087177e+00 2.074361e+00 2.101134e+00 2.088203e+00 2.114872e+00 2.101825e+00 2.128317e+00 2.115066e+00 2.141235e+00 2.127628e+00 2.153273e+00 2.139110e+00 2.164004e+00 2.149071e+00 2.172991e+00 2.157086e+00 2.179847e+00 2.162807e+00 2.184285e+00 2.166009e+00 2.186152e+00 2.166607e+00 2.185442e+00 2.164662e+00 2.182280e+00 2.160360e+00 2.176905e+00 2.153987e+00 2.169642e+00 2.145902e+00 2.160870e+00 2.136508e+00 2.151001e+00 2.126225e+00 2.140452e+00 2.115463e+00 2.129618e+00 2.104603e+00 2.118852e+00 2.093968e+00 2.108449e+00 2.083822e+00 2.098634e+00 2.074355e+00 2.089566e+00 2.065690e+00 2.081336e+00 2.057890e+00 2.073980e+00 2.050967e+00 2.067493e+00 2.044899e+00 2.061836e+00 2.039633e+00 2.056950e+00 2.035105e+00 2.052764e+00 2.031240e+00 2.049202e+00 2.027960e+00 2.046188e+00 2.025193e+00 2.043651e+00 2.022867e+00 2.041522e+00 2.020921e+00 2.039744e+00 2.019296e+00 2.038261e+00 2.017944e+00 2.037029e+00 2.016820e+00 2.036005e+00 2.015889e+00 2.035158e+00 2.015117e+00 2.034456e+00 2.014479e+00 2.033876e+00 2.013952e+00 2.033397e+00 2.013517e+00 2.033002e+00 2.013158e+00 2.032676e+00 2.012862e+00 2.032407e+00 2.012618e+00 2.032186e+00 2.012417e+00 2.032004e+00 2.012251e+00 2.031853e+00 2.012115e+00 2.031730e+00 2.012003e+00 2.031628e+00 2.011911e+00 2.031544e+00 2.011835e+00 2.031475e+00 2.011772e+00 2.031419e+00 2.011721e+00 2.031372e+00 2.011679e+00 2.031334e+00 2.011644e+00 2.031302e+00 2.011615e+00 2.031276e+00 2.011592e+00 2.031255e+00 2.011572e+00 2.031237e+00 2.011556e+00 2.031223e+00 2.011543e+00 2.031211e+00 2.011532e+00 2.031201e+00 2.011524e+00 2.031193e+00 2.011516e+00 2.031187e+00 2.011510e+00 2.031181e+00 2.011505e+00 2.031177e+00 2.011501e+00 2.031173e+00 2.011498e+00 2.031170e+00 2.011495e+00 2.031168e+00 2.011493e+00 2.031166e+00 2.011491e+00 2.031164e+00 2.011490e+00 2.031163e+00 2.011488e+00 2.031161e+00 2.011487e+00 2.031160e+00 2.011487e+00 2.031160e+00 2.011486e+00 2.031159e+00 2.011485e+00 2.031159e+00 2.011485e+00 2.031158e+00 2.011484e+00 2.031158e+00 2.011484e+00 2.031158e+00 2.011484e+00 2.031157e+00 2.011484e+00 2.031157e+00 2.011483e+00 2.031157e+00 2.011483e+00 2.031157e+00 2.011483e+00 2.031157e+00 2.011483e+00 2.031157e+00 2.011483e+00 2.031157e+00 2.011483e+00 2.031156e+00 2.011483e+00 2.031156e+00 2.011483e+00 2.031156e+00 2.011483e+00 2.031156e+00 2.011483e+00 2.031156e+00 2.011483e+00 2.031156e+00 2.011483e+00 2.031156e+00 2.011483e+00 2.031156e+00 2.011483e+00 2.031156e+00 2.011483e+00 2.031156e+00 2.011483e+00 2.031156e+00 2.011483e+00 2.031156e+00 2.011483e+00 2.031156e+00 2.011483e+00 2.031156e+00 2.011483e+00 2.031156e+00 2.011483e+00 2.031156e+00 2.011483e+00 2.031156e+00 2.011483e+00 2.031156e+00 2.011483e+00 2.031156e+00 2.011483e+00 2.031156e+00 2.011483e+00 2.031156e+00 2.011483e+00 2.031156e+00 2.011483e+00 2.031156e+00 2.011483e+00 2.031156e+00 2.011483e+00 2.031156e+00 2.011483e+00 2.031156e+00 2.011483e+00 2.031156e+00 2.011483e+00 2.031156e+00 2.011483e+00 2.031156e+00 2.011483e+00 2.031156e+00 2.011483e+00 2.031156e+00 2.011483e+00 2.031156e+00 2.011483e+00 2.031156e+00 2.011482e+00 2.031156e+00 2.011482e+00 2.031156e+00 2.011482e+00 2.031156e+00 2.011482e+00 2.031156e+00 2.011482e+00 2.031156e+00 2.011482e+00 2.031156e+00 2.011482e+00 2.031156e+00 2.011482e+00 2.031156e+00 2.011482e+00 2.031155e+00 2.011482e+00 2.031155e+00 2.011482e+00 2.031155e+00 2.011481e+00 2.031155e+00 2.011481e+00 2.031155e+00 2.011481e+00 2.031154e+00 2.011481e+00 2.031154e+00 2.011480e+00 2.031154e+00 2.011480e+00 2.031153e+00 2.011479e+00 2.031152e+00 2.011478e+00 2.031152e+00 2.011477e+00 2.031151e+00 2.011476e+00 2.031149e+00 2.011475e+00 2.031148e+00 2.011473e+00 2.031146e+00 2.011471e+00 2.031144e+00 2.011469e+00 2.031142e+00 2.011466e+00 2.031139e+00 2.011463e+00 2.031135e+00 2.011459e+00 2.031131e+00 2.011454e+00 2.031126e+00 2.011448e+00 2.031119e+00 2.011440e+00 2.031111e+00 2.011431e+00 2.031102e+00 2.011420e+00 2.031090e+00 2.011407e+00 2.031077e+00 2.011391e+00 2.031060e+00 2.011372e+00 2.031039e+00 2.011349e+00 2.031014e+00 2.011320e+00 2.030984e+00 2.011285e+00 2.030947e+00 2.011243e+00 2.030902e+00 2.011192e+00 2.030848e+00 2.011129e+00 2.030780e+00 2.011052e+00 2.030697e+00 2.010957e+00 2.030595e+00 2.010840e+00 2.030469e+00 2.010696e+00 2.030312e+00 2.010516e+00 2.030116e+00 2.010292e+00 2.029868e+00 2.010010e+00 2.029554e+00 2.009654e+00 2.029152e+00 2.009198e+00 2.028631e+00 2.008610e+00 2.027948e+00 2.007844e+00 2.027043e+00 2.006832e+00 2.025826e+00 2.005488e+00 2.024181e+00 2.003706e+00 2.021984e+00 2.001428e+00 2.019243e+00 1.998922e+00 2.016690e+00 1.997815e+00 2.017841e+00 2.004036e+00 2.033769e+00 2.029650e+00 2.074836e+00 2.037575e+00 
2.082317e+00 2.059437e+00 2.082230e+00 2.061315e+00 1.987120e+00 1.958553e+00 1.906631e+00 1.897112e+00 1.877003e+00 1.882084e+00 1.881355e+00 1.892450e+00 1.901350e+00 1.913335e+00 1.926519e+00 1.937055e+00 1.951889e+00 1.960190e+00 1.975518e+00 1.981592e+00 1.997019e+00 2.001213e+00 2.016686e+00 2.019427e+00 2.034996e+00 2.036653e+00 2.052350e+00 2.053179e+00 2.068974e+00 2.069109e+00 2.084893e+00 2.084357e+00 2.099948e+00 2.098667e+00 2.113829e+00 2.111664e+00 2.126133e+00 2.122908e+00 2.136426e+00 2.131970e+00 2.144323e+00 2.138501e+00 2.149544e+00 2.142280e+00 2.151955e+00 2.143244e+00 2.151577e+00 2.141482e+00 2.148571e+00 2.137215e+00 2.143214e+00 2.130763e+00 2.135863e+00 2.122517e+00 2.126932e+00 2.112912e+00 2.116864e+00 2.102395e+00 2.106100e+00 2.091402e+00 2.095061e+00 2.080333e+00 2.084117e+00 2.069528e+00 2.073576e+00 2.059256e+00 2.063669e+00 2.049711e+00 2.054553e+00 2.041012e+00 2.046315e+00 2.033216e+00 2.038984e+00 2.026327e+00 2.032546e+00 2.020312e+00 2.026954e+00 2.015114e+00 2.022141e+00 2.010659e+00 2.018032e+00 2.006869e+00 2.014546e+00 2.003662e+00 2.011605e+00 2.000963e+00 2.009134e+00 1.998700e+00 2.007067e+00 1.996810e+00 2.005341e+00 1.995235e+00 2.003906e+00 1.993925e+00 2.002714e+00 1.992839e+00 2.001725e+00 1.991939e+00 2.000907e+00 1.991194e+00 2.000231e+00 1.990579e+00 1.999672e+00 1.990071e+00 1.999211e+00 1.989652e+00 1.998830e+00 1.989306e+00 1.998517e+00 1.989021e+00 1.998258e+00 1.988787e+00 1.998046e+00 1.988594e+00 1.997870e+00 1.988434e+00 1.997726e+00 1.988303e+00 1.997607e+00 1.988196e+00 1.997510e+00 1.988107e+00 1.997429e+00 1.988034e+00 1.997363e+00 1.987974e+00 1.997309e+00 1.987925e+00 1.997264e+00 1.987884e+00 1.997227e+00 1.987851e+00 1.997197e+00 1.987823e+00 1.997172e+00 1.987801e+00 1.997152e+00 1.987782e+00 1.997135e+00 1.987767e+00 1.997121e+00 1.987754e+00 1.997110e+00 1.987744e+00 1.997100e+00 1.987735e+00 1.997093e+00 1.987728e+00 1.997086e+00 1.987723e+00 1.997081e+00 1.987718e+00 1.997077e+00 1.987714e+00 1.997073e+00 1.987711e+00 1.997070e+00 1.987708e+00 1.997068e+00 1.987706e+00 1.997066e+00 1.987704e+00 1.997065e+00 1.987703e+00 1.997063e+00 1.987702e+00 1.997062e+00 1.987701e+00 1.997061e+00 1.987700e+00 1.997060e+00 1.987699e+00 1.997060e+00 1.987699e+00 1.997059e+00 1.987698e+00 1.997059e+00 1.987698e+00 1.997059e+00 1.987698e+00 1.997058e+00 1.987697e+00 1.997058e+00 1.987697e+00 1.997058e+00 1.987697e+00 1.997058e+00 1.987697e+00 1.997058e+00 1.987697e+00 1.997058e+00 1.987697e+00 1.997057e+00 1.987696e+00 1.997057e+00 1.987696e+00 1.997057e+00 1.987696e+00 1.997057e+00 1.987696e+00 1.997057e+00 1.987696e+00 1.997057e+00 1.987696e+00 1.997057e+00 1.987696e+00 1.997057e+00 1.987696e+00 1.997057e+00 1.987696e+00 1.997057e+00 1.987696e+00 1.997057e+00 1.987696e+00 1.997057e+00 1.987696e+00 1.997057e+00 1.987696e+00 1.997057e+00 1.987696e+00 1.997057e+00 1.987696e+00 1.997057e+00 1.987696e+00 1.997057e+00 1.987696e+00 1.997057e+00 1.987696e+00 1.997057e+00 1.987696e+00 1.997057e+00 1.987696e+00 1.997057e+00 1.987696e+00 1.997057e+00 1.987696e+00 1.997057e+00 1.987696e+00 1.997057e+00 1.987696e+00 1.997057e+00 1.987696e+00 1.997057e+00 1.987696e+00 1.997057e+00 1.987696e+00 1.997057e+00 1.987696e+00 1.997057e+00 1.987696e+00 1.997057e+00 1.987696e+00 1.997057e+00 1.987696e+00 1.997057e+00 1.987696e+00 1.997056e+00 1.987696e+00 1.997056e+00 1.987695e+00 1.997056e+00 1.987695e+00 1.997056e+00 1.987695e+00 1.997056e+00 1.987695e+00 1.997055e+00 1.987695e+00 1.997055e+00 1.987694e+00 1.997055e+00 1.987694e+00 1.997054e+00 1.987693e+00 1.997054e+00 1.987693e+00 1.997053e+00 1.987692e+00 1.997052e+00 1.987691e+00 1.997051e+00 1.987690e+00 1.997050e+00 1.987689e+00 1.997048e+00 1.987687e+00 1.997046e+00 1.987685e+00 1.997044e+00 1.987683e+00 1.997041e+00 1.987680e+00 1.997037e+00 1.987677e+00 1.997033e+00 1.987673e+00 1.997028e+00 1.987667e+00 1.997021e+00 1.987661e+00 1.997014e+00 1.987654e+00 1.997004e+00 1.987645e+00 1.996993e+00 1.987634e+00 1.996979e+00 1.987620e+00 1.996962e+00 1.987604e+00 1.996942e+00 1.987584e+00 1.996917e+00 1.987560e+00 1.996887e+00 1.987531e+00 1.996850e+00 1.987495e+00 1.996806e+00 1.987451e+00 1.996752e+00 1.987399e+00 1.996686e+00 1.987335e+00 1.996606e+00 1.987256e+00 1.996508e+00 1.987161e+00 1.996390e+00 1.987046e+00 1.996245e+00 1.986905e+00 1.996069e+00 1.986734e+00 1.995855e+00 1.986525e+00 1.995594e+00 1.986270e+00 1.995275e+00 1.985959e+00 1.994887e+00 1.985579e+00 1.994412e+00 1.985115e+00 1.993831e+00 1.984547e+00 1.993120e+00 1.983850e+00 1.992247e+00 1.982995e+00 1.991175e+00 1.981942e+00 1.989855e+00 1.980642e+00 1.988225e+00 1.979032e+00 1.986204e+00 1.977032e+00 1.983691e+00 1.974535e+00 1.980549e+00 1.971401e+00 1.976602e+00 1.967445e+00 1.971613e+00 1.962418e+00 1.965267e+00 1.955995e+00 1.957152e+00 1.947757e+00 1.946754e+00 1.937229e+00 1.933533e+00 1.924080e+00 1.917280e+00 1.908860e+00 1.899324e+00 1.895285e+00 1.885995e+00 1.896029e+00 1.896233e+00 1.941643e+00 1.966663e+00 2.059830e+00 