# vtk DataFile Version 2.0
Comment goes here
ASCII

DATASET STRUCTURED_POINTS
FIELD FieldData 1
TIME 1 1 double
1.67500000
DIMENSIONS    384   64   1

ORIGIN    0.000   0.000   0.000
SPACING   0.078125 0.078125   1.000

POINT_DATA   24576
SCALARS uMag double
LOOKUP_TABLE default

4.158812e+00 4.248390e+00 4.158683e+00 4.252983e+00 4.331484e+00 4.414929e+00 4.459950e+00 4.503026e+00 4.525335e+00 4.548727e+00 4.562221e+00 4.577399e+00 4.588271e+00 4.600209e+00 4.610829e+00 4.621536e+00 4.632700e+00 4.643080e+00 4.655192e+00 4.665882e+00 4.679289e+00 4.690784e+00 4.705726e+00 4.718341e+00 4.734911e+00 4.748797e+00 4.766964e+00 4.782147e+00 4.801773e+00 4.818173e+00 4.839024e+00 4.856456e+00 4.878199e+00 4.896376e+00 4.918591e+00 4.937128e+00 4.959328e+00 4.977762e+00 4.999417e+00 5.017237e+00 5.037820e+00 5.054510e+00 5.073542e+00 5.088629e+00 5.105730e+00 5.118834e+00 5.133747e+00 5.144614e+00 5.157222e+00 5.165734e+00 5.176049e+00 5.182224e+00 5.190361e+00 5.194325e+00 5.200472e+00 5.202426e+00 5.206811e+00 5.206999e+00 5.209860e+00 5.208538e+00 5.210111e+00 5.207533e+00 5.208039e+00 5.204446e+00 5.204093e+00 5.199703e+00 5.198675e+00 5.193673e+00 5.192119e+00 5.186643e+00 5.184664e+00 5.178795e+00 5.176434e+00 5.170189e+00 5.167430e+00 5.160772e+00 5.157553e+00 5.150403e+00 5.146632e+00 5.138892e+00 5.134470e+00 5.126045e+00 5.120887e+00 5.111702e+00 5.105749e+00 5.095763e+00 5.088995e+00 5.078205e+00 5.070640e+00 5.059084e+00 5.050778e+00 5.038527e+00 5.029568e+00 5.016723e+00 5.007225e+00 4.993908e+00 4.984004e+00 4.970355e+00 4.960189e+00 4.946356e+00 4.936078e+00 4.922212e+00 4.911973e+00 4.898220e+00 4.888163e+00 4.874662e+00 4.864920e+00 4.851797e+00 4.842488e+00 4.829850e+00 4.821074e+00 4.809011e+00 4.800848e+00 4.789431e+00 4.781940e+00 4.771219e+00 4.764442e+00 4.754448e+00 4.748405e+00 4.739151e+00 4.733848e+00 4.725330e+00 4.720756e+00 4.712956e+00 4.709087e+00 4.701976e+00 4.698777e+00 4.692314e+00 4.689741e+00 4.683880e+00 4.681883e+00 4.676573e+00 4.675099e+00 4.670285e+00 4.669281e+00 4.664908e+00 4.664319e+00 4.660336e+00 4.660112e+00 4.656468e+00 4.656560e+00 4.653210e+00 4.653574e+00 4.650475e+00 4.651072e+00 4.648188e+00 4.648982e+00 4.646280e+00 4.647242e+00 4.644692e+00 4.645794e+00 4.643374e+00 4.644594e+00 4.642280e+00 4.643599e+00 4.641375e+00 4.642775e+00 4.640627e+00 4.642095e+00 4.640008e+00 4.641533e+00 4.639498e+00 4.641069e+00 4.639077e+00 4.640687e+00 4.638729e+00 4.640372e+00 4.638443e+00 4.640112e+00 4.638207e+00 4.639898e+00 4.638013e+00 4.639722e+00 4.637853e+00 4.639577e+00 4.637722e+00 4.639458e+00 4.637614e+00 4.639359e+00 4.637525e+00 4.639279e+00 4.637451e+00 4.639212e+00 4.637391e+00 4.639157e+00 4.637341e+00 4.639112e+00 4.637301e+00 4.639075e+00 4.637267e+00 4.639045e+00 4.637239e+00 4.639020e+00 4.637217e+00 4.638999e+00 4.637198e+00 4.638983e+00 4.637183e+00 4.638969e+00 4.637170e+00 4.638957e+00 4.637160e+00 4.638948e+00 4.637151e+00 4.638940e+00 4.637144e+00 4.638934e+00 4.637138e+00 4.638928e+00 4.637134e+00 4.638924e+00 4.637130e+00 4.638921e+00 4.637127e+00 4.638918e+00 4.637124e+00 4.638915e+00 4.637122e+00 4.638913e+00 4.637120e+00 4.638912e+00 4.637118e+00 4.638910e+00 4.637117e+00 4.638909e+00 4.637116e+00 4.638908e+00 4.637115e+00 4.638908e+00 4.637115e+00 4.638907e+00 4.637114e+00 4.638907e+00 4.637114e+00 4.638906e+00 4.637113e+00 4.638906e+00 4.637113e+00 4.638906e+00 4.637113e+00 4.638905e+00 4.637113e+00 4.638905e+00 4.637112e+00 4.638905e+00 4.637112e+00 4.638905e+00 4.637112e+00 4.638905e+00 4.637112e+00 4.638905e+00 4.637112e+00 4.638905e+00 4.637112e+00 4.638904e+00 4.637112e+00 4.638904e+00 4.637112e+00 4.638904e+00 4.637112e+00 4.638904e+00 4.637112e+00 4.638904e+00 4.637112e+00 4.638904e+00 4.637112e+00 4.638904e+00 4.637111e+00 4.638904e+00 4.637111e+00 4.638904e+00 4.637111e+00 4.638904e+00 4.637111e+00 4.638904e+00 4.637111e+00 4.638904e+00 4.637111e+00 4.638903e+00 4.637111e+00 4.638903e+00 4.637111e+00 4.638903e+00 4.637110e+00 4.638903e+00 4.637110e+00 4.638902e+00 4.637110e+00 4.638902e+00 4.637109e+00 4.638901e+00 4.637109e+00 4.638901e+00 4.637108e+00 4.638900e+00 4.637107e+00 4.638899e+00 4.637106e+00 4.638898e+00 4.637105e+00 4.638896e+00 4.637104e+00 4.638894e+00 4.637102e+00 4.638892e+00 4.637100e+00 4.638890e+00 4.637097e+00 4.638886e+00 4.637094e+00 4.638883e+00 4.637091e+00 4.638878e+00 4.637086e+00 4.638872e+00 4.637080e+00 4.638865e+00 4.637074e+00 4.638857e+00 4.637065e+00 4.638847e+00 4.637055e+00 4.638834e+00 4.637043e+00 4.638819e+00 4.637028e+00 4.638801e+00 4.637010e+00 4.638778e+00 4.636988e+00 4.638751e+00 4.636961e+00 4.638717e+00 4.636928e+00 4.638677e+00 4.636888e+00 4.638627e+00 4.636840e+00 4.638566e+00 4.636780e+00 4.638492e+00 4.636707e+00 4.638402e+00 4.636618e+00 4.638291e+00 4.636508e+00 4.638155e+00 4.636374e+00 4.637988e+00 4.636208e+00 4.637782e+00 4.636003e+00 4.637528e+00 4.635749e+00 4.637212e+00 4.635432e+00 4.636820e+00 4.635036e+00 4.636328e+00 4.634537e+00 4.635709e+00 4.633902e+00 4.634922e+00 4.633086e+00 4.633910e+00 4.632021e+00 4.632590e+00 4.630606e+00 4.630838e+00 4.628677e+00 4.628450e+00 4.625955e+00 4.625082e+00 4.621908e+00 4.620079e+00 4.615403e+00 4.612037e+00 4.603571e+00 4.597407e+00 4.577698e+00 4.565434e+00 4.506358e+00 4.477824e+00 4.260934e+00 
4.642265e+00 4.635778e+00 4.642259e+00 4.633979e+00 4.613229e+00 4.601915e+00 4.598273e+00 4.595171e+00 4.600324e+00 4.600738e+00 4.609305e+00 4.611136e+00 4.621390e+00 4.624167e+00 4.635645e+00 4.639271e+00 4.651824e+00 4.656353e+00 4.670071e+00 4.675731e+00 4.690837e+00 4.697879e+00 4.714545e+00 4.723129e+00 4.741421e+00 4.751606e+00 4.771497e+00 4.783270e+00 4.804652e+00 4.817925e+00 4.840608e+00 4.855206e+00 4.878909e+00 4.894562e+00 4.918910e+00 4.935247e+00 4.959786e+00 4.976341e+00 5.000564e+00 5.016807e+00 5.040190e+00 5.055568e+00 5.077620e+00 5.091615e+00 5.111921e+00 5.124094e+00 5.142354e+00 5.152385e+00 5.168419e+00 5.176121e+00 5.189869e+00 5.195185e+00 5.206685e+00 5.209669e+00 5.219028e+00 5.219810e+00 5.227178e+00 5.225938e+00 5.231486e+00 5.228429e+00 5.232343e+00 5.227690e+00 5.230174e+00 5.224163e+00 5.225439e+00 5.218321e+00 5.218622e+00 5.210646e+00 5.210202e+00 5.201594e+00 5.200602e+00 5.191539e+00 5.190143e+00 5.180739e+00 5.179014e+00 5.169311e+00 5.167267e+00 5.157244e+00 5.154832e+00 5.144418e+00 5.141555e+00 5.130655e+00 5.127244e+00 5.115760e+00 5.111712e+00 5.099565e+00 5.094819e+00 5.081965e+00 5.076496e+00 5.062930e+00 5.056758e+00 5.042520e+00 5.035704e+00 5.020871e+00 5.013507e+00 4.998190e+00 4.990403e+00 4.974734e+00 4.966666e+00 4.950794e+00 4.942597e+00 4.926676e+00 4.918504e+00 4.902685e+00 4.894687e+00 4.879114e+00 4.871426e+00 4.856227e+00 4.848971e+00 4.834258e+00 4.827534e+00 4.813398e+00 4.807289e+00 4.793802e+00 4.788369e+00 4.775580e+00 4.770862e+00 4.758803e+00 4.754824e+00 4.743507e+00 4.740269e+00 4.729691e+00 4.727184e+00 4.717326e+00 4.715526e+00 4.706357e+00 4.705228e+00 4.696708e+00 4.696206e+00 4.688288e+00 4.688363e+00 4.680996e+00 4.681594e+00 4.674723e+00 4.675790e+00 4.669360e+00 4.670842e+00 4.664802e+00 4.666647e+00 4.660946e+00 4.663107e+00 4.657699e+00 4.660131e+00 4.654974e+00 4.657639e+00 4.652695e+00 4.655558e+00 4.650795e+00 4.653824e+00 4.649214e+00 4.652382e+00 4.647901e+00 4.651187e+00 4.646812e+00 4.650196e+00 4.645911e+00 4.649377e+00 4.645166e+00 4.648699e+00 4.644550e+00 4.648140e+00 4.644042e+00 4.647678e+00 4.643622e+00 4.647297e+00 4.643277e+00 4.646984e+00 4.642992e+00 4.646725e+00 4.642757e+00 4.646512e+00 4.642564e+00 4.646337e+00 4.642405e+00 4.646192e+00 4.642274e+00 4.646074e+00 4.642166e+00 4.645976e+00 4.642077e+00 4.645895e+00 4.642005e+00 4.645829e+00 4.641945e+00 4.645775e+00 4.641895e+00 4.645730e+00 4.641855e+00 4.645693e+00 4.641821e+00 4.645663e+00 4.641794e+00 4.645638e+00 4.641771e+00 4.645618e+00 4.641752e+00 4.645601e+00 4.641737e+00 4.645587e+00 4.641725e+00 4.645575e+00 4.641714e+00 4.645566e+00 4.641706e+00 4.645558e+00 4.641699e+00 4.645552e+00 4.641693e+00 4.645547e+00 4.641688e+00 4.645543e+00 4.641684e+00 4.645539e+00 4.641681e+00 4.645536e+00 4.641679e+00 4.645534e+00 4.641676e+00 4.645532e+00 4.641675e+00 4.645530e+00 4.641673e+00 4.645529e+00 4.641672e+00 4.645528e+00 4.641671e+00 4.645527e+00 4.641670e+00 4.645526e+00 4.641670e+00 4.645526e+00 4.641669e+00 4.645525e+00 4.641669e+00 4.645525e+00 4.641668e+00 4.645524e+00 4.641668e+00 4.645524e+00 4.641668e+00 4.645524e+00 4.641667e+00 4.645524e+00 4.641667e+00 4.645523e+00 4.641667e+00 4.645523e+00 4.641667e+00 4.645523e+00 4.641667e+00 4.645523e+00 4.641667e+00 4.645523e+00 4.641667e+00 4.645523e+00 4.641667e+00 4.645523e+00 4.641667e+00 4.645523e+00 4.641667e+00 4.645523e+00 4.641667e+00 4.645523e+00 4.641667e+00 4.645523e+00 4.641667e+00 4.645523e+00 4.641667e+00 4.645523e+00 4.641667e+00 4.645523e+00 4.641667e+00 4.645523e+00 4.641666e+00 4.645523e+00 4.641666e+00 4.645523e+00 4.641666e+00 4.645523e+00 4.641666e+00 4.645523e+00 4.641666e+00 4.645523e+00 4.641666e+00 4.645523e+00 4.641666e+00 4.645523e+00 4.641666e+00 4.645523e+00 4.641666e+00 4.645523e+00 4.641666e+00 4.645523e+00 4.641666e+00 4.645523e+00 4.641666e+00 4.645523e+00 4.641666e+00 4.645523e+00 4.641666e+00 4.645522e+00 4.641666e+00 4.645522e+00 4.641666e+00 4.645522e+00 4.641666e+00 4.645522e+00 4.641666e+00 4.645522e+00 4.641665e+00 4.645522e+00 4.641665e+00 4.645522e+00 4.641665e+00 4.645522e+00 4.641664e+00 4.645521e+00 4.641664e+00 4.645521e+00 4.641663e+00 4.645521e+00 4.641663e+00 4.645520e+00 4.641662e+00 4.645520e+00 4.641661e+00 4.645519e+00 4.641660e+00 4.645519e+00 4.641658e+00 4.645518e+00 4.641656e+00 4.645517e+00 4.641654e+00 4.645515e+00 4.641652e+00 4.645514e+00 4.641649e+00 4.645512e+00 4.641645e+00 4.645509e+00 4.641640e+00 4.645507e+00 4.641634e+00 4.645503e+00 4.641627e+00 4.645499e+00 4.641619e+00 4.645494e+00 4.641608e+00 4.645488e+00 4.641595e+00 4.645480e+00 4.641579e+00 4.645471e+00 4.641560e+00 4.645460e+00 4.641536e+00 4.645446e+00 4.641506e+00 4.645429e+00 4.641468e+00 4.645407e+00 4.641420e+00 4.645381e+00 4.641359e+00 4.645347e+00 4.641280e+00 4.645305e+00 4.641176e+00 4.645250e+00 4.641035e+00 4.645179e+00 4.640839e+00 4.645086e+00 4.640552e+00 4.644962e+00 4.640102e+00 4.644808e+00 4.639333e+00 4.644723e+00 4.637941e+00 4.646148e+00 4.636910e+00 
4.656171e+00 4.651477e+00 4.656231e+00 4.649538e+00 4.610226e+00 4.601063e+00 4.585415e+00 4.587790e+00 4.585365e+00 4.591981e+00 4.595103e+00 4.602641e+00 4.608374e+00 4.615993e+00 4.623351e+00 4.631021e+00 4.639720e+00 4.647704e+00 4.657811e+00 4.666510e+00 4.678215e+00 4.687988e+00 4.701429e+00 4.712512e+00 4.727737e+00 4.740270e+00 4.757258e+00 4.771312e+00 4.789982e+00 4.805557e+00 4.825755e+00 4.842764e+00 4.864242e+00 4.882485e+00 4.904891e+00 4.924043e+00 4.946924e+00 4.966538e+00 4.989367e+00 5.008901e+00 5.031115e+00 5.049979e+00 5.071041e+00 5.088656e+00 5.108097e+00 5.123955e+00 5.141419e+00 5.155124e+00 5.170377e+00 5.181671e+00 5.194595e+00 5.203354e+00 5.213929e+00 5.220147e+00 5.228416e+00 5.232171e+00 5.238220e+00 5.239642e+00 5.243580e+00 5.242835e+00 5.244799e+00 5.242086e+00 5.242256e+00 5.237818e+00 5.236429e+00 5.230559e+00 5.227898e+00 5.220916e+00 5.217295e+00 5.209525e+00 5.205244e+00 5.196969e+00 5.192276e+00 5.183710e+00 5.178776e+00 5.170044e+00 5.164949e+00 5.156084e+00 5.150822e+00 5.141780e+00 5.136278e+00 5.126960e+00 5.121106e+00 5.111388e+00 5.105059e+00 5.094822e+00 5.087913e+00 5.077066e+00 5.069511e+00 5.058009e+00 5.049788e+00 5.037636e+00 5.028783e+00 5.016038e+00 5.006630e+00 4.993389e+00 4.983543e+00 4.969935e+00 4.959792e+00 4.945966e+00 4.935682e+00 4.921797e+00 4.911529e+00 4.897742e+00 4.887645e+00 4.874102e+00 4.864317e+00 4.851152e+00 4.841803e+00 4.829128e+00 4.820319e+00 4.808229e+00 4.800041e+00 4.788607e+00 4.781102e+00 4.770373e+00 4.763592e+00 4.753599e+00 4.747562e+00 4.738317e+00 4.733027e+00 4.724526e+00 4.719971e+00 4.712194e+00 4.708349e+00 4.701263e+00 4.698092e+00 4.691658e+00 4.689114e+00 4.683283e+00 4.681317e+00 4.676037e+00 4.674594e+00 4.669809e+00 4.668834e+00 4.664489e+00 4.663928e+00 4.659971e+00 4.659772e+00 4.656153e+00 4.656268e+00 4.652939e+00 4.653324e+00 4.650244e+00 4.650859e+00 4.647992e+00 4.648803e+00 4.646115e+00 4.647090e+00 4.644554e+00 4.645667e+00 4.643258e+00 4.644487e+00 4.642184e+00 4.643510e+00 4.641295e+00 4.642702e+00 4.640560e+00 4.642034e+00 4.639953e+00 4.641482e+00 4.639452e+00 4.641027e+00 4.639038e+00 4.640652e+00 4.638698e+00 4.640343e+00 4.638417e+00 4.640088e+00 4.638186e+00 4.639879e+00 4.637996e+00 4.639706e+00 4.637839e+00 4.639564e+00 4.637710e+00 4.639447e+00 4.637604e+00 4.639350e+00 4.637516e+00 4.639271e+00 4.637445e+00 4.639206e+00 4.637385e+00 4.639152e+00 4.637337e+00 4.639108e+00 4.637297e+00 4.639072e+00 4.637264e+00 4.639042e+00 4.637237e+00 4.639018e+00 4.637215e+00 4.638998e+00 4.637196e+00 4.638981e+00 4.637181e+00 4.638967e+00 4.637169e+00 4.638956e+00 4.637159e+00 4.638947e+00 4.637150e+00 4.638939e+00 4.637144e+00 4.638933e+00 4.637138e+00 4.638928e+00 4.637133e+00 4.638924e+00 4.637129e+00 4.638920e+00 4.637126e+00 4.638917e+00 4.637124e+00 4.638915e+00 4.637122e+00 4.638913e+00 4.637120e+00 4.638912e+00 4.637118e+00 4.638910e+00 4.637117e+00 4.638909e+00 4.637116e+00 4.638908e+00 4.637115e+00 4.638908e+00 4.637115e+00 4.638907e+00 4.637114e+00 4.638907e+00 4.637114e+00 4.638906e+00 4.637113e+00 4.638906e+00 4.637113e+00 4.638905e+00 4.637113e+00 4.638905e+00 4.637113e+00 4.638905e+00 4.637112e+00 4.638905e+00 4.637112e+00 4.638905e+00 4.637112e+00 4.638905e+00 4.637112e+00 4.638905e+00 4.637112e+00 4.638904e+00 4.637112e+00 4.638904e+00 4.637112e+00 4.638904e+00 4.637112e+00 4.638904e+00 4.637112e+00 4.638904e+00 4.637112e+00 4.638904e+00 4.637112e+00 4.638904e+00 4.637112e+00 4.638904e+00 4.637111e+00 4.638904e+00 4.637111e+00 4.638904e+00 4.637111e+00 4.638904e+00 4.637111e+00 4.638904e+00 4.637111e+00 4.638904e+00 4.637111e+00 4.638903e+00 4.637111e+00 4.638903e+00 4.637111e+00 4.638903e+00 4.637110e+00 4.638903e+00 4.637110e+00 4.638902e+00 4.637110e+00 4.638902e+00 4.637109e+00 4.638901e+00 4.637109e+00 4.638901e+00 4.637108e+00 4.638900e+00 4.637107e+00 4.638899e+00 4.637106e+00 4.638898e+00 4.637105e+00 4.638896e+00 4.637104e+00 4.638895e+00 4.637102e+00 4.638892e+00 4.637100e+00 4.638890e+00 4.637098e+00 4.638887e+00 4.637095e+00 4.638883e+00 4.637091e+00 4.638878e+00 4.637086e+00 4.638873e+00 4.637081e+00 4.638866e+00 4.637074e+00 4.638858e+00 4.637066e+00 4.638848e+00 4.637056e+00 4.638836e+00 4.637044e+00 4.638821e+00 4.637030e+00 4.638803e+00 4.637012e+00 4.638781e+00 4.636990e+00 4.638754e+00 4.636964e+00 4.638721e+00 4.636932e+00 4.638681e+00 4.636892e+00 4.638632e+00 4.636844e+00 4.638573e+00 4.636786e+00 4.638500e+00 4.636714e+00 4.638412e+00 4.636627e+00 4.638303e+00 4.636519e+00 4.638170e+00 4.636388e+00 4.638006e+00 4.636225e+00 4.637805e+00 4.636025e+00 4.637557e+00 4.635777e+00 4.637250e+00 4.635469e+00 4.636868e+00 4.635084e+00 4.636390e+00 4.634600e+00 4.635791e+00 4.633986e+00 4.635031e+00 4.633202e+00 4.634060e+00 4.632187e+00 4.632803e+00 4.630852e+00 4.631151e+00 4.629061e+00 4.628936e+00 4.626601e+00 4.625896e+00 4.623122e+00 4.621598e+00 4.618055e+00 4.615349e+00 4.610607e+00 4.606187e+00 4.600601e+00 4.593947e+00 4.594924e+00 4.587050e+00 4.646128e+00 
4.644558e+00 4.640304e+00 4.644543e+00 4.641846e+00 4.655793e+00 4.651561e+00 4.653687e+00 4.646393e+00 4.647612e+00 4.642044e+00 4.645725e+00 4.642601e+00 4.648717e+00 4.647531e+00 4.655543e+00 4.655879e+00 4.665514e+00 4.667291e+00 4.678573e+00 4.681922e+00 4.694975e+00 4.700034e+00 4.714930e+00 4.721780e+00 4.738534e+00 4.747223e+00 4.765818e+00 4.776378e+00 4.796762e+00 4.809191e+00 4.831250e+00 4.845471e+00 4.868999e+00 4.884823e+00 4.909501e+00 4.926604e+00 4.951994e+00 4.969911e+00 4.995485e+00 5.013634e+00 5.038813e+00 5.056548e+00 5.080762e+00 5.097437e+00 5.120177e+00 5.135212e+00 5.156069e+00 5.168998e+00 5.187678e+00 5.198173e+00 5.214495e+00 5.222366e+00 5.236239e+00 5.241419e+00 5.252817e+00 5.255321e+00 5.264255e+00 5.264152e+00 5.270659e+00 5.268056e+00 5.272218e+00 5.267274e+00 5.269243e+00 5.262195e+00 5.262220e+00 5.253396e+00 5.251823e+00 5.241621e+00 5.238858e+00 5.227706e+00 5.224166e+00 5.212463e+00 5.208511e+00 5.196577e+00 5.192485e+00 5.180532e+00 5.176452e+00 5.164569e+00 5.160538e+00 5.148704e+00 5.144656e+00 5.132763e+00 5.128567e+00 5.116461e+00 5.111954e+00 5.099472e+00 5.094503e+00 5.081506e+00 5.075962e+00 5.062363e+00 5.056188e+00 5.041959e+00 5.035157e+00 5.020333e+00 5.012970e+00 4.997638e+00 4.989821e+00 4.974108e+00 4.965981e+00 4.950039e+00 4.941761e+00 4.925752e+00 4.917488e+00 4.901577e+00 4.893486e+00 4.877825e+00 4.870053e+00 4.854777e+00 4.847451e+00 4.832677e+00 4.825902e+00 4.811724e+00 4.805583e+00 4.792073e+00 4.786626e+00 4.773833e+00 4.769120e+00 4.757073e+00 4.753113e+00 4.741822e+00 4.738618e+00 4.728077e+00 4.725615e+00 4.715804e+00 4.714055e+00 4.704941e+00 4.703868e+00 4.695408e+00 4.694965e+00 4.687109e+00 4.687244e+00 4.679938e+00 4.680596e+00 4.673784e+00 4.674909e+00 4.668536e+00 4.670072e+00 4.664084e+00 4.665980e+00 4.660326e+00 4.662532e+00 4.657167e+00 4.659640e+00 4.654521e+00 4.657221e+00 4.652311e+00 4.655204e+00 4.650471e+00 4.653527e+00 4.648942e+00 4.652133e+00 4.647673e+00 4.650978e+00 4.646622e+00 4.650023e+00 4.645753e+00 4.649232e+00 4.645034e+00 4.648579e+00 4.644441e+00 4.648040e+00 4.643951e+00 4.647596e+00 4.643548e+00 4.647229e+00 4.643215e+00 4.646927e+00 4.642941e+00 4.646679e+00 4.642715e+00 4.646474e+00 4.642529e+00 4.646305e+00 4.642376e+00 4.646166e+00 4.642250e+00 4.646052e+00 4.642147e+00 4.645958e+00 4.642062e+00 4.645881e+00 4.641991e+00 4.645817e+00 4.641934e+00 4.645765e+00 4.641886e+00 4.645722e+00 4.641847e+00 4.645687e+00 4.641815e+00 4.645657e+00 4.641789e+00 4.645634e+00 4.641767e+00 4.645614e+00 4.641749e+00 4.645598e+00 4.641734e+00 4.645584e+00 4.641722e+00 4.645573e+00 4.641712e+00 4.645564e+00 4.641704e+00 4.645557e+00 4.641698e+00 4.645551e+00 4.641692e+00 4.645546e+00 4.641687e+00 4.645542e+00 4.641684e+00 4.645538e+00 4.641681e+00 4.645536e+00 4.641678e+00 4.645533e+00 4.641676e+00 4.645531e+00 4.641674e+00 4.645530e+00 4.641673e+00 4.645529e+00 4.641672e+00 4.645528e+00 4.641671e+00 4.645527e+00 4.641670e+00 4.645526e+00 4.641669e+00 4.645525e+00 4.641669e+00 4.645525e+00 4.641669e+00 4.645525e+00 4.641668e+00 4.645524e+00 4.641668e+00 4.645524e+00 4.641668e+00 4.645524e+00 4.641667e+00 4.645524e+00 4.641667e+00 4.645523e+00 4.641667e+00 4.645523e+00 4.641667e+00 4.645523e+00 4.641667e+00 4.645523e+00 4.641667e+00 4.645523e+00 4.641667e+00 4.645523e+00 4.641667e+00 4.645523e+00 4.641667e+00 4.645523e+00 4.641667e+00 4.645523e+00 4.641667e+00 4.645523e+00 4.641667e+00 4.645523e+00 4.641667e+00 4.645523e+00 4.641667e+00 4.645523e+00 4.641667e+00 4.645523e+00 4.641667e+00 4.645523e+00 4.641666e+00 4.645523e+00 4.641666e+00 4.645523e+00 4.641666e+00 4.645523e+00 4.641666e+00 4.645523e+00 4.641666e+00 4.645523e+00 4.641666e+00 4.645523e+00 4.641666e+00 4.645523e+00 4.641666e+00 4.645523e+00 4.641666e+00 4.645523e+00 4.641666e+00 4.645523e+00 4.641666e+00 4.645523e+00 4.641666e+00 4.645523e+00 4.641666e+00 4.645523e+00 4.641666e+00 4.645522e+00 4.641666e+00 4.645522e+00 4.641666e+00 4.645522e+00 4.641666e+00 4.645522e+00 4.641666e+00 4.645522e+00 4.641665e+00 4.645522e+00 4.641665e+00 4.645522e+00 4.641665e+00 4.645522e+00 4.641664e+00 4.645521e+00 4.641664e+00 4.645521e+00 4.641663e+00 4.645521e+00 4.641663e+00 4.645520e+00 4.641662e+00 4.645520e+00 4.641661e+00 4.645519e+00 4.641660e+00 4.645519e+00 4.641658e+00 4.645518e+00 4.641656e+00 4.645517e+00 4.641654e+00 4.645515e+00 4.641652e+00 4.645514e+00 4.641649e+00 4.645512e+00 4.641645e+00 4.645510e+00 4.641640e+00 4.645507e+00 4.641634e+00 4.645504e+00 4.641627e+00 4.645499e+00 4.641619e+00 4.645494e+00 4.641609e+00 4.645488e+00 4.641596e+00 4.645481e+00 4.641580e+00 4.645472e+00 4.641561e+00 4.645461e+00 4.641537e+00 4.645447e+00 4.641508e+00 4.645431e+00 4.641471e+00 4.645410e+00 4.641426e+00 4.645385e+00 4.641368e+00 4.645353e+00 4.641295e+00 4.645314e+00 4.641201e+00 4.645264e+00 4.641080e+00 4.645202e+00 4.640922e+00 4.645126e+00 4.640719e+00 4.645035e+00 4.640474e+00 4.644942e+00 4.640258e+00 4.644887e+00 4.640433e+00 4.644806e+00 4.642479e+00 
4.655551e+00 4.650763e+00 4.655560e+00 4.650678e+00 4.642062e+00 4.639892e+00 4.633373e+00 4.633609e+00 4.630734e+00 4.632685e+00 4.632974e+00 4.636010e+00 4.638612e+00 4.642263e+00 4.646607e+00 4.650797e+00 4.656753e+00 4.661744e+00 4.669462e+00 4.675613e+00 4.685262e+00 4.692843e+00 4.704498e+00 4.713675e+00 4.727354e+00 4.738262e+00 4.753972e+00 4.766736e+00 4.784467e+00 4.799183e+00 4.818865e+00 4.835546e+00 4.857009e+00 4.875538e+00 4.898476e+00 4.918569e+00 4.942532e+00 4.963729e+00 4.988148e+00 5.009835e+00 5.034071e+00 5.055537e+00 5.078953e+00 5.099471e+00 5.121491e+00 5.140390e+00 5.160546e+00 5.177271e+00 5.195221e+00 5.209367e+00 5.224884e+00 5.236205e+00 5.249151e+00 5.257533e+00 5.267829e+00 5.273246e+00 5.280839e+00 5.283317e+00 5.288170e+00 5.287769e+00 5.289896e+00 5.286738e+00 5.286251e+00 5.280572e+00 5.277729e+00 5.269901e+00 5.265112e+00 5.255623e+00 5.249402e+00 5.238799e+00 5.231689e+00 5.220500e+00 5.212993e+00 5.201658e+00 5.194134e+00 5.182955e+00 5.175646e+00 5.164770e+00 5.157751e+00 5.147176e+00 5.140386e+00 5.129991e+00 5.123270e+00 5.112862e+00 5.106004e+00 5.095367e+00 5.088168e+00 5.077111e+00 5.069408e+00 5.057798e+00 5.049495e+00 5.037273e+00 5.028349e+00 5.015528e+00 5.006033e+00 4.992692e+00 4.982731e+00 4.968996e+00 4.958714e+00 4.944742e+00 4.934305e+00 4.920267e+00 4.909846e+00 4.895911e+00 4.885673e+00 4.871998e+00 4.862092e+00 4.848819e+00 4.839375e+00 4.826620e+00 4.817745e+00 4.805604e+00 4.797380e+00 4.785923e+00 4.778409e+00 4.767684e+00 4.760918e+00 4.750953e+00 4.744953e+00 4.735755e+00 4.730521e+00 4.722083e+00 4.717599e+00 4.709897e+00 4.706133e+00 4.699133e+00 4.696050e+00 4.689707e+00 4.687255e+00 4.681517e+00 4.679644e+00 4.674456e+00 4.673104e+00 4.668408e+00 4.667520e+00 4.663260e+00 4.662781e+00 4.658902e+00 4.658778e+00 4.655230e+00 4.655413e+00 4.652148e+00 4.652594e+00 4.649571e+00 4.650239e+00 4.647422e+00 4.648279e+00 4.645634e+00 4.646649e+00 4.644150e+00 4.645298e+00 4.642920e+00 4.644179e+00 4.641902e+00 4.643253e+00 4.641060e+00 4.642488e+00 4.640365e+00 4.641856e+00 4.639791e+00 4.641335e+00 4.639318e+00 4.640906e+00 4.638928e+00 4.640552e+00 4.638606e+00 4.640260e+00 4.638342e+00 4.640020e+00 4.638124e+00 4.639822e+00 4.637944e+00 4.639659e+00 4.637797e+00 4.639525e+00 4.637675e+00 4.639415e+00 4.637575e+00 4.639324e+00 4.637493e+00 4.639250e+00 4.637425e+00 4.639188e+00 4.637369e+00 4.639138e+00 4.637324e+00 4.639096e+00 4.637286e+00 4.639062e+00 4.637255e+00 4.639034e+00 4.637230e+00 4.639011e+00 4.637209e+00 4.638992e+00 4.637191e+00 4.638977e+00 4.637177e+00 4.638964e+00 4.637166e+00 4.638953e+00 4.637156e+00 4.638944e+00 4.637148e+00 4.638937e+00 4.637142e+00 4.638931e+00 4.637136e+00 4.638927e+00 4.637132e+00 4.638923e+00 4.637128e+00 4.638919e+00 4.637125e+00 4.638917e+00 4.637123e+00 4.638914e+00 4.637121e+00 4.638913e+00 4.637119e+00 4.638911e+00 4.637118e+00 4.638910e+00 4.637117e+00 4.638909e+00 4.637116e+00 4.638908e+00 4.637115e+00 4.638907e+00 4.637115e+00 4.638907e+00 4.637114e+00 4.638906e+00 4.637114e+00 4.638906e+00 4.637113e+00 4.638906e+00 4.637113e+00 4.638905e+00 4.637113e+00 4.638905e+00 4.637113e+00 4.638905e+00 4.637112e+00 4.638905e+00 4.637112e+00 4.638905e+00 4.637112e+00 4.638905e+00 4.637112e+00 4.638905e+00 4.637112e+00 4.638904e+00 4.637112e+00 4.638904e+00 4.637112e+00 4.638904e+00 4.637112e+00 4.638904e+00 4.637112e+00 4.638904e+00 4.637112e+00 4.638904e+00 4.637112e+00 4.638904e+00 4.637112e+00 4.638904e+00 4.637111e+00 4.638904e+00 4.637111e+00 4.638904e+00 4.637111e+00 4.638904e+00 4.637111e+00 4.638904e+00 4.637111e+00 4.638904e+00 4.637111e+00 4.638903e+00 4.637111e+00 4.638903e+00 4.637111e+00 4.638903e+00 4.637110e+00 4.638903e+00 4.637110e+00 4.638902e+00 4.637110e+00 4.638902e+00 4.637109e+00 4.638901e+00 4.637109e+00 4.638901e+00 4.637108e+00 4.638900e+00 4.637108e+00 4.638899e+00 4.637107e+00 4.638898e+00 4.637106e+00 4.638897e+00 4.637104e+00 4.638895e+00 4.637103e+00 4.638893e+00 4.637101e+00 4.638891e+00 4.637098e+00 4.638888e+00 4.637096e+00 4.638884e+00 4.637092e+00 4.638880e+00 4.637088e+00 4.638875e+00 4.637083e+00 4.638868e+00 4.637076e+00 4.638860e+00 4.637069e+00 4.638851e+00 4.637059e+00 4.638840e+00 4.637048e+00 4.638825e+00 4.637034e+00 4.638808e+00 4.637017e+00 4.638788e+00 4.636997e+00 4.638762e+00 4.636972e+00 4.638732e+00 4.636942e+00 4.638694e+00 4.636905e+00 4.638648e+00 4.636860e+00 4.638593e+00 4.636805e+00 4.638524e+00 4.636738e+00 4.638441e+00 4.636656e+00 4.638340e+00 4.636555e+00 4.638215e+00 4.636432e+00 4.638063e+00 4.636281e+00 4.637876e+00 4.636095e+00 4.637646e+00 4.635866e+00 4.637362e+00 4.635582e+00 4.637011e+00 4.635230e+00 4.636575e+00 4.634792e+00 4.636033e+00 4.634242e+00 4.635353e+00 4.633550e+00 4.634497e+00 4.632673e+00 4.633412e+00 4.631554e+00 4.632028e+00 4.630117e+00 4.630251e+00 4.628271e+00 4.627971e+00 4.625929e+00 4.625077e+00 4.623100e+00 4.621583e+00 4.620211e+00 4.618013e+00 4.619099e+00 4.616598e+00 4.625395e+00 4.624124e+00 4.650417e+00 