# vtk DataFile Version 2.0
Comment goes here
ASCII

DATASET STRUCTURED_POINTS
FIELD FieldData 1
TIME 1 1 double
1.80000000
DIMENSIONS    384   64   1

ORIGIN    0.000   0.000   0.000
SPACING   0.078125 0.078125   1.000

POINT_DATA   24576
SCALARS uMag double
LOOKUP_TABLE default

4.358222e+00 4.427140e+00 4.358117e+00 4.430587e+00 4.488319e+00 4.549584e+00 4.581452e+00 4.612577e+00 4.628838e+00 4.646598e+00 4.657713e+00 4.670290e+00 4.680244e+00 4.690820e+00 4.701050e+00 4.711038e+00 4.722202e+00 4.732388e+00 4.744866e+00 4.755739e+00 4.769748e+00 4.781595e+00 4.797217e+00 4.810179e+00 4.827412e+00 4.841560e+00 4.860369e+00 4.875738e+00 4.896045e+00 4.912606e+00 4.934241e+00 4.951855e+00 4.974521e+00 4.992924e+00 5.016207e+00 5.035028e+00 5.058429e+00 5.077226e+00 5.100205e+00 5.118508e+00 5.140527e+00 5.157874e+00 5.178435e+00 5.194404e+00 5.213074e+00 5.227305e+00 5.243744e+00 5.255960e+00 5.269934e+00 5.279956e+00 5.291352e+00 5.299105e+00 5.307934e+00 5.313444e+00 5.319831e+00 5.323219e+00 5.327382e+00 5.328837e+00 5.331053e+00 5.330810e+00 5.331385e+00 5.329691e+00 5.328923e+00 5.326017e+00 5.324174e+00 5.320271e+00 5.317585e+00 5.312872e+00 5.309541e+00 5.304185e+00 5.300381e+00 5.294536e+00 5.290409e+00 5.284214e+00 5.279891e+00 5.273457e+00 5.269028e+00 5.262430e+00 5.257937e+00 5.251198e+00 5.246629e+00 5.239719e+00 5.235014e+00 5.227860e+00 5.222920e+00 5.215422e+00 5.210132e+00 5.202179e+00 5.196426e+00 5.187919e+00 5.181607e+00 5.172472e+00 5.165537e+00 5.155732e+00 5.148147e+00 5.137670e+00 5.129445e+00 5.118326e+00 5.109506e+00 5.097811e+00 5.088472e+00 5.076291e+00 5.066531e+00 5.053975e+00 5.043912e+00 5.031106e+00 5.020867e+00 5.007944e+00 4.997663e+00 4.984759e+00 4.974570e+00 4.961816e+00 4.951846e+00 4.939368e+00 4.929734e+00 4.917643e+00 4.908451e+00 4.896843e+00 4.888180e+00 4.877136e+00 4.869072e+00 4.858654e+00 4.851241e+00 4.841492e+00 4.834765e+00 4.825711e+00 4.819688e+00 4.811338e+00 4.806018e+00 4.798367e+00 4.793740e+00 4.786769e+00 4.782808e+00 4.776487e+00 4.773158e+00 4.767448e+00 4.764710e+00 4.759565e+00 4.757368e+00 4.752740e+00 4.751035e+00 4.746872e+00 4.745607e+00 4.741857e+00 4.740981e+00 4.737596e+00 4.737060e+00 4.733992e+00 4.733752e+00 4.730958e+00 4.730971e+00 4.728412e+00 4.728643e+00 4.726284e+00 4.726699e+00 4.724510e+00 4.725081e+00 4.723033e+00 4.723735e+00 4.721808e+00 4.722619e+00 4.720791e+00 4.721694e+00 4.719950e+00 4.720930e+00 4.719255e+00 4.720297e+00 4.718680e+00 4.719775e+00 4.718206e+00 4.719345e+00 4.717815e+00 4.718990e+00 4.717493e+00 4.718697e+00 4.717227e+00 4.718456e+00 4.717008e+00 4.718257e+00 4.716828e+00 4.718094e+00 4.716679e+00 4.717959e+00 4.716557e+00 4.717848e+00 4.716457e+00 4.717757e+00 4.716374e+00 4.717682e+00 4.716306e+00 4.717620e+00 4.716250e+00 4.717570e+00 4.716204e+00 4.717528e+00 4.716166e+00 4.717493e+00 4.716135e+00 4.717465e+00 4.716109e+00 4.717442e+00 4.716088e+00 4.717423e+00 4.716071e+00 4.717407e+00 4.716057e+00 4.717394e+00 4.716045e+00 4.717384e+00 4.716035e+00 4.717375e+00 4.716027e+00 4.717368e+00 4.716021e+00 4.717362e+00 4.716016e+00 4.717357e+00 4.716011e+00 4.717353e+00 4.716008e+00 4.717350e+00 4.716005e+00 4.717347e+00 4.716002e+00 4.717345e+00 4.716000e+00 4.717343e+00 4.715998e+00 4.717341e+00 4.715997e+00 4.717340e+00 4.715996e+00 4.717339e+00 4.715995e+00 4.717338e+00 4.715994e+00 4.717338e+00 4.715994e+00 4.717337e+00 4.715993e+00 4.717337e+00 4.715993e+00 4.717336e+00 4.715992e+00 4.717336e+00 4.715992e+00 4.717336e+00 4.715992e+00 4.717335e+00 4.715992e+00 4.717335e+00 4.715991e+00 4.717335e+00 4.715991e+00 4.717335e+00 4.715991e+00 4.717335e+00 4.715991e+00 4.717335e+00 4.715991e+00 4.717335e+00 4.715991e+00 4.717335e+00 4.715991e+00 4.717335e+00 4.715991e+00 4.717334e+00 4.715991e+00 4.717334e+00 4.715991e+00 4.717334e+00 4.715991e+00 4.717334e+00 4.715990e+00 4.717334e+00 4.715990e+00 4.717334e+00 4.715990e+00 4.717334e+00 4.715990e+00 4.717334e+00 4.715990e+00 4.717333e+00 4.715990e+00 4.717333e+00 4.715990e+00 4.717333e+00 4.715989e+00 4.717333e+00 4.715989e+00 4.717332e+00 4.715989e+00 4.717332e+00 4.715988e+00 4.717331e+00 4.715988e+00 4.717330e+00 4.715987e+00 4.717330e+00 4.715986e+00 4.717328e+00 4.715985e+00 4.717327e+00 4.715984e+00 4.717326e+00 4.715982e+00 4.717324e+00 4.715980e+00 4.717321e+00 4.715978e+00 4.717318e+00 4.715975e+00 4.717315e+00 4.715972e+00 4.717311e+00 4.715968e+00 4.717305e+00 4.715963e+00 4.717299e+00 4.715956e+00 4.717292e+00 4.715949e+00 4.717282e+00 4.715940e+00 4.717271e+00 4.715929e+00 4.717257e+00 4.715916e+00 4.717240e+00 4.715899e+00 4.717220e+00 4.715879e+00 4.717195e+00 4.715855e+00 4.717165e+00 4.715825e+00 4.717128e+00 4.715789e+00 4.717083e+00 4.715745e+00 4.717027e+00 4.715691e+00 4.716960e+00 4.715625e+00 4.716877e+00 4.715544e+00 4.716776e+00 4.715444e+00 4.716651e+00 4.715321e+00 4.716498e+00 4.715170e+00 4.716308e+00 4.714981e+00 4.716073e+00 4.714747e+00 4.715780e+00 4.714454e+00 4.715414e+00 4.714084e+00 4.714952e+00 4.713613e+00 4.714365e+00 4.713008e+00 4.713610e+00 4.712219e+00 4.712627e+00 4.711170e+00 4.711321e+00 4.709740e+00 4.709542e+00 4.707721e+00 4.707033e+00 4.704720e+00 4.703311e+00 4.699896e+00 4.697337e+00 4.691122e+00 4.686499e+00 4.671934e+00 4.662893e+00 4.618998e+00 4.598313e+00 4.436730e+00 
4.719831e+00 4.715031e+00 4.719833e+00 4.713869e+00 4.698567e+00 4.689479e+00 4.686113e+00 4.682960e+00 4.686705e+00 4.687097e+00 4.694439e+00 4.696778e+00 4.706155e+00 4.709763e+00 4.720625e+00 4.725350e+00 4.737612e+00 4.743511e+00 4.757231e+00 4.764398e+00 4.779642e+00 4.788133e+00 4.804929e+00 4.814766e+00 4.833118e+00 4.844318e+00 4.864224e+00 4.876797e+00 4.898215e+00 4.912114e+00 4.934907e+00 4.949984e+00 4.973889e+00 4.989882e+00 5.014523e+00 5.031084e+00 5.056002e+00 5.072726e+00 5.097424e+00 5.113884e+00 5.137858e+00 5.153632e+00 5.176400e+00 5.191090e+00 5.212218e+00 5.225472e+00 5.244594e+00 5.256120e+00 5.272960e+00 5.282540e+00 5.296934e+00 5.304438e+00 5.316334e+00 5.321720e+00 5.331179e+00 5.334486e+00 5.341658e+00 5.342991e+00 5.348084e+00 5.347590e+00 5.350841e+00 5.348686e+00 5.350326e+00 5.346669e+00 5.346908e+00 5.341903e+00 5.340925e+00 5.334719e+00 5.332703e+00 5.325455e+00 5.322587e+00 5.314481e+00 5.310962e+00 5.302207e+00 5.298247e+00 5.289051e+00 5.284847e+00 5.275396e+00 5.271103e+00 5.261531e+00 5.257242e+00 5.247617e+00 5.243355e+00 5.233675e+00 5.229396e+00 5.219599e+00 5.215212e+00 5.205197e+00 5.200579e+00 5.190227e+00 5.185252e+00 5.174450e+00 5.169009e+00 5.157665e+00 5.151680e+00 5.139742e+00 5.133176e+00 5.120634e+00 5.113493e+00 5.100379e+00 5.092713e+00 5.079096e+00 5.070989e+00 5.056971e+00 5.048533e+00 5.034237e+00 5.025596e+00 5.011158e+00 5.002454e+00 4.988015e+00 4.979385e+00 4.965083e+00 4.956662e+00 4.942627e+00 4.934537e+00 4.920884e+00 4.913234e+00 4.900064e+00 4.892943e+00 4.880338e+00 4.873818e+00 4.861841e+00 4.855974e+00 4.844669e+00 4.839491e+00 4.828883e+00 4.824411e+00 4.814510e+00 4.810744e+00 4.801544e+00 4.798472e+00 4.789953e+00 4.787550e+00 4.779681e+00 4.777911e+00 4.770655e+00 4.769475e+00 4.762785e+00 4.762148e+00 4.755974e+00 4.755828e+00 4.750119e+00 4.750413e+00 4.745117e+00 4.745800e+00 4.740868e+00 4.741890e+00 4.737275e+00 4.738593e+00 4.734251e+00 4.735822e+00 4.731715e+00 4.733502e+00 4.729594e+00 4.731566e+00 4.727827e+00 4.729953e+00 4.726356e+00 4.728613e+00 4.725135e+00 4.727502e+00 4.724124e+00 4.726581e+00 4.723286e+00 4.725820e+00 4.722594e+00 4.725190e+00 4.722022e+00 4.724670e+00 4.721550e+00 4.724242e+00 4.721160e+00 4.723888e+00 4.720839e+00 4.723597e+00 4.720575e+00 4.723357e+00 4.720357e+00 4.723159e+00 4.720177e+00 4.722996e+00 4.720030e+00 4.722862e+00 4.719908e+00 4.722752e+00 4.719808e+00 4.722661e+00 4.719726e+00 4.722586e+00 4.719658e+00 4.722525e+00 4.719602e+00 4.722475e+00 4.719556e+00 4.722433e+00 4.719519e+00 4.722399e+00 4.719488e+00 4.722371e+00 4.719462e+00 4.722348e+00 4.719441e+00 4.722329e+00 4.719424e+00 4.722313e+00 4.719410e+00 4.722300e+00 4.719398e+00 4.722289e+00 4.719389e+00 4.722281e+00 4.719381e+00 4.722274e+00 4.719374e+00 4.722268e+00 4.719369e+00 4.722263e+00 4.719364e+00 4.722259e+00 4.719361e+00 4.722256e+00 4.719358e+00 4.722253e+00 4.719355e+00 4.722251e+00 4.719353e+00 4.722249e+00 4.719352e+00 4.722247e+00 4.719350e+00 4.722246e+00 4.719349e+00 4.722245e+00 4.719348e+00 4.722244e+00 4.719348e+00 4.722244e+00 4.719347e+00 4.722243e+00 4.719347e+00 4.722243e+00 4.719346e+00 4.722242e+00 4.719346e+00 4.722242e+00 4.719345e+00 4.722242e+00 4.719345e+00 4.722241e+00 4.719345e+00 4.722241e+00 4.719345e+00 4.722241e+00 4.719345e+00 4.722241e+00 4.719345e+00 4.722241e+00 4.719345e+00 4.722241e+00 4.719345e+00 4.722241e+00 4.719344e+00 4.722241e+00 4.719344e+00 4.722241e+00 4.719344e+00 4.722241e+00 4.719344e+00 4.722241e+00 4.719344e+00 4.722241e+00 4.719344e+00 4.722241e+00 4.719344e+00 4.722241e+00 4.719344e+00 4.722241e+00 4.719344e+00 4.722241e+00 4.719344e+00 4.722241e+00 4.719344e+00 4.722241e+00 4.719344e+00 4.722241e+00 4.719344e+00 4.722240e+00 4.719344e+00 4.722240e+00 4.719344e+00 4.722240e+00 4.719344e+00 4.722240e+00 4.719344e+00 4.722240e+00 4.719344e+00 4.722240e+00 4.719344e+00 4.722240e+00 4.719344e+00 4.722240e+00 4.719344e+00 4.722240e+00 4.719344e+00 4.722240e+00 4.719344e+00 4.722240e+00 4.719344e+00 4.722240e+00 4.719343e+00 4.722240e+00 4.719343e+00 4.722240e+00 4.719343e+00 4.722240e+00 4.719343e+00 4.722240e+00 4.719342e+00 4.722239e+00 4.719342e+00 4.722239e+00 4.719342e+00 4.722239e+00 4.719341e+00 4.722239e+00 4.719340e+00 4.722238e+00 4.719339e+00 4.722238e+00 4.719338e+00 4.722237e+00 4.719337e+00 4.722236e+00 4.719336e+00 4.722235e+00 4.719334e+00 4.722234e+00 4.719332e+00 4.722233e+00 4.719329e+00 4.722231e+00 4.719326e+00 4.722229e+00 4.719322e+00 4.722227e+00 4.719317e+00 4.722224e+00 4.719311e+00 4.722221e+00 4.719303e+00 4.722216e+00 4.719294e+00 4.722211e+00 4.719283e+00 4.722205e+00 4.719270e+00 4.722197e+00 4.719253e+00 4.722187e+00 4.719231e+00 4.722176e+00 4.719205e+00 4.722161e+00 4.719171e+00 4.722143e+00 4.719128e+00 4.722120e+00 4.719071e+00 4.722091e+00 4.718997e+00 4.722054e+00 4.718897e+00 4.722007e+00 4.718756e+00 4.721946e+00 4.718548e+00 4.721870e+00 4.718220e+00 4.721784e+00 4.717651e+00 4.721768e+00 4.716578e+00 4.722694e+00 4.715366e+00 
4.730308e+00 4.726763e+00 4.730356e+00 4.725311e+00 4.696331e+00 4.689990e+00 4.678367e+00 4.680146e+00 4.678320e+00 4.683456e+00 4.686340e+00 4.692744e+00 4.698298e+00 4.705378e+00 4.712867e+00 4.720600e+00 4.729804e+00 4.738327e+00 4.749186e+00 4.758633e+00 4.771127e+00 4.781598e+00 4.795720e+00 4.807305e+00 4.823070e+00 4.835867e+00 4.853307e+00 4.867401e+00 4.886506e+00 4.901909e+00 4.922566e+00 4.939174e+00 4.961142e+00 4.978734e+00 5.001657e+00 5.019923e+00 5.043365e+00 5.061937e+00 5.085417e+00 5.103897e+00 5.126917e+00 5.144903e+00 5.166971e+00 5.184072e+00 5.204724e+00 5.220576e+00 5.239405e+00 5.253693e+00 5.270371e+00 5.282845e+00 5.297150e+00 5.307635e+00 5.319461e+00 5.327864e+00 5.337214e+00 5.343517e+00 5.350484e+00 5.354727e+00 5.359467e+00 5.361729e+00 5.364419e+00 5.364795e+00 5.365608e+00 5.364192e+00 5.363278e+00 5.360160e+00 5.357658e+00 5.352942e+00 5.349005e+00 5.342839e+00 5.337663e+00 5.330263e+00 5.324102e+00 5.315747e+00 5.308900e+00 5.299903e+00 5.292680e+00 5.283346e+00 5.276021e+00 5.266601e+00 5.259374e+00 5.250034e+00 5.243013e+00 5.233822e+00 5.227018e+00 5.217952e+00 5.211291e+00 5.202254e+00 5.195604e+00 5.186453e+00 5.179654e+00 5.170232e+00 5.163126e+00 5.153294e+00 5.145750e+00 5.135404e+00 5.127338e+00 5.116424e+00 5.107805e+00 5.096325e+00 5.087177e+00 5.075181e+00 5.065573e+00 5.053154e+00 5.043192e+00 5.030470e+00 5.020285e+00 5.007401e+00 4.997135e+00 4.984236e+00 4.974034e+00 4.961264e+00 4.951266e+00 4.938760e+00 4.929093e+00 4.916971e+00 4.907747e+00 4.896113e+00 4.887423e+00 4.876359e+00 4.868277e+00 4.857848e+00 4.850426e+00 4.840674e+00 4.833947e+00 4.824898e+00 4.818882e+00 4.810545e+00 4.805240e+00 4.797607e+00 4.793000e+00 4.786052e+00 4.782116e+00 4.775821e+00 4.772519e+00 4.766837e+00 4.764127e+00 4.759012e+00 4.756844e+00 4.752245e+00 4.750568e+00 4.746433e+00 4.745195e+00 4.741472e+00 4.740621e+00 4.737260e+00 4.736748e+00 4.733702e+00 4.733483e+00 4.730710e+00 4.730742e+00 4.728201e+00 4.728449e+00 4.726105e+00 4.726535e+00 4.724359e+00 4.724942e+00 4.722906e+00 4.723619e+00 4.721701e+00 4.722522e+00 4.720703e+00 4.721614e+00 4.719877e+00 4.720862e+00 4.719194e+00 4.720242e+00 4.718630e+00 4.719729e+00 4.718164e+00 4.719306e+00 4.717780e+00 4.718958e+00 4.717464e+00 4.718671e+00 4.717203e+00 4.718434e+00 4.716988e+00 4.718239e+00 4.716812e+00 4.718079e+00 4.716666e+00 4.717947e+00 4.716546e+00 4.717838e+00 4.716448e+00 4.717749e+00 4.716367e+00 4.717675e+00 4.716300e+00 4.717615e+00 4.716245e+00 4.717565e+00 4.716200e+00 4.717524e+00 4.716163e+00 4.717490e+00 4.716132e+00 4.717463e+00 4.716107e+00 4.717440e+00 4.716086e+00 4.717421e+00 4.716069e+00 4.717406e+00 4.716055e+00 4.717393e+00 4.716044e+00 4.717383e+00 4.716034e+00 4.717374e+00 4.716027e+00 4.717367e+00 4.716020e+00 4.717361e+00 4.716015e+00 4.717357e+00 4.716011e+00 4.717353e+00 4.716007e+00 4.717349e+00 4.716004e+00 4.717347e+00 4.716002e+00 4.717345e+00 4.716000e+00 4.717343e+00 4.715998e+00 4.717341e+00 4.715997e+00 4.717340e+00 4.715996e+00 4.717339e+00 4.715995e+00 4.717338e+00 4.715994e+00 4.717338e+00 4.715994e+00 4.717337e+00 4.715993e+00 4.717337e+00 4.715993e+00 4.717336e+00 4.715992e+00 4.717336e+00 4.715992e+00 4.717336e+00 4.715992e+00 4.717335e+00 4.715992e+00 4.717335e+00 4.715991e+00 4.717335e+00 4.715991e+00 4.717335e+00 4.715991e+00 4.717335e+00 4.715991e+00 4.717335e+00 4.715991e+00 4.717335e+00 4.715991e+00 4.717335e+00 4.715991e+00 4.717335e+00 4.715991e+00 4.717334e+00 4.715991e+00 4.717334e+00 4.715991e+00 4.717334e+00 4.715991e+00 4.717334e+00 4.715990e+00 4.717334e+00 4.715990e+00 4.717334e+00 4.715990e+00 4.717334e+00 4.715990e+00 4.717334e+00 4.715990e+00 4.717333e+00 4.715990e+00 4.717333e+00 4.715990e+00 4.717333e+00 4.715989e+00 4.717333e+00 4.715989e+00 4.717332e+00 4.715989e+00 4.717332e+00 4.715988e+00 4.717331e+00 4.715988e+00 4.717330e+00 4.715987e+00 4.717330e+00 4.715986e+00 4.717329e+00 4.715985e+00 4.717327e+00 4.715984e+00 4.717326e+00 4.715982e+00 4.717324e+00 4.715980e+00 4.717321e+00 4.715978e+00 4.717319e+00 4.715975e+00 4.717315e+00 4.715972e+00 4.717311e+00 4.715968e+00 4.717306e+00 4.715963e+00 4.717300e+00 4.715957e+00 4.717292e+00 4.715950e+00 4.717283e+00 4.715941e+00 4.717272e+00 4.715930e+00 4.717259e+00 4.715917e+00 4.717242e+00 4.715901e+00 4.717222e+00 4.715881e+00 4.717198e+00 4.715858e+00 4.717168e+00 4.715829e+00 4.717132e+00 4.715793e+00 4.717088e+00 4.715750e+00 4.717033e+00 4.715697e+00 4.716967e+00 4.715632e+00 4.716886e+00 4.715553e+00 4.716787e+00 4.715455e+00 4.716665e+00 4.715335e+00 4.716515e+00 4.715187e+00 4.716330e+00 4.715003e+00 4.716101e+00 4.714775e+00 4.715816e+00 4.714490e+00 4.715461e+00 4.714132e+00 4.715014e+00 4.713678e+00 4.714448e+00 4.713098e+00 4.713724e+00 4.712346e+00 4.712787e+00 4.711357e+00 4.711555e+00 4.710030e+00 4.709905e+00 4.708207e+00 4.707640e+00 4.705628e+00 4.704438e+00 4.701871e+00 4.699782e+00 4.696344e+00 4.692944e+00 4.688909e+00 4.683754e+00 4.684664e+00 4.678286e+00 4.722673e+00 
4.721555e+00 4.718409e+00 4.721547e+00 4.719503e+00 4.730338e+00 4.727865e+00 4.730383e+00 4.725538e+00 4.727096e+00 4.723313e+00 4.726721e+00 4.725008e+00 4.730726e+00 4.731070e+00 4.738957e+00 4.741163e+00 4.751028e+00 4.754914e+00 4.766593e+00 4.772010e+00 4.785384e+00 4.792233e+00 4.807252e+00 4.815513e+00 4.832205e+00 4.841925e+00 4.860355e+00 4.871591e+00 4.891784e+00 4.904525e+00 4.926393e+00 4.940518e+00 4.963840e+00 4.979122e+00 5.003564e+00 5.019702e+00 5.044853e+00 5.061498e+00 5.086899e+00 5.103684e+00 5.128849e+00 5.145397e+00 5.169834e+00 5.185769e+00 5.209000e+00 5.223958e+00 5.245540e+00 5.259187e+00 5.278750e+00 5.290799e+00 5.308071e+00 5.318297e+00 5.333120e+00 5.341366e+00 5.353691e+00 5.359865e+00 5.369734e+00 5.373800e+00 5.381310e+00 5.383268e+00 5.388539e+00 5.388404e+00 5.391545e+00 5.389331e+00 5.390426e+00 5.386147e+00 5.385272e+00 5.378977e+00 5.376246e+00 5.368064e+00 5.363677e+00 5.353851e+00 5.348116e+00 5.337002e+00 5.330315e+00 5.318342e+00 5.311136e+00 5.298739e+00 5.291418e+00 5.278975e+00 5.271855e+00 5.259637e+00 5.252915e+00 5.241063e+00 5.234803e+00 5.223328e+00 5.217474e+00 5.206282e+00 5.200685e+00 5.189606e+00 5.184069e+00 5.172901e+00 5.167213e+00 5.155762e+00 5.149739e+00 5.137850e+00 5.131359e+00 5.118936e+00 5.111911e+00 5.098924e+00 5.091363e+00 5.077846e+00 5.069807e+00 5.055844e+00 5.047429e+00 5.033143e+00 5.024487e+00 5.010023e+00 5.001273e+00 4.986784e+00 4.978093e+00 4.963730e+00 4.955244e+00 4.941148e+00 4.932999e+00 4.919294e+00 4.911595e+00 4.898387e+00 4.891233e+00 4.878606e+00 4.872069e+00 4.860086e+00 4.854220e+00 4.842924e+00 4.837761e+00 4.827177e+00 4.822733e+00 4.812867e+00 4.809141e+00 4.799985e+00 4.796961e+00 4.788494e+00 4.786145e+00 4.778333e+00 4.776622e+00 4.769424e+00 4.768305e+00 4.761674e+00 4.761097e+00 4.754982e+00 4.754894e+00 4.749242e+00 4.749591e+00 4.744349e+00 4.745083e+00 4.740201e+00 4.741270e+00 4.736700e+00 4.738060e+00 4.733758e+00 4.735367e+00 4.731295e+00 4.733116e+00 4.729239e+00 4.731240e+00 4.727527e+00 4.729679e+00 4.726105e+00 4.728383e+00 4.724925e+00 4.727310e+00 4.723948e+00 4.726421e+00 4.723140e+00 4.725686e+00 4.722472e+00 4.725080e+00 4.721921e+00 4.724579e+00 4.721466e+00 4.724166e+00 4.721091e+00 4.723826e+00 4.720782e+00 4.723545e+00 4.720528e+00 4.723314e+00 4.720318e+00 4.723124e+00 4.720145e+00 4.722967e+00 4.720003e+00 4.722838e+00 4.719886e+00 4.722732e+00 4.719790e+00 4.722645e+00 4.719711e+00 4.722573e+00 4.719646e+00 4.722514e+00 4.719592e+00 4.722466e+00 4.719548e+00 4.722426e+00 4.719512e+00 4.722393e+00 4.719482e+00 4.722366e+00 4.719458e+00 4.722343e+00 4.719437e+00 4.722325e+00 4.719421e+00 4.722310e+00 4.719407e+00 4.722298e+00 4.719396e+00 4.722288e+00 4.719387e+00 4.722279e+00 4.719379e+00 4.722272e+00 4.719373e+00 4.722267e+00 4.719368e+00 4.722262e+00 4.719364e+00 4.722258e+00 4.719360e+00 4.722255e+00 4.719357e+00 4.722252e+00 4.719355e+00 4.722250e+00 4.719353e+00 4.722249e+00 4.719352e+00 4.722247e+00 4.719350e+00 4.722246e+00 4.719349e+00 4.722245e+00 4.719348e+00 4.722244e+00 4.719348e+00 4.722244e+00 4.719347e+00 4.722243e+00 4.719346e+00 4.722243e+00 4.719346e+00 4.722242e+00 4.719346e+00 4.722242e+00 4.719345e+00 4.722242e+00 4.719345e+00 4.722241e+00 4.719345e+00 4.722241e+00 4.719345e+00 4.722241e+00 4.719345e+00 4.722241e+00 4.719345e+00 4.722241e+00 4.719345e+00 4.722241e+00 4.719345e+00 4.722241e+00 4.719344e+00 4.722241e+00 4.719344e+00 4.722241e+00 4.719344e+00 4.722241e+00 4.719344e+00 4.722241e+00 4.719344e+00 4.722241e+00 4.719344e+00 4.722241e+00 4.719344e+00 4.722241e+00 4.719344e+00 4.722241e+00 4.719344e+00 4.722241e+00 4.719344e+00 4.722241e+00 4.719344e+00 4.722241e+00 4.719344e+00 4.722241e+00 4.719344e+00 4.722240e+00 4.719344e+00 4.722240e+00 4.719344e+00 4.722240e+00 4.719344e+00 4.722240e+00 4.719344e+00 4.722240e+00 4.719344e+00 4.722240e+00 4.719344e+00 4.722240e+00 4.719344e+00 4.722240e+00 4.719344e+00 4.722240e+00 4.719344e+00 4.722240e+00 4.719344e+00 4.722240e+00 4.719344e+00 4.722240e+00 4.719343e+00 4.722240e+00 4.719343e+00 4.722240e+00 4.719343e+00 4.722240e+00 4.719343e+00 4.722240e+00 4.719342e+00 4.722239e+00 4.719342e+00 4.722239e+00 4.719342e+00 4.722239e+00 4.719341e+00 4.722239e+00 4.719340e+00 4.722238e+00 4.719340e+00 4.722238e+00 4.719339e+00 4.722237e+00 4.719337e+00 4.722236e+00 4.719336e+00 4.722235e+00 4.719334e+00 4.722234e+00 4.719332e+00 4.722233e+00 4.719329e+00 4.722232e+00 4.719326e+00 4.722230e+00 4.719322e+00 4.722227e+00 4.719317e+00 4.722225e+00 4.719312e+00 4.722221e+00 4.719304e+00 4.722217e+00 4.719296e+00 4.722212e+00 4.719285e+00 4.722206e+00 4.719272e+00 4.722198e+00 4.719255e+00 4.722189e+00 4.719235e+00 4.722178e+00 4.719210e+00 4.722164e+00 4.719178e+00 4.722146e+00 4.719138e+00 4.722125e+00 4.719086e+00 4.722098e+00 4.719020e+00 4.722064e+00 4.718934e+00 4.722022e+00 4.718822e+00 4.721969e+00 4.718676e+00 4.721905e+00 4.718497e+00 4.721830e+00 4.718331e+00 4.721741e+00 4.718434e+00 4.721502e+00 4.719851e+00 
4.729843e+00 4.726235e+00 4.729851e+00 4.726171e+00 4.720200e+00 4.719534e+00 4.715774e+00 4.717036e+00 4.715740e+00 4.717908e+00 4.718765e+00 4.721763e+00 4.724701e+00 4.728702e+00 4.733694e+00 4.738843e+00 4.745823e+00 4.752161e+00 4.761005e+00 4.768503e+00 4.779091e+00 4.787735e+00 4.800029e+00 4.809886e+00 4.823955e+00 4.835166e+00 4.851128e+00 4.863835e+00 4.881758e+00 4.896010e+00 4.915834e+00 4.931554e+00 4.953079e+00 4.970074e+00 4.992984e+00 5.010980e+00 5.034873e+00 5.053546e+00 5.077965e+00 5.096960e+00 5.121408e+00 5.140349e+00 5.164308e+00 5.182809e+00 5.205755e+00 5.223432e+00 5.244868e+00 5.261361e+00 5.280855e+00 5.295843e+00 5.313067e+00 5.326290e+00 5.341037e+00 5.352295e+00 5.364473e+00 5.373625e+00 5.383235e+00 5.390187e+00 5.397287e+00 5.401983e+00 5.406647e+00 5.409034e+00 5.411314e+00 5.411333e+00 5.411244e+00 5.408830e+00 5.406378e+00 5.401512e+00 5.396762e+00 5.389542e+00 5.382692e+00 5.373387e+00 5.364799e+00 5.353852e+00 5.344032e+00 5.332000e+00 5.321519e+00 5.308984e+00 5.298390e+00 5.285869e+00 5.275604e+00 5.263479e+00 5.253832e+00 5.242318e+00 5.233405e+00 5.222549e+00 5.214327e+00 5.204027e+00 5.196328e+00 5.186382e+00 5.178960e+00 5.169112e+00 5.161701e+00 5.151699e+00 5.144055e+00 5.133689e+00 5.125630e+00 5.114760e+00 5.106182e+00 5.094750e+00 5.085628e+00 5.073651e+00 5.064033e+00 5.051591e+00 5.041579e+00 5.028796e+00 5.018528e+00 5.005556e+00 4.995188e+00 4.982187e+00 4.971880e+00 4.959009e+00 4.948913e+00 4.936318e+00 4.926570e+00 4.914380e+00 4.905096e+00 4.893417e+00 4.884693e+00 4.873610e+00 4.865518e+00 4.855093e+00 4.847685e+00 4.837959e+00 4.831268e+00 4.822264e+00 4.816301e+00 4.808025e+00 4.802788e+00 4.795230e+00 4.790701e+00 4.783836e+00 4.779987e+00 4.773781e+00 4.770570e+00 4.764981e+00 4.762363e+00 4.757340e+00 4.755264e+00 4.750756e+00 4.749167e+00 4.745119e+00 4.743964e+00 4.740322e+00 4.739549e+00 4.736263e+00 4.735822e+00 4.732844e+00 4.732688e+00 4.729975e+00 4.730064e+00 4.727576e+00 4.727873e+00 4.725576e+00 4.726049e+00 4.723913e+00 4.724534e+00 4.722533e+00 4.723277e+00 4.721389e+00 4.722236e+00 4.720442e+00 4.721376e+00 4.719660e+00 4.720665e+00 4.719013e+00 4.720078e+00 4.718480e+00 4.719593e+00 4.718040e+00 4.719194e+00 4.717678e+00 4.718865e+00 4.717379e+00 4.718594e+00 4.717133e+00 4.718371e+00 4.716931e+00 4.718187e+00 4.716764e+00 4.718036e+00 4.716627e+00 4.717911e+00 4.716514e+00 4.717809e+00 4.716421e+00 4.717725e+00 4.716345e+00 4.717655e+00 4.716282e+00 4.717598e+00 4.716230e+00 4.717552e+00 4.716188e+00 4.717513e+00 4.716153e+00 4.717481e+00 4.716124e+00 4.717455e+00 4.716100e+00 4.717434e+00 4.716081e+00 4.717416e+00 4.716065e+00 4.717402e+00 4.716052e+00 4.717390e+00 4.716041e+00 4.717380e+00 4.716032e+00 4.717372e+00 4.716025e+00 4.717365e+00 4.716019e+00 4.717360e+00 4.716014e+00 4.717355e+00 4.716010e+00 4.717352e+00 4.716006e+00 4.717349e+00 4.716003e+00 4.717346e+00 4.716001e+00 4.717344e+00 4.715999e+00 4.717342e+00 4.715998e+00 4.717341e+00 4.715997e+00 4.717340e+00 4.715996e+00 4.717339e+00 4.715995e+00 4.717338e+00 4.715994e+00 4.717337e+00 4.715993e+00 4.717337e+00 4.715993e+00 4.717336e+00 4.715993e+00 4.717336e+00 4.715992e+00 4.717336e+00 4.715992e+00 4.717336e+00 4.715992e+00 4.717335e+00 4.715992e+00 4.717335e+00 4.715991e+00 4.717335e+00 4.715991e+00 4.717335e+00 4.715991e+00 4.717335e+00 4.715991e+00 4.717335e+00 4.715991e+00 4.717335e+00 4.715991e+00 4.717335e+00 4.715991e+00 4.717335e+00 4.715991e+00 4.717334e+00 4.715991e+00 4.717334e+00 4.715991e+00 4.717334e+00 4.715991e+00 4.717334e+00 4.715990e+00 4.717334e+00 4.715990e+00 4.717334e+00 4.715990e+00 4.717334e+00 4.715990e+00 4.717334e+00 4.715990e+00 4.717334e+00 4.715990e+00 4.717333e+00 4.715990e+00 4.717333e+00 4.715989e+00 4.717333e+00 4.715989e+00 4.717332e+00 4.715989e+00 4.717332e+00 4.715988e+00 4.717331e+00 4.715988e+00 4.717331e+00 4.715987e+00 4.717330e+00 4.715986e+00 4.717329e+00 4.715985e+00 4.717328e+00 4.715984e+00 4.717326e+00 4.715983e+00 4.717324e+00 4.715981e+00 4.717322e+00 4.715979e+00 4.717320e+00 4.715976e+00 4.717316e+00 4.715973e+00 4.717312e+00 4.715969e+00 4.717308e+00 4.715965e+00 4.717302e+00 4.715959e+00 4.717295e+00 4.715952e+00 4.717286e+00 4.715944e+00 4.717276e+00 4.715934e+00 4.717263e+00 4.715921e+00 4.717248e+00 4.715906e+00 4.717229e+00 4.715888e+00 4.717206e+00 4.715865e+00 4.717178e+00 4.715838e+00 4.717144e+00 4.715805e+00 4.717102e+00 4.715764e+00 4.717052e+00 4.715715e+00 4.716990e+00 4.715654e+00 4.716914e+00 4.715580e+00 4.716821e+00 4.715489e+00 4.716708e+00 4.715377e+00 4.716568e+00 4.715240e+00 4.716397e+00 4.715070e+00 4.716185e+00 4.714861e+00 4.715924e+00 4.714601e+00 4.715599e+00 4.714277e+00 4.715195e+00 4.713870e+00 4.714688e+00 4.713359e+00 4.714050e+00 4.712710e+00 4.713242e+00 4.711882e+00 4.712210e+00 4.710819e+00 4.710886e+00 4.709453e+00 4.709185e+00 4.707718e+00 4.707026e+00 4.705622e+00 4.704413e+00 4.703481e+00 4.701730e+00 4.702659e+00 4.700622e+00 4.707347e+00 4.706143e+00 4.725970e+00 