# vtk DataFile Version 2.0
Comment goes here
ASCII

DATASET STRUCTURED_POINTS
FIELD FieldData 1
TIME 1 1 double
1.42500000
DIMENSIONS    384   64   1

ORIGIN    0.000   0.000   0.000
SPACING   0.078125 0.078125   1.000

POINT_DATA   24576
SCALARS uMag double
LOOKUP_TABLE default

3.787779e+00 3.895236e+00 3.787651e+00 3.900663e+00 4.004108e+00 4.115212e+00 4.177220e+00 4.234277e+00 4.263430e+00 4.292932e+00 4.309026e+00 4.327042e+00 4.338845e+00 4.352057e+00 4.362847e+00 4.374054e+00 4.385094e+00 4.395613e+00 4.407434e+00 4.417977e+00 4.430812e+00 4.441803e+00 4.455743e+00 4.467446e+00 4.482498e+00 4.495078e+00 4.511181e+00 4.524713e+00 4.541730e+00 4.556185e+00 4.573896e+00 4.589130e+00 4.607245e+00 4.622996e+00 4.641180e+00 4.657076e+00 4.674986e+00 4.690568e+00 4.707900e+00 4.722655e+00 4.739179e+00 4.752596e+00 4.768186e+00 4.779804e+00 4.794445e+00 4.803905e+00 4.817674e+00 4.824755e+00 4.837784e+00 4.842417e+00 4.854845e+00 4.857102e+00 4.869031e+00 4.869099e+00 4.880560e+00 4.878691e+00 4.889625e+00 4.886092e+00 4.896355e+00 4.891408e+00 4.900790e+00 4.894623e+00 4.902879e+00 4.895623e+00 4.902503e+00 4.894233e+00 4.899518e+00 4.890265e+00 4.893792e+00 4.883570e+00 4.885246e+00 4.874073e+00 4.873880e+00 4.861790e+00 4.859786e+00 4.846842e+00 4.843145e+00 4.829439e+00 4.824221e+00 4.809872e+00 4.803344e+00 4.788496e+00 4.780892e+00 4.765706e+00 4.757274e+00 4.741922e+00 4.732911e+00 4.717566e+00 4.708220e+00 4.693052e+00 4.683598e+00 4.668764e+00 4.659406e+00 4.645046e+00 4.635963e+00 4.622195e+00 4.613537e+00 4.600456e+00 4.592340e+00 4.580018e+00 4.572535e+00 4.561019e+00 4.554231e+00 4.543547e+00 4.537490e+00 4.527642e+00 4.522332e+00 4.513308e+00 4.508738e+00 4.500512e+00 4.496660e+00 4.489190e+00 4.486023e+00 4.479259e+00 4.476730e+00 4.470617e+00 4.468675e+00 4.463152e+00 4.461741e+00 4.456746e+00 4.455810e+00 4.451282e+00 4.450766e+00 4.446646e+00 4.446497e+00 4.442732e+00 4.442900e+00 4.439441e+00 4.439881e+00 4.436683e+00 4.437355e+00 4.434379e+00 4.435248e+00 4.432459e+00 4.433494e+00 4.430862e+00 4.432037e+00 4.429538e+00 4.430829e+00 4.428440e+00 4.429829e+00 4.427531e+00 4.429002e+00 4.426780e+00 4.428318e+00 4.426160e+00 4.427754e+00 4.425648e+00 4.427288e+00 4.425226e+00 4.426904e+00 4.424878e+00 4.426588e+00 4.424591e+00 4.426327e+00 4.424355e+00 4.426113e+00 4.424161e+00 4.425936e+00 4.424000e+00 4.425791e+00 4.423869e+00 4.425671e+00 4.423760e+00 4.425572e+00 4.423671e+00 4.425491e+00 4.423598e+00 4.425425e+00 4.423537e+00 4.425370e+00 4.423488e+00 4.425325e+00 4.423447e+00 4.425288e+00 4.423413e+00 4.425257e+00 4.423386e+00 4.425232e+00 4.423363e+00 4.425211e+00 4.423344e+00 4.425194e+00 4.423329e+00 4.425180e+00 4.423316e+00 4.425169e+00 4.423306e+00 4.425160e+00 4.423297e+00 4.425152e+00 4.423290e+00 4.425145e+00 4.423284e+00 4.425140e+00 4.423280e+00 4.425136e+00 4.423276e+00 4.425132e+00 4.423273e+00 4.425129e+00 4.423270e+00 4.425127e+00 4.423268e+00 4.425125e+00 4.423266e+00 4.425123e+00 4.423264e+00 4.425122e+00 4.423263e+00 4.425121e+00 4.423262e+00 4.425120e+00 4.423261e+00 4.425119e+00 4.423261e+00 4.425119e+00 4.423260e+00 4.425118e+00 4.423260e+00 4.425118e+00 4.423259e+00 4.425117e+00 4.423259e+00 4.425117e+00 4.423259e+00 4.425117e+00 4.423259e+00 4.425117e+00 4.423258e+00 4.425117e+00 4.423258e+00 4.425116e+00 4.423258e+00 4.425116e+00 4.423258e+00 4.425116e+00 4.423258e+00 4.425116e+00 4.423258e+00 4.425116e+00 4.423258e+00 4.425116e+00 4.423258e+00 4.425116e+00 4.423258e+00 4.425116e+00 4.423258e+00 4.425116e+00 4.423258e+00 4.425116e+00 4.423258e+00 4.425116e+00 4.423258e+00 4.425116e+00 4.423258e+00 4.425116e+00 4.423258e+00 4.425116e+00 4.423258e+00 4.425116e+00 4.423257e+00 4.425116e+00 4.423257e+00 4.425116e+00 4.423257e+00 4.425116e+00 4.423257e+00 4.425115e+00 4.423257e+00 4.425115e+00 4.423257e+00 4.425115e+00 4.423257e+00 4.425115e+00 4.423257e+00 4.425115e+00 4.423257e+00 4.425115e+00 4.423256e+00 4.425114e+00 4.423256e+00 4.425114e+00 4.423256e+00 4.425114e+00 4.423255e+00 4.425113e+00 4.423255e+00 4.425113e+00 4.423254e+00 4.425112e+00 4.423254e+00 4.425111e+00 4.423253e+00 4.425110e+00 4.423252e+00 4.425109e+00 4.423250e+00 4.425107e+00 4.423249e+00 4.425105e+00 4.423247e+00 4.425103e+00 4.423244e+00 4.425100e+00 4.423241e+00 4.425096e+00 4.423238e+00 4.425092e+00 4.423234e+00 4.425087e+00 4.423228e+00 4.425081e+00 4.423222e+00 4.425073e+00 4.423214e+00 4.425064e+00 4.423205e+00 4.425052e+00 4.423194e+00 4.425038e+00 4.423180e+00 4.425022e+00 4.423163e+00 4.425001e+00 4.423142e+00 4.424977e+00 4.423117e+00 4.424946e+00 4.423087e+00 4.424909e+00 4.423050e+00 4.424865e+00 4.423004e+00 4.424810e+00 4.422949e+00 4.424743e+00 4.422882e+00 4.424662e+00 4.422800e+00 4.424562e+00 4.422699e+00 4.424441e+00 4.422576e+00 4.424292e+00 4.422425e+00 4.424109e+00 4.422239e+00 4.423885e+00 4.422010e+00 4.423608e+00 4.421728e+00 4.423267e+00 4.421378e+00 4.422844e+00 4.420943e+00 4.422317e+00 4.420397e+00 4.421658e+00 4.419710e+00 4.420826e+00 4.418837e+00 4.419770e+00 4.417714e+00 4.418411e+00 4.416251e+00 4.416640e+00 4.414307e+00 4.414285e+00 4.411661e+00 4.411077e+00 4.407926e+00 4.406544e+00 4.402381e+00 4.399797e+00 4.393472e+00 4.388913e+00 4.377275e+00 4.368991e+00 4.341881e+00 4.325110e+00 4.244461e+00 4.204372e+00 3.910351e+00 
4.429897e+00 4.421463e+00 4.430108e+00 4.427059e+00 4.389588e+00 4.374439e+00 4.366395e+00 4.361977e+00 4.366641e+00 4.365963e+00 4.374998e+00 4.375565e+00 4.386593e+00 4.387942e+00 4.400378e+00 4.402566e+00 4.416310e+00 4.419502e+00 4.434562e+00 4.438914e+00 4.455283e+00 4.460902e+00 4.478516e+00 4.485466e+00 4.504210e+00 4.512527e+00 4.532234e+00 4.541917e+00 4.562354e+00 4.573333e+00 4.594195e+00 4.606299e+00 4.627221e+00 4.640164e+00 4.660754e+00 4.674132e+00 4.694018e+00 4.707320e+00 4.726199e+00 4.738845e+00 4.756525e+00 4.767917e+00 4.784345e+00 4.793932e+00 4.809190e+00 4.816530e+00 4.830811e+00 4.835615e+00 4.849175e+00 4.851328e+00 4.864427e+00 4.863984e+00 4.876826e+00 4.873980e+00 4.886672e+00 4.881708e+00 4.894235e+00 4.887474e+00 4.899704e+00 4.891455e+00 4.903167e+00 4.893685e+00 4.904600e+00 4.894071e+00 4.903896e+00 4.892433e+00 4.900896e+00 4.888552e+00 4.895429e+00 4.882225e+00 4.887362e+00 4.873302e+00 4.876625e+00 4.861726e+00 4.863241e+00 4.847542e+00 4.847331e+00 4.830901e+00 4.829108e+00 4.812051e+00 4.808870e+00 4.791318e+00 4.786978e+00 4.769086e+00 4.763837e+00 4.745773e+00 4.739872e+00 4.721811e+00 4.715509e+00 4.697621e+00 4.691155e+00 4.673601e+00 4.667185e+00 4.650104e+00 4.643925e+00 4.627439e+00 4.621652e+00 4.605855e+00 4.600586e+00 4.585551e+00 4.580893e+00 4.566667e+00 4.562687e+00 4.549295e+00 4.546032e+00 4.533479e+00 4.530951e+00 4.519224e+00 4.517426e+00 4.506498e+00 4.505410e+00 4.495239e+00 4.494827e+00 4.485364e+00 4.485585e+00 4.476771e+00 4.477574e+00 4.469350e+00 4.470680e+00 4.462983e+00 4.464784e+00 4.457554e+00 4.459770e+00 4.452949e+00 4.455528e+00 4.449061e+00 4.451954e+00 4.445792e+00 4.448955e+00 4.443053e+00 4.446447e+00 4.440765e+00 4.444354e+00 4.438859e+00 4.442612e+00 4.437274e+00 4.441165e+00 4.435959e+00 4.439966e+00 4.434869e+00 4.438973e+00 4.433967e+00 4.438151e+00 4.433222e+00 4.437473e+00 4.432606e+00 4.436913e+00 4.432098e+00 4.436450e+00 4.431679e+00 4.436069e+00 4.431334e+00 4.435755e+00 4.431049e+00 4.435496e+00 4.430815e+00 4.435283e+00 4.430622e+00 4.435108e+00 4.430463e+00 4.434964e+00 4.430332e+00 4.434845e+00 4.430224e+00 4.434747e+00 4.430136e+00 4.434666e+00 4.430063e+00 4.434600e+00 4.430003e+00 4.434546e+00 4.429954e+00 4.434501e+00 4.429913e+00 4.434464e+00 4.429880e+00 4.434434e+00 4.429852e+00 4.434409e+00 4.429830e+00 4.434389e+00 4.429811e+00 4.434372e+00 4.429796e+00 4.434358e+00 4.429783e+00 4.434346e+00 4.429773e+00 4.434337e+00 4.429765e+00 4.434329e+00 4.429758e+00 4.434323e+00 4.429752e+00 4.434318e+00 4.429747e+00 4.434314e+00 4.429743e+00 4.434310e+00 4.429740e+00 4.434307e+00 4.429737e+00 4.434305e+00 4.429735e+00 4.434303e+00 4.429733e+00 4.434301e+00 4.429732e+00 4.434300e+00 4.429731e+00 4.434299e+00 4.429730e+00 4.434298e+00 4.429729e+00 4.434297e+00 4.429728e+00 4.434297e+00 4.429728e+00 4.434296e+00 4.429727e+00 4.434296e+00 4.429727e+00 4.434295e+00 4.429727e+00 4.434295e+00 4.429726e+00 4.434295e+00 4.429726e+00 4.434295e+00 4.429726e+00 4.434294e+00 4.429726e+00 4.434294e+00 4.429726e+00 4.434294e+00 4.429726e+00 4.434294e+00 4.429726e+00 4.434294e+00 4.429726e+00 4.434294e+00 4.429726e+00 4.434294e+00 4.429725e+00 4.434294e+00 4.429725e+00 4.434294e+00 4.429725e+00 4.434294e+00 4.429725e+00 4.434294e+00 4.429725e+00 4.434294e+00 4.429725e+00 4.434294e+00 4.429725e+00 4.434294e+00 4.429725e+00 4.434294e+00 4.429725e+00 4.434294e+00 4.429725e+00 4.434294e+00 4.429725e+00 4.434294e+00 4.429725e+00 4.434294e+00 4.429725e+00 4.434294e+00 4.429725e+00 4.434294e+00 4.429725e+00 4.434294e+00 4.429725e+00 4.434294e+00 4.429725e+00 4.434294e+00 4.429725e+00 4.434294e+00 4.429725e+00 4.434294e+00 4.429725e+00 4.434294e+00 4.429725e+00 4.434294e+00 4.429725e+00 4.434294e+00 4.429725e+00 4.434294e+00 4.429725e+00 4.434294e+00 4.429725e+00 4.434294e+00 4.429725e+00 4.434293e+00 4.429725e+00 4.434293e+00 4.429725e+00 4.434293e+00 4.429725e+00 4.434293e+00 4.429724e+00 4.434293e+00 4.429724e+00 4.434293e+00 4.429724e+00 4.434293e+00 4.429724e+00 4.434293e+00 4.429724e+00 4.434293e+00 4.429723e+00 4.434292e+00 4.429723e+00 4.434292e+00 4.429722e+00 4.434292e+00 4.429721e+00 4.434291e+00 4.429721e+00 4.434291e+00 4.429720e+00 4.434290e+00 4.429719e+00 4.434289e+00 4.429717e+00 4.434288e+00 4.429715e+00 4.434287e+00 4.429713e+00 4.434286e+00 4.429711e+00 4.434284e+00 4.429708e+00 4.434283e+00 4.429704e+00 4.434280e+00 4.429699e+00 4.434277e+00 4.429694e+00 4.434274e+00 4.429687e+00 4.434270e+00 4.429679e+00 4.434265e+00 4.429669e+00 4.434259e+00 4.429657e+00 4.434251e+00 4.429642e+00 4.434242e+00 4.429624e+00 4.434232e+00 4.429601e+00 4.434218e+00 4.429574e+00 4.434202e+00 4.429540e+00 4.434181e+00 4.429497e+00 4.434156e+00 4.429444e+00 4.434124e+00 4.429377e+00 4.434085e+00 4.429291e+00 4.434034e+00 4.429180e+00 4.433969e+00 4.429033e+00 4.433883e+00 4.428835e+00 4.433767e+00 4.428557e+00 4.433605e+00 4.428150e+00 4.433370e+00 4.427510e+00 4.433023e+00 4.426426e+00 4.432650e+00 4.424557e+00 4.434697e+00 4.423830e+00 
4.447881e+00 4.442590e+00 4.447954e+00 4.441078e+00 4.389823e+00 4.374257e+00 4.352484e+00 4.353356e+00 4.349314e+00 4.355949e+00 4.358832e+00 4.366465e+00 4.372473e+00 4.380081e+00 4.388113e+00 4.395795e+00 4.405580e+00 4.413675e+00 4.425158e+00 4.433984e+00 4.447110e+00 4.456890e+00 4.471539e+00 4.482410e+00 4.498402e+00 4.510451e+00 4.527555e+00 4.540823e+00 4.558742e+00 4.573200e+00 4.591558e+00 4.607074e+00 4.625430e+00 4.641748e+00 4.659628e+00 4.676365e+00 4.693319e+00 4.709974e+00 4.725638e+00 4.741627e+00 4.755780e+00 4.770486e+00 4.783085e+00 4.795926e+00 4.807108e+00 4.817601e+00 4.827650e+00 4.835466e+00 4.844747e+00 4.849735e+00 4.858617e+00 4.860815e+00 4.869593e+00 4.869199e+00 4.878043e+00 4.875368e+00 4.884297e+00 4.879707e+00 4.888600e+00 4.882461e+00 4.891088e+00 4.883715e+00 4.891778e+00 4.883410e+00 4.890587e+00 4.881375e+00 4.887358e+00 4.877373e+00 4.881899e+00 4.871161e+00 4.874031e+00 4.862530e+00 4.863628e+00 4.851357e+00 4.850651e+00 4.837624e+00 4.835166e+00 4.821430e+00 4.817343e+00 4.802986e+00 4.797455e+00 4.782599e+00 4.775850e+00 4.760646e+00 4.752932e+00 4.737549e+00 4.729134e+00 4.713749e+00 4.704893e+00 4.689680e+00 4.680630e+00 4.665752e+00 4.656728e+00 4.642329e+00 4.633525e+00 4.619727e+00 4.611304e+00 4.598203e+00 4.590290e+00 4.577958e+00 4.570650e+00 4.559135e+00 4.552500e+00 4.541826e+00 4.535906e+00 4.526077e+00 4.520889e+00 4.511891e+00 4.507431e+00 4.499235e+00 4.495485e+00 4.488049e+00 4.484972e+00 4.478245e+00 4.475799e+00 4.469723e+00 4.467856e+00 4.462369e+00 4.461026e+00 4.456065e+00 4.455190e+00 4.450695e+00 4.450232e+00 4.446143e+00 4.446040e+00 4.442303e+00 4.442511e+00 4.439077e+00 4.439552e+00 4.436376e+00 4.437078e+00 4.434120e+00 4.435015e+00 4.432242e+00 4.433299e+00 4.430682e+00 4.431875e+00 4.429387e+00 4.430694e+00 4.428314e+00 4.429716e+00 4.427427e+00 4.428908e+00 4.426694e+00 4.428241e+00 4.426089e+00 4.427690e+00 4.425589e+00 4.427235e+00 4.425177e+00 4.426861e+00 4.424838e+00 4.426552e+00 4.424558e+00 4.426298e+00 4.424328e+00 4.426088e+00 4.424138e+00 4.425916e+00 4.423982e+00 4.425774e+00 4.423853e+00 4.425657e+00 4.423748e+00 4.425561e+00 4.423661e+00 4.425482e+00 4.423589e+00 4.425417e+00 4.423530e+00 4.425364e+00 4.423482e+00 4.425320e+00 4.423442e+00 4.425283e+00 4.423409e+00 4.425254e+00 4.423382e+00 4.425229e+00 4.423360e+00 4.425209e+00 4.423342e+00 4.425192e+00 4.423327e+00 4.425179e+00 4.423315e+00 4.425168e+00 4.423305e+00 4.425158e+00 4.423296e+00 4.425151e+00 4.423289e+00 4.425145e+00 4.423284e+00 4.425140e+00 4.423279e+00 4.425135e+00 4.423275e+00 4.425132e+00 4.423272e+00 4.425129e+00 4.423270e+00 4.425127e+00 4.423267e+00 4.425125e+00 4.423266e+00 4.425123e+00 4.423264e+00 4.425122e+00 4.423263e+00 4.425121e+00 4.423262e+00 4.425120e+00 4.423261e+00 4.425119e+00 4.423261e+00 4.425119e+00 4.423260e+00 4.425118e+00 4.423260e+00 4.425118e+00 4.423259e+00 4.425117e+00 4.423259e+00 4.425117e+00 4.423259e+00 4.425117e+00 4.423259e+00 4.425117e+00 4.423258e+00 4.425117e+00 4.423258e+00 4.425116e+00 4.423258e+00 4.425116e+00 4.423258e+00 4.425116e+00 4.423258e+00 4.425116e+00 4.423258e+00 4.425116e+00 4.423258e+00 4.425116e+00 4.423258e+00 4.425116e+00 4.423258e+00 4.425116e+00 4.423258e+00 4.425116e+00 4.423258e+00 4.425116e+00 4.423258e+00 4.425116e+00 4.423258e+00 4.425116e+00 4.423258e+00 4.425116e+00 4.423258e+00 4.425116e+00 4.423258e+00 4.425116e+00 4.423257e+00 4.425116e+00 4.423257e+00 4.425116e+00 4.423257e+00 4.425116e+00 4.423257e+00 4.425115e+00 4.423257e+00 4.425115e+00 4.423257e+00 4.425115e+00 4.423257e+00 4.425115e+00 4.423257e+00 4.425115e+00 4.423257e+00 4.425115e+00 4.423256e+00 4.425114e+00 4.423256e+00 4.425114e+00 4.423256e+00 4.425114e+00 4.423255e+00 4.425113e+00 4.423255e+00 4.425113e+00 4.423254e+00 4.425112e+00 4.423254e+00 4.425111e+00 4.423253e+00 4.425110e+00 4.423252e+00 4.425109e+00 4.423250e+00 4.425107e+00 4.423249e+00 4.425105e+00 4.423247e+00 4.425103e+00 4.423245e+00 4.425100e+00 4.423242e+00 4.425097e+00 4.423238e+00 4.425093e+00 4.423234e+00 4.425088e+00 4.423229e+00 4.425081e+00 4.423223e+00 4.425074e+00 4.423216e+00 4.425065e+00 4.423207e+00 4.425054e+00 4.423196e+00 4.425040e+00 4.423182e+00 4.425024e+00 4.423166e+00 4.425004e+00 4.423146e+00 4.424980e+00 4.423122e+00 4.424950e+00 4.423092e+00 4.424915e+00 4.423056e+00 4.424871e+00 4.423013e+00 4.424818e+00 4.422959e+00 4.424753e+00 4.422894e+00 4.424673e+00 4.422815e+00 4.424576e+00 4.422717e+00 4.424458e+00 4.422598e+00 4.424313e+00 4.422452e+00 4.424135e+00 4.422273e+00 4.423917e+00 4.422053e+00 4.423649e+00 4.421780e+00 4.423317e+00 4.421444e+00 4.422907e+00 4.421025e+00 4.422397e+00 4.420502e+00 4.421760e+00 4.419844e+00 4.420960e+00 4.419010e+00 4.419946e+00 4.417945e+00 4.418648e+00 4.416564e+00 4.416968e+00 4.414748e+00 4.414759e+00 4.412313e+00 4.411796e+00 4.408967e+00 4.407724e+00 4.404232e+00 4.401966e+00 4.397338e+00 4.393592e+00 4.387212e+00 4.381355e+00 4.373650e+00 4.365252e+00 4.366132e+00 4.357487e+00 4.436133e+00 
4.433268e+00 4.428318e+00 4.433317e+00 4.430303e+00 4.450694e+00 4.445493e+00 4.447286e+00 4.436607e+00 4.436669e+00 4.427544e+00 4.430743e+00 4.424441e+00 4.431024e+00 4.427226e+00 4.436680e+00 4.435007e+00 4.446939e+00 4.447211e+00 4.461382e+00 4.463537e+00 4.479740e+00 4.483731e+00 4.501712e+00 4.507489e+00 4.526945e+00 4.534470e+00 4.555054e+00 4.564296e+00 4.585601e+00 4.596490e+00 4.618036e+00 4.630414e+00 4.651656e+00 4.665240e+00 4.685615e+00 4.699973e+00 4.718966e+00 4.733523e+00 4.750741e+00 4.764812e+00 4.780049e+00 4.792897e+00 4.806172e+00 4.817093e+00 4.828646e+00 4.837048e+00 4.847297e+00 4.852766e+00 4.862230e+00 4.864572e+00 4.873774e+00 4.873019e+00 4.882389e+00 4.878763e+00 4.888568e+00 4.882443e+00 4.892756e+00 4.884578e+00 4.895289e+00 4.885510e+00 4.896368e+00 4.885383e+00 4.896045e+00 4.884156e+00 4.894242e+00 4.881640e+00 4.890775e+00 4.877548e+00 4.885395e+00 4.871555e+00 4.877845e+00 4.863359e+00 4.867914e+00 4.852744e+00 4.855478e+00 4.839606e+00 4.840534e+00 4.823983e+00 4.823204e+00 4.806042e+00 4.803732e+00 4.786072e+00 4.782456e+00 4.764445e+00 4.759785e+00 4.741593e+00 4.736164e+00 4.717974e+00 4.712049e+00 4.694037e+00 4.687875e+00 4.670209e+00 4.664042e+00 4.646868e+00 4.640899e+00 4.624341e+00 4.618736e+00 4.602890e+00 4.597784e+00 4.582722e+00 4.578214e+00 4.563982e+00 4.560142e+00 4.546763e+00 4.543634e+00 4.531110e+00 4.528711e+00 4.517027e+00 4.515354e+00 4.504479e+00 4.503512e+00 4.493402e+00 4.493106e+00 4.483708e+00 4.484039e+00 4.475293e+00 4.476200e+00 4.468043e+00 4.469469e+00 4.461838e+00 4.463726e+00 4.456558e+00 4.458854e+00 4.452090e+00 4.454740e+00 4.448325e+00 4.451281e+00 4.445165e+00 4.448383e+00 4.442522e+00 4.445963e+00 4.440317e+00 4.443947e+00 4.438483e+00 4.442271e+00 4.436959e+00 4.440880e+00 4.435696e+00 4.439728e+00 4.434650e+00 4.438775e+00 4.433786e+00 4.437987e+00 4.433071e+00 4.437337e+00 4.432481e+00 4.436800e+00 4.431995e+00 4.436357e+00 4.431594e+00 4.435992e+00 4.431263e+00 4.435692e+00 4.430991e+00 4.435444e+00 4.430767e+00 4.435240e+00 4.430582e+00 4.435072e+00 4.430430e+00 4.434934e+00 4.430305e+00 4.434821e+00 4.430202e+00 4.434727e+00 4.430118e+00 4.434650e+00 4.430048e+00 4.434587e+00 4.429991e+00 4.434535e+00 4.429943e+00 4.434492e+00 4.429905e+00 4.434457e+00 4.429873e+00 4.434428e+00 4.429847e+00 4.434404e+00 4.429825e+00 4.434384e+00 4.429807e+00 4.434368e+00 4.429793e+00 4.434355e+00 4.429781e+00 4.434344e+00 4.429771e+00 4.434335e+00 4.429763e+00 4.434328e+00 4.429756e+00 4.434322e+00 4.429751e+00 4.434317e+00 4.429746e+00 4.434313e+00 4.429742e+00 4.434309e+00 4.429739e+00 4.434307e+00 4.429737e+00 4.434304e+00 4.429735e+00 4.434302e+00 4.429733e+00 4.434301e+00 4.429732e+00 4.434300e+00 4.429731e+00 4.434299e+00 4.429730e+00 4.434298e+00 4.429729e+00 4.434297e+00 4.429728e+00 4.434296e+00 4.429728e+00 4.434296e+00 4.429727e+00 4.434296e+00 4.429727e+00 4.434295e+00 4.429727e+00 4.434295e+00 4.429726e+00 4.434295e+00 4.429726e+00 4.434295e+00 4.429726e+00 4.434294e+00 4.429726e+00 4.434294e+00 4.429726e+00 4.434294e+00 4.429726e+00 4.434294e+00 4.429726e+00 4.434294e+00 4.429726e+00 4.434294e+00 4.429726e+00 4.434294e+00 4.429725e+00 4.434294e+00 4.429725e+00 4.434294e+00 4.429725e+00 4.434294e+00 4.429725e+00 4.434294e+00 4.429725e+00 4.434294e+00 4.429725e+00 4.434294e+00 4.429725e+00 4.434294e+00 4.429725e+00 4.434294e+00 4.429725e+00 4.434294e+00 4.429725e+00 4.434294e+00 4.429725e+00 4.434294e+00 4.429725e+00 4.434294e+00 4.429725e+00 4.434294e+00 4.429725e+00 4.434294e+00 4.429725e+00 4.434294e+00 4.429725e+00 4.434294e+00 4.429725e+00 4.434294e+00 4.429725e+00 4.434294e+00 4.429725e+00 4.434294e+00 4.429725e+00 4.434294e+00 4.429725e+00 4.434294e+00 4.429725e+00 4.434294e+00 4.429725e+00 4.434294e+00 4.429725e+00 4.434294e+00 4.429725e+00 4.434294e+00 4.429725e+00 4.434294e+00 4.429725e+00 4.434293e+00 4.429725e+00 4.434293e+00 4.429725e+00 4.434293e+00 4.429725e+00 4.434293e+00 4.429724e+00 4.434293e+00 4.429724e+00 4.434293e+00 4.429724e+00 4.434293e+00 4.429724e+00 4.434293e+00 4.429724e+00 4.434293e+00 4.429723e+00 4.434292e+00 4.429723e+00 4.434292e+00 4.429722e+00 4.434292e+00 4.429722e+00 4.434291e+00 4.429721e+00 4.434291e+00 4.429720e+00 4.434290e+00 4.429719e+00 4.434289e+00 4.429717e+00 4.434288e+00 4.429716e+00 4.434287e+00 4.429714e+00 4.434286e+00 4.429711e+00 4.434285e+00 4.429709e+00 4.434283e+00 4.429705e+00 4.434280e+00 4.429701e+00 4.434278e+00 4.429695e+00 4.434274e+00 4.429689e+00 4.434270e+00 4.429681e+00 4.434265e+00 4.429672e+00 4.434259e+00 4.429660e+00 4.434252e+00 4.429646e+00 4.434243e+00 4.429629e+00 4.434233e+00 4.429608e+00 4.434220e+00 4.429581e+00 4.434203e+00 4.429548e+00 4.434183e+00 4.429507e+00 4.434158e+00 4.429456e+00 4.434127e+00 4.429390e+00 4.434088e+00 4.429305e+00 4.434039e+00 4.429196e+00 4.433976e+00 4.429053e+00 4.433896e+00 4.428866e+00 4.433798e+00 4.428626e+00 4.433692e+00 4.428346e+00 4.433630e+00 4.428145e+00 4.433801e+00 4.428568e+00 4.434530e+00 4.431726e+00 
4.447408e+00 4.442259e+00 4.447429e+00 4.442574e+00 4.433865e+00 4.430779e+00 4.422739e+00 4.421449e+00 4.417384e+00 4.417733e+00 4.417458e+00 4.419027e+00 4.421936e+00 4.424543e+00 4.430216e+00 4.433899e+00 4.442127e+00 4.447054e+00 4.457724e+00 4.464078e+00 4.477041e+00 4.484931e+00 4.499937e+00 4.509407e+00 4.526124e+00 4.537200e+00 4.555236e+00 4.567940e+00 4.586833e+00 4.601147e+00 4.620340e+00 4.636150e+00 4.655005e+00 4.672059e+00 4.689900e+00 4.707781e+00 4.723977e+00 4.742103e+00 4.756164e+00 4.773818e+00 4.785486e+00 4.801877e+00 4.811180e+00 4.825533e+00 4.832784e+00 4.844430e+00 4.850171e+00 4.858628e+00 4.863528e+00 4.868556e+00 4.873281e+00 4.874897e+00 4.879992e+00 4.878450e+00 4.884251e+00 4.879985e+00 4.886595e+00 4.880140e+00 4.887447e+00 4.879352e+00 4.887083e+00 4.877834e+00 4.885617e+00 4.875587e+00 4.883003e+00 4.872424e+00 4.879055e+00 4.868026e+00 4.873488e+00 4.862003e+00 4.865978e+00 4.853972e+00 4.856232e+00 4.843626e+00 4.844047e+00 4.830787e+00 4.829354e+00 4.815433e+00 4.812231e+00 4.797699e+00 4.792897e+00 4.777857e+00 4.771687e+00 4.756286e+00 4.749019e+00 4.733431e+00 4.725355e+00 4.709769e+00 4.701171e+00 4.685770e+00 4.676919e+00 4.661877e+00 4.653016e+00 4.638482e+00 4.629818e+00 4.615918e+00 4.607625e+00 4.594456e+00 4.586667e+00 4.574301e+00 4.567119e+00 4.555599e+00 4.549094e+00 4.538442e+00 4.532656e+00 4.522872e+00 4.517822e+00 4.508889e+00 4.504571e+00 4.496455e+00 4.492846e+00 4.485502e+00 4.482567e+00 4.475938e+00 4.473630e+00 4.467655e+00 4.465920e+00 4.460534e+00 4.459316e+00 4.454453e+00 4.453693e+00 4.449290e+00 4.448933e+00 4.444929e+00 4.444921e+00 4.441262e+00 4.441555e+00 4.438189e+00 4.438739e+00 4.435623e+00 4.436390e+00 4.433486e+00 4.434436e+00 4.431709e+00 4.432813e+00 4.430235e+00 4.431469e+00 4.429014e+00 4.430355e+00 4.428004e+00 4.429435e+00 4.427169e+00 4.428675e+00 4.426480e+00 4.428047e+00 4.425912e+00 4.427529e+00 4.425443e+00 4.427103e+00 4.425056e+00 4.426751e+00 4.424738e+00 4.426462e+00 4.424476e+00 4.426223e+00 4.424260e+00 4.426027e+00 4.424082e+00 4.425865e+00 4.423936e+00 4.425732e+00 4.423815e+00 4.425623e+00 4.423716e+00 4.425533e+00 4.423635e+00 4.425459e+00 4.423568e+00 4.425398e+00 4.423513e+00 4.425348e+00 4.423467e+00 4.425307e+00 4.423430e+00 4.425273e+00 4.423400e+00 4.425245e+00 4.423374e+00 4.425222e+00 4.423354e+00 4.425203e+00 4.423337e+00 4.425188e+00 4.423323e+00 4.425175e+00 4.423311e+00 4.425164e+00 4.423302e+00 4.425156e+00 4.423294e+00 4.425149e+00 4.423287e+00 4.425143e+00 4.423282e+00 4.425138e+00 4.423278e+00 4.425134e+00 4.423274e+00 4.425131e+00 4.423271e+00 4.425128e+00 4.423269e+00 4.425126e+00 4.423267e+00 4.425124e+00 4.423265e+00 4.425123e+00 4.423264e+00 4.425122e+00 4.423263e+00 4.425121e+00 4.423262e+00 4.425120e+00 4.423261e+00 4.425119e+00 4.423260e+00 4.425118e+00 4.423260e+00 4.425118e+00 4.423260e+00 4.425118e+00 4.423259e+00 4.425117e+00 4.423259e+00 4.425117e+00 4.423259e+00 4.425117e+00 4.423259e+00 4.425117e+00 4.423258e+00 4.425117e+00 4.423258e+00 4.425116e+00 4.423258e+00 4.425116e+00 4.423258e+00 4.425116e+00 4.423258e+00 4.425116e+00 4.423258e+00 4.425116e+00 4.423258e+00 4.425116e+00 4.423258e+00 4.425116e+00 4.423258e+00 4.425116e+00 4.423258e+00 4.425116e+00 4.423258e+00 4.425116e+00 4.423258e+00 4.425116e+00 4.423258e+00 4.425116e+00 4.423258e+00 4.425116e+00 4.423258e+00 4.425116e+00 4.423258e+00 4.425116e+00 4.423257e+00 4.425116e+00 4.423257e+00 4.425116e+00 4.423257e+00 4.425116e+00 4.423257e+00 4.425115e+00 4.423257e+00 4.425115e+00 4.423257e+00 4.425115e+00 4.423257e+00 4.425115e+00 4.423257e+00 4.425115e+00 4.423257e+00 4.425115e+00 4.423257e+00 4.425115e+00 4.423256e+00 4.425114e+00 4.423256e+00 4.425114e+00 4.423256e+00 4.425113e+00 4.423255e+00 4.425113e+00 4.423255e+00 4.425112e+00 4.423254e+00 4.425111e+00 4.423253e+00 4.425110e+00 4.423252e+00 4.425109e+00 4.423251e+00 4.425108e+00 4.423250e+00 4.425106e+00 4.423248e+00 4.425104e+00 4.423246e+00 4.425101e+00 4.423243e+00 4.425098e+00 4.423240e+00 4.425094e+00 4.423236e+00 4.425089e+00 4.423231e+00 4.425084e+00 4.423226e+00 4.425077e+00 4.423219e+00 4.425068e+00 4.423210e+00 4.425058e+00 4.423200e+00 4.425045e+00 4.423188e+00 4.425030e+00 4.423172e+00 4.425011e+00 4.423154e+00 4.424989e+00 4.423132e+00 4.424961e+00 4.423104e+00 4.424928e+00 4.423071e+00 4.424887e+00 4.423030e+00 4.424837e+00 4.422981e+00 4.424776e+00 4.422921e+00 4.424702e+00 4.422847e+00 4.424612e+00 4.422757e+00 4.424502e+00 4.422648e+00 4.424367e+00 4.422513e+00 4.424202e+00 4.422349e+00 4.424000e+00 4.422146e+00 4.423752e+00 4.421898e+00 4.423447e+00 4.421591e+00 4.423070e+00 4.421212e+00 4.422605e+00 4.420741e+00 4.422028e+00 4.420154e+00 4.421308e+00 4.419418e+00 4.420406e+00 4.418491e+00 4.419270e+00 4.417315e+00 4.417829e+00 4.415812e+00 4.415991e+00 4.413883e+00 4.413632e+00 4.411404e+00 4.410604e+00 4.408258e+00 4.406769e+00 4.404461e+00 4.402160e+00 4.400607e+00 4.397523e+00 4.399199e+00 4.395934e+00 4.407871e+00 4.406529e+00 4.441855e+00 