# vtk DataFile Version 2.0
Comment goes here
ASCII

DATASET STRUCTURED_POINTS
FIELD FieldData 1
TIME 1 1 double
2.22500000
DIMENSIONS    384   64   1

ORIGIN    0.000   0.000   0.000
SPACING   0.078125 0.078125   1.000

POINT_DATA   24576
SCALARS uMag double
LOOKUP_TABLE default

4.606648e+00 4.654040e+00 4.606572e+00 4.656021e+00 4.704336e+00 4.754727e+00 4.783747e+00 4.809743e+00 4.824816e+00 4.839656e+00 4.849713e+00 4.859951e+00 4.868553e+00 4.877253e+00 4.886264e+00 4.895054e+00 4.905333e+00 4.914942e+00 4.926814e+00 4.937578e+00 4.951180e+00 4.963301e+00 4.978721e+00 4.992345e+00 5.009632e+00 5.024850e+00 5.043984e+00 5.060799e+00 5.081664e+00 5.099975e+00 5.122339e+00 5.141935e+00 5.165453e+00 5.186015e+00 5.210242e+00 5.231355e+00 5.255760e+00 5.276933e+00 5.300927e+00 5.321615e+00 5.344582e+00 5.364227e+00 5.385572e+00 5.403651e+00 5.422848e+00 5.438920e+00 5.455558e+00 5.469306e+00 5.483124e+00 5.494373e+00 5.505271e+00 5.513995e+00 5.522044e+00 5.528357e+00 5.533781e+00 5.537925e+00 5.541083e+00 5.543399e+00 5.544745e+00 5.545635e+00 5.545673e+00 5.545564e+00 5.544796e+00 5.544095e+00 5.542973e+00 5.542030e+00 5.540922e+00 5.540001e+00 5.539158e+00 5.538412e+00 5.537955e+00 5.537418e+00 5.537331e+00 5.536918e+00 5.537066e+00 5.536593e+00 5.536748e+00 5.535965e+00 5.535849e+00 5.534485e+00 5.533819e+00 5.531629e+00 5.530178e+00 5.526982e+00 5.524592e+00 5.520298e+00 5.516910e+00 5.511523e+00 5.507171e+00 5.500781e+00 5.495573e+00 5.488332e+00 5.482429e+00 5.474523e+00 5.468108e+00 5.459735e+00 5.452995e+00 5.444343e+00 5.437446e+00 5.428675e+00 5.421758e+00 5.412992e+00 5.406148e+00 5.397462e+00 5.390738e+00 5.382159e+00 5.375554e+00 5.367063e+00 5.360535e+00 5.352075e+00 5.345552e+00 5.337043e+00 5.330436e+00 5.321787e+00 5.315003e+00 5.306127e+00 5.299083e+00 5.289907e+00 5.282538e+00 5.273008e+00 5.265274e+00 5.255367e+00 5.247255e+00 5.236970e+00 5.228496e+00 5.217862e+00 5.209064e+00 5.198132e+00 5.189070e+00 5.177911e+00 5.168663e+00 5.157359e+00 5.148016e+00 5.136662e+00 5.127318e+00 5.116013e+00 5.106769e+00 5.095612e+00 5.086565e+00 5.075652e+00 5.066896e+00 5.056315e+00 5.047933e+00 5.037765e+00 5.029831e+00 5.020142e+00 5.012717e+00 5.003561e+00 4.996690e+00 4.988108e+00 4.981825e+00 4.973840e+00 4.968164e+00 4.960790e+00 4.955726e+00 4.948961e+00 4.944502e+00 4.938335e+00 4.934463e+00 4.928871e+00 4.925560e+00 4.920512e+00 4.917728e+00 4.913188e+00 4.910893e+00 4.906820e+00 4.904970e+00 4.901321e+00 4.899872e+00 4.896603e+00 4.895512e+00 4.892579e+00 4.891805e+00 4.889166e+00 4.888667e+00 4.886285e+00 4.886024e+00 4.883862e+00 4.883805e+00 4.881833e+00 4.881950e+00 4.880138e+00 4.880403e+00 4.878726e+00 4.879115e+00 4.877553e+00 4.878046e+00 4.876579e+00 4.877160e+00 4.875773e+00 4.876427e+00 4.875106e+00 4.875821e+00 4.874555e+00 4.875320e+00 4.874100e+00 4.874906e+00 4.873724e+00 4.874565e+00 4.873415e+00 4.874284e+00 4.873160e+00 4.874053e+00 4.872950e+00 4.873862e+00 4.872776e+00 4.873705e+00 4.872634e+00 4.873576e+00 4.872517e+00 4.873469e+00 4.872420e+00 4.873382e+00 4.872341e+00 4.873310e+00 4.872275e+00 4.873250e+00 4.872222e+00 4.873202e+00 4.872177e+00 4.873162e+00 4.872141e+00 4.873129e+00 4.872111e+00 4.873101e+00 4.872086e+00 4.873079e+00 4.872066e+00 4.873061e+00 4.872049e+00 4.873046e+00 4.872036e+00 4.873033e+00 4.872025e+00 4.873023e+00 4.872015e+00 4.873015e+00 4.872008e+00 4.873008e+00 4.872001e+00 4.873002e+00 4.871996e+00 4.872997e+00 4.871992e+00 4.872994e+00 4.871989e+00 4.872990e+00 4.871986e+00 4.872988e+00 4.871983e+00 4.872986e+00 4.871981e+00 4.872984e+00 4.871980e+00 4.872983e+00 4.871978e+00 4.872981e+00 4.871977e+00 4.872980e+00 4.871976e+00 4.872980e+00 4.871976e+00 4.872979e+00 4.871975e+00 4.872978e+00 4.871975e+00 4.872978e+00 4.871974e+00 4.872977e+00 4.871974e+00 4.872977e+00 4.871973e+00 4.872977e+00 4.871973e+00 4.872976e+00 4.871973e+00 4.872976e+00 4.871973e+00 4.872976e+00 4.871973e+00 4.872976e+00 4.871972e+00 4.872976e+00 4.871972e+00 4.872975e+00 4.871972e+00 4.872975e+00 4.871972e+00 4.872975e+00 4.871971e+00 4.872974e+00 4.871971e+00 4.872974e+00 4.871971e+00 4.872974e+00 4.871970e+00 4.872973e+00 4.871970e+00 4.872972e+00 4.871969e+00 4.872971e+00 4.871968e+00 4.872970e+00 4.871967e+00 4.872969e+00 4.871966e+00 4.872968e+00 4.871964e+00 4.872966e+00 4.871963e+00 4.872964e+00 4.871961e+00 4.872961e+00 4.871958e+00 4.872958e+00 4.871955e+00 4.872954e+00 4.871951e+00 4.872950e+00 4.871947e+00 4.872944e+00 4.871941e+00 4.872937e+00 4.871934e+00 4.872929e+00 4.871926e+00 4.872919e+00 4.871916e+00 4.872906e+00 4.871903e+00 4.872891e+00 4.871888e+00 4.872873e+00 4.871870e+00 4.872850e+00 4.871847e+00 4.872823e+00 4.871820e+00 4.872789e+00 4.871786e+00 4.872748e+00 4.871745e+00 4.872698e+00 4.871695e+00 4.872637e+00 4.871633e+00 4.872561e+00 4.871558e+00 4.872469e+00 4.871465e+00 4.872355e+00 4.871349e+00 4.872214e+00 4.871207e+00 4.872039e+00 4.871029e+00 4.871822e+00 4.870806e+00 4.871550e+00 4.870525e+00 4.871207e+00 4.870168e+00 4.870772e+00 4.869709e+00 4.870212e+00 4.869111e+00 4.869483e+00 4.868316e+00 4.868515e+00 4.867232e+00 4.867198e+00 4.865703e+00 4.865343e+00 4.863432e+00 4.862595e+00 4.859783e+00 4.858197e+00 4.853151e+00 4.850252e+00 4.838651e+00 4.833052e+00 4.798625e+00 4.786218e+00 4.660804e+00 
4.874946e+00 4.871240e+00 4.874971e+00 4.871039e+00 4.862296e+00 4.858528e+00 4.859562e+00 4.860201e+00 4.866357e+00 4.869289e+00 4.877536e+00 4.881229e+00 4.890492e+00 4.894956e+00 4.905511e+00 4.911222e+00 4.923403e+00 4.930625e+00 4.944568e+00 4.953405e+00 4.969152e+00 4.979655e+00 4.997218e+00 5.009420e+00 5.028776e+00 5.042672e+00 5.063724e+00 5.079237e+00 5.101787e+00 5.118743e+00 5.142478e+00 5.160594e+00 5.185090e+00 5.203983e+00 5.228725e+00 5.247926e+00 5.272339e+00 5.291314e+00 5.314802e+00 5.332987e+00 5.354972e+00 5.371815e+00 5.391784e+00 5.406795e+00 5.424346e+00 5.437150e+00 5.452023e+00 5.462392e+00 5.474491e+00 5.482362e+00 5.491753e+00 5.497223e+00 5.504122e+00 5.507427e+00 5.512180e+00 5.513669e+00 5.516720e+00 5.516821e+00 5.518671e+00 5.517851e+00 5.519021e+00 5.517742e+00 5.518725e+00 5.517408e+00 5.518631e+00 5.517616e+00 5.519398e+00 5.518914e+00 5.521439e+00 5.521577e+00 5.524875e+00 5.525578e+00 5.529525e+00 5.530593e+00 5.534923e+00 5.536038e+00 5.540383e+00 5.541155e+00 5.545094e+00 5.545109e+00 5.548230e+00 5.547114e+00 5.549064e+00 5.546530e+00 5.547065e+00 5.542943e+00 5.541945e+00 5.536195e+00 5.533670e+00 5.526370e+00 5.522435e+00 5.513755e+00 5.508606e+00 5.498783e+00 5.492670e+00 5.481979e+00 5.475178e+00 5.463905e+00 5.456693e+00 5.445116e+00 5.437751e+00 5.426113e+00 5.418813e+00 5.407308e+00 5.400230e+00 5.388987e+00 5.382220e+00 5.371297e+00 5.364862e+00 5.354247e+00 5.348102e+00 5.337728e+00 5.331783e+00 5.321544e+00 5.315678e+00 5.305448e+00 5.299532e+00 5.289184e+00 5.283097e+00 5.272524e+00 5.266169e+00 5.255289e+00 5.248604e+00 5.237373e+00 5.230331e+00 5.218743e+00 5.211357e+00 5.199442e+00 5.191757e+00 5.179574e+00 5.171661e+00 5.159292e+00 5.151242e+00 5.138786e+00 5.130701e+00 5.118263e+00 5.110251e+00 5.097937e+00 5.090102e+00 5.078017e+00 5.070460e+00 5.058697e+00 5.051507e+00 5.040151e+00 5.033404e+00 5.022526e+00 5.016287e+00 5.005941e+00 5.000258e+00 4.990485e+00 4.985391e+00 4.976219e+00 4.971733e+00 4.963173e+00 4.959300e+00 4.951351e+00 4.948084e+00 4.940733e+00 4.938055e+00 4.931280e+00 4.929164e+00 4.922934e+00 4.921344e+00 4.915623e+00 4.914522e+00 4.909267e+00 4.908611e+00 4.903780e+00 4.903526e+00 4.899074e+00 4.899177e+00 4.895061e+00 4.895480e+00 4.891658e+00 4.892352e+00 4.888786e+00 4.889717e+00 4.886371e+00 4.887507e+00 4.884349e+00 4.885658e+00 4.882660e+00 4.884116e+00 4.881254e+00 4.882834e+00 4.880085e+00 4.881769e+00 4.879115e+00 4.880887e+00 4.878312e+00 4.880156e+00 4.877648e+00 4.879552e+00 4.877099e+00 4.879054e+00 4.876646e+00 4.878642e+00 4.876272e+00 4.878303e+00 4.875964e+00 4.878023e+00 4.875710e+00 4.877792e+00 4.875501e+00 4.877602e+00 4.875329e+00 4.877446e+00 4.875187e+00 4.877317e+00 4.875070e+00 4.877211e+00 4.874974e+00 4.877124e+00 4.874895e+00 4.877052e+00 4.874830e+00 4.876993e+00 4.874776e+00 4.876945e+00 4.874732e+00 4.876905e+00 4.874696e+00 4.876872e+00 4.874666e+00 4.876845e+00 4.874642e+00 4.876823e+00 4.874621e+00 4.876805e+00 4.874605e+00 4.876790e+00 4.874591e+00 4.876777e+00 4.874580e+00 4.876767e+00 4.874571e+00 4.876759e+00 4.874563e+00 4.876752e+00 4.874557e+00 4.876746e+00 4.874552e+00 4.876742e+00 4.874548e+00 4.876738e+00 4.874544e+00 4.876735e+00 4.874541e+00 4.876732e+00 4.874539e+00 4.876730e+00 4.874537e+00 4.876728e+00 4.874535e+00 4.876727e+00 4.874534e+00 4.876725e+00 4.874533e+00 4.876725e+00 4.874532e+00 4.876724e+00 4.874531e+00 4.876723e+00 4.874531e+00 4.876723e+00 4.874530e+00 4.876722e+00 4.874530e+00 4.876722e+00 4.874530e+00 4.876721e+00 4.874529e+00 4.876721e+00 4.874529e+00 4.876721e+00 4.874529e+00 4.876721e+00 4.874529e+00 4.876721e+00 4.874529e+00 4.876721e+00 4.874529e+00 4.876720e+00 4.874528e+00 4.876720e+00 4.874528e+00 4.876720e+00 4.874528e+00 4.876720e+00 4.874528e+00 4.876720e+00 4.874528e+00 4.876720e+00 4.874528e+00 4.876720e+00 4.874528e+00 4.876720e+00 4.874528e+00 4.876720e+00 4.874528e+00 4.876720e+00 4.874528e+00 4.876720e+00 4.874528e+00 4.876720e+00 4.874528e+00 4.876720e+00 4.874528e+00 4.876720e+00 4.874528e+00 4.876720e+00 4.874527e+00 4.876720e+00 4.874527e+00 4.876720e+00 4.874527e+00 4.876720e+00 4.874527e+00 4.876719e+00 4.874527e+00 4.876719e+00 4.874526e+00 4.876719e+00 4.874526e+00 4.876719e+00 4.874525e+00 4.876719e+00 4.874525e+00 4.876718e+00 4.874524e+00 4.876718e+00 4.874523e+00 4.876717e+00 4.874522e+00 4.876717e+00 4.874521e+00 4.876716e+00 4.874519e+00 4.876715e+00 4.874517e+00 4.876714e+00 4.874514e+00 4.876713e+00 4.874512e+00 4.876712e+00 4.874508e+00 4.876710e+00 4.874503e+00 4.876708e+00 4.874498e+00 4.876705e+00 4.874491e+00 4.876702e+00 4.874483e+00 4.876698e+00 4.874473e+00 4.876693e+00 4.874460e+00 4.876687e+00 4.874444e+00 4.876679e+00 4.874424e+00 4.876670e+00 4.874399e+00 4.876658e+00 4.874366e+00 4.876644e+00 4.874324e+00 4.876626e+00 4.874268e+00 4.876603e+00 4.874193e+00 4.876575e+00 4.874087e+00 4.876540e+00 4.873932e+00 4.876500e+00 4.873686e+00 4.876467e+00 4.873255e+00 4.876511e+00 4.872411e+00 4.877190e+00 4.871188e+00 
4.882416e+00 4.879882e+00 4.882453e+00 4.879071e+00 4.858984e+00 4.854770e+00 4.849043e+00 4.852984e+00 4.855761e+00 4.862912e+00 4.869117e+00 4.876933e+00 4.884718e+00 4.892886e+00 4.902164e+00 4.911134e+00 4.922150e+00 4.932298e+00 4.945193e+00 4.956725e+00 4.971541e+00 4.984562e+00 5.001286e+00 5.015848e+00 5.034418e+00 5.050510e+00 5.070787e+00 5.088313e+00 5.110049e+00 5.128804e+00 5.151624e+00 5.171289e+00 5.194698e+00 5.214842e+00 5.238249e+00 5.258356e+00 5.281111e+00 5.300611e+00 5.322056e+00 5.340367e+00 5.359890e+00 5.376471e+00 5.393565e+00 5.407969e+00 5.422277e+00 5.434203e+00 5.445558e+00 5.454884e+00 5.463316e+00 5.470107e+00 5.475834e+00 5.480323e+00 5.483721e+00 5.486280e+00 5.487842e+00 5.488941e+00 5.489232e+00 5.489392e+00 5.489005e+00 5.488761e+00 5.488274e+00 5.488132e+00 5.488067e+00 5.488464e+00 5.489247e+00 5.490517e+00 5.492442e+00 5.494780e+00 5.497977e+00 5.501410e+00 5.505827e+00 5.510205e+00 5.515603e+00 5.520605e+00 5.526585e+00 5.531756e+00 5.537800e+00 5.542595e+00 5.548130e+00 5.551989e+00 5.556455e+00 5.558867e+00 5.561787e+00 5.562352e+00 5.563383e+00 5.561851e+00 5.560810e+00 5.557096e+00 5.553961e+00 5.548129e+00 5.543023e+00 5.535267e+00 5.528422e+00 5.519031e+00 5.510765e+00 5.500092e+00 5.490771e+00 5.479205e+00 5.469219e+00 5.457157e+00 5.446888e+00 5.434700e+00 5.424489e+00 5.412489e+00 5.402609e+00 5.391030e+00 5.381664e+00 5.370640e+00 5.361870e+00 5.351438e+00 5.343249e+00 5.333352e+00 5.325652e+00 5.316167e+00 5.308804e+00 5.299565e+00 5.292363e+00 5.283190e+00 5.275971e+00 5.266697e+00 5.259307e+00 5.249798e+00 5.242125e+00 5.232291e+00 5.224270e+00 5.214074e+00 5.205691e+00 5.195141e+00 5.186427e+00 5.175573e+00 5.166595e+00 5.155519e+00 5.146369e+00 5.135173e+00 5.125959e+00 5.114756e+00 5.105592e+00 5.094496e+00 5.085496e+00 5.074616e+00 5.065885e+00 5.055323e+00 5.046955e+00 5.036798e+00 5.028874e+00 5.019195e+00 5.011780e+00 5.002636e+00 4.995779e+00 4.987211e+00 4.980946e+00 4.972981e+00 4.967326e+00 4.959976e+00 4.954937e+00 4.948199e+00 4.943767e+00 4.937629e+00 4.933787e+00 4.928224e+00 4.924944e+00 4.919926e+00 4.917173e+00 4.912663e+00 4.910397e+00 4.906353e+00 4.904531e+00 4.900909e+00 4.899487e+00 4.896243e+00 4.895177e+00 4.892267e+00 4.891514e+00 4.888897e+00 4.888418e+00 4.886054e+00 4.885811e+00 4.883666e+00 4.883624e+00 4.881666e+00 4.881797e+00 4.879997e+00 4.880274e+00 4.878608e+00 4.879007e+00 4.877454e+00 4.877956e+00 4.876497e+00 4.877085e+00 4.875704e+00 4.876364e+00 4.875049e+00 4.875769e+00 4.874507e+00 4.875277e+00 4.874061e+00 4.874871e+00 4.873692e+00 4.874536e+00 4.873388e+00 4.874260e+00 4.873138e+00 4.874033e+00 4.872931e+00 4.873846e+00 4.872761e+00 4.873691e+00 4.872621e+00 4.873564e+00 4.872506e+00 4.873460e+00 4.872412e+00 4.873374e+00 4.872334e+00 4.873303e+00 4.872270e+00 4.873245e+00 4.872217e+00 4.873197e+00 4.872173e+00 4.873158e+00 4.872138e+00 4.873126e+00 4.872108e+00 4.873099e+00 4.872084e+00 4.873077e+00 4.872064e+00 4.873059e+00 4.872048e+00 4.873044e+00 4.872035e+00 4.873032e+00 4.872024e+00 4.873022e+00 4.872014e+00 4.873014e+00 4.872007e+00 4.873007e+00 4.872001e+00 4.873002e+00 4.871996e+00 4.872997e+00 4.871992e+00 4.872993e+00 4.871988e+00 4.872990e+00 4.871985e+00 4.872988e+00 4.871983e+00 4.872986e+00 4.871981e+00 4.872984e+00 4.871980e+00 4.872982e+00 4.871978e+00 4.872981e+00 4.871977e+00 4.872980e+00 4.871976e+00 4.872979e+00 4.871976e+00 4.872979e+00 4.871975e+00 4.872978e+00 4.871975e+00 4.872978e+00 4.871974e+00 4.872977e+00 4.871974e+00 4.872977e+00 4.871973e+00 4.872977e+00 4.871973e+00 4.872976e+00 4.871973e+00 4.872976e+00 4.871973e+00 4.872976e+00 4.871973e+00 4.872976e+00 4.871972e+00 4.872976e+00 4.871972e+00 4.872975e+00 4.871972e+00 4.872975e+00 4.871972e+00 4.872975e+00 4.871971e+00 4.872974e+00 4.871971e+00 4.872974e+00 4.871971e+00 4.872974e+00 4.871970e+00 4.872973e+00 4.871970e+00 4.872972e+00 4.871969e+00 4.872972e+00 4.871968e+00 4.872971e+00 4.871967e+00 4.872969e+00 4.871966e+00 4.872968e+00 4.871965e+00 4.872966e+00 4.871963e+00 4.872964e+00 4.871961e+00 4.872962e+00 4.871958e+00 4.872959e+00 4.871955e+00 4.872955e+00 4.871952e+00 4.872950e+00 4.871947e+00 4.872945e+00 4.871941e+00 4.872938e+00 4.871935e+00 4.872930e+00 4.871927e+00 4.872920e+00 4.871917e+00 4.872908e+00 4.871904e+00 4.872893e+00 4.871890e+00 4.872875e+00 4.871872e+00 4.872853e+00 4.871850e+00 4.872826e+00 4.871823e+00 4.872793e+00 4.871790e+00 4.872753e+00 4.871750e+00 4.872704e+00 4.871701e+00 4.872644e+00 4.871641e+00 4.872570e+00 4.871567e+00 4.872480e+00 4.871476e+00 4.872369e+00 4.871363e+00 4.872231e+00 4.871224e+00 4.872061e+00 4.871051e+00 4.871850e+00 4.870835e+00 4.871587e+00 4.870563e+00 4.871255e+00 4.870219e+00 4.870835e+00 4.869779e+00 4.870299e+00 4.869209e+00 4.869604e+00 4.868460e+00 4.868692e+00 4.867455e+00 4.867470e+00 4.866075e+00 4.865794e+00 4.864122e+00 4.863426e+00 4.861278e+00 4.859982e+00 4.857095e+00 4.854918e+00 4.851466e+00 4.848053e+00 4.848245e+00 4.843615e+00 4.876989e+00 
4.876255e+00 4.873818e+00 4.876257e+00 4.874603e+00 4.883168e+00 4.881638e+00 4.885398e+00 4.884033e+00 4.889024e+00 4.889929e+00 4.897256e+00 4.900051e+00 4.909194e+00 4.913474e+00 4.924343e+00 4.930209e+00 4.942985e+00 4.950614e+00 4.965418e+00 4.974883e+00 4.991720e+00 5.003011e+00 5.021814e+00 5.034880e+00 5.055520e+00 5.070265e+00 5.092530e+00 5.108780e+00 5.132340e+00 5.149822e+00 5.174213e+00 5.192534e+00 5.217165e+00 5.235825e+00 5.260010e+00 5.278422e+00 5.301440e+00 5.318970e+00 5.340125e+00 5.356147e+00 5.374845e+00 5.388799e+00 5.404600e+00 5.416054e+00 5.428721e+00 5.437427e+00 5.446947e+00 5.452869e+00 5.459446e+00 5.462763e+00 5.466791e+00 5.467871e+00 5.469887e+00 5.469235e+00 5.469865e+00 5.468074e+00 5.467980e+00 5.465675e+00 5.465513e+00 5.463306e+00 5.463686e+00 5.462136e+00 5.463586e+00 5.463159e+00 5.466093e+00 5.467129e+00 5.471805e+00 5.474472e+00 5.480961e+00 5.485230e+00 5.493389e+00 5.499016e+00 5.508490e+00 5.515032e+00 5.525281e+00 5.532135e+00 5.542486e+00 5.548952e+00 5.558673e+00 5.564032e+00 5.572411e+00 5.576008e+00 5.582438e+00 5.583752e+00 5.587788e+00 5.586485e+00 5.587879e+00 5.583821e+00 5.582524e+00 5.575766e+00 5.571905e+00 5.562662e+00 5.556514e+00 5.545128e+00 5.537078e+00 5.523985e+00 5.514495e+00 5.500190e+00 5.489768e+00 5.474771e+00 5.463927e+00 5.448738e+00 5.437946e+00 5.423006e+00 5.412658e+00 5.398306e+00 5.388679e+00 5.375131e+00 5.366370e+00 5.353704e+00 5.345823e+00 5.333994e+00 5.326893e+00 5.315758e+00 5.309254e+00 5.298602e+00 5.292468e+00 5.282064e+00 5.276065e+00 5.265683e+00 5.259608e+00 5.249060e+00 5.242747e+00 5.231901e+00 5.225249e+00 5.214034e+00 5.207004e+00 5.195413e+00 5.188022e+00 5.176097e+00 5.168409e+00 5.156231e+00 5.148342e+00 5.136018e+00 5.128042e+00 5.115690e+00 5.107748e+00 5.095491e+00 5.087703e+00 5.075656e+00 5.068134e+00 5.056404e+00 5.049245e+00 5.037921e+00 5.031210e+00 5.020368e+00 5.014169e+00 5.003866e+00 4.998230e+00 4.988509e+00 4.983468e+00 4.974353e+00 4.969927e+00 4.961429e+00 4.957620e+00 4.949736e+00 4.946537e+00 4.939253e+00 4.936643e+00 4.929936e+00 4.927887e+00 4.921724e+00 4.920201e+00 4.914543e+00 4.913505e+00 4.908311e+00 4.907715e+00 4.902941e+00 4.902742e+00 4.898343e+00 4.898497e+00 4.894429e+00 4.894893e+00 4.891114e+00 4.891849e+00 4.888321e+00 4.889288e+00 4.885976e+00 4.887142e+00 4.884014e+00 4.885350e+00 4.882378e+00 4.883857e+00 4.881017e+00 4.882617e+00 4.879886e+00 4.881588e+00 4.878950e+00 4.880735e+00 4.878174e+00 4.880030e+00 4.877534e+00 4.879448e+00 4.877004e+00 4.878967e+00 4.876567e+00 4.878570e+00 4.876207e+00 4.878243e+00 4.875910e+00 4.877974e+00 4.875666e+00 4.877752e+00 4.875464e+00 4.877569e+00 4.875298e+00 4.877419e+00 4.875162e+00 4.877295e+00 4.875049e+00 4.877193e+00 4.874957e+00 4.877109e+00 4.874881e+00 4.877040e+00 4.874818e+00 4.876983e+00 4.874767e+00 4.876936e+00 4.874724e+00 4.876898e+00 4.874689e+00 4.876866e+00 4.874661e+00 4.876840e+00 4.874637e+00 4.876819e+00 4.874618e+00 4.876801e+00 4.874602e+00 4.876787e+00 4.874589e+00 4.876775e+00 4.874578e+00 4.876765e+00 4.874569e+00 4.876757e+00 4.874562e+00 4.876751e+00 4.874556e+00 4.876745e+00 4.874551e+00 4.876741e+00 4.874547e+00 4.876737e+00 4.874544e+00 4.876734e+00 4.874541e+00 4.876732e+00 4.874539e+00 4.876729e+00 4.874537e+00 4.876728e+00 4.874535e+00 4.876726e+00 4.874534e+00 4.876725e+00 4.874533e+00 4.876724e+00 4.874532e+00 4.876724e+00 4.874531e+00 4.876723e+00 4.874531e+00 4.876722e+00 4.874530e+00 4.876722e+00 4.874530e+00 4.876722e+00 4.874530e+00 4.876721e+00 4.874529e+00 4.876721e+00 4.874529e+00 4.876721e+00 4.874529e+00 4.876721e+00 4.874529e+00 4.876721e+00 4.874529e+00 4.876721e+00 4.874529e+00 4.876720e+00 4.874528e+00 4.876720e+00 4.874528e+00 4.876720e+00 4.874528e+00 4.876720e+00 4.874528e+00 4.876720e+00 4.874528e+00 4.876720e+00 4.874528e+00 4.876720e+00 4.874528e+00 4.876720e+00 4.874528e+00 4.876720e+00 4.874528e+00 4.876720e+00 4.874528e+00 4.876720e+00 4.874528e+00 4.876720e+00 4.874528e+00 4.876720e+00 4.874528e+00 4.876720e+00 4.874528e+00 4.876720e+00 4.874527e+00 4.876720e+00 4.874527e+00 4.876720e+00 4.874527e+00 4.876720e+00 4.874527e+00 4.876719e+00 4.874527e+00 4.876719e+00 4.874526e+00 4.876719e+00 4.874526e+00 4.876719e+00 4.874525e+00 4.876719e+00 4.874525e+00 4.876718e+00 4.874524e+00 4.876718e+00 4.874523e+00 4.876718e+00 4.874522e+00 4.876717e+00 4.874521e+00 4.876716e+00 4.874519e+00 4.876716e+00 4.874517e+00 4.876715e+00 4.874515e+00 4.876714e+00 4.874512e+00 4.876712e+00 4.874509e+00 4.876711e+00 4.874504e+00 4.876709e+00 4.874499e+00 4.876706e+00 4.874493e+00 4.876703e+00 4.874485e+00 4.876699e+00 4.874475e+00 4.876695e+00 4.874463e+00 4.876689e+00 4.874448e+00 4.876682e+00 4.874429e+00 4.876673e+00 4.874406e+00 4.876663e+00 4.874376e+00 4.876650e+00 4.874338e+00 4.876633e+00 4.874289e+00 4.876612e+00 4.874225e+00 4.876587e+00 4.874140e+00 4.876554e+00 4.874030e+00 4.876512e+00 4.873891e+00 4.876455e+00 4.873756e+00 4.876355e+00 4.873806e+00 4.876037e+00 4.874801e+00 
4.882169e+00 4.879587e+00 4.882178e+00 4.879568e+00 4.875607e+00 4.875008e+00 4.873720e+00 4.876257e+00 4.878969e+00 4.884260e+00 4.890196e+00 4.897096e+00 4.905077e+00 4.912932e+00 4.922636e+00 4.931592e+00 4.943215e+00 4.953611e+00 4.967345e+00 4.979381e+00 4.995265e+00 5.008996e+00 5.026960e+00 5.042360e+00 5.062255e+00 5.079228e+00 5.100811e+00 5.119170e+00 5.142069e+00 5.161510e+00 5.185205e+00 5.205290e+00 5.229112e+00 5.249278e+00 5.272445e+00 5.292033e+00 5.313717e+00 5.332028e+00 5.351439e+00 5.367797e+00 5.384271e+00 5.398104e+00 5.411179e+00 5.422084e+00 5.431557e+00 5.439356e+00 5.445304e+00 5.450073e+00 5.452838e+00 5.454896e+00 5.455041e+00 5.454910e+00 5.453153e+00 5.451492e+00 5.448627e+00 5.446164e+00 5.442996e+00 5.440467e+00 5.437758e+00 5.435854e+00 5.434287e+00 5.433623e+00 5.433769e+00 5.434844e+00 5.437132e+00 5.440289e+00 5.444963e+00 5.450347e+00 5.457428e+00 5.464948e+00 5.474209e+00 5.483525e+00 5.494492e+00 5.505033e+00 5.517020e+00 5.528031e+00 5.540203e+00 5.550821e+00 5.562278e+00 5.571620e+00 5.581490e+00 5.588751e+00 5.596285e+00 5.600818e+00 5.605461e+00 5.606840e+00 5.608269e+00 5.606302e+00 5.604435e+00 5.599162e+00 5.594129e+00 5.585786e+00 5.577902e+00 5.566887e+00 5.556607e+00 5.543439e+00 5.531324e+00 5.516609e+00 5.503288e+00 5.487673e+00 5.473791e+00 5.457916e+00 5.444084e+00 5.428521e+00 5.415255e+00 5.400458e+00 5.388133e+00 5.374397e+00 5.363222e+00 5.350670e+00 5.340685e+00 5.329279e+00 5.320374e+00 5.309946e+00 5.301902e+00 5.292196e+00 5.284731e+00 5.275453e+00 5.268272e+00 5.259135e+00 5.251970e+00 5.242734e+00 5.235374e+00 5.225864e+00 5.218172e+00 5.208290e+00 5.200206e+00 5.189926e+00 5.181457e+00 5.170815e+00 5.162022e+00 5.151103e+00 5.142085e+00 5.130998e+00 5.121876e+00 5.110749e+00 5.101652e+00 5.090612e+00 5.081665e+00 5.070836e+00 5.062155e+00 5.051645e+00 5.043333e+00 5.033235e+00 5.025375e+00 5.015765e+00 5.008425e+00 4.999361e+00 4.992590e+00 4.984112e+00 4.977942e+00 4.970075e+00 4.964522e+00 4.957276e+00 4.952343e+00 4.945713e+00 4.941390e+00 4.935361e+00 4.931627e+00 4.926173e+00 4.922999e+00 4.918086e+00 4.915435e+00 4.911026e+00 4.908857e+00 4.904908e+00 4.903177e+00 4.899643e+00 4.898305e+00 4.895142e+00 4.894153e+00 4.891316e+00 4.890632e+00 4.888080e+00 4.887662e+00 4.885357e+00 4.885167e+00 4.883073e+00 4.883079e+00 4.881165e+00 4.881337e+00 4.879575e+00 4.879887e+00 4.878253e+00 4.878683e+00 4.877157e+00 4.877685e+00 4.876249e+00 4.876859e+00 4.875498e+00 4.876176e+00 4.874878e+00 4.875613e+00 4.874365e+00 4.875147e+00 4.873943e+00 4.874764e+00 4.873595e+00 4.874448e+00 4.873308e+00 4.874187e+00 4.873071e+00 4.873972e+00 4.872876e+00 4.873796e+00 4.872716e+00 4.873650e+00 4.872584e+00 4.873531e+00 4.872476e+00 4.873432e+00 4.872386e+00 4.873351e+00 4.872313e+00 4.873285e+00 4.872252e+00 4.873230e+00 4.872203e+00 4.873185e+00 4.872162e+00 4.873148e+00 4.872128e+00 4.873117e+00 4.872101e+00 4.873092e+00 4.872078e+00 4.873071e+00 4.872059e+00 4.873054e+00 4.872044e+00 4.873040e+00 4.872031e+00 4.873029e+00 4.872021e+00 4.873020e+00 4.872012e+00 4.873012e+00 4.872005e+00 4.873005e+00 4.871999e+00 4.873000e+00 4.871994e+00 4.872996e+00 4.871991e+00 4.872992e+00 4.871987e+00 4.872989e+00 4.871985e+00 4.872987e+00 4.871983e+00 4.872985e+00 4.871981e+00 4.872983e+00 4.871979e+00 4.872982e+00 4.871978e+00 4.872981e+00 4.871977e+00 4.872980e+00 4.871976e+00 4.872979e+00 4.871975e+00 4.872979e+00 4.871975e+00 4.872978e+00 4.871974e+00 4.872978e+00 4.871974e+00 4.872977e+00 4.871974e+00 4.872977e+00 4.871973e+00 4.872977e+00 4.871973e+00 4.872976e+00 4.871973e+00 4.872976e+00 4.871973e+00 4.872976e+00 4.871973e+00 4.872976e+00 4.871972e+00 4.872976e+00 4.871972e+00 4.872975e+00 4.871972e+00 4.872975e+00 4.871972e+00 4.872975e+00 4.871971e+00 4.872975e+00 4.871971e+00 4.872974e+00 4.871971e+00 4.872974e+00 4.871970e+00 4.872973e+00 4.871970e+00 4.872973e+00 4.871969e+00 4.872972e+00 4.871968e+00 4.872971e+00 4.871968e+00 4.872970e+00 4.871966e+00 4.872968e+00 4.871965e+00 4.872967e+00 4.871963e+00 4.872965e+00 4.871962e+00 4.872963e+00 4.871959e+00 4.872960e+00 4.871956e+00 4.872956e+00 4.871953e+00 4.872952e+00 4.871948e+00 4.872947e+00 4.871943e+00 4.872940e+00 4.871937e+00 4.872933e+00 4.871929e+00 4.872923e+00 4.871920e+00 4.872912e+00 4.871908e+00 4.872898e+00 4.871895e+00 4.872881e+00 4.871878e+00 4.872860e+00 4.871857e+00 4.872835e+00 4.871832e+00 4.872804e+00 4.871801e+00 4.872766e+00 4.871763e+00 4.872721e+00 4.871718e+00 4.872665e+00 4.871661e+00 4.872596e+00 4.871592e+00 4.872512e+00 4.871508e+00 4.872408e+00 4.871404e+00 4.872281e+00 4.871275e+00 4.872125e+00 4.871117e+00 4.871931e+00 4.870920e+00 4.871691e+00 4.870674e+00 4.871391e+00 4.870367e+00 4.871016e+00 4.869979e+00 4.870543e+00 4.869487e+00 4.869944e+00 4.868860e+00 4.869179e+00 4.868054e+00 4.868198e+00 4.867019e+00 4.866937e+00 4.865704e+00 4.865334e+00 4.864114e+00 4.863389e+00 4.862486e+00 4.861374e+00 4.861849e+00 4.860480e+00 4.865370e+00 4.864424e+00 4.879405e+00 