# vtk DataFile Version 2.0
Comment goes here
ASCII

DATASET STRUCTURED_POINTS
FIELD FieldData 1
TIME 1 1 double
1.12500000
DIMENSIONS    384   64   1

ORIGIN    0.000   0.000   0.000
SPACING   0.078125 0.078125   1.000

POINT_DATA   24576
SCALARS uMag double
LOOKUP_TABLE default

2.958611e+00 3.146077e+00 2.958462e+00 3.157375e+00 3.344864e+00 3.523018e+00 3.620026e+00 3.707335e+00 3.750366e+00 3.794478e+00 3.816738e+00 3.842408e+00 3.857378e+00 3.874758e+00 3.887382e+00 3.900743e+00 3.912958e+00 3.924364e+00 3.937043e+00 3.947629e+00 3.961211e+00 3.971660e+00 3.986380e+00 3.997126e+00 4.013109e+00 4.024426e+00 4.041713e+00 4.053748e+00 4.072298e+00 4.085078e+00 4.104754e+00 4.118176e+00 4.138736e+00 4.152561e+00 4.173654e+00 4.187513e+00 4.208699e+00 4.222118e+00 4.242903e+00 4.255348e+00 4.275240e+00 4.286176e+00 4.304743e+00 4.313692e+00 4.330606e+00 4.337198e+00 4.352257e+00 4.356260e+00 4.369384e+00 4.370707e+00 4.381909e+00 4.380588e+00 4.389936e+00 4.386104e+00 4.393681e+00 4.387529e+00 4.393405e+00 4.385156e+00 4.389378e+00 4.379260e+00 4.381864e+00 4.370105e+00 4.371130e+00 4.357957e+00 4.357471e+00 4.343114e+00 4.341222e+00 4.325919e+00 4.322775e+00 4.306773e+00 4.302573e+00 4.286121e+00 4.281094e+00 4.264438e+00 4.258829e+00 4.242202e+00 4.236258e+00 4.219873e+00 4.213826e+00 4.197866e+00 4.191926e+00 4.176544e+00 4.170889e+00 4.156204e+00 4.150979e+00 4.137077e+00 4.132393e+00 4.119328e+00 4.115264e+00 4.103061e+00 4.099664e+00 4.088326e+00 4.085617e+00 4.075123e+00 4.073099e+00 4.063412e+00 4.062053e+00 4.053123e+00 4.052391e+00 4.044159e+00 4.044011e+00 4.036412e+00 4.036794e+00 4.029762e+00 4.030621e+00 4.024091e+00 4.025371e+00 4.019279e+00 4.020929e+00 4.015217e+00 4.017187e+00 4.011801e+00 4.014047e+00 4.008940e+00 4.011421e+00 4.006550e+00 4.009230e+00 4.004558e+00 4.007407e+00 4.002903e+00 4.005892e+00 4.001529e+00 4.004637e+00 4.000391e+00 4.003598e+00 3.999449e+00 4.002738e+00 3.998671e+00 4.002028e+00 3.998028e+00 4.001442e+00 3.997497e+00 4.000958e+00 3.997060e+00 4.000559e+00 3.996699e+00 4.000231e+00 3.996402e+00 3.999960e+00 3.996157e+00 3.999737e+00 3.995956e+00 3.999554e+00 3.995790e+00 3.999403e+00 3.995653e+00 3.999278e+00 3.995541e+00 3.999176e+00 3.995448e+00 3.999092e+00 3.995372e+00 3.999023e+00 3.995310e+00 3.998966e+00 3.995258e+00 3.998919e+00 3.995216e+00 3.998880e+00 3.995181e+00 3.998849e+00 3.995153e+00 3.998823e+00 3.995129e+00 3.998801e+00 3.995110e+00 3.998784e+00 3.995094e+00 3.998769e+00 3.995081e+00 3.998757e+00 3.995070e+00 3.998747e+00 3.995061e+00 3.998739e+00 3.995054e+00 3.998733e+00 3.995048e+00 3.998727e+00 3.995043e+00 3.998723e+00 3.995039e+00 3.998719e+00 3.995036e+00 3.998716e+00 3.995033e+00 3.998714e+00 3.995031e+00 3.998712e+00 3.995029e+00 3.998710e+00 3.995027e+00 3.998708e+00 3.995026e+00 3.998707e+00 3.995025e+00 3.998706e+00 3.995024e+00 3.998706e+00 3.995023e+00 3.998705e+00 3.995023e+00 3.998704e+00 3.995022e+00 3.998704e+00 3.995022e+00 3.998704e+00 3.995022e+00 3.998703e+00 3.995021e+00 3.998703e+00 3.995021e+00 3.998703e+00 3.995021e+00 3.998703e+00 3.995021e+00 3.998703e+00 3.995021e+00 3.998703e+00 3.995021e+00 3.998702e+00 3.995021e+00 3.998702e+00 3.995020e+00 3.998702e+00 3.995020e+00 3.998702e+00 3.995020e+00 3.998702e+00 3.995020e+00 3.998702e+00 3.995020e+00 3.998702e+00 3.995020e+00 3.998702e+00 3.995020e+00 3.998702e+00 3.995020e+00 3.998702e+00 3.995020e+00 3.998702e+00 3.995020e+00 3.998702e+00 3.995020e+00 3.998702e+00 3.995020e+00 3.998702e+00 3.995020e+00 3.998702e+00 3.995020e+00 3.998702e+00 3.995020e+00 3.998702e+00 3.995020e+00 3.998702e+00 3.995020e+00 3.998702e+00 3.995020e+00 3.998702e+00 3.995020e+00 3.998702e+00 3.995020e+00 3.998702e+00 3.995020e+00 3.998702e+00 3.995020e+00 3.998701e+00 3.995020e+00 3.998701e+00 3.995019e+00 3.998701e+00 3.995019e+00 3.998701e+00 3.995019e+00 3.998701e+00 3.995019e+00 3.998700e+00 3.995018e+00 3.998700e+00 3.995018e+00 3.998699e+00 3.995018e+00 3.998699e+00 3.995017e+00 3.998698e+00 3.995016e+00 3.998697e+00 3.995016e+00 3.998696e+00 3.995015e+00 3.998695e+00 3.995013e+00 3.998694e+00 3.995012e+00 3.998692e+00 3.995010e+00 3.998690e+00 3.995008e+00 3.998687e+00 3.995006e+00 3.998684e+00 3.995002e+00 3.998680e+00 3.994999e+00 3.998675e+00 3.994994e+00 3.998669e+00 3.994988e+00 3.998662e+00 3.994981e+00 3.998654e+00 3.994973e+00 3.998644e+00 3.994963e+00 3.998631e+00 3.994950e+00 3.998616e+00 3.994935e+00 3.998597e+00 3.994917e+00 3.998574e+00 3.994895e+00 3.998547e+00 3.994868e+00 3.998513e+00 3.994835e+00 3.998472e+00 3.994795e+00 3.998422e+00 3.994746e+00 3.998362e+00 3.994686e+00 3.998288e+00 3.994613e+00 3.998198e+00 3.994525e+00 3.998088e+00 3.994417e+00 3.997954e+00 3.994285e+00 3.997790e+00 3.994124e+00 3.997590e+00 3.993926e+00 3.997345e+00 3.993684e+00 3.997044e+00 3.993386e+00 3.996675e+00 3.993020e+00 3.996220e+00 3.992568e+00 3.995658e+00 3.992007e+00 3.994961e+00 3.991309e+00 3.994094e+00 3.990435e+00 3.993007e+00 3.989333e+00 3.991637e+00 3.987933e+00 3.989895e+00 3.986132e+00 3.987652e+00 3.983784e+00 3.984725e+00 3.980663e+00 3.980830e+00 3.976408e+00 3.975508e+00 3.970400e+00 3.967965e+00 3.961463e+00 3.956682e+00 3.947076e+00 3.938330e+00 3.920855e+00 3.904320e+00 3.863443e+00 3.828247e+00 3.705680e+00 3.616771e+00 3.170794e+00 
4.005906e+00 3.991757e+00 4.006024e+00 3.994967e+00 3.943720e+00 3.918790e+00 3.907660e+00 3.899596e+00 3.906613e+00 3.904060e+00 3.916694e+00 3.915399e+00 3.929951e+00 3.929057e+00 3.944628e+00 3.944178e+00 3.960673e+00 3.960892e+00 3.978409e+00 3.979503e+00 3.998155e+00 4.000274e+00 4.020146e+00 4.023388e+00 4.044524e+00 4.048939e+00 4.071326e+00 4.076900e+00 4.100453e+00 4.107095e+00 4.131631e+00 4.139153e+00 4.164387e+00 4.172492e+00 4.198029e+00 4.206313e+00 4.231677e+00 4.239649e+00 4.264327e+00 4.271448e+00 4.294956e+00 4.300694e+00 4.322633e+00 4.326517e+00 4.346624e+00 4.348288e+00 4.366452e+00 4.365661e+00 4.381907e+00 4.378563e+00 4.393010e+00 4.387137e+00 4.399938e+00 4.391650e+00 4.402946e+00 4.392415e+00 4.402294e+00 4.389718e+00 4.398215e+00 4.383801e+00 4.390909e+00 4.374863e+00 4.380568e+00 4.363098e+00 4.367408e+00 4.348732e+00 4.351701e+00 4.332051e+00 4.333789e+00 4.313411e+00 4.314084e+00 4.293229e+00 4.293047e+00 4.271965e+00 4.271162e+00 4.250094e+00 4.248912e+00 4.228076e+00 4.226747e+00 4.206331e+00 4.205069e+00 4.185229e+00 4.184215e+00 4.165073e+00 4.164457e+00 4.146101e+00 4.145998e+00 4.128484e+00 4.128976e+00 4.112329e+00 4.113469e+00 4.097691e+00 4.099501e+00 4.084572e+00 4.087052e+00 4.072934e+00 4.076067e+00 4.062709e+00 4.066460e+00 4.053802e+00 4.058126e+00 4.046104e+00 4.050952e+00 4.039498e+00 4.044815e+00 4.033863e+00 4.039597e+00 4.029084e+00 4.035183e+00 4.025050e+00 4.031465e+00 4.021658e+00 4.028345e+00 4.018817e+00 4.025735e+00 4.016444e+00 4.023559e+00 4.014467e+00 4.021748e+00 4.012824e+00 4.020244e+00 4.011460e+00 4.018997e+00 4.010330e+00 4.017964e+00 4.009395e+00 4.017111e+00 4.008622e+00 4.016405e+00 4.007984e+00 4.015823e+00 4.007457e+00 4.015343e+00 4.007023e+00 4.014947e+00 4.006665e+00 4.014620e+00 4.006370e+00 4.014351e+00 4.006127e+00 4.014130e+00 4.005927e+00 4.013948e+00 4.005762e+00 4.013798e+00 4.005627e+00 4.013674e+00 4.005515e+00 4.013573e+00 4.005424e+00 4.013489e+00 4.005348e+00 4.013420e+00 4.005286e+00 4.013364e+00 4.005235e+00 4.013317e+00 4.005193e+00 4.013279e+00 4.005158e+00 4.013247e+00 4.005130e+00 4.013221e+00 4.005106e+00 4.013200e+00 4.005087e+00 4.013183e+00 4.005071e+00 4.013168e+00 4.005058e+00 4.013156e+00 4.005048e+00 4.013147e+00 4.005039e+00 4.013139e+00 4.005032e+00 4.013132e+00 4.005026e+00 4.013127e+00 4.005021e+00 4.013122e+00 4.005017e+00 4.013119e+00 4.005013e+00 4.013116e+00 4.005011e+00 4.013113e+00 4.005009e+00 4.013111e+00 4.005007e+00 4.013109e+00 4.005005e+00 4.013108e+00 4.005004e+00 4.013107e+00 4.005003e+00 4.013106e+00 4.005002e+00 4.013105e+00 4.005001e+00 4.013105e+00 4.005001e+00 4.013104e+00 4.005000e+00 4.013104e+00 4.005000e+00 4.013103e+00 4.005000e+00 4.013103e+00 4.004999e+00 4.013103e+00 4.004999e+00 4.013103e+00 4.004999e+00 4.013102e+00 4.004999e+00 4.013102e+00 4.004999e+00 4.013102e+00 4.004999e+00 4.013102e+00 4.004999e+00 4.013102e+00 4.004998e+00 4.013102e+00 4.004998e+00 4.013102e+00 4.004998e+00 4.013102e+00 4.004998e+00 4.013102e+00 4.004998e+00 4.013102e+00 4.004998e+00 4.013102e+00 4.004998e+00 4.013102e+00 4.004998e+00 4.013102e+00 4.004998e+00 4.013102e+00 4.004998e+00 4.013102e+00 4.004998e+00 4.013102e+00 4.004998e+00 4.013102e+00 4.004998e+00 4.013102e+00 4.004998e+00 4.013102e+00 4.004998e+00 4.013102e+00 4.004998e+00 4.013102e+00 4.004998e+00 4.013102e+00 4.004998e+00 4.013102e+00 4.004998e+00 4.013102e+00 4.004998e+00 4.013102e+00 4.004998e+00 4.013102e+00 4.004998e+00 4.013102e+00 4.004998e+00 4.013102e+00 4.004998e+00 4.013102e+00 4.004998e+00 4.013102e+00 4.004998e+00 4.013102e+00 4.004998e+00 4.013102e+00 4.004998e+00 4.013102e+00 4.004998e+00 4.013101e+00 4.004998e+00 4.013101e+00 4.004998e+00 4.013101e+00 4.004998e+00 4.013101e+00 4.004998e+00 4.013101e+00 4.004998e+00 4.013101e+00 4.004998e+00 4.013101e+00 4.004997e+00 4.013101e+00 4.004997e+00 4.013101e+00 4.004997e+00 4.013101e+00 4.004997e+00 4.013101e+00 4.004997e+00 4.013100e+00 4.004996e+00 4.013100e+00 4.004996e+00 4.013100e+00 4.004995e+00 4.013099e+00 4.004995e+00 4.013099e+00 4.004994e+00 4.013098e+00 4.004993e+00 4.013098e+00 4.004992e+00 4.013097e+00 4.004991e+00 4.013096e+00 4.004990e+00 4.013095e+00 4.004988e+00 4.013094e+00 4.004986e+00 4.013092e+00 4.004983e+00 4.013090e+00 4.004980e+00 4.013088e+00 4.004976e+00 4.013085e+00 4.004972e+00 4.013081e+00 4.004966e+00 4.013077e+00 4.004959e+00 4.013072e+00 4.004951e+00 4.013066e+00 4.004941e+00 4.013059e+00 4.004930e+00 4.013050e+00 4.004915e+00 4.013039e+00 4.004897e+00 4.013026e+00 4.004876e+00 4.013010e+00 4.004850e+00 4.012990e+00 4.004818e+00 4.012966e+00 4.004779e+00 4.012937e+00 4.004730e+00 4.012901e+00 4.004671e+00 4.012857e+00 4.004596e+00 4.012801e+00 4.004503e+00 4.012731e+00 4.004386e+00 4.012642e+00 4.004235e+00 4.012527e+00 4.004041e+00 4.012375e+00 4.003784e+00 4.012169e+00 4.003435e+00 4.011881e+00 4.002946e+00 4.011455e+00 4.002225e+00 4.010789e+00 4.001098e+00 4.009685e+00 3.999247e+00 4.008099e+00 3.996683e+00 4.011883e+00 4.001437e+00 
4.036162e+00 4.026486e+00 4.036250e+00 4.022667e+00 3.932389e+00 3.909606e+00 3.874442e+00 3.877639e+00 3.870429e+00 3.881647e+00 3.884416e+00 3.896100e+00 3.902632e+00 3.913157e+00 3.921649e+00 3.931164e+00 3.941187e+00 3.950193e+00 3.961688e+00 3.970643e+00 3.983628e+00 3.992885e+00 4.007379e+00 4.017188e+00 4.033178e+00 4.043698e+00 4.061119e+00 4.072418e+00 4.091128e+00 4.103173e+00 4.122932e+00 4.135579e+00 4.156036e+00 4.169026e+00 4.189722e+00 4.202686e+00 4.223085e+00 4.235572e+00 4.255115e+00 4.266629e+00 4.284810e+00 4.294863e+00 4.311295e+00 4.319460e+00 4.333926e+00 4.339873e+00 4.352341e+00 4.355865e+00 4.366453e+00 4.367476e+00 4.376399e+00 4.374954e+00 4.382442e+00 4.378646e+00 4.384884e+00 4.378900e+00 4.383988e+00 4.375999e+00 4.379944e+00 4.370135e+00 4.372884e+00 4.361438e+00 4.362918e+00 4.350026e+00 4.350187e+00 4.336052e+00 4.334902e+00 4.319750e+00 4.317365e+00 4.301442e+00 4.297969e+00 4.281533e+00 4.277171e+00 4.260482e+00 4.255462e+00 4.238769e+00 4.233337e+00 4.216865e+00 4.211258e+00 4.195206e+00 4.189641e+00 4.174169e+00 4.168834e+00 4.154067e+00 4.149117e+00 4.135144e+00 4.130697e+00 4.117575e+00 4.113717e+00 4.101472e+00 4.098255e+00 4.086889e+00 4.084338e+00 4.073829e+00 4.071946e+00 4.062254e+00 4.061019e+00 4.052093e+00 4.051473e+00 4.043251e+00 4.043201e+00 4.035616e+00 4.036086e+00 4.029071e+00 4.030006e+00 4.023494e+00 4.024842e+00 4.018767e+00 4.020476e+00 4.014781e+00 4.016801e+00 4.011432e+00 4.013720e+00 4.008628e+00 4.011145e+00 4.006287e+00 4.008998e+00 4.004339e+00 4.007213e+00 4.002719e+00 4.005731e+00 4.001376e+00 4.004503e+00 4.000264e+00 4.003486e+00 3.999344e+00 4.002645e+00 3.998583e+00 4.001951e+00 3.997956e+00 4.001378e+00 3.997438e+00 4.000906e+00 3.997010e+00 4.000516e+00 3.996658e+00 4.000195e+00 3.996368e+00 3.999931e+00 3.996130e+00 3.999713e+00 3.995933e+00 3.999534e+00 3.995771e+00 3.999386e+00 3.995638e+00 3.999265e+00 3.995528e+00 3.999165e+00 3.995438e+00 3.999083e+00 3.995364e+00 3.999015e+00 3.995303e+00 3.998959e+00 3.995253e+00 3.998914e+00 3.995211e+00 3.998876e+00 3.995177e+00 3.998845e+00 3.995149e+00 3.998820e+00 3.995126e+00 3.998799e+00 3.995108e+00 3.998782e+00 3.995092e+00 3.998767e+00 3.995079e+00 3.998756e+00 3.995069e+00 3.998746e+00 3.995060e+00 3.998738e+00 3.995053e+00 3.998732e+00 3.995047e+00 3.998727e+00 3.995042e+00 3.998722e+00 3.995038e+00 3.998719e+00 3.995035e+00 3.998716e+00 3.995033e+00 3.998713e+00 3.995030e+00 3.998711e+00 3.995029e+00 3.998710e+00 3.995027e+00 3.998708e+00 3.995026e+00 3.998707e+00 3.995025e+00 3.998706e+00 3.995024e+00 3.998706e+00 3.995023e+00 3.998705e+00 3.995023e+00 3.998704e+00 3.995022e+00 3.998704e+00 3.995022e+00 3.998704e+00 3.995022e+00 3.998703e+00 3.995021e+00 3.998703e+00 3.995021e+00 3.998703e+00 3.995021e+00 3.998703e+00 3.995021e+00 3.998703e+00 3.995021e+00 3.998703e+00 3.995021e+00 3.998702e+00 3.995021e+00 3.998702e+00 3.995020e+00 3.998702e+00 3.995020e+00 3.998702e+00 3.995020e+00 3.998702e+00 3.995020e+00 3.998702e+00 3.995020e+00 3.998702e+00 3.995020e+00 3.998702e+00 3.995020e+00 3.998702e+00 3.995020e+00 3.998702e+00 3.995020e+00 3.998702e+00 3.995020e+00 3.998702e+00 3.995020e+00 3.998702e+00 3.995020e+00 3.998702e+00 3.995020e+00 3.998702e+00 3.995020e+00 3.998702e+00 3.995020e+00 3.998702e+00 3.995020e+00 3.998702e+00 3.995020e+00 3.998702e+00 3.995020e+00 3.998702e+00 3.995020e+00 3.998702e+00 3.995020e+00 3.998702e+00 3.995020e+00 3.998702e+00 3.995020e+00 3.998701e+00 3.995020e+00 3.998701e+00 3.995019e+00 3.998701e+00 3.995019e+00 3.998701e+00 3.995019e+00 3.998701e+00 3.995019e+00 3.998700e+00 3.995019e+00 3.998700e+00 3.995018e+00 3.998700e+00 3.995018e+00 3.998699e+00 3.995017e+00 3.998698e+00 3.995017e+00 3.998698e+00 3.995016e+00 3.998697e+00 3.995015e+00 3.998695e+00 3.995014e+00 3.998694e+00 3.995012e+00 3.998692e+00 3.995011e+00 3.998690e+00 3.995008e+00 3.998687e+00 3.995006e+00 3.998684e+00 3.995003e+00 3.998680e+00 3.994999e+00 3.998676e+00 3.994995e+00 3.998670e+00 3.994989e+00 3.998663e+00 3.994982e+00 3.998655e+00 3.994974e+00 3.998645e+00 3.994964e+00 3.998632e+00 3.994952e+00 3.998617e+00 3.994937e+00 3.998599e+00 3.994919e+00 3.998577e+00 3.994898e+00 3.998550e+00 3.994871e+00 3.998517e+00 3.994839e+00 3.998477e+00 3.994800e+00 3.998428e+00 3.994752e+00 3.998369e+00 3.994694e+00 3.998297e+00 3.994623e+00 3.998208e+00 3.994537e+00 3.998101e+00 3.994431e+00 3.997970e+00 3.994302e+00 3.997810e+00 3.994145e+00 3.997614e+00 3.993953e+00 3.997375e+00 3.993717e+00 3.997081e+00 3.993427e+00 3.996721e+00 3.993071e+00 3.996277e+00 3.992631e+00 3.995730e+00 3.992087e+00 3.995053e+00 3.991410e+00 3.994211e+00 3.990565e+00 3.993158e+00 3.989503e+00 3.991835e+00 3.988157e+00 3.990158e+00 3.986436e+00 3.988013e+00 3.984207e+00 3.985232e+00 3.981276e+00 3.981572e+00 3.977345e+00 3.976657e+00 3.971942e+00 3.969893e+00 3.964299e+00 3.960314e+00 3.953176e+00 3.946385e+00 3.936868e+00 3.926136e+00 3.915148e+00 3.900201e+00 3.903552e+00 3.891827e+00 4.015941e+00 
4.011086e+00 4.002235e+00 4.011092e+00 4.005713e+00 4.034930e+00 4.024283e+00 4.025695e+00 4.007373e+00 4.005977e+00 3.990630e+00 3.993767e+00 3.982920e+00 3.990525e+00 3.983137e+00 3.994030e+00 3.989145e+00 4.002532e+00 3.999622e+00 4.015085e+00 4.013883e+00 4.031206e+00 4.031572e+00 4.050627e+00 4.052473e+00 4.073154e+00 4.076402e+00 4.098571e+00 4.103112e+00 4.126565e+00 4.132234e+00 4.156663e+00 4.163217e+00 4.188201e+00 4.195309e+00 4.220317e+00 4.227558e+00 4.251991e+00 4.258882e+00 4.282139e+00 4.288171e+00 4.309733e+00 4.314416e+00 4.333930e+00 4.336842e+00 4.354168e+00 4.354987e+00 4.370208e+00 4.368732e+00 4.382105e+00 4.378257e+00 4.390131e+00 4.383939e+00 4.394658e+00 4.386227e+00 4.396040e+00 4.385517e+00 4.394534e+00 4.382080e+00 4.390276e+00 4.376047e+00 4.383301e+00 4.367452e+00 4.373612e+00 4.356309e+00 4.361249e+00 4.342679e+00 4.346346e+00 4.326728e+00 4.329155e+00 4.308735e+00 4.310042e+00 4.289084e+00 4.289459e+00 4.268234e+00 4.267907e+00 4.246672e+00 4.245893e+00 4.224884e+00 4.223895e+00 4.203314e+00 4.202340e+00 4.182355e+00 4.181589e+00 4.162326e+00 4.161928e+00 4.143478e+00 4.143572e+00 4.125991e+00 4.126663e+00 4.109976e+00 4.111284e+00 4.095490e+00 4.097458e+00 4.082534e+00 4.085164e+00 4.071068e+00 4.074342e+00 4.061018e+00 4.064902e+00 4.052287e+00 4.056735e+00 4.044761e+00 4.049723e+00 4.038319e+00 4.043740e+00 4.032838e+00 4.038664e+00 4.028199e+00 4.034380e+00 4.024292e+00 4.030778e+00 4.021013e+00 4.027762e+00 4.018270e+00 4.025242e+00 4.015983e+00 4.023144e+00 4.014080e+00 4.021400e+00 4.012500e+00 4.019953e+00 4.011190e+00 4.018755e+00 4.010105e+00 4.017763e+00 4.009208e+00 4.016943e+00 4.008467e+00 4.016267e+00 4.007856e+00 4.015708e+00 4.007351e+00 4.015248e+00 4.006936e+00 4.014868e+00 4.006593e+00 4.014556e+00 4.006310e+00 4.014298e+00 4.006078e+00 4.014086e+00 4.005887e+00 4.013912e+00 4.005729e+00 4.013768e+00 4.005599e+00 4.013650e+00 4.005493e+00 4.013552e+00 4.005405e+00 4.013472e+00 4.005333e+00 4.013407e+00 4.005273e+00 4.013352e+00 4.005224e+00 4.013308e+00 4.005184e+00 4.013271e+00 4.005151e+00 4.013241e+00 4.005124e+00 4.013216e+00 4.005102e+00 4.013196e+00 4.005083e+00 4.013179e+00 4.005068e+00 4.013165e+00 4.005056e+00 4.013154e+00 4.005045e+00 4.013145e+00 4.005037e+00 4.013137e+00 4.005030e+00 4.013131e+00 4.005024e+00 4.013126e+00 4.005020e+00 4.013121e+00 4.005016e+00 4.013118e+00 4.005013e+00 4.013115e+00 4.005010e+00 4.013113e+00 4.005008e+00 4.013111e+00 4.005006e+00 4.013109e+00 4.005005e+00 4.013108e+00 4.005004e+00 4.013107e+00 4.005003e+00 4.013106e+00 4.005002e+00 4.013105e+00 4.005001e+00 4.013104e+00 4.005001e+00 4.013104e+00 4.005000e+00 4.013104e+00 4.005000e+00 4.013103e+00 4.005000e+00 4.013103e+00 4.004999e+00 4.013103e+00 4.004999e+00 4.013103e+00 4.004999e+00 4.013102e+00 4.004999e+00 4.013102e+00 4.004999e+00 4.013102e+00 4.004999e+00 4.013102e+00 4.004999e+00 4.013102e+00 4.004998e+00 4.013102e+00 4.004998e+00 4.013102e+00 4.004998e+00 4.013102e+00 4.004998e+00 4.013102e+00 4.004998e+00 4.013102e+00 4.004998e+00 4.013102e+00 4.004998e+00 4.013102e+00 4.004998e+00 4.013102e+00 4.004998e+00 4.013102e+00 4.004998e+00 4.013102e+00 4.004998e+00 4.013102e+00 4.004998e+00 4.013102e+00 4.004998e+00 4.013102e+00 4.004998e+00 4.013102e+00 4.004998e+00 4.013102e+00 4.004998e+00 4.013102e+00 4.004998e+00 4.013102e+00 4.004998e+00 4.013102e+00 4.004998e+00 4.013102e+00 4.004998e+00 4.013102e+00 4.004998e+00 4.013102e+00 4.004998e+00 4.013102e+00 4.004998e+00 4.013102e+00 4.004998e+00 4.013102e+00 4.004998e+00 4.013102e+00 4.004998e+00 4.013102e+00 4.004998e+00 4.013102e+00 4.004998e+00 4.013102e+00 4.004998e+00 4.013101e+00 4.004998e+00 4.013101e+00 4.004998e+00 4.013101e+00 4.004998e+00 4.013101e+00 4.004998e+00 4.013101e+00 4.004998e+00 4.013101e+00 4.004998e+00 4.013101e+00 4.004997e+00 4.013101e+00 4.004997e+00 4.013101e+00 4.004997e+00 4.013101e+00 4.004997e+00 4.013101e+00 4.004997e+00 4.013100e+00 4.004996e+00 4.013100e+00 4.004996e+00 4.013100e+00 4.004996e+00 4.013100e+00 4.004995e+00 4.013099e+00 4.004994e+00 4.013099e+00 4.004994e+00 4.013098e+00 4.004993e+00 4.013097e+00 4.004992e+00 4.013096e+00 4.004990e+00 4.013095e+00 4.004989e+00 4.013094e+00 4.004987e+00 4.013093e+00 4.004984e+00 4.013091e+00 4.004982e+00 4.013089e+00 4.004978e+00 4.013086e+00 4.004974e+00 4.013083e+00 4.004969e+00 4.013079e+00 4.004963e+00 4.013074e+00 4.004955e+00 4.013068e+00 4.004946e+00 4.013062e+00 4.004936e+00 4.013053e+00 4.004923e+00 4.013044e+00 4.004907e+00 4.013031e+00 4.004887e+00 4.013017e+00 4.004864e+00 4.012999e+00 4.004835e+00 4.012977e+00 4.004799e+00 4.012951e+00 4.004756e+00 4.012918e+00 4.004703e+00 4.012878e+00 4.004637e+00 4.012829e+00 4.004554e+00 4.012767e+00 4.004452e+00 4.012689e+00 4.004322e+00 4.012591e+00 4.004158e+00 4.012467e+00 4.003947e+00 4.012307e+00 4.003677e+00 4.012105e+00 4.003331e+00 4.011860e+00 4.002908e+00 4.011608e+00 4.002467e+00 4.011552e+00 4.002335e+00 4.012460e+00 4.003733e+00 4.016286e+00 4.009514e+00 
4.034957e+00 4.025258e+00 4.034969e+00 4.025588e+00 4.007029e+00 4.001929e+00 3.986015e+00 3.983659e+00 3.973993e+00 3.974251e+00 3.970522e+00 3.972738e+00 3.973566e+00 3.977032e+00 3.981258e+00 3.985612e+00 3.992560e+00 3.997733e+00 4.007049e+00 4.013093e+00 4.024573e+00 4.031563e+00 4.045061e+00 4.053057e+00 4.068436e+00 4.077460e+00 4.094542e+00 4.104553e+00 4.123080e+00 4.133958e+00 4.153562e+00 4.165092e+00 4.185276e+00 4.197145e+00 4.217293e+00 4.229102e+00 4.248530e+00 4.259819e+00 4.277856e+00 4.288148e+00 4.304236e+00 4.313084e+00 4.326876e+00 4.333901e+00 4.345316e+00 4.350237e+00 4.359462e+00 4.362115e+00 4.369537e+00 4.369871e+00 4.375972e+00 4.374034e+00 4.379261e+00 4.375165e+00 4.379823e+00 4.373713e+00 4.377913e+00 4.369929e+00 4.373596e+00 4.363868e+00 4.366803e+00 4.355455e+00 4.357418e+00 4.344587e+00 4.345379e+00 4.331234e+00 4.330745e+00 4.315500e+00 4.313731e+00 4.297636e+00 4.294695e+00 4.278027e+00 4.274102e+00 4.257144e+00 4.252477e+00 4.235503e+00 4.230351e+00 4.213609e+00 4.208230e+00 4.191932e+00 4.186558e+00 4.170877e+00 4.165711e+00 4.150776e+00 4.145982e+00 4.131885e+00 4.127589e+00 4.114386e+00 4.110678e+00 4.098392e+00 4.095328e+00 4.083955e+00 4.081560e+00 4.071073e+00 4.069347e+00 4.059702e+00 4.058624e+00 4.049762e+00 4.049295e+00 4.041148e+00 4.041246e+00 4.033743e+00 4.034351e+00 4.027419e+00 4.028484e+00 4.022052e+00 4.023518e+00 4.017521e+00 4.019335e+00 4.013710e+00 4.015825e+00 4.010519e+00 4.012890e+00 4.007854e+00 4.010443e+00 4.005635e+00 4.008407e+00 4.003790e+00 4.006717e+00 4.002260e+00 4.005316e+00 4.000993e+00 4.004157e+00 3.999945e+00 4.003198e+00 3.999079e+00 4.002407e+00 3.998364e+00 4.001753e+00 3.997774e+00 4.001214e+00 3.997287e+00 4.000770e+00 3.996886e+00 4.000404e+00 3.996556e+00 4.000103e+00 3.996284e+00 3.999854e+00 3.996060e+00 3.999650e+00 3.995875e+00 3.999482e+00 3.995724e+00 3.999344e+00 3.995599e+00 3.999230e+00 3.995496e+00 3.999136e+00 3.995412e+00 3.999059e+00 3.995342e+00 3.998996e+00 3.995285e+00 3.998943e+00 3.995238e+00 3.998900e+00 3.995199e+00 3.998865e+00 3.995167e+00 3.998836e+00 3.995141e+00 3.998812e+00 3.995120e+00 3.998793e+00 3.995102e+00 3.998777e+00 3.995087e+00 3.998763e+00 3.995076e+00 3.998752e+00 3.995066e+00 3.998744e+00 3.995058e+00 3.998736e+00 3.995051e+00 3.998730e+00 3.995045e+00 3.998725e+00 3.995041e+00 3.998721e+00 3.995037e+00 3.998718e+00 3.995034e+00 3.998715e+00 3.995032e+00 3.998713e+00 3.995030e+00 3.998711e+00 3.995028e+00 3.998709e+00 3.995027e+00 3.998708e+00 3.995025e+00 3.998707e+00 3.995025e+00 3.998706e+00 3.995024e+00 3.998705e+00 3.995023e+00 3.998705e+00 3.995023e+00 3.998704e+00 3.995022e+00 3.998704e+00 3.995022e+00 3.998704e+00 3.995022e+00 3.998703e+00 3.995021e+00 3.998703e+00 3.995021e+00 3.998703e+00 3.995021e+00 3.998703e+00 3.995021e+00 3.998703e+00 3.995021e+00 3.998702e+00 3.995021e+00 3.998702e+00 3.995021e+00 3.998702e+00 3.995020e+00 3.998702e+00 3.995020e+00 3.998702e+00 3.995020e+00 3.998702e+00 3.995020e+00 3.998702e+00 3.995020e+00 3.998702e+00 3.995020e+00 3.998702e+00 3.995020e+00 3.998702e+00 3.995020e+00 3.998702e+00 3.995020e+00 3.998702e+00 3.995020e+00 3.998702e+00 3.995020e+00 3.998702e+00 3.995020e+00 3.998702e+00 3.995020e+00 3.998702e+00 3.995020e+00 3.998702e+00 3.995020e+00 3.998702e+00 3.995020e+00 3.998702e+00 3.995020e+00 3.998702e+00 3.995020e+00 3.998702e+00 3.995020e+00 3.998702e+00 3.995020e+00 3.998702e+00 3.995020e+00 3.998702e+00 3.995020e+00 3.998701e+00 3.995020e+00 3.998701e+00 3.995019e+00 3.998701e+00 3.995019e+00 3.998701e+00 3.995019e+00 3.998701e+00 3.995019e+00 3.998700e+00 3.995019e+00 3.998700e+00 3.995018e+00 3.998700e+00 3.995018e+00 3.998699e+00 3.995017e+00 3.998699e+00 3.995017e+00 3.998698e+00 3.995016e+00 3.998697e+00 3.995015e+00 3.998696e+00 3.995014e+00 3.998694e+00 3.995013e+00 3.998693e+00 3.995011e+00 3.998691e+00 3.995009e+00 3.998688e+00 3.995007e+00 3.998685e+00 3.995004e+00 3.998682e+00 3.995000e+00 3.998677e+00 3.994996e+00 3.998672e+00 3.994991e+00 3.998666e+00 3.994985e+00 3.998658e+00 3.994977e+00 3.998648e+00 3.994968e+00 3.998637e+00 3.994956e+00 3.998622e+00 3.994942e+00 3.998605e+00 3.994926e+00 3.998584e+00 3.994905e+00 3.998559e+00 3.994880e+00 3.998528e+00 3.994850e+00 3.998490e+00 3.994814e+00 3.998445e+00 3.994769e+00 3.998389e+00 3.994714e+00 3.998321e+00 3.994648e+00 3.998239e+00 3.994567e+00 3.998138e+00 3.994469e+00 3.998015e+00 3.994349e+00 3.997865e+00 3.994202e+00 3.997683e+00 3.994023e+00 3.997459e+00 3.993804e+00 3.997186e+00 3.993535e+00 3.996851e+00 3.993205e+00 3.996439e+00 3.992800e+00 3.995934e+00 3.992300e+00 3.995310e+00 3.991681e+00 3.994539e+00 3.990914e+00 3.993582e+00 3.989958e+00 3.992389e+00 3.988761e+00 3.990895e+00 3.987252e+00 3.989013e+00 3.985340e+00 3.986626e+00 3.982900e+00 3.983580e+00 3.979768e+00 3.979675e+00 3.975749e+00 3.974669e+00 3.970658e+00 3.968354e+00 3.964533e+00 3.960835e+00 3.958356e+00 3.953493e+00 3.956203e+00 3.951742e+00 3.970331e+00 3.971066e+00 4.024596e+00 