# vtk DataFile Version 2.0
Comment goes here
ASCII

DATASET STRUCTURED_POINTS
FIELD FieldData 1
TIME 1 1 double
1.07500000
DIMENSIONS    384   64   1

ORIGIN    0.000   0.000   0.000
SPACING   0.078125 0.078125   1.000

POINT_DATA   24576
SCALARS uMag double
LOOKUP_TABLE default

2.647847e+00 2.889089e+00 2.647693e+00 2.902840e+00 3.143259e+00 3.360929e+00 3.474391e+00 3.577151e+00 3.624289e+00 3.676446e+00 3.699596e+00 3.730716e+00 3.745450e+00 3.767233e+00 3.779128e+00 3.796554e+00 3.807777e+00 3.823285e+00 3.834813e+00 3.849766e+00 3.862119e+00 3.877368e+00 3.890883e+00 3.906989e+00 3.921920e+00 3.939248e+00 3.955786e+00 3.974511e+00 3.992768e+00 4.012862e+00 4.032841e+00 4.054047e+00 4.075618e+00 4.097432e+00 4.120323e+00 4.142014e+00 4.165828e+00 4.186479e+00 4.210733e+00 4.229321e+00 4.253498e+00 4.268997e+00 4.292598e+00 4.304085e+00 4.326665e+00 4.333416e+00 4.354606e+00 4.356168e+00 4.375672e+00 4.371900e+00 4.389491e+00 4.380544e+00 4.396049e+00 4.382353e+00 4.395649e+00 4.377826e+00 4.388841e+00 4.367633e+00 4.376346e+00 4.352539e+00 4.358987e+00 4.333347e+00 4.337632e+00 4.310861e+00 4.313149e+00 4.285863e+00 4.286374e+00 4.259095e+00 4.258097e+00 4.231250e+00 4.229040e+00 4.202962e+00 4.199846e+00 4.174795e+00 4.171074e+00 4.147236e+00 4.143190e+00 4.120692e+00 4.116569e+00 4.095486e+00 4.091497e+00 4.071860e+00 4.068178e+00 4.049983e+00 4.046740e+00 4.029956e+00 4.027247e+00 4.011818e+00 4.009705e+00 3.995559e+00 3.994072e+00 3.981123e+00 3.980269e+00 3.968421e+00 3.968184e+00 3.957337e+00 3.957688e+00 3.947741e+00 3.948638e+00 3.939489e+00 3.940886e+00 3.932439e+00 3.934283e+00 3.926449e+00 3.928689e+00 3.921383e+00 3.923971e+00 3.917119e+00 3.920008e+00 3.913542e+00 3.916689e+00 3.910551e+00 3.913919e+00 3.908056e+00 3.911612e+00 3.905981e+00 3.909695e+00 3.904258e+00 3.908104e+00 3.902830e+00 3.906787e+00 3.901647e+00 3.905697e+00 3.900669e+00 3.904796e+00 3.899861e+00 3.904052e+00 3.899194e+00 3.903438e+00 3.898644e+00 3.902932e+00 3.898191e+00 3.902515e+00 3.897817e+00 3.902172e+00 3.897509e+00 3.901888e+00 3.897256e+00 3.901655e+00 3.897047e+00 3.901464e+00 3.896875e+00 3.901306e+00 3.896734e+00 3.901176e+00 3.896618e+00 3.901069e+00 3.896522e+00 3.900981e+00 3.896443e+00 3.900909e+00 3.896378e+00 3.900849e+00 3.896325e+00 3.900800e+00 3.896281e+00 3.900760e+00 3.896245e+00 3.900727e+00 3.896216e+00 3.900700e+00 3.896191e+00 3.900677e+00 3.896171e+00 3.900659e+00 3.896155e+00 3.900644e+00 3.896141e+00 3.900631e+00 3.896130e+00 3.900621e+00 3.896121e+00 3.900613e+00 3.896114e+00 3.900606e+00 3.896107e+00 3.900600e+00 3.896102e+00 3.900595e+00 3.896098e+00 3.900592e+00 3.896095e+00 3.900588e+00 3.896092e+00 3.900586e+00 3.896089e+00 3.900584e+00 3.896088e+00 3.900582e+00 3.896086e+00 3.900581e+00 3.896085e+00 3.900579e+00 3.896084e+00 3.900578e+00 3.896083e+00 3.900578e+00 3.896082e+00 3.900577e+00 3.896081e+00 3.900576e+00 3.896081e+00 3.900576e+00 3.896081e+00 3.900576e+00 3.896080e+00 3.900575e+00 3.896080e+00 3.900575e+00 3.896080e+00 3.900575e+00 3.896080e+00 3.900575e+00 3.896079e+00 3.900574e+00 3.896079e+00 3.900574e+00 3.896079e+00 3.900574e+00 3.896079e+00 3.900574e+00 3.896079e+00 3.900574e+00 3.896079e+00 3.900574e+00 3.896079e+00 3.900574e+00 3.896079e+00 3.900574e+00 3.896079e+00 3.900574e+00 3.896079e+00 3.900574e+00 3.896079e+00 3.900574e+00 3.896079e+00 3.900574e+00 3.896079e+00 3.900574e+00 3.896079e+00 3.900574e+00 3.896079e+00 3.900574e+00 3.896079e+00 3.900574e+00 3.896079e+00 3.900574e+00 3.896079e+00 3.900574e+00 3.896079e+00 3.900574e+00 3.896079e+00 3.900574e+00 3.896079e+00 3.900574e+00 3.896078e+00 3.900574e+00 3.896078e+00 3.900573e+00 3.896078e+00 3.900573e+00 3.896078e+00 3.900573e+00 3.896078e+00 3.900573e+00 3.896078e+00 3.900573e+00 3.896078e+00 3.900573e+00 3.896078e+00 3.900573e+00 3.896078e+00 3.900572e+00 3.896077e+00 3.900572e+00 3.896077e+00 3.900572e+00 3.896077e+00 3.900571e+00 3.896076e+00 3.900571e+00 3.896076e+00 3.900570e+00 3.896075e+00 3.900569e+00 3.896074e+00 3.900568e+00 3.896073e+00 3.900567e+00 3.896072e+00 3.900566e+00 3.896071e+00 3.900564e+00 3.896069e+00 3.900562e+00 3.896067e+00 3.900559e+00 3.896064e+00 3.900556e+00 3.896061e+00 3.900552e+00 3.896058e+00 3.900547e+00 3.896053e+00 3.900541e+00 3.896047e+00 3.900534e+00 3.896041e+00 3.900526e+00 3.896032e+00 3.900516e+00 3.896022e+00 3.900503e+00 3.896010e+00 3.900488e+00 3.895996e+00 3.900469e+00 3.895978e+00 3.900447e+00 3.895956e+00 3.900419e+00 3.895929e+00 3.900386e+00 3.895897e+00 3.900345e+00 3.895858e+00 3.900296e+00 3.895810e+00 3.900235e+00 3.895752e+00 3.900162e+00 3.895681e+00 3.900072e+00 3.895594e+00 3.899963e+00 3.895489e+00 3.899830e+00 3.895360e+00 3.899668e+00 3.895203e+00 3.899470e+00 3.895011e+00 3.899228e+00 3.894776e+00 3.898931e+00 3.894487e+00 3.898567e+00 3.894133e+00 3.898120e+00 3.893697e+00 3.897569e+00 3.893158e+00 3.896889e+00 3.892490e+00 3.896046e+00 3.891659e+00 3.894996e+00 3.890619e+00 3.893681e+00 3.889307e+00 3.892023e+00 3.887640e+00 3.889913e+00 3.885497e+00 3.887200e+00 3.882703e+00 3.883657e+00 3.878989e+00 3.878942e+00 3.873928e+00 3.872501e+00 3.866782e+00 3.863371e+00 3.856154e+00 3.849708e+00 3.839043e+00 3.827468e+00 3.807853e+00 3.786189e+00 3.739547e+00 3.693666e+00 3.551931e+00 3.436124e+00 2.918106e+00 
3.908627e+00 3.891608e+00 3.908978e+00 3.898276e+00 3.845798e+00 3.817834e+00 3.804825e+00 3.794152e+00 3.800866e+00 3.796868e+00 3.809650e+00 3.807442e+00 3.822002e+00 3.820601e+00 3.835922e+00 3.835418e+00 3.851386e+00 3.852088e+00 3.868828e+00 3.871048e+00 3.888742e+00 3.892755e+00 3.911601e+00 3.917646e+00 3.937847e+00 3.946104e+00 3.967849e+00 3.978400e+00 4.001825e+00 4.014598e+00 4.039755e+00 4.054469e+00 4.081292e+00 4.097420e+00 4.125712e+00 4.142473e+00 4.171916e+00 4.188308e+00 4.218490e+00 4.233365e+00 4.263818e+00 4.275988e+00 4.306223e+00 4.314579e+00 4.344117e+00 4.347744e+00 4.376131e+00 4.374399e+00 4.401217e+00 4.393833e+00 4.418716e+00 4.405732e+00 4.428374e+00 4.410157e+00 4.430326e+00 4.407492e+00 4.425045e+00 4.398375e+00 4.413264e+00 4.383611e+00 4.395884e+00 4.364101e+00 4.373901e+00 4.340780e+00 4.348328e+00 4.314569e+00 4.320151e+00 4.286345e+00 4.290292e+00 4.256920e+00 4.259583e+00 4.227023e+00 4.228753e+00 4.197287e+00 4.198420e+00 4.168251e+00 4.169089e+00 4.140350e+00 4.141157e+00 4.113923e+00 4.114919e+00 4.089218e+00 4.090578e+00 4.066400e+00 4.068256e+00 4.045561e+00 4.048005e+00 4.026731e+00 4.029820e+00 4.009885e+00 4.013645e+00 3.994956e+00 3.999388e+00 3.981841e+00 3.986925e+00 3.970416e+00 3.976116e+00 3.960536e+00 3.966807e+00 3.952050e+00 3.958842e+00 3.944807e+00 3.952064e+00 3.938658e+00 3.946326e+00 3.933463e+00 3.941490e+00 3.929092e+00 3.937429e+00 3.925427e+00 3.934031e+00 3.922364e+00 3.931195e+00 3.919811e+00 3.928835e+00 3.917687e+00 3.926873e+00 3.915924e+00 3.925247e+00 3.914463e+00 3.923899e+00 3.913253e+00 3.922785e+00 3.912253e+00 3.921864e+00 3.911427e+00 3.921104e+00 3.910745e+00 3.920476e+00 3.910183e+00 3.919959e+00 3.909719e+00 3.919533e+00 3.909337e+00 3.919181e+00 3.909022e+00 3.918892e+00 3.908763e+00 3.918654e+00 3.908550e+00 3.918458e+00 3.908374e+00 3.918297e+00 3.908230e+00 3.918164e+00 3.908111e+00 3.918054e+00 3.908013e+00 3.917965e+00 3.907933e+00 3.917891e+00 3.907866e+00 3.917830e+00 3.907812e+00 3.917780e+00 3.907767e+00 3.917739e+00 3.907730e+00 3.917705e+00 3.907700e+00 3.917677e+00 3.907675e+00 3.917654e+00 3.907655e+00 3.917635e+00 3.907638e+00 3.917620e+00 3.907624e+00 3.917607e+00 3.907612e+00 3.917597e+00 3.907603e+00 3.917588e+00 3.907595e+00 3.917581e+00 3.907589e+00 3.917575e+00 3.907584e+00 3.917570e+00 3.907580e+00 3.917566e+00 3.907576e+00 3.917563e+00 3.907573e+00 3.917561e+00 3.907571e+00 3.917558e+00 3.907569e+00 3.917557e+00 3.907567e+00 3.917555e+00 3.907566e+00 3.917554e+00 3.907565e+00 3.917553e+00 3.907564e+00 3.917552e+00 3.907563e+00 3.917551e+00 3.907562e+00 3.917551e+00 3.907562e+00 3.917550e+00 3.907562e+00 3.917550e+00 3.907561e+00 3.917550e+00 3.907561e+00 3.917549e+00 3.907561e+00 3.917549e+00 3.907561e+00 3.917549e+00 3.907560e+00 3.917549e+00 3.907560e+00 3.917549e+00 3.907560e+00 3.917549e+00 3.907560e+00 3.917549e+00 3.907560e+00 3.917549e+00 3.907560e+00 3.917548e+00 3.907560e+00 3.917548e+00 3.907560e+00 3.917548e+00 3.907560e+00 3.917548e+00 3.907560e+00 3.917548e+00 3.907560e+00 3.917548e+00 3.907560e+00 3.917548e+00 3.907560e+00 3.917548e+00 3.907560e+00 3.917548e+00 3.907560e+00 3.917548e+00 3.907560e+00 3.917548e+00 3.907560e+00 3.917548e+00 3.907560e+00 3.917548e+00 3.907560e+00 3.917548e+00 3.907560e+00 3.917548e+00 3.907560e+00 3.917548e+00 3.907560e+00 3.917548e+00 3.907560e+00 3.917548e+00 3.907560e+00 3.917548e+00 3.907560e+00 3.917548e+00 3.907560e+00 3.917548e+00 3.907560e+00 3.917548e+00 3.907560e+00 3.917548e+00 3.907560e+00 3.917548e+00 3.907560e+00 3.917548e+00 3.907560e+00 3.917548e+00 3.907560e+00 3.917548e+00 3.907559e+00 3.917548e+00 3.907559e+00 3.917548e+00 3.907559e+00 3.917548e+00 3.907559e+00 3.917548e+00 3.907559e+00 3.917548e+00 3.907559e+00 3.917548e+00 3.907559e+00 3.917548e+00 3.907559e+00 3.917548e+00 3.907559e+00 3.917548e+00 3.907559e+00 3.917547e+00 3.907558e+00 3.917547e+00 3.907558e+00 3.917547e+00 3.907558e+00 3.917547e+00 3.907557e+00 3.917546e+00 3.907557e+00 3.917546e+00 3.907556e+00 3.917546e+00 3.907556e+00 3.917545e+00 3.907555e+00 3.917544e+00 3.907554e+00 3.917543e+00 3.907553e+00 3.917542e+00 3.907551e+00 3.917541e+00 3.907549e+00 3.917540e+00 3.907547e+00 3.917538e+00 3.907544e+00 3.917536e+00 3.907541e+00 3.917534e+00 3.907537e+00 3.917531e+00 3.907533e+00 3.917527e+00 3.907527e+00 3.917523e+00 3.907520e+00 3.917517e+00 3.907512e+00 3.917511e+00 3.907502e+00 3.917503e+00 3.907490e+00 3.917494e+00 3.907475e+00 3.917482e+00 3.907458e+00 3.917469e+00 3.907436e+00 3.917452e+00 3.907410e+00 3.917432e+00 3.907377e+00 3.917407e+00 3.907338e+00 3.917377e+00 3.907290e+00 3.917339e+00 3.907230e+00 3.917294e+00 3.907157e+00 3.917237e+00 3.907065e+00 3.917166e+00 3.906951e+00 3.917077e+00 3.906806e+00 3.916963e+00 3.906622e+00 3.916816e+00 3.906384e+00 3.916623e+00 3.906069e+00 3.916361e+00 3.905643e+00 3.915995e+00 3.905046e+00 3.915455e+00 3.904168e+00 3.914612e+00 3.902797e+00 3.913224e+00 3.900566e+00 3.911323e+00 3.897720e+00 3.917446e+00 3.906391e+00 
3.945386e+00 3.933401e+00 3.945479e+00 3.927739e+00 3.811468e+00 3.788871e+00 3.746866e+00 3.754341e+00 3.744114e+00 3.758927e+00 3.759150e+00 3.773576e+00 3.777443e+00 3.790181e+00 3.795768e+00 3.807278e+00 3.814128e+00 3.825186e+00 3.833270e+00 3.844588e+00 3.854002e+00 3.866178e+00 3.877068e+00 3.890598e+00 3.903141e+00 3.918422e+00 3.932799e+00 3.950102e+00 3.966462e+00 3.985884e+00 4.004303e+00 4.025709e+00 4.046157e+00 4.069142e+00 4.091463e+00 4.115332e+00 4.139245e+00 4.163040e+00 4.188163e+00 4.210729e+00 4.236605e+00 4.256695e+00 4.282822e+00 4.299221e+00 4.325065e+00 4.336722e+00 4.361729e+00 4.367862e+00 4.391473e+00 4.391648e+00 4.413325e+00 4.407486e+00 4.426746e+00 4.415196e+00 4.431653e+00 4.414999e+00 4.428401e+00 4.407454e+00 4.417702e+00 4.393384e+00 4.400529e+00 4.373776e+00 4.378009e+00 4.349702e+00 4.351322e+00 4.322244e+00 4.321629e+00 4.292439e+00 4.290009e+00 4.261244e+00 4.257432e+00 4.229508e+00 4.224734e+00 4.197963e+00 4.192611e+00 4.167210e+00 4.161620e+00 4.137730e+00 4.132186e+00 4.109883e+00 4.104618e+00 4.083926e+00 4.079118e+00 4.060024e+00 4.055803e+00 4.038258e+00 4.034712e+00 4.018647e+00 4.015823e+00 4.001149e+00 3.999067e+00 3.985683e+00 3.984334e+00 3.972130e+00 3.971485e+00 3.960349e+00 3.960364e+00 3.950183e+00 3.950806e+00 3.941469e+00 3.942641e+00 3.934044e+00 3.935706e+00 3.927750e+00 3.929843e+00 3.922439e+00 3.924908e+00 3.917977e+00 3.920769e+00 3.914240e+00 3.917308e+00 3.911119e+00 3.914423e+00 3.908520e+00 3.912023e+00 3.906359e+00 3.910030e+00 3.904567e+00 3.908378e+00 3.903082e+00 3.907011e+00 3.901854e+00 3.905880e+00 3.900838e+00 3.904946e+00 3.900000e+00 3.904175e+00 3.899308e+00 3.903539e+00 3.898738e+00 3.903015e+00 3.898267e+00 3.902583e+00 3.897880e+00 3.902227e+00 3.897561e+00 3.901934e+00 3.897298e+00 3.901693e+00 3.897082e+00 3.901495e+00 3.896904e+00 3.901331e+00 3.896757e+00 3.901197e+00 3.896637e+00 3.901086e+00 3.896538e+00 3.900995e+00 3.896456e+00 3.900920e+00 3.896389e+00 3.900859e+00 3.896334e+00 3.900808e+00 3.896289e+00 3.900767e+00 3.896251e+00 3.900732e+00 3.896221e+00 3.900704e+00 3.896195e+00 3.900681e+00 3.896175e+00 3.900662e+00 3.896158e+00 3.900646e+00 3.896144e+00 3.900633e+00 3.896132e+00 3.900623e+00 3.896123e+00 3.900614e+00 3.896115e+00 3.900607e+00 3.896108e+00 3.900601e+00 3.896103e+00 3.900596e+00 3.896099e+00 3.900592e+00 3.896095e+00 3.900589e+00 3.896092e+00 3.900586e+00 3.896090e+00 3.900584e+00 3.896088e+00 3.900582e+00 3.896086e+00 3.900581e+00 3.896085e+00 3.900580e+00 3.896084e+00 3.900579e+00 3.896083e+00 3.900578e+00 3.896082e+00 3.900577e+00 3.896082e+00 3.900576e+00 3.896081e+00 3.900576e+00 3.896081e+00 3.900576e+00 3.896080e+00 3.900575e+00 3.896080e+00 3.900575e+00 3.896080e+00 3.900575e+00 3.896080e+00 3.900575e+00 3.896079e+00 3.900574e+00 3.896079e+00 3.900574e+00 3.896079e+00 3.900574e+00 3.896079e+00 3.900574e+00 3.896079e+00 3.900574e+00 3.896079e+00 3.900574e+00 3.896079e+00 3.900574e+00 3.896079e+00 3.900574e+00 3.896079e+00 3.900574e+00 3.896079e+00 3.900574e+00 3.896079e+00 3.900574e+00 3.896079e+00 3.900574e+00 3.896079e+00 3.900574e+00 3.896079e+00 3.900574e+00 3.896079e+00 3.900574e+00 3.896079e+00 3.900574e+00 3.896079e+00 3.900574e+00 3.896079e+00 3.900574e+00 3.896079e+00 3.900574e+00 3.896079e+00 3.900574e+00 3.896079e+00 3.900574e+00 3.896078e+00 3.900574e+00 3.896078e+00 3.900573e+00 3.896078e+00 3.900573e+00 3.896078e+00 3.900573e+00 3.896078e+00 3.900573e+00 3.896078e+00 3.900573e+00 3.896078e+00 3.900573e+00 3.896078e+00 3.900573e+00 3.896078e+00 3.900572e+00 3.896077e+00 3.900572e+00 3.896077e+00 3.900572e+00 3.896077e+00 3.900571e+00 3.896076e+00 3.900571e+00 3.896076e+00 3.900570e+00 3.896075e+00 3.900569e+00 3.896074e+00 3.900568e+00 3.896073e+00 3.900567e+00 3.896072e+00 3.900566e+00 3.896071e+00 3.900564e+00 3.896069e+00 3.900562e+00 3.896067e+00 3.900559e+00 3.896065e+00 3.900556e+00 3.896062e+00 3.900552e+00 3.896058e+00 3.900548e+00 3.896054e+00 3.900542e+00 3.896048e+00 3.900535e+00 3.896042e+00 3.900527e+00 3.896034e+00 3.900517e+00 3.896024e+00 3.900505e+00 3.896012e+00 3.900490e+00 3.895998e+00 3.900472e+00 3.895981e+00 3.900450e+00 3.895959e+00 3.900423e+00 3.895934e+00 3.900390e+00 3.895902e+00 3.900350e+00 3.895864e+00 3.900302e+00 3.895818e+00 3.900243e+00 3.895761e+00 3.900171e+00 3.895692e+00 3.900084e+00 3.895608e+00 3.899978e+00 3.895506e+00 3.899848e+00 3.895381e+00 3.899690e+00 3.895228e+00 3.899497e+00 3.895042e+00 3.899260e+00 3.894814e+00 3.898971e+00 3.894534e+00 3.898617e+00 3.894191e+00 3.898181e+00 3.893769e+00 3.897646e+00 3.893247e+00 3.896985e+00 3.892602e+00 3.896166e+00 3.891801e+00 3.895149e+00 3.890799e+00 3.893878e+00 3.889540e+00 3.892280e+00 3.887945e+00 3.890254e+00 3.885904e+00 3.887662e+00 3.883262e+00 3.884302e+00 3.879786e+00 3.879879e+00 3.875123e+00 3.873940e+00 3.868714e+00 3.865765e+00 3.859647e+00 3.854187e+00 3.846450e+00 3.837352e+00 3.827106e+00 3.812902e+00 3.801376e+00 3.781730e+00 3.787781e+00 3.772480e+00 3.921007e+00 
3.915130e+00 3.904430e+00 3.915189e+00 3.910350e+00 3.940057e+00 3.925376e+00 3.923362e+00 3.900522e+00 3.896362e+00 3.877438e+00 3.878311e+00 3.864488e+00 3.869792e+00 3.859847e+00 3.868205e+00 3.861194e+00 3.871733e+00 3.867217e+00 3.879505e+00 3.877370e+00 3.891245e+00 3.891561e+00 3.907024e+00 3.909966e+00 3.927119e+00 3.932902e+00 3.951901e+00 3.960702e+00 3.981706e+00 3.993580e+00 4.016703e+00 4.031498e+00 4.056769e+00 4.074055e+00 4.101395e+00 4.120419e+00 4.149634e+00 4.169334e+00 4.200121e+00 4.219185e+00 4.251143e+00 4.268121e+00 4.300761e+00 4.314212e+00 4.346957e+00 4.355601e+00 4.387800e+00 4.390649e+00 4.421601e+00 4.418058e+00 4.447064e+00 4.436965e+00 4.463386e+00 4.446997e+00 4.470322e+00 4.448270e+00 4.468167e+00 4.441336e+00 4.457674e+00 4.427090e+00 4.439934e+00 4.406644e+00 4.416232e+00 4.381225e+00 4.387922e+00 4.352071e+00 4.356331e+00 4.320369e+00 4.322685e+00 4.287201e+00 4.288071e+00 4.253517e+00 4.253412e+00 4.220119e+00 4.219464e+00 4.187660e+00 4.186820e+00 4.156646e+00 4.155924e+00 4.127450e+00 4.127085e+00 4.100329e+00 4.100500e+00 4.075437e+00 4.076273e+00 4.052844e+00 4.054426e+00 4.032552e+00 4.034922e+00 4.014502e+00 4.017671e+00 3.998595e+00 4.002545e+00 3.984694e+00 3.989390e+00 3.972643e+00 3.978034e+00 3.962270e+00 3.968296e+00 3.953399e+00 3.959996e+00 3.945856e+00 3.952960e+00 3.939475e+00 3.947023e+00 3.934101e+00 3.942034e+00 3.929591e+00 3.937855e+00 3.925819e+00 3.934366e+00 3.922673e+00 3.931459e+00 3.920056e+00 3.929044e+00 3.917882e+00 3.927040e+00 3.916080e+00 3.925379e+00 3.914588e+00 3.924006e+00 3.913354e+00 3.922871e+00 3.912334e+00 3.921933e+00 3.911493e+00 3.921160e+00 3.910798e+00 3.920522e+00 3.910226e+00 3.919996e+00 3.909754e+00 3.919563e+00 3.909366e+00 3.919206e+00 3.909046e+00 3.918912e+00 3.908782e+00 3.918670e+00 3.908566e+00 3.918471e+00 3.908387e+00 3.918308e+00 3.908240e+00 3.918173e+00 3.908119e+00 3.918062e+00 3.908020e+00 3.917971e+00 3.907938e+00 3.917896e+00 3.907871e+00 3.917834e+00 3.907816e+00 3.917783e+00 3.907770e+00 3.917741e+00 3.907733e+00 3.917707e+00 3.907702e+00 3.917679e+00 3.907677e+00 3.917656e+00 3.907656e+00 3.917637e+00 3.907639e+00 3.917621e+00 3.907625e+00 3.917608e+00 3.907613e+00 3.917597e+00 3.907604e+00 3.917589e+00 3.907596e+00 3.917581e+00 3.907589e+00 3.917576e+00 3.907584e+00 3.917571e+00 3.907580e+00 3.917567e+00 3.907576e+00 3.917563e+00 3.907573e+00 3.917561e+00 3.907571e+00 3.917559e+00 3.907569e+00 3.917557e+00 3.907567e+00 3.917555e+00 3.907566e+00 3.917554e+00 3.907565e+00 3.917553e+00 3.907564e+00 3.917552e+00 3.907563e+00 3.917551e+00 3.907563e+00 3.917551e+00 3.907562e+00 3.917550e+00 3.907562e+00 3.917550e+00 3.907561e+00 3.917550e+00 3.907561e+00 3.917549e+00 3.907561e+00 3.917549e+00 3.907561e+00 3.917549e+00 3.907560e+00 3.917549e+00 3.907560e+00 3.917549e+00 3.907560e+00 3.917549e+00 3.907560e+00 3.917549e+00 3.907560e+00 3.917549e+00 3.907560e+00 3.917548e+00 3.907560e+00 3.917548e+00 3.907560e+00 3.917548e+00 3.907560e+00 3.917548e+00 3.907560e+00 3.917548e+00 3.907560e+00 3.917548e+00 3.907560e+00 3.917548e+00 3.907560e+00 3.917548e+00 3.907560e+00 3.917548e+00 3.907560e+00 3.917548e+00 3.907560e+00 3.917548e+00 3.907560e+00 3.917548e+00 3.907560e+00 3.917548e+00 3.907560e+00 3.917548e+00 3.907560e+00 3.917548e+00 3.907560e+00 3.917548e+00 3.907560e+00 3.917548e+00 3.907560e+00 3.917548e+00 3.907560e+00 3.917548e+00 3.907560e+00 3.917548e+00 3.907560e+00 3.917548e+00 3.907560e+00 3.917548e+00 3.907560e+00 3.917548e+00 3.907560e+00 3.917548e+00 3.907560e+00 3.917548e+00 3.907560e+00 3.917548e+00 3.907560e+00 3.917548e+00 3.907560e+00 3.917548e+00 3.907559e+00 3.917548e+00 3.907559e+00 3.917548e+00 3.907559e+00 3.917548e+00 3.907559e+00 3.917548e+00 3.907559e+00 3.917548e+00 3.907559e+00 3.917548e+00 3.907559e+00 3.917548e+00 3.907559e+00 3.917548e+00 3.907559e+00 3.917547e+00 3.907559e+00 3.917547e+00 3.907558e+00 3.917547e+00 3.907558e+00 3.917547e+00 3.907558e+00 3.917547e+00 3.907557e+00 3.917546e+00 3.907557e+00 3.917546e+00 3.907556e+00 3.917545e+00 3.907555e+00 3.917545e+00 3.907555e+00 3.917544e+00 3.907554e+00 3.917543e+00 3.907552e+00 3.917542e+00 3.907551e+00 3.917541e+00 3.907549e+00 3.917539e+00 3.907547e+00 3.917537e+00 3.907544e+00 3.917535e+00 3.907541e+00 3.917533e+00 3.907537e+00 3.917529e+00 3.907532e+00 3.917525e+00 3.907526e+00 3.917521e+00 3.907519e+00 3.917515e+00 3.907511e+00 3.917508e+00 3.907500e+00 3.917500e+00 3.907488e+00 3.917490e+00 3.907473e+00 3.917478e+00 3.907455e+00 3.917464e+00 3.907432e+00 3.917446e+00 3.907405e+00 3.917425e+00 3.907372e+00 3.917398e+00 3.907332e+00 3.917366e+00 3.907282e+00 3.917327e+00 3.907220e+00 3.917278e+00 3.907144e+00 3.917218e+00 3.907049e+00 3.917143e+00 3.906931e+00 3.917048e+00 3.906781e+00 3.916929e+00 3.906591e+00 3.916777e+00 3.906348e+00 3.916583e+00 3.906035e+00 3.916337e+00 3.905636e+00 3.916040e+00 3.905152e+00 3.915747e+00 3.904672e+00 3.915731e+00 3.904639e+00 3.917037e+00 3.906708e+00 3.922338e+00 3.914357e+00 
3.944230e+00 3.932326e+00 3.944242e+00 3.932194e+00 3.901605e+00 3.892716e+00 3.867830e+00 3.864418e+00 3.848610e+00 3.848684e+00 3.839775e+00 3.841734e+00 3.837483e+00 3.840486e+00 3.839464e+00 3.843305e+00 3.844738e+00 3.849554e+00 3.853049e+00 3.859132e+00 3.864521e+00 3.872245e+00 3.879514e+00 3.889295e+00 3.898537e+00 3.910795e+00 3.922169e+00 3.937268e+00 3.950952e+00 3.969122e+00 3.985258e+00 4.006507e+00 4.025165e+00 4.049193e+00 4.070336e+00 4.096487e+00 4.119965e+00 4.147211e+00 4.172761e+00 4.199759e+00 4.227013e+00 4.252212e+00 4.280686e+00 4.302484e+00 4.331569e+00 4.348486e+00 4.377440e+00 4.388283e+00 4.416248e+00 4.420244e+00 4.446310e+00 4.443179e+00 4.466480e+00 4.456439e+00 4.476263e+00 4.459965e+00 4.475834e+00 4.454244e+00 4.465960e+00 4.440216e+00 4.447851e+00 4.419123e+00 4.422979e+00 4.392368e+00 4.392912e+00 4.361388e+00 4.359189e+00 4.327557e+00 4.323224e+00 4.292124e+00 4.286255e+00 4.256175e+00 4.249320e+00 4.220610e+00 4.213254e+00 4.186147e+00 4.178696e+00 4.153334e+00 4.146112e+00 4.122559e+00 4.115815e+00 4.094080e+00 4.087996e+00 4.068043e+00 4.062740e+00 4.044501e+00 4.040054e+00 4.023436e+00 4.019874e+00 4.004770e+00 4.002091e+00 3.988378e+00 3.986554e+00 3.974106e+00 3.973088e+00 3.961775e+00 3.961502e+00 3.951196e+00 3.951598e+00 3.942176e+00 3.943182e+00 3.934529e+00 3.936066e+00 3.928076e+00 3.930076e+00 3.922654e+00 3.925053e+00 3.918114e+00 3.920855e+00 3.914324e+00 3.917355e+00 3.911168e+00 3.914444e+00 3.908546e+00 3.912028e+00 3.906370e+00 3.910026e+00 3.904569e+00 3.908369e+00 3.903079e+00 3.906999e+00 3.901848e+00 3.905868e+00 3.900831e+00 3.904934e+00 3.899992e+00 3.904164e+00 3.899301e+00 3.903529e+00 3.898731e+00 3.903006e+00 3.898261e+00 3.902575e+00 3.897875e+00 3.902220e+00 3.897556e+00 3.901928e+00 3.897294e+00 3.901688e+00 3.897078e+00 3.901490e+00 3.896901e+00 3.901328e+00 3.896755e+00 3.901194e+00 3.896635e+00 3.901084e+00 3.896536e+00 3.900993e+00 3.896455e+00 3.900919e+00 3.896388e+00 3.900857e+00 3.896333e+00 3.900807e+00 3.896288e+00 3.900766e+00 3.896251e+00 3.900731e+00 3.896220e+00 3.900703e+00 3.896195e+00 3.900680e+00 3.896174e+00 3.900661e+00 3.896157e+00 3.900646e+00 3.896143e+00 3.900633e+00 3.896132e+00 3.900623e+00 3.896122e+00 3.900614e+00 3.896115e+00 3.900607e+00 3.896108e+00 3.900601e+00 3.896103e+00 3.900596e+00 3.896099e+00 3.900592e+00 3.896095e+00 3.900589e+00 3.896092e+00 3.900586e+00 3.896090e+00 3.900584e+00 3.896088e+00 3.900582e+00 3.896086e+00 3.900581e+00 3.896085e+00 3.900579e+00 3.896084e+00 3.900578e+00 3.896083e+00 3.900578e+00 3.896082e+00 3.900577e+00 3.896082e+00 3.900576e+00 3.896081e+00 3.900576e+00 3.896081e+00 3.900576e+00 3.896080e+00 3.900575e+00 3.896080e+00 3.900575e+00 3.896080e+00 3.900575e+00 3.896080e+00 3.900575e+00 3.896079e+00 3.900574e+00 3.896079e+00 3.900574e+00 3.896079e+00 3.900574e+00 3.896079e+00 3.900574e+00 3.896079e+00 3.900574e+00 3.896079e+00 3.900574e+00 3.896079e+00 3.900574e+00 3.896079e+00 3.900574e+00 3.896079e+00 3.900574e+00 3.896079e+00 3.900574e+00 3.896079e+00 3.900574e+00 3.896079e+00 3.900574e+00 3.896079e+00 3.900574e+00 3.896079e+00 3.900574e+00 3.896079e+00 3.900574e+00 3.896079e+00 3.900574e+00 3.896079e+00 3.900574e+00 3.896079e+00 3.900574e+00 3.896079e+00 3.900574e+00 3.896079e+00 3.900574e+00 3.896079e+00 3.900574e+00 3.896078e+00 3.900574e+00 3.896078e+00 3.900574e+00 3.896078e+00 3.900573e+00 3.896078e+00 3.900573e+00 3.896078e+00 3.900573e+00 3.896078e+00 3.900573e+00 3.896078e+00 3.900573e+00 3.896078e+00 3.900573e+00 3.896078e+00 3.900573e+00 3.896077e+00 3.900572e+00 3.896077e+00 3.900572e+00 3.896077e+00 3.900571e+00 3.896076e+00 3.900571e+00 3.896076e+00 3.900570e+00 3.896075e+00 3.900570e+00 3.896075e+00 3.900569e+00 3.896074e+00 3.900568e+00 3.896073e+00 3.900566e+00 3.896071e+00 3.900565e+00 3.896070e+00 3.900563e+00 3.896068e+00 3.900560e+00 3.896066e+00 3.900557e+00 3.896063e+00 3.900554e+00 3.896059e+00 3.900549e+00 3.896055e+00 3.900544e+00 3.896050e+00 3.900538e+00 3.896044e+00 3.900530e+00 3.896037e+00 3.900521e+00 3.896028e+00 3.900509e+00 3.896017e+00 3.900495e+00 3.896003e+00 3.900478e+00 3.895987e+00 3.900457e+00 3.895967e+00 3.900432e+00 3.895943e+00 3.900402e+00 3.895914e+00 3.900364e+00 3.895879e+00 3.900319e+00 3.895835e+00 3.900264e+00 3.895783e+00 3.900197e+00 3.895718e+00 3.900115e+00 3.895640e+00 3.900016e+00 3.895545e+00 3.899894e+00 3.895429e+00 3.899747e+00 3.895288e+00 3.899566e+00 3.895115e+00 3.899346e+00 3.894903e+00 3.899077e+00 3.894645e+00 3.898747e+00 3.894328e+00 3.898344e+00 3.893940e+00 3.897848e+00 3.893462e+00 3.897239e+00 3.892872e+00 3.896487e+00 3.892143e+00 3.895558e+00 3.891239e+00 3.894405e+00 3.890111e+00 3.892967e+00 3.888698e+00 3.891166e+00 3.886919e+00 3.888897e+00 3.884662e+00 3.886020e+00 3.881780e+00 3.882348e+00 3.878083e+00 3.877639e+00 3.873336e+00 3.871603e+00 3.867323e+00 3.863991e+00 3.860093e+00 3.854940e+00 3.852818e+00 3.846137e+00 3.850348e+00 3.844170e+00 3.867231e+00 3.867771e+00 3.931580e+00 