# vtk DataFile Version 2.0
Comment goes here
ASCII

DATASET STRUCTURED_POINTS
FIELD FieldData 1
TIME 1 1 double
0.92500000
DIMENSIONS    384   64   1

ORIGIN    0.000   0.000   0.000
SPACING   0.078125 0.078125   1.000

POINT_DATA   24576
SCALARS uMag double
LOOKUP_TABLE default

2.158452e+00 2.411179e+00 2.158379e+00 2.428169e+00 2.704055e+00 2.948796e+00 3.084356e+00 3.200886e+00 3.258006e+00 3.315482e+00 3.344049e+00 3.377076e+00 3.395967e+00 3.418051e+00 3.433897e+00 3.450649e+00 3.466024e+00 3.480168e+00 3.496260e+00 3.509344e+00 3.526797e+00 3.539780e+00 3.558949e+00 3.572412e+00 3.593424e+00 3.607639e+00 3.630404e+00 3.645364e+00 3.669587e+00 3.685046e+00 3.710265e+00 3.725785e+00 3.751431e+00 3.766449e+00 3.791911e+00 3.805795e+00 3.830485e+00 3.842584e+00 3.865983e+00 3.875671e+00 3.897361e+00 3.904071e+00 3.923750e+00 3.927019e+00 3.944504e+00 3.944004e+00 3.959218e+00 3.954793e+00 3.967752e+00 3.959434e+00 3.970216e+00 3.958227e+00 3.966954e+00 3.951684e+00 3.958501e+00 3.940465e+00 3.945529e+00 3.925317e+00 3.928796e+00 3.907022e+00 3.909092e+00 3.886348e+00 3.887200e+00 3.864026e+00 3.863865e+00 3.840726e+00 3.839766e+00 3.817048e+00 3.815507e+00 3.793512e+00 3.791605e+00 3.770558e+00 3.768485e+00 3.748546e+00 3.746488e+00 3.727755e+00 3.725868e+00 3.708390e+00 3.706801e+00 3.690587e+00 3.689391e+00 3.674417e+00 3.673681e+00 3.659896e+00 3.659659e+00 3.646993e+00 3.647270e+00 3.635638e+00 3.636423e+00 3.625734e+00 3.627007e+00 3.617165e+00 3.618894e+00 3.609805e+00 3.611950e+00 3.603522e+00 3.606043e+00 3.598189e+00 3.601044e+00 3.593685e+00 3.596831e+00 3.589896e+00 3.593295e+00 3.586721e+00 3.590337e+00 3.584068e+00 3.587870e+00 3.581857e+00 3.585816e+00 3.580019e+00 3.584110e+00 3.578494e+00 3.582696e+00 3.577230e+00 3.581525e+00 3.576184e+00 3.580557e+00 3.575319e+00 3.579757e+00 3.574605e+00 3.579096e+00 3.574015e+00 3.578551e+00 3.573529e+00 3.578102e+00 3.573129e+00 3.577732e+00 3.572799e+00 3.577427e+00 3.572527e+00 3.577176e+00 3.572303e+00 3.576969e+00 3.572119e+00 3.576799e+00 3.571967e+00 3.576659e+00 3.571842e+00 3.576543e+00 3.571739e+00 3.576449e+00 3.571655e+00 3.576371e+00 3.571585e+00 3.576306e+00 3.571528e+00 3.576254e+00 3.571481e+00 3.576210e+00 3.571442e+00 3.576175e+00 3.571411e+00 3.576145e+00 3.571384e+00 3.576121e+00 3.571363e+00 3.576101e+00 3.571345e+00 3.576085e+00 3.571331e+00 3.576072e+00 3.571319e+00 3.576060e+00 3.571309e+00 3.576051e+00 3.571301e+00 3.576044e+00 3.571294e+00 3.576038e+00 3.571289e+00 3.576033e+00 3.571284e+00 3.576029e+00 3.571281e+00 3.576025e+00 3.571278e+00 3.576022e+00 3.571275e+00 3.576020e+00 3.571273e+00 3.576018e+00 3.571271e+00 3.576017e+00 3.571270e+00 3.576015e+00 3.571269e+00 3.576014e+00 3.571268e+00 3.576013e+00 3.571267e+00 3.576013e+00 3.571266e+00 3.576012e+00 3.571266e+00 3.576012e+00 3.571265e+00 3.576011e+00 3.571265e+00 3.576011e+00 3.571265e+00 3.576011e+00 3.571265e+00 3.576010e+00 3.571264e+00 3.576010e+00 3.571264e+00 3.576010e+00 3.571264e+00 3.576010e+00 3.571264e+00 3.576010e+00 3.571264e+00 3.576010e+00 3.571264e+00 3.576010e+00 3.571264e+00 3.576010e+00 3.571264e+00 3.576010e+00 3.571264e+00 3.576010e+00 3.571264e+00 3.576010e+00 3.571264e+00 3.576010e+00 3.571264e+00 3.576010e+00 3.571264e+00 3.576010e+00 3.571264e+00 3.576009e+00 3.571264e+00 3.576009e+00 3.571263e+00 3.576009e+00 3.571263e+00 3.576009e+00 3.571263e+00 3.576009e+00 3.571263e+00 3.576009e+00 3.571263e+00 3.576009e+00 3.571263e+00 3.576009e+00 3.571263e+00 3.576009e+00 3.571263e+00 3.576009e+00 3.571263e+00 3.576009e+00 3.571263e+00 3.576009e+00 3.571263e+00 3.576009e+00 3.571263e+00 3.576009e+00 3.571263e+00 3.576009e+00 3.571263e+00 3.576009e+00 3.571263e+00 3.576009e+00 3.571263e+00 3.576009e+00 3.571263e+00 3.576009e+00 3.571263e+00 3.576008e+00 3.571262e+00 3.576008e+00 3.571262e+00 3.576008e+00 3.571262e+00 3.576007e+00 3.571262e+00 3.576007e+00 3.571261e+00 3.576007e+00 3.571261e+00 3.576006e+00 3.571260e+00 3.576005e+00 3.571259e+00 3.576004e+00 3.571258e+00 3.576003e+00 3.571257e+00 3.576002e+00 3.571256e+00 3.576000e+00 3.571254e+00 3.575998e+00 3.571252e+00 3.575995e+00 3.571250e+00 3.575992e+00 3.571247e+00 3.575989e+00 3.571243e+00 3.575984e+00 3.571239e+00 3.575979e+00 3.571234e+00 3.575972e+00 3.571227e+00 3.575964e+00 3.571219e+00 3.575955e+00 3.571210e+00 3.575943e+00 3.571198e+00 3.575928e+00 3.571184e+00 3.575911e+00 3.571167e+00 3.575890e+00 3.571146e+00 3.575864e+00 3.571121e+00 3.575833e+00 3.571090e+00 3.575794e+00 3.571053e+00 3.575748e+00 3.571008e+00 3.575691e+00 3.570952e+00 3.575623e+00 3.570885e+00 3.575539e+00 3.570803e+00 3.575437e+00 3.570703e+00 3.575312e+00 3.570581e+00 3.575161e+00 3.570432e+00 3.574976e+00 3.570251e+00 3.574749e+00 3.570028e+00 3.574473e+00 3.569757e+00 3.574134e+00 3.569423e+00 3.573719e+00 3.569014e+00 3.573209e+00 3.568509e+00 3.572580e+00 3.567887e+00 3.571804e+00 3.567115e+00 3.570841e+00 3.566154e+00 3.569642e+00 3.564950e+00 3.568140e+00 3.563434e+00 3.566244e+00 3.561505e+00 3.563831e+00 3.559024e+00 3.560723e+00 3.555788e+00 3.556661e+00 3.551484e+00 3.551245e+00 3.545614e+00 3.543828e+00 3.537313e+00 3.533281e+00 3.524949e+00 3.517415e+00 3.504996e+00 3.491390e+00 3.468516e+00 3.442548e+00 3.388437e+00 3.331764e+00 3.168964e+00 3.022631e+00 2.442751e+00 
3.585731e+00 3.566450e+00 3.585582e+00 3.568279e+00 3.506997e+00 3.472516e+00 3.457812e+00 3.447200e+00 3.455881e+00 3.452126e+00 3.467553e+00 3.464910e+00 3.482484e+00 3.480041e+00 3.498768e+00 3.496733e+00 3.516579e+00 3.515350e+00 3.536527e+00 3.536482e+00 3.559238e+00 3.560683e+00 3.585213e+00 3.588330e+00 3.614715e+00 3.619526e+00 3.647689e+00 3.654027e+00 3.683724e+00 3.691233e+00 3.722081e+00 3.730249e+00 3.761769e+00 3.769971e+00 3.801650e+00 3.809192e+00 3.840527e+00 3.846690e+00 3.877222e+00 3.881298e+00 3.910626e+00 3.911959e+00 3.939745e+00 3.937772e+00 3.963737e+00 3.958036e+00 3.981957e+00 3.972287e+00 3.993994e+00 3.980323e+00 3.999702e+00 3.982205e+00 3.999205e+00 3.978249e+00 3.992882e+00 3.968980e+00 3.981330e+00 3.955084e+00 3.965305e+00 3.937355e+00 3.945662e+00 3.916632e+00 3.923290e+00 3.893753e+00 3.899060e+00 3.869514e+00 3.873783e+00 3.844639e+00 3.848180e+00 3.819763e+00 3.822866e+00 3.795418e+00 3.798344e+00 3.772034e+00 3.775008e+00 3.749940e+00 3.753146e+00 3.729373e+00 3.732956e+00 3.710485e+00 3.714548e+00 3.693354e+00 3.697965e+00 3.677995e+00 3.683188e+00 3.664368e+00 3.670152e+00 3.652395e+00 3.658758e+00 3.641967e+00 3.648880e+00 3.632957e+00 3.640379e+00 3.625226e+00 3.633113e+00 3.618635e+00 3.626936e+00 3.613045e+00 3.621713e+00 3.608328e+00 3.617315e+00 3.604362e+00 3.613626e+00 3.601041e+00 3.610542e+00 3.598267e+00 3.607970e+00 3.595957e+00 3.605830e+00 3.594036e+00 3.604053e+00 3.592443e+00 3.602580e+00 3.591123e+00 3.601361e+00 3.590030e+00 3.600352e+00 3.589128e+00 3.599519e+00 3.588382e+00 3.598832e+00 3.587767e+00 3.598265e+00 3.587259e+00 3.597797e+00 3.586841e+00 3.597412e+00 3.586497e+00 3.597094e+00 3.586213e+00 3.596833e+00 3.585979e+00 3.596618e+00 3.585787e+00 3.596441e+00 3.585628e+00 3.596295e+00 3.585498e+00 3.596175e+00 3.585391e+00 3.596076e+00 3.585303e+00 3.595995e+00 3.585230e+00 3.595928e+00 3.585170e+00 3.595873e+00 3.585121e+00 3.595828e+00 3.585081e+00 3.595791e+00 3.585048e+00 3.595760e+00 3.585021e+00 3.595735e+00 3.584998e+00 3.595715e+00 3.584980e+00 3.595698e+00 3.584964e+00 3.595684e+00 3.584952e+00 3.595672e+00 3.584942e+00 3.595663e+00 3.584933e+00 3.595655e+00 3.584926e+00 3.595648e+00 3.584921e+00 3.595643e+00 3.584916e+00 3.595639e+00 3.584912e+00 3.595635e+00 3.584909e+00 3.595632e+00 3.584906e+00 3.595630e+00 3.584904e+00 3.595628e+00 3.584902e+00 3.595626e+00 3.584901e+00 3.595625e+00 3.584900e+00 3.595624e+00 3.584899e+00 3.595623e+00 3.584898e+00 3.595622e+00 3.584897e+00 3.595622e+00 3.584897e+00 3.595621e+00 3.584896e+00 3.595621e+00 3.584896e+00 3.595620e+00 3.584896e+00 3.595620e+00 3.584895e+00 3.595620e+00 3.584895e+00 3.595620e+00 3.584895e+00 3.595620e+00 3.584895e+00 3.595620e+00 3.584895e+00 3.595619e+00 3.584895e+00 3.595619e+00 3.584894e+00 3.595619e+00 3.584894e+00 3.595619e+00 3.584894e+00 3.595619e+00 3.584894e+00 3.595619e+00 3.584894e+00 3.595619e+00 3.584894e+00 3.595619e+00 3.584894e+00 3.595619e+00 3.584894e+00 3.595619e+00 3.584894e+00 3.595619e+00 3.584894e+00 3.595619e+00 3.584894e+00 3.595619e+00 3.584894e+00 3.595619e+00 3.584894e+00 3.595619e+00 3.584894e+00 3.595619e+00 3.584894e+00 3.595619e+00 3.584894e+00 3.595619e+00 3.584894e+00 3.595619e+00 3.584894e+00 3.595619e+00 3.584894e+00 3.595619e+00 3.584894e+00 3.595619e+00 3.584894e+00 3.595619e+00 3.584894e+00 3.595619e+00 3.584894e+00 3.595619e+00 3.584894e+00 3.595619e+00 3.584894e+00 3.595619e+00 3.584894e+00 3.595619e+00 3.584894e+00 3.595619e+00 3.584894e+00 3.595619e+00 3.584894e+00 3.595619e+00 3.584894e+00 3.595619e+00 3.584894e+00 3.595619e+00 3.584894e+00 3.595619e+00 3.584894e+00 3.595619e+00 3.584894e+00 3.595619e+00 3.584894e+00 3.595619e+00 3.584894e+00 3.595619e+00 3.584894e+00 3.595618e+00 3.584893e+00 3.595618e+00 3.584893e+00 3.595618e+00 3.584893e+00 3.595618e+00 3.584893e+00 3.595618e+00 3.584893e+00 3.595618e+00 3.584892e+00 3.595617e+00 3.584892e+00 3.595617e+00 3.584892e+00 3.595617e+00 3.584891e+00 3.595616e+00 3.584890e+00 3.595616e+00 3.584890e+00 3.595615e+00 3.584889e+00 3.595614e+00 3.584888e+00 3.595613e+00 3.584886e+00 3.595612e+00 3.584885e+00 3.595611e+00 3.584883e+00 3.595609e+00 3.584880e+00 3.595607e+00 3.584877e+00 3.595605e+00 3.584874e+00 3.595602e+00 3.584870e+00 3.595599e+00 3.584865e+00 3.595594e+00 3.584859e+00 3.595589e+00 3.584851e+00 3.595583e+00 3.584842e+00 3.595576e+00 3.584832e+00 3.595567e+00 3.584819e+00 3.595557e+00 3.584803e+00 3.595544e+00 3.584784e+00 3.595528e+00 3.584760e+00 3.595509e+00 3.584732e+00 3.595486e+00 3.584698e+00 3.595458e+00 3.584656e+00 3.595424e+00 3.584605e+00 3.595382e+00 3.584542e+00 3.595331e+00 3.584464e+00 3.595267e+00 3.584368e+00 3.595187e+00 3.584249e+00 3.595087e+00 3.584099e+00 3.594960e+00 3.583910e+00 3.594796e+00 3.583668e+00 3.594581e+00 3.583353e+00 3.594294e+00 3.582936e+00 3.593897e+00 3.582367e+00 3.593326e+00 3.581564e+00 3.592456e+00 3.580370e+00 3.591037e+00 3.578487e+00 3.588567e+00 3.575443e+00 3.584705e+00 3.572107e+00 3.590747e+00 3.587352e+00 
3.626728e+00 3.613458e+00 3.626792e+00 3.606396e+00 3.472963e+00 3.441864e+00 3.393874e+00 3.400097e+00 3.390566e+00 3.406471e+00 3.409207e+00 3.424606e+00 3.431438e+00 3.444559e+00 3.453406e+00 3.464743e+00 3.475237e+00 3.485654e+00 3.497873e+00 3.508160e+00 3.522283e+00 3.533069e+00 3.549256e+00 3.560981e+00 3.579300e+00 3.592194e+00 3.612579e+00 3.626645e+00 3.648884e+00 3.663908e+00 3.687659e+00 3.703241e+00 3.728073e+00 3.743666e+00 3.769110e+00 3.784065e+00 3.809648e+00 3.823257e+00 3.848521e+00 3.860057e+00 3.884574e+00 3.893338e+00 3.916704e+00 3.922078e+00 3.943914e+00 3.945419e+00 3.965372e+00 3.962717e+00 3.980470e+00 3.973589e+00 3.988879e+00 3.977934e+00 3.990578e+00 3.975940e+00 3.985854e+00 3.968057e+00 3.975271e+00 3.954953e+00 3.959614e+00 3.937452e+00 3.939810e+00 3.916468e+00 3.916850e+00 3.892940e+00 3.891720e+00 3.867772e+00 3.865342e+00 3.841792e+00 3.838534e+00 3.815726e+00 3.811991e+00 3.790179e+00 3.786276e+00 3.765635e+00 3.761824e+00 3.742463e+00 3.738948e+00 3.720919e+00 3.717856e+00 3.701168e+00 3.698665e+00 3.683288e+00 3.681412e+00 3.667289e+00 3.666070e+00 3.653124e+00 3.652564e+00 3.640704e+00 3.640783e+00 3.629908e+00 3.630588e+00 3.620597e+00 3.621832e+00 3.612622e+00 3.614358e+00 3.605833e+00 3.608015e+00 3.600084e+00 3.602658e+00 3.595238e+00 3.598153e+00 3.591169e+00 3.594378e+00 3.587764e+00 3.591224e+00 3.584924e+00 3.588597e+00 3.582559e+00 3.586412e+00 3.580595e+00 3.584599e+00 3.578966e+00 3.583097e+00 3.577618e+00 3.581854e+00 3.576502e+00 3.580827e+00 3.575580e+00 3.579978e+00 3.574820e+00 3.579278e+00 3.574192e+00 3.578701e+00 3.573674e+00 3.578225e+00 3.573248e+00 3.577833e+00 3.572896e+00 3.577510e+00 3.572607e+00 3.577244e+00 3.572369e+00 3.577025e+00 3.572173e+00 3.576845e+00 3.572011e+00 3.576697e+00 3.571879e+00 3.576575e+00 3.571769e+00 3.576474e+00 3.571680e+00 3.576392e+00 3.571606e+00 3.576324e+00 3.571545e+00 3.576268e+00 3.571495e+00 3.576222e+00 3.571454e+00 3.576184e+00 3.571420e+00 3.576153e+00 3.571392e+00 3.576128e+00 3.571369e+00 3.576107e+00 3.571350e+00 3.576089e+00 3.571335e+00 3.576075e+00 3.571322e+00 3.576063e+00 3.571312e+00 3.576054e+00 3.571303e+00 3.576046e+00 3.571296e+00 3.576039e+00 3.571290e+00 3.576034e+00 3.571286e+00 3.576030e+00 3.571282e+00 3.576026e+00 3.571278e+00 3.576023e+00 3.571276e+00 3.576021e+00 3.571274e+00 3.576019e+00 3.571272e+00 3.576017e+00 3.571270e+00 3.576016e+00 3.571269e+00 3.576015e+00 3.571268e+00 3.576014e+00 3.571267e+00 3.576013e+00 3.571267e+00 3.576012e+00 3.571266e+00 3.576012e+00 3.571266e+00 3.576011e+00 3.571265e+00 3.576011e+00 3.571265e+00 3.576011e+00 3.571265e+00 3.576011e+00 3.571264e+00 3.576010e+00 3.571264e+00 3.576010e+00 3.571264e+00 3.576010e+00 3.571264e+00 3.576010e+00 3.571264e+00 3.576010e+00 3.571264e+00 3.576010e+00 3.571264e+00 3.576010e+00 3.571264e+00 3.576010e+00 3.571264e+00 3.576010e+00 3.571264e+00 3.576010e+00 3.571264e+00 3.576010e+00 3.571264e+00 3.576010e+00 3.571264e+00 3.576010e+00 3.571264e+00 3.576009e+00 3.571264e+00 3.576009e+00 3.571263e+00 3.576009e+00 3.571263e+00 3.576009e+00 3.571263e+00 3.576009e+00 3.571263e+00 3.576009e+00 3.571263e+00 3.576009e+00 3.571263e+00 3.576009e+00 3.571263e+00 3.576009e+00 3.571263e+00 3.576009e+00 3.571263e+00 3.576009e+00 3.571263e+00 3.576009e+00 3.571263e+00 3.576009e+00 3.571263e+00 3.576009e+00 3.571263e+00 3.576009e+00 3.571263e+00 3.576009e+00 3.571263e+00 3.576009e+00 3.571263e+00 3.576009e+00 3.571263e+00 3.576009e+00 3.571263e+00 3.576008e+00 3.571262e+00 3.576008e+00 3.571262e+00 3.576008e+00 3.571262e+00 3.576007e+00 3.571262e+00 3.576007e+00 3.571261e+00 3.576007e+00 3.571261e+00 3.576006e+00 3.571260e+00 3.576005e+00 3.571259e+00 3.576004e+00 3.571258e+00 3.576003e+00 3.571257e+00 3.576002e+00 3.571256e+00 3.576000e+00 3.571254e+00 3.575998e+00 3.571252e+00 3.575996e+00 3.571250e+00 3.575993e+00 3.571247e+00 3.575989e+00 3.571244e+00 3.575985e+00 3.571239e+00 3.575979e+00 3.571234e+00 3.575973e+00 3.571228e+00 3.575965e+00 3.571220e+00 3.575956e+00 3.571211e+00 3.575944e+00 3.571199e+00 3.575930e+00 3.571185e+00 3.575913e+00 3.571168e+00 3.575892e+00 3.571148e+00 3.575866e+00 3.571123e+00 3.575836e+00 3.571093e+00 3.575798e+00 3.571056e+00 3.575752e+00 3.571011e+00 3.575697e+00 3.570957e+00 3.575629e+00 3.570890e+00 3.575547e+00 3.570809e+00 3.575447e+00 3.570711e+00 3.575324e+00 3.570591e+00 3.575175e+00 3.570444e+00 3.574994e+00 3.570265e+00 3.574772e+00 3.570046e+00 3.574500e+00 3.569779e+00 3.574168e+00 3.569451e+00 3.573762e+00 3.569049e+00 3.573262e+00 3.568554e+00 3.572647e+00 3.567943e+00 3.571888e+00 3.567187e+00 3.570949e+00 3.566248e+00 3.569780e+00 3.565075e+00 3.568320e+00 3.563601e+00 3.566484e+00 3.561734e+00 3.564156e+00 3.559346e+00 3.561174e+00 3.556254e+00 3.557308e+00 3.552189e+00 3.552213e+00 3.546738e+00 3.545364e+00 3.539249e+00 3.535924e+00 3.528660e+00 3.522539e+00 3.513267e+00 3.503081e+00 3.490767e+00 3.474971e+00 3.461071e+00 3.440066e+00 3.446240e+00 3.434738e+00 3.600009e+00 
3.592323e+00 3.580004e+00 3.592224e+00 3.587509e+00 3.620688e+00 3.601632e+00 3.597308e+00 3.570220e+00 3.564908e+00 3.543353e+00 3.544648e+00 3.529067e+00 3.535933e+00 3.524574e+00 3.535338e+00 3.526967e+00 3.540614e+00 3.534643e+00 3.550708e+00 3.546941e+00 3.565276e+00 3.563706e+00 3.584300e+00 3.584962e+00 3.607818e+00 3.610687e+00 3.635741e+00 3.640663e+00 3.667752e+00 3.674419e+00 3.703280e+00 3.711225e+00 3.741525e+00 3.750145e+00 3.781508e+00 3.790089e+00 3.822120e+00 3.829864e+00 3.862157e+00 3.868223e+00 3.900349e+00 3.903906e+00 3.935408e+00 3.935697e+00 3.966081e+00 3.962493e+00 3.991237e+00 3.983370e+00 4.009954e+00 3.997662e+00 4.021612e+00 4.005014e+00 4.025954e+00 4.005412e+00 4.023118e+00 3.999185e+00 4.013609e+00 3.986961e+00 3.998242e+00 3.969606e+00 3.978039e+00 3.948132e+00 3.954134e+00 3.923611e+00 3.927665e+00 3.897097e+00 3.899706e+00 3.869558e+00 3.871205e+00 3.841842e+00 3.842961e+00 3.814651e+00 3.815616e+00 3.788539e+00 3.789653e+00 3.763920e+00 3.765418e+00 3.741080e+00 3.743131e+00 3.720192e+00 3.722911e+00 3.701334e+00 3.704786e+00 3.684510e+00 3.688717e+00 3.669658e+00 3.674614e+00 3.656672e+00 3.662345e+00 3.645416e+00 3.651758e+00 3.635733e+00 3.642687e+00 3.627459e+00 3.634963e+00 3.620432e+00 3.628420e+00 3.614492e+00 3.622905e+00 3.609494e+00 3.618275e+00 3.605304e+00 3.614400e+00 3.601803e+00 3.611167e+00 3.598885e+00 3.608475e+00 3.596458e+00 3.606240e+00 3.594444e+00 3.604386e+00 3.592775e+00 3.602851e+00 3.591393e+00 3.601582e+00 3.590251e+00 3.600533e+00 3.589308e+00 3.599667e+00 3.588530e+00 3.598952e+00 3.587888e+00 3.598363e+00 3.587359e+00 3.597878e+00 3.586922e+00 3.597478e+00 3.586563e+00 3.597149e+00 3.586268e+00 3.596878e+00 3.586024e+00 3.596654e+00 3.585824e+00 3.596471e+00 3.585659e+00 3.596320e+00 3.585523e+00 3.596195e+00 3.585411e+00 3.596093e+00 3.585320e+00 3.596009e+00 3.585244e+00 3.595939e+00 3.585182e+00 3.595883e+00 3.585131e+00 3.595836e+00 3.585089e+00 3.595797e+00 3.585054e+00 3.595766e+00 3.585026e+00 3.595739e+00 3.585002e+00 3.595718e+00 3.584983e+00 3.595700e+00 3.584967e+00 3.595686e+00 3.584954e+00 3.595674e+00 3.584944e+00 3.595664e+00 3.584935e+00 3.595656e+00 3.584928e+00 3.595650e+00 3.584922e+00 3.595644e+00 3.584917e+00 3.595640e+00 3.584913e+00 3.595636e+00 3.584909e+00 3.595633e+00 3.584907e+00 3.595630e+00 3.584904e+00 3.595628e+00 3.584903e+00 3.595627e+00 3.584901e+00 3.595625e+00 3.584900e+00 3.595624e+00 3.584899e+00 3.595623e+00 3.584898e+00 3.595622e+00 3.584897e+00 3.595622e+00 3.584897e+00 3.595621e+00 3.584896e+00 3.595621e+00 3.584896e+00 3.595621e+00 3.584896e+00 3.595620e+00 3.584895e+00 3.595620e+00 3.584895e+00 3.595620e+00 3.584895e+00 3.595620e+00 3.584895e+00 3.595620e+00 3.584895e+00 3.595619e+00 3.584895e+00 3.595619e+00 3.584894e+00 3.595619e+00 3.584894e+00 3.595619e+00 3.584894e+00 3.595619e+00 3.584894e+00 3.595619e+00 3.584894e+00 3.595619e+00 3.584894e+00 3.595619e+00 3.584894e+00 3.595619e+00 3.584894e+00 3.595619e+00 3.584894e+00 3.595619e+00 3.584894e+00 3.595619e+00 3.584894e+00 3.595619e+00 3.584894e+00 3.595619e+00 3.584894e+00 3.595619e+00 3.584894e+00 3.595619e+00 3.584894e+00 3.595619e+00 3.584894e+00 3.595619e+00 3.584894e+00 3.595619e+00 3.584894e+00 3.595619e+00 3.584894e+00 3.595619e+00 3.584894e+00 3.595619e+00 3.584894e+00 3.595619e+00 3.584894e+00 3.595619e+00 3.584894e+00 3.595619e+00 3.584894e+00 3.595619e+00 3.584894e+00 3.595619e+00 3.584894e+00 3.595619e+00 3.584894e+00 3.595619e+00 3.584894e+00 3.595619e+00 3.584894e+00 3.595619e+00 3.584894e+00 3.595619e+00 3.584894e+00 3.595619e+00 3.584894e+00 3.595619e+00 3.584894e+00 3.595619e+00 3.584894e+00 3.595619e+00 3.584894e+00 3.595619e+00 3.584894e+00 3.595619e+00 3.584894e+00 3.595618e+00 3.584893e+00 3.595618e+00 3.584893e+00 3.595618e+00 3.584893e+00 3.595618e+00 3.584893e+00 3.595618e+00 3.584893e+00 3.595618e+00 3.584892e+00 3.595617e+00 3.584892e+00 3.595617e+00 3.584892e+00 3.595617e+00 3.584891e+00 3.595616e+00 3.584890e+00 3.595616e+00 3.584890e+00 3.595615e+00 3.584889e+00 3.595614e+00 3.584887e+00 3.595613e+00 3.584886e+00 3.595612e+00 3.584884e+00 3.595611e+00 3.584882e+00 3.595609e+00 3.584880e+00 3.595607e+00 3.584877e+00 3.595605e+00 3.584874e+00 3.595602e+00 3.584869e+00 3.595599e+00 3.584864e+00 3.595594e+00 3.584858e+00 3.595589e+00 3.584850e+00 3.595583e+00 3.584841e+00 3.595576e+00 3.584830e+00 3.595567e+00 3.584817e+00 3.595557e+00 3.584801e+00 3.595544e+00 3.584781e+00 3.595528e+00 3.584757e+00 3.595510e+00 3.584729e+00 3.595487e+00 3.584694e+00 3.595459e+00 3.584651e+00 3.595425e+00 3.584599e+00 3.595384e+00 3.584535e+00 3.595333e+00 3.584457e+00 3.595271e+00 3.584361e+00 3.595194e+00 3.584243e+00 3.595098e+00 3.584096e+00 3.594979e+00 3.583913e+00 3.594828e+00 3.583683e+00 3.594637e+00 3.583394e+00 3.594391e+00 3.583026e+00 3.594076e+00 3.582558e+00 3.593674e+00 3.581972e+00 3.593185e+00 3.581281e+00 3.592702e+00 3.580647e+00 3.592697e+00 3.580796e+00 3.594987e+00 3.584161e+00 3.604175e+00 3.592247e+00 
3.624716e+00 3.611189e+00 3.624693e+00 3.610901e+00 3.577176e+00 3.565803e+00 3.537411e+00 3.531545e+00 3.513788e+00 3.512320e+00 3.503043e+00 3.504155e+00 3.500748e+00 3.503260e+00 3.503993e+00 3.507432e+00 3.511357e+00 3.515690e+00 3.522357e+00 3.527780e+00 3.537023e+00 3.543817e+00 3.555612e+00 3.564041e+00 3.578394e+00 3.588628e+00 3.605500e+00 3.617558e+00 3.636834e+00 3.650555e+00 3.672032e+00 3.687071e+00 3.710475e+00 3.726312e+00 3.751315e+00 3.767271e+00 3.793503e+00 3.808768e+00 3.835814e+00 3.849491e+00 3.876881e+00 3.888047e+00 3.915242e+00 3.923037e+00 3.949428e+00 3.953141e+00 3.978062e+00 3.977216e+00 3.999981e+00 3.994384e+00 4.014351e+00 4.004113e+00 4.020758e+00 4.006264e+00 4.019252e+00 4.001105e+00 4.010333e+00 3.989271e+00 3.994873e+00 3.971689e+00 3.974008e+00 3.949480e+00 3.949010e+00 3.923845e+00 3.921161e+00 3.895967e+00 3.891667e+00 3.866937e+00 3.861589e+00 3.837703e+00 3.831811e+00 3.809043e+00 3.803032e+00 3.781565e+00 3.775773e+00 3.755717e+00 3.750400e+00 3.731801e+00 3.727139e+00 3.709994e+00 3.706103e+00 3.690370e+00 3.687310e+00 3.672919e+00 3.670707e+00 3.657566e+00 3.656183e+00 3.644187e+00 3.643591e+00 3.632628e+00 3.632759e+00 3.622715e+00 3.623506e+00 3.614270e+00 3.615648e+00 3.607116e+00 3.609011e+00 3.601084e+00 3.603428e+00 3.596019e+00 3.598750e+00 3.591782e+00 3.594843e+00 3.588247e+00 3.591588e+00 3.585305e+00 3.588883e+00 3.582862e+00 3.586638e+00 3.580836e+00 3.584778e+00 3.579159e+00 3.583240e+00 3.577773e+00 3.581968e+00 3.576627e+00 3.580918e+00 3.575681e+00 3.580052e+00 3.574901e+00 3.579338e+00 3.574258e+00 3.578749e+00 3.573728e+00 3.578264e+00 3.573292e+00 3.577865e+00 3.572932e+00 3.577536e+00 3.572636e+00 3.577265e+00 3.572393e+00 3.577042e+00 3.572192e+00 3.576859e+00 3.572028e+00 3.576708e+00 3.571892e+00 3.576584e+00 3.571780e+00 3.576482e+00 3.571689e+00 3.576398e+00 3.571613e+00 3.576329e+00 3.571551e+00 3.576272e+00 3.571500e+00 3.576226e+00 3.571458e+00 3.576187e+00 3.571423e+00 3.576156e+00 3.571395e+00 3.576130e+00 3.571372e+00 3.576108e+00 3.571352e+00 3.576091e+00 3.571337e+00 3.576076e+00 3.571324e+00 3.576064e+00 3.571313e+00 3.576055e+00 3.571304e+00 3.576047e+00 3.571297e+00 3.576040e+00 3.571291e+00 3.576035e+00 3.571286e+00 3.576030e+00 3.571282e+00 3.576026e+00 3.571279e+00 3.576023e+00 3.571276e+00 3.576021e+00 3.571274e+00 3.576019e+00 3.571272e+00 3.576017e+00 3.571270e+00 3.576016e+00 3.571269e+00 3.576015e+00 3.571268e+00 3.576014e+00 3.571267e+00 3.576013e+00 3.571267e+00 3.576012e+00 3.571266e+00 3.576012e+00 3.571266e+00 3.576011e+00 3.571265e+00 3.576011e+00 3.571265e+00 3.576011e+00 3.571265e+00 3.576011e+00 3.571264e+00 3.576010e+00 3.571264e+00 3.576010e+00 3.571264e+00 3.576010e+00 3.571264e+00 3.576010e+00 3.571264e+00 3.576010e+00 3.571264e+00 3.576010e+00 3.571264e+00 3.576010e+00 3.571264e+00 3.576010e+00 3.571264e+00 3.576010e+00 3.571264e+00 3.576010e+00 3.571264e+00 3.576010e+00 3.571264e+00 3.576010e+00 3.571264e+00 3.576010e+00 3.571264e+00 3.576009e+00 3.571264e+00 3.576009e+00 3.571263e+00 3.576009e+00 3.571263e+00 3.576009e+00 3.571263e+00 3.576009e+00 3.571263e+00 3.576009e+00 3.571263e+00 3.576009e+00 3.571263e+00 3.576009e+00 3.571263e+00 3.576009e+00 3.571263e+00 3.576009e+00 3.571263e+00 3.576009e+00 3.571263e+00 3.576009e+00 3.571263e+00 3.576009e+00 3.571263e+00 3.576009e+00 3.571263e+00 3.576009e+00 3.571263e+00 3.576009e+00 3.571263e+00 3.576009e+00 3.571263e+00 3.576009e+00 3.571263e+00 3.576009e+00 3.571263e+00 3.576008e+00 3.571262e+00 3.576008e+00 3.571262e+00 3.576008e+00 3.571262e+00 3.576008e+00 3.571262e+00 3.576007e+00 3.571261e+00 3.576007e+00 3.571261e+00 3.576006e+00 3.571260e+00 3.576005e+00 3.571259e+00 3.576005e+00 3.571259e+00 3.576003e+00 3.571258e+00 3.576002e+00 3.571256e+00 3.576001e+00 3.571255e+00 3.575999e+00 3.571253e+00 3.575996e+00 3.571251e+00 3.575994e+00 3.571248e+00 3.575990e+00 3.571245e+00 3.575986e+00 3.571240e+00 3.575981e+00 3.571236e+00 3.575975e+00 3.571230e+00 3.575968e+00 3.571222e+00 3.575959e+00 3.571213e+00 3.575948e+00 3.571203e+00 3.575934e+00 3.571189e+00 3.575918e+00 3.571173e+00 3.575898e+00 3.571154e+00 3.575874e+00 3.571130e+00 3.575845e+00 3.571102e+00 3.575810e+00 3.571067e+00 3.575767e+00 3.571024e+00 3.575714e+00 3.570973e+00 3.575651e+00 3.570910e+00 3.575573e+00 3.570833e+00 3.575479e+00 3.570740e+00 3.575363e+00 3.570627e+00 3.575223e+00 3.570488e+00 3.575052e+00 3.570320e+00 3.574844e+00 3.570114e+00 3.574589e+00 3.569862e+00 3.574278e+00 3.569554e+00 3.573898e+00 3.569177e+00 3.573431e+00 3.568715e+00 3.572859e+00 3.568146e+00 3.572155e+00 3.567445e+00 3.571287e+00 3.566578e+00 3.570214e+00 3.565504e+00 3.568882e+00 3.564165e+00 3.567221e+00 3.562489e+00 3.565142e+00 3.560380e+00 3.562521e+00 3.557707e+00 3.559199e+00 3.554299e+00 3.554962e+00 3.549933e+00 3.549531e+00 3.544338e+00 3.542584e+00 3.537267e+00 3.533857e+00 3.528799e+00 3.523581e+00 3.520338e+00 3.513894e+00 3.517596e+00 3.512783e+00 3.537405e+00 3.542035e+00 3.610383e+00 