# vtk DataFile Version 2.0
Comment goes here
ASCII

DATASET STRUCTURED_POINTS
FIELD FieldData 1
TIME 1 1 double
0.57500000
DIMENSIONS    384   64   1

ORIGIN    0.000   0.000   0.000
SPACING   0.078125 0.078125   1.000

POINT_DATA   24576
SCALARS uMag double
LOOKUP_TABLE default

2.813115e-01 6.526221e-01 2.816115e-01 6.837076e-01 1.226379e+00 1.603232e+00 1.832024e+00 1.998303e+00 2.088031e+00 2.168494e+00 2.213877e+00 2.261244e+00 2.292553e+00 2.325151e+00 2.351538e+00 2.376054e+00 2.400221e+00 2.419327e+00 2.441993e+00 2.456954e+00 2.478334e+00 2.489977e+00 2.510259e+00 2.519282e+00 2.538709e+00 2.545726e+00 2.564538e+00 2.570041e+00 2.588401e+00 2.592724e+00 2.610676e+00 2.613986e+00 2.631454e+00 2.633769e+00 2.650575e+00 2.651803e+00 2.667706e+00 2.667684e+00 2.682418e+00 2.680958e+00 2.694275e+00 2.691200e+00 2.702905e+00 2.698087e+00 2.708063e+00 2.701442e+00 2.709663e+00 2.701257e+00 2.707786e+00 2.697692e+00 2.702671e+00 2.691054e+00 2.694689e+00 2.681768e+00 2.684304e+00 2.670334e+00 2.672042e+00 2.657294e+00 2.658449e+00 2.643197e+00 2.644061e+00 2.628564e+00 2.629377e+00 2.613865e+00 2.614832e+00 2.599501e+00 2.600789e+00 2.585794e+00 2.587527e+00 2.572980e+00 2.575241e+00 2.561214e+00 2.564050e+00 2.550580e+00 2.554007e+00 2.541101e+00 2.545109e+00 2.532753e+00 2.537315e+00 2.525477e+00 2.530553e+00 2.519193e+00 2.524735e+00 2.513807e+00 2.519767e+00 2.509221e+00 2.515548e+00 2.505339e+00 2.511986e+00 2.502068e+00 2.508991e+00 2.499323e+00 2.506482e+00 2.497027e+00 2.504386e+00 2.495112e+00 2.502641e+00 2.493520e+00 2.501191e+00 2.492197e+00 2.499987e+00 2.491101e+00 2.498991e+00 2.490194e+00 2.498166e+00 2.489443e+00 2.497485e+00 2.488824e+00 2.496922e+00 2.488312e+00 2.496458e+00 2.487890e+00 2.496076e+00 2.487542e+00 2.495760e+00 2.487256e+00 2.495500e+00 2.487020e+00 2.495286e+00 2.486826e+00 2.495110e+00 2.486666e+00 2.494965e+00 2.486534e+00 2.494846e+00 2.486425e+00 2.494748e+00 2.486336e+00 2.494667e+00 2.486263e+00 2.494600e+00 2.486203e+00 2.494546e+00 2.486153e+00 2.494501e+00 2.486112e+00 2.494464e+00 2.486079e+00 2.494433e+00 2.486051e+00 2.494408e+00 2.486028e+00 2.494388e+00 2.486010e+00 2.494371e+00 2.485994e+00 2.494357e+00 2.485982e+00 2.494346e+00 2.485971e+00 2.494336e+00 2.485963e+00 2.494328e+00 2.485956e+00 2.494322e+00 2.485950e+00 2.494317e+00 2.485945e+00 2.494313e+00 2.485941e+00 2.494309e+00 2.485938e+00 2.494306e+00 2.485935e+00 2.494304e+00 2.485933e+00 2.494302e+00 2.485931e+00 2.494300e+00 2.485930e+00 2.494299e+00 2.485929e+00 2.494298e+00 2.485928e+00 2.494297e+00 2.485927e+00 2.494296e+00 2.485926e+00 2.494295e+00 2.485926e+00 2.494295e+00 2.485925e+00 2.494295e+00 2.485925e+00 2.494294e+00 2.485925e+00 2.494294e+00 2.485924e+00 2.494294e+00 2.485924e+00 2.494294e+00 2.485924e+00 2.494293e+00 2.485924e+00 2.494293e+00 2.485924e+00 2.494293e+00 2.485924e+00 2.494293e+00 2.485924e+00 2.494293e+00 2.485924e+00 2.494293e+00 2.485923e+00 2.494293e+00 2.485923e+00 2.494293e+00 2.485923e+00 2.494293e+00 2.485923e+00 2.494293e+00 2.485923e+00 2.494293e+00 2.485923e+00 2.494293e+00 2.485923e+00 2.494293e+00 2.485923e+00 2.494293e+00 2.485923e+00 2.494293e+00 2.485923e+00 2.494293e+00 2.485923e+00 2.494293e+00 2.485923e+00 2.494293e+00 2.485923e+00 2.494293e+00 2.485923e+00 2.494293e+00 2.485923e+00 2.494293e+00 2.485923e+00 2.494293e+00 2.485923e+00 2.494293e+00 2.485923e+00 2.494293e+00 2.485923e+00 2.494293e+00 2.485923e+00 2.494293e+00 2.485923e+00 2.494293e+00 2.485923e+00 2.494292e+00 2.485923e+00 2.494292e+00 2.485923e+00 2.494292e+00 2.485923e+00 2.494292e+00 2.485923e+00 2.494292e+00 2.485923e+00 2.494292e+00 2.485923e+00 2.494292e+00 2.485923e+00 2.494292e+00 2.485922e+00 2.494292e+00 2.485922e+00 2.494291e+00 2.485922e+00 2.494291e+00 2.485922e+00 2.494291e+00 2.485921e+00 2.494290e+00 2.485921e+00 2.494290e+00 2.485921e+00 2.494289e+00 2.485920e+00 2.494289e+00 2.485919e+00 2.494288e+00 2.485919e+00 2.494287e+00 2.485917e+00 2.494286e+00 2.485916e+00 2.494284e+00 2.485915e+00 2.494282e+00 2.485913e+00 2.494280e+00 2.485911e+00 2.494277e+00 2.485908e+00 2.494274e+00 2.485905e+00 2.494270e+00 2.485901e+00 2.494265e+00 2.485896e+00 2.494259e+00 2.485890e+00 2.494252e+00 2.485883e+00 2.494243e+00 2.485874e+00 2.494232e+00 2.485864e+00 2.494219e+00 2.485851e+00 2.494203e+00 2.485836e+00 2.494184e+00 2.485817e+00 2.494160e+00 2.485794e+00 2.494132e+00 2.485766e+00 2.494097e+00 2.485732e+00 2.494055e+00 2.485691e+00 2.494004e+00 2.485641e+00 2.493941e+00 2.485580e+00 2.493865e+00 2.485506e+00 2.493773e+00 2.485415e+00 2.493660e+00 2.485306e+00 2.493523e+00 2.485172e+00 2.493357e+00 2.485008e+00 2.493153e+00 2.484810e+00 2.492905e+00 2.484567e+00 2.492602e+00 2.484270e+00 2.492232e+00 2.483907e+00 2.491780e+00 2.483463e+00 2.491225e+00 2.482918e+00 2.490545e+00 2.482249e+00 2.489708e+00 2.481423e+00 2.488676e+00 2.480403e+00 2.487399e+00 2.479138e+00 2.485814e+00 2.477560e+00 2.483836e+00 2.475581e+00 2.481353e+00 2.473082e+00 2.478210e+00 2.469897e+00 2.474196e+00 2.465788e+00 2.469003e+00 2.460408e+00 2.462178e+00 2.453221e+00 2.453014e+00 2.443361e+00 2.440346e+00 2.429320e+00 2.422103e+00 2.408215e+00 2.394201e+00 2.373798e+00 2.347415e+00 2.310251e+00 2.257407e+00 2.170574e+00 2.050269e+00 1.797818e+00 1.492283e+00 6.943066e-01 
2.509407e+00 2.477480e+00 2.509478e+00 2.514221e+00 2.426225e+00 2.372106e+00 2.357139e+00 2.347046e+00 2.367294e+00 2.365134e+00 2.393777e+00 2.392104e+00 2.423332e+00 2.421460e+00 2.453710e+00 2.451472e+00 2.483879e+00 2.480949e+00 2.512879e+00 2.508963e+00 2.540052e+00 2.535050e+00 2.565219e+00 2.559231e+00 2.588588e+00 2.581821e+00 2.610542e+00 2.603198e+00 2.631415e+00 2.623614e+00 2.651359e+00 2.643111e+00 2.670305e+00 2.661509e+00 2.687976e+00 2.678446e+00 2.703949e+00 2.693449e+00 2.717725e+00 2.706009e+00 2.728815e+00 2.715660e+00 2.736807e+00 2.722048e+00 2.741426e+00 2.724975e+00 2.742562e+00 2.724416e+00 2.740284e+00 2.720523e+00 2.734819e+00 2.713597e+00 2.726532e+00 2.704057e+00 2.715883e+00 2.692402e+00 2.703394e+00 2.679173e+00 2.689608e+00 2.664916e+00 2.675059e+00 2.650151e+00 2.660244e+00 2.635347e+00 2.645596e+00 2.620902e+00 2.631473e+00 2.607135e+00 2.618153e+00 2.594278e+00 2.605827e+00 2.582485e+00 2.594610e+00 2.571836e+00 2.584552e+00 2.562351e+00 2.575648e+00 2.554003e+00 2.567853e+00 2.546731e+00 2.561094e+00 2.540454e+00 2.555282e+00 2.535076e+00 2.550320e+00 2.530499e+00 2.546109e+00 2.526625e+00 2.542554e+00 2.523362e+00 2.539565e+00 2.520624e+00 2.537062e+00 2.518334e+00 2.534971e+00 2.516425e+00 2.533231e+00 2.514837e+00 2.531784e+00 2.513518e+00 2.530584e+00 2.512425e+00 2.529590e+00 2.511521e+00 2.528768e+00 2.510773e+00 2.528088e+00 2.510155e+00 2.527527e+00 2.509645e+00 2.527064e+00 2.509224e+00 2.526682e+00 2.508877e+00 2.526368e+00 2.508591e+00 2.526108e+00 2.508356e+00 2.525895e+00 2.508162e+00 2.525719e+00 2.508002e+00 2.525574e+00 2.507871e+00 2.525455e+00 2.507763e+00 2.525357e+00 2.507674e+00 2.525277e+00 2.507601e+00 2.525210e+00 2.507541e+00 2.525156e+00 2.507491e+00 2.525111e+00 2.507450e+00 2.525074e+00 2.507417e+00 2.525044e+00 2.507389e+00 2.525019e+00 2.507367e+00 2.524998e+00 2.507348e+00 2.524981e+00 2.507333e+00 2.524967e+00 2.507320e+00 2.524956e+00 2.507310e+00 2.524946e+00 2.507301e+00 2.524939e+00 2.507294e+00 2.524932e+00 2.507288e+00 2.524927e+00 2.507284e+00 2.524923e+00 2.507280e+00 2.524919e+00 2.507276e+00 2.524916e+00 2.507274e+00 2.524914e+00 2.507272e+00 2.524912e+00 2.507270e+00 2.524910e+00 2.507268e+00 2.524909e+00 2.507267e+00 2.524908e+00 2.507266e+00 2.524907e+00 2.507265e+00 2.524906e+00 2.507265e+00 2.524906e+00 2.507264e+00 2.524905e+00 2.507264e+00 2.524905e+00 2.507263e+00 2.524905e+00 2.507263e+00 2.524904e+00 2.507263e+00 2.524904e+00 2.507263e+00 2.524904e+00 2.507262e+00 2.524904e+00 2.507262e+00 2.524904e+00 2.507262e+00 2.524904e+00 2.507262e+00 2.524903e+00 2.507262e+00 2.524903e+00 2.507262e+00 2.524903e+00 2.507262e+00 2.524903e+00 2.507262e+00 2.524903e+00 2.507262e+00 2.524903e+00 2.507262e+00 2.524903e+00 2.507262e+00 2.524903e+00 2.507262e+00 2.524903e+00 2.507262e+00 2.524903e+00 2.507262e+00 2.524903e+00 2.507262e+00 2.524903e+00 2.507262e+00 2.524903e+00 2.507262e+00 2.524903e+00 2.507262e+00 2.524903e+00 2.507262e+00 2.524903e+00 2.507262e+00 2.524903e+00 2.507262e+00 2.524903e+00 2.507262e+00 2.524903e+00 2.507262e+00 2.524903e+00 2.507262e+00 2.524903e+00 2.507262e+00 2.524903e+00 2.507262e+00 2.524903e+00 2.507262e+00 2.524903e+00 2.507262e+00 2.524903e+00 2.507262e+00 2.524903e+00 2.507262e+00 2.524903e+00 2.507262e+00 2.524903e+00 2.507262e+00 2.524903e+00 2.507262e+00 2.524903e+00 2.507261e+00 2.524903e+00 2.507261e+00 2.524903e+00 2.507261e+00 2.524903e+00 2.507261e+00 2.524903e+00 2.507261e+00 2.524903e+00 2.507261e+00 2.524903e+00 2.507261e+00 2.524903e+00 2.507261e+00 2.524903e+00 2.507261e+00 2.524903e+00 2.507261e+00 2.524903e+00 2.507261e+00 2.524902e+00 2.507261e+00 2.524902e+00 2.507261e+00 2.524902e+00 2.507261e+00 2.524902e+00 2.507260e+00 2.524902e+00 2.507260e+00 2.524902e+00 2.507260e+00 2.524901e+00 2.507260e+00 2.524901e+00 2.507259e+00 2.524901e+00 2.507259e+00 2.524900e+00 2.507258e+00 2.524899e+00 2.507257e+00 2.524899e+00 2.507256e+00 2.524898e+00 2.507255e+00 2.524897e+00 2.507254e+00 2.524895e+00 2.507253e+00 2.524894e+00 2.507251e+00 2.524892e+00 2.507248e+00 2.524890e+00 2.507246e+00 2.524887e+00 2.507242e+00 2.524884e+00 2.507238e+00 2.524880e+00 2.507234e+00 2.524875e+00 2.507228e+00 2.524869e+00 2.507221e+00 2.524862e+00 2.507212e+00 2.524853e+00 2.507202e+00 2.524843e+00 2.507189e+00 2.524830e+00 2.507174e+00 2.524815e+00 2.507156e+00 2.524797e+00 2.507133e+00 2.524774e+00 2.507106e+00 2.524747e+00 2.507073e+00 2.524714e+00 2.507033e+00 2.524673e+00 2.506984e+00 2.524623e+00 2.506924e+00 2.524562e+00 2.506851e+00 2.524487e+00 2.506760e+00 2.524394e+00 2.506649e+00 2.524279e+00 2.506510e+00 2.524134e+00 2.506337e+00 2.523951e+00 2.506119e+00 2.523719e+00 2.505842e+00 2.523419e+00 2.505487e+00 2.523027e+00 2.505025e+00 2.522505e+00 2.504413e+00 2.521795e+00 2.503585e+00 2.520800e+00 2.502432e+00 2.519357e+00 2.500770e+00 2.517169e+00 2.498264e+00 2.513668e+00 2.494293e+00 2.507737e+00 2.487731e+00 2.497356e+00 2.477410e+00 2.482291e+00 2.472356e+00 2.505939e+00 2.541442e+00 
2.573554e+00 2.552915e+00 2.573521e+00 2.542273e+00 2.313336e+00 2.266918e+00 2.209404e+00 2.229857e+00 2.232070e+00 2.264023e+00 2.280308e+00 2.308913e+00 2.328509e+00 2.352261e+00 2.372885e+00 2.392503e+00 2.413398e+00 2.429522e+00 2.450193e+00 2.463267e+00 2.483413e+00 2.493855e+00 2.513393e+00 2.521668e+00 2.540674e+00 2.547247e+00 2.565853e+00 2.571116e+00 2.589414e+00 2.593633e+00 2.611619e+00 2.614916e+00 2.632479e+00 2.634841e+00 2.651775e+00 2.653084e+00 2.669123e+00 2.669191e+00 2.684047e+00 2.682665e+00 2.696072e+00 2.693049e+00 2.704800e+00 2.699996e+00 2.709968e+00 2.703320e+00 2.711489e+00 2.703017e+00 2.709453e+00 2.699260e+00 2.704115e+00 2.692374e+00 2.695864e+00 2.682804e+00 2.685187e+00 2.671072e+00 2.672628e+00 2.657737e+00 2.658749e+00 2.643364e+00 2.644101e+00 2.628486e+00 2.629192e+00 2.613582e+00 2.614465e+00 2.599058e+00 2.600285e+00 2.585236e+00 2.586929e+00 2.572349e+00 2.574590e+00 2.560548e+00 2.563382e+00 2.549911e+00 2.553348e+00 2.540453e+00 2.544481e+00 2.532143e+00 2.536730e+00 2.524916e+00 2.530020e+00 2.518687e+00 2.524259e+00 2.513357e+00 2.519346e+00 2.508827e+00 2.515182e+00 2.504997e+00 2.511670e+00 2.501774e+00 2.508720e+00 2.499072e+00 2.506251e+00 2.496815e+00 2.504192e+00 2.494934e+00 2.502477e+00 2.493369e+00 2.501053e+00 2.492072e+00 2.499873e+00 2.490996e+00 2.498895e+00 2.490106e+00 2.498087e+00 2.489371e+00 2.497419e+00 2.488764e+00 2.496868e+00 2.488262e+00 2.496413e+00 2.487849e+00 2.496038e+00 2.487509e+00 2.495729e+00 2.487228e+00 2.495475e+00 2.486997e+00 2.495265e+00 2.486806e+00 2.495093e+00 2.486650e+00 2.494951e+00 2.486521e+00 2.494834e+00 2.486415e+00 2.494738e+00 2.486328e+00 2.494659e+00 2.486256e+00 2.494594e+00 2.486197e+00 2.494540e+00 2.486148e+00 2.494496e+00 2.486108e+00 2.494460e+00 2.486075e+00 2.494430e+00 2.486048e+00 2.494406e+00 2.486026e+00 2.494386e+00 2.486008e+00 2.494369e+00 2.485993e+00 2.494356e+00 2.485980e+00 2.494344e+00 2.485970e+00 2.494335e+00 2.485962e+00 2.494328e+00 2.485955e+00 2.494321e+00 2.485949e+00 2.494316e+00 2.485945e+00 2.494312e+00 2.485941e+00 2.494309e+00 2.485938e+00 2.494306e+00 2.485935e+00 2.494303e+00 2.485933e+00 2.494302e+00 2.485931e+00 2.494300e+00 2.485930e+00 2.494299e+00 2.485929e+00 2.494298e+00 2.485928e+00 2.494297e+00 2.485927e+00 2.494296e+00 2.485926e+00 2.494295e+00 2.485926e+00 2.494295e+00 2.485925e+00 2.494295e+00 2.485925e+00 2.494294e+00 2.485925e+00 2.494294e+00 2.485924e+00 2.494294e+00 2.485924e+00 2.494294e+00 2.485924e+00 2.494293e+00 2.485924e+00 2.494293e+00 2.485924e+00 2.494293e+00 2.485924e+00 2.494293e+00 2.485924e+00 2.494293e+00 2.485924e+00 2.494293e+00 2.485923e+00 2.494293e+00 2.485923e+00 2.494293e+00 2.485923e+00 2.494293e+00 2.485923e+00 2.494293e+00 2.485923e+00 2.494293e+00 2.485923e+00 2.494293e+00 2.485923e+00 2.494293e+00 2.485923e+00 2.494293e+00 2.485923e+00 2.494293e+00 2.485923e+00 2.494293e+00 2.485923e+00 2.494293e+00 2.485923e+00 2.494293e+00 2.485923e+00 2.494293e+00 2.485923e+00 2.494293e+00 2.485923e+00 2.494293e+00 2.485923e+00 2.494293e+00 2.485923e+00 2.494293e+00 2.485923e+00 2.494293e+00 2.485923e+00 2.494293e+00 2.485923e+00 2.494293e+00 2.485923e+00 2.494293e+00 2.485923e+00 2.494292e+00 2.485923e+00 2.494292e+00 2.485923e+00 2.494292e+00 2.485923e+00 2.494292e+00 2.485923e+00 2.494292e+00 2.485923e+00 2.494292e+00 2.485923e+00 2.494292e+00 2.485923e+00 2.494292e+00 2.485922e+00 2.494292e+00 2.485922e+00 2.494291e+00 2.485922e+00 2.494291e+00 2.485922e+00 2.494291e+00 2.485921e+00 2.494291e+00 2.485921e+00 2.494290e+00 2.485921e+00 2.494289e+00 2.485920e+00 2.494289e+00 2.485919e+00 2.494288e+00 2.485919e+00 2.494287e+00 2.485918e+00 2.494286e+00 2.485916e+00 2.494284e+00 2.485915e+00 2.494282e+00 2.485913e+00 2.494280e+00 2.485911e+00 2.494277e+00 2.485908e+00 2.494274e+00 2.485905e+00 2.494270e+00 2.485901e+00 2.494265e+00 2.485897e+00 2.494260e+00 2.485891e+00 2.494252e+00 2.485884e+00 2.494244e+00 2.485875e+00 2.494233e+00 2.485865e+00 2.494220e+00 2.485853e+00 2.494205e+00 2.485837e+00 2.494186e+00 2.485819e+00 2.494163e+00 2.485796e+00 2.494135e+00 2.485769e+00 2.494101e+00 2.485736e+00 2.494059e+00 2.485695e+00 2.494009e+00 2.485646e+00 2.493948e+00 2.485587e+00 2.493874e+00 2.485514e+00 2.493783e+00 2.485425e+00 2.493673e+00 2.485318e+00 2.493538e+00 2.485186e+00 2.493375e+00 2.485027e+00 2.493176e+00 2.484832e+00 2.492933e+00 2.484594e+00 2.492636e+00 2.484304e+00 2.492274e+00 2.483949e+00 2.491831e+00 2.483514e+00 2.491289e+00 2.482982e+00 2.490624e+00 2.482328e+00 2.489806e+00 2.481522e+00 2.488800e+00 2.480528e+00 2.487556e+00 2.479296e+00 2.486014e+00 2.477763e+00 2.484093e+00 2.475846e+00 2.481687e+00 2.473432e+00 2.478654e+00 2.470367e+00 2.474796e+00 2.466437e+00 2.469837e+00 2.461333e+00 2.463376e+00 2.454595e+00 2.454815e+00 2.445519e+00 2.443228e+00 2.432989e+00 2.427141e+00 2.415193e+00 2.404178e+00 2.389283e+00 2.370757e+00 2.351684e+00 2.323341e+00 2.303781e+00 2.269705e+00 2.286930e+00 2.286283e+00 2.535767e+00 
2.520132e+00 2.500271e+00 2.520067e+00 2.515205e+00 2.558897e+00 2.524098e+00 2.518084e+00 2.479974e+00 2.480264e+00 2.454327e+00 2.466638e+00 2.449949e+00 2.470353e+00 2.459094e+00 2.484204e+00 2.475882e+00 2.503491e+00 2.496527e+00 2.525228e+00 2.518646e+00 2.547611e+00 2.540894e+00 2.569723e+00 2.562687e+00 2.591260e+00 2.583906e+00 2.612227e+00 2.604612e+00 2.632695e+00 2.624839e+00 2.652633e+00 2.644476e+00 2.671838e+00 2.663225e+00 2.689929e+00 2.680630e+00 2.706388e+00 2.696126e+00 2.720636e+00 2.709126e+00 2.732109e+00 2.719101e+00 2.740342e+00 2.725652e+00 2.745031e+00 2.728564e+00 2.746062e+00 2.727820e+00 2.743519e+00 2.723593e+00 2.737660e+00 2.716219e+00 2.728886e+00 2.706156e+00 2.717695e+00 2.693942e+00 2.704645e+00 2.680153e+00 2.690313e+00 2.665365e+00 2.675261e+00 2.650124e+00 2.660005e+00 2.634916e+00 2.644994e+00 2.620150e+00 2.630595e+00 2.606147e+00 2.617082e+00 2.593138e+00 2.604641e+00 2.581266e+00 2.593378e+00 2.570600e+00 2.583329e+00 2.561147e+00 2.574475e+00 2.552864e+00 2.566758e+00 2.545681e+00 2.560094e+00 2.539504e+00 2.554386e+00 2.534230e+00 2.549528e+00 2.529757e+00 2.545417e+00 2.525980e+00 2.541956e+00 2.522807e+00 2.539053e+00 2.520151e+00 2.536626e+00 2.517933e+00 2.534603e+00 2.516086e+00 2.532921e+00 2.514552e+00 2.531524e+00 2.513280e+00 2.530367e+00 2.512227e+00 2.529409e+00 2.511355e+00 2.528617e+00 2.510635e+00 2.527963e+00 2.510041e+00 2.527424e+00 2.509550e+00 2.526978e+00 2.509146e+00 2.526612e+00 2.508813e+00 2.526309e+00 2.508538e+00 2.526060e+00 2.508312e+00 2.525855e+00 2.508126e+00 2.525686e+00 2.507973e+00 2.525547e+00 2.507846e+00 2.525433e+00 2.507743e+00 2.525339e+00 2.507657e+00 2.525262e+00 2.507587e+00 2.525198e+00 2.507529e+00 2.525146e+00 2.507482e+00 2.525102e+00 2.507443e+00 2.525067e+00 2.507410e+00 2.525038e+00 2.507384e+00 2.525014e+00 2.507362e+00 2.524994e+00 2.507344e+00 2.524978e+00 2.507330e+00 2.524965e+00 2.507318e+00 2.524954e+00 2.507308e+00 2.524945e+00 2.507299e+00 2.524937e+00 2.507293e+00 2.524931e+00 2.507287e+00 2.524926e+00 2.507283e+00 2.524922e+00 2.507279e+00 2.524919e+00 2.507276e+00 2.524916e+00 2.507273e+00 2.524914e+00 2.507271e+00 2.524912e+00 2.507269e+00 2.524910e+00 2.507268e+00 2.524909e+00 2.507267e+00 2.524908e+00 2.507266e+00 2.524907e+00 2.507265e+00 2.524906e+00 2.507265e+00 2.524906e+00 2.507264e+00 2.524905e+00 2.507264e+00 2.524905e+00 2.507263e+00 2.524905e+00 2.507263e+00 2.524904e+00 2.507263e+00 2.524904e+00 2.507262e+00 2.524904e+00 2.507262e+00 2.524904e+00 2.507262e+00 2.524904e+00 2.507262e+00 2.524903e+00 2.507262e+00 2.524903e+00 2.507262e+00 2.524903e+00 2.507262e+00 2.524903e+00 2.507262e+00 2.524903e+00 2.507262e+00 2.524903e+00 2.507262e+00 2.524903e+00 2.507262e+00 2.524903e+00 2.507262e+00 2.524903e+00 2.507262e+00 2.524903e+00 2.507262e+00 2.524903e+00 2.507262e+00 2.524903e+00 2.507262e+00 2.524903e+00 2.507262e+00 2.524903e+00 2.507262e+00 2.524903e+00 2.507262e+00 2.524903e+00 2.507262e+00 2.524903e+00 2.507262e+00 2.524903e+00 2.507262e+00 2.524903e+00 2.507262e+00 2.524903e+00 2.507262e+00 2.524903e+00 2.507262e+00 2.524903e+00 2.507262e+00 2.524903e+00 2.507262e+00 2.524903e+00 2.507262e+00 2.524903e+00 2.507262e+00 2.524903e+00 2.507262e+00 2.524903e+00 2.507262e+00 2.524903e+00 2.507262e+00 2.524903e+00 2.507262e+00 2.524903e+00 2.507262e+00 2.524903e+00 2.507261e+00 2.524903e+00 2.507261e+00 2.524903e+00 2.507261e+00 2.524903e+00 2.507261e+00 2.524903e+00 2.507261e+00 2.524903e+00 2.507261e+00 2.524903e+00 2.507261e+00 2.524903e+00 2.507261e+00 2.524903e+00 2.507261e+00 2.524903e+00 2.507261e+00 2.524903e+00 2.507261e+00 2.524903e+00 2.507261e+00 2.524902e+00 2.507261e+00 2.524902e+00 2.507261e+00 2.524902e+00 2.507260e+00 2.524902e+00 2.507260e+00 2.524902e+00 2.507260e+00 2.524901e+00 2.507260e+00 2.524901e+00 2.507259e+00 2.524901e+00 2.507259e+00 2.524900e+00 2.507258e+00 2.524900e+00 2.507257e+00 2.524899e+00 2.507257e+00 2.524898e+00 2.507256e+00 2.524897e+00 2.507254e+00 2.524896e+00 2.507253e+00 2.524894e+00 2.507251e+00 2.524892e+00 2.507249e+00 2.524890e+00 2.507246e+00 2.524888e+00 2.507243e+00 2.524884e+00 2.507239e+00 2.524881e+00 2.507235e+00 2.524876e+00 2.507229e+00 2.524870e+00 2.507222e+00 2.524863e+00 2.507214e+00 2.524855e+00 2.507204e+00 2.524845e+00 2.507192e+00 2.524833e+00 2.507178e+00 2.524819e+00 2.507160e+00 2.524801e+00 2.507139e+00 2.524779e+00 2.507113e+00 2.524753e+00 2.507081e+00 2.524722e+00 2.507043e+00 2.524683e+00 2.506996e+00 2.524636e+00 2.506940e+00 2.524578e+00 2.506870e+00 2.524507e+00 2.506785e+00 2.524420e+00 2.506679e+00 2.524312e+00 2.506550e+00 2.524178e+00 2.506389e+00 2.524010e+00 2.506188e+00 2.523798e+00 2.505935e+00 2.523528e+00 2.505616e+00 2.523183e+00 2.505209e+00 2.522735e+00 2.504686e+00 2.522148e+00 2.504005e+00 2.521369e+00 2.503114e+00 2.520330e+00 2.501951e+00 2.518957e+00 2.500478e+00 2.517252e+00 2.498827e+00 2.515621e+00 2.497870e+00 2.516125e+00 2.501046e+00 2.526060e+00 2.517106e+00 2.556693e+00 2.527595e+00 
2.570765e+00 2.550156e+00 2.570703e+00 2.551353e+00 2.491135e+00 2.467536e+00 2.422161e+00 2.411838e+00 2.390732e+00 2.391790e+00 2.387293e+00 2.394265e+00 2.399592e+00 2.408981e+00 2.420071e+00 2.430033e+00 2.444484e+00 2.454028e+00 2.470346e+00 2.478946e+00 2.496218e+00 2.503679e+00 2.521405e+00 2.527759e+00 2.545713e+00 2.551113e+00 2.569203e+00 2.573820e+00 2.591976e+00 2.595922e+00 2.614027e+00 2.617310e+00 2.635165e+00 2.637687e+00 2.655010e+00 2.656576e+00 2.673032e+00 2.673389e+00 2.688625e+00 2.687501e+00 2.701197e+00 2.698354e+00 2.710266e+00 2.705534e+00 2.715524e+00 2.708826e+00 2.716873e+00 2.708235e+00 2.714428e+00 2.703968e+00 2.708489e+00 2.696405e+00 2.699500e+00 2.686046e+00 2.688005e+00 2.673471e+00 2.674599e+00 2.659291e+00 2.659895e+00 2.644117e+00 2.644485e+00 2.628518e+00 2.628908e+00 2.613002e+00 2.613631e+00 2.597991e+00 2.599029e+00 2.583811e+00 2.585379e+00 2.570691e+00 2.572864e+00 2.558768e+00 2.561582e+00 2.548103e+00 2.551558e+00 2.538689e+00 2.542762e+00 2.530474e+00 2.535126e+00 2.523376e+00 2.528556e+00 2.517294e+00 2.522946e+00 2.512119e+00 2.518186e+00 2.507740e+00 2.514170e+00 2.504054e+00 2.510796e+00 2.500963e+00 2.507971e+00 2.498380e+00 2.505615e+00 2.496228e+00 2.503653e+00 2.494439e+00 2.502024e+00 2.492954e+00 2.500674e+00 2.491724e+00 2.499556e+00 2.490706e+00 2.498631e+00 2.489865e+00 2.497867e+00 2.489171e+00 2.497237e+00 2.488598e+00 2.496717e+00 2.488125e+00 2.496288e+00 2.487736e+00 2.495935e+00 2.487415e+00 2.495644e+00 2.487150e+00 2.495405e+00 2.486933e+00 2.495208e+00 2.486754e+00 2.495045e+00 2.486606e+00 2.494912e+00 2.486485e+00 2.494802e+00 2.486385e+00 2.494711e+00 2.486303e+00 2.494637e+00 2.486236e+00 2.494576e+00 2.486180e+00 2.494526e+00 2.486135e+00 2.494484e+00 2.486097e+00 2.494450e+00 2.486066e+00 2.494422e+00 2.486041e+00 2.494399e+00 2.486020e+00 2.494380e+00 2.486003e+00 2.494365e+00 2.485989e+00 2.494352e+00 2.485977e+00 2.494341e+00 2.485967e+00 2.494333e+00 2.485960e+00 2.494326e+00 2.485953e+00 2.494320e+00 2.485948e+00 2.494315e+00 2.485943e+00 2.494311e+00 2.485940e+00 2.494308e+00 2.485937e+00 2.494305e+00 2.485934e+00 2.494303e+00 2.485932e+00 2.494301e+00 2.485931e+00 2.494300e+00 2.485929e+00 2.494298e+00 2.485928e+00 2.494297e+00 2.485927e+00 2.494296e+00 2.485927e+00 2.494296e+00 2.485926e+00 2.494295e+00 2.485926e+00 2.494295e+00 2.485925e+00 2.494294e+00 2.485925e+00 2.494294e+00 2.485925e+00 2.494294e+00 2.485924e+00 2.494294e+00 2.485924e+00 2.494293e+00 2.485924e+00 2.494293e+00 2.485924e+00 2.494293e+00 2.485924e+00 2.494293e+00 2.485924e+00 2.494293e+00 2.485924e+00 2.494293e+00 2.485923e+00 2.494293e+00 2.485923e+00 2.494293e+00 2.485923e+00 2.494293e+00 2.485923e+00 2.494293e+00 2.485923e+00 2.494293e+00 2.485923e+00 2.494293e+00 2.485923e+00 2.494293e+00 2.485923e+00 2.494293e+00 2.485923e+00 2.494293e+00 2.485923e+00 2.494293e+00 2.485923e+00 2.494293e+00 2.485923e+00 2.494293e+00 2.485923e+00 2.494293e+00 2.485923e+00 2.494293e+00 2.485923e+00 2.494293e+00 2.485923e+00 2.494293e+00 2.485923e+00 2.494293e+00 2.485923e+00 2.494293e+00 2.485923e+00 2.494293e+00 2.485923e+00 2.494293e+00 2.485923e+00 2.494293e+00 2.485923e+00 2.494293e+00 2.485923e+00 2.494292e+00 2.485923e+00 2.494292e+00 2.485923e+00 2.494292e+00 2.485923e+00 2.494292e+00 2.485923e+00 2.494292e+00 2.485923e+00 2.494292e+00 2.485923e+00 2.494292e+00 2.485923e+00 2.494292e+00 2.485922e+00 2.494292e+00 2.485922e+00 2.494292e+00 2.485922e+00 2.494291e+00 2.485922e+00 2.494291e+00 2.485922e+00 2.494291e+00 2.485921e+00 2.494290e+00 2.485921e+00 2.494290e+00 2.485920e+00 2.494289e+00 2.485920e+00 2.494288e+00 2.485919e+00 2.494287e+00 2.485918e+00 2.494286e+00 2.485917e+00 2.494285e+00 2.485915e+00 2.494283e+00 2.485914e+00 2.494281e+00 2.485912e+00 2.494278e+00 2.485909e+00 2.494275e+00 2.485906e+00 2.494272e+00 2.485903e+00 2.494267e+00 2.485898e+00 2.494261e+00 2.485893e+00 2.494255e+00 2.485886e+00 2.494247e+00 2.485878e+00 2.494237e+00 2.485868e+00 2.494225e+00 2.485857e+00 2.494210e+00 2.485842e+00 2.494192e+00 2.485825e+00 2.494170e+00 2.485804e+00 2.494144e+00 2.485778e+00 2.494112e+00 2.485747e+00 2.494073e+00 2.485709e+00 2.494026e+00 2.485662e+00 2.493968e+00 2.485606e+00 2.493898e+00 2.485538e+00 2.493813e+00 2.485455e+00 2.493709e+00 2.485353e+00 2.493583e+00 2.485230e+00 2.493429e+00 2.485080e+00 2.493242e+00 2.484897e+00 2.493014e+00 2.484674e+00 2.492736e+00 2.484402e+00 2.492397e+00 2.484070e+00 2.491983e+00 2.483664e+00 2.491476e+00 2.483168e+00 2.490856e+00 2.482559e+00 2.490096e+00 2.481812e+00 2.489163e+00 2.480893e+00 2.488014e+00 2.479759e+00 2.486596e+00 2.478357e+00 2.484841e+00 2.476615e+00 2.482659e+00 2.474443e+00 2.479935e+00 2.471719e+00 2.476517e+00 2.468286e+00 2.472203e+00 2.463929e+00 2.466723e+00 2.458367e+00 2.459722e+00 2.451237e+00 2.450752e+00 2.442113e+00 2.439316e+00 2.430655e+00 2.425129e+00 2.417181e+00 2.409027e+00 2.404498e+00 2.395748e+00 2.402960e+00 2.400813e+00 2.440036e+00 2.458785e+00 2.549639e+00 