# vtk DataFile Version 2.0
Comment goes here
ASCII

DATASET STRUCTURED_POINTS
FIELD FieldData 1
TIME 1 1 double
2.45000000
DIMENSIONS    384   64   1

ORIGIN    0.000   0.000   0.000
SPACING   0.078125 0.078125   1.000

POINT_DATA   24576
SCALARS uMag double
LOOKUP_TABLE default

4.773422e+00 4.806283e+00 4.773377e+00 4.808017e+00 4.830871e+00 4.857900e+00 4.870910e+00 4.885188e+00 4.892265e+00 4.901298e+00 4.906961e+00 4.914694e+00 4.920881e+00 4.928853e+00 4.936123e+00 4.944831e+00 4.953307e+00 4.963014e+00 4.972834e+00 4.983804e+00 4.995134e+00 5.007576e+00 5.020510e+00 5.034514e+00 5.049051e+00 5.064614e+00 5.080686e+00 5.097733e+00 5.115217e+00 5.133590e+00 5.152284e+00 5.171718e+00 5.191334e+00 5.211453e+00 5.231621e+00 5.251953e+00 5.272248e+00 5.292257e+00 5.312235e+00 5.331363e+00 5.350607e+00 5.368335e+00 5.386499e+00 5.402401e+00 5.419247e+00 5.433040e+00 5.448457e+00 5.460024e+00 5.474020e+00 5.483410e+00 5.496087e+00 5.503484e+00 5.514990e+00 5.520657e+00 5.531139e+00 5.535348e+00 5.544899e+00 5.547878e+00 5.556507e+00 5.558392e+00 5.566018e+00 5.566851e+00 5.573326e+00 5.573078e+00 5.578241e+00 5.576872e+00 5.580611e+00 5.578135e+00 5.580458e+00 5.577004e+00 5.578070e+00 5.573903e+00 5.574028e+00 5.569529e+00 5.569141e+00 5.564759e+00 5.564328e+00 5.560505e+00 5.560468e+00 5.557569e+00 5.558256e+00 5.556506e+00 5.558088e+00 5.557536e+00 5.560000e+00 5.560507e+00 5.563658e+00 5.564915e+00 5.568403e+00 5.569972e+00 5.573346e+00 5.574723e+00 5.577498e+00 5.578181e+00 5.579903e+00 5.579457e+00 5.579769e+00 5.577885e+00 5.576571e+00 5.573094e+00 5.570098e+00 5.565037e+00 5.560454e+00 5.553959e+00 5.548008e+00 5.540330e+00 5.533304e+00 5.524750e+00 5.516969e+00 5.507847e+00 5.499617e+00 5.490206e+00 5.481783e+00 5.472304e+00 5.463881e+00 5.454491e+00 5.446195e+00 5.436984e+00 5.428877e+00 5.419876e+00 5.411968e+00 5.403163e+00 5.395420e+00 5.386761e+00 5.379123e+00 5.370537e+00 5.362927e+00 5.354332e+00 5.346667e+00 5.337980e+00 5.330182e+00 5.321331e+00 5.313334e+00 5.304263e+00 5.296023e+00 5.286696e+00 5.278191e+00 5.268598e+00 5.259828e+00 5.249982e+00 5.240973e+00 5.230909e+00 5.221705e+00 5.211476e+00 5.202139e+00 5.191813e+00 5.182417e+00 5.172073e+00 5.162699e+00 5.152420e+00 5.143154e+00 5.133027e+00 5.123954e+00 5.114063e+00 5.105265e+00 5.095688e+00 5.087241e+00 5.078049e+00 5.070019e+00 5.061274e+00 5.053717e+00 5.045468e+00 5.038427e+00 5.030711e+00 5.024218e+00 5.017061e+00 5.011134e+00 5.004548e+00 4.999194e+00 4.993180e+00 4.988394e+00 4.982942e+00 4.978709e+00 4.973800e+00 4.970098e+00 4.965704e+00 4.962503e+00 4.958592e+00 4.955855e+00 4.952391e+00 4.950080e+00 4.947022e+00 4.945097e+00 4.942405e+00 4.940825e+00 4.938458e+00 4.937184e+00 4.935102e+00 4.934096e+00 4.932264e+00 4.931490e+00 4.929874e+00 4.929300e+00 4.927869e+00 4.927466e+00 4.926192e+00 4.925934e+00 4.924794e+00 4.924659e+00 4.923631e+00 4.923599e+00 4.922666e+00 4.922720e+00 4.921866e+00 4.921992e+00 4.921204e+00 4.921390e+00 4.920657e+00 4.920893e+00 4.920205e+00 4.920483e+00 4.919832e+00 4.920144e+00 4.919524e+00 4.919865e+00 4.919271e+00 4.919635e+00 4.919062e+00 4.919445e+00 4.918890e+00 4.919289e+00 4.918749e+00 4.919161e+00 4.918632e+00 4.919055e+00 4.918536e+00 4.918968e+00 4.918457e+00 4.918896e+00 4.918392e+00 4.918837e+00 4.918339e+00 4.918789e+00 4.918295e+00 4.918749e+00 4.918259e+00 4.918716e+00 4.918229e+00 4.918689e+00 4.918205e+00 4.918667e+00 4.918184e+00 4.918649e+00 4.918168e+00 4.918634e+00 4.918154e+00 4.918622e+00 4.918143e+00 4.918611e+00 4.918134e+00 4.918603e+00 4.918126e+00 4.918596e+00 4.918120e+00 4.918591e+00 4.918115e+00 4.918586e+00 4.918111e+00 4.918582e+00 4.918107e+00 4.918579e+00 4.918105e+00 4.918576e+00 4.918102e+00 4.918574e+00 4.918100e+00 4.918573e+00 4.918099e+00 4.918571e+00 4.918097e+00 4.918570e+00 4.918096e+00 4.918569e+00 4.918095e+00 4.918568e+00 4.918095e+00 4.918567e+00 4.918094e+00 4.918567e+00 4.918093e+00 4.918566e+00 4.918093e+00 4.918566e+00 4.918093e+00 4.918565e+00 4.918092e+00 4.918565e+00 4.918092e+00 4.918565e+00 4.918092e+00 4.918564e+00 4.918091e+00 4.918564e+00 4.918091e+00 4.918564e+00 4.918091e+00 4.918563e+00 4.918090e+00 4.918563e+00 4.918090e+00 4.918562e+00 4.918089e+00 4.918562e+00 4.918089e+00 4.918561e+00 4.918088e+00 4.918560e+00 4.918088e+00 4.918559e+00 4.918087e+00 4.918558e+00 4.918086e+00 4.918557e+00 4.918084e+00 4.918555e+00 4.918083e+00 4.918553e+00 4.918081e+00 4.918551e+00 4.918079e+00 4.918548e+00 4.918076e+00 4.918544e+00 4.918073e+00 4.918540e+00 4.918069e+00 4.918534e+00 4.918064e+00 4.918527e+00 4.918058e+00 4.918519e+00 4.918050e+00 4.918510e+00 4.918041e+00 4.918498e+00 4.918030e+00 4.918483e+00 4.918017e+00 4.918465e+00 4.918000e+00 4.918443e+00 4.917980e+00 4.918417e+00 4.917956e+00 4.918384e+00 4.917926e+00 4.918344e+00 4.917889e+00 4.918294e+00 4.917843e+00 4.918234e+00 4.917787e+00 4.918159e+00 4.917717e+00 4.918066e+00 4.917629e+00 4.917950e+00 4.917520e+00 4.917804e+00 4.917382e+00 4.917621e+00 4.917206e+00 4.917389e+00 4.916979e+00 4.917089e+00 4.916683e+00 4.916699e+00 4.916288e+00 4.916180e+00 4.915749e+00 4.915473e+00 4.914984e+00 4.914476e+00 4.913845e+00 4.912997e+00 4.912005e+00 4.910626e+00 4.908648e+00 4.906337e+00 4.901280e+00 4.897034e+00 4.880886e+00 4.871608e+00 4.810578e+00 
4.919557e+00 4.917846e+00 4.919444e+00 4.913199e+00 4.911088e+00 4.908706e+00 4.909372e+00 4.909361e+00 4.911917e+00 4.913440e+00 4.917541e+00 4.920590e+00 4.926226e+00 4.930815e+00 4.937874e+00 4.943903e+00 4.952289e+00 4.959768e+00 4.969562e+00 4.978654e+00 4.990031e+00 5.000906e+00 5.013993e+00 5.026727e+00 5.041550e+00 5.056120e+00 5.072636e+00 5.088950e+00 5.107063e+00 5.124960e+00 5.144516e+00 5.163740e+00 5.184505e+00 5.204690e+00 5.226346e+00 5.247012e+00 5.269161e+00 5.289735e+00 5.311923e+00 5.331781e+00 5.353534e+00 5.372059e+00 5.392930e+00 5.409576e+00 5.429182e+00 5.443532e+00 5.461585e+00 5.473388e+00 5.489708e+00 5.498895e+00 5.513403e+00 5.520064e+00 5.532766e+00 5.537114e+00 5.548070e+00 5.550383e+00 5.559675e+00 5.560238e+00 5.567943e+00 5.567007e+00 5.573184e+00 5.570949e+00 5.575646e+00 5.572268e+00 5.575544e+00 5.571174e+00 5.573141e+00 5.567971e+00 5.568829e+00 5.563126e+00 5.563187e+00 5.557313e+00 5.556991e+00 5.551383e+00 5.551159e+00 5.546281e+00 5.546639e+00 5.542921e+00 5.544277e+00 5.542043e+00 5.544679e+00 5.544091e+00 5.548105e+00 5.549122e+00 5.554400e+00 5.556774e+00 5.562999e+00 5.566295e+00 5.572983e+00 5.576624e+00 5.583181e+00 5.586523e+00 5.592321e+00 5.594726e+00 5.599180e+00 5.600091e+00 5.602732e+00 5.601742e+00 5.602268e+00 5.599155e+00 5.597459e+00 5.592202e+00 5.588366e+00 5.581123e+00 5.575391e+00 5.566456e+00 5.559180e+00 5.548932e+00 5.540517e+00 5.529362e+00 5.520215e+00 5.508542e+00 5.499035e+00 5.487181e+00 5.477621e+00 5.465856e+00 5.456479e+00 5.444995e+00 5.435956e+00 5.424869e+00 5.416250e+00 5.405606e+00 5.397422e+00 5.387203e+00 5.379409e+00 5.369548e+00 5.362061e+00 5.352456e+00 5.345162e+00 5.335692e+00 5.328467e+00 5.319009e+00 5.311737e+00 5.302181e+00 5.294763e+00 5.285023e+00 5.277388e+00 5.267410e+00 5.259522e+00 5.249287e+00 5.241142e+00 5.230663e+00 5.222292e+00 5.211611e+00 5.203067e+00 5.192250e+00 5.183607e+00 5.172733e+00 5.164077e+00 5.153237e+00 5.144660e+00 5.133946e+00 5.125542e+00 5.115045e+00 5.106900e+00 5.096706e+00 5.088902e+00 5.079086e+00 5.071694e+00 5.062320e+00 5.055398e+00 5.046519e+00 5.040113e+00 5.031767e+00 5.025909e+00 5.018122e+00 5.012832e+00 5.005617e+00 5.000900e+00 4.994258e+00 4.990110e+00 4.984030e+00 4.980437e+00 4.974901e+00 4.971838e+00 4.966818e+00 4.964255e+00 4.959719e+00 4.957621e+00 4.953530e+00 4.951859e+00 4.948174e+00 4.946888e+00 4.943568e+00 4.942627e+00 4.939632e+00 4.938996e+00 4.936287e+00 4.935918e+00 4.933458e+00 4.933321e+00 4.931076e+00 4.931138e+00 4.929077e+00 4.929310e+00 4.927407e+00 4.927784e+00 4.926014e+00 4.926514e+00 4.924855e+00 4.925458e+00 4.923894e+00 4.924583e+00 4.923097e+00 4.923858e+00 4.922438e+00 4.923258e+00 4.921893e+00 4.922763e+00 4.921443e+00 4.922354e+00 4.921072e+00 4.922017e+00 4.920766e+00 4.921739e+00 4.920513e+00 4.921510e+00 4.920305e+00 4.921322e+00 4.920134e+00 4.921166e+00 4.919993e+00 4.921038e+00 4.919877e+00 4.920933e+00 4.919782e+00 4.920846e+00 4.919703e+00 4.920775e+00 4.919639e+00 4.920716e+00 4.919585e+00 4.920668e+00 4.919542e+00 4.920629e+00 4.919506e+00 4.920596e+00 4.919476e+00 4.920569e+00 4.919452e+00 4.920547e+00 4.919432e+00 4.920529e+00 4.919415e+00 4.920514e+00 4.919402e+00 4.920502e+00 4.919390e+00 4.920492e+00 4.919381e+00 4.920483e+00 4.919374e+00 4.920476e+00 4.919368e+00 4.920471e+00 4.919362e+00 4.920466e+00 4.919358e+00 4.920462e+00 4.919355e+00 4.920459e+00 4.919352e+00 4.920457e+00 4.919350e+00 4.920455e+00 4.919348e+00 4.920453e+00 4.919346e+00 4.920451e+00 4.919345e+00 4.920450e+00 4.919344e+00 4.920449e+00 4.919343e+00 4.920448e+00 4.919342e+00 4.920448e+00 4.919342e+00 4.920447e+00 4.919341e+00 4.920447e+00 4.919341e+00 4.920446e+00 4.919340e+00 4.920446e+00 4.919340e+00 4.920446e+00 4.919340e+00 4.920446e+00 4.919340e+00 4.920446e+00 4.919340e+00 4.920445e+00 4.919339e+00 4.920445e+00 4.919339e+00 4.920445e+00 4.919339e+00 4.920445e+00 4.919339e+00 4.920445e+00 4.919339e+00 4.920445e+00 4.919339e+00 4.920445e+00 4.919339e+00 4.920445e+00 4.919339e+00 4.920445e+00 4.919339e+00 4.920445e+00 4.919339e+00 4.920445e+00 4.919339e+00 4.920445e+00 4.919339e+00 4.920445e+00 4.919338e+00 4.920445e+00 4.919338e+00 4.920444e+00 4.919338e+00 4.920444e+00 4.919338e+00 4.920444e+00 4.919338e+00 4.920444e+00 4.919338e+00 4.920444e+00 4.919337e+00 4.920444e+00 4.919337e+00 4.920443e+00 4.919336e+00 4.920443e+00 4.919336e+00 4.920443e+00 4.919335e+00 4.920442e+00 4.919334e+00 4.920442e+00 4.919333e+00 4.920441e+00 4.919332e+00 4.920440e+00 4.919330e+00 4.920439e+00 4.919329e+00 4.920438e+00 4.919326e+00 4.920437e+00 4.919323e+00 4.920435e+00 4.919320e+00 4.920433e+00 4.919316e+00 4.920430e+00 4.919310e+00 4.920427e+00 4.919303e+00 4.920423e+00 4.919295e+00 4.920418e+00 4.919284e+00 4.920412e+00 4.919270e+00 4.920404e+00 4.919251e+00 4.920395e+00 4.919226e+00 4.920383e+00 4.919193e+00 4.920369e+00 4.919145e+00 4.920352e+00 4.919073e+00 4.920333e+00 4.918959e+00 4.920320e+00 4.918759e+00 4.920347e+00 4.918373e+00 4.920608e+00 4.917833e+00 
4.923943e+00 4.922365e+00 4.923963e+00 4.921639e+00 4.909468e+00 4.908372e+00 4.903886e+00 4.906129e+00 4.905676e+00 4.909317e+00 4.911100e+00 4.915783e+00 4.919345e+00 4.925143e+00 4.930282e+00 4.937244e+00 4.943862e+00 4.952120e+00 4.960297e+00 4.970105e+00 4.980024e+00 4.991633e+00 5.003436e+00 5.016992e+00 5.030717e+00 5.046246e+00 5.061851e+00 5.079293e+00 5.096686e+00 5.115907e+00 5.134948e+00 5.155722e+00 5.176207e+00 5.198185e+00 5.219824e+00 5.242517e+00 5.264925e+00 5.287717e+00 5.310429e+00 5.332615e+00 5.355114e+00 5.375966e+00 5.397729e+00 5.416570e+00 5.437102e+00 5.453379e+00 5.472253e+00 5.485588e+00 5.502464e+00 5.512681e+00 5.527326e+00 5.534444e+00 5.546736e+00 5.550941e+00 5.560863e+00 5.562453e+00 5.570076e+00 5.569411e+00 5.574873e+00 5.572326e+00 5.575810e+00 5.571736e+00 5.573462e+00 5.568195e+00 5.568419e+00 5.562290e+00 5.561321e+00 5.554681e+00 5.552895e+00 5.546147e+00 5.543995e+00 5.537598e+00 5.535593e+00 5.530041e+00 5.528723e+00 5.524508e+00 5.524383e+00 5.521931e+00 5.523406e+00 5.523010e+00 5.526327e+00 5.528090e+00 5.533275e+00 5.537072e+00 5.543915e+00 5.549388e+00 5.557454e+00 5.564042e+00 5.572712e+00 5.579702e+00 5.588240e+00 5.594845e+00 5.602479e+00 5.607922e+00 5.613932e+00 5.617530e+00 5.621327e+00 5.622564e+00 5.623752e+00 5.622334e+00 5.620747e+00 5.616612e+00 5.612316e+00 5.605625e+00 5.598885e+00 5.589977e+00 5.581204e+00 5.570532e+00 5.560219e+00 5.548289e+00 5.536952e+00 5.524266e+00 5.512393e+00 5.499407e+00 5.487424e+00 5.474525e+00 5.462778e+00 5.450261e+00 5.439002e+00 5.427070e+00 5.416453e+00 5.405212e+00 5.395299e+00 5.384764e+00 5.375530e+00 5.365639e+00 5.356990e+00 5.347620e+00 5.339412e+00 5.330403e+00 5.322467e+00 5.313646e+00 5.305811e+00 5.297014e+00 5.289129e+00 5.280219e+00 5.272166e+00 5.263048e+00 5.254754e+00 5.245376e+00 5.236812e+00 5.227168e+00 5.218348e+00 5.208469e+00 5.199442e+00 5.189391e+00 5.180231e+00 5.170090e+00 5.160888e+00 5.150753e+00 5.141606e+00 5.131577e+00 5.122585e+00 5.112760e+00 5.104016e+00 5.094484e+00 5.086076e+00 5.076917e+00 5.068917e+00 5.060199e+00 5.052669e+00 5.044446e+00 5.037432e+00 5.029743e+00 5.023278e+00 5.016150e+00 5.010252e+00 5.003697e+00 4.998375e+00 4.992392e+00 4.987639e+00 4.982220e+00 4.978021e+00 4.973145e+00 4.969476e+00 4.965115e+00 4.961945e+00 4.958066e+00 4.955360e+00 4.951925e+00 4.949644e+00 4.946613e+00 4.944716e+00 4.942048e+00 4.940494e+00 4.938149e+00 4.936898e+00 4.934837e+00 4.933851e+00 4.932037e+00 4.931281e+00 4.929681e+00 4.929122e+00 4.927705e+00 4.927315e+00 4.926054e+00 4.925808e+00 4.924678e+00 4.924553e+00 4.923534e+00 4.923510e+00 4.922585e+00 4.922646e+00 4.921798e+00 4.921931e+00 4.921148e+00 4.921339e+00 4.920610e+00 4.920851e+00 4.920166e+00 4.920447e+00 4.919800e+00 4.920115e+00 4.919498e+00 4.919841e+00 4.919249e+00 4.919615e+00 4.919044e+00 4.919429e+00 4.918875e+00 4.919276e+00 4.918736e+00 4.919150e+00 4.918622e+00 4.919046e+00 4.918528e+00 4.918960e+00 4.918450e+00 4.918890e+00 4.918387e+00 4.918832e+00 4.918334e+00 4.918785e+00 4.918291e+00 4.918746e+00 4.918256e+00 4.918713e+00 4.918226e+00 4.918687e+00 4.918202e+00 4.918665e+00 4.918183e+00 4.918647e+00 4.918166e+00 4.918633e+00 4.918153e+00 4.918621e+00 4.918142e+00 4.918611e+00 4.918133e+00 4.918602e+00 4.918126e+00 4.918596e+00 4.918120e+00 4.918590e+00 4.918115e+00 4.918586e+00 4.918110e+00 4.918582e+00 4.918107e+00 4.918579e+00 4.918104e+00 4.918576e+00 4.918102e+00 4.918574e+00 4.918100e+00 4.918572e+00 4.918098e+00 4.918571e+00 4.918097e+00 4.918570e+00 4.918096e+00 4.918569e+00 4.918095e+00 4.918568e+00 4.918095e+00 4.918567e+00 4.918094e+00 4.918567e+00 4.918093e+00 4.918566e+00 4.918093e+00 4.918566e+00 4.918093e+00 4.918565e+00 4.918092e+00 4.918565e+00 4.918092e+00 4.918565e+00 4.918092e+00 4.918564e+00 4.918091e+00 4.918564e+00 4.918091e+00 4.918564e+00 4.918091e+00 4.918563e+00 4.918090e+00 4.918563e+00 4.918090e+00 4.918562e+00 4.918089e+00 4.918562e+00 4.918089e+00 4.918561e+00 4.918088e+00 4.918560e+00 4.918088e+00 4.918559e+00 4.918087e+00 4.918558e+00 4.918086e+00 4.918557e+00 4.918084e+00 4.918555e+00 4.918083e+00 4.918553e+00 4.918081e+00 4.918551e+00 4.918078e+00 4.918548e+00 4.918076e+00 4.918544e+00 4.918072e+00 4.918540e+00 4.918068e+00 4.918534e+00 4.918063e+00 4.918528e+00 4.918057e+00 4.918520e+00 4.918049e+00 4.918510e+00 4.918040e+00 4.918498e+00 4.918029e+00 4.918483e+00 4.918015e+00 4.918466e+00 4.917999e+00 4.918444e+00 4.917978e+00 4.918417e+00 4.917953e+00 4.918385e+00 4.917922e+00 4.918345e+00 4.917885e+00 4.918296e+00 4.917838e+00 4.918236e+00 4.917781e+00 4.918162e+00 4.917710e+00 4.918070e+00 4.917622e+00 4.917956e+00 4.917512e+00 4.917813e+00 4.917374e+00 4.917633e+00 4.917199e+00 4.917406e+00 4.916975e+00 4.917116e+00 4.916684e+00 4.916740e+00 4.916302e+00 4.916246e+00 4.915790e+00 4.915585e+00 4.915087e+00 4.914677e+00 4.914091e+00 4.913394e+00 4.912640e+00 4.911527e+00 4.910503e+00 4.908778e+00 4.907622e+00 4.905042e+00 4.905948e+00 4.902617e+00 4.920541e+00 
4.920077e+00 4.918797e+00 4.920039e+00 4.919242e+00 4.922779e+00 4.921485e+00 4.922366e+00 4.920792e+00 4.921602e+00 4.920991e+00 4.922868e+00 4.923749e+00 4.927086e+00 4.929616e+00 4.934465e+00 4.938642e+00 4.944997e+00 4.950882e+00 4.958857e+00 4.966644e+00 4.976448e+00 4.986363e+00 4.998180e+00 5.010367e+00 5.024280e+00 5.038766e+00 5.054767e+00 5.071489e+00 5.089523e+00 5.108350e+00 5.128324e+00 5.149038e+00 5.170801e+00 5.193058e+00 5.216363e+00 5.239654e+00 5.264129e+00 5.287784e+00 5.312935e+00 5.336153e+00 5.361389e+00 5.383314e+00 5.407988e+00 5.427797e+00 5.451255e+00 5.468240e+00 5.489864e+00 5.503502e+00 5.522761e+00 5.532754e+00 5.549235e+00 5.555525e+00 5.568969e+00 5.571712e+00 5.582029e+00 5.581554e+00 5.588818e+00 5.585566e+00 5.589995e+00 5.584466e+00 5.586390e+00 5.579100e+00 5.578929e+00 5.570388e+00 5.568589e+00 5.559304e+00 5.556392e+00 5.546873e+00 5.543410e+00 5.534190e+00 5.530775e+00 5.522411e+00 5.519667e+00 5.512721e+00 5.511256e+00 5.506254e+00 5.506610e+00 5.503983e+00 5.506566e+00 5.506582e+00 5.511598e+00 5.514305e+00 5.521713e+00 5.526905e+00 5.536399e+00 5.543615e+00 5.554644e+00 5.563198e+00 5.575014e+00 5.584062e+00 5.595790e+00 5.604406e+00 5.615131e+00 5.622396e+00 5.631256e+00 5.636353e+00 5.642629e+00 5.644924e+00 5.648112e+00 5.647220e+00 5.647083e+00 5.642892e+00 5.639466e+00 5.632133e+00 5.625698e+00 5.615601e+00 5.606626e+00 5.594293e+00 5.583362e+00 5.569403e+00 5.557141e+00 5.542176e+00 5.529193e+00 5.513802e+00 5.500648e+00 5.485337e+00 5.472469e+00 5.457642e+00 5.445411e+00 5.431356e+00 5.419992e+00 5.406878e+00 5.396488e+00 5.384361e+00 5.374939e+00 5.363742e+00 5.355184e+00 5.344772e+00 5.336902e+00 5.327075e+00 5.319676e+00 5.310210e+00 5.303058e+00 5.293734e+00 5.286626e+00 5.277259e+00 5.270031e+00 5.260484e+00 5.253028e+00 5.243220e+00 5.235484e+00 5.225390e+00 5.217373e+00 5.207016e+00 5.198761e+00 5.188202e+00 5.179785e+00 5.169110e+00 5.160626e+00 5.149935e+00 5.141489e+00 5.130889e+00 5.122584e+00 5.112178e+00 5.104115e+00 5.093997e+00 5.086267e+00 5.076520e+00 5.069198e+00 5.059893e+00 5.053041e+00 5.044232e+00 5.037898e+00 5.029626e+00 5.023842e+00 5.016131e+00 5.010917e+00 5.003779e+00 4.999140e+00 4.992576e+00 4.988506e+00 4.982504e+00 4.978987e+00 4.973526e+00 4.970537e+00 4.965589e+00 4.963097e+00 4.958629e+00 4.956598e+00 4.952571e+00 4.950961e+00 4.947335e+00 4.946106e+00 4.942840e+00 4.941950e+00 4.939004e+00 4.938414e+00 4.935748e+00 4.935419e+00 4.932997e+00 4.932896e+00 4.930684e+00 4.930778e+00 4.928746e+00 4.929006e+00 4.927128e+00 4.927528e+00 4.925780e+00 4.926299e+00 4.924659e+00 4.925279e+00 4.923730e+00 4.924433e+00 4.922961e+00 4.923734e+00 4.922325e+00 4.923155e+00 4.921799e+00 4.922678e+00 4.921365e+00 4.922284e+00 4.921007e+00 4.921959e+00 4.920712e+00 4.921691e+00 4.920469e+00 4.921470e+00 4.920269e+00 4.921289e+00 4.920104e+00 4.921139e+00 4.919969e+00 4.921016e+00 4.919857e+00 4.920915e+00 4.919765e+00 4.920831e+00 4.919689e+00 4.920763e+00 4.919627e+00 4.920706e+00 4.919576e+00 4.920660e+00 4.919534e+00 4.920622e+00 4.919499e+00 4.920590e+00 4.919471e+00 4.920564e+00 4.919447e+00 4.920543e+00 4.919428e+00 4.920526e+00 4.919412e+00 4.920511e+00 4.919399e+00 4.920499e+00 4.919389e+00 4.920490e+00 4.919380e+00 4.920482e+00 4.919372e+00 4.920475e+00 4.919367e+00 4.920470e+00 4.919362e+00 4.920465e+00 4.919358e+00 4.920462e+00 4.919354e+00 4.920459e+00 4.919352e+00 4.920456e+00 4.919349e+00 4.920454e+00 4.919347e+00 4.920453e+00 4.919346e+00 4.920451e+00 4.919345e+00 4.920450e+00 4.919344e+00 4.920449e+00 4.919343e+00 4.920448e+00 4.919342e+00 4.920448e+00 4.919342e+00 4.920447e+00 4.919341e+00 4.920447e+00 4.919341e+00 4.920446e+00 4.919340e+00 4.920446e+00 4.919340e+00 4.920446e+00 4.919340e+00 4.920446e+00 4.919340e+00 4.920446e+00 4.919340e+00 4.920445e+00 4.919339e+00 4.920445e+00 4.919339e+00 4.920445e+00 4.919339e+00 4.920445e+00 4.919339e+00 4.920445e+00 4.919339e+00 4.920445e+00 4.919339e+00 4.920445e+00 4.919339e+00 4.920445e+00 4.919339e+00 4.920445e+00 4.919339e+00 4.920445e+00 4.919339e+00 4.920445e+00 4.919338e+00 4.920445e+00 4.919338e+00 4.920444e+00 4.919338e+00 4.920444e+00 4.919338e+00 4.920444e+00 4.919338e+00 4.920444e+00 4.919337e+00 4.920444e+00 4.919337e+00 4.920444e+00 4.919336e+00 4.920443e+00 4.919336e+00 4.920443e+00 4.919335e+00 4.920443e+00 4.919334e+00 4.920442e+00 4.919333e+00 4.920442e+00 4.919332e+00 4.920441e+00 4.919331e+00 4.920440e+00 4.919329e+00 4.920439e+00 4.919327e+00 4.920438e+00 4.919324e+00 4.920436e+00 4.919321e+00 4.920435e+00 4.919317e+00 4.920432e+00 4.919312e+00 4.920430e+00 4.919306e+00 4.920426e+00 4.919299e+00 4.920422e+00 4.919290e+00 4.920417e+00 4.919279e+00 4.920411e+00 4.919265e+00 4.920404e+00 4.919248e+00 4.920395e+00 4.919227e+00 4.920383e+00 4.919200e+00 4.920369e+00 4.919166e+00 4.920352e+00 4.919123e+00 4.920331e+00 4.919068e+00 4.920305e+00 4.918997e+00 4.920271e+00 4.918910e+00 4.920223e+00 4.918822e+00 4.920139e+00 4.918821e+00 4.919904e+00 4.919230e+00 
4.923563e+00 4.921843e+00 4.923561e+00 4.921841e+00 4.918299e+00 4.917781e+00 4.915148e+00 4.915861e+00 4.914656e+00 4.916286e+00 4.916484e+00 4.919094e+00 4.920745e+00 4.924508e+00 4.927650e+00 4.932722e+00 4.937405e+00 4.943992e+00 4.950376e+00 4.958781e+00 4.967114e+00 4.977665e+00 4.988173e+00 5.001105e+00 5.013905e+00 5.029314e+00 5.044417e+00 5.062290e+00 5.079655e+00 5.099904e+00 5.119461e+00 5.141905e+00 5.163530e+00 5.187840e+00 5.211310e+00 5.236958e+00 5.261906e+00 5.288153e+00 5.314061e+00 5.339992e+00 5.366213e+00 5.390822e+00 5.416620e+00 5.438918e+00 5.463513e+00 5.482626e+00 5.505248e+00 5.520510e+00 5.540454e+00 5.551458e+00 5.568147e+00 5.574773e+00 5.587813e+00 5.590213e+00 5.599438e+00 5.597991e+00 5.603474e+00 5.598725e+00 5.600757e+00 5.593348e+00 5.592396e+00 5.583011e+00 5.579663e+00 5.568989e+00 5.563912e+00 5.552622e+00 5.546523e+00 5.535280e+00 5.528891e+00 5.518352e+00 5.512411e+00 5.503227e+00 5.498463e+00 5.491260e+00 5.488351e+00 5.483693e+00 5.483217e+00 5.481541e+00 5.483906e+00 5.485460e+00 5.490840e+00 5.495619e+00 5.503909e+00 5.511630e+00 5.522438e+00 5.532543e+00 5.545213e+00 5.556910e+00 5.570579e+00 5.582904e+00 5.596572e+00 5.608468e+00 5.621084e+00 5.631497e+00 5.642054e+00 5.650023e+00 5.657661e+00 5.662420e+00 5.666512e+00 5.667565e+00 5.667781e+00 5.664951e+00 5.661281e+00 5.654705e+00 5.647437e+00 5.637522e+00 5.627178e+00 5.614529e+00 5.601784e+00 5.587116e+00 5.572711e+00 5.556766e+00 5.541439e+00 5.524930e+00 5.509356e+00 5.492911e+00 5.477670e+00 5.461804e+00 5.447345e+00 5.432439e+00 5.419069e+00 5.405352e+00 5.393226e+00 5.380778e+00 5.369908e+00 5.358673e+00 5.348942e+00 5.338754e+00 5.329953e+00 5.320568e+00 5.312434e+00 5.303577e+00 5.295831e+00 5.287231e+00 5.279617e+00 5.271039e+00 5.263352e+00 5.254622e+00 5.246718e+00 5.237727e+00 5.229534e+00 5.220240e+00 5.211745e+00 5.202165e+00 5.193409e+00 5.183602e+00 5.174660e+00 5.164716e+00 5.155689e+00 5.145714e+00 5.136711e+00 5.126817e+00 5.117949e+00 5.108243e+00 5.099615e+00 5.090196e+00 5.081900e+00 5.072854e+00 5.064968e+00 5.056366e+00 5.048953e+00 5.040850e+00 5.033957e+00 5.026392e+00 5.020052e+00 5.013049e+00 5.007279e+00 5.000851e+00 4.995656e+00 4.989800e+00 4.985172e+00 4.979876e+00 4.975799e+00 4.971042e+00 4.967489e+00 4.963242e+00 4.960182e+00 4.956410e+00 4.953807e+00 4.950471e+00 4.948285e+00 4.945345e+00 4.943534e+00 4.940949e+00 4.939472e+00 4.937202e+00 4.936020e+00 4.934025e+00 4.933100e+00 4.931345e+00 4.930642e+00 4.929093e+00 4.928582e+00 4.927208e+00 4.926859e+00 4.925636e+00 4.925424e+00 4.924327e+00 4.924231e+00 4.923240e+00 4.923242e+00 4.922340e+00 4.922422e+00 4.921594e+00 4.921745e+00 4.920978e+00 4.921185e+00 4.920470e+00 4.920723e+00 4.920050e+00 4.920342e+00 4.919704e+00 4.920027e+00 4.919418e+00 4.919768e+00 4.919184e+00 4.919555e+00 4.918990e+00 4.919380e+00 4.918831e+00 4.919235e+00 4.918700e+00 4.919116e+00 4.918592e+00 4.919018e+00 4.918503e+00 4.918938e+00 4.918430e+00 4.918871e+00 4.918370e+00 4.918817e+00 4.918320e+00 4.918772e+00 4.918280e+00 4.918735e+00 4.918246e+00 4.918705e+00 4.918219e+00 4.918680e+00 4.918196e+00 4.918659e+00 4.918177e+00 4.918643e+00 4.918162e+00 4.918629e+00 4.918150e+00 4.918617e+00 4.918139e+00 4.918608e+00 4.918131e+00 4.918600e+00 4.918124e+00 4.918594e+00 4.918118e+00 4.918589e+00 4.918113e+00 4.918584e+00 4.918109e+00 4.918581e+00 4.918106e+00 4.918578e+00 4.918104e+00 4.918575e+00 4.918101e+00 4.918574e+00 4.918100e+00 4.918572e+00 4.918098e+00 4.918571e+00 4.918097e+00 4.918569e+00 4.918096e+00 4.918569e+00 4.918095e+00 4.918568e+00 4.918094e+00 4.918567e+00 4.918094e+00 4.918567e+00 4.918093e+00 4.918566e+00 4.918093e+00 4.918566e+00 4.918092e+00 4.918565e+00 4.918092e+00 4.918565e+00 4.918092e+00 4.918565e+00 4.918092e+00 4.918564e+00 4.918091e+00 4.918564e+00 4.918091e+00 4.918564e+00 4.918091e+00 4.918563e+00 4.918090e+00 4.918563e+00 4.918090e+00 4.918563e+00 4.918089e+00 4.918562e+00 4.918089e+00 4.918561e+00 4.918088e+00 4.918561e+00 4.918088e+00 4.918560e+00 4.918087e+00 4.918559e+00 4.918086e+00 4.918557e+00 4.918084e+00 4.918556e+00 4.918083e+00 4.918554e+00 4.918081e+00 4.918551e+00 4.918079e+00 4.918548e+00 4.918076e+00 4.918545e+00 4.918073e+00 4.918541e+00 4.918068e+00 4.918535e+00 4.918063e+00 4.918529e+00 4.918057e+00 4.918522e+00 4.918050e+00 4.918512e+00 4.918041e+00 4.918501e+00 4.918030e+00 4.918487e+00 4.918017e+00 4.918470e+00 4.918000e+00 4.918449e+00 4.917980e+00 4.918424e+00 4.917956e+00 4.918393e+00 4.917926e+00 4.918355e+00 4.917890e+00 4.918309e+00 4.917845e+00 4.918252e+00 4.917789e+00 4.918183e+00 4.917721e+00 4.918096e+00 4.917637e+00 4.917990e+00 4.917533e+00 4.917858e+00 4.917403e+00 4.917693e+00 4.917241e+00 4.917487e+00 4.917036e+00 4.917228e+00 4.916777e+00 4.916899e+00 4.916447e+00 4.916480e+00 4.916024e+00 4.915942e+00 4.915481e+00 4.915252e+00 4.914793e+00 4.914375e+00 4.913960e+00 4.913310e+00 4.913104e+00 4.912204e+00 4.912751e+00 4.911707e+00 4.914528e+00 4.913853e+00 4.921716e+00 