# vtk DataFile Version 2.0
Comment goes here
ASCII

DATASET STRUCTURED_POINTS
FIELD FieldData 1
TIME 1 1 double
1.05000000
DIMENSIONS    384   64   1

ORIGIN    0.000   0.000   0.000
SPACING   0.078125 0.078125   1.000

POINT_DATA   24576
SCALARS uMag double
LOOKUP_TABLE default

2.704609e+00 2.908476e+00 2.704482e+00 2.921136e+00 3.129745e+00 3.327953e+00 3.437601e+00 3.534838e+00 3.582820e+00 3.630996e+00 3.655380e+00 3.682844e+00 3.699149e+00 3.717321e+00 3.731127e+00 3.744737e+00 3.758191e+00 3.769483e+00 3.783534e+00 3.793741e+00 3.808881e+00 3.818775e+00 3.835298e+00 3.845406e+00 3.863485e+00 3.874166e+00 3.893864e+00 3.905321e+00 3.926568e+00 3.938843e+00 3.961417e+00 3.974373e+00 3.997892e+00 4.011215e+00 4.035159e+00 4.048381e+00 4.072139e+00 4.084688e+00 4.107634e+00 4.118895e+00 4.140464e+00 4.149846e+00 4.169596e+00 4.176596e+00 4.194247e+00 4.198490e+00 4.213919e+00 4.215182e+00 4.228401e+00 4.226615e+00 4.237722e+00 4.232958e+00 4.242088e+00 4.234529e+00 4.241814e+00 4.231729e+00 4.237278e+00 4.224985e+00 4.228883e+00 4.214727e+00 4.217049e+00 4.201385e+00 4.202218e+00 4.185394e+00 4.184853e+00 4.167209e+00 4.165448e+00 4.147306e+00 4.144514e+00 4.126176e+00 4.122573e+00 4.104309e+00 4.100129e+00 4.082179e+00 4.077656e+00 4.060221e+00 4.055576e+00 4.038819e+00 4.034251e+00 4.018296e+00 4.013974e+00 3.998908e+00 3.994970e+00 3.980845e+00 3.977393e+00 3.964232e+00 3.961340e+00 3.949139e+00 3.946847e+00 3.935580e+00 3.933905e+00 3.923527e+00 3.922463e+00 3.912916e+00 3.912440e+00 3.903659e+00 3.903734e+00 3.895646e+00 3.896230e+00 3.888761e+00 3.889805e+00 3.882883e+00 3.884336e+00 3.877892e+00 3.879705e+00 3.873675e+00 3.875803e+00 3.870128e+00 3.872526e+00 3.867155e+00 3.869784e+00 3.864670e+00 3.867496e+00 3.862599e+00 3.865592e+00 3.860878e+00 3.864010e+00 3.859448e+00 3.862698e+00 3.858264e+00 3.861612e+00 3.857284e+00 3.860714e+00 3.856473e+00 3.859971e+00 3.855804e+00 3.859358e+00 3.855252e+00 3.858853e+00 3.854796e+00 3.858436e+00 3.854421e+00 3.858092e+00 3.854111e+00 3.857809e+00 3.853856e+00 3.857576e+00 3.853647e+00 3.857384e+00 3.853474e+00 3.857226e+00 3.853332e+00 3.857096e+00 3.853215e+00 3.856990e+00 3.853118e+00 3.856902e+00 3.853039e+00 3.856829e+00 3.852974e+00 3.856770e+00 3.852920e+00 3.856721e+00 3.852876e+00 3.856680e+00 3.852840e+00 3.856647e+00 3.852810e+00 3.856620e+00 3.852786e+00 3.856598e+00 3.852766e+00 3.856579e+00 3.852749e+00 3.856564e+00 3.852735e+00 3.856552e+00 3.852724e+00 3.856541e+00 3.852715e+00 3.856533e+00 3.852707e+00 3.856526e+00 3.852701e+00 3.856520e+00 3.852696e+00 3.856516e+00 3.852692e+00 3.856512e+00 3.852688e+00 3.856509e+00 3.852686e+00 3.856506e+00 3.852683e+00 3.856504e+00 3.852681e+00 3.856502e+00 3.852680e+00 3.856501e+00 3.852678e+00 3.856499e+00 3.852677e+00 3.856498e+00 3.852676e+00 3.856498e+00 3.852676e+00 3.856497e+00 3.852675e+00 3.856496e+00 3.852675e+00 3.856496e+00 3.852674e+00 3.856496e+00 3.852674e+00 3.856495e+00 3.852674e+00 3.856495e+00 3.852673e+00 3.856495e+00 3.852673e+00 3.856495e+00 3.852673e+00 3.856495e+00 3.852673e+00 3.856494e+00 3.852673e+00 3.856494e+00 3.852673e+00 3.856494e+00 3.852673e+00 3.856494e+00 3.852673e+00 3.856494e+00 3.852673e+00 3.856494e+00 3.852673e+00 3.856494e+00 3.852673e+00 3.856494e+00 3.852672e+00 3.856494e+00 3.852672e+00 3.856494e+00 3.852672e+00 3.856494e+00 3.852672e+00 3.856494e+00 3.852672e+00 3.856494e+00 3.852672e+00 3.856494e+00 3.852672e+00 3.856494e+00 3.852672e+00 3.856494e+00 3.852672e+00 3.856494e+00 3.852672e+00 3.856494e+00 3.852672e+00 3.856494e+00 3.852672e+00 3.856494e+00 3.852672e+00 3.856494e+00 3.852672e+00 3.856494e+00 3.852672e+00 3.856494e+00 3.852672e+00 3.856493e+00 3.852672e+00 3.856493e+00 3.852672e+00 3.856493e+00 3.852672e+00 3.856493e+00 3.852672e+00 3.856493e+00 3.852672e+00 3.856493e+00 3.852671e+00 3.856493e+00 3.852671e+00 3.856492e+00 3.852671e+00 3.856492e+00 3.852670e+00 3.856492e+00 3.852670e+00 3.856491e+00 3.852670e+00 3.856490e+00 3.852669e+00 3.856490e+00 3.852668e+00 3.856489e+00 3.852667e+00 3.856488e+00 3.852666e+00 3.856486e+00 3.852665e+00 3.856485e+00 3.852663e+00 3.856483e+00 3.852661e+00 3.856480e+00 3.852659e+00 3.856477e+00 3.852656e+00 3.856474e+00 3.852652e+00 3.856469e+00 3.852648e+00 3.856464e+00 3.852643e+00 3.856458e+00 3.852637e+00 3.856450e+00 3.852629e+00 3.856440e+00 3.852620e+00 3.856429e+00 3.852608e+00 3.856415e+00 3.852594e+00 3.856397e+00 3.852577e+00 3.856377e+00 3.852557e+00 3.856351e+00 3.852532e+00 3.856321e+00 3.852502e+00 3.856283e+00 3.852465e+00 3.856237e+00 3.852420e+00 3.856182e+00 3.852365e+00 3.856114e+00 3.852299e+00 3.856032e+00 3.852217e+00 3.855932e+00 3.852118e+00 3.855809e+00 3.851998e+00 3.855660e+00 3.851850e+00 3.855478e+00 3.851670e+00 3.855255e+00 3.851449e+00 3.854981e+00 3.851178e+00 3.854647e+00 3.850845e+00 3.854235e+00 3.850436e+00 3.853728e+00 3.849930e+00 3.853102e+00 3.849303e+00 3.852326e+00 3.848523e+00 3.851359e+00 3.847546e+00 3.850149e+00 3.846315e+00 3.848622e+00 3.844750e+00 3.846679e+00 3.842738e+00 3.844179e+00 3.840114e+00 3.840914e+00 3.836626e+00 3.836566e+00 3.831872e+00 3.830621e+00 3.825157e+00 3.822186e+00 3.815166e+00 3.809543e+00 3.799073e+00 3.788916e+00 3.769719e+00 3.750507e+00 3.705405e+00 3.664134e+00 3.528865e+00 3.423578e+00 2.934939e+00 
3.864527e+00 3.848897e+00 3.864421e+00 3.846283e+00 3.792904e+00 3.764084e+00 3.751653e+00 3.742788e+00 3.750175e+00 3.747077e+00 3.760307e+00 3.758134e+00 3.773353e+00 3.771308e+00 3.787654e+00 3.785855e+00 3.803248e+00 3.801964e+00 3.820510e+00 3.820000e+00 3.839844e+00 3.840338e+00 3.861618e+00 3.863314e+00 3.886136e+00 3.889189e+00 3.913593e+00 3.918076e+00 3.943998e+00 3.949863e+00 3.977107e+00 3.984152e+00 4.012377e+00 4.020230e+00 4.048967e+00 4.057097e+00 4.085795e+00 4.093556e+00 4.121642e+00 4.128332e+00 4.155279e+00 4.160218e+00 4.185593e+00 4.188190e+00 4.211685e+00 4.211491e+00 4.232922e+00 4.229658e+00 4.248949e+00 4.242515e+00 4.259662e+00 4.250120e+00 4.265164e+00 4.252707e+00 4.265708e+00 4.250622e+00 4.261644e+00 4.244274e+00 4.253392e+00 4.234107e+00 4.241411e+00 4.220588e+00 4.226199e+00 4.204206e+00 4.208284e+00 4.185476e+00 4.188221e+00 4.164930e+00 4.166575e+00 4.143110e+00 4.143911e+00 4.120547e+00 4.120767e+00 4.097744e+00 4.097638e+00 4.075159e+00 4.074961e+00 4.053186e+00 4.053104e+00 4.032156e+00 4.032361e+00 4.012324e+00 4.012954e+00 3.993879e+00 3.995036e+00 3.976942e+00 3.978695e+00 3.961576e+00 3.963963e+00 3.947791e+00 3.950823e+00 3.935551e+00 3.939219e+00 3.924788e+00 3.929065e+00 3.915406e+00 3.920253e+00 3.907292e+00 3.912662e+00 3.900326e+00 3.906168e+00 3.894382e+00 3.900643e+00 3.889338e+00 3.895968e+00 3.885079e+00 3.892030e+00 3.881497e+00 3.888724e+00 3.878496e+00 3.885959e+00 3.875989e+00 3.883652e+00 3.873900e+00 3.881732e+00 3.872163e+00 3.880138e+00 3.870722e+00 3.878816e+00 3.869527e+00 3.877721e+00 3.868539e+00 3.876816e+00 3.867722e+00 3.876068e+00 3.867047e+00 3.875450e+00 3.866491e+00 3.874941e+00 3.866031e+00 3.874521e+00 3.865653e+00 3.874175e+00 3.865341e+00 3.873890e+00 3.865084e+00 3.873655e+00 3.864872e+00 3.873461e+00 3.864698e+00 3.873302e+00 3.864555e+00 3.873171e+00 3.864437e+00 3.873064e+00 3.864340e+00 3.872975e+00 3.864260e+00 3.872902e+00 3.864194e+00 3.872842e+00 3.864140e+00 3.872793e+00 3.864096e+00 3.872752e+00 3.864059e+00 3.872719e+00 3.864029e+00 3.872691e+00 3.864004e+00 3.872669e+00 3.863984e+00 3.872650e+00 3.863967e+00 3.872635e+00 3.863953e+00 3.872622e+00 3.863942e+00 3.872612e+00 3.863933e+00 3.872603e+00 3.863925e+00 3.872596e+00 3.863919e+00 3.872591e+00 3.863914e+00 3.872586e+00 3.863910e+00 3.872582e+00 3.863906e+00 3.872579e+00 3.863903e+00 3.872576e+00 3.863901e+00 3.872574e+00 3.863899e+00 3.872572e+00 3.863897e+00 3.872571e+00 3.863896e+00 3.872570e+00 3.863895e+00 3.872569e+00 3.863894e+00 3.872568e+00 3.863893e+00 3.872567e+00 3.863893e+00 3.872567e+00 3.863892e+00 3.872566e+00 3.863892e+00 3.872566e+00 3.863891e+00 3.872565e+00 3.863891e+00 3.872565e+00 3.863891e+00 3.872565e+00 3.863891e+00 3.872565e+00 3.863891e+00 3.872565e+00 3.863890e+00 3.872565e+00 3.863890e+00 3.872564e+00 3.863890e+00 3.872564e+00 3.863890e+00 3.872564e+00 3.863890e+00 3.872564e+00 3.863890e+00 3.872564e+00 3.863890e+00 3.872564e+00 3.863890e+00 3.872564e+00 3.863890e+00 3.872564e+00 3.863890e+00 3.872564e+00 3.863890e+00 3.872564e+00 3.863890e+00 3.872564e+00 3.863890e+00 3.872564e+00 3.863890e+00 3.872564e+00 3.863890e+00 3.872564e+00 3.863890e+00 3.872564e+00 3.863890e+00 3.872564e+00 3.863890e+00 3.872564e+00 3.863890e+00 3.872564e+00 3.863890e+00 3.872564e+00 3.863890e+00 3.872564e+00 3.863890e+00 3.872564e+00 3.863890e+00 3.872564e+00 3.863890e+00 3.872564e+00 3.863890e+00 3.872564e+00 3.863890e+00 3.872564e+00 3.863890e+00 3.872564e+00 3.863890e+00 3.872564e+00 3.863890e+00 3.872564e+00 3.863890e+00 3.872564e+00 3.863890e+00 3.872564e+00 3.863890e+00 3.872564e+00 3.863890e+00 3.872564e+00 3.863890e+00 3.872564e+00 3.863890e+00 3.872564e+00 3.863889e+00 3.872564e+00 3.863889e+00 3.872564e+00 3.863889e+00 3.872564e+00 3.863889e+00 3.872563e+00 3.863889e+00 3.872563e+00 3.863889e+00 3.872563e+00 3.863889e+00 3.872563e+00 3.863888e+00 3.872563e+00 3.863888e+00 3.872563e+00 3.863888e+00 3.872562e+00 3.863887e+00 3.872562e+00 3.863887e+00 3.872562e+00 3.863886e+00 3.872561e+00 3.863886e+00 3.872561e+00 3.863885e+00 3.872560e+00 3.863884e+00 3.872559e+00 3.863882e+00 3.872558e+00 3.863881e+00 3.872557e+00 3.863879e+00 3.872556e+00 3.863877e+00 3.872554e+00 3.863874e+00 3.872552e+00 3.863871e+00 3.872549e+00 3.863867e+00 3.872546e+00 3.863862e+00 3.872543e+00 3.863857e+00 3.872538e+00 3.863850e+00 3.872533e+00 3.863841e+00 3.872527e+00 3.863831e+00 3.872519e+00 3.863819e+00 3.872510e+00 3.863804e+00 3.872498e+00 3.863785e+00 3.872485e+00 3.863763e+00 3.872468e+00 3.863737e+00 3.872448e+00 3.863704e+00 3.872423e+00 3.863664e+00 3.872393e+00 3.863615e+00 3.872356e+00 3.863554e+00 3.872311e+00 3.863479e+00 3.872254e+00 3.863387e+00 3.872183e+00 3.863271e+00 3.872094e+00 3.863125e+00 3.871980e+00 3.862938e+00 3.871832e+00 3.862698e+00 3.871636e+00 3.862381e+00 3.871370e+00 3.861953e+00 3.870993e+00 3.861354e+00 3.870431e+00 3.860475e+00 3.869534e+00 3.859108e+00 3.868015e+00 3.856892e+00 3.865705e+00 3.854063e+00 3.869735e+00 3.861511e+00 
3.897575e+00 3.886824e+00 3.897648e+00 3.881510e+00 3.776592e+00 3.750204e+00 3.709553e+00 3.712769e+00 3.703883e+00 3.715815e+00 3.717857e+00 3.729885e+00 3.735868e+00 3.746253e+00 3.754249e+00 3.763225e+00 3.772795e+00 3.780959e+00 3.792068e+00 3.799985e+00 3.812703e+00 3.820849e+00 3.835274e+00 3.844038e+00 3.860255e+00 3.869940e+00 3.887989e+00 3.898787e+00 3.918619e+00 3.930577e+00 3.952022e+00 3.965012e+00 3.987759e+00 4.001464e+00 4.025072e+00 4.038998e+00 4.062933e+00 4.076451e+00 4.100142e+00 4.112554e+00 4.135453e+00 4.146068e+00 4.167697e+00 4.175907e+00 4.195889e+00 4.201224e+00 4.219286e+00 4.221450e+00 4.237408e+00 4.236287e+00 4.250031e+00 4.245680e+00 4.257149e+00 4.249762e+00 4.258936e+00 4.248805e+00 4.255699e+00 4.243179e+00 4.247852e+00 4.233327e+00 4.235883e+00 4.219745e+00 4.220344e+00 4.202981e+00 4.201834e+00 4.183618e+00 4.180984e+00 4.162265e+00 4.158436e+00 4.139536e+00 4.134817e+00 4.116027e+00 4.110721e+00 4.092290e+00 4.086683e+00 4.068819e+00 4.063166e+00 4.046034e+00 4.040554e+00 4.024277e+00 4.019148e+00 4.003811e+00 3.999171e+00 3.984824e+00 3.980772e+00 3.967431e+00 3.964032e+00 3.951689e+00 3.948975e+00 3.937598e+00 3.935575e+00 3.925114e+00 3.923766e+00 3.914159e+00 3.913452e+00 3.904628e+00 3.904518e+00 3.896401e+00 3.896836e+00 3.889349e+00 3.890273e+00 3.883340e+00 3.884698e+00 3.878249e+00 3.879987e+00 3.873955e+00 3.876021e+00 3.870347e+00 3.872697e+00 3.867327e+00 3.869918e+00 3.864807e+00 3.867602e+00 3.862708e+00 3.865676e+00 3.860964e+00 3.864077e+00 3.859518e+00 3.862751e+00 3.858320e+00 3.861655e+00 3.857329e+00 3.860748e+00 3.856510e+00 3.859999e+00 3.855833e+00 3.859381e+00 3.855276e+00 3.858871e+00 3.854816e+00 3.858451e+00 3.854437e+00 3.858104e+00 3.854124e+00 3.857819e+00 3.853867e+00 3.857584e+00 3.853655e+00 3.857391e+00 3.853481e+00 3.857232e+00 3.853337e+00 3.857101e+00 3.853219e+00 3.856993e+00 3.853122e+00 3.856904e+00 3.853042e+00 3.856832e+00 3.852977e+00 3.856772e+00 3.852923e+00 3.856722e+00 3.852878e+00 3.856682e+00 3.852842e+00 3.856648e+00 3.852812e+00 3.856621e+00 3.852787e+00 3.856598e+00 3.852766e+00 3.856580e+00 3.852750e+00 3.856564e+00 3.852736e+00 3.856552e+00 3.852725e+00 3.856542e+00 3.852715e+00 3.856533e+00 3.852708e+00 3.856526e+00 3.852701e+00 3.856520e+00 3.852696e+00 3.856516e+00 3.852692e+00 3.856512e+00 3.852689e+00 3.856509e+00 3.852686e+00 3.856506e+00 3.852683e+00 3.856504e+00 3.852681e+00 3.856502e+00 3.852680e+00 3.856501e+00 3.852678e+00 3.856499e+00 3.852677e+00 3.856498e+00 3.852676e+00 3.856498e+00 3.852676e+00 3.856497e+00 3.852675e+00 3.856496e+00 3.852675e+00 3.856496e+00 3.852674e+00 3.856496e+00 3.852674e+00 3.856495e+00 3.852674e+00 3.856495e+00 3.852673e+00 3.856495e+00 3.852673e+00 3.856495e+00 3.852673e+00 3.856495e+00 3.852673e+00 3.856494e+00 3.852673e+00 3.856494e+00 3.852673e+00 3.856494e+00 3.852673e+00 3.856494e+00 3.852673e+00 3.856494e+00 3.852673e+00 3.856494e+00 3.852673e+00 3.856494e+00 3.852673e+00 3.856494e+00 3.852672e+00 3.856494e+00 3.852672e+00 3.856494e+00 3.852672e+00 3.856494e+00 3.852672e+00 3.856494e+00 3.852672e+00 3.856494e+00 3.852672e+00 3.856494e+00 3.852672e+00 3.856494e+00 3.852672e+00 3.856494e+00 3.852672e+00 3.856494e+00 3.852672e+00 3.856494e+00 3.852672e+00 3.856494e+00 3.852672e+00 3.856494e+00 3.852672e+00 3.856494e+00 3.852672e+00 3.856494e+00 3.852672e+00 3.856494e+00 3.852672e+00 3.856494e+00 3.852672e+00 3.856493e+00 3.852672e+00 3.856493e+00 3.852672e+00 3.856493e+00 3.852672e+00 3.856493e+00 3.852672e+00 3.856493e+00 3.852671e+00 3.856493e+00 3.852671e+00 3.856492e+00 3.852671e+00 3.856492e+00 3.852670e+00 3.856492e+00 3.852670e+00 3.856491e+00 3.852670e+00 3.856490e+00 3.852669e+00 3.856490e+00 3.852668e+00 3.856489e+00 3.852667e+00 3.856488e+00 3.852666e+00 3.856486e+00 3.852665e+00 3.856485e+00 3.852663e+00 3.856483e+00 3.852661e+00 3.856480e+00 3.852659e+00 3.856478e+00 3.852656e+00 3.856474e+00 3.852653e+00 3.856470e+00 3.852648e+00 3.856465e+00 3.852643e+00 3.856458e+00 3.852637e+00 3.856450e+00 3.852629e+00 3.856441e+00 3.852620e+00 3.856430e+00 3.852609e+00 3.856416e+00 3.852595e+00 3.856399e+00 3.852579e+00 3.856379e+00 3.852559e+00 3.856354e+00 3.852534e+00 3.856324e+00 3.852504e+00 3.856287e+00 3.852468e+00 3.856242e+00 3.852423e+00 3.856187e+00 3.852369e+00 3.856121e+00 3.852304e+00 3.856040e+00 3.852224e+00 3.855942e+00 3.852126e+00 3.855821e+00 3.852007e+00 3.855675e+00 3.851862e+00 3.855496e+00 3.851684e+00 3.855277e+00 3.851467e+00 3.855009e+00 3.851201e+00 3.854681e+00 3.850874e+00 3.854278e+00 3.850472e+00 3.853782e+00 3.849976e+00 3.853171e+00 3.849363e+00 3.852413e+00 3.848600e+00 3.851472e+00 3.847648e+00 3.850295e+00 3.846452e+00 3.848816e+00 3.844937e+00 3.846941e+00 3.842999e+00 3.844542e+00 3.840492e+00 3.841433e+00 3.837197e+00 3.837339e+00 3.832780e+00 3.831842e+00 3.826713e+00 3.824274e+00 3.818140e+00 3.813554e+00 3.805676e+00 3.797972e+00 3.787433e+00 3.775381e+00 3.763221e+00 3.746787e+00 3.750548e+00 3.739346e+00 3.875539e+00 
3.869910e+00 3.859890e+00 3.869836e+00 3.865144e+00 3.893892e+00 3.879061e+00 3.876519e+00 3.854392e+00 3.850533e+00 3.832560e+00 3.834076e+00 3.820905e+00 3.827210e+00 3.817527e+00 3.827325e+00 3.820113e+00 3.832536e+00 3.827251e+00 3.841841e+00 3.838254e+00 3.854807e+00 3.852873e+00 3.871322e+00 3.871095e+00 3.891437e+00 3.892999e+00 3.915227e+00 3.918630e+00 3.942682e+00 3.947880e+00 3.973596e+00 3.980394e+00 4.007494e+00 4.015516e+00 4.043605e+00 4.052290e+00 4.080889e+00 4.089527e+00 4.118117e+00 4.125910e+00 4.153981e+00 4.160126e+00 4.187214e+00 4.190992e+00 4.216692e+00 4.217539e+00 4.241515e+00 4.239065e+00 4.261040e+00 4.255144e+00 4.274896e+00 4.265604e+00 4.282970e+00 4.270491e+00 4.285366e+00 4.270024e+00 4.282370e+00 4.264557e+00 4.274409e+00 4.254542e+00 4.262016e+00 4.240517e+00 4.245802e+00 4.223080e+00 4.226437e+00 4.202882e+00 4.204620e+00 4.180595e+00 4.181057e+00 4.156893e+00 4.156431e+00 4.132423e+00 4.131376e+00 4.107776e+00 4.106456e+00 4.083471e+00 4.082152e+00 4.059946e+00 4.058856e+00 4.037549e+00 4.036870e+00 4.016542e+00 4.016413e+00 3.997109e+00 3.997626e+00 3.979359e+00 3.980581e+00 3.963338e+00 3.965292e+00 3.949037e+00 3.951722e+00 3.936400e+00 3.939794e+00 3.925339e+00 3.929402e+00 3.915739e+00 3.920422e+00 3.907472e+00 3.912717e+00 3.900400e+00 3.906148e+00 3.894387e+00 3.900578e+00 3.889301e+00 3.895879e+00 3.885018e+00 3.891929e+00 3.881425e+00 3.888623e+00 3.878420e+00 3.885862e+00 3.875915e+00 3.883562e+00 3.873831e+00 3.881652e+00 3.872101e+00 3.880067e+00 3.870667e+00 3.878754e+00 3.869479e+00 3.877668e+00 3.868498e+00 3.876771e+00 3.867687e+00 3.876030e+00 3.867017e+00 3.875418e+00 3.866465e+00 3.874914e+00 3.866010e+00 3.874498e+00 3.865635e+00 3.874156e+00 3.865326e+00 3.873874e+00 3.865071e+00 3.873642e+00 3.864862e+00 3.873451e+00 3.864690e+00 3.873293e+00 3.864548e+00 3.873164e+00 3.864431e+00 3.873057e+00 3.864335e+00 3.872970e+00 3.864256e+00 3.872898e+00 3.864191e+00 3.872839e+00 3.864137e+00 3.872790e+00 3.864093e+00 3.872750e+00 3.864057e+00 3.872717e+00 3.864028e+00 3.872690e+00 3.864003e+00 3.872667e+00 3.863983e+00 3.872649e+00 3.863966e+00 3.872634e+00 3.863953e+00 3.872621e+00 3.863942e+00 3.872611e+00 3.863932e+00 3.872603e+00 3.863925e+00 3.872596e+00 3.863919e+00 3.872590e+00 3.863914e+00 3.872586e+00 3.863909e+00 3.872582e+00 3.863906e+00 3.872579e+00 3.863903e+00 3.872576e+00 3.863901e+00 3.872574e+00 3.863899e+00 3.872572e+00 3.863897e+00 3.872571e+00 3.863896e+00 3.872569e+00 3.863895e+00 3.872569e+00 3.863894e+00 3.872568e+00 3.863893e+00 3.872567e+00 3.863893e+00 3.872567e+00 3.863892e+00 3.872566e+00 3.863892e+00 3.872566e+00 3.863891e+00 3.872565e+00 3.863891e+00 3.872565e+00 3.863891e+00 3.872565e+00 3.863891e+00 3.872565e+00 3.863891e+00 3.872565e+00 3.863890e+00 3.872565e+00 3.863890e+00 3.872564e+00 3.863890e+00 3.872564e+00 3.863890e+00 3.872564e+00 3.863890e+00 3.872564e+00 3.863890e+00 3.872564e+00 3.863890e+00 3.872564e+00 3.863890e+00 3.872564e+00 3.863890e+00 3.872564e+00 3.863890e+00 3.872564e+00 3.863890e+00 3.872564e+00 3.863890e+00 3.872564e+00 3.863890e+00 3.872564e+00 3.863890e+00 3.872564e+00 3.863890e+00 3.872564e+00 3.863890e+00 3.872564e+00 3.863890e+00 3.872564e+00 3.863890e+00 3.872564e+00 3.863890e+00 3.872564e+00 3.863890e+00 3.872564e+00 3.863890e+00 3.872564e+00 3.863890e+00 3.872564e+00 3.863890e+00 3.872564e+00 3.863890e+00 3.872564e+00 3.863890e+00 3.872564e+00 3.863890e+00 3.872564e+00 3.863890e+00 3.872564e+00 3.863890e+00 3.872564e+00 3.863890e+00 3.872564e+00 3.863890e+00 3.872564e+00 3.863890e+00 3.872564e+00 3.863890e+00 3.872564e+00 3.863890e+00 3.872564e+00 3.863890e+00 3.872564e+00 3.863890e+00 3.872564e+00 3.863889e+00 3.872564e+00 3.863889e+00 3.872564e+00 3.863889e+00 3.872564e+00 3.863889e+00 3.872563e+00 3.863889e+00 3.872563e+00 3.863889e+00 3.872563e+00 3.863889e+00 3.872563e+00 3.863888e+00 3.872563e+00 3.863888e+00 3.872563e+00 3.863888e+00 3.872562e+00 3.863887e+00 3.872562e+00 3.863887e+00 3.872562e+00 3.863886e+00 3.872561e+00 3.863886e+00 3.872561e+00 3.863885e+00 3.872560e+00 3.863884e+00 3.872559e+00 3.863882e+00 3.872558e+00 3.863881e+00 3.872557e+00 3.863879e+00 3.872556e+00 3.863877e+00 3.872554e+00 3.863874e+00 3.872552e+00 3.863871e+00 3.872549e+00 3.863866e+00 3.872546e+00 3.863862e+00 3.872543e+00 3.863856e+00 3.872538e+00 3.863849e+00 3.872533e+00 3.863840e+00 3.872527e+00 3.863830e+00 3.872519e+00 3.863817e+00 3.872510e+00 3.863802e+00 3.872498e+00 3.863783e+00 3.872485e+00 3.863761e+00 3.872468e+00 3.863733e+00 3.872448e+00 3.863700e+00 3.872424e+00 3.863659e+00 3.872394e+00 3.863609e+00 3.872358e+00 3.863548e+00 3.872313e+00 3.863473e+00 3.872258e+00 3.863381e+00 3.872190e+00 3.863267e+00 3.872105e+00 3.863124e+00 3.871999e+00 3.862946e+00 3.871865e+00 3.862722e+00 3.871695e+00 3.862437e+00 3.871477e+00 3.862075e+00 3.871201e+00 3.861618e+00 3.870865e+00 3.861066e+00 3.870522e+00 3.860507e+00 3.870447e+00 3.860369e+00 3.871705e+00 3.862184e+00 3.877054e+00 3.868495e+00 
3.896013e+00 3.885041e+00 3.896002e+00 3.884818e+00 3.859398e+00 3.850850e+00 3.829149e+00 3.824859e+00 3.811361e+00 3.810278e+00 3.803487e+00 3.804264e+00 3.802328e+00 3.804163e+00 3.805817e+00 3.808382e+00 3.812876e+00 3.816126e+00 3.823050e+00 3.827093e+00 3.836251e+00 3.841283e+00 3.852605e+00 3.858854e+00 3.872336e+00 3.880022e+00 3.895665e+00 3.904948e+00 3.922711e+00 3.933635e+00 3.953388e+00 3.965832e+00 3.987323e+00 4.000967e+00 4.023826e+00 4.038141e+00 4.061897e+00 4.076183e+00 4.100309e+00 4.113758e+00 4.137714e+00 4.149497e+00 4.172769e+00 4.182129e+00 4.204246e+00 4.210583e+00 4.231120e+00 4.234037e+00 4.252618e+00 4.251945e+00 4.268241e+00 4.264020e+00 4.277763e+00 4.270210e+00 4.281208e+00 4.270659e+00 4.278818e+00 4.265681e+00 4.271011e+00 4.255725e+00 4.258349e+00 4.241356e+00 4.241504e+00 4.223235e+00 4.221221e+00 4.202087e+00 4.198289e+00 4.178675e+00 4.173501e+00 4.153758e+00 4.147618e+00 4.128056e+00 4.121338e+00 4.102221e+00 4.095272e+00 4.076815e+00 4.069931e+00 4.052301e+00 4.045725e+00 4.029042e+00 4.022961e+00 4.007305e+00 4.001857e+00 3.987267e+00 3.982545e+00 3.969032e+00 3.965088e+00 3.952632e+00 3.949485e+00 3.938045e+00 3.935686e+00 3.925203e+00 3.923599e+00 3.914001e+00 3.913105e+00 3.904312e+00 3.904066e+00 3.895995e+00 3.896335e+00 3.888902e+00 3.889762e+00 3.882888e+00 3.884204e+00 3.877814e+00 3.879526e+00 3.873551e+00 3.875603e+00 3.869982e+00 3.872324e+00 3.867003e+00 3.869592e+00 3.864523e+00 3.867319e+00 3.862462e+00 3.865433e+00 3.860754e+00 3.863870e+00 3.859339e+00 3.862577e+00 3.858168e+00 3.861507e+00 3.857201e+00 3.860624e+00 3.856403e+00 3.859896e+00 3.855745e+00 3.859295e+00 3.855202e+00 3.858800e+00 3.854754e+00 3.858391e+00 3.854386e+00 3.858055e+00 3.854082e+00 3.857779e+00 3.853832e+00 3.857551e+00 3.853626e+00 3.857363e+00 3.853457e+00 3.857209e+00 3.853318e+00 3.857082e+00 3.853203e+00 3.856978e+00 3.853109e+00 3.856892e+00 3.853031e+00 3.856821e+00 3.852968e+00 3.856763e+00 3.852915e+00 3.856715e+00 3.852872e+00 3.856676e+00 3.852837e+00 3.856643e+00 3.852807e+00 3.856617e+00 3.852783e+00 3.856595e+00 3.852764e+00 3.856577e+00 3.852747e+00 3.856562e+00 3.852734e+00 3.856550e+00 3.852723e+00 3.856540e+00 3.852714e+00 3.856532e+00 3.852707e+00 3.856525e+00 3.852701e+00 3.856520e+00 3.852696e+00 3.856515e+00 3.852691e+00 3.856511e+00 3.852688e+00 3.856508e+00 3.852685e+00 3.856506e+00 3.852683e+00 3.856504e+00 3.852681e+00 3.856502e+00 3.852680e+00 3.856500e+00 3.852678e+00 3.856499e+00 3.852677e+00 3.856498e+00 3.852676e+00 3.856498e+00 3.852676e+00 3.856497e+00 3.852675e+00 3.856496e+00 3.852675e+00 3.856496e+00 3.852674e+00 3.856496e+00 3.852674e+00 3.856495e+00 3.852674e+00 3.856495e+00 3.852673e+00 3.856495e+00 3.852673e+00 3.856495e+00 3.852673e+00 3.856495e+00 3.852673e+00 3.856494e+00 3.852673e+00 3.856494e+00 3.852673e+00 3.856494e+00 3.852673e+00 3.856494e+00 3.852673e+00 3.856494e+00 3.852673e+00 3.856494e+00 3.852673e+00 3.856494e+00 3.852673e+00 3.856494e+00 3.852672e+00 3.856494e+00 3.852672e+00 3.856494e+00 3.852672e+00 3.856494e+00 3.852672e+00 3.856494e+00 3.852672e+00 3.856494e+00 3.852672e+00 3.856494e+00 3.852672e+00 3.856494e+00 3.852672e+00 3.856494e+00 3.852672e+00 3.856494e+00 3.852672e+00 3.856494e+00 3.852672e+00 3.856494e+00 3.852672e+00 3.856494e+00 3.852672e+00 3.856494e+00 3.852672e+00 3.856494e+00 3.852672e+00 3.856494e+00 3.852672e+00 3.856494e+00 3.852672e+00 3.856493e+00 3.852672e+00 3.856493e+00 3.852672e+00 3.856493e+00 3.852672e+00 3.856493e+00 3.852672e+00 3.856493e+00 3.852671e+00 3.856493e+00 3.852671e+00 3.856492e+00 3.852671e+00 3.856492e+00 3.852671e+00 3.856492e+00 3.852670e+00 3.856491e+00 3.852670e+00 3.856491e+00 3.852669e+00 3.856490e+00 3.852668e+00 3.856489e+00 3.852668e+00 3.856488e+00 3.852667e+00 3.856487e+00 3.852665e+00 3.856485e+00 3.852664e+00 3.856483e+00 3.852662e+00 3.856481e+00 3.852660e+00 3.856478e+00 3.852657e+00 3.856475e+00 3.852654e+00 3.856471e+00 3.852650e+00 3.856466e+00 3.852645e+00 3.856460e+00 3.852639e+00 3.856453e+00 3.852632e+00 3.856444e+00 3.852623e+00 3.856433e+00 3.852612e+00 3.856420e+00 3.852599e+00 3.856404e+00 3.852584e+00 3.856385e+00 3.852565e+00 3.856362e+00 3.852541e+00 3.856333e+00 3.852513e+00 3.856298e+00 3.852478e+00 3.856256e+00 3.852437e+00 3.856205e+00 3.852386e+00 3.856142e+00 3.852323e+00 3.856066e+00 3.852248e+00 3.855973e+00 3.852156e+00 3.855860e+00 3.852043e+00 3.855722e+00 3.851906e+00 3.855554e+00 3.851739e+00 3.855349e+00 3.851535e+00 3.855098e+00 3.851285e+00 3.854791e+00 3.850979e+00 3.854415e+00 3.850603e+00 3.853953e+00 3.850141e+00 3.853386e+00 3.849572e+00 3.852686e+00 3.848869e+00 3.851821e+00 3.847996e+00 3.850747e+00 3.846909e+00 3.849409e+00 3.845549e+00 3.847733e+00 3.843836e+00 3.845622e+00 3.841667e+00 3.842947e+00 3.838901e+00 3.839533e+00 3.835356e+00 3.835159e+00 3.830811e+00 3.829557e+00 3.825062e+00 3.822502e+00 3.818155e+00 3.814136e+00 3.811197e+00 3.806063e+00 3.808753e+00 3.804453e+00 3.824463e+00 3.826661e+00 3.884348e+00 