# vtk DataFile Version 2.0
Comment goes here
ASCII

DATASET STRUCTURED_POINTS
FIELD FieldData 1
TIME 1 1 double
2.35000000
DIMENSIONS    384   64   1

ORIGIN    0.000   0.000   0.000
SPACING   0.078125 0.078125   1.000

POINT_DATA   24576
SCALARS uMag double
LOOKUP_TABLE default

4.723521e+00 4.756151e+00 4.723466e+00 4.757552e+00 4.783870e+00 4.815491e+00 4.834004e+00 4.852816e+00 4.864089e+00 4.875528e+00 4.883377e+00 4.891755e+00 4.899144e+00 4.907153e+00 4.915575e+00 4.924274e+00 4.934065e+00 4.943668e+00 4.954798e+00 4.965396e+00 4.977919e+00 4.989717e+00 5.003806e+00 5.017054e+00 5.032859e+00 5.047717e+00 5.065266e+00 5.081760e+00 5.100948e+00 5.118976e+00 5.139583e+00 5.158943e+00 5.180652e+00 5.201042e+00 5.223451e+00 5.244480e+00 5.267117e+00 5.288312e+00 5.310662e+00 5.331505e+00 5.353055e+00 5.373020e+00 5.393297e+00 5.411900e+00 5.430512e+00 5.447345e+00 5.464000e+00 5.478754e+00 5.493268e+00 5.505746e+00 5.518036e+00 5.528148e+00 5.538214e+00 5.545966e+00 5.553872e+00 5.559342e+00 5.565197e+00 5.568519e+00 5.572465e+00 5.573824e+00 5.576043e+00 5.575681e+00 5.576411e+00 5.574637e+00 5.574188e+00 5.571382e+00 5.570130e+00 5.566726e+00 5.565093e+00 5.561542e+00 5.559949e+00 5.556670e+00 5.555488e+00 5.552822e+00 5.552325e+00 5.550488e+00 5.550815e+00 5.549871e+00 5.551007e+00 5.550862e+00 5.552637e+00 5.553049e+00 5.555162e+00 5.555774e+00 5.557836e+00 5.558232e+00 5.559822e+00 5.559581e+00 5.560308e+00 5.559071e+00 5.558627e+00 5.556138e+00 5.554339e+00 5.550477e+00 5.547275e+00 5.542056e+00 5.537530e+00 5.531085e+00 5.525418e+00 5.517961e+00 5.511393e+00 5.503178e+00 5.495974e+00 5.487260e+00 5.479670e+00 5.470691e+00 5.462929e+00 5.453874e+00 5.446104e+00 5.437107e+00 5.429435e+00 5.420574e+00 5.413052e+00 5.404351e+00 5.396981e+00 5.388420e+00 5.381163e+00 5.372687e+00 5.365477e+00 5.357010e+00 5.349764e+00 5.341220e+00 5.333854e+00 5.325149e+00 5.317584e+00 5.308648e+00 5.300822e+00 5.291603e+00 5.283476e+00 5.273946e+00 5.265503e+00 5.255660e+00 5.246911e+00 5.236777e+00 5.227757e+00 5.217377e+00 5.208139e+00 5.197574e+00 5.188188e+00 5.177516e+00 5.168065e+00 5.157370e+00 5.147942e+00 5.137316e+00 5.128002e+00 5.117537e+00 5.108428e+00 5.098211e+00 5.089393e+00 5.079508e+00 5.071059e+00 5.061579e+00 5.053567e+00 5.044553e+00 5.037035e+00 5.028539e+00 5.021558e+00 5.013616e+00 5.007203e+00 4.999838e+00 4.994010e+00 4.987234e+00 4.981995e+00 4.975807e+00 4.971151e+00 4.965537e+00 4.961447e+00 4.956387e+00 4.952837e+00 4.948302e+00 4.945259e+00 4.941214e+00 4.938641e+00 4.935046e+00 4.932903e+00 4.929717e+00 4.927962e+00 4.925143e+00 4.923734e+00 4.921239e+00 4.920135e+00 4.917926e+00 4.917089e+00 4.915128e+00 4.914521e+00 4.912774e+00 4.912365e+00 4.910801e+00 4.910562e+00 4.909153e+00 4.909057e+00 4.907781e+00 4.907805e+00 4.906639e+00 4.906766e+00 4.905692e+00 4.905904e+00 4.904908e+00 4.905190e+00 4.904259e+00 4.904600e+00 4.903723e+00 4.904113e+00 4.903280e+00 4.903711e+00 4.902915e+00 4.903379e+00 4.902614e+00 4.903106e+00 4.902366e+00 4.902880e+00 4.902161e+00 4.902695e+00 4.901993e+00 4.902542e+00 4.901854e+00 4.902416e+00 4.901740e+00 4.902313e+00 4.901646e+00 4.902228e+00 4.901569e+00 4.902157e+00 4.901505e+00 4.902100e+00 4.901453e+00 4.902052e+00 4.901410e+00 4.902013e+00 4.901375e+00 4.901981e+00 4.901345e+00 4.901955e+00 4.901322e+00 4.901933e+00 4.901302e+00 4.901915e+00 4.901286e+00 4.901901e+00 4.901272e+00 4.901889e+00 4.901261e+00 4.901879e+00 4.901252e+00 4.901870e+00 4.901245e+00 4.901864e+00 4.901239e+00 4.901858e+00 4.901234e+00 4.901854e+00 4.901230e+00 4.901850e+00 4.901226e+00 4.901847e+00 4.901224e+00 4.901844e+00 4.901221e+00 4.901842e+00 4.901219e+00 4.901840e+00 4.901218e+00 4.901839e+00 4.901217e+00 4.901838e+00 4.901215e+00 4.901837e+00 4.901215e+00 4.901836e+00 4.901214e+00 4.901835e+00 4.901213e+00 4.901835e+00 4.901213e+00 4.901834e+00 4.901212e+00 4.901834e+00 4.901212e+00 4.901834e+00 4.901212e+00 4.901833e+00 4.901211e+00 4.901833e+00 4.901211e+00 4.901833e+00 4.901211e+00 4.901833e+00 4.901211e+00 4.901832e+00 4.901210e+00 4.901832e+00 4.901210e+00 4.901832e+00 4.901210e+00 4.901831e+00 4.901209e+00 4.901831e+00 4.901209e+00 4.901830e+00 4.901208e+00 4.901830e+00 4.901208e+00 4.901829e+00 4.901207e+00 4.901828e+00 4.901206e+00 4.901827e+00 4.901206e+00 4.901826e+00 4.901204e+00 4.901825e+00 4.901203e+00 4.901823e+00 4.901201e+00 4.901821e+00 4.901199e+00 4.901818e+00 4.901197e+00 4.901815e+00 4.901194e+00 4.901812e+00 4.901190e+00 4.901807e+00 4.901185e+00 4.901801e+00 4.901180e+00 4.901795e+00 4.901173e+00 4.901786e+00 4.901165e+00 4.901776e+00 4.901155e+00 4.901764e+00 4.901143e+00 4.901749e+00 4.901128e+00 4.901731e+00 4.901110e+00 4.901708e+00 4.901088e+00 4.901681e+00 4.901061e+00 4.901648e+00 4.901028e+00 4.901607e+00 4.900987e+00 4.901557e+00 4.900938e+00 4.901495e+00 4.900876e+00 4.901419e+00 4.900800e+00 4.901326e+00 4.900706e+00 4.901209e+00 4.900589e+00 4.901065e+00 4.900442e+00 4.900884e+00 4.900257e+00 4.900656e+00 4.900021e+00 4.900366e+00 4.899718e+00 4.899993e+00 4.899323e+00 4.899507e+00 4.898797e+00 4.898863e+00 4.898080e+00 4.897986e+00 4.897067e+00 4.896751e+00 4.895562e+00 4.894923e+00 4.893140e+00 4.891999e+00 4.888734e+00 4.886727e+00 4.879091e+00 4.875341e+00 4.852449e+00 4.844403e+00 4.760800e+00 
4.903199e+00 4.900881e+00 4.903200e+00 4.900466e+00 4.892206e+00 4.888594e+00 4.888633e+00 4.889560e+00 4.893932e+00 4.896532e+00 4.902440e+00 4.905949e+00 4.913276e+00 4.918204e+00 4.927307e+00 4.933894e+00 4.944751e+00 4.952880e+00 4.965304e+00 4.974849e+00 4.988773e+00 4.999781e+00 5.015296e+00 5.027910e+00 5.045124e+00 5.059441e+00 5.078360e+00 5.094355e+00 5.114850e+00 5.132372e+00 5.154190e+00 5.172971e+00 5.195754e+00 5.215429e+00 5.238729e+00 5.258841e+00 5.282146e+00 5.302167e+00 5.324931e+00 5.344301e+00 5.365984e+00 5.384157e+00 5.404277e+00 5.420766e+00 5.438934e+00 5.453352e+00 5.469294e+00 5.481377e+00 5.494941e+00 5.504553e+00 5.515705e+00 5.522831e+00 5.531637e+00 5.536369e+00 5.542976e+00 5.545486e+00 5.550098e+00 5.550623e+00 5.553488e+00 5.552315e+00 5.553723e+00 5.551190e+00 5.551478e+00 5.547973e+00 5.547531e+00 5.543492e+00 5.542750e+00 5.538645e+00 5.538054e+00 5.534347e+00 5.534336e+00 5.531437e+00 5.532364e+00 5.530584e+00 5.532684e+00 5.532188e+00 5.535537e+00 5.536313e+00 5.540807e+00 5.542659e+00 5.548014e+00 5.550577e+00 5.556362e+00 5.559142e+00 5.564827e+00 5.567264e+00 5.572286e+00 5.573823e+00 5.577660e+00 5.577816e+00 5.580050e+00 5.578474e+00 5.578840e+00 5.575347e+00 5.573751e+00 5.568329e+00 5.564840e+00 5.557629e+00 5.552454e+00 5.543709e+00 5.537147e+00 5.527194e+00 5.519590e+00 5.508780e+00 5.500487e+00 5.489164e+00 5.480510e+00 5.468979e+00 5.460246e+00 5.448760e+00 5.440169e+00 5.428913e+00 5.420615e+00 5.409703e+00 5.401776e+00 5.391253e+00 5.383709e+00 5.373554e+00 5.366346e+00 5.356488e+00 5.349525e+00 5.339857e+00 5.333023e+00 5.323420e+00 5.316588e+00 5.306928e+00 5.299981e+00 5.290156e+00 5.282999e+00 5.272928e+00 5.265498e+00 5.255137e+00 5.247406e+00 5.236745e+00 5.228721e+00 5.217783e+00 5.209506e+00 5.198344e+00 5.189878e+00 5.178568e+00 5.169996e+00 5.158625e+00 5.150042e+00 5.138709e+00 5.130212e+00 5.119016e+00 5.110704e+00 5.099740e+00 5.091705e+00 5.081062e+00 5.073388e+00 5.063143e+00 5.055903e+00 5.046122e+00 5.039373e+00 5.030109e+00 5.023898e+00 5.015188e+00 5.009545e+00 5.001414e+00 4.996357e+00 4.988815e+00 4.984349e+00 4.977397e+00 4.973514e+00 4.967137e+00 4.963821e+00 4.957999e+00 4.955224e+00 4.949926e+00 4.947659e+00 4.942851e+00 4.941054e+00 4.936696e+00 4.935329e+00 4.931379e+00 4.930399e+00 4.926817e+00 4.926182e+00 4.922924e+00 4.922594e+00 4.919621e+00 4.919557e+00 4.916831e+00 4.916997e+00 4.914485e+00 4.914849e+00 4.912520e+00 4.913052e+00 4.910878e+00 4.911553e+00 4.909510e+00 4.910306e+00 4.908373e+00 4.909270e+00 4.907430e+00 4.908412e+00 4.906649e+00 4.907701e+00 4.906003e+00 4.907114e+00 4.905469e+00 4.906629e+00 4.905028e+00 4.906228e+00 4.904664e+00 4.905898e+00 4.904364e+00 4.905626e+00 4.904117e+00 4.905401e+00 4.903914e+00 4.905217e+00 4.903746e+00 4.905064e+00 4.903608e+00 4.904939e+00 4.903494e+00 4.904836e+00 4.903401e+00 4.904751e+00 4.903324e+00 4.904682e+00 4.903261e+00 4.904624e+00 4.903209e+00 4.904577e+00 4.903166e+00 4.904538e+00 4.903130e+00 4.904506e+00 4.903102e+00 4.904480e+00 4.903078e+00 4.904458e+00 4.903058e+00 4.904440e+00 4.903042e+00 4.904426e+00 4.903029e+00 4.904414e+00 4.903018e+00 4.904404e+00 4.903009e+00 4.904396e+00 4.903001e+00 4.904389e+00 4.902995e+00 4.904384e+00 4.902990e+00 4.904379e+00 4.902986e+00 4.904375e+00 4.902983e+00 4.904372e+00 4.902980e+00 4.904370e+00 4.902978e+00 4.904368e+00 4.902976e+00 4.904366e+00 4.902974e+00 4.904365e+00 4.902973e+00 4.904363e+00 4.902972e+00 4.904363e+00 4.902971e+00 4.904362e+00 4.902971e+00 4.904361e+00 4.902970e+00 4.904361e+00 4.902970e+00 4.904360e+00 4.902969e+00 4.904360e+00 4.902969e+00 4.904359e+00 4.902969e+00 4.904359e+00 4.902968e+00 4.904359e+00 4.902968e+00 4.904359e+00 4.902968e+00 4.904359e+00 4.902968e+00 4.904359e+00 4.902968e+00 4.904359e+00 4.902968e+00 4.904358e+00 4.902968e+00 4.904358e+00 4.902968e+00 4.904358e+00 4.902967e+00 4.904358e+00 4.902967e+00 4.904358e+00 4.902967e+00 4.904358e+00 4.902967e+00 4.904358e+00 4.902967e+00 4.904358e+00 4.902967e+00 4.904358e+00 4.902967e+00 4.904358e+00 4.902967e+00 4.904358e+00 4.902967e+00 4.904358e+00 4.902967e+00 4.904358e+00 4.902967e+00 4.904358e+00 4.902967e+00 4.904358e+00 4.902966e+00 4.904358e+00 4.902966e+00 4.904357e+00 4.902966e+00 4.904357e+00 4.902965e+00 4.904357e+00 4.902965e+00 4.904357e+00 4.902965e+00 4.904357e+00 4.902964e+00 4.904356e+00 4.902963e+00 4.904356e+00 4.902962e+00 4.904355e+00 4.902961e+00 4.904355e+00 4.902960e+00 4.904354e+00 4.902958e+00 4.904353e+00 4.902956e+00 4.904352e+00 4.902954e+00 4.904351e+00 4.902951e+00 4.904349e+00 4.902947e+00 4.904347e+00 4.902942e+00 4.904345e+00 4.902937e+00 4.904342e+00 4.902930e+00 4.904338e+00 4.902921e+00 4.904334e+00 4.902909e+00 4.904328e+00 4.902895e+00 4.904322e+00 4.902876e+00 4.904313e+00 4.902852e+00 4.904303e+00 4.902819e+00 4.904290e+00 4.902774e+00 4.904275e+00 4.902709e+00 4.904257e+00 4.902612e+00 4.904240e+00 4.902456e+00 4.904235e+00 4.902174e+00 4.904300e+00 4.901600e+00 4.904764e+00 4.900666e+00 
4.908229e+00 4.906594e+00 4.908254e+00 4.906009e+00 4.892871e+00 4.890227e+00 4.885708e+00 4.888110e+00 4.889269e+00 4.893948e+00 4.897823e+00 4.903601e+00 4.909451e+00 4.916475e+00 4.924348e+00 4.932862e+00 4.942723e+00 4.952719e+00 4.964382e+00 4.975771e+00 4.989114e+00 5.001918e+00 5.016968e+00 5.031313e+00 5.048143e+00 5.064126e+00 5.082731e+00 5.100331e+00 5.120566e+00 5.139620e+00 5.161202e+00 5.181415e+00 5.203935e+00 5.224898e+00 5.247849e+00 5.269053e+00 5.291852e+00 5.312717e+00 5.334745e+00 5.354664e+00 5.375318e+00 5.393708e+00 5.412457e+00 5.428811e+00 5.445241e+00 5.459177e+00 5.473017e+00 5.484296e+00 5.495430e+00 5.503967e+00 5.512420e+00 5.518271e+00 5.524193e+00 5.527537e+00 5.531173e+00 5.532286e+00 5.533951e+00 5.533180e+00 5.533240e+00 5.530983e+00 5.529841e+00 5.526539e+00 5.524635e+00 5.520766e+00 5.518572e+00 5.514642e+00 5.512651e+00 5.509176e+00 5.507877e+00 5.505347e+00 5.505187e+00 5.504017e+00 5.505347e+00 5.505829e+00 5.508854e+00 5.511109e+00 5.515844e+00 5.519784e+00 5.526037e+00 5.531363e+00 5.538733e+00 5.544953e+00 5.552872e+00 5.559350e+00 5.567140e+00 5.573167e+00 5.580117e+00 5.584993e+00 5.590443e+00 5.593558e+00 5.596971e+00 5.597871e+00 5.598896e+00 5.597326e+00 5.595815e+00 5.591732e+00 5.587744e+00 5.581294e+00 5.575061e+00 5.566543e+00 5.558421e+00 5.548233e+00 5.538654e+00 5.527244e+00 5.516667e+00 5.504490e+00 5.493359e+00 5.480842e+00 5.469561e+00 5.457076e+00 5.445980e+00 5.433822e+00 5.423166e+00 5.411540e+00 5.401480e+00 5.390495e+00 5.381092e+00 5.370762e+00 5.361988e+00 5.352246e+00 5.344001e+00 5.334718e+00 5.326850e+00 5.317860e+00 5.310195e+00 5.301320e+00 5.293685e+00 5.284763e+00 5.277009e+00 5.267907e+00 5.259923e+00 5.250554e+00 5.242276e+00 5.232599e+00 5.224010e+00 5.214030e+00 5.205156e+00 5.194917e+00 5.185818e+00 5.175394e+00 5.166154e+00 5.155638e+00 5.146357e+00 5.135853e+00 5.126637e+00 5.116250e+00 5.107203e+00 5.097037e+00 5.088258e+00 5.078405e+00 5.069982e+00 5.060525e+00 5.052534e+00 5.043540e+00 5.036042e+00 5.027565e+00 5.020606e+00 5.012686e+00 5.006296e+00 4.998957e+00 4.993155e+00 4.986407e+00 4.981197e+00 4.975038e+00 4.970413e+00 4.964831e+00 4.960772e+00 4.955744e+00 4.952225e+00 4.947722e+00 4.944711e+00 4.940696e+00 4.938153e+00 4.934587e+00 4.932473e+00 4.929314e+00 4.927586e+00 4.924791e+00 4.923406e+00 4.920935e+00 4.919853e+00 4.917664e+00 4.916846e+00 4.914904e+00 4.914314e+00 4.912583e+00 4.912190e+00 4.910640e+00 4.910414e+00 4.909017e+00 4.908932e+00 4.907666e+00 4.907701e+00 4.906544e+00 4.906678e+00 4.905613e+00 4.905831e+00 4.904842e+00 4.905129e+00 4.904204e+00 4.904550e+00 4.903677e+00 4.904071e+00 4.903242e+00 4.903676e+00 4.902884e+00 4.903351e+00 4.902588e+00 4.903082e+00 4.902344e+00 4.902861e+00 4.902144e+00 4.902679e+00 4.901978e+00 4.902529e+00 4.901842e+00 4.902405e+00 4.901730e+00 4.902304e+00 4.901638e+00 4.902220e+00 4.901562e+00 4.902151e+00 4.901500e+00 4.902095e+00 4.901448e+00 4.902048e+00 4.901406e+00 4.902010e+00 4.901371e+00 4.901978e+00 4.901343e+00 4.901953e+00 4.901319e+00 4.901931e+00 4.901300e+00 4.901914e+00 4.901284e+00 4.901899e+00 4.901271e+00 4.901887e+00 4.901260e+00 4.901878e+00 4.901252e+00 4.901870e+00 4.901244e+00 4.901863e+00 4.901238e+00 4.901858e+00 4.901233e+00 4.901853e+00 4.901229e+00 4.901850e+00 4.901226e+00 4.901847e+00 4.901223e+00 4.901844e+00 4.901221e+00 4.901842e+00 4.901219e+00 4.901840e+00 4.901218e+00 4.901839e+00 4.901216e+00 4.901838e+00 4.901215e+00 4.901837e+00 4.901215e+00 4.901836e+00 4.901214e+00 4.901835e+00 4.901213e+00 4.901835e+00 4.901213e+00 4.901834e+00 4.901212e+00 4.901834e+00 4.901212e+00 4.901834e+00 4.901212e+00 4.901833e+00 4.901211e+00 4.901833e+00 4.901211e+00 4.901833e+00 4.901211e+00 4.901833e+00 4.901211e+00 4.901832e+00 4.901210e+00 4.901832e+00 4.901210e+00 4.901832e+00 4.901210e+00 4.901831e+00 4.901209e+00 4.901831e+00 4.901209e+00 4.901830e+00 4.901209e+00 4.901830e+00 4.901208e+00 4.901829e+00 4.901207e+00 4.901828e+00 4.901207e+00 4.901827e+00 4.901206e+00 4.901826e+00 4.901204e+00 4.901825e+00 4.901203e+00 4.901823e+00 4.901201e+00 4.901821e+00 4.901199e+00 4.901819e+00 4.901197e+00 4.901816e+00 4.901194e+00 4.901812e+00 4.901190e+00 4.901807e+00 4.901186e+00 4.901802e+00 4.901181e+00 4.901795e+00 4.901174e+00 4.901787e+00 4.901166e+00 4.901777e+00 4.901156e+00 4.901765e+00 4.901144e+00 4.901751e+00 4.901130e+00 4.901733e+00 4.901112e+00 4.901711e+00 4.901090e+00 4.901684e+00 4.901064e+00 4.901651e+00 4.901032e+00 4.901611e+00 4.900992e+00 4.901562e+00 4.900943e+00 4.901502e+00 4.900883e+00 4.901428e+00 4.900809e+00 4.901337e+00 4.900717e+00 4.901223e+00 4.900603e+00 4.901083e+00 4.900461e+00 4.900907e+00 4.900281e+00 4.900686e+00 4.900054e+00 4.900406e+00 4.899763e+00 4.900049e+00 4.899387e+00 4.899586e+00 4.898891e+00 4.898978e+00 4.898226e+00 4.898164e+00 4.897312e+00 4.897047e+00 4.896018e+00 4.895469e+00 4.894132e+00 4.893175e+00 4.891355e+00 4.889798e+00 4.887616e+00 4.885202e+00 4.885481e+00 4.882131e+00 4.904611e+00 
4.904055e+00 4.902581e+00 4.904052e+00 4.903095e+00 4.909412e+00 4.909069e+00 4.911482e+00 4.910551e+00 4.913213e+00 4.913581e+00 4.917898e+00 4.920036e+00 4.926332e+00 4.930458e+00 4.938937e+00 4.945198e+00 4.955895e+00 4.964211e+00 4.976949e+00 4.987115e+00 5.001702e+00 5.013601e+00 5.029984e+00 5.043634e+00 5.061839e+00 5.077272e+00 5.097270e+00 5.114420e+00 5.136046e+00 5.154700e+00 5.177634e+00 5.197432e+00 5.221218e+00 5.241677e+00 5.265747e+00 5.286278e+00 5.309989e+00 5.329936e+00 5.352612e+00 5.371302e+00 5.392296e+00 5.409099e+00 5.427851e+00 5.442242e+00 5.458329e+00 5.469936e+00 5.483101e+00 5.491727e+00 5.501888e+00 5.507515e+00 5.514757e+00 5.517527e+00 5.522076e+00 5.522267e+00 5.524462e+00 5.522455e+00 5.522715e+00 5.518965e+00 5.517763e+00 5.512771e+00 5.510617e+00 5.504918e+00 5.502346e+00 5.496498e+00 5.494061e+00 5.488633e+00 5.486887e+00 5.482440e+00 5.481919e+00 5.478971e+00 5.480146e+00 5.479123e+00 5.482349e+00 5.483529e+00 5.488985e+00 5.492445e+00 5.500091e+00 5.505671e+00 5.515224e+00 5.522520e+00 5.533465e+00 5.541856e+00 5.553487e+00 5.562194e+00 5.573683e+00 5.581847e+00 5.592333e+00 5.599105e+00 5.607784e+00 5.612418e+00 5.618631e+00 5.620562e+00 5.623859e+00 5.622755e+00 5.622930e+00 5.618708e+00 5.615802e+00 5.608614e+00 5.602883e+00 5.593069e+00 5.584928e+00 5.572964e+00 5.562935e+00 5.549368e+00 5.538018e+00 5.523422e+00 5.511319e+00 5.496244e+00 5.483916e+00 5.468859e+00 5.456762e+00 5.442131e+00 5.430622e+00 5.416715e+00 5.406031e+00 5.393022e+00 5.383274e+00 5.371211e+00 5.362389e+00 5.351207e+00 5.343198e+00 5.332745e+00 5.325362e+00 5.315426e+00 5.308446e+00 5.298797e+00 5.291989e+00 5.282407e+00 5.275568e+00 5.265871e+00 5.258845e+00 5.248903e+00 5.241590e+00 5.231334e+00 5.223694e+00 5.213112e+00 5.205159e+00 5.194289e+00 5.186079e+00 5.174992e+00 5.166613e+00 5.155407e+00 5.146964e+00 5.135750e+00 5.127354e+00 5.116244e+00 5.108007e+00 5.097110e+00 5.089136e+00 5.078549e+00 5.070930e+00 5.060739e+00 5.053553e+00 5.043827e+00 5.037136e+00 5.027931e+00 5.021781e+00 5.013135e+00 5.007558e+00 4.999495e+00 4.994508e+00 4.987037e+00 4.982643e+00 4.975763e+00 4.971954e+00 4.965650e+00 4.962407e+00 4.956656e+00 4.953952e+00 4.948724e+00 4.946524e+00 4.941782e+00 4.940050e+00 4.935754e+00 4.934447e+00 4.930555e+00 4.929630e+00 4.926100e+00 4.925516e+00 4.922305e+00 4.922020e+00 4.919090e+00 4.919066e+00 4.916378e+00 4.916579e+00 4.914100e+00 4.914495e+00 4.912194e+00 4.912753e+00 4.910603e+00 4.911301e+00 4.909280e+00 4.910095e+00 4.908180e+00 4.909094e+00 4.907269e+00 4.908265e+00 4.906515e+00 4.907579e+00 4.905891e+00 4.907012e+00 4.905377e+00 4.906545e+00 4.904952e+00 4.906159e+00 4.904601e+00 4.905840e+00 4.904312e+00 4.905578e+00 4.904074e+00 4.905362e+00 4.903878e+00 4.905184e+00 4.903717e+00 4.905038e+00 4.903584e+00 4.904917e+00 4.903474e+00 4.904818e+00 4.903384e+00 4.904736e+00 4.903310e+00 4.904669e+00 4.903250e+00 4.904614e+00 4.903199e+00 4.904569e+00 4.903158e+00 4.904531e+00 4.903124e+00 4.904500e+00 4.903096e+00 4.904475e+00 4.903073e+00 4.904454e+00 4.903055e+00 4.904437e+00 4.903039e+00 4.904423e+00 4.903026e+00 4.904412e+00 4.903016e+00 4.904402e+00 4.903007e+00 4.904394e+00 4.903000e+00 4.904388e+00 4.902994e+00 4.904383e+00 4.902990e+00 4.904378e+00 4.902986e+00 4.904375e+00 4.902982e+00 4.904372e+00 4.902980e+00 4.904369e+00 4.902977e+00 4.904367e+00 4.902976e+00 4.904366e+00 4.902974e+00 4.904364e+00 4.902973e+00 4.904363e+00 4.902972e+00 4.904362e+00 4.902971e+00 4.904362e+00 4.902970e+00 4.904361e+00 4.902970e+00 4.904360e+00 4.902969e+00 4.904360e+00 4.902969e+00 4.904360e+00 4.902969e+00 4.904359e+00 4.902969e+00 4.904359e+00 4.902968e+00 4.904359e+00 4.902968e+00 4.904359e+00 4.902968e+00 4.904359e+00 4.902968e+00 4.904359e+00 4.902968e+00 4.904359e+00 4.902968e+00 4.904358e+00 4.902968e+00 4.904358e+00 4.902968e+00 4.904358e+00 4.902967e+00 4.904358e+00 4.902967e+00 4.904358e+00 4.902967e+00 4.904358e+00 4.902967e+00 4.904358e+00 4.902967e+00 4.904358e+00 4.902967e+00 4.904358e+00 4.902967e+00 4.904358e+00 4.902967e+00 4.904358e+00 4.902967e+00 4.904358e+00 4.902967e+00 4.904358e+00 4.902967e+00 4.904358e+00 4.902967e+00 4.904358e+00 4.902966e+00 4.904358e+00 4.902966e+00 4.904357e+00 4.902966e+00 4.904357e+00 4.902966e+00 4.904357e+00 4.902965e+00 4.904357e+00 4.902965e+00 4.904357e+00 4.902964e+00 4.904356e+00 4.902963e+00 4.904356e+00 4.902962e+00 4.904355e+00 4.902961e+00 4.904355e+00 4.902960e+00 4.904354e+00 4.902959e+00 4.904353e+00 4.902957e+00 4.904352e+00 4.902954e+00 4.904351e+00 4.902951e+00 4.904349e+00 4.902948e+00 4.904347e+00 4.902943e+00 4.904345e+00 4.902938e+00 4.904342e+00 4.902931e+00 4.904339e+00 4.902923e+00 4.904334e+00 4.902912e+00 4.904329e+00 4.902898e+00 4.904323e+00 4.902881e+00 4.904315e+00 4.902859e+00 4.904305e+00 4.902830e+00 4.904292e+00 4.902792e+00 4.904277e+00 4.902741e+00 4.904257e+00 4.902674e+00 4.904232e+00 4.902590e+00 4.904193e+00 4.902507e+00 4.904110e+00 4.902549e+00 4.903812e+00 4.903177e+00 
4.908025e+00 4.906368e+00 4.908029e+00 4.906344e+00 4.904346e+00 4.904673e+00 4.903962e+00 4.905836e+00 4.907082e+00 4.910369e+00 4.913605e+00 4.918264e+00 4.923480e+00 4.929706e+00 4.937108e+00 4.945212e+00 4.954951e+00 4.965025e+00 4.976992e+00 4.988900e+00 5.002890e+00 5.016512e+00 5.032433e+00 5.047778e+00 5.065638e+00 5.082750e+00 5.102521e+00 5.121344e+00 5.142856e+00 5.163173e+00 5.186080e+00 5.207504e+00 5.231294e+00 5.253287e+00 5.277316e+00 5.299222e+00 5.322747e+00 5.343832e+00 5.366077e+00 5.385592e+00 5.405813e+00 5.423063e+00 5.440626e+00 5.455045e+00 5.469489e+00 5.480695e+00 5.491765e+00 5.499584e+00 5.507242e+00 5.511714e+00 5.516120e+00 5.517473e+00 5.518955e+00 5.517572e+00 5.516584e+00 5.512964e+00 5.510049e+00 5.504765e+00 5.500518e+00 5.494190e+00 5.489234e+00 5.482500e+00 5.477471e+00 5.470978e+00 5.466511e+00 5.460902e+00 5.457620e+00 5.453511e+00 5.452000e+00 5.449949e+00 5.450710e+00 5.451162e+00 5.454558e+00 5.457784e+00 5.463974e+00 5.470013e+00 5.478900e+00 5.487519e+00 5.498732e+00 5.509425e+00 5.522333e+00 5.534354e+00 5.548116e+00 5.560546e+00 5.574190e+00 5.586019e+00 5.598532e+00 5.608764e+00 5.619195e+00 5.626943e+00 5.634497e+00 5.639072e+00 5.643192e+00 5.644170e+00 5.644577e+00 5.641825e+00 5.638531e+00 5.632195e+00 5.625474e+00 5.615933e+00 5.606260e+00 5.594066e+00 5.582051e+00 5.567858e+00 5.554184e+00 5.538685e+00 5.524048e+00 5.507925e+00 5.492983e+00 5.476861e+00 5.462195e+00 5.446599e+00 5.432673e+00 5.417998e+00 5.405131e+00 5.391617e+00 5.379970e+00 5.367698e+00 5.357276e+00 5.346182e+00 5.336860e+00 5.326762e+00 5.318315e+00 5.308959e+00 5.301109e+00 5.292207e+00 5.284669e+00 5.275944e+00 5.268461e+00 5.259681e+00 5.252050e+00 5.243048e+00 5.235138e+00 5.225817e+00 5.217566e+00 5.207901e+00 5.199313e+00 5.189332e+00 5.180461e+00 5.170240e+00 5.161177e+00 5.150816e+00 5.141671e+00 5.131288e+00 5.122180e+00 5.111893e+00 5.102939e+00 5.092862e+00 5.084170e+00 5.074404e+00 5.066070e+00 5.056702e+00 5.048804e+00 5.039907e+00 5.032509e+00 5.024136e+00 5.017283e+00 5.009472e+00 5.003195e+00 4.995971e+00 4.990285e+00 4.983654e+00 4.978563e+00 4.972522e+00 4.968015e+00 4.962550e+00 4.958606e+00 4.953692e+00 4.950285e+00 4.945891e+00 4.942986e+00 4.939074e+00 4.936631e+00 4.933161e+00 4.931139e+00 4.928069e+00 4.926425e+00 4.923711e+00 4.922403e+00 4.920003e+00 4.918990e+00 4.916866e+00 4.916109e+00 4.914223e+00 4.913687e+00 4.912005e+00 4.911658e+00 4.910152e+00 4.909965e+00 4.908606e+00 4.908556e+00 4.907321e+00 4.907385e+00 4.906255e+00 4.906415e+00 4.905372e+00 4.905611e+00 4.904641e+00 4.904947e+00 4.904038e+00 4.904398e+00 4.903539e+00 4.903946e+00 4.903128e+00 4.903572e+00 4.902789e+00 4.903265e+00 4.902510e+00 4.903011e+00 4.902280e+00 4.902802e+00 4.902090e+00 4.902630e+00 4.901934e+00 4.902489e+00 4.901806e+00 4.902373e+00 4.901700e+00 4.902277e+00 4.901613e+00 4.902198e+00 4.901542e+00 4.902133e+00 4.901483e+00 4.902080e+00 4.901435e+00 4.902036e+00 4.901395e+00 4.902000e+00 4.901362e+00 4.901970e+00 4.901335e+00 4.901946e+00 4.901313e+00 4.901926e+00 4.901295e+00 4.901909e+00 4.901280e+00 4.901895e+00 4.901268e+00 4.901884e+00 4.901258e+00 4.901875e+00 4.901249e+00 4.901868e+00 4.901242e+00 4.901861e+00 4.901237e+00 4.901856e+00 4.901232e+00 4.901852e+00 4.901228e+00 4.901849e+00 4.901225e+00 4.901846e+00 4.901223e+00 4.901843e+00 4.901220e+00 4.901841e+00 4.901219e+00 4.901840e+00 4.901217e+00 4.901839e+00 4.901216e+00 4.901838e+00 4.901215e+00 4.901837e+00 4.901214e+00 4.901836e+00 4.901214e+00 4.901835e+00 4.901213e+00 4.901835e+00 4.901213e+00 4.901834e+00 4.901212e+00 4.901834e+00 4.901212e+00 4.901834e+00 4.901212e+00 4.901833e+00 4.901211e+00 4.901833e+00 4.901211e+00 4.901833e+00 4.901211e+00 4.901833e+00 4.901211e+00 4.901832e+00 4.901210e+00 4.901832e+00 4.901210e+00 4.901832e+00 4.901210e+00 4.901831e+00 4.901209e+00 4.901831e+00 4.901209e+00 4.901831e+00 4.901209e+00 4.901830e+00 4.901208e+00 4.901829e+00 4.901208e+00 4.901829e+00 4.901207e+00 4.901828e+00 4.901206e+00 4.901827e+00 4.901205e+00 4.901825e+00 4.901204e+00 4.901824e+00 4.901202e+00 4.901822e+00 4.901200e+00 4.901819e+00 4.901198e+00 4.901817e+00 4.901195e+00 4.901813e+00 4.901192e+00 4.901809e+00 4.901187e+00 4.901804e+00 4.901182e+00 4.901797e+00 4.901176e+00 4.901790e+00 4.901169e+00 4.901781e+00 4.901159e+00 4.901769e+00 4.901148e+00 4.901755e+00 4.901135e+00 4.901739e+00 4.901118e+00 4.901718e+00 4.901098e+00 4.901693e+00 4.901073e+00 4.901662e+00 4.901043e+00 4.901625e+00 4.901006e+00 4.901579e+00 4.900960e+00 4.901523e+00 4.900904e+00 4.901454e+00 4.900836e+00 4.901369e+00 4.900751e+00 4.901265e+00 4.900646e+00 4.901135e+00 4.900516e+00 4.900975e+00 4.900354e+00 4.900775e+00 4.900151e+00 4.900525e+00 4.899895e+00 4.900210e+00 4.899570e+00 4.899810e+00 4.899155e+00 4.899300e+00 4.898623e+00 4.898645e+00 4.897938e+00 4.897804e+00 4.897068e+00 4.896734e+00 4.896015e+00 4.895434e+00 4.894940e+00 4.894083e+00 4.894526e+00 4.893467e+00 4.896888e+00 4.896055e+00 4.906242e+00 