# vtk DataFile Version 2.0
Comment goes here
ASCII

DATASET STRUCTURED_POINTS
FIELD FieldData 1
TIME 1 1 double
1.57500000
DIMENSIONS    384   64   1

ORIGIN    0.000   0.000   0.000
SPACING   0.078125 0.078125   1.000

POINT_DATA   24576
SCALARS uMag double
LOOKUP_TABLE default

4.053573e+00 4.147217e+00 4.053446e+00 4.152043e+00 4.232644e+00 4.319434e+00 4.367070e+00 4.413447e+00 4.438414e+00 4.463701e+00 4.478408e+00 4.493667e+00 4.504687e+00 4.515716e+00 4.526206e+00 4.535656e+00 4.546842e+00 4.555861e+00 4.568223e+00 4.577388e+00 4.591158e+00 4.600820e+00 4.616121e+00 4.626492e+00 4.643354e+00 4.654533e+00 4.672890e+00 4.684882e+00 4.704577e+00 4.717299e+00 4.738079e+00 4.751368e+00 4.772882e+00 4.786494e+00 4.808309e+00 4.821937e+00 4.843563e+00 4.856867e+00 4.877798e+00 4.890445e+00 4.910208e+00 4.921906e+00 4.940099e+00 4.950628e+00 4.966952e+00 4.976178e+00 4.990453e+00 4.998329e+00 5.010493e+00 5.017044e+00 5.027147e+00 5.032448e+00 5.040625e+00 5.044776e+00 5.051225e+00 5.054332e+00 5.059281e+00 5.061444e+00 5.065128e+00 5.066433e+00 5.069068e+00 5.069581e+00 5.071343e+00 5.071102e+00 5.072113e+00 5.071119e+00 5.071440e+00 5.069659e+00 5.069288e+00 5.066652e+00 5.065538e+00 5.061956e+00 5.060020e+00 5.055396e+00 5.052547e+00 5.046800e+00 5.042961e+00 5.036037e+00 5.031162e+00 5.023047e+00 5.017129e+00 5.007852e+00 5.000925e+00 4.990559e+00 4.982699e+00 4.971352e+00 4.962668e+00 4.950476e+00 4.941104e+00 4.928227e+00 4.918323e+00 4.904935e+00 4.894665e+00 4.880946e+00 4.870484e+00 4.856614e+00 4.846129e+00 4.832283e+00 4.821938e+00 4.808277e+00 4.798221e+00 4.784892e+00 4.775257e+00 4.762385e+00 4.753281e+00 4.740971e+00 4.732487e+00 4.720819e+00 4.713024e+00 4.702056e+00 4.694993e+00 4.684764e+00 4.678459e+00 4.668984e+00 4.663444e+00 4.654723e+00 4.649937e+00 4.641953e+00 4.637897e+00 4.630622e+00 4.627258e+00 4.620651e+00 4.617936e+00 4.611949e+00 4.609831e+00 4.604410e+00 4.602834e+00 4.597924e+00 4.596834e+00 4.592379e+00 4.591718e+00 4.587665e+00 4.587381e+00 4.583677e+00 4.583720e+00 4.580318e+00 4.580642e+00 4.577500e+00 4.578064e+00 4.575142e+00 4.575910e+00 4.573176e+00 4.574116e+00 4.571540e+00 4.572625e+00 4.570181e+00 4.571388e+00 4.569054e+00 4.570362e+00 4.568121e+00 4.569514e+00 4.567350e+00 4.568813e+00 4.566712e+00 4.568234e+00 4.566186e+00 4.567756e+00 4.565752e+00 4.567362e+00 4.565394e+00 4.567037e+00 4.565099e+00 4.566770e+00 4.564856e+00 4.566549e+00 4.564656e+00 4.566368e+00 4.564492e+00 4.566218e+00 4.564356e+00 4.566095e+00 4.564244e+00 4.565994e+00 4.564153e+00 4.565911e+00 4.564077e+00 4.565842e+00 4.564015e+00 4.565786e+00 4.563964e+00 4.565740e+00 4.563922e+00 4.565702e+00 4.563887e+00 4.565670e+00 4.563859e+00 4.565644e+00 4.563835e+00 4.565623e+00 4.563816e+00 4.565606e+00 4.563800e+00 4.565591e+00 4.563787e+00 4.565580e+00 4.563777e+00 4.565570e+00 4.563768e+00 4.565562e+00 4.563761e+00 4.565555e+00 4.563755e+00 4.565550e+00 4.563750e+00 4.565546e+00 4.563746e+00 4.565542e+00 4.563742e+00 4.565539e+00 4.563740e+00 4.565536e+00 4.563737e+00 4.565534e+00 4.563736e+00 4.565533e+00 4.563734e+00 4.565531e+00 4.563733e+00 4.565530e+00 4.563732e+00 4.565529e+00 4.563731e+00 4.565529e+00 4.563730e+00 4.565528e+00 4.563730e+00 4.565527e+00 4.563729e+00 4.565527e+00 4.563729e+00 4.565527e+00 4.563729e+00 4.565526e+00 4.563728e+00 4.565526e+00 4.563728e+00 4.565526e+00 4.563728e+00 4.565526e+00 4.563728e+00 4.565526e+00 4.563728e+00 4.565526e+00 4.563728e+00 4.565525e+00 4.563727e+00 4.565525e+00 4.563727e+00 4.565525e+00 4.563727e+00 4.565525e+00 4.563727e+00 4.565525e+00 4.563727e+00 4.565525e+00 4.563727e+00 4.565525e+00 4.563727e+00 4.565525e+00 4.563727e+00 4.565525e+00 4.563727e+00 4.565525e+00 4.563727e+00 4.565525e+00 4.563727e+00 4.565525e+00 4.563727e+00 4.565525e+00 4.563727e+00 4.565525e+00 4.563727e+00 4.565525e+00 4.563727e+00 4.565524e+00 4.563726e+00 4.565524e+00 4.563726e+00 4.565524e+00 4.563726e+00 4.565524e+00 4.563726e+00 4.565524e+00 4.563726e+00 4.565523e+00 4.563725e+00 4.565523e+00 4.563725e+00 4.565522e+00 4.563725e+00 4.565522e+00 4.563724e+00 4.565521e+00 4.563723e+00 4.565520e+00 4.563722e+00 4.565519e+00 4.563721e+00 4.565518e+00 4.563720e+00 4.565516e+00 4.563719e+00 4.565514e+00 4.563717e+00 4.565512e+00 4.563714e+00 4.565509e+00 4.563712e+00 4.565506e+00 4.563708e+00 4.565502e+00 4.563704e+00 4.565497e+00 4.563699e+00 4.565491e+00 4.563693e+00 4.565483e+00 4.563686e+00 4.565474e+00 4.563677e+00 4.565464e+00 4.563667e+00 4.565450e+00 4.563653e+00 4.565434e+00 4.563637e+00 4.565414e+00 4.563618e+00 4.565390e+00 4.563594e+00 4.565361e+00 4.563565e+00 4.565325e+00 4.563530e+00 4.565282e+00 4.563487e+00 4.565229e+00 4.563435e+00 4.565164e+00 4.563371e+00 4.565085e+00 4.563292e+00 4.564988e+00 4.563197e+00 4.564870e+00 4.563079e+00 4.564724e+00 4.562934e+00 4.564546e+00 4.562756e+00 4.564326e+00 4.562536e+00 4.564054e+00 4.562263e+00 4.563718e+00 4.561924e+00 4.563298e+00 4.561499e+00 4.562773e+00 4.560963e+00 4.562112e+00 4.560281e+00 4.561270e+00 4.559405e+00 4.560189e+00 4.558262e+00 4.558779e+00 4.556743e+00 4.556906e+00 4.554673e+00 4.554353e+00 4.551751e+00 4.550750e+00 4.547409e+00 4.545393e+00 4.540427e+00 4.536772e+00 4.527728e+00 4.521058e+00 4.499961e+00 4.486627e+00 4.423437e+00 4.392152e+00 4.160345e+00 
4.569230e+00 4.562377e+00 4.569239e+00 4.562471e+00 4.537022e+00 4.523872e+00 4.518839e+00 4.515475e+00 4.520934e+00 4.521024e+00 4.529634e+00 4.530326e+00 4.540286e+00 4.541525e+00 4.552813e+00 4.554863e+00 4.567543e+00 4.570521e+00 4.584637e+00 4.588624e+00 4.604242e+00 4.609322e+00 4.626516e+00 4.632757e+00 4.651559e+00 4.658982e+00 4.679354e+00 4.687920e+00 4.709738e+00 4.719333e+00 4.742373e+00 4.752811e+00 4.776743e+00 4.787760e+00 4.812165e+00 4.823440e+00 4.847833e+00 4.859018e+00 4.882891e+00 4.893645e+00 4.916506e+00 4.926524e+00 4.947937e+00 4.956974e+00 4.976586e+00 4.984467e+00 5.002033e+00 5.008650e+00 5.024036e+00 5.029335e+00 5.042518e+00 5.046484e+00 5.057534e+00 5.060177e+00 5.069241e+00 5.070593e+00 5.077868e+00 5.077983e+00 5.083701e+00 5.082654e+00 5.087054e+00 5.084938e+00 5.088247e+00 5.085158e+00 5.087568e+00 5.083585e+00 5.085237e+00 5.080413e+00 5.081385e+00 5.075735e+00 5.076046e+00 5.069545e+00 5.069163e+00 5.061759e+00 5.060620e+00 5.052250e+00 5.050279e+00 5.040882e+00 5.038015e+00 5.027554e+00 5.023753e+00 5.012225e+00 5.007490e+00 4.994934e+00 4.989307e+00 4.975801e+00 4.969367e+00 4.955026e+00 4.947902e+00 4.932873e+00 4.925205e+00 4.909654e+00 4.901606e+00 4.885711e+00 4.877456e+00 4.861400e+00 4.853110e+00 4.837070e+00 4.828913e+00 4.813054e+00 4.805182e+00 4.789653e+00 4.782199e+00 4.767129e+00 4.760207e+00 4.745701e+00 4.739400e+00 4.725539e+00 4.719929e+00 4.706771e+00 4.701896e+00 4.689479e+00 4.685364e+00 4.673704e+00 4.670355e+00 4.659452e+00 4.656859e+00 4.646695e+00 4.644832e+00 4.635378e+00 4.634209e+00 4.625423e+00 4.624904e+00 4.616738e+00 4.616815e+00 4.609217e+00 4.609836e+00 4.602748e+00 4.603852e+00 4.597219e+00 4.598752e+00 4.592520e+00 4.594429e+00 4.588545e+00 4.590780e+00 4.585199e+00 4.587714e+00 4.582391e+00 4.585146e+00 4.580043e+00 4.583002e+00 4.578085e+00 4.581215e+00 4.576456e+00 4.579731e+00 4.575103e+00 4.578499e+00 4.573981e+00 4.577478e+00 4.573053e+00 4.576634e+00 4.572285e+00 4.575936e+00 4.571650e+00 4.575360e+00 4.571127e+00 4.574884e+00 4.570695e+00 4.574492e+00 4.570338e+00 4.574169e+00 4.570045e+00 4.573902e+00 4.569803e+00 4.573683e+00 4.569604e+00 4.573502e+00 4.569440e+00 4.573353e+00 4.569305e+00 4.573231e+00 4.569194e+00 4.573130e+00 4.569103e+00 4.573048e+00 4.569028e+00 4.572979e+00 4.568966e+00 4.572923e+00 4.568915e+00 4.572877e+00 4.568873e+00 4.572839e+00 4.568839e+00 4.572808e+00 4.568810e+00 4.572782e+00 4.568787e+00 4.572761e+00 4.568768e+00 4.572744e+00 4.568752e+00 4.572730e+00 4.568739e+00 4.572718e+00 4.568729e+00 4.572708e+00 4.568720e+00 4.572700e+00 4.568713e+00 4.572694e+00 4.568707e+00 4.572688e+00 4.568702e+00 4.572684e+00 4.568698e+00 4.572680e+00 4.568695e+00 4.572677e+00 4.568692e+00 4.572675e+00 4.568690e+00 4.572673e+00 4.568688e+00 4.572671e+00 4.568686e+00 4.572670e+00 4.568685e+00 4.572669e+00 4.568684e+00 4.572668e+00 4.568683e+00 4.572667e+00 4.568683e+00 4.572666e+00 4.568682e+00 4.572666e+00 4.568682e+00 4.572666e+00 4.568681e+00 4.572665e+00 4.568681e+00 4.572665e+00 4.568681e+00 4.572665e+00 4.568680e+00 4.572664e+00 4.568680e+00 4.572664e+00 4.568680e+00 4.572664e+00 4.568680e+00 4.572664e+00 4.568680e+00 4.572664e+00 4.568680e+00 4.572664e+00 4.568680e+00 4.572664e+00 4.568680e+00 4.572664e+00 4.568680e+00 4.572664e+00 4.568680e+00 4.572664e+00 4.568679e+00 4.572664e+00 4.568679e+00 4.572664e+00 4.568679e+00 4.572664e+00 4.568679e+00 4.572664e+00 4.568679e+00 4.572664e+00 4.568679e+00 4.572664e+00 4.568679e+00 4.572664e+00 4.568679e+00 4.572664e+00 4.568679e+00 4.572664e+00 4.568679e+00 4.572664e+00 4.568679e+00 4.572664e+00 4.568679e+00 4.572664e+00 4.568679e+00 4.572664e+00 4.568679e+00 4.572664e+00 4.568679e+00 4.572664e+00 4.568679e+00 4.572663e+00 4.568679e+00 4.572663e+00 4.568679e+00 4.572663e+00 4.568679e+00 4.572663e+00 4.568679e+00 4.572663e+00 4.568679e+00 4.572663e+00 4.568679e+00 4.572663e+00 4.568679e+00 4.572663e+00 4.568679e+00 4.572663e+00 4.568679e+00 4.572663e+00 4.568678e+00 4.572663e+00 4.568678e+00 4.572663e+00 4.568678e+00 4.572663e+00 4.568678e+00 4.572663e+00 4.568677e+00 4.572662e+00 4.568677e+00 4.572662e+00 4.568677e+00 4.572662e+00 4.568676e+00 4.572661e+00 4.568675e+00 4.572661e+00 4.568674e+00 4.572660e+00 4.568673e+00 4.572660e+00 4.568672e+00 4.572659e+00 4.568671e+00 4.572658e+00 4.568669e+00 4.572657e+00 4.568666e+00 4.572656e+00 4.568664e+00 4.572654e+00 4.568660e+00 4.572652e+00 4.568656e+00 4.572649e+00 4.568651e+00 4.572646e+00 4.568645e+00 4.572643e+00 4.568638e+00 4.572638e+00 4.568629e+00 4.572633e+00 4.568618e+00 4.572626e+00 4.568604e+00 4.572618e+00 4.568588e+00 4.572608e+00 4.568567e+00 4.572596e+00 4.568542e+00 4.572582e+00 4.568510e+00 4.572563e+00 4.568470e+00 4.572540e+00 4.568420e+00 4.572512e+00 4.568355e+00 4.572475e+00 4.568272e+00 4.572429e+00 4.568161e+00 4.572369e+00 4.568012e+00 4.572290e+00 4.567803e+00 4.572183e+00 4.567495e+00 4.572036e+00 4.567010e+00 4.571838e+00 4.566183e+00 4.571680e+00 4.564704e+00 4.573174e+00 4.563738e+00 
4.583962e+00 4.579157e+00 4.584024e+00 4.577259e+00 4.536144e+00 4.525779e+00 4.508636e+00 4.510192e+00 4.506936e+00 4.512739e+00 4.515029e+00 4.521402e+00 4.526335e+00 4.532714e+00 4.539584e+00 4.546122e+00 4.554709e+00 4.561608e+00 4.571850e+00 4.579312e+00 4.591242e+00 4.599470e+00 4.613166e+00 4.622332e+00 4.637856e+00 4.648076e+00 4.665434e+00 4.676743e+00 4.695856e+00 4.708198e+00 4.728877e+00 4.742094e+00 4.764030e+00 4.777875e+00 4.800647e+00 4.814799e+00 4.837908e+00 4.852010e+00 4.874909e+00 4.888607e+00 4.910746e+00 4.923724e+00 4.944585e+00 4.956583e+00 4.975719e+00 4.986545e+00 5.003603e+00 5.013130e+00 5.027866e+00 5.036012e+00 5.048298e+00 5.055009e+00 5.064826e+00 5.070066e+00 5.077498e+00 5.081251e+00 5.086468e+00 5.088750e+00 5.091993e+00 5.092869e+00 5.094424e+00 5.094005e+00 5.094178e+00 5.092604e+00 5.091687e+00 5.089109e+00 5.087347e+00 5.083896e+00 5.081470e+00 5.077234e+00 5.074246e+00 5.069262e+00 5.065738e+00 5.059992e+00 5.055898e+00 5.049337e+00 5.044599e+00 5.037155e+00 5.031688e+00 5.023297e+00 5.017030e+00 5.007655e+00 5.000550e+00 4.990195e+00 4.982260e+00 4.970976e+00 4.962266e+00 4.950147e+00 4.940762e+00 4.927943e+00 4.918017e+00 4.904661e+00 4.894354e+00 4.880639e+00 4.870124e+00 4.856238e+00 4.845690e+00 4.831813e+00 4.821403e+00 4.807705e+00 4.797587e+00 4.784222e+00 4.774531e+00 4.761629e+00 4.752480e+00 4.740147e+00 4.731632e+00 4.719951e+00 4.712135e+00 4.701164e+00 4.694093e+00 4.683869e+00 4.677566e+00 4.668104e+00 4.662574e+00 4.653874e+00 4.649105e+00 4.641148e+00 4.637114e+00 4.629869e+00 4.626533e+00 4.619957e+00 4.617272e+00 4.611318e+00 4.609231e+00 4.603843e+00 4.602298e+00 4.597421e+00 4.596360e+00 4.591937e+00 4.591304e+00 4.587280e+00 4.587022e+00 4.583344e+00 4.583410e+00 4.580033e+00 4.580378e+00 4.577256e+00 4.577839e+00 4.574936e+00 4.575720e+00 4.573002e+00 4.573957e+00 4.571393e+00 4.572491e+00 4.570058e+00 4.571276e+00 4.568952e+00 4.570269e+00 4.568036e+00 4.569437e+00 4.567279e+00 4.568749e+00 4.566654e+00 4.568181e+00 4.566138e+00 4.567712e+00 4.565712e+00 4.567326e+00 4.565361e+00 4.567007e+00 4.565072e+00 4.566745e+00 4.564834e+00 4.566529e+00 4.564638e+00 4.566351e+00 4.564476e+00 4.566204e+00 4.564343e+00 4.566084e+00 4.564234e+00 4.565985e+00 4.564144e+00 4.565903e+00 4.564070e+00 4.565836e+00 4.564009e+00 4.565781e+00 4.563959e+00 4.565735e+00 4.563918e+00 4.565698e+00 4.563884e+00 4.565667e+00 4.563856e+00 4.565642e+00 4.563833e+00 4.565621e+00 4.563814e+00 4.565604e+00 4.563799e+00 4.565590e+00 4.563786e+00 4.565579e+00 4.563776e+00 4.565569e+00 4.563767e+00 4.565561e+00 4.563760e+00 4.565555e+00 4.563754e+00 4.565549e+00 4.563749e+00 4.565545e+00 4.563745e+00 4.565542e+00 4.563742e+00 4.565539e+00 4.563739e+00 4.565536e+00 4.563737e+00 4.565534e+00 4.563735e+00 4.565533e+00 4.563734e+00 4.565531e+00 4.563733e+00 4.565530e+00 4.563732e+00 4.565529e+00 4.563731e+00 4.565529e+00 4.563730e+00 4.565528e+00 4.563730e+00 4.565527e+00 4.563729e+00 4.565527e+00 4.563729e+00 4.565527e+00 4.563729e+00 4.565526e+00 4.563728e+00 4.565526e+00 4.563728e+00 4.565526e+00 4.563728e+00 4.565526e+00 4.563728e+00 4.565526e+00 4.563728e+00 4.565526e+00 4.563728e+00 4.565525e+00 4.563727e+00 4.565525e+00 4.563727e+00 4.565525e+00 4.563727e+00 4.565525e+00 4.563727e+00 4.565525e+00 4.563727e+00 4.565525e+00 4.563727e+00 4.565525e+00 4.563727e+00 4.565525e+00 4.563727e+00 4.565525e+00 4.563727e+00 4.565525e+00 4.563727e+00 4.565525e+00 4.563727e+00 4.565525e+00 4.563727e+00 4.565525e+00 4.563727e+00 4.565525e+00 4.563727e+00 4.565525e+00 4.563727e+00 4.565524e+00 4.563727e+00 4.565524e+00 4.563726e+00 4.565524e+00 4.563726e+00 4.565524e+00 4.563726e+00 4.565524e+00 4.563726e+00 4.565523e+00 4.563725e+00 4.565523e+00 4.563725e+00 4.565522e+00 4.563725e+00 4.565522e+00 4.563724e+00 4.565521e+00 4.563723e+00 4.565520e+00 4.563722e+00 4.565519e+00 4.563721e+00 4.565518e+00 4.563720e+00 4.565517e+00 4.563719e+00 4.565515e+00 4.563717e+00 4.565512e+00 4.563715e+00 4.565510e+00 4.563712e+00 4.565506e+00 4.563709e+00 4.565502e+00 4.563705e+00 4.565497e+00 4.563700e+00 4.565492e+00 4.563694e+00 4.565484e+00 4.563687e+00 4.565475e+00 4.563678e+00 4.565465e+00 4.563668e+00 4.565452e+00 4.563655e+00 4.565436e+00 4.563639e+00 4.565416e+00 4.563620e+00 4.565393e+00 4.563597e+00 4.565364e+00 4.563569e+00 4.565329e+00 4.563534e+00 4.565287e+00 4.563492e+00 4.565235e+00 4.563441e+00 4.565171e+00 4.563378e+00 4.565094e+00 4.563302e+00 4.564999e+00 4.563208e+00 4.564883e+00 4.563093e+00 4.564741e+00 4.562952e+00 4.564567e+00 4.562778e+00 4.564352e+00 4.562564e+00 4.564087e+00 4.562299e+00 4.563759e+00 4.561969e+00 4.563351e+00 4.561557e+00 4.562842e+00 4.561039e+00 4.562202e+00 4.560382e+00 4.561391e+00 4.559543e+00 4.560354e+00 4.558456e+00 4.559011e+00 4.557026e+00 4.557247e+00 4.555109e+00 4.554881e+00 4.552475e+00 4.551631e+00 4.548747e+00 4.547037e+00 4.543319e+00 4.540357e+00 4.535341e+00 4.530571e+00 4.524631e+00 4.517554e+00 4.518593e+00 4.510538e+00 4.573558e+00 
4.571707e+00 4.567361e+00 4.571698e+00 4.568931e+00 4.585030e+00 4.581359e+00 4.583707e+00 4.575353e+00 4.575487e+00 4.567993e+00 4.570249e+00 4.565055e+00 4.570089e+00 4.567160e+00 4.574699e+00 4.573657e+00 4.583312e+00 4.583841e+00 4.595386e+00 4.597342e+00 4.610728e+00 4.614093e+00 4.629368e+00 4.634183e+00 4.651418e+00 4.657720e+00 4.676948e+00 4.684726e+00 4.705898e+00 4.715062e+00 4.738013e+00 4.748377e+00 4.772810e+00 4.784093e+00 4.809590e+00 4.821446e+00 4.847491e+00 4.859542e+00 4.885562e+00 4.897435e+00 4.922837e+00 4.934193e+00 4.958404e+00 4.968958e+00 4.991462e+00 5.000980e+00 5.021350e+00 5.029646e+00 5.047565e+00 5.054476e+00 5.069749e+00 5.075124e+00 5.087674e+00 5.091377e+00 5.101243e+00 5.103168e+00 5.110497e+00 5.110608e+00 5.115641e+00 5.113991e+00 5.117052e+00 5.113788e+00 5.115241e+00 5.110580e+00 5.110801e+00 5.104990e+00 5.104318e+00 5.097592e+00 5.096296e+00 5.088837e+00 5.087093e+00 5.079011e+00 5.076894e+00 5.068217e+00 5.065712e+00 5.056401e+00 5.053429e+00 5.043400e+00 5.039850e+00 5.029010e+00 5.024773e+00 5.013047e+00 5.008044e+00 4.995398e+00 4.989604e+00 4.976058e+00 4.969501e+00 4.955130e+00 4.947894e+00 4.932819e+00 4.925032e+00 4.909413e+00 4.901235e+00 4.885251e+00 4.876858e+00 4.860701e+00 4.852273e+00 4.836129e+00 4.827842e+00 4.811886e+00 4.803898e+00 4.788285e+00 4.780736e+00 4.765599e+00 4.758604e+00 4.744051e+00 4.737701e+00 4.723813e+00 4.718175e+00 4.705010e+00 4.700128e+00 4.687721e+00 4.683617e+00 4.671983e+00 4.668661e+00 4.657796e+00 4.655241e+00 4.645126e+00 4.643312e+00 4.633913e+00 4.632801e+00 4.624075e+00 4.623616e+00 4.615513e+00 4.615652e+00 4.608116e+00 4.608797e+00 4.601771e+00 4.602934e+00 4.596360e+00 4.597949e+00 4.591771e+00 4.593732e+00 4.587899e+00 4.590181e+00 4.584644e+00 4.587202e+00 4.581918e+00 4.584711e+00 4.579643e+00 4.582633e+00 4.577747e+00 4.580905e+00 4.576172e+00 4.579471e+00 4.574865e+00 4.578282e+00 4.573783e+00 4.577297e+00 4.572888e+00 4.576483e+00 4.572148e+00 4.575811e+00 4.571537e+00 4.575256e+00 4.571032e+00 4.574798e+00 4.570617e+00 4.574421e+00 4.570274e+00 4.574110e+00 4.569992e+00 4.573854e+00 4.569759e+00 4.573643e+00 4.569568e+00 4.573469e+00 4.569410e+00 4.573326e+00 4.569281e+00 4.573209e+00 4.569174e+00 4.573112e+00 4.569086e+00 4.573032e+00 4.569014e+00 4.572967e+00 4.568955e+00 4.572913e+00 4.568906e+00 4.572869e+00 4.568865e+00 4.572832e+00 4.568832e+00 4.572802e+00 4.568805e+00 4.572778e+00 4.568783e+00 4.572757e+00 4.568764e+00 4.572741e+00 4.568749e+00 4.572727e+00 4.568737e+00 4.572716e+00 4.568727e+00 4.572706e+00 4.568718e+00 4.572699e+00 4.568711e+00 4.572693e+00 4.568706e+00 4.572687e+00 4.568701e+00 4.572683e+00 4.568697e+00 4.572680e+00 4.568694e+00 4.572677e+00 4.568691e+00 4.572674e+00 4.568689e+00 4.572673e+00 4.568687e+00 4.572671e+00 4.568686e+00 4.572670e+00 4.568685e+00 4.572669e+00 4.568684e+00 4.572668e+00 4.568683e+00 4.572667e+00 4.568682e+00 4.572666e+00 4.568682e+00 4.572666e+00 4.568681e+00 4.572665e+00 4.568681e+00 4.572665e+00 4.568681e+00 4.572665e+00 4.568681e+00 4.572665e+00 4.568680e+00 4.572664e+00 4.568680e+00 4.572664e+00 4.568680e+00 4.572664e+00 4.568680e+00 4.572664e+00 4.568680e+00 4.572664e+00 4.568680e+00 4.572664e+00 4.568680e+00 4.572664e+00 4.568680e+00 4.572664e+00 4.568680e+00 4.572664e+00 4.568680e+00 4.572664e+00 4.568679e+00 4.572664e+00 4.568679e+00 4.572664e+00 4.568679e+00 4.572664e+00 4.568679e+00 4.572664e+00 4.568679e+00 4.572664e+00 4.568679e+00 4.572664e+00 4.568679e+00 4.572664e+00 4.568679e+00 4.572664e+00 4.568679e+00 4.572664e+00 4.568679e+00 4.572664e+00 4.568679e+00 4.572664e+00 4.568679e+00 4.572664e+00 4.568679e+00 4.572664e+00 4.568679e+00 4.572664e+00 4.568679e+00 4.572664e+00 4.568679e+00 4.572663e+00 4.568679e+00 4.572663e+00 4.568679e+00 4.572663e+00 4.568679e+00 4.572663e+00 4.568679e+00 4.572663e+00 4.568679e+00 4.572663e+00 4.568679e+00 4.572663e+00 4.568679e+00 4.572663e+00 4.568679e+00 4.572663e+00 4.568679e+00 4.572663e+00 4.568679e+00 4.572663e+00 4.568678e+00 4.572663e+00 4.568678e+00 4.572663e+00 4.568678e+00 4.572663e+00 4.568678e+00 4.572662e+00 4.568677e+00 4.572662e+00 4.568677e+00 4.572662e+00 4.568676e+00 4.572662e+00 4.568676e+00 4.572661e+00 4.568675e+00 4.572661e+00 4.568674e+00 4.572660e+00 4.568673e+00 4.572659e+00 4.568671e+00 4.572658e+00 4.568669e+00 4.572657e+00 4.568667e+00 4.572656e+00 4.568665e+00 4.572654e+00 4.568661e+00 4.572652e+00 4.568658e+00 4.572650e+00 4.568653e+00 4.572647e+00 4.568647e+00 4.572643e+00 4.568640e+00 4.572639e+00 4.568632e+00 4.572634e+00 4.568622e+00 4.572628e+00 4.568609e+00 4.572620e+00 4.568593e+00 4.572611e+00 4.568574e+00 4.572599e+00 4.568551e+00 4.572585e+00 4.568521e+00 4.572568e+00 4.568485e+00 4.572547e+00 4.568439e+00 4.572520e+00 4.568381e+00 4.572487e+00 4.568308e+00 4.572446e+00 4.568213e+00 4.572394e+00 4.568090e+00 4.572328e+00 4.567929e+00 4.572248e+00 4.567723e+00 4.572154e+00 4.567476e+00 4.572070e+00 4.567272e+00 4.572069e+00 4.567505e+00 4.572173e+00 4.569772e+00 
4.583332e+00 4.578491e+00 4.583343e+00 4.578458e+00 4.570787e+00 4.569379e+00 4.562941e+00 4.562488e+00 4.558283e+00 4.558496e+00 4.556978e+00 4.558179e+00 4.559403e+00 4.561731e+00 4.565422e+00 4.568766e+00 4.574576e+00 4.578841e+00 4.586596e+00 4.591823e+00 4.601526e+00 4.607854e+00 4.619610e+00 4.627203e+00 4.641143e+00 4.650138e+00 4.666358e+00 4.676827e+00 4.695336e+00 4.707244e+00 4.727921e+00 4.741111e+00 4.763682e+00 4.777881e+00 4.801923e+00 4.816771e+00 4.841743e+00 4.856834e+00 4.882110e+00 4.897042e+00 4.921954e+00 4.936356e+00 4.960237e+00 4.973799e+00 4.996023e+00 5.008499e+00 5.028519e+00 5.039710e+00 5.057090e+00 5.066821e+00 5.081249e+00 5.089339e+00 5.100644e+00 5.106903e+00 5.115053e+00 5.119317e+00 5.124429e+00 5.126609e+00 5.128943e+00 5.129072e+00 5.129011e+00 5.127255e+00 5.125266e+00 5.121902e+00 5.118482e+00 5.113844e+00 5.109462e+00 5.103882e+00 5.098925e+00 5.092678e+00 5.087416e+00 5.080679e+00 5.075248e+00 5.068089e+00 5.062499e+00 5.054886e+00 5.049046e+00 5.040877e+00 5.034645e+00 5.025789e+00 5.019010e+00 5.009351e+00 5.001901e+00 4.991366e+00 4.983180e+00 4.971759e+00 4.962837e+00 4.950586e+00 4.940996e+00 4.928029e+00 4.917890e+00 4.904366e+00 4.893838e+00 4.879941e+00 4.869204e+00 4.855133e+00 4.844373e+00 4.830320e+00 4.819718e+00 4.805864e+00 4.795581e+00 4.782086e+00 4.772264e+00 4.759263e+00 4.750018e+00 4.737617e+00 4.729039e+00 4.717321e+00 4.709475e+00 4.698497e+00 4.691424e+00 4.681218e+00 4.674939e+00 4.665518e+00 4.660033e+00 4.651392e+00 4.646686e+00 4.638802e+00 4.634845e+00 4.627684e+00 4.624433e+00 4.617949e+00 4.615355e+00 4.609495e+00 4.607502e+00 4.602209e+00 4.600756e+00 4.595971e+00 4.594999e+00 4.590663e+00 4.590114e+00 4.586171e+00 4.585990e+00 4.582387e+00 4.582523e+00 4.579212e+00 4.579620e+00 4.576557e+00 4.577195e+00 4.574344e+00 4.575176e+00 4.572503e+00 4.573499e+00 4.570974e+00 4.572107e+00 4.569708e+00 4.570955e+00 4.568659e+00 4.570002e+00 4.567793e+00 4.569214e+00 4.567077e+00 4.568564e+00 4.566486e+00 4.568028e+00 4.565999e+00 4.567586e+00 4.565597e+00 4.567221e+00 4.565266e+00 4.566921e+00 4.564994e+00 4.566674e+00 4.564769e+00 4.566470e+00 4.564584e+00 4.566302e+00 4.564432e+00 4.566164e+00 4.564307e+00 4.566051e+00 4.564204e+00 4.565958e+00 4.564120e+00 4.565881e+00 4.564050e+00 4.565818e+00 4.563993e+00 4.565766e+00 4.563945e+00 4.565723e+00 4.563907e+00 4.565688e+00 4.563875e+00 4.565659e+00 4.563849e+00 4.565635e+00 4.563827e+00 4.565616e+00 4.563809e+00 4.565599e+00 4.563795e+00 4.565586e+00 4.563783e+00 4.565575e+00 4.563773e+00 4.565566e+00 4.563765e+00 4.565559e+00 4.563758e+00 4.565553e+00 4.563753e+00 4.565548e+00 4.563748e+00 4.565544e+00 4.563744e+00 4.565541e+00 4.563741e+00 4.565538e+00 4.563739e+00 4.565536e+00 4.563737e+00 4.565534e+00 4.563735e+00 4.565532e+00 4.563734e+00 4.565531e+00 4.563732e+00 4.565530e+00 4.563732e+00 4.565529e+00 4.563731e+00 4.565528e+00 4.563730e+00 4.565528e+00 4.563730e+00 4.565527e+00 4.563729e+00 4.565527e+00 4.563729e+00 4.565527e+00 4.563728e+00 4.565526e+00 4.563728e+00 4.565526e+00 4.563728e+00 4.565526e+00 4.563728e+00 4.565526e+00 4.563728e+00 4.565526e+00 4.563728e+00 4.565525e+00 4.563728e+00 4.565525e+00 4.563727e+00 4.565525e+00 4.563727e+00 4.565525e+00 4.563727e+00 4.565525e+00 4.563727e+00 4.565525e+00 4.563727e+00 4.565525e+00 4.563727e+00 4.565525e+00 4.563727e+00 4.565525e+00 4.563727e+00 4.565525e+00 4.563727e+00 4.565525e+00 4.563727e+00 4.565525e+00 4.563727e+00 4.565525e+00 4.563727e+00 4.565525e+00 4.563727e+00 4.565525e+00 4.563727e+00 4.565525e+00 4.563727e+00 4.565524e+00 4.563727e+00 4.565524e+00 4.563726e+00 4.565524e+00 4.563726e+00 4.565524e+00 4.563726e+00 4.565524e+00 4.563726e+00 4.565523e+00 4.563726e+00 4.565523e+00 4.563725e+00 4.565523e+00 4.563725e+00 4.565522e+00 4.563724e+00 4.565521e+00 4.563724e+00 4.565521e+00 4.563723e+00 4.565520e+00 4.563722e+00 4.565518e+00 4.563721e+00 4.565517e+00 4.563719e+00 4.565515e+00 4.563718e+00 4.565513e+00 4.563715e+00 4.565511e+00 4.563713e+00 4.565508e+00 4.563710e+00 4.565504e+00 4.563706e+00 4.565499e+00 4.563702e+00 4.565493e+00 4.563696e+00 4.565487e+00 4.563689e+00 4.565478e+00 4.563681e+00 4.565468e+00 4.563671e+00 4.565456e+00 4.563659e+00 4.565441e+00 4.563645e+00 4.565423e+00 4.563627e+00 4.565401e+00 4.563605e+00 4.565374e+00 4.563578e+00 4.565341e+00 4.563546e+00 4.565301e+00 4.563507e+00 4.565252e+00 4.563459e+00 4.565193e+00 4.563400e+00 4.565120e+00 4.563328e+00 4.565031e+00 4.563241e+00 4.564923e+00 4.563134e+00 4.564790e+00 4.563002e+00 4.564628e+00 4.562841e+00 4.564428e+00 4.562643e+00 4.564183e+00 4.562399e+00 4.563880e+00 4.562096e+00 4.563506e+00 4.561721e+00 4.563041e+00 4.561253e+00 4.562463e+00 4.560668e+00 4.561738e+00 4.559930e+00 4.560825e+00 4.558994e+00 4.559667e+00 4.557799e+00 4.558191e+00 4.556266e+00 4.556296e+00 4.554295e+00 4.553863e+00 4.551795e+00 4.550779e+00 4.548776e+00 4.547061e+00 4.545700e+00 4.543280e+00 4.544536e+00 4.541844e+00 4.551314e+00 4.550021e+00 4.578129e+00 