# vtk DataFile Version 2.0
Comment goes here
ASCII

DATASET STRUCTURED_POINTS
FIELD FieldData 1
TIME 1 1 double
1.50000000
DIMENSIONS    384   64   1

ORIGIN    0.000   0.000   0.000
SPACING   0.078125 0.078125   1.000

POINT_DATA   24576
SCALARS uMag double
LOOKUP_TABLE default

3.974461e+00 4.076428e+00 3.974336e+00 4.081691e+00 4.162944e+00 4.251733e+00 4.296104e+00 4.342129e+00 4.363699e+00 4.389242e+00 4.401563e+00 4.418173e+00 4.427290e+00 4.440106e+00 4.448454e+00 4.459783e+00 4.468399e+00 4.479406e+00 4.488781e+00 4.500102e+00 4.510465e+00 4.522446e+00 4.533898e+00 4.546721e+00 4.559297e+00 4.573033e+00 4.586710e+00 4.601319e+00 4.616011e+00 4.631337e+00 4.646881e+00 4.662642e+00 4.678810e+00 4.694607e+00 4.711120e+00 4.726463e+00 4.743020e+00 4.757367e+00 4.773686e+00 4.786492e+00 4.802342e+00 4.813121e+00 4.828358e+00 4.836745e+00 4.851327e+00 4.857123e+00 4.871110e+00 4.874310e+00 4.887834e+00 4.888620e+00 4.901843e+00 4.900548e+00 4.913611e+00 4.910657e+00 4.923636e+00 4.919465e+00 4.932338e+00 4.927344e+00 4.939986e+00 4.934470e+00 4.946664e+00 4.940806e+00 4.952275e+00 4.946136e+00 4.956570e+00 4.950113e+00 4.959210e+00 4.952328e+00 4.959821e+00 4.952375e+00 4.958056e+00 4.949906e+00 4.953643e+00 4.944675e+00 4.946415e+00 4.936559e+00 4.936330e+00 4.925565e+00 4.923462e+00 4.911818e+00 4.907993e+00 4.895545e+00 4.890194e+00 4.877052e+00 4.870400e+00 4.856703e+00 4.848990e+00 4.834897e+00 4.826373e+00 4.812053e+00 4.802962e+00 4.788588e+00 4.779168e+00 4.764906e+00 4.755377e+00 4.741385e+00 4.731944e+00 4.718363e+00 4.709183e+00 4.696131e+00 4.687357e+00 4.674933e+00 4.666681e+00 4.654960e+00 4.647318e+00 4.636352e+00 4.629382e+00 4.619202e+00 4.612941e+00 4.603557e+00 4.598022e+00 4.589428e+00 4.584616e+00 4.576788e+00 4.572680e+00 4.565583e+00 4.562146e+00 4.555736e+00 4.552928e+00 4.547152e+00 4.544924e+00 4.539724e+00 4.538023e+00 4.533342e+00 4.532112e+00 4.527891e+00 4.527078e+00 4.523261e+00 4.522814e+00 4.519348e+00 4.519217e+00 4.516054e+00 4.516196e+00 4.513293e+00 4.513667e+00 4.510984e+00 4.511556e+00 4.509059e+00 4.509798e+00 4.507458e+00 4.508337e+00 4.506129e+00 4.507125e+00 4.505027e+00 4.506122e+00 4.504115e+00 4.505291e+00 4.503361e+00 4.504605e+00 4.502738e+00 4.504038e+00 4.502224e+00 4.503571e+00 4.501800e+00 4.503185e+00 4.501450e+00 4.502868e+00 4.501162e+00 4.502606e+00 4.500925e+00 4.502390e+00 4.500730e+00 4.502213e+00 4.500569e+00 4.502067e+00 4.500436e+00 4.501946e+00 4.500327e+00 4.501847e+00 4.500238e+00 4.501766e+00 4.500164e+00 4.501699e+00 4.500103e+00 4.501644e+00 4.500053e+00 4.501599e+00 4.500012e+00 4.501561e+00 4.499978e+00 4.501531e+00 4.499951e+00 4.501505e+00 4.499928e+00 4.501485e+00 4.499909e+00 4.501468e+00 4.499894e+00 4.501454e+00 4.499881e+00 4.501442e+00 4.499870e+00 4.501433e+00 4.499862e+00 4.501425e+00 4.499855e+00 4.501418e+00 4.499849e+00 4.501413e+00 4.499844e+00 4.501409e+00 4.499840e+00 4.501405e+00 4.499837e+00 4.501402e+00 4.499834e+00 4.501400e+00 4.499832e+00 4.501398e+00 4.499830e+00 4.501396e+00 4.499829e+00 4.501395e+00 4.499828e+00 4.501394e+00 4.499827e+00 4.501393e+00 4.499826e+00 4.501392e+00 4.499825e+00 4.501392e+00 4.499825e+00 4.501391e+00 4.499824e+00 4.501391e+00 4.499824e+00 4.501390e+00 4.499824e+00 4.501390e+00 4.499823e+00 4.501390e+00 4.499823e+00 4.501390e+00 4.499823e+00 4.501390e+00 4.499823e+00 4.501389e+00 4.499823e+00 4.501389e+00 4.499823e+00 4.501389e+00 4.499822e+00 4.501389e+00 4.499822e+00 4.501389e+00 4.499822e+00 4.501389e+00 4.499822e+00 4.501389e+00 4.499822e+00 4.501389e+00 4.499822e+00 4.501389e+00 4.499822e+00 4.501389e+00 4.499822e+00 4.501389e+00 4.499822e+00 4.501389e+00 4.499822e+00 4.501389e+00 4.499822e+00 4.501389e+00 4.499822e+00 4.501389e+00 4.499822e+00 4.501389e+00 4.499822e+00 4.501388e+00 4.499822e+00 4.501388e+00 4.499822e+00 4.501388e+00 4.499822e+00 4.501388e+00 4.499821e+00 4.501388e+00 4.499821e+00 4.501388e+00 4.499821e+00 4.501388e+00 4.499821e+00 4.501387e+00 4.499821e+00 4.501387e+00 4.499820e+00 4.501387e+00 4.499820e+00 4.501386e+00 4.499819e+00 4.501385e+00 4.499819e+00 4.501385e+00 4.499818e+00 4.501384e+00 4.499817e+00 4.501383e+00 4.499816e+00 4.501381e+00 4.499815e+00 4.501380e+00 4.499813e+00 4.501378e+00 4.499812e+00 4.501376e+00 4.499809e+00 4.501373e+00 4.499806e+00 4.501369e+00 4.499803e+00 4.501365e+00 4.499799e+00 4.501360e+00 4.499794e+00 4.501353e+00 4.499788e+00 4.501346e+00 4.499780e+00 4.501337e+00 4.499771e+00 4.501325e+00 4.499760e+00 4.501312e+00 4.499747e+00 4.501295e+00 4.499731e+00 4.501274e+00 4.499711e+00 4.501250e+00 4.499687e+00 4.501219e+00 4.499658e+00 4.501183e+00 4.499622e+00 4.501138e+00 4.499578e+00 4.501083e+00 4.499525e+00 4.501016e+00 4.499460e+00 4.500934e+00 4.499380e+00 4.500834e+00 4.499282e+00 4.500712e+00 4.499163e+00 4.500562e+00 4.499016e+00 4.500378e+00 4.498835e+00 4.500151e+00 4.498611e+00 4.499870e+00 4.498334e+00 4.499523e+00 4.497989e+00 4.499090e+00 4.497557e+00 4.498549e+00 4.497012e+00 4.497866e+00 4.496319e+00 4.496998e+00 4.495428e+00 4.495882e+00 4.494267e+00 4.494427e+00 4.492723e+00 4.492493e+00 4.490619e+00 4.489859e+00 4.487649e+00 4.486138e+00 4.483234e+00 4.480606e+00 4.476137e+00 4.471697e+00 4.463227e+00 4.455437e+00 4.435002e+00 4.419751e+00 4.357236e+00 4.321624e+00 4.089849e+00 
4.505000e+00 4.498242e+00 4.504756e+00 4.491707e+00 4.469344e+00 4.454143e+00 4.446843e+00 4.441771e+00 4.444432e+00 4.444121e+00 4.450549e+00 4.452057e+00 4.460036e+00 4.462601e+00 4.471517e+00 4.475059e+00 4.484845e+00 4.489506e+00 4.500259e+00 4.506191e+00 4.518017e+00 4.525323e+00 4.538308e+00 4.547031e+00 4.561234e+00 4.571354e+00 4.586795e+00 4.598206e+00 4.614850e+00 4.627341e+00 4.645097e+00 4.658342e+00 4.677057e+00 4.690619e+00 4.710090e+00 4.723439e+00 4.743428e+00 4.755970e+00 4.776217e+00 4.787350e+00 4.807597e+00 4.816771e+00 4.836785e+00 4.843564e+00 4.863159e+00 4.867277e+00 4.886324e+00 4.887714e+00 4.906136e+00 4.904931e+00 4.922692e+00 4.919190e+00 4.936270e+00 4.930882e+00 4.947259e+00 4.940434e+00 4.956062e+00 4.948226e+00 4.963023e+00 4.954526e+00 4.968376e+00 4.959462e+00 4.972220e+00 4.963020e+00 4.974522e+00 4.965063e+00 4.975143e+00 4.965369e+00 4.973872e+00 4.963677e+00 4.970475e+00 4.959729e+00 4.964733e+00 4.953314e+00 4.956485e+00 4.944298e+00 4.945654e+00 4.932646e+00 4.932262e+00 4.918431e+00 4.916432e+00 4.901824e+00 4.898380e+00 4.883084e+00 4.878400e+00 4.862540e+00 4.856842e+00 4.840571e+00 4.834097e+00 4.817581e+00 4.810571e+00 4.793985e+00 4.786672e+00 4.770185e+00 4.762786e+00 4.746558e+00 4.739270e+00 4.723445e+00 4.716437e+00 4.701138e+00 4.694554e+00 4.679880e+00 4.673833e+00 4.659860e+00 4.654437e+00 4.641218e+00 4.636479e+00 4.624045e+00 4.620025e+00 4.608387e+00 4.605102e+00 4.594252e+00 4.591696e+00 4.581612e+00 4.579766e+00 4.570413e+00 4.569242e+00 4.560574e+00 4.560036e+00 4.552001e+00 4.552045e+00 4.544586e+00 4.545157e+00 4.538216e+00 4.539260e+00 4.532778e+00 4.534240e+00 4.528161e+00 4.529988e+00 4.524259e+00 4.526403e+00 4.520976e+00 4.523393e+00 4.518223e+00 4.520873e+00 4.515923e+00 4.518769e+00 4.514005e+00 4.517018e+00 4.512410e+00 4.515563e+00 4.511086e+00 4.514357e+00 4.509989e+00 4.513357e+00 4.509081e+00 4.512530e+00 4.508330e+00 4.511847e+00 4.507709e+00 4.511283e+00 4.507198e+00 4.510818e+00 4.506775e+00 4.510434e+00 4.506427e+00 4.510117e+00 4.506140e+00 4.509857e+00 4.505904e+00 4.509642e+00 4.505709e+00 4.509466e+00 4.505549e+00 4.509320e+00 4.505417e+00 4.509200e+00 4.505309e+00 4.509102e+00 4.505220e+00 4.509021e+00 4.505146e+00 4.508954e+00 4.505086e+00 4.508899e+00 4.505036e+00 4.508854e+00 4.504995e+00 4.508817e+00 4.504962e+00 4.508787e+00 4.504934e+00 4.508761e+00 4.504911e+00 4.508741e+00 4.504892e+00 4.508724e+00 4.504877e+00 4.508710e+00 4.504864e+00 4.508698e+00 4.504854e+00 4.508689e+00 4.504845e+00 4.508681e+00 4.504838e+00 4.508675e+00 4.504833e+00 4.508670e+00 4.504828e+00 4.508665e+00 4.504824e+00 4.508662e+00 4.504821e+00 4.508659e+00 4.504818e+00 4.508656e+00 4.504816e+00 4.508654e+00 4.504814e+00 4.508653e+00 4.504813e+00 4.508651e+00 4.504811e+00 4.508650e+00 4.504810e+00 4.508649e+00 4.504810e+00 4.508649e+00 4.504809e+00 4.508648e+00 4.504808e+00 4.508648e+00 4.504808e+00 4.508647e+00 4.504808e+00 4.508647e+00 4.504807e+00 4.508647e+00 4.504807e+00 4.508646e+00 4.504807e+00 4.508646e+00 4.504807e+00 4.508646e+00 4.504806e+00 4.508646e+00 4.504806e+00 4.508646e+00 4.504806e+00 4.508646e+00 4.504806e+00 4.508646e+00 4.504806e+00 4.508645e+00 4.504806e+00 4.508645e+00 4.504806e+00 4.508645e+00 4.504806e+00 4.508645e+00 4.504806e+00 4.508645e+00 4.504806e+00 4.508645e+00 4.504806e+00 4.508645e+00 4.504806e+00 4.508645e+00 4.504806e+00 4.508645e+00 4.504806e+00 4.508645e+00 4.504806e+00 4.508645e+00 4.504806e+00 4.508645e+00 4.504806e+00 4.508645e+00 4.504806e+00 4.508645e+00 4.504806e+00 4.508645e+00 4.504806e+00 4.508645e+00 4.504806e+00 4.508645e+00 4.504806e+00 4.508645e+00 4.504806e+00 4.508645e+00 4.504806e+00 4.508645e+00 4.504806e+00 4.508645e+00 4.504806e+00 4.508645e+00 4.504806e+00 4.508645e+00 4.504806e+00 4.508645e+00 4.504806e+00 4.508645e+00 4.504805e+00 4.508645e+00 4.504805e+00 4.508645e+00 4.504805e+00 4.508645e+00 4.504805e+00 4.508645e+00 4.504805e+00 4.508645e+00 4.504805e+00 4.508645e+00 4.504805e+00 4.508644e+00 4.504805e+00 4.508644e+00 4.504804e+00 4.508644e+00 4.504804e+00 4.508644e+00 4.504803e+00 4.508644e+00 4.504803e+00 4.508643e+00 4.504802e+00 4.508643e+00 4.504802e+00 4.508642e+00 4.504801e+00 4.508642e+00 4.504800e+00 4.508641e+00 4.504798e+00 4.508640e+00 4.504797e+00 4.508639e+00 4.504795e+00 4.508638e+00 4.504792e+00 4.508636e+00 4.504790e+00 4.508634e+00 4.504786e+00 4.508632e+00 4.504782e+00 4.508629e+00 4.504777e+00 4.508626e+00 4.504770e+00 4.508622e+00 4.504763e+00 4.508617e+00 4.504754e+00 4.508611e+00 4.504742e+00 4.508604e+00 4.504729e+00 4.508595e+00 4.504712e+00 4.508585e+00 4.504691e+00 4.508572e+00 4.504666e+00 4.508556e+00 4.504634e+00 4.508536e+00 4.504595e+00 4.508512e+00 4.504547e+00 4.508482e+00 4.504486e+00 4.508444e+00 4.504408e+00 4.508397e+00 4.504309e+00 4.508337e+00 4.504179e+00 4.508260e+00 4.504007e+00 4.508158e+00 4.503768e+00 4.508022e+00 4.503425e+00 4.507832e+00 4.502901e+00 4.507568e+00 4.502038e+00 4.507295e+00 4.500603e+00 4.508599e+00 4.500171e+00 
4.520084e+00 4.514971e+00 4.520135e+00 4.512720e+00 4.466562e+00 4.455956e+00 4.434929e+00 4.436270e+00 4.429524e+00 4.435714e+00 4.435166e+00 4.442706e+00 4.444982e+00 4.452849e+00 4.456727e+00 4.464873e+00 4.470011e+00 4.478708e+00 4.485079e+00 4.494634e+00 4.502301e+00 4.512963e+00 4.522006e+00 4.533945e+00 4.544432e+00 4.557724e+00 4.569688e+00 4.584294e+00 4.597726e+00 4.613482e+00 4.628322e+00 4.644932e+00 4.661075e+00 4.678113e+00 4.695409e+00 4.712334e+00 4.730588e+00 4.746774e+00 4.765750e+00 4.780535e+00 4.799965e+00 4.812727e+00 4.832323e+00 4.842549e+00 4.862020e+00 4.869372e+00 4.888437e+00 4.892790e+00 4.911193e+00 4.912642e+00 4.930162e+00 4.928992e+00 4.945446e+00 4.942076e+00 4.957326e+00 4.952240e+00 4.966184e+00 4.959864e+00 4.972435e+00 4.965299e+00 4.976450e+00 4.968823e+00 4.978521e+00 4.970611e+00 4.978822e+00 4.970728e+00 4.977412e+00 4.969133e+00 4.974243e+00 4.965704e+00 4.969188e+00 4.960269e+00 4.962082e+00 4.952646e+00 4.952764e+00 4.942690e+00 4.941125e+00 4.930326e+00 4.927133e+00 4.915570e+00 4.910852e+00 4.898542e+00 4.892447e+00 4.879459e+00 4.872174e+00 4.858618e+00 4.850359e+00 4.836381e+00 4.827378e+00 4.813145e+00 4.803636e+00 4.789323e+00 4.779538e+00 4.765319e+00 4.755476e+00 4.741514e+00 4.731807e+00 4.718249e+00 4.708848e+00 4.695818e+00 4.686864e+00 4.674464e+00 4.666068e+00 4.654374e+00 4.646621e+00 4.635686e+00 4.628634e+00 4.618488e+00 4.612169e+00 4.602823e+00 4.597250e+00 4.588697e+00 4.583863e+00 4.576078e+00 4.571961e+00 4.564908e+00 4.561472e+00 4.555106e+00 4.552307e+00 4.546574e+00 4.544359e+00 4.539202e+00 4.537517e+00 4.532875e+00 4.531663e+00 4.527479e+00 4.526685e+00 4.522902e+00 4.522472e+00 4.519037e+00 4.518923e+00 4.515787e+00 4.515945e+00 4.513065e+00 4.513453e+00 4.510791e+00 4.511375e+00 4.508896e+00 4.509646e+00 4.507321e+00 4.508210e+00 4.506014e+00 4.507019e+00 4.504931e+00 4.506033e+00 4.504035e+00 4.505217e+00 4.503295e+00 4.504544e+00 4.502683e+00 4.503988e+00 4.502179e+00 4.503529e+00 4.501762e+00 4.503151e+00 4.501419e+00 4.502839e+00 4.501137e+00 4.502582e+00 4.500904e+00 4.502371e+00 4.500712e+00 4.502197e+00 4.500554e+00 4.502053e+00 4.500424e+00 4.501935e+00 4.500318e+00 4.501838e+00 4.500230e+00 4.501759e+00 4.500157e+00 4.501693e+00 4.500098e+00 4.501639e+00 4.500049e+00 4.501595e+00 4.500009e+00 4.501558e+00 4.499975e+00 4.501528e+00 4.499948e+00 4.501503e+00 4.499926e+00 4.501483e+00 4.499907e+00 4.501466e+00 4.499892e+00 4.501452e+00 4.499880e+00 4.501441e+00 4.499870e+00 4.501432e+00 4.499861e+00 4.501424e+00 4.499854e+00 4.501418e+00 4.499848e+00 4.501413e+00 4.499844e+00 4.501408e+00 4.499840e+00 4.501405e+00 4.499837e+00 4.501402e+00 4.499834e+00 4.501400e+00 4.499832e+00 4.501398e+00 4.499830e+00 4.501396e+00 4.499829e+00 4.501395e+00 4.499828e+00 4.501394e+00 4.499827e+00 4.501393e+00 4.499826e+00 4.501392e+00 4.499825e+00 4.501392e+00 4.499825e+00 4.501391e+00 4.499824e+00 4.501391e+00 4.499824e+00 4.501390e+00 4.499824e+00 4.501390e+00 4.499823e+00 4.501390e+00 4.499823e+00 4.501390e+00 4.499823e+00 4.501390e+00 4.499823e+00 4.501389e+00 4.499823e+00 4.501389e+00 4.499823e+00 4.501389e+00 4.499822e+00 4.501389e+00 4.499822e+00 4.501389e+00 4.499822e+00 4.501389e+00 4.499822e+00 4.501389e+00 4.499822e+00 4.501389e+00 4.499822e+00 4.501389e+00 4.499822e+00 4.501389e+00 4.499822e+00 4.501389e+00 4.499822e+00 4.501389e+00 4.499822e+00 4.501389e+00 4.499822e+00 4.501389e+00 4.499822e+00 4.501389e+00 4.499822e+00 4.501389e+00 4.499822e+00 4.501388e+00 4.499822e+00 4.501388e+00 4.499822e+00 4.501388e+00 4.499822e+00 4.501388e+00 4.499821e+00 4.501388e+00 4.499821e+00 4.501388e+00 4.499821e+00 4.501388e+00 4.499821e+00 4.501387e+00 4.499821e+00 4.501387e+00 4.499820e+00 4.501387e+00 4.499820e+00 4.501386e+00 4.499819e+00 4.501385e+00 4.499819e+00 4.501385e+00 4.499818e+00 4.501384e+00 4.499817e+00 4.501383e+00 4.499816e+00 4.501382e+00 4.499815e+00 4.501380e+00 4.499813e+00 4.501378e+00 4.499812e+00 4.501376e+00 4.499809e+00 4.501373e+00 4.499806e+00 4.501369e+00 4.499803e+00 4.501365e+00 4.499799e+00 4.501360e+00 4.499794e+00 4.501354e+00 4.499788e+00 4.501346e+00 4.499780e+00 4.501337e+00 4.499771e+00 4.501326e+00 4.499760e+00 4.501312e+00 4.499747e+00 4.501296e+00 4.499731e+00 4.501276e+00 4.499711e+00 4.501251e+00 4.499687e+00 4.501221e+00 4.499657e+00 4.501185e+00 4.499622e+00 4.501140e+00 4.499578e+00 4.501086e+00 4.499525e+00 4.501020e+00 4.499460e+00 4.500940e+00 4.499380e+00 4.500841e+00 4.499283e+00 4.500720e+00 4.499164e+00 4.500572e+00 4.499017e+00 4.500391e+00 4.498837e+00 4.500167e+00 4.498615e+00 4.499892e+00 4.498339e+00 4.499550e+00 4.497998e+00 4.499126e+00 4.497571e+00 4.498597e+00 4.497035e+00 4.497931e+00 4.496356e+00 4.497089e+00 4.495489e+00 4.496012e+00 4.494367e+00 4.494618e+00 4.492893e+00 4.492786e+00 4.490919e+00 4.490332e+00 4.488210e+00 4.486963e+00 4.484385e+00 4.482202e+00 4.478822e+00 4.475284e+00 4.470658e+00 4.465159e+00 4.459708e+00 4.451729e+00 4.453490e+00 4.444703e+00 4.509253e+00 
4.507181e+00 4.502600e+00 4.507087e+00 4.504629e+00 4.517868e+00 4.512141e+00 4.510977e+00 4.501201e+00 4.498427e+00 4.490794e+00 4.490517e+00 4.485925e+00 4.488152e+00 4.486086e+00 4.490253e+00 4.490267e+00 4.496016e+00 4.497917e+00 4.505113e+00 4.508869e+00 4.517512e+00 4.523161e+00 4.533321e+00 4.540904e+00 4.552670e+00 4.562174e+00 4.575617e+00 4.586939e+00 4.602099e+00 4.615019e+00 4.631902e+00 4.646075e+00 4.664652e+00 4.679603e+00 4.699798e+00 4.714922e+00 4.736594e+00 4.751188e+00 4.774117e+00 4.787430e+00 4.811310e+00 4.822620e+00 4.847062e+00 4.855758e+00 4.880313e+00 4.885969e+00 4.910153e+00 4.912578e+00 4.935913e+00 4.935157e+00 4.957213e+00 4.953545e+00 4.973978e+00 4.967829e+00 4.986398e+00 4.978290e+00 4.994874e+00 4.985344e+00 4.999924e+00 4.989466e+00 5.002105e+00 4.991119e+00 5.001927e+00 4.990701e+00 4.999802e+00 4.988501e+00 4.995997e+00 4.984670e+00 4.990631e+00 4.979226e+00 4.983678e+00 4.972075e+00 4.975016e+00 4.963059e+00 4.964474e+00 4.952005e+00 4.951891e+00 4.938785e+00 4.937174e+00 4.923354e+00 4.920321e+00 4.905774e+00 4.901444e+00 4.886217e+00 4.880759e+00 4.864952e+00 4.858570e+00 4.842326e+00 4.835244e+00 4.818729e+00 4.811182e+00 4.794578e+00 4.786794e+00 4.770279e+00 4.762475e+00 4.746219e+00 4.738588e+00 4.722740e+00 4.715451e+00 4.700138e+00 4.693328e+00 4.678654e+00 4.672432e+00 4.658472e+00 4.652920e+00 4.639727e+00 4.634898e+00 4.622503e+00 4.618427e+00 4.606839e+00 4.603525e+00 4.592734e+00 4.590173e+00 4.580156e+00 4.578321e+00 4.569040e+00 4.567895e+00 4.559301e+00 4.558799e+00 4.550838e+00 4.550924e+00 4.543538e+00 4.544155e+00 4.537283e+00 4.538374e+00 4.531956e+00 4.533464e+00 4.527444e+00 4.529315e+00 4.523640e+00 4.525824e+00 4.520444e+00 4.522897e+00 4.517770e+00 4.520452e+00 4.515539e+00 4.518414e+00 4.513681e+00 4.516719e+00 4.512138e+00 4.515313e+00 4.510859e+00 4.514147e+00 4.509799e+00 4.513182e+00 4.508923e+00 4.512385e+00 4.508198e+00 4.511727e+00 4.507601e+00 4.511183e+00 4.507107e+00 4.510735e+00 4.506701e+00 4.510366e+00 4.506366e+00 4.510061e+00 4.506089e+00 4.509810e+00 4.505862e+00 4.509604e+00 4.505675e+00 4.509434e+00 4.505521e+00 4.509294e+00 4.505394e+00 4.509179e+00 4.505290e+00 4.509084e+00 4.505204e+00 4.509006e+00 4.505133e+00 4.508942e+00 4.505075e+00 4.508889e+00 4.505027e+00 4.508846e+00 4.504988e+00 4.508810e+00 4.504955e+00 4.508781e+00 4.504929e+00 4.508757e+00 4.504907e+00 4.508737e+00 4.504889e+00 4.508721e+00 4.504874e+00 4.508707e+00 4.504862e+00 4.508696e+00 4.504852e+00 4.508687e+00 4.504844e+00 4.508680e+00 4.504837e+00 4.508674e+00 4.504832e+00 4.508669e+00 4.504827e+00 4.508664e+00 4.504823e+00 4.508661e+00 4.504820e+00 4.508658e+00 4.504818e+00 4.508656e+00 4.504816e+00 4.508654e+00 4.504814e+00 4.508652e+00 4.504812e+00 4.508651e+00 4.504811e+00 4.508650e+00 4.504810e+00 4.508649e+00 4.504809e+00 4.508649e+00 4.504809e+00 4.508648e+00 4.504808e+00 4.508647e+00 4.504808e+00 4.508647e+00 4.504808e+00 4.508647e+00 4.504807e+00 4.508646e+00 4.504807e+00 4.508646e+00 4.504807e+00 4.508646e+00 4.504807e+00 4.508646e+00 4.504806e+00 4.508646e+00 4.504806e+00 4.508646e+00 4.504806e+00 4.508646e+00 4.504806e+00 4.508646e+00 4.504806e+00 4.508645e+00 4.504806e+00 4.508645e+00 4.504806e+00 4.508645e+00 4.504806e+00 4.508645e+00 4.504806e+00 4.508645e+00 4.504806e+00 4.508645e+00 4.504806e+00 4.508645e+00 4.504806e+00 4.508645e+00 4.504806e+00 4.508645e+00 4.504806e+00 4.508645e+00 4.504806e+00 4.508645e+00 4.504806e+00 4.508645e+00 4.504806e+00 4.508645e+00 4.504806e+00 4.508645e+00 4.504806e+00 4.508645e+00 4.504806e+00 4.508645e+00 4.504806e+00 4.508645e+00 4.504806e+00 4.508645e+00 4.504806e+00 4.508645e+00 4.504806e+00 4.508645e+00 4.504806e+00 4.508645e+00 4.504806e+00 4.508645e+00 4.504806e+00 4.508645e+00 4.504806e+00 4.508645e+00 4.504806e+00 4.508645e+00 4.504805e+00 4.508645e+00 4.504805e+00 4.508645e+00 4.504805e+00 4.508645e+00 4.504805e+00 4.508645e+00 4.504805e+00 4.508645e+00 4.504805e+00 4.508644e+00 4.504805e+00 4.508644e+00 4.504804e+00 4.508644e+00 4.504804e+00 4.508644e+00 4.504803e+00 4.508644e+00 4.504803e+00 4.508643e+00 4.504802e+00 4.508643e+00 4.504802e+00 4.508642e+00 4.504801e+00 4.508642e+00 4.504800e+00 4.508641e+00 4.504798e+00 4.508640e+00 4.504797e+00 4.508639e+00 4.504795e+00 4.508638e+00 4.504792e+00 4.508637e+00 4.504790e+00 4.508635e+00 4.504786e+00 4.508633e+00 4.504782e+00 4.508630e+00 4.504777e+00 4.508627e+00 4.504771e+00 4.508623e+00 4.504763e+00 4.508618e+00 4.504754e+00 4.508613e+00 4.504743e+00 4.508606e+00 4.504729e+00 4.508597e+00 4.504713e+00 4.508587e+00 4.504692e+00 4.508575e+00 4.504668e+00 4.508560e+00 4.504637e+00 4.508541e+00 4.504600e+00 4.508519e+00 4.504555e+00 4.508491e+00 4.504498e+00 4.508457e+00 4.504428e+00 4.508415e+00 4.504341e+00 4.508363e+00 4.504232e+00 4.508299e+00 4.504094e+00 4.508219e+00 4.503919e+00 4.508119e+00 4.503696e+00 4.507995e+00 4.503417e+00 4.507851e+00 4.503086e+00 4.507709e+00 4.502793e+00 4.507660e+00 4.502942e+00 4.507804e+00 4.505083e+00 
4.519154e+00 4.513780e+00 4.519144e+00 4.513686e+00 4.501880e+00 4.498917e+00 4.488171e+00 4.487410e+00 4.480083e+00 4.481193e+00 4.476921e+00 4.479318e+00 4.477312e+00 4.480745e+00 4.480540e+00 4.485035e+00 4.486419e+00 4.492131e+00 4.495049e+00 4.502186e+00 4.506686e+00 4.515470e+00 4.521664e+00 4.532282e+00 4.540294e+00 4.552846e+00 4.562780e+00 4.577242e+00 4.589172e+00 4.605383e+00 4.619355e+00 4.637005e+00 4.653038e+00 4.671656e+00 4.689724e+00 4.708680e+00 4.728681e+00 4.747207e+00 4.768940e+00 4.786187e+00 4.809328e+00 4.824461e+00 4.848562e+00 4.860856e+00 4.885354e+00 4.894288e+00 4.918545e+00 4.923859e+00 4.947208e+00 4.948922e+00 4.970739e+00 4.969128e+00 4.988892e+00 4.984426e+00 5.001777e+00 4.995041e+00 5.009804e+00 5.001417e+00 5.013593e+00 5.004142e+00 5.013878e+00 5.003860e+00 5.011395e+00 5.001190e+00 5.006791e+00 4.996639e+00 5.000552e+00 4.990556e+00 4.992961e+00 4.983095e+00 4.984098e+00 4.974239e+00 4.973872e+00 4.963837e+00 4.962094e+00 4.951685e+00 4.948547e+00 4.937592e+00 4.933065e+00 4.921449e+00 4.915583e+00 4.903260e+00 4.896159e+00 4.883155e+00 4.874974e+00 4.861381e+00 4.852316e+00 4.838273e+00 4.828546e+00 4.814225e+00 4.804071e+00 4.789658e+00 4.779308e+00 4.764990e+00 4.754660e+00 4.740610e+00 4.730495e+00 4.716867e+00 4.707133e+00 4.694056e+00 4.684839e+00 4.672417e+00 4.663822e+00 4.652130e+00 4.644235e+00 4.633326e+00 4.626181e+00 4.616082e+00 4.609713e+00 4.600432e+00 4.594844e+00 4.586370e+00 4.581551e+00 4.573858e+00 4.569777e+00 4.562825e+00 4.559443e+00 4.553182e+00 4.550448e+00 4.544821e+00 4.542679e+00 4.537626e+00 4.536016e+00 4.531475e+00 4.530338e+00 4.526248e+00 4.525526e+00 4.521830e+00 4.521468e+00 4.518111e+00 4.518060e+00 4.514994e+00 4.515207e+00 4.512389e+00 4.512827e+00 4.510219e+00 4.510846e+00 4.508414e+00 4.509201e+00 4.506916e+00 4.507837e+00 4.505676e+00 4.506708e+00 4.504649e+00 4.505774e+00 4.503800e+00 4.505002e+00 4.503100e+00 4.504365e+00 4.502521e+00 4.503840e+00 4.502045e+00 4.503406e+00 4.501652e+00 4.503049e+00 4.501328e+00 4.502755e+00 4.501061e+00 4.502513e+00 4.500841e+00 4.502314e+00 4.500661e+00 4.502150e+00 4.500512e+00 4.502015e+00 4.500390e+00 4.501904e+00 4.500289e+00 4.501812e+00 4.500206e+00 4.501737e+00 4.500138e+00 4.501675e+00 4.500082e+00 4.501624e+00 4.500036e+00 4.501582e+00 4.499998e+00 4.501548e+00 4.499966e+00 4.501520e+00 4.499941e+00 4.501497e+00 4.499920e+00 4.501477e+00 4.499902e+00 4.501462e+00 4.499888e+00 4.501449e+00 4.499876e+00 4.501438e+00 4.499867e+00 4.501429e+00 4.499859e+00 4.501422e+00 4.499852e+00 4.501416e+00 4.499847e+00 4.501411e+00 4.499843e+00 4.501407e+00 4.499839e+00 4.501404e+00 4.499836e+00 4.501401e+00 4.499833e+00 4.501399e+00 4.499831e+00 4.501397e+00 4.499830e+00 4.501396e+00 4.499828e+00 4.501395e+00 4.499827e+00 4.501394e+00 4.499826e+00 4.501393e+00 4.499826e+00 4.501392e+00 4.499825e+00 4.501391e+00 4.499824e+00 4.501391e+00 4.499824e+00 4.501391e+00 4.499824e+00 4.501390e+00 4.499823e+00 4.501390e+00 4.499823e+00 4.501390e+00 4.499823e+00 4.501390e+00 4.499823e+00 4.501389e+00 4.499823e+00 4.501389e+00 4.499823e+00 4.501389e+00 4.499823e+00 4.501389e+00 4.499822e+00 4.501389e+00 4.499822e+00 4.501389e+00 4.499822e+00 4.501389e+00 4.499822e+00 4.501389e+00 4.499822e+00 4.501389e+00 4.499822e+00 4.501389e+00 4.499822e+00 4.501389e+00 4.499822e+00 4.501389e+00 4.499822e+00 4.501389e+00 4.499822e+00 4.501389e+00 4.499822e+00 4.501389e+00 4.499822e+00 4.501389e+00 4.499822e+00 4.501389e+00 4.499822e+00 4.501388e+00 4.499822e+00 4.501388e+00 4.499822e+00 4.501388e+00 4.499822e+00 4.501388e+00 4.499821e+00 4.501388e+00 4.499821e+00 4.501388e+00 4.499821e+00 4.501388e+00 4.499821e+00 4.501387e+00 4.499821e+00 4.501387e+00 4.499820e+00 4.501387e+00 4.499820e+00 4.501386e+00 4.499820e+00 4.501386e+00 4.499819e+00 4.501385e+00 4.499818e+00 4.501384e+00 4.499817e+00 4.501383e+00 4.499816e+00 4.501382e+00 4.499815e+00 4.501380e+00 4.499814e+00 4.501379e+00 4.499812e+00 4.501376e+00 4.499810e+00 4.501374e+00 4.499807e+00 4.501370e+00 4.499804e+00 4.501366e+00 4.499800e+00 4.501361e+00 4.499795e+00 4.501356e+00 4.499789e+00 4.501348e+00 4.499782e+00 4.501340e+00 4.499773e+00 4.501329e+00 4.499763e+00 4.501316e+00 4.499750e+00 4.501300e+00 4.499734e+00 4.501281e+00 4.499715e+00 4.501258e+00 4.499692e+00 4.501230e+00 4.499664e+00 4.501195e+00 4.499629e+00 4.501153e+00 4.499588e+00 4.501102e+00 4.499537e+00 4.501039e+00 4.499474e+00 4.500963e+00 4.499398e+00 4.500870e+00 4.499305e+00 4.500756e+00 4.499191e+00 4.500616e+00 4.499052e+00 4.500446e+00 4.498881e+00 4.500236e+00 4.498671e+00 4.499979e+00 4.498412e+00 4.499661e+00 4.498092e+00 4.499268e+00 4.497695e+00 4.498781e+00 4.497201e+00 4.498175e+00 4.496583e+00 4.497416e+00 4.495805e+00 4.496460e+00 4.494820e+00 4.495249e+00 4.493565e+00 4.493705e+00 4.491957e+00 4.491725e+00 4.489895e+00 4.489186e+00 4.487282e+00 4.485970e+00 4.484127e+00 4.482096e+00 4.480897e+00 4.478160e+00 4.479592e+00 4.476663e+00 4.486333e+00 4.485135e+00 4.513413e+00 