# vtk DataFile Version 2.0
Comment goes here
ASCII

DATASET STRUCTURED_POINTS
FIELD FieldData 1
TIME 1 1 double
0.37500000
DIMENSIONS    384   64   1

ORIGIN    0.000   0.000   0.000
SPACING   0.078125 0.078125   1.000

POINT_DATA   24576
SCALARS uMag double
LOOKUP_TABLE default

9.272949e-01 4.964509e-01 9.266422e-01 4.551142e-01 2.723941e-01 7.067895e-01 9.877091e-01 1.173279e+00 1.280790e+00 1.370922e+00 1.424449e+00 1.476190e+00 1.510147e+00 1.542368e+00 1.567225e+00 1.587626e+00 1.607521e+00 1.620251e+00 1.637367e+00 1.645038e+00 1.660676e+00 1.664984e+00 1.679907e+00 1.681937e+00 1.696558e+00 1.696991e+00 1.711498e+00 1.710748e+00 1.725186e+00 1.723485e+00 1.737807e+00 1.735261e+00 1.749355e+00 1.745984e+00 1.759702e+00 1.755468e+00 1.768648e+00 1.763485e+00 1.775973e+00 1.769811e+00 1.781481e+00 1.774267e+00 1.785038e+00 1.776748e+00 1.786590e+00 1.777242e+00 1.786173e+00 1.775822e+00 1.783911e+00 1.772649e+00 1.779998e+00 1.767947e+00 1.774685e+00 1.761990e+00 1.768264e+00 1.755081e+00 1.761042e+00 1.747530e+00 1.753328e+00 1.739642e+00 1.745412e+00 1.731690e+00 1.737550e+00 1.723911e+00 1.729954e+00 1.716491e+00 1.722788e+00 1.709568e+00 1.716163e+00 1.703228e+00 1.710145e+00 1.697516e+00 1.704761e+00 1.692443e+00 1.700007e+00 1.687990e+00 1.695856e+00 1.684122e+00 1.692266e+00 1.680791e+00 1.689187e+00 1.677945e+00 1.686564e+00 1.675528e+00 1.684342e+00 1.673486e+00 1.682470e+00 1.671770e+00 1.680899e+00 1.670331e+00 1.679584e+00 1.669130e+00 1.678488e+00 1.668130e+00 1.677576e+00 1.667299e+00 1.676819e+00 1.666609e+00 1.676192e+00 1.666038e+00 1.675672e+00 1.665566e+00 1.675243e+00 1.665175e+00 1.674888e+00 1.664853e+00 1.674595e+00 1.664587e+00 1.674354e+00 1.664367e+00 1.674155e+00 1.664187e+00 1.673991e+00 1.664038e+00 1.673856e+00 1.663915e+00 1.673745e+00 1.663814e+00 1.673653e+00 1.663731e+00 1.673578e+00 1.663663e+00 1.673516e+00 1.663606e+00 1.673465e+00 1.663560e+00 1.673423e+00 1.663522e+00 1.673388e+00 1.663491e+00 1.673360e+00 1.663465e+00 1.673336e+00 1.663444e+00 1.673317e+00 1.663426e+00 1.673301e+00 1.663412e+00 1.673288e+00 1.663400e+00 1.673278e+00 1.663391e+00 1.673269e+00 1.663383e+00 1.673262e+00 1.663376e+00 1.673256e+00 1.663371e+00 1.673251e+00 1.663366e+00 1.673247e+00 1.663363e+00 1.673244e+00 1.663360e+00 1.673241e+00 1.663357e+00 1.673239e+00 1.663355e+00 1.673237e+00 1.663353e+00 1.673235e+00 1.663352e+00 1.673234e+00 1.663351e+00 1.673233e+00 1.663350e+00 1.673232e+00 1.663349e+00 1.673231e+00 1.663349e+00 1.673231e+00 1.663348e+00 1.673230e+00 1.663348e+00 1.673230e+00 1.663347e+00 1.673230e+00 1.663347e+00 1.673230e+00 1.663347e+00 1.673229e+00 1.663347e+00 1.673229e+00 1.663347e+00 1.673229e+00 1.663346e+00 1.673229e+00 1.663346e+00 1.673229e+00 1.663346e+00 1.673229e+00 1.663346e+00 1.673229e+00 1.663346e+00 1.673229e+00 1.663346e+00 1.673229e+00 1.663346e+00 1.673228e+00 1.663346e+00 1.673228e+00 1.663346e+00 1.673228e+00 1.663346e+00 1.673228e+00 1.663346e+00 1.673228e+00 1.663346e+00 1.673228e+00 1.663346e+00 1.673228e+00 1.663346e+00 1.673228e+00 1.663346e+00 1.673228e+00 1.663346e+00 1.673228e+00 1.663346e+00 1.673228e+00 1.663346e+00 1.673228e+00 1.663346e+00 1.673228e+00 1.663346e+00 1.673228e+00 1.663346e+00 1.673228e+00 1.663346e+00 1.673228e+00 1.663346e+00 1.673228e+00 1.663346e+00 1.673228e+00 1.663346e+00 1.673228e+00 1.663346e+00 1.673228e+00 1.663346e+00 1.673228e+00 1.663346e+00 1.673228e+00 1.663346e+00 1.673228e+00 1.663346e+00 1.673228e+00 1.663346e+00 1.673228e+00 1.663346e+00 1.673228e+00 1.663345e+00 1.673228e+00 1.663345e+00 1.673228e+00 1.663345e+00 1.673228e+00 1.663345e+00 1.673228e+00 1.663345e+00 1.673227e+00 1.663345e+00 1.673227e+00 1.663345e+00 1.673227e+00 1.663345e+00 1.673227e+00 1.663344e+00 1.673226e+00 1.663344e+00 1.673226e+00 1.663344e+00 1.673226e+00 1.663343e+00 1.673225e+00 1.663343e+00 1.673224e+00 1.663342e+00 1.673223e+00 1.663341e+00 1.673222e+00 1.663340e+00 1.673221e+00 1.663339e+00 1.673220e+00 1.663337e+00 1.673218e+00 1.663336e+00 1.673216e+00 1.663333e+00 1.673213e+00 1.663331e+00 1.673209e+00 1.663327e+00 1.673205e+00 1.663323e+00 1.673200e+00 1.663319e+00 1.673194e+00 1.663313e+00 1.673187e+00 1.663306e+00 1.673178e+00 1.663297e+00 1.673167e+00 1.663287e+00 1.673154e+00 1.663274e+00 1.673138e+00 1.663258e+00 1.673119e+00 1.663239e+00 1.673095e+00 1.663216e+00 1.673067e+00 1.663189e+00 1.673032e+00 1.663155e+00 1.672989e+00 1.663113e+00 1.672938e+00 1.663063e+00 1.672875e+00 1.663002e+00 1.672799e+00 1.662928e+00 1.672706e+00 1.662838e+00 1.672593e+00 1.662728e+00 1.672455e+00 1.662594e+00 1.672288e+00 1.662430e+00 1.672083e+00 1.662231e+00 1.671834e+00 1.661989e+00 1.671530e+00 1.661692e+00 1.671159e+00 1.661330e+00 1.670705e+00 1.660886e+00 1.670149e+00 1.660343e+00 1.669468e+00 1.659676e+00 1.668631e+00 1.658855e+00 1.667601e+00 1.657843e+00 1.666330e+00 1.656590e+00 1.664755e+00 1.655033e+00 1.662795e+00 1.653089e+00 1.660345e+00 1.650645e+00 1.657260e+00 1.647549e+00 1.653343e+00 1.643588e+00 1.648318e+00 1.638456e+00 1.641783e+00 1.631697e+00 1.633131e+00 1.622598e+00 1.621405e+00 1.609989e+00 1.604995e+00 1.591800e+00 1.580981e+00 1.564034e+00 1.543535e+00 1.518056e+00 1.479583e+00 1.432597e+00 1.355697e+00 1.247791e+00 1.076589e+00 7.807268e-01 3.751160e-01 4.529631e-01 
1.690953e+00 1.652975e+00 1.691069e+00 1.749447e+00 1.662955e+00 1.580157e+00 1.566112e+00 1.558618e+00 1.587790e+00 1.588804e+00 1.624312e+00 1.622222e+00 1.656718e+00 1.650522e+00 1.682568e+00 1.672873e+00 1.702631e+00 1.690405e+00 1.718511e+00 1.704670e+00 1.731760e+00 1.716989e+00 1.743519e+00 1.728256e+00 1.754499e+00 1.738983e+00 1.765065e+00 1.749398e+00 1.775339e+00 1.759526e+00 1.785271e+00 1.769246e+00 1.794685e+00 1.778338e+00 1.803328e+00 1.786517e+00 1.810903e+00 1.793482e+00 1.817116e+00 1.798952e+00 1.821716e+00 1.802705e+00 1.824525e+00 1.804604e+00 1.825456e+00 1.804610e+00 1.824521e+00 1.802782e+00 1.821824e+00 1.799264e+00 1.817545e+00 1.794270e+00 1.811925e+00 1.788066e+00 1.805244e+00 1.780948e+00 1.797805e+00 1.773224e+00 1.789910e+00 1.765191e+00 1.781845e+00 1.757122e+00 1.773863e+00 1.749248e+00 1.766171e+00 1.741755e+00 1.758930e+00 1.734775e+00 1.752246e+00 1.728392e+00 1.746184e+00 1.722649e+00 1.740768e+00 1.717552e+00 1.735990e+00 1.713083e+00 1.731822e+00 1.709204e+00 1.728220e+00 1.705866e+00 1.725131e+00 1.703014e+00 1.722502e+00 1.700594e+00 1.720276e+00 1.698550e+00 1.718400e+00 1.696832e+00 1.716827e+00 1.695393e+00 1.715511e+00 1.694191e+00 1.714413e+00 1.693190e+00 1.713500e+00 1.692359e+00 1.712742e+00 1.691669e+00 1.712114e+00 1.691098e+00 1.711594e+00 1.690625e+00 1.711164e+00 1.690234e+00 1.710809e+00 1.689912e+00 1.710516e+00 1.689646e+00 1.710274e+00 1.689426e+00 1.710075e+00 1.689245e+00 1.709911e+00 1.689096e+00 1.709775e+00 1.688974e+00 1.709664e+00 1.688873e+00 1.709572e+00 1.688790e+00 1.709497e+00 1.688721e+00 1.709435e+00 1.688665e+00 1.709384e+00 1.688618e+00 1.709342e+00 1.688580e+00 1.709307e+00 1.688549e+00 1.709278e+00 1.688523e+00 1.709255e+00 1.688502e+00 1.709236e+00 1.688484e+00 1.709220e+00 1.688470e+00 1.709207e+00 1.688458e+00 1.709196e+00 1.688449e+00 1.709187e+00 1.688441e+00 1.709180e+00 1.688434e+00 1.709174e+00 1.688429e+00 1.709169e+00 1.688424e+00 1.709165e+00 1.688420e+00 1.709162e+00 1.688417e+00 1.709159e+00 1.688415e+00 1.709157e+00 1.688413e+00 1.709155e+00 1.688411e+00 1.709154e+00 1.688410e+00 1.709152e+00 1.688409e+00 1.709151e+00 1.688408e+00 1.709151e+00 1.688407e+00 1.709150e+00 1.688406e+00 1.709149e+00 1.688406e+00 1.709149e+00 1.688406e+00 1.709148e+00 1.688405e+00 1.709148e+00 1.688405e+00 1.709148e+00 1.688405e+00 1.709148e+00 1.688404e+00 1.709147e+00 1.688404e+00 1.709147e+00 1.688404e+00 1.709147e+00 1.688404e+00 1.709147e+00 1.688404e+00 1.709147e+00 1.688404e+00 1.709147e+00 1.688404e+00 1.709147e+00 1.688404e+00 1.709147e+00 1.688404e+00 1.709147e+00 1.688404e+00 1.709147e+00 1.688404e+00 1.709147e+00 1.688404e+00 1.709147e+00 1.688404e+00 1.709147e+00 1.688404e+00 1.709147e+00 1.688404e+00 1.709147e+00 1.688404e+00 1.709147e+00 1.688404e+00 1.709147e+00 1.688404e+00 1.709147e+00 1.688404e+00 1.709147e+00 1.688404e+00 1.709147e+00 1.688404e+00 1.709147e+00 1.688404e+00 1.709147e+00 1.688404e+00 1.709147e+00 1.688404e+00 1.709147e+00 1.688404e+00 1.709147e+00 1.688404e+00 1.709147e+00 1.688404e+00 1.709147e+00 1.688404e+00 1.709147e+00 1.688404e+00 1.709147e+00 1.688404e+00 1.709147e+00 1.688404e+00 1.709147e+00 1.688404e+00 1.709147e+00 1.688404e+00 1.709147e+00 1.688404e+00 1.709147e+00 1.688404e+00 1.709147e+00 1.688403e+00 1.709147e+00 1.688403e+00 1.709147e+00 1.688403e+00 1.709147e+00 1.688403e+00 1.709147e+00 1.688403e+00 1.709147e+00 1.688403e+00 1.709146e+00 1.688403e+00 1.709146e+00 1.688403e+00 1.709146e+00 1.688403e+00 1.709146e+00 1.688403e+00 1.709146e+00 1.688403e+00 1.709146e+00 1.688403e+00 1.709146e+00 1.688403e+00 1.709146e+00 1.688403e+00 1.709146e+00 1.688403e+00 1.709146e+00 1.688402e+00 1.709145e+00 1.688402e+00 1.709145e+00 1.688402e+00 1.709145e+00 1.688402e+00 1.709145e+00 1.688401e+00 1.709144e+00 1.688401e+00 1.709144e+00 1.688400e+00 1.709143e+00 1.688399e+00 1.709142e+00 1.688399e+00 1.709141e+00 1.688397e+00 1.709140e+00 1.688396e+00 1.709139e+00 1.688395e+00 1.709137e+00 1.688393e+00 1.709135e+00 1.688390e+00 1.709133e+00 1.688388e+00 1.709130e+00 1.688384e+00 1.709126e+00 1.688380e+00 1.709122e+00 1.688375e+00 1.709116e+00 1.688369e+00 1.709110e+00 1.688362e+00 1.709102e+00 1.688353e+00 1.709093e+00 1.688343e+00 1.709081e+00 1.688330e+00 1.709067e+00 1.688314e+00 1.709050e+00 1.688295e+00 1.709030e+00 1.688272e+00 1.709005e+00 1.688244e+00 1.708975e+00 1.688210e+00 1.708938e+00 1.688168e+00 1.708892e+00 1.688117e+00 1.708837e+00 1.688054e+00 1.708769e+00 1.687978e+00 1.708685e+00 1.687883e+00 1.708581e+00 1.687767e+00 1.708453e+00 1.687622e+00 1.708293e+00 1.687442e+00 1.708093e+00 1.687216e+00 1.707839e+00 1.686931e+00 1.707516e+00 1.686568e+00 1.707099e+00 1.686100e+00 1.706554e+00 1.685488e+00 1.705830e+00 1.684673e+00 1.704846e+00 1.683564e+00 1.703475e+00 1.682012e+00 1.701500e+00 1.679765e+00 1.698542e+00 1.676370e+00 1.693896e+00 1.670991e+00 1.686234e+00 1.662105e+00 1.673124e+00 1.647351e+00 1.651235e+00 1.626415e+00 1.625956e+00 1.628419e+00 1.688688e+00 1.766126e+00 
1.766439e+00 1.742121e+00 1.766295e+00 1.728753e+00 1.441298e+00 1.399023e+00 1.348372e+00 1.386335e+00 1.402299e+00 1.447136e+00 1.472956e+00 1.508419e+00 1.532454e+00 1.557724e+00 1.578462e+00 1.595514e+00 1.613539e+00 1.624529e+00 1.640757e+00 1.647472e+00 1.662680e+00 1.666437e+00 1.681156e+00 1.682859e+00 1.697397e+00 1.697636e+00 1.712131e+00 1.711274e+00 1.725745e+00 1.723998e+00 1.738383e+00 1.735833e+00 1.750007e+00 1.746658e+00 1.760463e+00 1.756264e+00 1.769526e+00 1.764397e+00 1.776951e+00 1.770812e+00 1.782525e+00 1.775317e+00 1.786104e+00 1.777799e+00 1.787629e+00 1.778246e+00 1.787142e+00 1.776738e+00 1.784772e+00 1.773442e+00 1.780723e+00 1.768595e+00 1.775256e+00 1.762478e+00 1.768673e+00 1.755406e+00 1.761290e+00 1.747699e+00 1.753426e+00 1.739669e+00 1.745377e+00 1.731596e+00 1.737406e+00 1.723721e+00 1.729728e+00 1.716232e+00 1.722504e+00 1.709263e+00 1.715845e+00 1.702901e+00 1.709813e+00 1.697184e+00 1.704432e+00 1.692120e+00 1.699692e+00 1.687685e+00 1.695563e+00 1.683842e+00 1.692000e+00 1.680539e+00 1.688949e+00 1.677721e+00 1.686354e+00 1.675332e+00 1.684160e+00 1.673317e+00 1.682313e+00 1.671624e+00 1.680764e+00 1.670208e+00 1.679470e+00 1.669026e+00 1.678392e+00 1.668042e+00 1.677496e+00 1.667225e+00 1.676752e+00 1.666548e+00 1.676135e+00 1.665987e+00 1.675625e+00 1.665523e+00 1.675204e+00 1.665140e+00 1.674856e+00 1.664823e+00 1.674569e+00 1.664562e+00 1.674332e+00 1.664347e+00 1.674137e+00 1.664170e+00 1.673976e+00 1.664024e+00 1.673843e+00 1.663904e+00 1.673734e+00 1.663805e+00 1.673645e+00 1.663723e+00 1.673571e+00 1.663656e+00 1.673510e+00 1.663601e+00 1.673460e+00 1.663556e+00 1.673419e+00 1.663519e+00 1.673385e+00 1.663488e+00 1.673357e+00 1.663463e+00 1.673334e+00 1.663442e+00 1.673315e+00 1.663425e+00 1.673300e+00 1.663411e+00 1.673287e+00 1.663399e+00 1.673277e+00 1.663390e+00 1.673268e+00 1.663382e+00 1.673261e+00 1.663375e+00 1.673255e+00 1.663370e+00 1.673250e+00 1.663366e+00 1.673247e+00 1.663362e+00 1.673243e+00 1.663359e+00 1.673241e+00 1.663357e+00 1.673238e+00 1.663355e+00 1.673237e+00 1.663353e+00 1.673235e+00 1.663352e+00 1.673234e+00 1.663351e+00 1.673233e+00 1.663350e+00 1.673232e+00 1.663349e+00 1.673231e+00 1.663349e+00 1.673231e+00 1.663348e+00 1.673230e+00 1.663348e+00 1.673230e+00 1.663347e+00 1.673230e+00 1.663347e+00 1.673229e+00 1.663347e+00 1.673229e+00 1.663347e+00 1.673229e+00 1.663346e+00 1.673229e+00 1.663346e+00 1.673229e+00 1.663346e+00 1.673229e+00 1.663346e+00 1.673229e+00 1.663346e+00 1.673229e+00 1.663346e+00 1.673229e+00 1.663346e+00 1.673229e+00 1.663346e+00 1.673228e+00 1.663346e+00 1.673228e+00 1.663346e+00 1.673228e+00 1.663346e+00 1.673228e+00 1.663346e+00 1.673228e+00 1.663346e+00 1.673228e+00 1.663346e+00 1.673228e+00 1.663346e+00 1.673228e+00 1.663346e+00 1.673228e+00 1.663346e+00 1.673228e+00 1.663346e+00 1.673228e+00 1.663346e+00 1.673228e+00 1.663346e+00 1.673228e+00 1.663346e+00 1.673228e+00 1.663346e+00 1.673228e+00 1.663346e+00 1.673228e+00 1.663346e+00 1.673228e+00 1.663346e+00 1.673228e+00 1.663346e+00 1.673228e+00 1.663346e+00 1.673228e+00 1.663346e+00 1.673228e+00 1.663346e+00 1.673228e+00 1.663346e+00 1.673228e+00 1.663346e+00 1.673228e+00 1.663346e+00 1.673228e+00 1.663346e+00 1.673228e+00 1.663345e+00 1.673228e+00 1.663345e+00 1.673228e+00 1.663345e+00 1.673228e+00 1.663345e+00 1.673228e+00 1.663345e+00 1.673227e+00 1.663345e+00 1.673227e+00 1.663345e+00 1.673227e+00 1.663345e+00 1.673227e+00 1.663344e+00 1.673227e+00 1.663344e+00 1.673226e+00 1.663344e+00 1.673226e+00 1.663343e+00 1.673225e+00 1.663343e+00 1.673224e+00 1.663342e+00 1.673224e+00 1.663341e+00 1.673223e+00 1.663340e+00 1.673221e+00 1.663339e+00 1.673220e+00 1.663338e+00 1.673218e+00 1.663336e+00 1.673216e+00 1.663334e+00 1.673213e+00 1.663331e+00 1.673210e+00 1.663328e+00 1.673206e+00 1.663324e+00 1.673201e+00 1.663319e+00 1.673195e+00 1.663313e+00 1.673188e+00 1.663306e+00 1.673179e+00 1.663298e+00 1.673169e+00 1.663288e+00 1.673156e+00 1.663275e+00 1.673140e+00 1.663260e+00 1.673121e+00 1.663241e+00 1.673098e+00 1.663219e+00 1.673070e+00 1.663192e+00 1.673036e+00 1.663158e+00 1.672994e+00 1.663118e+00 1.672943e+00 1.663069e+00 1.672882e+00 1.663009e+00 1.672807e+00 1.662936e+00 1.672716e+00 1.662848e+00 1.672605e+00 1.662740e+00 1.672470e+00 1.662608e+00 1.672306e+00 1.662448e+00 1.672106e+00 1.662253e+00 1.671862e+00 1.662016e+00 1.671564e+00 1.661725e+00 1.671200e+00 1.661371e+00 1.670756e+00 1.660937e+00 1.670213e+00 1.660405e+00 1.669546e+00 1.659754e+00 1.668729e+00 1.658952e+00 1.667723e+00 1.657965e+00 1.666483e+00 1.656744e+00 1.664949e+00 1.655230e+00 1.663044e+00 1.653342e+00 1.660666e+00 1.650976e+00 1.657682e+00 1.647989e+00 1.653907e+00 1.644186e+00 1.649088e+00 1.639289e+00 1.642866e+00 1.632898e+00 1.634712e+00 1.624411e+00 1.623828e+00 1.612894e+00 1.608969e+00 1.596856e+00 1.588131e+00 1.573883e+00 1.558120e+00 1.540281e+00 1.514382e+00 1.491993e+00 1.453730e+00 1.433539e+00 1.391978e+00 1.423089e+00 1.436902e+00 1.727262e+00 
1.703514e+00 1.680062e+00 1.703439e+00 1.708915e+00 1.750691e+00 1.709235e+00 1.702491e+00 1.664490e+00 1.671672e+00 1.649015e+00 1.669293e+00 1.654201e+00 1.680168e+00 1.667161e+00 1.694651e+00 1.681431e+00 1.708809e+00 1.694775e+00 1.721654e+00 1.706890e+00 1.733351e+00 1.718113e+00 1.744330e+00 1.728844e+00 1.754952e+00 1.739355e+00 1.765413e+00 1.749758e+00 1.775752e+00 1.760014e+00 1.785866e+00 1.769960e+00 1.795540e+00 1.779335e+00 1.804479e+00 1.787815e+00 1.812346e+00 1.795056e+00 1.818806e+00 1.800740e+00 1.823578e+00 1.804621e+00 1.826464e+00 1.806550e+00 1.827374e+00 1.806490e+00 1.826328e+00 1.804510e+00 1.823443e+00 1.800771e+00 1.818918e+00 1.795507e+00 1.813012e+00 1.789003e+00 1.806026e+00 1.781576e+00 1.798280e+00 1.773550e+00 1.790096e+00 1.765242e+00 1.781775e+00 1.756938e+00 1.773580e+00 1.748877e+00 1.765726e+00 1.741246e+00 1.758372e+00 1.734178e+00 1.751623e+00 1.727750e+00 1.745535e+00 1.721998e+00 1.740123e+00 1.716919e+00 1.735373e+00 1.712486e+00 1.731248e+00 1.708656e+00 1.727698e+00 1.705372e+00 1.724665e+00 1.702577e+00 1.722092e+00 1.700211e+00 1.719919e+00 1.698219e+00 1.718093e+00 1.696548e+00 1.716564e+00 1.695151e+00 1.715287e+00 1.693986e+00 1.714225e+00 1.693018e+00 1.713342e+00 1.692214e+00 1.712610e+00 1.691548e+00 1.712004e+00 1.690997e+00 1.711502e+00 1.690541e+00 1.711088e+00 1.690165e+00 1.710746e+00 1.689854e+00 1.710463e+00 1.689598e+00 1.710231e+00 1.689387e+00 1.710039e+00 1.689213e+00 1.709881e+00 1.689070e+00 1.709751e+00 1.688952e+00 1.709644e+00 1.688854e+00 1.709556e+00 1.688774e+00 1.709483e+00 1.688709e+00 1.709423e+00 1.688655e+00 1.709374e+00 1.688610e+00 1.709334e+00 1.688573e+00 1.709301e+00 1.688543e+00 1.709273e+00 1.688518e+00 1.709251e+00 1.688498e+00 1.709232e+00 1.688481e+00 1.709217e+00 1.688467e+00 1.709205e+00 1.688456e+00 1.709194e+00 1.688447e+00 1.709186e+00 1.688439e+00 1.709179e+00 1.688433e+00 1.709173e+00 1.688428e+00 1.709168e+00 1.688423e+00 1.709165e+00 1.688420e+00 1.709161e+00 1.688417e+00 1.709159e+00 1.688415e+00 1.709157e+00 1.688413e+00 1.709155e+00 1.688411e+00 1.709153e+00 1.688410e+00 1.709152e+00 1.688409e+00 1.709151e+00 1.688408e+00 1.709150e+00 1.688407e+00 1.709150e+00 1.688406e+00 1.709149e+00 1.688406e+00 1.709149e+00 1.688405e+00 1.709148e+00 1.688405e+00 1.709148e+00 1.688405e+00 1.709148e+00 1.688405e+00 1.709148e+00 1.688404e+00 1.709147e+00 1.688404e+00 1.709147e+00 1.688404e+00 1.709147e+00 1.688404e+00 1.709147e+00 1.688404e+00 1.709147e+00 1.688404e+00 1.709147e+00 1.688404e+00 1.709147e+00 1.688404e+00 1.709147e+00 1.688404e+00 1.709147e+00 1.688404e+00 1.709147e+00 1.688404e+00 1.709147e+00 1.688404e+00 1.709147e+00 1.688404e+00 1.709147e+00 1.688404e+00 1.709147e+00 1.688404e+00 1.709147e+00 1.688404e+00 1.709147e+00 1.688404e+00 1.709147e+00 1.688404e+00 1.709147e+00 1.688404e+00 1.709147e+00 1.688404e+00 1.709147e+00 1.688404e+00 1.709147e+00 1.688404e+00 1.709147e+00 1.688404e+00 1.709147e+00 1.688404e+00 1.709147e+00 1.688404e+00 1.709147e+00 1.688404e+00 1.709147e+00 1.688404e+00 1.709147e+00 1.688404e+00 1.709147e+00 1.688404e+00 1.709147e+00 1.688404e+00 1.709147e+00 1.688404e+00 1.709147e+00 1.688404e+00 1.709147e+00 1.688404e+00 1.709147e+00 1.688404e+00 1.709147e+00 1.688404e+00 1.709147e+00 1.688403e+00 1.709147e+00 1.688403e+00 1.709147e+00 1.688403e+00 1.709147e+00 1.688403e+00 1.709147e+00 1.688403e+00 1.709147e+00 1.688403e+00 1.709146e+00 1.688403e+00 1.709146e+00 1.688403e+00 1.709146e+00 1.688403e+00 1.709146e+00 1.688403e+00 1.709146e+00 1.688403e+00 1.709146e+00 1.688403e+00 1.709146e+00 1.688403e+00 1.709146e+00 1.688403e+00 1.709146e+00 1.688403e+00 1.709146e+00 1.688403e+00 1.709146e+00 1.688402e+00 1.709145e+00 1.688402e+00 1.709145e+00 1.688402e+00 1.709145e+00 1.688401e+00 1.709144e+00 1.688401e+00 1.709144e+00 1.688400e+00 1.709143e+00 1.688400e+00 1.709142e+00 1.688399e+00 1.709141e+00 1.688398e+00 1.709140e+00 1.688396e+00 1.709139e+00 1.688395e+00 1.709137e+00 1.688393e+00 1.709135e+00 1.688391e+00 1.709133e+00 1.688388e+00 1.709130e+00 1.688385e+00 1.709127e+00 1.688381e+00 1.709123e+00 1.688376e+00 1.709117e+00 1.688371e+00 1.709111e+00 1.688364e+00 1.709104e+00 1.688355e+00 1.709095e+00 1.688345e+00 1.709084e+00 1.688333e+00 1.709071e+00 1.688318e+00 1.709054e+00 1.688300e+00 1.709035e+00 1.688277e+00 1.709011e+00 1.688250e+00 1.708982e+00 1.688218e+00 1.708946e+00 1.688178e+00 1.708903e+00 1.688129e+00 1.708850e+00 1.688069e+00 1.708786e+00 1.687997e+00 1.708706e+00 1.687907e+00 1.708608e+00 1.687797e+00 1.708487e+00 1.687661e+00 1.708338e+00 1.687492e+00 1.708151e+00 1.687283e+00 1.707916e+00 1.687020e+00 1.707621e+00 1.686688e+00 1.707244e+00 1.686266e+00 1.706760e+00 1.685725e+00 1.706130e+00 1.685024e+00 1.705301e+00 1.684103e+00 1.704196e+00 1.682881e+00 1.702703e+00 1.681247e+00 1.700678e+00 1.679072e+00 1.697970e+00 1.676304e+00 1.694627e+00 1.673371e+00 1.691718e+00 1.672613e+00 1.694003e+00 1.681945e+00 1.715015e+00 1.714721e+00 1.761852e+00 1.719012e+00 
1.763098e+00 1.739007e+00 1.762996e+00 1.741379e+00 1.658157e+00 1.627205e+00 1.572482e+00 1.564824e+00 1.546445e+00 1.554481e+00 1.556069e+00 1.569080e+00 1.579261e+00 1.591645e+00 1.604904e+00 1.614636e+00 1.628722e+00 1.635516e+00 1.649700e+00 1.653956e+00 1.668120e+00 1.670395e+00 1.684605e+00 1.685401e+00 1.699730e+00 1.699424e+00 1.713896e+00 1.712737e+00 1.727311e+00 1.725435e+00 1.740007e+00 1.737450e+00 1.751865e+00 1.748587e+00 1.762650e+00 1.758561e+00 1.772064e+00 1.767045e+00 1.779794e+00 1.773735e+00 1.785573e+00 1.778392e+00 1.789224e+00 1.780886e+00 1.790682e+00 1.781204e+00 1.789996e+00 1.779444e+00 1.787318e+00 1.775798e+00 1.782879e+00 1.770528e+00 1.776966e+00 1.763948e+00 1.769909e+00 1.756397e+00 1.762054e+00 1.748228e+00 1.753745e+00 1.739776e+00 1.745303e+00 1.731342e+00 1.737006e+00 1.723180e+00 1.729079e+00 1.715482e+00 1.721683e+00 1.708379e+00 1.714923e+00 1.701949e+00 1.708851e+00 1.696218e+00 1.703477e+00 1.691180e+00 1.698779e+00 1.686800e+00 1.694714e+00 1.683029e+00 1.691228e+00 1.679808e+00 1.688260e+00 1.677074e+00 1.685748e+00 1.674766e+00 1.683633e+00 1.672828e+00 1.681859e+00 1.671205e+00 1.680377e+00 1.669851e+00 1.679142e+00 1.668724e+00 1.678115e+00 1.667788e+00 1.677263e+00 1.667012e+00 1.676557e+00 1.666370e+00 1.675973e+00 1.665838e+00 1.675490e+00 1.665400e+00 1.675092e+00 1.665037e+00 1.674763e+00 1.664739e+00 1.674492e+00 1.664492e+00 1.674268e+00 1.664289e+00 1.674084e+00 1.664122e+00 1.673932e+00 1.663985e+00 1.673808e+00 1.663871e+00 1.673705e+00 1.663778e+00 1.673620e+00 1.663701e+00 1.673551e+00 1.663638e+00 1.673493e+00 1.663586e+00 1.673446e+00 1.663544e+00 1.673408e+00 1.663508e+00 1.673376e+00 1.663480e+00 1.673350e+00 1.663456e+00 1.673328e+00 1.663436e+00 1.673310e+00 1.663420e+00 1.673296e+00 1.663407e+00 1.673284e+00 1.663396e+00 1.673274e+00 1.663387e+00 1.673266e+00 1.663380e+00 1.673259e+00 1.663374e+00 1.673254e+00 1.663369e+00 1.673249e+00 1.663365e+00 1.673245e+00 1.663361e+00 1.673242e+00 1.663359e+00 1.673240e+00 1.663356e+00 1.673238e+00 1.663354e+00 1.673236e+00 1.663353e+00 1.673235e+00 1.663352e+00 1.673234e+00 1.663351e+00 1.673233e+00 1.663350e+00 1.673232e+00 1.663349e+00 1.673231e+00 1.663348e+00 1.673231e+00 1.663348e+00 1.673230e+00 1.663348e+00 1.673230e+00 1.663347e+00 1.673230e+00 1.663347e+00 1.673229e+00 1.663347e+00 1.673229e+00 1.663347e+00 1.673229e+00 1.663346e+00 1.673229e+00 1.663346e+00 1.673229e+00 1.663346e+00 1.673229e+00 1.663346e+00 1.673229e+00 1.663346e+00 1.673229e+00 1.663346e+00 1.673229e+00 1.663346e+00 1.673228e+00 1.663346e+00 1.673228e+00 1.663346e+00 1.673228e+00 1.663346e+00 1.673228e+00 1.663346e+00 1.673228e+00 1.663346e+00 1.673228e+00 1.663346e+00 1.673228e+00 1.663346e+00 1.673228e+00 1.663346e+00 1.673228e+00 1.663346e+00 1.673228e+00 1.663346e+00 1.673228e+00 1.663346e+00 1.673228e+00 1.663346e+00 1.673228e+00 1.663346e+00 1.673228e+00 1.663346e+00 1.673228e+00 1.663346e+00 1.673228e+00 1.663346e+00 1.673228e+00 1.663346e+00 1.673228e+00 1.663346e+00 1.673228e+00 1.663346e+00 1.673228e+00 1.663346e+00 1.673228e+00 1.663346e+00 1.673228e+00 1.663346e+00 1.673228e+00 1.663346e+00 1.673228e+00 1.663346e+00 1.673228e+00 1.663346e+00 1.673228e+00 1.663346e+00 1.673228e+00 1.663345e+00 1.673228e+00 1.663345e+00 1.673228e+00 1.663345e+00 1.673228e+00 1.663345e+00 1.673228e+00 1.663345e+00 1.673228e+00 1.663345e+00 1.673227e+00 1.663345e+00 1.673227e+00 1.663345e+00 1.673227e+00 1.663344e+00 1.673227e+00 1.663344e+00 1.673226e+00 1.663344e+00 1.673226e+00 1.663343e+00 1.673225e+00 1.663343e+00 1.673225e+00 1.663342e+00 1.673224e+00 1.663341e+00 1.673223e+00 1.663341e+00 1.673222e+00 1.663339e+00 1.673220e+00 1.663338e+00 1.673219e+00 1.663336e+00 1.673216e+00 1.663334e+00 1.673214e+00 1.663332e+00 1.673211e+00 1.663329e+00 1.673207e+00 1.663325e+00 1.673203e+00 1.663321e+00 1.673197e+00 1.663315e+00 1.673190e+00 1.663309e+00 1.673182e+00 1.663301e+00 1.673172e+00 1.663291e+00 1.673160e+00 1.663279e+00 1.673145e+00 1.663265e+00 1.673127e+00 1.663247e+00 1.673106e+00 1.663226e+00 1.673079e+00 1.663201e+00 1.673047e+00 1.663169e+00 1.673008e+00 1.663131e+00 1.672960e+00 1.663085e+00 1.672902e+00 1.663029e+00 1.672832e+00 1.662960e+00 1.672746e+00 1.662877e+00 1.672642e+00 1.662775e+00 1.672515e+00 1.662652e+00 1.672361e+00 1.662502e+00 1.672173e+00 1.662319e+00 1.671944e+00 1.662096e+00 1.671664e+00 1.661823e+00 1.671324e+00 1.661491e+00 1.670908e+00 1.661086e+00 1.670399e+00 1.660590e+00 1.669778e+00 1.659982e+00 1.669016e+00 1.659237e+00 1.668082e+00 1.658322e+00 1.666934e+00 1.657195e+00 1.665519e+00 1.655804e+00 1.663771e+00 1.654081e+00 1.661603e+00 1.651937e+00 1.658905e+00 1.649260e+00 1.655531e+00 1.645898e+00 1.651289e+00 1.641650e+00 1.645922e+00 1.636250e+00 1.639091e+00 1.629345e+00 1.630352e+00 1.620490e+00 1.619159e+00 1.609191e+00 1.604967e+00 1.595153e+00 1.587661e+00 1.579144e+00 1.568978e+00 1.565555e+00 1.556347e+00 1.568470e+00 1.570513e+00 1.619369e+00 1.647940e+00 1.740435e+00 