# vtk DataFile Version 2.0
fMag
ASCII
DATASET UNSTRUCTURED_GRID

FIELD FieldData 1
TIME 1 1 double
0.00000000
POINTS 103 float
7.672969864472919e-01 1.519039152272996e-01 0.000000000000000e+00
7.669578298502862e-01 1.538273678699016e-01 0.000000000000000e+00
7.666186732532805e-01 1.557508205125035e-01 0.000000000000000e+00
7.662795166562747e-01 1.576742731551055e-01 0.000000000000000e+00
7.659403600592690e-01 1.595977257977075e-01 0.000000000000000e+00
7.656012034622632e-01 1.615211784403094e-01 0.000000000000000e+00
7.652620468652576e-01 1.634446310829114e-01 0.000000000000000e+00
7.649228902682519e-01 1.653680837255134e-01 0.000000000000000e+00
7.645837336712461e-01 1.672915363681153e-01 0.000000000000000e+00
7.642445770742404e-01 1.692149890107173e-01 0.000000000000000e+00
7.639054204772346e-01 1.711384416533193e-01 0.000000000000000e+00
7.635662638802290e-01 1.730618942959213e-01 0.000000000000000e+00
7.632271072832232e-01 1.749853469385232e-01 0.000000000000000e+00
7.628879506862175e-01 1.769087995811252e-01 0.000000000000000e+00
7.625487940892117e-01 1.788322522237272e-01 0.000000000000000e+00
7.622096374922060e-01 1.807557048663291e-01 0.000000000000000e+00
7.618704808952004e-01 1.826791575089311e-01 0.000000000000000e+00
7.615313242981946e-01 1.846026101515331e-01 0.000000000000000e+00
7.611921677011889e-01 1.865260627941350e-01 0.000000000000000e+00
7.608530111041831e-01 1.884495154367370e-01 0.000000000000000e+00
7.605138545071775e-01 1.903729680793390e-01 0.000000000000000e+00
7.601746979101717e-01 1.922964207219409e-01 0.000000000000000e+00
7.598355413131660e-01 1.942198733645429e-01 0.000000000000000e+00
7.594963847161602e-01 1.961433260071449e-01 0.000000000000000e+00
7.591572281191545e-01 1.980667786497468e-01 0.000000000000000e+00
7.588180715221489e-01 1.999902312923488e-01 0.000000000000000e+00
7.584789149251431e-01 2.019136839349508e-01 0.000000000000000e+00
7.581397583281374e-01 2.038371365775528e-01 0.000000000000000e+00
7.578006017311316e-01 2.057605892201547e-01 0.000000000000000e+00
7.574614451341259e-01 2.076840418627567e-01 0.000000000000000e+00
7.571222885371202e-01 2.096074945053586e-01 0.000000000000000e+00
7.567831319401145e-01 2.115309471479606e-01 0.000000000000000e+00
7.564439753431087e-01 2.134543997905626e-01 0.000000000000000e+00
7.561048187461030e-01 2.153778524331646e-01 0.000000000000000e+00
7.557656621490974e-01 2.173013050757665e-01 0.000000000000000e+00
7.554265055520916e-01 2.192247577183685e-01 0.000000000000000e+00
7.550873489550859e-01 2.211482103609705e-01 0.000000000000000e+00
7.547481923580801e-01 2.230716630035725e-01 0.000000000000000e+00
7.544090357610744e-01 2.249951156461744e-01 0.000000000000000e+00
7.540698791640686e-01 2.269185682887764e-01 0.000000000000000e+00
7.537307225670630e-01 2.288420209313783e-01 0.000000000000000e+00
7.533915659700572e-01 2.307654735739803e-01 0.000000000000000e+00
7.530524093730515e-01 2.326889262165823e-01 0.000000000000000e+00
7.527132527760458e-01 2.346123788591843e-01 0.000000000000000e+00
7.523740961790401e-01 2.365358315017862e-01 0.000000000000000e+00
7.520349395820344e-01 2.384592841443882e-01 0.000000000000000e+00
7.516957829850286e-01 2.403827367869902e-01 0.000000000000000e+00
7.513566263880229e-01 2.423061894295921e-01 0.000000000000000e+00
7.510174697910171e-01 2.442296420721941e-01 0.000000000000000e+00
7.506783131940115e-01 2.461530947147961e-01 0.000000000000000e+00
7.503391565970057e-01 2.480765473573980e-01 0.000000000000000e+00
7.500000000000000e-01 2.500000000000000e-01 0.000000000000000e+00
7.519234526426020e-01 2.496608434029943e-01 0.000000000000000e+00
7.538469052852039e-01 2.493216868059885e-01 0.000000000000000e+00
7.557703579278059e-01 2.489825302089828e-01 0.000000000000000e+00
7.576938105704079e-01 2.486433736119771e-01 0.000000000000000e+00
7.596172632130098e-01 2.483042170149714e-01 0.000000000000000e+00
7.615407158556118e-01 2.479650604179656e-01 0.000000000000000e+00
7.634641684982137e-01 2.476259038209599e-01 0.000000000000000e+00
7.653876211408157e-01 2.472867472239542e-01 0.000000000000000e+00
7.673110737834177e-01 2.469475906269485e-01 0.000000000000000e+00
7.692345264260196e-01 2.466084340299428e-01 0.000000000000000e+00
7.711579790686216e-01 2.462692774329371e-01 0.000000000000000e+00
7.730814317112237e-01 2.459301208359313e-01 0.000000000000000e+00
7.750048843538256e-01 2.455909642389256e-01 0.000000000000000e+00
7.769283369964276e-01 2.452518076419199e-01 0.000000000000000e+00
7.788517896390296e-01 2.449126510449141e-01 0.000000000000000e+00
7.807752422816315e-01 2.445734944479084e-01 0.000000000000000e+00
7.826986949242335e-01 2.442343378509027e-01 0.000000000000000e+00
7.846221475668355e-01 2.438951812538970e-01 0.000000000000000e+00
7.865456002094374e-01 2.435560246568912e-01 0.000000000000000e+00
7.884690528520394e-01 2.432168680598855e-01 0.000000000000000e+00
7.903925054946414e-01 2.428777114628798e-01 0.000000000000000e+00
7.923159581372433e-01 2.425385548658741e-01 0.000000000000000e+00
7.942394107798453e-01 2.421993982688684e-01 0.000000000000000e+00
7.961628634224472e-01 2.418602416718627e-01 0.000000000000000e+00
7.980863160650492e-01 2.415210850748569e-01 0.000000000000000e+00
8.000097687076512e-01 2.411819284778512e-01 0.000000000000000e+00
8.019332213502531e-01 2.408427718808455e-01 0.000000000000000e+00
8.038566739928551e-01 2.405036152838397e-01 0.000000000000000e+00
8.057801266354571e-01 2.401644586868340e-01 0.000000000000000e+00
8.077035792780590e-01 2.398253020898283e-01 0.000000000000000e+00
8.096270319206610e-01 2.394861454928226e-01 0.000000000000000e+00
8.115504845632630e-01 2.391469888958169e-01 0.000000000000000e+00
8.134739372058650e-01 2.388078322988111e-01 0.000000000000000e+00
8.153973898484670e-01 2.384686757018054e-01 0.000000000000000e+00
8.173208424910690e-01 2.381295191047997e-01 0.000000000000000e+00
8.192442951336709e-01 2.377903625077940e-01 0.000000000000000e+00
8.211677477762729e-01 2.374512059107882e-01 0.000000000000000e+00
8.230912004188748e-01 2.371120493137825e-01 0.000000000000000e+00
8.250146530614768e-01 2.367728927167768e-01 0.000000000000000e+00
8.269381057040788e-01 2.364337361197711e-01 0.000000000000000e+00
8.288615583466807e-01 2.360945795227654e-01 0.000000000000000e+00
8.307850109892827e-01 2.357554229257596e-01 0.000000000000000e+00
8.327084636318847e-01 2.354162663287539e-01 0.000000000000000e+00
8.346319162744866e-01 2.350771097317482e-01 0.000000000000000e+00
8.365553689170886e-01 2.347379531347424e-01 0.000000000000000e+00
8.384788215596906e-01 2.343987965377367e-01 0.000000000000000e+00
8.404022742022925e-01 2.340596399407310e-01 0.000000000000000e+00
8.423257268448945e-01 2.337204833437253e-01 0.000000000000000e+00
8.442491794874964e-01 2.333813267467196e-01 0.000000000000000e+00
8.461726321300984e-01 2.330421701497138e-01 0.000000000000000e+00
8.480960847727004e-01 2.327030135527081e-01 0.000000000000000e+00

POINT_DATA   103
SCALARS fMag double
LOOKUP_TABLE default

0 
0 
0 
0 
0 
0 
0 
0 
0 
0 
0 
0 
0 
0 
0 
0 
0 
0 
0 
0 
0 
0 
0 
0 
0 
0 
0 
0 
0 
0 
0 
0 
0 
0 
0 
0 
0 
0 
0 
0 
0 
0 
0 
0 
0 
0 
0 
0 
0 
0 
0 
0 
0 
0 
0 
0 
0 
0 
0 
0 
0 
0 
0 
0 
0 
0 
0 
0 
0 
0 
0 
0 
0 
0 
0 
0 
0 
0 
0 
0 
0 
0 
0 
0 
0 
0 
0 
0 
0 
0 
0 
0 
0 
0 
0 
0 
0 
0 
0 
0 
0 
0 
0 
