# vtk DataFile Version 2.0
Comment goes here
ASCII

DATASET STRUCTURED_POINTS
DIMENSIONS    64   64   1

ORIGIN    0.000   0.000   0.000
SPACING   0.0781250.078125   1.000

POINT_DATA   4096
SCALARS Omega double
LOOKUP_TABLE default

2.663686e-14 1.489507e-14 1.681273e-14 2.515908e-14 3.686233e-14 3.196198e-14 2.522118e-14 1.798837e-14 5.336871e-15 1.664735e-15 9.930722e-15 4.837758e-15 -2.210761e-14 3.197898e-15 -9.113573e-15 -1.344871e-14 -1.079039e-14 -1.510646e-14 -1.916832e-14 7.752055e-15 -8.586078e-15 -1.675893e-14 -2.129004e-14 -2.719053e-14 1.457730e-14 -1.035072e-14 3.257210e-15 -2.925328e-16 1.158948e-14 1.524714e-14 3.316064e-14 2.560984e-14 1.251101e-14 1.610522e-14 4.127193e-14 1.667555e-14 5.272378e-15 1.960126e-15 -6.949100e-16 -1.567188e-14 -1.759172e-14 -1.886819e-14 4.133990e-16 -1.888769e-14 7.039994e-15 4.968585e-15 -1.461804e-14 -1.015742e-14 -1.963002e-14 -5.895556e-15 -1.802251e-14 -2.465224e-14 -2.363765e-14 -4.914714e-14 -1.052446e-14 -3.116076e-15 -7.183324e-16 1.179889e-14 1.622327e-14 3.078330e-14 3.446815e-14 2.682071e-14 1.616755e-14 1.618253e-14 
-2.289424e-04 -1.274466e-04 -2.978123e-05 6.584655e-05 1.625765e-04 2.598923e-04 3.613051e-04 4.624728e-04 5.676150e-04 6.680622e-04 7.695676e-04 8.598460e-04 9.465095e-04 1.015685e-03 1.075335e-03 1.112772e-03 1.132612e-03 1.125367e-03 1.088591e-03 1.015941e-03 8.984168e-04 7.314994e-04 5.067402e-04 2.216422e-04 -1.216342e-04 -5.202198e-04 -9.568830e-04 -1.419158e-03 -1.881897e-03 -2.322093e-03 -2.721615e-03 -3.050729e-03 -3.309561e-03 -3.468479e-03 -3.546081e-03 -3.520865e-03 -3.422616e-03 -3.244592e-03 -3.020080e-03 -2.757062e-03 -2.486548e-03 -2.221861e-03 -1.987403e-03 -1.788917e-03 -1.642090e-03 -1.538265e-03 -1.484912e-03 -1.462074e-03 -1.470564e-03 -1.488163e-03 -1.510561e-03 -1.522043e-03 -1.515504e-03 -1.486360e-03 -1.428225e-03 -1.346999e-03 -1.239869e-03 -1.118363e-03 -9.833464e-04 -8.458263e-04 -7.080586e-04 -5.764457e-04 -4.522066e-04 -3.366302e-04 
-4.984061e-04 -2.696995e-04 -4.987009e-05 1.661242e-04 3.851050e-04 6.067967e-04 8.379164e-04 1.069604e-03 1.309254e-03 1.538557e-03 1.767967e-03 1.971449e-03 2.164046e-03 2.316369e-03 2.445255e-03 2.523757e-03 2.562039e-03 2.539677e-03 2.450920e-03 2.281610e-03 2.010462e-03 1.627075e-03 1.111036e-03 4.572120e-04 -3.297029e-04 -1.241178e-03 -2.236163e-03 -3.283662e-03 -4.323435e-03 -5.302548e-03 -6.178005e-03 -6.885750e-03 -7.426622e-03 -7.739694e-03 -7.868187e-03 -7.768911e-03 -7.508803e-03 -7.075602e-03 -6.543015e-03 -5.930699e-03 -5.307620e-03 -4.705469e-03 -4.178645e-03 -3.741646e-03 -3.428201e-03 -3.219756e-03 -3.129758e-03 -3.113745e-03 -3.168894e-03 -3.245679e-03 -3.329600e-03 -3.386066e-03 -3.395360e-03 -3.348244e-03 -3.228643e-03 -3.051166e-03 -2.810008e-03 -2.532462e-03 -2.222407e-03 -1.905547e-03 -1.588927e-03 -1.287107e-03 -1.003876e-03 -7.415269e-04 
-8.684839e-04 -4.500021e-04 -4.761918e-05 3.486219e-04 7.520018e-04 1.163148e-03 1.592374e-03 2.025465e-03 2.470776e-03 2.898403e-03 3.319764e-03 3.692694e-03 4.036212e-03 4.303195e-03 4.517493e-03 4.636197e-03 4.674221e-03 4.598902e-03 4.399101e-03 4.051412e-03 3.517668e-03 2.780367e-03 1.803230e-03 5.803043e-04 -8.779971e-04 -2.548519e-03 -4.353547e-03 -6.227086e-03 -8.058671e-03 -9.748040e-03 -1.122270e-02 -1.237381e-02 -1.321326e-02 -1.364575e-02 -1.375538e-02 -1.347691e-02 -1.292639e-02 -1.208803e-02 -1.108388e-02 -9.953022e-03 -8.811810e-03 -7.721666e-03 -6.778780e-03 -6.012656e-03 -5.485235e-03 -5.162647e-03 -5.069553e-03 -5.121234e-03 -5.310956e-03 -5.542501e-03 -5.786575e-03 -5.973674e-03 -6.065276e-03 -6.039439e-03 -5.866561e-03 -5.571131e-03 -5.145523e-03 -4.640592e-03 -4.068311e-03 -3.478391e-03 -2.887728e-03 -2.325387e-03 -1.799500e-03 -1.315336e-03 
-1.395667e-03 -6.697617e-04 2.679504e-05 7.146395e-04 1.416367e-03 2.136339e-03 2.887307e-03 3.648690e-03 4.424937e-03 5.170531e-03 5.892268e-03 6.526281e-03 7.093192e-03 7.522336e-03 7.847107e-03 8.003495e-03 8.014929e-03 7.832126e-03 7.435994e-03 6.789537e-03 5.825528e-03 4.515798e-03 2.795297e-03 6.597661e-04 -1.870682e-03 -4.742080e-03 -7.809807e-03 -1.094366e-02 -1.394159e-02 -1.662932e-02 -1.888428e-02 -2.054542e-02 -2.165164e-02 -2.208162e-02 -2.199486e-02 -2.131068e-02 -2.022183e-02 -1.870967e-02 -1.696206e-02 -1.504354e-02 -1.313527e-02 -1.134325e-02 -9.823540e-03 -8.632234e-03 -7.869305e-03 -7.482123e-03 -7.502298e-03 -7.787488e-03 -8.310266e-03 -8.906541e-03 -9.508603e-03 -9.997115e-03 -1.029204e-02 -1.035580e-02 -1.013193e-02 -9.664354e-03 -8.944254e-03 -8.063212e-03 -7.052376e-03 -6.001874e-03 -4.950891e-03 -3.951805e-03 -3.023490e-03 -2.174091e-03 
-2.204965e-03 -9.554359e-04 2.414174e-04 1.423261e-03 2.630472e-03 3.873687e-03 5.168752e-03 6.485933e-03 7.817976e-03 9.097351e-03 1.031336e-02 1.137316e-02 1.228686e-02 1.295425e-02 1.341194e-02 1.357122e-02 1.346278e-02 1.301909e-02 1.220899e-02 1.098027e-02 9.224404e-03 6.902198e-03 3.910028e-03 2.566017e-04 -4.012686e-03 -8.776016e-03 -1.377216e-02 -1.874744e-02 -2.335588e-02 -2.730117e-02 -3.040932e-02 -3.246295e-02 -3.359087e-02 -3.367238e-02 -3.301786e-02 -3.154580e-02 -2.956077e-02 -2.703335e-02 -2.421857e-02 -2.120389e-02 -1.824148e-02 -1.549912e-02 -1.321825e-02 -1.149745e-02 -1.050432e-02 -1.015640e-02 -1.050840e-02 -1.131965e-02 -1.253907e-02 -1.388105e-02 -1.522088e-02 -1.634272e-02 -1.710107e-02 -1.741784e-02 -1.719500e-02 -1.649897e-02 -1.532445e-02 -1.382870e-02 -1.208229e-02 -1.024677e-02 -8.404456e-03 -6.652481e-03 -5.029304e-03 -3.552181e-03 
-3.426081e-03 -1.282493e-03 7.637594e-04 2.782798e-03 4.842948e-03 6.968443e-03 9.175713e-03 1.142238e-02 1.367421e-02 1.583013e-02 1.784153e-02 1.957183e-02 2.100719e-02 2.200405e-02 2.260449e-02 2.268532e-02 2.229602e-02 2.134553e-02 1.978962e-02 1.755747e-02 1.447250e-02 1.048461e-02 5.422729e-03 -6.707700e-04 -7.703492e-03 -1.542073e-02 -2.334571e-02 -3.100196e-02 -3.778134e-02 -4.320103e-02 -4.701279e-02 -4.897825e-02 -4.942982e-02 -4.834415e-02 -4.633136e-02 -4.335983e-02 -3.991270e-02 -3.592269e-02 -3.170219e-02 -2.732467e-02 -2.310470e-02 -1.927707e-02 -1.619263e-02 -1.401743e-02 -1.301513e-02 -1.307316e-02 -1.426977e-02 -1.622877e-02 -1.884016e-02 -2.164259e-02 -2.439443e-02 -2.673831e-02 -2.840062e-02 -2.924566e-02 -2.909609e-02 -2.805907e-02 -2.613725e-02 -2.359901e-02 -2.059211e-02 -1.739920e-02 -1.418782e-02 -1.113055e-02 -8.307081e-03 -5.747893e-03 
-5.336821e-03 -1.667851e-03 1.822957e-03 5.257738e-03 8.755589e-03 1.236289e-02 1.609824e-02 1.989920e-02 2.368184e-02 2.729304e-02 3.060699e-02 3.342268e-02 3.566311e-02 3.712613e-02 3.783864e-02 3.763831e-02 3.659546e-02 3.460174e-02 3.160115e-02 2.751404e-02 2.207380e-02 1.523363e-02 6.737137e-03 -3.289890e-03 -1.464930e-02 -2.682436e-02 -3.895896e-02 -5.016767e-02 -5.942534e-02 -6.595541e-02 -6.948662e-02 -6.985275e-02 -6.788308e-02 -6.385590e-02 -5.898588e-02 -5.338269e-02 -4.779492e-02 -4.203102e-02 -3.636860e-02 -3.074695e-02 -2.546165e-02 -2.078120e-02 -1.718655e-02 -1.493478e-02 -1.446228e-02 -1.561855e-02 -1.856303e-02 -2.270953e-02 -2.789207e-02 -3.335824e-02 -3.870021e-02 -4.330799e-02 -4.670758e-02 -4.863887e-02 -4.879662e-02 -4.733049e-02 -4.426196e-02 -4.003444e-02 -3.493550e-02 -2.945544e-02 -2.391564e-02 -1.862709e-02 -1.374404e-02 -9.329313e-03 
-8.249952e-03 -2.032915e-03 3.860492e-03 9.642718e-03 1.551495e-02 2.156522e-02 2.781176e-02 3.416297e-02 4.044331e-02 4.641570e-02 5.181103e-02 5.632415e-02 5.975914e-02 6.182244e-02 6.251675e-02 6.162642e-02 5.928045e-02 5.536321e-02 4.983096e-02 4.261866e-02 3.332545e-02 2.194065e-02 8.064386e-03 -8.005402e-03 -2.588608e-02 -4.458136e-02 -6.256279e-02 -7.823307e-02 -8.983598e-02 -9.616728e-02 -9.697999e-02 -9.244393e-02 -8.440357e-02 -7.391386e-02 -6.335884e-02 -5.320694e-02 -4.462110e-02 -3.709998e-02 -3.067408e-02 -2.485631e-02 -1.971066e-02 -1.541551e-02 -1.255162e-02 -1.149773e-02 -1.294111e-02 -1.672820e-02 -2.315300e-02 -3.137638e-02 -4.113911e-02 -5.129488e-02 -6.114713e-02 -6.972586e-02 -7.620268e-02 -8.013279e-02 -8.097850e-02 -7.895327e-02 -7.410366e-02 -6.714939e-02 -5.862160e-02 -4.934914e-02 -3.992910e-02 -3.090366e-02 -2.256774e-02 -1.503959e-02 
-1.275043e-02 -2.356278e-03 7.465937e-03 1.707156e-02 2.680342e-02 3.681873e-02 4.714350e-02 5.763987e-02 6.798083e-02 7.779208e-02 8.654716e-02 9.377775e-02 9.904619e-02 1.019292e-01 1.023353e-01 9.999643e-02 9.512162e-02 8.764087e-02 7.757381e-02 6.494683e-02 4.920584e-02 3.045698e-02 8.122685e-03 -1.716070e-02 -4.465535e-02 -7.249683e-02 -9.800856e-02 -1.183470e-01 -1.306051e-01 -1.329338e-01 -1.253950e-01 -1.089981e-01 -8.769430e-02 -6.417156e-02 -4.304745e-02 -2.549348e-02 -1.329269e-02 -5.206027e-03 -5.146753e-04 2.338788e-03 4.013329e-03 4.749572e-03 3.958432e-03 1.147313e-03 -4.819290e-03 -1.382963e-02 -2.653279e-02 -4.176094e-02 -5.924263e-02 -7.724369e-02 -9.469280e-02 -1.100319e-01 -1.218948e-01 -1.294866e-01 -1.318895e-01 -1.293572e-01 -1.219661e-01 -1.108454e-01 -9.692589e-02 -8.158569e-02 -6.588695e-02 -5.077079e-02 -3.677656e-02 -2.413674e-02 
-1.949622e-02 -2.447287e-03 1.362276e-02 2.930201e-02 4.516217e-02 6.148368e-02 7.830764e-02 9.542806e-02 1.122594e-01 1.281999e-01 1.422721e-01 1.537430e-01 1.617462e-01 1.656577e-01 1.652237e-01 1.601079e-01 1.507108e-01 1.370943e-01 1.194850e-01 9.815695e-02 7.235817e-02 4.247369e-02 7.613170e-03 -3.097164e-02 -7.198558e-02 -1.120788e-01 -1.466526e-01 -1.707901e-01 -1.796562e-01 -1.705100e-01 -1.440773e-01 -1.032300e-01 -5.581485e-02 -7.789848e-03 3.217256e-02 6.152803e-02 7.754141e-02 8.296794e-02 8.021821e-02 7.313523e-02 6.407233e-02 5.435389e-02 4.369029e-02 3.150385e-02 1.600183e-02 -2.928371e-03 -2.658197e-02 -5.352353e-02 -8.354843e-02 -1.142173e-01 -1.438919e-01 -1.702270e-01 -1.909735e-01 -2.048285e-01 -2.102108e-01 -2.074023e-01 -1.964801e-01 -1.791644e-01 -1.570148e-01 -1.322537e-01 -1.067106e-01 -8.196835e-02 -5.899044e-02 -3.820907e-02 
-2.955548e-02 -2.179632e-03 2.358658e-02 4.869017e-02 7.407914e-02 1.002369e-01 1.272504e-01 1.547994e-01 1.818847e-01 2.075236e-01 2.299888e-01 2.481546e-01 2.604021e-01 2.658556e-01 2.638597e-01 2.540182e-01 2.369571e-01 2.130603e-01 1.830027e-01 1.476363e-01 1.060591e-01 5.923921e-02 5.864894e-03 -5.174618e-02 -1.113607e-01 -1.671268e-01 -2.113168e-01 -2.355700e-01 -2.321163e-01 -1.969308e-01 -1.324247e-01 -4.500404e-02 5.030584e-02 1.417126e-01 2.133772e-01 2.604899e-01 2.788656e-01 2.742921e-01 2.525484e-01 2.220010e-01 1.884129e-01 1.555043e-01 1.237995e-01 9.282879e-02 5.964282e-02 2.366321e-02 -1.779723e-02 -6.312056e-02 -1.125873e-01 -1.628344e-01 -2.115875e-01 -2.553223e-01 -2.905007e-01 -3.149540e-01 -3.260307e-01 -3.239178e-01 -3.086175e-01 -2.826527e-01 -2.485189e-01 -2.097169e-01 -1.692792e-01 -1.298240e-01 -9.300954e-02 -5.963424e-02 
-4.402745e-02 -1.130387e-03 3.923430e-02 7.856473e-02 1.183986e-01 1.595513e-01 2.021844e-01 2.457776e-01 2.886396e-01 3.291545e-01 3.643857e-01 3.926844e-01 4.112667e-01 4.190018e-01 4.145406e-01 3.973439e-01 3.683840e-01 3.285490e-01 2.794122e-01 2.229904e-01 1.582558e-01 8.735262e-02 8.173246e-03 -7.515673e-02 -1.590788e-01 -2.336975e-01 -2.863719e-01 -3.033509e-01 -2.722835e-01 -1.875584e-01 -5.450490e-02 1.140780e-01 2.911803e-01 4.549836e-01 5.776640e-01 6.507177e-01 6.677479e-01 6.400015e-01 5.793223e-01 5.021386e-01 4.204660e-01 3.425297e-01 2.707648e-01 2.051126e-01 1.409597e-01 7.669102e-02 7.217247e-03 -6.613015e-02 -1.446628e-01 -2.241199e-01 -3.013767e-01 -3.714711e-01 -4.288666e-01 -4.702396e-01 -4.911657e-01 -4.916100e-01 -4.713010e-01 -4.337936e-01 -3.829108e-01 -3.239758e-01 -2.618458e-01 -2.007119e-01 -1.433432e-01 -9.115142e-02 
-6.445363e-02 1.063228e-03 6.277964e-02 1.230019e-01 1.841656e-01 2.475742e-01 3.134816e-01 3.809468e-01 4.471445e-01 5.094116e-01 5.630576e-01 6.060001e-01 6.339283e-01 6.458759e-01 6.390898e-01 6.126962e-01 5.674650e-01 5.048276e-01 4.277351e-01 3.403335e-01 2.417769e-01 1.364287e-01 2.105605e-02 -9.723885e-02 -2.128533e-01 -3.094378e-01 -3.667855e-01 -3.627673e-01 -2.785909e-01 -1.066278e-01 1.419252e-01 4.438661e-01 7.523854e-01 1.030191e+00 1.230131e+00 1.338697e+00 1.346053e+00 1.273080e+00 1.141567e+00 9.815748e-01 8.154163e-01 6.592717e-01 5.188902e-01 3.954136e-01 2.814073e-01 1.736333e-01 6.257912e-02 -5.122856e-02 -1.714417e-01 -2.927908e-01 -4.113883e-01 -5.202849e-01 -6.111510e-01 -6.789322e-01 -7.164794e-01 -7.232320e-01 -6.983022e-01 -6.464917e-01 -5.733974e-01 -4.868734e-01 -3.944038e-01 -3.025241e-01 -2.156902e-01 -1.363289e-01 
-9.211662e-02 5.220895e-03 9.712676e-02 1.870384e-01 2.786669e-01 3.739361e-01 4.730660e-01 5.741801e-01 6.725196e-01 7.637441e-01 8.408888e-01 9.021969e-01 9.421005e-01 9.612419e-01 9.546946e-01 9.204691e-01 8.577624e-01 7.674889e-01 6.542001e-01 5.255670e-01 3.810961e-01 2.294742e-01 6.548764e-02 -9.863801e-02 -2.544953e-01 -3.756158e-01 -4.307124e-01 -3.856369e-01 -2.128396e-01 9.679516e-02 5.232121e-01 1.027048e+00 1.532265e+00 1.978618e+00 2.289474e+00 2.444820e+00 2.429731e+00 2.280638e+00 2.034611e+00 1.742322e+00 1.441714e+00 1.161133e+00 9.120590e-01 6.979140e-01 5.075185e-01 3.350346e-01 1.640871e-01 -6.713230e-03 -1.848875e-01 -3.644435e-01 -5.404775e-01 -7.038771e-01 -8.421887e-01 -9.485402e-01 -1.011622e+00 -1.030194e+00 -1.002165e+00 -9.336944e-01 -8.325862e-01 -7.099474e-01 -5.768591e-01 -4.431542e-01 -3.157411e-01 -1.986295e-01 
-1.285331e-01 1.198653e-02 1.450952e-01 2.756974e-01 4.091288e-01 5.478522e-01 6.915151e-01 8.361191e-01 9.735938e-01 1.097008e+00 1.197217e+00 1.275399e+00 1.327172e+00 1.359341e+00 1.363552e+00 1.334903e+00 1.265488e+00 1.151841e+00 9.988858e-01 8.192627e-01 6.136512e-01 3.986252e-01 1.665797e-01 -6.155605e-02 -2.729055e-01 -4.252870e-01 -4.713369e-01 -3.598384e-01 -5.289559e-02 4.595335e-01 1.141574e+00 1.931640e+00 2.711245e+00 3.390459e+00 3.849510e+00 4.062287e+00 4.006128e+00 3.742365e+00 3.329371e+00 2.847093e+00 2.353891e+00 1.895524e+00 1.490952e+00 1.148077e+00 8.498152e-01 5.877259e-01 3.346713e-01 8.698077e-02 -1.693361e-01 -4.272198e-01 -6.809403e-01 -9.184460e-01 -1.121740e+00 -1.281938e+00 -1.381958e+00 -1.419945e+00 -1.391972e+00 -1.305589e+00 -1.171088e+00 -1.003504e+00 -8.184929e-01 -6.303264e-01 -4.492825e-01 -2.817378e-01 
-1.743518e-01 2.239989e-02 2.094346e-01 3.932935e-01 5.810216e-01 7.749108e-01 9.725748e-01 1.165447e+00 1.339865e+00 1.485116e+00 1.591539e+00 1.669467e+00 1.723128e+00 1.776202e+00 1.816211e+00 1.830394e+00 1.792296e+00 1.683527e+00 1.504612e+00 1.274699e+00 9.950859e-01 6.971485e-01 3.696443e-01 4.926600e-02 -2.440949e-01 -4.434072e-01 -4.793646e-01 -2.791894e-01 2.043352e-01 9.765687e-01 1.982701e+00 3.134103e+00 4.261796e+00 5.238493e+00 5.882950e+00 6.164008e+00 6.049492e+00 5.638186e+00 5.017764e+00 4.301678e+00 3.570301e+00 2.888296e+00 2.284472e+00 1.773761e+00 1.332649e+00 9.511440e-01 5.880923e-01 2.376944e-01 -1.225943e-01 -4.840139e-01 -8.388912e-01 -1.171922e+00 -1.456977e+00 -1.685127e+00 -1.831484e+00 -1.895198e+00 -1.870211e+00 -1.765296e+00 -1.593024e+00 -1.372439e+00 -1.124389e+00 -8.686948e-01 -6.199494e-01 -3.879184e-01 
-2.301306e-01 3.664741e-02 2.909796e-01 5.408124e-01 7.941922e-01 1.051329e+00 1.304537e+00 1.536345e+00 1.723796e+00 1.851174e+00 1.912926e+00 1.941513e+00 1.967774e+00 2.057186e+00 2.192417e+00 2.341001e+00 2.427095e+00 2.395129e+00 2.233051e+00 1.966637e+00 1.598590e+00 1.184998e+00 7.109309e-01 2.397854e-01 -1.962974e-01 -4.921820e-01 -5.485433e-01 -2.661516e-01 4.066439e-01 1.467152e+00 2.830272e+00 4.384426e+00 5.903669e+00 7.223485e+00 8.078496e+00 8.436333e+00 8.253934e+00 7.688692e+00 6.866300e+00 5.929951e+00 4.970461e+00 4.069183e+00 3.260610e+00 2.569565e+00 1.962682e+00 1.435820e+00 9.315628e-01 4.476796e-01 -4.882582e-02 -5.444952e-01 -1.029380e+00 -1.482617e+00 -1.866172e+00 -2.172929e+00 -2.368070e+00 -2.456729e+00 -2.433030e+00 -2.307525e+00 -2.094005e+00 -1.814323e+00 -1.493967e+00 -1.158959e+00 -8.289553e-01 -5.182710e-01 
-2.948655e-01 5.464592e-02 3.882347e-01 7.140230e-01 1.038973e+00 1.357115e+00 1.649698e+00 1.883396e+00 2.021153e+00 2.041331e+00 1.952766e+00 1.832403e+00 1.773760e+00 1.933327e+00 2.286959e+00 2.748737e+00 3.134630e+00 3.314410e+00 3.251735e+00 2.984978e+00 2.514071e+00 1.936828e+00 1.230129e+00 5.019470e-01 -1.950484e-01 -6.939443e-01 -8.562196e-01 -5.556458e-01 2.398366e-01 1.489425e+00 3.098933e+00 4.966828e+00 6.842925e+00 8.515875e+00 9.588391e+00 1.002404e+01 9.783701e+00 9.123516e+00 8.230504e+00 7.234479e+00 6.200683e+00 5.205301e+00 4.283281e+00 3.463135e+00 2.699880e+00 2.011661e+00 1.331768e+00 6.753613e-01 8.621737e-04 -6.682425e-01 -1.317097e+00 -1.916615e+00 -2.407933e+00 -2.793078e+00 -3.020090e+00 -3.111923e+00 -3.072053e+00 -2.916028e+00 -2.656589e+00 -2.314500e+00 -1.916453e+00 -1.494100e+00 -1.072063e+00 -6.705257e-01 
-3.674053e-01 7.411146e-02 4.947133e-01 9.002107e-01 1.292114e+00 1.651785e+00 1.940304e+00 2.099913e+00 2.073129e+00 1.833935e+00 1.420659e+00 9.876133e-01 7.518716e-01 1.064862e+00 1.899908e+00 3.031854e+00 4.013021e+00 4.593151e+00 4.732367e+00 4.488678e+00 3.865968e+00 3.024074e+00 1.925757e+00 7.413208e-01 -4.458227e-01 -1.381879e+00 -1.881457e+00 -1.801521e+00 -1.157458e+00 -1.632093e-02 1.529296e+00 3.468415e+00 5.552382e+00 7.526193e+00 8.799591e+00 9.287705e+00 8.992709e+00 8.367473e+00 7.719225e+00 7.061677e+00 6.344427e+00 5.632209e+00 4.933690e+00 4.231071e+00 3.429896e+00 2.611508e+00 1.732232e+00 8.664371e-01 -2.628110e-02 -9.069021e-01 -1.762962e+00 -2.549967e+00 -3.168371e+00 -3.634720e+00 -3.856037e+00 -3.893634e+00 -3.786791e+00 -3.569540e+00 -3.252036e+00 -2.845891e+00 -2.370337e+00 -1.858990e+00 -1.339827e+00 -8.397758e-01 
-4.443839e-01 9.213142e-02 6.002758e-01 1.079051e+00 1.517872e+00 1.875824e+00 2.082266e+00 2.044921e+00 1.681093e+00 9.654487e-01 -1.142491e-02 -9.897669e-01 -1.536494e+00 -8.892623e-01 9.447058e-01 3.350212e+00 5.321834e+00 6.512416e+00 6.943858e+00 6.717470e+00 5.834430e+00 4.558039e+00 2.820156e+00 8.629108e-01 -1.201491e+00 -3.000389e+00 -4.298080e+00 -4.925685e+00 -5.027761e+00 -4.816161e+00 -4.123448e+00 -2.633626e+00 -5.338638e-01 1.841443e+00 3.456168e+00 3.907625e+00 3.424364e+00 2.924146e+00 3.046554e+00 3.407855e+00 3.692457e+00 3.974625e+00 4.276073e+00 4.342896e+00 3.886062e+00 3.096029e+00 2.041051e+00 9.467941e-01 -1.994286e-01 -1.334747e+00 -2.459469e+00 -3.488753e+00 -4.237228e+00 -4.802893e+00 -4.976270e+00 -4.866422e+00 -4.593989e+00 -4.248322e+00 -3.842398e+00 -3.368559e+00 -2.821336e+00 -2.228055e+00 -1.615042e+00 -1.016251e+00 
-5.224600e-01 1.035046e-01 6.900831e-01 1.223838e+00 1.672990e+00 1.963589e+00 1.979206e+00 1.585989e+00 6.727283e-01 -7.659428e-01 -2.577215e+00 -4.404838e+00 -5.495802e+00 -4.136457e+00 -2.484831e-01 4.473724e+00 7.710998e+00 9.475438e+00 1.025732e+01 1.002912e+01 8.719720e+00 6.748952e+00 4.024510e+00 8.353935e-01 -2.731972e+00 -6.262287e+00 -9.538441e+00 -1.236545e+01 -1.492127e+01 -1.712137e+01 -1.825879e+01 -1.762406e+01 -1.571620e+01 -1.231438e+01 -8.980398e+00 -8.241615e+00 -9.025166e+00 -9.598922e+00 -8.321559e+00 -6.388802e+00 -4.547980e+00 -2.411510e+00 3.022634e-01 2.628488e+00 3.531488e+00 3.265667e+00 2.195858e+00 9.074030e-01 -5.021056e-01 -1.950985e+00 -3.502890e+00 -4.912217e+00 -5.702570e+00 -6.331171e+00 -6.430023e+00 -6.088741e+00 -5.522624e+00 -4.941194e+00 -4.389373e+00 -3.836106e+00 -3.227317e+00 -2.568545e+00 -1.875614e+00 -1.187563e+00 
-5.951605e-01 1.050215e-01 7.513913e-01 1.311326e+00 1.722544e+00 1.865158e+00 1.562284e+00 6.297148e-01 -1.068289e+00 -3.484658e+00 -6.411988e+00 -9.495674e+00 -1.132276e+01 -7.719145e+00 3.405951e-01 8.455000e+00 1.218370e+01 1.330694e+01 1.431673e+01 1.438784e+01 1.275799e+01 9.976433e+00 5.971089e+00 9.793889e-01 -5.205202e+00 -1.243109e+01 -2.062767e+01 -2.892669e+01 -3.678701e+01 -4.419046e+01 -4.909080e+01 -5.038111e+01 -5.002202e+01 -4.307068e+01 -3.183975e+01 -2.872715e+01 -2.767781e+01 -2.740604e+01 -2.496161e+01 -2.227381e+01 -1.934207e+01 -1.587090e+01 -9.764174e+00 -3.082897e+00 1.198057e+00 2.698573e+00 2.121893e+00 7.083631e-01 -1.223016e+00 -3.528798e+00 -6.279902e+00 -8.440414e+00 -8.441700e+00 -8.277818e+00 -8.044972e+00 -7.475987e+00 -6.549750e+00 -5.630133e+00 -4.855373e+00 -4.201050e+00 -3.541749e+00 -2.842332e+00 -2.094100e+00 -1.337136e+00 
-6.564363e-01 9.399220e-02 7.737894e-01 1.326257e+00 1.649684e+00 1.566353e+00 8.196029e-01 -8.359163e-01 -3.559961e+00 -7.182959e+00 -1.150007e+01 -1.621877e+01 -1.829852e+01 -6.577838e+00 7.698429e+00 1.987259e+01 2.324118e+01 1.721332e+01 1.711039e+01 1.850802e+01 1.762007e+01 1.458916e+01 9.314569e+00 1.758281e+00 -9.014400e+00 -2.363247e+01 -4.192781e+01 -6.263514e+01 -8.285833e+01 -9.511269e+01 -1.041241e+02 -1.045691e+02 -1.152657e+02 -1.003565e+02 -6.640257e+01 -6.395893e+01 -5.128735e+01 -3.616878e+01 -3.113478e+01 -3.400556e+01 -3.071041e+01 -3.002508e+01 -2.433009e+01 -1.410247e+01 -4.725299e+00 4.360435e-01 1.358692e+00 -1.821106e-01 -3.597951e+00 -8.763495e+00 -1.564207e+01 -2.046007e+01 -1.722525e+01 -1.195243e+01 -9.511745e+00 -8.630040e+00 -7.472310e+00 -6.232056e+00 -5.192603e+00 -4.419788e+00 -3.724148e+00 -3.014610e+00 -2.244932e+00 -1.448975e+00 
-6.971701e-01 7.346106e-02 7.578800e-01 1.273103e+00 1.474415e+00 1.114617e+00 -1.616981e-01 -2.697934e+00 -6.693894e+00 -1.187273e+01 -1.859460e+01 -2.796326e+01 -2.897178e+01 1.008654e+01 1.637836e+01 3.389219e+01 5.590340e+01 2.070882e+01 1.507921e+01 1.861791e+01 2.093127e+01 1.973094e+01 1.411743e+01 3.306205e+00 -1.438135e+01 -3.767063e+01 -6.273112e+01 -1.012472e+02 -1.361031e+02 -1.043337e+02 -9.511924e+01 -6.217076e+01 -7.891844e+01 -1.081248e+02 -1.056761e+02 -1.410592e+02 -1.080495e+02 -2.418718e+01 -7.041618e+00 -2.682584e+01 -6.087653e-01 -5.540933e+00 -1.854050e+01 -2.175619e+01 -1.310705e+01 -4.340428e+00 -9.083951e-01 -2.740481e+00 -1.046242e+01 -2.590992e+01 -4.644903e+01 -5.781624e+01 -4.590285e+01 -2.338926e+01 -1.170321e+01 -9.178631e+00 -7.915630e+00 -6.561308e+00 -5.318202e+00 -4.446539e+00 -3.740061e+00 -3.056252e+00 -2.304829e+00 -1.506815e+00 
-7.108033e-01 4.766154e-02 7.092479e-01 1.168883e+00 1.242486e+00 6.138477e-01 -1.184439e+00 -4.645090e+00 -1.009236e+01 -1.762524e+01 -3.304430e+01 -8.697457e+01 -1.568069e+02 -7.652022e+01 2.616206e+01 1.076979e+02 1.191013e+02 2.115975e+01 1.183864e+01 1.298899e+01 1.851721e+01 2.197321e+01 1.779868e+01 2.575928e+00 -2.420099e+01 -5.052384e+01 -4.963406e+01 1.618945e+00 5.126487e+01 9.937406e+01 1.357781e+01 -6.315010e+01 -1.182082e+02 -2.103693e+02 -2.635285e+02 -2.733451e+02 -2.178989e+02 -8.971634e+01 -2.085627e+01 1.693556e+01 1.107128e+02 1.310694e+02 7.616482e+01 1.550681e+01 -7.237645e+00 -8.318795e+00 -5.133055e+00 -6.469414e+00 -1.573477e+01 -4.489941e+01 -9.358476e+01 -1.211433e+02 -1.073446e+02 -5.412157e+01 -1.888076e+01 -9.797510e+00 -7.711605e+00 -6.418119e+00 -5.137841e+00 -4.243128e+00 -3.573185e+00 -2.954178e+00 -2.262008e+00 -1.500644e+00 
-6.908806e-01 2.409189e-02 6.403964e-01 1.041309e+00 1.019233e+00 2.129260e-01 -1.929490e+00 -6.063666e+00 -1.256768e+01 -2.177442e+01 -4.438843e+01 -1.592406e+02 -3.606696e+02 -3.642522e+02 -1.255710e+02 1.492481e+01 1.290789e+02 1.531770e+02 5.130033e+01 2.311549e+01 1.274442e+01 1.761490e+01 1.625171e+01 -2.632170e+00 -3.152778e+01 -3.513101e+01 9.304032e+01 3.562638e+02 4.075441e+02 1.538917e+02 -1.008608e+02 -2.662342e+02 -3.259821e+02 -3.640005e+02 -3.768622e+02 -2.942311e+02 -2.493942e+02 -2.172614e+02 -1.291339e+02 -2.714363e+01 1.137161e+02 2.692521e+02 2.724292e+02 1.673674e+02 6.130012e+01 1.144894e+01 -3.043419e+00 -5.071614e+00 4.134081e+00 7.996267e+00 -1.687181e+00 -6.725255e+01 -1.519434e+02 -1.021642e+02 -3.617795e+01 -1.246973e+01 -7.296704e+00 -5.790865e+00 -4.604882e+00 -3.791172e+00 -3.222486e+00 -2.709052e+00 -2.113582e+00 -1.425123e+00 
-6.363345e-01 6.809612e-03 5.593995e-01 9.076096e-01 8.443735e-01 1.279314e-02 -2.163510e+00 -6.431194e+00 -1.324172e+01 -2.225467e+01 -3.755849e+01 -1.172422e+02 -3.107603e+02 -4.835618e+02 -3.623013e+02 -3.184481e+02 -1.925070e+01 3.112968e+02 2.071760e+02 1.396233e+02 4.339796e+01 2.337441e+01 1.951968e+01 4.630950e+00 7.385006e+00 7.387885e+01 3.251957e+02 5.983430e+02 3.899547e+02 -1.301521e+02 -2.789929e+02 -2.749973e+02 -2.900394e+02 -2.532781e+02 -1.914095e+02 -9.709989e+01 -8.217907e+01 -1.389266e+02 -1.281267e+02 -1.430902e+02 -1.346215e+02 9.594977e+01 2.998762e+02 3.419598e+02 2.271855e+02 7.748454e+01 2.225942e+01 2.001355e+01 4.409032e+01 9.496945e+01 1.640913e+02 4.345792e+01 -1.455622e+02 -1.281482e+02 -5.295927e+01 -1.569196e+01 -6.806789e+00 -4.823230e+00 -3.794572e+00 -3.138188e+00 -2.724386e+00 -2.345069e+00 -1.871836e+00 -1.284258e+00 
-5.489635e-01 -1.813275e-03 4.707663e-01 7.721484e-01 7.188278e-01 1.550284e-02 -1.860684e+00 -5.571236e+00 -1.170593e+01 -1.943443e+01 -2.750834e+01 -4.322836e+01 -1.061632e+02 -2.344389e+02 -3.104520e+02 -3.942644e+02 -2.179456e+02 1.817921e+02 2.984636e+02 3.184826e+02 2.592818e+02 1.173651e+02 7.548978e+01 1.039824e+02 2.553628e+02 3.966122e+02 4.547290e+02 3.654116e+02 2.472143e+01 -2.316680e+02 -1.778381e+02 -1.015981e+02 -9.869395e+01 -6.408592e+01 -1.008628e+01 3.162256e+01 4.052421e+01 9.613565e+00 -2.417337e+01 -1.159388e+02 -2.098090e+02 -1.069557e+02 1.382097e+02 3.317003e+02 3.806634e+02 1.883606e+02 3.832235e+01 1.144441e+02 1.938607e+02 1.547466e+02 8.479856e+01 -5.488987e+01 -1.483042e+02 -1.141670e+02 -4.704611e+01 -1.340860e+01 -5.380859e+00 -3.630326e+00 -2.853867e+00 -2.385173e+00 -2.140555e+00 -1.900277e+00 -1.557064e+00 -1.087251e+00 
-4.346040e-01 -4.259773e-03 3.716876e-01 6.208145e-01 6.010745e-01 1.032370e-01 -1.271062e+00 -4.011184e+00 -8.705909e+00 -1.488214e+01 -2.071576e+01 -2.303366e+01 -3.049886e+01 -5.127485e+01 -1.064313e+02 -1.683660e+02 -3.814593e+02 -2.053162e+02 1.508288e+02 4.974844e+02 6.201596e+02 2.851348e+02 1.651047e+02 3.162296e+02 5.967010e+02 5.311980e+02 2.357152e+02 -3.591254e+01 -1.686052e+02 -1.223371e+02 -6.553870e+01 -5.498518e+01 -5.064559e+01 -3.190723e+01 -6.145851e+00 1.382135e+01 2.273434e+01 1.571828e+01 -4.896882e+00 -4.164446e+01 -7.795289e+01 -9.160594e+01 1.978263e+01 1.929427e+02 3.696791e+02 2.463583e+02 -1.093488e+01 2.095222e+02 5.140288e+02 2.382751e+02 -1.352259e+02 -1.651221e+02 -1.266483e+02 -7.759406e+01 -2.636726e+01 -7.572898e+00 -3.619936e+00 -2.565619e+00 -1.984774e+00 -1.662099e+00 -1.546853e+00 -1.420372e+00 -1.194749e+00 -8.479402e-01 
-3.002869e-01 -3.052382e-03 2.599273e-01 4.425247e-01 4.501752e-01 1.589834e-01 -6.861646e-01 -2.373303e+00 -5.346741e+00 -9.478082e+00 -1.381455e+01 -1.568362e+01 -1.521978e+01 -1.802734e+01 -2.636239e+01 -4.787159e+01 -3.122293e+02 -4.176088e+02 -3.618383e+02 -1.859076e+00 5.001630e+02 4.650166e+02 2.644525e+02 3.946444e+02 4.349010e+02 7.163052e+01 -1.205312e+02 -1.337173e+02 -8.519198e+01 -5.007432e+01 -5.218479e+01 -5.661098e+01 -5.408334e+01 -4.244410e+01 -2.600780e+01 -1.100875e+01 -2.074310e+00 -2.347727e+00 -1.022510e+01 -2.454232e+01 -3.373417e+01 -3.592199e+01 -3.254916e+01 6.108564e+01 2.489680e+02 2.924707e+02 7.184833e+01 1.647610e+02 3.825666e+02 3.020278e+01 -2.511969e+02 -1.441914e+02 -7.776114e+01 -3.859790e+01 -1.168027e+01 -3.980897e+00 -2.448294e+00 -1.713033e+00 -1.245373e+00 -1.027722e+00 -9.890462e-01 -9.369397e-01 -8.062747e-01 -5.797176e-01 
-1.531799e-01 -1.466501e-03 1.340179e-01 2.310586e-01 2.430406e-01 1.139887e-01 -2.768883e-01 -1.055759e+00 -2.449723e+00 -4.459265e+00 -6.829986e+00 -8.481899e+00 -8.757437e+00 -9.313538e+00 -1.129094e+01 -2.236512e+01 -9.490464e+01 -2.110594e+02 -4.642221e+02 -6.430099e+02 -1.533910e+02 3.295167e+02 2.336073e+02 2.183972e+02 5.212018e+01 -2.316332e+02 -1.934769e+02 -6.892894e+01 -2.173155e+01 -2.506455e+01 -3.250393e+01 -3.594958e+01 -3.380305e+01 -2.747402e+01 -1.914610e+01 -1.131242e+01 -6.050506e+00 -4.403819e+00 -5.531795e+00 -8.725433e+00 -1.055953e+01 -7.262566e-01 -1.656623e+01 3.083991e+01 1.960606e+02 3.581627e+02 2.468383e+02 4.479571e+01 -1.884091e+02 -3.699948e+02 -2.498154e+02 -1.102768e+02 -4.558624e+01 -1.464629e+01 -3.937186e+00 -1.783531e+00 -1.289924e+00 -8.696329e-01 -5.920913e-01 -4.825536e-01 -4.770973e-01 -4.631321e-01 -4.050066e-01 -2.938036e-01 
8.741738e-14 7.037128e-14 1.066508e-13 1.213792e-13 1.470638e-13 1.981404e-13 1.499785e-13 1.176099e-13 -1.337576e-14 -4.587616e-13 -1.007732e-12 -2.232568e-12 -4.100360e-12 -7.166006e-12 -1.064692e-11 -1.775942e-11 -2.636647e-11 -3.069993e-11 2.655628e-11 -9.126016e-11 -1.326231e-10 4.198629e-11 2.208670e-11 -8.561464e-11 -7.072667e-11 2.902224e-11 4.906225e-11 3.468701e-11 1.718100e-11 3.634652e-12 -8.077119e-13 4.369896e-14 2.442049e-12 3.810112e-12 3.415957e-12 1.275789e-12 -2.414943e-12 -5.949463e-12 -6.071347e-12 -2.563776e-12 3.750180e-12 1.135786e-11 3.374279e-11 4.280745e-11 -5.076229e-11 -2.741919e-10 -7.834701e-11 2.538121e-11 -6.639364e-11 1.288738e-11 -3.527685e-11 -8.162956e-12 -2.101616e-12 1.223995e-12 1.847522e-12 2.032405e-12 1.720229e-12 1.311752e-12 8.474271e-13 5.460846e-13 3.063564e-13 1.835878e-13 1.458215e-13 1.078558e-13 
1.531799e-01 1.466501e-03 -1.340179e-01 -2.310586e-01 -2.430406e-01 -1.139887e-01 2.768883e-01 1.055759e+00 2.449723e+00 4.459265e+00 6.829986e+00 8.481899e+00 8.757437e+00 9.313538e+00 1.129094e+01 2.236512e+01 9.490464e+01 2.110594e+02 4.642221e+02 6.430099e+02 1.533910e+02 -3.295167e+02 -2.336073e+02 -2.183972e+02 -5.212018e+01 2.316332e+02 1.934769e+02 6.892894e+01 2.173155e+01 2.506455e+01 3.250393e+01 3.594958e+01 3.380305e+01 2.747402e+01 1.914610e+01 1.131242e+01 6.050506e+00 4.403819e+00 5.531795e+00 8.725433e+00 1.055953e+01 7.262566e-01 1.656623e+01 -3.083991e+01 -1.960606e+02 -3.581627e+02 -2.468383e+02 -4.479571e+01 1.884091e+02 3.699948e+02 2.498154e+02 1.102768e+02 4.558624e+01 1.464629e+01 3.937186e+00 1.783531e+00 1.289924e+00 8.696329e-01 5.920913e-01 4.825536e-01 4.770973e-01 4.631321e-01 4.050066e-01 2.938036e-01 