# vtk DataFile Version 2.0
Comment goes here
ASCII

DATASET STRUCTURED_POINTS
DIMENSIONS    64   64   1

ORIGIN    0.000   0.000   0.000
SPACING   0.0781250.078125   1.000

POINT_DATA   4096
SCALARS Omega double
LOOKUP_TABLE default

2.107257e-14 1.538890e-14 1.245946e-14 3.371762e-15 -1.962712e-15 5.232845e-16 2.711182e-15 6.546533e-15 1.261696e-14 2.194906e-14 2.050744e-14 -3.151629e-15 -9.680266e-15 -7.922902e-15 -1.297884e-14 -1.665157e-14 -2.484923e-14 -3.442566e-14 -4.383373e-14 -9.580423e-15 -6.597779e-15 8.634345e-16 -5.283353e-15 6.245090e-15 -8.657323e-15 -1.374651e-14 2.559941e-14 3.245907e-14 1.946025e-15 -1.010880e-14 -5.382601e-15 1.145101e-14 1.823574e-14 1.278049e-14 1.470209e-14 4.869353e-15 -1.671073e-14 -1.454239e-16 1.004296e-15 -7.751188e-15 1.911673e-14 -2.794982e-14 -3.540114e-14 -5.094041e-14 -2.076718e-14 -1.852653e-14 -1.009034e-15 1.534039e-14 6.493225e-15 4.028894e-15 -1.997977e-14 7.285767e-15 1.619913e-14 -7.762065e-15 -3.206502e-15 -1.741896e-14 -8.202117e-15 1.040031e-14 1.127251e-14 2.540082e-14 3.322780e-14 3.588945e-14 3.117423e-14 2.190201e-14 
-1.294969e-03 -3.885736e-04 4.941641e-04 1.357079e-03 2.190641e-03 2.997807e-03 3.766808e-03 4.493677e-03 5.161634e-03 5.758499e-03 6.264025e-03 6.660672e-03 6.928908e-03 7.050378e-03 7.011413e-03 6.797060e-03 6.405184e-03 5.827740e-03 5.080802e-03 4.166968e-03 3.128201e-03 1.981780e-03 8.009751e-04 -3.820015e-04 -1.467775e-03 -2.420334e-03 -3.137909e-03 -3.605339e-03 -3.755606e-03 -3.619550e-03 -3.192886e-03 -2.555623e-03 -1.761262e-03 -9.107046e-04 -7.742830e-05 6.577824e-04 1.244745e-03 1.644479e-03 1.850280e-03 1.853560e-03 1.684477e-03 1.336874e-03 8.619323e-04 2.388099e-04 -4.699024e-04 -1.293880e-03 -2.162365e-03 -3.094838e-03 -4.017432e-03 -4.925709e-03 -5.753751e-03 -6.475787e-03 -7.047277e-03 -7.437304e-03 -7.631704e-03 -7.612374e-03 -7.395520e-03 -6.984155e-03 -6.415672e-03 -5.709301e-03 -4.909224e-03 -4.038148e-03 -3.133861e-03 -2.211148e-03 
-2.797914e-03 -8.083023e-04 1.130224e-03 3.025017e-03 4.855074e-03 6.626126e-03 8.312423e-03 9.904937e-03 1.136711e-02 1.267240e-02 1.377669e-02 1.464199e-02 1.522552e-02 1.548752e-02 1.539776e-02 1.492425e-02 1.406232e-02 1.279643e-02 1.116301e-02 9.172187e-03 6.918343e-03 4.446310e-03 1.919030e-03 -5.845847e-04 -2.846748e-03 -4.781468e-03 -6.170781e-03 -6.979131e-03 -7.071707e-03 -6.520946e-03 -5.335617e-03 -3.701803e-03 -1.756000e-03 2.697197e-04 2.201273e-03 3.857264e-03 5.125655e-03 5.926353e-03 6.252472e-03 6.097774e-03 5.540121e-03 4.580308e-03 3.339826e-03 1.784391e-03 5.449974e-05 -1.907825e-03 -3.950234e-03 -6.111536e-03 -8.236370e-03 -1.031251e-02 -1.220283e-02 -1.384877e-02 -1.515837e-02 -1.606227e-02 -1.653222e-02 -1.652783e-02 -1.608496e-02 -1.521054e-02 -1.398580e-02 -1.245399e-02 -1.071133e-02 -8.809090e-03 -6.829993e-03 -4.807955e-03 
-4.738316e-03 -1.291281e-03 2.070286e-03 5.355204e-03 8.527634e-03 1.159527e-02 1.451374e-02 1.726722e-02 1.979253e-02 2.204549e-02 2.394939e-02 2.544132e-02 2.644544e-02 2.689586e-02 2.673678e-02 2.591665e-02 2.442420e-02 2.224027e-02 1.942781e-02 1.601870e-02 1.218008e-02 8.009783e-03 3.794831e-03 -3.068045e-04 -3.917093e-03 -6.872447e-03 -8.804807e-03 -9.653172e-03 -9.208770e-03 -7.617531e-03 -4.933478e-03 -1.513712e-03 2.363373e-03 6.263328e-03 9.856402e-03 1.281667e-02 1.494716e-02 1.612509e-02 1.635850e-02 1.567113e-02 1.422692e-02 1.206379e-02 9.415550e-03 6.249110e-03 2.817467e-03 -9.661235e-04 -4.842316e-03 -8.872458e-03 -1.280173e-02 -1.660493e-02 -2.006226e-02 -2.306721e-02 -2.547568e-02 -2.716205e-02 -2.808633e-02 -2.817484e-02 -2.749217e-02 -2.604988e-02 -2.398702e-02 -2.138137e-02 -1.839674e-02 -1.512692e-02 -1.171278e-02 -8.218733e-03 
-7.386041e-03 -1.868940e-03 3.514913e-03 8.773605e-03 1.384901e-02 1.874967e-02 2.340531e-02 2.779046e-02 3.180685e-02 3.538750e-02 3.841338e-02 4.078889e-02 4.239357e-02 4.312494e-02 4.288964e-02 4.160659e-02 3.925262e-02 3.580386e-02 3.136215e-02 2.599820e-02 1.998941e-02 1.352580e-02 7.079354e-03 9.423010e-04 -4.277209e-03 -8.286336e-03 -1.051604e-02 -1.086285e-02 -9.045101e-03 -5.325757e-03 1.278958e-04 6.688286e-03 1.382398e-02 2.078596e-02 2.698938e-02 3.189383e-02 3.517777e-02 3.667368e-02 3.643294e-02 3.455567e-02 3.135970e-02 2.697244e-02 2.181148e-02 1.587329e-02 9.578790e-03 2.816428e-03 -4.009889e-03 -1.098541e-02 -1.773104e-02 -2.419799e-02 -3.006806e-02 -3.516212e-02 -3.927653e-02 -4.220228e-02 -4.388925e-02 -4.421506e-02 -4.328482e-02 -4.111730e-02 -3.793091e-02 -3.385438e-02 -2.914588e-02 -2.396214e-02 -1.852723e-02 -1.295175e-02 
-1.107461e-02 -2.579509e-03 5.715661e-03 1.381105e-02 2.161627e-02 2.913796e-02 3.626970e-02 4.297472e-02 4.910823e-02 5.457856e-02 5.921062e-02 6.287078e-02 6.537425e-02 6.656934e-02 6.629925e-02 6.443847e-02 6.093253e-02 5.575271e-02 4.904840e-02 4.096153e-02 3.193148e-02 2.230924e-02 1.284410e-02 4.052054e-03 -3.118220e-03 -8.169992e-03 -1.024799e-02 -9.195210e-03 -4.648188e-03 2.924418e-03 1.315002e-02 2.495601e-02 3.739904e-02 4.922916e-02 5.946293e-02 6.723702e-02 7.205064e-02 7.369821e-02 7.232174e-02 6.817964e-02 6.184994e-02 5.363239e-02 4.424067e-02 3.373703e-02 2.280031e-02 1.128772e-02 -1.883883e-04 -1.175042e-02 -2.285251e-02 -3.341141e-02 -4.298669e-02 -5.128758e-02 -5.804449e-02 -6.291807e-02 -6.585683e-02 -6.666037e-02 -6.549627e-02 -6.239128e-02 -5.767560e-02 -5.155443e-02 -4.441702e-02 -3.651764e-02 -2.819621e-02 -1.963848e-02 
-1.622034e-02 -3.471820e-03 8.976140e-03 2.110638e-02 3.277736e-02 4.398979e-02 5.458825e-02 6.452446e-02 7.360058e-02 8.170320e-02 8.859695e-02 9.410743e-02 9.796961e-02 9.996063e-02 9.982455e-02 9.735325e-02 9.242606e-02 8.498595e-02 7.523785e-02 6.342315e-02 5.022245e-02 3.624018e-02 2.264571e-02 1.031313e-02 6.950154e-04 -5.386022e-03 -6.673983e-03 -2.922457e-03 6.306254e-03 2.023235e-02 3.811956e-02 5.822046e-02 7.892810e-02 9.823996e-02 1.145532e-01 1.265329e-01 1.334163e-01 1.349687e-01 1.314934e-01 1.235246e-01 1.120563e-01 9.768484e-02 8.157929e-02 6.392820e-02 4.578879e-02 2.698667e-02 8.421766e-03 -1.007608e-02 -2.774524e-02 -4.444552e-02 -5.958817e-02 -7.271202e-02 -8.347416e-02 -9.133984e-02 -9.626395e-02 -9.793038e-02 -9.659335e-02 -9.229088e-02 -8.550753e-02 -7.655909e-02 -6.602071e-02 -5.428786e-02 -4.187007e-02 -2.906361e-02 
-2.334528e-02 -4.631412e-03 1.362919e-02 3.138021e-02 4.840338e-02 6.468606e-02 8.000919e-02 9.432241e-02 1.073761e-01 1.190599e-01 1.290862e-01 1.372565e-01 1.432067e-01 1.466159e-01 1.470597e-01 1.441787e-01 1.377019e-01 1.274948e-01 1.137972e-01 9.699013e-02 7.809148e-02 5.810461e-02 3.882030e-02 2.167282e-02 8.859577e-03 1.696064e-03 2.020157e-03 1.019373e-02 2.674867e-02 5.041084e-02 7.989748e-02 1.124305e-01 1.454249e-01 1.757516e-01 2.009040e-01 2.188657e-01 2.285044e-01 2.295830e-01 2.226641e-01 2.087309e-01 1.894091e-01 1.657527e-01 1.396126e-01 1.113557e-01 8.259962e-02 5.309866e-02 2.417003e-02 -4.448098e-03 -3.169417e-02 -5.734900e-02 -8.063527e-02 -1.008294e-01 -1.175143e-01 -1.298498e-01 -1.378215e-01 -1.409292e-01 -1.395553e-01 -1.337475e-01 -1.242029e-01 -1.113979e-01 -9.616172e-02 -7.909967e-02 -6.095556e-02 -4.219602e-02 
-3.311030e-02 -6.215191e-03 1.997828e-02 4.534284e-02 6.953895e-02 9.252890e-02 1.140167e-01 1.339732e-01 1.521292e-01 1.684385e-01 1.826189e-01 1.944978e-01 2.036201e-01 2.095267e-01 2.115219e-01 2.089543e-01 2.012448e-01 1.880464e-01 1.695686e-01 1.463336e-01 1.198215e-01 9.161267e-02 6.441024e-02 4.049366e-02 2.314631e-02 1.443467e-02 1.701912e-02 3.146050e-02 5.839447e-02 9.586903e-02 1.417938e-01 1.919517e-01 2.423479e-01 2.882777e-01 3.259348e-01 3.523497e-01 3.658523e-01 3.662122e-01 3.543561e-01 3.319278e-01 3.014515e-01 2.646606e-01 2.243699e-01 1.812093e-01 1.375723e-01 9.310101e-02 4.967105e-02 6.884790e-03 -3.381033e-02 -7.206456e-02 -1.068761e-01 -1.371150e-01 -1.622951e-01 -1.811133e-01 -1.936081e-01 -1.990040e-01 -1.978510e-01 -1.902056e-01 -1.770491e-01 -1.590798e-01 -1.374795e-01 -1.131439e-01 -8.715331e-02 -6.021430e-02 
-4.633342e-02 -8.522559e-03 2.817891e-02 6.351135e-02 9.695138e-02 1.284175e-01 1.575294e-01 1.843400e-01 2.086434e-01 2.306034e-01 2.500789e-01 2.670524e-01 2.810142e-01 2.913146e-01 2.967996e-01 2.962683e-01 2.885240e-01 2.727488e-01 2.489456e-01 2.177483e-01 1.812222e-01 1.417778e-01 1.034172e-01 6.967001e-02 4.538697e-02 3.372875e-02 3.855215e-02 6.070175e-02 1.010231e-01 1.566159e-01 2.243725e-01 2.980822e-01 3.719090e-01 4.389648e-01 4.936950e-01 5.317983e-01 5.508344e-01 5.505771e-01 5.324089e-01 4.988799e-01 4.537334e-01 3.996043e-01 3.406537e-01 2.777887e-01 2.145076e-01 1.501804e-01 8.747808e-02 2.573140e-02 -3.307507e-02 -8.841331e-02 -1.389995e-01 -1.830699e-01 -2.200963e-01 -2.480433e-01 -2.670552e-01 -2.759148e-01 -2.754026e-01 -2.655700e-01 -2.477725e-01 -2.230217e-01 -1.929665e-01 -1.589169e-01 -1.224077e-01 -8.449758e-02 
-6.407107e-02 -1.210915e-02 3.805011e-02 8.592126e-02 1.306950e-01 1.722143e-01 2.100241e-01 2.443727e-01 2.753120e-01 3.034943e-01 3.292281e-01 3.529077e-01 3.740993e-01 3.918870e-01 4.043654e-01 4.093253e-01 4.044104e-01 3.878301e-01 3.590305e-01 3.185867e-01 2.692613e-01 2.145601e-01 1.603026e-01 1.118001e-01 7.612523e-02 5.804055e-02 6.309766e-02 9.265469e-02 1.479316e-01 2.249183e-01 3.193024e-01 4.223988e-01 5.260742e-01 6.206487e-01 6.982474e-01 7.527387e-01 7.804874e-01 7.810997e-01 7.563709e-01 7.099607e-01 6.471416e-01 5.717707e-01 4.897971e-01 4.024936e-01 3.148257e-01 2.257080e-01 1.388202e-01 5.305627e-02 -2.895086e-02 -1.063900e-01 -1.776851e-01 -2.400811e-01 -2.930744e-01 -3.334971e-01 -3.616343e-01 -3.755880e-01 -3.763981e-01 -3.640858e-01 -3.404828e-01 -3.070201e-01 -2.659829e-01 -2.192349e-01 -1.689509e-01 -1.166692e-01 
-8.760760e-02 -1.792092e-02 4.879650e-02 1.116738e-01 1.694685e-01 2.219026e-01 2.684854e-01 3.098888e-01 3.467882e-01 3.808623e-01 4.134344e-01 4.457994e-01 4.778286e-01 5.082050e-01 5.337503e-01 5.504439e-01 5.538574e-01 5.403922e-01 5.083214e-01 4.578518e-01 3.924799e-01 3.171297e-01 2.400605e-01 1.690633e-01 1.143061e-01 8.280599e-02 8.257019e-02 1.157630e-01 1.844360e-01 2.833200e-01 4.070575e-01 5.439840e-01 6.835209e-01 8.124415e-01 9.200099e-01 9.974800e-01 1.039345e+00 1.044647e+00 1.015320e+00 9.562105e-01 8.744301e-01 7.752909e-01 6.672189e-01 5.517852e-01 4.360952e-01 3.181385e-01 2.029996e-01 8.869767e-02 -2.130585e-02 -1.258838e-01 -2.231811e-01 -3.089208e-01 -3.827908e-01 -4.398015e-01 -4.804497e-01 -5.017105e-01 -5.049022e-01 -4.899491e-01 -4.592710e-01 -4.148817e-01 -3.598975e-01 -2.969528e-01 -2.290766e-01 -1.584870e-01 
-1.186326e-01 -2.752351e-02 5.866272e-02 1.384273e-01 2.098724e-01 2.725234e-01 3.259600e-01 3.716620e-01 4.116111e-01 4.494208e-01 4.884515e-01 5.316931e-01 5.797301e-01 6.305674e-01 6.788891e-01 7.175748e-01 7.386969e-01 7.355877e-01 7.043916e-01 6.443590e-01 5.596253e-01 4.567373e-01 3.471131e-01 2.418177e-01 1.552265e-01 9.752973e-02 8.019256e-02 1.068347e-01 1.810506e-01 2.966038e-01 4.476411e-01 6.195239e-01 7.994556e-01 9.701731e-01 1.117395e+00 1.228597e+00 1.294989e+00 1.313862e+00 1.286333e+00 1.218249e+00 1.118742e+00 9.952493e-01 8.596235e-01 7.140716e-01 5.686739e-01 4.199938e-01 2.747589e-01 1.294903e-01 -1.160621e-02 -1.470407e-01 -2.749943e-01 -3.888841e-01 -4.890135e-01 -5.675307e-01 -6.251070e-01 -6.568807e-01 -6.642757e-01 -6.469729e-01 -6.080859e-01 -5.503938e-01 -4.781628e-01 -3.950418e-01 -3.052673e-01 -2.119654e-01 
-1.590949e-01 -4.321850e-02 6.455990e-02 1.617431e-01 2.454643e-01 3.149687e-01 3.701167e-01 4.138948e-01 4.507321e-01 4.877348e-01 5.319152e-01 5.892078e-01 6.613591e-01 7.450375e-01 8.312043e-01 9.075076e-01 9.605295e-01 9.788566e-01 9.553577e-01 8.875963e-01 7.800586e-01 6.409977e-01 4.856157e-01 3.291073e-01 1.913917e-01 8.694186e-02 3.216745e-02 3.302658e-02 9.604827e-02 2.146832e-01 3.841473e-01 5.872823e-01 8.103904e-01 1.031527e+00 1.232256e+00 1.394013e+00 1.502241e+00 1.550390e+00 1.536927e+00 1.468102e+00 1.355346e+00 1.208948e+00 1.046184e+00 8.702520e-01 6.962020e-01 5.181048e-01 3.449262e-01 1.702179e-01 -1.293214e-03 -1.681952e-01 -3.294108e-01 -4.750929e-01 -6.071471e-01 -7.130871e-01 -7.936457e-01 -8.407756e-01 -8.555762e-01 -8.371795e-01 -7.894480e-01 -7.162299e-01 -6.233343e-01 -5.158290e-01 -3.995928e-01 -2.790194e-01 
-2.114910e-01 -6.831089e-02 6.176307e-02 1.746988e-01 2.662469e-01 3.352668e-01 3.823394e-01 4.130815e-01 4.362811e-01 4.649099e-01 5.121223e-01 5.883601e-01 6.968970e-01 8.315584e-01 9.768926e-01 1.112273e+00 1.216207e+00 1.270953e+00 1.265015e+00 1.193509e+00 1.060639e+00 8.758504e-01 6.584371e-01 4.282568e-01 2.122575e-01 3.064518e-02 -9.333764e-02 -1.497173e-01 -1.270750e-01 -3.046686e-02 1.391426e-01 3.640804e-01 6.323714e-01 9.174520e-01 1.195332e+00 1.437756e+00 1.619011e+00 1.723936e+00 1.744291e+00 1.685997e+00 1.563348e+00 1.392814e+00 1.200568e+00 9.929100e-01 7.926668e-01 5.903266e-01 3.970388e-01 2.012254e-01 6.909289e-03 -1.853492e-01 -3.773141e-01 -5.547442e-01 -7.236960e-01 -8.643796e-01 -9.768590e-01 -1.047558e+00 -1.075973e+00 -1.060019e+00 -1.004314e+00 -9.140889e-01 -7.974415e-01 -6.613477e-01 -5.140881e-01 -3.617643e-01 
-2.783002e-01 -1.068891e-01 4.384173e-02 1.676101e-01 2.582603e-01 3.142619e-01 3.376965e-01 3.387064e-01 3.333203e-01 3.439602e-01 3.931414e-01 4.976193e-01 6.617375e-01 8.736338e-01 1.106837e+00 1.327852e+00 1.504715e+00 1.612394e+00 1.635128e+00 1.565368e+00 1.406036e+00 1.166398e+00 8.690959e-01 5.386132e-01 2.103397e-01 -8.819761e-02 -3.241709e-01 -4.813178e-01 -5.401010e-01 -5.009105e-01 -3.559118e-01 -1.193945e-01 2.033627e-01 5.799326e-01 9.778595e-01 1.350774e+00 1.652068e+00 1.851720e+00 1.928598e+00 1.888279e+00 1.750261e+00 1.542778e+00 1.308259e+00 1.059030e+00 8.323214e-01 6.125497e-01 4.135397e-01 2.141309e-01 1.571035e-02 -1.844955e-01 -3.950786e-01 -5.971017e-01 -8.067184e-01 -9.922350e-01 -1.151185e+00 -1.259916e+00 -1.313755e+00 -1.308226e+00 -1.248536e+00 -1.141863e+00 -9.996262e-01 -8.315560e-01 -6.493773e-01 -4.615944e-01 
-3.623190e-01 -1.638429e-01 2.998458e-03 1.287310e-01 2.047607e-01 2.292871e-01 2.072974e-01 1.562484e-01 1.035937e-01 8.567610e-02 1.380347e-01 2.844155e-01 5.286783e-01 8.488203e-01 1.201295e+00 1.535032e+00 1.805668e+00 1.982486e+00 2.047138e+00 1.989950e+00 1.810127e+00 1.513059e+00 1.122373e+00 6.655953e-01 1.879577e-01 -2.736136e-01 -6.731954e-01 -9.841261e-01 -1.174406e+00 -1.233699e+00 -1.137420e+00 -8.890261e-01 -4.800399e-01 4.878874e-02 6.471825e-01 1.238913e+00 1.737254e+00 2.084138e+00 2.233139e+00 2.192682e+00 1.994760e+00 1.699292e+00 1.377712e+00 1.055051e+00 7.907591e-01 5.592164e-01 3.745057e-01 2.003881e-01 3.216985e-02 -1.390337e-01 -3.374686e-01 -5.409671e-01 -7.912722e-01 -1.037735e+00 -1.269283e+00 -1.443389e+00 -1.545641e+00 -1.567007e+00 -1.513428e+00 -1.394637e+00 -1.227438e+00 -1.025445e+00 -8.056168e-01 -5.798091e-01 
-4.652604e-01 -2.437895e-01 -6.901200e-02 4.536152e-02 8.778048e-02 5.669652e-02 -3.791300e-02 -1.674274e-01 -2.881782e-01 -3.454065e-01 -2.888101e-01 -8.898643e-02 2.540750e-01 7.059232e-01 1.200208e+00 1.665041e+00 2.046154e+00 2.309859e+00 2.438631e+00 2.420716e+00 2.246252e+00 1.908921e+00 1.427167e+00 8.291026e-01 1.715462e-01 -4.961691e-01 -1.109046e+00 -1.624159e+00 -1.989945e+00 -2.174770e+00 -2.125659e+00 -1.822968e+00 -1.236520e+00 -4.286767e-01 5.125249e-01 1.453234e+00 2.238946e+00 2.777141e+00 2.979514e+00 2.861909e+00 2.485942e+00 1.980956e+00 1.471010e+00 1.000368e+00 6.663855e-01 4.215268e-01 2.763609e-01 1.699312e-01 8.903272e-02 1.442421e-02 -1.076902e-01 -2.597991e-01 -5.460524e-01 -8.842665e-01 -1.239262e+00 -1.531057e+00 -1.724955e+00 -1.804680e+00 -1.777933e+00 -1.658565e+00 -1.471927e+00 -1.237406e+00 -9.797700e-01 -7.156600e-01 
-5.881036e-01 -3.505352e-01 -1.792371e-01 -9.337246e-02 -1.077284e-01 -2.228737e-01 -4.212034e-01 -6.591585e-01 -8.730249e-01 -9.882140e-01 -9.417279e-01 -7.044966e-01 -2.837955e-01 2.724731e-01 8.774232e-01 1.455961e+00 1.954620e+00 2.342065e+00 2.599203e+00 2.705037e+00 2.624102e+00 2.319636e+00 1.793958e+00 1.071919e+00 2.272914e-01 -6.709260e-01 -1.528900e+00 -2.276094e+00 -2.832477e+00 -3.131018e+00 -3.078923e+00 -2.622777e+00 -1.702608e+00 -4.266074e-01 1.039972e+00 2.500511e+00 3.709381e+00 4.507161e+00 4.719831e+00 4.341599e+00 3.505934e+00 2.529890e+00 1.637011e+00 8.971384e-01 4.497581e-01 1.981268e-01 1.291894e-01 1.500287e-01 2.414008e-01 3.762655e-01 4.508376e-01 4.695180e-01 1.694145e-01 -3.199726e-01 -9.006101e-01 -1.413790e+00 -1.781794e+00 -1.976723e+00 -2.014239e+00 -1.915830e+00 -1.721882e+00 -1.460368e+00 -1.167791e+00 -8.676348e-01 
-7.287822e-01 -4.850450e-01 -3.315757e-01 -2.940866e-01 -3.908269e-01 -6.205687e-01 -9.561202e-01 -1.337313e+00 -1.680875e+00 -1.894329e+00 -1.903228e+00 -1.676387e+00 -1.240677e+00 -6.968235e-01 -1.612494e-01 3.826823e-01 9.549967e-01 1.529606e+00 2.059152e+00 2.486689e+00 2.715611e+00 2.639198e+00 2.212096e+00 1.454844e+00 4.694695e-01 -6.383418e-01 -1.724844e+00 -2.678358e+00 -3.385188e+00 -3.738566e+00 -3.623219e+00 -2.941205e+00 -1.570970e+00 3.275013e-01 2.481561e+00 4.593683e+00 6.350802e+00 7.578472e+00 7.925068e+00 7.084802e+00 5.341679e+00 3.441057e+00 1.838184e+00 6.554464e-01 6.887398e-02 -1.390706e-01 -4.480317e-02 2.027974e-01 5.851686e-01 1.084077e+00 1.548873e+00 1.990142e+00 1.750387e+00 1.021600e+00 3.049001e-02 -9.002347e-01 -1.596147e+00 -2.007964e+00 -2.174261e+00 -2.134509e+00 -1.955912e+00 -1.679919e+00 -1.360364e+00 -1.030298e+00 
-8.828926e-01 -6.446723e-01 -5.242429e-01 -5.551061e-01 -7.592692e-01 -1.134267e+00 -1.644096e+00 -2.214985e+00 -2.744922e+00 -3.105579e+00 -3.152237e+00 -2.772312e+00 -2.064810e+00 -1.584837e+00 -1.639564e+00 -1.721784e+00 -1.446919e+00 -7.680823e-01 1.638077e-01 1.201300e+00 2.105545e+00 2.623212e+00 2.597757e+00 2.029439e+00 1.055559e+00 -1.528697e-01 -1.373929e+00 -2.441667e+00 -3.244104e+00 -3.703447e+00 -3.805063e+00 -3.405294e+00 -2.069042e+00 1.592556e-01 2.839283e+00 5.812502e+00 8.830630e+00 1.160750e+01 1.323808e+01 1.200606e+01 8.584837e+00 4.819959e+00 1.919308e+00 9.040040e-02 -6.504988e-01 -6.961209e-01 -2.928577e-01 2.883732e-01 1.028674e+00 1.975949e+00 3.068588e+00 4.488216e+00 4.570493e+00 3.584870e+00 1.943026e+00 2.758240e-01 -1.016495e+00 -1.815456e+00 -2.211710e+00 -2.285491e+00 -2.154235e+00 -1.882138e+00 -1.547561e+00 -1.196940e+00 
-1.041474e+00 -8.213998e-01 -7.486420e-01 -8.656295e-01 -1.199310e+00 -1.748676e+00 -2.472835e+00 -3.285482e+00 -4.035658e+00 -4.429139e+00 -3.946965e+00 -2.011259e+00 1.035625e+00 2.466916e+00 9.613934e-01 -1.423015e+00 -3.018763e+00 -3.257012e+00 -2.535803e+00 -1.094370e+00 5.845977e-01 2.003196e+00 2.740954e+00 2.740449e+00 2.098672e+00 1.043523e+00 -1.113306e-01 -1.198108e+00 -2.282266e+00 -3.598584e+00 -5.599209e+00 -7.808120e+00 -8.438389e+00 -6.449560e+00 -2.905077e+00 1.854094e+00 7.968009e+00 1.587039e+01 2.285385e+01 2.273186e+01 1.646372e+01 8.347178e+00 2.880644e+00 -3.334018e-02 -1.552043e+00 -1.622466e+00 -8.501397e-01 1.514168e-02 8.173655e-01 1.972584e+00 4.270939e+00 7.702550e+00 8.516083e+00 7.537682e+00 5.195504e+00 2.448651e+00 1.727159e-01 -1.279340e+00 -2.060832e+00 -2.328172e+00 -2.288936e+00 -2.046475e+00 -1.714181e+00 -1.356081e+00 
-1.192700e+00 -1.002053e+00 -9.878686e-01 -1.202820e+00 -1.680975e+00 -2.427705e+00 -3.399549e+00 -4.473874e+00 -5.311806e+00 -5.030550e+00 -1.902559e+00 5.969294e+00 1.722955e+01 2.262715e+01 2.005232e+01 1.385374e+01 6.363217e+00 1.809319e+00 -4.494551e-01 -7.230757e-01 2.775302e-01 1.584609e+00 2.658390e+00 3.405198e+00 3.532495e+00 3.075153e+00 2.244377e+00 1.004053e+00 -1.349310e+00 -5.948286e+00 -1.402331e+01 -2.336426e+01 -2.873539e+01 -2.628177e+01 -2.054995e+01 -1.209729e+01 4.718133e+00 2.650448e+01 4.514705e+01 4.963175e+01 3.526298e+01 1.573692e+01 8.288131e+00 4.215692e+00 -1.708522e+00 -2.901411e+00 -2.434017e+00 -1.929436e+00 -2.272579e+00 -1.445268e+00 6.137508e+00 1.287073e+01 1.298626e+01 1.202920e+01 9.458494e+00 5.649832e+00 2.057260e+00 -3.453351e-01 -1.695393e+00 -2.247125e+00 -2.345393e+00 -2.159294e+00 -1.847045e+00 -1.495850e+00 
-1.321519e+00 -1.168796e+00 -1.218730e+00 -1.535223e+00 -2.162157e+00 -3.114633e+00 -4.333572e+00 -5.572437e+00 -5.975116e+00 -3.331363e+00 6.221495e+00 2.500248e+01 4.423576e+01 4.884129e+01 5.555647e+01 5.557415e+01 3.640498e+01 2.439612e+01 1.809510e+01 1.300625e+01 9.899176e+00 6.810702e+00 4.456893e+00 4.243737e+00 4.975236e+00 5.519508e+00 5.223144e+00 3.274536e+00 -2.286810e+00 -1.366861e+01 -3.072498e+01 -4.420438e+01 -5.036006e+01 -4.088092e+01 -1.998931e+01 -2.229217e+01 2.254790e+01 6.555852e+01 9.209881e+01 9.601174e+01 3.649523e+01 4.823612e+00 1.228550e+01 1.049847e+01 -7.234676e+00 -5.179963e+00 -7.242394e+00 -6.719063e+00 -9.957309e+00 -9.055553e+00 2.545996e+01 3.746752e+01 2.311093e+01 1.655509e+01 1.358598e+01 9.328726e+00 4.479847e+00 9.620053e-01 -1.112703e+00 -2.033618e+00 -2.311737e+00 -2.206464e+00 -1.931830e+00 -1.601827e+00 
-1.411963e+00 -1.301117e+00 -1.412959e+00 -1.822242e+00 -2.583751e+00 -3.718934e+00 -5.122145e+00 -6.295466e+00 -5.565044e+00 4.096044e-01 1.355343e+01 2.266682e+01 -2.410439e+00 -2.353517e+01 2.727556e+01 6.022187e+01 2.911676e+01 2.251871e+01 4.823358e+01 5.427573e+01 4.487490e+01 3.265715e+01 1.693187e+01 8.139590e+00 6.370398e+00 7.399141e+00 7.590794e+00 4.473721e+00 -5.056527e+00 -2.230436e+01 -3.783426e+01 -2.149823e+01 1.205156e+01 5.587662e+01 1.895781e+02 1.137717e+02 1.198917e+02 1.098730e+02 1.388221e+01 6.047410e+00 -8.897723e+01 -8.889286e+01 -4.689234e+01 -5.685423e+01 -5.474167e+01 -6.581981e-01 -2.063682e+01 -1.143056e+01 -1.565331e+01 -1.666034e+01 1.018327e+02 1.473045e+02 7.126613e+01 2.953248e+01 1.714779e+01 1.191729e+01 6.583050e+00 2.300004e+00 -4.298328e-01 -1.729325e+00 -2.195858e+00 -2.184209e+00 -1.958185e+00 -1.661089e+00 
-1.449525e+00 -1.379173e+00 -1.542276e+00 -2.022197e+00 -2.883491e+00 -4.149901e+00 -5.655002e+00 -6.639873e+00 -4.995210e+00 5.968333e-02 -1.010989e+01 -8.813131e+01 -1.788076e+02 -1.393506e+02 -4.630550e+01 -2.174695e+01 -2.033818e+01 1.915034e+01 1.039321e+02 9.168018e+01 7.683775e+01 9.890926e+01 6.019604e+01 2.487078e+01 1.037021e+01 7.830188e+00 8.094870e+00 5.752948e+00 -2.007234e+00 -9.887596e+00 1.261060e+01 1.211485e+02 2.612521e+02 3.093738e+02 3.780366e+02 2.006555e+02 1.022672e+02 2.060975e+00 -2.506678e+02 -3.501796e+02 -4.250831e+02 -3.679332e+02 -2.586547e+02 -2.275159e+02 -1.108999e+02 3.611532e+00 -4.240207e+01 -7.102725e+00 4.654458e+00 -1.467365e+01 2.478966e+02 4.549033e+02 2.650935e+02 8.855069e+01 2.495547e+01 1.182433e+01 7.232322e+00 3.186069e+00 1.704183e-01 -1.396127e+00 -2.016972e+00 -2.092970e+00 -1.919628e+00 -1.662639e+00 
-1.422193e+00 -1.386217e+00 -1.582670e+00 -2.098779e+00 -3.006191e+00 -4.330369e+00 -5.888249e+00 -6.848651e+00 -5.300525e+00 -2.547074e+00 -2.804410e+01 -1.524872e+02 -2.271299e+02 -1.236153e+02 -1.025091e+02 -1.409478e+02 -5.617237e+01 2.706656e+01 1.075268e+02 1.249687e+02 1.872303e+02 2.411943e+02 1.485659e+02 7.024836e+01 2.688444e+01 1.013212e+01 1.104946e+01 1.785575e+01 2.952292e+01 6.849988e+01 1.837718e+02 3.680015e+02 4.006018e+02 2.380112e+02 7.781136e+01 1.757315e+01 -1.414460e+02 -2.798416e+02 -3.791104e+02 -5.235117e+02 -5.958546e+02 -5.947339e+02 -4.967400e+02 -3.947904e+02 -1.955666e+02 -6.201695e+01 -1.974873e+01 4.162117e+01 7.833366e+01 -2.813974e+01 1.930326e+02 6.426317e+02 5.085062e+02 1.557914e+02 1.999248e+01 6.561745e+00 6.220031e+00 3.442645e+00 5.836406e-01 -1.085902e+00 -1.792116e+00 -1.936244e+00 -1.812073e+00 -1.598268e+00 
-1.325174e+00 -1.314404e+00 -1.521536e+00 -2.031514e+00 -2.917581e+00 -4.213971e+00 -5.790229e+00 -7.003759e+00 -6.310515e+00 -3.392657e+00 -1.259611e+01 -7.523767e+01 -9.803472e+01 -2.953714e+01 -6.320360e+01 -1.390923e+02 -9.166450e+01 -7.900424e+01 -1.019637e+02 -1.496428e+01 1.755417e+02 2.558189e+02 1.881943e+02 1.528982e+02 7.872142e+01 2.160039e+01 3.203748e+01 7.426349e+01 1.526765e+02 2.742359e+02 3.987673e+02 3.442251e+02 1.030773e+02 -7.527426e+01 -2.200584e+02 -1.608185e+02 -2.503836e+02 -3.388765e+02 -2.606290e+02 -3.165412e+02 -3.422593e+02 -3.751747e+02 -4.030955e+02 -3.730479e+02 -3.155972e+02 -2.327667e+02 -3.532860e+01 5.754181e+01 1.806193e+02 8.119378e+01 4.385219e+01 3.486724e+02 3.791649e+02 1.303830e+02 3.168856e+00 2.049354e+00 5.261979e+00 3.422724e+00 8.210177e-01 -8.129598e-01 -1.534827e+00 -1.718167e+00 -1.636442e+00 -1.465517e+00 
-1.157757e+00 -1.161395e+00 -1.355401e+00 -1.815853e+00 -2.609890e+00 -3.778090e+00 -5.254824e+00 -6.656520e+00 -6.929076e+00 -4.947263e+00 -4.055790e+00 -1.899636e+01 -2.851655e+01 -6.051680e+00 -1.694959e+01 -6.998251e+01 -1.016744e+02 -1.722769e+02 -2.774869e+02 -2.641335e+02 -1.013197e+02 2.997252e+01 1.483163e+02 3.199704e+02 1.795054e+02 2.864496e+01 1.064725e+02 2.510854e+02 3.764539e+02 4.198048e+02 3.290526e+02 1.291316e+01 -2.378942e+02 -2.155796e+02 -1.955753e+02 -1.383190e+02 -1.377777e+02 -1.384799e+02 -7.780550e+01 -8.054049e+01 -8.341299e+01 -9.715560e+01 -1.383092e+02 -1.546994e+02 -2.323681e+02 -2.834883e+02 -1.892018e+02 -7.713819e+01 4.160934e+01 8.384780e+01 2.499079e+02 3.607558e+02 2.219350e+02 6.431513e+01 -2.141930e+00 2.082302e+00 4.970343e+00 3.141084e+00 8.201073e-01 -6.287223e-01 -1.273119e+00 -1.453371e+00 -1.399351e+00 -1.266446e+00 
-9.289597e-01 -9.387088e-01 -1.100638e+00 -1.476534e+00 -2.121688e+00 -3.075413e+00 -4.318673e+00 -5.679238e+00 -6.602766e+00 -6.233226e+00 -4.609533e+00 -6.318001e+00 -1.391555e+01 -1.749854e+01 -2.641841e+01 -5.105986e+01 -8.156998e+01 -1.301944e+02 -1.889900e+02 -2.313091e+02 -1.745516e+02 -1.163152e+02 3.061250e+01 4.471397e+02 2.600991e+02 -6.176137e+01 2.457346e+02 4.798147e+02 3.952165e+02 1.563740e+02 -7.703287e+01 -2.383535e+02 -2.628503e+02 -1.821845e+02 -1.043191e+02 -5.887587e+01 -4.457412e+01 -3.145116e+01 -1.247528e+01 -4.159156e+00 2.986770e+00 -2.540212e+00 -2.436771e+01 -3.693629e+01 -7.276619e+01 -1.306157e+02 -2.338139e+02 -1.732620e+02 -1.374507e+02 5.157229e+01 4.433670e+02 4.609671e+02 1.875080e+02 1.015284e+01 -1.325925e+00 4.416643e+00 4.894119e+00 2.736230e+00 7.077976e-01 -4.632941e-01 -9.858667e-01 -1.138570e+00 -1.105549e+00 -1.008213e+00 
-6.484024e-01 -6.575224e-01 -7.723624e-01 -1.036278e+00 -1.487949e+00 -2.156791e+00 -3.042317e+00 -4.083325e+00 -5.048437e+00 -5.525735e+00 -5.143466e+00 -4.872944e+00 -6.841230e+00 -9.875168e+00 -1.365105e+01 -2.148532e+01 -3.313416e+01 -5.038207e+01 -7.582246e+01 -1.188789e+02 -1.726323e+02 -2.999933e+02 -4.025005e+02 1.031449e+02 4.181711e+02 2.422742e+02 3.915835e+02 3.084161e+02 5.378835e+01 -1.614983e+02 -2.642971e+02 -2.164015e+02 -1.348757e+02 -8.701629e+01 -4.771946e+01 -2.836090e+01 -2.045733e+01 -1.427627e+01 -7.334457e+00 -2.164451e+00 2.056257e+00 2.448303e+00 -2.475748e+00 -5.315738e+00 -1.848953e+01 -2.457996e+01 -8.349679e+01 -5.827640e+01 -9.677395e+01 3.902363e+01 2.258950e+02 1.600558e+02 7.416818e+01 -1.838268e+00 1.077367e+00 5.030424e+00 3.899831e+00 1.985223e+00 4.783628e-01 -3.229365e-01 -6.811833e-01 -7.863249e-01 -7.658434e-01 -7.009700e-01 
-3.335522e-01 -3.388986e-01 -3.984390e-01 -5.344586e-01 -7.668270e-01 -1.110959e+00 -1.568977e+00 -2.123612e+00 -2.697201e+00 -3.147084e+00 -3.283666e+00 -3.219306e+00 -3.606127e+00 -4.598768e+00 -5.768142e+00 -7.594595e+00 -1.008216e+01 -1.382386e+01 -2.283250e+01 -4.865875e+01 -1.254658e+02 -3.113520e+02 -6.582983e+02 -4.084578e+02 4.028447e+02 5.610069e+02 2.647864e+02 -1.815611e+01 -1.245042e+02 -1.525247e+02 -1.276932e+02 -6.937496e+01 -4.725172e+01 -3.106870e+01 -1.959914e+01 -1.391141e+01 -1.105434e+01 -8.672088e+00 -6.175451e+00 -4.209961e+00 -2.789665e+00 -2.098416e+00 -2.520095e+00 -2.036282e+00 -3.779550e+00 3.308872e-03 4.853775e+00 2.754359e+01 -3.545224e+01 -3.864589e+01 3.234464e+01 2.739061e+01 1.849610e+01 -7.051929e-02 2.286717e+00 3.321758e+00 2.190867e+00 1.032747e+00 2.348603e-01 -1.687668e-01 -3.491724e-01 -4.019696e-01 -3.921949e-01 -3.596899e-01 
1.081188e-13 5.919164e-14 3.597392e-14 2.577881e-14 -3.202299e-14 -1.364298e-14 -2.825615e-14 -1.830722e-14 -1.400126e-14 -1.056182e-14 5.543940e-14 1.891008e-13 4.012873e-13 4.827254e-13 4.323989e-13 2.551761e-13 1.779746e-13 9.434498e-13 4.488490e-12 1.532528e-11 4.168233e-11 1.103870e-10 2.799305e-10 2.434294e-10 -1.688891e-10 -2.829140e-10 -1.126775e-10 -4.026857e-11 -3.415641e-11 -1.951109e-11 -7.444756e-12 -3.456534e-12 -1.358741e-12 2.211863e-13 6.162961e-13 -1.492340e-13 -3.121298e-13 2.158638e-13 1.581982e-12 3.918929e-12 6.075191e-12 8.006985e-12 1.004520e-11 1.017752e-11 1.200595e-11 1.526456e-11 2.324538e-11 2.527969e-11 2.217192e-11 1.048902e-11 7.475969e-12 1.235826e-11 3.987264e-12 4.671924e-12 4.567074e-12 3.429893e-12 2.326244e-12 1.365315e-12 8.691476e-13 4.755624e-13 3.600982e-13 2.297169e-13 2.011737e-13 1.486440e-13 
3.335522e-01 3.388986e-01 3.984390e-01 5.344586e-01 7.668270e-01 1.110959e+00 1.568977e+00 2.123612e+00 2.697201e+00 3.147084e+00 3.283666e+00 3.219306e+00 3.606127e+00 4.598768e+00 5.768142e+00 7.594595e+00 1.008216e+01 1.382386e+01 2.283250e+01 4.865875e+01 1.254658e+02 3.113520e+02 6.582983e+02 4.084578e+02 -4.028447e+02 -5.610069e+02 -2.647864e+02 1.815611e+01 1.245042e+02 1.525247e+02 1.276932e+02 6.937496e+01 4.725172e+01 3.106870e+01 1.959914e+01 1.391141e+01 1.105434e+01 8.672088e+00 6.175451e+00 4.209961e+00 2.789665e+00 2.098416e+00 2.520095e+00 2.036282e+00 3.779550e+00 -3.308872e-03 -4.853775e+00 -2.754359e+01 3.545224e+01 3.864589e+01 -3.234464e+01 -2.739061e+01 -1.849610e+01 7.051929e-02 -2.286717e+00 -3.321758e+00 -2.190867e+00 -1.032747e+00 -2.348603e-01 1.687668e-01 3.491724e-01 4.019696e-01 3.921949e-01 3.596899e-01 