# vtk DataFile Version 2.0
Comment goes here
ASCII

DATASET STRUCTURED_POINTS
DIMENSIONS    64   64   1

ORIGIN    0.000   0.000   0.000
SPACING   0.0781250.078125   1.000

POINT_DATA   4096
SCALARS Omega double
LOOKUP_TABLE default

2.278910e-14 2.004670e-14 2.394060e-14 3.202647e-14 3.623238e-14 4.082731e-14 2.340631e-14 9.619762e-15 1.604619e-15 -5.631050e-16 -4.360619e-15 -4.549440e-15 -4.336084e-15 1.256145e-14 2.770092e-14 4.633821e-15 -1.051592e-15 5.261224e-15 1.890917e-14 1.199117e-14 1.776597e-15 -1.032069e-15 -2.219946e-14 -4.581796e-14 -4.846485e-14 -3.419648e-14 -8.919882e-16 2.563266e-14 2.925652e-14 4.036304e-14 2.164641e-14 -7.425905e-16 3.065590e-14 1.545114e-14 -1.184292e-14 -2.096870e-14 -1.494156e-14 -2.348396e-14 -2.866917e-14 -4.985198e-15 2.985453e-15 1.893718e-15 -3.090153e-15 1.921345e-14 5.190994e-15 3.602135e-14 -4.399852e-15 -4.018467e-15 -1.483973e-14 -2.708122e-14 -1.212853e-14 -2.394980e-15 -1.174243e-14 -2.012826e-14 -1.721860e-14 3.274500e-17 3.445210e-15 4.510131e-15 4.840163e-15 5.146384e-16 4.591324e-15 9.474048e-15 2.487227e-14 3.133800e-14 
-1.679384e-04 -1.002687e-04 -3.621042e-05 2.558803e-05 8.696874e-05 1.477529e-04 2.104399e-04 2.729313e-04 3.379560e-04 4.013985e-04 4.661563e-04 5.264009e-04 5.855291e-04 6.364074e-04 6.834143e-04 7.180203e-04 7.454956e-04 7.552684e-04 7.521056e-04 7.234498e-04 6.714775e-04 5.840375e-04 4.603486e-04 2.931146e-04 8.200922e-05 -1.717772e-04 -4.623859e-04 -7.804190e-04 -1.110767e-03 -1.440104e-03 -1.747546e-03 -2.020912e-03 -2.242060e-03 -2.403008e-03 -2.496599e-03 -2.520588e-03 -2.482078e-03 -2.385813e-03 -2.249328e-03 -2.083981e-03 -1.908205e-03 -1.736533e-03 -1.578694e-03 -1.447617e-03 -1.340866e-03 -1.266496e-03 -1.213674e-03 -1.184642e-03 -1.166917e-03 -1.157619e-03 -1.147904e-03 -1.131675e-03 -1.106239e-03 -1.064990e-03 -1.011627e-03 -9.411910e-04 -8.620706e-04 -7.712810e-04 -6.787533e-04 -5.823381e-04 -4.903803e-04 -4.005089e-04 -3.178283e-04 -2.396767e-04 
-3.676907e-04 -2.202079e-04 -8.011319e-05 5.588311e-05 1.922832e-04 3.289075e-04 4.710761e-04 6.141309e-04 7.633842e-04 9.095400e-04 1.058033e-03 1.195889e-03 1.329586e-03 1.443808e-03 1.547121e-03 1.621959e-03 1.678613e-03 1.695578e-03 1.681675e-03 1.610741e-03 1.485688e-03 1.280336e-03 9.914853e-04 6.031448e-04 1.144353e-04 -4.712843e-04 -1.139384e-03 -1.867294e-03 -2.618749e-03 -3.362576e-03 -4.050166e-03 -4.654564e-03 -5.134603e-03 -5.474326e-03 -5.657739e-03 -5.682006e-03 -5.563137e-03 -5.313602e-03 -4.973592e-03 -4.570265e-03 -4.147109e-03 -3.737914e-03 -3.366967e-03 -3.063068e-03 -2.822226e-03 -2.660743e-03 -2.554412e-03 -2.505814e-03 -2.485966e-03 -2.486387e-03 -2.485511e-03 -2.468766e-03 -2.428034e-03 -2.349039e-03 -2.238252e-03 -2.086470e-03 -1.911366e-03 -1.708926e-03 -1.500796e-03 -1.284652e-03 -1.078559e-03 -8.788207e-04 -6.959095e-04 -5.245037e-04 
-6.312221e-04 -3.737435e-04 -1.282859e-04 1.125776e-04 3.571551e-04 6.065914e-04 8.685711e-04 1.135896e-03 1.414374e-03 1.688563e-03 1.963470e-03 2.217898e-03 2.458835e-03 2.662232e-03 2.839934e-03 2.964678e-03 3.052943e-03 3.069410e-03 3.028911e-03 2.884924e-03 2.641559e-03 2.249709e-03 1.702224e-03 9.688810e-04 4.810161e-05 -1.051293e-03 -2.299874e-03 -3.649754e-03 -5.031115e-03 -6.380647e-03 -7.609666e-03 -8.667332e-03 -9.483761e-03 -1.003212e-02 -1.028940e-02 -1.025273e-02 -9.954482e-03 -9.419248e-03 -8.722023e-03 -7.915770e-03 -7.082820e-03 -6.288742e-03 -5.581723e-03 -5.014731e-03 -4.583488e-03 -4.312596e-03 -4.159824e-03 -4.120862e-03 -4.144308e-03 -4.204975e-03 -4.264395e-03 -4.288318e-03 -4.261911e-03 -4.155467e-03 -3.980479e-03 -3.721246e-03 -3.410172e-03 -3.044536e-03 -2.664150e-03 -2.270122e-03 -1.894827e-03 -1.535190e-03 -1.208425e-03 -9.060444e-04 
-1.009369e-03 -5.825757e-04 -1.737684e-04 2.316919e-04 6.493758e-04 1.082729e-03 1.542574e-03 2.017136e-03 2.511162e-03 2.998455e-03 3.481235e-03 3.924620e-03 4.334369e-03 4.673684e-03 4.956937e-03 5.145790e-03 5.262211e-03 5.256344e-03 5.146348e-03 4.861147e-03 4.400005e-03 3.682508e-03 2.690771e-03 1.374579e-03 -2.679635e-04 -2.215886e-03 -4.409598e-03 -6.755429e-03 -9.122171e-03 -1.139314e-02 -1.341378e-02 -1.510264e-02 -1.634926e-02 -1.712336e-02 -1.739505e-02 -1.717124e-02 -1.650812e-02 -1.545164e-02 -1.412844e-02 -1.263200e-02 -1.110824e-02 -9.673566e-03 -8.420434e-03 -7.439352e-03 -6.730444e-03 -6.327512e-03 -6.159948e-03 -6.206923e-03 -6.377387e-03 -6.615288e-03 -6.848243e-03 -7.009401e-03 -7.064962e-03 -6.963184e-03 -6.716638e-03 -6.305649e-03 -5.782426e-03 -5.154953e-03 -4.490896e-03 -3.804855e-03 -3.151130e-03 -2.532731e-03 -1.975435e-03 -1.467586e-03 
-1.557068e-03 -8.471699e-04 -1.651460e-04 5.184078e-04 1.230850e-03 1.981609e-03 2.783285e-03 3.617996e-03 4.482608e-03 5.335038e-03 6.165404e-03 6.919977e-03 7.595473e-03 8.140085e-03 8.568016e-03 8.829216e-03 8.954720e-03 8.873909e-03 8.614009e-03 8.060474e-03 7.208397e-03 5.919120e-03 4.159116e-03 1.842825e-03 -1.028900e-03 -4.406019e-03 -8.170877e-03 -1.213654e-02 -1.606306e-02 -1.973445e-02 -2.289628e-02 -2.542445e-02 -2.716989e-02 -2.811384e-02 -2.824157e-02 -2.758172e-02 -2.623436e-02 -2.427237e-02 -2.189702e-02 -1.926188e-02 -1.660955e-02 -1.414242e-02 -1.202592e-02 -1.041566e-02 -9.322969e-03 -8.792255e-03 -8.710710e-03 -9.017388e-03 -9.560482e-03 -1.021628e-02 -1.086020e-02 -1.135582e-02 -1.164009e-02 -1.161455e-02 -1.129534e-02 -1.065439e-02 -9.780155e-03 -8.704097e-03 -7.544600e-03 -6.346888e-03 -5.204466e-03 -4.136032e-03 -3.181106e-03 -2.323897e-03 
-2.376934e-03 -1.176479e-03 -2.096849e-05 1.144774e-03 2.370069e-03 3.673795e-03 5.070644e-03 6.530308e-03 8.034199e-03 9.510477e-03 1.092756e-02 1.219686e-02 1.329947e-02 1.415721e-02 1.478180e-02 1.510925e-02 1.517896e-02 1.490085e-02 1.430579e-02 1.322626e-02 1.163829e-02 9.321476e-03 6.210764e-03 2.171973e-03 -2.781066e-03 -8.536260e-03 -1.485678e-02 -2.138202e-02 -2.767124e-02 -3.334255e-02 -3.798667e-02 -4.145055e-02 -4.356544e-02 -4.439611e-02 -4.398682e-02 -4.243466e-02 -3.990028e-02 -3.648459e-02 -3.247615e-02 -2.809654e-02 -2.372898e-02 -1.970222e-02 -1.630775e-02 -1.380720e-02 -1.224190e-02 -1.167361e-02 -1.192285e-02 -1.285942e-02 -1.422358e-02 -1.577652e-02 -1.729182e-02 -1.851687e-02 -1.932128e-02 -1.953257e-02 -1.915770e-02 -1.816494e-02 -1.669761e-02 -1.484226e-02 -1.280442e-02 -1.069642e-02 -8.680662e-03 -6.812176e-03 -5.152625e-03 -3.682392e-03 
-3.593024e-03 -1.529765e-03 4.549350e-04 2.464470e-03 4.584809e-03 6.853314e-03 9.283324e-03 1.182439e-02 1.442355e-02 1.695997e-02 1.935508e-02 2.146527e-02 2.323461e-02 2.454829e-02 2.540727e-02 2.573432e-02 2.558704e-02 2.484821e-02 2.357089e-02 2.149285e-02 1.857795e-02 1.445761e-02 9.029300e-03 2.079322e-03 -6.339829e-03 -1.598086e-02 -2.637726e-02 -3.682888e-02 -4.653614e-02 -5.482739e-02 -6.107808e-02 -6.515660e-02 -6.698429e-02 -6.686830e-02 -6.505792e-02 -6.179529e-02 -5.734014e-02 -5.178136e-02 -4.547340e-02 -3.868062e-02 -3.195107e-02 -2.579699e-02 -2.069810e-02 -1.709770e-02 -1.509722e-02 -1.479218e-02 -1.591159e-02 -1.820042e-02 -2.123719e-02 -2.456996e-02 -2.781372e-02 -3.049607e-02 -3.237650e-02 -3.313772e-02 -3.277043e-02 -3.123024e-02 -2.875733e-02 -2.554095e-02 -2.194472e-02 -1.821138e-02 -1.462991e-02 -1.132882e-02 -8.410253e-03 -5.850446e-03 
-5.428427e-03 -1.858051e-03 1.569447e-03 5.039092e-03 8.701574e-03 1.262354e-02 1.681518e-02 2.118925e-02 2.563322e-02 2.993920e-02 3.395008e-02 3.742045e-02 4.023465e-02 4.220472e-02 4.331251e-02 4.346162e-02 4.273092e-02 4.099206e-02 3.831902e-02 3.434614e-02 2.900388e-02 2.172468e-02 1.234772e-02 5.599425e-04 -1.348683e-02 -2.927917e-02 -4.590223e-02 -6.203531e-02 -7.623451e-02 -8.735443e-02 -9.448458e-02 -9.769878e-02 -9.727360e-02 -9.417256e-02 -8.914574e-02 -8.278540e-02 -7.546884e-02 -6.715463e-02 -5.813015e-02 -4.855020e-02 -3.910593e-02 -3.050964e-02 -2.352809e-02 -1.889243e-02 -1.683375e-02 -1.752849e-02 -2.058451e-02 -2.556649e-02 -3.179443e-02 -3.848113e-02 -4.496402e-02 -5.041425e-02 -5.437598e-02 -5.629391e-02 -5.609892e-02 -5.373381e-02 -4.958701e-02 -4.404088e-02 -3.773183e-02 -3.114873e-02 -2.480664e-02 -1.897727e-02 -1.383555e-02 -9.357504e-03 
-8.170819e-03 -2.012469e-03 3.877992e-03 9.827773e-03 1.609504e-02 2.279944e-02 2.994305e-02 3.737974e-02 4.489142e-02 5.212351e-02 5.877403e-02 6.442215e-02 6.883163e-02 7.169198e-02 7.293833e-02 7.245824e-02 7.038377e-02 6.658860e-02 6.124233e-02 5.380661e-02 4.423482e-02 3.161560e-02 1.575063e-02 -3.824389e-03 -2.674643e-02 -5.197886e-02 -7.778459e-02 -1.016891e-01 -1.211121e-01 -1.341190e-01 -1.394662e-01 -1.378478e-01 -1.305526e-01 -1.200320e-01 -1.082420e-01 -9.647599e-02 -8.528094e-02 -7.415425e-02 -6.294413e-02 -5.129887e-02 -3.984240e-02 -2.944690e-02 -2.123576e-02 -1.640548e-02 -1.543215e-02 -1.867800e-02 -2.563966e-02 -3.562665e-02 -4.761813e-02 -6.028208e-02 -7.255130e-02 -8.298396e-02 -9.077955e-02 -9.494895e-02 -9.530701e-02 -9.174796e-02 -8.489575e-02 -7.545954e-02 -6.454312e-02 -5.307540e-02 -4.197171e-02 -3.176936e-02 -2.277813e-02 -1.498231e-02 
-1.228589e-02 -1.787462e-03 8.213992e-03 1.827676e-02 2.884216e-02 4.011780e-02 5.209861e-02 6.454654e-02 7.707154e-02 8.907218e-02 1.000030e-01 1.091215e-01 1.159912e-01 1.200455e-01 1.211446e-01 1.191342e-01 1.142371e-01 1.064271e-01 9.603076e-02 8.238995e-02 6.550199e-02 4.402398e-02 1.772769e-02 -1.403506e-02 -5.047485e-02 -8.962740e-02 -1.282587e-01 -1.618652e-01 -1.858866e-01 -1.971004e-01 -1.939301e-01 -1.785832e-01 -1.546558e-01 -1.278386e-01 -1.026136e-01 -8.176751e-02 -6.600768e-02 -5.367046e-02 -4.329768e-02 -3.303929e-02 -2.291853e-02 -1.365221e-02 -6.794431e-03 -4.234584e-03 -6.929478e-03 -1.566547e-02 -2.990551e-02 -4.869647e-02 -7.057565e-02 -9.343703e-02 -1.155930e-01 -1.346558e-01 -1.492247e-01 -1.575996e-01 -1.593277e-01 -1.541994e-01 -1.431694e-01 -1.274824e-01 -1.090097e-01 -8.943713e-02 -7.036897e-02 -5.281860e-02 -3.733971e-02 -2.395114e-02 
-1.836735e-02 -8.026761e-04 1.585734e-02 3.255109e-02 5.002202e-02 6.863927e-02 8.840524e-02 1.089532e-01 1.296222e-01 1.493911e-01 1.672856e-01 1.819720e-01 1.926315e-01 1.982177e-01 1.984307e-01 1.930726e-01 1.825940e-01 1.672387e-01 1.478165e-01 1.235123e-01 9.465104e-02 5.914162e-02 1.684913e-02 -3.319899e-02 -8.948495e-02 -1.484085e-01 -2.041837e-01 -2.487275e-01 -2.740673e-01 -2.748628e-01 -2.492698e-01 -2.026839e-01 -1.435383e-01 -8.390595e-02 -3.345997e-02 2.227427e-03 2.218443e-02 3.068530e-02 3.223296e-02 3.213125e-02 3.227263e-02 3.281187e-02 3.191314e-02 2.665305e-02 1.520900e-02 -4.103166e-03 -3.101295e-02 -6.439490e-02 -1.023890e-01 -1.417947e-01 -1.801264e-01 -2.134990e-01 -2.395968e-01 -2.555021e-01 -2.602548e-01 -2.533746e-01 -2.362558e-01 -2.109576e-01 -1.805662e-01 -1.480202e-01 -1.160746e-01 -8.656932e-02 -6.049509e-02 -3.796040e-02 
-2.724573e-02 1.481851e-03 2.862968e-02 5.573014e-02 8.403433e-02 1.141969e-01 1.462821e-01 1.797616e-01 2.135461e-01 2.459163e-01 2.751419e-01 2.988187e-01 3.154964e-01 3.231647e-01 3.212943e-01 3.094864e-01 2.886436e-01 2.597654e-01 2.245638e-01 1.824751e-01 1.344116e-01 7.735536e-02 1.132930e-02 -6.518416e-02 -1.494450e-01 -2.352694e-01 -3.125534e-01 -3.672205e-01 -3.855726e-01 -3.587810e-01 -2.849407e-01 -1.755552e-01 -4.817407e-02 7.302406e-02 1.687005e-01 2.279103e-01 2.493460e-01 2.424822e-01 2.180312e-01 1.886475e-01 1.605743e-01 1.366028e-01 1.149413e-01 9.125614e-02 6.214617e-02 2.410395e-02 -2.352695e-02 -7.987203e-02 -1.428891e-01 -2.080300e-01 -2.717791e-01 -3.280695e-01 -3.731295e-01 -4.021056e-01 -4.130467e-01 -4.049040e-01 -3.795660e-01 -3.402575e-01 -2.919070e-01 -2.394333e-01 -1.874540e-01 -1.391923e-01 -9.639876e-02 -5.939211e-02 
-3.988372e-02 5.873064e-03 4.898626e-02 9.192057e-02 1.367624e-01 1.847008e-01 2.360073e-01 2.899843e-01 3.448874e-01 3.977699e-01 4.455706e-01 4.839267e-01 5.103652e-01 5.211090e-01 5.151931e-01 4.917639e-01 4.526380e-01 4.004123e-01 3.390356e-01 2.685364e-01 1.915031e-01 1.031340e-01 3.866990e-03 -1.090645e-01 -2.312263e-01 -3.522929e-01 -4.553296e-01 -5.162345e-01 -5.118958e-01 -4.279201e-01 -2.625956e-01 -3.831040e-02 2.112137e-01 4.407230e-01 6.133101e-01 7.089224e-01 7.251443e-01 6.811604e-01 5.991116e-01 5.054875e-01 4.155593e-01 3.378971e-01 2.719249e-01 2.114077e-01 1.502467e-01 8.144871e-02 1.988646e-03 -8.844293e-02 -1.883714e-01 -2.916518e-01 -3.937059e-01 -4.852406e-01 -5.604042e-01 -6.112346e-01 -6.340303e-01 -6.265877e-01 -5.912196e-01 -5.327061e-01 -4.586199e-01 -3.768860e-01 -2.950148e-01 -2.184671e-01 -1.502780e-01 -9.119911e-02 
-5.734895e-02 1.352931e-02 8.022590e-02 1.466112e-01 2.161591e-01 2.910107e-01 3.719433e-01 4.580928e-01 5.465677e-01 6.322497e-01 7.096548e-01 7.712442e-01 8.134525e-01 8.296263e-01 8.184213e-01 7.770351e-01 7.085216e-01 6.185963e-01 5.151882e-01 4.008631e-01 2.810794e-01 1.486770e-01 4.412901e-03 -1.570394e-01 -3.287436e-01 -4.944239e-01 -6.261709e-01 -6.840219e-01 -6.302498e-01 -4.418652e-01 -1.181702e-01 3.004410e-01 7.540973e-01 1.162365e+00 1.459472e+00 1.609598e+00 1.607808e+00 1.489992e+00 1.297397e+00 1.081435e+00 8.735263e-01 6.940387e-01 5.453835e-01 4.190746e-01 3.044799e-01 1.882945e-01 6.258307e-02 -7.600095e-02 -2.279649e-01 -3.855479e-01 -5.431817e-01 -6.870946e-01 -8.083823e-01 -8.944298e-01 -9.385079e-01 -9.363409e-01 -8.903813e-01 -8.073115e-01 -6.983229e-01 -5.756580e-01 -4.511367e-01 -3.336825e-01 -2.284147e-01 -1.369181e-01 
-8.061207e-02 2.591999e-02 1.261897e-01 2.261674e-01 3.315568e-01 4.461694e-01 5.717924e-01 7.072847e-01 8.475680e-01 9.833829e-01 1.105150e+00 1.200652e+00 1.266769e+00 1.293248e+00 1.278636e+00 1.214681e+00 1.104851e+00 9.591079e-01 7.933922e-01 6.148219e-01 4.358255e-01 2.445723e-01 4.242796e-02 -1.812985e-01 -4.166367e-01 -6.379650e-01 -8.008335e-01 -8.402682e-01 -6.971854e-01 -3.370199e-01 2.385812e-01 9.612359e-01 1.731649e+00 2.416255e+00 2.903094e+00 3.133051e+00 3.093787e+00 2.848357e+00 2.467290e+00 2.041875e+00 1.631325e+00 1.276775e+00 9.878466e-01 7.535295e-01 5.560886e-01 3.714484e-01 1.823523e-01 -2.064412e-02 -2.425441e-01 -4.740225e-01 -7.090383e-01 -9.274776e-01 -1.116524e+00 -1.256718e+00 -1.336482e+00 -1.348065e+00 -1.293420e+00 -1.181409e+00 -1.027848e+00 -8.508753e-01 -6.683887e-01 -4.944225e-01 -3.373315e-01 -2.001709e-01 
-1.102083e-01 4.507483e-02 1.915704e-01 3.382581e-01 4.943505e-01 6.662912e-01 8.574156e-01 1.065374e+00 1.279975e+00 1.483805e+00 1.660316e+00 1.793212e+00 1.887013e+00 1.931545e+00 1.929136e+00 1.854815e+00 1.705666e+00 1.493661e+00 1.245074e+00 9.784704e-01 7.190316e-01 4.496822e-01 1.722362e-01 -1.336567e-01 -4.526425e-01 -7.454567e-01 -9.410507e-01 -9.378398e-01 -6.499147e-01 -2.924516e-02 9.155424e-01 2.076661e+00 3.302651e+00 4.383397e+00 5.142243e+00 5.484296e+00 5.381707e+00 4.939471e+00 4.268076e+00 3.519888e+00 2.794724e+00 2.168310e+00 1.662292e+00 1.264122e+00 9.460280e-01 6.671710e-01 3.946561e-01 1.086620e-01 -2.040388e-01 -5.325664e-01 -8.712942e-01 -1.191478e+00 -1.475310e+00 -1.694364e+00 -1.829687e+00 -1.868184e+00 -1.810316e+00 -1.667180e+00 -1.460205e+00 -1.215052e+00 -9.576979e-01 -7.093002e-01 -4.829612e-01 -2.841570e-01 
-1.460926e-01 7.297683e-02 2.804446e-01 4.893952e-01 7.141383e-01 9.646445e-01 1.245489e+00 1.549599e+00 1.854686e+00 2.127430e+00 2.341906e+00 2.484272e+00 2.587675e+00 2.656275e+00 2.707433e+00 2.679031e+00 2.541198e+00 2.290007e+00 1.962954e+00 1.593316e+00 1.235477e+00 8.649930e-01 4.870067e-01 6.561419e-02 -3.745098e-01 -7.692361e-01 -1.007334e+00 -9.339076e-01 -4.371613e-01 5.400750e-01 1.974845e+00 3.710732e+00 5.534758e+00 7.140564e+00 8.260667e+00 8.756572e+00 8.565960e+00 7.857252e+00 6.793071e+00 5.601554e+00 4.439145e+00 3.430029e+00 2.618481e+00 1.991911e+00 1.510284e+00 1.109182e+00 7.314673e-01 3.418240e-01 -8.561272e-02 -5.374729e-01 -1.009246e+00 -1.459485e+00 -1.866401e+00 -2.191462e+00 -2.405989e+00 -2.489088e+00 -2.437811e+00 -2.265151e+00 -1.998734e+00 -1.673192e+00 -1.324518e+00 -9.831743e-01 -6.688454e-01 -3.907044e-01 
-1.870217e-01 1.118762e-01 3.964080e-01 6.848408e-01 9.981515e-01 1.349469e+00 1.741304e+00 2.151742e+00 2.531118e+00 2.817232e+00 2.974345e+00 3.012308e+00 3.035779e+00 3.107706e+00 3.305597e+00 3.488444e+00 3.538041e+00 3.385782e+00 3.057304e+00 2.608707e+00 2.145263e+00 1.640369e+00 1.108033e+00 4.921373e-01 -1.559886e-01 -7.265494e-01 -1.038827e+00 -8.691469e-01 -1.031409e-01 1.315042e+00 3.328337e+00 5.736087e+00 8.271316e+00 1.050646e+01 1.206915e+01 1.275635e+01 1.245091e+01 1.142410e+01 9.906700e+00 8.210513e+00 6.538266e+00 5.071597e+00 3.883691e+00 2.969507e+00 2.280646e+00 1.725759e+00 1.214688e+00 6.926342e-01 1.164646e-01 -4.927238e-01 -1.130411e+00 -1.734239e+00 -2.281328e+00 -2.728742e+00 -3.040599e+00 -3.186171e+00 -3.155013e+00 -2.959475e+00 -2.632698e+00 -2.218970e+00 -1.765733e+00 -1.314829e+00 -8.945078e-01 -5.192262e-01 
-2.310037e-01 1.624674e-01 5.389433e-01 9.221641e-01 1.339987e+00 1.804202e+00 2.304640e+00 2.782467e+00 3.135657e+00 3.260958e+00 3.126222e+00 2.803093e+00 2.531084e+00 2.518176e+00 3.012463e+00 3.744494e+00 4.375830e+00 4.654611e+00 4.565080e+00 4.164165e+00 3.641189e+00 2.963814e+00 2.164119e+00 1.168425e+00 9.537008e-02 -8.356327e-01 -1.332349e+00 -1.079907e+00 -2.982726e-02 1.851973e+00 4.437537e+00 7.518196e+00 1.079867e+01 1.372518e+01 1.577025e+01 1.666428e+01 1.620654e+01 1.484589e+01 1.297689e+01 1.090716e+01 8.811027e+00 6.918022e+00 5.366529e+00 4.156360e+00 3.239835e+00 2.504998e+00 1.820202e+00 1.111518e+00 3.200812e-01 -5.089710e-01 -1.356116e+00 -2.114405e+00 -2.775643e+00 -3.310176e+00 -3.699879e+00 -3.910198e+00 -3.912656e+00 -3.708076e+00 -3.329248e+00 -2.828429e+00 -2.264962e+00 -1.693677e+00 -1.153469e+00 -6.659581e-01 
-2.747265e-01 2.242441e-01 7.034113e-01 1.190777e+00 1.717842e+00 2.283252e+00 2.842318e+00 3.263949e+00 3.368710e+00 3.017743e+00 2.211755e+00 1.097519e+00 7.944059e-02 -2.426101e-01 8.863451e-01 2.865274e+00 4.746152e+00 5.988417e+00 6.506977e+00 6.400465e+00 5.937756e+00 5.032492e+00 3.710883e+00 1.886953e+00 -1.405360e-01 -1.882773e+00 -2.828994e+00 -2.570696e+00 -1.285259e+00 1.006049e+00 3.966281e+00 7.513240e+00 1.143460e+01 1.502404e+01 1.751569e+01 1.847523e+01 1.767983e+01 1.592923e+01 1.420700e+01 1.256110e+01 1.059312e+01 8.584644e+00 6.855621e+00 5.439994e+00 4.316010e+00 3.372264e+00 2.430693e+00 1.407439e+00 2.446725e-01 -9.415364e-01 -2.088716e+00 -2.983895e+00 -3.646424e+00 -4.084091e+00 -4.399142e+00 -4.604333e+00 -4.633564e+00 -4.439116e+00 -4.029821e+00 -3.457227e+00 -2.790386e+00 -2.098078e+00 -1.431973e+00 -8.230185e-01 
-3.149326e-01 2.928552e-01 8.766693e-01 1.464069e+00 2.081225e+00 2.690362e+00 3.179737e+00 3.307216e+00 2.823816e+00 1.608899e+00 -2.891122e-01 -2.786050e+00 -5.355055e+00 -6.017034e+00 -3.069941e+00 1.390330e+00 5.292936e+00 7.879343e+00 9.113368e+00 9.456787e+00 9.184141e+00 7.959890e+00 5.643285e+00 2.100351e+00 -2.054877e+00 -5.656407e+00 -7.750227e+00 -7.721198e+00 -6.313594e+00 -3.802448e+00 -1.109828e+00 2.156106e+00 6.297711e+00 1.060791e+01 1.326137e+01 1.356927e+01 1.168979e+01 9.116403e+00 9.282778e+00 1.080787e+01 1.060988e+01 9.205908e+00 7.802190e+00 6.490288e+00 5.279528e+00 4.115866e+00 2.763072e+00 1.170077e+00 -6.459135e-01 -2.438447e+00 -4.096646e+00 -5.165178e+00 -5.682827e+00 -5.569786e+00 -5.327370e+00 -5.247782e+00 -5.220185e+00 -5.048251e+00 -4.647003e+00 -4.038459e+00 -3.293638e+00 -2.494861e+00 -1.709011e+00 -9.790999e-01 
-3.478671e-01 3.617735e-01 1.039900e+00 1.706143e+00 2.365475e+00 2.915056e+00 3.144514e+00 2.692839e+00 1.317876e+00 -1.014201e+00 -4.389270e+00 -9.290312e+00 -1.522191e+01 -1.360900e+01 -3.450121e+00 4.863964e+00 1.006983e+01 1.353922e+01 1.406773e+01 1.394717e+01 1.352865e+01 1.172130e+01 7.823832e+00 1.436023e+00 -6.833635e+00 -1.463345e+01 -1.952457e+01 -2.023159e+01 -1.857640e+01 -1.630819e+01 -1.595040e+01 -1.527815e+01 -1.201303e+01 -6.086655e+00 -3.931237e+00 -7.466316e+00 -1.289611e+01 -1.763211e+01 -1.203128e+01 -3.830198e-01 6.727220e+00 8.271149e+00 7.901393e+00 6.992086e+00 5.777564e+00 4.335815e+00 2.356582e+00 -9.313289e-02 -2.684400e+00 -4.985207e+00 -7.561524e+00 -9.571081e+00 -1.036905e+01 -9.018572e+00 -7.106172e+00 -5.981706e+00 -5.606994e+00 -5.421936e+00 -5.075820e+00 -4.489313e+00 -3.713710e+00 -2.841502e+00 -1.957351e+00 -1.119466e+00 
-3.708355e-01 4.213871e-01 1.169937e+00 1.876334e+00 2.507178e+00 2.867771e+00 2.639377e+00 1.367849e+00 -1.087064e+00 -4.837998e+00 -1.056831e+01 -1.863475e+01 -3.150620e+01 -1.515016e+01 2.038172e+01 2.885943e+01 2.662993e+01 2.954988e+01 2.573516e+01 2.171645e+01 1.923997e+01 1.609940e+01 1.063929e+01 2.123859e+00 -1.091639e+01 -2.660880e+01 -3.746710e+01 -3.971461e+01 -3.763854e+01 -3.879226e+01 -4.703936e+01 -5.460771e+01 -5.549881e+01 -4.297443e+01 -3.948459e+01 -6.033485e+01 -6.881826e+01 -6.728267e+01 -6.082893e+01 -4.334932e+01 -1.431617e+01 3.000452e+00 7.284832e+00 7.245784e+00 5.614541e+00 3.673173e+00 9.796248e-01 -2.049172e+00 -4.130608e+00 -4.449087e+00 -7.707079e+00 -1.415130e+01 -1.870704e+01 -1.628381e+01 -1.091506e+01 -7.202478e+00 -5.818917e+00 -5.474566e+00 -5.219878e+00 -4.728358e+00 -3.988287e+00 -3.093455e+00 -2.148028e+00 -1.228978e+00 
-3.809471e-01 4.638545e-01 1.248450e+00 1.950106e+00 2.483848e+00 2.559892e+00 1.753795e+00 -4.742578e-01 -4.366695e+00 -1.088911e+01 -2.051299e+01 -1.910745e+01 -2.915505e+01 -4.544777e+01 3.234430e+01 7.371614e+01 4.774585e+01 5.506534e+01 4.962616e+01 3.621414e+01 2.744416e+01 2.146213e+01 1.650276e+01 1.283087e+01 4.072710e+00 -1.597084e+01 -2.758840e+01 -2.874622e+01 -2.087570e+01 -2.982679e+01 -1.004434e+02 -1.238733e+02 -1.444967e+02 -1.163238e+02 -8.037561e+01 -1.010698e+02 -6.072965e+01 -5.113496e+01 -1.494152e+02 -2.268289e+02 -1.296499e+02 -2.813846e+01 4.836198e+00 9.935225e+00 6.201133e+00 2.761023e+00 -2.385769e-01 -2.296193e+00 -1.832331e-01 1.198557e+01 1.597549e+01 -6.362315e+00 -2.796318e+01 -2.861585e+01 -1.816564e+01 -9.519081e+00 -5.997964e+00 -5.187515e+00 -5.022210e+00 -4.696872e+00 -4.067209e+00 -3.211842e+00 -2.254404e+00 -1.292965e+00 
-3.769729e-01 4.823507e-01 1.264515e+00 1.922695e+00 2.323744e+00 2.101859e+00 7.275492e-01 -2.606255e+00 -9.049897e+00 -2.177517e+01 -3.465335e+01 2.940308e+01 1.747988e+02 2.813578e+01 -1.704258e+02 -1.040396e+02 -1.215116e+01 4.783562e+01 7.963143e+01 5.964432e+01 4.118697e+01 3.212283e+01 3.339021e+01 4.643543e+01 6.285580e+01 6.218566e+01 7.462910e+01 1.114913e+02 1.738593e+02 1.525316e+02 -5.553248e+01 -1.056086e+02 -9.750644e+01 -5.794742e+01 1.063553e+01 2.422813e+01 1.093498e+02 1.184965e+02 -9.593783e+01 -4.153646e+02 -3.908978e+02 -1.660016e+02 -2.319747e+01 1.846198e+01 1.222055e+01 5.680304e+00 3.532652e+00 4.071872e+00 1.010346e+01 5.019220e+01 9.926248e+01 5.622739e+01 -1.857680e+01 -4.092238e+01 -2.822932e+01 -1.298916e+01 -6.231162e+00 -4.607629e+00 -4.496373e+00 -4.386858e+00 -3.931294e+00 -3.175668e+00 -2.259300e+00 -1.301745e+00 
-3.567139e-01 4.772029e-01 1.222158e+00 1.817612e+00 2.098852e+00 1.675507e+00 -8.444113e-02 -4.350750e+00 -1.411526e+01 -3.735514e+01 -6.613342e+01 5.330121e+00 2.548355e+02 2.195430e+02 -1.851398e+02 -2.700239e+02 -2.613290e+02 -1.756162e+02 6.823502e+01 8.232660e+01 6.258182e+01 5.889287e+01 8.006483e+01 1.137456e+02 1.472196e+02 1.325958e+02 1.518426e+02 2.762846e+02 3.664990e+02 3.163260e+02 1.683935e+02 1.156061e+02 1.349976e+02 1.121859e+02 9.296995e+01 7.541872e+01 5.307771e+01 9.672933e+01 1.553680e+02 -1.188954e+02 -4.354538e+02 -2.937816e+02 -5.951051e+01 2.199719e+01 2.855999e+01 1.981661e+01 2.275423e+01 2.087941e+01 -3.002948e+00 3.540080e+01 2.171768e+02 2.594434e+02 7.995047e+01 -3.562961e+01 -3.519311e+01 -1.576610e+01 -6.129168e+00 -3.741077e+00 -3.706415e+00 -3.840358e+00 -3.596535e+00 -2.984999e+00 -2.157027e+00 -1.250062e+00 
-3.218250e-01 4.463434e-01 1.122279e+00 1.644017e+00 1.841020e+00 1.353636e+00 -4.527206e-01 -4.614315e+00 -1.401142e+01 -3.807410e+01 -8.646216e+01 -1.081822e+02 1.825557e+01 2.236926e+02 8.655660e+01 -8.397550e+01 -3.607546e+02 -5.401035e+02 -1.832126e+02 5.486404e+01 6.701296e+01 9.080511e+01 1.273291e+02 8.062487e+01 -1.580004e+00 -1.694600e+02 -1.909015e+02 1.157406e+02 3.317587e+02 3.639045e+02 3.321325e+02 1.402842e+02 1.609234e+01 -2.573981e+01 -5.122646e+01 -6.828104e+01 -1.502186e+02 -8.275594e+01 1.245374e+02 7.731886e+01 -3.238994e+02 -4.540075e+02 -2.424754e+02 -1.866957e+01 3.378019e+01 3.618078e+01 6.248970e+01 4.107296e+01 1.897213e+01 -3.848663e+01 1.251279e+02 3.688014e+02 1.875981e+02 -2.031120e+01 -3.171761e+01 -1.403769e+01 -4.706665e+00 -2.530177e+00 -2.754642e+00 -3.142521e+00 -3.108982e+00 -2.660018e+00 -1.954437e+00 -1.140216e+00 
-2.720036e-01 3.949500e-01 9.778575e-01 1.425313e+00 1.590351e+00 1.190715e+00 -3.141663e-01 -3.622962e+00 -1.028027e+01 -2.559247e+01 -6.236234e+01 -1.171425e+02 -1.145124e+02 4.801449e+00 1.744929e+02 1.953018e+02 -8.938907e+01 -4.591541e+02 -4.359859e+02 -1.598668e+02 -6.969026e+01 2.957860e+01 7.689098e+01 -1.647784e+02 -3.618428e+02 -4.759748e+02 -4.361785e+02 -1.235131e+02 3.113362e+01 4.841969e+01 3.499057e+01 -1.224785e+02 -2.307451e+02 -2.056819e+02 -1.411031e+02 -9.770452e+01 -1.034742e+02 -7.092943e+01 -3.611132e+01 3.475111e+01 -4.600109e+01 -3.650900e+02 -5.349006e+02 -2.374488e+02 -1.602408e+01 -2.174769e+01 6.318949e+01 -6.706461e+01 -1.032507e+02 -8.385169e+00 7.772116e+01 2.284927e+02 1.128228e+02 -2.270960e+01 -2.269705e+01 -8.665402e+00 -2.274612e+00 -1.227002e+00 -1.830377e+00 -2.409706e+00 -2.533046e+00 -2.233110e+00 -1.666256e+00 -9.776488e-01 
-2.120825e-01 3.212986e-01 7.872986e-01 1.151236e+00 1.307659e+00 1.072534e+00 5.198155e-02 -2.175655e+00 -6.252849e+00 -1.372082e+01 -3.083187e+01 -6.212731e+01 -8.773821e+01 -1.094235e+02 3.331299e+00 1.530522e+02 2.206145e+02 1.074651e+02 -3.290248e+02 -4.740935e+02 -3.558071e+02 -1.722184e+02 -1.245324e+02 -3.465338e+02 -3.310870e+02 -2.972726e+02 -3.231274e+02 -2.436153e+02 -2.035396e+02 -2.193046e+02 -2.028930e+02 -1.909714e+02 -1.670257e+02 -1.205815e+02 -6.518480e+01 -2.858661e+01 -1.263863e+01 -1.232609e+01 -2.445785e+01 6.739196e+01 1.463107e+02 1.031759e+01 -2.501062e+02 -2.425658e+02 -2.040969e+02 -2.979977e+02 -1.822794e+02 -2.246033e+02 -1.574992e+02 1.728082e+02 2.117945e+02 6.723899e+01 -1.333981e+01 -2.751832e+01 -1.388507e+01 -3.749584e+00 -3.335971e-01 -2.923992e-01 -1.096594e+00 -1.721177e+00 -1.916194e+00 -1.733606e+00 -1.310303e+00 -7.723341e-01 
-1.442613e-01 2.285650e-01 5.555205e-01 8.170569e-01 9.509577e-01 8.566058e-01 2.957025e-01 -9.865010e-01 -3.231452e+00 -6.547015e+00 -1.218516e+01 -2.197287e+01 -3.142631e+01 -6.132338e+01 -1.404900e+02 -1.184719e+02 1.063999e+02 3.242049e+02 1.981051e+02 1.735110e+00 -8.614978e+01 -1.330919e+02 -2.717779e+02 -2.849498e+02 -6.059196e+01 -1.074710e+02 -2.000192e+02 -1.984874e+02 -1.378423e+02 -1.088766e+02 -9.584231e+01 -8.710725e+01 -6.930357e+01 -4.632352e+01 -2.236197e+01 -3.548904e+00 5.811080e+00 1.623530e+00 -1.420421e+01 8.179229e+00 7.095105e+01 -3.256272e+01 -1.718764e+02 -1.601561e+02 -1.322923e+02 -2.144369e+02 -2.363378e+02 -3.265080e+01 1.212717e+02 1.759415e+02 1.063071e+02 -2.016658e+01 -3.434474e+01 -2.003818e+01 -6.808030e+00 -8.705807e-01 5.161609e-01 1.284381e-01 -5.886122e-01 -1.100543e+00 -1.282750e+00 -1.183295e+00 -9.026070e-01 -5.334667e-01 
-7.304563e-02 1.188547e-01 2.877394e-01 4.255342e-01 5.046540e-01 4.846344e-01 2.563212e-01 -2.976140e-01 -1.278815e+00 -2.539779e+00 -3.902462e+00 -5.247615e+00 -5.315735e+00 -1.720274e+01 -6.883179e+01 -1.414452e+02 -8.076934e+01 1.995925e+02 5.956430e+02 6.514485e+02 4.362807e+02 1.493141e+02 -1.745882e+02 -1.458325e+02 -2.683326e-01 -6.004107e+01 -8.149311e+01 -6.547974e+01 -5.137616e+01 -4.447064e+01 -3.994235e+01 -3.540959e+01 -2.834950e+01 -1.931356e+01 -9.754806e+00 -1.490944e+00 3.053282e+00 1.890393e+00 -5.895669e+00 -3.867770e+00 4.500022e+01 -7.384698e+01 -2.082120e+02 -1.122959e+02 1.569405e+02 2.333741e+02 4.006072e+01 1.058183e+02 1.713467e+02 3.846942e+01 -3.047032e+01 -4.060535e+01 -2.426261e+01 -9.830721e+00 -2.434750e+00 9.446624e-02 4.801200e-01 1.593768e-01 -2.517446e-01 -5.360538e-01 -6.430833e-01 -6.002172e-01 -4.603664e-01 -2.725303e-01 
4.003224e-14 5.974408e-14 7.112696e-14 1.166268e-13 1.748581e-13 2.130129e-13 3.110073e-13 2.969442e-13 2.208240e-13 1.004960e-13 1.310770e-14 -4.553558e-13 -3.519830e-12 -1.161074e-11 -1.578622e-11 -4.043139e-12 7.606934e-12 4.809826e-11 1.374151e-10 2.270138e-10 1.786230e-10 -4.116719e-13 -1.184012e-10 -8.352549e-11 1.892449e-11 1.633083e-11 9.758945e-12 6.900314e-13 -3.101292e-12 -3.401467e-12 -1.494723e-12 1.200310e-13 1.252791e-12 1.142074e-12 6.881371e-13 -2.896402e-13 -1.575161e-12 -2.999772e-12 -9.096157e-12 -2.646026e-11 -3.146964e-11 -1.798018e-11 -5.218373e-11 -5.741522e-11 1.679606e-11 3.859434e-11 -1.520355e-11 1.172097e-11 1.381742e-11 -7.423300e-12 6.810885e-12 5.301969e-12 5.870753e-12 4.660308e-12 3.281319e-12 2.155976e-12 1.355653e-12 8.621222e-13 5.177766e-13 2.806887e-13 2.107092e-13 1.279470e-13 8.689590e-14 6.519626e-14 
7.304563e-02 -1.188547e-01 -2.877394e-01 -4.255342e-01 -5.046540e-01 -4.846344e-01 -2.563212e-01 2.976140e-01 1.278815e+00 2.539779e+00 3.902462e+00 5.247615e+00 5.315735e+00 1.720274e+01 6.883179e+01 1.414452e+02 8.076934e+01 -1.995925e+02 -5.956430e+02 -6.514485e+02 -4.362807e+02 -1.493141e+02 1.745882e+02 1.458325e+02 2.683326e-01 6.004107e+01 8.149311e+01 6.547974e+01 5.137616e+01 4.447064e+01 3.994235e+01 3.540959e+01 2.834950e+01 1.931356e+01 9.754806e+00 1.490944e+00 -3.053282e+00 -1.890393e+00 5.895669e+00 3.867770e+00 -4.500022e+01 7.384698e+01 2.082120e+02 1.122959e+02 -1.569405e+02 -2.333741e+02 -4.006072e+01 -1.058183e+02 -1.713467e+02 -3.846942e+01 3.047032e+01 4.060535e+01 2.426261e+01 9.830721e+00 2.434750e+00 -9.446624e-02 -4.801200e-01 -1.593768e-01 2.517446e-01 5.360538e-01 6.430833e-01 6.002172e-01 4.603664e-01 2.725303e-01 