# vtk DataFile Version 2.0
Comment goes here
ASCII

DATASET STRUCTURED_POINTS
DIMENSIONS    64   64   1

ORIGIN    0.000   0.000   0.000
SPACING   0.0781250.078125   1.000

POINT_DATA   4096
SCALARS P double
LOOKUP_TABLE default

6.130814e+01 6.655394e+01 6.849256e+01 7.785682e+01 7.943329e+01 9.278529e+01 9.354244e+01 1.104852e+02 1.099350e+02 1.297980e+02 1.274824e+02 1.493551e+02 1.449248e+02 1.677378e+02 1.610381e+02 1.836829e+02 1.748261e+02 1.962890e+02 1.856897e+02 2.051603e+02 1.935112e+02 2.104350e+02 1.986174e+02 2.126788e+02 2.016200e+02 2.126727e+02 2.031820e+02 2.111622e+02 2.037887e+02 2.086527e+02 2.036032e+02 2.053127e+02 2.024501e+02 2.010039e+02 1.999188e+02 1.954053e+02 1.955343e+02 1.881725e+02 1.889263e+02 1.790746e+02 1.799461e+02 1.680759e+02 1.687074e+02 1.553560e+02 1.555628e+02 1.412857e+02 1.410430e+02 1.263843e+02 1.257922e+02 1.112783e+02 1.105173e+02 9.666696e+01 9.595401e+01 8.329372e+01 8.284233e+01 7.191338e+01 7.189956e+01 6.325237e+01 6.378673e+01 5.796116e+01 5.906787e+01 5.656172e+01 5.816456e+01 5.939260e+01 
1.088449e+02 1.165339e+02 1.214982e+02 1.335000e+02 1.383324e+02 1.543512e+02 1.585207e+02 1.779625e+02 1.808858e+02 2.028649e+02 2.039709e+02 2.273655e+02 2.261824e+02 2.497416e+02 2.459956e+02 2.684847e+02 2.621868e+02 2.825373e+02 2.740306e+02 2.914533e+02 2.813955e+02 2.954240e+02 2.846978e+02 2.951534e+02 2.847178e+02 2.916194e+02 2.823357e+02 2.857927e+02 2.782722e+02 2.784075e+02 2.729217e+02 2.698487e+02 2.663257e+02 2.601774e+02 2.582759e+02 2.492575e+02 2.484868e+02 2.369179e+02 2.367667e+02 2.230894e+02 2.231291e+02 2.078794e+02 2.078255e+02 1.915845e+02 1.913143e+02 1.746619e+02 1.741982e+02 1.576880e+02 1.571646e+02 1.413230e+02 1.409432e+02 1.262867e+02 1.262828e+02 1.133358e+02 1.139321e+02 1.032345e+02 1.046142e+02 9.671164e+01 9.898835e+01 9.440649e+01 9.760224e+01 9.680734e+01 1.008363e+02 1.041863e+02 
5.928727e+01 6.448195e+01 6.661266e+01 7.604088e+01 7.784486e+01 9.139341e+01 9.239318e+01 1.096690e+02 1.093463e+02 1.296623e+02 1.275203e+02 1.499261e+02 1.455732e+02 1.689398e+02 1.621851e+02 1.853376e+02 1.762760e+02 1.981456e+02 1.872028e+02 2.069526e+02 1.948654e+02 2.119481e+02 1.996684e+02 2.138032e+02 2.023401e+02 2.134240e+02 2.036586e+02 2.116600e+02 2.041830e+02 2.090657e+02 2.040850e+02 2.057951e+02 2.031374e+02 2.016474e+02 2.008444e+02 1.962215e+02 1.966453e+02 1.891042e+02 1.901118e+02 1.800240e+02 1.810742e+02 1.689351e+02 1.696586e+02 1.560288e+02 1.562472e+02 1.416972e+02 1.414036e+02 1.264808e+02 1.257977e+02 1.110235e+02 1.101537e+02 9.603991e+01 9.522035e+01 8.228970e+01 8.175102e+01 7.054761e+01 7.047954e+01 6.156334e+01 6.208675e+01 5.601305e+01 5.715882e+01 5.444569e+01 5.614077e+01 5.722689e+01 
1.042002e+02 1.119139e+02 1.173151e+02 1.296098e+02 1.349709e+02 1.515797e+02 1.563297e+02 1.766523e+02 1.801437e+02 2.032400e+02 2.048153e+02 2.294572e+02 2.285474e+02 2.533401e+02 2.495851e+02 2.731443e+02 2.665081e+02 2.876514e+02 2.784929e+02 2.963862e+02 2.854511e+02 2.996605e+02 2.879787e+02 2.984160e+02 2.871199e+02 2.939106e+02 2.840155e+02 2.873480e+02 2.795556e+02 2.795765e+02 2.741628e+02 2.709568e+02 2.677760e+02 2.614229e+02 2.600127e+02 2.506751e+02 2.504162e+02 2.384054e+02 2.386829e+02 2.244693e+02 2.247932e+02 2.089618e+02 2.090299e+02 1.922076e+02 1.919132e+02 1.747055e+02 1.741063e+02 1.570674e+02 1.563390e+02 1.399796e+02 1.393663e+02 1.241849e+02 1.239568e+02 1.104706e+02 1.108853e+02 9.964352e+01 1.009117e+02 9.248552e+01 9.474267e+01 8.969623e+01 9.297988e+01 9.182801e+01 9.606170e+01 9.921738e+01 
5.308535e+01 5.810244e+01 6.082112e+01 7.042371e+01 7.293053e+01 8.706472e+01 8.882245e+01 1.071134e+02 1.075122e+02 1.292270e+02 1.276480e+02 1.517124e+02 1.476277e+02 1.727212e+02 1.658193e+02 1.905492e+02 1.808618e+02 2.039785e+02 1.919617e+02 2.125413e+02 1.990694e+02 2.165945e+02 2.028470e+02 2.171583e+02 2.044110e+02 2.155568e+02 2.049259e+02 2.129835e+02 2.051949e+02 2.101498e+02 2.054116e+02 2.071500e+02 2.051668e+02 2.035660e+02 2.036736e+02 1.987276e+02 2.000895e+02 1.919976e+02 1.938000e+02 1.829806e+02 1.845786e+02 1.716089e+02 1.726017e+02 1.581216e+02 1.583573e+02 1.429846e+02 1.425161e+02 1.268058e+02 1.258271e+02 1.102794e+02 1.090627e+02 9.416217e+01 9.300567e+01 7.926117e+01 7.844688e+01 6.641055e+01 6.616955e+01 5.643090e+01 5.691477e+01 5.007645e+01 5.133618e+01 4.797818e+01 4.995057e+01 5.058517e+01 
9.457663e+01 1.022908e+02 1.085862e+02 1.214376e+02 1.278965e+02 1.456915e+02 1.516663e+02 1.738049e+02 1.785185e+02 2.039545e+02 2.065657e+02 2.338453e+02 2.335684e+02 2.609768e+02 2.572512e+02 2.830635e+02 2.757350e+02 2.985084e+02 2.879593e+02 3.067610e+02 2.939246e+02 3.084062e+02 2.946399e+02 3.049344e+02 2.917640e+02 2.982543e+02 2.870462e+02 2.901059e+02 2.817658e+02 2.815868e+02 2.763919e+02 2.729735e+02 2.705984e+02 2.638788e+02 2.635798e+02 2.536126e+02 2.544811e+02 2.415584e+02 2.427545e+02 2.274198e+02 2.283294e+02 2.112885e+02 2.115845e+02 1.935737e+02 1.931954e+02 1.748761e+02 1.739638e+02 1.558833e+02 1.547033e+02 1.373258e+02 1.362080e+02 1.199835e+02 1.192741e+02 1.047002e+02 1.047237e+02 9.236836e+01 9.339190e+01 8.387993e+01 8.608249e+01 8.005836e+01 8.350844e+01 8.158752e+01 8.622814e+01 8.893881e+01 
4.227645e+01 4.691132e+01 5.064711e+01 6.047498e+01 6.421945e+01 7.930983e+01 8.243222e+01 1.024661e+02 1.042015e+02 1.283836e+02 1.278936e+02 1.549320e+02 1.514267e+02 1.796365e+02 1.725588e+02 2.001152e+02 1.893520e+02 2.146416e+02 2.006836e+02 2.226135e+02 2.065840e+02 2.247138e+02 2.082267e+02 2.226675e+02 2.075217e+02 2.186518e+02 2.064302e+02 2.145575e+02 2.062505e+02 2.113912e+02 2.071927e+02 2.090825e+02 2.084395e+02 2.067355e+02 2.085913e+02 2.031239e+02 2.062382e+02 1.971780e+02 2.004192e+02 1.882911e+02 1.908365e+02 1.763955e+02 1.778082e+02 1.618580e+02 1.620558e+02 1.453032e+02 1.444632e+02 1.274625e+02 1.259140e+02 1.091061e+02 1.072435e+02 9.104661e+01 8.927146e+01 7.416159e+01 7.284217e+01 5.938505e+01 5.882186e+01 4.766003e+01 4.805578e+01 3.987446e+01 4.131322e+01 3.679886e+01 3.923442e+01 3.902731e+01 
7.928459e+01 8.686405e+01 9.454657e+01 1.081452e+02 1.163471e+02 1.359236e+02 1.438969e+02 1.688914e+02 1.756649e+02 2.048876e+02 2.093174e+02 2.409429e+02 2.418590e+02 2.736032e+02 2.700637e+02 2.995701e+02 2.911735e+02 3.165114e+02 3.036461e+02 3.237084e+02 3.076205e+02 3.222448e+02 3.048736e+02 3.146438e+02 2.982350e+02 3.040512e+02 2.906257e+02 2.932201e+02 2.840570e+02 2.836782e+02 2.790300e+02 2.754622e+02 2.746389e+02 2.675009e+02 2.692234e+02 2.583364e+02 2.611723e+02 2.467960e+02 2.495237e+02 2.323629e+02 2.341838e+02 2.151964e+02 2.157786e+02 1.959163e+02 1.953112e+02 1.753300e+02 1.738354e+02 1.542458e+02 1.522820e+02 1.334338e+02 1.314637e+02 1.136978e+02 1.121830e+02 9.595371e+01 9.532089e+01 8.122898e+01 8.183143e+01 7.059146e+01 7.267357e+01 6.505824e+01 6.873381e+01 6.551647e+01 7.075853e+01 7.265202e+01 
2.612617e+01 3.002607e+01 3.525532e+01 4.523572e+01 5.084564e+01 6.720633e+01 7.245424e+01 9.501970e+01 9.892619e+01 1.268593e+02 1.282455e+02 1.599345e+02 1.575654e+02 1.907092e+02 1.835726e+02 2.155647e+02 2.032424e+02 2.317968e+02 2.147830e+02 2.385059e+02 2.183132e+02 2.369399e+02 2.159196e+02 2.301146e+02 2.109910e+02 2.217988e+02 2.069995e+02 2.151807e+02 2.061651e+02 2.117567e+02 2.086553e+02 2.110413e+02 2.127986e+02 2.111639e+02 2.160096e+02 2.098533e+02 2.158509e+02 2.052998e+02 2.108011e+02 1.966103e+02 2.005371e+02 1.838201e+02 1.857319e+02 1.676025e+02 1.675819e+02 1.488913e+02 1.473473e+02 1.286117e+02 1.260961e+02 1.076073e+02 1.046962e+02 8.672562e+01 8.396398e+01 6.692386e+01 6.480080e+01 4.928235e+01 4.819701e+01 3.492912e+01 3.515540e+01 2.494647e+01 2.661250e+01 2.030234e+01 2.338529e+01 2.180141e+01 
5.724116e+01 6.435100e+01 7.394979e+01 8.833371e+01 9.902330e+01 1.209359e+02 1.318746e+02 1.609070e+02 1.708791e+02 2.057041e+02 2.131184e+02 2.513627e+02 2.544121e+02 2.928382e+02 2.898898e+02 3.250139e+02 3.151686e+02 3.441755e+02 3.277578e+02 3.492449e+02 3.279760e+02 3.421632e+02 3.189482e+02 3.272975e+02 3.056340e+02 3.100452e+02 2.931275e+02 2.950082e+02 2.847758e+02 2.844146e+02 2.810097e+02 2.776767e+02 2.796894e+02 2.723167e+02 2.774946e+02 2.654332e+02 2.714568e+02 2.549261e+02 2.599814e+02 2.400387e+02 2.430992e+02 2.212131e+02 2.220263e+02 1.995539e+02 1.984199e+02 1.762622e+02 1.737606e+02 1.523075e+02 1.490937e+02 1.284304e+02 1.251449e+02 1.053821e+02 1.026354e+02 8.415102e+01 8.251098e+01 6.597045e+01 6.591074e+01 5.217295e+01 5.402406e+01 4.404646e+01 4.797695e+01 4.275155e+01 4.877232e+01 4.927335e+01 
3.564960e+00 6.131210e+00 1.337553e+01 2.320485e+01 3.141867e+01 4.921907e+01 5.756591e+01 8.349129e+01 9.074090e+01 1.240249e+02 1.285169e+02 1.671434e+02 1.669215e+02 2.075900e+02 2.008175e+02 2.395181e+02 2.251520e+02 2.583568e+02 2.367862e+02 2.625646e+02 2.358677e+02 2.543300e+02 2.260599e+02 2.389699e+02 2.134477e+02 2.231776e+02 2.043498e+02 2.125512e+02 2.027079e+02 2.093698e+02 2.084320e+02 2.121348e+02 2.180697e+02 2.170120e+02 2.267860e+02 2.198215e+02 2.303481e+02 2.175570e+02 2.263914e+02 2.090270e+02 2.147706e+02 1.946631e+02 1.969858e+02 1.758220e+02 1.751688e+02 1.540186e+02 1.512138e+02 1.304460e+02 1.263836e+02 1.059386e+02 1.014324e+02 8.127492e+01 7.703883e+01 5.747863e+01 5.415593e+01 3.585040e+01 3.397304e+01 1.779407e+01 1.772651e+01 4.652751e+00 6.571597e+00 -2.360629e+00 1.546069e+00 -2.172371e+00 
2.693135e+01 3.290459e+01 4.495763e+01 5.986823e+01 7.388281e+01 9.853362e+01 1.136462e+02 1.480331e+02 1.627864e+02 2.055718e+02 2.177693e+02 2.658500e+02 2.726617e+02 3.212312e+02 3.197756e+02 3.633123e+02 3.517039e+02 3.857691e+02 3.640916e+02 3.867789e+02 3.574363e+02 3.697268e+02 3.371797e+02 3.422138e+02 3.121084e+02 3.137120e+02 2.913737e+02 2.922563e+02 2.808294e+02 2.812220e+02 2.804878e+02 2.784677e+02 2.855793e+02 2.786325e+02 2.895873e+02 2.761432e+02 2.871647e+02 2.674312e+02 2.758335e+02 2.516451e+02 2.561907e+02 2.300491e+02 2.307862e+02 2.047988e+02 2.025499e+02 1.778194e+02 1.736487e+02 1.502403e+02 1.451307e+02 1.225368e+02 1.173236e+02 9.518420e+01 9.063955e+01 6.923676e+01 6.612000e+01 4.627637e+01 4.522938e+01 2.804103e+01 2.949751e+01 1.616925e+01 2.034726e+01 1.214155e+01 1.908600e+01 1.731236e+01 
-2.682306e+01 -2.657112e+01 -1.677762e+01 -7.812383e+00 3.834890e+00 2.291268e+01 3.557802e+01 6.561663e+01 7.785644e+01 1.184882e+02 1.280300e+02 1.768677e+02 1.806236e+02 2.327934e+02 2.274322e+02 2.763355e+02 2.595495e+02 2.993080e+02 2.711173e+02 2.988254e+02 2.620835e+02 2.786148e+02 2.387824e+02 2.480430e+02 2.121872e+02 2.192001e+02 1.940747e+02 2.023195e+02 1.917574e+02 2.009213e+02 2.042080e+02 2.110444e+02 2.242059e+02 2.248905e+02 2.426810e+02 2.348461e+02 2.523391e+02 2.360679e+02 2.496235e+02 2.272616e+02 2.351416e+02 2.099562e+02 2.122351e+02 1.869613e+02 1.848423e+02 1.608557e+02 1.558881e+02 1.331396e+02 1.267107e+02 1.043400e+02 9.752295e+01 7.486828e+01 6.851766e+01 4.578374e+01 4.073574e+01 1.877758e+01 1.575104e+01 -4.311273e+00 -4.842766e+00 -2.181298e+01 -1.963818e+01 -3.226227e+01 -2.737241e+01 -3.429619e+01 
-1.359897e+01 -9.954626e+00 5.021589e+00 1.965089e+01 3.784619e+01 6.522973e+01 8.596074e+01 1.270234e+02 1.487371e+02 2.025606e+02 2.223519e+02 2.850383e+02 2.984800e+02 3.626663e+02 3.645876e+02 4.209260e+02 4.074827e+02 4.484715e+02 4.191479e+02 4.420294e+02 4.001674e+02 4.074124e+02 3.598954e+02 3.577913e+02 3.139282e+02 3.100241e+02 2.791466e+02 2.788149e+02 2.664592e+02 2.695522e+02 2.743815e+02 2.762194e+02 2.924560e+02 2.875376e+02 3.080468e+02 2.930394e+02 3.117339e+02 2.869826e+02 2.999555e+02 2.690303e+02 2.749997e+02 2.424965e+02 2.423238e+02 2.117127e+02 2.072734e+02 1.798951e+02 1.730615e+02 1.481953e+02 1.403462e+02 1.161749e+02 1.082595e+02 8.346109e+01 7.636388e+01 5.122634e+01 4.600038e+01 2.176722e+01 1.930984e+01 -2.524454e+00 -1.671496e+00 -1.960593e+01 -1.521895e+01 -2.771059e+01 -1.974743e+01 -2.510951e+01 
-6.675467e+01 -7.035751e+01 -5.755367e+01 -5.085931e+01 -3.495509e+01 -1.546162e+01 2.944819e+00 3.744277e+01 5.691564e+01 1.072487e+02 1.248957e+02 1.887666e+02 1.998092e+02 2.700063e+02 2.683633e+02 3.332666e+02 3.140572e+02 3.632013e+02 3.255540e+02 3.542633e+02 3.020214e+02 3.126857e+02 2.542245e+02 2.548124e+02 2.018825e+02 2.027259e+02 1.675196e+02 1.761544e+02 1.656713e+02 1.806220e+02 1.921809e+02 2.060240e+02 2.316940e+02 2.365424e+02 2.672787e+02 2.585379e+02 2.866217e+02 2.645569e+02 2.845527e+02 2.539397e+02 2.638642e+02 2.308654e+02 2.318818e+02 2.011127e+02 1.959631e+02 1.691753e+02 1.606427e+02 1.367619e+02 1.268829e+02 1.032421e+02 9.325860e+01 6.790441e+01 5.861250e+01 3.186097e+01 2.438367e+01 -2.332105e+00 -6.965859e+00 -3.209399e+01 -3.328758e+01 -5.539843e+01 -5.296750e+01 -7.063227e+01 -6.462302e+01 -7.622634e+01 
-6.665218e+01 -6.731740e+01 -4.917772e+01 -3.660688e+01 -1.356198e+01 1.561367e+01 4.349016e+01 9.211955e+01 1.236586e+02 1.923723e+02 2.241347e+02 3.087162e+02 3.339144e+02 4.229579e+02 4.320848e+02 5.086075e+02 4.938584e+02 5.444189e+02 5.041261e+02 5.246451e+02 4.633856e+02 4.592415e+02 3.874354e+02 3.706189e+02 3.036625e+02 2.888889e+02 2.439920e+02 2.426362e+02 2.308227e+02 2.413722e+02 2.576684e+02 2.689590e+02 3.015141e+02 3.020445e+02 3.382020e+02 3.213630e+02 3.516193e+02 3.183344e+02 3.371381e+02 2.949053e+02 3.014172e+02 2.590855e+02 2.561081e+02 2.195227e+02 2.109998e+02 1.816764e+02 1.707795e+02 1.462551e+02 1.347003e+02 1.102650e+02 9.876137e+01 7.102065e+01 6.033366e+01 3.023651e+01 2.202731e+01 -8.066059e+00 -1.245240e+01 -4.041299e+01 -4.036859e+01 -6.443786e+01 -5.987173e+01 -7.832802e+01 -6.931139e+01 -8.013596e+01 
-1.180730e+02 -1.278315e+02 -1.117944e+02 -1.098860e+02 -8.914903e+01 -7.147047e+01 -4.593025e+01 -7.844966e+00 2.168337e+01 8.394985e+01 1.143909e+02 2.004003e+02 2.247333e+02 3.244092e+02 3.313459e+02 4.225261e+02 4.017876e+02 4.648083e+02 4.138707e+02 4.410221e+02 3.648679e+02 3.615570e+02 2.726542e+02 2.541697e+02 1.719576e+02 1.591461e+02 1.069691e+02 1.175574e+02 1.100690e+02 1.383300e+02 1.662897e+02 1.951703e+02 2.425012e+02 2.562726e+02 3.077106e+02 2.979524e+02 3.420512e+02 3.095200e+02 3.379158e+02 2.929311e+02 3.037132e+02 2.582870e+02 2.552710e+02 2.172355e+02 2.062402e+02 1.776977e+02 1.635298e+02 1.411608e+02 1.265658e+02 1.036022e+02 8.965830e+01 6.130174e+01 4.797611e+01 1.580710e+01 4.909357e+00 -2.807832e+01 -3.488157e+01 -6.647487e+01 -6.848849e+01 -9.714882e+01 -9.439836e+01 -1.187082e+02 -1.114552e+02 -1.296737e+02 
-1.345740e+02 -1.426290e+02 -1.215867e+02 -1.144580e+02 -8.651798e+01 -5.843051e+01 -2.229478e+01 3.321496e+01 7.792359e+01 1.656508e+02 2.160336e+02 3.337596e+02 3.800747e+02 5.107034e+02 5.347794e+02 6.446509e+02 6.302837e+02 6.942183e+02 6.383835e+02 6.508950e+02 5.597492e+02 5.319812e+02 4.203678e+02 3.739412e+02 2.665809e+02 2.295430e+02 1.596983e+02 1.589280e+02 1.530186e+02 1.823799e+02 2.223371e+02 2.548431e+02 3.165593e+02 3.294229e+02 3.908352e+02 3.715220e+02 4.189142e+02 3.698027e+02 3.952605e+02 3.329596e+02 3.371855e+02 2.791932e+02 2.694298e+02 2.253292e+02 2.095046e+02 1.806562e+02 1.639272e+02 1.444159e+02 1.284052e+02 1.070895e+02 9.123600e+01 5.962693e+01 4.374386e+01 6.383714e+00 -6.093107e+00 -4.411671e+01 -5.098963e+01 -8.679164e+01 -8.761115e+01 -1.195102e+02 -1.146718e+02 -1.410967e+02 -1.310330e+02 -1.498422e+02 
-1.823348e+02 -2.014631e+02 -1.824711e+02 -1.894783e+02 -1.640525e+02 -1.528813e+02 -1.194822e+02 -8.168084e+01 -3.919121e+01 3.529931e+01 8.529507e+01 2.032805e+02 2.519078e+02 4.027897e+02 4.285166e+02 5.652162e+02 5.455362e+02 6.297048e+02 5.604600e+02 5.801540e+02 4.673687e+02 4.342374e+02 2.950672e+02 2.362132e+02 1.011498e+02 5.703646e+01 -2.658833e+01 -8.159623e+00 -2.741961e+00 5.601939e+01 1.169743e+02 1.770432e+02 2.617251e+02 2.934255e+02 3.773657e+02 3.664448e+02 4.350494e+02 3.821586e+02 4.208679e+02 3.496690e+02 3.574680e+02 2.918033e+02 2.788798e+02 2.314269e+02 2.097010e+02 1.826452e+02 1.600128e+02 1.458644e+02 1.254105e+02 1.079225e+02 9.006667e+01 5.717341e+01 3.811090e+01 -2.369948e+00 -1.825683e+01 -5.963817e+01 -6.923411e+01 -1.087708e+02 -1.115326e+02 -1.481259e+02 -1.447671e+02 -1.774447e+02 -1.687801e+02 -1.959765e+02 
-2.190658e+02 -2.389480e+02 -2.161480e+02 -2.202693e+02 -1.887888e+02 -1.683286e+02 -1.244336e+02 -6.698068e+01 -6.442620e+00 1.022822e+02 1.806176e+02 3.482008e+02 4.332478e+02 6.384292e+02 6.934996e+02 8.613144e+02 8.504691e+02 9.326074e+02 8.549995e+02 8.475582e+02 7.112342e+02 6.372623e+02 4.604284e+02 3.553967e+02 1.737872e+02 8.739247e+01 -3.386900e+01 -2.783759e+01 -8.626410e+00 6.677958e+01 1.553953e+02 2.326692e+02 3.463531e+02 3.851063e+02 4.863665e+02 4.634178e+02 5.362619e+02 4.556094e+02 4.870384e+02 3.875192e+02 3.821697e+02 2.989882e+02 2.744287e+02 2.213828e+02 1.929888e+02 1.704077e+02 1.460991e+02 1.426367e+02 1.226238e+02 1.129090e+02 9.291572e+01 5.296886e+01 2.865355e+01 -2.088724e+01 -3.967436e+01 -8.837499e+01 -9.808378e+01 -1.433285e+02 -1.445619e+02 -1.858230e+02 -1.802510e+02 -2.167665e+02 -2.056220e+02 -2.355468e+02 
-2.600420e+02 -2.926075e+02 -2.717693e+02 -2.938061e+02 -2.653074e+02 -2.692346e+02 -2.292867e+02 -2.021050e+02 -1.454978e+02 -6.602401e+01 1.159897e+01 1.715151e+02 2.647178e+02 5.124963e+02 5.794774e+02 7.993448e+02 7.852966e+02 9.016295e+02 8.078719e+02 8.070825e+02 6.393525e+02 5.472410e+02 3.253300e+02 1.832506e+02 -5.325639e+01 -1.763226e+02 -3.292348e+02 -2.808858e+02 -2.269128e+02 -9.910207e+01 2.785362e+01 1.502317e+02 2.985471e+02 3.646603e+02 4.980224e+02 4.879078e+02 5.966626e+02 5.016384e+02 5.517429e+02 4.311600e+02 4.257265e+02 3.272426e+02 2.923724e+02 2.331934e+02 1.926695e+02 1.743800e+02 1.400153e+02 1.501731e+02 1.232758e+02 1.233634e+02 1.054475e+02 6.030346e+01 3.150654e+01 -2.368070e+01 -4.743563e+01 -9.975436e+01 -1.125516e+02 -1.610280e+02 -1.637654e+02 -2.092244e+02 -2.044173e+02 -2.470107e+02 -2.365941e+02 -2.753495e+02 
-3.199422e+02 -3.573901e+02 -3.352353e+02 -3.595052e+02 -3.283382e+02 -3.281212e+02 -2.809930e+02 -2.363194e+02 -1.617634e+02 -4.042324e+01 7.562792e+01 3.130107e+02 4.706949e+02 8.230685e+02 9.451412e+02 1.218792e+03 1.213387e+03 1.316304e+03 1.208558e+03 1.155824e+03 9.540737e+02 7.950062e+02 5.137652e+02 2.961676e+02 -2.718647e+01 -2.375261e+02 -4.922044e+02 -4.573534e+02 -3.382555e+02 -1.501761e+02 3.338309e+01 1.984827e+02 4.041013e+02 4.956374e+02 6.579583e+02 6.327073e+02 7.465791e+02 5.995987e+02 6.322626e+02 4.616172e+02 4.289315e+02 3.069084e+02 2.520373e+02 1.895708e+02 1.405105e+02 1.352893e+02 1.029760e+02 1.406655e+02 1.206719e+02 1.465328e+02 1.267839e+02 5.793796e+01 1.606910e+01 -5.558218e+01 -8.387520e+01 -1.455893e+02 -1.573572e+02 -2.124477e+02 -2.123726e+02 -2.637266e+02 -2.561786e+02 -3.046201e+02 -2.921555e+02 -3.366455e+02 
-3.494866e+02 -3.998612e+02 -3.793580e+02 -4.241282e+02 -3.965064e+02 -4.288935e+02 -3.880657e+02 -3.935910e+02 -3.283971e+02 -2.738102e+02 -1.657672e+02 2.589509e+01 1.976544e+02 6.519409e+02 8.171820e+02 1.198149e+03 1.191987e+03 1.352776e+03 1.228282e+03 1.177749e+03 9.311453e+02 7.322174e+02 3.784433e+02 7.321609e+01 -3.679837e+02 -7.206529e+02 -1.070751e+03 -9.055331e+02 -6.604626e+02 -3.842854e+02 -1.387353e+02 1.021402e+02 3.559794e+02 4.837892e+02 6.886134e+02 6.992862e+02 8.885637e+02 7.011853e+02 7.593388e+02 5.444067e+02 4.994082e+02 3.511455e+02 2.704228e+02 1.977705e+02 1.264496e+02 1.290553e+02 8.141302e+01 1.540005e+02 1.187413e+02 1.716671e+02 1.735452e+02 8.072428e+01 2.773608e+01 -5.412884e+01 -9.114638e+01 -1.550302e+02 -1.699222e+02 -2.263682e+02 -2.265312e+02 -2.806911e+02 -2.725198e+02 -3.260097e+02 -3.131334e+02 -3.658064e+02 
-4.333442e+02 -4.945435e+02 -4.766812e+02 -5.325899e+02 -5.089696e+02 -5.495300e+02 -5.114588e+02 -5.132783e+02 -4.408229e+02 -3.496909e+02 -2.014160e+02 9.657719e+01 3.808768e+02 1.064159e+03 1.352818e+03 1.838258e+03 1.823950e+03 1.931374e+03 1.784598e+03 1.631802e+03 1.343641e+03 1.041077e+03 5.990095e+02 1.849814e+02 -3.984486e+02 -9.703895e+02 -1.677588e+03 -1.533241e+03 -9.927299e+02 -5.296538e+02 -2.085296e+02 1.063323e+02 4.717189e+02 6.702764e+02 9.285610e+02 9.300673e+02 1.131007e+03 8.412246e+02 8.569930e+02 5.489295e+02 4.455610e+02 2.741104e+02 1.611314e+02 9.165824e+01 1.106270e+01 3.748355e+01 1.296217e+00 1.338448e+02 1.253115e+02 2.694453e+02 2.718320e+02 8.111547e+01 -1.039868e+01 -1.152164e+02 -1.551146e+02 -2.261524e+02 -2.350914e+02 -2.969885e+02 -2.912392e+02 -3.518745e+02 -3.398557e+02 -4.012955e+02 -3.868646e+02 -4.490294e+02 
-4.454785e+02 -5.170433e+02 -4.999388e+02 -5.744873e+02 -5.542412e+02 -6.304713e+02 -6.011857e+02 -6.754971e+02 -6.238897e+02 -6.795841e+02 -5.749561e+02 -5.122794e+02 -2.761227e+02 6.780420e+02 1.148375e+03 1.909021e+03 1.894433e+03 2.094617e+03 1.943605e+03 1.774400e+03 1.424356e+03 1.054832e+03 4.814725e+02 -1.186147e+02 -9.599215e+02 -2.085135e+03 -3.167799e+03 -2.521464e+03 -1.459839e+03 -9.241755e+02 -5.768433e+02 -1.074439e+02 3.278526e+02 5.430029e+02 8.616080e+02 1.019832e+03 1.438168e+03 1.040043e+03 1.073158e+03 6.850847e+02 5.347009e+02 3.287837e+02 1.580679e+02 7.305148e+01 -4.301401e+01 -1.440030e+01 -6.484895e+01 1.564654e+02 8.670450e+01 3.186400e+02 4.297437e+02 1.296186e+02 -7.014858e+00 -1.194824e+02 -1.751351e+02 -2.397632e+02 -2.492429e+02 -3.083643e+02 -2.996053e+02 -3.608921e+02 -3.458400e+02 -4.104419e+02 -3.939088e+02 -4.620211e+02 
-5.499977e+02 -6.393784e+02 -6.295850e+02 -7.275746e+02 -7.209027e+02 -8.270561e+02 -8.204252e+02 -9.277640e+02 -9.073612e+02 -9.805766e+02 -9.043025e+02 -8.941869e+02 -6.227990e+02 9.109744e+02 1.831042e+03 2.974407e+03 2.883403e+03 2.887932e+03 2.714223e+03 2.343228e+03 1.963417e+03 1.415782e+03 5.692535e+02 -2.299570e+02 -9.181467e+02 -1.520134e+03 -2.228453e+03 -1.073281e+03 4.766706e+01 -3.729146e+02 -8.978067e+02 -4.241492e+02 2.915686e+02 7.417255e+02 1.214695e+03 1.383718e+03 1.838118e+03 1.230163e+03 1.152275e+03 5.896649e+02 3.175399e+02 1.355110e+02 -7.385025e+01 -1.415673e+02 -2.647625e+02 -2.173011e+02 -2.444950e+02 6.312975e+01 8.436487e+01 6.941998e+02 8.106875e+02 7.567311e+01 -1.805297e+02 -2.605777e+02 -2.905471e+02 -3.462400e+02 -3.362624e+02 -3.969704e+02 -3.772319e+02 -4.451366e+02 -4.249361e+02 -4.995469e+02 -4.820812e+02 -5.636703e+02 
-5.387632e+02 -6.321385e+02 -6.213291e+02 -7.275042e+02 -7.216485e+02 -8.473728e+02 -8.466927e+02 -1.014370e+03 -1.024365e+03 -1.343064e+03 -1.451927e+03 -2.740890e+03 -3.040881e+03 -9.287515e+02 1.292168e+03 3.274386e+03 3.179167e+03 3.277241e+03 3.175419e+03 2.710824e+03 2.227336e+03 1.523851e+03 3.058162e+02 -5.697199e+02 -8.261776e+01 1.984148e+03 2.315708e+03 2.394771e+03 2.447204e+03 9.798243e+02 -4.520151e+02 -8.718656e+02 -8.054463e+02 -7.202121e+02 -4.953929e+00 1.167840e+03 2.579608e+03 1.571041e+03 1.401642e+03 7.402036e+02 3.624092e+02 1.812481e+02 -1.470257e+02 -2.310262e+02 -4.011768e+02 -4.285279e+02 -4.055328e+02 1.145578e+02 -2.005887e+02 6.928094e+02 1.251630e+03 7.895626e+01 -4.090658e+02 -3.321915e+02 -3.537763e+02 -3.758734e+02 -3.520551e+02 -4.059638e+02 -3.763772e+02 -4.436626e+02 -4.170696e+02 -4.927022e+02 -4.711625e+02 -5.548584e+02 
-6.552055e+02 -7.721289e+02 -7.715641e+02 -9.127549e+02 -9.276907e+02 -1.109317e+03 -1.154778e+03 -1.420020e+03 -1.553185e+03 -2.054558e+03 -2.581992e+03 -4.171737e+03 -6.172846e+03 6.918042e+02 6.726306e+03 6.085800e+03 5.059082e+03 4.237347e+03 4.185192e+03 3.378667e+03 3.018085e+03 1.880041e+03 2.713319e+02 -7.971228e+02 -1.871955e+03 6.241702e+02 1.797652e+03 1.285121e+03 1.069230e+03 -1.052956e+02 -1.375214e+03 -2.902713e+03 -4.254552e+03 -5.049791e+03 -4.525617e+03 -2.575937e+03 -3.952901e+02 -5.263903e+02 7.387013e+02 1.343165e+02 -3.686070e+02 -2.164876e+02 -5.369630e+02 -5.952761e+02 -7.662619e+02 -8.493511e+02 -8.323893e+02 -3.717056e+02 -6.702447e+02 -5.341663e+02 -5.561469e+02 -6.556693e+02 -7.252087e+02 -5.736114e+02 -4.923126e+02 -5.019133e+02 -4.427456e+02 -4.995971e+02 -4.563486e+02 -5.318645e+02 -5.003555e+02 -5.879542e+02 -5.665168e+02 -6.668122e+02 
-6.173540e+02 -7.296419e+02 -7.260277e+02 -8.579809e+02 -8.686614e+02 -1.025610e+03 -1.058730e+03 -1.238251e+03 -1.319478e+03 -1.471111e+03 -1.711729e+03 -1.616362e+03 -2.117776e+03 6.908185e+03 9.494630e+03 5.668959e+03 5.947495e+03 4.860195e+03 5.330660e+03 4.214728e+03 3.688696e+03 2.178023e+03 -4.991830e+02 -1.518777e+03 -2.391531e+03 -1.093687e+03 2.751155e+02 1.690866e+02 2.591096e+02 -5.761251e+02 -1.438318e+03 -2.797876e+03 -4.080510e+03 -5.115831e+03 -5.238290e+03 -4.474040e+03 -3.617909e+03 -3.485023e+03 -2.388602e+03 -2.449669e+03 -7.149185e+02 -1.505302e+02 -7.367751e+02 -7.725307e+02 -1.022437e+03 -1.602604e+03 -9.534729e+02 9.728718e+01 -1.496664e+03 -1.635589e+03 -1.598679e+03 -1.247994e+03 -6.974996e+02 -6.817217e+02 -4.843668e+02 -5.274665e+02 -4.298735e+02 -4.965366e+02 -4.368931e+02 -5.149256e+02 -4.747044e+02 -5.617122e+02 -5.348950e+02 -6.326630e+02 
-7.330264e+02 -8.700858e+02 -8.749289e+02 -1.044097e+03 -1.068334e+03 -1.286305e+03 -1.339149e+03 -1.634741e+03 -1.732415e+03 -2.151452e+03 -2.302165e+03 -2.896394e+03 -2.845356e+03 -1.542734e+03 -2.186143e+03 3.724836e+03 5.823494e+03 4.483350e+03 5.931067e+03 5.033787e+03 5.475946e+03 3.702766e+03 -2.215719e+03 -4.260882e+03 -3.051161e+03 -1.326313e+03 -3.313598e+02 -3.058526e+02 -3.050661e+02 -9.727332e+02 -1.571190e+03 -2.545390e+03 -3.313492e+03 -4.062737e+03 -4.269251e+03 -4.206036e+03 -4.019383e+03 -4.441604e+03 -4.728578e+03 -3.391493e+03 -9.125117e+01 -3.391896e+02 -8.745076e+02 -1.186836e+03 -1.417049e+03 -2.106549e+03 -1.330117e+03 1.517719e+03 -5.031722e+02 -1.435969e+03 -7.198355e+02 -9.982522e+02 -5.946435e+02 -6.919624e+02 -5.121034e+02 -5.881241e+02 -4.874637e+02 -5.687234e+02 -5.054590e+02 -5.947960e+02 -5.535062e+02 -6.534989e+02 -6.284251e+02 -7.435910e+02 
-6.699625e+02 -7.962250e+02 -7.977799e+02 -9.510271e+02 -9.723550e+02 -1.166205e+03 -1.215533e+03 -1.473843e+03 -1.564234e+03 -1.939035e+03 -2.075959e+03 -2.754220e+03 -2.861732e+03 -4.515940e+03 -2.874930e+03 3.988712e+03 3.601841e+03 5.334764e+03 8.424593e+03 6.318520e+03 5.031024e+03 5.377989e+03 3.335238e+02 -2.280368e+03 -1.609323e+03 -9.419428e+02 -3.914515e+02 -5.167358e+02 -5.315139e+02 -1.154498e+03 -1.645335e+03 -2.497908e+03 -3.106340e+03 -3.750284e+03 -3.934980e+03 -4.042259e+03 -3.846659e+03 -4.091333e+03 -3.995271e+03 -2.898516e+03 -2.017878e+03 -2.734773e+03 -1.910299e+03 -4.367040e+02 9.167555e+02 3.294801e+02 -3.202137e+01 1.911380e+03 9.101739e+02 -3.875696e+02 -3.396406e+02 -6.605798e+02 -4.610668e+02 -6.125153e+02 -4.536976e+02 -5.562324e+02 -4.485489e+02 -5.394199e+02 -4.674119e+02 -5.580036e+02 -5.099449e+02 -6.065007e+02 -5.763587e+02 -6.845103e+02 
-7.737837e+02 -9.209844e+02 -9.278398e+02 -1.109203e+03 -1.135698e+03 -1.364277e+03 -1.414466e+03 -1.703642e+03 -1.779155e+03 -2.128468e+03 -2.214087e+03 -2.574671e+03 -2.642987e+03 -2.985607e+03 -2.694725e+03 -4.597972e+03 -6.450940e+03 -1.366776e+03 2.985058e+03 2.469986e+03 -7.798667e+02 1.724135e+03 4.090638e+02 -1.192824e+03 -9.015221e+02 -7.990645e+02 -4.281699e+02 -6.164969e+02 -6.625872e+02 -1.234321e+03 -1.640094e+03 -2.375134e+03 -2.845808e+03 -3.427099e+03 -3.622984e+03 -3.868446e+03 -3.792640e+03 -4.009764e+03 -3.722382e+03 -3.680125e+03 -3.710753e+03 -3.792850e+03 -2.429737e+03 5.911732e+02 3.378066e+03 2.916431e+03 1.574692e+03 1.685020e+03 5.424576e+02 -7.442827e+00 -1.843816e+02 -5.273190e+02 -4.163990e+02 -6.021815e+02 -4.713783e+02 -5.925502e+02 -4.930635e+02 -5.945686e+02 -5.256227e+02 -6.254695e+02 -5.798619e+02 -6.876475e+02 -6.606732e+02 -7.840482e+02 
-6.885128e+02 -8.200487e+02 -8.235846e+02 -9.853144e+02 -1.010974e+03 -1.220637e+03 -1.278738e+03 -1.570474e+03 -1.682459e+03 -2.127587e+03 -2.340050e+03 -3.087508e+03 -3.562524e+03 -4.840124e+03 -6.375237e+03 -8.372282e+03 -9.303908e+03 -5.476290e+03 -1.215640e+03 6.717303e+02 -1.592262e+03 3.562205e+02 -2.484254e+02 -1.127651e+03 -8.959154e+02 -7.673210e+02 -4.424049e+02 -6.376684e+02 -6.930795e+02 -1.271634e+03 -1.676228e+03 -2.410366e+03 -2.871587e+03 -3.435948e+03 -3.616042e+03 -3.845427e+03 -3.756381e+03 -3.902882e+03 -3.733698e+03 -3.595538e+03 -3.238201e+03 -3.120826e+03 -2.104175e+03 4.659215e+02 3.116147e+03 2.673433e+03 1.423156e+03 1.787662e+03 8.129575e+02 1.526914e+02 -4.750253e+01 -4.273981e+02 -3.469025e+02 -5.488485e+02 -4.233157e+02 -5.508098e+02 -4.476690e+02 -5.495645e+02 -4.756071e+02 -5.716886e+02 -5.214778e+02 -6.218252e+02 -5.906644e+02 -7.027095e+02 
-7.737837e+02 -9.209844e+02 -9.278398e+02 -1.109203e+03 -1.135698e+03 -1.364277e+03 -1.414466e+03 -1.703642e+03 -1.779155e+03 -2.128468e+03 -2.214087e+03 -2.574671e+03 -2.642987e+03 -2.985607e+03 -2.694725e+03 -4.597972e+03 -6.450940e+03 -1.366776e+03 2.985058e+03 2.469986e+03 -7.798667e+02 1.724135e+03 4.090638e+02 -1.192824e+03 -9.015221e+02 -7.990645e+02 -4.281699e+02 -6.164969e+02 -6.625872e+02 -1.234321e+03 -1.640094e+03 -2.375134e+03 -2.845808e+03 -3.427099e+03 -3.622984e+03 -3.868446e+03 -3.792640e+03 -4.009764e+03 -3.722382e+03 -3.680125e+03 -3.710753e+03 -3.792850e+03 -2.429737e+03 5.911732e+02 3.378066e+03 2.916431e+03 1.574692e+03 1.685020e+03 5.424576e+02 -7.442827e+00 -1.843816e+02 -5.273190e+02 -4.163990e+02 -6.021815e+02 -4.713783e+02 -5.925502e+02 -4.930635e+02 -5.945686e+02 -5.256227e+02 -6.254695e+02 -5.798619e+02 -6.876475e+02 -6.606732e+02 -7.840482e+02 