# vtk DataFile Version 2.0
Comment goes here
ASCII

DATASET STRUCTURED_POINTS
DIMENSIONS    64   64   1

ORIGIN    0.000   0.000   0.000
SPACING   0.0781250.078125   1.000

POINT_DATA   4096
VECTORS u double

-0.502325 -0.000000 1.000000 -0.443749 -0.000000 1.000000 -0.374171 -0.000000 1.000000 -0.308378 -0.000000 1.000000 -0.233374 -0.000000 1.000000 -0.164624 -0.000000 1.000000 -0.089601 -0.000000 1.000000 -0.022030 -0.000000 1.000000 0.047737 -0.000000 1.000000 0.110354 -0.000000 1.000000 0.170222 -0.000000 1.000000 0.224742 -0.000000 1.000000 0.271260 -0.000000 1.000000 0.315455 -0.000000 1.000000 0.346849 -0.000000 1.000000 0.379653 -0.000000 1.000000 0.396088 -0.000000 1.000000 0.417730 -0.000000 1.000000 0.421247 -0.000000 1.000000 0.433217 -0.000000 1.000000 0.427364 -0.000000 1.000000 0.432178 -0.000000 1.000000 0.421402 -0.000000 1.000000 0.422162 0.000000 1.000000 0.411031 0.000000 1.000000 0.410768 0.000000 1.000000 0.403070 0.000000 1.000000 0.403929 0.000000 1.000000 0.401706 0.000000 1.000000 0.404131 0.000000 1.000000 0.406907 0.000000 1.000000 0.409147 0.000000 1.000000 0.413699 0.000000 1.000000 0.411969 0.000000 1.000000 0.412940 0.000000 1.000000 0.402351 0.000000 1.000000 0.393646 0.000000 1.000000 0.369614 0.000000 1.000000 0.346126 0.000000 1.000000 0.305770 0.000000 1.000000 0.264825 0.000000 1.000000 0.207908 0.000000 1.000000 0.149999 0.000000 1.000000 0.079164 0.000000 1.000000 0.007861 0.000000 1.000000 -0.071792 0.000000 1.000000 -0.150571 0.000000 1.000000 -0.232374 0.000000 1.000000 -0.311441 0.000000 1.000000 -0.388242 -0.000000 1.000000 -0.460265 -0.000000 1.000000 -0.525478 -0.000000 1.000000 -0.583967 -0.000000 1.000000 -0.632404 -0.000000 1.000000 -0.672436 -0.000000 1.000000 -0.700822 -0.000000 1.000000 -0.719443 -0.000000 1.000000 -0.726558 -0.000000 1.000000 -0.722866 -0.000000 1.000000 -0.709372 -0.000000 1.000000 -0.684334 -0.000000 1.000000 -0.652391 -0.000000 1.000000 -0.608518 -0.000000 1.000000 -0.561334 -0.000000 1.000000 
-0.515763 -0.058793 1.000000 -0.456687 -0.064077 1.000000 -0.387149 -0.067686 1.000000 -0.320733 -0.070399 1.000000 -0.245665 -0.071877 1.000000 -0.176230 -0.071886 1.000000 -0.101072 -0.071297 1.000000 -0.032814 -0.068669 1.000000 0.037133 -0.066192 1.000000 0.100390 -0.061243 1.000000 0.160469 -0.057194 1.000000 0.215552 -0.050519 1.000000 0.262324 -0.045357 1.000000 0.307019 -0.037794 1.000000 0.338752 -0.032099 1.000000 0.372058 -0.024619 1.000000 0.388987 -0.019039 1.000000 0.411238 -0.012580 1.000000 0.415490 -0.007743 1.000000 0.428293 -0.003059 1.000000 0.423490 0.000519 1.000000 0.429464 0.002981 1.000000 0.420096 0.005008 1.000000 0.422390 0.005185 1.000000 0.413028 0.005697 1.000000 0.414647 0.003981 1.000000 0.409023 0.003420 1.000000 0.411999 0.000682 1.000000 0.412035 -0.000101 1.000000 0.416605 -0.002601 1.000000 0.421628 -0.002508 1.000000 0.425758 -0.003396 1.000000 0.432285 -0.001411 1.000000 0.431883 0.000379 1.000000 0.434283 0.004809 1.000000 0.424206 0.009647 1.000000 0.416174 0.016369 1.000000 0.391710 0.023760 1.000000 0.368050 0.031922 1.000000 0.326364 0.040650 1.000000 0.284456 0.048931 1.000000 0.225493 0.057413 1.000000 0.165999 0.064372 1.000000 0.092673 0.071069 1.000000 0.019393 0.075478 1.000000 -0.062912 0.079216 1.000000 -0.143838 0.080291 1.000000 -0.228209 0.080435 1.000000 -0.309405 0.077934 1.000000 -0.388509 0.074412 1.000000 -0.462510 0.068618 1.000000 -0.529645 0.061851 1.000000 -0.589875 0.053463 1.000000 -0.639795 0.044234 1.000000 -0.681278 0.034209 1.000000 -0.710696 0.023503 1.000000 -0.730461 0.012868 1.000000 -0.738184 0.001711 1.000000 -0.735339 -0.008593 1.000000 -0.722081 -0.019266 1.000000 -0.697625 -0.028490 1.000000 -0.665608 -0.037908 1.000000 -0.622094 -0.045529 1.000000 -0.574592 -0.053096 1.000000 
-0.513296 -0.117906 1.000000 -0.452639 -0.128614 1.000000 -0.380495 -0.135954 1.000000 -0.312576 -0.141484 1.000000 -0.234873 -0.144502 1.000000 -0.164060 -0.144593 1.000000 -0.086402 -0.143417 1.000000 -0.016946 -0.138205 1.000000 0.055139 -0.133203 1.000000 0.119326 -0.123336 1.000000 0.180917 -0.115162 1.000000 0.236547 -0.101855 1.000000 0.283950 -0.091467 1.000000 0.328675 -0.076428 1.000000 0.359984 -0.065039 1.000000 0.392671 -0.050235 1.000000 0.408081 -0.039180 1.000000 0.428976 -0.026502 1.000000 0.430717 -0.017056 1.000000 0.441428 -0.008000 1.000000 0.433352 -0.001171 1.000000 0.436617 0.003394 1.000000 0.423561 0.007074 1.000000 0.422810 0.007068 1.000000 0.409796 0.007743 1.000000 0.408472 0.004005 1.000000 0.399766 0.002648 1.000000 0.400419 -0.003012 1.000000 0.398452 -0.004606 1.000000 0.401771 -0.009593 1.000000 0.406178 -0.009153 1.000000 0.410327 -0.010657 1.000000 0.417574 -0.006125 1.000000 0.418303 -0.001999 1.000000 0.422331 0.007678 1.000000 0.414041 0.018110 1.000000 0.407895 0.032495 1.000000 0.385301 0.048123 1.000000 0.363150 0.065346 1.000000 0.322910 0.083595 1.000000 0.281714 0.100871 1.000000 0.223471 0.118456 1.000000 0.163770 0.132820 1.000000 0.090381 0.146606 1.000000 0.016116 0.155586 1.000000 -0.066875 0.163231 1.000000 -0.149252 0.165296 1.000000 -0.234633 0.165567 1.000000 -0.317368 0.160300 1.000000 -0.397465 0.153106 1.000000 -0.472735 0.141137 1.000000 -0.540544 0.127364 1.000000 -0.601498 0.110150 1.000000 -0.651578 0.091403 1.000000 -0.693090 0.070901 1.000000 -0.722091 0.049183 1.000000 -0.741169 0.027488 1.000000 -0.747960 0.004878 1.000000 -0.743790 -0.016103 1.000000 -0.729225 -0.037715 1.000000 -0.702937 -0.056473 1.000000 -0.669400 -0.075531 1.000000 -0.623683 -0.091016 1.000000 -0.574582 -0.106331 1.000000 
-0.538022 -0.180736 1.000000 -0.474725 -0.196878 1.000000 -0.400018 -0.207749 1.000000 -0.329292 -0.216021 1.000000 -0.248793 -0.220393 1.000000 -0.175173 -0.220357 1.000000 -0.094719 -0.218410 1.000000 -0.022640 -0.210210 1.000000 0.051956 -0.202464 1.000000 0.118379 -0.187021 1.000000 0.181893 -0.174416 1.000000 0.239183 -0.153552 1.000000 0.287680 -0.137484 1.000000 0.333370 -0.113828 1.000000 0.364861 -0.096095 1.000000 0.397825 -0.072716 1.000000 0.412622 -0.055344 1.000000 0.433258 -0.035216 1.000000 0.433883 -0.020194 1.000000 0.444069 -0.005694 1.000000 0.434775 0.005330 1.000000 0.437605 0.012772 1.000000 0.423676 0.018816 1.000000 0.422978 0.018950 1.000000 0.409906 0.020035 1.000000 0.409518 0.014012 1.000000 0.402004 0.011472 1.000000 0.404776 0.001996 1.000000 0.405525 -0.001453 1.000000 0.412167 -0.010327 1.000000 0.420714 -0.011063 1.000000 0.428972 -0.014791 1.000000 0.441163 -0.009387 1.000000 0.445933 -0.004378 1.000000 0.454661 0.009071 1.000000 0.449306 0.024083 1.000000 0.446479 0.045108 1.000000 0.424854 0.068505 1.000000 0.403811 0.094313 1.000000 0.362169 0.122086 1.000000 0.319590 0.148370 1.000000 0.257703 0.175357 1.000000 0.194399 0.197462 1.000000 0.115679 0.218723 1.000000 0.036247 0.232734 1.000000 -0.052980 0.244584 1.000000 -0.141287 0.248048 1.000000 -0.232996 0.248552 1.000000 -0.321663 0.240766 1.000000 -0.407474 0.229779 1.000000 -0.488059 0.211697 1.000000 -0.560446 0.190613 1.000000 -0.625656 0.164497 1.000000 -0.678874 0.135826 1.000000 -0.723336 0.104722 1.000000 -0.753961 0.071583 1.000000 -0.774628 0.038737 1.000000 -0.781653 0.004333 1.000000 -0.777821 -0.027328 1.000000 -0.762357 -0.060119 1.000000 -0.735359 -0.088316 1.000000 -0.700088 -0.117162 1.000000 -0.652843 -0.140346 1.000000 -0.601446 -0.163483 1.000000 
-0.546651 -0.244627 1.000000 -0.479633 -0.266618 1.000000 -0.399635 -0.281387 1.000000 -0.325234 -0.292709 1.000000 -0.239236 -0.298621 1.000000 -0.162117 -0.298667 1.000000 -0.076307 -0.295949 1.000000 -0.001062 -0.284880 1.000000 0.078255 -0.274222 1.000000 0.147292 -0.253273 1.000000 0.214293 -0.235966 1.000000 0.273375 -0.207642 1.000000 0.323559 -0.185654 1.000000 0.369935 -0.153609 1.000000 0.400955 -0.129494 1.000000 0.433269 -0.097997 1.000000 0.445418 -0.074612 1.000000 0.463955 -0.047763 1.000000 0.460062 -0.027867 1.000000 0.466773 -0.008892 1.000000 0.451642 0.005293 1.000000 0.449936 0.014493 1.000000 0.429590 0.021701 1.000000 0.423905 0.020839 1.000000 0.404770 0.021203 1.000000 0.399863 0.011906 1.000000 0.387759 0.007391 1.000000 0.387560 -0.006533 1.000000 0.386264 -0.011997 1.000000 0.392363 -0.024782 1.000000 0.401986 -0.025958 1.000000 0.412338 -0.031105 1.000000 0.428380 -0.023086 1.000000 0.437198 -0.015498 1.000000 0.451267 0.004305 1.000000 0.450574 0.026292 1.000000 0.452824 0.056947 1.000000 0.435010 0.090791 1.000000 0.417229 0.128031 1.000000 0.377446 0.167816 1.000000 0.335447 0.205338 1.000000 0.273003 0.243647 1.000000 0.207557 0.274843 1.000000 0.126055 0.304759 1.000000 0.042361 0.324245 1.000000 -0.051189 0.340764 1.000000 -0.144924 0.345312 1.000000 -0.241565 0.345944 1.000000 -0.335801 0.334779 1.000000 -0.426202 0.319501 1.000000 -0.511579 0.294108 1.000000 -0.587435 0.264961 1.000000 -0.655987 0.228577 1.000000 -0.711072 0.189083 1.000000 -0.757068 0.145988 1.000000 -0.787833 0.100476 1.000000 -0.808193 0.055181 1.000000 -0.813826 0.008071 1.000000 -0.808063 -0.035400 1.000000 -0.790061 -0.080177 1.000000 -0.759849 -0.118742 1.000000 -0.721326 -0.158047 1.000000 -0.669919 -0.189658 1.000000 -0.614913 -0.221152 1.000000 
-0.583418 -0.316016 1.000000 -0.511444 -0.343894 1.000000 -0.426091 -0.362147 1.000000 -0.346532 -0.376420 1.000000 -0.254775 -0.383510 1.000000 -0.172544 -0.383287 1.000000 -0.080993 -0.379465 1.000000 -0.000991 -0.364771 1.000000 0.083469 -0.350818 1.000000 0.156523 -0.323060 1.000000 0.227394 -0.300499 1.000000 0.289345 -0.262817 1.000000 0.341543 -0.234044 1.000000 0.389340 -0.191224 1.000000 0.420261 -0.159430 1.000000 0.452476 -0.117179 1.000000 0.462607 -0.086030 1.000000 0.479741 -0.049860 1.000000 0.472484 -0.023012 1.000000 0.476957 0.002726 1.000000 0.457897 0.022167 1.000000 0.453766 0.034825 1.000000 0.429807 0.044847 1.000000 0.422307 0.043769 1.000000 0.400863 0.044076 1.000000 0.395666 0.031023 1.000000 0.383617 0.023775 1.000000 0.385534 0.003491 1.000000 0.387532 -0.006256 1.000000 0.398569 -0.026049 1.000000 0.414863 -0.031038 1.000000 0.432416 -0.041186 1.000000 0.457430 -0.034248 1.000000 0.474055 -0.027265 1.000000 0.497233 -0.004305 1.000000 0.502757 0.022526 1.000000 0.511800 0.060672 1.000000 0.496749 0.104100 1.000000 0.481631 0.151877 1.000000 0.440235 0.203867 1.000000 0.396147 0.252813 1.000000 0.327896 0.303247 1.000000 0.256164 0.344410 1.000000 0.165701 0.383919 1.000000 0.072844 0.409978 1.000000 -0.031344 0.431869 1.000000 -0.135559 0.438425 1.000000 -0.242996 0.439428 1.000000 -0.347590 0.425403 1.000000 -0.447643 0.405557 1.000000 -0.542114 0.372930 1.000000 -0.625510 0.335021 1.000000 -0.701085 0.288134 1.000000 -0.761041 0.236908 1.000000 -0.811545 0.181483 1.000000 -0.844403 0.122708 1.000000 -0.866696 0.064730 1.000000 -0.871936 0.004203 1.000000 -0.865801 -0.051093 1.000000 -0.845470 -0.108333 1.000000 -0.813032 -0.157051 1.000000 -0.770845 -0.207093 1.000000 -0.715817 -0.246759 1.000000 -0.656319 -0.286751 1.000000 
-0.603686 -0.389503 1.000000 -0.525695 -0.423946 1.000000 -0.432121 -0.446298 1.000000 -0.346590 -0.464025 1.000000 -0.246125 -0.472609 1.000000 -0.158120 -0.472449 1.000000 -0.057865 -0.467502 1.000000 0.027484 -0.449342 1.000000 0.119838 -0.431736 1.000000 0.197455 -0.397198 1.000000 0.274348 -0.368789 1.000000 0.339609 -0.321791 1.000000 0.394898 -0.285649 1.000000 0.444260 -0.232327 1.000000 0.474680 -0.192630 1.000000 0.506319 -0.140343 1.000000 0.512362 -0.101877 1.000000 0.526579 -0.057641 1.000000 0.512244 -0.025082 1.000000 0.511549 0.005696 1.000000 0.483353 0.028484 1.000000 0.472256 0.042583 1.000000 0.438226 0.053160 1.000000 0.422896 0.049783 1.000000 0.391886 0.047843 1.000000 0.379537 0.029152 1.000000 0.360349 0.017523 1.000000 0.357806 -0.010448 1.000000 0.357180 -0.025032 1.000000 0.368214 -0.052113 1.000000 0.387662 -0.059805 1.000000 0.410105 -0.073672 1.000000 0.443420 -0.064726 1.000000 0.468370 -0.055300 1.000000 0.502362 -0.024397 1.000000 0.516889 0.011725 1.000000 0.535738 0.062956 1.000000 0.527519 0.120961 1.000000 0.518253 0.184544 1.000000 0.479564 0.253300 1.000000 0.435943 0.317677 1.000000 0.365640 0.383629 1.000000 0.289207 0.437037 1.000000 0.192546 0.488079 1.000000 0.091186 0.521291 1.000000 -0.021901 0.549167 1.000000 -0.136557 0.556964 1.000000 -0.253799 0.557976 1.000000 -0.368907 0.539425 1.000000 -0.477930 0.514025 1.000000 -0.581393 0.471975 1.000000 -0.671537 0.423931 1.000000 -0.753435 0.364109 1.000000 -0.817097 0.299544 1.000000 -0.870681 0.229350 1.000000 -0.904052 0.155626 1.000000 -0.926208 0.082714 1.000000 -0.929217 0.007177 1.000000 -0.920213 -0.061866 1.000000 -0.895693 -0.132946 1.000000 -0.858326 -0.193368 1.000000 -0.810804 -0.255262 1.000000 -0.749387 -0.304183 1.000000 -0.684028 -0.353550 1.000000 
-0.653641 -0.474349 1.000000 -0.568119 -0.515459 1.000000 -0.466089 -0.541252 1.000000 -0.372805 -0.562416 1.000000 -0.263199 -0.571980 1.000000 -0.167476 -0.571546 1.000000 -0.057963 -0.565069 1.000000 0.034657 -0.542474 1.000000 0.135449 -0.520790 1.000000 0.219258 -0.477570 1.000000 0.302536 -0.442653 1.000000 0.372165 -0.383367 1.000000 0.430630 -0.338695 1.000000 0.481926 -0.271007 1.000000 0.511760 -0.221489 1.000000 0.542695 -0.154860 1.000000 0.544738 -0.106290 1.000000 0.555936 -0.049743 1.000000 0.535205 -0.007982 1.000000 0.529910 0.031617 1.000000 0.494194 0.061459 1.000000 0.477902 0.079952 1.000000 0.436554 0.094208 1.000000 0.416654 0.090110 1.000000 0.380061 0.087435 1.000000 0.365371 0.062560 1.000000 0.344292 0.045506 1.000000 0.343518 0.006659 1.000000 0.346707 -0.016664 1.000000 0.364931 -0.056531 1.000000 0.394735 -0.072929 1.000000 0.429194 -0.096943 1.000000 0.477727 -0.092513 1.000000 0.516479 -0.086207 1.000000 0.566457 -0.052823 1.000000 0.592340 -0.010850 1.000000 0.623240 0.050041 1.000000 0.620448 0.121585 1.000000 0.615965 0.199833 1.000000 0.575207 0.286178 1.000000 0.528175 0.366738 1.000000 0.448807 0.449983 1.000000 0.362047 0.517504 1.000000 0.251285 0.581941 1.000000 0.135181 0.624425 1.000000 0.005523 0.659612 1.000000 -0.125604 0.670323 1.000000 -0.259417 0.671778 1.000000 -0.390452 0.649534 1.000000 -0.514025 0.618042 1.000000 -0.631164 0.566537 1.000000 -0.732366 0.507063 1.000000 -0.824498 0.433693 1.000000 -0.894882 0.354154 1.000000 -0.954600 0.268439 1.000000 -0.990255 0.178234 1.000000 -1.014429 0.089894 1.000000 -1.015889 -0.001792 1.000000 -1.005368 -0.084616 1.000000 -0.976500 -0.170220 1.000000 -0.934939 -0.241940 1.000000 -0.881326 -0.316032 1.000000 -0.813825 -0.373535 1.000000 -0.741421 -0.432452 1.000000 
-0.686441 -0.562805 1.000000 -0.592413 -0.611498 1.000000 -0.478946 -0.641613 1.000000 -0.377242 -0.666915 1.000000 -0.255232 -0.677938 1.000000 -0.151246 -0.677686 1.000000 -0.028891 -0.669636 1.000000 0.071597 -0.642753 1.000000 0.184498 -0.616337 1.000000 0.275263 -0.564285 1.000000 0.368129 -0.521696 1.000000 0.443051 -0.449885 1.000000 0.506649 -0.395409 1.000000 0.560765 -0.313457 1.000000 0.590046 -0.253399 1.000000 0.620665 -0.173322 1.000000 0.616571 -0.115118 1.000000 0.623938 -0.048108 1.000000 0.592636 0.000943 1.000000 0.580027 0.046707 1.000000 0.530761 0.080492 1.000000 0.504155 0.100223 1.000000 0.447669 0.114408 1.000000 0.415600 0.106276 1.000000 0.364087 0.099126 1.000000 0.337693 0.064921 1.000000 0.304959 0.039376 1.000000 0.296612 -0.012863 1.000000 0.295492 -0.046445 1.000000 0.313978 -0.100142 1.000000 0.349802 -0.124068 1.000000 0.393547 -0.156663 1.000000 0.457571 -0.152011 1.000000 0.511760 -0.144031 1.000000 0.581569 -0.100259 1.000000 0.623614 -0.045058 1.000000 0.671926 0.034848 1.000000 0.680829 0.128235 1.000000 0.686086 0.229785 1.000000 0.649368 0.341090 1.000000 0.602339 0.444077 1.000000 0.518698 0.549757 1.000000 0.423223 0.634560 1.000000 0.301338 0.714946 1.000000 0.170594 0.767053 1.000000 0.025653 0.809951 1.000000 -0.122796 0.821904 1.000000 -0.273014 0.822824 1.000000 -0.421088 0.794033 1.000000 -0.559380 0.754737 1.000000 -0.690838 0.690316 1.000000 -0.802876 0.617265 1.000000 -0.904879 0.526625 1.000000 -0.980961 0.429645 1.000000 -1.045294 0.324723 1.000000 -1.081412 0.215455 1.000000 -1.105164 0.108349 1.000000 -1.102798 -0.001885 1.000000 -1.087828 -0.101255 1.000000 -1.052336 -0.203375 1.000000 -1.003555 -0.288542 1.000000 -0.941925 -0.376376 1.000000 -0.865409 -0.444088 1.000000 -0.784530 -0.513734 1.000000 
-0.751028 -0.666466 1.000000 -0.646639 -0.722954 1.000000 -0.521289 -0.756423 1.000000 -0.408994 -0.786130 1.000000 -0.273912 -0.797976 1.000000 -0.159208 -0.797888 1.000000 -0.023168 -0.787912 1.000000 0.087697 -0.755864 1.000000 0.213519 -0.724456 1.000000 0.313348 -0.661201 1.000000 0.416223 -0.610441 1.000000 0.497572 -0.521887 1.000000 0.566021 -0.456409 1.000000 0.622749 -0.354404 1.000000 0.650584 -0.281388 1.000000 0.679557 -0.181385 1.000000 0.668451 -0.109563 1.000000 0.670435 -0.025808 1.000000 0.628421 0.035928 1.000000 0.607862 0.093493 1.000000 0.546158 0.137331 1.000000 0.510383 0.163043 1.000000 0.441385 0.182763 1.000000 0.400476 0.173692 1.000000 0.338293 0.165342 1.000000 0.305815 0.121688 1.000000 0.267472 0.086587 1.000000 0.259516 0.016127 1.000000 0.262201 -0.034030 1.000000 0.291033 -0.110841 1.000000 0.342865 -0.152498 1.000000 0.406729 -0.204712 1.000000 0.496498 -0.210727 1.000000 0.574839 -0.210206 1.000000 0.672246 -0.164677 1.000000 0.734214 -0.101206 1.000000 0.803011 -0.007174 1.000000 0.821340 0.107425 1.000000 0.834157 0.231294 1.000000 0.794112 0.369925 1.000000 0.740799 0.497408 1.000000 0.642632 0.629099 1.000000 0.530105 0.734864 1.000000 0.386297 0.834570 1.000000 0.232473 0.900110 1.000000 0.062543 0.953003 1.000000 -0.110618 0.968989 1.000000 -0.285158 0.970070 1.000000 -0.456375 0.935901 1.000000 -0.615520 0.887792 1.000000 -0.766366 0.810034 1.000000 -0.893770 0.721104 1.000000 -1.009847 0.611778 1.000000 -1.094598 0.494569 1.000000 -1.166724 0.368890 1.000000 -1.204753 0.238104 1.000000 -1.230090 0.111281 1.000000 -1.224052 -0.019127 1.000000 -1.205620 -0.135079 1.000000 -1.162764 -0.254493 1.000000 -1.107080 -0.352351 1.000000 -1.036178 -0.454178 1.000000 -0.950603 -0.530930 1.000000 -0.859678 -0.611419 1.000000 
-0.797441 -0.775844 1.000000 -0.681960 -0.841238 1.000000 -0.541813 -0.879258 1.000000 -0.418608 -0.914292 1.000000 -0.266929 -0.927723 1.000000 -0.141277 -0.928429 1.000000 0.012849 -0.916541 1.000000 0.134544 -0.879440 1.000000 0.278389 -0.841988 1.000000 0.388217 -0.766989 1.000000 0.506082 -0.705920 1.000000 0.595425 -0.599683 1.000000 0.672202 -0.520586 1.000000 0.733616 -0.398019 1.000000 0.760706 -0.310207 1.000000 0.789978 -0.191189 1.000000 0.769528 -0.105996 1.000000 0.766727 -0.008078 1.000000 0.709182 0.063516 1.000000 0.678667 0.128970 1.000000 0.597599 0.177971 1.000000 0.547044 0.204996 1.000000 0.456110 0.224315 1.000000 0.396524 0.209368 1.000000 0.311270 0.193787 1.000000 0.259224 0.135742 1.000000 0.201095 0.085674 1.000000 0.179282 -0.007592 1.000000 0.173576 -0.077961 1.000000 0.202326 -0.180806 1.000000 0.264434 -0.239764 1.000000 0.345316 -0.310297 1.000000 0.463236 -0.320121 1.000000 0.569761 -0.319778 1.000000 0.702817 -0.259633 1.000000 0.793163 -0.175823 1.000000 0.891932 -0.052278 1.000000 0.929544 0.097089 1.000000 0.957499 0.257013 1.000000 0.922879 0.434448 1.000000 0.867529 0.595557 1.000000 0.760925 0.760451 1.000000 0.632533 0.890895 1.000000 0.469778 1.012578 1.000000 0.291842 1.090807 1.000000 0.097220 1.153042 1.000000 -0.103030 1.169605 1.000000 -0.303247 1.168581 1.000000 -0.500313 1.124396 1.000000 -0.681954 1.064728 1.000000 -0.854015 0.968566 1.000000 -0.997469 0.860746 1.000000 -1.127684 0.727453 1.000000 -1.220195 0.586523 1.000000 -1.298286 0.434878 1.000000 -1.335869 0.278821 1.000000 -1.359608 0.127648 1.000000 -1.346801 -0.026355 1.000000 -1.321223 -0.162543 1.000000 -1.268021 -0.301916 1.000000 -1.201947 -0.415129 1.000000 -1.119483 -0.532853 1.000000 -1.021817 -0.620588 1.000000 -0.919410 -0.713308 1.000000 
-0.878191 -0.903917 1.000000 -0.749474 -0.978582 1.000000 -0.593924 -1.019774 1.000000 -0.457233 -1.061014 1.000000 -0.288045 -1.075307 1.000000 -0.148312 -1.077666 1.000000 0.025172 -1.063733 1.000000 0.161164 -1.021403 1.000000 0.324376 -0.978129 1.000000 0.447272 -0.888894 1.000000 0.580827 -0.817649 1.000000 0.679670 -0.688006 1.000000 0.763988 -0.594599 1.000000 0.829044 -0.442908 1.000000 0.853051 -0.337750 1.000000 0.879198 -0.190208 1.000000 0.846855 -0.086312 1.000000 0.835138 0.034539 1.000000 0.760572 0.123988 1.000000 0.717383 0.205075 1.000000 0.617286 0.268954 1.000000 0.552071 0.304533 1.000000 0.441641 0.333283 1.000000 0.366817 0.318532 1.000000 0.263073 0.302643 1.000000 0.198186 0.231863 1.000000 0.127281 0.166529 1.000000 0.102022 0.043646 1.000000 0.098386 -0.057075 1.000000 0.141811 -0.201699 1.000000 0.228902 -0.295487 1.000000 0.344414 -0.403514 1.000000 0.506945 -0.435172 1.000000 0.656482 -0.449786 1.000000 0.837724 -0.388079 1.000000 0.962595 -0.290322 1.000000 1.095582 -0.143555 1.000000 1.148070 0.041858 1.000000 1.186295 0.237959 1.000000 1.144431 0.459895 1.000000 1.075812 0.659361 1.000000 0.944532 0.864095 1.000000 0.786987 1.026011 1.000000 0.589786 1.175261 1.000000 0.375911 1.272668 1.000000 0.144242 1.347874 1.000000 -0.091942 1.369455 1.000000 -0.326706 1.367353 1.000000 -0.555938 1.314608 1.000000 -0.766360 1.241493 1.000000 -0.964704 1.125548 1.000000 -1.128727 0.994774 1.000000 -1.277608 0.834504 1.000000 -1.380713 0.665171 1.000000 -1.468236 0.484564 1.000000 -1.506356 0.299426 1.000000 -1.530341 0.122213 1.000000 -1.510138 -0.057513 1.000000 -1.477840 -0.213859 1.000000 -1.412732 -0.373768 1.000000 -1.335962 -0.500889 1.000000 -1.240062 -0.634308 1.000000 -1.129817 -0.731003 1.000000 -1.013974 -0.835796 1.000000 
-0.939168 -1.040344 1.000000 -0.797059 -1.125504 1.000000 -0.623758 -1.171499 1.000000 -0.473990 -1.220172 1.000000 -0.283847 -1.236645 1.000000 -0.130528 -1.241646 1.000000 0.067577 -1.226017 1.000000 0.217748 -1.178644 1.000000 0.407508 -1.128095 1.000000 0.544251 -1.023440 1.000000 0.701482 -0.938318 1.000000 0.812028 -0.782843 1.000000 0.910058 -0.669960 1.000000 0.982605 -0.487083 1.000000 1.005144 -0.360361 1.000000 1.032906 -0.184992 1.000000 0.985644 -0.061936 1.000000 0.968313 0.078205 1.000000 0.870912 0.181271 1.000000 0.814772 0.272257 1.000000 0.688230 0.343283 1.000000 0.602921 0.380641 1.000000 0.462574 0.409569 1.000000 0.360107 0.387935 1.000000 0.221628 0.362418 1.000000 0.124000 0.271535 1.000000 0.018690 0.181839 1.000000 -0.032968 0.021303 1.000000 -0.054521 -0.117751 1.000000 -0.013236 -0.311322 1.000000 0.090428 -0.442367 1.000000 0.237450 -0.588340 1.000000 0.451606 -0.632189 1.000000 0.653209 -0.650557 1.000000 0.898975 -0.565745 1.000000 1.073309 -0.433681 1.000000 1.257178 -0.237753 1.000000 1.340011 0.006376 1.000000 1.399492 0.260652 1.000000 1.362574 0.544931 1.000000 1.284751 0.795456 1.000000 1.136004 1.049276 1.000000 0.948792 1.245641 1.000000 0.719508 1.423654 1.000000 0.466682 1.536351 1.000000 0.196455 1.620895 1.000000 -0.080251 1.640552 1.000000 -0.353399 1.632577 1.000000 -0.619877 1.564050 1.000000 -0.863003 1.473495 1.000000 -1.091113 1.330934 1.000000 -1.277583 1.173650 1.000000 -1.445513 0.979438 1.000000 -1.558165 0.777150 1.000000 -1.652487 0.560522 1.000000 -1.687723 0.340927 1.000000 -1.707450 0.131429 1.000000 -1.675405 -0.078856 1.000000 -1.631558 -0.259949 1.000000 -1.550553 -0.443793 1.000000 -1.459102 -0.587798 1.000000 -1.347109 -0.738998 1.000000 -1.221437 -0.846676 1.000000 -1.090937 -0.964934 1.000000 
-1.037287 -1.197794 1.000000 -0.879673 -1.293991 1.000000 -0.688128 -1.342843 1.000000 -0.522539 -1.400926 1.000000 -0.310486 -1.418770 1.000000 -0.139741 -1.429089 1.000000 0.084725 -1.412008 1.000000 0.253957 -1.361334 1.000000 0.472561 -1.304633 1.000000 0.628060 -1.182868 1.000000 0.810545 -1.085426 1.000000 0.935470 -0.896582 1.000000 1.045859 -0.765176 1.000000 1.123785 -0.537994 1.000000 1.139736 -0.388051 1.000000 1.161966 -0.170708 1.000000 1.094377 -0.021719 1.000000 1.062708 0.149271 1.000000 0.938965 0.277529 1.000000 0.863730 0.387757 1.000000 0.710086 0.480805 1.000000 0.603447 0.530188 1.000000 0.435669 0.576097 1.000000 0.309649 0.559478 1.000000 0.141848 0.538750 1.000000 0.020010 0.434801 1.000000 -0.111457 0.323496 1.000000 -0.176018 0.116857 1.000000 -0.202425 -0.076806 1.000000 -0.141836 -0.346649 1.000000 0.000237 -0.546174 1.000000 0.208181 -0.764692 1.000000 0.501447 -0.850930 1.000000 0.781224 -0.897155 1.000000 1.112754 -0.808179 1.000000 1.346811 -0.648526 1.000000 1.587716 -0.410257 1.000000 1.691785 -0.100455 1.000000 1.761665 0.215397 1.000000 1.706182 0.574636 1.000000 1.597747 0.885931 1.000000 1.404156 1.200054 1.000000 1.164973 1.442507 1.000000 0.880808 1.657371 1.000000 0.572455 1.795721 1.000000 0.248787 1.894808 1.000000 -0.077638 1.919309 1.000000 -0.397312 1.906979 1.000000 -0.705455 1.824212 1.000000 -0.986060 1.712728 1.000000 -1.247509 1.540128 1.000000 -1.460184 1.349175 1.000000 -1.652058 1.115086 1.000000 -1.776904 0.872145 1.000000 -1.882426 0.614122 1.000000 -1.915397 0.354389 1.000000 -1.932872 0.109895 1.000000 -1.887514 -0.133405 1.000000 -1.831907 -0.338711 1.000000 -1.732529 -0.546225 1.000000 -1.625332 -0.704333 1.000000 -1.494824 -0.871972 1.000000 -1.352822 -0.987175 1.000000 -1.205576 -1.118066 1.000000 
-1.113089 -1.366247 1.000000 -0.941028 -1.474664 1.000000 -0.730527 -1.528634 1.000000 -0.550923 -1.597813 1.000000 -0.314570 -1.619443 1.000000 -0.128418 -1.636858 1.000000 0.128027 -1.619714 1.000000 0.314665 -1.566480 1.000000 0.572039 -1.502199 1.000000 0.745991 -1.361424 1.000000 0.966998 -1.245728 1.000000 1.108660 -1.018157 1.000000 1.242843 -0.858275 1.000000 1.332427 -0.580960 1.000000 1.344370 -0.398542 1.000000 1.371021 -0.139634 1.000000 1.277709 0.037322 1.000000 1.240107 0.233617 1.000000 1.082324 0.380249 1.000000 0.991340 0.501136 1.000000 0.804435 0.603566 1.000000 0.673444 0.655058 1.000000 0.470236 0.703367 1.000000 0.307108 0.681757 1.000000 0.090710 0.652057 1.000000 -0.084475 0.524839 1.000000 -0.276383 0.377867 1.000000 -0.392999 0.112272 1.000000 -0.460845 -0.151933 1.000000 -0.411629 -0.513984 1.000000 -0.247277 -0.792385 1.000000 0.017685 -1.089551 1.000000 0.405102 -1.205232 1.000000 0.781247 -1.261864 1.000000 1.231023 -1.131332 1.000000 1.551482 -0.908644 1.000000 1.879759 -0.582727 1.000000 2.030367 -0.167573 1.000000 2.126325 0.246255 1.000000 2.069120 0.708849 1.000000 1.930855 1.097482 1.000000 1.699897 1.482050 1.000000 1.404035 1.768989 1.000000 1.065872 2.016172 1.000000 0.696645 2.168371 1.000000 0.315648 2.270988 1.000000 -0.067183 2.286652 1.000000 -0.440616 2.260395 1.000000 -0.798605 2.152798 1.000000 -1.123657 2.015549 1.000000 -1.423773 1.805058 1.000000 -1.665450 1.578199 1.000000 -1.881055 1.296158 1.000000 -2.015956 1.007518 1.000000 -2.128211 0.699015 1.000000 -2.153671 0.391372 1.000000 -2.162479 0.103546 1.000000 -2.097657 -0.179821 1.000000 -2.024259 -0.414934 1.000000 -1.901590 -0.650368 1.000000 -1.774625 -0.825503 1.000000 -1.623018 -1.011508 1.000000 -1.462856 -1.135924 1.000000 -1.298467 -1.280469 1.000000 
-1.228747 -1.555233 1.000000 -1.041000 -1.676554 1.000000 -0.811923 -1.732949 1.000000 -0.616184 -1.816883 1.000000 -0.355288 -1.841274 1.000000 -0.149656 -1.871685 1.000000 0.140611 -1.855091 1.000000 0.351343 -1.805346 1.000000 0.651431 -1.735959 1.000000 0.852368 -1.577828 1.000000 1.116214 -1.448095 1.000000 1.280763 -1.172426 1.000000 1.437467 -0.988943 1.000000 1.535644 -0.639521 1.000000 1.532163 -0.426645 1.000000 1.549037 -0.104047 1.000000 1.419901 0.109195 1.000000 1.359440 0.344656 1.000000 1.161826 0.526296 1.000000 1.044003 0.665646 1.000000 0.822711 0.798701 1.000000 0.665277 0.864387 1.000000 0.430453 0.942433 1.000000 0.237313 0.939004 1.000000 -0.019403 0.930334 1.000000 -0.235620 0.801894 1.000000 -0.477767 0.632020 1.000000 -0.630638 0.301319 1.000000 -0.727501 -0.058177 1.000000 -0.663392 -0.560217 1.000000 -0.449390 -0.975488 1.000000 -0.081909 -1.417072 1.000000 0.442809 -1.614492 1.000000 0.959826 -1.723076 1.000000 1.564207 -1.578414 1.000000 1.989596 -1.297261 1.000000 2.417662 -0.889142 1.000000 2.598889 -0.347021 1.000000 2.699916 0.176643 1.000000 2.597283 0.770105 1.000000 2.388345 1.255154 1.000000 2.073087 1.726874 1.000000 1.682790 2.076533 1.000000 1.257912 2.364761 1.000000 0.806071 2.545946 1.000000 0.353251 2.658636 1.000000 -0.090967 2.675573 1.000000 -0.520082 2.638402 1.000000 -0.924346 2.507253 1.000000 -1.292569 2.337896 1.000000 -1.629127 2.081921 1.000000 -1.900974 1.806457 1.000000 -2.145930 1.465592 1.000000 -2.293478 1.119301 1.000000 -2.419784 0.751837 1.000000 -2.438976 0.388658 1.000000 -2.442684 0.053880 1.000000 -2.356901 -0.271625 1.000000 -2.265403 -0.534778 1.000000 -2.116653 -0.795859 1.000000 -1.968386 -0.982905 1.000000 -1.793359 -1.183741 1.000000 -1.614144 -1.311726 1.000000 -1.431165 -1.467833 1.000000 